   Color/Form
        WHITE CRYSTALLINE SOLID
   from [1]HSDB

   Odor
        SLIGHTLY AROMATIC ODOR
   from [2]HSDB

   Melting Point
        65.5-66.7 DEG C
   from [3]HSDB

   Density/Specific Gravity
        1.1640 AT 70 DEG C
   from [4]HSDB

   Octanol/Water Partition Coefficient
        log Kow = 0.77 (est)
   from [5]HSDB

   Solubilities

     * 0.95% IN OLIVE OIL, 630 G/KG IN BENZENE, 83O G/KG IN CHLOROFORM,
       430 G/KG IN DIETHYL ETHER, 6O G/KG IN XYLENE; VERY SOL IN ACETONE
       ETHANOL
     * In water, 8.5X10+3 mg/L at 25 deg C

   from [6]HSDB

   Spectral Properties
        INDEX OF REFRACTION: 1.5225 @ 70 DEG C/D
   from [7]HSDB

   Vapor Pressure
        9.25X10-6 mm Hg at 25 deg C (est)
   from [8]HSDB

   Other Chemical/Physical Properties

     * Henry's Law constant = 2.80X10-11 atm-cu m/mol at 25 deg C (est)
     * Hydroxyl radical reaction rate constant = 8.24X10-11 cu
       cm/molec-sec at 25 deg C (est)

   from [9]HSDB

   Computed Properties
   Molecular Weight                  243.284022 [g/mol]
   Molecular Formula                 C[6]H[14]NO[3]PS[2]
   XLogP3                            1.1
   H-Bond Donor                      1
   H-Bond Acceptor                   5
   Rotatable Bond Count              6
   Tautomer Count                    2
   Exact Mass                        243.015272
   MonoIsotopic Mass                 243.015272
   Topological Polar Surface Area    105
   Heavy Atom Count                  13
   Formal Charge                     0
   Complexity                        204
   Isotope Atom Count                0
   Defined Atom Stereocenter Count   0
   Undefined Atom Stereocenter Count 0
   Defined Bond Stereocenter Count   0
   Undefined Bond Stereocenter Count 0
   Covalently-Bonded Unit Count      1
   Feature 3D Acceptor Count         1
   Feature 3D Donor Count            1
   Effective Rotor Count             7
   Conformer Sampling RMSD           0.8
   CID Conformer Count               [10]36

References

   1. http://toxnet.nlm.nih.gov/cgi-bin/sis/search/r?dbs+hsdb:@term+@rn+@rel+116-01-8
   2. http://toxnet.nlm.nih.gov/cgi-bin/sis/search/r?dbs+hsdb:@term+@rn+@rel+116-01-8
   3. http://toxnet.nlm.nih.gov/cgi-bin/sis/search/r?dbs+hsdb:@term+@rn+@rel+116-01-8
   4. http://toxnet.nlm.nih.gov/cgi-bin/sis/search/r?dbs+hsdb:@term+@rn+@rel+116-01-8
   5. http://toxnet.nlm.nih.gov/cgi-bin/sis/search/r?dbs+hsdb:@term+@rn+@rel+116-01-8
   6. http://toxnet.nlm.nih.gov/cgi-bin/sis/search/r?dbs+hsdb:@term+@rn+@rel+116-01-8
   7. http://toxnet.nlm.nih.gov/cgi-bin/sis/search/r?dbs+hsdb:@term+@rn+@rel+116-01-8
   8. http://toxnet.nlm.nih.gov/cgi-bin/sis/search/r?dbs+hsdb:@term+@rn+@rel+116-01-8
   9. http://toxnet.nlm.nih.gov/cgi-bin/sis/search/r?dbs+hsdb:@term+@rn+@rel+116-01-8
  10. http://pubchem.ncbi.nlm.nih.gov/vw3d/vw3d.cgi?cid=8297
