   Color/Form
        BROWNISH-YELLOW CRYSTALS
   from [1]HSDB

   Melting Point
        139 DEG C
   from [2]HSDB

   pH
        AQ SOLN ARE SLIGHTLY ACID
   from [3]HSDB

   Spectral Properties
        Intense mass spectral peaks: 81 m/z, 108 m/z, 136 m/z, 213 m/z
   from [4]HSDB

   Other Chemical/Physical Properties

     * Slightly bitter taste /Phenazopyridine hydrochloride/
     * Forms supersaturated soln easily /Phenazopyridine hydrochloride/
     * MAX ABSORPTION (ETHANOL): 238 NM (A= 437, 1%, 1 CM); 279 NM (A=
       188, 1%, 1 CM); 402 NM (A= 951, 1%, 1 CM) /PYRIDIUM HYDROCHLORIDE/
     * Brick-red microcrystals, slight violet luster; aq soln are yellow
       to brick-red slightly sol in cold water, 1 part in 300; sol in
       boiling water, 1 part in 20; 1 part is sol in 100 parts glycerol
       usp; slightly sol in alcohol, lanolin; sol in ethylene and
       propylene glycols, acetic acid; insol in acetone, benzene,
       chloroform, ether, toluene /Phenazopyridine hydrochloride/

   from [5]HSDB

   Computed Properties
   Molecular Weight                  249.69948 [g/mol]
   Molecular Formula                 C[11]H[12]ClN[5]
   H-Bond Donor                      3
   H-Bond Acceptor                   5
   Rotatable Bond Count              2
   Tautomer Count                    12
   Exact Mass                        249.078123
   MonoIsotopic Mass                 249.078123
   Topological Polar Surface Area    89.6
   Heavy Atom Count                  17
   Formal Charge                     0
   Complexity                        237
   Isotope Atom Count                0
   Defined Atom Stereocenter Count   0
   Undefined Atom Stereocenter Count 0
   Defined Bond Stereocenter Count   0
   Undefined Bond Stereocenter Count 0
   Covalently-Bonded Unit Count      2

References

   1. http://toxnet.nlm.nih.gov/cgi-bin/sis/search/r?dbs+hsdb:@term+@rn+@rel+94-78-0
   2. http://toxnet.nlm.nih.gov/cgi-bin/sis/search/r?dbs+hsdb:@term+@rn+@rel+94-78-0
   3. http://toxnet.nlm.nih.gov/cgi-bin/sis/search/r?dbs+hsdb:@term+@rn+@rel+94-78-0
   4. http://toxnet.nlm.nih.gov/cgi-bin/sis/search/r?dbs+hsdb:@term+@rn+@rel+94-78-0
   5. http://toxnet.nlm.nih.gov/cgi-bin/sis/search/r?dbs+hsdb:@term+@rn+@rel+94-78-0
