45101966
  -OEChem-07051213112D

 68 70  0     1  0  0  0  0  0999 V2000
    7.0420    2.2785    0.0000 O   0  0  0  0  0  0  0  0  0  0  0  0
    5.3100   -0.7215    0.0000 O   0  0  0  0  0  0  0  0  0  0  0  0
    5.3100    1.2785    0.0000 O   0  0  0  0  0  0  0  0  0  0  0  0
    5.3100    2.2785    0.0000 O   0  0  0  0  0  0  0  0  0  0  0  0
    5.3100   -2.4535    0.0000 O   0  0  0  0  0  0  0  0  0  0  0  0
    5.3100    5.2785    0.0000 O   0  0  0  0  0  0  0  0  0  0  0  0
    3.3100   -0.7214    0.0000 O   0  0  0  0  0  0  0  0  0  0  0  0
    3.5779    4.2785    0.0000 O   0  0  0  0  0  0  0  0  0  0  0  0
    2.3100   -2.4536    0.0000 O   0  0  0  0  0  0  0  0  0  0  0  0
    3.3101   -4.1856    0.0000 O   0  0  0  0  0  0  0  0  0  0  0  0
    2.7119    2.7785    0.0000 O   0  0  0  0  0  0  0  0  0  0  0  0
    4.8100   -5.0516    0.0000 O   0  0  0  0  0  0  0  0  0  0  0  0
    8.7741    1.2785    0.0000 N   0  0  0  0  0  0  0  0  0  0  0  0
    7.5421   -1.5874    0.0000 N   0  0  0  0  0  0  0  0  0  0  0  0
    7.0420    4.2785    0.0000 N   0  0  0  0  0  0  0  0  0  0  0  0
    7.0420    1.2785    0.0000 C   0  0  1  0  0  0  0  0  0  0  0  0
    6.1760   -0.2215    0.0000 C   0  0  2  0  0  0  0  0  0  0  0  0
    6.1760    0.7785    0.0000 C   0  0  1  0  0  0  0  0  0  0  0  0
    7.9080    0.7785    0.0000 C   0  0  2  0  0  0  0  0  0  0  0  0
    7.0420   -0.7215    0.0000 C   0  0  1  0  0  0  0  0  0  0  0  0
    7.9080   -0.2215    0.0000 C   0  0  0  0  0  0  0  0  0  0  0  0
    6.1760    2.7785    0.0000 C   0  0  1  0  0  0  0  0  0  0  0  0
    4.8101   -1.5875    0.0000 C   0  0  1  0  0  0  0  0  0  0  0  0
    6.1760    3.7785    0.0000 C   0  0  1  0  0  0  0  0  0  0  0  0
    5.3100    4.2785    0.0000 C   0  0  2  0  0  0  0  0  0  0  0  0
    3.8100   -1.5875    0.0000 C   0  0  1  0  0  0  0  0  0  0  0  0
    4.4440    3.7785    0.0000 C   0  0  1  0  0  0  0  0  0  0  0  0
    4.4440    2.7785    0.0000 C   0  0  1  0  0  0  0  0  0  0  0  0
    3.3100   -2.4536    0.0000 C   0  0  2  0  0  0  0  0  0  0  0  0
    3.8101   -3.3196    0.0000 C   0  0  1  0  0  0  0  0  0  0  0  0
    4.8100   -3.3195    0.0000 C   0  0  1  0  0  0  0  0  0  0  0  0
    3.5779    2.2785    0.0000 C   0  0  0  0  0  0  0  0  0  0  0  0
    5.3100   -4.1856    0.0000 C   0  0  0  0  0  0  0  0  0  0  0  0
    7.5790    1.5885    0.0000 H   0  0  0  0  0  0  0  0  0  0  0  0
    6.1760   -0.8415    0.0000 H   0  0  0  0  0  0  0  0  0  0  0  0
    5.6391    0.4685    0.0000 H   0  0  0  0  0  0  0  0  0  0  0  0
    8.4450    0.4685    0.0000 H   0  0  0  0  0  0  0  0  0  0  0  0
    6.6036   -1.1599    0.0000 H   0  0  0  0  0  0  0  0  0  0  0  0
    8.1201   -0.8041    0.0000 H   0  0  0  0  0  0  0  0  0  0  0  0
    8.5186   -0.1138    0.0000 H   0  0  0  0  0  0  0  0  0  0  0  0
    6.1760    2.1585    0.0000 H   0  0  0  0  0  0  0  0  0  0  0  0
    4.5000   -1.0506    0.0000 H   0  0  0  0  0  0  0  0  0  0  0  0
    6.7129    3.4685    0.0000 H   0  0  0  0  0  0  0  0  0  0  0  0
    5.8469    4.5885    0.0000 H   0  0  0  0  0  0  0  0  0  0  0  0
    3.1900   -1.5875    0.0000 H   0  0  0  0  0  0  0  0  0  0  0  0
    3.9070    3.4685    0.0000 H   0  0  0  0  0  0  0  0  0  0  0  0
    4.4440    2.1585    0.0000 H   0  0  0  0  0  0  0  0  0  0  0  0
    3.0000   -2.9905    0.0000 H   0  0  0  0  0  0  0  0  0  0  0  0
    9.3110    0.9685    0.0000 H   0  0  0  0  0  0  0  0  0  0  0  0
    8.7741    1.8985    0.0000 H   0  0  0  0  0  0  0  0  0  0  0  0
    8.1620   -1.5875    0.0000 H   0  0  0  0  0  0  0  0  0  0  0  0
    7.2321   -2.1244    0.0000 H   0  0  0  0  0  0  0  0  0  0  0  0
    4.1201   -3.8565    0.0000 H   0  0  0  0  0  0  0  0  0  0  0  0
    5.4300   -3.3195    0.0000 H   0  0  0  0  0  0  0  0  0  0  0  0
    4.7730    0.9685    0.0000 H   0  0  0  0  0  0  0  0  0  0  0  0
    3.1794    1.8036    0.0000 H   0  0  0  0  0  0  0  0  0  0  0  0
    3.9764    1.8036    0.0000 H   0  0  0  0  0  0  0  0  0  0  0  0
    7.0420    4.8985    0.0000 H   0  0  0  0  0  0  0  0  0  0  0  0
    7.5790    3.9685    0.0000 H   0  0  0  0  0  0  0  0  0  0  0  0
    5.7849   -4.5841    0.0000 H   0  0  0  0  0  0  0  0  0  0  0  0
    5.7849   -3.7870    0.0000 H   0  0  0  0  0  0  0  0  0  0  0  0
    4.7730    5.5885    0.0000 H   0  0  0  0  0  0  0  0  0  0  0  0
    2.6900   -0.7214    0.0000 H   0  0  0  0  0  0  0  0  0  0  0  0
    3.5779    4.8985    0.0000 H   0  0  0  0  0  0  0  0  0  0  0  0
    2.0000   -2.9905    0.0000 H   0  0  0  0  0  0  0  0  0  0  0  0
    2.6900   -4.1856    0.0000 H   0  0  0  0  0  0  0  0  0  0  0  0
    2.1750    2.4685    0.0000 H   0  0  0  0  0  0  0  0  0  0  0  0
    5.1200   -5.5885    0.0000 H   0  0  0  0  0  0  0  0  0  0  0  0
 16  1  1  6  0  0  0
 22  1  1  1  0  0  0
 17  2  1  6  0  0  0
 23  2  1  1  0  0  0
 18  3  1  1  0  0  0
  3 55  1  0  0  0  0
  4 22  1  0  0  0  0
  4 28  1  0  0  0  0
  5 23  1  0  0  0  0
  5 31  1  0  0  0  0
 25  6  1  6  0  0  0
  6 62  1  0  0  0  0
 26  7  1  1  0  0  0
  7 63  1  0  0  0  0
 27  8  1  1  0  0  0
  8 64  1  0  0  0  0
 29  9  1  6  0  0  0
  9 65  1  0  0  0  0
 30 10  1  1  0  0  0
 10 66  1  0  0  0  0
 11 32  1  0  0  0  0
 11 67  1  0  0  0  0
 12 33  1  0  0  0  0
 12 68  1  0  0  0  0
 19 13  1  1  0  0  0
 13 49  1  0  0  0  0
 13 50  1  0  0  0  0
 20 14  1  1  0  0  0
 14 51  1  0  0  0  0
 14 52  1  0  0  0  0
 24 15  1  1  0  0  0
 15 58  1  0  0  0  0
 15 59  1  0  0  0  0
 16 18  1  0  0  0  0
 16 19  1  0  0  0  0
 16 34  1  0  0  0  0
 17 18  1  0  0  0  0
 17 20  1  0  0  0  0
 17 35  1  0  0  0  0
 18 36  1  0  0  0  0
 19 21  1  0  0  0  0
 19 37  1  0  0  0  0
 20 21  1  0  0  0  0
 20 38  1  0  0  0  0
 21 39  1  0  0  0  0
 21 40  1  0  0  0  0
 22 24  1  0  0  0  0
 22 41  1  0  0  0  0
 23 26  1  0  0  0  0
 23 42  1  0  0  0  0
 24 25  1  0  0  0  0
 24 43  1  0  0  0  0
 25 27  1  0  0  0  0
 25 44  1  0  0  0  0
 26 29  1  0  0  0  0
 26 45  1  0  0  0  0
 27 28  1  0  0  0  0
 27 46  1  0  0  0  0
 28 32  1  6  0  0  0
 28 47  1  0  0  0  0
 29 30  1  0  0  0  0
 29 48  1  0  0  0  0
 30 31  1  0  0  0  0
 30 53  1  0  0  0  0
 31 33  1  6  0  0  0
 31 54  1  0  0  0  0
 32 56  1  0  0  0  0
 32 57  1  0  0  0  0
 33 60  1  0  0  0  0
 33 61  1  0  0  0  0
M  END
> <PUBCHEM_COMPOUND_CID>
45101966

> <PUBCHEM_COMPOUND_CANONICALIZED>
1

> <PUBCHEM_CACTVS_COMPLEXITY>
637

> <PUBCHEM_CACTVS_HBOND_ACCEPTOR>
15

> <PUBCHEM_CACTVS_HBOND_DONOR>
11

> <PUBCHEM_CACTVS_ROTATABLE_BOND>
6

> <PUBCHEM_CACTVS_SUBSKEYS>
AAADcfB7PAAAAAAAAAAAAAAAAAAAAAAAAAA0SIAAAAAAAAAAAAAAHgAQCAAACDzxgAcACABABgAAAAAAAAAAAAAAAAAAAIAAAAATEAIAwAAjQAAHEAAHAAHwcA0AAAAAAAAAAAAAgAAUCACgAAAAAAAAAA==

> <PUBCHEM_IUPAC_OPENEYE_NAME>
(2S,3R,4S,5S,6R)-2-[(1S,2S,3R,4S,6R)-4,6-diamino-3-[(2S,3R,4R,5S,6R)-3-amino-4,5-dihydroxy-6-(hydroxymethyl)tetrahydropyran-2-yl]oxy-2-hydroxy-cyclohexoxy]-6-(hydroxymethyl)tetrahydropyran-3,4,5-triol

> <PUBCHEM_IUPAC_CAS_NAME>
(2S,3R,4S,5S,6R)-2-[(1S,2S,3R,4S,6R)-4,6-diamino-3-[[(2S,3R,4R,5S,6R)-3-amino-4,5-dihydroxy-6-(hydroxymethyl)-2-oxanyl]oxy]-2-hydroxycyclohexyl]oxy-6-(hydroxymethyl)oxane-3,4,5-triol

> <PUBCHEM_IUPAC_NAME>
(2S,3R,4S,5S,6R)-2-[(1S,2S,3R,4S,6R)-4,6-diamino-3-[(2S,3R,4R,5S,6R)-3-amino-4,5-dihydroxy-6-(hydroxymethyl)oxan-2-yl]oxy-2-hydroxycyclohexyl]oxy-6-(hydroxymethyl)oxane-3,4,5-triol

> <PUBCHEM_IUPAC_SYSTEMATIC_NAME>
(2S,3R,4S,5S,6R)-2-[(1S,2S,3R,4S,6R)-4,6-bis(azanyl)-3-[(2S,3R,4R,5S,6R)-3-azanyl-6-(hydroxymethyl)-4,5-bis(oxidanyl)oxan-2-yl]oxy-2-oxidanyl-cyclohexyl]oxy-6-(hydroxymethyl)oxane-3,4,5-triol

> <PUBCHEM_IUPAC_TRADITIONAL_NAME>
(2S,3R,4S,5S,6R)-2-[(1S,2S,3R,4S,6R)-4,6-diamino-3-[(2S,3R,4R,5S,6R)-3-amino-4,5-dihydroxy-6-methylol-tetrahydropyran-2-yl]oxy-2-hydroxy-cyclohexoxy]-6-methylol-tetrahydropyran-3,4,5-triol

> <PUBCHEM_IUPAC_INCHI>
InChI=1S/C18H35N3O12/c19-4-1-5(20)16(33-18-13(28)12(27)10(25)7(3-23)31-18)14(29)15(4)32-17-8(21)11(26)9(24)6(2-22)30-17/h4-18,22-29H,1-3,19-21H2/t4-,5+,6+,7+,8+,9+,10+,11+,12-,13+,14-,15+,16-,17+,18+/m0/s1

> <PUBCHEM_IUPAC_INCHIKEY>
UPPJKCYSMDGLRE-DNBVWFFRSA-N

> <PUBCHEM_XLOGP3_AA>
-6.7

> <PUBCHEM_EXACT_MASS>
485.222074

> <PUBCHEM_MOLECULAR_FORMULA>
C18H35N3O12

> <PUBCHEM_MOLECULAR_WEIGHT>
485.4834

> <PUBCHEM_OPENEYE_CAN_SMILES>
C1C(C(C(C(C1N)OC2C(C(C(C(O2)CO)O)O)O)O)OC3C(C(C(C(O3)CO)O)O)N)N

> <PUBCHEM_OPENEYE_ISO_SMILES>
C1[C@@H]([C@H]([C@@H]([C@H]([C@@H]1N)O[C@@H]2[C@@H]([C@H]([C@@H]([C@H](O2)CO)O)O)O)O)O[C@@H]3[C@@H]([C@H]([C@@H]([C@H](O3)CO)O)O)N)N

> <PUBCHEM_CACTVS_TPSA>
277

> <PUBCHEM_MONOISOTOPIC_WEIGHT>
485.222074

> <PUBCHEM_TOTAL_CHARGE>
0

> <PUBCHEM_HEAVY_ATOM_COUNT>
33

> <PUBCHEM_ATOM_DEF_STEREO_COUNT>
15

> <PUBCHEM_ATOM_UDEF_STEREO_COUNT>
0

> <PUBCHEM_BOND_DEF_STEREO_COUNT>
0

> <PUBCHEM_BOND_UDEF_STEREO_COUNT>
0

> <PUBCHEM_ISOTOPIC_ATOM_COUNT>
0

> <PUBCHEM_COMPONENT_COUNT>
1

> <PUBCHEM_CACTVS_TAUTO_COUNT>
1

> <PUBCHEM_COORDINATE_TYPE>
1
5
255

> <PUBCHEM_BONDANNOTATIONS>
16  1  6
22  1  5
30  10  5
19  13  5
20  14  5
24  15  5
17  2  6
23  2  5
28  32  6
18  3  5
31  33  6
25  6  6
26  7  5
27  8  5
29  9  6

$$$$

