51090977
  -OEChem-06241223012D

 45 46  0     1  0  0  0  0  0999 V2000
    7.0468    1.8512    0.0000 O   0  0  0  0  0  0  0  0  0  0  0  0
    7.0468   -2.1488    0.0000 O   0  0  0  0  0  0  0  0  0  0  0  0
    2.6691   -0.7420    0.0000 O   0  0  0  0  0  0  0  0  0  0  0  0
    4.4487    0.3512    0.0000 O   0  0  0  0  0  0  0  0  0  0  0  0
    7.9128   -0.6488    0.0000 N   0  0  0  0  0  0  0  0  0  0  0  0
    5.3147   -1.1488    0.0000 N   0  0  0  0  0  0  0  0  0  0  0  0
   10.5109   -1.1488    0.0000 N   0  0  0  0  0  0  0  0  0  0  0  0
    6.1808   -0.6488    0.0000 C   0  0  3  0  0  0  0  0  0  0  0  0
    7.9128    0.3512    0.0000 C   0  0  0  0  0  0  0  0  0  0  0  0
    7.0468   -1.1488    0.0000 C   0  0  0  0  0  0  0  0  0  0  0  0
    8.7788   -1.1488    0.0000 C   0  0  0  0  0  0  0  0  0  0  0  0
    7.0468    0.8512    0.0000 C   0  0  0  0  0  0  0  0  0  0  0  0
    6.1808    0.3512    0.0000 C   0  0  0  0  0  0  0  0  0  0  0  0
    9.6448   -0.6488    0.0000 C   0  0  0  0  0  0  0  0  0  0  0  0
    4.4487   -0.6488    0.0000 C   0  0  0  0  0  0  0  0  0  0  0  0
    9.6448    0.3512    0.0000 C   0  0  0  0  0  0  0  0  0  0  0  0
    3.5827   -1.1488    0.0000 C   0  0  0  0  0  0  0  0  0  0  0  0
   10.5109    0.8512    0.0000 C   0  0  0  0  0  0  0  0  0  0  0  0
   11.3769   -0.6488    0.0000 C   0  0  0  0  0  0  0  0  0  0  0  0
   11.3769    0.3512    0.0000 C   0  0  0  0  0  0  0  0  0  0  0  0
    6.1808    2.3512    0.0000 C   0  0  0  0  0  0  0  0  0  0  0  0
    3.4782   -2.1433    0.0000 C   0  0  0  0  0  0  0  0  0  0  0  0
    2.5000   -2.3512    0.0000 C   0  0  0  0  0  0  0  0  0  0  0  0
    2.0000   -1.4852    0.0000 C   0  0  0  0  0  0  0  0  0  0  0  0
    6.1808   -1.2688    0.0000 H   0  0  0  0  0  0  0  0  0  0  0  0
    8.5234    0.2436    0.0000 H   0  0  0  0  0  0  0  0  0  0  0  0
    8.1249    0.9338    0.0000 H   0  0  0  0  0  0  0  0  0  0  0  0
    8.3803   -1.6237    0.0000 H   0  0  0  0  0  0  0  0  0  0  0  0
    9.1774   -1.6237    0.0000 H   0  0  0  0  0  0  0  0  0  0  0  0
    6.4362    0.9589    0.0000 H   0  0  0  0  0  0  0  0  0  0  0  0
    6.8347    0.2686    0.0000 H   0  0  0  0  0  0  0  0  0  0  0  0
    6.8008    0.3512    0.0000 H   0  0  0  0  0  0  0  0  0  0  0  0
    6.1808    0.9712    0.0000 H   0  0  0  0  0  0  0  0  0  0  0  0
    5.5608    0.3512    0.0000 H   0  0  0  0  0  0  0  0  0  0  0  0
    5.3147   -1.7688    0.0000 H   0  0  0  0  0  0  0  0  0  0  0  0
    9.1079    0.6612    0.0000 H   0  0  0  0  0  0  0  0  0  0  0  0
   10.5109    1.4712    0.0000 H   0  0  0  0  0  0  0  0  0  0  0  0
   11.9138   -0.9588    0.0000 H   0  0  0  0  0  0  0  0  0  0  0  0
   11.9138    0.6612    0.0000 H   0  0  0  0  0  0  0  0  0  0  0  0
    6.4908    2.8882    0.0000 H   0  0  0  0  0  0  0  0  0  0  0  0
    5.6438    2.6612    0.0000 H   0  0  0  0  0  0  0  0  0  0  0  0
    5.8708    1.8143    0.0000 H   0  0  0  0  0  0  0  0  0  0  0  0
    3.9389   -2.5582    0.0000 H   0  0  0  0  0  0  0  0  0  0  0  0
    2.2478   -2.9176    0.0000 H   0  0  0  0  0  0  0  0  0  0  0  0
    1.3834   -1.4204    0.0000 H   0  0  0  0  0  0  0  0  0  0  0  0
  1 12  1  0  0  0  0
  1 21  1  0  0  0  0
  2 10  2  0  0  0  0
  3 17  1  0  0  0  0
  3 24  1  0  0  0  0
  4 15  2  0  0  0  0
  5  9  1  0  0  0  0
  5 10  1  0  0  0  0
  5 11  1  0  0  0  0
  6  8  1  0  0  0  0
  6 15  1  0  0  0  0
  6 35  1  0  0  0  0
  7 14  1  0  0  0  0
  7 19  2  0  0  0  0
  8 10  1  0  0  0  0
  8 13  1  0  0  0  0
  8 25  1  0  0  0  0
  9 12  1  0  0  0  0
  9 26  1  0  0  0  0
  9 27  1  0  0  0  0
 11 14  1  0  0  0  0
 11 28  1  0  0  0  0
 11 29  1  0  0  0  0
 12 30  1  0  0  0  0
 12 31  1  0  0  0  0
 13 32  1  0  0  0  0
 13 33  1  0  0  0  0
 13 34  1  0  0  0  0
 14 16  2  0  0  0  0
 15 17  1  0  0  0  0
 16 18  1  0  0  0  0
 16 36  1  0  0  0  0
 17 22  2  0  0  0  0
 18 20  2  0  0  0  0
 18 37  1  0  0  0  0
 19 20  1  0  0  0  0
 19 38  1  0  0  0  0
 20 39  1  0  0  0  0
 21 40  1  0  0  0  0
 21 41  1  0  0  0  0
 21 42  1  0  0  0  0
 22 23  1  0  0  0  0
 22 43  1  0  0  0  0
 23 24  2  0  0  0  0
 23 44  1  0  0  0  0
 24 45  1  0  0  0  0
M  END
> <PUBCHEM_COMPOUND_CID>
51090977

> <PUBCHEM_COMPOUND_CANONICALIZED>
1

> <PUBCHEM_CACTVS_COMPLEXITY>
419

> <PUBCHEM_CACTVS_HBOND_ACCEPTOR>
5

> <PUBCHEM_CACTVS_HBOND_DONOR>
1

> <PUBCHEM_CACTVS_ROTATABLE_BOND>
8

> <PUBCHEM_CACTVS_SUBSKEYS>
AAADceB7OAAAAAAAAAAAAAAAAAAAASAAAAAsAAAAAAAAAAAB4AAAHgAQAAAACCzhlgY+hJPIFECoAb131AKCiCA1IiAI2KH+bNgOZvLEtb+XOSjk1hHY6YeYFwIAAAAAAAAAAAAAAAAAAAAAAAAAAAAAAA==

> <PUBCHEM_IUPAC_OPENEYE_NAME>
N-[2-[2-methoxyethyl(2-pyridylmethyl)amino]-1-methyl-2-oxo-ethyl]furan-2-carboxamide

> <PUBCHEM_IUPAC_CAS_NAME>
N-[1-[2-methoxyethyl(2-pyridinylmethyl)amino]-1-oxopropan-2-yl]-2-furancarboxamide

> <PUBCHEM_IUPAC_NAME>
N-[1-[2-methoxyethyl(pyridin-2-ylmethyl)amino]-1-oxopropan-2-yl]furan-2-carboxamide

> <PUBCHEM_IUPAC_SYSTEMATIC_NAME>
N-[1-[2-methoxyethyl(pyridin-2-ylmethyl)amino]-1-oxidanylidene-propan-2-yl]furan-2-carboxamide

> <PUBCHEM_IUPAC_TRADITIONAL_NAME>
N-[2-keto-2-[2-methoxyethyl(2-pyridylmethyl)amino]-1-methyl-ethyl]-2-furamide

> <PUBCHEM_IUPAC_INCHI>
InChI=1S/C17H21N3O4/c1-13(19-16(21)15-7-5-10-24-15)17(22)20(9-11-23-2)12-14-6-3-4-8-18-14/h3-8,10,13H,9,11-12H2,1-2H3,(H,19,21)

> <PUBCHEM_IUPAC_INCHIKEY>
QYDBNIVMAHCCPI-UHFFFAOYSA-N

> <PUBCHEM_XLOGP3_AA>
0.8

> <PUBCHEM_EXACT_MASS>
331.153206

> <PUBCHEM_MOLECULAR_FORMULA>
C17H21N3O4

> <PUBCHEM_MOLECULAR_WEIGHT>
331.36634

> <PUBCHEM_OPENEYE_CAN_SMILES>
CC(C(=O)N(CCOC)CC1=CC=CC=N1)NC(=O)C2=CC=CO2

> <PUBCHEM_OPENEYE_ISO_SMILES>
CC(C(=O)N(CCOC)CC1=CC=CC=N1)NC(=O)C2=CC=CO2

> <PUBCHEM_CACTVS_TPSA>
84.7

> <PUBCHEM_MONOISOTOPIC_WEIGHT>
331.153206

> <PUBCHEM_TOTAL_CHARGE>
0

> <PUBCHEM_HEAVY_ATOM_COUNT>
24

> <PUBCHEM_ATOM_DEF_STEREO_COUNT>
0

> <PUBCHEM_ATOM_UDEF_STEREO_COUNT>
1

> <PUBCHEM_BOND_DEF_STEREO_COUNT>
0

> <PUBCHEM_BOND_UDEF_STEREO_COUNT>
0

> <PUBCHEM_ISOTOPIC_ATOM_COUNT>
0

> <PUBCHEM_COMPONENT_COUNT>
1

> <PUBCHEM_CACTVS_TAUTO_COUNT>
2

> <PUBCHEM_COORDINATE_TYPE>
1
5
255

> <PUBCHEM_BONDANNOTATIONS>
14  16  8
16  18  8
17  22  8
18  20  8
19  20  8
22  23  8
23  24  8
3  17  8
3  24  8
7  14  8
7  19  8
8  13  3

$$$$

