5280473
  -OEChem-07051212462D

140140  0     0  0  0  0  0  0999 V2000
    2.0000  -13.7500    0.0000 O   0  0  0  0  0  0  0  0  0  0  0  0
    3.7320  -14.7500    0.0000 O   0  0  0  0  0  0  0  0  0  0  0  0
    2.0000  -11.7500    0.0000 O   0  0  0  0  0  0  0  0  0  0  0  0
    5.4641  -13.7500    0.0000 O   0  0  0  0  0  0  0  0  0  0  0  0
   10.6603    0.2500    0.0000 C   0  0  0  0  0  0  0  0  0  0  0  0
    8.9282   -2.7500    0.0000 C   0  0  0  0  0  0  0  0  0  0  0  0
   12.3923    3.2500    0.0000 C   0  0  0  0  0  0  0  0  0  0  0  0
   10.6603    1.2500    0.0000 C   0  0  0  0  0  0  0  0  0  0  0  0
    8.9282   -1.7500    0.0000 C   0  0  0  0  0  0  0  0  0  0  0  0
   12.3923    4.2500    0.0000 C   0  0  0  0  0  0  0  0  0  0  0  0
    7.1962   -5.7500    0.0000 C   0  0  0  0  0  0  0  0  0  0  0  0
   14.1244    6.2500    0.0000 C   0  0  0  0  0  0  0  0  0  0  0  0
    7.1962   -4.7500    0.0000 C   0  0  0  0  0  0  0  0  0  0  0  0
    9.7942   -0.2500    0.0000 C   0  0  0  0  0  0  0  0  0  0  0  0
   11.5263    2.7500    0.0000 C   0  0  0  0  0  0  0  0  0  0  0  0
    8.0622   -3.2500    0.0000 C   0  0  0  0  0  0  0  0  0  0  0  0
   14.1244    7.2500    0.0000 C   0  0  0  0  0  0  0  0  0  0  0  0
   13.2583    5.7500    0.0000 C   0  0  0  0  0  0  0  0  0  0  0  0
    6.3301   -6.2500    0.0000 C   0  0  0  0  0  0  0  0  0  0  0  0
   11.5263    1.7500    0.0000 C   0  0  0  0  0  0  0  0  0  0  0  0
    9.7942   -1.2500    0.0000 C   0  0  0  0  0  0  0  0  0  0  0  0
    5.4641   -7.7500    0.0000 C   0  0  0  0  0  0  0  0  0  0  0  0
   13.2583    4.7500    0.0000 C   0  0  0  0  0  0  0  0  0  0  0  0
    8.0622   -4.2500    0.0000 C   0  0  0  0  0  0  0  0  0  0  0  0
    5.4641   -8.7500    0.0000 C   0  0  0  0  0  0  0  0  0  0  0  0
   15.8564    9.2500    0.0000 C   0  0  0  0  0  0  0  0  0  0  0  0
   14.9904    8.7500    0.0000 C   0  0  0  0  0  0  0  0  0  0  0  0
   14.9904    7.7500    0.0000 C   0  0  0  0  0  0  0  0  0  0  0  0
    6.3301   -7.2500    0.0000 C   0  0  0  0  0  0  0  0  0  0  0  0
   15.8564   10.2500    0.0000 C   0  0  0  0  0  0  0  0  0  0  0  0
    4.5981   -9.2500    0.0000 C   0  0  0  0  0  0  0  0  0  0  0  0
    8.9282    0.2500    0.0000 C   0  0  0  0  0  0  0  0  0  0  0  0
   10.6603    3.2500    0.0000 C   0  0  0  0  0  0  0  0  0  0  0  0
    7.1962   -2.7500    0.0000 C   0  0  0  0  0  0  0  0  0  0  0  0
    3.7320  -10.7500    0.0000 C   0  0  0  0  0  0  0  0  0  0  0  0
   12.3923    6.2500    0.0000 C   0  0  0  0  0  0  0  0  0  0  0  0
   16.7224   10.7500    0.0000 C   0  0  0  0  0  0  0  0  0  0  0  0
    4.5981  -10.2500    0.0000 C   0  0  0  0  0  0  0  0  0  0  0  0
   16.7224   11.7500    0.0000 C   0  0  0  0  0  0  0  0  0  0  0  0
    5.4641   -5.7500    0.0000 C   0  0  0  0  0  0  0  0  0  0  0  0
   17.5885   12.2500    0.0000 C   0  0  0  0  0  0  0  0  0  0  0  0
    3.7320  -11.7500    0.0000 C   0  0  0  0  0  0  0  0  0  0  0  0
   14.1244    9.2500    0.0000 C   0  0  0  0  0  0  0  0  0  0  0  0
    3.7320   -8.7500    0.0000 C   0  0  0  0  0  0  0  0  0  0  0  0
   17.5885   13.2500    0.0000 C   0  0  0  0  0  0  0  0  0  0  0  0
    4.5981  -12.2500    0.0000 C   0  0  0  0  0  0  0  0  0  0  0  0
    2.8660  -12.2500    0.0000 C   0  0  0  0  0  0  0  0  0  0  0  0
   15.8564   12.2500    0.0000 C   0  0  0  0  0  0  0  0  0  0  0  0
    4.5981  -13.2500    0.0000 C   0  0  0  0  0  0  0  0  0  0  0  0
    2.8660  -13.2500    0.0000 C   0  0  0  0  0  0  0  0  0  0  0  0
    3.7320  -13.7500    0.0000 C   0  0  0  0  0  0  0  0  0  0  0  0
   18.4545   13.7500    0.0000 C   0  0  0  0  0  0  0  0  0  0  0  0
    5.4641  -11.7500    0.0000 C   0  0  0  0  0  0  0  0  0  0  0  0
   18.4545   14.7500    0.0000 C   0  0  0  0  0  0  0  0  0  0  0  0
   19.3205   15.2500    0.0000 C   0  0  0  0  0  0  0  0  0  0  0  0
   17.5885   15.2500    0.0000 C   0  0  0  0  0  0  0  0  0  0  0  0
    2.0000  -14.7500    0.0000 C   0  0  0  0  0  0  0  0  0  0  0  0
    4.5981  -15.2500    0.0000 C   0  0  0  0  0  0  0  0  0  0  0  0
   10.8723   -0.3326    0.0000 H   0  0  0  0  0  0  0  0  0  0  0  0
   11.2708    0.3577    0.0000 H   0  0  0  0  0  0  0  0  0  0  0  0
    9.1403   -3.3326    0.0000 H   0  0  0  0  0  0  0  0  0  0  0  0
    9.5388   -2.6423    0.0000 H   0  0  0  0  0  0  0  0  0  0  0  0
   12.6044    2.6674    0.0000 H   0  0  0  0  0  0  0  0  0  0  0  0
   13.0029    3.3577    0.0000 H   0  0  0  0  0  0  0  0  0  0  0  0
   10.4482    1.8326    0.0000 H   0  0  0  0  0  0  0  0  0  0  0  0
   10.0497    1.1423    0.0000 H   0  0  0  0  0  0  0  0  0  0  0  0
    8.7162   -1.1674    0.0000 H   0  0  0  0  0  0  0  0  0  0  0  0
    8.3176   -1.8577    0.0000 H   0  0  0  0  0  0  0  0  0  0  0  0
   12.1803    4.8326    0.0000 H   0  0  0  0  0  0  0  0  0  0  0  0
   11.7817    4.1423    0.0000 H   0  0  0  0  0  0  0  0  0  0  0  0
    7.4082   -6.3326    0.0000 H   0  0  0  0  0  0  0  0  0  0  0  0
    7.8067   -5.6423    0.0000 H   0  0  0  0  0  0  0  0  0  0  0  0
   14.3364    5.6674    0.0000 H   0  0  0  0  0  0  0  0  0  0  0  0
   14.7349    6.3577    0.0000 H   0  0  0  0  0  0  0  0  0  0  0  0
    6.9841   -4.1674    0.0000 H   0  0  0  0  0  0  0  0  0  0  0  0
    6.5856   -4.8577    0.0000 H   0  0  0  0  0  0  0  0  0  0  0  0
   13.9123    7.8326    0.0000 H   0  0  0  0  0  0  0  0  0  0  0  0
   13.5138    7.1423    0.0000 H   0  0  0  0  0  0  0  0  0  0  0  0
   12.0632    1.4400    0.0000 H   0  0  0  0  0  0  0  0  0  0  0  0
   10.3312   -1.5600    0.0000 H   0  0  0  0  0  0  0  0  0  0  0  0
    5.2520   -7.1674    0.0000 H   0  0  0  0  0  0  0  0  0  0  0  0
    4.8535   -7.8577    0.0000 H   0  0  0  0  0  0  0  0  0  0  0  0
   13.7953    4.4400    0.0000 H   0  0  0  0  0  0  0  0  0  0  0  0
    8.5991   -4.5600    0.0000 H   0  0  0  0  0  0  0  0  0  0  0  0
    5.6762   -9.3326    0.0000 H   0  0  0  0  0  0  0  0  0  0  0  0
    6.0747   -8.6423    0.0000 H   0  0  0  0  0  0  0  0  0  0  0  0
   16.0685    8.6674    0.0000 H   0  0  0  0  0  0  0  0  0  0  0  0
   16.4670    9.3577    0.0000 H   0  0  0  0  0  0  0  0  0  0  0  0
   15.5273    7.4400    0.0000 H   0  0  0  0  0  0  0  0  0  0  0  0
    6.8671   -7.5600    0.0000 H   0  0  0  0  0  0  0  0  0  0  0  0
   15.6444   10.8326    0.0000 H   0  0  0  0  0  0  0  0  0  0  0  0
   15.2458   10.1423    0.0000 H   0  0  0  0  0  0  0  0  0  0  0  0
    9.2382    0.7869    0.0000 H   0  0  0  0  0  0  0  0  0  0  0  0
    8.3913    0.5600    0.0000 H   0  0  0  0  0  0  0  0  0  0  0  0
    8.6182   -0.2869    0.0000 H   0  0  0  0  0  0  0  0  0  0  0  0
   10.9703    3.7869    0.0000 H   0  0  0  0  0  0  0  0  0  0  0  0
   10.1233    3.5600    0.0000 H   0  0  0  0  0  0  0  0  0  0  0  0
   10.3503    2.7131    0.0000 H   0  0  0  0  0  0  0  0  0  0  0  0
    7.5062   -2.2131    0.0000 H   0  0  0  0  0  0  0  0  0  0  0  0
    6.6592   -2.4400    0.0000 H   0  0  0  0  0  0  0  0  0  0  0  0
    6.8862   -3.2869    0.0000 H   0  0  0  0  0  0  0  0  0  0  0  0
    3.5200  -10.1674    0.0000 H   0  0  0  0  0  0  0  0  0  0  0  0
    3.1215  -10.8577    0.0000 H   0  0  0  0  0  0  0  0  0  0  0  0
   12.7023    6.7869    0.0000 H   0  0  0  0  0  0  0  0  0  0  0  0
   11.8554    6.5600    0.0000 H   0  0  0  0  0  0  0  0  0  0  0  0
   12.0823    5.7131    0.0000 H   0  0  0  0  0  0  0  0  0  0  0  0
   17.2594   10.4400    0.0000 H   0  0  0  0  0  0  0  0  0  0  0  0
    5.1350  -10.5600    0.0000 H   0  0  0  0  0  0  0  0  0  0  0  0
    5.7741   -5.2131    0.0000 H   0  0  0  0  0  0  0  0  0  0  0  0
    4.9272   -5.4400    0.0000 H   0  0  0  0  0  0  0  0  0  0  0  0
    5.1541   -6.2869    0.0000 H   0  0  0  0  0  0  0  0  0  0  0  0
   17.8005   11.6674    0.0000 H   0  0  0  0  0  0  0  0  0  0  0  0
   18.1990   12.3577    0.0000 H   0  0  0  0  0  0  0  0  0  0  0  0
   14.4344    9.7869    0.0000 H   0  0  0  0  0  0  0  0  0  0  0  0
   13.5874    9.5600    0.0000 H   0  0  0  0  0  0  0  0  0  0  0  0
   13.8144    8.7131    0.0000 H   0  0  0  0  0  0  0  0  0  0  0  0
    4.0420   -8.2131    0.0000 H   0  0  0  0  0  0  0  0  0  0  0  0
    3.1951   -8.4400    0.0000 H   0  0  0  0  0  0  0  0  0  0  0  0
    3.4220   -9.2869    0.0000 H   0  0  0  0  0  0  0  0  0  0  0  0
   17.3764   13.8326    0.0000 H   0  0  0  0  0  0  0  0  0  0  0  0
   16.9779   13.1423    0.0000 H   0  0  0  0  0  0  0  0  0  0  0  0
   16.1664   12.7869    0.0000 H   0  0  0  0  0  0  0  0  0  0  0  0
   15.3195   12.5600    0.0000 H   0  0  0  0  0  0  0  0  0  0  0  0
   15.5464   11.7131    0.0000 H   0  0  0  0  0  0  0  0  0  0  0  0
   18.9914   13.4400    0.0000 H   0  0  0  0  0  0  0  0  0  0  0  0
    5.7741  -12.2869    0.0000 H   0  0  0  0  0  0  0  0  0  0  0  0
    6.0010  -11.4400    0.0000 H   0  0  0  0  0  0  0  0  0  0  0  0
    5.1541  -11.2131    0.0000 H   0  0  0  0  0  0  0  0  0  0  0  0
   19.6305   14.7131    0.0000 H   0  0  0  0  0  0  0  0  0  0  0  0
   19.8574   15.5600    0.0000 H   0  0  0  0  0  0  0  0  0  0  0  0
   19.0105   15.7869    0.0000 H   0  0  0  0  0  0  0  0  0  0  0  0
   17.8985   15.7869    0.0000 H   0  0  0  0  0  0  0  0  0  0  0  0
   17.0515   15.5600    0.0000 H   0  0  0  0  0  0  0  0  0  0  0  0
   17.2785   14.7131    0.0000 H   0  0  0  0  0  0  0  0  0  0  0  0
    1.3800  -14.7500    0.0000 H   0  0  0  0  0  0  0  0  0  0  0  0
    2.0000  -15.3700    0.0000 H   0  0  0  0  0  0  0  0  0  0  0  0
    2.6200  -14.7500    0.0000 H   0  0  0  0  0  0  0  0  0  0  0  0
    4.2881  -15.7869    0.0000 H   0  0  0  0  0  0  0  0  0  0  0  0
    5.1350  -15.5600    0.0000 H   0  0  0  0  0  0  0  0  0  0  0  0
    4.9081  -14.7131    0.0000 H   0  0  0  0  0  0  0  0  0  0  0  0
  1 50  1  0  0  0  0
  1 57  1  0  0  0  0
  2 51  1  0  0  0  0
  2 58  1  0  0  0  0
  3 47  2  0  0  0  0
  4 49  2  0  0  0  0
  5  8  1  0  0  0  0
  5 14  1  0  0  0  0
  5 59  1  0  0  0  0
  5 60  1  0  0  0  0
  6  9  1  0  0  0  0
  6 16  1  0  0  0  0
  6 61  1  0  0  0  0
  6 62  1  0  0  0  0
  7 10  1  0  0  0  0
  7 15  1  0  0  0  0
  7 63  1  0  0  0  0
  7 64  1  0  0  0  0
  8 20  1  0  0  0  0
  8 65  1  0  0  0  0
  8 66  1  0  0  0  0
  9 21  1  0  0  0  0
  9 67  1  0  0  0  0
  9 68  1  0  0  0  0
 10 23  1  0  0  0  0
 10 69  1  0  0  0  0
 10 70  1  0  0  0  0
 11 13  1  0  0  0  0
 11 19  1  0  0  0  0
 11 71  1  0  0  0  0
 11 72  1  0  0  0  0
 12 17  1  0  0  0  0
 12 18  1  0  0  0  0
 12 73  1  0  0  0  0
 12 74  1  0  0  0  0
 13 24  1  0  0  0  0
 13 75  1  0  0  0  0
 13 76  1  0  0  0  0
 14 21  2  0  0  0  0
 14 32  1  0  0  0  0
 15 20  2  0  0  0  0
 15 33  1  0  0  0  0
 16 24  2  0  0  0  0
 16 34  1  0  0  0  0
 17 28  1  0  0  0  0
 17 77  1  0  0  0  0
 17 78  1  0  0  0  0
 18 23  2  0  0  0  0
 18 36  1  0  0  0  0
 19 29  2  0  0  0  0
 19 40  1  0  0  0  0
 20 79  1  0  0  0  0
 21 80  1  0  0  0  0
 22 25  1  0  0  0  0
 22 29  1  0  0  0  0
 22 81  1  0  0  0  0
 22 82  1  0  0  0  0
 23 83  1  0  0  0  0
 24 84  1  0  0  0  0
 25 31  1  0  0  0  0
 25 85  1  0  0  0  0
 25 86  1  0  0  0  0
 26 27  1  0  0  0  0
 26 30  1  0  0  0  0
 26 87  1  0  0  0  0
 26 88  1  0  0  0  0
 27 28  2  0  0  0  0
 27 43  1  0  0  0  0
 28 89  1  0  0  0  0
 29 90  1  0  0  0  0
 30 37  1  0  0  0  0
 30 91  1  0  0  0  0
 30 92  1  0  0  0  0
 31 38  2  0  0  0  0
 31 44  1  0  0  0  0
 32 93  1  0  0  0  0
 32 94  1  0  0  0  0
 32 95  1  0  0  0  0
 33 96  1  0  0  0  0
 33 97  1  0  0  0  0
 33 98  1  0  0  0  0
 34 99  1  0  0  0  0
 34100  1  0  0  0  0
 34101  1  0  0  0  0
 35 38  1  0  0  0  0
 35 42  1  0  0  0  0
 35102  1  0  0  0  0
 35103  1  0  0  0  0
 36104  1  0  0  0  0
 36105  1  0  0  0  0
 36106  1  0  0  0  0
 37 39  2  0  0  0  0
 37107  1  0  0  0  0
 38108  1  0  0  0  0
 39 41  1  0  0  0  0
 39 48  1  0  0  0  0
 40109  1  0  0  0  0
 40110  1  0  0  0  0
 40111  1  0  0  0  0
 41 45  1  0  0  0  0
 41112  1  0  0  0  0
 41113  1  0  0  0  0
 42 46  2  0  0  0  0
 42 47  1  0  0  0  0
 43114  1  0  0  0  0
 43115  1  0  0  0  0
 43116  1  0  0  0  0
 44117  1  0  0  0  0
 44118  1  0  0  0  0
 44119  1  0  0  0  0
 45 52  1  0  0  0  0
 45120  1  0  0  0  0
 45121  1  0  0  0  0
 46 49  1  0  0  0  0
 46 53  1  0  0  0  0
 47 50  1  0  0  0  0
 48122  1  0  0  0  0
 48123  1  0  0  0  0
 48124  1  0  0  0  0
 49 51  1  0  0  0  0
 50 51  2  0  0  0  0
 52 54  2  0  0  0  0
 52125  1  0  0  0  0
 53126  1  0  0  0  0
 53127  1  0  0  0  0
 53128  1  0  0  0  0
 54 55  1  0  0  0  0
 54 56  1  0  0  0  0
 55129  1  0  0  0  0
 55130  1  0  0  0  0
 55131  1  0  0  0  0
 56132  1  0  0  0  0
 56133  1  0  0  0  0
 56134  1  0  0  0  0
 57135  1  0  0  0  0
 57136  1  0  0  0  0
 57137  1  0  0  0  0
 58138  1  0  0  0  0
 58139  1  0  0  0  0
 58140  1  0  0  0  0
M  END
> <PUBCHEM_COMPOUND_CID>
5280473

> <PUBCHEM_COMPOUND_CANONICALIZED>
1

> <PUBCHEM_CACTVS_COMPLEXITY>
1680

> <PUBCHEM_CACTVS_HBOND_ACCEPTOR>
4

> <PUBCHEM_CACTVS_HBOND_DONOR>
0

> <PUBCHEM_CACTVS_ROTATABLE_BOND>
28

> <PUBCHEM_CACTVS_SUBSKEYS>
AAADcfB8OAAAAAAAAAAAAAAAAAAAAAAAAAAgAAAAAAAAAAAAAAAAGgAAAAAADASAgAICAAAABACIAqBSAAIACAAgIAAACAFAAEgAABIAAQQAAAAEwAAIAQKAAAAAAAAAAAAAAAAAAAAAAAAAAAAAAAAAAA==

> <PUBCHEM_IUPAC_OPENEYE_NAME>
2,3-dimethoxy-5-methyl-6-[(2E,6E,10E,14E,18E,22E,26E,30E)-3,7,11,15,19,23,27,31,35-nonamethylhexatriaconta-2,6,10,14,18,22,26,30,34-nonaenyl]-1,4-benzoquinone

> <PUBCHEM_IUPAC_CAS_NAME>
2,3-dimethoxy-5-methyl-6-[(2E,6E,10E,14E,18E,22E,26E,30E)-3,7,11,15,19,23,27,31,35-nonamethylhexatriaconta-2,6,10,14,18,22,26,30,34-nonaenyl]cyclohexa-2,5-diene-1,4-dione

> <PUBCHEM_IUPAC_NAME>
2,3-dimethoxy-5-methyl-6-[(2E,6E,10E,14E,18E,22E,26E,30E)-3,7,11,15,19,23,27,31,35-nonamethylhexatriaconta-2,6,10,14,18,22,26,30,34-nonaenyl]cyclohexa-2,5-diene-1,4-dione

> <PUBCHEM_IUPAC_SYSTEMATIC_NAME>
2,3-dimethoxy-5-methyl-6-[(2E,6E,10E,14E,18E,22E,26E,30E)-3,7,11,15,19,23,27,31,35-nonamethylhexatriaconta-2,6,10,14,18,22,26,30,34-nonaenyl]cyclohexa-2,5-diene-1,4-dione

> <PUBCHEM_IUPAC_TRADITIONAL_NAME>
2,3-dimethoxy-5-methyl-6-[(2E,6E,10E,14E,18E,22E,26E,30E)-3,7,11,15,19,23,27,31,35-nonamethylhexatriaconta-2,6,10,14,18,22,26,30,34-nonaenyl]-p-benzoquinone

> <PUBCHEM_IUPAC_INCHI>
InChI=1S/C54H82O4/c1-40(2)22-14-23-41(3)24-15-25-42(4)26-16-27-43(5)28-17-29-44(6)30-18-31-45(7)32-19-33-46(8)34-20-35-47(9)36-21-37-48(10)38-39-50-49(11)51(55)53(57-12)54(58-13)52(50)56/h22,24,26,28,30,32,34,36,38H,14-21,23,25,27,29,31,33,35,37,39H2,1-13H3/b41-24+,42-26+,43-28+,44-30+,45-32+,46-34+,47-36+,48-38+

> <PUBCHEM_IUPAC_INCHIKEY>
UUGXJSBPSRROMU-WJNLUYJISA-N

> <PUBCHEM_XLOGP3_AA>
17.6

> <PUBCHEM_EXACT_MASS>
794.621311

> <PUBCHEM_MOLECULAR_FORMULA>
C54H82O4

> <PUBCHEM_MOLECULAR_WEIGHT>
795.22648

> <PUBCHEM_OPENEYE_CAN_SMILES>
CC1=C(C(=O)C(=C(C1=O)OC)OC)CC=C(C)CCC=C(C)CCC=C(C)CCC=C(C)CCC=C(C)CCC=C(C)CCC=C(C)CCC=C(C)CCC=C(C)C

> <PUBCHEM_OPENEYE_ISO_SMILES>
CC1=C(C(=O)C(=C(C1=O)OC)OC)C/C=C(\C)/CC/C=C(\C)/CC/C=C(\C)/CC/C=C(\C)/CC/C=C(\C)/CC/C=C(\C)/CC/C=C(\C)/CC/C=C(\C)/CCC=C(C)C

> <PUBCHEM_CACTVS_TPSA>
52.6

> <PUBCHEM_MONOISOTOPIC_WEIGHT>
794.621311

> <PUBCHEM_TOTAL_CHARGE>
0

> <PUBCHEM_HEAVY_ATOM_COUNT>
58

> <PUBCHEM_ATOM_DEF_STEREO_COUNT>
0

> <PUBCHEM_ATOM_UDEF_STEREO_COUNT>
0

> <PUBCHEM_BOND_DEF_STEREO_COUNT>
8

> <PUBCHEM_BOND_UDEF_STEREO_COUNT>
0

> <PUBCHEM_ISOTOPIC_ATOM_COUNT>
0

> <PUBCHEM_COMPONENT_COUNT>
1

> <PUBCHEM_CACTVS_TAUTO_COUNT>
57

> <PUBCHEM_COORDINATE_TYPE>
1
5
255

$$$$

