   Color/Form

     * Colorless liquid
     * Pale yellow to yellow-brown clear liquid

   from [1]HSDB

   Odor
        Faint characteristic odor
   from [2]HSDB

   Boiling Point
        >290 deg C
   from [3]HSDB

   Density/Specific Gravity
        1.06 at 20 deg C
   from [4]HSDB

   Octanol/Water Partition Coefficient
        log Kow = 7.54 (est)
   from [5]HSDB

   pH
        pH = 5.16 at 20 deg C
   from [6]HSDB

   Solubilities

     * Soluble in xylene and acetone
     * In methanol, >5.0 g/mL; hexane, >4.96 g/mL at 25 deg C
     * In water, <9.7 ug/L at 25 deg C

   from [7]HSDB

   Spectral Properties
        Index of refraction: 1.5483 at 25 deg C/D
   from [8]HSDB

   Vapor Pressure
        1.43X10-7 mm Hg at 21 deg C
   from [9]HSDB

   Other Chemical/Physical Properties

     * Henry's Law constant = 6.8X10-6 atm-cu m/mol at 25 deg C (est)
     * Hydroxyl radical reaction rate constant = 1.06X10-10 cu
       cm/molec-sec at 25 deg C (est)

   from [10]HSDB

   Computed Properties
   Molecular Weight                  350.45074 [g/mol]
   Molecular Formula                 C[23]H[26]O[3]
   XLogP3                            6.2
   H-Bond Donor                      0
   H-Bond Acceptor                   3
   Rotatable Bond Count              7
   Exact Mass                        350.188195
   MonoIsotopic Mass                 350.188195
   Topological Polar Surface Area    35.5
   Heavy Atom Count                  26
   Formal Charge                     0
   Complexity                        512
   Isotope Atom Count                0
   Defined Atom Stereocenter Count   0
   Undefined Atom Stereocenter Count 2
   Defined Bond Stereocenter Count   0
   Undefined Bond Stereocenter Count 0
   Covalently-Bonded Unit Count      1
   Feature 3D Acceptor Count         2
   Feature 3D Hydrophobe Count       2
   Feature 3D Ring Count             2
   Effective Rotor Count             7.6
   Conformer Sampling RMSD           1.4
   CID Conformer Count               [11]122

References

   1. http://toxnet.nlm.nih.gov/cgi-bin/sis/search/r?dbs+hsdb:@term+@rn+@rel+26002-80-2
   2. http://toxnet.nlm.nih.gov/cgi-bin/sis/search/r?dbs+hsdb:@term+@rn+@rel+26002-80-2
   3. http://toxnet.nlm.nih.gov/cgi-bin/sis/search/r?dbs+hsdb:@term+@rn+@rel+26002-80-2
   4. http://toxnet.nlm.nih.gov/cgi-bin/sis/search/r?dbs+hsdb:@term+@rn+@rel+26002-80-2
   5. http://toxnet.nlm.nih.gov/cgi-bin/sis/search/r?dbs+hsdb:@term+@rn+@rel+26002-80-2
   6. http://toxnet.nlm.nih.gov/cgi-bin/sis/search/r?dbs+hsdb:@term+@rn+@rel+26002-80-2
   7. http://toxnet.nlm.nih.gov/cgi-bin/sis/search/r?dbs+hsdb:@term+@rn+@rel+26002-80-2
   8. http://toxnet.nlm.nih.gov/cgi-bin/sis/search/r?dbs+hsdb:@term+@rn+@rel+26002-80-2
   9. http://toxnet.nlm.nih.gov/cgi-bin/sis/search/r?dbs+hsdb:@term+@rn+@rel+26002-80-2
  10. http://toxnet.nlm.nih.gov/cgi-bin/sis/search/r?dbs+hsdb:@term+@rn+@rel+26002-80-2
  11. http://pubchem.ncbi.nlm.nih.gov/vw3d/vw3d.cgi?cid=4767
