9803
  -OEChem-06261204042D

 72 72  0     0  0  0  0  0  0999 V2000
    5.3001    4.6200    0.0000 S   0  0  0  0  0  0  0  0  0  0  0  0
    4.8671   10.7400    0.0000 O   0  0  0  0  0  0  0  0  0  0  0  0
    5.7331   12.2400    0.0000 O   0  0  0  0  0  0  0  0  0  0  0  0
    7.4651   12.2400    0.0000 O   0  0  0  0  0  0  0  0  0  0  0  0
    9.1972   11.2400    0.0000 O   0  0  0  0  0  0  0  0  0  0  0  0
    9.1972    9.2400    0.0000 O   0  0  0  0  0  0  0  0  0  0  0  0
    5.3001    5.6200    0.0000 O   0  5  0  0  0  0  0  0  0  0  0  0
    6.3001    4.6200    0.0000 O   0  0  0  0  0  0  0  0  0  0  0  0
    4.3001    4.6200    0.0000 O   0  0  0  0  0  0  0  0  0  0  0  0
    2.2690   11.2400    0.0000 N   0  3  0  0  0  0  0  0  0  0  0  0
    3.1350   10.7400    0.0000 C   0  0  0  0  0  0  0  0  0  0  0  0
    1.4030   11.7400    0.0000 C   0  0  0  0  0  0  0  0  0  0  0  0
    1.7690   10.3740    0.0000 C   0  0  0  0  0  0  0  0  0  0  0  0
    2.7690   12.1060    0.0000 C   0  0  0  0  0  0  0  0  0  0  0  0
    4.0010   11.2400    0.0000 C   0  0  0  0  0  0  0  0  0  0  0  0
    2.2690   12.9721    0.0000 C   0  0  0  0  0  0  0  0  0  0  0  0
    2.2690    9.5079    0.0000 C   0  0  0  0  0  0  0  0  0  0  0  0
    0.5369   11.2400    0.0000 C   0  0  0  0  0  0  0  0  0  0  0  0
    5.7331   11.2400    0.0000 C   0  0  0  0  0  0  0  0  0  0  0  0
    6.5991   10.7400    0.0000 C   0  0  0  0  0  0  0  0  0  0  0  0
    7.4651   11.2400    0.0000 C   0  0  0  0  0  0  0  0  0  0  0  0
    6.5991    9.7400    0.0000 C   0  0  0  0  0  0  0  0  0  0  0  0
    8.3312   10.7400    0.0000 C   0  0  0  0  0  0  0  0  0  0  0  0
    7.4651    9.2400    0.0000 C   0  0  0  0  0  0  0  0  0  0  0  0
    8.3312    9.7400    0.0000 C   0  0  0  0  0  0  0  0  0  0  0  0
    8.3312   12.7400    0.0000 C   0  0  0  0  0  0  0  0  0  0  0  0
   10.0632   10.7400    0.0000 C   0  0  0  0  0  0  0  0  0  0  0  0
    9.1972    8.2400    0.0000 C   0  0  0  0  0  0  0  0  0  0  0  0
    5.3001    3.6200    0.0000 C   0  0  0  0  0  0  0  0  0  0  0  0
    5.3001    1.6200    0.0000 C   0  0  0  0  0  0  0  0  0  0  0  0
    4.4340    3.1200    0.0000 C   0  0  0  0  0  0  0  0  0  0  0  0
    6.1661    3.1200    0.0000 C   0  0  0  0  0  0  0  0  0  0  0  0
    4.4340    2.1200    0.0000 C   0  0  0  0  0  0  0  0  0  0  0  0
    6.1661    2.1200    0.0000 C   0  0  0  0  0  0  0  0  0  0  0  0
    5.3001    0.6200    0.0000 C   0  0  0  0  0  0  0  0  0  0  0  0
    2.7365   10.2651    0.0000 H   0  0  0  0  0  0  0  0  0  0  0  0
    3.5335   10.2651    0.0000 H   0  0  0  0  0  0  0  0  0  0  0  0
    1.8015   12.2149    0.0000 H   0  0  0  0  0  0  0  0  0  0  0  0
    1.0044   12.2149    0.0000 H   0  0  0  0  0  0  0  0  0  0  0  0
    1.2940   10.7725    0.0000 H   0  0  0  0  0  0  0  0  0  0  0  0
    1.2940    9.9754    0.0000 H   0  0  0  0  0  0  0  0  0  0  0  0
    3.2439   11.7075    0.0000 H   0  0  0  0  0  0  0  0  0  0  0  0
    3.2439   12.5046    0.0000 H   0  0  0  0  0  0  0  0  0  0  0  0
    4.3996   11.7149    0.0000 H   0  0  0  0  0  0  0  0  0  0  0  0
    3.6025   11.7149    0.0000 H   0  0  0  0  0  0  0  0  0  0  0  0
    2.8059   13.2821    0.0000 H   0  0  0  0  0  0  0  0  0  0  0  0
    1.9590   13.5090    0.0000 H   0  0  0  0  0  0  0  0  0  0  0  0
    1.7320   12.6621    0.0000 H   0  0  0  0  0  0  0  0  0  0  0  0
    1.7320    9.1980    0.0000 H   0  0  0  0  0  0  0  0  0  0  0  0
    2.5790    8.9710    0.0000 H   0  0  0  0  0  0  0  0  0  0  0  0
    2.8059    9.8180    0.0000 H   0  0  0  0  0  0  0  0  0  0  0  0
    0.2269   11.7769    0.0000 H   0  0  0  0  0  0  0  0  0  0  0  0
    0.0000   10.9300    0.0000 H   0  0  0  0  0  0  0  0  0  0  0  0
    0.8469   10.7031    0.0000 H   0  0  0  0  0  0  0  0  0  0  0  0
    6.0622    9.4300    0.0000 H   0  0  0  0  0  0  0  0  0  0  0  0
    7.4651    8.6200    0.0000 H   0  0  0  0  0  0  0  0  0  0  0  0
    8.6412   12.2031    0.0000 H   0  0  0  0  0  0  0  0  0  0  0  0
    8.8681   13.0500    0.0000 H   0  0  0  0  0  0  0  0  0  0  0  0
    8.0212   13.2769    0.0000 H   0  0  0  0  0  0  0  0  0  0  0  0
    9.7532   10.2031    0.0000 H   0  0  0  0  0  0  0  0  0  0  0  0
   10.6002   10.4300    0.0000 H   0  0  0  0  0  0  0  0  0  0  0  0
   10.3732   11.2769    0.0000 H   0  0  0  0  0  0  0  0  0  0  0  0
    8.5772    8.2400    0.0000 H   0  0  0  0  0  0  0  0  0  0  0  0
    9.1972    7.6200    0.0000 H   0  0  0  0  0  0  0  0  0  0  0  0
    9.8172    8.2400    0.0000 H   0  0  0  0  0  0  0  0  0  0  0  0
    3.8971    3.4300    0.0000 H   0  0  0  0  0  0  0  0  0  0  0  0
    6.7030    3.4300    0.0000 H   0  0  0  0  0  0  0  0  0  0  0  0
    3.8971    1.8100    0.0000 H   0  0  0  0  0  0  0  0  0  0  0  0
    6.7030    1.8100    0.0000 H   0  0  0  0  0  0  0  0  0  0  0  0
    4.6801    0.6200    0.0000 H   0  0  0  0  0  0  0  0  0  0  0  0
    5.3001    0.0000    0.0000 H   0  0  0  0  0  0  0  0  0  0  0  0
    5.9201    0.6200    0.0000 H   0  0  0  0  0  0  0  0  0  0  0  0
  1  7  1  0  0  0  0
  1  8  2  0  0  0  0
  1  9  2  0  0  0  0
  1 29  1  0  0  0  0
  2 15  1  0  0  0  0
  2 19  1  0  0  0  0
  3 19  2  0  0  0  0
  4 21  1  0  0  0  0
  4 26  1  0  0  0  0
  5 23  1  0  0  0  0
  5 27  1  0  0  0  0
  6 25  1  0  0  0  0
  6 28  1  0  0  0  0
 10 11  1  0  0  0  0
 10 12  1  0  0  0  0
 10 13  1  0  0  0  0
 10 14  1  0  0  0  0
 11 15  1  0  0  0  0
 11 36  1  0  0  0  0
 11 37  1  0  0  0  0
 12 18  1  0  0  0  0
 12 38  1  0  0  0  0
 12 39  1  0  0  0  0
 13 17  1  0  0  0  0
 13 40  1  0  0  0  0
 13 41  1  0  0  0  0
 14 16  1  0  0  0  0
 14 42  1  0  0  0  0
 14 43  1  0  0  0  0
 15 44  1  0  0  0  0
 15 45  1  0  0  0  0
 16 46  1  0  0  0  0
 16 47  1  0  0  0  0
 16 48  1  0  0  0  0
 17 49  1  0  0  0  0
 17 50  1  0  0  0  0
 17 51  1  0  0  0  0
 18 52  1  0  0  0  0
 18 53  1  0  0  0  0
 18 54  1  0  0  0  0
 19 20  1  0  0  0  0
 20 21  2  0  0  0  0
 20 22  1  0  0  0  0
 21 23  1  0  0  0  0
 22 24  2  0  0  0  0
 22 55  1  0  0  0  0
 23 25  2  0  0  0  0
 24 25  1  0  0  0  0
 24 56  1  0  0  0  0
 26 57  1  0  0  0  0
 26 58  1  0  0  0  0
 26 59  1  0  0  0  0
 27 60  1  0  0  0  0
 27 61  1  0  0  0  0
 27 62  1  0  0  0  0
 28 63  1  0  0  0  0
 28 64  1  0  0  0  0
 28 65  1  0  0  0  0
 29 31  2  0  0  0  0
 29 32  1  0  0  0  0
 30 33  2  0  0  0  0
 30 34  1  0  0  0  0
 30 35  1  0  0  0  0
 31 33  1  0  0  0  0
 31 66  1  0  0  0  0
 32 34  2  0  0  0  0
 32 67  1  0  0  0  0
 33 68  1  0  0  0  0
 34 69  1  0  0  0  0
 35 70  1  0  0  0  0
 35 71  1  0  0  0  0
 35 72  1  0  0  0  0
M  CHG  2   7  -1  10   1
M  END
> <PUBCHEM_COMPOUND_CID>
9803

> <PUBCHEM_COMPOUND_CANONICALIZED>
1

> <PUBCHEM_CACTVS_COMPLEXITY>
557

> <PUBCHEM_CACTVS_HBOND_ACCEPTOR>
8

> <PUBCHEM_CACTVS_HBOND_DONOR>
0

> <PUBCHEM_CACTVS_ROTATABLE_BOND>
11

> <PUBCHEM_CACTVS_SUBSKEYS>
AAADcfB6PABAAAAAAAAAAAAAAAAAAAAAAAAwYAAAAAAAAAABQAAAHgQAAAAADATh2AYyD4MABAKIAiDSCHBCCEAkIAAIiBkOiMgPJzaENRqDMWIl4BWaqYfK7DzOMAABCAAIQABgAAIQABCAAAAAAAAAAA==

> <PUBCHEM_IUPAC_OPENEYE_NAME>
4-methylbenzenesulfonate; triethyl-[2-(2,3,4-trimethoxybenzoyl)oxyethyl]ammonium

> <PUBCHEM_IUPAC_CAS_NAME>
4-methylbenzenesulfonate; triethyl-[2-[oxo-(2,3,4-trimethoxyphenyl)methoxy]ethyl]ammonium

> <PUBCHEM_IUPAC_NAME>
4-methylbenzenesulfonate; triethyl-[2-(2,3,4-trimethoxybenzoyl)oxyethyl]azanium

> <PUBCHEM_IUPAC_SYSTEMATIC_NAME>
4-methylbenzenesulfonate; triethyl-[2-(2,3,4-trimethoxyphenyl)carbonyloxyethyl]azanium

> <PUBCHEM_IUPAC_TRADITIONAL_NAME>
triethyl-[2-(2,3,4-trimethoxybenzoyl)oxyethyl]ammonium tosylate

> <PUBCHEM_IUPAC_INCHI>
InChI=1S/C18H30NO5.C7H8O3S/c1-7-19(8-2,9-3)12-13-24-18(20)14-10-11-15(21-4)17(23-6)16(14)22-5;1-6-2-4-7(5-3-6)11(8,9)10/h10-11H,7-9,12-13H2,1-6H3;2-5H,1H3,(H,8,9,10)/q+1;/p-1

> <PUBCHEM_IUPAC_INCHIKEY>
AJIXENUYZFYPEY-UHFFFAOYSA-M

> <PUBCHEM_EXACT_MASS>
511.223988

> <PUBCHEM_MOLECULAR_FORMULA>
C25H37NO8S

> <PUBCHEM_MOLECULAR_WEIGHT>
511.62818

> <PUBCHEM_OPENEYE_CAN_SMILES>
CC[N+](CC)(CC)CCOC(=O)C1=C(C(=C(C=C1)OC)OC)OC.CC1=CC=C(C=C1)S(=O)(=O)[O-]

> <PUBCHEM_OPENEYE_ISO_SMILES>
CC[N+](CC)(CC)CCOC(=O)C1=C(C(=C(C=C1)OC)OC)OC.CC1=CC=C(C=C1)S(=O)(=O)[O-]

> <PUBCHEM_CACTVS_TPSA>
120

> <PUBCHEM_MONOISOTOPIC_WEIGHT>
511.223988

> <PUBCHEM_TOTAL_CHARGE>
0

> <PUBCHEM_HEAVY_ATOM_COUNT>
35

> <PUBCHEM_ATOM_DEF_STEREO_COUNT>
0

> <PUBCHEM_ATOM_UDEF_STEREO_COUNT>
0

> <PUBCHEM_BOND_DEF_STEREO_COUNT>
0

> <PUBCHEM_BOND_UDEF_STEREO_COUNT>
0

> <PUBCHEM_ISOTOPIC_ATOM_COUNT>
0

> <PUBCHEM_COMPONENT_COUNT>
2

> <PUBCHEM_CACTVS_TAUTO_COUNT>
1

> <PUBCHEM_COORDINATE_TYPE>
1
5
255

> <PUBCHEM_BONDANNOTATIONS>
20  21  8
20  22  8
21  23  8
22  24  8
23  25  8
24  25  8
29  31  8
29  32  8
30  33  8
30  34  8
31  33  8
32  34  8

$$$$

