5281667
  -OEChem-07051212582D

 87 92  0     1  0  0  0  0  0999 V2000
    6.8671    0.9266    0.0000 O   0  0  0  0  0  0  0  0  0  0  0  0
   10.5287   -1.4283    0.0000 O   0  0  0  0  0  0  0  0  0  0  0  0
   10.3972    0.9025    0.0000 O   0  0  0  0  0  0  0  0  0  0  0  0
    7.8495   -3.6242    0.0000 O   0  0  0  0  0  0  0  0  0  0  0  0
    8.6155    3.9612    0.0000 O   0  0  0  0  0  0  0  0  0  0  0  0
   11.1626   -2.2017    0.0000 O   0  0  0  0  0  0  0  0  0  0  0  0
   11.0907   -4.8465    0.0000 O   0  0  0  0  0  0  0  0  0  0  0  0
    6.8671    3.9266    0.0000 O   0  0  0  0  0  0  0  0  0  0  0  0
   13.8418   -0.0059    0.0000 O   0  0  0  0  0  0  0  0  0  0  0  0
    4.2690    2.4266    0.0000 O   0  0  0  0  0  0  0  0  0  0  0  0
    2.5369   -0.5734    0.0000 O   0  0  0  0  0  0  0  0  0  0  0  0
    8.9080   -0.8171    0.0000 C   0  0  1  0  0  0  0  0  0  0  0  0
    8.5552   -1.7528    0.0000 C   0  0  1  0  0  0  0  0  0  0  0  0
    8.2743   -0.0437    0.0000 C   0  0  2  0  0  0  0  0  0  0  0  0
    7.5685   -1.9151    0.0000 C   0  0  0  0  0  0  0  0  0  0  0  0
    6.9346   -1.1417    0.0000 C   0  0  0  0  0  0  0  0  0  0  0  0
    7.2874   -0.2060    0.0000 C   0  0  0  0  0  0  0  0  0  0  0  0
    8.6270    0.8920    0.0000 C   0  0  0  0  0  0  0  0  0  0  0  0
    9.1891   -2.5262    0.0000 C   0  0  0  0  0  0  0  0  0  0  0  0
    9.8948   -0.6549    0.0000 C   0  0  0  0  0  0  0  0  0  0  0  0
    7.7331    1.4266    0.0000 C   0  0  0  0  0  0  0  0  0  0  0  0
    5.9478   -1.3039    0.0000 C   0  0  0  0  0  0  0  0  0  0  0  0
    9.5331    1.4058    0.0000 C   0  0  0  0  0  0  0  0  0  0  0  0
    8.8362   -3.4619    0.0000 C   0  0  0  0  0  0  0  0  0  0  0  0
   10.8816   -0.4926    0.0000 C   0  0  0  0  0  0  0  0  0  0  0  0
   10.1758   -2.3640    0.0000 C   0  0  0  0  0  0  0  0  0  0  0  0
    7.7331    2.4266    0.0000 C   0  0  0  0  0  0  0  0  0  0  0  0
    9.5331    2.4474    0.0000 C   0  0  0  0  0  0  0  0  0  0  0  0
    8.6270    2.9613    0.0000 C   0  0  0  0  0  0  0  0  0  0  0  0
    9.4701   -4.2353    0.0000 C   0  0  0  0  0  0  0  0  0  0  0  0
   10.8097   -3.1374    0.0000 C   0  0  0  0  0  0  0  0  0  0  0  0
   11.5154   -1.2661    0.0000 C   0  0  0  0  0  0  0  0  0  0  0  0
    6.8671    2.9266    0.0000 C   0  0  0  0  0  0  0  0  0  0  0  0
   11.2344    0.4430    0.0000 C   0  0  0  0  0  0  0  0  0  0  0  0
   10.4569   -4.0731    0.0000 C   0  0  0  0  0  0  0  0  0  0  0  0
    6.0010    1.4266    0.0000 C   0  0  0  0  0  0  0  0  0  0  0  0
    6.0010    2.4266    0.0000 C   0  0  0  0  0  0  0  0  0  0  0  0
   12.5022   -1.1038    0.0000 C   0  0  0  0  0  0  0  0  0  0  0  0
   12.2212    0.6053    0.0000 C   0  0  0  0  0  0  0  0  0  0  0  0
    5.1350    2.9266    0.0000 C   0  0  0  0  0  0  0  0  0  0  0  0
    5.1350    0.9266    0.0000 C   0  0  0  0  0  0  0  0  0  0  0  0
   12.8551   -0.1681    0.0000 C   0  0  0  0  0  0  0  0  0  0  0  0
    5.1350    3.9266    0.0000 C   0  0  0  0  0  0  0  0  0  0  0  0
    4.2690    1.4266    0.0000 C   0  0  0  0  0  0  0  0  0  0  0  0
    5.1350   -0.0734    0.0000 C   0  0  0  0  0  0  0  0  0  0  0  0
    4.2690    4.4266    0.0000 C   0  0  0  0  0  0  0  0  0  0  0  0
    3.4030    0.9266    0.0000 C   0  0  0  0  0  0  0  0  0  0  0  0
    4.2690   -0.5734    0.0000 C   0  0  0  0  0  0  0  0  0  0  0  0
    3.4030   -0.0734    0.0000 C   0  0  0  0  0  0  0  0  0  0  0  0
    4.2690    5.4266    0.0000 C   0  0  0  0  0  0  0  0  0  0  0  0
    3.4030    3.9266    0.0000 C   0  0  0  0  0  0  0  0  0  0  0  0
    9.3011   -1.2967    0.0000 H   0  0  0  0  0  0  0  0  0  0  0  0
    9.3939   -1.6149    0.0000 H   0  0  0  0  0  0  0  0  0  0  0  0
    9.1130    0.0942    0.0000 H   0  0  0  0  0  0  0  0  0  0  0  0
    7.0281   -2.2189    0.0000 H   0  0  0  0  0  0  0  0  0  0  0  0
    7.7739   -2.5001    0.0000 H   0  0  0  0  0  0  0  0  0  0  0  0
    6.8944    0.2735    0.0000 H   0  0  0  0  0  0  0  0  0  0  0  0
    5.8472   -0.6921    0.0000 H   0  0  0  0  0  0  0  0  0  0  0  0
    5.3360   -1.4045    0.0000 H   0  0  0  0  0  0  0  0  0  0  0  0
    6.0484   -1.9157    0.0000 H   0  0  0  0  0  0  0  0  0  0  0  0
   10.3946   -1.7839    0.0000 H   0  0  0  0  0  0  0  0  0  0  0  0
   10.0688    2.7595    0.0000 H   0  0  0  0  0  0  0  0  0  0  0  0
    9.2513   -4.8154    0.0000 H   0  0  0  0  0  0  0  0  0  0  0  0
   11.4215   -3.0368    0.0000 H   0  0  0  0  0  0  0  0  0  0  0  0
   10.8414    0.9226    0.0000 H   0  0  0  0  0  0  0  0  0  0  0  0
   10.3948    0.2825    0.0000 H   0  0  0  0  0  0  0  0  0  0  0  0
    7.6307   -4.2043    0.0000 H   0  0  0  0  0  0  0  0  0  0  0  0
   12.8952   -1.5833    0.0000 H   0  0  0  0  0  0  0  0  0  0  0  0
   12.4399    1.1854    0.0000 H   0  0  0  0  0  0  0  0  0  0  0  0
    4.5244    3.0343    0.0000 H   0  0  0  0  0  0  0  0  0  0  0  0
    4.9230    2.3440    0.0000 H   0  0  0  0  0  0  0  0  0  0  0  0
    9.1488    4.2774    0.0000 H   0  0  0  0  0  0  0  0  0  0  0  0
   11.5556   -2.6813    0.0000 H   0  0  0  0  0  0  0  0  0  0  0  0
   10.8720   -5.4266    0.0000 H   0  0  0  0  0  0  0  0  0  0  0  0
    5.6720    4.2366    0.0000 H   0  0  0  0  0  0  0  0  0  0  0  0
    5.6720   -0.3834    0.0000 H   0  0  0  0  0  0  0  0  0  0  0  0
   14.0606    0.5742    0.0000 H   0  0  0  0  0  0  0  0  0  0  0  0
    2.8660    1.2366    0.0000 H   0  0  0  0  0  0  0  0  0  0  0  0
    4.2690   -1.1934    0.0000 H   0  0  0  0  0  0  0  0  0  0  0  0
    3.7320    2.7366    0.0000 H   0  0  0  0  0  0  0  0  0  0  0  0
    4.8890    5.4266    0.0000 H   0  0  0  0  0  0  0  0  0  0  0  0
    4.2690    6.0466    0.0000 H   0  0  0  0  0  0  0  0  0  0  0  0
    3.6490    5.4266    0.0000 H   0  0  0  0  0  0  0  0  0  0  0  0
    3.0930    4.4636    0.0000 H   0  0  0  0  0  0  0  0  0  0  0  0
    2.8660    3.6166    0.0000 H   0  0  0  0  0  0  0  0  0  0  0  0
    3.7130    3.3897    0.0000 H   0  0  0  0  0  0  0  0  0  0  0  0
    2.0000   -0.2634    0.0000 H   0  0  0  0  0  0  0  0  0  0  0  0
  1 21  1  0  0  0  0
  1 36  1  0  0  0  0
  2 20  2  0  0  0  0
  3 23  1  0  0  0  0
  3 66  1  0  0  0  0
  4 24  1  0  0  0  0
  4 67  1  0  0  0  0
  5 29  1  0  0  0  0
  5 72  1  0  0  0  0
  6 32  1  0  0  0  0
  6 73  1  0  0  0  0
  7 35  1  0  0  0  0
  7 74  1  0  0  0  0
  8 33  2  0  0  0  0
  9 42  1  0  0  0  0
  9 77  1  0  0  0  0
 10 44  1  0  0  0  0
 10 80  1  0  0  0  0
 11 49  1  0  0  0  0
 11 87  1  0  0  0  0
 12 13  1  0  0  0  0
 12 14  1  0  0  0  0
 12 20  1  1  0  0  0
 12 52  1  0  0  0  0
 13 15  1  0  0  0  0
 13 19  1  0  0  0  0
 13 53  1  1  0  0  0
 14 17  1  0  0  0  0
 14 18  1  0  0  0  0
 14 54  1  1  0  0  0
 15 16  1  0  0  0  0
 15 55  1  0  0  0  0
 15 56  1  0  0  0  0
 16 17  2  0  0  0  0
 16 22  1  0  0  0  0
 17 57  1  0  0  0  0
 18 21  1  0  0  0  0
 18 23  2  0  0  0  0
 19 24  2  0  0  0  0
 19 26  1  0  0  0  0
 20 25  1  0  0  0  0
 21 27  2  0  0  0  0
 22 58  1  0  0  0  0
 22 59  1  0  0  0  0
 22 60  1  0  0  0  0
 23 28  1  0  0  0  0
 24 30  1  0  0  0  0
 25 32  2  0  0  0  0
 25 34  1  0  0  0  0
 26 31  2  0  0  0  0
 26 61  1  0  0  0  0
 27 29  1  0  0  0  0
 27 33  1  0  0  0  0
 28 29  2  0  0  0  0
 28 62  1  0  0  0  0
 30 35  2  0  0  0  0
 30 63  1  0  0  0  0
 31 35  1  0  0  0  0
 31 64  1  0  0  0  0
 32 38  1  0  0  0  0
 33 37  1  0  0  0  0
 34 39  2  0  0  0  0
 34 65  1  0  0  0  0
 36 37  2  0  0  0  0
 36 41  1  0  0  0  0
 37 40  1  0  0  0  0
 38 42  2  0  0  0  0
 38 68  1  0  0  0  0
 39 42  1  0  0  0  0
 39 69  1  0  0  0  0
 40 43  1  0  0  0  0
 40 70  1  0  0  0  0
 40 71  1  0  0  0  0
 41 44  2  0  0  0  0
 41 45  1  0  0  0  0
 43 46  2  0  0  0  0
 43 75  1  0  0  0  0
 44 47  1  0  0  0  0
 45 48  2  0  0  0  0
 45 76  1  0  0  0  0
 46 50  1  0  0  0  0
 46 51  1  0  0  0  0
 47 49  2  0  0  0  0
 47 78  1  0  0  0  0
 48 49  1  0  0  0  0
 48 79  1  0  0  0  0
 50 81  1  0  0  0  0
 50 82  1  0  0  0  0
 50 83  1  0  0  0  0
 51 84  1  0  0  0  0
 51 85  1  0  0  0  0
 51 86  1  0  0  0  0
M  END
> <PUBCHEM_COMPOUND_CID>
5281667

> <PUBCHEM_COMPOUND_CANONICALIZED>
1

> <PUBCHEM_CACTVS_COMPLEXITY>
1380

> <PUBCHEM_CACTVS_HBOND_ACCEPTOR>
11

> <PUBCHEM_CACTVS_HBOND_DONOR>
8

> <PUBCHEM_CACTVS_ROTATABLE_BOND>
7

> <PUBCHEM_CACTVS_SUBSKEYS>
AAADcfB8PAAAAAAAAAAAAAAAAAAAAAAAAAAwYMGCAAAAAACBVAAAGgAACAAADQSAmAAyBoAABgCIAqBSAAACCAAkIAAIiAEGCMgMJzaGNRqCeWCl4BUIuYeI7PzOoAACCAAIAABAAAQQABAAAAAAAAAAAA==

> <PUBCHEM_IUPAC_OPENEYE_NAME>
8-[(1S,5R,6S)-6-(2,4-dihydroxybenzoyl)-5-(2,4-dihydroxyphenyl)-3-methyl-cyclohex-2-en-1-yl]-2-(2,4-dihydroxyphenyl)-5,7-dihydroxy-3-(3-methylbut-2-enyl)chromen-4-one

> <PUBCHEM_IUPAC_CAS_NAME>
2-(2,4-dihydroxyphenyl)-8-[(1S,5R,6S)-5-(2,4-dihydroxyphenyl)-6-[(2,4-dihydroxyphenyl)-oxomethyl]-3-methyl-1-cyclohex-2-enyl]-5,7-dihydroxy-3-(3-methylbut-2-enyl)-1-benzopyran-4-one

> <PUBCHEM_IUPAC_NAME>
8-[(1S,5R,6S)-6-(2,4-dihydroxybenzoyl)-5-(2,4-dihydroxyphenyl)-3-methylcyclohex-2-en-1-yl]-2-(2,4-dihydroxyphenyl)-5,7-dihydroxy-3-(3-methylbut-2-enyl)chromen-4-one

> <PUBCHEM_IUPAC_SYSTEMATIC_NAME>
2-[2,4-bis(oxidanyl)phenyl]-8-[(1S,5R,6S)-5-[2,4-bis(oxidanyl)phenyl]-6-[2,4-bis(oxidanyl)phenyl]carbonyl-3-methyl-cyclohex-2-en-1-yl]-3-(3-methylbut-2-enyl)-5,7-bis(oxidanyl)chromen-4-one

> <PUBCHEM_IUPAC_TRADITIONAL_NAME>
8-[(1S,5R,6S)-6-(2,4-dihydroxybenzoyl)-5-(2,4-dihydroxyphenyl)-3-methyl-cyclohex-2-en-1-yl]-2-(2,4-dihydroxyphenyl)-5,7-dihydroxy-3-(3-methylbut-2-enyl)chromone

> <PUBCHEM_IUPAC_INCHI>
InChI=1S/C40H36O11/c1-18(2)4-8-26-38(50)36-33(48)17-32(47)35(40(36)51-39(26)25-11-7-22(43)16-31(25)46)28-13-19(3)12-27(23-9-5-20(41)14-29(23)44)34(28)37(49)24-10-6-21(42)15-30(24)45/h4-7,9-11,13-17,27-28,34,41-48H,8,12H2,1-3H3/t27-,28-,34-/m0/s1

> <PUBCHEM_IUPAC_INCHIKEY>
APPXYONGBIXGRO-AIQWNVMPSA-N

> <PUBCHEM_XLOGP3_AA>
7.3

> <PUBCHEM_EXACT_MASS>
692.225762

> <PUBCHEM_MOLECULAR_FORMULA>
C40H36O11

> <PUBCHEM_MOLECULAR_WEIGHT>
692.70724

> <PUBCHEM_OPENEYE_CAN_SMILES>
CC1=CC(C(C(C1)C2=C(C=C(C=C2)O)O)C(=O)C3=C(C=C(C=C3)O)O)C4=C(C=C(C5=C4OC(=C(C5=O)CC=C(C)C)C6=C(C=C(C=C6)O)O)O)O

> <PUBCHEM_OPENEYE_ISO_SMILES>
CC1=C[C@@H]([C@H]([C@@H](C1)C2=C(C=C(C=C2)O)O)C(=O)C3=C(C=C(C=C3)O)O)C4=C(C=C(C5=C4OC(=C(C5=O)CC=C(C)C)C6=C(C=C(C=C6)O)O)O)O

> <PUBCHEM_CACTVS_TPSA>
205

> <PUBCHEM_MONOISOTOPIC_WEIGHT>
692.225762

> <PUBCHEM_TOTAL_CHARGE>
0

> <PUBCHEM_HEAVY_ATOM_COUNT>
51

> <PUBCHEM_ATOM_DEF_STEREO_COUNT>
3

> <PUBCHEM_ATOM_UDEF_STEREO_COUNT>
0

> <PUBCHEM_BOND_DEF_STEREO_COUNT>
0

> <PUBCHEM_BOND_UDEF_STEREO_COUNT>
0

> <PUBCHEM_ISOTOPIC_ATOM_COUNT>
0

> <PUBCHEM_COMPONENT_COUNT>
1

> <PUBCHEM_CACTVS_TAUTO_COUNT>
986

> <PUBCHEM_COORDINATE_TYPE>
1
5
255

> <PUBCHEM_BONDANNOTATIONS>
1  21  8
1  36  8
12  20  5
13  53  5
14  54  5
18  21  8
18  23  8
19  24  8
19  26  8
21  27  8
23  28  8
24  30  8
25  32  8
25  34  8
26  31  8
27  29  8
27  33  8
28  29  8
30  35  8
31  35  8
32  38  8
33  37  8
34  39  8
36  37  8
38  42  8
39  42  8
41  44  8
41  45  8
44  47  8
45  48  8
47  49  8
48  49  8

$$$$

