114918
  -OEChem-07051212502D

 30 32  0     0  0  0  0  0  0999 V2000
    4.6660   -2.0649    0.0000 O   0  0  0  0  0  0  0  0  0  0  0  0
    8.1962   -2.0891    0.0000 O   0  0  0  0  0  0  0  0  0  0  0  0
    7.2746    1.4796    0.0000 O   0  0  0  0  0  0  0  0  0  0  0  0
    2.0574    1.4796    0.0000 O   0  0  0  0  0  0  0  0  0  0  0  0
    5.5427    1.4596    0.0000 O   0  0  0  0  0  0  0  0  0  0  0  0
    3.7894    1.4596    0.0000 O   0  0  0  0  0  0  0  0  0  0  0  0
    4.6660   -0.0649    0.0000 N   0  0  0  0  0  0  0  0  0  0  0  0
    8.1962   -0.0408    0.0000 N   0  0  0  0  0  0  0  0  0  0  0  0
    5.5321   -0.5649    0.0000 C   0  0  0  0  0  0  0  0  0  0  0  0
    5.5321   -1.5649    0.0000 C   0  0  0  0  0  0  0  0  0  0  0  0
    3.8000   -0.5649    0.0000 C   0  0  0  0  0  0  0  0  0  0  0  0
    3.8000   -1.5649    0.0000 C   0  0  0  0  0  0  0  0  0  0  0  0
    6.4260   -0.0303    0.0000 C   0  0  0  0  0  0  0  0  0  0  0  0
    7.3321   -0.5441    0.0000 C   0  0  0  0  0  0  0  0  0  0  0  0
    2.9061   -0.0303    0.0000 C   0  0  0  0  0  0  0  0  0  0  0  0
    6.4260   -2.0996    0.0000 C   0  0  0  0  0  0  0  0  0  0  0  0
    7.3321   -1.5858    0.0000 C   0  0  0  0  0  0  0  0  0  0  0  0
    2.9061   -2.0996    0.0000 C   0  0  0  0  0  0  0  0  0  0  0  0
    2.0000   -0.5441    0.0000 C   0  0  0  0  0  0  0  0  0  0  0  0
    2.0000   -1.5858    0.0000 C   0  0  0  0  0  0  0  0  0  0  0  0
    6.4144    0.9697    0.0000 C   0  0  0  0  0  0  0  0  0  0  0  0
    2.9176    0.9697    0.0000 C   0  0  0  0  0  0  0  0  0  0  0  0
    6.4188   -2.7196    0.0000 H   0  0  0  0  0  0  0  0  0  0  0  0
    2.9132   -2.7196    0.0000 H   0  0  0  0  0  0  0  0  0  0  0  0
    1.4643   -0.2321    0.0000 H   0  0  0  0  0  0  0  0  0  0  0  0
    1.4643   -1.8978    0.0000 H   0  0  0  0  0  0  0  0  0  0  0  0
    8.7343   -0.3487    0.0000 H   0  0  0  0  0  0  0  0  0  0  0  0
    8.1938    0.5792    0.0000 H   0  0  0  0  0  0  0  0  0  0  0  0
    7.2674    2.0996    0.0000 H   0  0  0  0  0  0  0  0  0  0  0  0
    2.0646    2.0996    0.0000 H   0  0  0  0  0  0  0  0  0  0  0  0
  1 10  1  0  0  0  0
  1 12  1  0  0  0  0
  2 17  2  0  0  0  0
  3 21  1  0  0  0  0
  3 29  1  0  0  0  0
  4 22  1  0  0  0  0
  4 30  1  0  0  0  0
  5 21  2  0  0  0  0
  6 22  2  0  0  0  0
  7  9  2  0  0  0  0
  7 11  1  0  0  0  0
  8 14  1  0  0  0  0
  8 27  1  0  0  0  0
  8 28  1  0  0  0  0
  9 10  1  0  0  0  0
  9 13  1  0  0  0  0
 10 16  2  0  0  0  0
 11 12  1  0  0  0  0
 11 15  2  0  0  0  0
 12 18  2  0  0  0  0
 13 14  2  0  0  0  0
 13 21  1  0  0  0  0
 14 17  1  0  0  0  0
 15 19  1  0  0  0  0
 15 22  1  0  0  0  0
 16 17  1  0  0  0  0
 16 23  1  0  0  0  0
 18 20  1  0  0  0  0
 18 24  1  0  0  0  0
 19 20  2  0  0  0  0
 19 25  1  0  0  0  0
 20 26  1  0  0  0  0
M  END
> <PUBCHEM_COMPOUND_CID>
114918

> <PUBCHEM_COMPOUND_CANONICALIZED>
1

> <PUBCHEM_CACTVS_COMPLEXITY>
675

> <PUBCHEM_CACTVS_HBOND_ACCEPTOR>
8

> <PUBCHEM_CACTVS_HBOND_DONOR>
3

> <PUBCHEM_CACTVS_ROTATABLE_BOND>
2

> <PUBCHEM_CACTVS_SUBSKEYS>
AAADccBzOAAAAAAAAAAAAAAAAAAAAAAAAAAwQIAAAAAAAACBAAAAHgAQCAAADAyBmAAwzoJABgCoA6TyTASCCAAkIAAIiAGnTNgOJjqEtZuDeaDmwBEI+cfayDCOAAABAAACEAAAAAIAAAQgAAAAAAAAAA==

> <PUBCHEM_IUPAC_OPENEYE_NAME>
2-amino-3-oxo-phenoxazine-1,9-dicarboxylic acid

> <PUBCHEM_IUPAC_CAS_NAME>
2-amino-3-oxophenoxazine-1,9-dicarboxylic acid

> <PUBCHEM_IUPAC_NAME>
2-amino-3-oxophenoxazine-1,9-dicarboxylic acid

> <PUBCHEM_IUPAC_SYSTEMATIC_NAME>
2-azanyl-3-oxidanylidene-phenoxazine-1,9-dicarboxylic acid

> <PUBCHEM_IUPAC_TRADITIONAL_NAME>
2-amino-3-keto-phenoxazine-1,9-dicarboxylic acid

> <PUBCHEM_IUPAC_INCHI>
InChI=1S/C14H8N2O6/c15-10-6(17)4-8-12(9(10)14(20)21)16-11-5(13(18)19)2-1-3-7(11)22-8/h1-4H,15H2,(H,18,19)(H,20,21)

> <PUBCHEM_IUPAC_INCHIKEY>
FSBKJYLVDRVPTK-UHFFFAOYSA-N

> <PUBCHEM_XLOGP3_AA>
0.8

> <PUBCHEM_EXACT_MASS>
300.038236

> <PUBCHEM_MOLECULAR_FORMULA>
C14H8N2O6

> <PUBCHEM_MOLECULAR_WEIGHT>
300.22312

> <PUBCHEM_OPENEYE_CAN_SMILES>
C1=CC(=C2C(=C1)OC3=CC(=O)C(=C(C3=N2)C(=O)O)N)C(=O)O

> <PUBCHEM_OPENEYE_ISO_SMILES>
C1=CC(=C2C(=C1)OC3=CC(=O)C(=C(C3=N2)C(=O)O)N)C(=O)O

> <PUBCHEM_CACTVS_TPSA>
139

> <PUBCHEM_MONOISOTOPIC_WEIGHT>
300.038236

> <PUBCHEM_TOTAL_CHARGE>
0

> <PUBCHEM_HEAVY_ATOM_COUNT>
22

> <PUBCHEM_ATOM_DEF_STEREO_COUNT>
0

> <PUBCHEM_ATOM_UDEF_STEREO_COUNT>
0

> <PUBCHEM_BOND_DEF_STEREO_COUNT>
0

> <PUBCHEM_BOND_UDEF_STEREO_COUNT>
0

> <PUBCHEM_ISOTOPIC_ATOM_COUNT>
0

> <PUBCHEM_COMPONENT_COUNT>
1

> <PUBCHEM_CACTVS_TAUTO_COUNT>
6

> <PUBCHEM_COORDINATE_TYPE>
1
5
255

> <PUBCHEM_BONDANNOTATIONS>
1  10  8
1  12  8
10  16  8
11  12  8
11  15  8
12  18  8
13  14  8
14  17  8
15  19  8
16  17  8
18  20  8
19  20  8
7  11  8
7  9  8
9  13  8

$$$$

