46174039
  -OEChem-07051213112D

 60 62  0     1  0  0  0  0  0999 V2000
    6.4021   -1.3250    0.0000 P   0  0  3  0  0  0  0  0  0  0  0  0
    7.9844   -2.0295    0.0000 P   0  0  3  0  0  0  0  0  0  0  0  0
    4.5411    1.1396    0.0000 O   0  0  0  0  0  0  0  0  0  0  0  0
    9.1600   -3.6475    0.0000 O   0  0  0  0  0  0  0  0  0  0  0  0
    2.6443   -0.6205    0.0000 O   0  0  0  0  0  0  0  0  0  0  0  0
    5.8144   -0.5159    0.0000 O   0  0  0  0  0  0  0  0  0  0  0  0
    8.9790   -1.9249    0.0000 O   0  0  0  0  0  0  0  0  0  0  0  0
    6.9899   -2.1340    0.0000 O   0  0  0  0  0  0  0  0  0  0  0  0
    2.0000    2.7274    0.0000 O   0  0  0  0  0  0  0  0  0  0  0  0
    7.2112   -0.7372    0.0000 O   0  0  0  0  0  0  0  0  0  0  0  0
    8.0890   -3.0240    0.0000 O   0  0  0  0  0  0  0  0  0  0  0  0
    5.5931   -1.9128    0.0000 O   0  0  0  0  0  0  0  0  0  0  0  0
    7.8799   -1.0349    0.0000 O   0  0  0  0  0  0  0  0  0  0  0  0
    3.7320    5.7274    0.0000 O   0  0  0  0  0  0  0  0  0  0  0  0
    3.7320    2.7274    0.0000 N   0  0  0  0  0  0  0  0  0  0  0  0
   11.3301   -5.1610    0.0000 N   0  0  0  0  0  0  0  0  0  0  0  0
    2.8660    4.2274    0.0000 N   0  0  0  0  0  0  0  0  0  0  0  0
    3.2320    0.1885    0.0000 C   0  0  2  0  0  0  0  0  0  0  0  0
    4.2320    0.1885    0.0000 C   0  0  1  0  0  0  0  0  0  0  0  0
    2.9230    1.1396    0.0000 C   0  0  0  0  0  0  0  0  0  0  0  0
    3.7320    1.7274    0.0000 C   0  0  1  0  0  0  0  0  0  0  0  0
   10.7423   -4.3520    0.0000 C   0  0  1  0  0  0  0  0  0  0  0  0
   11.1491   -3.4384    0.0000 C   0  0  0  0  0  0  0  0  0  0  0  0
    9.7478   -4.4565    0.0000 C   0  0  1  0  0  0  0  0  0  0  0  0
    4.8198   -0.6205    0.0000 C   0  0  0  0  0  0  0  0  0  0  0  0
   10.5613   -2.6294    0.0000 C   0  0  0  0  0  0  0  0  0  0  0  0
    9.5668   -2.7339    0.0000 C   0  0  2  0  0  0  0  0  0  0  0  0
    9.3411   -5.3700    0.0000 C   0  0  0  0  0  0  0  0  0  0  0  0
    4.5981    3.2274    0.0000 C   0  0  0  0  0  0  0  0  0  0  0  0
    2.8660    3.2274    0.0000 C   0  0  0  0  0  0  0  0  0  0  0  0
    4.5981    4.2274    0.0000 C   0  0  0  0  0  0  0  0  0  0  0  0
    3.7320    4.7274    0.0000 C   0  0  0  0  0  0  0  0  0  0  0  0
    5.4641    4.7274    0.0000 C   0  0  0  0  0  0  0  0  0  0  0  0
    3.5135   -0.3639    0.0000 H   0  0  0  0  0  0  0  0  0  0  0  0
    4.8444    0.2855    0.0000 H   0  0  0  0  0  0  0  0  0  0  0  0
    2.6130    1.6765    0.0000 H   0  0  0  0  0  0  0  0  0  0  0  0
    2.3566    0.8874    0.0000 H   0  0  0  0  0  0  0  0  0  0  0  0
    4.2845    2.0089    0.0000 H   0  0  0  0  0  0  0  0  0  0  0  0
   10.4902   -4.9184    0.0000 H   0  0  0  0  0  0  0  0  0  0  0  0
   11.6631   -3.7851    0.0000 H   0  0  0  0  0  0  0  0  0  0  0  0
   11.5798   -2.9924    0.0000 H   0  0  0  0  0  0  0  0  0  0  0  0
    9.1312   -4.5213    0.0000 H   0  0  0  0  0  0  0  0  0  0  0  0
    4.2626   -0.8923    0.0000 H   0  0  0  0  0  0  0  0  0  0  0  0
    4.9907   -1.2164    0.0000 H   0  0  0  0  0  0  0  0  0  0  0  0
   11.1185   -2.3576    0.0000 H   0  0  0  0  0  0  0  0  0  0  0  0
   10.3904   -2.0334    0.0000 H   0  0  0  0  0  0  0  0  0  0  0  0
    8.9502   -2.7988    0.0000 H   0  0  0  0  0  0  0  0  0  0  0  0
    2.0277   -0.5557    0.0000 H   0  0  0  0  0  0  0  0  0  0  0  0
    8.7747   -5.1179    0.0000 H   0  0  0  0  0  0  0  0  0  0  0  0
    9.0889   -5.9364    0.0000 H   0  0  0  0  0  0  0  0  0  0  0  0
    9.9075   -5.6222    0.0000 H   0  0  0  0  0  0  0  0  0  0  0  0
    5.1350    2.9174    0.0000 H   0  0  0  0  0  0  0  0  0  0  0  0
   11.9467   -5.0962    0.0000 H   0  0  0  0  0  0  0  0  0  0  0  0
   11.0779   -5.7274    0.0000 H   0  0  0  0  0  0  0  0  0  0  0  0
    2.3291    4.5374    0.0000 H   0  0  0  0  0  0  0  0  0  0  0  0
    5.7741    4.1904    0.0000 H   0  0  0  0  0  0  0  0  0  0  0  0
    6.0010    5.0374    0.0000 H   0  0  0  0  0  0  0  0  0  0  0  0
    5.1541    5.2643    0.0000 H   0  0  0  0  0  0  0  0  0  0  0  0
    7.1464   -0.1206    0.0000 H   0  0  0  0  0  0  0  0  0  0  0  0
    7.5874   -3.3884    0.0000 H   0  0  0  0  0  0  0  0  0  0  0  0
  1  6  1  0  0  0  0
  1  8  1  0  0  0  0
  1 10  1  0  0  0  0
  1 12  2  0  0  0  0
  2  7  1  0  0  0  0
  2  8  1  0  0  0  0
  2 11  1  0  0  0  0
  2 13  2  0  0  0  0
  3 19  1  0  0  0  0
  3 21  1  0  0  0  0
  4 24  1  0  0  0  0
  4 27  1  0  0  0  0
 18  5  1  1  0  0  0
  5 48  1  0  0  0  0
  6 25  1  0  0  0  0
 27  7  1  6  0  0  0
  9 30  2  0  0  0  0
 10 59  1  0  0  0  0
 11 60  1  0  0  0  0
 14 32  2  0  0  0  0
 21 15  1  6  0  0  0
 15 29  1  0  0  0  0
 15 30  1  0  0  0  0
 22 16  1  6  0  0  0
 16 53  1  0  0  0  0
 16 54  1  0  0  0  0
 17 30  1  0  0  0  0
 17 32  1  0  0  0  0
 17 55  1  0  0  0  0
 18 19  1  0  0  0  0
 18 20  1  0  0  0  0
 18 34  1  0  0  0  0
 19 25  1  6  0  0  0
 19 35  1  0  0  0  0
 20 21  1  0  0  0  0
 20 36  1  0  0  0  0
 20 37  1  0  0  0  0
 21 38  1  0  0  0  0
 22 23  1  0  0  0  0
 22 24  1  0  0  0  0
 22 39  1  0  0  0  0
 23 26  1  0  0  0  0
 23 40  1  0  0  0  0
 23 41  1  0  0  0  0
 24 28  1  1  0  0  0
 24 42  1  0  0  0  0
 25 43  1  0  0  0  0
 25 44  1  0  0  0  0
 26 27  1  0  0  0  0
 26 45  1  0  0  0  0
 26 46  1  0  0  0  0
 27 47  1  0  0  0  0
 28 49  1  0  0  0  0
 28 50  1  0  0  0  0
 28 51  1  0  0  0  0
 29 31  2  0  0  0  0
 29 52  1  0  0  0  0
 31 32  1  0  0  0  0
 31 33  1  0  0  0  0
 33 56  1  0  0  0  0
 33 57  1  0  0  0  0
 33 58  1  0  0  0  0
M  END
> <PUBCHEM_COMPOUND_CID>
46174039

> <PUBCHEM_COMPOUND_CANONICALIZED>
1

> <PUBCHEM_CACTVS_COMPLEXITY>
900

> <PUBCHEM_CACTVS_HBOND_ACCEPTOR>
13

> <PUBCHEM_CACTVS_HBOND_DONOR>
5

> <PUBCHEM_CACTVS_ROTATABLE_BOND>
8

> <PUBCHEM_CACTVS_SUBSKEYS>
AAADceB7PAMAAAAAAAAAAAAAAAAAASAAAAAkQAAAAAAAAAAAAAAAHgAQCCAADDzxgAcDCAPABxCIQgFWUICAAAAAAAAAAIEIAECTEAIAgQAPQAAPFyIHAMGwcAYAAAAAAAAAAAAAAAAAAAAAAAAAAAAAAA==

> <PUBCHEM_IUPAC_OPENEYE_NAME>
[(2R,5S,6R)-5-amino-6-methyl-tetrahydropyran-2-yl] [hydroxy-[[(2R,3S,5R)-3-hydroxy-5-(5-methyl-2,4-dioxo-pyrimidin-1-yl)tetrahydrofuran-2-yl]methoxy]phosphoryl] hydrogen phosphate

> <PUBCHEM_IUPAC_CAS_NAME>
[(2R,5S,6R)-5-amino-6-methyl-2-oxanyl] [hydroxy-[[(2R,3S,5R)-3-hydroxy-5-(5-methyl-2,4-dioxo-1-pyrimidinyl)-2-oxolanyl]methoxy]phosphoryl] hydrogen phosphate

> <PUBCHEM_IUPAC_NAME>
[(2R,5S,6R)-5-amino-6-methyloxan-2-yl] [hydroxy-[[(2R,3S,5R)-3-hydroxy-5-(5-methyl-2,4-dioxopyrimidin-1-yl)oxolan-2-yl]methoxy]phosphoryl] hydrogen phosphate

> <PUBCHEM_IUPAC_SYSTEMATIC_NAME>
[(2R,5S,6R)-5-azanyl-6-methyl-oxan-2-yl] [[(2R,3S,5R)-5-[5-methyl-2,4-bis(oxidanylidene)pyrimidin-1-yl]-3-oxidanyl-oxolan-2-yl]methoxy-oxidanyl-phosphoryl] hydrogen phosphate

> <PUBCHEM_IUPAC_TRADITIONAL_NAME>
[(2R,5S,6R)-5-amino-6-methyl-tetrahydropyran-2-yl] [[(2R,3S,5R)-5-(2,4-diketo-5-methyl-pyrimidin-1-yl)-3-hydroxy-tetrahydrofuran-2-yl]methoxy-hydroxy-phosphoryl] hydrogen phosphate

> <PUBCHEM_IUPAC_INCHI>
InChI=1S/C16H27N3O12P2/c1-8-6-19(16(22)18-15(8)21)13-5-11(20)12(29-13)7-27-32(23,24)31-33(25,26)30-14-4-3-10(17)9(2)28-14/h6,9-14,20H,3-5,7,17H2,1-2H3,(H,23,24)(H,25,26)(H,18,21,22)/t9-,10+,11+,12-,13-,14-/m1/s1

> <PUBCHEM_IUPAC_INCHIKEY>
QBCDCCNQCPTNSU-GSZZWUTPSA-N

> <PUBCHEM_XLOGP3_AA>
-5.4

> <PUBCHEM_EXACT_MASS>
515.106997

> <PUBCHEM_MOLECULAR_FORMULA>
C16H27N3O12P2

> <PUBCHEM_MOLECULAR_WEIGHT>
515.346004

> <PUBCHEM_OPENEYE_CAN_SMILES>
CC1C(CCC(O1)OP(=O)(O)OP(=O)(O)OCC2C(CC(O2)N3C=C(C(=O)NC3=O)C)O)N

> <PUBCHEM_OPENEYE_ISO_SMILES>
C[C@@H]1[C@H](CC[C@H](O1)OP(=O)(O)OP(=O)(O)OC[C@@H]2[C@H](C[C@@H](O2)N3C=C(C(=O)NC3=O)C)O)N

> <PUBCHEM_CACTVS_TPSA>
216

> <PUBCHEM_MONOISOTOPIC_WEIGHT>
515.106997

> <PUBCHEM_TOTAL_CHARGE>
0

> <PUBCHEM_HEAVY_ATOM_COUNT>
33

> <PUBCHEM_ATOM_DEF_STEREO_COUNT>
6

> <PUBCHEM_ATOM_UDEF_STEREO_COUNT>
0

> <PUBCHEM_BOND_DEF_STEREO_COUNT>
0

> <PUBCHEM_BOND_UDEF_STEREO_COUNT>
0

> <PUBCHEM_ISOTOPIC_ATOM_COUNT>
0

> <PUBCHEM_COMPONENT_COUNT>
1

> <PUBCHEM_CACTVS_TAUTO_COUNT>
3

> <PUBCHEM_COORDINATE_TYPE>
1
5
255

> <PUBCHEM_BONDANNOTATIONS>
21  15  6
15  29  8
15  30  8
22  16  6
17  30  8
17  32  8
19  25  6
24  28  5
29  31  8
31  32  8
18  5  5
27  7  6

$$$$

