13971
  -OEChem-06241222412D

 31 33  0     0  0  0  0  0  0999 V2000
    3.6750   -0.0064    0.0000 O   0  0  0  0  0  0  0  0  0  0  0  0
    2.0000   -5.0942    0.0000 O   0  5  0  0  0  0  0  0  0  0  0  0
    5.3104    5.0942    0.0000 O   0  5  0  0  0  0  0  0  0  0  0  0
    3.7320   -5.0942    0.0000 O   0  0  0  0  0  0  0  0  0  0  0  0
    6.7117    4.0762    0.0000 O   0  0  0  0  0  0  0  0  0  0  0  0
    2.0570   -0.0064    0.0000 N   0  0  0  0  0  0  0  0  0  0  0  0
    2.3660    0.9446    0.0000 N   0  0  0  0  0  0  0  0  0  0  0  0
    2.8660   -4.5942    0.0000 N   0  3  0  0  0  0  0  0  0  0  0  0
    5.7172    4.1807    0.0000 N   0  3  0  0  0  0  0  0  0  0  0  0
    2.8660   -1.5942    0.0000 C   0  0  0  0  0  0  0  0  0  0  0  0
    3.9538    1.7536    0.0000 C   0  0  0  0  0  0  0  0  0  0  0  0
    2.8660   -0.5942    0.0000 C   0  0  0  0  0  0  0  0  0  0  0  0
    3.3660    0.9446    0.0000 C   0  0  0  0  0  0  0  0  0  0  0  0
    2.0000   -2.0942    0.0000 C   0  0  0  0  0  0  0  0  0  0  0  0
    4.9483    1.6491    0.0000 C   0  0  0  0  0  0  0  0  0  0  0  0
    3.7320   -2.0942    0.0000 C   0  0  0  0  0  0  0  0  0  0  0  0
    3.5471    2.6672    0.0000 C   0  0  0  0  0  0  0  0  0  0  0  0
    2.8660   -3.5942    0.0000 C   0  0  0  0  0  0  0  0  0  0  0  0
    5.1294    3.3717    0.0000 C   0  0  0  0  0  0  0  0  0  0  0  0
    2.0000   -3.0942    0.0000 C   0  0  0  0  0  0  0  0  0  0  0  0
    5.5361    2.4581    0.0000 C   0  0  0  0  0  0  0  0  0  0  0  0
    3.7320   -3.0942    0.0000 C   0  0  0  0  0  0  0  0  0  0  0  0
    4.1349    3.4762    0.0000 C   0  0  0  0  0  0  0  0  0  0  0  0
    1.4631   -1.7842    0.0000 H   0  0  0  0  0  0  0  0  0  0  0  0
    5.2005    1.0827    0.0000 H   0  0  0  0  0  0  0  0  0  0  0  0
    4.2690   -1.7842    0.0000 H   0  0  0  0  0  0  0  0  0  0  0  0
    2.9305    2.7320    0.0000 H   0  0  0  0  0  0  0  0  0  0  0  0
    1.4631   -3.4042    0.0000 H   0  0  0  0  0  0  0  0  0  0  0  0
    6.1527    2.3933    0.0000 H   0  0  0  0  0  0  0  0  0  0  0  0
    4.2690   -3.4042    0.0000 H   0  0  0  0  0  0  0  0  0  0  0  0
    3.8827    4.0426    0.0000 H   0  0  0  0  0  0  0  0  0  0  0  0
  1 12  1  0  0  0  0
  1 13  1  0  0  0  0
  2  8  1  0  0  0  0
  3  9  1  0  0  0  0
  4  8  2  0  0  0  0
  5  9  2  0  0  0  0
  6  7  1  0  0  0  0
  6 12  2  0  0  0  0
  7 13  2  0  0  0  0
  8 18  1  0  0  0  0
  9 19  1  0  0  0  0
 10 12  1  0  0  0  0
 10 14  2  0  0  0  0
 10 16  1  0  0  0  0
 11 13  1  0  0  0  0
 11 15  2  0  0  0  0
 11 17  1  0  0  0  0
 14 20  1  0  0  0  0
 14 24  1  0  0  0  0
 15 21  1  0  0  0  0
 15 25  1  0  0  0  0
 16 22  2  0  0  0  0
 16 26  1  0  0  0  0
 17 23  2  0  0  0  0
 17 27  1  0  0  0  0
 18 20  2  0  0  0  0
 18 22  1  0  0  0  0
 19 21  2  0  0  0  0
 19 23  1  0  0  0  0
 20 28  1  0  0  0  0
 21 29  1  0  0  0  0
 22 30  1  0  0  0  0
 23 31  1  0  0  0  0
M  CHG  4   2  -1   3  -1   8   1   9   1
M  END
> <PUBCHEM_COMPOUND_CID>
13971

> <PUBCHEM_COMPOUND_CANONICALIZED>
1

> <PUBCHEM_CACTVS_COMPLEXITY>
395

> <PUBCHEM_CACTVS_HBOND_ACCEPTOR>
7

> <PUBCHEM_CACTVS_HBOND_DONOR>
0

> <PUBCHEM_CACTVS_ROTATABLE_BOND>
2

> <PUBCHEM_CACTVS_SUBSKEYS>
AAADccBzuAAAAAAAAAAAAAAAAAAAAWAAAAAwYAAAAAAAAAAB0AAAHgAMAAAADAiBmgAwwIAQRECrAiVyUwCSAAAsAgA6iCEgbNoIJrKAtZmKMQBkyAEI6YeY2SGeCAAAAAAAAAAQAAAAAAAAAAAAAAAAAA==

> <PUBCHEM_IUPAC_OPENEYE_NAME>
2,5-bis(4-nitrophenyl)-1,3,4-oxadiazole

> <PUBCHEM_IUPAC_CAS_NAME>
2,5-bis(4-nitrophenyl)-1,3,4-oxadiazole

> <PUBCHEM_IUPAC_NAME>
2,5-bis(4-nitrophenyl)-1,3,4-oxadiazole

> <PUBCHEM_IUPAC_SYSTEMATIC_NAME>
2,5-bis(4-nitrophenyl)-1,3,4-oxadiazole

> <PUBCHEM_IUPAC_TRADITIONAL_NAME>
2,5-bis(4-nitrophenyl)-1,3,4-oxadiazole

> <PUBCHEM_IUPAC_INCHI>
InChI=1S/C14H8N4O5/c19-17(20)11-5-1-9(2-6-11)13-15-16-14(23-13)10-3-7-12(8-4-10)18(21)22/h1-8H

> <PUBCHEM_IUPAC_INCHIKEY>
NXVIYWNQRSLRGX-UHFFFAOYSA-N

> <PUBCHEM_XLOGP3_AA>
2.7

> <PUBCHEM_EXACT_MASS>
312.049469

> <PUBCHEM_MOLECULAR_FORMULA>
C14H8N4O5

> <PUBCHEM_MOLECULAR_WEIGHT>
312.23712

> <PUBCHEM_OPENEYE_CAN_SMILES>
C1=CC(=CC=C1C2=NN=C(O2)C3=CC=C(C=C3)[N+](=O)[O-])[N+](=O)[O-]

> <PUBCHEM_OPENEYE_ISO_SMILES>
C1=CC(=CC=C1C2=NN=C(O2)C3=CC=C(C=C3)[N+](=O)[O-])[N+](=O)[O-]

> <PUBCHEM_CACTVS_TPSA>
131

> <PUBCHEM_MONOISOTOPIC_WEIGHT>
312.049469

> <PUBCHEM_TOTAL_CHARGE>
0

> <PUBCHEM_HEAVY_ATOM_COUNT>
23

> <PUBCHEM_ATOM_DEF_STEREO_COUNT>
0

> <PUBCHEM_ATOM_UDEF_STEREO_COUNT>
0

> <PUBCHEM_BOND_DEF_STEREO_COUNT>
0

> <PUBCHEM_BOND_UDEF_STEREO_COUNT>
0

> <PUBCHEM_ISOTOPIC_ATOM_COUNT>
0

> <PUBCHEM_COMPONENT_COUNT>
1

> <PUBCHEM_CACTVS_TAUTO_COUNT>
1

> <PUBCHEM_COORDINATE_TYPE>
1
5
255

> <PUBCHEM_BONDANNOTATIONS>
1  12  8
1  13  8
10  14  8
10  16  8
11  15  8
11  17  8
14  20  8
15  21  8
16  22  8
17  23  8
18  20  8
18  22  8
19  21  8
19  23  8
6  12  8
6  7  8
7  13  8

$$$$

