   Color/Form

     * Colorless crystals.
     * Crystalline solid.
     * White solid (technical)

   from [1]HSDB

   Odor
        Slight aromatic odor
   from [2]HSDB

   Boiling Point
        131 deg C at 0.05 mm Hg
   from [3]HSDB

   Melting Point
        108 deg C
   from [4]HSDB

   Corrosivity
        Corrosiveness: none
   from [5]HSDB

   Density/Specific Gravity
        1.51 g/cu cm
   from [6]HSDB

   Octanol/Water Partition Coefficient
        log Kow = 3.10
   from [7]HSDB

   Solubilities

     * In methanol 1.54, acetone 33.4, ethyl acetate 23.3, n-heptane 0.45,
       toluene 10.9, dichloromethane 47.5 (all in g/100 mL at 20 deg C).
     * In water, 2.6 mg/L at 20 deg C

   from [8]HSDB

   Vapor Pressure
        1.2X10-7 mm Hg at 20 deg C
   from [9]HSDB

   Other Chemical/Physical Properties

     * Henry's Law constant = 1.7X10-8 atm-cu m/mol at 25 deg C (est)
     * Hydroxyl radical reaction rate constant = 3.3X10-11 cu cm/molec-sec
       at 25 deg C (est)

   from [10]HSDB

   Computed Properties
   Molecular Weight                  286.11076 [g/mol]
   Molecular Formula                 C[12]H[9]Cl[2]NO[3]
   XLogP3                            3.1
   H-Bond Donor                      0
   H-Bond Acceptor                   3
   Rotatable Bond Count              2
   Exact Mass                        284.995949
   MonoIsotopic Mass                 284.995949
   Topological Polar Surface Area    46.6
   Heavy Atom Count                  18
   Formal Charge                     0
   Complexity                        391
   Isotope Atom Count                0
   Defined Atom Stereocenter Count   0
   Undefined Atom Stereocenter Count 1
   Defined Bond Stereocenter Count   0
   Undefined Bond Stereocenter Count 0
   Covalently-Bonded Unit Count      1
   Feature 3D Acceptor Count         2
   Feature 3D Hydrophobe Count       1
   Feature 3D Ring Count             2
   Effective Rotor Count             2.6
   Conformer Sampling RMSD           0.6
   CID Conformer Count               [11]6

References

   1. http://toxnet.nlm.nih.gov/cgi-bin/sis/search/r?dbs+hsdb:@term+@rn+@rel+50471-44-8
   2. http://toxnet.nlm.nih.gov/cgi-bin/sis/search/r?dbs+hsdb:@term+@rn+@rel+50471-44-8
   3. http://toxnet.nlm.nih.gov/cgi-bin/sis/search/r?dbs+hsdb:@term+@rn+@rel+50471-44-8
   4. http://toxnet.nlm.nih.gov/cgi-bin/sis/search/r?dbs+hsdb:@term+@rn+@rel+50471-44-8
   5. http://toxnet.nlm.nih.gov/cgi-bin/sis/search/r?dbs+hsdb:@term+@rn+@rel+50471-44-8
   6. http://toxnet.nlm.nih.gov/cgi-bin/sis/search/r?dbs+hsdb:@term+@rn+@rel+50471-44-8
   7. http://toxnet.nlm.nih.gov/cgi-bin/sis/search/r?dbs+hsdb:@term+@rn+@rel+50471-44-8
   8. http://toxnet.nlm.nih.gov/cgi-bin/sis/search/r?dbs+hsdb:@term+@rn+@rel+50471-44-8
   9. http://toxnet.nlm.nih.gov/cgi-bin/sis/search/r?dbs+hsdb:@term+@rn+@rel+50471-44-8
  10. http://toxnet.nlm.nih.gov/cgi-bin/sis/search/r?dbs+hsdb:@term+@rn+@rel+50471-44-8
  11. http://pubchem.ncbi.nlm.nih.gov/vw3d/vw3d.cgi?cid=39676
