   Color/Form
        Yellowish liquid
   from [1]HSDB

   Odor
        ...An ester-like odor.
   from [2]HSDB

   Boiling Point
        160 deg C/0.15 mmHg
   from [3]HSDB

   Octanol/Water Partition Coefficient
        log Kow = 3.73
   from [4]HSDB

   Solubilities

     * Readily soluble in organic solvents.
     * In water, 1.9 mg/l @ 25 deg C [Shiu WY et al; Rev Environ Contam
       Toxicol 116: 15-187 (1990)] [5]PubMed Abstract

   from [6]HSDB

   Other Chemical/Physical Properties

     * Decomposes at 160 deg C
     * When heated to decomposition it emits very toxic fumes of NOx, POx,
       and SOx.

   from [7]HSDB

   Computed Properties
   Molecular Weight                  313.309202 [g/mol]
   Molecular Formula                 C[13]H[16]NO[4]PS
   XLogP3-AA                         4.2
   H-Bond Donor                      0
   H-Bond Acceptor                   6
   Rotatable Bond Count              7
   Exact Mass                        313.053766
   MonoIsotopic Mass                 313.053766
   Topological Polar Surface Area    85.8
   Heavy Atom Count                  20
   Formal Charge                     0
   Complexity                        328
   Isotope Atom Count                0
   Defined Atom Stereocenter Count   0
   Undefined Atom Stereocenter Count 0
   Defined Bond Stereocenter Count   0
   Undefined Bond Stereocenter Count 0
   Covalently-Bonded Unit Count      1
   Feature 3D Ring Count             2
   Effective Rotor Count             7
   Conformer Sampling RMSD           0.8
   CID Conformer Count               [8]77

References

   1. http://toxnet.nlm.nih.gov/cgi-bin/sis/search/r?dbs+hsdb:@term+@rn+@rel+18854-01-8
   2. http://toxnet.nlm.nih.gov/cgi-bin/sis/search/r?dbs+hsdb:@term+@rn+@rel+18854-01-8
   3. http://toxnet.nlm.nih.gov/cgi-bin/sis/search/r?dbs+hsdb:@term+@rn+@rel+18854-01-8
   4. http://toxnet.nlm.nih.gov/cgi-bin/sis/search/r?dbs+hsdb:@term+@rn+@rel+18854-01-8
   5. http://www.ncbi.nlm.nih.gov/entrez/query.fcgi?cmd=Retrieve&db=pubmed&dopt=Abstract&list_uids=2205893
   6. http://toxnet.nlm.nih.gov/cgi-bin/sis/search/r?dbs+hsdb:@term+@rn+@rel+18854-01-8
   7. http://toxnet.nlm.nih.gov/cgi-bin/sis/search/r?dbs+hsdb:@term+@rn+@rel+18854-01-8
   8. http://pubchem.ncbi.nlm.nih.gov/vw3d/vw3d.cgi?cid=29307
