   Color/Form

     * Needles from ethanol (aq) or ether
     * YELLOW RHOMBIC NEEDLES
     * White crystals becoming red on exposure to air
     * Needles, becoming red on exposure to air, or a reddish, crystal
       mass
     * Colorless crystals; darkens in air to a reddish-purple color

   from [1]HSDB

   Odor
        Ammonia-like odor.
   from [2]HSDB

   Boiling Point
        300.7 deg C
   from [3]HSDB

   Melting Point
        49.2 deg C
   from [4]HSDB

   Density/Specific Gravity
        1.114 g/cu cm
   from [5]HSDB

   Dissociation Constants
        pKa of 3.92 at 25 deg C
   from [6]HSDB

   Heat of Combustion
        -15,290 BTU/LB= -8,495 CAL/G= -355.4X10+5 J/KG
   from [7]HSDB

   Octanol/Water Partition Coefficient
        log Kow = 2.25
   from [8]HSDB

   pH
        Weak base
   from [9]HSDB

   Solubilities

     * Sol in chloroform
     * Freely sol in alcohol and ether
     * In water, 1.7X10+3 mg/L @ 20 deg C

   from [10]HSDB

   Spectral Properties

     * INDEX OF REFRACTION: 1.67034 @ 51 DEG C/D; MAX ABSORPTION (DIL
       ALCOHOL): 242 NM (LOG E= 4.27); 320 NM (LOG E= 3.71)
     * Intense mass spectral peaks: 143 m/z (100%), 115 m/z (68%), 116 m/z
       (33%), 89 m/z (12%)
     * MASS: 55753 (NIST/EPA/MSDC Mass Spectral Database, 1990 Version);
       387 (National Bureau of Stnadards)
     * IR: 3831 (Sadtler Research Laboratories IR grating collection)
     * UV: 2545 (Sadtler Research Laboratories spectral collection)
     * Raman: 235 (Sadtler Research Laboratories spectral collection)
     * H NMR: 539 (Sadtler Research Laboratories spectral collection)

   from [11]HSDB

   Vapor Density
        4.93 (Air= 1)
   from [12]HSDB

   Vapor Pressure
        4.18X10-3 mm Hg @ 25 deg C /Extrapolated/
   from [13]HSDB

   Other Chemical/Physical Properties

     * Sublimes; volatile with steam; reduces warm ammoniacal silver
       nitrate
     * Crystal powder; becomes bluish on exposure to air and light. Sol in
       about 27 parts water; sol in alcohol and ether /Hydrochloride/
     * Behaves as a typical aromatic amine
     * Henry's Law constant = 4.63X10-7 atm-cu m/mol @ 25 deg C
     * Hydroxyl radical reaction rate constant = 2.00X10-10 cu
       cm/molec-sec @ 25 deg C /Estimated/

   from [14]HSDB

   Computed Properties
   Molecular Weight                  143.18516 [g/mol]
   Molecular Formula                 C[10]H[9]N
   XLogP3                            2.2
   H-Bond Donor                      1
   H-Bond Acceptor                   1
   Rotatable Bond Count              0
   Exact Mass                        143.073499
   MonoIsotopic Mass                 143.073499
   Topological Polar Surface Area    26
   Heavy Atom Count                  11
   Formal Charge                     0
   Complexity                        133
   Isotope Atom Count                0
   Defined Atom Stereocenter Count   0
   Undefined Atom Stereocenter Count 0
   Defined Bond Stereocenter Count   0
   Undefined Bond Stereocenter Count 0
   Covalently-Bonded Unit Count      1
   Feature 3D Donor Count            1
   Feature 3D Cation Count           1
   Feature 3D Ring Count             2
   Effective Rotor Count             0
   Conformer Sampling RMSD           0.4
   CID Conformer Count               [15]1

References

   1. http://toxnet.nlm.nih.gov/cgi-bin/sis/search/r?dbs+hsdb:@term+@rn+@rel+134-32-7
   2. http://toxnet.nlm.nih.gov/cgi-bin/sis/search/r?dbs+hsdb:@term+@rn+@rel+134-32-7
   3. http://toxnet.nlm.nih.gov/cgi-bin/sis/search/r?dbs+hsdb:@term+@rn+@rel+134-32-7
   4. http://toxnet.nlm.nih.gov/cgi-bin/sis/search/r?dbs+hsdb:@term+@rn+@rel+134-32-7
   5. http://toxnet.nlm.nih.gov/cgi-bin/sis/search/r?dbs+hsdb:@term+@rn+@rel+134-32-7
   6. http://toxnet.nlm.nih.gov/cgi-bin/sis/search/r?dbs+hsdb:@term+@rn+@rel+134-32-7
   7. http://toxnet.nlm.nih.gov/cgi-bin/sis/search/r?dbs+hsdb:@term+@rn+@rel+134-32-7
   8. http://toxnet.nlm.nih.gov/cgi-bin/sis/search/r?dbs+hsdb:@term+@rn+@rel+134-32-7
   9. http://toxnet.nlm.nih.gov/cgi-bin/sis/search/r?dbs+hsdb:@term+@rn+@rel+134-32-7
  10. http://toxnet.nlm.nih.gov/cgi-bin/sis/search/r?dbs+hsdb:@term+@rn+@rel+134-32-7
  11. http://toxnet.nlm.nih.gov/cgi-bin/sis/search/r?dbs+hsdb:@term+@rn+@rel+134-32-7
  12. http://toxnet.nlm.nih.gov/cgi-bin/sis/search/r?dbs+hsdb:@term+@rn+@rel+134-32-7
  13. http://toxnet.nlm.nih.gov/cgi-bin/sis/search/r?dbs+hsdb:@term+@rn+@rel+134-32-7
  14. http://toxnet.nlm.nih.gov/cgi-bin/sis/search/r?dbs+hsdb:@term+@rn+@rel+134-32-7
  15. http://pubchem.ncbi.nlm.nih.gov/vw3d/vw3d.cgi?cid=8640
