11954166
  -OEChem-07051213072D

 49 52  0     1  0  0  0  0  0999 V2000
    8.6500    2.6128    0.0000 O   0  0  0  0  0  0  0  0  0  0  0  0
    2.0000   -1.6948    0.0000 O   0  0  0  0  0  0  0  0  0  0  0  0
    7.3931    0.3575    0.0000 C   0  0  2  0  0  0  0  0  0  0  0  0
    7.3931    1.3575    0.0000 C   0  0  2  0  0  0  0  0  0  0  0  0
    6.5271   -0.1425    0.0000 C   0  0  1  0  0  0  0  0  0  0  0  0
    5.6610    0.3575    0.0000 C   0  0  2  0  0  0  0  0  0  0  0  0
    6.5271    1.8575    0.0000 C   0  0  0  0  0  0  0  0  0  0  0  0
    8.3393    1.6623    0.0000 C   0  0  2  0  0  0  0  0  0  0  0  0
    5.6610    1.3575    0.0000 C   0  0  0  0  0  0  0  0  0  0  0  0
    8.3393    0.0528    0.0000 C   0  0  0  0  0  0  0  0  0  0  0  0
    4.7510   -0.1493    0.0000 C   0  0  2  0  0  0  0  0  0  0  0  0
    6.5431   -1.1840    0.0000 C   0  0  0  0  0  0  0  0  0  0  0  0
    8.9229    0.8575    0.0000 C   0  0  0  0  0  0  0  0  0  0  0  0
    7.3931    2.3575    0.0000 C   0  0  0  0  0  0  0  0  0  0  0  0
    4.7430   -1.1909    0.0000 C   0  0  0  0  0  0  0  0  0  0  0  0
    5.6451   -1.7117    0.0000 C   0  0  0  0  0  0  0  0  0  0  0  0
    3.8242    0.4148    0.0000 C   0  0  0  0  0  0  0  0  0  0  0  0
    3.8076   -1.7406    0.0000 C   0  0  0  0  0  0  0  0  0  0  0  0
    2.8763   -0.1132    0.0000 C   0  0  0  0  0  0  0  0  0  0  0  0
    2.8680   -1.1982    0.0000 C   0  0  0  0  0  0  0  0  0  0  0  0
    3.8114   -2.7406    0.0000 C   0  0  0  0  0  0  0  0  0  0  0  0
    7.4830   -0.4877    0.0000 H   0  0  0  0  0  0  0  0  0  0  0  0
    7.2664   -0.5618    0.0000 H   0  0  0  0  0  0  0  0  0  0  0  0
    6.3972    0.7825    0.0000 H   0  0  0  0  0  0  0  0  0  0  0  0
    6.9256    2.3325    0.0000 H   0  0  0  0  0  0  0  0  0  0  0  0
    6.1285    2.3325    0.0000 H   0  0  0  0  0  0  0  0  0  0  0  0
    7.9018    2.1016    0.0000 H   0  0  0  0  0  0  0  0  0  0  0  0
    5.4490    1.9401    0.0000 H   0  0  0  0  0  0  0  0  0  0  0  0
    5.0504    1.2499    0.0000 H   0  0  0  0  0  0  0  0  0  0  0  0
    8.0883   -0.5141    0.0000 H   0  0  0  0  0  0  0  0  0  0  0  0
    8.8767   -0.2564    0.0000 H   0  0  0  0  0  0  0  0  0  0  0  0
    4.7674    0.7005    0.0000 H   0  0  0  0  0  0  0  0  0  0  0  0
    6.7612   -1.7644    0.0000 H   0  0  0  0  0  0  0  0  0  0  0  0
    7.1523   -1.0685    0.0000 H   0  0  0  0  0  0  0  0  0  0  0  0
    9.3838    0.4428    0.0000 H   0  0  0  0  0  0  0  0  0  0  0  0
    9.3838    1.2723    0.0000 H   0  0  0  0  0  0  0  0  0  0  0  0
    8.0131    2.3575    0.0000 H   0  0  0  0  0  0  0  0  0  0  0  0
    7.3931    2.9775    0.0000 H   0  0  0  0  0  0  0  0  0  0  0  0
    6.7731    2.3575    0.0000 H   0  0  0  0  0  0  0  0  0  0  0  0
    5.2478   -2.1877    0.0000 H   0  0  0  0  0  0  0  0  0  0  0  0
    6.0460   -2.1846    0.0000 H   0  0  0  0  0  0  0  0  0  0  0  0
    4.2324    0.8814    0.0000 H   0  0  0  0  0  0  0  0  0  0  0  0
    3.4343    0.8968    0.0000 H   0  0  0  0  0  0  0  0  0  0  0  0
    2.6718    0.4721    0.0000 H   0  0  0  0  0  0  0  0  0  0  0  0
    2.2647   -0.2146    0.0000 H   0  0  0  0  0  0  0  0  0  0  0  0
    9.2566    2.7406    0.0000 H   0  0  0  0  0  0  0  0  0  0  0  0
    3.1914   -2.7430    0.0000 H   0  0  0  0  0  0  0  0  0  0  0  0
    3.8138   -3.3606    0.0000 H   0  0  0  0  0  0  0  0  0  0  0  0
    4.4314   -2.7382    0.0000 H   0  0  0  0  0  0  0  0  0  0  0  0
  8  1  1  1  0  0  0
  1 46  1  0  0  0  0
  2 20  2  0  0  0  0
  3  4  1  0  0  0  0
  3  5  1  0  0  0  0
  3 10  1  0  0  0  0
  3 22  1  6  0  0  0
  4  7  1  0  0  0  0
  4  8  1  0  0  0  0
  4 14  1  1  0  0  0
  5  6  1  0  0  0  0
  5 12  1  0  0  0  0
  5 23  1  1  0  0  0
  6  9  1  0  0  0  0
  6 11  1  0  0  0  0
  6 24  1  6  0  0  0
  7  9  1  0  0  0  0
  7 25  1  0  0  0  0
  7 26  1  0  0  0  0
  8 13  1  0  0  0  0
  8 27  1  0  0  0  0
  9 28  1  0  0  0  0
  9 29  1  0  0  0  0
 10 13  1  0  0  0  0
 10 30  1  0  0  0  0
 10 31  1  0  0  0  0
 11 15  1  0  0  0  0
 11 17  1  0  0  0  0
 11 32  1  1  0  0  0
 12 16  1  0  0  0  0
 12 33  1  0  0  0  0
 12 34  1  0  0  0  0
 13 35  1  0  0  0  0
 13 36  1  0  0  0  0
 14 37  1  0  0  0  0
 14 38  1  0  0  0  0
 14 39  1  0  0  0  0
 15 16  1  0  0  0  0
 15 18  2  0  0  0  0
 16 40  1  0  0  0  0
 16 41  1  0  0  0  0
 17 19  1  0  0  0  0
 17 42  1  0  0  0  0
 17 43  1  0  0  0  0
 18 20  1  0  0  0  0
 18 21  1  0  0  0  0
 19 20  1  0  0  0  0
 19 44  1  0  0  0  0
 19 45  1  0  0  0  0
 21 47  1  0  0  0  0
 21 48  1  0  0  0  0
 21 49  1  0  0  0  0
M  END
> <PUBCHEM_COMPOUND_CID>
11954166

> <PUBCHEM_COMPOUND_CANONICALIZED>
1

> <PUBCHEM_CACTVS_COMPLEXITY>
506

> <PUBCHEM_CACTVS_HBOND_ACCEPTOR>
2

> <PUBCHEM_CACTVS_HBOND_DONOR>
1

> <PUBCHEM_CACTVS_ROTATABLE_BOND>
0

> <PUBCHEM_CACTVS_SUBSKEYS>
AAADceB4MAAAAAAAAAAAAAAAAAAAAYAAAAAwYIAAAAAAAGDAAAAAGgAACAAADxSggAICAAAAAgCIAoBQAAAAAAAgAAAACAEAAEgAEBIAAAAAQAAEgAAIAQOIyPCPgAAAAAAAAACAAAQAACAAAIAADAAAAA==

> <PUBCHEM_IUPAC_OPENEYE_NAME>
(8R,9S,10R,13S,14S,17S)-17-hydroxy-4,13-dimethyl-2,6,7,8,9,10,11,12,14,15,16,17-dodecahydro-1H-cyclopenta[a]phenanthren-3-one

> <PUBCHEM_IUPAC_CAS_NAME>
(8R,9S,10R,13S,14S,17S)-17-hydroxy-4,13-dimethyl-2,6,7,8,9,10,11,12,14,15,16,17-dodecahydro-1H-cyclopenta[a]phenanthren-3-one

> <PUBCHEM_IUPAC_NAME>
(8R,9S,10R,13S,14S,17S)-17-hydroxy-4,13-dimethyl-2,6,7,8,9,10,11,12,14,15,16,17-dodecahydro-1H-cyclopenta[a]phenanthren-3-one

> <PUBCHEM_IUPAC_SYSTEMATIC_NAME>
(8R,9S,10R,13S,14S,17S)-4,13-dimethyl-17-oxidanyl-2,6,7,8,9,10,11,12,14,15,16,17-dodecahydro-1H-cyclopenta[a]phenanthren-3-one

> <PUBCHEM_IUPAC_TRADITIONAL_NAME>
(8R,9S,10R,13S,14S,17S)-17-hydroxy-4,13-dimethyl-2,6,7,8,9,10,11,12,14,15,16,17-dodecahydro-1H-cyclopenta[a]phenanthren-3-one

> <PUBCHEM_IUPAC_INCHI>
InChI=1S/C19H28O2/c1-11-12-3-4-15-14(13(12)5-7-17(11)20)9-10-19(2)16(15)6-8-18(19)21/h13-16,18,21H,3-10H2,1-2H3/t13-,14+,15+,16-,18-,19-/m0/s1

> <PUBCHEM_IUPAC_INCHIKEY>
LKABUQNJWMHBKS-FIAUESIKSA-N

> <PUBCHEM_XLOGP3>
3

> <PUBCHEM_EXACT_MASS>
288.20893

> <PUBCHEM_MOLECULAR_FORMULA>
C19H28O2

> <PUBCHEM_MOLECULAR_WEIGHT>
288.42442

> <PUBCHEM_OPENEYE_CAN_SMILES>
CC1=C2CCC3C(C2CCC1=O)CCC4(C3CCC4O)C

> <PUBCHEM_OPENEYE_ISO_SMILES>
CC1=C2CC[C@@H]3[C@@H]([C@H]2CCC1=O)CC[C@]4([C@H]3CC[C@@H]4O)C

> <PUBCHEM_CACTVS_TPSA>
37.3

> <PUBCHEM_MONOISOTOPIC_WEIGHT>
288.20893

> <PUBCHEM_TOTAL_CHARGE>
0

> <PUBCHEM_HEAVY_ATOM_COUNT>
21

> <PUBCHEM_ATOM_DEF_STEREO_COUNT>
6

> <PUBCHEM_ATOM_UDEF_STEREO_COUNT>
0

> <PUBCHEM_BOND_DEF_STEREO_COUNT>
0

> <PUBCHEM_BOND_UDEF_STEREO_COUNT>
0

> <PUBCHEM_ISOTOPIC_ATOM_COUNT>
0

> <PUBCHEM_COMPONENT_COUNT>
1

> <PUBCHEM_CACTVS_TAUTO_COUNT>
8

> <PUBCHEM_COORDINATE_TYPE>
1
5
255

> <PUBCHEM_BONDANNOTATIONS>
8  1  5
11  32  5
3  22  6
4  14  5
5  23  5
6  24  6

$$$$

