54675778
  -OEChem-07051212512D

 28 27  0     0  0  0  0  0  0999 V2000
    5.6590   -1.9997    0.0000 O   0  0  0  0  0  0  0  0  0  0  0  0
    2.5369   -0.0600    0.0000 O   0  0  0  0  0  0  0  0  0  0  0  0
    3.4030   -1.5600    0.0000 O   0  0  0  0  0  0  0  0  0  0  0  0
    4.6110   -1.9997    0.0000 O   0  0  0  0  0  0  0  0  0  0  0  0
    2.5369    1.9400    0.0000 O   0  0  0  0  0  0  0  0  0  0  0  0
    4.2690    1.9400    0.0000 O   0  0  0  0  0  0  0  0  0  0  0  0
    6.8671   -1.5600    0.0000 C   0  0  0  0  0  0  0  0  0  0  0  0
    6.8671   -2.5600    0.0000 C   0  0  0  0  0  0  0  0  0  0  0  0
    7.7331   -1.0600    0.0000 C   0  0  0  0  0  0  0  0  0  0  0  0
    6.0010   -1.0600    0.0000 C   0  0  0  0  0  0  0  0  0  0  0  0
    6.0010   -0.0600    0.0000 C   0  0  0  0  0  0  0  0  0  0  0  0
    5.1350    0.4400    0.0000 C   0  0  0  0  0  0  0  0  0  0  0  0
    4.2690   -0.0600    0.0000 C   0  0  0  0  0  0  0  0  0  0  0  0
    3.4030    0.4400    0.0000 C   0  0  0  0  0  0  0  0  0  0  0  0
    4.2690   -1.0600    0.0000 C   0  0  0  0  0  0  0  0  0  0  0  0
    3.4030    1.4400    0.0000 C   0  0  0  0  0  0  0  0  0  0  0  0
    6.3301   -1.8700    0.0000 H   0  0  0  0  0  0  0  0  0  0  0  0
    6.2471   -2.5600    0.0000 H   0  0  0  0  0  0  0  0  0  0  0  0
    6.8671   -3.1800    0.0000 H   0  0  0  0  0  0  0  0  0  0  0  0
    7.4871   -2.5600    0.0000 H   0  0  0  0  0  0  0  0  0  0  0  0
    8.0431   -1.5969    0.0000 H   0  0  0  0  0  0  0  0  0  0  0  0
    8.2700   -0.7500    0.0000 H   0  0  0  0  0  0  0  0  0  0  0  0
    7.4231   -0.5231    0.0000 H   0  0  0  0  0  0  0  0  0  0  0  0
    6.5380    0.2500    0.0000 H   0  0  0  0  0  0  0  0  0  0  0  0
    5.1350    1.0600    0.0000 H   0  0  0  0  0  0  0  0  0  0  0  0
    2.0000    0.2500    0.0000 H   0  0  0  0  0  0  0  0  0  0  0  0
    3.4030   -2.1800    0.0000 H   0  0  0  0  0  0  0  0  0  0  0  0
    2.5369    2.5600    0.0000 H   0  0  0  0  0  0  0  0  0  0  0  0
  1 10  2  0  0  0  0
  2 14  1  0  0  0  0
  2 26  1  0  0  0  0
  3 15  1  0  0  0  0
  3 27  1  0  0  0  0
  4 15  2  0  0  0  0
  5 16  1  0  0  0  0
  5 28  1  0  0  0  0
  6 16  2  0  0  0  0
  7  8  1  0  0  0  0
  7  9  1  0  0  0  0
  7 10  1  0  0  0  0
  7 17  1  0  0  0  0
  8 18  1  0  0  0  0
  8 19  1  0  0  0  0
  8 20  1  0  0  0  0
  9 21  1  0  0  0  0
  9 22  1  0  0  0  0
  9 23  1  0  0  0  0
 10 11  1  0  0  0  0
 11 12  2  0  0  0  0
 11 24  1  0  0  0  0
 12 13  1  0  0  0  0
 12 25  1  0  0  0  0
 13 14  2  0  0  0  0
 13 15  1  0  0  0  0
 14 16  1  0  0  0  0
M  END
> <PUBCHEM_COMPOUND_CID>
54675778

> <PUBCHEM_COMPOUND_CANONICALIZED>
1

> <PUBCHEM_CACTVS_COMPLEXITY>
375

> <PUBCHEM_CACTVS_HBOND_ACCEPTOR>
6

> <PUBCHEM_CACTVS_HBOND_DONOR>
3

> <PUBCHEM_CACTVS_ROTATABLE_BOND>
5

> <PUBCHEM_CACTVS_SUBSKEYS>
AAADccBwOAAAAAAAAAAAAAAAAAAAAAAAAAAAAAAAAAAAAAAAAAAAGgAACAAADQSAgAACCAAAAgCIAqDSCAIAAAAgIAAICAFAAEgJBAAAAAAAUAAAwAAJkYIAAAAIAAAAAAAAAAAAAAAAAAAAAAAAAAAAAA==

> <PUBCHEM_IUPAC_OPENEYE_NAME>
(Z)-2-hydroxy-3-[(Z)-4-methyl-3-oxo-pent-1-enyl]but-2-enedioic acid

> <PUBCHEM_IUPAC_CAS_NAME>
(Z)-2-hydroxy-3-[(Z)-4-methyl-3-oxopent-1-enyl]-2-butenedioic acid

> <PUBCHEM_IUPAC_NAME>
(Z)-2-hydroxy-3-[(Z)-4-methyl-3-oxopent-1-enyl]but-2-enedioic acid

> <PUBCHEM_IUPAC_SYSTEMATIC_NAME>
(Z)-2-[(Z)-4-methyl-3-oxidanylidene-pent-1-enyl]-3-oxidanyl-but-2-enedioic acid

> <PUBCHEM_IUPAC_TRADITIONAL_NAME>
(Z)-2-hydroxy-3-[(Z)-3-keto-4-methyl-pent-1-enyl]but-2-enedioic acid

> <PUBCHEM_IUPAC_INCHI>
InChI=1S/C10H12O6/c1-5(2)7(11)4-3-6(9(13)14)8(12)10(15)16/h3-5,12H,1-2H3,(H,13,14)(H,15,16)/b4-3-,8-6-

> <PUBCHEM_IUPAC_INCHIKEY>
QIADQBIXDULDTJ-XYMCEGRYSA-N

> <PUBCHEM_XLOGP3_AA>
1.1

> <PUBCHEM_EXACT_MASS>
228.063388

> <PUBCHEM_MOLECULAR_FORMULA>
C10H12O6

> <PUBCHEM_MOLECULAR_WEIGHT>
228.19868

> <PUBCHEM_OPENEYE_CAN_SMILES>
CC(C)C(=O)C=CC(=C(C(=O)O)O)C(=O)O

> <PUBCHEM_OPENEYE_ISO_SMILES>
CC(C)C(=O)/C=C\C(=C(/C(=O)O)\O)\C(=O)O

> <PUBCHEM_CACTVS_TPSA>
112

> <PUBCHEM_MONOISOTOPIC_WEIGHT>
228.063388

> <PUBCHEM_TOTAL_CHARGE>
0

> <PUBCHEM_HEAVY_ATOM_COUNT>
16

> <PUBCHEM_ATOM_DEF_STEREO_COUNT>
0

> <PUBCHEM_ATOM_UDEF_STEREO_COUNT>
0

> <PUBCHEM_BOND_DEF_STEREO_COUNT>
2

> <PUBCHEM_BOND_UDEF_STEREO_COUNT>
0

> <PUBCHEM_ISOTOPIC_ATOM_COUNT>
0

> <PUBCHEM_COMPONENT_COUNT>
1

> <PUBCHEM_CACTVS_TAUTO_COUNT>
9

> <PUBCHEM_COORDINATE_TYPE>
1
5
255

$$$$

