   Boiling Point
        215 deg C at 760 mm Hg; 104 deg C at 11 mm Hg
   from [1]HSDB

   Density/Specific Gravity
        1.9848 g/cu cm at 31 deg C
   from [2]HSDB

   Dissociation Constants
        pKa = 1.40 (est)
   from [3]HSDB

   Octanol/Water Partition Coefficient
        log Kow = 0.61 (est)
   from [4]HSDB

   Solubilities
        In water, 2.5X10+5 mg/L at 25 deg C (est)
   from [5]HSDB

   Vapor Pressure
        1.4X10-1 mm Hg at 25 deg C (est)
   from [6]HSDB

   Other Chemical/Physical Properties

     * Henry's Law constant = 2.2X10-8 atm-cu m/mole at 25 deg C (est)
     * Hydroxyl radical reaction rate constant = 6.8X10-13 cu
       cm/molecule-sec at 25 deg C (est)

   from [7]HSDB

   Computed Properties
   Molecular Weight                  173.39308 [g/mol]
   Molecular Formula                 C[2]H[2]BrClO[2]
   XLogP3-AA                         1.3
   H-Bond Donor                      1
   H-Bond Acceptor                   2
   Rotatable Bond Count              1
   Exact Mass                        171.892669
   MonoIsotopic Mass                 171.892669
   Topological Polar Surface Area    37.3
   Heavy Atom Count                  6
   Formal Charge                     0
   Complexity                        64.6
   Isotope Atom Count                0
   Defined Atom Stereocenter Count   0
   Undefined Atom Stereocenter Count 1
   Defined Bond Stereocenter Count   0
   Undefined Bond Stereocenter Count 0
   Covalently-Bonded Unit Count      1
   Feature 3D Acceptor Count         2
   Feature 3D Anion Count            1
   Feature 3D Hydrophobe Count       1
   Effective Rotor Count             1
   Conformer Sampling RMSD           0.4
   CID Conformer Count               [8]4

References

   1. http://toxnet.nlm.nih.gov/cgi-bin/sis/search/r?dbs+hsdb:@term+@rn+@rel+5589-96-8
   2. http://toxnet.nlm.nih.gov/cgi-bin/sis/search/r?dbs+hsdb:@term+@rn+@rel+5589-96-8
   3. http://toxnet.nlm.nih.gov/cgi-bin/sis/search/r?dbs+hsdb:@term+@rn+@rel+5589-96-8
   4. http://toxnet.nlm.nih.gov/cgi-bin/sis/search/r?dbs+hsdb:@term+@rn+@rel+5589-96-8
   5. http://toxnet.nlm.nih.gov/cgi-bin/sis/search/r?dbs+hsdb:@term+@rn+@rel+5589-96-8
   6. http://toxnet.nlm.nih.gov/cgi-bin/sis/search/r?dbs+hsdb:@term+@rn+@rel+5589-96-8
   7. http://toxnet.nlm.nih.gov/cgi-bin/sis/search/r?dbs+hsdb:@term+@rn+@rel+5589-96-8
   8. http://pubchem.ncbi.nlm.nih.gov/vw3d/vw3d.cgi?cid=542762
