442997
  -OEChem-07051213002D

 40 42  0     1  0  0  0  0  0999 V2000
    5.4641   -1.1753    0.0000 O   0  0  0  0  0  0  0  0  0  0  0  0
    8.4026   -2.3692    0.0000 O   0  0  0  0  0  0  0  0  0  0  0  0
    6.7084   -2.7293    0.0000 O   0  0  0  0  0  0  0  0  0  0  0  0
    4.5981    0.3247    0.0000 O   0  0  0  0  0  0  0  0  0  0  0  0
    8.3010    2.1096    0.0000 N   0  0  3  0  0  0  0  0  0  0  0  0
    8.7788    0.1611    0.0000 C   0  0  3  0  0  0  0  0  0  0  0  0
    9.0376    1.1270    0.0000 C   0  0  3  0  0  0  0  0  0  0  0  0
    7.2437   -1.0820    0.0000 C   0  0  2  0  0  0  0  0  0  0  0  0
   10.6108   -0.5977    0.0000 C   0  0  0  0  0  0  0  0  0  0  0  0
   10.8696    0.3682    0.0000 C   0  0  0  0  0  0  0  0  0  0  0  0
    6.4347    0.3192    0.0000 C   0  0  0  0  0  0  0  0  0  0  0  0
    6.3301   -0.6753    0.0000 C   0  0  2  0  0  0  0  0  0  0  0  0
    7.8010    2.9757    0.0000 C   0  0  0  0  0  0  0  0  0  0  0  0
    7.4516   -2.0602    0.0000 C   0  0  0  0  0  0  0  0  0  0  0  0
    4.5981   -0.6753    0.0000 C   0  0  0  0  0  0  0  0  0  0  0  0
    3.7320   -1.1753    0.0000 C   0  0  0  0  0  0  0  0  0  0  0  0
    2.8660   -0.6753    0.0000 C   0  0  0  0  0  0  0  0  0  0  0  0
    3.7320   -2.1753    0.0000 C   0  0  0  0  0  0  0  0  0  0  0  0
    2.0000   -1.1753    0.0000 C   0  0  0  0  0  0  0  0  0  0  0  0
    2.8660   -2.6753    0.0000 C   0  0  0  0  0  0  0  0  0  0  0  0
    2.0000   -2.1753    0.0000 C   0  0  0  0  0  0  0  0  0  0  0  0
    8.9008   -0.6801    0.0000 H   0  0  0  0  0  0  0  0  0  0  0  0
    8.9986    0.2779    0.0000 H   0  0  0  0  0  0  0  0  0  0  0  0
    6.7618   -1.4722    0.0000 H   0  0  0  0  0  0  0  0  0  0  0  0
   10.3987   -1.1803    0.0000 H   0  0  0  0  0  0  0  0  0  0  0  0
   11.2021   -0.7842    0.0000 H   0  0  0  0  0  0  0  0  0  0  0  0
   11.4609    0.1818    0.0000 H   0  0  0  0  0  0  0  0  0  0  0  0
   11.0817    0.9508    0.0000 H   0  0  0  0  0  0  0  0  0  0  0  0
    6.3324    0.9307    0.0000 H   0  0  0  0  0  0  0  0  0  0  0  0
    5.8149    0.3003    0.0000 H   0  0  0  0  0  0  0  0  0  0  0  0
    6.3626   -1.2945    0.0000 H   0  0  0  0  0  0  0  0  0  0  0  0
    8.3380    3.2857    0.0000 H   0  0  0  0  0  0  0  0  0  0  0  0
    7.4910    3.5126    0.0000 H   0  0  0  0  0  0  0  0  0  0  0  0
    7.2641    2.6657    0.0000 H   0  0  0  0  0  0  0  0  0  0  0  0
    8.5316   -2.9757    0.0000 H   0  0  0  0  0  0  0  0  0  0  0  0
    2.8660   -0.0553    0.0000 H   0  0  0  0  0  0  0  0  0  0  0  0
    4.2690   -2.4853    0.0000 H   0  0  0  0  0  0  0  0  0  0  0  0
    1.4631   -0.8653    0.0000 H   0  0  0  0  0  0  0  0  0  0  0  0
    2.8660   -3.2953    0.0000 H   0  0  0  0  0  0  0  0  0  0  0  0
    1.4631   -2.4853    0.0000 H   0  0  0  0  0  0  0  0  0  0  0  0
 12  1  1  1  0  0  0
  1 15  1  0  0  0  0
  2 14  1  0  0  0  0
  2 35  1  0  0  0  0
  3 14  2  0  0  0  0
  4 15  2  0  0  0  0
  5  6  1  0  0  0  0
  5  7  1  0  0  0  0
  5 13  1  0  0  0  0
  6  8  1  0  0  0  0
  6  9  1  0  0  0  0
  6 22  1  0  0  0  0
  7 10  1  0  0  0  0
  7 11  1  0  0  0  0
  7 23  1  0  0  0  0
  8 12  1  0  0  0  0
  8 14  1  1  0  0  0
  8 24  1  0  0  0  0
  9 10  1  0  0  0  0
  9 25  1  0  0  0  0
  9 26  1  0  0  0  0
 10 27  1  0  0  0  0
 10 28  1  0  0  0  0
 11 12  1  0  0  0  0
 11 29  1  0  0  0  0
 11 30  1  0  0  0  0
 12 31  1  0  0  0  0
 13 32  1  0  0  0  0
 13 33  1  0  0  0  0
 13 34  1  0  0  0  0
 15 16  1  0  0  0  0
 16 17  2  0  0  0  0
 16 18  1  0  0  0  0
 17 19  1  0  0  0  0
 17 36  1  0  0  0  0
 18 20  2  0  0  0  0
 18 37  1  0  0  0  0
 19 21  2  0  0  0  0
 19 38  1  0  0  0  0
 20 21  1  0  0  0  0
 20 39  1  0  0  0  0
 21 40  1  0  0  0  0
M  END
> <PUBCHEM_COMPOUND_CID>
442997

> <PUBCHEM_COMPOUND_CANONICALIZED>
1

> <PUBCHEM_CACTVS_COMPLEXITY>
419

> <PUBCHEM_CACTVS_HBOND_ACCEPTOR>
5

> <PUBCHEM_CACTVS_HBOND_DONOR>
1

> <PUBCHEM_CACTVS_ROTATABLE_BOND>
4

> <PUBCHEM_CACTVS_SUBSKEYS>
AAADceB6OAAAAAAAAAAAAAAAAAAAAWAAAAA8QAAABgAAAAABAAAAHgAACAAADTzhmAYyCIMABgCIAiDSCAACAAAkAAAIiAEICMgIJj6AtRiGcQAn4AGIqYeY2eOeAAAAAAAAAAAAAAAAAAAAAAAAAAAAAA==

> <PUBCHEM_IUPAC_OPENEYE_NAME>
(3S,4R)-3-benzoyloxy-8-methyl-8-azabicyclo[3.2.1]octane-4-carboxylic acid

> <PUBCHEM_IUPAC_CAS_NAME>
(3S,4R)-3-benzoyloxy-8-methyl-8-azabicyclo[3.2.1]octane-4-carboxylic acid

> <PUBCHEM_IUPAC_NAME>
(3S,4R)-3-benzoyloxy-8-methyl-8-azabicyclo[3.2.1]octane-4-carboxylic acid

> <PUBCHEM_IUPAC_SYSTEMATIC_NAME>
(3S,4R)-8-methyl-3-(phenylcarbonyloxy)-8-azabicyclo[3.2.1]octane-4-carboxylic acid

> <PUBCHEM_IUPAC_TRADITIONAL_NAME>
(3S,4R)-3-benzoyloxy-8-methyl-8-azabicyclo[3.2.1]octane-4-carboxylic acid

> <PUBCHEM_IUPAC_INCHI>
InChI=1S/C16H19NO4/c1-17-11-7-8-12(17)14(15(18)19)13(9-11)21-16(20)10-5-3-2-4-6-10/h2-6,11-14H,7-9H2,1H3,(H,18,19)/t11?,12?,13-,14+/m0/s1

> <PUBCHEM_IUPAC_INCHIKEY>
GVGYEFKIHJTNQZ-CLRIEMFWSA-N

> <PUBCHEM_XLOGP3>
-0.3

> <PUBCHEM_EXACT_MASS>
289.131408

> <PUBCHEM_MOLECULAR_FORMULA>
C16H19NO4

> <PUBCHEM_MOLECULAR_WEIGHT>
289.32636

> <PUBCHEM_OPENEYE_CAN_SMILES>
CN1C2CCC1C(C(C2)OC(=O)C3=CC=CC=C3)C(=O)O

> <PUBCHEM_OPENEYE_ISO_SMILES>
CN1C2CCC1[C@H]([C@H](C2)OC(=O)C3=CC=CC=C3)C(=O)O

> <PUBCHEM_CACTVS_TPSA>
66.8

> <PUBCHEM_MONOISOTOPIC_WEIGHT>
289.131408

> <PUBCHEM_TOTAL_CHARGE>
0

> <PUBCHEM_HEAVY_ATOM_COUNT>
21

> <PUBCHEM_ATOM_DEF_STEREO_COUNT>
2

> <PUBCHEM_ATOM_UDEF_STEREO_COUNT>
2

> <PUBCHEM_BOND_DEF_STEREO_COUNT>
0

> <PUBCHEM_BOND_UDEF_STEREO_COUNT>
0

> <PUBCHEM_ISOTOPIC_ATOM_COUNT>
0

> <PUBCHEM_COMPONENT_COUNT>
1

> <PUBCHEM_CACTVS_TAUTO_COUNT>
1

> <PUBCHEM_COORDINATE_TYPE>
1
5
255

> <PUBCHEM_BONDANNOTATIONS>
12  1  5
16  17  8
16  18  8
17  19  8
18  20  8
19  21  8
20  21  8
6  22  3
7  23  3
8  14  5

$$$$

