9548773
  -OEChem-07051213152D

 53 57  0     1  0  0  0  0  0999 V2000
    3.3413    4.5383    0.0000 O   0  0  0  0  0  0  0  0  0  0  0  0
    5.5930   -4.0367    0.0000 O   0  0  0  0  0  0  0  0  0  0  0  0
    0.7727    2.7969    0.0000 N   0  0  0  0  0  0  0  0  0  0  0  0
    4.2738    0.3125    0.0000 C   0  0  2  0  0  0  0  0  0  0  0  0
    4.3987    1.3466    0.0000 C   0  0  2  0  0  0  0  0  0  0  0  0
    5.1118   -0.3063    0.0000 C   0  0  2  0  0  0  0  0  0  0  0  0
    5.0067   -1.3862    0.0000 C   0  0  1  0  0  0  0  0  0  0  0  0
    4.0155   -1.8274    0.0000 C   0  0  2  0  0  0  0  0  0  0  0  0
    5.3122    1.7533    0.0000 C   0  0  2  0  0  0  0  0  0  0  0  0
    3.2727   -0.1058    0.0000 C   0  0  0  0  0  0  0  0  0  0  0  0
    6.0634    0.1174    0.0000 C   0  0  0  0  0  0  0  0  0  0  0  0
    2.8635    2.5898    0.0000 C   0  0  2  0  0  0  0  0  0  0  0  0
    3.1427   -1.1830    0.0000 C   0  0  0  0  0  0  0  0  0  0  0  0
    6.1642    1.1542    0.0000 C   0  0  0  0  0  0  0  0  0  0  0  0
    5.7263   -2.1896    0.0000 C   0  0  0  0  0  0  0  0  0  0  0  0
    4.1310   -2.8998    0.0000 C   0  0  0  0  0  0  0  0  0  0  0  0
    5.2077    2.7479    0.0000 C   0  0  0  0  0  0  0  0  0  0  0  0
    5.1862   -3.1232    0.0000 C   0  0  1  0  0  0  0  0  0  0  0  0
    3.4851    0.9399    0.0000 C   0  0  0  0  0  0  0  0  0  0  0  0
    2.6047    3.5557    0.0000 C   0  0  2  0  0  0  0  0  0  0  0  0
    1.0316    1.8309    0.0000 C   0  0  0  0  0  0  0  0  0  0  0  0
    3.1020   -2.2342    0.0000 C   0  0  0  0  0  0  0  0  0  0  0  0
    3.5959    0.8253    0.0000 H   0  0  0  0  0  0  0  0  0  0  0  0
    5.8014   -0.8032    0.0000 H   0  0  0  0  0  0  0  0  0  0  0  0
    5.8144   -1.1214    0.0000 H   0  0  0  0  0  0  0  0  0  0  0  0
    6.0887    2.0991    0.0000 H   0  0  0  0  0  0  0  0  0  0  0  0
    2.6535   -0.1379    0.0000 H   0  0  0  0  0  0  0  0  0  0  0  0
    3.1351    0.4988    0.0000 H   0  0  0  0  0  0  0  0  0  0  0  0
    6.6816    0.1638    0.0000 H   0  0  0  0  0  0  0  0  0  0  0  0
    6.2149   -0.4838    0.0000 H   0  0  0  0  0  0  0  0  0  0  0  0
    3.0835    1.7687    0.0000 H   0  0  0  0  0  0  0  0  0  0  0  0
    2.8652   -1.7374    0.0000 H   0  0  0  0  0  0  0  0  0  0  0  0
    2.5489   -1.0044    0.0000 H   0  0  0  0  0  0  0  0  0  0  0  0
    6.4289    1.7148    0.0000 H   0  0  0  0  0  0  0  0  0  0  0  0
    6.7620    0.9894    0.0000 H   0  0  0  0  0  0  0  0  0  0  0  0
    6.1421   -1.7296    0.0000 H   0  0  0  0  0  0  0  0  0  0  0  0
    6.2274   -2.5547    0.0000 H   0  0  0  0  0  0  0  0  0  0  0  0
    4.0671   -3.5165    0.0000 H   0  0  0  0  0  0  0  0  0  0  0  0
    3.5110   -2.9011    0.0000 H   0  0  0  0  0  0  0  0  0  0  0  0
    5.3100    3.3594    0.0000 H   0  0  0  0  0  0  0  0  0  0  0  0
    5.8274    2.7290    0.0000 H   0  0  0  0  0  0  0  0  0  0  0  0
    5.8054   -3.1559    0.0000 H   0  0  0  0  0  0  0  0  0  0  0  0
    3.7373    0.3735    0.0000 H   0  0  0  0  0  0  0  0  0  0  0  0
    2.9187    0.6877    0.0000 H   0  0  0  0  0  0  0  0  0  0  0  0
    3.2330    1.5063    0.0000 H   0  0  0  0  0  0  0  0  0  0  0  0
    2.3847    4.3767    0.0000 H   0  0  0  0  0  0  0  0  0  0  0  0
    1.2436    1.2483    0.0000 H   0  0  0  0  0  0  0  0  0  0  0  0
    0.4403    1.6445    0.0000 H   0  0  0  0  0  0  0  0  0  0  0  0
    3.3541   -2.8006    0.0000 H   0  0  0  0  0  0  0  0  0  0  0  0
    2.5356   -2.4864    0.0000 H   0  0  0  0  0  0  0  0  0  0  0  0
    2.8498   -1.6678    0.0000 H   0  0  0  0  0  0  0  0  0  0  0  0
    0.2358    3.1069    0.0000 H   0  0  0  0  0  0  0  0  0  0  0  0
    5.2285   -4.5383    0.0000 H   0  0  0  0  0  0  0  0  0  0  0  0
  1 12  1  0  0  0  0
  1 20  1  0  0  0  0
 18  2  1  6  0  0  0
  2 53  1  0  0  0  0
  3 20  1  0  0  0  0
  3 21  1  0  0  0  0
  3 52  1  0  0  0  0
  4  5  1  0  0  0  0
  4  6  1  0  0  0  0
  4 10  1  0  0  0  0
  4 23  1  1  0  0  0
  5  9  1  0  0  0  0
  5 12  1  0  0  0  0
  5 19  1  6  0  0  0
  6  7  1  0  0  0  0
  6 11  1  0  0  0  0
  6 24  1  6  0  0  0
  7  8  1  0  0  0  0
  7 15  1  0  0  0  0
  7 25  1  1  0  0  0
  8 13  1  0  0  0  0
  8 16  1  0  0  0  0
  8 22  1  6  0  0  0
  9 14  1  0  0  0  0
  9 17  1  0  0  0  0
  9 26  1  6  0  0  0
 10 13  1  0  0  0  0
 10 27  1  0  0  0  0
 10 28  1  0  0  0  0
 11 14  1  0  0  0  0
 11 29  1  0  0  0  0
 11 30  1  0  0  0  0
 12 21  1  0  0  0  0
 12 31  1  1  0  0  0
 13 32  1  0  0  0  0
 13 33  1  0  0  0  0
 14 34  1  0  0  0  0
 14 35  1  0  0  0  0
 15 18  1  0  0  0  0
 15 36  1  0  0  0  0
 15 37  1  0  0  0  0
 16 18  1  0  0  0  0
 16 38  1  0  0  0  0
 16 39  1  0  0  0  0
 17 20  1  0  0  0  0
 17 40  1  0  0  0  0
 17 41  1  0  0  0  0
 18 42  1  0  0  0  0
 19 43  1  0  0  0  0
 19 44  1  0  0  0  0
 19 45  1  0  0  0  0
 20 46  1  6  0  0  0
 21 47  1  0  0  0  0
 21 48  1  0  0  0  0
 22 49  1  0  0  0  0
 22 50  1  0  0  0  0
 22 51  1  0  0  0  0
M  END
> <PUBCHEM_COMPOUND_CID>
9548773

> <PUBCHEM_COMPOUND_CANONICALIZED>
1

> <PUBCHEM_CACTVS_COMPLEXITY>
482

> <PUBCHEM_CACTVS_HBOND_ACCEPTOR>
3

> <PUBCHEM_CACTVS_HBOND_DONOR>
2

> <PUBCHEM_CACTVS_ROTATABLE_BOND>
0

> <PUBCHEM_CACTVS_SUBSKEYS>
AAADceB6MAAAAAAAAAAAAAAAAAAAAeIAAAA0YIAABYAAAGDQAAAAHgAQCAAADxThgAYCAALABgAAAAAAAAAAAAAAAAAAAIAIAAECEAIAgAAPQAAEEACQAAGQ0PIPgAAAAAAAAACAAAQAACAAAIAACAAAAA==

> <PUBCHEM_IUPAC_INCHI>
InChI=1S/C19H31NO2/c1-18-6-5-14-13(15(18)8-12(21)9-18)4-3-11-7-17-20-10-16(22-17)19(11,14)2/h11-17,20-21H,3-10H2,1-2H3/t11-,12+,13-,14+,15+,16+,17+,18-,19+/m1/s1

> <PUBCHEM_IUPAC_INCHIKEY>
HJCSQOSWSRPBOU-XTXNWKRWSA-N

> <PUBCHEM_XLOGP3_AA>
3.7

> <PUBCHEM_EXACT_MASS>
305.235479

> <PUBCHEM_MOLECULAR_FORMULA>
C19H31NO2

> <PUBCHEM_MOLECULAR_WEIGHT>
305.45494

> <PUBCHEM_OPENEYE_CAN_SMILES>
CC12CCC3C(C1CC(C2)O)CCC4C3(C5CNC(C4)O5)C

> <PUBCHEM_OPENEYE_ISO_SMILES>
C[C@]12CC[C@H]3[C@H]([C@@H]1C[C@@H](C2)O)CC[C@H]4[C@@]3([C@@H]5CN[C@H](C4)O5)C

> <PUBCHEM_CACTVS_TPSA>
41.5

> <PUBCHEM_MONOISOTOPIC_WEIGHT>
305.235479

> <PUBCHEM_TOTAL_CHARGE>
0

> <PUBCHEM_HEAVY_ATOM_COUNT>
22

> <PUBCHEM_ATOM_DEF_STEREO_COUNT>
9

> <PUBCHEM_ATOM_UDEF_STEREO_COUNT>
0

> <PUBCHEM_BOND_DEF_STEREO_COUNT>
0

> <PUBCHEM_BOND_UDEF_STEREO_COUNT>
0

> <PUBCHEM_ISOTOPIC_ATOM_COUNT>
0

> <PUBCHEM_COMPONENT_COUNT>
1

> <PUBCHEM_CACTVS_TAUTO_COUNT>
1

> <PUBCHEM_COORDINATE_TYPE>
1
5
255

> <PUBCHEM_BONDANNOTATIONS>
12  31  5
18  2  6
20  46  6
4  23  5
5  19  6
6  24  6
7  25  5
8  22  6
9  26  6

$$$$

