   Color/Form

     * Needles from 90% methanol
     * COLORLESS OR WHITE CRYSTALS, OR WHITE, CRYSTALLINE POWDER

   from [1]HSDB

   Odor
        ODORLESS
   from [2]HSDB

   Melting Point
        131 deg C
   from [3]HSDB

   Octanol/Water Partition Coefficient
        log Kow = 10 (est)
   from [4]HSDB

   Solubilities

     * Easily sol in organic solents
     * SOL IN ALC; FREELY SOL IN ETHER & CHLOROFORM; SPARINGLY SOL IN
       VEGETABLE OILS
     * In water, 3.2X10-6 mg/L at 25 deg C (est)

   from [5]HSDB

   Spectral Properties

     * Specific Optical Rotation: +97.5 deg at 22 deg C/D (chloroform)
     * SPECIFIC OPTICAL ROTATION: +100 DEG TO +103 DEG (ALC)
     * UV max = 242, 251, 261 nm (E 1%/1cm 870, 1010, 650)

   from [6]HSDB

   Vapor Pressure
        5.2X10-10 mm Hg at 25 deg C (est)
   from [7]HSDB

   Other Chemical/Physical Properties

     * Henry's Law constant = 3.7X10-4 atm-cu m/mol at 25 deg C (est)
     * Hydroxyl radical reaction rate constant = 3.5X10-10 cu
       cm/molecule-sec at 25 deg C (est)

   from [8]HSDB

   Computed Properties
   Molecular Weight                  398.66424 [g/mol]
   Molecular Formula                 C[28]H[46]O
   XLogP3-AA                         7.7
   H-Bond Donor                      1
   H-Bond Acceptor                   1
   Rotatable Bond Count              5
   Exact Mass                        398.354866
   MonoIsotopic Mass                 398.354866
   Topological Polar Surface Area    20.2
   Heavy Atom Count                  29
   Formal Charge                     0
   Complexity                        639
   Isotope Atom Count                0
   Defined Atom Stereocenter Count   5
   Undefined Atom Stereocenter Count 2
   Defined Bond Stereocenter Count   3
   Undefined Bond Stereocenter Count 0
   Covalently-Bonded Unit Count      1
   Feature 3D Acceptor Count         1
   Feature 3D Donor Count            1
   Feature 3D Hydrophobe Count       3
   Feature 3D Ring Count             3
   Effective Rotor Count             7.2
   Conformer Sampling RMSD           0.8
   CID Conformer Count               [9]240

References

   1. http://toxnet.nlm.nih.gov/cgi-bin/sis/search/r?dbs+hsdb:@term+@rn+@rel+67-96-9
   2. http://toxnet.nlm.nih.gov/cgi-bin/sis/search/r?dbs+hsdb:@term+@rn+@rel+67-96-9
   3. http://toxnet.nlm.nih.gov/cgi-bin/sis/search/r?dbs+hsdb:@term+@rn+@rel+67-96-9
   4. http://toxnet.nlm.nih.gov/cgi-bin/sis/search/r?dbs+hsdb:@term+@rn+@rel+67-96-9
   5. http://toxnet.nlm.nih.gov/cgi-bin/sis/search/r?dbs+hsdb:@term+@rn+@rel+67-96-9
   6. http://toxnet.nlm.nih.gov/cgi-bin/sis/search/r?dbs+hsdb:@term+@rn+@rel+67-96-9
   7. http://toxnet.nlm.nih.gov/cgi-bin/sis/search/r?dbs+hsdb:@term+@rn+@rel+67-96-9
   8. http://toxnet.nlm.nih.gov/cgi-bin/sis/search/r?dbs+hsdb:@term+@rn+@rel+67-96-9
   9. http://pubchem.ncbi.nlm.nih.gov/vw3d/vw3d.cgi?cid=46173763
