41510
  -OEChem-07051213112D

 21 23  0     0  0  0  0  0  0999 V2000
    6.3697   -1.9350    0.0000 Cl  0  0  0  0  0  0  0  0  0  0  0  0
    4.6397   -1.9350    0.0000 Cl  0  0  0  0  0  0  0  0  0  0  0  0
    7.6271    1.9350    0.0000 Cl  0  0  0  0  0  0  0  0  0  0  0  0
    8.3764   -1.5246    0.0000 Cl  0  0  0  0  0  0  0  0  0  0  0  0
    9.0094    0.4234    0.0000 Cl  0  0  0  0  0  0  0  0  0  0  0  0
    2.6330   -1.5246    0.0000 Cl  0  0  0  0  0  0  0  0  0  0  0  0
    2.0000    0.4234    0.0000 Cl  0  0  0  0  0  0  0  0  0  0  0  0
    5.5047    1.3360    0.0000 O   0  0  0  0  0  0  0  0  0  0  0  0
    6.0047   -0.2029    0.0000 C   0  0  0  0  0  0  0  0  0  0  0  0
    5.0047   -0.2029    0.0000 C   0  0  0  0  0  0  0  0  0  0  0  0
    6.3137    0.7482    0.0000 C   0  0  0  0  0  0  0  0  0  0  0  0
    4.6957    0.7482    0.0000 C   0  0  0  0  0  0  0  0  0  0  0  0
    6.6897   -0.9876    0.0000 C   0  0  0  0  0  0  0  0  0  0  0  0
    4.3197   -0.9876    0.0000 C   0  0  0  0  0  0  0  0  0  0  0  0
    7.3291    0.9804    0.0000 C   0  0  0  0  0  0  0  0  0  0  0  0
    3.6803    0.9804    0.0000 C   0  0  0  0  0  0  0  0  0  0  0  0
    7.7102   -0.7789    0.0000 C   0  0  0  0  0  0  0  0  0  0  0  0
    8.0321    0.2118    0.0000 C   0  0  0  0  0  0  0  0  0  0  0  0
    3.2992   -0.7789    0.0000 C   0  0  0  0  0  0  0  0  0  0  0  0
    2.9773    0.2118    0.0000 C   0  0  0  0  0  0  0  0  0  0  0  0
    3.4955    1.5723    0.0000 H   0  0  0  0  0  0  0  0  0  0  0  0
  1 13  1  0  0  0  0
  2 14  1  0  0  0  0
  3 15  1  0  0  0  0
  4 17  1  0  0  0  0
  5 18  1  0  0  0  0
  6 19  1  0  0  0  0
  7 20  1  0  0  0  0
  8 11  1  0  0  0  0
  8 12  1  0  0  0  0
  9 10  1  0  0  0  0
  9 11  2  0  0  0  0
  9 13  1  0  0  0  0
 10 12  1  0  0  0  0
 10 14  2  0  0  0  0
 11 15  1  0  0  0  0
 12 16  2  0  0  0  0
 13 17  2  0  0  0  0
 14 19  1  0  0  0  0
 15 18  2  0  0  0  0
 16 20  1  0  0  0  0
 16 21  1  0  0  0  0
 17 18  1  0  0  0  0
 19 20  2  0  0  0  0
M  END
> <PUBCHEM_COMPOUND_CID>
41510

> <PUBCHEM_COMPOUND_CANONICALIZED>
1

> <PUBCHEM_CACTVS_COMPLEXITY>
383

> <PUBCHEM_CACTVS_HBOND_ACCEPTOR>
1

> <PUBCHEM_CACTVS_HBOND_DONOR>
0

> <PUBCHEM_CACTVS_ROTATABLE_BOND>
0

> <PUBCHEM_CACTVS_SUBSKEYS>
AAADcQBwIAAHAAAAAAAAAAAAAAAAASAAAAAwYAAAAAAAAEgB/AAAGgIAAAAADAaAmCAwBsAABECIAqBSAAACCAAkJUAAikEGC8hMJjOFNhqCOSCkwBEIrQeIyOCOhCAQIQCJCAQIQCBCARIQCAAAAAAAAA==

> <PUBCHEM_IUPAC_OPENEYE_NAME>
1,2,3,4,7,8,9-heptachlorodibenzofuran

> <PUBCHEM_IUPAC_CAS_NAME>
1,2,3,4,7,8,9-heptachlorodibenzofuran

> <PUBCHEM_IUPAC_NAME>
1,2,3,4,7,8,9-heptachlorodibenzofuran

> <PUBCHEM_IUPAC_SYSTEMATIC_NAME>
1,2,3,4,7,8,9-heptakis(chloranyl)dibenzofuran

> <PUBCHEM_IUPAC_TRADITIONAL_NAME>
1,2,3,4,7,8,9-heptachlorodibenzofuran

> <PUBCHEM_IUPAC_INCHI>
InChI=1S/C12HCl7O/c13-2-1-3-4(7(15)6(2)14)5-8(16)9(17)10(18)11(19)12(5)20-3/h1H

> <PUBCHEM_IUPAC_INCHIKEY>
VEZCTZWLJYWARH-UHFFFAOYSA-N

> <PUBCHEM_XLOGP3>
7.5

> <PUBCHEM_EXACT_MASS>
407.781758

> <PUBCHEM_MOLECULAR_FORMULA>
C12HCl7O

> <PUBCHEM_MOLECULAR_WEIGHT>
409.30674

> <PUBCHEM_OPENEYE_CAN_SMILES>
C1=C2C(=C(C(=C1Cl)Cl)Cl)C3=C(O2)C(=C(C(=C3Cl)Cl)Cl)Cl

> <PUBCHEM_OPENEYE_ISO_SMILES>
C1=C2C(=C(C(=C1Cl)Cl)Cl)C3=C(O2)C(=C(C(=C3Cl)Cl)Cl)Cl

> <PUBCHEM_CACTVS_TPSA>
13.1

> <PUBCHEM_MONOISOTOPIC_WEIGHT>
405.784708

> <PUBCHEM_TOTAL_CHARGE>
0

> <PUBCHEM_HEAVY_ATOM_COUNT>
20

> <PUBCHEM_ATOM_DEF_STEREO_COUNT>
0

> <PUBCHEM_ATOM_UDEF_STEREO_COUNT>
0

> <PUBCHEM_BOND_DEF_STEREO_COUNT>
0

> <PUBCHEM_BOND_UDEF_STEREO_COUNT>
0

> <PUBCHEM_ISOTOPIC_ATOM_COUNT>
0

> <PUBCHEM_COMPONENT_COUNT>
1

> <PUBCHEM_CACTVS_TAUTO_COUNT>
1

> <PUBCHEM_COORDINATE_TYPE>
1
5
255

> <PUBCHEM_BONDANNOTATIONS>
10  12  8
10  14  8
11  15  8
12  16  8
13  17  8
14  19  8
15  18  8
16  20  8
17  18  8
19  20  8
8  11  8
8  12  8
9  10  8
9  11  8
9  13  8

$$$$

