   Color/Form
        Colorless liquid
   from [1]HSDB

   Odor
        Strong unpleasant odor
   from [2]HSDB

   Boiling Point
        128-129 deg C
   from [3]HSDB

   Melting Point
        -70 deg C
   from [4]HSDB

   Density/Specific Gravity
        0.9443 @ 20 deg C/4 deg C
   from [5]HSDB

   Dissociation Constants
        pKa = 6.00
   from [6]HSDB

   Octanol/Water Partition Coefficient
        log Kow= 1.11
   from [7]HSDB

   pH
        /SRP/: Weak base
   from [8]HSDB

   Solubilities

     * Miscible in water
     * Very sol in acetone
     * Miscible with alcohol, ether.

   from [9]HSDB

   Spectral Properties

     * Index of refraction: 1.4957 @ 20 deg C/D
     * Intense mass spectral peaks: 93 m/z (100%), 66 m/z (41%), 92 m/z
       (19%), 51 m/z (19%)
     * IR: 7 (Sadtler Research Laboratories IR Grating Collection)
     * UV: 6 (Sadtler Research Laboratories Spectral Collection)
     * NMR: 566 (Sadtler Research Laboratories Spectral Collection)
     * MASS: 193 (Atlas of Mass Spectral Data, John Wiley & Sons, New
       York)

   from [10]HSDB

   Vapor Density
        3.2 (Air= 1)
   from [11]HSDB

   Vapor Pressure
        11.2 mm Hg @ 25 deg C
   from [12]HSDB

   Other Chemical/Physical Properties

     * /SRP/: Forms salts with acids.
     * Freezing point= -66.7 deg C
     * Henry's Law constant = 9.96X10-6 atm-cu m/mol @ 25 deg C

   from [13]HSDB

   Computed Properties
   Molecular Weight                  93.12648 [g/mol]
   Molecular Formula                 C[6]H[7]N
   XLogP3                            1.1
   H-Bond Donor                      0
   H-Bond Acceptor                   1
   Rotatable Bond Count              0
   Exact Mass                        93.057849
   MonoIsotopic Mass                 93.057849
   Topological Polar Surface Area    12.9
   Heavy Atom Count                  7
   Formal Charge                     0
   Complexity                        52.1
   Isotope Atom Count                0
   Defined Atom Stereocenter Count   0
   Undefined Atom Stereocenter Count 0
   Defined Bond Stereocenter Count   0
   Undefined Bond Stereocenter Count 0
   Covalently-Bonded Unit Count      1
   Feature 3D Acceptor Count         1
   Feature 3D Ring Count             1
   Effective Rotor Count             0
   Conformer Sampling RMSD           0.4
   CID Conformer Count               [14]1

References

   1. http://toxnet.nlm.nih.gov/cgi-bin/sis/search/r?dbs+hsdb:@term+@rn+@rel+109-06-8
   2. http://toxnet.nlm.nih.gov/cgi-bin/sis/search/r?dbs+hsdb:@term+@rn+@rel+109-06-8
   3. http://toxnet.nlm.nih.gov/cgi-bin/sis/search/r?dbs+hsdb:@term+@rn+@rel+109-06-8
   4. http://toxnet.nlm.nih.gov/cgi-bin/sis/search/r?dbs+hsdb:@term+@rn+@rel+109-06-8
   5. http://toxnet.nlm.nih.gov/cgi-bin/sis/search/r?dbs+hsdb:@term+@rn+@rel+109-06-8
   6. http://toxnet.nlm.nih.gov/cgi-bin/sis/search/r?dbs+hsdb:@term+@rn+@rel+109-06-8
   7. http://toxnet.nlm.nih.gov/cgi-bin/sis/search/r?dbs+hsdb:@term+@rn+@rel+109-06-8
   8. http://toxnet.nlm.nih.gov/cgi-bin/sis/search/r?dbs+hsdb:@term+@rn+@rel+109-06-8
   9. http://toxnet.nlm.nih.gov/cgi-bin/sis/search/r?dbs+hsdb:@term+@rn+@rel+109-06-8
  10. http://toxnet.nlm.nih.gov/cgi-bin/sis/search/r?dbs+hsdb:@term+@rn+@rel+109-06-8
  11. http://toxnet.nlm.nih.gov/cgi-bin/sis/search/r?dbs+hsdb:@term+@rn+@rel+109-06-8
  12. http://toxnet.nlm.nih.gov/cgi-bin/sis/search/r?dbs+hsdb:@term+@rn+@rel+109-06-8
  13. http://toxnet.nlm.nih.gov/cgi-bin/sis/search/r?dbs+hsdb:@term+@rn+@rel+109-06-8
  14. http://pubchem.ncbi.nlm.nih.gov/vw3d/vw3d.cgi?cid=7975
