   Color/Form

     * Amber liquid
     * Light yellow oil

   from [1]HSDB

   Odor
        Faint, sweet odor
   from [2]HSDB

   Boiling Point
        156 deg C at 0.5 mm Hg
   from [3]HSDB

   Melting Point
        <-5 deg C
   from [4]HSDB

   Corrosivity
        No corrosion to No. 316 and No. 304 stainless steel, aluminum, and
   heresite, but corrodes steel and black iron
   from [5]HSDB

   Density/Specific Gravity
        1.070 g/mL at 25 deg C
   from [6]HSDB

   Octanol/Water Partition Coefficient
        log Kow = 4.5
   from [7]HSDB

   Solubilities

     * Soluble in most organic solvents, including diethyl ether, acetone,
       benzene, ethanol, ethyl acetate, and hexane
     * In water, 20 mg/l at 20 deg C

   from [8]HSDB

   Vapor Pressure
        2.90X10-6 mm Hg at 25 deg C
   from [9]HSDB

   Viscosity
        37 cP at 25 deg C
   from [10]HSDB

   Other Chemical/Physical Properties

     * Stable to UV light. Decomposes at temperatures greater than or
       equal to 165 deg C
     * Henry's Law constant = 5.1X10-8 atm-cu m/mol at 25 deg C
     * Hydroxyl radical reaction rate constant = 5.7X10-11 cu cm/molecule
       sec @ 25 deg C /Estimated/

   from [11]HSDB

   Computed Properties
   Molecular Weight                  311.84684 [g/mol]
   Molecular Formula                 C[17]H[26]ClNO[2]
   XLogP3                            4.5
   H-Bond Donor                      0
   H-Bond Acceptor                   2
   Rotatable Bond Count              9
   Exact Mass                        311.165207
   MonoIsotopic Mass                 311.165207
   Topological Polar Surface Area    29.5
   Heavy Atom Count                  21
   Formal Charge                     0
   Complexity                        287
   Isotope Atom Count                0
   Defined Atom Stereocenter Count   0
   Undefined Atom Stereocenter Count 0
   Defined Bond Stereocenter Count   0
   Undefined Bond Stereocenter Count 0
   Covalently-Bonded Unit Count      1
   Feature 3D Acceptor Count         2
   Feature 3D Hydrophobe Count       3
   Feature 3D Ring Count             1
   Effective Rotor Count             10
   Conformer Sampling RMSD           1
   CID Conformer Count               [12]24

References

   1. http://toxnet.nlm.nih.gov/cgi-bin/sis/search/r?dbs+hsdb:@term+@rn+@rel+23184-66-9
   2. http://toxnet.nlm.nih.gov/cgi-bin/sis/search/r?dbs+hsdb:@term+@rn+@rel+23184-66-9
   3. http://toxnet.nlm.nih.gov/cgi-bin/sis/search/r?dbs+hsdb:@term+@rn+@rel+23184-66-9
   4. http://toxnet.nlm.nih.gov/cgi-bin/sis/search/r?dbs+hsdb:@term+@rn+@rel+23184-66-9
   5. http://toxnet.nlm.nih.gov/cgi-bin/sis/search/r?dbs+hsdb:@term+@rn+@rel+23184-66-9
   6. http://toxnet.nlm.nih.gov/cgi-bin/sis/search/r?dbs+hsdb:@term+@rn+@rel+23184-66-9
   7. http://toxnet.nlm.nih.gov/cgi-bin/sis/search/r?dbs+hsdb:@term+@rn+@rel+23184-66-9
   8. http://toxnet.nlm.nih.gov/cgi-bin/sis/search/r?dbs+hsdb:@term+@rn+@rel+23184-66-9
   9. http://toxnet.nlm.nih.gov/cgi-bin/sis/search/r?dbs+hsdb:@term+@rn+@rel+23184-66-9
  10. http://toxnet.nlm.nih.gov/cgi-bin/sis/search/r?dbs+hsdb:@term+@rn+@rel+23184-66-9
  11. http://toxnet.nlm.nih.gov/cgi-bin/sis/search/r?dbs+hsdb:@term+@rn+@rel+23184-66-9
  12. http://pubchem.ncbi.nlm.nih.gov/vw3d/vw3d.cgi?cid=31677
