440754
  -OEChem-07051212502D

 47 48  0     1  0  0  0  0  0999 V2000
    6.8909   -2.6495    0.0000 P   0  0  3  0  0  0  0  0  0  0  0  0
    8.4732   -3.3539    0.0000 P   0  0  3  0  0  0  0  0  0  0  0  0
    5.0298   -0.1849    0.0000 O   0  0  0  0  0  0  0  0  0  0  0  0
    3.1330   -1.9450    0.0000 O   0  0  0  0  0  0  0  0  0  0  0  0
    2.4608    0.1241    0.0000 O   0  0  0  0  0  0  0  0  0  0  0  0
    6.3031   -1.8404    0.0000 O   0  0  0  0  0  0  0  0  0  0  0  0
    7.4787   -3.4585    0.0000 O   0  0  0  0  0  0  0  0  0  0  0  0
    2.4888    1.4029    0.0000 O   0  0  0  0  0  0  0  0  0  0  0  0
    7.6999   -2.0617    0.0000 O   0  0  0  0  0  0  0  0  0  0  0  0
    6.0819   -3.2372    0.0000 O   0  0  0  0  0  0  0  0  0  0  0  0
    8.5778   -4.3485    0.0000 O   0  0  0  0  0  0  0  0  0  0  0  0
    8.3687   -2.3594    0.0000 O   0  0  0  0  0  0  0  0  0  0  0  0
    4.2208    1.4029    0.0000 N   0  0  0  0  0  0  0  0  0  0  0  0
    3.3548    2.9029    0.0000 N   0  0  0  0  0  0  0  0  0  0  0  0
    4.2208    4.4029    0.0000 N   0  0  0  0  0  0  0  0  0  0  0  0
   11.0501   -3.9539    0.0000 N   0  0  0  0  0  0  0  0  0  0  0  0
    3.7208   -1.1360    0.0000 C   0  0  1  0  0  0  0  0  0  0  0  0
    3.4118   -0.1849    0.0000 C   0  0  2  0  0  0  0  0  0  0  0  0
    4.7208   -1.1360    0.0000 C   0  0  1  0  0  0  0  0  0  0  0  0
    4.2208    0.4029    0.0000 C   0  0  1  0  0  0  0  0  0  0  0  0
    5.3086   -1.9450    0.0000 C   0  0  0  0  0  0  0  0  0  0  0  0
    5.0868    1.9029    0.0000 C   0  0  0  0  0  0  0  0  0  0  0  0
    3.3548    1.9029    0.0000 C   0  0  0  0  0  0  0  0  0  0  0  0
    5.0868    2.9029    0.0000 C   0  0  0  0  0  0  0  0  0  0  0  0
    4.2208    3.4029    0.0000 C   0  0  0  0  0  0  0  0  0  0  0  0
    9.4677   -3.2494    0.0000 C   0  0  0  0  0  0  0  0  0  0  0  0
   10.0555   -4.0584    0.0000 C   0  0  0  0  0  0  0  0  0  0  0  0
    3.1085   -1.0390    0.0000 H   0  0  0  0  0  0  0  0  0  0  0  0
    2.9734   -0.6233    0.0000 H   0  0  0  0  0  0  0  0  0  0  0  0
    5.3332   -1.0390    0.0000 H   0  0  0  0  0  0  0  0  0  0  0  0
    3.6684    0.6844    0.0000 H   0  0  0  0  0  0  0  0  0  0  0  0
    4.7514   -2.2168    0.0000 H   0  0  0  0  0  0  0  0  0  0  0  0
    5.4795   -2.5410    0.0000 H   0  0  0  0  0  0  0  0  0  0  0  0
    3.3852   -2.5114    0.0000 H   0  0  0  0  0  0  0  0  0  0  0  0
    2.0000   -0.2907    0.0000 H   0  0  0  0  0  0  0  0  0  0  0  0
    5.6238    1.5929    0.0000 H   0  0  0  0  0  0  0  0  0  0  0  0
    5.6238    3.2129    0.0000 H   0  0  0  0  0  0  0  0  0  0  0  0
   10.0250   -2.9776    0.0000 H   0  0  0  0  0  0  0  0  0  0  0  0
    9.2968   -2.6534    0.0000 H   0  0  0  0  0  0  0  0  0  0  0  0
    7.6351   -1.4451    0.0000 H   0  0  0  0  0  0  0  0  0  0  0  0
    9.4983   -4.3302    0.0000 H   0  0  0  0  0  0  0  0  0  0  0  0
   10.2264   -4.6544    0.0000 H   0  0  0  0  0  0  0  0  0  0  0  0
    4.7578    4.7129    0.0000 H   0  0  0  0  0  0  0  0  0  0  0  0
    3.6839    4.7129    0.0000 H   0  0  0  0  0  0  0  0  0  0  0  0
    8.0762   -4.7129    0.0000 H   0  0  0  0  0  0  0  0  0  0  0  0
   11.4145   -4.4555    0.0000 H   0  0  0  0  0  0  0  0  0  0  0  0
   11.3022   -3.3875    0.0000 H   0  0  0  0  0  0  0  0  0  0  0  0
  1  6  1  0  0  0  0
  1  7  1  0  0  0  0
  1  9  1  0  0  0  0
  1 10  2  0  0  0  0
  2  7  1  0  0  0  0
  2 11  1  0  0  0  0
  2 12  2  0  0  0  0
  2 26  1  0  0  0  0
  3 19  1  0  0  0  0
  3 20  1  0  0  0  0
 17  4  1  1  0  0  0
  4 34  1  0  0  0  0
 18  5  1  1  0  0  0
  5 35  1  0  0  0  0
  6 21  1  0  0  0  0
  8 23  2  0  0  0  0
  9 40  1  0  0  0  0
 11 45  1  0  0  0  0
 20 13  1  6  0  0  0
 13 22  1  0  0  0  0
 13 23  1  0  0  0  0
 14 23  1  0  0  0  0
 14 25  2  0  0  0  0
 15 25  1  0  0  0  0
 15 43  1  0  0  0  0
 15 44  1  0  0  0  0
 16 27  1  0  0  0  0
 16 46  1  0  0  0  0
 16 47  1  0  0  0  0
 17 18  1  0  0  0  0
 17 19  1  0  0  0  0
 17 28  1  0  0  0  0
 18 20  1  0  0  0  0
 18 29  1  0  0  0  0
 19 21  1  6  0  0  0
 19 30  1  0  0  0  0
 20 31  1  0  0  0  0
 21 32  1  0  0  0  0
 21 33  1  0  0  0  0
 22 24  2  0  0  0  0
 22 36  1  0  0  0  0
 24 25  1  0  0  0  0
 24 37  1  0  0  0  0
 26 27  1  0  0  0  0
 26 38  1  0  0  0  0
 26 39  1  0  0  0  0
 27 41  1  0  0  0  0
 27 42  1  0  0  0  0
M  END
> <PUBCHEM_COMPOUND_CID>
440754

> <PUBCHEM_COMPOUND_CANONICALIZED>
1

> <PUBCHEM_CACTVS_COMPLEXITY>
730

> <PUBCHEM_CACTVS_HBOND_ACCEPTOR>
11

> <PUBCHEM_CACTVS_HBOND_DONOR>
6

> <PUBCHEM_CACTVS_ROTATABLE_BOND>
8

> <PUBCHEM_CACTVS_SUBSKEYS>
AAADceBzvAMAAAAAAAAAAAAAAAAAASAAAAAgAAAAAAAAAAAAAAAAHggQCCAACBTpgAYBAANABxCoQCJmdICAAAEAAgAIAIAYABCDEAIAgAAOQAAHFgITAADwMAIAAAAAAAAAAAAAAAAAAAAAAAAAAAAAAA==

> <PUBCHEM_IUPAC_OPENEYE_NAME>
2-aminoethyl-[[(2R,3S,4R,5R)-5-(4-amino-2-oxo-pyrimidin-1-yl)-3,4-dihydroxy-tetrahydrofuran-2-yl]methoxy-hydroxy-phosphoryl]oxy-phosphinic acid

> <PUBCHEM_IUPAC_CAS_NAME>
2-aminoethyl-[[(2R,3S,4R,5R)-5-(4-amino-2-oxo-1-pyrimidinyl)-3,4-dihydroxy-2-oxolanyl]methoxy-hydroxyphosphoryl]oxyphosphinic acid

> <PUBCHEM_IUPAC_NAME>
2-aminoethyl-[[(2R,3S,4R,5R)-5-(4-amino-2-oxopyrimidin-1-yl)-3,4-dihydroxyoxolan-2-yl]methoxy-hydroxyphosphoryl]oxyphosphinic acid

> <PUBCHEM_IUPAC_SYSTEMATIC_NAME>
2-azanylethyl-[[(2R,3S,4R,5R)-5-(4-azanyl-2-oxidanylidene-pyrimidin-1-yl)-3,4-bis(oxidanyl)oxolan-2-yl]methoxy-oxidanyl-phosphoryl]oxy-phosphinic acid

> <PUBCHEM_IUPAC_TRADITIONAL_NAME>
2-aminoethyl-[[(2R,3S,4R,5R)-5-(4-amino-2-keto-pyrimidin-1-yl)-3,4-dihydroxy-tetrahydrofuran-2-yl]methoxy-hydroxy-phosphoryl]oxy-phosphinic acid

> <PUBCHEM_IUPAC_INCHI>
InChI=1S/C11H20N4O10P2/c12-2-4-26(19,20)25-27(21,22)23-5-6-8(16)9(17)10(24-6)15-3-1-7(13)14-11(15)18/h1,3,6,8-10,16-17H,2,4-5,12H2,(H,19,20)(H,21,22)(H2,13,14,18)/t6-,8-,9-,10-/m1/s1

> <PUBCHEM_IUPAC_INCHIKEY>
FBADRUOBFLBKJQ-PEBGCTIMSA-N

> <PUBCHEM_XLOGP3>
-7.2

> <PUBCHEM_EXACT_MASS>
430.065466

> <PUBCHEM_MOLECULAR_FORMULA>
C11H20N4O10P2

> <PUBCHEM_MOLECULAR_WEIGHT>
430.244824

> <PUBCHEM_OPENEYE_CAN_SMILES>
C1=CN(C(=O)N=C1N)C2C(C(C(O2)COP(=O)(O)OP(=O)(CCN)O)O)O

> <PUBCHEM_OPENEYE_ISO_SMILES>
C1=CN(C(=O)N=C1N)[C@H]2[C@@H]([C@@H]([C@H](O2)COP(=O)(O)OP(=O)(CCN)O)O)O

> <PUBCHEM_CACTVS_TPSA>
228

> <PUBCHEM_MONOISOTOPIC_WEIGHT>
430.065466

> <PUBCHEM_TOTAL_CHARGE>
0

> <PUBCHEM_HEAVY_ATOM_COUNT>
27

> <PUBCHEM_ATOM_DEF_STEREO_COUNT>
4

> <PUBCHEM_ATOM_UDEF_STEREO_COUNT>
0

> <PUBCHEM_BOND_DEF_STEREO_COUNT>
0

> <PUBCHEM_BOND_UDEF_STEREO_COUNT>
0

> <PUBCHEM_ISOTOPIC_ATOM_COUNT>
0

> <PUBCHEM_COMPONENT_COUNT>
1

> <PUBCHEM_CACTVS_TAUTO_COUNT>
3

> <PUBCHEM_COORDINATE_TYPE>
1
5
255

> <PUBCHEM_BONDANNOTATIONS>
20  13  6
13  22  8
13  23  8
14  23  8
14  25  8
19  21  6
22  24  8
24  25  8
17  4  5
18  5  5

$$$$

