54675760
  -OEChem-07051212472D

 47 49  0     1  0  0  0  0  0999 V2000
    6.7433    2.2074    0.0000 O   0  0  0  0  0  0  0  0  0  0  0  0
    9.3552   -0.1526    0.0000 O   0  0  0  0  0  0  0  0  0  0  0  0
    8.5992    2.9278    0.0000 O   0  0  0  0  0  0  0  0  0  0  0  0
    7.5754   -0.2427    0.0000 N   0  0  0  0  0  0  0  0  0  0  0  0
    5.5443   -2.3385    0.0000 N   0  0  0  0  0  0  0  0  0  0  0  0
    6.8335    0.4277    0.0000 C   0  0  1  0  0  0  0  0  0  0  0  0
    5.8550    0.2215    0.0000 C   0  0  0  0  0  0  0  0  0  0  0  0
    5.5443   -0.7291    0.0000 C   0  0  0  0  0  0  0  0  0  0  0  0
    4.5981   -1.0338    0.0000 C   0  0  0  0  0  0  0  0  0  0  0  0
    7.2418    1.3405    0.0000 C   0  0  0  0  0  0  0  0  0  0  0  0
    4.5981   -2.0338    0.0000 C   0  0  0  0  0  0  0  0  0  0  0  0
    3.7320   -0.5338    0.0000 C   0  0  0  0  0  0  0  0  0  0  0  0
    6.1279   -1.5338    0.0000 C   0  0  0  0  0  0  0  0  0  0  0  0
    8.2361    1.2343    0.0000 C   0  0  0  0  0  0  0  0  0  0  0  0
    8.4423    0.2558    0.0000 C   0  0  0  0  0  0  0  0  0  0  0  0
    3.7320    0.4662    0.0000 C   0  0  0  0  0  0  0  0  0  0  0  0
    3.7320   -2.5338    0.0000 C   0  0  0  0  0  0  0  0  0  0  0  0
    2.8660   -1.0338    0.0000 C   0  0  0  0  0  0  0  0  0  0  0  0
    2.8660   -2.0338    0.0000 C   0  0  0  0  0  0  0  0  0  0  0  0
    8.9065    1.9763    0.0000 C   0  0  0  0  0  0  0  0  0  0  0  0
    2.8660    0.9662    0.0000 C   0  0  0  0  0  0  0  0  0  0  0  0
    2.8660    1.9662    0.0000 C   0  0  0  0  0  0  0  0  0  0  0  0
    9.8843    1.7666    0.0000 C   0  0  0  0  0  0  0  0  0  0  0  0
    2.0000    2.4662    0.0000 C   0  0  0  0  0  0  0  0  0  0  0  0
    3.7320    2.4662    0.0000 C   0  0  0  0  0  0  0  0  0  0  0  0
    6.6720   -0.1709    0.0000 H   0  0  0  0  0  0  0  0  0  0  0  0
    5.8344    0.8411    0.0000 H   0  0  0  0  0  0  0  0  0  0  0  0
    5.2411    0.3088    0.0000 H   0  0  0  0  0  0  0  0  0  0  0  0
    7.5096   -0.8592    0.0000 H   0  0  0  0  0  0  0  0  0  0  0  0
    6.7479   -1.5338    0.0000 H   0  0  0  0  0  0  0  0  0  0  0  0
    5.7369   -2.9278    0.0000 H   0  0  0  0  0  0  0  0  0  0  0  0
    4.3426    0.3585    0.0000 H   0  0  0  0  0  0  0  0  0  0  0  0
    3.9441    1.0488    0.0000 H   0  0  0  0  0  0  0  0  0  0  0  0
    3.7320   -3.1538    0.0000 H   0  0  0  0  0  0  0  0  0  0  0  0
    2.3291   -0.7238    0.0000 H   0  0  0  0  0  0  0  0  0  0  0  0
    2.3291   -2.3438    0.0000 H   0  0  0  0  0  0  0  0  0  0  0  0
    2.3291    0.6562    0.0000 H   0  0  0  0  0  0  0  0  0  0  0  0
    7.0542    2.7438    0.0000 H   0  0  0  0  0  0  0  0  0  0  0  0
    9.7544    1.1604    0.0000 H   0  0  0  0  0  0  0  0  0  0  0  0
   10.4906    1.6367    0.0000 H   0  0  0  0  0  0  0  0  0  0  0  0
   10.0143    2.3729    0.0000 H   0  0  0  0  0  0  0  0  0  0  0  0
    2.3100    3.0031    0.0000 H   0  0  0  0  0  0  0  0  0  0  0  0
    4.0420    1.9293    0.0000 H   0  0  0  0  0  0  0  0  0  0  0  0
    4.2690    2.7762    0.0000 H   0  0  0  0  0  0  0  0  0  0  0  0
    3.4220    3.0031    0.0000 H   0  0  0  0  0  0  0  0  0  0  0  0
    1.4631    2.7762    0.0000 H   0  0  0  0  0  0  0  0  0  0  0  0
    1.6900    1.9293    0.0000 H   0  0  0  0  0  0  0  0  0  0  0  0
  1 10  1  0  0  0  0
  1 38  1  0  0  0  0
  2 15  2  0  0  0  0
  3 20  2  0  0  0  0
  4  6  1  0  0  0  0
  4 15  1  0  0  0  0
  4 29  1  0  0  0  0
  5 11  1  0  0  0  0
  5 13  1  0  0  0  0
  5 31  1  0  0  0  0
  6  7  1  1  0  0  0
  6 10  1  0  0  0  0
  6 26  1  0  0  0  0
  7  8  1  0  0  0  0
  7 27  1  0  0  0  0
  7 28  1  0  0  0  0
  8  9  1  0  0  0  0
  8 13  2  0  0  0  0
  9 11  1  0  0  0  0
  9 12  2  0  0  0  0
 10 14  2  0  0  0  0
 11 17  2  0  0  0  0
 12 16  1  0  0  0  0
 12 18  1  0  0  0  0
 13 30  1  0  0  0  0
 14 15  1  0  0  0  0
 14 20  1  0  0  0  0
 16 21  1  0  0  0  0
 16 32  1  0  0  0  0
 16 33  1  0  0  0  0
 17 19  1  0  0  0  0
 17 34  1  0  0  0  0
 18 19  2  0  0  0  0
 18 35  1  0  0  0  0
 19 36  1  0  0  0  0
 20 23  1  0  0  0  0
 21 22  2  0  0  0  0
 21 37  1  0  0  0  0
 22 24  1  0  0  0  0
 22 25  1  0  0  0  0
 23 39  1  0  0  0  0
 23 40  1  0  0  0  0
 23 41  1  0  0  0  0
 24 42  1  0  0  0  0
 24 46  1  0  0  0  0
 24 47  1  0  0  0  0
 25 43  1  0  0  0  0
 25 44  1  0  0  0  0
 25 45  1  0  0  0  0
M  END
> <PUBCHEM_COMPOUND_CID>
54675760

> <PUBCHEM_COMPOUND_CANONICALIZED>
1

> <PUBCHEM_CACTVS_COMPLEXITY>
618

> <PUBCHEM_CACTVS_HBOND_ACCEPTOR>
3

> <PUBCHEM_CACTVS_HBOND_DONOR>
3

> <PUBCHEM_CACTVS_ROTATABLE_BOND>
5

> <PUBCHEM_CACTVS_SUBSKEYS>
AAADceB7MAAAAAAAAAAAAAAAAAAAAWIAAAAwAAAAAAAAAFgB8AAAHgAQCAAADCzBngQ+wPLJkgCoA7V3VACCgCAxIiAI2aE4ZNgKIPrIkZGEYAhklgDYyQeQ0PIOgAAAQAASAAAAAACAACQAAAAAAAAAAA==

> <PUBCHEM_IUPAC_OPENEYE_NAME>
(2S)-4-acetyl-3-hydroxy-2-[[4-(3-methylbut-2-enyl)-1H-indol-3-yl]methyl]-1,2-dihydropyrrol-5-one

> <PUBCHEM_IUPAC_CAS_NAME>
(2S)-4-acetyl-3-hydroxy-2-[[4-(3-methylbut-2-enyl)-1H-indol-3-yl]methyl]-1,2-dihydropyrrol-5-one

> <PUBCHEM_IUPAC_NAME>
(2S)-4-acetyl-3-hydroxy-2-[[4-(3-methylbut-2-enyl)-1H-indol-3-yl]methyl]-1,2-dihydropyrrol-5-one

> <PUBCHEM_IUPAC_SYSTEMATIC_NAME>
(2S)-4-ethanoyl-2-[[4-(3-methylbut-2-enyl)-1H-indol-3-yl]methyl]-3-oxidanyl-1,2-dihydropyrrol-5-one

> <PUBCHEM_IUPAC_TRADITIONAL_NAME>
(5S)-3-acetyl-4-hydroxy-5-[[4-(3-methylbut-2-enyl)-1H-indol-3-yl]methyl]-3-pyrrolin-2-one

> <PUBCHEM_IUPAC_INCHI>
InChI=1S/C20H22N2O3/c1-11(2)7-8-13-5-4-6-15-18(13)14(10-21-15)9-16-19(24)17(12(3)23)20(25)22-16/h4-7,10,16,21,24H,8-9H2,1-3H3,(H,22,25)/t16-/m0/s1

> <PUBCHEM_IUPAC_INCHIKEY>
MVUXMIXDFMUPLL-INIZCTEOSA-N

> <PUBCHEM_XLOGP3_AA>
3.5

> <PUBCHEM_EXACT_MASS>
338.163043

> <PUBCHEM_MOLECULAR_FORMULA>
C20H22N2O3

> <PUBCHEM_MOLECULAR_WEIGHT>
338.40028

> <PUBCHEM_OPENEYE_CAN_SMILES>
CC(=CCC1=C2C(=CC=C1)NC=C2CC3C(=C(C(=O)N3)C(=O)C)O)C

> <PUBCHEM_OPENEYE_ISO_SMILES>
CC(=CCC1=C2C(=CC=C1)NC=C2C[C@H]3C(=C(C(=O)N3)C(=O)C)O)C

> <PUBCHEM_CACTVS_TPSA>
82.2

> <PUBCHEM_MONOISOTOPIC_WEIGHT>
338.163043

> <PUBCHEM_TOTAL_CHARGE>
0

> <PUBCHEM_HEAVY_ATOM_COUNT>
25

> <PUBCHEM_ATOM_DEF_STEREO_COUNT>
1

> <PUBCHEM_ATOM_UDEF_STEREO_COUNT>
0

> <PUBCHEM_BOND_DEF_STEREO_COUNT>
0

> <PUBCHEM_BOND_UDEF_STEREO_COUNT>
0

> <PUBCHEM_ISOTOPIC_ATOM_COUNT>
0

> <PUBCHEM_COMPONENT_COUNT>
1

> <PUBCHEM_CACTVS_TAUTO_COUNT>
20

> <PUBCHEM_COORDINATE_TYPE>
1
5
255

> <PUBCHEM_BONDANNOTATIONS>
11  17  8
12  18  8
17  19  8
18  19  8
5  11  8
5  13  8
6  7  5
8  13  8
8  9  8
9  11  8
9  12  8

$$$$

