5282283
  -OEChem-07051213042D

112111  0     1  0  0  0  0  0999 V2000
   15.8564   -2.1900    0.0000 O   0  0  0  0  0  0  0  0  0  0  0  0
   18.4545   -1.6900    0.0000 O   0  0  0  0  0  0  0  0  0  0  0  0
   14.9904   -0.6900    0.0000 O   0  0  0  0  0  0  0  0  0  0  0  0
   19.3205   -3.1900    0.0000 O   0  0  0  0  0  0  0  0  0  0  0  0
   16.7224   -3.6900    0.0000 O   0  0  0  0  0  0  0  0  0  0  0  0
    8.0622   -1.6900    0.0000 C   0  0  0  0  0  0  0  0  0  0  0  0
    8.9282   -2.1900    0.0000 C   0  0  0  0  0  0  0  0  0  0  0  0
    7.1962   -2.1900    0.0000 C   0  0  0  0  0  0  0  0  0  0  0  0
    9.7942   -1.6900    0.0000 C   0  0  0  0  0  0  0  0  0  0  0  0
    6.3301   -1.6900    0.0000 C   0  0  0  0  0  0  0  0  0  0  0  0
   10.6603   -2.1900    0.0000 C   0  0  0  0  0  0  0  0  0  0  0  0
    5.4641   -2.1900    0.0000 C   0  0  0  0  0  0  0  0  0  0  0  0
   11.5263   -1.6900    0.0000 C   0  0  0  0  0  0  0  0  0  0  0  0
    4.5981   -1.6900    0.0000 C   0  0  0  0  0  0  0  0  0  0  0  0
   12.3923   -2.1900    0.0000 C   0  0  0  0  0  0  0  0  0  0  0  0
    3.7320   -2.1900    0.0000 C   0  0  0  0  0  0  0  0  0  0  0  0
   13.2583   -1.6900    0.0000 C   0  0  0  0  0  0  0  0  0  0  0  0
    2.8660   -1.6900    0.0000 C   0  0  0  0  0  0  0  0  0  0  0  0
   14.1244   -2.1900    0.0000 C   0  0  0  0  0  0  0  0  0  0  0  0
   22.7846   -2.1900    0.0000 C   0  0  0  0  0  0  0  0  0  0  0  0
   23.6506   -1.6900    0.0000 C   0  0  0  0  0  0  0  0  0  0  0  0
   28.8468    1.3100    0.0000 C   0  0  0  0  0  0  0  0  0  0  0  0
   27.9808    0.8100    0.0000 C   0  0  0  0  0  0  0  0  0  0  0  0
   21.9186   -1.6900    0.0000 C   0  0  0  0  0  0  0  0  0  0  0  0
   24.5167   -2.1900    0.0000 C   0  0  0  0  0  0  0  0  0  0  0  0
   28.8468    2.3100    0.0000 C   0  0  0  0  0  0  0  0  0  0  0  0
   27.9808   -0.1900    0.0000 C   0  0  0  0  0  0  0  0  0  0  0  0
   21.0526   -2.1900    0.0000 C   0  0  0  0  0  0  0  0  0  0  0  0
   25.3827   -1.6900    0.0000 C   0  0  0  0  0  0  0  0  0  0  0  0
   29.7128    2.8100    0.0000 C   0  0  0  0  0  0  0  0  0  0  0  0
   27.1147   -0.6900    0.0000 C   0  0  0  0  0  0  0  0  0  0  0  0
    2.0000   -2.1900    0.0000 C   0  0  0  0  0  0  0  0  0  0  0  0
   20.1865   -1.6900    0.0000 C   0  0  0  0  0  0  0  0  0  0  0  0
   14.9904   -1.6900    0.0000 C   0  0  0  0  0  0  0  0  0  0  0  0
   29.7128    3.8100    0.0000 C   0  0  0  0  0  0  0  0  0  0  0  0
   26.2487   -2.1900    0.0000 C   0  0  0  0  0  0  0  0  0  0  0  0
   27.1147   -1.6900    0.0000 C   0  0  0  0  0  0  0  0  0  0  0  0
   17.5885   -2.1900    0.0000 C   0  0  2  0  0  0  0  0  0  0  0  0
   16.7224   -1.6900    0.0000 C   0  0  0  0  0  0  0  0  0  0  0  0
   19.3205   -2.1900    0.0000 C   0  0  0  0  0  0  0  0  0  0  0  0
   30.5788    4.3100    0.0000 C   0  0  0  0  0  0  0  0  0  0  0  0
   17.5885   -3.1900    0.0000 C   0  0  0  0  0  0  0  0  0  0  0  0
    8.4607   -1.2150    0.0000 H   0  0  0  0  0  0  0  0  0  0  0  0
    7.6636   -1.2150    0.0000 H   0  0  0  0  0  0  0  0  0  0  0  0
    8.5297   -2.6650    0.0000 H   0  0  0  0  0  0  0  0  0  0  0  0
    9.3267   -2.6650    0.0000 H   0  0  0  0  0  0  0  0  0  0  0  0
    6.7976   -2.6650    0.0000 H   0  0  0  0  0  0  0  0  0  0  0  0
    7.5947   -2.6650    0.0000 H   0  0  0  0  0  0  0  0  0  0  0  0
   10.1928   -1.2150    0.0000 H   0  0  0  0  0  0  0  0  0  0  0  0
    9.3957   -1.2150    0.0000 H   0  0  0  0  0  0  0  0  0  0  0  0
    6.7287   -1.2150    0.0000 H   0  0  0  0  0  0  0  0  0  0  0  0
    5.9316   -1.2150    0.0000 H   0  0  0  0  0  0  0  0  0  0  0  0
   10.2617   -2.6650    0.0000 H   0  0  0  0  0  0  0  0  0  0  0  0
   11.0588   -2.6650    0.0000 H   0  0  0  0  0  0  0  0  0  0  0  0
    5.0656   -2.6650    0.0000 H   0  0  0  0  0  0  0  0  0  0  0  0
    5.8626   -2.6650    0.0000 H   0  0  0  0  0  0  0  0  0  0  0  0
   11.9248   -1.2150    0.0000 H   0  0  0  0  0  0  0  0  0  0  0  0
   11.1278   -1.2150    0.0000 H   0  0  0  0  0  0  0  0  0  0  0  0
    4.9966   -1.2150    0.0000 H   0  0  0  0  0  0  0  0  0  0  0  0
    4.1996   -1.2150    0.0000 H   0  0  0  0  0  0  0  0  0  0  0  0
   11.9938   -2.6650    0.0000 H   0  0  0  0  0  0  0  0  0  0  0  0
   12.7908   -2.6650    0.0000 H   0  0  0  0  0  0  0  0  0  0  0  0
    3.3335   -2.6650    0.0000 H   0  0  0  0  0  0  0  0  0  0  0  0
    4.1306   -2.6650    0.0000 H   0  0  0  0  0  0  0  0  0  0  0  0
   13.6569   -1.2150    0.0000 H   0  0  0  0  0  0  0  0  0  0  0  0
   12.8598   -1.2150    0.0000 H   0  0  0  0  0  0  0  0  0  0  0  0
    3.2646   -1.2150    0.0000 H   0  0  0  0  0  0  0  0  0  0  0  0
    2.4675   -1.2150    0.0000 H   0  0  0  0  0  0  0  0  0  0  0  0
   13.7258   -2.6650    0.0000 H   0  0  0  0  0  0  0  0  0  0  0  0
   14.5229   -2.6650    0.0000 H   0  0  0  0  0  0  0  0  0  0  0  0
   22.3861   -2.6650    0.0000 H   0  0  0  0  0  0  0  0  0  0  0  0
   23.1831   -2.6650    0.0000 H   0  0  0  0  0  0  0  0  0  0  0  0
   24.0492   -1.2150    0.0000 H   0  0  0  0  0  0  0  0  0  0  0  0
   23.2521   -1.2150    0.0000 H   0  0  0  0  0  0  0  0  0  0  0  0
   29.0588    0.7274    0.0000 H   0  0  0  0  0  0  0  0  0  0  0  0
   29.4574    1.4177    0.0000 H   0  0  0  0  0  0  0  0  0  0  0  0
   27.7687    1.3926    0.0000 H   0  0  0  0  0  0  0  0  0  0  0  0
   27.3702    0.7023    0.0000 H   0  0  0  0  0  0  0  0  0  0  0  0
   22.3171   -1.2150    0.0000 H   0  0  0  0  0  0  0  0  0  0  0  0
   21.5201   -1.2150    0.0000 H   0  0  0  0  0  0  0  0  0  0  0  0
   24.1181   -2.6650    0.0000 H   0  0  0  0  0  0  0  0  0  0  0  0
   24.9152   -2.6650    0.0000 H   0  0  0  0  0  0  0  0  0  0  0  0
   28.6347    2.8926    0.0000 H   0  0  0  0  0  0  0  0  0  0  0  0
   28.2362    2.2023    0.0000 H   0  0  0  0  0  0  0  0  0  0  0  0
   28.1928   -0.7726    0.0000 H   0  0  0  0  0  0  0  0  0  0  0  0
   28.5913   -0.0823    0.0000 H   0  0  0  0  0  0  0  0  0  0  0  0
   20.6540   -2.6650    0.0000 H   0  0  0  0  0  0  0  0  0  0  0  0
   21.4511   -2.6650    0.0000 H   0  0  0  0  0  0  0  0  0  0  0  0
   25.7812   -1.2150    0.0000 H   0  0  0  0  0  0  0  0  0  0  0  0
   24.9842   -1.2150    0.0000 H   0  0  0  0  0  0  0  0  0  0  0  0
   29.9249    2.2274    0.0000 H   0  0  0  0  0  0  0  0  0  0  0  0
   30.3234    2.9177    0.0000 H   0  0  0  0  0  0  0  0  0  0  0  0
   26.9027   -0.1074    0.0000 H   0  0  0  0  0  0  0  0  0  0  0  0
   26.5042   -0.7977    0.0000 H   0  0  0  0  0  0  0  0  0  0  0  0
    1.6900   -1.6531    0.0000 H   0  0  0  0  0  0  0  0  0  0  0  0
    1.4631   -2.5000    0.0000 H   0  0  0  0  0  0  0  0  0  0  0  0
    2.3100   -2.7269    0.0000 H   0  0  0  0  0  0  0  0  0  0  0  0
   20.5851   -1.2150    0.0000 H   0  0  0  0  0  0  0  0  0  0  0  0
   19.7880   -1.2150    0.0000 H   0  0  0  0  0  0  0  0  0  0  0  0
   29.5008    4.3926    0.0000 H   0  0  0  0  0  0  0  0  0  0  0  0
   29.1022    3.7023    0.0000 H   0  0  0  0  0  0  0  0  0  0  0  0
   26.2487   -2.8100    0.0000 H   0  0  0  0  0  0  0  0  0  0  0  0
   27.6517   -2.0000    0.0000 H   0  0  0  0  0  0  0  0  0  0  0  0
   17.5885   -1.5700    0.0000 H   0  0  0  0  0  0  0  0  0  0  0  0
   17.1210   -1.2150    0.0000 H   0  0  0  0  0  0  0  0  0  0  0  0
   16.3239   -1.2150    0.0000 H   0  0  0  0  0  0  0  0  0  0  0  0
   30.8888    3.7731    0.0000 H   0  0  0  0  0  0  0  0  0  0  0  0
   31.1158    4.6200    0.0000 H   0  0  0  0  0  0  0  0  0  0  0  0
   30.2688    4.8469    0.0000 H   0  0  0  0  0  0  0  0  0  0  0  0
   17.8005   -3.7726    0.0000 H   0  0  0  0  0  0  0  0  0  0  0  0
   18.1990   -3.0823    0.0000 H   0  0  0  0  0  0  0  0  0  0  0  0
   16.7224   -4.3100    0.0000 H   0  0  0  0  0  0  0  0  0  0  0  0
  1 34  1  0  0  0  0
  1 39  1  0  0  0  0
 38  2  1  1  0  0  0
  2 40  1  0  0  0  0
  3 34  2  0  0  0  0
  4 40  2  0  0  0  0
  5 42  1  0  0  0  0
  5112  1  0  0  0  0
  6  7  1  0  0  0  0
  6  8  1  0  0  0  0
  6 43  1  0  0  0  0
  6 44  1  0  0  0  0
  7  9  1  0  0  0  0
  7 45  1  0  0  0  0
  7 46  1  0  0  0  0
  8 10  1  0  0  0  0
  8 47  1  0  0  0  0
  8 48  1  0  0  0  0
  9 11  1  0  0  0  0
  9 49  1  0  0  0  0
  9 50  1  0  0  0  0
 10 12  1  0  0  0  0
 10 51  1  0  0  0  0
 10 52  1  0  0  0  0
 11 13  1  0  0  0  0
 11 53  1  0  0  0  0
 11 54  1  0  0  0  0
 12 14  1  0  0  0  0
 12 55  1  0  0  0  0
 12 56  1  0  0  0  0
 13 15  1  0  0  0  0
 13 57  1  0  0  0  0
 13 58  1  0  0  0  0
 14 16  1  0  0  0  0
 14 59  1  0  0  0  0
 14 60  1  0  0  0  0
 15 17  1  0  0  0  0
 15 61  1  0  0  0  0
 15 62  1  0  0  0  0
 16 18  1  0  0  0  0
 16 63  1  0  0  0  0
 16 64  1  0  0  0  0
 17 19  1  0  0  0  0
 17 65  1  0  0  0  0
 17 66  1  0  0  0  0
 18 32  1  0  0  0  0
 18 67  1  0  0  0  0
 18 68  1  0  0  0  0
 19 34  1  0  0  0  0
 19 69  1  0  0  0  0
 19 70  1  0  0  0  0
 20 21  1  0  0  0  0
 20 24  1  0  0  0  0
 20 71  1  0  0  0  0
 20 72  1  0  0  0  0
 21 25  1  0  0  0  0
 21 73  1  0  0  0  0
 21 74  1  0  0  0  0
 22 23  1  0  0  0  0
 22 26  1  0  0  0  0
 22 75  1  0  0  0  0
 22 76  1  0  0  0  0
 23 27  1  0  0  0  0
 23 77  1  0  0  0  0
 23 78  1  0  0  0  0
 24 28  1  0  0  0  0
 24 79  1  0  0  0  0
 24 80  1  0  0  0  0
 25 29  1  0  0  0  0
 25 81  1  0  0  0  0
 25 82  1  0  0  0  0
 26 30  1  0  0  0  0
 26 83  1  0  0  0  0
 26 84  1  0  0  0  0
 27 31  1  0  0  0  0
 27 85  1  0  0  0  0
 27 86  1  0  0  0  0
 28 33  1  0  0  0  0
 28 87  1  0  0  0  0
 28 88  1  0  0  0  0
 29 36  1  0  0  0  0
 29 89  1  0  0  0  0
 29 90  1  0  0  0  0
 30 35  1  0  0  0  0
 30 91  1  0  0  0  0
 30 92  1  0  0  0  0
 31 37  1  0  0  0  0
 31 93  1  0  0  0  0
 31 94  1  0  0  0  0
 32 95  1  0  0  0  0
 32 96  1  0  0  0  0
 32 97  1  0  0  0  0
 33 40  1  0  0  0  0
 33 98  1  0  0  0  0
 33 99  1  0  0  0  0
 35 41  1  0  0  0  0
 35100  1  0  0  0  0
 35101  1  0  0  0  0
 36 37  2  0  0  0  0
 36102  1  0  0  0  0
 37103  1  0  0  0  0
 38 39  1  0  0  0  0
 38 42  1  0  0  0  0
 38104  1  0  0  0  0
 39105  1  0  0  0  0
 39106  1  0  0  0  0
 41107  1  0  0  0  0
 41108  1  0  0  0  0
 41109  1  0  0  0  0
 42110  1  0  0  0  0
 42111  1  0  0  0  0
M  END
> <PUBCHEM_COMPOUND_CID>
5282283

> <PUBCHEM_COMPOUND_CANONICALIZED>
1

> <PUBCHEM_CACTVS_COMPLEXITY>
603

> <PUBCHEM_CACTVS_HBOND_ACCEPTOR>
5

> <PUBCHEM_CACTVS_HBOND_DONOR>
1

> <PUBCHEM_CACTVS_ROTATABLE_BOND>
35

> <PUBCHEM_CACTVS_SUBSKEYS>
AAADcfB8OAAAAAAAAAAAAAAAAAAAAAAAAAAAAAAAAAAAAAAAAAAAGgAACAAACBSggAICCAAABgCIACDSCAAAAAAgAAAICAEAAAgBEBIAAQACQAAFgAALAAOIyKCAAAAAAAAAAAAAAAAAAAAAAAAAAAAAAA==

> <PUBCHEM_IUPAC_OPENEYE_NAME>
[(1S)-1-(hexadecanoyloxymethyl)-2-hydroxy-ethyl] (Z)-octadec-9-enoate

> <PUBCHEM_IUPAC_CAS_NAME>
(Z)-9-octadecenoic acid [(2S)-1-hydroxy-3-(1-oxohexadecoxy)propan-2-yl] ester

> <PUBCHEM_IUPAC_NAME>
[(2S)-1-hexadecanoyloxy-3-hydroxypropan-2-yl] (Z)-octadec-9-enoate

> <PUBCHEM_IUPAC_SYSTEMATIC_NAME>
[(2S)-1-hexadecanoyloxy-3-oxidanyl-propan-2-yl] (Z)-octadec-9-enoate

> <PUBCHEM_IUPAC_TRADITIONAL_NAME>
(Z)-octadec-9-enoic acid [(1S)-1-(hexadecanoyloxymethyl)-2-hydroxy-ethyl] ester

> <PUBCHEM_IUPAC_INCHI>
InChI=1S/C37H70O5/c1-3-5-7-9-11-13-15-17-18-20-22-24-26-28-30-32-37(40)42-35(33-38)34-41-36(39)31-29-27-25-23-21-19-16-14-12-10-8-6-4-2/h17-18,35,38H,3-16,19-34H2,1-2H3/b18-17-/t35-/m0/s1

> <PUBCHEM_IUPAC_INCHIKEY>
YEJYLHKQOBOSCP-OZKTZCCCSA-N

> <PUBCHEM_XLOGP3_AA>
14.2

> <PUBCHEM_EXACT_MASS>
594.522325

> <PUBCHEM_MOLECULAR_FORMULA>
C37H70O5

> <PUBCHEM_MOLECULAR_WEIGHT>
594.9487

> <PUBCHEM_OPENEYE_CAN_SMILES>
CCCCCCCCCCCCCCCC(=O)OCC(CO)OC(=O)CCCCCCCC=CCCCCCCCC

> <PUBCHEM_OPENEYE_ISO_SMILES>
CCCCCCCCCCCCCCCC(=O)OC[C@H](CO)OC(=O)CCCCCCC/C=C\CCCCCCCC

> <PUBCHEM_CACTVS_TPSA>
72.8

> <PUBCHEM_MONOISOTOPIC_WEIGHT>
594.522325

> <PUBCHEM_TOTAL_CHARGE>
0

> <PUBCHEM_HEAVY_ATOM_COUNT>
42

> <PUBCHEM_ATOM_DEF_STEREO_COUNT>
1

> <PUBCHEM_ATOM_UDEF_STEREO_COUNT>
0

> <PUBCHEM_BOND_DEF_STEREO_COUNT>
1

> <PUBCHEM_BOND_UDEF_STEREO_COUNT>
0

> <PUBCHEM_ISOTOPIC_ATOM_COUNT>
0

> <PUBCHEM_COMPONENT_COUNT>
1

> <PUBCHEM_CACTVS_TAUTO_COUNT>
1

> <PUBCHEM_COORDINATE_TYPE>
1
5
255

> <PUBCHEM_BONDANNOTATIONS>
38  2  5

$$$$

