53297377
  -OEChem-07051213112D

 54 58  0     1  0  0  0  0  0999 V2000
    5.0813    3.5182    0.0000 O   0  0  0  0  0  0  0  0  0  0  0  0
    5.2284    0.2377    0.0000 O   0  0  0  0  0  0  0  0  0  0  0  0
    2.6376   -0.4212    0.0000 O   0  0  0  0  0  0  0  0  0  0  0  0
   11.5430   -2.6667    0.0000 O   0  0  0  0  0  0  0  0  0  0  0  0
    6.6985   -1.5666    0.0000 O   0  0  0  0  0  0  0  0  0  0  0  0
    8.7331    1.9575    0.0000 O   0  0  0  0  0  0  0  0  0  0  0  0
    8.2680   -2.5225    0.0000 O   0  0  0  0  0  0  0  0  0  0  0  0
   10.3457    1.0762    0.0000 O   0  0  0  0  0  0  0  0  0  0  0  0
   14.6114   -2.5444    0.0000 O   0  0  0  0  0  0  0  0  0  0  0  0
   13.1148   -3.4162    0.0000 O   0  0  0  0  0  0  0  0  0  0  0  0
    4.9696    1.2036    0.0000 C   0  0  1  0  0  0  0  0  0  0  0  0
    3.1376    0.4448    0.0000 C   0  0  1  0  0  0  0  0  0  0  0  0
    4.7107    2.1696    0.0000 C   0  0  2  0  0  0  0  0  0  0  0  0
    5.9474    3.0182    0.0000 C   0  0  1  0  0  0  0  0  0  0  0  0
    2.8788    1.4107    0.0000 C   0  0  0  0  0  0  0  0  0  0  0  0
    6.7016    0.2036    0.0000 C   0  0  0  0  0  0  0  0  0  0  0  0
    7.2016    1.0696    0.0000 C   0  0  0  0  0  0  0  0  0  0  0  0
    7.2084   -0.7064    0.0000 C   0  0  0  0  0  0  0  0  0  0  0  0
    8.2431    1.0857    0.0000 C   0  0  0  0  0  0  0  0  0  0  0  0
    6.9133    3.2770    0.0000 C   0  0  0  0  0  0  0  0  0  0  0  0
    8.2500   -0.7144    0.0000 C   0  0  0  0  0  0  0  0  0  0  0  0
    8.7709    0.1877    0.0000 C   0  0  0  0  0  0  0  0  0  0  0  0
   10.4055   -0.7310    0.0000 C   0  0  0  0  0  0  0  0  0  0  0  0
    9.8630   -1.6707    0.0000 C   0  0  0  0  0  0  0  0  0  0  0  0
    8.7780   -1.6623    0.0000 C   0  0  0  0  0  0  0  0  0  0  0  0
    9.8557    0.2044    0.0000 C   0  0  0  0  0  0  0  0  0  0  0  0
   11.5355   -0.7136    0.0000 C   0  0  0  0  0  0  0  0  0  0  0  0
   10.4129   -2.6580    0.0000 C   0  0  2  0  0  0  0  0  0  0  0  0
   12.1081   -1.6880    0.0000 C   0  0  2  0  0  0  0  0  0  0  0  0
   13.1081   -1.6841    0.0000 C   0  0  0  0  0  0  0  0  0  0  0  0
    9.9029   -3.5182    0.0000 C   0  0  0  0  0  0  0  0  0  0  0  0
   13.6114   -2.5482    0.0000 C   0  0  0  0  0  0  0  0  0  0  0  0
    3.5464   -0.0213    0.0000 H   0  0  0  0  0  0  0  0  0  0  0  0
    4.4907    2.9906    0.0000 H   0  0  0  0  0  0  0  0  0  0  0  0
    6.0283    3.6329    0.0000 H   0  0  0  0  0  0  0  0  0  0  0  0
    2.2875    1.2243    0.0000 H   0  0  0  0  0  0  0  0  0  0  0  0
    2.6667    1.9933    0.0000 H   0  0  0  0  0  0  0  0  0  0  0  0
    6.7528    3.8759    0.0000 H   0  0  0  0  0  0  0  0  0  0  0  0
    7.5122    3.4375    0.0000 H   0  0  0  0  0  0  0  0  0  0  0  0
    7.0737    2.6781    0.0000 H   0  0  0  0  0  0  0  0  0  0  0  0
    4.7900   -0.2007    0.0000 H   0  0  0  0  0  0  0  0  0  0  0  0
    2.0176   -0.4212    0.0000 H   0  0  0  0  0  0  0  0  0  0  0  0
   11.4200   -0.1045    0.0000 H   0  0  0  0  0  0  0  0  0  0  0  0
   12.1159   -0.4956    0.0000 H   0  0  0  0  0  0  0  0  0  0  0  0
   10.7177   -3.1979    0.0000 H   0  0  0  0  0  0  0  0  0  0  0  0
   12.4191   -2.2243    0.0000 H   0  0  0  0  0  0  0  0  0  0  0  0
   12.9981   -1.0740    0.0000 H   0  0  0  0  0  0  0  0  0  0  0  0
   13.6899   -1.4698    0.0000 H   0  0  0  0  0  0  0  0  0  0  0  0
   10.4362   -3.8344    0.0000 H   0  0  0  0  0  0  0  0  0  0  0  0
    9.5867   -4.0515    0.0000 H   0  0  0  0  0  0  0  0  0  0  0  0
    9.3696   -3.2020    0.0000 H   0  0  0  0  0  0  0  0  0  0  0  0
    8.5718   -3.0630    0.0000 H   0  0  0  0  0  0  0  0  0  0  0  0
   10.9656    1.0833    0.0000 H   0  0  0  0  0  0  0  0  0  0  0  0
   14.9235   -3.0801    0.0000 H   0  0  0  0  0  0  0  0  0  0  0  0
  1 13  1  0  0  0  0
  1 14  1  0  0  0  0
 11  2  1  1  0  0  0
  2 41  1  0  0  0  0
 12  3  1  6  0  0  0
  3 42  1  0  0  0  0
  4 28  1  0  0  0  0
  4 29  1  0  0  0  0
  5 18  2  0  0  0  0
  6 19  2  0  0  0  0
  7 25  1  0  0  0  0
  7 52  1  0  0  0  0
  8 26  1  0  0  0  0
  8 53  1  0  0  0  0
  9 32  1  0  0  0  0
  9 54  1  0  0  0  0
 10 32  2  0  0  0  0
 11 12  1  0  0  0  0
 11 14  1  0  0  0  0
 11 16  1  0  0  0  0
 12 15  1  0  0  0  0
 12 33  1  0  0  0  0
 13 15  1  0  0  0  0
 13 17  1  0  0  0  0
 13 34  1  6  0  0  0
 14 20  1  6  0  0  0
 14 35  1  0  0  0  0
 15 36  1  0  0  0  0
 15 37  1  0  0  0  0
 16 17  2  0  0  0  0
 16 18  1  0  0  0  0
 17 19  1  0  0  0  0
 18 21  1  0  0  0  0
 19 22  1  0  0  0  0
 20 38  1  0  0  0  0
 20 39  1  0  0  0  0
 20 40  1  0  0  0  0
 21 22  1  0  0  0  0
 21 25  2  0  0  0  0
 22 26  2  0  0  0  0
 23 24  2  0  0  0  0
 23 26  1  0  0  0  0
 23 27  1  0  0  0  0
 24 25  1  0  0  0  0
 24 28  1  0  0  0  0
 27 29  1  0  0  0  0
 27 43  1  0  0  0  0
 27 44  1  0  0  0  0
 28 31  1  1  0  0  0
 28 45  1  0  0  0  0
 29 30  1  6  0  0  0
 29 46  1  0  0  0  0
 30 32  1  0  0  0  0
 30 47  1  0  0  0  0
 30 48  1  0  0  0  0
 31 49  1  0  0  0  0
 31 50  1  0  0  0  0
 31 51  1  0  0  0  0
M  END
> <PUBCHEM_COMPOUND_CID>
53297377

> <PUBCHEM_COMPOUND_CANONICALIZED>
1

> <PUBCHEM_CACTVS_COMPLEXITY>
912

> <PUBCHEM_CACTVS_HBOND_ACCEPTOR>
10

> <PUBCHEM_CACTVS_HBOND_DONOR>
5

> <PUBCHEM_CACTVS_ROTATABLE_BOND>
2

> <PUBCHEM_CACTVS_SUBSKEYS>
AAADceB4PAAAAAAAAAAAAAAAAAAAAAAAAAA0SIECAAAAAACRAAAAGgAACAAADFSgmAICDoAABgCIAoDQCAACAAAkIAAAiAEECMgJNzaCNBqCcUAl4BELuQfL7PzOwQADAAAYAACCAAYAADAAAAAAAAAAAA==

> <PUBCHEM_IUPAC_INCHI>
InChI=1S/C22H22O10/c1-6-13-9(3-8(31-6)4-12(24)25)18(26)15-16(19(13)27)21(29)17-14(20(15)28)10-5-11(23)22(17,30)7(2)32-10/h6-8,10-11,23,26-27,30H,3-5H2,1-2H3,(H,24,25)/t6-,7+,8+,10+,11+,22+/m0/s1

> <PUBCHEM_IUPAC_INCHIKEY>
GNTIHWMOJLHUNA-GNHMSDOPSA-N

> <PUBCHEM_XLOGP3_AA>
-0.1

> <PUBCHEM_EXACT_MASS>
446.121297

> <PUBCHEM_MOLECULAR_FORMULA>
C22H22O10

> <PUBCHEM_MOLECULAR_WEIGHT>
446.40408

> <PUBCHEM_OPENEYE_CAN_SMILES>
CC1C2=C(C3=C(C(=C2CC(O1)CC(=O)O)O)C(=O)C4=C(C3=O)C5(C(OC4CC5O)C)O)O

> <PUBCHEM_OPENEYE_ISO_SMILES>
C[C@H]1C2=C(C3=C(C(=C2C[C@@H](O1)CC(=O)O)O)C(=O)C4=C(C3=O)[C@]5([C@H](O[C@@H]4C[C@H]5O)C)O)O

> <PUBCHEM_CACTVS_TPSA>
171

> <PUBCHEM_MONOISOTOPIC_WEIGHT>
446.121297

> <PUBCHEM_TOTAL_CHARGE>
0

> <PUBCHEM_HEAVY_ATOM_COUNT>
32

> <PUBCHEM_ATOM_DEF_STEREO_COUNT>
6

> <PUBCHEM_ATOM_UDEF_STEREO_COUNT>
0

> <PUBCHEM_BOND_DEF_STEREO_COUNT>
0

> <PUBCHEM_BOND_UDEF_STEREO_COUNT>
0

> <PUBCHEM_ISOTOPIC_ATOM_COUNT>
0

> <PUBCHEM_COMPONENT_COUNT>
1

> <PUBCHEM_CACTVS_TAUTO_COUNT>
36

> <PUBCHEM_COORDINATE_TYPE>
1
5
255

> <PUBCHEM_BONDANNOTATIONS>
13  34  6
14  20  6
11  2  5
21  22  8
21  25  8
22  26  8
23  24  8
23  26  8
24  25  8
28  31  5
29  30  6
12  3  6

$$$$

