46173880
  -OEChem-07051213102D

 61 61  0     1  0  0  0  0  0999 V2000
    7.1962   -2.5950    0.0000 S   0  0  0  0  0  0  0  0  0  0  0  0
    2.8660    4.9050    0.0000 S   0  0  3  0  0  0  0  0  0  0  0  0
    8.9282    0.4050    0.0000 S   0  0  0  0  0  0  0  0  0  0  0  0
    5.4641   -2.5950    0.0000 O   0  0  0  0  0  0  0  0  0  0  0  0
    5.4641   -5.5950    0.0000 O   0  0  0  0  0  0  0  0  0  0  0  0
    3.7320   -4.5950    0.0000 O   0  0  0  0  0  0  0  0  0  0  0  0
    7.1962   -4.5950    0.0000 O   0  0  0  0  0  0  0  0  0  0  0  0
    3.7320   -1.5950    0.0000 O   0  0  0  0  0  0  0  0  0  0  0  0
    8.0622   -0.0950    0.0000 O   0  0  0  0  0  0  0  0  0  0  0  0
    2.0000    4.4050    0.0000 O   0  0  0  0  0  0  0  0  0  0  0  0
    9.7942    0.9050    0.0000 O   0  0  0  0  0  0  0  0  0  0  0  0
    8.4282    1.2710    0.0000 O   0  0  0  0  0  0  0  0  0  0  0  0
    9.4282   -0.4610    0.0000 O   0  0  0  0  0  0  0  0  0  0  0  0
    8.0622   -1.0950    0.0000 N   0  0  0  0  0  0  0  0  0  0  0  0
    5.4641   -4.5950    0.0000 C   0  0  1  0  0  0  0  0  0  0  0  0
    4.5981   -4.0950    0.0000 C   0  0  1  0  0  0  0  0  0  0  0  0
    6.3301   -4.0950    0.0000 C   0  0  2  0  0  0  0  0  0  0  0  0
    4.5981   -3.0950    0.0000 C   0  0  1  0  0  0  0  0  0  0  0  0
    6.3301   -3.0950    0.0000 C   0  0  2  0  0  0  0  0  0  0  0  0
    3.7320   -2.5950    0.0000 C   0  0  0  0  0  0  0  0  0  0  0  0
    5.4641    0.4050    0.0000 C   0  0  0  0  0  0  0  0  0  0  0  0
    6.3301   -0.0950    0.0000 C   0  0  0  0  0  0  0  0  0  0  0  0
    6.3301   -1.0950    0.0000 C   0  0  0  0  0  0  0  0  0  0  0  0
    5.4641    1.4050    0.0000 C   0  0  0  0  0  0  0  0  0  0  0  0
    7.1962   -1.5950    0.0000 C   0  0  0  0  0  0  0  0  0  0  0  0
    4.5981    1.9050    0.0000 C   0  0  0  0  0  0  0  0  0  0  0  0
    4.5981    2.9050    0.0000 C   0  0  0  0  0  0  0  0  0  0  0  0
    3.7320    3.4050    0.0000 C   0  0  0  0  0  0  0  0  0  0  0  0
    3.7320    4.4050    0.0000 C   0  0  0  0  0  0  0  0  0  0  0  0
    2.8660    5.9050    0.0000 C   0  0  0  0  0  0  0  0  0  0  0  0
    6.0010   -4.9050    0.0000 H   0  0  0  0  0  0  0  0  0  0  0  0
    4.5981   -4.7150    0.0000 H   0  0  0  0  0  0  0  0  0  0  0  0
    6.8671   -3.7850    0.0000 H   0  0  0  0  0  0  0  0  0  0  0  0
    4.5981   -2.4750    0.0000 H   0  0  0  0  0  0  0  0  0  0  0  0
    6.8671   -3.4050    0.0000 H   0  0  0  0  0  0  0  0  0  0  0  0
    3.1215   -2.4873    0.0000 H   0  0  0  0  0  0  0  0  0  0  0  0
    3.5200   -3.1776    0.0000 H   0  0  0  0  0  0  0  0  0  0  0  0
    4.9272   -5.9050    0.0000 H   0  0  0  0  0  0  0  0  0  0  0  0
    3.1951   -4.2850    0.0000 H   0  0  0  0  0  0  0  0  0  0  0  0
    7.7331   -4.2850    0.0000 H   0  0  0  0  0  0  0  0  0  0  0  0
    4.8535    0.5127    0.0000 H   0  0  0  0  0  0  0  0  0  0  0  0
    5.2520   -0.1776    0.0000 H   0  0  0  0  0  0  0  0  0  0  0  0
    6.9407   -0.2027    0.0000 H   0  0  0  0  0  0  0  0  0  0  0  0
    6.5422    0.4876    0.0000 H   0  0  0  0  0  0  0  0  0  0  0  0
    6.0747    1.2973    0.0000 H   0  0  0  0  0  0  0  0  0  0  0  0
    5.6762    1.9876    0.0000 H   0  0  0  0  0  0  0  0  0  0  0  0
    5.7196   -0.9873    0.0000 H   0  0  0  0  0  0  0  0  0  0  0  0
    6.1181   -1.6776    0.0000 H   0  0  0  0  0  0  0  0  0  0  0  0
    3.9875    2.0127    0.0000 H   0  0  0  0  0  0  0  0  0  0  0  0
    4.3860    1.3224    0.0000 H   0  0  0  0  0  0  0  0  0  0  0  0
    5.2087    2.7973    0.0000 H   0  0  0  0  0  0  0  0  0  0  0  0
    4.8101    3.4876    0.0000 H   0  0  0  0  0  0  0  0  0  0  0  0
    3.1215    3.5127    0.0000 H   0  0  0  0  0  0  0  0  0  0  0  0
    3.5200    2.8224    0.0000 H   0  0  0  0  0  0  0  0  0  0  0  0
    3.1951   -1.2850    0.0000 H   0  0  0  0  0  0  0  0  0  0  0  0
    4.3426    4.2973    0.0000 H   0  0  0  0  0  0  0  0  0  0  0  0
    3.9441    4.9876    0.0000 H   0  0  0  0  0  0  0  0  0  0  0  0
    3.4860    5.9050    0.0000 H   0  0  0  0  0  0  0  0  0  0  0  0
    2.8660    6.5250    0.0000 H   0  0  0  0  0  0  0  0  0  0  0  0
    2.2460    5.9050    0.0000 H   0  0  0  0  0  0  0  0  0  0  0  0
    9.7942    1.5250    0.0000 H   0  0  0  0  0  0  0  0  0  0  0  0
 19  1  1  1  0  0  0
  1 25  1  0  0  0  0
  2 10  2  0  0  0  0
  2 29  1  0  0  0  0
  2 30  1  0  0  0  0
  3  9  1  0  0  0  0
  3 11  1  0  0  0  0
  3 12  2  0  0  0  0
  3 13  2  0  0  0  0
  4 18  1  0  0  0  0
  4 19  1  0  0  0  0
 15  5  1  1  0  0  0
  5 38  1  0  0  0  0
 16  6  1  6  0  0  0
  6 39  1  0  0  0  0
 17  7  1  6  0  0  0
  7 40  1  0  0  0  0
  8 20  1  0  0  0  0
  8 55  1  0  0  0  0
  9 14  1  0  0  0  0
 11 61  1  0  0  0  0
 14 25  2  3  0  0  0
 15 16  1  0  0  0  0
 15 17  1  0  0  0  0
 15 31  1  0  0  0  0
 16 18  1  0  0  0  0
 16 32  1  0  0  0  0
 17 19  1  0  0  0  0
 17 33  1  0  0  0  0
 18 20  1  1  0  0  0
 18 34  1  0  0  0  0
 19 35  1  0  0  0  0
 20 36  1  0  0  0  0
 20 37  1  0  0  0  0
 21 22  1  0  0  0  0
 21 24  1  0  0  0  0
 21 41  1  0  0  0  0
 21 42  1  0  0  0  0
 22 23  1  0  0  0  0
 22 43  1  0  0  0  0
 22 44  1  0  0  0  0
 23 25  1  0  0  0  0
 23 47  1  0  0  0  0
 23 48  1  0  0  0  0
 24 26  1  0  0  0  0
 24 45  1  0  0  0  0
 24 46  1  0  0  0  0
 26 27  1  0  0  0  0
 26 49  1  0  0  0  0
 26 50  1  0  0  0  0
 27 28  1  0  0  0  0
 27 51  1  0  0  0  0
 27 52  1  0  0  0  0
 28 29  1  0  0  0  0
 28 53  1  0  0  0  0
 28 54  1  0  0  0  0
 29 56  1  0  0  0  0
 29 57  1  0  0  0  0
 30 58  1  0  0  0  0
 30 59  1  0  0  0  0
 30 60  1  0  0  0  0
M  END
> <PUBCHEM_COMPOUND_CID>
46173880

> <PUBCHEM_COMPOUND_CANONICALIZED>
1

> <PUBCHEM_CACTVS_COMPLEXITY>
654

> <PUBCHEM_CACTVS_HBOND_ACCEPTOR>
13

> <PUBCHEM_CACTVS_HBOND_DONOR>
5

> <PUBCHEM_CACTVS_ROTATABLE_BOND>
14

> <PUBCHEM_CACTVS_SUBSKEYS>
AAADceB6PABgAAAAAAAAAAAAAAAAAAAAAAAkAAAAAAAAAAAAAAAAHgQECAAACBSlwAKCAAAQBoogAAAgAHBAAAAAABAAAAAwAAABEAIgAAACQAAFAAAjAAHA4IQAAAAAAAAAAAAAAAAAAAAAAAAAAAAAAA==

> <PUBCHEM_IUPAC_OPENEYE_NAME>
[(2S,3R,4S,5S,6R)-3,4,5-trihydroxy-6-(hydroxymethyl)tetrahydropyran-2-yl] 9-methylsulfinyl-N-sulfooxy-nonanimidothioate

> <PUBCHEM_IUPAC_CAS_NAME>
9-methylsulfinyl-N-sulfooxynonanimidothioic acid [(2S,3R,4S,5S,6R)-3,4,5-trihydroxy-6-(hydroxymethyl)-2-oxanyl] ester

> <PUBCHEM_IUPAC_NAME>
[(2S,3R,4S,5S,6R)-3,4,5-trihydroxy-6-(hydroxymethyl)oxan-2-yl] 9-methylsulfinyl-N-sulfooxynonanimidothioate

> <PUBCHEM_IUPAC_SYSTEMATIC_NAME>
[(2S,3R,4S,5S,6R)-6-(hydroxymethyl)-3,4,5-tris(oxidanyl)oxan-2-yl] 9-methylsulfinyl-N-sulfooxy-nonanimidothioate

> <PUBCHEM_IUPAC_TRADITIONAL_NAME>
9-methylsulfinyl-N-sulfoxy-thiopelargonimidic acid [(2S,3R,4S,5S,6R)-3,4,5-trihydroxy-6-methylol-tetrahydropyran-2-yl] ester

> <PUBCHEM_IUPAC_INCHI>
InChI=1S/C16H31NO10S3/c1-29(22)9-7-5-3-2-4-6-8-12(17-27-30(23,24)25)28-16-15(21)14(20)13(19)11(10-18)26-16/h11,13-16,18-21H,2-10H2,1H3,(H,23,24,25)/t11-,13-,14+,15-,16+,29?/m1/s1

> <PUBCHEM_IUPAC_INCHIKEY>
GPMDJOOLATZDQL-AOUBEFMNSA-N

> <PUBCHEM_XLOGP3_AA>
-0.1

> <PUBCHEM_EXACT_MASS>
493.111009

> <PUBCHEM_MOLECULAR_FORMULA>
C16H31NO10S3

> <PUBCHEM_MOLECULAR_WEIGHT>
493.61304

> <PUBCHEM_OPENEYE_CAN_SMILES>
CS(=O)CCCCCCCCC(=NOS(=O)(=O)O)SC1C(C(C(C(O1)CO)O)O)O

> <PUBCHEM_OPENEYE_ISO_SMILES>
CS(=O)CCCCCCCCC(=NOS(=O)(=O)O)S[C@H]1[C@@H]([C@H]([C@@H]([C@H](O1)CO)O)O)O

> <PUBCHEM_CACTVS_TPSA>
236

> <PUBCHEM_MONOISOTOPIC_WEIGHT>
493.111009

> <PUBCHEM_TOTAL_CHARGE>
0

> <PUBCHEM_HEAVY_ATOM_COUNT>
30

> <PUBCHEM_ATOM_DEF_STEREO_COUNT>
5

> <PUBCHEM_ATOM_UDEF_STEREO_COUNT>
1

> <PUBCHEM_BOND_DEF_STEREO_COUNT>
0

> <PUBCHEM_BOND_UDEF_STEREO_COUNT>
1

> <PUBCHEM_ISOTOPIC_ATOM_COUNT>
0

> <PUBCHEM_COMPONENT_COUNT>
1

> <PUBCHEM_CACTVS_TAUTO_COUNT>
2

> <PUBCHEM_COORDINATE_TYPE>
1
5
255

> <PUBCHEM_BONDANNOTATIONS>
19  1  5
14  25  1
18  20  5
2  30  3
15  5  5
16  6  6
17  7  6

$$$$

