   Color/Form
        Liquid
   from [1]HSDB

   Boiling Point
        133 deg C @ 0.8 kPa
   from [2]HSDB

   Other Chemical/Physical Properties

     * The log Kow cannot be measured due to surface-active properties.
       /Anion/
     * Solubility decreases with increased salt content, e.g. the K salt
       of PFOS has a solubility of 370 mg/l in fresh water and 124 mg/l in
       sea water. /K salt/
     * VP: 3.31X10-4 Pa @ 20 deg C (2.483X10-6 mm Hg) /K salt/

   from [3]HSDB

   Computed Properties
   Molecular Weight                  500.129594 [g/mol]
   Molecular Formula                 C[8]HF[17]O[3]S
   XLogP3-AA                         5
   H-Bond Donor                      1
   H-Bond Acceptor                   20
   Rotatable Bond Count              7
   Exact Mass                        499.937495
   MonoIsotopic Mass                 499.937495
   Topological Polar Surface Area    62.8
   Heavy Atom Count                  29
   Formal Charge                     0
   Complexity                        727
   Isotope Atom Count                0
   Defined Atom Stereocenter Count   0
   Undefined Atom Stereocenter Count 0
   Defined Bond Stereocenter Count   0
   Undefined Bond Stereocenter Count 0
   Covalently-Bonded Unit Count      1
   Feature 3D Acceptor Count         3
   Feature 3D Anion Count            1
   Effective Rotor Count             8
   Conformer Sampling RMSD           1
   CID Conformer Count               [4]239

References

   1. http://toxnet.nlm.nih.gov/cgi-bin/sis/search/r?dbs+hsdb:@term+@rn+@rel+1763-23-1
   2. http://toxnet.nlm.nih.gov/cgi-bin/sis/search/r?dbs+hsdb:@term+@rn+@rel+1763-23-1
   3. http://toxnet.nlm.nih.gov/cgi-bin/sis/search/r?dbs+hsdb:@term+@rn+@rel+1763-23-1
   4. http://pubchem.ncbi.nlm.nih.gov/vw3d/vw3d.cgi?cid=74483
