72493
  -OEChem-07051212462D

109112  0     1  0  0  0  0  0999 V2000
    5.5010   -3.3660    0.0000 O   0  0  0  0  0  0  0  0  0  0  0  0
    8.5991   -1.0000    0.0000 O   0  0  0  0  0  0  0  0  0  0  0  0
    6.8671    2.0000    0.0000 O   0  0  0  0  0  0  0  0  0  0  0  0
    7.7331   -2.5000    0.0000 O   0  0  0  0  0  0  0  0  0  0  0  0
    5.1350   -1.0000    0.0000 O   0  0  0  0  0  0  0  0  0  0  0  0
    4.2690    0.5000    0.0000 O   0  0  0  0  0  0  0  0  0  0  0  0
    2.5369   -2.5000    0.0000 O   0  0  0  0  0  0  0  0  0  0  0  0
    7.7331    3.5000    0.0000 O   0  0  0  0  0  0  0  0  0  0  0  0
   10.3312   -2.0000    0.0000 O   0  0  0  0  0  0  0  0  0  0  0  0
    5.1350    2.0000    0.0000 O   0  0  0  0  0  0  0  0  0  0  0  0
   10.3312    2.0000    0.0000 O   0  0  0  0  0  0  0  0  0  0  0  0
   10.3312    4.0000    0.0000 O   0  0  0  0  0  0  0  0  0  0  0  0
   10.3312   -4.0000    0.0000 N   0  0  0  0  0  0  0  0  0  0  0  0
    6.0010   -2.5000    0.0000 C   0  0  2  0  0  0  0  0  0  0  0  0
    6.8671   -2.0000    0.0000 C   0  0  0  0  0  0  0  0  0  0  0  0
    6.8671   -1.0000    0.0000 C   0  0  1  0  0  0  0  0  0  0  0  0
    7.7331   -0.5000    0.0000 C   0  0  1  0  0  0  0  0  0  0  0  0
    6.5010   -3.3660    0.0000 C   0  0  0  0  0  0  0  0  0  0  0  0
    7.7331    0.5000    0.0000 C   0  0  2  0  0  0  0  0  0  0  0  0
    5.1350   -2.0000    0.0000 C   0  0  0  0  0  0  0  0  0  0  0  0
    6.8671    1.0000    0.0000 C   0  0  1  0  0  0  0  0  0  0  0  0
    4.2690   -2.5000    0.0000 C   0  0  1  0  0  0  0  0  0  0  0  0
    6.0010   -0.5000    0.0000 C   0  0  0  0  0  0  0  0  0  0  0  0
    3.4030   -2.0000    0.0000 C   0  0  2  0  0  0  0  0  0  0  0  0
    6.0010    0.5000    0.0000 C   0  0  2  0  0  0  0  0  0  0  0  0
    8.5991   -2.0000    0.0000 C   0  0  2  0  0  0  0  0  0  0  0  0
    8.5991    1.0000    0.0000 C   0  0  0  0  0  0  0  0  0  0  0  0
    3.4030   -1.0000    0.0000 C   0  0  2  0  0  0  0  0  0  0  0  0
    9.4651   -2.5000    0.0000 C   0  0  1  0  0  0  0  0  0  0  0  0
    9.4651   -3.5000    0.0000 C   0  0  2  0  0  0  0  0  0  0  0  0
    4.2690   -3.5000    0.0000 C   0  0  0  0  0  0  0  0  0  0  0  0
    4.2690   -0.5000    0.0000 C   0  0  1  0  0  0  0  0  0  0  0  0
    8.5991   -4.0000    0.0000 C   0  0  0  0  0  0  0  0  0  0  0  0
    7.7331   -3.5000    0.0000 C   0  0  1  0  0  0  0  0  0  0  0  0
    7.7331    2.5000    0.0000 C   0  0  2  0  0  0  0  0  0  0  0  0
    5.1350    1.0000    0.0000 C   0  0  0  0  0  0  0  0  0  0  0  0
    5.1351   -0.0001    0.0000 C   0  0  0  0  0  0  0  0  0  0  0  0
    8.5991    2.0000    0.0000 C   0  0  0  0  0  0  0  0  0  0  0  0
    2.5369   -0.5000    0.0000 C   0  0  0  0  0  0  0  0  0  0  0  0
    9.4651    2.5000    0.0000 C   0  0  1  0  0  0  0  0  0  0  0  0
    9.4651    3.5000    0.0000 C   0  0  2  0  0  0  0  0  0  0  0  0
    8.5991    4.0000    0.0000 C   0  0  2  0  0  0  0  0  0  0  0  0
    4.2690   -1.5000    0.0000 C   0  0  0  0  0  0  0  0  0  0  0  0
    6.8671   -4.0000    0.0000 C   0  0  0  0  0  0  0  0  0  0  0  0
   10.3312   -5.0000    0.0000 C   0  0  0  0  0  0  0  0  0  0  0  0
   11.1972   -3.5000    0.0000 C   0  0  0  0  0  0  0  0  0  0  0  0
    8.5991    5.0000    0.0000 C   0  0  0  0  0  0  0  0  0  0  0  0
   11.1972    2.5000    0.0000 C   0  0  0  0  0  0  0  0  0  0  0  0
    7.0791   -2.5826    0.0000 H   0  0  0  0  0  0  0  0  0  0  0  0
    7.4776   -1.8923    0.0000 H   0  0  0  0  0  0  0  0  0  0  0  0
    6.3301   -1.3100    0.0000 H   0  0  0  0  0  0  0  0  0  0  0  0
    7.7331   -1.1200    0.0000 H   0  0  0  0  0  0  0  0  0  0  0  0
    6.6087   -3.9766    0.0000 H   0  0  0  0  0  0  0  0  0  0  0  0
    7.0836   -3.1540    0.0000 H   0  0  0  0  0  0  0  0  0  0  0  0
    7.7331    1.1200    0.0000 H   0  0  0  0  0  0  0  0  0  0  0  0
    6.3301    1.3100    0.0000 H   0  0  0  0  0  0  0  0  0  0  0  0
    4.8059   -2.8100    0.0000 H   0  0  0  0  0  0  0  0  0  0  0  0
    6.3110    0.0369    0.0000 H   0  0  0  0  0  0  0  0  0  0  0  0
    5.4641   -0.1900    0.0000 H   0  0  0  0  0  0  0  0  0  0  0  0
    5.6910   -1.0369    0.0000 H   0  0  0  0  0  0  0  0  0  0  0  0
    3.4030   -2.6200    0.0000 H   0  0  0  0  0  0  0  0  0  0  0  0
    6.3111   -0.0369    0.0000 H   0  0  0  0  0  0  0  0  0  0  0  0
    8.0622   -1.6900    0.0000 H   0  0  0  0  0  0  0  0  0  0  0  0
    8.9091    0.4631    0.0000 H   0  0  0  0  0  0  0  0  0  0  0  0
    9.1360    1.3100    0.0000 H   0  0  0  0  0  0  0  0  0  0  0  0
    8.2891    1.5369    0.0000 H   0  0  0  0  0  0  0  0  0  0  0  0
    3.4030   -0.3800    0.0000 H   0  0  0  0  0  0  0  0  0  0  0  0
   10.0021   -2.8100    0.0000 H   0  0  0  0  0  0  0  0  0  0  0  0
   10.0021   -3.1900    0.0000 H   0  0  0  0  0  0  0  0  0  0  0  0
    3.6490   -3.5000    0.0000 H   0  0  0  0  0  0  0  0  0  0  0  0
    4.2690   -4.1200    0.0000 H   0  0  0  0  0  0  0  0  0  0  0  0
    4.8890   -3.5000    0.0000 H   0  0  0  0  0  0  0  0  0  0  0  0
    4.8890   -0.5000    0.0000 H   0  0  0  0  0  0  0  0  0  0  0  0
    8.2006   -4.4750    0.0000 H   0  0  0  0  0  0  0  0  0  0  0  0
    8.9976   -4.4750    0.0000 H   0  0  0  0  0  0  0  0  0  0  0  0
    7.1962   -3.1900    0.0000 H   0  0  0  0  0  0  0  0  0  0  0  0
    7.7331    1.8800    0.0000 H   0  0  0  0  0  0  0  0  0  0  0  0
    4.8250    0.5368    0.0000 H   0  0  0  0  0  0  0  0  0  0  0  0
    4.5982   -0.3101    0.0000 H   0  0  0  0  0  0  0  0  0  0  0  0
    5.4451   -0.5370    0.0000 H   0  0  0  0  0  0  0  0  0  0  0  0
    8.2006    1.5250    0.0000 H   0  0  0  0  0  0  0  0  0  0  0  0
    8.9976    1.5250    0.0000 H   0  0  0  0  0  0  0  0  0  0  0  0
    2.8469    0.0369    0.0000 H   0  0  0  0  0  0  0  0  0  0  0  0
    2.0000   -0.1900    0.0000 H   0  0  0  0  0  0  0  0  0  0  0  0
    2.2269   -1.0369    0.0000 H   0  0  0  0  0  0  0  0  0  0  0  0
   10.0021    2.8100    0.0000 H   0  0  0  0  0  0  0  0  0  0  0  0
   10.0021    3.1900    0.0000 H   0  0  0  0  0  0  0  0  0  0  0  0
    2.0000   -2.1900    0.0000 H   0  0  0  0  0  0  0  0  0  0  0  0
    8.0622    4.3100    0.0000 H   0  0  0  0  0  0  0  0  0  0  0  0
    3.6490   -1.5000    0.0000 H   0  0  0  0  0  0  0  0  0  0  0  0
    4.2690   -2.1200    0.0000 H   0  0  0  0  0  0  0  0  0  0  0  0
    4.8890   -1.5000    0.0000 H   0  0  0  0  0  0  0  0  0  0  0  0
    6.5571   -3.4631    0.0000 H   0  0  0  0  0  0  0  0  0  0  0  0
    6.3301   -4.3100    0.0000 H   0  0  0  0  0  0  0  0  0  0  0  0
    7.1771   -4.5369    0.0000 H   0  0  0  0  0  0  0  0  0  0  0  0
   10.3312   -1.3800    0.0000 H   0  0  0  0  0  0  0  0  0  0  0  0
    9.7112   -5.0000    0.0000 H   0  0  0  0  0  0  0  0  0  0  0  0
   10.3312   -5.6200    0.0000 H   0  0  0  0  0  0  0  0  0  0  0  0
   10.9512   -5.0000    0.0000 H   0  0  0  0  0  0  0  0  0  0  0  0
   11.5072   -4.0369    0.0000 H   0  0  0  0  0  0  0  0  0  0  0  0
   11.7341   -3.1900    0.0000 H   0  0  0  0  0  0  0  0  0  0  0  0
   10.8872   -2.9631    0.0000 H   0  0  0  0  0  0  0  0  0  0  0  0
    9.2191    5.0000    0.0000 H   0  0  0  0  0  0  0  0  0  0  0  0
    8.5991    5.6200    0.0000 H   0  0  0  0  0  0  0  0  0  0  0  0
    7.9791    5.0000    0.0000 H   0  0  0  0  0  0  0  0  0  0  0  0
   10.3312    4.6200    0.0000 H   0  0  0  0  0  0  0  0  0  0  0  0
   11.5072    1.9631    0.0000 H   0  0  0  0  0  0  0  0  0  0  0  0
   11.7341    2.8100    0.0000 H   0  0  0  0  0  0  0  0  0  0  0  0
   10.8872    3.0369    0.0000 H   0  0  0  0  0  0  0  0  0  0  0  0
 14  1  1  6  0  0  0
  1 18  1  0  0  0  0
 17  2  1  1  0  0  0
 26  2  1  1  0  0  0
 21  3  1  1  0  0  0
 35  3  1  6  0  0  0
  4 26  1  0  0  0  0
  4 34  1  0  0  0  0
  5 20  2  0  0  0  0
  6 32  1  0  0  0  0
  6 36  1  0  0  0  0
 24  7  1  1  0  0  0
  7 88  1  0  0  0  0
  8 35  1  0  0  0  0
  8 42  1  0  0  0  0
 29  9  1  6  0  0  0
  9 96  1  0  0  0  0
 10 36  2  0  0  0  0
 40 11  1  1  0  0  0
 11 48  1  0  0  0  0
 41 12  1  6  0  0  0
 12106  1  0  0  0  0
 30 13  1  1  0  0  0
 13 45  1  0  0  0  0
 13 46  1  0  0  0  0
 14 15  1  0  0  0  0
 14 18  1  0  0  0  0
 14 20  1  0  0  0  0
 15 16  1  0  0  0  0
 15 49  1  0  0  0  0
 15 50  1  0  0  0  0
 16 17  1  0  0  0  0
 16 23  1  6  0  0  0
 16 51  1  0  0  0  0
 17 19  1  0  0  0  0
 17 52  1  0  0  0  0
 18 53  1  0  0  0  0
 18 54  1  0  0  0  0
 19 21  1  0  0  0  0
 19 27  1  6  0  0  0
 19 55  1  0  0  0  0
 20 22  1  0  0  0  0
 21 25  1  0  0  0  0
 21 56  1  0  0  0  0
 22 24  1  0  0  0  0
 22 31  1  6  0  0  0
 22 57  1  0  0  0  0
 23 58  1  0  0  0  0
 23 59  1  0  0  0  0
 23 60  1  0  0  0  0
 24 28  1  0  0  0  0
 24 61  1  0  0  0  0
 25 36  1  0  0  0  0
 25 37  1  1  0  0  0
 25 62  1  0  0  0  0
 26 29  1  0  0  0  0
 26 63  1  0  0  0  0
 27 64  1  0  0  0  0
 27 65  1  0  0  0  0
 27 66  1  0  0  0  0
 28 32  1  0  0  0  0
 28 39  1  1  0  0  0
 28 67  1  0  0  0  0
 29 30  1  0  0  0  0
 29 68  1  0  0  0  0
 30 33  1  0  0  0  0
 30 69  1  0  0  0  0
 31 70  1  0  0  0  0
 31 71  1  0  0  0  0
 31 72  1  0  0  0  0
 32 43  1  6  0  0  0
 32 73  1  0  0  0  0
 33 34  1  0  0  0  0
 33 74  1  0  0  0  0
 33 75  1  0  0  0  0
 34 44  1  1  0  0  0
 34 76  1  0  0  0  0
 35 38  1  0  0  0  0
 35 77  1  0  0  0  0
 37 78  1  0  0  0  0
 37 79  1  0  0  0  0
 37 80  1  0  0  0  0
 38 40  1  0  0  0  0
 38 81  1  0  0  0  0
 38 82  1  0  0  0  0
 39 83  1  0  0  0  0
 39 84  1  0  0  0  0
 39 85  1  0  0  0  0
 40 41  1  0  0  0  0
 40 86  1  0  0  0  0
 41 42  1  0  0  0  0
 41 87  1  0  0  0  0
 42 47  1  1  0  0  0
 42 89  1  0  0  0  0
 43 90  1  0  0  0  0
 43 91  1  0  0  0  0
 43 92  1  0  0  0  0
 44 93  1  0  0  0  0
 44 94  1  0  0  0  0
 44 95  1  0  0  0  0
 45 97  1  0  0  0  0
 45 98  1  0  0  0  0
 45 99  1  0  0  0  0
 46100  1  0  0  0  0
 46101  1  0  0  0  0
 46102  1  0  0  0  0
 47103  1  0  0  0  0
 47104  1  0  0  0  0
 47105  1  0  0  0  0
 48107  1  0  0  0  0
 48108  1  0  0  0  0
 48109  1  0  0  0  0
M  END
> <PUBCHEM_COMPOUND_CID>
72493

> <PUBCHEM_COMPOUND_CANONICALIZED>
1

> <PUBCHEM_CACTVS_COMPLEXITY>
1090

> <PUBCHEM_CACTVS_HBOND_ACCEPTOR>
13

> <PUBCHEM_CACTVS_HBOND_DONOR>
3

> <PUBCHEM_CACTVS_ROTATABLE_BOND>
6

> <PUBCHEM_CACTVS_SUBSKEYS>
AAADcfB+PAAAAAAAAAAAAAAAEgAAAAAAAAAkSAAAAAAAAAAAAAAAHgAACAAADXzxgAcCCAMABgAIAICQCAIAAAAAAAAAAAFIAAATEBYAgAQmQAAHIAAXAAHI7PzOAAAAAAAAAAAAAAAAAAAAAAAAAAAAAA==

> <PUBCHEM_IUPAC_OPENEYE_NAME>
(14R,15R,16S,17R,18R,21R,22S,23R,24S,25S)-24-[(2S,3R,4S,6R)-4-(dimethylamino)-3-hydroxy-6-methyl-tetrahydropyran-2-yl]oxy-16-hydroxy-22-[(2R,4S,5S,6S)-5-hydroxy-4-methoxy-6-methyl-tetrahydropyran-2-yl]oxy-15,17,18,21,23,25-hexamethyl-1,19-dioxaspiro[2.13]hexadecane-14,20-dione

> <PUBCHEM_IUPAC_CAS_NAME>
(14R,15R,16S,17R,18R,21R,22S,23R,24S,25S)-24-[[(2S,3R,4S,6R)-4-(dimethylamino)-3-hydroxy-6-methyl-2-oxanyl]oxy]-16-hydroxy-22-[[(2R,4S,5S,6S)-5-hydroxy-4-methoxy-6-methyl-2-oxanyl]oxy]-15,17,18,21,23,25-hexamethyl-1,19-dioxaspiro[2.13]hexadecane-14,20-dione

> <PUBCHEM_IUPAC_NAME>
(14R,15R,16S,17R,18R,21R,22S,23R,24S,25S)-24-[(2S,3R,4S,6R)-4-(dimethylamino)-3-hydroxy-6-methyloxan-2-yl]oxy-16-hydroxy-22-[(2R,4S,5S,6S)-5-hydroxy-4-methoxy-6-methyloxan-2-yl]oxy-15,17,18,21,23,25-hexamethyl-1,19-dioxaspiro[2.13]hexadecane-14,20-dione

> <PUBCHEM_IUPAC_SYSTEMATIC_NAME>
(14R,15R,16S,17R,18R,21R,22S,23R,24S,25S)-24-[(2S,3R,4S,6R)-4-(dimethylamino)-6-methyl-3-oxidanyl-oxan-2-yl]oxy-22-[(2R,4S,5S,6S)-4-methoxy-6-methyl-5-oxidanyl-oxan-2-yl]oxy-15,17,18,21,23,25-hexamethyl-16-oxidanyl-1,19-dioxaspiro[2.13]hexadecane-14,20-dione

> <PUBCHEM_IUPAC_TRADITIONAL_NAME>
(14R,15R,16S,17R,18R,21R,22S,23R,24S,25S)-24-[(2S,3R,4S,6R)-4-(dimethylamino)-3-hydroxy-6-methyl-tetrahydropyran-2-yl]oxy-16-hydroxy-22-[(2R,4S,5S,6S)-5-hydroxy-4-methoxy-6-methyl-tetrahydropyran-2-yl]oxy-15,17,18,21,23,25-hexamethyl-1,19-dioxaspiro[2.13]hexadecane-14,20-quinone

> <PUBCHEM_IUPAC_INCHI>
InChI=1S/C35H61NO12/c1-16-14-35(15-43-35)32(40)19(4)27(37)18(3)22(7)46-33(41)21(6)31(47-26-13-25(42-11)28(38)23(8)45-26)20(5)30(16)48-34-29(39)24(36(9)10)12-17(2)44-34/h16-31,34,37-39H,12-15H2,1-11H3/t16-,17+,18-,19+,20+,21+,22+,23-,24-,25-,26-,27-,28-,29+,30-,31-,34-,35+/m0/s1

> <PUBCHEM_IUPAC_INCHIKEY>
RZPAKFUAFGMUPI-QESOVKLGSA-N

> <PUBCHEM_XLOGP3_AA>
2.6

> <PUBCHEM_EXACT_MASS>
687.419376

> <PUBCHEM_MOLECULAR_FORMULA>
C35H61NO12

> <PUBCHEM_MOLECULAR_WEIGHT>
687.85834

> <PUBCHEM_OPENEYE_CAN_SMILES>
CC1CC(C(C(O1)OC2C(CC3(CO3)C(=O)C(C(C(C(OC(=O)C(C(C2C)OC4CC(C(C(O4)C)O)OC)C)C)C)O)C)C)O)N(C)C

> <PUBCHEM_OPENEYE_ISO_SMILES>
C[C@@H]1C[C@@H]([C@H]([C@@H](O1)O[C@H]2[C@H](C[C@@]3(CO3)C(=O)[C@@H]([C@H]([C@H]([C@H](OC(=O)[C@@H]([C@H]([C@@H]2C)O[C@H]4C[C@@H]([C@H]([C@@H](O4)C)O)OC)C)C)C)O)C)C)O)N(C)C

> <PUBCHEM_CACTVS_TPSA>
166

> <PUBCHEM_MONOISOTOPIC_WEIGHT>
687.419376

> <PUBCHEM_TOTAL_CHARGE>
0

> <PUBCHEM_HEAVY_ATOM_COUNT>
48

> <PUBCHEM_ATOM_DEF_STEREO_COUNT>
18

> <PUBCHEM_ATOM_UDEF_STEREO_COUNT>
0

> <PUBCHEM_BOND_DEF_STEREO_COUNT>
0

> <PUBCHEM_BOND_UDEF_STEREO_COUNT>
0

> <PUBCHEM_ISOTOPIC_ATOM_COUNT>
0

> <PUBCHEM_COMPONENT_COUNT>
1

> <PUBCHEM_CACTVS_TAUTO_COUNT>
4

> <PUBCHEM_COORDINATE_TYPE>
1
5
255

> <PUBCHEM_BONDANNOTATIONS>
14  1  6
40  11  5
41  12  6
30  13  5
16  23  6
19  27  6
17  2  5
26  2  5
22  31  6
25  37  5
28  39  5
21  3  5
35  3  6
32  43  6
34  44  5
42  47  5
24  7  5
29  9  6

$$$$

