46173891
  -OEChem-07051213102D

 47 48  0     1  0  0  0  0  0999 V2000
    4.6650   -0.4900    0.0000 O   0  0  0  0  0  0  0  0  0  0  0  0
    6.7528   -2.1651    0.0000 O   0  0  0  0  0  0  0  0  0  0  0  0
    2.0000   -2.5117    0.0000 O   0  0  0  0  0  0  0  0  0  0  0  0
    6.7528    1.2990    0.0000 O   0  0  0  0  0  0  0  0  0  0  0  0
    9.2528    2.1651    0.0000 O   0  0  0  0  0  0  0  0  0  0  0  0
    5.2528    0.4330    0.0000 O   0  0  0  0  0  0  0  0  0  0  0  0
    7.7528    1.2990    0.0000 O   0  0  0  0  0  0  0  0  0  0  0  0
   11.2528    0.4330    0.0000 O   0  0  0  0  0  0  0  0  0  0  0  0
    3.7139   -1.7990    0.0000 N   0  0  0  0  0  0  0  0  0  0  0  0
    7.7528   -0.4330    0.0000 N   0  0  0  0  0  0  0  0  0  0  0  0
    9.7528   -0.4330    0.0000 N   0  0  0  0  0  0  0  0  0  0  0  0
   12.2528    2.1651    0.0000 N   0  0  0  0  0  0  0  0  0  0  0  0
    3.7139   -0.7990    0.0000 C   0  0  2  0  0  0  0  0  0  0  0  0
    5.2528   -1.2990    0.0000 C   0  0  2  0  0  0  0  0  0  0  0  0
    4.6650   -2.1081    0.0000 C   0  0  0  0  0  0  0  0  0  0  0  0
    2.7056   -0.7949    0.0000 C   0  0  0  0  0  0  0  0  0  0  0  0
    6.2528   -1.2990    0.0000 C   0  0  3  0  0  0  0  0  0  0  0  0
    2.7056   -1.8032    0.0000 C   0  0  0  0  0  0  0  0  0  0  0  0
    6.7528   -0.4330    0.0000 C   0  0  1  0  0  0  0  0  0  0  0  0
    6.2528    0.4330    0.0000 C   0  0  0  0  0  0  0  0  0  0  0  0
    9.2528    0.4330    0.0000 C   0  0  2  0  0  0  0  0  0  0  0  0
    8.2528    0.4330    0.0000 C   0  0  0  0  0  0  0  0  0  0  0  0
    9.7528    1.2990    0.0000 C   0  0  3  0  0  0  0  0  0  0  0  0
   10.7528    1.2990    0.0000 C   0  0  3  0  0  0  0  0  0  0  0  0
   11.2528    2.1651    0.0000 C   0  0  0  0  0  0  0  0  0  0  0  0
    3.5827    0.0408    0.0000 H   0  0  0  0  0  0  0  0  0  0  0  0
    5.5342   -0.7466    0.0000 H   0  0  0  0  0  0  0  0  0  0  0  0
    4.4128   -2.6745    0.0000 H   0  0  0  0  0  0  0  0  0  0  0  0
    5.2019   -2.4181    0.0000 H   0  0  0  0  0  0  0  0  0  0  0  0
    2.7074   -0.1749    0.0000 H   0  0  0  0  0  0  0  0  0  0  0  0
    2.0856   -0.7940    0.0000 H   0  0  0  0  0  0  0  0  0  0  0  0
    6.8728   -1.2990    0.0000 H   0  0  0  0  0  0  0  0  0  0  0  0
    7.0628   -0.9699    0.0000 H   0  0  0  0  0  0  0  0  0  0  0  0
    8.0628   -0.9699    0.0000 H   0  0  0  0  0  0  0  0  0  0  0  0
    6.4428   -2.7020    0.0000 H   0  0  0  0  0  0  0  0  0  0  0  0
    8.9428   -0.1039    0.0000 H   0  0  0  0  0  0  0  0  0  0  0  0
    9.1328    1.2990    0.0000 H   0  0  0  0  0  0  0  0  0  0  0  0
   11.3728    1.2990    0.0000 H   0  0  0  0  0  0  0  0  0  0  0  0
   11.3604    2.7756    0.0000 H   0  0  0  0  0  0  0  0  0  0  0  0
   10.6702    2.3771    0.0000 H   0  0  0  0  0  0  0  0  0  0  0  0
   10.3728   -0.4330    0.0000 H   0  0  0  0  0  0  0  0  0  0  0  0
    9.4428   -0.9699    0.0000 H   0  0  0  0  0  0  0  0  0  0  0  0
    6.4428    1.8360    0.0000 H   0  0  0  0  0  0  0  0  0  0  0  0
    9.5628    2.7020    0.0000 H   0  0  0  0  0  0  0  0  0  0  0  0
   11.8728    0.4330    0.0000 H   0  0  0  0  0  0  0  0  0  0  0  0
   12.5628    2.7020    0.0000 H   0  0  0  0  0  0  0  0  0  0  0  0
   12.5628    1.6281    0.0000 H   0  0  0  0  0  0  0  0  0  0  0  0
  1 13  1  0  0  0  0
  1 14  1  0  0  0  0
  2 17  1  0  0  0  0
  2 35  1  0  0  0  0
  3 18  2  0  0  0  0
  4 20  1  0  0  0  0
  4 43  1  0  0  0  0
  5 23  1  0  0  0  0
  5 44  1  0  0  0  0
  6 20  2  0  0  0  0
  7 22  2  0  0  0  0
  8 24  1  0  0  0  0
  8 45  1  0  0  0  0
  9 13  1  0  0  0  0
  9 15  1  0  0  0  0
  9 18  1  0  0  0  0
 19 10  1  1  0  0  0
 10 22  1  0  0  0  0
 10 34  1  0  0  0  0
 21 11  1  6  0  0  0
 11 41  1  0  0  0  0
 11 42  1  0  0  0  0
 12 25  1  0  0  0  0
 12 46  1  0  0  0  0
 12 47  1  0  0  0  0
 13 16  1  0  0  0  0
 13 26  1  1  0  0  0
 14 15  1  0  0  0  0
 14 17  1  1  0  0  0
 14 27  1  0  0  0  0
 15 28  1  0  0  0  0
 15 29  1  0  0  0  0
 16 18  1  0  0  0  0
 16 30  1  0  0  0  0
 16 31  1  0  0  0  0
 17 19  1  0  0  0  0
 17 32  1  0  0  0  0
 19 20  1  0  0  0  0
 19 33  1  0  0  0  0
 21 22  1  0  0  0  0
 21 23  1  0  0  0  0
 21 36  1  0  0  0  0
 23 24  1  0  0  0  0
 23 37  1  0  0  0  0
 24 25  1  0  0  0  0
 24 38  1  0  0  0  0
 25 39  1  0  0  0  0
 25 40  1  0  0  0  0
M  END
> <PUBCHEM_COMPOUND_CID>
46173891

> <PUBCHEM_COMPOUND_CANONICALIZED>
1

> <PUBCHEM_CACTVS_COMPLEXITY>
546

> <PUBCHEM_CACTVS_HBOND_ACCEPTOR>
10

> <PUBCHEM_CACTVS_HBOND_DONOR>
7

> <PUBCHEM_CACTVS_ROTATABLE_BOND>
8

> <PUBCHEM_CACTVS_SUBSKEYS>
AAADceBzvAAAAAAAAAAAAAAAAABYAWAAAAAAAAAABYAAAAAAAAAAHgAQCAAACDzhgAYACAPABgAIAAGQGAAAAAAAAAAAAIGIAAADUB4AgCAfQAAHNgCTAAD6EQIAAAAAAAAAAAAAAAAAAAAAAAAAAAAAAA==

> <PUBCHEM_IUPAC_OPENEYE_NAME>
(2S)-2-[[(2S)-2,5-diamino-3,4-dihydroxy-pentanoyl]amino]-3-hydroxy-3-[(3R,5S)-7-oxo-4-oxa-1-azabicyclo[3.2.0]heptan-3-yl]propanoic acid

> <PUBCHEM_IUPAC_CAS_NAME>
(2S)-2-[[(2S)-2,5-diamino-3,4-dihydroxy-1-oxopentyl]amino]-3-hydroxy-3-[(3R,5S)-7-oxo-4-oxa-1-azabicyclo[3.2.0]heptan-3-yl]propanoic acid

> <PUBCHEM_IUPAC_NAME>
(2S)-2-[[(2S)-2,5-diamino-3,4-dihydroxypentanoyl]amino]-3-hydroxy-3-[(3R,5S)-7-oxo-4-oxa-1-azabicyclo[3.2.0]heptan-3-yl]propanoic acid

> <PUBCHEM_IUPAC_SYSTEMATIC_NAME>
(2S)-2-[[(2S)-2,5-bis(azanyl)-3,4-bis(oxidanyl)pentanoyl]amino]-3-oxidanyl-3-[(3R,5S)-7-oxidanylidene-4-oxa-1-azabicyclo[3.2.0]heptan-3-yl]propanoic acid

> <PUBCHEM_IUPAC_TRADITIONAL_NAME>
(2S)-2-[[(2S)-2,5-diamino-3,4-dihydroxy-pentanoyl]amino]-3-hydroxy-3-[(3R,5S)-7-keto-4-oxa-1-azabicyclo[3.2.0]heptan-3-yl]propionic acid

> <PUBCHEM_IUPAC_INCHI>
InChI=1S/C13H22N4O8/c14-2-4(18)10(20)8(15)12(22)16-9(13(23)24)11(21)5-3-17-6(19)1-7(17)25-5/h4-5,7-11,18,20-21H,1-3,14-15H2,(H,16,22)(H,23,24)/t4?,5-,7+,8+,9+,10?,11?/m1/s1

> <PUBCHEM_IUPAC_INCHIKEY>
ISKGECSIKHPJAO-PBZUXATNSA-N

> <PUBCHEM_XLOGP3_AA>
-7.7

> <PUBCHEM_EXACT_MASS>
362.143764

> <PUBCHEM_MOLECULAR_FORMULA>
C13H22N4O8

> <PUBCHEM_MOLECULAR_WEIGHT>
362.33578

> <PUBCHEM_OPENEYE_CAN_SMILES>
C1C2N(C1=O)CC(O2)C(C(C(=O)O)NC(=O)C(C(C(CN)O)O)N)O

> <PUBCHEM_OPENEYE_ISO_SMILES>
C1[C@H]2N(C1=O)C[C@@H](O2)C([C@@H](C(=O)O)NC(=O)[C@H](C(C(CN)O)O)N)O

> <PUBCHEM_CACTVS_TPSA>
209

> <PUBCHEM_MONOISOTOPIC_WEIGHT>
362.143764

> <PUBCHEM_TOTAL_CHARGE>
0

> <PUBCHEM_HEAVY_ATOM_COUNT>
25

> <PUBCHEM_ATOM_DEF_STEREO_COUNT>
4

> <PUBCHEM_ATOM_UDEF_STEREO_COUNT>
3

> <PUBCHEM_BOND_DEF_STEREO_COUNT>
0

> <PUBCHEM_BOND_UDEF_STEREO_COUNT>
0

> <PUBCHEM_ISOTOPIC_ATOM_COUNT>
0

> <PUBCHEM_COMPONENT_COUNT>
1

> <PUBCHEM_CACTVS_TAUTO_COUNT>
4

> <PUBCHEM_COORDINATE_TYPE>
1
5
255

> <PUBCHEM_BONDANNOTATIONS>
19  10  5
21  11  6
13  26  5
14  17  5
17  2  3
23  5  3
24  8  3

$$$$

