17396088
  -OEChem-06241222542D

 37 38  0     1  0  0  0  0  0999 V2000
    2.0000   -1.5000    0.0000 F   0  0  0  0  0  0  0  0  0  0  0  0
    3.7320   -4.5000    0.0000 F   0  0  0  0  0  0  0  0  0  0  0  0
    5.4641   -0.5000    0.0000 O   0  0  0  0  0  0  0  0  0  0  0  0
    5.4641    1.5000    0.0000 N   0  0  0  0  0  0  0  0  0  0  0  0
    3.7320   -0.5000    0.0000 N   0  0  0  0  0  0  0  0  0  0  0  0
    5.4641    2.5000    0.0000 C   0  0  3  0  0  0  0  0  0  0  0  0
    6.3301    3.0000    0.0000 C   0  0  0  0  0  0  0  0  0  0  0  0
    4.5981    3.0000    0.0000 C   0  0  0  0  0  0  0  0  0  0  0  0
    4.5981    1.0000    0.0000 C   0  0  0  0  0  0  0  0  0  0  0  0
    7.1962    2.5000    0.0000 C   0  0  0  0  0  0  0  0  0  0  0  0
    6.3301    4.0000    0.0000 C   0  0  0  0  0  0  0  0  0  0  0  0
    4.5981    0.0000    0.0000 C   0  0  0  0  0  0  0  0  0  0  0  0
    8.0622    3.0000    0.0000 C   0  0  0  0  0  0  0  0  0  0  0  0
    7.1962    4.5000    0.0000 C   0  0  0  0  0  0  0  0  0  0  0  0
    3.7320   -1.5000    0.0000 C   0  0  0  0  0  0  0  0  0  0  0  0
    8.0622    4.0000    0.0000 C   0  0  0  0  0  0  0  0  0  0  0  0
    2.8660   -2.0000    0.0000 C   0  0  0  0  0  0  0  0  0  0  0  0
    4.5981   -2.0000    0.0000 C   0  0  0  0  0  0  0  0  0  0  0  0
    2.8660   -3.0000    0.0000 C   0  0  0  0  0  0  0  0  0  0  0  0
    4.5981   -3.0000    0.0000 C   0  0  0  0  0  0  0  0  0  0  0  0
    3.7320   -3.5000    0.0000 C   0  0  0  0  0  0  0  0  0  0  0  0
    6.0010    2.1900    0.0000 H   0  0  0  0  0  0  0  0  0  0  0  0
    6.0010    1.1900    0.0000 H   0  0  0  0  0  0  0  0  0  0  0  0
    4.9081    3.5369    0.0000 H   0  0  0  0  0  0  0  0  0  0  0  0
    4.0611    3.3100    0.0000 H   0  0  0  0  0  0  0  0  0  0  0  0
    4.2881    2.4631    0.0000 H   0  0  0  0  0  0  0  0  0  0  0  0
    4.3860    1.5826    0.0000 H   0  0  0  0  0  0  0  0  0  0  0  0
    3.9875    0.8923    0.0000 H   0  0  0  0  0  0  0  0  0  0  0  0
    7.1962    1.8800    0.0000 H   0  0  0  0  0  0  0  0  0  0  0  0
    5.7932    4.3100    0.0000 H   0  0  0  0  0  0  0  0  0  0  0  0
    8.5991    2.6900    0.0000 H   0  0  0  0  0  0  0  0  0  0  0  0
    7.1962    5.1200    0.0000 H   0  0  0  0  0  0  0  0  0  0  0  0
    3.1951   -0.1900    0.0000 H   0  0  0  0  0  0  0  0  0  0  0  0
    8.5991    4.3100    0.0000 H   0  0  0  0  0  0  0  0  0  0  0  0
    5.1350   -1.6900    0.0000 H   0  0  0  0  0  0  0  0  0  0  0  0
    2.3291   -3.3100    0.0000 H   0  0  0  0  0  0  0  0  0  0  0  0
    5.1350   -3.3100    0.0000 H   0  0  0  0  0  0  0  0  0  0  0  0
  1 17  1  0  0  0  0
  2 21  1  0  0  0  0
  3 12  2  0  0  0  0
  4  6  1  0  0  0  0
  4  9  1  0  0  0  0
  4 23  1  0  0  0  0
  5 12  1  0  0  0  0
  5 15  1  0  0  0  0
  5 33  1  0  0  0  0
  6  7  1  0  0  0  0
  6  8  1  0  0  0  0
  6 22  1  0  0  0  0
  7 10  2  0  0  0  0
  7 11  1  0  0  0  0
  8 24  1  0  0  0  0
  8 25  1  0  0  0  0
  8 26  1  0  0  0  0
  9 12  1  0  0  0  0
  9 27  1  0  0  0  0
  9 28  1  0  0  0  0
 10 13  1  0  0  0  0
 10 29  1  0  0  0  0
 11 14  2  0  0  0  0
 11 30  1  0  0  0  0
 13 16  2  0  0  0  0
 13 31  1  0  0  0  0
 14 16  1  0  0  0  0
 14 32  1  0  0  0  0
 15 17  2  0  0  0  0
 15 18  1  0  0  0  0
 16 34  1  0  0  0  0
 17 19  1  0  0  0  0
 18 20  2  0  0  0  0
 18 35  1  0  0  0  0
 19 21  2  0  0  0  0
 19 36  1  0  0  0  0
 20 21  1  0  0  0  0
 20 37  1  0  0  0  0
M  END
> <PUBCHEM_COMPOUND_CID>
17396088

> <PUBCHEM_COMPOUND_CANONICALIZED>
1

> <PUBCHEM_CACTVS_COMPLEXITY>
334

> <PUBCHEM_CACTVS_HBOND_ACCEPTOR>
4

> <PUBCHEM_CACTVS_HBOND_DONOR>
2

> <PUBCHEM_CACTVS_ROTATABLE_BOND>
5

> <PUBCHEM_CACTVS_SUBSKEYS>
AAADceB7IYAAAAAAAAAAAAAAAAAAAAAAAAAwYAAAAAAAAAABQAAAHwAQAAAADCjBmAwywILAAACIAiVSUACCAAAhAgAIiICIZIgIYCLAkbGUIAhglADIyAcQgIAOAAAAAAAAAAAAAAAAAAAAAAAAAAAAAA==

> <PUBCHEM_IUPAC_OPENEYE_NAME>
N-(2,4-difluorophenyl)-2-(1-phenylethylamino)acetamide

> <PUBCHEM_IUPAC_CAS_NAME>
N-(2,4-difluorophenyl)-2-(1-phenylethylamino)acetamide

> <PUBCHEM_IUPAC_NAME>
N-(2,4-difluorophenyl)-2-(1-phenylethylamino)acetamide

> <PUBCHEM_IUPAC_SYSTEMATIC_NAME>
N-[2,4-bis(fluoranyl)phenyl]-2-(1-phenylethylamino)ethanamide

> <PUBCHEM_IUPAC_TRADITIONAL_NAME>
N-(2,4-difluorophenyl)-2-(1-phenylethylamino)acetamide

> <PUBCHEM_IUPAC_INCHI>
InChI=1S/C16H16F2N2O/c1-11(12-5-3-2-4-6-12)19-10-16(21)20-15-8-7-13(17)9-14(15)18/h2-9,11,19H,10H2,1H3,(H,20,21)

> <PUBCHEM_IUPAC_INCHIKEY>
CFAGYCFMTKELHN-UHFFFAOYSA-N

> <PUBCHEM_XLOGP3_AA>
2.8

> <PUBCHEM_EXACT_MASS>
290.12307

> <PUBCHEM_MOLECULAR_FORMULA>
C16H16F2N2O

> <PUBCHEM_MOLECULAR_WEIGHT>
290.307846

> <PUBCHEM_OPENEYE_CAN_SMILES>
CC(C1=CC=CC=C1)NCC(=O)NC2=C(C=C(C=C2)F)F

> <PUBCHEM_OPENEYE_ISO_SMILES>
CC(C1=CC=CC=C1)NCC(=O)NC2=C(C=C(C=C2)F)F

> <PUBCHEM_CACTVS_TPSA>
41.1

> <PUBCHEM_MONOISOTOPIC_WEIGHT>
290.12307

> <PUBCHEM_TOTAL_CHARGE>
0

> <PUBCHEM_HEAVY_ATOM_COUNT>
21

> <PUBCHEM_ATOM_DEF_STEREO_COUNT>
0

> <PUBCHEM_ATOM_UDEF_STEREO_COUNT>
1

> <PUBCHEM_BOND_DEF_STEREO_COUNT>
0

> <PUBCHEM_BOND_UDEF_STEREO_COUNT>
0

> <PUBCHEM_ISOTOPIC_ATOM_COUNT>
0

> <PUBCHEM_COMPONENT_COUNT>
1

> <PUBCHEM_CACTVS_TAUTO_COUNT>
3

> <PUBCHEM_COORDINATE_TYPE>
1
5
255

> <PUBCHEM_BONDANNOTATIONS>
10  13  8
11  14  8
13  16  8
14  16  8
15  17  8
15  18  8
17  19  8
18  20  8
19  21  8
20  21  8
6  8  3
7  10  8
7  11  8

$$$$

