   Color/Form

     * Liquid at room temperature
     * Clear, oily liquid

   from [1]HSDB

   Boiling Point
        242 deg C at 0.002 mm Hg
   from [2]HSDB

   Melting Point
        25 deg C
   from [3]HSDB

   Density/Specific Gravity
        0.978 at 20 deg C
   from [4]HSDB

   Octanol/Water Partition Coefficient
        log Kow = 8.10
   from [5]HSDB

   Solubilities
        In water, 0.022 mg/L at 25 deg C
   from [6]HSDB

   Spectral Properties

     * Index of refraction = 1.485 at 20 deg C/D
     * MASS: 23605 (NIST/EPA/MSDC Mass Spectral database, 1990 version);
       1917 (Atlas of Mass Spectral Data, John Wiley & Sons, New York)
     * IR: 2215 (Coblentz Society Spectral Collection)
     * UV: 226 (Sadtler Research Laboratories Spectral Collection)
     * Raman: 483 (Sadtler Research Laboratories Spectral Collection)
     * 1H NMR: 10218 (Sadtler Research Laboratories Spectral Collection)

   from [7]HSDB

   Vapor Pressure
        1.0X10-7 mm Hg at 25 deg C
   from [8]HSDB

   Viscosity
        39 mPa.s at 20 deg C
   from [9]HSDB

   Other Chemical/Physical Properties

     * VP: 2.60X10-6 mm Hg at 25 deg C
     * Volatility of di-n-octyl phthalate from polyvinyl chloride resin
       for 24 hr at 87 deg C over activated charcoal was 2.2%.
     * Phthalate esters are soluble in many organic solvents and oils.
       /Phthalate esters/
     * Phthalate esters would be expected to have UV maxima in the 230 nm
       and 270 nm regions. /Phthalate esters/
     * ... Resistance to migration from polymers, low temperature
       flexibility ... compatibility with polar polymers and additives
       over a wide range of compositions. /Phthalate esters/
     * Henry's Law constant = 2.57X10-6 atm-cu m/mol at 25 deg C (est)
     * Hydroxyl radical reaction rate constant = 2.06X10-11 cu
       cm/molec-sec at 25 deg C (est)

   from [10]HSDB

   Computed Properties
   Molecular Weight                  390.55612 [g/mol]
   Molecular Formula                 C[24]H[38]O[4]
   XLogP3                            9.1
   H-Bond Donor                      0
   H-Bond Acceptor                   4
   Rotatable Bond Count              18
   Exact Mass                        390.27701
   MonoIsotopic Mass                 390.27701
   Topological Polar Surface Area    52.6
   Heavy Atom Count                  28
   Formal Charge                     0
   Complexity                        369
   Isotope Atom Count                0
   Defined Atom Stereocenter Count   0
   Undefined Atom Stereocenter Count 0
   Defined Bond Stereocenter Count   0
   Undefined Bond Stereocenter Count 0
   Covalently-Bonded Unit Count      1

References

   1. http://toxnet.nlm.nih.gov/cgi-bin/sis/search/r?dbs+hsdb:@term+@rn+@rel+117-84-0
   2. http://toxnet.nlm.nih.gov/cgi-bin/sis/search/r?dbs+hsdb:@term+@rn+@rel+117-84-0
   3. http://toxnet.nlm.nih.gov/cgi-bin/sis/search/r?dbs+hsdb:@term+@rn+@rel+117-84-0
   4. http://toxnet.nlm.nih.gov/cgi-bin/sis/search/r?dbs+hsdb:@term+@rn+@rel+117-84-0
   5. http://toxnet.nlm.nih.gov/cgi-bin/sis/search/r?dbs+hsdb:@term+@rn+@rel+117-84-0
   6. http://toxnet.nlm.nih.gov/cgi-bin/sis/search/r?dbs+hsdb:@term+@rn+@rel+117-84-0
   7. http://toxnet.nlm.nih.gov/cgi-bin/sis/search/r?dbs+hsdb:@term+@rn+@rel+117-84-0
   8. http://toxnet.nlm.nih.gov/cgi-bin/sis/search/r?dbs+hsdb:@term+@rn+@rel+117-84-0
   9. http://toxnet.nlm.nih.gov/cgi-bin/sis/search/r?dbs+hsdb:@term+@rn+@rel+117-84-0
  10. http://toxnet.nlm.nih.gov/cgi-bin/sis/search/r?dbs+hsdb:@term+@rn+@rel+117-84-0
