   Color/Form

     * Gray white soft metal
     * HEXAGONAL SILVER-WHITE CRYSTALS
     * GRAYISH WHITE WITH REDDISH TINGE AND BRIGHT METALLIC LUSTER
     * PINKISH-SILVER, HARD, BRITTLE METAL

   from [1]HSDB

   Boiling Point
        1564 DEG +/-5 DEG C, 760 MM HG
   from [2]HSDB

   Melting Point
        271 DEG C
   from [3]HSDB

   Density/Specific Gravity
        9.78 @ 20 DEG C/4 DEG C
   from [4]HSDB

   Heat of Vaporization
        178,632 J/mol
   from [5]HSDB

   Solubilities

     * INSOL IN COLD OR HOT WATER; SOL IN NITRIC ACID, AQUA REGIA, HOT
       SULFURIC ACID
     * SOL IN CONCENTRATED HYDROCHLORIC ACID

   from [6]HSDB

   Vapor Pressure
        78 mm Hg at 1266 deg C; 7.8 mm at 1053 deg C; 0.78 mm Hg at 893
   deg C
   from [7]HSDB

   Other Chemical/Physical Properties

     * POOR CONDUCTOR OF ELECTRICITY; HAS GREATEST HALL EFFECT OF ANY
       METAL, THAT IS, ITS RESISTANCE INCREASES WHEN PLACED IN A MAGNETIC
       FIELD
     * MASS NUMBER (NATURAL ISOTOPES): 209; ATOMIC RADIUS= 1.46 A; IONIC
       (CRYSTAL) RADII= 1.20(+3)A; ELECTRONEGATIVITY (PAULING SCALE): 1.9
     * THERMAL CONDUCTIVITY (0.018 CAL/SEC/CC @ 250 DEG C) IS LOWEST OF
       ALL METALS EXCEPT MERCURY
     * EXPANDS 3.32% ON SOLIDIFICATION; ATOMIC NUMBER: 83
     * ORBITAL ELECTRONS: (XE)4F(14)-5D(10)65(2)-6P(3)
     * COLD SOLN OF BI GIVE WHITE PPT: WITH SODIUM HYDROXIDE TURNING
       YELLOW ON BOILING; WITH HYDROCHLORIC ACID SOL IN EXCESS OF ACID
     * SENSITIVITY OF ATOMIC ABSORPTION: 0.22 UG/ML FOR 1% ABSORPTION IN
       AIR/C2H2 MIXTURE AT 2230.6 A
     * SOLN IN HYDROCHLORIC ACID OR NITRIC ACID YIELD WITH MUCH WATER A
       WHITE PPT BLACKENED BY HYDROGEN SULFIDES
     * WHEN HEATED IN AIR IT BURNS WITH A BLUE FLAME, FORMING YELLOW FUMES
       OF THE OXIDE
     * ELECTRICAL RESISTIVITY HIGHER IN SOLID THAN IN LIQUID STATE;
       EXTRUDABLE @ 437 DEG F; BRINELL HARDNESS 7; HIGHLY DIAMAGNETIC
       (MASS SUSCEPTIBILITY -1.35X10+6)
     * CONDUCTANCE IN SOLID STATE IS ONLY 0.48 OF LIQUID CONDUCTANCE
     * DULL GRAY POWDER; PARTICLES ARE OF NO GREATER DIAMETER THAN 15 U
       (0.015 MM); EASILY DISPERSED IN WATER /PRECIPITATED BISMUTH/

   from [8]HSDB

   Computed Properties
   Molecular Weight                  208.9804 [g/mol]
   Molecular Formula                 Bi
   H-Bond Donor                      0
   H-Bond Acceptor                   0
   Rotatable Bond Count              0
   Exact Mass                        208.980399
   MonoIsotopic Mass                 208.980399
   Topological Polar Surface Area    0
   Heavy Atom Count                  1
   Formal Charge                     0
   Complexity                        0
   Isotope Atom Count                0
   Defined Atom Stereocenter Count   0
   Undefined Atom Stereocenter Count 0
   Defined Bond Stereocenter Count   0
   Undefined Bond Stereocenter Count 0
   Covalently-Bonded Unit Count      1

References

   1. http://toxnet.nlm.nih.gov/cgi-bin/sis/search/r?dbs+hsdb:@term+@rn+@rel+7440-69-9
   2. http://toxnet.nlm.nih.gov/cgi-bin/sis/search/r?dbs+hsdb:@term+@rn+@rel+7440-69-9
   3. http://toxnet.nlm.nih.gov/cgi-bin/sis/search/r?dbs+hsdb:@term+@rn+@rel+7440-69-9
   4. http://toxnet.nlm.nih.gov/cgi-bin/sis/search/r?dbs+hsdb:@term+@rn+@rel+7440-69-9
   5. http://toxnet.nlm.nih.gov/cgi-bin/sis/search/r?dbs+hsdb:@term+@rn+@rel+7440-69-9
   6. http://toxnet.nlm.nih.gov/cgi-bin/sis/search/r?dbs+hsdb:@term+@rn+@rel+7440-69-9
   7. http://toxnet.nlm.nih.gov/cgi-bin/sis/search/r?dbs+hsdb:@term+@rn+@rel+7440-69-9
   8. http://toxnet.nlm.nih.gov/cgi-bin/sis/search/r?dbs+hsdb:@term+@rn+@rel+7440-69-9
