6325438
  -OEChem-07051212552D

 65 68  0     1  0  0  0  0  0999 V2000
    5.1350   -3.2266    0.0000 O   0  0  0  0  0  0  0  0  0  0  0  0
    4.2690   -1.7266    0.0000 O   0  0  0  0  0  0  0  0  0  0  0  0
    2.5369   -4.7265    0.0000 O   0  0  0  0  0  0  0  0  0  0  0  0
    4.2690   -5.7265    0.0000 O   0  0  0  0  0  0  0  0  0  0  0  0
    2.5369   -2.7266    0.0000 O   0  0  0  0  0  0  0  0  0  0  0  0
    6.0010   -5.7265    0.0000 O   0  0  0  0  0  0  0  0  0  0  0  0
    4.2690    0.2734    0.0000 O   0  0  0  0  0  0  0  0  0  0  0  0
    9.8969   -1.5926    0.0000 O   0  5  0  0  0  0  0  0  0  0  0  0
    9.8969    0.1395    0.0000 O   0  0  0  0  0  0  0  0  0  0  0  0
    8.6988    5.5751    0.0000 O   0  0  0  0  0  0  0  0  0  0  0  0
    7.4096    4.4184    0.0000 O   0  0  0  0  0  0  0  0  0  0  0  0
   12.3486    2.8041    0.0000 O   0  0  0  0  0  0  0  0  0  0  0  0
   11.9914    4.4989    0.0000 O   0  0  0  0  0  0  0  0  0  0  0  0
    7.8133    0.0782    0.0000 N   0  3  0  0  0  0  0  0  0  0  0  0
   10.0344    4.0865    0.0000 N   0  0  0  0  0  0  0  0  0  0  0  0
    3.4030   -4.2265    0.0000 C   0  0  1  0  0  0  0  0  0  0  0  0
    4.2690   -4.7265    0.0000 C   0  0  1  0  0  0  0  0  0  0  0  0
    3.4030   -3.2266    0.0000 C   0  0  2  0  0  0  0  0  0  0  0  0
    5.1350   -4.2265    0.0000 C   0  0  1  0  0  0  0  0  0  0  0  0
    4.2690   -2.7266    0.0000 C   0  0  1  0  0  0  0  0  0  0  0  0
    8.3969   -0.7266    0.0000 C   0  0  1  0  0  0  0  0  0  0  0  0
    7.8133   -1.5313    0.0000 C   0  0  0  0  0  0  0  0  0  0  0  0
    6.8671   -1.2266    0.0000 C   0  0  0  0  0  0  0  0  0  0  0  0
    6.8671   -0.2266    0.0000 C   0  0  0  0  0  0  0  0  0  0  0  0
    6.0010   -4.7265    0.0000 C   0  0  0  0  0  0  0  0  0  0  0  0
    5.1350   -1.2266    0.0000 C   0  0  0  0  0  0  0  0  0  0  0  0
    6.0010   -1.7266    0.0000 C   0  0  0  0  0  0  0  0  0  0  0  0
    6.0010    0.2734    0.0000 C   0  0  0  0  0  0  0  0  0  0  0  0
    5.1350   -0.2266    0.0000 C   0  0  0  0  0  0  0  0  0  0  0  0
    8.1240    1.0287    0.0000 C   0  0  0  0  0  0  0  0  0  0  0  0
    9.3969   -0.7266    0.0000 C   0  0  0  0  0  0  0  0  0  0  0  0
    9.1024    1.2349    0.0000 C   0  0  0  0  0  0  0  0  0  0  0  0
    9.4131    2.1854    0.0000 C   0  0  0  0  0  0  0  0  0  0  0  0
    8.7453    2.9297    0.0000 C   0  0  0  0  0  0  0  0  0  0  0  0
    9.0559    3.8803    0.0000 C   0  0  2  0  0  0  0  0  0  0  0  0
   10.3916    2.3917    0.0000 C   0  0  0  0  0  0  0  0  0  0  0  0
   10.7023    3.3422    0.0000 C   0  0  0  0  0  0  0  0  0  0  0  0
    8.3881    4.6246    0.0000 C   0  0  0  0  0  0  0  0  0  0  0  0
   11.6808    3.5484    0.0000 C   0  0  0  0  0  0  0  0  0  0  0  0
    3.4030   -4.8466    0.0000 H   0  0  0  0  0  0  0  0  0  0  0  0
    4.8059   -5.0366    0.0000 H   0  0  0  0  0  0  0  0  0  0  0  0
    3.4030   -2.6066    0.0000 H   0  0  0  0  0  0  0  0  0  0  0  0
    5.6720   -3.9166    0.0000 H   0  0  0  0  0  0  0  0  0  0  0  0
    3.7320   -2.4166    0.0000 H   0  0  0  0  0  0  0  0  0  0  0  0
    8.6786   -0.1742    0.0000 H   0  0  0  0  0  0  0  0  0  0  0  0
    7.5622   -2.0982    0.0000 H   0  0  0  0  0  0  0  0  0  0  0  0
    8.3507   -1.8405    0.0000 H   0  0  0  0  0  0  0  0  0  0  0  0
    6.6116   -4.8342    0.0000 H   0  0  0  0  0  0  0  0  0  0  0  0
    6.2131   -4.1439    0.0000 H   0  0  0  0  0  0  0  0  0  0  0  0
    6.0010   -2.3466    0.0000 H   0  0  0  0  0  0  0  0  0  0  0  0
    6.0010    0.8934    0.0000 H   0  0  0  0  0  0  0  0  0  0  0  0
    2.5369   -5.3466    0.0000 H   0  0  0  0  0  0  0  0  0  0  0  0
    3.7320   -6.0366    0.0000 H   0  0  0  0  0  0  0  0  0  0  0  0
    2.0000   -3.0366    0.0000 H   0  0  0  0  0  0  0  0  0  0  0  0
    7.7099    1.4902    0.0000 H   0  0  0  0  0  0  0  0  0  0  0  0
    9.5165    0.7735    0.0000 H   0  0  0  0  0  0  0  0  0  0  0  0
    6.5380   -6.0366    0.0000 H   0  0  0  0  0  0  0  0  0  0  0  0
    8.1984    3.2218    0.0000 H   0  0  0  0  0  0  0  0  0  0  0  0
    8.3627    2.4418    0.0000 H   0  0  0  0  0  0  0  0  0  0  0  0
    9.2485    4.4696    0.0000 H   0  0  0  0  0  0  0  0  0  0  0  0
   10.8057    1.9302    0.0000 H   0  0  0  0  0  0  0  0  0  0  0  0
    4.2690    0.8934    0.0000 H   0  0  0  0  0  0  0  0  0  0  0  0
   10.2270    4.6758    0.0000 H   0  0  0  0  0  0  0  0  0  0  0  0
    8.2847    6.0366    0.0000 H   0  0  0  0  0  0  0  0  0  0  0  0
   12.9553    2.9320    0.0000 H   0  0  0  0  0  0  0  0  0  0  0  0
  1 19  1  0  0  0  0
  1 20  1  0  0  0  0
 20  2  1  6  0  0  0
  2 26  1  0  0  0  0
 16  3  1  6  0  0  0
  3 52  1  0  0  0  0
 17  4  1  1  0  0  0
  4 53  1  0  0  0  0
 18  5  1  1  0  0  0
  5 54  1  0  0  0  0
  6 25  1  0  0  0  0
  6 57  1  0  0  0  0
  7 29  1  0  0  0  0
  7 62  1  0  0  0  0
  8 31  1  0  0  0  0
  9 31  2  0  0  0  0
 10 38  1  0  0  0  0
 10 64  1  0  0  0  0
 11 38  2  0  0  0  0
 12 39  1  0  0  0  0
 12 65  1  0  0  0  0
 13 39  2  0  0  0  0
 14 21  1  0  0  0  0
 14 24  1  0  0  0  0
 14 30  2  0  0  0  0
 15 35  1  0  0  0  0
 15 37  1  0  0  0  0
 15 63  1  0  0  0  0
 16 17  1  0  0  0  0
 16 18  1  0  0  0  0
 16 40  1  0  0  0  0
 17 19  1  0  0  0  0
 17 41  1  0  0  0  0
 18 20  1  0  0  0  0
 18 42  1  0  0  0  0
 19 25  1  6  0  0  0
 19 43  1  0  0  0  0
 20 44  1  0  0  0  0
 21 22  1  0  0  0  0
 21 31  1  6  0  0  0
 21 45  1  0  0  0  0
 22 23  1  0  0  0  0
 22 46  1  0  0  0  0
 22 47  1  0  0  0  0
 23 24  1  0  0  0  0
 23 27  2  0  0  0  0
 24 28  2  0  0  0  0
 25 48  1  0  0  0  0
 25 49  1  0  0  0  0
 26 27  1  0  0  0  0
 26 29  2  0  0  0  0
 27 50  1  0  0  0  0
 28 29  1  0  0  0  0
 28 51  1  0  0  0  0
 30 32  1  0  0  0  0
 30 55  1  0  0  0  0
 32 33  2  0  0  0  0
 32 56  1  0  0  0  0
 33 34  1  0  0  0  0
 33 36  1  0  0  0  0
 34 35  1  0  0  0  0
 34 58  1  0  0  0  0
 34 59  1  0  0  0  0
 35 38  1  6  0  0  0
 35 60  1  0  0  0  0
 36 37  2  0  0  0  0
 36 61  1  0  0  0  0
 37 39  1  0  0  0  0
M  CHG  2   8  -1  14   1
M  END
> <PUBCHEM_COMPOUND_CID>
6325438

> <PUBCHEM_COMPOUND_CANONICALIZED>
1

> <PUBCHEM_CACTVS_COMPLEXITY>
1070

> <PUBCHEM_CACTVS_HBOND_ACCEPTOR>
14

> <PUBCHEM_CACTVS_HBOND_DONOR>
8

> <PUBCHEM_CACTVS_ROTATABLE_BOND>
6

> <PUBCHEM_CACTVS_SUBSKEYS>
AAADceB7PAAAAAAAAAAAAAAAAAAAAWAAAAA0QIAAAAAAAFgBAAAAHgAQCAAADDzxmAcwzoPABgCoAjTzTACCCAAhIgAAiIGe7NgfNjLGsbumeCvn0Bnf+Yf4+b+eIEABAgACQABAgAIEAASAAAAAAAAAAA==

> <PUBCHEM_IUPAC_OPENEYE_NAME>
(2S)-1-[(2E)-2-[(2R)-2,6-dicarboxy-2,3-dihydro-1H-pyridin-4-ylidene]ethylidene]-6-hydroxy-5-[(2S,3R,4S,5S,6R)-3,4,5-trihydroxy-6-(hydroxymethyl)tetrahydropyran-2-yl]oxy-indolin-1-ium-2-carboxylate

> <PUBCHEM_IUPAC_CAS_NAME>
(2S)-1-[(2E)-2-[(2R)-2,6-dicarboxy-2,3-dihydro-1H-pyridin-4-ylidene]ethylidene]-6-hydroxy-5-[[(2S,3R,4S,5S,6R)-3,4,5-trihydroxy-6-(hydroxymethyl)-2-oxanyl]oxy]-2,3-dihydroindol-1-ium-2-carboxylate

> <PUBCHEM_IUPAC_NAME>
(2S)-1-[(2E)-2-[(2R)-2,6-dicarboxy-2,3-dihydro-1H-pyridin-4-ylidene]ethylidene]-6-hydroxy-5-[(2S,3R,4S,5S,6R)-3,4,5-trihydroxy-6-(hydroxymethyl)oxan-2-yl]oxy-2,3-dihydroindol-1-ium-2-carboxylate

> <PUBCHEM_IUPAC_SYSTEMATIC_NAME>
(2S)-1-[(2E)-2-[(2R)-2,6-dicarboxy-2,3-dihydro-1H-pyridin-4-ylidene]ethylidene]-5-[(2S,3R,4S,5S,6R)-6-(hydroxymethyl)-3,4,5-tris(oxidanyl)oxan-2-yl]oxy-6-oxidanyl-2,3-dihydroindol-1-ium-2-carboxylate

> <PUBCHEM_IUPAC_TRADITIONAL_NAME>
(2S)-1-[(2E)-2-[(2R)-2,6-dicarboxy-2,3-dihydro-1H-pyridin-4-ylidene]ethylidene]-6-hydroxy-5-[(2S,3R,4S,5S,6R)-3,4,5-trihydroxy-6-methylol-tetrahydropyran-2-yl]oxy-indolin-1-ium-2-carboxylate

> <PUBCHEM_IUPAC_INCHI>
InChI=1S/C24H26N2O13/c27-8-17-18(29)19(30)20(31)24(39-17)38-16-6-10-5-14(23(36)37)26(13(10)7-15(16)28)2-1-9-3-11(21(32)33)25-12(4-9)22(34)35/h1-3,6-7,12,14,17-20,24,27,29-31H,4-5,8H2,(H4,28,32,33,34,35,36,37)/t12-,14+,17-,18-,19+,20-,24-/m1/s1

> <PUBCHEM_IUPAC_INCHIKEY>
DHHFDKNIEVKVKS-RYGANQNKSA-N

> <PUBCHEM_XLOGP3_AA>
-0.9

> <PUBCHEM_EXACT_MASS>
550.143489

> <PUBCHEM_MOLECULAR_FORMULA>
C24H26N2O13

> <PUBCHEM_MOLECULAR_WEIGHT>
550.46884

> <PUBCHEM_OPENEYE_CAN_SMILES>
C1C(NC(=CC1=CC=[N+]2C(CC3=CC(=C(C=C32)O)OC4C(C(C(C(O4)CO)O)O)O)C(=O)[O-])C(=O)O)C(=O)O

> <PUBCHEM_OPENEYE_ISO_SMILES>
C\1[C@@H](NC(=C/C1=C/C=[N+]2[C@@H](CC3=CC(=C(C=C32)O)O[C@H]4[C@@H]([C@H]([C@@H]([C@H](O4)CO)O)O)O)C(=O)[O-])C(=O)O)C(=O)O

> <PUBCHEM_CACTVS_TPSA>
249

> <PUBCHEM_MONOISOTOPIC_WEIGHT>
550.143489

> <PUBCHEM_TOTAL_CHARGE>
0

> <PUBCHEM_HEAVY_ATOM_COUNT>
39

> <PUBCHEM_ATOM_DEF_STEREO_COUNT>
7

> <PUBCHEM_ATOM_UDEF_STEREO_COUNT>
0

> <PUBCHEM_BOND_DEF_STEREO_COUNT>
1

> <PUBCHEM_BOND_UDEF_STEREO_COUNT>
0

> <PUBCHEM_ISOTOPIC_ATOM_COUNT>
0

> <PUBCHEM_COMPONENT_COUNT>
1

> <PUBCHEM_CACTVS_TAUTO_COUNT>
3

> <PUBCHEM_COORDINATE_TYPE>
1
5
255

> <PUBCHEM_BONDANNOTATIONS>
19  25  6
20  2  6
21  31  6
23  24  8
23  27  8
24  28  8
26  27  8
26  29  8
28  29  8
16  3  6
35  38  6
17  4  5
18  5  5

$$$$

