11954081
  -OEChem-07051213062D

 63 66  0     1  0  0  0  0  0999 V2000
    2.0000   -3.3504    0.0000 Cl  0  0  0  0  0  0  0  0  0  0  0  0
   10.9176    2.3201    0.0000 Cl  0  0  0  0  0  0  0  0  0  0  0  0
    7.6249    3.3963    0.0000 Cl  0  0  0  0  0  0  0  0  0  0  0  0
    8.6500    0.9572    0.0000 N   0  0  0  0  0  0  0  0  0  0  0  0
    7.3931   -0.2981    0.0000 C   0  0  1  0  0  0  0  0  0  0  0  0
    7.3931   -1.2981    0.0000 C   0  0  2  0  0  0  0  0  0  0  0  0
    6.5271   -1.7981    0.0000 C   0  0  1  0  0  0  0  0  0  0  0  0
    5.6610   -1.2981    0.0000 C   0  0  1  0  0  0  0  0  0  0  0  0
    8.3393    0.0066    0.0000 C   0  0  2  0  0  0  0  0  0  0  0  0
    4.7510   -1.8050    0.0000 C   0  0  2  0  0  0  0  0  0  0  0  0
    6.5271    0.2019    0.0000 C   0  0  0  0  0  0  0  0  0  0  0  0
    5.6610   -0.2981    0.0000 C   0  0  0  0  0  0  0  0  0  0  0  0
    8.3393   -1.6028    0.0000 C   0  0  0  0  0  0  0  0  0  0  0  0
    8.9229   -0.7981    0.0000 C   0  0  0  0  0  0  0  0  0  0  0  0
    6.5431   -2.8396    0.0000 C   0  0  0  0  0  0  0  0  0  0  0  0
    7.3931    0.7019    0.0000 C   0  0  0  0  0  0  0  0  0  0  0  0
    4.7430   -2.8466    0.0000 C   0  0  0  0  0  0  0  0  0  0  0  0
    3.8242   -1.2409    0.0000 C   0  0  0  0  0  0  0  0  0  0  0  0
    5.6451   -3.3674    0.0000 C   0  0  0  0  0  0  0  0  0  0  0  0
    4.7587   -0.8050    0.0000 C   0  0  0  0  0  0  0  0  0  0  0  0
    3.8076   -3.3963    0.0000 C   0  0  0  0  0  0  0  0  0  0  0  0
    2.8763   -1.7688    0.0000 C   0  0  0  0  0  0  0  0  0  0  0  0
    2.8680   -2.8538    0.0000 C   0  0  2  0  0  0  0  0  0  0  0  0
    9.6285    1.1634    0.0000 C   0  0  0  0  0  0  0  0  0  0  0  0
    7.9821    1.7014    0.0000 C   0  0  0  0  0  0  0  0  0  0  0  0
    9.9391    2.1139    0.0000 C   0  0  0  0  0  0  0  0  0  0  0  0
    8.2928    2.6520    0.0000 C   0  0  0  0  0  0  0  0  0  0  0  0
    7.4830   -2.1433    0.0000 H   0  0  0  0  0  0  0  0  0  0  0  0
    7.2664   -2.2174    0.0000 H   0  0  0  0  0  0  0  0  0  0  0  0
    6.3972   -0.8731    0.0000 H   0  0  0  0  0  0  0  0  0  0  0  0
    7.9018    0.4460    0.0000 H   0  0  0  0  0  0  0  0  0  0  0  0
    6.9256    0.6768    0.0000 H   0  0  0  0  0  0  0  0  0  0  0  0
    6.1285    0.6768    0.0000 H   0  0  0  0  0  0  0  0  0  0  0  0
    5.4490    0.2845    0.0000 H   0  0  0  0  0  0  0  0  0  0  0  0
    5.0504   -0.4058    0.0000 H   0  0  0  0  0  0  0  0  0  0  0  0
    8.0883   -2.1697    0.0000 H   0  0  0  0  0  0  0  0  0  0  0  0
    8.8767   -1.9121    0.0000 H   0  0  0  0  0  0  0  0  0  0  0  0
    9.3838   -1.2128    0.0000 H   0  0  0  0  0  0  0  0  0  0  0  0
    9.3838   -0.3834    0.0000 H   0  0  0  0  0  0  0  0  0  0  0  0
    6.7612   -3.4200    0.0000 H   0  0  0  0  0  0  0  0  0  0  0  0
    7.1523   -2.7241    0.0000 H   0  0  0  0  0  0  0  0  0  0  0  0
    8.0131    0.7019    0.0000 H   0  0  0  0  0  0  0  0  0  0  0  0
    7.3931    1.3219    0.0000 H   0  0  0  0  0  0  0  0  0  0  0  0
    6.7731    0.7019    0.0000 H   0  0  0  0  0  0  0  0  0  0  0  0
    4.2324   -0.7742    0.0000 H   0  0  0  0  0  0  0  0  0  0  0  0
    3.4343   -0.7588    0.0000 H   0  0  0  0  0  0  0  0  0  0  0  0
    5.6475   -3.9874    0.0000 H   0  0  0  0  0  0  0  0  0  0  0  0
    5.3787   -0.8098    0.0000 H   0  0  0  0  0  0  0  0  0  0  0  0
    4.7635   -0.1850    0.0000 H   0  0  0  0  0  0  0  0  0  0  0  0
    4.1388   -0.8002    0.0000 H   0  0  0  0  0  0  0  0  0  0  0  0
    3.4103   -3.8722    0.0000 H   0  0  0  0  0  0  0  0  0  0  0  0
    4.2085   -3.8692    0.0000 H   0  0  0  0  0  0  0  0  0  0  0  0
    2.6718   -1.1835    0.0000 H   0  0  0  0  0  0  0  0  0  0  0  0
    2.2647   -1.8702    0.0000 H   0  0  0  0  0  0  0  0  0  0  0  0
    2.8668   -3.4738    0.0000 H   0  0  0  0  0  0  0  0  0  0  0  0
    9.6490    0.5437    0.0000 H   0  0  0  0  0  0  0  0  0  0  0  0
   10.2423    1.0760    0.0000 H   0  0  0  0  0  0  0  0  0  0  0  0
    7.4352    1.9935    0.0000 H   0  0  0  0  0  0  0  0  0  0  0  0
    7.5996    1.2135    0.0000 H   0  0  0  0  0  0  0  0  0  0  0  0
    9.9186    2.7336    0.0000 H   0  0  0  0  0  0  0  0  0  0  0  0
    9.3253    2.2012    0.0000 H   0  0  0  0  0  0  0  0  0  0  0  0
    8.8397    2.3600    0.0000 H   0  0  0  0  0  0  0  0  0  0  0  0
    8.6753    3.1399    0.0000 H   0  0  0  0  0  0  0  0  0  0  0  0
 23  1  1  1  0  0  0
  2 26  1  0  0  0  0
  3 27  1  0  0  0  0
  9  4  1  1  0  0  0
  4 24  1  0  0  0  0
  4 25  1  0  0  0  0
  5  6  1  0  0  0  0
  5  9  1  0  0  0  0
  5 11  1  0  0  0  0
  5 16  1  1  0  0  0
  6  7  1  0  0  0  0
  6 13  1  0  0  0  0
  6 28  1  6  0  0  0
  7  8  1  0  0  0  0
  7 15  1  0  0  0  0
  7 29  1  1  0  0  0
  8 10  1  0  0  0  0
  8 12  1  0  0  0  0
  8 30  1  6  0  0  0
  9 14  1  0  0  0  0
  9 31  1  0  0  0  0
 10 17  1  0  0  0  0
 10 18  1  0  0  0  0
 10 20  1  1  0  0  0
 11 12  1  0  0  0  0
 11 32  1  0  0  0  0
 11 33  1  0  0  0  0
 12 34  1  0  0  0  0
 12 35  1  0  0  0  0
 13 14  1  0  0  0  0
 13 36  1  0  0  0  0
 13 37  1  0  0  0  0
 14 38  1  0  0  0  0
 14 39  1  0  0  0  0
 15 19  1  0  0  0  0
 15 40  1  0  0  0  0
 15 41  1  0  0  0  0
 16 42  1  0  0  0  0
 16 43  1  0  0  0  0
 16 44  1  0  0  0  0
 17 19  2  0  0  0  0
 17 21  1  0  0  0  0
 18 22  1  0  0  0  0
 18 45  1  0  0  0  0
 18 46  1  0  0  0  0
 19 47  1  0  0  0  0
 20 48  1  0  0  0  0
 20 49  1  0  0  0  0
 20 50  1  0  0  0  0
 21 23  1  0  0  0  0
 21 51  1  0  0  0  0
 21 52  1  0  0  0  0
 22 23  1  0  0  0  0
 22 53  1  0  0  0  0
 22 54  1  0  0  0  0
 23 55  1  0  0  0  0
 24 26  1  0  0  0  0
 24 56  1  0  0  0  0
 24 57  1  0  0  0  0
 25 27  1  0  0  0  0
 25 58  1  0  0  0  0
 25 59  1  0  0  0  0
 26 60  1  0  0  0  0
 26 61  1  0  0  0  0
 27 62  1  0  0  0  0
 27 63  1  0  0  0  0
M  END
> <PUBCHEM_COMPOUND_CID>
11954081

> <PUBCHEM_COMPOUND_CANONICALIZED>
1

> <PUBCHEM_CACTVS_COMPLEXITY>
572

> <PUBCHEM_CACTVS_HBOND_ACCEPTOR>
1

> <PUBCHEM_CACTVS_HBOND_DONOR>
0

> <PUBCHEM_CACTVS_ROTATABLE_BOND>
5

> <PUBCHEM_CACTVS_SUBSKEYS>
AAADcfB6AAAGAAAAAAAAAAAAAAAAAYAAAAAwYIAAAAAAAGCAAAAAHAIAAAAADyvBAEQCAAMAAACAAiBCAAAAAAAgAAAACAAIAggAAAIBgQBEAAAAgACIAAMQgMAPgAAAAAAAAACIAAQAACAAACAACQAAAA==

> <PUBCHEM_IUPAC_OPENEYE_NAME>
(3S,8R,9S,10R,13S,14S,17S)-3-chloro-N,N-bis(2-chloroethyl)-10,13-dimethyl-2,3,4,7,8,9,11,12,14,15,16,17-dodecahydro-1H-cyclopenta[a]phenanthren-17-amine

> <PUBCHEM_IUPAC_CAS_NAME>
(3S,8R,9S,10R,13S,14S,17S)-3-chloro-N,N-bis(2-chloroethyl)-10,13-dimethyl-2,3,4,7,8,9,11,12,14,15,16,17-dodecahydro-1H-cyclopenta[a]phenanthren-17-amine

> <PUBCHEM_IUPAC_NAME>
(3S,8R,9S,10R,13S,14S,17S)-3-chloro-N,N-bis(2-chloroethyl)-10,13-dimethyl-2,3,4,7,8,9,11,12,14,15,16,17-dodecahydro-1H-cyclopenta[a]phenanthren-17-amine

> <PUBCHEM_IUPAC_SYSTEMATIC_NAME>
(3S,8R,9S,10R,13S,14S,17S)-3-chloranyl-N,N-bis(2-chloroethyl)-10,13-dimethyl-2,3,4,7,8,9,11,12,14,15,16,17-dodecahydro-1H-cyclopenta[a]phenanthren-17-amine

> <PUBCHEM_IUPAC_TRADITIONAL_NAME>
[(3S,8R,9S,10R,13S,14S,17S)-3-chloro-10,13-dimethyl-2,3,4,7,8,9,11,12,14,15,16,17-dodecahydro-1H-cyclopenta[a]phenanthren-17-yl]-bis(2-chloroethyl)amine

> <PUBCHEM_IUPAC_INCHI>
InChI=1S/C23H36Cl3N/c1-22-9-7-17(26)15-16(22)3-4-18-19-5-6-21(27(13-11-24)14-12-25)23(19,2)10-8-20(18)22/h3,17-21H,4-15H2,1-2H3/t17-,18-,19-,20-,21-,22-,23-/m0/s1

> <PUBCHEM_IUPAC_INCHIKEY>
WSFHWKVFVZZVNI-FQJIPJFPSA-N

> <PUBCHEM_XLOGP3>
6.7

> <PUBCHEM_EXACT_MASS>
431.191333

> <PUBCHEM_MOLECULAR_FORMULA>
C23H36Cl3N

> <PUBCHEM_MOLECULAR_WEIGHT>
432.89764

> <PUBCHEM_OPENEYE_CAN_SMILES>
CC12CCC3C(C1CCC2N(CCCl)CCCl)CC=C4C3(CCC(C4)Cl)C

> <PUBCHEM_OPENEYE_ISO_SMILES>
C[C@]12CC[C@H]3[C@H]([C@@H]1CC[C@@H]2N(CCCl)CCCl)CC=C4[C@@]3(CC[C@@H](C4)Cl)C

> <PUBCHEM_CACTVS_TPSA>
3.2

> <PUBCHEM_MONOISOTOPIC_WEIGHT>
431.191333

> <PUBCHEM_TOTAL_CHARGE>
0

> <PUBCHEM_HEAVY_ATOM_COUNT>
27

> <PUBCHEM_ATOM_DEF_STEREO_COUNT>
7

> <PUBCHEM_ATOM_UDEF_STEREO_COUNT>
0

> <PUBCHEM_BOND_DEF_STEREO_COUNT>
0

> <PUBCHEM_BOND_UDEF_STEREO_COUNT>
0

> <PUBCHEM_ISOTOPIC_ATOM_COUNT>
0

> <PUBCHEM_COMPONENT_COUNT>
1

> <PUBCHEM_CACTVS_TAUTO_COUNT>
1

> <PUBCHEM_COORDINATE_TYPE>
1
5
255

> <PUBCHEM_BONDANNOTATIONS>
23  1  5
10  20  5
9  4  5
5  16  5
6  28  6
7  29  5
8  30  6

$$$$

