   Color/Form
        Colorless liquid
   from [1]HSDB

   Odor

     * Apple-like odor
     * POWERFUL PENETRATING, ACRID ODOR

   from [2]HSDB

   Taste
        AT VERY LOW LEVELS THE FLAVOR IS WARM, HERBACEOUS, SLIGHTLY FRUIT,
   AND NUT-LIKE
   from [3]HSDB

   Boiling Point
        92.5 deg C
   from [4]HSDB

   Melting Point
        -51 deg C
   from [5]HSDB

   Density/Specific Gravity
        0.7977 g/cu cm at 20 deg C
   from [6]HSDB

   Octanol/Water Partition Coefficient
        log Kow = 1.23 (est)
   from [7]HSDB

   Solubilities

     * Slightly soluble in water; soluble in ethanol, ethyl ether
     * Miscible with alcohol, ether
     * SOL IN PROPYLENE GLYCOL AND OILS
     * In water, 1,400 mg/L at 20 deg C

   from [8]HSDB

   Spectral Properties

     * Index of refraction: 1.3902 at 20 DEG C/D
     * MAX ABSORPTION: 190.1 NM (VAPOR)
     * IR: 648 (Sadtler Research Laboratories Prism Collection)
     * Raman: 633 (Sadtler Research Laboratories Spectral Collection)
     * 1H NMR: 17041 (Sadtler Research Laboratories Spectral Collection)
     * MASS: 19409 (NIST/EPA/MSDC Mass Spectral Database, 1990 version)

   from [9]HSDB

   Surface Tension
        23.2 mN/m at 20 deg C
   from [10]HSDB

   Vapor Density
        2.96 (Air = 1)
   from [11]HSDB

   Vapor Pressure
        50 mm Hg at approx 25 deg C
   from [12]HSDB

   Viscosity
        0.58 mPa.S at 20 deg C
   from [13]HSDB

   Other Chemical/Physical Properties

     * Conversion factors: 1 mg/L = 284 ppm; 3.5 mg/cu m = 1 ppm
     * Henry's Law constant = 4.05X10-4 atm-cu m/mol at 25 deg C (est)
     * Hydroxyl radical reaction rate constant = 2.74X10-11 cu-cm/molc sec
       at 25 deg C

   from [14]HSDB

   Computed Properties
   Molecular Weight                  86.1323 [g/mol]
   Molecular Formula                 C[5]H[10]O
   XLogP3-AA                         1
   H-Bond Donor                      0
   H-Bond Acceptor                   1
   Rotatable Bond Count              2
   Tautomer Count                    2
   Exact Mass                        86.073165
   MonoIsotopic Mass                 86.073165
   Topological Polar Surface Area    17.1
   Heavy Atom Count                  6
   Formal Charge                     0
   Complexity                        39.2
   Isotope Atom Count                0
   Defined Atom Stereocenter Count   0
   Undefined Atom Stereocenter Count 0
   Defined Bond Stereocenter Count   0
   Undefined Bond Stereocenter Count 0
   Covalently-Bonded Unit Count      1
   Feature 3D Acceptor Count         1
   Feature 3D Hydrophobe Count       1
   Effective Rotor Count             2
   Conformer Sampling RMSD           0.4
   CID Conformer Count               [15]3

References

   1. http://toxnet.nlm.nih.gov/cgi-bin/sis/search/r?dbs+hsdb:@term+@rn+@rel+590-86-3
   2. http://toxnet.nlm.nih.gov/cgi-bin/sis/search/r?dbs+hsdb:@term+@rn+@rel+590-86-3
   3. http://toxnet.nlm.nih.gov/cgi-bin/sis/search/r?dbs+hsdb:@term+@rn+@rel+590-86-3
   4. http://toxnet.nlm.nih.gov/cgi-bin/sis/search/r?dbs+hsdb:@term+@rn+@rel+590-86-3
   5. http://toxnet.nlm.nih.gov/cgi-bin/sis/search/r?dbs+hsdb:@term+@rn+@rel+590-86-3
   6. http://toxnet.nlm.nih.gov/cgi-bin/sis/search/r?dbs+hsdb:@term+@rn+@rel+590-86-3
   7. http://toxnet.nlm.nih.gov/cgi-bin/sis/search/r?dbs+hsdb:@term+@rn+@rel+590-86-3
   8. http://toxnet.nlm.nih.gov/cgi-bin/sis/search/r?dbs+hsdb:@term+@rn+@rel+590-86-3
   9. http://toxnet.nlm.nih.gov/cgi-bin/sis/search/r?dbs+hsdb:@term+@rn+@rel+590-86-3
  10. http://toxnet.nlm.nih.gov/cgi-bin/sis/search/r?dbs+hsdb:@term+@rn+@rel+590-86-3
  11. http://toxnet.nlm.nih.gov/cgi-bin/sis/search/r?dbs+hsdb:@term+@rn+@rel+590-86-3
  12. http://toxnet.nlm.nih.gov/cgi-bin/sis/search/r?dbs+hsdb:@term+@rn+@rel+590-86-3
  13. http://toxnet.nlm.nih.gov/cgi-bin/sis/search/r?dbs+hsdb:@term+@rn+@rel+590-86-3
  14. http://toxnet.nlm.nih.gov/cgi-bin/sis/search/r?dbs+hsdb:@term+@rn+@rel+590-86-3
  15. http://pubchem.ncbi.nlm.nih.gov/vw3d/vw3d.cgi?cid=11552
