   Color/Form

     * White needles
     * Crystals

   from [1]HSDB

   Melting Point
        114-118 deg C
   from [2]HSDB

   Octanol/Water Partition Coefficient
        log Kow = -0.52
   from [3]HSDB

   Solubilities

     * Solubility in acetone at 25 deg C: 2.4 g/100mL; in alcohol:
       0.1g/100 mL. Practically insoluble in water but will dissolve
       slowly as hydrolysis takes place.
     * In water, 6.89X10+4 mg/L at 25 deg C (est)

   from [4]HSDB

   Vapor Pressure
        6.56X10-6 mm Hg at 25 deg C (est)
   from [5]HSDB

   Other Chemical/Physical Properties

     * Henry's Law constant = 5.16X10-10 atm-cu m/mol at 25 deg C (est)
     * Hydroxyl radical reaction rate constant = 4.70X10-12 cu
       cm/molec-sec at 25 deg C (est)

   from [6]HSDB

   Computed Properties
   Molecular Weight                  246.30176 [g/mol]
   Molecular Formula                 C[6]H[14]O[6]S[2]
   XLogP3                            -0.5
   H-Bond Donor                      0
   H-Bond Acceptor                   6
   Rotatable Bond Count              7
   Exact Mass                        246.02318
   MonoIsotopic Mass                 246.02318
   Topological Polar Surface Area    104
   Heavy Atom Count                  14
   Formal Charge                     0
   Complexity                        294
   Isotope Atom Count                0
   Defined Atom Stereocenter Count   0
   Undefined Atom Stereocenter Count 0
   Defined Bond Stereocenter Count   0
   Undefined Bond Stereocenter Count 0
   Covalently-Bonded Unit Count      1
   Feature 3D Acceptor Count         4
   Effective Rotor Count             7
   Conformer Sampling RMSD           0.8
   CID Conformer Count               [7]95

References

   1. http://toxnet.nlm.nih.gov/cgi-bin/sis/search/r?dbs+hsdb:@term+@rn+@rel+55-98-1
   2. http://toxnet.nlm.nih.gov/cgi-bin/sis/search/r?dbs+hsdb:@term+@rn+@rel+55-98-1
   3. http://toxnet.nlm.nih.gov/cgi-bin/sis/search/r?dbs+hsdb:@term+@rn+@rel+55-98-1
   4. http://toxnet.nlm.nih.gov/cgi-bin/sis/search/r?dbs+hsdb:@term+@rn+@rel+55-98-1
   5. http://toxnet.nlm.nih.gov/cgi-bin/sis/search/r?dbs+hsdb:@term+@rn+@rel+55-98-1
   6. http://toxnet.nlm.nih.gov/cgi-bin/sis/search/r?dbs+hsdb:@term+@rn+@rel+55-98-1
   7. http://pubchem.ncbi.nlm.nih.gov/vw3d/vw3d.cgi?cid=2478
