   Color/Form
        WHITE AMORPHOUS POWDER
   from [1]HSDB

   Taste
        Very bitter taste
   from [2]HSDB

   Melting Point
        74 DEG C
   from [3]HSDB

   Dissociation Constants

     * PK1 5.77; PK2 6.64
     * DIACIDIC BASE: K1 = 1.7X10-6; K2 = 2.3X10-7

   from [4]HSDB

   pH
        STRONG ALKALINE REACTION
   from [5]HSDB

   Solubilities

     * MODERATELY SOL IN DILUTE AMMONIUM HYDROXIDE; SOL IN ETHER, ALCOHOL,
       ACETONE; SLIGHTLY SOL IN CHLOROFORM, BENZENE; INSOL IN GLACIAL
       ACETIC ACID; SOL IN 80% ACETIC ACID
     * SPARINGLY SOL IN WATER, PETROLEUM ETHER, IN SOLN OF POTASSIUM OR
       SODIUM HYDROXIDE; FREELY SOL IN METHANOL, ETHYL ACETATE

   from [6]HSDB

   Spectral Properties

     * SPECIFIC OPTICAL ROTATION: -50 DEG @ 20 DEG C/D (CHLOROFORM, 2%)
     * MAX ABSORPTION (ALCOHOL): 235 NM SHOULDER (LOG E= 4.2); 285 NM (LOG
       E= 3.8); 360 NM SHOULDER (LOG E= 2.2)

   from [7]HSDB

   Other Chemical/Physical Properties

     * IR: 13204 (Sadtler Research Laboratories Prism Collection)
       /Emetine, heptahydrate, dihydrochloride/
     * Contains water of crystallization varying from 3 to 8 H2O; clusters
       of needles after drying at 105 deg C, MP: 235-255 deg C
       (decomposition); specific optical rotation: +11 deg (concentration
       by volume = 1 g in 100 ml water); 1 g of the hydrated salt
       dissolves in about 7 ml water; pH of aq soln (1 g in 50 ml) 5.6;
       sol in alcohol. /Emetine dihydrochloride/

   from [8]HSDB

   Computed Properties
   Molecular Weight                  480.6389 [g/mol]
   Molecular Formula                 C[29]H[40]N[2]O[4]
   XLogP3-AA                         4.7
   H-Bond Donor                      1
   H-Bond Acceptor                   6
   Rotatable Bond Count              7
   Exact Mass                        480.298808
   MonoIsotopic Mass                 480.298808
   Topological Polar Surface Area    52.2
   Heavy Atom Count                  35
   Formal Charge                     0
   Complexity                        679
   Isotope Atom Count                0
   Defined Atom Stereocenter Count   4
   Undefined Atom Stereocenter Count 0
   Defined Bond Stereocenter Count   0
   Undefined Bond Stereocenter Count 0
   Covalently-Bonded Unit Count      1
   Feature 3D Acceptor Count         4
   Feature 3D Donor Count            1
   Feature 3D Cation Count           2
   Feature 3D Hydrophobe Count       1
   Feature 3D Ring Count             5
   Effective Rotor Count             9
   Conformer Sampling RMSD           1
   CID Conformer Count               [9]4

References

   1. http://toxnet.nlm.nih.gov/cgi-bin/sis/search/r?dbs+hsdb:@term+@rn+@rel+483-18-1
   2. http://toxnet.nlm.nih.gov/cgi-bin/sis/search/r?dbs+hsdb:@term+@rn+@rel+483-18-1
   3. http://toxnet.nlm.nih.gov/cgi-bin/sis/search/r?dbs+hsdb:@term+@rn+@rel+483-18-1
   4. http://toxnet.nlm.nih.gov/cgi-bin/sis/search/r?dbs+hsdb:@term+@rn+@rel+483-18-1
   5. http://toxnet.nlm.nih.gov/cgi-bin/sis/search/r?dbs+hsdb:@term+@rn+@rel+483-18-1
   6. http://toxnet.nlm.nih.gov/cgi-bin/sis/search/r?dbs+hsdb:@term+@rn+@rel+483-18-1
   7. http://toxnet.nlm.nih.gov/cgi-bin/sis/search/r?dbs+hsdb:@term+@rn+@rel+483-18-1
   8. http://toxnet.nlm.nih.gov/cgi-bin/sis/search/r?dbs+hsdb:@term+@rn+@rel+483-18-1
   9. http://pubchem.ncbi.nlm.nih.gov/vw3d/vw3d.cgi?cid=10219
