167683
  -OEChem-07051212572D

 36 38  0     1  0  0  0  0  0999 V2000
    3.7230   -0.4117    0.0000 O   0  0  0  0  0  0  0  0  0  0  0  0
    2.0000    0.0205    0.0000 O   0  0  0  0  0  0  0  0  0  0  0  0
    8.0559   -0.4918    0.0000 O   0  0  0  0  0  0  0  0  0  0  0  0
    4.3551    1.0709    0.0000 C   0  0  2  0  0  0  0  0  0  0  0  0
    4.5777    0.0960    0.0000 C   0  0  1  0  0  0  0  0  0  0  0  0
    5.4786   -0.3379    0.0000 C   0  0  2  0  0  0  0  0  0  0  0  0
    3.3648    1.1574    0.0000 C   0  0  1  0  0  0  0  0  0  0  0  0
    4.9786    1.8527    0.0000 C   0  0  0  0  0  0  0  0  0  0  0  0
    6.3796    0.0960    0.0000 C   0  0  0  0  0  0  0  0  0  0  0  0
    5.9786    1.8527    0.0000 C   0  0  0  0  0  0  0  0  0  0  0  0
    6.6021    1.0709    0.0000 C   0  0  0  0  0  0  0  0  0  0  0  0
    5.6146   -1.3227    0.0000 C   0  0  0  0  0  0  0  0  0  0  0  0
    2.9749    0.2430    0.0000 C   0  0  0  0  0  0  0  0  0  0  0  0
    2.8504    2.0150    0.0000 C   0  0  0  0  0  0  0  0  0  0  0  0
    7.0647   -0.6243    0.0000 C   0  0  0  0  0  0  0  0  0  0  0  0
    6.5929   -1.4993    0.0000 C   0  0  0  0  0  0  0  0  0  0  0  0
    7.5770    1.2934    0.0000 C   0  0  0  0  0  0  0  0  0  0  0  0
    4.8930   -2.0150    0.0000 C   0  0  0  0  0  0  0  0  0  0  0  0
    4.0200    1.8520    0.0000 H   0  0  0  0  0  0  0  0  0  0  0  0
    4.6147   -0.7532    0.0000 H   0  0  0  0  0  0  0  0  0  0  0  0
    4.7916   -0.8384    0.0000 H   0  0  0  0  0  0  0  0  0  0  0  0
    3.6936    1.6831    0.0000 H   0  0  0  0  0  0  0  0  0  0  0  0
    5.1166    2.4572    0.0000 H   0  0  0  0  0  0  0  0  0  0  0  0
    4.4200    2.1217    0.0000 H   0  0  0  0  0  0  0  0  0  0  0  0
    6.5372    2.1217    0.0000 H   0  0  0  0  0  0  0  0  0  0  0  0
    5.8407    2.4572    0.0000 H   0  0  0  0  0  0  0  0  0  0  0  0
    3.3821    2.3339    0.0000 H   0  0  0  0  0  0  0  0  0  0  0  0
    2.5315    2.5467    0.0000 H   0  0  0  0  0  0  0  0  0  0  0  0
    2.3188    1.6961    0.0000 H   0  0  0  0  0  0  0  0  0  0  0  0
    6.8619   -2.0579    0.0000 H   0  0  0  0  0  0  0  0  0  0  0  0
    7.7150    0.6889    0.0000 H   0  0  0  0  0  0  0  0  0  0  0  0
    8.1815    1.4314    0.0000 H   0  0  0  0  0  0  0  0  0  0  0  0
    7.4391    1.8979    0.0000 H   0  0  0  0  0  0  0  0  0  0  0  0
    4.4638   -1.5676    0.0000 H   0  0  0  0  0  0  0  0  0  0  0  0
    4.4456   -2.4442    0.0000 H   0  0  0  0  0  0  0  0  0  0  0  0
    5.3223   -2.4624    0.0000 H   0  0  0  0  0  0  0  0  0  0  0  0
  1  5  1  0  0  0  0
  1 13  1  0  0  0  0
  2 13  2  0  0  0  0
  3 15  2  0  0  0  0
  4  5  1  0  0  0  0
  4  7  1  0  0  0  0
  4  8  1  0  0  0  0
  4 19  1  1  0  0  0
  5  6  1  0  0  0  0
  5 20  1  6  0  0  0
  6  9  1  0  0  0  0
  6 12  1  0  0  0  0
  6 21  1  1  0  0  0
  7 13  1  0  0  0  0
  7 14  1  1  0  0  0
  7 22  1  0  0  0  0
  8 10  1  0  0  0  0
  8 23  1  0  0  0  0
  8 24  1  0  0  0  0
  9 11  2  0  0  0  0
  9 15  1  0  0  0  0
 10 11  1  0  0  0  0
 10 25  1  0  0  0  0
 10 26  1  0  0  0  0
 11 17  1  0  0  0  0
 12 16  2  0  0  0  0
 12 18  1  0  0  0  0
 14 27  1  0  0  0  0
 14 28  1  0  0  0  0
 14 29  1  0  0  0  0
 15 16  1  0  0  0  0
 16 30  1  0  0  0  0
 17 31  1  0  0  0  0
 17 32  1  0  0  0  0
 17 33  1  0  0  0  0
 18 34  1  0  0  0  0
 18 35  1  0  0  0  0
 18 36  1  0  0  0  0
M  END
> <PUBCHEM_COMPOUND_CID>
167683

> <PUBCHEM_COMPOUND_CANONICALIZED>
1

> <PUBCHEM_CACTVS_COMPLEXITY>
498

> <PUBCHEM_CACTVS_HBOND_ACCEPTOR>
3

> <PUBCHEM_CACTVS_HBOND_DONOR>
0

> <PUBCHEM_CACTVS_ROTATABLE_BOND>
0

> <PUBCHEM_CACTVS_SUBSKEYS>
AAADceBwMAAAAAAAAAAAAAAAAAAAASIAAAAAAAAABAAAAACAAAAAGgAAAAAADRSggAICCAAABACIAqDSCAAAAAAgAAAACAEAAEgAABIAAQACAAAEwAAIAQOKyPCOgAAAAAAAAAAAAAAAAAAAAAAAAAAAAA==

> <PUBCHEM_IUPAC_OPENEYE_NAME>
(3S,3aS,9aS,9bS)-3,6,9-trimethyl-3,3a,4,5,9a,9b-hexahydroazuleno[4,5-b]furan-2,7-dione

> <PUBCHEM_IUPAC_CAS_NAME>
(3S,3aS,9aS,9bS)-3,6,9-trimethyl-3,3a,4,5,9a,9b-hexahydroazuleno[4,5-b]furan-2,7-dione

> <PUBCHEM_IUPAC_NAME>
(3S,3aS,9aS,9bS)-3,6,9-trimethyl-3,3a,4,5,9a,9b-hexahydroazuleno[4,5-b]furan-2,7-dione

> <PUBCHEM_IUPAC_SYSTEMATIC_NAME>
(3S,3aS,9aS,9bS)-3,6,9-trimethyl-3,3a,4,5,9a,9b-hexahydroazuleno[4,5-b]furan-2,7-dione

> <PUBCHEM_IUPAC_TRADITIONAL_NAME>
(3S,3aS,9aS,9bS)-3,6,9-trimethyl-3,3a,4,5,9a,9b-hexahydroazuleno[4,5-b]furan-2,7-quinone

> <PUBCHEM_IUPAC_INCHI>
InChI=1S/C15H18O3/c1-7-4-5-10-9(3)15(17)18-14(10)13-8(2)6-11(16)12(7)13/h6,9-10,13-14H,4-5H2,1-3H3/t9-,10-,13-,14-/m0/s1

> <PUBCHEM_IUPAC_INCHIKEY>
BJPSSVHNEGMBDQ-NUZBWSBOSA-N

> <PUBCHEM_XLOGP3_AA>
1.6

> <PUBCHEM_EXACT_MASS>
246.125594

> <PUBCHEM_MOLECULAR_FORMULA>
C15H18O3

> <PUBCHEM_MOLECULAR_WEIGHT>
246.30162

> <PUBCHEM_OPENEYE_CAN_SMILES>
CC1C2CCC(=C3C(C2OC1=O)C(=CC3=O)C)C

> <PUBCHEM_OPENEYE_ISO_SMILES>
C[C@H]1[C@@H]2CCC(=C3[C@@H]([C@H]2OC1=O)C(=CC3=O)C)C

> <PUBCHEM_CACTVS_TPSA>
43.4

> <PUBCHEM_MONOISOTOPIC_WEIGHT>
246.125594

> <PUBCHEM_TOTAL_CHARGE>
0

> <PUBCHEM_HEAVY_ATOM_COUNT>
18

> <PUBCHEM_ATOM_DEF_STEREO_COUNT>
4

> <PUBCHEM_ATOM_UDEF_STEREO_COUNT>
0

> <PUBCHEM_BOND_DEF_STEREO_COUNT>
0

> <PUBCHEM_BOND_UDEF_STEREO_COUNT>
0

> <PUBCHEM_ISOTOPIC_ATOM_COUNT>
0

> <PUBCHEM_COMPONENT_COUNT>
1

> <PUBCHEM_CACTVS_TAUTO_COUNT>
56

> <PUBCHEM_COORDINATE_TYPE>
1
5
255

> <PUBCHEM_BONDANNOTATIONS>
4  19  5
5  20  6
6  21  5
7  14  5

$$$$

