656503
  -OEChem-07051212492D

 65 67  0     1  0  0  0  0  0999 V2000
    9.2208   -0.8683    0.0000 P   0  0  3  0  0  0  0  0  0  0  0  0
    7.4888   -0.8683    0.0000 P   0  0  3  0  0  0  0  0  0  0  0  0
    4.7861    0.6262    0.0000 O   0  0  0  0  0  0  0  0  0  0  0  0
   10.9528   -1.8683    0.0000 O   0  0  0  0  0  0  0  0  0  0  0  0
    3.7692   -1.7532    0.0000 O   0  0  0  0  0  0  0  0  0  0  0  0
    2.3135   -0.1364    0.0000 O   0  0  0  0  0  0  0  0  0  0  0  0
   10.0868   -0.3683    0.0000 O   0  0  0  0  0  0  0  0  0  0  0  0
   13.5509   -0.3683    0.0000 O   0  0  0  0  0  0  0  0  0  0  0  0
   13.5509   -2.3683    0.0000 O   0  0  0  0  0  0  0  0  0  0  0  0
    6.6227   -0.3683    0.0000 O   0  0  0  0  0  0  0  0  0  0  0  0
    8.3548   -1.3683    0.0000 O   0  0  0  0  0  0  0  0  0  0  0  0
   10.9528   -3.8683    0.0000 O   0  0  0  0  0  0  0  0  0  0  0  0
   12.6849   -3.8683    0.0000 O   0  0  0  0  0  0  0  0  0  0  0  0
    8.7208   -0.0023    0.0000 O   0  0  0  0  0  0  0  0  0  0  0  0
    4.9836    2.4522    0.0000 O   0  0  0  0  0  0  0  0  0  0  0  0
    6.9888   -1.7343    0.0000 O   0  0  0  0  0  0  0  0  0  0  0  0
    9.7208   -1.7343    0.0000 O   0  0  0  0  0  0  0  0  0  0  0  0
    7.9888   -0.0023    0.0000 O   0  0  0  0  0  0  0  0  0  0  0  0
   10.0868    0.6317    0.0000 O   0  0  0  0  0  0  0  0  0  0  0  0
    2.1810    4.4883    0.0000 O   0  0  0  0  0  0  0  0  0  0  0  0
    3.4013    1.7477    0.0000 N   0  0  0  0  0  0  0  0  0  0  0  0
   11.8189    0.6317    0.0000 N   0  0  0  0  0  0  0  0  0  0  0  0
    3.5823    3.4702    0.0000 N   0  0  0  0  0  0  0  0  0  0  0  0
    3.9771   -0.7750    0.0000 C   0  0  1  0  0  0  0  0  0  0  0  0
    3.3080   -0.0319    0.0000 C   0  0  2  0  0  0  0  0  0  0  0  0
    4.8907   -0.3683    0.0000 C   0  0  1  0  0  0  0  0  0  0  0  0
    3.8080    0.8341    0.0000 C   0  0  1  0  0  0  0  0  0  0  0  0
   11.8189   -0.3683    0.0000 C   0  0  1  0  0  0  0  0  0  0  0  0
   12.6849   -0.8683    0.0000 C   0  0  2  0  0  0  0  0  0  0  0  0
   12.6849   -1.8683    0.0000 C   0  0  1  0  0  0  0  0  0  0  0  0
   10.9528   -0.8683    0.0000 C   0  0  1  0  0  0  0  0  0  0  0  0
   11.8189   -2.3683    0.0000 C   0  0  1  0  0  0  0  0  0  0  0  0
    5.7567   -0.8683    0.0000 C   0  0  0  0  0  0  0  0  0  0  0  0
   11.8189   -3.3683    0.0000 C   0  0  0  0  0  0  0  0  0  0  0  0
    3.9890    2.5567    0.0000 C   0  0  0  0  0  0  0  0  0  0  0  0
    2.4067    1.8522    0.0000 C   0  0  0  0  0  0  0  0  0  0  0  0
   10.9528    1.1317    0.0000 C   0  0  0  0  0  0  0  0  0  0  0  0
    2.0000    2.7658    0.0000 C   0  0  0  0  0  0  0  0  0  0  0  0
    2.5878    3.5748    0.0000 C   0  0  0  0  0  0  0  0  0  0  0  0
   10.9528    2.1317    0.0000 C   0  0  0  0  0  0  0  0  0  0  0  0
    4.4590   -1.1652    0.0000 H   0  0  0  0  0  0  0  0  0  0  0  0
    3.0858   -0.6107    0.0000 H   0  0  0  0  0  0  0  0  0  0  0  0
    5.4107   -0.0306    0.0000 H   0  0  0  0  0  0  0  0  0  0  0  0
    3.1888    0.8666    0.0000 H   0  0  0  0  0  0  0  0  0  0  0  0
   11.2819   -0.0583    0.0000 H   0  0  0  0  0  0  0  0  0  0  0  0
   13.2218   -1.1783    0.0000 H   0  0  0  0  0  0  0  0  0  0  0  0
   12.6849   -2.4883    0.0000 H   0  0  0  0  0  0  0  0  0  0  0  0
   10.9528   -0.2483    0.0000 H   0  0  0  0  0  0  0  0  0  0  0  0
   11.2819   -2.6783    0.0000 H   0  0  0  0  0  0  0  0  0  0  0  0
    5.3582   -1.3433    0.0000 H   0  0  0  0  0  0  0  0  0  0  0  0
    6.1552   -1.3433    0.0000 H   0  0  0  0  0  0  0  0  0  0  0  0
   12.3558    0.9417    0.0000 H   0  0  0  0  0  0  0  0  0  0  0  0
    3.1796   -1.9448    0.0000 H   0  0  0  0  0  0  0  0  0  0  0  0
    2.0613   -0.7028    0.0000 H   0  0  0  0  0  0  0  0  0  0  0  0
   14.0879   -0.6783    0.0000 H   0  0  0  0  0  0  0  0  0  0  0  0
   14.0879   -2.0583    0.0000 H   0  0  0  0  0  0  0  0  0  0  0  0
    2.0423    1.3506    0.0000 H   0  0  0  0  0  0  0  0  0  0  0  0
    3.9467    3.9718    0.0000 H   0  0  0  0  0  0  0  0  0  0  0  0
    1.3834    2.8306    0.0000 H   0  0  0  0  0  0  0  0  0  0  0  0
   11.5728    2.1317    0.0000 H   0  0  0  0  0  0  0  0  0  0  0  0
   10.9528    2.7517    0.0000 H   0  0  0  0  0  0  0  0  0  0  0  0
   10.3328    2.1317    0.0000 H   0  0  0  0  0  0  0  0  0  0  0  0
   10.9528   -4.4883    0.0000 H   0  0  0  0  0  0  0  0  0  0  0  0
    9.0308    0.5347    0.0000 H   0  0  0  0  0  0  0  0  0  0  0  0
    7.2988   -2.2713    0.0000 H   0  0  0  0  0  0  0  0  0  0  0  0
  1  7  1  0  0  0  0
  1 11  1  0  0  0  0
  1 14  1  0  0  0  0
  1 17  2  0  0  0  0
  2 10  1  0  0  0  0
  2 11  1  0  0  0  0
  2 16  1  0  0  0  0
  2 18  2  0  0  0  0
  3 26  1  0  0  0  0
  3 27  1  0  0  0  0
  4 31  1  0  0  0  0
  4 32  1  0  0  0  0
 24  5  1  1  0  0  0
  5 53  1  0  0  0  0
 25  6  1  1  0  0  0
  6 54  1  0  0  0  0
 31  7  1  1  0  0  0
 29  8  1  1  0  0  0
  8 55  1  0  0  0  0
 30  9  1  6  0  0  0
  9 56  1  0  0  0  0
 10 33  1  0  0  0  0
 12 34  1  0  0  0  0
 12 63  1  0  0  0  0
 13 34  2  0  0  0  0
 14 64  1  0  0  0  0
 15 35  2  0  0  0  0
 16 65  1  0  0  0  0
 19 37  2  0  0  0  0
 20 39  2  0  0  0  0
 27 21  1  6  0  0  0
 21 35  1  0  0  0  0
 21 36  1  0  0  0  0
 28 22  1  1  0  0  0
 22 37  1  0  0  0  0
 22 52  1  0  0  0  0
 23 35  1  0  0  0  0
 23 39  1  0  0  0  0
 23 58  1  0  0  0  0
 24 25  1  0  0  0  0
 24 26  1  0  0  0  0
 24 41  1  0  0  0  0
 25 27  1  0  0  0  0
 25 42  1  0  0  0  0
 26 33  1  6  0  0  0
 26 43  1  0  0  0  0
 27 44  1  0  0  0  0
 28 29  1  0  0  0  0
 28 31  1  0  0  0  0
 28 45  1  0  0  0  0
 29 30  1  0  0  0  0
 29 46  1  0  0  0  0
 30 32  1  0  0  0  0
 30 47  1  0  0  0  0
 31 48  1  0  0  0  0
 32 34  1  1  0  0  0
 32 49  1  0  0  0  0
 33 50  1  0  0  0  0
 33 51  1  0  0  0  0
 36 38  2  0  0  0  0
 36 57  1  0  0  0  0
 37 40  1  0  0  0  0
 38 39  1  0  0  0  0
 38 59  1  0  0  0  0
 40 60  1  0  0  0  0
 40 61  1  0  0  0  0
 40 62  1  0  0  0  0
M  END
> <PUBCHEM_COMPOUND_CID>
656503

> <PUBCHEM_COMPOUND_CANONICALIZED>
1

> <PUBCHEM_CACTVS_COMPLEXITY>
1150

> <PUBCHEM_CACTVS_HBOND_ACCEPTOR>
18

> <PUBCHEM_CACTVS_HBOND_DONOR>
9

> <PUBCHEM_CACTVS_ROTATABLE_BOND>
10

> <PUBCHEM_CACTVS_SUBSKEYS>
AAADceB7PgMAAAAAAAAAAAAAAAAAASAAAAAkQAAAAAAAAAAAAAAAHgAQCCAACDzxgAcDCAPABxCIQCHWWIKAAAAAAgAIAIFIAECTEBYAgAQPQAAPNyKXAMH6eQcQAAAAAAAAAAAAAAAAAAAAAAAAAAAAAA==

> <PUBCHEM_IUPAC_OPENEYE_NAME>
(2S,3S,4R,5S,6S)-5-acetamido-6-[[[(2R,3S,4R,5R)-5-(2,4-dioxopyrimidin-1-yl)-3,4-dihydroxy-tetrahydrofuran-2-yl]methoxy-hydroxy-phosphoryl]oxy-hydroxy-phosphoryl]oxy-3,4-dihydroxy-tetrahydropyran-2-carboxylic acid

> <PUBCHEM_IUPAC_CAS_NAME>
(2S,3S,4R,5S,6S)-5-acetamido-6-[[[(2R,3S,4R,5R)-5-(2,4-dioxo-1-pyrimidinyl)-3,4-dihydroxy-2-oxolanyl]methoxy-hydroxyphosphoryl]oxy-hydroxyphosphoryl]oxy-3,4-dihydroxy-2-oxanecarboxylic acid

> <PUBCHEM_IUPAC_NAME>
(2S,3S,4R,5S,6S)-5-acetamido-6-[[[(2R,3S,4R,5R)-5-(2,4-dioxopyrimidin-1-yl)-3,4-dihydroxyoxolan-2-yl]methoxy-hydroxyphosphoryl]oxy-hydroxyphosphoryl]oxy-3,4-dihydroxyoxane-2-carboxylic acid

> <PUBCHEM_IUPAC_SYSTEMATIC_NAME>
(2S,3S,4R,5S,6S)-5-acetamido-6-[[[(2R,3S,4R,5R)-5-[2,4-bis(oxidanylidene)pyrimidin-1-yl]-3,4-bis(oxidanyl)oxolan-2-yl]methoxy-oxidanyl-phosphoryl]oxy-oxidanyl-phosphoryl]oxy-3,4-bis(oxidanyl)oxane-2-carboxylic acid

> <PUBCHEM_IUPAC_TRADITIONAL_NAME>
(2S,3S,4R,5S,6S)-5-acetamido-6-[[[(2R,3S,4R,5R)-5-(2,4-diketopyrimidin-1-yl)-3,4-dihydroxy-tetrahydrofuran-2-yl]methoxy-hydroxy-phosphoryl]oxy-hydroxy-phosphoryl]oxy-3,4-dihydroxy-tetrahydropyran-2-carboxylic acid

> <PUBCHEM_IUPAC_INCHI>
InChI=1S/C17H25N3O18P2/c1-5(21)18-8-10(24)11(25)13(15(27)28)36-16(8)37-40(32,33)38-39(30,31)34-4-6-9(23)12(26)14(35-6)20-3-2-7(22)19-17(20)29/h2-3,6,8-14,16,23-26H,4H2,1H3,(H,18,21)(H,27,28)(H,30,31)(H,32,33)(H,19,22,29)/t6-,8+,9-,10-,11+,12-,13+,14-,16+/m1/s1

> <PUBCHEM_IUPAC_INCHIKEY>
DZOGQXKQLXAPND-GWOJABOKSA-N

> <PUBCHEM_XLOGP3_AA>
-6.4

> <PUBCHEM_EXACT_MASS>
621.060834

> <PUBCHEM_MOLECULAR_FORMULA>
C17H25N3O18P2

> <PUBCHEM_MOLECULAR_WEIGHT>
621.337224

> <PUBCHEM_OPENEYE_CAN_SMILES>
CC(=O)NC1C(C(C(OC1OP(=O)(O)OP(=O)(O)OCC2C(C(C(O2)N3C=CC(=O)NC3=O)O)O)C(=O)O)O)O

> <PUBCHEM_OPENEYE_ISO_SMILES>
CC(=O)N[C@H]1[C@H]([C@@H]([C@H](O[C@H]1OP(=O)(O)OP(=O)(O)OC[C@@H]2[C@H]([C@H]([C@@H](O2)N3C=CC(=O)NC3=O)O)O)C(=O)O)O)O

> <PUBCHEM_CACTVS_TPSA>
318

> <PUBCHEM_MONOISOTOPIC_WEIGHT>
621.060834

> <PUBCHEM_TOTAL_CHARGE>
0

> <PUBCHEM_HEAVY_ATOM_COUNT>
40

> <PUBCHEM_ATOM_DEF_STEREO_COUNT>
9

> <PUBCHEM_ATOM_UDEF_STEREO_COUNT>
0

> <PUBCHEM_BOND_DEF_STEREO_COUNT>
0

> <PUBCHEM_BOND_UDEF_STEREO_COUNT>
0

> <PUBCHEM_ISOTOPIC_ATOM_COUNT>
0

> <PUBCHEM_COMPONENT_COUNT>
1

> <PUBCHEM_CACTVS_TAUTO_COUNT>
6

> <PUBCHEM_COORDINATE_TYPE>
1
5
255

> <PUBCHEM_BONDANNOTATIONS>
27  21  6
21  35  8
21  36  8
28  22  5
23  35  8
23  39  8
26  33  6
32  34  5
36  38  8
38  39  8
24  5  5
25  6  5
31  7  5
29  8  5
30  9  6

$$$$

