11953969
  -OEChem-07051213022D

 88 92  0     1  0  0  0  0  0999 V2000
    8.1282   -2.0000    0.0000 O   0  0  0  0  0  0  0  0  0  0  0  0
    8.1282   -1.0000    0.0000 O   0  0  0  0  0  0  0  0  0  0  0  0
    5.5301    0.5000    0.0000 O   0  0  0  0  0  0  0  0  0  0  0  0
    5.5301   -3.5000    0.0000 O   0  0  0  0  0  0  0  0  0  0  0  0
    4.1714    4.4439    0.0000 O   0  0  0  0  0  0  0  0  0  0  0  0
    4.3221    3.9397    0.0000 O   0  0  0  0  0  0  0  0  0  0  0  0
    6.5301    1.5000    0.0000 O   0  0  0  0  0  0  0  0  0  0  0  0
    2.0000    3.5242    0.0000 O   0  0  0  0  0  0  0  0  0  0  0  0
   10.7263    3.5000    0.0000 O   0  0  0  0  0  0  0  0  0  0  0  0
    7.2622   -1.5000    0.0000 C   0  0  2  0  0  0  0  0  0  0  0  0
    6.3961   -2.0000    0.0000 C   0  0  0  0  0  0  0  0  0  0  0  0
    7.2622   -3.5000    0.0000 C   0  0  2  0  0  0  0  0  0  0  0  0
    8.1282   -3.0000    0.0000 C   0  0  1  0  0  0  0  0  0  0  0  0
    6.3961   -1.0000    0.0000 C   0  0  0  0  0  0  0  0  0  0  0  0
    6.3961   -3.0000    0.0000 C   0  0  1  0  0  0  0  0  0  0  0  0
    6.3961    0.0000    0.0000 C   0  0  2  0  0  0  0  0  0  0  0  0
    8.1282    0.0000    0.0000 C   0  0  1  0  0  0  0  0  0  0  0  0
    7.2622    0.5000    0.0000 C   0  0  0  0  0  0  0  0  0  0  0  0
    8.9942   -3.5000    0.0000 C   0  0  0  0  0  0  0  0  0  0  0  0
    7.2622   -4.5000    0.0000 C   0  0  0  0  0  0  0  0  0  0  0  0
    8.9942    0.5000    0.0000 C   0  0  0  0  0  0  0  0  0  0  0  0
    4.6641    3.0000    0.0000 C   0  0  2  0  0  0  0  0  0  0  0  0
    4.6641    2.0000    0.0000 C   0  0  2  0  0  0  0  0  0  0  0  0
    8.9942   -4.5000    0.0000 C   0  0  0  0  0  0  0  0  0  0  0  0
    9.8602   -3.0000    0.0000 C   0  0  0  0  0  0  0  0  0  0  0  0
    3.7702    3.5347    0.0000 C   0  0  1  0  0  0  0  0  0  0  0  0
    5.5301    1.5000    0.0000 C   0  0  0  0  0  0  0  0  0  0  0  0
    5.5301    3.5000    0.0000 C   0  0  0  0  0  0  0  0  0  0  0  0
    3.7702    1.4653    0.0000 C   0  0  0  0  0  0  0  0  0  0  0  0
    8.9942    1.5000    0.0000 C   0  0  0  0  0  0  0  0  0  0  0  0
    5.1650    4.4243    0.0000 C   0  0  0  0  0  0  0  0  0  0  0  0
    2.8641    3.0208    0.0000 C   0  0  0  0  0  0  0  0  0  0  0  0
    2.8641    1.9792    0.0000 C   0  0  0  0  0  0  0  0  0  0  0  0
    9.8602    2.0000    0.0000 C   0  0  0  0  0  0  0  0  0  0  0  0
    6.3961    3.0000    0.0000 C   0  0  0  0  0  0  0  0  0  0  0  0
    9.8602    3.0000    0.0000 C   0  0  2  0  0  0  0  0  0  0  0  0
    2.0000    1.4759    0.0000 C   0  0  0  0  0  0  0  0  0  0  0  0
    8.9942    3.5000    0.0000 C   0  0  2  0  0  0  0  0  0  0  0  0
    7.2622    3.5000    0.0000 C   0  0  0  0  0  0  0  0  0  0  0  0
   10.7263    1.5000    0.0000 C   0  0  0  0  0  0  0  0  0  0  0  0
    8.1282    3.0000    0.0000 C   0  0  0  0  0  0  0  0  0  0  0  0
    8.9942    4.5000    0.0000 C   0  0  0  0  0  0  0  0  0  0  0  0
    6.1841   -1.4174    0.0000 H   0  0  0  0  0  0  0  0  0  0  0  0
    5.7856   -2.1077    0.0000 H   0  0  0  0  0  0  0  0  0  0  0  0
    6.7252   -3.8100    0.0000 H   0  0  0  0  0  0  0  0  0  0  0  0
    8.6651   -2.6900    0.0000 H   0  0  0  0  0  0  0  0  0  0  0  0
    5.7856   -0.8923    0.0000 H   0  0  0  0  0  0  0  0  0  0  0  0
    6.1841   -1.5826    0.0000 H   0  0  0  0  0  0  0  0  0  0  0  0
    5.8592   -2.6900    0.0000 H   0  0  0  0  0  0  0  0  0  0  0  0
    5.6600   -0.4250    0.0000 H   0  0  0  0  0  0  0  0  0  0  0  0
    8.8643   -0.4250    0.0000 H   0  0  0  0  0  0  0  0  0  0  0  0
    7.6607    0.9749    0.0000 H   0  0  0  0  0  0  0  0  0  0  0  0
    6.8636    0.9749    0.0000 H   0  0  0  0  0  0  0  0  0  0  0  0
    8.4573   -3.8100    0.0000 H   0  0  0  0  0  0  0  0  0  0  0  0
    6.6422   -4.5000    0.0000 H   0  0  0  0  0  0  0  0  0  0  0  0
    7.2622   -5.1200    0.0000 H   0  0  0  0  0  0  0  0  0  0  0  0
    7.8822   -4.5000    0.0000 H   0  0  0  0  0  0  0  0  0  0  0  0
    9.2063   -0.0826    0.0000 H   0  0  0  0  0  0  0  0  0  0  0  0
    9.6048    0.6077    0.0000 H   0  0  0  0  0  0  0  0  0  0  0  0
    4.6641    1.1500    0.0000 H   0  0  0  0  0  0  0  0  0  0  0  0
    8.3742   -4.5000    0.0000 H   0  0  0  0  0  0  0  0  0  0  0  0
    8.9942   -5.1200    0.0000 H   0  0  0  0  0  0  0  0  0  0  0  0
    9.6142   -4.5000    0.0000 H   0  0  0  0  0  0  0  0  0  0  0  0
   10.1703   -3.5369    0.0000 H   0  0  0  0  0  0  0  0  0  0  0  0
   10.3972   -2.6900    0.0000 H   0  0  0  0  0  0  0  0  0  0  0  0
    9.5502   -2.4631    0.0000 H   0  0  0  0  0  0  0  0  0  0  0  0
    3.1397    4.1048    0.0000 H   0  0  0  0  0  0  0  0  0  0  0  0
    5.5301   -4.1200    0.0000 H   0  0  0  0  0  0  0  0  0  0  0  0
    3.7773    0.8454    0.0000 H   0  0  0  0  0  0  0  0  0  0  0  0
    8.4573    1.8100    0.0000 H   0  0  0  0  0  0  0  0  0  0  0  0
    5.7666    4.5742    0.0000 H   0  0  0  0  0  0  0  0  0  0  0  0
    5.0956    5.0404    0.0000 H   0  0  0  0  0  0  0  0  0  0  0  0
    3.7395    4.1518    0.0000 H   0  0  0  0  0  0  0  0  0  0  0  0
    6.7062    2.4631    0.0000 H   0  0  0  0  0  0  0  0  0  0  0  0
   10.3972    2.6900    0.0000 H   0  0  0  0  0  0  0  0  0  0  0  0
    1.6879    2.0116    0.0000 H   0  0  0  0  0  0  0  0  0  0  0  0
    1.4643    1.1638    0.0000 H   0  0  0  0  0  0  0  0  0  0  0  0
    2.3121    0.9401    0.0000 H   0  0  0  0  0  0  0  0  0  0  0  0
    8.4573    3.8100    0.0000 H   0  0  0  0  0  0  0  0  0  0  0  0
    7.2622    4.1200    0.0000 H   0  0  0  0  0  0  0  0  0  0  0  0
   10.4163    0.9631    0.0000 H   0  0  0  0  0  0  0  0  0  0  0  0
   11.2632    1.1900    0.0000 H   0  0  0  0  0  0  0  0  0  0  0  0
   11.0363    2.0369    0.0000 H   0  0  0  0  0  0  0  0  0  0  0  0
    8.1282    2.3800    0.0000 H   0  0  0  0  0  0  0  0  0  0  0  0
    9.6142    4.5000    0.0000 H   0  0  0  0  0  0  0  0  0  0  0  0
    8.9942    5.1200    0.0000 H   0  0  0  0  0  0  0  0  0  0  0  0
    8.3742    4.5000    0.0000 H   0  0  0  0  0  0  0  0  0  0  0  0
   11.2632    3.1900    0.0000 H   0  0  0  0  0  0  0  0  0  0  0  0
 10  1  1  6  0  0  0
  1 13  1  0  0  0  0
  2 10  1  0  0  0  0
  2 17  1  0  0  0  0
  3 16  1  0  0  0  0
  3 27  1  0  0  0  0
 15  4  1  1  0  0  0
  4 68  1  0  0  0  0
  5 26  1  0  0  0  0
  5 31  1  0  0  0  0
 22  6  1  6  0  0  0
  6 73  1  0  0  0  0
  7 27  2  0  0  0  0
  8 32  2  0  0  0  0
 36  9  1  6  0  0  0
  9 88  1  0  0  0  0
 10 11  1  0  0  0  0
 10 14  1  0  0  0  0
 11 15  1  0  0  0  0
 11 43  1  0  0  0  0
 11 44  1  0  0  0  0
 12 13  1  0  0  0  0
 12 15  1  0  0  0  0
 12 20  1  1  0  0  0
 12 45  1  0  0  0  0
 13 19  1  6  0  0  0
 13 46  1  0  0  0  0
 14 16  1  0  0  0  0
 14 47  1  0  0  0  0
 14 48  1  0  0  0  0
 15 49  1  0  0  0  0
 16 18  1  0  0  0  0
 16 50  1  6  0  0  0
 17 18  1  0  0  0  0
 17 21  1  0  0  0  0
 17 51  1  6  0  0  0
 18 52  1  0  0  0  0
 18 53  1  0  0  0  0
 19 24  1  0  0  0  0
 19 25  1  0  0  0  0
 19 54  1  0  0  0  0
 20 55  1  0  0  0  0
 20 56  1  0  0  0  0
 20 57  1  0  0  0  0
 21 30  1  0  0  0  0
 21 58  1  0  0  0  0
 21 59  1  0  0  0  0
 22 23  1  0  0  0  0
 22 26  1  0  0  0  0
 22 28  1  0  0  0  0
 23 27  1  0  0  0  0
 23 29  1  0  0  0  0
 23 60  1  1  0  0  0
 24 61  1  0  0  0  0
 24 62  1  0  0  0  0
 24 63  1  0  0  0  0
 25 64  1  0  0  0  0
 25 65  1  0  0  0  0
 25 66  1  0  0  0  0
 26 32  1  0  0  0  0
 26 67  1  6  0  0  0
 28 31  1  0  0  0  0
 28 35  2  0  0  0  0
 29 33  2  0  0  0  0
 29 69  1  0  0  0  0
 30 34  2  0  0  0  0
 30 70  1  0  0  0  0
 31 71  1  0  0  0  0
 31 72  1  0  0  0  0
 32 33  1  0  0  0  0
 33 37  1  0  0  0  0
 34 36  1  0  0  0  0
 34 40  1  0  0  0  0
 35 39  1  0  0  0  0
 35 74  1  0  0  0  0
 36 38  1  0  0  0  0
 36 75  1  0  0  0  0
 37 76  1  0  0  0  0
 37 77  1  0  0  0  0
 37 78  1  0  0  0  0
 38 41  1  0  0  0  0
 38 42  1  6  0  0  0
 38 79  1  0  0  0  0
 39 41  2  0  0  0  0
 39 80  1  0  0  0  0
 40 81  1  0  0  0  0
 40 82  1  0  0  0  0
 40 83  1  0  0  0  0
 41 84  1  0  0  0  0
 42 85  1  0  0  0  0
 42 86  1  0  0  0  0
 42 87  1  0  0  0  0
M  END
> <PUBCHEM_COMPOUND_CID>
11953969

> <PUBCHEM_COMPOUND_CANONICALIZED>
1

> <PUBCHEM_CACTVS_COMPLEXITY>
1200

> <PUBCHEM_CACTVS_HBOND_ACCEPTOR>
9

> <PUBCHEM_CACTVS_HBOND_DONOR>
3

> <PUBCHEM_CACTVS_ROTATABLE_BOND>
1

> <PUBCHEM_CACTVS_SUBSKEYS>
AAADcfB8PAAAAAAAAAAAAAAAAAAAASAAAAAkSIAAAAAAAEAAAAAAGgAACAAADVSggAICCAAABgCIAqDSCAIAAAAgAAAICAFAAEgZFBYAIQQiUAAF4AAPsYPK7uyugAAAAAAAAAAAAAAAAAAAAAAAAAAAAA==

> <PUBCHEM_IUPAC_INCHI>
InChI=1S/C33H46O9/c1-17(2)29-21(6)26(34)15-32(42-29)14-24-13-23(41-32)11-10-19(4)27(35)18(3)8-7-9-22-16-39-30-28(36)20(5)12-25(31(37)40-24)33(22,30)38/h7-10,12,17-18,21,23-27,29-30,34-35,38H,11,13-16H2,1-6H3/b8-7+,19-10+,22-9+/t18-,21-,23+,24-,25-,26-,27-,29+,30+,32-,33+/m0/s1

> <PUBCHEM_IUPAC_INCHIKEY>
XPKKFLVMJSAYAI-MEQIXVRQSA-N

> <PUBCHEM_XLOGP3_AA>
2.8

> <PUBCHEM_EXACT_MASS>
586.314183

> <PUBCHEM_MOLECULAR_FORMULA>
C33H46O9

> <PUBCHEM_MOLECULAR_WEIGHT>
586.71294

> <PUBCHEM_OPENEYE_CAN_SMILES>
CC1C=CC=C2COC3C2(C(C=C(C3=O)C)C(=O)OC4CC(CC=C(C1O)C)OC5(C4)CC(C(C(O5)C(C)C)C)O)O

> <PUBCHEM_OPENEYE_ISO_SMILES>
C[C@H]1/C=C/C=C/2\CO[C@H]3[C@@]2([C@@H](C=C(C3=O)C)C(=O)O[C@H]4C[C@@H](C/C=C(/[C@H]1O)\C)O[C@]5(C4)C[C@@H]([C@@H]([C@H](O5)C(C)C)C)O)O

> <PUBCHEM_CACTVS_TPSA>
132

> <PUBCHEM_MONOISOTOPIC_WEIGHT>
586.314183

> <PUBCHEM_TOTAL_CHARGE>
0

> <PUBCHEM_HEAVY_ATOM_COUNT>
42

> <PUBCHEM_ATOM_DEF_STEREO_COUNT>
11

> <PUBCHEM_ATOM_UDEF_STEREO_COUNT>
0

> <PUBCHEM_BOND_DEF_STEREO_COUNT>
3

> <PUBCHEM_BOND_UDEF_STEREO_COUNT>
0

> <PUBCHEM_ISOTOPIC_ATOM_COUNT>
0

> <PUBCHEM_COMPONENT_COUNT>
1

> <PUBCHEM_CACTVS_TAUTO_COUNT>
7

> <PUBCHEM_COORDINATE_TYPE>
1
5
255

> <PUBCHEM_BONDANNOTATIONS>
10  1  6
12  20  5
13  19  6
16  50  6
17  51  6
23  60  5
26  67  6
38  42  6
15  4  5
22  6  6
36  9  6

$$$$

