5281948
  -OEChem-07051213012D

 46 48  0     0  0  0  0  0  0999 V2000
    5.4641   -0.4031    0.0000 O   0  0  0  0  0  0  0  0  0  0  0  0
    8.9942   -0.4273    0.0000 O   0  0  0  0  0  0  0  0  0  0  0  0
    7.2125    2.6315    0.0000 O   0  0  0  0  0  0  0  0  0  0  0  0
    3.7320    1.5969    0.0000 O   0  0  0  0  0  0  0  0  0  0  0  0
    5.4641    2.5969    0.0000 O   0  0  0  0  0  0  0  0  0  0  0  0
    7.2125   -1.4377    0.0000 C   0  0  0  0  0  0  0  0  0  0  0  0
    7.2241   -0.4378    0.0000 C   0  0  0  0  0  0  0  0  0  0  0  0
    6.3301    0.0969    0.0000 C   0  0  0  0  0  0  0  0  0  0  0  0
    8.2124   -1.4493    0.0000 C   0  0  0  0  0  0  0  0  0  0  0  0
    6.2126   -1.4262    0.0000 C   0  0  0  0  0  0  0  0  0  0  0  0
    6.3301    1.0969    0.0000 C   0  0  0  0  0  0  0  0  0  0  0  0
    8.1301    0.0760    0.0000 C   0  0  0  0  0  0  0  0  0  0  0  0
    7.2009   -2.4377    0.0000 C   0  0  0  0  0  0  0  0  0  0  0  0
    7.2241    1.6315    0.0000 C   0  0  0  0  0  0  0  0  0  0  0  0
    8.1301    1.1177    0.0000 C   0  0  0  0  0  0  0  0  0  0  0  0
    5.4641    1.5969    0.0000 C   0  0  0  0  0  0  0  0  0  0  0  0
    4.5981    0.0969    0.0000 C   0  0  0  0  0  0  0  0  0  0  0  0
    4.5981    1.0969    0.0000 C   0  0  0  0  0  0  0  0  0  0  0  0
    3.7320   -0.4031    0.0000 C   0  0  0  0  0  0  0  0  0  0  0  0
    8.0611   -2.9476    0.0000 C   0  0  0  0  0  0  0  0  0  0  0  0
    3.7320   -1.4031    0.0000 C   0  0  0  0  0  0  0  0  0  0  0  0
    2.8660    0.0969    0.0000 C   0  0  0  0  0  0  0  0  0  0  0  0
    2.8660   -1.9031    0.0000 C   0  0  0  0  0  0  0  0  0  0  0  0
    2.0000   -0.4031    0.0000 C   0  0  0  0  0  0  0  0  0  0  0  0
    3.7320    2.5969    0.0000 C   0  0  0  0  0  0  0  0  0  0  0  0
    2.0000   -1.4031    0.0000 C   0  0  0  0  0  0  0  0  0  0  0  0
    8.2053   -2.0692    0.0000 H   0  0  0  0  0  0  0  0  0  0  0  0
    6.2197   -0.8062    0.0000 H   0  0  0  0  0  0  0  0  0  0  0  0
    5.5926   -1.4190    0.0000 H   0  0  0  0  0  0  0  0  0  0  0  0
    6.2054   -2.0461    0.0000 H   0  0  0  0  0  0  0  0  0  0  0  0
    8.8324   -1.4565    0.0000 H   0  0  0  0  0  0  0  0  0  0  0  0
    8.2196   -0.8293    0.0000 H   0  0  0  0  0  0  0  0  0  0  0  0
    6.6605   -2.7414    0.0000 H   0  0  0  0  0  0  0  0  0  0  0  0
    8.6659    1.4298    0.0000 H   0  0  0  0  0  0  0  0  0  0  0  0
    8.0540   -3.5676    0.0000 H   0  0  0  0  0  0  0  0  0  0  0  0
    8.6016   -2.6439    0.0000 H   0  0  0  0  0  0  0  0  0  0  0  0
    9.5323   -0.1194    0.0000 H   0  0  0  0  0  0  0  0  0  0  0  0
    7.7458    2.9476    0.0000 H   0  0  0  0  0  0  0  0  0  0  0  0
    4.2690   -1.7131    0.0000 H   0  0  0  0  0  0  0  0  0  0  0  0
    2.8660    0.7169    0.0000 H   0  0  0  0  0  0  0  0  0  0  0  0
    2.8660   -2.5231    0.0000 H   0  0  0  0  0  0  0  0  0  0  0  0
    1.4631   -0.0931    0.0000 H   0  0  0  0  0  0  0  0  0  0  0  0
    4.3520    2.5969    0.0000 H   0  0  0  0  0  0  0  0  0  0  0  0
    3.7320    3.2169    0.0000 H   0  0  0  0  0  0  0  0  0  0  0  0
    3.1120    2.5969    0.0000 H   0  0  0  0  0  0  0  0  0  0  0  0
    1.4631   -1.7131    0.0000 H   0  0  0  0  0  0  0  0  0  0  0  0
  1  8  1  0  0  0  0
  1 17  1  0  0  0  0
  2 12  1  0  0  0  0
  2 37  1  0  0  0  0
  3 14  1  0  0  0  0
  3 38  1  0  0  0  0
  4 18  1  0  0  0  0
  4 25  1  0  0  0  0
  5 16  2  0  0  0  0
  6  7  1  0  0  0  0
  6  9  1  0  0  0  0
  6 10  1  0  0  0  0
  6 13  1  0  0  0  0
  7  8  1  0  0  0  0
  7 12  2  0  0  0  0
  8 11  2  0  0  0  0
  9 27  1  0  0  0  0
  9 31  1  0  0  0  0
  9 32  1  0  0  0  0
 10 28  1  0  0  0  0
 10 29  1  0  0  0  0
 10 30  1  0  0  0  0
 11 14  1  0  0  0  0
 11 16  1  0  0  0  0
 12 15  1  0  0  0  0
 13 20  2  0  0  0  0
 13 33  1  0  0  0  0
 14 15  2  0  0  0  0
 15 34  1  0  0  0  0
 16 18  1  0  0  0  0
 17 18  2  0  0  0  0
 17 19  1  0  0  0  0
 19 21  2  0  0  0  0
 19 22  1  0  0  0  0
 20 35  1  0  0  0  0
 20 36  1  0  0  0  0
 21 23  1  0  0  0  0
 21 39  1  0  0  0  0
 22 24  2  0  0  0  0
 22 40  1  0  0  0  0
 23 26  2  0  0  0  0
 23 41  1  0  0  0  0
 24 26  1  0  0  0  0
 24 42  1  0  0  0  0
 25 43  1  0  0  0  0
 25 44  1  0  0  0  0
 25 45  1  0  0  0  0
 26 46  1  0  0  0  0
M  END
> <PUBCHEM_COMPOUND_CID>
5281948

> <PUBCHEM_COMPOUND_CANONICALIZED>
1

> <PUBCHEM_CACTVS_COMPLEXITY>
587

> <PUBCHEM_CACTVS_HBOND_ACCEPTOR>
5

> <PUBCHEM_CACTVS_HBOND_DONOR>
2

> <PUBCHEM_CACTVS_ROTATABLE_BOND>
4

> <PUBCHEM_CACTVS_SUBSKEYS>
AAADceB4OAAAAAAAAAAAAAAAAAAAAAAAAAAwYIAAAAAAAACBQAAAGgAACAAADgSAmAIyBoAABgCIAqBSAAICCAAkIAAIiAFGCMgMJzaGNR6CeWCl4BUIuQfI7PzPoAACCAAIAABAAAQQABAAAAAAAAAAAA==

> <PUBCHEM_IUPAC_OPENEYE_NAME>
8-(1,1-dimethylallyl)-5,7-dihydroxy-3-methoxy-2-phenyl-chromen-4-one

> <PUBCHEM_IUPAC_CAS_NAME>
5,7-dihydroxy-3-methoxy-8-(2-methylbut-3-en-2-yl)-2-phenyl-1-benzopyran-4-one

> <PUBCHEM_IUPAC_NAME>
5,7-dihydroxy-3-methoxy-8-(2-methylbut-3-en-2-yl)-2-phenylchromen-4-one

> <PUBCHEM_IUPAC_SYSTEMATIC_NAME>
3-methoxy-8-(2-methylbut-3-en-2-yl)-5,7-bis(oxidanyl)-2-phenyl-chromen-4-one

> <PUBCHEM_IUPAC_TRADITIONAL_NAME>
8-(1,1-dimethylallyl)-5,7-dihydroxy-3-methoxy-2-phenyl-chromone

> <PUBCHEM_IUPAC_INCHI>
InChI=1S/C21H20O5/c1-5-21(2,3)16-14(23)11-13(22)15-17(24)20(25-4)18(26-19(15)16)12-9-7-6-8-10-12/h5-11,22-23H,1H2,2-4H3

> <PUBCHEM_IUPAC_INCHIKEY>
AFLRJCXCYQMRGE-UHFFFAOYSA-N

> <PUBCHEM_XLOGP3_AA>
5.1

> <PUBCHEM_EXACT_MASS>
352.131074

> <PUBCHEM_MOLECULAR_FORMULA>
C21H20O5

> <PUBCHEM_MOLECULAR_WEIGHT>
352.3805

> <PUBCHEM_OPENEYE_CAN_SMILES>
CC(C)(C=C)C1=C(C=C(C2=C1OC(=C(C2=O)OC)C3=CC=CC=C3)O)O

> <PUBCHEM_OPENEYE_ISO_SMILES>
CC(C)(C=C)C1=C(C=C(C2=C1OC(=C(C2=O)OC)C3=CC=CC=C3)O)O

> <PUBCHEM_CACTVS_TPSA>
76

> <PUBCHEM_MONOISOTOPIC_WEIGHT>
352.131074

> <PUBCHEM_TOTAL_CHARGE>
0

> <PUBCHEM_HEAVY_ATOM_COUNT>
26

> <PUBCHEM_ATOM_DEF_STEREO_COUNT>
0

> <PUBCHEM_ATOM_UDEF_STEREO_COUNT>
0

> <PUBCHEM_BOND_DEF_STEREO_COUNT>
0

> <PUBCHEM_BOND_UDEF_STEREO_COUNT>
0

> <PUBCHEM_ISOTOPIC_ATOM_COUNT>
0

> <PUBCHEM_COMPONENT_COUNT>
1

> <PUBCHEM_CACTVS_TAUTO_COUNT>
12

> <PUBCHEM_COORDINATE_TYPE>
1
5
255

> <PUBCHEM_BONDANNOTATIONS>
1  17  8
1  8  8
11  14  8
11  16  8
12  15  8
14  15  8
16  18  8
17  18  8
19  21  8
19  22  8
21  23  8
22  24  8
23  26  8
24  26  8
7  12  8
7  8  8
8  11  8

$$$$

