   Color/Form

     * Colorless prisms
     * White to slightly yellowish crystalline powder

   from [1]HSDB

   Odor
        Odorless
   from [2]HSDB

   Taste
        Bitter
   from [3]HSDB

   Melting Point
        194 deg C
   from [4]HSDB

   Dissociation Constants
        pKa1 = 1.5 /amino group/; pKa2 = 5.0 /R1SO2NHR2 moiety/ [Boreen AL
   et al; Environ Sci Technol 38: 3933-40 (2004)] [5]PubMed Abstract
   from [6]HSDB

   Octanol/Water Partition Coefficient
        log Kow = 1.01
   from [7]HSDB

   pH
        ACID TO LITMUS
   from [8]HSDB

   Solubilities

     * Soluble in alcohol
     * SOL IN DIETHYL ETHER (1 IN 800); SOL IN 5% AQ SODIUM BICARBONATE (1
       IN 30)
     * 1 G IN ABOUT 6700 ML WATER; SOL IN DIL HYDROCHLORIC ACID; 1 G IN
       ABOUT 10 ML BOILING ALCOHOL
     * In water, 300 mg/L at 37 deg C, pH 4.5

   from [9]HSDB

   Spectral Properties

     * MASS: 75961 (NIST/EPA/MSDC Mass Spectral database, 1990 version);
       2026 (National Bureau of Standards)
     * UV: 612 (Adsorption Spectra in the UV and Visible Region, Academic
       Press, New York)

   from [10]HSDB

   Vapor Pressure
        5.08X10-8 mm Hg at 25 deg C (est)
   from [11]HSDB

   Other Chemical/Physical Properties

     * MP: 191 deg C
     * MP: 195-198 deg C
     * White to off-white, odorless, crystalline powder. Sol in alcohol;
       freely sol in water. /Diethanolamine salt/
     * Mol wt: 309.34. Should not be confused with N4-acetyl sulfisoxazole
       which is a metabolite. Tasteless crystals; mp 193-194 deg C. Sol
       (mg/mL): 0.07 in water; 4.93 in methanol; 5.7 in 95% ethanol; 0.94
       in ether; 29.0 in chloroform /Acetyl sulfisoxazole/
     * Henry's Law constant = 1.06X10-12 atm-cu cm/mol at 25 deg C (est)
     * Hydroxyl radical reaction rate constant = 3.24X10-11 cu
       cm/molec-sec at 25 deg C (est)

   from [12]HSDB

   Computed Properties
   Molecular Weight                  267.30422 [g/mol]
   Molecular Formula                 C[11]H[13]N[3]O[3]S
   XLogP3                            1
   H-Bond Donor                      2
   H-Bond Acceptor                   6
   Rotatable Bond Count              3
   Tautomer Count                    5
   Exact Mass                        267.067762
   MonoIsotopic Mass                 267.067762
   Topological Polar Surface Area    107
   Heavy Atom Count                  18
   Formal Charge                     0
   Complexity                        374
   Isotope Atom Count                0
   Defined Atom Stereocenter Count   0
   Undefined Atom Stereocenter Count 0
   Defined Bond Stereocenter Count   0
   Undefined Bond Stereocenter Count 0
   Covalently-Bonded Unit Count      1
   Feature 3D Acceptor Count         3
   Feature 3D Donor Count            2
   Feature 3D Cation Count           1
   Feature 3D Ring Count             2
   Effective Rotor Count             3
   Conformer Sampling RMSD           0.6
   CID Conformer Count               [13]19

References

   1. http://toxnet.nlm.nih.gov/cgi-bin/sis/search/r?dbs+hsdb:@term+@rn+@rel+127-69-5
   2. http://toxnet.nlm.nih.gov/cgi-bin/sis/search/r?dbs+hsdb:@term+@rn+@rel+127-69-5
   3. http://toxnet.nlm.nih.gov/cgi-bin/sis/search/r?dbs+hsdb:@term+@rn+@rel+127-69-5
   4. http://toxnet.nlm.nih.gov/cgi-bin/sis/search/r?dbs+hsdb:@term+@rn+@rel+127-69-5
   5. http://www.ncbi.nlm.nih.gov/entrez/query.fcgi?cmd=Retrieve&db=pubmed&dopt=Abstract&list_uids=15298203
   6. http://toxnet.nlm.nih.gov/cgi-bin/sis/search/r?dbs+hsdb:@term+@rn+@rel+127-69-5
   7. http://toxnet.nlm.nih.gov/cgi-bin/sis/search/r?dbs+hsdb:@term+@rn+@rel+127-69-5
   8. http://toxnet.nlm.nih.gov/cgi-bin/sis/search/r?dbs+hsdb:@term+@rn+@rel+127-69-5
   9. http://toxnet.nlm.nih.gov/cgi-bin/sis/search/r?dbs+hsdb:@term+@rn+@rel+127-69-5
  10. http://toxnet.nlm.nih.gov/cgi-bin/sis/search/r?dbs+hsdb:@term+@rn+@rel+127-69-5
  11. http://toxnet.nlm.nih.gov/cgi-bin/sis/search/r?dbs+hsdb:@term+@rn+@rel+127-69-5
  12. http://toxnet.nlm.nih.gov/cgi-bin/sis/search/r?dbs+hsdb:@term+@rn+@rel+127-69-5
  13. http://pubchem.ncbi.nlm.nih.gov/vw3d/vw3d.cgi?cid=5344
