441171
  -OEChem-07051212522D

 63 67  0     1  0  0  0  0  0999 V2000
    2.5405    0.7925    0.0000 O   0  0  0  0  0  0  0  0  0  0  0  0
    2.5247   -1.2558    0.0000 O   0  0  0  0  0  0  0  0  0  0  0  0
    6.9088    0.2893    0.0000 O   0  0  0  0  0  0  0  0  0  0  0  0
    7.0009   -0.7562    0.0000 O   0  0  0  0  0  0  0  0  0  0  0  0
    7.8129    1.7862    0.0000 O   0  0  0  0  0  0  0  0  0  0  0  0
    4.2889    3.8208    0.0000 O   0  0  0  0  0  0  0  0  0  0  0  0
    7.8934   -2.3376    0.0000 O   0  0  0  0  0  0  0  0  0  0  0  0
    5.1702    5.4334    0.0000 O   0  0  0  0  0  0  0  0  0  0  0  0
    8.7850    5.4474    0.0000 O   0  0  0  0  0  0  0  0  0  0  0  0
    8.7998   -5.8274    0.0000 O   0  0  0  0  0  0  0  0  0  0  0  0
    7.0678   -5.8474    0.0000 O   0  0  0  0  0  0  0  0  0  0  0  0
    7.0447   -3.8476    0.0000 N   0  0  0  0  0  0  0  0  0  0  0  0
    3.4007    0.2825    0.0000 C   0  0  2  0  0  0  0  0  0  0  0  0
    3.3926   -0.7591    0.0000 C   0  0  2  0  0  0  0  0  0  0  0  0
    4.3107    0.7893    0.0000 C   0  0  0  0  0  0  0  0  0  0  0  0
    5.1767    0.2893    0.0000 C   0  0  0  0  0  0  0  0  0  0  0  0
    4.2947   -1.2799    0.0000 C   0  0  0  0  0  0  0  0  0  0  0  0
    5.1928   -0.7522    0.0000 C   0  0  0  0  0  0  0  0  0  0  0  0
    6.0427    0.7893    0.0000 C   0  0  0  0  0  0  0  0  0  0  0  0
    4.3107    1.7893    0.0000 C   0  0  0  0  0  0  0  0  0  0  0  0
    6.0427    1.7893    0.0000 C   0  0  0  0  0  0  0  0  0  0  0  0
    5.1767    2.2893    0.0000 C   0  0  0  0  0  0  0  0  0  0  0  0
    6.1447   -1.2728    0.0000 C   0  0  0  0  0  0  0  0  0  0  0  0
    4.2864   -2.3649    0.0000 C   0  0  0  0  0  0  0  0  0  0  0  0
    5.2260   -2.9074    0.0000 C   0  0  0  0  0  0  0  0  0  0  0  0
    6.1614   -2.3577    0.0000 C   0  0  0  0  0  0  0  0  0  0  0  0
    6.9527    2.2962    0.0000 C   0  0  0  0  0  0  0  0  0  0  0  0
    5.1606    3.3308    0.0000 C   0  0  0  0  0  0  0  0  0  0  0  0
    6.0587    3.8586    0.0000 C   0  0  0  0  0  0  0  0  0  0  0  0
    6.9608    3.3378    0.0000 C   0  0  0  0  0  0  0  0  0  0  0  0
    5.2298   -3.9074    0.0000 C   0  0  0  0  0  0  0  0  0  0  0  0
    7.0332   -2.8476    0.0000 C   0  0  0  0  0  0  0  0  0  0  0  0
    6.0420    4.9435    0.0000 C   0  0  0  0  0  0  0  0  0  0  0  0
    7.9086    3.8657    0.0000 C   0  0  0  0  0  0  0  0  0  0  0  0
    7.9170    4.9507    0.0000 C   0  0  0  0  0  0  0  0  0  0  0  0
    6.9774    5.4932    0.0000 C   0  0  0  0  0  0  0  0  0  0  0  0
    7.9165   -4.3375    0.0000 C   0  0  3  0  0  0  0  0  0  0  0  0
    8.7767   -3.8275    0.0000 C   0  0  0  0  0  0  0  0  0  0  0  0
    7.9280   -5.3374    0.0000 C   0  0  0  0  0  0  0  0  0  0  0  0
    8.7888    6.4473    0.0000 C   0  0  0  0  0  0  0  0  0  0  0  0
    3.4090    0.9024    0.0000 H   0  0  0  0  0  0  0  0  0  0  0  0
    2.8575   -0.4460    0.0000 H   0  0  0  0  0  0  0  0  0  0  0  0
    3.7737    2.0993    0.0000 H   0  0  0  0  0  0  0  0  0  0  0  0
    3.7482   -2.6728    0.0000 H   0  0  0  0  0  0  0  0  0  0  0  0
    2.0000    0.4887    0.0000 H   0  0  0  0  0  0  0  0  0  0  0  0
    2.5223   -1.8758    0.0000 H   0  0  0  0  0  0  0  0  0  0  0  0
    4.6098   -3.9098    0.0000 H   0  0  0  0  0  0  0  0  0  0  0  0
    5.2322   -4.5274    0.0000 H   0  0  0  0  0  0  0  0  0  0  0  0
    5.8498   -3.9050    0.0000 H   0  0  0  0  0  0  0  0  0  0  0  0
    7.4457    0.5993    0.0000 H   0  0  0  0  0  0  0  0  0  0  0  0
    7.5437   -1.0558    0.0000 H   0  0  0  0  0  0  0  0  0  0  0  0
    8.4420    3.5495    0.0000 H   0  0  0  0  0  0  0  0  0  0  0  0
    6.5114   -4.1637    0.0000 H   0  0  0  0  0  0  0  0  0  0  0  0
    6.9750    6.1132    0.0000 H   0  0  0  0  0  0  0  0  0  0  0  0
    7.9093   -3.7175    0.0000 H   0  0  0  0  0  0  0  0  0  0  0  0
    5.1630    6.0534    0.0000 H   0  0  0  0  0  0  0  0  0  0  0  0
    9.0928   -4.3608    0.0000 H   0  0  0  0  0  0  0  0  0  0  0  0
    9.3100   -3.5113    0.0000 H   0  0  0  0  0  0  0  0  0  0  0  0
    8.4605   -3.2942    0.0000 H   0  0  0  0  0  0  0  0  0  0  0  0
    9.4088    6.4450    0.0000 H   0  0  0  0  0  0  0  0  0  0  0  0
    8.7912    7.0673    0.0000 H   0  0  0  0  0  0  0  0  0  0  0  0
    8.1688    6.4497    0.0000 H   0  0  0  0  0  0  0  0  0  0  0  0
    8.8070   -6.4473    0.0000 H   0  0  0  0  0  0  0  0  0  0  0  0
 13  1  1  1  0  0  0
  1 45  1  0  0  0  0
 14  2  1  6  0  0  0
  2 46  1  0  0  0  0
  3 19  1  0  0  0  0
  3 50  1  0  0  0  0
  4 23  1  0  0  0  0
  4 51  1  0  0  0  0
  5 27  2  0  0  0  0
  6 28  2  0  0  0  0
  7 32  2  0  0  0  0
  8 33  1  0  0  0  0
  8 56  1  0  0  0  0
  9 35  1  0  0  0  0
  9 40  1  0  0  0  0
 10 39  1  0  0  0  0
 10 63  1  0  0  0  0
 11 39  2  0  0  0  0
 12 32  1  0  0  0  0
 12 37  1  0  0  0  0
 12 53  1  0  0  0  0
 13 14  1  0  0  0  0
 13 15  1  0  0  0  0
 13 41  1  0  0  0  0
 14 17  1  0  0  0  0
 14 42  1  0  0  0  0
 15 16  1  0  0  0  0
 15 20  2  0  0  0  0
 16 18  1  0  0  0  0
 16 19  2  0  0  0  0
 17 18  2  0  0  0  0
 17 24  1  0  0  0  0
 18 23  1  0  0  0  0
 19 21  1  0  0  0  0
 20 22  1  0  0  0  0
 20 43  1  0  0  0  0
 21 22  2  0  0  0  0
 21 27  1  0  0  0  0
 22 28  1  0  0  0  0
 23 26  2  0  0  0  0
 24 25  2  0  0  0  0
 24 44  1  0  0  0  0
 25 26  1  0  0  0  0
 25 31  1  0  0  0  0
 26 32  1  0  0  0  0
 27 30  1  0  0  0  0
 28 29  1  0  0  0  0
 29 30  2  0  0  0  0
 29 33  1  0  0  0  0
 30 34  1  0  0  0  0
 31 47  1  0  0  0  0
 31 48  1  0  0  0  0
 31 49  1  0  0  0  0
 33 36  2  0  0  0  0
 34 35  2  0  0  0  0
 34 52  1  0  0  0  0
 35 36  1  0  0  0  0
 36 54  1  0  0  0  0
 37 38  1  0  0  0  0
 37 39  1  0  0  0  0
 37 55  1  0  0  0  0
 38 57  1  0  0  0  0
 38 58  1  0  0  0  0
 38 59  1  0  0  0  0
 40 60  1  0  0  0  0
 40 61  1  0  0  0  0
 40 62  1  0  0  0  0
M  END
> <PUBCHEM_COMPOUND_CID>
441171

> <PUBCHEM_COMPOUND_CANONICALIZED>
1

> <PUBCHEM_CACTVS_COMPLEXITY>
1050

> <PUBCHEM_CACTVS_HBOND_ACCEPTOR>
11

> <PUBCHEM_CACTVS_HBOND_DONOR>
7

> <PUBCHEM_CACTVS_ROTATABLE_BOND>
4

> <PUBCHEM_CACTVS_SUBSKEYS>
AAADceB6PAAAAAAAAAAAAAAAAAAAAAAAAAAwYMGDAAAAAADBUAAAHgAQCAAADDzhmAYyDoLABgCIAqHSGACCCAAkIAAAiIGODMgPNzaGtTuEcWhn9hWZuYfb7PzO4AADCAAYAADAAAYQADCAAAAAAAAAAA==

> <PUBCHEM_IUPAC_OPENEYE_NAME>
2-[[(5S,6S)-1,5,6,9,14-pentahydroxy-11-methoxy-3-methyl-8,13-dioxo-5,6-dihydrobenzo[a]tetracene-2-carbonyl]amino]propanoic acid

> <PUBCHEM_IUPAC_CAS_NAME>
2-[[oxo-[(5S,6S)-1,5,6,9,14-pentahydroxy-11-methoxy-3-methyl-8,13-dioxo-5,6-dihydrobenzo[a]tetracen-2-yl]methyl]amino]propanoic acid

> <PUBCHEM_IUPAC_NAME>
2-[[(5S,6S)-1,5,6,9,14-pentahydroxy-11-methoxy-3-methyl-8,13-dioxo-5,6-dihydrobenzo[a]tetracene-2-carbonyl]amino]propanoic acid

> <PUBCHEM_IUPAC_SYSTEMATIC_NAME>
2-[[(5S,6S)-11-methoxy-3-methyl-1,5,6,9,14-pentakis(oxidanyl)-8,13-bis(oxidanylidene)-5,6-dihydrobenzo[a]tetracen-2-yl]carbonylamino]propanoic acid

> <PUBCHEM_IUPAC_TRADITIONAL_NAME>
2-[[(5S,6S)-1,5,6,9,14-pentahydroxy-8,13-diketo-11-methoxy-3-methyl-5,6-dihydrobenzo[a]tetracene-2-carbonyl]amino]propionic acid

> <PUBCHEM_IUPAC_INCHI>
InChI=1S/C28H23NO11/c1-8-4-11-18(25(35)16(8)27(37)29-9(2)28(38)39)19-13(24(34)23(11)33)7-14-20(26(19)36)22(32)12-5-10(40-3)6-15(30)17(12)21(14)31/h4-7,9,23-24,30,33-36H,1-3H3,(H,29,37)(H,38,39)/t9?,23-,24-/m0/s1

> <PUBCHEM_IUPAC_INCHIKEY>
MXDWXJYFRRURMW-BCGWSGGWSA-N

> <PUBCHEM_XLOGP3_AA>
2.8

> <PUBCHEM_EXACT_MASS>
549.127111

> <PUBCHEM_MOLECULAR_FORMULA>
C28H23NO11

> <PUBCHEM_MOLECULAR_WEIGHT>
549.48232

> <PUBCHEM_OPENEYE_CAN_SMILES>
CC1=C(C(=C2C(=C1)C(C(C3=C2C(=C4C(=C3)C(=O)C5=C(C=C(C=C5C4=O)OC)O)O)O)O)O)C(=O)NC(C)C(=O)O

> <PUBCHEM_OPENEYE_ISO_SMILES>
CC1=C(C(=C2C(=C1)[C@@H]([C@H](C3=C2C(=C4C(=C3)C(=O)C5=C(C=C(C=C5C4=O)OC)O)O)O)O)O)C(=O)NC(C)C(=O)O

> <PUBCHEM_CACTVS_TPSA>
211

> <PUBCHEM_MONOISOTOPIC_WEIGHT>
549.127111

> <PUBCHEM_TOTAL_CHARGE>
0

> <PUBCHEM_HEAVY_ATOM_COUNT>
40

> <PUBCHEM_ATOM_DEF_STEREO_COUNT>
2

> <PUBCHEM_ATOM_UDEF_STEREO_COUNT>
1

> <PUBCHEM_BOND_DEF_STEREO_COUNT>
0

> <PUBCHEM_BOND_UDEF_STEREO_COUNT>
0

> <PUBCHEM_ISOTOPIC_ATOM_COUNT>
0

> <PUBCHEM_COMPONENT_COUNT>
1

> <PUBCHEM_CACTVS_TAUTO_COUNT>
994

> <PUBCHEM_COORDINATE_TYPE>
1
5
255

> <PUBCHEM_BONDANNOTATIONS>
13  1  5
15  16  8
15  20  8
16  19  8
17  18  8
17  24  8
18  23  8
19  21  8
14  2  6
20  22  8
21  22  8
23  26  8
24  25  8
25  26  8
29  30  8
29  33  8
30  34  8
33  36  8
34  35  8
35  36  8
37  38  3

$$$$

