   Color/Form

     * Colorless, crystalline solid
     * White crystalline powder

   from [1]HSDB

   Melting Point
        111-115 deg C
   from [2]HSDB

   Octanol/Water Partition Coefficient
        log Kow = 7.6 (est)
   from [3]HSDB

   Solubilities

     * In water, 7.9X10-4 mg/L at 25 deg C (est)
     * Slightly sol in methanol, ethanol, ethyl acetate, THF.

   from [4]HSDB

   Spectral Properties

     * Specific optical rotation = +48 deg at 22 deg C/D (methanol)
     * Max absorbtion (in ethanol) = 264 nm (epsilon 19000)

   from [5]HSDB

   Vapor Pressure
        1.2X10-12 mm Hg at 25 deg C (est)
   from [6]HSDB

   Other Chemical/Physical Properties

     * Air and light sensitive
     * Henry's Law constant = 3.1X10-7 atm cu-m/mol at 25 deg C (est)
     * Hydroxyl radical reaction rate constant = 3.1X10-10 cu
       cm/molecule-second at 25 deg C (est)

   from [7]HSDB

   Computed Properties
   Molecular Weight                  416.63646 [g/mol]
   Molecular Formula                 C[27]H[44]O[3]
   XLogP3-AA                         5.1
   H-Bond Donor                      3
   H-Bond Acceptor                   3
   Rotatable Bond Count              6
   Exact Mass                        416.329045
   MonoIsotopic Mass                 416.329045
   Topological Polar Surface Area    60.7
   Heavy Atom Count                  30
   Formal Charge                     0
   Complexity                        688
   Isotope Atom Count                0
   Defined Atom Stereocenter Count   6
   Undefined Atom Stereocenter Count 0
   Defined Bond Stereocenter Count   2
   Undefined Bond Stereocenter Count 0
   Covalently-Bonded Unit Count      1
   Feature 3D Acceptor Count         3
   Feature 3D Donor Count            3
   Feature 3D Hydrophobe Count       3
   Feature 3D Ring Count             3
   Effective Rotor Count             8
   Conformer Sampling RMSD           1
   CID Conformer Count               [8]15

References

   1. http://toxnet.nlm.nih.gov/cgi-bin/sis/search/r?dbs+hsdb:@term+@rn+@rel+32222-06-3
   2. http://toxnet.nlm.nih.gov/cgi-bin/sis/search/r?dbs+hsdb:@term+@rn+@rel+32222-06-3
   3. http://toxnet.nlm.nih.gov/cgi-bin/sis/search/r?dbs+hsdb:@term+@rn+@rel+32222-06-3
   4. http://toxnet.nlm.nih.gov/cgi-bin/sis/search/r?dbs+hsdb:@term+@rn+@rel+32222-06-3
   5. http://toxnet.nlm.nih.gov/cgi-bin/sis/search/r?dbs+hsdb:@term+@rn+@rel+32222-06-3
   6. http://toxnet.nlm.nih.gov/cgi-bin/sis/search/r?dbs+hsdb:@term+@rn+@rel+32222-06-3
   7. http://toxnet.nlm.nih.gov/cgi-bin/sis/search/r?dbs+hsdb:@term+@rn+@rel+32222-06-3
   8. http://pubchem.ncbi.nlm.nih.gov/vw3d/vw3d.cgi?cid=5280453
