262097
  -OEChem-07051212592D

 32 34  0     1  0  0  0  0  0999 V2000
    3.5836    0.5201    0.0000 O   0  0  0  0  0  0  0  0  0  0  0  0
    5.3958   -2.2846    0.0000 O   0  0  0  0  0  0  0  0  0  0  0  0
    7.1279   -1.2846    0.0000 O   0  0  0  0  0  0  0  0  0  0  0  0
    3.5836   -1.0894    0.0000 C   0  0  0  0  0  0  0  0  0  0  0  0
    3.0000   -0.2846    0.0000 C   0  0  3  0  0  0  0  0  0  0  0  0
    4.5298   -0.7846    0.0000 C   0  0  0  0  0  0  0  0  0  0  0  0
    4.5298    0.2154    0.0000 C   0  0  0  0  0  0  0  0  0  0  0  0
    2.7736   -1.6758    0.0000 C   0  0  0  0  0  0  0  0  0  0  0  0
    3.8910   -2.0410    0.0000 C   0  0  0  0  0  0  0  0  0  0  0  0
    2.0000   -0.2846    0.0000 C   0  0  0  0  0  0  0  0  0  0  0  0
    5.3958    0.7154    0.0000 C   0  0  0  0  0  0  0  0  0  0  0  0
    5.3958   -1.2846    0.0000 C   0  0  0  0  0  0  0  0  0  0  0  0
    6.2619    0.2154    0.0000 C   0  0  0  0  0  0  0  0  0  0  0  0
    6.2619   -0.7846    0.0000 C   0  0  0  0  0  0  0  0  0  0  0  0
    5.3798    1.7569    0.0000 C   0  0  0  0  0  0  0  0  0  0  0  0
    7.1719    0.7222    0.0000 C   0  0  0  0  0  0  0  0  0  0  0  0
    6.2778    2.2846    0.0000 C   0  0  0  0  0  0  0  0  0  0  0  0
    7.1799    1.7638    0.0000 C   0  0  0  0  0  0  0  0  0  0  0  0
    2.7183    0.2677    0.0000 H   0  0  0  0  0  0  0  0  0  0  0  0
    3.3010   -2.2315    0.0000 H   0  0  0  0  0  0  0  0  0  0  0  0
    4.0816   -2.6309    0.0000 H   0  0  0  0  0  0  0  0  0  0  0  0
    4.4810   -1.8504    0.0000 H   0  0  0  0  0  0  0  0  0  0  0  0
    2.4100   -1.1735    0.0000 H   0  0  0  0  0  0  0  0  0  0  0  0
    2.2714   -2.0393    0.0000 H   0  0  0  0  0  0  0  0  0  0  0  0
    3.1371   -2.1780    0.0000 H   0  0  0  0  0  0  0  0  0  0  0  0
    2.0000    0.3354    0.0000 H   0  0  0  0  0  0  0  0  0  0  0  0
    1.3800   -0.2846    0.0000 H   0  0  0  0  0  0  0  0  0  0  0  0
    2.0000   -0.9046    0.0000 H   0  0  0  0  0  0  0  0  0  0  0  0
    4.8393    2.0606    0.0000 H   0  0  0  0  0  0  0  0  0  0  0  0
    7.7052    0.4060    0.0000 H   0  0  0  0  0  0  0  0  0  0  0  0
    6.2754    2.9046    0.0000 H   0  0  0  0  0  0  0  0  0  0  0  0
    7.7180    2.0717    0.0000 H   0  0  0  0  0  0  0  0  0  0  0  0
  1  5  1  0  0  0  0
  1  7  1  0  0  0  0
  2 12  2  0  0  0  0
  3 14  2  0  0  0  0
  4  5  1  0  0  0  0
  4  6  1  0  0  0  0
  4  8  1  0  0  0  0
  4  9  1  0  0  0  0
  5 10  1  0  0  0  0
  5 19  1  0  0  0  0
  6  7  2  0  0  0  0
  6 12  1  0  0  0  0
  7 11  1  0  0  0  0
  8 23  1  0  0  0  0
  8 24  1  0  0  0  0
  8 25  1  0  0  0  0
  9 20  1  0  0  0  0
  9 21  1  0  0  0  0
  9 22  1  0  0  0  0
 10 26  1  0  0  0  0
 10 27  1  0  0  0  0
 10 28  1  0  0  0  0
 11 13  1  0  0  0  0
 11 15  2  0  0  0  0
 12 14  1  0  0  0  0
 13 14  1  0  0  0  0
 13 16  2  0  0  0  0
 15 17  1  0  0  0  0
 15 29  1  0  0  0  0
 16 18  1  0  0  0  0
 16 30  1  0  0  0  0
 17 18  2  0  0  0  0
 17 31  1  0  0  0  0
 18 32  1  0  0  0  0
M  END
> <PUBCHEM_COMPOUND_CID>
262097

> <PUBCHEM_COMPOUND_CANONICALIZED>
1

> <PUBCHEM_CACTVS_COMPLEXITY>
458

> <PUBCHEM_CACTVS_HBOND_ACCEPTOR>
3

> <PUBCHEM_CACTVS_HBOND_DONOR>
0

> <PUBCHEM_CACTVS_ROTATABLE_BOND>
0

> <PUBCHEM_CACTVS_SUBSKEYS>
AAADccBwMAAAAAAAAAAAAAAAAAAAAQAAAAAwQAAAAAAAAEiBAAAAGgAAAAAADhSgmAIyAIAABACIAqBSAAACCAAkIAAIiAEACMgIJjKANRiCMQAkwAEIqYeKzODPgAAAAAAQAAAAAAAAACAAAAAAAAAAAA==

> <PUBCHEM_IUPAC_OPENEYE_NAME>
2,3,3-trimethyl-2H-benzo[g]benzofuran-4,5-dione

> <PUBCHEM_IUPAC_CAS_NAME>
2,3,3-trimethyl-2H-benzo[g]benzofuran-4,5-dione

> <PUBCHEM_IUPAC_NAME>
2,3,3-trimethyl-2H-benzo[g][1]benzofuran-4,5-dione

> <PUBCHEM_IUPAC_SYSTEMATIC_NAME>
2,3,3-trimethyl-2H-benzo[g][1]benzofuran-4,5-dione

> <PUBCHEM_IUPAC_TRADITIONAL_NAME>
2,3,3-trimethyl-2H-benzo[g]benzofuran-4,5-quinone

> <PUBCHEM_IUPAC_INCHI>
InChI=1S/C15H14O3/c1-8-15(2,3)11-13(17)12(16)9-6-4-5-7-10(9)14(11)18-8/h4-8H,1-3H3

> <PUBCHEM_IUPAC_INCHIKEY>
WGENOABUKBFVAA-UHFFFAOYSA-N

> <PUBCHEM_XLOGP3_AA>
2.5

> <PUBCHEM_EXACT_MASS>
242.094294

> <PUBCHEM_MOLECULAR_FORMULA>
C15H14O3

> <PUBCHEM_MOLECULAR_WEIGHT>
242.26986

> <PUBCHEM_OPENEYE_CAN_SMILES>
CC1C(C2=C(O1)C3=CC=CC=C3C(=O)C2=O)(C)C

> <PUBCHEM_OPENEYE_ISO_SMILES>
CC1C(C2=C(O1)C3=CC=CC=C3C(=O)C2=O)(C)C

> <PUBCHEM_CACTVS_TPSA>
43.4

> <PUBCHEM_MONOISOTOPIC_WEIGHT>
242.094294

> <PUBCHEM_TOTAL_CHARGE>
0

> <PUBCHEM_HEAVY_ATOM_COUNT>
18

> <PUBCHEM_ATOM_DEF_STEREO_COUNT>
0

> <PUBCHEM_ATOM_UDEF_STEREO_COUNT>
1

> <PUBCHEM_BOND_DEF_STEREO_COUNT>
0

> <PUBCHEM_BOND_UDEF_STEREO_COUNT>
0

> <PUBCHEM_ISOTOPIC_ATOM_COUNT>
0

> <PUBCHEM_COMPONENT_COUNT>
1

> <PUBCHEM_CACTVS_TAUTO_COUNT>
1

> <PUBCHEM_COORDINATE_TYPE>
1
5
255

> <PUBCHEM_BONDANNOTATIONS>
11  13  8
11  15  8
13  16  8
15  17  8
16  18  8
17  18  8
5  10  3

$$$$

