123907
  -OEChem-07051212492D

114114  0     1  0  0  0  0  0999 V2000
   18.4545   -4.1900    0.0000 P   0  0  0  0  0  0  0  0  0  0  0  0
   16.7224   -5.1900    0.0000 O   0  0  0  0  0  0  0  0  0  0  0  0
   14.1244   -3.6900    0.0000 O   0  0  0  0  0  0  0  0  0  0  0  0
   17.5885   -3.6900    0.0000 O   0  0  0  0  0  0  0  0  0  0  0  0
   14.1244   -5.6900    0.0000 O   0  0  0  0  0  0  0  0  0  0  0  0
   16.7224   -7.1900    0.0000 O   0  0  0  0  0  0  0  0  0  0  0  0
   17.5885   -2.6900    0.0000 O   0  0  0  0  0  0  0  0  0  0  0  0
   18.4545   -1.1900    0.0000 O   0  0  0  0  0  0  0  0  0  0  0  0
   13.2583   -5.1900    0.0000 O   0  0  0  0  0  0  0  0  0  0  0  0
   11.5263   -5.1900    0.0000 O   0  0  0  0  0  0  0  0  0  0  0  0
   19.3205   -4.6900    0.0000 O   0  0  0  0  0  0  0  0  0  0  0  0
   18.9545   -3.3240    0.0000 O   0  0  0  0  0  0  0  0  0  0  0  0
   17.9545   -5.0560    0.0000 O   0  0  0  0  0  0  0  0  0  0  0  0
   15.8564   -2.6900    0.0000 N   0  0  0  0  0  0  0  0  0  0  0  0
   14.9904   -4.1900    0.0000 C   0  0  2  0  0  0  0  0  0  0  0  0
   15.8564   -3.6900    0.0000 C   0  0  2  0  0  0  0  0  0  0  0  0
   14.9904   -5.1900    0.0000 C   0  0  1  0  0  0  0  0  0  0  0  0
   15.8564   -5.6900    0.0000 C   0  0  1  0  0  0  0  0  0  0  0  0
   16.7224   -4.1900    0.0000 C   0  0  2  0  0  0  0  0  0  0  0  0
   15.8564   -6.6900    0.0000 C   0  0  0  0  0  0  0  0  0  0  0  0
   16.7224   -2.1900    0.0000 C   0  0  0  0  0  0  0  0  0  0  0  0
   16.7224   -1.1900    0.0000 C   0  0  0  0  0  0  0  0  0  0  0  0
   13.2583   -4.1900    0.0000 C   0  0  0  0  0  0  0  0  0  0  0  0
   17.5885   -0.6900    0.0000 C   0  0  1  0  0  0  0  0  0  0  0  0
   12.3923   -3.6900    0.0000 C   0  0  0  0  0  0  0  0  0  0  0  0
   17.5885    0.3100    0.0000 C   0  0  0  0  0  0  0  0  0  0  0  0
   11.5263   -4.1900    0.0000 C   0  0  1  0  0  0  0  0  0  0  0  0
   18.4545    0.8100    0.0000 C   0  0  0  0  0  0  0  0  0  0  0  0
   10.6603   -3.6900    0.0000 C   0  0  0  0  0  0  0  0  0  0  0  0
    9.7942   -4.1900    0.0000 C   0  0  0  0  0  0  0  0  0  0  0  0
   18.4545    1.8100    0.0000 C   0  0  0  0  0  0  0  0  0  0  0  0
    8.9282   -3.6900    0.0000 C   0  0  0  0  0  0  0  0  0  0  0  0
   19.3205    2.3100    0.0000 C   0  0  0  0  0  0  0  0  0  0  0  0
    8.0622   -4.1900    0.0000 C   0  0  0  0  0  0  0  0  0  0  0  0
   19.3205    3.3100    0.0000 C   0  0  0  0  0  0  0  0  0  0  0  0
    7.1962   -3.6900    0.0000 C   0  0  0  0  0  0  0  0  0  0  0  0
   20.1865    3.8100    0.0000 C   0  0  0  0  0  0  0  0  0  0  0  0
    6.3301   -4.1900    0.0000 C   0  0  0  0  0  0  0  0  0  0  0  0
   20.1865    4.8100    0.0000 C   0  0  0  0  0  0  0  0  0  0  0  0
    5.4641   -3.6900    0.0000 C   0  0  0  0  0  0  0  0  0  0  0  0
   21.0526    5.3100    0.0000 C   0  0  0  0  0  0  0  0  0  0  0  0
    4.5981   -4.1900    0.0000 C   0  0  0  0  0  0  0  0  0  0  0  0
   21.0526    6.3100    0.0000 C   0  0  0  0  0  0  0  0  0  0  0  0
    3.7320   -3.6900    0.0000 C   0  0  0  0  0  0  0  0  0  0  0  0
   21.9186    6.8100    0.0000 C   0  0  0  0  0  0  0  0  0  0  0  0
    2.8660   -4.1900    0.0000 C   0  0  0  0  0  0  0  0  0  0  0  0
   21.9186    7.8100    0.0000 C   0  0  0  0  0  0  0  0  0  0  0  0
    2.0000   -3.6900    0.0000 C   0  0  0  0  0  0  0  0  0  0  0  0
   14.9904   -3.5700    0.0000 H   0  0  0  0  0  0  0  0  0  0  0  0
   16.3933   -3.3800    0.0000 H   0  0  0  0  0  0  0  0  0  0  0  0
   14.9904   -5.8100    0.0000 H   0  0  0  0  0  0  0  0  0  0  0  0
   16.3933   -6.0000    0.0000 H   0  0  0  0  0  0  0  0  0  0  0  0
   16.7224   -3.5700    0.0000 H   0  0  0  0  0  0  0  0  0  0  0  0
   15.3195   -2.3800    0.0000 H   0  0  0  0  0  0  0  0  0  0  0  0
   15.2458   -6.5823    0.0000 H   0  0  0  0  0  0  0  0  0  0  0  0
   15.6444   -7.2726    0.0000 H   0  0  0  0  0  0  0  0  0  0  0  0
   14.1244   -6.3100    0.0000 H   0  0  0  0  0  0  0  0  0  0  0  0
   16.5104   -0.6074    0.0000 H   0  0  0  0  0  0  0  0  0  0  0  0
   16.1119   -1.2977    0.0000 H   0  0  0  0  0  0  0  0  0  0  0  0
   17.5885   -1.3100    0.0000 H   0  0  0  0  0  0  0  0  0  0  0  0
   12.7908   -3.2151    0.0000 H   0  0  0  0  0  0  0  0  0  0  0  0
   11.9938   -3.2151    0.0000 H   0  0  0  0  0  0  0  0  0  0  0  0
   17.3764    0.8926    0.0000 H   0  0  0  0  0  0  0  0  0  0  0  0
   16.9779    0.2023    0.0000 H   0  0  0  0  0  0  0  0  0  0  0  0
   12.0632   -4.5000    0.0000 H   0  0  0  0  0  0  0  0  0  0  0  0
   18.6665    0.2274    0.0000 H   0  0  0  0  0  0  0  0  0  0  0  0
   19.0651    0.9177    0.0000 H   0  0  0  0  0  0  0  0  0  0  0  0
   11.0588   -3.2151    0.0000 H   0  0  0  0  0  0  0  0  0  0  0  0
   10.2617   -3.2151    0.0000 H   0  0  0  0  0  0  0  0  0  0  0  0
   16.7224   -7.8100    0.0000 H   0  0  0  0  0  0  0  0  0  0  0  0
    9.3957   -4.6650    0.0000 H   0  0  0  0  0  0  0  0  0  0  0  0
   10.1928   -4.6650    0.0000 H   0  0  0  0  0  0  0  0  0  0  0  0
   18.2424    2.3926    0.0000 H   0  0  0  0  0  0  0  0  0  0  0  0
   17.8439    1.7023    0.0000 H   0  0  0  0  0  0  0  0  0  0  0  0
    9.3267   -3.2151    0.0000 H   0  0  0  0  0  0  0  0  0  0  0  0
    8.5297   -3.2151    0.0000 H   0  0  0  0  0  0  0  0  0  0  0  0
   19.5326    1.7274    0.0000 H   0  0  0  0  0  0  0  0  0  0  0  0
   19.9311    2.4177    0.0000 H   0  0  0  0  0  0  0  0  0  0  0  0
    7.6636   -4.6650    0.0000 H   0  0  0  0  0  0  0  0  0  0  0  0
    8.4607   -4.6650    0.0000 H   0  0  0  0  0  0  0  0  0  0  0  0
   19.1085    3.8926    0.0000 H   0  0  0  0  0  0  0  0  0  0  0  0
   18.7099    3.2023    0.0000 H   0  0  0  0  0  0  0  0  0  0  0  0
    7.5947   -3.2151    0.0000 H   0  0  0  0  0  0  0  0  0  0  0  0
    6.7976   -3.2151    0.0000 H   0  0  0  0  0  0  0  0  0  0  0  0
   20.3986    3.2274    0.0000 H   0  0  0  0  0  0  0  0  0  0  0  0
   20.7971    3.9177    0.0000 H   0  0  0  0  0  0  0  0  0  0  0  0
    5.9316   -4.6650    0.0000 H   0  0  0  0  0  0  0  0  0  0  0  0
    6.7287   -4.6650    0.0000 H   0  0  0  0  0  0  0  0  0  0  0  0
   18.9914   -0.8800    0.0000 H   0  0  0  0  0  0  0  0  0  0  0  0
   19.9745    5.3926    0.0000 H   0  0  0  0  0  0  0  0  0  0  0  0
   19.5760    4.7023    0.0000 H   0  0  0  0  0  0  0  0  0  0  0  0
    5.8626   -3.2151    0.0000 H   0  0  0  0  0  0  0  0  0  0  0  0
    5.0656   -3.2151    0.0000 H   0  0  0  0  0  0  0  0  0  0  0  0
   10.9893   -5.5000    0.0000 H   0  0  0  0  0  0  0  0  0  0  0  0
   19.8574   -4.3800    0.0000 H   0  0  0  0  0  0  0  0  0  0  0  0
   19.5745   -3.3240    0.0000 H   0  0  0  0  0  0  0  0  0  0  0  0
   21.2646    4.7274    0.0000 H   0  0  0  0  0  0  0  0  0  0  0  0
   21.6631    5.4177    0.0000 H   0  0  0  0  0  0  0  0  0  0  0  0
    4.1996   -4.6650    0.0000 H   0  0  0  0  0  0  0  0  0  0  0  0
    4.9966   -4.6650    0.0000 H   0  0  0  0  0  0  0  0  0  0  0  0
   20.8405    6.8926    0.0000 H   0  0  0  0  0  0  0  0  0  0  0  0
   20.4420    6.2023    0.0000 H   0  0  0  0  0  0  0  0  0  0  0  0
    4.1306   -3.2151    0.0000 H   0  0  0  0  0  0  0  0  0  0  0  0
    3.3335   -3.2151    0.0000 H   0  0  0  0  0  0  0  0  0  0  0  0
   22.1306    6.2274    0.0000 H   0  0  0  0  0  0  0  0  0  0  0  0
   22.5292    6.9177    0.0000 H   0  0  0  0  0  0  0  0  0  0  0  0
    2.4675   -4.6650    0.0000 H   0  0  0  0  0  0  0  0  0  0  0  0
    3.2646   -4.6650    0.0000 H   0  0  0  0  0  0  0  0  0  0  0  0
   22.5386    7.8100    0.0000 H   0  0  0  0  0  0  0  0  0  0  0  0
   21.9186    8.4300    0.0000 H   0  0  0  0  0  0  0  0  0  0  0  0
   21.2986    7.8100    0.0000 H   0  0  0  0  0  0  0  0  0  0  0  0
    2.3100   -3.1531    0.0000 H   0  0  0  0  0  0  0  0  0  0  0  0
    1.4631   -3.3800    0.0000 H   0  0  0  0  0  0  0  0  0  0  0  0
    1.6900   -4.2269    0.0000 H   0  0  0  0  0  0  0  0  0  0  0  0
  1  4  1  0  0  0  0
  1 11  1  0  0  0  0
  1 12  1  0  0  0  0
  1 13  2  0  0  0  0
  2 18  1  0  0  0  0
  2 19  1  0  0  0  0
 15  3  1  6  0  0  0
  3 23  1  0  0  0  0
 19  4  1  1  0  0  0
 17  5  1  1  0  0  0
  5 57  1  0  0  0  0
  6 20  1  0  0  0  0
  6 70  1  0  0  0  0
  7 21  2  0  0  0  0
 24  8  1  1  0  0  0
  8 89  1  0  0  0  0
  9 23  2  0  0  0  0
 27 10  1  6  0  0  0
 10 94  1  0  0  0  0
 11 95  1  0  0  0  0
 12 96  1  0  0  0  0
 16 14  1  1  0  0  0
 14 21  1  0  0  0  0
 14 54  1  0  0  0  0
 15 16  1  0  0  0  0
 15 17  1  0  0  0  0
 15 49  1  0  0  0  0
 16 19  1  0  0  0  0
 16 50  1  0  0  0  0
 17 18  1  0  0  0  0
 17 51  1  0  0  0  0
 18 20  1  6  0  0  0
 18 52  1  0  0  0  0
 19 53  1  0  0  0  0
 20 55  1  0  0  0  0
 20 56  1  0  0  0  0
 21 22  1  0  0  0  0
 22 24  1  0  0  0  0
 22 58  1  0  0  0  0
 22 59  1  0  0  0  0
 23 25  1  0  0  0  0
 24 26  1  0  0  0  0
 24 60  1  0  0  0  0
 25 27  1  0  0  0  0
 25 61  1  0  0  0  0
 25 62  1  0  0  0  0
 26 28  1  0  0  0  0
 26 63  1  0  0  0  0
 26 64  1  0  0  0  0
 27 29  1  0  0  0  0
 27 65  1  0  0  0  0
 28 31  1  0  0  0  0
 28 66  1  0  0  0  0
 28 67  1  0  0  0  0
 29 30  1  0  0  0  0
 29 68  1  0  0  0  0
 29 69  1  0  0  0  0
 30 32  1  0  0  0  0
 30 71  1  0  0  0  0
 30 72  1  0  0  0  0
 31 33  1  0  0  0  0
 31 73  1  0  0  0  0
 31 74  1  0  0  0  0
 32 34  1  0  0  0  0
 32 75  1  0  0  0  0
 32 76  1  0  0  0  0
 33 35  1  0  0  0  0
 33 77  1  0  0  0  0
 33 78  1  0  0  0  0
 34 36  1  0  0  0  0
 34 79  1  0  0  0  0
 34 80  1  0  0  0  0
 35 37  1  0  0  0  0
 35 81  1  0  0  0  0
 35 82  1  0  0  0  0
 36 38  1  0  0  0  0
 36 83  1  0  0  0  0
 36 84  1  0  0  0  0
 37 39  1  0  0  0  0
 37 85  1  0  0  0  0
 37 86  1  0  0  0  0
 38 40  1  0  0  0  0
 38 87  1  0  0  0  0
 38 88  1  0  0  0  0
 39 41  1  0  0  0  0
 39 90  1  0  0  0  0
 39 91  1  0  0  0  0
 40 42  1  0  0  0  0
 40 92  1  0  0  0  0
 40 93  1  0  0  0  0
 41 43  1  0  0  0  0
 41 97  1  0  0  0  0
 41 98  1  0  0  0  0
 42 44  1  0  0  0  0
 42 99  1  0  0  0  0
 42100  1  0  0  0  0
 43 45  1  0  0  0  0
 43101  1  0  0  0  0
 43102  1  0  0  0  0
 44 46  1  0  0  0  0
 44103  1  0  0  0  0
 44104  1  0  0  0  0
 45 47  1  0  0  0  0
 45105  1  0  0  0  0
 45106  1  0  0  0  0
 46 48  1  0  0  0  0
 46107  1  0  0  0  0
 46108  1  0  0  0  0
 47109  1  0  0  0  0
 47110  1  0  0  0  0
 47111  1  0  0  0  0
 48112  1  0  0  0  0
 48113  1  0  0  0  0
 48114  1  0  0  0  0
M  END
> <PUBCHEM_COMPOUND_CID>
123907

> <PUBCHEM_COMPOUND_CANONICALIZED>
1

> <PUBCHEM_CACTVS_COMPLEXITY>
890

> <PUBCHEM_CACTVS_HBOND_ACCEPTOR>
12

> <PUBCHEM_CACTVS_HBOND_DONOR>
7

> <PUBCHEM_CACTVS_ROTATABLE_BOND>
30

> <PUBCHEM_CACTVS_SUBSKEYS>
AAADcfB+PAIAAAAAAAAAAAAAAAAAAAAAAAAkAAAAAAAAAAAAAAAAHgAQCCAACDzxgAcCCALABxAIQAGQGIAAAAAAAAAAAIEIAAATEBYAgAAHQAAHNgCXAAH4+KeAAAAAAAAAAAAAAAAAAAAAAAAAAAAAAA==

> <PUBCHEM_IUPAC_OPENEYE_NAME>
[(2R,3S,4R,5R,6R)-3-hydroxy-2-(hydroxymethyl)-5-[[(3R)-3-hydroxytetradecanoyl]amino]-6-phosphonooxy-tetrahydropyran-4-yl] (3R)-3-hydroxytetradecanoate

> <PUBCHEM_IUPAC_CAS_NAME>
(3R)-3-hydroxytetradecanoic acid [(2R,3S,4R,5R,6R)-3-hydroxy-2-(hydroxymethyl)-5-[[(3R)-3-hydroxy-1-oxotetradecyl]amino]-6-phosphonooxy-4-oxanyl] ester

> <PUBCHEM_IUPAC_NAME>
[(2R,3S,4R,5R,6R)-3-hydroxy-2-(hydroxymethyl)-5-[[(3R)-3-hydroxytetradecanoyl]amino]-6-phosphonooxyoxan-4-yl] (3R)-3-hydroxytetradecanoate

> <PUBCHEM_IUPAC_SYSTEMATIC_NAME>
[(2R,3S,4R,5R,6R)-2-(hydroxymethyl)-3-oxidanyl-5-[[(3R)-3-oxidanyltetradecanoyl]amino]-6-phosphonooxy-oxan-4-yl] (3R)-3-oxidanyltetradecanoate

> <PUBCHEM_IUPAC_TRADITIONAL_NAME>
(3R)-3-hydroxymyristic acid [(2R,3S,4R,5R,6R)-3-hydroxy-5-[[(3R)-3-hydroxytetradecanoyl]amino]-2-methylol-6-phosphonooxy-tetrahydropyran-4-yl] ester

> <PUBCHEM_IUPAC_INCHI>
InChI=1S/C34H66NO12P/c1-3-5-7-9-11-13-15-17-19-21-26(37)23-29(39)35-31-33(32(41)28(25-36)45-34(31)47-48(42,43)44)46-30(40)24-27(38)22-20-18-16-14-12-10-8-6-4-2/h26-28,31-34,36-38,41H,3-25H2,1-2H3,(H,35,39)(H2,42,43,44)/t26-,27-,28-,31-,32-,33-,34-/m1/s1

> <PUBCHEM_IUPAC_INCHIKEY>
HEHQDWUWJVPREQ-XQJZMFRCSA-N

> <PUBCHEM_XLOGP3_AA>
7.2

> <PUBCHEM_EXACT_MASS>
711.432263

> <PUBCHEM_MOLECULAR_FORMULA>
C34H66NO12P

> <PUBCHEM_MOLECULAR_WEIGHT>
711.861102

> <PUBCHEM_OPENEYE_CAN_SMILES>
CCCCCCCCCCCC(CC(=O)NC1C(C(C(OC1OP(=O)(O)O)CO)O)OC(=O)CC(CCCCCCCCCCC)O)O

> <PUBCHEM_OPENEYE_ISO_SMILES>
CCCCCCCCCCC[C@H](CC(=O)N[C@@H]1[C@H]([C@@H]([C@H](O[C@@H]1OP(=O)(O)O)CO)O)OC(=O)C[C@@H](CCCCCCCCCCC)O)O

> <PUBCHEM_CACTVS_TPSA>
212

> <PUBCHEM_MONOISOTOPIC_WEIGHT>
711.432263

> <PUBCHEM_TOTAL_CHARGE>
0

> <PUBCHEM_HEAVY_ATOM_COUNT>
48

> <PUBCHEM_ATOM_DEF_STEREO_COUNT>
7

> <PUBCHEM_ATOM_UDEF_STEREO_COUNT>
0

> <PUBCHEM_BOND_DEF_STEREO_COUNT>
0

> <PUBCHEM_BOND_UDEF_STEREO_COUNT>
0

> <PUBCHEM_ISOTOPIC_ATOM_COUNT>
0

> <PUBCHEM_COMPONENT_COUNT>
1

> <PUBCHEM_CACTVS_TAUTO_COUNT>
2

> <PUBCHEM_COORDINATE_TYPE>
1
5
255

> <PUBCHEM_BONDANNOTATIONS>
27  10  6
16  14  5
18  20  6
15  3  6
19  4  5
17  5  5
24  8  5

$$$$

