5281415
  -OEChem-07051212572D

 50 53  0     1  0  0  0  0  0999 V2000
    6.4552    2.5967    0.0000 O   0  0  0  0  0  0  0  0  0  0  0  0
    7.1623    1.3720    0.0000 O   0  0  0  0  0  0  0  0  0  0  0  0
    2.0000    0.4481    0.0000 O   0  0  0  0  0  0  0  0  0  0  0  0
    6.2862    1.1898    0.0000 N   0  0  3  0  0  0  0  0  0  0  0  0
    2.7390   -1.2334    0.0000 N   0  0  0  0  0  0  0  0  0  0  0  0
    5.6131    0.4481    0.0000 C   0  0  1  0  0  0  0  0  0  0  0  0
    5.2304    1.3720    0.0000 C   0  0  3  0  0  0  0  0  0  0  0  0
    4.3066    1.7547    0.0000 C   0  0  2  0  0  0  0  0  0  0  0  0
    5.2304   -0.4758    0.0000 C   0  0  0  0  0  0  0  0  0  0  0  0
    5.0483    2.4278    0.0000 C   0  0  0  0  0  0  0  0  0  0  0  0
    6.0114    2.1530    0.0000 C   0  0  0  0  0  0  0  0  0  0  0  0
    3.3827    1.3720    0.0000 C   0  0  0  0  0  0  0  0  0  0  0  0
    4.3066   -0.8585    0.0000 C   0  0  0  0  0  0  0  0  0  0  0  0
    6.1964    1.6308    0.0000 C   0  0  0  0  0  0  0  0  0  0  0  0
    3.3827   -0.4758    0.0000 C   0  0  0  0  0  0  0  0  0  0  0  0
    3.0000    0.4481    0.0000 C   0  0  0  0  0  0  0  0  0  0  0  0
    7.0158    0.5059    0.0000 C   0  0  0  0  0  0  0  0  0  0  0  0
    4.2260   -1.8493    0.0000 C   0  0  0  0  0  0  0  0  0  0  0  0
    4.8208    3.4016    0.0000 C   0  0  0  0  0  0  0  0  0  0  0  0
    3.2592   -2.0805    0.0000 C   0  0  0  0  0  0  0  0  0  0  0  0
    4.9496   -2.5899    0.0000 C   0  0  0  0  0  0  0  0  0  0  0  0
    3.8637    3.6914    0.0000 C   0  0  0  0  0  0  0  0  0  0  0  0
    2.9490   -3.0684    0.0000 C   0  0  0  0  0  0  0  0  0  0  0  0
    4.6623   -3.5847    0.0000 C   0  0  0  0  0  0  0  0  0  0  0  0
    3.6553   -3.8256    0.0000 C   0  0  0  0  0  0  0  0  0  0  0  0
    7.4211    2.8555    0.0000 C   0  0  0  0  0  0  0  0  0  0  0  0
    6.3311   -0.0069    0.0000 H   0  0  0  0  0  0  0  0  0  0  0  0
    5.2710    1.9906    0.0000 H   0  0  0  0  0  0  0  0  0  0  0  0
    3.8516    2.4726    0.0000 H   0  0  0  0  0  0  0  0  0  0  0  0
    5.3114   -1.0905    0.0000 H   0  0  0  0  0  0  0  0  0  0  0  0
    5.8451   -0.5567    0.0000 H   0  0  0  0  0  0  0  0  0  0  0  0
    6.6288    2.2103    0.0000 H   0  0  0  0  0  0  0  0  0  0  0  0
    6.0688    2.7703    0.0000 H   0  0  0  0  0  0  0  0  0  0  0  0
    3.3018    1.9867    0.0000 H   0  0  0  0  0  0  0  0  0  0  0  0
    2.7680    1.4529    0.0000 H   0  0  0  0  0  0  0  0  0  0  0  0
    6.5918    0.0536    0.0000 H   0  0  0  0  0  0  0  0  0  0  0  0
    7.4681    0.0819    0.0000 H   0  0  0  0  0  0  0  0  0  0  0  0
    7.4398    0.9582    0.0000 H   0  0  0  0  0  0  0  0  0  0  0  0
    5.2731    3.8256    0.0000 H   0  0  0  0  0  0  0  0  0  0  0  0
    2.1209   -1.1858    0.0000 H   0  0  0  0  0  0  0  0  0  0  0  0
    5.5509   -2.4387    0.0000 H   0  0  0  0  0  0  0  0  0  0  0  0
    4.0434    4.2848    0.0000 H   0  0  0  0  0  0  0  0  0  0  0  0
    3.2703    3.8712    0.0000 H   0  0  0  0  0  0  0  0  0  0  0  0
    3.6840    3.0981    0.0000 H   0  0  0  0  0  0  0  0  0  0  0  0
    2.3444   -3.2056    0.0000 H   0  0  0  0  0  0  0  0  0  0  0  0
    5.0904   -4.0332    0.0000 H   0  0  0  0  0  0  0  0  0  0  0  0
    3.4764   -4.4192    0.0000 H   0  0  0  0  0  0  0  0  0  0  0  0
    7.5816    2.2567    0.0000 H   0  0  0  0  0  0  0  0  0  0  0  0
    8.0200    3.0160    0.0000 H   0  0  0  0  0  0  0  0  0  0  0  0
    7.2606    3.4544    0.0000 H   0  0  0  0  0  0  0  0  0  0  0  0
  1 14  1  0  0  0  0
  1 26  1  0  0  0  0
  2 14  2  0  0  0  0
  3 16  2  0  0  0  0
  4  6  1  0  0  0  0
  4 11  1  0  0  0  0
  4 17  1  0  0  0  0
  5 15  1  0  0  0  0
  5 20  1  0  0  0  0
  5 40  1  0  0  0  0
  6  7  1  0  0  0  0
  6  9  1  0  0  0  0
  6 27  1  1  0  0  0
  7  8  1  0  0  0  0
  7 14  1  0  0  0  0
  7 28  1  0  0  0  0
  8 10  1  0  0  0  0
  8 12  1  0  0  0  0
  8 29  1  6  0  0  0
  9 13  1  0  0  0  0
  9 30  1  0  0  0  0
  9 31  1  0  0  0  0
 10 11  1  0  0  0  0
 10 19  2  0  0  0  0
 11 32  1  0  0  0  0
 11 33  1  0  0  0  0
 12 16  1  0  0  0  0
 12 34  1  0  0  0  0
 12 35  1  0  0  0  0
 13 15  2  0  0  0  0
 13 18  1  0  0  0  0
 15 16  1  0  0  0  0
 17 36  1  0  0  0  0
 17 37  1  0  0  0  0
 17 38  1  0  0  0  0
 18 20  1  0  0  0  0
 18 21  2  0  0  0  0
 19 22  1  0  0  0  0
 19 39  1  0  0  0  0
 20 23  2  0  0  0  0
 21 24  1  0  0  0  0
 21 41  1  0  0  0  0
 22 42  1  0  0  0  0
 22 43  1  0  0  0  0
 22 44  1  0  0  0  0
 23 25  1  0  0  0  0
 23 45  1  0  0  0  0
 24 25  2  0  0  0  0
 24 46  1  0  0  0  0
 25 47  1  0  0  0  0
 26 48  1  0  0  0  0
 26 49  1  0  0  0  0
 26 50  1  0  0  0  0
M  END
> <PUBCHEM_COMPOUND_CID>
5281415

> <PUBCHEM_COMPOUND_CANONICALIZED>
1

> <PUBCHEM_CACTVS_COMPLEXITY>
616

> <PUBCHEM_CACTVS_HBOND_ACCEPTOR>
4

> <PUBCHEM_CACTVS_HBOND_DONOR>
1

> <PUBCHEM_CACTVS_ROTATABLE_BOND>
2

> <PUBCHEM_CACTVS_SUBSKEYS>
AAADceB7MAAAAAAAAAAAAAAAAAAAAWAAAAA8QAAAAAAYAFix8AAAHgAQAAAADSzBngYyyPPJlACoA6TyTACCgCAnAiAImSG4ZNgIIPrAlbGEIQhmkADIyQeY3/K+gAAAAAACAAAAAAAAAAQAAAAAAAAAAA==

> <PUBCHEM_IUPAC_INCHI>
InChI=1S/C21H24N2O3/c1-4-12-11-23(2)17-9-15-13-7-5-6-8-16(13)22-20(15)18(24)10-14(12)19(17)21(25)26-3/h4-8,14,17,19,22H,9-11H2,1-3H3/b12-4-/t14-,17+,19?/m0/s1

> <PUBCHEM_IUPAC_INCHIKEY>
TYPMTMPLTVSOBU-BGUKETDVSA-N

> <PUBCHEM_XLOGP3_AA>
2.4

> <PUBCHEM_EXACT_MASS>
352.178693

> <PUBCHEM_MOLECULAR_FORMULA>
C21H24N2O3

> <PUBCHEM_MOLECULAR_WEIGHT>
352.42686

> <PUBCHEM_OPENEYE_CAN_SMILES>
CC=C1CN(C2CC3=C(C(=O)CC1C2C(=O)OC)NC4=CC=CC=C34)C

> <PUBCHEM_OPENEYE_ISO_SMILES>
C/C=C\1/CN([C@@H]2CC3=C(C(=O)C[C@@H]1C2C(=O)OC)NC4=CC=CC=C34)C

> <PUBCHEM_CACTVS_TPSA>
62.4

> <PUBCHEM_MONOISOTOPIC_WEIGHT>
352.178693

> <PUBCHEM_TOTAL_CHARGE>
0

> <PUBCHEM_HEAVY_ATOM_COUNT>
26

> <PUBCHEM_ATOM_DEF_STEREO_COUNT>
2

> <PUBCHEM_ATOM_UDEF_STEREO_COUNT>
1

> <PUBCHEM_BOND_DEF_STEREO_COUNT>
1

> <PUBCHEM_BOND_UDEF_STEREO_COUNT>
0

> <PUBCHEM_ISOTOPIC_ATOM_COUNT>
0

> <PUBCHEM_COMPONENT_COUNT>
1

> <PUBCHEM_CACTVS_TAUTO_COUNT>
29

> <PUBCHEM_COORDINATE_TYPE>
1
5
255

> <PUBCHEM_BONDANNOTATIONS>
13  15  8
13  18  8
18  20  8
18  21  8
20  23  8
21  24  8
23  25  8
24  25  8
5  15  8
5  20  8
6  27  5
7  14  3
8  29  6

$$$$

