47205219
  -OEChem-06241222582D

 33 34  0     0  0  0  0  0  0999 V2000
    7.1962    0.7694    0.0000 O   0  0  0  0  0  0  0  0  0  0  0  0
    5.4641    3.7694    0.0000 O   0  5  0  0  0  0  0  0  0  0  0  0
    3.7320    3.7694    0.0000 O   0  0  0  0  0  0  0  0  0  0  0  0
    6.3301   -0.7306    0.0000 N   0  0  0  0  0  0  0  0  0  0  0  0
    2.8660    2.2694    0.0000 N   0  0  0  0  0  0  0  0  0  0  0  0
    6.3871   -2.8184    0.0000 N   0  0  0  0  0  0  0  0  0  0  0  0
    4.5981    3.2694    0.0000 N   0  3  0  0  0  0  0  0  0  0  0  0
    6.6962   -3.7694    0.0000 N   0  0  0  0  0  0  0  0  0  0  0  0
    5.4641    0.7694    0.0000 C   0  0  0  0  0  0  0  0  0  0  0  0
    7.1962   -1.2306    0.0000 C   0  0  0  0  0  0  0  0  0  0  0  0
    3.7320    1.7694    0.0000 C   0  0  0  0  0  0  0  0  0  0  0  0
    4.5981    2.2694    0.0000 C   0  0  0  0  0  0  0  0  0  0  0  0
    5.4641    1.7694    0.0000 C   0  0  0  0  0  0  0  0  0  0  0  0
    6.3301    0.2694    0.0000 C   0  0  0  0  0  0  0  0  0  0  0  0
    7.1962   -2.2306    0.0000 C   0  0  0  0  0  0  0  0  0  0  0  0
    4.5981    0.2694    0.0000 C   0  0  0  0  0  0  0  0  0  0  0  0
    3.7320    0.7694    0.0000 C   0  0  0  0  0  0  0  0  0  0  0  0
    8.0052   -2.8184    0.0000 C   0  0  0  0  0  0  0  0  0  0  0  0
    7.6962   -3.7694    0.0000 C   0  0  0  0  0  0  0  0  0  0  0  0
    2.0000    1.7694    0.0000 C   0  0  0  0  0  0  0  0  0  0  0  0
    7.8067   -1.3382    0.0000 H   0  0  0  0  0  0  0  0  0  0  0  0
    7.4082   -0.6480    0.0000 H   0  0  0  0  0  0  0  0  0  0  0  0
    6.0010    2.0794    0.0000 H   0  0  0  0  0  0  0  0  0  0  0  0
    4.5981   -0.3506    0.0000 H   0  0  0  0  0  0  0  0  0  0  0  0
    5.7932   -1.0406    0.0000 H   0  0  0  0  0  0  0  0  0  0  0  0
    3.1951    0.4594    0.0000 H   0  0  0  0  0  0  0  0  0  0  0  0
    2.8660    2.8894    0.0000 H   0  0  0  0  0  0  0  0  0  0  0  0
    8.5948   -2.6268    0.0000 H   0  0  0  0  0  0  0  0  0  0  0  0
    5.7975   -2.6268    0.0000 H   0  0  0  0  0  0  0  0  0  0  0  0
    8.0606   -4.2710    0.0000 H   0  0  0  0  0  0  0  0  0  0  0  0
    1.6900    2.3064    0.0000 H   0  0  0  0  0  0  0  0  0  0  0  0
    1.4631    1.4594    0.0000 H   0  0  0  0  0  0  0  0  0  0  0  0
    2.3100    1.2325    0.0000 H   0  0  0  0  0  0  0  0  0  0  0  0
  1 14  2  0  0  0  0
  2  7  1  0  0  0  0
  3  7  2  0  0  0  0
  4 10  1  0  0  0  0
  4 14  1  0  0  0  0
  4 25  1  0  0  0  0
  5 11  1  0  0  0  0
  5 20  1  0  0  0  0
  5 27  1  0  0  0  0
  6  8  1  0  0  0  0
  6 15  1  0  0  0  0
  6 29  1  0  0  0  0
  7 12  1  0  0  0  0
  8 19  2  0  0  0  0
  9 13  2  0  0  0  0
  9 14  1  0  0  0  0
  9 16  1  0  0  0  0
 10 15  1  0  0  0  0
 10 21  1  0  0  0  0
 10 22  1  0  0  0  0
 11 12  2  0  0  0  0
 11 17  1  0  0  0  0
 12 13  1  0  0  0  0
 13 23  1  0  0  0  0
 15 18  2  0  0  0  0
 16 17  2  0  0  0  0
 16 24  1  0  0  0  0
 17 26  1  0  0  0  0
 18 19  1  0  0  0  0
 18 28  1  0  0  0  0
 19 30  1  0  0  0  0
 20 31  1  0  0  0  0
 20 32  1  0  0  0  0
 20 33  1  0  0  0  0
M  CHG  2   2  -1   7   1
M  END
> <PUBCHEM_COMPOUND_CID>
47205219

> <PUBCHEM_COMPOUND_CANONICALIZED>
1

> <PUBCHEM_CACTVS_COMPLEXITY>
360

> <PUBCHEM_CACTVS_HBOND_ACCEPTOR>
5

> <PUBCHEM_CACTVS_HBOND_DONOR>
3

> <PUBCHEM_CACTVS_ROTATABLE_BOND>
4

> <PUBCHEM_CACTVS_SUBSKEYS>
AAADccBzsAAAAAAAAAAAAAAAAAAAAWAAAAAwAAAAAAAAAAABwAAAHgAcAAAADAjBngQ+wJLzQACrAzV3UwCSBAAlggA4uaE4dNoIYLLA1dGUpQhgnoDIyYcciQCeCAAAQAAAACAQAACAAAAAQAAAAAAAAA==

> <PUBCHEM_IUPAC_OPENEYE_NAME>
4-(methylamino)-3-nitro-N-(1H-pyrazol-5-ylmethyl)benzamide

> <PUBCHEM_IUPAC_CAS_NAME>
4-(methylamino)-3-nitro-N-(1H-pyrazol-5-ylmethyl)benzamide

> <PUBCHEM_IUPAC_NAME>
4-(methylamino)-3-nitro-N-(1H-pyrazol-5-ylmethyl)benzamide

> <PUBCHEM_IUPAC_SYSTEMATIC_NAME>
4-(methylamino)-3-nitro-N-(1H-pyrazol-5-ylmethyl)benzamide

> <PUBCHEM_IUPAC_TRADITIONAL_NAME>
4-(methylamino)-3-nitro-N-(1H-pyrazol-5-ylmethyl)benzamide

> <PUBCHEM_IUPAC_INCHI>
InChI=1S/C12H13N5O3/c1-13-10-3-2-8(6-11(10)17(19)20)12(18)14-7-9-4-5-15-16-9/h2-6,13H,7H2,1H3,(H,14,18)(H,15,16)

> <PUBCHEM_IUPAC_INCHIKEY>
PRQTYDCEYBTHIS-UHFFFAOYSA-N

> <PUBCHEM_XLOGP3_AA>
1.4

> <PUBCHEM_EXACT_MASS>
275.101839

> <PUBCHEM_MOLECULAR_FORMULA>
C12H13N5O3

> <PUBCHEM_MOLECULAR_WEIGHT>
275.26332

> <PUBCHEM_OPENEYE_CAN_SMILES>
CNC1=C(C=C(C=C1)C(=O)NCC2=CC=NN2)[N+](=O)[O-]

> <PUBCHEM_OPENEYE_ISO_SMILES>
CNC1=C(C=C(C=C1)C(=O)NCC2=CC=NN2)[N+](=O)[O-]

> <PUBCHEM_CACTVS_TPSA>
116

> <PUBCHEM_MONOISOTOPIC_WEIGHT>
275.101839

> <PUBCHEM_TOTAL_CHARGE>
0

> <PUBCHEM_HEAVY_ATOM_COUNT>
20

> <PUBCHEM_ATOM_DEF_STEREO_COUNT>
0

> <PUBCHEM_ATOM_UDEF_STEREO_COUNT>
0

> <PUBCHEM_BOND_DEF_STEREO_COUNT>
0

> <PUBCHEM_BOND_UDEF_STEREO_COUNT>
0

> <PUBCHEM_ISOTOPIC_ATOM_COUNT>
0

> <PUBCHEM_COMPONENT_COUNT>
1

> <PUBCHEM_CACTVS_TAUTO_COUNT>
10

> <PUBCHEM_COORDINATE_TYPE>
1
5
255

> <PUBCHEM_BONDANNOTATIONS>
11  12  8
11  17  8
12  13  8
15  18  8
16  17  8
18  19  8
6  15  8
6  8  8
8  19  8
9  13  8
9  16  8

$$$$

