   Color/Form

     * ORANGE-RED CRYSTALS
     * PLATES

   from [1]HSDB

   Boiling Point
        ABOUT 360 DEG C
   from [2]HSDB

   Melting Point
        206-207 DEG C
   from [3]HSDB

   Density/Specific Gravity
        1.405 @ 20 DEG F/4 DEG C
   from [4]HSDB

   Solubilities

     * PRACTICALLY INSOLUBLE IN WATER; SOL IN BENZENE, ETHER, GLACIAL
       ACETIC ACID, HOT ALCOHOL
     * SOLUBLE IN SULFURIC ACID

   from [5]HSDB

   Spectral Properties

     * MAX ABSORPTION (ALCOHOL): 252 NM (LOG E= 4.5); 283 NM (LOG E= 3.0);
       SADTLER REFERENCE NUMBER: 21389 (IR, PRISM)
     * Intense mass spectral peaks: 180 m/z (100%), 152 m/z (50%), 208 m/z
       (23%), 151 m/z (23%)
     * IR: 21389 (Sadtler Research Laboratories Prism Collection)
     * MASS: 1293 (National Bureau of Standards EPA-NIH Mass Spectra Data
       Base, NSRDS-NBS-63)

   from [6]HSDB

   Other Chemical/Physical Properties

     * SUBLIMES ABOVE 360 DEG C
     * WITH CONCN SULFURIC ACID GIVES A DARK GREEN COLOR
     * Cyclohexane/water partition coefficient 1.39 (log).
     * MASS: 170 (Aldermaston, Eight Peak Index of Mass Spectra, UK)
       /1,4-Phenanthraquinone/

   from [7]HSDB

   Computed Properties
   Molecular Weight                  208.21212 [g/mol]
   Molecular Formula                 C[14]H[8]O[2]
   XLogP3                            2.5
   H-Bond Donor                      0
   H-Bond Acceptor                   2
   Rotatable Bond Count              0
   Exact Mass                        208.052429
   MonoIsotopic Mass                 208.052429
   Topological Polar Surface Area    34.1
   Heavy Atom Count                  16
   Formal Charge                     0
   Complexity                        289
   Isotope Atom Count                0
   Defined Atom Stereocenter Count   0
   Undefined Atom Stereocenter Count 0
   Defined Bond Stereocenter Count   0
   Undefined Bond Stereocenter Count 0
   Covalently-Bonded Unit Count      1
   Feature 3D Acceptor Count         2
   Feature 3D Ring Count             3
   Effective Rotor Count             0
   Conformer Sampling RMSD           0.4
   CID Conformer Count               [8]1

References

   1. http://toxnet.nlm.nih.gov/cgi-bin/sis/search/r?dbs+hsdb:@term+@rn+@rel+84-11-7
   2. http://toxnet.nlm.nih.gov/cgi-bin/sis/search/r?dbs+hsdb:@term+@rn+@rel+84-11-7
   3. http://toxnet.nlm.nih.gov/cgi-bin/sis/search/r?dbs+hsdb:@term+@rn+@rel+84-11-7
   4. http://toxnet.nlm.nih.gov/cgi-bin/sis/search/r?dbs+hsdb:@term+@rn+@rel+84-11-7
   5. http://toxnet.nlm.nih.gov/cgi-bin/sis/search/r?dbs+hsdb:@term+@rn+@rel+84-11-7
   6. http://toxnet.nlm.nih.gov/cgi-bin/sis/search/r?dbs+hsdb:@term+@rn+@rel+84-11-7
   7. http://toxnet.nlm.nih.gov/cgi-bin/sis/search/r?dbs+hsdb:@term+@rn+@rel+84-11-7
   8. http://pubchem.ncbi.nlm.nih.gov/vw3d/vw3d.cgi?cid=6763
