23724656
  -OEChem-07051213082D

 40 43  0     1  0  0  0  0  0999 V2000
    2.9180    1.4094    0.0000 O   0  0  0  0  0  0  0  0  0  0  0  0
    2.0000   -1.1391    0.0000 O   0  0  0  0  0  0  0  0  0  0  0  0
    5.5161   -0.0906    0.0000 O   0  0  0  0  0  0  0  0  0  0  0  0
    5.6405   -3.2276    0.0000 O   0  0  0  0  0  0  0  0  0  0  0  0
    3.8372   -4.2874    0.0000 O   0  0  0  0  0  0  0  0  0  0  0  0
    4.6622    4.4786    0.0000 O   0  0  0  0  0  0  0  0  0  0  0  0
    3.7841   -0.0906    0.0000 C   0  0  3  0  0  0  0  0  0  0  0  0
    2.9180    0.4094    0.0000 C   0  0  3  0  0  0  0  0  0  0  0  0
    3.8001   -1.1321    0.0000 C   0  0  0  0  0  0  0  0  0  0  0  0
    2.0080   -0.0975    0.0000 C   0  0  0  0  0  0  0  0  0  0  0  0
    4.6501    0.4094    0.0000 C   0  0  0  0  0  0  0  0  0  0  0  0
    2.9021   -1.6599    0.0000 C   0  0  0  0  0  0  0  0  0  0  0  0
    4.6501    1.4094    0.0000 C   0  0  0  0  0  0  0  0  0  0  0  0
    3.7841    1.9094    0.0000 C   0  0  0  0  0  0  0  0  0  0  0  0
    4.7520   -1.6528    0.0000 C   0  0  0  0  0  0  0  0  0  0  0  0
    2.8937   -2.7449    0.0000 C   0  0  0  0  0  0  0  0  0  0  0  0
    4.7688   -2.7376    0.0000 C   0  0  0  0  0  0  0  0  0  0  0  0
    5.5601    1.9162    0.0000 C   0  0  0  0  0  0  0  0  0  0  0  0
    3.8334   -3.2874    0.0000 C   0  0  0  0  0  0  0  0  0  0  0  0
    3.7680    2.9509    0.0000 C   0  0  0  0  0  0  0  0  0  0  0  0
    5.5681    2.9578    0.0000 C   0  0  0  0  0  0  0  0  0  0  0  0
    4.6660    3.4786    0.0000 C   0  0  0  0  0  0  0  0  0  0  0  0
    5.6521   -4.2275    0.0000 C   0  0  0  0  0  0  0  0  0  0  0  0
    2.9731   -4.7907    0.0000 C   0  0  0  0  0  0  0  0  0  0  0  0
    4.3234   -0.3965    0.0000 H   0  0  0  0  0  0  0  0  0  0  0  0
    2.3835    0.7235    0.0000 H   0  0  0  0  0  0  0  0  0  0  0  0
    1.8035    0.4878    0.0000 H   0  0  0  0  0  0  0  0  0  0  0  0
    1.3964   -0.1989    0.0000 H   0  0  0  0  0  0  0  0  0  0  0  0
    5.2829   -1.3325    0.0000 H   0  0  0  0  0  0  0  0  0  0  0  0
    2.3556   -3.0528    0.0000 H   0  0  0  0  0  0  0  0  0  0  0  0
    6.0934    1.6000    0.0000 H   0  0  0  0  0  0  0  0  0  0  0  0
    3.2275    3.2546    0.0000 H   0  0  0  0  0  0  0  0  0  0  0  0
    6.1062    3.2657    0.0000 H   0  0  0  0  0  0  0  0  0  0  0  0
    5.0321   -4.2347    0.0000 H   0  0  0  0  0  0  0  0  0  0  0  0
    5.6592   -4.8475    0.0000 H   0  0  0  0  0  0  0  0  0  0  0  0
    6.2720   -4.2204    0.0000 H   0  0  0  0  0  0  0  0  0  0  0  0
    5.1979    4.7907    0.0000 H   0  0  0  0  0  0  0  0  0  0  0  0
    2.6610   -4.2550    0.0000 H   0  0  0  0  0  0  0  0  0  0  0  0
    2.4374   -5.1028    0.0000 H   0  0  0  0  0  0  0  0  0  0  0  0
    3.2852   -5.3264    0.0000 H   0  0  0  0  0  0  0  0  0  0  0  0
  1  8  1  0  0  0  0
  1 14  1  0  0  0  0
  2 10  1  0  0  0  0
  2 12  1  0  0  0  0
  3 11  2  0  0  0  0
  4 17  1  0  0  0  0
  4 23  1  0  0  0  0
  5 19  1  0  0  0  0
  5 24  1  0  0  0  0
  6 22  1  0  0  0  0
  6 37  1  0  0  0  0
  7  8  1  0  0  0  0
  7  9  1  0  0  0  0
  7 11  1  0  0  0  0
  7 25  1  0  0  0  0
  8 10  1  0  0  0  0
  8 26  1  0  0  0  0
  9 12  1  0  0  0  0
  9 15  2  0  0  0  0
 10 27  1  0  0  0  0
 10 28  1  0  0  0  0
 11 13  1  0  0  0  0
 12 16  2  0  0  0  0
 13 14  2  0  0  0  0
 13 18  1  0  0  0  0
 14 20  1  0  0  0  0
 15 17  1  0  0  0  0
 15 29  1  0  0  0  0
 16 19  1  0  0  0  0
 16 30  1  0  0  0  0
 17 19  2  0  0  0  0
 18 21  2  0  0  0  0
 18 31  1  0  0  0  0
 20 22  2  0  0  0  0
 20 32  1  0  0  0  0
 21 22  1  0  0  0  0
 21 33  1  0  0  0  0
 23 34  1  0  0  0  0
 23 35  1  0  0  0  0
 23 36  1  0  0  0  0
 24 38  1  0  0  0  0
 24 39  1  0  0  0  0
 24 40  1  0  0  0  0
M  END
> <PUBCHEM_COMPOUND_CID>
23724656

> <PUBCHEM_COMPOUND_CANONICALIZED>
1

> <PUBCHEM_CACTVS_COMPLEXITY>
482

> <PUBCHEM_CACTVS_HBOND_ACCEPTOR>
6

> <PUBCHEM_CACTVS_HBOND_DONOR>
1

> <PUBCHEM_CACTVS_ROTATABLE_BOND>
2

> <PUBCHEM_CACTVS_SUBSKEYS>
AAADceB4OAAAAAAAAAAAAAAAAAAAAAAAAAA0aIEAAAAAAACRQAAAGgAACAAADRSgmAIyBoAABgCIAqBSAAACCAAkIAAIiAEGiMgNJzaGNRqCeWKl4BUKuYfK7PzOoQABCAAIQABCAAIQABCAAAAAAAAAAA==

> <PUBCHEM_IUPAC_OPENEYE_NAME>
9-hydroxy-2,3-dimethoxy-6a,12a-dihydro-6H-chromeno[3,4-b]chromen-12-one

> <PUBCHEM_IUPAC_CAS_NAME>
9-hydroxy-2,3-dimethoxy-6a,12a-dihydro-6H-[1]benzopyrano[3,4-b][1]benzopyran-12-one

> <PUBCHEM_IUPAC_NAME>
9-hydroxy-2,3-dimethoxy-6a,12a-dihydro-6H-chromeno[3,4-b]chromen-12-one

> <PUBCHEM_IUPAC_SYSTEMATIC_NAME>
2,3-dimethoxy-9-oxidanyl-6a,12a-dihydro-6H-chromeno[3,4-b]chromen-12-one

> <PUBCHEM_IUPAC_TRADITIONAL_NAME>
9-hydroxy-2,3-dimethoxy-6a,12a-dihydro-6H-chromeno[3,4-b]chromen-12-one

> <PUBCHEM_IUPAC_INCHI>
InChI=1S/C18H16O6/c1-21-14-6-11-12(7-15(14)22-2)23-8-16-17(11)18(20)10-4-3-9(19)5-13(10)24-16/h3-7,16-17,19H,8H2,1-2H3

> <PUBCHEM_IUPAC_INCHIKEY>
WXQDWUQQAGHKOV-UHFFFAOYSA-N

> <PUBCHEM_XLOGP3>
2.4

> <PUBCHEM_EXACT_MASS>
328.094688

> <PUBCHEM_MOLECULAR_FORMULA>
C18H16O6

> <PUBCHEM_MOLECULAR_WEIGHT>
328.31604

> <PUBCHEM_OPENEYE_CAN_SMILES>
COC1=C(C=C2C(=C1)C3C(CO2)OC4=C(C3=O)C=CC(=C4)O)OC

> <PUBCHEM_OPENEYE_ISO_SMILES>
COC1=C(C=C2C(=C1)C3C(CO2)OC4=C(C3=O)C=CC(=C4)O)OC

> <PUBCHEM_CACTVS_TPSA>
74.2

> <PUBCHEM_MONOISOTOPIC_WEIGHT>
328.094688

> <PUBCHEM_TOTAL_CHARGE>
0

> <PUBCHEM_HEAVY_ATOM_COUNT>
24

> <PUBCHEM_ATOM_DEF_STEREO_COUNT>
0

> <PUBCHEM_ATOM_UDEF_STEREO_COUNT>
2

> <PUBCHEM_BOND_DEF_STEREO_COUNT>
0

> <PUBCHEM_BOND_UDEF_STEREO_COUNT>
0

> <PUBCHEM_ISOTOPIC_ATOM_COUNT>
0

> <PUBCHEM_COMPONENT_COUNT>
1

> <PUBCHEM_CACTVS_TAUTO_COUNT>
9

> <PUBCHEM_COORDINATE_TYPE>
1
5
255

> <PUBCHEM_BONDANNOTATIONS>
12  16  8
13  14  8
13  18  8
14  20  8
15  17  8
16  19  8
17  19  8
18  21  8
20  22  8
21  22  8
7  11  3
8  10  3
9  12  8
9  15  8

$$$$

