439664
  -OEChem-07051212462D

 79 83  0     1  0  0  0  0  0999 V2000
    6.6129   -0.1191    0.0000 Mg  0  2  0  0  0  0  0  0  0  0  0  0
    8.0110   -4.4966    0.0000 O   0  0  0  0  0  0  0  0  0  0  0  0
   10.3151   -3.6030    0.0000 O   0  0  0  0  0  0  0  0  0  0  0  0
   10.5207   -1.8832    0.0000 O   0  0  0  0  0  0  0  0  0  0  0  0
   13.0207   -0.9662    0.0000 O   0  0  0  0  0  0  0  0  0  0  0  0
   11.9780   -2.3492    0.0000 O   0  0  0  0  0  0  0  0  0  0  0  0
    8.0994   -0.0924    0.0000 N   0  0  0  0  0  0  0  0  0  0  0  0
    6.6504   -1.4139    0.0000 N   0  5  0  0  0  0  0  0  0  0  0  0
    6.6181    1.2290    0.0000 N   0  5  0  0  0  0  0  0  0  0  0  0
    5.1995   -0.0924    0.0000 N   0  0  0  0  0  0  0  0  0  0  0  0
    9.5825   -0.5432    0.0000 C   0  0  1  0  0  0  0  0  0  0  0  0
    9.5825    0.4228    0.0000 C   0  0  1  0  0  0  0  0  0  0  0  0
    8.6794   -0.8017    0.0000 C   0  0  0  0  0  0  0  0  0  0  0  0
    8.3903   -1.7355    0.0000 C   0  0  0  0  0  0  0  0  0  0  0  0
    7.4242   -1.9940    0.0000 C   0  0  0  0  0  0  0  0  0  0  0  0
    8.9285   -2.5650    0.0000 C   0  0  2  0  0  0  0  0  0  0  0  0
   10.3810   -1.1452    0.0000 C   0  0  0  0  0  0  0  0  0  0  0  0
    8.6471    0.6814    0.0000 C   0  0  0  0  0  0  0  0  0  0  0  0
    7.1334   -2.9278    0.0000 C   0  0  0  0  0  0  0  0  0  0  0  0
    7.9404   -3.4991    0.0000 C   0  0  0  0  0  0  0  0  0  0  0  0
   10.3783    1.0284    0.0000 C   0  0  0  0  0  0  0  0  0  0  0  0
    6.1672   -2.9278    0.0000 C   0  0  0  0  0  0  0  0  0  0  0  0
    5.8764   -2.0263    0.0000 C   0  0  0  0  0  0  0  0  0  0  0  0
    8.3579    1.5829    0.0000 C   0  0  0  0  0  0  0  0  0  0  0  0
   11.3016   -0.7547    0.0000 C   0  0  0  0  0  0  0  0  0  0  0  0
    7.4242    1.8737    0.0000 C   0  0  0  0  0  0  0  0  0  0  0  0
    9.9214   -2.6837    0.0000 C   0  0  0  0  0  0  0  0  0  0  0  0
    7.1011    2.7752    0.0000 C   0  0  0  0  0  0  0  0  0  0  0  0
    5.8442    1.8414    0.0000 C   0  0  0  0  0  0  0  0  0  0  0  0
    5.5786   -3.7362    0.0000 C   0  0  0  0  0  0  0  0  0  0  0  0
    4.9426   -1.7355    0.0000 C   0  0  0  0  0  0  0  0  0  0  0  0
    6.1350    2.7752    0.0000 C   0  0  0  0  0  0  0  0  0  0  0  0
    4.6519   -0.8340    0.0000 C   0  0  0  0  0  0  0  0  0  0  0  0
   12.1001   -1.3567    0.0000 C   0  0  0  0  0  0  0  0  0  0  0  0
    4.9104    1.5829    0.0000 C   0  0  0  0  0  0  0  0  0  0  0  0
    3.7182   -0.5754    0.0000 C   0  0  0  0  0  0  0  0  0  0  0  0
    4.6519    0.6490    0.0000 C   0  0  0  0  0  0  0  0  0  0  0  0
    7.6767    3.5929    0.0000 C   0  0  0  0  0  0  0  0  0  0  0  0
    3.7182    0.3906    0.0000 C   0  0  0  0  0  0  0  0  0  0  0  0
    5.5423    3.5806    0.0000 C   0  0  0  0  0  0  0  0  0  0  0  0
    2.9223   -1.1809    0.0000 C   0  0  0  0  0  0  0  0  0  0  0  0
    2.9223    0.9961    0.0000 C   0  0  0  0  0  0  0  0  0  0  0  0
   11.3080   -3.7217    0.0000 C   0  0  0  0  0  0  0  0  0  0  0  0
    2.0000   -0.7944    0.0000 C   0  0  0  0  0  0  0  0  0  0  0  0
    5.9434    4.4966    0.0000 C   0  0  0  0  0  0  0  0  0  0  0  0
    9.4693   -1.1528    0.0000 H   0  0  0  0  0  0  0  0  0  0  0  0
    9.4651    1.0316    0.0000 H   0  0  0  0  0  0  0  0  0  0  0  0
    9.2563   -2.0388    0.0000 H   0  0  0  0  0  0  0  0  0  0  0  0
    9.9274   -1.5679    0.0000 H   0  0  0  0  0  0  0  0  0  0  0  0
   10.7185   -1.6653    0.0000 H   0  0  0  0  0  0  0  0  0  0  0  0
   10.7537    0.5350    0.0000 H   0  0  0  0  0  0  0  0  0  0  0  0
   10.8716    1.4039    0.0000 H   0  0  0  0  0  0  0  0  0  0  0  0
   10.0028    1.5218    0.0000 H   0  0  0  0  0  0  0  0  0  0  0  0
    8.7944    2.0232    0.0000 H   0  0  0  0  0  0  0  0  0  0  0  0
   11.7551   -0.3320    0.0000 H   0  0  0  0  0  0  0  0  0  0  0  0
   10.9640   -0.2346    0.0000 H   0  0  0  0  0  0  0  0  0  0  0  0
    5.0774   -3.3713    0.0000 H   0  0  0  0  0  0  0  0  0  0  0  0
    5.2136   -4.2374    0.0000 H   0  0  0  0  0  0  0  0  0  0  0  0
    6.0798   -4.1011    0.0000 H   0  0  0  0  0  0  0  0  0  0  0  0
    4.5064   -2.1761    0.0000 H   0  0  0  0  0  0  0  0  0  0  0  0
    4.4720    2.0213    0.0000 H   0  0  0  0  0  0  0  0  0  0  0  0
    8.1837    3.2360    0.0000 H   0  0  0  0  0  0  0  0  0  0  0  0
    8.0336    4.0999    0.0000 H   0  0  0  0  0  0  0  0  0  0  0  0
    7.1697    3.9498    0.0000 H   0  0  0  0  0  0  0  0  0  0  0  0
    4.9261    3.5120    0.0000 H   0  0  0  0  0  0  0  0  0  0  0  0
    2.5870   -1.7024    0.0000 H   0  0  0  0  0  0  0  0  0  0  0  0
    3.3777   -1.6017    0.0000 H   0  0  0  0  0  0  0  0  0  0  0  0
    3.2977    1.4895    0.0000 H   0  0  0  0  0  0  0  0  0  0  0  0
    2.4288    1.3715    0.0000 H   0  0  0  0  0  0  0  0  0  0  0  0
    2.5469    0.5026    0.0000 H   0  0  0  0  0  0  0  0  0  0  0  0
   11.2344   -4.3373    0.0000 H   0  0  0  0  0  0  0  0  0  0  0  0
   11.9237   -3.7953    0.0000 H   0  0  0  0  0  0  0  0  0  0  0  0
   11.3816   -3.1061    0.0000 H   0  0  0  0  0  0  0  0  0  0  0  0
   13.5157   -1.3394    0.0000 H   0  0  0  0  0  0  0  0  0  0  0  0
    2.2396   -0.2226    0.0000 H   0  0  0  0  0  0  0  0  0  0  0  0
    1.4282   -0.5548    0.0000 H   0  0  0  0  0  0  0  0  0  0  0  0
    1.7604   -1.3662    0.0000 H   0  0  0  0  0  0  0  0  0  0  0  0
    6.5596    4.5652    0.0000 H   0  0  0  0  0  0  0  0  0  0  0  0
    5.5759    4.9960    0.0000 H   0  0  0  0  0  0  0  0  0  0  0  0
  2 20  2  0  0  0  0
  3 27  1  0  0  0  0
  3 43  1  0  0  0  0
  4 27  2  0  0  0  0
  5 34  1  0  0  0  0
  5 74  1  0  0  0  0
  6 34  2  0  0  0  0
  7 13  1  0  0  0  0
  7 18  2  0  0  0  0
  8 15  1  0  0  0  0
  8 23  1  0  0  0  0
  9 26  1  0  0  0  0
  9 29  1  0  0  0  0
 10 33  1  0  0  0  0
 10 37  2  0  0  0  0
 11 12  1  0  0  0  0
 11 13  1  0  0  0  0
 11 17  1  6  0  0  0
 11 46  1  0  0  0  0
 12 18  1  0  0  0  0
 12 21  1  1  0  0  0
 12 47  1  0  0  0  0
 13 14  2  0  0  0  0
 14 15  1  0  0  0  0
 14 16  1  0  0  0  0
 15 19  2  0  0  0  0
 16 20  1  0  0  0  0
 16 27  1  1  0  0  0
 16 48  1  0  0  0  0
 17 25  1  0  0  0  0
 17 49  1  0  0  0  0
 17 50  1  0  0  0  0
 18 24  1  0  0  0  0
 19 20  1  0  0  0  0
 19 22  1  0  0  0  0
 21 51  1  0  0  0  0
 21 52  1  0  0  0  0
 21 53  1  0  0  0  0
 22 23  2  0  0  0  0
 22 30  1  0  0  0  0
 23 31  1  0  0  0  0
 24 26  2  0  0  0  0
 24 54  1  0  0  0  0
 25 34  1  0  0  0  0
 25 55  1  0  0  0  0
 25 56  1  0  0  0  0
 26 28  1  0  0  0  0
 28 32  2  0  0  0  0
 28 38  1  0  0  0  0
 29 32  1  0  0  0  0
 29 35  2  0  0  0  0
 30 57  1  0  0  0  0
 30 58  1  0  0  0  0
 30 59  1  0  0  0  0
 31 33  2  0  0  0  0
 31 60  1  0  0  0  0
 32 40  1  0  0  0  0
 33 36  1  0  0  0  0
 35 37  1  0  0  0  0
 35 61  1  0  0  0  0
 36 39  2  0  0  0  0
 36 41  1  0  0  0  0
 37 39  1  0  0  0  0
 38 62  1  0  0  0  0
 38 63  1  0  0  0  0
 38 64  1  0  0  0  0
 39 42  1  0  0  0  0
 40 45  2  0  0  0  0
 40 65  1  0  0  0  0
 41 44  1  0  0  0  0
 41 66  1  0  0  0  0
 41 67  1  0  0  0  0
 42 68  1  0  0  0  0
 42 69  1  0  0  0  0
 42 70  1  0  0  0  0
 43 71  1  0  0  0  0
 43 72  1  0  0  0  0
 43 73  1  0  0  0  0
 44 75  1  0  0  0  0
 44 76  1  0  0  0  0
 44 77  1  0  0  0  0
 45 78  1  0  0  0  0
 45 79  1  0  0  0  0
M  CHG  3   1   2   8  -1   9  -1
M  END
> <PUBCHEM_COMPOUND_CID>
439664

> <PUBCHEM_COMPOUND_CANONICALIZED>
1

> <PUBCHEM_CACTVS_COMPLEXITY>
1650

> <PUBCHEM_CACTVS_HBOND_ACCEPTOR>
9

> <PUBCHEM_CACTVS_HBOND_DONOR>
1

> <PUBCHEM_CACTVS_ROTATABLE_BOND>
7

> <PUBCHEM_CACTVS_SUBSKEYS>
AAADcfB/uAAAACAAAAAAAAAAAAAAAeIECBAAAAAAAAAWAACBgAAAHgAACAAADQyBngICiJIIFgCoA6TyTACCgCAlAiAImCEwRNgIIH7IlJGEQYhk4ADIyUe82fOegAAAAAAAAAAAAAAAAAAAASAAAQAAAA==

> <PUBCHEM_IUPAC_INCHI>
InChI=1S/C35H36N4O5.Mg/c1-8-19-15(3)22-12-24-17(5)21(10-11-28(40)41)32(38-24)30-31(35(43)44-7)34(42)29-18(6)25(39-33(29)30)14-27-20(9-2)16(4)23(37-27)13-26(19)36-22;/h8,12-14,17,21,31H,1,9-11H2,2-7H3,(H3,36,37,38,39,40,41,42);/q;+2/p-2/t17-,21-,31+;/m0./s1

> <PUBCHEM_IUPAC_INCHIKEY>
ANWUQYTXRXCEMZ-NYABAGMLSA-L

> <PUBCHEM_EXACT_MASS>
614.237962

> <PUBCHEM_MOLECULAR_FORMULA>
C35H34MgN4O5

> <PUBCHEM_MOLECULAR_WEIGHT>
614.97326

> <PUBCHEM_OPENEYE_CAN_SMILES>
CCC1=C(C2=NC1=CC3=C(C4=C([N-]3)C(=C5C(C(C(=N5)C=C6C(=C(C(=C2)[N-]6)C=C)C)C)CCC(=O)O)C(C4=O)C(=O)OC)C)C.[Mg+2]

> <PUBCHEM_OPENEYE_ISO_SMILES>
CCC1=C(C2=NC1=CC3=C(C4=C([N-]3)C(=C5[C@H]([C@@H](C(=N5)C=C6C(=C(C(=C2)[N-]6)C=C)C)C)CCC(=O)O)[C@H](C4=O)C(=O)OC)C)C.[Mg+2]

> <PUBCHEM_CACTVS_TPSA>
107

> <PUBCHEM_MONOISOTOPIC_WEIGHT>
614.237962

> <PUBCHEM_TOTAL_CHARGE>
0

> <PUBCHEM_HEAVY_ATOM_COUNT>
45

> <PUBCHEM_ATOM_DEF_STEREO_COUNT>
3

> <PUBCHEM_ATOM_UDEF_STEREO_COUNT>
0

> <PUBCHEM_BOND_DEF_STEREO_COUNT>
0

> <PUBCHEM_BOND_UDEF_STEREO_COUNT>
0

> <PUBCHEM_ISOTOPIC_ATOM_COUNT>
0

> <PUBCHEM_COMPONENT_COUNT>
2

> <PUBCHEM_CACTVS_TAUTO_COUNT>
145

> <PUBCHEM_NONSTANDARDBOND>
1  8  6
1  9  6

> <PUBCHEM_COORDINATE_TYPE>
1
5
255

> <PUBCHEM_BONDANNOTATIONS>
10  33  8
10  37  8
11  17  6
12  21  5
13  14  8
14  15  8
15  19  8
16  27  5
18  24  8
19  22  8
22  23  8
23  31  8
24  26  8
26  28  8
28  32  8
29  32  8
29  35  8
31  33  8
35  37  8
7  13  8
7  18  8
8  15  8
8  23  8
9  26  8
9  29  8

$$$$

