   Color/Form
        COLORLESS CRYSTALS
   from [1]HSDB

   Odor
        ODORLESS
   from [2]HSDB

   Melting Point
        80-83 DEG C
   from [3]HSDB

   Corrosivity
        NONCORROSIVE
   from [4]HSDB

   Octanol/Water Partition Coefficient
        log Kow = 2.30
   from [5]HSDB

   Solubilities

     * 735 ppm in water at 20 deg C; sol in alcohol, acetone, benzene,
       toluene
     * SOL IN DIOXANE, & XYLENE
     * Water solubility = 930 mg/l at 20 deg C.
     * Readily soluble in chloroform, diethyl ether.

   from [6]HSDB

   Vapor Pressure
        1.5X10-4 MM HG AT 22 DEG C
   from [7]HSDB

   Other Chemical/Physical Properties
        Brownish flakes; faint smell of amine; vapor pressure 1.1X10-5 mm
   Hg at 20 deg C; MP: 75-78 deg C /technical grade 92% AI/
   from [8]HSDB

   Computed Properties
   Molecular Weight                  214.64884 [g/mol]
   Molecular Formula                 C[9]H[11]ClN[2]O[2]
   XLogP3                            2.3
   H-Bond Donor                      1
   H-Bond Acceptor                   2
   Rotatable Bond Count              2
   Tautomer Count                    2
   Exact Mass                        214.050905
   MonoIsotopic Mass                 214.050905
   Topological Polar Surface Area    41.6
   Heavy Atom Count                  14
   Formal Charge                     0
   Complexity                        193
   Isotope Atom Count                0
   Defined Atom Stereocenter Count   0
   Undefined Atom Stereocenter Count 0
   Defined Bond Stereocenter Count   0
   Undefined Bond Stereocenter Count 0
   Covalently-Bonded Unit Count      1
   Feature 3D Acceptor Count         1
   Feature 3D Donor Count            1
   Feature 3D Ring Count             1
   Effective Rotor Count             4
   Conformer Sampling RMSD           0.6
   CID Conformer Count               [9]22

References

   1. http://toxnet.nlm.nih.gov/cgi-bin/sis/search/r?dbs+hsdb:@term+@rn+@rel+1746-81-2
   2. http://toxnet.nlm.nih.gov/cgi-bin/sis/search/r?dbs+hsdb:@term+@rn+@rel+1746-81-2
   3. http://toxnet.nlm.nih.gov/cgi-bin/sis/search/r?dbs+hsdb:@term+@rn+@rel+1746-81-2
   4. http://toxnet.nlm.nih.gov/cgi-bin/sis/search/r?dbs+hsdb:@term+@rn+@rel+1746-81-2
   5. http://toxnet.nlm.nih.gov/cgi-bin/sis/search/r?dbs+hsdb:@term+@rn+@rel+1746-81-2
   6. http://toxnet.nlm.nih.gov/cgi-bin/sis/search/r?dbs+hsdb:@term+@rn+@rel+1746-81-2
   7. http://toxnet.nlm.nih.gov/cgi-bin/sis/search/r?dbs+hsdb:@term+@rn+@rel+1746-81-2
   8. http://toxnet.nlm.nih.gov/cgi-bin/sis/search/r?dbs+hsdb:@term+@rn+@rel+1746-81-2
   9. http://pubchem.ncbi.nlm.nih.gov/vw3d/vw3d.cgi?cid=15629
