   Color/Form
        CRYSTALLINE SOLID
   from [1]HSDB

   Melting Point
        130-133 DEG C
   from [2]HSDB

   Corrosivity
        NON-CORROSIVE
   from [3]HSDB

   Solubilities

     * FREELY SOL IN CHLOROFORM, SLIGHTLY SOL IN WATER
     * SOLUBILITY: ACETONE 25%, BENZENE 14%, TOLUENE 10%, XYLENE 6.7%,
       KEROSENE LESS THAN 2%

   from [4]HSDB

   Other Chemical/Physical Properties
        MP: 122.5-124.5 DEG C /TECHNICAL PRODUCT/
   from [5]HSDB

   Computed Properties
   Molecular Weight                  213.66078 [g/mol]
   Molecular Formula                 C[10]H[12]ClNO[2]
   XLogP3-AA                         2.9
   H-Bond Donor                      1
   H-Bond Acceptor                   2
   Rotatable Bond Count              2
   Tautomer Count                    2
   Exact Mass                        213.055656
   MonoIsotopic Mass                 213.055656
   Topological Polar Surface Area    38.3
   Heavy Atom Count                  14
   Formal Charge                     0
   Complexity                        210
   Isotope Atom Count                0
   Defined Atom Stereocenter Count   0
   Undefined Atom Stereocenter Count 0
   Defined Bond Stereocenter Count   0
   Undefined Bond Stereocenter Count 0
   Covalently-Bonded Unit Count      1
   Feature 3D Acceptor Count         1
   Feature 3D Donor Count            1
   Feature 3D Ring Count             1
   Effective Rotor Count             3
   Conformer Sampling RMSD           0.6
   CID Conformer Count               [6]18

References

   1. http://toxnet.nlm.nih.gov/cgi-bin/sis/search/r?dbs+hsdb:@term+@rn+@rel+671-04-5
   2. http://toxnet.nlm.nih.gov/cgi-bin/sis/search/r?dbs+hsdb:@term+@rn+@rel+671-04-5
   3. http://toxnet.nlm.nih.gov/cgi-bin/sis/search/r?dbs+hsdb:@term+@rn+@rel+671-04-5
   4. http://toxnet.nlm.nih.gov/cgi-bin/sis/search/r?dbs+hsdb:@term+@rn+@rel+671-04-5
   5. http://toxnet.nlm.nih.gov/cgi-bin/sis/search/r?dbs+hsdb:@term+@rn+@rel+671-04-5
   6. http://pubchem.ncbi.nlm.nih.gov/vw3d/vw3d.cgi?cid=12636
