   Color/Form
        YELLOW LIQUID
   from [1]HSDB

   Boiling Point
        47-48 DEG C @ 30 MM HG
   from [2]HSDB

   Solubilities
        SOL IN WATER (3%) & IN ORG SOLVENTS & LIPIDS
   from [3]HSDB

   Spectral Properties
        Index of refraction: 1.4920 @ 25 deg C; Max absorption (water):
   200 nm (E= 519, 1%, 1 cm); 270 nm (E= 786, 1%, 1 cm); 376 nm (E= 20,
   1%, 1 cm)
   from [4]HSDB

   Computed Properties
   Molecular Weight                  86.09254 [g/mol]
   Molecular Formula                 C[3]H[6]N[2]O
   XLogP3-AA                         0.7
   H-Bond Donor                      0
   H-Bond Acceptor                   3
   Rotatable Bond Count              1
   Exact Mass                        86.048013
   MonoIsotopic Mass                 86.048013
   Topological Polar Surface Area    32.7
   Heavy Atom Count                  6
   Formal Charge                     0
   Complexity                        61.8
   Isotope Atom Count                0
   Defined Atom Stereocenter Count   0
   Undefined Atom Stereocenter Count 0
   Defined Bond Stereocenter Count   0
   Undefined Bond Stereocenter Count 0
   Covalently-Bonded Unit Count      1
   Effective Rotor Count             2
   Conformer Sampling RMSD           0.4
   CID Conformer Count               [5]11

References

   1. http://toxnet.nlm.nih.gov/cgi-bin/sis/search/r?dbs+hsdb:@term+@rn+@rel+4549-40-0
   2. http://toxnet.nlm.nih.gov/cgi-bin/sis/search/r?dbs+hsdb:@term+@rn+@rel+4549-40-0
   3. http://toxnet.nlm.nih.gov/cgi-bin/sis/search/r?dbs+hsdb:@term+@rn+@rel+4549-40-0
   4. http://toxnet.nlm.nih.gov/cgi-bin/sis/search/r?dbs+hsdb:@term+@rn+@rel+4549-40-0
   5. http://pubchem.ncbi.nlm.nih.gov/vw3d/vw3d.cgi?cid=20678
