   Color/Form

     * Yellow-amber liquid
     * Viscous amber oil /Technical tau-fluvalinate/

   from [1]HSDB

   Odor
        Moderate or weak sweetish odor /Technical tau-fluvalinate/
   from [2]HSDB

   Boiling Point
        164 deg C at 0.07 mm Hg /Technical tau-fluvalinate/
   from [3]HSDB

   Corrosivity
        Non-corrosive to slightly corrosive, depending upon the metal.
   from [4]HSDB

   Density/Specific Gravity
        1.29 g/cu cm at 25 deg C
   from [5]HSDB

   Octanol/Water Partition Coefficient
        log Kow = 4.26 /Tau-fluvalinate/
   from [6]HSDB

   Solubilities

     * Solubility in water: 2.0 ppb; sol in organic solvents
     * In water, 0.005 mg/L at 20 to 25 deg C

   from [7]HSDB

   Spectral Properties
        Index of refraction: 1.549 at 20 deg C/D
   from [8]HSDB

   Vapor Pressure
        <0.013 mPa (<1X10-7 mm Hg) at 25 deg C
   from [9]HSDB

   Other Chemical/Physical Properties

     * Decomposition point: 350 deg C /Tau-fluvalinate/
     * Henry's Law constant = 1.5X10-8 atm-cu m/mol at 25 deg C (est)

   from [10]HSDB

   Computed Properties
   Molecular Weight                  502.91269 [g/mol]
   Molecular Formula                 C[26]H[22]ClF[3]N[2]O[3]
   XLogP3-AA                         7.7
   H-Bond Donor                      1
   H-Bond Acceptor                   8
   Rotatable Bond Count              9
   Exact Mass                        502.127105
   MonoIsotopic Mass                 502.127105
   Topological Polar Surface Area    71.4
   Heavy Atom Count                  35
   Formal Charge                     0
   Complexity                        735
   Isotope Atom Count                0
   Defined Atom Stereocenter Count   0
   Undefined Atom Stereocenter Count 2
   Defined Bond Stereocenter Count   0
   Undefined Bond Stereocenter Count 0
   Covalently-Bonded Unit Count      1
   Feature 3D Acceptor Count         3
   Feature 3D Donor Count            1
   Feature 3D Cation Count           1
   Feature 3D Hydrophobe Count       1
   Feature 3D Ring Count             3
   Effective Rotor Count             10
   Conformer Sampling RMSD           1.4
   CID Conformer Count               [11]323

References

   1. http://toxnet.nlm.nih.gov/cgi-bin/sis/search/r?dbs+hsdb:@term+@rn+@rel+69409-94-5
   2. http://toxnet.nlm.nih.gov/cgi-bin/sis/search/r?dbs+hsdb:@term+@rn+@rel+69409-94-5
   3. http://toxnet.nlm.nih.gov/cgi-bin/sis/search/r?dbs+hsdb:@term+@rn+@rel+69409-94-5
   4. http://toxnet.nlm.nih.gov/cgi-bin/sis/search/r?dbs+hsdb:@term+@rn+@rel+69409-94-5
   5. http://toxnet.nlm.nih.gov/cgi-bin/sis/search/r?dbs+hsdb:@term+@rn+@rel+69409-94-5
   6. http://toxnet.nlm.nih.gov/cgi-bin/sis/search/r?dbs+hsdb:@term+@rn+@rel+69409-94-5
   7. http://toxnet.nlm.nih.gov/cgi-bin/sis/search/r?dbs+hsdb:@term+@rn+@rel+69409-94-5
   8. http://toxnet.nlm.nih.gov/cgi-bin/sis/search/r?dbs+hsdb:@term+@rn+@rel+69409-94-5
   9. http://toxnet.nlm.nih.gov/cgi-bin/sis/search/r?dbs+hsdb:@term+@rn+@rel+69409-94-5
  10. http://toxnet.nlm.nih.gov/cgi-bin/sis/search/r?dbs+hsdb:@term+@rn+@rel+69409-94-5
  11. http://pubchem.ncbi.nlm.nih.gov/vw3d/vw3d.cgi?cid=50516
