6259842
  -OEChem-07051213122D

 47 48  0     0  0  0  0  0  0999 V2000
    2.5369   -5.0490    0.0000 Cl  0  0  0  0  0  0  0  0  0  0  0  0
    6.6350    5.0490    0.0000 O   0  0  0  0  0  0  0  0  0  0  0  0
    6.8671    0.4510    0.0000 O   0  0  0  0  0  0  0  0  0  0  0  0
    3.4030    0.4510    0.0000 O   0  0  0  0  0  0  0  0  0  0  0  0
    4.2690   -2.0490    0.0000 O   0  0  0  0  0  0  0  0  0  0  0  0
    4.2690   -1.0490    0.0000 N   0  0  0  0  0  0  0  0  0  0  0  0
    5.6350    3.3170    0.0000 C   0  0  0  0  0  0  0  0  0  0  0  0
    5.1350    2.4510    0.0000 C   0  0  0  0  0  0  0  0  0  0  0  0
    5.1350    4.1830    0.0000 C   0  0  0  0  0  0  0  0  0  0  0  0
    6.6350    3.3170    0.0000 C   0  0  0  0  0  0  0  0  0  0  0  0
    4.2690    1.9510    0.0000 C   0  0  0  0  0  0  0  0  0  0  0  0
    6.0010    1.9510    0.0000 C   0  0  0  0  0  0  0  0  0  0  0  0
    5.6350    5.0490    0.0000 C   0  0  0  0  0  0  0  0  0  0  0  0
    7.1350    4.1830    0.0000 C   0  0  0  0  0  0  0  0  0  0  0  0
    4.2690    0.9510    0.0000 C   0  0  0  0  0  0  0  0  0  0  0  0
    6.0010    0.9510    0.0000 C   0  0  0  0  0  0  0  0  0  0  0  0
    5.1350    0.4510    0.0000 C   0  0  0  0  0  0  0  0  0  0  0  0
    5.1350   -0.5490    0.0000 C   0  0  0  0  0  0  0  0  0  0  0  0
    6.0010   -1.0490    0.0000 C   0  0  0  0  0  0  0  0  0  0  0  0
    6.0010   -2.0490    0.0000 C   0  0  0  0  0  0  0  0  0  0  0  0
    3.4030   -2.5490    0.0000 C   0  0  0  0  0  0  0  0  0  0  0  0
    3.4030   -3.5490    0.0000 C   0  0  0  0  0  0  0  0  0  0  0  0
    2.5369   -4.0490    0.0000 C   0  0  0  0  0  0  0  0  0  0  0  0
    5.9450    2.7800    0.0000 H   0  0  0  0  0  0  0  0  0  0  0  0
    4.8250    2.9879    0.0000 H   0  0  0  0  0  0  0  0  0  0  0  0
    6.5274    2.7064    0.0000 H   0  0  0  0  0  0  0  0  0  0  0  0
    7.2176    3.1049    0.0000 H   0  0  0  0  0  0  0  0  0  0  0  0
    4.6601    4.5815    0.0000 H   0  0  0  0  0  0  0  0  0  0  0  0
    4.6601    3.7845    0.0000 H   0  0  0  0  0  0  0  0  0  0  0  0
    4.0569    2.5336    0.0000 H   0  0  0  0  0  0  0  0  0  0  0  0
    3.6584    1.8433    0.0000 H   0  0  0  0  0  0  0  0  0  0  0  0
    6.6116    1.8433    0.0000 H   0  0  0  0  0  0  0  0  0  0  0  0
    6.2131    2.5336    0.0000 H   0  0  0  0  0  0  0  0  0  0  0  0
    5.7427    5.6596    0.0000 H   0  0  0  0  0  0  0  0  0  0  0  0
    5.0524    5.2611    0.0000 H   0  0  0  0  0  0  0  0  0  0  0  0
    7.6100    3.7845    0.0000 H   0  0  0  0  0  0  0  0  0  0  0  0
    7.6100    4.5815    0.0000 H   0  0  0  0  0  0  0  0  0  0  0  0
    6.6116   -1.1567    0.0000 H   0  0  0  0  0  0  0  0  0  0  0  0
    6.2131   -0.4664    0.0000 H   0  0  0  0  0  0  0  0  0  0  0  0
    3.7320   -0.7390    0.0000 H   0  0  0  0  0  0  0  0  0  0  0  0
    5.3810   -2.0490    0.0000 H   0  0  0  0  0  0  0  0  0  0  0  0
    6.0010   -2.6690    0.0000 H   0  0  0  0  0  0  0  0  0  0  0  0
    6.6210   -2.0490    0.0000 H   0  0  0  0  0  0  0  0  0  0  0  0
    3.1909   -1.9664    0.0000 H   0  0  0  0  0  0  0  0  0  0  0  0
    2.7924   -2.6567    0.0000 H   0  0  0  0  0  0  0  0  0  0  0  0
    3.9399   -3.8590    0.0000 H   0  0  0  0  0  0  0  0  0  0  0  0
    2.0000   -3.7390    0.0000 H   0  0  0  0  0  0  0  0  0  0  0  0
  1 23  1  0  0  0  0
  2 13  1  0  0  0  0
  2 14  1  0  0  0  0
  3 16  2  0  0  0  0
  4 15  2  0  0  0  0
  5  6  1  0  0  0  0
  5 21  1  0  0  0  0
  6 18  1  0  0  0  0
  6 40  1  0  0  0  0
  7  8  1  0  0  0  0
  7  9  1  0  0  0  0
  7 10  1  0  0  0  0
  7 24  1  0  0  0  0
  8 11  1  0  0  0  0
  8 12  1  0  0  0  0
  8 25  1  0  0  0  0
  9 13  1  0  0  0  0
  9 28  1  0  0  0  0
  9 29  1  0  0  0  0
 10 14  1  0  0  0  0
 10 26  1  0  0  0  0
 10 27  1  0  0  0  0
 11 15  1  0  0  0  0
 11 30  1  0  0  0  0
 11 31  1  0  0  0  0
 12 16  1  0  0  0  0
 12 32  1  0  0  0  0
 12 33  1  0  0  0  0
 13 34  1  0  0  0  0
 13 35  1  0  0  0  0
 14 36  1  0  0  0  0
 14 37  1  0  0  0  0
 15 17  1  0  0  0  0
 16 17  1  0  0  0  0
 17 18  2  0  0  0  0
 18 19  1  0  0  0  0
 19 20  1  0  0  0  0
 19 38  1  0  0  0  0
 19 39  1  0  0  0  0
 20 41  1  0  0  0  0
 20 42  1  0  0  0  0
 20 43  1  0  0  0  0
 21 22  1  0  0  0  0
 21 44  1  0  0  0  0
 21 45  1  0  0  0  0
 22 23  2  0  0  0  0
 22 46  1  0  0  0  0
 23 47  1  0  0  0  0
M  END
> <PUBCHEM_COMPOUND_CID>
6259842

> <PUBCHEM_COMPOUND_CANONICALIZED>
1

> <PUBCHEM_CACTVS_COMPLEXITY>
475

> <PUBCHEM_CACTVS_HBOND_ACCEPTOR>
5

> <PUBCHEM_CACTVS_HBOND_DONOR>
1

> <PUBCHEM_CACTVS_ROTATABLE_BOND>
6

> <PUBCHEM_CACTVS_SUBSKEYS>
AAADceB6OAAEAAAAAAAAAAAAAAAAAAAAAAA0QAAAAAAAAAAAAAAAHgIUAAAADQ+hgEICAABQBACIAqRSQAAAAAAgAAAoCAEAAEgABBIIAQACAAAEkAAIAUOIyuCugAAAAAAAAAAAAAAAAAAAAAAAAAAAAA==

> <PUBCHEM_IUPAC_OPENEYE_NAME>
2-[1-[[(E)-3-chloroallyloxy]amino]propylidene]-5-tetrahydropyran-4-yl-cyclohexane-1,3-dione

> <PUBCHEM_IUPAC_CAS_NAME>
2-[1-[[(E)-3-chloroprop-2-enoxy]amino]propylidene]-5-(4-oxanyl)cyclohexane-1,3-dione

> <PUBCHEM_IUPAC_NAME>
2-[1-[[(E)-3-chloroprop-2-enoxy]amino]propylidene]-5-(oxan-4-yl)cyclohexane-1,3-dione

> <PUBCHEM_IUPAC_SYSTEMATIC_NAME>
2-[1-[[(E)-3-chloranylprop-2-enoxy]amino]propylidene]-5-(oxan-4-yl)cyclohexane-1,3-dione

> <PUBCHEM_IUPAC_TRADITIONAL_NAME>
2-[1-[[(E)-3-chloroallyloxy]amino]propylidene]-5-tetrahydropyran-4-yl-cyclohexane-1,3-quinone

> <PUBCHEM_IUPAC_INCHI>
InChI=1S/C17H24ClNO4/c1-2-14(19-23-7-3-6-18)17-15(20)10-13(11-16(17)21)12-4-8-22-9-5-12/h3,6,12-13,19H,2,4-5,7-11H2,1H3/b6-3+,17-14?

> <PUBCHEM_IUPAC_INCHIKEY>
PHXHZCIAPNNPTQ-JUFJSZMKSA-N

> <PUBCHEM_XLOGP3_AA>
3.1

> <PUBCHEM_EXACT_MASS>
341.139386

> <PUBCHEM_MOLECULAR_FORMULA>
C17H24ClNO4

> <PUBCHEM_MOLECULAR_WEIGHT>
341.82976

> <PUBCHEM_OPENEYE_CAN_SMILES>
CCC(=C1C(=O)CC(CC1=O)C2CCOCC2)NOCC=CCl

> <PUBCHEM_OPENEYE_ISO_SMILES>
CCC(=C1C(=O)CC(CC1=O)C2CCOCC2)NOC/C=C/Cl

> <PUBCHEM_CACTVS_TPSA>
64.6

> <PUBCHEM_MONOISOTOPIC_WEIGHT>
341.139386

> <PUBCHEM_TOTAL_CHARGE>
0

> <PUBCHEM_HEAVY_ATOM_COUNT>
23

> <PUBCHEM_ATOM_DEF_STEREO_COUNT>
0

> <PUBCHEM_ATOM_UDEF_STEREO_COUNT>
0

> <PUBCHEM_BOND_DEF_STEREO_COUNT>
1

> <PUBCHEM_BOND_UDEF_STEREO_COUNT>
0

> <PUBCHEM_ISOTOPIC_ATOM_COUNT>
0

> <PUBCHEM_COMPONENT_COUNT>
1

> <PUBCHEM_CACTVS_TAUTO_COUNT>
13

> <PUBCHEM_COORDINATE_TYPE>
1
5
255

$$$$

