23426006
  -OEChem-07051213082D

119121  0     1  0  0  0  0  0999 V2000
   10.6603    5.6550    0.0000 O   0  0  0  0  0  0  0  0  0  0  0  0
   12.4202    7.6897    0.0000 O   0  0  0  0  0  0  0  0  0  0  0  0
   10.6603    8.6550    0.0000 O   0  0  0  0  0  0  0  0  0  0  0  0
   13.3263    6.1342    0.0000 O   0  0  0  0  0  0  0  0  0  0  0  0
    9.7942    4.1550    0.0000 O   0  0  0  0  0  0  0  0  0  0  0  0
   14.6274    3.4607    0.0000 O   0  0  0  0  0  0  0  0  0  0  0  0
   13.2457    2.1106    0.0000 O   0  0  0  0  0  0  0  0  0  0  0  0
   12.3855    2.6205    0.0000 O   0  0  0  0  0  0  0  0  0  0  0  0
   14.1406    4.6004    0.0000 O   0  0  0  0  0  0  0  0  0  0  0  0
    5.4641   -3.3450    0.0000 O   0  0  0  0  0  0  0  0  0  0  0  0
    2.8660   -5.8450    0.0000 O   0  0  0  0  0  0  0  0  0  0  0  0
    2.0000   -4.3450    0.0000 O   0  0  0  0  0  0  0  0  0  0  0  0
   12.4087    4.6204    0.0000 N   0  0  0  0  0  0  0  0  0  0  0  0
    3.7320   -3.3450    0.0000 N   0  0  0  0  0  0  0  0  0  0  0  0
    5.4641   -7.3450    0.0000 N   0  0  0  0  0  0  0  0  0  0  0  0
    6.3301   -8.8450    0.0000 N   0  0  0  0  0  0  0  0  0  0  0  0
    7.1962   -7.3450    0.0000 N   0  0  0  0  0  0  0  0  0  0  0  0
    9.7942    7.1550    0.0000 C   0  0  0  0  0  0  0  0  0  0  0  0
   10.6603    7.6550    0.0000 C   0  0  1  0  0  0  0  0  0  0  0  0
    9.7942    6.1550    0.0000 C   0  0  1  0  0  0  0  0  0  0  0  0
   11.5263    7.1550    0.0000 C   0  0  2  0  0  0  0  0  0  0  0  0
   11.5263    6.1550    0.0000 C   0  0  1  0  0  0  0  0  0  0  0  0
    8.9282    5.6550    0.0000 C   0  0  0  0  0  0  0  0  0  0  0  0
    8.7942    7.1550    0.0000 C   0  0  0  0  0  0  0  0  0  0  0  0
    9.2942    8.0210    0.0000 C   0  0  0  0  0  0  0  0  0  0  0  0
   12.4202    5.6203    0.0000 C   0  0  2  0  0  0  0  0  0  0  0  0
    8.9282    4.6550    0.0000 C   0  0  1  0  0  0  0  0  0  0  0  0
   13.3263    7.1758    0.0000 C   0  0  0  0  0  0  0  0  0  0  0  0
    8.0622    4.1550    0.0000 C   0  0  0  0  0  0  0  0  0  0  0  0
   11.5263    9.1550    0.0000 C   0  0  0  0  0  0  0  0  0  0  0  0
   13.2688    4.1104    0.0000 C   0  0  0  0  0  0  0  0  0  0  0  0
    8.0622    3.1550    0.0000 C   0  0  0  0  0  0  0  0  0  0  0  0
   13.2573    3.1105    0.0000 C   0  0  2  0  0  0  0  0  0  0  0  0
   14.1175    2.6005    0.0000 C   0  0  1  0  0  0  0  0  0  0  0  0
   14.6074    1.7288    0.0000 C   0  0  0  0  0  0  0  0  0  0  0  0
    7.1962    2.6550    0.0000 C   0  0  0  0  0  0  0  0  0  0  0  0
   16.1173    2.5774    0.0000 C   0  0  1  0  0  0  0  0  0  0  0  0
   15.6274    3.4491    0.0000 C   0  0  1  0  0  0  0  0  0  0  0  0
   15.6074    1.7172    0.0000 C   0  0  0  0  0  0  0  0  0  0  0  0
   17.1173    2.5658    0.0000 C   0  0  0  0  0  0  0  0  0  0  0  0
   16.1374    4.3093    0.0000 C   0  0  0  0  0  0  0  0  0  0  0  0
    7.1962    1.6550    0.0000 C   0  0  0  0  0  0  0  0  0  0  0  0
   16.0973    0.8454    0.0000 C   0  0  0  0  0  0  0  0  0  0  0  0
   13.2342    1.1106    0.0000 C   0  0  0  0  0  0  0  0  0  0  0  0
    6.3301    1.1550    0.0000 C   0  0  0  0  0  0  0  0  0  0  0  0
    6.3301    0.1550    0.0000 C   0  0  0  0  0  0  0  0  0  0  0  0
    5.4641   -0.3450    0.0000 C   0  0  0  0  0  0  0  0  0  0  0  0
    5.4641   -1.3450    0.0000 C   0  0  0  0  0  0  0  0  0  0  0  0
    4.5981   -1.8450    0.0000 C   0  0  0  0  0  0  0  0  0  0  0  0
    4.5981   -2.8450    0.0000 C   0  0  0  0  0  0  0  0  0  0  0  0
    3.7320   -4.3450    0.0000 C   0  0  3  0  0  0  0  0  0  0  0  0
    4.5981   -4.8450    0.0000 C   0  0  0  0  0  0  0  0  0  0  0  0
    4.5981   -5.8450    0.0000 C   0  0  0  0  0  0  0  0  0  0  0  0
    2.8660   -4.8450    0.0000 C   0  0  0  0  0  0  0  0  0  0  0  0
    5.4641   -6.3450    0.0000 C   0  0  0  0  0  0  0  0  0  0  0  0
    6.3301   -7.8450    0.0000 C   0  0  0  0  0  0  0  0  0  0  0  0
   11.1972    7.9650    0.0000 H   0  0  0  0  0  0  0  0  0  0  0  0
    9.7942    5.5350    0.0000 H   0  0  0  0  0  0  0  0  0  0  0  0
   11.5197    8.0050    0.0000 H   0  0  0  0  0  0  0  0  0  0  0  0
   11.5197    5.3050    0.0000 H   0  0  0  0  0  0  0  0  0  0  0  0
    8.7162    6.2376    0.0000 H   0  0  0  0  0  0  0  0  0  0  0  0
    8.3176    5.5473    0.0000 H   0  0  0  0  0  0  0  0  0  0  0  0
    9.8312    8.3310    0.0000 H   0  0  0  0  0  0  0  0  0  0  0  0
    8.9842    8.5580    0.0000 H   0  0  0  0  0  0  0  0  0  0  0  0
    8.7573    7.7110    0.0000 H   0  0  0  0  0  0  0  0  0  0  0  0
    8.7942    7.7750    0.0000 H   0  0  0  0  0  0  0  0  0  0  0  0
    8.1742    7.1550    0.0000 H   0  0  0  0  0  0  0  0  0  0  0  0
    8.7942    6.5350    0.0000 H   0  0  0  0  0  0  0  0  0  0  0  0
   11.8792    5.3176    0.0000 H   0  0  0  0  0  0  0  0  0  0  0  0
    9.4651    4.9650    0.0000 H   0  0  0  0  0  0  0  0  0  0  0  0
   13.9371    7.0697    0.0000 H   0  0  0  0  0  0  0  0  0  0  0  0
   13.5353    7.7595    0.0000 H   0  0  0  0  0  0  0  0  0  0  0  0
   11.8682    4.3166    0.0000 H   0  0  0  0  0  0  0  0  0  0  0  0
    7.8501    4.7376    0.0000 H   0  0  0  0  0  0  0  0  0  0  0  0
    7.4516    4.0473    0.0000 H   0  0  0  0  0  0  0  0  0  0  0  0
   11.8363    8.6181    0.0000 H   0  0  0  0  0  0  0  0  0  0  0  0
   12.0632    9.4650    0.0000 H   0  0  0  0  0  0  0  0  0  0  0  0
   11.2163    9.6919    0.0000 H   0  0  0  0  0  0  0  0  0  0  0  0
    8.2742    2.5724    0.0000 H   0  0  0  0  0  0  0  0  0  0  0  0
    8.6728    3.2627    0.0000 H   0  0  0  0  0  0  0  0  0  0  0  0
    9.7942    3.5350    0.0000 H   0  0  0  0  0  0  0  0  0  0  0  0
   12.7240    3.4267    0.0000 H   0  0  0  0  0  0  0  0  0  0  0  0
   14.0224    1.5235    0.0000 H   0  0  0  0  0  0  0  0  0  0  0  0
   14.7080    1.1170    0.0000 H   0  0  0  0  0  0  0  0  0  0  0  0
    6.9841    3.2376    0.0000 H   0  0  0  0  0  0  0  0  0  0  0  0
    6.5856    2.5473    0.0000 H   0  0  0  0  0  0  0  0  0  0  0  0
   16.4335    3.1107    0.0000 H   0  0  0  0  0  0  0  0  0  0  0  0
   15.3236    3.9896    0.0000 H   0  0  0  0  0  0  0  0  0  0  0  0
   11.8522    2.9367    0.0000 H   0  0  0  0  0  0  0  0  0  0  0  0
   17.1101    1.9459    0.0000 H   0  0  0  0  0  0  0  0  0  0  0  0
   17.7372    2.5586    0.0000 H   0  0  0  0  0  0  0  0  0  0  0  0
   17.1244    3.1858    0.0000 H   0  0  0  0  0  0  0  0  0  0  0  0
   16.6707    3.9931    0.0000 H   0  0  0  0  0  0  0  0  0  0  0  0
   16.4536    4.8426    0.0000 H   0  0  0  0  0  0  0  0  0  0  0  0
   15.6040    4.6255    0.0000 H   0  0  0  0  0  0  0  0  0  0  0  0
    7.7331    1.3450    0.0000 H   0  0  0  0  0  0  0  0  0  0  0  0
   15.7811    0.3121    0.0000 H   0  0  0  0  0  0  0  0  0  0  0  0
   16.7173    0.8383    0.0000 H   0  0  0  0  0  0  0  0  0  0  0  0
   12.6142    1.1178    0.0000 H   0  0  0  0  0  0  0  0  0  0  0  0
   13.2270    0.4907    0.0000 H   0  0  0  0  0  0  0  0  0  0  0  0
   13.8541    1.1035    0.0000 H   0  0  0  0  0  0  0  0  0  0  0  0
    5.7932    1.4650    0.0000 H   0  0  0  0  0  0  0  0  0  0  0  0
    6.8671   -0.1550    0.0000 H   0  0  0  0  0  0  0  0  0  0  0  0
    4.9272   -0.0350    0.0000 H   0  0  0  0  0  0  0  0  0  0  0  0
    6.0010   -1.6550    0.0000 H   0  0  0  0  0  0  0  0  0  0  0  0
    4.0611   -1.5350    0.0000 H   0  0  0  0  0  0  0  0  0  0  0  0
    4.2690   -4.0350    0.0000 H   0  0  0  0  0  0  0  0  0  0  0  0
    3.1951   -3.0350    0.0000 H   0  0  0  0  0  0  0  0  0  0  0  0
    5.2087   -4.9527    0.0000 H   0  0  0  0  0  0  0  0  0  0  0  0
    4.8101   -4.2624    0.0000 H   0  0  0  0  0  0  0  0  0  0  0  0
    3.9875   -5.7373    0.0000 H   0  0  0  0  0  0  0  0  0  0  0  0
    4.3860   -6.4276    0.0000 H   0  0  0  0  0  0  0  0  0  0  0  0
    6.0747   -6.4527    0.0000 H   0  0  0  0  0  0  0  0  0  0  0  0
    5.6762   -5.7624    0.0000 H   0  0  0  0  0  0  0  0  0  0  0  0
    2.3291   -6.1550    0.0000 H   0  0  0  0  0  0  0  0  0  0  0  0
    6.8671   -9.1550    0.0000 H   0  0  0  0  0  0  0  0  0  0  0  0
    5.7932   -9.1550    0.0000 H   0  0  0  0  0  0  0  0  0  0  0  0
    7.7331   -7.6550    0.0000 H   0  0  0  0  0  0  0  0  0  0  0  0
    7.1962   -6.7250    0.0000 H   0  0  0  0  0  0  0  0  0  0  0  0
  1 20  1  0  0  0  0
  1 22  1  0  0  0  0
  2 21  1  0  0  0  0
  2 28  1  0  0  0  0
 19  3  1  6  0  0  0
  3 30  1  0  0  0  0
  4 26  1  0  0  0  0
  4 28  1  0  0  0  0
 27  5  1  6  0  0  0
  5 81  1  0  0  0  0
  6 34  1  0  0  0  0
  6 38  1  0  0  0  0
 34  7  1  1  0  0  0
  7 44  1  0  0  0  0
 33  8  1  6  0  0  0
  8 89  1  0  0  0  0
  9 31  2  0  0  0  0
 10 50  2  0  0  0  0
 11 54  1  0  0  0  0
 11115  1  0  0  0  0
 12 54  2  0  0  0  0
 26 13  1  6  0  0  0
 13 31  1  0  0  0  0
 13 73  1  0  0  0  0
 14 50  1  0  0  0  0
 14 51  1  0  0  0  0
 14108  1  0  0  0  0
 15 55  1  0  0  0  0
 15 56  2  0  0  0  0
 16 56  1  0  0  0  0
 16116  1  0  0  0  0
 16117  1  0  0  0  0
 17 56  1  0  0  0  0
 17118  1  0  0  0  0
 17119  1  0  0  0  0
 18 19  1  0  0  0  0
 18 20  1  0  0  0  0
 18 24  1  0  0  0  0
 18 25  1  0  0  0  0
 19 21  1  0  0  0  0
 19 57  1  0  0  0  0
 20 23  1  6  0  0  0
 20 58  1  0  0  0  0
 21 22  1  0  0  0  0
 21 59  1  6  0  0  0
 22 26  1  0  0  0  0
 22 60  1  6  0  0  0
 23 27  1  0  0  0  0
 23 61  1  0  0  0  0
 23 62  1  0  0  0  0
 24 66  1  0  0  0  0
 24 67  1  0  0  0  0
 24 68  1  0  0  0  0
 25 63  1  0  0  0  0
 25 64  1  0  0  0  0
 25 65  1  0  0  0  0
 26 69  1  0  0  0  0
 27 29  1  0  0  0  0
 27 70  1  0  0  0  0
 28 71  1  0  0  0  0
 28 72  1  0  0  0  0
 29 32  1  0  0  0  0
 29 74  1  0  0  0  0
 29 75  1  0  0  0  0
 30 76  1  0  0  0  0
 30 77  1  0  0  0  0
 30 78  1  0  0  0  0
 31 33  1  0  0  0  0
 32 36  1  0  0  0  0
 32 79  1  0  0  0  0
 32 80  1  0  0  0  0
 33 34  1  0  0  0  0
 33 82  1  0  0  0  0
 34 35  1  0  0  0  0
 35 39  1  0  0  0  0
 35 83  1  0  0  0  0
 35 84  1  0  0  0  0
 36 42  1  0  0  0  0
 36 85  1  0  0  0  0
 36 86  1  0  0  0  0
 37 38  1  0  0  0  0
 37 39  1  0  0  0  0
 37 40  1  6  0  0  0
 37 87  1  0  0  0  0
 38 41  1  6  0  0  0
 38 88  1  0  0  0  0
 39 43  2  0  0  0  0
 40 90  1  0  0  0  0
 40 91  1  0  0  0  0
 40 92  1  0  0  0  0
 41 93  1  0  0  0  0
 41 94  1  0  0  0  0
 41 95  1  0  0  0  0
 42 45  2  0  0  0  0
 42 96  1  0  0  0  0
 43 97  1  0  0  0  0
 43 98  1  0  0  0  0
 44 99  1  0  0  0  0
 44100  1  0  0  0  0
 44101  1  0  0  0  0
 45 46  1  0  0  0  0
 45102  1  0  0  0  0
 46 47  2  0  0  0  0
 46103  1  0  0  0  0
 47 48  1  0  0  0  0
 47104  1  0  0  0  0
 48 49  2  0  0  0  0
 48105  1  0  0  0  0
 49 50  1  0  0  0  0
 49106  1  0  0  0  0
 51 52  1  0  0  0  0
 51 54  1  0  0  0  0
 51107  1  0  0  0  0
 52 53  1  0  0  0  0
 52109  1  0  0  0  0
 52110  1  0  0  0  0
 53 55  1  0  0  0  0
 53111  1  0  0  0  0
 53112  1  0  0  0  0
 55113  1  0  0  0  0
 55114  1  0  0  0  0
M  END
> <PUBCHEM_COMPOUND_CID>
23426006

> <PUBCHEM_COMPOUND_CANONICALIZED>
1

> <PUBCHEM_CACTVS_COMPLEXITY>
1450

> <PUBCHEM_CACTVS_HBOND_ACCEPTOR>
13

> <PUBCHEM_CACTVS_HBOND_DONOR>
7

> <PUBCHEM_CACTVS_ROTATABLE_BOND>
20

> <PUBCHEM_CACTVS_SUBSKEYS>
AAADcfB/vAAAAAAAAAAAAAAAAAAAAAAAAAAkSJAAAAAAAACQAAAAHgAQCAAADzzhgAcDCALABgCoAiHSPAKAAAEgAAAICIHIAEkbEBYAgSAnQAAH9gCfgYP4+fyPAAAAAAAAAAAAAAAAAAAAAAAAAAAAAA==

> <PUBCHEM_IUPAC_OPENEYE_NAME>
2-[[(2E,4E,6E,11R)-12-[(4S,4aS,6R,8S,8aR)-4-[[(2S)-2-hydroxy-2-[(2R,5R,6R)-2-methoxy-5,6-dimethyl-4-methylene-tetrahydropyran-2-yl]acetyl]amino]-8-methoxy-7,7-dimethyl-4a,6,8,8a-tetrahydro-4H-pyrano[3,2-d][1,3]dioxin-6-yl]-11-hydroxy-dodeca-2,4,6-trienoyl]amino]-5-guanidino-pentanoic acid

> <PUBCHEM_IUPAC_CAS_NAME>
2-[[(2E,4E,6E,11R)-12-[(4S,4aS,6R,8S,8aR)-4-[[(2S)-2-hydroxy-2-[(2R,5R,6R)-2-methoxy-5,6-dimethyl-4-methylene-2-oxanyl]-1-oxoethyl]amino]-8-methoxy-7,7-dimethyl-4a,6,8,8a-tetrahydro-4H-pyrano[3,2-d][1,3]dioxin-6-yl]-11-hydroxy-1-oxododeca-2,4,6-trienyl]amino]-5-(diaminomethylideneamino)pentanoic acid

> <PUBCHEM_IUPAC_NAME>
2-[[(2E,4E,6E,11R)-12-[(4S,4aS,6R,8S,8aR)-4-[[(2S)-2-hydroxy-2-[(2R,5R,6R)-2-methoxy-5,6-dimethyl-4-methylideneoxan-2-yl]acetyl]amino]-8-methoxy-7,7-dimethyl-4a,6,8,8a-tetrahydro-4H-pyrano[3,2-d][1,3]dioxin-6-yl]-11-hydroxydodeca-2,4,6-trienoyl]amino]-5-(diaminomethylideneamino)pentanoic acid

> <PUBCHEM_IUPAC_SYSTEMATIC_NAME>
2-[[(2E,4E,6E,11R)-12-[(4S,4aS,6R,8S,8aR)-8-methoxy-4-[[(2S)-2-[(2R,5R,6R)-2-methoxy-5,6-dimethyl-4-methylidene-oxan-2-yl]-2-oxidanyl-ethanoyl]amino]-7,7-dimethyl-4a,6,8,8a-tetrahydro-4H-pyrano[3,2-d][1,3]dioxin-6-yl]-11-oxidanyl-dodeca-2,4,6-trienoyl]amino]-5-[bis(azanyl)methylideneamino]pentanoic acid

> <PUBCHEM_IUPAC_TRADITIONAL_NAME>
2-[[(2E,4E,6E,11R)-12-[(4S,4aS,6R,8S,8aR)-4-[[(2S)-2-hydroxy-2-[(2R,5R,6R)-2-methoxy-5,6-dimethyl-4-methylene-tetrahydropyran-2-yl]acetyl]amino]-8-methoxy-7,7-dimethyl-4a,6,8,8a-tetrahydro-4H-pyrano[3,2-d][1,3]dioxin-6-yl]-11-hydroxy-dodeca-2,4,6-trienoyl]amino]-5-guanidino-valeric acid

> <PUBCHEM_IUPAC_INCHI>
InChI=1S/C39H63N5O12/c1-23-21-39(52-7,56-25(3)24(23)2)32(47)34(48)44-35-31-30(53-22-54-35)33(51-6)38(4,5)28(55-31)20-26(45)16-13-11-9-8-10-12-14-18-29(46)43-27(36(49)50)17-15-19-42-37(40)41/h8-10,12,14,18,24-28,30-33,35,45,47H,1,11,13,15-17,19-22H2,2-7H3,(H,43,46)(H,44,48)(H,49,50)(H4,40,41,42)/b9-8+,12-10+,18-14+/t24-,25-,26-,27?,28-,30+,31+,32-,33-,35+,39-/m1/s1

> <PUBCHEM_IUPAC_INCHIKEY>
YWUNVHXKGMPHDM-PZFGWAPWSA-N

> <PUBCHEM_XLOGP3_AA>
1.4

> <PUBCHEM_EXACT_MASS>
793.447322

> <PUBCHEM_MOLECULAR_FORMULA>
C39H63N5O12

> <PUBCHEM_MOLECULAR_WEIGHT>
793.94382

> <PUBCHEM_OPENEYE_CAN_SMILES>
CC1C(OC(CC1=C)(C(C(=O)NC2C3C(C(C(C(O3)CC(CCCC=CC=CC=CC(=O)NC(CCCN=C(N)N)C(=O)O)O)(C)C)OC)OCO2)O)OC)C

> <PUBCHEM_OPENEYE_ISO_SMILES>
C[C@H]1[C@H](O[C@](CC1=C)([C@@H](C(=O)N[C@@H]2[C@@H]3[C@@H]([C@H](C([C@H](O3)C[C@@H](CCC/C=C/C=C/C=C/C(=O)NC(CCCN=C(N)N)C(=O)O)O)(C)C)OC)OCO2)O)OC)C

> <PUBCHEM_CACTVS_TPSA>
256

> <PUBCHEM_MONOISOTOPIC_WEIGHT>
793.447322

> <PUBCHEM_TOTAL_CHARGE>
0

> <PUBCHEM_HEAVY_ATOM_COUNT>
56

> <PUBCHEM_ATOM_DEF_STEREO_COUNT>
10

> <PUBCHEM_ATOM_UDEF_STEREO_COUNT>
1

> <PUBCHEM_BOND_DEF_STEREO_COUNT>
3

> <PUBCHEM_BOND_UDEF_STEREO_COUNT>
0

> <PUBCHEM_ISOTOPIC_ATOM_COUNT>
0

> <PUBCHEM_COMPONENT_COUNT>
1

> <PUBCHEM_CACTVS_TAUTO_COUNT>
8

> <PUBCHEM_COORDINATE_TYPE>
1
5
255

> <PUBCHEM_BONDANNOTATIONS>
26  13  6
20  23  6
21  59  6
22  60  6
19  3  6
37  40  6
38  41  6
27  5  6
51  54  3
34  7  5
33  8  6

$$$$

