443789
  -OEChem-07051213032D

 40 43  0     0  0  0  0  0  0999 V2000
    8.1465    1.8592    0.0000 O   0  0  0  0  0  0  0  0  0  0  0  0
    6.3981    1.8246    0.0000 O   0  0  0  0  0  0  0  0  0  0  0  0
    6.3981   -2.1754    0.0000 O   0  0  0  0  0  0  0  0  0  0  0  0
    4.6497    1.8592    0.0000 O   0  0  0  0  0  0  0  0  0  0  0  0
    2.8680   -1.1995    0.0000 O   0  0  0  0  0  0  0  0  0  0  0  0
   11.8031   -1.2212    0.0000 O   0  0  0  0  0  0  0  0  0  0  0  0
    7.2641    0.3246    0.0000 C   0  0  0  0  0  0  0  0  0  0  0  0
    7.2641   -0.6754    0.0000 C   0  0  0  0  0  0  0  0  0  0  0  0
    9.0641    0.3454    0.0000 C   0  0  0  0  0  0  0  0  0  0  0  0
    9.0641   -0.6962    0.0000 C   0  0  0  0  0  0  0  0  0  0  0  0
    8.1580    0.8593    0.0000 C   0  0  0  0  0  0  0  0  0  0  0  0
    5.5320    0.3246    0.0000 C   0  0  0  0  0  0  0  0  0  0  0  0
    5.5320   -0.6754    0.0000 C   0  0  0  0  0  0  0  0  0  0  0  0
    8.1580   -1.2100    0.0000 C   0  0  0  0  0  0  0  0  0  0  0  0
    6.3981    0.8246    0.0000 C   0  0  0  0  0  0  0  0  0  0  0  0
    6.3981   -1.1754    0.0000 C   0  0  0  0  0  0  0  0  0  0  0  0
    9.9953    0.9023    0.0000 C   0  0  0  0  0  0  0  0  0  0  0  0
    9.9953   -1.2531    0.0000 C   0  0  0  0  0  0  0  0  0  0  0  0
    4.6381    0.8593    0.0000 C   0  0  0  0  0  0  0  0  0  0  0  0
    4.6381   -1.2100    0.0000 C   0  0  0  0  0  0  0  0  0  0  0  0
   10.9391    0.3671    0.0000 C   0  0  0  0  0  0  0  0  0  0  0  0
   10.9391   -0.7179    0.0000 C   0  0  0  0  0  0  0  0  0  0  0  0
    3.7320   -0.6962    0.0000 C   0  0  0  0  0  0  0  0  0  0  0  0
    9.9837    1.9023    0.0000 C   0  0  0  0  0  0  0  0  0  0  0  0
    3.7320    0.3454    0.0000 C   0  0  0  0  0  0  0  0  0  0  0  0
    2.0000   -0.7029    0.0000 C   0  0  0  0  0  0  0  0  0  0  0  0
    8.1509   -1.8300    0.0000 H   0  0  0  0  0  0  0  0  0  0  0  0
    9.9881   -1.8731    0.0000 H   0  0  0  0  0  0  0  0  0  0  0  0
    4.6453   -1.8300    0.0000 H   0  0  0  0  0  0  0  0  0  0  0  0
   11.4748    0.6792    0.0000 H   0  0  0  0  0  0  0  0  0  0  0  0
   10.6037    1.9094    0.0000 H   0  0  0  0  0  0  0  0  0  0  0  0
    9.9765    2.5222    0.0000 H   0  0  0  0  0  0  0  0  0  0  0  0
    9.3637    1.8951    0.0000 H   0  0  0  0  0  0  0  0  0  0  0  0
    3.1963    0.6575    0.0000 H   0  0  0  0  0  0  0  0  0  0  0  0
    8.6798    2.1754    0.0000 H   0  0  0  0  0  0  0  0  0  0  0  0
    4.1164    2.1754    0.0000 H   0  0  0  0  0  0  0  0  0  0  0  0
   12.3413   -0.9133    0.0000 H   0  0  0  0  0  0  0  0  0  0  0  0
    2.3079   -0.1648    0.0000 H   0  0  0  0  0  0  0  0  0  0  0  0
    1.4619   -0.3950    0.0000 H   0  0  0  0  0  0  0  0  0  0  0  0
    1.6921   -1.2410    0.0000 H   0  0  0  0  0  0  0  0  0  0  0  0
  1 11  1  0  0  0  0
  1 35  1  0  0  0  0
  2 15  2  0  0  0  0
  3 16  2  0  0  0  0
  4 19  1  0  0  0  0
  4 36  1  0  0  0  0
  5 23  1  0  0  0  0
  5 26  1  0  0  0  0
  6 22  1  0  0  0  0
  6 37  1  0  0  0  0
  7  8  2  0  0  0  0
  7 11  1  0  0  0  0
  7 15  1  0  0  0  0
  8 14  1  0  0  0  0
  8 16  1  0  0  0  0
  9 10  1  0  0  0  0
  9 11  2  0  0  0  0
  9 17  1  0  0  0  0
 10 14  2  0  0  0  0
 10 18  1  0  0  0  0
 12 13  2  0  0  0  0
 12 15  1  0  0  0  0
 12 19  1  0  0  0  0
 13 16  1  0  0  0  0
 13 20  1  0  0  0  0
 14 27  1  0  0  0  0
 17 21  2  0  0  0  0
 17 24  1  0  0  0  0
 18 22  2  0  0  0  0
 18 28  1  0  0  0  0
 19 25  2  0  0  0  0
 20 23  2  0  0  0  0
 20 29  1  0  0  0  0
 21 22  1  0  0  0  0
 21 30  1  0  0  0  0
 23 25  1  0  0  0  0
 24 31  1  0  0  0  0
 24 32  1  0  0  0  0
 24 33  1  0  0  0  0
 25 34  1  0  0  0  0
 26 38  1  0  0  0  0
 26 39  1  0  0  0  0
 26 40  1  0  0  0  0
M  END
> <PUBCHEM_COMPOUND_CID>
443789

> <PUBCHEM_COMPOUND_CANONICALIZED>
1

> <PUBCHEM_CACTVS_COMPLEXITY>
591

> <PUBCHEM_CACTVS_HBOND_ACCEPTOR>
6

> <PUBCHEM_CACTVS_HBOND_DONOR>
3

> <PUBCHEM_CACTVS_ROTATABLE_BOND>
1

> <PUBCHEM_CACTVS_SUBSKEYS>
AAADccB4OAAAAAAAAAAAAAAAAAAAAAAAAAAwYMGAAAAAAADBVAAAGgAACAAADASAmAIyBsAABgCIAqBSAAACCAAkIAAAiAEGCMgMJzaGNRqAcWAl4BUIuYeL7PzO4AADCAAYAADAAAYQADAAAAAAAAAAAA==

> <PUBCHEM_IUPAC_OPENEYE_NAME>
1,8,11-trihydroxy-3-methoxy-10-methyl-tetracene-5,12-dione

> <PUBCHEM_IUPAC_CAS_NAME>
1,8,11-trihydroxy-3-methoxy-10-methyltetracene-5,12-dione

> <PUBCHEM_IUPAC_NAME>
1,8,11-trihydroxy-3-methoxy-10-methyltetracene-5,12-dione

> <PUBCHEM_IUPAC_SYSTEMATIC_NAME>
3-methoxy-10-methyl-1,8,11-tris(oxidanyl)tetracene-5,12-dione

> <PUBCHEM_IUPAC_TRADITIONAL_NAME>
1,8,11-trihydroxy-3-methoxy-10-methyl-tetracene-5,12-quinone

> <PUBCHEM_IUPAC_INCHI>
InChI=1S/C20H14O6/c1-8-3-10(21)4-9-5-12-17(19(24)15(8)9)20(25)16-13(18(12)23)6-11(26-2)7-14(16)22/h3-7,21-22,24H,1-2H3

> <PUBCHEM_IUPAC_INCHIKEY>
CXOLVKMMHKZPPM-UHFFFAOYSA-N

> <PUBCHEM_XLOGP3_AA>
3.9

> <PUBCHEM_EXACT_MASS>
350.079038

> <PUBCHEM_MOLECULAR_FORMULA>
C20H14O6

> <PUBCHEM_MOLECULAR_WEIGHT>
350.32156

> <PUBCHEM_OPENEYE_CAN_SMILES>
CC1=CC(=CC2=CC3=C(C(=C12)O)C(=O)C4=C(C=C(C=C4C3=O)OC)O)O

> <PUBCHEM_OPENEYE_ISO_SMILES>
CC1=CC(=CC2=CC3=C(C(=C12)O)C(=O)C4=C(C=C(C=C4C3=O)OC)O)O

> <PUBCHEM_CACTVS_TPSA>
104

> <PUBCHEM_MONOISOTOPIC_WEIGHT>
350.079038

> <PUBCHEM_TOTAL_CHARGE>
0

> <PUBCHEM_HEAVY_ATOM_COUNT>
26

> <PUBCHEM_ATOM_DEF_STEREO_COUNT>
0

> <PUBCHEM_ATOM_UDEF_STEREO_COUNT>
0

> <PUBCHEM_BOND_DEF_STEREO_COUNT>
0

> <PUBCHEM_BOND_UDEF_STEREO_COUNT>
0

> <PUBCHEM_ISOTOPIC_ATOM_COUNT>
0

> <PUBCHEM_COMPONENT_COUNT>
1

> <PUBCHEM_CACTVS_TAUTO_COUNT>
253

> <PUBCHEM_COORDINATE_TYPE>
1
5
255

> <PUBCHEM_BONDANNOTATIONS>
10  14  8
10  18  8
12  13  8
12  19  8
13  20  8
17  21  8
18  22  8
19  25  8
20  23  8
21  22  8
23  25  8
7  11  8
7  8  8
8  14  8
9  10  8
9  11  8
9  17  8

$$$$

