442753
  -OEChem-07051212592D

 50 53  0     0  0  0  0  0  0999 V2000
    6.4144   -3.6214    0.0000 O   0  0  0  0  0  0  0  0  0  0  0  0
    4.0232    0.1793    0.0000 O   0  0  0  0  0  0  0  0  0  0  0  0
    4.6660   -3.5868    0.0000 O   0  0  0  0  0  0  0  0  0  0  0  0
    8.1464    0.4678    0.0000 O   0  0  0  0  0  0  0  0  0  0  0  0
    4.5559    1.1000    0.0000 O   0  0  0  0  0  0  0  0  0  0  0  0
    6.3797    3.4476    0.0000 O   0  0  0  0  0  0  0  0  0  0  0  0
    2.9176   -3.6214    0.0000 O   0  0  0  0  0  0  0  0  0  0  0  0
    8.9950    1.9778    0.0000 O   0  0  0  0  0  0  0  0  0  0  0  0
    5.5321   -1.0868    0.0000 C   0  0  0  0  0  0  0  0  0  0  0  0
    6.4260   -0.5521    0.0000 C   0  0  0  0  0  0  0  0  0  0  0  0
    5.5321   -2.0868    0.0000 C   0  0  0  0  0  0  0  0  0  0  0  0
    7.3321   -1.0660    0.0000 C   0  0  0  0  0  0  0  0  0  0  0  0
    6.4144    0.4478    0.0000 C   0  0  0  0  0  0  0  0  0  0  0  0
    4.6660   -0.5868    0.0000 C   0  0  0  0  0  0  0  0  0  0  0  0
    3.8000   -1.0868    0.0000 C   0  0  0  0  0  0  0  0  0  0  0  0
    3.8000   -2.0868    0.0000 C   0  0  0  0  0  0  0  0  0  0  0  0
    4.6660   -2.5868    0.0000 C   0  0  0  0  0  0  0  0  0  0  0  0
    6.4260   -2.6214    0.0000 C   0  0  0  0  0  0  0  0  0  0  0  0
    7.3321   -2.1076    0.0000 C   0  0  0  0  0  0  0  0  0  0  0  0
    7.2746    0.9578    0.0000 C   0  0  0  0  0  0  0  0  0  0  0  0
    5.5427    0.9378    0.0000 C   0  0  0  0  0  0  0  0  0  0  0  0
    8.1962   -0.5626    0.0000 C   0  0  0  0  0  0  0  0  0  0  0  0
    7.2631    1.9577    0.0000 C   0  0  0  0  0  0  0  0  0  0  0  0
    2.9061   -2.6214    0.0000 C   0  0  0  0  0  0  0  0  0  0  0  0
    2.9061   -0.5521    0.0000 C   0  0  0  0  0  0  0  0  0  0  0  0
    6.3913    2.4477    0.0000 C   0  0  0  0  0  0  0  0  0  0  0  0
    5.5311    1.9377    0.0000 C   0  0  0  0  0  0  0  0  0  0  0  0
    2.0000   -2.1076    0.0000 C   0  0  0  0  0  0  0  0  0  0  0  0
    2.0000   -1.0660    0.0000 C   0  0  0  0  0  0  0  0  0  0  0  0
    8.1232    2.4677    0.0000 C   0  0  0  0  0  0  0  0  0  0  0  0
    8.1117    3.4676    0.0000 C   0  0  0  0  0  0  0  0  0  0  0  0
    5.5080    3.9376    0.0000 C   0  0  0  0  0  0  0  0  0  0  0  0
    7.8678   -2.4197    0.0000 H   0  0  0  0  0  0  0  0  0  0  0  0
    8.5082   -1.0984    0.0000 H   0  0  0  0  0  0  0  0  0  0  0  0
    8.7319   -0.2506    0.0000 H   0  0  0  0  0  0  0  0  0  0  0  0
    7.8841   -0.0269    0.0000 H   0  0  0  0  0  0  0  0  0  0  0  0
    2.9132    0.0678    0.0000 H   0  0  0  0  0  0  0  0  0  0  0  0
    4.9906    2.2415    0.0000 H   0  0  0  0  0  0  0  0  0  0  0  0
    1.4643   -2.4197    0.0000 H   0  0  0  0  0  0  0  0  0  0  0  0
    1.4643   -0.7539    0.0000 H   0  0  0  0  0  0  0  0  0  0  0  0
    6.9478   -3.9376    0.0000 H   0  0  0  0  0  0  0  0  0  0  0  0
    8.6797    0.7840    0.0000 H   0  0  0  0  0  0  0  0  0  0  0  0
    4.3372    1.6802    0.0000 H   0  0  0  0  0  0  0  0  0  0  0  0
    2.3843   -3.9376    0.0000 H   0  0  0  0  0  0  0  0  0  0  0  0
    8.7316    3.4748    0.0000 H   0  0  0  0  0  0  0  0  0  0  0  0
    8.1045    4.0876    0.0000 H   0  0  0  0  0  0  0  0  0  0  0  0
    7.4917    3.4605    0.0000 H   0  0  0  0  0  0  0  0  0  0  0  0
    5.8118    4.4780    0.0000 H   0  0  0  0  0  0  0  0  0  0  0  0
    4.9675    4.2413    0.0000 H   0  0  0  0  0  0  0  0  0  0  0  0
    5.2042    3.3971    0.0000 H   0  0  0  0  0  0  0  0  0  0  0  0
  1 18  1  0  0  0  0
  1 41  1  0  0  0  0
  2 14  2  0  0  0  0
  3 17  2  0  0  0  0
  4 20  1  0  0  0  0
  4 42  1  0  0  0  0
  5 21  1  0  0  0  0
  5 43  1  0  0  0  0
  6 26  1  0  0  0  0
  6 32  1  0  0  0  0
  7 24  1  0  0  0  0
  7 44  1  0  0  0  0
  8 30  2  0  0  0  0
  9 10  2  0  0  0  0
  9 11  1  0  0  0  0
  9 14  1  0  0  0  0
 10 12  1  0  0  0  0
 10 13  1  0  0  0  0
 11 17  1  0  0  0  0
 11 18  2  0  0  0  0
 12 19  2  0  0  0  0
 12 22  1  0  0  0  0
 13 20  2  0  0  0  0
 13 21  1  0  0  0  0
 14 15  1  0  0  0  0
 15 16  2  0  0  0  0
 15 25  1  0  0  0  0
 16 17  1  0  0  0  0
 16 24  1  0  0  0  0
 18 19  1  0  0  0  0
 19 33  1  0  0  0  0
 20 23  1  0  0  0  0
 21 27  2  0  0  0  0
 22 34  1  0  0  0  0
 22 35  1  0  0  0  0
 22 36  1  0  0  0  0
 23 26  2  0  0  0  0
 23 30  1  0  0  0  0
 24 28  2  0  0  0  0
 25 29  2  0  0  0  0
 25 37  1  0  0  0  0
 26 27  1  0  0  0  0
 27 38  1  0  0  0  0
 28 29  1  0  0  0  0
 28 39  1  0  0  0  0
 29 40  1  0  0  0  0
 30 31  1  0  0  0  0
 31 45  1  0  0  0  0
 31 46  1  0  0  0  0
 31 47  1  0  0  0  0
 32 48  1  0  0  0  0
 32 49  1  0  0  0  0
 32 50  1  0  0  0  0
M  END
> <PUBCHEM_COMPOUND_CID>
442753

> <PUBCHEM_COMPOUND_CANONICALIZED>
1

> <PUBCHEM_CACTVS_COMPLEXITY>
767

> <PUBCHEM_CACTVS_HBOND_ACCEPTOR>
8

> <PUBCHEM_CACTVS_HBOND_DONOR>
4

> <PUBCHEM_CACTVS_ROTATABLE_BOND>
3

> <PUBCHEM_CACTVS_SUBSKEYS>
AAADceB4PAAAAAAAAAAAAAAAAAAAAAAAAAAwYMGAAAAAAADBUAAAGgAACAAADASAmAIyBoAABgCIAqBSAAACCAAkIAAIiAEGCMgMJzaGNRqAcWAl4BUIuYeL7PzO4AADCAAYAADAAAYQADAAAAAAAAAAAA==

> <PUBCHEM_IUPAC_OPENEYE_NAME>
1-(3-acetyl-2,6-dihydroxy-4-methoxy-phenyl)-4,5-dihydroxy-2-methyl-anthracene-9,10-dione

> <PUBCHEM_IUPAC_CAS_NAME>
1-(3-acetyl-2,6-dihydroxy-4-methoxyphenyl)-4,5-dihydroxy-2-methylanthracene-9,10-dione

> <PUBCHEM_IUPAC_NAME>
1-(3-acetyl-2,6-dihydroxy-4-methoxyphenyl)-4,5-dihydroxy-2-methylanthracene-9,10-dione

> <PUBCHEM_IUPAC_SYSTEMATIC_NAME>
1-[3-ethanoyl-4-methoxy-2,6-bis(oxidanyl)phenyl]-2-methyl-4,5-bis(oxidanyl)anthracene-9,10-dione

> <PUBCHEM_IUPAC_TRADITIONAL_NAME>
1-(3-acetyl-2,6-dihydroxy-4-methoxy-phenyl)-4,5-dihydroxy-2-methyl-9,10-anthraquinone

> <PUBCHEM_IUPAC_INCHI>
InChI=1S/C24H18O8/c1-9-7-13(27)20-21(22(29)11-5-4-6-12(26)18(11)24(20)31)16(9)19-14(28)8-15(32-3)17(10(2)25)23(19)30/h4-8,26-28,30H,1-3H3

> <PUBCHEM_IUPAC_INCHIKEY>
DUENHQWYLVQDQK-UHFFFAOYSA-N

> <PUBCHEM_XLOGP3_AA>
4.2

> <PUBCHEM_EXACT_MASS>
434.100168

> <PUBCHEM_MOLECULAR_FORMULA>
C24H18O8

> <PUBCHEM_MOLECULAR_WEIGHT>
434.39492

> <PUBCHEM_OPENEYE_CAN_SMILES>
CC1=CC(=C2C(=C1C3=C(C(=C(C=C3O)OC)C(=O)C)O)C(=O)C4=C(C2=O)C(=CC=C4)O)O

> <PUBCHEM_OPENEYE_ISO_SMILES>
CC1=CC(=C2C(=C1C3=C(C(=C(C=C3O)OC)C(=O)C)O)C(=O)C4=C(C2=O)C(=CC=C4)O)O

> <PUBCHEM_CACTVS_TPSA>
141

> <PUBCHEM_MONOISOTOPIC_WEIGHT>
434.100168

> <PUBCHEM_TOTAL_CHARGE>
0

> <PUBCHEM_HEAVY_ATOM_COUNT>
32

> <PUBCHEM_ATOM_DEF_STEREO_COUNT>
0

> <PUBCHEM_ATOM_UDEF_STEREO_COUNT>
0

> <PUBCHEM_BOND_DEF_STEREO_COUNT>
0

> <PUBCHEM_BOND_UDEF_STEREO_COUNT>
0

> <PUBCHEM_ISOTOPIC_ATOM_COUNT>
0

> <PUBCHEM_COMPONENT_COUNT>
1

> <PUBCHEM_CACTVS_TAUTO_COUNT>
994

> <PUBCHEM_COORDINATE_TYPE>
1
5
255

> <PUBCHEM_BONDANNOTATIONS>
10  12  8
11  18  8
12  19  8
13  20  8
13  21  8
15  16  8
15  25  8
16  24  8
18  19  8
20  23  8
21  27  8
23  26  8
24  28  8
25  29  8
26  27  8
28  29  8
9  10  8
9  11  8

$$$$

