9807507
  -OEChem-07051213062D

 57 60  0     1  0  0  0  0  0999 V2000
    7.8996   -0.5418    0.0000 S   0  0  0  0  0  0  0  0  0  0  0  0
    3.1200    0.0970    0.0000 P   0  0  0  0  0  0  0  0  0  0  0  0
    4.3880   -2.6351    0.0000 F   0  0  0  0  0  0  0  0  0  0  0  0
    6.1200   -5.6351    0.0000 F   0  0  0  0  0  0  0  0  0  0  0  0
    5.1200   -1.6351    0.0000 O   0  0  0  0  0  0  0  0  0  0  0  0
    3.6200   -0.7691    0.0000 O   0  0  0  0  0  0  0  0  0  0  0  0
    2.6200    0.9630    0.0000 O   0  0  0  0  0  0  0  0  0  0  0  0
    2.2540   -0.4030    0.0000 O   0  0  0  0  0  0  0  0  0  0  0  0
    3.9860    0.5970    0.0000 O   0  0  0  0  0  0  0  0  0  0  0  0
    7.9860   -2.1351    0.0000 N   0  0  0  0  0  0  0  0  0  0  0  0
    7.0906    0.8594    0.0000 N   0  0  0  0  0  0  0  0  0  0  0  0
    8.0906   -3.1296    0.0000 N   0  0  0  0  0  0  0  0  0  0  0  0
    9.5687   -2.4715    0.0000 N   0  0  0  0  0  0  0  0  0  0  0  0
   10.1024    5.6351    0.0000 N   0  0  0  0  0  0  0  0  0  0  0  0
    6.1200   -1.6351    0.0000 C   0  0  1  0  0  0  0  0  0  0  0  0
    6.1200   -0.6351    0.0000 C   0  0  1  0  0  0  0  0  0  0  0  0
    7.1200   -1.6351    0.0000 C   0  0  0  0  0  0  0  0  0  0  0  0
    6.1200   -2.6351    0.0000 C   0  0  0  0  0  0  0  0  0  0  0  0
    5.2540   -0.1351    0.0000 C   0  0  0  0  0  0  0  0  0  0  0  0
    6.9860   -0.1351    0.0000 C   0  0  0  0  0  0  0  0  0  0  0  0
    5.2540   -3.1351    0.0000 C   0  0  0  0  0  0  0  0  0  0  0  0
    6.9860   -3.1351    0.0000 C   0  0  0  0  0  0  0  0  0  0  0  0
    4.6200   -0.7691    0.0000 C   0  0  0  0  0  0  0  0  0  0  0  0
    5.2540   -4.1351    0.0000 C   0  0  0  0  0  0  0  0  0  0  0  0
    6.9860   -4.1351    0.0000 C   0  0  0  0  0  0  0  0  0  0  0  0
    8.8996   -1.7283    0.0000 C   0  0  0  0  0  0  0  0  0  0  0  0
    8.0687    1.0674    0.0000 C   0  0  0  0  0  0  0  0  0  0  0  0
    8.5687    0.2013    0.0000 C   0  0  0  0  0  0  0  0  0  0  0  0
    6.1200   -4.6351    0.0000 C   0  0  0  0  0  0  0  0  0  0  0  0
    8.4754    1.9809    0.0000 C   0  0  0  0  0  0  0  0  0  0  0  0
    9.0687   -3.3375    0.0000 C   0  0  0  0  0  0  0  0  0  0  0  0
    9.4700    2.0854    0.0000 C   0  0  0  0  0  0  0  0  0  0  0  0
    7.8876    2.7899    0.0000 C   0  0  0  0  0  0  0  0  0  0  0  0
    9.8767    2.9990    0.0000 C   0  0  0  0  0  0  0  0  0  0  0  0
    8.2944    3.7035    0.0000 C   0  0  0  0  0  0  0  0  0  0  0  0
    9.2889    3.8080    0.0000 C   0  0  0  0  0  0  0  0  0  0  0  0
    9.6956    4.7215    0.0000 C   0  0  0  0  0  0  0  0  0  0  0  0
    6.1200   -0.0151    0.0000 H   0  0  0  0  0  0  0  0  0  0  0  0
    7.5950   -1.2366    0.0000 H   0  0  0  0  0  0  0  0  0  0  0  0
    6.9595   -2.2340    0.0000 H   0  0  0  0  0  0  0  0  0  0  0  0
    5.5640    0.4019    0.0000 H   0  0  0  0  0  0  0  0  0  0  0  0
    4.7170    0.1749    0.0000 H   0  0  0  0  0  0  0  0  0  0  0  0
    4.9440   -0.6720    0.0000 H   0  0  0  0  0  0  0  0  0  0  0  0
    7.5230   -2.8251    0.0000 H   0  0  0  0  0  0  0  0  0  0  0  0
    5.2026   -0.5570    0.0000 H   0  0  0  0  0  0  0  0  0  0  0  0
    4.5123   -0.1585    0.0000 H   0  0  0  0  0  0  0  0  0  0  0  0
    4.7170   -4.4451    0.0000 H   0  0  0  0  0  0  0  0  0  0  0  0
    7.5230   -4.4451    0.0000 H   0  0  0  0  0  0  0  0  0  0  0  0
    9.0285   -1.1219    0.0000 H   0  0  0  0  0  0  0  0  0  0  0  0
    9.1853    0.1365    0.0000 H   0  0  0  0  0  0  0  0  0  0  0  0
    9.3209   -3.9039    0.0000 H   0  0  0  0  0  0  0  0  0  0  0  0
    9.8344    1.5838    0.0000 H   0  0  0  0  0  0  0  0  0  0  0  0
    7.2710    2.7251    0.0000 H   0  0  0  0  0  0  0  0  0  0  0  0
   10.4933    3.0638    0.0000 H   0  0  0  0  0  0  0  0  0  0  0  0
    7.9300    4.2050    0.0000 H   0  0  0  0  0  0  0  0  0  0  0  0
    2.0000    0.9630    0.0000 H   0  0  0  0  0  0  0  0  0  0  0  0
    2.2540   -1.0230    0.0000 H   0  0  0  0  0  0  0  0  0  0  0  0
  1 20  1  0  0  0  0
  1 28  1  0  0  0  0
  2  6  1  0  0  0  0
  2  7  1  0  0  0  0
  2  8  1  0  0  0  0
  2  9  2  0  0  0  0
  3 21  1  0  0  0  0
  4 29  1  0  0  0  0
 15  5  1  1  0  0  0
  5 23  1  0  0  0  0
  6 23  1  0  0  0  0
  7 56  1  0  0  0  0
  8 57  1  0  0  0  0
 10 12  1  0  0  0  0
 10 17  1  0  0  0  0
 10 26  1  0  0  0  0
 11 20  2  0  0  0  0
 11 27  1  0  0  0  0
 12 31  2  0  0  0  0
 13 26  2  0  0  0  0
 13 31  1  0  0  0  0
 14 37  3  0  0  0  0
 15 16  1  0  0  0  0
 15 17  1  0  0  0  0
 15 18  1  0  0  0  0
 16 19  1  1  0  0  0
 16 20  1  0  0  0  0
 16 38  1  0  0  0  0
 17 39  1  0  0  0  0
 17 40  1  0  0  0  0
 18 21  2  0  0  0  0
 18 22  1  0  0  0  0
 19 41  1  0  0  0  0
 19 42  1  0  0  0  0
 19 43  1  0  0  0  0
 21 24  1  0  0  0  0
 22 25  2  0  0  0  0
 22 44  1  0  0  0  0
 23 45  1  0  0  0  0
 23 46  1  0  0  0  0
 24 29  2  0  0  0  0
 24 47  1  0  0  0  0
 25 29  1  0  0  0  0
 25 48  1  0  0  0  0
 26 49  1  0  0  0  0
 27 28  2  0  0  0  0
 27 30  1  0  0  0  0
 28 50  1  0  0  0  0
 30 32  2  0  0  0  0
 30 33  1  0  0  0  0
 31 51  1  0  0  0  0
 32 34  1  0  0  0  0
 32 52  1  0  0  0  0
 33 35  2  0  0  0  0
 33 53  1  0  0  0  0
 34 36  2  0  0  0  0
 34 54  1  0  0  0  0
 35 36  1  0  0  0  0
 35 55  1  0  0  0  0
 36 37  1  0  0  0  0
M  END
> <PUBCHEM_COMPOUND_CID>
9807507

> <PUBCHEM_COMPOUND_CANONICALIZED>
1

> <PUBCHEM_CACTVS_COMPLEXITY>
859

> <PUBCHEM_CACTVS_HBOND_ACCEPTOR>
12

> <PUBCHEM_CACTVS_HBOND_DONOR>
2

> <PUBCHEM_CACTVS_ROTATABLE_BOND>
10

> <PUBCHEM_CACTVS_SUBSKEYS>
AAADceB7uYJAAAAAAAAAAAAAAAAAAWLAAAAwYAAAAAAAAAAB9AAAHwQICCAADUzF3g+3mZYIFRi2RyRjZICy8KtxirgdyDQ4LJiarqKguRmFMAhuwAO8qA+QwOAOwAAAAAAAAACAAAAAAAAAAAAAAAAAAA==

> <PUBCHEM_IUPAC_OPENEYE_NAME>
[(1R,2R)-2-[4-(4-cyanophenyl)thiazol-2-yl]-1-(2,4-difluorophenyl)-1-(1,2,4-triazol-1-ylmethyl)propoxy]methyl dihydrogen phosphate

> <PUBCHEM_IUPAC_CAS_NAME>
[(2R,3R)-3-[4-(4-cyanophenyl)-2-thiazolyl]-2-(2,4-difluorophenyl)-1-(1,2,4-triazol-1-yl)butan-2-yl]oxymethyl dihydrogen phosphate

> <PUBCHEM_IUPAC_NAME>
[(2R,3R)-3-[4-(4-cyanophenyl)-1,3-thiazol-2-yl]-2-(2,4-difluorophenyl)-1-(1,2,4-triazol-1-yl)butan-2-yl]oxymethyl dihydrogen phosphate

> <PUBCHEM_IUPAC_SYSTEMATIC_NAME>
[(2R,3R)-2-[2,4-bis(fluoranyl)phenyl]-3-[4-(4-cyanophenyl)-1,3-thiazol-2-yl]-1-(1,2,4-triazol-1-yl)butan-2-yl]oxymethyl dihydrogen phosphate

> <PUBCHEM_IUPAC_TRADITIONAL_NAME>
[(1R,2R)-2-[4-(4-cyanophenyl)thiazol-2-yl]-1-(2,4-difluorophenyl)-1-(1,2,4-triazol-1-ylmethyl)propoxy]methyl dihydrogen phosphate

> <PUBCHEM_IUPAC_INCHI>
InChI=1S/C23H20F2N5O5PS/c1-15(22-29-21(10-37-22)17-4-2-16(9-26)3-5-17)23(11-30-13-27-12-28-30,34-14-35-36(31,32)33)19-7-6-18(24)8-20(19)25/h2-8,10,12-13,15H,11,14H2,1H3,(H2,31,32,33)/t15-,23+/m0/s1

> <PUBCHEM_IUPAC_INCHIKEY>
SYTNEMZCCLUTNX-NPMXOYFQSA-N

> <PUBCHEM_XLOGP3_AA>
2.4

> <PUBCHEM_EXACT_MASS>
547.089083

> <PUBCHEM_MOLECULAR_FORMULA>
C23H20F2N5O5PS

> <PUBCHEM_MOLECULAR_WEIGHT>
547.470968

> <PUBCHEM_OPENEYE_CAN_SMILES>
CC(C1=NC(=CS1)C2=CC=C(C=C2)C#N)C(CN3C=NC=N3)(C4=C(C=C(C=C4)F)F)OCOP(=O)(O)O

> <PUBCHEM_OPENEYE_ISO_SMILES>
C[C@@H](C1=NC(=CS1)C2=CC=C(C=C2)C#N)[C@](CN3C=NC=N3)(C4=C(C=C(C=C4)F)F)OCOP(=O)(O)O

> <PUBCHEM_CACTVS_TPSA>
172

> <PUBCHEM_MONOISOTOPIC_WEIGHT>
547.089083

> <PUBCHEM_TOTAL_CHARGE>
0

> <PUBCHEM_HEAVY_ATOM_COUNT>
37

> <PUBCHEM_ATOM_DEF_STEREO_COUNT>
2

> <PUBCHEM_ATOM_UDEF_STEREO_COUNT>
0

> <PUBCHEM_BOND_DEF_STEREO_COUNT>
0

> <PUBCHEM_BOND_UDEF_STEREO_COUNT>
0

> <PUBCHEM_ISOTOPIC_ATOM_COUNT>
0

> <PUBCHEM_COMPONENT_COUNT>
1

> <PUBCHEM_CACTVS_TAUTO_COUNT>
2

> <PUBCHEM_COORDINATE_TYPE>
1
5
255

> <PUBCHEM_BONDANNOTATIONS>
1  20  8
1  28  8
10  12  8
10  26  8
11  20  8
11  27  8
12  31  8
13  26  8
13  31  8
16  19  5
18  21  8
18  22  8
21  24  8
22  25  8
24  29  8
25  29  8
27  28  8
30  32  8
30  33  8
32  34  8
33  35  8
34  36  8
35  36  8
15  5  5

$$$$

