10091
  -OEChem-06261204182D

 86 91  0     1  0  0  0  0  0999 V2000
   11.3876   -2.5043    0.0000 O   0  0  0  0  0  0  0  0  0  0  0  0
    7.8911   -0.5045    0.0000 O   0  0  0  0  0  0  0  0  0  0  0  0
    5.9945   -3.5566    0.0000 O   0  0  0  0  0  0  0  0  0  0  0  0
   12.2873    2.4458    0.0000 O   0  0  0  0  0  0  0  0  0  0  0  0
    4.2625   -3.5500    0.0000 O   0  0  0  0  0  0  0  0  0  0  0  0
    6.0022   -1.5567    0.0000 O   0  0  0  0  0  0  0  0  0  0  0  0
    4.2740   -0.5500    0.0000 O   0  0  0  0  0  0  0  0  0  0  0  0
   13.5764    3.6025    0.0000 O   0  0  0  0  0  0  0  0  0  0  0  0
    2.5381   -1.5433    0.0000 O   0  0  0  0  0  0  0  0  0  0  0  0
   10.5216   -2.0043    0.0000 C   0  0  3  0  0  0  0  0  0  0  0  0
   11.3876   -1.5043    0.0000 C   0  0  1  0  0  0  0  0  0  0  0  0
    9.6555   -1.5043    0.0000 C   0  0  3  0  0  0  0  0  0  0  0  0
   11.3876   -0.5043    0.0000 C   0  0  2  0  0  0  0  0  0  0  0  0
    8.7455   -2.0112    0.0000 C   0  0  2  0  0  0  0  0  0  0  0  0
    8.7375   -3.0528    0.0000 C   0  0  2  0  0  0  0  0  0  0  0  0
    9.6555   -0.5043    0.0000 C   0  0  0  0  0  0  0  0  0  0  0  0
   10.5216   -0.0043    0.0000 C   0  0  0  0  0  0  0  0  0  0  0  0
   12.3338   -0.1996    0.0000 C   0  0  2  0  0  0  0  0  0  0  0  0
   10.5376   -3.0458    0.0000 C   0  0  0  0  0  0  0  0  0  0  0  0
   12.3338   -1.8090    0.0000 C   0  0  0  0  0  0  0  0  0  0  0  0
    9.6396   -3.5736    0.0000 C   0  0  0  0  0  0  0  0  0  0  0  0
   12.9174   -1.0043    0.0000 C   0  0  0  0  0  0  0  0  0  0  0  0
    7.8187   -1.4471    0.0000 C   0  0  0  0  0  0  0  0  0  0  0  0
    7.8021   -3.6025    0.0000 C   0  0  0  0  0  0  0  0  0  0  0  0
   11.3876    0.4957    0.0000 C   0  0  0  0  0  0  0  0  0  0  0  0
    8.7532   -1.0112    0.0000 C   0  0  0  0  0  0  0  0  0  0  0  0
    6.8708   -1.9750    0.0000 C   0  0  0  0  0  0  0  0  0  0  0  0
    6.8624   -3.0600    0.0000 C   0  0  2  0  0  0  0  0  0  0  0  0
   12.6445    0.7509    0.0000 C   0  0  0  0  0  0  0  0  0  0  0  0
   13.6230    0.9572    0.0000 C   0  0  0  0  0  0  0  0  0  0  0  0
   11.9766    1.4952    0.0000 C   0  0  0  0  0  0  0  0  0  0  0  0
    5.1304   -3.0533    0.0000 C   0  0  2  0  0  0  0  0  0  0  0  0
   13.9336    1.9077    0.0000 C   0  0  0  0  0  0  0  0  0  0  0  0
    5.1343   -2.0533    0.0000 C   0  0  3  0  0  0  0  0  0  0  0  0
   13.2658    2.6520    0.0000 C   0  0  0  0  0  0  0  0  0  0  0  0
    4.2702   -1.5500    0.0000 C   0  0  3  0  0  0  0  0  0  0  0  0
    3.3984   -3.0466    0.0000 C   0  0  3  0  0  0  0  0  0  0  0  0
    3.4022   -2.0466    0.0000 C   0  0  1  0  0  0  0  0  0  0  0  0
    2.5304   -3.5433    0.0000 C   0  0  0  0  0  0  0  0  0  0  0  0
    3.4099   -0.0467    0.0000 C   0  0  0  0  0  0  0  0  0  0  0  0
   11.2609   -2.4236    0.0000 H   0  0  0  0  0  0  0  0  0  0  0  0
   10.3916   -1.0793    0.0000 H   0  0  0  0  0  0  0  0  0  0  0  0
    8.7408   -3.9028    0.0000 H   0  0  0  0  0  0  0  0  0  0  0  0
    9.4435    0.0783    0.0000 H   0  0  0  0  0  0  0  0  0  0  0  0
    9.0450   -0.6120    0.0000 H   0  0  0  0  0  0  0  0  0  0  0  0
   10.9201    0.4706    0.0000 H   0  0  0  0  0  0  0  0  0  0  0  0
   10.1230    0.4706    0.0000 H   0  0  0  0  0  0  0  0  0  0  0  0
   12.9463   -0.1034    0.0000 H   0  0  0  0  0  0  0  0  0  0  0  0
   10.7556   -3.6262    0.0000 H   0  0  0  0  0  0  0  0  0  0  0  0
   11.1468   -2.9303    0.0000 H   0  0  0  0  0  0  0  0  0  0  0  0
   12.0828   -2.3760    0.0000 H   0  0  0  0  0  0  0  0  0  0  0  0
   12.8712   -2.1183    0.0000 H   0  0  0  0  0  0  0  0  0  0  0  0
    9.2423   -4.0496    0.0000 H   0  0  0  0  0  0  0  0  0  0  0  0
   10.0405   -4.0465    0.0000 H   0  0  0  0  0  0  0  0  0  0  0  0
   13.3783   -1.4190    0.0000 H   0  0  0  0  0  0  0  0  0  0  0  0
   13.3783   -0.5896    0.0000 H   0  0  0  0  0  0  0  0  0  0  0  0
    8.2269   -0.9804    0.0000 H   0  0  0  0  0  0  0  0  0  0  0  0
    7.4288   -0.9650    0.0000 H   0  0  0  0  0  0  0  0  0  0  0  0
    7.4048   -4.0785    0.0000 H   0  0  0  0  0  0  0  0  0  0  0  0
    8.2030   -4.0754    0.0000 H   0  0  0  0  0  0  0  0  0  0  0  0
   12.0076    0.4957    0.0000 H   0  0  0  0  0  0  0  0  0  0  0  0
   11.3876    1.1157    0.0000 H   0  0  0  0  0  0  0  0  0  0  0  0
   10.7676    0.4957    0.0000 H   0  0  0  0  0  0  0  0  0  0  0  0
    9.3630   -1.1236    0.0000 H   0  0  0  0  0  0  0  0  0  0  0  0
    8.9698   -0.4302    0.0000 H   0  0  0  0  0  0  0  0  0  0  0  0
    6.6662   -1.3898    0.0000 H   0  0  0  0  0  0  0  0  0  0  0  0
    6.2592   -2.0764    0.0000 H   0  0  0  0  0  0  0  0  0  0  0  0
    6.8612   -3.6800    0.0000 H   0  0  0  0  0  0  0  0  0  0  0  0
   11.9245   -2.8143    0.0000 H   0  0  0  0  0  0  0  0  0  0  0  0
    7.8959    0.1154    0.0000 H   0  0  0  0  0  0  0  0  0  0  0  0
   14.0370    0.4957    0.0000 H   0  0  0  0  0  0  0  0  0  0  0  0
   11.3699    1.3674    0.0000 H   0  0  0  0  0  0  0  0  0  0  0  0
    5.1280   -3.6733    0.0000 H   0  0  0  0  0  0  0  0  0  0  0  0
   14.5403    2.0355    0.0000 H   0  0  0  0  0  0  0  0  0  0  0  0
    5.8687   -2.4812    0.0000 H   0  0  0  0  0  0  0  0  0  0  0  0
    3.5357   -1.1222    0.0000 H   0  0  0  0  0  0  0  0  0  0  0  0
    3.3951   -3.8966    0.0000 H   0  0  0  0  0  0  0  0  0  0  0  0
    2.8641   -2.3546    0.0000 H   0  0  0  0  0  0  0  0  0  0  0  0
    6.0046   -0.9367    0.0000 H   0  0  0  0  0  0  0  0  0  0  0  0
    2.2225   -3.0052    0.0000 H   0  0  0  0  0  0  0  0  0  0  0  0
    1.9923   -3.8512    0.0000 H   0  0  0  0  0  0  0  0  0  0  0  0
    2.8384   -4.0814    0.0000 H   0  0  0  0  0  0  0  0  0  0  0  0
    2.0000   -1.8512    0.0000 H   0  0  0  0  0  0  0  0  0  0  0  0
    3.7220    0.4891    0.0000 H   0  0  0  0  0  0  0  0  0  0  0  0
    2.8742    0.2654    0.0000 H   0  0  0  0  0  0  0  0  0  0  0  0
    3.0979   -0.5824    0.0000 H   0  0  0  0  0  0  0  0  0  0  0  0
 11  1  1  1  0  0  0
  1 69  1  0  0  0  0
  2 26  1  0  0  0  0
  2 70  1  0  0  0  0
 28  3  1  1  0  0  0
 32  3  1  6  0  0  0
  4 31  1  0  0  0  0
  4 35  1  0  0  0  0
  5 32  1  0  0  0  0
  5 37  1  0  0  0  0
  6 34  1  0  0  0  0
  6 79  1  0  0  0  0
  7 36  1  0  0  0  0
  7 40  1  0  0  0  0
  8 35  2  0  0  0  0
 38  9  1  1  0  0  0
  9 83  1  0  0  0  0
 10 11  1  0  0  0  0
 10 12  1  0  0  0  0
 10 19  1  0  0  0  0
 10 41  1  0  0  0  0
 11 13  1  0  0  0  0
 11 20  1  0  0  0  0
 12 14  1  0  0  0  0
 12 16  1  0  0  0  0
 12 42  1  0  0  0  0
 13 17  1  0  0  0  0
 13 18  1  0  0  0  0
 13 25  1  1  0  0  0
 14 15  1  0  0  0  0
 14 23  1  0  0  0  0
 14 26  1  1  0  0  0
 15 21  1  0  0  0  0
 15 24  1  0  0  0  0
 15 43  1  1  0  0  0
 16 17  1  0  0  0  0
 16 44  1  0  0  0  0
 16 45  1  0  0  0  0
 17 46  1  0  0  0  0
 17 47  1  0  0  0  0
 18 22  1  0  0  0  0
 18 29  1  1  0  0  0
 18 48  1  0  0  0  0
 19 21  1  0  0  0  0
 19 49  1  0  0  0  0
 19 50  1  0  0  0  0
 20 22  1  0  0  0  0
 20 51  1  0  0  0  0
 20 52  1  0  0  0  0
 21 53  1  0  0  0  0
 21 54  1  0  0  0  0
 22 55  1  0  0  0  0
 22 56  1  0  0  0  0
 23 27  1  0  0  0  0
 23 57  1  0  0  0  0
 23 58  1  0  0  0  0
 24 28  1  0  0  0  0
 24 59  1  0  0  0  0
 24 60  1  0  0  0  0
 25 61  1  0  0  0  0
 25 62  1  0  0  0  0
 25 63  1  0  0  0  0
 26 64  1  0  0  0  0
 26 65  1  0  0  0  0
 27 28  1  0  0  0  0
 27 66  1  0  0  0  0
 27 67  1  0  0  0  0
 28 68  1  0  0  0  0
 29 30  1  0  0  0  0
 29 31  2  0  0  0  0
 30 33  2  0  0  0  0
 30 71  1  0  0  0  0
 31 72  1  0  0  0  0
 32 34  1  0  0  0  0
 32 73  1  0  0  0  0
 33 35  1  0  0  0  0
 33 74  1  0  0  0  0
 34 36  1  0  0  0  0
 34 75  1  0  0  0  0
 36 38  1  0  0  0  0
 36 76  1  0  0  0  0
 37 38  1  0  0  0  0
 37 39  1  0  0  0  0
 37 77  1  0  0  0  0
 38 78  1  0  0  0  0
 39 80  1  0  0  0  0
 39 81  1  0  0  0  0
 39 82  1  0  0  0  0
 40 84  1  0  0  0  0
 40 85  1  0  0  0  0
 40 86  1  0  0  0  0
M  END
> <PUBCHEM_COMPOUND_CID>
10091

> <PUBCHEM_COMPOUND_CANONICALIZED>
1

> <PUBCHEM_CACTVS_COMPLEXITY>
1040

> <PUBCHEM_CACTVS_HBOND_ACCEPTOR>
9

> <PUBCHEM_CACTVS_HBOND_DONOR>
4

> <PUBCHEM_CACTVS_ROTATABLE_BOND>
5

> <PUBCHEM_CACTVS_SUBSKEYS>
AAADcfB4PAAAAAAAAAAAAAAAAAAAAYAAAAA0YMECAAAAAGDAAAAAGgAACAAAD1SwgAMCCAAABgCIAiDSCAAACAAgIAAICAAAAEgZFAIAIQAiUAAFgAAPoYPA4PwPgAAAAAAAAADAAAYAADAAAYAADAAAAA==

> <PUBCHEM_IUPAC_OPENEYE_NAME>
5-[(3S,5R,10R,13R,14S,17R)-3-[(2R,5R)-3,5-dihydroxy-4-methoxy-6-methyl-tetrahydropyran-2-yl]oxy-14-hydroxy-10-(hydroxymethyl)-13-methyl-1,2,3,4,5,6,7,8,9,11,12,15,16,17-tetradecahydrocyclopenta[a]phenanthren-17-yl]pyran-2-one

> <PUBCHEM_IUPAC_CAS_NAME>
5-[(3S,5R,10R,13R,14S,17R)-3-[[(2R,5R)-3,5-dihydroxy-4-methoxy-6-methyl-2-oxanyl]oxy]-14-hydroxy-10-(hydroxymethyl)-13-methyl-1,2,3,4,5,6,7,8,9,11,12,15,16,17-tetradecahydrocyclopenta[a]phenanthren-17-yl]-2-pyranone

> <PUBCHEM_IUPAC_NAME>
5-[(3S,5R,10R,13R,14S,17R)-3-[(2R,5R)-3,5-dihydroxy-4-methoxy-6-methyloxan-2-yl]oxy-14-hydroxy-10-(hydroxymethyl)-13-methyl-1,2,3,4,5,6,7,8,9,11,12,15,16,17-tetradecahydrocyclopenta[a]phenanthren-17-yl]pyran-2-one

> <PUBCHEM_IUPAC_SYSTEMATIC_NAME>
5-[(3S,5R,10R,13R,14S,17R)-10-(hydroxymethyl)-3-[(2R,5R)-4-methoxy-6-methyl-3,5-bis(oxidanyl)oxan-2-yl]oxy-13-methyl-14-oxidanyl-1,2,3,4,5,6,7,8,9,11,12,15,16,17-tetradecahydrocyclopenta[a]phenanthren-17-yl]pyran-2-one

> <PUBCHEM_IUPAC_TRADITIONAL_NAME>
5-[(3S,5R,10R,13R,14S,17R)-3-[(2R,5R)-3,5-dihydroxy-4-methoxy-6-methyl-tetrahydropyran-2-yl]oxy-14-hydroxy-13-methyl-10-methylol-1,2,3,4,5,6,7,8,9,11,12,15,16,17-tetradecahydrocyclopenta[a]phenanthren-17-yl]pyran-2-one

> <PUBCHEM_IUPAC_INCHI>
InChI=1S/C31H46O9/c1-17-25(34)27(37-3)26(35)28(39-17)40-20-8-12-30(16-32)19(14-20)5-6-23-22(30)9-11-29(2)21(10-13-31(23,29)36)18-4-7-24(33)38-15-18/h4,7,15,17,19-23,25-28,32,34-36H,5-6,8-14,16H2,1-3H3/t17?,19-,20+,21-,22?,23?,25-,26?,27?,28+,29-,30-,31+/m1/s1

> <PUBCHEM_IUPAC_INCHIKEY>
OXBRMYXRHPWEIC-MXGRDHLTSA-N

> <PUBCHEM_XLOGP3>
1.4

> <PUBCHEM_EXACT_MASS>
562.314183

> <PUBCHEM_MOLECULAR_FORMULA>
C31H46O9

> <PUBCHEM_MOLECULAR_WEIGHT>
562.69154

> <PUBCHEM_OPENEYE_CAN_SMILES>
CC1C(C(C(C(O1)OC2CCC3(C(C2)CCC4C3CCC5(C4(CCC5C6=COC(=O)C=C6)O)C)CO)O)OC)O

> <PUBCHEM_OPENEYE_ISO_SMILES>
CC1[C@H](C(C([C@@H](O1)O[C@H]2CC[C@]3([C@@H](C2)CCC4C3CC[C@]5([C@@]4(CC[C@@H]5C6=COC(=O)C=C6)O)C)CO)O)OC)O

> <PUBCHEM_CACTVS_TPSA>
135

> <PUBCHEM_MONOISOTOPIC_WEIGHT>
562.314183

> <PUBCHEM_TOTAL_CHARGE>
0

> <PUBCHEM_HEAVY_ATOM_COUNT>
40

> <PUBCHEM_ATOM_DEF_STEREO_COUNT>
8

> <PUBCHEM_ATOM_UDEF_STEREO_COUNT>
5

> <PUBCHEM_BOND_DEF_STEREO_COUNT>
0

> <PUBCHEM_BOND_UDEF_STEREO_COUNT>
0

> <PUBCHEM_ISOTOPIC_ATOM_COUNT>
0

> <PUBCHEM_COMPONENT_COUNT>
1

> <PUBCHEM_CACTVS_TAUTO_COUNT>
1

> <PUBCHEM_COORDINATE_TYPE>
1
5
255

> <PUBCHEM_BONDANNOTATIONS>
11  1  5
10  41  3
12  42  3
13  25  5
14  26  5
15  43  5
18  29  5
29  30  8
29  31  8
28  3  5
32  3  6
30  33  8
33  35  8
34  75  3
36  76  3
37  77  3
4  31  8
4  35  8
38  9  5

$$$$

