46173955
  -OEChem-07051213102D

 44 44  0     1  0  0  0  0  0999 V2000
    4.2690   -2.9050    0.0000 O   0  0  0  0  0  0  0  0  0  0  0  0
    2.5369    1.0950    0.0000 O   0  0  0  0  0  0  0  0  0  0  0  0
    6.8671    2.5950    0.0000 O   0  0  0  0  0  0  0  0  0  0  0  0
    4.2690   -0.9050    0.0000 C   0  0  1  0  0  0  0  0  0  0  0  0
    4.2690   -1.9050    0.0000 C   0  0  0  0  0  0  0  0  0  0  0  0
    3.4030   -0.4050    0.0000 C   0  0  0  0  0  0  0  0  0  0  0  0
    5.1350   -0.4050    0.0000 C   0  0  0  0  0  0  0  0  0  0  0  0
    3.4030    0.5950    0.0000 C   0  0  1  0  0  0  0  0  0  0  0  0
    5.1350    0.5950    0.0000 C   0  0  0  0  0  0  0  0  0  0  0  0
    3.2690   -1.9050    0.0000 C   0  0  0  0  0  0  0  0  0  0  0  0
    5.2690   -1.9050    0.0000 C   0  0  0  0  0  0  0  0  0  0  0  0
    4.2690    1.0950    0.0000 C   0  0  0  0  0  0  0  0  0  0  0  0
    6.0010    1.0950    0.0000 C   0  0  0  0  0  0  0  0  0  0  0  0
    6.0010    2.0950    0.0000 C   0  0  2  0  0  0  0  0  0  0  0  0
    4.2690    2.0950    0.0000 C   0  0  0  0  0  0  0  0  0  0  0  0
    5.1350    2.5950    0.0000 C   0  0  0  0  0  0  0  0  0  0  0  0
    5.1350    1.5950    0.0000 C   0  0  0  0  0  0  0  0  0  0  0  0
    6.8671    0.5950    0.0000 C   0  0  0  0  0  0  0  0  0  0  0  0
    5.0051   -1.3300    0.0000 H   0  0  0  0  0  0  0  0  0  0  0  0
    2.7924   -0.2973    0.0000 H   0  0  0  0  0  0  0  0  0  0  0  0
    3.1909   -0.9876    0.0000 H   0  0  0  0  0  0  0  0  0  0  0  0
    5.3471   -0.9876    0.0000 H   0  0  0  0  0  0  0  0  0  0  0  0
    5.7456   -0.2973    0.0000 H   0  0  0  0  0  0  0  0  0  0  0  0
    3.4030    1.2150    0.0000 H   0  0  0  0  0  0  0  0  0  0  0  0
    4.9230    1.1776    0.0000 H   0  0  0  0  0  0  0  0  0  0  0  0
    4.5244    0.4873    0.0000 H   0  0  0  0  0  0  0  0  0  0  0  0
    3.2690   -1.2850    0.0000 H   0  0  0  0  0  0  0  0  0  0  0  0
    2.6490   -1.9050    0.0000 H   0  0  0  0  0  0  0  0  0  0  0  0
    3.2690   -2.5250    0.0000 H   0  0  0  0  0  0  0  0  0  0  0  0
    5.2690   -2.5250    0.0000 H   0  0  0  0  0  0  0  0  0  0  0  0
    5.8890   -1.9050    0.0000 H   0  0  0  0  0  0  0  0  0  0  0  0
    5.2690   -1.2850    0.0000 H   0  0  0  0  0  0  0  0  0  0  0  0
    6.5380    1.7850    0.0000 H   0  0  0  0  0  0  0  0  0  0  0  0
    4.0569    2.6776    0.0000 H   0  0  0  0  0  0  0  0  0  0  0  0
    3.6584    1.9873    0.0000 H   0  0  0  0  0  0  0  0  0  0  0  0
    5.5335    3.0700    0.0000 H   0  0  0  0  0  0  0  0  0  0  0  0
    4.7365    3.0700    0.0000 H   0  0  0  0  0  0  0  0  0  0  0  0
    3.7320   -3.2150    0.0000 H   0  0  0  0  0  0  0  0  0  0  0  0
    2.0000    0.7850    0.0000 H   0  0  0  0  0  0  0  0  0  0  0  0
    5.6720    1.2850    0.0000 H   0  0  0  0  0  0  0  0  0  0  0  0
    5.1350    2.2150    0.0000 H   0  0  0  0  0  0  0  0  0  0  0  0
    6.8671   -0.0250    0.0000 H   0  0  0  0  0  0  0  0  0  0  0  0
    7.4040    0.9050    0.0000 H   0  0  0  0  0  0  0  0  0  0  0  0
    6.8671    3.2150    0.0000 H   0  0  0  0  0  0  0  0  0  0  0  0
  1  5  1  0  0  0  0
  1 38  1  0  0  0  0
  8  2  1  6  0  0  0
  2 39  1  0  0  0  0
 14  3  1  6  0  0  0
  3 44  1  0  0  0  0
  4  5  1  0  0  0  0
  4  6  1  0  0  0  0
  4  7  1  0  0  0  0
  4 19  1  6  0  0  0
  5 10  1  0  0  0  0
  5 11  1  0  0  0  0
  6  8  1  0  0  0  0
  6 20  1  0  0  0  0
  6 21  1  0  0  0  0
  7  9  1  0  0  0  0
  7 22  1  0  0  0  0
  7 23  1  0  0  0  0
  8 12  1  0  0  0  0
  8 24  1  0  0  0  0
  9 13  1  0  0  0  0
  9 25  1  0  0  0  0
  9 26  1  0  0  0  0
 10 27  1  0  0  0  0
 10 28  1  0  0  0  0
 10 29  1  0  0  0  0
 11 30  1  0  0  0  0
 11 31  1  0  0  0  0
 11 32  1  0  0  0  0
 12 15  1  0  0  0  0
 12 17  2  0  0  0  0
 13 14  1  0  0  0  0
 13 18  2  0  0  0  0
 14 16  1  0  0  0  0
 14 33  1  0  0  0  0
 15 16  1  0  0  0  0
 15 34  1  0  0  0  0
 15 35  1  0  0  0  0
 16 36  1  0  0  0  0
 16 37  1  0  0  0  0
 17 40  1  0  0  0  0
 17 41  1  0  0  0  0
 18 42  1  0  0  0  0
 18 43  1  0  0  0  0
M  END
> <PUBCHEM_COMPOUND_CID>
46173955

> <PUBCHEM_COMPOUND_CANONICALIZED>
1

> <PUBCHEM_CACTVS_COMPLEXITY>
320

> <PUBCHEM_CACTVS_HBOND_ACCEPTOR>
3

> <PUBCHEM_CACTVS_HBOND_DONOR>
3

> <PUBCHEM_CACTVS_ROTATABLE_BOND>
1

> <PUBCHEM_CACTVS_SUBSKEYS>
AAADceBwMAAAAAAAAAAAAAAAAAAAAAAAAAAAAAAAAAAAAADAAAAAGgAACAAADVSggAICAAAAAgCAAgBCAAAAAAAgAAAAAAAAAAgAFAIAAQAAQAAEgAAAEAHA4PQOgAAAAAAAAAAAAAAAAAAAAAAAAAAAAA==

> <PUBCHEM_IUPAC_OPENEYE_NAME>
(1S,5S,9R)-9-(1-hydroxy-1-methyl-ethyl)-2,6-dimethylene-cyclodecane-1,5-diol

> <PUBCHEM_IUPAC_CAS_NAME>
(1S,5S,9R)-9-(2-hydroxypropan-2-yl)-2,6-dimethylenecyclodecane-1,5-diol

> <PUBCHEM_IUPAC_NAME>
(1S,5S,9R)-9-(2-hydroxypropan-2-yl)-2,6-dimethylidenecyclodecane-1,5-diol

> <PUBCHEM_IUPAC_SYSTEMATIC_NAME>
(1S,5S,9R)-2,6-dimethylidene-9-(2-oxidanylpropan-2-yl)cyclodecane-1,5-diol

> <PUBCHEM_IUPAC_TRADITIONAL_NAME>
(1S,5S,9R)-9-(1-hydroxy-1-methyl-ethyl)-2,6-dimethylene-cyclodecane-1,5-diol

> <PUBCHEM_IUPAC_INCHI>
InChI=1S/C15H26O3/c1-10-5-7-12(15(3,4)18)9-14(17)11(2)6-8-13(10)16/h12-14,16-18H,1-2,5-9H2,3-4H3/t12-,13+,14+/m1/s1

> <PUBCHEM_IUPAC_INCHIKEY>
ZJQHXIIOVKOVID-RDBSUJKOSA-N

> <PUBCHEM_XLOGP3_AA>
1

> <PUBCHEM_EXACT_MASS>
254.188195

> <PUBCHEM_MOLECULAR_FORMULA>
C15H26O3

> <PUBCHEM_MOLECULAR_WEIGHT>
254.36514

> <PUBCHEM_OPENEYE_CAN_SMILES>
CC(C)(C1CCC(=C)C(CCC(=C)C(C1)O)O)O

> <PUBCHEM_OPENEYE_ISO_SMILES>
CC(C)([C@@H]1CCC(=C)[C@H](CCC(=C)[C@H](C1)O)O)O

> <PUBCHEM_CACTVS_TPSA>
60.7

> <PUBCHEM_MONOISOTOPIC_WEIGHT>
254.188195

> <PUBCHEM_TOTAL_CHARGE>
0

> <PUBCHEM_HEAVY_ATOM_COUNT>
18

> <PUBCHEM_ATOM_DEF_STEREO_COUNT>
3

> <PUBCHEM_ATOM_UDEF_STEREO_COUNT>
0

> <PUBCHEM_BOND_DEF_STEREO_COUNT>
0

> <PUBCHEM_BOND_UDEF_STEREO_COUNT>
0

> <PUBCHEM_ISOTOPIC_ATOM_COUNT>
0

> <PUBCHEM_COMPONENT_COUNT>
1

> <PUBCHEM_CACTVS_TAUTO_COUNT>
1

> <PUBCHEM_COORDINATE_TYPE>
1
5
255

> <PUBCHEM_BONDANNOTATIONS>
8  2  6
14  3  6
4  19  6

$$$$

