   Color/Form

     * Monoclinic rhombohedra from alc; commercial crystals (needles) are
       yellow
     * Colorless to pale-yellow solid or crushed flakes

   from [1]HSDB

   Odor
        Odorless
   from [2]HSDB

   Boiling Point
        240 deg C (explodes)
   from [3]HSDB

   Melting Point
        80.1 deg C
   from [4]HSDB

   Density/Specific Gravity
        1.654 at 20 deg C/4 deg C
   from [5]HSDB

   Octanol/Water Partition Coefficient
        log Kow = 1.60
   from [6]HSDB

   Solubilities

     * In water, 115 mg/L at 23 deg C
     * Sol less than 2,4,6-trinitrophenol in alc, ether, carbon disulfide
     * About 0.01% in water at 25 deg C. 1 g/700 ml boiling water
     * Solubilities in various solvents at 18 deg C.

       Solvent

   Parameter

   Chloroform 0.1 g/0.4 cc
   Ether 0.1 g/4 cc
   Carbon tetrachloride 0.1 g/7 cc

     Solubilities in various solvents at 20 deg C

   Solvent Parameter
   Toluene 55.0 g/100 g
   Methyl acetate 72.1 g/100 g
   Acetone 109 g/100 g
   Chlorobenzene 33.9 g/100 g
   Benzene 67.0 g/100 g
   1,2-Dichloroethane 18.7 g/100 g
   Pyridine 137 g/100 g

     Slightly soluble in ethanol; soluble in ethyl ether; very soluble in
   benzene, toluene, pyridine.

   from [7]HSDB

   Spectral Properties

     * MAX ABSORPTION: 225 NM (LOG E= 4.36)
     * IR: 21886 (Sadtler Research Laboratories Prism Collection)
     * UV: 6-101 (Organic Electronic Spectral Data, Phillips et al, John
       Wiley & Sons, New York)
     * 1H NMR: 486 (Varian Associates NMR Spectra Catalogue)
     * MASS: 57850 (NIST/EPA/MSDC Mass Spectral database, 1990 version)

   from [8]HSDB

   Vapor Density
        7.85 (Air = 1)
   from [9]HSDB

   Vapor Pressure
        8.02X10-6 mm Hg at 25 deg C
   from [10]HSDB

   Other Chemical/Physical Properties

     * Dipole moment 1.37
     * Heat of decomposition: 5.1 kJ/g
     * Hygroscopicty: 0.03% at 30% deg C and 90% humidity.
     * Henry's Law constant = 2.1X10-8 atm-cu m/mol at 25 deg C (est)
     * Hydroxyl radical reaction rate constant = 1.38X10-13 cu
       cm/molec-sec at 25 deg C (est)

   from [11]HSDB

   Computed Properties
   Molecular Weight                  227.1311 [g/mol]
   Molecular Formula                 C[7]H[5]N[3]O[6]
   XLogP3                            1.6
   H-Bond Donor                      0
   H-Bond Acceptor                   6
   Rotatable Bond Count              0
   Exact Mass                        227.017835
   MonoIsotopic Mass                 227.017835
   Topological Polar Surface Area    138
   Heavy Atom Count                  16
   Formal Charge                     0
   Complexity                        292
   Isotope Atom Count                0
   Defined Atom Stereocenter Count   0
   Undefined Atom Stereocenter Count 0
   Defined Bond Stereocenter Count   0
   Undefined Bond Stereocenter Count 0
   Covalently-Bonded Unit Count      1
   Feature 3D Acceptor Count         6
   Feature 3D Anion Count            3
   Feature 3D Ring Count             1
   Effective Rotor Count             3
   Conformer Sampling RMSD           0.6
   CID Conformer Count               [12]1

References

   1. http://toxnet.nlm.nih.gov/cgi-bin/sis/search/r?dbs+hsdb:@term+@rn+@rel+118-96-7
   2. http://toxnet.nlm.nih.gov/cgi-bin/sis/search/r?dbs+hsdb:@term+@rn+@rel+118-96-7
   3. http://toxnet.nlm.nih.gov/cgi-bin/sis/search/r?dbs+hsdb:@term+@rn+@rel+118-96-7
   4. http://toxnet.nlm.nih.gov/cgi-bin/sis/search/r?dbs+hsdb:@term+@rn+@rel+118-96-7
   5. http://toxnet.nlm.nih.gov/cgi-bin/sis/search/r?dbs+hsdb:@term+@rn+@rel+118-96-7
   6. http://toxnet.nlm.nih.gov/cgi-bin/sis/search/r?dbs+hsdb:@term+@rn+@rel+118-96-7
   7. http://toxnet.nlm.nih.gov/cgi-bin/sis/search/r?dbs+hsdb:@term+@rn+@rel+118-96-7
   8. http://toxnet.nlm.nih.gov/cgi-bin/sis/search/r?dbs+hsdb:@term+@rn+@rel+118-96-7
   9. http://toxnet.nlm.nih.gov/cgi-bin/sis/search/r?dbs+hsdb:@term+@rn+@rel+118-96-7
  10. http://toxnet.nlm.nih.gov/cgi-bin/sis/search/r?dbs+hsdb:@term+@rn+@rel+118-96-7
  11. http://toxnet.nlm.nih.gov/cgi-bin/sis/search/r?dbs+hsdb:@term+@rn+@rel+118-96-7
  12. http://pubchem.ncbi.nlm.nih.gov/vw3d/vw3d.cgi?cid=8376
