   Color/Form
        LIQUID
   from [1]HSDB

   Odor
        GARLIC ODOR
   from [2]HSDB

   Taste
        SHARP, GARLIC FLAVOR
   from [3]HSDB

   Boiling Point
        79 DEG C @ 16 MM HG
   from [4]HSDB

   Density/Specific Gravity
        1.010 @ 15 DEG C
   from [5]HSDB

   Solubilities
        INSOL IN WATER; SOL IN MOST COMMON ORG SOLVENTS
   from [6]HSDB

   Spectral Properties
        INDEX OF REFRACTION: 1.54 @ 20 DEG C
   from [7]HSDB

   Computed Properties
   Molecular Weight                  146.2736 [g/mol]
   Molecular Formula                 C[6]H[10]S[2]
   XLogP3-AA                         2.2
   H-Bond Donor                      0
   H-Bond Acceptor                   2
   Rotatable Bond Count              5
   Exact Mass                        146.022392
   MonoIsotopic Mass                 146.022392
   Topological Polar Surface Area    50.6
   Heavy Atom Count                  8
   Formal Charge                     0
   Complexity                        58.9
   Isotope Atom Count                0
   Defined Atom Stereocenter Count   0
   Undefined Atom Stereocenter Count 0
   Defined Bond Stereocenter Count   0
   Undefined Bond Stereocenter Count 0
   Covalently-Bonded Unit Count      1
   Feature 3D Hydrophobe Count       4
   Effective Rotor Count             5
   Conformer Sampling RMSD           0.6
   CID Conformer Count               [8]62

References

   1. http://toxnet.nlm.nih.gov/cgi-bin/sis/search/r?dbs+hsdb:@term+@rn+@rel+2179-57-9
   2. http://toxnet.nlm.nih.gov/cgi-bin/sis/search/r?dbs+hsdb:@term+@rn+@rel+2179-57-9
   3. http://toxnet.nlm.nih.gov/cgi-bin/sis/search/r?dbs+hsdb:@term+@rn+@rel+2179-57-9
   4. http://toxnet.nlm.nih.gov/cgi-bin/sis/search/r?dbs+hsdb:@term+@rn+@rel+2179-57-9
   5. http://toxnet.nlm.nih.gov/cgi-bin/sis/search/r?dbs+hsdb:@term+@rn+@rel+2179-57-9
   6. http://toxnet.nlm.nih.gov/cgi-bin/sis/search/r?dbs+hsdb:@term+@rn+@rel+2179-57-9
   7. http://toxnet.nlm.nih.gov/cgi-bin/sis/search/r?dbs+hsdb:@term+@rn+@rel+2179-57-9
   8. http://pubchem.ncbi.nlm.nih.gov/vw3d/vw3d.cgi?cid=16590
