51090938
  -OEChem-06241223002D

 41 42  0     1  0  0  0  0  0999 V2000
    8.3508    4.1750    0.0000 F   0  0  0  0  0  0  0  0  0  0  0  0
    8.5721    2.7782    0.0000 F   0  0  0  0  0  0  0  0  0  0  0  0
    6.9540    3.9537    0.0000 F   0  0  0  0  0  0  0  0  0  0  0  0
    2.0000    0.8250    0.0000 O   0  0  0  0  0  0  0  0  0  0  0  0
    2.8660   -3.6750    0.0000 O   0  0  0  0  0  0  0  0  0  0  0  0
    6.1808    2.6614    0.0000 N   0  0  3  0  0  0  0  0  0  0  0  0
    3.7320    0.8250    0.0000 N   0  0  0  0  0  0  0  0  0  0  0  0
    4.5981    2.3250    0.0000 C   0  0  3  0  0  0  0  0  0  0  0  0
    4.7026    3.3196    0.0000 C   0  0  0  0  0  0  0  0  0  0  0  0
    5.5116    1.9183    0.0000 C   0  0  0  0  0  0  0  0  0  0  0  0
    5.6808    3.5275    0.0000 C   0  0  0  0  0  0  0  0  0  0  0  0
    3.7320    1.8250    0.0000 C   0  0  0  0  0  0  0  0  0  0  0  0
    7.1753    2.5569    0.0000 C   0  0  0  0  0  0  0  0  0  0  0  0
    7.7631    3.3659    0.0000 C   0  0  0  0  0  0  0  0  0  0  0  0
    2.8660    0.3250    0.0000 C   0  0  0  0  0  0  0  0  0  0  0  0
    2.8660   -0.6750    0.0000 C   0  0  0  0  0  0  0  0  0  0  0  0
    2.0000   -1.1750    0.0000 C   0  0  0  0  0  0  0  0  0  0  0  0
    3.7320   -1.1750    0.0000 C   0  0  0  0  0  0  0  0  0  0  0  0
    2.0000   -2.1750    0.0000 C   0  0  0  0  0  0  0  0  0  0  0  0
    3.7320   -2.1750    0.0000 C   0  0  0  0  0  0  0  0  0  0  0  0
    2.8660   -2.6750    0.0000 C   0  0  0  0  0  0  0  0  0  0  0  0
    2.0000   -4.1750    0.0000 C   0  0  0  0  0  0  0  0  0  0  0  0
    4.0781    2.6627    0.0000 H   0  0  0  0  0  0  0  0  0  0  0  0
    4.6378    3.9362    0.0000 H   0  0  0  0  0  0  0  0  0  0  0  0
    4.0826    3.3196    0.0000 H   0  0  0  0  0  0  0  0  0  0  0  0
    5.2016    1.3814    0.0000 H   0  0  0  0  0  0  0  0  0  0  0  0
    6.0132    1.5539    0.0000 H   0  0  0  0  0  0  0  0  0  0  0  0
    6.2472    3.7796    0.0000 H   0  0  0  0  0  0  0  0  0  0  0  0
    5.4892    4.1171    0.0000 H   0  0  0  0  0  0  0  0  0  0  0  0
    3.5200    2.4076    0.0000 H   0  0  0  0  0  0  0  0  0  0  0  0
    3.1215    1.7174    0.0000 H   0  0  0  0  0  0  0  0  0  0  0  0
    7.0044    1.9609    0.0000 H   0  0  0  0  0  0  0  0  0  0  0  0
    7.7325    2.2851    0.0000 H   0  0  0  0  0  0  0  0  0  0  0  0
    4.2690    0.5150    0.0000 H   0  0  0  0  0  0  0  0  0  0  0  0
    1.4631   -0.8650    0.0000 H   0  0  0  0  0  0  0  0  0  0  0  0
    4.2690   -0.8650    0.0000 H   0  0  0  0  0  0  0  0  0  0  0  0
    1.4631   -2.4850    0.0000 H   0  0  0  0  0  0  0  0  0  0  0  0
    4.2690   -2.4850    0.0000 H   0  0  0  0  0  0  0  0  0  0  0  0
    1.6900   -3.6380    0.0000 H   0  0  0  0  0  0  0  0  0  0  0  0
    1.4631   -4.4850    0.0000 H   0  0  0  0  0  0  0  0  0  0  0  0
    2.3100   -4.7119    0.0000 H   0  0  0  0  0  0  0  0  0  0  0  0
  1 14  1  0  0  0  0
  2 14  1  0  0  0  0
  3 14  1  0  0  0  0
  4 15  2  0  0  0  0
  5 21  1  0  0  0  0
  5 22  1  0  0  0  0
  6 10  1  0  0  0  0
  6 11  1  0  0  0  0
  6 13  1  0  0  0  0
  7 12  1  0  0  0  0
  7 15  1  0  0  0  0
  7 34  1  0  0  0  0
  8  9  1  0  0  0  0
  8 10  1  0  0  0  0
  8 12  1  0  0  0  0
  8 23  1  0  0  0  0
  9 11  1  0  0  0  0
  9 24  1  0  0  0  0
  9 25  1  0  0  0  0
 10 26  1  0  0  0  0
 10 27  1  0  0  0  0
 11 28  1  0  0  0  0
 11 29  1  0  0  0  0
 12 30  1  0  0  0  0
 12 31  1  0  0  0  0
 13 14  1  0  0  0  0
 13 32  1  0  0  0  0
 13 33  1  0  0  0  0
 15 16  1  0  0  0  0
 16 17  2  0  0  0  0
 16 18  1  0  0  0  0
 17 19  1  0  0  0  0
 17 35  1  0  0  0  0
 18 20  2  0  0  0  0
 18 36  1  0  0  0  0
 19 21  2  0  0  0  0
 19 37  1  0  0  0  0
 20 21  1  0  0  0  0
 20 38  1  0  0  0  0
 22 39  1  0  0  0  0
 22 40  1  0  0  0  0
 22 41  1  0  0  0  0
M  END
> <PUBCHEM_COMPOUND_CID>
51090938

> <PUBCHEM_COMPOUND_CANONICALIZED>
1

> <PUBCHEM_CACTVS_COMPLEXITY>
368

> <PUBCHEM_CACTVS_HBOND_ACCEPTOR>
6

> <PUBCHEM_CACTVS_HBOND_DONOR>
1

> <PUBCHEM_CACTVS_ROTATABLE_BOND>
5

> <PUBCHEM_CACTVS_SUBSKEYS>
AAADceBzMYAAAAAAAAAAAAAAAAAAAWAAAAAwAAAAAAAAAAABAAAAHwAQAAAADQTBmBYyBoPABACIAiFSEACCCAAkIAAIiIEODMgMJjKE9RuEMShk1hGIqYeY3ALOIAAAAAAAAABAAAAAAAAAAAAAAAAAAA==

> <PUBCHEM_IUPAC_OPENEYE_NAME>
4-methoxy-N-[[1-(2,2,2-trifluoroethyl)pyrrolidin-3-yl]methyl]benzamide

> <PUBCHEM_IUPAC_CAS_NAME>
4-methoxy-N-[[1-(2,2,2-trifluoroethyl)-3-pyrrolidinyl]methyl]benzamide

> <PUBCHEM_IUPAC_NAME>
4-methoxy-N-[[1-(2,2,2-trifluoroethyl)pyrrolidin-3-yl]methyl]benzamide

> <PUBCHEM_IUPAC_SYSTEMATIC_NAME>
4-methoxy-N-[[1-[2,2,2-tris(fluoranyl)ethyl]pyrrolidin-3-yl]methyl]benzamide

> <PUBCHEM_IUPAC_TRADITIONAL_NAME>
4-methoxy-N-[[1-(2,2,2-trifluoroethyl)pyrrolidin-3-yl]methyl]benzamide

> <PUBCHEM_IUPAC_INCHI>
InChI=1S/C15H19F3N2O2/c1-22-13-4-2-12(3-5-13)14(21)19-8-11-6-7-20(9-11)10-15(16,17)18/h2-5,11H,6-10H2,1H3,(H,19,21)

> <PUBCHEM_IUPAC_INCHIKEY>
VXGYHUGFHYJIHR-UHFFFAOYSA-N

> <PUBCHEM_XLOGP3_AA>
2.7

> <PUBCHEM_EXACT_MASS>
316.139863

> <PUBCHEM_MOLECULAR_FORMULA>
C15H19F3N2O2

> <PUBCHEM_MOLECULAR_WEIGHT>
316.31877

> <PUBCHEM_OPENEYE_CAN_SMILES>
COC1=CC=C(C=C1)C(=O)NCC2CCN(C2)CC(F)(F)F

> <PUBCHEM_OPENEYE_ISO_SMILES>
COC1=CC=C(C=C1)C(=O)NCC2CCN(C2)CC(F)(F)F

> <PUBCHEM_CACTVS_TPSA>
41.6

> <PUBCHEM_MONOISOTOPIC_WEIGHT>
316.139863

> <PUBCHEM_TOTAL_CHARGE>
0

> <PUBCHEM_HEAVY_ATOM_COUNT>
22

> <PUBCHEM_ATOM_DEF_STEREO_COUNT>
0

> <PUBCHEM_ATOM_UDEF_STEREO_COUNT>
1

> <PUBCHEM_BOND_DEF_STEREO_COUNT>
0

> <PUBCHEM_BOND_UDEF_STEREO_COUNT>
0

> <PUBCHEM_ISOTOPIC_ATOM_COUNT>
0

> <PUBCHEM_COMPONENT_COUNT>
1

> <PUBCHEM_CACTVS_TAUTO_COUNT>
2

> <PUBCHEM_COORDINATE_TYPE>
1
5
255

> <PUBCHEM_BONDANNOTATIONS>
16  17  8
16  18  8
17  19  8
18  20  8
19  21  8
20  21  8
8  12  3

$$$$

