   Color/Form
        Light-straw-colored liquid
   from [1]HSDB

   Boiling Point
        242 deg C
   from [2]HSDB

   Melting Point
        18 deg C
   from [3]HSDB

   Density/Specific Gravity
        1.540 g/cu cm @ 20 deg C
   from [4]HSDB

   Dissociation Constants
        pKa = 11.10 @ 20 deg C
   from [5]HSDB

   Octanol/Water Partition Coefficient
        log Kow = 3.79
   from [6]HSDB

   Solubilities
        Insoluble in water. Soluble in alcohol and toluene.
   from [7]HSDB

   Spectral Properties

     * Index of refraction (sodium light): 1.5134 @ 20 deg C; 1.5111 @ 25
       deg C.
     * MASS: 7230 (NIST/EPA/MSDC Mass Spectral Database, 1990 Version)
     * IR: 3:650E (The Aldrich Handbook of Organic Chemicals and
       Biochemicals, Aldrich Chemical Co., Inc., New York; Aldrich Library
       of Infrared Spectra, Aldrich Chemical co., Milwaukee, WI)

   from [8]HSDB

   Computed Properties
   Molecular Weight                  178.27072 [g/mol]
   Molecular Formula                 C[12]H[18]O
   XLogP3                            3.8
   H-Bond Donor                      1
   H-Bond Acceptor                   1
   Rotatable Bond Count              2
   Tautomer Count                    2
   Exact Mass                        178.135765
   MonoIsotopic Mass                 178.135765
   Topological Polar Surface Area    20.2
   Heavy Atom Count                  13
   Formal Charge                     0
   Complexity                        135
   Isotope Atom Count                0
   Defined Atom Stereocenter Count   0
   Undefined Atom Stereocenter Count 0
   Defined Bond Stereocenter Count   0
   Undefined Bond Stereocenter Count 0
   Covalently-Bonded Unit Count      1
   Feature 3D Donor Count            1
   Feature 3D Hydrophobe Count       2
   Feature 3D Ring Count             1
   Effective Rotor Count             2
   Conformer Sampling RMSD           0.6
   CID Conformer Count               [9]3

References

   1. http://toxnet.nlm.nih.gov/cgi-bin/sis/search/r?dbs+hsdb:@term+@rn+@rel+2078-54-8
   2. http://toxnet.nlm.nih.gov/cgi-bin/sis/search/r?dbs+hsdb:@term+@rn+@rel+2078-54-8
   3. http://toxnet.nlm.nih.gov/cgi-bin/sis/search/r?dbs+hsdb:@term+@rn+@rel+2078-54-8
   4. http://toxnet.nlm.nih.gov/cgi-bin/sis/search/r?dbs+hsdb:@term+@rn+@rel+2078-54-8
   5. http://toxnet.nlm.nih.gov/cgi-bin/sis/search/r?dbs+hsdb:@term+@rn+@rel+2078-54-8
   6. http://toxnet.nlm.nih.gov/cgi-bin/sis/search/r?dbs+hsdb:@term+@rn+@rel+2078-54-8
   7. http://toxnet.nlm.nih.gov/cgi-bin/sis/search/r?dbs+hsdb:@term+@rn+@rel+2078-54-8
   8. http://toxnet.nlm.nih.gov/cgi-bin/sis/search/r?dbs+hsdb:@term+@rn+@rel+2078-54-8
   9. http://pubchem.ncbi.nlm.nih.gov/vw3d/vw3d.cgi?cid=4943
