3082089
  -OEChem-07051212502D

 78 81  0     1  0  0  0  0  0999 V2000
    7.9506   -3.6324    0.0000 O   0  0  0  0  0  0  0  0  0  0  0  0
    2.5357   -3.6533    0.0000 O   0  0  0  0  0  0  0  0  0  0  0  0
   13.0532    4.1245    0.0000 O   0  0  0  0  0  0  0  0  0  0  0  0
    7.9288   -1.6010    0.0000 C   0  0  2  0  0  0  0  0  0  0  0  0
    7.9288   -0.6010    0.0000 C   0  0  1  0  0  0  0  0  0  0  0  0
    7.0628   -2.1010    0.0000 C   0  0  1  0  0  0  0  0  0  0  0  0
    6.1968   -1.6010    0.0000 C   0  0  1  0  0  0  0  0  0  0  0  0
    5.2868   -2.1078    0.0000 C   0  0  2  0  0  0  0  0  0  0  0  0
    8.8750   -0.2962    0.0000 C   0  0  2  0  0  0  0  0  0  0  0  0
    5.2787   -3.1494    0.0000 C   0  0  2  0  0  0  0  0  0  0  0  0
    7.0628   -0.1010    0.0000 C   0  0  0  0  0  0  0  0  0  0  0  0
    6.1968   -0.6010    0.0000 C   0  0  0  0  0  0  0  0  0  0  0  0
    8.8750   -1.9057    0.0000 C   0  0  0  0  0  0  0  0  0  0  0  0
    7.0789   -3.1425    0.0000 C   0  0  1  0  0  0  0  0  0  0  0  0
    9.4586   -1.1010    0.0000 C   0  0  0  0  0  0  0  0  0  0  0  0
    6.1808   -3.6702    0.0000 C   0  0  0  0  0  0  0  0  0  0  0  0
    4.3599   -1.5437    0.0000 C   0  0  0  0  0  0  0  0  0  0  0  0
    7.9288    0.3990    0.0000 C   0  0  0  0  0  0  0  0  0  0  0  0
    9.1857    0.6543    0.0000 C   0  0  1  0  0  0  0  0  0  0  0  0
    4.3433   -3.6991    0.0000 C   0  0  0  0  0  0  0  0  0  0  0  0
    5.2945   -1.1078    0.0000 C   0  0  0  0  0  0  0  0  0  0  0  0
    3.4120   -2.0717    0.0000 C   0  0  0  0  0  0  0  0  0  0  0  0
    3.4037   -3.1566    0.0000 C   0  0  1  0  0  0  0  0  0  0  0  0
   10.1642    0.8605    0.0000 C   0  0  0  0  0  0  0  0  0  0  0  0
    8.5179    1.3986    0.0000 C   0  0  0  0  0  0  0  0  0  0  0  0
   10.4749    1.8110    0.0000 C   0  0  0  0  0  0  0  0  0  0  0  0
   11.4534    2.0173    0.0000 C   0  0  0  0  0  0  0  0  0  0  0  0
   11.7640    2.9678    0.0000 C   0  0  3  0  0  0  0  0  0  0  0  0
   12.7425    3.1740    0.0000 C   0  0  0  0  0  0  0  0  0  0  0  0
   11.0962    3.7121    0.0000 C   0  0  0  0  0  0  0  0  0  0  0  0
    8.0188   -2.4462    0.0000 H   0  0  0  0  0  0  0  0  0  0  0  0
    7.8022   -2.5203    0.0000 H   0  0  0  0  0  0  0  0  0  0  0  0
    6.9329   -1.1760    0.0000 H   0  0  0  0  0  0  0  0  0  0  0  0
    9.7148   -0.1643    0.0000 H   0  0  0  0  0  0  0  0  0  0  0  0
    5.2820   -3.9994    0.0000 H   0  0  0  0  0  0  0  0  0  0  0  0
    7.4613    0.3740    0.0000 H   0  0  0  0  0  0  0  0  0  0  0  0
    6.6643    0.3740    0.0000 H   0  0  0  0  0  0  0  0  0  0  0  0
    5.9847   -0.0183    0.0000 H   0  0  0  0  0  0  0  0  0  0  0  0
    5.5862   -0.7086    0.0000 H   0  0  0  0  0  0  0  0  0  0  0  0
    8.6240   -2.4726    0.0000 H   0  0  0  0  0  0  0  0  0  0  0  0
    9.4124   -2.2149    0.0000 H   0  0  0  0  0  0  0  0  0  0  0  0
    7.6116   -2.8252    0.0000 H   0  0  0  0  0  0  0  0  0  0  0  0
    9.9195   -1.5157    0.0000 H   0  0  0  0  0  0  0  0  0  0  0  0
    9.9195   -0.6862    0.0000 H   0  0  0  0  0  0  0  0  0  0  0  0
    5.7835   -4.1462    0.0000 H   0  0  0  0  0  0  0  0  0  0  0  0
    6.5818   -4.1431    0.0000 H   0  0  0  0  0  0  0  0  0  0  0  0
    4.7681   -1.0771    0.0000 H   0  0  0  0  0  0  0  0  0  0  0  0
    3.9700   -1.0617    0.0000 H   0  0  0  0  0  0  0  0  0  0  0  0
    8.5488    0.3990    0.0000 H   0  0  0  0  0  0  0  0  0  0  0  0
    7.9288    1.0190    0.0000 H   0  0  0  0  0  0  0  0  0  0  0  0
    7.3088    0.3990    0.0000 H   0  0  0  0  0  0  0  0  0  0  0  0
    9.3783    1.2436    0.0000 H   0  0  0  0  0  0  0  0  0  0  0  0
    3.9460   -4.1751    0.0000 H   0  0  0  0  0  0  0  0  0  0  0  0
    4.7443   -4.1720    0.0000 H   0  0  0  0  0  0  0  0  0  0  0  0
    5.9145   -1.1126    0.0000 H   0  0  0  0  0  0  0  0  0  0  0  0
    5.2993   -0.4878    0.0000 H   0  0  0  0  0  0  0  0  0  0  0  0
    4.6745   -1.1030    0.0000 H   0  0  0  0  0  0  0  0  0  0  0  0
    3.2075   -1.4864    0.0000 H   0  0  0  0  0  0  0  0  0  0  0  0
    2.8004   -2.1730    0.0000 H   0  0  0  0  0  0  0  0  0  0  0  0
    3.4025   -3.7766    0.0000 H   0  0  0  0  0  0  0  0  0  0  0  0
   10.1848    0.2409    0.0000 H   0  0  0  0  0  0  0  0  0  0  0  0
   10.7780    0.7732    0.0000 H   0  0  0  0  0  0  0  0  0  0  0  0
    7.9578   -4.2524    0.0000 H   0  0  0  0  0  0  0  0  0  0  0  0
    8.9793    1.8127    0.0000 H   0  0  0  0  0  0  0  0  0  0  0  0
    8.1038    1.8601    0.0000 H   0  0  0  0  0  0  0  0  0  0  0  0
    8.0564    0.9845    0.0000 H   0  0  0  0  0  0  0  0  0  0  0  0
   10.4543    2.4307    0.0000 H   0  0  0  0  0  0  0  0  0  0  0  0
    9.8611    1.8984    0.0000 H   0  0  0  0  0  0  0  0  0  0  0  0
    2.0000   -3.3412    0.0000 H   0  0  0  0  0  0  0  0  0  0  0  0
   11.4739    1.3976    0.0000 H   0  0  0  0  0  0  0  0  0  0  0  0
   12.0672    1.9299    0.0000 H   0  0  0  0  0  0  0  0  0  0  0  0
   10.9323    2.7925    0.0000 H   0  0  0  0  0  0  0  0  0  0  0  0
   12.7631    2.5543    0.0000 H   0  0  0  0  0  0  0  0  0  0  0  0
   13.3564    3.0866    0.0000 H   0  0  0  0  0  0  0  0  0  0  0  0
   11.5577    4.1261    0.0000 H   0  0  0  0  0  0  0  0  0  0  0  0
   10.6821    4.1736    0.0000 H   0  0  0  0  0  0  0  0  0  0  0  0
   10.6347    3.2980    0.0000 H   0  0  0  0  0  0  0  0  0  0  0  0
   13.6599    4.2524    0.0000 H   0  0  0  0  0  0  0  0  0  0  0  0
 14  1  1  6  0  0  0
  1 63  1  0  0  0  0
 23  2  1  6  0  0  0
  2 69  1  0  0  0  0
  3 29  1  0  0  0  0
  3 78  1  0  0  0  0
  4  5  1  0  0  0  0
  4  6  1  0  0  0  0
  4 13  1  0  0  0  0
  4 31  1  6  0  0  0
  5  9  1  0  0  0  0
  5 11  1  0  0  0  0
  5 18  1  1  0  0  0
  6  7  1  0  0  0  0
  6 14  1  0  0  0  0
  6 32  1  1  0  0  0
  7  8  1  0  0  0  0
  7 12  1  0  0  0  0
  7 33  1  6  0  0  0
  8 10  1  0  0  0  0
  8 17  1  0  0  0  0
  8 21  1  1  0  0  0
  9 15  1  0  0  0  0
  9 19  1  0  0  0  0
  9 34  1  6  0  0  0
 10 16  1  0  0  0  0
 10 20  1  0  0  0  0
 10 35  1  1  0  0  0
 11 12  1  0  0  0  0
 11 36  1  0  0  0  0
 11 37  1  0  0  0  0
 12 38  1  0  0  0  0
 12 39  1  0  0  0  0
 13 15  1  0  0  0  0
 13 40  1  0  0  0  0
 13 41  1  0  0  0  0
 14 16  1  0  0  0  0
 14 42  1  0  0  0  0
 15 43  1  0  0  0  0
 15 44  1  0  0  0  0
 16 45  1  0  0  0  0
 16 46  1  0  0  0  0
 17 22  1  0  0  0  0
 17 47  1  0  0  0  0
 17 48  1  0  0  0  0
 18 49  1  0  0  0  0
 18 50  1  0  0  0  0
 18 51  1  0  0  0  0
 19 24  1  0  0  0  0
 19 25  1  6  0  0  0
 19 52  1  0  0  0  0
 20 23  1  0  0  0  0
 20 53  1  0  0  0  0
 20 54  1  0  0  0  0
 21 55  1  0  0  0  0
 21 56  1  0  0  0  0
 21 57  1  0  0  0  0
 22 23  1  0  0  0  0
 22 58  1  0  0  0  0
 22 59  1  0  0  0  0
 23 60  1  0  0  0  0
 24 26  1  0  0  0  0
 24 61  1  0  0  0  0
 24 62  1  0  0  0  0
 25 64  1  0  0  0  0
 25 65  1  0  0  0  0
 25 66  1  0  0  0  0
 26 27  1  0  0  0  0
 26 67  1  0  0  0  0
 26 68  1  0  0  0  0
 27 28  1  0  0  0  0
 27 70  1  0  0  0  0
 27 71  1  0  0  0  0
 28 29  1  0  0  0  0
 28 30  1  0  0  0  0
 28 72  1  0  0  0  0
 29 73  1  0  0  0  0
 29 74  1  0  0  0  0
 30 75  1  0  0  0  0
 30 76  1  0  0  0  0
 30 77  1  0  0  0  0
M  END
> <PUBCHEM_COMPOUND_CID>
3082089

> <PUBCHEM_COMPOUND_CANONICALIZED>
1

> <PUBCHEM_CACTVS_COMPLEXITY>
593

> <PUBCHEM_CACTVS_HBOND_ACCEPTOR>
3

> <PUBCHEM_CACTVS_HBOND_DONOR>
3

> <PUBCHEM_CACTVS_ROTATABLE_BOND>
6

> <PUBCHEM_CACTVS_SUBSKEYS>
AAADcfB4MAAAAAAAAAAAAAAAAAAAAYAAAAAwYMAAAAAAAGDAAAAAGgAACAAADxSggAICAAAAAgAAAAAAAAAAAAAAAAAAAAAAAAAAEAIAAAAAQAAEAAAAAAGA4PQPgAAAAAAAAADAAAYAADAAAQAACAAAAA==

> <PUBCHEM_IUPAC_OPENEYE_NAME>
(3R,5S,7R,8R,9S,10S,13R,14S,17R)-17-[(1R)-6-hydroxy-1,5-dimethyl-hexyl]-10,13-dimethyl-2,3,4,5,6,7,8,9,11,12,14,15,16,17-tetradecahydro-1H-cyclopenta[a]phenanthrene-3,7-diol

> <PUBCHEM_IUPAC_CAS_NAME>
(3R,5S,7R,8R,9S,10S,13R,14S,17R)-17-[(2R)-7-hydroxy-6-methylheptan-2-yl]-10,13-dimethyl-2,3,4,5,6,7,8,9,11,12,14,15,16,17-tetradecahydro-1H-cyclopenta[a]phenanthrene-3,7-diol

> <PUBCHEM_IUPAC_NAME>
(3R,5S,7R,8R,9S,10S,13R,14S,17R)-17-[(2R)-7-hydroxy-6-methylheptan-2-yl]-10,13-dimethyl-2,3,4,5,6,7,8,9,11,12,14,15,16,17-tetradecahydro-1H-cyclopenta[a]phenanthrene-3,7-diol

> <PUBCHEM_IUPAC_SYSTEMATIC_NAME>
(3R,5S,7R,8R,9S,10S,13R,14S,17R)-10,13-dimethyl-17-[(2R)-6-methyl-7-oxidanyl-heptan-2-yl]-2,3,4,5,6,7,8,9,11,12,14,15,16,17-tetradecahydro-1H-cyclopenta[a]phenanthrene-3,7-diol

> <PUBCHEM_IUPAC_TRADITIONAL_NAME>
(3R,5S,7R,8R,9S,10S,13R,14S,17R)-17-[(1R)-6-hydroxy-1,5-dimethyl-hexyl]-10,13-dimethyl-2,3,4,5,6,7,8,9,11,12,14,15,16,17-tetradecahydro-1H-cyclopenta[a]phenanthrene-3,7-diol

> <PUBCHEM_IUPAC_INCHI>
InChI=1S/C27H48O3/c1-17(16-28)6-5-7-18(2)21-8-9-22-25-23(11-13-27(21,22)4)26(3)12-10-20(29)14-19(26)15-24(25)30/h17-25,28-30H,5-16H2,1-4H3/t17?,18-,19+,20-,21-,22+,23+,24-,25+,26+,27-/m1/s1

> <PUBCHEM_IUPAC_INCHIKEY>
OQIJRBFRXGIHMI-UGMUFZQESA-N

> <PUBCHEM_XLOGP3_AA>
6.6

> <PUBCHEM_EXACT_MASS>
420.360345

> <PUBCHEM_MOLECULAR_FORMULA>
C27H48O3

> <PUBCHEM_MOLECULAR_WEIGHT>
420.66822

> <PUBCHEM_OPENEYE_CAN_SMILES>
CC(CCCC(C)C1CCC2C1(CCC3C2C(CC4C3(CCC(C4)O)C)O)C)CO

> <PUBCHEM_OPENEYE_ISO_SMILES>
C[C@H](CCCC(C)CO)[C@H]1CC[C@@H]2[C@@]1(CC[C@H]3[C@H]2[C@@H](C[C@H]4[C@@]3(CC[C@H](C4)O)C)O)C

> <PUBCHEM_CACTVS_TPSA>
60.7

> <PUBCHEM_MONOISOTOPIC_WEIGHT>
420.360345

> <PUBCHEM_TOTAL_CHARGE>
0

> <PUBCHEM_HEAVY_ATOM_COUNT>
30

> <PUBCHEM_ATOM_DEF_STEREO_COUNT>
10

> <PUBCHEM_ATOM_UDEF_STEREO_COUNT>
1

> <PUBCHEM_BOND_DEF_STEREO_COUNT>
0

> <PUBCHEM_BOND_UDEF_STEREO_COUNT>
0

> <PUBCHEM_ISOTOPIC_ATOM_COUNT>
0

> <PUBCHEM_COMPONENT_COUNT>
1

> <PUBCHEM_CACTVS_TAUTO_COUNT>
1

> <PUBCHEM_COORDINATE_TYPE>
1
5
255

> <PUBCHEM_BONDANNOTATIONS>
14  1  6
10  35  5
19  25  6
23  2  6
28  72  3
4  31  6
5  18  5
6  32  5
7  33  6
8  21  5
9  34  6

$$$$

