441645
  -OEChem-07051212552D

114116  0     1  0  0  0  0  0999 V2000
    9.5549    2.8931    0.0000 O   0  0  0  0  0  0  0  0  0  0  0  0
   11.6240    2.2208    0.0000 O   0  0  0  0  0  0  0  0  0  0  0  0
    7.0517    3.8410    0.0000 O   0  0  0  0  0  0  0  0  0  0  0  0
   12.8051    0.4982    0.0000 O   0  0  0  0  0  0  0  0  0  0  0  0
    5.8927    2.5538    0.0000 O   0  0  0  0  0  0  0  0  0  0  0  0
   25.2828   -3.0470    0.0000 O   0  0  0  0  0  0  0  0  0  0  0  0
   24.1614   -4.4319    0.0000 O   0  0  0  0  0  0  0  0  0  0  0  0
   10.3639    3.4809    0.0000 C   0  0  1  0  0  0  0  0  0  0  0  0
   11.3150    3.1718    0.0000 C   0  0  1  0  0  0  0  0  0  0  0  0
   10.0549    4.4319    0.0000 C   0  0  0  0  0  0  0  0  0  0  0  0
   12.1240    3.7596    0.0000 C   0  0  0  0  0  0  0  0  0  0  0  0
    8.7459    3.4809    0.0000 C   0  0  2  0  0  0  0  0  0  0  0  0
   12.6240    2.2208    0.0000 C   0  0  2  0  0  0  0  0  0  0  0  0
    9.0549    4.4319    0.0000 C   0  0  0  0  0  0  0  0  0  0  0  0
   12.9330    3.1718    0.0000 C   0  0  0  0  0  0  0  0  0  0  0  0
    7.7948    3.1718    0.0000 C   0  0  2  0  0  0  0  0  0  0  0  0
   13.2118    1.4118    0.0000 C   0  0  1  0  0  0  0  0  0  0  0  0
    7.5869    2.1937    0.0000 C   0  0  0  0  0  0  0  0  0  0  0  0
   14.2063    1.5163    0.0000 C   0  0  0  0  0  0  0  0  0  0  0  0
    6.6359    1.8847    0.0000 C   0  0  0  0  0  0  0  0  0  0  0  0
   14.7941    0.7073    0.0000 C   0  0  0  0  0  0  0  0  0  0  0  0
    6.4280    0.9065    0.0000 C   0  0  0  0  0  0  0  0  0  0  0  0
   15.7886    0.8118    0.0000 C   0  0  0  0  0  0  0  0  0  0  0  0
    5.4769    0.5975    0.0000 C   0  0  0  0  0  0  0  0  0  0  0  0
   16.3764    0.0028    0.0000 C   0  0  0  0  0  0  0  0  0  0  0  0
    6.1006    3.5320    0.0000 C   0  0  0  0  0  0  0  0  0  0  0  0
   17.3709    0.1073    0.0000 C   0  0  0  0  0  0  0  0  0  0  0  0
    5.2690   -0.3806    0.0000 C   0  0  0  0  0  0  0  0  0  0  0  0
   17.9587   -0.7017    0.0000 C   0  0  0  0  0  0  0  0  0  0  0  0
    4.3179   -0.6896    0.0000 C   0  0  0  0  0  0  0  0  0  0  0  0
    5.3575    4.2011    0.0000 C   0  0  0  0  0  0  0  0  0  0  0  0
   18.9532   -0.5972    0.0000 C   0  0  0  0  0  0  0  0  0  0  0  0
    4.1100   -1.6678    0.0000 C   0  0  0  0  0  0  0  0  0  0  0  0
   19.5410   -1.4062    0.0000 C   0  0  0  0  0  0  0  0  0  0  0  0
    3.1590   -1.9768    0.0000 C   0  0  0  0  0  0  0  0  0  0  0  0
   20.5355   -1.3016    0.0000 C   0  0  0  0  0  0  0  0  0  0  0  0
   21.1233   -2.1107    0.0000 C   0  0  0  0  0  0  0  0  0  0  0  0
    2.9511   -2.9550    0.0000 C   0  0  0  0  0  0  0  0  0  0  0  0
   22.1178   -2.0061    0.0000 C   0  0  0  0  0  0  0  0  0  0  0  0
   22.7056   -2.8152    0.0000 C   0  0  0  0  0  0  0  0  0  0  0  0
    2.0000   -3.2640    0.0000 C   0  0  0  0  0  0  0  0  0  0  0  0
   23.7002   -2.7106    0.0000 C   0  0  0  0  0  0  0  0  0  0  0  0
   24.2002   -1.8446    0.0000 C   0  0  0  0  0  0  0  0  0  0  0  0
   25.1783   -2.0525    0.0000 C   0  0  2  0  0  0  0  0  0  0  0  0
   24.3693   -3.4538    0.0000 C   0  0  0  0  0  0  0  0  0  0  0  0
   25.9214   -1.3834    0.0000 C   0  0  0  0  0  0  0  0  0  0  0  0
   10.4969    2.6413    0.0000 H   0  0  0  0  0  0  0  0  0  0  0  0
   11.1820    4.0114    0.0000 H   0  0  0  0  0  0  0  0  0  0  0  0
   10.6614    4.5608    0.0000 H   0  0  0  0  0  0  0  0  0  0  0  0
    9.9901    5.0485    0.0000 H   0  0  0  0  0  0  0  0  0  0  0  0
   12.5389    4.2204    0.0000 H   0  0  0  0  0  0  0  0  0  0  0  0
   11.7091    4.2204    0.0000 H   0  0  0  0  0  0  0  0  0  0  0  0
    8.6129    2.6413    0.0000 H   0  0  0  0  0  0  0  0  0  0  0  0
   12.2381    1.4634    0.0000 H   0  0  0  0  0  0  0  0  0  0  0  0
    9.1197    5.0485    0.0000 H   0  0  0  0  0  0  0  0  0  0  0  0
    8.4485    4.5608    0.0000 H   0  0  0  0  0  0  0  0  0  0  0  0
   13.4994    2.9197    0.0000 H   0  0  0  0  0  0  0  0  0  0  0  0
   13.2430    3.7088    0.0000 H   0  0  0  0  0  0  0  0  0  0  0  0
    7.2052    2.9803    0.0000 H   0  0  0  0  0  0  0  0  0  0  0  0
   12.5952    1.3470    0.0000 H   0  0  0  0  0  0  0  0  0  0  0  0
    7.6732    1.5797    0.0000 H   0  0  0  0  0  0  0  0  0  0  0  0
    8.2066    2.1721    0.0000 H   0  0  0  0  0  0  0  0  0  0  0  0
   14.7636    1.7881    0.0000 H   0  0  0  0  0  0  0  0  0  0  0  0
   14.0354    2.1123    0.0000 H   0  0  0  0  0  0  0  0  0  0  0  0
    6.5496    2.4986    0.0000 H   0  0  0  0  0  0  0  0  0  0  0  0
    6.0162    1.9063    0.0000 H   0  0  0  0  0  0  0  0  0  0  0  0
   14.2368    0.4355    0.0000 H   0  0  0  0  0  0  0  0  0  0  0  0
   14.9650    0.1113    0.0000 H   0  0  0  0  0  0  0  0  0  0  0  0
   13.1695   -0.0034    0.0000 H   0  0  0  0  0  0  0  0  0  0  0  0
    6.5142    0.2926    0.0000 H   0  0  0  0  0  0  0  0  0  0  0  0
    7.0476    0.8849    0.0000 H   0  0  0  0  0  0  0  0  0  0  0  0
   16.3459    1.0836    0.0000 H   0  0  0  0  0  0  0  0  0  0  0  0
   15.6177    1.4078    0.0000 H   0  0  0  0  0  0  0  0  0  0  0  0
    5.3906    1.2115    0.0000 H   0  0  0  0  0  0  0  0  0  0  0  0
    4.8573    0.6192    0.0000 H   0  0  0  0  0  0  0  0  0  0  0  0
   15.8192   -0.2690    0.0000 H   0  0  0  0  0  0  0  0  0  0  0  0
   16.5473   -0.5932    0.0000 H   0  0  0  0  0  0  0  0  0  0  0  0
   17.9282    0.3791    0.0000 H   0  0  0  0  0  0  0  0  0  0  0  0
   17.2000    0.7033    0.0000 H   0  0  0  0  0  0  0  0  0  0  0  0
    5.3553   -0.9946    0.0000 H   0  0  0  0  0  0  0  0  0  0  0  0
    5.8886   -0.4023    0.0000 H   0  0  0  0  0  0  0  0  0  0  0  0
   17.4015   -0.9735    0.0000 H   0  0  0  0  0  0  0  0  0  0  0  0
   18.1296   -1.2977    0.0000 H   0  0  0  0  0  0  0  0  0  0  0  0
    4.2316   -0.0757    0.0000 H   0  0  0  0  0  0  0  0  0  0  0  0
    3.6983   -0.6680    0.0000 H   0  0  0  0  0  0  0  0  0  0  0  0
    5.7724    4.6618    0.0000 H   0  0  0  0  0  0  0  0  0  0  0  0
    4.8968    4.6160    0.0000 H   0  0  0  0  0  0  0  0  0  0  0  0
    4.9426    3.7403    0.0000 H   0  0  0  0  0  0  0  0  0  0  0  0
   19.5105   -0.3254    0.0000 H   0  0  0  0  0  0  0  0  0  0  0  0
   18.7823   -0.0012    0.0000 H   0  0  0  0  0  0  0  0  0  0  0  0
    4.1963   -2.2818    0.0000 H   0  0  0  0  0  0  0  0  0  0  0  0
    4.7296   -1.6894    0.0000 H   0  0  0  0  0  0  0  0  0  0  0  0
   18.9838   -1.6780    0.0000 H   0  0  0  0  0  0  0  0  0  0  0  0
   19.7119   -2.0022    0.0000 H   0  0  0  0  0  0  0  0  0  0  0  0
   21.0928   -1.0299    0.0000 H   0  0  0  0  0  0  0  0  0  0  0  0
   20.3646   -0.7057    0.0000 H   0  0  0  0  0  0  0  0  0  0  0  0
    3.0727   -1.3628    0.0000 H   0  0  0  0  0  0  0  0  0  0  0  0
    2.5394   -1.9552    0.0000 H   0  0  0  0  0  0  0  0  0  0  0  0
   20.5661   -2.3825    0.0000 H   0  0  0  0  0  0  0  0  0  0  0  0
   21.2942   -2.7066    0.0000 H   0  0  0  0  0  0  0  0  0  0  0  0
    3.0373   -3.5689    0.0000 H   0  0  0  0  0  0  0  0  0  0  0  0
    3.5707   -2.9766    0.0000 H   0  0  0  0  0  0  0  0  0  0  0  0
   22.6751   -1.7344    0.0000 H   0  0  0  0  0  0  0  0  0  0  0  0
   21.9470   -1.4102    0.0000 H   0  0  0  0  0  0  0  0  0  0  0  0
   22.1484   -3.0870    0.0000 H   0  0  0  0  0  0  0  0  0  0  0  0
   22.8765   -3.4111    0.0000 H   0  0  0  0  0  0  0  0  0  0  0  0
    1.8084   -2.6743    0.0000 H   0  0  0  0  0  0  0  0  0  0  0  0
    1.4103   -3.4556    0.0000 H   0  0  0  0  0  0  0  0  0  0  0  0
    2.1916   -3.8536    0.0000 H   0  0  0  0  0  0  0  0  0  0  0  0
   23.9480   -1.2782    0.0000 H   0  0  0  0  0  0  0  0  0  0  0  0
   25.7571   -2.2747    0.0000 H   0  0  0  0  0  0  0  0  0  0  0  0
   26.3363   -1.8441    0.0000 H   0  0  0  0  0  0  0  0  0  0  0  0
   26.3822   -0.9685    0.0000 H   0  0  0  0  0  0  0  0  0  0  0  0
   25.5066   -0.9226    0.0000 H   0  0  0  0  0  0  0  0  0  0  0  0
  1  8  1  0  0  0  0
  1 12  1  0  0  0  0
  2  9  1  0  0  0  0
  2 13  1  0  0  0  0
 16  3  1  6  0  0  0
  3 26  1  0  0  0  0
 17  4  1  1  0  0  0
  4 69  1  0  0  0  0
  5 26  2  0  0  0  0
  6 44  1  0  0  0  0
  6 45  1  0  0  0  0
  7 45  2  0  0  0  0
  8  9  1  0  0  0  0
  8 10  1  0  0  0  0
  8 47  1  1  0  0  0
  9 11  1  0  0  0  0
  9 48  1  6  0  0  0
 10 14  1  0  0  0  0
 10 49  1  0  0  0  0
 10 50  1  0  0  0  0
 11 15  1  0  0  0  0
 11 51  1  0  0  0  0
 11 52  1  0  0  0  0
 12 14  1  0  0  0  0
 12 16  1  0  0  0  0
 12 53  1  6  0  0  0
 13 15  1  0  0  0  0
 13 17  1  0  0  0  0
 13 54  1  1  0  0  0
 14 55  1  0  0  0  0
 14 56  1  0  0  0  0
 15 57  1  0  0  0  0
 15 58  1  0  0  0  0
 16 18  1  0  0  0  0
 16 59  1  0  0  0  0
 17 19  1  0  0  0  0
 17 60  1  0  0  0  0
 18 20  1  0  0  0  0
 18 61  1  0  0  0  0
 18 62  1  0  0  0  0
 19 21  1  0  0  0  0
 19 63  1  0  0  0  0
 19 64  1  0  0  0  0
 20 22  1  0  0  0  0
 20 65  1  0  0  0  0
 20 66  1  0  0  0  0
 21 23  1  0  0  0  0
 21 67  1  0  0  0  0
 21 68  1  0  0  0  0
 22 24  1  0  0  0  0
 22 70  1  0  0  0  0
 22 71  1  0  0  0  0
 23 25  1  0  0  0  0
 23 72  1  0  0  0  0
 23 73  1  0  0  0  0
 24 28  1  0  0  0  0
 24 74  1  0  0  0  0
 24 75  1  0  0  0  0
 25 27  1  0  0  0  0
 25 76  1  0  0  0  0
 25 77  1  0  0  0  0
 26 31  1  0  0  0  0
 27 29  1  0  0  0  0
 27 78  1  0  0  0  0
 27 79  1  0  0  0  0
 28 30  1  0  0  0  0
 28 80  1  0  0  0  0
 28 81  1  0  0  0  0
 29 32  1  0  0  0  0
 29 82  1  0  0  0  0
 29 83  1  0  0  0  0
 30 33  1  0  0  0  0
 30 84  1  0  0  0  0
 30 85  1  0  0  0  0
 31 86  1  0  0  0  0
 31 87  1  0  0  0  0
 31 88  1  0  0  0  0
 32 34  1  0  0  0  0
 32 89  1  0  0  0  0
 32 90  1  0  0  0  0
 33 35  1  0  0  0  0
 33 91  1  0  0  0  0
 33 92  1  0  0  0  0
 34 36  1  0  0  0  0
 34 93  1  0  0  0  0
 34 94  1  0  0  0  0
 35 38  1  0  0  0  0
 35 97  1  0  0  0  0
 35 98  1  0  0  0  0
 36 37  1  0  0  0  0
 36 95  1  0  0  0  0
 36 96  1  0  0  0  0
 37 39  1  0  0  0  0
 37 99  1  0  0  0  0
 37100  1  0  0  0  0
 38 41  1  0  0  0  0
 38101  1  0  0  0  0
 38102  1  0  0  0  0
 39 40  1  0  0  0  0
 39103  1  0  0  0  0
 39104  1  0  0  0  0
 40 42  1  0  0  0  0
 40105  1  0  0  0  0
 40106  1  0  0  0  0
 41107  1  0  0  0  0
 41108  1  0  0  0  0
 41109  1  0  0  0  0
 42 43  2  0  0  0  0
 42 45  1  0  0  0  0
 43 44  1  0  0  0  0
 43110  1  0  0  0  0
 44 46  1  6  0  0  0
 44111  1  0  0  0  0
 46112  1  0  0  0  0
 46113  1  0  0  0  0
 46114  1  0  0  0  0
M  END
> <PUBCHEM_COMPOUND_CID>
441645

> <PUBCHEM_COMPOUND_CANONICALIZED>
1

> <PUBCHEM_CACTVS_COMPLEXITY>
872

> <PUBCHEM_CACTVS_HBOND_ACCEPTOR>
7

> <PUBCHEM_CACTVS_HBOND_DONOR>
1

> <PUBCHEM_CACTVS_ROTATABLE_BOND>
27

> <PUBCHEM_CACTVS_SUBSKEYS>
AAADcfB8OAAAAAAAAAAAAAAAAAAAASJEAAAAAAAAAAAAAAAAAAAAGgAACAAADBSggAICCAAABgCIAiDSCAAAAAAgAAAACAEAAEgBFBIAIQACUAAEgAALIYOI6KyAAAAAAAAAAAAAAAAAAAAAAAAAAAAAAA==

> <PUBCHEM_IUPAC_OPENEYE_NAME>
[(1S)-1-[(2R,5R)-5-[(2R,5R)-5-[(1R)-1-hydroxy-13-[(2S)-2-methyl-5-oxo-2H-furan-4-yl]tridecyl]tetrahydrofuran-2-yl]tetrahydrofuran-2-yl]undecyl] acetate

> <PUBCHEM_IUPAC_CAS_NAME>
acetic acid [(1S)-1-[(2R,5R)-5-[(2R,5R)-5-[(1R)-1-hydroxy-13-[(2S)-2-methyl-5-oxo-2H-furan-4-yl]tridecyl]-2-oxolanyl]-2-oxolanyl]undecyl] ester

> <PUBCHEM_IUPAC_NAME>
[(1S)-1-[(2R,5R)-5-[(2R,5R)-5-[(1R)-1-hydroxy-13-[(2S)-2-methyl-5-oxo-2H-furan-4-yl]tridecyl]oxolan-2-yl]oxolan-2-yl]undecyl] acetate

> <PUBCHEM_IUPAC_SYSTEMATIC_NAME>
[(1S)-1-[(2R,5R)-5-[(2R,5R)-5-[(1R)-13-[(2S)-2-methyl-5-oxidanylidene-2H-furan-4-yl]-1-oxidanyl-tridecyl]oxolan-2-yl]oxolan-2-yl]undecyl] ethanoate

> <PUBCHEM_IUPAC_TRADITIONAL_NAME>
acetic acid [(1S)-1-[(2R,5R)-5-[(2R,5R)-5-[(1R)-1-hydroxy-13-[(2S)-5-keto-2-methyl-2H-furan-4-yl]tridecyl]tetrahydrofuran-2-yl]tetrahydrofuran-2-yl]undecyl] ester

> <PUBCHEM_IUPAC_INCHI>
InChI=1S/C39H68O7/c1-4-5-6-7-8-15-18-21-24-35(44-31(3)40)36-27-28-38(46-36)37-26-25-34(45-37)33(41)23-20-17-14-12-10-9-11-13-16-19-22-32-29-30(2)43-39(32)42/h29-30,33-38,41H,4-28H2,1-3H3/t30-,33+,34+,35-,36+,37+,38+/m0/s1

> <PUBCHEM_IUPAC_INCHIKEY>
JQOYPOSGHDJFLI-AVNCTIOFSA-N

> <PUBCHEM_XLOGP3_AA>
11.8

> <PUBCHEM_EXACT_MASS>
648.496505

> <PUBCHEM_MOLECULAR_FORMULA>
C39H68O7

> <PUBCHEM_MOLECULAR_WEIGHT>
648.95302

> <PUBCHEM_OPENEYE_CAN_SMILES>
CCCCCCCCCCC(C1CCC(O1)C2CCC(O2)C(CCCCCCCCCCCCC3=CC(OC3=O)C)O)OC(=O)C

> <PUBCHEM_OPENEYE_ISO_SMILES>
CCCCCCCCCC[C@@H]([C@H]1CC[C@@H](O1)[C@H]2CC[C@@H](O2)[C@@H](CCCCCCCCCCCCC3=C[C@@H](OC3=O)C)O)OC(=O)C

> <PUBCHEM_CACTVS_TPSA>
91.3

> <PUBCHEM_MONOISOTOPIC_WEIGHT>
648.496505

> <PUBCHEM_TOTAL_CHARGE>
0

> <PUBCHEM_HEAVY_ATOM_COUNT>
46

> <PUBCHEM_ATOM_DEF_STEREO_COUNT>
7

> <PUBCHEM_ATOM_UDEF_STEREO_COUNT>
0

> <PUBCHEM_BOND_DEF_STEREO_COUNT>
0

> <PUBCHEM_BOND_UDEF_STEREO_COUNT>
0

> <PUBCHEM_ISOTOPIC_ATOM_COUNT>
0

> <PUBCHEM_COMPONENT_COUNT>
1

> <PUBCHEM_CACTVS_TAUTO_COUNT>
1

> <PUBCHEM_COORDINATE_TYPE>
1
5
255

> <PUBCHEM_BONDANNOTATIONS>
12  53  6
13  54  5
16  3  6
17  4  5
44  46  6
8  47  5
9  48  6

$$$$

