27423
  -OEChem-07051213052D

 41 40  0     0  0  0  0  0  0999 V2000
    6.3301    0.4330    0.0000 O   0  0  0  0  0  0  0  0  0  0  0  0
    4.5981   -1.2990    0.0000 O   0  0  0  0  0  0  0  0  0  0  0  0
    8.0622   -1.2990    0.0000 O   0  0  0  0  0  0  0  0  0  0  0  0
    4.8301    1.2990    0.0000 O   0  0  0  0  0  0  0  0  0  0  0  0
    3.7320   -2.7990    0.0000 O   0  0  0  0  0  0  0  0  0  0  0  0
    8.9282    0.2010    0.0000 O   0  0  0  0  0  0  0  0  0  0  0  0
    6.3301   -1.2990    0.0000 C   0  0  0  0  0  0  0  0  0  0  0  0
    6.8301   -2.1651    0.0000 C   0  0  0  0  0  0  0  0  0  0  0  0
    7.1962   -0.7990    0.0000 C   0  0  0  0  0  0  0  0  0  0  0  0
    5.4641   -1.7990    0.0000 C   0  0  0  0  0  0  0  0  0  0  0  0
    5.8301   -0.4330    0.0000 C   0  0  0  0  0  0  0  0  0  0  0  0
    6.3301   -3.0311    0.0000 C   0  0  0  0  0  0  0  0  0  0  0  0
    5.8301    1.2990    0.0000 C   0  0  0  0  0  0  0  0  0  0  0  0
    3.7320   -1.7990    0.0000 C   0  0  0  0  0  0  0  0  0  0  0  0
    8.9282   -0.7990    0.0000 C   0  0  0  0  0  0  0  0  0  0  0  0
    9.7942   -1.2990    0.0000 C   0  0  0  0  0  0  0  0  0  0  0  0
    2.8660   -1.2990    0.0000 C   0  0  0  0  0  0  0  0  0  0  0  0
    6.3301    2.1651    0.0000 C   0  0  0  0  0  0  0  0  0  0  0  0
    2.0000   -1.7990    0.0000 C   0  0  0  0  0  0  0  0  0  0  0  0
   10.6603   -0.7990    0.0000 C   0  0  0  0  0  0  0  0  0  0  0  0
    5.8301    3.0311    0.0000 C   0  0  0  0  0  0  0  0  0  0  0  0
    7.3051   -2.5636    0.0000 H   0  0  0  0  0  0  0  0  0  0  0  0
    7.3051   -1.7665    0.0000 H   0  0  0  0  0  0  0  0  0  0  0  0
    5.3552   -0.0345    0.0000 H   0  0  0  0  0  0  0  0  0  0  0  0
    5.3552   -0.8315    0.0000 H   0  0  0  0  0  0  0  0  0  0  0  0
    5.0656   -2.2740    0.0000 H   0  0  0  0  0  0  0  0  0  0  0  0
    5.8626   -2.2740    0.0000 H   0  0  0  0  0  0  0  0  0  0  0  0
    7.5947   -0.3241    0.0000 H   0  0  0  0  0  0  0  0  0  0  0  0
    6.7976   -0.3241    0.0000 H   0  0  0  0  0  0  0  0  0  0  0  0
    5.7932   -2.7211    0.0000 H   0  0  0  0  0  0  0  0  0  0  0  0
    6.0201   -3.5680    0.0000 H   0  0  0  0  0  0  0  0  0  0  0  0
    6.8671   -3.3411    0.0000 H   0  0  0  0  0  0  0  0  0  0  0  0
    9.7942   -1.9190    0.0000 H   0  0  0  0  0  0  0  0  0  0  0  0
    2.8660   -0.6790    0.0000 H   0  0  0  0  0  0  0  0  0  0  0  0
    6.9501    2.1651    0.0000 H   0  0  0  0  0  0  0  0  0  0  0  0
    6.1401    3.5680    0.0000 H   0  0  0  0  0  0  0  0  0  0  0  0
    5.2101    3.0311    0.0000 H   0  0  0  0  0  0  0  0  0  0  0  0
   11.1972   -1.1090    0.0000 H   0  0  0  0  0  0  0  0  0  0  0  0
   10.6603   -0.1790    0.0000 H   0  0  0  0  0  0  0  0  0  0  0  0
    1.4631   -1.4890    0.0000 H   0  0  0  0  0  0  0  0  0  0  0  0
    2.0000   -2.4190    0.0000 H   0  0  0  0  0  0  0  0  0  0  0  0
  1 11  1  0  0  0  0
  1 13  1  0  0  0  0
  2 10  1  0  0  0  0
  2 14  1  0  0  0  0
  3  9  1  0  0  0  0
  3 15  1  0  0  0  0
  4 13  2  0  0  0  0
  5 14  2  0  0  0  0
  6 15  2  0  0  0  0
  7  8  1  0  0  0  0
  7  9  1  0  0  0  0
  7 10  1  0  0  0  0
  7 11  1  0  0  0  0
  8 12  1  0  0  0  0
  8 22  1  0  0  0  0
  8 23  1  0  0  0  0
  9 28  1  0  0  0  0
  9 29  1  0  0  0  0
 10 26  1  0  0  0  0
 10 27  1  0  0  0  0
 11 24  1  0  0  0  0
 11 25  1  0  0  0  0
 12 30  1  0  0  0  0
 12 31  1  0  0  0  0
 12 32  1  0  0  0  0
 13 18  1  0  0  0  0
 14 17  1  0  0  0  0
 15 16  1  0  0  0  0
 16 20  2  0  0  0  0
 16 33  1  0  0  0  0
 17 19  2  0  0  0  0
 17 34  1  0  0  0  0
 18 21  2  0  0  0  0
 18 35  1  0  0  0  0
 19 40  1  0  0  0  0
 19 41  1  0  0  0  0
 20 38  1  0  0  0  0
 20 39  1  0  0  0  0
 21 36  1  0  0  0  0
 21 37  1  0  0  0  0
M  END
> <PUBCHEM_COMPOUND_CID>
27423

> <PUBCHEM_COMPOUND_CANONICALIZED>
1

> <PUBCHEM_CACTVS_COMPLEXITY>
364

> <PUBCHEM_CACTVS_HBOND_ACCEPTOR>
6

> <PUBCHEM_CACTVS_HBOND_DONOR>
0

> <PUBCHEM_CACTVS_ROTATABLE_BOND>
13

> <PUBCHEM_CACTVS_SUBSKEYS>
AAADceBwOAAAAAAAAAAAAAAAAAAAAAAAAAAAAAAAAAAAAAAAAAAAGgAAAAAADgCggAICCAAABACIACDSCAAAAAAAAAAIAAAAAEAABAAAIAACAAAFAAAAIIAAAAAJAAAAAAAAAAAAAAAAAAAAAAAAAAAAAA==

> <PUBCHEM_IUPAC_OPENEYE_NAME>
2,2-bis(prop-2-enoyloxymethyl)butyl prop-2-enoate

> <PUBCHEM_IUPAC_CAS_NAME>
2-propenoic acid 2,2-bis(1-oxoprop-2-enoxymethyl)butyl ester

> <PUBCHEM_IUPAC_NAME>
2,2-bis(prop-2-enoyloxymethyl)butyl prop-2-enoate

> <PUBCHEM_IUPAC_SYSTEMATIC_NAME>
2,2-bis(prop-2-enoyloxymethyl)butyl prop-2-enoate

> <PUBCHEM_IUPAC_TRADITIONAL_NAME>
acrylic acid 2,2-bis(acryloyloxymethyl)butyl ester

> <PUBCHEM_IUPAC_INCHI>
InChI=1S/C15H20O6/c1-5-12(16)19-9-15(8-4,10-20-13(17)6-2)11-21-14(18)7-3/h5-7H,1-3,8-11H2,4H3

> <PUBCHEM_IUPAC_INCHIKEY>
DAKWPKUUDNSNPN-UHFFFAOYSA-N

> <PUBCHEM_XLOGP3_AA>
2.7

> <PUBCHEM_EXACT_MASS>
296.125988

> <PUBCHEM_MOLECULAR_FORMULA>
C15H20O6

> <PUBCHEM_MOLECULAR_WEIGHT>
296.3157

> <PUBCHEM_OPENEYE_CAN_SMILES>
CCC(COC(=O)C=C)(COC(=O)C=C)COC(=O)C=C

> <PUBCHEM_OPENEYE_ISO_SMILES>
CCC(COC(=O)C=C)(COC(=O)C=C)COC(=O)C=C

> <PUBCHEM_CACTVS_TPSA>
78.9

> <PUBCHEM_MONOISOTOPIC_WEIGHT>
296.125988

> <PUBCHEM_TOTAL_CHARGE>
0

> <PUBCHEM_HEAVY_ATOM_COUNT>
21

> <PUBCHEM_ATOM_DEF_STEREO_COUNT>
0

> <PUBCHEM_ATOM_UDEF_STEREO_COUNT>
0

> <PUBCHEM_BOND_DEF_STEREO_COUNT>
0

> <PUBCHEM_BOND_UDEF_STEREO_COUNT>
0

> <PUBCHEM_ISOTOPIC_ATOM_COUNT>
0

> <PUBCHEM_COMPONENT_COUNT>
1

> <PUBCHEM_CACTVS_TAUTO_COUNT>
1

> <PUBCHEM_COORDINATE_TYPE>
1
5
255

$$$$

