5280729
  -OEChem-07051212492D

 51 51  0     1  0  0  0  0  0999 V2000
   12.7577   -0.7756    0.0000 O   0  0  0  0  0  0  0  0  0  0  0  0
    2.4608   -2.2160    0.0000 O   0  0  0  0  0  0  0  0  0  0  0  0
    3.6197   -3.5032    0.0000 O   0  0  0  0  0  0  0  0  0  0  0  0
   10.1886   -1.0846    0.0000 C   0  0  2  0  0  0  0  0  0  0  0  0
   10.9976   -0.4968    0.0000 C   0  0  1  0  0  0  0  0  0  0  0  0
   10.4976   -2.0356    0.0000 C   0  0  0  0  0  0  0  0  0  0  0  0
    9.2376   -0.7756    0.0000 C   0  0  0  0  0  0  0  0  0  0  0  0
   11.4976   -2.0356    0.0000 C   0  0  0  0  0  0  0  0  0  0  0  0
   11.8066   -1.0846    0.0000 C   0  0  0  0  0  0  0  0  0  0  0  0
   10.9976    0.5032    0.0000 C   0  0  0  0  0  0  0  0  0  0  0  0
    8.4944   -1.4447    0.0000 C   0  0  0  0  0  0  0  0  0  0  0  0
    7.5434   -1.1357    0.0000 C   0  0  0  0  0  0  0  0  0  0  0  0
    6.8002   -1.8048    0.0000 C   0  0  0  0  0  0  0  0  0  0  0  0
   11.8637    1.0032    0.0000 C   0  0  0  0  0  0  0  0  0  0  0  0
    5.8492   -1.4958    0.0000 C   0  0  0  0  0  0  0  0  0  0  0  0
    5.1060   -2.1649    0.0000 C   0  0  0  0  0  0  0  0  0  0  0  0
   11.8637    2.0032    0.0000 C   0  0  0  0  0  0  0  0  0  0  0  0
   10.9976    2.5032    0.0000 C   0  0  0  0  0  0  0  0  0  0  0  0
    4.1550   -1.8559    0.0000 C   0  0  0  0  0  0  0  0  0  0  0  0
   10.9976    3.5032    0.0000 C   0  0  0  0  0  0  0  0  0  0  0  0
    3.4118   -2.5250    0.0000 C   0  0  0  0  0  0  0  0  0  0  0  0
   10.0916   -0.4722    0.0000 H   0  0  0  0  0  0  0  0  0  0  0  0
   10.4452   -0.2153    0.0000 H   0  0  0  0  0  0  0  0  0  0  0  0
    9.8912   -2.1646    0.0000 H   0  0  0  0  0  0  0  0  0  0  0  0
   10.5624   -2.6522    0.0000 H   0  0  0  0  0  0  0  0  0  0  0  0
    9.5286   -0.2281    0.0000 H   0  0  0  0  0  0  0  0  0  0  0  0
    8.7490   -0.3939    0.0000 H   0  0  0  0  0  0  0  0  0  0  0  0
   11.4328   -2.6522    0.0000 H   0  0  0  0  0  0  0  0  0  0  0  0
   12.1041   -2.1646    0.0000 H   0  0  0  0  0  0  0  0  0  0  0  0
   10.7856    1.0858    0.0000 H   0  0  0  0  0  0  0  0  0  0  0  0
   10.3870    0.3955    0.0000 H   0  0  0  0  0  0  0  0  0  0  0  0
    8.2033   -1.9921    0.0000 H   0  0  0  0  0  0  0  0  0  0  0  0
    8.9830   -1.8264    0.0000 H   0  0  0  0  0  0  0  0  0  0  0  0
    7.8344   -0.5883    0.0000 H   0  0  0  0  0  0  0  0  0  0  0  0
    7.0548   -0.7540    0.0000 H   0  0  0  0  0  0  0  0  0  0  0  0
    6.5091   -2.3522    0.0000 H   0  0  0  0  0  0  0  0  0  0  0  0
    7.2888   -2.1865    0.0000 H   0  0  0  0  0  0  0  0  0  0  0  0
   12.4006    0.6932    0.0000 H   0  0  0  0  0  0  0  0  0  0  0  0
    6.1402   -0.9484    0.0000 H   0  0  0  0  0  0  0  0  0  0  0  0
    5.3606   -1.1141    0.0000 H   0  0  0  0  0  0  0  0  0  0  0  0
    4.8149   -2.7124    0.0000 H   0  0  0  0  0  0  0  0  0  0  0  0
    5.5946   -2.5466    0.0000 H   0  0  0  0  0  0  0  0  0  0  0  0
   12.4006    2.3132    0.0000 H   0  0  0  0  0  0  0  0  0  0  0  0
    4.4460   -1.3085    0.0000 H   0  0  0  0  0  0  0  0  0  0  0  0
    3.6664   -1.4742    0.0000 H   0  0  0  0  0  0  0  0  0  0  0  0
   10.3870    2.6109    0.0000 H   0  0  0  0  0  0  0  0  0  0  0  0
   10.7856    1.9206    0.0000 H   0  0  0  0  0  0  0  0  0  0  0  0
   11.6176    3.5032    0.0000 H   0  0  0  0  0  0  0  0  0  0  0  0
   10.9976    4.1232    0.0000 H   0  0  0  0  0  0  0  0  0  0  0  0
   10.3776    3.5032    0.0000 H   0  0  0  0  0  0  0  0  0  0  0  0
    2.0000   -2.6309    0.0000 H   0  0  0  0  0  0  0  0  0  0  0  0
  1  9  2  0  0  0  0
  2 21  1  0  0  0  0
  2 51  1  0  0  0  0
  3 21  2  0  0  0  0
  4  5  1  0  0  0  0
  4  6  1  0  0  0  0
  4  7  1  6  0  0  0
  4 22  1  0  0  0  0
  5  9  1  0  0  0  0
  5 10  1  6  0  0  0
  5 23  1  0  0  0  0
  6  8  1  0  0  0  0
  6 24  1  0  0  0  0
  6 25  1  0  0  0  0
  7 11  1  0  0  0  0
  7 26  1  0  0  0  0
  7 27  1  0  0  0  0
  8  9  1  0  0  0  0
  8 28  1  0  0  0  0
  8 29  1  0  0  0  0
 10 14  1  0  0  0  0
 10 30  1  0  0  0  0
 10 31  1  0  0  0  0
 11 12  1  0  0  0  0
 11 32  1  0  0  0  0
 11 33  1  0  0  0  0
 12 13  1  0  0  0  0
 12 34  1  0  0  0  0
 12 35  1  0  0  0  0
 13 15  1  0  0  0  0
 13 36  1  0  0  0  0
 13 37  1  0  0  0  0
 14 17  2  0  0  0  0
 14 38  1  0  0  0  0
 15 16  1  0  0  0  0
 15 39  1  0  0  0  0
 15 40  1  0  0  0  0
 16 19  1  0  0  0  0
 16 41  1  0  0  0  0
 16 42  1  0  0  0  0
 17 18  1  0  0  0  0
 17 43  1  0  0  0  0
 18 20  1  0  0  0  0
 18 46  1  0  0  0  0
 18 47  1  0  0  0  0
 19 21  1  0  0  0  0
 19 44  1  0  0  0  0
 19 45  1  0  0  0  0
 20 48  1  0  0  0  0
 20 49  1  0  0  0  0
 20 50  1  0  0  0  0
M  END
> <PUBCHEM_COMPOUND_CID>
5280729

> <PUBCHEM_COMPOUND_CANONICALIZED>
1

> <PUBCHEM_CACTVS_COMPLEXITY>
346

> <PUBCHEM_CACTVS_HBOND_ACCEPTOR>
3

> <PUBCHEM_CACTVS_HBOND_DONOR>
1

> <PUBCHEM_CACTVS_ROTATABLE_BOND>
11

> <PUBCHEM_CACTVS_SUBSKEYS>
AAADceB4MAAAAAAAAAAAAAAAAAAAAYAAAAAAAAAAAAAAAAAAAAAAGgAACAAADQSAgAACCAAAAgCIAKDSCAAAAAAgAAAICAEAAAgAABIAAQAAQAAEgAAIAAOIyOCOgAAAAAAAAAAAAAAAAAAAAAAACAAAAA==

> <PUBCHEM_IUPAC_OPENEYE_NAME>
8-[(1S,2S)-3-oxo-2-[(Z)-pent-2-enyl]cyclopentyl]octanoic acid

> <PUBCHEM_IUPAC_CAS_NAME>
8-[(1S,2S)-3-oxo-2-[(Z)-pent-2-enyl]cyclopentyl]octanoic acid

> <PUBCHEM_IUPAC_NAME>
8-[(1S,2S)-3-oxo-2-[(Z)-pent-2-enyl]cyclopentyl]octanoic acid

> <PUBCHEM_IUPAC_SYSTEMATIC_NAME>
8-[(1S,2S)-3-oxidanylidene-2-[(Z)-pent-2-enyl]cyclopentyl]octanoic acid

> <PUBCHEM_IUPAC_TRADITIONAL_NAME>
8-[(1S,2S)-3-keto-2-[(Z)-pent-2-enyl]cyclopentyl]caprylic acid

> <PUBCHEM_IUPAC_INCHI>
InChI=1S/C18H30O3/c1-2-3-7-11-16-15(13-14-17(16)19)10-8-5-4-6-9-12-18(20)21/h3,7,15-16H,2,4-6,8-14H2,1H3,(H,20,21)/b7-3-/t15-,16-/m0/s1

> <PUBCHEM_IUPAC_INCHIKEY>
BZXZFDKIRZBJEP-JMTMCXQRSA-N

> <PUBCHEM_XLOGP3_AA>
4.7

> <PUBCHEM_EXACT_MASS>
294.219495

> <PUBCHEM_MOLECULAR_FORMULA>
C18H30O3

> <PUBCHEM_MOLECULAR_WEIGHT>
294.429

> <PUBCHEM_OPENEYE_CAN_SMILES>
CCC=CCC1C(CCC1=O)CCCCCCCC(=O)O

> <PUBCHEM_OPENEYE_ISO_SMILES>
CC/C=C\C[C@H]1[C@H](CCC1=O)CCCCCCCC(=O)O

> <PUBCHEM_CACTVS_TPSA>
54.4

> <PUBCHEM_MONOISOTOPIC_WEIGHT>
294.219495

> <PUBCHEM_TOTAL_CHARGE>
0

> <PUBCHEM_HEAVY_ATOM_COUNT>
21

> <PUBCHEM_ATOM_DEF_STEREO_COUNT>
2

> <PUBCHEM_ATOM_UDEF_STEREO_COUNT>
0

> <PUBCHEM_BOND_DEF_STEREO_COUNT>
1

> <PUBCHEM_BOND_UDEF_STEREO_COUNT>
0

> <PUBCHEM_ISOTOPIC_ATOM_COUNT>
0

> <PUBCHEM_COMPONENT_COUNT>
1

> <PUBCHEM_CACTVS_TAUTO_COUNT>
3

> <PUBCHEM_COORDINATE_TYPE>
1
5
255

> <PUBCHEM_BONDANNOTATIONS>
4  7  6
5  10  6

$$$$

