5282236
  -OEChem-07051213032D

 92 95  0     1  0  0  0  0  0999 V2000
    8.0319    1.8625    0.0000 O   0  0  0  0  0  0  0  0  0  0  0  0
    4.7950    1.1062    0.0000 O   0  0  0  0  0  0  0  0  0  0  0  0
    9.0465    2.4920    0.0000 O   0  0  0  0  0  0  0  0  0  0  0  0
   10.8722    1.6754    0.0000 O   0  0  0  0  0  0  0  0  0  0  0  0
    2.0000   -2.4462    0.0000 O   0  0  0  0  0  0  0  0  0  0  0  0
   11.8879    0.2723    0.0000 O   0  0  0  0  0  0  0  0  0  0  0  0
    7.3931    0.6062    0.0000 C   0  0  1  0  0  0  0  0  0  0  0  0
    7.3931   -0.3938    0.0000 C   0  0  2  0  0  0  0  0  0  0  0  0
    6.5271   -0.8938    0.0000 C   0  0  1  0  0  0  0  0  0  0  0  0
    5.6610   -0.3938    0.0000 C   0  0  2  0  0  0  0  0  0  0  0  0
    8.3393    0.9109    0.0000 C   0  0  1  0  0  0  0  0  0  0  0  0
    6.5271    1.1062    0.0000 C   0  0  0  0  0  0  0  0  0  0  0  0
    8.3393   -0.6986    0.0000 C   0  0  0  0  0  0  0  0  0  0  0  0
    5.6610    0.6062    0.0000 C   0  0  2  0  0  0  0  0  0  0  0  0
    4.7510   -0.9007    0.0000 C   0  0  1  0  0  0  0  0  0  0  0  0
    8.9229    0.1062    0.0000 C   0  0  0  0  0  0  0  0  0  0  0  0
    6.5431   -1.9353    0.0000 C   0  0  0  0  0  0  0  0  0  0  0  0
    7.3931    1.6062    0.0000 C   0  0  0  0  0  0  0  0  0  0  0  0
    5.6451   -2.4631    0.0000 C   0  0  0  0  0  0  0  0  0  0  0  0
    4.7430   -1.9423    0.0000 C   0  0  0  0  0  0  0  0  0  0  0  0
    9.1493    1.4973    0.0000 C   0  0  0  0  0  0  0  0  0  0  0  0
    4.7587    0.0993    0.0000 C   0  0  0  0  0  0  0  0  0  0  0  0
    3.8242   -0.3366    0.0000 C   0  0  0  0  0  0  0  0  0  0  0  0
    3.8076   -2.4920    0.0000 C   0  0  0  0  0  0  0  0  0  0  0  0
   10.0622    1.0890    0.0000 C   0  0  0  0  0  0  0  0  0  0  0  0
    2.8763   -0.8645    0.0000 C   0  0  0  0  0  0  0  0  0  0  0  0
    2.8680   -1.9495    0.0000 C   0  0  0  0  0  0  0  0  0  0  0  0
   11.7851    1.2670    0.0000 C   0  0  0  0  0  0  0  0  0  0  0  0
   12.5951    1.8534    0.0000 C   0  0  0  0  0  0  0  0  0  0  0  0
   13.5079    1.4451    0.0000 C   0  0  0  0  0  0  0  0  0  0  0  0
   13.6107    0.4504    0.0000 C   0  0  0  0  0  0  0  0  0  0  0  0
   14.3180    2.0315    0.0000 C   0  0  0  0  0  0  0  0  0  0  0  0
   14.5236    0.0421    0.0000 C   0  0  0  0  0  0  0  0  0  0  0  0
   14.6264   -0.9526    0.0000 C   0  0  0  0  0  0  0  0  0  0  0  0
   15.5392   -1.3609    0.0000 C   0  0  0  0  0  0  0  0  0  0  0  0
   16.3493   -0.7745    0.0000 C   0  0  0  0  0  0  0  0  0  0  0  0
   15.6420   -2.3556    0.0000 C   0  0  0  0  0  0  0  0  0  0  0  0
   17.2621   -1.1829    0.0000 C   0  0  0  0  0  0  0  0  0  0  0  0
   18.0721   -0.5965    0.0000 C   0  0  0  0  0  0  0  0  0  0  0  0
   18.9850   -1.0048    0.0000 C   0  0  0  0  0  0  0  0  0  0  0  0
   19.7950   -0.4184    0.0000 C   0  0  0  0  0  0  0  0  0  0  0  0
   19.0878   -1.9995    0.0000 C   0  0  0  0  0  0  0  0  0  0  0  0
    7.4830   -1.2390    0.0000 H   0  0  0  0  0  0  0  0  0  0  0  0
    7.2664   -1.3131    0.0000 H   0  0  0  0  0  0  0  0  0  0  0  0
    6.3972    0.0312    0.0000 H   0  0  0  0  0  0  0  0  0  0  0  0
    6.9256    1.5811    0.0000 H   0  0  0  0  0  0  0  0  0  0  0  0
    6.1285    1.5811    0.0000 H   0  0  0  0  0  0  0  0  0  0  0  0
    8.0883   -1.2655    0.0000 H   0  0  0  0  0  0  0  0  0  0  0  0
    8.8767   -1.0078    0.0000 H   0  0  0  0  0  0  0  0  0  0  0  0
    5.6610    1.2262    0.0000 H   0  0  0  0  0  0  0  0  0  0  0  0
    9.3838   -0.3086    0.0000 H   0  0  0  0  0  0  0  0  0  0  0  0
    9.3838    0.5209    0.0000 H   0  0  0  0  0  0  0  0  0  0  0  0
    6.7612   -2.5157    0.0000 H   0  0  0  0  0  0  0  0  0  0  0  0
    7.1523   -1.8198    0.0000 H   0  0  0  0  0  0  0  0  0  0  0  0
    8.0131    1.6062    0.0000 H   0  0  0  0  0  0  0  0  0  0  0  0
    7.3931    2.2262    0.0000 H   0  0  0  0  0  0  0  0  0  0  0  0
    6.7731    1.6062    0.0000 H   0  0  0  0  0  0  0  0  0  0  0  0
    5.2478   -2.9390    0.0000 H   0  0  0  0  0  0  0  0  0  0  0  0
    6.0460   -2.9360    0.0000 H   0  0  0  0  0  0  0  0  0  0  0  0
    5.3787    0.0945    0.0000 H   0  0  0  0  0  0  0  0  0  0  0  0
    4.7635    0.7193    0.0000 H   0  0  0  0  0  0  0  0  0  0  0  0
    4.1388    0.1041    0.0000 H   0  0  0  0  0  0  0  0  0  0  0  0
    3.8361    0.2833    0.0000 H   0  0  0  0  0  0  0  0  0  0  0  0
    8.4476    2.3225    0.0000 H   0  0  0  0  0  0  0  0  0  0  0  0
    4.7950    1.7262    0.0000 H   0  0  0  0  0  0  0  0  0  0  0  0
    3.8100   -3.1120    0.0000 H   0  0  0  0  0  0  0  0  0  0  0  0
    9.7146    0.5756    0.0000 H   0  0  0  0  0  0  0  0  0  0  0  0
   10.5074    0.6575    0.0000 H   0  0  0  0  0  0  0  0  0  0  0  0
    2.3430   -0.5483    0.0000 H   0  0  0  0  0  0  0  0  0  0  0  0
   12.5313    2.4701    0.0000 H   0  0  0  0  0  0  0  0  0  0  0  0
   12.9923    0.4947    0.0000 H   0  0  0  0  0  0  0  0  0  0  0  0
   13.4597   -0.1509    0.0000 H   0  0  0  0  0  0  0  0  0  0  0  0
   14.6815    1.5293    0.0000 H   0  0  0  0  0  0  0  0  0  0  0  0
   14.8202    2.3950    0.0000 H   0  0  0  0  0  0  0  0  0  0  0  0
   13.9544    2.5337    0.0000 H   0  0  0  0  0  0  0  0  0  0  0  0
   15.1420   -0.0022    0.0000 H   0  0  0  0  0  0  0  0  0  0  0  0
   14.6746    0.6434    0.0000 H   0  0  0  0  0  0  0  0  0  0  0  0
   14.1242   -1.3162    0.0000 H   0  0  0  0  0  0  0  0  0  0  0  0
   16.6968   -0.2611    0.0000 H   0  0  0  0  0  0  0  0  0  0  0  0
   15.9040   -0.3431    0.0000 H   0  0  0  0  0  0  0  0  0  0  0  0
   15.0253   -2.4194    0.0000 H   0  0  0  0  0  0  0  0  0  0  0  0
   15.7058   -2.9723    0.0000 H   0  0  0  0  0  0  0  0  0  0  0  0
   16.2587   -2.2919    0.0000 H   0  0  0  0  0  0  0  0  0  0  0  0
   16.9145   -1.6963    0.0000 H   0  0  0  0  0  0  0  0  0  0  0  0
   17.7073   -1.6143    0.0000 H   0  0  0  0  0  0  0  0  0  0  0  0
   18.0084    0.0202    0.0000 H   0  0  0  0  0  0  0  0  0  0  0  0
   20.1586   -0.9206    0.0000 H   0  0  0  0  0  0  0  0  0  0  0  0
   20.2972   -0.0548    0.0000 H   0  0  0  0  0  0  0  0  0  0  0  0
   19.4314    0.0838    0.0000 H   0  0  0  0  0  0  0  0  0  0  0  0
   18.4711   -2.0632    0.0000 H   0  0  0  0  0  0  0  0  0  0  0  0
   19.1515   -2.6162    0.0000 H   0  0  0  0  0  0  0  0  0  0  0  0
   19.7045   -1.9358    0.0000 H   0  0  0  0  0  0  0  0  0  0  0  0
 11  1  1  6  0  0  0
  1 64  1  0  0  0  0
 14  2  1  1  0  0  0
  2 65  1  0  0  0  0
  3 21  2  0  0  0  0
  4 25  1  0  0  0  0
  4 28  1  0  0  0  0
  5 27  2  0  0  0  0
  6 28  2  0  0  0  0
  7  8  1  0  0  0  0
  7 11  1  0  0  0  0
  7 12  1  0  0  0  0
  7 18  1  1  0  0  0
  8  9  1  0  0  0  0
  8 13  1  0  0  0  0
  8 43  1  6  0  0  0
  9 10  1  0  0  0  0
  9 17  1  0  0  0  0
  9 44  1  1  0  0  0
 10 14  1  0  0  0  0
 10 15  1  0  0  0  0
 10 45  1  6  0  0  0
 11 16  1  0  0  0  0
 11 21  1  0  0  0  0
 12 14  1  0  0  0  0
 12 46  1  0  0  0  0
 12 47  1  0  0  0  0
 13 16  1  0  0  0  0
 13 48  1  0  0  0  0
 13 49  1  0  0  0  0
 14 50  1  0  0  0  0
 15 20  1  0  0  0  0
 15 22  1  1  0  0  0
 15 23  1  0  0  0  0
 16 51  1  0  0  0  0
 16 52  1  0  0  0  0
 17 19  1  0  0  0  0
 17 53  1  0  0  0  0
 17 54  1  0  0  0  0
 18 55  1  0  0  0  0
 18 56  1  0  0  0  0
 18 57  1  0  0  0  0
 19 20  1  0  0  0  0
 19 58  1  0  0  0  0
 19 59  1  0  0  0  0
 20 24  2  0  0  0  0
 21 25  1  0  0  0  0
 22 60  1  0  0  0  0
 22 61  1  0  0  0  0
 22 62  1  0  0  0  0
 23 26  2  0  0  0  0
 23 63  1  0  0  0  0
 24 27  1  0  0  0  0
 24 66  1  0  0  0  0
 25 67  1  0  0  0  0
 25 68  1  0  0  0  0
 26 27  1  0  0  0  0
 26 69  1  0  0  0  0
 28 29  1  0  0  0  0
 29 30  2  0  0  0  0
 29 70  1  0  0  0  0
 30 31  1  0  0  0  0
 30 32  1  0  0  0  0
 31 33  1  0  0  0  0
 31 71  1  0  0  0  0
 31 72  1  0  0  0  0
 32 73  1  0  0  0  0
 32 74  1  0  0  0  0
 32 75  1  0  0  0  0
 33 34  1  0  0  0  0
 33 76  1  0  0  0  0
 33 77  1  0  0  0  0
 34 35  2  0  0  0  0
 34 78  1  0  0  0  0
 35 36  1  0  0  0  0
 35 37  1  0  0  0  0
 36 38  1  0  0  0  0
 36 79  1  0  0  0  0
 36 80  1  0  0  0  0
 37 81  1  0  0  0  0
 37 82  1  0  0  0  0
 37 83  1  0  0  0  0
 38 39  1  0  0  0  0
 38 84  1  0  0  0  0
 38 85  1  0  0  0  0
 39 40  2  0  0  0  0
 39 86  1  0  0  0  0
 40 41  1  0  0  0  0
 40 42  1  0  0  0  0
 41 87  1  0  0  0  0
 41 88  1  0  0  0  0
 41 89  1  0  0  0  0
 42 90  1  0  0  0  0
 42 91  1  0  0  0  0
 42 92  1  0  0  0  0
M  END
> <PUBCHEM_COMPOUND_CID>
5282236

> <PUBCHEM_COMPOUND_CANONICALIZED>
1

> <PUBCHEM_CACTVS_COMPLEXITY>
1250

> <PUBCHEM_CACTVS_HBOND_ACCEPTOR>
6

> <PUBCHEM_CACTVS_HBOND_DONOR>
2

> <PUBCHEM_CACTVS_ROTATABLE_BOND>
11

> <PUBCHEM_CACTVS_SUBSKEYS>
AAADcfB8OAAAAAAAAAAAAAAAAAAAAYAAAAAwYIAAAAAAAGDAAAAAGgAACAAAD1SggAICCAAABgCIAqDSCAIAAAAgAAAICAFAAEgAFBIAIQQCUAAFgAAIIYPIzPDPgAAAAAAAAADAAAYAADAAAYAADAAAAA==

> <PUBCHEM_IUPAC_OPENEYE_NAME>
[2-[(8S,9S,10R,11S,13S,14S,17R)-11,17-dihydroxy-10,13-dimethyl-3-oxo-7,8,9,11,12,14,15,16-octahydro-6H-cyclopenta[a]phenanthren-17-yl]-2-oxo-ethyl] (2Z,6Z)-3,7,11-trimethyldodeca-2,6,10-trienoate

> <PUBCHEM_IUPAC_CAS_NAME>
(2Z,6Z)-3,7,11-trimethyldodeca-2,6,10-trienoic acid [2-[(8S,9S,10R,11S,13S,14S,17R)-11,17-dihydroxy-10,13-dimethyl-3-oxo-7,8,9,11,12,14,15,16-octahydro-6H-cyclopenta[a]phenanthren-17-yl]-2-oxoethyl] ester

> <PUBCHEM_IUPAC_NAME>
[2-[(8S,9S,10R,11S,13S,14S,17R)-11,17-dihydroxy-10,13-dimethyl-3-oxo-7,8,9,11,12,14,15,16-octahydro-6H-cyclopenta[a]phenanthren-17-yl]-2-oxoethyl] (2Z,6Z)-3,7,11-trimethyldodeca-2,6,10-trienoate

> <PUBCHEM_IUPAC_SYSTEMATIC_NAME>
[2-[(8S,9S,10R,11S,13S,14S,17R)-10,13-dimethyl-11,17-bis(oxidanyl)-3-oxidanylidene-7,8,9,11,12,14,15,16-octahydro-6H-cyclopenta[a]phenanthren-17-yl]-2-oxidanylidene-ethyl] (2Z,6Z)-3,7,11-trimethyldodeca-2,6,10-trienoate

> <PUBCHEM_IUPAC_TRADITIONAL_NAME>
(2Z,6Z)-3,7,11-trimethyldodeca-2,6,10-trienoic acid [2-[(8S,9S,10R,11S,13S,14S,17R)-11,17-dihydroxy-3-keto-10,13-dimethyl-7,8,9,11,12,14,15,16-octahydro-6H-cyclopenta[a]phenanthren-17-yl]-2-keto-ethyl] ester

> <PUBCHEM_IUPAC_INCHI>
InChI=1S/C36H50O6/c1-23(2)9-7-10-24(3)11-8-12-25(4)19-32(40)42-22-31(39)36(41)18-16-29-28-14-13-26-20-27(37)15-17-34(26,5)33(28)30(38)21-35(29,36)6/h9,11,15,17,19-20,28-30,33,38,41H,7-8,10,12-14,16,18,21-22H2,1-6H3/b24-11-,25-19-/t28-,29-,30-,33+,34-,35-,36-/m0/s1

> <PUBCHEM_IUPAC_INCHIKEY>
SBQAKZYUNWNIRL-WNWSKZGLSA-N

> <PUBCHEM_XLOGP3>
7.6

> <PUBCHEM_EXACT_MASS>
578.360739

> <PUBCHEM_MOLECULAR_FORMULA>
C36H50O6

> <PUBCHEM_MOLECULAR_WEIGHT>
578.7786

> <PUBCHEM_OPENEYE_CAN_SMILES>
CC(=CCCC(=CCCC(=CC(=O)OCC(=O)C1(CCC2C1(CC(C3C2CCC4=CC(=O)C=CC34C)O)C)O)C)C)C

> <PUBCHEM_OPENEYE_ISO_SMILES>
CC(=CCC/C(=C\CC/C(=C\C(=O)OCC(=O)[C@]1(CC[C@@H]2[C@@]1(C[C@@H]([C@H]3[C@H]2CCC4=CC(=O)C=C[C@]34C)O)C)O)/C)/C)C

> <PUBCHEM_CACTVS_TPSA>
101

> <PUBCHEM_MONOISOTOPIC_WEIGHT>
578.360739

> <PUBCHEM_TOTAL_CHARGE>
0

> <PUBCHEM_HEAVY_ATOM_COUNT>
42

> <PUBCHEM_ATOM_DEF_STEREO_COUNT>
7

> <PUBCHEM_ATOM_UDEF_STEREO_COUNT>
0

> <PUBCHEM_BOND_DEF_STEREO_COUNT>
2

> <PUBCHEM_BOND_UDEF_STEREO_COUNT>
0

> <PUBCHEM_ISOTOPIC_ATOM_COUNT>
0

> <PUBCHEM_COMPONENT_COUNT>
1

> <PUBCHEM_CACTVS_TAUTO_COUNT>
6

> <PUBCHEM_COORDINATE_TYPE>
1
5
255

> <PUBCHEM_BONDANNOTATIONS>
11  1  6
10  45  6
15  22  5
14  2  5
7  18  5
8  43  6
9  44  5

$$$$

