24892807
  -OEChem-07051213092D

 30 32  0     0  0  0  0  0  0999 V2000
    4.9714   -1.5353    0.0000 O   0  0  0  0  0  0  0  0  0  0  0  0
    2.4558   -0.7052    0.0000 O   0  0  0  0  0  0  0  0  0  0  0  0
    2.0000    1.2917    0.0000 O   0  0  0  0  0  0  0  0  0  0  0  0
    5.8374   -0.0353    0.0000 N   0  0  0  0  0  0  0  0  0  0  0  0
    6.7034   -1.5353    0.0000 N   0  0  0  0  0  0  0  0  0  0  0  0
    4.9364    0.3986    0.0000 C   0  0  0  0  0  0  0  0  0  0  0  0
    6.7384    0.3986    0.0000 C   0  0  0  0  0  0  0  0  0  0  0  0
    4.7139    1.3735    0.0000 C   0  0  0  0  0  0  0  0  0  0  0  0
    6.9609    1.3735    0.0000 C   0  0  0  0  0  0  0  0  0  0  0  0
    5.3374    2.1553    0.0000 C   0  0  0  0  0  0  0  0  0  0  0  0
    6.3374    2.1553    0.0000 C   0  0  0  0  0  0  0  0  0  0  0  0
    4.1839   -0.3216    0.0000 C   0  0  0  0  0  0  0  0  0  0  0  0
    7.4909   -0.3216    0.0000 C   0  0  0  0  0  0  0  0  0  0  0  0
    3.7234    1.6958    0.0000 C   0  0  0  0  0  0  0  0  0  0  0  0
    7.9514    1.6958    0.0000 C   0  0  0  0  0  0  0  0  0  0  0  0
    5.8374   -1.0353    0.0000 C   0  0  0  0  0  0  0  0  0  0  0  0
    3.1862   -0.0222    0.0000 C   0  0  0  0  0  0  0  0  0  0  0  0
    2.9544    0.9933    0.0000 C   0  0  0  0  0  0  0  0  0  0  0  0
    8.4886   -0.0223    0.0000 C   0  0  0  0  0  0  0  0  0  0  0  0
    8.7204    0.9932    0.0000 C   0  0  0  0  0  0  0  0  0  0  0  0
    5.0684    2.7139    0.0000 H   0  0  0  0  0  0  0  0  0  0  0  0
    6.6064    2.7139    0.0000 H   0  0  0  0  0  0  0  0  0  0  0  0
    4.3288   -0.9244    0.0000 H   0  0  0  0  0  0  0  0  0  0  0  0
    7.3460   -0.9244    0.0000 H   0  0  0  0  0  0  0  0  0  0  0  0
    3.5925    2.3018    0.0000 H   0  0  0  0  0  0  0  0  0  0  0  0
    8.0824    2.3018    0.0000 H   0  0  0  0  0  0  0  0  0  0  0  0
    8.9415   -0.4457    0.0000 H   0  0  0  0  0  0  0  0  0  0  0  0
    9.3122    1.1782    0.0000 H   0  0  0  0  0  0  0  0  0  0  0  0
    6.7034   -2.1553    0.0000 H   0  0  0  0  0  0  0  0  0  0  0  0
    7.2404   -1.2253    0.0000 H   0  0  0  0  0  0  0  0  0  0  0  0
  1 16  2  0  0  0  0
  2 17  2  0  0  0  0
  3 18  2  0  0  0  0
  4  6  1  0  0  0  0
  4  7  1  0  0  0  0
  4 16  1  0  0  0  0
  5 16  1  0  0  0  0
  5 29  1  0  0  0  0
  5 30  1  0  0  0  0
  6  8  1  0  0  0  0
  6 12  2  0  0  0  0
  7  9  1  0  0  0  0
  7 13  2  0  0  0  0
  8 10  1  0  0  0  0
  8 14  2  0  0  0  0
  9 11  1  0  0  0  0
  9 15  2  0  0  0  0
 10 11  2  0  0  0  0
 10 21  1  0  0  0  0
 11 22  1  0  0  0  0
 12 17  1  0  0  0  0
 12 23  1  0  0  0  0
 13 19  1  0  0  0  0
 13 24  1  0  0  0  0
 14 18  1  0  0  0  0
 14 25  1  0  0  0  0
 15 20  1  0  0  0  0
 15 26  1  0  0  0  0
 17 18  1  0  0  0  0
 19 20  2  0  0  0  0
 19 27  1  0  0  0  0
 20 28  1  0  0  0  0
M  END
> <PUBCHEM_COMPOUND_CID>
24892807

> <PUBCHEM_COMPOUND_CANONICALIZED>
1

> <PUBCHEM_CACTVS_COMPLEXITY>
586

> <PUBCHEM_CACTVS_HBOND_ACCEPTOR>
3

> <PUBCHEM_CACTVS_HBOND_DONOR>
1

> <PUBCHEM_CACTVS_ROTATABLE_BOND>
0

> <PUBCHEM_CACTVS_SUBSKEYS>
AAADccBzMAAAAAAAAAAAAAAAAAAAAAAAAAAwQAAABAAAAAABAAAAHgAQAAAADAyBmAAxwINAAACIAqRSUACCAAAhAgAIiAEAZMiIICLAkZGEIAhghALIyWcQgAAOAAAAAAACAAAAAAAAAAQAAAAAAAAAAA==

> <PUBCHEM_IUPAC_OPENEYE_NAME>
2,3-dioxobenzo[b][1]benzazepine-11-carboxamide

> <PUBCHEM_IUPAC_CAS_NAME>
2,3-dioxo-11-benzo[b][1]benzazepinecarboxamide

> <PUBCHEM_IUPAC_NAME>
2,3-dioxobenzo[b][1]benzazepine-11-carboxamide

> <PUBCHEM_IUPAC_SYSTEMATIC_NAME>
2,3-bis(oxidanylidene)benzo[b][1]benzazepine-11-carboxamide

> <PUBCHEM_IUPAC_TRADITIONAL_NAME>
2,3-diketobenzo[b][1]benzazepine-11-carboxamide

> <PUBCHEM_IUPAC_INCHI>
InChI=1S/C15H10N2O3/c16-15(20)17-11-4-2-1-3-9(11)5-6-10-7-13(18)14(19)8-12(10)17/h1-8H,(H2,16,20)

> <PUBCHEM_IUPAC_INCHIKEY>
GONNJNYLBPEEPH-UHFFFAOYSA-N

> <PUBCHEM_XLOGP3_AA>
0.5

> <PUBCHEM_EXACT_MASS>
266.069142

> <PUBCHEM_MOLECULAR_FORMULA>
C15H10N2O3

> <PUBCHEM_MOLECULAR_WEIGHT>
266.2515

> <PUBCHEM_OPENEYE_CAN_SMILES>
C1=CC=C2C(=C1)C=CC3=CC(=O)C(=O)C=C3N2C(=O)N

> <PUBCHEM_OPENEYE_ISO_SMILES>
C1=CC=C2C(=C1)C=CC3=CC(=O)C(=O)C=C3N2C(=O)N

> <PUBCHEM_CACTVS_TPSA>
80.5

> <PUBCHEM_MONOISOTOPIC_WEIGHT>
266.069142

> <PUBCHEM_TOTAL_CHARGE>
0

> <PUBCHEM_HEAVY_ATOM_COUNT>
20

> <PUBCHEM_ATOM_DEF_STEREO_COUNT>
0

> <PUBCHEM_ATOM_UDEF_STEREO_COUNT>
0

> <PUBCHEM_BOND_DEF_STEREO_COUNT>
0

> <PUBCHEM_BOND_UDEF_STEREO_COUNT>
0

> <PUBCHEM_ISOTOPIC_ATOM_COUNT>
0

> <PUBCHEM_COMPONENT_COUNT>
1

> <PUBCHEM_CACTVS_TAUTO_COUNT>
2

> <PUBCHEM_COORDINATE_TYPE>
1
5
255

> <PUBCHEM_BONDANNOTATIONS>
10  11  8
12  17  8
13  19  8
14  18  8
15  20  8
17  18  8
19  20  8
4  6  8
4  7  8
6  12  8
7  13  8
7  9  8
8  10  8
8  14  8
9  11  8
9  15  8

$$$$

