   Color/Form

     * COLORLESS, CUBIC CRYSTALS
     * WHITE CRYSTALS OR GRANULES
     * WHITE POWDER

   from [1]HSDB

   Odor
        ODORLESS
   from [2]HSDB

   Taste
        SALINE, SOMEWHAT BITTER TASTE
   from [3]HSDB

   Boiling Point
        1304 DEG C
   from [4]HSDB

   Melting Point
        651 DEG C
   from [5]HSDB

   Density/Specific Gravity
        3.67
   from [6]HSDB

   pH
        8-9.5
   from [7]HSDB

   Solubilities

     * SOLUBILITY (G/100 CC SOLVENT): 184 G IN WATER @ 25 DEG C; 302 G IN
       WATER @ 100 DEG C; 42.57 G IN ALCOHOL @ 25 DEG C; 39.9 G IN ACETONE
       @ 25 DEG C
     * 1 G SOL IN 1 ML GLYCEROL

   from [8]HSDB

   Spectral Properties
        INDEX OF REFRACTION: 1.7745
   from [9]HSDB

   Vapor Pressure
        1 MM HG @ 767 DEG C
   from [10]HSDB

   Other Chemical/Physical Properties

     * DELIQUESCENT; GRADUALLY ABSORBS UP TO 5% (1/2 MOL) MOISTURE ON
       EXPOSURE TO AIR; SLOWLY BECOMES BROWN IN AIR DUE TO LIBERATION OF
       IODINE; AQ SOLN SIMILARLY AFFECTED
     * AT ROOM TEMP CRYSTALLIZES FROM WATER WITH 2H2O IN FORM OF
       COLORLESS, PRISMATIC CRYSTALS
     * RAPIDLY ATTACKED BY BROMINE TRIFLUORIDE

   from [11]HSDB

   Computed Properties
   Molecular Weight                  149.894239 [g/mol]
   Molecular Formula                 INa
   H-Bond Donor                      0
   H-Bond Acceptor                   1
   Rotatable Bond Count              0
   Exact Mass                        149.894242
   MonoIsotopic Mass                 149.894242
   Topological Polar Surface Area    0
   Heavy Atom Count                  2
   Formal Charge                     0
   Complexity                        2
   Isotope Atom Count                0
   Defined Atom Stereocenter Count   0
   Undefined Atom Stereocenter Count 0
   Defined Bond Stereocenter Count   0
   Undefined Bond Stereocenter Count 0
   Covalently-Bonded Unit Count      2

References

   1. http://toxnet.nlm.nih.gov/cgi-bin/sis/search/r?dbs+hsdb:@term+@rn+@rel+7681-82-5
   2. http://toxnet.nlm.nih.gov/cgi-bin/sis/search/r?dbs+hsdb:@term+@rn+@rel+7681-82-5
   3. http://toxnet.nlm.nih.gov/cgi-bin/sis/search/r?dbs+hsdb:@term+@rn+@rel+7681-82-5
   4. http://toxnet.nlm.nih.gov/cgi-bin/sis/search/r?dbs+hsdb:@term+@rn+@rel+7681-82-5
   5. http://toxnet.nlm.nih.gov/cgi-bin/sis/search/r?dbs+hsdb:@term+@rn+@rel+7681-82-5
   6. http://toxnet.nlm.nih.gov/cgi-bin/sis/search/r?dbs+hsdb:@term+@rn+@rel+7681-82-5
   7. http://toxnet.nlm.nih.gov/cgi-bin/sis/search/r?dbs+hsdb:@term+@rn+@rel+7681-82-5
   8. http://toxnet.nlm.nih.gov/cgi-bin/sis/search/r?dbs+hsdb:@term+@rn+@rel+7681-82-5
   9. http://toxnet.nlm.nih.gov/cgi-bin/sis/search/r?dbs+hsdb:@term+@rn+@rel+7681-82-5
  10. http://toxnet.nlm.nih.gov/cgi-bin/sis/search/r?dbs+hsdb:@term+@rn+@rel+7681-82-5
  11. http://toxnet.nlm.nih.gov/cgi-bin/sis/search/r?dbs+hsdb:@term+@rn+@rel+7681-82-5
