16048613
  -OEChem-07051212512D

 70 72  0     1  0  0  0  0  0999 V2000
   11.0471   -4.6472    0.0000 Fe  0  1  0  0  0  0  0  0  0  0  0  0
    6.9192    0.3528    0.0000 O   0  0  0  0  0  0  0  0  0  0  0  0
    9.2262    0.3387    0.0000 O   0  0  0  0  0  0  0  0  0  0  0  0
    7.5532    2.7189    0.0000 O   0  0  0  0  0  0  0  0  0  0  0  0
    7.5532    0.9868    0.0000 O   0  0  0  0  0  0  0  0  0  0  0  0
    8.1014    1.8047    0.0000 O   0  0  0  0  0  0  0  0  0  0  0  0
    6.0532   -1.1472    0.0000 O   0  0  0  0  0  0  0  0  0  0  0  0
    9.5173   -2.1472    0.0000 O   0  0  0  0  0  0  0  0  0  0  0  0
    9.7438    4.2024    0.0000 O   0  0  0  0  0  0  0  0  0  0  0  0
    4.1213    1.3352    0.0000 O   0  0  0  0  0  0  0  0  0  0  0  0
   10.4635   -3.8424    0.0000 O   0  5  0  0  0  0  0  0  0  0  0  0
   11.8652    2.0811    0.0000 O   0  5  0  0  0  0  0  0  0  0  0  0
    4.8978    4.2330    0.0000 O   0  5  0  0  0  0  0  0  0  0  0  0
   10.4635   -5.4519    0.0000 O   0  5  0  0  0  0  0  0  0  0  0  0
   13.7970    2.5987    0.0000 O   0  5  0  0  0  0  0  0  0  0  0  0
    3.4836    5.6472    0.0000 O   0  5  0  0  0  0  0  0  0  0  0  0
    5.3461    2.5599    0.0000 N   0  0  0  0  0  0  0  0  0  0  0  0
   10.1921    2.5294    0.0000 N   0  0  0  0  0  0  0  0  0  0  0  0
    7.7852   -2.1472    0.0000 N   0  0  0  0  0  0  0  0  0  0  0  0
    7.7852   -1.1472    0.0000 C   0  0  1  0  0  0  0  0  0  0  0  0
    9.2262    2.2706    0.0000 C   0  0  1  0  0  0  0  0  0  0  0  0
    6.0532    1.8528    0.0000 C   0  0  1  0  0  0  0  0  0  0  0  0
    8.6512   -0.6472    0.0000 C   0  0  0  0  0  0  0  0  0  0  0  0
    6.0532    0.8528    0.0000 C   0  0  0  0  0  0  0  0  0  0  0  0
    8.5191    2.9777    0.0000 C   0  0  0  0  0  0  0  0  0  0  0  0
    6.9192   -0.6472    0.0000 C   0  0  0  0  0  0  0  0  0  0  0  0
    8.9674    1.3046    0.0000 C   0  0  0  0  0  0  0  0  0  0  0  0
    7.0532    1.8528    0.0000 C   0  0  0  0  0  0  0  0  0  0  0  0
    4.3801    2.3011    0.0000 C   0  0  0  0  0  0  0  0  0  0  0  0
   10.4509    3.4953    0.0000 C   0  0  0  0  0  0  0  0  0  0  0  0
    8.6512   -2.6472    0.0000 C   0  0  0  0  0  0  0  0  0  0  0  0
    8.6512   -3.6472    0.0000 C   0  0  0  0  0  0  0  0  0  0  0  0
   11.4169    3.7541    0.0000 C   0  0  0  0  0  0  0  0  0  0  0  0
    3.6730    3.0082    0.0000 C   0  0  0  0  0  0  0  0  0  0  0  0
    9.5173   -4.1472    0.0000 C   0  0  0  0  0  0  0  0  0  0  0  0
   12.1240    3.0470    0.0000 C   0  0  0  0  0  0  0  0  0  0  0  0
    3.9318    3.9741    0.0000 C   0  0  0  0  0  0  0  0  0  0  0  0
    2.7071    2.7494    0.0000 C   0  0  0  0  0  0  0  0  0  0  0  0
   11.6757    4.7200    0.0000 C   0  0  0  0  0  0  0  0  0  0  0  0
    7.7852   -4.1472    0.0000 C   0  0  0  0  0  0  0  0  0  0  0  0
    9.5173   -5.1472    0.0000 C   0  0  0  0  0  0  0  0  0  0  0  0
   13.0899    3.3058    0.0000 C   0  0  0  0  0  0  0  0  0  0  0  0
    3.2247    4.6812    0.0000 C   0  0  0  0  0  0  0  0  0  0  0  0
    7.7852   -5.1472    0.0000 C   0  0  0  0  0  0  0  0  0  0  0  0
   12.6416    4.9789    0.0000 C   0  0  0  0  0  0  0  0  0  0  0  0
    2.0000    3.4565    0.0000 C   0  0  0  0  0  0  0  0  0  0  0  0
    8.6512   -5.6472    0.0000 C   0  0  0  0  0  0  0  0  0  0  0  0
   13.3487    4.2718    0.0000 C   0  0  0  0  0  0  0  0  0  0  0  0
    2.2588    4.4224    0.0000 C   0  0  0  0  0  0  0  0  0  0  0  0
    6.2904    2.4256    0.0000 H   0  0  0  0  0  0  0  0  0  0  0  0
    9.6646    1.8322    0.0000 H   0  0  0  0  0  0  0  0  0  0  0  0
    8.3222   -1.4572    0.0000 H   0  0  0  0  0  0  0  0  0  0  0  0
    8.7580   -1.2579    0.0000 H   0  0  0  0  0  0  0  0  0  0  0  0
    8.2138   -0.2078    0.0000 H   0  0  0  0  0  0  0  0  0  0  0  0
    5.4426    0.9605    0.0000 H   0  0  0  0  0  0  0  0  0  0  0  0
    5.8411    0.2702    0.0000 H   0  0  0  0  0  0  0  0  0  0  0  0
    9.0270    3.3333    0.0000 H   0  0  0  0  0  0  0  0  0  0  0  0
    8.2571    3.5396    0.0000 H   0  0  0  0  0  0  0  0  0  0  0  0
    7.2483   -2.4572    0.0000 H   0  0  0  0  0  0  0  0  0  0  0  0
   10.6305    2.0910    0.0000 H   0  0  0  0  0  0  0  0  0  0  0  0
    5.5065    3.1588    0.0000 H   0  0  0  0  0  0  0  0  0  0  0  0
    7.2483   -3.8372    0.0000 H   0  0  0  0  0  0  0  0  0  0  0  0
   11.2373    5.1585    0.0000 H   0  0  0  0  0  0  0  0  0  0  0  0
    2.5466    2.1505    0.0000 H   0  0  0  0  0  0  0  0  0  0  0  0
    7.2483   -5.4572    0.0000 H   0  0  0  0  0  0  0  0  0  0  0  0
   12.8021    5.5777    0.0000 H   0  0  0  0  0  0  0  0  0  0  0  0
    1.4011    3.2960    0.0000 H   0  0  0  0  0  0  0  0  0  0  0  0
    1.8204    4.8608    0.0000 H   0  0  0  0  0  0  0  0  0  0  0  0
   13.9476    4.4322    0.0000 H   0  0  0  0  0  0  0  0  0  0  0  0
    8.6512   -6.2672    0.0000 H   0  0  0  0  0  0  0  0  0  0  0  0
  2 24  1  0  0  0  0
  2 26  1  0  0  0  0
  3 23  1  0  0  0  0
  3 27  1  0  0  0  0
  4 25  1  0  0  0  0
  4 28  1  0  0  0  0
  5 28  2  0  0  0  0
  6 27  2  0  0  0  0
  7 26  2  0  0  0  0
  8 31  2  0  0  0  0
  9 30  2  0  0  0  0
 10 29  2  0  0  0  0
 11 35  1  0  0  0  0
 12 36  1  0  0  0  0
 13 37  1  0  0  0  0
 14 41  1  0  0  0  0
 15 42  1  0  0  0  0
 16 43  1  0  0  0  0
 22 17  1  6  0  0  0
 17 29  1  0  0  0  0
 17 61  1  0  0  0  0
 21 18  1  6  0  0  0
 18 30  1  0  0  0  0
 18 60  1  0  0  0  0
 20 19  1  6  0  0  0
 19 31  1  0  0  0  0
 19 59  1  0  0  0  0
 20 23  1  0  0  0  0
 20 26  1  0  0  0  0
 20 52  1  0  0  0  0
 21 25  1  0  0  0  0
 21 27  1  0  0  0  0
 21 51  1  0  0  0  0
 22 24  1  0  0  0  0
 22 28  1  0  0  0  0
 22 50  1  0  0  0  0
 23 53  1  0  0  0  0
 23 54  1  0  0  0  0
 24 55  1  0  0  0  0
 24 56  1  0  0  0  0
 25 57  1  0  0  0  0
 25 58  1  0  0  0  0
 29 34  1  0  0  0  0
 30 33  1  0  0  0  0
 31 32  1  0  0  0  0
 32 35  2  0  0  0  0
 32 40  1  0  0  0  0
 33 36  2  0  0  0  0
 33 39  1  0  0  0  0
 34 37  2  0  0  0  0
 34 38  1  0  0  0  0
 35 41  1  0  0  0  0
 36 42  1  0  0  0  0
 37 43  1  0  0  0  0
 38 46  2  0  0  0  0
 38 64  1  0  0  0  0
 39 45  2  0  0  0  0
 39 63  1  0  0  0  0
 40 44  2  0  0  0  0
 40 62  1  0  0  0  0
 41 47  2  0  0  0  0
 42 48  2  0  0  0  0
 43 49  2  0  0  0  0
 44 47  1  0  0  0  0
 44 65  1  0  0  0  0
 45 48  1  0  0  0  0
 45 66  1  0  0  0  0
 46 49  1  0  0  0  0
 46 67  1  0  0  0  0
 47 70  1  0  0  0  0
 48 69  1  0  0  0  0
 49 68  1  0  0  0  0
M  CHG  7   1   3  11  -1  12  -1  13  -1  14  -1  15  -1  16  -1
M  END
> <PUBCHEM_COMPOUND_CID>
16048613

> <PUBCHEM_COMPOUND_CANONICALIZED>
1

> <PUBCHEM_CACTVS_COMPLEXITY>
1060

> <PUBCHEM_CACTVS_HBOND_ACCEPTOR>
15

> <PUBCHEM_CACTVS_HBOND_DONOR>
3

> <PUBCHEM_CACTVS_ROTATABLE_BOND>
6

> <PUBCHEM_CACTVS_SUBSKEYS>
AAADceB7PAAAAAAgAAAAAAAAAAAAAAAAAAAwYMAAAAAAAAABUAAAHgAQAAAADCzhmAYwDoLABACIAiHSGACCAAAkIAAIiIGOjMgLJjaAlTOHMUhn9hGYiYe6yDCOAAABAAAIQAAAAAIAABCAAAAAAAAAAA==

> <PUBCHEM_IUPAC_OPENEYE_NAME>
ferric 3-[[(3S,7S,11S)-7,11-bis[(2,3-dioxidobenzoyl)amino]-2,6,10-trioxo-1,5,9-trioxacyclododec-3-yl]carbamoyl]benzene-1,2-diolate

> <PUBCHEM_IUPAC_CAS_NAME>
3-[[[(3S,7S,11S)-7,11-bis[[(2,3-dioxidophenyl)-oxomethyl]amino]-2,6,10-trioxo-1,5,9-trioxacyclododec-3-yl]amino]-oxomethyl]benzene-1,2-diolate; iron(3+)

> <PUBCHEM_IUPAC_NAME>
3-[[(3S,7S,11S)-7,11-bis[(2,3-dioxidobenzoyl)amino]-2,6,10-trioxo-1,5,9-trioxacyclododec-3-yl]carbamoyl]benzene-1,2-diolate; iron(3+)

> <PUBCHEM_IUPAC_SYSTEMATIC_NAME>
3-[[(3S,7S,11S)-7,11-bis[[2,3-bis(oxidanidyl)phenyl]carbonylamino]-2,6,10-tris(oxidanylidene)-1,5,9-trioxacyclododec-3-yl]carbamoyl]benzene-1,2-diolate; iron(3+)

> <PUBCHEM_IUPAC_TRADITIONAL_NAME>
ferric 3-[[(3S,7S,11S)-7,11-bis[(2,3-dioxidobenzoyl)amino]-2,6,10-triketo-1,5,9-trioxacyclododec-3-yl]carbamoyl]benzene-1,2-diolate

> <PUBCHEM_IUPAC_INCHI>
InChI=1S/C30H27N3O15.Fe/c34-19-7-1-4-13(22(19)37)25(40)31-16-10-46-29(44)18(33-27(42)15-6-3-9-21(36)24(15)39)12-48-30(45)17(11-47-28(16)43)32-26(41)14-5-2-8-20(35)23(14)38;/h1-9,16-18,34-39H,10-12H2,(H,31,40)(H,32,41)(H,33,42);/q;+3/p-6/t16-,17-,18-;/m0./s1

> <PUBCHEM_IUPAC_INCHIKEY>
NGILTSZTOFYVBF-UVJOBNTFSA-H

> <PUBCHEM_EXACT_MASS>
719.032204

> <PUBCHEM_MOLECULAR_FORMULA>
C30H21FeN3O15-3

> <PUBCHEM_MOLECULAR_WEIGHT>
719.34384

> <PUBCHEM_OPENEYE_CAN_SMILES>
C1C(C(=O)OCC(C(=O)OCC(C(=O)O1)NC(=O)C2=C(C(=CC=C2)[O-])[O-])NC(=O)C3=C(C(=CC=C3)[O-])[O-])NC(=O)C4=C(C(=CC=C4)[O-])[O-].[Fe+3]

> <PUBCHEM_OPENEYE_ISO_SMILES>
C1[C@@H](C(=O)OC[C@@H](C(=O)OC[C@@H](C(=O)O1)NC(=O)C2=C(C(=CC=C2)[O-])[O-])NC(=O)C3=C(C(=CC=C3)[O-])[O-])NC(=O)C4=C(C(=CC=C4)[O-])[O-].[Fe+3]

> <PUBCHEM_CACTVS_TPSA>
305

> <PUBCHEM_MONOISOTOPIC_WEIGHT>
719.032204

> <PUBCHEM_TOTAL_CHARGE>
-3

> <PUBCHEM_HEAVY_ATOM_COUNT>
49

> <PUBCHEM_ATOM_DEF_STEREO_COUNT>
3

> <PUBCHEM_ATOM_UDEF_STEREO_COUNT>
0

> <PUBCHEM_BOND_DEF_STEREO_COUNT>
0

> <PUBCHEM_BOND_UDEF_STEREO_COUNT>
0

> <PUBCHEM_ISOTOPIC_ATOM_COUNT>
0

> <PUBCHEM_COMPONENT_COUNT>
2

> <PUBCHEM_CACTVS_TAUTO_COUNT>
24

> <PUBCHEM_COORDINATE_TYPE>
1
5
255

> <PUBCHEM_BONDANNOTATIONS>
22  17  6
21  18  6
20  19  6
32  35  8
32  40  8
33  36  8
33  39  8
34  37  8
34  38  8
35  41  8
36  42  8
37  43  8
38  46  8
39  45  8
40  44  8
41  47  8
42  48  8
43  49  8
44  47  8
45  48  8
46  49  8

$$$$

