   Color/Form

     * Gray-white crystals
     * Solid

   from [1]HSDB

   Melting Point
        327 deg C
   from [2]HSDB

   Dissociation Constants
        pKa1 = 2.12 (secondary amine); pKa2 = 5.43 (secondary amine) (est)
   from [3]HSDB

   Octanol/Water Partition Coefficient
        log Kow = 2.23
   from [4]HSDB

   Solubilities

     * Soluble in methanol, DMSO
     * In water, 407 mg/L at 25 deg C (est)

   from [5]HSDB

   Spectral Properties
        UV max (methanol): 225, 273, 316 nm (log epsilon 4.46, 4.00, 4.46)
   from [6]HSDB

   Vapor Pressure
        8.09X10-9 mm Hg at 25 deg C (est)
   from [7]HSDB

   Other Chemical/Physical Properties

     * MP: 327-328 deg C
     * Henry's Law constant = 2.78X10-13 atm-cu m/mol at 25 deg C (est)
     * Hydroxyl radical reaction rate constant = 2.03X10-10 cu
       cm/molec-sec at 25 deg C (est)

   from [8]HSDB

   Computed Properties
   Molecular Weight                  224.26118 [g/mol]
   Molecular Formula                 C[13]H[12]N[4]
   XLogP3                            2.2
   H-Bond Donor                      1
   H-Bond Acceptor                   3
   Rotatable Bond Count              1
   Tautomer Count                    3
   Exact Mass                        224.106196
   MonoIsotopic Mass                 224.106196
   Topological Polar Surface Area    56.7
   Heavy Atom Count                  17
   Formal Charge                     0
   Complexity                        264
   Isotope Atom Count                0
   Defined Atom Stereocenter Count   0
   Undefined Atom Stereocenter Count 0
   Defined Bond Stereocenter Count   0
   Undefined Bond Stereocenter Count 0
   Covalently-Bonded Unit Count      1
   Feature 3D Acceptor Count         1
   Feature 3D Donor Count            1
   Feature 3D Cation Count           1
   Feature 3D Ring Count             3
   Effective Rotor Count             1
   Conformer Sampling RMSD           0.6
   CID Conformer Count               [9]2

References

   1. http://toxnet.nlm.nih.gov/cgi-bin/sis/search/r?dbs+hsdb:@term+@rn+@rel+105650-23-5
   2. http://toxnet.nlm.nih.gov/cgi-bin/sis/search/r?dbs+hsdb:@term+@rn+@rel+105650-23-5
   3. http://toxnet.nlm.nih.gov/cgi-bin/sis/search/r?dbs+hsdb:@term+@rn+@rel+105650-23-5
   4. http://toxnet.nlm.nih.gov/cgi-bin/sis/search/r?dbs+hsdb:@term+@rn+@rel+105650-23-5
   5. http://toxnet.nlm.nih.gov/cgi-bin/sis/search/r?dbs+hsdb:@term+@rn+@rel+105650-23-5
   6. http://toxnet.nlm.nih.gov/cgi-bin/sis/search/r?dbs+hsdb:@term+@rn+@rel+105650-23-5
   7. http://toxnet.nlm.nih.gov/cgi-bin/sis/search/r?dbs+hsdb:@term+@rn+@rel+105650-23-5
   8. http://toxnet.nlm.nih.gov/cgi-bin/sis/search/r?dbs+hsdb:@term+@rn+@rel+105650-23-5
   9. http://pubchem.ncbi.nlm.nih.gov/vw3d/vw3d.cgi?cid=1530
