6863
  -OEChem-06261201322D

 24 25  0     0  0  0  0  0  0999 V2000
    2.5369   -0.6123    0.0000 S   0  0  0  0  0  0  0  0  0  0  0  0
    4.2690   -0.6123    0.0000 N   0  0  0  0  0  0  0  0  0  0  0  0
    3.4030   -2.1123    0.0000 N   0  0  0  0  0  0  0  0  0  0  0  0
    5.1350    0.8877    0.0000 C   0  0  0  0  0  0  0  0  0  0  0  0
    5.1350    1.8877    0.0000 C   0  0  0  0  0  0  0  0  0  0  0  0
    4.2690    0.3877    0.0000 C   0  0  0  0  0  0  0  0  0  0  0  0
    4.2690    2.3877    0.0000 C   0  0  0  0  0  0  0  0  0  0  0  0
    6.0290    0.3530    0.0000 C   0  0  0  0  0  0  0  0  0  0  0  0
    6.0290    2.4223    0.0000 C   0  0  0  0  0  0  0  0  0  0  0  0
    3.4030    0.8877    0.0000 C   0  0  0  0  0  0  0  0  0  0  0  0
    3.4030    1.8877    0.0000 C   0  0  0  0  0  0  0  0  0  0  0  0
    6.9350    0.8669    0.0000 C   0  0  0  0  0  0  0  0  0  0  0  0
    6.9350    1.9085    0.0000 C   0  0  0  0  0  0  0  0  0  0  0  0
    3.4030   -1.1123    0.0000 C   0  0  0  0  0  0  0  0  0  0  0  0
    4.2690    3.0077    0.0000 H   0  0  0  0  0  0  0  0  0  0  0  0
    6.0218   -0.2670    0.0000 H   0  0  0  0  0  0  0  0  0  0  0  0
    6.0218    3.0423    0.0000 H   0  0  0  0  0  0  0  0  0  0  0  0
    2.8660    0.5777    0.0000 H   0  0  0  0  0  0  0  0  0  0  0  0
    2.8660    2.1977    0.0000 H   0  0  0  0  0  0  0  0  0  0  0  0
    7.4708    0.5548    0.0000 H   0  0  0  0  0  0  0  0  0  0  0  0
    7.4708    2.2206    0.0000 H   0  0  0  0  0  0  0  0  0  0  0  0
    2.8660   -2.4223    0.0000 H   0  0  0  0  0  0  0  0  0  0  0  0
    3.9399   -2.4223    0.0000 H   0  0  0  0  0  0  0  0  0  0  0  0
    2.0000   -0.9223    0.0000 H   0  0  0  0  0  0  0  0  0  0  0  0
  1 14  1  0  0  0  0
  1 24  1  0  0  0  0
  2  6  1  0  0  0  0
  2 14  2  0  0  0  0
  3 14  1  0  0  0  0
  3 22  1  0  0  0  0
  3 23  1  0  0  0  0
  4  5  1  0  0  0  0
  4  6  1  0  0  0  0
  4  8  2  0  0  0  0
  5  7  1  0  0  0  0
  5  9  2  0  0  0  0
  6 10  2  0  0  0  0
  7 11  2  0  0  0  0
  7 15  1  0  0  0  0
  8 12  1  0  0  0  0
  8 16  1  0  0  0  0
  9 13  1  0  0  0  0
  9 17  1  0  0  0  0
 10 11  1  0  0  0  0
 10 18  1  0  0  0  0
 11 19  1  0  0  0  0
 12 13  2  0  0  0  0
 12 20  1  0  0  0  0
 13 21  1  0  0  0  0
M  END
> <PUBCHEM_COMPOUND_CID>
6863

> <PUBCHEM_COMPOUND_CANONICALIZED>
1

> <PUBCHEM_CACTVS_COMPLEXITY>
227

> <PUBCHEM_CACTVS_HBOND_ACCEPTOR>
2

> <PUBCHEM_CACTVS_HBOND_DONOR>
2

> <PUBCHEM_CACTVS_ROTATABLE_BOND>
1

> <PUBCHEM_CACTVS_SUBSKEYS>
AAADccBzAABAAAAAAAAAAAAAAAAAAAAAAAAwYAAAAAAAAADBUAAAHAQQAAAADAiBGAAxwMJAAASgAiRCZACCEAEgAgAIiAAAZIgIICKAkZGAIABggAAIyAcQgIAOgAAAQAASAAAAAACAACQAAAAAAAAAAA==

> <PUBCHEM_IUPAC_OPENEYE_NAME>
3-(1-naphthyl)isothiourea

> <PUBCHEM_IUPAC_CAS_NAME>
N'-(1-naphthalenyl)carbamimidothioic acid

> <PUBCHEM_IUPAC_NAME>
N'-naphthalen-1-ylcarbamimidothioic acid

> <PUBCHEM_IUPAC_SYSTEMATIC_NAME>
N'-naphthalen-1-ylcarbamimidothioic acid

> <PUBCHEM_IUPAC_TRADITIONAL_NAME>
3-(1-naphthyl)isothiourea

> <PUBCHEM_IUPAC_INCHI>
InChI=1S/C11H10N2S/c12-11(14)13-10-7-3-5-8-4-1-2-6-9(8)10/h1-7H,(H3,12,13,14)

> <PUBCHEM_IUPAC_INCHIKEY>
PIVQQUNOTICCSA-UHFFFAOYSA-N

> <PUBCHEM_XLOGP3>
2.6

> <PUBCHEM_EXACT_MASS>
202.056469

> <PUBCHEM_MOLECULAR_FORMULA>
C11H10N2S

> <PUBCHEM_MOLECULAR_WEIGHT>
202.2755

> <PUBCHEM_OPENEYE_CAN_SMILES>
C1=CC=C2C(=C1)C=CC=C2N=C(N)S

> <PUBCHEM_OPENEYE_ISO_SMILES>
C1=CC=C2C(=C1)C=CC=C2N=C(N)S

> <PUBCHEM_CACTVS_TPSA>
39.4

> <PUBCHEM_MONOISOTOPIC_WEIGHT>
202.056469

> <PUBCHEM_TOTAL_CHARGE>
0

> <PUBCHEM_HEAVY_ATOM_COUNT>
14

> <PUBCHEM_ATOM_DEF_STEREO_COUNT>
0

> <PUBCHEM_ATOM_UDEF_STEREO_COUNT>
0

> <PUBCHEM_BOND_DEF_STEREO_COUNT>
0

> <PUBCHEM_BOND_UDEF_STEREO_COUNT>
0

> <PUBCHEM_ISOTOPIC_ATOM_COUNT>
0

> <PUBCHEM_COMPONENT_COUNT>
1

> <PUBCHEM_CACTVS_TAUTO_COUNT>
3

> <PUBCHEM_COORDINATE_TYPE>
1
5
255

> <PUBCHEM_BONDANNOTATIONS>
10  11  8
12  13  8
4  5  8
4  6  8
4  8  8
5  7  8
5  9  8
6  10  8
7  11  8
8  12  8
9  13  8

$$$$

