   Color/Form
        SLIGHTLY YELLOW LIQUID
   from [1]HSDB

   Boiling Point
        175-177 DEG C
   from [2]HSDB

   Density/Specific Gravity
        0.9422 at 20 deg C/4 deg C
   from [3]HSDB

   Octanol/Water Partition Coefficient
        log Kow= 0.48
   from [4]HSDB

   Solubilities

     * SOL IN ALC, ETHER
     * SOL IN ORGANIC SOLVENTS & LIPIDS
     * High water solubility (ca 10%)

   from [5]HSDB

   Spectral Properties

     * INDEX OF REFRACTION: 1.4388 @ 20 DEG C/D
     * MAX ABSORPTION (ALCOHOL): 233 NM (LOG E= 3.7); 350 NM (LOG E= 1.95)
     * Ultraviolet absorption maxima values; Solvent: Light Petroleum (233
       nm, 366 nm, 378 nm), Ethanol (233 nm, 350 nm), water (230 nm, 340
       nm)
     * IR: 16910 (Sadtler Research Laboratories IR Grating Collection)
     * UV: 4-24 (Organic Electronic Spectral Data, Phillips et al, John
       Wiley & Sons, New York)
     * NMR: 8951 (Sadtler Research Laboratories Spectral Collection)
     * MASS: 37 (Aldermaston, Eight Peak Index of Mass Spectra, UK)

   from [6]HSDB

   Vapor Pressure
        0.16, 0.40, 0.86, 1.6, 2.7 mm Hg at 0, 10, 20, 30 and 40 deg C,
   respectively.
   from [7]HSDB

   Other Chemical/Physical Properties

     * Henry's Law constant = 30X10-5 (7.3X10-6 atm-cu m/mol) at 37 deg C;
       at 25 deg C, Henry's Law constant is 55% that at 37 deg C. [Mirvish
       SS et al; J Natl Cancer Inst 56: 1125-9 (1976)] [8]PubMed Abstract
     * CAN BE OXIDIZED BY STRONG OXIDANTS TO CORRESPONDING NITRAMINE & CAN
       BE REDUCED BY VARIOUS REDUCING AGENTS TO HYDRAZINE OR AMINE.

   from [9]HSDB

   Computed Properties
   Molecular Weight                  102.135 [g/mol]
   Molecular Formula                 C[4]H[10]N[2]O
   XLogP3                            0.5
   H-Bond Donor                      0
   H-Bond Acceptor                   3
   Rotatable Bond Count              2
   Exact Mass                        102.079313
   MonoIsotopic Mass                 102.079313
   Topological Polar Surface Area    32.7
   Heavy Atom Count                  7
   Formal Charge                     0
   Complexity                        51.7
   Isotope Atom Count                0
   Defined Atom Stereocenter Count   0
   Undefined Atom Stereocenter Count 0
   Defined Bond Stereocenter Count   0
   Undefined Bond Stereocenter Count 0
   Covalently-Bonded Unit Count      1
   Effective Rotor Count             3
   Conformer Sampling RMSD           0.4
   CID Conformer Count               [10]51

References

   1. http://toxnet.nlm.nih.gov/cgi-bin/sis/search/r?dbs+hsdb:@term+@rn+@rel+55-18-5
   2. http://toxnet.nlm.nih.gov/cgi-bin/sis/search/r?dbs+hsdb:@term+@rn+@rel+55-18-5
   3. http://toxnet.nlm.nih.gov/cgi-bin/sis/search/r?dbs+hsdb:@term+@rn+@rel+55-18-5
   4. http://toxnet.nlm.nih.gov/cgi-bin/sis/search/r?dbs+hsdb:@term+@rn+@rel+55-18-5
   5. http://toxnet.nlm.nih.gov/cgi-bin/sis/search/r?dbs+hsdb:@term+@rn+@rel+55-18-5
   6. http://toxnet.nlm.nih.gov/cgi-bin/sis/search/r?dbs+hsdb:@term+@rn+@rel+55-18-5
   7. http://toxnet.nlm.nih.gov/cgi-bin/sis/search/r?dbs+hsdb:@term+@rn+@rel+55-18-5
   8. http://www.ncbi.nlm.nih.gov/entrez/query.fcgi?cmd=Retrieve&db=pubmed&dopt=Abstract&list_uids=994213
   9. http://toxnet.nlm.nih.gov/cgi-bin/sis/search/r?dbs+hsdb:@term+@rn+@rel+55-18-5
  10. http://pubchem.ncbi.nlm.nih.gov/vw3d/vw3d.cgi?cid=5921
