257279
  -OEChem-07051212572D

 38 40  0     1  0  0  0  0  0999 V2000
    4.1393   -2.4730    0.0000 O   0  0  0  0  0  0  0  0  0  0  0  0
    5.1482    2.5148    0.0000 O   0  0  0  0  0  0  0  0  0  0  0  0
    6.8881    2.8730    0.0000 O   0  0  0  0  0  0  0  0  0  0  0  0
    4.0984   -0.5040    0.0000 C   0  0  2  0  0  0  0  0  0  0  0  0
    3.9624   -1.4887    0.0000 C   0  0  1  0  0  0  0  0  0  0  0  0
    4.9994   -0.0701    0.0000 C   0  0  0  0  0  0  0  0  0  0  0  0
    3.1974   -0.0701    0.0000 C   0  0  0  0  0  0  0  0  0  0  0  0
    5.2219    0.9048    0.0000 C   0  0  1  0  0  0  0  0  0  0  0  0
    2.9842   -1.6654    0.0000 C   0  0  0  0  0  0  0  0  0  0  0  0
    2.5124   -0.7904    0.0000 C   0  0  0  0  0  0  0  0  0  0  0  0
    4.5984    1.6866    0.0000 C   0  0  1  0  0  0  0  0  0  0  0  0
    2.9749    0.9048    0.0000 C   0  0  0  0  0  0  0  0  0  0  0  0
    3.5984    1.6866    0.0000 C   0  0  0  0  0  0  0  0  0  0  0  0
    4.9531   -1.6247    0.0000 C   0  0  0  0  0  0  0  0  0  0  0  0
    6.1517    1.2565    0.0000 C   0  0  0  0  0  0  0  0  0  0  0  0
    2.0000    1.1273    0.0000 C   0  0  0  0  0  0  0  0  0  0  0  0
    6.1062    2.2496    0.0000 C   0  0  0  0  0  0  0  0  0  0  0  0
    6.9872    0.7071    0.0000 C   0  0  0  0  0  0  0  0  0  0  0  0
    4.7854   -1.0045    0.0000 H   0  0  0  0  0  0  0  0  0  0  0  0
    5.1374   -0.6746    0.0000 H   0  0  0  0  0  0  0  0  0  0  0  0
    5.6194   -0.0701    0.0000 H   0  0  0  0  0  0  0  0  0  0  0  0
    5.8627    0.3464    0.0000 H   0  0  0  0  0  0  0  0  0  0  0  0
    2.4105   -1.9007    0.0000 H   0  0  0  0  0  0  0  0  0  0  0  0
    3.1579   -2.2606    0.0000 H   0  0  0  0  0  0  0  0  0  0  0  0
    2.1105   -0.3183    0.0000 H   0  0  0  0  0  0  0  0  0  0  0  0
    2.0006   -1.1404    0.0000 H   0  0  0  0  0  0  0  0  0  0  0  0
    4.1966    2.4357    0.0000 H   0  0  0  0  0  0  0  0  0  0  0  0
    3.7364    2.2911    0.0000 H   0  0  0  0  0  0  0  0  0  0  0  0
    3.0398    1.9556    0.0000 H   0  0  0  0  0  0  0  0  0  0  0  0
    4.8688   -2.2389    0.0000 H   0  0  0  0  0  0  0  0  0  0  0  0
    5.5674   -1.7090    0.0000 H   0  0  0  0  0  0  0  0  0  0  0  0
    5.0374   -1.0104    0.0000 H   0  0  0  0  0  0  0  0  0  0  0  0
    3.6656   -2.8730    0.0000 H   0  0  0  0  0  0  0  0  0  0  0  0
    2.1380    1.7318    0.0000 H   0  0  0  0  0  0  0  0  0  0  0  0
    1.3955    1.2653    0.0000 H   0  0  0  0  0  0  0  0  0  0  0  0
    1.8620    0.5229    0.0000 H   0  0  0  0  0  0  0  0  0  0  0  0
    6.9512    0.0881    0.0000 H   0  0  0  0  0  0  0  0  0  0  0  0
    7.5412    0.9854    0.0000 H   0  0  0  0  0  0  0  0  0  0  0  0
  5  1  1  6  0  0  0
  1 33  1  0  0  0  0
  2 11  1  0  0  0  0
  2 17  1  0  0  0  0
  3 17  2  0  0  0  0
  4  5  1  0  0  0  0
  4  6  1  0  0  0  0
  4  7  1  0  0  0  0
  4 19  1  6  0  0  0
  5  9  1  0  0  0  0
  5 14  1  0  0  0  0
  6  8  1  0  0  0  0
  6 20  1  0  0  0  0
  6 21  1  0  0  0  0
  7 10  1  0  0  0  0
  7 12  2  0  0  0  0
  8 11  1  0  0  0  0
  8 15  1  0  0  0  0
  8 22  1  6  0  0  0
  9 10  1  0  0  0  0
  9 23  1  0  0  0  0
  9 24  1  0  0  0  0
 10 25  1  0  0  0  0
 10 26  1  0  0  0  0
 11 13  1  0  0  0  0
 11 27  1  6  0  0  0
 12 13  1  0  0  0  0
 12 16  1  0  0  0  0
 13 28  1  0  0  0  0
 13 29  1  0  0  0  0
 14 30  1  0  0  0  0
 14 31  1  0  0  0  0
 14 32  1  0  0  0  0
 15 17  1  0  0  0  0
 15 18  2  0  0  0  0
 16 34  1  0  0  0  0
 16 35  1  0  0  0  0
 16 36  1  0  0  0  0
 18 37  1  0  0  0  0
 18 38  1  0  0  0  0
M  END
> <PUBCHEM_COMPOUND_CID>
257279

> <PUBCHEM_COMPOUND_CANONICALIZED>
1

> <PUBCHEM_CACTVS_COMPLEXITY>
462

> <PUBCHEM_CACTVS_HBOND_ACCEPTOR>
3

> <PUBCHEM_CACTVS_HBOND_DONOR>
1

> <PUBCHEM_CACTVS_ROTATABLE_BOND>
0

> <PUBCHEM_CACTVS_SUBSKEYS>
AAADceBwMAAAAAAAAAAAAAAAAAAAAaIAAAAAAAAABAAAAACAAAAAGgAACAAADVSggAICCAAABgCIAgDSCAAAAAAgAAAACAEAAEgABBIAIQACQAAEwAAIIIOK6PyOgAAAAAAAAAAAAAAAAAAAAAAADAAAAA==

> <PUBCHEM_IUPAC_OPENEYE_NAME>
(3aR,8R,8aR,9aR)-8-hydroxy-5,8-dimethyl-1-methylene-4,6,7,8a,9,9a-hexahydro-3aH-azuleno[6,5-b]furan-2-one

> <PUBCHEM_IUPAC_CAS_NAME>
(3aR,8R,8aR,9aR)-8-hydroxy-5,8-dimethyl-1-methylene-4,6,7,8a,9,9a-hexahydro-3aH-azuleno[6,5-b]furan-2-one

> <PUBCHEM_IUPAC_NAME>
(3aR,8R,8aR,9aR)-8-hydroxy-5,8-dimethyl-1-methylidene-4,6,7,8a,9,9a-hexahydro-3aH-azuleno[6,5-b]furan-2-one

> <PUBCHEM_IUPAC_SYSTEMATIC_NAME>
(3aR,8R,8aR,9aR)-5,8-dimethyl-1-methylidene-8-oxidanyl-4,6,7,8a,9,9a-hexahydro-3aH-azuleno[6,5-b]furan-2-one

> <PUBCHEM_IUPAC_TRADITIONAL_NAME>
(3aR,8R,8aR,9aR)-8-hydroxy-5,8-dimethyl-1-methylene-4,6,7,8a,9,9a-hexahydro-3aH-azuleno[6,5-b]furan-2-one

> <PUBCHEM_IUPAC_INCHI>
InChI=1S/C15H20O3/c1-8-6-13-11(9(2)14(16)18-13)7-12-10(8)4-5-15(12,3)17/h11-13,17H,2,4-7H2,1,3H3/t11-,12-,13-,15-/m1/s1

> <PUBCHEM_IUPAC_INCHIKEY>
CLYBLORMANTURF-RGCMKSIDSA-N

> <PUBCHEM_XLOGP3_AA>
1.3

> <PUBCHEM_EXACT_MASS>
248.141245

> <PUBCHEM_MOLECULAR_FORMULA>
C15H20O3

> <PUBCHEM_MOLECULAR_WEIGHT>
248.3175

> <PUBCHEM_OPENEYE_CAN_SMILES>
CC1=C2CCC(C2CC3C(C1)OC(=O)C3=C)(C)O

> <PUBCHEM_OPENEYE_ISO_SMILES>
CC1=C2CC[C@@]([C@@H]2C[C@H]3[C@@H](C1)OC(=O)C3=C)(C)O

> <PUBCHEM_CACTVS_TPSA>
46.5

> <PUBCHEM_MONOISOTOPIC_WEIGHT>
248.141245

> <PUBCHEM_TOTAL_CHARGE>
0

> <PUBCHEM_HEAVY_ATOM_COUNT>
18

> <PUBCHEM_ATOM_DEF_STEREO_COUNT>
4

> <PUBCHEM_ATOM_UDEF_STEREO_COUNT>
0

> <PUBCHEM_BOND_DEF_STEREO_COUNT>
0

> <PUBCHEM_BOND_UDEF_STEREO_COUNT>
0

> <PUBCHEM_ISOTOPIC_ATOM_COUNT>
0

> <PUBCHEM_COMPONENT_COUNT>
1

> <PUBCHEM_CACTVS_TAUTO_COUNT>
1

> <PUBCHEM_COORDINATE_TYPE>
1
5
255

> <PUBCHEM_BONDANNOTATIONS>
5  1  6
11  27  6
4  19  6
8  22  6

$$$$

