   Color/Form

     * CRYSTALS
     * NEEDLES

   from [1]HSDB

   Melting Point
        Decomposes at 235-236 deg C
   from [2]HSDB

   Solubilities
        Insol in benzene, ethanol; slightly soluble in water.
   from [3]HSDB

   Spectral Properties

     * SPECIFIC OPTICAL ROTATION: -4.4 DEG @ 20 DEG C/D (3% IN 0.13 N
       SODIUM HYDROXIDE IN 70% ETHANOL)
     * SPECIFIC OPTICAL ROTATION: -3.2 DEG @ 25 DEG C, 546 MM HG (0.66 G
       IN 6.07 G 0.5 N SODIUM HYDROXIDE & 13.03 G ALC)

   from [4]HSDB

   Other Chemical/Physical Properties

     * ODORLESS & TASTELESS; DENSITY 2.381 @ 20 DEG C/4 DEG C /SODIUM
       SALT, PENTAHYDRATE/
     * PH OF SATURATED WATER SOLN: 8.35-9.35; SOMEWHAT HYGROSCOPIC /SODIUM
       SALT, PENTAHYDRATE/
     * TRICLINIC CRYSTALS OR CREAM-COLORED POWDER /SODIUM PENTAHYDRATE/
     * NEEDLE-LIKE CRYSTALS /DL-THYROXINE/
     * INSOL IN WATER, ALC & OTHER ORG SOLVENTS; SOL IN ALKALI HYDROXIDES,
       HOT ALKALI CARBONATES; SOL IN ALC IN PRESENCE OF MINERAL ACIDS; SOL
       IN ALC IN PRESENCE OF MINERAL ALKALIES /DL-THYROXINE/
     * SOL IN MINERAL ACIDS; MORE SOL IN ALC /SODIUM SALT, PENTAHYDRATE/
     * 15 MG/100 ML SOL IN WATER @ 25 DEG; SOL IN ALKALI HYDROXIDES &
       CARBONATES; VERY SLIGHTLY SOL IN CHLOROFORM, ETHER /SODIUM
       PENTAHYDRATE/
     * SPECIFIC OPTICAL ROTATION: -4.4 DEG @ 20 DEG C/D (C= 3 IN 70%
       ETHANOL) /SODIUM SALT, PENTAHYDRATE/

   from [5]HSDB

   Computed Properties
   Molecular Weight                  776.87002 [g/mol]
   Molecular Formula                 C[15]H[11]I[4]NO[4]
   XLogP3-AA                         2.4
   H-Bond Donor                      3
   H-Bond Acceptor                   5
   Rotatable Bond Count              5
   Tautomer Count                    2
   Exact Mass                        776.6867
   MonoIsotopic Mass                 776.6867
   Topological Polar Surface Area    92.8
   Heavy Atom Count                  24
   Formal Charge                     0
   Complexity                        420
   Isotope Atom Count                0
   Defined Atom Stereocenter Count   1
   Undefined Atom Stereocenter Count 0
   Defined Bond Stereocenter Count   0
   Undefined Bond Stereocenter Count 0
   Covalently-Bonded Unit Count      1
   Feature 3D Acceptor Count         3
   Feature 3D Donor Count            2
   Feature 3D Anion Count            1
   Feature 3D Cation Count           1
   Feature 3D Hydrophobe Count       4
   Feature 3D Ring Count             2
   Effective Rotor Count             5
   Conformer Sampling RMSD           0.8
   CID Conformer Count               [6]23

References

   1. http://toxnet.nlm.nih.gov/cgi-bin/sis/search/r?dbs+hsdb:@term+@rn+@rel+51-48-9
   2. http://toxnet.nlm.nih.gov/cgi-bin/sis/search/r?dbs+hsdb:@term+@rn+@rel+51-48-9
   3. http://toxnet.nlm.nih.gov/cgi-bin/sis/search/r?dbs+hsdb:@term+@rn+@rel+51-48-9
   4. http://toxnet.nlm.nih.gov/cgi-bin/sis/search/r?dbs+hsdb:@term+@rn+@rel+51-48-9
   5. http://toxnet.nlm.nih.gov/cgi-bin/sis/search/r?dbs+hsdb:@term+@rn+@rel+51-48-9
   6. http://pubchem.ncbi.nlm.nih.gov/vw3d/vw3d.cgi?cid=5819
