   Color/Form

     * White crystalline powder
     * Needles or plates (water +1)

   from [1]HSDB

   Odor
        Odorless
   from [2]HSDB

   Taste
        Bitter
   from [3]HSDB

   Melting Point
        270-274 deg C
   from [4]HSDB

   Dissociation Constants
        pKa = 8.81
   from [5]HSDB

   Octanol/Water Partition Coefficient
        log Kow= - 0.02
   from [6]HSDB

   pH
        A saturated solution in water is faintly acid.
   from [7]HSDB

   Solubilities

     * Slightly soluble in alcohol; more soluble in hot water; soluble in
       alkaline solutions
     * In water, 7,360 mg/L at 25 deg C

   from [8]HSDB

   Spectral Properties

     * MAX ABSORPTION (ALCOHOL): 270 NM (LOG E= 3.98)
     * IR: 493 (Sadtler Research Laboratories Prism Collection)
     * UV: 174 (Sadtler Research Laboratories Spectral Collection)
     * MASS: 107179 (NIST/EPA/MSDC Mass Spectral database, 1990 version)
     * Intense mass spectral peaks: 68 m/z, 95 m/z, 180 m/z

   from [9]HSDB

   Vapor Pressure
        5.1X10-9 mm Hg at 25 deg C (est)
   from [10]HSDB

   Other Chemical/Physical Properties

     * Henry's Law constant = 1.79X10-14 atm-cu m/mol at 25 deg C (est)
     * Hydroxyl radical reaction rate constant = 1.9X10-11 cu cm/molec-sec
       at 25 deg C (est)
     * Incompatible with tannins.
     * Thin monoclinic tablets from water, mp 270-274 deg C. Bitter taste.
       pKa (25 deg C): 8.77; pKb: 13.5, 11.5. One g dissolves in 120 mL
       water, 80 ml alcohol, about 110 mL chloroform. Sol in hot water, in
       alkali hydroxides, ammonia; dilute hydrochloric acid or nitric
       acid. UV max (0.1N NaOH): 274 nm /Monohydrate/
     * ODORLESS, ALMOST TASTELESS POWDER, SLIGHTLY SOLUBLE IN WATER
       /CALCIUM SALICYLATE SALT OF THEOPHYLLINE/
     * WHITE, ODORLESS POWD, BITTER TASTE /DIETHANOLAMINE/
     * Mol wt 241.25. White crystalline, nonhygroscopic powder containing
       75% anhydrous theophylline and 25% ethanolamine. Soluble in water.
       /Ethanolamine/
     * Prisms from alcohol. Very soluble in water. pH of aqueous solution
       9.20 /Isopropanolamine/
     * Equimolar mixture of theophylline sodium and sodium acetate. ...
       White, odorless, crystalline powder; bitter taste. Sol in about 25
       parts water. Insol in alc, chloroform or ether /Sodium acetate
       salt/
     * WHITE GRANULES, ABOUT 60% ANHYDROUS THEOPHYLLINE /THEOPHYLLINE
       CHOLINATE/
     * WHITE CRYSTALLINE POWDER /THEOPHYLLINE CHOLINATE/
     * Equimolar mixture of theophylline sodium and glycine. Darkens at
       180 deg C. Solubility in water 18% w/v. Saturated soln has pH of
       8.7-9.1, density: 1.05 at 20 deg C and is stable to carbon dioxide.
       /Sodium glycinate/
     * VERY SOL IN WATER, ALC /SODIUM SALICYLATE SALT OF THEOPHYLLINE/

   from [11]HSDB

   Computed Properties
   Molecular Weight                  180.16402 [g/mol]
   Molecular Formula                 C[7]H[8]N[4]O[2]
   XLogP3                            0
   H-Bond Donor                      1
   H-Bond Acceptor                   3
   Rotatable Bond Count              0
   Tautomer Count                    4
   Exact Mass                        180.064726
   MonoIsotopic Mass                 180.064726
   Topological Polar Surface Area    69.3
   Heavy Atom Count                  13
   Formal Charge                     0
   Complexity                        267
   Isotope Atom Count                0
   Defined Atom Stereocenter Count   0
   Undefined Atom Stereocenter Count 0
   Defined Bond Stereocenter Count   0
   Undefined Bond Stereocenter Count 0
   Covalently-Bonded Unit Count      1
   Feature 3D Acceptor Count         2
   Feature 3D Donor Count            1
   Feature 3D Cation Count           1
   Feature 3D Ring Count             2
   Effective Rotor Count             0
   Conformer Sampling RMSD           0.4
   CID Conformer Count               [12]1

References

   1. http://toxnet.nlm.nih.gov/cgi-bin/sis/search/r?dbs+hsdb:@term+@rn+@rel+58-55-9
   2. http://toxnet.nlm.nih.gov/cgi-bin/sis/search/r?dbs+hsdb:@term+@rn+@rel+58-55-9
   3. http://toxnet.nlm.nih.gov/cgi-bin/sis/search/r?dbs+hsdb:@term+@rn+@rel+58-55-9
   4. http://toxnet.nlm.nih.gov/cgi-bin/sis/search/r?dbs+hsdb:@term+@rn+@rel+58-55-9
   5. http://toxnet.nlm.nih.gov/cgi-bin/sis/search/r?dbs+hsdb:@term+@rn+@rel+58-55-9
   6. http://toxnet.nlm.nih.gov/cgi-bin/sis/search/r?dbs+hsdb:@term+@rn+@rel+58-55-9
   7. http://toxnet.nlm.nih.gov/cgi-bin/sis/search/r?dbs+hsdb:@term+@rn+@rel+58-55-9
   8. http://toxnet.nlm.nih.gov/cgi-bin/sis/search/r?dbs+hsdb:@term+@rn+@rel+58-55-9
   9. http://toxnet.nlm.nih.gov/cgi-bin/sis/search/r?dbs+hsdb:@term+@rn+@rel+58-55-9
  10. http://toxnet.nlm.nih.gov/cgi-bin/sis/search/r?dbs+hsdb:@term+@rn+@rel+58-55-9
  11. http://toxnet.nlm.nih.gov/cgi-bin/sis/search/r?dbs+hsdb:@term+@rn+@rel+58-55-9
  12. http://pubchem.ncbi.nlm.nih.gov/vw3d/vw3d.cgi?cid=2153
