   Color/Form

     * WHITE CRYSTALINE SOLID
     * ORTHORHOMBIC
     * LEAFLETS OR NEEDLES

   from [1]HSDB

   Odor
        Practically odorless
   from [2]HSDB

   Boiling Point
        309 DEG C
   from [3]HSDB

   Melting Point
        133 DEG C
   from [4]HSDB

   Density/Specific Gravity
        1.453 g/cu-cm at 4 deg C
   from [5]HSDB

   Dissociation Constants
        pKa = 9.01
   from [6]HSDB

   Heat of Combustion
        2.673 MJ/mol
   from [7]HSDB

   Solubilities

     * 1 G DISSOLVES IN 1.7 ML WATER, 1.3 ML ALCOHOL, 1.6 ML ETHER;
       SLIGHTLY SOL IN BENZENE, CHLOROFORM, CARBON DISULFIDE
     * VERY SOL IN AMMONIA
     * Soluble in oxygenated solvents
     * Water solubility = 5.07X10+5 mg/l

   from [8]HSDB

   Spectral Properties

     * INDEX OF REFRACTION: 1.492 (ALPHA), 1.712 (GAMMA); AXIAL ANGLE:
       SMALL
     * SADTLER REFERENCE NUMBER: 8766 (IR, PRISM); 8542 (IR, GRATING); MAX
       ABSORPTION (ALCOHOL): 266 NM (LOG E= 2.92); INDEX OF REFRACTION:
       1.561 AT 134 DEG C/D
     * IR: 5764 (Coblentz Society Spectral Collection)
     * UV: 2278 (Sadtler Research Laboratories Spectral Collection)
     * NMR: 3225 (Sadtler Research Laboratories Spectral Collection)
     * MASS: 68 (Aldermaston, Eight Peak Index of Mass Spectra, UK)

   from [9]HSDB

   Vapor Pressure
        4.79X10-4 mm Hg @ 25 deg C /extrapolated/
   from [10]HSDB

   Other Chemical/Physical Properties

     * CONVERSION FACTORS: 1 MG/L IS EQUIVALENT TO 194 PPM & 1 PPM IS
       EQUIVALENT TO 0.00515 MG/L @ 25 DEG C & 760 MM HG
     * SUBLIMES WHEN SLOWLY HEATED
     * IR: 27464 (Sadtler Research Laboratories IR Grating Collection)
       /Benzene, 1,2,4-trihydroxy/
     * UV: 1-90 (Organic Electronic Spectral Data, Phillips et al, John
       Wiley & Sons, New York) /Benzene, 1,2,4-trihydroxy/
     * NMR: 16357 (Sadtler Research Laboratories Spectral Collection)
       /Benzene, 1,2,4-trihydroxy/
     * IR: 1114 (Coblentz Society Spectral Collection) /Benzene,
       1,3,5-trihydroxy/
     * UV: 2-62 (Organic Electronic Spectral Data, Phillips et al, John
       Wiley & Sons, New York) /Benzene, 1,3,5-trihydroxy/
     * NMR: 8777 (Sadtler Research Laboratories Spectral Collection)
       /Benzene, 1,3,5-trihydroxy/
     * Becomes grayish on exposure to light and air; the aqueous solution
       darkens on exposure to air, quite rapidly when alkaline
     * Strongest reducing agent among benzenepolyols, therefore oxidized
       rapidly in air

   from [11]HSDB

   Computed Properties
   Molecular Weight                  126.11004 [g/mol]
   Molecular Formula                 C[6]H[6]O[3]
   XLogP3                            0.5
   H-Bond Donor                      3
   H-Bond Acceptor                   3
   Rotatable Bond Count              0
   Tautomer Count                    11
   Exact Mass                        126.031694
   MonoIsotopic Mass                 126.031694
   Topological Polar Surface Area    60.7
   Heavy Atom Count                  9
   Formal Charge                     0
   Complexity                        84.3
   Isotope Atom Count                0
   Defined Atom Stereocenter Count   0
   Undefined Atom Stereocenter Count 0
   Defined Bond Stereocenter Count   0
   Undefined Bond Stereocenter Count 0
   Covalently-Bonded Unit Count      1
   Feature 3D Donor Count            3
   Feature 3D Ring Count             1
   Effective Rotor Count             0
   Conformer Sampling RMSD           0.4
   CID Conformer Count               [12]1

References

   1. http://toxnet.nlm.nih.gov/cgi-bin/sis/search/r?dbs+hsdb:@term+@rn+@rel+87-66-1
   2. http://toxnet.nlm.nih.gov/cgi-bin/sis/search/r?dbs+hsdb:@term+@rn+@rel+87-66-1
   3. http://toxnet.nlm.nih.gov/cgi-bin/sis/search/r?dbs+hsdb:@term+@rn+@rel+87-66-1
   4. http://toxnet.nlm.nih.gov/cgi-bin/sis/search/r?dbs+hsdb:@term+@rn+@rel+87-66-1
   5. http://toxnet.nlm.nih.gov/cgi-bin/sis/search/r?dbs+hsdb:@term+@rn+@rel+87-66-1
   6. http://toxnet.nlm.nih.gov/cgi-bin/sis/search/r?dbs+hsdb:@term+@rn+@rel+87-66-1
   7. http://toxnet.nlm.nih.gov/cgi-bin/sis/search/r?dbs+hsdb:@term+@rn+@rel+87-66-1
   8. http://toxnet.nlm.nih.gov/cgi-bin/sis/search/r?dbs+hsdb:@term+@rn+@rel+87-66-1
   9. http://toxnet.nlm.nih.gov/cgi-bin/sis/search/r?dbs+hsdb:@term+@rn+@rel+87-66-1
  10. http://toxnet.nlm.nih.gov/cgi-bin/sis/search/r?dbs+hsdb:@term+@rn+@rel+87-66-1
  11. http://toxnet.nlm.nih.gov/cgi-bin/sis/search/r?dbs+hsdb:@term+@rn+@rel+87-66-1
  12. http://pubchem.ncbi.nlm.nih.gov/vw3d/vw3d.cgi?cid=1057
