   Chemical and Physical Properties References

   [1]USDA ARS - USDA chemical properties
   from [2]ChemIDplus

   Color/Form

     * White crystals
     * White, crystalline solid
     * Colorless crystals

   from [3]HSDB

   Odor

     * Ethyl ether-like
     * Weak, characteristic odor

   from [4]HSDB

   Boiling Point
        100 deg C at 0.1 mm Hg
   from [5]HSDB

   Melting Point
        77 deg C
   from [6]HSDB

   Corrosivity
        Corrosive to metals
   from [7]HSDB

   Density/Specific Gravity
        1.73 at 20 deg C
   from [8]HSDB

   Octanol/Water Partition Coefficient
        log Kow = 0.51
   from [9]HSDB

   Solubilities

     * Soluble in ethanol; sparsely soluble in diethyl ether and petroleum
       ether.
     * Solubility: 152 g/kg in benzene; 299 g/kg in dichloromethane; 200
       g/kg in isopropanol; 30 g/kg in toluene
     * Soluble in chloroform, ether; insoluble in oils
     * Poorly soluble in carbon tetrachloride
     * Readily soluble in 2-propanol; nearly insoluble in n-hexane
     * In water, 1.20X10+5 mg/L at 25 deg C

   from [10]HSDB

   Spectral Properties

     * Index of refraction = 1.3439 at 20 deg C/D
     * Intense mass spectral peaks: 145 m/z, 185 m/z, 220 m/z

   from [11]HSDB

   Vapor Pressure
        7.8X10-6 mm Hg at 20 deg C [Freed VH et al; Environ Health
   Perspect 20: 55-70 (1977)] [12]PubMed Abstract
   from [13]HSDB

   Other Chemical/Physical Properties

     * Decomposed by alkali
     * Subject to hydrolysis and dehydrochlorination. Decomposition
       proceeds more rapidly with heating and above pH 6.
     * Henry's Law constant = 1.7X10-11 atm-cu m/mol at 20 deg C (est)
     * Hydroxyl radical reaction rate constant = 6.2X10-12 cu cm/molec-sec
       at 25 deg C (est)

   from [14]HSDB

   Computed Properties
   Molecular Weight                  257.436682 [g/mol]
   Molecular Formula                 C[4]H[8]Cl[3]O[4]P
   XLogP3                            0.5
   H-Bond Donor                      1
   H-Bond Acceptor                   4
   Rotatable Bond Count              3
   Exact Mass                        255.922578
   MonoIsotopic Mass                 255.922578
   Topological Polar Surface Area    55.8
   Heavy Atom Count                  12
   Formal Charge                     0
   Complexity                        183
   Isotope Atom Count                0
   Defined Atom Stereocenter Count   0
   Undefined Atom Stereocenter Count 1
   Defined Bond Stereocenter Count   0
   Undefined Bond Stereocenter Count 0
   Covalently-Bonded Unit Count      1
   Feature 3D Acceptor Count         2
   Feature 3D Donor Count            1
   Effective Rotor Count             4
   Conformer Sampling RMSD           0.6
   CID Conformer Count               [15]10

References

   1. http://www.ars.usda.gov/SP2UserFiles/ad_hoc/12755100DatabaseFiles/PesticidePropertiesDatabase/IndividualPesticideFiles/TRICHLORFON.TXT
   2. http://chem.sis.nlm.nih.gov/chemidplus/
   3. http://toxnet.nlm.nih.gov/cgi-bin/sis/search/r?dbs+hsdb:@term+@rn+@rel+52-68-6
   4. http://toxnet.nlm.nih.gov/cgi-bin/sis/search/r?dbs+hsdb:@term+@rn+@rel+52-68-6
   5. http://toxnet.nlm.nih.gov/cgi-bin/sis/search/r?dbs+hsdb:@term+@rn+@rel+52-68-6
   6. http://toxnet.nlm.nih.gov/cgi-bin/sis/search/r?dbs+hsdb:@term+@rn+@rel+52-68-6
   7. http://toxnet.nlm.nih.gov/cgi-bin/sis/search/r?dbs+hsdb:@term+@rn+@rel+52-68-6
   8. http://toxnet.nlm.nih.gov/cgi-bin/sis/search/r?dbs+hsdb:@term+@rn+@rel+52-68-6
   9. http://toxnet.nlm.nih.gov/cgi-bin/sis/search/r?dbs+hsdb:@term+@rn+@rel+52-68-6
  10. http://toxnet.nlm.nih.gov/cgi-bin/sis/search/r?dbs+hsdb:@term+@rn+@rel+52-68-6
  11. http://toxnet.nlm.nih.gov/cgi-bin/sis/search/r?dbs+hsdb:@term+@rn+@rel+52-68-6
  12. http://www.ncbi.nlm.nih.gov/entrez/query.fcgi?cmd=Retrieve&db=pubmed&dopt=Abstract&list_uids=598352
  13. http://toxnet.nlm.nih.gov/cgi-bin/sis/search/r?dbs+hsdb:@term+@rn+@rel+52-68-6
  14. http://toxnet.nlm.nih.gov/cgi-bin/sis/search/r?dbs+hsdb:@term+@rn+@rel+52-68-6
  15. http://pubchem.ncbi.nlm.nih.gov/vw3d/vw3d.cgi?cid=5853
