17395740
  -OEChem-06241222522D

 33 35  0     0  0  0  0  0  0999 V2000
    5.5443   -0.9387    0.0000 S   0  0  0  0  0  0  0  0  0  0  0  0
    7.1279   -1.8660    0.0000 O   0  0  0  0  0  0  0  0  0  0  0  0
    5.5443    0.6708    0.0000 N   0  0  0  0  0  0  0  0  0  0  0  0
    7.1279   -0.1340    0.0000 N   0  0  0  0  0  0  0  0  0  0  0  0
    9.1279   -1.8660    0.0000 N   0  0  0  0  0  0  0  0  0  0  0  0
    4.5981    0.3660    0.0000 C   0  0  0  0  0  0  0  0  0  0  0  0
    3.7320    0.8660    0.0000 C   0  0  0  0  0  0  0  0  0  0  0  0
    4.5981   -0.6340    0.0000 C   0  0  0  0  0  0  0  0  0  0  0  0
    2.8660   -0.6340    0.0000 C   0  0  0  0  0  0  0  0  0  0  0  0
    2.8660    0.3660    0.0000 C   0  0  0  0  0  0  0  0  0  0  0  0
    3.7320   -1.1340    0.0000 C   0  0  0  0  0  0  0  0  0  0  0  0
    6.1279   -0.1340    0.0000 C   0  0  0  0  0  0  0  0  0  0  0  0
    3.7320    1.8660    0.0000 C   0  0  0  0  0  0  0  0  0  0  0  0
    2.0000   -1.1340    0.0000 C   0  0  0  0  0  0  0  0  0  0  0  0
    7.6279   -1.0000    0.0000 C   0  0  0  0  0  0  0  0  0  0  0  0
    8.6279   -1.0000    0.0000 C   0  0  0  0  0  0  0  0  0  0  0  0
    9.1279   -0.1340    0.0000 C   0  0  0  0  0  0  0  0  0  0  0  0
   10.1279   -0.1340    0.0000 C   0  0  0  0  0  0  0  0  0  0  0  0
   10.6279   -1.0000    0.0000 C   0  0  0  0  0  0  0  0  0  0  0  0
   10.1279   -1.8660    0.0000 C   0  0  0  0  0  0  0  0  0  0  0  0
    2.3291    0.6760    0.0000 H   0  0  0  0  0  0  0  0  0  0  0  0
    3.7320   -1.7540    0.0000 H   0  0  0  0  0  0  0  0  0  0  0  0
    4.3520    1.8660    0.0000 H   0  0  0  0  0  0  0  0  0  0  0  0
    3.7320    2.4860    0.0000 H   0  0  0  0  0  0  0  0  0  0  0  0
    3.1120    1.8660    0.0000 H   0  0  0  0  0  0  0  0  0  0  0  0
    1.6900   -0.5970    0.0000 H   0  0  0  0  0  0  0  0  0  0  0  0
    1.4631   -1.4440    0.0000 H   0  0  0  0  0  0  0  0  0  0  0  0
    2.3100   -1.6709    0.0000 H   0  0  0  0  0  0  0  0  0  0  0  0
    7.4379    0.4030    0.0000 H   0  0  0  0  0  0  0  0  0  0  0  0
    8.8179    0.4030    0.0000 H   0  0  0  0  0  0  0  0  0  0  0  0
   10.4379    0.4030    0.0000 H   0  0  0  0  0  0  0  0  0  0  0  0
   11.2479   -1.0000    0.0000 H   0  0  0  0  0  0  0  0  0  0  0  0
   10.4379   -2.4030    0.0000 H   0  0  0  0  0  0  0  0  0  0  0  0
  1  8  1  0  0  0  0
  1 12  1  0  0  0  0
  2 15  2  0  0  0  0
  3  6  1  0  0  0  0
  3 12  2  0  0  0  0
  4 12  1  0  0  0  0
  4 15  1  0  0  0  0
  4 29  1  0  0  0  0
  5 16  1  0  0  0  0
  5 20  2  0  0  0  0
  6  7  2  0  0  0  0
  6  8  1  0  0  0  0
  7 10  1  0  0  0  0
  7 13  1  0  0  0  0
  8 11  2  0  0  0  0
  9 10  2  0  0  0  0
  9 11  1  0  0  0  0
  9 14  1  0  0  0  0
 10 21  1  0  0  0  0
 11 22  1  0  0  0  0
 13 23  1  0  0  0  0
 13 24  1  0  0  0  0
 13 25  1  0  0  0  0
 14 26  1  0  0  0  0
 14 27  1  0  0  0  0
 14 28  1  0  0  0  0
 15 16  1  0  0  0  0
 16 17  2  0  0  0  0
 17 18  1  0  0  0  0
 17 30  1  0  0  0  0
 18 19  2  0  0  0  0
 18 31  1  0  0  0  0
 19 20  1  0  0  0  0
 19 32  1  0  0  0  0
 20 33  1  0  0  0  0
M  END
> <PUBCHEM_COMPOUND_CID>
17395740

> <PUBCHEM_COMPOUND_CANONICALIZED>
1

> <PUBCHEM_CACTVS_COMPLEXITY>
365

> <PUBCHEM_CACTVS_HBOND_ACCEPTOR>
4

> <PUBCHEM_CACTVS_HBOND_DONOR>
1

> <PUBCHEM_CACTVS_ROTATABLE_BOND>
2

> <PUBCHEM_CACTVS_SUBSKEYS>
AAADccBzIABAAAAAAAAAAAAAAAAAAWAAAAA8QAAAAAAAAFgB/AAAHgQQAAAADAjB3gQ/0bLIEAisAzV3dACD8Kl3CjlJ2D24ZNiIYPLgnbGUIQhogQLIyacYiEAOCAACgAACAQAQAAUAAAQCAAAAAAAAAA==

> <PUBCHEM_IUPAC_OPENEYE_NAME>
N-(4,6-dimethyl-1,3-benzothiazol-2-yl)pyridine-2-carboxamide

> <PUBCHEM_IUPAC_CAS_NAME>
N-(4,6-dimethyl-1,3-benzothiazol-2-yl)-2-pyridinecarboxamide

> <PUBCHEM_IUPAC_NAME>
N-(4,6-dimethyl-1,3-benzothiazol-2-yl)pyridine-2-carboxamide

> <PUBCHEM_IUPAC_SYSTEMATIC_NAME>
N-(4,6-dimethyl-1,3-benzothiazol-2-yl)pyridine-2-carboxamide

> <PUBCHEM_IUPAC_TRADITIONAL_NAME>
N-(4,6-dimethyl-1,3-benzothiazol-2-yl)picolinamide

> <PUBCHEM_IUPAC_INCHI>
InChI=1S/C15H13N3OS/c1-9-7-10(2)13-12(8-9)20-15(17-13)18-14(19)11-5-3-4-6-16-11/h3-8H,1-2H3,(H,17,18,19)

> <PUBCHEM_IUPAC_INCHIKEY>
SBVUZGFPAVCGMS-UHFFFAOYSA-N

> <PUBCHEM_XLOGP3_AA>
3.5

> <PUBCHEM_EXACT_MASS>
283.077933

> <PUBCHEM_MOLECULAR_FORMULA>
C15H13N3OS

> <PUBCHEM_MOLECULAR_WEIGHT>
283.34822

> <PUBCHEM_OPENEYE_CAN_SMILES>
CC1=CC(=C2C(=C1)SC(=N2)NC(=O)C3=CC=CC=N3)C

> <PUBCHEM_OPENEYE_ISO_SMILES>
CC1=CC(=C2C(=C1)SC(=N2)NC(=O)C3=CC=CC=N3)C

> <PUBCHEM_CACTVS_TPSA>
83.1

> <PUBCHEM_MONOISOTOPIC_WEIGHT>
283.077933

> <PUBCHEM_TOTAL_CHARGE>
0

> <PUBCHEM_HEAVY_ATOM_COUNT>
20

> <PUBCHEM_ATOM_DEF_STEREO_COUNT>
0

> <PUBCHEM_ATOM_UDEF_STEREO_COUNT>
0

> <PUBCHEM_BOND_DEF_STEREO_COUNT>
0

> <PUBCHEM_BOND_UDEF_STEREO_COUNT>
0

> <PUBCHEM_ISOTOPIC_ATOM_COUNT>
0

> <PUBCHEM_COMPONENT_COUNT>
1

> <PUBCHEM_CACTVS_TAUTO_COUNT>
3

> <PUBCHEM_COORDINATE_TYPE>
1
3

> <PUBCHEM_BONDANNOTATIONS>
1  12  8
1  8  8
16  17  8
17  18  8
18  19  8
19  20  8
3  12  8
3  6  8
5  16  8
5  20  8
6  7  8
6  8  8
7  10  8
8  11  8
9  10  8
9  11  8

$$$$

