   Color/Form
        Yellow crystals from acetone or methanol
   from [1]HSDB

   Melting Point
        232-233 deg C
   from [2]HSDB

   Octanol/Water Partition Coefficient
        log Kow = 3.49 @ 25 deg C /Estimated/
   from [3]HSDB

   Solubilities
        In water, 62 mg/L @ 25 deg C /Estimated/
   from [4]HSDB

   Spectral Properties
        UV max: 225, 278 nm (logE = 4.14, 3.61)
   from [5]HSDB

   Vapor Pressure
        1.1X10-12 mm Hg @ 25 deg C /Estimated/
   from [6]HSDB

   Other Chemical/Physical Properties

     * Henry's Law constant = 2X10-12 atm-cu m/mol @ 25 deg C /Estimated/
     * Hydroxyl radical reaction rate constant = 2.6X10-10 cu cm/molec-sec
       @ 25 deg C /Estimated/

   from [7]HSDB

   Computed Properties
   Molecular Weight                  354.44274 [g/mol]
   Molecular Formula                 C[21]H[26]N[2]O[3]
   XLogP3-AA                         2.9
   H-Bond Donor                      1
   H-Bond Acceptor                   4
   Rotatable Bond Count              3
   Exact Mass                        354.194343
   MonoIsotopic Mass                 354.194343
   Topological Polar Surface Area    54.7
   Heavy Atom Count                  26
   Formal Charge                     0
   Complexity                        598
   Isotope Atom Count                0
   Defined Atom Stereocenter Count   3
   Undefined Atom Stereocenter Count 0
   Defined Bond Stereocenter Count   0
   Undefined Bond Stereocenter Count 0
   Covalently-Bonded Unit Count      1
   Feature 3D Acceptor Count         2
   Feature 3D Donor Count            1
   Feature 3D Cation Count           2
   Feature 3D Hydrophobe Count       1
   Feature 3D Ring Count             5
   Effective Rotor Count             4.4
   Conformer Sampling RMSD           0.8
   CID Conformer Count               [8]6

References

   1. http://toxnet.nlm.nih.gov/cgi-bin/sis/search/r?dbs+hsdb:@term+@rn+@rel+1617-90-9
   2. http://toxnet.nlm.nih.gov/cgi-bin/sis/search/r?dbs+hsdb:@term+@rn+@rel+1617-90-9
   3. http://toxnet.nlm.nih.gov/cgi-bin/sis/search/r?dbs+hsdb:@term+@rn+@rel+1617-90-9
   4. http://toxnet.nlm.nih.gov/cgi-bin/sis/search/r?dbs+hsdb:@term+@rn+@rel+1617-90-9
   5. http://toxnet.nlm.nih.gov/cgi-bin/sis/search/r?dbs+hsdb:@term+@rn+@rel+1617-90-9
   6. http://toxnet.nlm.nih.gov/cgi-bin/sis/search/r?dbs+hsdb:@term+@rn+@rel+1617-90-9
   7. http://toxnet.nlm.nih.gov/cgi-bin/sis/search/r?dbs+hsdb:@term+@rn+@rel+1617-90-9
   8. http://pubchem.ncbi.nlm.nih.gov/vw3d/vw3d.cgi?cid=15376
