   Color/Form

     * Monoclinic plates from alcohol recrystallization; when pure,
       colorless with violet fluorescence
     * When crystallized from benzene, colorless, lustrous plates are
       formed which exhibit a blue fluorescence
     * Yellow crystals with blue fluorescence
     * Pale yellow leaves

   from [1]HSDB

   Odor
        Weak aromatic odor
   from [2]HSDB

   Boiling Point
        342 deg C
   from [3]HSDB

   Melting Point
        218 deg C
   from [4]HSDB

   Density/Specific Gravity
        1.25 at 27 deg C/4 deg C
   from [5]HSDB

   Heat of Combustion
        40,110 kJ/kg at 25 deg C
   from [6]HSDB

   Heat of Vaporization
        294 kJ/kg
   from [7]HSDB

   Octanol/Water Partition Coefficient
        log Kow = 4.45
   from [8]HSDB

   Solubilities

     * One gram dissolves in 67 mL absolute alcohol, 70 mL methanol, 62 mL
       benzene, 85 mL chloroform, 200 mL ether, 31 mL carbon disulfide, 86
       mL carbon tetrachloride, 125 mL toluene.
     * Slightly soluble in acetone
     * 1.29 mg/L at 25 deg C in distilled water
     * 0.6 mg/L at 25 deg C in salt water
     * In water, 4.34X10-2 mg/L at 24 deg C

   from [9]HSDB

   Spectral Properties

     * MAX ABSORPTION (ALCOHOL): 218 NM (LOG E= 4.04); 252 NM (LOG E=
       3.23); 295 NM (LOG E= 2.78); 310 NM (LOG E= 3.11); 324 NM (LOG E=
       3.45 NM (LOG E= 3.73); 357 NM (LOG E= 3.89): 376 NM (LOG E= 3.87);
     * SADTLER REFERENCE NUMBER: 1319 (IR, PRISM); 239 (IR, GRATING)
     * Intense mass spectral peaks: 178 m/z (100%), 176 m/z (17%), 179 m/z
       (16%), 89 m/z (14%)
     * IR: 6027 (Coblentz Society Spectral Collection)
     * MASS: 141 (Aldermaston, Eight Peak Index of Mass Spectra, UK)
     * UV: 394 (Sadtler Research Laboratories Spectral Collection)
     * Raman: 1181 (Sadtler Research Laboratories Spectral Collection)

   from [10]HSDB

   Vapor Density
        6.15 (Air = 1.0)
   from [11]HSDB

   Vapor Pressure
        6.56X10-6 mm Hg at 25 deg C (exptrapolated)
   from [12]HSDB

   Other Chemical/Physical Properties

     * Strongly triboluminescent and triboelectric; forms molecular
       addition products with nitro cmpd
     * It has semiconducting properties
     * SUBLIMES AT 226.5 DEG C @ 53 MM HG
     * When impure (due to tetracene, naphthacene), yellow with green
       fluorescence
     * Anthracene darkens in sunlight.
     * Specific heat capacity 1,164 J/kg at 24 deg C; Heat of fusion 162
       kJ/kg.
     * VP: 1 mm Hg at 145 deg C (sublimes)
     * Henry's Law constant = 4.88X10-5 atm-cu m/mole at 25 deg C
     * Hydroxyl radical reaction rate constant = 1.1X10-10 cu-cm/molc sec
       at 25 deg C

   from [13]HSDB

   Computed Properties
   Molecular Weight                  178.2292 [g/mol]
   Molecular Formula                 C[14]H[10]
   XLogP3                            4.4
   H-Bond Donor                      0
   H-Bond Acceptor                   0
   Rotatable Bond Count              0
   Exact Mass                        178.07825
   MonoIsotopic Mass                 178.07825
   Topological Polar Surface Area    0
   Heavy Atom Count                  14
   Formal Charge                     0
   Complexity                        154
   Isotope Atom Count                0
   Defined Atom Stereocenter Count   0
   Undefined Atom Stereocenter Count 0
   Defined Bond Stereocenter Count   0
   Undefined Bond Stereocenter Count 0
   Covalently-Bonded Unit Count      1
   Feature 3D Ring Count             3
   Effective Rotor Count             0
   Conformer Sampling RMSD           0.4
   CID Conformer Count               [14]1

References

   1. http://toxnet.nlm.nih.gov/cgi-bin/sis/search/r?dbs+hsdb:@term+@rn+@rel+120-12-7
   2. http://toxnet.nlm.nih.gov/cgi-bin/sis/search/r?dbs+hsdb:@term+@rn+@rel+120-12-7
   3. http://toxnet.nlm.nih.gov/cgi-bin/sis/search/r?dbs+hsdb:@term+@rn+@rel+120-12-7
   4. http://toxnet.nlm.nih.gov/cgi-bin/sis/search/r?dbs+hsdb:@term+@rn+@rel+120-12-7
   5. http://toxnet.nlm.nih.gov/cgi-bin/sis/search/r?dbs+hsdb:@term+@rn+@rel+120-12-7
   6. http://toxnet.nlm.nih.gov/cgi-bin/sis/search/r?dbs+hsdb:@term+@rn+@rel+120-12-7
   7. http://toxnet.nlm.nih.gov/cgi-bin/sis/search/r?dbs+hsdb:@term+@rn+@rel+120-12-7
   8. http://toxnet.nlm.nih.gov/cgi-bin/sis/search/r?dbs+hsdb:@term+@rn+@rel+120-12-7
   9. http://toxnet.nlm.nih.gov/cgi-bin/sis/search/r?dbs+hsdb:@term+@rn+@rel+120-12-7
  10. http://toxnet.nlm.nih.gov/cgi-bin/sis/search/r?dbs+hsdb:@term+@rn+@rel+120-12-7
  11. http://toxnet.nlm.nih.gov/cgi-bin/sis/search/r?dbs+hsdb:@term+@rn+@rel+120-12-7
  12. http://toxnet.nlm.nih.gov/cgi-bin/sis/search/r?dbs+hsdb:@term+@rn+@rel+120-12-7
  13. http://toxnet.nlm.nih.gov/cgi-bin/sis/search/r?dbs+hsdb:@term+@rn+@rel+120-12-7
  14. http://pubchem.ncbi.nlm.nih.gov/vw3d/vw3d.cgi?cid=8418
