   Color/Form

     * Liquid
     * Water-white liquid

   from [1]HSDB

   Odor

     * SUFFOCATING, FRUITY
     * CHARACTERISTIC ODOR SIMILAR TO ACETALDEHYDE
     * Pungent, unpleasant
     * Choking odor

   from [2]HSDB

   Boiling Point
        48 deg C
   from [3]HSDB

   Melting Point
        -80 deg C
   from [4]HSDB

   Critical Temperature and Pressure
        Critical temperature: 433 deg F= 223 deg C= 496 deg K; critical
   pressure: 690 psia= 47 atm= 4.8 MN/square m
   from [5]HSDB

   Density/Specific Gravity
        0.8657 g/cu cm at 25 deg C
   from [6]HSDB

   Heat of Combustion
        1822.7 kJ/mol at 25 deg C (liquid)
   from [7]HSDB

   Heat of Vaporization
        29.62 kJ/mol at 25 deg C
   from [8]HSDB

   Octanol/Water Partition Coefficient
        log Kow = 0.59
   from [9]HSDB

   Solubilities

     * Soluble in water; miscible with ethanol, ethyl ether
     * SOL IN CHLOROFORM
     * In water, 3.06X10+5 mg/L at 25 deg C

   from [10]HSDB

   Spectral Properties

     * Index of refraction: 1.36460 at 19 deg C/D; 1.3695 at 16.6 deg
       C/580 nm
     * MAX ABSORPTION (WATER): 282 NM (LOG E= 0.9)
     * IR: 8348 (Sadtler Research Laboratories Prism Collection)
     * UV: 2-9 (Organic Electronic Spectral Data, Phillips et al, John
       Wiley & Sons, New York)
     * NMR: 14669 (Sadtler Research Laboratories Spectral Collection)
     * MASS: 18955 (NIST/EPA/MCDC Mass Spectral Database 1990 version)

   from [11]HSDB

   Surface Tension
        23.4 dynes/cm = 0.0234 N/m at 20 deg C
   from [12]HSDB

   Vapor Density
        1.8 at 100 deg F (Air = 1)
   from [13]HSDB

   Vapor Pressure
        317 mm Hg at 25 deg C
   from [14]HSDB

   Viscosity
        0.3167 cP at 26.7 deg C
   from [15]HSDB

   Other Chemical/Physical Properties

     * Liquid-water interfacial tension: 29 dynes/cm = 0.029 N/m at 22.7
       deg C; Ratio of specific heats of vapor (gas): 1.120; Heat of
       solution: est -9 Btu/lb = -5 cal/g = -0.2x10+5 J/kg; Floats and
       mixes slowly with water
     * Specific gravity: 0.8432 at 0 deg C/4 deg C; 0.8192 at 9.7 deg C/4
       deg C; 0.8071 at 20 deg C/4 deg C; 0.7898 at 33 deg C/4 deg C
     * Vapor Pressure: 687 mm Hg at 45 deg C
     * Henry's Law constant = 7.34X10-5 atm-cu m/mole at 25 deg C
     * Hydroxyl radical reaction rate constant = 2.0X10-11 cu
       cm/molecule-sec at 25 deg C

   from [16]HSDB

   Computed Properties
   Molecular Weight                  58.07914 [g/mol]
   Molecular Formula                 C[3]H[6]O
   XLogP3                            0.6
   H-Bond Donor                      0
   H-Bond Acceptor                   1
   Rotatable Bond Count              1
   Tautomer Count                    2
   Exact Mass                        58.041865
   MonoIsotopic Mass                 58.041865
   Topological Polar Surface Area    17.1
   Heavy Atom Count                  4
   Formal Charge                     0
   Complexity                        17.2
   Isotope Atom Count                0
   Defined Atom Stereocenter Count   0
   Undefined Atom Stereocenter Count 0
   Defined Bond Stereocenter Count   0
   Undefined Bond Stereocenter Count 0
   Covalently-Bonded Unit Count      1
   Feature 3D Acceptor Count         1
   Feature 3D Hydrophobe Count       1
   Effective Rotor Count             1
   Conformer Sampling RMSD           0.4
   CID Conformer Count               [17]3

References

   1. http://toxnet.nlm.nih.gov/cgi-bin/sis/search/r?dbs+hsdb:@term+@rn+@rel+123-38-6
   2. http://toxnet.nlm.nih.gov/cgi-bin/sis/search/r?dbs+hsdb:@term+@rn+@rel+123-38-6
   3. http://toxnet.nlm.nih.gov/cgi-bin/sis/search/r?dbs+hsdb:@term+@rn+@rel+123-38-6
   4. http://toxnet.nlm.nih.gov/cgi-bin/sis/search/r?dbs+hsdb:@term+@rn+@rel+123-38-6
   5. http://toxnet.nlm.nih.gov/cgi-bin/sis/search/r?dbs+hsdb:@term+@rn+@rel+123-38-6
   6. http://toxnet.nlm.nih.gov/cgi-bin/sis/search/r?dbs+hsdb:@term+@rn+@rel+123-38-6
   7. http://toxnet.nlm.nih.gov/cgi-bin/sis/search/r?dbs+hsdb:@term+@rn+@rel+123-38-6
   8. http://toxnet.nlm.nih.gov/cgi-bin/sis/search/r?dbs+hsdb:@term+@rn+@rel+123-38-6
   9. http://toxnet.nlm.nih.gov/cgi-bin/sis/search/r?dbs+hsdb:@term+@rn+@rel+123-38-6
  10. http://toxnet.nlm.nih.gov/cgi-bin/sis/search/r?dbs+hsdb:@term+@rn+@rel+123-38-6
  11. http://toxnet.nlm.nih.gov/cgi-bin/sis/search/r?dbs+hsdb:@term+@rn+@rel+123-38-6
  12. http://toxnet.nlm.nih.gov/cgi-bin/sis/search/r?dbs+hsdb:@term+@rn+@rel+123-38-6
  13. http://toxnet.nlm.nih.gov/cgi-bin/sis/search/r?dbs+hsdb:@term+@rn+@rel+123-38-6
  14. http://toxnet.nlm.nih.gov/cgi-bin/sis/search/r?dbs+hsdb:@term+@rn+@rel+123-38-6
  15. http://toxnet.nlm.nih.gov/cgi-bin/sis/search/r?dbs+hsdb:@term+@rn+@rel+123-38-6
  16. http://toxnet.nlm.nih.gov/cgi-bin/sis/search/r?dbs+hsdb:@term+@rn+@rel+123-38-6
  17. http://pubchem.ncbi.nlm.nih.gov/vw3d/vw3d.cgi?cid=527
