441067
  -OEChem-07051212512D

 41 43  0     1  0  0  0  0  0999 V2000
    2.0000    2.6791    0.0000 O   0  0  0  0  0  0  0  0  0  0  0  0
    2.0000    0.6791    0.0000 O   0  0  0  0  0  0  0  0  0  0  0  0
    7.1777   -3.3753    0.0000 O   0  0  0  0  0  0  0  0  0  0  0  0
    8.9212   -2.3954    0.0000 O   0  0  0  0  0  0  0  0  0  0  0  0
    6.3981    1.1583    0.0000 N   0  0  0  0  0  0  0  0  0  0  0  0
    5.4920    0.6444    0.0000 C   0  0  2  0  0  0  0  0  0  0  0  0
    4.5981    1.1791    0.0000 C   0  0  0  0  0  0  0  0  0  0  0  0
    4.5981    2.1791    0.0000 C   0  0  0  0  0  0  0  0  0  0  0  0
    5.4920    2.7138    0.0000 C   0  0  0  0  0  0  0  0  0  0  0  0
    6.3981    2.1999    0.0000 C   0  0  0  0  0  0  0  0  0  0  0  0
    5.4804   -0.3555    0.0000 C   0  0  0  0  0  0  0  0  0  0  0  0
    3.7320    0.6791    0.0000 C   0  0  0  0  0  0  0  0  0  0  0  0
    6.3406   -0.8655    0.0000 C   0  0  0  0  0  0  0  0  0  0  0  0
    3.7320    2.6791    0.0000 C   0  0  0  0  0  0  0  0  0  0  0  0
    2.8660    1.1791    0.0000 C   0  0  0  0  0  0  0  0  0  0  0  0
    2.8660    2.1791    0.0000 C   0  0  0  0  0  0  0  0  0  0  0  0
    6.3291   -1.8654    0.0000 C   0  0  0  0  0  0  0  0  0  0  0  0
    7.2124   -0.3755    0.0000 C   0  0  0  0  0  0  0  0  0  0  0  0
    7.1893   -2.3754    0.0000 C   0  0  0  0  0  0  0  0  0  0  0  0
    8.0726   -0.8855    0.0000 C   0  0  0  0  0  0  0  0  0  0  0  0
    8.0610   -1.8854    0.0000 C   0  0  0  0  0  0  0  0  0  0  0  0
    2.0000    3.6791    0.0000 C   0  0  0  0  0  0  0  0  0  0  0  0
    6.0259    0.3293    0.0000 H   0  0  0  0  0  0  0  0  0  0  0  0
    5.8856    3.1928    0.0000 H   0  0  0  0  0  0  0  0  0  0  0  0
    5.0874    3.1836    0.0000 H   0  0  0  0  0  0  0  0  0  0  0  0
    7.0089    2.0938    0.0000 H   0  0  0  0  0  0  0  0  0  0  0  0
    6.6071    2.7836    0.0000 H   0  0  0  0  0  0  0  0  0  0  0  0
    4.8712   -0.2408    0.0000 H   0  0  0  0  0  0  0  0  0  0  0  0
    5.2617   -0.9356    0.0000 H   0  0  0  0  0  0  0  0  0  0  0  0
    6.9338    0.8462    0.0000 H   0  0  0  0  0  0  0  0  0  0  0  0
    3.7320    0.0591    0.0000 H   0  0  0  0  0  0  0  0  0  0  0  0
    3.7320    3.2991    0.0000 H   0  0  0  0  0  0  0  0  0  0  0  0
    5.7886   -2.1692    0.0000 H   0  0  0  0  0  0  0  0  0  0  0  0
    7.2196    0.2444    0.0000 H   0  0  0  0  0  0  0  0  0  0  0  0
    8.6131   -0.5817    0.0000 H   0  0  0  0  0  0  0  0  0  0  0  0
    2.0000    0.0591    0.0000 H   0  0  0  0  0  0  0  0  0  0  0  0
    2.6200    3.6791    0.0000 H   0  0  0  0  0  0  0  0  0  0  0  0
    2.0000    4.2991    0.0000 H   0  0  0  0  0  0  0  0  0  0  0  0
    1.3800    3.6791    0.0000 H   0  0  0  0  0  0  0  0  0  0  0  0
    6.6372   -3.6791    0.0000 H   0  0  0  0  0  0  0  0  0  0  0  0
    9.4617   -2.0916    0.0000 H   0  0  0  0  0  0  0  0  0  0  0  0
  1 16  1  0  0  0  0
  1 22  1  0  0  0  0
  2 15  1  0  0  0  0
  2 36  1  0  0  0  0
  3 19  1  0  0  0  0
  3 40  1  0  0  0  0
  4 21  1  0  0  0  0
  4 41  1  0  0  0  0
  5  6  1  0  0  0  0
  5 10  1  0  0  0  0
  5 30  1  0  0  0  0
  6  7  1  0  0  0  0
  6 11  1  1  0  0  0
  6 23  1  0  0  0  0
  7  8  1  0  0  0  0
  7 12  2  0  0  0  0
  8  9  1  0  0  0  0
  8 14  2  0  0  0  0
  9 10  1  0  0  0  0
  9 24  1  0  0  0  0
  9 25  1  0  0  0  0
 10 26  1  0  0  0  0
 10 27  1  0  0  0  0
 11 13  1  0  0  0  0
 11 28  1  0  0  0  0
 11 29  1  0  0  0  0
 12 15  1  0  0  0  0
 12 31  1  0  0  0  0
 13 17  2  0  0  0  0
 13 18  1  0  0  0  0
 14 16  1  0  0  0  0
 14 32  1  0  0  0  0
 15 16  2  0  0  0  0
 17 19  1  0  0  0  0
 17 33  1  0  0  0  0
 18 20  2  0  0  0  0
 18 34  1  0  0  0  0
 19 21  2  0  0  0  0
 20 21  1  0  0  0  0
 20 35  1  0  0  0  0
 22 37  1  0  0  0  0
 22 38  1  0  0  0  0
 22 39  1  0  0  0  0
M  END
> <PUBCHEM_COMPOUND_CID>
441067

> <PUBCHEM_COMPOUND_CANONICALIZED>
1

> <PUBCHEM_CACTVS_COMPLEXITY>
367

> <PUBCHEM_CACTVS_HBOND_ACCEPTOR>
5

> <PUBCHEM_CACTVS_HBOND_DONOR>
4

> <PUBCHEM_CACTVS_ROTATABLE_BOND>
3

> <PUBCHEM_CACTVS_SUBSKEYS>
AAADceB6OAAAAAAAAAAAAAAAAAAAAAAAAAA8YIAAAAAAAACxQAAAHgAQCAAADCzBmAYyBoLABgCAAiBCAACCCAAgIAAIiIAOjIgNJiKGsRuEcCtk0BGLuAew0PMOoAABAAAQQABAAAIAACCAAAAAAAAAAA==

> <PUBCHEM_IUPAC_OPENEYE_NAME>
4-[[(1S)-7-hydroxy-6-methoxy-1,2,3,4-tetrahydroisoquinolin-1-yl]methyl]benzene-1,2-diol

> <PUBCHEM_IUPAC_CAS_NAME>
4-[[(1S)-7-hydroxy-6-methoxy-1,2,3,4-tetrahydroisoquinolin-1-yl]methyl]benzene-1,2-diol

> <PUBCHEM_IUPAC_NAME>
4-[[(1S)-7-hydroxy-6-methoxy-1,2,3,4-tetrahydroisoquinolin-1-yl]methyl]benzene-1,2-diol

> <PUBCHEM_IUPAC_SYSTEMATIC_NAME>
4-[[(1S)-6-methoxy-7-oxidanyl-1,2,3,4-tetrahydroisoquinolin-1-yl]methyl]benzene-1,2-diol

> <PUBCHEM_IUPAC_TRADITIONAL_NAME>
4-[[(1S)-7-hydroxy-6-methoxy-1,2,3,4-tetrahydroisoquinolin-1-yl]methyl]pyrocatechol

> <PUBCHEM_IUPAC_INCHI>
InChI=1S/C17H19NO4/c1-22-17-8-11-4-5-18-13(12(11)9-16(17)21)6-10-2-3-14(19)15(20)7-10/h2-3,7-9,13,18-21H,4-6H2,1H3/t13-/m0/s1

> <PUBCHEM_IUPAC_INCHIKEY>
RHMGJTZOFARRHB-ZDUSSCGKSA-N

> <PUBCHEM_XLOGP3_AA>
2.2

> <PUBCHEM_EXACT_MASS>
301.131408

> <PUBCHEM_MOLECULAR_FORMULA>
C17H19NO4

> <PUBCHEM_MOLECULAR_WEIGHT>
301.33706

> <PUBCHEM_OPENEYE_CAN_SMILES>
COC1=C(C=C2C(NCCC2=C1)CC3=CC(=C(C=C3)O)O)O

> <PUBCHEM_OPENEYE_ISO_SMILES>
COC1=C(C=C2[C@@H](NCCC2=C1)CC3=CC(=C(C=C3)O)O)O

> <PUBCHEM_CACTVS_TPSA>
82

> <PUBCHEM_MONOISOTOPIC_WEIGHT>
301.131408

> <PUBCHEM_TOTAL_CHARGE>
0

> <PUBCHEM_HEAVY_ATOM_COUNT>
22

> <PUBCHEM_ATOM_DEF_STEREO_COUNT>
1

> <PUBCHEM_ATOM_UDEF_STEREO_COUNT>
0

> <PUBCHEM_BOND_DEF_STEREO_COUNT>
0

> <PUBCHEM_BOND_UDEF_STEREO_COUNT>
0

> <PUBCHEM_ISOTOPIC_ATOM_COUNT>
0

> <PUBCHEM_COMPONENT_COUNT>
1

> <PUBCHEM_CACTVS_TAUTO_COUNT>
54

> <PUBCHEM_COORDINATE_TYPE>
1
5
255

> <PUBCHEM_BONDANNOTATIONS>
12  15  8
13  17  8
13  18  8
14  16  8
15  16  8
17  19  8
18  20  8
19  21  8
20  21  8
6  11  5
7  12  8
7  8  8
8  14  8

$$$$

