   Color/Form

     * COLORLESS CRYSTALS OR NEEDLES
     * Hexagonal needles from benzene
     * White ... solid
     * Pale yellow solid

   from [1]HSDB

   Odor
        Strong medicinal
   from [2]HSDB

   Boiling Point
        210 deg C
   from [3]HSDB

   Melting Point
        45 deg C
   from [4]HSDB

   Dissociation Constants
        pKa = 7.89
   from [5]HSDB

   Heat of Vaporization
        13,230.4 cal/mole
   from [6]HSDB

   Octanol/Water Partition Coefficient
        log Kow = 3.06
   from [7]HSDB

   Solubilities

     * Soluble in carbon tetrachloride
     * Soluble in ethanol, benzene, chloroform and ethyl ether.
     * Soluble in aqueous alkali, oxygenated and chlorinated solvents.
     * In water, 4.50X10+3 mg/L at 20 deg C

   from [8]HSDB

   Spectral Properties

     * MAX ABSORPTION (0.1 N NaOH): 304 NM (LOG E= 3.50); SADTLER
       REFERENCE NUMBER: 1315 (IR, PRISM)
     * MASS: 68941 (NIST/EPA/MSDC Mass Spectral Database, 1990 version);
       1439 (Atlas of Mass Spectral Data, John Wiley & Sons, New York)
     * IR: 1320 (Coblentz Society Spectral Collection)
     * UV: 9786 (Sadtler Research Laboratories Spectral Collection)
     * Raman: 1041 (Sadtler Research Laboratories Spectral Collection)

   from [9]HSDB

   Vapor Density
        5.62
   from [10]HSDB

   Vapor Pressure
        0.09 mm Hg at 25 deg C
   from [11]HSDB

   Other Chemical/Physical Properties

     * Heat of fusion: 29.46 cal/g= 123.26 J/g= 20,091 J/mol
     * 2,4-DCP can produce objectionable odors when present in water at
       extremely low levels.
     * Henry's Law constant = 4.29X10-6 atm-cu m/mol at 25 deg C (est)
     * Hydroxyl radical reaction rate constant = 1.06X10-12 cu
       cm/molec-sec at 25 deg C

   from [12]HSDB

   Computed Properties
   Molecular Weight                  163.00136 [g/mol]
   Molecular Formula                 C[6]H[4]Cl[2]O
   XLogP3                            3.1
   H-Bond Donor                      1
   H-Bond Acceptor                   1
   Rotatable Bond Count              0
   Tautomer Count                    3
   Exact Mass                        161.96392
   MonoIsotopic Mass                 161.96392
   Topological Polar Surface Area    20.2
   Heavy Atom Count                  9
   Formal Charge                     0
   Complexity                        97.1
   Isotope Atom Count                0
   Defined Atom Stereocenter Count   0
   Undefined Atom Stereocenter Count 0
   Defined Bond Stereocenter Count   0
   Undefined Bond Stereocenter Count 0
   Covalently-Bonded Unit Count      1
   Feature 3D Donor Count            1
   Feature 3D Ring Count             1
   Effective Rotor Count             0
   Conformer Sampling RMSD           0.4
   CID Conformer Count               [13]1

References

   1. http://toxnet.nlm.nih.gov/cgi-bin/sis/search/r?dbs+hsdb:@term+@rn+@rel+120-83-2
   2. http://toxnet.nlm.nih.gov/cgi-bin/sis/search/r?dbs+hsdb:@term+@rn+@rel+120-83-2
   3. http://toxnet.nlm.nih.gov/cgi-bin/sis/search/r?dbs+hsdb:@term+@rn+@rel+120-83-2
   4. http://toxnet.nlm.nih.gov/cgi-bin/sis/search/r?dbs+hsdb:@term+@rn+@rel+120-83-2
   5. http://toxnet.nlm.nih.gov/cgi-bin/sis/search/r?dbs+hsdb:@term+@rn+@rel+120-83-2
   6. http://toxnet.nlm.nih.gov/cgi-bin/sis/search/r?dbs+hsdb:@term+@rn+@rel+120-83-2
   7. http://toxnet.nlm.nih.gov/cgi-bin/sis/search/r?dbs+hsdb:@term+@rn+@rel+120-83-2
   8. http://toxnet.nlm.nih.gov/cgi-bin/sis/search/r?dbs+hsdb:@term+@rn+@rel+120-83-2
   9. http://toxnet.nlm.nih.gov/cgi-bin/sis/search/r?dbs+hsdb:@term+@rn+@rel+120-83-2
  10. http://toxnet.nlm.nih.gov/cgi-bin/sis/search/r?dbs+hsdb:@term+@rn+@rel+120-83-2
  11. http://toxnet.nlm.nih.gov/cgi-bin/sis/search/r?dbs+hsdb:@term+@rn+@rel+120-83-2
  12. http://toxnet.nlm.nih.gov/cgi-bin/sis/search/r?dbs+hsdb:@term+@rn+@rel+120-83-2
  13. http://pubchem.ncbi.nlm.nih.gov/vw3d/vw3d.cgi?cid=8449
