443306
  -OEChem-07051213012D

125125  0     1  0  0  0  0  0999 V2000
    4.5981    1.1550    0.0000 O   0  0  0  0  0  0  0  0  0  0  0  0
    5.4641    4.6550    0.0000 O   0  0  0  0  0  0  0  0  0  0  0  0
    4.5981    0.1550    0.0000 O   0  0  0  0  0  0  0  0  0  0  0  0
    5.4641    5.6550    0.0000 O   0  0  0  0  0  0  0  0  0  0  0  0
    3.7320   -3.3450    0.0000 O   0  0  0  0  0  0  0  0  0  0  0  0
    4.5981    6.1550    0.0000 O   0  0  0  0  0  0  0  0  0  0  0  0
    6.3301   -5.8450    0.0000 O   0  0  0  0  0  0  0  0  0  0  0  0
    4.5981   -8.8450    0.0000 O   0  0  0  0  0  0  0  0  0  0  0  0
    6.3301    1.1550    0.0000 N   0  0  0  0  0  0  0  0  0  0  0  0
    6.3301    3.1550    0.0000 N   0  0  0  0  0  0  0  0  0  0  0  0
    5.4641   -1.3450    0.0000 N   0  0  0  0  0  0  0  0  0  0  0  0
    7.1962    5.6550    0.0000 N   0  0  0  0  0  0  0  0  0  0  0  0
    5.4641    7.6550    0.0000 N   0  0  0  0  0  0  0  0  0  0  0  0
    5.4641   -3.3450    0.0000 N   0  0  0  0  0  0  0  0  0  0  0  0
    7.1962   -4.3450    0.0000 N   0  0  0  0  0  0  0  0  0  0  0  0
    5.4641    2.6550    0.0000 C   0  0  3  0  0  0  0  0  0  0  0  0
    6.3301    0.1550    0.0000 C   0  0  3  0  0  0  0  0  0  0  0  0
    4.5981    3.1550    0.0000 C   0  0  0  0  0  0  0  0  0  0  0  0
    7.1962    4.6550    0.0000 C   0  0  3  0  0  0  0  0  0  0  0  0
    7.1962   -0.3450    0.0000 C   0  0  0  0  0  0  0  0  0  0  0  0
    3.7320    2.6550    0.0000 C   0  0  0  0  0  0  0  0  0  0  0  0
    8.0622    4.1550    0.0000 C   0  0  0  0  0  0  0  0  0  0  0  0
    8.0622    0.1550    0.0000 C   0  0  0  0  0  0  0  0  0  0  0  0
    4.5981   -1.8450    0.0000 C   0  0  3  0  0  0  0  0  0  0  0  0
    5.4641    1.6550    0.0000 C   0  0  0  0  0  0  0  0  0  0  0  0
    8.9282    4.6550    0.0000 C   0  0  0  0  0  0  0  0  0  0  0  0
    3.7320   -1.3450    0.0000 C   0  0  0  0  0  0  0  0  0  0  0  0
    6.3301    4.1550    0.0000 C   0  0  0  0  0  0  0  0  0  0  0  0
    5.4641   -0.3450    0.0000 C   0  0  0  0  0  0  0  0  0  0  0  0
    2.8660   -1.8450    0.0000 C   0  0  0  0  0  0  0  0  0  0  0  0
    6.3301    7.1550    0.0000 C   0  0  3  0  0  0  0  0  0  0  0  0
    7.1962    7.6550    0.0000 C   0  0  0  0  0  0  0  0  0  0  0  0
    2.8660    3.1550    0.0000 C   0  0  0  0  0  0  0  0  0  0  0  0
    3.7320    1.6550    0.0000 C   0  0  0  0  0  0  0  0  0  0  0  0
    6.3301    6.1550    0.0000 C   0  0  0  0  0  0  0  0  0  0  0  0
    7.1962    8.6550    0.0000 C   0  0  0  0  0  0  0  0  0  0  0  0
    8.9282   -0.3450    0.0000 C   0  0  0  0  0  0  0  0  0  0  0  0
    8.0622    1.1550    0.0000 C   0  0  0  0  0  0  0  0  0  0  0  0
    4.5981   -2.8450    0.0000 C   0  0  0  0  0  0  0  0  0  0  0  0
    9.7942    4.1550    0.0000 C   0  0  0  0  0  0  0  0  0  0  0  0
    8.9282    5.6550    0.0000 C   0  0  0  0  0  0  0  0  0  0  0  0
    2.0000   -1.3450    0.0000 C   0  0  0  0  0  0  0  0  0  0  0  0
    2.8660   -2.8450    0.0000 C   0  0  0  0  0  0  0  0  0  0  0  0
    5.4641   -4.3450    0.0000 C   0  0  3  0  0  0  0  0  0  0  0  0
    8.0622    9.1550    0.0000 C   0  0  0  0  0  0  0  0  0  0  0  0
    6.3301    9.1550    0.0000 C   0  0  0  0  0  0  0  0  0  0  0  0
    4.5981   -4.8450    0.0000 C   0  0  0  0  0  0  0  0  0  0  0  0
    4.5981    7.1550    0.0000 C   0  0  0  0  0  0  0  0  0  0  0  0
    6.3301   -4.8450    0.0000 C   0  0  0  0  0  0  0  0  0  0  0  0
    4.5981   -5.8450    0.0000 C   0  0  0  0  0  0  0  0  0  0  0  0
    3.7320    7.6550    0.0000 C   0  0  0  0  0  0  0  0  0  0  0  0
    3.7320   -6.3450    0.0000 C   0  0  0  0  0  0  0  0  0  0  0  0
    5.4641   -6.3450    0.0000 C   0  0  0  0  0  0  0  0  0  0  0  0
    3.7320   -7.3450    0.0000 C   0  0  0  0  0  0  0  0  0  0  0  0
    5.4641   -7.3450    0.0000 C   0  0  0  0  0  0  0  0  0  0  0  0
    4.5981   -7.8450    0.0000 C   0  0  0  0  0  0  0  0  0  0  0  0
    5.4641    3.2750    0.0000 H   0  0  0  0  0  0  0  0  0  0  0  0
    6.8671    0.4650    0.0000 H   0  0  0  0  0  0  0  0  0  0  0  0
    4.9966    3.6300    0.0000 H   0  0  0  0  0  0  0  0  0  0  0  0
    4.1996    3.6300    0.0000 H   0  0  0  0  0  0  0  0  0  0  0  0
    6.6592    4.9650    0.0000 H   0  0  0  0  0  0  0  0  0  0  0  0
    6.7976   -0.8199    0.0000 H   0  0  0  0  0  0  0  0  0  0  0  0
    7.5947   -0.8199    0.0000 H   0  0  0  0  0  0  0  0  0  0  0  0
    3.7320    3.2750    0.0000 H   0  0  0  0  0  0  0  0  0  0  0  0
    7.6636    3.6800    0.0000 H   0  0  0  0  0  0  0  0  0  0  0  0
    8.4607    3.6800    0.0000 H   0  0  0  0  0  0  0  0  0  0  0  0
    8.0622   -0.4650    0.0000 H   0  0  0  0  0  0  0  0  0  0  0  0
    4.5981   -1.2250    0.0000 H   0  0  0  0  0  0  0  0  0  0  0  0
    9.4651    4.9650    0.0000 H   0  0  0  0  0  0  0  0  0  0  0  0
    6.8671    1.4650    0.0000 H   0  0  0  0  0  0  0  0  0  0  0  0
    6.8671    2.8450    0.0000 H   0  0  0  0  0  0  0  0  0  0  0  0
    4.1306   -0.8701    0.0000 H   0  0  0  0  0  0  0  0  0  0  0  0
    3.3335   -0.8701    0.0000 H   0  0  0  0  0  0  0  0  0  0  0  0
    2.8660   -1.2250    0.0000 H   0  0  0  0  0  0  0  0  0  0  0  0
    6.0010   -1.6550    0.0000 H   0  0  0  0  0  0  0  0  0  0  0  0
    7.7331    5.9650    0.0000 H   0  0  0  0  0  0  0  0  0  0  0  0
    5.7932    6.8450    0.0000 H   0  0  0  0  0  0  0  0  0  0  0  0
    7.4082    7.0724    0.0000 H   0  0  0  0  0  0  0  0  0  0  0  0
    7.8067    7.7627    0.0000 H   0  0  0  0  0  0  0  0  0  0  0  0
    3.1120    1.6550    0.0000 H   0  0  0  0  0  0  0  0  0  0  0  0
    3.7320    1.0350    0.0000 H   0  0  0  0  0  0  0  0  0  0  0  0
    4.3520    1.6550    0.0000 H   0  0  0  0  0  0  0  0  0  0  0  0
    3.1760    3.6919    0.0000 H   0  0  0  0  0  0  0  0  0  0  0  0
    2.3291    3.4650    0.0000 H   0  0  0  0  0  0  0  0  0  0  0  0
    2.5560    2.6181    0.0000 H   0  0  0  0  0  0  0  0  0  0  0  0
    6.6592    8.3450    0.0000 H   0  0  0  0  0  0  0  0  0  0  0  0
    8.6822    1.1550    0.0000 H   0  0  0  0  0  0  0  0  0  0  0  0
    8.0622    1.7750    0.0000 H   0  0  0  0  0  0  0  0  0  0  0  0
    7.4422    1.1550    0.0000 H   0  0  0  0  0  0  0  0  0  0  0  0
    8.6182   -0.8819    0.0000 H   0  0  0  0  0  0  0  0  0  0  0  0
    9.4651   -0.6550    0.0000 H   0  0  0  0  0  0  0  0  0  0  0  0
    9.2382    0.1919    0.0000 H   0  0  0  0  0  0  0  0  0  0  0  0
    9.5482    5.6550    0.0000 H   0  0  0  0  0  0  0  0  0  0  0  0
    8.9282    6.2750    0.0000 H   0  0  0  0  0  0  0  0  0  0  0  0
    8.3082    5.6550    0.0000 H   0  0  0  0  0  0  0  0  0  0  0  0
    9.4842    3.6181    0.0000 H   0  0  0  0  0  0  0  0  0  0  0  0
   10.3312    3.8450    0.0000 H   0  0  0  0  0  0  0  0  0  0  0  0
   10.1042    4.6919    0.0000 H   0  0  0  0  0  0  0  0  0  0  0  0
    2.3100   -0.8081    0.0000 H   0  0  0  0  0  0  0  0  0  0  0  0
    1.4631   -1.0350    0.0000 H   0  0  0  0  0  0  0  0  0  0  0  0
    1.6900   -1.8819    0.0000 H   0  0  0  0  0  0  0  0  0  0  0  0
    2.2460   -2.8450    0.0000 H   0  0  0  0  0  0  0  0  0  0  0  0
    2.8660   -3.4650    0.0000 H   0  0  0  0  0  0  0  0  0  0  0  0
    3.4860   -2.8450    0.0000 H   0  0  0  0  0  0  0  0  0  0  0  0
    5.4641    8.2750    0.0000 H   0  0  0  0  0  0  0  0  0  0  0  0
    6.0010   -3.0350    0.0000 H   0  0  0  0  0  0  0  0  0  0  0  0
    6.0010   -4.0350    0.0000 H   0  0  0  0  0  0  0  0  0  0  0  0
    8.3722    8.6181    0.0000 H   0  0  0  0  0  0  0  0  0  0  0  0
    8.5991    9.4650    0.0000 H   0  0  0  0  0  0  0  0  0  0  0  0
    7.7522    9.6919    0.0000 H   0  0  0  0  0  0  0  0  0  0  0  0
    6.6401    9.6919    0.0000 H   0  0  0  0  0  0  0  0  0  0  0  0
    5.7932    9.4650    0.0000 H   0  0  0  0  0  0  0  0  0  0  0  0
    6.0201    8.6181    0.0000 H   0  0  0  0  0  0  0  0  0  0  0  0
    4.3860   -4.2624    0.0000 H   0  0  0  0  0  0  0  0  0  0  0  0
    3.9875   -4.9527    0.0000 H   0  0  0  0  0  0  0  0  0  0  0  0
    4.0420    8.1919    0.0000 H   0  0  0  0  0  0  0  0  0  0  0  0
    3.1951    7.9650    0.0000 H   0  0  0  0  0  0  0  0  0  0  0  0
    3.4220    7.1181    0.0000 H   0  0  0  0  0  0  0  0  0  0  0  0
    3.1951   -6.0350    0.0000 H   0  0  0  0  0  0  0  0  0  0  0  0
    6.0010   -6.0350    0.0000 H   0  0  0  0  0  0  0  0  0  0  0  0
    7.7331   -4.6550    0.0000 H   0  0  0  0  0  0  0  0  0  0  0  0
    7.1962   -3.7250    0.0000 H   0  0  0  0  0  0  0  0  0  0  0  0
    3.1951   -7.6550    0.0000 H   0  0  0  0  0  0  0  0  0  0  0  0
    6.0010   -7.6550    0.0000 H   0  0  0  0  0  0  0  0  0  0  0  0
    4.0611   -9.1550    0.0000 H   0  0  0  0  0  0  0  0  0  0  0  0
  1 25  2  0  0  0  0
  2 28  2  0  0  0  0
  3 29  2  0  0  0  0
  4 35  2  0  0  0  0
  5 39  2  0  0  0  0
  6 48  2  0  0  0  0
  7 49  2  0  0  0  0
  8 56  1  0  0  0  0
  8125  1  0  0  0  0
  9 17  1  0  0  0  0
  9 25  1  0  0  0  0
  9 70  1  0  0  0  0
 10 16  1  0  0  0  0
 10 28  1  0  0  0  0
 10 71  1  0  0  0  0
 11 24  1  0  0  0  0
 11 29  1  0  0  0  0
 11 75  1  0  0  0  0
 12 19  1  0  0  0  0
 12 35  1  0  0  0  0
 12 76  1  0  0  0  0
 13 31  1  0  0  0  0
 13 48  1  0  0  0  0
 13105  1  0  0  0  0
 14 39  1  0  0  0  0
 14 44  1  0  0  0  0
 14106  1  0  0  0  0
 15 49  1  0  0  0  0
 15121  1  0  0  0  0
 15122  1  0  0  0  0
 16 18  1  0  0  0  0
 16 25  1  0  0  0  0
 16 57  1  0  0  0  0
 17 20  1  0  0  0  0
 17 29  1  0  0  0  0
 17 58  1  0  0  0  0
 18 21  1  0  0  0  0
 18 59  1  0  0  0  0
 18 60  1  0  0  0  0
 19 22  1  0  0  0  0
 19 28  1  0  0  0  0
 19 61  1  0  0  0  0
 20 23  1  0  0  0  0
 20 62  1  0  0  0  0
 20 63  1  0  0  0  0
 21 33  1  0  0  0  0
 21 34  1  0  0  0  0
 21 64  1  0  0  0  0
 22 26  1  0  0  0  0
 22 65  1  0  0  0  0
 22 66  1  0  0  0  0
 23 37  1  0  0  0  0
 23 38  1  0  0  0  0
 23 67  1  0  0  0  0
 24 27  1  0  0  0  0
 24 39  1  0  0  0  0
 24 68  1  0  0  0  0
 26 40  1  0  0  0  0
 26 41  1  0  0  0  0
 26 69  1  0  0  0  0
 27 30  1  0  0  0  0
 27 72  1  0  0  0  0
 27 73  1  0  0  0  0
 30 42  1  0  0  0  0
 30 43  1  0  0  0  0
 30 74  1  0  0  0  0
 31 32  1  0  0  0  0
 31 35  1  0  0  0  0
 31 77  1  0  0  0  0
 32 36  1  0  0  0  0
 32 78  1  0  0  0  0
 32 79  1  0  0  0  0
 33 83  1  0  0  0  0
 33 84  1  0  0  0  0
 33 85  1  0  0  0  0
 34 80  1  0  0  0  0
 34 81  1  0  0  0  0
 34 82  1  0  0  0  0
 36 45  1  0  0  0  0
 36 46  1  0  0  0  0
 36 86  1  0  0  0  0
 37 90  1  0  0  0  0
 37 91  1  0  0  0  0
 37 92  1  0  0  0  0
 38 87  1  0  0  0  0
 38 88  1  0  0  0  0
 38 89  1  0  0  0  0
 40 96  1  0  0  0  0
 40 97  1  0  0  0  0
 40 98  1  0  0  0  0
 41 93  1  0  0  0  0
 41 94  1  0  0  0  0
 41 95  1  0  0  0  0
 42 99  1  0  0  0  0
 42100  1  0  0  0  0
 42101  1  0  0  0  0
 43102  1  0  0  0  0
 43103  1  0  0  0  0
 43104  1  0  0  0  0
 44 47  1  0  0  0  0
 44 49  1  0  0  0  0
 44107  1  0  0  0  0
 45108  1  0  0  0  0
 45109  1  0  0  0  0
 45110  1  0  0  0  0
 46111  1  0  0  0  0
 46112  1  0  0  0  0
 46113  1  0  0  0  0
 47 50  1  0  0  0  0
 47114  1  0  0  0  0
 47115  1  0  0  0  0
 48 51  1  0  0  0  0
 50 52  2  0  0  0  0
 50 53  1  0  0  0  0
 51116  1  0  0  0  0
 51117  1  0  0  0  0
 51118  1  0  0  0  0
 52 54  1  0  0  0  0
 52119  1  0  0  0  0
 53 55  2  0  0  0  0
 53120  1  0  0  0  0
 54 56  2  0  0  0  0
 54123  1  0  0  0  0
 55 56  1  0  0  0  0
 55124  1  0  0  0  0
M  END
> <PUBCHEM_COMPOUND_CID>
443306

> <PUBCHEM_COMPOUND_CANONICALIZED>
1

> <PUBCHEM_CACTVS_COMPLEXITY>
1300

> <PUBCHEM_CACTVS_HBOND_ACCEPTOR>
8

> <PUBCHEM_CACTVS_HBOND_DONOR>
8

> <PUBCHEM_CACTVS_ROTATABLE_BOND>
24

> <PUBCHEM_CACTVS_SUBSKEYS>
AAADcfB/vAAAAAAAAAAAAAAAAAAAAAAAAAAwAAAAAAAAAAABAAAAHgAQCAAADSzBmAQyBoLAAgCIAiFSEAACAAAgIAAIiIGOCIgIZjKCkTOUcAAk1hGImAeYyKCOIAAAAAAAAABAAAAAAAAAAAAAAAAAAA==

> <PUBCHEM_IUPAC_OPENEYE_NAME>
2-acetamido-N-[1-[[1-[[1-[[1-[[2-amino-1-[(4-hydroxyphenyl)methyl]-2-oxo-ethyl]carbamoyl]-3-methyl-butyl]carbamoyl]-3-methyl-butyl]carbamoyl]-3-methyl-butyl]carbamoyl]-3-methyl-butyl]-4-methyl-pentanamide

> <PUBCHEM_IUPAC_CAS_NAME>
2-acetamido-N-[1-[[1-[[1-[[1-[[1-amino-3-(4-hydroxyphenyl)-1-oxopropan-2-yl]amino]-4-methyl-1-oxopentan-2-yl]amino]-4-methyl-1-oxopentan-2-yl]amino]-4-methyl-1-oxopentan-2-yl]amino]-4-methyl-1-oxopentan-2-yl]-4-methylpentanamide

> <PUBCHEM_IUPAC_NAME>
2-acetamido-N-[1-[[1-[[1-[[1-[[1-amino-3-(4-hydroxyphenyl)-1-oxopropan-2-yl]amino]-4-methyl-1-oxopentan-2-yl]amino]-4-methyl-1-oxopentan-2-yl]amino]-4-methyl-1-oxopentan-2-yl]amino]-4-methyl-1-oxopentan-2-yl]-4-methylpentanamide

> <PUBCHEM_IUPAC_SYSTEMATIC_NAME>
2-acetamido-N-[1-[[1-[[1-[[1-[[1-azanyl-3-(4-hydroxyphenyl)-1-oxidanylidene-propan-2-yl]amino]-4-methyl-1-oxidanylidene-pentan-2-yl]amino]-4-methyl-1-oxidanylidene-pentan-2-yl]amino]-4-methyl-1-oxidanylidene-pentan-2-yl]amino]-4-methyl-1-oxidanylidene-pentan-2-yl]-4-methyl-pentanamide

> <PUBCHEM_IUPAC_TRADITIONAL_NAME>
2-acetamido-N-[1-[[1-[[1-[[1-[[2-amino-1-(4-hydroxybenzyl)-2-keto-ethyl]carbamoyl]-3-methyl-butyl]carbamoyl]-3-methyl-butyl]carbamoyl]-3-methyl-butyl]carbamoyl]-3-methyl-butyl]-4-methyl-valeramide

> <PUBCHEM_IUPAC_INCHI>
InChI=1S/C41H69N7O8/c1-22(2)16-31(43-27(11)49)37(52)45-33(18-24(5)6)39(54)47-35(20-26(9)10)41(56)48-34(19-25(7)8)40(55)46-32(17-23(3)4)38(53)44-30(36(42)51)21-28-12-14-29(50)15-13-28/h12-15,22-26,30-35,50H,16-21H2,1-11H3,(H2,42,51)(H,43,49)(H,44,53)(H,45,52)(H,46,55)(H,47,54)(H,48,56)

> <PUBCHEM_IUPAC_INCHIKEY>
PKAUOYHYQUVDTL-UHFFFAOYSA-N

> <PUBCHEM_XLOGP3>
4.6

> <PUBCHEM_EXACT_MASS>
787.520762

> <PUBCHEM_MOLECULAR_FORMULA>
C41H69N7O8

> <PUBCHEM_MOLECULAR_WEIGHT>
788.02866

> <PUBCHEM_OPENEYE_CAN_SMILES>
CC(C)CC(C(=O)NC(CC(C)C)C(=O)NC(CC(C)C)C(=O)NC(CC(C)C)C(=O)NC(CC(C)C)C(=O)NC(CC1=CC=C(C=C1)O)C(=O)N)NC(=O)C

> <PUBCHEM_OPENEYE_ISO_SMILES>
CC(C)CC(C(=O)NC(CC(C)C)C(=O)NC(CC(C)C)C(=O)NC(CC(C)C)C(=O)NC(CC(C)C)C(=O)NC(CC1=CC=C(C=C1)O)C(=O)N)NC(=O)C

> <PUBCHEM_CACTVS_TPSA>
238

> <PUBCHEM_MONOISOTOPIC_WEIGHT>
787.520762

> <PUBCHEM_TOTAL_CHARGE>
0

> <PUBCHEM_HEAVY_ATOM_COUNT>
56

> <PUBCHEM_ATOM_DEF_STEREO_COUNT>
0

> <PUBCHEM_ATOM_UDEF_STEREO_COUNT>
6

> <PUBCHEM_BOND_DEF_STEREO_COUNT>
0

> <PUBCHEM_BOND_UDEF_STEREO_COUNT>
0

> <PUBCHEM_ISOTOPIC_ATOM_COUNT>
0

> <PUBCHEM_COMPONENT_COUNT>
1

> <PUBCHEM_CACTVS_TAUTO_COUNT>
384

> <PUBCHEM_COORDINATE_TYPE>
1
5
255

> <PUBCHEM_BONDANNOTATIONS>
16  18  3
17  20  3
19  22  3
24  27  3
31  32  3
44  47  3
50  52  8
50  53  8
52  54  8
53  55  8
54  56  8
55  56  8

$$$$

