   Color/Form
        Crystals from ethyl acetate
   from [1]HSDB

   Melting Point
        105-110 deg C
   from [2]HSDB

   Dissociation Constants
        pKa1 = 8.38 (amine); pKa2 = 10.00 (phenol) (est)
   from [3]HSDB

   Octanol/Water Partition Coefficient
        log Kow = 2.66 (est)
   from [4]HSDB

   Solubilities
        In water, 1.4X10+2 mg/L at 25 deg C (est)
   from [5]HSDB

   Vapor Pressure
        5.7X10-14 mm Hg at 25 deg C (est)
   from [6]HSDB

   Other Chemical/Physical Properties

     * MW: 375.9. White to off-white crystalline powder ... freely soluble
       in water up to 130 mg/L and slightly soluble in chloroform up to
       0.13 mg/mL ... no longer available in the US /Revex/
     * pKa = 7.63 /Nalmefene hydrochloride/
     * Henry's Law constant = 1.8X10-16 atm-cu m/mol at 25 deg C (est)

   from [7]HSDB

   Computed Properties
   Molecular Weight                  339.4281 [g/mol]
   Molecular Formula                 C[21]H[25]NO[3]
   XLogP3                            2.7
   H-Bond Donor                      2
   H-Bond Acceptor                   4
   Rotatable Bond Count              2
   Tautomer Count                    2
   Exact Mass                        339.183444
   MonoIsotopic Mass                 339.183444
   Topological Polar Surface Area    52.9
   Heavy Atom Count                  25
   Formal Charge                     0
   Complexity                        618
   Isotope Atom Count                0
   Defined Atom Stereocenter Count   4
   Undefined Atom Stereocenter Count 0
   Defined Bond Stereocenter Count   0
   Undefined Bond Stereocenter Count 0
   Covalently-Bonded Unit Count      1
   Feature 3D Acceptor Count         2
   Feature 3D Donor Count            2
   Feature 3D Cation Count           1
   Feature 3D Ring Count             5
   Effective Rotor Count             4
   Conformer Sampling RMSD           0.8
   CID Conformer Count               [8]4

References

   1. http://toxnet.nlm.nih.gov/cgi-bin/sis/search/r?dbs+hsdb:@term+@rn+@rel+55096-26-9
   2. http://toxnet.nlm.nih.gov/cgi-bin/sis/search/r?dbs+hsdb:@term+@rn+@rel+55096-26-9
   3. http://toxnet.nlm.nih.gov/cgi-bin/sis/search/r?dbs+hsdb:@term+@rn+@rel+55096-26-9
   4. http://toxnet.nlm.nih.gov/cgi-bin/sis/search/r?dbs+hsdb:@term+@rn+@rel+55096-26-9
   5. http://toxnet.nlm.nih.gov/cgi-bin/sis/search/r?dbs+hsdb:@term+@rn+@rel+55096-26-9
   6. http://toxnet.nlm.nih.gov/cgi-bin/sis/search/r?dbs+hsdb:@term+@rn+@rel+55096-26-9
   7. http://toxnet.nlm.nih.gov/cgi-bin/sis/search/r?dbs+hsdb:@term+@rn+@rel+55096-26-9
   8. http://pubchem.ncbi.nlm.nih.gov/vw3d/vw3d.cgi?cid=5284594
