99188
  -OEChem-07051213032D

 35 38  0     0  0  0  0  0  0999 V2000
    5.6083   -1.0229    0.0000 O   0  0  0  0  0  0  0  0  0  0  0  0
    5.5161    0.0226    0.0000 O   0  0  0  0  0  0  0  0  0  0  0  0
    2.0520    2.0226    0.0000 O   0  0  0  0  0  0  0  0  0  0  0  0
    2.8963    3.5541    0.0000 O   0  0  0  0  0  0  0  0  0  0  0  0
    3.7841    0.0226    0.0000 C   0  0  0  0  0  0  0  0  0  0  0  0
    3.8001   -1.0189    0.0000 C   0  0  0  0  0  0  0  0  0  0  0  0
    2.9180    0.5226    0.0000 C   0  0  0  0  0  0  0  0  0  0  0  0
    2.9021   -1.5466    0.0000 C   0  0  0  0  0  0  0  0  0  0  0  0
    4.6501    1.5226    0.0000 C   0  0  0  0  0  0  0  0  0  0  0  0
    4.6501    0.5226    0.0000 C   0  0  0  0  0  0  0  0  0  0  0  0
    3.7841    2.0226    0.0000 C   0  0  0  0  0  0  0  0  0  0  0  0
    2.9180    1.5226    0.0000 C   0  0  0  0  0  0  0  0  0  0  0  0
    2.0080    0.0158    0.0000 C   0  0  0  0  0  0  0  0  0  0  0  0
    4.7520   -1.5395    0.0000 C   0  0  0  0  0  0  0  0  0  0  0  0
    2.0000   -1.0258    0.0000 C   0  0  0  0  0  0  0  0  0  0  0  0
    2.8937   -2.6316    0.0000 C   0  0  0  0  0  0  0  0  0  0  0  0
    3.8334   -3.1741    0.0000 C   0  0  0  0  0  0  0  0  0  0  0  0
    4.7688   -2.6244    0.0000 C   0  0  0  0  0  0  0  0  0  0  0  0
    3.7680    3.0642    0.0000 C   0  0  0  0  0  0  0  0  0  0  0  0
    5.5601    2.0295    0.0000 C   0  0  0  0  0  0  0  0  0  0  0  0
    4.6660    3.5919    0.0000 C   0  0  0  0  0  0  0  0  0  0  0  0
    5.5681    3.0711    0.0000 C   0  0  0  0  0  0  0  0  0  0  0  0
    3.8372   -4.1741    0.0000 C   0  0  0  0  0  0  0  0  0  0  0  0
    1.4747    0.3320    0.0000 H   0  0  0  0  0  0  0  0  0  0  0  0
    1.4619   -1.3337    0.0000 H   0  0  0  0  0  0  0  0  0  0  0  0
    2.3556   -2.9395    0.0000 H   0  0  0  0  0  0  0  0  0  0  0  0
    5.3093   -2.9281    0.0000 H   0  0  0  0  0  0  0  0  0  0  0  0
    6.0934    1.7133    0.0000 H   0  0  0  0  0  0  0  0  0  0  0  0
    4.6636    4.2119    0.0000 H   0  0  0  0  0  0  0  0  0  0  0  0
    6.1062    3.3790    0.0000 H   0  0  0  0  0  0  0  0  0  0  0  0
    3.2172   -4.1765    0.0000 H   0  0  0  0  0  0  0  0  0  0  0  0
    3.8396   -4.7941    0.0000 H   0  0  0  0  0  0  0  0  0  0  0  0
    4.4572   -4.1717    0.0000 H   0  0  0  0  0  0  0  0  0  0  0  0
    6.1511   -1.3225    0.0000 H   0  0  0  0  0  0  0  0  0  0  0  0
    2.8891    4.1741    0.0000 H   0  0  0  0  0  0  0  0  0  0  0  0
  1 14  1  0  0  0  0
  1 34  1  0  0  0  0
  2 10  2  0  0  0  0
  3 12  2  0  0  0  0
  4 19  1  0  0  0  0
  4 35  1  0  0  0  0
  5  6  1  0  0  0  0
  5  7  2  0  0  0  0
  5 10  1  0  0  0  0
  6  8  2  0  0  0  0
  6 14  1  0  0  0  0
  7 12  1  0  0  0  0
  7 13  1  0  0  0  0
  8 15  1  0  0  0  0
  8 16  1  0  0  0  0
  9 10  1  0  0  0  0
  9 11  2  0  0  0  0
  9 20  1  0  0  0  0
 11 12  1  0  0  0  0
 11 19  1  0  0  0  0
 13 15  2  0  0  0  0
 13 24  1  0  0  0  0
 14 18  2  0  0  0  0
 15 25  1  0  0  0  0
 16 17  2  0  0  0  0
 16 26  1  0  0  0  0
 17 18  1  0  0  0  0
 17 23  1  0  0  0  0
 18 27  1  0  0  0  0
 19 21  2  0  0  0  0
 20 22  2  0  0  0  0
 20 28  1  0  0  0  0
 21 22  1  0  0  0  0
 21 29  1  0  0  0  0
 22 30  1  0  0  0  0
 23 31  1  0  0  0  0
 23 32  1  0  0  0  0
 23 33  1  0  0  0  0
M  END
> <PUBCHEM_COMPOUND_CID>
99188

> <PUBCHEM_COMPOUND_CANONICALIZED>
1

> <PUBCHEM_CACTVS_COMPLEXITY>
516

> <PUBCHEM_CACTVS_HBOND_ACCEPTOR>
4

> <PUBCHEM_CACTVS_HBOND_DONOR>
2

> <PUBCHEM_CACTVS_ROTATABLE_BOND>
0

> <PUBCHEM_CACTVS_SUBSKEYS>
AAADccB4OAAAAAAAAAAAAAAAAAAAAAAAAAAwYMGAAAAAAADBVAAAGgAACAAADASAmAAyBsAAAgCIAqBSAAACAAAkIAAIiAEGCMgIJjaCFRKAcUAk4BEImYeLzPDOwAADAAAYAACAAAYAADAAAAAAAAAAAA==

> <PUBCHEM_IUPAC_OPENEYE_NAME>
1,8-dihydroxy-3-methyl-benzo[a]anthracene-7,12-dione

> <PUBCHEM_IUPAC_CAS_NAME>
1,8-dihydroxy-3-methylbenzo[a]anthracene-7,12-dione

> <PUBCHEM_IUPAC_NAME>
1,8-dihydroxy-3-methylbenzo[a]anthracene-7,12-dione

> <PUBCHEM_IUPAC_SYSTEMATIC_NAME>
3-methyl-1,8-bis(oxidanyl)benzo[a]anthracene-7,12-dione

> <PUBCHEM_IUPAC_TRADITIONAL_NAME>
1,8-dihydroxy-3-methyl-benz[a]anthracene-7,12-quinone

> <PUBCHEM_IUPAC_INCHI>
InChI=1S/C19H12O4/c1-9-7-10-5-6-12-17(15(10)14(21)8-9)19(23)11-3-2-4-13(20)16(11)18(12)22/h2-8,20-21H,1H3

> <PUBCHEM_IUPAC_INCHIKEY>
NFUYRESOTVGLRL-UHFFFAOYSA-N

> <PUBCHEM_XLOGP3_AA>
4.3

> <PUBCHEM_EXACT_MASS>
304.073559

> <PUBCHEM_MOLECULAR_FORMULA>
C19H12O4

> <PUBCHEM_MOLECULAR_WEIGHT>
304.29618

> <PUBCHEM_OPENEYE_CAN_SMILES>
CC1=CC(=C2C(=C1)C=CC3=C2C(=O)C4=C(C3=O)C(=CC=C4)O)O

> <PUBCHEM_OPENEYE_ISO_SMILES>
CC1=CC(=C2C(=C1)C=CC3=C2C(=O)C4=C(C3=O)C(=CC=C4)O)O

> <PUBCHEM_CACTVS_TPSA>
74.6

> <PUBCHEM_MONOISOTOPIC_WEIGHT>
304.073559

> <PUBCHEM_TOTAL_CHARGE>
0

> <PUBCHEM_HEAVY_ATOM_COUNT>
23

> <PUBCHEM_ATOM_DEF_STEREO_COUNT>
0

> <PUBCHEM_ATOM_UDEF_STEREO_COUNT>
0

> <PUBCHEM_BOND_DEF_STEREO_COUNT>
0

> <PUBCHEM_BOND_UDEF_STEREO_COUNT>
0

> <PUBCHEM_ISOTOPIC_ATOM_COUNT>
0

> <PUBCHEM_COMPONENT_COUNT>
1

> <PUBCHEM_CACTVS_TAUTO_COUNT>
87

> <PUBCHEM_COORDINATE_TYPE>
1
5
255

> <PUBCHEM_BONDANNOTATIONS>
11  19  8
13  15  8
14  18  8
16  17  8
17  18  8
19  21  8
20  22  8
21  22  8
5  6  8
5  7  8
6  14  8
6  8  8
7  13  8
8  15  8
8  16  8
9  11  8
9  20  8

$$$$

