5287939
  -OEChem-07051213072D

123126  0     1  0  0  0  0  0999 V2000
   12.0740   -0.6961    0.0000 O   0  0  0  0  0  0  0  0  0  0  0  0
   11.2137    0.8073    0.0000 O   0  0  0  0  0  0  0  0  0  0  0  0
   17.4671    2.3563    0.0000 C   0  0  1  0  0  0  0  0  0  0  0  0
   17.4671    1.3563    0.0000 C   0  0  2  0  0  0  0  0  0  0  0  0
   16.6010    0.8563    0.0000 C   0  0  1  0  0  0  0  0  0  0  0  0
   15.7350    1.3563    0.0000 C   0  0  1  0  0  0  0  0  0  0  0  0
   18.4133    2.6610    0.0000 C   0  0  2  0  0  0  0  0  0  0  0  0
   16.6010    2.8563    0.0000 C   0  0  0  0  0  0  0  0  0  0  0  0
   14.8250    0.8494    0.0000 C   0  0  2  0  0  0  0  0  0  0  0  0
   18.4133    1.0515    0.0000 C   0  0  0  0  0  0  0  0  0  0  0  0
   15.7350    2.3563    0.0000 C   0  0  0  0  0  0  0  0  0  0  0  0
   18.9969    1.8563    0.0000 C   0  0  0  0  0  0  0  0  0  0  0  0
   16.6171   -0.1852    0.0000 C   0  0  0  0  0  0  0  0  0  0  0  0
   18.7239    3.6115    0.0000 C   0  0  1  0  0  0  0  0  0  0  0  0
   17.4671    3.3563    0.0000 C   0  0  0  0  0  0  0  0  0  0  0  0
   14.8170   -0.1922    0.0000 C   0  0  0  0  0  0  0  0  0  0  0  0
   13.8982    1.4135    0.0000 C   0  0  0  0  0  0  0  0  0  0  0  0
   15.7191   -0.7130    0.0000 C   0  0  0  0  0  0  0  0  0  0  0  0
   14.8327    1.8494    0.0000 C   0  0  0  0  0  0  0  0  0  0  0  0
   13.8816   -0.7419    0.0000 C   0  0  0  0  0  0  0  0  0  0  0  0
   12.9503    0.8856    0.0000 C   0  0  0  0  0  0  0  0  0  0  0  0
   19.7024    3.8178    0.0000 C   0  0  0  0  0  0  0  0  0  0  0  0
   12.9419   -0.1994    0.0000 C   0  0  2  0  0  0  0  0  0  0  0  0
   18.0561    4.3558    0.0000 C   0  0  0  0  0  0  0  0  0  0  0  0
   20.0131    4.7683    0.0000 C   0  0  0  0  0  0  0  0  0  0  0  0
   20.9916    4.9745    0.0000 C   0  0  0  0  0  0  0  0  0  0  0  0
   21.3023    5.9250    0.0000 C   0  0  0  0  0  0  0  0  0  0  0  0
   11.2099   -0.1927    0.0000 C   0  0  0  0  0  0  0  0  0  0  0  0
   10.3419   -0.6894    0.0000 C   0  0  0  0  0  0  0  0  0  0  0  0
   22.2808    6.1312    0.0000 C   0  0  0  0  0  0  0  0  0  0  0  0
   20.6344    6.6693    0.0000 C   0  0  0  0  0  0  0  0  0  0  0  0
    9.4778   -0.1860    0.0000 C   0  0  0  0  0  0  0  0  0  0  0  0
    8.6099   -0.6827    0.0000 C   0  0  0  0  0  0  0  0  0  0  0  0
    7.7458   -0.1794    0.0000 C   0  0  0  0  0  0  0  0  0  0  0  0
    6.8779   -0.6760    0.0000 C   0  0  0  0  0  0  0  0  0  0  0  0
    6.0138   -0.1727    0.0000 C   0  0  0  0  0  0  0  0  0  0  0  0
    5.1458   -0.6694    0.0000 C   0  0  0  0  0  0  0  0  0  0  0  0
    4.2817   -0.1660    0.0000 C   0  0  0  0  0  0  0  0  0  0  0  0
    3.4138   -0.6627    0.0000 C   0  0  0  0  0  0  0  0  0  0  0  0
    3.4099   -1.6627    0.0000 C   0  0  0  0  0  0  0  0  0  0  0  0
    2.5420   -2.1593    0.0000 C   0  0  0  0  0  0  0  0  0  0  0  0
    2.5381   -3.1593    0.0000 C   0  0  0  0  0  0  0  0  0  0  0  0
    3.4022   -3.6626    0.0000 C   0  0  0  0  0  0  0  0  0  0  0  0
    3.3984   -4.6626    0.0000 C   0  0  0  0  0  0  0  0  0  0  0  0
    4.2625   -5.1660    0.0000 C   0  0  0  0  0  0  0  0  0  0  0  0
    4.2586   -6.1660    0.0000 C   0  0  0  0  0  0  0  0  0  0  0  0
    5.1227   -6.6693    0.0000 C   0  0  0  0  0  0  0  0  0  0  0  0
   17.5570    0.5110    0.0000 H   0  0  0  0  0  0  0  0  0  0  0  0
   17.3404    0.4370    0.0000 H   0  0  0  0  0  0  0  0  0  0  0  0
   16.4711    1.7813    0.0000 H   0  0  0  0  0  0  0  0  0  0  0  0
   19.2530    2.7929    0.0000 H   0  0  0  0  0  0  0  0  0  0  0  0
   16.9996    3.3312    0.0000 H   0  0  0  0  0  0  0  0  0  0  0  0
   16.2025    3.3312    0.0000 H   0  0  0  0  0  0  0  0  0  0  0  0
   18.1622    0.4846    0.0000 H   0  0  0  0  0  0  0  0  0  0  0  0
   18.9507    0.7423    0.0000 H   0  0  0  0  0  0  0  0  0  0  0  0
   15.5230    2.9389    0.0000 H   0  0  0  0  0  0  0  0  0  0  0  0
   15.1244    2.2486    0.0000 H   0  0  0  0  0  0  0  0  0  0  0  0
   19.4578    1.4416    0.0000 H   0  0  0  0  0  0  0  0  0  0  0  0
   19.4578    2.2710    0.0000 H   0  0  0  0  0  0  0  0  0  0  0  0
   16.8351   -0.7656    0.0000 H   0  0  0  0  0  0  0  0  0  0  0  0
   17.2262   -0.0697    0.0000 H   0  0  0  0  0  0  0  0  0  0  0  0
   18.1173    3.4837    0.0000 H   0  0  0  0  0  0  0  0  0  0  0  0
   18.0871    3.3563    0.0000 H   0  0  0  0  0  0  0  0  0  0  0  0
   17.4671    3.9763    0.0000 H   0  0  0  0  0  0  0  0  0  0  0  0
   16.8471    3.3563    0.0000 H   0  0  0  0  0  0  0  0  0  0  0  0
   14.3064    1.8802    0.0000 H   0  0  0  0  0  0  0  0  0  0  0  0
   13.5082    1.8956    0.0000 H   0  0  0  0  0  0  0  0  0  0  0  0
   15.7214   -1.3330    0.0000 H   0  0  0  0  0  0  0  0  0  0  0  0
   15.4527    1.8446    0.0000 H   0  0  0  0  0  0  0  0  0  0  0  0
   14.8375    2.4694    0.0000 H   0  0  0  0  0  0  0  0  0  0  0  0
   14.2127    1.8542    0.0000 H   0  0  0  0  0  0  0  0  0  0  0  0
   13.4842   -1.2179    0.0000 H   0  0  0  0  0  0  0  0  0  0  0  0
   14.2825   -1.2148    0.0000 H   0  0  0  0  0  0  0  0  0  0  0  0
   12.7457    1.4708    0.0000 H   0  0  0  0  0  0  0  0  0  0  0  0
   12.3386    0.7842    0.0000 H   0  0  0  0  0  0  0  0  0  0  0  0
   19.7230    3.1981    0.0000 H   0  0  0  0  0  0  0  0  0  0  0  0
   20.3163    3.7304    0.0000 H   0  0  0  0  0  0  0  0  0  0  0  0
   12.4068    0.1137    0.0000 H   0  0  0  0  0  0  0  0  0  0  0  0
   18.5176    4.7699    0.0000 H   0  0  0  0  0  0  0  0  0  0  0  0
   17.6420    4.8173    0.0000 H   0  0  0  0  0  0  0  0  0  0  0  0
   17.5946    3.9418    0.0000 H   0  0  0  0  0  0  0  0  0  0  0  0
   19.9925    5.3879    0.0000 H   0  0  0  0  0  0  0  0  0  0  0  0
   19.3993    4.8556    0.0000 H   0  0  0  0  0  0  0  0  0  0  0  0
   21.0122    4.3548    0.0000 H   0  0  0  0  0  0  0  0  0  0  0  0
   21.6054    4.8871    0.0000 H   0  0  0  0  0  0  0  0  0  0  0  0
   21.7163    5.4635    0.0000 H   0  0  0  0  0  0  0  0  0  0  0  0
    9.9416   -1.1628    0.0000 H   0  0  0  0  0  0  0  0  0  0  0  0
   10.7386   -1.1659    0.0000 H   0  0  0  0  0  0  0  0  0  0  0  0
   22.4086    5.5245    0.0000 H   0  0  0  0  0  0  0  0  0  0  0  0
   21.0959    7.0834    0.0000 H   0  0  0  0  0  0  0  0  0  0  0  0
   22.8875    6.2591    0.0000 H   0  0  0  0  0  0  0  0  0  0  0  0
   22.1529    6.7379    0.0000 H   0  0  0  0  0  0  0  0  0  0  0  0
   20.2204    7.1308    0.0000 H   0  0  0  0  0  0  0  0  0  0  0  0
   20.1730    6.2552    0.0000 H   0  0  0  0  0  0  0  0  0  0  0  0
    9.8782    0.2874    0.0000 H   0  0  0  0  0  0  0  0  0  0  0  0
    9.0811    0.2904    0.0000 H   0  0  0  0  0  0  0  0  0  0  0  0
    8.2095   -1.1561    0.0000 H   0  0  0  0  0  0  0  0  0  0  0  0
    9.0066   -1.1592    0.0000 H   0  0  0  0  0  0  0  0  0  0  0  0
    8.1462    0.2940    0.0000 H   0  0  0  0  0  0  0  0  0  0  0  0
    7.3491    0.2971    0.0000 H   0  0  0  0  0  0  0  0  0  0  0  0
    6.4775   -1.1494    0.0000 H   0  0  0  0  0  0  0  0  0  0  0  0
    7.2746   -1.1525    0.0000 H   0  0  0  0  0  0  0  0  0  0  0  0
    6.4141    0.3007    0.0000 H   0  0  0  0  0  0  0  0  0  0  0  0
    5.6171    0.3038    0.0000 H   0  0  0  0  0  0  0  0  0  0  0  0
    4.7455   -1.1428    0.0000 H   0  0  0  0  0  0  0  0  0  0  0  0
    5.5425   -1.1458    0.0000 H   0  0  0  0  0  0  0  0  0  0  0  0
    4.2841    0.4540    0.0000 H   0  0  0  0  0  0  0  0  0  0  0  0
    2.8780   -0.3506    0.0000 H   0  0  0  0  0  0  0  0  0  0  0  0
    3.6197   -2.2461    0.0000 H   0  0  0  0  0  0  0  0  0  0  0  0
    4.0209   -1.5574    0.0000 H   0  0  0  0  0  0  0  0  0  0  0  0
    2.0062   -1.8473    0.0000 H   0  0  0  0  0  0  0  0  0  0  0  0
    2.0000   -3.4672    0.0000 H   0  0  0  0  0  0  0  0  0  0  0  0
    4.0124   -3.7727    0.0000 H   0  0  0  0  0  0  0  0  0  0  0  0
    3.6165   -3.0809    0.0000 H   0  0  0  0  0  0  0  0  0  0  0  0
    2.7882   -4.5526    0.0000 H   0  0  0  0  0  0  0  0  0  0  0  0
    3.1841   -5.2444    0.0000 H   0  0  0  0  0  0  0  0  0  0  0  0
    4.8726   -5.2760    0.0000 H   0  0  0  0  0  0  0  0  0  0  0  0
    4.4768   -4.5842    0.0000 H   0  0  0  0  0  0  0  0  0  0  0  0
    3.6484   -6.0560    0.0000 H   0  0  0  0  0  0  0  0  0  0  0  0
    4.0443   -6.7478    0.0000 H   0  0  0  0  0  0  0  0  0  0  0  0
    4.8106   -7.2050    0.0000 H   0  0  0  0  0  0  0  0  0  0  0  0
    5.6584   -6.9814    0.0000 H   0  0  0  0  0  0  0  0  0  0  0  0
    5.4348   -6.1336    0.0000 H   0  0  0  0  0  0  0  0  0  0  0  0
 23  1  1  1  0  0  0
  1 28  1  0  0  0  0
  2 28  2  0  0  0  0
  3  4  1  0  0  0  0
  3  7  1  0  0  0  0
  3  8  1  0  0  0  0
  3 15  1  1  0  0  0
  4  5  1  0  0  0  0
  4 10  1  0  0  0  0
  4 48  1  6  0  0  0
  5  6  1  0  0  0  0
  5 13  1  0  0  0  0
  5 49  1  1  0  0  0
  6  9  1  0  0  0  0
  6 11  1  0  0  0  0
  6 50  1  6  0  0  0
  7 12  1  0  0  0  0
  7 14  1  0  0  0  0
  7 51  1  6  0  0  0
  8 11  1  0  0  0  0
  8 52  1  0  0  0  0
  8 53  1  0  0  0  0
  9 16  1  0  0  0  0
  9 17  1  0  0  0  0
  9 19  1  1  0  0  0
 10 12  1  0  0  0  0
 10 54  1  0  0  0  0
 10 55  1  0  0  0  0
 11 56  1  0  0  0  0
 11 57  1  0  0  0  0
 12 58  1  0  0  0  0
 12 59  1  0  0  0  0
 13 18  1  0  0  0  0
 13 60  1  0  0  0  0
 13 61  1  0  0  0  0
 14 22  1  0  0  0  0
 14 24  1  6  0  0  0
 14 62  1  0  0  0  0
 15 63  1  0  0  0  0
 15 64  1  0  0  0  0
 15 65  1  0  0  0  0
 16 18  2  0  0  0  0
 16 20  1  0  0  0  0
 17 21  1  0  0  0  0
 17 66  1  0  0  0  0
 17 67  1  0  0  0  0
 18 68  1  0  0  0  0
 19 69  1  0  0  0  0
 19 70  1  0  0  0  0
 19 71  1  0  0  0  0
 20 23  1  0  0  0  0
 20 72  1  0  0  0  0
 20 73  1  0  0  0  0
 21 23  1  0  0  0  0
 21 74  1  0  0  0  0
 21 75  1  0  0  0  0
 22 25  1  0  0  0  0
 22 76  1  0  0  0  0
 22 77  1  0  0  0  0
 23 78  1  0  0  0  0
 24 79  1  0  0  0  0
 24 80  1  0  0  0  0
 24 81  1  0  0  0  0
 25 26  1  0  0  0  0
 25 82  1  0  0  0  0
 25 83  1  0  0  0  0
 26 27  1  0  0  0  0
 26 84  1  0  0  0  0
 26 85  1  0  0  0  0
 27 30  1  0  0  0  0
 27 31  1  0  0  0  0
 27 86  1  0  0  0  0
 28 29  1  0  0  0  0
 29 32  1  0  0  0  0
 29 87  1  0  0  0  0
 29 88  1  0  0  0  0
 30 89  1  0  0  0  0
 30 91  1  0  0  0  0
 30 92  1  0  0  0  0
 31 90  1  0  0  0  0
 31 93  1  0  0  0  0
 31 94  1  0  0  0  0
 32 33  1  0  0  0  0
 32 95  1  0  0  0  0
 32 96  1  0  0  0  0
 33 34  1  0  0  0  0
 33 97  1  0  0  0  0
 33 98  1  0  0  0  0
 34 35  1  0  0  0  0
 34 99  1  0  0  0  0
 34100  1  0  0  0  0
 35 36  1  0  0  0  0
 35101  1  0  0  0  0
 35102  1  0  0  0  0
 36 37  1  0  0  0  0
 36103  1  0  0  0  0
 36104  1  0  0  0  0
 37 38  1  0  0  0  0
 37105  1  0  0  0  0
 37106  1  0  0  0  0
 38 39  2  0  0  0  0
 38107  1  0  0  0  0
 39 40  1  0  0  0  0
 39108  1  0  0  0  0
 40 41  1  0  0  0  0
 40109  1  0  0  0  0
 40110  1  0  0  0  0
 41 42  2  0  0  0  0
 41111  1  0  0  0  0
 42 43  1  0  0  0  0
 42112  1  0  0  0  0
 43 44  1  0  0  0  0
 43113  1  0  0  0  0
 43114  1  0  0  0  0
 44 45  1  0  0  0  0
 44115  1  0  0  0  0
 44116  1  0  0  0  0
 45 46  1  0  0  0  0
 45117  1  0  0  0  0
 45118  1  0  0  0  0
 46 47  1  0  0  0  0
 46119  1  0  0  0  0
 46120  1  0  0  0  0
 47121  1  0  0  0  0
 47122  1  0  0  0  0
 47123  1  0  0  0  0
M  END
> <PUBCHEM_COMPOUND_CID>
5287939

> <PUBCHEM_COMPOUND_CANONICALIZED>
1

> <PUBCHEM_CACTVS_COMPLEXITY>
1020

> <PUBCHEM_CACTVS_HBOND_ACCEPTOR>
2

> <PUBCHEM_CACTVS_HBOND_DONOR>
0

> <PUBCHEM_CACTVS_ROTATABLE_BOND>
21

> <PUBCHEM_CACTVS_SUBSKEYS>
AAADcfB8MAAAAAAAAAAAAAAAAAAAAYAAAAAwYIAAAAAAAGCAAAAAGgAAAAAADxSggAICCAAABACIAiDSCAAAAAAgAAAICAEAAAgAABIAAQACAAAEwAAIAAOIyPCPgAAAAAAAAADAAAQAACAAAQAACAAAAA==

> <PUBCHEM_IUPAC_OPENEYE_NAME>
[(3S,8S,9S,10R,13R,14S,17R)-17-[(1R)-1,5-dimethylhexyl]-10,13-dimethyl-2,3,4,7,8,9,11,12,14,15,16,17-dodecahydro-1H-cyclopenta[a]phenanthren-3-yl] (9Z,12Z)-octadeca-9,12-dienoate

> <PUBCHEM_IUPAC_CAS_NAME>
(9Z,12Z)-octadeca-9,12-dienoic acid [(3S,8S,9S,10R,13R,14S,17R)-10,13-dimethyl-17-[(2R)-6-methylheptan-2-yl]-2,3,4,7,8,9,11,12,14,15,16,17-dodecahydro-1H-cyclopenta[a]phenanthren-3-yl] ester

> <PUBCHEM_IUPAC_NAME>
[(3S,8S,9S,10R,13R,14S,17R)-10,13-dimethyl-17-[(2R)-6-methylheptan-2-yl]-2,3,4,7,8,9,11,12,14,15,16,17-dodecahydro-1H-cyclopenta[a]phenanthren-3-yl] (9Z,12Z)-octadeca-9,12-dienoate

> <PUBCHEM_IUPAC_SYSTEMATIC_NAME>
[(3S,8S,9S,10R,13R,14S,17R)-10,13-dimethyl-17-[(2R)-6-methylheptan-2-yl]-2,3,4,7,8,9,11,12,14,15,16,17-dodecahydro-1H-cyclopenta[a]phenanthren-3-yl] (9Z,12Z)-octadeca-9,12-dienoate

> <PUBCHEM_IUPAC_TRADITIONAL_NAME>
(9Z,12Z)-octadeca-9,12-dienoic acid [(3S,8S,9S,10R,13R,14S,17R)-17-[(1R)-1,5-dimethylhexyl]-10,13-dimethyl-2,3,4,7,8,9,11,12,14,15,16,17-dodecahydro-1H-cyclopenta[a]phenanthren-3-yl] ester

> <PUBCHEM_IUPAC_INCHI>
InChI=1S/C45H76O2/c1-7-8-9-10-11-12-13-14-15-16-17-18-19-20-21-25-43(46)47-38-30-32-44(5)37(34-38)26-27-39-41-29-28-40(36(4)24-22-23-35(2)3)45(41,6)33-31-42(39)44/h11-12,14-15,26,35-36,38-42H,7-10,13,16-25,27-34H2,1-6H3/b12-11-,15-14-/t36-,38+,39+,40-,41+,42+,44+,45-/m1/s1

> <PUBCHEM_IUPAC_INCHIKEY>
NAACPBBQTFFYQB-LJAITQKLSA-N

> <PUBCHEM_XLOGP3_AA>
15.9

> <PUBCHEM_EXACT_MASS>
648.584532

> <PUBCHEM_MOLECULAR_FORMULA>
C45H76O2

> <PUBCHEM_MOLECULAR_WEIGHT>
649.08374

> <PUBCHEM_OPENEYE_CAN_SMILES>
CCCCCC=CCC=CCCCCCCCC(=O)OC1CCC2(C3CCC4(C(C3CC=C2C1)CCC4C(C)CCCC(C)C)C)C

> <PUBCHEM_OPENEYE_ISO_SMILES>
CCCCC/C=C\C/C=C\CCCCCCCC(=O)O[C@H]1CC[C@@]2([C@H]3CC[C@]4([C@H]([C@@H]3CC=C2C1)CC[C@@H]4[C@H](C)CCCC(C)C)C)C

> <PUBCHEM_CACTVS_TPSA>
26.3

> <PUBCHEM_MONOISOTOPIC_WEIGHT>
648.584532

> <PUBCHEM_TOTAL_CHARGE>
0

> <PUBCHEM_HEAVY_ATOM_COUNT>
47

> <PUBCHEM_ATOM_DEF_STEREO_COUNT>
8

> <PUBCHEM_ATOM_UDEF_STEREO_COUNT>
0

> <PUBCHEM_BOND_DEF_STEREO_COUNT>
2

> <PUBCHEM_BOND_UDEF_STEREO_COUNT>
0

> <PUBCHEM_ISOTOPIC_ATOM_COUNT>
0

> <PUBCHEM_COMPONENT_COUNT>
1

> <PUBCHEM_CACTVS_TAUTO_COUNT>
1

> <PUBCHEM_COORDINATE_TYPE>
1
5
255

> <PUBCHEM_BONDANNOTATIONS>
23  1  5
14  24  6
3  15  5
4  48  6
5  49  5
6  50  6
7  51  6
9  19  5

$$$$

