   Color/Form
        Yellow powder
   from [1]HSDB

   Melting Point
        150 deg C
   from [2]HSDB

   Octanol/Water Partition Coefficient
        log Kow = 5.4 /Estimated/
   from [3]HSDB

   Solubilities

     * Very soluble in methanol, chloroform, and acetone and poorly
       soluble in water, hexane, and isopropyl ether.
     * In water, 5.0X10-2 mg/L at 25 deg C /Estimated/

   from [4]HSDB

   Spectral Properties
        Specific optical rotation: +138.5 deg at 20 deg C/D (concentration
   by volume = 0.5 g in 100 ml chloroform)
   from [5]HSDB

   Vapor Pressure
        8.0X10-14 mm Hg at 25 deg C /Estimated/
   from [6]HSDB

   Other Chemical/Physical Properties

     * Henry's Law constant = 5.0X10-13 atm-cu m/mole at 25 deg C
       /Estimated/
     * Hydroxyl radical reaction rate constant = 5.1X10-10 cu cm/molec-sec
       at 25 deg C /Estimated/
     * Ozone reaction rate constant = 1.4X10-14 cu cm/molec-sec at 25 deg
       C /Estimated/

   from [7]HSDB

   Computed Properties
   Molecular Weight                  429.5937 [g/mol]
   Molecular Formula                 C[29]H[35]NO[2]
   XLogP3-AA                         3.8
   H-Bond Donor                      1
   H-Bond Acceptor                   3
   Rotatable Bond Count              3
   Tautomer Count                    21
   Exact Mass                        429.266779
   MonoIsotopic Mass                 429.266779
   Topological Polar Surface Area    40.5
   Heavy Atom Count                  32
   Formal Charge                     0
   Complexity                        921
   Isotope Atom Count                0
   Defined Atom Stereocenter Count   5
   Undefined Atom Stereocenter Count 0
   Defined Bond Stereocenter Count   0
   Undefined Bond Stereocenter Count 0
   Covalently-Bonded Unit Count      1
   Feature 3D Acceptor Count         2
   Feature 3D Donor Count            1
   Feature 3D Cation Count           1
   Feature 3D Hydrophobe Count       1
   Feature 3D Ring Count             5
   Effective Rotor Count             3.8
   Conformer Sampling RMSD           0.8
   CID Conformer Count               [8]1

References

   1. http://toxnet.nlm.nih.gov/cgi-bin/sis/search/r?dbs+hsdb:@term+@rn+@rel+84371-65-3
   2. http://toxnet.nlm.nih.gov/cgi-bin/sis/search/r?dbs+hsdb:@term+@rn+@rel+84371-65-3
   3. http://toxnet.nlm.nih.gov/cgi-bin/sis/search/r?dbs+hsdb:@term+@rn+@rel+84371-65-3
   4. http://toxnet.nlm.nih.gov/cgi-bin/sis/search/r?dbs+hsdb:@term+@rn+@rel+84371-65-3
   5. http://toxnet.nlm.nih.gov/cgi-bin/sis/search/r?dbs+hsdb:@term+@rn+@rel+84371-65-3
   6. http://toxnet.nlm.nih.gov/cgi-bin/sis/search/r?dbs+hsdb:@term+@rn+@rel+84371-65-3
   7. http://toxnet.nlm.nih.gov/cgi-bin/sis/search/r?dbs+hsdb:@term+@rn+@rel+84371-65-3
   8. http://pubchem.ncbi.nlm.nih.gov/vw3d/vw3d.cgi?cid=55245
