   Chemical and Physical Properties References

   [1]USDA ARS - USDA chemical properties
   from [2]ChemIDplus

   Color/Form

     * White to light brown solid flakes, crystal powder or liquid.
     * Plates from benzene or toluene
     * White crystalline solid (pure compd)
     * Colorless crystalline solid (pure)

   from [3]HSDB

   Melting Point
        118-119 deg C
   from [4]HSDB

   Corrosivity
        Non-corrosive
   from [5]HSDB

   Density/Specific Gravity
        1.56 @ 25 DEG C/15.5 DEG C
   from [6]HSDB

   Dissociation Constants
        pKa= 3.13
   from [7]HSDB

   Octanol/Water Partition Coefficient
        log Kow = 3.25
   from [8]HSDB

   Solubilities

     * INSOL IN CARBON DISULFIDE; SOLUBILITY (G/100 ML): ETHER 77, ETHANOL
       153, N-HEPTANE 0.5, TOLUENE 6.2, XYLENE 4.9
     * SOL IN CARBON TETRACHLORIDE
     * Free acid insol in water but sodium and amine salts are soluble
     * Sol in benzene
     * Diethyl ether 770 mg/l
     * In water, 630 mg/l @ 25 deg C

   from [9]HSDB

   Spectral Properties

     * MAX ABSORPTION (AQ SOLN): 279 NM; MOLAR EXTINCTION COEFFICIENT @
       THIS WAVELENGTH 1500
     * Intense mass spectral peaks: 141 m/z (100%), 200 m/z (75%), 77 m/z
       (63%), 143 m/z (33%)
     * IR: 5667 (Sadtler Research Laboratories Prism Collection)
     * UV: 3794 (Sadtler Research Laboratories Spectral Collection)
     * NMR: 9679 (Sadtler Research Laboratories Spectral Collection)
     * Intense mass spectral peaks: 111 m/z, 165 m/z

   from [10]HSDB

   Vapor Pressure
        5.90X10-6 mm Hg
   from [11]HSDB

   Other Chemical/Physical Properties

     * Melting point: 115-117 deg C /technical grade MCPA/
     * The acid, pka 3.07, forms water sol alkali metal and amine salts,
       though precipitation of calcium or magnesium salts may occur with
       hard water.
     * Solubility: in water 270 g/l, methanol 340 g/l, benzene 1 g/l
       /2-Methyl-4-chlorophenoxyacetic acid sodium salt/
     * Solutions of the alkali metal salts are alkaline in reaction and
       will corrode aluminum and zinc.
     * Henry's Law constant= 4.8X10-10 atm-cu m/mole @ 25 deg C

   from [12]HSDB

   Computed Properties
   Molecular Weight                  200.61896 [g/mol]
   Molecular Formula                 C[9]H[9]ClO[3]
   XLogP3                            2.6
   H-Bond Donor                      1
   H-Bond Acceptor                   3
   Rotatable Bond Count              3
   Exact Mass                        200.024022
   MonoIsotopic Mass                 200.024022
   Topological Polar Surface Area    46.5
   Heavy Atom Count                  13
   Formal Charge                     0
   Complexity                        184
   Isotope Atom Count                0
   Defined Atom Stereocenter Count   0
   Undefined Atom Stereocenter Count 0
   Defined Bond Stereocenter Count   0
   Undefined Bond Stereocenter Count 0
   Covalently-Bonded Unit Count      1
   Feature 3D Acceptor Count         3
   Feature 3D Anion Count            1
   Feature 3D Ring Count             1
   Effective Rotor Count             3
   Conformer Sampling RMSD           0.6
   CID Conformer Count               [13]23

References

   1. http://www.ars.usda.gov/SP2UserFiles/ad_hoc/12755100DatabaseFiles/PesticidePropertiesDatabase/IndividualPesticideFiles/MCPA.TXT
   2. http://chem.sis.nlm.nih.gov/chemidplus/
   3. http://toxnet.nlm.nih.gov/cgi-bin/sis/search/r?dbs+hsdb:@term+@rn+@rel+94-74-6
   4. http://toxnet.nlm.nih.gov/cgi-bin/sis/search/r?dbs+hsdb:@term+@rn+@rel+94-74-6
   5. http://toxnet.nlm.nih.gov/cgi-bin/sis/search/r?dbs+hsdb:@term+@rn+@rel+94-74-6
   6. http://toxnet.nlm.nih.gov/cgi-bin/sis/search/r?dbs+hsdb:@term+@rn+@rel+94-74-6
   7. http://toxnet.nlm.nih.gov/cgi-bin/sis/search/r?dbs+hsdb:@term+@rn+@rel+94-74-6
   8. http://toxnet.nlm.nih.gov/cgi-bin/sis/search/r?dbs+hsdb:@term+@rn+@rel+94-74-6
   9. http://toxnet.nlm.nih.gov/cgi-bin/sis/search/r?dbs+hsdb:@term+@rn+@rel+94-74-6
  10. http://toxnet.nlm.nih.gov/cgi-bin/sis/search/r?dbs+hsdb:@term+@rn+@rel+94-74-6
  11. http://toxnet.nlm.nih.gov/cgi-bin/sis/search/r?dbs+hsdb:@term+@rn+@rel+94-74-6
  12. http://toxnet.nlm.nih.gov/cgi-bin/sis/search/r?dbs+hsdb:@term+@rn+@rel+94-74-6
  13. http://pubchem.ncbi.nlm.nih.gov/vw3d/vw3d.cgi?cid=7204
