5845
  -OEChem-07051213132D

 48 54  0     0  0  0  0  0  0999 V2000
    4.7320   -0.7500    0.0000 P   0  0  0  0  0  0  0  0  0  0  0  0
    5.5981    0.7500    0.0000 P   0  0  0  0  0  0  0  0  0  0  0  0
    3.8660    0.7500    0.0000 P   0  0  0  0  0  0  0  0  0  0  0  0
    4.2320   -1.6160    0.0000 N   0  0  0  0  0  0  0  0  0  0  0  0
    5.2320   -1.6160    0.0000 N   0  0  0  0  0  0  0  0  0  0  0  0
    6.0981    1.6160    0.0000 N   0  0  0  0  0  0  0  0  0  0  0  0
    6.5981    0.7500    0.0000 N   0  0  0  0  0  0  0  0  0  0  0  0
    3.3660    1.6160    0.0000 N   0  0  0  0  0  0  0  0  0  0  0  0
    2.8660    0.7500    0.0000 N   0  0  0  0  0  0  0  0  0  0  0  0
    3.8660   -0.2500    0.0000 N   0  0  0  0  0  0  0  0  0  0  0  0
    5.5981   -0.2500    0.0000 N   0  0  0  0  0  0  0  0  0  0  0  0
    4.7320    1.2500    0.0000 N   0  0  0  0  0  0  0  0  0  0  0  0
    7.4641    0.2500    0.0000 C   0  0  0  0  0  0  0  0  0  0  0  0
    7.4641    1.2500    0.0000 C   0  0  0  0  0  0  0  0  0  0  0  0
    6.9641    2.1160    0.0000 C   0  0  0  0  0  0  0  0  0  0  0  0
    6.0981    2.6160    0.0000 C   0  0  0  0  0  0  0  0  0  0  0  0
    3.3660    2.6160    0.0000 C   0  0  0  0  0  0  0  0  0  0  0  0
    2.5000    2.1160    0.0000 C   0  0  0  0  0  0  0  0  0  0  0  0
    2.0000    1.2500    0.0000 C   0  0  0  0  0  0  0  0  0  0  0  0
    2.0000    0.2500    0.0000 C   0  0  0  0  0  0  0  0  0  0  0  0
    5.2320   -2.6160    0.0000 C   0  0  0  0  0  0  0  0  0  0  0  0
    6.0981   -2.1160    0.0000 C   0  0  0  0  0  0  0  0  0  0  0  0
    3.3660   -2.1160    0.0000 C   0  0  0  0  0  0  0  0  0  0  0  0
    4.2320   -2.6160    0.0000 C   0  0  0  0  0  0  0  0  0  0  0  0
    2.1015    2.5910    0.0000 H   0  0  0  0  0  0  0  0  0  0  0  0
    2.1015    1.6411    0.0000 H   0  0  0  0  0  0  0  0  0  0  0  0
    3.9766    2.7237    0.0000 H   0  0  0  0  0  0  0  0  0  0  0  0
    3.1540    3.1986    0.0000 H   0  0  0  0  0  0  0  0  0  0  0  0
    6.3101    3.1986    0.0000 H   0  0  0  0  0  0  0  0  0  0  0  0
    5.4875    2.7237    0.0000 H   0  0  0  0  0  0  0  0  0  0  0  0
    7.3626    1.6411    0.0000 H   0  0  0  0  0  0  0  0  0  0  0  0
    7.3626    2.5910    0.0000 H   0  0  0  0  0  0  0  0  0  0  0  0
    8.0747    1.3577    0.0000 H   0  0  0  0  0  0  0  0  0  0  0  0
    7.2520    1.8326    0.0000 H   0  0  0  0  0  0  0  0  0  0  0  0
    7.2520   -0.3326    0.0000 H   0  0  0  0  0  0  0  0  0  0  0  0
    8.0747    0.1423    0.0000 H   0  0  0  0  0  0  0  0  0  0  0  0
    2.2120    1.8326    0.0000 H   0  0  0  0  0  0  0  0  0  0  0  0
    1.3894    1.3577    0.0000 H   0  0  0  0  0  0  0  0  0  0  0  0
    1.3894    0.1423    0.0000 H   0  0  0  0  0  0  0  0  0  0  0  0
    2.2120   -0.3326    0.0000 H   0  0  0  0  0  0  0  0  0  0  0  0
    4.6215   -2.7237    0.0000 H   0  0  0  0  0  0  0  0  0  0  0  0
    5.4441   -3.1986    0.0000 H   0  0  0  0  0  0  0  0  0  0  0  0
    6.4966   -2.5910    0.0000 H   0  0  0  0  0  0  0  0  0  0  0  0
    6.4966   -1.6411    0.0000 H   0  0  0  0  0  0  0  0  0  0  0  0
    2.9675   -1.6411    0.0000 H   0  0  0  0  0  0  0  0  0  0  0  0
    2.9675   -2.5910    0.0000 H   0  0  0  0  0  0  0  0  0  0  0  0
    4.0200   -3.1986    0.0000 H   0  0  0  0  0  0  0  0  0  0  0  0
    4.8426   -2.7237    0.0000 H   0  0  0  0  0  0  0  0  0  0  0  0
  1  4  1  0  0  0  0
  1  5  1  0  0  0  0
  1 10  1  0  0  0  0
  1 11  2  0  0  0  0
  2  6  1  0  0  0  0
  2  7  1  0  0  0  0
  2 11  1  0  0  0  0
  2 12  2  0  0  0  0
  3  8  1  0  0  0  0
  3  9  1  0  0  0  0
  3 10  2  0  0  0  0
  3 12  1  0  0  0  0
  4 23  1  0  0  0  0
  4 24  1  0  0  0  0
  5 21  1  0  0  0  0
  5 22  1  0  0  0  0
  6 15  1  0  0  0  0
  6 16  1  0  0  0  0
  7 13  1  0  0  0  0
  7 14  1  0  0  0  0
  8 17  1  0  0  0  0
  8 18  1  0  0  0  0
  9 19  1  0  0  0  0
  9 20  1  0  0  0  0
 13 14  1  0  0  0  0
 13 35  1  0  0  0  0
 13 36  1  0  0  0  0
 14 33  1  0  0  0  0
 14 34  1  0  0  0  0
 15 16  1  0  0  0  0
 15 31  1  0  0  0  0
 15 32  1  0  0  0  0
 16 29  1  0  0  0  0
 16 30  1  0  0  0  0
 17 18  1  0  0  0  0
 17 27  1  0  0  0  0
 17 28  1  0  0  0  0
 18 25  1  0  0  0  0
 18 26  1  0  0  0  0
 19 20  1  0  0  0  0
 19 37  1  0  0  0  0
 19 38  1  0  0  0  0
 20 39  1  0  0  0  0
 20 40  1  0  0  0  0
 21 22  1  0  0  0  0
 21 41  1  0  0  0  0
 21 42  1  0  0  0  0
 22 43  1  0  0  0  0
 22 44  1  0  0  0  0
 23 24  1  0  0  0  0
 23 45  1  0  0  0  0
 23 46  1  0  0  0  0
 24 47  1  0  0  0  0
 24 48  1  0  0  0  0
M  END
> <PUBCHEM_COMPOUND_CID>
5845

> <PUBCHEM_COMPOUND_CANONICALIZED>
1

> <PUBCHEM_CACTVS_COMPLEXITY>
592

> <PUBCHEM_CACTVS_HBOND_ACCEPTOR>
9

> <PUBCHEM_CACTVS_HBOND_DONOR>
0

> <PUBCHEM_CACTVS_ROTATABLE_BOND>
6

> <PUBCHEM_CACTVS_SUBSKEYS>
AAADceBzwAMAAAAAAAAAAAAAFiwAAAAAAAAgAAAAAAAAAAAAAAAAHAAAgAAAAADBAAQAAAIAAAAAgAAAAAAAAAAAAAAAAAAIAAAAAAAAAAAAAAAAAAAAAAAAAAAAAAAAAAAAAAAAAAAAAAAAAAAAAAAAAA==

> <PUBCHEM_IUPAC_OPENEYE_NAME>
2,2,4,4,6,6-hexakis(aziridin-1-yl)-1,3,5-triaza-2$l^{5},4$l^{5},6$l^{5}-triphosphacyclohexa-1,3,5-triene

> <PUBCHEM_IUPAC_CAS_NAME>
2,2,4,4,6,6-hexakis(1-aziridinyl)-1,3,5-triaza-2$l^{5},4$l^{5},6$l^{5}-triphosphacyclohexa-1,3,5-triene

> <PUBCHEM_IUPAC_NAME>
2,2,4,4,6,6-hexakis(aziridin-1-yl)-1,3,5-triaza-2$l^{5},4$l^{5},6$l^{5}-triphosphacyclohexa-1,3,5-triene

> <PUBCHEM_IUPAC_SYSTEMATIC_NAME>
2,2,4,4,6,6-hexakis(aziridin-1-yl)-1,3,5-triaza-2$l^{5},4$l^{5},6$l^{5}-triphosphacyclohexa-1,3,5-triene

> <PUBCHEM_IUPAC_TRADITIONAL_NAME>
2,2,4,4,6,6-hexaethylenimino-1,3,5-triaza-2$l^{5},4$l^{5},6$l^{5}-triphosphacyclohexa-1,3,5-triene

> <PUBCHEM_IUPAC_INCHI>
InChI=1S/C12H24N9P3/c1-2-16(1)22(17-3-4-17)13-23(18-5-6-18,19-7-8-19)15-24(14-22,20-9-10-20)21-11-12-21/h1-12H2

> <PUBCHEM_IUPAC_INCHIKEY>
PXZAWHSJYIECNQ-UHFFFAOYSA-N

> <PUBCHEM_XLOGP3_AA>
0.6

> <PUBCHEM_EXACT_MASS>
387.136752

> <PUBCHEM_MOLECULAR_FORMULA>
C12H24N9P3

> <PUBCHEM_MOLECULAR_WEIGHT>
387.300546

> <PUBCHEM_OPENEYE_CAN_SMILES>
C1CN1P2(=NP(=NP(=N2)(N3CC3)N4CC4)(N5CC5)N6CC6)N7CC7

> <PUBCHEM_OPENEYE_ISO_SMILES>
C1CN1P2(=NP(=NP(=N2)(N3CC3)N4CC4)(N5CC5)N6CC6)N7CC7

> <PUBCHEM_CACTVS_TPSA>
55.1

> <PUBCHEM_MONOISOTOPIC_WEIGHT>
387.136752

> <PUBCHEM_TOTAL_CHARGE>
0

> <PUBCHEM_HEAVY_ATOM_COUNT>
24

> <PUBCHEM_ATOM_DEF_STEREO_COUNT>
0

> <PUBCHEM_ATOM_UDEF_STEREO_COUNT>
0

> <PUBCHEM_BOND_DEF_STEREO_COUNT>
0

> <PUBCHEM_BOND_UDEF_STEREO_COUNT>
0

> <PUBCHEM_ISOTOPIC_ATOM_COUNT>
0

> <PUBCHEM_COMPONENT_COUNT>
1

> <PUBCHEM_CACTVS_TAUTO_COUNT>
1

> <PUBCHEM_COORDINATE_TYPE>
1
5
255

$$$$

