   Color/Form

     * Colorless crystals
     * White crystals

   from [1]HSDB

   Odor
        Odorless
   from [2]HSDB

   Melting Point
        approx 136 deg C
   from [3]HSDB

   Corrosivity
        Non-corrosive to metals
   from [4]HSDB

   Octanol/Water Partition Coefficient
        log Kow = 3.00
   from [5]HSDB

   Solubilities

     * Solubility at 20 deg C (g/l): ethanol 25; methanol 25; acetone 300;
       dichloromethane 500; dimethylformamide 500
     * Solubility (20 deg C): 300 g/l acetophenone, anisole; 500 g/l
       1-methyl-2-pyrrolidone
     * Solubility: acetonitrile 150, toluene 150, benzene 200 (all in g/l
       at 20 deg C)
     * In water, 13.9 mg/l @ 25 deg C.

   from [6]HSDB

   Vapor Pressure
        3.75X10-9 mm Hg @ 25 deg C
   from [7]HSDB

   Other Chemical/Physical Properties

     * Non-hygroscopic
     * Henry's Law constant = 3.12X10-9 atm-cu m/mole @ 25 deg C

   from [8]HSDB

   Computed Properties
   Molecular Weight                  330.16662 [g/mol]
   Molecular Formula                 C[13]H[13]Cl[2]N[3]O[3]
   XLogP3                            3.1
   H-Bond Donor                      1
   H-Bond Acceptor                   3
   Rotatable Bond Count              2
   Tautomer Count                    4
   Exact Mass                        329.033397
   MonoIsotopic Mass                 329.033397
   Topological Polar Surface Area    69.7
   Heavy Atom Count                  21
   Formal Charge                     0
   Complexity                        448
   Isotope Atom Count                0
   Defined Atom Stereocenter Count   0
   Undefined Atom Stereocenter Count 0
   Defined Bond Stereocenter Count   0
   Undefined Bond Stereocenter Count 0
   Covalently-Bonded Unit Count      1
   Feature 3D Acceptor Count         3
   Feature 3D Donor Count            1
   Feature 3D Hydrophobe Count       1
   Feature 3D Ring Count             2
   Effective Rotor Count             4.6
   Conformer Sampling RMSD           0.8
   CID Conformer Count               [9]6

References

   1. http://toxnet.nlm.nih.gov/cgi-bin/sis/search/r?dbs+hsdb:@term+@rn+@rel+36734-19-7
   2. http://toxnet.nlm.nih.gov/cgi-bin/sis/search/r?dbs+hsdb:@term+@rn+@rel+36734-19-7
   3. http://toxnet.nlm.nih.gov/cgi-bin/sis/search/r?dbs+hsdb:@term+@rn+@rel+36734-19-7
   4. http://toxnet.nlm.nih.gov/cgi-bin/sis/search/r?dbs+hsdb:@term+@rn+@rel+36734-19-7
   5. http://toxnet.nlm.nih.gov/cgi-bin/sis/search/r?dbs+hsdb:@term+@rn+@rel+36734-19-7
   6. http://toxnet.nlm.nih.gov/cgi-bin/sis/search/r?dbs+hsdb:@term+@rn+@rel+36734-19-7
   7. http://toxnet.nlm.nih.gov/cgi-bin/sis/search/r?dbs+hsdb:@term+@rn+@rel+36734-19-7
   8. http://toxnet.nlm.nih.gov/cgi-bin/sis/search/r?dbs+hsdb:@term+@rn+@rel+36734-19-7
   9. http://pubchem.ncbi.nlm.nih.gov/vw3d/vw3d.cgi?cid=37517
