   Color/Form

     * White or slightly-reddish, crystalline powder
     * Grayish-yellow, reddish-gray, or white crystalline powder [Note:
       Darkens on exposure to air and light].

   from [1]HSDB

   Boiling Point
        401 deg C
   from [2]HSDB

   Melting Point
        120 deg C
   from [3]HSDB

   Density/Specific Gravity
        1.250 @ 20 DEG C/4 DEG C
   from [4]HSDB

   Dissociation Constants
        pKa1= 4.3 pKa2= 3.3
   from [5]HSDB

   Octanol/Water Partition Coefficient
        log Kow= 1.34
   from [6]HSDB

   Solubilities

     * 1 g dissolves in 2500 ml cold water; 1 g dissolves in 107 ml
       boiling water; 1 g dissolves in 5 ml boiling alcohol; 1 g dissolves
       in 50 ml ether
     * In water, 322 mg/l @ 25 deg C

   from [7]HSDB

   Spectral Properties

     * SADTLER REFERENCE NUMBER: 6632 (IR, PRISM); 8482 (IR, GRATING);
       1830 (UV); MAX ABSORPTION (ALC): 287 NM (LOG E= 4.4)
     * The absorption maximum for benzidine in aqueous ethanol is 287 nm
       with significant absorption in the ultraviolet region extending to
       340 nm.
     * Intense mass spectral peaks: 184 m/z (100%), 92 m/z (24%), 185 m/z
       (13%), 91 m/z (13%)
     * MASS: 4343 (National Bureau of Standards EPA-NIH Mass Spectra Data
       Base, NSRDS-NBS-63)
     * IR: 5602 (Coblentz Society Spectral Collection)
     * UV: 18799 (Sadtler Research Laboratories Spectral Collection)
     * NMR: 11376 (Sadtler Research Laboratories Spectral Collection)
     * MASS: 147 (Aldermaston, Eight Peak Index of Mass Spectra, UK)

   from [8]HSDB

   Vapor Density
        6.36 (Air = 1)
   from [9]HSDB

   Other Chemical/Physical Properties

     * CAN BE MADE TO SUBLIME
     * WEAK BASE THAT FORMS INSOL SALTS WITH SULFURIC ACID: CAN BE
       DIAZOTIZED & OXIDIZED, & AMINO GROUPS CAN BE ACETYLATED & ALKYLATED
     * CONVERSION FACTOR: 1 PPM= 0.133 MG/CU M
     * Although benzidine can be protonated to form a cation which cannot
       volatilize from water, the pKa values of the diprotonated and
       monoprotonated conjugate acids of benzidine have been reported as
       3.3 and 4.5, respectively. Therefore, dissolved benzidine will be
       present almost entirely in the form of a free base in naturally
       occurring waters.

   from [10]HSDB

   Computed Properties
   Molecular Weight                  184.23708 [g/mol]
   Molecular Formula                 C[12]H[12]N[2]
   XLogP3                            1.3
   H-Bond Donor                      2
   H-Bond Acceptor                   2
   Rotatable Bond Count              1
   Exact Mass                        184.100048
   MonoIsotopic Mass                 184.100048
   Topological Polar Surface Area    52
   Heavy Atom Count                  14
   Formal Charge                     0
   Complexity                        145
   Isotope Atom Count                0
   Defined Atom Stereocenter Count   0
   Undefined Atom Stereocenter Count 0
   Defined Bond Stereocenter Count   0
   Undefined Bond Stereocenter Count 0
   Covalently-Bonded Unit Count      1
   Feature 3D Donor Count            2
   Feature 3D Cation Count           2
   Feature 3D Ring Count             2
   Effective Rotor Count             1
   Conformer Sampling RMSD           0.4
   CID Conformer Count               [11]2

References

   1. http://toxnet.nlm.nih.gov/cgi-bin/sis/search/r?dbs+hsdb:@term+@rn+@rel+92-87-5
   2. http://toxnet.nlm.nih.gov/cgi-bin/sis/search/r?dbs+hsdb:@term+@rn+@rel+92-87-5
   3. http://toxnet.nlm.nih.gov/cgi-bin/sis/search/r?dbs+hsdb:@term+@rn+@rel+92-87-5
   4. http://toxnet.nlm.nih.gov/cgi-bin/sis/search/r?dbs+hsdb:@term+@rn+@rel+92-87-5
   5. http://toxnet.nlm.nih.gov/cgi-bin/sis/search/r?dbs+hsdb:@term+@rn+@rel+92-87-5
   6. http://toxnet.nlm.nih.gov/cgi-bin/sis/search/r?dbs+hsdb:@term+@rn+@rel+92-87-5
   7. http://toxnet.nlm.nih.gov/cgi-bin/sis/search/r?dbs+hsdb:@term+@rn+@rel+92-87-5
   8. http://toxnet.nlm.nih.gov/cgi-bin/sis/search/r?dbs+hsdb:@term+@rn+@rel+92-87-5
   9. http://toxnet.nlm.nih.gov/cgi-bin/sis/search/r?dbs+hsdb:@term+@rn+@rel+92-87-5
  10. http://toxnet.nlm.nih.gov/cgi-bin/sis/search/r?dbs+hsdb:@term+@rn+@rel+92-87-5
  11. http://pubchem.ncbi.nlm.nih.gov/vw3d/vw3d.cgi?cid=7111
