15558620
  -OEChem-07051213102D

 82 86  0     1  0  0  0  0  0999 V2000
    4.7950    0.4679    0.0000 O   0  0  0  0  0  0  0  0  0  0  0  0
    2.0000   -3.0844    0.0000 O   0  0  0  0  0  0  0  0  0  0  0  0
   11.8682    2.2754    0.0000 O   0  0  0  0  0  0  0  0  0  0  0  0
    9.2713    3.1242    0.0000 O   0  0  0  0  0  0  0  0  0  0  0  0
    6.5271   -1.5321    0.0000 C   0  0  1  0  0  0  0  0  0  0  0  0
    5.6610   -1.0321    0.0000 C   0  0  2  0  0  0  0  0  0  0  0  0
    4.7510   -1.5390    0.0000 C   0  0  2  0  0  0  0  0  0  0  0  0
    7.3931   -1.0321    0.0000 C   0  0  2  0  0  0  0  0  0  0  0  0
    4.7430   -2.5806    0.0000 C   0  0  1  0  0  0  0  0  0  0  0  0
    6.5431   -2.5736    0.0000 C   0  0  0  0  0  0  0  0  0  0  0  0
    5.6610   -0.0321    0.0000 C   0  0  2  0  0  0  0  0  0  0  0  0
    5.6451   -3.1014    0.0000 C   0  0  0  0  0  0  0  0  0  0  0  0
    7.3931   -0.0321    0.0000 C   0  0  0  0  0  0  0  0  0  0  0  0
    3.8076   -3.1303    0.0000 C   0  0  0  0  0  0  0  0  0  0  0  0
    3.8242   -0.9749    0.0000 C   0  0  0  0  0  0  0  0  0  0  0  0
    8.3393   -1.3369    0.0000 C   0  0  0  0  0  0  0  0  0  0  0  0
    6.5271    0.4679    0.0000 C   0  0  0  0  0  0  0  0  0  0  0  0
    7.1698   -2.2982    0.0000 C   0  0  0  0  0  0  0  0  0  0  0  0
    4.7587   -0.5390    0.0000 C   0  0  0  0  0  0  0  0  0  0  0  0
    8.3393    0.2726    0.0000 C   0  0  0  0  0  0  0  0  0  0  0  0
    7.7352   -1.9718    0.0000 C   0  0  0  0  0  0  0  0  0  0  0  0
    8.9229   -0.5321    0.0000 C   0  0  0  0  0  0  0  0  0  0  0  0
    2.8763   -1.5028    0.0000 C   0  0  0  0  0  0  0  0  0  0  0  0
    2.8680   -2.5878    0.0000 C   0  0  0  0  0  0  0  0  0  0  0  0
    3.3109   -3.9982    0.0000 C   0  0  0  0  0  0  0  0  0  0  0  0
    4.3109   -3.9944    0.0000 C   0  0  0  0  0  0  0  0  0  0  0  0
    8.6500    1.2231    0.0000 C   0  0  1  0  0  0  0  0  0  0  0  0
    9.6285    1.4293    0.0000 C   0  0  0  0  0  0  0  0  0  0  0  0
    7.9821    1.9674    0.0000 C   0  0  0  0  0  0  0  0  0  0  0  0
    9.9391    2.3799    0.0000 C   0  0  1  0  0  0  0  0  0  0  0  0
   10.9176    2.5861    0.0000 C   0  0  2  0  0  0  0  0  0  0  0  0
   11.6619    3.2539    0.0000 C   0  0  0  0  0  0  0  0  0  0  0  0
   12.6404    3.4602    0.0000 C   0  0  0  0  0  0  0  0  0  0  0  0
   10.9941    3.9982    0.0000 C   0  0  0  0  0  0  0  0  0  0  0  0
    6.3972   -0.6071    0.0000 H   0  0  0  0  0  0  0  0  0  0  0  0
    4.7463   -3.4306    0.0000 H   0  0  0  0  0  0  0  0  0  0  0  0
    6.7612   -3.1540    0.0000 H   0  0  0  0  0  0  0  0  0  0  0  0
    7.1523   -2.4581    0.0000 H   0  0  0  0  0  0  0  0  0  0  0  0
    5.6610    0.5879    0.0000 H   0  0  0  0  0  0  0  0  0  0  0  0
    5.2478   -3.5774    0.0000 H   0  0  0  0  0  0  0  0  0  0  0  0
    6.0460   -3.5743    0.0000 H   0  0  0  0  0  0  0  0  0  0  0  0
    4.2324   -0.5082    0.0000 H   0  0  0  0  0  0  0  0  0  0  0  0
    3.4343   -0.4928    0.0000 H   0  0  0  0  0  0  0  0  0  0  0  0
    8.0883   -1.9038    0.0000 H   0  0  0  0  0  0  0  0  0  0  0  0
    8.8767   -1.6461    0.0000 H   0  0  0  0  0  0  0  0  0  0  0  0
    6.9256    0.9428    0.0000 H   0  0  0  0  0  0  0  0  0  0  0  0
    6.1285    0.9428    0.0000 H   0  0  0  0  0  0  0  0  0  0  0  0
    6.6949   -2.6967    0.0000 H   0  0  0  0  0  0  0  0  0  0  0  0
    7.5684   -2.7731    0.0000 H   0  0  0  0  0  0  0  0  0  0  0  0
    7.6448   -1.8996    0.0000 H   0  0  0  0  0  0  0  0  0  0  0  0
    5.3787   -0.5438    0.0000 H   0  0  0  0  0  0  0  0  0  0  0  0
    4.7635    0.0810    0.0000 H   0  0  0  0  0  0  0  0  0  0  0  0
    4.1388   -0.5342    0.0000 H   0  0  0  0  0  0  0  0  0  0  0  0
    7.1526   -2.1839    0.0000 H   0  0  0  0  0  0  0  0  0  0  0  0
    7.9473   -2.5544    0.0000 H   0  0  0  0  0  0  0  0  0  0  0  0
    8.3178   -1.7597    0.0000 H   0  0  0  0  0  0  0  0  0  0  0  0
    9.3838   -0.9468    0.0000 H   0  0  0  0  0  0  0  0  0  0  0  0
    9.3838   -0.1174    0.0000 H   0  0  0  0  0  0  0  0  0  0  0  0
    2.6718   -0.9175    0.0000 H   0  0  0  0  0  0  0  0  0  0  0  0
    2.2647   -1.6042    0.0000 H   0  0  0  0  0  0  0  0  0  0  0  0
    2.7728   -3.6903    0.0000 H   0  0  0  0  0  0  0  0  0  0  0  0
    3.0030   -4.5364    0.0000 H   0  0  0  0  0  0  0  0  0  0  0  0
    3.8490   -4.3062    0.0000 H   0  0  0  0  0  0  0  0  0  0  0  0
    3.7752   -4.3064    0.0000 H   0  0  0  0  0  0  0  0  0  0  0  0
    4.6230   -4.5301    0.0000 H   0  0  0  0  0  0  0  0  0  0  0  0
    4.8466   -3.6823    0.0000 H   0  0  0  0  0  0  0  0  0  0  0  0
    8.0433    1.0953    0.0000 H   0  0  0  0  0  0  0  0  0  0  0  0
    4.7950    1.0879    0.0000 H   0  0  0  0  0  0  0  0  0  0  0  0
    9.6490    0.8097    0.0000 H   0  0  0  0  0  0  0  0  0  0  0  0
   10.2423    1.3420    0.0000 H   0  0  0  0  0  0  0  0  0  0  0  0
    8.4436    2.3815    0.0000 H   0  0  0  0  0  0  0  0  0  0  0  0
    7.5681    2.4289    0.0000 H   0  0  0  0  0  0  0  0  0  0  0  0
    7.5207    1.5534    0.0000 H   0  0  0  0  0  0  0  0  0  0  0  0
   10.1317    2.9692    0.0000 H   0  0  0  0  0  0  0  0  0  0  0  0
   10.8717    1.7373    0.0000 H   0  0  0  0  0  0  0  0  0  0  0  0
    9.4639    3.7135    0.0000 H   0  0  0  0  0  0  0  0  0  0  0  0
   12.7683    2.8535    0.0000 H   0  0  0  0  0  0  0  0  0  0  0  0
   13.2471    3.5880    0.0000 H   0  0  0  0  0  0  0  0  0  0  0  0
   12.5126    4.0668    0.0000 H   0  0  0  0  0  0  0  0  0  0  0  0
   11.4556    4.4123    0.0000 H   0  0  0  0  0  0  0  0  0  0  0  0
   10.5800    4.4597    0.0000 H   0  0  0  0  0  0  0  0  0  0  0  0
   10.5326    3.5842    0.0000 H   0  0  0  0  0  0  0  0  0  0  0  0
 11  1  1  1  0  0  0
  1 68  1  0  0  0  0
  2 24  2  0  0  0  0
  3 31  1  0  0  0  0
  3 32  1  0  0  0  0
 30  4  1  6  0  0  0
  4 76  1  0  0  0  0
  5  6  1  0  0  0  0
  5  8  1  0  0  0  0
  5 10  1  0  0  0  0
  5 18  1  6  0  0  0
  6  7  1  0  0  0  0
  6 11  1  0  0  0  0
  6 35  1  1  0  0  0
  7  9  1  0  0  0  0
  7 15  1  0  0  0  0
  7 19  1  1  0  0  0
  8 13  1  0  0  0  0
  8 16  1  0  0  0  0
  8 21  1  1  0  0  0
  9 12  1  0  0  0  0
  9 14  1  0  0  0  0
  9 36  1  6  0  0  0
 10 12  1  0  0  0  0
 10 37  1  0  0  0  0
 10 38  1  0  0  0  0
 11 17  1  0  0  0  0
 11 39  1  0  0  0  0
 12 40  1  0  0  0  0
 12 41  1  0  0  0  0
 13 17  1  0  0  0  0
 13 20  2  0  0  0  0
 14 24  1  0  0  0  0
 14 25  1  0  0  0  0
 14 26  1  0  0  0  0
 15 23  1  0  0  0  0
 15 42  1  0  0  0  0
 15 43  1  0  0  0  0
 16 22  1  0  0  0  0
 16 44  1  0  0  0  0
 16 45  1  0  0  0  0
 17 46  1  0  0  0  0
 17 47  1  0  0  0  0
 18 48  1  0  0  0  0
 18 49  1  0  0  0  0
 18 50  1  0  0  0  0
 19 51  1  0  0  0  0
 19 52  1  0  0  0  0
 19 53  1  0  0  0  0
 20 22  1  0  0  0  0
 20 27  1  0  0  0  0
 21 54  1  0  0  0  0
 21 55  1  0  0  0  0
 21 56  1  0  0  0  0
 22 57  1  0  0  0  0
 22 58  1  0  0  0  0
 23 24  1  0  0  0  0
 23 59  1  0  0  0  0
 23 60  1  0  0  0  0
 25 61  1  0  0  0  0
 25 62  1  0  0  0  0
 25 63  1  0  0  0  0
 26 64  1  0  0  0  0
 26 65  1  0  0  0  0
 26 66  1  0  0  0  0
 27 28  1  0  0  0  0
 27 29  1  6  0  0  0
 27 67  1  0  0  0  0
 28 30  1  0  0  0  0
 28 69  1  0  0  0  0
 28 70  1  0  0  0  0
 29 71  1  0  0  0  0
 29 72  1  0  0  0  0
 29 73  1  0  0  0  0
 30 31  1  0  0  0  0
 30 74  1  0  0  0  0
 31 32  1  0  0  0  0
 31 75  1  1  0  0  0
 32 33  1  0  0  0  0
 32 34  1  0  0  0  0
 33 77  1  0  0  0  0
 33 78  1  0  0  0  0
 33 79  1  0  0  0  0
 34 80  1  0  0  0  0
 34 81  1  0  0  0  0
 34 82  1  0  0  0  0
M  END
> <PUBCHEM_COMPOUND_CID>
15558620

> <PUBCHEM_COMPOUND_CANONICALIZED>
1

> <PUBCHEM_CACTVS_COMPLEXITY>
917

> <PUBCHEM_CACTVS_HBOND_ACCEPTOR>
4

> <PUBCHEM_CACTVS_HBOND_DONOR>
2

> <PUBCHEM_CACTVS_ROTATABLE_BOND>
4

> <PUBCHEM_CACTVS_SUBSKEYS>
AAADcfB4OAAAAAAAAAAAAAAAEgAAAQAAAAAwYMAAAAAAAEDAAAAAGgAACAAAD1SggAICAAAABgCIAoBQAAAAAAAgAAAACAEAAAgBEBIAAAACQAAFwAALAAOIyPCPgAAAAAAAAADAAAYAADAAAAAAAAAAAA==

> <PUBCHEM_IUPAC_OPENEYE_NAME>
(5R,8S,9S,10S,11S,14R)-17-[(1R,3S)-3-[(2R)-3,3-dimethyloxiran-2-yl]-3-hydroxy-1-methyl-propyl]-11-hydroxy-4,4,8,10,14-pentamethyl-1,2,5,6,7,9,11,12,15,16-decahydrocyclopenta[a]phenanthren-3-one

> <PUBCHEM_IUPAC_CAS_NAME>
(5R,8S,9S,10S,11S,14R)-17-[(2R,4S)-4-[(2R)-3,3-dimethyl-2-oxiranyl]-4-hydroxybutan-2-yl]-11-hydroxy-4,4,8,10,14-pentamethyl-1,2,5,6,7,9,11,12,15,16-decahydrocyclopenta[a]phenanthren-3-one

> <PUBCHEM_IUPAC_NAME>
(5R,8S,9S,10S,11S,14R)-17-[(2R,4S)-4-[(2R)-3,3-dimethyloxiran-2-yl]-4-hydroxybutan-2-yl]-11-hydroxy-4,4,8,10,14-pentamethyl-1,2,5,6,7,9,11,12,15,16-decahydrocyclopenta[a]phenanthren-3-one

> <PUBCHEM_IUPAC_SYSTEMATIC_NAME>
(5R,8S,9S,10S,11S,14R)-17-[(2R,4S)-4-[(2R)-3,3-dimethyloxiran-2-yl]-4-oxidanyl-butan-2-yl]-4,4,8,10,14-pentamethyl-11-oxidanyl-1,2,5,6,7,9,11,12,15,16-decahydrocyclopenta[a]phenanthren-3-one

> <PUBCHEM_IUPAC_TRADITIONAL_NAME>
(5R,8S,9S,10S,11S,14R)-17-[(1R,3S)-3-[(2R)-3,3-dimethyloxiran-2-yl]-3-hydroxy-1-methyl-propyl]-11-hydroxy-4,4,8,10,14-pentamethyl-1,2,5,6,7,9,11,12,15,16-decahydrocyclopenta[a]phenanthren-3-one

> <PUBCHEM_IUPAC_INCHI>
InChI=1S/C30H48O4/c1-17(15-21(32)25-27(4,5)34-25)18-9-13-29(7)19(18)16-20(31)24-28(6)12-11-23(33)26(2,3)22(28)10-14-30(24,29)8/h17,20-22,24-25,31-32H,9-16H2,1-8H3/t17-,20+,21+,22+,24+,25-,28+,29+,30+/m1/s1

> <PUBCHEM_IUPAC_INCHIKEY>
GBJKHDVRXAVITG-UNPOXIGHSA-N

> <PUBCHEM_XLOGP3_AA>
4.8

> <PUBCHEM_EXACT_MASS>
472.35526

> <PUBCHEM_MOLECULAR_FORMULA>
C30H48O4

> <PUBCHEM_MOLECULAR_WEIGHT>
472.69972

> <PUBCHEM_OPENEYE_CAN_SMILES>
CC(CC(C1C(O1)(C)C)O)C2=C3CC(C4C5(CCC(=O)C(C5CCC4(C3(CC2)C)C)(C)C)C)O

> <PUBCHEM_OPENEYE_ISO_SMILES>
C[C@H](C[C@@H]([C@@H]1C(O1)(C)C)O)C2=C3C[C@@H]([C@H]4[C@]5(CCC(=O)C([C@@H]5CC[C@@]4([C@]3(CC2)C)C)(C)C)C)O

> <PUBCHEM_CACTVS_TPSA>
70.1

> <PUBCHEM_MONOISOTOPIC_WEIGHT>
472.35526

> <PUBCHEM_TOTAL_CHARGE>
0

> <PUBCHEM_HEAVY_ATOM_COUNT>
34

> <PUBCHEM_ATOM_DEF_STEREO_COUNT>
9

> <PUBCHEM_ATOM_UDEF_STEREO_COUNT>
0

> <PUBCHEM_BOND_DEF_STEREO_COUNT>
0

> <PUBCHEM_BOND_UDEF_STEREO_COUNT>
0

> <PUBCHEM_ISOTOPIC_ATOM_COUNT>
0

> <PUBCHEM_COMPONENT_COUNT>
1

> <PUBCHEM_CACTVS_TAUTO_COUNT>
2

> <PUBCHEM_COORDINATE_TYPE>
1
5
255

> <PUBCHEM_BONDANNOTATIONS>
11  1  5
27  29  6
31  75  5
30  4  6
5  18  6
6  35  5
7  19  5
8  21  5
9  36  6

$$$$

