115159
  -OEChem-07051213092D

 44 46  0     1  0  0  0  0  0999 V2000
    6.1369    1.1795    0.0000 N   0  0  3  0  0  0  0  0  0  0  0  0
    4.9344    0.0968    0.0000 C   0  0  0  0  0  0  0  0  0  0  0  0
    5.8005   -0.4032    0.0000 C   0  0  0  0  0  0  0  0  0  0  0  0
    6.5436    0.2660    0.0000 C   0  0  3  0  0  0  0  0  0  0  0  0
    5.1424    1.0750    0.0000 C   0  0  0  0  0  0  0  0  0  0  0  0
    4.4344   -0.7692    0.0000 C   0  0  0  0  0  0  0  0  0  0  0  0
    3.9563    0.3048    0.0000 C   0  0  0  0  0  0  0  0  0  0  0  0
    7.5218    0.0581    0.0000 C   0  0  0  0  0  0  0  0  0  0  0  0
    6.6369    2.0455    0.0000 C   0  0  0  0  0  0  0  0  0  0  0  0
    4.4732    1.8181    0.0000 C   0  0  0  0  0  0  0  0  0  0  0  0
    3.6473    1.2558    0.0000 C   0  0  0  0  0  0  0  0  0  0  0  0
    3.5684   -1.2692    0.0000 C   0  0  0  0  0  0  0  0  0  0  0  0
    3.2872   -0.4383    0.0000 C   0  0  0  0  0  0  0  0  0  0  0  0
    5.3005   -1.2692    0.0000 C   0  0  0  0  0  0  0  0  0  0  0  0
    4.7822    2.7692    0.0000 C   0  0  0  0  0  0  0  0  0  0  0  0
    3.5684   -2.2692    0.0000 C   0  0  0  0  0  0  0  0  0  0  0  0
    2.6691    1.4637    0.0000 C   0  0  0  0  0  0  0  0  0  0  0  0
    5.3005   -2.2692    0.0000 C   0  0  0  0  0  0  0  0  0  0  0  0
    2.3090   -0.2304    0.0000 C   0  0  0  0  0  0  0  0  0  0  0  0
    4.4344   -2.7692    0.0000 C   0  0  0  0  0  0  0  0  0  0  0  0
    2.0000    0.7206    0.0000 C   0  0  0  0  0  0  0  0  0  0  0  0
    5.4360   -0.9048    0.0000 H   0  0  0  0  0  0  0  0  0  0  0  0
    6.2612   -0.8180    0.0000 H   0  0  0  0  0  0  0  0  0  0  0  0
    7.0785    0.9265    0.0000 H   0  0  0  0  0  0  0  0  0  0  0  0
    7.3929   -0.5484    0.0000 H   0  0  0  0  0  0  0  0  0  0  0  0
    8.1282   -0.0708    0.0000 H   0  0  0  0  0  0  0  0  0  0  0  0
    7.6507    0.6645    0.0000 H   0  0  0  0  0  0  0  0  0  0  0  0
    7.1738    1.7355    0.0000 H   0  0  0  0  0  0  0  0  0  0  0  0
    6.9469    2.5825    0.0000 H   0  0  0  0  0  0  0  0  0  0  0  0
    6.0999    2.3555    0.0000 H   0  0  0  0  0  0  0  0  0  0  0  0
    3.8668    1.6892    0.0000 H   0  0  0  0  0  0  0  0  0  0  0  0
    3.0315   -0.9592    0.0000 H   0  0  0  0  0  0  0  0  0  0  0  0
    4.0621    1.7166    0.0000 H   0  0  0  0  0  0  0  0  0  0  0  0
    5.8374   -0.9592    0.0000 H   0  0  0  0  0  0  0  0  0  0  0  0
    3.4788   -1.0280    0.0000 H   0  0  0  0  0  0  0  0  0  0  0  0
    5.3719    2.5776    0.0000 H   0  0  0  0  0  0  0  0  0  0  0  0
    4.9738    3.3588    0.0000 H   0  0  0  0  0  0  0  0  0  0  0  0
    4.1926    2.9608    0.0000 H   0  0  0  0  0  0  0  0  0  0  0  0
    3.0315   -2.5792    0.0000 H   0  0  0  0  0  0  0  0  0  0  0  0
    2.4775    2.0534    0.0000 H   0  0  0  0  0  0  0  0  0  0  0  0
    5.8374   -2.5792    0.0000 H   0  0  0  0  0  0  0  0  0  0  0  0
    1.8942   -0.6912    0.0000 H   0  0  0  0  0  0  0  0  0  0  0  0
    4.4344   -3.3892    0.0000 H   0  0  0  0  0  0  0  0  0  0  0  0
    1.3936    0.8495    0.0000 H   0  0  0  0  0  0  0  0  0  0  0  0
  1  4  1  0  0  0  0
  1  5  1  0  0  0  0
  1  9  1  0  0  0  0
  2  3  1  0  0  0  0
  2  5  1  0  0  0  0
  2  6  1  0  0  0  0
  2  7  1  0  0  0  0
  3  4  1  0  0  0  0
  3 22  1  0  0  0  0
  3 23  1  0  0  0  0
  4  8  1  0  0  0  0
  4 24  1  0  0  0  0
  5 10  2  3  0  0  0
  6 12  2  0  0  0  0
  6 14  1  0  0  0  0
  7 11  2  0  0  0  0
  7 13  1  0  0  0  0
  8 25  1  0  0  0  0
  8 26  1  0  0  0  0
  8 27  1  0  0  0  0
  9 28  1  0  0  0  0
  9 29  1  0  0  0  0
  9 30  1  0  0  0  0
 10 15  1  0  0  0  0
 10 31  1  0  0  0  0
 11 17  1  0  0  0  0
 11 33  1  0  0  0  0
 12 16  1  0  0  0  0
 12 32  1  0  0  0  0
 13 19  2  0  0  0  0
 13 35  1  0  0  0  0
 14 18  2  0  0  0  0
 14 34  1  0  0  0  0
 15 36  1  0  0  0  0
 15 37  1  0  0  0  0
 15 38  1  0  0  0  0
 16 20  2  0  0  0  0
 16 39  1  0  0  0  0
 17 21  2  0  0  0  0
 17 40  1  0  0  0  0
 18 20  1  0  0  0  0
 18 41  1  0  0  0  0
 19 21  1  0  0  0  0
 19 42  1  0  0  0  0
 20 43  1  0  0  0  0
 21 44  1  0  0  0  0
M  END
> <PUBCHEM_COMPOUND_CID>
115159

> <PUBCHEM_COMPOUND_CANONICALIZED>
1

> <PUBCHEM_CACTVS_COMPLEXITY>
353

> <PUBCHEM_CACTVS_HBOND_ACCEPTOR>
1

> <PUBCHEM_CACTVS_HBOND_DONOR>
0

> <PUBCHEM_CACTVS_ROTATABLE_BOND>
2

> <PUBCHEM_CACTVS_SUBSKEYS>
AAADceB6AAAAAAAAAAAAAAAAAAAAAWAAAAAwYAAAAAAAAAABQAAAHAAAAAAADijBGAQyAIMAAACAAiRCQAACAAAgAgAIiAAIAIgIICKAkRGEIAAggACIiAcQgMAPgAAAAAAAAAAAAAAAAAAAAAAAAAAAAA==

> <PUBCHEM_IUPAC_OPENEYE_NAME>
2-ethylidene-1,5-dimethyl-3,3-diphenyl-pyrrolidine

> <PUBCHEM_IUPAC_CAS_NAME>
2-ethylidene-1,5-dimethyl-3,3-diphenylpyrrolidine

> <PUBCHEM_IUPAC_NAME>
2-ethylidene-1,5-dimethyl-3,3-diphenylpyrrolidine

> <PUBCHEM_IUPAC_SYSTEMATIC_NAME>
2-ethylidene-1,5-dimethyl-3,3-diphenyl-pyrrolidine

> <PUBCHEM_IUPAC_TRADITIONAL_NAME>
2-ethylidene-1,5-dimethyl-3,3-diphenyl-pyrrolidine

> <PUBCHEM_IUPAC_INCHI>
InChI=1S/C20H23N/c1-4-19-20(15-16(2)21(19)3,17-11-7-5-8-12-17)18-13-9-6-10-14-18/h4-14,16H,15H2,1-3H3

> <PUBCHEM_IUPAC_INCHIKEY>
AJRJPORIQGYFMT-UHFFFAOYSA-N

> <PUBCHEM_XLOGP3_AA>
5.2

> <PUBCHEM_EXACT_MASS>
277.18305

> <PUBCHEM_MOLECULAR_FORMULA>
C20H23N

> <PUBCHEM_MOLECULAR_WEIGHT>
277.40332

> <PUBCHEM_OPENEYE_CAN_SMILES>
CC=C1C(CC(N1C)C)(C2=CC=CC=C2)C3=CC=CC=C3

> <PUBCHEM_OPENEYE_ISO_SMILES>
CC=C1C(CC(N1C)C)(C2=CC=CC=C2)C3=CC=CC=C3

> <PUBCHEM_CACTVS_TPSA>
3.2

> <PUBCHEM_MONOISOTOPIC_WEIGHT>
277.18305

> <PUBCHEM_TOTAL_CHARGE>
0

> <PUBCHEM_HEAVY_ATOM_COUNT>
21

> <PUBCHEM_ATOM_DEF_STEREO_COUNT>
0

> <PUBCHEM_ATOM_UDEF_STEREO_COUNT>
1

> <PUBCHEM_BOND_DEF_STEREO_COUNT>
0

> <PUBCHEM_BOND_UDEF_STEREO_COUNT>
1

> <PUBCHEM_ISOTOPIC_ATOM_COUNT>
0

> <PUBCHEM_COMPONENT_COUNT>
1

> <PUBCHEM_CACTVS_TAUTO_COUNT>
1

> <PUBCHEM_COORDINATE_TYPE>
1
5
255

> <PUBCHEM_BONDANNOTATIONS>
11  17  8
12  16  8
13  19  8
14  18  8
16  20  8
17  21  8
18  20  8
19  21  8
4  24  3
5  10  1
6  12  8
6  14  8
7  11  8
7  13  8

$$$$

