92326
  -OEChem-07051213122D

 40 41  0     0  0  0  0  0  0999 V2000
    4.7320    0.2500    0.0000 O   0  0  0  0  0  0  0  0  0  0  0  0
    3.0000    0.2500    0.0000 N   0  0  0  0  0  0  0  0  0  0  0  0
    3.8660    1.7500    0.0000 N   0  0  0  0  0  0  0  0  0  0  0  0
    3.0000   -0.7500    0.0000 C   0  0  0  0  0  0  0  0  0  0  0  0
    3.0000   -1.7500    0.0000 C   0  0  0  0  0  0  0  0  0  0  0  0
    4.0000   -0.7500    0.0000 C   0  0  0  0  0  0  0  0  0  0  0  0
    2.0000   -0.7500    0.0000 C   0  0  0  0  0  0  0  0  0  0  0  0
    2.1340   -2.2500    0.0000 C   0  0  0  0  0  0  0  0  0  0  0  0
    3.8660   -2.2500    0.0000 C   0  0  0  0  0  0  0  0  0  0  0  0
    3.8660    0.7500    0.0000 C   0  0  0  0  0  0  0  0  0  0  0  0
    2.1340   -3.2500    0.0000 C   0  0  0  0  0  0  0  0  0  0  0  0
    3.8660   -3.2500    0.0000 C   0  0  0  0  0  0  0  0  0  0  0  0
    4.7320    2.2500    0.0000 C   0  0  0  0  0  0  0  0  0  0  0  0
    3.0000   -3.7500    0.0000 C   0  0  0  0  0  0  0  0  0  0  0  0
    3.0000    2.2500    0.0000 C   0  0  0  0  0  0  0  0  0  0  0  0
    5.5981    1.7500    0.0000 C   0  0  0  0  0  0  0  0  0  0  0  0
    4.7320    3.2500    0.0000 C   0  0  0  0  0  0  0  0  0  0  0  0
    6.4641    2.2500    0.0000 C   0  0  0  0  0  0  0  0  0  0  0  0
    5.5981    3.7500    0.0000 C   0  0  0  0  0  0  0  0  0  0  0  0
    6.4641    3.2500    0.0000 C   0  0  0  0  0  0  0  0  0  0  0  0
    4.0000   -1.3700    0.0000 H   0  0  0  0  0  0  0  0  0  0  0  0
    4.6200   -0.7500    0.0000 H   0  0  0  0  0  0  0  0  0  0  0  0
    4.0000   -0.1300    0.0000 H   0  0  0  0  0  0  0  0  0  0  0  0
    2.0000   -0.1300    0.0000 H   0  0  0  0  0  0  0  0  0  0  0  0
    1.3800   -0.7500    0.0000 H   0  0  0  0  0  0  0  0  0  0  0  0
    2.0000   -1.3700    0.0000 H   0  0  0  0  0  0  0  0  0  0  0  0
    2.4631    0.5600    0.0000 H   0  0  0  0  0  0  0  0  0  0  0  0
    1.5970   -1.9400    0.0000 H   0  0  0  0  0  0  0  0  0  0  0  0
    4.4030   -1.9400    0.0000 H   0  0  0  0  0  0  0  0  0  0  0  0
    1.5970   -3.5600    0.0000 H   0  0  0  0  0  0  0  0  0  0  0  0
    4.4030   -3.5600    0.0000 H   0  0  0  0  0  0  0  0  0  0  0  0
    3.0000   -4.3700    0.0000 H   0  0  0  0  0  0  0  0  0  0  0  0
    3.3100    2.7869    0.0000 H   0  0  0  0  0  0  0  0  0  0  0  0
    2.4631    2.5600    0.0000 H   0  0  0  0  0  0  0  0  0  0  0  0
    2.6900    1.7131    0.0000 H   0  0  0  0  0  0  0  0  0  0  0  0
    5.5981    1.1300    0.0000 H   0  0  0  0  0  0  0  0  0  0  0  0
    4.1951    3.5600    0.0000 H   0  0  0  0  0  0  0  0  0  0  0  0
    7.0010    1.9400    0.0000 H   0  0  0  0  0  0  0  0  0  0  0  0
    5.5981    4.3700    0.0000 H   0  0  0  0  0  0  0  0  0  0  0  0
    7.0010    3.5600    0.0000 H   0  0  0  0  0  0  0  0  0  0  0  0
  1 10  2  0  0  0  0
  2  4  1  0  0  0  0
  2 10  1  0  0  0  0
  2 27  1  0  0  0  0
  3 10  1  0  0  0  0
  3 13  1  0  0  0  0
  3 15  1  0  0  0  0
  4  5  1  0  0  0  0
  4  6  1  0  0  0  0
  4  7  1  0  0  0  0
  5  8  2  0  0  0  0
  5  9  1  0  0  0  0
  6 21  1  0  0  0  0
  6 22  1  0  0  0  0
  6 23  1  0  0  0  0
  7 24  1  0  0  0  0
  7 25  1  0  0  0  0
  7 26  1  0  0  0  0
  8 11  1  0  0  0  0
  8 28  1  0  0  0  0
  9 12  2  0  0  0  0
  9 29  1  0  0  0  0
 11 14  2  0  0  0  0
 11 30  1  0  0  0  0
 12 14  1  0  0  0  0
 12 31  1  0  0  0  0
 13 16  2  0  0  0  0
 13 17  1  0  0  0  0
 14 32  1  0  0  0  0
 15 33  1  0  0  0  0
 15 34  1  0  0  0  0
 15 35  1  0  0  0  0
 16 18  1  0  0  0  0
 16 36  1  0  0  0  0
 17 19  2  0  0  0  0
 17 37  1  0  0  0  0
 18 20  2  0  0  0  0
 18 38  1  0  0  0  0
 19 20  1  0  0  0  0
 19 39  1  0  0  0  0
 20 40  1  0  0  0  0
M  END
> <PUBCHEM_COMPOUND_CID>
92326

> <PUBCHEM_COMPOUND_CANONICALIZED>
1

> <PUBCHEM_CACTVS_COMPLEXITY>
315

> <PUBCHEM_CACTVS_HBOND_ACCEPTOR>
1

> <PUBCHEM_CACTVS_HBOND_DONOR>
1

> <PUBCHEM_CACTVS_ROTATABLE_BOND>
3

> <PUBCHEM_CACTVS_SUBSKEYS>
AAADceB7IAAAAAAAAAAAAAAAAAAAAAAAAAAwYAAAAAAAAAABQAAAHgAQAAAADIiBGAQzwIPAAACIAiRCUACCAAAhAgAIiAAIZIiIICLAkZGEIAholgJIyCcQgMAOgAAAAAAAAAAAAAAAAAAAAAAAAAAAAA==

> <PUBCHEM_IUPAC_OPENEYE_NAME>
1-methyl-3-(1-methyl-1-phenyl-ethyl)-1-phenyl-urea

> <PUBCHEM_IUPAC_CAS_NAME>
1-methyl-1-phenyl-3-(2-phenylpropan-2-yl)urea

> <PUBCHEM_IUPAC_NAME>
1-methyl-1-phenyl-3-(2-phenylpropan-2-yl)urea

> <PUBCHEM_IUPAC_SYSTEMATIC_NAME>
1-methyl-1-phenyl-3-(2-phenylpropan-2-yl)urea

> <PUBCHEM_IUPAC_TRADITIONAL_NAME>
3-cumyl-1-methyl-1-phenyl-urea

> <PUBCHEM_IUPAC_INCHI>
InChI=1S/C17H20N2O/c1-17(2,14-10-6-4-7-11-14)18-16(20)19(3)15-12-8-5-9-13-15/h4-13H,1-3H3,(H,18,20)

> <PUBCHEM_IUPAC_INCHIKEY>
FMINYZXVCTYSNY-UHFFFAOYSA-N

> <PUBCHEM_XLOGP3_AA>
3.2

> <PUBCHEM_EXACT_MASS>
268.157563

> <PUBCHEM_MOLECULAR_FORMULA>
C17H20N2O

> <PUBCHEM_MOLECULAR_WEIGHT>
268.3535

> <PUBCHEM_OPENEYE_CAN_SMILES>
CC(C)(C1=CC=CC=C1)NC(=O)N(C)C2=CC=CC=C2

> <PUBCHEM_OPENEYE_ISO_SMILES>
CC(C)(C1=CC=CC=C1)NC(=O)N(C)C2=CC=CC=C2

> <PUBCHEM_CACTVS_TPSA>
32.3

> <PUBCHEM_MONOISOTOPIC_WEIGHT>
268.157563

> <PUBCHEM_TOTAL_CHARGE>
0

> <PUBCHEM_HEAVY_ATOM_COUNT>
20

> <PUBCHEM_ATOM_DEF_STEREO_COUNT>
0

> <PUBCHEM_ATOM_UDEF_STEREO_COUNT>
0

> <PUBCHEM_BOND_DEF_STEREO_COUNT>
0

> <PUBCHEM_BOND_UDEF_STEREO_COUNT>
0

> <PUBCHEM_ISOTOPIC_ATOM_COUNT>
0

> <PUBCHEM_COMPONENT_COUNT>
1

> <PUBCHEM_CACTVS_TAUTO_COUNT>
2

> <PUBCHEM_COORDINATE_TYPE>
1
5
255

> <PUBCHEM_BONDANNOTATIONS>
11  14  8
12  14  8
13  16  8
13  17  8
16  18  8
17  19  8
18  20  8
19  20  8
5  8  8
5  9  8
8  11  8
9  12  8

$$$$

