99303
  -OEChem-07051213082D

 28 28  0     1  0  0  0  0  0999 V2000
    2.0000    0.7321    0.0000 Cl  0  0  0  0  0  0  0  0  0  0  0  0
    5.4641   -2.7320    0.0000 Cl  0  0  0  0  0  0  0  0  0  0  0  0
    5.4641    0.7321    0.0000 P   0  0  3  0  0  0  0  0  0  0  0  0
    6.3301    1.2320    0.0000 O   0  0  0  0  0  0  0  0  0  0  0  0
    5.9641   -0.1340    0.0000 O   0  0  0  0  0  0  0  0  0  0  0  0
    3.7320    2.7320    0.0000 O   0  0  0  0  0  0  0  0  0  0  0  0
    4.5981    1.2320    0.0000 N   0  0  0  0  0  0  0  0  0  0  0  0
    4.9641   -0.1340    0.0000 N   0  0  0  0  0  0  0  0  0  0  0  0
    5.4641    2.7320    0.0000 C   0  0  0  0  0  0  0  0  0  0  0  0
    4.5981    2.2320    0.0000 C   0  0  0  0  0  0  0  0  0  0  0  0
    6.3301    2.2320    0.0000 C   0  0  0  0  0  0  0  0  0  0  0  0
    3.7320    0.7321    0.0000 C   0  0  0  0  0  0  0  0  0  0  0  0
    5.4641   -1.0000    0.0000 C   0  0  0  0  0  0  0  0  0  0  0  0
    2.8660    1.2320    0.0000 C   0  0  0  0  0  0  0  0  0  0  0  0
    4.9641   -1.8660    0.0000 C   0  0  0  0  0  0  0  0  0  0  0  0
    5.8626    3.2070    0.0000 H   0  0  0  0  0  0  0  0  0  0  0  0
    5.0656    3.2070    0.0000 H   0  0  0  0  0  0  0  0  0  0  0  0
    6.9407    2.1244    0.0000 H   0  0  0  0  0  0  0  0  0  0  0  0
    6.5422    2.8147    0.0000 H   0  0  0  0  0  0  0  0  0  0  0  0
    3.3335    0.2571    0.0000 H   0  0  0  0  0  0  0  0  0  0  0  0
    4.1306    0.2571    0.0000 H   0  0  0  0  0  0  0  0  0  0  0  0
    4.3441   -0.1340    0.0000 H   0  0  0  0  0  0  0  0  0  0  0  0
    5.9390   -1.3985    0.0000 H   0  0  0  0  0  0  0  0  0  0  0  0
    5.9390   -0.6015    0.0000 H   0  0  0  0  0  0  0  0  0  0  0  0
    3.2646    1.7070    0.0000 H   0  0  0  0  0  0  0  0  0  0  0  0
    2.4675    1.7070    0.0000 H   0  0  0  0  0  0  0  0  0  0  0  0
    4.4892   -1.4675    0.0000 H   0  0  0  0  0  0  0  0  0  0  0  0
    4.4892   -2.2646    0.0000 H   0  0  0  0  0  0  0  0  0  0  0  0
  1 14  1  0  0  0  0
  2 15  1  0  0  0  0
  3  4  1  0  0  0  0
  3  5  2  0  0  0  0
  3  7  1  0  0  0  0
  3  8  1  0  0  0  0
  4 11  1  0  0  0  0
  6 10  2  0  0  0  0
  7 10  1  0  0  0  0
  7 12  1  0  0  0  0
  8 13  1  0  0  0  0
  8 22  1  0  0  0  0
  9 10  1  0  0  0  0
  9 11  1  0  0  0  0
  9 16  1  0  0  0  0
  9 17  1  0  0  0  0
 11 18  1  0  0  0  0
 11 19  1  0  0  0  0
 12 14  1  0  0  0  0
 12 20  1  0  0  0  0
 12 21  1  0  0  0  0
 13 15  1  0  0  0  0
 13 23  1  0  0  0  0
 13 24  1  0  0  0  0
 14 25  1  0  0  0  0
 14 26  1  0  0  0  0
 15 27  1  0  0  0  0
 15 28  1  0  0  0  0
M  END
> <PUBCHEM_COMPOUND_CID>
99303

> <PUBCHEM_COMPOUND_CANONICALIZED>
1

> <PUBCHEM_CACTVS_COMPLEXITY>
277

> <PUBCHEM_CACTVS_HBOND_ACCEPTOR>
4

> <PUBCHEM_CACTVS_HBOND_DONOR>
1

> <PUBCHEM_CACTVS_ROTATABLE_BOND>
5

> <PUBCHEM_CACTVS_SUBSKEYS>
AAADccBjMAIGAAAAAAAAAAAAAAAAAAAAAAAsAAAAAAAAAAAAAAAAHgIQgCAACAPhgEYAAAJAARAIQAEQEIAAAAAAAAAAAIEIAAAAAAQAAABEAAACNgCAAAAAAAAAAAAAAAAAAAAAAAAAAAAAAAAAAAAAAA==

> <PUBCHEM_IUPAC_OPENEYE_NAME>
3-(2-chloroethyl)-2-(2-chloroethylamino)-2-oxo-1,3,2$l^{5}-oxazaphosphinan-4-one

> <PUBCHEM_IUPAC_CAS_NAME>
3-(2-chloroethyl)-2-(2-chloroethylamino)-2-oxo-1,3,2$l^{5}-oxazaphosphorinan-4-one

> <PUBCHEM_IUPAC_NAME>
3-(2-chloroethyl)-2-(2-chloroethylamino)-2-oxo-1,3,2$l^{5}-oxazaphosphinan-4-one

> <PUBCHEM_IUPAC_SYSTEMATIC_NAME>
3-(2-chloroethyl)-2-(2-chloroethylamino)-2-oxidanylidene-1,3,2$l^{5}-oxazaphosphinan-4-one

> <PUBCHEM_IUPAC_TRADITIONAL_NAME>
3-(2-chloroethyl)-2-(2-chloroethylamino)-2-keto-1,3,2$l^{5}-oxazaphosphorinan-4-one

> <PUBCHEM_IUPAC_INCHI>
InChI=1S/C7H13Cl2N2O3P/c8-2-4-10-15(13)11(5-3-9)7(12)1-6-14-15/h1-6H2,(H,10,13)

> <PUBCHEM_IUPAC_INCHIKEY>
PEZLCTIXHCOEOG-UHFFFAOYSA-N

> <PUBCHEM_XLOGP3_AA>
-0.2

> <PUBCHEM_EXACT_MASS>
274.004084

> <PUBCHEM_MOLECULAR_FORMULA>
C7H13Cl2N2O3P

> <PUBCHEM_MOLECULAR_WEIGHT>
275.069482

> <PUBCHEM_OPENEYE_CAN_SMILES>
C1COP(=O)(N(C1=O)CCCl)NCCCl

> <PUBCHEM_OPENEYE_ISO_SMILES>
C1COP(=O)(N(C1=O)CCCl)NCCCl

> <PUBCHEM_CACTVS_TPSA>
58.6

> <PUBCHEM_MONOISOTOPIC_WEIGHT>
274.004084

> <PUBCHEM_TOTAL_CHARGE>
0

> <PUBCHEM_HEAVY_ATOM_COUNT>
15

> <PUBCHEM_ATOM_DEF_STEREO_COUNT>
0

> <PUBCHEM_ATOM_UDEF_STEREO_COUNT>
1

> <PUBCHEM_BOND_DEF_STEREO_COUNT>
0

> <PUBCHEM_BOND_UDEF_STEREO_COUNT>
0

> <PUBCHEM_ISOTOPIC_ATOM_COUNT>
0

> <PUBCHEM_COMPONENT_COUNT>
1

> <PUBCHEM_CACTVS_TAUTO_COUNT>
4

> <PUBCHEM_COORDINATE_TYPE>
1
5
255

> <PUBCHEM_BONDANNOTATIONS>
3  8  3

$$$$

