   Color/Form

     * Colorless plates or prisms at low temp
     * Colorless liquid (Note: A solid below 56 degrees F).
     * Color: Saybolt units +30 (research, pure & technical grades)

   from [1]HSDB

   Odor

     * Sweet
     * ... Aromatic odor.

   from [2]HSDB

   Boiling Point
        138.23 deg C
   from [3]HSDB

   Melting Point
        13.25 deg C
   from [4]HSDB

   Critical Temperature and Pressure
        Critical temperature: 342.8 deg C; Critical pressure 34.45 bar
   from [5]HSDB

   Density/Specific Gravity
        0.86104 at 20 deg C/4 deg C
   from [6]HSDB

   Heat of Combustion
        -4559.8 kJ/mol
   from [7]HSDB

   Heat of Vaporization
        42.40 kJ/mol
   from [8]HSDB

   Octanol/Water Partition Coefficient
        log Kow = 3.15
   from [9]HSDB

   Solubilities

     * Miscible in alcohol, ether, acetone, benzene; soluble in chloroform
     * In water, 1.62X10+2 mg/L at 25 deg C

   from [10]HSDB

   Spectral Properties

     * Index of refraction: 1.49575 at 20 deg C/D
     * IR: 3575 (Coblentz Society Spectral Collection)
     * UV: 609 (Sadtler Research Laboratories Spectral Collection)
     * 1H NMR: 203 (Varian Associates NMR Spectra Catalogue)
     * Raman: 84 (Dollish et al., Characteristic Raman Frequencies of
       Organic Compounds, John Wiley and Sons, New York)
     * MASS: 49298 (NIST/EPA/MSDC Mass Spectral Database, 1990 Version);
       1330 (Atlas of Mass Spectral Data, John Wiley & Sons, New York)
     * Negligible absorption above 290 nm

   from [11]HSDB

   Surface Tension
        28.01 dynes/cm at 25 deg C
   from [12]HSDB

   Vapor Density
        3.7 (Air= 1)
   from [13]HSDB

   Vapor Pressure
        8.84 mm Hg at 25 deg C
   from [14]HSDB

   Relative Evaporation Rate
        Evaporation rate: 9.9 (ether= 1)
   from [15]HSDB

   Viscosity
        0.603 mPa-sec at 25 deg C
   from [16]HSDB

   Other Chemical/Physical Properties

     * Liquid-water interfacial tension: 0.0378 n/m at 20 deg C
     * Taste threshold in air: 0.47 ppm
     * Dielectric constant 2.27 at 25 deg C
     * Critical density: 2.64 mmol/cu cm
     * Critical volume: 379.0 cu cm/mol
     * Heat of fusion: 17.02 kJ/mol
     * Heat of formation: (endothermal) at 25 deg C= -24.43 J/mole deg K
     * Entropy: 247.36 J/mole deg K
     * ... Combustion characteristics: critical compression ratio 14.2;
       research octane value 116.4 and motor octane number is 6 units
       lower.
     * p-Xylene and m-xylene cannot be separated by distillation because
       their boiling points are too close.
     * Saturation concentration in air: 38 g/cu m at 20 deg C, 67 g/cu m
       at 30 deg C
     * Henry's Law constant = 6.90X10-3 atm-cu m/mol at 25 deg C
     * Hydroxyl radical reaction rate constant = 1.43X10-11 cu m/molc-sec
       at 25 deg C

   from [17]HSDB

   Computed Properties
   Molecular Weight                  106.165 [g/mol]
   Molecular Formula                 C[8]H[10]
   XLogP3                            3.2
   H-Bond Donor                      0
   H-Bond Acceptor                   0
   Rotatable Bond Count              0
   Exact Mass                        106.07825
   MonoIsotopic Mass                 106.07825
   Topological Polar Surface Area    0
   Heavy Atom Count                  8
   Formal Charge                     0
   Complexity                        48.4
   Isotope Atom Count                0
   Defined Atom Stereocenter Count   0
   Undefined Atom Stereocenter Count 0
   Defined Bond Stereocenter Count   0
   Undefined Bond Stereocenter Count 0
   Covalently-Bonded Unit Count      1
   Feature 3D Ring Count             1
   Effective Rotor Count             0
   Conformer Sampling RMSD           0.4
   CID Conformer Count               [18]1

References

   1. http://toxnet.nlm.nih.gov/cgi-bin/sis/search/r?dbs+hsdb:@term+@rn+@rel+106-42-3
   2. http://toxnet.nlm.nih.gov/cgi-bin/sis/search/r?dbs+hsdb:@term+@rn+@rel+106-42-3
   3. http://toxnet.nlm.nih.gov/cgi-bin/sis/search/r?dbs+hsdb:@term+@rn+@rel+106-42-3
   4. http://toxnet.nlm.nih.gov/cgi-bin/sis/search/r?dbs+hsdb:@term+@rn+@rel+106-42-3
   5. http://toxnet.nlm.nih.gov/cgi-bin/sis/search/r?dbs+hsdb:@term+@rn+@rel+106-42-3
   6. http://toxnet.nlm.nih.gov/cgi-bin/sis/search/r?dbs+hsdb:@term+@rn+@rel+106-42-3
   7. http://toxnet.nlm.nih.gov/cgi-bin/sis/search/r?dbs+hsdb:@term+@rn+@rel+106-42-3
   8. http://toxnet.nlm.nih.gov/cgi-bin/sis/search/r?dbs+hsdb:@term+@rn+@rel+106-42-3
   9. http://toxnet.nlm.nih.gov/cgi-bin/sis/search/r?dbs+hsdb:@term+@rn+@rel+106-42-3
  10. http://toxnet.nlm.nih.gov/cgi-bin/sis/search/r?dbs+hsdb:@term+@rn+@rel+106-42-3
  11. http://toxnet.nlm.nih.gov/cgi-bin/sis/search/r?dbs+hsdb:@term+@rn+@rel+106-42-3
  12. http://toxnet.nlm.nih.gov/cgi-bin/sis/search/r?dbs+hsdb:@term+@rn+@rel+106-42-3
  13. http://toxnet.nlm.nih.gov/cgi-bin/sis/search/r?dbs+hsdb:@term+@rn+@rel+106-42-3
  14. http://toxnet.nlm.nih.gov/cgi-bin/sis/search/r?dbs+hsdb:@term+@rn+@rel+106-42-3
  15. http://toxnet.nlm.nih.gov/cgi-bin/sis/search/r?dbs+hsdb:@term+@rn+@rel+106-42-3
  16. http://toxnet.nlm.nih.gov/cgi-bin/sis/search/r?dbs+hsdb:@term+@rn+@rel+106-42-3
  17. http://toxnet.nlm.nih.gov/cgi-bin/sis/search/r?dbs+hsdb:@term+@rn+@rel+106-42-3
  18. http://pubchem.ncbi.nlm.nih.gov/vw3d/vw3d.cgi?cid=7809
