442135
  -OEChem-07051212572D

 44 46  0     1  0  0  0  0  0999 V2000
    7.5836   -1.2903    0.0000 O   0  0  0  0  0  0  0  0  0  0  0  0
    5.0000   -0.4856    0.0000 O   0  0  0  0  0  0  0  0  0  0  0  0
    9.3798    1.5559    0.0000 O   0  0  0  0  0  0  0  0  0  0  0  0
    5.0000   -2.2176    0.0000 O   0  0  0  0  0  0  0  0  0  0  0  0
   10.2740    3.0837    0.0000 O   0  0  0  0  0  0  0  0  0  0  0  0
    7.0000   -0.4856    0.0000 C   0  0  2  0  0  0  0  0  0  0  0  0
    6.0000   -0.4856    0.0000 C   0  0  0  0  0  0  0  0  0  0  0  0
    7.5836    0.3191    0.0000 C   0  0  0  0  0  0  0  0  0  0  0  0
    8.5298    0.0144    0.0000 C   0  0  0  0  0  0  0  0  0  0  0  0
    8.5298   -0.9856    0.0000 C   0  0  0  0  0  0  0  0  0  0  0  0
    6.0000   -1.4856    0.0000 C   0  0  0  0  0  0  0  0  0  0  0  0
    6.0000    0.5144    0.0000 C   0  0  0  0  0  0  0  0  0  0  0  0
    9.3958    0.5144    0.0000 C   0  0  0  0  0  0  0  0  0  0  0  0
    9.3958   -1.4856    0.0000 C   0  0  0  0  0  0  0  0  0  0  0  0
   10.2619    0.0144    0.0000 C   0  0  0  0  0  0  0  0  0  0  0  0
   10.2619   -0.9856    0.0000 C   0  0  0  0  0  0  0  0  0  0  0  0
    4.5000   -1.3516    0.0000 C   0  0  0  0  0  0  0  0  0  0  0  0
   11.1719    0.5213    0.0000 C   0  0  0  0  0  0  0  0  0  0  0  0
   10.2778    2.0837    0.0000 C   0  0  0  0  0  0  0  0  0  0  0  0
   11.1799    1.5629    0.0000 C   0  0  0  0  0  0  0  0  0  0  0  0
    3.5000   -1.3516    0.0000 C   0  0  0  0  0  0  0  0  0  0  0  0
    3.0000   -2.2176    0.0000 C   0  0  0  0  0  0  0  0  0  0  0  0
    2.0000   -2.2176    0.0000 C   0  0  0  0  0  0  0  0  0  0  0  0
    3.5000   -3.0837    0.0000 C   0  0  0  0  0  0  0  0  0  0  0  0
    6.6138   -1.2428    0.0000 H   0  0  0  0  0  0  0  0  0  0  0  0
    7.8346    0.8860    0.0000 H   0  0  0  0  0  0  0  0  0  0  0  0
    7.0462    0.6284    0.0000 H   0  0  0  0  0  0  0  0  0  0  0  0
    5.3800   -1.4856    0.0000 H   0  0  0  0  0  0  0  0  0  0  0  0
    6.0000   -2.1056    0.0000 H   0  0  0  0  0  0  0  0  0  0  0  0
    6.6200   -1.4856    0.0000 H   0  0  0  0  0  0  0  0  0  0  0  0
    6.6200    0.5144    0.0000 H   0  0  0  0  0  0  0  0  0  0  0  0
    6.0000    1.1344    0.0000 H   0  0  0  0  0  0  0  0  0  0  0  0
    5.3800    0.5144    0.0000 H   0  0  0  0  0  0  0  0  0  0  0  0
    9.3958   -2.1056    0.0000 H   0  0  0  0  0  0  0  0  0  0  0  0
   10.7988   -1.2956    0.0000 H   0  0  0  0  0  0  0  0  0  0  0  0
   11.7052    0.2051    0.0000 H   0  0  0  0  0  0  0  0  0  0  0  0
   11.7180    1.8708    0.0000 H   0  0  0  0  0  0  0  0  0  0  0  0
    3.1900   -0.8147    0.0000 H   0  0  0  0  0  0  0  0  0  0  0  0
    2.9631   -3.3937    0.0000 H   0  0  0  0  0  0  0  0  0  0  0  0
    3.8100   -3.6206    0.0000 H   0  0  0  0  0  0  0  0  0  0  0  0
    4.0369   -2.7737    0.0000 H   0  0  0  0  0  0  0  0  0  0  0  0
    2.0000   -1.5976    0.0000 H   0  0  0  0  0  0  0  0  0  0  0  0
    1.3800   -2.2176    0.0000 H   0  0  0  0  0  0  0  0  0  0  0  0
    2.0000   -2.8376    0.0000 H   0  0  0  0  0  0  0  0  0  0  0  0
  1  6  1  0  0  0  0
  1 10  1  0  0  0  0
  2  7  1  0  0  0  0
  2 17  1  0  0  0  0
  3 13  1  0  0  0  0
  3 19  1  0  0  0  0
  4 17  2  0  0  0  0
  5 19  2  0  0  0  0
  6  7  1  0  0  0  0
  6  8  1  0  0  0  0
  6 25  1  1  0  0  0
  7 11  1  0  0  0  0
  7 12  1  0  0  0  0
  8  9  1  0  0  0  0
  8 26  1  0  0  0  0
  8 27  1  0  0  0  0
  9 10  2  0  0  0  0
  9 13  1  0  0  0  0
 10 14  1  0  0  0  0
 11 28  1  0  0  0  0
 11 29  1  0  0  0  0
 11 30  1  0  0  0  0
 12 31  1  0  0  0  0
 12 32  1  0  0  0  0
 12 33  1  0  0  0  0
 13 15  2  0  0  0  0
 14 16  2  0  0  0  0
 14 34  1  0  0  0  0
 15 16  1  0  0  0  0
 15 18  1  0  0  0  0
 16 35  1  0  0  0  0
 17 21  1  0  0  0  0
 18 20  2  0  0  0  0
 18 36  1  0  0  0  0
 19 20  1  0  0  0  0
 20 37  1  0  0  0  0
 21 22  2  0  0  0  0
 21 38  1  0  0  0  0
 22 23  1  0  0  0  0
 22 24  1  0  0  0  0
 23 42  1  0  0  0  0
 23 43  1  0  0  0  0
 23 44  1  0  0  0  0
 24 39  1  0  0  0  0
 24 40  1  0  0  0  0
 24 41  1  0  0  0  0
M  END
> <PUBCHEM_COMPOUND_CID>
442135

> <PUBCHEM_COMPOUND_CANONICALIZED>
1

> <PUBCHEM_CACTVS_COMPLEXITY>
585

> <PUBCHEM_CACTVS_HBOND_ACCEPTOR>
5

> <PUBCHEM_CACTVS_HBOND_DONOR>
0

> <PUBCHEM_CACTVS_ROTATABLE_BOND>
4

> <PUBCHEM_CACTVS_SUBSKEYS>
AAADceB4OAAAAAAAAAAAAAAAAAAAASAAAAAwQAAAAAAAAEiBAAAAGgAAAAAADFSgmAIyDoAABACIAiDSCAACCAAgIAAIiAAGCMgNJyKEMRqCOiClwBUKqYfA4PwOIAACCAAIAABAAAQQABAAAAAAAAAAAA==

> <PUBCHEM_IUPAC_OPENEYE_NAME>
[1-methyl-1-[(8S)-2-oxo-8,9-dihydrofuro[2,3-h]chromen-8-yl]ethyl] 3-methylbut-2-enoate

> <PUBCHEM_IUPAC_CAS_NAME>
3-methyl-2-butenoic acid 2-[(8S)-2-oxo-8,9-dihydrofuro[2,3-h][1]benzopyran-8-yl]propan-2-yl ester

> <PUBCHEM_IUPAC_NAME>
2-[(8S)-2-oxo-8,9-dihydrofuro[2,3-h]chromen-8-yl]propan-2-yl 3-methylbut-2-enoate

> <PUBCHEM_IUPAC_SYSTEMATIC_NAME>
2-[(8S)-2-oxidanylidene-8,9-dihydrofuro[2,3-h]chromen-8-yl]propan-2-yl 3-methylbut-2-enoate

> <PUBCHEM_IUPAC_TRADITIONAL_NAME>
3-methylbut-2-enoic acid [1-[(8S)-2-keto-8,9-dihydrofuro[2,3-h]chromen-8-yl]-1-methyl-ethyl] ester

> <PUBCHEM_IUPAC_INCHI>
InChI=1S/C19H20O5/c1-11(2)9-17(21)24-19(3,4)15-10-13-14(22-15)7-5-12-6-8-16(20)23-18(12)13/h5-9,15H,10H2,1-4H3/t15-/m0/s1

> <PUBCHEM_IUPAC_INCHIKEY>
YCXXSERNLQPDHF-HNNXBMFYSA-N

> <PUBCHEM_XLOGP3_AA>
3.9

> <PUBCHEM_EXACT_MASS>
328.131074

> <PUBCHEM_MOLECULAR_FORMULA>
C19H20O5

> <PUBCHEM_MOLECULAR_WEIGHT>
328.3591

> <PUBCHEM_OPENEYE_CAN_SMILES>
CC(=CC(=O)OC(C)(C)C1CC2=C(O1)C=CC3=C2OC(=O)C=C3)C

> <PUBCHEM_OPENEYE_ISO_SMILES>
CC(=CC(=O)OC(C)(C)[C@@H]1CC2=C(O1)C=CC3=C2OC(=O)C=C3)C

> <PUBCHEM_CACTVS_TPSA>
61.8

> <PUBCHEM_MONOISOTOPIC_WEIGHT>
328.131074

> <PUBCHEM_TOTAL_CHARGE>
0

> <PUBCHEM_HEAVY_ATOM_COUNT>
24

> <PUBCHEM_ATOM_DEF_STEREO_COUNT>
1

> <PUBCHEM_ATOM_UDEF_STEREO_COUNT>
0

> <PUBCHEM_BOND_DEF_STEREO_COUNT>
0

> <PUBCHEM_BOND_UDEF_STEREO_COUNT>
0

> <PUBCHEM_ISOTOPIC_ATOM_COUNT>
0

> <PUBCHEM_COMPONENT_COUNT>
1

> <PUBCHEM_CACTVS_TAUTO_COUNT>
1

> <PUBCHEM_COORDINATE_TYPE>
1
5
255

> <PUBCHEM_BONDANNOTATIONS>
10  14  8
13  15  8
14  16  8
15  16  8
15  18  8
18  20  8
19  20  8
3  13  8
3  19  8
6  25  5
9  10  8
9  13  8

$$$$

