47205163
  -OEChem-06241222582D

 39 40  0     1  0  0  0  0  0999 V2000
    5.3147    0.8100    0.0000 O   0  0  0  0  0  0  0  0  0  0  0  0
    8.7788    0.8100    0.0000 O   0  0  0  0  0  0  0  0  0  0  0  0
    6.1808   -0.6900    0.0000 N   0  0  0  0  0  0  0  0  0  0  0  0
    9.6448   -0.6900    0.0000 N   0  0  0  0  0  0  0  0  0  0  0  0
   11.3769   -0.6900    0.0000 N   0  0  0  0  0  0  0  0  0  0  0  0
    3.5827   -0.1900    0.0000 C   0  0  3  0  0  0  0  0  0  0  0  0
    2.6691   -0.5967    0.0000 C   0  0  0  0  0  0  0  0  0  0  0  0
    2.0000    0.1464    0.0000 C   0  0  0  0  0  0  0  0  0  0  0  0
    4.4487   -0.6900    0.0000 C   0  0  0  0  0  0  0  0  0  0  0  0
    3.4782    0.8045    0.0000 C   0  0  0  0  0  0  0  0  0  0  0  0
    2.5000    1.0124    0.0000 C   0  0  0  0  0  0  0  0  0  0  0  0
    5.3147   -0.1900    0.0000 C   0  0  0  0  0  0  0  0  0  0  0  0
    7.0468   -0.1900    0.0000 C   0  0  0  0  0  0  0  0  0  0  0  0
    7.9128   -0.6900    0.0000 C   0  0  0  0  0  0  0  0  0  0  0  0
    8.7788   -0.1900    0.0000 C   0  0  0  0  0  0  0  0  0  0  0  0
   10.5109   -0.1900    0.0000 C   0  0  0  0  0  0  0  0  0  0  0  0
   10.5109    0.8100    0.0000 C   0  0  0  0  0  0  0  0  0  0  0  0
   11.3769    1.3100    0.0000 C   0  0  0  0  0  0  0  0  0  0  0  0
   12.2429   -0.1900    0.0000 C   0  0  0  0  0  0  0  0  0  0  0  0
   12.2429    0.8100    0.0000 C   0  0  0  0  0  0  0  0  0  0  0  0
    4.1026    0.1477    0.0000 H   0  0  0  0  0  0  0  0  0  0  0  0
    2.1675   -0.9612    0.0000 H   0  0  0  0  0  0  0  0  0  0  0  0
    2.9791   -1.1337    0.0000 H   0  0  0  0  0  0  0  0  0  0  0  0
    1.4984    0.5108    0.0000 H   0  0  0  0  0  0  0  0  0  0  0  0
    1.5851   -0.3143    0.0000 H   0  0  0  0  0  0  0  0  0  0  0  0
    4.0502   -1.1650    0.0000 H   0  0  0  0  0  0  0  0  0  0  0  0
    4.8472   -1.1650    0.0000 H   0  0  0  0  0  0  0  0  0  0  0  0
    3.9389    1.2194    0.0000 H   0  0  0  0  0  0  0  0  0  0  0  0
    2.2478    1.5788    0.0000 H   0  0  0  0  0  0  0  0  0  0  0  0
    6.1808   -1.3100    0.0000 H   0  0  0  0  0  0  0  0  0  0  0  0
    7.4453    0.2849    0.0000 H   0  0  0  0  0  0  0  0  0  0  0  0
    6.6482    0.2849    0.0000 H   0  0  0  0  0  0  0  0  0  0  0  0
    7.5143   -1.1650    0.0000 H   0  0  0  0  0  0  0  0  0  0  0  0
    8.3113   -1.1650    0.0000 H   0  0  0  0  0  0  0  0  0  0  0  0
    9.6448   -1.3100    0.0000 H   0  0  0  0  0  0  0  0  0  0  0  0
    9.9739    1.1200    0.0000 H   0  0  0  0  0  0  0  0  0  0  0  0
   11.3769    1.9300    0.0000 H   0  0  0  0  0  0  0  0  0  0  0  0
   12.7799   -0.5000    0.0000 H   0  0  0  0  0  0  0  0  0  0  0  0
   12.7799    1.1200    0.0000 H   0  0  0  0  0  0  0  0  0  0  0  0
  1 12  2  0  0  0  0
  2 15  2  0  0  0  0
  3 12  1  0  0  0  0
  3 13  1  0  0  0  0
  3 30  1  0  0  0  0
  4 15  1  0  0  0  0
  4 16  1  0  0  0  0
  4 35  1  0  0  0  0
  5 16  1  0  0  0  0
  5 19  2  0  0  0  0
  6  7  1  0  0  0  0
  6  9  1  0  0  0  0
  6 10  1  0  0  0  0
  6 21  1  0  0  0  0
  7  8  1  0  0  0  0
  7 22  1  0  0  0  0
  7 23  1  0  0  0  0
  8 11  1  0  0  0  0
  8 24  1  0  0  0  0
  8 25  1  0  0  0  0
  9 12  1  0  0  0  0
  9 26  1  0  0  0  0
  9 27  1  0  0  0  0
 10 11  2  0  0  0  0
 10 28  1  0  0  0  0
 11 29  1  0  0  0  0
 13 14  1  0  0  0  0
 13 31  1  0  0  0  0
 13 32  1  0  0  0  0
 14 15  1  0  0  0  0
 14 33  1  0  0  0  0
 14 34  1  0  0  0  0
 16 17  2  0  0  0  0
 17 18  1  0  0  0  0
 17 36  1  0  0  0  0
 18 20  2  0  0  0  0
 18 37  1  0  0  0  0
 19 20  1  0  0  0  0
 19 38  1  0  0  0  0
 20 39  1  0  0  0  0
M  END
> <PUBCHEM_COMPOUND_CID>
47205163

> <PUBCHEM_COMPOUND_CANONICALIZED>
1

> <PUBCHEM_CACTVS_COMPLEXITY>
368

> <PUBCHEM_CACTVS_HBOND_ACCEPTOR>
3

> <PUBCHEM_CACTVS_HBOND_DONOR>
2

> <PUBCHEM_CACTVS_ROTATABLE_BOND>
6

> <PUBCHEM_CACTVS_SUBSKEYS>
AAADceBzMAAAAAAAAAAAAAAAAAAAAQAAAAAsAAAAAAAAAAABgAAAHgAQAAAADQDBkgQ9sJLIEACoADN3dACCgCkxAiAJ2KE4ZJiIIPrA2ZGEIAholwLIyCcYCAAOAAAAAAAAAAAAAAAAAAAAAAAAAAAAAA==

> <PUBCHEM_IUPAC_OPENEYE_NAME>
3-[(2-cyclopent-2-en-1-ylacetyl)amino]-N-(2-pyridyl)propanamide

> <PUBCHEM_IUPAC_CAS_NAME>
3-[[2-(1-cyclopent-2-enyl)-1-oxoethyl]amino]-N-(2-pyridinyl)propanamide

> <PUBCHEM_IUPAC_NAME>
3-[(2-cyclopent-2-en-1-ylacetyl)amino]-N-pyridin-2-ylpropanamide

> <PUBCHEM_IUPAC_SYSTEMATIC_NAME>
3-(2-cyclopent-2-en-1-ylethanoylamino)-N-pyridin-2-yl-propanamide

> <PUBCHEM_IUPAC_TRADITIONAL_NAME>
3-[(2-cyclopent-2-en-1-ylacetyl)amino]-N-(2-pyridyl)propionamide

> <PUBCHEM_IUPAC_INCHI>
InChI=1S/C15H19N3O2/c19-14(18-13-7-3-4-9-16-13)8-10-17-15(20)11-12-5-1-2-6-12/h1,3-5,7,9,12H,2,6,8,10-11H2,(H,17,20)(H,16,18,19)

> <PUBCHEM_IUPAC_INCHIKEY>
DZHQWEDWAVSOHG-UHFFFAOYSA-N

> <PUBCHEM_XLOGP3_AA>
1

> <PUBCHEM_EXACT_MASS>
273.147727

> <PUBCHEM_MOLECULAR_FORMULA>
C15H19N3O2

> <PUBCHEM_MOLECULAR_WEIGHT>
273.33026

> <PUBCHEM_OPENEYE_CAN_SMILES>
C1CC(C=C1)CC(=O)NCCC(=O)NC2=CC=CC=N2

> <PUBCHEM_OPENEYE_ISO_SMILES>
C1CC(C=C1)CC(=O)NCCC(=O)NC2=CC=CC=N2

> <PUBCHEM_CACTVS_TPSA>
71.1

> <PUBCHEM_MONOISOTOPIC_WEIGHT>
273.147727

> <PUBCHEM_TOTAL_CHARGE>
0

> <PUBCHEM_HEAVY_ATOM_COUNT>
20

> <PUBCHEM_ATOM_DEF_STEREO_COUNT>
0

> <PUBCHEM_ATOM_UDEF_STEREO_COUNT>
1

> <PUBCHEM_BOND_DEF_STEREO_COUNT>
0

> <PUBCHEM_BOND_UDEF_STEREO_COUNT>
0

> <PUBCHEM_ISOTOPIC_ATOM_COUNT>
0

> <PUBCHEM_COMPONENT_COUNT>
1

> <PUBCHEM_CACTVS_TAUTO_COUNT>
10

> <PUBCHEM_COORDINATE_TYPE>
1
5
255

> <PUBCHEM_BONDANNOTATIONS>
16  17  8
17  18  8
18  20  8
19  20  8
5  16  8
5  19  8
6  9  3

$$$$

