440583
  -OEChem-07051212502D

 41 46  0     1  0  0  0  0  0999 V2000
    2.9950    3.5673    0.0000 O   0  0  0  0  0  0  0  0  0  0  0  0
    5.5740   -3.5278    0.0000 O   0  0  0  0  0  0  0  0  0  0  0  0
    4.4403    4.4167    0.0000 O   0  0  0  0  0  0  0  0  0  0  0  0
    4.0684   -4.4125    0.0000 O   0  0  0  0  0  0  0  0  0  0  0  0
    2.9180    0.3368    0.0000 N   0  0  3  0  0  0  0  0  0  0  0  0
    3.7841   -0.1632    0.0000 C   0  0  1  0  0  0  0  0  0  0  0  0
    4.6501    0.3368    0.0000 C   0  0  0  0  0  0  0  0  0  0  0  0
    3.8001   -1.2047    0.0000 C   0  0  0  0  0  0  0  0  0  0  0  0
    2.0080   -0.1700    0.0000 C   0  0  0  0  0  0  0  0  0  0  0  0
    2.9180    1.3368    0.0000 C   0  0  0  0  0  0  0  0  0  0  0  0
    2.0000   -1.2116    0.0000 C   0  0  0  0  0  0  0  0  0  0  0  0
    4.6501    1.3368    0.0000 C   0  0  0  0  0  0  0  0  0  0  0  0
    3.7841    1.8368    0.0000 C   0  0  0  0  0  0  0  0  0  0  0  0
    2.9021   -1.7324    0.0000 C   0  0  0  0  0  0  0  0  0  0  0  0
    4.7520   -1.7253    0.0000 C   0  0  0  0  0  0  0  0  0  0  0  0
    3.7680    2.8783    0.0000 C   0  0  0  0  0  0  0  0  0  0  0  0
    2.8937   -2.8174    0.0000 C   0  0  0  0  0  0  0  0  0  0  0  0
    5.5601    1.8437    0.0000 C   0  0  0  0  0  0  0  0  0  0  0  0
    4.7688   -2.8102    0.0000 C   0  0  0  0  0  0  0  0  0  0  0  0
    3.8334   -3.3599    0.0000 C   0  0  0  0  0  0  0  0  0  0  0  0
    4.6660    3.4061    0.0000 C   0  0  0  0  0  0  0  0  0  0  0  0
    5.5681    2.8853    0.0000 C   0  0  0  0  0  0  0  0  0  0  0  0
    3.4096    4.5161    0.0000 C   0  0  0  0  0  0  0  0  0  0  0  0
    5.1420   -4.5161    0.0000 C   0  0  0  0  0  0  0  0  0  0  0  0
    4.5234   -0.5825    0.0000 H   0  0  0  0  0  0  0  0  0  0  0  0
    4.8621   -0.2458    0.0000 H   0  0  0  0  0  0  0  0  0  0  0  0
    5.2607    0.4445    0.0000 H   0  0  0  0  0  0  0  0  0  0  0  0
    1.8035    0.4153    0.0000 H   0  0  0  0  0  0  0  0  0  0  0  0
    1.3964   -0.2714    0.0000 H   0  0  0  0  0  0  0  0  0  0  0  0
    2.7060    1.9194    0.0000 H   0  0  0  0  0  0  0  0  0  0  0  0
    2.3074    1.2292    0.0000 H   0  0  0  0  0  0  0  0  0  0  0  0
    1.3900   -1.1008    0.0000 H   0  0  0  0  0  0  0  0  0  0  0  0
    1.7864   -1.7937    0.0000 H   0  0  0  0  0  0  0  0  0  0  0  0
    5.2829   -1.4050    0.0000 H   0  0  0  0  0  0  0  0  0  0  0  0
    2.3556   -3.1253    0.0000 H   0  0  0  0  0  0  0  0  0  0  0  0
    6.0934    1.5275    0.0000 H   0  0  0  0  0  0  0  0  0  0  0  0
    6.1062    3.1932    0.0000 H   0  0  0  0  0  0  0  0  0  0  0  0
    3.5337    5.1235    0.0000 H   0  0  0  0  0  0  0  0  0  0  0  0
    2.8186    4.7033    0.0000 H   0  0  0  0  0  0  0  0  0  0  0  0
    5.0180   -5.1235    0.0000 H   0  0  0  0  0  0  0  0  0  0  0  0
    5.7331   -4.7033    0.0000 H   0  0  0  0  0  0  0  0  0  0  0  0
  1 16  1  0  0  0  0
  1 23  1  0  0  0  0
  2 19  1  0  0  0  0
  2 24  1  0  0  0  0
  3 21  1  0  0  0  0
  3 23  1  0  0  0  0
  4 20  1  0  0  0  0
  4 24  1  0  0  0  0
  5  6  1  0  0  0  0
  5  9  1  0  0  0  0
  5 10  1  0  0  0  0
  6  7  1  0  0  0  0
  6  8  1  0  0  0  0
  6 25  1  6  0  0  0
  7 12  1  0  0  0  0
  7 26  1  0  0  0  0
  7 27  1  0  0  0  0
  8 14  1  0  0  0  0
  8 15  2  0  0  0  0
  9 11  1  0  0  0  0
  9 28  1  0  0  0  0
  9 29  1  0  0  0  0
 10 13  1  0  0  0  0
 10 30  1  0  0  0  0
 10 31  1  0  0  0  0
 11 14  1  0  0  0  0
 11 32  1  0  0  0  0
 11 33  1  0  0  0  0
 12 13  2  0  0  0  0
 12 18  1  0  0  0  0
 13 16  1  0  0  0  0
 14 17  2  0  0  0  0
 15 19  1  0  0  0  0
 15 34  1  0  0  0  0
 16 21  2  0  0  0  0
 17 20  1  0  0  0  0
 17 35  1  0  0  0  0
 18 22  2  0  0  0  0
 18 36  1  0  0  0  0
 19 20  2  0  0  0  0
 21 22  1  0  0  0  0
 22 37  1  0  0  0  0
 23 38  1  0  0  0  0
 23 39  1  0  0  0  0
 24 40  1  0  0  0  0
 24 41  1  0  0  0  0
M  END
> <PUBCHEM_COMPOUND_CID>
440583

> <PUBCHEM_COMPOUND_CANONICALIZED>
1

> <PUBCHEM_CACTVS_COMPLEXITY>
502

> <PUBCHEM_CACTVS_HBOND_ACCEPTOR>
5

> <PUBCHEM_CACTVS_HBOND_DONOR>
0

> <PUBCHEM_CACTVS_ROTATABLE_BOND>
0

> <PUBCHEM_CACTVS_SUBSKEYS>
AAADceB6OAAAAAAAAAAAAAAAAAAAASJAAAA8eIEAAAAAAEixQAAAHgAAAAAADCzBmAcwDoMABACAAiBCAACCCAAgIAAIiAAOjIgdJiKEsRukMCpmwBGOqAew0PMOoAABAAAYQABAAAIAADCAAAAAAAAAAA==

> <PUBCHEM_IUPAC_INCHI>
InChI=1S/C19H17NO4/c1-2-16-19(24-10-21-16)14-8-20-4-3-12-6-17-18(23-9-22-17)7-13(12)15(20)5-11(1)14/h1-2,6-7,15H,3-5,8-10H2/t15-/m0/s1

> <PUBCHEM_IUPAC_INCHIKEY>
UXYJCYXWJGAKQY-HNNXBMFYSA-N

> <PUBCHEM_XLOGP3_AA>
3

> <PUBCHEM_EXACT_MASS>
323.115758

> <PUBCHEM_MOLECULAR_FORMULA>
C19H17NO4

> <PUBCHEM_MOLECULAR_WEIGHT>
323.34258

> <PUBCHEM_OPENEYE_CAN_SMILES>
C1CN2CC3=C(CC2C4=CC5=C(C=C41)OCO5)C=CC6=C3OCO6

> <PUBCHEM_OPENEYE_ISO_SMILES>
C1CN2CC3=C(C[C@H]2C4=CC5=C(C=C41)OCO5)C=CC6=C3OCO6

> <PUBCHEM_CACTVS_TPSA>
40.2

> <PUBCHEM_MONOISOTOPIC_WEIGHT>
323.115758

> <PUBCHEM_TOTAL_CHARGE>
0

> <PUBCHEM_HEAVY_ATOM_COUNT>
24

> <PUBCHEM_ATOM_DEF_STEREO_COUNT>
1

> <PUBCHEM_ATOM_UDEF_STEREO_COUNT>
0

> <PUBCHEM_BOND_DEF_STEREO_COUNT>
0

> <PUBCHEM_BOND_UDEF_STEREO_COUNT>
0

> <PUBCHEM_ISOTOPIC_ATOM_COUNT>
0

> <PUBCHEM_COMPONENT_COUNT>
1

> <PUBCHEM_CACTVS_TAUTO_COUNT>
1

> <PUBCHEM_COORDINATE_TYPE>
1
5
255

> <PUBCHEM_BONDANNOTATIONS>
12  13  8
12  18  8
13  16  8
14  17  8
15  19  8
16  21  8
17  20  8
18  22  8
19  20  8
21  22  8
6  25  6
8  14  8
8  15  8

$$$$

