11047
  -OEChem-06261205162D

 46 49  0     0  0  0  0  0  0999 V2000
    7.1962    2.9746    0.0000 O   0  0  0  0  0  0  0  0  0  0  0  0
    4.5981   -1.5254    0.0000 O   0  0  0  0  0  0  0  0  0  0  0  0
    3.7320    0.9746    0.0000 O   0  0  0  0  0  0  0  0  0  0  0  0
    5.4641    2.9746    0.0000 O   0  0  0  0  0  0  0  0  0  0  0  0
    3.7320   -0.0254    0.0000 O   0  0  0  0  0  0  0  0  0  0  0  0
    7.8390    0.2086    0.0000 O   0  0  0  0  0  0  0  0  0  0  0  0
    7.3149   -0.6990    0.0000 O   0  0  0  0  0  0  0  0  0  0  0  0
    4.5981    2.4746    0.0000 O   0  0  0  0  0  0  0  0  0  0  0  0
    5.4641    0.9746    0.0000 C   0  0  0  0  0  0  0  0  0  0  0  0
    5.4641   -0.0254    0.0000 C   0  0  0  0  0  0  0  0  0  0  0  0
    6.3301    1.4746    0.0000 C   0  0  0  0  0  0  0  0  0  0  0  0
    6.3301   -0.5254    0.0000 C   0  0  0  0  0  0  0  0  0  0  0  0
    7.1962    0.9746    0.0000 C   0  0  0  0  0  0  0  0  0  0  0  0
    4.5981    1.4746    0.0000 C   0  0  0  0  0  0  0  0  0  0  0  0
    8.0622    1.4746    0.0000 C   0  0  0  0  0  0  0  0  0  0  0  0
    6.3301   -1.5254    0.0000 C   0  0  0  0  0  0  0  0  0  0  0  0
    6.3301    2.4746    0.0000 C   0  0  0  0  0  0  0  0  0  0  0  0
    4.5981   -0.5254    0.0000 C   0  0  0  0  0  0  0  0  0  0  0  0
    8.0622    2.4746    0.0000 C   0  0  0  0  0  0  0  0  0  0  0  0
    5.4641   -2.0254    0.0000 C   0  0  0  0  0  0  0  0  0  0  0  0
    8.9561    0.9400    0.0000 C   0  0  0  0  0  0  0  0  0  0  0  0
    7.2401   -2.0322    0.0000 C   0  0  0  0  0  0  0  0  0  0  0  0
    8.9561    3.0093    0.0000 C   0  0  0  0  0  0  0  0  0  0  0  0
    5.4480   -3.0669    0.0000 C   0  0  0  0  0  0  0  0  0  0  0  0
    7.2482   -3.0738    0.0000 C   0  0  0  0  0  0  0  0  0  0  0  0
    9.8622    1.4538    0.0000 C   0  0  0  0  0  0  0  0  0  0  0  0
    9.8622    2.4954    0.0000 C   0  0  0  0  0  0  0  0  0  0  0  0
    6.3461   -3.5946    0.0000 C   0  0  0  0  0  0  0  0  0  0  0  0
    2.8660    1.4746    0.0000 C   0  0  0  0  0  0  0  0  0  0  0  0
    2.0000    0.9746    0.0000 C   0  0  0  0  0  0  0  0  0  0  0  0
    4.9272    0.6646    0.0000 H   0  0  0  0  0  0  0  0  0  0  0  0
    7.7734   -1.7160    0.0000 H   0  0  0  0  0  0  0  0  0  0  0  0
    8.9490    0.3200    0.0000 H   0  0  0  0  0  0  0  0  0  0  0  0
    4.9076   -3.3706    0.0000 H   0  0  0  0  0  0  0  0  0  0  0  0
    8.9490    3.6292    0.0000 H   0  0  0  0  0  0  0  0  0  0  0  0
    7.7863   -3.3817    0.0000 H   0  0  0  0  0  0  0  0  0  0  0  0
   10.3979    1.1418    0.0000 H   0  0  0  0  0  0  0  0  0  0  0  0
    6.3437   -4.2146    0.0000 H   0  0  0  0  0  0  0  0  0  0  0  0
   10.3979    2.8075    0.0000 H   0  0  0  0  0  0  0  0  0  0  0  0
    3.2646    1.9496    0.0000 H   0  0  0  0  0  0  0  0  0  0  0  0
    2.4675    1.9496    0.0000 H   0  0  0  0  0  0  0  0  0  0  0  0
    5.4641    3.5946    0.0000 H   0  0  0  0  0  0  0  0  0  0  0  0
    3.1951   -0.3354    0.0000 H   0  0  0  0  0  0  0  0  0  0  0  0
    1.6900    1.5116    0.0000 H   0  0  0  0  0  0  0  0  0  0  0  0
    1.4631    0.6646    0.0000 H   0  0  0  0  0  0  0  0  0  0  0  0
    2.3100    0.4377    0.0000 H   0  0  0  0  0  0  0  0  0  0  0  0
  1 17  1  0  0  0  0
  1 19  1  0  0  0  0
  2 18  1  0  0  0  0
  2 20  1  0  0  0  0
  3 14  1  0  0  0  0
  3 29  1  0  0  0  0
  4 17  1  0  0  0  0
  4 42  1  0  0  0  0
  5 18  1  0  0  0  0
  5 43  1  0  0  0  0
  6 13  2  0  0  0  0
  7 12  2  0  0  0  0
  8 14  2  0  0  0  0
  9 10  1  0  0  0  0
  9 11  1  0  0  0  0
  9 14  1  0  0  0  0
  9 31  1  0  0  0  0
 10 12  1  0  0  0  0
 10 18  2  0  0  0  0
 11 13  1  0  0  0  0
 11 17  2  0  0  0  0
 12 16  1  0  0  0  0
 13 15  1  0  0  0  0
 15 19  1  0  0  0  0
 15 21  2  0  0  0  0
 16 20  1  0  0  0  0
 16 22  2  0  0  0  0
 19 23  2  0  0  0  0
 20 24  2  0  0  0  0
 21 26  1  0  0  0  0
 21 33  1  0  0  0  0
 22 25  1  0  0  0  0
 22 32  1  0  0  0  0
 23 27  1  0  0  0  0
 23 35  1  0  0  0  0
 24 28  1  0  0  0  0
 24 34  1  0  0  0  0
 25 28  2  0  0  0  0
 25 36  1  0  0  0  0
 26 27  2  0  0  0  0
 26 37  1  0  0  0  0
 27 39  1  0  0  0  0
 28 38  1  0  0  0  0
 29 30  1  0  0  0  0
 29 40  1  0  0  0  0
 29 41  1  0  0  0  0
 30 44  1  0  0  0  0
 30 45  1  0  0  0  0
 30 46  1  0  0  0  0
M  END
> <PUBCHEM_COMPOUND_CID>
11047

> <PUBCHEM_COMPOUND_CANONICALIZED>
1

> <PUBCHEM_CACTVS_COMPLEXITY>
752

> <PUBCHEM_CACTVS_HBOND_ACCEPTOR>
8

> <PUBCHEM_CACTVS_HBOND_DONOR>
2

> <PUBCHEM_CACTVS_ROTATABLE_BOND>
5

> <PUBCHEM_CACTVS_SUBSKEYS>
AAADceB4PAAAAAAAAAAAAAAAAAAAAAAAAAAwYIEAAAAAAACBQAAAGgAACAAADQSgmAIyDoAABgCIAqDSCAACCAAkIAAIiAEGCMgcJjaENRqCMWAk4BEMqYeLyvCuAAAAAAAIAAAAAAAAABAAAAAAAAAAAA==

> <PUBCHEM_IUPAC_OPENEYE_NAME>
ethyl 2,2-bis(2-hydroxy-4-oxo-chromen-3-yl)acetate

> <PUBCHEM_IUPAC_CAS_NAME>
2,2-bis(2-hydroxy-4-oxo-1-benzopyran-3-yl)acetic acid ethyl ester

> <PUBCHEM_IUPAC_NAME>
ethyl 2,2-bis(2-hydroxy-4-oxochromen-3-yl)acetate

> <PUBCHEM_IUPAC_SYSTEMATIC_NAME>
ethyl 2,2-bis(2-oxidanyl-4-oxidanylidene-chromen-3-yl)ethanoate

> <PUBCHEM_IUPAC_TRADITIONAL_NAME>
2,2-bis(2-hydroxy-4-keto-chromen-3-yl)acetic acid ethyl ester

> <PUBCHEM_IUPAC_INCHI>
InChI=1S/C22H16O8/c1-2-28-20(25)15(16-18(23)11-7-3-5-9-13(11)29-21(16)26)17-19(24)12-8-4-6-10-14(12)30-22(17)27/h3-10,15,26-27H,2H2,1H3

> <PUBCHEM_IUPAC_INCHIKEY>
SEGSDVUVOWIWFX-UHFFFAOYSA-N

> <PUBCHEM_XLOGP3>
2

> <PUBCHEM_EXACT_MASS>
408.084517

> <PUBCHEM_MOLECULAR_FORMULA>
C22H16O8

> <PUBCHEM_MOLECULAR_WEIGHT>
408.35764

> <PUBCHEM_OPENEYE_CAN_SMILES>
CCOC(=O)C(C1=C(OC2=CC=CC=C2C1=O)O)C3=C(OC4=CC=CC=C4C3=O)O

> <PUBCHEM_OPENEYE_ISO_SMILES>
CCOC(=O)C(C1=C(OC2=CC=CC=C2C1=O)O)C3=C(OC4=CC=CC=C4C3=O)O

> <PUBCHEM_CACTVS_TPSA>
119

> <PUBCHEM_MONOISOTOPIC_WEIGHT>
408.084517

> <PUBCHEM_TOTAL_CHARGE>
0

> <PUBCHEM_HEAVY_ATOM_COUNT>
30

> <PUBCHEM_ATOM_DEF_STEREO_COUNT>
0

> <PUBCHEM_ATOM_UDEF_STEREO_COUNT>
0

> <PUBCHEM_BOND_DEF_STEREO_COUNT>
0

> <PUBCHEM_BOND_UDEF_STEREO_COUNT>
0

> <PUBCHEM_ISOTOPIC_ATOM_COUNT>
0

> <PUBCHEM_COMPONENT_COUNT>
1

> <PUBCHEM_CACTVS_TAUTO_COUNT>
6

> <PUBCHEM_COORDINATE_TYPE>
1
5
255

> <PUBCHEM_BONDANNOTATIONS>
1  17  8
1  19  8
10  12  8
10  18  8
11  13  8
11  17  8
12  16  8
13  15  8
15  19  8
15  21  8
16  20  8
16  22  8
19  23  8
2  18  8
2  20  8
20  24  8
21  26  8
22  25  8
23  27  8
24  28  8
25  28  8
26  27  8

$$$$

