6783
  -OEChem-06261201302D

 42 42  0     0  0  0  0  0  0999 V2000
    8.4641    0.8840    0.0000 Hg  0  0  0  0  0  0  0  0  0  0  0  0
    5.0000   -1.1160    0.0000 Hg  0  0  0  0  0  0  0  0  0  0  0  0
    8.9641    0.0179    0.0000 O   0  0  0  0  0  0  0  0  0  0  0  0
    5.5000   -1.9821    0.0000 O   0  0  0  0  0  0  0  0  0  0  0  0
    7.2321    0.0179    0.0000 O   0  0  0  0  0  0  0  0  0  0  0  0
    6.3660   -0.4821    0.0000 O   0  0  0  0  0  0  0  0  0  0  0  0
    8.0981   -1.4821    0.0000 C   0  0  0  0  0  0  0  0  0  0  0  0
    7.2321   -1.9821    0.0000 C   0  0  0  0  0  0  0  0  0  0  0  0
    8.9641   -1.9821    0.0000 C   0  0  0  0  0  0  0  0  0  0  0  0
    7.2321   -2.9821    0.0000 C   0  0  0  0  0  0  0  0  0  0  0  0
    8.0981   -0.4821    0.0000 C   0  0  0  0  0  0  0  0  0  0  0  0
    6.3660   -1.4821    0.0000 C   0  0  0  0  0  0  0  0  0  0  0  0
    8.9641   -2.9821    0.0000 C   0  0  0  0  0  0  0  0  0  0  0  0
    8.0981   -3.4821    0.0000 C   0  0  0  0  0  0  0  0  0  0  0  0
    8.9641    1.7500    0.0000 C   0  0  0  0  0  0  0  0  0  0  0  0
    4.0000   -1.1160    0.0000 C   0  0  0  0  0  0  0  0  0  0  0  0
    8.4641    2.6160    0.0000 C   0  0  0  0  0  0  0  0  0  0  0  0
    3.5000   -1.9821    0.0000 C   0  0  0  0  0  0  0  0  0  0  0  0
    9.9641    1.7500    0.0000 C   0  0  0  0  0  0  0  0  0  0  0  0
    3.5000   -0.2500    0.0000 C   0  0  0  0  0  0  0  0  0  0  0  0
    8.9641    3.4821    0.0000 C   0  0  0  0  0  0  0  0  0  0  0  0
    2.5000   -1.9821    0.0000 C   0  0  0  0  0  0  0  0  0  0  0  0
   10.4641    2.6160    0.0000 C   0  0  0  0  0  0  0  0  0  0  0  0
    2.5000   -0.2500    0.0000 C   0  0  0  0  0  0  0  0  0  0  0  0
    9.9641    3.4821    0.0000 C   0  0  0  0  0  0  0  0  0  0  0  0
    2.0000   -1.1160    0.0000 C   0  0  0  0  0  0  0  0  0  0  0  0
    9.5010   -1.6721    0.0000 H   0  0  0  0  0  0  0  0  0  0  0  0
    6.6951   -3.2921    0.0000 H   0  0  0  0  0  0  0  0  0  0  0  0
    9.5010   -3.2921    0.0000 H   0  0  0  0  0  0  0  0  0  0  0  0
    8.0981   -4.1021    0.0000 H   0  0  0  0  0  0  0  0  0  0  0  0
    9.2741   -0.5190    0.0000 H   0  0  0  0  0  0  0  0  0  0  0  0
    5.8100   -2.5190    0.0000 H   0  0  0  0  0  0  0  0  0  0  0  0
    7.8441    2.6160    0.0000 H   0  0  0  0  0  0  0  0  0  0  0  0
    3.8100   -2.5190    0.0000 H   0  0  0  0  0  0  0  0  0  0  0  0
   10.2741    1.2131    0.0000 H   0  0  0  0  0  0  0  0  0  0  0  0
    3.8100    0.2869    0.0000 H   0  0  0  0  0  0  0  0  0  0  0  0
    8.6541    4.0190    0.0000 H   0  0  0  0  0  0  0  0  0  0  0  0
    2.1900   -2.5190    0.0000 H   0  0  0  0  0  0  0  0  0  0  0  0
   11.0841    2.6160    0.0000 H   0  0  0  0  0  0  0  0  0  0  0  0
    2.1900    0.2869    0.0000 H   0  0  0  0  0  0  0  0  0  0  0  0
   10.2741    4.0190    0.0000 H   0  0  0  0  0  0  0  0  0  0  0  0
    1.3800   -1.1160    0.0000 H   0  0  0  0  0  0  0  0  0  0  0  0
  1 15  1  0  0  0  0
  2 16  1  0  0  0  0
  3 11  1  0  0  0  0
  3 31  1  0  0  0  0
  4 12  1  0  0  0  0
  4 32  1  0  0  0  0
  5 11  2  0  0  0  0
  6 12  2  0  0  0  0
  7  8  1  0  0  0  0
  7  9  2  0  0  0  0
  7 11  1  0  0  0  0
  8 10  2  0  0  0  0
  8 12  1  0  0  0  0
  9 13  1  0  0  0  0
  9 27  1  0  0  0  0
 10 14  1  0  0  0  0
 10 28  1  0  0  0  0
 13 14  2  0  0  0  0
 13 29  1  0  0  0  0
 14 30  1  0  0  0  0
 15 17  2  0  0  0  0
 15 19  1  0  0  0  0
 16 18  2  0  0  0  0
 16 20  1  0  0  0  0
 17 21  1  0  0  0  0
 17 33  1  0  0  0  0
 18 22  1  0  0  0  0
 18 34  1  0  0  0  0
 19 23  2  0  0  0  0
 19 35  1  0  0  0  0
 20 24  2  0  0  0  0
 20 36  1  0  0  0  0
 21 25  2  0  0  0  0
 21 37  1  0  0  0  0
 22 26  2  0  0  0  0
 22 38  1  0  0  0  0
 23 25  1  0  0  0  0
 23 39  1  0  0  0  0
 24 26  1  0  0  0  0
 24 40  1  0  0  0  0
 25 41  1  0  0  0  0
 26 42  1  0  0  0  0
M  END
> <PUBCHEM_COMPOUND_CID>
6783

> <PUBCHEM_COMPOUND_CANONICALIZED>
1

> <PUBCHEM_CACTVS_COMPLEXITY>
367

> <PUBCHEM_CACTVS_HBOND_ACCEPTOR>
4

> <PUBCHEM_CACTVS_HBOND_DONOR>
2

> <PUBCHEM_CACTVS_ROTATABLE_BOND>
4

> <PUBCHEM_CACTVS_SUBSKEYS>
AAADceB4OAAAAAAAAAAAAQAAAAAAAAAAAAAwYMAAAAAAAAABUAAAGgAACAAADACAmAAwCIAAAgCIAiDSCAACAAAkAAAIiAEACMgIJjKAFRCAcQAkwAEImYfLyKCOgAAAAAAQAAAAAAAAACAAAAAAAAAAAA==

> <PUBCHEM_IUPAC_OPENEYE_NAME>
phenylmercury; phthalic acid

> <PUBCHEM_IUPAC_CAS_NAME>
phenylmercury; phthalic acid

> <PUBCHEM_IUPAC_NAME>
phenylmercury; phthalic acid

> <PUBCHEM_IUPAC_SYSTEMATIC_NAME>
phenylmercury; phthalic acid

> <PUBCHEM_IUPAC_TRADITIONAL_NAME>
phenylmercury; phthalic acid

> <PUBCHEM_IUPAC_INCHI>
InChI=1S/C8H6O4.2C6H5.2Hg/c9-7(10)5-3-1-2-4-6(5)8(11)12;2*1-2-4-6-5-3-1;;/h1-4H,(H,9,10)(H,11,12);2*1-5H;;

> <PUBCHEM_IUPAC_INCHIKEY>
LUZHQHXZWIPTCT-UHFFFAOYSA-N

> <PUBCHEM_EXACT_MASS>
722.043828

> <PUBCHEM_MOLECULAR_FORMULA>
C20H16Hg2O4

> <PUBCHEM_MOLECULAR_WEIGHT>
721.51864

> <PUBCHEM_OPENEYE_CAN_SMILES>
C1=CC=C(C=C1)[Hg].C1=CC=C(C=C1)[Hg].C1=CC=C(C(=C1)C(=O)O)C(=O)O

> <PUBCHEM_OPENEYE_ISO_SMILES>
C1=CC=C(C=C1)[Hg].C1=CC=C(C=C1)[Hg].C1=CC=C(C(=C1)C(=O)O)C(=O)O

> <PUBCHEM_CACTVS_TPSA>
74.6

> <PUBCHEM_MONOISOTOPIC_WEIGHT>
724.046145

> <PUBCHEM_TOTAL_CHARGE>
0

> <PUBCHEM_HEAVY_ATOM_COUNT>
26

> <PUBCHEM_ATOM_DEF_STEREO_COUNT>
0

> <PUBCHEM_ATOM_UDEF_STEREO_COUNT>
0

> <PUBCHEM_BOND_DEF_STEREO_COUNT>
0

> <PUBCHEM_BOND_UDEF_STEREO_COUNT>
0

> <PUBCHEM_ISOTOPIC_ATOM_COUNT>
0

> <PUBCHEM_COMPONENT_COUNT>
3

> <PUBCHEM_CACTVS_TAUTO_COUNT>
3

> <PUBCHEM_NONSTANDARDBOND>
1  3  6
2  4  6

> <PUBCHEM_COORDINATE_TYPE>
1
5
255

> <PUBCHEM_BONDANNOTATIONS>
1  3  4
10  14  8
13  14  8
15  17  8
15  19  8
16  18  8
16  20  8
17  21  8
18  22  8
19  23  8
2  4  4
20  24  8
21  25  8
22  26  8
23  25  8
24  26  8
7  8  8
7  9  8
8  10  8
9  13  8

$$$$

