   Melting Point
        253-255 deg C
   from [1]HSDB

   Octanol/Water Partition Coefficient
        log Kow = -1.08 (est)
   from [2]HSDB

   Solubilities
        In water, 1.9X10+4 mg/L at 25 deg C (est)
   from [3]HSDB

   Vapor Pressure
        4.1X10-18 mm Hg at 25 deg C (est)
   from [4]HSDB

   Other Chemical/Physical Properties

     * log Kow = -1.89 /p-Flourophenylalanine, DL (60-17-3)/
     * Henry's Law constant = 1.4X10-10 atm-cu m/mol at 25 deg C (est)
     * Hydroxyl radical reaction rate constant = 4.2X10-11 cu cm/molec-sec
       at 25 deg C (est)

   from [5]HSDB

   Computed Properties
   Molecular Weight                  183.179603 [g/mol]
   Molecular Formula                 C[9]H[10]FNO[2]
   XLogP3                            -1.9
   H-Bond Donor                      2
   H-Bond Acceptor                   4
   Rotatable Bond Count              3
   Exact Mass                        183.069557
   MonoIsotopic Mass                 183.069557
   Topological Polar Surface Area    63.3
   Heavy Atom Count                  13
   Formal Charge                     0
   Complexity                        179
   Isotope Atom Count                0
   Defined Atom Stereocenter Count   0
   Undefined Atom Stereocenter Count 1
   Defined Bond Stereocenter Count   0
   Undefined Bond Stereocenter Count 0
   Covalently-Bonded Unit Count      1
   Feature 3D Acceptor Count         2
   Feature 3D Donor Count            1
   Feature 3D Anion Count            1
   Feature 3D Cation Count           1
   Feature 3D Ring Count             1
   Effective Rotor Count             3
   Conformer Sampling RMSD           0.6
   CID Conformer Count               [6]10

References

   1. http://toxnet.nlm.nih.gov/cgi-bin/sis/search/r?dbs+hsdb:@term+@rn+@rel+51-65-0
   2. http://toxnet.nlm.nih.gov/cgi-bin/sis/search/r?dbs+hsdb:@term+@rn+@rel+51-65-0
   3. http://toxnet.nlm.nih.gov/cgi-bin/sis/search/r?dbs+hsdb:@term+@rn+@rel+51-65-0
   4. http://toxnet.nlm.nih.gov/cgi-bin/sis/search/r?dbs+hsdb:@term+@rn+@rel+51-65-0
   5. http://toxnet.nlm.nih.gov/cgi-bin/sis/search/r?dbs+hsdb:@term+@rn+@rel+51-65-0
   6. http://pubchem.ncbi.nlm.nih.gov/vw3d/vw3d.cgi?cid=4654
