11050836
  -OEChem-07051212472D

 69 72  0     1  0  0  0  0  0999 V2000
   10.2192    3.1660    0.0000 P   0  0  3  0  0  0  0  0  0  0  0  0
    3.4151   -6.9865    0.0000 P   0  0  0  0  0  0  0  0  0  0  0  0
   10.5823    4.8596    0.0000 P   0  0  3  0  0  0  0  0  0  0  0  0
   10.9453    6.5532    0.0000 P   0  0  0  0  0  0  0  0  0  0  0  0
    9.5744   -0.2871    0.0000 O   0  0  0  0  0  0  0  0  0  0  0  0
    6.2013   -4.8469    0.0000 O   0  0  0  0  0  0  0  0  0  0  0  0
   11.9204   -1.3790    0.0000 O   0  0  0  0  0  0  0  0  0  0  0  0
   11.9241    0.7966    0.0000 O   0  0  0  0  0  0  0  0  0  0  0  0
    5.1844   -2.4675    0.0000 O   0  0  0  0  0  0  0  0  0  0  0  0
    3.7286   -4.0843    0.0000 O   0  0  0  0  0  0  0  0  0  0  0  0
   10.5266    2.2144    0.0000 O   0  0  0  0  0  0  0  0  0  0  0  0
    3.8219   -6.0729    0.0000 O   0  0  0  0  0  0  0  0  0  0  0  0
    9.9119    4.1176    0.0000 O   0  0  0  0  0  0  0  0  0  0  0  0
   11.1708    3.4734    0.0000 O   0  0  0  0  0  0  0  0  0  0  0  0
    3.0084   -7.9000    0.0000 O   0  0  0  0  0  0  0  0  0  0  0  0
    2.5016   -6.5797    0.0000 O   0  0  0  0  0  0  0  0  0  0  0  0
    9.2676    2.8587    0.0000 O   0  0  0  0  0  0  0  0  0  0  0  0
    4.3287   -7.3932    0.0000 O   0  0  0  0  0  0  0  0  0  0  0  0
   11.2527    5.6016    0.0000 O   0  0  0  0  0  0  0  0  0  0  0  0
    9.8403    5.5300    0.0000 O   0  0  0  0  0  0  0  0  0  0  0  0
   11.3243    4.1892    0.0000 O   0  0  0  0  0  0  0  0  0  0  0  0
   10.6380    7.5048    0.0000 O   0  0  0  0  0  0  0  0  0  0  0  0
   11.8969    6.8606    0.0000 O   0  0  0  0  0  0  0  0  0  0  0  0
    9.9937    6.2458    0.0000 O   0  0  0  0  0  0  0  0  0  0  0  0
    9.8501   -2.0477    0.0000 N   0  0  0  0  0  0  0  0  0  0  0  0
    7.1718   -3.3524    0.0000 N   0  0  0  0  0  0  0  0  0  0  0  0
    8.0379   -1.8524    0.0000 N   0  0  0  0  0  0  0  0  0  0  0  0
    9.8501   -3.6571    0.0000 N   0  0  0  0  0  0  0  0  0  0  0  0
    8.0379   -4.8524    0.0000 N   0  0  0  0  0  0  0  0  0  0  0  0
   10.1608   -1.0972    0.0000 C   0  0  1  0  0  0  0  0  0  0  0  0
   11.1124   -0.7898    0.0000 C   0  0  1  0  0  0  0  0  0  0  0  0
   11.1141    0.2102    0.0000 C   0  0  1  0  0  0  0  0  0  0  0  0
   10.1636    0.5209    0.0000 C   0  0  1  0  0  0  0  0  0  0  0  0
    6.3058   -3.8524    0.0000 C   0  0  1  0  0  0  0  0  0  0  0  0
    5.3923   -3.4457    0.0000 C   0  0  1  0  0  0  0  0  0  0  0  0
    4.7231   -4.1888    0.0000 C   0  0  1  0  0  0  0  0  0  0  0  0
    5.2231   -5.0548    0.0000 C   0  0  1  0  0  0  0  0  0  0  0  0
    9.8562    1.4725    0.0000 C   0  0  0  0  0  0  0  0  0  0  0  0
    8.9039   -2.3524    0.0000 C   0  0  0  0  0  0  0  0  0  0  0  0
    4.8164   -5.9684    0.0000 C   0  0  0  0  0  0  0  0  0  0  0  0
    8.9039   -3.3524    0.0000 C   0  0  0  0  0  0  0  0  0  0  0  0
    8.0379   -3.8524    0.0000 C   0  0  0  0  0  0  0  0  0  0  0  0
   10.4337   -2.8524    0.0000 C   0  0  0  0  0  0  0  0  0  0  0  0
    7.1718   -2.3524    0.0000 C   0  0  0  0  0  0  0  0  0  0  0  0
   10.5984   -1.5363    0.0000 H   0  0  0  0  0  0  0  0  0  0  0  0
   11.0143   -1.4020    0.0000 H   0  0  0  0  0  0  0  0  0  0  0  0
   11.6660   -0.0722    0.0000 H   0  0  0  0  0  0  0  0  0  0  0  0
    9.5514    0.6189    0.0000 H   0  0  0  0  0  0  0  0  0  0  0  0
    6.8258   -4.1901    0.0000 H   0  0  0  0  0  0  0  0  0  0  0  0
    5.8741   -3.0555    0.0000 H   0  0  0  0  0  0  0  0  0  0  0  0
    4.5009   -3.6100    0.0000 H   0  0  0  0  0  0  0  0  0  0  0  0
    5.6133   -5.5367    0.0000 H   0  0  0  0  0  0  0  0  0  0  0  0
    9.4753    1.9617    0.0000 H   0  0  0  0  0  0  0  0  0  0  0  0
    9.3083    1.1823    0.0000 H   0  0  0  0  0  0  0  0  0  0  0  0
    4.7732   -6.5869    0.0000 H   0  0  0  0  0  0  0  0  0  0  0  0
    5.4180   -6.1184    0.0000 H   0  0  0  0  0  0  0  0  0  0  0  0
   11.0537   -2.8524    0.0000 H   0  0  0  0  0  0  0  0  0  0  0  0
    6.6349   -2.0424    0.0000 H   0  0  0  0  0  0  0  0  0  0  0  0
   12.4872   -1.1278    0.0000 H   0  0  0  0  0  0  0  0  0  0  0  0
   12.4901    0.5434    0.0000 H   0  0  0  0  0  0  0  0  0  0  0  0
    4.5947   -2.2759    0.0000 H   0  0  0  0  0  0  0  0  0  0  0  0
    3.4764   -3.5179    0.0000 H   0  0  0  0  0  0  0  0  0  0  0  0
    8.5748   -5.1624    0.0000 H   0  0  0  0  0  0  0  0  0  0  0  0
   11.6309    3.0578    0.0000 H   0  0  0  0  0  0  0  0  0  0  0  0
    2.3918   -7.9648    0.0000 H   0  0  0  0  0  0  0  0  0  0  0  0
    2.0000   -6.9442    0.0000 H   0  0  0  0  0  0  0  0  0  0  0  0
    9.2503    5.3395    0.0000 H   0  0  0  0  0  0  0  0  0  0  0  0
   11.0536    7.9648    0.0000 H   0  0  0  0  0  0  0  0  0  0  0  0
   12.3570    6.4449    0.0000 H   0  0  0  0  0  0  0  0  0  0  0  0
  1 11  1  0  0  0  0
  1 13  1  0  0  0  0
  1 14  1  0  0  0  0
  1 17  2  0  0  0  0
  2 12  1  0  0  0  0
  2 15  1  0  0  0  0
  2 16  1  0  0  0  0
  2 18  2  0  0  0  0
  3 13  1  0  0  0  0
  3 19  1  0  0  0  0
  3 20  1  0  0  0  0
  3 21  2  0  0  0  0
  4 19  1  0  0  0  0
  4 22  1  0  0  0  0
  4 23  1  0  0  0  0
  4 24  2  0  0  0  0
  5 30  1  0  0  0  0
  5 33  1  0  0  0  0
  6 34  1  0  0  0  0
  6 37  1  0  0  0  0
 31  7  1  1  0  0  0
  7 59  1  0  0  0  0
 32  8  1  1  0  0  0
  8 60  1  0  0  0  0
 35  9  1  1  0  0  0
  9 61  1  0  0  0  0
 36 10  1  1  0  0  0
 10 62  1  0  0  0  0
 11 38  1  0  0  0  0
 12 40  1  0  0  0  0
 14 64  1  0  0  0  0
 15 65  1  0  0  0  0
 16 66  1  0  0  0  0
 20 67  1  0  0  0  0
 22 68  1  0  0  0  0
 23 69  1  0  0  0  0
 30 25  1  6  0  0  0
 25 39  1  0  0  0  0
 25 43  1  0  0  0  0
 34 26  1  6  0  0  0
 26 42  1  0  0  0  0
 26 44  1  0  0  0  0
 27 39  1  0  0  0  0
 27 44  2  0  0  0  0
 28 41  1  0  0  0  0
 28 43  2  0  0  0  0
 29 42  2  0  0  0  0
 29 63  1  0  0  0  0
 30 31  1  0  0  0  0
 30 45  1  0  0  0  0
 31 32  1  0  0  0  0
 31 46  1  0  0  0  0
 32 33  1  0  0  0  0
 32 47  1  0  0  0  0
 33 38  1  6  0  0  0
 33 48  1  0  0  0  0
 34 35  1  0  0  0  0
 34 49  1  0  0  0  0
 35 36  1  0  0  0  0
 35 50  1  0  0  0  0
 36 37  1  0  0  0  0
 36 51  1  0  0  0  0
 37 40  1  6  0  0  0
 37 52  1  0  0  0  0
 38 53  1  0  0  0  0
 38 54  1  0  0  0  0
 39 41  2  0  0  0  0
 40 55  1  0  0  0  0
 40 56  1  0  0  0  0
 41 42  1  0  0  0  0
 43 57  1  0  0  0  0
 44 58  1  0  0  0  0
M  END
> <PUBCHEM_COMPOUND_CID>
11050836

> <PUBCHEM_COMPOUND_CANONICALIZED>
1

> <PUBCHEM_CACTVS_COMPLEXITY>
1310

> <PUBCHEM_CACTVS_HBOND_ACCEPTOR>
23

> <PUBCHEM_CACTVS_HBOND_DONOR>
11

> <PUBCHEM_CACTVS_ROTATABLE_BOND>
12

> <PUBCHEM_CACTVS_SUBSKEYS>
AAADceBzvgOAAAAAAAAAAAAAAAAAAWJEgAAgAAAAAAAAAEABgAAAHgAQCCAACBzhlgYFsBdMFxCgQQZhZICAgC2REKABUAAoVBCDWAJAyAAeQAgPAALTACDwMAIAAAAAAAAAAAAAAAAAAAAAAAAAAAAAAA==

> <PUBCHEM_IUPAC_OPENEYE_NAME>
[[(2R,3S,4R,5R)-5-[1-[(2R,3R,4S,5R)-3,4-dihydroxy-5-(phosphonooxymethyl)tetrahydrofuran-2-yl]-6-imino-purin-9-yl]-3,4-dihydroxy-tetrahydrofuran-2-yl]methoxy-hydroxy-phosphoryl] phosphono hydrogen phosphate

> <PUBCHEM_IUPAC_CAS_NAME>
[[(2R,3S,4R,5R)-5-[1-[(2R,3R,4S,5R)-3,4-dihydroxy-5-(phosphonooxymethyl)-2-oxolanyl]-6-imino-9-purinyl]-3,4-dihydroxy-2-oxolanyl]methoxy-hydroxyphosphoryl] phosphono hydrogen phosphate

> <PUBCHEM_IUPAC_NAME>
[[(2R,3S,4R,5R)-5-[1-[(2R,3R,4S,5R)-3,4-dihydroxy-5-(phosphonooxymethyl)oxolan-2-yl]-6-iminopurin-9-yl]-3,4-dihydroxyoxolan-2-yl]methoxy-hydroxyphosphoryl] phosphono hydrogen phosphate

> <PUBCHEM_IUPAC_SYSTEMATIC_NAME>
[[(2R,3S,4R,5R)-5-[6-azanylidene-1-[(2R,3R,4S,5R)-3,4-bis(oxidanyl)-5-(phosphonooxymethyl)oxolan-2-yl]purin-9-yl]-3,4-bis(oxidanyl)oxolan-2-yl]methoxy-oxidanyl-phosphoryl] phosphono hydrogen phosphate

> <PUBCHEM_IUPAC_TRADITIONAL_NAME>
[[(2R,3S,4R,5R)-5-[1-[(2R,3R,4S,5R)-3,4-dihydroxy-5-(phosphonooxymethyl)tetrahydrofuran-2-yl]-6-imino-purin-9-yl]-3,4-dihydroxy-tetrahydrofuran-2-yl]methoxy-hydroxy-phosphoryl] phosphono hydrogen phosphate

> <PUBCHEM_IUPAC_INCHI>
InChI=1S/C15H25N5O20P4/c16-12-7-13(18-4-19(12)14-10(23)8(21)5(37-14)1-35-41(25,26)27)20(3-17-7)15-11(24)9(22)6(38-15)2-36-43(31,32)40-44(33,34)39-42(28,29)30/h3-6,8-11,14-16,21-24H,1-2H2,(H,31,32)(H,33,34)(H2,25,26,27)(H2,28,29,30)/t5-,6-,8-,9-,10-,11-,14-,15-/m1/s1

> <PUBCHEM_IUPAC_INCHIKEY>
RKNHJBVBFHDXGR-KEOHHSTQSA-N

> <PUBCHEM_XLOGP3_AA>
-8.9

> <PUBCHEM_EXACT_MASS>
719.004335

> <PUBCHEM_MOLECULAR_FORMULA>
C15H25N5O20P4

> <PUBCHEM_MOLECULAR_WEIGHT>
719.275548

> <PUBCHEM_OPENEYE_CAN_SMILES>
C1=NC2=C(N1C3C(C(C(O3)COP(=O)(O)OP(=O)(O)OP(=O)(O)O)O)O)N=CN(C2=N)C4C(C(C(O4)COP(=O)(O)O)O)O

> <PUBCHEM_OPENEYE_ISO_SMILES>
C1=NC2=C(N1[C@H]3[C@@H]([C@@H]([C@H](O3)COP(=O)(O)OP(=O)(O)OP(=O)(O)O)O)O)N=CN(C2=N)[C@H]4[C@@H]([C@@H]([C@H](O4)COP(=O)(O)O)O)O

> <PUBCHEM_CACTVS_TPSA>
383

> <PUBCHEM_MONOISOTOPIC_WEIGHT>
719.004335

> <PUBCHEM_TOTAL_CHARGE>
0

> <PUBCHEM_HEAVY_ATOM_COUNT>
44

> <PUBCHEM_ATOM_DEF_STEREO_COUNT>
8

> <PUBCHEM_ATOM_UDEF_STEREO_COUNT>
0

> <PUBCHEM_BOND_DEF_STEREO_COUNT>
0

> <PUBCHEM_BOND_UDEF_STEREO_COUNT>
0

> <PUBCHEM_ISOTOPIC_ATOM_COUNT>
0

> <PUBCHEM_COMPONENT_COUNT>
1

> <PUBCHEM_CACTVS_TAUTO_COUNT>
1

> <PUBCHEM_COORDINATE_TYPE>
1
5
255

> <PUBCHEM_BONDANNOTATIONS>
36  10  5
30  25  6
25  39  8
25  43  8
34  26  6
26  42  8
26  44  8
27  39  8
27  44  8
28  41  8
28  43  8
33  38  6
37  40  6
39  41  8
41  42  8
31  7  5
32  8  5
35  9  5

$$$$

