5421
  -OEChem-06261200412D

 54 57  0     0  0  0  0  0  0999 V2000
    6.3981   -2.6429    0.0000 O   0  0  0  0  0  0  0  0  0  0  0  0
    8.5909    1.9704    0.0000 O   0  0  0  0  0  0  0  0  0  0  0  0
    8.8917    0.2647    0.0000 O   0  0  0  0  0  0  0  0  0  0  0  0
    9.9282   -2.6671    0.0000 N   0  3  0  0  0  0  0  0  0  0  0  0
    2.8680   -2.6671    0.0000 N   0  0  0  0  0  0  0  0  0  0  0  0
    6.3981    3.3571    0.0000 N   0  0  0  0  0  0  0  0  0  0  0  0
    6.3981   -0.6429    0.0000 C   0  0  0  0  0  0  0  0  0  0  0  0
    7.2641   -1.1429    0.0000 C   0  0  0  0  0  0  0  0  0  0  0  0
    5.5320   -1.1429    0.0000 C   0  0  0  0  0  0  0  0  0  0  0  0
    7.2641   -2.1429    0.0000 C   0  0  0  0  0  0  0  0  0  0  0  0
    5.5320   -2.1429    0.0000 C   0  0  0  0  0  0  0  0  0  0  0  0
    6.3981    0.3571    0.0000 C   0  0  0  0  0  0  0  0  0  0  0  0
    8.1580   -0.6083    0.0000 C   0  0  0  0  0  0  0  0  0  0  0  0
    4.6381   -0.6083    0.0000 C   0  0  0  0  0  0  0  0  0  0  0  0
    8.1580   -2.6776    0.0000 C   0  0  0  0  0  0  0  0  0  0  0  0
    4.6381   -2.6776    0.0000 C   0  0  0  0  0  0  0  0  0  0  0  0
    9.0641   -2.1637    0.0000 C   0  0  0  0  0  0  0  0  0  0  0  0
    3.7320   -2.1637    0.0000 C   0  0  0  0  0  0  0  0  0  0  0  0
    7.2641    0.8571    0.0000 C   0  0  0  0  0  0  0  0  0  0  0  0
    9.0641   -1.1221    0.0000 C   0  0  0  0  0  0  0  0  0  0  0  0
    3.7320   -1.1221    0.0000 C   0  0  0  0  0  0  0  0  0  0  0  0
    5.5320    0.8571    0.0000 C   0  0  0  0  0  0  0  0  0  0  0  0
    7.2641    1.8571    0.0000 C   0  0  0  0  0  0  0  0  0  0  0  0
    5.5320    1.8571    0.0000 C   0  0  0  0  0  0  0  0  0  0  0  0
    6.3981    2.3571    0.0000 C   0  0  0  0  0  0  0  0  0  0  0  0
   10.7961   -2.1704    0.0000 C   0  0  0  0  0  0  0  0  0  0  0  0
    9.9243   -3.6671    0.0000 C   0  0  0  0  0  0  0  0  0  0  0  0
    8.2489    1.0307    0.0000 C   0  0  0  0  0  0  0  0  0  0  0  0
    2.0000   -2.1704    0.0000 C   0  0  0  0  0  0  0  0  0  0  0  0
    2.8718   -3.6671    0.0000 C   0  0  0  0  0  0  0  0  0  0  0  0
    8.1509    0.0117    0.0000 H   0  0  0  0  0  0  0  0  0  0  0  0
    4.6453    0.0117    0.0000 H   0  0  0  0  0  0  0  0  0  0  0  0
    8.1509   -3.2976    0.0000 H   0  0  0  0  0  0  0  0  0  0  0  0
    4.6453   -3.2976    0.0000 H   0  0  0  0  0  0  0  0  0  0  0  0
    9.5998   -0.8100    0.0000 H   0  0  0  0  0  0  0  0  0  0  0  0
    3.1963   -0.8100    0.0000 H   0  0  0  0  0  0  0  0  0  0  0  0
    4.9951    0.5471    0.0000 H   0  0  0  0  0  0  0  0  0  0  0  0
    7.8010    2.1671    0.0000 H   0  0  0  0  0  0  0  0  0  0  0  0
    4.9951    2.1671    0.0000 H   0  0  0  0  0  0  0  0  0  0  0  0
    9.3044   -3.6647    0.0000 H   0  0  0  0  0  0  0  0  0  0  0  0
    9.9220   -4.2871    0.0000 H   0  0  0  0  0  0  0  0  0  0  0  0
   11.1041   -2.7085    0.0000 H   0  0  0  0  0  0  0  0  0  0  0  0
   11.3343   -1.8625    0.0000 H   0  0  0  0  0  0  0  0  0  0  0  0
   10.4882   -1.6323    0.0000 H   0  0  0  0  0  0  0  0  0  0  0  0
   10.5443   -3.6695    0.0000 H   0  0  0  0  0  0  0  0  0  0  0  0
    2.3079   -1.6323    0.0000 H   0  0  0  0  0  0  0  0  0  0  0  0
    2.2518   -3.6695    0.0000 H   0  0  0  0  0  0  0  0  0  0  0  0
    2.8742   -4.2871    0.0000 H   0  0  0  0  0  0  0  0  0  0  0  0
    3.4918   -3.6647    0.0000 H   0  0  0  0  0  0  0  0  0  0  0  0
    1.4619   -1.8625    0.0000 H   0  0  0  0  0  0  0  0  0  0  0  0
    1.6921   -2.7085    0.0000 H   0  0  0  0  0  0  0  0  0  0  0  0
    5.8611    3.6671    0.0000 H   0  0  0  0  0  0  0  0  0  0  0  0
    6.9350    3.6671    0.0000 H   0  0  0  0  0  0  0  0  0  0  0  0
    8.1924    2.4454    0.0000 H   0  0  0  0  0  0  0  0  0  0  0  0
  1 10  1  0  0  0  0
  1 11  1  0  0  0  0
  2 28  1  0  0  0  0
  2 54  1  0  0  0  0
  3 28  2  0  0  0  0
  4 17  2  0  0  0  0
  4 26  1  0  0  0  0
  4 27  1  0  0  0  0
  5 18  1  0  0  0  0
  5 29  1  0  0  0  0
  5 30  1  0  0  0  0
  6 25  1  0  0  0  0
  6 52  1  0  0  0  0
  6 53  1  0  0  0  0
  7  8  2  0  0  0  0
  7  9  1  0  0  0  0
  7 12  1  0  0  0  0
  8 10  1  0  0  0  0
  8 13  1  0  0  0  0
  9 11  2  0  0  0  0
  9 14  1  0  0  0  0
 10 15  2  0  0  0  0
 11 16  1  0  0  0  0
 12 19  2  0  0  0  0
 12 22  1  0  0  0  0
 13 20  2  0  0  0  0
 13 31  1  0  0  0  0
 14 21  2  0  0  0  0
 14 32  1  0  0  0  0
 15 17  1  0  0  0  0
 15 33  1  0  0  0  0
 16 18  2  0  0  0  0
 16 34  1  0  0  0  0
 17 20  1  0  0  0  0
 18 21  1  0  0  0  0
 19 23  1  0  0  0  0
 19 28  1  0  0  0  0
 20 35  1  0  0  0  0
 21 36  1  0  0  0  0
 22 24  2  0  0  0  0
 22 37  1  0  0  0  0
 23 25  2  0  0  0  0
 23 38  1  0  0  0  0
 24 25  1  0  0  0  0
 24 39  1  0  0  0  0
 26 42  1  0  0  0  0
 26 43  1  0  0  0  0
 26 44  1  0  0  0  0
 27 40  1  0  0  0  0
 27 41  1  0  0  0  0
 27 45  1  0  0  0  0
 29 46  1  0  0  0  0
 29 50  1  0  0  0  0
 29 51  1  0  0  0  0
 30 47  1  0  0  0  0
 30 48  1  0  0  0  0
 30 49  1  0  0  0  0
M  CHG  1   4   1
M  END
> <PUBCHEM_COMPOUND_CID>
5421

> <PUBCHEM_COMPOUND_CANONICALIZED>
1

> <PUBCHEM_CACTVS_COMPLEXITY>
791

> <PUBCHEM_CACTVS_HBOND_ACCEPTOR>
5

> <PUBCHEM_CACTVS_HBOND_DONOR>
2

> <PUBCHEM_CACTVS_ROTATABLE_BOND>
3

> <PUBCHEM_CACTVS_SUBSKEYS>
AAADceB7MAAAAAAAAAAAAAAAAAAAAAAAAAAwYIEAAAAAAACBQAAAHgAQCAAADAyBmAQyzoNABgCoAyTyTACCCAAlIgAIiAEebNgMJjLEtZuGeSjm0BlI+Ye82POOiAAAQgAYAAAQAACEADAAAAAAAAAAAA==

> <PUBCHEM_IUPAC_OPENEYE_NAME>
[9-(4-amino-2-carboxy-phenyl)-6-(dimethylamino)xanthen-3-ylidene]-dimethyl-ammonium

> <PUBCHEM_IUPAC_CAS_NAME>
[9-(4-amino-2-carboxyphenyl)-6-(dimethylamino)-3-xanthenylidene]-dimethylammonium

> <PUBCHEM_IUPAC_NAME>
[9-(4-amino-2-carboxyphenyl)-6-(dimethylamino)xanthen-3-ylidene]-dimethylazanium

> <PUBCHEM_IUPAC_SYSTEMATIC_NAME>
[9-(4-azanyl-2-carboxy-phenyl)-6-(dimethylamino)xanthen-3-ylidene]-dimethyl-azanium

> <PUBCHEM_IUPAC_TRADITIONAL_NAME>
[9-(4-amino-2-carboxy-phenyl)-6-(dimethylamino)xanthen-3-ylidene]-dimethyl-ammonium

> <PUBCHEM_IUPAC_INCHI>
InChI=1S/C24H23N3O3/c1-26(2)15-6-9-18-21(12-15)30-22-13-16(27(3)4)7-10-19(22)23(18)17-8-5-14(25)11-20(17)24(28)29/h5-13,25H,1-4H3,(H,28,29)/p+1

> <PUBCHEM_IUPAC_INCHIKEY>
ACARQHQBFSFTSN-UHFFFAOYSA-O

> <PUBCHEM_XLOGP3_AA>
2.3

> <PUBCHEM_EXACT_MASS>
402.181767

> <PUBCHEM_MOLECULAR_FORMULA>
C24H24N3O3+

> <PUBCHEM_MOLECULAR_WEIGHT>
402.46566

> <PUBCHEM_OPENEYE_CAN_SMILES>
CN(C)C1=CC2=C(C=C1)C(=C3C=CC(=[N+](C)C)C=C3O2)C4=C(C=C(C=C4)N)C(=O)O

> <PUBCHEM_OPENEYE_ISO_SMILES>
CN(C)C1=CC2=C(C=C1)C(=C3C=CC(=[N+](C)C)C=C3O2)C4=C(C=C(C=C4)N)C(=O)O

> <PUBCHEM_CACTVS_TPSA>
78.8

> <PUBCHEM_MONOISOTOPIC_WEIGHT>
402.181767

> <PUBCHEM_TOTAL_CHARGE>
1

> <PUBCHEM_HEAVY_ATOM_COUNT>
30

> <PUBCHEM_ATOM_DEF_STEREO_COUNT>
0

> <PUBCHEM_ATOM_UDEF_STEREO_COUNT>
0

> <PUBCHEM_BOND_DEF_STEREO_COUNT>
0

> <PUBCHEM_BOND_UDEF_STEREO_COUNT>
0

> <PUBCHEM_ISOTOPIC_ATOM_COUNT>
0

> <PUBCHEM_COMPONENT_COUNT>
1

> <PUBCHEM_CACTVS_TAUTO_COUNT>
2

> <PUBCHEM_COORDINATE_TYPE>
1
5
255

> <PUBCHEM_BONDANNOTATIONS>
1  10  8
1  11  8
10  15  8
11  16  8
12  19  8
12  22  8
13  20  8
14  21  8
15  17  8
16  18  8
17  20  8
18  21  8
19  23  8
22  24  8
23  25  8
24  25  8
7  8  8
7  9  8
8  13  8
9  11  8
9  14  8

$$$$

