6419915
  -OEChem-07051213032D

 91 91  0     1  0  0  0  0  0999 V2000
    3.0000    9.4237    0.0000 Cl  0  0  0  0  0  0  0  0  0  0  0  0
    0.0000    9.4237    0.0000 Cl  0  0  0  0  0  0  0  0  0  0  0  0
    7.7905   13.6820    0.0000 O   0  0  0  0  0  0  0  0  0  0  0  0
    9.7637    5.0369    0.0000 O   0  0  0  0  0  0  0  0  0  0  0  0
    6.3594   14.6577    0.0000 O   0  0  0  0  0  0  0  0  0  0  0  0
    8.8976    3.5369    0.0000 O   0  0  0  0  0  0  0  0  0  0  0  0
    7.6155   18.0374    0.0000 O   0  0  0  0  0  0  0  0  0  0  0  0
   13.2278    4.0369    0.0000 O   0  0  0  0  0  0  0  0  0  0  0  0
   10.4776   16.0860    0.0000 O   0  0  0  0  0  0  0  0  0  0  0  0
   11.4957    1.0369    0.0000 O   0  0  0  0  0  0  0  0  0  0  0  0
    9.6099   17.8879    0.0000 O   0  0  0  0  0  0  0  0  0  0  0  0
   13.2278    2.0369    0.0000 O   0  0  0  0  0  0  0  0  0  0  0  0
    8.0316    8.0369    0.0000 N   0  0  3  0  0  0  0  0  0  0  0  0
    7.5316   10.2276    0.0000 N   0  0  3  0  0  0  0  0  0  0  0  0
    6.9081    9.4458    0.0000 C   0  0  0  0  0  0  0  0  0  0  0  0
    7.1306    8.4708    0.0000 C   0  0  0  0  0  0  0  0  0  0  0  0
    8.5316   10.2276    0.0000 C   0  0  0  0  0  0  0  0  0  0  0  0
    8.9326    8.4708    0.0000 C   0  0  0  0  0  0  0  0  0  0  0  0
    9.1551    9.4458    0.0000 C   0  0  0  0  0  0  0  0  0  0  0  0
    7.0977   11.1285    0.0000 C   0  0  0  0  0  0  0  0  0  0  0  0
    8.0316    7.0369    0.0000 C   0  0  0  0  0  0  0  0  0  0  0  0
    7.6610   11.9548    0.0000 C   0  0  0  0  0  0  0  0  0  0  0  0
    8.8976    6.5369    0.0000 C   0  0  0  0  0  0  0  0  0  0  0  0
    7.2272   12.8558    0.0000 C   0  0  0  0  0  0  0  0  0  0  0  0
    8.8976    5.5369    0.0000 C   0  0  0  0  0  0  0  0  0  0  0  0
    7.3566   14.5830    0.0000 C   0  0  0  0  0  0  0  0  0  0  0  0
    9.7637    4.0369    0.0000 C   0  0  0  0  0  0  0  0  0  0  0  0
    7.9199   15.4092    0.0000 C   0  0  0  0  0  0  0  0  0  0  0  0
   10.6297    3.5369    0.0000 C   0  0  0  0  0  0  0  0  0  0  0  0
    8.9171   15.3345    0.0000 C   0  0  0  0  0  0  0  0  0  0  0  0
   10.6297    2.5369    0.0000 C   0  0  0  0  0  0  0  0  0  0  0  0
    7.4860   16.3102    0.0000 C   0  0  0  0  0  0  0  0  0  0  0  0
   11.4957    4.0369    0.0000 C   0  0  0  0  0  0  0  0  0  0  0  0
    8.0494   17.1364    0.0000 C   0  0  0  0  0  0  0  0  0  0  0  0
   12.3617    3.5369    0.0000 C   0  0  0  0  0  0  0  0  0  0  0  0
    9.4804   16.1607    0.0000 C   0  0  0  0  0  0  0  0  0  0  0  0
   11.4957    2.0369    0.0000 C   0  0  0  0  0  0  0  0  0  0  0  0
   12.3617    2.5369    0.0000 C   0  0  0  0  0  0  0  0  0  0  0  0
    9.0466   17.0617    0.0000 C   0  0  0  0  0  0  0  0  0  0  0  0
   13.2278    5.0369    0.0000 C   0  0  0  0  0  0  0  0  0  0  0  0
    6.6183   18.1121    0.0000 C   0  0  0  0  0  0  0  0  0  0  0  0
   10.6297    0.5369    0.0000 C   0  0  0  0  0  0  0  0  0  0  0  0
   10.9115   15.1850    0.0000 C   0  0  0  0  0  0  0  0  0  0  0  0
    9.1760   18.7889    0.0000 C   0  0  0  0  0  0  0  0  0  0  0  0
   13.2278    1.0369    0.0000 C   0  0  0  0  0  0  0  0  0  0  0  0
    6.5216    9.9305    0.0000 H   0  0  0  0  0  0  0  0  0  0  0  0
    6.3495    9.1767    0.0000 H   0  0  0  0  0  0  0  0  0  0  0  0
    6.5106    8.4708    0.0000 H   0  0  0  0  0  0  0  0  0  0  0  0
    6.9927    7.8664    0.0000 H   0  0  0  0  0  0  0  0  0  0  0  0
    9.0705    7.8664    0.0000 H   0  0  0  0  0  0  0  0  0  0  0  0
    9.5526    8.4708    0.0000 H   0  0  0  0  0  0  0  0  0  0  0  0
    9.0902   10.4966    0.0000 H   0  0  0  0  0  0  0  0  0  0  0  0
    8.3936   10.8320    0.0000 H   0  0  0  0  0  0  0  0  0  0  0  0
    9.7137    9.1767    0.0000 H   0  0  0  0  0  0  0  0  0  0  0  0
    9.5417    9.9305    0.0000 H   0  0  0  0  0  0  0  0  0  0  0  0
    6.6539   11.5615    0.0000 H   0  0  0  0  0  0  0  0  0  0  0  0
    6.5943   10.7666    0.0000 H   0  0  0  0  0  0  0  0  0  0  0  0
    7.4210    7.1446    0.0000 H   0  0  0  0  0  0  0  0  0  0  0  0
    7.8196    6.4543    0.0000 H   0  0  0  0  0  0  0  0  0  0  0  0
    9.5082    6.4293    0.0000 H   0  0  0  0  0  0  0  0  0  0  0  0
    9.1097    7.1195    0.0000 H   0  0  0  0  0  0  0  0  0  0  0  0
    8.1049   11.5219    0.0000 H   0  0  0  0  0  0  0  0  0  0  0  0
    8.1644   12.3167    0.0000 H   0  0  0  0  0  0  0  0  0  0  0  0
    6.7833   13.2887    0.0000 H   0  0  0  0  0  0  0  0  0  0  0  0
    6.7238   12.4938    0.0000 H   0  0  0  0  0  0  0  0  0  0  0  0
    8.2870    5.6446    0.0000 H   0  0  0  0  0  0  0  0  0  0  0  0
    8.6856    4.9543    0.0000 H   0  0  0  0  0  0  0  0  0  0  0  0
    9.1861   14.7759    0.0000 H   0  0  0  0  0  0  0  0  0  0  0  0
   10.0927    2.2269    0.0000 H   0  0  0  0  0  0  0  0  0  0  0  0
    6.8678   16.3565    0.0000 H   0  0  0  0  0  0  0  0  0  0  0  0
   11.4957    4.6569    0.0000 H   0  0  0  0  0  0  0  0  0  0  0  0
   13.8478    5.0369    0.0000 H   0  0  0  0  0  0  0  0  0  0  0  0
   13.2278    5.6569    0.0000 H   0  0  0  0  0  0  0  0  0  0  0  0
   12.6078    5.0369    0.0000 H   0  0  0  0  0  0  0  0  0  0  0  0
    6.6646   18.7304    0.0000 H   0  0  0  0  0  0  0  0  0  0  0  0
    6.0000   18.1584    0.0000 H   0  0  0  0  0  0  0  0  0  0  0  0
    6.5719   17.4938    0.0000 H   0  0  0  0  0  0  0  0  0  0  0  0
   10.3197    1.0739    0.0000 H   0  0  0  0  0  0  0  0  0  0  0  0
   10.0927    0.2269    0.0000 H   0  0  0  0  0  0  0  0  0  0  0  0
   10.9397    0.0000    0.0000 H   0  0  0  0  0  0  0  0  0  0  0  0
   10.3529   14.9160    0.0000 H   0  0  0  0  0  0  0  0  0  0  0  0
   11.1805   14.6264    0.0000 H   0  0  0  0  0  0  0  0  0  0  0  0
   11.4701   15.4540    0.0000 H   0  0  0  0  0  0  0  0  0  0  0  0
    9.7346   19.0579    0.0000 H   0  0  0  0  0  0  0  0  0  0  0  0
    8.9070   19.3475    0.0000 H   0  0  0  0  0  0  0  0  0  0  0  0
    8.6174   18.5199    0.0000 H   0  0  0  0  0  0  0  0  0  0  0  0
   12.6078    1.0369    0.0000 H   0  0  0  0  0  0  0  0  0  0  0  0
   13.2278    0.4169    0.0000 H   0  0  0  0  0  0  0  0  0  0  0  0
   13.8478    1.0369    0.0000 H   0  0  0  0  0  0  0  0  0  0  0  0
    4.0000    9.4237    0.0000 H   0  0  0  0  0  0  0  0  0  0  0  0
    1.0000    9.4237    0.0000 H   0  0  0  0  0  0  0  0  0  0  0  0
  1 90  1  0  0  0  0
  2 91  1  0  0  0  0
  3 24  1  0  0  0  0
  3 26  1  0  0  0  0
  4 25  1  0  0  0  0
  4 27  1  0  0  0  0
  5 26  2  0  0  0  0
  6 27  2  0  0  0  0
  7 34  1  0  0  0  0
  7 41  1  0  0  0  0
  8 35  1  0  0  0  0
  8 40  1  0  0  0  0
  9 36  1  0  0  0  0
  9 43  1  0  0  0  0
 10 37  1  0  0  0  0
 10 42  1  0  0  0  0
 11 39  1  0  0  0  0
 11 44  1  0  0  0  0
 12 38  1  0  0  0  0
 12 45  1  0  0  0  0
 13 16  1  0  0  0  0
 13 18  1  0  0  0  0
 13 21  1  0  0  0  0
 14 15  1  0  0  0  0
 14 17  1  0  0  0  0
 14 20  1  0  0  0  0
 15 16  1  0  0  0  0
 15 46  1  0  0  0  0
 15 47  1  0  0  0  0
 16 48  1  0  0  0  0
 16 49  1  0  0  0  0
 17 19  1  0  0  0  0
 17 52  1  0  0  0  0
 17 53  1  0  0  0  0
 18 19  1  0  0  0  0
 18 50  1  0  0  0  0
 18 51  1  0  0  0  0
 19 54  1  0  0  0  0
 19 55  1  0  0  0  0
 20 22  1  0  0  0  0
 20 56  1  0  0  0  0
 20 57  1  0  0  0  0
 21 23  1  0  0  0  0
 21 58  1  0  0  0  0
 21 59  1  0  0  0  0
 22 24  1  0  0  0  0
 22 62  1  0  0  0  0
 22 63  1  0  0  0  0
 23 25  1  0  0  0  0
 23 60  1  0  0  0  0
 23 61  1  0  0  0  0
 24 64  1  0  0  0  0
 24 65  1  0  0  0  0
 25 66  1  0  0  0  0
 25 67  1  0  0  0  0
 26 28  1  0  0  0  0
 27 29  1  0  0  0  0
 28 30  2  0  0  0  0
 28 32  1  0  0  0  0
 29 31  2  0  0  0  0
 29 33  1  0  0  0  0
 30 36  1  0  0  0  0
 30 68  1  0  0  0  0
 31 37  1  0  0  0  0
 31 69  1  0  0  0  0
 32 34  2  0  0  0  0
 32 70  1  0  0  0  0
 33 35  2  0  0  0  0
 33 71  1  0  0  0  0
 34 39  1  0  0  0  0
 35 38  1  0  0  0  0
 36 39  2  0  0  0  0
 37 38  2  0  0  0  0
 40 72  1  0  0  0  0
 40 73  1  0  0  0  0
 40 74  1  0  0  0  0
 41 75  1  0  0  0  0
 41 76  1  0  0  0  0
 41 77  1  0  0  0  0
 42 78  1  0  0  0  0
 42 79  1  0  0  0  0
 42 80  1  0  0  0  0
 43 81  1  0  0  0  0
 43 82  1  0  0  0  0
 43 83  1  0  0  0  0
 44 84  1  0  0  0  0
 44 85  1  0  0  0  0
 44 86  1  0  0  0  0
 45 87  1  0  0  0  0
 45 88  1  0  0  0  0
 45 89  1  0  0  0  0
M  END
> <PUBCHEM_COMPOUND_CID>
6419915

> <PUBCHEM_COMPOUND_CANONICALIZED>
1

> <PUBCHEM_CACTVS_COMPLEXITY>
727

> <PUBCHEM_CACTVS_HBOND_ACCEPTOR>
12

> <PUBCHEM_CACTVS_HBOND_DONOR>
2

> <PUBCHEM_CACTVS_ROTATABLE_BOND>
18

> <PUBCHEM_CACTVS_SUBSKEYS>
AAADcfB7PAAGAAAAAAAAAAAAAAAAAAAAAAAwYAAABYAAAAABQAAAHgAAAAAADAThmAYyDoMABACIAiDSCAACCAAkIAAAiAEOiMgNZzKEdRqWMSInwBWKqYfK7DzOIAABCAAAQABAAAIQAACAAAAAAAAAAA==

> <PUBCHEM_IUPAC_OPENEYE_NAME>
3-[4-[3-(3,4,5-trimethoxybenzoyl)oxypropyl]-1,4-diazepan-1-yl]propyl 3,4,5-trimethoxybenzoate dihydrochloride

> <PUBCHEM_IUPAC_CAS_NAME>
3,4,5-trimethoxybenzoic acid 3-[4-[3-[oxo-(3,4,5-trimethoxyphenyl)methoxy]propyl]-1,4-diazepan-1-yl]propyl ester dihydrochloride

> <PUBCHEM_IUPAC_NAME>
3-[4-[3-(3,4,5-trimethoxybenzoyl)oxypropyl]-1,4-diazepan-1-yl]propyl 3,4,5-trimethoxybenzoate dihydrochloride

> <PUBCHEM_IUPAC_SYSTEMATIC_NAME>
3-[4-[3-(3,4,5-trimethoxyphenyl)carbonyloxypropyl]-1,4-diazepan-1-yl]propyl 3,4,5-trimethoxybenzoate dihydrochloride

> <PUBCHEM_IUPAC_TRADITIONAL_NAME>
3,4,5-trimethoxybenzoic acid 3-[4-[3-(3,4,5-trimethoxybenzoyl)oxypropyl]-1,4-diazepan-1-yl]propyl ester dihydrochloride

> <PUBCHEM_IUPAC_INCHI>
InChI=1S/C31H44N2O10.2ClH/c1-36-24-18-22(19-25(37-2)28(24)40-5)30(34)42-16-8-12-32-10-7-11-33(15-14-32)13-9-17-43-31(35)23-20-26(38-3)29(41-6)27(21-23)39-4;;/h18-21H,7-17H2,1-6H3;2*1H

> <PUBCHEM_IUPAC_INCHIKEY>
VILIWRRWAWKXRW-UHFFFAOYSA-N

> <PUBCHEM_EXACT_MASS>
676.252951

> <PUBCHEM_MOLECULAR_FORMULA>
C31H46Cl2N2O10

> <PUBCHEM_MOLECULAR_WEIGHT>
677.61034

> <PUBCHEM_OPENEYE_CAN_SMILES>
COC1=CC(=CC(=C1OC)OC)C(=O)OCCCN2CCCN(CC2)CCCOC(=O)C3=CC(=C(C(=C3)OC)OC)OC.Cl.Cl

> <PUBCHEM_OPENEYE_ISO_SMILES>
COC1=CC(=CC(=C1OC)OC)C(=O)OCCCN2CCCN(CC2)CCCOC(=O)C3=CC(=C(C(=C3)OC)OC)OC.Cl.Cl

> <PUBCHEM_CACTVS_TPSA>
115

> <PUBCHEM_MONOISOTOPIC_WEIGHT>
676.252951

> <PUBCHEM_TOTAL_CHARGE>
0

> <PUBCHEM_HEAVY_ATOM_COUNT>
45

> <PUBCHEM_ATOM_DEF_STEREO_COUNT>
0

> <PUBCHEM_ATOM_UDEF_STEREO_COUNT>
0

> <PUBCHEM_BOND_DEF_STEREO_COUNT>
0

> <PUBCHEM_BOND_UDEF_STEREO_COUNT>
0

> <PUBCHEM_ISOTOPIC_ATOM_COUNT>
0

> <PUBCHEM_COMPONENT_COUNT>
3

> <PUBCHEM_CACTVS_TAUTO_COUNT>
1

> <PUBCHEM_COORDINATE_TYPE>
1
5
255

> <PUBCHEM_BONDANNOTATIONS>
28  30  8
28  32  8
29  31  8
29  33  8
30  36  8
31  37  8
32  34  8
33  35  8
34  39  8
35  38  8
36  39  8
37  38  8

$$$$

