   Color/Form
        Prisms from benzene and petroleum ether
   from [1]HSDB

   Taste
        Taste Threshold in water - 0.5 ug/l.
   from [2]HSDB

   Boiling Point
        211 deg C
   from [3]HSDB

   Melting Point
        59 deg C
   from [4]HSDB

   Dissociation Constants
        pKa = 7.51
   from [5]HSDB

   Octanol/Water Partition Coefficient
        log Kow = 3.06
   from [6]HSDB

   Solubilities

     * Very soluble in ethanol, ethyl ether; soluble in benzene, petroleum
       ether
     * In water, 2,000 mg/L at 25 deg C

   from [7]HSDB

   Spectral Properties

     * MAX ABSORPTION (0.1 N HCL): 280 NM (LOG E= 3.41)
     * IR: 11 (Coblentz Society Spectral Collection)
     * UV: 9704 (Sadtler Research Laboratories Spectral Collection)
     * MASS: 5982 (NIST/EPA/MSDC Mass Spectral Database, 1990 version);
       1027 (Atlas of Mass Spectral Data, John Wiley & Sons, New York)

   from [8]HSDB

   Vapor Pressure
        0.0562 mm Hg at 25 deg C
   from [9]HSDB

   Other Chemical/Physical Properties

     * Henry's Law constant = 6.03X10-6 atm-cu m/mol at 25 deg C (est)
     * Hydroxyl radical reaction rate constant = 6.99X10-12 cu
       cm/molec-sec at 25 deg C (est)

   from [10]HSDB

   Computed Properties
   Molecular Weight                  163.00136 [g/mol]
   Molecular Formula                 C[6]H[4]Cl[2]O
   XLogP3                            3.1
   H-Bond Donor                      1
   H-Bond Acceptor                   1
   Rotatable Bond Count              0
   Tautomer Count                    3
   Exact Mass                        161.96392
   MonoIsotopic Mass                 161.96392
   Topological Polar Surface Area    20.2
   Heavy Atom Count                  9
   Formal Charge                     0
   Complexity                        97.1
   Isotope Atom Count                0
   Defined Atom Stereocenter Count   0
   Undefined Atom Stereocenter Count 0
   Defined Bond Stereocenter Count   0
   Undefined Bond Stereocenter Count 0
   Covalently-Bonded Unit Count      1
   Feature 3D Donor Count            1
   Feature 3D Ring Count             1
   Effective Rotor Count             0
   Conformer Sampling RMSD           0.4
   CID Conformer Count               [11]1

References

   1. http://toxnet.nlm.nih.gov/cgi-bin/sis/search/r?dbs+hsdb:@term+@rn+@rel+583-78-8
   2. http://toxnet.nlm.nih.gov/cgi-bin/sis/search/r?dbs+hsdb:@term+@rn+@rel+583-78-8
   3. http://toxnet.nlm.nih.gov/cgi-bin/sis/search/r?dbs+hsdb:@term+@rn+@rel+583-78-8
   4. http://toxnet.nlm.nih.gov/cgi-bin/sis/search/r?dbs+hsdb:@term+@rn+@rel+583-78-8
   5. http://toxnet.nlm.nih.gov/cgi-bin/sis/search/r?dbs+hsdb:@term+@rn+@rel+583-78-8
   6. http://toxnet.nlm.nih.gov/cgi-bin/sis/search/r?dbs+hsdb:@term+@rn+@rel+583-78-8
   7. http://toxnet.nlm.nih.gov/cgi-bin/sis/search/r?dbs+hsdb:@term+@rn+@rel+583-78-8
   8. http://toxnet.nlm.nih.gov/cgi-bin/sis/search/r?dbs+hsdb:@term+@rn+@rel+583-78-8
   9. http://toxnet.nlm.nih.gov/cgi-bin/sis/search/r?dbs+hsdb:@term+@rn+@rel+583-78-8
  10. http://toxnet.nlm.nih.gov/cgi-bin/sis/search/r?dbs+hsdb:@term+@rn+@rel+583-78-8
  11. http://pubchem.ncbi.nlm.nih.gov/vw3d/vw3d.cgi?cid=66
