   Color/Form
        Deliquescent crystalline mass
   from [1]HSDB

   Melting Point
        50 deg C
   from [2]HSDB

   Dissociation Constants
        pKa = 12.5
   from [3]HSDB

   Octanol/Water Partition Coefficient
        log Kow = -1.63 (est)
   from [4]HSDB

   Solubilities
        In water, 1,840 mg/L at 25 deg C
   from [5]HSDB

   Vapor Pressure
        2.2 mm Hg at 25 deg C (est)
   from [6]HSDB

   Other Chemical/Physical Properties

     * Henry's Law constant = 2.34X10-11 atm-cu m/mol at 25 deg C (est)
     * Hydroxyl radical reaction rate constant = 4.2X10-11 cu cm/molec-sec
       at 25 deg C (est)

   from [7]HSDB

   Computed Properties
   Molecular Weight                  59.0705 [g/mol]
   Molecular Formula                 CH[5]N[3]
   XLogP3-AA                         -1.3
   H-Bond Donor                      3
   H-Bond Acceptor                   1
   Rotatable Bond Count              0
   Exact Mass                        59.048347
   MonoIsotopic Mass                 59.048347
   Topological Polar Surface Area    75.9
   Heavy Atom Count                  4
   Formal Charge                     0
   Complexity                        26.3
   Isotope Atom Count                0
   Defined Atom Stereocenter Count   0
   Undefined Atom Stereocenter Count 0
   Defined Bond Stereocenter Count   0
   Undefined Bond Stereocenter Count 0
   Covalently-Bonded Unit Count      1
   Feature 3D Donor Count            3
   Feature 3D Cation Count           1
   Effective Rotor Count             0
   Conformer Sampling RMSD           0.4
   CID Conformer Count               [8]1

References

   1. http://toxnet.nlm.nih.gov/cgi-bin/sis/search/r?dbs+hsdb:@term+@rn+@rel+113-00-8
   2. http://toxnet.nlm.nih.gov/cgi-bin/sis/search/r?dbs+hsdb:@term+@rn+@rel+113-00-8
   3. http://toxnet.nlm.nih.gov/cgi-bin/sis/search/r?dbs+hsdb:@term+@rn+@rel+113-00-8
   4. http://toxnet.nlm.nih.gov/cgi-bin/sis/search/r?dbs+hsdb:@term+@rn+@rel+113-00-8
   5. http://toxnet.nlm.nih.gov/cgi-bin/sis/search/r?dbs+hsdb:@term+@rn+@rel+113-00-8
   6. http://toxnet.nlm.nih.gov/cgi-bin/sis/search/r?dbs+hsdb:@term+@rn+@rel+113-00-8
   7. http://toxnet.nlm.nih.gov/cgi-bin/sis/search/r?dbs+hsdb:@term+@rn+@rel+113-00-8
   8. http://pubchem.ncbi.nlm.nih.gov/vw3d/vw3d.cgi?cid=3520
