53297441
  -OEChem-07051213142D

 31 31  0     1  0  0  0  0  0999 V2000
    2.0000   -0.4050    0.0000 O   0  0  0  0  0  0  0  0  0  0  0  0
    5.4641    3.5950    0.0000 O   0  0  0  0  0  0  0  0  0  0  0  0
    3.7320    3.5950    0.0000 O   0  0  0  0  0  0  0  0  0  0  0  0
    4.5981    2.0950    0.0000 N   0  0  0  0  0  0  0  0  0  0  0  0
    3.7320    2.5950    0.0000 N   0  0  0  0  0  0  0  0  0  0  0  0
    3.7320   -3.4050    0.0000 N   0  0  0  0  0  0  0  0  0  0  0  0
    3.7320   -0.4050    0.0000 C   0  0  0  0  0  0  0  0  0  0  0  0
    3.7320    0.5950    0.0000 C   0  0  0  0  0  0  0  0  0  0  0  0
    2.8660   -0.9050    0.0000 C   0  0  3  0  0  0  0  0  0  0  0  0
    4.5981    1.0950    0.0000 C   0  0  0  0  0  0  0  0  0  0  0  0
    2.8660   -1.9050    0.0000 C   0  0  0  0  0  0  0  0  0  0  0  0
    2.0000   -2.4050    0.0000 C   0  0  0  0  0  0  0  0  0  0  0  0
    3.7320   -2.4050    0.0000 C   0  0  0  0  0  0  0  0  0  0  0  0
    5.4641    2.5950    0.0000 C   0  0  0  0  0  0  0  0  0  0  0  0
    2.0000   -3.4050    0.0000 C   0  0  0  0  0  0  0  0  0  0  0  0
    2.8660   -3.9050    0.0000 C   0  0  0  0  0  0  0  0  0  0  0  0
    3.9441   -0.9876    0.0000 H   0  0  0  0  0  0  0  0  0  0  0  0
    4.3426   -0.2973    0.0000 H   0  0  0  0  0  0  0  0  0  0  0  0
    3.5200    1.1776    0.0000 H   0  0  0  0  0  0  0  0  0  0  0  0
    3.1215    0.4873    0.0000 H   0  0  0  0  0  0  0  0  0  0  0  0
    2.8660   -0.2850    0.0000 H   0  0  0  0  0  0  0  0  0  0  0  0
    4.8101    0.5124    0.0000 H   0  0  0  0  0  0  0  0  0  0  0  0
    5.2087    1.2027    0.0000 H   0  0  0  0  0  0  0  0  0  0  0  0
    1.4631   -2.0950    0.0000 H   0  0  0  0  0  0  0  0  0  0  0  0
    2.0000    0.2150    0.0000 H   0  0  0  0  0  0  0  0  0  0  0  0
    4.2690   -2.0950    0.0000 H   0  0  0  0  0  0  0  0  0  0  0  0
    5.6762    2.0124    0.0000 H   0  0  0  0  0  0  0  0  0  0  0  0
    6.0747    2.7027    0.0000 H   0  0  0  0  0  0  0  0  0  0  0  0
    1.4631   -3.7150    0.0000 H   0  0  0  0  0  0  0  0  0  0  0  0
    2.8660   -4.5250    0.0000 H   0  0  0  0  0  0  0  0  0  0  0  0
    6.0010    3.9050    0.0000 H   0  0  0  0  0  0  0  0  0  0  0  0
  1  9  1  0  0  0  0
  1 25  1  0  0  0  0
  2 14  1  0  0  0  0
  2 31  1  0  0  0  0
  3  5  2  0  0  0  0
  4  5  1  0  0  0  0
  4 10  1  0  0  0  0
  4 14  1  0  0  0  0
  6 13  1  0  0  0  0
  6 16  2  0  0  0  0
  7  8  1  0  0  0  0
  7  9  1  0  0  0  0
  7 17  1  0  0  0  0
  7 18  1  0  0  0  0
  8 10  1  0  0  0  0
  8 19  1  0  0  0  0
  8 20  1  0  0  0  0
  9 11  1  0  0  0  0
  9 21  1  0  0  0  0
 10 22  1  0  0  0  0
 10 23  1  0  0  0  0
 11 12  1  0  0  0  0
 11 13  2  0  0  0  0
 12 15  2  0  0  0  0
 12 24  1  0  0  0  0
 13 26  1  0  0  0  0
 14 27  1  0  0  0  0
 14 28  1  0  0  0  0
 15 16  1  0  0  0  0
 15 29  1  0  0  0  0
 16 30  1  0  0  0  0
M  END
> <PUBCHEM_COMPOUND_CID>
53297441

> <PUBCHEM_COMPOUND_CANONICALIZED>
1

> <PUBCHEM_CACTVS_COMPLEXITY>
204

> <PUBCHEM_CACTVS_HBOND_ACCEPTOR>
6

> <PUBCHEM_CACTVS_HBOND_DONOR>
2

> <PUBCHEM_CACTVS_ROTATABLE_BOND>
6

> <PUBCHEM_CACTVS_SUBSKEYS>
AAADccBzMAAAAAAAAAAAAAAAAAAAAAAAAAAsAAAAAAAAAAABgAAAHgAMCAAADBThmgY8gJIIEgChAjBnRACCgCAxAiAY2CA4bJgINuLAkZGEcAhmwAHI2AewkIIOAAAAAAAAAAAAAAAAAAAAAAAAAAAAAA==

> <PUBCHEM_IUPAC_OPENEYE_NAME>
N-(hydroxymethyl)-N-[4-hydroxy-4-(3-pyridyl)butyl]nitrous amide

> <PUBCHEM_IUPAC_CAS_NAME>
N-(hydroxymethyl)-N-[4-hydroxy-4-(3-pyridinyl)butyl]nitrous amide

> <PUBCHEM_IUPAC_NAME>
N-(hydroxymethyl)-N-(4-hydroxy-4-pyridin-3-ylbutyl)nitrous amide

> <PUBCHEM_IUPAC_SYSTEMATIC_NAME>
N-(hydroxymethyl)-N-(4-oxidanyl-4-pyridin-3-yl-butyl)nitrous amide

> <PUBCHEM_IUPAC_TRADITIONAL_NAME>
N-[4-hydroxy-4-(3-pyridyl)butyl]-N-methylol-nitrous amide

> <PUBCHEM_IUPAC_INCHI>
InChI=1S/C10H15N3O3/c14-8-13(12-16)6-2-4-10(15)9-3-1-5-11-7-9/h1,3,5,7,10,14-15H,2,4,6,8H2

> <PUBCHEM_IUPAC_INCHIKEY>
UNFLQLWCJOTOPA-UHFFFAOYSA-N

> <PUBCHEM_XLOGP3_AA>
0.1

> <PUBCHEM_EXACT_MASS>
225.111341

> <PUBCHEM_MOLECULAR_FORMULA>
C10H15N3O3

> <PUBCHEM_MOLECULAR_WEIGHT>
225.2444

> <PUBCHEM_OPENEYE_CAN_SMILES>
C1=CC(=CN=C1)C(CCCN(CO)N=O)O

> <PUBCHEM_OPENEYE_ISO_SMILES>
C1=CC(=CN=C1)C(CCCN(CO)N=O)O

> <PUBCHEM_CACTVS_TPSA>
86

> <PUBCHEM_MONOISOTOPIC_WEIGHT>
225.111341

> <PUBCHEM_TOTAL_CHARGE>
0

> <PUBCHEM_HEAVY_ATOM_COUNT>
16

> <PUBCHEM_ATOM_DEF_STEREO_COUNT>
0

> <PUBCHEM_ATOM_UDEF_STEREO_COUNT>
1

> <PUBCHEM_BOND_DEF_STEREO_COUNT>
0

> <PUBCHEM_BOND_UDEF_STEREO_COUNT>
0

> <PUBCHEM_ISOTOPIC_ATOM_COUNT>
0

> <PUBCHEM_COMPONENT_COUNT>
1

> <PUBCHEM_CACTVS_TAUTO_COUNT>
1

> <PUBCHEM_COORDINATE_TYPE>
1
5
255

> <PUBCHEM_BONDANNOTATIONS>
9  1  3
11  12  8
11  13  8
12  15  8
15  16  8
6  13  8
6  16  8

$$$$

