115255
  -OEChem-07051213012D

 62 66  0     1  0  0  0  0  0999 V2000
   12.6445    2.8065    0.0000 O   0  0  0  0  0  0  0  0  0  0  0  0
    5.9945   -1.5011    0.0000 O   0  0  0  0  0  0  0  0  0  0  0  0
    5.1343    0.0022    0.0000 O   0  0  0  0  0  0  0  0  0  0  0  0
    4.2586   -2.4944    0.0000 O   0  0  0  0  0  0  0  0  0  0  0  0
    2.5304   -1.4877    0.0000 O   0  0  0  0  0  0  0  0  0  0  0  0
    2.5381    0.5122    0.0000 O   0  0  0  0  0  0  0  0  0  0  0  0
    3.4099    2.0089    0.0000 O   0  0  0  0  0  0  0  0  0  0  0  0
    5.1420    2.0022    0.0000 O   0  0  0  0  0  0  0  0  0  0  0  0
   11.3876    0.5512    0.0000 C   0  0  2  0  0  0  0  0  0  0  0  0
   11.3876    1.5512    0.0000 C   0  0  2  0  0  0  0  0  0  0  0  0
   10.5216    0.0512    0.0000 C   0  0  1  0  0  0  0  0  0  0  0  0
    9.6555    0.5512    0.0000 C   0  0  2  0  0  0  0  0  0  0  0  0
   10.5216    2.0512    0.0000 C   0  0  0  0  0  0  0  0  0  0  0  0
   12.3338    0.2465    0.0000 C   0  0  0  0  0  0  0  0  0  0  0  0
    9.6555    1.5512    0.0000 C   0  0  0  0  0  0  0  0  0  0  0  0
   10.5376   -0.9903    0.0000 C   0  0  0  0  0  0  0  0  0  0  0  0
   12.3338    1.8560    0.0000 C   0  0  0  0  0  0  0  0  0  0  0  0
   12.9174    1.0512    0.0000 C   0  0  0  0  0  0  0  0  0  0  0  0
   11.3876    2.5512    0.0000 C   0  0  0  0  0  0  0  0  0  0  0  0
    8.7455    0.0444    0.0000 C   0  0  0  0  0  0  0  0  0  0  0  0
    9.6396   -1.5180    0.0000 C   0  0  0  0  0  0  0  0  0  0  0  0
    8.7375   -0.9972    0.0000 C   0  0  0  0  0  0  0  0  0  0  0  0
    7.8187    0.6085    0.0000 C   0  0  0  0  0  0  0  0  0  0  0  0
    7.8021   -1.5469    0.0000 C   0  0  0  0  0  0  0  0  0  0  0  0
    6.8708    0.0805    0.0000 C   0  0  0  0  0  0  0  0  0  0  0  0
    6.8624   -1.0044    0.0000 C   0  0  0  0  0  0  0  0  0  0  0  0
    5.1304   -0.9978    0.0000 C   0  0  2  0  0  0  0  0  0  0  0  0
    4.2625   -1.4944    0.0000 C   0  0  1  0  0  0  0  0  0  0  0  0
    3.3984   -0.9911    0.0000 C   0  0  2  0  0  0  0  0  0  0  0  0
    3.4022    0.0089    0.0000 C   0  0  1  0  0  0  0  0  0  0  0  0
    4.2702    0.5056    0.0000 C   0  0  1  0  0  0  0  0  0  0  0  0
    4.2740    1.5056    0.0000 C   0  0  0  0  0  0  0  0  0  0  0  0
   11.4775   -0.2940    0.0000 H   0  0  0  0  0  0  0  0  0  0  0  0
   11.2609   -0.3681    0.0000 H   0  0  0  0  0  0  0  0  0  0  0  0
   10.3916    0.9762    0.0000 H   0  0  0  0  0  0  0  0  0  0  0  0
   10.9201    2.5262    0.0000 H   0  0  0  0  0  0  0  0  0  0  0  0
   10.1230    2.5262    0.0000 H   0  0  0  0  0  0  0  0  0  0  0  0
   12.0828   -0.3204    0.0000 H   0  0  0  0  0  0  0  0  0  0  0  0
   12.8712   -0.0627    0.0000 H   0  0  0  0  0  0  0  0  0  0  0  0
    9.4435    2.1338    0.0000 H   0  0  0  0  0  0  0  0  0  0  0  0
    9.0450    1.4436    0.0000 H   0  0  0  0  0  0  0  0  0  0  0  0
   10.7556   -1.5707    0.0000 H   0  0  0  0  0  0  0  0  0  0  0  0
   11.1468   -0.8748    0.0000 H   0  0  0  0  0  0  0  0  0  0  0  0
   13.3783    0.6365    0.0000 H   0  0  0  0  0  0  0  0  0  0  0  0
   13.3783    1.4660    0.0000 H   0  0  0  0  0  0  0  0  0  0  0  0
   12.0076    2.5512    0.0000 H   0  0  0  0  0  0  0  0  0  0  0  0
   11.3876    3.1712    0.0000 H   0  0  0  0  0  0  0  0  0  0  0  0
   10.7676    2.5512    0.0000 H   0  0  0  0  0  0  0  0  0  0  0  0
    9.2423   -1.9940    0.0000 H   0  0  0  0  0  0  0  0  0  0  0  0
   10.0405   -1.9909    0.0000 H   0  0  0  0  0  0  0  0  0  0  0  0
    7.8306    1.2284    0.0000 H   0  0  0  0  0  0  0  0  0  0  0  0
    7.8045   -2.1669    0.0000 H   0  0  0  0  0  0  0  0  0  0  0  0
    6.3375    0.3967    0.0000 H   0  0  0  0  0  0  0  0  0  0  0  0
    5.1280   -1.6178    0.0000 H   0  0  0  0  0  0  0  0  0  0  0  0
    3.7243   -1.8024    0.0000 H   0  0  0  0  0  0  0  0  0  0  0  0
    2.8626   -0.6790    0.0000 H   0  0  0  0  0  0  0  0  0  0  0  0
    2.8641   -0.2990    0.0000 H   0  0  0  0  0  0  0  0  0  0  0  0
    4.8083    0.8135    0.0000 H   0  0  0  0  0  0  0  0  0  0  0  0
    4.7943   -2.8065    0.0000 H   0  0  0  0  0  0  0  0  0  0  0  0
    2.5280   -2.1077    0.0000 H   0  0  0  0  0  0  0  0  0  0  0  0
    2.0000    0.2043    0.0000 H   0  0  0  0  0  0  0  0  0  0  0  0
    3.4123    2.6289    0.0000 H   0  0  0  0  0  0  0  0  0  0  0  0
  1 17  2  0  0  0  0
  2 26  1  0  0  0  0
 27  2  1  1  0  0  0
  3 27  1  0  0  0  0
  3 31  1  0  0  0  0
 28  4  1  6  0  0  0
  4 59  1  0  0  0  0
 29  5  1  1  0  0  0
  5 60  1  0  0  0  0
 30  6  1  6  0  0  0
  6 61  1  0  0  0  0
  7 32  1  0  0  0  0
  7 62  1  0  0  0  0
  8 32  2  0  0  0  0
  9 10  1  0  0  0  0
  9 11  1  0  0  0  0
  9 14  1  0  0  0  0
  9 33  1  6  0  0  0
 10 13  1  0  0  0  0
 10 17  1  0  0  0  0
 10 19  1  1  0  0  0
 11 12  1  0  0  0  0
 11 16  1  0  0  0  0
 11 34  1  1  0  0  0
 12 15  1  0  0  0  0
 12 20  1  0  0  0  0
 12 35  1  6  0  0  0
 13 15  1  0  0  0  0
 13 36  1  0  0  0  0
 13 37  1  0  0  0  0
 14 18  1  0  0  0  0
 14 38  1  0  0  0  0
 14 39  1  0  0  0  0
 15 40  1  0  0  0  0
 15 41  1  0  0  0  0
 16 21  1  0  0  0  0
 16 42  1  0  0  0  0
 16 43  1  0  0  0  0
 17 18  1  0  0  0  0
 18 44  1  0  0  0  0
 18 45  1  0  0  0  0
 19 46  1  0  0  0  0
 19 47  1  0  0  0  0
 19 48  1  0  0  0  0
 20 22  2  0  0  0  0
 20 23  1  0  0  0  0
 21 22  1  0  0  0  0
 21 49  1  0  0  0  0
 21 50  1  0  0  0  0
 22 24  1  0  0  0  0
 23 25  2  0  0  0  0
 23 51  1  0  0  0  0
 24 26  2  0  0  0  0
 24 52  1  0  0  0  0
 25 26  1  0  0  0  0
 25 53  1  0  0  0  0
 27 28  1  0  0  0  0
 27 54  1  0  0  0  0
 28 29  1  0  0  0  0
 28 55  1  0  0  0  0
 29 30  1  0  0  0  0
 29 56  1  0  0  0  0
 30 31  1  0  0  0  0
 30 57  1  0  0  0  0
 31 32  1  1  0  0  0
 31 58  1  0  0  0  0
M  END
> <PUBCHEM_COMPOUND_CID>
115255

> <PUBCHEM_COMPOUND_CANONICALIZED>
1

> <PUBCHEM_CACTVS_COMPLEXITY>
756

> <PUBCHEM_CACTVS_HBOND_ACCEPTOR>
8

> <PUBCHEM_CACTVS_HBOND_DONOR>
4

> <PUBCHEM_CACTVS_ROTATABLE_BOND>
3

> <PUBCHEM_CACTVS_SUBSKEYS>
AAADceB4PAAAAAAAAAAAAAAAAAAAAYAAAAA0YMEAAAAAAGDBAAAAGgAACAAADxSwmAMyDoAABgCIAqDSCAICCAAgIAAIiAFGCIgdNjaEMR6ieCCl4BEPqAfK7PzPoAABAAAQAADAAAYAACAAAAAACAAAAA==

> <PUBCHEM_IUPAC_OPENEYE_NAME>
(2S,3S,4S,5R,6S)-3,4,5-trihydroxy-6-[[(8R,9S,13S,14S)-13-methyl-17-oxo-7,8,9,11,12,14,15,16-octahydro-6H-cyclopenta[a]phenanthren-3-yl]oxy]tetrahydropyran-2-carboxylic acid

> <PUBCHEM_IUPAC_CAS_NAME>
(2S,3S,4S,5R,6S)-3,4,5-trihydroxy-6-[[(8R,9S,13S,14S)-13-methyl-17-oxo-7,8,9,11,12,14,15,16-octahydro-6H-cyclopenta[a]phenanthren-3-yl]oxy]-2-oxanecarboxylic acid

> <PUBCHEM_IUPAC_NAME>
(2S,3S,4S,5R,6S)-3,4,5-trihydroxy-6-[[(8R,9S,13S,14S)-13-methyl-17-oxo-7,8,9,11,12,14,15,16-octahydro-6H-cyclopenta[a]phenanthren-3-yl]oxy]oxane-2-carboxylic acid

> <PUBCHEM_IUPAC_SYSTEMATIC_NAME>
(2S,3S,4S,5R,6S)-6-[[(8R,9S,13S,14S)-13-methyl-17-oxidanylidene-7,8,9,11,12,14,15,16-octahydro-6H-cyclopenta[a]phenanthren-3-yl]oxy]-3,4,5-tris(oxidanyl)oxane-2-carboxylic acid

> <PUBCHEM_IUPAC_TRADITIONAL_NAME>
(2S,3S,4S,5R,6S)-3,4,5-trihydroxy-6-[[(8R,9S,13S,14S)-17-keto-13-methyl-7,8,9,11,12,14,15,16-octahydro-6H-cyclopenta[a]phenanthren-3-yl]oxy]tetrahydropyran-2-carboxylic acid

> <PUBCHEM_IUPAC_INCHI>
InChI=1S/C24H30O8/c1-24-9-8-14-13-5-3-12(10-11(13)2-4-15(14)16(24)6-7-17(24)25)31-23-20(28)18(26)19(27)21(32-23)22(29)30/h3,5,10,14-16,18-21,23,26-28H,2,4,6-9H2,1H3,(H,29,30)/t14-,15-,16+,18+,19+,20-,21+,23-,24+/m1/s1

> <PUBCHEM_IUPAC_INCHIKEY>
FJAZVHYPASAQKM-JBAURARKSA-N

> <PUBCHEM_XLOGP3>
1.6

> <PUBCHEM_EXACT_MASS>
446.194068

> <PUBCHEM_MOLECULAR_FORMULA>
C24H30O8

> <PUBCHEM_MOLECULAR_WEIGHT>
446.4902

> <PUBCHEM_OPENEYE_CAN_SMILES>
CC12CCC3C(C1CCC2=O)CCC4=C3C=CC(=C4)OC5C(C(C(C(O5)C(=O)O)O)O)O

> <PUBCHEM_OPENEYE_ISO_SMILES>
C[C@]12CC[C@H]3[C@H]([C@@H]1CCC2=O)CCC4=C3C=CC(=C4)O[C@H]5[C@@H]([C@H]([C@@H]([C@H](O5)C(=O)O)O)O)O

> <PUBCHEM_CACTVS_TPSA>
134

> <PUBCHEM_MONOISOTOPIC_WEIGHT>
446.194068

> <PUBCHEM_TOTAL_CHARGE>
0

> <PUBCHEM_HEAVY_ATOM_COUNT>
32

> <PUBCHEM_ATOM_DEF_STEREO_COUNT>
9

> <PUBCHEM_ATOM_UDEF_STEREO_COUNT>
0

> <PUBCHEM_BOND_DEF_STEREO_COUNT>
0

> <PUBCHEM_BOND_UDEF_STEREO_COUNT>
0

> <PUBCHEM_ISOTOPIC_ATOM_COUNT>
0

> <PUBCHEM_COMPONENT_COUNT>
1

> <PUBCHEM_CACTVS_TAUTO_COUNT>
2

> <PUBCHEM_COORDINATE_TYPE>
1
5
255

> <PUBCHEM_BONDANNOTATIONS>
10  19  5
11  34  5
12  35  6
27  2  5
20  22  8
20  23  8
22  24  8
23  25  8
24  26  8
25  26  8
31  32  5
28  4  6
29  5  5
30  6  6
9  33  6

$$$$

