5281746
  -OEChem-07051212592D

 51 52  0     1  0  0  0  0  0999 V2000
    4.9344    0.2419    0.0000 O   0  0  0  0  0  0  0  0  0  0  0  0
    8.4299    0.0405    0.0000 O   0  0  0  0  0  0  0  0  0  0  0  0
    3.2872    0.7772    0.0000 O   0  0  0  0  0  0  0  0  0  0  0  0
    8.0727   -1.6543    0.0000 O   0  0  0  0  0  0  0  0  0  0  0  0
   11.3654   -0.5781    0.0000 O   0  0  0  0  0  0  0  0  0  0  0  0
    6.1945    2.5020    0.0000 N   0  0  3  0  0  0  0  0  0  0  0  0
    6.1945    1.5020    0.0000 C   0  0  2  0  0  0  0  0  0  0  0  0
    7.1407    1.1973    0.0000 C   0  0  2  0  0  0  0  0  0  0  0  0
    5.2435    1.1930    0.0000 C   0  0  1  0  0  0  0  0  0  0  0  0
    7.7244    2.0020    0.0000 C   0  0  0  0  0  0  0  0  0  0  0  0
    7.1407    2.8067    0.0000 C   0  0  0  0  0  0  0  0  0  0  0  0
    5.2435    2.8110    0.0000 C   0  0  0  0  0  0  0  0  0  0  0  0
    4.6557    2.0020    0.0000 C   0  0  0  0  0  0  0  0  0  0  0  0
    7.4514    0.2468    0.0000 C   0  0  0  0  0  0  0  0  0  0  0  0
    3.9563    0.0340    0.0000 C   0  0  0  0  0  0  0  0  0  0  0  0
    8.7406   -0.9100    0.0000 C   0  0  0  0  0  0  0  0  0  0  0  0
    3.6473   -0.9170    0.0000 C   0  0  0  0  0  0  0  0  0  0  0  0
    9.7191   -1.1162    0.0000 C   0  0  0  0  0  0  0  0  0  0  0  0
    4.3164   -1.6602    0.0000 C   0  0  0  0  0  0  0  0  0  0  0  0
    2.6691   -1.1249    0.0000 C   0  0  0  0  0  0  0  0  0  0  0  0
   10.3869   -0.3719    0.0000 C   0  0  0  0  0  0  0  0  0  0  0  0
   10.0297   -2.0667    0.0000 C   0  0  0  0  0  0  0  0  0  0  0  0
    2.0000   -0.3818    0.0000 C   0  0  0  0  0  0  0  0  0  0  0  0
    9.3619   -2.8110    0.0000 C   0  0  0  0  0  0  0  0  0  0  0  0
    6.1956    0.6520    0.0000 H   0  0  0  0  0  0  0  0  0  0  0  0
    7.7532    1.1011    0.0000 H   0  0  0  0  0  0  0  0  0  0  0  0
    4.6311    1.0960    0.0000 H   0  0  0  0  0  0  0  0  0  0  0  0
    8.1852    1.5873    0.0000 H   0  0  0  0  0  0  0  0  0  0  0  0
    8.1852    2.4167    0.0000 H   0  0  0  0  0  0  0  0  0  0  0  0
    7.6781    3.1160    0.0000 H   0  0  0  0  0  0  0  0  0  0  0  0
    6.8897    3.3736    0.0000 H   0  0  0  0  0  0  0  0  0  0  0  0
    5.4956    3.3774    0.0000 H   0  0  0  0  0  0  0  0  0  0  0  0
    4.7065    3.1210    0.0000 H   0  0  0  0  0  0  0  0  0  0  0  0
    4.1949    2.4169    0.0000 H   0  0  0  0  0  0  0  0  0  0  0  0
    4.1949    1.5872    0.0000 H   0  0  0  0  0  0  0  0  0  0  0  0
    6.8376    0.1594    0.0000 H   0  0  0  0  0  0  0  0  0  0  0  0
    7.4308   -0.3729    0.0000 H   0  0  0  0  0  0  0  0  0  0  0  0
    3.8557   -2.0750    0.0000 H   0  0  0  0  0  0  0  0  0  0  0  0
    4.7313   -2.1209    0.0000 H   0  0  0  0  0  0  0  0  0  0  0  0
    4.7772   -1.2453    0.0000 H   0  0  0  0  0  0  0  0  0  0  0  0
    2.4775   -1.7146    0.0000 H   0  0  0  0  0  0  0  0  0  0  0  0
   10.6182    0.2034    0.0000 H   0  0  0  0  0  0  0  0  0  0  0  0
    9.8606   -0.0443    0.0000 H   0  0  0  0  0  0  0  0  0  0  0  0
   10.6364   -2.1946    0.0000 H   0  0  0  0  0  0  0  0  0  0  0  0
    2.4608    0.0331    0.0000 H   0  0  0  0  0  0  0  0  0  0  0  0
    1.5851    0.0789    0.0000 H   0  0  0  0  0  0  0  0  0  0  0  0
    1.5392   -0.7967    0.0000 H   0  0  0  0  0  0  0  0  0  0  0  0
    8.9004   -2.3970    0.0000 H   0  0  0  0  0  0  0  0  0  0  0  0
    8.9478   -3.2725    0.0000 H   0  0  0  0  0  0  0  0  0  0  0  0
    9.8234   -3.2251    0.0000 H   0  0  0  0  0  0  0  0  0  0  0  0
   11.7795   -0.1167    0.0000 H   0  0  0  0  0  0  0  0  0  0  0  0
  9  1  1  6  0  0  0
  1 15  1  0  0  0  0
  2 14  1  0  0  0  0
  2 16  1  0  0  0  0
  3 15  2  0  0  0  0
  4 16  2  0  0  0  0
  5 21  1  0  0  0  0
  5 51  1  0  0  0  0
  6  7  1  0  0  0  0
  6 11  1  0  0  0  0
  6 12  1  0  0  0  0
  7  8  1  0  0  0  0
  7  9  1  0  0  0  0
  7 25  1  1  0  0  0
  8 10  1  0  0  0  0
  8 14  1  6  0  0  0
  8 26  1  0  0  0  0
  9 13  1  0  0  0  0
  9 27  1  0  0  0  0
 10 11  1  0  0  0  0
 10 28  1  0  0  0  0
 10 29  1  0  0  0  0
 11 30  1  0  0  0  0
 11 31  1  0  0  0  0
 12 13  1  0  0  0  0
 12 32  1  0  0  0  0
 12 33  1  0  0  0  0
 13 34  1  0  0  0  0
 13 35  1  0  0  0  0
 14 36  1  0  0  0  0
 14 37  1  0  0  0  0
 15 17  1  0  0  0  0
 16 18  1  0  0  0  0
 17 19  1  0  0  0  0
 17 20  2  0  0  0  0
 18 21  1  0  0  0  0
 18 22  2  0  0  0  0
 19 38  1  0  0  0  0
 19 39  1  0  0  0  0
 19 40  1  0  0  0  0
 20 23  1  0  0  0  0
 20 41  1  0  0  0  0
 21 42  1  0  0  0  0
 21 43  1  0  0  0  0
 22 24  1  0  0  0  0
 22 44  1  0  0  0  0
 23 45  1  0  0  0  0
 23 46  1  0  0  0  0
 23 47  1  0  0  0  0
 24 48  1  0  0  0  0
 24 49  1  0  0  0  0
 24 50  1  0  0  0  0
M  END
> <PUBCHEM_COMPOUND_CID>
5281746

> <PUBCHEM_COMPOUND_CANONICALIZED>
1

> <PUBCHEM_CACTVS_COMPLEXITY>
540

> <PUBCHEM_CACTVS_HBOND_ACCEPTOR>
6

> <PUBCHEM_CACTVS_HBOND_DONOR>
1

> <PUBCHEM_CACTVS_ROTATABLE_BOND>
8

> <PUBCHEM_CACTVS_SUBSKEYS>
AAADceB6OAAAAAAAAAAAAAAAAAAAAWLAAAAAAAAAAAAWAAAAAAAAHgAACAAADTzhgAYCCAMABgCIAiDSCAAAAAAAAAAACAEIAEACFAYAoQAHUAAHIACQMYHw0AIOAAAAAAAAAAAAAAAAAAAAAAAAAAAAAA==

> <PUBCHEM_IUPAC_OPENEYE_NAME>
[(1S,7R,8R)-7-[(Z)-2-methylbut-2-enoyl]oxy-2,3,5,6,7,8-hexahydro-1H-pyrrolizin-1-yl]methyl (Z)-2-(hydroxymethyl)but-2-enoate

> <PUBCHEM_IUPAC_CAS_NAME>
(Z)-2-(hydroxymethyl)-2-butenoic acid [(1S,7R,8R)-7-[(Z)-2-methyl-1-oxobut-2-enoxy]-2,3,5,6,7,8-hexahydro-1H-pyrrolizin-1-yl]methyl ester

> <PUBCHEM_IUPAC_NAME>
[(1S,7R,8R)-7-[(Z)-2-methylbut-2-enoyl]oxy-2,3,5,6,7,8-hexahydro-1H-pyrrolizin-1-yl]methyl (Z)-2-(hydroxymethyl)but-2-enoate

> <PUBCHEM_IUPAC_SYSTEMATIC_NAME>
[(1S,7R,8R)-7-[(Z)-2-methylbut-2-enoyl]oxy-2,3,5,6,7,8-hexahydro-1H-pyrrolizin-1-yl]methyl (Z)-2-(hydroxymethyl)but-2-enoate

> <PUBCHEM_IUPAC_TRADITIONAL_NAME>
(Z)-2-methylolbut-2-enoic acid [(1S,7R,8R)-7-[(Z)-2-methylbut-2-enoyl]oxypyrrolizidin-1-yl]methyl ester

> <PUBCHEM_IUPAC_INCHI>
InChI=1S/C18H27NO5/c1-4-12(3)17(21)24-15-7-9-19-8-6-14(16(15)19)11-23-18(22)13(5-2)10-20/h4-5,14-16,20H,6-11H2,1-3H3/b12-4-,13-5-/t14-,15-,16-/m1/s1

> <PUBCHEM_IUPAC_INCHIKEY>
YMUQRQKYYOWGPN-SLEGRLQASA-N

> <PUBCHEM_XLOGP3_AA>
1.8

> <PUBCHEM_EXACT_MASS>
337.188923

> <PUBCHEM_MOLECULAR_FORMULA>
C18H27NO5

> <PUBCHEM_MOLECULAR_WEIGHT>
337.41068

> <PUBCHEM_OPENEYE_CAN_SMILES>
CC=C(C)C(=O)OC1CCN2C1C(CC2)COC(=O)C(=CC)CO

> <PUBCHEM_OPENEYE_ISO_SMILES>
C/C=C(/C)\C(=O)O[C@@H]1CCN2[C@@H]1[C@H](CC2)COC(=O)/C(=C\C)/CO

> <PUBCHEM_CACTVS_TPSA>
76.1

> <PUBCHEM_MONOISOTOPIC_WEIGHT>
337.188923

> <PUBCHEM_TOTAL_CHARGE>
0

> <PUBCHEM_HEAVY_ATOM_COUNT>
24

> <PUBCHEM_ATOM_DEF_STEREO_COUNT>
3

> <PUBCHEM_ATOM_UDEF_STEREO_COUNT>
0

> <PUBCHEM_BOND_DEF_STEREO_COUNT>
2

> <PUBCHEM_BOND_UDEF_STEREO_COUNT>
0

> <PUBCHEM_ISOTOPIC_ATOM_COUNT>
0

> <PUBCHEM_COMPONENT_COUNT>
1

> <PUBCHEM_CACTVS_TAUTO_COUNT>
1

> <PUBCHEM_COORDINATE_TYPE>
1
5
255

> <PUBCHEM_BONDANNOTATIONS>
9  1  6
7  25  5
8  14  6

$$$$

