   Color/Form

     * SYRUPY, RHOMBIC PLATES
     * CLEAR, COLORLESS SYRUPY LIQUID
     * Clear, colorless, ... syrupy liquid or solid (below 64 degrees
       F)[Note: The solid form melts above 64 degrees F but the liquid
       form freezes at a much lower temperature].

   from [1]HSDB

   Odor

     * MILD ODOR
     * ... Odorless ...

   from [2]HSDB

   Taste
        SWEET WARM TASTE; APPROX 0.6 TIMES AS SWEET AS CANE SUGAR
   from [3]HSDB

   Boiling Point
        290.0 DEG C @ 760 MM HG (DECOMP)
   from [4]HSDB

   Melting Point
        20 DEG C
   from [5]HSDB

   Density/Specific Gravity
        1.2613 @ 20 DEG C/4 DEG C
   from [6]HSDB

   Dissociation Constants
        pKa = 14.4
   from [7]HSDB

   Heat of Combustion
        -4310 cal/g
   from [8]HSDB

   Heat of Vaporization
        160 cal/g
   from [9]HSDB

   Octanol/Water Partition Coefficient
        log Kow = -1.76
   from [10]HSDB

   pH
        NEUTRAL TO LITMUS
   from [11]HSDB

   Solubilities

     * SOL IN ALL PROPORTIONS IN WATER, ALC
     * 1 PART DISSOLVES IN 11 PARTS ETHYL ACETATE, IN APPROX 500 PARTS
       ETHYL ETHER. INSOL IN BENZENE, CHLOROFORM, CARBON TETRACHLORIDE,
       CARBON DISULFIDE, PETROLEUM ETHER, OILS.
     * SOLUBILITY IN ACETONE: 1 G IN 15 ML
     * Insol in fixed and volatile oils

   from [12]HSDB

   Spectral Properties

     * INDEX OF REFRACTION: 1.4730 @ 25 DEG C/D
     * MAX ABSORPTION (UNDILUTED): 270 NM (LOG E= -1.2); SADTLER REF
       NUMBER: 169 (IR, PRISM)
     * IR: 10001 (Sadtler Research Laboratories IR Grating Collection)
     * UV: 3-12 (Organic Electronic Spectral Data, Phillips et al, John
       Wiley & Sons, New York)
     * NMR: 4979 (Sadtler Research Laboratories Spectral Collection)
     * MASS: 188 (Atlas of Mass Spectral Data, John Wiley & Sons, New
       York)

   from [13]HSDB

   Vapor Density
        3.17 (Air = 1)
   from [14]HSDB

   Vapor Pressure
        1.58X10-4 mm Hg at 25 deg C
   from [15]HSDB

   Viscosity
        954 CENTIPOISES @ 25 DEG C; 17 CENTIPOISES @ 25 DEG C (70% SOLN)
   from [16]HSDB

   Other Chemical/Physical Properties

     * ABSORBS MOISTURE FROM AIR; ALSO ABSORBS HYDROGEN SULFIDE,
       HYDROCYANIC ACID, SULFUR DIOXIDE.
     * SOLIDIFIES AFTER PROLONGED COOLING @ 0 DEG C FORMING SHINY
       ORTHORHOMBIC CRYSTALS
     * FP OF AQ SOLN WT/WT: 10% -1.6 DEG C
     * Heat of fusion: 47.95 cal/g
     * Heat capacity: 218.9 J/mol K at 25 deg C
     * Heat of Solution: (est) -9 Btu/lb = -5 cal/g = -0.2X10+5 J/kg
     * A trihydric (polyhydric) alcohol; hygroscopic; density (anhydrous):
       1.2653; density (USP): >1.249 at 25 deg C/25 deg C; density
       (dynamite): 1.2620
     * 0.0025 MM HG @ 50 DEG C
     * Henry's Law Constant = 1.73X10-8 atm cu-m/mol @ 25 deg C

   from [17]HSDB

   Computed Properties
   Molecular Weight                  92.09382 [g/mol]
   Molecular Formula                 C[3]H[8]O[3]
   XLogP3                            -1.8
   H-Bond Donor                      3
   H-Bond Acceptor                   3
   Rotatable Bond Count              2
   Exact Mass                        92.047344
   MonoIsotopic Mass                 92.047344
   Topological Polar Surface Area    60.7
   Heavy Atom Count                  6
   Formal Charge                     0
   Complexity                        25.2
   Isotope Atom Count                0
   Defined Atom Stereocenter Count   0
   Undefined Atom Stereocenter Count 0
   Defined Bond Stereocenter Count   0
   Undefined Bond Stereocenter Count 0
   Covalently-Bonded Unit Count      1
   Feature 3D Acceptor Count         3
   Feature 3D Donor Count            3
   Effective Rotor Count             2
   Conformer Sampling RMSD           0.4
   CID Conformer Count               [18]9

References

   1. http://toxnet.nlm.nih.gov/cgi-bin/sis/search/r?dbs+hsdb:@term+@rn+@rel+56-81-5
   2. http://toxnet.nlm.nih.gov/cgi-bin/sis/search/r?dbs+hsdb:@term+@rn+@rel+56-81-5
   3. http://toxnet.nlm.nih.gov/cgi-bin/sis/search/r?dbs+hsdb:@term+@rn+@rel+56-81-5
   4. http://toxnet.nlm.nih.gov/cgi-bin/sis/search/r?dbs+hsdb:@term+@rn+@rel+56-81-5
   5. http://toxnet.nlm.nih.gov/cgi-bin/sis/search/r?dbs+hsdb:@term+@rn+@rel+56-81-5
   6. http://toxnet.nlm.nih.gov/cgi-bin/sis/search/r?dbs+hsdb:@term+@rn+@rel+56-81-5
   7. http://toxnet.nlm.nih.gov/cgi-bin/sis/search/r?dbs+hsdb:@term+@rn+@rel+56-81-5
   8. http://toxnet.nlm.nih.gov/cgi-bin/sis/search/r?dbs+hsdb:@term+@rn+@rel+56-81-5
   9. http://toxnet.nlm.nih.gov/cgi-bin/sis/search/r?dbs+hsdb:@term+@rn+@rel+56-81-5
  10. http://toxnet.nlm.nih.gov/cgi-bin/sis/search/r?dbs+hsdb:@term+@rn+@rel+56-81-5
  11. http://toxnet.nlm.nih.gov/cgi-bin/sis/search/r?dbs+hsdb:@term+@rn+@rel+56-81-5
  12. http://toxnet.nlm.nih.gov/cgi-bin/sis/search/r?dbs+hsdb:@term+@rn+@rel+56-81-5
  13. http://toxnet.nlm.nih.gov/cgi-bin/sis/search/r?dbs+hsdb:@term+@rn+@rel+56-81-5
  14. http://toxnet.nlm.nih.gov/cgi-bin/sis/search/r?dbs+hsdb:@term+@rn+@rel+56-81-5
  15. http://toxnet.nlm.nih.gov/cgi-bin/sis/search/r?dbs+hsdb:@term+@rn+@rel+56-81-5
  16. http://toxnet.nlm.nih.gov/cgi-bin/sis/search/r?dbs+hsdb:@term+@rn+@rel+56-81-5
  17. http://toxnet.nlm.nih.gov/cgi-bin/sis/search/r?dbs+hsdb:@term+@rn+@rel+56-81-5
  18. http://pubchem.ncbi.nlm.nih.gov/vw3d/vw3d.cgi?cid=753
