9796
  -OEChem-06261204042D

 15 15  0     0  0  0  0  0  0999 V2000
    2.0000   -0.0600    0.0000 F   0  0  0  0  0  0  0  0  0  0  0  0
    5.4641   -0.0600    0.0000 F   0  0  0  0  0  0  0  0  0  0  0  0
    4.5981    1.4400    0.0000 O   0  0  0  0  0  0  0  0  0  0  0  0
    2.8660    1.4400    0.0000 O   0  0  0  0  0  0  0  0  0  0  0  0
    3.7320   -0.0600    0.0000 C   0  0  0  0  0  0  0  0  0  0  0  0
    2.8660   -0.5600    0.0000 C   0  0  0  0  0  0  0  0  0  0  0  0
    4.5981   -0.5600    0.0000 C   0  0  0  0  0  0  0  0  0  0  0  0
    2.8660   -1.5600    0.0000 C   0  0  0  0  0  0  0  0  0  0  0  0
    4.5981   -1.5600    0.0000 C   0  0  0  0  0  0  0  0  0  0  0  0
    3.7320   -2.0600    0.0000 C   0  0  0  0  0  0  0  0  0  0  0  0
    3.7320    0.9400    0.0000 C   0  0  0  0  0  0  0  0  0  0  0  0
    2.3291   -1.8700    0.0000 H   0  0  0  0  0  0  0  0  0  0  0  0
    5.1350   -1.8700    0.0000 H   0  0  0  0  0  0  0  0  0  0  0  0
    3.7320   -2.6800    0.0000 H   0  0  0  0  0  0  0  0  0  0  0  0
    4.5981    2.0600    0.0000 H   0  0  0  0  0  0  0  0  0  0  0  0
  1  6  1  0  0  0  0
  2  7  1  0  0  0  0
  3 11  1  0  0  0  0
  3 15  1  0  0  0  0
  4 11  2  0  0  0  0
  5  6  2  0  0  0  0
  5  7  1  0  0  0  0
  5 11  1  0  0  0  0
  6  8  1  0  0  0  0
  7  9  2  0  0  0  0
  8 10  2  0  0  0  0
  8 12  1  0  0  0  0
  9 10  1  0  0  0  0
  9 13  1  0  0  0  0
 10 14  1  0  0  0  0
M  END
> <PUBCHEM_COMPOUND_CID>
9796

> <PUBCHEM_COMPOUND_CANONICALIZED>
1

> <PUBCHEM_CACTVS_COMPLEXITY>
151

> <PUBCHEM_CACTVS_HBOND_ACCEPTOR>
4

> <PUBCHEM_CACTVS_HBOND_DONOR>
1

> <PUBCHEM_CACTVS_ROTATABLE_BOND>
1

> <PUBCHEM_CACTVS_SUBSKEYS>
AAADcYBgMYAAAAAAAAAAAAAAAAAAAAAAAAAwAAAAAAAAAAABAAAAGwAACAAADACAmAgwCIAAAgCIAiDSCAACAAAkAAAIiAEACMgIJjKAFRCAcQAkwAEImQeIyCCOAAAAAAAAAAAAAAAAAAAAAAAAAAAAAA==

> <PUBCHEM_IUPAC_OPENEYE_NAME>
2,6-difluorobenzoic acid

> <PUBCHEM_IUPAC_CAS_NAME>
2,6-difluorobenzoic acid

> <PUBCHEM_IUPAC_NAME>
2,6-difluorobenzoic acid

> <PUBCHEM_IUPAC_SYSTEMATIC_NAME>
2,6-bis(fluoranyl)benzoic acid

> <PUBCHEM_IUPAC_TRADITIONAL_NAME>
2,6-difluorobenzoic acid

> <PUBCHEM_IUPAC_INCHI>
InChI=1S/C7H4F2O2/c8-4-2-1-3-5(9)6(4)7(10)11/h1-3H,(H,10,11)

> <PUBCHEM_IUPAC_INCHIKEY>
ONOTYLMNTZNAQZ-UHFFFAOYSA-N

> <PUBCHEM_XLOGP3>
1.6

> <PUBCHEM_EXACT_MASS>
158.017936

> <PUBCHEM_MOLECULAR_FORMULA>
C7H4F2O2

> <PUBCHEM_MOLECULAR_WEIGHT>
158.102266

> <PUBCHEM_OPENEYE_CAN_SMILES>
C1=CC(=C(C(=C1)F)C(=O)O)F

> <PUBCHEM_OPENEYE_ISO_SMILES>
C1=CC(=C(C(=C1)F)C(=O)O)F

> <PUBCHEM_CACTVS_TPSA>
37.3

> <PUBCHEM_MONOISOTOPIC_WEIGHT>
158.017936

> <PUBCHEM_TOTAL_CHARGE>
0

> <PUBCHEM_HEAVY_ATOM_COUNT>
11

> <PUBCHEM_ATOM_DEF_STEREO_COUNT>
0

> <PUBCHEM_ATOM_UDEF_STEREO_COUNT>
0

> <PUBCHEM_BOND_DEF_STEREO_COUNT>
0

> <PUBCHEM_BOND_UDEF_STEREO_COUNT>
0

> <PUBCHEM_ISOTOPIC_ATOM_COUNT>
0

> <PUBCHEM_COMPONENT_COUNT>
1

> <PUBCHEM_CACTVS_TAUTO_COUNT>
1

> <PUBCHEM_COORDINATE_TYPE>
1
5
255

> <PUBCHEM_BONDANNOTATIONS>
5  6  8
5  7  8
6  8  8
7  9  8
8  10  8
9  10  8

$$$$

