46173973
  -OEChem-07051213102D

 54 57  0     1  0  0  0  0  0999 V2000
    4.2690   -0.6121    0.0000 O   0  0  0  0  0  0  0  0  0  0  0  0
    6.0010   -0.6121    0.0000 O   0  0  0  0  0  0  0  0  0  0  0  0
    4.2690   -3.6121    0.0000 O   0  0  0  0  0  0  0  0  0  0  0  0
    2.5369   -2.6121    0.0000 O   0  0  0  0  0  0  0  0  0  0  0  0
    6.0010   -2.6121    0.0000 O   0  0  0  0  0  0  0  0  0  0  0  0
    7.7610    2.4226    0.0000 O   0  0  0  0  0  0  0  0  0  0  0  0
    2.5369    0.3879    0.0000 O   0  0  0  0  0  0  0  0  0  0  0  0
    4.2690    0.3879    0.0000 O   0  0  0  0  0  0  0  0  0  0  0  0
    7.7494   -0.6467    0.0000 O   0  0  0  0  0  0  0  0  0  0  0  0
    4.2690    2.3879    0.0000 O   0  0  0  0  0  0  0  0  0  0  0  0
   12.1234    3.9221    0.0000 O   0  0  0  0  0  0  0  0  0  0  0  0
    4.2690   -2.6121    0.0000 C   0  0  1  0  0  0  0  0  0  0  0  0
    3.4030   -2.1121    0.0000 C   0  0  1  0  0  0  0  0  0  0  0  0
    5.1350   -2.1121    0.0000 C   0  0  2  0  0  0  0  0  0  0  0  0
    3.4030   -1.1121    0.0000 C   0  0  1  0  0  0  0  0  0  0  0  0
    5.1350   -1.1121    0.0000 C   0  0  1  0  0  0  0  0  0  0  0  0
    2.5369   -0.6121    0.0000 C   0  0  0  0  0  0  0  0  0  0  0  0
    6.0010    0.3879    0.0000 C   0  0  0  0  0  0  0  0  0  0  0  0
    6.8671    0.8879    0.0000 C   0  0  0  0  0  0  0  0  0  0  0  0
    8.6671    1.9087    0.0000 C   0  0  1  0  0  0  0  0  0  0  0  0
    8.6671    0.8671    0.0000 C   0  0  0  0  0  0  0  0  0  0  0  0
    6.8671    1.8879    0.0000 C   0  0  0  0  0  0  0  0  0  0  0  0
    7.7610    0.3533    0.0000 C   0  0  0  0  0  0  0  0  0  0  0  0
    5.1350    0.8879    0.0000 C   0  0  0  0  0  0  0  0  0  0  0  0
    9.5312    2.4121    0.0000 C   0  0  0  0  0  0  0  0  0  0  0  0
    6.0010    2.3879    0.0000 C   0  0  0  0  0  0  0  0  0  0  0  0
    5.1350    1.8879    0.0000 C   0  0  0  0  0  0  0  0  0  0  0  0
   10.3991    1.9154    0.0000 C   0  0  0  0  0  0  0  0  0  0  0  0
    9.5273    3.4121    0.0000 C   0  0  0  0  0  0  0  0  0  0  0  0
   11.2632    2.4188    0.0000 C   0  0  0  0  0  0  0  0  0  0  0  0
   10.3914    3.9154    0.0000 C   0  0  0  0  0  0  0  0  0  0  0  0
   11.2593    3.4187    0.0000 C   0  0  0  0  0  0  0  0  0  0  0  0
    4.8059   -2.9221    0.0000 H   0  0  0  0  0  0  0  0  0  0  0  0
    3.4030   -2.7321    0.0000 H   0  0  0  0  0  0  0  0  0  0  0  0
    5.1350   -2.7321    0.0000 H   0  0  0  0  0  0  0  0  0  0  0  0
    3.4030   -0.4921    0.0000 H   0  0  0  0  0  0  0  0  0  0  0  0
    5.6720   -1.4221    0.0000 H   0  0  0  0  0  0  0  0  0  0  0  0
    1.9264   -0.5044    0.0000 H   0  0  0  0  0  0  0  0  0  0  0  0
    2.3249   -1.1947    0.0000 H   0  0  0  0  0  0  0  0  0  0  0  0
    3.7320   -3.9221    0.0000 H   0  0  0  0  0  0  0  0  0  0  0  0
    2.0000   -2.3021    0.0000 H   0  0  0  0  0  0  0  0  0  0  0  0
    6.0010   -3.2321    0.0000 H   0  0  0  0  0  0  0  0  0  0  0  0
    8.6635    2.5287    0.0000 H   0  0  0  0  0  0  0  0  0  0  0  0
    8.8761    0.2834    0.0000 H   0  0  0  0  0  0  0  0  0  0  0  0
    9.2779    0.9732    0.0000 H   0  0  0  0  0  0  0  0  0  0  0  0
    2.0000    0.6979    0.0000 H   0  0  0  0  0  0  0  0  0  0  0  0
    6.0010    3.0079    0.0000 H   0  0  0  0  0  0  0  0  0  0  0  0
   10.4015    1.2954    0.0000 H   0  0  0  0  0  0  0  0  0  0  0  0
    8.9892    3.7200    0.0000 H   0  0  0  0  0  0  0  0  0  0  0  0
    3.7320    0.6979    0.0000 H   0  0  0  0  0  0  0  0  0  0  0  0
   11.8013    2.1108    0.0000 H   0  0  0  0  0  0  0  0  0  0  0  0
   10.3890    4.5354    0.0000 H   0  0  0  0  0  0  0  0  0  0  0  0
    4.2690    3.0079    0.0000 H   0  0  0  0  0  0  0  0  0  0  0  0
   12.6616    3.6142    0.0000 H   0  0  0  0  0  0  0  0  0  0  0  0
  1 15  1  0  0  0  0
  1 16  1  0  0  0  0
 16  2  1  1  0  0  0
  2 18  1  0  0  0  0
 12  3  1  1  0  0  0
  3 40  1  0  0  0  0
 13  4  1  6  0  0  0
  4 41  1  0  0  0  0
 14  5  1  6  0  0  0
  5 42  1  0  0  0  0
  6 20  1  0  0  0  0
  6 22  1  0  0  0  0
  7 17  1  0  0  0  0
  7 46  1  0  0  0  0
  8 24  1  0  0  0  0
  8 50  1  0  0  0  0
  9 23  2  0  0  0  0
 10 27  1  0  0  0  0
 10 53  1  0  0  0  0
 11 32  1  0  0  0  0
 11 54  1  0  0  0  0
 12 13  1  0  0  0  0
 12 14  1  0  0  0  0
 12 33  1  0  0  0  0
 13 15  1  0  0  0  0
 13 34  1  0  0  0  0
 14 16  1  0  0  0  0
 14 35  1  0  0  0  0
 15 17  1  1  0  0  0
 15 36  1  0  0  0  0
 16 37  1  0  0  0  0
 17 38  1  0  0  0  0
 17 39  1  0  0  0  0
 18 19  1  0  0  0  0
 18 24  2  0  0  0  0
 19 22  2  0  0  0  0
 19 23  1  0  0  0  0
 20 21  1  0  0  0  0
 20 25  1  6  0  0  0
 20 43  1  0  0  0  0
 21 23  1  0  0  0  0
 21 44  1  0  0  0  0
 21 45  1  0  0  0  0
 22 26  1  0  0  0  0
 24 27  1  0  0  0  0
 25 28  2  0  0  0  0
 25 29  1  0  0  0  0
 26 27  2  0  0  0  0
 26 47  1  0  0  0  0
 28 30  1  0  0  0  0
 28 48  1  0  0  0  0
 29 31  2  0  0  0  0
 29 49  1  0  0  0  0
 30 32  2  0  0  0  0
 30 51  1  0  0  0  0
 31 32  1  0  0  0  0
 31 52  1  0  0  0  0
M  END
> <PUBCHEM_COMPOUND_CID>
46173973

> <PUBCHEM_COMPOUND_CANONICALIZED>
1

> <PUBCHEM_CACTVS_COMPLEXITY>
654

> <PUBCHEM_CACTVS_HBOND_ACCEPTOR>
11

> <PUBCHEM_CACTVS_HBOND_DONOR>
7

> <PUBCHEM_CACTVS_ROTATABLE_BOND>
4

> <PUBCHEM_CACTVS_SUBSKEYS>
AAADceB4PAAAAAAAAAAAAAAAAAAAAAAAAAA0aIEAAAAAAACRQAAAGgAACAAADBSwmAMwDoAABgCIAqBSAAACCAAkIAAIiAEGiMgdNzaGNRqieWOl4BUPuQfK7PzOIQABCAAIQABCAAIQABCAAAAAAAAAAA==

> <PUBCHEM_IUPAC_OPENEYE_NAME>
(2S)-6,7-dihydroxy-2-(4-hydroxyphenyl)-5-[(2S,3R,4S,5S,6R)-3,4,5-trihydroxy-6-(hydroxymethyl)tetrahydropyran-2-yl]oxy-chroman-4-one

> <PUBCHEM_IUPAC_CAS_NAME>
(2S)-6,7-dihydroxy-2-(4-hydroxyphenyl)-5-[[(2S,3R,4S,5S,6R)-3,4,5-trihydroxy-6-(hydroxymethyl)-2-oxanyl]oxy]-3,4-dihydro-2H-1-benzopyran-4-one

> <PUBCHEM_IUPAC_NAME>
(2S)-6,7-dihydroxy-2-(4-hydroxyphenyl)-5-[(2S,3R,4S,5S,6R)-3,4,5-trihydroxy-6-(hydroxymethyl)oxan-2-yl]oxy-2,3-dihydrochromen-4-one

> <PUBCHEM_IUPAC_SYSTEMATIC_NAME>
(2S)-5-[(2S,3R,4S,5S,6R)-6-(hydroxymethyl)-3,4,5-tris(oxidanyl)oxan-2-yl]oxy-2-(4-hydroxyphenyl)-6,7-bis(oxidanyl)-2,3-dihydrochromen-4-one

> <PUBCHEM_IUPAC_TRADITIONAL_NAME>
(2S)-6,7-dihydroxy-2-(4-hydroxyphenyl)-5-[(2S,3R,4S,5S,6R)-3,4,5-trihydroxy-6-methylol-tetrahydropyran-2-yl]oxy-chroman-4-one

> <PUBCHEM_IUPAC_INCHI>
InChI=1S/C21H22O11/c22-7-14-17(27)18(28)19(29)21(31-14)32-20-15-10(24)5-12(8-1-3-9(23)4-2-8)30-13(15)6-11(25)16(20)26/h1-4,6,12,14,17-19,21-23,25-29H,5,7H2/t12-,14+,17+,18-,19+,21-/m0/s1

> <PUBCHEM_IUPAC_INCHIKEY>
UBFTZAGDGOMJQE-SACPXRHSSA-N

> <PUBCHEM_XLOGP3_AA>
-0.3

> <PUBCHEM_EXACT_MASS>
450.116212

> <PUBCHEM_MOLECULAR_FORMULA>
C21H22O11

> <PUBCHEM_MOLECULAR_WEIGHT>
450.39278

> <PUBCHEM_OPENEYE_CAN_SMILES>
C1C(OC2=CC(=C(C(=C2C1=O)OC3C(C(C(C(O3)CO)O)O)O)O)O)C4=CC=C(C=C4)O

> <PUBCHEM_OPENEYE_ISO_SMILES>
C1[C@H](OC2=CC(=C(C(=C2C1=O)O[C@H]3[C@@H]([C@H]([C@@H]([C@H](O3)CO)O)O)O)O)O)C4=CC=C(C=C4)O

> <PUBCHEM_CACTVS_TPSA>
186

> <PUBCHEM_MONOISOTOPIC_WEIGHT>
450.116212

> <PUBCHEM_TOTAL_CHARGE>
0

> <PUBCHEM_HEAVY_ATOM_COUNT>
32

> <PUBCHEM_ATOM_DEF_STEREO_COUNT>
6

> <PUBCHEM_ATOM_UDEF_STEREO_COUNT>
0

> <PUBCHEM_BOND_DEF_STEREO_COUNT>
0

> <PUBCHEM_BOND_UDEF_STEREO_COUNT>
0

> <PUBCHEM_ISOTOPIC_ATOM_COUNT>
0

> <PUBCHEM_COMPONENT_COUNT>
1

> <PUBCHEM_CACTVS_TAUTO_COUNT>
36

> <PUBCHEM_COORDINATE_TYPE>
1
5
255

> <PUBCHEM_BONDANNOTATIONS>
15  17  5
18  19  8
18  24  8
19  22  8
16  2  5
20  25  6
22  26  8
24  27  8
25  28  8
25  29  8
26  27  8
28  30  8
29  31  8
12  3  5
30  32  8
31  32  8
13  4  6
14  5  6

$$$$

