5384
  -OEChem-06261200392D

121114  0     0  0  0  0  0  0999 V2000
    6.8660    0.0000    0.0000 Tc  0  0  0  0  0  0  0  0  0  0  0  0
   11.3293    0.7451    0.0000 O   0  0  0  0  0  0  0  0  0  0  0  0
    2.5000   -1.3660    0.0000 O   0  0  0  0  0  0  0  0  0  0  0  0
    3.5000    3.0981    0.0000 O   0  0  0  0  0  0  0  0  0  0  0  0
    5.8660   -4.4641    0.0000 O   0  0  0  0  0  0  0  0  0  0  0  0
    7.8660    4.4641    0.0000 O   0  0  0  0  0  0  0  0  0  0  0  0
   10.2321   -3.0981    0.0000 O   0  0  0  0  0  0  0  0  0  0  0  0
    8.7169    0.3264    0.0000 N   0  0  0  0  0  0  0  0  0  0  0  0
    5.0000   -0.5000    0.0000 N   0  0  0  0  0  0  0  0  0  0  0  0
    5.5000    1.3660    0.0000 N   0  0  0  0  0  0  0  0  0  0  0  0
    6.3660   -1.8660    0.0000 N   0  0  0  0  0  0  0  0  0  0  0  0
    7.3660    1.8660    0.0000 N   0  0  0  0  0  0  0  0  0  0  0  0
    8.2321   -1.3660    0.0000 N   0  0  0  0  0  0  0  0  0  0  0  0
    7.7320    0.5000    0.0000 C   0  5  0  0  0  0  0  0  0  0  0  0
    6.0000   -0.5000    0.0000 C   0  5  0  0  0  0  0  0  0  0  0  0
    6.0000    0.5000    0.0000 C   0  5  0  0  0  0  0  0  0  0  0  0
    6.8660   -1.0000    0.0000 C   0  5  0  0  0  0  0  0  0  0  0  0
    6.8660    1.0000    0.0000 C   0  5  0  0  0  0  0  0  0  0  0  0
    7.7320   -0.5000    0.0000 C   0  5  0  0  0  0  0  0  0  0  0  0
    9.3596    1.0924    0.0000 C   0  0  0  0  0  0  0  0  0  0  0  0
    4.5000   -1.3659    0.0000 C   0  0  0  0  0  0  0  0  0  0  0  0
    4.5000    1.3660    0.0000 C   0  0  0  0  0  0  0  0  0  0  0  0
    6.8661   -2.7320    0.0000 C   0  0  0  0  0  0  0  0  0  0  0  0
    6.8660    2.7320    0.0000 C   0  0  0  0  0  0  0  0  0  0  0  0
    9.2320   -1.3660    0.0000 C   0  0  0  0  0  0  0  0  0  0  0  0
   10.3445    0.9187    0.0000 C   0  0  0  0  0  0  0  0  0  0  0  0
    3.5000   -1.3660    0.0000 C   0  0  0  0  0  0  0  0  0  0  0  0
    4.0000    2.2320    0.0000 C   0  0  0  0  0  0  0  0  0  0  0  0
    6.3660   -3.5981    0.0000 C   0  0  0  0  0  0  0  0  0  0  0  0
    7.3660    3.5981    0.0000 C   0  0  0  0  0  0  0  0  0  0  0  0
    9.7320   -2.2320    0.0000 C   0  0  0  0  0  0  0  0  0  0  0  0
   10.5181    1.9036    0.0000 C   0  0  0  0  0  0  0  0  0  0  0  0
   10.1708   -0.0661    0.0000 C   0  0  0  0  0  0  0  0  0  0  0  0
    3.5000   -2.3660    0.0000 C   0  0  0  0  0  0  0  0  0  0  0  0
    3.5000   -0.3660    0.0000 C   0  0  0  0  0  0  0  0  0  0  0  0
    3.1340    1.7320    0.0000 C   0  0  0  0  0  0  0  0  0  0  0  0
    4.8660    2.7320    0.0000 C   0  0  0  0  0  0  0  0  0  0  0  0
    7.2321   -4.0981    0.0000 C   0  0  0  0  0  0  0  0  0  0  0  0
    5.5000   -3.0981    0.0000 C   0  0  0  0  0  0  0  0  0  0  0  0
    6.5000    4.0981    0.0000 C   0  0  0  0  0  0  0  0  0  0  0  0
    8.2320    3.0981    0.0000 C   0  0  0  0  0  0  0  0  0  0  0  0
   10.5981   -1.7320    0.0000 C   0  0  0  0  0  0  0  0  0  0  0  0
    8.8661   -2.7320    0.0000 C   0  0  0  0  0  0  0  0  0  0  0  0
   11.9720    1.5112    0.0000 C   0  0  0  0  0  0  0  0  0  0  0  0
    2.0000   -2.2320    0.0000 C   0  0  0  0  0  0  0  0  0  0  0  0
    2.5000    3.0981    0.0000 C   0  0  0  0  0  0  0  0  0  0  0  0
    6.3661   -5.3301    0.0000 C   0  0  0  0  0  0  0  0  0  0  0  0
    7.3660    5.3301    0.0000 C   0  0  0  0  0  0  0  0  0  0  0  0
   11.2321   -3.0981    0.0000 C   0  0  0  0  0  0  0  0  0  0  0  0
    8.3426   -0.3923    0.0000 H   0  0  0  0  0  0  0  0  0  0  0  0
    6.5560    1.5369    0.0000 H   0  0  0  0  0  0  0  0  0  0  0  0
    7.1760   -1.5369    0.0000 H   0  0  0  0  0  0  0  0  0  0  0  0
    5.3800    0.5000    0.0000 H   0  0  0  0  0  0  0  0  0  0  0  0
    5.6901   -1.0370    0.0000 H   0  0  0  0  0  0  0  0  0  0  0  0
    8.0420    1.0369    0.0000 H   0  0  0  0  0  0  0  0  0  0  0  0
    9.8147   -1.1540    0.0000 H   0  0  0  0  0  0  0  0  0  0  0  0
    9.1244   -0.7554    0.0000 H   0  0  0  0  0  0  0  0  0  0  0  0
    6.3911    3.1306    0.0000 H   0  0  0  0  0  0  0  0  0  0  0  0
    6.3911    2.3335    0.0000 H   0  0  0  0  0  0  0  0  0  0  0  0
    7.3410   -3.1306    0.0000 H   0  0  0  0  0  0  0  0  0  0  0  0
    7.3410   -2.3335    0.0000 H   0  0  0  0  0  0  0  0  0  0  0  0
    3.9174    1.1540    0.0000 H   0  0  0  0  0  0  0  0  0  0  0  0
    4.6077    0.7554    0.0000 H   0  0  0  0  0  0  0  0  0  0  0  0
    4.3923   -1.9765    0.0000 H   0  0  0  0  0  0  0  0  0  0  0  0
    5.0826   -1.5780    0.0000 H   0  0  0  0  0  0  0  0  0  0  0  0
    9.5717    1.6750    0.0000 H   0  0  0  0  0  0  0  0  0  0  0  0
    8.8227    1.4024    0.0000 H   0  0  0  0  0  0  0  0  0  0  0  0
    9.5602    0.0416    0.0000 H   0  0  0  0  0  0  0  0  0  0  0  0
   10.0631   -0.6766    0.0000 H   0  0  0  0  0  0  0  0  0  0  0  0
   10.7814   -0.1737    0.0000 H   0  0  0  0  0  0  0  0  0  0  0  0
   11.1287    1.7959    0.0000 H   0  0  0  0  0  0  0  0  0  0  0  0
   10.6258    2.5141    0.0000 H   0  0  0  0  0  0  0  0  0  0  0  0
    9.9075    2.0112    0.0000 H   0  0  0  0  0  0  0  0  0  0  0  0
    6.8100    4.6350    0.0000 H   0  0  0  0  0  0  0  0  0  0  0  0
    5.9631    4.4081    0.0000 H   0  0  0  0  0  0  0  0  0  0  0  0
    6.1900    3.5611    0.0000 H   0  0  0  0  0  0  0  0  0  0  0  0
    7.9220    2.5611    0.0000 H   0  0  0  0  0  0  0  0  0  0  0  0
    8.7690    2.7881    0.0000 H   0  0  0  0  0  0  0  0  0  0  0  0
    8.5420    3.6350    0.0000 H   0  0  0  0  0  0  0  0  0  0  0  0
   10.9081   -2.2690    0.0000 H   0  0  0  0  0  0  0  0  0  0  0  0
   11.1350   -1.4220    0.0000 H   0  0  0  0  0  0  0  0  0  0  0  0
   10.2881   -1.1951    0.0000 H   0  0  0  0  0  0  0  0  0  0  0  0
    8.5561   -2.1951    0.0000 H   0  0  0  0  0  0  0  0  0  0  0  0
    8.3292   -3.0420    0.0000 H   0  0  0  0  0  0  0  0  0  0  0  0
    9.1761   -3.2689    0.0000 H   0  0  0  0  0  0  0  0  0  0  0  0
    5.8100   -2.5611    0.0000 H   0  0  0  0  0  0  0  0  0  0  0  0
    4.9630   -2.7880    0.0000 H   0  0  0  0  0  0  0  0  0  0  0  0
    5.1900   -3.6350    0.0000 H   0  0  0  0  0  0  0  0  0  0  0  0
    6.9221   -4.6350    0.0000 H   0  0  0  0  0  0  0  0  0  0  0  0
    7.7690   -4.4080    0.0000 H   0  0  0  0  0  0  0  0  0  0  0  0
    7.5421   -3.5611    0.0000 H   0  0  0  0  0  0  0  0  0  0  0  0
    5.1760    2.1951    0.0000 H   0  0  0  0  0  0  0  0  0  0  0  0
    5.4030    3.0420    0.0000 H   0  0  0  0  0  0  0  0  0  0  0  0
    4.5560    3.2690    0.0000 H   0  0  0  0  0  0  0  0  0  0  0  0
    2.8240    2.2690    0.0000 H   0  0  0  0  0  0  0  0  0  0  0  0
    2.5970    1.4220    0.0000 H   0  0  0  0  0  0  0  0  0  0  0  0
    3.4440    1.1951    0.0000 H   0  0  0  0  0  0  0  0  0  0  0  0
    4.1200   -0.3660    0.0000 H   0  0  0  0  0  0  0  0  0  0  0  0
    3.5000    0.2540    0.0000 H   0  0  0  0  0  0  0  0  0  0  0  0
    2.8800   -0.3660    0.0000 H   0  0  0  0  0  0  0  0  0  0  0  0
    2.8800   -2.3659    0.0000 H   0  0  0  0  0  0  0  0  0  0  0  0
    3.4999   -2.9860    0.0000 H   0  0  0  0  0  0  0  0  0  0  0  0
    4.1200   -2.3660    0.0000 H   0  0  0  0  0  0  0  0  0  0  0  0
   12.4470    1.1126    0.0000 H   0  0  0  0  0  0  0  0  0  0  0  0
   12.3706    1.9861    0.0000 H   0  0  0  0  0  0  0  0  0  0  0  0
   11.4971    1.9097    0.0000 H   0  0  0  0  0  0  0  0  0  0  0  0
    1.4631   -1.9220    0.0000 H   0  0  0  0  0  0  0  0  0  0  0  0
    1.6900   -2.7690    0.0000 H   0  0  0  0  0  0  0  0  0  0  0  0
    2.5369   -2.5420    0.0000 H   0  0  0  0  0  0  0  0  0  0  0  0
    2.5000    3.7181    0.0000 H   0  0  0  0  0  0  0  0  0  0  0  0
    1.8800    3.0981    0.0000 H   0  0  0  0  0  0  0  0  0  0  0  0
    2.5000    2.4781    0.0000 H   0  0  0  0  0  0  0  0  0  0  0  0
    5.8291   -5.6401    0.0000 H   0  0  0  0  0  0  0  0  0  0  0  0
    6.6761   -5.8671    0.0000 H   0  0  0  0  0  0  0  0  0  0  0  0
    6.9030   -5.0201    0.0000 H   0  0  0  0  0  0  0  0  0  0  0  0
    7.9030    5.6401    0.0000 H   0  0  0  0  0  0  0  0  0  0  0  0
    7.0560    5.8671    0.0000 H   0  0  0  0  0  0  0  0  0  0  0  0
    6.8291    5.0201    0.0000 H   0  0  0  0  0  0  0  0  0  0  0  0
   11.2321   -3.7181    0.0000 H   0  0  0  0  0  0  0  0  0  0  0  0
   11.8521   -3.0981    0.0000 H   0  0  0  0  0  0  0  0  0  0  0  0
   11.2321   -2.4781    0.0000 H   0  0  0  0  0  0  0  0  0  0  0  0
  2 26  1  0  0  0  0
  2 44  1  0  0  0  0
  3 27  1  0  0  0  0
  3 45  1  0  0  0  0
  4 28  1  0  0  0  0
  4 46  1  0  0  0  0
  5 29  1  0  0  0  0
  5 47  1  0  0  0  0
  6 30  1  0  0  0  0
  6 48  1  0  0  0  0
  7 31  1  0  0  0  0
  7 49  1  0  0  0  0
  8 14  2  0  0  0  0
  8 20  1  0  0  0  0
  9 15  2  0  0  0  0
  9 21  1  0  0  0  0
 10 16  2  0  0  0  0
 10 22  1  0  0  0  0
 11 17  2  0  0  0  0
 11 23  1  0  0  0  0
 12 18  2  0  0  0  0
 12 24  1  0  0  0  0
 13 19  2  0  0  0  0
 13 25  1  0  0  0  0
 14 55  1  0  0  0  0
 15 54  1  0  0  0  0
 16 53  1  0  0  0  0
 17 52  1  0  0  0  0
 18 51  1  0  0  0  0
 19 50  1  0  0  0  0
 20 26  1  0  0  0  0
 20 66  1  0  0  0  0
 20 67  1  0  0  0  0
 21 27  1  0  0  0  0
 21 64  1  0  0  0  0
 21 65  1  0  0  0  0
 22 28  1  0  0  0  0
 22 62  1  0  0  0  0
 22 63  1  0  0  0  0
 23 29  1  0  0  0  0
 23 60  1  0  0  0  0
 23 61  1  0  0  0  0
 24 30  1  0  0  0  0
 24 58  1  0  0  0  0
 24 59  1  0  0  0  0
 25 31  1  0  0  0  0
 25 56  1  0  0  0  0
 25 57  1  0  0  0  0
 26 32  1  0  0  0  0
 26 33  1  0  0  0  0
 27 34  1  0  0  0  0
 27 35  1  0  0  0  0
 28 36  1  0  0  0  0
 28 37  1  0  0  0  0
 29 38  1  0  0  0  0
 29 39  1  0  0  0  0
 30 40  1  0  0  0  0
 30 41  1  0  0  0  0
 31 42  1  0  0  0  0
 31 43  1  0  0  0  0
 32 71  1  0  0  0  0
 32 72  1  0  0  0  0
 32 73  1  0  0  0  0
 33 68  1  0  0  0  0
 33 69  1  0  0  0  0
 33 70  1  0  0  0  0
 34101  1  0  0  0  0
 34102  1  0  0  0  0
 34103  1  0  0  0  0
 35 98  1  0  0  0  0
 35 99  1  0  0  0  0
 35100  1  0  0  0  0
 36 95  1  0  0  0  0
 36 96  1  0  0  0  0
 36 97  1  0  0  0  0
 37 92  1  0  0  0  0
 37 93  1  0  0  0  0
 37 94  1  0  0  0  0
 38 89  1  0  0  0  0
 38 90  1  0  0  0  0
 38 91  1  0  0  0  0
 39 86  1  0  0  0  0
 39 87  1  0  0  0  0
 39 88  1  0  0  0  0
 40 74  1  0  0  0  0
 40 75  1  0  0  0  0
 40 76  1  0  0  0  0
 41 77  1  0  0  0  0
 41 78  1  0  0  0  0
 41 79  1  0  0  0  0
 42 80  1  0  0  0  0
 42 81  1  0  0  0  0
 42 82  1  0  0  0  0
 43 83  1  0  0  0  0
 43 84  1  0  0  0  0
 43 85  1  0  0  0  0
 44104  1  0  0  0  0
 44105  1  0  0  0  0
 44106  1  0  0  0  0
 45107  1  0  0  0  0
 45108  1  0  0  0  0
 45109  1  0  0  0  0
 46110  1  0  0  0  0
 46111  1  0  0  0  0
 46112  1  0  0  0  0
 47113  1  0  0  0  0
 47114  1  0  0  0  0
 47115  1  0  0  0  0
 48116  1  0  0  0  0
 48117  1  0  0  0  0
 48118  1  0  0  0  0
 49119  1  0  0  0  0
 49120  1  0  0  0  0
 49121  1  0  0  0  0
M  CHG  7   1   6  14  -1  15  -1  16  -1  17  -1  18  -1  19  -1
M  END
> <PUBCHEM_COMPOUND_CID>
5384

> <PUBCHEM_COMPOUND_CANONICALIZED>
1

> <PUBCHEM_CACTVS_COMPLEXITY>
649

> <PUBCHEM_CACTVS_HBOND_ACCEPTOR>
18

> <PUBCHEM_CACTVS_HBOND_DONOR>
0

> <PUBCHEM_CACTVS_ROTATABLE_BOND>
18

> <PUBCHEM_CACTVS_SUBSKEYS>
AAADcfB/uAAAAAAAAAAAAAAAQAAAAAAAAAAAAAAAAAAAAAAAAAAAHgAAAAAADETBgAYCAAIABAAgAAABBAAAAAAAAAAAAAAAAAACAAAAAAABAAAAAAAAAAAAAAAAAAAAAAAAAAAAAAAAAAAAAAAAAAAAAA==

> <PUBCHEM_IUPAC_OPENEYE_NAME>
N-(2-methoxy-2-methyl-propyl)methanimine; technetium(6+)

> <PUBCHEM_IUPAC_CAS_NAME>
N-(2-methoxy-2-methylpropyl)methanimine; technetium(6+)

> <PUBCHEM_IUPAC_NAME>
N-(2-methoxy-2-methylpropyl)methanimine; technetium(6+)

> <PUBCHEM_IUPAC_SYSTEMATIC_NAME>
N-(2-methoxy-2-methyl-propyl)methanimine; technetium(6+)

> <PUBCHEM_IUPAC_TRADITIONAL_NAME>
methanidylidene-(2-methoxy-2-methyl-propyl)amine; technetium(6+)

> <PUBCHEM_IUPAC_INCHI>
InChI=1S/6C6H12NO.Tc/c6*1-6(2,8-4)5-7-3;/h6*3H,5H2,1-2,4H3;/q6*-1;+6

> <PUBCHEM_IUPAC_INCHIKEY>
WLRGEKXAJZHVHX-UHFFFAOYSA-N

> <PUBCHEM_EXACT_MASS>
782.45855

> <PUBCHEM_MOLECULAR_FORMULA>
C36H72N6O6Tc

> <PUBCHEM_MOLECULAR_WEIGHT>
782.900696

> <PUBCHEM_OPENEYE_CAN_SMILES>
CC(C)(CN=[CH-])OC.CC(C)(CN=[CH-])OC.CC(C)(CN=[CH-])OC.CC(C)(CN=[CH-])OC.CC(C)(CN=[CH-])OC.CC(C)(CN=[CH-])OC.[Tc+6]

> <PUBCHEM_OPENEYE_ISO_SMILES>
CC(C)(CN=[CH-])OC.CC(C)(CN=[CH-])OC.CC(C)(CN=[CH-])OC.CC(C)(CN=[CH-])OC.CC(C)(CN=[CH-])OC.CC(C)(CN=[CH-])OC.[Tc+6]

> <PUBCHEM_CACTVS_TPSA>
130

> <PUBCHEM_MONOISOTOPIC_WEIGHT>
782.45855

> <PUBCHEM_TOTAL_CHARGE>
0

> <PUBCHEM_HEAVY_ATOM_COUNT>
49

> <PUBCHEM_ATOM_DEF_STEREO_COUNT>
0

> <PUBCHEM_ATOM_UDEF_STEREO_COUNT>
0

> <PUBCHEM_BOND_DEF_STEREO_COUNT>
0

> <PUBCHEM_BOND_UDEF_STEREO_COUNT>
0

> <PUBCHEM_ISOTOPIC_ATOM_COUNT>
0

> <PUBCHEM_COMPONENT_COUNT>
7

> <PUBCHEM_CACTVS_TAUTO_COUNT>
1

> <PUBCHEM_NONSTANDARDBOND>
1  14  6
1  15  6
1  16  6
1  17  6
1  18  6
1  19  6

> <PUBCHEM_COORDINATE_TYPE>
1
5
255

$$$$

