5944
  -OEChem-06261201002D

 26 28  0     1  0  0  0  0  0999 V2000
    5.4704    2.3320    0.0000 O   0  0  0  0  0  0  0  0  0  0  0  0
    2.6412   -0.9484    0.0000 O   0  0  0  0  0  0  0  0  0  0  0  0
    3.7552   -2.3320    0.0000 O   0  0  0  0  0  0  0  0  0  0  0  0
    2.0000    0.7082    0.0000 O   0  0  0  0  0  0  0  0  0  0  0  0
    4.2161   -0.6165    0.0000 C   0  0  1  0  0  0  0  0  0  0  0  0
    3.7161    0.2495    0.0000 C   0  0  2  0  0  0  0  0  0  0  0  0
    5.9482    0.3835    0.0000 C   0  0  1  0  0  0  0  0  0  0  0  0
    6.2070    1.3494    0.0000 C   0  0  2  0  0  0  0  0  0  0  0  0
    7.7801   -0.3753    0.0000 C   0  0  0  0  0  0  0  0  0  0  0  0
    8.0389    0.5906    0.0000 C   0  0  0  0  0  0  0  0  0  0  0  0
    3.5490   -1.3535    0.0000 C   0  0  0  0  0  0  0  0  0  0  0  0
    4.7161   -1.4825    0.0000 C   0  0  0  0  0  0  0  0  0  0  0  0
    2.7443    0.0403    0.0000 C   0  0  0  0  0  0  0  0  0  0  0  0
    3.2161    1.1155    0.0000 C   0  0  0  0  0  0  0  0  0  0  0  0
    5.7282   -0.4375    0.0000 H   0  0  0  0  0  0  0  0  0  0  0  0
    6.4270    2.1705    0.0000 H   0  0  0  0  0  0  0  0  0  0  0  0
    7.5681   -0.9579    0.0000 H   0  0  0  0  0  0  0  0  0  0  0  0
    8.3714   -0.5618    0.0000 H   0  0  0  0  0  0  0  0  0  0  0  0
    8.6302    0.4042    0.0000 H   0  0  0  0  0  0  0  0  0  0  0  0
    8.2510    1.1732    0.0000 H   0  0  0  0  0  0  0  0  0  0  0  0
    4.1792   -1.7925    0.0000 H   0  0  0  0  0  0  0  0  0  0  0  0
    5.0261   -2.0195    0.0000 H   0  0  0  0  0  0  0  0  0  0  0  0
    5.2530   -1.1725    0.0000 H   0  0  0  0  0  0  0  0  0  0  0  0
    3.7530    1.4255    0.0000 H   0  0  0  0  0  0  0  0  0  0  0  0
    2.9061    1.6525    0.0000 H   0  0  0  0  0  0  0  0  0  0  0  0
    2.6792    0.8055    0.0000 H   0  0  0  0  0  0  0  0  0  0  0  0
  1  7  1  0  0  0  0
  1  8  1  0  0  0  0
  2 11  1  0  0  0  0
  2 13  1  0  0  0  0
  3 11  2  0  0  0  0
  4 13  2  0  0  0  0
  5  6  1  0  0  0  0
  5  7  1  0  0  0  0
  5 11  1  0  0  0  0
  5 12  1  6  0  0  0
  6  8  1  0  0  0  0
  6 13  1  0  0  0  0
  6 14  1  6  0  0  0
  7  9  1  0  0  0  0
  7 15  1  1  0  0  0
  8 10  1  0  0  0  0
  8 16  1  6  0  0  0
  9 10  1  0  0  0  0
  9 17  1  0  0  0  0
  9 18  1  0  0  0  0
 10 19  1  0  0  0  0
 10 20  1  0  0  0  0
 12 21  1  0  0  0  0
 12 22  1  0  0  0  0
 12 23  1  0  0  0  0
 14 24  1  0  0  0  0
 14 25  1  0  0  0  0
 14 26  1  0  0  0  0
M  END
> <PUBCHEM_COMPOUND_CID>
5944

> <PUBCHEM_COMPOUND_CANONICALIZED>
1

> <PUBCHEM_CACTVS_COMPLEXITY>
318

> <PUBCHEM_CACTVS_HBOND_ACCEPTOR>
4

> <PUBCHEM_CACTVS_HBOND_DONOR>
0

> <PUBCHEM_CACTVS_ROTATABLE_BOND>
0

> <PUBCHEM_CACTVS_SUBSKEYS>
AAADccBwOAAAAAAAAAAAAAAAAAAAASJEgAAwAAAAAAASAAAAAAAAGgAAAAAADhSggAICCAAABAAIAACQCAAAAAAAAAAAAAEAAAAAABYAAAACAAAFIAAAAAHLyPCPgAAAAAAAAAAAAAIAADAAAAAAAAAAAA==

> <PUBCHEM_IUPAC_INCHI>
InChI=1S/C10H12O4/c1-9-5-3-4-6(13-5)10(9,2)8(12)14-7(9)11/h5-6H,3-4H2,1-2H3/t5-,6+,9+,10-

> <PUBCHEM_IUPAC_INCHIKEY>
DHZBEENLJMYSHQ-XCVPVQRUSA-N

> <PUBCHEM_XLOGP3_AA>
0.6

> <PUBCHEM_EXACT_MASS>
196.073559

> <PUBCHEM_MOLECULAR_FORMULA>
C10H12O4

> <PUBCHEM_MOLECULAR_WEIGHT>
196.19988

> <PUBCHEM_OPENEYE_CAN_SMILES>
CC12C3CCC(C1(C(=O)OC2=O)C)O3

> <PUBCHEM_OPENEYE_ISO_SMILES>
C[C@@]12[C@H]3CC[C@@H]([C@@]1(C(=O)OC2=O)C)O3

> <PUBCHEM_CACTVS_TPSA>
52.6

> <PUBCHEM_MONOISOTOPIC_WEIGHT>
196.073559

> <PUBCHEM_TOTAL_CHARGE>
0

> <PUBCHEM_HEAVY_ATOM_COUNT>
14

> <PUBCHEM_ATOM_DEF_STEREO_COUNT>
4

> <PUBCHEM_ATOM_UDEF_STEREO_COUNT>
0

> <PUBCHEM_BOND_DEF_STEREO_COUNT>
0

> <PUBCHEM_BOND_UDEF_STEREO_COUNT>
0

> <PUBCHEM_ISOTOPIC_ATOM_COUNT>
0

> <PUBCHEM_COMPONENT_COUNT>
1

> <PUBCHEM_CACTVS_TAUTO_COUNT>
1

> <PUBCHEM_COORDINATE_TYPE>
1
5
255

> <PUBCHEM_BONDANNOTATIONS>
5  12  6
6  14  6
7  15  5
8  16  6

$$$$

