   Color/Form
        Liquid
   from [1]HSDB

   Boiling Point
        115 deg C @ 13 mm Hg
   from [2]HSDB

   Melting Point
        10.3 deg C
   from [3]HSDB

   Density/Specific Gravity
        1.0600 @ 20 deg C/4 deg C
   from [4]HSDB

   Octanol/Water Partition Coefficient
        log Kow= 1.03
   from [5]HSDB

   Solubilities

     * Sol in alc, ether, acetic acid
     * In water, 600 mg/l, temp not specified.

   from [6]HSDB

   Spectral Properties

     * Index of refraction: 1.4283 @ 20 deg C
     * Sadtler ref number: 7571 (IR, prism)
     * IR: 18501 (Sadtler Research Laboratories IR Grating Collection)
     * NMR: 6230 (Sadtler Research Laboratories Spectral Collection)
     * MASS: 1173 (Atlas of Mass Spectral Data, John Wiley & Sons, New
       York)

   from [7]HSDB

   Computed Properties
   Molecular Weight                  174.19436 [g/mol]
   Molecular Formula                 C[8]H[14]O[4]
   XLogP3                            1
   H-Bond Donor                      0
   H-Bond Acceptor                   4
   Rotatable Bond Count              7
   Exact Mass                        174.089209
   MonoIsotopic Mass                 174.089209
   Topological Polar Surface Area    52.6
   Heavy Atom Count                  12
   Formal Charge                     0
   Complexity                        135
   Isotope Atom Count                0
   Defined Atom Stereocenter Count   0
   Undefined Atom Stereocenter Count 0
   Defined Bond Stereocenter Count   0
   Undefined Bond Stereocenter Count 0
   Covalently-Bonded Unit Count      1
   Feature 3D Acceptor Count         2
   Feature 3D Hydrophobe Count       1
   Effective Rotor Count             7
   Conformer Sampling RMSD           0.8
   CID Conformer Count               [8]50

References

   1. http://toxnet.nlm.nih.gov/cgi-bin/sis/search/r?dbs+hsdb:@term+@rn+@rel+627-93-0
   2. http://toxnet.nlm.nih.gov/cgi-bin/sis/search/r?dbs+hsdb:@term+@rn+@rel+627-93-0
   3. http://toxnet.nlm.nih.gov/cgi-bin/sis/search/r?dbs+hsdb:@term+@rn+@rel+627-93-0
   4. http://toxnet.nlm.nih.gov/cgi-bin/sis/search/r?dbs+hsdb:@term+@rn+@rel+627-93-0
   5. http://toxnet.nlm.nih.gov/cgi-bin/sis/search/r?dbs+hsdb:@term+@rn+@rel+627-93-0
   6. http://toxnet.nlm.nih.gov/cgi-bin/sis/search/r?dbs+hsdb:@term+@rn+@rel+627-93-0
   7. http://toxnet.nlm.nih.gov/cgi-bin/sis/search/r?dbs+hsdb:@term+@rn+@rel+627-93-0
   8. http://pubchem.ncbi.nlm.nih.gov/vw3d/vw3d.cgi?cid=12329
