5370086
  -OEChem-07051213102D

 53 57  0     1  0  0  0  0  0999 V2000
    5.2644   -2.5800    0.0000 O   0  0  0  0  0  0  0  0  0  0  0  0
    2.7442   -0.2175    0.0000 O   0  0  0  0  0  0  0  0  0  0  0  0
    4.7516    2.0119    0.0000 O   0  0  0  0  0  0  0  0  0  0  0  0
    3.1043    1.4767    0.0000 O   0  0  0  0  0  0  0  0  0  0  0  0
    5.0940   -2.0719    0.0000 N   0  0  0  0  0  0  0  0  0  0  0  0
    8.4404   -0.8850    0.0000 N   0  0  0  0  0  0  0  0  0  0  0  0
    4.2870   -0.6768    0.0000 C   0  0  3  0  0  0  0  0  0  0  0  0
    5.2005   -1.0835    0.0000 C   0  0  3  0  0  0  0  0  0  0  0  0
    4.3915    0.3177    0.0000 C   0  0  3  0  0  0  0  0  0  0  0  0
    6.7357    0.1596    0.0000 C   0  0  3  0  0  0  0  0  0  0  0  0
    6.9945    1.1255    0.0000 C   0  0  3  0  0  0  0  0  0  0  0  0
    3.1321   -1.6306    0.0000 C   0  0  0  0  0  0  0  0  0  0  0  0
    6.2579    2.1081    0.0000 C   0  0  0  0  0  0  0  0  0  0  0  0
    3.6237   -1.4173    0.0000 C   0  0  0  0  0  0  0  0  0  0  0  0
    3.8164   -2.9630    0.0000 C   0  0  0  0  0  0  0  0  0  0  0  0
    3.4134    0.5256    0.0000 C   0  0  0  0  0  0  0  0  0  0  0  0
    8.8592    0.6779    0.0000 C   0  0  0  0  0  0  0  0  0  0  0  0
    4.1215   -2.2777    0.0000 C   0  0  0  0  0  0  0  0  0  0  0  0
    4.0825    1.2688    0.0000 C   0  0  0  0  0  0  0  0  0  0  0  0
    9.2175   -0.2557    0.0000 C   0  0  0  0  0  0  0  0  0  0  0  0
    2.7346   -0.8866    0.0000 C   0  0  0  0  0  0  0  0  0  0  0  0
    3.2333   -2.8100    0.0000 C   0  0  0  0  0  0  0  0  0  0  0  0
    9.4038    1.5165    0.0000 C   0  0  0  0  0  0  0  0  0  0  0  0
    2.0000   -1.3536    0.0000 C   0  0  0  0  0  0  0  0  0  0  0  0
    2.1665   -2.3445    0.0000 C   0  0  0  0  0  0  0  0  0  0  0  0
   10.4024    1.4642    0.0000 C   0  0  0  0  0  0  0  0  0  0  0  0
    4.4426    2.9630    0.0000 C   0  0  0  0  0  0  0  0  0  0  0  0
    7.2364    0.5252    0.0000 H   0  0  0  0  0  0  0  0  0  0  0  0
    7.0147    0.5059    0.0000 H   0  0  0  0  0  0  0  0  0  0  0  0
    2.7727   -1.1254    0.0000 H   0  0  0  0  0  0  0  0  0  0  0  0
    2.6024   -1.9528    0.0000 H   0  0  0  0  0  0  0  0  0  0  0  0
    6.5757    2.6405    0.0000 H   0  0  0  0  0  0  0  0  0  0  0  0
    5.6447    2.2001    0.0000 H   0  0  0  0  0  0  0  0  0  0  0  0
    5.6840   -1.8813    0.0000 H   0  0  0  0  0  0  0  0  0  0  0  0
    3.2460   -3.2058    0.0000 H   0  0  0  0  0  0  0  0  0  0  0  0
    4.0176   -3.5494    0.0000 H   0  0  0  0  0  0  0  0  0  0  0  0
    3.6456    1.1005    0.0000 H   0  0  0  0  0  0  0  0  0  0  0  0
    2.8876    0.8542    0.0000 H   0  0  0  0  0  0  0  0  0  0  0  0
    8.4728   -1.5042    0.0000 H   0  0  0  0  0  0  0  0  0  0  0  0
    9.5552   -0.7757    0.0000 H   0  0  0  0  0  0  0  0  0  0  0  0
    9.7699    0.0258    0.0000 H   0  0  0  0  0  0  0  0  0  0  0  0
    2.7259   -0.2666    0.0000 H   0  0  0  0  0  0  0  0  0  0  0  0
    3.2731   -3.4287    0.0000 H   0  0  0  0  0  0  0  0  0  0  0  0
    9.1223    2.0690    0.0000 H   0  0  0  0  0  0  0  0  0  0  0  0
    2.1378   -0.0886    0.0000 H   0  0  0  0  0  0  0  0  0  0  0  0
    1.4336   -1.1014    0.0000 H   0  0  0  0  0  0  0  0  0  0  0  0
    1.6779   -2.7261    0.0000 H   0  0  0  0  0  0  0  0  0  0  0  0
   10.3700    0.8450    0.0000 H   0  0  0  0  0  0  0  0  0  0  0  0
   11.0216    1.4318    0.0000 H   0  0  0  0  0  0  0  0  0  0  0  0
   10.4349    2.0833    0.0000 H   0  0  0  0  0  0  0  0  0  0  0  0
    5.0323    3.1546    0.0000 H   0  0  0  0  0  0  0  0  0  0  0  0
    4.2510    3.5526    0.0000 H   0  0  0  0  0  0  0  0  0  0  0  0
    3.8530    2.7714    0.0000 H   0  0  0  0  0  0  0  0  0  0  0  0
  1  8  1  0  0  0  0
  1 15  1  0  0  0  0
  2 16  1  0  0  0  0
  2 45  1  0  0  0  0
  3 19  1  0  0  0  0
  3 27  1  0  0  0  0
  4 19  2  0  0  0  0
  5  8  1  0  0  0  0
  5 18  1  0  0  0  0
  5 34  1  0  0  0  0
  6 10  1  0  0  0  0
  6 20  1  0  0  0  0
  6 39  1  0  0  0  0
  7  8  1  0  0  0  0
  7  9  1  0  0  0  0
  7 12  1  0  0  0  0
  7 14  1  0  0  0  0
  8 10  1  0  0  0  0
  9 11  1  0  0  0  0
  9 16  1  0  0  0  0
  9 19  1  0  0  0  0
 10 13  1  0  0  0  0
 10 28  1  0  0  0  0
 11 13  1  0  0  0  0
 11 17  1  0  0  0  0
 11 29  1  0  0  0  0
 12 15  1  0  0  0  0
 12 30  1  0  0  0  0
 12 31  1  0  0  0  0
 13 32  1  0  0  0  0
 13 33  1  0  0  0  0
 14 18  1  0  0  0  0
 14 21  2  0  0  0  0
 15 35  1  0  0  0  0
 15 36  1  0  0  0  0
 16 37  1  0  0  0  0
 16 38  1  0  0  0  0
 17 20  1  0  0  0  0
 17 23  2  0  0  0  0
 18 22  2  0  0  0  0
 20 40  1  0  0  0  0
 20 41  1  0  0  0  0
 21 24  1  0  0  0  0
 21 42  1  0  0  0  0
 22 25  1  0  0  0  0
 22 43  1  0  0  0  0
 23 26  1  0  0  0  0
 23 44  1  0  0  0  0
 24 25  2  0  0  0  0
 24 46  1  0  0  0  0
 25 47  1  0  0  0  0
 26 48  1  0  0  0  0
 26 49  1  0  0  0  0
 26 50  1  0  0  0  0
 27 51  1  0  0  0  0
 27 52  1  0  0  0  0
 27 53  1  0  0  0  0
M  END
> <PUBCHEM_COMPOUND_CID>
5370086

> <PUBCHEM_COMPOUND_CANONICALIZED>
1

> <PUBCHEM_CACTVS_COMPLEXITY>
681

> <PUBCHEM_CACTVS_HBOND_ACCEPTOR>
6

> <PUBCHEM_CACTVS_HBOND_DONOR>
3

> <PUBCHEM_CACTVS_ROTATABLE_BOND>
3

> <PUBCHEM_CACTVS_SUBSKEYS>
AAADceB7OAAAAAAAAAAAAAAAAAAAAWJAAAA8YIAAAAAWLFgBAAAAHgAQCAAADyzhmAYyyILABgCIAiTSSACCAAAhAgAIiIEIZIkKcDbAkZGfYAhl8AHYyAf+/fufgAAAAAACAABQAAaAADQgQAAAAAAAAA==

> <PUBCHEM_IUPAC_INCHI>
InChI=1S/C21H26N2O4/c1-3-13-11-22-17-10-15(13)19(12-24,18(25)26-2)20-8-9-27-21(17,20)23-16-7-5-4-6-14(16)20/h3-7,15,17,22-24H,8-12H2,1-2H3/b13-3+

> <PUBCHEM_IUPAC_INCHIKEY>
OQJSSGHGITUGKL-QLKAYGNNSA-N

> <PUBCHEM_XLOGP3_AA>
0.8

> <PUBCHEM_EXACT_MASS>
370.189257

> <PUBCHEM_MOLECULAR_FORMULA>
C21H26N2O4

> <PUBCHEM_MOLECULAR_WEIGHT>
370.44214

> <PUBCHEM_OPENEYE_CAN_SMILES>
CC=C1CNC2CC1C(C34C2(NC5=CC=CC=C53)OCC4)(CO)C(=O)OC

> <PUBCHEM_OPENEYE_ISO_SMILES>
C/C=C/1\CNC2CC1C(C34C2(NC5=CC=CC=C53)OCC4)(CO)C(=O)OC

> <PUBCHEM_CACTVS_TPSA>
79.8

> <PUBCHEM_MONOISOTOPIC_WEIGHT>
370.189257

> <PUBCHEM_TOTAL_CHARGE>
0

> <PUBCHEM_HEAVY_ATOM_COUNT>
27

> <PUBCHEM_ATOM_DEF_STEREO_COUNT>
0

> <PUBCHEM_ATOM_UDEF_STEREO_COUNT>
5

> <PUBCHEM_BOND_DEF_STEREO_COUNT>
1

> <PUBCHEM_BOND_UDEF_STEREO_COUNT>
0

> <PUBCHEM_ISOTOPIC_ATOM_COUNT>
0

> <PUBCHEM_COMPONENT_COUNT>
1

> <PUBCHEM_CACTVS_TAUTO_COUNT>
1

> <PUBCHEM_COORDINATE_TYPE>
1
5
255

> <PUBCHEM_BONDANNOTATIONS>
10  13  3
11  13  3
14  18  8
14  21  8
18  22  8
21  24  8
22  25  8
24  25  8
8  5  3
7  12  3
9  16  3

$$$$

