   Color/Form

     * Platelets from alcohol
     * Large, lustrous prisms from absolute alcohol, fine hair-like
       needles from dilute alcohol

   from [1]HSDB

   Melting Point
        284 deg C
   from [2]HSDB

   Octanol/Water Partition Coefficient
        log Kow = 7.92 (est)
   from [3]HSDB

   Solubilities

     * One part dissolves in 88 parts methanol, 178 alcohol, (35 boiling
       alcohol), 140 ether, 388 chloroform, 1675 carbon disulfide.
       Moderately soluble in acetone. Soluble in hot glacial acetic acid
       and in 2% alcoholic NaOH. Insoluble in petroleum ether.
     * In water, 1.02X10-4 mg/L at 25 deg C (est)

   from [4]HSDB

   Spectral Properties
        Specific optical rotation: +67.5 deg at 21 deg C/D ( c = 1 in N
   alcohol KOH)
   from [5]HSDB

   Vapor Pressure
        3.49X10-14 mm Hg at 25 deg C (est)
   from [6]HSDB

   Other Chemical/Physical Properties

     * MP: 289-290 deg C. Specific optical rotation: +62.3 deg at 25 deg
       C/D ( c = 1.15 in chloroform) /Ursolic acid acetate/
     * MP: 171 deg C. Specific optical rotation: +58 deg at 20 deg C/D ( c
       = 1.2 in pyridine) /Ursolic acid methyl ester/
     * MP: 246-247 deg C /Ursolic acid methyl ester acetate/
     * Henry's Law constant = 9.66X10-10 atm-cu m/mol at 25 deg C (est)
     * Hydroxyl radical reaction rate constant = 1.27X10-10 cu
       cm/molec-sec at 25 deg C (est)
     * Ozone radical reaction rate constant = 7.39X10-17 cu cm/molec-sec
       at 25 deg C (est)

   from [7]HSDB

   Computed Properties
   Molecular Weight                  456.70032 [g/mol]
   Molecular Formula                 C[30]H[48]O[3]
   XLogP3-AA                         7.3
   H-Bond Donor                      2
   H-Bond Acceptor                   3
   Rotatable Bond Count              1
   Exact Mass                        456.360345
   MonoIsotopic Mass                 456.360345
   Topological Polar Surface Area    57.5
   Heavy Atom Count                  33
   Formal Charge                     0
   Complexity                        874
   Isotope Atom Count                0
   Defined Atom Stereocenter Count   10
   Undefined Atom Stereocenter Count 0
   Defined Bond Stereocenter Count   0
   Undefined Bond Stereocenter Count 0
   Covalently-Bonded Unit Count      1
   Feature 3D Acceptor Count         3
   Feature 3D Donor Count            1
   Feature 3D Anion Count            1
   Feature 3D Hydrophobe Count       1
   Feature 3D Ring Count             5
   Effective Rotor Count             3.6
   Conformer Sampling RMSD           0.8
   CID Conformer Count               [8]1

References

   1. http://toxnet.nlm.nih.gov/cgi-bin/sis/search/r?dbs+hsdb:@term+@rn+@rel+77-52-1
   2. http://toxnet.nlm.nih.gov/cgi-bin/sis/search/r?dbs+hsdb:@term+@rn+@rel+77-52-1
   3. http://toxnet.nlm.nih.gov/cgi-bin/sis/search/r?dbs+hsdb:@term+@rn+@rel+77-52-1
   4. http://toxnet.nlm.nih.gov/cgi-bin/sis/search/r?dbs+hsdb:@term+@rn+@rel+77-52-1
   5. http://toxnet.nlm.nih.gov/cgi-bin/sis/search/r?dbs+hsdb:@term+@rn+@rel+77-52-1
   6. http://toxnet.nlm.nih.gov/cgi-bin/sis/search/r?dbs+hsdb:@term+@rn+@rel+77-52-1
   7. http://toxnet.nlm.nih.gov/cgi-bin/sis/search/r?dbs+hsdb:@term+@rn+@rel+77-52-1
   8. http://pubchem.ncbi.nlm.nih.gov/vw3d/vw3d.cgi?cid=64945
