972
  -OEChem-07051212502D

 19 18  0     1  0  0  0  0  0999 V2000
    2.5369    0.6550    0.0000 O   0  0  0  0  0  0  0  0  0  0  0  0
    5.1350    2.1550    0.0000 O   0  0  0  0  0  0  0  0  0  0  0  0
    3.4030   -1.8450    0.0000 O   0  0  0  0  0  0  0  0  0  0  0  0
    3.4030    2.1550    0.0000 O   0  0  0  0  0  0  0  0  0  0  0  0
    2.5369   -0.3450    0.0000 O   0  0  0  0  0  0  0  0  0  0  0  0
    6.8671    1.1550    0.0000 O   0  0  0  0  0  0  0  0  0  0  0  0
    6.0010   -0.3450    0.0000 O   0  0  0  0  0  0  0  0  0  0  0  0
    4.2690    0.6550    0.0000 C   0  0  3  0  0  0  0  0  0  0  0  0
    4.2690   -0.3450    0.0000 C   0  0  0  0  0  0  0  0  0  0  0  0
    5.1350    1.1550    0.0000 C   0  0  0  0  0  0  0  0  0  0  0  0
    3.4030    1.1550    0.0000 C   0  0  0  0  0  0  0  0  0  0  0  0
    3.4030   -0.8450    0.0000 C   0  0  0  0  0  0  0  0  0  0  0  0
    6.0010    0.6550    0.0000 C   0  0  0  0  0  0  0  0  0  0  0  0
    4.2690    1.2750    0.0000 H   0  0  0  0  0  0  0  0  0  0  0  0
    4.4810   -0.9276    0.0000 H   0  0  0  0  0  0  0  0  0  0  0  0
    4.8796   -0.2373    0.0000 H   0  0  0  0  0  0  0  0  0  0  0  0
    2.0000    0.9650    0.0000 H   0  0  0  0  0  0  0  0  0  0  0  0
    2.8660   -2.1550    0.0000 H   0  0  0  0  0  0  0  0  0  0  0  0
    7.4040    0.8450    0.0000 H   0  0  0  0  0  0  0  0  0  0  0  0
  1 11  1  0  0  0  0
  1 17  1  0  0  0  0
  2 10  2  0  0  0  0
  3 12  1  0  0  0  0
  3 18  1  0  0  0  0
  4 11  2  0  0  0  0
  5 12  2  0  0  0  0
  6 13  1  0  0  0  0
  6 19  1  0  0  0  0
  7 13  2  0  0  0  0
  8  9  1  0  0  0  0
  8 10  1  0  0  0  0
  8 11  1  0  0  0  0
  8 14  1  0  0  0  0
  9 12  1  0  0  0  0
  9 15  1  0  0  0  0
  9 16  1  0  0  0  0
 10 13  1  0  0  0  0
M  END
> <PUBCHEM_COMPOUND_CID>
972

> <PUBCHEM_COMPOUND_CANONICALIZED>
1

> <PUBCHEM_CACTVS_COMPLEXITY>
266

> <PUBCHEM_CACTVS_HBOND_ACCEPTOR>
7

> <PUBCHEM_CACTVS_HBOND_DONOR>
3

> <PUBCHEM_CACTVS_ROTATABLE_BOND>
5

> <PUBCHEM_CACTVS_SUBSKEYS>
AAADcYBgOAAAAAAAAAAAAAAAAAAAAAAAAAAAAAAAAAAAAAAAAAAAGgAACAAADQSAgAAACAAAAgAIAICQCAIAAAAAAAAAAAFAAAAAABYIAAAAQAAEIAAAAADLJgAKAAAAAAAAAAAAAAAAAAAAAAAAAAAAAA==

> <PUBCHEM_IUPAC_OPENEYE_NAME>
1-oxopropane-1,2,3-tricarboxylic acid

> <PUBCHEM_IUPAC_CAS_NAME>
1-oxopropane-1,2,3-tricarboxylic acid

> <PUBCHEM_IUPAC_NAME>
1-oxopropane-1,2,3-tricarboxylic acid

> <PUBCHEM_IUPAC_SYSTEMATIC_NAME>
1-oxidanylidenepropane-1,2,3-tricarboxylic acid

> <PUBCHEM_IUPAC_TRADITIONAL_NAME>
1-ketopropane-1,2,3-tricarboxylic acid

> <PUBCHEM_IUPAC_INCHI>
InChI=1S/C6H6O7/c7-3(8)1-2(5(10)11)4(9)6(12)13/h2H,1H2,(H,7,8)(H,10,11)(H,12,13)

> <PUBCHEM_IUPAC_INCHIKEY>
UFSCUAXLTRFIDC-UHFFFAOYSA-N

> <PUBCHEM_XLOGP3_AA>
-1.1

> <PUBCHEM_EXACT_MASS>
190.011353

> <PUBCHEM_MOLECULAR_FORMULA>
C6H6O7

> <PUBCHEM_MOLECULAR_WEIGHT>
190.10764

> <PUBCHEM_OPENEYE_CAN_SMILES>
C(C(C(=O)C(=O)O)C(=O)O)C(=O)O

> <PUBCHEM_OPENEYE_ISO_SMILES>
C(C(C(=O)C(=O)O)C(=O)O)C(=O)O

> <PUBCHEM_CACTVS_TPSA>
129

> <PUBCHEM_MONOISOTOPIC_WEIGHT>
190.011353

> <PUBCHEM_TOTAL_CHARGE>
0

> <PUBCHEM_HEAVY_ATOM_COUNT>
13

> <PUBCHEM_ATOM_DEF_STEREO_COUNT>
0

> <PUBCHEM_ATOM_UDEF_STEREO_COUNT>
1

> <PUBCHEM_BOND_DEF_STEREO_COUNT>
0

> <PUBCHEM_BOND_UDEF_STEREO_COUNT>
0

> <PUBCHEM_ISOTOPIC_ATOM_COUNT>
0

> <PUBCHEM_COMPONENT_COUNT>
1

> <PUBCHEM_CACTVS_TAUTO_COUNT>
3

> <PUBCHEM_COORDINATE_TYPE>
1
5
255

> <PUBCHEM_BONDANNOTATIONS>
8  10  3

$$$$

