5459829
  -OEChem-07051212482D

 98 98  0     0  0  0  0  0  0999 V2000
    9.9282    2.9400    0.0000 O   0  0  0  0  0  0  0  0  0  0  0  0
   10.7942    1.4400    0.0000 O   0  0  0  0  0  0  0  0  0  0  0  0
    3.0000   -2.0600    0.0000 C   0  0  0  0  0  0  0  0  0  0  0  0
    3.0000   -3.0600    0.0000 C   0  0  0  0  0  0  0  0  0  0  0  0
    3.8660   -3.5600    0.0000 C   0  0  0  0  0  0  0  0  0  0  0  0
    3.8660   -1.5600    0.0000 C   0  0  0  0  0  0  0  0  0  0  0  0
    4.7320   -3.0600    0.0000 C   0  0  0  0  0  0  0  0  0  0  0  0
    4.7320   -2.0600    0.0000 C   0  0  0  0  0  0  0  0  0  0  0  0
    2.0000   -2.0600    0.0000 C   0  0  0  0  0  0  0  0  0  0  0  0
    2.5000   -1.1940    0.0000 C   0  0  0  0  0  0  0  0  0  0  0  0
    3.8660   -0.5600    0.0000 C   0  0  0  0  0  0  0  0  0  0  0  0
    5.5981   -1.5600    0.0000 C   0  0  0  0  0  0  0  0  0  0  0  0
    4.7320   -0.0600    0.0000 C   0  0  0  0  0  0  0  0  0  0  0  0
   17.7224    2.4400    0.0000 C   0  0  0  0  0  0  0  0  0  0  0  0
   16.8564    2.9400    0.0000 C   0  0  0  0  0  0  0  0  0  0  0  0
   18.5885    2.9400    0.0000 C   0  0  0  0  0  0  0  0  0  0  0  0
   15.9904    2.4400    0.0000 C   0  0  0  0  0  0  0  0  0  0  0  0
   19.4545    2.4400    0.0000 C   0  0  0  0  0  0  0  0  0  0  0  0
   15.1244    2.9400    0.0000 C   0  0  0  0  0  0  0  0  0  0  0  0
   20.3205    2.9400    0.0000 C   0  0  0  0  0  0  0  0  0  0  0  0
   14.2583    2.4400    0.0000 C   0  0  0  0  0  0  0  0  0  0  0  0
    4.7320    0.9400    0.0000 C   0  0  0  0  0  0  0  0  0  0  0  0
   21.1865    2.4400    0.0000 C   0  0  0  0  0  0  0  0  0  0  0  0
   13.3923    2.9400    0.0000 C   0  0  0  0  0  0  0  0  0  0  0  0
   22.0526    2.9400    0.0000 C   0  0  0  0  0  0  0  0  0  0  0  0
   12.5263    2.4400    0.0000 C   0  0  0  0  0  0  0  0  0  0  0  0
    3.8660    1.4400    0.0000 C   0  0  0  0  0  0  0  0  0  0  0  0
   22.9186    2.4400    0.0000 C   0  0  0  0  0  0  0  0  0  0  0  0
    5.5981    1.4400    0.0000 C   0  0  0  0  0  0  0  0  0  0  0  0
   11.6603    2.9400    0.0000 C   0  0  0  0  0  0  0  0  0  0  0  0
   23.7846    2.9400    0.0000 C   0  0  0  0  0  0  0  0  0  0  0  0
    5.5981    2.4400    0.0000 C   0  0  0  0  0  0  0  0  0  0  0  0
   10.7942    2.4400    0.0000 C   0  0  0  0  0  0  0  0  0  0  0  0
    6.4641    2.9400    0.0000 C   0  0  0  0  0  0  0  0  0  0  0  0
    7.3301    2.4400    0.0000 C   0  0  0  0  0  0  0  0  0  0  0  0
    9.0622    2.4400    0.0000 C   0  0  0  0  0  0  0  0  0  0  0  0
    8.1962    2.9400    0.0000 C   0  0  0  0  0  0  0  0  0  0  0  0
    7.3301    1.4400    0.0000 C   0  0  0  0  0  0  0  0  0  0  0  0
    2.3894   -2.9523    0.0000 H   0  0  0  0  0  0  0  0  0  0  0  0
    2.7880   -3.6426    0.0000 H   0  0  0  0  0  0  0  0  0  0  0  0
    3.4675   -4.0350    0.0000 H   0  0  0  0  0  0  0  0  0  0  0  0
    4.2646   -4.0350    0.0000 H   0  0  0  0  0  0  0  0  0  0  0  0
    4.9441   -3.6426    0.0000 H   0  0  0  0  0  0  0  0  0  0  0  0
    5.3426   -2.9523    0.0000 H   0  0  0  0  0  0  0  0  0  0  0  0
    2.0000   -1.4400    0.0000 H   0  0  0  0  0  0  0  0  0  0  0  0
    1.3800   -2.0600    0.0000 H   0  0  0  0  0  0  0  0  0  0  0  0
    2.0000   -2.6800    0.0000 H   0  0  0  0  0  0  0  0  0  0  0  0
    3.0369   -0.8840    0.0000 H   0  0  0  0  0  0  0  0  0  0  0  0
    2.1900   -0.6570    0.0000 H   0  0  0  0  0  0  0  0  0  0  0  0
    1.9631   -1.5040    0.0000 H   0  0  0  0  0  0  0  0  0  0  0  0
    3.3291   -0.2500    0.0000 H   0  0  0  0  0  0  0  0  0  0  0  0
    5.9081   -2.0969    0.0000 H   0  0  0  0  0  0  0  0  0  0  0  0
    6.1350   -1.2500    0.0000 H   0  0  0  0  0  0  0  0  0  0  0  0
    5.2881   -1.0231    0.0000 H   0  0  0  0  0  0  0  0  0  0  0  0
    5.2690   -0.3700    0.0000 H   0  0  0  0  0  0  0  0  0  0  0  0
   17.3239    1.9650    0.0000 H   0  0  0  0  0  0  0  0  0  0  0  0
   18.1210    1.9650    0.0000 H   0  0  0  0  0  0  0  0  0  0  0  0
   17.2549    3.4150    0.0000 H   0  0  0  0  0  0  0  0  0  0  0  0
   16.4579    3.4150    0.0000 H   0  0  0  0  0  0  0  0  0  0  0  0
   18.9870    3.4150    0.0000 H   0  0  0  0  0  0  0  0  0  0  0  0
   18.1899    3.4150    0.0000 H   0  0  0  0  0  0  0  0  0  0  0  0
   15.5919    1.9650    0.0000 H   0  0  0  0  0  0  0  0  0  0  0  0
   16.3889    1.9650    0.0000 H   0  0  0  0  0  0  0  0  0  0  0  0
   19.0560    1.9650    0.0000 H   0  0  0  0  0  0  0  0  0  0  0  0
   19.8530    1.9650    0.0000 H   0  0  0  0  0  0  0  0  0  0  0  0
   15.5229    3.4150    0.0000 H   0  0  0  0  0  0  0  0  0  0  0  0
   14.7258    3.4150    0.0000 H   0  0  0  0  0  0  0  0  0  0  0  0
   20.7190    3.4150    0.0000 H   0  0  0  0  0  0  0  0  0  0  0  0
   19.9220    3.4150    0.0000 H   0  0  0  0  0  0  0  0  0  0  0  0
   13.8598    1.9650    0.0000 H   0  0  0  0  0  0  0  0  0  0  0  0
   14.6569    1.9650    0.0000 H   0  0  0  0  0  0  0  0  0  0  0  0
   20.7880    1.9650    0.0000 H   0  0  0  0  0  0  0  0  0  0  0  0
   21.5851    1.9650    0.0000 H   0  0  0  0  0  0  0  0  0  0  0  0
   13.7908    3.4150    0.0000 H   0  0  0  0  0  0  0  0  0  0  0  0
   12.9938    3.4150    0.0000 H   0  0  0  0  0  0  0  0  0  0  0  0
   22.4511    3.4150    0.0000 H   0  0  0  0  0  0  0  0  0  0  0  0
   21.6540    3.4150    0.0000 H   0  0  0  0  0  0  0  0  0  0  0  0
   12.1278    1.9650    0.0000 H   0  0  0  0  0  0  0  0  0  0  0  0
   12.9248    1.9650    0.0000 H   0  0  0  0  0  0  0  0  0  0  0  0
    4.1760    1.9769    0.0000 H   0  0  0  0  0  0  0  0  0  0  0  0
    3.3291    1.7500    0.0000 H   0  0  0  0  0  0  0  0  0  0  0  0
    3.5560    0.9031    0.0000 H   0  0  0  0  0  0  0  0  0  0  0  0
   22.5201    1.9650    0.0000 H   0  0  0  0  0  0  0  0  0  0  0  0
   23.3171    1.9650    0.0000 H   0  0  0  0  0  0  0  0  0  0  0  0
    6.1350    1.1300    0.0000 H   0  0  0  0  0  0  0  0  0  0  0  0
   12.0588    3.4150    0.0000 H   0  0  0  0  0  0  0  0  0  0  0  0
   11.2617    3.4150    0.0000 H   0  0  0  0  0  0  0  0  0  0  0  0
   24.0946    2.4031    0.0000 H   0  0  0  0  0  0  0  0  0  0  0  0
   24.3215    3.2500    0.0000 H   0  0  0  0  0  0  0  0  0  0  0  0
   23.4746    3.4769    0.0000 H   0  0  0  0  0  0  0  0  0  0  0  0
    5.0611    2.7500    0.0000 H   0  0  0  0  0  0  0  0  0  0  0  0
    6.4641    3.5600    0.0000 H   0  0  0  0  0  0  0  0  0  0  0  0
    8.6636    1.9650    0.0000 H   0  0  0  0  0  0  0  0  0  0  0  0
    9.4607    1.9650    0.0000 H   0  0  0  0  0  0  0  0  0  0  0  0
    8.1962    3.5600    0.0000 H   0  0  0  0  0  0  0  0  0  0  0  0
    6.7101    1.4400    0.0000 H   0  0  0  0  0  0  0  0  0  0  0  0
    7.3301    0.8200    0.0000 H   0  0  0  0  0  0  0  0  0  0  0  0
    7.9501    1.4400    0.0000 H   0  0  0  0  0  0  0  0  0  0  0  0
  1 33  1  0  0  0  0
  1 36  1  0  0  0  0
  2 33  2  0  0  0  0
  3  4  1  0  0  0  0
  3  6  1  0  0  0  0
  3  9  1  0  0  0  0
  3 10  1  0  0  0  0
  4  5  1  0  0  0  0
  4 39  1  0  0  0  0
  4 40  1  0  0  0  0
  5  7  1  0  0  0  0
  5 41  1  0  0  0  0
  5 42  1  0  0  0  0
  6  8  2  0  0  0  0
  6 11  1  0  0  0  0
  7  8  1  0  0  0  0
  7 43  1  0  0  0  0
  7 44  1  0  0  0  0
  8 12  1  0  0  0  0
  9 45  1  0  0  0  0
  9 46  1  0  0  0  0
  9 47  1  0  0  0  0
 10 48  1  0  0  0  0
 10 49  1  0  0  0  0
 10 50  1  0  0  0  0
 11 13  2  0  0  0  0
 11 51  1  0  0  0  0
 12 52  1  0  0  0  0
 12 53  1  0  0  0  0
 12 54  1  0  0  0  0
 13 22  1  0  0  0  0
 13 55  1  0  0  0  0
 14 15  1  0  0  0  0
 14 16  1  0  0  0  0
 14 56  1  0  0  0  0
 14 57  1  0  0  0  0
 15 17  1  0  0  0  0
 15 58  1  0  0  0  0
 15 59  1  0  0  0  0
 16 18  1  0  0  0  0
 16 60  1  0  0  0  0
 16 61  1  0  0  0  0
 17 19  1  0  0  0  0
 17 62  1  0  0  0  0
 17 63  1  0  0  0  0
 18 20  1  0  0  0  0
 18 64  1  0  0  0  0
 18 65  1  0  0  0  0
 19 21  1  0  0  0  0
 19 66  1  0  0  0  0
 19 67  1  0  0  0  0
 20 23  1  0  0  0  0
 20 68  1  0  0  0  0
 20 69  1  0  0  0  0
 21 24  1  0  0  0  0
 21 70  1  0  0  0  0
 21 71  1  0  0  0  0
 22 27  1  0  0  0  0
 22 29  2  0  0  0  0
 23 25  1  0  0  0  0
 23 72  1  0  0  0  0
 23 73  1  0  0  0  0
 24 26  1  0  0  0  0
 24 74  1  0  0  0  0
 24 75  1  0  0  0  0
 25 28  1  0  0  0  0
 25 76  1  0  0  0  0
 25 77  1  0  0  0  0
 26 30  1  0  0  0  0
 26 78  1  0  0  0  0
 26 79  1  0  0  0  0
 27 80  1  0  0  0  0
 27 81  1  0  0  0  0
 27 82  1  0  0  0  0
 28 31  1  0  0  0  0
 28 83  1  0  0  0  0
 28 84  1  0  0  0  0
 29 32  1  0  0  0  0
 29 85  1  0  0  0  0
 30 33  1  0  0  0  0
 30 86  1  0  0  0  0
 30 87  1  0  0  0  0
 31 88  1  0  0  0  0
 31 89  1  0  0  0  0
 31 90  1  0  0  0  0
 32 34  2  0  0  0  0
 32 91  1  0  0  0  0
 34 35  1  0  0  0  0
 34 92  1  0  0  0  0
 35 37  2  0  0  0  0
 35 38  1  0  0  0  0
 36 37  1  0  0  0  0
 36 93  1  0  0  0  0
 36 94  1  0  0  0  0
 37 95  1  0  0  0  0
 38 96  1  0  0  0  0
 38 97  1  0  0  0  0
 38 98  1  0  0  0  0
M  END
> <PUBCHEM_COMPOUND_CID>
5459829

> <PUBCHEM_COMPOUND_CANONICALIZED>
1

> <PUBCHEM_CACTVS_COMPLEXITY>
803

> <PUBCHEM_CACTVS_HBOND_ACCEPTOR>
2

> <PUBCHEM_CACTVS_HBOND_DONOR>
0

> <PUBCHEM_CACTVS_ROTATABLE_BOND>
21

> <PUBCHEM_CACTVS_SUBSKEYS>
AAADcfB8MAAAAAAAAAAAAAAAAAAAAAAAAAAgAAAAAAAAAAAAAAAAGgAAAAAADgCggAICCAAABACIAiDSCAAAAAAgAAAICAEAAAgIBBIAIQACEAAEgAAIoAOIyOCPAAAAAAAAAAAAAAAAAAAAAAAAAAAAAA==

> <PUBCHEM_IUPAC_OPENEYE_NAME>
[(2E,4Z,6E,8E)-3,7-dimethyl-9-(2,6,6-trimethylcyclohexen-1-yl)nona-2,4,6,8-tetraenyl] hexadecanoate

> <PUBCHEM_IUPAC_CAS_NAME>
hexadecanoic acid [(2E,4Z,6E,8E)-3,7-dimethyl-9-(2,6,6-trimethyl-1-cyclohexenyl)nona-2,4,6,8-tetraenyl] ester

> <PUBCHEM_IUPAC_NAME>
[(2E,4Z,6E,8E)-3,7-dimethyl-9-(2,6,6-trimethylcyclohexen-1-yl)nona-2,4,6,8-tetraenyl] hexadecanoate

> <PUBCHEM_IUPAC_SYSTEMATIC_NAME>
[(2E,4Z,6E,8E)-3,7-dimethyl-9-(2,6,6-trimethylcyclohexen-1-yl)nona-2,4,6,8-tetraenyl] hexadecanoate

> <PUBCHEM_IUPAC_TRADITIONAL_NAME>
palmitic acid [(2E,4Z,6E,8E)-3,7-dimethyl-9-(2,6,6-trimethylcyclohexen-1-yl)nona-2,4,6,8-tetraenyl] ester

> <PUBCHEM_IUPAC_INCHI>
InChI=1S/C36H60O2/c1-7-8-9-10-11-12-13-14-15-16-17-18-19-25-35(37)38-30-28-32(3)23-20-22-31(2)26-27-34-33(4)24-21-29-36(34,5)6/h20,22-23,26-28H,7-19,21,24-25,29-30H2,1-6H3/b23-20-,27-26+,31-22+,32-28+

> <PUBCHEM_IUPAC_INCHIKEY>
VYGQUTWHTHXGQB-SXFSSFKVSA-N

> <PUBCHEM_XLOGP3>
13.6

> <PUBCHEM_EXACT_MASS>
524.459331

> <PUBCHEM_MOLECULAR_FORMULA>
C36H60O2

> <PUBCHEM_MOLECULAR_WEIGHT>
524.8604

> <PUBCHEM_OPENEYE_CAN_SMILES>
CCCCCCCCCCCCCCCC(=O)OCC=C(C)C=CC=C(C)C=CC1=C(CCCC1(C)C)C

> <PUBCHEM_OPENEYE_ISO_SMILES>
CCCCCCCCCCCCCCCC(=O)OC/C=C(\C)/C=C\C=C(/C)\C=C\C1=C(CCCC1(C)C)C

> <PUBCHEM_CACTVS_TPSA>
26.3

> <PUBCHEM_MONOISOTOPIC_WEIGHT>
524.459331

> <PUBCHEM_TOTAL_CHARGE>
0

> <PUBCHEM_HEAVY_ATOM_COUNT>
38

> <PUBCHEM_ATOM_DEF_STEREO_COUNT>
0

> <PUBCHEM_ATOM_UDEF_STEREO_COUNT>
0

> <PUBCHEM_BOND_DEF_STEREO_COUNT>
4

> <PUBCHEM_BOND_UDEF_STEREO_COUNT>
0

> <PUBCHEM_ISOTOPIC_ATOM_COUNT>
0

> <PUBCHEM_COMPONENT_COUNT>
1

> <PUBCHEM_CACTVS_TAUTO_COUNT>
1

> <PUBCHEM_COORDINATE_TYPE>
1
5
255

$$$$

