   Color/Form

     * Biaxial elongated tablets, needles from 95% alcohol
     * Chemically pure p,p-DDT consists of white needles
     * Colorless crystals or off-white powder ...

   from [1]HSDB

   Odor

     * Odorless or with slight aromatic odor
     * It possesses fruit-like odor
     * ... Slight, aromatic odor.

   from [2]HSDB

   Boiling Point
        260 deg C; 186 deg C at 0.05 mm Hg
   from [3]HSDB

   Melting Point
        108.5 deg C
   from [4]HSDB

   Corrosivity
        Should not be kept in iron containers
   from [5]HSDB

   Density/Specific Gravity
        0.98 to 0.99
   from [6]HSDB

   Octanol/Water Partition Coefficient
        log Kow = 6.91
   from [7]HSDB

   Solubilities

     * Soluble in acetone, ether, benzene, carbon tetrachloride, kerosene,
       dioxane, and pyridine.
     * High solubility in fat (100,000 ppm)
     * Solubility, g/100 mL solvent: 58 acetone; 78 benzene; 42 benzyl
       benzoate; 45 carbon tetrachloride; 74 chlorobenzene; 116
       cyclohexanone; 2 g/100 ml 95% alcohol; 28 ethyl ether; 10 gasoline;
       3 isopropanol; 8-10 kerosene; 75 morpholine; 11 peanut oil; 10-16
       pine oil; 61 tetralin; 50 tributyl phosphate.
     * Practically insoluble in dilute acids, alkalies. ... Freely soluble
       in pyridine, dioxane; solubility in organic solvents increases with
       rise in temperatures.
     * Readily soluble in aromatic and chlorinated solvents; moderately
       soluble in polar organic solvents and petroleum oils. In
       cyclohexane 1000, dioxane 1000, dichloromethane 850, benzene 770,
       trichloroethylene 720, xylene 600, acetone 500, carbon
       tetrachloride 470, chloroform 310, diethyl ether 270, ethanol 60,
       methanol 40 (all in g/L, 25 deg C)
     * Pure DDT has the following approximate solubilities (g/100 mL of
       solvent at 27 deg C): o-dichlorobenzene, 68; crude kerosene, 8;
       refined kerosene, 4; methylated naphthalenes, 40-60; mineral oil,
       5; dichlorodifluoromethane, 2; dibutyl phthalate, 33
     * /DDT is/ highly lipid soluble.
     * In water, 5.50X10-3 mg/L at 25 deg C

   from [8]HSDB

   Spectral Properties

     * UV max (95% alcohol): 236 nm
     * Intensity of mass spectral peaks: 246 M/z (100%); 318 M/z (79%);
       248 M/z (66%); 316 M/z (61%)
     * MASS: 36324 (NIST/EPA/MSDC Mass Spectral Database, 1990 version):
       4961 (National Bureau of Standards)
     * IR: 15542 (Sadtler Research Laboratories Prism Collection)
     * UV: 4655 (Sadtler Research Laboratories Spectral Collection)
     * Raman: 773 (Sadtler Research Laboratories Spectral Collection)
     * 1H NMR: 620 (Varian Associates NMR Spectra Catalogue)

   from [9]HSDB

   Vapor Pressure
        1.6X10-7 mm Hg at 20 deg C
   from [10]HSDB

   Other Chemical/Physical Properties

     * Setting point of technical grade: 88.6 to 81.4 deg C
     * Waxy solid. MP: indefinite /Technical/
     * Odorless; tasteless /DDT and isomers/
     * VP: 10.2X10-7 torr at 30 deg C
     * Conversion factor for airborne concentrations: mg/cu m = 14.5 x ppm
       (Calculated from: mg/cu m = (molecular weight/24.45) X ppm,
       assuming standard temperature (25 deg C) and pressure (760 mm Hg
       [101.3 kPa]))
     * Henry's Law constant = 8.32X10-6 atm-cu m/mole at 25 deg C
     * Hydroxyl radical reaction rate constant = 3.4X10-12 cu cm/molec-sec
       at 25 deg C (est)

   from [11]HSDB

   Computed Properties
   Molecular Weight                  354.48626 [g/mol]
   Molecular Formula                 C[14]H[9]Cl[5]
   XLogP3                            6.9
   H-Bond Donor                      0
   H-Bond Acceptor                   0
   Rotatable Bond Count              2
   Exact Mass                        353.911739
   MonoIsotopic Mass                 351.914689
   Topological Polar Surface Area    0
   Heavy Atom Count                  19
   Formal Charge                     0
   Complexity                        250
   Isotope Atom Count                0
   Defined Atom Stereocenter Count   0
   Undefined Atom Stereocenter Count 0
   Defined Bond Stereocenter Count   0
   Undefined Bond Stereocenter Count 0
   Covalently-Bonded Unit Count      1
   Feature 3D Ring Count             2
   Effective Rotor Count             3
   Conformer Sampling RMSD           0.6
   CID Conformer Count               [12]2

References

   1. http://toxnet.nlm.nih.gov/cgi-bin/sis/search/r?dbs+hsdb:@term+@rn+@rel+50-29-3
   2. http://toxnet.nlm.nih.gov/cgi-bin/sis/search/r?dbs+hsdb:@term+@rn+@rel+50-29-3
   3. http://toxnet.nlm.nih.gov/cgi-bin/sis/search/r?dbs+hsdb:@term+@rn+@rel+50-29-3
   4. http://toxnet.nlm.nih.gov/cgi-bin/sis/search/r?dbs+hsdb:@term+@rn+@rel+50-29-3
   5. http://toxnet.nlm.nih.gov/cgi-bin/sis/search/r?dbs+hsdb:@term+@rn+@rel+50-29-3
   6. http://toxnet.nlm.nih.gov/cgi-bin/sis/search/r?dbs+hsdb:@term+@rn+@rel+50-29-3
   7. http://toxnet.nlm.nih.gov/cgi-bin/sis/search/r?dbs+hsdb:@term+@rn+@rel+50-29-3
   8. http://toxnet.nlm.nih.gov/cgi-bin/sis/search/r?dbs+hsdb:@term+@rn+@rel+50-29-3
   9. http://toxnet.nlm.nih.gov/cgi-bin/sis/search/r?dbs+hsdb:@term+@rn+@rel+50-29-3
  10. http://toxnet.nlm.nih.gov/cgi-bin/sis/search/r?dbs+hsdb:@term+@rn+@rel+50-29-3
  11. http://toxnet.nlm.nih.gov/cgi-bin/sis/search/r?dbs+hsdb:@term+@rn+@rel+50-29-3
  12. http://pubchem.ncbi.nlm.nih.gov/vw3d/vw3d.cgi?cid=3036
