   Color/Form

     * Hard, colorless crystals
     * DILUTED: IVORY-WHITE, POWDER; UNDILUTED: WHITE, CRYSTALLINE
       ROSETTES

   from [1]HSDB

   Odor
        ODORLESS
   from [2]HSDB

   Melting Point
        70 deg C
   from [3]HSDB

   Octanol/Water Partition Coefficient
        log Kow = 1.31
   from [4]HSDB

   Solubilities

     * Freely sol in acetone, alcohol ether
     * Freely soluble in chloroform.
     * In water, 550 mg/l @ 25 deg C

   from [5]HSDB

   Spectral Properties
        Specific optical rotation: +135 deg @ 20 deg C/D (alcohol, 1%)
   from [6]HSDB

   Computed Properties
   Molecular Weight                  236.13632 [g/mol]
   Molecular Formula                 C[6]H[8]N[2]O[8]
   XLogP3                            1.3
   H-Bond Donor                      0
   H-Bond Acceptor                   8
   Rotatable Bond Count              2
   Exact Mass                        236.028065
   MonoIsotopic Mass                 236.028065
   Topological Polar Surface Area    129
   Heavy Atom Count                  16
   Formal Charge                     0
   Complexity                        268
   Isotope Atom Count                0
   Defined Atom Stereocenter Count   4
   Undefined Atom Stereocenter Count 0
   Defined Bond Stereocenter Count   0
   Undefined Bond Stereocenter Count 0
   Covalently-Bonded Unit Count      1
   Feature 3D Acceptor Count         6
   Feature 3D Ring Count             2
   Effective Rotor Count             5.2
   Conformer Sampling RMSD           0.6
   CID Conformer Count               [7]22

References

   1. http://toxnet.nlm.nih.gov/cgi-bin/sis/search/r?dbs+hsdb:@term+@rn+@rel+87-33-2
   2. http://toxnet.nlm.nih.gov/cgi-bin/sis/search/r?dbs+hsdb:@term+@rn+@rel+87-33-2
   3. http://toxnet.nlm.nih.gov/cgi-bin/sis/search/r?dbs+hsdb:@term+@rn+@rel+87-33-2
   4. http://toxnet.nlm.nih.gov/cgi-bin/sis/search/r?dbs+hsdb:@term+@rn+@rel+87-33-2
   5. http://toxnet.nlm.nih.gov/cgi-bin/sis/search/r?dbs+hsdb:@term+@rn+@rel+87-33-2
   6. http://toxnet.nlm.nih.gov/cgi-bin/sis/search/r?dbs+hsdb:@term+@rn+@rel+87-33-2
   7. http://pubchem.ncbi.nlm.nih.gov/vw3d/vw3d.cgi?cid=6883
