   Color/Form

     * White needles from dil acetone
     * White or cream white crystalline powder
     * Crystals

   from [1]HSDB

   Odor
        Odorless
   from [2]HSDB

   Melting Point
        155 deg C
   from [3]HSDB

   Octanol/Water Partition Coefficient
        log Kow = 3.32
   from [4]HSDB

   Solubilities

     * In ethanol: 1 in 5; in chloroform: 1 in 2; in diethyl ether: 1 in
       100; in ethyl oleate: 1 in 150. Sol in acetone, dioxane and fixed
       oils
     * Sol in vegetable oils
     * In water, 23.4 mg/L at 25 deg C

   from [5]HSDB

   Spectral Properties

     * Specific optical rotation: +109 deg at 24 deg C/D (concentration by
       volume = 4 g in 100 ml alcohol)
     * Max absorption: 238 nm
     * SADTLER REFERENCE NUMBER: 727 (IR, PRISM); 13203 (IR, PRISM), 3128
       (NMR)
     * IR: 5450 (Coblentz Society Spectral Collection)
     * UV: 7-851 (Organic Electronic Spectral Data, Phillips et al, John
       Wiley & Sons, New York)
     * NMR: 11900 (Sadtler Research Laboratories Spectral Collection)
     * 13C NMR: 483 FT (Johnson and Jankowski, Carbon 13 NMR Spectra, John
       Wiley and Sons, NY)
     * MASS: 62026 (NIST/EPA/MSDC Mass Spectral Data Base, 1990 Version)
     * Intense mass spectral peaks: 124 m/z, 246 m/z, 288 m/z

   from [6]HSDB

   Vapor Pressure
        1.7X10-8 mm Hg at 25 deg C (est)
   from [7]HSDB

   Other Chemical/Physical Properties

     * Dextrorotatory in dioxane solution
     * Mp: 140-141 deg C /Testosterone acetate/
     * Crystals from methanolacetone; mp: 250-255 deg C (decomposition);
       specific optical rotation: +73 deg at 19 deg C/D (concentration by
       volume = 0.992 g in 100 ml methanol); freely sol in water
       /Testosterone beta-maltoside/
     * WHITE OR CREAMY WHITE CRYSTALS OR CRYSTALLINE POWDER. ODORLESS OR
       HAS SLIGHT ODOR. PRACTICALLY INSOL IN WATER; FREELY SOL IN ALC,
       CHLOROFORM, DIOXANE, ETHER /CYPIONATE/
     * Specific optical rotation: +87 deg at 25 deg C/D (CHCl3); mp:
       101-102 deg C. Soluble in oils. /17beta-Cyclopentaneproprionate/
     * WHITE OR CREAMY WHITE CRYSTALS OR CRYSTALLINE POWDER. ODORLESS OR
       HAS FAINT ODOR CHARACTERISTIC OF ENANTHIC ACID. PRACTICALLY INSOL
       IN WATER. 1 G IN ABOUT 0.3 ML ETHER. SOL IN VEGETABLE OILS
       /ENANTHATE/
     * Crystals. Mp: 36-37.5 deg C /Enanthate/
     * SOL IN CHLOROFORM /ENANTHATE/
     * WHITE OR CREAMY WHITE CRYSTALS OR CRYSTALLINE POWDER. ODORLESS.
       PRACTICALLY INSOL IN WATER; SOL IN VEGETABLE OILS. FREELY SOL IN
       ALC, DIOXANE, ETHER; FREELY SOL IN ORG SOLVENTS /PROPIONATE/
     * Stout prisms from alcohol and water, mp 118-122 deg C. Specific
       optical rotation = +83.0 to 90 deg at 25 C/D (100 mg in 10 ml
       dioxane). Freely soluble in pyridine and other organic solvents.
       /Propionate/
     * Henry's Law constant = 3.5X10-9 atm-cu m/mole at 25 deg C (est)
     * Hydroxyl radical reaction rate constant = 1.1X10-10 cu cm/molec-sec
       at 25 deg C (est)
     * Ozone radical reaction rate constant = 1.1X10-17 cu cm/molec-sec at
       25 deg C (est)

   from [8]HSDB

   Computed Properties
   Molecular Weight                  288.42442 [g/mol]
   Molecular Formula                 C[19]H[28]O[2]
   XLogP3                            3.3
   H-Bond Donor                      1
   H-Bond Acceptor                   2
   Rotatable Bond Count              0
   Tautomer Count                    5
   Exact Mass                        288.20893
   MonoIsotopic Mass                 288.20893
   Topological Polar Surface Area    37.3
   Heavy Atom Count                  21
   Formal Charge                     0
   Complexity                        508
   Isotope Atom Count                0
   Defined Atom Stereocenter Count   6
   Undefined Atom Stereocenter Count 0
   Defined Bond Stereocenter Count   0
   Undefined Bond Stereocenter Count 0
   Covalently-Bonded Unit Count      1
   Feature 3D Acceptor Count         2
   Feature 3D Donor Count            1
   Feature 3D Ring Count             4
   Effective Rotor Count             1.8
   Conformer Sampling RMSD           0.6
   CID Conformer Count               [9]1

References

   1. http://toxnet.nlm.nih.gov/cgi-bin/sis/search/r?dbs+hsdb:@term+@rn+@rel+58-22-0
   2. http://toxnet.nlm.nih.gov/cgi-bin/sis/search/r?dbs+hsdb:@term+@rn+@rel+58-22-0
   3. http://toxnet.nlm.nih.gov/cgi-bin/sis/search/r?dbs+hsdb:@term+@rn+@rel+58-22-0
   4. http://toxnet.nlm.nih.gov/cgi-bin/sis/search/r?dbs+hsdb:@term+@rn+@rel+58-22-0
   5. http://toxnet.nlm.nih.gov/cgi-bin/sis/search/r?dbs+hsdb:@term+@rn+@rel+58-22-0
   6. http://toxnet.nlm.nih.gov/cgi-bin/sis/search/r?dbs+hsdb:@term+@rn+@rel+58-22-0
   7. http://toxnet.nlm.nih.gov/cgi-bin/sis/search/r?dbs+hsdb:@term+@rn+@rel+58-22-0
   8. http://toxnet.nlm.nih.gov/cgi-bin/sis/search/r?dbs+hsdb:@term+@rn+@rel+58-22-0
   9. http://pubchem.ncbi.nlm.nih.gov/vw3d/vw3d.cgi?cid=6013
