251430
  -OEChem-07051213052D

 48 50  0     0  0  0  0  0  0999 V2000
    8.9282    0.4050    0.0000 O   0  0  0  0  0  0  0  0  0  0  0  0
    3.7320   -2.5950    0.0000 O   0  0  0  0  0  0  0  0  0  0  0  0
    3.7320    3.4050    0.0000 O   0  0  0  0  0  0  0  0  0  0  0  0
    8.9282    2.4050    0.0000 O   0  0  0  0  0  0  0  0  0  0  0  0
    5.4641   -3.5950    0.0000 O   0  0  0  0  0  0  0  0  0  0  0  0
    2.0000    2.4050    0.0000 O   0  0  0  0  0  0  0  0  0  0  0  0
    5.4641    0.4050    0.0000 C   0  0  0  0  0  0  0  0  0  0  0  0
    5.4641   -0.5950    0.0000 C   0  0  0  0  0  0  0  0  0  0  0  0
    6.3301    0.9050    0.0000 C   0  0  0  0  0  0  0  0  0  0  0  0
    4.5981    0.9050    0.0000 C   0  0  0  0  0  0  0  0  0  0  0  0
    7.1962    0.4050    0.0000 C   0  0  0  0  0  0  0  0  0  0  0  0
    4.5981   -1.0950    0.0000 C   0  0  0  0  0  0  0  0  0  0  0  0
    6.3301    1.9050    0.0000 C   0  0  0  0  0  0  0  0  0  0  0  0
    6.3301   -1.0950    0.0000 C   0  0  0  0  0  0  0  0  0  0  0  0
    4.5981    1.9050    0.0000 C   0  0  0  0  0  0  0  0  0  0  0  0
    3.7320    0.4050    0.0000 C   0  0  0  0  0  0  0  0  0  0  0  0
    4.5981   -2.0950    0.0000 C   0  0  0  0  0  0  0  0  0  0  0  0
    8.0622    0.9050    0.0000 C   0  0  0  0  0  0  0  0  0  0  0  0
    3.7320    2.4050    0.0000 C   0  0  0  0  0  0  0  0  0  0  0  0
    7.1962    2.4050    0.0000 C   0  0  0  0  0  0  0  0  0  0  0  0
    6.3301   -2.0950    0.0000 C   0  0  0  0  0  0  0  0  0  0  0  0
    5.4641   -2.5950    0.0000 C   0  0  0  0  0  0  0  0  0  0  0  0
    8.0622    1.9050    0.0000 C   0  0  0  0  0  0  0  0  0  0  0  0
    2.8660    0.9050    0.0000 C   0  0  0  0  0  0  0  0  0  0  0  0
    2.8660    1.9050    0.0000 C   0  0  0  0  0  0  0  0  0  0  0  0
    3.7320   -3.5950    0.0000 C   0  0  0  0  0  0  0  0  0  0  0  0
    9.7942    0.9050    0.0000 C   0  0  0  0  0  0  0  0  0  0  0  0
    2.8660    3.9050    0.0000 C   0  0  0  0  0  0  0  0  0  0  0  0
    4.0611   -0.7850    0.0000 H   0  0  0  0  0  0  0  0  0  0  0  0
    7.1962   -0.2150    0.0000 H   0  0  0  0  0  0  0  0  0  0  0  0
    6.8671   -0.7850    0.0000 H   0  0  0  0  0  0  0  0  0  0  0  0
    5.7932    2.2150    0.0000 H   0  0  0  0  0  0  0  0  0  0  0  0
    5.1350    2.2150    0.0000 H   0  0  0  0  0  0  0  0  0  0  0  0
    3.7320   -0.2150    0.0000 H   0  0  0  0  0  0  0  0  0  0  0  0
    6.8671   -2.4050    0.0000 H   0  0  0  0  0  0  0  0  0  0  0  0
    7.1962    3.0250    0.0000 H   0  0  0  0  0  0  0  0  0  0  0  0
    2.3291    0.5950    0.0000 H   0  0  0  0  0  0  0  0  0  0  0  0
    8.9282    3.0250    0.0000 H   0  0  0  0  0  0  0  0  0  0  0  0
    6.0010   -3.9050    0.0000 H   0  0  0  0  0  0  0  0  0  0  0  0
    3.1120   -3.5950    0.0000 H   0  0  0  0  0  0  0  0  0  0  0  0
    3.7320   -4.2150    0.0000 H   0  0  0  0  0  0  0  0  0  0  0  0
   10.1042    0.3681    0.0000 H   0  0  0  0  0  0  0  0  0  0  0  0
   10.3312    1.2150    0.0000 H   0  0  0  0  0  0  0  0  0  0  0  0
    9.4842    1.4419    0.0000 H   0  0  0  0  0  0  0  0  0  0  0  0
    4.3520   -3.5950    0.0000 H   0  0  0  0  0  0  0  0  0  0  0  0
    3.1760    4.4419    0.0000 H   0  0  0  0  0  0  0  0  0  0  0  0
    2.3291    4.2150    0.0000 H   0  0  0  0  0  0  0  0  0  0  0  0
    2.5560    3.3681    0.0000 H   0  0  0  0  0  0  0  0  0  0  0  0
  1 18  1  0  0  0  0
  1 27  1  0  0  0  0
  2 17  1  0  0  0  0
  2 26  1  0  0  0  0
  3 19  1  0  0  0  0
  3 28  1  0  0  0  0
  4 23  1  0  0  0  0
  4 38  1  0  0  0  0
  5 22  1  0  0  0  0
  5 39  1  0  0  0  0
  6 25  2  0  0  0  0
  7  8  1  0  0  0  0
  7  9  1  0  0  0  0
  7 10  2  0  0  0  0
  8 12  2  0  0  0  0
  8 14  1  0  0  0  0
  9 11  2  0  0  0  0
  9 13  1  0  0  0  0
 10 15  1  0  0  0  0
 10 16  1  0  0  0  0
 11 18  1  0  0  0  0
 11 30  1  0  0  0  0
 12 17  1  0  0  0  0
 12 29  1  0  0  0  0
 13 20  2  0  0  0  0
 13 32  1  0  0  0  0
 14 21  2  0  0  0  0
 14 31  1  0  0  0  0
 15 19  2  0  0  0  0
 15 33  1  0  0  0  0
 16 24  2  0  0  0  0
 16 34  1  0  0  0  0
 17 22  2  0  0  0  0
 18 23  2  0  0  0  0
 19 25  1  0  0  0  0
 20 23  1  0  0  0  0
 20 36  1  0  0  0  0
 21 22  1  0  0  0  0
 21 35  1  0  0  0  0
 24 25  1  0  0  0  0
 24 37  1  0  0  0  0
 26 40  1  0  0  0  0
 26 41  1  0  0  0  0
 26 45  1  0  0  0  0
 27 42  1  0  0  0  0
 27 43  1  0  0  0  0
 27 44  1  0  0  0  0
 28 46  1  0  0  0  0
 28 47  1  0  0  0  0
 28 48  1  0  0  0  0
M  END
> <PUBCHEM_COMPOUND_CID>
251430

> <PUBCHEM_COMPOUND_CANONICALIZED>
1

> <PUBCHEM_CACTVS_COMPLEXITY>
634

> <PUBCHEM_CACTVS_HBOND_ACCEPTOR>
6

> <PUBCHEM_CACTVS_HBOND_DONOR>
2

> <PUBCHEM_CACTVS_ROTATABLE_BOND>
5

> <PUBCHEM_CACTVS_SUBSKEYS>
AAADceB4OAAAAAAAAAAAAAAAAAAAAAAAAAAwYIAAAAAAAAABQAAAGgAACAAADASAmAIyBoAABgCIAqBSAAICCAAgIAAIiABGiMgNJiKGMR6AcCMkwBELuYeAwPAOIAABAAAAQABAAAIAAACAAAAAAAAAAA==

> <PUBCHEM_IUPAC_OPENEYE_NAME>
4-[bis(4-hydroxy-3-methoxy-phenyl)methylene]-2-methoxy-cyclohexa-2,5-dien-1-one

> <PUBCHEM_IUPAC_CAS_NAME>
4-[bis(4-hydroxy-3-methoxyphenyl)methylidene]-2-methoxy-1-cyclohexa-2,5-dienone

> <PUBCHEM_IUPAC_NAME>
4-[bis(4-hydroxy-3-methoxyphenyl)methylidene]-2-methoxycyclohexa-2,5-dien-1-one

> <PUBCHEM_IUPAC_SYSTEMATIC_NAME>
4-[bis(3-methoxy-4-oxidanyl-phenyl)methylidene]-2-methoxy-cyclohexa-2,5-dien-1-one

> <PUBCHEM_IUPAC_TRADITIONAL_NAME>
4-[bis(4-hydroxy-3-methoxy-phenyl)methylene]-2-methoxy-cyclohexa-2,5-dien-1-one

> <PUBCHEM_IUPAC_INCHI>
InChI=1S/C22H20O6/c1-26-19-10-13(4-7-16(19)23)22(14-5-8-17(24)20(11-14)27-2)15-6-9-18(25)21(12-15)28-3/h4-12,23-24H,1-3H3

> <PUBCHEM_IUPAC_INCHIKEY>
PXKHQWSDWIEGLZ-UHFFFAOYSA-N

> <PUBCHEM_XLOGP3_AA>
4

> <PUBCHEM_EXACT_MASS>
380.125988

> <PUBCHEM_MOLECULAR_FORMULA>
C22H20O6

> <PUBCHEM_MOLECULAR_WEIGHT>
380.3906

> <PUBCHEM_OPENEYE_CAN_SMILES>
COC1=CC(=C(C2=CC(=C(C=C2)O)OC)C3=CC(=C(C=C3)O)OC)C=CC1=O

> <PUBCHEM_OPENEYE_ISO_SMILES>
COC1=CC(=C(C2=CC(=C(C=C2)O)OC)C3=CC(=C(C=C3)O)OC)C=CC1=O

> <PUBCHEM_CACTVS_TPSA>
85.2

> <PUBCHEM_MONOISOTOPIC_WEIGHT>
380.125988

> <PUBCHEM_TOTAL_CHARGE>
0

> <PUBCHEM_HEAVY_ATOM_COUNT>
28

> <PUBCHEM_ATOM_DEF_STEREO_COUNT>
0

> <PUBCHEM_ATOM_UDEF_STEREO_COUNT>
0

> <PUBCHEM_BOND_DEF_STEREO_COUNT>
0

> <PUBCHEM_BOND_UDEF_STEREO_COUNT>
0

> <PUBCHEM_ISOTOPIC_ATOM_COUNT>
0

> <PUBCHEM_COMPONENT_COUNT>
1

> <PUBCHEM_CACTVS_TAUTO_COUNT>
9

> <PUBCHEM_COORDINATE_TYPE>
1
5
255

> <PUBCHEM_BONDANNOTATIONS>
11  18  8
12  17  8
13  20  8
14  21  8
17  22  8
18  23  8
20  23  8
21  22  8
8  12  8
8  14  8
9  11  8
9  13  8

$$$$

