   Color/Form
        Clear, colorless liquid
   from [1]HSDB

   Odor
        Characteristic odor resembling geranium leaves
   from [2]HSDB

   Boiling Point
        212 DEG C AT 760 MM HG
   from [3]HSDB

   Melting Point
        170-2 deg C
   from [4]HSDB

   Dissociation Constants
        pKa = 9.9
   from [5]HSDB

   Octanol/Water Partition Coefficient
        log Kow= 2.07
   from [6]HSDB

   pH
        A saturated soln in water is alkaline to litmus
   from [7]HSDB

   Solubilities

     * 0.5 g/ml of water
     * SOL IN ETHANOL, DIETHYL ETHER
     * Miscible with chloroform

   from [8]HSDB

   Spectral Properties

     * UV: 1105 (Absorption Spectra in the UV and visible Regions,
       Academic Press, New York) /Propane, 2-methylamino-1-phenyl,
       hydrochloride/
     * MASS: 415 (National Bureau of Standards EPA-NIH Mass Spectra Data
       Base, NSRDS-NBS-63)
     * Intense mass spectral peaks: 58 m/z, 91 m/z, 134 m/z

   from [9]HSDB

   Other Chemical/Physical Properties

     * ODORLESS; SPECIFIC OPTICAL ROTATION: +16 TO +19 DEG;
       /METHAMPHETAMINE HYDROCHLORIDE/
     * The drug occurs as white crystals or as a white, crystalline powder
       and is freely soluble in water (1:2) and in alcohol (1:3).
       /Methamphetamine hydrochloride/
     * INDEX OF REFRACTION: 1.530 (ALPHA), 1.537 (BETA), 1.615 (GAMMA);
       1.5101 @ 25 DEG C/D; SOLUBLE IN CHLOROFORM /METHAMPHETAMINE
       HYDROCHLORIDE/
     * Crystals, mp 170-175 deg C. Bitter taste. Specific optical
       rotation: +14 to +20 deg. Sol in water, alcohol, chloroform.
       Practically insol in ether. A 1% aq soln is neutral or slightly
       acid to litmus. /Methamphetamine hydrochloride/
     * Methamphetamine the dextrorotatory isomer of
       phenylisopropylmethylamine.
     * Wt/ml, 0.921 to 0.922 g
     * MASS: 446 (National Bureau of Standards EPA-NIH Mass Spectra Data
       Base, NSRDS-NBS-63) /Methamphetamine hydrochloride/

   from [10]HSDB

   Computed Properties
   Molecular Weight                  149.2328 [g/mol]
   Molecular Formula                 C[10]H[15]N
   XLogP3                            2.1
   H-Bond Donor                      1
   H-Bond Acceptor                   1
   Rotatable Bond Count              3
   Exact Mass                        149.120449
   MonoIsotopic Mass                 149.120449
   Topological Polar Surface Area    12
   Heavy Atom Count                  11
   Formal Charge                     0
   Complexity                        95
   Isotope Atom Count                0
   Defined Atom Stereocenter Count   1
   Undefined Atom Stereocenter Count 0
   Defined Bond Stereocenter Count   0
   Undefined Bond Stereocenter Count 0
   Covalently-Bonded Unit Count      1
   Feature 3D Donor Count            1
   Feature 3D Cation Count           1
   Feature 3D Ring Count             1
   Effective Rotor Count             3
   Conformer Sampling RMSD           0.6
   CID Conformer Count               [11]7

References

   1. http://toxnet.nlm.nih.gov/cgi-bin/sis/search/r?dbs+hsdb:@term+@rn+@rel+537-46-2
   2. http://toxnet.nlm.nih.gov/cgi-bin/sis/search/r?dbs+hsdb:@term+@rn+@rel+537-46-2
   3. http://toxnet.nlm.nih.gov/cgi-bin/sis/search/r?dbs+hsdb:@term+@rn+@rel+537-46-2
   4. http://toxnet.nlm.nih.gov/cgi-bin/sis/search/r?dbs+hsdb:@term+@rn+@rel+537-46-2
   5. http://toxnet.nlm.nih.gov/cgi-bin/sis/search/r?dbs+hsdb:@term+@rn+@rel+537-46-2
   6. http://toxnet.nlm.nih.gov/cgi-bin/sis/search/r?dbs+hsdb:@term+@rn+@rel+537-46-2
   7. http://toxnet.nlm.nih.gov/cgi-bin/sis/search/r?dbs+hsdb:@term+@rn+@rel+537-46-2
   8. http://toxnet.nlm.nih.gov/cgi-bin/sis/search/r?dbs+hsdb:@term+@rn+@rel+537-46-2
   9. http://toxnet.nlm.nih.gov/cgi-bin/sis/search/r?dbs+hsdb:@term+@rn+@rel+537-46-2
  10. http://toxnet.nlm.nih.gov/cgi-bin/sis/search/r?dbs+hsdb:@term+@rn+@rel+537-46-2
  11. http://pubchem.ncbi.nlm.nih.gov/vw3d/vw3d.cgi?cid=10836
