23724655
  -OEChem-07051213082D

 37 39  0     1  0  0  0  0  0999 V2000
    6.3301    2.2327    0.0000 O   0  0  0  0  0  0  0  0  0  0  0  0
    6.3301   -0.7673    0.0000 O   0  0  0  0  0  0  0  0  0  0  0  0
    3.7320    1.7327    0.0000 O   0  0  0  0  0  0  0  0  0  0  0  0
    2.0000   -1.2673    0.0000 O   0  0  0  0  0  0  0  0  0  0  0  0
    9.8602    2.2568    0.0000 O   0  0  0  0  0  0  0  0  0  0  0  0
    5.4641    0.7327    0.0000 C   0  0  1  0  0  0  0  0  0  0  0  0
    6.3301    0.2327    0.0000 C   0  0  3  0  0  0  0  0  0  0  0  0
    5.4641    1.7327    0.0000 C   0  0  0  0  0  0  0  0  0  0  0  0
    7.1962    0.7327    0.0000 C   0  0  0  0  0  0  0  0  0  0  0  0
    4.5981    0.2327    0.0000 C   0  0  0  0  0  0  0  0  0  0  0  0
    7.1962    1.7327    0.0000 C   0  0  0  0  0  0  0  0  0  0  0  0
    8.0901    0.1980    0.0000 C   0  0  0  0  0  0  0  0  0  0  0  0
    3.7320    0.7327    0.0000 C   0  0  0  0  0  0  0  0  0  0  0  0
    4.5981   -0.7673    0.0000 C   0  0  0  0  0  0  0  0  0  0  0  0
    8.0901    2.2673    0.0000 C   0  0  0  0  0  0  0  0  0  0  0  0
    8.9962    0.7119    0.0000 C   0  0  0  0  0  0  0  0  0  0  0  0
    8.9962    1.7535    0.0000 C   0  0  0  0  0  0  0  0  0  0  0  0
    2.8660    0.2327    0.0000 C   0  0  0  0  0  0  0  0  0  0  0  0
    3.7320   -1.2673    0.0000 C   0  0  0  0  0  0  0  0  0  0  0  0
    2.8660   -0.7673    0.0000 C   0  0  0  0  0  0  0  0  0  0  0  0
    2.0000   -2.2673    0.0000 C   0  0  0  0  0  0  0  0  0  0  0  0
    5.4641   -0.1173    0.0000 H   0  0  0  0  0  0  0  0  0  0  0  0
    6.8671   -0.0773    0.0000 H   0  0  0  0  0  0  0  0  0  0  0  0
    5.2520    2.3153    0.0000 H   0  0  0  0  0  0  0  0  0  0  0  0
    4.8535    1.6250    0.0000 H   0  0  0  0  0  0  0  0  0  0  0  0
    8.0829   -0.4220    0.0000 H   0  0  0  0  0  0  0  0  0  0  0  0
    5.1350   -1.0773    0.0000 H   0  0  0  0  0  0  0  0  0  0  0  0
    6.8671   -1.0773    0.0000 H   0  0  0  0  0  0  0  0  0  0  0  0
    8.0829    2.8873    0.0000 H   0  0  0  0  0  0  0  0  0  0  0  0
    9.5319    0.3998    0.0000 H   0  0  0  0  0  0  0  0  0  0  0  0
    2.3291    0.5427    0.0000 H   0  0  0  0  0  0  0  0  0  0  0  0
    3.7320   -1.8873    0.0000 H   0  0  0  0  0  0  0  0  0  0  0  0
    3.1951    2.0427    0.0000 H   0  0  0  0  0  0  0  0  0  0  0  0
   10.3984    1.9489    0.0000 H   0  0  0  0  0  0  0  0  0  0  0  0
    1.3800   -2.2673    0.0000 H   0  0  0  0  0  0  0  0  0  0  0  0
    2.0000   -2.8873    0.0000 H   0  0  0  0  0  0  0  0  0  0  0  0
    2.6200   -2.2673    0.0000 H   0  0  0  0  0  0  0  0  0  0  0  0
  1  8  1  0  0  0  0
  1 11  1  0  0  0  0
  2  7  1  0  0  0  0
  2 28  1  0  0  0  0
  3 13  1  0  0  0  0
  3 33  1  0  0  0  0
  4 20  1  0  0  0  0
  4 21  1  0  0  0  0
  5 17  1  0  0  0  0
  5 34  1  0  0  0  0
  6  7  1  0  0  0  0
  6  8  1  0  0  0  0
  6 10  1  0  0  0  0
  6 22  1  1  0  0  0
  7  9  1  0  0  0  0
  7 23  1  0  0  0  0
  8 24  1  0  0  0  0
  8 25  1  0  0  0  0
  9 11  2  0  0  0  0
  9 12  1  0  0  0  0
 10 13  2  0  0  0  0
 10 14  1  0  0  0  0
 11 15  1  0  0  0  0
 12 16  2  0  0  0  0
 12 26  1  0  0  0  0
 13 18  1  0  0  0  0
 14 19  2  0  0  0  0
 14 27  1  0  0  0  0
 15 17  2  0  0  0  0
 15 29  1  0  0  0  0
 16 17  1  0  0  0  0
 16 30  1  0  0  0  0
 18 20  2  0  0  0  0
 18 31  1  0  0  0  0
 19 20  1  0  0  0  0
 19 32  1  0  0  0  0
 21 35  1  0  0  0  0
 21 36  1  0  0  0  0
 21 37  1  0  0  0  0
M  END
> <PUBCHEM_COMPOUND_CID>
23724655

> <PUBCHEM_COMPOUND_CANONICALIZED>
1

> <PUBCHEM_CACTVS_COMPLEXITY>
350

> <PUBCHEM_CACTVS_HBOND_ACCEPTOR>
5

> <PUBCHEM_CACTVS_HBOND_DONOR>
3

> <PUBCHEM_CACTVS_ROTATABLE_BOND>
2

> <PUBCHEM_CACTVS_SUBSKEYS>
AAADceB4OAAAAAAAAAAAAAAAAAAAAAAAAAA0YIAAAAAAAACRQAAAGgAACAAADRSgmAIyBoAABgCAAiBCAAACCAAgIAAIiAAGCIgMNyKGMRqCeCClwBUIuAfA4PwOoAAACAAIAABAAAAQABAAAAAAAAAAAA==

> <PUBCHEM_IUPAC_OPENEYE_NAME>
(3R)-3-(2-hydroxy-4-methoxy-phenyl)chromane-4,7-diol

> <PUBCHEM_IUPAC_CAS_NAME>
(3R)-3-(2-hydroxy-4-methoxyphenyl)-3,4-dihydro-2H-1-benzopyran-4,7-diol

> <PUBCHEM_IUPAC_NAME>
(3R)-3-(2-hydroxy-4-methoxyphenyl)-3,4-dihydro-2H-chromene-4,7-diol

> <PUBCHEM_IUPAC_SYSTEMATIC_NAME>
(3R)-3-(4-methoxy-2-oxidanyl-phenyl)-3,4-dihydro-2H-chromene-4,7-diol

> <PUBCHEM_IUPAC_TRADITIONAL_NAME>
(3R)-3-(2-hydroxy-4-methoxy-phenyl)chroman-4,7-diol

> <PUBCHEM_IUPAC_INCHI>
InChI=1S/C16H16O5/c1-20-10-3-5-11(14(18)7-10)13-8-21-15-6-9(17)2-4-12(15)16(13)19/h2-7,13,16-19H,8H2,1H3/t13-,16?/m0/s1

> <PUBCHEM_IUPAC_INCHIKEY>
YZBBUYKPTHDZHF-KNVGNIICSA-N

> <PUBCHEM_XLOGP3_AA>
1.8

> <PUBCHEM_EXACT_MASS>
288.099774

> <PUBCHEM_MOLECULAR_FORMULA>
C16H16O5

> <PUBCHEM_MOLECULAR_WEIGHT>
288.29524

> <PUBCHEM_OPENEYE_CAN_SMILES>
COC1=CC(=C(C=C1)C2COC3=C(C2O)C=CC(=C3)O)O

> <PUBCHEM_OPENEYE_ISO_SMILES>
COC1=CC(=C(C=C1)[C@@H]2COC3=C(C2O)C=CC(=C3)O)O

> <PUBCHEM_CACTVS_TPSA>
79.2

> <PUBCHEM_MONOISOTOPIC_WEIGHT>
288.099774

> <PUBCHEM_TOTAL_CHARGE>
0

> <PUBCHEM_HEAVY_ATOM_COUNT>
21

> <PUBCHEM_ATOM_DEF_STEREO_COUNT>
1

> <PUBCHEM_ATOM_UDEF_STEREO_COUNT>
1

> <PUBCHEM_BOND_DEF_STEREO_COUNT>
0

> <PUBCHEM_BOND_UDEF_STEREO_COUNT>
0

> <PUBCHEM_ISOTOPIC_ATOM_COUNT>
0

> <PUBCHEM_COMPONENT_COUNT>
1

> <PUBCHEM_CACTVS_TAUTO_COUNT>
8

> <PUBCHEM_COORDINATE_TYPE>
1
5
255

> <PUBCHEM_BONDANNOTATIONS>
10  13  8
10  14  8
11  15  8
12  16  8
13  18  8
14  19  8
15  17  8
16  17  8
18  20  8
19  20  8
7  2  3
6  22  5
9  11  8
9  12  8

$$$$

