   Color/Form
        NEEDLES FROM DIL ACETIC ACID
   from [1]HSDB

   Melting Point
        88 DEG C
   from [2]HSDB

   Solubilities

     * PRACTICALLY INSOL IN WATER, ALKALIES; SOL IN ALCOHOL
     * MORE SOL IN BENZENE THAN P-CHLOROACETANILIDE
     * VERY SOL IN ETHER, HOT BENZENE

   from [3]HSDB

   Spectral Properties
        INDEX OF REFRACTION (95% ETHANOL): 240 NM (LOG E= 4.02)
   from [4]HSDB

   Other Chemical/Physical Properties
        SUBLIMES AT ABOUT 50-60 DEG C
   from [5]HSDB

   Computed Properties
   Molecular Weight                  169.60822 [g/mol]
   Molecular Formula                 C[8]H[8]ClNO
   XLogP3                            1.3
   H-Bond Donor                      1
   H-Bond Acceptor                   1
   Rotatable Bond Count              1
   Tautomer Count                    3
   Exact Mass                        169.029442
   MonoIsotopic Mass                 169.029442
   Topological Polar Surface Area    29.1
   Heavy Atom Count                  11
   Formal Charge                     0
   Complexity                        149
   Isotope Atom Count                0
   Defined Atom Stereocenter Count   0
   Undefined Atom Stereocenter Count 0
   Defined Bond Stereocenter Count   0
   Undefined Bond Stereocenter Count 0
   Covalently-Bonded Unit Count      1
   Feature 3D Acceptor Count         1
   Feature 3D Donor Count            1
   Feature 3D Ring Count             1
   Effective Rotor Count             2
   Conformer Sampling RMSD           0.4
   CID Conformer Count               [6]3

References

   1. http://toxnet.nlm.nih.gov/cgi-bin/sis/search/r?dbs+hsdb:@term+@rn+@rel+533-17-5
   2. http://toxnet.nlm.nih.gov/cgi-bin/sis/search/r?dbs+hsdb:@term+@rn+@rel+533-17-5
   3. http://toxnet.nlm.nih.gov/cgi-bin/sis/search/r?dbs+hsdb:@term+@rn+@rel+533-17-5
   4. http://toxnet.nlm.nih.gov/cgi-bin/sis/search/r?dbs+hsdb:@term+@rn+@rel+533-17-5
   5. http://toxnet.nlm.nih.gov/cgi-bin/sis/search/r?dbs+hsdb:@term+@rn+@rel+533-17-5
   6. http://pubchem.ncbi.nlm.nih.gov/vw3d/vw3d.cgi?cid=10777
