   Color/Form

     * Colorless liquid
     * At low temperatures a crystalline solid
     * Colorless liquid ... [Note: The pure compound is a crystalline
       solid below 12 degrees F. Often used in an aqueous solution].

   from [1]HSDB

   Odor

     * ODORLESS, OR HAVING AN ODOR RESEMBLING THAT OF OZONE
     * ... Slightly sharp odor ...

   from [2]HSDB

   Taste

     * SLIGHTLY ACID
     * Bitter

   from [3]HSDB

   Boiling Point
        152 deg C
   from [4]HSDB

   Melting Point
        -0.43 deg C
   from [5]HSDB

   Critical Temperature and Pressure
        Critical temperature: 457 deg C; critical pressure: 20.99 Mpa
   from [6]HSDB

   Density/Specific Gravity
        1.4425 @ 25 deg C
   from [7]HSDB

   Dissociation Constants
        pKa = 11.75
   from [8]HSDB

   Heat of Vaporization
        1.517 kJ/g @ 25 deg C
   from [9]HSDB

   pH
        Weak acid; H2O2 concn wt% = 35, 50, 70, 90; corresponding true pH:
   4.6, 4.3, 4.4, 5.1
   from [10]HSDB

   Solubilities

     * Miscible with water; sol in ether; insol in petroleum ether
     * Soluble in alcohol
     * Hydrogen peroxide and highly concentrated aqueous solutions (>65
       wt%) are soluble in a variety of organic solvents such as
       carboxylic esters.
     * In water, 1X10+6 mg/l @ 25 deg C

   from [11]HSDB

   Spectral Properties
        Index of refraction: 1.4061 @ 28 deg C
   from [12]HSDB

   Surface Tension
        80.4 dynes/cm @ 20 deg C
   from [13]HSDB

   Vapor Pressure
        1.97 mm Hg @ 25 deg C
   from [14]HSDB

   Viscosity
        1.245 centipoises (liquid)
   from [15]HSDB

   Other Chemical/Physical Properties

     * Strong oxidizer
     * Density, solid: 1.71 g/cc
     * Density of 3% soln: about 1.00; density of 30% soln: about 1.11
     * Heat of fusion: 12.5 kJ/mol
     * Heat of Decomposition: -1220 Btu/lb = -676 cal/g = -28.3X10+5 J/kg
     * Heat of Solution: -20.2 Btu/lb = -11.2 cal/g = -0.469X10+5 J/kg
     * Distillable in high vacuum; may decompose violently if traces of
       impurities are present; decomposed by many organic solvents;
       Solutions of hydrogen peroxide gradually deteriorate and are
       usually stabilized by the addition of acetanilide or similar
       organic materials; agitation or contact with rough surfaces, metals
       or many other substances accelerates decomposition; rapidly
       decomposes with alkalies and finely divided metals; the presence of
       mineral acids renders it more stable
     * ...forms salts with various metals
     * Henry's Law = 7.04X10-9 atm cu m/mol @ 25 deg C

   from [16]HSDB

   Computed Properties
   Molecular Weight                  34.01468 [g/mol]
   Molecular Formula                 H[2]O[2]
   XLogP3-AA                         -0.9
   H-Bond Donor                      2
   H-Bond Acceptor                   2
   Rotatable Bond Count              0
   Exact Mass                        34.005479
   MonoIsotopic Mass                 34.005479
   Topological Polar Surface Area    40.5
   Heavy Atom Count                  2
   Formal Charge                     0
   Complexity                        0
   Isotope Atom Count                0
   Defined Atom Stereocenter Count   0
   Undefined Atom Stereocenter Count 0
   Defined Bond Stereocenter Count   0
   Undefined Bond Stereocenter Count 0
   Covalently-Bonded Unit Count      1
   Effective Rotor Count             0
   Conformer Sampling RMSD           0.4
   CID Conformer Count               [17]1

References

   1. http://toxnet.nlm.nih.gov/cgi-bin/sis/search/r?dbs+hsdb:@term+@rn+@rel+7722-84-1
   2. http://toxnet.nlm.nih.gov/cgi-bin/sis/search/r?dbs+hsdb:@term+@rn+@rel+7722-84-1
   3. http://toxnet.nlm.nih.gov/cgi-bin/sis/search/r?dbs+hsdb:@term+@rn+@rel+7722-84-1
   4. http://toxnet.nlm.nih.gov/cgi-bin/sis/search/r?dbs+hsdb:@term+@rn+@rel+7722-84-1
   5. http://toxnet.nlm.nih.gov/cgi-bin/sis/search/r?dbs+hsdb:@term+@rn+@rel+7722-84-1
   6. http://toxnet.nlm.nih.gov/cgi-bin/sis/search/r?dbs+hsdb:@term+@rn+@rel+7722-84-1
   7. http://toxnet.nlm.nih.gov/cgi-bin/sis/search/r?dbs+hsdb:@term+@rn+@rel+7722-84-1
   8. http://toxnet.nlm.nih.gov/cgi-bin/sis/search/r?dbs+hsdb:@term+@rn+@rel+7722-84-1
   9. http://toxnet.nlm.nih.gov/cgi-bin/sis/search/r?dbs+hsdb:@term+@rn+@rel+7722-84-1
  10. http://toxnet.nlm.nih.gov/cgi-bin/sis/search/r?dbs+hsdb:@term+@rn+@rel+7722-84-1
  11. http://toxnet.nlm.nih.gov/cgi-bin/sis/search/r?dbs+hsdb:@term+@rn+@rel+7722-84-1
  12. http://toxnet.nlm.nih.gov/cgi-bin/sis/search/r?dbs+hsdb:@term+@rn+@rel+7722-84-1
  13. http://toxnet.nlm.nih.gov/cgi-bin/sis/search/r?dbs+hsdb:@term+@rn+@rel+7722-84-1
  14. http://toxnet.nlm.nih.gov/cgi-bin/sis/search/r?dbs+hsdb:@term+@rn+@rel+7722-84-1
  15. http://toxnet.nlm.nih.gov/cgi-bin/sis/search/r?dbs+hsdb:@term+@rn+@rel+7722-84-1
  16. http://toxnet.nlm.nih.gov/cgi-bin/sis/search/r?dbs+hsdb:@term+@rn+@rel+7722-84-1
  17. http://pubchem.ncbi.nlm.nih.gov/vw3d/vw3d.cgi?cid=784
