17395596
  -OEChem-06241222512D

 32 33  0     0  0  0  0  0  0999 V2000
    2.8660   -4.3512    0.0000 F   0  0  0  0  0  0  0  0  0  0  0  0
    6.3776    2.7420    0.0000 O   0  0  0  0  0  0  0  0  0  0  0  0
    2.8660    1.6488    0.0000 O   0  0  0  0  0  0  0  0  0  0  0  0
    3.7320    0.1488    0.0000 N   0  0  0  0  0  0  0  0  0  0  0  0
    4.5981    1.6488    0.0000 C   0  0  0  0  0  0  0  0  0  0  0  0
    4.5981    2.6488    0.0000 C   0  0  0  0  0  0  0  0  0  0  0  0
    2.8660   -0.3512    0.0000 C   0  0  0  0  0  0  0  0  0  0  0  0
    3.7320    1.1488    0.0000 C   0  0  0  0  0  0  0  0  0  0  0  0
    5.4641    3.1488    0.0000 C   0  0  0  0  0  0  0  0  0  0  0  0
    2.8660   -1.3512    0.0000 C   0  0  0  0  0  0  0  0  0  0  0  0
    5.5686    4.1433    0.0000 C   0  0  0  0  0  0  0  0  0  0  0  0
    2.0000   -1.8512    0.0000 C   0  0  0  0  0  0  0  0  0  0  0  0
    3.7320   -1.8512    0.0000 C   0  0  0  0  0  0  0  0  0  0  0  0
    6.5468    4.3512    0.0000 C   0  0  0  0  0  0  0  0  0  0  0  0
    2.0000   -2.8512    0.0000 C   0  0  0  0  0  0  0  0  0  0  0  0
    3.7320   -2.8512    0.0000 C   0  0  0  0  0  0  0  0  0  0  0  0
    7.0468    3.4852    0.0000 C   0  0  0  0  0  0  0  0  0  0  0  0
    2.8660   -3.3512    0.0000 C   0  0  0  0  0  0  0  0  0  0  0  0
    4.8101    1.0662    0.0000 H   0  0  0  0  0  0  0  0  0  0  0  0
    5.2087    1.7564    0.0000 H   0  0  0  0  0  0  0  0  0  0  0  0
    4.3860    3.2314    0.0000 H   0  0  0  0  0  0  0  0  0  0  0  0
    3.9875    2.5411    0.0000 H   0  0  0  0  0  0  0  0  0  0  0  0
    2.6540    0.2314    0.0000 H   0  0  0  0  0  0  0  0  0  0  0  0
    2.2554   -0.4589    0.0000 H   0  0  0  0  0  0  0  0  0  0  0  0
    4.2690   -0.1612    0.0000 H   0  0  0  0  0  0  0  0  0  0  0  0
    5.1079    4.5582    0.0000 H   0  0  0  0  0  0  0  0  0  0  0  0
    1.4631   -1.5412    0.0000 H   0  0  0  0  0  0  0  0  0  0  0  0
    4.2690   -1.5412    0.0000 H   0  0  0  0  0  0  0  0  0  0  0  0
    6.7990    4.9176    0.0000 H   0  0  0  0  0  0  0  0  0  0  0  0
    1.4631   -3.1612    0.0000 H   0  0  0  0  0  0  0  0  0  0  0  0
    4.2690   -3.1612    0.0000 H   0  0  0  0  0  0  0  0  0  0  0  0
    7.6634    3.4204    0.0000 H   0  0  0  0  0  0  0  0  0  0  0  0
  1 18  1  0  0  0  0
  2  9  1  0  0  0  0
  2 17  1  0  0  0  0
  3  8  2  0  0  0  0
  4  7  1  0  0  0  0
  4  8  1  0  0  0  0
  4 25  1  0  0  0  0
  5  6  1  0  0  0  0
  5  8  1  0  0  0  0
  5 19  1  0  0  0  0
  5 20  1  0  0  0  0
  6  9  1  0  0  0  0
  6 21  1  0  0  0  0
  6 22  1  0  0  0  0
  7 10  1  0  0  0  0
  7 23  1  0  0  0  0
  7 24  1  0  0  0  0
  9 11  2  0  0  0  0
 10 12  2  0  0  0  0
 10 13  1  0  0  0  0
 11 14  1  0  0  0  0
 11 26  1  0  0  0  0
 12 15  1  0  0  0  0
 12 27  1  0  0  0  0
 13 16  2  0  0  0  0
 13 28  1  0  0  0  0
 14 17  2  0  0  0  0
 14 29  1  0  0  0  0
 15 18  2  0  0  0  0
 15 30  1  0  0  0  0
 16 18  1  0  0  0  0
 16 31  1  0  0  0  0
 17 32  1  0  0  0  0
M  END
> <PUBCHEM_COMPOUND_CID>
17395596

> <PUBCHEM_COMPOUND_CANONICALIZED>
1

> <PUBCHEM_CACTVS_COMPLEXITY>
265

> <PUBCHEM_CACTVS_HBOND_ACCEPTOR>
3

> <PUBCHEM_CACTVS_HBOND_DONOR>
1

> <PUBCHEM_CACTVS_ROTATABLE_BOND>
5

> <PUBCHEM_CACTVS_SUBSKEYS>
AAADccByMQAAAAAAAAAAAAAAAAAAASAAAAAwAAAAAAAAAAABwAAAHwAQAAAADAThmA4wBILABECIAqlSkACCCAAkIAAIiIEODMgMJjKEtRuGOSjk1hGIqYe/yCCOAAAAAAAAAAAAAAAAAAAAAAAAAAAAAA==

> <PUBCHEM_IUPAC_OPENEYE_NAME>
N-[(4-fluorophenyl)methyl]-3-(2-furyl)propanamide

> <PUBCHEM_IUPAC_CAS_NAME>
N-[(4-fluorophenyl)methyl]-3-(2-furanyl)propanamide

> <PUBCHEM_IUPAC_NAME>
N-[(4-fluorophenyl)methyl]-3-(furan-2-yl)propanamide

> <PUBCHEM_IUPAC_SYSTEMATIC_NAME>
N-[(4-fluorophenyl)methyl]-3-(furan-2-yl)propanamide

> <PUBCHEM_IUPAC_TRADITIONAL_NAME>
N-(4-fluorobenzyl)-3-(2-furyl)propionamide

> <PUBCHEM_IUPAC_INCHI>
InChI=1S/C14H14FNO2/c15-12-5-3-11(4-6-12)10-16-14(17)8-7-13-2-1-9-18-13/h1-6,9H,7-8,10H2,(H,16,17)

> <PUBCHEM_IUPAC_INCHIKEY>
WSPDRNJQVNOTAY-UHFFFAOYSA-N

> <PUBCHEM_XLOGP3_AA>
2.1

> <PUBCHEM_EXACT_MASS>
247.100857

> <PUBCHEM_MOLECULAR_FORMULA>
C14H14FNO2

> <PUBCHEM_MOLECULAR_WEIGHT>
247.264863

> <PUBCHEM_OPENEYE_CAN_SMILES>
C1=COC(=C1)CCC(=O)NCC2=CC=C(C=C2)F

> <PUBCHEM_OPENEYE_ISO_SMILES>
C1=COC(=C1)CCC(=O)NCC2=CC=C(C=C2)F

> <PUBCHEM_CACTVS_TPSA>
42.2

> <PUBCHEM_MONOISOTOPIC_WEIGHT>
247.100857

> <PUBCHEM_TOTAL_CHARGE>
0

> <PUBCHEM_HEAVY_ATOM_COUNT>
18

> <PUBCHEM_ATOM_DEF_STEREO_COUNT>
0

> <PUBCHEM_ATOM_UDEF_STEREO_COUNT>
0

> <PUBCHEM_BOND_DEF_STEREO_COUNT>
0

> <PUBCHEM_BOND_UDEF_STEREO_COUNT>
0

> <PUBCHEM_ISOTOPIC_ATOM_COUNT>
0

> <PUBCHEM_COMPONENT_COUNT>
1

> <PUBCHEM_CACTVS_TAUTO_COUNT>
2

> <PUBCHEM_COORDINATE_TYPE>
1
5
255

> <PUBCHEM_BONDANNOTATIONS>
10  12  8
10  13  8
11  14  8
12  15  8
13  16  8
14  17  8
15  18  8
16  18  8
2  17  8
2  9  8
9  11  8

$$$$

