   Chemical and Physical Properties References

   [1]USDA ARS - USDA chemical properties
   from [2]ChemIDplus

   Color/Form

     * WHITE, CRYSTALLINE SOLID
     * Colorless to tan, crystalline solid ...

   from [3]HSDB

   Odor

     * Odorless
     * ... Mild, chemical odor.

   from [4]HSDB

   Melting Point
        Approximately 200 deg C (rearranges above that point)
   from [5]HSDB

   Corrosivity
        Slightly corrosive to metals
   from [6]HSDB

   Density/Specific Gravity
        Specific gravity 1.7 @ 20 deg C.
   from [7]HSDB

   Octanol/Water Partition Coefficient
        log Kow= 5.20
   from [8]HSDB

   Solubilities

     * Solubility in g/100 ml solvent at 25 deg C: acetone 17, benzene
       13.8, carbon tetrachloride 3.3, hexane 7.1, and xylene 18.3
     * In water, 0.25 mg/l @ 25 deg C
     * Solubility of endrin in fresh water: 200 ug/l.
     * Insol in methanol

   from [9]HSDB

   Spectral Properties
        Intense mass spectral peaks: 81 m/z (100%), 263 m/z (98%), 265 m/z
   (65%), 261 m/z (65%)
   from [10]HSDB

   Vapor Pressure
        3X10-6 mm Hg @ 20 deg C
   from [11]HSDB

   Other Chemical/Physical Properties

     * AN ISOMER OF DIELDRIN
     * LIGHT TAN COLOR /TECHNICAL GRADE/
     * MILD CHEMICAL ODOR /TECHNICAL GRADE/
     * Compatible with non-acidic fertilizers, herbicides, fungicides, and
       insecticides.
     * Decomposes @ 245 deg C
     * Henry's Law constant = 6.36X10-6 atm-cu m/mole @ 25 deg C

   from [12]HSDB

   Computed Properties
   Molecular Weight                  380.90932 [g/mol]
   Molecular Formula                 C[12]H[8]Cl[6]O
   XLogP3-AA                         3.7
   H-Bond Donor                      0
   H-Bond Acceptor                   1
   Rotatable Bond Count              0
   Exact Mass                        379.867681
   MonoIsotopic Mass                 377.870631
   Topological Polar Surface Area    12.5
   Heavy Atom Count                  19
   Formal Charge                     0
   Complexity                        516
   Isotope Atom Count                0
   Defined Atom Stereocenter Count   6
   Undefined Atom Stereocenter Count 2
   Defined Bond Stereocenter Count   0
   Undefined Bond Stereocenter Count 0
   Covalently-Bonded Unit Count      1

References

   1. http://www.ars.usda.gov/SP2UserFiles/ad_hoc/12755100DatabaseFiles/PesticidePropertiesDatabase/IndividualPesticideFiles/ENDRIN.TXT
   2. http://chem.sis.nlm.nih.gov/chemidplus/
   3. http://toxnet.nlm.nih.gov/cgi-bin/sis/search/r?dbs+hsdb:@term+@rn+@rel+72-20-8
   4. http://toxnet.nlm.nih.gov/cgi-bin/sis/search/r?dbs+hsdb:@term+@rn+@rel+72-20-8
   5. http://toxnet.nlm.nih.gov/cgi-bin/sis/search/r?dbs+hsdb:@term+@rn+@rel+72-20-8
   6. http://toxnet.nlm.nih.gov/cgi-bin/sis/search/r?dbs+hsdb:@term+@rn+@rel+72-20-8
   7. http://toxnet.nlm.nih.gov/cgi-bin/sis/search/r?dbs+hsdb:@term+@rn+@rel+72-20-8
   8. http://toxnet.nlm.nih.gov/cgi-bin/sis/search/r?dbs+hsdb:@term+@rn+@rel+72-20-8
   9. http://toxnet.nlm.nih.gov/cgi-bin/sis/search/r?dbs+hsdb:@term+@rn+@rel+72-20-8
  10. http://toxnet.nlm.nih.gov/cgi-bin/sis/search/r?dbs+hsdb:@term+@rn+@rel+72-20-8
  11. http://toxnet.nlm.nih.gov/cgi-bin/sis/search/r?dbs+hsdb:@term+@rn+@rel+72-20-8
  12. http://toxnet.nlm.nih.gov/cgi-bin/sis/search/r?dbs+hsdb:@term+@rn+@rel+72-20-8
