10206
  -OEChem-07051212572D

 83 90  0     1  0  0  0  0  0999 V2000
    7.3198    1.9473    0.0000 O   0  0  0  0  0  0  0  0  0  0  0  0
    7.4517    3.0363    0.0000 O   0  0  0  0  0  0  0  0  0  0  0  0
    8.8455    3.8410    0.0000 O   0  0  0  0  0  0  0  0  0  0  0  0
    6.2969    3.8670    0.0000 O   0  0  0  0  0  0  0  0  0  0  0  0
    5.1093   -3.5336    0.0000 O   0  0  0  0  0  0  0  0  0  0  0  0
    3.1646   -4.3535    0.0000 O   0  0  0  0  0  0  0  0  0  0  0  0
    9.9367   -0.7001    0.0000 N   0  0  3  0  0  0  0  0  0  0  0  0
    2.6865    1.0405    0.0000 N   0  0  3  0  0  0  0  0  0  0  0  0
    9.0386   -0.1723    0.0000 C   0  0  2  0  0  0  0  0  0  0  0  0
    9.0547    0.8692    0.0000 C   0  0  0  0  0  0  0  0  0  0  0  0
    3.6393    0.8081    0.0000 C   0  0  1  0  0  0  0  0  0  0  0  0
    9.9207    1.3692    0.0000 C   0  0  0  0  0  0  0  0  0  0  0  0
   10.8388   -0.1792    0.0000 C   0  0  0  0  0  0  0  0  0  0  0  0
   10.8307    0.8624    0.0000 C   0  0  0  0  0  0  0  0  0  0  0  0
    4.3417    1.5800    0.0000 C   0  0  0  0  0  0  0  0  0  0  0  0
    9.0638   -1.2156    0.0000 C   0  0  0  0  0  0  0  0  0  0  0  0
    2.3998    1.9784    0.0000 C   0  0  0  0  0  0  0  0  0  0  0  0
    4.0206    2.5067    0.0000 C   0  0  0  0  0  0  0  0  0  0  0  0
    3.0599    2.7038    0.0000 C   0  0  0  0  0  0  0  0  0  0  0  0
    8.1887    1.3692    0.0000 C   0  0  0  0  0  0  0  0  0  0  0  0
    3.2490   -0.1597    0.0000 C   0  0  0  0  0  0  0  0  0  0  0  0
    9.9207    2.3692    0.0000 C   0  0  0  0  0  0  0  0  0  0  0  0
    8.1887    2.3692    0.0000 C   0  0  0  0  0  0  0  0  0  0  0  0
    5.2685    2.0597    0.0000 C   0  0  0  0  0  0  0  0  0  0  0  0
    9.9328   -1.7001    0.0000 C   0  0  0  0  0  0  0  0  0  0  0  0
    6.3042    2.1874    0.0000 C   0  0  0  0  0  0  0  0  0  0  0  0
    9.0547    2.8692    0.0000 C   0  0  0  0  0  0  0  0  0  0  0  0
    8.7248   -2.2026    0.0000 C   0  0  0  0  0  0  0  0  0  0  0  0
    4.7728    3.1611    0.0000 C   0  0  0  0  0  0  0  0  0  0  0  0
    2.0000    0.3134    0.0000 C   0  0  0  0  0  0  0  0  0  0  0  0
    3.2193   -1.2029    0.0000 C   0  0  0  0  0  0  0  0  0  0  0  0
    5.7603    3.0231    0.0000 C   0  0  0  0  0  0  0  0  0  0  0  0
    7.8444   -2.6782    0.0000 C   0  0  0  0  0  0  0  0  0  0  0  0
    8.0640   -3.0103    0.0000 C   0  0  0  0  0  0  0  0  0  0  0  0
    7.8568    3.9441    0.0000 C   0  0  0  0  0  0  0  0  0  0  0  0
    3.5540   -2.1914    0.0000 C   0  0  0  0  0  0  0  0  0  0  0  0
    2.4178   -1.8026    0.0000 C   0  0  0  0  0  0  0  0  0  0  0  0
    4.2113   -3.0020    0.0000 C   0  0  0  0  0  0  0  0  0  0  0  0
    6.9812   -3.1842    0.0000 C   0  0  0  0  0  0  0  0  0  0  0  0
    7.1637   -3.5381    0.0000 C   0  0  0  0  0  0  0  0  0  0  0  0
    6.1361   -3.7201    0.0000 C   0  0  0  0  0  0  0  0  0  0  0  0
    2.4443   -2.8033    0.0000 C   0  0  0  0  0  0  0  0  0  0  0  0
    3.2764   -3.3597    0.0000 C   0  0  0  0  0  0  0  0  0  0  0  0
    5.8344    4.7536    0.0000 C   0  0  0  0  0  0  0  0  0  0  0  0
    2.2482   -4.7536    0.0000 C   0  0  0  0  0  0  0  0  0  0  0  0
    8.1887   -0.1760    0.0000 H   0  0  0  0  0  0  0  0  0  0  0  0
    4.4651    0.6067    0.0000 H   0  0  0  0  0  0  0  0  0  0  0  0
   11.0523   -0.7613    0.0000 H   0  0  0  0  0  0  0  0  0  0  0  0
   11.4488   -0.0685    0.0000 H   0  0  0  0  0  0  0  0  0  0  0  0
   11.4424    0.7610    0.0000 H   0  0  0  0  0  0  0  0  0  0  0  0
   11.0353    1.4476    0.0000 H   0  0  0  0  0  0  0  0  0  0  0  0
    9.5233   -1.6319    0.0000 H   0  0  0  0  0  0  0  0  0  0  0  0
    8.4511   -1.1209    0.0000 H   0  0  0  0  0  0  0  0  0  0  0  0
    2.0227    2.4705    0.0000 H   0  0  0  0  0  0  0  0  0  0  0  0
    1.8486    1.6947    0.0000 H   0  0  0  0  0  0  0  0  0  0  0  0
    3.2904    3.2794    0.0000 H   0  0  0  0  0  0  0  0  0  0  0  0
    2.5345    3.0330    0.0000 H   0  0  0  0  0  0  0  0  0  0  0  0
    2.8120    0.2801    0.0000 H   0  0  0  0  0  0  0  0  0  0  0  0
    3.8559   -0.2865    0.0000 H   0  0  0  0  0  0  0  0  0  0  0  0
   10.4577    2.6792    0.0000 H   0  0  0  0  0  0  0  0  0  0  0  0
    5.0852    2.6520    0.0000 H   0  0  0  0  0  0  0  0  0  0  0  0
    9.3128   -1.6977    0.0000 H   0  0  0  0  0  0  0  0  0  0  0  0
    9.9304   -2.3200    0.0000 H   0  0  0  0  0  0  0  0  0  0  0  0
   10.5528   -1.7024    0.0000 H   0  0  0  0  0  0  0  0  0  0  0  0
    4.5964    3.7555    0.0000 H   0  0  0  0  0  0  0  0  0  0  0  0
    1.5492    0.7390    0.0000 H   0  0  0  0  0  0  0  0  0  0  0  0
    1.5744   -0.1374    0.0000 H   0  0  0  0  0  0  0  0  0  0  0  0
    2.4508   -0.1122    0.0000 H   0  0  0  0  0  0  0  0  0  0  0  0
    7.5403   -2.1379    0.0000 H   0  0  0  0  0  0  0  0  0  0  0  0
    8.4671   -3.4815    0.0000 H   0  0  0  0  0  0  0  0  0  0  0  0
    7.9855    4.5506    0.0000 H   0  0  0  0  0  0  0  0  0  0  0  0
    7.2672    4.1358    0.0000 H   0  0  0  0  0  0  0  0  0  0  0  0
    3.0110   -2.4908    0.0000 H   0  0  0  0  0  0  0  0  0  0  0  0
    1.8598   -1.5324    0.0000 H   0  0  0  0  0  0  0  0  0  0  0  0
    6.6584   -2.6549    0.0000 H   0  0  0  0  0  0  0  0  0  0  0  0
    7.3779   -4.1199    0.0000 H   0  0  0  0  0  0  0  0  0  0  0  0
    1.9013   -3.1026    0.0000 H   0  0  0  0  0  0  0  0  0  0  0  0
    6.3840    5.0403    0.0000 H   0  0  0  0  0  0  0  0  0  0  0  0
    5.5476    5.3032    0.0000 H   0  0  0  0  0  0  0  0  0  0  0  0
    5.2847    4.4668    0.0000 H   0  0  0  0  0  0  0  0  0  0  0  0
    2.0001   -4.1854    0.0000 H   0  0  0  0  0  0  0  0  0  0  0  0
    1.6799   -5.0016    0.0000 H   0  0  0  0  0  0  0  0  0  0  0  0
    2.4962   -5.3218    0.0000 H   0  0  0  0  0  0  0  0  0  0  0  0
  1 20  1  0  0  0  0
  1 26  1  0  0  0  0
  2 23  1  0  0  0  0
  2 35  1  0  0  0  0
  3 27  1  0  0  0  0
  3 35  1  0  0  0  0
  4 32  1  0  0  0  0
  4 44  1  0  0  0  0
  5 38  1  0  0  0  0
  5 41  1  0  0  0  0
  6 43  1  0  0  0  0
  6 45  1  0  0  0  0
  7  9  1  0  0  0  0
  7 13  1  0  0  0  0
  7 25  1  0  0  0  0
  8 11  1  0  0  0  0
  8 17  1  0  0  0  0
  8 30  1  0  0  0  0
  9 10  1  0  0  0  0
  9 16  1  0  0  0  0
  9 46  1  6  0  0  0
 10 12  1  0  0  0  0
 10 20  2  0  0  0  0
 11 15  1  0  0  0  0
 11 21  1  0  0  0  0
 11 47  1  6  0  0  0
 12 14  1  0  0  0  0
 12 22  2  0  0  0  0
 13 14  1  0  0  0  0
 13 48  1  0  0  0  0
 13 49  1  0  0  0  0
 14 50  1  0  0  0  0
 14 51  1  0  0  0  0
 15 18  1  0  0  0  0
 15 24  2  0  0  0  0
 16 28  1  0  0  0  0
 16 52  1  0  0  0  0
 16 53  1  0  0  0  0
 17 19  1  0  0  0  0
 17 54  1  0  0  0  0
 17 55  1  0  0  0  0
 18 19  1  0  0  0  0
 18 29  2  0  0  0  0
 19 56  1  0  0  0  0
 19 57  1  0  0  0  0
 20 23  1  0  0  0  0
 21 31  1  0  0  0  0
 21 58  1  0  0  0  0
 21 59  1  0  0  0  0
 22 27  1  0  0  0  0
 22 60  1  0  0  0  0
 23 27  2  0  0  0  0
 24 26  1  0  0  0  0
 24 61  1  0  0  0  0
 25 62  1  0  0  0  0
 25 63  1  0  0  0  0
 25 64  1  0  0  0  0
 26 32  2  0  0  0  0
 28 33  2  0  0  0  0
 28 34  1  0  0  0  0
 29 32  1  0  0  0  0
 29 65  1  0  0  0  0
 30 66  1  0  0  0  0
 30 67  1  0  0  0  0
 30 68  1  0  0  0  0
 31 36  2  0  0  0  0
 31 37  1  0  0  0  0
 33 39  1  0  0  0  0
 33 69  1  0  0  0  0
 34 40  2  0  0  0  0
 34 70  1  0  0  0  0
 35 71  1  0  0  0  0
 35 72  1  0  0  0  0
 36 38  1  0  0  0  0
 36 73  1  0  0  0  0
 37 42  2  0  0  0  0
 37 74  1  0  0  0  0
 38 43  2  0  0  0  0
 39 41  2  0  0  0  0
 39 75  1  0  0  0  0
 40 41  1  0  0  0  0
 40 76  1  0  0  0  0
 42 43  1  0  0  0  0
 42 77  1  0  0  0  0
 44 78  1  0  0  0  0
 44 79  1  0  0  0  0
 44 80  1  0  0  0  0
 45 81  1  0  0  0  0
 45 82  1  0  0  0  0
 45 83  1  0  0  0  0
M  END
> <PUBCHEM_COMPOUND_CID>
10206

> <PUBCHEM_COMPOUND_CANONICALIZED>
1

> <PUBCHEM_CACTVS_COMPLEXITY>
994

> <PUBCHEM_CACTVS_HBOND_ACCEPTOR>
8

> <PUBCHEM_CACTVS_HBOND_DONOR>
0

> <PUBCHEM_CACTVS_ROTATABLE_BOND>
2

> <PUBCHEM_CACTVS_SUBSKEYS>
AAADcfB/OAAAAAAAAAAAAAAAAAAAASAAAAA8eMGCAAAAAEixVAAAHgAAAAAADCzBmAcyDoMABACAAiBCAACCCAAgIAAIiAAOjIgdJyKEsRumOCrnwBWOqAew8P8OoAABCAAYQABAAAIQADCAAAAAAAAAAA==

> <PUBCHEM_IUPAC_INCHI>
InChI=1S/C37H38N2O6/c1-38-13-11-24-18-31(41-4)33-20-27(24)28(38)16-23-7-10-30(40-3)32(17-23)44-26-8-5-22(6-9-26)15-29-35-25(12-14-39(29)2)19-34-36(37(35)45-33)43-21-42-34/h5-10,17-20,28-29H,11-16,21H2,1-4H3/t28-,29+/m1/s1

> <PUBCHEM_IUPAC_INCHIKEY>
YVPXVXANRNDGTA-WDYNHAJCSA-N

> <PUBCHEM_XLOGP3_AA>
6.5

> <PUBCHEM_EXACT_MASS>
606.272987

> <PUBCHEM_MOLECULAR_FORMULA>
C37H38N2O6

> <PUBCHEM_MOLECULAR_WEIGHT>
606.70742

> <PUBCHEM_OPENEYE_CAN_SMILES>
CN1CCC2=CC3=C(C4=C2C1CC5=CC=C(C=C5)OC6=C(C=CC(=C6)CC7C8=CC(=C(C=C8CCN7C)OC)O4)OC)OCO3

> <PUBCHEM_OPENEYE_ISO_SMILES>
CN1CCC2=CC3=C(C4=C2[C@@H]1CC5=CC=C(C=C5)OC6=C(C=CC(=C6)C[C@@H]7C8=CC(=C(C=C8CCN7C)OC)O4)OC)OCO3

> <PUBCHEM_CACTVS_TPSA>
61.9

> <PUBCHEM_MONOISOTOPIC_WEIGHT>
606.272987

> <PUBCHEM_TOTAL_CHARGE>
0

> <PUBCHEM_HEAVY_ATOM_COUNT>
45

> <PUBCHEM_ATOM_DEF_STEREO_COUNT>
2

> <PUBCHEM_ATOM_UDEF_STEREO_COUNT>
0

> <PUBCHEM_BOND_DEF_STEREO_COUNT>
0

> <PUBCHEM_BOND_UDEF_STEREO_COUNT>
0

> <PUBCHEM_ISOTOPIC_ATOM_COUNT>
0

> <PUBCHEM_COMPONENT_COUNT>
1

> <PUBCHEM_CACTVS_TAUTO_COUNT>
1

> <PUBCHEM_COORDINATE_TYPE>
1
5
255

> <PUBCHEM_BONDANNOTATIONS>
10  12  8
10  20  8
11  47  6
12  22  8
15  18  8
15  24  8
18  29  8
20  23  8
22  27  8
23  27  8
24  26  8
26  32  8
28  33  8
28  34  8
29  32  8
31  36  8
31  37  8
33  39  8
34  40  8
36  38  8
37  42  8
38  43  8
39  41  8
40  41  8
42  43  8
9  46  6

$$$$

