47205695
  -OEChem-06241222592D

 31 32  0     0  0  0  0  0  0999 V2000
    7.1753    2.1187    0.0000 S   0  0  0  0  0  0  0  0  0  0  0  0
    5.5116    1.4801    0.0000 O   0  0  0  0  0  0  0  0  0  0  0  0
    2.8660    1.8868    0.0000 O   0  0  0  0  0  0  0  0  0  0  0  0
    7.2798    3.1132    0.0000 O   0  0  0  0  0  0  0  0  0  0  0  0
    7.0708    1.1242    0.0000 O   0  0  0  0  0  0  0  0  0  0  0  0
    3.7320    0.3868    0.0000 N   0  0  0  0  0  0  0  0  0  0  0  0
    8.1698    2.0142    0.0000 N   0  0  0  0  0  0  0  0  0  0  0  0
    2.8660   -0.1132    0.0000 C   0  0  0  0  0  0  0  0  0  0  0  0
    2.8660   -1.1132    0.0000 C   0  0  0  0  0  0  0  0  0  0  0  0
    4.5981    1.8868    0.0000 C   0  0  0  0  0  0  0  0  0  0  0  0
    6.1808    2.2232    0.0000 C   0  0  0  0  0  0  0  0  0  0  0  0
    3.7320    1.3868    0.0000 C   0  0  0  0  0  0  0  0  0  0  0  0
    4.7026    2.8813    0.0000 C   0  0  0  0  0  0  0  0  0  0  0  0
    5.6808    3.0892    0.0000 C   0  0  0  0  0  0  0  0  0  0  0  0
    2.0000   -1.6132    0.0000 C   0  0  0  0  0  0  0  0  0  0  0  0
    3.7320   -1.6132    0.0000 C   0  0  0  0  0  0  0  0  0  0  0  0
    2.0000   -2.6132    0.0000 C   0  0  0  0  0  0  0  0  0  0  0  0
    3.7320   -2.6132    0.0000 C   0  0  0  0  0  0  0  0  0  0  0  0
    2.8660   -3.1132    0.0000 C   0  0  0  0  0  0  0  0  0  0  0  0
    2.6540    0.4694    0.0000 H   0  0  0  0  0  0  0  0  0  0  0  0
    2.2554   -0.2209    0.0000 H   0  0  0  0  0  0  0  0  0  0  0  0
    4.2690    0.0768    0.0000 H   0  0  0  0  0  0  0  0  0  0  0  0
    4.2419    3.2962    0.0000 H   0  0  0  0  0  0  0  0  0  0  0  0
    5.9329    3.6556    0.0000 H   0  0  0  0  0  0  0  0  0  0  0  0
    1.4631   -1.3032    0.0000 H   0  0  0  0  0  0  0  0  0  0  0  0
    4.2690   -1.3032    0.0000 H   0  0  0  0  0  0  0  0  0  0  0  0
    1.4631   -2.9232    0.0000 H   0  0  0  0  0  0  0  0  0  0  0  0
    4.2690   -2.9232    0.0000 H   0  0  0  0  0  0  0  0  0  0  0  0
    2.8660   -3.7332    0.0000 H   0  0  0  0  0  0  0  0  0  0  0  0
    8.5342    2.5157    0.0000 H   0  0  0  0  0  0  0  0  0  0  0  0
    8.4220    1.4478    0.0000 H   0  0  0  0  0  0  0  0  0  0  0  0
  1  4  2  0  0  0  0
  1  5  2  0  0  0  0
  1  7  1  0  0  0  0
  1 11  1  0  0  0  0
  2 10  1  0  0  0  0
  2 11  1  0  0  0  0
  3 12  2  0  0  0  0
  6  8  1  0  0  0  0
  6 12  1  0  0  0  0
  6 22  1  0  0  0  0
  7 30  1  0  0  0  0
  7 31  1  0  0  0  0
  8  9  1  0  0  0  0
  8 20  1  0  0  0  0
  8 21  1  0  0  0  0
  9 15  2  0  0  0  0
  9 16  1  0  0  0  0
 10 12  1  0  0  0  0
 10 13  2  0  0  0  0
 11 14  2  0  0  0  0
 13 14  1  0  0  0  0
 13 23  1  0  0  0  0
 14 24  1  0  0  0  0
 15 17  1  0  0  0  0
 15 25  1  0  0  0  0
 16 18  2  0  0  0  0
 16 26  1  0  0  0  0
 17 19  2  0  0  0  0
 17 27  1  0  0  0  0
 18 19  1  0  0  0  0
 18 28  1  0  0  0  0
 19 29  1  0  0  0  0
M  END
> <PUBCHEM_COMPOUND_CID>
47205695

> <PUBCHEM_COMPOUND_CANONICALIZED>
1

> <PUBCHEM_CACTVS_COMPLEXITY>
412

> <PUBCHEM_CACTVS_HBOND_ACCEPTOR>
5

> <PUBCHEM_CACTVS_HBOND_DONOR>
2

> <PUBCHEM_CACTVS_ROTATABLE_BOND>
4

> <PUBCHEM_CACTVS_SUBSKEYS>
AAADccBzOABAAAAAAAAAAAAAAAAAASAAAAAwAAAAAAAAAAABwAAAHgQQQAAADATB2AQwBYLABEKIAqFSEHLCCBAkIAAIiJnODMgOJjKEtT+HOSjkxhGYqYeYlwIOAAAAAAAAAAAAAAAAAAAAAAAAAAAAAA==

> <PUBCHEM_IUPAC_OPENEYE_NAME>
N-benzyl-5-sulfamoyl-furan-2-carboxamide

> <PUBCHEM_IUPAC_CAS_NAME>
N-(phenylmethyl)-5-sulfamoyl-2-furancarboxamide

> <PUBCHEM_IUPAC_NAME>
N-benzyl-5-sulfamoylfuran-2-carboxamide

> <PUBCHEM_IUPAC_SYSTEMATIC_NAME>
N-(phenylmethyl)-5-sulfamoyl-furan-2-carboxamide

> <PUBCHEM_IUPAC_TRADITIONAL_NAME>
N-benzyl-5-sulfamoyl-2-furamide

> <PUBCHEM_IUPAC_INCHI>
InChI=1S/C12H12N2O4S/c13-19(16,17)11-7-6-10(18-11)12(15)14-8-9-4-2-1-3-5-9/h1-7H,8H2,(H,14,15)(H2,13,16,17)

> <PUBCHEM_IUPAC_INCHIKEY>
POIUCIZFDUPONG-UHFFFAOYSA-N

> <PUBCHEM_XLOGP3_AA>
1

> <PUBCHEM_EXACT_MASS>
280.051778

> <PUBCHEM_MOLECULAR_FORMULA>
C12H12N2O4S

> <PUBCHEM_MOLECULAR_WEIGHT>
280.29968

> <PUBCHEM_OPENEYE_CAN_SMILES>
C1=CC=C(C=C1)CNC(=O)C2=CC=C(O2)S(=O)(=O)N

> <PUBCHEM_OPENEYE_ISO_SMILES>
C1=CC=C(C=C1)CNC(=O)C2=CC=C(O2)S(=O)(=O)N

> <PUBCHEM_CACTVS_TPSA>
111

> <PUBCHEM_MONOISOTOPIC_WEIGHT>
280.051778

> <PUBCHEM_TOTAL_CHARGE>
0

> <PUBCHEM_HEAVY_ATOM_COUNT>
19

> <PUBCHEM_ATOM_DEF_STEREO_COUNT>
0

> <PUBCHEM_ATOM_UDEF_STEREO_COUNT>
0

> <PUBCHEM_BOND_DEF_STEREO_COUNT>
0

> <PUBCHEM_BOND_UDEF_STEREO_COUNT>
0

> <PUBCHEM_ISOTOPIC_ATOM_COUNT>
0

> <PUBCHEM_COMPONENT_COUNT>
1

> <PUBCHEM_CACTVS_TAUTO_COUNT>
2

> <PUBCHEM_COORDINATE_TYPE>
1
5
255

> <PUBCHEM_BONDANNOTATIONS>
10  13  8
11  14  8
13  14  8
15  17  8
16  18  8
17  19  8
18  19  8
2  10  8
2  11  8
9  15  8
9  16  8

$$$$

