   Color/Form

     * WHITE NEEDLES FROM BENZENE & SKELLYSOLVE B; ACETATE DERIV:
       AMORPHOUS SOLID FROM ETHER & PENTANE
     * Crystals

   from [1]HSDB

   Melting Point
        151-152 deg C
   from [2]HSDB

   Solubilities
        Freely soluble in ethyl alcohol, ethyl acetate, chloroform, DMSO,
   and other organic solvents; slightly sol in petroleum ether; very
   slightly soluble in water.
   from [3]HSDB

   Spectral Properties

     * Specific optical rotation: (c= 2.58 in ethanol): +15 deg C @ 26 deg
       C/D
     * Specific optical rotation: -50 deg @ 24 deg C/D (0.16 in
       cyclohexane)

   from [4]HSDB

   Other Chemical/Physical Properties
        Ester groups are saponified by alkalis, and the epoxide is opened
   by strong mineral acids
   from [5]HSDB

   Computed Properties
   Molecular Weight                  466.52136 [g/mol]
   Molecular Formula                 C[24]H[34]O[9]
   XLogP3-AA                         0.9
   H-Bond Donor                      1
   H-Bond Acceptor                   9
   Rotatable Bond Count              9
   Exact Mass                        466.220283
   MonoIsotopic Mass                 466.220283
   Topological Polar Surface Area    121
   Heavy Atom Count                  33
   Formal Charge                     0
   Complexity                        881
   Isotope Atom Count                0
   Defined Atom Stereocenter Count   8
   Undefined Atom Stereocenter Count 0
   Defined Bond Stereocenter Count   0
   Undefined Bond Stereocenter Count 0
   Covalently-Bonded Unit Count      1
   Feature 3D Acceptor Count         6
   Feature 3D Donor Count            1
   Feature 3D Hydrophobe Count       1
   Feature 3D Ring Count             2
   Effective Rotor Count             10.4
   Conformer Sampling RMSD           1
   CID Conformer Count               [6]19

References

   1. http://toxnet.nlm.nih.gov/cgi-bin/sis/search/r?dbs+hsdb:@term+@rn+@rel+21259-20-1
   2. http://toxnet.nlm.nih.gov/cgi-bin/sis/search/r?dbs+hsdb:@term+@rn+@rel+21259-20-1
   3. http://toxnet.nlm.nih.gov/cgi-bin/sis/search/r?dbs+hsdb:@term+@rn+@rel+21259-20-1
   4. http://toxnet.nlm.nih.gov/cgi-bin/sis/search/r?dbs+hsdb:@term+@rn+@rel+21259-20-1
   5. http://toxnet.nlm.nih.gov/cgi-bin/sis/search/r?dbs+hsdb:@term+@rn+@rel+21259-20-1
   6. http://pubchem.ncbi.nlm.nih.gov/vw3d/vw3d.cgi?cid=442400
