   Color/Form
        Colorless liquid
   from [1]HSDB

   Odor

     * Extremely unpleasant odor
     * Strong skunk odor

   from [2]HSDB

   Boiling Point
        52.5 deg C
   from [3]HSDB

   Melting Point
        -130.7 deg C
   from [4]HSDB

   Density/Specific Gravity
        0.8143 at 20 deg C/4 deg C
   from [5]HSDB

   Dissociation Constants
        pKa = 10.86
   from [6]HSDB

   Octanol/Water Partition Coefficient
        log Kow = 1.7 (est)
   from [7]HSDB

   Solubilities

     * Miscible in ethanol, ether; very soluble in acetone; soluble in
       chloroform
     * In water, 4.84X10+3 mg/L at 25 deg C (est)

   from [8]HSDB

   Spectral Properties

     * Index of refraction = 1.4255 at 20 deg C/D
     * IR: 329 (Sadtler Research Laboratories Prism Collection)
     * UV: 3-12 (Organic Electronic Spectral Data, Phillips et al, John
       Wiley & Sons, New York)
     * 1H NMR: 396 (Varian Associates NMR Spectra Catalogue)
     * MASS: 19219 (NIST/EPA/MSDC Mass Spectral Database, 1990 version)
     * Raman: 212 (American Petroleum Inst)

   from [9]HSDB

   Vapor Pressure
        277.3 mm Hg at 25 deg C
   from [10]HSDB

   Other Chemical/Physical Properties

     * Boiling range 51-55 deg C
     * Henry's Law constant = 4.6X10-3 atm-cu m/mol at 25 deg C (est)
     * Hydroxyl radical reaction rate constant = 4.20X10-11 cu cm/molec
       sec at 25 deg C

   from [11]HSDB

   Computed Properties
   Molecular Weight                  76.16062 [g/mol]
   Molecular Formula                 C[3]H[8]S
   XLogP3-AA                         1.3
   H-Bond Donor                      1
   H-Bond Acceptor                   1
   Rotatable Bond Count              0
   Exact Mass                        76.034671
   MonoIsotopic Mass                 76.034671
   Topological Polar Surface Area    1
   Heavy Atom Count                  4
   Formal Charge                     0
   Complexity                        10.8
   Isotope Atom Count                0
   Defined Atom Stereocenter Count   0
   Undefined Atom Stereocenter Count 0
   Defined Bond Stereocenter Count   0
   Undefined Bond Stereocenter Count 0
   Covalently-Bonded Unit Count      1
   Feature 3D Hydrophobe Count       1
   Effective Rotor Count             0
   Conformer Sampling RMSD           0.4
   CID Conformer Count               [12]1

References

   1. http://toxnet.nlm.nih.gov/cgi-bin/sis/search/r?dbs+hsdb:@term+@rn+@rel+75-33-2
   2. http://toxnet.nlm.nih.gov/cgi-bin/sis/search/r?dbs+hsdb:@term+@rn+@rel+75-33-2
   3. http://toxnet.nlm.nih.gov/cgi-bin/sis/search/r?dbs+hsdb:@term+@rn+@rel+75-33-2
   4. http://toxnet.nlm.nih.gov/cgi-bin/sis/search/r?dbs+hsdb:@term+@rn+@rel+75-33-2
   5. http://toxnet.nlm.nih.gov/cgi-bin/sis/search/r?dbs+hsdb:@term+@rn+@rel+75-33-2
   6. http://toxnet.nlm.nih.gov/cgi-bin/sis/search/r?dbs+hsdb:@term+@rn+@rel+75-33-2
   7. http://toxnet.nlm.nih.gov/cgi-bin/sis/search/r?dbs+hsdb:@term+@rn+@rel+75-33-2
   8. http://toxnet.nlm.nih.gov/cgi-bin/sis/search/r?dbs+hsdb:@term+@rn+@rel+75-33-2
   9. http://toxnet.nlm.nih.gov/cgi-bin/sis/search/r?dbs+hsdb:@term+@rn+@rel+75-33-2
  10. http://toxnet.nlm.nih.gov/cgi-bin/sis/search/r?dbs+hsdb:@term+@rn+@rel+75-33-2
  11. http://toxnet.nlm.nih.gov/cgi-bin/sis/search/r?dbs+hsdb:@term+@rn+@rel+75-33-2
  12. http://pubchem.ncbi.nlm.nih.gov/vw3d/vw3d.cgi?cid=6364
