8321
  -OEChem-06261202442D

 30 32  0     0  0  0  0  0  0999 V2000
    6.4144   -1.9377    0.0000 O   0  0  0  0  0  0  0  0  0  0  0  0
    4.6660    2.0969    0.0000 O   0  0  0  0  0  0  0  0  0  0  0  0
    4.6660   -1.9031    0.0000 O   0  0  0  0  0  0  0  0  0  0  0  0
    6.4144    2.1315    0.0000 N   0  0  0  0  0  0  0  0  0  0  0  0
    5.5321    0.5969    0.0000 C   0  0  0  0  0  0  0  0  0  0  0  0
    5.5321   -0.4031    0.0000 C   0  0  0  0  0  0  0  0  0  0  0  0
    3.8000    0.5969    0.0000 C   0  0  0  0  0  0  0  0  0  0  0  0
    3.8000   -0.4031    0.0000 C   0  0  0  0  0  0  0  0  0  0  0  0
    4.6660    1.0969    0.0000 C   0  0  0  0  0  0  0  0  0  0  0  0
    4.6660   -0.9031    0.0000 C   0  0  0  0  0  0  0  0  0  0  0  0
    6.4260    1.1316    0.0000 C   0  0  0  0  0  0  0  0  0  0  0  0
    6.4260   -0.9378    0.0000 C   0  0  0  0  0  0  0  0  0  0  0  0
    7.3321    0.6177    0.0000 C   0  0  0  0  0  0  0  0  0  0  0  0
    7.3321   -0.4239    0.0000 C   0  0  0  0  0  0  0  0  0  0  0  0
    2.9061    1.1316    0.0000 C   0  0  0  0  0  0  0  0  0  0  0  0
    2.9061   -0.9378    0.0000 C   0  0  0  0  0  0  0  0  0  0  0  0
    2.0000   -0.4239    0.0000 C   0  0  0  0  0  0  0  0  0  0  0  0
    2.0000    0.6177    0.0000 C   0  0  0  0  0  0  0  0  0  0  0  0
    7.2746   -2.4477    0.0000 C   0  0  0  0  0  0  0  0  0  0  0  0
    7.8678    0.9298    0.0000 H   0  0  0  0  0  0  0  0  0  0  0  0
    7.8678   -0.7360    0.0000 H   0  0  0  0  0  0  0  0  0  0  0  0
    2.9132   -1.5577    0.0000 H   0  0  0  0  0  0  0  0  0  0  0  0
    2.9132    1.7515    0.0000 H   0  0  0  0  0  0  0  0  0  0  0  0
    1.4643   -0.7360    0.0000 H   0  0  0  0  0  0  0  0  0  0  0  0
    1.4643    0.9298    0.0000 H   0  0  0  0  0  0  0  0  0  0  0  0
    6.9478    2.4477    0.0000 H   0  0  0  0  0  0  0  0  0  0  0  0
    5.8740    2.4353    0.0000 H   0  0  0  0  0  0  0  0  0  0  0  0
    6.9584   -2.9810    0.0000 H   0  0  0  0  0  0  0  0  0  0  0  0
    7.8079   -2.7639    0.0000 H   0  0  0  0  0  0  0  0  0  0  0  0
    7.5908   -1.9144    0.0000 H   0  0  0  0  0  0  0  0  0  0  0  0
  1 12  1  0  0  0  0
  1 19  1  0  0  0  0
  2  9  2  0  0  0  0
  3 10  2  0  0  0  0
  4 11  1  0  0  0  0
  4 26  1  0  0  0  0
  4 27  1  0  0  0  0
  5  6  1  0  0  0  0
  5  9  1  0  0  0  0
  5 11  2  0  0  0  0
  6 10  1  0  0  0  0
  6 12  2  0  0  0  0
  7  8  1  0  0  0  0
  7  9  1  0  0  0  0
  7 15  2  0  0  0  0
  8 10  1  0  0  0  0
  8 16  2  0  0  0  0
 11 13  1  0  0  0  0
 12 14  1  0  0  0  0
 13 14  2  0  0  0  0
 13 20  1  0  0  0  0
 14 21  1  0  0  0  0
 15 18  1  0  0  0  0
 15 23  1  0  0  0  0
 16 17  1  0  0  0  0
 16 22  1  0  0  0  0
 17 18  2  0  0  0  0
 17 24  1  0  0  0  0
 18 25  1  0  0  0  0
 19 28  1  0  0  0  0
 19 29  1  0  0  0  0
 19 30  1  0  0  0  0
M  END
> <PUBCHEM_COMPOUND_CID>
8321

> <PUBCHEM_COMPOUND_CANONICALIZED>
1

> <PUBCHEM_CACTVS_COMPLEXITY>
395

> <PUBCHEM_CACTVS_HBOND_ACCEPTOR>
4

> <PUBCHEM_CACTVS_HBOND_DONOR>
1

> <PUBCHEM_CACTVS_ROTATABLE_BOND>
1

> <PUBCHEM_CACTVS_SUBSKEYS>
AAADccByMAAAAAAAAAAAAAAAAAAAAAAAAAAwYMAAAAAAAADBQAAAHgAQAAAADAyBmAIyxoBABACIAqRSQACCCAAkIgAIiAEGbMgMJj6EtZuAMeBk8BEI6ce/yPCOgEABQAAaAACAgAaAADQAAAAAAAAAAA==

> <PUBCHEM_IUPAC_OPENEYE_NAME>
1-amino-4-methoxy-anthracene-9,10-dione

> <PUBCHEM_IUPAC_CAS_NAME>
1-amino-4-methoxyanthracene-9,10-dione

> <PUBCHEM_IUPAC_NAME>
1-amino-4-methoxyanthracene-9,10-dione

> <PUBCHEM_IUPAC_SYSTEMATIC_NAME>
1-azanyl-4-methoxy-anthracene-9,10-dione

> <PUBCHEM_IUPAC_TRADITIONAL_NAME>
1-amino-4-methoxy-9,10-anthraquinone

> <PUBCHEM_IUPAC_INCHI>
InChI=1S/C15H11NO3/c1-19-11-7-6-10(16)12-13(11)15(18)9-5-3-2-4-8(9)14(12)17/h2-7H,16H2,1H3

> <PUBCHEM_IUPAC_INCHIKEY>
KXOGXZAXERYOTC-UHFFFAOYSA-N

> <PUBCHEM_XLOGP3_AA>
2.7

> <PUBCHEM_EXACT_MASS>
253.073893

> <PUBCHEM_MOLECULAR_FORMULA>
C15H11NO3

> <PUBCHEM_MOLECULAR_WEIGHT>
253.25274

> <PUBCHEM_OPENEYE_CAN_SMILES>
COC1=C2C(=C(C=C1)N)C(=O)C3=CC=CC=C3C2=O

> <PUBCHEM_OPENEYE_ISO_SMILES>
COC1=C2C(=C(C=C1)N)C(=O)C3=CC=CC=C3C2=O

> <PUBCHEM_CACTVS_TPSA>
69.4

> <PUBCHEM_MONOISOTOPIC_WEIGHT>
253.073893

> <PUBCHEM_TOTAL_CHARGE>
0

> <PUBCHEM_HEAVY_ATOM_COUNT>
19

> <PUBCHEM_ATOM_DEF_STEREO_COUNT>
0

> <PUBCHEM_ATOM_UDEF_STEREO_COUNT>
0

> <PUBCHEM_BOND_DEF_STEREO_COUNT>
0

> <PUBCHEM_BOND_UDEF_STEREO_COUNT>
0

> <PUBCHEM_ISOTOPIC_ATOM_COUNT>
0

> <PUBCHEM_COMPONENT_COUNT>
1

> <PUBCHEM_CACTVS_TAUTO_COUNT>
4

> <PUBCHEM_COORDINATE_TYPE>
1
5
255

> <PUBCHEM_BONDANNOTATIONS>
11  13  8
12  14  8
13  14  8
15  18  8
16  17  8
17  18  8
5  11  8
5  6  8
6  12  8
7  15  8
7  8  8
8  16  8

$$$$

