   Color/Form
        COLORLESS LIQUID
   from [1]HSDB

   Odor

     * Pungent
     * PRONOUNCED ALDEHYDE-LIKE

   from [2]HSDB

   Boiling Point
        112.5 deg C
   from [3]HSDB

   Melting Point
        -62 deg C
   from [4]HSDB

   Density/Specific Gravity
        SPECIFIC GRAVITY: 1.1403 @ 20 DEG C/4 DEG C
   from [5]HSDB

   Solubilities
        MISCIBLE WITH WATER & ALL COMMON SOLVENTS; IMMISCIBLE WITH
   PETROLEUM ETHER.
   from [6]HSDB

   Spectral Properties

     * Index of refraction: 1.4265 @ 20 deg C
     * IR: 5781 (Coblentz Society Spectral Collection)

   from [7]HSDB

   Vapor Density
        2.58 (AIR= 1)
   from [8]HSDB

   Other Chemical/Physical Properties

     * 1 ppm= 2.94 mg/cu m @ 25 deg C, 760 mm Hg; 1 mg/l= 339 ppm @ 25 deg
       C, 760 mm Hg
     * Hydroxyl radical reaction rate constant = 1.69X10-11 cu
       cm/molecule-sec at 25 deg C

   from [9]HSDB

   Computed Properties
   Molecular Weight                  72.06266 [g/mol]
   Molecular Formula                 C[3]H[4]O[2]
   XLogP3-AA                         -0.6
   H-Bond Donor                      0
   H-Bond Acceptor                   2
   Rotatable Bond Count              1
   Tautomer Count                    2
   Exact Mass                        72.021129
   MonoIsotopic Mass                 72.021129
   Topological Polar Surface Area    29.6
   Heavy Atom Count                  5
   Formal Charge                     0
   Complexity                        50.9
   Isotope Atom Count                0
   Defined Atom Stereocenter Count   0
   Undefined Atom Stereocenter Count 1
   Defined Bond Stereocenter Count   0
   Undefined Bond Stereocenter Count 0
   Covalently-Bonded Unit Count      1
   Feature 3D Acceptor Count         2
   Effective Rotor Count             1.6
   Conformer Sampling RMSD           0.4
   CID Conformer Count               [10]2

References

   1. http://toxnet.nlm.nih.gov/cgi-bin/sis/search/r?dbs+hsdb:@term+@rn+@rel+765-34-4
   2. http://toxnet.nlm.nih.gov/cgi-bin/sis/search/r?dbs+hsdb:@term+@rn+@rel+765-34-4
   3. http://toxnet.nlm.nih.gov/cgi-bin/sis/search/r?dbs+hsdb:@term+@rn+@rel+765-34-4
   4. http://toxnet.nlm.nih.gov/cgi-bin/sis/search/r?dbs+hsdb:@term+@rn+@rel+765-34-4
   5. http://toxnet.nlm.nih.gov/cgi-bin/sis/search/r?dbs+hsdb:@term+@rn+@rel+765-34-4
   6. http://toxnet.nlm.nih.gov/cgi-bin/sis/search/r?dbs+hsdb:@term+@rn+@rel+765-34-4
   7. http://toxnet.nlm.nih.gov/cgi-bin/sis/search/r?dbs+hsdb:@term+@rn+@rel+765-34-4
   8. http://toxnet.nlm.nih.gov/cgi-bin/sis/search/r?dbs+hsdb:@term+@rn+@rel+765-34-4
   9. http://toxnet.nlm.nih.gov/cgi-bin/sis/search/r?dbs+hsdb:@term+@rn+@rel+765-34-4
  10. http://pubchem.ncbi.nlm.nih.gov/vw3d/vw3d.cgi?cid=13002
