   Color/Form
        COLORLESS LIQUID
   from [1]HSDB

   Boiling Point
        85.5 DEG C
   from [2]HSDB

   Density/Specific Gravity
        0.797 AT 26 DEG C/4 DEG C/D
   from [3]HSDB

   Dissociation Constants
        pKa= 7.71
   from [4]HSDB

   Solubilities

     * >10% in ethanol
     * >10% in ethyl ether
     * >10% in benzene
     * >10% in chloroform
     * Very soluble in benzene, ether, and ethanol.

   from [5]HSDB

   Spectral Properties
        INDEX OF REFRACTION: 1.4204 AT 20 DEG C
   from [6]HSDB

   Other Chemical/Physical Properties

     * FREE BASE IS HIGHLY REACTIVE & OXIDIZES READILY
     * The hydrochloride is soluble in water and ethanol and slightly sol
       in acetone /1,2-Diethylhydrazine hydrochloride/

   from [7]HSDB

   Computed Properties
   Molecular Weight                  88.15148 [g/mol]
   Molecular Formula                 C[4]H[12]N[2]
   XLogP3-AA                         0.3
   H-Bond Donor                      2
   H-Bond Acceptor                   2
   Rotatable Bond Count              3
   Exact Mass                        88.100048
   MonoIsotopic Mass                 88.100048
   Topological Polar Surface Area    24.1
   Heavy Atom Count                  6
   Formal Charge                     0
   Complexity                        17.5
   Isotope Atom Count                0
   Defined Atom Stereocenter Count   0
   Undefined Atom Stereocenter Count 0
   Defined Bond Stereocenter Count   0
   Undefined Bond Stereocenter Count 0
   Covalently-Bonded Unit Count      1
   Feature 3D Donor Count            2
   Effective Rotor Count             3
   Conformer Sampling RMSD           0.4
   CID Conformer Count               [8]12

References

   1. http://toxnet.nlm.nih.gov/cgi-bin/sis/search/r?dbs+hsdb:@term+@rn+@rel+1615-80-1
   2. http://toxnet.nlm.nih.gov/cgi-bin/sis/search/r?dbs+hsdb:@term+@rn+@rel+1615-80-1
   3. http://toxnet.nlm.nih.gov/cgi-bin/sis/search/r?dbs+hsdb:@term+@rn+@rel+1615-80-1
   4. http://toxnet.nlm.nih.gov/cgi-bin/sis/search/r?dbs+hsdb:@term+@rn+@rel+1615-80-1
   5. http://toxnet.nlm.nih.gov/cgi-bin/sis/search/r?dbs+hsdb:@term+@rn+@rel+1615-80-1
   6. http://toxnet.nlm.nih.gov/cgi-bin/sis/search/r?dbs+hsdb:@term+@rn+@rel+1615-80-1
   7. http://toxnet.nlm.nih.gov/cgi-bin/sis/search/r?dbs+hsdb:@term+@rn+@rel+1615-80-1
   8. http://pubchem.ncbi.nlm.nih.gov/vw3d/vw3d.cgi?cid=15374
