17395729
  -OEChem-06241222522D

 43 46  0     0  0  0  0  0  0999 V2000
    5.5443    0.5987    0.0000 S   0  0  0  0  0  0  0  0  0  0  0  0
    7.6279    2.2695    0.0000 O   0  0  0  0  0  0  0  0  0  0  0  0
    7.6279    0.5374    0.0000 N   0  0  0  0  0  0  0  0  0  0  0  0
    3.7320    0.4035    0.0000 N   0  0  0  0  0  0  0  0  0  0  0  0
   10.1166   -0.4316    0.0000 N   0  0  0  0  0  0  0  0  0  0  0  0
    8.7228   -1.2364    0.0000 N   0  0  0  0  0  0  0  0  0  0  0  0
    4.5981    1.9035    0.0000 C   0  0  0  0  0  0  0  0  0  0  0  0
    5.5443    2.2082    0.0000 C   0  0  0  0  0  0  0  0  0  0  0  0
    6.1279    1.4035    0.0000 C   0  0  0  0  0  0  0  0  0  0  0  0
    3.7320    2.4035    0.0000 C   0  0  0  0  0  0  0  0  0  0  0  0
    4.5981    0.9035    0.0000 C   0  0  0  0  0  0  0  0  0  0  0  0
    8.6279    0.5374    0.0000 C   0  0  0  0  0  0  0  0  0  0  0  0
    2.8660    1.9035    0.0000 C   0  0  0  0  0  0  0  0  0  0  0  0
    7.1279    1.4035    0.0000 C   0  0  0  0  0  0  0  0  0  0  0  0
    5.8550    3.1587    0.0000 C   0  0  0  0  0  0  0  0  0  0  0  0
    9.1279   -0.3286    0.0000 C   0  0  0  0  0  0  0  0  0  0  0  0
    2.8660    0.9035    0.0000 C   0  0  0  0  0  0  0  0  0  0  0  0
   10.3258   -1.4035    0.0000 C   0  0  0  0  0  0  0  0  0  0  0  0
    3.7320    3.4035    0.0000 C   0  0  0  0  0  0  0  0  0  0  0  0
    9.4598   -1.9035    0.0000 C   0  0  0  0  0  0  0  0  0  0  0  0
    2.0000    0.4035    0.0000 C   0  0  0  0  0  0  0  0  0  0  0  0
   11.1919   -1.9035    0.0000 C   0  0  0  0  0  0  0  0  0  0  0  0
    9.4598   -2.9035    0.0000 C   0  0  0  0  0  0  0  0  0  0  0  0
   11.1919   -2.9035    0.0000 C   0  0  0  0  0  0  0  0  0  0  0  0
   10.3258   -3.4035    0.0000 C   0  0  0  0  0  0  0  0  0  0  0  0
    9.2105    0.7495    0.0000 H   0  0  0  0  0  0  0  0  0  0  0  0
    8.5202    1.1480    0.0000 H   0  0  0  0  0  0  0  0  0  0  0  0
    2.3291    2.2135    0.0000 H   0  0  0  0  0  0  0  0  0  0  0  0
    6.4443    2.9661    0.0000 H   0  0  0  0  0  0  0  0  0  0  0  0
    6.0476    3.7480    0.0000 H   0  0  0  0  0  0  0  0  0  0  0  0
    5.2656    3.3513    0.0000 H   0  0  0  0  0  0  0  0  0  0  0  0
    7.3179    0.0005    0.0000 H   0  0  0  0  0  0  0  0  0  0  0  0
    4.3520    3.4035    0.0000 H   0  0  0  0  0  0  0  0  0  0  0  0
    3.7320    4.0235    0.0000 H   0  0  0  0  0  0  0  0  0  0  0  0
    3.1120    3.4035    0.0000 H   0  0  0  0  0  0  0  0  0  0  0  0
   10.5307    0.0298    0.0000 H   0  0  0  0  0  0  0  0  0  0  0  0
    1.6900    0.9404    0.0000 H   0  0  0  0  0  0  0  0  0  0  0  0
    1.4631    0.0935    0.0000 H   0  0  0  0  0  0  0  0  0  0  0  0
    2.3100   -0.1335    0.0000 H   0  0  0  0  0  0  0  0  0  0  0  0
   11.7288   -1.5935    0.0000 H   0  0  0  0  0  0  0  0  0  0  0  0
    8.9229   -3.2135    0.0000 H   0  0  0  0  0  0  0  0  0  0  0  0
   11.7288   -3.2135    0.0000 H   0  0  0  0  0  0  0  0  0  0  0  0
   10.3258   -4.0235    0.0000 H   0  0  0  0  0  0  0  0  0  0  0  0
  1  9  1  0  0  0  0
  1 11  1  0  0  0  0
  2 14  2  0  0  0  0
  3 12  1  0  0  0  0
  3 14  1  0  0  0  0
  3 32  1  0  0  0  0
  4 11  1  0  0  0  0
  4 17  2  0  0  0  0
  5 16  1  0  0  0  0
  5 18  1  0  0  0  0
  5 36  1  0  0  0  0
  6 16  2  0  0  0  0
  6 20  1  0  0  0  0
  7  8  1  0  0  0  0
  7 10  1  0  0  0  0
  7 11  2  0  0  0  0
  8  9  2  0  0  0  0
  8 15  1  0  0  0  0
  9 14  1  0  0  0  0
 10 13  2  0  0  0  0
 10 19  1  0  0  0  0
 12 16  1  0  0  0  0
 12 26  1  0  0  0  0
 12 27  1  0  0  0  0
 13 17  1  0  0  0  0
 13 28  1  0  0  0  0
 15 29  1  0  0  0  0
 15 30  1  0  0  0  0
 15 31  1  0  0  0  0
 17 21  1  0  0  0  0
 18 20  1  0  0  0  0
 18 22  2  0  0  0  0
 19 33  1  0  0  0  0
 19 34  1  0  0  0  0
 19 35  1  0  0  0  0
 20 23  2  0  0  0  0
 21 37  1  0  0  0  0
 21 38  1  0  0  0  0
 21 39  1  0  0  0  0
 22 24  1  0  0  0  0
 22 40  1  0  0  0  0
 23 25  1  0  0  0  0
 23 41  1  0  0  0  0
 24 25  2  0  0  0  0
 24 42  1  0  0  0  0
 25 43  1  0  0  0  0
M  END
> <PUBCHEM_COMPOUND_CID>
17395729

> <PUBCHEM_COMPOUND_CANONICALIZED>
1

> <PUBCHEM_CACTVS_COMPLEXITY>
504

> <PUBCHEM_CACTVS_HBOND_ACCEPTOR>
4

> <PUBCHEM_CACTVS_HBOND_DONOR>
2

> <PUBCHEM_CACTVS_ROTATABLE_BOND>
3

> <PUBCHEM_CACTVS_SUBSKEYS>
AAADceB7oABAAAAAAAAAAAAAAAAAAWJAAAA8QAAAAAAAAFgB/gAAHgQQAAAADAjB3wQz0fbJkAisAydydACD0K3lGrgJmbE4dNiIaPLgnZGUIQholgLoyScYicCOgAAAAAAAACAAAAAAAAAAQAAAAAAAAA==

> <PUBCHEM_IUPAC_OPENEYE_NAME>
N-(1H-benzimidazol-2-ylmethyl)-3,4,6-trimethyl-thieno[2,3-b]pyridine-2-carboxamide

> <PUBCHEM_IUPAC_CAS_NAME>
N-(1H-benzimidazol-2-ylmethyl)-3,4,6-trimethyl-2-thieno[2,3-b]pyridinecarboxamide

> <PUBCHEM_IUPAC_NAME>
N-(1H-benzimidazol-2-ylmethyl)-3,4,6-trimethylthieno[2,3-b]pyridine-2-carboxamide

> <PUBCHEM_IUPAC_SYSTEMATIC_NAME>
N-(1H-benzimidazol-2-ylmethyl)-3,4,6-trimethyl-thieno[2,3-b]pyridine-2-carboxamide

> <PUBCHEM_IUPAC_TRADITIONAL_NAME>
N-(1H-benzimidazol-2-ylmethyl)-3,4,6-trimethyl-thieno[2,3-b]pyridine-2-carboxamide

> <PUBCHEM_IUPAC_INCHI>
InChI=1S/C19H18N4OS/c1-10-8-11(2)21-19-16(10)12(3)17(25-19)18(24)20-9-15-22-13-6-4-5-7-14(13)23-15/h4-8H,9H2,1-3H3,(H,20,24)(H,22,23)

> <PUBCHEM_IUPAC_INCHIKEY>
MFNYYVDTLRATCL-UHFFFAOYSA-N

> <PUBCHEM_XLOGP3_AA>
4

> <PUBCHEM_EXACT_MASS>
350.120132

> <PUBCHEM_MOLECULAR_FORMULA>
C19H18N4OS

> <PUBCHEM_MOLECULAR_WEIGHT>
350.43742

> <PUBCHEM_OPENEYE_CAN_SMILES>
CC1=CC(=NC2=C1C(=C(S2)C(=O)NCC3=NC4=CC=CC=C4N3)C)C

> <PUBCHEM_OPENEYE_ISO_SMILES>
CC1=CC(=NC2=C1C(=C(S2)C(=O)NCC3=NC4=CC=CC=C4N3)C)C

> <PUBCHEM_CACTVS_TPSA>
98.9

> <PUBCHEM_MONOISOTOPIC_WEIGHT>
350.120132

> <PUBCHEM_TOTAL_CHARGE>
0

> <PUBCHEM_HEAVY_ATOM_COUNT>
25

> <PUBCHEM_ATOM_DEF_STEREO_COUNT>
0

> <PUBCHEM_ATOM_UDEF_STEREO_COUNT>
0

> <PUBCHEM_BOND_DEF_STEREO_COUNT>
0

> <PUBCHEM_BOND_UDEF_STEREO_COUNT>
0

> <PUBCHEM_ISOTOPIC_ATOM_COUNT>
0

> <PUBCHEM_COMPONENT_COUNT>
1

> <PUBCHEM_CACTVS_TAUTO_COUNT>
27

> <PUBCHEM_COORDINATE_TYPE>
1
5
255

> <PUBCHEM_BONDANNOTATIONS>
1  11  8
1  9  8
10  13  8
13  17  8
18  20  8
18  22  8
20  23  8
22  24  8
23  25  8
24  25  8
4  11  8
4  17  8
5  16  8
5  18  8
6  16  8
6  20  8
7  10  8
7  11  8
7  8  8
8  9  8

$$$$

