   Color/Form
        COLORLESS LIQUID
   from [1]HSDB

   Boiling Point
        191 DEG C
   from [2]HSDB

   Density/Specific Gravity
        1.172
   from [3]HSDB

   Solubilities
        Soluble in water
   from [4]HSDB

   Spectral Properties
        MAX ABSORPTION: 215 NM (E= 643, 1%, 1 CM)
   from [5]HSDB

   Other Chemical/Physical Properties
        Easily hydrolyzed, especially under alkaline conditions.
   from [6]HSDB

   Computed Properties
   Molecular Weight                  132.11792 [g/mol]
   Molecular Formula                 C[4]H[8]N[2]O[3]
   XLogP3-AA                         -0.3
   H-Bond Donor                      0
   H-Bond Acceptor                   4
   Rotatable Bond Count              3
   Exact Mass                        132.053492
   MonoIsotopic Mass                 132.053492
   Topological Polar Surface Area    67.4
   Heavy Atom Count                  9
   Formal Charge                     0
   Complexity                        132
   Isotope Atom Count                0
   Defined Atom Stereocenter Count   0
   Undefined Atom Stereocenter Count 0
   Defined Bond Stereocenter Count   1
   Undefined Bond Stereocenter Count 0
   Covalently-Bonded Unit Count      1
   Feature 3D Acceptor Count         1
   Feature 3D Anion Count            1
   Effective Rotor Count             3
   Conformer Sampling RMSD           0.6
   CID Conformer Count               [7]8

References

   1. http://toxnet.nlm.nih.gov/cgi-bin/sis/search/r?dbs+hsdb:@term+@rn+@rel+592-62-1
   2. http://toxnet.nlm.nih.gov/cgi-bin/sis/search/r?dbs+hsdb:@term+@rn+@rel+592-62-1
   3. http://toxnet.nlm.nih.gov/cgi-bin/sis/search/r?dbs+hsdb:@term+@rn+@rel+592-62-1
   4. http://toxnet.nlm.nih.gov/cgi-bin/sis/search/r?dbs+hsdb:@term+@rn+@rel+592-62-1
   5. http://toxnet.nlm.nih.gov/cgi-bin/sis/search/r?dbs+hsdb:@term+@rn+@rel+592-62-1
   6. http://toxnet.nlm.nih.gov/cgi-bin/sis/search/r?dbs+hsdb:@term+@rn+@rel+592-62-1
   7. http://pubchem.ncbi.nlm.nih.gov/vw3d/vw3d.cgi?cid=5363199
