   Color/Form
        LIQUID
   from [1]HSDB

   Odor
        SLIGHT AMMONIA ODOR
   from [2]HSDB

   Boiling Point
        159.46 DEG C @ 760 MM HG
   from [3]HSDB

   Melting Point
        1.74 DEG C
   from [4]HSDB

   Density/Specific Gravity
        0.9611 @ 20 DEG C/4 DEG C
   from [5]HSDB

   Octanol/Water Partition Coefficient
        log Kow= -0.96 (experimental)
   from [6]HSDB

   Solubilities
        SOL IN ALL PROPORTIONS IN WATER, ALC, ETHER, ACETONE, BENZENE,
   CARBON TETRACHLORIDE.
   from [7]HSDB

   Spectral Properties
        INDEX OF REFRACTION: 1.4479 @ 20 DEG C/D
   from [8]HSDB

   Vapor Density
        2.6 (AIR= 1)
   from [9]HSDB

   Vapor Pressure
        0.47 mm Hg at 25 deg C
   from [10]HSDB

   Other Chemical/Physical Properties

     * MP 156-158 DEG C @ 758 MM HG; DENSITY 0.973 @ 18 DEG C; SOL IN ALL
       PROPORTIONS IN WATER, ALC, ETHER, ACETONE, BENZENE. /L-FORM/
     * IR: 5980 (Coblentz Society Spectral Collection). /2-Propanol,
       1-amino (dl)/
     * NMR: 4273 (Sadtler Research Laboratories Spectral Collection).
       /2-Propanol, 1-amino (dl)/
     * MASS: 87 (Atlas of Mass Spectral Data, John Wiley & Sons, New
       York). /2-Propanol, 1-amino (dl)/
     * MASS: 89 (Atlas of Mass Spectral Data, John Wiley & Sons, New
       York). /2-propanol, 1-amino (l)/

   from [11]HSDB

   Computed Properties
   Molecular Weight                  75.10966 [g/mol]
   Molecular Formula                 C[3]H[9]NO
   XLogP3                            -1
   H-Bond Donor                      2
   H-Bond Acceptor                   2
   Rotatable Bond Count              1
   Exact Mass                        75.068414
   MonoIsotopic Mass                 75.068414
   Topological Polar Surface Area    46.2
   Heavy Atom Count                  5
   Formal Charge                     0
   Complexity                        22.9
   Isotope Atom Count                0
   Defined Atom Stereocenter Count   0
   Undefined Atom Stereocenter Count 1
   Defined Bond Stereocenter Count   0
   Undefined Bond Stereocenter Count 0
   Covalently-Bonded Unit Count      1
   Feature 3D Acceptor Count         1
   Feature 3D Donor Count            2
   Feature 3D Cation Count           1
   Effective Rotor Count             1
   Conformer Sampling RMSD           0.4
   CID Conformer Count               [12]6

References

   1. http://toxnet.nlm.nih.gov/cgi-bin/sis/search/r?dbs+hsdb:@term+@rn+@rel+78-96-6
   2. http://toxnet.nlm.nih.gov/cgi-bin/sis/search/r?dbs+hsdb:@term+@rn+@rel+78-96-6
   3. http://toxnet.nlm.nih.gov/cgi-bin/sis/search/r?dbs+hsdb:@term+@rn+@rel+78-96-6
   4. http://toxnet.nlm.nih.gov/cgi-bin/sis/search/r?dbs+hsdb:@term+@rn+@rel+78-96-6
   5. http://toxnet.nlm.nih.gov/cgi-bin/sis/search/r?dbs+hsdb:@term+@rn+@rel+78-96-6
   6. http://toxnet.nlm.nih.gov/cgi-bin/sis/search/r?dbs+hsdb:@term+@rn+@rel+78-96-6
   7. http://toxnet.nlm.nih.gov/cgi-bin/sis/search/r?dbs+hsdb:@term+@rn+@rel+78-96-6
   8. http://toxnet.nlm.nih.gov/cgi-bin/sis/search/r?dbs+hsdb:@term+@rn+@rel+78-96-6
   9. http://toxnet.nlm.nih.gov/cgi-bin/sis/search/r?dbs+hsdb:@term+@rn+@rel+78-96-6
  10. http://toxnet.nlm.nih.gov/cgi-bin/sis/search/r?dbs+hsdb:@term+@rn+@rel+78-96-6
  11. http://toxnet.nlm.nih.gov/cgi-bin/sis/search/r?dbs+hsdb:@term+@rn+@rel+78-96-6
  12. http://pubchem.ncbi.nlm.nih.gov/vw3d/vw3d.cgi?cid=4
