24883451
  -OEChem-07051213152D

 65 66  0     1  0  0  0  0  0999 V2000
    3.4030   -2.9168    0.0000 P   0  0  3  0  0  0  0  0  0  0  0  0
    3.4030   -4.6488    0.0000 P   0  0  0  0  0  0  0  0  0  0  0  0
    3.9030   -2.0508    0.0000 O   0  0  0  0  0  0  0  0  0  0  0  0
    2.9030   -3.7828    0.0000 O   0  0  0  0  0  0  0  0  0  0  0  0
    4.2690   -3.4168    0.0000 O   0  0  0  0  0  0  0  0  0  0  0  0
    2.5369   -2.4168    0.0000 O   0  0  0  0  0  0  0  0  0  0  0  0
    3.9030   -5.5149    0.0000 O   0  0  0  0  0  0  0  0  0  0  0  0
    2.5369   -5.1488    0.0000 O   0  0  0  0  0  0  0  0  0  0  0  0
    4.2690   -4.1488    0.0000 O   0  0  0  0  0  0  0  0  0  0  0  0
    3.9030    3.1454    0.0000 C   0  0  1  0  0  0  0  0  0  0  0  0
    4.7690    3.6454    0.0000 C   0  0  1  0  0  0  0  0  0  0  0  0
    3.0369    3.6454    0.0000 C   0  0  2  0  0  0  0  0  0  0  0  0
    4.7690    4.6454    0.0000 C   0  0  0  0  0  0  0  0  0  0  0  0
    5.6629    5.1800    0.0000 C   0  0  0  0  0  0  0  0  0  0  0  0
    5.6629    3.1107    0.0000 C   0  0  0  0  0  0  0  0  0  0  0  0
    3.4030    2.2794    0.0000 C   0  0  0  0  0  0  0  0  0  0  0  0
    6.5690    4.6662    0.0000 C   0  0  0  0  0  0  0  0  0  0  0  0
    3.0369    4.6454    0.0000 C   0  0  0  0  0  0  0  0  0  0  0  0
    6.5690    3.6246    0.0000 C   0  0  0  0  0  0  0  0  0  0  0  0
    3.9030    5.1454    0.0000 C   0  0  0  0  0  0  0  0  0  0  0  0
    4.4030    2.2794    0.0000 C   0  0  0  0  0  0  0  0  0  0  0  0
    2.1709    3.1454    0.0000 C   0  0  0  0  0  0  0  0  0  0  0  0
    6.1529    6.0518    0.0000 C   0  0  0  0  0  0  0  0  0  0  0  0
    5.1530    6.0402    0.0000 C   0  0  0  0  0  0  0  0  0  0  0  0
    3.9030    1.4133    0.0000 C   0  0  0  0  0  0  0  0  0  0  0  0
    3.4030    0.5473    0.0000 C   0  0  0  0  0  0  0  0  0  0  0  0
    2.4030    0.5473    0.0000 C   0  0  0  0  0  0  0  0  0  0  0  0
    3.9030   -0.3187    0.0000 C   0  0  0  0  0  0  0  0  0  0  0  0
    3.4030   -1.1847    0.0000 C   0  0  0  0  0  0  0  0  0  0  0  0
    4.7624    2.7954    0.0000 H   0  0  0  0  0  0  0  0  0  0  0  0
    3.0369    3.0254    0.0000 H   0  0  0  0  0  0  0  0  0  0  0  0
    5.2583    2.6409    0.0000 H   0  0  0  0  0  0  0  0  0  0  0  0
    6.0566    2.6317    0.0000 H   0  0  0  0  0  0  0  0  0  0  0  0
    2.9280    2.6779    0.0000 H   0  0  0  0  0  0  0  0  0  0  0  0
    2.9280    1.8808    0.0000 H   0  0  0  0  0  0  0  0  0  0  0  0
    7.1798    4.5601    0.0000 H   0  0  0  0  0  0  0  0  0  0  0  0
    6.7780    5.2499    0.0000 H   0  0  0  0  0  0  0  0  0  0  0  0
    2.8249    5.2280    0.0000 H   0  0  0  0  0  0  0  0  0  0  0  0
    2.4263    4.5377    0.0000 H   0  0  0  0  0  0  0  0  0  0  0  0
    6.7780    3.0409    0.0000 H   0  0  0  0  0  0  0  0  0  0  0  0
    7.1798    3.7307    0.0000 H   0  0  0  0  0  0  0  0  0  0  0  0
    3.9030    5.7654    0.0000 H   0  0  0  0  0  0  0  0  0  0  0  0
    3.8660    1.9694    0.0000 H   0  0  0  0  0  0  0  0  0  0  0  0
    4.7130    1.7424    0.0000 H   0  0  0  0  0  0  0  0  0  0  0  0
    4.9399    2.5894    0.0000 H   0  0  0  0  0  0  0  0  0  0  0  0
    1.8609    3.6823    0.0000 H   0  0  0  0  0  0  0  0  0  0  0  0
    1.6340    2.8354    0.0000 H   0  0  0  0  0  0  0  0  0  0  0  0
    2.4809    2.6084    0.0000 H   0  0  0  0  0  0  0  0  0  0  0  0
    6.6934    5.7480    0.0000 H   0  0  0  0  0  0  0  0  0  0  0  0
    5.6863    6.3564    0.0000 H   0  0  0  0  0  0  0  0  0  0  0  0
    4.8368    6.5736    0.0000 H   0  0  0  0  0  0  0  0  0  0  0  0
    4.6196    5.7240    0.0000 H   0  0  0  0  0  0  0  0  0  0  0  0
    6.4566    6.5923    0.0000 H   0  0  0  0  0  0  0  0  0  0  0  0
    5.6124    6.3556    0.0000 H   0  0  0  0  0  0  0  0  0  0  0  0
    4.3779    1.0148    0.0000 H   0  0  0  0  0  0  0  0  0  0  0  0
    4.3779    1.8119    0.0000 H   0  0  0  0  0  0  0  0  0  0  0  0
    2.4030    1.1673    0.0000 H   0  0  0  0  0  0  0  0  0  0  0  0
    1.7830    0.5473    0.0000 H   0  0  0  0  0  0  0  0  0  0  0  0
    2.4030   -0.0727    0.0000 H   0  0  0  0  0  0  0  0  0  0  0  0
    4.5230   -0.3187    0.0000 H   0  0  0  0  0  0  0  0  0  0  0  0
    2.9280   -0.7862    0.0000 H   0  0  0  0  0  0  0  0  0  0  0  0
    2.9280   -1.5833    0.0000 H   0  0  0  0  0  0  0  0  0  0  0  0
    4.8059   -3.1068    0.0000 H   0  0  0  0  0  0  0  0  0  0  0  0
    2.0000   -4.8388    0.0000 H   0  0  0  0  0  0  0  0  0  0  0  0
    3.5930   -6.0518    0.0000 H   0  0  0  0  0  0  0  0  0  0  0  0
  1  3  1  0  0  0  0
  1  4  1  0  0  0  0
  1  5  1  0  0  0  0
  1  6  2  0  0  0  0
  2  4  1  0  0  0  0
  2  7  1  0  0  0  0
  2  8  1  0  0  0  0
  2  9  2  0  0  0  0
  3 29  1  0  0  0  0
  5 63  1  0  0  0  0
  7 65  1  0  0  0  0
  8 64  1  0  0  0  0
 10 11  1  0  0  0  0
 10 12  1  0  0  0  0
 10 16  1  0  0  0  0
 10 21  1  1  0  0  0
 11 13  1  0  0  0  0
 11 15  1  0  0  0  0
 11 30  1  6  0  0  0
 12 18  1  0  0  0  0
 12 22  1  1  0  0  0
 12 31  1  0  0  0  0
 13 14  1  0  0  0  0
 13 20  2  0  0  0  0
 14 17  1  0  0  0  0
 14 23  1  0  0  0  0
 14 24  1  0  0  0  0
 15 19  1  0  0  0  0
 15 32  1  0  0  0  0
 15 33  1  0  0  0  0
 16 25  1  0  0  0  0
 16 34  1  0  0  0  0
 16 35  1  0  0  0  0
 17 19  1  0  0  0  0
 17 36  1  0  0  0  0
 17 37  1  0  0  0  0
 18 20  1  0  0  0  0
 18 38  1  0  0  0  0
 18 39  1  0  0  0  0
 19 40  1  0  0  0  0
 19 41  1  0  0  0  0
 20 42  1  0  0  0  0
 21 43  1  0  0  0  0
 21 44  1  0  0  0  0
 21 45  1  0  0  0  0
 22 46  1  0  0  0  0
 22 47  1  0  0  0  0
 22 48  1  0  0  0  0
 23 49  1  0  0  0  0
 23 53  1  0  0  0  0
 23 54  1  0  0  0  0
 24 50  1  0  0  0  0
 24 51  1  0  0  0  0
 24 52  1  0  0  0  0
 25 26  1  0  0  0  0
 25 55  1  0  0  0  0
 25 56  1  0  0  0  0
 26 27  1  0  0  0  0
 26 28  2  0  0  0  0
 27 57  1  0  0  0  0
 27 58  1  0  0  0  0
 27 59  1  0  0  0  0
 28 29  1  0  0  0  0
 28 60  1  0  0  0  0
 29 61  1  0  0  0  0
 29 62  1  0  0  0  0
M  END
> <PUBCHEM_COMPOUND_CID>
24883451

> <PUBCHEM_COMPOUND_CANONICALIZED>
1

> <PUBCHEM_CACTVS_COMPLEXITY>
752

> <PUBCHEM_CACTVS_HBOND_ACCEPTOR>
7

> <PUBCHEM_CACTVS_HBOND_DONOR>
3

> <PUBCHEM_CACTVS_ROTATABLE_BOND>
8

> <PUBCHEM_CACTVS_SUBSKEYS>
AAADcfB4OAMAAAAAAAAAAAAAAAAAAAAAAAAwQAAAAAAAAACAAAAAGgAACCAADwCggAICAAAAARCAQiBCAIAAAAAgAAAACAAAAAgABAIAAQAAEAAAgAAIAAMAgMAPgAAAAAAAAAAAAAQAAAAAAAAAAAAAAA==

> <PUBCHEM_IUPAC_OPENEYE_NAME>
[(E)-5-[(1R,2S,8aS)-1,2,5,5-tetramethyl-2,3,6,7,8,8a-hexahydronaphthalen-1-yl]-3-methyl-pent-2-enyl] phosphono hydrogen phosphate

> <PUBCHEM_IUPAC_CAS_NAME>
[(E)-5-[(1R,2S,8aS)-1,2,5,5-tetramethyl-2,3,6,7,8,8a-hexahydronaphthalen-1-yl]-3-methylpent-2-enyl] phosphono hydrogen phosphate

> <PUBCHEM_IUPAC_NAME>
[(E)-5-[(1R,2S,8aS)-1,2,5,5-tetramethyl-2,3,6,7,8,8a-hexahydronaphthalen-1-yl]-3-methylpent-2-enyl] phosphono hydrogen phosphate

> <PUBCHEM_IUPAC_SYSTEMATIC_NAME>
[(E)-5-[(1R,2S,8aS)-1,2,5,5-tetramethyl-2,3,6,7,8,8a-hexahydronaphthalen-1-yl]-3-methyl-pent-2-enyl] phosphono hydrogen phosphate

> <PUBCHEM_IUPAC_TRADITIONAL_NAME>
[(E)-5-[(1R,2S,8aS)-1,2,5,5-tetramethyl-2,3,6,7,8,8a-hexahydronaphthalen-1-yl]-3-methyl-pent-2-enyl] phosphono hydrogen phosphate

> <PUBCHEM_IUPAC_INCHI>
InChI=1S/C20H36O7P2/c1-15(11-14-26-29(24,25)27-28(21,22)23)10-13-20(5)16(2)8-9-17-18(20)7-6-12-19(17,3)4/h9,11,16,18H,6-8,10,12-14H2,1-5H3,(H,24,25)(H2,21,22,23)/b15-11+/t16-,18+,20+/m0/s1

> <PUBCHEM_IUPAC_INCHIKEY>
BPSHPRCHMGHBGC-AHKHSGQUSA-N

> <PUBCHEM_XLOGP3_AA>
3.8

> <PUBCHEM_EXACT_MASS>
450.193627

> <PUBCHEM_MOLECULAR_FORMULA>
C20H36O7P2

> <PUBCHEM_MOLECULAR_WEIGHT>
450.443164

> <PUBCHEM_OPENEYE_CAN_SMILES>
CC1CC=C2C(C1(C)CCC(=CCOP(=O)(O)OP(=O)(O)O)C)CCCC2(C)C

> <PUBCHEM_OPENEYE_ISO_SMILES>
C[C@H]1CC=C2[C@H]([C@]1(C)CC/C(=C/COP(=O)(O)OP(=O)(O)O)/C)CCCC2(C)C

> <PUBCHEM_CACTVS_TPSA>
113

> <PUBCHEM_MONOISOTOPIC_WEIGHT>
450.193627

> <PUBCHEM_TOTAL_CHARGE>
0

> <PUBCHEM_HEAVY_ATOM_COUNT>
29

> <PUBCHEM_ATOM_DEF_STEREO_COUNT>
3

> <PUBCHEM_ATOM_UDEF_STEREO_COUNT>
0

> <PUBCHEM_BOND_DEF_STEREO_COUNT>
1

> <PUBCHEM_BOND_UDEF_STEREO_COUNT>
0

> <PUBCHEM_ISOTOPIC_ATOM_COUNT>
0

> <PUBCHEM_COMPONENT_COUNT>
1

> <PUBCHEM_CACTVS_TAUTO_COUNT>
1

> <PUBCHEM_COORDINATE_TYPE>
1
5
255

> <PUBCHEM_BONDANNOTATIONS>
10  21  5
11  30  6
12  22  5

$$$$

