   Color/Form
        NEEDLES FROM CHLOROFORM
   from [1]HSDB

   Boiling Point
        209-210 DEG C @ 18 MM HG
   from [2]HSDB

   Melting Point
        83-84 DEG C
   from [3]HSDB

   Dissociation Constants
        PKA1= 9.68; PKA2= 5.88
   from [4]HSDB

   Solubilities
        FREELY SOL IN WATER, ALCOHOL, HOT CHLOROFORM; SPARINGLY SOL IN
   ETHER
   from [5]HSDB

   Spectral Properties

     * SADTLER REFERENCE NUMBER: 5860 (IR, PRISM)
     * MAX ABSORPTION (ACID): 208 NM (A= 519, 1%, 1 CM)
     * IR: 3858 (Coblentz Society Spectral Collection)
     * UV: 5-40 (Organic Electronic Spectral Data, Phillips et al, John
       Wiley & Sons, New York)
     * NMR: 443 (Varian Associates NMR Spectra Catalogue)
     * MASS: 2-662 (Archives of Mass Spectral Data, John Wiley & Sons, New
       York)

   from [6]HSDB

   Other Chemical/Physical Properties

     * DELIQUESCENT
     * PRISMS FROM ETHANOL; MP: 244-246 DEG C; FREELY SOL IN WATER,
       METHANOL /DIHYDROCHLORIDE/
     * COLORLESS LONG PRISMATIC CRYSTALS; ODORLESS; 1 G SOL IN ABOUT 4 ML
       WATER; AQ SOLN IS ACID TO LITMUS; WHEN DRIED AT 105 DEG C FOR 2 HR,
       IT MELTS AT ABOUT 140 DEG C /PHOSPHATE/

   from [7]HSDB

   Computed Properties
   Molecular Weight                  111.14506 [g/mol]
   Molecular Formula                 C[5]H[9]N[3]
   XLogP3                            -0.7
   H-Bond Donor                      2
   H-Bond Acceptor                   2
   Rotatable Bond Count              2
   Tautomer Count                    2
   Exact Mass                        111.079647
   MonoIsotopic Mass                 111.079647
   Topological Polar Surface Area    54.7
   Heavy Atom Count                  8
   Formal Charge                     0
   Complexity                        64.7
   Isotope Atom Count                0
   Defined Atom Stereocenter Count   0
   Undefined Atom Stereocenter Count 0
   Defined Bond Stereocenter Count   0
   Undefined Bond Stereocenter Count 0
   Covalently-Bonded Unit Count      1
   Feature 3D Donor Count            2
   Feature 3D Cation Count           2
   Feature 3D Ring Count             1
   Effective Rotor Count             2
   Conformer Sampling RMSD           0.4
   CID Conformer Count               [8]11

References

   1. http://toxnet.nlm.nih.gov/cgi-bin/sis/search/r?dbs+hsdb:@term+@rn+@rel+51-45-6
   2. http://toxnet.nlm.nih.gov/cgi-bin/sis/search/r?dbs+hsdb:@term+@rn+@rel+51-45-6
   3. http://toxnet.nlm.nih.gov/cgi-bin/sis/search/r?dbs+hsdb:@term+@rn+@rel+51-45-6
   4. http://toxnet.nlm.nih.gov/cgi-bin/sis/search/r?dbs+hsdb:@term+@rn+@rel+51-45-6
   5. http://toxnet.nlm.nih.gov/cgi-bin/sis/search/r?dbs+hsdb:@term+@rn+@rel+51-45-6
   6. http://toxnet.nlm.nih.gov/cgi-bin/sis/search/r?dbs+hsdb:@term+@rn+@rel+51-45-6
   7. http://toxnet.nlm.nih.gov/cgi-bin/sis/search/r?dbs+hsdb:@term+@rn+@rel+51-45-6
   8. http://pubchem.ncbi.nlm.nih.gov/vw3d/vw3d.cgi?cid=774
