5282250
  -OEChem-07051213042D

 43 44  0     0  0  0  0  0  0999 V2000
    8.0622    1.0000    0.0000 S   0  0  0  0  0  0  0  0  0  0  0  0
    3.7320   -1.5000    0.0000 S   0  0  0  0  0  0  0  0  0  0  0  0
    2.0000    3.5000    0.0000 S   0  0  0  0  0  0  0  0  0  0  0  0
    8.0622    2.0000    0.0000 O   0  0  0  0  0  0  0  0  0  0  0  0
    3.7320   -2.5000    0.0000 O   0  0  0  0  0  0  0  0  0  0  0  0
    9.0622    1.0000    0.0000 O   0  0  0  0  0  0  0  0  0  0  0  0
    7.0622    1.0000    0.0000 O   0  0  0  0  0  0  0  0  0  0  0  0
    2.7320   -1.5000    0.0000 O   0  0  0  0  0  0  0  0  0  0  0  0
    4.7320   -1.5000    0.0000 O   0  0  0  0  0  0  0  0  0  0  0  0
    8.9282   -3.5000    0.0000 O   0  0  0  0  0  0  0  0  0  0  0  0
    9.7942   -2.0000    0.0000 N   0  0  0  0  0  0  0  0  0  0  0  0
    2.0000    1.5000    0.0000 N   0  0  0  0  0  0  0  0  0  0  0  0
    7.1962   -0.5000    0.0000 C   0  0  0  0  0  0  0  0  0  0  0  0
    8.0622    0.0000    0.0000 C   0  0  0  0  0  0  0  0  0  0  0  0
    4.5981    0.0000    0.0000 C   0  0  0  0  0  0  0  0  0  0  0  0
    3.7320   -0.5000    0.0000 C   0  0  0  0  0  0  0  0  0  0  0  0
    8.9282   -0.5000    0.0000 C   0  0  0  0  0  0  0  0  0  0  0  0
    6.3301    0.0000    0.0000 C   0  0  0  0  0  0  0  0  0  0  0  0
    8.9282   -1.5000    0.0000 C   0  0  0  0  0  0  0  0  0  0  0  0
    7.1962   -1.5000    0.0000 C   0  0  0  0  0  0  0  0  0  0  0  0
    5.4641   -0.5000    0.0000 C   0  0  0  0  0  0  0  0  0  0  0  0
    8.0622   -2.0000    0.0000 C   0  0  0  0  0  0  0  0  0  0  0  0
    4.5981    1.0000    0.0000 C   0  0  0  0  0  0  0  0  0  0  0  0
    2.8660    0.0000    0.0000 C   0  0  0  0  0  0  0  0  0  0  0  0
    2.8660    1.0000    0.0000 C   0  0  0  0  0  0  0  0  0  0  0  0
    3.7320    1.5000    0.0000 C   0  0  0  0  0  0  0  0  0  0  0  0
    9.7942   -3.0000    0.0000 C   0  0  0  0  0  0  0  0  0  0  0  0
   10.6603   -3.5000    0.0000 C   0  0  0  0  0  0  0  0  0  0  0  0
    2.0000    2.5000    0.0000 C   0  0  0  0  0  0  0  0  0  0  0  0
    9.4651   -0.1900    0.0000 H   0  0  0  0  0  0  0  0  0  0  0  0
    6.3301    0.6200    0.0000 H   0  0  0  0  0  0  0  0  0  0  0  0
    6.6592   -1.8100    0.0000 H   0  0  0  0  0  0  0  0  0  0  0  0
    5.4641   -1.1200    0.0000 H   0  0  0  0  0  0  0  0  0  0  0  0
    8.0622   -2.6200    0.0000 H   0  0  0  0  0  0  0  0  0  0  0  0
    5.1350    1.3100    0.0000 H   0  0  0  0  0  0  0  0  0  0  0  0
    2.3291   -0.3100    0.0000 H   0  0  0  0  0  0  0  0  0  0  0  0
    3.7320    2.1200    0.0000 H   0  0  0  0  0  0  0  0  0  0  0  0
   10.3312   -1.6900    0.0000 H   0  0  0  0  0  0  0  0  0  0  0  0
    8.5991    2.3100    0.0000 H   0  0  0  0  0  0  0  0  0  0  0  0
    3.1951   -2.8100    0.0000 H   0  0  0  0  0  0  0  0  0  0  0  0
   10.3503   -4.0369    0.0000 H   0  0  0  0  0  0  0  0  0  0  0  0
   11.1972   -3.8100    0.0000 H   0  0  0  0  0  0  0  0  0  0  0  0
   10.9703   -2.9631    0.0000 H   0  0  0  0  0  0  0  0  0  0  0  0
  1  4  1  0  0  0  0
  1  6  2  0  0  0  0
  1  7  2  0  0  0  0
  1 14  1  0  0  0  0
  2  5  1  0  0  0  0
  2  8  2  0  0  0  0
  2  9  2  0  0  0  0
  2 16  1  0  0  0  0
  3 29  2  0  0  0  0
  4 39  1  0  0  0  0
  5 40  1  0  0  0  0
 10 27  2  0  0  0  0
 11 19  1  0  0  0  0
 11 27  1  0  0  0  0
 11 38  1  0  0  0  0
 12 25  1  0  0  0  0
 12 29  2  0  0  0  0
 13 14  2  0  0  0  0
 13 18  1  0  0  0  0
 13 20  1  0  0  0  0
 14 17  1  0  0  0  0
 15 16  2  0  0  0  0
 15 21  1  0  0  0  0
 15 23  1  0  0  0  0
 16 24  1  0  0  0  0
 17 19  2  0  0  0  0
 17 30  1  0  0  0  0
 18 21  2  0  0  0  0
 18 31  1  0  0  0  0
 19 22  1  0  0  0  0
 20 22  2  0  0  0  0
 20 32  1  0  0  0  0
 21 33  1  0  0  0  0
 22 34  1  0  0  0  0
 23 26  2  0  0  0  0
 23 35  1  0  0  0  0
 24 25  2  0  0  0  0
 24 36  1  0  0  0  0
 25 26  1  0  0  0  0
 26 37  1  0  0  0  0
 27 28  1  0  0  0  0
 28 41  1  0  0  0  0
 28 42  1  0  0  0  0
 28 43  1  0  0  0  0
M  END
> <PUBCHEM_COMPOUND_CID>
5282250

> <PUBCHEM_COMPOUND_CANONICALIZED>
1

> <PUBCHEM_CACTVS_COMPLEXITY>
883

> <PUBCHEM_CACTVS_HBOND_ACCEPTOR>
9

> <PUBCHEM_CACTVS_HBOND_DONOR>
3

> <PUBCHEM_CACTVS_ROTATABLE_BOND>
6

> <PUBCHEM_CACTVS_SUBSKEYS>
AAADccB7OABgAAAAAAAAAAAAAAAAAAAAAAAwYAAAAAAAAAABQAAAHgQQCAAADAiB2AAywYLAAIKsAiVSVHDCAEAhAgAIiBgAZIgIICLAkZGEIAxglADIyAcQgAAOCAAAACAEAAAQAAAAQAgAAAAAAAAAAA==

> <PUBCHEM_IUPAC_OPENEYE_NAME>
5-acetamido-2-[(E)-2-(4-isothiocyanato-2-sulfo-phenyl)vinyl]benzenesulfonic acid

> <PUBCHEM_IUPAC_CAS_NAME>
5-acetamido-2-[(E)-2-(4-isothiocyanato-2-sulfophenyl)ethenyl]benzenesulfonic acid

> <PUBCHEM_IUPAC_NAME>
5-acetamido-2-[(E)-2-(4-isothiocyanato-2-sulfophenyl)ethenyl]benzenesulfonic acid

> <PUBCHEM_IUPAC_SYSTEMATIC_NAME>
5-acetamido-2-[(E)-2-(4-isothiocyanato-2-sulfo-phenyl)ethenyl]benzenesulfonic acid

> <PUBCHEM_IUPAC_TRADITIONAL_NAME>
5-acetamido-2-[(E)-2-(4-isothiocyanato-2-sulfo-phenyl)vinyl]besylic acid

> <PUBCHEM_IUPAC_INCHI>
InChI=1S/C17H14N2O7S3/c1-11(20)19-15-7-5-13(17(9-15)29(24,25)26)3-2-12-4-6-14(18-10-27)8-16(12)28(21,22)23/h2-9H,1H3,(H,19,20)(H,21,22,23)(H,24,25,26)/b3-2+

> <PUBCHEM_IUPAC_INCHIKEY>
YJCCSLGGODRWKK-NSCUHMNNSA-N

> <PUBCHEM_XLOGP3_AA>
2.3

> <PUBCHEM_EXACT_MASS>
453.996314

> <PUBCHEM_MOLECULAR_FORMULA>
C17H14N2O7S3

> <PUBCHEM_MOLECULAR_WEIGHT>
454.49726

> <PUBCHEM_OPENEYE_CAN_SMILES>
CC(=O)NC1=CC(=C(C=C1)C=CC2=C(C=C(C=C2)N=C=S)S(=O)(=O)O)S(=O)(=O)O

> <PUBCHEM_OPENEYE_ISO_SMILES>
CC(=O)NC1=CC(=C(C=C1)/C=C/C2=C(C=C(C=C2)N=C=S)S(=O)(=O)O)S(=O)(=O)O

> <PUBCHEM_CACTVS_TPSA>
199

> <PUBCHEM_MONOISOTOPIC_WEIGHT>
453.996314

> <PUBCHEM_TOTAL_CHARGE>
0

> <PUBCHEM_HEAVY_ATOM_COUNT>
29

> <PUBCHEM_ATOM_DEF_STEREO_COUNT>
0

> <PUBCHEM_ATOM_UDEF_STEREO_COUNT>
0

> <PUBCHEM_BOND_DEF_STEREO_COUNT>
1

> <PUBCHEM_BOND_UDEF_STEREO_COUNT>
0

> <PUBCHEM_ISOTOPIC_ATOM_COUNT>
0

> <PUBCHEM_COMPONENT_COUNT>
1

> <PUBCHEM_CACTVS_TAUTO_COUNT>
5

> <PUBCHEM_COORDINATE_TYPE>
1
5
255

> <PUBCHEM_BONDANNOTATIONS>
13  14  8
13  20  8
14  17  8
15  16  8
15  23  8
16  24  8
17  19  8
19  22  8
20  22  8
23  26  8
24  25  8
25  26  8

$$$$

