   Color/Form
        Hygroscopic crystals
   from [1]HSDB

   Boiling Point
        232-234 deg C (decomposition)
   from [2]HSDB

   Melting Point
        48 deg C
   from [3]HSDB

   Dissociation Constants
        pKa = 1.48 at 25 deg C
   from [4]HSDB

   Octanol/Water Partition Coefficient
        log Kow = 0.70 (est)
   from [5]HSDB

   Solubilities

     * Very soluble in ethanol; soluble in diethyl ether
     * In water, 2.11X10+6 mg/L at 25 deg C

   from [6]HSDB

   Spectral Properties

     * MASS: 73577 (NIST/EPA/MSDC Mass Spectral Database, 1990 Version)
     * IR: 1424 (Coblentz Society spectral collection)
     * 1H NMR: 14411 (Sadtler Research Laboratories spectral collection)

   from [7]HSDB

   Vapor Pressure
        2.3X10-2 mm Hg at 25 deg C (est)
   from [8]HSDB

   Other Chemical/Physical Properties

     * BP: 195 deg C at 250 mm Hg; 130 deg C at 16 mm Hg
     * When heated to decomposition it emits toxic fumes
     * Henry's Law constant = 4.42X10-9 atm-cu m/mole at 25 deg C
     * Hydroxyl radical reaction rate constant = 6.3X10-13 cu
       cm/molecule-sec at 25 deg C (est)

   from [9]HSDB

   Computed Properties
   Molecular Weight                  217.84408 [g/mol]
   Molecular Formula                 C[2]H[2]Br[2]O[2]
   XLogP3-AA                         1.5
   H-Bond Donor                      1
   H-Bond Acceptor                   2
   Rotatable Bond Count              1
   Exact Mass                        217.840107
   MonoIsotopic Mass                 215.842154
   Topological Polar Surface Area    37.3
   Heavy Atom Count                  6
   Formal Charge                     0
   Complexity                        60.6
   Isotope Atom Count                0
   Defined Atom Stereocenter Count   0
   Undefined Atom Stereocenter Count 0
   Defined Bond Stereocenter Count   0
   Undefined Bond Stereocenter Count 0
   Covalently-Bonded Unit Count      1
   Feature 3D Acceptor Count         2
   Feature 3D Anion Count            1
   Feature 3D Hydrophobe Count       3
   Effective Rotor Count             1
   Conformer Sampling RMSD           0.4
   CID Conformer Count               [10]3

References

   1. http://toxnet.nlm.nih.gov/cgi-bin/sis/search/r?dbs+hsdb:@term+@rn+@rel+631-64-1
   2. http://toxnet.nlm.nih.gov/cgi-bin/sis/search/r?dbs+hsdb:@term+@rn+@rel+631-64-1
   3. http://toxnet.nlm.nih.gov/cgi-bin/sis/search/r?dbs+hsdb:@term+@rn+@rel+631-64-1
   4. http://toxnet.nlm.nih.gov/cgi-bin/sis/search/r?dbs+hsdb:@term+@rn+@rel+631-64-1
   5. http://toxnet.nlm.nih.gov/cgi-bin/sis/search/r?dbs+hsdb:@term+@rn+@rel+631-64-1
   6. http://toxnet.nlm.nih.gov/cgi-bin/sis/search/r?dbs+hsdb:@term+@rn+@rel+631-64-1
   7. http://toxnet.nlm.nih.gov/cgi-bin/sis/search/r?dbs+hsdb:@term+@rn+@rel+631-64-1
   8. http://toxnet.nlm.nih.gov/cgi-bin/sis/search/r?dbs+hsdb:@term+@rn+@rel+631-64-1
   9. http://toxnet.nlm.nih.gov/cgi-bin/sis/search/r?dbs+hsdb:@term+@rn+@rel+631-64-1
  10. http://pubchem.ncbi.nlm.nih.gov/vw3d/vw3d.cgi?cid=12433
