8339
  -OEChem-07051212512D

 38 40  0     1  0  0  0  0  0999 V2000
    6.7577    2.8674    0.0000 P   0  0  0  0  0  0  0  0  0  0  0  0
    7.3435   -0.1368    0.0000 O   0  0  0  0  0  0  0  0  0  0  0  0
    6.0873    2.1255    0.0000 O   0  0  0  0  0  0  0  0  0  0  0  0
    4.8055    0.3676    0.0000 O   0  0  0  0  0  0  0  0  0  0  0  0
    9.0681    1.0413    0.0000 O   0  0  0  0  0  0  0  0  0  0  0  0
    7.4282    3.6094    0.0000 O   0  0  0  0  0  0  0  0  0  0  0  0
    6.0158    3.5379    0.0000 O   0  0  0  0  0  0  0  0  0  0  0  0
    7.4997    2.1970    0.0000 O   0  0  0  0  0  0  0  0  0  0  0  0
    4.2690   -4.1994    0.0000 O   0  0  0  0  0  0  0  0  0  0  0  0
    6.0812   -1.3947    0.0000 N   0  0  0  0  0  0  0  0  0  0  0  0
    4.2690   -1.1994    0.0000 N   0  0  0  0  0  0  0  0  0  0  0  0
    6.0812   -3.0042    0.0000 N   0  0  0  0  0  0  0  0  0  0  0  0
    3.4030   -2.6994    0.0000 N   0  0  0  0  0  0  0  0  0  0  0  0
    2.5369   -1.1994    0.0000 N   0  0  0  0  0  0  0  0  0  0  0  0
    6.3947    1.1739    0.0000 C   0  0  1  0  0  0  0  0  0  0  0  0
    5.8055    0.3659    0.0000 C   0  0  2  0  0  0  0  0  0  0  0  0
    6.3919   -0.4442    0.0000 C   0  0  1  0  0  0  0  0  0  0  0  0
    7.3452    0.8632    0.0000 C   0  0  1  0  0  0  0  0  0  0  0  0
    8.1552    1.4496    0.0000 C   0  0  0  0  0  0  0  0  0  0  0  0
    5.1350   -1.6994    0.0000 C   0  0  0  0  0  0  0  0  0  0  0  0
    6.6648   -2.1994    0.0000 C   0  0  0  0  0  0  0  0  0  0  0  0
    5.1350   -2.6994    0.0000 C   0  0  0  0  0  0  0  0  0  0  0  0
    4.2690   -3.1994    0.0000 C   0  0  0  0  0  0  0  0  0  0  0  0
    3.4030   -1.6994    0.0000 C   0  0  0  0  0  0  0  0  0  0  0  0
    5.7825    1.2719    0.0000 H   0  0  0  0  0  0  0  0  0  0  0  0
    5.5250    0.9188    0.0000 H   0  0  0  0  0  0  0  0  0  0  0  0
    5.7794   -0.5401    0.0000 H   0  0  0  0  0  0  0  0  0  0  0  0
    7.8972    0.5808    0.0000 H   0  0  0  0  0  0  0  0  0  0  0  0
    8.5028    1.9630    0.0000 H   0  0  0  0  0  0  0  0  0  0  0  0
    7.7100    1.8810    0.0000 H   0  0  0  0  0  0  0  0  0  0  0  0
    4.4964    0.9051    0.0000 H   0  0  0  0  0  0  0  0  0  0  0  0
    7.2848   -2.1994    0.0000 H   0  0  0  0  0  0  0  0  0  0  0  0
    4.2690   -0.5794    0.0000 H   0  0  0  0  0  0  0  0  0  0  0  0
    9.5703    1.4048    0.0000 H   0  0  0  0  0  0  0  0  0  0  0  0
    7.2376    4.1994    0.0000 H   0  0  0  0  0  0  0  0  0  0  0  0
    5.4258    3.3473    0.0000 H   0  0  0  0  0  0  0  0  0  0  0  0
    2.0000   -1.5094    0.0000 H   0  0  0  0  0  0  0  0  0  0  0  0
    2.5369   -0.5794    0.0000 H   0  0  0  0  0  0  0  0  0  0  0  0
  1  3  1  0  0  0  0
  1  6  1  0  0  0  0
  1  7  1  0  0  0  0
  1  8  2  0  0  0  0
  2 17  1  0  0  0  0
  2 18  1  0  0  0  0
 15  3  1  6  0  0  0
 16  4  1  6  0  0  0
  4 31  1  0  0  0  0
  5 19  1  0  0  0  0
  5 34  1  0  0  0  0
  6 35  1  0  0  0  0
  7 36  1  0  0  0  0
  9 23  2  0  0  0  0
 17 10  1  1  0  0  0
 10 20  1  0  0  0  0
 10 21  1  0  0  0  0
 11 20  1  0  0  0  0
 11 24  1  0  0  0  0
 11 33  1  0  0  0  0
 12 21  2  0  0  0  0
 12 22  1  0  0  0  0
 13 23  1  0  0  0  0
 13 24  2  0  0  0  0
 14 24  1  0  0  0  0
 14 37  1  0  0  0  0
 14 38  1  0  0  0  0
 15 16  1  0  0  0  0
 15 18  1  0  0  0  0
 15 25  1  0  0  0  0
 16 17  1  0  0  0  0
 16 26  1  0  0  0  0
 17 27  1  0  0  0  0
 18 19  1  1  0  0  0
 18 28  1  0  0  0  0
 19 29  1  0  0  0  0
 19 30  1  0  0  0  0
 20 22  2  0  0  0  0
 21 32  1  0  0  0  0
 22 23  1  0  0  0  0
M  END
> <PUBCHEM_COMPOUND_CID>
8339

> <PUBCHEM_COMPOUND_CANONICALIZED>
1

> <PUBCHEM_CACTVS_COMPLEXITY>
598

> <PUBCHEM_CACTVS_HBOND_ACCEPTOR>
9

> <PUBCHEM_CACTVS_HBOND_DONOR>
6

> <PUBCHEM_CACTVS_ROTATABLE_BOND>
4

> <PUBCHEM_CACTVS_SUBSKEYS>
AAADccBzvAIAAAAAAAAAAAAAAAAAAWJAAAAgAAAAAAAAAEABgAAAHgAQCCAACBzhlgYFsBfMFxCoQQdxdICAgC0XEKABUAGoVECDWApAyCAeQIAPAALTAGDwMAIAAAAAAAAAAAAAAAAAAAAAAAAAAAAAAA==

> <PUBCHEM_IUPAC_OPENEYE_NAME>
[(2R,3S,4R,5R)-5-(2-amino-6-oxo-3H-purin-9-yl)-4-hydroxy-2-(hydroxymethyl)tetrahydrofuran-3-yl] dihydrogen phosphate

> <PUBCHEM_IUPAC_CAS_NAME>
[(2R,3S,4R,5R)-5-(2-amino-6-oxo-3H-purin-9-yl)-4-hydroxy-2-(hydroxymethyl)-3-oxolanyl] dihydrogen phosphate

> <PUBCHEM_IUPAC_NAME>
[(2R,3S,4R,5R)-5-(2-amino-6-oxo-3H-purin-9-yl)-4-hydroxy-2-(hydroxymethyl)oxolan-3-yl] dihydrogen phosphate

> <PUBCHEM_IUPAC_SYSTEMATIC_NAME>
[(2R,3S,4R,5R)-5-(2-azanyl-6-oxidanylidene-3H-purin-9-yl)-2-(hydroxymethyl)-4-oxidanyl-oxolan-3-yl] dihydrogen phosphate

> <PUBCHEM_IUPAC_TRADITIONAL_NAME>
[(2R,3S,4R,5R)-5-(2-amino-6-keto-3H-purin-9-yl)-4-hydroxy-2-methylol-tetrahydrofuran-3-yl] dihydrogen phosphate

> <PUBCHEM_IUPAC_INCHI>
InChI=1S/C10H14N5O8P/c11-10-13-7-4(8(18)14-10)12-2-15(7)9-5(17)6(3(1-16)22-9)23-24(19,20)21/h2-3,5-6,9,16-17H,1H2,(H2,19,20,21)(H3,11,13,14,18)/t3-,5-,6-,9-/m1/s1

> <PUBCHEM_IUPAC_INCHIKEY>
ZDPUTNZENXVHJC-UUOKFMHZSA-N

> <PUBCHEM_XLOGP3>
-4.3

> <PUBCHEM_EXACT_MASS>
363.057999

> <PUBCHEM_MOLECULAR_FORMULA>
C10H14N5O8P

> <PUBCHEM_MOLECULAR_WEIGHT>
363.220622

> <PUBCHEM_OPENEYE_CAN_SMILES>
C1=NC2=C(N1C3C(C(C(O3)CO)OP(=O)(O)O)O)NC(=NC2=O)N

> <PUBCHEM_OPENEYE_ISO_SMILES>
C1=NC2=C(N1[C@H]3[C@@H]([C@@H]([C@H](O3)CO)OP(=O)(O)O)O)NC(=NC2=O)N

> <PUBCHEM_CACTVS_TPSA>
202

> <PUBCHEM_MONOISOTOPIC_WEIGHT>
363.057999

> <PUBCHEM_TOTAL_CHARGE>
0

> <PUBCHEM_HEAVY_ATOM_COUNT>
24

> <PUBCHEM_ATOM_DEF_STEREO_COUNT>
4

> <PUBCHEM_ATOM_UDEF_STEREO_COUNT>
0

> <PUBCHEM_BOND_DEF_STEREO_COUNT>
0

> <PUBCHEM_BOND_UDEF_STEREO_COUNT>
0

> <PUBCHEM_ISOTOPIC_ATOM_COUNT>
0

> <PUBCHEM_COMPONENT_COUNT>
1

> <PUBCHEM_CACTVS_TAUTO_COUNT>
9

> <PUBCHEM_COORDINATE_TYPE>
1
5
255

> <PUBCHEM_BONDANNOTATIONS>
17  10  5
10  20  8
10  21  8
11  20  8
11  24  8
12  21  8
12  22  8
13  23  8
13  24  8
18  19  5
20  22  8
22  23  8
15  3  6
16  4  6

$$$$

