3084480
  -OEChem-07051213082D

 86 87  0     1  0  0  0  0  0999 V2000
    5.5000   -0.2200    0.0000 O   0  0  0  0  0  0  0  0  0  0  0  0
    5.5000   -1.9520    0.0000 O   0  0  0  0  0  0  0  0  0  0  0  0
    3.5000   -0.2200    0.0000 O   0  0  0  0  0  0  0  0  0  0  0  0
   10.0000    0.6460    0.0000 O   0  0  0  0  0  0  0  0  0  0  0  0
   10.7071    3.0852    0.0000 O   0  0  0  0  0  0  0  0  0  0  0  0
    8.5000   -1.9520    0.0000 O   0  0  0  0  0  0  0  0  0  0  0  0
    8.5000    1.5121    0.0000 O   0  0  0  0  0  0  0  0  0  0  0  0
   10.0000   -1.0860    0.0000 O   0  0  0  0  0  0  0  0  0  0  0  0
    2.5000   -1.9520    0.0000 N   0  0  0  0  0  0  0  0  0  0  0  0
    6.5000   -0.2200    0.0000 C   0  0  3  0  0  0  0  0  0  0  0  0
    7.0000    0.6460    0.0000 C   0  0  3  0  0  0  0  0  0  0  0  0
    3.5000   -1.9520    0.0000 C   0  0  3  0  0  0  0  0  0  0  0  0
    4.0000   -1.0860    0.0000 C   0  0  3  0  0  0  0  0  0  0  0  0
    5.0000   -1.0860    0.0000 C   0  0  3  0  0  0  0  0  0  0  0  0
    7.0000   -1.0860    0.0000 C   0  0  3  0  0  0  0  0  0  0  0  0
    4.0000   -2.8180    0.0000 C   0  0  0  0  0  0  0  0  0  0  0  0
    6.5000    1.5121    0.0000 C   0  0  0  0  0  0  0  0  0  0  0  0
    5.0000   -2.8180    0.0000 C   0  0  3  0  0  0  0  0  0  0  0  0
    7.0000    2.3781    0.0000 C   0  0  3  0  0  0  0  0  0  0  0  0
    8.0000    0.6460    0.0000 C   0  0  0  0  0  0  0  0  0  0  0  0
    8.0000   -1.0860    0.0000 C   0  0  0  0  0  0  0  0  0  0  0  0
   10.0000    2.3781    0.0000 C   0  0  3  0  0  0  0  0  0  0  0  0
    6.5000   -1.9520    0.0000 C   0  0  0  0  0  0  0  0  0  0  0  0
    8.0000    2.3781    0.0000 C   0  0  0  0  0  0  0  0  0  0  0  0
    9.5000    3.2441    0.0000 C   0  0  0  0  0  0  0  0  0  0  0  0
    8.5000    3.2441    0.0000 C   0  0  0  0  0  0  0  0  0  0  0  0
    8.5000   -0.2200    0.0000 C   0  0  3  0  0  0  0  0  0  0  0  0
    5.5000   -3.6841    0.0000 C   0  0  0  0  0  0  0  0  0  0  0  0
    9.5000    1.5121    0.0000 C   0  0  3  0  0  0  0  0  0  0  0  0
    6.5000    3.2441    0.0000 C   0  0  0  0  0  0  0  0  0  0  0  0
    2.0000   -2.8180    0.0000 C   0  0  0  0  0  0  0  0  0  0  0  0
    2.0000   -1.0860    0.0000 C   0  0  0  0  0  0  0  0  0  0  0  0
    8.7340    2.1549    0.0000 C   0  0  0  0  0  0  0  0  0  0  0  0
   10.9659    2.1193    0.0000 C   0  0  0  0  0  0  0  0  0  0  0  0
    9.5000   -0.2200    0.0000 C   0  0  0  0  0  0  0  0  0  0  0  0
    7.5000   -0.2200    0.0000 C   0  0  0  0  0  0  0  0  0  0  0  0
    7.7943    1.8132    0.0000 C   0  0  0  0  0  0  0  0  0  0  0  0
    6.1900   -0.7569    0.0000 H   0  0  0  0  0  0  0  0  0  0  0  0
    7.3100    0.1091    0.0000 H   0  0  0  0  0  0  0  0  0  0  0  0
    3.1900   -1.4151    0.0000 H   0  0  0  0  0  0  0  0  0  0  0  0
    3.3800   -1.0860    0.0000 H   0  0  0  0  0  0  0  0  0  0  0  0
    4.6900   -0.5491    0.0000 H   0  0  0  0  0  0  0  0  0  0  0  0
    6.3800   -1.0860    0.0000 H   0  0  0  0  0  0  0  0  0  0  0  0
    3.4174   -3.0301    0.0000 H   0  0  0  0  0  0  0  0  0  0  0  0
    4.1077   -3.4286    0.0000 H   0  0  0  0  0  0  0  0  0  0  0  0
    6.0250    1.9106    0.0000 H   0  0  0  0  0  0  0  0  0  0  0  0
    6.0250    1.1135    0.0000 H   0  0  0  0  0  0  0  0  0  0  0  0
    5.6200   -2.8180    0.0000 H   0  0  0  0  0  0  0  0  0  0  0  0
    6.3800    2.3781    0.0000 H   0  0  0  0  0  0  0  0  0  0  0  0
    8.0000    0.0260    0.0000 H   0  0  0  0  0  0  0  0  0  0  0  0
    8.6200    0.6460    0.0000 H   0  0  0  0  0  0  0  0  0  0  0  0
    8.0000    1.2660    0.0000 H   0  0  0  0  0  0  0  0  0  0  0  0
    5.9631   -1.6420    0.0000 H   0  0  0  0  0  0  0  0  0  0  0  0
    6.1900   -2.4890    0.0000 H   0  0  0  0  0  0  0  0  0  0  0  0
    7.0369   -2.2620    0.0000 H   0  0  0  0  0  0  0  0  0  0  0  0
   10.0826    3.4562    0.0000 H   0  0  0  0  0  0  0  0  0  0  0  0
    9.3923    3.8547    0.0000 H   0  0  0  0  0  0  0  0  0  0  0  0
    8.6077    3.8547    0.0000 H   0  0  0  0  0  0  0  0  0  0  0  0
    7.9174    3.4562    0.0000 H   0  0  0  0  0  0  0  0  0  0  0  0
    8.5000    0.4000    0.0000 H   0  0  0  0  0  0  0  0  0  0  0  0
    9.0250    1.1136    0.0000 H   0  0  0  0  0  0  0  0  0  0  0  0
    4.9631   -3.9941    0.0000 H   0  0  0  0  0  0  0  0  0  0  0  0
    5.8100   -4.2210    0.0000 H   0  0  0  0  0  0  0  0  0  0  0  0
    6.0369   -3.3741    0.0000 H   0  0  0  0  0  0  0  0  0  0  0  0
    7.0369    3.5541    0.0000 H   0  0  0  0  0  0  0  0  0  0  0  0
    6.1900    3.7811    0.0000 H   0  0  0  0  0  0  0  0  0  0  0  0
    5.9631    2.9341    0.0000 H   0  0  0  0  0  0  0  0  0  0  0  0
    3.8100    0.3170    0.0000 H   0  0  0  0  0  0  0  0  0  0  0  0
    2.5369   -0.7760    0.0000 H   0  0  0  0  0  0  0  0  0  0  0  0
    1.6900   -0.5491    0.0000 H   0  0  0  0  0  0  0  0  0  0  0  0
    1.4631   -1.3960    0.0000 H   0  0  0  0  0  0  0  0  0  0  0  0
    1.4631   -2.5080    0.0000 H   0  0  0  0  0  0  0  0  0  0  0  0
    1.6900   -3.3550    0.0000 H   0  0  0  0  0  0  0  0  0  0  0  0
    2.5369   -3.1280    0.0000 H   0  0  0  0  0  0  0  0  0  0  0  0
    9.2090    2.5534    0.0000 H   0  0  0  0  0  0  0  0  0  0  0  0
    8.4241    2.6919    0.0000 H   0  0  0  0  0  0  0  0  0  0  0  0
   10.8055    1.5204    0.0000 H   0  0  0  0  0  0  0  0  0  0  0  0
   11.5648    1.9588    0.0000 H   0  0  0  0  0  0  0  0  0  0  0  0
   11.1264    2.7182    0.0000 H   0  0  0  0  0  0  0  0  0  0  0  0
    7.5000    0.4000    0.0000 H   0  0  0  0  0  0  0  0  0  0  0  0
    6.8800   -0.2200    0.0000 H   0  0  0  0  0  0  0  0  0  0  0  0
    7.5000   -0.8400    0.0000 H   0  0  0  0  0  0  0  0  0  0  0  0
   10.5466    3.6841    0.0000 H   0  0  0  0  0  0  0  0  0  0  0  0
    7.5824    2.3958    0.0000 H   0  0  0  0  0  0  0  0  0  0  0  0
    7.2117    1.6013    0.0000 H   0  0  0  0  0  0  0  0  0  0  0  0
    8.0062    1.2305    0.0000 H   0  0  0  0  0  0  0  0  0  0  0  0
  1 10  1  0  0  0  0
  1 14  1  0  0  0  0
  2 14  1  0  0  0  0
  2 18  1  0  0  0  0
  3 13  1  0  0  0  0
  3 68  1  0  0  0  0
  4 29  1  0  0  0  0
  4 35  1  0  0  0  0
  5 22  1  0  0  0  0
  5 83  1  0  0  0  0
  6 21  2  0  0  0  0
  7 24  2  0  0  0  0
  8 35  2  0  0  0  0
  9 12  1  0  0  0  0
  9 31  1  0  0  0  0
  9 32  1  0  0  0  0
 10 11  1  0  0  0  0
 10 15  1  0  0  0  0
 10 38  1  0  0  0  0
 11 17  1  0  0  0  0
 11 20  1  0  0  0  0
 11 39  1  0  0  0  0
 12 13  1  0  0  0  0
 12 16  1  0  0  0  0
 12 40  1  0  0  0  0
 13 14  1  0  0  0  0
 13 41  1  0  0  0  0
 14 42  1  0  0  0  0
 15 21  1  0  0  0  0
 15 23  1  0  0  0  0
 15 43  1  0  0  0  0
 16 18  1  0  0  0  0
 16 44  1  0  0  0  0
 16 45  1  0  0  0  0
 17 19  1  0  0  0  0
 17 46  1  0  0  0  0
 17 47  1  0  0  0  0
 18 28  1  0  0  0  0
 18 48  1  0  0  0  0
 19 24  1  0  0  0  0
 19 30  1  0  0  0  0
 19 49  1  0  0  0  0
 20 50  1  0  0  0  0
 20 51  1  0  0  0  0
 20 52  1  0  0  0  0
 21 27  1  0  0  0  0
 22 25  1  0  0  0  0
 22 29  1  0  0  0  0
 22 34  1  0  0  0  0
 23 53  1  0  0  0  0
 23 54  1  0  0  0  0
 23 55  1  0  0  0  0
 24 26  1  0  0  0  0
 25 26  1  0  0  0  0
 25 56  1  0  0  0  0
 25 57  1  0  0  0  0
 26 58  1  0  0  0  0
 26 59  1  0  0  0  0
 27 35  1  0  0  0  0
 27 36  1  0  0  0  0
 27 60  1  0  0  0  0
 28 62  1  0  0  0  0
 28 63  1  0  0  0  0
 28 64  1  0  0  0  0
 29 33  1  0  0  0  0
 29 61  1  0  0  0  0
 30 65  1  0  0  0  0
 30 66  1  0  0  0  0
 30 67  1  0  0  0  0
 31 72  1  0  0  0  0
 31 73  1  0  0  0  0
 31 74  1  0  0  0  0
 32 69  1  0  0  0  0
 32 70  1  0  0  0  0
 32 71  1  0  0  0  0
 33 37  1  0  0  0  0
 33 75  1  0  0  0  0
 33 76  1  0  0  0  0
 34 77  1  0  0  0  0
 34 78  1  0  0  0  0
 34 79  1  0  0  0  0
 36 80  1  0  0  0  0
 36 81  1  0  0  0  0
 36 82  1  0  0  0  0
 37 84  1  0  0  0  0
 37 85  1  0  0  0  0
 37 86  1  0  0  0  0
M  END
> <PUBCHEM_COMPOUND_CID>
3084480

> <PUBCHEM_COMPOUND_CANONICALIZED>
1

> <PUBCHEM_CACTVS_COMPLEXITY>
803

> <PUBCHEM_CACTVS_HBOND_ACCEPTOR>
9

> <PUBCHEM_CACTVS_HBOND_DONOR>
2

> <PUBCHEM_CACTVS_ROTATABLE_BOND>
4

> <PUBCHEM_CACTVS_SUBSKEYS>
AAADcfB6PAAAAAAAAAAAAAAAAAAAAAAAAAAkAAAAAAAAAAAAAAAAHgAACAAADXzxgAcCCAMABgAIAICQCAAAAAAAAAAAAAEIAAATEBYIgAAmQAAGIAAXAAHK7PzOAAAAAAAAAAAAAAAAAAAAAAAAAAAAAA==

> <PUBCHEM_IUPAC_OPENEYE_NAME>
6-[4-(dimethylamino)-3-hydroxy-6-methyl-tetrahydropyran-2-yl]oxy-14-ethyl-13-hydroxy-3,5,7,9,13-pentamethyl-oxacyclotetradecane-2,4,10-trione

> <PUBCHEM_IUPAC_CAS_NAME>
6-[[4-(dimethylamino)-3-hydroxy-6-methyl-2-oxanyl]oxy]-14-ethyl-13-hydroxy-3,5,7,9,13-pentamethyl-oxacyclotetradecane-2,4,10-trione

> <PUBCHEM_IUPAC_NAME>
6-[4-(dimethylamino)-3-hydroxy-6-methyloxan-2-yl]oxy-14-ethyl-13-hydroxy-3,5,7,9,13-pentamethyl-oxacyclotetradecane-2,4,10-trione

> <PUBCHEM_IUPAC_SYSTEMATIC_NAME>
6-[4-(dimethylamino)-6-methyl-3-oxidanyl-oxan-2-yl]oxy-14-ethyl-3,5,7,9,13-pentamethyl-13-oxidanyl-1-oxacyclotetradecane-2,4,10-trione

> <PUBCHEM_IUPAC_TRADITIONAL_NAME>
6-[4-(dimethylamino)-3-hydroxy-6-methyl-tetrahydropyran-2-yl]oxy-14-ethyl-13-hydroxy-3,5,7,9,13-pentamethyl-oxacyclotetradecane-2,4,10-trione

> <PUBCHEM_IUPAC_INCHI>
InChI=1S/C28H49NO8/c1-10-22-28(7,34)12-11-21(30)15(2)13-16(3)25(18(5)23(31)19(6)26(33)36-22)37-27-24(32)20(29(8)9)14-17(4)35-27/h15-20,22,24-25,27,32,34H,10-14H2,1-9H3

> <PUBCHEM_IUPAC_INCHIKEY>
PZIAAMUMLHGAFI-UHFFFAOYSA-N

> <PUBCHEM_XLOGP3_AA>
3.2

> <PUBCHEM_EXACT_MASS>
527.345818

> <PUBCHEM_MOLECULAR_FORMULA>
C28H49NO8

> <PUBCHEM_MOLECULAR_WEIGHT>
527.69056

> <PUBCHEM_OPENEYE_CAN_SMILES>
CCC1C(CCC(=O)C(CC(C(C(C(=O)C(C(=O)O1)C)C)OC2C(C(CC(O2)C)N(C)C)O)C)C)(C)O

> <PUBCHEM_OPENEYE_ISO_SMILES>
CCC1C(CCC(=O)C(CC(C(C(C(=O)C(C(=O)O1)C)C)OC2C(C(CC(O2)C)N(C)C)O)C)C)(C)O

> <PUBCHEM_CACTVS_TPSA>
123

> <PUBCHEM_MONOISOTOPIC_WEIGHT>
527.345818

> <PUBCHEM_TOTAL_CHARGE>
0

> <PUBCHEM_HEAVY_ATOM_COUNT>
37

> <PUBCHEM_ATOM_DEF_STEREO_COUNT>
0

> <PUBCHEM_ATOM_UDEF_STEREO_COUNT>
11

> <PUBCHEM_BOND_DEF_STEREO_COUNT>
0

> <PUBCHEM_BOND_UDEF_STEREO_COUNT>
0

> <PUBCHEM_ISOTOPIC_ATOM_COUNT>
0

> <PUBCHEM_COMPONENT_COUNT>
1

> <PUBCHEM_CACTVS_TAUTO_COUNT>
15

> <PUBCHEM_COORDINATE_TYPE>
1
5
255

> <PUBCHEM_BONDANNOTATIONS>
10  1  3
14  1  3
11  20  3
15  23  3
18  28  3
19  30  3
27  36  3
29  33  3
13  3  3
22  5  3
12  9  3

$$$$

