442970
  -OEChem-07051213002D

 72 75  0     1  0  0  0  0  0999 V2000
    3.3801   -4.7844    0.0000 N   0  0  0  0  0  0  0  0  0  0  0  0
    5.0822    4.4105    0.0000 N   0  0  0  0  0  0  0  0  0  0  0  0
    4.1519   -1.4816    0.0000 C   0  0  2  0  0  0  0  0  0  0  0  0
    3.2958   -2.0750    0.0000 C   0  0  1  0  0  0  0  0  0  0  0  0
    3.5964   -3.0659    0.0000 C   0  0  2  0  0  0  0  0  0  0  0  0
    4.0580   -0.4443    0.0000 C   0  0  2  0  0  0  0  0  0  0  0  0
    4.9742   -2.1109    0.0000 C   0  0  0  0  0  0  0  0  0  0  0  0
    4.6316   -3.0880    0.0000 C   0  0  0  0  0  0  0  0  0  0  0  0
    2.3573   -1.6231    0.0000 C   0  0  0  0  0  0  0  0  0  0  0  0
    4.9590   -0.0104    0.0000 C   0  0  0  0  0  0  0  0  0  0  0  0
    3.1571   -0.0104    0.0000 C   0  0  0  0  0  0  0  0  0  0  0  0
    4.9738   -0.9120    0.0000 C   0  0  0  0  0  0  0  0  0  0  0  0
    2.4739   -2.6447    0.0000 C   0  0  0  0  0  0  0  0  0  0  0  0
    2.9922   -3.8627    0.0000 C   0  0  2  0  0  0  0  0  0  0  0  0
    4.5580    1.7464    0.0000 C   0  0  1  0  0  0  0  0  0  0  0  0
    2.2875   -0.5838    0.0000 C   0  0  0  0  0  0  0  0  0  0  0  0
    5.1815    0.9646    0.0000 C   0  0  0  0  0  0  0  0  0  0  0  0
    5.0927    2.6403    0.0000 C   0  0  0  0  0  0  0  0  0  0  0  0
    3.5580    1.7464    0.0000 C   0  0  0  0  0  0  0  0  0  0  0  0
    2.9346    0.9646    0.0000 C   0  0  0  0  0  0  0  0  0  0  0  0
    4.5789    3.5464    0.0000 C   0  0  2  0  0  0  0  0  0  0  0  0
    3.0234    2.6403    0.0000 C   0  0  0  0  0  0  0  0  0  0  0  0
    3.5372    3.5464    0.0000 C   0  0  0  0  0  0  0  0  0  0  0  0
    2.0000   -3.7378    0.0000 C   0  0  0  0  0  0  0  0  0  0  0  0
    5.9644    3.1303    0.0000 C   0  0  0  0  0  0  0  0  0  0  0  0
    5.9529    2.1303    0.0000 C   0  0  0  0  0  0  0  0  0  0  0  0
    4.5855    5.2784    0.0000 C   0  0  0  0  0  0  0  0  0  0  0  0
    6.0822    4.4066    0.0000 C   0  0  0  0  0  0  0  0  0  0  0  0
    3.9664   -3.8312    0.0000 H   0  0  0  0  0  0  0  0  0  0  0  0
    4.7974   -0.8636    0.0000 H   0  0  0  0  0  0  0  0  0  0  0  0
    5.5345   -2.3764    0.0000 H   0  0  0  0  0  0  0  0  0  0  0  0
    5.2972   -1.5816    0.0000 H   0  0  0  0  0  0  0  0  0  0  0  0
    4.5533   -3.7030    0.0000 H   0  0  0  0  0  0  0  0  0  0  0  0
    5.2350   -3.2305    0.0000 H   0  0  0  0  0  0  0  0  0  0  0  0
    1.7407   -1.5582    0.0000 H   0  0  0  0  0  0  0  0  0  0  0  0
    2.1879   -2.2195    0.0000 H   0  0  0  0  0  0  0  0  0  0  0  0
    5.0970   -0.6148    0.0000 H   0  0  0  0  0  0  0  0  0  0  0  0
    5.5790   -0.0104    0.0000 H   0  0  0  0  0  0  0  0  0  0  0  0
    5.3270   -1.4215    0.0000 H   0  0  0  0  0  0  0  0  0  0  0  0
    5.4833   -0.5588    0.0000 H   0  0  0  0  0  0  0  0  0  0  0  0
    4.6206   -0.4024    0.0000 H   0  0  0  0  0  0  0  0  0  0  0  0
    2.1207   -2.1352    0.0000 H   0  0  0  0  0  0  0  0  0  0  0  0
    1.9644   -2.9979    0.0000 H   0  0  0  0  0  0  0  0  0  0  0  0
    2.8271   -3.1543    0.0000 H   0  0  0  0  0  0  0  0  0  0  0  0
    3.6073   -3.9402    0.0000 H   0  0  0  0  0  0  0  0  0  0  0  0
    5.4061    1.8034    0.0000 H   0  0  0  0  0  0  0  0  0  0  0  0
    1.7320   -0.3084    0.0000 H   0  0  0  0  0  0  0  0  0  0  0  0
    5.7401    0.6955    0.0000 H   0  0  0  0  0  0  0  0  0  0  0  0
    5.5681    1.4493    0.0000 H   0  0  0  0  0  0  0  0  0  0  0  0
    2.3301    1.1025    0.0000 H   0  0  0  0  0  0  0  0  0  0  0  0
    5.1988    3.5428    0.0000 H   0  0  0  0  0  0  0  0  0  0  0  0
    2.5444    3.0340    0.0000 H   0  0  0  0  0  0  0  0  0  0  0  0
    2.5536    2.2357    0.0000 H   0  0  0  0  0  0  0  0  0  0  0  0
    3.6433    4.1572    0.0000 H   0  0  0  0  0  0  0  0  0  0  0  0
    2.9535    3.7554    0.0000 H   0  0  0  0  0  0  0  0  0  0  0  0
    2.0774   -3.1227    0.0000 H   0  0  0  0  0  0  0  0  0  0  0  0
    1.3848   -3.6604    0.0000 H   0  0  0  0  0  0  0  0  0  0  0  0
    1.9226   -4.3530    0.0000 H   0  0  0  0  0  0  0  0  0  0  0  0
    3.0055   -5.2784    0.0000 H   0  0  0  0  0  0  0  0  0  0  0  0
    3.9953   -4.8618    0.0000 H   0  0  0  0  0  0  0  0  0  0  0  0
    6.2682    2.5898    0.0000 H   0  0  0  0  0  0  0  0  0  0  0  0
    6.5049    3.4340    0.0000 H   0  0  0  0  0  0  0  0  0  0  0  0
    5.6607    3.6708    0.0000 H   0  0  0  0  0  0  0  0  0  0  0  0
    5.6367    1.5970    0.0000 H   0  0  0  0  0  0  0  0  0  0  0  0
    6.4862    1.8142    0.0000 H   0  0  0  0  0  0  0  0  0  0  0  0
    6.2691    2.6637    0.0000 H   0  0  0  0  0  0  0  0  0  0  0  0
    5.1237    5.5864    0.0000 H   0  0  0  0  0  0  0  0  0  0  0  0
    4.2776    5.8166    0.0000 H   0  0  0  0  0  0  0  0  0  0  0  0
    4.0474    4.9705    0.0000 H   0  0  0  0  0  0  0  0  0  0  0  0
    6.0798    3.7866    0.0000 H   0  0  0  0  0  0  0  0  0  0  0  0
    6.7022    4.4042    0.0000 H   0  0  0  0  0  0  0  0  0  0  0  0
    6.0846    5.0266    0.0000 H   0  0  0  0  0  0  0  0  0  0  0  0
 14  1  1  1  0  0  0
  1 59  1  0  0  0  0
  1 60  1  0  0  0  0
 21  2  1  6  0  0  0
  2 27  1  0  0  0  0
  2 28  1  0  0  0  0
  3  4  1  0  0  0  0
  3  6  1  0  0  0  0
  3  7  1  0  0  0  0
  3 12  1  1  0  0  0
  4  5  1  0  0  0  0
  4  9  1  0  0  0  0
  4 13  1  6  0  0  0
  5  8  1  0  0  0  0
  5 14  1  0  0  0  0
  5 29  1  1  0  0  0
  6 10  1  0  0  0  0
  6 11  1  0  0  0  0
  6 30  1  6  0  0  0
  7  8  1  0  0  0  0
  7 31  1  0  0  0  0
  7 32  1  0  0  0  0
  8 33  1  0  0  0  0
  8 34  1  0  0  0  0
  9 16  1  0  0  0  0
  9 35  1  0  0  0  0
  9 36  1  0  0  0  0
 10 17  1  0  0  0  0
 10 37  1  0  0  0  0
 10 38  1  0  0  0  0
 11 16  2  0  0  0  0
 11 20  1  0  0  0  0
 12 39  1  0  0  0  0
 12 40  1  0  0  0  0
 12 41  1  0  0  0  0
 13 42  1  0  0  0  0
 13 43  1  0  0  0  0
 13 44  1  0  0  0  0
 14 24  1  0  0  0  0
 14 45  1  0  0  0  0
 15 17  1  0  0  0  0
 15 18  1  0  0  0  0
 15 19  1  0  0  0  0
 15 46  1  1  0  0  0
 16 47  1  0  0  0  0
 17 48  1  0  0  0  0
 17 49  1  0  0  0  0
 18 21  1  0  0  0  0
 18 25  1  0  0  0  0
 18 26  1  0  0  0  0
 19 20  2  0  0  0  0
 19 22  1  0  0  0  0
 20 50  1  0  0  0  0
 21 23  1  0  0  0  0
 21 51  1  0  0  0  0
 22 23  1  0  0  0  0
 22 52  1  0  0  0  0
 22 53  1  0  0  0  0
 23 54  1  0  0  0  0
 23 55  1  0  0  0  0
 24 56  1  0  0  0  0
 24 57  1  0  0  0  0
 24 58  1  0  0  0  0
 25 61  1  0  0  0  0
 25 62  1  0  0  0  0
 25 63  1  0  0  0  0
 26 64  1  0  0  0  0
 26 65  1  0  0  0  0
 26 66  1  0  0  0  0
 27 67  1  0  0  0  0
 27 68  1  0  0  0  0
 27 69  1  0  0  0  0
 28 70  1  0  0  0  0
 28 71  1  0  0  0  0
 28 72  1  0  0  0  0
M  END
> <PUBCHEM_COMPOUND_CID>
442970

> <PUBCHEM_COMPOUND_CANONICALIZED>
1

> <PUBCHEM_CACTVS_COMPLEXITY>
687

> <PUBCHEM_CACTVS_HBOND_ACCEPTOR>
2

> <PUBCHEM_CACTVS_HBOND_DONOR>
1

> <PUBCHEM_CACTVS_ROTATABLE_BOND>
2

> <PUBCHEM_CACTVS_SUBSKEYS>
AAADcfB7AAAAAAAAAAAAAAAAAAAAAYAAAAAwQAAABAAAAEAAAAAAHAAQAAAADyjBAAQCAANAAACAAiBCAAAAAAAgAAAACIAIAAgIAAIAgQAEAAAAkAAIgAMQgMAPgAAAAAAAAAAAAACAACQAAQAACAAAAA==

> <PUBCHEM_IUPAC_INCHI>
InChI=1S/C26H44N2/c1-17(27)20-13-15-26(5)22-10-9-21-18(16-19(22)12-14-25(20,26)4)8-11-23(28(6)7)24(21,2)3/h12,16-17,20-23H,8-11,13-15,27H2,1-7H3/t17-,20+,21+,22+,23-,25+,26-/m0/s1

> <PUBCHEM_IUPAC_INCHIKEY>
UVGUDMTZIJXYDY-XSWJKVCQSA-N

> <PUBCHEM_XLOGP3_AA>
5.4

> <PUBCHEM_EXACT_MASS>
384.350449

> <PUBCHEM_MOLECULAR_FORMULA>
C26H44N2

> <PUBCHEM_MOLECULAR_WEIGHT>
384.64096

> <PUBCHEM_OPENEYE_CAN_SMILES>
CC(C1CCC2(C1(CC=C3C2CCC4C(=C3)CCC(C4(C)C)N(C)C)C)C)N

> <PUBCHEM_OPENEYE_ISO_SMILES>
C[C@@H]([C@H]1CC[C@@]2([C@@]1(CC=C3[C@H]2CC[C@@H]4C(=C3)CC[C@@H](C4(C)C)N(C)C)C)C)N

> <PUBCHEM_CACTVS_TPSA>
29.3

> <PUBCHEM_MONOISOTOPIC_WEIGHT>
384.350449

> <PUBCHEM_TOTAL_CHARGE>
0

> <PUBCHEM_HEAVY_ATOM_COUNT>
28

> <PUBCHEM_ATOM_DEF_STEREO_COUNT>
7

> <PUBCHEM_ATOM_UDEF_STEREO_COUNT>
0

> <PUBCHEM_BOND_DEF_STEREO_COUNT>
0

> <PUBCHEM_BOND_UDEF_STEREO_COUNT>
0

> <PUBCHEM_ISOTOPIC_ATOM_COUNT>
0

> <PUBCHEM_COMPONENT_COUNT>
1

> <PUBCHEM_CACTVS_TAUTO_COUNT>
1

> <PUBCHEM_COORDINATE_TYPE>
1
5
255

> <PUBCHEM_BONDANNOTATIONS>
14  1  5
15  46  5
21  2  6
3  12  5
4  13  6
5  29  5
6  30  6

$$$$

