25893
  -OEChem-07051213052D

 33 37  0     0  0  0  0  0  0999 V2000
    2.9059    3.6795    0.0000 O   0  0  0  0  0  0  0  0  0  0  0  0
    3.7841   -0.8897    0.0000 C   0  0  0  0  0  0  0  0  0  0  0  0
    3.8001   -1.9312    0.0000 C   0  0  0  0  0  0  0  0  0  0  0  0
    2.9180   -0.3897    0.0000 C   0  0  0  0  0  0  0  0  0  0  0  0
    4.6501   -0.3897    0.0000 C   0  0  0  0  0  0  0  0  0  0  0  0
    2.9180    0.6103    0.0000 C   0  0  0  0  0  0  0  0  0  0  0  0
    2.9021   -2.4590    0.0000 C   0  0  0  0  0  0  0  0  0  0  0  0
    4.6772   -2.3940    0.0000 C   0  0  0  0  0  0  0  0  0  0  0  0
    3.7841    1.1102    0.0000 C   0  0  0  0  0  0  0  0  0  0  0  0
    4.6501    0.6103    0.0000 C   0  0  0  0  0  0  0  0  0  0  0  0
    2.0080   -0.8966    0.0000 C   0  0  0  0  0  0  0  0  0  0  0  0
    5.5095   -0.8845    0.0000 C   0  0  0  0  0  0  0  0  0  0  0  0
    2.0000   -1.9382    0.0000 C   0  0  0  0  0  0  0  0  0  0  0  0
    5.5230   -1.8761    0.0000 C   0  0  0  0  0  0  0  0  0  0  0  0
    2.9282   -3.5005    0.0000 C   0  0  0  0  0  0  0  0  0  0  0  0
    4.7274   -3.4346    0.0000 C   0  0  0  0  0  0  0  0  0  0  0  0
    2.0080    1.1171    0.0000 C   0  0  0  0  0  0  0  0  0  0  0  0
    3.8001    2.1518    0.0000 C   0  0  0  0  0  0  0  0  0  0  0  0
    3.8470   -3.9916    0.0000 C   0  0  0  0  0  0  0  0  0  0  0  0
    2.0000    2.1587    0.0000 C   0  0  0  0  0  0  0  0  0  0  0  0
    2.9021    2.6795    0.0000 C   0  0  0  0  0  0  0  0  0  0  0  0
    5.1870    0.9203    0.0000 H   0  0  0  0  0  0  0  0  0  0  0  0
    1.4747   -0.5804    0.0000 H   0  0  0  0  0  0  0  0  0  0  0  0
    6.0442   -0.5706    0.0000 H   0  0  0  0  0  0  0  0  0  0  0  0
    1.4619   -2.2461    0.0000 H   0  0  0  0  0  0  0  0  0  0  0  0
    6.0659   -2.1755    0.0000 H   0  0  0  0  0  0  0  0  0  0  0  0
    2.4004   -3.8259    0.0000 H   0  0  0  0  0  0  0  0  0  0  0  0
    5.2775   -3.7205    0.0000 H   0  0  0  0  0  0  0  0  0  0  0  0
    1.4747    0.8009    0.0000 H   0  0  0  0  0  0  0  0  0  0  0  0
    4.3406    2.4555    0.0000 H   0  0  0  0  0  0  0  0  0  0  0  0
    3.8696   -4.6112    0.0000 H   0  0  0  0  0  0  0  0  0  0  0  0
    1.4619    2.4666    0.0000 H   0  0  0  0  0  0  0  0  0  0  0  0
    2.3702    3.9916    0.0000 H   0  0  0  0  0  0  0  0  0  0  0  0
  1 21  1  0  0  0  0
  1 33  1  0  0  0  0
  2  3  1  0  0  0  0
  2  4  2  0  0  0  0
  2  5  1  0  0  0  0
  3  7  1  0  0  0  0
  3  8  2  0  0  0  0
  4  6  1  0  0  0  0
  4 11  1  0  0  0  0
  5 10  2  0  0  0  0
  5 12  1  0  0  0  0
  6  9  2  0  0  0  0
  6 17  1  0  0  0  0
  7 13  1  0  0  0  0
  7 15  2  0  0  0  0
  8 14  1  0  0  0  0
  8 16  1  0  0  0  0
  9 10  1  0  0  0  0
  9 18  1  0  0  0  0
 10 22  1  0  0  0  0
 11 13  2  0  0  0  0
 11 23  1  0  0  0  0
 12 14  2  0  0  0  0
 12 24  1  0  0  0  0
 13 25  1  0  0  0  0
 14 26  1  0  0  0  0
 15 19  1  0  0  0  0
 15 27  1  0  0  0  0
 16 19  2  0  0  0  0
 16 28  1  0  0  0  0
 17 20  2  0  0  0  0
 17 29  1  0  0  0  0
 18 21  2  0  0  0  0
 18 30  1  0  0  0  0
 19 31  1  0  0  0  0
 20 21  1  0  0  0  0
 20 32  1  0  0  0  0
M  END
> <PUBCHEM_COMPOUND_CID>
25893

> <PUBCHEM_COMPOUND_CANONICALIZED>
1

> <PUBCHEM_CACTVS_COMPLEXITY>
405

> <PUBCHEM_CACTVS_HBOND_ACCEPTOR>
1

> <PUBCHEM_CACTVS_HBOND_DONOR>
1

> <PUBCHEM_CACTVS_ROTATABLE_BOND>
0

> <PUBCHEM_CACTVS_SUBSKEYS>
AAADccB4IAAAAAAAAAAAAAAAAAAAAAAAAAAwYMGDAAAAAADBVAAAGgAACAAADASAmAAwBsAAAgCAAiBCAAACAAAgIAAIiAAGCIgIJiKCERKAcAAkwBEImAeAwPAO4AADAAAQAADAAAYAACAAAAAAAAAAAA==

> <PUBCHEM_IUPAC_OPENEYE_NAME>
benzo[a]pyren-8-ol

> <PUBCHEM_IUPAC_CAS_NAME>
8-benzo[a]pyrenol

> <PUBCHEM_IUPAC_NAME>
benzo[a]pyren-8-ol

> <PUBCHEM_IUPAC_SYSTEMATIC_NAME>
benzo[a]pyren-8-ol

> <PUBCHEM_IUPAC_TRADITIONAL_NAME>
benzo[a]pyren-8-ol

> <PUBCHEM_IUPAC_INCHI>
InChI=1S/C20H12O/c21-16-7-9-17-15(11-16)10-14-5-4-12-2-1-3-13-6-8-18(17)20(14)19(12)13/h1-11,21H

> <PUBCHEM_IUPAC_INCHIKEY>
OWEZWMDNHHTXJU-UHFFFAOYSA-N

> <PUBCHEM_XLOGP3>
5.8

> <PUBCHEM_EXACT_MASS>
268.088815

> <PUBCHEM_MOLECULAR_FORMULA>
C20H12O

> <PUBCHEM_MOLECULAR_WEIGHT>
268.30868

> <PUBCHEM_OPENEYE_CAN_SMILES>
C1=CC2=C3C(=C1)C=CC4=C3C(=CC5=C4C=CC(=C5)O)C=C2

> <PUBCHEM_OPENEYE_ISO_SMILES>
C1=CC2=C3C(=C1)C=CC4=C3C(=CC5=C4C=CC(=C5)O)C=C2

> <PUBCHEM_CACTVS_TPSA>
20.2

> <PUBCHEM_MONOISOTOPIC_WEIGHT>
268.088815

> <PUBCHEM_TOTAL_CHARGE>
0

> <PUBCHEM_HEAVY_ATOM_COUNT>
21

> <PUBCHEM_ATOM_DEF_STEREO_COUNT>
0

> <PUBCHEM_ATOM_UDEF_STEREO_COUNT>
0

> <PUBCHEM_BOND_DEF_STEREO_COUNT>
0

> <PUBCHEM_BOND_UDEF_STEREO_COUNT>
0

> <PUBCHEM_ISOTOPIC_ATOM_COUNT>
0

> <PUBCHEM_COMPONENT_COUNT>
1

> <PUBCHEM_CACTVS_TAUTO_COUNT>
3

> <PUBCHEM_COORDINATE_TYPE>
1
5
255

> <PUBCHEM_BONDANNOTATIONS>
11  13  8
12  14  8
15  19  8
16  19  8
17  20  8
18  21  8
2  3  8
2  4  8
2  5  8
20  21  8
3  7  8
3  8  8
4  11  8
4  6  8
5  10  8
5  12  8
6  17  8
6  9  8
7  13  8
7  15  8
8  14  8
8  16  8
9  10  8
9  18  8

$$$$

