10302
  -OEChem-06261204272D

 32 33  0     1  0  0  0  0  0999 V2000
    2.0000   -0.9827    0.0000 O   0  0  0  0  0  0  0  0  0  0  0  0
    2.0000    1.0173    0.0000 O   0  0  0  0  0  0  0  0  0  0  0  0
    6.3981   -0.5035    0.0000 N   0  0  0  0  0  0  0  0  0  0  0  0
    5.4920   -1.0174    0.0000 C   0  0  3  0  0  0  0  0  0  0  0  0
    4.5981   -0.4827    0.0000 C   0  0  0  0  0  0  0  0  0  0  0  0
    4.5981    0.5173    0.0000 C   0  0  0  0  0  0  0  0  0  0  0  0
    5.4920    1.0520    0.0000 C   0  0  0  0  0  0  0  0  0  0  0  0
    6.3981    0.5381    0.0000 C   0  0  0  0  0  0  0  0  0  0  0  0
    5.4804   -2.0173    0.0000 C   0  0  0  0  0  0  0  0  0  0  0  0
    3.7320   -0.9827    0.0000 C   0  0  0  0  0  0  0  0  0  0  0  0
    3.7320    1.0173    0.0000 C   0  0  0  0  0  0  0  0  0  0  0  0
    2.8660   -0.4827    0.0000 C   0  0  0  0  0  0  0  0  0  0  0  0
    2.8660    0.5173    0.0000 C   0  0  0  0  0  0  0  0  0  0  0  0
    2.0000   -1.9827    0.0000 C   0  0  0  0  0  0  0  0  0  0  0  0
    2.0000    2.0173    0.0000 C   0  0  0  0  0  0  0  0  0  0  0  0
    6.0259   -1.3325    0.0000 H   0  0  0  0  0  0  0  0  0  0  0  0
    5.8856    1.5310    0.0000 H   0  0  0  0  0  0  0  0  0  0  0  0
    5.0874    1.5218    0.0000 H   0  0  0  0  0  0  0  0  0  0  0  0
    7.0089    0.4320    0.0000 H   0  0  0  0  0  0  0  0  0  0  0  0
    6.6071    1.1218    0.0000 H   0  0  0  0  0  0  0  0  0  0  0  0
    6.9338   -0.8156    0.0000 H   0  0  0  0  0  0  0  0  0  0  0  0
    4.8605   -2.0101    0.0000 H   0  0  0  0  0  0  0  0  0  0  0  0
    5.4733   -2.6373    0.0000 H   0  0  0  0  0  0  0  0  0  0  0  0
    6.1004   -2.0245    0.0000 H   0  0  0  0  0  0  0  0  0  0  0  0
    3.7320   -1.6027    0.0000 H   0  0  0  0  0  0  0  0  0  0  0  0
    3.7320    1.6373    0.0000 H   0  0  0  0  0  0  0  0  0  0  0  0
    1.3800   -1.9827    0.0000 H   0  0  0  0  0  0  0  0  0  0  0  0
    2.0000   -2.6027    0.0000 H   0  0  0  0  0  0  0  0  0  0  0  0
    2.6200   -1.9827    0.0000 H   0  0  0  0  0  0  0  0  0  0  0  0
    2.6200    2.0173    0.0000 H   0  0  0  0  0  0  0  0  0  0  0  0
    2.0000    2.6373    0.0000 H   0  0  0  0  0  0  0  0  0  0  0  0
    1.3800    2.0173    0.0000 H   0  0  0  0  0  0  0  0  0  0  0  0
  1 12  1  0  0  0  0
  1 14  1  0  0  0  0
  2 13  1  0  0  0  0
  2 15  1  0  0  0  0
  3  4  1  0  0  0  0
  3  8  1  0  0  0  0
  3 21  1  0  0  0  0
  4  5  1  0  0  0  0
  4  9  1  0  0  0  0
  4 16  1  0  0  0  0
  5  6  1  0  0  0  0
  5 10  2  0  0  0  0
  6  7  1  0  0  0  0
  6 11  2  0  0  0  0
  7  8  1  0  0  0  0
  7 17  1  0  0  0  0
  7 18  1  0  0  0  0
  8 19  1  0  0  0  0
  8 20  1  0  0  0  0
  9 22  1  0  0  0  0
  9 23  1  0  0  0  0
  9 24  1  0  0  0  0
 10 12  1  0  0  0  0
 10 25  1  0  0  0  0
 11 13  1  0  0  0  0
 11 26  1  0  0  0  0
 12 13  2  0  0  0  0
 14 27  1  0  0  0  0
 14 28  1  0  0  0  0
 14 29  1  0  0  0  0
 15 30  1  0  0  0  0
 15 31  1  0  0  0  0
 15 32  1  0  0  0  0
M  END
> <PUBCHEM_COMPOUND_CID>
10302

> <PUBCHEM_COMPOUND_CANONICALIZED>
1

> <PUBCHEM_CACTVS_COMPLEXITY>
210

> <PUBCHEM_CACTVS_HBOND_ACCEPTOR>
3

> <PUBCHEM_CACTVS_HBOND_DONOR>
1

> <PUBCHEM_CACTVS_ROTATABLE_BOND>
2

> <PUBCHEM_CACTVS_SUBSKEYS>
AAADceByMAAAAAAAAAAAAAAAAAAAAAAAAAA8QAAAAAAAAACxAAAAHgAQAAAADCzBmAYyBoLABACAAiBCAACCCAAgIAAAiIAOjIgNJiKEsRuEMCpk0BGKqAew0LMOoAABAAAQQABAAAIAACCAAAAAAAAAAA==

> <PUBCHEM_IUPAC_OPENEYE_NAME>
6,7-dimethoxy-1-methyl-1,2,3,4-tetrahydroisoquinoline

> <PUBCHEM_IUPAC_CAS_NAME>
6,7-dimethoxy-1-methyl-1,2,3,4-tetrahydroisoquinoline

> <PUBCHEM_IUPAC_NAME>
6,7-dimethoxy-1-methyl-1,2,3,4-tetrahydroisoquinoline

> <PUBCHEM_IUPAC_SYSTEMATIC_NAME>
6,7-dimethoxy-1-methyl-1,2,3,4-tetrahydroisoquinoline

> <PUBCHEM_IUPAC_TRADITIONAL_NAME>
6,7-dimethoxy-1-methyl-1,2,3,4-tetrahydroisoquinoline

> <PUBCHEM_IUPAC_INCHI>
InChI=1S/C12H17NO2/c1-8-10-7-12(15-3)11(14-2)6-9(10)4-5-13-8/h6-8,13H,4-5H2,1-3H3

> <PUBCHEM_IUPAC_INCHIKEY>
HMYJLVDKPJHJCF-UHFFFAOYSA-N

> <PUBCHEM_XLOGP3_AA>
1.7

> <PUBCHEM_EXACT_MASS>
207.125929

> <PUBCHEM_MOLECULAR_FORMULA>
C12H17NO2

> <PUBCHEM_MOLECULAR_WEIGHT>
207.26888

> <PUBCHEM_OPENEYE_CAN_SMILES>
CC1C2=CC(=C(C=C2CCN1)OC)OC

> <PUBCHEM_OPENEYE_ISO_SMILES>
CC1C2=CC(=C(C=C2CCN1)OC)OC

> <PUBCHEM_CACTVS_TPSA>
30.5

> <PUBCHEM_MONOISOTOPIC_WEIGHT>
207.125929

> <PUBCHEM_TOTAL_CHARGE>
0

> <PUBCHEM_HEAVY_ATOM_COUNT>
15

> <PUBCHEM_ATOM_DEF_STEREO_COUNT>
0

> <PUBCHEM_ATOM_UDEF_STEREO_COUNT>
1

> <PUBCHEM_BOND_DEF_STEREO_COUNT>
0

> <PUBCHEM_BOND_UDEF_STEREO_COUNT>
0

> <PUBCHEM_ISOTOPIC_ATOM_COUNT>
0

> <PUBCHEM_COMPONENT_COUNT>
1

> <PUBCHEM_CACTVS_TAUTO_COUNT>
1

> <PUBCHEM_COORDINATE_TYPE>
1
5
255

> <PUBCHEM_BONDANNOTATIONS>
10  12  8
11  13  8
12  13  8
4  9  3
5  10  8
5  6  8
6  11  8

$$$$

