443278
  -OEChem-07051213012D

 35 38  0     0  0  0  0  0  0999 V2000
    5.0274    2.4670    0.0000 S   0  0  0  0  0  0  0  0  0  0  0  0
    4.5274    0.9281    0.0000 N   0  0  0  0  0  0  0  0  0  0  0  0
    6.1391    0.9295    0.0000 N   0  0  0  0  0  0  0  0  0  0  0  0
    3.7183    1.5159    0.0000 C   0  0  0  0  0  0  0  0  0  0  0  0
    2.7029    1.2837    0.0000 C   0  0  0  0  0  0  0  0  0  0  0  0
    2.0000    2.0524    0.0000 C   0  0  0  0  0  0  0  0  0  0  0  0
    2.3219    3.0430    0.0000 C   0  0  0  0  0  0  0  0  0  0  0  0
    3.3424    3.2517    0.0000 C   0  0  0  0  0  0  0  0  0  0  0  0
    4.0274    2.4670    0.0000 C   0  0  0  0  0  0  0  0  0  0  0  0
    5.3364    1.5159    0.0000 C   0  0  0  0  0  0  0  0  0  0  0  0
    4.8370   -0.0165    0.0000 C   0  0  0  0  0  0  0  0  0  0  0  0
    5.8311   -0.0156    0.0000 C   0  0  0  0  0  0  0  0  0  0  0  0
    6.4189   -0.8247    0.0000 C   0  0  0  0  0  0  0  0  0  0  0  0
    6.0121   -1.7382    0.0000 C   0  0  0  0  0  0  0  0  0  0  0  0
    7.4134   -0.7201    0.0000 C   0  0  0  0  0  0  0  0  0  0  0  0
    7.5944   -2.4427    0.0000 C   0  0  0  0  0  0  0  0  0  0  0  0
    6.5999   -2.5472    0.0000 C   0  0  0  0  0  0  0  0  0  0  0  0
    8.0012   -1.5291    0.0000 C   0  0  0  0  0  0  0  0  0  0  0  0
    8.1822   -3.2517    0.0000 C   0  0  0  0  0  0  0  0  0  0  0  0
    2.1806    0.9497    0.0000 H   0  0  0  0  0  0  0  0  0  0  0  0
    2.9426    0.7118    0.0000 H   0  0  0  0  0  0  0  0  0  0  0  0
    1.4518    2.3420    0.0000 H   0  0  0  0  0  0  0  0  0  0  0  0
    1.6208    1.5618    0.0000 H   0  0  0  0  0  0  0  0  0  0  0  0
    2.3034    3.6627    0.0000 H   0  0  0  0  0  0  0  0  0  0  0  0
    1.7081    3.1309    0.0000 H   0  0  0  0  0  0  0  0  0  0  0  0
    3.8724    3.5735    0.0000 H   0  0  0  0  0  0  0  0  0  0  0  0
    3.1160    3.8289    0.0000 H   0  0  0  0  0  0  0  0  0  0  0  0
    4.4734   -0.5187    0.0000 H   0  0  0  0  0  0  0  0  0  0  0  0
    5.3955   -1.8030    0.0000 H   0  0  0  0  0  0  0  0  0  0  0  0
    7.6656   -0.1537    0.0000 H   0  0  0  0  0  0  0  0  0  0  0  0
    6.3477   -3.1136    0.0000 H   0  0  0  0  0  0  0  0  0  0  0  0
    8.6178   -1.4643    0.0000 H   0  0  0  0  0  0  0  0  0  0  0  0
    7.6806   -3.6161    0.0000 H   0  0  0  0  0  0  0  0  0  0  0  0
    8.5466   -3.7533    0.0000 H   0  0  0  0  0  0  0  0  0  0  0  0
    8.6838   -2.8873    0.0000 H   0  0  0  0  0  0  0  0  0  0  0  0
  1  9  1  0  0  0  0
  1 10  1  0  0  0  0
  2  4  1  0  0  0  0
  2 10  1  0  0  0  0
  2 11  1  0  0  0  0
  3 10  2  0  0  0  0
  3 12  1  0  0  0  0
  4  5  1  0  0  0  0
  4  9  2  0  0  0  0
  5  6  1  0  0  0  0
  5 20  1  0  0  0  0
  5 21  1  0  0  0  0
  6  7  1  0  0  0  0
  6 22  1  0  0  0  0
  6 23  1  0  0  0  0
  7  8  1  0  0  0  0
  7 24  1  0  0  0  0
  7 25  1  0  0  0  0
  8  9  1  0  0  0  0
  8 26  1  0  0  0  0
  8 27  1  0  0  0  0
 11 12  2  0  0  0  0
 11 28  1  0  0  0  0
 12 13  1  0  0  0  0
 13 14  2  0  0  0  0
 13 15  1  0  0  0  0
 14 17  1  0  0  0  0
 14 29  1  0  0  0  0
 15 18  2  0  0  0  0
 15 30  1  0  0  0  0
 16 17  2  0  0  0  0
 16 18  1  0  0  0  0
 16 19  1  0  0  0  0
 17 31  1  0  0  0  0
 18 32  1  0  0  0  0
 19 33  1  0  0  0  0
 19 34  1  0  0  0  0
 19 35  1  0  0  0  0
M  END
> <PUBCHEM_COMPOUND_CID>
443278

> <PUBCHEM_COMPOUND_CANONICALIZED>
1

> <PUBCHEM_CACTVS_COMPLEXITY>
327

> <PUBCHEM_CACTVS_HBOND_ACCEPTOR>
2

> <PUBCHEM_CACTVS_HBOND_DONOR>
0

> <PUBCHEM_CACTVS_ROTATABLE_BOND>
1

> <PUBCHEM_CACTVS_SUBSKEYS>
AAADceB7AABAAAAAAAAAAAAAAAAAAWLAAAAwYAAAAAAWAFgB8AAAHAQAAAAADAjBXgQ/kZcMGAikAzRnZACC8K1xGrgJ2DQ4dJiIaOLgmRGUIAhogALIyCcQgMAOQAAAAAAAAACAAAAAAAACAAAAAAAAAA==

> <PUBCHEM_IUPAC_OPENEYE_NAME>
2-(p-tolyl)-5,6,7,8-tetrahydroimidazo[2,1-b][1,3]benzothiazole

> <PUBCHEM_IUPAC_CAS_NAME>
2-(4-methylphenyl)-5,6,7,8-tetrahydroimidazo[2,1-b][1,3]benzothiazole

> <PUBCHEM_IUPAC_NAME>
2-(4-methylphenyl)-5,6,7,8-tetrahydroimidazo[2,1-b][1,3]benzothiazole

> <PUBCHEM_IUPAC_SYSTEMATIC_NAME>
2-(4-methylphenyl)-5,6,7,8-tetrahydroimidazo[2,1-b][1,3]benzothiazole

> <PUBCHEM_IUPAC_TRADITIONAL_NAME>
2-(p-tolyl)-5,6,7,8-tetrahydroimidazo[2,1-b][1,3]benzothiazole

> <PUBCHEM_IUPAC_INCHI>
InChI=1S/C16H16N2S/c1-11-6-8-12(9-7-11)13-10-18-14-4-2-3-5-15(14)19-16(18)17-13/h6-10H,2-5H2,1H3

> <PUBCHEM_IUPAC_INCHIKEY>
IMUKUMUNZJILCG-UHFFFAOYSA-N

> <PUBCHEM_XLOGP3_AA>
5

> <PUBCHEM_EXACT_MASS>
268.10342

> <PUBCHEM_MOLECULAR_FORMULA>
C16H16N2S

> <PUBCHEM_MOLECULAR_WEIGHT>
268.37664

> <PUBCHEM_OPENEYE_CAN_SMILES>
CC1=CC=C(C=C1)C2=CN3C4=C(CCCC4)SC3=N2

> <PUBCHEM_OPENEYE_ISO_SMILES>
CC1=CC=C(C=C1)C2=CN3C4=C(CCCC4)SC3=N2

> <PUBCHEM_CACTVS_TPSA>
45.5

> <PUBCHEM_MONOISOTOPIC_WEIGHT>
268.10342

> <PUBCHEM_TOTAL_CHARGE>
0

> <PUBCHEM_HEAVY_ATOM_COUNT>
19

> <PUBCHEM_ATOM_DEF_STEREO_COUNT>
0

> <PUBCHEM_ATOM_UDEF_STEREO_COUNT>
0

> <PUBCHEM_BOND_DEF_STEREO_COUNT>
0

> <PUBCHEM_BOND_UDEF_STEREO_COUNT>
0

> <PUBCHEM_ISOTOPIC_ATOM_COUNT>
0

> <PUBCHEM_COMPONENT_COUNT>
1

> <PUBCHEM_CACTVS_TAUTO_COUNT>
1

> <PUBCHEM_COORDINATE_TYPE>
1
5
255

> <PUBCHEM_BONDANNOTATIONS>
1  10  8
1  9  8
11  12  8
13  14  8
13  15  8
14  17  8
15  18  8
16  17  8
16  18  8
2  10  8
2  11  8
2  4  8
3  10  8
3  12  8
4  9  8

$$$$

