   Color/Form
        COLORLESS CRYSTALLINE SOLID
   from [1]HSDB

   Odor
        ALMOST ODORLESS
   from [2]HSDB

   Boiling Point
        117 DEG C AT 0.1 MM HG
   from [3]HSDB

   Melting Point
        87-87.5 DEG C
   from [4]HSDB

   Corrosivity
        Non-corrosive
   from [5]HSDB

   Octanol/Water Partition Coefficient
        log Kow= 3.10 (measured)
   from [6]HSDB

   Solubilities

     * SOL IN POLAR ORG SOLVENTS
     * 91 MG/L IN WATER @ ROOM TEMP; 100-200 G/L IN CARBON TETRACHLORIDE,
       XYLENE; 200-400G/L IN CYCLOHEXANOL, CYCLOHEXANONE, 2-PROPANOL,
       METHANOL; 400-600 G/L IN ACETONE, DIMETHYLFORMAMIDE,
       1,2-DICHLOROETHANE

   from [7]HSDB

   Spectral Properties
        Intense mass spectral peaks: 135 m/z (100%), 150 m/z (70%), 91 m/z
   (25%), 58 m/z (23%)
   from [8]HSDB

   Vapor Pressure
        3X10-5 mm Hg @ 25 deg C
   from [9]HSDB

   Other Chemical/Physical Properties

     * Hydrolyzed by strong acids and alkalis
     * Henry's Law Constant= 9.0X10-8 atm-cu m/mole (est).

   from [10]HSDB

   Computed Properties
   Molecular Weight                  207.26888 [g/mol]
   Molecular Formula                 C[12]H[17]NO[2]
   XLogP3                            3.1
   H-Bond Donor                      1
   H-Bond Acceptor                   2
   Rotatable Bond Count              3
   Tautomer Count                    2
   Exact Mass                        207.125929
   MonoIsotopic Mass                 207.125929
   Topological Polar Surface Area    38.3
   Heavy Atom Count                  15
   Formal Charge                     0
   Complexity                        216
   Isotope Atom Count                0
   Defined Atom Stereocenter Count   0
   Undefined Atom Stereocenter Count 0
   Defined Bond Stereocenter Count   0
   Undefined Bond Stereocenter Count 0
   Covalently-Bonded Unit Count      1
   Feature 3D Acceptor Count         1
   Feature 3D Donor Count            1
   Feature 3D Hydrophobe Count       1
   Feature 3D Ring Count             1
   Effective Rotor Count             4
   Conformer Sampling RMSD           0.6
   CID Conformer Count               [11]63

References

   1. http://toxnet.nlm.nih.gov/cgi-bin/sis/search/r?dbs+hsdb:@term+@rn+@rel+2631-37-0
   2. http://toxnet.nlm.nih.gov/cgi-bin/sis/search/r?dbs+hsdb:@term+@rn+@rel+2631-37-0
   3. http://toxnet.nlm.nih.gov/cgi-bin/sis/search/r?dbs+hsdb:@term+@rn+@rel+2631-37-0
   4. http://toxnet.nlm.nih.gov/cgi-bin/sis/search/r?dbs+hsdb:@term+@rn+@rel+2631-37-0
   5. http://toxnet.nlm.nih.gov/cgi-bin/sis/search/r?dbs+hsdb:@term+@rn+@rel+2631-37-0
   6. http://toxnet.nlm.nih.gov/cgi-bin/sis/search/r?dbs+hsdb:@term+@rn+@rel+2631-37-0
   7. http://toxnet.nlm.nih.gov/cgi-bin/sis/search/r?dbs+hsdb:@term+@rn+@rel+2631-37-0
   8. http://toxnet.nlm.nih.gov/cgi-bin/sis/search/r?dbs+hsdb:@term+@rn+@rel+2631-37-0
   9. http://toxnet.nlm.nih.gov/cgi-bin/sis/search/r?dbs+hsdb:@term+@rn+@rel+2631-37-0
  10. http://toxnet.nlm.nih.gov/cgi-bin/sis/search/r?dbs+hsdb:@term+@rn+@rel+2631-37-0
  11. http://pubchem.ncbi.nlm.nih.gov/vw3d/vw3d.cgi?cid=17516
