441864
  -OEChem-07051212562D

 87 92  0     1  0  0  0  0  0999 V2000
   11.3929   -1.5259    0.0000 O   0  0  0  0  0  0  0  0  0  0  0  0
    8.7351   -3.0743    0.0000 O   0  0  0  0  0  0  0  0  0  0  0  0
    5.9998   -2.5782    0.0000 O   0  0  0  0  0  0  0  0  0  0  0  0
    7.4326    0.0908    0.0000 O   0  0  0  0  0  0  0  0  0  0  0  0
   12.2926    3.4242    0.0000 O   0  0  0  0  0  0  0  0  0  0  0  0
    5.1396   -1.0749    0.0000 O   0  0  0  0  0  0  0  0  0  0  0  0
   10.4671   -3.0876    0.0000 O   0  0  0  0  0  0  0  0  0  0  0  0
    4.2639   -3.5715    0.0000 O   0  0  0  0  0  0  0  0  0  0  0  0
   13.5818    4.5809    0.0000 O   0  0  0  0  0  0  0  0  0  0  0  0
    2.5357   -2.5649    0.0000 O   0  0  0  0  0  0  0  0  0  0  0  0
    2.5434   -0.5649    0.0000 O   0  0  0  0  0  0  0  0  0  0  0  0
   11.3929   -0.5259    0.0000 C   0  0  1  0  0  0  0  0  0  0  0  0
   10.5269   -1.0259    0.0000 C   0  0  1  0  0  0  0  0  0  0  0  0
    9.6608   -0.5259    0.0000 C   0  0  1  0  0  0  0  0  0  0  0  0
   11.3929    0.4741    0.0000 C   0  0  2  0  0  0  0  0  0  0  0  0
    8.7508   -1.0327    0.0000 C   0  0  2  0  0  0  0  0  0  0  0  0
    8.7428   -2.0743    0.0000 C   0  0  1  0  0  0  0  0  0  0  0  0
    9.6608    0.4741    0.0000 C   0  0  0  0  0  0  0  0  0  0  0  0
   10.5269    0.9741    0.0000 C   0  0  0  0  0  0  0  0  0  0  0  0
   12.3391    0.7788    0.0000 C   0  0  2  0  0  0  0  0  0  0  0  0
   10.5429   -2.0674    0.0000 C   0  0  0  0  0  0  0  0  0  0  0  0
   12.3391   -0.8306    0.0000 C   0  0  0  0  0  0  0  0  0  0  0  0
    9.6449   -2.5951    0.0000 C   0  0  0  0  0  0  0  0  0  0  0  0
   12.9227   -0.0259    0.0000 C   0  0  0  0  0  0  0  0  0  0  0  0
    7.8240   -0.4686    0.0000 C   0  0  0  0  0  0  0  0  0  0  0  0
    7.8074   -2.6240    0.0000 C   0  0  0  0  0  0  0  0  0  0  0  0
   11.3929    1.4741    0.0000 C   0  0  0  0  0  0  0  0  0  0  0  0
    6.8761   -0.9966    0.0000 C   0  0  0  0  0  0  0  0  0  0  0  0
    6.8678   -2.0816    0.0000 C   0  0  2  0  0  0  0  0  0  0  0  0
    8.4161   -0.0904    0.0000 C   0  0  0  0  0  0  0  0  0  0  0  0
   12.6498    1.7294    0.0000 C   0  0  0  0  0  0  0  0  0  0  0  0
   13.6283    1.9356    0.0000 C   0  0  0  0  0  0  0  0  0  0  0  0
   11.9819    2.4737    0.0000 C   0  0  0  0  0  0  0  0  0  0  0  0
    9.5972   -3.5810    0.0000 C   0  0  0  0  0  0  0  0  0  0  0  0
    5.1357   -2.0749    0.0000 C   0  0  2  0  0  0  0  0  0  0  0  0
   13.9389    2.8861    0.0000 C   0  0  0  0  0  0  0  0  0  0  0  0
    9.5895   -4.5809    0.0000 C   0  0  0  0  0  0  0  0  0  0  0  0
    4.2678   -2.5715    0.0000 C   0  0  1  0  0  0  0  0  0  0  0  0
   13.2711    3.6304    0.0000 C   0  0  0  0  0  0  0  0  0  0  0  0
    3.4037   -2.0682    0.0000 C   0  0  1  0  0  0  0  0  0  0  0  0
    4.2755   -0.5716    0.0000 C   0  0  2  0  0  0  0  0  0  0  0  0
    3.4075   -1.0682    0.0000 C   0  0  2  0  0  0  0  0  0  0  0  0
    4.2793    0.4284    0.0000 C   0  0  0  0  0  0  0  0  0  0  0  0
   11.2662   -1.4452    0.0000 H   0  0  0  0  0  0  0  0  0  0  0  0
   10.3970   -0.1009    0.0000 H   0  0  0  0  0  0  0  0  0  0  0  0
    9.4488    1.0567    0.0000 H   0  0  0  0  0  0  0  0  0  0  0  0
    9.0503    0.3665    0.0000 H   0  0  0  0  0  0  0  0  0  0  0  0
   10.9254    1.4491    0.0000 H   0  0  0  0  0  0  0  0  0  0  0  0
   10.1283    1.4491    0.0000 H   0  0  0  0  0  0  0  0  0  0  0  0
   12.9516    0.8750    0.0000 H   0  0  0  0  0  0  0  0  0  0  0  0
   10.7610   -2.6478    0.0000 H   0  0  0  0  0  0  0  0  0  0  0  0
   11.1521   -1.9519    0.0000 H   0  0  0  0  0  0  0  0  0  0  0  0
   12.0881   -1.3975    0.0000 H   0  0  0  0  0  0  0  0  0  0  0  0
   12.8765   -1.1398    0.0000 H   0  0  0  0  0  0  0  0  0  0  0  0
    9.2476   -3.0711    0.0000 H   0  0  0  0  0  0  0  0  0  0  0  0
   10.0459   -3.0680    0.0000 H   0  0  0  0  0  0  0  0  0  0  0  0
   13.3836   -0.4406    0.0000 H   0  0  0  0  0  0  0  0  0  0  0  0
   13.3836    0.3888    0.0000 H   0  0  0  0  0  0  0  0  0  0  0  0
    8.2322   -0.0020    0.0000 H   0  0  0  0  0  0  0  0  0  0  0  0
    7.4341    0.0134    0.0000 H   0  0  0  0  0  0  0  0  0  0  0  0
    7.4101   -3.1000    0.0000 H   0  0  0  0  0  0  0  0  0  0  0  0
    8.2084   -3.0970    0.0000 H   0  0  0  0  0  0  0  0  0  0  0  0
   12.0129    1.4741    0.0000 H   0  0  0  0  0  0  0  0  0  0  0  0
   11.3929    2.0941    0.0000 H   0  0  0  0  0  0  0  0  0  0  0  0
   10.7729    1.4741    0.0000 H   0  0  0  0  0  0  0  0  0  0  0  0
    6.6716   -0.4113    0.0000 H   0  0  0  0  0  0  0  0  0  0  0  0
    6.2645   -1.0980    0.0000 H   0  0  0  0  0  0  0  0  0  0  0  0
    6.8666   -2.7016    0.0000 H   0  0  0  0  0  0  0  0  0  0  0  0
    8.8183    0.3814    0.0000 H   0  0  0  0  0  0  0  0  0  0  0  0
   11.9298   -1.8359    0.0000 H   0  0  0  0  0  0  0  0  0  0  0  0
   14.0423    1.4741    0.0000 H   0  0  0  0  0  0  0  0  0  0  0  0
   11.3753    2.3458    0.0000 H   0  0  0  0  0  0  0  0  0  0  0  0
    5.1333   -2.6949    0.0000 H   0  0  0  0  0  0  0  0  0  0  0  0
   14.5456    3.0140    0.0000 H   0  0  0  0  0  0  0  0  0  0  0  0
    8.9696   -4.5762    0.0000 H   0  0  0  0  0  0  0  0  0  0  0  0
    9.5848   -5.2009    0.0000 H   0  0  0  0  0  0  0  0  0  0  0  0
   10.2095   -4.5857    0.0000 H   0  0  0  0  0  0  0  0  0  0  0  0
    3.7296   -2.8795    0.0000 H   0  0  0  0  0  0  0  0  0  0  0  0
    2.8680   -1.7561    0.0000 H   0  0  0  0  0  0  0  0  0  0  0  0
    4.8136   -0.2636    0.0000 H   0  0  0  0  0  0  0  0  0  0  0  0
    3.4099   -0.4482    0.0000 H   0  0  0  0  0  0  0  0  0  0  0  0
    3.7258   -3.8795    0.0000 H   0  0  0  0  0  0  0  0  0  0  0  0
    4.8993    0.4260    0.0000 H   0  0  0  0  0  0  0  0  0  0  0  0
    4.2817    1.0484    0.0000 H   0  0  0  0  0  0  0  0  0  0  0  0
    3.6593    0.4308    0.0000 H   0  0  0  0  0  0  0  0  0  0  0  0
    2.0000   -2.2528    0.0000 H   0  0  0  0  0  0  0  0  0  0  0  0
    2.5458    0.0551    0.0000 H   0  0  0  0  0  0  0  0  0  0  0  0
 12  1  1  1  0  0  0
  1 70  1  0  0  0  0
 17  2  1  1  0  0  0
  2 34  1  0  0  0  0
 29  3  1  1  0  0  0
 35  3  1  1  0  0  0
  4 30  2  0  0  0  0
  5 33  1  0  0  0  0
  5 39  1  0  0  0  0
  6 35  1  0  0  0  0
  6 41  1  0  0  0  0
  7 34  2  0  0  0  0
 38  8  1  6  0  0  0
  8 82  1  0  0  0  0
  9 39  2  0  0  0  0
 40 10  1  6  0  0  0
 10 86  1  0  0  0  0
 42 11  1  1  0  0  0
 11 87  1  0  0  0  0
 12 13  1  0  0  0  0
 12 15  1  0  0  0  0
 12 22  1  0  0  0  0
 13 14  1  0  0  0  0
 13 21  1  0  0  0  0
 13 44  1  1  0  0  0
 14 16  1  0  0  0  0
 14 18  1  0  0  0  0
 14 45  1  6  0  0  0
 15 19  1  0  0  0  0
 15 20  1  0  0  0  0
 15 27  1  1  0  0  0
 16 17  1  0  0  0  0
 16 25  1  0  0  0  0
 16 30  1  1  0  0  0
 17 23  1  0  0  0  0
 17 26  1  0  0  0  0
 18 19  1  0  0  0  0
 18 46  1  0  0  0  0
 18 47  1  0  0  0  0
 19 48  1  0  0  0  0
 19 49  1  0  0  0  0
 20 24  1  0  0  0  0
 20 31  1  1  0  0  0
 20 50  1  0  0  0  0
 21 23  1  0  0  0  0
 21 51  1  0  0  0  0
 21 52  1  0  0  0  0
 22 24  1  0  0  0  0
 22 53  1  0  0  0  0
 22 54  1  0  0  0  0
 23 55  1  0  0  0  0
 23 56  1  0  0  0  0
 24 57  1  0  0  0  0
 24 58  1  0  0  0  0
 25 28  1  0  0  0  0
 25 59  1  0  0  0  0
 25 60  1  0  0  0  0
 26 29  1  0  0  0  0
 26 61  1  0  0  0  0
 26 62  1  0  0  0  0
 27 63  1  0  0  0  0
 27 64  1  0  0  0  0
 27 65  1  0  0  0  0
 28 29  1  0  0  0  0
 28 66  1  0  0  0  0
 28 67  1  0  0  0  0
 29 68  1  0  0  0  0
 30 69  1  0  0  0  0
 31 32  1  0  0  0  0
 31 33  2  0  0  0  0
 32 36  2  0  0  0  0
 32 71  1  0  0  0  0
 33 72  1  0  0  0  0
 34 37  1  0  0  0  0
 35 38  1  0  0  0  0
 35 73  1  0  0  0  0
 36 39  1  0  0  0  0
 36 74  1  0  0  0  0
 37 75  1  0  0  0  0
 37 76  1  0  0  0  0
 37 77  1  0  0  0  0
 38 40  1  0  0  0  0
 38 78  1  0  0  0  0
 40 42  1  0  0  0  0
 40 79  1  0  0  0  0
 41 42  1  0  0  0  0
 41 43  1  6  0  0  0
 41 80  1  0  0  0  0
 42 81  1  0  0  0  0
 43 83  1  0  0  0  0
 43 84  1  0  0  0  0
 43 85  1  0  0  0  0
M  END
> <PUBCHEM_COMPOUND_CID>
441864

> <PUBCHEM_COMPOUND_CANONICALIZED>
1

> <PUBCHEM_CACTVS_COMPLEXITY>
1220

> <PUBCHEM_CACTVS_HBOND_ACCEPTOR>
11

> <PUBCHEM_CACTVS_HBOND_DONOR>
4

> <PUBCHEM_CACTVS_ROTATABLE_BOND>
6

> <PUBCHEM_CACTVS_SUBSKEYS>
AAADcfB8PAAAAAAAAAAAAAAAAAAAAYAAAAA0YMECAAAAAGDAAAAAGgAACAAAD1SwgAMCCAAABgCIAijSiAAACAAgIAAICAEAAEgZFBYAIQAiUAAFoAAPoYPI7PzPgAAAAAAAAADAAAYQADAAAYAADAAAAA==

> <PUBCHEM_IUPAC_OPENEYE_NAME>
[(3S,5S,8R,9S,10S,13R,14S,17R)-10-formyl-14-hydroxy-13-methyl-17-(6-oxopyran-3-yl)-3-[(2R,3R,4R,5R,6S)-3,4,5-trihydroxy-6-methyl-tetrahydropyran-2-yl]oxy-2,3,4,6,7,8,9,11,12,15,16,17-dodecahydro-1H-cyclopenta[a]phenanthren-5-yl] acetate

> <PUBCHEM_IUPAC_CAS_NAME>
acetic acid [(3S,5S,8R,9S,10S,13R,14S,17R)-10-formyl-14-hydroxy-13-methyl-17-(6-oxo-3-pyranyl)-3-[[(2R,3R,4R,5R,6S)-3,4,5-trihydroxy-6-methyl-2-oxanyl]oxy]-2,3,4,6,7,8,9,11,12,15,16,17-dodecahydro-1H-cyclopenta[a]phenanthren-5-yl] ester

> <PUBCHEM_IUPAC_NAME>
[(3S,5S,8R,9S,10S,13R,14S,17R)-10-formyl-14-hydroxy-13-methyl-17-(6-oxopyran-3-yl)-3-[(2R,3R,4R,5R,6S)-3,4,5-trihydroxy-6-methyloxan-2-yl]oxy-2,3,4,6,7,8,9,11,12,15,16,17-dodecahydro-1H-cyclopenta[a]phenanthren-5-yl] acetate

> <PUBCHEM_IUPAC_SYSTEMATIC_NAME>
[(3S,5S,8R,9S,10S,13R,14S,17R)-10-methanoyl-13-methyl-3-[(2R,3R,4R,5R,6S)-6-methyl-3,4,5-tris(oxidanyl)oxan-2-yl]oxy-14-oxidanyl-17-(6-oxidanylidenepyran-3-yl)-2,3,4,6,7,8,9,11,12,15,16,17-dodecahydro-1H-cyclopenta[a]phenanthren-5-yl] ethanoate

> <PUBCHEM_IUPAC_TRADITIONAL_NAME>
acetic acid [(3S,5S,8R,9S,10S,13R,14S,17R)-10-formyl-14-hydroxy-17-(6-ketopyran-3-yl)-13-methyl-3-[(2R,3R,4R,5R,6S)-3,4,5-trihydroxy-6-methyl-tetrahydropyran-2-yl]oxy-2,3,4,6,7,8,9,11,12,15,16,17-dodecahydro-1H-cyclopenta[a]phenanthren-5-yl] ester

> <PUBCHEM_IUPAC_INCHI>
InChI=1S/C32H44O11/c1-17-25(36)26(37)27(38)28(41-17)42-20-6-11-30(16-33)22-7-10-29(3)21(19-4-5-24(35)40-15-19)9-13-32(29,39)23(22)8-12-31(30,14-20)43-18(2)34/h4-5,15-17,20-23,25-28,36-39H,6-14H2,1-3H3/t17-,20-,21+,22-,23+,25-,26+,27+,28-,29+,30-,31-,32-/m0/s1

> <PUBCHEM_IUPAC_INCHIKEY>
IKNIMVNUBXHADS-YGGZPGJKSA-N

> <PUBCHEM_XLOGP3>
-0.1

> <PUBCHEM_EXACT_MASS>
604.288362

> <PUBCHEM_MOLECULAR_FORMULA>
C32H44O11

> <PUBCHEM_MOLECULAR_WEIGHT>
604.68516

> <PUBCHEM_OPENEYE_CAN_SMILES>
CC1C(C(C(C(O1)OC2CCC3(C4CCC5(C(CCC5(C4CCC3(C2)OC(=O)C)O)C6=COC(=O)C=C6)C)C=O)O)O)O

> <PUBCHEM_OPENEYE_ISO_SMILES>
C[C@H]1[C@@H]([C@H]([C@H]([C@@H](O1)O[C@H]2CC[C@@]3([C@H]4CC[C@@]5([C@H](CC[C@@]5([C@@H]4CC[C@@]3(C2)OC(=O)C)O)C6=COC(=O)C=C6)C)C=O)O)O)O

> <PUBCHEM_CACTVS_TPSA>
169

> <PUBCHEM_MONOISOTOPIC_WEIGHT>
604.288362

> <PUBCHEM_TOTAL_CHARGE>
0

> <PUBCHEM_HEAVY_ATOM_COUNT>
43

> <PUBCHEM_ATOM_DEF_STEREO_COUNT>
13

> <PUBCHEM_ATOM_UDEF_STEREO_COUNT>
0

> <PUBCHEM_BOND_DEF_STEREO_COUNT>
0

> <PUBCHEM_BOND_UDEF_STEREO_COUNT>
0

> <PUBCHEM_ISOTOPIC_ATOM_COUNT>
0

> <PUBCHEM_COMPONENT_COUNT>
1

> <PUBCHEM_CACTVS_TAUTO_COUNT>
1

> <PUBCHEM_COORDINATE_TYPE>
1
5
255

> <PUBCHEM_BONDANNOTATIONS>
12  1  5
40  10  6
42  11  5
13  44  5
14  45  6
15  27  5
16  30  5
17  2  5
20  31  5
29  3  5
35  3  5
31  32  8
31  33  8
32  36  8
36  39  8
41  43  6
5  33  8
5  39  8
38  8  6

$$$$

