51090904
  -OEChem-06241223002D

 49 50  0     0  0  0  0  0  0999 V2000
    2.0000   -1.3913    0.0000 F   0  0  0  0  0  0  0  0  0  0  0  0
    2.2080   -2.3695    0.0000 F   0  0  0  0  0  0  0  0  0  0  0  0
    3.2601   -0.7493    0.0000 F   0  0  0  0  0  0  0  0  0  0  0  0
    3.8451    0.0784    0.0000 O   0  0  0  0  0  0  0  0  0  0  0  0
    6.4432    2.5784    0.0000 N   0  0  0  0  0  0  0  0  0  0  0  0
    4.2111   -2.9604    0.0000 N   0  0  0  0  0  0  0  0  0  0  0  0
    5.5772    0.0784    0.0000 N   0  0  0  0  0  0  0  0  0  0  0  0
    5.2111   -2.9604    0.0000 N   0  0  0  0  0  0  0  0  0  0  0  0
    5.5772    3.0784    0.0000 C   0  0  0  0  0  0  0  0  0  0  0  0
    7.3092    3.0784    0.0000 C   0  0  0  0  0  0  0  0  0  0  0  0
    5.5772    4.0784    0.0000 C   0  0  0  0  0  0  0  0  0  0  0  0
    7.3092    4.0784    0.0000 C   0  0  0  0  0  0  0  0  0  0  0  0
    6.4432    4.5784    0.0000 C   0  0  0  0  0  0  0  0  0  0  0  0
    6.4432    1.5784    0.0000 C   0  0  0  0  0  0  0  0  0  0  0  0
    3.6233   -3.7694    0.0000 C   0  0  0  0  0  0  0  0  0  0  0  0
    5.5772    1.0784    0.0000 C   0  0  0  0  0  0  0  0  0  0  0  0
    3.9021   -2.0094    0.0000 C   0  0  0  0  0  0  0  0  0  0  0  0
    3.0356   -4.5784    0.0000 C   0  0  0  0  0  0  0  0  0  0  0  0
    4.4324   -4.3572    0.0000 C   0  0  0  0  0  0  0  0  0  0  0  0
    2.6288   -3.6649    0.0000 C   0  0  0  0  0  0  0  0  0  0  0  0
    4.7111   -1.4216    0.0000 C   0  0  0  0  0  0  0  0  0  0  0  0
    4.7111   -0.4216    0.0000 C   0  0  0  0  0  0  0  0  0  0  0  0
    5.5202   -2.0094    0.0000 C   0  0  0  0  0  0  0  0  0  0  0  0
    2.9511   -1.7003    0.0000 C   0  0  0  0  0  0  0  0  0  0  0  0
    7.5213    2.4958    0.0000 H   0  0  0  0  0  0  0  0  0  0  0  0
    7.9198    3.1861    0.0000 H   0  0  0  0  0  0  0  0  0  0  0  0
    4.9666    3.1861    0.0000 H   0  0  0  0  0  0  0  0  0  0  0  0
    5.3651    2.4958    0.0000 H   0  0  0  0  0  0  0  0  0  0  0  0
    7.9198    3.9708    0.0000 H   0  0  0  0  0  0  0  0  0  0  0  0
    7.5213    4.6610    0.0000 H   0  0  0  0  0  0  0  0  0  0  0  0
    5.3651    4.6610    0.0000 H   0  0  0  0  0  0  0  0  0  0  0  0
    4.9666    3.9708    0.0000 H   0  0  0  0  0  0  0  0  0  0  0  0
    6.8417    5.0534    0.0000 H   0  0  0  0  0  0  0  0  0  0  0  0
    6.0446    5.0534    0.0000 H   0  0  0  0  0  0  0  0  0  0  0  0
    6.6552    0.9958    0.0000 H   0  0  0  0  0  0  0  0  0  0  0  0
    7.0538    1.6861    0.0000 H   0  0  0  0  0  0  0  0  0  0  0  0
    5.3651    1.6610    0.0000 H   0  0  0  0  0  0  0  0  0  0  0  0
    4.9666    0.9708    0.0000 H   0  0  0  0  0  0  0  0  0  0  0  0
    2.6936   -3.0483    0.0000 H   0  0  0  0  0  0  0  0  0  0  0  0
    2.5340   -4.2140    0.0000 H   0  0  0  0  0  0  0  0  0  0  0  0
    2.0122   -3.6001    0.0000 H   0  0  0  0  0  0  0  0  0  0  0  0
    2.5640   -4.2815    0.0000 H   0  0  0  0  0  0  0  0  0  0  0  0
    4.0679   -4.8588    0.0000 H   0  0  0  0  0  0  0  0  0  0  0  0
    4.9340   -4.7216    0.0000 H   0  0  0  0  0  0  0  0  0  0  0  0
    4.7968   -3.8556    0.0000 H   0  0  0  0  0  0  0  0  0  0  0  0
    2.6711   -5.0800    0.0000 H   0  0  0  0  0  0  0  0  0  0  0  0
    3.5372   -4.9429    0.0000 H   0  0  0  0  0  0  0  0  0  0  0  0
    6.1141   -0.2316    0.0000 H   0  0  0  0  0  0  0  0  0  0  0  0
    6.1098   -1.8178    0.0000 H   0  0  0  0  0  0  0  0  0  0  0  0
  1 24  1  0  0  0  0
  2 24  1  0  0  0  0
  3 24  1  0  0  0  0
  4 22  2  0  0  0  0
  5  9  1  0  0  0  0
  5 10  1  0  0  0  0
  5 14  1  0  0  0  0
  6  8  1  0  0  0  0
  6 15  1  0  0  0  0
  6 17  1  0  0  0  0
  7 16  1  0  0  0  0
  7 22  1  0  0  0  0
  7 48  1  0  0  0  0
  8 23  2  0  0  0  0
  9 11  1  0  0  0  0
  9 27  1  0  0  0  0
  9 28  1  0  0  0  0
 10 12  1  0  0  0  0
 10 25  1  0  0  0  0
 10 26  1  0  0  0  0
 11 13  1  0  0  0  0
 11 31  1  0  0  0  0
 11 32  1  0  0  0  0
 12 13  1  0  0  0  0
 12 29  1  0  0  0  0
 12 30  1  0  0  0  0
 13 33  1  0  0  0  0
 13 34  1  0  0  0  0
 14 16  1  0  0  0  0
 14 35  1  0  0  0  0
 14 36  1  0  0  0  0
 15 18  1  0  0  0  0
 15 19  1  0  0  0  0
 15 20  1  0  0  0  0
 16 37  1  0  0  0  0
 16 38  1  0  0  0  0
 17 21  2  0  0  0  0
 17 24  1  0  0  0  0
 18 40  1  0  0  0  0
 18 46  1  0  0  0  0
 18 47  1  0  0  0  0
 19 43  1  0  0  0  0
 19 44  1  0  0  0  0
 19 45  1  0  0  0  0
 20 39  1  0  0  0  0
 20 41  1  0  0  0  0
 20 42  1  0  0  0  0
 21 22  1  0  0  0  0
 21 23  1  0  0  0  0
 23 49  1  0  0  0  0
M  END
> <PUBCHEM_COMPOUND_CID>
51090904

> <PUBCHEM_COMPOUND_CANONICALIZED>
1

> <PUBCHEM_CACTVS_COMPLEXITY>
430

> <PUBCHEM_CACTVS_HBOND_ACCEPTOR>
6

> <PUBCHEM_CACTVS_HBOND_DONOR>
1

> <PUBCHEM_CACTVS_ROTATABLE_BOND>
5

> <PUBCHEM_CACTVS_SUBSKEYS>
AAADceB7oYAAAAAAAAAAAAAAAAAAAWAAAAAsAAAAAAAAAAABgAAAHwAYAAAADIjBnhQugJPIAACqAxV3VACQBAAlgAAQGKEoRFgAYJpAwMAUhYhAHgDAQcAQAAAIAAAAAAAAAAAAAAAAAAAAAAAAAAAAAA==

> <PUBCHEM_IUPAC_OPENEYE_NAME>
1-tert-butyl-N-[2-(1-piperidyl)ethyl]-5-(trifluoromethyl)pyrazole-4-carboxamide

> <PUBCHEM_IUPAC_CAS_NAME>
1-tert-butyl-N-[2-(1-piperidinyl)ethyl]-5-(trifluoromethyl)-4-pyrazolecarboxamide

> <PUBCHEM_IUPAC_NAME>
1-tert-butyl-N-(2-piperidin-1-ylethyl)-5-(trifluoromethyl)pyrazole-4-carboxamide

> <PUBCHEM_IUPAC_SYSTEMATIC_NAME>
1-tert-butyl-N-(2-piperidin-1-ylethyl)-5-(trifluoromethyl)pyrazole-4-carboxamide

> <PUBCHEM_IUPAC_TRADITIONAL_NAME>
1-tert-butyl-N-(2-piperidinoethyl)-5-(trifluoromethyl)pyrazole-4-carboxamide

> <PUBCHEM_IUPAC_INCHI>
InChI=1S/C16H25F3N4O/c1-15(2,3)23-13(16(17,18)19)12(11-21-23)14(24)20-7-10-22-8-5-4-6-9-22/h11H,4-10H2,1-3H3,(H,20,24)

> <PUBCHEM_IUPAC_INCHIKEY>
GLGXPCACEFIZAY-UHFFFAOYSA-N

> <PUBCHEM_XLOGP3_AA>
2.2

> <PUBCHEM_EXACT_MASS>
346.198046

> <PUBCHEM_MOLECULAR_FORMULA>
C16H25F3N4O

> <PUBCHEM_MOLECULAR_WEIGHT>
346.39111

> <PUBCHEM_OPENEYE_CAN_SMILES>
CC(C)(C)N1C(=C(C=N1)C(=O)NCCN2CCCCC2)C(F)(F)F

> <PUBCHEM_OPENEYE_ISO_SMILES>
CC(C)(C)N1C(=C(C=N1)C(=O)NCCN2CCCCC2)C(F)(F)F

> <PUBCHEM_CACTVS_TPSA>
50.2

> <PUBCHEM_MONOISOTOPIC_WEIGHT>
346.198046

> <PUBCHEM_TOTAL_CHARGE>
0

> <PUBCHEM_HEAVY_ATOM_COUNT>
24

> <PUBCHEM_ATOM_DEF_STEREO_COUNT>
0

> <PUBCHEM_ATOM_UDEF_STEREO_COUNT>
0

> <PUBCHEM_BOND_DEF_STEREO_COUNT>
0

> <PUBCHEM_BOND_UDEF_STEREO_COUNT>
0

> <PUBCHEM_ISOTOPIC_ATOM_COUNT>
0

> <PUBCHEM_COMPONENT_COUNT>
1

> <PUBCHEM_CACTVS_TAUTO_COUNT>
2

> <PUBCHEM_COORDINATE_TYPE>
1
5
255

> <PUBCHEM_BONDANNOTATIONS>
17  21  8
21  23  8
6  17  8
6  8  8
8  23  8

$$$$

