   Color/Form

     * Needles from alc or water
     * Colorless needles

   from [1]HSDB

   Odor
        Odorless
   from [2]HSDB

   Taste
        Sour taste
   from [3]HSDB

   Boiling Point
        Sublimes
   from [4]HSDB

   Melting Point
        236.6 deg C
   from [5]HSDB

   Density/Specific Gravity
        1.473 at 25 deg C
   from [6]HSDB

   Dissociation Constants
        pKa = 4.75 at 25 deg C
   from [7]HSDB

   Octanol/Water Partition Coefficient
        log Kow = 0.36
   from [8]HSDB

   pH
        pH = 2.7 (saturated aq soln)
   from [9]HSDB

   Solubilities

     * Slightly soluble in ethanol and ethyl ether
     * Soluble in alcohol, insoluble in most lipid solvents
     * In water, 18,000 mg/L at 20 deg C

   from [10]HSDB

   Spectral Properties

     * SADTLER REFERENCE NUMBER: 434 (IR, PRISM); 120 (IR, GRATING)
     * Max absorption: 263 nm
     * IR: 5076 (Coblentz Society Spectral Collection)
     * UV: 161 (Sadtler Research Laboratories Prism Collection)
     * 1H NMR: 14671 (Sadtler Research Laboratories Spectral Collection)
     * MASS: 40521 (NIST/EPA/MSDC Mass Spectral database, 1990 version);
       203 (National Bureau of Standards)
     * Intense mass spectral peaks: 78 m/z, 106 m/z, 137 m/z

   from [11]HSDB

   Vapor Pressure
        5.70X10-6 mm Hg at 25 deg C (est)
   from [12]HSDB

   Other Chemical/Physical Properties

     * Nonhygroscopic; sublimes without decomp
     * Stable to heat and oxidation
     * Henry's Law constant = 5.11X10-11 atm-cu m/mol at 25 deg C (est)
     * Hydroxyl radical reaction rate constant = 1.72X10-13 cu
       cm/molec-sec at 25 deg C (est)
     * Mol wt: 154.10. White crystals or crystalline powder; stable in
       air. On gram dissolves in approx 1.4 mL water, in approx 60 mL
       alcohol, in 10 mL glycerol. Insoluble in ether. pH of aqueous
       solution: approx 7. /Sodium salt sesquihydrate/

   from [13]HSDB

   Computed Properties
   Molecular Weight                  123.1094 [g/mol]
   Molecular Formula                 C[6]H[5]NO[2]
   XLogP3                            0.4
   H-Bond Donor                      1
   H-Bond Acceptor                   3
   Rotatable Bond Count              1
   Exact Mass                        123.032028
   MonoIsotopic Mass                 123.032028
   Topological Polar Surface Area    50.2
   Heavy Atom Count                  9
   Formal Charge                     0
   Complexity                        114
   Isotope Atom Count                0
   Defined Atom Stereocenter Count   0
   Undefined Atom Stereocenter Count 0
   Defined Bond Stereocenter Count   0
   Undefined Bond Stereocenter Count 0
   Covalently-Bonded Unit Count      1
   Feature 3D Acceptor Count         3
   Feature 3D Anion Count            1
   Feature 3D Ring Count             1
   Effective Rotor Count             1
   Conformer Sampling RMSD           0.4
   CID Conformer Count               [14]2

References

   1. http://toxnet.nlm.nih.gov/cgi-bin/sis/search/r?dbs+hsdb:@term+@rn+@rel+59-67-6
   2. http://toxnet.nlm.nih.gov/cgi-bin/sis/search/r?dbs+hsdb:@term+@rn+@rel+59-67-6
   3. http://toxnet.nlm.nih.gov/cgi-bin/sis/search/r?dbs+hsdb:@term+@rn+@rel+59-67-6
   4. http://toxnet.nlm.nih.gov/cgi-bin/sis/search/r?dbs+hsdb:@term+@rn+@rel+59-67-6
   5. http://toxnet.nlm.nih.gov/cgi-bin/sis/search/r?dbs+hsdb:@term+@rn+@rel+59-67-6
   6. http://toxnet.nlm.nih.gov/cgi-bin/sis/search/r?dbs+hsdb:@term+@rn+@rel+59-67-6
   7. http://toxnet.nlm.nih.gov/cgi-bin/sis/search/r?dbs+hsdb:@term+@rn+@rel+59-67-6
   8. http://toxnet.nlm.nih.gov/cgi-bin/sis/search/r?dbs+hsdb:@term+@rn+@rel+59-67-6
   9. http://toxnet.nlm.nih.gov/cgi-bin/sis/search/r?dbs+hsdb:@term+@rn+@rel+59-67-6
  10. http://toxnet.nlm.nih.gov/cgi-bin/sis/search/r?dbs+hsdb:@term+@rn+@rel+59-67-6
  11. http://toxnet.nlm.nih.gov/cgi-bin/sis/search/r?dbs+hsdb:@term+@rn+@rel+59-67-6
  12. http://toxnet.nlm.nih.gov/cgi-bin/sis/search/r?dbs+hsdb:@term+@rn+@rel+59-67-6
  13. http://toxnet.nlm.nih.gov/cgi-bin/sis/search/r?dbs+hsdb:@term+@rn+@rel+59-67-6
  14. http://pubchem.ncbi.nlm.nih.gov/vw3d/vw3d.cgi?cid=938
