46173856
  -OEChem-07051213092D

 58 61  0     1  0  0  0  0  0999 V2000
    8.1223   -1.9203    0.0000 O   0  0  0  0  0  0  0  0  0  0  0  0
    5.5103    1.6081    0.0000 O   0  0  0  0  0  0  0  0  0  0  0  0
    8.6855    1.9892    0.0000 O   0  0  0  0  0  0  0  0  0  0  0  0
    7.2762    2.6459    0.0000 O   0  0  0  0  0  0  0  0  0  0  0  0
    4.6497    1.1112    0.0000 O   0  0  0  0  0  0  0  0  0  0  0  0
    2.8680    0.1008    0.0000 O   0  0  0  0  0  0  0  0  0  0  0  0
    9.8438   -1.9531    0.0000 O   0  0  0  0  0  0  0  0  0  0  0  0
    7.2641   -0.4234    0.0000 C   0  0  2  0  0  0  0  0  0  0  0  0
    6.3981    0.0766    0.0000 C   0  0  1  0  0  0  0  0  0  0  0  0
    5.5320   -0.4234    0.0000 C   0  0  1  0  0  0  0  0  0  0  0  0
    8.1741    0.0835    0.0000 C   0  0  2  0  0  0  0  0  0  0  0  0
    7.2641   -1.4234    0.0000 C   0  0  1  0  0  0  0  0  0  0  0  0
    5.5320   -1.4234    0.0000 C   0  0  1  0  0  0  0  0  0  0  0  0
    6.3820    1.1181    0.0000 C   0  0  1  0  0  0  0  0  0  0  0  0
    8.1821    1.1251    0.0000 C   0  0  1  0  0  0  0  0  0  0  0  0
    6.3981   -1.9234    0.0000 C   0  0  0  0  0  0  0  0  0  0  0  0
    7.2800    1.6459    0.0000 C   0  0  2  0  0  0  0  0  0  0  0  0
    7.2641    0.5766    0.0000 C   0  0  0  0  0  0  0  0  0  0  0  0
    9.0134   -0.4447    0.0000 C   0  0  0  0  0  0  0  0  0  0  0  0
    4.6381   -1.9580    0.0000 C   0  0  1  0  0  0  0  0  0  0  0  0
    5.5320    0.5766    0.0000 C   0  0  0  0  0  0  0  0  0  0  0  0
    4.6381    0.1113    0.0000 C   0  0  0  0  0  0  0  0  0  0  0  0
    9.1821    1.1212    0.0000 C   0  0  0  0  0  0  0  0  0  0  0  0
    8.9878   -1.4361    0.0000 C   0  0  0  0  0  0  0  0  0  0  0  0
    3.7320   -1.4442    0.0000 C   0  0  0  0  0  0  0  0  0  0  0  0
    3.7320   -0.4025    0.0000 C   0  0  0  0  0  0  0  0  0  0  0  0
    4.6497   -2.9580    0.0000 C   0  0  0  0  0  0  0  0  0  0  0  0
    2.0000   -0.3959    0.0000 C   0  0  0  0  0  0  0  0  0  0  0  0
    7.1309    0.5073    0.0000 H   0  0  0  0  0  0  0  0  0  0  0  0
    8.9198    0.4915    0.0000 H   0  0  0  0  0  0  0  0  0  0  0  0
    7.2636   -2.2734    0.0000 H   0  0  0  0  0  0  0  0  0  0  0  0
    5.5386   -2.2733    0.0000 H   0  0  0  0  0  0  0  0  0  0  0  0
    5.8493    0.8009    0.0000 H   0  0  0  0  0  0  0  0  0  0  0  0
    5.9995   -2.3983    0.0000 H   0  0  0  0  0  0  0  0  0  0  0  0
    6.7966   -2.3983    0.0000 H   0  0  0  0  0  0  0  0  0  0  0  0
    6.7413    1.9528    0.0000 H   0  0  0  0  0  0  0  0  0  0  0  0
    7.8841    0.5766    0.0000 H   0  0  0  0  0  0  0  0  0  0  0  0
    7.2641    1.1966    0.0000 H   0  0  0  0  0  0  0  0  0  0  0  0
    6.6441    0.5766    0.0000 H   0  0  0  0  0  0  0  0  0  0  0  0
    9.6205   -0.5706    0.0000 H   0  0  0  0  0  0  0  0  0  0  0  0
    9.2452    0.1303    0.0000 H   0  0  0  0  0  0  0  0  0  0  0  0
    4.1042   -2.2732    0.0000 H   0  0  0  0  0  0  0  0  0  0  0  0
    6.1520    0.5766    0.0000 H   0  0  0  0  0  0  0  0  0  0  0  0
    5.5320    1.1966    0.0000 H   0  0  0  0  0  0  0  0  0  0  0  0
    4.9120    0.5766    0.0000 H   0  0  0  0  0  0  0  0  0  0  0  0
    9.1797    0.5012    0.0000 H   0  0  0  0  0  0  0  0  0  0  0  0
    9.8021    1.1188    0.0000 H   0  0  0  0  0  0  0  0  0  0  0  0
    9.1845    1.7412    0.0000 H   0  0  0  0  0  0  0  0  0  0  0  0
    3.1963   -1.7562    0.0000 H   0  0  0  0  0  0  0  0  0  0  0  0
    5.5031    2.2280    0.0000 H   0  0  0  0  0  0  0  0  0  0  0  0
    9.3055    1.9868    0.0000 H   0  0  0  0  0  0  0  0  0  0  0  0
    4.0297   -2.9651    0.0000 H   0  0  0  0  0  0  0  0  0  0  0  0
    4.6568   -3.5779    0.0000 H   0  0  0  0  0  0  0  0  0  0  0  0
    5.2696   -2.9508    0.0000 H   0  0  0  0  0  0  0  0  0  0  0  0
    7.8119    2.9580    0.0000 H   0  0  0  0  0  0  0  0  0  0  0  0
    1.6921    0.1423    0.0000 H   0  0  0  0  0  0  0  0  0  0  0  0
    1.4619   -0.7038    0.0000 H   0  0  0  0  0  0  0  0  0  0  0  0
    2.3079   -0.9340    0.0000 H   0  0  0  0  0  0  0  0  0  0  0  0
  1 12  1  0  0  0  0
  1 24  1  0  0  0  0
 14  2  1  6  0  0  0
  2 50  1  0  0  0  0
 15  3  1  1  0  0  0
  3 51  1  0  0  0  0
 17  4  1  1  0  0  0
  4 55  1  0  0  0  0
  5 22  2  0  0  0  0
  6 26  1  0  0  0  0
  6 28  1  0  0  0  0
  7 24  2  0  0  0  0
  8  9  1  0  0  0  0
  8 11  1  0  0  0  0
  8 12  1  0  0  0  0
  8 18  1  1  0  0  0
  9 10  1  0  0  0  0
  9 14  1  0  0  0  0
  9 29  1  6  0  0  0
 10 13  1  0  0  0  0
 10 21  1  1  0  0  0
 10 22  1  0  0  0  0
 11 15  1  0  0  0  0
 11 19  1  0  0  0  0
 11 30  1  1  0  0  0
 12 16  1  0  0  0  0
 12 31  1  1  0  0  0
 13 16  1  0  0  0  0
 13 20  1  0  0  0  0
 13 32  1  6  0  0  0
 14 17  1  0  0  0  0
 14 33  1  0  0  0  0
 15 17  1  0  0  0  0
 15 23  1  0  0  0  0
 16 34  1  0  0  0  0
 16 35  1  0  0  0  0
 17 36  1  0  0  0  0
 18 37  1  0  0  0  0
 18 38  1  0  0  0  0
 18 39  1  0  0  0  0
 19 24  1  0  0  0  0
 19 40  1  0  0  0  0
 19 41  1  0  0  0  0
 20 25  1  0  0  0  0
 20 27  1  6  0  0  0
 20 42  1  0  0  0  0
 21 43  1  0  0  0  0
 21 44  1  0  0  0  0
 21 45  1  0  0  0  0
 22 26  1  0  0  0  0
 23 46  1  0  0  0  0
 23 47  1  0  0  0  0
 23 48  1  0  0  0  0
 25 26  2  0  0  0  0
 25 49  1  0  0  0  0
 27 52  1  0  0  0  0
 27 53  1  0  0  0  0
 27 54  1  0  0  0  0
 28 56  1  0  0  0  0
 28 57  1  0  0  0  0
 28 58  1  0  0  0  0
M  END
> <PUBCHEM_COMPOUND_CID>
46173856

> <PUBCHEM_COMPOUND_CANONICALIZED>
1

> <PUBCHEM_CACTVS_COMPLEXITY>
762

> <PUBCHEM_CACTVS_HBOND_ACCEPTOR>
7

> <PUBCHEM_CACTVS_HBOND_DONOR>
3

> <PUBCHEM_CACTVS_ROTATABLE_BOND>
1

> <PUBCHEM_CACTVS_SUBSKEYS>
AAADceB4OAAAAAAAAAAAAAAAAAAAAAAAAAA0YIEAAAAAAADQAAAAGgAACAAAD1SggAICCAAABgCIAKDSCAIACAAgIAAACAFAAEgBEBIAAAQCQAAFgAAJAYPK7PzPgAAAAAAAAADAAAYQADCAAAAAAAAAAA==

> <PUBCHEM_IUPAC_INCHI>
InChI=1S/C21H30O7/c1-9-6-11(27-5)17(24)19(2)10(9)7-13-20(3)12(8-14(22)28-13)21(4,26)18(25)15(23)16(19)20/h6,9-10,12-13,15-16,18,23,25-26H,7-8H2,1-5H3/t9-,10+,12-,13-,15+,16-,18-,19+,20-,21+/m1/s1

> <PUBCHEM_IUPAC_INCHIKEY>
WNKCCKMAFDLLDA-CMYVXUCTSA-N

> <PUBCHEM_XLOGP3_AA>
0.8

> <PUBCHEM_EXACT_MASS>
394.199153

> <PUBCHEM_MOLECULAR_FORMULA>
C21H30O7

> <PUBCHEM_MOLECULAR_WEIGHT>
394.4587

> <PUBCHEM_OPENEYE_CAN_SMILES>
CC1C=C(C(=O)C2(C1CC3C4(C2C(C(C(C4CC(=O)O3)(C)O)O)O)C)C)OC

> <PUBCHEM_OPENEYE_ISO_SMILES>
C[C@@H]1C=C(C(=O)[C@]2([C@H]1C[C@@H]3[C@@]4([C@@H]2[C@@H]([C@H]([C@@]([C@@H]4CC(=O)O3)(C)O)O)O)C)C)OC

> <PUBCHEM_CACTVS_TPSA>
113

> <PUBCHEM_MONOISOTOPIC_WEIGHT>
394.199153

> <PUBCHEM_TOTAL_CHARGE>
0

> <PUBCHEM_HEAVY_ATOM_COUNT>
28

> <PUBCHEM_ATOM_DEF_STEREO_COUNT>
10

> <PUBCHEM_ATOM_UDEF_STEREO_COUNT>
0

> <PUBCHEM_BOND_DEF_STEREO_COUNT>
0

> <PUBCHEM_BOND_UDEF_STEREO_COUNT>
0

> <PUBCHEM_ISOTOPIC_ATOM_COUNT>
0

> <PUBCHEM_COMPONENT_COUNT>
1

> <PUBCHEM_CACTVS_TAUTO_COUNT>
6

> <PUBCHEM_COORDINATE_TYPE>
1
5
255

> <PUBCHEM_BONDANNOTATIONS>
10  21  5
11  30  5
12  31  5
13  32  6
14  2  6
20  27  6
15  3  5
17  4  5
8  18  5
9  29  6

$$$$

