8295
  -OEChem-07051213052D

 26 25  0     0  0  0  0  0  0999 V2000
    8.9282   -1.2990    0.0000 Cl  0  0  0  0  0  0  0  0  0  0  0  0
    2.0000   -1.2990    0.0000 Cl  0  0  0  0  0  0  0  0  0  0  0  0
    5.4641    2.1651    0.0000 Cl  0  0  0  0  0  0  0  0  0  0  0  0
    5.4641   -1.2990    0.0000 P   0  0  0  0  0  0  0  0  0  0  0  0
    6.3301   -0.7990    0.0000 O   0  0  0  0  0  0  0  0  0  0  0  0
    4.5981   -1.7990    0.0000 O   0  0  0  0  0  0  0  0  0  0  0  0
    4.9641   -0.4330    0.0000 O   0  0  0  0  0  0  0  0  0  0  0  0
    5.9641   -2.1651    0.0000 O   0  0  0  0  0  0  0  0  0  0  0  0
    7.1962   -1.2990    0.0000 C   0  0  0  0  0  0  0  0  0  0  0  0
    3.7320   -1.2990    0.0000 C   0  0  0  0  0  0  0  0  0  0  0  0
    5.4641    0.4330    0.0000 C   0  0  0  0  0  0  0  0  0  0  0  0
    8.0622   -0.7990    0.0000 C   0  0  0  0  0  0  0  0  0  0  0  0
    2.8660   -1.7990    0.0000 C   0  0  0  0  0  0  0  0  0  0  0  0
    4.9641    1.2990    0.0000 C   0  0  0  0  0  0  0  0  0  0  0  0
    5.9390    0.0345    0.0000 H   0  0  0  0  0  0  0  0  0  0  0  0
    5.9390    0.8315    0.0000 H   0  0  0  0  0  0  0  0  0  0  0  0
    4.1306   -0.8241    0.0000 H   0  0  0  0  0  0  0  0  0  0  0  0
    3.3335   -0.8241    0.0000 H   0  0  0  0  0  0  0  0  0  0  0  0
    6.7976   -1.7740    0.0000 H   0  0  0  0  0  0  0  0  0  0  0  0
    7.5947   -1.7740    0.0000 H   0  0  0  0  0  0  0  0  0  0  0  0
    4.4892    1.6976    0.0000 H   0  0  0  0  0  0  0  0  0  0  0  0
    4.4892    0.9005    0.0000 H   0  0  0  0  0  0  0  0  0  0  0  0
    2.4675   -2.2740    0.0000 H   0  0  0  0  0  0  0  0  0  0  0  0
    3.2646   -2.2740    0.0000 H   0  0  0  0  0  0  0  0  0  0  0  0
    8.4607   -0.3241    0.0000 H   0  0  0  0  0  0  0  0  0  0  0  0
    7.6636   -0.3241    0.0000 H   0  0  0  0  0  0  0  0  0  0  0  0
  1 12  1  0  0  0  0
  2 13  1  0  0  0  0
  3 14  1  0  0  0  0
  4  5  1  0  0  0  0
  4  6  1  0  0  0  0
  4  7  1  0  0  0  0
  4  8  2  0  0  0  0
  5  9  1  0  0  0  0
  6 10  1  0  0  0  0
  7 11  1  0  0  0  0
  9 12  1  0  0  0  0
  9 19  1  0  0  0  0
  9 20  1  0  0  0  0
 10 13  1  0  0  0  0
 10 17  1  0  0  0  0
 10 18  1  0  0  0  0
 11 14  1  0  0  0  0
 11 15  1  0  0  0  0
 11 16  1  0  0  0  0
 12 25  1  0  0  0  0
 12 26  1  0  0  0  0
 13 23  1  0  0  0  0
 13 24  1  0  0  0  0
 14 21  1  0  0  0  0
 14 22  1  0  0  0  0
M  END
> <PUBCHEM_COMPOUND_CID>
8295

> <PUBCHEM_COMPOUND_CANONICALIZED>
1

> <PUBCHEM_CACTVS_COMPLEXITY>
152

> <PUBCHEM_CACTVS_HBOND_ACCEPTOR>
4

> <PUBCHEM_CACTVS_HBOND_DONOR>
0

> <PUBCHEM_CACTVS_ROTATABLE_BOND>
9

> <PUBCHEM_CACTVS_SUBSKEYS>
AAADccBgOAIGAAAAAAAAAAAAAAAAAAAAAAAAAAAAAAAAAAAAAAAAGgIAACAAAAOggEIAAAAAARAAQAAAAIAAAAAAAAAAAAAAAQAAAAAAAAAAAAAAAAAAAAAAAAAAAAAAAAAAAAAAAAAAAAAAAAAAAAAAAA==

> <PUBCHEM_IUPAC_OPENEYE_NAME>
tris(2-chloroethyl) phosphate

> <PUBCHEM_IUPAC_CAS_NAME>
phosphoric acid tris(2-chloroethyl) ester

> <PUBCHEM_IUPAC_NAME>
tris(2-chloroethyl) phosphate

> <PUBCHEM_IUPAC_SYSTEMATIC_NAME>
tris(2-chloroethyl) phosphate

> <PUBCHEM_IUPAC_TRADITIONAL_NAME>
phosphoric acid tris(2-chloroethyl) ester

> <PUBCHEM_IUPAC_INCHI>
InChI=1S/C6H12Cl3O4P/c7-1-4-11-14(10,12-5-2-8)13-6-3-9/h1-6H2

> <PUBCHEM_IUPAC_INCHIKEY>
HQUQLFOMPYWACS-UHFFFAOYSA-N

> <PUBCHEM_XLOGP3_AA>
1.3

> <PUBCHEM_EXACT_MASS>
283.953879

> <PUBCHEM_MOLECULAR_FORMULA>
C6H12Cl3O4P

> <PUBCHEM_MOLECULAR_WEIGHT>
285.489842

> <PUBCHEM_OPENEYE_CAN_SMILES>
C(CCl)OP(=O)(OCCCl)OCCCl

> <PUBCHEM_OPENEYE_ISO_SMILES>
C(CCl)OP(=O)(OCCCl)OCCCl

> <PUBCHEM_CACTVS_TPSA>
44.8

> <PUBCHEM_MONOISOTOPIC_WEIGHT>
283.953879

> <PUBCHEM_TOTAL_CHARGE>
0

> <PUBCHEM_HEAVY_ATOM_COUNT>
14

> <PUBCHEM_ATOM_DEF_STEREO_COUNT>
0

> <PUBCHEM_ATOM_UDEF_STEREO_COUNT>
0

> <PUBCHEM_BOND_DEF_STEREO_COUNT>
0

> <PUBCHEM_BOND_UDEF_STEREO_COUNT>
0

> <PUBCHEM_ISOTOPIC_ATOM_COUNT>
0

> <PUBCHEM_COMPONENT_COUNT>
1

> <PUBCHEM_CACTVS_TAUTO_COUNT>
1

> <PUBCHEM_COORDINATE_TYPE>
1
5
255

$$$$

