   Color/Form

     * COLORLESS OR WHITE CRYSTALS
     * Transparent, colorless crystals
     * Large, monoclinic plates

   from [1]HSDB

   Odor

     * Aromatic, penetrating and slightly acrid odor
     * Characteristic: sweet

   from [2]HSDB

   Taste
        Slightly bitter, caustic taste
   from [3]HSDB

   Boiling Point
        96 deg C (decomposes)
   from [4]HSDB

   Melting Point
        57 deg C
   from [5]HSDB

   Corrosivity
        ... Corrosive to the skin and mucous membrane unless well diluted
   from [6]HSDB

   Density/Specific Gravity
        1.9081 g/cu m at 20 deg C/4 deg C
   from [7]HSDB

   Octanol/Water Partition Coefficient
        log Kow = 0.99
   from [8]HSDB

   pH
        3.5-4.4 (10% soln in water)
   from [9]HSDB

   Solubilities

     * Freely soluble in acetone, methyl ethyl ketone. Moderately or
       sparingly soluble in turpentine, petroleum ether, carbon
       tetrachloride, benzene, toluene.
     * Very soluble in benzene, ethyl ether, and ethanol.
     * In water, 7.93X10+5 mg/L at 25 deg C

   from [10]HSDB

   Spectral Properties

     * Intense mass spectral peaks: 82 m/z, 111 m/z, 146 m/z
     * IR: 5423 (Coblentz Society Spectral Collection)
     * 1H NMR: 10362 (Sadtler Research Laboratories Spectral Collection)
     * MASS: 75231 (NIST/EPA/MSDC Mass Spectral database, 1990 version)

   from [11]HSDB

   Vapor Density
        5.1 (Air= 1)
   from [12]HSDB

   Vapor Pressure
        15 mm Hg at 25 deg C
   from [13]HSDB

   Other Chemical/Physical Properties

     * MP: 57 deg C when heated in an open vessel. BP 98 deg C with
       dissociation into chloral and water.
     * Decomposed by sodium hydroxide into chloroform; reduces ammoniacal
       silver nitrate /Monohydrate/
     * One gram of chloral hydrate dissolves in 1.3 mL alcohol, in 2 mL
       chloroform, in 1.5 mL ether, in 1.4 mL olive oil, in 0.5 glycerol,
       in 68 g carbon disulfide. /Monohydrate/
     * Chloral hydrate slowly volatilizes when exposed to air. Aqueous
       solutions of chloral hydrate are incompatible with alkaline
       substances, are decomposed by light, and may develop mold growth if
       a preservative is not present.
     * Incompatible with soluble barbiturates, tannin, oxidizing agents,
       and alcohol (chloral alcoholate may crystallize out), phenazone,
       phenol, thymol, and quinine salts
     * PHARMACEUTICAL INCOMPATIBILITIES: IODIDE, CYANIDE, PERMANGANATE,
       BORAX, ALKALI HYDROXIDES & CARBONATES, LEAD ACETATE, MONOBROMATED
       CAMPHOR, DIURETIN, ACETOPHENETIDIN, QUININE SULFATE, SALOL,
       THEOBROMINE SODIOSALICYLATE, SODIUM PHOSPHATE, UREA, URETHANE.
     * 1 mg/cu m = 0.166 ppm, 1 ppm = 6.0 mg/cu m
     * Miscible hygroscopic
     * Henry's Law constant = 5.71X10-9 atm-cu m/mol at 25 deg C (est)
     * Hydroxyl radical reaction rate constant = 1.92X10-12 cu
       cm/molec-sec at 25 deg C (est)

   from [14]HSDB

   Computed Properties
   Molecular Weight                  165.40302 [g/mol]
   Molecular Formula                 C[2]H[3]Cl[3]O[2]
   XLogP3                            1
   H-Bond Donor                      2
   H-Bond Acceptor                   2
   Rotatable Bond Count              0
   Exact Mass                        163.919862
   MonoIsotopic Mass                 163.919862
   Topological Polar Surface Area    40.5
   Heavy Atom Count                  7
   Formal Charge                     0
   Complexity                        56.4
   Isotope Atom Count                0
   Defined Atom Stereocenter Count   0
   Undefined Atom Stereocenter Count 0
   Defined Bond Stereocenter Count   0
   Undefined Bond Stereocenter Count 0
   Covalently-Bonded Unit Count      1
   Feature 3D Acceptor Count         2
   Feature 3D Donor Count            2
   Effective Rotor Count             1
   Conformer Sampling RMSD           0.4
   CID Conformer Count               [15]1

References

   1. http://toxnet.nlm.nih.gov/cgi-bin/sis/search/r?dbs+hsdb:@term+@rn+@rel+302-17-0
   2. http://toxnet.nlm.nih.gov/cgi-bin/sis/search/r?dbs+hsdb:@term+@rn+@rel+302-17-0
   3. http://toxnet.nlm.nih.gov/cgi-bin/sis/search/r?dbs+hsdb:@term+@rn+@rel+302-17-0
   4. http://toxnet.nlm.nih.gov/cgi-bin/sis/search/r?dbs+hsdb:@term+@rn+@rel+302-17-0
   5. http://toxnet.nlm.nih.gov/cgi-bin/sis/search/r?dbs+hsdb:@term+@rn+@rel+302-17-0
   6. http://toxnet.nlm.nih.gov/cgi-bin/sis/search/r?dbs+hsdb:@term+@rn+@rel+302-17-0
   7. http://toxnet.nlm.nih.gov/cgi-bin/sis/search/r?dbs+hsdb:@term+@rn+@rel+302-17-0
   8. http://toxnet.nlm.nih.gov/cgi-bin/sis/search/r?dbs+hsdb:@term+@rn+@rel+302-17-0
   9. http://toxnet.nlm.nih.gov/cgi-bin/sis/search/r?dbs+hsdb:@term+@rn+@rel+302-17-0
  10. http://toxnet.nlm.nih.gov/cgi-bin/sis/search/r?dbs+hsdb:@term+@rn+@rel+302-17-0
  11. http://toxnet.nlm.nih.gov/cgi-bin/sis/search/r?dbs+hsdb:@term+@rn+@rel+302-17-0
  12. http://toxnet.nlm.nih.gov/cgi-bin/sis/search/r?dbs+hsdb:@term+@rn+@rel+302-17-0
  13. http://toxnet.nlm.nih.gov/cgi-bin/sis/search/r?dbs+hsdb:@term+@rn+@rel+302-17-0
  14. http://toxnet.nlm.nih.gov/cgi-bin/sis/search/r?dbs+hsdb:@term+@rn+@rel+302-17-0
  15. http://pubchem.ncbi.nlm.nih.gov/vw3d/vw3d.cgi?cid=2707
