   Color/Form
        Crystals from water with 3 mol of water of crystallization.
   from [1]HSDB

   Melting Point
        245 deg C (decomp)
   from [2]HSDB

   Dissociation Constants
        pKa1= 3.1; pKa2= 4.8; pKa3= 10.4
   from [3]HSDB

   Octanol/Water Partition Coefficient
        log Kow = -4.45 /Estimated/
   from [4]HSDB

   pH
        pH of saturated solution in water = 2.8-3.0.
   from [5]HSDB

   Solubilities
        Sparingly soluble in water
   from [6]HSDB

   Spectral Properties

     * Specific optical rotation: +16.76 deg at 25 deg C/D (5% sodium
       carbonate, concentration = 3.5%).
     * UV: 1-870 (Philip et al., Organic Electronic Spectral Data, John
       Wiley & Sons, New York)

   from [7]HSDB

   Vapor Pressure
        2.3X10-21 mm Hg at 25 deg C at 25 deg C /Estimated/
   from [8]HSDB

   Other Chemical/Physical Properties

     * Off-white to light beige amorphous powder. Odorless. Freely soluble
       in water. Specific optical rotation = +14.9 deg at 21 deg C/D ( c=
       1 in water). /Calcium salt pentahydrate/
     * Specific optical rotation = -15.1 deg at 20 deg C/D ( c= 1.82)
       /l-Form calcium salt)
     * Specific optical rotation = +14.26 deg at 20 deg C/D ( c= 3.42 as
       anhydr Ca salt)
     * Crystals; decompose 240-250 deg C; sparingly soluble in water.
       /dl-Folinic acid/
     * Henry's Law constant = 4.4X10-27 atm-cu m/mole at 25 deg C
       /Estimated/
     * Hydroxyl radical reaction rate constant = 2.7X10-10 cu cm/molec-sec
       at 25 deg C /Estimated/

   from [9]HSDB

   Computed Properties
   Molecular Weight                  473.43932 [g/mol]
   Molecular Formula                 C[20]H[23]N[7]O[7]
   XLogP3-AA                         -1.2
   H-Bond Donor                      7
   H-Bond Acceptor                   9
   Rotatable Bond Count              9
   Tautomer Count                    85
   Exact Mass                        473.165896
   MonoIsotopic Mass                 473.165896
   Topological Polar Surface Area    216
   Heavy Atom Count                  34
   Formal Charge                     0
   Complexity                        911
   Isotope Atom Count                0
   Defined Atom Stereocenter Count   0
   Undefined Atom Stereocenter Count 2
   Defined Bond Stereocenter Count   0
   Undefined Bond Stereocenter Count 0
   Covalently-Bonded Unit Count      1
   Feature 3D Acceptor Count         7
   Feature 3D Donor Count            6
   Feature 3D Anion Count            2
   Feature 3D Cation Count           2
   Feature 3D Ring Count             3
   Effective Rotor Count             11.8
   Conformer Sampling RMSD           1.2
   CID Conformer Count               [10]210

References

   1. http://toxnet.nlm.nih.gov/cgi-bin/sis/search/r?dbs+hsdb:@term+@rn+@rel+58-05-9
   2. http://toxnet.nlm.nih.gov/cgi-bin/sis/search/r?dbs+hsdb:@term+@rn+@rel+58-05-9
   3. http://toxnet.nlm.nih.gov/cgi-bin/sis/search/r?dbs+hsdb:@term+@rn+@rel+58-05-9
   4. http://toxnet.nlm.nih.gov/cgi-bin/sis/search/r?dbs+hsdb:@term+@rn+@rel+58-05-9
   5. http://toxnet.nlm.nih.gov/cgi-bin/sis/search/r?dbs+hsdb:@term+@rn+@rel+58-05-9
   6. http://toxnet.nlm.nih.gov/cgi-bin/sis/search/r?dbs+hsdb:@term+@rn+@rel+58-05-9
   7. http://toxnet.nlm.nih.gov/cgi-bin/sis/search/r?dbs+hsdb:@term+@rn+@rel+58-05-9
   8. http://toxnet.nlm.nih.gov/cgi-bin/sis/search/r?dbs+hsdb:@term+@rn+@rel+58-05-9
   9. http://toxnet.nlm.nih.gov/cgi-bin/sis/search/r?dbs+hsdb:@term+@rn+@rel+58-05-9
  10. http://pubchem.ncbi.nlm.nih.gov/vw3d/vw3d.cgi?cid=143
