   Melting Point
        71.5-72.5 deg C
   from [1]HSDB

   Dissociation Constants
        pKa = 9.21
   from [2]HSDB

   Other Chemical/Physical Properties

     * White crystals from ethanol; mp: 201.5-202.5 deg C; specific
       optical rotation: -12.0 deg at 24 deg C/405 (concentration by
       volume = 5 g in 1 N hydrogen chloride); specific optical rotation:
       4.2 deg at 25 deg C/D; maximum absorption (O.1 N hydrogen
       chloride): 294 nm (A = 200, 1%, 1 cm); sol in water, ethanol,
       methanol; sparingly sol in chloroform; very slightly sol in
       cyclohexane; practically insol in isooctane, ether; stable in soln
       up to pH 12. /Timolol maleate/
     * White, odorless, crystalline powder. Slightly soluble in water;
       freely soluble in ethanol /Timolol hemihydrate/

   from [3]HSDB

   Computed Properties
   Molecular Weight                  316.41966 [g/mol]
   Molecular Formula                 C[13]H[24]N[4]O[3]S
   XLogP3                            1.8
   H-Bond Donor                      2
   H-Bond Acceptor                   8
   Rotatable Bond Count              7
   Exact Mass                        316.156912
   MonoIsotopic Mass                 316.156912
   Topological Polar Surface Area    108
   Heavy Atom Count                  21
   Formal Charge                     0
   Complexity                        310
   Isotope Atom Count                0
   Defined Atom Stereocenter Count   1
   Undefined Atom Stereocenter Count 0
   Defined Bond Stereocenter Count   0
   Undefined Bond Stereocenter Count 0
   Covalently-Bonded Unit Count      1
   Feature 3D Acceptor Count         2
   Feature 3D Donor Count            2
   Feature 3D Cation Count           2
   Feature 3D Hydrophobe Count       1
   Feature 3D Ring Count             2
   Effective Rotor Count             8.2
   Conformer Sampling RMSD           1
   CID Conformer Count               [4]46

References

   1. http://toxnet.nlm.nih.gov/cgi-bin/sis/search/r?dbs+hsdb:@term+@rn+@rel+26839-75-8
   2. http://toxnet.nlm.nih.gov/cgi-bin/sis/search/r?dbs+hsdb:@term+@rn+@rel+26839-75-8
   3. http://toxnet.nlm.nih.gov/cgi-bin/sis/search/r?dbs+hsdb:@term+@rn+@rel+26839-75-8
   4. http://pubchem.ncbi.nlm.nih.gov/vw3d/vw3d.cgi?cid=33624
