   Color/Form

     * White, crystalline solid
     * Colorless crystals

   from [1]HSDB

   Boiling Point
        135-137 deg C @ 1.0 mm Hg
   from [2]HSDB

   Melting Point
        46.5 deg C
   from [3]HSDB

   Dissociation Constants
        pKa 8.5
   from [4]HSDB

   Octanol/Water Partition Coefficient
        log Kow= 3.63
   from [5]HSDB

   Spectral Properties

     * Mass: 1684 (National Bureau of Standards EPA-NIH Mass Spectra Data
       Base, NSRDS-NBS-63)
     * Intense mass spectral peaks: 84 m/z, 91 m/z, 200 m/z, 243 m/z
     * UV max (0.1M HCl): 252, 257.5, 262, 268.5 nm (E 1% 1cm 7.9, 11.2,
       13.0, 9.7)

   from [6]HSDB

   Other Chemical/Physical Properties

     * Phencyclidine belongs to a unique family of chemicals called
       cyclohexylamines.
     * Crystals, mp 243-244 deg C /Phencyclidine hydrochloride/
     * The majority of illicitly synthesized compounds are
       nitrogen-substituted. Small chain alkyl groups (eg, ethyl, propyl)
       have been the most common substitution ... /PCP analogs/
     * The cyano group of 1-piperidinocyclohexanecarbonitrile is highly
       labile, leading to the in vivo release of hydrogen cyanide.
     * Crystals, mp 214-218 deg C /Hydrobromide/

   from [7]HSDB

   Computed Properties
   Molecular Weight                  243.3871 [g/mol]
   Molecular Formula                 C[17]H[25]N
   XLogP3                            3.6
   H-Bond Donor                      0
   H-Bond Acceptor                   1
   Rotatable Bond Count              2
   Exact Mass                        243.1987
   MonoIsotopic Mass                 243.1987
   Topological Polar Surface Area    3.2
   Heavy Atom Count                  18
   Formal Charge                     0
   Complexity                        242
   Isotope Atom Count                0
   Defined Atom Stereocenter Count   0
   Undefined Atom Stereocenter Count 0
   Defined Bond Stereocenter Count   0
   Undefined Bond Stereocenter Count 0
   Covalently-Bonded Unit Count      1
   Feature 3D Cation Count           1
   Feature 3D Ring Count             3
   Effective Rotor Count             4.4
   Conformer Sampling RMSD           0.6
   CID Conformer Count               [8]5

References

   1. http://toxnet.nlm.nih.gov/cgi-bin/sis/search/r?dbs+hsdb:@term+@rn+@rel+77-10-1
   2. http://toxnet.nlm.nih.gov/cgi-bin/sis/search/r?dbs+hsdb:@term+@rn+@rel+77-10-1
   3. http://toxnet.nlm.nih.gov/cgi-bin/sis/search/r?dbs+hsdb:@term+@rn+@rel+77-10-1
   4. http://toxnet.nlm.nih.gov/cgi-bin/sis/search/r?dbs+hsdb:@term+@rn+@rel+77-10-1
   5. http://toxnet.nlm.nih.gov/cgi-bin/sis/search/r?dbs+hsdb:@term+@rn+@rel+77-10-1
   6. http://toxnet.nlm.nih.gov/cgi-bin/sis/search/r?dbs+hsdb:@term+@rn+@rel+77-10-1
   7. http://toxnet.nlm.nih.gov/cgi-bin/sis/search/r?dbs+hsdb:@term+@rn+@rel+77-10-1
   8. http://pubchem.ncbi.nlm.nih.gov/vw3d/vw3d.cgi?cid=6468
