8673
  -OEChem-06261202592D

 27 26  0     0  0  0  0  0  0999 V2000
    2.8660   -0.5600    0.0000 S   0  0  0  0  0  0  0  0  0  0  0  0
    8.1282   -0.5841    0.0000 S   0  0  0  0  0  0  0  0  0  0  0  0
    2.0000   -2.0600    0.0000 Na  0  3  0  0  0  0  0  0  0  0  0  0
    9.8602   -0.5908    0.0000 Na  0  3  0  0  0  0  0  0  0  0  0  0
    2.8660    1.4400    0.0000 O   0  0  0  0  0  0  0  0  0  0  0  0
    2.0000   -1.0600    0.0000 O   0  5  0  0  0  0  0  0  0  0  0  0
    3.3660   -1.4260    0.0000 O   0  0  0  0  0  0  0  0  0  0  0  0
    2.3660    0.3060    0.0000 O   0  0  0  0  0  0  0  0  0  0  0  0
    8.9923   -1.0875    0.0000 O   0  5  0  0  0  0  0  0  0  0  0  0
    8.6315    0.2799    0.0000 O   0  0  0  0  0  0  0  0  0  0  0  0
    7.6249   -1.4482    0.0000 O   0  0  0  0  0  0  0  0  0  0  0  0
    5.4641   -0.0600    0.0000 C   0  0  0  0  0  0  0  0  0  0  0  0
    5.4641    0.9400    0.0000 C   0  0  0  0  0  0  0  0  0  0  0  0
    3.7320   -0.0600    0.0000 C   0  0  0  0  0  0  0  0  0  0  0  0
    4.5981   -0.5600    0.0000 C   0  0  0  0  0  0  0  0  0  0  0  0
    6.3580   -0.5947    0.0000 C   0  0  0  0  0  0  0  0  0  0  0  0
    7.2641   -0.0808    0.0000 C   0  0  0  0  0  0  0  0  0  0  0  0
    4.5981    1.4400    0.0000 C   0  0  0  0  0  0  0  0  0  0  0  0
    6.3580    1.4747    0.0000 C   0  0  0  0  0  0  0  0  0  0  0  0
    3.7320    0.9400    0.0000 C   0  0  0  0  0  0  0  0  0  0  0  0
    7.2641    0.9608    0.0000 C   0  0  0  0  0  0  0  0  0  0  0  0
    4.5981   -1.1800    0.0000 H   0  0  0  0  0  0  0  0  0  0  0  0
    6.3509   -1.2146    0.0000 H   0  0  0  0  0  0  0  0  0  0  0  0
    4.5981    2.0600    0.0000 H   0  0  0  0  0  0  0  0  0  0  0  0
    6.3509    2.0946    0.0000 H   0  0  0  0  0  0  0  0  0  0  0  0
    7.7998    1.2729    0.0000 H   0  0  0  0  0  0  0  0  0  0  0  0
    2.8660    2.0600    0.0000 H   0  0  0  0  0  0  0  0  0  0  0  0
  1  6  1  0  0  0  0
  1  7  2  0  0  0  0
  1  8  2  0  0  0  0
  1 14  1  0  0  0  0
  2  9  1  0  0  0  0
  2 10  2  0  0  0  0
  2 11  2  0  0  0  0
  2 17  1  0  0  0  0
  5 20  1  0  0  0  0
  5 27  1  0  0  0  0
 12 13  1  0  0  0  0
 12 15  2  0  0  0  0
 12 16  1  0  0  0  0
 13 18  2  0  0  0  0
 13 19  1  0  0  0  0
 14 15  1  0  0  0  0
 14 20  2  0  0  0  0
 15 22  1  0  0  0  0
 16 17  2  0  0  0  0
 16 23  1  0  0  0  0
 17 21  1  0  0  0  0
 18 20  1  0  0  0  0
 18 24  1  0  0  0  0
 19 21  2  0  0  0  0
 19 25  1  0  0  0  0
 21 26  1  0  0  0  0
M  CHG  4   3   1   4   1   6  -1   9  -1
M  END
> <PUBCHEM_COMPOUND_CID>
8673

> <PUBCHEM_COMPOUND_CANONICALIZED>
1

> <PUBCHEM_CACTVS_COMPLEXITY>
501

> <PUBCHEM_CACTVS_HBOND_ACCEPTOR>
7

> <PUBCHEM_CACTVS_HBOND_DONOR>
1

> <PUBCHEM_CACTVS_ROTATABLE_BOND>
0

> <PUBCHEM_CACTVS_SUBSKEYS>
AAADcYBwODBgAAAAAAAAAAAAAAAAAAAAAAAwYAAAAAAAAADBUAAAGgQACAAADASA2AAwB8AAAgKAAiBCAHBCAEAgIAAIiBoGCIgIJiKCERKAcAAkwBEImAeAwLAOsAABgAAQIABgAAMAACBAAAAAAAAAAA==

> <PUBCHEM_IUPAC_OPENEYE_NAME>
disodium 3-hydroxynaphthalene-2,7-disulfonate

> <PUBCHEM_IUPAC_CAS_NAME>
disodium 3-hydroxynaphthalene-2,7-disulfonate

> <PUBCHEM_IUPAC_NAME>
disodium 3-hydroxynaphthalene-2,7-disulfonate

> <PUBCHEM_IUPAC_SYSTEMATIC_NAME>
disodium 3-oxidanylnaphthalene-2,7-disulfonate

> <PUBCHEM_IUPAC_TRADITIONAL_NAME>
disodium 3-hydroxynaphthalene-2,7-disulfonate

> <PUBCHEM_IUPAC_INCHI>
InChI=1S/C10H8O7S2.2Na/c11-9-4-6-1-2-8(18(12,13)14)3-7(6)5-10(9)19(15,16)17;;/h1-5,11H,(H,12,13,14)(H,15,16,17);;/q;2*+1/p-2

> <PUBCHEM_IUPAC_INCHIKEY>
VNEBWJSWMVTSHK-UHFFFAOYSA-L

> <PUBCHEM_EXACT_MASS>
347.935033

> <PUBCHEM_MOLECULAR_FORMULA>
C10H6Na2O7S2

> <PUBCHEM_MOLECULAR_WEIGHT>
348.259979

> <PUBCHEM_OPENEYE_CAN_SMILES>
C1=CC(=CC2=CC(=C(C=C21)O)S(=O)(=O)[O-])S(=O)(=O)[O-].[Na+].[Na+]

> <PUBCHEM_OPENEYE_ISO_SMILES>
C1=CC(=CC2=CC(=C(C=C21)O)S(=O)(=O)[O-])S(=O)(=O)[O-].[Na+].[Na+]

> <PUBCHEM_CACTVS_TPSA>
151

> <PUBCHEM_MONOISOTOPIC_WEIGHT>
347.935033

> <PUBCHEM_TOTAL_CHARGE>
0

> <PUBCHEM_HEAVY_ATOM_COUNT>
21

> <PUBCHEM_ATOM_DEF_STEREO_COUNT>
0

> <PUBCHEM_ATOM_UDEF_STEREO_COUNT>
0

> <PUBCHEM_BOND_DEF_STEREO_COUNT>
0

> <PUBCHEM_BOND_UDEF_STEREO_COUNT>
0

> <PUBCHEM_ISOTOPIC_ATOM_COUNT>
0

> <PUBCHEM_COMPONENT_COUNT>
3

> <PUBCHEM_CACTVS_TAUTO_COUNT>
3

> <PUBCHEM_COORDINATE_TYPE>
1
5
255

> <PUBCHEM_BONDANNOTATIONS>
12  13  8
12  15  8
12  16  8
13  18  8
13  19  8
14  15  8
14  20  8
16  17  8
17  21  8
18  20  8
19  21  8

$$$$

