443033
  -OEChem-07051213002D

 46 47  0     0  0  0  0  0  0999 V2000
    8.9282   -3.3170    0.0000 F   0  0  0  0  0  0  0  0  0  0  0  0
    7.5622   -3.6830    0.0000 F   0  0  0  0  0  0  0  0  0  0  0  0
    8.5622   -1.9510    0.0000 F   0  0  0  0  0  0  0  0  0  0  0  0
    4.5981    0.1830    0.0000 O   0  0  0  0  0  0  0  0  0  0  0  0
    8.0622    2.1830    0.0000 O   0  0  0  0  0  0  0  0  0  0  0  0
    6.3301    3.1830    0.0000 O   0  0  0  0  0  0  0  0  0  0  0  0
    3.7320   -1.3170    0.0000 N   0  0  0  0  0  0  0  0  0  0  0  0
    6.3301   -0.8170    0.0000 C   0  0  0  0  0  0  0  0  0  0  0  0
    5.4641   -1.3170    0.0000 C   0  0  0  0  0  0  0  0  0  0  0  0
    6.3301    0.1830    0.0000 C   0  0  0  0  0  0  0  0  0  0  0  0
    7.1962   -1.3170    0.0000 C   0  0  0  0  0  0  0  0  0  0  0  0
    4.5981   -0.8170    0.0000 C   0  0  0  0  0  0  0  0  0  0  0  0
    7.1962   -2.3170    0.0000 C   0  0  0  0  0  0  0  0  0  0  0  0
    5.4641   -2.3170    0.0000 C   0  0  0  0  0  0  0  0  0  0  0  0
    6.3301   -2.8170    0.0000 C   0  0  0  0  0  0  0  0  0  0  0  0
    2.8660   -0.8170    0.0000 C   0  0  0  0  0  0  0  0  0  0  0  0
    7.1962    0.6830    0.0000 C   0  0  0  0  0  0  0  0  0  0  0  0
    5.4641    0.6830    0.0000 C   0  0  0  0  0  0  0  0  0  0  0  0
    7.1962    1.6830    0.0000 C   0  0  0  0  0  0  0  0  0  0  0  0
    8.0622   -2.8170    0.0000 C   0  0  0  0  0  0  0  0  0  0  0  0
    6.3301    2.1830    0.0000 C   0  0  0  0  0  0  0  0  0  0  0  0
    5.4641    1.6830    0.0000 C   0  0  0  0  0  0  0  0  0  0  0  0
    3.7320   -2.3170    0.0000 C   0  0  0  0  0  0  0  0  0  0  0  0
    2.0000   -1.3170    0.0000 C   0  0  0  0  0  0  0  0  0  0  0  0
    8.0622    3.1830    0.0000 C   0  0  0  0  0  0  0  0  0  0  0  0
    5.4641    3.6830    0.0000 C   0  0  0  0  0  0  0  0  0  0  0  0
    7.7331   -1.0070    0.0000 H   0  0  0  0  0  0  0  0  0  0  0  0
    4.9272   -2.6270    0.0000 H   0  0  0  0  0  0  0  0  0  0  0  0
    6.3301   -3.4370    0.0000 H   0  0  0  0  0  0  0  0  0  0  0  0
    3.2646   -0.3420    0.0000 H   0  0  0  0  0  0  0  0  0  0  0  0
    2.4675   -0.3420    0.0000 H   0  0  0  0  0  0  0  0  0  0  0  0
    7.7331    0.3730    0.0000 H   0  0  0  0  0  0  0  0  0  0  0  0
    4.9272    0.3730    0.0000 H   0  0  0  0  0  0  0  0  0  0  0  0
    4.9272    1.9930    0.0000 H   0  0  0  0  0  0  0  0  0  0  0  0
    3.1120   -2.3170    0.0000 H   0  0  0  0  0  0  0  0  0  0  0  0
    3.7320   -2.9370    0.0000 H   0  0  0  0  0  0  0  0  0  0  0  0
    4.3520   -2.3170    0.0000 H   0  0  0  0  0  0  0  0  0  0  0  0
    1.6900   -0.7801    0.0000 H   0  0  0  0  0  0  0  0  0  0  0  0
    1.4631   -1.6270    0.0000 H   0  0  0  0  0  0  0  0  0  0  0  0
    2.3100   -1.8539    0.0000 H   0  0  0  0  0  0  0  0  0  0  0  0
    8.6822    3.1830    0.0000 H   0  0  0  0  0  0  0  0  0  0  0  0
    8.0622    3.8030    0.0000 H   0  0  0  0  0  0  0  0  0  0  0  0
    7.4422    3.1830    0.0000 H   0  0  0  0  0  0  0  0  0  0  0  0
    5.7741    4.2200    0.0000 H   0  0  0  0  0  0  0  0  0  0  0  0
    4.9272    3.9930    0.0000 H   0  0  0  0  0  0  0  0  0  0  0  0
    5.1541    3.1461    0.0000 H   0  0  0  0  0  0  0  0  0  0  0  0
  1 20  1  0  0  0  0
  2 20  1  0  0  0  0
  3 20  1  0  0  0  0
  4 12  2  0  0  0  0
  5 19  1  0  0  0  0
  5 25  1  0  0  0  0
  6 21  1  0  0  0  0
  6 26  1  0  0  0  0
  7 12  1  0  0  0  0
  7 16  1  0  0  0  0
  7 23  1  0  0  0  0
  8  9  2  0  0  0  0
  8 10  1  0  0  0  0
  8 11  1  0  0  0  0
  9 12  1  0  0  0  0
  9 14  1  0  0  0  0
 10 17  2  0  0  0  0
 10 18  1  0  0  0  0
 11 13  2  0  0  0  0
 11 27  1  0  0  0  0
 13 15  1  0  0  0  0
 13 20  1  0  0  0  0
 14 15  2  0  0  0  0
 14 28  1  0  0  0  0
 15 29  1  0  0  0  0
 16 24  1  0  0  0  0
 16 30  1  0  0  0  0
 16 31  1  0  0  0  0
 17 19  1  0  0  0  0
 17 32  1  0  0  0  0
 18 22  2  0  0  0  0
 18 33  1  0  0  0  0
 19 21  2  0  0  0  0
 21 22  1  0  0  0  0
 22 34  1  0  0  0  0
 23 35  1  0  0  0  0
 23 36  1  0  0  0  0
 23 37  1  0  0  0  0
 24 38  1  0  0  0  0
 24 39  1  0  0  0  0
 24 40  1  0  0  0  0
 25 41  1  0  0  0  0
 25 42  1  0  0  0  0
 25 43  1  0  0  0  0
 26 44  1  0  0  0  0
 26 45  1  0  0  0  0
 26 46  1  0  0  0  0
M  END
> <PUBCHEM_COMPOUND_CID>
443033

> <PUBCHEM_COMPOUND_CANONICALIZED>
1

> <PUBCHEM_CACTVS_COMPLEXITY>
471

> <PUBCHEM_CACTVS_HBOND_ACCEPTOR>
6

> <PUBCHEM_CACTVS_HBOND_DONOR>
0

> <PUBCHEM_CACTVS_ROTATABLE_BOND>
5

> <PUBCHEM_CACTVS_SUBSKEYS>
AAADceB6MYAAAAAAAAAAAAAAAAAAAAAAAAAwYAAAAAAAAAABQAAAHwAAAAAADATBmBYyBoMABACIAiFSEACCCAAkIAAIiAEOjMgNJjKEtRuEMSpkxhGKqYeYyPCO4AADAAAQQADAAAYAACCAAAAAAAAAAA==

> <PUBCHEM_IUPAC_OPENEYE_NAME>
2-(3,4-dimethoxyphenyl)-N-ethyl-N-methyl-4-(trifluoromethyl)benzamide

> <PUBCHEM_IUPAC_CAS_NAME>
2-(3,4-dimethoxyphenyl)-N-ethyl-N-methyl-4-(trifluoromethyl)benzamide

> <PUBCHEM_IUPAC_NAME>
2-(3,4-dimethoxyphenyl)-N-ethyl-N-methyl-4-(trifluoromethyl)benzamide

> <PUBCHEM_IUPAC_SYSTEMATIC_NAME>
2-(3,4-dimethoxyphenyl)-N-ethyl-N-methyl-4-(trifluoromethyl)benzamide

> <PUBCHEM_IUPAC_TRADITIONAL_NAME>
2-(3,4-dimethoxyphenyl)-N-ethyl-N-methyl-4-(trifluoromethyl)benzamide

> <PUBCHEM_IUPAC_INCHI>
InChI=1S/C19H20F3NO3/c1-5-23(2)18(24)14-8-7-13(19(20,21)22)11-15(14)12-6-9-16(25-3)17(10-12)26-4/h6-11H,5H2,1-4H3

> <PUBCHEM_IUPAC_INCHIKEY>
XFOXDUJCOHBXRC-UHFFFAOYSA-N

> <PUBCHEM_XLOGP3_AA>
4.2

> <PUBCHEM_EXACT_MASS>
367.139528

> <PUBCHEM_MOLECULAR_FORMULA>
C19H20F3NO3

> <PUBCHEM_MOLECULAR_WEIGHT>
367.36221

> <PUBCHEM_OPENEYE_CAN_SMILES>
CCN(C)C(=O)C1=C(C=C(C=C1)C(F)(F)F)C2=CC(=C(C=C2)OC)OC

> <PUBCHEM_OPENEYE_ISO_SMILES>
CCN(C)C(=O)C1=C(C=C(C=C1)C(F)(F)F)C2=CC(=C(C=C2)OC)OC

> <PUBCHEM_CACTVS_TPSA>
38.8

> <PUBCHEM_MONOISOTOPIC_WEIGHT>
367.139528

> <PUBCHEM_TOTAL_CHARGE>
0

> <PUBCHEM_HEAVY_ATOM_COUNT>
26

> <PUBCHEM_ATOM_DEF_STEREO_COUNT>
0

> <PUBCHEM_ATOM_UDEF_STEREO_COUNT>
0

> <PUBCHEM_BOND_DEF_STEREO_COUNT>
0

> <PUBCHEM_BOND_UDEF_STEREO_COUNT>
0

> <PUBCHEM_ISOTOPIC_ATOM_COUNT>
0

> <PUBCHEM_COMPONENT_COUNT>
1

> <PUBCHEM_CACTVS_TAUTO_COUNT>
1

> <PUBCHEM_COORDINATE_TYPE>
1
5
255

> <PUBCHEM_BONDANNOTATIONS>
10  17  8
10  18  8
11  13  8
13  15  8
14  15  8
17  19  8
18  22  8
19  21  8
21  22  8
8  11  8
8  9  8
9  14  8

$$$$

