17396393
  -OEChem-06241222562D

 33 34  0     0  0  0  0  0  0999 V2000
    4.2044    2.9081    0.0000 S   0  0  0  0  0  0  0  0  0  0  0  0
    3.7044   -4.6307    0.0000 O   0  0  0  0  0  0  0  0  0  0  0  0
    4.5704   -3.1307    0.0000 N   0  0  0  0  0  0  0  0  0  0  0  0
    2.8954    1.9571    0.0000 N   0  0  0  0  0  0  0  0  0  0  0  0
    2.6166    3.7172    0.0000 N   0  0  0  0  0  0  0  0  0  0  0  0
    3.7044   -1.6307    0.0000 C   0  0  0  0  0  0  0  0  0  0  0  0
    3.7044    0.3693    0.0000 C   0  0  0  0  0  0  0  0  0  0  0  0
    3.7044   -2.6307    0.0000 C   0  0  0  0  0  0  0  0  0  0  0  0
    4.5704   -1.1307    0.0000 C   0  0  0  0  0  0  0  0  0  0  0  0
    2.8384   -1.1307    0.0000 C   0  0  0  0  0  0  0  0  0  0  0  0
    4.5704   -0.1307    0.0000 C   0  0  0  0  0  0  0  0  0  0  0  0
    2.8384   -0.1307    0.0000 C   0  0  0  0  0  0  0  0  0  0  0  0
    3.7044    1.3693    0.0000 C   0  0  0  0  0  0  0  0  0  0  0  0
    4.5134    1.9571    0.0000 C   0  0  0  0  0  0  0  0  0  0  0  0
    3.2044    2.9081    0.0000 C   0  0  0  0  0  0  0  0  0  0  0  0
    4.5704   -4.1307    0.0000 C   0  0  0  0  0  0  0  0  0  0  0  0
    5.4364   -4.6307    0.0000 C   0  0  0  0  0  0  0  0  0  0  0  0
    3.0233    4.6307    0.0000 C   0  0  0  0  0  0  0  0  0  0  0  0
    3.0938   -2.5230    0.0000 H   0  0  0  0  0  0  0  0  0  0  0  0
    3.4923   -3.2133    0.0000 H   0  0  0  0  0  0  0  0  0  0  0  0
    5.1074   -1.4407    0.0000 H   0  0  0  0  0  0  0  0  0  0  0  0
    2.3014   -1.4407    0.0000 H   0  0  0  0  0  0  0  0  0  0  0  0
    5.1074    0.1793    0.0000 H   0  0  0  0  0  0  0  0  0  0  0  0
    2.3014    0.1793    0.0000 H   0  0  0  0  0  0  0  0  0  0  0  0
    5.1074   -2.8207    0.0000 H   0  0  0  0  0  0  0  0  0  0  0  0
    5.1031    1.7655    0.0000 H   0  0  0  0  0  0  0  0  0  0  0  0
    2.0000    3.6524    0.0000 H   0  0  0  0  0  0  0  0  0  0  0  0
    5.1264   -5.1676    0.0000 H   0  0  0  0  0  0  0  0  0  0  0  0
    5.9734   -4.9407    0.0000 H   0  0  0  0  0  0  0  0  0  0  0  0
    5.7464   -4.0938    0.0000 H   0  0  0  0  0  0  0  0  0  0  0  0
    3.5897    4.3785    0.0000 H   0  0  0  0  0  0  0  0  0  0  0  0
    3.2755    5.1971    0.0000 H   0  0  0  0  0  0  0  0  0  0  0  0
    2.4569    4.8829    0.0000 H   0  0  0  0  0  0  0  0  0  0  0  0
  1 14  1  0  0  0  0
  1 15  1  0  0  0  0
  2 16  2  0  0  0  0
  3  8  1  0  0  0  0
  3 16  1  0  0  0  0
  3 25  1  0  0  0  0
  4 13  1  0  0  0  0
  4 15  2  0  0  0  0
  5 15  1  0  0  0  0
  5 18  1  0  0  0  0
  5 27  1  0  0  0  0
  6  8  1  0  0  0  0
  6  9  2  0  0  0  0
  6 10  1  0  0  0  0
  7 11  2  0  0  0  0
  7 12  1  0  0  0  0
  7 13  1  0  0  0  0
  8 19  1  0  0  0  0
  8 20  1  0  0  0  0
  9 11  1  0  0  0  0
  9 21  1  0  0  0  0
 10 12  2  0  0  0  0
 10 22  1  0  0  0  0
 11 23  1  0  0  0  0
 12 24  1  0  0  0  0
 13 14  2  0  0  0  0
 14 26  1  0  0  0  0
 16 17  1  0  0  0  0
 17 28  1  0  0  0  0
 17 29  1  0  0  0  0
 17 30  1  0  0  0  0
 18 31  1  0  0  0  0
 18 32  1  0  0  0  0
 18 33  1  0  0  0  0
M  END
> <PUBCHEM_COMPOUND_CID>
17396393

> <PUBCHEM_COMPOUND_CANONICALIZED>
1

> <PUBCHEM_CACTVS_COMPLEXITY>
279

> <PUBCHEM_CACTVS_HBOND_ACCEPTOR>
4

> <PUBCHEM_CACTVS_HBOND_DONOR>
2

> <PUBCHEM_CACTVS_ROTATABLE_BOND>
4

> <PUBCHEM_CACTVS_SUBSKEYS>
AAADccBzIABAAAAAAAAAAAAAAAAAAWAAAAAwAAAAAAAAAAABwAAAHgQQAAAADAjF3gSzkZLIEAisAyVydACC8KlhCjkJiLQ4JJiIIKKgkRGEIAholgKIiCcQgMAOQAAAAAAAAACAAAAAAAAAAAAAAAAAAA==

> <PUBCHEM_IUPAC_OPENEYE_NAME>
N-[[4-[2-(methylamino)thiazol-4-yl]phenyl]methyl]acetamide

> <PUBCHEM_IUPAC_CAS_NAME>
N-[[4-[2-(methylamino)-4-thiazolyl]phenyl]methyl]acetamide

> <PUBCHEM_IUPAC_NAME>
N-[[4-[2-(methylamino)-1,3-thiazol-4-yl]phenyl]methyl]acetamide

> <PUBCHEM_IUPAC_SYSTEMATIC_NAME>
N-[[4-[2-(methylamino)-1,3-thiazol-4-yl]phenyl]methyl]ethanamide

> <PUBCHEM_IUPAC_TRADITIONAL_NAME>
N-[4-[2-(methylamino)thiazol-4-yl]benzyl]acetamide

> <PUBCHEM_IUPAC_INCHI>
InChI=1S/C13H15N3OS/c1-9(17)15-7-10-3-5-11(6-4-10)12-8-18-13(14-2)16-12/h3-6,8H,7H2,1-2H3,(H,14,16)(H,15,17)

> <PUBCHEM_IUPAC_INCHIKEY>
FCMHBBZQKWTDAH-UHFFFAOYSA-N

> <PUBCHEM_XLOGP3_AA>
2

> <PUBCHEM_EXACT_MASS>
261.093583

> <PUBCHEM_MOLECULAR_FORMULA>
C13H15N3OS

> <PUBCHEM_MOLECULAR_WEIGHT>
261.3427

> <PUBCHEM_OPENEYE_CAN_SMILES>
CC(=O)NCC1=CC=C(C=C1)C2=CSC(=N2)NC

> <PUBCHEM_OPENEYE_ISO_SMILES>
CC(=O)NCC1=CC=C(C=C1)C2=CSC(=N2)NC

> <PUBCHEM_CACTVS_TPSA>
82.3

> <PUBCHEM_MONOISOTOPIC_WEIGHT>
261.093583

> <PUBCHEM_TOTAL_CHARGE>
0

> <PUBCHEM_HEAVY_ATOM_COUNT>
18

> <PUBCHEM_ATOM_DEF_STEREO_COUNT>
0

> <PUBCHEM_ATOM_UDEF_STEREO_COUNT>
0

> <PUBCHEM_BOND_DEF_STEREO_COUNT>
0

> <PUBCHEM_BOND_UDEF_STEREO_COUNT>
0

> <PUBCHEM_ISOTOPIC_ATOM_COUNT>
0

> <PUBCHEM_COMPONENT_COUNT>
1

> <PUBCHEM_CACTVS_TAUTO_COUNT>
4

> <PUBCHEM_COORDINATE_TYPE>
1
5
255

> <PUBCHEM_BONDANNOTATIONS>
1  14  8
1  15  8
10  12  8
13  14  8
4  13  8
4  15  8
6  10  8
6  9  8
7  11  8
7  12  8
9  11  8

$$$$

