441751
  -OEChem-07051212562D

 63 68  0     1  0  0  0  0  0999 V2000
    3.4578    1.3739    0.0000 O   0  0  0  0  0  0  0  0  0  0  0  0
    8.1667   -0.2085    0.0000 O   0  0  0  0  0  0  0  0  0  0  0  0
    9.2466    1.1457    0.0000 O   0  0  0  0  0  0  0  0  0  0  0  0
    2.8412   -0.2625    0.0000 N   0  0  3  0  0  0  0  0  0  0  0  0
    4.7134   -0.1584    0.0000 C   0  0  2  0  0  0  0  0  0  0  0  0
    5.5830    0.4150    0.0000 C   0  0  1  0  0  0  0  0  0  0  0  0
    6.4839   -0.0189    0.0000 C   0  0  1  0  0  0  0  0  0  0  0  0
    4.7832   -1.1977    0.0000 C   0  0  1  0  0  0  0  0  0  0  0  0
    3.8915   -1.8158    0.0000 C   0  0  2  0  0  0  0  0  0  0  0  0
    3.7470    0.3348    0.0000 C   0  0  3  0  0  0  0  0  0  0  0  0
    6.5778   -1.0562    0.0000 C   0  0  0  0  0  0  0  0  0  0  0  0
    5.7217   -1.6496    0.0000 C   0  0  0  0  0  0  0  0  0  0  0  0
    6.1940   -0.5188    0.0000 C   0  0  0  0  0  0  0  0  0  0  0  0
    6.3771    1.1579    0.0000 C   0  0  0  0  0  0  0  0  0  0  0  0
    5.3604    1.3900    0.0000 C   0  0  0  0  0  0  0  0  0  0  0  0
    7.3849    0.4150    0.0000 C   0  0  1  0  0  0  0  0  0  0  0  0
    6.9839    2.1718    0.0000 C   0  0  1  0  0  0  0  0  0  0  0  0
    2.9139   -1.3450    0.0000 C   0  0  0  0  0  0  0  0  0  0  0  0
    5.0745   -2.7762    0.0000 C   0  0  0  0  0  0  0  0  0  0  0  0
    5.9839    2.1718    0.0000 C   0  0  0  0  0  0  0  0  0  0  0  0
    6.4022   -2.0284    0.0000 C   0  0  0  0  0  0  0  0  0  0  0  0
    7.6074    1.3900    0.0000 C   0  0  0  0  0  0  0  0  0  0  0  0
    3.3558   -2.6602    0.0000 C   0  0  0  0  0  0  0  0  0  0  0  0
    2.0000    0.4126    0.0000 C   0  0  0  0  0  0  0  0  0  0  0  0
    2.3803    1.4219    0.0000 C   0  0  0  0  0  0  0  0  0  0  0  0
    8.5824    1.6125    0.0000 C   0  0  0  0  0  0  0  0  0  0  0  0
    9.0976    0.1569    0.0000 C   0  0  0  0  0  0  0  0  0  0  0  0
    9.8794   -0.4666    0.0000 C   0  0  0  0  0  0  0  0  0  0  0  0
    4.8171    0.7838    0.0000 H   0  0  0  0  0  0  0  0  0  0  0  0
    4.8402   -2.0458    0.0000 H   0  0  0  0  0  0  0  0  0  0  0  0
    4.2271    0.7272    0.0000 H   0  0  0  0  0  0  0  0  0  0  0  0
    6.8386   -1.6187    0.0000 H   0  0  0  0  0  0  0  0  0  0  0  0
    7.1766   -0.8956    0.0000 H   0  0  0  0  0  0  0  0  0  0  0  0
    5.3611   -2.1540    0.0000 H   0  0  0  0  0  0  0  0  0  0  0  0
    6.1569   -2.0912    0.0000 H   0  0  0  0  0  0  0  0  0  0  0  0
    6.8139   -0.5115    0.0000 H   0  0  0  0  0  0  0  0  0  0  0  0
    6.2642    0.0972    0.0000 H   0  0  0  0  0  0  0  0  0  0  0  0
    5.9693    1.6249    0.0000 H   0  0  0  0  0  0  0  0  0  0  0  0
    5.8070    0.9141    0.0000 H   0  0  0  0  0  0  0  0  0  0  0  0
    4.9739    1.8747    0.0000 H   0  0  0  0  0  0  0  0  0  0  0  0
    4.8018    1.1209    0.0000 H   0  0  0  0  0  0  0  0  0  0  0  0
    7.3155   -0.2011    0.0000 H   0  0  0  0  0  0  0  0  0  0  0  0
    7.1731    3.0005    0.0000 H   0  0  0  0  0  0  0  0  0  0  0  0
    2.2973   -1.2801    0.0000 H   0  0  0  0  0  0  0  0  0  0  0  0
    2.7445   -1.9414    0.0000 H   0  0  0  0  0  0  0  0  0  0  0  0
    4.6267   -3.2050    0.0000 H   0  0  0  0  0  0  0  0  0  0  0  0
    5.4439   -3.2742    0.0000 H   0  0  0  0  0  0  0  0  0  0  0  0
    6.1219    2.7762    0.0000 H   0  0  0  0  0  0  0  0  0  0  0  0
    5.4253    2.4408    0.0000 H   0  0  0  0  0  0  0  0  0  0  0  0
    6.6366   -2.6024    0.0000 H   0  0  0  0  0  0  0  0  0  0  0  0
    7.0010   -1.8676    0.0000 H   0  0  0  0  0  0  0  0  0  0  0  0
    2.8322   -2.3280    0.0000 H   0  0  0  0  0  0  0  0  0  0  0  0
    3.0236   -3.1837    0.0000 H   0  0  0  0  0  0  0  0  0  0  0  0
    3.8793   -2.9923    0.0000 H   0  0  0  0  0  0  0  0  0  0  0  0
    1.4460    0.6910    0.0000 H   0  0  0  0  0  0  0  0  0  0  0  0
    1.6649   -0.1091    0.0000 H   0  0  0  0  0  0  0  0  0  0  0  0
    2.4728    2.0349    0.0000 H   0  0  0  0  0  0  0  0  0  0  0  0
    1.7804    1.5783    0.0000 H   0  0  0  0  0  0  0  0  0  0  0  0
    9.0041    1.1580    0.0000 H   0  0  0  0  0  0  0  0  0  0  0  0
    8.7651    2.2049    0.0000 H   0  0  0  0  0  0  0  0  0  0  0  0
    9.4929   -0.9513    0.0000 H   0  0  0  0  0  0  0  0  0  0  0  0
   10.3642   -0.8532    0.0000 H   0  0  0  0  0  0  0  0  0  0  0  0
   10.2660    0.0181    0.0000 H   0  0  0  0  0  0  0  0  0  0  0  0
  1 10  1  0  0  0  0
  1 25  1  0  0  0  0
 16  2  1  1  0  0  0
  2 27  1  0  0  0  0
  3 27  2  0  0  0  0
  4 10  1  0  0  0  0
  4 18  1  0  0  0  0
  4 24  1  0  0  0  0
  5  6  1  0  0  0  0
  5  8  1  0  0  0  0
  5 10  1  0  0  0  0
  5 13  1  1  0  0  0
  6  7  1  0  0  0  0
  6 15  1  0  0  0  0
  6 29  1  1  0  0  0
  7 11  1  6  0  0  0
  7 14  1  0  0  0  0
  7 16  1  0  0  0  0
  8  9  1  0  0  0  0
  8 12  1  0  0  0  0
  8 30  1  1  0  0  0
  9 18  1  0  0  0  0
  9 19  1  0  0  0  0
  9 23  1  6  0  0  0
 10 31  1  0  0  0  0
 11 12  1  0  0  0  0
 11 32  1  0  0  0  0
 11 33  1  0  0  0  0
 12 34  1  0  0  0  0
 12 35  1  0  0  0  0
 13 21  1  0  0  0  0
 13 36  1  0  0  0  0
 13 37  1  0  0  0  0
 14 17  1  0  0  0  0
 14 38  1  0  0  0  0
 14 39  1  0  0  0  0
 15 20  1  0  0  0  0
 15 40  1  0  0  0  0
 15 41  1  0  0  0  0
 16 22  1  0  0  0  0
 16 42  1  0  0  0  0
 17 20  1  0  0  0  0
 17 22  1  0  0  0  0
 17 43  1  6  0  0  0
 18 44  1  0  0  0  0
 18 45  1  0  0  0  0
 19 21  1  0  0  0  0
 19 46  1  0  0  0  0
 19 47  1  0  0  0  0
 20 48  1  0  0  0  0
 20 49  1  0  0  0  0
 21 50  1  0  0  0  0
 21 51  1  0  0  0  0
 22 26  2  0  0  0  0
 23 52  1  0  0  0  0
 23 53  1  0  0  0  0
 23 54  1  0  0  0  0
 24 25  1  0  0  0  0
 24 55  1  0  0  0  0
 24 56  1  0  0  0  0
 25 57  1  0  0  0  0
 25 58  1  0  0  0  0
 26 59  1  0  0  0  0
 26 60  1  0  0  0  0
 27 28  1  0  0  0  0
 28 61  1  0  0  0  0
 28 62  1  0  0  0  0
 28 63  1  0  0  0  0
M  END
> <PUBCHEM_COMPOUND_CID>
441751

> <PUBCHEM_COMPOUND_CANONICALIZED>
1

> <PUBCHEM_CACTVS_COMPLEXITY>
735

> <PUBCHEM_CACTVS_HBOND_ACCEPTOR>
4

> <PUBCHEM_CACTVS_HBOND_DONOR>
0

> <PUBCHEM_CACTVS_ROTATABLE_BOND>
2

> <PUBCHEM_CACTVS_SUBSKEYS>
AAADcfB6MAAAAAAAAAAAAAAAAAAAAeIAAAA8YMEABgAWAFjwAAAAHgAAAAAADxThgAYCCAMABACIAgDSCAAAAAAgAAAAAAAIAAgCBAIAoQAPAAAEgACQIAGQ8P4PgAAAAAAAAACAAAQAACAAAYAABAAAAA==

> <PUBCHEM_IUPAC_INCHI>
InChI=1S/C24H35NO3/c1-15-17-5-6-19-23(13-17,20(15)28-16(2)26)10-7-18-22(3)8-4-9-24(18,19)21-25(14-22)11-12-27-21/h17-21H,1,4-14H2,2-3H3/t17-,18-,19-,20-,21?,22+,23-,24+/m1/s1

> <PUBCHEM_IUPAC_INCHIKEY>
YHPDTHOCMSACJY-ZSZSEDCISA-N

> <PUBCHEM_XLOGP3_AA>
4.2

> <PUBCHEM_EXACT_MASS>
385.261694

> <PUBCHEM_MOLECULAR_FORMULA>
C24H35NO3

> <PUBCHEM_MOLECULAR_WEIGHT>
385.5396

> <PUBCHEM_OPENEYE_CAN_SMILES>
CC(=O)OC1C(=C)C2CCC3C1(C2)CCC4C35CCCC4(CN6C5OCC6)C

> <PUBCHEM_OPENEYE_ISO_SMILES>
CC(=O)O[C@@H]1C(=C)[C@@H]2CC[C@@H]3[C@]1(C2)CC[C@H]4[C@@]35CCC[C@]4(CN6C5OCC6)C

> <PUBCHEM_CACTVS_TPSA>
38.8

> <PUBCHEM_MONOISOTOPIC_WEIGHT>
385.261694

> <PUBCHEM_TOTAL_CHARGE>
0

> <PUBCHEM_HEAVY_ATOM_COUNT>
28

> <PUBCHEM_ATOM_DEF_STEREO_COUNT>
7

> <PUBCHEM_ATOM_UDEF_STEREO_COUNT>
1

> <PUBCHEM_BOND_DEF_STEREO_COUNT>
0

> <PUBCHEM_BOND_UDEF_STEREO_COUNT>
0

> <PUBCHEM_ISOTOPIC_ATOM_COUNT>
0

> <PUBCHEM_COMPONENT_COUNT>
1

> <PUBCHEM_CACTVS_TAUTO_COUNT>
1

> <PUBCHEM_COORDINATE_TYPE>
1
5
255

> <PUBCHEM_BONDANNOTATIONS>
10  1  3
17  43  6
16  2  5
5  13  5
6  29  5
7  11  6
8  30  5
9  23  6

$$$$

