   Color/Form

     * Long, orthorhombic prisms from acetone
     * Rhombic needles (dilute ethyl alcohol)
     * White crystals or powder

   from [1]HSDB

   Melting Point
        118.5 deg C
   from [2]HSDB

   Dissociation Constants

     * pKa = 4.35
     * pKa = 9.43

   from [3]HSDB

   Octanol/Water Partition Coefficient
        log Kow = 1.83
   from [4]HSDB

   pH
        pH of 0.0015 molar soln: 10.0
   from [5]HSDB

   Solubilities

     * 1 g in: ... 2 mL alcohol, 25 mL ether, 27 mL glycerol, 1 mL
       chloroform; also sol in benzene, in dil acids
     * Very soluble in ethanol; slightly soluble in chloroform; insoluble
       in ethyl ether
     * In water, 2,200 mg/l @ 25 deg C

   from [6]HSDB

   Spectral Properties

     * MAX ABSORPTION (METHYL ALCOHOL): 252 NM (LOG E= 2.22); 258 NM (LOG
       E= 2.29); 262 NM (LOG E= 2.21)
     * Optically inactive (but usually contains levorotatory hyoscyamine)
     * IR: 5078 (Coblentz Society Spectral Collection)
     * MASS: 72062 (NITS/EPA/MSDC Mass Spectral Database, 1990 version)
     * UV: 5999 (Sadtler Research Laboratories spectral collection)
     * 1H NMR: 2070 (Sadtler Research Laboratories spectral collection)
     * Intense mass spectral peaks: 83 m/z, 94 m/z, 124 m/z, 140 m/z, 289
       m/z

   from [7]HSDB

   Other Chemical/Physical Properties

     * COLORLESS CRYSTALS OR WHITE CRYSTALLINE POWDER; ODORLESS;
       SOLUBILITIES: 1 G IN 0.5 ML WATER, 5 ML ALCOHOL, 2.5 ML GLYCERIN,
       2.5 ML BOILING ALCOHOL; EFFLORESCES IN DRY AIR; WHEN DRIED @ 120
       DEG C FOR 4 HR MELTS @ TEMP NOT BELOW 187 DEG C; AQ SOLN IS NEUTRAL
       OR FAINTLY ACID TO LITMUS /ATROPINE SULFATE/
     * Sublimes in high vacuum at 93-110 deg C
     * NMR: 9889 (Sadtler Research Laboratories Spectral Collection)
       /Atropine hydrochloride/
     * Crystals, mp 222-223 deg C. Sol in 1 part water; slightly sol in
       alc. Almost insol in chloroformm ether. /Methylbromide/
     * Crystals, mp 163 deg C. Freely sol in water or alc, very slightly
       in chloroform, ether. /Methylnitrate/
     * Granules or powder, mp 190-194 deg C. Almost inactive optically.
       Very bitter. pH approx 5.4. One gram dissolves in 0.4 mL water; 5
       mL cold, 2.5 mL boil. alc; in 2.5 mL glycerol, 420 mL chloroform,
       3000 mL ether. ... Incompatible with alkalies, tannin, salts of
       mercury or gold, vegetable decoctions or infusions, borax,
       bromides, iodides, benzoates. /Sulfate monohydrate/
     * Crystalline powder, mp 127-128 deg C, dec 135 deg C. Very
       hygroscopic. Soluble in alc, chloroform. Practically insol in
       ether, /N-oxide/
     * MP: 108.5 deg C. Specific rotation: -21 deg @ 20 deg C/D (ethanol)
       /(-)-form/

   from [8]HSDB

   Computed Properties
   Molecular Weight                  289.36942 [g/mol]
   Molecular Formula                 C[17]H[23]NO[3]
   XLogP3                            1.8
   H-Bond Donor                      1
   H-Bond Acceptor                   4
   Rotatable Bond Count              5
   Exact Mass                        289.167794
   MonoIsotopic Mass                 289.167794
   Topological Polar Surface Area    49.8
   Heavy Atom Count                  21
   Formal Charge                     0
   Complexity                        353
   Isotope Atom Count                0
   Defined Atom Stereocenter Count   2
   Undefined Atom Stereocenter Count 1
   Defined Bond Stereocenter Count   0
   Undefined Bond Stereocenter Count 0
   Covalently-Bonded Unit Count      1
   Feature 3D Acceptor Count         2
   Feature 3D Donor Count            1
   Feature 3D Cation Count           1
   Feature 3D Ring Count             2
   Effective Rotor Count             6.2
   Conformer Sampling RMSD           0.8
   CID Conformer Count               [9]116

References

   1. http://toxnet.nlm.nih.gov/cgi-bin/sis/search/r?dbs+hsdb:@term+@rn+@rel+51-55-8
   2. http://toxnet.nlm.nih.gov/cgi-bin/sis/search/r?dbs+hsdb:@term+@rn+@rel+51-55-8
   3. http://toxnet.nlm.nih.gov/cgi-bin/sis/search/r?dbs+hsdb:@term+@rn+@rel+51-55-8
   4. http://toxnet.nlm.nih.gov/cgi-bin/sis/search/r?dbs+hsdb:@term+@rn+@rel+51-55-8
   5. http://toxnet.nlm.nih.gov/cgi-bin/sis/search/r?dbs+hsdb:@term+@rn+@rel+51-55-8
   6. http://toxnet.nlm.nih.gov/cgi-bin/sis/search/r?dbs+hsdb:@term+@rn+@rel+51-55-8
   7. http://toxnet.nlm.nih.gov/cgi-bin/sis/search/r?dbs+hsdb:@term+@rn+@rel+51-55-8
   8. http://toxnet.nlm.nih.gov/cgi-bin/sis/search/r?dbs+hsdb:@term+@rn+@rel+51-55-8
   9. http://pubchem.ncbi.nlm.nih.gov/vw3d/vw3d.cgi?cid=174174
