17396020
  -OEChem-06241222532D

 56 59  0     1  0  0  0  0  0999 V2000
    2.8090   -5.2888    0.0000 S   0  0  0  0  0  0  0  0  0  0  0  0
    2.2212   -6.0979    0.0000 O   0  0  0  0  0  0  0  0  0  0  0  0
    3.3968   -6.0979    0.0000 O   0  0  0  0  0  0  0  0  0  0  0  0
    3.5308    0.0979    0.0000 O   0  0  0  0  0  0  0  0  0  0  0  0
    5.2628    1.0979    0.0000 O   0  0  0  0  0  0  0  0  0  0  0  0
    6.9949    4.0979    0.0000 O   0  0  0  0  0  0  0  0  0  0  0  0
    3.8968   -2.9410    0.0000 N   0  0  0  0  0  0  0  0  0  0  0  0
    3.3090   -3.7500    0.0000 C   0  0  3  0  0  0  0  0  0  0  0  0
    3.6180   -4.7011    0.0000 C   0  0  0  0  0  0  0  0  0  0  0  0
    2.3090   -3.7500    0.0000 C   0  0  0  0  0  0  0  0  0  0  0  0
    2.0000   -4.7011    0.0000 C   0  0  0  0  0  0  0  0  0  0  0  0
    3.5878   -1.9899    0.0000 C   0  0  0  0  0  0  0  0  0  0  0  0
    4.8968   -2.9410    0.0000 C   0  0  0  0  0  0  0  0  0  0  0  0
    4.3968   -1.4021    0.0000 C   0  0  0  0  0  0  0  0  0  0  0  0
    5.2058   -1.9899    0.0000 C   0  0  0  0  0  0  0  0  0  0  0  0
    2.6367   -1.6809    0.0000 C   0  0  0  0  0  0  0  0  0  0  0  0
    5.4846   -3.7500    0.0000 C   0  0  0  0  0  0  0  0  0  0  0  0
    4.3968   -0.4021    0.0000 C   0  0  0  0  0  0  0  0  0  0  0  0
    5.2628    0.0979    0.0000 C   0  0  0  0  0  0  0  0  0  0  0  0
    6.1288    1.5979    0.0000 C   0  0  0  0  0  0  0  0  0  0  0  0
    6.1288    2.5979    0.0000 C   0  0  0  0  0  0  0  0  0  0  0  0
    6.9949    1.0979    0.0000 C   0  0  0  0  0  0  0  0  0  0  0  0
    6.9949    3.0979    0.0000 C   0  0  0  0  0  0  0  0  0  0  0  0
    7.8609    1.5979    0.0000 C   0  0  0  0  0  0  0  0  0  0  0  0
    7.8609    2.5979    0.0000 C   0  0  0  0  0  0  0  0  0  0  0  0
    7.8609    4.5979    0.0000 C   0  0  0  0  0  0  0  0  0  0  0  0
    8.7269    4.0979    0.0000 C   0  0  0  0  0  0  0  0  0  0  0  0
    7.8609    5.5979    0.0000 C   0  0  0  0  0  0  0  0  0  0  0  0
    9.5930    4.5979    0.0000 C   0  0  0  0  0  0  0  0  0  0  0  0
    8.7269    6.0979    0.0000 C   0  0  0  0  0  0  0  0  0  0  0  0
    9.5930    5.5979    0.0000 C   0  0  0  0  0  0  0  0  0  0  0  0
    3.0275   -3.1976    0.0000 H   0  0  0  0  0  0  0  0  0  0  0  0
    3.9280   -5.2380    0.0000 H   0  0  0  0  0  0  0  0  0  0  0  0
    4.1844   -4.4489    0.0000 H   0  0  0  0  0  0  0  0  0  0  0  0
    2.3738   -3.1334    0.0000 H   0  0  0  0  0  0  0  0  0  0  0  0
    1.7026   -3.6211    0.0000 H   0  0  0  0  0  0  0  0  0  0  0  0
    1.4336   -4.4489    0.0000 H   0  0  0  0  0  0  0  0  0  0  0  0
    1.6900   -5.2380    0.0000 H   0  0  0  0  0  0  0  0  0  0  0  0
    5.7955   -1.7983    0.0000 H   0  0  0  0  0  0  0  0  0  0  0  0
    2.8283   -1.0912    0.0000 H   0  0  0  0  0  0  0  0  0  0  0  0
    2.0471   -1.4893    0.0000 H   0  0  0  0  0  0  0  0  0  0  0  0
    2.4451   -2.2706    0.0000 H   0  0  0  0  0  0  0  0  0  0  0  0
    4.9830   -4.1144    0.0000 H   0  0  0  0  0  0  0  0  0  0  0  0
    5.8490   -4.2516    0.0000 H   0  0  0  0  0  0  0  0  0  0  0  0
    5.9862   -3.3856    0.0000 H   0  0  0  0  0  0  0  0  0  0  0  0
    5.4749   -0.4848    0.0000 H   0  0  0  0  0  0  0  0  0  0  0  0
    5.8734    0.2055    0.0000 H   0  0  0  0  0  0  0  0  0  0  0  0
    5.5919    2.9079    0.0000 H   0  0  0  0  0  0  0  0  0  0  0  0
    6.9949    0.4779    0.0000 H   0  0  0  0  0  0  0  0  0  0  0  0
    8.3978    1.2879    0.0000 H   0  0  0  0  0  0  0  0  0  0  0  0
    8.3978    2.9079    0.0000 H   0  0  0  0  0  0  0  0  0  0  0  0
    8.7269    3.4779    0.0000 H   0  0  0  0  0  0  0  0  0  0  0  0
    7.3240    5.9079    0.0000 H   0  0  0  0  0  0  0  0  0  0  0  0
   10.1299    4.2879    0.0000 H   0  0  0  0  0  0  0  0  0  0  0  0
    8.7269    6.7179    0.0000 H   0  0  0  0  0  0  0  0  0  0  0  0
   10.1299    5.9079    0.0000 H   0  0  0  0  0  0  0  0  0  0  0  0
  1  2  2  0  0  0  0
  1  3  2  0  0  0  0
  1  9  1  0  0  0  0
  1 11  1  0  0  0  0
  4 18  2  0  0  0  0
  5 19  1  0  0  0  0
  5 20  1  0  0  0  0
  6 23  1  0  0  0  0
  6 26  1  0  0  0  0
  7  8  1  0  0  0  0
  7 12  1  0  0  0  0
  7 13  1  0  0  0  0
  8  9  1  0  0  0  0
  8 10  1  0  0  0  0
  8 32  1  0  0  0  0
  9 33  1  0  0  0  0
  9 34  1  0  0  0  0
 10 11  1  0  0  0  0
 10 35  1  0  0  0  0
 10 36  1  0  0  0  0
 11 37  1  0  0  0  0
 11 38  1  0  0  0  0
 12 14  2  0  0  0  0
 12 16  1  0  0  0  0
 13 15  2  0  0  0  0
 13 17  1  0  0  0  0
 14 15  1  0  0  0  0
 14 18  1  0  0  0  0
 15 39  1  0  0  0  0
 16 40  1  0  0  0  0
 16 41  1  0  0  0  0
 16 42  1  0  0  0  0
 17 43  1  0  0  0  0
 17 44  1  0  0  0  0
 17 45  1  0  0  0  0
 18 19  1  0  0  0  0
 19 46  1  0  0  0  0
 19 47  1  0  0  0  0
 20 21  2  0  0  0  0
 20 22  1  0  0  0  0
 21 23  1  0  0  0  0
 21 48  1  0  0  0  0
 22 24  2  0  0  0  0
 22 49  1  0  0  0  0
 23 25  2  0  0  0  0
 24 25  1  0  0  0  0
 24 50  1  0  0  0  0
 25 51  1  0  0  0  0
 26 27  2  0  0  0  0
 26 28  1  0  0  0  0
 27 29  1  0  0  0  0
 27 52  1  0  0  0  0
 28 30  2  0  0  0  0
 28 53  1  0  0  0  0
 29 31  2  0  0  0  0
 29 54  1  0  0  0  0
 30 31  1  0  0  0  0
 30 55  1  0  0  0  0
 31 56  1  0  0  0  0
M  END
> <PUBCHEM_COMPOUND_CID>
17396020

> <PUBCHEM_COMPOUND_CANONICALIZED>
1

> <PUBCHEM_CACTVS_COMPLEXITY>
714

> <PUBCHEM_CACTVS_HBOND_ACCEPTOR>
5

> <PUBCHEM_CACTVS_HBOND_DONOR>
0

> <PUBCHEM_CACTVS_ROTATABLE_BOND>
7

> <PUBCHEM_CACTVS_SUBSKEYS>
AAADceB6OABAAAAAAAAAAAAAAAAAAWJAAAAwYAAAAAAAAAAB0AAAHgQAAAAADCzl3gayhpMMFAqoA6RyRHLCiCAlIjAI2CF+bNgMJ/rktZ+GOajlwBXo6ce8cA8OAAAACAAAAAAAAAAQAAAAAAAAAAAAAA==

> <PUBCHEM_IUPAC_OPENEYE_NAME>
1-[1-(1,1-dioxothiolan-3-yl)-2,5-dimethyl-pyrrol-3-yl]-2-(3-phenoxyphenoxy)ethanone

> <PUBCHEM_IUPAC_CAS_NAME>
1-[1-(1,1-dioxo-3-thiolanyl)-2,5-dimethyl-3-pyrrolyl]-2-(3-phenoxyphenoxy)ethanone

> <PUBCHEM_IUPAC_NAME>
1-[1-(1,1-dioxothiolan-3-yl)-2,5-dimethylpyrrol-3-yl]-2-(3-phenoxyphenoxy)ethanone

> <PUBCHEM_IUPAC_SYSTEMATIC_NAME>
1-[1-[1,1-bis(oxidanylidene)thiolan-3-yl]-2,5-dimethyl-pyrrol-3-yl]-2-(3-phenoxyphenoxy)ethanone

> <PUBCHEM_IUPAC_TRADITIONAL_NAME>
1-[1-(1,1-diketothiolan-3-yl)-2,5-dimethyl-pyrrol-3-yl]-2-(3-phenoxyphenoxy)ethanone

> <PUBCHEM_IUPAC_INCHI>
InChI=1S/C24H25NO5S/c1-17-13-23(18(2)25(17)19-11-12-31(27,28)16-19)24(26)15-29-21-9-6-10-22(14-21)30-20-7-4-3-5-8-20/h3-10,13-14,19H,11-12,15-16H2,1-2H3

> <PUBCHEM_IUPAC_INCHIKEY>
TWLHQTGGIKXIBV-UHFFFAOYSA-N

> <PUBCHEM_XLOGP3_AA>
3.8

> <PUBCHEM_EXACT_MASS>
439.145344

> <PUBCHEM_MOLECULAR_FORMULA>
C24H25NO5S

> <PUBCHEM_MOLECULAR_WEIGHT>
439.524

> <PUBCHEM_OPENEYE_CAN_SMILES>
CC1=CC(=C(N1C2CCS(=O)(=O)C2)C)C(=O)COC3=CC=CC(=C3)OC4=CC=CC=C4

> <PUBCHEM_OPENEYE_ISO_SMILES>
CC1=CC(=C(N1C2CCS(=O)(=O)C2)C)C(=O)COC3=CC=CC(=C3)OC4=CC=CC=C4

> <PUBCHEM_CACTVS_TPSA>
83

> <PUBCHEM_MONOISOTOPIC_WEIGHT>
439.145344

> <PUBCHEM_TOTAL_CHARGE>
0

> <PUBCHEM_HEAVY_ATOM_COUNT>
31

> <PUBCHEM_ATOM_DEF_STEREO_COUNT>
0

> <PUBCHEM_ATOM_UDEF_STEREO_COUNT>
1

> <PUBCHEM_BOND_DEF_STEREO_COUNT>
0

> <PUBCHEM_BOND_UDEF_STEREO_COUNT>
0

> <PUBCHEM_ISOTOPIC_ATOM_COUNT>
0

> <PUBCHEM_COMPONENT_COUNT>
1

> <PUBCHEM_CACTVS_TAUTO_COUNT>
2

> <PUBCHEM_COORDINATE_TYPE>
1
5
255

> <PUBCHEM_BONDANNOTATIONS>
12  14  8
13  15  8
14  15  8
20  21  8
20  22  8
21  23  8
22  24  8
23  25  8
24  25  8
26  27  8
26  28  8
27  29  8
28  30  8
29  31  8
30  31  8
7  12  8
7  13  8
8  7  3

$$$$

