17396186
  -OEChem-06241222552D

 47 48  0     1  0  0  0  0  0999 V2000
    7.0014   -0.1545    0.0000 O   0  0  0  0  0  0  0  0  0  0  0  0
    6.5855    1.8018    0.0000 O   0  0  0  0  0  0  0  0  0  0  0  0
    9.7784   -1.4417    0.0000 O   0  0  0  0  0  0  0  0  0  0  0  0
    3.4013    4.1153    0.0000 O   0  0  0  0  0  0  0  0  0  0  0  0
    6.4661   -1.8018    0.0000 O   0  0  0  0  0  0  0  0  0  0  0  0
    4.0823    0.8539    0.0000 N   0  0  0  0  0  0  0  0  0  0  0  0
    9.4693   -2.3927    0.0000 N   0  0  0  0  0  0  0  0  0  0  0  0
    4.8913    1.4417    0.0000 C   0  0  0  0  0  0  0  0  0  0  0  0
    4.5823    2.3927    0.0000 C   0  0  0  0  0  0  0  0  0  0  0  0
    3.5823    2.3927    0.0000 C   0  0  0  0  0  0  0  0  0  0  0  0
    3.2733    1.4417    0.0000 C   0  0  0  0  0  0  0  0  0  0  0  0
    6.0503    0.1545    0.0000 C   0  0  3  0  0  0  0  0  0  0  0  0
    5.8424    1.1327    0.0000 C   0  0  0  0  0  0  0  0  0  0  0  0
    5.1701    3.2018    0.0000 C   0  0  0  0  0  0  0  0  0  0  0  0
    2.3222    1.1327    0.0000 C   0  0  0  0  0  0  0  0  0  0  0  0
    2.9945    3.2018    0.0000 C   0  0  0  0  0  0  0  0  0  0  0  0
    5.3072   -0.5146    0.0000 C   0  0  0  0  0  0  0  0  0  0  0  0
    8.1603   -1.4417    0.0000 C   0  0  0  0  0  0  0  0  0  0  0  0
    8.4693   -2.3927    0.0000 C   0  0  0  0  0  0  0  0  0  0  0  0
    7.2093   -1.1327    0.0000 C   0  0  0  0  0  0  0  0  0  0  0  0
    7.8816   -3.2018    0.0000 C   0  0  0  0  0  0  0  0  0  0  0  0
    8.9693   -0.8539    0.0000 C   0  0  0  0  0  0  0  0  0  0  0  0
    2.0000    3.0972    0.0000 C   0  0  0  0  0  0  0  0  0  0  0  0
    8.2883   -4.1153    0.0000 C   0  0  0  0  0  0  0  0  0  0  0  0
    8.9693    0.1461    0.0000 C   0  0  0  0  0  0  0  0  0  0  0  0
    4.0823    0.2339    0.0000 H   0  0  0  0  0  0  0  0  0  0  0  0
    6.5110    0.5694    0.0000 H   0  0  0  0  0  0  0  0  0  0  0  0
    5.6717    2.8373    0.0000 H   0  0  0  0  0  0  0  0  0  0  0  0
    5.5345    3.7033    0.0000 H   0  0  0  0  0  0  0  0  0  0  0  0
    4.6685    3.5662    0.0000 H   0  0  0  0  0  0  0  0  0  0  0  0
    2.1306    1.7223    0.0000 H   0  0  0  0  0  0  0  0  0  0  0  0
    1.7326    0.9411    0.0000 H   0  0  0  0  0  0  0  0  0  0  0  0
    2.5138    0.5430    0.0000 H   0  0  0  0  0  0  0  0  0  0  0  0
    4.8923   -0.0539    0.0000 H   0  0  0  0  0  0  0  0  0  0  0  0
    4.8464   -0.9295    0.0000 H   0  0  0  0  0  0  0  0  0  0  0  0
    5.7220   -0.9754    0.0000 H   0  0  0  0  0  0  0  0  0  0  0  0
    7.4509   -2.7558    0.0000 H   0  0  0  0  0  0  0  0  0  0  0  0
    7.3676   -3.5484    0.0000 H   0  0  0  0  0  0  0  0  0  0  0  0
    1.9352    3.7138    0.0000 H   0  0  0  0  0  0  0  0  0  0  0  0
    1.3834    3.0324    0.0000 H   0  0  0  0  0  0  0  0  0  0  0  0
    2.0648    2.4806    0.0000 H   0  0  0  0  0  0  0  0  0  0  0  0
    7.7219   -4.3675    0.0000 H   0  0  0  0  0  0  0  0  0  0  0  0
    8.5405   -4.6817    0.0000 H   0  0  0  0  0  0  0  0  0  0  0  0
    8.8547   -3.8631    0.0000 H   0  0  0  0  0  0  0  0  0  0  0  0
    9.5893    0.1461    0.0000 H   0  0  0  0  0  0  0  0  0  0  0  0
    8.9693    0.7661    0.0000 H   0  0  0  0  0  0  0  0  0  0  0  0
    8.3493    0.1461    0.0000 H   0  0  0  0  0  0  0  0  0  0  0  0
  1 12  1  0  0  0  0
  1 20  1  0  0  0  0
  2 13  2  0  0  0  0
  3  7  1  0  0  0  0
  3 22  1  0  0  0  0
  4 16  2  0  0  0  0
  5 20  2  0  0  0  0
  6  8  1  0  0  0  0
  6 11  1  0  0  0  0
  6 26  1  0  0  0  0
  7 19  2  0  0  0  0
  8  9  2  0  0  0  0
  8 13  1  0  0  0  0
  9 10  1  0  0  0  0
  9 14  1  0  0  0  0
 10 11  2  0  0  0  0
 10 16  1  0  0  0  0
 11 15  1  0  0  0  0
 12 13  1  0  0  0  0
 12 17  1  0  0  0  0
 12 27  1  0  0  0  0
 14 28  1  0  0  0  0
 14 29  1  0  0  0  0
 14 30  1  0  0  0  0
 15 31  1  0  0  0  0
 15 32  1  0  0  0  0
 15 33  1  0  0  0  0
 16 23  1  0  0  0  0
 17 34  1  0  0  0  0
 17 35  1  0  0  0  0
 17 36  1  0  0  0  0
 18 19  1  0  0  0  0
 18 20  1  0  0  0  0
 18 22  2  0  0  0  0
 19 21  1  0  0  0  0
 21 24  1  0  0  0  0
 21 37  1  0  0  0  0
 21 38  1  0  0  0  0
 22 25  1  0  0  0  0
 23 39  1  0  0  0  0
 23 40  1  0  0  0  0
 23 41  1  0  0  0  0
 24 42  1  0  0  0  0
 24 43  1  0  0  0  0
 24 44  1  0  0  0  0
 25 45  1  0  0  0  0
 25 46  1  0  0  0  0
 25 47  1  0  0  0  0
M  END
> <PUBCHEM_COMPOUND_CID>
17396186

> <PUBCHEM_COMPOUND_CANONICALIZED>
1

> <PUBCHEM_CACTVS_COMPLEXITY>
538

> <PUBCHEM_CACTVS_HBOND_ACCEPTOR>
6

> <PUBCHEM_CACTVS_HBOND_DONOR>
1

> <PUBCHEM_CACTVS_ROTATABLE_BOND>
7

> <PUBCHEM_CACTVS_SUBSKEYS>
AAADceB7OAAAAAAAAAAAAAAAAAAAAWLAAAAAAAAAAAAAAAAB4AAAHgAUAAAADByhngICjJLZlACpA4TwTgKCgCAnICAgmSH0TNoIJ37ItL+GEchn8BnI6Uecy/C+gAAAAAAAAAAAAAAAAAAAAAAAAAAAAA==

> <PUBCHEM_IUPAC_OPENEYE_NAME>
[2-(4-acetyl-3,5-dimethyl-1H-pyrrol-2-yl)-1-methyl-2-oxo-ethyl] 3-ethyl-5-methyl-isoxazole-4-carboxylate

> <PUBCHEM_IUPAC_CAS_NAME>
3-ethyl-5-methyl-4-isoxazolecarboxylic acid [1-(4-acetyl-3,5-dimethyl-1H-pyrrol-2-yl)-1-oxopropan-2-yl] ester

> <PUBCHEM_IUPAC_NAME>
[1-(4-acetyl-3,5-dimethyl-1H-pyrrol-2-yl)-1-oxopropan-2-yl] 3-ethyl-5-methyl-1,2-oxazole-4-carboxylate

> <PUBCHEM_IUPAC_SYSTEMATIC_NAME>
[1-(4-ethanoyl-3,5-dimethyl-1H-pyrrol-2-yl)-1-oxidanylidene-propan-2-yl] 3-ethyl-5-methyl-1,2-oxazole-4-carboxylate

> <PUBCHEM_IUPAC_TRADITIONAL_NAME>
3-ethyl-5-methyl-isoxazole-4-carboxylic acid [2-(4-acetyl-3,5-dimethyl-1H-pyrrol-2-yl)-2-keto-1-methyl-ethyl] ester

> <PUBCHEM_IUPAC_INCHI>
InChI=1S/C18H22N2O5/c1-7-13-15(11(5)25-20-13)18(23)24-12(6)17(22)16-8(2)14(10(4)21)9(3)19-16/h12,19H,7H2,1-6H3

> <PUBCHEM_IUPAC_INCHIKEY>
DWYAPJJDYYEYDV-UHFFFAOYSA-N

> <PUBCHEM_XLOGP3_AA>
2.8

> <PUBCHEM_EXACT_MASS>
346.152872

> <PUBCHEM_MOLECULAR_FORMULA>
C18H22N2O5

> <PUBCHEM_MOLECULAR_WEIGHT>
346.37768

> <PUBCHEM_OPENEYE_CAN_SMILES>
CCC1=NOC(=C1C(=O)OC(C)C(=O)C2=C(C(=C(N2)C)C(=O)C)C)C

> <PUBCHEM_OPENEYE_ISO_SMILES>
CCC1=NOC(=C1C(=O)OC(C)C(=O)C2=C(C(=C(N2)C)C(=O)C)C)C

> <PUBCHEM_CACTVS_TPSA>
102

> <PUBCHEM_MONOISOTOPIC_WEIGHT>
346.152872

> <PUBCHEM_TOTAL_CHARGE>
0

> <PUBCHEM_HEAVY_ATOM_COUNT>
25

> <PUBCHEM_ATOM_DEF_STEREO_COUNT>
0

> <PUBCHEM_ATOM_UDEF_STEREO_COUNT>
1

> <PUBCHEM_BOND_DEF_STEREO_COUNT>
0

> <PUBCHEM_BOND_UDEF_STEREO_COUNT>
0

> <PUBCHEM_ISOTOPIC_ATOM_COUNT>
0

> <PUBCHEM_COMPONENT_COUNT>
1

> <PUBCHEM_CACTVS_TAUTO_COUNT>
62

> <PUBCHEM_COORDINATE_TYPE>
1
5
255

> <PUBCHEM_BONDANNOTATIONS>
10  11  8
12  17  3
18  19  8
18  22  8
3  22  8
3  7  8
6  11  8
6  8  8
7  19  8
8  9  8
9  10  8

$$$$

