   Color/Form
        Colorless liquid
   from [1]HSDB

   Odor

     * Pleasant odor
     * Faint, ketonic and camphor odor

   from [2]HSDB

   Boiling Point
        116.5 deg C
   from [3]HSDB

   Melting Point
        -84 deg C
   from [4]HSDB

   Critical Temperature and Pressure
        Critical temperature = 574.6 K; critical pressure: 3.270MPa
   from [5]HSDB

   Density/Specific Gravity
        0.8042 at 20 deg C/20 deg C
   from [6]HSDB

   Heat of Combustion
        3,740 kJ/mol
   from [7]HSDB

   Heat of Vaporization
        36.15 kJ/mol
   from [8]HSDB

   Octanol/Water Partition Coefficient
        log Kow = 1.31
   from [9]HSDB

   Solubilities

     * In water, 19,000 mg/L at 25 deg C
     * Miscible with ethanol, ether, acetone, benzene; soluble in
       chloroform
     * Miscible with most organic solvents

   from [10]HSDB

   Spectral Properties

     * SADTLER REF NUMBER: 23 (IR, GRATING)
     * Index of refraction: 1.3692 at 20 deg C/D
     * IR: 44 (Sadtler Research Laboratories Prism Collection)
     * UV: 21 (Sadtler Research Laboratories Prism Collection)
     * Raman: 987 (Sadtler Research Laboratories Prism Collection)
     * 1H NMR: 139 (Varian Associates NMR Spectra Catalogue)
     * 13C NMR: 139 (Varian Associates NMR spectra collectoin)
     * MASS: 53587 (NIST/EPA/MSDC Mass Spectral Database, 1990 version)

   from [11]HSDB

   Surface Tension
        23.6 dynes/cm= 0.0236 N/m @ 20.0 deg C
   from [12]HSDB

   Vapor Density
        3.5 (air= 1)
   from [13]HSDB

   Vapor Pressure
        19.9 mm Hg at 25 deg C
   from [14]HSDB

   Relative Evaporation Rate
        5.6 (ether= 1)
   from [15]HSDB

   Other Chemical/Physical Properties

     * -85 deg C (freezing point)
     * Percent in saturated air 1.0; 1 ppm is equivalent to 4.10 mg/cu m;
       & 1 mg/l is equivalent to 244 ppm at 25 deg C, 760 mm Hg
     * Mobile, liquid; distills between 114 & 117 deg C /NF Grade/
     * Bulk density: 6.68 lb/gal at 20 deg C
     * Liq-water interfacial tension: 15.7 dynes/cm= 0.0157 N/m at 22.7
       deg C
     * Water/air, blood/air, oil (olive oil)/air, oil/water, and oil/blood
       partition (or solubility) coefficients of methyl isobutyl ketone
       were measured by vial-equilibration in combination with gas
       chromatography. Partition coefficients for methyl isobutyl ketone:
       water/air: 79; blood/air: 90; oil/air: 926. The blood/air partition
       coefficients for ketones are almost in the same range as the
       water/air, irrespective of the oil/air partition coefficients.
       [Sato A, Nakajima T; Br J Ind Med 36 (3): 231-4 (1979)] [16]PubMed
       Abstract
     * Henry's Law constant = 1.38X10-4 atm-cu m/mol at 25 deg C (est)
     * Hydroxyl radical reaction rate constant = 1.41X10-11 cu
       cm/molec-sec at 25 deg C (est)

   from [17]HSDB

   Computed Properties
   Molecular Weight                  100.15888 [g/mol]
   Molecular Formula                 C[6]H[12]O
   XLogP3                            1.3
   H-Bond Donor                      0
   H-Bond Acceptor                   1
   Rotatable Bond Count              2
   Tautomer Count                    3
   Exact Mass                        100.088815
   MonoIsotopic Mass                 100.088815
   Topological Polar Surface Area    17.1
   Heavy Atom Count                  7
   Formal Charge                     0
   Complexity                        64.6
   Isotope Atom Count                0
   Defined Atom Stereocenter Count   0
   Undefined Atom Stereocenter Count 0
   Defined Bond Stereocenter Count   0
   Undefined Bond Stereocenter Count 0
   Covalently-Bonded Unit Count      1
   Feature 3D Acceptor Count         1
   Feature 3D Hydrophobe Count       1
   Effective Rotor Count             2
   Conformer Sampling RMSD           0.4
   CID Conformer Count               [18]4

References

   1. http://toxnet.nlm.nih.gov/cgi-bin/sis/search/r?dbs+hsdb:@term+@rn+@rel+108-10-1
   2. http://toxnet.nlm.nih.gov/cgi-bin/sis/search/r?dbs+hsdb:@term+@rn+@rel+108-10-1
   3. http://toxnet.nlm.nih.gov/cgi-bin/sis/search/r?dbs+hsdb:@term+@rn+@rel+108-10-1
   4. http://toxnet.nlm.nih.gov/cgi-bin/sis/search/r?dbs+hsdb:@term+@rn+@rel+108-10-1
   5. http://toxnet.nlm.nih.gov/cgi-bin/sis/search/r?dbs+hsdb:@term+@rn+@rel+108-10-1
   6. http://toxnet.nlm.nih.gov/cgi-bin/sis/search/r?dbs+hsdb:@term+@rn+@rel+108-10-1
   7. http://toxnet.nlm.nih.gov/cgi-bin/sis/search/r?dbs+hsdb:@term+@rn+@rel+108-10-1
   8. http://toxnet.nlm.nih.gov/cgi-bin/sis/search/r?dbs+hsdb:@term+@rn+@rel+108-10-1
   9. http://toxnet.nlm.nih.gov/cgi-bin/sis/search/r?dbs+hsdb:@term+@rn+@rel+108-10-1
  10. http://toxnet.nlm.nih.gov/cgi-bin/sis/search/r?dbs+hsdb:@term+@rn+@rel+108-10-1
  11. http://toxnet.nlm.nih.gov/cgi-bin/sis/search/r?dbs+hsdb:@term+@rn+@rel+108-10-1
  12. http://toxnet.nlm.nih.gov/cgi-bin/sis/search/r?dbs+hsdb:@term+@rn+@rel+108-10-1
  13. http://toxnet.nlm.nih.gov/cgi-bin/sis/search/r?dbs+hsdb:@term+@rn+@rel+108-10-1
  14. http://toxnet.nlm.nih.gov/cgi-bin/sis/search/r?dbs+hsdb:@term+@rn+@rel+108-10-1
  15. http://toxnet.nlm.nih.gov/cgi-bin/sis/search/r?dbs+hsdb:@term+@rn+@rel+108-10-1
  16. http://www.ncbi.nlm.nih.gov/entrez/query.fcgi?cmd=Retrieve&db=pubmed&dopt=Abstract&list_uids=500783
  17. http://toxnet.nlm.nih.gov/cgi-bin/sis/search/r?dbs+hsdb:@term+@rn+@rel+108-10-1
  18. http://pubchem.ncbi.nlm.nih.gov/vw3d/vw3d.cgi?cid=7909
