   Color/Form

     * Crystals from 90% aq ethanol
     * WHITE CRYSTALLINE POWDER

   from [1]HSDB

   Odor
        PRACTICALLY ODORLESS
   from [2]HSDB

   Melting Point
        188-190 deg C
   from [3]HSDB

   Dissociation Constants
        PKA= 6.6
   from [4]HSDB

   Octanol/Water Partition Coefficient
        log Kow= 2.44
   from [5]HSDB

   Solubilities

     * PRACTICALLY INSOL IN WATER & ETHER; SLIGHTLY SOL IN ALCOHOL &
       CHLOROFORM; SOL IN PYRIDINE & DILUTE SOLN OF ALKALI HYDROXIDES
     * INSOL IN ETHYL ACETATE; SPARINGLY SOL IN DIOXANE
     * Soluble in pyridine; slightly soluble in alcohol, chloroform.
       Insoluble in ether.
     * In water, 0.00343 mg/l @ 37 deg C

   from [6]HSDB

   Spectral Properties
        UV max (methanol): 247, 283 nm.
   from [7]HSDB

   Other Chemical/Physical Properties
        From dil ethanol, mp 175-177 deg C
   from [8]HSDB

   Computed Properties
   Molecular Weight                  324.3953 [g/mol]
   Molecular Formula                 C[15]H[20]N[2]O[4]S
   XLogP3                            2.4
   H-Bond Donor                      2
   H-Bond Acceptor                   4
   Rotatable Bond Count              4
   Tautomer Count                    6
   Exact Mass                        324.114378
   MonoIsotopic Mass                 324.114378
   Topological Polar Surface Area    101
   Heavy Atom Count                  22
   Formal Charge                     0
   Complexity                        498
   Isotope Atom Count                0
   Defined Atom Stereocenter Count   0
   Undefined Atom Stereocenter Count 0
   Defined Bond Stereocenter Count   0
   Undefined Bond Stereocenter Count 0
   Covalently-Bonded Unit Count      1
   Feature 3D Acceptor Count         4
   Feature 3D Donor Count            2
   Feature 3D Ring Count             2
   Effective Rotor Count             7.2
   Conformer Sampling RMSD           0.8
   CID Conformer Count               [9]108

References

   1. http://toxnet.nlm.nih.gov/cgi-bin/sis/search/r?dbs+hsdb:@term+@rn+@rel+968-81-0
   2. http://toxnet.nlm.nih.gov/cgi-bin/sis/search/r?dbs+hsdb:@term+@rn+@rel+968-81-0
   3. http://toxnet.nlm.nih.gov/cgi-bin/sis/search/r?dbs+hsdb:@term+@rn+@rel+968-81-0
   4. http://toxnet.nlm.nih.gov/cgi-bin/sis/search/r?dbs+hsdb:@term+@rn+@rel+968-81-0
   5. http://toxnet.nlm.nih.gov/cgi-bin/sis/search/r?dbs+hsdb:@term+@rn+@rel+968-81-0
   6. http://toxnet.nlm.nih.gov/cgi-bin/sis/search/r?dbs+hsdb:@term+@rn+@rel+968-81-0
   7. http://toxnet.nlm.nih.gov/cgi-bin/sis/search/r?dbs+hsdb:@term+@rn+@rel+968-81-0
   8. http://toxnet.nlm.nih.gov/cgi-bin/sis/search/r?dbs+hsdb:@term+@rn+@rel+968-81-0
   9. http://pubchem.ncbi.nlm.nih.gov/vw3d/vw3d.cgi?cid=1989
