11953829
  -OEChem-07051212492D

 66 70  0     1  0  0  0  0  0999 V2000
    5.1350   -0.6900    0.0000 O   0  0  0  0  0  0  0  0  0  0  0  0
    6.8671   -1.6900    0.0000 O   0  0  0  0  0  0  0  0  0  0  0  0
    7.7331   -3.1900    0.0000 O   0  0  0  0  0  0  0  0  0  0  0  0
    4.2690   -3.1900    0.0000 O   0  0  0  0  0  0  0  0  0  0  0  0
    2.5369   -2.1900    0.0000 O   0  0  0  0  0  0  0  0  0  0  0  0
    4.2690    0.8100    0.0000 O   0  0  0  0  0  0  0  0  0  0  0  0
    2.5369   -0.1900    0.0000 O   0  0  0  0  0  0  0  0  0  0  0  0
    8.5991   -0.6900    0.0000 O   0  0  0  0  0  0  0  0  0  0  0  0
   10.3312   -1.6900    0.0000 O   0  0  0  0  0  0  0  0  0  0  0  0
   10.3312   -3.6900    0.0000 O   0  0  0  0  0  0  0  0  0  0  0  0
    6.0010    2.8100    0.0000 O   0  0  0  0  0  0  0  0  0  0  0  0
    6.0010   -0.1900    0.0000 O   0  0  0  0  0  0  0  0  0  0  0  0
    5.1350   -1.6900    0.0000 C   0  0  1  0  0  0  0  0  0  0  0  0
    4.2690   -2.1900    0.0000 C   0  0  2  0  0  0  0  0  0  0  0  0
    3.4030   -1.6900    0.0000 C   0  0  1  0  0  0  0  0  0  0  0  0
    3.4030   -0.6900    0.0000 C   0  0  2  0  0  0  0  0  0  0  0  0
    4.2690   -0.1900    0.0000 C   0  0  1  0  0  0  0  0  0  0  0  0
    6.0010   -2.1900    0.0000 C   0  0  0  0  0  0  0  0  0  0  0  0
    7.7331   -2.1900    0.0000 C   0  0  2  0  0  0  0  0  0  0  0  0
    8.5991   -1.6900    0.0000 C   0  0  1  0  0  0  0  0  0  0  0  0
    9.4651   -2.1900    0.0000 C   0  0  2  0  0  0  0  0  0  0  0  0
    9.4651   -3.1900    0.0000 C   0  0  1  0  0  0  0  0  0  0  0  0
    8.5991   -3.6900    0.0000 C   0  0  0  0  0  0  0  0  0  0  0  0
    5.1350    1.3100    0.0000 C   0  0  0  0  0  0  0  0  0  0  0  0
    5.1350    2.3100    0.0000 C   0  0  0  0  0  0  0  0  0  0  0  0
    6.0010    0.8100    0.0000 C   0  0  0  0  0  0  0  0  0  0  0  0
    6.8671    1.3100    0.0000 C   0  0  0  0  0  0  0  0  0  0  0  0
    4.2690    2.8100    0.0000 C   0  0  0  0  0  0  0  0  0  0  0  0
    6.8671    2.3100    0.0000 C   0  0  0  0  0  0  0  0  0  0  0  0
    7.7610    0.7753    0.0000 C   0  0  0  0  0  0  0  0  0  0  0  0
    7.7610    2.8447    0.0000 C   0  0  0  0  0  0  0  0  0  0  0  0
    4.2690    3.8100    0.0000 C   0  0  0  0  0  0  0  0  0  0  0  0
    3.4030    2.3100    0.0000 C   0  0  0  0  0  0  0  0  0  0  0  0
    8.6671    1.2892    0.0000 C   0  0  0  0  0  0  0  0  0  0  0  0
    8.6671    2.3308    0.0000 C   0  0  0  0  0  0  0  0  0  0  0  0
    3.4030    4.3100    0.0000 C   0  0  0  0  0  0  0  0  0  0  0  0
    2.5369    2.8100    0.0000 C   0  0  0  0  0  0  0  0  0  0  0  0
    2.5369    3.8100    0.0000 C   0  0  0  0  0  0  0  0  0  0  0  0
    5.6720   -1.3800    0.0000 H   0  0  0  0  0  0  0  0  0  0  0  0
    4.8059   -2.5000    0.0000 H   0  0  0  0  0  0  0  0  0  0  0  0
    3.4030   -2.3100    0.0000 H   0  0  0  0  0  0  0  0  0  0  0  0
    3.4030   -0.0700    0.0000 H   0  0  0  0  0  0  0  0  0  0  0  0
    3.7320    0.1200    0.0000 H   0  0  0  0  0  0  0  0  0  0  0  0
    5.6025   -2.6650    0.0000 H   0  0  0  0  0  0  0  0  0  0  0  0
    6.3996   -2.6650    0.0000 H   0  0  0  0  0  0  0  0  0  0  0  0
    7.7331   -1.5700    0.0000 H   0  0  0  0  0  0  0  0  0  0  0  0
    8.0622   -1.3800    0.0000 H   0  0  0  0  0  0  0  0  0  0  0  0
   10.0021   -2.5000    0.0000 H   0  0  0  0  0  0  0  0  0  0  0  0
   10.0021   -2.8800    0.0000 H   0  0  0  0  0  0  0  0  0  0  0  0
    8.2006   -4.1650    0.0000 H   0  0  0  0  0  0  0  0  0  0  0  0
    8.9976   -4.1650    0.0000 H   0  0  0  0  0  0  0  0  0  0  0  0
    4.8059   -3.5000    0.0000 H   0  0  0  0  0  0  0  0  0  0  0  0
    2.5369   -2.8100    0.0000 H   0  0  0  0  0  0  0  0  0  0  0  0
    2.0000   -0.5000    0.0000 H   0  0  0  0  0  0  0  0  0  0  0  0
    9.1360   -0.3800    0.0000 H   0  0  0  0  0  0  0  0  0  0  0  0
   10.8681   -2.0000    0.0000 H   0  0  0  0  0  0  0  0  0  0  0  0
   10.3312   -4.3100    0.0000 H   0  0  0  0  0  0  0  0  0  0  0  0
    7.7538    0.1554    0.0000 H   0  0  0  0  0  0  0  0  0  0  0  0
    7.7538    3.4646    0.0000 H   0  0  0  0  0  0  0  0  0  0  0  0
    4.8059    4.1200    0.0000 H   0  0  0  0  0  0  0  0  0  0  0  0
    3.4030    1.6900    0.0000 H   0  0  0  0  0  0  0  0  0  0  0  0
    9.2028    0.9771    0.0000 H   0  0  0  0  0  0  0  0  0  0  0  0
    9.2028    2.6429    0.0000 H   0  0  0  0  0  0  0  0  0  0  0  0
    3.4030    4.9300    0.0000 H   0  0  0  0  0  0  0  0  0  0  0  0
    2.0000    2.5000    0.0000 H   0  0  0  0  0  0  0  0  0  0  0  0
    2.0000    4.1200    0.0000 H   0  0  0  0  0  0  0  0  0  0  0  0
  1 13  1  0  0  0  0
  1 17  1  0  0  0  0
  2 18  1  0  0  0  0
 19  2  1  1  0  0  0
  3 19  1  0  0  0  0
  3 23  1  0  0  0  0
 14  4  1  1  0  0  0
  4 52  1  0  0  0  0
 15  5  1  6  0  0  0
  5 53  1  0  0  0  0
 17  6  1  6  0  0  0
  6 24  1  0  0  0  0
 16  7  1  1  0  0  0
  7 54  1  0  0  0  0
 20  8  1  6  0  0  0
  8 55  1  0  0  0  0
 21  9  1  1  0  0  0
  9 56  1  0  0  0  0
 22 10  1  6  0  0  0
 10 57  1  0  0  0  0
 11 25  1  0  0  0  0
 11 29  1  0  0  0  0
 12 26  2  0  0  0  0
 13 14  1  0  0  0  0
 13 18  1  6  0  0  0
 13 39  1  0  0  0  0
 14 15  1  0  0  0  0
 14 40  1  0  0  0  0
 15 16  1  0  0  0  0
 15 41  1  0  0  0  0
 16 17  1  0  0  0  0
 16 42  1  0  0  0  0
 17 43  1  0  0  0  0
 18 44  1  0  0  0  0
 18 45  1  0  0  0  0
 19 20  1  0  0  0  0
 19 46  1  0  0  0  0
 20 21  1  0  0  0  0
 20 47  1  0  0  0  0
 21 22  1  0  0  0  0
 21 48  1  0  0  0  0
 22 23  1  0  0  0  0
 22 49  1  0  0  0  0
 23 50  1  0  0  0  0
 23 51  1  0  0  0  0
 24 25  2  0  0  0  0
 24 26  1  0  0  0  0
 25 28  1  0  0  0  0
 26 27  1  0  0  0  0
 27 29  1  0  0  0  0
 27 30  2  0  0  0  0
 28 32  2  0  0  0  0
 28 33  1  0  0  0  0
 29 31  2  0  0  0  0
 30 34  1  0  0  0  0
 30 58  1  0  0  0  0
 31 35  1  0  0  0  0
 31 59  1  0  0  0  0
 32 36  1  0  0  0  0
 32 60  1  0  0  0  0
 33 37  2  0  0  0  0
 33 61  1  0  0  0  0
 34 35  2  0  0  0  0
 34 62  1  0  0  0  0
 35 63  1  0  0  0  0
 36 38  2  0  0  0  0
 36 64  1  0  0  0  0
 37 38  1  0  0  0  0
 37 65  1  0  0  0  0
 38 66  1  0  0  0  0
M  END
> <PUBCHEM_COMPOUND_CID>
11953829

> <PUBCHEM_COMPOUND_CANONICALIZED>
1

> <PUBCHEM_CACTVS_COMPLEXITY>
859

> <PUBCHEM_CACTVS_HBOND_ACCEPTOR>
12

> <PUBCHEM_CACTVS_HBOND_DONOR>
6

> <PUBCHEM_CACTVS_ROTATABLE_BOND>
6

> <PUBCHEM_CACTVS_SUBSKEYS>
AAADceB4PAAAAAAAAAAAAAAAAAAAAAAAAAA0aIECAAAAAACBQAAAGgAACAAADBSwmAMwDoAABgCIAqBSAAICCAAkIAAIiAFGCMgdNjaENR6ieWCl4BEPqYfI6KyOAAAAAAAIAAAAAAAAABAAAAAAAAAAAA==

> <PUBCHEM_IUPAC_OPENEYE_NAME>
2-phenyl-3-[(2S,3R,4S,5S,6R)-3,4,5-trihydroxy-6-[[(2S,3R,4S,5R)-3,4,5-trihydroxytetrahydropyran-2-yl]oxymethyl]tetrahydropyran-2-yl]oxy-chromen-4-one

> <PUBCHEM_IUPAC_CAS_NAME>
2-phenyl-3-[[(2S,3R,4S,5S,6R)-3,4,5-trihydroxy-6-[[(2S,3R,4S,5R)-3,4,5-trihydroxy-2-oxanyl]oxymethyl]-2-oxanyl]oxy]-1-benzopyran-4-one

> <PUBCHEM_IUPAC_NAME>
2-phenyl-3-[(2S,3R,4S,5S,6R)-3,4,5-trihydroxy-6-[[(2S,3R,4S,5R)-3,4,5-trihydroxyoxan-2-yl]oxymethyl]oxan-2-yl]oxychromen-4-one

> <PUBCHEM_IUPAC_SYSTEMATIC_NAME>
2-phenyl-3-[(2S,3R,4S,5S,6R)-3,4,5-tris(oxidanyl)-6-[[(2S,3R,4S,5R)-3,4,5-tris(oxidanyl)oxan-2-yl]oxymethyl]oxan-2-yl]oxy-chromen-4-one

> <PUBCHEM_IUPAC_TRADITIONAL_NAME>
2-phenyl-3-[(2S,3R,4S,5S,6R)-3,4,5-trihydroxy-6-[[(2S,3R,4S,5R)-3,4,5-trihydroxytetrahydropyran-2-yl]oxymethyl]tetrahydropyran-2-yl]oxy-chromone

> <PUBCHEM_IUPAC_INCHI>
InChI=1S/C26H28O12/c27-14-10-34-25(21(32)18(14)29)35-11-16-19(30)20(31)22(33)26(37-16)38-24-17(28)13-8-4-5-9-15(13)36-23(24)12-6-2-1-3-7-12/h1-9,14,16,18-22,25-27,29-33H,10-11H2/t14-,16-,18+,19-,20+,21-,22-,25+,26+/m1/s1

> <PUBCHEM_IUPAC_INCHIKEY>
QBUWNMMELNULIT-UBXNXWJWSA-N

> <PUBCHEM_XLOGP3_AA>
-0.8

> <PUBCHEM_EXACT_MASS>
532.158076

> <PUBCHEM_MOLECULAR_FORMULA>
C26H28O12

> <PUBCHEM_MOLECULAR_WEIGHT>
532.49332

> <PUBCHEM_OPENEYE_CAN_SMILES>
C1C(C(C(C(O1)OCC2C(C(C(C(O2)OC3=C(OC4=CC=CC=C4C3=O)C5=CC=CC=C5)O)O)O)O)O)O

> <PUBCHEM_OPENEYE_ISO_SMILES>
C1[C@H]([C@@H]([C@H]([C@@H](O1)OC[C@@H]2[C@H]([C@@H]([C@H]([C@@H](O2)OC3=C(OC4=CC=CC=C4C3=O)C5=CC=CC=C5)O)O)O)O)O)O

> <PUBCHEM_CACTVS_TPSA>
185

> <PUBCHEM_MONOISOTOPIC_WEIGHT>
532.158076

> <PUBCHEM_TOTAL_CHARGE>
0

> <PUBCHEM_HEAVY_ATOM_COUNT>
38

> <PUBCHEM_ATOM_DEF_STEREO_COUNT>
9

> <PUBCHEM_ATOM_UDEF_STEREO_COUNT>
0

> <PUBCHEM_BOND_DEF_STEREO_COUNT>
0

> <PUBCHEM_BOND_UDEF_STEREO_COUNT>
0

> <PUBCHEM_ISOTOPIC_ATOM_COUNT>
0

> <PUBCHEM_COMPONENT_COUNT>
1

> <PUBCHEM_CACTVS_TAUTO_COUNT>
1

> <PUBCHEM_COORDINATE_TYPE>
1
5
255

> <PUBCHEM_BONDANNOTATIONS>
22  10  6
11  25  8
11  29  8
13  18  6
19  2  5
24  25  8
24  26  8
26  27  8
27  29  8
27  30  8
28  32  8
28  33  8
29  31  8
30  34  8
31  35  8
32  36  8
33  37  8
34  35  8
36  38  8
37  38  8
14  4  5
15  5  6
17  6  6
16  7  5
20  8  6
21  9  5

$$$$

