17396644
  -OEChem-06241222572D

 44 46  0     1  0  0  0  0  0999 V2000
    2.8660    1.0670    0.0000 S   0  0  0  0  0  0  0  0  0  0  0  0
   11.5542   -0.9677    0.0000 O   0  0  0  0  0  0  0  0  0  0  0  0
   11.5542    1.1016    0.0000 O   0  0  0  0  0  0  0  0  0  0  0  0
    6.3301   -1.9330    0.0000 O   0  0  0  0  0  0  0  0  0  0  0  0
    2.3660    0.2010    0.0000 O   0  0  0  0  0  0  0  0  0  0  0  0
    3.3660    1.9330    0.0000 O   0  0  0  0  0  0  0  0  0  0  0  0
    7.1962   -0.4330    0.0000 N   0  0  0  0  0  0  0  0  0  0  0  0
    8.0622   -0.9330    0.0000 C   0  0  3  0  0  0  0  0  0  0  0  0
    8.9282   -0.4330    0.0000 C   0  0  0  0  0  0  0  0  0  0  0  0
    9.7942   -0.9330    0.0000 C   0  0  0  0  0  0  0  0  0  0  0  0
   10.6603   -0.4330    0.0000 C   0  0  0  0  0  0  0  0  0  0  0  0
    8.0622   -1.9330    0.0000 C   0  0  0  0  0  0  0  0  0  0  0  0
   10.6603    0.5670    0.0000 C   0  0  0  0  0  0  0  0  0  0  0  0
    8.9282    0.5670    0.0000 C   0  0  0  0  0  0  0  0  0  0  0  0
    9.7942    1.0670    0.0000 C   0  0  0  0  0  0  0  0  0  0  0  0
   12.4603   -0.4538    0.0000 C   0  0  0  0  0  0  0  0  0  0  0  0
    6.3301   -0.9330    0.0000 C   0  0  0  0  0  0  0  0  0  0  0  0
   12.4603    0.5878    0.0000 C   0  0  0  0  0  0  0  0  0  0  0  0
    5.4641   -0.4330    0.0000 C   0  0  0  0  0  0  0  0  0  0  0  0
    3.7320    0.5670    0.0000 C   0  0  0  0  0  0  0  0  0  0  0  0
    5.4641    0.5670    0.0000 C   0  0  0  0  0  0  0  0  0  0  0  0
    4.5981   -0.9330    0.0000 C   0  0  0  0  0  0  0  0  0  0  0  0
    4.5981    1.0670    0.0000 C   0  0  0  0  0  0  0  0  0  0  0  0
    3.7320   -0.4330    0.0000 C   0  0  0  0  0  0  0  0  0  0  0  0
    2.0000    1.5670    0.0000 C   0  0  0  0  0  0  0  0  0  0  0  0
    8.0622   -0.3130    0.0000 H   0  0  0  0  0  0  0  0  0  0  0  0
    9.7942   -1.5530    0.0000 H   0  0  0  0  0  0  0  0  0  0  0  0
    7.1962    0.1870    0.0000 H   0  0  0  0  0  0  0  0  0  0  0  0
    7.4422   -1.9330    0.0000 H   0  0  0  0  0  0  0  0  0  0  0  0
    8.0622   -2.5530    0.0000 H   0  0  0  0  0  0  0  0  0  0  0  0
    8.6822   -1.9330    0.0000 H   0  0  0  0  0  0  0  0  0  0  0  0
    8.3913    0.8770    0.0000 H   0  0  0  0  0  0  0  0  0  0  0  0
    9.7942    1.6870    0.0000 H   0  0  0  0  0  0  0  0  0  0  0  0
   12.6693   -1.0375    0.0000 H   0  0  0  0  0  0  0  0  0  0  0  0
   13.0711   -0.3477    0.0000 H   0  0  0  0  0  0  0  0  0  0  0  0
   13.0711    0.4817    0.0000 H   0  0  0  0  0  0  0  0  0  0  0  0
   12.6693    1.1715    0.0000 H   0  0  0  0  0  0  0  0  0  0  0  0
    6.0010    0.8770    0.0000 H   0  0  0  0  0  0  0  0  0  0  0  0
    4.5981   -1.5530    0.0000 H   0  0  0  0  0  0  0  0  0  0  0  0
    4.5981    1.6870    0.0000 H   0  0  0  0  0  0  0  0  0  0  0  0
    3.1951   -0.7430    0.0000 H   0  0  0  0  0  0  0  0  0  0  0  0
    2.3100    2.1039    0.0000 H   0  0  0  0  0  0  0  0  0  0  0  0
    1.4631    1.8770    0.0000 H   0  0  0  0  0  0  0  0  0  0  0  0
    1.6900    1.0300    0.0000 H   0  0  0  0  0  0  0  0  0  0  0  0
  1  5  2  0  0  0  0
  1  6  2  0  0  0  0
  1 20  1  0  0  0  0
  1 25  1  0  0  0  0
  2 11  1  0  0  0  0
  2 16  1  0  0  0  0
  3 13  1  0  0  0  0
  3 18  1  0  0  0  0
  4 17  2  0  0  0  0
  7  8  1  0  0  0  0
  7 17  1  0  0  0  0
  7 28  1  0  0  0  0
  8  9  1  0  0  0  0
  8 12  1  0  0  0  0
  8 26  1  0  0  0  0
  9 10  2  0  0  0  0
  9 14  1  0  0  0  0
 10 11  1  0  0  0  0
 10 27  1  0  0  0  0
 11 13  2  0  0  0  0
 12 29  1  0  0  0  0
 12 30  1  0  0  0  0
 12 31  1  0  0  0  0
 13 15  1  0  0  0  0
 14 15  2  0  0  0  0
 14 32  1  0  0  0  0
 15 33  1  0  0  0  0
 16 18  1  0  0  0  0
 16 34  1  0  0  0  0
 16 35  1  0  0  0  0
 17 19  1  0  0  0  0
 18 36  1  0  0  0  0
 18 37  1  0  0  0  0
 19 21  2  0  0  0  0
 19 22  1  0  0  0  0
 20 23  2  0  0  0  0
 20 24  1  0  0  0  0
 21 23  1  0  0  0  0
 21 38  1  0  0  0  0
 22 24  2  0  0  0  0
 22 39  1  0  0  0  0
 23 40  1  0  0  0  0
 24 41  1  0  0  0  0
 25 42  1  0  0  0  0
 25 43  1  0  0  0  0
 25 44  1  0  0  0  0
M  END
> <PUBCHEM_COMPOUND_CID>
17396644

> <PUBCHEM_COMPOUND_CANONICALIZED>
1

> <PUBCHEM_CACTVS_COMPLEXITY>
565

> <PUBCHEM_CACTVS_HBOND_ACCEPTOR>
5

> <PUBCHEM_CACTVS_HBOND_DONOR>
1

> <PUBCHEM_CACTVS_ROTATABLE_BOND>
4

> <PUBCHEM_CACTVS_SUBSKEYS>
AAADceB6OABAAAAAAAAAAAAAAAAAAAAAAAA0YIAAAAAAAACRQAAAHgQQAAAADCzh2AayB4LABAqIAiFSEHDCCAAkKBAIiJkOjMgNJjKktRuGOSrk1hGKqYe42LOOMAABAAAAQABgAAIAAACAAAAAAAAAAA==

> <PUBCHEM_IUPAC_OPENEYE_NAME>
N-[1-(2,3-dihydro-1,4-benzodioxin-6-yl)ethyl]-4-methylsulfonyl-benzamide

> <PUBCHEM_IUPAC_CAS_NAME>
N-[1-(2,3-dihydro-1,4-benzodioxin-6-yl)ethyl]-4-methylsulfonylbenzamide

> <PUBCHEM_IUPAC_NAME>
N-[1-(2,3-dihydro-1,4-benzodioxin-6-yl)ethyl]-4-methylsulfonylbenzamide

> <PUBCHEM_IUPAC_SYSTEMATIC_NAME>
N-[1-(2,3-dihydro-1,4-benzodioxin-6-yl)ethyl]-4-methylsulfonyl-benzamide

> <PUBCHEM_IUPAC_TRADITIONAL_NAME>
N-[1-(2,3-dihydro-1,4-benzodioxin-6-yl)ethyl]-4-mesyl-benzamide

> <PUBCHEM_IUPAC_INCHI>
InChI=1S/C18H19NO5S/c1-12(14-5-8-16-17(11-14)24-10-9-23-16)19-18(20)13-3-6-15(7-4-13)25(2,21)22/h3-8,11-12H,9-10H2,1-2H3,(H,19,20)

> <PUBCHEM_IUPAC_INCHIKEY>
ZYHNKLZVHNIPMG-UHFFFAOYSA-N

> <PUBCHEM_XLOGP3_AA>
2

> <PUBCHEM_EXACT_MASS>
361.098394

> <PUBCHEM_MOLECULAR_FORMULA>
C18H19NO5S

> <PUBCHEM_MOLECULAR_WEIGHT>
361.41216

> <PUBCHEM_OPENEYE_CAN_SMILES>
CC(C1=CC2=C(C=C1)OCCO2)NC(=O)C3=CC=C(C=C3)S(=O)(=O)C

> <PUBCHEM_OPENEYE_ISO_SMILES>
CC(C1=CC2=C(C=C1)OCCO2)NC(=O)C3=CC=C(C=C3)S(=O)(=O)C

> <PUBCHEM_CACTVS_TPSA>
90.1

> <PUBCHEM_MONOISOTOPIC_WEIGHT>
361.098394

> <PUBCHEM_TOTAL_CHARGE>
0

> <PUBCHEM_HEAVY_ATOM_COUNT>
25

> <PUBCHEM_ATOM_DEF_STEREO_COUNT>
0

> <PUBCHEM_ATOM_UDEF_STEREO_COUNT>
1

> <PUBCHEM_BOND_DEF_STEREO_COUNT>
0

> <PUBCHEM_BOND_UDEF_STEREO_COUNT>
0

> <PUBCHEM_ISOTOPIC_ATOM_COUNT>
0

> <PUBCHEM_COMPONENT_COUNT>
1

> <PUBCHEM_CACTVS_TAUTO_COUNT>
2

> <PUBCHEM_COORDINATE_TYPE>
1
5
255

> <PUBCHEM_BONDANNOTATIONS>
10  11  8
11  13  8
13  15  8
14  15  8
19  21  8
19  22  8
20  23  8
20  24  8
21  23  8
22  24  8
8  12  3
9  10  8
9  14  8

$$$$

