   Color/Form
        Nearly colorless, viscous liquid
   from [1]HSDB

   Odor
        Mild odor
   from [2]HSDB

   Boiling Point
        370 deg C
   from [3]HSDB

   Melting Point
        -4 deg C /From Table/
   from [4]HSDB

   Density/Specific Gravity
        0.980-0.983 at 20 deg C/20 deg C
   from [5]HSDB

   Octanol/Water Partition Coefficient
        log Kow = 8.39 (est)
   from [6]HSDB

   Solubilities

     * ... compatible with vinyl chloride resins and some cellulosic
       resins
     * In water, 9.0X10-2 mg/L at 25 deg C

   from [7]HSDB

   Spectral Properties
        Intense mass spectral peaks: 149 m/z, 167 m/z, 279 m/z, 390 m/z
   from [8]HSDB

   Vapor Density
        13.5 (Air = 1)
   from [9]HSDB

   Vapor Pressure
        5.5X10-6 mm Hg at 25 deg C
   from [10]HSDB

   Viscosity
        83 cP at 20 deg C
   from [11]HSDB

   Other Chemical/Physical Properties

     * Bulk density: Wt/gal = 8.20 lb at 20 deg C
     * Phthalate esters are soluble to various extents in many common
       organic solvents and oils. /Phthalate esters/
     * /VAPOR PRESSURE IS/ 1.0 MM HG @ 200 DEG C
     * ... Resistance to migration from polymers, low temperature
       flexibility ... compatibility with polar polymers and additives
       over a wide range of compositions. /Phthalate esters/
     * Phthalate esters would be expected to have UV maxima in the 230 nm
       and 270 nm regions. /Phthalate esters/
     * Henry's Law constant = 3.14X10-5 atm-cu m/mol at 25 deg C (est)
     * Hydroxyl radical reaction rate constant = 2.06X10-11 cu
       cm/molec-sec at 25 deg C (est)

   from [12]HSDB

   Computed Properties
   Molecular Weight                  390.55612 [g/mol]
   Molecular Formula                 C[24]H[38]O[4]
   XLogP3                            8.5
   H-Bond Donor                      0
   H-Bond Acceptor                   4
   Rotatable Bond Count              16
   Exact Mass                        390.27701
   MonoIsotopic Mass                 390.27701
   Topological Polar Surface Area    52.6
   Heavy Atom Count                  28
   Formal Charge                     0
   Complexity                        390
   Isotope Atom Count                0
   Defined Atom Stereocenter Count   0
   Undefined Atom Stereocenter Count 0
   Defined Bond Stereocenter Count   0
   Undefined Bond Stereocenter Count 0
   Covalently-Bonded Unit Count      1

References

   1. http://toxnet.nlm.nih.gov/cgi-bin/sis/search/r?dbs+hsdb:@term+@rn+@rel+27554-26-3
   2. http://toxnet.nlm.nih.gov/cgi-bin/sis/search/r?dbs+hsdb:@term+@rn+@rel+27554-26-3
   3. http://toxnet.nlm.nih.gov/cgi-bin/sis/search/r?dbs+hsdb:@term+@rn+@rel+27554-26-3
   4. http://toxnet.nlm.nih.gov/cgi-bin/sis/search/r?dbs+hsdb:@term+@rn+@rel+27554-26-3
   5. http://toxnet.nlm.nih.gov/cgi-bin/sis/search/r?dbs+hsdb:@term+@rn+@rel+27554-26-3
   6. http://toxnet.nlm.nih.gov/cgi-bin/sis/search/r?dbs+hsdb:@term+@rn+@rel+27554-26-3
   7. http://toxnet.nlm.nih.gov/cgi-bin/sis/search/r?dbs+hsdb:@term+@rn+@rel+27554-26-3
   8. http://toxnet.nlm.nih.gov/cgi-bin/sis/search/r?dbs+hsdb:@term+@rn+@rel+27554-26-3
   9. http://toxnet.nlm.nih.gov/cgi-bin/sis/search/r?dbs+hsdb:@term+@rn+@rel+27554-26-3
  10. http://toxnet.nlm.nih.gov/cgi-bin/sis/search/r?dbs+hsdb:@term+@rn+@rel+27554-26-3
  11. http://toxnet.nlm.nih.gov/cgi-bin/sis/search/r?dbs+hsdb:@term+@rn+@rel+27554-26-3
  12. http://toxnet.nlm.nih.gov/cgi-bin/sis/search/r?dbs+hsdb:@term+@rn+@rel+27554-26-3
