12315507
  -OEChem-07051213112D

 81 84  0     1  0  0  0  0  0999 V2000
    2.9316    5.1888    0.0000 O   0  0  0  0  0  0  0  0  0  0  0  0
    3.8507   -0.5080    0.0000 C   0  0  2  0  0  0  0  0  0  0  0  0
    2.9847    0.9920    0.0000 C   0  0  2  0  0  0  0  0  0  0  0  0
    3.8507    0.4920    0.0000 C   0  0  2  0  0  0  0  0  0  0  0  0
    2.9847   -1.0079    0.0000 C   0  0  1  0  0  0  0  0  0  0  0  0
    2.9686    2.0336    0.0000 C   0  0  1  0  0  0  0  0  0  0  0  0
    3.8667    2.5613    0.0000 C   0  0  2  0  0  0  0  0  0  0  0  0
    2.1187    0.4920    0.0000 C   0  0  0  0  0  0  0  0  0  0  0  0
    2.1187   -0.5080    0.0000 C   0  0  0  0  0  0  0  0  0  0  0  0
    4.7607    0.9989    0.0000 C   0  0  0  0  0  0  0  0  0  0  0  0
    4.7607   -1.0148    0.0000 C   0  0  0  0  0  0  0  0  0  0  0  0
    2.9686   -2.0495    0.0000 C   0  0  0  0  0  0  0  0  0  0  0  0
    4.7688    2.0405    0.0000 C   0  0  0  0  0  0  0  0  0  0  0  0
    3.8667   -2.5772    0.0000 C   0  0  1  0  0  0  0  0  0  0  0  0
    4.7688   -2.0564    0.0000 C   0  0  0  0  0  0  0  0  0  0  0  0
    2.0167    2.5542    0.0000 C   0  0  0  0  0  0  0  0  0  0  0  0
    4.7168   -0.0080    0.0000 C   0  0  0  0  0  0  0  0  0  0  0  0
    2.1187    1.4921    0.0000 C   0  0  0  0  0  0  0  0  0  0  0  0
    3.8751    3.6463    0.0000 C   0  0  2  0  0  0  0  0  0  0  0  0
    2.1187   -1.5079    0.0000 C   0  0  0  0  0  0  0  0  0  0  0  0
    4.7288    3.0680    0.0000 C   0  0  0  0  0  0  0  0  0  0  0  0
    2.0000    3.6390    0.0000 C   0  0  0  0  0  0  0  0  0  0  0  0
    4.3633   -3.4452    0.0000 C   0  0  0  0  0  0  0  0  0  0  0  0
    2.9354    4.1888    0.0000 C   0  0  0  0  0  0  0  0  0  0  0  0
    3.3634   -3.4413    0.0000 C   0  0  0  0  0  0  0  0  0  0  0  0
    4.7430    4.1429    0.0000 C   0  0  0  0  0  0  0  0  0  0  0  0
    5.3633   -3.4490    0.0000 C   0  0  0  0  0  0  0  0  0  0  0  0
    5.8600   -4.3170    0.0000 C   0  0  0  0  0  0  0  0  0  0  0  0
    6.8600   -4.3208    0.0000 C   0  0  0  0  0  0  0  0  0  0  0  0
    7.3566   -5.1888    0.0000 C   0  0  0  0  0  0  0  0  0  0  0  0
    7.3633   -3.4567    0.0000 C   0  0  0  0  0  0  0  0  0  0  0  0
    4.5836    0.0614    0.0000 H   0  0  0  0  0  0  0  0  0  0  0  0
    2.2409    1.5944    0.0000 H   0  0  0  0  0  0  0  0  0  0  0  0
    1.9066    1.0747    0.0000 H   0  0  0  0  0  0  0  0  0  0  0  0
    1.5081    0.3844    0.0000 H   0  0  0  0  0  0  0  0  0  0  0  0
    1.5081   -0.4003    0.0000 H   0  0  0  0  0  0  0  0  0  0  0  0
    1.9066   -1.0906    0.0000 H   0  0  0  0  0  0  0  0  0  0  0  0
    4.9653    0.4136    0.0000 H   0  0  0  0  0  0  0  0  0  0  0  0
    5.3724    1.1003    0.0000 H   0  0  0  0  0  0  0  0  0  0  0  0
    5.3724   -1.1162    0.0000 H   0  0  0  0  0  0  0  0  0  0  0  0
    4.9653   -0.4295    0.0000 H   0  0  0  0  0  0  0  0  0  0  0  0
    2.3595   -1.9340    0.0000 H   0  0  0  0  0  0  0  0  0  0  0  0
    2.7506   -2.6299    0.0000 H   0  0  0  0  0  0  0  0  0  0  0  0
    5.3788    1.9297    0.0000 H   0  0  0  0  0  0  0  0  0  0  0  0
    4.9823    2.6226    0.0000 H   0  0  0  0  0  0  0  0  0  0  0  0
    4.9823   -2.6385    0.0000 H   0  0  0  0  0  0  0  0  0  0  0  0
    5.3788   -1.9456    0.0000 H   0  0  0  0  0  0  0  0  0  0  0  0
    1.4043    2.6508    0.0000 H   0  0  0  0  0  0  0  0  0  0  0  0
    1.8167    1.9673    0.0000 H   0  0  0  0  0  0  0  0  0  0  0  0
    5.0268   -0.5449    0.0000 H   0  0  0  0  0  0  0  0  0  0  0  0
    5.2537    0.3020    0.0000 H   0  0  0  0  0  0  0  0  0  0  0  0
    4.4068    0.5290    0.0000 H   0  0  0  0  0  0  0  0  0  0  0  0
    2.4287    2.0290    0.0000 H   0  0  0  0  0  0  0  0  0  0  0  0
    1.5818    1.8020    0.0000 H   0  0  0  0  0  0  0  0  0  0  0  0
    1.8087    0.9551    0.0000 H   0  0  0  0  0  0  0  0  0  0  0  0
    3.8762    4.2663    0.0000 H   0  0  0  0  0  0  0  0  0  0  0  0
    1.8087   -0.9710    0.0000 H   0  0  0  0  0  0  0  0  0  0  0  0
    1.5818   -1.8180    0.0000 H   0  0  0  0  0  0  0  0  0  0  0  0
    2.4287   -2.0449    0.0000 H   0  0  0  0  0  0  0  0  0  0  0  0
    5.0430    2.5334    0.0000 H   0  0  0  0  0  0  0  0  0  0  0  0
    5.2634    3.3821    0.0000 H   0  0  0  0  0  0  0  0  0  0  0  0
    4.4147    3.6025    0.0000 H   0  0  0  0  0  0  0  0  0  0  0  0
    1.7820    4.2194    0.0000 H   0  0  0  0  0  0  0  0  0  0  0  0
    1.3908    3.5236    0.0000 H   0  0  0  0  0  0  0  0  0  0  0  0
    3.7799   -3.6550    0.0000 H   0  0  0  0  0  0  0  0  0  0  0  0
    4.4687   -4.0562    0.0000 H   0  0  0  0  0  0  0  0  0  0  0  0
    2.8276   -3.1292    0.0000 H   0  0  0  0  0  0  0  0  0  0  0  0
    3.0513   -3.9770    0.0000 H   0  0  0  0  0  0  0  0  0  0  0  0
    3.8991   -3.7534    0.0000 H   0  0  0  0  0  0  0  0  0  0  0  0
    5.0509    3.6048    0.0000 H   0  0  0  0  0  0  0  0  0  0  0  0
    5.2811    4.4509    0.0000 H   0  0  0  0  0  0  0  0  0  0  0  0
    4.4351    4.6811    0.0000 H   0  0  0  0  0  0  0  0  0  0  0  0
    5.9468   -3.2392    0.0000 H   0  0  0  0  0  0  0  0  0  0  0  0
    5.2580   -2.8380    0.0000 H   0  0  0  0  0  0  0  0  0  0  0  0
    5.5479   -4.8527    0.0000 H   0  0  0  0  0  0  0  0  0  0  0  0
    7.8991   -3.7688    0.0000 H   0  0  0  0  0  0  0  0  0  0  0  0
    7.6754   -2.9210    0.0000 H   0  0  0  0  0  0  0  0  0  0  0  0
    6.8276   -3.1447    0.0000 H   0  0  0  0  0  0  0  0  0  0  0  0
    6.8185   -5.4967    0.0000 H   0  0  0  0  0  0  0  0  0  0  0  0
    7.6646   -5.7269    0.0000 H   0  0  0  0  0  0  0  0  0  0  0  0
    7.8948   -4.8808    0.0000 H   0  0  0  0  0  0  0  0  0  0  0  0
  1 24  2  0  0  0  0
  2  4  1  0  0  0  0
  2  5  1  0  0  0  0
  2 11  1  0  0  0  0
  2 17  1  6  0  0  0
  3  4  1  0  0  0  0
  3  6  1  0  0  0  0
  3  8  1  0  0  0  0
  3 18  1  6  0  0  0
  4 10  1  0  0  0  0
  4 32  1  1  0  0  0
  5  9  1  0  0  0  0
  5 12  1  0  0  0  0
  5 20  1  1  0  0  0
  6  7  1  0  0  0  0
  6 16  1  0  0  0  0
  6 33  1  1  0  0  0
  7 13  1  0  0  0  0
  7 19  1  0  0  0  0
  7 21  1  6  0  0  0
  8  9  1  0  0  0  0
  8 34  1  0  0  0  0
  8 35  1  0  0  0  0
  9 36  1  0  0  0  0
  9 37  1  0  0  0  0
 10 13  1  0  0  0  0
 10 38  1  0  0  0  0
 10 39  1  0  0  0  0
 11 15  1  0  0  0  0
 11 40  1  0  0  0  0
 11 41  1  0  0  0  0
 12 14  1  0  0  0  0
 12 42  1  0  0  0  0
 12 43  1  0  0  0  0
 13 44  1  0  0  0  0
 13 45  1  0  0  0  0
 14 15  1  0  0  0  0
 14 23  1  0  0  0  0
 14 25  1  6  0  0  0
 15 46  1  0  0  0  0
 15 47  1  0  0  0  0
 16 22  1  0  0  0  0
 16 48  1  0  0  0  0
 16 49  1  0  0  0  0
 17 50  1  0  0  0  0
 17 51  1  0  0  0  0
 17 52  1  0  0  0  0
 18 53  1  0  0  0  0
 18 54  1  0  0  0  0
 18 55  1  0  0  0  0
 19 24  1  0  0  0  0
 19 26  1  6  0  0  0
 19 56  1  0  0  0  0
 20 57  1  0  0  0  0
 20 58  1  0  0  0  0
 20 59  1  0  0  0  0
 21 60  1  0  0  0  0
 21 61  1  0  0  0  0
 21 62  1  0  0  0  0
 22 24  1  0  0  0  0
 22 63  1  0  0  0  0
 22 64  1  0  0  0  0
 23 27  1  0  0  0  0
 23 65  1  0  0  0  0
 23 66  1  0  0  0  0
 25 67  1  0  0  0  0
 25 68  1  0  0  0  0
 25 69  1  0  0  0  0
 26 70  1  0  0  0  0
 26 71  1  0  0  0  0
 26 72  1  0  0  0  0
 27 28  1  0  0  0  0
 27 73  1  0  0  0  0
 27 74  1  0  0  0  0
 28 29  2  0  0  0  0
 28 75  1  0  0  0  0
 29 30  1  0  0  0  0
 29 31  1  0  0  0  0
 30 79  1  0  0  0  0
 30 80  1  0  0  0  0
 30 81  1  0  0  0  0
 31 76  1  0  0  0  0
 31 77  1  0  0  0  0
 31 78  1  0  0  0  0
M  END
> <PUBCHEM_COMPOUND_CID>
12315507

> <PUBCHEM_COMPOUND_CANONICALIZED>
1

> <PUBCHEM_CACTVS_COMPLEXITY>
760

> <PUBCHEM_CACTVS_HBOND_ACCEPTOR>
1

> <PUBCHEM_CACTVS_HBOND_DONOR>
0

> <PUBCHEM_CACTVS_ROTATABLE_BOND>
3

> <PUBCHEM_CACTVS_SUBSKEYS>
AAADcfB4IAAAAAAAAAAAAAAAAAAAAAAAAAAwYMGAAAAAAADAAAAAGgAAAAAADwSAgAACAAAAAACIAqBSAAAAAAAgAAAACAEAAAgAABIAAQAAAAAAgAAIAAMIiMCPgAAAAAAAAACAAAQAACAAAAAAAAAAAA==

> <PUBCHEM_IUPAC_OPENEYE_NAME>
(1R,4aS,4bS,6aS,8R,10aR,10bS,12aS)-1,4b,6a,8,10a,12a-hexamethyl-8-(4-methylpent-3-enyl)-1,3,4,4a,5,6,7,9,10,10b,11,12-dodecahydrochrysen-2-one

> <PUBCHEM_IUPAC_CAS_NAME>
(1R,4aS,4bS,6aS,8R,10aR,10bS,12aS)-1,4b,6a,8,10a,12a-hexamethyl-8-(4-methylpent-3-enyl)-1,3,4,4a,5,6,7,9,10,10b,11,12-dodecahydrochrysen-2-one

> <PUBCHEM_IUPAC_NAME>
(1R,4aS,4bS,6aS,8R,10aR,10bS,12aS)-1,4b,6a,8,10a,12a-hexamethyl-8-(4-methylpent-3-enyl)-1,3,4,4a,5,6,7,9,10,10b,11,12-dodecahydrochrysen-2-one

> <PUBCHEM_IUPAC_SYSTEMATIC_NAME>
(1R,4aS,4bS,6aS,8R,10aR,10bS,12aS)-1,4b,6a,8,10a,12a-hexamethyl-8-(4-methylpent-3-enyl)-1,3,4,4a,5,6,7,9,10,10b,11,12-dodecahydrochrysen-2-one

> <PUBCHEM_IUPAC_TRADITIONAL_NAME>
(1R,4aS,4bS,6aS,8R,10aR,10bS,12aS)-1,4b,6a,8,10a,12a-hexamethyl-8-(4-methylpent-3-enyl)-1,3,4,4a,5,6,7,9,10,10b,11,12-dodecahydrochrysen-2-one

> <PUBCHEM_IUPAC_INCHI>
InChI=1S/C30H50O/c1-21(2)10-9-14-26(4)16-19-30(8)25-13-15-28(6)22(3)23(31)11-12-24(28)29(25,7)18-17-27(30,5)20-26/h10,22,24-25H,9,11-20H2,1-8H3/t22-,24+,25-,26+,27-,28+,29-,30+/m0/s1

> <PUBCHEM_IUPAC_INCHIKEY>
HXPXUNQUXCHJLL-LZQQOHPBSA-N

> <PUBCHEM_XLOGP3_AA>
10

> <PUBCHEM_EXACT_MASS>
426.386166

> <PUBCHEM_MOLECULAR_FORMULA>
C30H50O

> <PUBCHEM_MOLECULAR_WEIGHT>
426.7174

> <PUBCHEM_OPENEYE_CAN_SMILES>
CC1C(=O)CCC2C1(CCC3C2(CCC4(C3(CCC(C4)(C)CCC=C(C)C)C)C)C)C

> <PUBCHEM_OPENEYE_ISO_SMILES>
C[C@H]1C(=O)CC[C@@H]2[C@@]1(CC[C@H]3[C@]2(CC[C@@]4([C@@]3(CC[C@@](C4)(C)CCC=C(C)C)C)C)C)C

> <PUBCHEM_CACTVS_TPSA>
17.1

> <PUBCHEM_MONOISOTOPIC_WEIGHT>
426.386166

> <PUBCHEM_TOTAL_CHARGE>
0

> <PUBCHEM_HEAVY_ATOM_COUNT>
31

> <PUBCHEM_ATOM_DEF_STEREO_COUNT>
8

> <PUBCHEM_ATOM_UDEF_STEREO_COUNT>
0

> <PUBCHEM_BOND_DEF_STEREO_COUNT>
0

> <PUBCHEM_BOND_UDEF_STEREO_COUNT>
0

> <PUBCHEM_ISOTOPIC_ATOM_COUNT>
0

> <PUBCHEM_COMPONENT_COUNT>
1

> <PUBCHEM_CACTVS_TAUTO_COUNT>
3

> <PUBCHEM_COORDINATE_TYPE>
1
5
255

> <PUBCHEM_BONDANNOTATIONS>
14  25  6
19  26  6
2  17  6
3  18  6
4  32  5
5  20  5
6  33  5
7  21  6

$$$$

