165531
  -OEChem-07051213082D

 81 84  0     1  0  0  0  0  0999 V2000
    7.0628    0.4632    0.0000 O   0  0  0  0  0  0  0  0  0  0  0  0
    7.9506   -4.0683    0.0000 O   0  0  0  0  0  0  0  0  0  0  0  0
    2.5357   -4.0891    0.0000 O   0  0  0  0  0  0  0  0  0  0  0  0
   12.1212    0.8371    0.0000 O   0  0  0  0  0  0  0  0  0  0  0  0
   11.4069    4.2268    0.0000 O   0  0  0  0  0  0  0  0  0  0  0  0
   13.0532    3.6887    0.0000 O   0  0  0  0  0  0  0  0  0  0  0  0
    7.9288   -1.0368    0.0000 C   0  0  1  0  0  0  0  0  0  0  0  0
    7.9288   -2.0368    0.0000 C   0  0  2  0  0  0  0  0  0  0  0  0
    7.0628   -2.5368    0.0000 C   0  0  1  0  0  0  0  0  0  0  0  0
    6.1968   -2.0368    0.0000 C   0  0  1  0  0  0  0  0  0  0  0  0
    5.2868   -2.5436    0.0000 C   0  0  2  0  0  0  0  0  0  0  0  0
    8.8750   -0.7321    0.0000 C   0  0  2  0  0  0  0  0  0  0  0  0
    7.0628   -0.5368    0.0000 C   0  0  2  0  0  0  0  0  0  0  0  0
    6.1968   -1.0368    0.0000 C   0  0  0  0  0  0  0  0  0  0  0  0
    5.2787   -3.5852    0.0000 C   0  0  2  0  0  0  0  0  0  0  0  0
    8.8750   -2.3415    0.0000 C   0  0  0  0  0  0  0  0  0  0  0  0
    7.0789   -3.5783    0.0000 C   0  0  1  0  0  0  0  0  0  0  0  0
    9.4586   -1.5368    0.0000 C   0  0  0  0  0  0  0  0  0  0  0  0
    6.1808   -4.1061    0.0000 C   0  0  0  0  0  0  0  0  0  0  0  0
    4.3599   -1.9796    0.0000 C   0  0  0  0  0  0  0  0  0  0  0  0
    7.9288   -0.0368    0.0000 C   0  0  0  0  0  0  0  0  0  0  0  0
    9.1857    0.2185    0.0000 C   0  0  1  0  0  0  0  0  0  0  0  0
    4.3433   -4.1350    0.0000 C   0  0  0  0  0  0  0  0  0  0  0  0
    5.2945   -1.5437    0.0000 C   0  0  0  0  0  0  0  0  0  0  0  0
    3.4120   -2.5075    0.0000 C   0  0  0  0  0  0  0  0  0  0  0  0
    3.4037   -3.5925    0.0000 C   0  0  1  0  0  0  0  0  0  0  0  0
   10.1642    0.4247    0.0000 C   0  0  0  0  0  0  0  0  0  0  0  0
    8.5179    0.9628    0.0000 C   0  0  0  0  0  0  0  0  0  0  0  0
   10.4749    1.3752    0.0000 C   0  0  0  0  0  0  0  0  0  0  0  0
   11.4534    1.5814    0.0000 C   0  0  2  0  0  0  0  0  0  0  0  0
   11.7640    2.5319    0.0000 C   0  0  0  0  0  0  0  0  0  0  0  0
   12.7425    2.7382    0.0000 C   0  0  0  0  0  0  0  0  0  0  0  0
   11.0962    3.2762    0.0000 C   0  0  0  0  0  0  0  0  0  0  0  0
    8.0188   -2.8820    0.0000 H   0  0  0  0  0  0  0  0  0  0  0  0
    7.8022   -2.9561    0.0000 H   0  0  0  0  0  0  0  0  0  0  0  0
    6.9329   -1.6118    0.0000 H   0  0  0  0  0  0  0  0  0  0  0  0
    9.7148   -0.6002    0.0000 H   0  0  0  0  0  0  0  0  0  0  0  0
    7.5997   -0.2268    0.0000 H   0  0  0  0  0  0  0  0  0  0  0  0
    5.9847   -0.4542    0.0000 H   0  0  0  0  0  0  0  0  0  0  0  0
    5.5862   -1.1445    0.0000 H   0  0  0  0  0  0  0  0  0  0  0  0
    5.2820   -4.4352    0.0000 H   0  0  0  0  0  0  0  0  0  0  0  0
    8.6240   -2.9084    0.0000 H   0  0  0  0  0  0  0  0  0  0  0  0
    9.4124   -2.6508    0.0000 H   0  0  0  0  0  0  0  0  0  0  0  0
    7.6116   -3.2611    0.0000 H   0  0  0  0  0  0  0  0  0  0  0  0
    9.9195   -1.9515    0.0000 H   0  0  0  0  0  0  0  0  0  0  0  0
    9.9195   -1.1221    0.0000 H   0  0  0  0  0  0  0  0  0  0  0  0
    5.7835   -4.5820    0.0000 H   0  0  0  0  0  0  0  0  0  0  0  0
    6.5818   -4.5790    0.0000 H   0  0  0  0  0  0  0  0  0  0  0  0
    4.7681   -1.5129    0.0000 H   0  0  0  0  0  0  0  0  0  0  0  0
    3.9700   -1.4975    0.0000 H   0  0  0  0  0  0  0  0  0  0  0  0
    8.5488   -0.0368    0.0000 H   0  0  0  0  0  0  0  0  0  0  0  0
    7.9288    0.5832    0.0000 H   0  0  0  0  0  0  0  0  0  0  0  0
    7.3088   -0.0368    0.0000 H   0  0  0  0  0  0  0  0  0  0  0  0
    9.3783    0.8078    0.0000 H   0  0  0  0  0  0  0  0  0  0  0  0
    3.9460   -4.6109    0.0000 H   0  0  0  0  0  0  0  0  0  0  0  0
    4.7443   -4.6079    0.0000 H   0  0  0  0  0  0  0  0  0  0  0  0
    5.9145   -1.5485    0.0000 H   0  0  0  0  0  0  0  0  0  0  0  0
    5.2993   -0.9237    0.0000 H   0  0  0  0  0  0  0  0  0  0  0  0
    4.6745   -1.5389    0.0000 H   0  0  0  0  0  0  0  0  0  0  0  0
    3.2075   -1.9222    0.0000 H   0  0  0  0  0  0  0  0  0  0  0  0
    2.8004   -2.6089    0.0000 H   0  0  0  0  0  0  0  0  0  0  0  0
    2.8686   -3.2794    0.0000 H   0  0  0  0  0  0  0  0  0  0  0  0
    6.5259    0.7732    0.0000 H   0  0  0  0  0  0  0  0  0  0  0  0
   10.1848   -0.1950    0.0000 H   0  0  0  0  0  0  0  0  0  0  0  0
   10.7780    0.3373    0.0000 H   0  0  0  0  0  0  0  0  0  0  0  0
    7.9578   -4.6882    0.0000 H   0  0  0  0  0  0  0  0  0  0  0  0
    8.9793    1.3768    0.0000 H   0  0  0  0  0  0  0  0  0  0  0  0
    8.1038    1.4242    0.0000 H   0  0  0  0  0  0  0  0  0  0  0  0
    8.0564    0.5487    0.0000 H   0  0  0  0  0  0  0  0  0  0  0  0
   10.4543    1.9948    0.0000 H   0  0  0  0  0  0  0  0  0  0  0  0
    9.8611    1.4625    0.0000 H   0  0  0  0  0  0  0  0  0  0  0  0
    2.0000   -3.7771    0.0000 H   0  0  0  0  0  0  0  0  0  0  0  0
   12.0601    1.7093    0.0000 H   0  0  0  0  0  0  0  0  0  0  0  0
   12.1781    2.0705    0.0000 H   0  0  0  0  0  0  0  0  0  0  0  0
   12.7279    0.9650    0.0000 H   0  0  0  0  0  0  0  0  0  0  0  0
   12.7631    2.1185    0.0000 H   0  0  0  0  0  0  0  0  0  0  0  0
   13.3564    2.6508    0.0000 H   0  0  0  0  0  0  0  0  0  0  0  0
   10.5493    3.5682    0.0000 H   0  0  0  0  0  0  0  0  0  0  0  0
   10.7136    2.7883    0.0000 H   0  0  0  0  0  0  0  0  0  0  0  0
   10.9928    4.6882    0.0000 H   0  0  0  0  0  0  0  0  0  0  0  0
   13.6599    3.8165    0.0000 H   0  0  0  0  0  0  0  0  0  0  0  0
 13  1  1  6  0  0  0
  1 63  1  0  0  0  0
 17  2  1  6  0  0  0
  2 66  1  0  0  0  0
 26  3  1  6  0  0  0
  3 72  1  0  0  0  0
 30  4  1  6  0  0  0
  4 75  1  0  0  0  0
  5 33  1  0  0  0  0
  5 80  1  0  0  0  0
  6 32  1  0  0  0  0
  6 81  1  0  0  0  0
  7  8  1  0  0  0  0
  7 12  1  0  0  0  0
  7 13  1  0  0  0  0
  7 21  1  1  0  0  0
  8  9  1  0  0  0  0
  8 16  1  0  0  0  0
  8 34  1  6  0  0  0
  9 10  1  0  0  0  0
  9 17  1  0  0  0  0
  9 35  1  1  0  0  0
 10 11  1  0  0  0  0
 10 14  1  0  0  0  0
 10 36  1  6  0  0  0
 11 15  1  0  0  0  0
 11 20  1  0  0  0  0
 11 24  1  1  0  0  0
 12 18  1  0  0  0  0
 12 22  1  0  0  0  0
 12 37  1  6  0  0  0
 13 14  1  0  0  0  0
 13 38  1  0  0  0  0
 14 39  1  0  0  0  0
 14 40  1  0  0  0  0
 15 19  1  0  0  0  0
 15 23  1  0  0  0  0
 15 41  1  1  0  0  0
 16 18  1  0  0  0  0
 16 42  1  0  0  0  0
 16 43  1  0  0  0  0
 17 19  1  0  0  0  0
 17 44  1  0  0  0  0
 18 45  1  0  0  0  0
 18 46  1  0  0  0  0
 19 47  1  0  0  0  0
 19 48  1  0  0  0  0
 20 25  1  0  0  0  0
 20 49  1  0  0  0  0
 20 50  1  0  0  0  0
 21 51  1  0  0  0  0
 21 52  1  0  0  0  0
 21 53  1  0  0  0  0
 22 27  1  0  0  0  0
 22 28  1  6  0  0  0
 22 54  1  0  0  0  0
 23 26  1  0  0  0  0
 23 55  1  0  0  0  0
 23 56  1  0  0  0  0
 24 57  1  0  0  0  0
 24 58  1  0  0  0  0
 24 59  1  0  0  0  0
 25 26  1  0  0  0  0
 25 60  1  0  0  0  0
 25 61  1  0  0  0  0
 26 62  1  0  0  0  0
 27 29  1  0  0  0  0
 27 64  1  0  0  0  0
 27 65  1  0  0  0  0
 28 67  1  0  0  0  0
 28 68  1  0  0  0  0
 28 69  1  0  0  0  0
 29 30  1  0  0  0  0
 29 70  1  0  0  0  0
 29 71  1  0  0  0  0
 30 31  1  0  0  0  0
 30 73  1  0  0  0  0
 31 32  1  0  0  0  0
 31 33  1  0  0  0  0
 31 74  1  0  0  0  0
 32 76  1  0  0  0  0
 32 77  1  0  0  0  0
 33 78  1  0  0  0  0
 33 79  1  0  0  0  0
M  END
> <PUBCHEM_COMPOUND_CID>
165531

> <PUBCHEM_COMPOUND_CANONICALIZED>
1

> <PUBCHEM_CACTVS_COMPLEXITY>
669

> <PUBCHEM_CACTVS_HBOND_ACCEPTOR>
6

> <PUBCHEM_CACTVS_HBOND_DONOR>
6

> <PUBCHEM_CACTVS_ROTATABLE_BOND>
7

> <PUBCHEM_CACTVS_SUBSKEYS>
AAADcfB4OAAAAAAAAAAAAAAAAAAAAYAAAAAwYMAAAAAAAGDAAAAAGgAACAAADxSggAICAAAAAgAAAAAAAAAAAAAAAAAAAAAAAAAAEAIAAAAAQAAFAAAAAAGA4PQPgAAAAAAAAADAAAYAADAAAQAACAAAAA==

> <PUBCHEM_IUPAC_OPENEYE_NAME>
(3R,5S,7R,8R,9S,10S,12S,13R,14S,17R)-17-[(1R,4R)-4,6-dihydroxy-5-(hydroxymethyl)-1-methyl-hexyl]-10,13-dimethyl-2,3,4,5,6,7,8,9,11,12,14,15,16,17-tetradecahydro-1H-cyclopenta[a]phenanthrene-3,7,12-triol

> <PUBCHEM_IUPAC_CAS_NAME>
(3R,5S,7R,8R,9S,10S,12S,13R,14S,17R)-17-[(2R,5R)-5,7-dihydroxy-6-(hydroxymethyl)heptan-2-yl]-10,13-dimethyl-2,3,4,5,6,7,8,9,11,12,14,15,16,17-tetradecahydro-1H-cyclopenta[a]phenanthrene-3,7,12-triol

> <PUBCHEM_IUPAC_NAME>
(3R,5S,7R,8R,9S,10S,12S,13R,14S,17R)-17-[(2R,5R)-5,7-dihydroxy-6-(hydroxymethyl)heptan-2-yl]-10,13-dimethyl-2,3,4,5,6,7,8,9,11,12,14,15,16,17-tetradecahydro-1H-cyclopenta[a]phenanthrene-3,7,12-triol

> <PUBCHEM_IUPAC_SYSTEMATIC_NAME>
(3R,5S,7R,8R,9S,10S,12S,13R,14S,17R)-17-[(2R,5R)-6-(hydroxymethyl)-5,7-bis(oxidanyl)heptan-2-yl]-10,13-dimethyl-2,3,4,5,6,7,8,9,11,12,14,15,16,17-tetradecahydro-1H-cyclopenta[a]phenanthrene-3,7,12-triol

> <PUBCHEM_IUPAC_TRADITIONAL_NAME>
(3R,5S,7R,8R,9S,10S,12S,13R,14S,17R)-17-[(1R,4R)-4,6-dihydroxy-1-methyl-5-methylol-hexyl]-10,13-dimethyl-2,3,4,5,6,7,8,9,11,12,14,15,16,17-tetradecahydro-1H-cyclopenta[a]phenanthrene-3,7,12-triol

> <PUBCHEM_IUPAC_INCHI>
InChI=1S/C27H48O6/c1-15(4-7-22(31)16(13-28)14-29)19-5-6-20-25-21(12-24(33)27(19,20)3)26(2)9-8-18(30)10-17(26)11-23(25)32/h15-25,28-33H,4-14H2,1-3H3/t15-,17+,18-,19-,20+,21+,22-,23-,24+,25+,26+,27-/m1/s1

> <PUBCHEM_IUPAC_INCHIKEY>
DIPHJTHZUWDJIK-JPLAUYQNSA-N

> <PUBCHEM_XLOGP3_AA>
2.7

> <PUBCHEM_EXACT_MASS>
468.345089

> <PUBCHEM_MOLECULAR_FORMULA>
C27H48O6

> <PUBCHEM_MOLECULAR_WEIGHT>
468.66642

> <PUBCHEM_OPENEYE_CAN_SMILES>
CC(CCC(C(CO)CO)O)C1CCC2C1(C(CC3C2C(CC4C3(CCC(C4)O)C)O)O)C

> <PUBCHEM_OPENEYE_ISO_SMILES>
C[C@H](CC[C@H](C(CO)CO)O)[C@H]1CC[C@@H]2[C@@]1([C@H](C[C@H]3[C@H]2[C@@H](C[C@H]4[C@@]3(CC[C@H](C4)O)C)O)O)C

> <PUBCHEM_CACTVS_TPSA>
121

> <PUBCHEM_MONOISOTOPIC_WEIGHT>
468.345089

> <PUBCHEM_TOTAL_CHARGE>
0

> <PUBCHEM_HEAVY_ATOM_COUNT>
33

> <PUBCHEM_ATOM_DEF_STEREO_COUNT>
12

> <PUBCHEM_ATOM_UDEF_STEREO_COUNT>
0

> <PUBCHEM_BOND_DEF_STEREO_COUNT>
0

> <PUBCHEM_BOND_UDEF_STEREO_COUNT>
0

> <PUBCHEM_ISOTOPIC_ATOM_COUNT>
0

> <PUBCHEM_COMPONENT_COUNT>
1

> <PUBCHEM_CACTVS_TAUTO_COUNT>
1

> <PUBCHEM_COORDINATE_TYPE>
1
5
255

> <PUBCHEM_BONDANNOTATIONS>
13  1  6
10  36  6
11  24  5
12  37  6
15  41  5
17  2  6
22  28  6
26  3  6
30  4  6
7  21  5
8  34  6
9  35  5

$$$$

