   Color/Form

     * Yellow monoclinic needles from water
     * Colorless prisms (from toluene)

   from [1]HSDB

   Odor
        Phenolic odor
   from [2]HSDB

   Taste
        Disagreeable, burning taste
   from [3]HSDB

   Boiling Point
        288 deg C
   from [4]HSDB

   Melting Point
        96 deg C
   from [5]HSDB

   Density/Specific Gravity
        1.0954 at 98.7 deg C/4 deg C
   from [6]HSDB

   Dissociation Constants
        pKa = 9.34 at 25 deg C
   from [7]HSDB

   Heat of Combustion
        4957.4 kJ/mol (crystal) at 298.16 deg K; 5048.5 kJ/mol at 298.16
   deg K (gas)
   from [8]HSDB

   Octanol/Water Partition Coefficient
        log Kow = 2.85
   from [9]HSDB

   Solubilities

     * In water, 866 mg/L at 25 deg C
     * Very soluble in ethanol and ether, soluble in acetone
     * Freely soluble in benzene, chloroform and alkali hydroxide
       solutions

   from [10]HSDB

   Spectral Properties

     * Index of refraction: 1.6224 at 99 deg C/D
     * MAX ABSORPTION: 292 NM, 308 NM, 322 NM (LOG E= 3.67, 3.52, 3.31)
     * IR: 6106 (Coblentz Society Spectral Collection)
     * UV: 2045 (Sadtler Research Laboratories Spectral Collection)
     * NMR: 5 (Sadtler Research Laboratories Spectral Collection)
     * MASS: 52368 (NIST/EPA/MSDC Mass Spectral Database, 1990 version);
       788 (Atlas of Mass Spectral Data, John Wiley $ Sons, New York)

   from [11]HSDB

   Vapor Pressure
        1.7 mm Hg at 110 deg C (2.74X10-4 mm Hg at 25 deg C) /extrapolated
   to solid-phase/
   from [12]HSDB

   Other Chemical/Physical Properties

     * Reduces ammoniacal silver nitrate. Sublimable; volatile with steam.
     * Enthalpy of fusion = 23.1 kJ/mol
     * Henry's Law constant = 6.0X10-8 atm-cu m/mole at 25 deg C (est)
     * Hydroxyl radical reaction rate constant = 1.34X10-12 cu
       cm/molecule-sec at 25 deg C

   from [13]HSDB

   Computed Properties
   Molecular Weight                  144.16992 [g/mol]
   Molecular Formula                 C[10]H[8]O
   XLogP3                            2.8
   H-Bond Donor                      1
   H-Bond Acceptor                   1
   Rotatable Bond Count              0
   Tautomer Count                    2
   Exact Mass                        144.057515
   MonoIsotopic Mass                 144.057515
   Topological Polar Surface Area    20.2
   Heavy Atom Count                  11
   Formal Charge                     0
   Complexity                        133
   Isotope Atom Count                0
   Defined Atom Stereocenter Count   0
   Undefined Atom Stereocenter Count 0
   Defined Bond Stereocenter Count   0
   Undefined Bond Stereocenter Count 0
   Covalently-Bonded Unit Count      1
   Feature 3D Donor Count            1
   Feature 3D Ring Count             2
   Effective Rotor Count             0
   Conformer Sampling RMSD           0.4
   CID Conformer Count               [14]1

References

   1. http://toxnet.nlm.nih.gov/cgi-bin/sis/search/r?dbs+hsdb:@term+@rn+@rel+90-15-3
   2. http://toxnet.nlm.nih.gov/cgi-bin/sis/search/r?dbs+hsdb:@term+@rn+@rel+90-15-3
   3. http://toxnet.nlm.nih.gov/cgi-bin/sis/search/r?dbs+hsdb:@term+@rn+@rel+90-15-3
   4. http://toxnet.nlm.nih.gov/cgi-bin/sis/search/r?dbs+hsdb:@term+@rn+@rel+90-15-3
   5. http://toxnet.nlm.nih.gov/cgi-bin/sis/search/r?dbs+hsdb:@term+@rn+@rel+90-15-3
   6. http://toxnet.nlm.nih.gov/cgi-bin/sis/search/r?dbs+hsdb:@term+@rn+@rel+90-15-3
   7. http://toxnet.nlm.nih.gov/cgi-bin/sis/search/r?dbs+hsdb:@term+@rn+@rel+90-15-3
   8. http://toxnet.nlm.nih.gov/cgi-bin/sis/search/r?dbs+hsdb:@term+@rn+@rel+90-15-3
   9. http://toxnet.nlm.nih.gov/cgi-bin/sis/search/r?dbs+hsdb:@term+@rn+@rel+90-15-3
  10. http://toxnet.nlm.nih.gov/cgi-bin/sis/search/r?dbs+hsdb:@term+@rn+@rel+90-15-3
  11. http://toxnet.nlm.nih.gov/cgi-bin/sis/search/r?dbs+hsdb:@term+@rn+@rel+90-15-3
  12. http://toxnet.nlm.nih.gov/cgi-bin/sis/search/r?dbs+hsdb:@term+@rn+@rel+90-15-3
  13. http://toxnet.nlm.nih.gov/cgi-bin/sis/search/r?dbs+hsdb:@term+@rn+@rel+90-15-3
  14. http://pubchem.ncbi.nlm.nih.gov/vw3d/vw3d.cgi?cid=7005
