23421
  -OEChem-07051213132D

 29 30  0     0  0  0  0  0  0999 V2000
    5.5211    1.3184    0.0000 O   0  0  0  0  0  0  0  0  0  0  0  0
    7.1391    1.3184    0.0000 O   0  0  0  0  0  0  0  0  0  0  0  0
    4.5981   -0.2694    0.0000 O   0  0  0  0  0  0  0  0  0  0  0  0
    3.7320   -1.7694    0.0000 O   0  0  0  0  0  0  0  0  0  0  0  0
    2.8660   -0.2694    0.0000 N   0  0  0  0  0  0  0  0  0  0  0  0
    6.3301    0.7306    0.0000 C   0  0  0  0  0  0  0  0  0  0  0  0
    6.3301   -0.2694    0.0000 C   0  0  0  0  0  0  0  0  0  0  0  0
    6.8301    2.2694    0.0000 C   0  0  0  0  0  0  0  0  0  0  0  0
    5.8301    2.2694    0.0000 C   0  0  0  0  0  0  0  0  0  0  0  0
    5.4641   -0.7694    0.0000 C   0  0  0  0  0  0  0  0  0  0  0  0
    7.1962   -0.7694    0.0000 C   0  0  0  0  0  0  0  0  0  0  0  0
    5.4641   -1.7694    0.0000 C   0  0  0  0  0  0  0  0  0  0  0  0
    7.1962   -1.7694    0.0000 C   0  0  0  0  0  0  0  0  0  0  0  0
    6.3301   -2.2694    0.0000 C   0  0  0  0  0  0  0  0  0  0  0  0
    3.7320   -0.7694    0.0000 C   0  0  0  0  0  0  0  0  0  0  0  0
    2.0000   -0.7694    0.0000 C   0  0  0  0  0  0  0  0  0  0  0  0
    6.8826    0.4491    0.0000 H   0  0  0  0  0  0  0  0  0  0  0  0
    7.4366    2.3983    0.0000 H   0  0  0  0  0  0  0  0  0  0  0  0
    6.7653    2.8860    0.0000 H   0  0  0  0  0  0  0  0  0  0  0  0
    5.8949    2.8860    0.0000 H   0  0  0  0  0  0  0  0  0  0  0  0
    5.2237    2.3983    0.0000 H   0  0  0  0  0  0  0  0  0  0  0  0
    7.7331   -0.4594    0.0000 H   0  0  0  0  0  0  0  0  0  0  0  0
    4.9272   -2.0794    0.0000 H   0  0  0  0  0  0  0  0  0  0  0  0
    7.7331   -2.0794    0.0000 H   0  0  0  0  0  0  0  0  0  0  0  0
    6.3301   -2.8894    0.0000 H   0  0  0  0  0  0  0  0  0  0  0  0
    2.8660    0.3506    0.0000 H   0  0  0  0  0  0  0  0  0  0  0  0
    1.6900   -0.2325    0.0000 H   0  0  0  0  0  0  0  0  0  0  0  0
    1.4631   -1.0794    0.0000 H   0  0  0  0  0  0  0  0  0  0  0  0
    2.3100   -1.3064    0.0000 H   0  0  0  0  0  0  0  0  0  0  0  0
  1  6  1  0  0  0  0
  1  9  1  0  0  0  0
  2  6  1  0  0  0  0
  2  8  1  0  0  0  0
  3 10  1  0  0  0  0
  3 15  1  0  0  0  0
  4 15  2  0  0  0  0
  5 15  1  0  0  0  0
  5 16  1  0  0  0  0
  5 26  1  0  0  0  0
  6  7  1  0  0  0  0
  6 17  1  0  0  0  0
  7 10  1  0  0  0  0
  7 11  2  0  0  0  0
  8  9  1  0  0  0  0
  8 18  1  0  0  0  0
  8 19  1  0  0  0  0
  9 20  1  0  0  0  0
  9 21  1  0  0  0  0
 10 12  2  0  0  0  0
 11 13  1  0  0  0  0
 11 22  1  0  0  0  0
 12 14  1  0  0  0  0
 12 23  1  0  0  0  0
 13 14  2  0  0  0  0
 13 24  1  0  0  0  0
 14 25  1  0  0  0  0
 16 27  1  0  0  0  0
 16 28  1  0  0  0  0
 16 29  1  0  0  0  0
M  END
> <PUBCHEM_COMPOUND_CID>
23421

> <PUBCHEM_COMPOUND_CANONICALIZED>
1

> <PUBCHEM_CACTVS_COMPLEXITY>
240

> <PUBCHEM_CACTVS_HBOND_ACCEPTOR>
4

> <PUBCHEM_CACTVS_HBOND_DONOR>
1

> <PUBCHEM_CACTVS_ROTATABLE_BOND>
3

> <PUBCHEM_CACTVS_SUBSKEYS>
AAADccByOAAAAAAAAAAAAAAAAAAAASAAAAAwAAAAAAAAAAABAAAAHgAQAAAADASwmAcyDoLABACIAiBCGAACCAAgIAAIiIAOCIkdJyKEMRqqMiAlwhEOqAeAwCAOAAAAAAAIAAAAAAAAABAAAAAAAAAAAA==

> <PUBCHEM_IUPAC_OPENEYE_NAME>
[2-(1,3-dioxolan-2-yl)phenyl] N-methylcarbamate

> <PUBCHEM_IUPAC_CAS_NAME>
N-methylcarbamic acid [2-(1,3-dioxolan-2-yl)phenyl] ester

> <PUBCHEM_IUPAC_NAME>
[2-(1,3-dioxolan-2-yl)phenyl] N-methylcarbamate

> <PUBCHEM_IUPAC_SYSTEMATIC_NAME>
[2-(1,3-dioxolan-2-yl)phenyl] N-methylcarbamate

> <PUBCHEM_IUPAC_TRADITIONAL_NAME>
N-methylcarbamic acid [2-(1,3-dioxolan-2-yl)phenyl] ester

> <PUBCHEM_IUPAC_INCHI>
InChI=1S/C11H13NO4/c1-12-11(13)16-9-5-3-2-4-8(9)10-14-6-7-15-10/h2-5,10H,6-7H2,1H3,(H,12,13)

> <PUBCHEM_IUPAC_INCHIKEY>
SDKQRNRRDYRQKY-UHFFFAOYSA-N

> <PUBCHEM_XLOGP3>
0.5

> <PUBCHEM_EXACT_MASS>
223.084458

> <PUBCHEM_MOLECULAR_FORMULA>
C11H13NO4

> <PUBCHEM_MOLECULAR_WEIGHT>
223.22522

> <PUBCHEM_OPENEYE_CAN_SMILES>
CNC(=O)OC1=CC=CC=C1C2OCCO2

> <PUBCHEM_OPENEYE_ISO_SMILES>
CNC(=O)OC1=CC=CC=C1C2OCCO2

> <PUBCHEM_CACTVS_TPSA>
56.8

> <PUBCHEM_MONOISOTOPIC_WEIGHT>
223.084458

> <PUBCHEM_TOTAL_CHARGE>
0

> <PUBCHEM_HEAVY_ATOM_COUNT>
16

> <PUBCHEM_ATOM_DEF_STEREO_COUNT>
0

> <PUBCHEM_ATOM_UDEF_STEREO_COUNT>
0

> <PUBCHEM_BOND_DEF_STEREO_COUNT>
0

> <PUBCHEM_BOND_UDEF_STEREO_COUNT>
0

> <PUBCHEM_ISOTOPIC_ATOM_COUNT>
0

> <PUBCHEM_COMPONENT_COUNT>
1

> <PUBCHEM_CACTVS_TAUTO_COUNT>
2

> <PUBCHEM_COORDINATE_TYPE>
1
5
255

> <PUBCHEM_BONDANNOTATIONS>
10  12  8
11  13  8
12  14  8
13  14  8
7  10  8
7  11  8

$$$$

