   Color/Form

     * NEEDLES FROM BENZENE, THIN PLATES FROM DIL ALC
     * WHITE CRYSTALLINE POWDER

   from [1]HSDB

   Odor
        ODORLESS
   from [2]HSDB

   Melting Point
        185-188 DEG C
   from [3]HSDB

   Solubilities
        FREELY SOL IN ETHER; SOL IN ACETONE, ALCOHOL, METHANOL, DILUTE
   SOLN OF ALKALI HYDROXIDES, VEGETABLE OILS UPON SLIGHT WARMING; SLIGHTLY
   SOL IN BENZENE, CHLOROFORM; PRACTICALLY INSOL IN WATER, DIL MINERAL
   ACIDS
   from [4]HSDB

   Spectral Properties

     * INDEX OF REFRACTION: 1.495 (ALPHA), 1.565 (BETA), 1.687 (GAMMA)
     * MAX ABSORPTION (0.1 N NAOH): 295 NM (A= 170, 1%, 1 CM); 242 NM (A=
       965, 1%, 1 CM)
     * IR: 3:672A (Aldrich Library of Infrared Spectra, Aldrich Chemical
       Co, Milwaukee, WI)

   from [5]HSDB

   Other Chemical/Physical Properties

     * CRYSTALS; MP: 137-139 DEG C /DIACETATE/
     * CRYSTALS FROM PETROLEUM ETHER; MP: 127-128 DEG C /DIPROPIONATE/
     * AXIAL ANGLE: 2V= 80 DEG; OPTIC SIGN: +

   from [6]HSDB

   Computed Properties
   Molecular Weight                  270.36608 [g/mol]
   Molecular Formula                 C[18]H[22]O[2]
   XLogP3-AA                         5.2
   H-Bond Donor                      2
   H-Bond Acceptor                   2
   Rotatable Bond Count              5
   Tautomer Count                    3
   Exact Mass                        270.16198
   MonoIsotopic Mass                 270.16198
   Topological Polar Surface Area    40.5
   Heavy Atom Count                  20
   Formal Charge                     0
   Complexity                        235
   Isotope Atom Count                0
   Defined Atom Stereocenter Count   0
   Undefined Atom Stereocenter Count 2
   Defined Bond Stereocenter Count   0
   Undefined Bond Stereocenter Count 0
   Covalently-Bonded Unit Count      1
   Feature 3D Donor Count            2
   Feature 3D Hydrophobe Count       3
   Feature 3D Ring Count             2
   Effective Rotor Count             5
   Conformer Sampling RMSD           0.8
   CID Conformer Count               [7]6

References

   1. http://toxnet.nlm.nih.gov/cgi-bin/sis/search/r?dbs+hsdb:@term+@rn+@rel+84-16-2
   2. http://toxnet.nlm.nih.gov/cgi-bin/sis/search/r?dbs+hsdb:@term+@rn+@rel+84-16-2
   3. http://toxnet.nlm.nih.gov/cgi-bin/sis/search/r?dbs+hsdb:@term+@rn+@rel+84-16-2
   4. http://toxnet.nlm.nih.gov/cgi-bin/sis/search/r?dbs+hsdb:@term+@rn+@rel+84-16-2
   5. http://toxnet.nlm.nih.gov/cgi-bin/sis/search/r?dbs+hsdb:@term+@rn+@rel+84-16-2
   6. http://toxnet.nlm.nih.gov/cgi-bin/sis/search/r?dbs+hsdb:@term+@rn+@rel+84-16-2
   7. http://pubchem.ncbi.nlm.nih.gov/vw3d/vw3d.cgi?cid=3606
