470375
  -OEChem-07051213042D

 41 41  0     1  0  0  0  0  0999 V2000
    8.9192    0.3843    0.0000 S   0  0  0  0  0  0  0  0  0  0  0  0
    2.0000    1.0708    0.0000 S   0  0  0  0  0  0  0  0  0  0  0  0
    8.8681   -3.8790    0.0000 Na  0  3  0  0  0  0  0  0  0  0  0  0
    4.3980    3.8790    0.0000 Na  0  3  0  0  0  0  0  0  0  0  0  0
    6.2542   -1.6374    0.0000 O   0  0  0  0  0  0  0  0  0  0  0  0
    8.5591   -2.9280    0.0000 O   0  5  0  0  0  0  0  0  0  0  0  0
   10.2064   -2.3927    0.0000 O   0  0  0  0  0  0  0  0  0  0  0  0
    5.0269   -0.4343    0.0000 O   0  0  0  0  0  0  0  0  0  0  0  0
    4.1372    2.9136    0.0000 O   0  5  0  0  0  0  0  0  0  0  0  0
    5.8094    2.4619    0.0000 O   0  0  0  0  0  0  0  0  0  0  0  0
    7.9681   -0.9247    0.0000 N   0  0  0  0  0  0  0  0  0  0  0  0
    6.2542    0.7880    0.0000 N   0  0  0  0  0  0  0  0  0  0  0  0
    7.9681    0.0753    0.0000 C   0  0  1  0  0  0  0  0  0  0  0  0
    9.5070   -0.4247    0.0000 C   0  0  0  0  0  0  0  0  0  0  0  0
    8.9192   -1.2338    0.0000 C   0  0  2  0  0  0  0  0  0  0  0  0
    6.9598    0.0794    0.0000 C   0  0  1  0  0  0  0  0  0  0  0  0
    6.9598   -0.9289    0.0000 C   0  0  0  0  0  0  0  0  0  0  0  0
   10.3160    0.1630    0.0000 C   0  0  0  0  0  0  0  0  0  0  0  0
   10.3160   -1.0125    0.0000 C   0  0  0  0  0  0  0  0  0  0  0  0
    9.2282   -2.1848    0.0000 C   0  0  0  0  0  0  0  0  0  0  0  0
    5.2878    0.5311    0.0000 C   0  0  0  0  0  0  0  0  0  0  0  0
    4.5821    1.2397    0.0000 C   0  0  1  0  0  0  0  0  0  0  0  0
    3.6156    0.9828    0.0000 C   0  0  0  0  0  0  0  0  0  0  0  0
    4.8429    2.2051    0.0000 C   0  0  0  0  0  0  0  0  0  0  0  0
    3.2554    0.0500    0.0000 C   0  0  0  0  0  0  0  0  0  0  0  0
    2.8398    1.6138    0.0000 C   0  0  0  0  0  0  0  0  0  0  0  0
    2.2568    0.1044    0.0000 C   0  0  0  0  0  0  0  0  0  0  0  0
    7.8369    0.9151    0.0000 H   0  0  0  0  0  0  0  0  0  0  0  0
    8.4808   -1.6722    0.0000 H   0  0  0  0  0  0  0  0  0  0  0  0
    7.1989    0.6515    0.0000 H   0  0  0  0  0  0  0  0  0  0  0  0
   10.6804   -0.3386    0.0000 H   0  0  0  0  0  0  0  0  0  0  0  0
   10.8176    0.5275    0.0000 H   0  0  0  0  0  0  0  0  0  0  0  0
    9.9516    0.6646    0.0000 H   0  0  0  0  0  0  0  0  0  0  0  0
    9.9516   -1.5141    0.0000 H   0  0  0  0  0  0  0  0  0  0  0  0
   10.8176   -1.3770    0.0000 H   0  0  0  0  0  0  0  0  0  0  0  0
   10.6804   -0.5109    0.0000 H   0  0  0  0  0  0  0  0  0  0  0  0
    6.4159    1.3865    0.0000 H   0  0  0  0  0  0  0  0  0  0  0  0
    4.1446    1.6790    0.0000 H   0  0  0  0  0  0  0  0  0  0  0  0
    3.5920   -0.4707    0.0000 H   0  0  0  0  0  0  0  0  0  0  0  0
    2.8735    2.2328    0.0000 H   0  0  0  0  0  0  0  0  0  0  0  0
    1.8657   -0.3766    0.0000 H   0  0  0  0  0  0  0  0  0  0  0  0
  1 13  1  0  0  0  0
  1 14  1  0  0  0  0
  2 26  1  0  0  0  0
  2 27  1  0  0  0  0
  5 17  2  0  0  0  0
  6 20  1  0  0  0  0
  7 20  2  0  0  0  0
  8 21  2  0  0  0  0
  9 24  1  0  0  0  0
 10 24  2  0  0  0  0
 11 13  1  0  0  0  0
 11 15  1  0  0  0  0
 11 17  1  0  0  0  0
 16 12  1  1  0  0  0
 12 21  1  0  0  0  0
 12 37  1  0  0  0  0
 13 16  1  0  0  0  0
 13 28  1  6  0  0  0
 14 15  1  0  0  0  0
 14 18  1  0  0  0  0
 14 19  1  0  0  0  0
 15 20  1  6  0  0  0
 15 29  1  0  0  0  0
 16 17  1  0  0  0  0
 16 30  1  0  0  0  0
 18 31  1  0  0  0  0
 18 32  1  0  0  0  0
 18 33  1  0  0  0  0
 19 34  1  0  0  0  0
 19 35  1  0  0  0  0
 19 36  1  0  0  0  0
 21 22  1  0  0  0  0
 22 23  1  0  0  0  0
 22 24  1  1  0  0  0
 22 38  1  0  0  0  0
 23 25  1  0  0  0  0
 23 26  2  0  0  0  0
 25 27  2  0  0  0  0
 25 39  1  0  0  0  0
 26 40  1  0  0  0  0
 27 41  1  0  0  0  0
M  CHG  4   3   1   4   1   6  -1   9  -1
M  END
> <PUBCHEM_COMPOUND_CID>
470375

> <PUBCHEM_COMPOUND_CANONICALIZED>
1

> <PUBCHEM_CACTVS_COMPLEXITY>
629

> <PUBCHEM_CACTVS_HBOND_ACCEPTOR>
8

> <PUBCHEM_CACTVS_HBOND_DONOR>
1

> <PUBCHEM_CACTVS_ROTATABLE_BOND>
3

> <PUBCHEM_CACTVS_SUBSKEYS>
AAADccBzODBgAAAAAAAAAAAAAABYAWJAAAAAAAAABYAAAAABgAAAHgQQAAAADSjF2ASyCYPAAAiMAiHSGAADAIBgCBBIiJmIAIgKYB4olSGUAAAm9gG4CAKYAAAOgAAAAAAAAAAAAAAAAAAAAAAAAAAAAA==

> <PUBCHEM_IUPAC_OPENEYE_NAME>
disodium (2S,5R,6R)-6-[[(2R)-2-carboxylato-2-(3-thienyl)acetyl]amino]-3,3-dimethyl-7-oxo-4-thia-1-azabicyclo[3.2.0]heptane-2-carboxylate

> <PUBCHEM_IUPAC_CAS_NAME>
disodium (2S,5R,6R)-6-[[(2R)-2-carboxylato-1-oxo-2-(3-thiophenyl)ethyl]amino]-3,3-dimethyl-7-oxo-4-thia-1-azabicyclo[3.2.0]heptane-2-carboxylate

> <PUBCHEM_IUPAC_NAME>
disodium (2S,5R,6R)-6-[[(2R)-2-carboxylato-2-thiophen-3-ylacetyl]amino]-3,3-dimethyl-7-oxo-4-thia-1-azabicyclo[3.2.0]heptane-2-carboxylate

> <PUBCHEM_IUPAC_SYSTEMATIC_NAME>
disodium (2S,5R,6R)-3,3-dimethyl-6-[[(2R)-3-oxidanidyl-3-oxidanylidene-2-thiophen-3-yl-propanoyl]amino]-7-oxidanylidene-4-thia-1-azabicyclo[3.2.0]heptane-2-carboxylate

> <PUBCHEM_IUPAC_TRADITIONAL_NAME>
disodium (2S,5R,6R)-6-[[(2R)-2-carboxylato-2-(3-thienyl)acetyl]amino]-7-keto-3,3-dimethyl-4-thia-1-azabicyclo[3.2.0]heptane-2-carboxylate

> <PUBCHEM_IUPAC_INCHI>
InChI=1S/C15H16N2O6S2.2Na/c1-15(2)9(14(22)23)17-11(19)8(12(17)25-15)16-10(18)7(13(20)21)6-3-4-24-5-6;;/h3-5,7-9,12H,1-2H3,(H,16,18)(H,20,21)(H,22,23);;/q;2*+1/p-2/t7-,8-,9+,12-;;/m1../s1

> <PUBCHEM_IUPAC_INCHIKEY>
ZBBCUBMBMZNEME-QBGWIPKPSA-L

> <PUBCHEM_EXACT_MASS>
428.008867

> <PUBCHEM_MOLECULAR_FORMULA>
C15H14N2Na2O6S2

> <PUBCHEM_MOLECULAR_WEIGHT>
428.390999

> <PUBCHEM_OPENEYE_CAN_SMILES>
CC1(C(N2C(S1)C(C2=O)NC(=O)C(C3=CSC=C3)C(=O)[O-])C(=O)[O-])C.[Na+].[Na+]

> <PUBCHEM_OPENEYE_ISO_SMILES>
CC1([C@@H](N2[C@H](S1)[C@@H](C2=O)NC(=O)[C@@H](C3=CSC=C3)C(=O)[O-])C(=O)[O-])C.[Na+].[Na+]

> <PUBCHEM_CACTVS_TPSA>
183

> <PUBCHEM_MONOISOTOPIC_WEIGHT>
428.008867

> <PUBCHEM_TOTAL_CHARGE>
0

> <PUBCHEM_HEAVY_ATOM_COUNT>
27

> <PUBCHEM_ATOM_DEF_STEREO_COUNT>
4

> <PUBCHEM_ATOM_UDEF_STEREO_COUNT>
0

> <PUBCHEM_BOND_DEF_STEREO_COUNT>
0

> <PUBCHEM_BOND_UDEF_STEREO_COUNT>
0

> <PUBCHEM_ISOTOPIC_ATOM_COUNT>
0

> <PUBCHEM_COMPONENT_COUNT>
3

> <PUBCHEM_CACTVS_TAUTO_COUNT>
4

> <PUBCHEM_COORDINATE_TYPE>
1
5
255

> <PUBCHEM_BONDANNOTATIONS>
16  12  5
13  28  6
15  20  6
2  26  8
2  27  8
22  24  5
23  25  8
23  26  8
25  27  8

$$$$

