164642
  -OEChem-07051212542D

 24 24  0     1  0  0  0  0  0999 V2000
    5.5910   -1.2952    0.0000 O   0  0  0  0  0  0  0  0  0  0  0  0
    2.0000    0.1047    0.0000 O   0  5  0  0  0  0  0  0  0  0  0  0
    2.5352    1.7520    0.0000 O   0  0  0  0  0  0  0  0  0  0  0  0
    4.5032    1.0526    0.0000 N   0  3  0  0  0  0  0  0  0  0  0  0
    3.6942    0.4648    0.0000 C   0  0  1  0  0  0  0  0  0  0  0  0
    5.3122    0.4648    0.0000 C   0  0  0  0  0  0  0  0  0  0  0  0
    4.0032   -0.4862    0.0000 C   0  0  0  0  0  0  0  0  0  0  0  0
    5.0032   -0.4862    0.0000 C   0  0  1  0  0  0  0  0  0  0  0  0
    5.0910    1.8616    0.0000 C   0  0  0  0  0  0  0  0  0  0  0  0
    3.9154    1.8616    0.0000 C   0  0  0  0  0  0  0  0  0  0  0  0
    2.7431    0.7739    0.0000 C   0  0  0  0  0  0  0  0  0  0  0  0
    3.5972    1.0772    0.0000 H   0  0  0  0  0  0  0  0  0  0  0  0
    5.8786    0.2127    0.0000 H   0  0  0  0  0  0  0  0  0  0  0  0
    5.6222    1.0018    0.0000 H   0  0  0  0  0  0  0  0  0  0  0  0
    3.3968   -0.6151    0.0000 H   0  0  0  0  0  0  0  0  0  0  0  0
    4.0680   -1.1028    0.0000 H   0  0  0  0  0  0  0  0  0  0  0  0
    4.7217   -1.0386    0.0000 H   0  0  0  0  0  0  0  0  0  0  0  0
    5.5926    1.4972    0.0000 H   0  0  0  0  0  0  0  0  0  0  0  0
    5.4554    2.3632    0.0000 H   0  0  0  0  0  0  0  0  0  0  0  0
    4.5894    2.2261    0.0000 H   0  0  0  0  0  0  0  0  0  0  0  0
    4.4170    2.2261    0.0000 H   0  0  0  0  0  0  0  0  0  0  0  0
    3.5510    2.3632    0.0000 H   0  0  0  0  0  0  0  0  0  0  0  0
    3.4138    1.4972    0.0000 H   0  0  0  0  0  0  0  0  0  0  0  0
    5.3388   -1.8616    0.0000 H   0  0  0  0  0  0  0  0  0  0  0  0
  8  1  1  6  0  0  0
  1 24  1  0  0  0  0
  2 11  1  0  0  0  0
  3 11  2  0  0  0  0
  4  5  1  0  0  0  0
  4  6  1  0  0  0  0
  4  9  1  0  0  0  0
  4 10  1  0  0  0  0
  5  7  1  0  0  0  0
  5 11  1  1  0  0  0
  5 12  1  0  0  0  0
  6  8  1  0  0  0  0
  6 13  1  0  0  0  0
  6 14  1  0  0  0  0
  7  8  1  0  0  0  0
  7 15  1  0  0  0  0
  7 16  1  0  0  0  0
  8 17  1  0  0  0  0
  9 18  1  0  0  0  0
  9 19  1  0  0  0  0
  9 20  1  0  0  0  0
 10 21  1  0  0  0  0
 10 22  1  0  0  0  0
 10 23  1  0  0  0  0
M  CHG  2   2  -1   4   1
M  END
> <PUBCHEM_COMPOUND_CID>
164642

> <PUBCHEM_COMPOUND_CANONICALIZED>
1

> <PUBCHEM_CACTVS_COMPLEXITY>
173

> <PUBCHEM_CACTVS_HBOND_ACCEPTOR>
3

> <PUBCHEM_CACTVS_HBOND_DONOR>
1

> <PUBCHEM_CACTVS_ROTATABLE_BOND>
0

> <PUBCHEM_CACTVS_SUBSKEYS>
AAADccBiMAAAAAAAAAAAAAAAAAAAAWAAAAAAAAAAAAAAAAAAAAAAHgAACAAACDzhgAYCCAMAAgAIAACQCAAAAAAAAAAAAAGIAAACEBIAgCAEQAAGAACQAADaEQIAAAAAAAAAAAAAAAAAAAAAAAAAAAAAAA==

> <PUBCHEM_IUPAC_OPENEYE_NAME>
(2S,4R)-4-hydroxy-1,1-dimethyl-pyrrolidin-1-ium-2-carboxylate

> <PUBCHEM_IUPAC_CAS_NAME>
(2S,4R)-4-hydroxy-1,1-dimethyl-2-pyrrolidin-1-iumcarboxylate

> <PUBCHEM_IUPAC_NAME>
(2S,4R)-4-hydroxy-1,1-dimethylpyrrolidin-1-ium-2-carboxylate

> <PUBCHEM_IUPAC_SYSTEMATIC_NAME>
(2S,4R)-1,1-dimethyl-4-oxidanyl-pyrrolidin-1-ium-2-carboxylate

> <PUBCHEM_IUPAC_TRADITIONAL_NAME>
(2S,4R)-4-hydroxy-1,1-dimethyl-pyrrolidin-1-ium-2-carboxylate

> <PUBCHEM_IUPAC_INCHI>
InChI=1S/C7H13NO3/c1-8(2)4-5(9)3-6(8)7(10)11/h5-6,9H,3-4H2,1-2H3/t5-,6+/m1/s1

> <PUBCHEM_IUPAC_INCHIKEY>
MUNWAHDYFVYIKH-RITPCOANSA-N

> <PUBCHEM_XLOGP3_AA>
0.1

> <PUBCHEM_EXACT_MASS>
159.089543

> <PUBCHEM_MOLECULAR_FORMULA>
C7H13NO3

> <PUBCHEM_MOLECULAR_WEIGHT>
159.18302

> <PUBCHEM_OPENEYE_CAN_SMILES>
C[N+]1(CC(CC1C(=O)[O-])O)C

> <PUBCHEM_OPENEYE_ISO_SMILES>
C[N+]1(C[C@@H](C[C@H]1C(=O)[O-])O)C

> <PUBCHEM_CACTVS_TPSA>
60.4

> <PUBCHEM_MONOISOTOPIC_WEIGHT>
159.089543

> <PUBCHEM_TOTAL_CHARGE>
0

> <PUBCHEM_HEAVY_ATOM_COUNT>
11

> <PUBCHEM_ATOM_DEF_STEREO_COUNT>
2

> <PUBCHEM_ATOM_UDEF_STEREO_COUNT>
0

> <PUBCHEM_BOND_DEF_STEREO_COUNT>
0

> <PUBCHEM_BOND_UDEF_STEREO_COUNT>
0

> <PUBCHEM_ISOTOPIC_ATOM_COUNT>
0

> <PUBCHEM_COMPONENT_COUNT>
1

> <PUBCHEM_CACTVS_TAUTO_COUNT>
1

> <PUBCHEM_COORDINATE_TYPE>
1
5
255

> <PUBCHEM_BONDANNOTATIONS>
8  1  6
5  11  5

$$$$

