   Color/Form

     * Needle like, white to straw-colored crystals
     * White crystals (yellow or pink when impure)
     * Yellow solid

   from [1]HSDB

   Odor

     * Characeteristic phenolic odor
     * Unpleasant, penetrating odor
     * Chlorophenolic odor

   from [2]HSDB

   Boiling Point
        220 deg C
   from [3]HSDB

   Melting Point
        42.8 deg C
   from [4]HSDB

   Critical Temperature and Pressure
        Critical temperature = 465 deg C /738 Kelvin/; Critical pressure =
   3.990X10+4 mm Hg /53.20 bar/
   from [5]HSDB

   Density/Specific Gravity
        1.2238 at 78 deg C/4 deg C
   from [6]HSDB

   Dissociation Constants
        pKa = 9.41
   from [7]HSDB

   Heat of Combustion
        -9,330 BTU/lb
   from [8]HSDB

   Heat of Vaporization
        47.04 kJ/mol
   from [9]HSDB

   Octanol/Water Partition Coefficient
        log Kow = 2.39
   from [10]HSDB

   pH
        1% solution is acidic to litmus
   from [11]HSDB

   Solubilities

     * 2.71 PARTS SOL IN 100 PARTS WATER @ 20 DEG C
     * Very sol in alc, glycerin, ether, chloroform, fixed and volatile
       oils; sparingly sol in liquid petroleum
     * Very sol in ethanol, benzene, ethyl ether; soluble in alkali
     * Soluble in aqueous alkali, oxygenated and aromatic solvents
     * In water, 2.40X10+4 mg/L at 25 deg C [Roberts MS; J Pharm Pharmacol
       29: 677-83 (1977)] [12]PubMed Abstract

   from [13]HSDB

   Spectral Properties

     * Index of refraction: 1.5419 at 55 deg C/D; 1.5579 at 40 deg C/D
     * MAX ABSORPTION (CYCLOHEXANE): 224 NM (LOG E= 3.94); 279 NM (LOG E=
       3.27); 287 NM (LOG E= 3.23); SADTLER REF NUMBER: 1418 (IR, PRISM);
       243 (IR, GRATING)
     * IR: 4814 (Coblentz Society Spectral Collection)
     * UV: 409 (Sadtler Research Laboratories Spectral Collection)
     * NMR: 17044 (Sadtler Research Laboratories Spectral Collection)
     * MASS: 69778 (NIST/EPA/MSDC Mass Spectral Database, 1990 version)
     * Intense mass spectral peaks: 128 m/z (100%), 130 m/z (33%), 65 m/z
       (42%), 64 m/z (20%)

   from [14]HSDB

   Vapor Density
        4.43 (Air= 1)
   from [15]HSDB

   Vapor Pressure
        8.7X10-2 mm Hg at 25 deg C
   from [16]HSDB

   Viscosity
        5 cP at 50 deg C
   from [17]HSDB

   Other Chemical/Physical Properties

     * Dipole moment in benzne: 2.22 debye
     * Medicinal, empyrumatic odor /Chlorophenols/
     * VP: 1 mm at 49.8 deg C
     * Density/Specific gravity: 1.2651 at 40 deg C/4 deg C
     * Volatile with steam
     * Specific heat = 177 J/mole-K at 20 deg C. Heat of formation = 198.9
       kJ/mol at 50 deg C. MP = 43.5 (gamma-form); 34.2 (beta-form).
     * Enthalpy of fusion = 13.600 kJ/mol /45.489 BTU/lbs /
     * Henry's Law constant = 6.27X10-7 atm-cu m/mole at 25 deg C (est)
     * Hydroxyl radical reaction rate constant = 9.87X10-12 cu
       cm/molec-sec at 25 deg C (est)

   from [18]HSDB

   Computed Properties
   Molecular Weight                  128.5563 [g/mol]
   Molecular Formula                 C[6]H[5]ClO
   XLogP3                            2.4
   H-Bond Donor                      1
   H-Bond Acceptor                   1
   Rotatable Bond Count              0
   Tautomer Count                    2
   Exact Mass                        128.002892
   MonoIsotopic Mass                 128.002892
   Topological Polar Surface Area    20.2
   Heavy Atom Count                  8
   Formal Charge                     0
   Complexity                        66.9
   Isotope Atom Count                0
   Defined Atom Stereocenter Count   0
   Undefined Atom Stereocenter Count 0
   Defined Bond Stereocenter Count   0
   Undefined Bond Stereocenter Count 0
   Covalently-Bonded Unit Count      1
   Feature 3D Donor Count            1
   Feature 3D Ring Count             1
   Effective Rotor Count             0
   Conformer Sampling RMSD           0.4
   CID Conformer Count               [19]1

References

   1. http://toxnet.nlm.nih.gov/cgi-bin/sis/search/r?dbs+hsdb:@term+@rn+@rel+106-48-9
   2. http://toxnet.nlm.nih.gov/cgi-bin/sis/search/r?dbs+hsdb:@term+@rn+@rel+106-48-9
   3. http://toxnet.nlm.nih.gov/cgi-bin/sis/search/r?dbs+hsdb:@term+@rn+@rel+106-48-9
   4. http://toxnet.nlm.nih.gov/cgi-bin/sis/search/r?dbs+hsdb:@term+@rn+@rel+106-48-9
   5. http://toxnet.nlm.nih.gov/cgi-bin/sis/search/r?dbs+hsdb:@term+@rn+@rel+106-48-9
   6. http://toxnet.nlm.nih.gov/cgi-bin/sis/search/r?dbs+hsdb:@term+@rn+@rel+106-48-9
   7. http://toxnet.nlm.nih.gov/cgi-bin/sis/search/r?dbs+hsdb:@term+@rn+@rel+106-48-9
   8. http://toxnet.nlm.nih.gov/cgi-bin/sis/search/r?dbs+hsdb:@term+@rn+@rel+106-48-9
   9. http://toxnet.nlm.nih.gov/cgi-bin/sis/search/r?dbs+hsdb:@term+@rn+@rel+106-48-9
  10. http://toxnet.nlm.nih.gov/cgi-bin/sis/search/r?dbs+hsdb:@term+@rn+@rel+106-48-9
  11. http://toxnet.nlm.nih.gov/cgi-bin/sis/search/r?dbs+hsdb:@term+@rn+@rel+106-48-9
  12. http://www.ncbi.nlm.nih.gov/entrez/query.fcgi?cmd=Retrieve&db=pubmed&dopt=Abstract&list_uids=22602
  13. http://toxnet.nlm.nih.gov/cgi-bin/sis/search/r?dbs+hsdb:@term+@rn+@rel+106-48-9
  14. http://toxnet.nlm.nih.gov/cgi-bin/sis/search/r?dbs+hsdb:@term+@rn+@rel+106-48-9
  15. http://toxnet.nlm.nih.gov/cgi-bin/sis/search/r?dbs+hsdb:@term+@rn+@rel+106-48-9
  16. http://toxnet.nlm.nih.gov/cgi-bin/sis/search/r?dbs+hsdb:@term+@rn+@rel+106-48-9
  17. http://toxnet.nlm.nih.gov/cgi-bin/sis/search/r?dbs+hsdb:@term+@rn+@rel+106-48-9
  18. http://toxnet.nlm.nih.gov/cgi-bin/sis/search/r?dbs+hsdb:@term+@rn+@rel+106-48-9
  19. http://pubchem.ncbi.nlm.nih.gov/vw3d/vw3d.cgi?cid=4684
