23684576
  -OEChem-07051213102D

 57 58  0     1  0  0  0  0  0999 V2000
    2.0000    0.2327    0.0000 Na  0  3  0  0  0  0  0  0  0  0  0  0
   14.1407    0.1981    0.0000 O   0  0  0  0  0  0  0  0  0  0  0  0
   11.5263   -0.2673    0.0000 O   0  0  0  0  0  0  0  0  0  0  0  0
    6.3301   -1.2673    0.0000 O   0  0  0  0  0  0  0  0  0  0  0  0
    2.8660   -0.2673    0.0000 O   0  5  0  0  0  0  0  0  0  0  0  0
    3.7320    1.2327    0.0000 O   0  0  0  0  0  0  0  0  0  0  0  0
    2.8660   -3.2673    0.0000 O   0  0  0  0  0  0  0  0  0  0  0  0
    4.5981   -3.2673    0.0000 O   0  0  0  0  0  0  0  0  0  0  0  0
   12.3923    1.2327    0.0000 N   0  0  0  0  0  0  0  0  0  0  0  0
   12.3923    3.2327    0.0000 N   0  0  0  0  0  0  0  0  0  0  0  0
    9.7942    1.7327    0.0000 N   0  0  0  0  0  0  0  0  0  0  0  0
   14.1523    3.2674    0.0000 N   0  0  0  0  0  0  0  0  0  0  0  0
   15.0583    1.7119    0.0000 N   0  0  0  0  0  0  0  0  0  0  0  0
    5.4641    0.2327    0.0000 N   0  0  0  0  0  0  0  0  0  0  0  0
   15.9224    3.2568    0.0000 N   0  0  0  0  0  0  0  0  0  0  0  0
   11.5263    1.7327    0.0000 C   0  0  3  0  0  0  0  0  0  0  0  0
   11.5263    2.7327    0.0000 C   0  0  0  0  0  0  0  0  0  0  0  0
   10.6603    1.2327    0.0000 C   0  0  0  0  0  0  0  0  0  0  0  0
   13.2583    1.7327    0.0000 C   0  0  0  0  0  0  0  0  0  0  0  0
   13.2583    2.7327    0.0000 C   0  0  0  0  0  0  0  0  0  0  0  0
   14.1523    1.1980    0.0000 C   0  0  0  0  0  0  0  0  0  0  0  0
   12.3923    0.2327    0.0000 C   0  0  0  0  0  0  0  0  0  0  0  0
    8.9282    1.2327    0.0000 C   0  0  0  0  0  0  0  0  0  0  0  0
   15.0583    2.7535    0.0000 C   0  0  0  0  0  0  0  0  0  0  0  0
    8.0622    1.7327    0.0000 C   0  0  0  0  0  0  0  0  0  0  0  0
    8.9282    0.2327    0.0000 C   0  0  0  0  0  0  0  0  0  0  0  0
    4.5981   -0.2673    0.0000 C   0  0  1  0  0  0  0  0  0  0  0  0
    4.5981   -1.2673    0.0000 C   0  0  0  0  0  0  0  0  0  0  0  0
    7.1962    0.2327    0.0000 C   0  0  0  0  0  0  0  0  0  0  0  0
    7.1962    1.2327    0.0000 C   0  0  0  0  0  0  0  0  0  0  0  0
    8.0622   -0.2673    0.0000 C   0  0  0  0  0  0  0  0  0  0  0  0
    6.3301   -0.2673    0.0000 C   0  0  0  0  0  0  0  0  0  0  0  0
    3.7320   -1.7673    0.0000 C   0  0  0  0  0  0  0  0  0  0  0  0
    3.7320    0.2327    0.0000 C   0  0  0  0  0  0  0  0  0  0  0  0
    3.7320   -2.7673    0.0000 C   0  0  0  0  0  0  0  0  0  0  0  0
   11.5263    0.8827    0.0000 H   0  0  0  0  0  0  0  0  0  0  0  0
   11.3142    3.3153    0.0000 H   0  0  0  0  0  0  0  0  0  0  0  0
   10.9157    2.6250    0.0000 H   0  0  0  0  0  0  0  0  0  0  0  0
   10.2617    0.7577    0.0000 H   0  0  0  0  0  0  0  0  0  0  0  0
   11.0588    0.7577    0.0000 H   0  0  0  0  0  0  0  0  0  0  0  0
   12.3923    3.8527    0.0000 H   0  0  0  0  0  0  0  0  0  0  0  0
    9.7942    2.3527    0.0000 H   0  0  0  0  0  0  0  0  0  0  0  0
   14.1451    3.8873    0.0000 H   0  0  0  0  0  0  0  0  0  0  0  0
   12.9292   -0.0773    0.0000 H   0  0  0  0  0  0  0  0  0  0  0  0
    4.5981    0.3527    0.0000 H   0  0  0  0  0  0  0  0  0  0  0  0
    8.0622    2.3527    0.0000 H   0  0  0  0  0  0  0  0  0  0  0  0
    9.4651   -0.0773    0.0000 H   0  0  0  0  0  0  0  0  0  0  0  0
    4.8101   -1.8499    0.0000 H   0  0  0  0  0  0  0  0  0  0  0  0
    5.2087   -1.1596    0.0000 H   0  0  0  0  0  0  0  0  0  0  0  0
    6.6592    1.5427    0.0000 H   0  0  0  0  0  0  0  0  0  0  0  0
    8.0622   -0.8873    0.0000 H   0  0  0  0  0  0  0  0  0  0  0  0
    5.4641    0.8527    0.0000 H   0  0  0  0  0  0  0  0  0  0  0  0
    3.5200   -1.1847    0.0000 H   0  0  0  0  0  0  0  0  0  0  0  0
    3.1215   -1.8750    0.0000 H   0  0  0  0  0  0  0  0  0  0  0  0
   16.4606    2.9489    0.0000 H   0  0  0  0  0  0  0  0  0  0  0  0
   15.9200    3.8768    0.0000 H   0  0  0  0  0  0  0  0  0  0  0  0
    2.8660   -3.8873    0.0000 H   0  0  0  0  0  0  0  0  0  0  0  0
  2 21  2  0  0  0  0
  3 22  2  0  0  0  0
  4 32  2  0  0  0  0
  5 34  1  0  0  0  0
  6 34  2  0  0  0  0
  7 35  1  0  0  0  0
  7 57  1  0  0  0  0
  8 35  2  0  0  0  0
  9 16  1  0  0  0  0
  9 19  1  0  0  0  0
  9 22  1  0  0  0  0
 10 17  1  0  0  0  0
 10 20  1  0  0  0  0
 10 41  1  0  0  0  0
 11 18  1  0  0  0  0
 11 23  1  0  0  0  0
 11 42  1  0  0  0  0
 12 20  1  0  0  0  0
 12 24  1  0  0  0  0
 12 43  1  0  0  0  0
 13 21  1  0  0  0  0
 13 24  2  0  0  0  0
 27 14  1  1  0  0  0
 14 32  1  0  0  0  0
 14 52  1  0  0  0  0
 15 24  1  0  0  0  0
 15 55  1  0  0  0  0
 15 56  1  0  0  0  0
 16 17  1  0  0  0  0
 16 18  1  0  0  0  0
 16 36  1  0  0  0  0
 17 37  1  0  0  0  0
 17 38  1  0  0  0  0
 18 39  1  0  0  0  0
 18 40  1  0  0  0  0
 19 20  2  0  0  0  0
 19 21  1  0  0  0  0
 22 44  1  0  0  0  0
 23 25  2  0  0  0  0
 23 26  1  0  0  0  0
 25 30  1  0  0  0  0
 25 46  1  0  0  0  0
 26 31  2  0  0  0  0
 26 47  1  0  0  0  0
 27 28  1  0  0  0  0
 27 34  1  0  0  0  0
 27 45  1  0  0  0  0
 28 33  1  0  0  0  0
 28 48  1  0  0  0  0
 28 49  1  0  0  0  0
 29 30  2  0  0  0  0
 29 31  1  0  0  0  0
 29 32  1  0  0  0  0
 30 50  1  0  0  0  0
 31 51  1  0  0  0  0
 33 35  1  0  0  0  0
 33 53  1  0  0  0  0
 33 54  1  0  0  0  0
M  CHG  2   1   1   5  -1
M  END
> <PUBCHEM_COMPOUND_CID>
23684576

> <PUBCHEM_COMPOUND_CANONICALIZED>
1

> <PUBCHEM_CACTVS_COMPLEXITY>
918

> <PUBCHEM_CACTVS_HBOND_ACCEPTOR>
9

> <PUBCHEM_CACTVS_HBOND_DONOR>
6

> <PUBCHEM_CACTVS_ROTATABLE_BOND>
9

> <PUBCHEM_CACTVS_SUBSKEYS>
AAADceB7uCAAAAAAAAAAAAAAAAAAAAAAAAAwQIAAAAAAAACBAAAAHgAQCAAADCjBmAYxyIPAAgCoAiXS/ACCAAElAgAJiIGIZMiKYDLA1bGUYQhslgLYyce8rwCeCAAAAAAAAAAQAAAAAAAAAAAAAAAAAA==

> <PUBCHEM_IUPAC_OPENEYE_NAME>
sodium (2S)-2-[[4-[(2-amino-5-formyl-4-oxo-1,6,7,8-tetrahydropteridin-6-yl)methylamino]benzoyl]amino]-5-hydroxy-5-oxo-pentanoate

> <PUBCHEM_IUPAC_CAS_NAME>
sodium (2S)-2-[[[4-[(2-amino-5-formyl-4-oxo-1,6,7,8-tetrahydropteridin-6-yl)methylamino]phenyl]-oxomethyl]amino]-5-hydroxy-5-oxopentanoate

> <PUBCHEM_IUPAC_NAME>
sodium (2S)-2-[[4-[(2-amino-5-formyl-4-oxo-1,6,7,8-tetrahydropteridin-6-yl)methylamino]benzoyl]amino]-5-hydroxy-5-oxopentanoate

> <PUBCHEM_IUPAC_SYSTEMATIC_NAME>
sodium (2S)-2-[[4-[(2-azanyl-5-methanoyl-4-oxidanylidene-1,6,7,8-tetrahydropteridin-6-yl)methylamino]phenyl]carbonylamino]-5-oxidanyl-5-oxidanylidene-pentanoate

> <PUBCHEM_IUPAC_TRADITIONAL_NAME>
sodium (2S)-2-[[4-[(2-amino-5-formyl-4-keto-1,6,7,8-tetrahydropteridin-6-yl)methylamino]benzoyl]amino]-5-hydroxy-5-keto-valerate

> <PUBCHEM_IUPAC_INCHI>
InChI=1S/C20H23N7O7.Na/c21-20-25-16-15(18(32)26-20)27(9-28)12(8-23-16)7-22-11-3-1-10(2-4-11)17(31)24-13(19(33)34)5-6-14(29)30;/h1-4,9,12-13,22H,5-8H2,(H,24,31)(H,29,30)(H,33,34)(H4,21,23,25,26,32);/q;+1/p-1/t12?,13-;/m0./s1

> <PUBCHEM_IUPAC_INCHIKEY>
UDDUKFYJPZYIPC-ZEDZUCNESA-M

> <PUBCHEM_EXACT_MASS>
495.14784

> <PUBCHEM_MOLECULAR_FORMULA>
C20H22N7NaO7

> <PUBCHEM_MOLECULAR_WEIGHT>
495.421149

> <PUBCHEM_OPENEYE_CAN_SMILES>
C1C(N(C2=C(N1)NC(=NC2=O)N)C=O)CNC3=CC=C(C=C3)C(=O)NC(CCC(=O)O)C(=O)[O-].[Na+]

> <PUBCHEM_OPENEYE_ISO_SMILES>
C1C(N(C2=C(N1)NC(=NC2=O)N)C=O)CNC3=CC=C(C=C3)C(=O)N[C@@H](CCC(=O)O)C(=O)[O-].[Na+]

> <PUBCHEM_CACTVS_TPSA>
218

> <PUBCHEM_MONOISOTOPIC_WEIGHT>
495.14784

> <PUBCHEM_TOTAL_CHARGE>
0

> <PUBCHEM_HEAVY_ATOM_COUNT>
35

> <PUBCHEM_ATOM_DEF_STEREO_COUNT>
1

> <PUBCHEM_ATOM_UDEF_STEREO_COUNT>
1

> <PUBCHEM_BOND_DEF_STEREO_COUNT>
0

> <PUBCHEM_BOND_UDEF_STEREO_COUNT>
0

> <PUBCHEM_ISOTOPIC_ATOM_COUNT>
0

> <PUBCHEM_COMPONENT_COUNT>
2

> <PUBCHEM_CACTVS_TAUTO_COUNT>
85

> <PUBCHEM_NONSTANDARDBOND>
1  5  7

> <PUBCHEM_COORDINATE_TYPE>
1
5
255

> <PUBCHEM_BONDANNOTATIONS>
12  20  8
12  24  8
13  21  8
13  24  8
27  14  5
16  36  3
19  20  8
19  21  8
23  25  8
23  26  8
25  30  8
26  31  8
29  30  8
29  31  8

$$$$

