   Color/Form

     * Colorless, translucent crystals or white powder.
     * White, hygroscopic powder

   from [1]HSDB

   Odor
        NONE
   from [2]HSDB

   Taste
        Saline taste
   from [3]HSDB

   Density/Specific Gravity
        approx 1.7 g/cu cm
   from [4]HSDB

   Dissociation Constants
        pKa1 = 2.15; pKa2 = 6.83; pKa3 = 12.38 (phosphoric acid), all at
   25 deg C
   from [5]HSDB

   pH
        pH = 9.1 for 1% aq soln at 25 deg C
   from [6]HSDB

   Solubilities

     * 11.8 g/100 g water at 25 deg C
     * Soluble in 8 parts water, much more soluble in hot water.
       Solubility per 100 gal water increases from 14 lbs at slightly >0
       deg C to over 900 lbs at 95 deg C. Insoluble in alcohol.
       /Anhydrous/

   from [7]HSDB

   Other Chemical/Physical Properties

     * Hygroscopic; converted to sodium pyrophosphate at about 240 deg C.
     * Colorless crystals; 11.8 G sol in 100 cc water at 25 deg C
       /Disodium phosphate heptahydrate/
     * Density 1.679, loses 5H2O at 48 deg C /Disodium phosphate
       heptahydrate/
     * Colorless, rhombic or monoclinic, white powder; 87.4 g sol in 100
       cc water at 80 deg C; Index of refraction: 1.432, 1.436, 1.437;
       efflorescent /Disodium phosphate dodecahydrate/
     * MP 35 deg C, density 1.5235, readily loses 12H2O at 100 deg C
       /Disodium phosphate dodecahydrate/
     * Rhombic bispheroidal crystals; Index of refraction: 1.463 /Disodium
       phosphate dihydrate/
     * MP: loses H2O at 92.5 deg C; Specific gravity: 2.066 at 15 deg C
       /Disodium phosphate dihydrate/
     * 100 g sol in 100 ml water at 50 deg C; 117 g sol in 100 ml water at
       80 deg C. /Disodium phosphate dihydrate/
     * 11.8 g sol in 100 ml water at 25 deg C /Disodium phosphate
       dodecahydrate/
     * Hygroscopic. On exposure to air will absorb from 2 to 7 mols of
       water depending on the temperature and humidity.
     * Crystals or granular powder. Stable in the air. Specific gravity
       1.7. Soluble in 4 parts water, more soluble in boiling water;
       practically insoluble in alcohol. The aqueous solution is alkaline,
       pH=9.5. /Heptahydrate/
     * Translucent crystals or granules; readily loses 5 mols of water on
       exposure to air at ordinary temp. Melting point 34-35 deg C (when
       it contains the full 12 mols of H2O). Specific gravity 1.5. Soluble
       in 3 parts water; practically insoluble in alcohol. Aqueous
       solution is alkaline, pH=9.5. /Dodecahydrate/

   from [8]HSDB

   Computed Properties
   Molecular Weight                  141.958841 [g/mol]
   Molecular Formula                 HNa[2]O[4]P
   H-Bond Donor                      1
   H-Bond Acceptor                   4
   Rotatable Bond Count              0
   Exact Mass                        141.940784
   MonoIsotopic Mass                 141.940784
   Topological Polar Surface Area    83.4
   Heavy Atom Count                  7
   Formal Charge                     0
   Complexity                        46.5
   Isotope Atom Count                0
   Defined Atom Stereocenter Count   0
   Undefined Atom Stereocenter Count 0
   Defined Bond Stereocenter Count   0
   Undefined Bond Stereocenter Count 0
   Covalently-Bonded Unit Count      3

References

   1. http://toxnet.nlm.nih.gov/cgi-bin/sis/search/r?dbs+hsdb:@term+@rn+@rel+7558-79-4
   2. http://toxnet.nlm.nih.gov/cgi-bin/sis/search/r?dbs+hsdb:@term+@rn+@rel+7558-79-4
   3. http://toxnet.nlm.nih.gov/cgi-bin/sis/search/r?dbs+hsdb:@term+@rn+@rel+7558-79-4
   4. http://toxnet.nlm.nih.gov/cgi-bin/sis/search/r?dbs+hsdb:@term+@rn+@rel+7558-79-4
   5. http://toxnet.nlm.nih.gov/cgi-bin/sis/search/r?dbs+hsdb:@term+@rn+@rel+7558-79-4
   6. http://toxnet.nlm.nih.gov/cgi-bin/sis/search/r?dbs+hsdb:@term+@rn+@rel+7558-79-4
   7. http://toxnet.nlm.nih.gov/cgi-bin/sis/search/r?dbs+hsdb:@term+@rn+@rel+7558-79-4
   8. http://toxnet.nlm.nih.gov/cgi-bin/sis/search/r?dbs+hsdb:@term+@rn+@rel+7558-79-4
