440336
  -OEChem-07051212492D

 47 49  0     1  0  0  0  0  0999 V2000
    7.6651    1.8958    0.0000 S   0  3  3  0  0  0  0  0  0  0  0  0
    5.9405    0.7177    0.0000 O   0  0  0  0  0  0  0  0  0  0  0  0
    4.6844    2.9800    0.0000 O   0  0  0  0  0  0  0  0  0  0  0  0
    3.4026    1.2221    0.0000 O   0  0  0  0  0  0  0  0  0  0  0  0
   10.0952    3.6549    0.0000 O   0  0  0  0  0  0  0  0  0  0  0  0
   11.9209    2.8383    0.0000 O   0  0  0  0  0  0  0  0  0  0  0  0
   11.2137    1.2572    0.0000 O   0  0  0  0  0  0  0  0  0  0  0  0
    4.6783   -0.5402    0.0000 N   0  0  0  0  0  0  0  0  0  0  0  0
    4.6783   -2.1496    0.0000 N   0  0  0  0  0  0  0  0  0  0  0  0
    2.8660   -0.3449    0.0000 N   0  0  0  0  0  0  0  0  0  0  0  0
    2.0000   -1.8449    0.0000 N   0  0  0  0  0  0  0  0  0  0  0  0
    2.8660   -3.3449    0.0000 N   0  0  0  0  0  0  0  0  0  0  0  0
    5.9422    1.7177    0.0000 C   0  0  1  0  0  0  0  0  0  0  0  0
    4.9917    2.0284    0.0000 C   0  0  2  0  0  0  0  0  0  0  0  0
    4.4026    1.2204    0.0000 C   0  0  2  0  0  0  0  0  0  0  0  0
    4.9889    0.4103    0.0000 C   0  0  1  0  0  0  0  0  0  0  0  0
    6.7523    2.3041    0.0000 C   0  0  0  0  0  0  0  0  0  0  0  0
    3.7320   -0.8449    0.0000 C   0  0  0  0  0  0  0  0  0  0  0  0
    8.4752    2.4822    0.0000 C   0  0  0  0  0  0  0  0  0  0  0  0
    5.2619   -1.3449    0.0000 C   0  0  0  0  0  0  0  0  0  0  0  0
    7.7679    0.9011    0.0000 C   0  0  0  0  0  0  0  0  0  0  0  0
    3.7320   -1.8449    0.0000 C   0  0  0  0  0  0  0  0  0  0  0  0
    9.3880    2.0738    0.0000 C   0  0  0  0  0  0  0  0  0  0  0  0
    2.8660   -2.3449    0.0000 C   0  0  0  0  0  0  0  0  0  0  0  0
   10.1980    2.6602    0.0000 C   0  0  0  0  0  0  0  0  0  0  0  0
    2.0000   -0.8449    0.0000 C   0  0  0  0  0  0  0  0  0  0  0  0
   11.1109    2.2519    0.0000 C   0  0  0  0  0  0  0  0  0  0  0  0
    6.4942    1.4353    0.0000 H   0  0  0  0  0  0  0  0  0  0  0  0
    5.4309    2.4660    0.0000 H   0  0  0  0  0  0  0  0  0  0  0  0
    4.1220    1.7733    0.0000 H   0  0  0  0  0  0  0  0  0  0  0  0
    5.4266   -0.0288    0.0000 H   0  0  0  0  0  0  0  0  0  0  0  0
    7.0999    2.8175    0.0000 H   0  0  0  0  0  0  0  0  0  0  0  0
    6.3070    2.7355    0.0000 H   0  0  0  0  0  0  0  0  0  0  0  0
    5.1000    3.4400    0.0000 H   0  0  0  0  0  0  0  0  0  0  0  0
    3.0935    1.7596    0.0000 H   0  0  0  0  0  0  0  0  0  0  0  0
    8.8227    2.9956    0.0000 H   0  0  0  0  0  0  0  0  0  0  0  0
    8.0299    2.9136    0.0000 H   0  0  0  0  0  0  0  0  0  0  0  0
    5.8819   -1.3449    0.0000 H   0  0  0  0  0  0  0  0  0  0  0  0
    7.1512    0.8373    0.0000 H   0  0  0  0  0  0  0  0  0  0  0  0
    7.8317    0.2844    0.0000 H   0  0  0  0  0  0  0  0  0  0  0  0
    8.3846    0.9648    0.0000 H   0  0  0  0  0  0  0  0  0  0  0  0
    9.0404    1.5604    0.0000 H   0  0  0  0  0  0  0  0  0  0  0  0
    9.8332    1.6424    0.0000 H   0  0  0  0  0  0  0  0  0  0  0  0
    1.4631   -0.5349    0.0000 H   0  0  0  0  0  0  0  0  0  0  0  0
    2.3291   -3.6549    0.0000 H   0  0  0  0  0  0  0  0  0  0  0  0
    3.4030   -3.6549    0.0000 H   0  0  0  0  0  0  0  0  0  0  0  0
   12.4869    2.5851    0.0000 H   0  0  0  0  0  0  0  0  0  0  0  0
  1 17  1  0  0  0  0
  1 19  1  0  0  0  0
  1 21  1  0  0  0  0
  2 13  1  0  0  0  0
  2 16  1  0  0  0  0
 14  3  1  6  0  0  0
  3 34  1  0  0  0  0
 15  4  1  6  0  0  0
  4 35  1  0  0  0  0
  5 25  2  0  0  0  0
  6 27  1  0  0  0  0
  6 47  1  0  0  0  0
  7 27  2  0  0  0  0
 16  8  1  1  0  0  0
  8 18  1  0  0  0  0
  8 20  1  0  0  0  0
  9 20  2  0  0  0  0
  9 22  1  0  0  0  0
 10 18  2  0  0  0  0
 10 26  1  0  0  0  0
 11 24  1  0  0  0  0
 11 26  2  0  0  0  0
 12 24  1  0  0  0  0
 12 45  1  0  0  0  0
 12 46  1  0  0  0  0
 13 14  1  0  0  0  0
 13 17  1  1  0  0  0
 13 28  1  0  0  0  0
 14 15  1  0  0  0  0
 14 29  1  0  0  0  0
 15 16  1  0  0  0  0
 15 30  1  0  0  0  0
 16 31  1  0  0  0  0
 17 32  1  0  0  0  0
 17 33  1  0  0  0  0
 18 22  1  0  0  0  0
 19 23  1  0  0  0  0
 19 36  1  0  0  0  0
 19 37  1  0  0  0  0
 20 38  1  0  0  0  0
 21 39  1  0  0  0  0
 21 40  1  0  0  0  0
 21 41  1  0  0  0  0
 22 24  2  0  0  0  0
 23 25  1  0  0  0  0
 23 42  1  0  0  0  0
 23 43  1  0  0  0  0
 25 27  1  0  0  0  0
 26 44  1  0  0  0  0
M  CHG  1   1   1
M  END
> <PUBCHEM_COMPOUND_CID>
440336

> <PUBCHEM_COMPOUND_CANONICALIZED>
1

> <PUBCHEM_CACTVS_COMPLEXITY>
571

> <PUBCHEM_CACTVS_HBOND_ACCEPTOR>
10

> <PUBCHEM_CACTVS_HBOND_DONOR>
4

> <PUBCHEM_CACTVS_ROTATABLE_BOND>
7

> <PUBCHEM_CACTVS_SUBSKEYS>
AAADceBzuABAAAAAAAAAAAAAAAAAAWJAAAAsAAAAAAAAAFgB+AAAHgQQCAAACBzl1waH+L9MFgioAYbxbAKAgC0RELABUCFoVBCDWBJgyEAeRAgPAALzACCwAAAAAAAAAAAAAAAAAAAAAAAAAAAAAAAAAA==

> <PUBCHEM_IUPAC_OPENEYE_NAME>
[(2S,3S,4R,5R)-5-(6-aminopurin-9-yl)-3,4-dihydroxy-tetrahydrofuran-2-yl]methyl-(3-carboxy-3-oxo-propyl)-methyl-sulfonium

> <PUBCHEM_IUPAC_CAS_NAME>
[(2S,3S,4R,5R)-5-(6-aminopurin-9-yl)-3,4-dihydroxy-2-oxolanyl]methyl-(3-carboxy-3-oxopropyl)-methylsulfonium

> <PUBCHEM_IUPAC_NAME>
[(2S,3S,4R,5R)-5-(6-aminopurin-9-yl)-3,4-dihydroxyoxolan-2-yl]methyl-(3-carboxy-3-oxopropyl)-methylsulfanium

> <PUBCHEM_IUPAC_SYSTEMATIC_NAME>
[(2S,3S,4R,5R)-5-(6-aminopurin-9-yl)-3,4-bis(oxidanyl)oxolan-2-yl]methyl-methyl-[4-oxidanyl-3,4-bis(oxidanylidene)butyl]sulfanium

> <PUBCHEM_IUPAC_TRADITIONAL_NAME>
[(2S,3S,4R,5R)-5-adenin-9-yl-3,4-dihydroxy-tetrahydrofuran-2-yl]methyl-(3-carboxy-3-keto-propyl)-methyl-sulfonium

> <PUBCHEM_IUPAC_INCHI>
InChI=1S/C15H19N5O6S/c1-27(3-2-7(21)15(24)25)4-8-10(22)11(23)14(26-8)20-6-19-9-12(16)17-5-18-13(9)20/h5-6,8,10-11,14,22-23H,2-4H2,1H3,(H2-,16,17,18,24,25)/p+1/t8-,10-,11-,14-,27?/m1/s1

> <PUBCHEM_IUPAC_INCHIKEY>
UOKVQQMBGVMXPU-CJPDYEHRSA-O

> <PUBCHEM_XLOGP3>
-0.9

> <PUBCHEM_EXACT_MASS>
398.113429

> <PUBCHEM_MOLECULAR_FORMULA>
C15H20N5O6S+

> <PUBCHEM_MOLECULAR_WEIGHT>
398.4142

> <PUBCHEM_OPENEYE_CAN_SMILES>
C[S+](CCC(=O)C(=O)O)CC1C(C(C(O1)N2C=NC3=C2N=CN=C3N)O)O

> <PUBCHEM_OPENEYE_ISO_SMILES>
C[S+](CCC(=O)C(=O)O)C[C@@H]1[C@H]([C@H]([C@@H](O1)N2C=NC3=C2N=CN=C3N)O)O

> <PUBCHEM_CACTVS_TPSA>
175

> <PUBCHEM_MONOISOTOPIC_WEIGHT>
398.113429

> <PUBCHEM_TOTAL_CHARGE>
1

> <PUBCHEM_HEAVY_ATOM_COUNT>
27

> <PUBCHEM_ATOM_DEF_STEREO_COUNT>
4

> <PUBCHEM_ATOM_UDEF_STEREO_COUNT>
0

> <PUBCHEM_BOND_DEF_STEREO_COUNT>
0

> <PUBCHEM_BOND_UDEF_STEREO_COUNT>
0

> <PUBCHEM_ISOTOPIC_ATOM_COUNT>
0

> <PUBCHEM_COMPONENT_COUNT>
1

> <PUBCHEM_CACTVS_TAUTO_COUNT>
6

> <PUBCHEM_COORDINATE_TYPE>
1
5
255

> <PUBCHEM_BONDANNOTATIONS>
10  18  8
10  26  8
11  24  8
11  26  8
13  17  5
18  22  8
22  24  8
14  3  6
15  4  6
16  8  5
8  18  8
8  20  8
9  20  8
9  22  8

$$$$

