160492
  -OEChem-07051213092D

 21 21  0     0  0  0  0  0  0999 V2000
    2.8660    1.5600    0.0000 O   0  0  0  0  0  0  0  0  0  0  0  0
    2.0000    0.0600    0.0000 O   0  0  0  0  0  0  0  0  0  0  0  0
    4.5981   -1.4400    0.0000 N   0  0  0  0  0  0  0  0  0  0  0  0
    5.4641   -0.9400    0.0000 C   0  0  0  0  0  0  0  0  0  0  0  0
    5.4641    0.0600    0.0000 C   0  0  0  0  0  0  0  0  0  0  0  0
    3.7320   -0.9400    0.0000 C   0  0  0  0  0  0  0  0  0  0  0  0
    3.7320    0.0600    0.0000 C   0  0  0  0  0  0  0  0  0  0  0  0
    4.5981    0.5600    0.0000 C   0  0  0  0  0  0  0  0  0  0  0  0
    2.8660    0.5600    0.0000 C   0  0  0  0  0  0  0  0  0  0  0  0
    2.0000    2.0600    0.0000 C   0  0  0  0  0  0  0  0  0  0  0  0
    5.6762   -1.5226    0.0000 H   0  0  0  0  0  0  0  0  0  0  0  0
    6.0747   -0.8323    0.0000 H   0  0  0  0  0  0  0  0  0  0  0  0
    6.0747   -0.0477    0.0000 H   0  0  0  0  0  0  0  0  0  0  0  0
    5.6762    0.6426    0.0000 H   0  0  0  0  0  0  0  0  0  0  0  0
    3.1215   -0.8323    0.0000 H   0  0  0  0  0  0  0  0  0  0  0  0
    3.5200   -1.5226    0.0000 H   0  0  0  0  0  0  0  0  0  0  0  0
    4.5981   -2.0600    0.0000 H   0  0  0  0  0  0  0  0  0  0  0  0
    4.5981    1.1800    0.0000 H   0  0  0  0  0  0  0  0  0  0  0  0
    2.3100    2.5969    0.0000 H   0  0  0  0  0  0  0  0  0  0  0  0
    1.4631    2.3700    0.0000 H   0  0  0  0  0  0  0  0  0  0  0  0
    1.6900    1.5231    0.0000 H   0  0  0  0  0  0  0  0  0  0  0  0
  1  9  1  0  0  0  0
  1 10  1  0  0  0  0
  2  9  2  0  0  0  0
  3  4  1  0  0  0  0
  3  6  1  0  0  0  0
  3 17  1  0  0  0  0
  4  5  1  0  0  0  0
  4 11  1  0  0  0  0
  4 12  1  0  0  0  0
  5  8  1  0  0  0  0
  5 13  1  0  0  0  0
  5 14  1  0  0  0  0
  6  7  1  0  0  0  0
  6 15  1  0  0  0  0
  6 16  1  0  0  0  0
  7  8  2  0  0  0  0
  7  9  1  0  0  0  0
  8 18  1  0  0  0  0
 10 19  1  0  0  0  0
 10 20  1  0  0  0  0
 10 21  1  0  0  0  0
M  END
> <PUBCHEM_COMPOUND_CID>
160492

> <PUBCHEM_COMPOUND_CANONICALIZED>
1

> <PUBCHEM_CACTVS_COMPLEXITY>
163

> <PUBCHEM_CACTVS_HBOND_ACCEPTOR>
3

> <PUBCHEM_CACTVS_HBOND_DONOR>
1

> <PUBCHEM_CACTVS_ROTATABLE_BOND>
2

> <PUBCHEM_CACTVS_SUBSKEYS>
AAADccBiMAAAAAAAAAAAAAAAAAAAAAAAAAAgAAAAAAAAAAAAAAAAHgAQAAAADADBgAYCCALABACIAiDSCACAAAAgAAAACIEIAEgABAgAIQAEEAACEACIIYIAAAAAAAAAAAAAAAAAAAAAAAAAAAAAAAAAAA==

> <PUBCHEM_IUPAC_OPENEYE_NAME>
methyl 1,2,3,6-tetrahydropyridine-5-carboxylate

> <PUBCHEM_IUPAC_CAS_NAME>
1,2,3,6-tetrahydropyridine-5-carboxylic acid methyl ester

> <PUBCHEM_IUPAC_NAME>
methyl 1,2,3,6-tetrahydropyridine-5-carboxylate

> <PUBCHEM_IUPAC_SYSTEMATIC_NAME>
methyl 1,2,3,6-tetrahydropyridine-5-carboxylate

> <PUBCHEM_IUPAC_TRADITIONAL_NAME>
1,2,3,6-tetrahydropyridine-5-carboxylic acid methyl ester

> <PUBCHEM_IUPAC_INCHI>
InChI=1S/C7H11NO2/c1-10-7(9)6-3-2-4-8-5-6/h3,8H,2,4-5H2,1H3

> <PUBCHEM_IUPAC_INCHIKEY>
DYPLDWLIOGXSSE-UHFFFAOYSA-N

> <PUBCHEM_XLOGP3_AA>
0.1

> <PUBCHEM_EXACT_MASS>
141.078979

> <PUBCHEM_MOLECULAR_FORMULA>
C7H11NO2

> <PUBCHEM_MOLECULAR_WEIGHT>
141.16774

> <PUBCHEM_OPENEYE_CAN_SMILES>
COC(=O)C1=CCCNC1

> <PUBCHEM_OPENEYE_ISO_SMILES>
COC(=O)C1=CCCNC1

> <PUBCHEM_CACTVS_TPSA>
38.3

> <PUBCHEM_MONOISOTOPIC_WEIGHT>
141.078979

> <PUBCHEM_TOTAL_CHARGE>
0

> <PUBCHEM_HEAVY_ATOM_COUNT>
10

> <PUBCHEM_ATOM_DEF_STEREO_COUNT>
0

> <PUBCHEM_ATOM_UDEF_STEREO_COUNT>
0

> <PUBCHEM_BOND_DEF_STEREO_COUNT>
0

> <PUBCHEM_BOND_UDEF_STEREO_COUNT>
0

> <PUBCHEM_ISOTOPIC_ATOM_COUNT>
0

> <PUBCHEM_COMPONENT_COUNT>
1

> <PUBCHEM_CACTVS_TAUTO_COUNT>
1

> <PUBCHEM_COORDINATE_TYPE>
1
5
255

$$$$

