11392
  -OEChem-07051213142D

 20 21  0     0  0  0  0  0  0999 V2000
    2.0000   -0.0173    0.0000 O   0  5  0  0  0  0  0  0  0  0  0  0
    2.8660   -1.5173    0.0000 O   0  0  0  0  0  0  0  0  0  0  0  0
    2.8660   -0.5173    0.0000 N   0  3  0  0  0  0  0  0  0  0  0  0
    5.4641   -0.0173    0.0000 C   0  0  0  0  0  0  0  0  0  0  0  0
    5.4641    0.9827    0.0000 C   0  0  0  0  0  0  0  0  0  0  0  0
    4.5981   -0.5173    0.0000 C   0  0  0  0  0  0  0  0  0  0  0  0
    4.5981    1.4827    0.0000 C   0  0  0  0  0  0  0  0  0  0  0  0
    3.7320   -0.0173    0.0000 C   0  0  0  0  0  0  0  0  0  0  0  0
    6.3580   -0.5520    0.0000 C   0  0  0  0  0  0  0  0  0  0  0  0
    6.3580    1.5173    0.0000 C   0  0  0  0  0  0  0  0  0  0  0  0
    3.7320    0.9827    0.0000 C   0  0  0  0  0  0  0  0  0  0  0  0
    7.2641   -0.0381    0.0000 C   0  0  0  0  0  0  0  0  0  0  0  0
    7.2641    1.0035    0.0000 C   0  0  0  0  0  0  0  0  0  0  0  0
    4.5981   -1.1373    0.0000 H   0  0  0  0  0  0  0  0  0  0  0  0
    4.5981    2.1027    0.0000 H   0  0  0  0  0  0  0  0  0  0  0  0
    6.3509   -1.1720    0.0000 H   0  0  0  0  0  0  0  0  0  0  0  0
    6.3509    2.1373    0.0000 H   0  0  0  0  0  0  0  0  0  0  0  0
    3.1951    1.2927    0.0000 H   0  0  0  0  0  0  0  0  0  0  0  0
    7.7998   -0.3502    0.0000 H   0  0  0  0  0  0  0  0  0  0  0  0
    7.7998    1.3156    0.0000 H   0  0  0  0  0  0  0  0  0  0  0  0
  1  3  1  0  0  0  0
  2  3  2  0  0  0  0
  3  8  1  0  0  0  0
  4  5  1  0  0  0  0
  4  6  1  0  0  0  0
  4  9  2  0  0  0  0
  5  7  1  0  0  0  0
  5 10  2  0  0  0  0
  6  8  2  0  0  0  0
  6 14  1  0  0  0  0
  7 11  2  0  0  0  0
  7 15  1  0  0  0  0
  8 11  1  0  0  0  0
  9 12  1  0  0  0  0
  9 16  1  0  0  0  0
 10 13  1  0  0  0  0
 10 17  1  0  0  0  0
 11 18  1  0  0  0  0
 12 13  2  0  0  0  0
 12 19  1  0  0  0  0
 13 20  1  0  0  0  0
M  CHG  2   1  -1   3   1
M  END
> <PUBCHEM_COMPOUND_CID>
11392

> <PUBCHEM_COMPOUND_CANONICALIZED>
1

> <PUBCHEM_CACTVS_COMPLEXITY>
200

> <PUBCHEM_CACTVS_HBOND_ACCEPTOR>
2

> <PUBCHEM_CACTVS_HBOND_DONOR>
0

> <PUBCHEM_CACTVS_ROTATABLE_BOND>
0

> <PUBCHEM_CACTVS_SUBSKEYS>
AAADcYByMAAAAAAAAAAAAAAAAAAAAAAAAAAwYAAAAAAAAADBUAAAHAAEAAAADAiBGAAwwMAQQACBAiRCQwCCAAAgAgAoiAAAZIoIICKAkZGAIABggAAIyAcQgIAOiAAAQAAQAAAQAACAACAAAAAAAAAAAA==

> <PUBCHEM_IUPAC_OPENEYE_NAME>
2-nitronaphthalene

> <PUBCHEM_IUPAC_CAS_NAME>
2-nitronaphthalene

> <PUBCHEM_IUPAC_NAME>
2-nitronaphthalene

> <PUBCHEM_IUPAC_SYSTEMATIC_NAME>
2-nitronaphthalene

> <PUBCHEM_IUPAC_TRADITIONAL_NAME>
2-nitronaphthalene

> <PUBCHEM_IUPAC_INCHI>
InChI=1S/C10H7NO2/c12-11(13)10-6-5-8-3-1-2-4-9(8)7-10/h1-7H

> <PUBCHEM_IUPAC_INCHIKEY>
ZJYJZEAJZXVAMF-UHFFFAOYSA-N

> <PUBCHEM_XLOGP3>
3.3

> <PUBCHEM_EXACT_MASS>
173.047678

> <PUBCHEM_MOLECULAR_FORMULA>
C10H7NO2

> <PUBCHEM_MOLECULAR_WEIGHT>
173.16808

> <PUBCHEM_OPENEYE_CAN_SMILES>
C1=CC=C2C=C(C=CC2=C1)[N+](=O)[O-]

> <PUBCHEM_OPENEYE_ISO_SMILES>
C1=CC=C2C=C(C=CC2=C1)[N+](=O)[O-]

> <PUBCHEM_CACTVS_TPSA>
45.8

> <PUBCHEM_MONOISOTOPIC_WEIGHT>
173.047678

> <PUBCHEM_TOTAL_CHARGE>
0

> <PUBCHEM_HEAVY_ATOM_COUNT>
13

> <PUBCHEM_ATOM_DEF_STEREO_COUNT>
0

> <PUBCHEM_ATOM_UDEF_STEREO_COUNT>
0

> <PUBCHEM_BOND_DEF_STEREO_COUNT>
0

> <PUBCHEM_BOND_UDEF_STEREO_COUNT>
0

> <PUBCHEM_ISOTOPIC_ATOM_COUNT>
0

> <PUBCHEM_COMPONENT_COUNT>
1

> <PUBCHEM_CACTVS_TAUTO_COUNT>
1

> <PUBCHEM_COORDINATE_TYPE>
1
5
255

> <PUBCHEM_BONDANNOTATIONS>
10  13  8
12  13  8
4  5  8
4  6  8
4  9  8
5  10  8
5  7  8
6  8  8
7  11  8
8  11  8
9  12  8

$$$$

