   Color/Form
        Dark-red plates or needles from water and ethanol
   from [1]HSDB

   Boiling Point
        110 deg C at 12 mm Hg
   from [2]HSDB

   Melting Point
        131 deg C
   from [3]HSDB

   Dissociation Constants
        pKa = 7.81 at 25 deg C (phenol)
   from [4]HSDB

   Octanol/Water Partition Coefficient
        log Kow = 0.96 [Bronaugh RL, Congdon ER; J Invest Dermatol 83:
   124-27 (1984)] [5]PubMed Abstract
   from [6]HSDB

   Solubilities

     * Soluble in water, ethanol, diethyl ether; slightly soluble in
       dimethylsulfoxide
     * In water, 1.1X10+4 mg/L at 25 deg C (est)

   from [7]HSDB

   Spectral Properties

     * MAX ABSORPTION (METHANOL): 234 NM
     * MASS: 70381 (NIST/EPA/MSDC Mass Spectral Database, 1990 Version)
     * IR: 21540 (Sadtler Research Laboratories IR Grating Collection)
     * UV: 6967 (Sadtler Research Laboratories Spectral Collection)
     * 1H NMR: 10025 (Sadtler Research Laboratories Spectral Collection)

   from [8]HSDB

   Vapor Pressure
        3.5X10-5 mm Hg at 25 deg C (est)
   from [9]HSDB

   Other Chemical/Physical Properties

     * When heated to decomposition it emits toxic fumes of NOx.
     * Henry's Law constant = 2.2X10-12 atm-cu m/mole at 25 deg C (est)
     * Hydroxyl radical reaction rate constant = 7.0X10-12 cu
       cm/molecule-sec at 25 deg C (est)

   from [10]HSDB

   Computed Properties
   Molecular Weight                  154.12344 [g/mol]
   Molecular Formula                 C[6]H[6]N[2]O[3]
   XLogP3                            1
   H-Bond Donor                      2
   H-Bond Acceptor                   4
   Rotatable Bond Count              0
   Tautomer Count                    9
   Exact Mass                        154.037842
   MonoIsotopic Mass                 154.037842
   Topological Polar Surface Area    92.1
   Heavy Atom Count                  11
   Formal Charge                     0
   Complexity                        156
   Isotope Atom Count                0
   Defined Atom Stereocenter Count   0
   Undefined Atom Stereocenter Count 0
   Defined Bond Stereocenter Count   0
   Undefined Bond Stereocenter Count 0
   Covalently-Bonded Unit Count      1
   Feature 3D Acceptor Count         2
   Feature 3D Donor Count            2
   Feature 3D Anion Count            1
   Feature 3D Cation Count           1
   Feature 3D Ring Count             1
   Effective Rotor Count             1
   Conformer Sampling RMSD           0.4
   CID Conformer Count               [11]1

References

   1. http://toxnet.nlm.nih.gov/cgi-bin/sis/search/r?dbs+hsdb:@term+@rn+@rel+119-34-6
   2. http://toxnet.nlm.nih.gov/cgi-bin/sis/search/r?dbs+hsdb:@term+@rn+@rel+119-34-6
   3. http://toxnet.nlm.nih.gov/cgi-bin/sis/search/r?dbs+hsdb:@term+@rn+@rel+119-34-6
   4. http://toxnet.nlm.nih.gov/cgi-bin/sis/search/r?dbs+hsdb:@term+@rn+@rel+119-34-6
   5. http://www.ncbi.nlm.nih.gov/entrez/query.fcgi?cmd=Retrieve&db=pubmed&dopt=Abstract&list_uids=6470515
   6. http://toxnet.nlm.nih.gov/cgi-bin/sis/search/r?dbs+hsdb:@term+@rn+@rel+119-34-6
   7. http://toxnet.nlm.nih.gov/cgi-bin/sis/search/r?dbs+hsdb:@term+@rn+@rel+119-34-6
   8. http://toxnet.nlm.nih.gov/cgi-bin/sis/search/r?dbs+hsdb:@term+@rn+@rel+119-34-6
   9. http://toxnet.nlm.nih.gov/cgi-bin/sis/search/r?dbs+hsdb:@term+@rn+@rel+119-34-6
  10. http://toxnet.nlm.nih.gov/cgi-bin/sis/search/r?dbs+hsdb:@term+@rn+@rel+119-34-6
  11. http://pubchem.ncbi.nlm.nih.gov/vw3d/vw3d.cgi?cid=3417419
