6523
  -OEChem-06261201222D

 61 58  0     0  0  0  0  0  0999 V2000
    5.0501    0.0000    0.0000 Br  0  5  0  0  0  0  0  0  0  0  0  0
    5.0501    2.5000    0.0000 Br  0  5  0  0  0  0  0  0  0  0  0  0
    5.7331    7.2690    0.0000 O   0  0  0  0  0  0  0  0  0  0  0  0
    4.8671    8.7690    0.0000 O   0  0  0  0  0  0  0  0  0  0  0  0
    2.2690    7.2690    0.0000 N   0  3  0  0  0  0  0  0  0  0  0  0
    8.3312    7.7690    0.0000 N   0  3  0  0  0  0  0  0  0  0  0  0
    3.1350    7.7690    0.0000 C   0  0  0  0  0  0  0  0  0  0  0  0
    7.4651    7.2690    0.0000 C   0  0  0  0  0  0  0  0  0  0  0  0
    1.4030    6.7690    0.0000 C   0  0  0  0  0  0  0  0  0  0  0  0
    1.7690    8.1350    0.0000 C   0  0  0  0  0  0  0  0  0  0  0  0
    2.7690    6.4030    0.0000 C   0  0  0  0  0  0  0  0  0  0  0  0
    9.1972    8.2690    0.0000 C   0  0  0  0  0  0  0  0  0  0  0  0
    8.8312    6.9030    0.0000 C   0  0  0  0  0  0  0  0  0  0  0  0
    7.8312    8.6350    0.0000 C   0  0  0  0  0  0  0  0  0  0  0  0
    4.0010    7.2690    0.0000 C   0  0  0  0  0  0  0  0  0  0  0  0
    6.5991    7.7690    0.0000 C   0  0  0  0  0  0  0  0  0  0  0  0
    0.5369    7.2690    0.0000 C   0  0  0  0  0  0  0  0  0  0  0  0
    2.2690    9.0010    0.0000 C   0  0  0  0  0  0  0  0  0  0  0  0
    2.2690    5.5369    0.0000 C   0  0  0  0  0  0  0  0  0  0  0  0
   10.0632    7.7690    0.0000 C   0  0  0  0  0  0  0  0  0  0  0  0
    8.3312    6.0369    0.0000 C   0  0  0  0  0  0  0  0  0  0  0  0
    8.3312    9.5010    0.0000 C   0  0  0  0  0  0  0  0  0  0  0  0
    4.8671    7.7690    0.0000 C   0  0  0  0  0  0  0  0  0  0  0  0
    3.5335    8.2439    0.0000 H   0  0  0  0  0  0  0  0  0  0  0  0
    2.7365    8.2439    0.0000 H   0  0  0  0  0  0  0  0  0  0  0  0
    7.0666    6.7940    0.0000 H   0  0  0  0  0  0  0  0  0  0  0  0
    7.8637    6.7940    0.0000 H   0  0  0  0  0  0  0  0  0  0  0  0
    1.0044    6.2940    0.0000 H   0  0  0  0  0  0  0  0  0  0  0  0
    1.8015    6.2940    0.0000 H   0  0  0  0  0  0  0  0  0  0  0  0
    1.2940    8.5335    0.0000 H   0  0  0  0  0  0  0  0  0  0  0  0
    1.2940    7.7365    0.0000 H   0  0  0  0  0  0  0  0  0  0  0  0
    3.2439    6.0044    0.0000 H   0  0  0  0  0  0  0  0  0  0  0  0
    3.2439    6.8015    0.0000 H   0  0  0  0  0  0  0  0  0  0  0  0
    9.5957    8.7439    0.0000 H   0  0  0  0  0  0  0  0  0  0  0  0
    8.7987    8.7439    0.0000 H   0  0  0  0  0  0  0  0  0  0  0  0
    9.3061    6.5044    0.0000 H   0  0  0  0  0  0  0  0  0  0  0  0
    9.3061    7.3015    0.0000 H   0  0  0  0  0  0  0  0  0  0  0  0
    7.3562    9.0335    0.0000 H   0  0  0  0  0  0  0  0  0  0  0  0
    7.3562    8.2365    0.0000 H   0  0  0  0  0  0  0  0  0  0  0  0
    3.6025    6.7940    0.0000 H   0  0  0  0  0  0  0  0  0  0  0  0
    4.3996    6.7940    0.0000 H   0  0  0  0  0  0  0  0  0  0  0  0
    6.9976    8.2439    0.0000 H   0  0  0  0  0  0  0  0  0  0  0  0
    6.2006    8.2439    0.0000 H   0  0  0  0  0  0  0  0  0  0  0  0
    0.8469    7.8059    0.0000 H   0  0  0  0  0  0  0  0  0  0  0  0
    0.0000    7.5790    0.0000 H   0  0  0  0  0  0  0  0  0  0  0  0
    0.2269    6.7320    0.0000 H   0  0  0  0  0  0  0  0  0  0  0  0
    2.8059    8.6910    0.0000 H   0  0  0  0  0  0  0  0  0  0  0  0
    2.5790    9.5380    0.0000 H   0  0  0  0  0  0  0  0  0  0  0  0
    1.7320    9.3110    0.0000 H   0  0  0  0  0  0  0  0  0  0  0  0
    1.7320    5.8469    0.0000 H   0  0  0  0  0  0  0  0  0  0  0  0
    1.9590    5.0000    0.0000 H   0  0  0  0  0  0  0  0  0  0  0  0
    2.8059    5.2269    0.0000 H   0  0  0  0  0  0  0  0  0  0  0  0
    8.8681    9.1910    0.0000 H   0  0  0  0  0  0  0  0  0  0  0  0
    8.6412   10.0380    0.0000 H   0  0  0  0  0  0  0  0  0  0  0  0
    7.7942    9.8110    0.0000 H   0  0  0  0  0  0  0  0  0  0  0  0
    7.7942    6.3469    0.0000 H   0  0  0  0  0  0  0  0  0  0  0  0
    8.0212    5.5000    0.0000 H   0  0  0  0  0  0  0  0  0  0  0  0
    8.8681    5.7269    0.0000 H   0  0  0  0  0  0  0  0  0  0  0  0
    9.7532    7.2320    0.0000 H   0  0  0  0  0  0  0  0  0  0  0  0
   10.6002    7.4590    0.0000 H   0  0  0  0  0  0  0  0  0  0  0  0
   10.3732    8.3059    0.0000 H   0  0  0  0  0  0  0  0  0  0  0  0
  3 16  1  0  0  0  0
  3 23  1  0  0  0  0
  4 23  2  0  0  0  0
  5  7  1  0  0  0  0
  5  9  1  0  0  0  0
  5 10  1  0  0  0  0
  5 11  1  0  0  0  0
  6  8  1  0  0  0  0
  6 12  1  0  0  0  0
  6 13  1  0  0  0  0
  6 14  1  0  0  0  0
  7 15  1  0  0  0  0
  7 24  1  0  0  0  0
  7 25  1  0  0  0  0
  8 16  1  0  0  0  0
  8 26  1  0  0  0  0
  8 27  1  0  0  0  0
  9 17  1  0  0  0  0
  9 28  1  0  0  0  0
  9 29  1  0  0  0  0
 10 18  1  0  0  0  0
 10 30  1  0  0  0  0
 10 31  1  0  0  0  0
 11 19  1  0  0  0  0
 11 32  1  0  0  0  0
 11 33  1  0  0  0  0
 12 20  1  0  0  0  0
 12 34  1  0  0  0  0
 12 35  1  0  0  0  0
 13 21  1  0  0  0  0
 13 36  1  0  0  0  0
 13 37  1  0  0  0  0
 14 22  1  0  0  0  0
 14 38  1  0  0  0  0
 14 39  1  0  0  0  0
 15 23  1  0  0  0  0
 15 40  1  0  0  0  0
 15 41  1  0  0  0  0
 16 42  1  0  0  0  0
 16 43  1  0  0  0  0
 17 44  1  0  0  0  0
 17 45  1  0  0  0  0
 17 46  1  0  0  0  0
 18 47  1  0  0  0  0
 18 48  1  0  0  0  0
 18 49  1  0  0  0  0
 19 50  1  0  0  0  0
 19 51  1  0  0  0  0
 19 52  1  0  0  0  0
 20 59  1  0  0  0  0
 20 60  1  0  0  0  0
 20 61  1  0  0  0  0
 21 56  1  0  0  0  0
 21 57  1  0  0  0  0
 21 58  1  0  0  0  0
 22 53  1  0  0  0  0
 22 54  1  0  0  0  0
 22 55  1  0  0  0  0
M  CHG  4   1  -1   2  -1   5   1   6   1
M  END
> <PUBCHEM_COMPOUND_CID>
6523

> <PUBCHEM_COMPOUND_CANONICALIZED>
1

> <PUBCHEM_CACTVS_COMPLEXITY>
268

> <PUBCHEM_CACTVS_HBOND_ACCEPTOR>
4

> <PUBCHEM_CACTVS_HBOND_DONOR>
0

> <PUBCHEM_CACTVS_ROTATABLE_BOND>
13

> <PUBCHEM_CACTVS_SUBSKEYS>
AAADcfB7MAAAGAAAAAAAAAAAAAAAAAAAAAAAAAAAAAAAAAAAAAAAHgAAAAAACADhgAYCCAMABAAIAACQCAAAAAAAAAAAAAEIAAACAAgAAAAHAAACAACQAAAAAAAAAAAAAAAAAAAAAAAAAAAAAAAAAAAAAA==

> <PUBCHEM_IUPAC_OPENEYE_NAME>
triethyl-[3-oxo-3-[2-(triethylammonio)ethoxy]propyl]ammonium dibromide

> <PUBCHEM_IUPAC_CAS_NAME>
triethyl-[3-oxo-3-[2-(triethylammonio)ethoxy]propyl]ammonium dibromide

> <PUBCHEM_IUPAC_NAME>
triethyl-[3-oxo-3-[2-(triethylazaniumyl)ethoxy]propyl]azanium dibromide

> <PUBCHEM_IUPAC_SYSTEMATIC_NAME>
triethyl-[3-oxidanylidene-3-[2-(triethylazaniumyl)ethoxy]propyl]azanium dibromide

> <PUBCHEM_IUPAC_TRADITIONAL_NAME>
triethyl-[3-keto-3-[2-(triethylammonio)ethoxy]propyl]ammonium dibromide

> <PUBCHEM_IUPAC_INCHI>
InChI=1S/C17H38N2O2.2BrH/c1-7-18(8-2,9-3)14-13-17(20)21-16-15-19(10-4,11-5)12-6;;/h7-16H2,1-6H3;2*1H/q+2;;/p-2

> <PUBCHEM_IUPAC_INCHIKEY>
DJHLFKRQJQCAEA-UHFFFAOYSA-L

> <PUBCHEM_EXACT_MASS>
462.127956

> <PUBCHEM_MOLECULAR_FORMULA>
C17H38Br2N2O2

> <PUBCHEM_MOLECULAR_WEIGHT>
462.30382

> <PUBCHEM_OPENEYE_CAN_SMILES>
CC[N+](CC)(CC)CCC(=O)OCC[N+](CC)(CC)CC.[Br-].[Br-]

> <PUBCHEM_OPENEYE_ISO_SMILES>
CC[N+](CC)(CC)CCC(=O)OCC[N+](CC)(CC)CC.[Br-].[Br-]

> <PUBCHEM_CACTVS_TPSA>
26.3

> <PUBCHEM_MONOISOTOPIC_WEIGHT>
460.130003

> <PUBCHEM_TOTAL_CHARGE>
0

> <PUBCHEM_HEAVY_ATOM_COUNT>
23

> <PUBCHEM_ATOM_DEF_STEREO_COUNT>
0

> <PUBCHEM_ATOM_UDEF_STEREO_COUNT>
0

> <PUBCHEM_BOND_DEF_STEREO_COUNT>
0

> <PUBCHEM_BOND_UDEF_STEREO_COUNT>
0

> <PUBCHEM_ISOTOPIC_ATOM_COUNT>
0

> <PUBCHEM_COMPONENT_COUNT>
3

> <PUBCHEM_CACTVS_TAUTO_COUNT>
1

> <PUBCHEM_COORDINATE_TYPE>
1
5
255

$$$$

