   Color/Form
        Crystals from alcohol
   from [1]HSDB

   Boiling Point
        152 deg C at 14 mm Hg
   from [2]HSDB

   Melting Point
        32.5 deg C
   from [3]HSDB

   Density/Specific Gravity
        0.8223 at 31 deg C/4 deg C
   from [4]HSDB

   Octanol/Water Partition Coefficient
        log Kow = 5.82 [Abraham MH et al; J Pharm Sci 83: 1085-100 (1994)]
   [5]PubMed Abstract
   from [6]HSDB

   Solubilities

     * Sol in ethanol, ether
     * In water, 1.4 mg/L at 25 deg C (est)

   from [7]HSDB

   Spectral Properties

     * IR: 2064 (Coblentz Society Spectral Collection)
     * MASS: 69979 (NIST/EPA/MSDC Mass Spectral Database, 1990 version);
       1189 (National Bureau of Standards)

   from [8]HSDB

   Vapor Density
        6.9 (Air = 1)
   from [9]HSDB

   Vapor Pressure
        4.36X10-4 mm Hg at 25 deg C
   from [10]HSDB

   Other Chemical/Physical Properties

     * Low-melting white solid; pleasant odor. BP: 274 deg C, MP: 31 deg
       C, density = 0.845 at 20 deg C/20 deg C. Bulk density 7.0 lb/gal
       /Commercial mixture of isomers/
     * COLORLESS OILY LIQ; MILD PLEASANT ODOR; LIQUID SURFACE TENSION:
       (EST) 30 DYNES/CM= 0.03 N/M @ 20 DEG C; LIQUID-WATER INTERFACIAL
       TENSION: (EST) 30 DYNES/CM= 0.03 N/M @ 20 DEG C; RATIO OF SPECIFIC
       HEATS OF VAPOR (GAS): 1.027; LATENT HEAT OF VAPORIZATION: 120
       BTU/LB= 64 CAL/G= 2.7X10+5 JOULES/KG; HEAT OF COMBUSTION: (EST)
       -12,200 BTU/LB= -6,790 CAL/G= -284X10+5 JOULES/KG /MIXED ISOMERS/
     * Liquid molar volume = 0.242006 cu m/kmol (determined at the triple
       point).
     * IG Heat of Formation = -4.6346X10+8 J/kmol
     * Heat Fusion at Melting point = 4.5120X10+7 J/kmol (for the beta
       form)
     * Henry's Law constant = 1.3X10-4 atm-cu m/mol at 25 deg C (est)
     * Hydroxyl radical reaction rate constant = 1.96X10-11 cu
       cm/molec-sec at 25 deg C (est)

   from [11]HSDB

   Computed Properties
   Molecular Weight                  200.36082 [g/mol]
   Molecular Formula                 C[13]H[28]O
   XLogP3                            5.7
   H-Bond Donor                      1
   H-Bond Acceptor                   1
   Rotatable Bond Count              11
   Exact Mass                        200.214016
   MonoIsotopic Mass                 200.214016
   Topological Polar Surface Area    20.2
   Heavy Atom Count                  14
   Formal Charge                     0
   Complexity                        91.2
   Isotope Atom Count                0
   Defined Atom Stereocenter Count   0
   Undefined Atom Stereocenter Count 0
   Defined Bond Stereocenter Count   0
   Undefined Bond Stereocenter Count 0
   Covalently-Bonded Unit Count      1
   Feature 3D Acceptor Count         1
   Feature 3D Donor Count            1
   Feature 3D Hydrophobe Count       1
   Effective Rotor Count             11
   Conformer Sampling RMSD           1.2
   CID Conformer Count               [12]60

References

   1. http://toxnet.nlm.nih.gov/cgi-bin/sis/search/r?dbs+hsdb:@term+@rn+@rel+112-70-9
   2. http://toxnet.nlm.nih.gov/cgi-bin/sis/search/r?dbs+hsdb:@term+@rn+@rel+112-70-9
   3. http://toxnet.nlm.nih.gov/cgi-bin/sis/search/r?dbs+hsdb:@term+@rn+@rel+112-70-9
   4. http://toxnet.nlm.nih.gov/cgi-bin/sis/search/r?dbs+hsdb:@term+@rn+@rel+112-70-9
   5. http://www.ncbi.nlm.nih.gov/entrez/query.fcgi?cmd=Retrieve&db=pubmed&dopt=Abstract&list_uids=7983591
   6. http://toxnet.nlm.nih.gov/cgi-bin/sis/search/r?dbs+hsdb:@term+@rn+@rel+112-70-9
   7. http://toxnet.nlm.nih.gov/cgi-bin/sis/search/r?dbs+hsdb:@term+@rn+@rel+112-70-9
   8. http://toxnet.nlm.nih.gov/cgi-bin/sis/search/r?dbs+hsdb:@term+@rn+@rel+112-70-9
   9. http://toxnet.nlm.nih.gov/cgi-bin/sis/search/r?dbs+hsdb:@term+@rn+@rel+112-70-9
  10. http://toxnet.nlm.nih.gov/cgi-bin/sis/search/r?dbs+hsdb:@term+@rn+@rel+112-70-9
  11. http://toxnet.nlm.nih.gov/cgi-bin/sis/search/r?dbs+hsdb:@term+@rn+@rel+112-70-9
  12. http://pubchem.ncbi.nlm.nih.gov/vw3d/vw3d.cgi?cid=8207
