91600
  -OEChem-07051213132D

 44 47  0     0  0  0  0  0  0999 V2000
    2.4019   -2.8364    0.0000 F   0  0  0  0  0  0  0  0  0  0  0  0
    3.7680   -3.2024    0.0000 F   0  0  0  0  0  0  0  0  0  0  0  0
    2.7680   -1.4704    0.0000 F   0  0  0  0  0  0  0  0  0  0  0  0
    5.0000    1.6636    0.0000 N   0  0  0  0  0  0  0  0  0  0  0  0
    5.8090    2.2514    0.0000 N   0  0  0  0  0  0  0  0  0  0  0  0
    4.5000    3.2024    0.0000 N   0  0  0  0  0  0  0  0  0  0  0  0
    5.0000    0.6636    0.0000 C   0  0  0  0  0  0  0  0  0  0  0  0
    5.0000   -0.3364    0.0000 C   0  0  0  0  0  0  0  0  0  0  0  0
    6.0000    0.6636    0.0000 C   0  0  0  0  0  0  0  0  0  0  0  0
    4.0000    0.6636    0.0000 C   0  0  0  0  0  0  0  0  0  0  0  0
    4.1340   -0.8364    0.0000 C   0  0  0  0  0  0  0  0  0  0  0  0
    5.8660   -0.8364    0.0000 C   0  0  0  0  0  0  0  0  0  0  0  0
    3.5000    1.5296    0.0000 C   0  0  0  0  0  0  0  0  0  0  0  0
    6.5000   -0.2024    0.0000 C   0  0  0  0  0  0  0  0  0  0  0  0
    3.5000   -0.2024    0.0000 C   0  0  0  0  0  0  0  0  0  0  0  0
    6.5000    1.5296    0.0000 C   0  0  0  0  0  0  0  0  0  0  0  0
    4.1340   -1.8364    0.0000 C   0  0  0  0  0  0  0  0  0  0  0  0
    4.1910    2.2514    0.0000 C   0  0  0  0  0  0  0  0  0  0  0  0
    5.8660   -1.8364    0.0000 C   0  0  0  0  0  0  0  0  0  0  0  0
    5.0000   -2.3364    0.0000 C   0  0  0  0  0  0  0  0  0  0  0  0
    2.5000    1.5296    0.0000 C   0  0  0  0  0  0  0  0  0  0  0  0
    7.5000   -0.2024    0.0000 C   0  0  0  0  0  0  0  0  0  0  0  0
    2.5000   -0.2024    0.0000 C   0  0  0  0  0  0  0  0  0  0  0  0
    7.5000    1.5296    0.0000 C   0  0  0  0  0  0  0  0  0  0  0  0
    2.0000    0.6636    0.0000 C   0  0  0  0  0  0  0  0  0  0  0  0
    8.0000    0.6636    0.0000 C   0  0  0  0  0  0  0  0  0  0  0  0
    3.2680   -2.3364    0.0000 C   0  0  0  0  0  0  0  0  0  0  0  0
    5.5000    3.2024    0.0000 C   0  0  0  0  0  0  0  0  0  0  0  0
    3.5970   -0.5264    0.0000 H   0  0  0  0  0  0  0  0  0  0  0  0
    6.4030   -0.5264    0.0000 H   0  0  0  0  0  0  0  0  0  0  0  0
    6.1900   -0.7394    0.0000 H   0  0  0  0  0  0  0  0  0  0  0  0
    3.8100    2.0666    0.0000 H   0  0  0  0  0  0  0  0  0  0  0  0
    6.1900    2.0666    0.0000 H   0  0  0  0  0  0  0  0  0  0  0  0
    3.8100   -0.7394    0.0000 H   0  0  0  0  0  0  0  0  0  0  0  0
    3.6013    2.0598    0.0000 H   0  0  0  0  0  0  0  0  0  0  0  0
    6.4030   -2.1464    0.0000 H   0  0  0  0  0  0  0  0  0  0  0  0
    5.0000   -2.9564    0.0000 H   0  0  0  0  0  0  0  0  0  0  0  0
    2.1900    2.0666    0.0000 H   0  0  0  0  0  0  0  0  0  0  0  0
    7.8100   -0.7394    0.0000 H   0  0  0  0  0  0  0  0  0  0  0  0
    2.1900   -0.7394    0.0000 H   0  0  0  0  0  0  0  0  0  0  0  0
    7.8100    2.0666    0.0000 H   0  0  0  0  0  0  0  0  0  0  0  0
    1.3800    0.6636    0.0000 H   0  0  0  0  0  0  0  0  0  0  0  0
    8.6200    0.6636    0.0000 H   0  0  0  0  0  0  0  0  0  0  0  0
    5.8644    3.7040    0.0000 H   0  0  0  0  0  0  0  0  0  0  0  0
  1 27  1  0  0  0  0
  2 27  1  0  0  0  0
  3 27  1  0  0  0  0
  4  5  1  0  0  0  0
  4  7  1  0  0  0  0
  4 18  1  0  0  0  0
  5 28  2  0  0  0  0
  6 18  2  0  0  0  0
  6 28  1  0  0  0  0
  7  8  1  0  0  0  0
  7  9  1  0  0  0  0
  7 10  1  0  0  0  0
  8 11  2  0  0  0  0
  8 12  1  0  0  0  0
  9 14  2  0  0  0  0
  9 16  1  0  0  0  0
 10 13  2  0  0  0  0
 10 15  1  0  0  0  0
 11 17  1  0  0  0  0
 11 29  1  0  0  0  0
 12 19  2  0  0  0  0
 12 30  1  0  0  0  0
 13 21  1  0  0  0  0
 13 32  1  0  0  0  0
 14 22  1  0  0  0  0
 14 31  1  0  0  0  0
 15 23  2  0  0  0  0
 15 34  1  0  0  0  0
 16 24  2  0  0  0  0
 16 33  1  0  0  0  0
 17 20  2  0  0  0  0
 17 27  1  0  0  0  0
 18 35  1  0  0  0  0
 19 20  1  0  0  0  0
 19 36  1  0  0  0  0
 20 37  1  0  0  0  0
 21 25  2  0  0  0  0
 21 38  1  0  0  0  0
 22 26  2  0  0  0  0
 22 39  1  0  0  0  0
 23 25  1  0  0  0  0
 23 40  1  0  0  0  0
 24 26  1  0  0  0  0
 24 41  1  0  0  0  0
 25 42  1  0  0  0  0
 26 43  1  0  0  0  0
 28 44  1  0  0  0  0
M  END
> <PUBCHEM_COMPOUND_CID>
91600

> <PUBCHEM_COMPOUND_CANONICALIZED>
1

> <PUBCHEM_CACTVS_COMPLEXITY>
480

> <PUBCHEM_CACTVS_HBOND_ACCEPTOR>
5

> <PUBCHEM_CACTVS_HBOND_DONOR>
0

> <PUBCHEM_CACTVS_ROTATABLE_BOND>
4

> <PUBCHEM_CACTVS_SUBSKEYS>
AAADceB7AYAAAAAAAAAAAAAAAAAAAWAAAAAwYMAAAAAAAAAB1AAAHQAIAAAADIiBGBQ1EIYIEACiAiBDJACSAAswgIAdyAAIBIiIKCKAmRGEIAhogAIIiAcQgMAOgAACAAAAAAAAAAQAAAAAAAAAAAAAAA==

> <PUBCHEM_IUPAC_OPENEYE_NAME>
1-[diphenyl-[3-(trifluoromethyl)phenyl]methyl]-1,2,4-triazole

> <PUBCHEM_IUPAC_CAS_NAME>
1-[diphenyl-[3-(trifluoromethyl)phenyl]methyl]-1,2,4-triazole

> <PUBCHEM_IUPAC_NAME>
1-[diphenyl-[3-(trifluoromethyl)phenyl]methyl]-1,2,4-triazole

> <PUBCHEM_IUPAC_SYSTEMATIC_NAME>
1-[diphenyl-[3-(trifluoromethyl)phenyl]methyl]-1,2,4-triazole

> <PUBCHEM_IUPAC_TRADITIONAL_NAME>
1-[diphenyl-[3-(trifluoromethyl)phenyl]methyl]-1,2,4-triazole

> <PUBCHEM_IUPAC_INCHI>
InChI=1S/C22H16F3N3/c23-22(24,25)20-13-7-12-19(14-20)21(28-16-26-15-27-28,17-8-3-1-4-9-17)18-10-5-2-6-11-18/h1-16H

> <PUBCHEM_IUPAC_INCHIKEY>
LXMQMMSGERCRSU-UHFFFAOYSA-N

> <PUBCHEM_XLOGP3_AA>
5.7

> <PUBCHEM_EXACT_MASS>
379.129632

> <PUBCHEM_MOLECULAR_FORMULA>
C22H16F3N3

> <PUBCHEM_MOLECULAR_WEIGHT>
379.37775

> <PUBCHEM_OPENEYE_CAN_SMILES>
C1=CC=C(C=C1)C(C2=CC=CC=C2)(C3=CC(=CC=C3)C(F)(F)F)N4C=NC=N4

> <PUBCHEM_OPENEYE_ISO_SMILES>
C1=CC=C(C=C1)C(C2=CC=CC=C2)(C3=CC(=CC=C3)C(F)(F)F)N4C=NC=N4

> <PUBCHEM_CACTVS_TPSA>
30.7

> <PUBCHEM_MONOISOTOPIC_WEIGHT>
379.129632

> <PUBCHEM_TOTAL_CHARGE>
0

> <PUBCHEM_HEAVY_ATOM_COUNT>
28

> <PUBCHEM_ATOM_DEF_STEREO_COUNT>
0

> <PUBCHEM_ATOM_UDEF_STEREO_COUNT>
0

> <PUBCHEM_BOND_DEF_STEREO_COUNT>
0

> <PUBCHEM_BOND_UDEF_STEREO_COUNT>
0

> <PUBCHEM_ISOTOPIC_ATOM_COUNT>
0

> <PUBCHEM_COMPONENT_COUNT>
1

> <PUBCHEM_CACTVS_TAUTO_COUNT>
1

> <PUBCHEM_COORDINATE_TYPE>
1
5
255

> <PUBCHEM_BONDANNOTATIONS>
10  13  8
10  15  8
11  17  8
12  19  8
13  21  8
14  22  8
15  23  8
16  24  8
17  20  8
19  20  8
21  25  8
22  26  8
23  25  8
24  26  8
4  18  8
4  5  8
5  28  8
6  18  8
6  28  8
8  11  8
8  12  8
9  14  8
9  16  8

$$$$

