5267
  -OEChem-06261200362D

 61 65  0     1  0  0  0  0  0999 V2000
    3.7319   -0.3759    0.0000 S   0  0  0  0  0  0  0  0  0  0  0  0
    7.1536   -2.7418    0.0000 O   0  0  0  0  0  0  0  0  0  0  0  0
    8.5366   -3.8657    0.0000 O   0  0  0  0  0  0  0  0  0  0  0  0
    6.4213    4.3239    0.0000 O   0  0  0  0  0  0  0  0  0  0  0  0
    2.8486    1.1139    0.0000 O   0  0  0  0  0  0  0  0  0  0  0  0
    6.3682   -1.8728    0.0000 C   0  0  3  0  0  0  0  0  0  0  0  0
    5.5021   -1.3728    0.0000 C   0  0  3  0  0  0  0  0  0  0  0  0
    5.5021   -0.3728    0.0000 C   0  0  3  0  0  0  0  0  0  0  0  0
    6.1589   -2.8446    0.0000 C   0  0  3  0  0  0  0  0  0  0  0  0
    6.3682    0.1272    0.0000 C   0  0  3  0  0  0  0  0  0  0  0  0
    7.2342   -1.3728    0.0000 C   0  0  0  0  0  0  0  0  0  0  0  0
    4.7651   -2.0399    0.0000 C   0  0  0  0  0  0  0  0  0  0  0  0
    6.3842    1.1687    0.0000 C   0  0  3  0  0  0  0  0  0  0  0  0
    7.2342   -0.3728    0.0000 C   0  0  0  0  0  0  0  0  0  0  0  0
    5.1702   -2.9477    0.0000 C   0  0  0  0  0  0  0  0  0  0  0  0
    4.5921    0.1340    0.0000 C   0  0  3  0  0  0  0  0  0  0  0  0
    7.3530   -2.0464    0.0000 C   0  0  0  0  0  0  0  0  0  0  0  0
    5.9493   -3.8224    0.0000 C   0  0  0  0  0  0  0  0  0  0  0  0
    5.4862    1.6964    0.0000 C   0  0  0  0  0  0  0  0  0  0  0  0
    4.5841    1.1756    0.0000 C   0  0  0  0  0  0  0  0  0  0  0  0
    7.3361    1.6893    0.0000 C   0  0  0  0  0  0  0  0  0  0  0  0
    7.2464    0.6620    0.0000 C   0  0  0  0  0  0  0  0  0  0  0  0
    6.8145   -4.3239    0.0000 C   0  0  0  0  0  0  0  0  0  0  0  0
    7.5588   -3.6561    0.0000 C   0  0  0  0  0  0  0  0  0  0  0  0
    7.3529    2.7742    0.0000 C   0  0  0  0  0  0  0  0  0  0  0  0
    5.4778    2.7814    0.0000 C   0  0  0  0  0  0  0  0  0  0  0  0
    6.4174    3.3239    0.0000 C   0  0  0  0  0  0  0  0  0  0  0  0
    2.8602    0.1140    0.0000 C   0  0  0  0  0  0  0  0  0  0  0  0
    2.0000   -0.3960    0.0000 C   0  0  0  0  0  0  0  0  0  0  0  0
    4.9354   -1.1214    0.0000 H   0  0  0  0  0  0  0  0  0  0  0  0
    4.9676   -0.6869    0.0000 H   0  0  0  0  0  0  0  0  0  0  0  0
    6.9075    0.4330    0.0000 H   0  0  0  0  0  0  0  0  0  0  0  0
    7.4462   -1.9554    0.0000 H   0  0  0  0  0  0  0  0  0  0  0  0
    7.8448   -1.2651    0.0000 H   0  0  0  0  0  0  0  0  0  0  0  0
    4.3997   -1.5390    0.0000 H   0  0  0  0  0  0  0  0  0  0  0  0
    4.2286   -2.3507    0.0000 H   0  0  0  0  0  0  0  0  0  0  0  0
    7.8448   -0.4805    0.0000 H   0  0  0  0  0  0  0  0  0  0  0  0
    7.4462    0.2098    0.0000 H   0  0  0  0  0  0  0  0  0  0  0  0
    4.5806   -3.1394    0.0000 H   0  0  0  0  0  0  0  0  0  0  0  0
    5.2989   -3.5542    0.0000 H   0  0  0  0  0  0  0  0  0  0  0  0
    4.0522    0.4389    0.0000 H   0  0  0  0  0  0  0  0  0  0  0  0
    7.2453   -2.6570    0.0000 H   0  0  0  0  0  0  0  0  0  0  0  0
    7.9635   -2.1541    0.0000 H   0  0  0  0  0  0  0  0  0  0  0  0
    7.4606   -1.4359    0.0000 H   0  0  0  0  0  0  0  0  0  0  0  0
    5.3600   -3.6298    0.0000 H   0  0  0  0  0  0  0  0  0  0  0  0
    5.6962   -4.3884    0.0000 H   0  0  0  0  0  0  0  0  0  0  0  0
    4.3705    1.7577    0.0000 H   0  0  0  0  0  0  0  0  0  0  0  0
    3.9741    1.0648    0.0000 H   0  0  0  0  0  0  0  0  0  0  0  0
    7.5362    1.1025    0.0000 H   0  0  0  0  0  0  0  0  0  0  0  0
    7.9486    1.7860    0.0000 H   0  0  0  0  0  0  0  0  0  0  0  0
    6.9322    0.1275    0.0000 H   0  0  0  0  0  0  0  0  0  0  0  0
    7.7809    0.3479    0.0000 H   0  0  0  0  0  0  0  0  0  0  0  0
    7.5605    1.1966    0.0000 H   0  0  0  0  0  0  0  0  0  0  0  0
    6.4492   -4.8249    0.0000 H   0  0  0  0  0  0  0  0  0  0  0  0
    7.2745   -4.7396    0.0000 H   0  0  0  0  0  0  0  0  0  0  0  0
    7.9620    2.6587    0.0000 H   0  0  0  0  0  0  0  0  0  0  0  0
    7.5709    3.3546    0.0000 H   0  0  0  0  0  0  0  0  0  0  0  0
    4.9397    3.0894    0.0000 H   0  0  0  0  0  0  0  0  0  0  0  0
    1.6838    0.1373    0.0000 H   0  0  0  0  0  0  0  0  0  0  0  0
    1.4667   -0.7122    0.0000 H   0  0  0  0  0  0  0  0  0  0  0  0
    2.3162   -0.9293    0.0000 H   0  0  0  0  0  0  0  0  0  0  0  0
  1 16  1  0  0  0  0
  1 28  1  0  0  0  0
  2  9  1  0  0  0  0
  2 24  1  0  0  0  0
  3 24  2  0  0  0  0
  4 27  2  0  0  0  0
  5 28  2  0  0  0  0
  6  7  1  0  0  0  0
  6  9  1  0  0  0  0
  6 11  1  0  0  0  0
  6 17  1  0  0  0  0
  7  8  1  0  0  0  0
  7 12  1  0  0  0  0
  7 30  1  0  0  0  0
  8 10  1  0  0  0  0
  8 16  1  0  0  0  0
  8 31  1  0  0  0  0
  9 15  1  0  0  0  0
  9 18  1  0  0  0  0
 10 13  1  0  0  0  0
 10 14  1  0  0  0  0
 10 32  1  0  0  0  0
 11 14  1  0  0  0  0
 11 33  1  0  0  0  0
 11 34  1  0  0  0  0
 12 15  1  0  0  0  0
 12 35  1  0  0  0  0
 12 36  1  0  0  0  0
 13 19  1  0  0  0  0
 13 21  1  0  0  0  0
 13 22  1  0  0  0  0
 14 37  1  0  0  0  0
 14 38  1  0  0  0  0
 15 39  1  0  0  0  0
 15 40  1  0  0  0  0
 16 20  1  0  0  0  0
 16 41  1  0  0  0  0
 17 42  1  0  0  0  0
 17 43  1  0  0  0  0
 17 44  1  0  0  0  0
 18 23  1  0  0  0  0
 18 45  1  0  0  0  0
 18 46  1  0  0  0  0
 19 20  1  0  0  0  0
 19 26  2  0  0  0  0
 20 47  1  0  0  0  0
 20 48  1  0  0  0  0
 21 25  1  0  0  0  0
 21 49  1  0  0  0  0
 21 50  1  0  0  0  0
 22 51  1  0  0  0  0
 22 52  1  0  0  0  0
 22 53  1  0  0  0  0
 23 24  1  0  0  0  0
 23 54  1  0  0  0  0
 23 55  1  0  0  0  0
 25 27  1  0  0  0  0
 25 56  1  0  0  0  0
 25 57  1  0  0  0  0
 26 27  1  0  0  0  0
 26 58  1  0  0  0  0
 28 29  1  0  0  0  0
 29 59  1  0  0  0  0
 29 60  1  0  0  0  0
 29 61  1  0  0  0  0
M  END
> <PUBCHEM_COMPOUND_CID>
5267

> <PUBCHEM_COMPOUND_CANONICALIZED>
1

> <PUBCHEM_CACTVS_COMPLEXITY>
818

> <PUBCHEM_CACTVS_HBOND_ACCEPTOR>
5

> <PUBCHEM_CACTVS_HBOND_DONOR>
0

> <PUBCHEM_CACTVS_ROTATABLE_BOND>
2

> <PUBCHEM_CACTVS_SUBSKEYS>
AAADcfB4OABAAAAAAAAAAAAAAAAAAaIAAAAwYIAAAAAAAGDAAAAAGgQAAAAAD0SEwACCCAAABAiIAqDSCAAAAAAgABAACAEAAEgAABIgAQACAAAEgAAoAQOKyPCPgAAAAAAAAACgAAUAACgAAYAADAAAAA==

> <PUBCHEM_IUPAC_OPENEYE_NAME>
S-(10,13-dimethyl-3,5'-dioxo-spiro[2,6,7,8,9,11,12,14,15,16-decahydro-1H-cyclopenta[a]phenanthrene-17,2'-tetrahydrofuran]-7-yl) ethanethioate

> <PUBCHEM_IUPAC_CAS_NAME>
ethanethioic acid S-(10,13-dimethyl-3,5'-dioxo-7-spiro[2,6,7,8,9,11,12,14,15,16-decahydro-1H-cyclopenta[a]phenanthrene-17,2'-oxolane]yl) ester

> <PUBCHEM_IUPAC_NAME>
S-(10,13-dimethyl-3,5'-dioxospiro[2,6,7,8,9,11,12,14,15,16-decahydro-1H-cyclopenta[a]phenanthrene-17,2'-oxolane]-7-yl) ethanethioate

> <PUBCHEM_IUPAC_SYSTEMATIC_NAME>
S-[10,13-dimethyl-3,5'-bis(oxidanylidene)spiro[2,6,7,8,9,11,12,14,15,16-decahydro-1H-cyclopenta[a]phenanthrene-17,2'-oxolane]-7-yl] ethanethioate

> <PUBCHEM_IUPAC_TRADITIONAL_NAME>
ethanethioic acid S-(3,5'-diketo-10,13-dimethyl-spiro[2,6,7,8,9,11,12,14,15,16-decahydro-1H-cyclopenta[a]phenanthrene-17,2'-tetrahydrofuran]-7-yl) ester

> <PUBCHEM_IUPAC_INCHI>
InChI=1S/C24H32O4S/c1-14(25)29-19-13-15-12-16(26)4-8-22(15,2)17-5-9-23(3)18(21(17)19)6-10-24(23)11-7-20(27)28-24/h12,17-19,21H,4-11,13H2,1-3H3

> <PUBCHEM_IUPAC_INCHIKEY>
LXMSZDCAJNLERA-UHFFFAOYSA-N

> <PUBCHEM_XLOGP3>
2.9

> <PUBCHEM_EXACT_MASS>
416.202131

> <PUBCHEM_MOLECULAR_FORMULA>
C24H32O4S

> <PUBCHEM_MOLECULAR_WEIGHT>
416.57348

> <PUBCHEM_OPENEYE_CAN_SMILES>
CC(=O)SC1CC2=CC(=O)CCC2(C3C1C4CCC5(C4(CC3)C)CCC(=O)O5)C

> <PUBCHEM_OPENEYE_ISO_SMILES>
CC(=O)SC1CC2=CC(=O)CCC2(C3C1C4CCC5(C4(CC3)C)CCC(=O)O5)C

> <PUBCHEM_CACTVS_TPSA>
85.7

> <PUBCHEM_MONOISOTOPIC_WEIGHT>
416.202131

> <PUBCHEM_TOTAL_CHARGE>
0

> <PUBCHEM_HEAVY_ATOM_COUNT>
29

> <PUBCHEM_ATOM_DEF_STEREO_COUNT>
0

> <PUBCHEM_ATOM_UDEF_STEREO_COUNT>
7

> <PUBCHEM_BOND_DEF_STEREO_COUNT>
0

> <PUBCHEM_BOND_UDEF_STEREO_COUNT>
0

> <PUBCHEM_ISOTOPIC_ATOM_COUNT>
0

> <PUBCHEM_COMPONENT_COUNT>
1

> <PUBCHEM_CACTVS_TAUTO_COUNT>
10

> <PUBCHEM_COORDINATE_TYPE>
1
5
255

> <PUBCHEM_BONDANNOTATIONS>
16  1  3
10  14  3
13  22  3
6  17  3
7  12  3
8  16  3
9  15  3

$$$$

