   Color/Form

     * Colorless or nearly colorless liq (above 5-7 deg C)
     * YELLOWISH, OILY LIQUID
     * WATER-WHITE LIQUID

   from [1]HSDB

   Odor
        PECULIAR LARD-LIKE ODOR
   from [2]HSDB

   Taste
        PECULIAR LARD-LIKE TASTE
   from [3]HSDB

   Boiling Point
        286 deg C at 100 mm Hg
   from [4]HSDB

   Melting Point
        16.3 deg C
   from [5]HSDB

   Critical Temperature and Pressure
        Critical pressure = 30 atm
   from [6]HSDB

   Density/Specific Gravity
        0.895 at 25 deg C/25 deg C
   from [7]HSDB

   Dissociation Constants
        pKa = 5.02 in aqueous solution at 25 deg C
   from [8]HSDB

   Heat of Combustion
        At constant volume; delta Ec = -2.663.9 kcal/mol at 25 deg C
   from [9]HSDB

   Heat of Vaporization
        16.1 kcal/mol at boiling
   from [10]HSDB

   Octanol/Water Partition Coefficient
        log Kow = 7.64
   from [11]HSDB

   Solubilities

     * Practically insol in water; sol in chloroform; ether; fixed &
       volatile oils; alcohol; benzene
     * Miscible with ethanol, ether, acetone, benzene, chloroform, carbon
       tetrachloride
     * Miscible with methanol
     * In water, 1.15X10-2 mg/L at 25 deg C (est)

   from [12]HSDB

   Spectral Properties

     * Index of refraction: 1.463 at 18 deg C/D; 1.4585 at 26 deg C/D
     * MAX ABSORPTION (HEXANE): 185 NM (LOG E= 3.8)
     * IR: 915 (Sadtler Research Laboratories Prism Collection)
     * 1H NMR: 70 (Sadtler Research Laboratories Spectral Collection)
     * 13C NMR: 480 (Johnson and Jankowski, Carbon-13 NMR Spectra, John
       Wiley & Sons, New York)
     * UV: HBCP 185
     * MASS: 27869 (NIST/EPA/MSDC Mass Spectral database, 1990 version);
       2214 (Atlas of Mass Spectral Data, John Wiley & Sons, New York)

   from [13]HSDB

   Surface Tension
        32.8 dyne/cm at 20 deg C; 27.94 dyne/cm at 90 deg C; 21.6 dyne/cm
   at 180 deg C
   from [14]HSDB

   Vapor Pressure
        5.46X10-7 mm Hg at 25 deg C
   from [15]HSDB

   Viscosity
        25.6 cP at 30 deg C
   from [16]HSDB

   Other Chemical/Physical Properties

     * Iodine number: 89.9; acid value: 198.6; solidification at 4 deg C
       to crystalline mass. On exposure to air, especially when impure, it
       oxidizes and acquires a yellow to brown color and rancid odor.
     * AT ATMOSPHERIC PRESSURE DECOMPOSES WHEN HEATED @ 80-100 DEG C
     * CONGEALS AT TEMP NOT ABOVE 10 DEG C
     * REACTS WITH ALKALIES TO FORM SOAPS; OXIDIZED TO VARIOUS DERIVATIVES
       BY NITRIC ACID, POTASSIUM PERMANGANATE, & OTHER AGENTS
     * Saponification value: 196-206
     * Yellow to red oily liquid; lardlike odor, darkens on exposure to
       air. Insoluble in water; coluble in alcohol, ether, and most
       organic solvents, fixed and volatile oils. Solvents for other oils,
       fatty acids and oil-soluble materials. /Commercial grades/
     * Viscosity = 38.80 mN-s/m2 at 20 deg C; 27.64 mN-s/m2 at 25 deg C
     * Boiling Point - Decomposes at 360 deg C and 1 atm
     * White powder, slight tallow-like odor. Soluble in approx 10 parts
       water, approx 20 parts alcohol /Sodium salt/
     * Yellowish-white, granular masses. Practically insoluble in water;
       slightly soluble in boiling alcohol /Barium salt/
     * Iodine no. 85.6; density 0.879 at 18 deg C/4 deg C; index of
       refraction 1.4510 at 26 deg C/D; bp 168-180 deg C at 2 mm Hg.
       Miscible with anhydrous ethanol, ether /Methyl ester/
     * Yellowish, oily liquid; density 0.87; bp 205-206 deg C (some
       decomposition). Insoluble in water; miscible with alcohol, ether
       /Ethyl ester/
     * Henry's Law constant = 4.48X10-5 atm-cu m/mol at 25 deg C (est)
     * Hydroxyl radical reaction rate constant = 7.55X10-11 cu
       cm/molec-sec at 25 deg C (est)

   from [17]HSDB

   Computed Properties
   Molecular Weight                  282.46136 [g/mol]
   Molecular Formula                 C[18]H[34]O[2]
   XLogP3                            6.5
   H-Bond Donor                      1
   H-Bond Acceptor                   2
   Rotatable Bond Count              15
   Exact Mass                        282.25588
   MonoIsotopic Mass                 282.25588
   Topological Polar Surface Area    37.3
   Heavy Atom Count                  20
   Formal Charge                     0
   Complexity                        234
   Isotope Atom Count                0
   Defined Atom Stereocenter Count   0
   Undefined Atom Stereocenter Count 0
   Defined Bond Stereocenter Count   1
   Undefined Bond Stereocenter Count 0
   Covalently-Bonded Unit Count      1
   Feature 3D Acceptor Count         2
   Feature 3D Anion Count            1
   Feature 3D Hydrophobe Count       1
   Effective Rotor Count             15
   Conformer Sampling RMSD           1.4
   CID Conformer Count               [18]89

References

   1. http://toxnet.nlm.nih.gov/cgi-bin/sis/search/r?dbs+hsdb:@term+@rn+@rel+112-80-1
   2. http://toxnet.nlm.nih.gov/cgi-bin/sis/search/r?dbs+hsdb:@term+@rn+@rel+112-80-1
   3. http://toxnet.nlm.nih.gov/cgi-bin/sis/search/r?dbs+hsdb:@term+@rn+@rel+112-80-1
   4. http://toxnet.nlm.nih.gov/cgi-bin/sis/search/r?dbs+hsdb:@term+@rn+@rel+112-80-1
   5. http://toxnet.nlm.nih.gov/cgi-bin/sis/search/r?dbs+hsdb:@term+@rn+@rel+112-80-1
   6. http://toxnet.nlm.nih.gov/cgi-bin/sis/search/r?dbs+hsdb:@term+@rn+@rel+112-80-1
   7. http://toxnet.nlm.nih.gov/cgi-bin/sis/search/r?dbs+hsdb:@term+@rn+@rel+112-80-1
   8. http://toxnet.nlm.nih.gov/cgi-bin/sis/search/r?dbs+hsdb:@term+@rn+@rel+112-80-1
   9. http://toxnet.nlm.nih.gov/cgi-bin/sis/search/r?dbs+hsdb:@term+@rn+@rel+112-80-1
  10. http://toxnet.nlm.nih.gov/cgi-bin/sis/search/r?dbs+hsdb:@term+@rn+@rel+112-80-1
  11. http://toxnet.nlm.nih.gov/cgi-bin/sis/search/r?dbs+hsdb:@term+@rn+@rel+112-80-1
  12. http://toxnet.nlm.nih.gov/cgi-bin/sis/search/r?dbs+hsdb:@term+@rn+@rel+112-80-1
  13. http://toxnet.nlm.nih.gov/cgi-bin/sis/search/r?dbs+hsdb:@term+@rn+@rel+112-80-1
  14. http://toxnet.nlm.nih.gov/cgi-bin/sis/search/r?dbs+hsdb:@term+@rn+@rel+112-80-1
  15. http://toxnet.nlm.nih.gov/cgi-bin/sis/search/r?dbs+hsdb:@term+@rn+@rel+112-80-1
  16. http://toxnet.nlm.nih.gov/cgi-bin/sis/search/r?dbs+hsdb:@term+@rn+@rel+112-80-1
  17. http://toxnet.nlm.nih.gov/cgi-bin/sis/search/r?dbs+hsdb:@term+@rn+@rel+112-80-1
  18. http://pubchem.ncbi.nlm.nih.gov/vw3d/vw3d.cgi?cid=445639
