54680085
  -OEChem-07051213122D

 58 62  0     1  0  0  0  0  0999 V2000
    3.7320   -5.2673    0.0000 Br  0  0  0  0  0  0  0  0  0  0  0  0
    2.8660    2.2327    0.0000 O   0  0  0  0  0  0  0  0  0  0  0  0
    6.3301    5.2327    0.0000 O   0  0  0  0  0  0  0  0  0  0  0  0
    6.3301    2.2327    0.0000 O   0  0  0  0  0  0  0  0  0  0  0  0
    4.5981    5.2327    0.0000 O   0  0  0  0  0  0  0  0  0  0  0  0
    4.5981    3.2327    0.0000 C   0  0  3  0  0  0  0  0  0  0  0  0
    4.5981    2.2327    0.0000 C   0  0  0  0  0  0  0  0  0  0  0  0
    3.7320    1.7327    0.0000 C   0  0  3  0  0  0  0  0  0  0  0  0
    5.4641    3.7327    0.0000 C   0  0  0  0  0  0  0  0  0  0  0  0
    3.7320    3.7327    0.0000 C   0  0  0  0  0  0  0  0  0  0  0  0
    3.7320    0.7327    0.0000 C   0  0  0  0  0  0  0  0  0  0  0  0
    6.3301    3.2327    0.0000 C   0  0  0  0  0  0  0  0  0  0  0  0
    5.4641    4.7327    0.0000 C   0  0  0  0  0  0  0  0  0  0  0  0
    3.7320    4.7327    0.0000 C   0  0  0  0  0  0  0  0  0  0  0  0
    2.8660    3.2327    0.0000 C   0  0  0  0  0  0  0  0  0  0  0  0
    7.1962    3.7327    0.0000 C   0  0  0  0  0  0  0  0  0  0  0  0
    2.8660    0.2327    0.0000 C   0  0  0  0  0  0  0  0  0  0  0  0
    4.5981    0.2327    0.0000 C   0  0  0  0  0  0  0  0  0  0  0  0
    7.1962    4.7327    0.0000 C   0  0  0  0  0  0  0  0  0  0  0  0
    3.7320   -1.2673    0.0000 C   0  0  0  0  0  0  0  0  0  0  0  0
    2.8660    5.2327    0.0000 C   0  0  0  0  0  0  0  0  0  0  0  0
    2.0000    3.7327    0.0000 C   0  0  0  0  0  0  0  0  0  0  0  0
    2.8660   -0.7673    0.0000 C   0  0  0  0  0  0  0  0  0  0  0  0
    4.5981   -0.7673    0.0000 C   0  0  0  0  0  0  0  0  0  0  0  0
    8.0901    3.1980    0.0000 C   0  0  0  0  0  0  0  0  0  0  0  0
    2.0000    4.7327    0.0000 C   0  0  0  0  0  0  0  0  0  0  0  0
    8.0901    5.2673    0.0000 C   0  0  0  0  0  0  0  0  0  0  0  0
    3.7320   -2.2673    0.0000 C   0  0  0  0  0  0  0  0  0  0  0  0
    8.9962    3.7118    0.0000 C   0  0  0  0  0  0  0  0  0  0  0  0
    8.9962    4.7535    0.0000 C   0  0  0  0  0  0  0  0  0  0  0  0
    2.8660   -2.7673    0.0000 C   0  0  0  0  0  0  0  0  0  0  0  0
    4.5981   -2.7673    0.0000 C   0  0  0  0  0  0  0  0  0  0  0  0
    2.8660   -3.7673    0.0000 C   0  0  0  0  0  0  0  0  0  0  0  0
    4.5981   -3.7673    0.0000 C   0  0  0  0  0  0  0  0  0  0  0  0
    3.7320   -4.2673    0.0000 C   0  0  0  0  0  0  0  0  0  0  0  0
    5.1350    2.9227    0.0000 H   0  0  0  0  0  0  0  0  0  0  0  0
    4.8101    1.6501    0.0000 H   0  0  0  0  0  0  0  0  0  0  0  0
    5.2087    2.3403    0.0000 H   0  0  0  0  0  0  0  0  0  0  0  0
    3.7320    2.3527    0.0000 H   0  0  0  0  0  0  0  0  0  0  0  0
    4.2690    5.0427    0.0000 H   0  0  0  0  0  0  0  0  0  0  0  0
    2.8660    2.6127    0.0000 H   0  0  0  0  0  0  0  0  0  0  0  0
    2.3291    0.5427    0.0000 H   0  0  0  0  0  0  0  0  0  0  0  0
    5.1350    0.5427    0.0000 H   0  0  0  0  0  0  0  0  0  0  0  0
    2.3291    1.9227    0.0000 H   0  0  0  0  0  0  0  0  0  0  0  0
    2.3291   -1.0773    0.0000 H   0  0  0  0  0  0  0  0  0  0  0  0
    5.1350   -1.0773    0.0000 H   0  0  0  0  0  0  0  0  0  0  0  0
    2.8660    5.8527    0.0000 H   0  0  0  0  0  0  0  0  0  0  0  0
    1.4631    3.4227    0.0000 H   0  0  0  0  0  0  0  0  0  0  0  0
    8.0829    2.5780    0.0000 H   0  0  0  0  0  0  0  0  0  0  0  0
    1.4631    5.0427    0.0000 H   0  0  0  0  0  0  0  0  0  0  0  0
    8.0829    5.8873    0.0000 H   0  0  0  0  0  0  0  0  0  0  0  0
    6.8671    1.9227    0.0000 H   0  0  0  0  0  0  0  0  0  0  0  0
    9.5319    3.3998    0.0000 H   0  0  0  0  0  0  0  0  0  0  0  0
    9.5319    5.0656    0.0000 H   0  0  0  0  0  0  0  0  0  0  0  0
    2.3291   -2.4573    0.0000 H   0  0  0  0  0  0  0  0  0  0  0  0
    5.1350   -2.4573    0.0000 H   0  0  0  0  0  0  0  0  0  0  0  0
    2.3291   -4.0773    0.0000 H   0  0  0  0  0  0  0  0  0  0  0  0
    5.1350   -4.0773    0.0000 H   0  0  0  0  0  0  0  0  0  0  0  0
  1 35  1  0  0  0  0
  2  8  1  0  0  0  0
  2 44  1  0  0  0  0
  3 13  1  0  0  0  0
  3 19  1  0  0  0  0
  4 12  1  0  0  0  0
  4 52  1  0  0  0  0
  5 13  2  0  0  0  0
  6  7  1  0  0  0  0
  6  9  1  0  0  0  0
  6 10  1  0  0  0  0
  6 36  1  0  0  0  0
  7  8  1  0  0  0  0
  7 37  1  0  0  0  0
  7 38  1  0  0  0  0
  8 11  1  0  0  0  0
  8 39  1  0  0  0  0
  9 12  2  0  0  0  0
  9 13  1  0  0  0  0
 10 14  2  0  0  0  0
 10 15  1  0  0  0  0
 11 17  2  0  0  0  0
 11 18  1  0  0  0  0
 12 16  1  0  0  0  0
 14 21  1  0  0  0  0
 14 40  1  0  0  0  0
 15 22  2  0  0  0  0
 15 41  1  0  0  0  0
 16 19  1  0  0  0  0
 16 25  2  0  0  0  0
 17 23  1  0  0  0  0
 17 42  1  0  0  0  0
 18 24  2  0  0  0  0
 18 43  1  0  0  0  0
 19 27  2  0  0  0  0
 20 23  2  0  0  0  0
 20 24  1  0  0  0  0
 20 28  1  0  0  0  0
 21 26  2  0  0  0  0
 21 47  1  0  0  0  0
 22 26  1  0  0  0  0
 22 48  1  0  0  0  0
 23 45  1  0  0  0  0
 24 46  1  0  0  0  0
 25 29  1  0  0  0  0
 25 49  1  0  0  0  0
 26 50  1  0  0  0  0
 27 30  1  0  0  0  0
 27 51  1  0  0  0  0
 28 31  2  0  0  0  0
 28 32  1  0  0  0  0
 29 30  2  0  0  0  0
 29 53  1  0  0  0  0
 30 54  1  0  0  0  0
 31 33  1  0  0  0  0
 31 55  1  0  0  0  0
 32 34  2  0  0  0  0
 32 56  1  0  0  0  0
 33 35  2  0  0  0  0
 33 57  1  0  0  0  0
 34 35  1  0  0  0  0
 34 58  1  0  0  0  0
M  END
> <PUBCHEM_COMPOUND_CID>
54680085

> <PUBCHEM_COMPOUND_CANONICALIZED>
1

> <PUBCHEM_CACTVS_COMPLEXITY>
744

> <PUBCHEM_CACTVS_HBOND_ACCEPTOR>
4

> <PUBCHEM_CACTVS_HBOND_DONOR>
2

> <PUBCHEM_CACTVS_ROTATABLE_BOND>
6

> <PUBCHEM_CACTVS_SUBSKEYS>
AAADceB4OAAAEAAAAAAAAAAAAAAAAAAAAAAwYMGCAAAAAACBVAAAGgBACAABrRSgmAIwDoAABgCIAiDSCAACCAAgIAQIiAEGCOgMNzKEMRqCeiClwBEIuxeI7PzOwgAAAAAIAACEAAAAABAAAAAAAAAAAA==

> <PUBCHEM_IUPAC_OPENEYE_NAME>
3-[3-[4-(4-bromophenyl)phenyl]-3-hydroxy-1-phenyl-propyl]-4-hydroxy-chromen-2-one

> <PUBCHEM_IUPAC_CAS_NAME>
3-[3-[4-(4-bromophenyl)phenyl]-3-hydroxy-1-phenylpropyl]-4-hydroxy-1-benzopyran-2-one

> <PUBCHEM_IUPAC_NAME>
3-[3-[4-(4-bromophenyl)phenyl]-3-hydroxy-1-phenylpropyl]-4-hydroxychromen-2-one

> <PUBCHEM_IUPAC_SYSTEMATIC_NAME>
3-[3-[4-(4-bromophenyl)phenyl]-3-oxidanyl-1-phenyl-propyl]-4-oxidanyl-chromen-2-one

> <PUBCHEM_IUPAC_TRADITIONAL_NAME>
3-[3-[4-(4-bromophenyl)phenyl]-3-hydroxy-1-phenyl-propyl]-4-hydroxy-coumarin

> <PUBCHEM_IUPAC_INCHI>
InChI=1S/C30H23BrO4/c31-23-16-14-20(15-17-23)19-10-12-22(13-11-19)26(32)18-25(21-6-2-1-3-7-21)28-29(33)24-8-4-5-9-27(24)35-30(28)34/h1-17,25-26,32-33H,18H2

> <PUBCHEM_IUPAC_INCHIKEY>
OWNRRUFOJXFKCU-UHFFFAOYSA-N

> <PUBCHEM_XLOGP3>
6.1

> <PUBCHEM_EXACT_MASS>
526.077971

> <PUBCHEM_MOLECULAR_FORMULA>
C30H23BrO4

> <PUBCHEM_MOLECULAR_WEIGHT>
527.40522

> <PUBCHEM_OPENEYE_CAN_SMILES>
C1=CC=C(C=C1)C(CC(C2=CC=C(C=C2)C3=CC=C(C=C3)Br)O)C4=C(C5=CC=CC=C5OC4=O)O

> <PUBCHEM_OPENEYE_ISO_SMILES>
C1=CC=C(C=C1)C(CC(C2=CC=C(C=C2)C3=CC=C(C=C3)Br)O)C4=C(C5=CC=CC=C5OC4=O)O

> <PUBCHEM_CACTVS_TPSA>
66.8

> <PUBCHEM_MONOISOTOPIC_WEIGHT>
526.077971

> <PUBCHEM_TOTAL_CHARGE>
0

> <PUBCHEM_HEAVY_ATOM_COUNT>
35

> <PUBCHEM_ATOM_DEF_STEREO_COUNT>
0

> <PUBCHEM_ATOM_UDEF_STEREO_COUNT>
2

> <PUBCHEM_BOND_DEF_STEREO_COUNT>
0

> <PUBCHEM_BOND_UDEF_STEREO_COUNT>
0

> <PUBCHEM_ISOTOPIC_ATOM_COUNT>
0

> <PUBCHEM_COMPONENT_COUNT>
1

> <PUBCHEM_CACTVS_TAUTO_COUNT>
3

> <PUBCHEM_COORDINATE_TYPE>
1
5
255

> <PUBCHEM_BONDANNOTATIONS>
10  14  8
10  15  8
11  17  8
11  18  8
12  16  8
14  21  8
15  22  8
16  19  8
16  25  8
17  23  8
18  24  8
19  27  8
8  2  3
20  23  8
20  24  8
21  26  8
22  26  8
25  29  8
27  30  8
28  31  8
28  32  8
29  30  8
3  13  8
3  19  8
31  33  8
32  34  8
33  35  8
34  35  8
6  7  3
9  12  8
9  13  8

$$$$

