53262360
  -OEChem-07051213152D

 39 39  0     1  0  0  0  0  0999 V2000
    4.2690    2.4535    0.0000 P   0  0  0  0  0  0  0  0  0  0  0  0
    4.2690   -0.5465    0.0000 O   0  0  0  0  0  0  0  0  0  0  0  0
    6.0010   -0.5465    0.0000 O   0  0  0  0  0  0  0  0  0  0  0  0
    4.2690   -3.5465    0.0000 O   0  0  0  0  0  0  0  0  0  0  0  0
    2.5369   -2.5465    0.0000 O   0  0  0  0  0  0  0  0  0  0  0  0
    6.0010   -2.5465    0.0000 O   0  0  0  0  0  0  0  0  0  0  0  0
    2.5369    0.4535    0.0000 O   0  0  0  0  0  0  0  0  0  0  0  0
    5.1350    1.9535    0.0000 O   0  0  0  0  0  0  0  0  0  0  0  0
    6.8671    1.9535    0.0000 O   0  0  0  0  0  0  0  0  0  0  0  0
    7.7331    0.4535    0.0000 O   0  0  0  0  0  0  0  0  0  0  0  0
    3.4030    2.9535    0.0000 O   0  0  0  0  0  0  0  0  0  0  0  0
    4.7690    3.3195    0.0000 O   0  0  0  0  0  0  0  0  0  0  0  0
    3.7690    1.5875    0.0000 O   0  0  0  0  0  0  0  0  0  0  0  0
    4.2690   -2.5465    0.0000 C   0  0  1  0  0  0  0  0  0  0  0  0
    3.4030   -2.0465    0.0000 C   0  0  1  0  0  0  0  0  0  0  0  0
    5.1350   -2.0465    0.0000 C   0  0  2  0  0  0  0  0  0  0  0  0
    3.4030   -1.0465    0.0000 C   0  0  1  0  0  0  0  0  0  0  0  0
    5.1350   -1.0465    0.0000 C   0  0  2  0  0  0  0  0  0  0  0  0
    2.5369   -0.5465    0.0000 C   0  0  0  0  0  0  0  0  0  0  0  0
    6.0010    0.4535    0.0000 C   0  0  2  0  0  0  0  0  0  0  0  0
    5.1350    0.9535    0.0000 C   0  0  0  0  0  0  0  0  0  0  0  0
    6.8671    0.9535    0.0000 C   0  0  0  0  0  0  0  0  0  0  0  0
    4.8059   -2.8565    0.0000 H   0  0  0  0  0  0  0  0  0  0  0  0
    3.4030   -2.6665    0.0000 H   0  0  0  0  0  0  0  0  0  0  0  0
    5.1350   -2.6665    0.0000 H   0  0  0  0  0  0  0  0  0  0  0  0
    3.4030   -0.4265    0.0000 H   0  0  0  0  0  0  0  0  0  0  0  0
    5.1350   -0.4265    0.0000 H   0  0  0  0  0  0  0  0  0  0  0  0
    1.9264   -0.4388    0.0000 H   0  0  0  0  0  0  0  0  0  0  0  0
    2.3249   -1.1291    0.0000 H   0  0  0  0  0  0  0  0  0  0  0  0
    6.5380    0.1435    0.0000 H   0  0  0  0  0  0  0  0  0  0  0  0
    3.7320   -3.8565    0.0000 H   0  0  0  0  0  0  0  0  0  0  0  0
    2.0000   -2.2365    0.0000 H   0  0  0  0  0  0  0  0  0  0  0  0
    6.5380   -2.2365    0.0000 H   0  0  0  0  0  0  0  0  0  0  0  0
    4.5244    1.0612    0.0000 H   0  0  0  0  0  0  0  0  0  0  0  0
    4.9230    0.3709    0.0000 H   0  0  0  0  0  0  0  0  0  0  0  0
    2.0000    0.7635    0.0000 H   0  0  0  0  0  0  0  0  0  0  0  0
    7.4040    2.2635    0.0000 H   0  0  0  0  0  0  0  0  0  0  0  0
    4.4590    3.8565    0.0000 H   0  0  0  0  0  0  0  0  0  0  0  0
    3.4030    3.5735    0.0000 H   0  0  0  0  0  0  0  0  0  0  0  0
  1  8  1  0  0  0  0
  1 11  1  0  0  0  0
  1 12  1  0  0  0  0
  1 13  2  0  0  0  0
  2 17  1  0  0  0  0
  2 18  1  0  0  0  0
 18  3  1  6  0  0  0
 20  3  1  6  0  0  0
 14  4  1  1  0  0  0
  4 31  1  0  0  0  0
 15  5  1  6  0  0  0
  5 32  1  0  0  0  0
 16  6  1  6  0  0  0
  6 33  1  0  0  0  0
  7 19  1  0  0  0  0
  7 36  1  0  0  0  0
  8 21  1  0  0  0  0
  9 22  1  0  0  0  0
  9 37  1  0  0  0  0
 10 22  2  0  0  0  0
 11 39  1  0  0  0  0
 12 38  1  0  0  0  0
 14 15  1  0  0  0  0
 14 16  1  0  0  0  0
 14 23  1  0  0  0  0
 15 17  1  0  0  0  0
 15 24  1  0  0  0  0
 16 18  1  0  0  0  0
 16 25  1  0  0  0  0
 17 19  1  1  0  0  0
 17 26  1  0  0  0  0
 18 27  1  0  0  0  0
 19 28  1  0  0  0  0
 19 29  1  0  0  0  0
 20 21  1  0  0  0  0
 20 22  1  0  0  0  0
 20 30  1  0  0  0  0
 21 34  1  0  0  0  0
 21 35  1  0  0  0  0
M  END
> <PUBCHEM_COMPOUND_CID>
53262360

> <PUBCHEM_COMPOUND_CANONICALIZED>
1

> <PUBCHEM_CACTVS_COMPLEXITY>
423

> <PUBCHEM_CACTVS_HBOND_ACCEPTOR>
12

> <PUBCHEM_CACTVS_HBOND_DONOR>
7

> <PUBCHEM_CACTVS_ROTATABLE_BOND>
7

> <PUBCHEM_CACTVS_SUBSKEYS>
AAADceBwPAIAAAAAAAAAAAAAAAAAAAAAAAAkAAAAAAAAAAAAAAAAGgAACCAACBSwgAMACAAABxAIQACQCIIAAAAAAAAAAAFAAAAREAYAAAQiQAAFIAAHAAHAYAwAAAAAAAAAAAAAAAAAAAAAAAAAAAAAAA==

> <PUBCHEM_IUPAC_OPENEYE_NAME>
(2R)-3-phosphonooxy-2-[(2R,3R,4S,5S,6R)-3,4,5-trihydroxy-6-(hydroxymethyl)tetrahydropyran-2-yl]oxy-propanoic acid

> <PUBCHEM_IUPAC_CAS_NAME>
(2R)-3-phosphonooxy-2-[[(2R,3R,4S,5S,6R)-3,4,5-trihydroxy-6-(hydroxymethyl)-2-oxanyl]oxy]propanoic acid

> <PUBCHEM_IUPAC_NAME>
(2R)-3-phosphonooxy-2-[(2R,3R,4S,5S,6R)-3,4,5-trihydroxy-6-(hydroxymethyl)oxan-2-yl]oxypropanoic acid

> <PUBCHEM_IUPAC_SYSTEMATIC_NAME>
(2R)-2-[(2R,3R,4S,5S,6R)-6-(hydroxymethyl)-3,4,5-tris(oxidanyl)oxan-2-yl]oxy-3-phosphonooxy-propanoic acid

> <PUBCHEM_IUPAC_TRADITIONAL_NAME>
(2R)-3-phosphonooxy-2-[(2R,3R,4S,5S,6R)-3,4,5-trihydroxy-6-methylol-tetrahydropyran-2-yl]oxy-propionic acid

> <PUBCHEM_IUPAC_INCHI>
InChI=1S/C9H17O12P/c10-1-3-5(11)6(12)7(13)9(20-3)21-4(8(14)15)2-19-22(16,17)18/h3-7,9-13H,1-2H2,(H,14,15)(H2,16,17,18)/t3-,4-,5-,6+,7-,9-/m1/s1

> <PUBCHEM_IUPAC_INCHIKEY>
RJDBNSZFZDWPFL-CECBSOHTSA-N

> <PUBCHEM_XLOGP3_AA>
-4.2

> <PUBCHEM_EXACT_MASS>
348.045763

> <PUBCHEM_MOLECULAR_FORMULA>
C9H17O12P

> <PUBCHEM_MOLECULAR_WEIGHT>
348.197842

> <PUBCHEM_OPENEYE_CAN_SMILES>
C(C1C(C(C(C(O1)OC(COP(=O)(O)O)C(=O)O)O)O)O)O

> <PUBCHEM_OPENEYE_ISO_SMILES>
C([C@@H]1[C@H]([C@@H]([C@H]([C@H](O1)O[C@H](COP(=O)(O)O)C(=O)O)O)O)O)O

> <PUBCHEM_CACTVS_TPSA>
203

> <PUBCHEM_MONOISOTOPIC_WEIGHT>
348.045763

> <PUBCHEM_TOTAL_CHARGE>
0

> <PUBCHEM_HEAVY_ATOM_COUNT>
22

> <PUBCHEM_ATOM_DEF_STEREO_COUNT>
6

> <PUBCHEM_ATOM_UDEF_STEREO_COUNT>
0

> <PUBCHEM_BOND_DEF_STEREO_COUNT>
0

> <PUBCHEM_BOND_UDEF_STEREO_COUNT>
0

> <PUBCHEM_ISOTOPIC_ATOM_COUNT>
0

> <PUBCHEM_COMPONENT_COUNT>
1

> <PUBCHEM_CACTVS_TAUTO_COUNT>
1

> <PUBCHEM_COORDINATE_TYPE>
1
5
255

> <PUBCHEM_BONDANNOTATIONS>
17  19  5
18  3  6
20  3  6
14  4  5
15  5  6
16  6  6

$$$$

