3581
  -OEChem-06251223312D

 81 84  0     1  0  0  0  0  0999 V2000
    7.6232    0.5577    0.0000 Fe  0  2  0  0  0  0  0  0  0  0  0  0
    3.9825    1.6641    0.0000 O   0  0  0  0  0  0  0  0  0  0  0  0
    8.6785    4.2197    0.0000 O   0  0  0  0  0  0  0  0  0  0  0  0
    2.2981   -0.8116    0.0000 O   0  0  0  0  0  0  0  0  0  0  0  0
    6.2722    5.8967    0.0000 O   0  0  0  0  0  0  0  0  0  0  0  0
    3.8168   -1.6444    0.0000 O   0  0  0  0  0  0  0  0  0  0  0  0
    5.4154    4.3914    0.0000 O   0  0  0  0  0  0  0  0  0  0  0  0
    8.1347   -5.6664    0.0000 O   0  0  0  0  0  0  0  0  0  0  0  0
   13.9796   -0.2819    0.0000 O   0  0  0  0  0  0  0  0  0  0  0  0
    9.6347   -4.8004    0.0000 O   0  0  0  0  0  0  0  0  0  0  0  0
   12.9369   -1.6650    0.0000 O   0  0  0  0  0  0  0  0  0  0  0  0
    6.2342    0.5840    0.0000 N   0  0  0  0  0  0  0  0  0  0  0  0
    7.6282    1.8827    0.0000 N   0  0  0  0  0  0  0  0  0  0  0  0
    7.6600   -0.7147    0.0000 N   0  5  0  0  0  0  0  0  0  0  0  0
    9.0840    0.5840    0.0000 N   0  5  0  0  0  0  0  0  0  0  0  0
    6.8677    2.4844    0.0000 C   0  0  0  0  0  0  0  0  0  0  0  0
    5.6960   -0.1448    0.0000 C   0  0  0  0  0  0  0  0  0  0  0  0
    4.7784    0.1093    0.0000 C   0  0  3  0  0  0  0  0  0  0  0  0
    7.1535    3.4020    0.0000 C   0  0  3  0  0  0  0  0  0  0  0  0
    5.6960    1.3127    0.0000 C   0  0  0  0  0  0  0  0  0  0  0  0
    8.4204    2.5161    0.0000 C   0  0  0  0  0  0  0  0  0  0  0  0
    6.8994   -1.3165    0.0000 C   0  0  0  0  0  0  0  0  0  0  0  0
    8.4204   -1.2847    0.0000 C   0  0  0  0  0  0  0  0  0  0  0  0
    9.6222    1.3444    0.0000 C   0  0  0  0  0  0  0  0  0  0  0  0
    9.6540   -0.1130    0.0000 C   0  0  0  0  0  0  0  0  0  0  0  0
    5.9501    2.2303    0.0000 C   0  0  0  0  0  0  0  0  0  0  0  0
    4.7784    1.0586    0.0000 C   0  0  0  0  0  0  0  0  0  0  0  0
    5.9818   -1.0306    0.0000 C   0  0  0  0  0  0  0  0  0  0  0  0
    8.1029    3.4020    0.0000 C   0  0  0  0  0  0  0  0  0  0  0  0
    9.3380    2.2303    0.0000 C   0  0  0  0  0  0  0  0  0  0  0  0
    9.3698   -1.0306    0.0000 C   0  0  0  0  0  0  0  0  0  0  0  0
    8.1347   -2.2024    0.0000 C   0  0  0  0  0  0  0  0  0  0  0  0
    7.1852   -2.2024    0.0000 C   0  0  0  0  0  0  0  0  0  0  0  0
   10.5414    0.1411    0.0000 C   0  0  0  0  0  0  0  0  0  0  0  0
   10.5414    1.0904    0.0000 C   0  0  0  0  0  0  0  0  0  0  0  0
    3.7786    0.0872    0.0000 C   0  0  0  0  0  0  0  0  0  0  0  0
    7.1474    4.4020    0.0000 C   0  0  0  0  0  0  0  0  0  0  0  0
    4.4904   -0.8484    0.0000 C   0  0  0  0  0  0  0  0  0  0  0  0
    6.2006    3.7052    0.0000 C   0  0  0  0  0  0  0  0  0  0  0  0
    8.6347   -3.0684    0.0000 C   0  0  0  0  0  0  0  0  0  0  0  0
   11.3399   -0.4610    0.0000 C   0  0  0  0  0  0  0  0  0  0  0  0
    6.5966   -3.0108    0.0000 C   0  0  0  0  0  0  0  0  0  0  0  0
   11.3371    1.6960    0.0000 C   0  0  0  0  0  0  0  0  0  0  0  0
    3.2978   -0.7896    0.0000 C   0  0  0  0  0  0  0  0  0  0  0  0
    6.2783    4.8967    0.0000 C   0  0  0  0  0  0  0  0  0  0  0  0
    8.1347   -3.9344    0.0000 C   0  0  0  0  0  0  0  0  0  0  0  0
   12.2605   -0.0704    0.0000 C   0  0  0  0  0  0  0  0  0  0  0  0
    8.6347   -4.8004    0.0000 C   0  0  0  0  0  0  0  0  0  0  0  0
   13.0590   -0.6724    0.0000 C   0  0  0  0  0  0  0  0  0  0  0  0
    5.5117    2.6687    0.0000 H   0  0  0  0  0  0  0  0  0  0  0  0
    5.5456   -1.4712    0.0000 H   0  0  0  0  0  0  0  0  0  0  0  0
    9.7746    2.6706    0.0000 H   0  0  0  0  0  0  0  0  0  0  0  0
    9.7996   -1.4775    0.0000 H   0  0  0  0  0  0  0  0  0  0  0  0
    3.8728    0.7000    0.0000 H   0  0  0  0  0  0  0  0  0  0  0  0
    3.1915    0.2864    0.0000 H   0  0  0  0  0  0  0  0  0  0  0  0
    7.7586    4.2980    0.0000 H   0  0  0  0  0  0  0  0  0  0  0  0
    7.3559    4.9859    0.0000 H   0  0  0  0  0  0  0  0  0  0  0  0
    3.8967   -0.6698    0.0000 H   0  0  0  0  0  0  0  0  0  0  0  0
    4.3119   -1.4421    0.0000 H   0  0  0  0  0  0  0  0  0  0  0  0
    5.0842   -1.0269    0.0000 H   0  0  0  0  0  0  0  0  0  0  0  0
    6.3885    4.2960    0.0000 H   0  0  0  0  0  0  0  0  0  0  0  0
    5.6097    3.8932    0.0000 H   0  0  0  0  0  0  0  0  0  0  0  0
    6.0126    3.1144    0.0000 H   0  0  0  0  0  0  0  0  0  0  0  0
    9.1096   -3.4669    0.0000 H   0  0  0  0  0  0  0  0  0  0  0  0
    9.1096   -2.6698    0.0000 H   0  0  0  0  0  0  0  0  0  0  0  0
   10.8864   -0.8837    0.0000 H   0  0  0  0  0  0  0  0  0  0  0  0
   11.6775   -0.9810    0.0000 H   0  0  0  0  0  0  0  0  0  0  0  0
    6.0954   -2.6458    0.0000 H   0  0  0  0  0  0  0  0  0  0  0  0
    6.2317   -3.5120    0.0000 H   0  0  0  0  0  0  0  0  0  0  0  0
    7.0978   -3.3757    0.0000 H   0  0  0  0  0  0  0  0  0  0  0  0
   11.7126    1.2026    0.0000 H   0  0  0  0  0  0  0  0  0  0  0  0
   11.8305    2.0715    0.0000 H   0  0  0  0  0  0  0  0  0  0  0  0
   10.9617    2.1894    0.0000 H   0  0  0  0  0  0  0  0  0  0  0  0
    7.6597   -3.5359    0.0000 H   0  0  0  0  0  0  0  0  0  0  0  0
    7.6597   -4.3329    0.0000 H   0  0  0  0  0  0  0  0  0  0  0  0
   12.7140    0.3523    0.0000 H   0  0  0  0  0  0  0  0  0  0  0  0
   11.9229    0.4496    0.0000 H   0  0  0  0  0  0  0  0  0  0  0  0
    2.0000   -1.3553    0.0000 H   0  0  0  0  0  0  0  0  0  0  0  0
    5.7334    6.2034    0.0000 H   0  0  0  0  0  0  0  0  0  0  0  0
    8.4447   -6.2034    0.0000 H   0  0  0  0  0  0  0  0  0  0  0  0
   14.4746   -0.6552    0.0000 H   0  0  0  0  0  0  0  0  0  0  0  0
  2 27  2  0  0  0  0
  3 29  2  0  0  0  0
  4 44  1  0  0  0  0
  4 78  1  0  0  0  0
  5 45  1  0  0  0  0
  5 79  1  0  0  0  0
  6 44  2  0  0  0  0
  7 45  2  0  0  0  0
  8 48  1  0  0  0  0
  8 80  1  0  0  0  0
  9 49  1  0  0  0  0
  9 81  1  0  0  0  0
 10 48  2  0  0  0  0
 11 49  2  0  0  0  0
 12 17  1  0  0  0  0
 12 20  2  0  0  0  0
 13 16  1  0  0  0  0
 13 21  2  0  0  0  0
 14 22  1  0  0  0  0
 14 23  1  0  0  0  0
 15 24  1  0  0  0  0
 15 25  1  0  0  0  0
 16 19  1  0  0  0  0
 16 26  2  0  0  0  0
 17 18  1  0  0  0  0
 17 28  2  0  0  0  0
 18 27  1  0  0  0  0
 18 36  1  0  0  0  0
 18 38  1  0  0  0  0
 19 29  1  0  0  0  0
 19 37  1  0  0  0  0
 19 39  1  0  0  0  0
 20 26  1  0  0  0  0
 20 27  1  0  0  0  0
 21 29  1  0  0  0  0
 21 30  1  0  0  0  0
 22 28  1  0  0  0  0
 22 33  2  0  0  0  0
 23 31  1  0  0  0  0
 23 32  2  0  0  0  0
 24 30  2  0  0  0  0
 24 35  1  0  0  0  0
 25 31  2  0  0  0  0
 25 34  1  0  0  0  0
 26 50  1  0  0  0  0
 28 51  1  0  0  0  0
 30 52  1  0  0  0  0
 31 53  1  0  0  0  0
 32 33  1  0  0  0  0
 32 40  1  0  0  0  0
 33 42  1  0  0  0  0
 34 35  2  0  0  0  0
 34 41  1  0  0  0  0
 35 43  1  0  0  0  0
 36 44  1  0  0  0  0
 36 54  1  0  0  0  0
 36 55  1  0  0  0  0
 37 45  1  0  0  0  0
 37 56  1  0  0  0  0
 37 57  1  0  0  0  0
 38 58  1  0  0  0  0
 38 59  1  0  0  0  0
 38 60  1  0  0  0  0
 39 61  1  0  0  0  0
 39 62  1  0  0  0  0
 39 63  1  0  0  0  0
 40 46  1  0  0  0  0
 40 64  1  0  0  0  0
 40 65  1  0  0  0  0
 41 47  1  0  0  0  0
 41 66  1  0  0  0  0
 41 67  1  0  0  0  0
 42 68  1  0  0  0  0
 42 69  1  0  0  0  0
 42 70  1  0  0  0  0
 43 71  1  0  0  0  0
 43 72  1  0  0  0  0
 43 73  1  0  0  0  0
 46 48  1  0  0  0  0
 46 74  1  0  0  0  0
 46 75  1  0  0  0  0
 47 49  1  0  0  0  0
 47 76  1  0  0  0  0
 47 77  1  0  0  0  0
M  CHG  3   1   2  14  -1  15  -1
M  END
> <PUBCHEM_COMPOUND_CID>
3581

> <PUBCHEM_COMPOUND_CANONICALIZED>
1

> <PUBCHEM_CACTVS_COMPLEXITY>
1770

> <PUBCHEM_CACTVS_HBOND_ACCEPTOR>
14

> <PUBCHEM_CACTVS_HBOND_DONOR>
4

> <PUBCHEM_CACTVS_ROTATABLE_BOND>
10

> <PUBCHEM_CACTVS_SUBSKEYS>
AAADcfB/vAAAAAAgAAAAAAAAAAAAAWIECAAgQIEAAAAAAECBgAAAHgAACAAADgyBngACiJIIEgCoA6TyTACCgCAhAiAAmCEwRJgIIHrAkJGEQAhkgADIyAe/2TOfgAAAAAAAAAAAAAAAAAAAAAAAAAAAAA==

> <PUBCHEM_IUPAC_OPENEYE_NAME>
ferrous 3-[18-(2-carboxyethyl)-8,13-bis(carboxymethyl)-3,8,13,17-tetramethyl-7,12-dioxo-porphyrin-21,24-diid-2-yl]propanoic acid

> <PUBCHEM_IUPAC_CAS_NAME>
3-[18-(2-carboxyethyl)-8,13-bis(carboxymethyl)-3,8,13,17-tetramethyl-7,12-dioxo-2-porphyrin-21,24-diidyl]propanoic acid; iron(2+)

> <PUBCHEM_IUPAC_NAME>
3-[18-(2-carboxyethyl)-8,13-bis(carboxymethyl)-3,8,13,17-tetramethyl-7,12-dioxoporphyrin-21,24-diid-2-yl]propanoic acid; iron(2+)

> <PUBCHEM_IUPAC_SYSTEMATIC_NAME>
3-[8,13-bis(2-hydroxy-2-oxoethyl)-18-(3-hydroxy-3-oxopropyl)-3,8,13,17-tetramethyl-7,12-bis(oxidanylidene)porphyrin-21,24-diid-2-yl]propanoic acid; iron(2+)

> <PUBCHEM_IUPAC_TRADITIONAL_NAME>
ferrous 3-[18-(2-carboxyethyl)-8,13-bis(carboxymethyl)-7,12-diketo-3,8,13,17-tetramethyl-porphine-21,24-diid-2-yl]propionic acid

> <PUBCHEM_IUPAC_INCHI>
InChI=1S/C34H34N4O10.Fe/c1-15-17(5-7-27(39)40)21-10-22-18(6-8-28(41)42)16(2)20(36-22)11-25-33(3,13-29(43)44)32(48)24(38-25)12-26-34(4,14-30(45)46)31(47)23(37-26)9-19(15)35-21;/h9-12H,5-8,13-14H2,1-4H3,(H6,35,36,37,38,39,40,41,42,43,44,45,46,47,48);/q;+2/p-2

> <PUBCHEM_IUPAC_INCHIKEY>
XLQCGNUTSJTZNF-UHFFFAOYSA-L

> <PUBCHEM_EXACT_MASS>
712.146781

> <PUBCHEM_MOLECULAR_FORMULA>
C34H32FeN4O10

> <PUBCHEM_MOLECULAR_WEIGHT>
712.48368

> <PUBCHEM_OPENEYE_CAN_SMILES>
CC1=C(C2=CC3=C(C(=C([N-]3)C=C4C(C(=O)C(=N4)C=C5C(C(=O)C(=N5)C=C1[N-]2)(C)CC(=O)O)(C)CC(=O)O)C)CCC(=O)O)CCC(=O)O.[Fe+2]

> <PUBCHEM_OPENEYE_ISO_SMILES>
CC1=C(C2=CC3=C(C(=C([N-]3)C=C4C(C(=O)C(=N4)C=C5C(C(=O)C(=N5)C=C1[N-]2)(C)CC(=O)O)(C)CC(=O)O)C)CCC(=O)O)CCC(=O)O.[Fe+2]

> <PUBCHEM_CACTVS_TPSA>
210

> <PUBCHEM_MONOISOTOPIC_WEIGHT>
712.146781

> <PUBCHEM_TOTAL_CHARGE>
0

> <PUBCHEM_HEAVY_ATOM_COUNT>
49

> <PUBCHEM_ATOM_DEF_STEREO_COUNT>
0

> <PUBCHEM_ATOM_UDEF_STEREO_COUNT>
2

> <PUBCHEM_BOND_DEF_STEREO_COUNT>
0

> <PUBCHEM_BOND_UDEF_STEREO_COUNT>
0

> <PUBCHEM_ISOTOPIC_ATOM_COUNT>
0

> <PUBCHEM_COMPONENT_COUNT>
2

> <PUBCHEM_CACTVS_TAUTO_COUNT>
7

> <PUBCHEM_NONSTANDARDBOND>
1  12  6
1  13  6
1  14  6
1  15  6

> <PUBCHEM_COORDINATE_TYPE>
1
5
255

> <PUBCHEM_BONDANNOTATIONS>
12  17  8
12  20  8
13  16  8
13  21  8
14  22  8
14  23  8
15  24  8
15  25  8
16  26  8
17  28  8
18  38  3
19  39  3
20  26  8
21  30  8
22  28  8
22  33  8
23  31  8
23  32  8
24  30  8
24  35  8
25  31  8
25  34  8
32  33  8
34  35  8

$$$$

