9434
  -OEChem-06261203422D

 82 85  0     0  0  0  0  0  0999 V2000
    2.5484    6.4061    0.0000 Br  0  5  0  0  0  0  0  0  0  0  0  0
    0.0000    6.4061    0.0000 Br  0  5  0  0  0  0  0  0  0  0  0  0
   10.8282    9.4110    0.0000 N   0  3  0  0  0  0  0  0  0  0  0  0
    8.2301    3.9110    0.0000 N   0  3  0  0  0  0  0  0  0  0  0  0
    8.2301    2.9110    0.0000 C   0  0  0  0  0  0  0  0  0  0  0  0
   10.8282   10.4110    0.0000 C   0  0  0  0  0  0  0  0  0  0  0  0
    8.2301    4.9110    0.0000 C   0  0  0  0  0  0  0  0  0  0  0  0
   10.8282    8.4110    0.0000 C   0  0  0  0  0  0  0  0  0  0  0  0
    9.9622    7.9110    0.0000 C   0  0  0  0  0  0  0  0  0  0  0  0
    9.0962    5.4110    0.0000 C   0  0  0  0  0  0  0  0  0  0  0  0
   11.6372   10.9988    0.0000 C   0  0  0  0  0  0  0  0  0  0  0  0
   10.0192   10.9988    0.0000 C   0  0  0  0  0  0  0  0  0  0  0  0
    9.0391    2.3232    0.0000 C   0  0  0  0  0  0  0  0  0  0  0  0
    7.4211    2.3232    0.0000 C   0  0  0  0  0  0  0  0  0  0  0  0
    9.9622    6.9110    0.0000 C   0  0  0  0  0  0  0  0  0  0  0  0
    9.0962    6.4110    0.0000 C   0  0  0  0  0  0  0  0  0  0  0  0
   11.8282    9.4110    0.0000 C   0  0  0  0  0  0  0  0  0  0  0  0
    9.8282    9.4110    0.0000 C   0  0  0  0  0  0  0  0  0  0  0  0
    9.2301    3.9110    0.0000 C   0  0  0  0  0  0  0  0  0  0  0  0
    7.2301    3.9110    0.0000 C   0  0  0  0  0  0  0  0  0  0  0  0
   11.3282   11.9498    0.0000 C   0  0  0  0  0  0  0  0  0  0  0  0
   10.3282   11.9498    0.0000 C   0  0  0  0  0  0  0  0  0  0  0  0
    8.7301    1.3721    0.0000 C   0  0  0  0  0  0  0  0  0  0  0  0
    7.7301    1.3721    0.0000 C   0  0  0  0  0  0  0  0  0  0  0  0
   12.6526   10.7665    0.0000 C   0  0  0  0  0  0  0  0  0  0  0  0
    9.0038   10.7665    0.0000 C   0  0  0  0  0  0  0  0  0  0  0  0
   10.0546    2.5554    0.0000 C   0  0  0  0  0  0  0  0  0  0  0  0
    6.4057    2.5554    0.0000 C   0  0  0  0  0  0  0  0  0  0  0  0
   12.0132   12.7346    0.0000 C   0  0  0  0  0  0  0  0  0  0  0  0
    9.6432   12.7346    0.0000 C   0  0  0  0  0  0  0  0  0  0  0  0
    9.4151    0.5874    0.0000 C   0  0  0  0  0  0  0  0  0  0  0  0
    7.0452    0.5874    0.0000 C   0  0  0  0  0  0  0  0  0  0  0  0
   13.3556   11.5352    0.0000 C   0  0  0  0  0  0  0  0  0  0  0  0
    8.3008   11.5352    0.0000 C   0  0  0  0  0  0  0  0  0  0  0  0
   10.7575    1.7868    0.0000 C   0  0  0  0  0  0  0  0  0  0  0  0
    5.7028    1.7868    0.0000 C   0  0  0  0  0  0  0  0  0  0  0  0
    6.0246    0.7961    0.0000 C   0  0  0  0  0  0  0  0  0  0  0  0
   10.4356    0.7961    0.0000 C   0  0  0  0  0  0  0  0  0  0  0  0
    8.6227   12.5259    0.0000 C   0  0  0  0  0  0  0  0  0  0  0  0
   13.0337   12.5259    0.0000 C   0  0  0  0  0  0  0  0  0  0  0  0
   11.3806   10.1295    0.0000 H   0  0  0  0  0  0  0  0  0  0  0  0
    7.6777    3.1924    0.0000 H   0  0  0  0  0  0  0  0  0  0  0  0
   11.0403    7.8284    0.0000 H   0  0  0  0  0  0  0  0  0  0  0  0
   11.4388    8.5186    0.0000 H   0  0  0  0  0  0  0  0  0  0  0  0
    8.0181    5.4936    0.0000 H   0  0  0  0  0  0  0  0  0  0  0  0
    7.6195    4.8033    0.0000 H   0  0  0  0  0  0  0  0  0  0  0  0
    9.7501    8.4936    0.0000 H   0  0  0  0  0  0  0  0  0  0  0  0
    9.3516    7.8033    0.0000 H   0  0  0  0  0  0  0  0  0  0  0  0
    9.3082    4.8284    0.0000 H   0  0  0  0  0  0  0  0  0  0  0  0
    9.7067    5.5186    0.0000 H   0  0  0  0  0  0  0  0  0  0  0  0
   10.1742    6.3284    0.0000 H   0  0  0  0  0  0  0  0  0  0  0  0
   10.5728    7.0186    0.0000 H   0  0  0  0  0  0  0  0  0  0  0  0
    8.8841    6.9936    0.0000 H   0  0  0  0  0  0  0  0  0  0  0  0
    8.4856    6.3033    0.0000 H   0  0  0  0  0  0  0  0  0  0  0  0
    7.2301    4.5310    0.0000 H   0  0  0  0  0  0  0  0  0  0  0  0
    6.6101    3.9110    0.0000 H   0  0  0  0  0  0  0  0  0  0  0  0
    7.2301    3.2910    0.0000 H   0  0  0  0  0  0  0  0  0  0  0  0
    9.2301    3.2910    0.0000 H   0  0  0  0  0  0  0  0  0  0  0  0
    9.8501    3.9110    0.0000 H   0  0  0  0  0  0  0  0  0  0  0  0
    9.2301    4.5310    0.0000 H   0  0  0  0  0  0  0  0  0  0  0  0
    9.8282   10.0310    0.0000 H   0  0  0  0  0  0  0  0  0  0  0  0
    9.2082    9.4110    0.0000 H   0  0  0  0  0  0  0  0  0  0  0  0
    9.8282    8.7910    0.0000 H   0  0  0  0  0  0  0  0  0  0  0  0
   11.8282    8.7910    0.0000 H   0  0  0  0  0  0  0  0  0  0  0  0
   12.4482    9.4110    0.0000 H   0  0  0  0  0  0  0  0  0  0  0  0
   11.8282   10.0310    0.0000 H   0  0  0  0  0  0  0  0  0  0  0  0
   12.8374   10.1747    0.0000 H   0  0  0  0  0  0  0  0  0  0  0  0
    8.8190   10.1747    0.0000 H   0  0  0  0  0  0  0  0  0  0  0  0
   10.2393    3.1473    0.0000 H   0  0  0  0  0  0  0  0  0  0  0  0
    6.2209    3.1473    0.0000 H   0  0  0  0  0  0  0  0  0  0  0  0
   11.8148   13.3220    0.0000 H   0  0  0  0  0  0  0  0  0  0  0  0
    9.8416   13.3220    0.0000 H   0  0  0  0  0  0  0  0  0  0  0  0
    9.2167    0.0000    0.0000 H   0  0  0  0  0  0  0  0  0  0  0  0
    7.2436    0.0000    0.0000 H   0  0  0  0  0  0  0  0  0  0  0  0
   13.9615   11.4040    0.0000 H   0  0  0  0  0  0  0  0  0  0  0  0
    7.6949   11.4040    0.0000 H   0  0  0  0  0  0  0  0  0  0  0  0
   11.3634    1.9180    0.0000 H   0  0  0  0  0  0  0  0  0  0  0  0
    5.0968    1.9180    0.0000 H   0  0  0  0  0  0  0  0  0  0  0  0
   13.4468   12.9882    0.0000 H   0  0  0  0  0  0  0  0  0  0  0  0
    8.2096   12.9882    0.0000 H   0  0  0  0  0  0  0  0  0  0  0  0
   10.8487    0.3338    0.0000 H   0  0  0  0  0  0  0  0  0  0  0  0
    5.6116    0.3338    0.0000 H   0  0  0  0  0  0  0  0  0  0  0  0
  3  6  1  0  0  0  0
  3  8  1  0  0  0  0
  3 17  1  0  0  0  0
  3 18  1  0  0  0  0
  4  5  1  0  0  0  0
  4  7  1  0  0  0  0
  4 19  1  0  0  0  0
  4 20  1  0  0  0  0
  5 13  1  0  0  0  0
  5 14  1  0  0  0  0
  5 42  1  0  0  0  0
  6 11  1  0  0  0  0
  6 12  1  0  0  0  0
  6 41  1  0  0  0  0
  7 10  1  0  0  0  0
  7 45  1  0  0  0  0
  7 46  1  0  0  0  0
  8  9  1  0  0  0  0
  8 43  1  0  0  0  0
  8 44  1  0  0  0  0
  9 15  1  0  0  0  0
  9 47  1  0  0  0  0
  9 48  1  0  0  0  0
 10 16  1  0  0  0  0
 10 49  1  0  0  0  0
 10 50  1  0  0  0  0
 11 21  1  0  0  0  0
 11 25  2  0  0  0  0
 12 22  1  0  0  0  0
 12 26  2  0  0  0  0
 13 23  1  0  0  0  0
 13 27  2  0  0  0  0
 14 24  1  0  0  0  0
 14 28  2  0  0  0  0
 15 16  1  0  0  0  0
 15 51  1  0  0  0  0
 15 52  1  0  0  0  0
 16 53  1  0  0  0  0
 16 54  1  0  0  0  0
 17 64  1  0  0  0  0
 17 65  1  0  0  0  0
 17 66  1  0  0  0  0
 18 61  1  0  0  0  0
 18 62  1  0  0  0  0
 18 63  1  0  0  0  0
 19 58  1  0  0  0  0
 19 59  1  0  0  0  0
 19 60  1  0  0  0  0
 20 55  1  0  0  0  0
 20 56  1  0  0  0  0
 20 57  1  0  0  0  0
 21 22  1  0  0  0  0
 21 29  2  0  0  0  0
 22 30  2  0  0  0  0
 23 24  1  0  0  0  0
 23 31  2  0  0  0  0
 24 32  2  0  0  0  0
 25 33  1  0  0  0  0
 25 67  1  0  0  0  0
 26 34  1  0  0  0  0
 26 68  1  0  0  0  0
 27 35  1  0  0  0  0
 27 69  1  0  0  0  0
 28 36  1  0  0  0  0
 28 70  1  0  0  0  0
 29 40  1  0  0  0  0
 29 71  1  0  0  0  0
 30 39  1  0  0  0  0
 30 72  1  0  0  0  0
 31 38  1  0  0  0  0
 31 73  1  0  0  0  0
 32 37  1  0  0  0  0
 32 74  1  0  0  0  0
 33 40  2  0  0  0  0
 33 75  1  0  0  0  0
 34 39  2  0  0  0  0
 34 76  1  0  0  0  0
 35 38  2  0  0  0  0
 35 77  1  0  0  0  0
 36 37  2  0  0  0  0
 36 78  1  0  0  0  0
 37 82  1  0  0  0  0
 38 81  1  0  0  0  0
 39 80  1  0  0  0  0
 40 79  1  0  0  0  0
M  CHG  4   1  -1   2  -1   3   1   4   1
M  END
> <PUBCHEM_COMPOUND_CID>
9434

> <PUBCHEM_COMPOUND_CANONICALIZED>
1

> <PUBCHEM_CACTVS_COMPLEXITY>
663

> <PUBCHEM_CACTVS_HBOND_ACCEPTOR>
2

> <PUBCHEM_CACTVS_HBOND_DONOR>
0

> <PUBCHEM_CACTVS_ROTATABLE_BOND>
9

> <PUBCHEM_CACTVS_SUBSKEYS>
AAADcfB/AAAAGAAAAAAAAAAAAAAAAYMAAAAwYMGAAAAAAGABVAAAHAAAAAAADCjBGAQyAIMAAACAAiBCAACCAAAgAAAIiAAIBIgIICKAkRGEIAhggACIiAcQgMAOgAAAAAAQAAAAAAAAACAAASAACQAAAA==

> <PUBCHEM_IUPAC_OPENEYE_NAME>
9H-fluoren-9-yl-[6-[9H-fluoren-9-yl(dimethyl)ammonio]hexyl]-dimethyl-ammonium dibromide

> <PUBCHEM_IUPAC_CAS_NAME>
9H-fluoren-9-yl-[6-[9H-fluoren-9-yl(dimethyl)ammonio]hexyl]-dimethylammonium dibromide

> <PUBCHEM_IUPAC_NAME>
9H-fluoren-9-yl-[6-[9H-fluoren-9-yl(dimethyl)azaniumyl]hexyl]-dimethylazanium dibromide

> <PUBCHEM_IUPAC_SYSTEMATIC_NAME>
9H-fluoren-9-yl-[6-[9H-fluoren-9-yl(dimethyl)azaniumyl]hexyl]-dimethyl-azanium dibromide

> <PUBCHEM_IUPAC_TRADITIONAL_NAME>
9H-fluoren-9-yl-[6-[9H-fluoren-9-yl(dimethyl)ammonio]hexyl]-dimethyl-ammonium dibromide

> <PUBCHEM_IUPAC_INCHI>
InChI=1S/C36H42N2.2BrH/c1-37(2,35-31-21-11-7-17-27(31)28-18-8-12-22-32(28)35)25-15-5-6-16-26-38(3,4)36-33-23-13-9-19-29(33)30-20-10-14-24-34(30)36;;/h7-14,17-24,35-36H,5-6,15-16,25-26H2,1-4H3;2*1H/q+2;;/p-2

> <PUBCHEM_IUPAC_INCHIKEY>
WDEFPRUEZRUYNW-UHFFFAOYSA-L

> <PUBCHEM_EXACT_MASS>
662.169427

> <PUBCHEM_MOLECULAR_FORMULA>
C36H42Br2N2

> <PUBCHEM_MOLECULAR_WEIGHT>
662.54008

> <PUBCHEM_OPENEYE_CAN_SMILES>
C[N+](C)(CCCCCC[N+](C)(C)C1C2=CC=CC=C2C3=CC=CC=C13)C4C5=CC=CC=C5C6=CC=CC=C46.[Br-].[Br-]

> <PUBCHEM_OPENEYE_ISO_SMILES>
C[N+](C)(CCCCCC[N+](C)(C)C1C2=CC=CC=C2C3=CC=CC=C13)C4C5=CC=CC=C5C6=CC=CC=C46.[Br-].[Br-]

> <PUBCHEM_CACTVS_TPSA>
0

> <PUBCHEM_MONOISOTOPIC_WEIGHT>
660.171474

> <PUBCHEM_TOTAL_CHARGE>
0

> <PUBCHEM_HEAVY_ATOM_COUNT>
40

> <PUBCHEM_ATOM_DEF_STEREO_COUNT>
0

> <PUBCHEM_ATOM_UDEF_STEREO_COUNT>
0

> <PUBCHEM_BOND_DEF_STEREO_COUNT>
0

> <PUBCHEM_BOND_UDEF_STEREO_COUNT>
0

> <PUBCHEM_ISOTOPIC_ATOM_COUNT>
0

> <PUBCHEM_COMPONENT_COUNT>
3

> <PUBCHEM_CACTVS_TAUTO_COUNT>
1

> <PUBCHEM_COORDINATE_TYPE>
1
5
255

> <PUBCHEM_BONDANNOTATIONS>
11  21  8
11  25  8
12  22  8
12  26  8
13  23  8
13  27  8
14  24  8
14  28  8
21  29  8
22  30  8
23  31  8
24  32  8
25  33  8
26  34  8
27  35  8
28  36  8
29  40  8
30  39  8
31  38  8
32  37  8
33  40  8
34  39  8
35  38  8
36  37  8

$$$$

