   Color/Form

     * Prisms
     * White, crystalline
     * Small rhombic prisms or needles from dilute alcohol as the
       monohydrate

   from [1]HSDB

   Odor
        Odorless
   from [2]HSDB

   Taste
        Bitter
   from [3]HSDB

   Boiling Point
        190 deg C (sublimes)
   from [4]HSDB

   Melting Point
        255 deg C
   from [5]HSDB

   Density/Specific Gravity
        1.32 at 20 deg C/4 deg C
   from [6]HSDB

   Dissociation Constants

     * pKb = 6.13 at 20 deg C; pKa = 9.85
     * pKa = 8.21 at 25 deg C; pKa = 9.85 at 20 deg C

   from [7]HSDB

   Octanol/Water Partition Coefficient
        log Kow = 0.89
   from [8]HSDB

   pH
        pH of saturated solution, 8.5
   from [9]HSDB

   Solubilities

     * One gram dissolves in about 5000 mL water, 1100 ml boiling water,
       210 mL alcohol, 98 mL boiling alcohol, 1220 mL chloroform, 6250 ml
       ether, 114 mL amyl alcohol, 10 mL boiling methanol, 525 mL ethyl
       acetate. Freely soluble in solutions of fixed alkali and alkaline
       earth hydroxides, in phenol, cresols; moderately soluble in
       mixtures of chloroform with alcohols; slightly soluble in ammonia,
       benzene
     * Insoluble in diethyl ether, acetone; soluble in methanol, pyridine;
       slightly soluble in ethanol
     * In water, 1.49X10+2 mg/L at 20 deg C

   from [10]HSDB

   Spectral Properties

     * Specific rotation: -132 deg at 25 deg C/D (methanol)
     * UV maximum in acid: 285 nm; in alkali: 298 nm
     * Intense mass spectral peaks: 124 m/z, 162 m/z, 268 m/z, 285 m/z
     * IR: 5002 (Coblentz Society Spectral Collection)
     * UV: 6-735 (Organic Electronic Spectral Data, Phillips et al, John
       Wiley & Sons, New York)
     * MASS: 58719 (NIST/EPA/MSDC Mass Spectral database, 1990 version)

   from [11]HSDB

   Vapor Pressure
        1.7X10-9 mm Hg at 25 deg C (est)
   from [12]HSDB

   Other Chemical/Physical Properties

     * Decomp at 254 deg C
     * Orthorhombic, sphenoidal prisms, needles from methanol; decomp
       254-256 deg C with rapid heating; darkens on exposure to light.
       Loses water @ 130 deg C; density 1.32 @ 20 deg C/4 deg C; specific
       optical rotation: -132 deg (methanol); pKb @ 20 deg C= 6.13, Kb=
       7.5X10-7; pKa 9.85, Ka= 1.4X10-10; pH of saturated soln, 8.5; uv
       max in acid: 285 nm; in alkali: 298 nm. Freely sol in solns of
       fixed alkali and alkaline earth hydroxides, in phenol, cresols;
       moderately sol in mixtures of chloroform with alcohols; slightly
       sol in ammonia, benzene. /Morphine monohydrate/
     * One gram dissolves in about 5000 ml water, 1100 ml boiling water,
       210 ml alcohol, 98 ml boiling alcohol, 1200 ml chloroform, 6250 ml
       ether, 114 ml amyl alcohol, 10 ml boiling methanol, 525 ml ethyl
       acetate. /Morphine monohydrate/
     * White, fine odorless crystals or powder, or cubical masses. Loses
       some water at ordinary temp; about 3H2O (7.1%) at 100 deg C, the
       remainder at 130 deg C. Discolors on exposure to light. pH about
       4.8. MP about 250 deg C with decomp when anhydrous. Specific
       optical rotation -108.7 deg at 25 C/D (concn = 4% in water,
       anhydrous basis). Solubilities: 1 g in 15.5 mL water at 25 deg C, 1
       g in 0.7 mL water at 80 deg C, 1 g in 565 mL alcohol, 1 g in 240 mL
       alcohol at 60 deg C; insol in chloroform, ether /Morphine sulfate,
       pentahydrate/
     * Solution in water is alkaline to litmus
     * Morphine salts are incompatible with alkalis, bromides, iodides,
       potassium permanganate, tannic acid, and vegetable astringents; and
       with salts of iron, lead, manganese, silver, copper, and zinc; the
       alkalinity of glass bottles may precipitate some of the morphine
       from a solution of a salt.
     * /Melting point is/ 197 deg C (metastable phase). High melting form
       sublimes at 190-200 deg C (0.2 mm pressure at 2mm distance).
     * Yellowish-white powder; slight acetic odor. Specific optical
       rotation (15 deg C): 77 deg (water). One g dissolves in 2.25 ml
       water, 2 ml boiling water, 22 ml alc, 2 ml alc @ 60 deg C, 4.5 ml
       glycerol, 4.75 ml chloroform. Practically insol in ether. /Acetate
       trihydrate/
     * Crystalline powder. Sol in 11 parts water; slightly sol in alcohol.
       Practically insol in chloroform, ether, carbon disulfide. /Tartrate
       trihydrate/
     * Henry's Law constant = 1.3X10-16 atm-cu m/mole at 25 deg C (est)
     * Hydroxyl radical reaction rate constant = 2.1X10-10 cu
       cm/molecule-sec at 25 deg C (est)

   from [13]HSDB

   Computed Properties
   Molecular Weight                  285.33766 [g/mol]
   Molecular Formula                 C[17]H[19]NO[3]
   XLogP3                            0.8
   H-Bond Donor                      2
   H-Bond Acceptor                   4
   Rotatable Bond Count              0
   Tautomer Count                    2
   Exact Mass                        285.136493
   MonoIsotopic Mass                 285.136493
   Topological Polar Surface Area    52.9
   Heavy Atom Count                  21
   Formal Charge                     0
   Complexity                        494
   Isotope Atom Count                0
   Defined Atom Stereocenter Count   5
   Undefined Atom Stereocenter Count 0
   Defined Bond Stereocenter Count   0
   Undefined Bond Stereocenter Count 0
   Covalently-Bonded Unit Count      1
   Feature 3D Acceptor Count         2
   Feature 3D Donor Count            2
   Feature 3D Cation Count           1
   Feature 3D Ring Count             5
   Effective Rotor Count             1.2
   Conformer Sampling RMSD           0.6
   CID Conformer Count               [14]1

References

   1. http://toxnet.nlm.nih.gov/cgi-bin/sis/search/r?dbs+hsdb:@term+@rn+@rel+57-27-2
   2. http://toxnet.nlm.nih.gov/cgi-bin/sis/search/r?dbs+hsdb:@term+@rn+@rel+57-27-2
   3. http://toxnet.nlm.nih.gov/cgi-bin/sis/search/r?dbs+hsdb:@term+@rn+@rel+57-27-2
   4. http://toxnet.nlm.nih.gov/cgi-bin/sis/search/r?dbs+hsdb:@term+@rn+@rel+57-27-2
   5. http://toxnet.nlm.nih.gov/cgi-bin/sis/search/r?dbs+hsdb:@term+@rn+@rel+57-27-2
   6. http://toxnet.nlm.nih.gov/cgi-bin/sis/search/r?dbs+hsdb:@term+@rn+@rel+57-27-2
   7. http://toxnet.nlm.nih.gov/cgi-bin/sis/search/r?dbs+hsdb:@term+@rn+@rel+57-27-2
   8. http://toxnet.nlm.nih.gov/cgi-bin/sis/search/r?dbs+hsdb:@term+@rn+@rel+57-27-2
   9. http://toxnet.nlm.nih.gov/cgi-bin/sis/search/r?dbs+hsdb:@term+@rn+@rel+57-27-2
  10. http://toxnet.nlm.nih.gov/cgi-bin/sis/search/r?dbs+hsdb:@term+@rn+@rel+57-27-2
  11. http://toxnet.nlm.nih.gov/cgi-bin/sis/search/r?dbs+hsdb:@term+@rn+@rel+57-27-2
  12. http://toxnet.nlm.nih.gov/cgi-bin/sis/search/r?dbs+hsdb:@term+@rn+@rel+57-27-2
  13. http://toxnet.nlm.nih.gov/cgi-bin/sis/search/r?dbs+hsdb:@term+@rn+@rel+57-27-2
  14. http://pubchem.ncbi.nlm.nih.gov/vw3d/vw3d.cgi?cid=5288826
