11953820
  -OEChem-07051212482D

137137  0     0  0  0  0  0  0999 V2000
    2.5369  -12.0000    0.0000 O   0  0  0  0  0  0  0  0  0  0  0  0
    2.5369  -14.0000    0.0000 O   0  0  0  0  0  0  0  0  0  0  0  0
    6.0010  -14.0000    0.0000 O   0  0  0  0  0  0  0  0  0  0  0  0
    4.2690  -15.0000    0.0000 O   0  0  0  0  0  0  0  0  0  0  0  0
   11.1972    0.0000    0.0000 C   0  0  0  0  0  0  0  0  0  0  0  0
   12.9292    3.0000    0.0000 C   0  0  0  0  0  0  0  0  0  0  0  0
    9.4651   -3.0000    0.0000 C   0  0  0  0  0  0  0  0  0  0  0  0
   11.1972    1.0000    0.0000 C   0  0  0  0  0  0  0  0  0  0  0  0
    9.4651   -2.0000    0.0000 C   0  0  0  0  0  0  0  0  0  0  0  0
   12.9292    4.0000    0.0000 C   0  0  0  0  0  0  0  0  0  0  0  0
   14.6613    6.0000    0.0000 C   0  0  0  0  0  0  0  0  0  0  0  0
    7.7331   -6.0000    0.0000 C   0  0  0  0  0  0  0  0  0  0  0  0
   10.3312   -0.5000    0.0000 C   0  0  0  0  0  0  0  0  0  0  0  0
    7.7331   -5.0000    0.0000 C   0  0  0  0  0  0  0  0  0  0  0  0
   12.0632    2.5000    0.0000 C   0  0  0  0  0  0  0  0  0  0  0  0
    8.5991   -3.5000    0.0000 C   0  0  0  0  0  0  0  0  0  0  0  0
   14.6613    7.0000    0.0000 C   0  0  0  0  0  0  0  0  0  0  0  0
   13.7953    5.5000    0.0000 C   0  0  0  0  0  0  0  0  0  0  0  0
    6.8671   -6.5000    0.0000 C   0  0  0  0  0  0  0  0  0  0  0  0
   12.0632    1.5000    0.0000 C   0  0  0  0  0  0  0  0  0  0  0  0
   10.3312   -1.5000    0.0000 C   0  0  0  0  0  0  0  0  0  0  0  0
   13.7953    4.5000    0.0000 C   0  0  0  0  0  0  0  0  0  0  0  0
    6.0010   -8.0000    0.0000 C   0  0  0  0  0  0  0  0  0  0  0  0
    8.5991   -4.5000    0.0000 C   0  0  0  0  0  0  0  0  0  0  0  0
   16.3933    9.0000    0.0000 C   0  0  0  0  0  0  0  0  0  0  0  0
    6.0010   -9.0000    0.0000 C   0  0  0  0  0  0  0  0  0  0  0  0
   15.5273    8.5000    0.0000 C   0  0  0  0  0  0  0  0  0  0  0  0
   15.5273    7.5000    0.0000 C   0  0  0  0  0  0  0  0  0  0  0  0
   16.3933   10.0000    0.0000 C   0  0  0  0  0  0  0  0  0  0  0  0
    6.8671   -7.5000    0.0000 C   0  0  0  0  0  0  0  0  0  0  0  0
    5.1350   -9.5000    0.0000 C   0  0  0  0  0  0  0  0  0  0  0  0
    9.4651    0.0000    0.0000 C   0  0  0  0  0  0  0  0  0  0  0  0
   11.1972    3.0000    0.0000 C   0  0  0  0  0  0  0  0  0  0  0  0
    7.7331   -3.0000    0.0000 C   0  0  0  0  0  0  0  0  0  0  0  0
   12.9292    6.0000    0.0000 C   0  0  0  0  0  0  0  0  0  0  0  0
   17.2594   10.5000    0.0000 C   0  0  0  0  0  0  0  0  0  0  0  0
    4.2690  -11.0000    0.0000 C   0  0  0  0  0  0  0  0  0  0  0  0
   17.2594   11.5000    0.0000 C   0  0  0  0  0  0  0  0  0  0  0  0
    5.1350  -10.5000    0.0000 C   0  0  0  0  0  0  0  0  0  0  0  0
    6.0010   -6.0000    0.0000 C   0  0  0  0  0  0  0  0  0  0  0  0
   18.1254   12.0000    0.0000 C   0  0  0  0  0  0  0  0  0  0  0  0
    4.2690  -12.0000    0.0000 C   0  0  0  0  0  0  0  0  0  0  0  0
   14.6613    9.0000    0.0000 C   0  0  0  0  0  0  0  0  0  0  0  0
    4.2690   -9.0000    0.0000 C   0  0  0  0  0  0  0  0  0  0  0  0
   18.1254   13.0000    0.0000 C   0  0  0  0  0  0  0  0  0  0  0  0
    5.1350  -12.5000    0.0000 C   0  0  0  0  0  0  0  0  0  0  0  0
   16.3933   12.0000    0.0000 C   0  0  0  0  0  0  0  0  0  0  0  0
    3.4030  -12.5000    0.0000 C   0  0  0  0  0  0  0  0  0  0  0  0
    5.1350  -13.5000    0.0000 C   0  0  0  0  0  0  0  0  0  0  0  0
    3.4030  -13.5000    0.0000 C   0  0  0  0  0  0  0  0  0  0  0  0
   18.9914   13.5000    0.0000 C   0  0  0  0  0  0  0  0  0  0  0  0
    6.0010  -12.0000    0.0000 C   0  0  0  0  0  0  0  0  0  0  0  0
    4.2690  -14.0000    0.0000 C   0  0  0  0  0  0  0  0  0  0  0  0
   18.9914   14.5000    0.0000 C   0  0  0  0  0  0  0  0  0  0  0  0
   19.8574   15.0000    0.0000 C   0  0  0  0  0  0  0  0  0  0  0  0
   18.1254   15.0000    0.0000 C   0  0  0  0  0  0  0  0  0  0  0  0
    2.5369  -15.0000    0.0000 C   0  0  0  0  0  0  0  0  0  0  0  0
   11.4092   -0.5826    0.0000 H   0  0  0  0  0  0  0  0  0  0  0  0
   11.8078    0.1077    0.0000 H   0  0  0  0  0  0  0  0  0  0  0  0
   13.1413    2.4174    0.0000 H   0  0  0  0  0  0  0  0  0  0  0  0
   13.5398    3.1077    0.0000 H   0  0  0  0  0  0  0  0  0  0  0  0
    9.6772   -3.5826    0.0000 H   0  0  0  0  0  0  0  0  0  0  0  0
   10.0757   -2.8923    0.0000 H   0  0  0  0  0  0  0  0  0  0  0  0
   10.9851    1.5826    0.0000 H   0  0  0  0  0  0  0  0  0  0  0  0
   10.5866    0.8923    0.0000 H   0  0  0  0  0  0  0  0  0  0  0  0
    9.2531   -1.4174    0.0000 H   0  0  0  0  0  0  0  0  0  0  0  0
    8.8546   -2.1077    0.0000 H   0  0  0  0  0  0  0  0  0  0  0  0
   12.7172    4.5826    0.0000 H   0  0  0  0  0  0  0  0  0  0  0  0
   12.3187    3.8923    0.0000 H   0  0  0  0  0  0  0  0  0  0  0  0
   14.8733    5.4174    0.0000 H   0  0  0  0  0  0  0  0  0  0  0  0
   15.2719    6.1077    0.0000 H   0  0  0  0  0  0  0  0  0  0  0  0
    7.9451   -6.5826    0.0000 H   0  0  0  0  0  0  0  0  0  0  0  0
    8.3437   -5.8923    0.0000 H   0  0  0  0  0  0  0  0  0  0  0  0
    7.5210   -4.4174    0.0000 H   0  0  0  0  0  0  0  0  0  0  0  0
    7.1225   -5.1077    0.0000 H   0  0  0  0  0  0  0  0  0  0  0  0
   14.4492    7.5826    0.0000 H   0  0  0  0  0  0  0  0  0  0  0  0
   14.0507    6.8923    0.0000 H   0  0  0  0  0  0  0  0  0  0  0  0
   12.6002    1.1900    0.0000 H   0  0  0  0  0  0  0  0  0  0  0  0
   10.8681   -1.8100    0.0000 H   0  0  0  0  0  0  0  0  0  0  0  0
   14.3322    4.1900    0.0000 H   0  0  0  0  0  0  0  0  0  0  0  0
    5.7890   -7.4174    0.0000 H   0  0  0  0  0  0  0  0  0  0  0  0
    5.3905   -8.1077    0.0000 H   0  0  0  0  0  0  0  0  0  0  0  0
    9.1360   -4.8100    0.0000 H   0  0  0  0  0  0  0  0  0  0  0  0
   16.6054    8.4174    0.0000 H   0  0  0  0  0  0  0  0  0  0  0  0
   17.0039    9.1077    0.0000 H   0  0  0  0  0  0  0  0  0  0  0  0
    6.2131   -9.5826    0.0000 H   0  0  0  0  0  0  0  0  0  0  0  0
    6.6116   -8.8923    0.0000 H   0  0  0  0  0  0  0  0  0  0  0  0
   16.0643    7.1900    0.0000 H   0  0  0  0  0  0  0  0  0  0  0  0
   16.1813   10.5826    0.0000 H   0  0  0  0  0  0  0  0  0  0  0  0
   15.7828    9.8923    0.0000 H   0  0  0  0  0  0  0  0  0  0  0  0
    7.4040   -7.8100    0.0000 H   0  0  0  0  0  0  0  0  0  0  0  0
    9.7751    0.5369    0.0000 H   0  0  0  0  0  0  0  0  0  0  0  0
    8.9282    0.3100    0.0000 H   0  0  0  0  0  0  0  0  0  0  0  0
    9.1551   -0.5369    0.0000 H   0  0  0  0  0  0  0  0  0  0  0  0
   11.5072    3.5369    0.0000 H   0  0  0  0  0  0  0  0  0  0  0  0
   10.6603    3.3100    0.0000 H   0  0  0  0  0  0  0  0  0  0  0  0
   10.8872    2.4631    0.0000 H   0  0  0  0  0  0  0  0  0  0  0  0
    8.0431   -2.4631    0.0000 H   0  0  0  0  0  0  0  0  0  0  0  0
    7.1962   -2.6900    0.0000 H   0  0  0  0  0  0  0  0  0  0  0  0
    7.4231   -3.5369    0.0000 H   0  0  0  0  0  0  0  0  0  0  0  0
   13.2392    6.5369    0.0000 H   0  0  0  0  0  0  0  0  0  0  0  0
   12.3923    6.3100    0.0000 H   0  0  0  0  0  0  0  0  0  0  0  0
   12.6192    5.4631    0.0000 H   0  0  0  0  0  0  0  0  0  0  0  0
   17.7963   10.1900    0.0000 H   0  0  0  0  0  0  0  0  0  0  0  0
    4.0569  -10.4174    0.0000 H   0  0  0  0  0  0  0  0  0  0  0  0
    3.6584  -11.1077    0.0000 H   0  0  0  0  0  0  0  0  0  0  0  0
    5.6720  -10.8100    0.0000 H   0  0  0  0  0  0  0  0  0  0  0  0
    6.3110   -5.4631    0.0000 H   0  0  0  0  0  0  0  0  0  0  0  0
    5.4641   -5.6900    0.0000 H   0  0  0  0  0  0  0  0  0  0  0  0
    5.6910   -6.5369    0.0000 H   0  0  0  0  0  0  0  0  0  0  0  0
   18.3374   11.4174    0.0000 H   0  0  0  0  0  0  0  0  0  0  0  0
   18.7360   12.1077    0.0000 H   0  0  0  0  0  0  0  0  0  0  0  0
   14.9713    9.5369    0.0000 H   0  0  0  0  0  0  0  0  0  0  0  0
   14.1244    9.3100    0.0000 H   0  0  0  0  0  0  0  0  0  0  0  0
   14.3513    8.4631    0.0000 H   0  0  0  0  0  0  0  0  0  0  0  0
    4.5790   -8.4631    0.0000 H   0  0  0  0  0  0  0  0  0  0  0  0
    3.7320   -8.6900    0.0000 H   0  0  0  0  0  0  0  0  0  0  0  0
    3.9590   -9.5369    0.0000 H   0  0  0  0  0  0  0  0  0  0  0  0
   17.9133   13.5826    0.0000 H   0  0  0  0  0  0  0  0  0  0  0  0
   17.5148   12.8923    0.0000 H   0  0  0  0  0  0  0  0  0  0  0  0
   16.7033   12.5369    0.0000 H   0  0  0  0  0  0  0  0  0  0  0  0
   15.8564   12.3100    0.0000 H   0  0  0  0  0  0  0  0  0  0  0  0
   16.0833   11.4631    0.0000 H   0  0  0  0  0  0  0  0  0  0  0  0
   19.5284   13.1900    0.0000 H   0  0  0  0  0  0  0  0  0  0  0  0
    6.3110  -12.5369    0.0000 H   0  0  0  0  0  0  0  0  0  0  0  0
    6.5380  -11.6900    0.0000 H   0  0  0  0  0  0  0  0  0  0  0  0
    5.6910  -11.4631    0.0000 H   0  0  0  0  0  0  0  0  0  0  0  0
    2.0000  -12.3100    0.0000 H   0  0  0  0  0  0  0  0  0  0  0  0
   20.1674   14.4631    0.0000 H   0  0  0  0  0  0  0  0  0  0  0  0
   20.3944   15.3100    0.0000 H   0  0  0  0  0  0  0  0  0  0  0  0
   19.5474   15.5369    0.0000 H   0  0  0  0  0  0  0  0  0  0  0  0
   18.4354   15.5369    0.0000 H   0  0  0  0  0  0  0  0  0  0  0  0
   17.5885   15.3100    0.0000 H   0  0  0  0  0  0  0  0  0  0  0  0
   17.8154   14.4631    0.0000 H   0  0  0  0  0  0  0  0  0  0  0  0
    1.9169  -15.0000    0.0000 H   0  0  0  0  0  0  0  0  0  0  0  0
    2.5369  -15.6200    0.0000 H   0  0  0  0  0  0  0  0  0  0  0  0
    3.1569  -15.0000    0.0000 H   0  0  0  0  0  0  0  0  0  0  0  0
  1 48  1  0  0  0  0
  1128  1  0  0  0  0
  2 50  1  0  0  0  0
  2 57  1  0  0  0  0
  3 49  2  0  0  0  0
  4 53  2  0  0  0  0
  5  8  1  0  0  0  0
  5 13  1  0  0  0  0
  5 58  1  0  0  0  0
  5 59  1  0  0  0  0
  6 10  1  0  0  0  0
  6 15  1  0  0  0  0
  6 60  1  0  0  0  0
  6 61  1  0  0  0  0
  7  9  1  0  0  0  0
  7 16  1  0  0  0  0
  7 62  1  0  0  0  0
  7 63  1  0  0  0  0
  8 20  1  0  0  0  0
  8 64  1  0  0  0  0
  8 65  1  0  0  0  0
  9 21  1  0  0  0  0
  9 66  1  0  0  0  0
  9 67  1  0  0  0  0
 10 22  1  0  0  0  0
 10 68  1  0  0  0  0
 10 69  1  0  0  0  0
 11 17  1  0  0  0  0
 11 18  1  0  0  0  0
 11 70  1  0  0  0  0
 11 71  1  0  0  0  0
 12 14  1  0  0  0  0
 12 19  1  0  0  0  0
 12 72  1  0  0  0  0
 12 73  1  0  0  0  0
 13 21  2  0  0  0  0
 13 32  1  0  0  0  0
 14 24  1  0  0  0  0
 14 74  1  0  0  0  0
 14 75  1  0  0  0  0
 15 20  2  0  0  0  0
 15 33  1  0  0  0  0
 16 24  2  0  0  0  0
 16 34  1  0  0  0  0
 17 28  1  0  0  0  0
 17 76  1  0  0  0  0
 17 77  1  0  0  0  0
 18 22  2  0  0  0  0
 18 35  1  0  0  0  0
 19 30  2  0  0  0  0
 19 40  1  0  0  0  0
 20 78  1  0  0  0  0
 21 79  1  0  0  0  0
 22 80  1  0  0  0  0
 23 26  1  0  0  0  0
 23 30  1  0  0  0  0
 23 81  1  0  0  0  0
 23 82  1  0  0  0  0
 24 83  1  0  0  0  0
 25 27  1  0  0  0  0
 25 29  1  0  0  0  0
 25 84  1  0  0  0  0
 25 85  1  0  0  0  0
 26 31  1  0  0  0  0
 26 86  1  0  0  0  0
 26 87  1  0  0  0  0
 27 28  2  0  0  0  0
 27 43  1  0  0  0  0
 28 88  1  0  0  0  0
 29 36  1  0  0  0  0
 29 89  1  0  0  0  0
 29 90  1  0  0  0  0
 30 91  1  0  0  0  0
 31 39  2  0  0  0  0
 31 44  1  0  0  0  0
 32 92  1  0  0  0  0
 32 93  1  0  0  0  0
 32 94  1  0  0  0  0
 33 95  1  0  0  0  0
 33 96  1  0  0  0  0
 33 97  1  0  0  0  0
 34 98  1  0  0  0  0
 34 99  1  0  0  0  0
 34100  1  0  0  0  0
 35101  1  0  0  0  0
 35102  1  0  0  0  0
 35103  1  0  0  0  0
 36 38  2  0  0  0  0
 36104  1  0  0  0  0
 37 39  1  0  0  0  0
 37 42  1  0  0  0  0
 37105  1  0  0  0  0
 37106  1  0  0  0  0
 38 41  1  0  0  0  0
 38 47  1  0  0  0  0
 39107  1  0  0  0  0
 40108  1  0  0  0  0
 40109  1  0  0  0  0
 40110  1  0  0  0  0
 41 45  1  0  0  0  0
 41111  1  0  0  0  0
 41112  1  0  0  0  0
 42 46  2  0  0  0  0
 42 48  1  0  0  0  0
 43113  1  0  0  0  0
 43114  1  0  0  0  0
 43115  1  0  0  0  0
 44116  1  0  0  0  0
 44117  1  0  0  0  0
 44118  1  0  0  0  0
 45 51  1  0  0  0  0
 45119  1  0  0  0  0
 45120  1  0  0  0  0
 46 49  1  0  0  0  0
 46 52  1  0  0  0  0
 47121  1  0  0  0  0
 47122  1  0  0  0  0
 47123  1  0  0  0  0
 48 50  2  0  0  0  0
 49 53  1  0  0  0  0
 50 53  1  0  0  0  0
 51 54  2  0  0  0  0
 51124  1  0  0  0  0
 52125  1  0  0  0  0
 52126  1  0  0  0  0
 52127  1  0  0  0  0
 54 55  1  0  0  0  0
 54 56  1  0  0  0  0
 55129  1  0  0  0  0
 55130  1  0  0  0  0
 55131  1  0  0  0  0
 56132  1  0  0  0  0
 56133  1  0  0  0  0
 56134  1  0  0  0  0
 57135  1  0  0  0  0
 57136  1  0  0  0  0
 57137  1  0  0  0  0
M  END
> <PUBCHEM_COMPOUND_CID>
11953820

> <PUBCHEM_COMPOUND_CANONICALIZED>
1

> <PUBCHEM_CACTVS_COMPLEXITY>
1660

> <PUBCHEM_CACTVS_HBOND_ACCEPTOR>
4

> <PUBCHEM_CACTVS_HBOND_DONOR>
1

> <PUBCHEM_CACTVS_ROTATABLE_BOND>
27

> <PUBCHEM_CACTVS_SUBSKEYS>
AAADcfB8OAAAAAAAAAAAAAAAAAAAAAAAAAAgAAAAAAAAAAAAAAAAGgAACAAADASAgAICAAAABgCIAqBSAAIACAAgIAAACAFAAEgIBBYAAQQAUAAEoAAIkQKAAAAAAAAAAAAAAAAAAAAAAAAAAAAAAAAAAA==

> <PUBCHEM_IUPAC_OPENEYE_NAME>
4-hydroxy-3-methoxy-6-methyl-5-[(2E,6E,10E,14E,18E,22E,26E,30E)-3,7,11,15,19,23,27,31,35-nonamethylhexatriaconta-2,6,10,14,18,22,26,30,34-nonaenyl]-1,2-benzoquinone

> <PUBCHEM_IUPAC_CAS_NAME>
4-hydroxy-3-methoxy-6-methyl-5-[(2E,6E,10E,14E,18E,22E,26E,30E)-3,7,11,15,19,23,27,31,35-nonamethylhexatriaconta-2,6,10,14,18,22,26,30,34-nonaenyl]cyclohexa-3,5-diene-1,2-dione

> <PUBCHEM_IUPAC_NAME>
4-hydroxy-3-methoxy-6-methyl-5-[(2E,6E,10E,14E,18E,22E,26E,30E)-3,7,11,15,19,23,27,31,35-nonamethylhexatriaconta-2,6,10,14,18,22,26,30,34-nonaenyl]cyclohexa-3,5-diene-1,2-dione

> <PUBCHEM_IUPAC_SYSTEMATIC_NAME>
3-methoxy-6-methyl-5-[(2E,6E,10E,14E,18E,22E,26E,30E)-3,7,11,15,19,23,27,31,35-nonamethylhexatriaconta-2,6,10,14,18,22,26,30,34-nonaenyl]-4-oxidanyl-cyclohexa-3,5-diene-1,2-dione

> <PUBCHEM_IUPAC_TRADITIONAL_NAME>
4-hydroxy-3-methoxy-6-methyl-5-[(2E,6E,10E,14E,18E,22E,26E,30E)-3,7,11,15,19,23,27,31,35-nonamethylhexatriaconta-2,6,10,14,18,22,26,30,34-nonaenyl]-o-benzoquinone

> <PUBCHEM_IUPAC_INCHI>
InChI=1S/C53H80O4/c1-39(2)21-13-22-40(3)23-14-24-41(4)25-15-26-42(5)27-16-28-43(6)29-17-30-44(7)31-18-32-45(8)33-19-34-46(9)35-20-36-47(10)37-38-49-48(11)50(54)52(56)53(57-12)51(49)55/h21,23,25,27,29,31,33,35,37,55H,13-20,22,24,26,28,30,32,34,36,38H2,1-12H3/b40-23+,41-25+,42-27+,43-29+,44-31+,45-33+,46-35+,47-37+

> <PUBCHEM_IUPAC_INCHIKEY>
LZKVMWWDBKAUIK-NSCWJZNLSA-N

> <PUBCHEM_XLOGP3_AA>
16.6

> <PUBCHEM_EXACT_MASS>
780.605661

> <PUBCHEM_MOLECULAR_FORMULA>
C53H80O4

> <PUBCHEM_MOLECULAR_WEIGHT>
781.1999

> <PUBCHEM_OPENEYE_CAN_SMILES>
CC1=C(C(=C(C(=O)C1=O)OC)O)CC=C(C)CCC=C(C)CCC=C(C)CCC=C(C)CCC=C(C)CCC=C(C)CCC=C(C)CCC=C(C)CCC=C(C)C

> <PUBCHEM_OPENEYE_ISO_SMILES>
CC1=C(C(=C(C(=O)C1=O)OC)O)C/C=C(\C)/CC/C=C(\C)/CC/C=C(\C)/CC/C=C(\C)/CC/C=C(\C)/CC/C=C(\C)/CC/C=C(\C)/CC/C=C(\C)/CCC=C(C)C

> <PUBCHEM_CACTVS_TPSA>
63.6

> <PUBCHEM_MONOISOTOPIC_WEIGHT>
780.605661

> <PUBCHEM_TOTAL_CHARGE>
0

> <PUBCHEM_HEAVY_ATOM_COUNT>
57

> <PUBCHEM_ATOM_DEF_STEREO_COUNT>
0

> <PUBCHEM_ATOM_UDEF_STEREO_COUNT>
0

> <PUBCHEM_BOND_DEF_STEREO_COUNT>
8

> <PUBCHEM_BOND_UDEF_STEREO_COUNT>
0

> <PUBCHEM_ISOTOPIC_ATOM_COUNT>
0

> <PUBCHEM_COMPONENT_COUNT>
1

> <PUBCHEM_CACTVS_TAUTO_COUNT>
128

> <PUBCHEM_COORDINATE_TYPE>
1
5
255

$$$$

