6435894
  -OEChem-07051213132D

 60 61  0     1  0  0  0  0  0999 V2000
    5.3311   -2.2620    0.0000 O   0  0  0  0  0  0  0  0  0  0  0  0
    3.8225   -4.0221    0.0000 O   0  0  0  0  0  0  0  0  0  0  0  0
    2.8978   -0.6650    0.0000 O   0  0  0  0  0  0  0  0  0  0  0  0
    4.1638   -0.0563    0.0000 O   0  0  0  0  0  0  0  0  0  0  0  0
    2.0000   -5.2411    0.0000 O   0  0  0  0  0  0  0  0  0  0  0  0
   12.4255    4.9180    0.0000 O   0  0  0  0  0  0  0  0  0  0  0  0
   10.7979    5.5104    0.0000 O   0  0  0  0  0  0  0  0  0  0  0  0
    2.9257   -2.2620    0.0000 N   0  0  0  0  0  0  0  0  0  0  0  0
    4.4646   -2.7620    0.0000 C   0  0  2  0  0  0  0  0  0  0  0  0
    4.4646   -1.7620    0.0000 C   0  0  1  0  0  0  0  0  0  0  0  0
    3.5135   -3.0710    0.0000 C   0  0  2  0  0  0  0  0  0  0  0  0
    3.5135   -1.4530    0.0000 C   0  0  0  0  0  0  0  0  0  0  0  0
    2.7045   -3.6588    0.0000 C   0  0  0  0  0  0  0  0  0  0  0  0
    4.8066   -0.8223    0.0000 C   0  0  0  0  0  0  0  0  0  0  0  0
    2.8090   -4.6533    0.0000 C   0  0  0  0  0  0  0  0  0  0  0  0
    5.7914   -0.6487    0.0000 C   0  0  0  0  0  0  0  0  0  0  0  0
    6.4342   -1.4147    0.0000 C   0  0  0  0  0  0  0  0  0  0  0  0
    6.1334    0.2910    0.0000 C   0  0  0  0  0  0  0  0  0  0  0  0
    7.1182    0.4647    0.0000 C   0  0  0  0  0  0  0  0  0  0  0  0
    7.4602    1.4044    0.0000 C   0  0  0  0  0  0  0  0  0  0  0  0
    8.4450    1.5780    0.0000 C   0  0  0  0  0  0  0  0  0  0  0  0
    9.0878    0.8120    0.0000 C   0  0  0  0  0  0  0  0  0  0  0  0
    8.7871    2.5177    0.0000 C   0  0  0  0  0  0  0  0  0  0  0  0
    9.7719    2.6914    0.0000 C   0  0  0  0  0  0  0  0  0  0  0  0
   10.4147    1.9253    0.0000 C   0  0  0  0  0  0  0  0  0  0  0  0
   10.1139    3.6310    0.0000 C   0  0  0  0  0  0  0  0  0  0  0  0
   11.0987    3.8047    0.0000 C   0  0  0  0  0  0  0  0  0  0  0  0
   11.7415    3.0386    0.0000 C   0  0  0  0  0  0  0  0  0  0  0  0
   11.4407    4.7444    0.0000 C   0  0  0  0  0  0  0  0  0  0  0  0
   11.3995    2.0990    0.0000 C   0  0  0  0  0  0  0  0  0  0  0  0
   12.7675    5.8577    0.0000 C   0  0  0  0  0  0  0  0  0  0  0  0
    4.8102   -3.5386    0.0000 H   0  0  0  0  0  0  0  0  0  0  0  0
    2.3057   -2.2620    0.0000 H   0  0  0  0  0  0  0  0  0  0  0  0
    2.4327   -3.1016    0.0000 H   0  0  0  0  0  0  0  0  0  0  0  0
    2.1085   -3.8297    0.0000 H   0  0  0  0  0  0  0  0  0  0  0  0
    4.4290   -4.1510    0.0000 H   0  0  0  0  0  0  0  0  0  0  0  0
    3.0808   -5.2106    0.0000 H   0  0  0  0  0  0  0  0  0  0  0  0
    3.4050   -4.4824    0.0000 H   0  0  0  0  0  0  0  0  0  0  0  0
    5.9592   -1.8132    0.0000 H   0  0  0  0  0  0  0  0  0  0  0  0
    6.8327   -1.8897    0.0000 H   0  0  0  0  0  0  0  0  0  0  0  0
    6.9091   -1.0162    0.0000 H   0  0  0  0  0  0  0  0  0  0  0  0
    5.7349    0.7660    0.0000 H   0  0  0  0  0  0  0  0  0  0  0  0
    2.0648   -5.8577    0.0000 H   0  0  0  0  0  0  0  0  0  0  0  0
    7.5168   -0.0103    0.0000 H   0  0  0  0  0  0  0  0  0  0  0  0
    7.0617    1.8793    0.0000 H   0  0  0  0  0  0  0  0  0  0  0  0
    8.6129    0.4134    0.0000 H   0  0  0  0  0  0  0  0  0  0  0  0
    9.4864    0.3370    0.0000 H   0  0  0  0  0  0  0  0  0  0  0  0
    9.5628    1.2105    0.0000 H   0  0  0  0  0  0  0  0  0  0  0  0
    8.3885    2.9926    0.0000 H   0  0  0  0  0  0  0  0  0  0  0  0
    9.9397    1.5268    0.0000 H   0  0  0  0  0  0  0  0  0  0  0  0
   10.8132    1.4504    0.0000 H   0  0  0  0  0  0  0  0  0  0  0  0
   10.8896    2.3238    0.0000 H   0  0  0  0  0  0  0  0  0  0  0  0
    9.7154    4.1060    0.0000 H   0  0  0  0  0  0  0  0  0  0  0  0
   12.3521    3.1463    0.0000 H   0  0  0  0  0  0  0  0  0  0  0  0
   10.8169    2.3110    0.0000 H   0  0  0  0  0  0  0  0  0  0  0  0
   11.1874    1.5164    0.0000 H   0  0  0  0  0  0  0  0  0  0  0  0
   11.9821    1.8869    0.0000 H   0  0  0  0  0  0  0  0  0  0  0  0
   13.3502    5.6457    0.0000 H   0  0  0  0  0  0  0  0  0  0  0  0
   12.9796    6.4403    0.0000 H   0  0  0  0  0  0  0  0  0  0  0  0
   12.1849    6.0698    0.0000 H   0  0  0  0  0  0  0  0  0  0  0  0
  1  9  1  0  0  0  0
  1 10  1  0  0  0  0
 11  2  1  6  0  0  0
  2 36  1  0  0  0  0
  3 12  2  0  0  0  0
  4 14  2  0  0  0  0
  5 15  1  0  0  0  0
  5 43  1  0  0  0  0
  6 29  1  0  0  0  0
  6 31  1  0  0  0  0
  7 29  2  0  0  0  0
  8 11  1  0  0  0  0
  8 12  1  0  0  0  0
  8 33  1  0  0  0  0
  9 10  1  0  0  0  0
  9 11  1  0  0  0  0
  9 32  1  6  0  0  0
 10 12  1  0  0  0  0
 10 14  1  6  0  0  0
 11 13  1  0  0  0  0
 13 15  1  0  0  0  0
 13 34  1  0  0  0  0
 13 35  1  0  0  0  0
 14 16  1  0  0  0  0
 15 37  1  0  0  0  0
 15 38  1  0  0  0  0
 16 17  1  0  0  0  0
 16 18  2  0  0  0  0
 17 39  1  0  0  0  0
 17 40  1  0  0  0  0
 17 41  1  0  0  0  0
 18 19  1  0  0  0  0
 18 42  1  0  0  0  0
 19 20  2  0  0  0  0
 19 44  1  0  0  0  0
 20 21  1  0  0  0  0
 20 45  1  0  0  0  0
 21 22  1  0  0  0  0
 21 23  2  0  0  0  0
 22 46  1  0  0  0  0
 22 47  1  0  0  0  0
 22 48  1  0  0  0  0
 23 24  1  0  0  0  0
 23 49  1  0  0  0  0
 24 25  1  0  0  0  0
 24 26  2  0  0  0  0
 25 50  1  0  0  0  0
 25 51  1  0  0  0  0
 25 52  1  0  0  0  0
 26 27  1  0  0  0  0
 26 53  1  0  0  0  0
 27 28  2  0  0  0  0
 27 29  1  0  0  0  0
 28 30  1  0  0  0  0
 28 54  1  0  0  0  0
 30 55  1  0  0  0  0
 30 56  1  0  0  0  0
 30 57  1  0  0  0  0
 31 58  1  0  0  0  0
 31 59  1  0  0  0  0
 31 60  1  0  0  0  0
M  END
> <PUBCHEM_COMPOUND_CID>
6435894

> <PUBCHEM_COMPOUND_CANONICALIZED>
1

> <PUBCHEM_CACTVS_COMPLEXITY>
924

> <PUBCHEM_CACTVS_HBOND_ACCEPTOR>
7

> <PUBCHEM_CACTVS_HBOND_DONOR>
3

> <PUBCHEM_CACTVS_ROTATABLE_BOND>
10

> <PUBCHEM_CACTVS_SUBSKEYS>
AAADceB6OAAAAAAAAAAAAAAAEgAAAWAAAAAsAAAAAAAAAAAAAAAAHgAQCAAADFyhgAICCALABgCIAqHSGAIAAAAgAAAICAFAAEkLFB4IoQQHUAAH9ACboYP+6LQOAAAAAAAAAAAAAAAAAAAAAAAAAAAAAA==

> <PUBCHEM_IUPAC_OPENEYE_NAME>
methyl (2E,3E,5E,7E,9E)-2-ethylidene-11-[(1R,2S,5R)-2-hydroxy-2-(2-hydroxyethyl)-4-oxo-6-oxa-3-azabicyclo[3.1.0]hexan-5-yl]-4,6,10-trimethyl-11-oxo-undeca-3,5,7,9-tetraenoate

> <PUBCHEM_IUPAC_CAS_NAME>
(2E,3E,5E,7E,9E)-2-ethylidene-11-[(1R,2S,5R)-2-hydroxy-2-(2-hydroxyethyl)-4-oxo-6-oxa-3-azabicyclo[3.1.0]hexan-5-yl]-4,6,10-trimethyl-11-oxoundeca-3,5,7,9-tetraenoic acid methyl ester

> <PUBCHEM_IUPAC_NAME>
methyl (2E,3E,5E,7E,9E)-2-ethylidene-11-[(1R,2S,5R)-2-hydroxy-2-(2-hydroxyethyl)-4-oxo-6-oxa-3-azabicyclo[3.1.0]hexan-5-yl]-4,6,10-trimethyl-11-oxoundeca-3,5,7,9-tetraenoate

> <PUBCHEM_IUPAC_SYSTEMATIC_NAME>
methyl (2E,3E,5E,7E,9E)-2-ethylidene-11-[(1R,2S,5R)-2-(2-hydroxyethyl)-2-oxidanyl-4-oxidanylidene-6-oxa-3-azabicyclo[3.1.0]hexan-5-yl]-4,6,10-trimethyl-11-oxidanylidene-undeca-3,5,7,9-tetraenoate

> <PUBCHEM_IUPAC_TRADITIONAL_NAME>
(2E,3E,5E,7E,9E)-2-ethylidene-11-[(1R,2S,5R)-2-hydroxy-2-(2-hydroxyethyl)-4-keto-6-oxa-3-azabicyclo[3.1.0]hexan-5-yl]-11-keto-4,6,10-trimethyl-undeca-3,5,7,9-tetraenoic acid methyl ester

> <PUBCHEM_IUPAC_INCHI>
InChI=1S/C23H29NO7/c1-6-17(19(27)30-5)13-15(3)12-14(2)8-7-9-16(4)18(26)23-20(31-23)22(29,10-11-25)24-21(23)28/h6-9,12-13,20,25,29H,10-11H2,1-5H3,(H,24,28)/b8-7+,14-12+,15-13+,16-9+,17-6+/t20-,22-,23-/m0/s1

> <PUBCHEM_IUPAC_INCHIKEY>
FZFYFSUIOSWLHW-UNZVFGKVSA-N

> <PUBCHEM_XLOGP3_AA>
3

> <PUBCHEM_EXACT_MASS>
431.194402

> <PUBCHEM_MOLECULAR_FORMULA>
C23H29NO7

> <PUBCHEM_MOLECULAR_WEIGHT>
431.47886

> <PUBCHEM_OPENEYE_CAN_SMILES>
CC=C(C=C(C)C=C(C)C=CC=C(C)C(=O)C12C(O1)C(NC2=O)(CCO)O)C(=O)OC

> <PUBCHEM_OPENEYE_ISO_SMILES>
C/C=C(\C=C(/C)\C=C(/C)\C=C\C=C(/C)\C(=O)[C@@]12[C@@H](O1)[C@](NC2=O)(CCO)O)/C(=O)OC

> <PUBCHEM_CACTVS_TPSA>
126

> <PUBCHEM_MONOISOTOPIC_WEIGHT>
431.194402

> <PUBCHEM_TOTAL_CHARGE>
0

> <PUBCHEM_HEAVY_ATOM_COUNT>
31

> <PUBCHEM_ATOM_DEF_STEREO_COUNT>
3

> <PUBCHEM_ATOM_UDEF_STEREO_COUNT>
0

> <PUBCHEM_BOND_DEF_STEREO_COUNT>
5

> <PUBCHEM_BOND_UDEF_STEREO_COUNT>
0

> <PUBCHEM_ISOTOPIC_ATOM_COUNT>
0

> <PUBCHEM_COMPONENT_COUNT>
1

> <PUBCHEM_CACTVS_TAUTO_COUNT>
2

> <PUBCHEM_COORDINATE_TYPE>
1
5
255

> <PUBCHEM_BONDANNOTATIONS>
10  14  6
11  2  6
9  32  6

$$$$

