62274
  -OEChem-07051213132D

 28 30  0     0  0  0  0  0  0999 V2000
    3.8936   -1.0894    0.0000 N   0  0  0  0  0  0  0  0  0  0  0  0
    3.8936    0.5201    0.0000 N   0  0  0  0  0  0  0  0  0  0  0  0
    7.4819    0.7222    0.0000 N   0  0  0  0  0  0  0  0  0  0  0  0
    2.3100   -0.2846    0.0000 N   0  0  0  0  0  0  0  0  0  0  0  0
    4.8398   -0.7846    0.0000 C   0  0  0  0  0  0  0  0  0  0  0  0
    4.8398    0.2154    0.0000 C   0  0  0  0  0  0  0  0  0  0  0  0
    5.7058   -1.2846    0.0000 C   0  0  0  0  0  0  0  0  0  0  0  0
    5.7058    0.7154    0.0000 C   0  0  0  0  0  0  0  0  0  0  0  0
    6.5719    0.2154    0.0000 C   0  0  0  0  0  0  0  0  0  0  0  0
    6.5719   -0.7846    0.0000 C   0  0  0  0  0  0  0  0  0  0  0  0
    3.3100   -0.2846    0.0000 C   0  0  0  0  0  0  0  0  0  0  0  0
    3.5830   -2.0399    0.0000 C   0  0  0  0  0  0  0  0  0  0  0  0
    5.7058   -2.2846    0.0000 C   0  0  0  0  0  0  0  0  0  0  0  0
    5.6898    1.7569    0.0000 C   0  0  0  0  0  0  0  0  0  0  0  0
    6.5878    2.2846    0.0000 C   0  0  0  0  0  0  0  0  0  0  0  0
    7.4899    1.7638    0.0000 C   0  0  0  0  0  0  0  0  0  0  0  0
    7.1088   -1.0946    0.0000 H   0  0  0  0  0  0  0  0  0  0  0  0
    2.9936   -1.8473    0.0000 H   0  0  0  0  0  0  0  0  0  0  0  0
    3.3903   -2.6292    0.0000 H   0  0  0  0  0  0  0  0  0  0  0  0
    4.1723   -2.2325    0.0000 H   0  0  0  0  0  0  0  0  0  0  0  0
    5.0858   -2.2846    0.0000 H   0  0  0  0  0  0  0  0  0  0  0  0
    5.7058   -2.9046    0.0000 H   0  0  0  0  0  0  0  0  0  0  0  0
    6.3258   -2.2846    0.0000 H   0  0  0  0  0  0  0  0  0  0  0  0
    5.1493    2.0606    0.0000 H   0  0  0  0  0  0  0  0  0  0  0  0
    6.5854    2.9046    0.0000 H   0  0  0  0  0  0  0  0  0  0  0  0
    2.0000    0.2523    0.0000 H   0  0  0  0  0  0  0  0  0  0  0  0
    2.0000   -0.8216    0.0000 H   0  0  0  0  0  0  0  0  0  0  0  0
    8.0280    2.0717    0.0000 H   0  0  0  0  0  0  0  0  0  0  0  0
  1  5  1  0  0  0  0
  1 11  1  0  0  0  0
  1 12  1  0  0  0  0
  2  6  1  0  0  0  0
  2 11  2  0  0  0  0
  3  9  1  0  0  0  0
  3 16  2  0  0  0  0
  4 11  1  0  0  0  0
  4 26  1  0  0  0  0
  4 27  1  0  0  0  0
  5  6  2  0  0  0  0
  5  7  1  0  0  0  0
  6  8  1  0  0  0  0
  7 10  2  0  0  0  0
  7 13  1  0  0  0  0
  8  9  2  0  0  0  0
  8 14  1  0  0  0  0
  9 10  1  0  0  0  0
 10 17  1  0  0  0  0
 12 18  1  0  0  0  0
 12 19  1  0  0  0  0
 12 20  1  0  0  0  0
 13 21  1  0  0  0  0
 13 22  1  0  0  0  0
 13 23  1  0  0  0  0
 14 15  2  0  0  0  0
 14 24  1  0  0  0  0
 15 16  1  0  0  0  0
 15 25  1  0  0  0  0
 16 28  1  0  0  0  0
M  END
> <PUBCHEM_COMPOUND_CID>
62274

> <PUBCHEM_COMPOUND_CANONICALIZED>
1

> <PUBCHEM_CACTVS_COMPLEXITY>
270

> <PUBCHEM_CACTVS_HBOND_ACCEPTOR>
3

> <PUBCHEM_CACTVS_HBOND_DONOR>
1

> <PUBCHEM_CACTVS_ROTATABLE_BOND>
0

> <PUBCHEM_CACTVS_SUBSKEYS>
AAADccBzgAAAAAAAAAAAAAAAAAAAAWAAAAA8QAAAAAAAAFix/gAAHAAQAAAADAjBHgQ/0PdMEACgAzRnZACCgC0xEqAJ2CA4dJiIaOLA2dGUJAhogALIyCcQgMAOQACAQAQCACCAAQCACAQAQAAAAAAAAA==

> <PUBCHEM_IUPAC_OPENEYE_NAME>
3,4-dimethylimidazo[4,5-f]quinolin-2-amine

> <PUBCHEM_IUPAC_CAS_NAME>
3,4-dimethyl-2-imidazo[4,5-f]quinolinamine

> <PUBCHEM_IUPAC_NAME>
3,4-dimethylimidazo[4,5-f]quinolin-2-amine

> <PUBCHEM_IUPAC_SYSTEMATIC_NAME>
3,4-dimethylimidazo[4,5-f]quinolin-2-amine

> <PUBCHEM_IUPAC_TRADITIONAL_NAME>
(3,4-dimethylimidazo[4,5-f]quinolin-2-yl)amine

> <PUBCHEM_IUPAC_INCHI>
InChI=1S/C12H12N4/c1-7-6-9-8(4-3-5-14-9)10-11(7)16(2)12(13)15-10/h3-6H,1-2H3,(H2,13,15)

> <PUBCHEM_IUPAC_INCHIKEY>
GMGWMIJIGUYNAY-UHFFFAOYSA-N

> <PUBCHEM_XLOGP3>
2

> <PUBCHEM_EXACT_MASS>
212.106196

> <PUBCHEM_MOLECULAR_FORMULA>
C12H12N4

> <PUBCHEM_MOLECULAR_WEIGHT>
212.25048

> <PUBCHEM_OPENEYE_CAN_SMILES>
CC1=CC2=C(C=CC=N2)C3=C1N(C(=N3)N)C

> <PUBCHEM_OPENEYE_ISO_SMILES>
CC1=CC2=C(C=CC=N2)C3=C1N(C(=N3)N)C

> <PUBCHEM_CACTVS_TPSA>
56.7

> <PUBCHEM_MONOISOTOPIC_WEIGHT>
212.106196

> <PUBCHEM_TOTAL_CHARGE>
0

> <PUBCHEM_HEAVY_ATOM_COUNT>
16

> <PUBCHEM_ATOM_DEF_STEREO_COUNT>
0

> <PUBCHEM_ATOM_UDEF_STEREO_COUNT>
0

> <PUBCHEM_BOND_DEF_STEREO_COUNT>
0

> <PUBCHEM_BOND_UDEF_STEREO_COUNT>
0

> <PUBCHEM_ISOTOPIC_ATOM_COUNT>
0

> <PUBCHEM_COMPONENT_COUNT>
1

> <PUBCHEM_CACTVS_TAUTO_COUNT>
8

> <PUBCHEM_COORDINATE_TYPE>
1
5
255

> <PUBCHEM_BONDANNOTATIONS>
1  11  8
1  5  8
14  15  8
15  16  8
2  11  8
2  6  8
3  16  8
3  9  8
5  6  8
5  7  8
6  8  8
7  10  8
8  14  8
8  9  8
9  10  8

$$$$

