25137931
  -OEChem-07051213092D

 37 38  0     1  0  0  0  0  0999 V2000
    7.2437    1.6132    0.0000 O   0  0  0  0  0  0  0  0  0  0  0  0
    5.6915    3.6836    0.0000 O   0  0  0  0  0  0  0  0  0  0  0  0
    7.8195    4.1359    0.0000 O   0  0  0  0  0  0  0  0  0  0  0  0
    8.9073    2.2518    0.0000 O   0  0  0  0  0  0  0  0  0  0  0  0
    3.7320    0.5199    0.0000 O   0  0  0  0  0  0  0  0  0  0  0  0
    2.8660   -3.9800    0.0000 O   0  0  0  0  0  0  0  0  0  0  0  0
    2.0000   -2.4800    0.0000 O   0  0  0  0  0  0  0  0  0  0  0  0
    6.3301    2.0200    0.0000 C   0  0  1  0  0  0  0  0  0  0  0  0
    6.4347    3.0145    0.0000 C   0  0  2  0  0  0  0  0  0  0  0  0
    7.4128    3.2224    0.0000 C   0  0  2  0  0  0  0  0  0  0  0  0
    7.9128    2.3564    0.0000 C   0  0  3  0  0  0  0  0  0  0  0  0
    5.4641    1.5200    0.0000 C   0  0  0  0  0  0  0  0  0  0  0  0
    5.4641    0.5199    0.0000 C   0  0  0  0  0  0  0  0  0  0  0  0
    4.5981    0.0199    0.0000 C   0  0  0  0  0  0  0  0  0  0  0  0
    4.5981   -0.9801    0.0000 C   0  0  0  0  0  0  0  0  0  0  0  0
    3.7320   -1.4800    0.0000 C   0  0  0  0  0  0  0  0  0  0  0  0
    5.4641   -1.4800    0.0000 C   0  0  0  0  0  0  0  0  0  0  0  0
    3.7320   -2.4800    0.0000 C   0  0  0  0  0  0  0  0  0  0  0  0
    5.4641   -2.4800    0.0000 C   0  0  0  0  0  0  0  0  0  0  0  0
    4.5981   -2.9800    0.0000 C   0  0  0  0  0  0  0  0  0  0  0  0
    2.8660   -2.9800    0.0000 C   0  0  0  0  0  0  0  0  0  0  0  0
    6.3626    1.4008    0.0000 H   0  0  0  0  0  0  0  0  0  0  0  0
    6.5951    3.6133    0.0000 H   0  0  0  0  0  0  0  0  0  0  0  0
    8.0320    3.2548    0.0000 H   0  0  0  0  0  0  0  0  0  0  0  0
    8.2174    1.5628    0.0000 H   0  0  0  0  0  0  0  0  0  0  0  0
    5.2520    2.1026    0.0000 H   0  0  0  0  0  0  0  0  0  0  0  0
    4.8535    1.4123    0.0000 H   0  0  0  0  0  0  0  0  0  0  0  0
    5.6762   -0.0627    0.0000 H   0  0  0  0  0  0  0  0  0  0  0  0
    6.0747    0.6276    0.0000 H   0  0  0  0  0  0  0  0  0  0  0  0
    5.8204    4.2900    0.0000 H   0  0  0  0  0  0  0  0  0  0  0  0
    8.4361    4.2007    0.0000 H   0  0  0  0  0  0  0  0  0  0  0  0
    9.1595    1.6854    0.0000 H   0  0  0  0  0  0  0  0  0  0  0  0
    3.1951   -1.1700    0.0000 H   0  0  0  0  0  0  0  0  0  0  0  0
    6.0010   -1.1700    0.0000 H   0  0  0  0  0  0  0  0  0  0  0  0
    6.0010   -2.7900    0.0000 H   0  0  0  0  0  0  0  0  0  0  0  0
    4.5981   -3.6000    0.0000 H   0  0  0  0  0  0  0  0  0  0  0  0
    2.3291   -4.2900    0.0000 H   0  0  0  0  0  0  0  0  0  0  0  0
  1  8  1  0  0  0  0
  1 11  1  0  0  0  0
  9  2  1  1  0  0  0
  2 30  1  0  0  0  0
 10  3  1  1  0  0  0
  3 31  1  0  0  0  0
  4 11  1  0  0  0  0
  4 32  1  0  0  0  0
  5 14  2  0  0  0  0
  6 21  1  0  0  0  0
  6 37  1  0  0  0  0
  7 21  2  0  0  0  0
  8  9  1  0  0  0  0
  8 12  1  6  0  0  0
  8 22  1  0  0  0  0
  9 10  1  0  0  0  0
  9 23  1  0  0  0  0
 10 11  1  0  0  0  0
 10 24  1  0  0  0  0
 11 25  1  0  0  0  0
 12 13  1  0  0  0  0
 12 26  1  0  0  0  0
 12 27  1  0  0  0  0
 13 14  1  0  0  0  0
 13 28  1  0  0  0  0
 13 29  1  0  0  0  0
 14 15  1  0  0  0  0
 15 16  2  0  0  0  0
 15 17  1  0  0  0  0
 16 18  1  0  0  0  0
 16 33  1  0  0  0  0
 17 19  2  0  0  0  0
 17 34  1  0  0  0  0
 18 20  2  0  0  0  0
 18 21  1  0  0  0  0
 19 20  1  0  0  0  0
 19 35  1  0  0  0  0
 20 36  1  0  0  0  0
M  END
> <PUBCHEM_COMPOUND_CID>
25137931

> <PUBCHEM_COMPOUND_CANONICALIZED>
1

> <PUBCHEM_CACTVS_COMPLEXITY>
397

> <PUBCHEM_CACTVS_HBOND_ACCEPTOR>
7

> <PUBCHEM_CACTVS_HBOND_DONOR>
4

> <PUBCHEM_CACTVS_ROTATABLE_BOND>
5

> <PUBCHEM_CACTVS_SUBSKEYS>
AAADceBwOAAAAAAAAAAAAAAAAAAAASAAAAAwAAAAAAAAAAABAAAAGgAACAAADBSwmAMwCIAABgCIAqDSCAACAAAkAAAIiAEACMgZNjKAFRCCcQAlwAEPmYfKzvDuAAACAAAAAAAAAAQAAAAAAAAAAAAAAA==

> <PUBCHEM_IUPAC_OPENEYE_NAME>
3-[3-[(2R,3S,4R)-3,4,5-trihydroxytetrahydrofuran-2-yl]propanoyl]benzoic acid

> <PUBCHEM_IUPAC_CAS_NAME>
3-[1-oxo-3-[(2R,3S,4R)-3,4,5-trihydroxy-2-oxolanyl]propyl]benzoic acid

> <PUBCHEM_IUPAC_NAME>
3-[3-[(2R,3S,4R)-3,4,5-trihydroxyoxolan-2-yl]propanoyl]benzoic acid

> <PUBCHEM_IUPAC_SYSTEMATIC_NAME>
3-[3-[(2R,3S,4R)-3,4,5-tris(oxidanyl)oxolan-2-yl]propanoyl]benzoic acid

> <PUBCHEM_IUPAC_TRADITIONAL_NAME>
3-[3-[(2R,3S,4R)-3,4,5-trihydroxytetrahydrofuran-2-yl]propanoyl]benzoic acid

> <PUBCHEM_IUPAC_INCHI>
InChI=1S/C14H16O7/c15-9(7-2-1-3-8(6-7)13(18)19)4-5-10-11(16)12(17)14(20)21-10/h1-3,6,10-12,14,16-17,20H,4-5H2,(H,18,19)/t10-,11-,12-,14?/m1/s1

> <PUBCHEM_IUPAC_INCHIKEY>
XWPBBHHZDYSYMS-ZXRVKKJVSA-N

> <PUBCHEM_XLOGP3_AA>
-0.6

> <PUBCHEM_EXACT_MASS>
296.089603

> <PUBCHEM_MOLECULAR_FORMULA>
C14H16O7

> <PUBCHEM_MOLECULAR_WEIGHT>
296.27264

> <PUBCHEM_OPENEYE_CAN_SMILES>
C1=CC(=CC(=C1)C(=O)O)C(=O)CCC2C(C(C(O2)O)O)O

> <PUBCHEM_OPENEYE_ISO_SMILES>
C1=CC(=CC(=C1)C(=O)O)C(=O)CC[C@@H]2[C@H]([C@H](C(O2)O)O)O

> <PUBCHEM_CACTVS_TPSA>
124

> <PUBCHEM_MONOISOTOPIC_WEIGHT>
296.089603

> <PUBCHEM_TOTAL_CHARGE>
0

> <PUBCHEM_HEAVY_ATOM_COUNT>
21

> <PUBCHEM_ATOM_DEF_STEREO_COUNT>
3

> <PUBCHEM_ATOM_UDEF_STEREO_COUNT>
1

> <PUBCHEM_BOND_DEF_STEREO_COUNT>
0

> <PUBCHEM_BOND_UDEF_STEREO_COUNT>
0

> <PUBCHEM_ISOTOPIC_ATOM_COUNT>
0

> <PUBCHEM_COMPONENT_COUNT>
1

> <PUBCHEM_CACTVS_TAUTO_COUNT>
2

> <PUBCHEM_COORDINATE_TYPE>
1
5
255

> <PUBCHEM_BONDANNOTATIONS>
11  25  3
15  16  8
15  17  8
16  18  8
17  19  8
18  20  8
19  20  8
9  2  5
10  3  5
8  12  6

$$$$

