   Color/Form

     * NEEDLES FROM ALC, PLATES FROM AQ ACETONE
     * ELONGATED PRISMS FROM BENZENE

   from [1]HSDB

   Melting Point
        213-214 DEG C, DECOMP
   from [2]HSDB

   Solubilities

     * SOL IN PYRIMIDINE
     * SOL IN ABOUT 70 PARTS METHANOL, 150 PARTS ACETONE, 300 PARTS
       ALCOHOL; FREELY SOL IN CHLOROFORM, PYRIDINE, GLACIAL ACETIC ACID;
       MODERATELY SOL IN ETHYL ACETATE; SLIGHTLY SOL IN BENZENE; ALMOST
       INSOL IN WATER, PETROLEUM ETHER

   from [3]HSDB

   Spectral Properties

     * SPECIFIC ROTATION: -160 DEG @ 20 DEG C/D (CHLOROFORM)
     * MAX ABSORPTION (ALC): 318 NM (LOG E= 3.86)
     * UV: 2-840 (Organic Electronic Spectral Data, Phillips et al, John
       Wiley & Sons, New York)

   from [4]HSDB

   Other Chemical/Physical Properties

     * VERY HYGROSCOPIC
     * DECOMP @ 200 DEG C /PHOSPHATE/
     * HEXAGONAL PLATES; MODERATELY SOL IN WATER; DECOMP @ 210 DEG C
       /METHANE SULFONATE/
     * HEAVY RHOMBIC PLATES FROM METHANOL; 1 G SOL IN 500 ML WATER OR 500
       ML ALC; MP: 203 DEG C, DECOMP; SPECIFIC ROTATION (C= 0.4 MIN
       CHLOROFORM): -125 TO -155 DEG @ 25 DEG C/D /TARTRATE/
     * RECTANGULAR PLATES FROM 90% ALCOHOL; MP: 212 DEG C, DECOMP; SOL IN
       WATER-ALCOHOL MIXTURE; SPARINGLY SOL IN WATER OR ALCOHOL
       /HYDROCHLORIDE/
     * RHOMBIC PLATES FROM 80% METHANOL; MP: 207 DEG C, DECOMP; SLIGHTLY
       SOL IN WATER /SULFATE/
     * SOLVATED CRYSTALS /TARTRATE DIMETHANOLATE/
     * COLORLESS CRYSTALS OR WHITE CRYSTALLINE POWDER, USUALLY CONTAINING
       SOLVENT OF CRYSTALLIZATION /TARTRATE NF/

   from [5]HSDB

   Computed Properties
   Molecular Weight                  581.6615 [g/mol]
   Molecular Formula                 C[33]H[35]N[5]O[5]
   XLogP3-AA                         2
   H-Bond Donor                      3
   H-Bond Acceptor                   6
   Rotatable Bond Count              4
   Tautomer Count                    8
   Exact Mass                        581.263819
   MonoIsotopic Mass                 581.263819
   Topological Polar Surface Area    118
   Heavy Atom Count                  43
   Formal Charge                     0
   Complexity                        1220
   Isotope Atom Count                0
   Defined Atom Stereocenter Count   4
   Undefined Atom Stereocenter Count 2
   Defined Bond Stereocenter Count   0
   Undefined Bond Stereocenter Count 0
   Covalently-Bonded Unit Count      1
   Feature 3D Acceptor Count         5
   Feature 3D Donor Count            3
   Feature 3D Cation Count           2
   Feature 3D Ring Count             8
   Effective Rotor Count             7
   Conformer Sampling RMSD           1
   CID Conformer Count               [6]83

References

   1. http://toxnet.nlm.nih.gov/cgi-bin/sis/search/r?dbs+hsdb:@term+@rn+@rel+113-15-5
   2. http://toxnet.nlm.nih.gov/cgi-bin/sis/search/r?dbs+hsdb:@term+@rn+@rel+113-15-5
   3. http://toxnet.nlm.nih.gov/cgi-bin/sis/search/r?dbs+hsdb:@term+@rn+@rel+113-15-5
   4. http://toxnet.nlm.nih.gov/cgi-bin/sis/search/r?dbs+hsdb:@term+@rn+@rel+113-15-5
   5. http://toxnet.nlm.nih.gov/cgi-bin/sis/search/r?dbs+hsdb:@term+@rn+@rel+113-15-5
   6. http://pubchem.ncbi.nlm.nih.gov/vw3d/vw3d.cgi?cid=11954224
