442853
  -OEChem-07051212592D

 40 42  0     1  0  0  0  0  0999 V2000
    3.3792    0.2175    0.0000 O   0  0  0  0  0  0  0  0  0  0  0  0
    6.2327   -1.1673    0.0000 O   0  0  0  0  0  0  0  0  0  0  0  0
    6.6940    0.5540    0.0000 N   0  0  0  0  0  0  0  0  0  0  0  0
    4.5772    2.8757    0.0000 N   0  0  0  0  0  0  0  0  0  0  0  0
    2.9945    2.5393    0.0000 N   0  0  0  0  0  0  0  0  0  0  0  0
    5.2158    1.2121    0.0000 C   0  0  1  0  0  0  0  0  0  0  0  0
    5.1113    0.2175    0.0000 C   0  0  2  0  0  0  0  0  0  0  0  0
    6.1940    1.4200    0.0000 C   0  0  0  0  0  0  0  0  0  0  0  0
    4.2453   -0.2825    0.0000 C   0  0  1  0  0  0  0  0  0  0  0  0
    6.0248   -0.1892    0.0000 C   0  0  0  0  0  0  0  0  0  0  0  0
    4.4727    1.8812    0.0000 C   0  0  0  0  0  0  0  0  0  0  0  0
    4.2453   -1.2825    0.0000 C   0  0  0  0  0  0  0  0  0  0  0  0
    7.6885    0.4494    0.0000 C   0  0  0  0  0  0  0  0  0  0  0  0
    3.4945    1.6733    0.0000 C   0  0  0  0  0  0  0  0  0  0  0  0
    3.3792   -1.7825    0.0000 C   0  0  0  0  0  0  0  0  0  0  0  0
    5.1113   -1.7825    0.0000 C   0  0  0  0  0  0  0  0  0  0  0  0
    3.6636    3.2825    0.0000 C   0  0  0  0  0  0  0  0  0  0  0  0
    2.0000    2.6438    0.0000 C   0  0  0  0  0  0  0  0  0  0  0  0
    3.3792   -2.7825    0.0000 C   0  0  0  0  0  0  0  0  0  0  0  0
    5.1113   -2.7825    0.0000 C   0  0  0  0  0  0  0  0  0  0  0  0
    4.2453   -3.2825    0.0000 C   0  0  0  0  0  0  0  0  0  0  0  0
    4.4223    0.9075    0.0000 H   0  0  0  0  0  0  0  0  0  0  0  0
    5.1558   -0.6313    0.0000 H   0  0  0  0  0  0  0  0  0  0  0  0
    6.7604    1.6722    0.0000 H   0  0  0  0  0  0  0  0  0  0  0  0
    6.0024    2.0096    0.0000 H   0  0  0  0  0  0  0  0  0  0  0  0
    3.7083   -0.5925    0.0000 H   0  0  0  0  0  0  0  0  0  0  0  0
    7.6237   -0.1672    0.0000 H   0  0  0  0  0  0  0  0  0  0  0  0
    8.3051    0.3846    0.0000 H   0  0  0  0  0  0  0  0  0  0  0  0
    7.7533    1.0660    0.0000 H   0  0  0  0  0  0  0  0  0  0  0  0
    3.2424    1.1069    0.0000 H   0  0  0  0  0  0  0  0  0  0  0  0
    2.8423   -0.0925    0.0000 H   0  0  0  0  0  0  0  0  0  0  0  0
    2.8423   -1.4725    0.0000 H   0  0  0  0  0  0  0  0  0  0  0  0
    5.6482   -1.4725    0.0000 H   0  0  0  0  0  0  0  0  0  0  0  0
    3.5348    3.8889    0.0000 H   0  0  0  0  0  0  0  0  0  0  0  0
    2.0648    3.2604    0.0000 H   0  0  0  0  0  0  0  0  0  0  0  0
    1.3834    2.7086    0.0000 H   0  0  0  0  0  0  0  0  0  0  0  0
    1.9352    2.0272    0.0000 H   0  0  0  0  0  0  0  0  0  0  0  0
    2.8423   -3.0925    0.0000 H   0  0  0  0  0  0  0  0  0  0  0  0
    5.6482   -3.0925    0.0000 H   0  0  0  0  0  0  0  0  0  0  0  0
    4.2453   -3.9025    0.0000 H   0  0  0  0  0  0  0  0  0  0  0  0
  9  1  1  1  0  0  0
  1 31  1  0  0  0  0
  2 10  2  0  0  0  0
  3  8  1  0  0  0  0
  3 10  1  0  0  0  0
  3 13  1  0  0  0  0
  4 11  1  0  0  0  0
  4 17  2  0  0  0  0
  5 14  1  0  0  0  0
  5 17  1  0  0  0  0
  5 18  1  0  0  0  0
  6  7  1  0  0  0  0
  6  8  1  0  0  0  0
  6 11  1  0  0  0  0
  6 22  1  1  0  0  0
  7  9  1  0  0  0  0
  7 10  1  0  0  0  0
  7 23  1  6  0  0  0
  8 24  1  0  0  0  0
  8 25  1  0  0  0  0
  9 12  1  0  0  0  0
  9 26  1  0  0  0  0
 11 14  2  0  0  0  0
 12 15  2  0  0  0  0
 12 16  1  0  0  0  0
 13 27  1  0  0  0  0
 13 28  1  0  0  0  0
 13 29  1  0  0  0  0
 14 30  1  0  0  0  0
 15 19  1  0  0  0  0
 15 32  1  0  0  0  0
 16 20  2  0  0  0  0
 16 33  1  0  0  0  0
 17 34  1  0  0  0  0
 18 35  1  0  0  0  0
 18 36  1  0  0  0  0
 18 37  1  0  0  0  0
 19 21  2  0  0  0  0
 19 38  1  0  0  0  0
 20 21  1  0  0  0  0
 20 39  1  0  0  0  0
 21 40  1  0  0  0  0
M  END
> <PUBCHEM_COMPOUND_CID>
442853

> <PUBCHEM_COMPOUND_CANONICALIZED>
1

> <PUBCHEM_CACTVS_COMPLEXITY>
384

> <PUBCHEM_CACTVS_HBOND_ACCEPTOR>
3

> <PUBCHEM_CACTVS_HBOND_DONOR>
1

> <PUBCHEM_CACTVS_ROTATABLE_BOND>
3

> <PUBCHEM_CACTVS_SUBSKEYS>
AAADceB7MAAAAAAAAAAAAAAAAAAAAWLAAAAwAAAAAAAAAAABwAAAHgAACAAADRzhngY/kJcMEgCoAzV3dAACgC0xEqAJ2AE4eIiIfjbA2RGUcAAu5gPI2Ce82eKOgAAAAAAAAAAAAAAAAAAAAAAAAAAAAA==

> <PUBCHEM_IUPAC_OPENEYE_NAME>
(3R,4S)-3-[(S)-hydroxy(phenyl)methyl]-1-methyl-4-(1-methylimidazol-4-yl)pyrrolidin-2-one

> <PUBCHEM_IUPAC_CAS_NAME>
(3R,4S)-3-[(S)-hydroxy(phenyl)methyl]-1-methyl-4-(1-methyl-4-imidazolyl)-2-pyrrolidinone

> <PUBCHEM_IUPAC_NAME>
(3R,4S)-3-[(S)-hydroxy(phenyl)methyl]-1-methyl-4-(1-methylimidazol-4-yl)pyrrolidin-2-one

> <PUBCHEM_IUPAC_SYSTEMATIC_NAME>
(3R,4S)-1-methyl-4-(1-methylimidazol-4-yl)-3-[(S)-oxidanyl(phenyl)methyl]pyrrolidin-2-one

> <PUBCHEM_IUPAC_TRADITIONAL_NAME>
(3R,4S)-3-[(S)-hydroxy(phenyl)methyl]-1-methyl-4-(1-methylimidazol-4-yl)-2-pyrrolidone

> <PUBCHEM_IUPAC_INCHI>
InChI=1S/C16H19N3O2/c1-18-9-13(17-10-18)12-8-19(2)16(21)14(12)15(20)11-6-4-3-5-7-11/h3-7,9-10,12,14-15,20H,8H2,1-2H3/t12-,14+,15+/m0/s1

> <PUBCHEM_IUPAC_INCHIKEY>
UJMVRXMFOYOOMI-NWANDNLSSA-N

> <PUBCHEM_XLOGP3_AA>
0.7

> <PUBCHEM_EXACT_MASS>
285.147727

> <PUBCHEM_MOLECULAR_FORMULA>
C16H19N3O2

> <PUBCHEM_MOLECULAR_WEIGHT>
285.34096

> <PUBCHEM_OPENEYE_CAN_SMILES>
CN1CC(C(C1=O)C(C2=CC=CC=C2)O)C3=CN(C=N3)C

> <PUBCHEM_OPENEYE_ISO_SMILES>
CN1C[C@H]([C@@H](C1=O)[C@@H](C2=CC=CC=C2)O)C3=CN(C=N3)C

> <PUBCHEM_CACTVS_TPSA>
58.4

> <PUBCHEM_MONOISOTOPIC_WEIGHT>
285.147727

> <PUBCHEM_TOTAL_CHARGE>
0

> <PUBCHEM_HEAVY_ATOM_COUNT>
21

> <PUBCHEM_ATOM_DEF_STEREO_COUNT>
3

> <PUBCHEM_ATOM_UDEF_STEREO_COUNT>
0

> <PUBCHEM_BOND_DEF_STEREO_COUNT>
0

> <PUBCHEM_BOND_UDEF_STEREO_COUNT>
0

> <PUBCHEM_ISOTOPIC_ATOM_COUNT>
0

> <PUBCHEM_COMPONENT_COUNT>
1

> <PUBCHEM_CACTVS_TAUTO_COUNT>
2

> <PUBCHEM_COORDINATE_TYPE>
1
5
255

> <PUBCHEM_BONDANNOTATIONS>
9  1  5
11  14  8
12  15  8
12  16  8
15  19  8
16  20  8
19  21  8
20  21  8
4  11  8
4  17  8
5  14  8
5  17  8
6  22  5
7  23  6

$$$$

