443634
  -OEChem-07051213022D

 35 37  0     1  0  0  0  0  0999 V2000
    7.2746    2.7346    0.0000 O   0  0  0  0  0  0  0  0  0  0  0  0
    2.0574   -2.3546    0.0000 O   0  0  0  0  0  0  0  0  0  0  0  0
    3.7894   -2.3346    0.0000 O   0  0  0  0  0  0  0  0  0  0  0  0
    4.6660    1.1900    0.0000 N   0  0  0  0  0  0  0  0  0  0  0  0
    4.6660   -0.8100    0.0000 N   0  0  0  0  0  0  0  0  0  0  0  0
    6.4260    1.2246    0.0000 C   0  0  0  0  0  0  0  0  0  0  0  0
    5.5321    0.6900    0.0000 C   0  0  0  0  0  0  0  0  0  0  0  0
    6.4144    2.2246    0.0000 C   0  0  3  0  0  0  0  0  0  0  0  0
    5.5321   -0.3100    0.0000 C   0  0  0  0  0  0  0  0  0  0  0  0
    3.8000   -0.3100    0.0000 C   0  0  0  0  0  0  0  0  0  0  0  0
    3.8000    0.6900    0.0000 C   0  0  0  0  0  0  0  0  0  0  0  0
    7.3321    0.7108    0.0000 C   0  0  0  0  0  0  0  0  0  0  0  0
    6.4260   -0.8447    0.0000 C   0  0  0  0  0  0  0  0  0  0  0  0
    2.9061   -0.8447    0.0000 C   0  0  0  0  0  0  0  0  0  0  0  0
    7.3321   -0.3308    0.0000 C   0  0  0  0  0  0  0  0  0  0  0  0
    5.5427    2.7145    0.0000 C   0  0  0  0  0  0  0  0  0  0  0  0
    2.9061    1.2246    0.0000 C   0  0  0  0  0  0  0  0  0  0  0  0
    2.0000   -0.3308    0.0000 C   0  0  0  0  0  0  0  0  0  0  0  0
    2.0000    0.7108    0.0000 C   0  0  0  0  0  0  0  0  0  0  0  0
    2.9176   -1.8446    0.0000 C   0  0  0  0  0  0  0  0  0  0  0  0
    2.0690   -3.3545    0.0000 C   0  0  0  0  0  0  0  0  0  0  0  0
    6.9549    1.9208    0.0000 H   0  0  0  0  0  0  0  0  0  0  0  0
    7.8678    1.0229    0.0000 H   0  0  0  0  0  0  0  0  0  0  0  0
    6.4188   -1.4646    0.0000 H   0  0  0  0  0  0  0  0  0  0  0  0
    7.8678   -0.6429    0.0000 H   0  0  0  0  0  0  0  0  0  0  0  0
    5.8465    3.2550    0.0000 H   0  0  0  0  0  0  0  0  0  0  0  0
    5.0022    3.0183    0.0000 H   0  0  0  0  0  0  0  0  0  0  0  0
    5.2389    2.1740    0.0000 H   0  0  0  0  0  0  0  0  0  0  0  0
    2.9132    1.8446    0.0000 H   0  0  0  0  0  0  0  0  0  0  0  0
    1.4643   -0.6429    0.0000 H   0  0  0  0  0  0  0  0  0  0  0  0
    1.4643    1.0229    0.0000 H   0  0  0  0  0  0  0  0  0  0  0  0
    7.2674    3.3545    0.0000 H   0  0  0  0  0  0  0  0  0  0  0  0
    1.4490   -3.3617    0.0000 H   0  0  0  0  0  0  0  0  0  0  0  0
    2.0762   -3.9745    0.0000 H   0  0  0  0  0  0  0  0  0  0  0  0
    2.6890   -3.3474    0.0000 H   0  0  0  0  0  0  0  0  0  0  0  0
  1  8  1  0  0  0  0
  1 32  1  0  0  0  0
  2 20  1  0  0  0  0
  2 21  1  0  0  0  0
  3 20  2  0  0  0  0
  4  7  1  0  0  0  0
  4 11  2  0  0  0  0
  5  9  1  0  0  0  0
  5 10  2  0  0  0  0
  6  7  2  0  0  0  0
  6  8  1  0  0  0  0
  6 12  1  0  0  0  0
  7  9  1  0  0  0  0
  8 16  1  0  0  0  0
  8 22  1  0  0  0  0
  9 13  2  0  0  0  0
 10 11  1  0  0  0  0
 10 14  1  0  0  0  0
 11 17  1  0  0  0  0
 12 15  2  0  0  0  0
 12 23  1  0  0  0  0
 13 15  1  0  0  0  0
 13 24  1  0  0  0  0
 14 18  2  0  0  0  0
 14 20  1  0  0  0  0
 15 25  1  0  0  0  0
 16 26  1  0  0  0  0
 16 27  1  0  0  0  0
 16 28  1  0  0  0  0
 17 19  2  0  0  0  0
 17 29  1  0  0  0  0
 18 19  1  0  0  0  0
 18 30  1  0  0  0  0
 19 31  1  0  0  0  0
 21 33  1  0  0  0  0
 21 34  1  0  0  0  0
 21 35  1  0  0  0  0
M  END
> <PUBCHEM_COMPOUND_CID>
443634

> <PUBCHEM_COMPOUND_CANONICALIZED>
1

> <PUBCHEM_CACTVS_COMPLEXITY>
390

> <PUBCHEM_CACTVS_HBOND_ACCEPTOR>
5

> <PUBCHEM_CACTVS_HBOND_DONOR>
1

> <PUBCHEM_CACTVS_ROTATABLE_BOND>
3

> <PUBCHEM_CACTVS_SUBSKEYS>
AAADccB7MAAAAAAAAAAAAAAAAAAAAAAAAAA8YIAAAAAAAACx/AAAHgAACAAADByhngIyyLIIFgCoAyTyTACCgCQlEiAImCEwfNgIdvrAtZmUcYhmwAHI+ce8yKCOAAAAQAACACAAAACAAAQAQAAAAAAAAA==

> <PUBCHEM_IUPAC_OPENEYE_NAME>
methyl 6-(1-hydroxyethyl)phenazine-1-carboxylate

> <PUBCHEM_IUPAC_CAS_NAME>
6-(1-hydroxyethyl)-1-phenazinecarboxylic acid methyl ester

> <PUBCHEM_IUPAC_NAME>
methyl 6-(1-hydroxyethyl)phenazine-1-carboxylate

> <PUBCHEM_IUPAC_SYSTEMATIC_NAME>
methyl 6-(1-hydroxyethyl)phenazine-1-carboxylate

> <PUBCHEM_IUPAC_TRADITIONAL_NAME>
6-(1-hydroxyethyl)phenazine-1-carboxylic acid methyl ester

> <PUBCHEM_IUPAC_INCHI>
InChI=1S/C16H14N2O3/c1-9(19)10-5-3-7-12-14(10)17-13-8-4-6-11(15(13)18-12)16(20)21-2/h3-9,19H,1-2H3

> <PUBCHEM_IUPAC_INCHIKEY>
CMJFOBNRYRSQGE-UHFFFAOYSA-N

> <PUBCHEM_XLOGP3_AA>
2

> <PUBCHEM_EXACT_MASS>
282.100442

> <PUBCHEM_MOLECULAR_FORMULA>
C16H14N2O3

> <PUBCHEM_MOLECULAR_WEIGHT>
282.29396

> <PUBCHEM_OPENEYE_CAN_SMILES>
CC(C1=CC=CC2=NC3=C(C=CC=C3N=C21)C(=O)OC)O

> <PUBCHEM_OPENEYE_ISO_SMILES>
CC(C1=CC=CC2=NC3=C(C=CC=C3N=C21)C(=O)OC)O

> <PUBCHEM_CACTVS_TPSA>
72.3

> <PUBCHEM_MONOISOTOPIC_WEIGHT>
282.100442

> <PUBCHEM_TOTAL_CHARGE>
0

> <PUBCHEM_HEAVY_ATOM_COUNT>
21

> <PUBCHEM_ATOM_DEF_STEREO_COUNT>
0

> <PUBCHEM_ATOM_UDEF_STEREO_COUNT>
1

> <PUBCHEM_BOND_DEF_STEREO_COUNT>
0

> <PUBCHEM_BOND_UDEF_STEREO_COUNT>
0

> <PUBCHEM_ISOTOPIC_ATOM_COUNT>
0

> <PUBCHEM_COMPONENT_COUNT>
1

> <PUBCHEM_CACTVS_TAUTO_COUNT>
1

> <PUBCHEM_COORDINATE_TYPE>
1
5
255

> <PUBCHEM_BONDANNOTATIONS>
8  1  3
10  11  8
10  14  8
11  17  8
12  15  8
13  15  8
14  18  8
17  19  8
18  19  8
4  11  8
4  7  8
5  10  8
5  9  8
6  12  8
6  7  8
7  9  8
9  13  8

$$$$

