17395611
  -OEChem-06241222512D

 53 56  0     0  0  0  0  0  0999 V2000
    5.4641    3.9182    0.0000 O   0  0  0  0  0  0  0  0  0  0  0  0
    2.0000    0.9182    0.0000 O   0  0  0  0  0  0  0  0  0  0  0  0
    5.4641    1.9182    0.0000 N   0  0  0  0  0  0  0  0  0  0  0  0
    7.1962    3.9182    0.0000 N   0  0  0  0  0  0  0  0  0  0  0  0
    3.7320    0.9182    0.0000 N   0  0  0  0  0  0  0  0  0  0  0  0
    2.8660   -3.5818    0.0000 N   0  0  0  0  0  0  0  0  0  0  0  0
    4.5981    2.4182    0.0000 C   0  0  0  0  0  0  0  0  0  0  0  0
    5.4641    0.9182    0.0000 C   0  0  0  0  0  0  0  0  0  0  0  0
    8.1097    3.5115    0.0000 C   0  0  0  0  0  0  0  0  0  0  0  0
    7.3007    4.9127    0.0000 C   0  0  0  0  0  0  0  0  0  0  0  0
    8.2788    5.1206    0.0000 C   0  0  0  0  0  0  0  0  0  0  0  0
    8.7788    4.2546    0.0000 C   0  0  0  0  0  0  0  0  0  0  0  0
    6.3301    2.4182    0.0000 C   0  0  0  0  0  0  0  0  0  0  0  0
    4.5981    0.4182    0.0000 C   0  0  0  0  0  0  0  0  0  0  0  0
    3.7320    1.9182    0.0000 C   0  0  0  0  0  0  0  0  0  0  0  0
    6.3301    3.4182    0.0000 C   0  0  0  0  0  0  0  0  0  0  0  0
    2.8660    0.4182    0.0000 C   0  0  0  0  0  0  0  0  0  0  0  0
    2.8660   -0.5818    0.0000 C   0  0  0  0  0  0  0  0  0  0  0  0
    2.0000   -1.0818    0.0000 C   0  0  0  0  0  0  0  0  0  0  0  0
    3.7320   -1.0818    0.0000 C   0  0  0  0  0  0  0  0  0  0  0  0
    2.8660   -2.5818    0.0000 C   0  0  0  0  0  0  0  0  0  0  0  0
    2.0000   -2.0818    0.0000 C   0  0  0  0  0  0  0  0  0  0  0  0
    3.7320   -2.0818    0.0000 C   0  0  0  0  0  0  0  0  0  0  0  0
    2.0570   -4.1696    0.0000 C   0  0  0  0  0  0  0  0  0  0  0  0
    3.6750   -4.1696    0.0000 C   0  0  0  0  0  0  0  0  0  0  0  0
    2.3660   -5.1206    0.0000 C   0  0  0  0  0  0  0  0  0  0  0  0
    3.3660   -5.1206    0.0000 C   0  0  0  0  0  0  0  0  0  0  0  0
    4.9966    2.8932    0.0000 H   0  0  0  0  0  0  0  0  0  0  0  0
    4.1996    2.8932    0.0000 H   0  0  0  0  0  0  0  0  0  0  0  0
    5.6762    0.3356    0.0000 H   0  0  0  0  0  0  0  0  0  0  0  0
    6.0747    1.0259    0.0000 H   0  0  0  0  0  0  0  0  0  0  0  0
    7.7997    2.9745    0.0000 H   0  0  0  0  0  0  0  0  0  0  0  0
    8.6113    3.1470    0.0000 H   0  0  0  0  0  0  0  0  0  0  0  0
    7.2359    5.5293    0.0000 H   0  0  0  0  0  0  0  0  0  0  0  0
    6.6807    4.9127    0.0000 H   0  0  0  0  0  0  0  0  0  0  0  0
    9.1937    3.7939    0.0000 H   0  0  0  0  0  0  0  0  0  0  0  0
    9.2804    4.6190    0.0000 H   0  0  0  0  0  0  0  0  0  0  0  0
    8.8452    5.3728    0.0000 H   0  0  0  0  0  0  0  0  0  0  0  0
    8.0872    5.7103    0.0000 H   0  0  0  0  0  0  0  0  0  0  0  0
    6.5422    1.8356    0.0000 H   0  0  0  0  0  0  0  0  0  0  0  0
    6.9407    2.5259    0.0000 H   0  0  0  0  0  0  0  0  0  0  0  0
    4.1996   -0.0567    0.0000 H   0  0  0  0  0  0  0  0  0  0  0  0
    4.9966   -0.0567    0.0000 H   0  0  0  0  0  0  0  0  0  0  0  0
    3.5200    2.5008    0.0000 H   0  0  0  0  0  0  0  0  0  0  0  0
    3.1215    1.8105    0.0000 H   0  0  0  0  0  0  0  0  0  0  0  0
    1.4631   -0.7718    0.0000 H   0  0  0  0  0  0  0  0  0  0  0  0
    4.2690   -0.7718    0.0000 H   0  0  0  0  0  0  0  0  0  0  0  0
    1.4631   -2.3918    0.0000 H   0  0  0  0  0  0  0  0  0  0  0  0
    4.2690   -2.3918    0.0000 H   0  0  0  0  0  0  0  0  0  0  0  0
    1.4674   -3.9780    0.0000 H   0  0  0  0  0  0  0  0  0  0  0  0
    4.2647   -3.9780    0.0000 H   0  0  0  0  0  0  0  0  0  0  0  0
    2.0016   -5.6222    0.0000 H   0  0  0  0  0  0  0  0  0  0  0  0
    3.7304   -5.6222    0.0000 H   0  0  0  0  0  0  0  0  0  0  0  0
  1 16  2  0  0  0  0
  2 17  2  0  0  0  0
  3  7  1  0  0  0  0
  3  8  1  0  0  0  0
  3 13  1  0  0  0  0
  4  9  1  0  0  0  0
  4 10  1  0  0  0  0
  4 16  1  0  0  0  0
  5 14  1  0  0  0  0
  5 15  1  0  0  0  0
  5 17  1  0  0  0  0
  6 21  1  0  0  0  0
  6 24  1  0  0  0  0
  6 25  1  0  0  0  0
  7 15  1  0  0  0  0
  7 28  1  0  0  0  0
  7 29  1  0  0  0  0
  8 14  1  0  0  0  0
  8 30  1  0  0  0  0
  8 31  1  0  0  0  0
  9 12  1  0  0  0  0
  9 32  1  0  0  0  0
  9 33  1  0  0  0  0
 10 11  1  0  0  0  0
 10 34  1  0  0  0  0
 10 35  1  0  0  0  0
 11 12  1  0  0  0  0
 11 38  1  0  0  0  0
 11 39  1  0  0  0  0
 12 36  1  0  0  0  0
 12 37  1  0  0  0  0
 13 16  1  0  0  0  0
 13 40  1  0  0  0  0
 13 41  1  0  0  0  0
 14 42  1  0  0  0  0
 14 43  1  0  0  0  0
 15 44  1  0  0  0  0
 15 45  1  0  0  0  0
 17 18  1  0  0  0  0
 18 19  2  0  0  0  0
 18 20  1  0  0  0  0
 19 22  1  0  0  0  0
 19 46  1  0  0  0  0
 20 23  2  0  0  0  0
 20 47  1  0  0  0  0
 21 22  2  0  0  0  0
 21 23  1  0  0  0  0
 22 48  1  0  0  0  0
 23 49  1  0  0  0  0
 24 26  2  0  0  0  0
 24 50  1  0  0  0  0
 25 27  2  0  0  0  0
 25 51  1  0  0  0  0
 26 27  1  0  0  0  0
 26 52  1  0  0  0  0
 27 53  1  0  0  0  0
M  END
> <PUBCHEM_COMPOUND_CID>
17395611

> <PUBCHEM_COMPOUND_CANONICALIZED>
1

> <PUBCHEM_CACTVS_COMPLEXITY>
512

> <PUBCHEM_CACTVS_HBOND_ACCEPTOR>
3

> <PUBCHEM_CACTVS_HBOND_DONOR>
0

> <PUBCHEM_CACTVS_ROTATABLE_BOND>
4

> <PUBCHEM_CACTVS_SUBSKEYS>
AAADceB7sAAAAAAAAAAAAAAAAAAAAWLAAAA8QAAAAAAAAAABwAAAHgAAAAAADAjBmgQ8wJMMEACoAjV3VACCgCA1AiAI2CG4ZNgIYPLAlbGUIQhghgDIyYcYiQCeCAAAAAAAAAAQAAAAAAAAAAAAAAAAAA==

> <PUBCHEM_IUPAC_OPENEYE_NAME>
1-pyrrolidin-1-yl-2-[4-(4-pyrrol-1-ylbenzoyl)piperazin-1-yl]ethanone

> <PUBCHEM_IUPAC_CAS_NAME>
2-[4-[oxo-[4-(1-pyrrolyl)phenyl]methyl]-1-piperazinyl]-1-(1-pyrrolidinyl)ethanone

> <PUBCHEM_IUPAC_NAME>
1-pyrrolidin-1-yl-2-[4-(4-pyrrol-1-ylbenzoyl)piperazin-1-yl]ethanone

> <PUBCHEM_IUPAC_SYSTEMATIC_NAME>
1-pyrrolidin-1-yl-2-[4-(4-pyrrol-1-ylphenyl)carbonylpiperazin-1-yl]ethanone

> <PUBCHEM_IUPAC_TRADITIONAL_NAME>
1-pyrrolidino-2-[4-(4-pyrrol-1-ylbenzoyl)piperazino]ethanone

> <PUBCHEM_IUPAC_INCHI>
InChI=1S/C21H26N4O2/c26-20(24-11-3-4-12-24)17-22-13-15-25(16-14-22)21(27)18-5-7-19(8-6-18)23-9-1-2-10-23/h1-2,5-10H,3-4,11-17H2

> <PUBCHEM_IUPAC_INCHIKEY>
CRVSFVYVFVDSNV-UHFFFAOYSA-N

> <PUBCHEM_XLOGP3_AA>
1.6

> <PUBCHEM_EXACT_MASS>
366.205576

> <PUBCHEM_MOLECULAR_FORMULA>
C21H26N4O2

> <PUBCHEM_MOLECULAR_WEIGHT>
366.45674

> <PUBCHEM_OPENEYE_CAN_SMILES>
C1CCN(C1)C(=O)CN2CCN(CC2)C(=O)C3=CC=C(C=C3)N4C=CC=C4

> <PUBCHEM_OPENEYE_ISO_SMILES>
C1CCN(C1)C(=O)CN2CCN(CC2)C(=O)C3=CC=C(C=C3)N4C=CC=C4

> <PUBCHEM_CACTVS_TPSA>
48.8

> <PUBCHEM_MONOISOTOPIC_WEIGHT>
366.205576

> <PUBCHEM_TOTAL_CHARGE>
0

> <PUBCHEM_HEAVY_ATOM_COUNT>
27

> <PUBCHEM_ATOM_DEF_STEREO_COUNT>
0

> <PUBCHEM_ATOM_UDEF_STEREO_COUNT>
0

> <PUBCHEM_BOND_DEF_STEREO_COUNT>
0

> <PUBCHEM_BOND_UDEF_STEREO_COUNT>
0

> <PUBCHEM_ISOTOPIC_ATOM_COUNT>
0

> <PUBCHEM_COMPONENT_COUNT>
1

> <PUBCHEM_CACTVS_TAUTO_COUNT>
1

> <PUBCHEM_COORDINATE_TYPE>
1
5
255

> <PUBCHEM_BONDANNOTATIONS>
18  19  8
18  20  8
19  22  8
20  23  8
21  22  8
21  23  8
24  26  8
25  27  8
26  27  8
6  24  8
6  25  8

$$$$

