47205257
  -OEChem-06241222582D

 40 41  0     1  0  0  0  0  0999 V2000
    4.5981   -2.1739    0.0000 O   0  0  0  0  0  0  0  0  0  0  0  0
    3.7320    2.3261    0.0000 N   0  0  0  0  0  0  0  0  0  0  0  0
    4.5411    2.9139    0.0000 N   0  0  0  0  0  0  0  0  0  0  0  0
    2.8660   -2.1739    0.0000 N   0  0  0  0  0  0  0  0  0  0  0  0
    2.9230    2.9139    0.0000 C   0  0  0  0  0  0  0  0  0  0  0  0
    3.2320    3.8649    0.0000 C   0  0  0  0  0  0  0  0  0  0  0  0
    2.8660   -3.1739    0.0000 C   0  0  3  0  0  0  0  0  0  0  0  0
    4.2320    3.8649    0.0000 C   0  0  0  0  0  0  0  0  0  0  0  0
    3.7320    1.3261    0.0000 C   0  0  0  0  0  0  0  0  0  0  0  0
    2.0000   -3.6739    0.0000 C   0  0  0  0  0  0  0  0  0  0  0  0
    3.7320   -0.6739    0.0000 C   0  0  0  0  0  0  0  0  0  0  0  0
    3.7320   -3.6739    0.0000 C   0  0  0  0  0  0  0  0  0  0  0  0
    2.8660    0.8261    0.0000 C   0  0  0  0  0  0  0  0  0  0  0  0
    4.5981    0.8261    0.0000 C   0  0  0  0  0  0  0  0  0  0  0  0
    3.7320   -1.6739    0.0000 C   0  0  0  0  0  0  0  0  0  0  0  0
    4.8198    4.6739    0.0000 C   0  0  0  0  0  0  0  0  0  0  0  0
    2.8660   -0.1739    0.0000 C   0  0  0  0  0  0  0  0  0  0  0  0
    4.5981   -0.1739    0.0000 C   0  0  0  0  0  0  0  0  0  0  0  0
    2.0000   -4.6739    0.0000 C   0  0  0  0  0  0  0  0  0  0  0  0
    2.3566    3.1660    0.0000 H   0  0  0  0  0  0  0  0  0  0  0  0
    2.6130    2.3769    0.0000 H   0  0  0  0  0  0  0  0  0  0  0  0
    3.2969    4.4815    0.0000 H   0  0  0  0  0  0  0  0  0  0  0  0
    2.6256    3.9938    0.0000 H   0  0  0  0  0  0  0  0  0  0  0  0
    3.4030   -2.8639    0.0000 H   0  0  0  0  0  0  0  0  0  0  0  0
    1.7880   -3.0913    0.0000 H   0  0  0  0  0  0  0  0  0  0  0  0
    1.3894   -3.7816    0.0000 H   0  0  0  0  0  0  0  0  0  0  0  0
    2.3291   -1.8639    0.0000 H   0  0  0  0  0  0  0  0  0  0  0  0
    3.4220   -4.2109    0.0000 H   0  0  0  0  0  0  0  0  0  0  0  0
    4.2690   -3.9839    0.0000 H   0  0  0  0  0  0  0  0  0  0  0  0
    4.0420   -3.1370    0.0000 H   0  0  0  0  0  0  0  0  0  0  0  0
    2.3291    1.1361    0.0000 H   0  0  0  0  0  0  0  0  0  0  0  0
    5.1350    1.1361    0.0000 H   0  0  0  0  0  0  0  0  0  0  0  0
    5.3214    4.3095    0.0000 H   0  0  0  0  0  0  0  0  0  0  0  0
    5.1843    5.1755    0.0000 H   0  0  0  0  0  0  0  0  0  0  0  0
    4.3182    5.0384    0.0000 H   0  0  0  0  0  0  0  0  0  0  0  0
    2.3291   -0.4839    0.0000 H   0  0  0  0  0  0  0  0  0  0  0  0
    5.1350   -0.4839    0.0000 H   0  0  0  0  0  0  0  0  0  0  0  0
    1.3800   -4.6739    0.0000 H   0  0  0  0  0  0  0  0  0  0  0  0
    2.0000   -5.2939    0.0000 H   0  0  0  0  0  0  0  0  0  0  0  0
    2.6200   -4.6739    0.0000 H   0  0  0  0  0  0  0  0  0  0  0  0
  1 15  2  0  0  0  0
  2  3  1  0  0  0  0
  2  5  1  0  0  0  0
  2  9  1  0  0  0  0
  3  8  2  0  0  0  0
  4  7  1  0  0  0  0
  4 15  1  0  0  0  0
  4 27  1  0  0  0  0
  5  6  1  0  0  0  0
  5 20  1  0  0  0  0
  5 21  1  0  0  0  0
  6  8  1  0  0  0  0
  6 22  1  0  0  0  0
  6 23  1  0  0  0  0
  7 10  1  0  0  0  0
  7 12  1  0  0  0  0
  7 24  1  0  0  0  0
  8 16  1  0  0  0  0
  9 13  2  0  0  0  0
  9 14  1  0  0  0  0
 10 19  1  0  0  0  0
 10 25  1  0  0  0  0
 10 26  1  0  0  0  0
 11 15  1  0  0  0  0
 11 17  2  0  0  0  0
 11 18  1  0  0  0  0
 12 28  1  0  0  0  0
 12 29  1  0  0  0  0
 12 30  1  0  0  0  0
 13 17  1  0  0  0  0
 13 31  1  0  0  0  0
 14 18  2  0  0  0  0
 14 32  1  0  0  0  0
 16 33  1  0  0  0  0
 16 34  1  0  0  0  0
 16 35  1  0  0  0  0
 17 36  1  0  0  0  0
 18 37  1  0  0  0  0
 19 38  1  0  0  0  0
 19 39  1  0  0  0  0
 19 40  1  0  0  0  0
M  END
> <PUBCHEM_COMPOUND_CID>
47205257

> <PUBCHEM_COMPOUND_CANONICALIZED>
1

> <PUBCHEM_CACTVS_COMPLEXITY>
345

> <PUBCHEM_CACTVS_HBOND_ACCEPTOR>
3

> <PUBCHEM_CACTVS_HBOND_DONOR>
1

> <PUBCHEM_CACTVS_ROTATABLE_BOND>
4

> <PUBCHEM_CACTVS_SUBSKEYS>
AAADceBzIAAAAAAAAAAAAAAAAAAAAQAAAAAwAAAAAAAAAAABAAAAHgAYAAAADCjBmAQywILAAACoAyVyUACSBAAlAgAYiIE4ZMgIIDLAlZGEIQhgngDIyYcYiQCeCAAAAAAAAAAQAAAAAAAAAAAAAAAAAA==

> <PUBCHEM_IUPAC_OPENEYE_NAME>
4-(5-methyl-3,4-dihydropyrazol-2-yl)-N-sec-butyl-benzamide

> <PUBCHEM_IUPAC_CAS_NAME>
N-butan-2-yl-4-(5-methyl-3,4-dihydropyrazol-2-yl)benzamide

> <PUBCHEM_IUPAC_NAME>
N-butan-2-yl-4-(5-methyl-3,4-dihydropyrazol-2-yl)benzamide

> <PUBCHEM_IUPAC_SYSTEMATIC_NAME>
N-butan-2-yl-4-(5-methyl-3,4-dihydropyrazol-2-yl)benzamide

> <PUBCHEM_IUPAC_TRADITIONAL_NAME>
4-(3-methyl-2-pyrazolin-1-yl)-N-sec-butyl-benzamide

> <PUBCHEM_IUPAC_INCHI>
InChI=1S/C15H21N3O/c1-4-11(2)16-15(19)13-5-7-14(8-6-13)18-10-9-12(3)17-18/h5-8,11H,4,9-10H2,1-3H3,(H,16,19)

> <PUBCHEM_IUPAC_INCHIKEY>
FLTRYCUWSKFHSS-UHFFFAOYSA-N

> <PUBCHEM_XLOGP3_AA>
2.4

> <PUBCHEM_EXACT_MASS>
259.168462

> <PUBCHEM_MOLECULAR_FORMULA>
C15H21N3O

> <PUBCHEM_MOLECULAR_WEIGHT>
259.34674

> <PUBCHEM_OPENEYE_CAN_SMILES>
CCC(C)NC(=O)C1=CC=C(C=C1)N2CCC(=N2)C

> <PUBCHEM_OPENEYE_ISO_SMILES>
CCC(C)NC(=O)C1=CC=C(C=C1)N2CCC(=N2)C

> <PUBCHEM_CACTVS_TPSA>
44.7

> <PUBCHEM_MONOISOTOPIC_WEIGHT>
259.168462

> <PUBCHEM_TOTAL_CHARGE>
0

> <PUBCHEM_HEAVY_ATOM_COUNT>
19

> <PUBCHEM_ATOM_DEF_STEREO_COUNT>
0

> <PUBCHEM_ATOM_UDEF_STEREO_COUNT>
1

> <PUBCHEM_BOND_DEF_STEREO_COUNT>
0

> <PUBCHEM_BOND_UDEF_STEREO_COUNT>
0

> <PUBCHEM_ISOTOPIC_ATOM_COUNT>
0

> <PUBCHEM_COMPONENT_COUNT>
1

> <PUBCHEM_CACTVS_TAUTO_COUNT>
2

> <PUBCHEM_COORDINATE_TYPE>
1
5
255

> <PUBCHEM_BONDANNOTATIONS>
11  17  8
11  18  8
13  17  8
14  18  8
7  12  3
9  13  8
9  14  8

$$$$

