10708957
  -OEChem-07051213082D

 51 50  0     1  0  0  0  0  0999 V2000
    2.5369    1.8100    0.0000 O   0  0  0  0  0  0  0  0  0  0  0  0
    3.4030    3.3100    0.0000 O   0  0  0  0  0  0  0  0  0  0  0  0
    8.5991   -2.6900    0.0000 O   0  0  0  0  0  0  0  0  0  0  0  0
    6.8671    2.3100    0.0000 C   0  0  0  0  0  0  0  0  0  0  0  0
    7.7331    1.8100    0.0000 C   0  0  0  0  0  0  0  0  0  0  0  0
    6.0010    1.8100    0.0000 C   0  0  0  0  0  0  0  0  0  0  0  0
    8.5991    2.3100    0.0000 C   0  0  0  0  0  0  0  0  0  0  0  0
    5.1350    2.3100    0.0000 C   0  0  0  0  0  0  0  0  0  0  0  0
    9.4651    1.8100    0.0000 C   0  0  0  0  0  0  0  0  0  0  0  0
    4.2690    1.8100    0.0000 C   0  0  0  0  0  0  0  0  0  0  0  0
   10.3312    2.3100    0.0000 C   0  0  0  0  0  0  0  0  0  0  0  0
    3.4030    2.3100    0.0000 C   0  0  0  0  0  0  0  0  0  0  0  0
   11.1972    1.8100    0.0000 C   0  0  0  0  0  0  0  0  0  0  0  0
   11.1972    0.8100    0.0000 C   0  0  0  0  0  0  0  0  0  0  0  0
   12.0632    0.3100    0.0000 C   0  0  0  0  0  0  0  0  0  0  0  0
   12.0632   -0.6900    0.0000 C   0  0  0  0  0  0  0  0  0  0  0  0
   11.1972   -1.1900    0.0000 C   0  0  0  0  0  0  0  0  0  0  0  0
   11.1972   -2.1900    0.0000 C   0  0  0  0  0  0  0  0  0  0  0  0
    9.4651   -2.1900    0.0000 C   0  0  3  0  0  0  0  0  0  0  0  0
   10.3312   -2.6900    0.0000 C   0  0  0  0  0  0  0  0  0  0  0  0
    9.4651   -1.1900    0.0000 C   0  0  0  0  0  0  0  0  0  0  0  0
    7.2656    2.7849    0.0000 H   0  0  0  0  0  0  0  0  0  0  0  0
    6.4685    2.7849    0.0000 H   0  0  0  0  0  0  0  0  0  0  0  0
    7.3346    1.3350    0.0000 H   0  0  0  0  0  0  0  0  0  0  0  0
    8.1316    1.3350    0.0000 H   0  0  0  0  0  0  0  0  0  0  0  0
    5.6025    1.3350    0.0000 H   0  0  0  0  0  0  0  0  0  0  0  0
    6.3996    1.3350    0.0000 H   0  0  0  0  0  0  0  0  0  0  0  0
    8.9976    2.7849    0.0000 H   0  0  0  0  0  0  0  0  0  0  0  0
    8.2006    2.7849    0.0000 H   0  0  0  0  0  0  0  0  0  0  0  0
    5.5335    2.7849    0.0000 H   0  0  0  0  0  0  0  0  0  0  0  0
    4.7365    2.7849    0.0000 H   0  0  0  0  0  0  0  0  0  0  0  0
    9.0666    1.3350    0.0000 H   0  0  0  0  0  0  0  0  0  0  0  0
    9.8637    1.3350    0.0000 H   0  0  0  0  0  0  0  0  0  0  0  0
    3.8705    1.3350    0.0000 H   0  0  0  0  0  0  0  0  0  0  0  0
    4.6675    1.3350    0.0000 H   0  0  0  0  0  0  0  0  0  0  0  0
   10.3312    2.9300    0.0000 H   0  0  0  0  0  0  0  0  0  0  0  0
   11.7341    2.1200    0.0000 H   0  0  0  0  0  0  0  0  0  0  0  0
   10.5866    0.9177    0.0000 H   0  0  0  0  0  0  0  0  0  0  0  0
   10.9851    0.2274    0.0000 H   0  0  0  0  0  0  0  0  0  0  0  0
   12.6002    0.6200    0.0000 H   0  0  0  0  0  0  0  0  0  0  0  0
   12.6002   -1.0000    0.0000 H   0  0  0  0  0  0  0  0  0  0  0  0
   10.9851   -0.6074    0.0000 H   0  0  0  0  0  0  0  0  0  0  0  0
   10.5866   -1.2977    0.0000 H   0  0  0  0  0  0  0  0  0  0  0  0
    2.0000    2.1200    0.0000 H   0  0  0  0  0  0  0  0  0  0  0  0
   11.7341   -2.5000    0.0000 H   0  0  0  0  0  0  0  0  0  0  0  0
    9.4651   -2.8100    0.0000 H   0  0  0  0  0  0  0  0  0  0  0  0
   10.3312   -3.3100    0.0000 H   0  0  0  0  0  0  0  0  0  0  0  0
   10.0851   -1.1900    0.0000 H   0  0  0  0  0  0  0  0  0  0  0  0
    9.4651   -0.5700    0.0000 H   0  0  0  0  0  0  0  0  0  0  0  0
    8.8451   -1.1900    0.0000 H   0  0  0  0  0  0  0  0  0  0  0  0
    8.0622   -2.3800    0.0000 H   0  0  0  0  0  0  0  0  0  0  0  0
  1 12  1  0  0  0  0
  1 44  1  0  0  0  0
  2 12  2  0  0  0  0
  3 19  1  0  0  0  0
  3 51  1  0  0  0  0
  4  5  1  0  0  0  0
  4  6  1  0  0  0  0
  4 22  1  0  0  0  0
  4 23  1  0  0  0  0
  5  7  1  0  0  0  0
  5 24  1  0  0  0  0
  5 25  1  0  0  0  0
  6  8  1  0  0  0  0
  6 26  1  0  0  0  0
  6 27  1  0  0  0  0
  7  9  1  0  0  0  0
  7 28  1  0  0  0  0
  7 29  1  0  0  0  0
  8 10  1  0  0  0  0
  8 30  1  0  0  0  0
  8 31  1  0  0  0  0
  9 11  1  0  0  0  0
  9 32  1  0  0  0  0
  9 33  1  0  0  0  0
 10 12  1  0  0  0  0
 10 34  1  0  0  0  0
 10 35  1  0  0  0  0
 11 13  2  0  0  0  0
 11 36  1  0  0  0  0
 13 14  1  0  0  0  0
 13 37  1  0  0  0  0
 14 15  1  0  0  0  0
 14 38  1  0  0  0  0
 14 39  1  0  0  0  0
 15 16  2  0  0  0  0
 15 40  1  0  0  0  0
 16 17  1  0  0  0  0
 16 41  1  0  0  0  0
 17 18  1  0  0  0  0
 17 42  1  0  0  0  0
 17 43  1  0  0  0  0
 18 20  2  0  0  0  0
 18 45  1  0  0  0  0
 19 20  1  0  0  0  0
 19 21  1  0  0  0  0
 19 46  1  0  0  0  0
 20 47  1  0  0  0  0
 21 48  1  0  0  0  0
 21 49  1  0  0  0  0
 21 50  1  0  0  0  0
M  END
> <PUBCHEM_COMPOUND_CID>
10708957

> <PUBCHEM_COMPOUND_CANONICALIZED>
1

> <PUBCHEM_CACTVS_COMPLEXITY>
329

> <PUBCHEM_CACTVS_HBOND_ACCEPTOR>
3

> <PUBCHEM_CACTVS_HBOND_DONOR>
2

> <PUBCHEM_CACTVS_ROTATABLE_BOND>
13

> <PUBCHEM_CACTVS_SUBSKEYS>
AAADceB4MAAAAAAAAAAAAAAAAAAAAAAAAAAAAAAAAAAAAAAAAAAAGgAACAAACBSggAICCAAAAgCIACDSCAAAAAAgAAAICAEAAAgAFBIAAQAAUAAEgAAIEAOIyKCAAAAAAAAAAAAAAAAAAAAAAAAAAAAAAA==

> <PUBCHEM_IUPAC_OPENEYE_NAME>
(9Z,12Z,15Z)-17-hydroxyoctadeca-9,12,15-trienoic acid

> <PUBCHEM_IUPAC_CAS_NAME>
(9Z,12Z,15Z)-17-hydroxyoctadeca-9,12,15-trienoic acid

> <PUBCHEM_IUPAC_NAME>
(9Z,12Z,15Z)-17-hydroxyoctadeca-9,12,15-trienoic acid

> <PUBCHEM_IUPAC_SYSTEMATIC_NAME>
(9Z,12Z,15Z)-17-oxidanyloctadeca-9,12,15-trienoic acid

> <PUBCHEM_IUPAC_TRADITIONAL_NAME>
(9Z,12Z,15Z)-17-hydroxyoctadeca-9,12,15-trienoic acid

> <PUBCHEM_IUPAC_INCHI>
InChI=1S/C18H30O3/c1-17(19)15-13-11-9-7-5-3-2-4-6-8-10-12-14-16-18(20)21/h2-3,7,9,13,15,17,19H,4-6,8,10-12,14,16H2,1H3,(H,20,21)/b3-2-,9-7-,15-13-

> <PUBCHEM_IUPAC_INCHIKEY>
PSQSSLVXOIJSMX-XAFOFORCSA-N

> <PUBCHEM_XLOGP3>
4.6

> <PUBCHEM_EXACT_MASS>
294.219495

> <PUBCHEM_MOLECULAR_FORMULA>
C18H30O3

> <PUBCHEM_MOLECULAR_WEIGHT>
294.429

> <PUBCHEM_OPENEYE_CAN_SMILES>
CC(C=CCC=CCC=CCCCCCCCC(=O)O)O

> <PUBCHEM_OPENEYE_ISO_SMILES>
CC(/C=C\C/C=C\C/C=C\CCCCCCCC(=O)O)O

> <PUBCHEM_CACTVS_TPSA>
57.5

> <PUBCHEM_MONOISOTOPIC_WEIGHT>
294.219495

> <PUBCHEM_TOTAL_CHARGE>
0

> <PUBCHEM_HEAVY_ATOM_COUNT>
21

> <PUBCHEM_ATOM_DEF_STEREO_COUNT>
0

> <PUBCHEM_ATOM_UDEF_STEREO_COUNT>
1

> <PUBCHEM_BOND_DEF_STEREO_COUNT>
3

> <PUBCHEM_BOND_UDEF_STEREO_COUNT>
0

> <PUBCHEM_ISOTOPIC_ATOM_COUNT>
0

> <PUBCHEM_COMPONENT_COUNT>
1

> <PUBCHEM_CACTVS_TAUTO_COUNT>
1

> <PUBCHEM_COORDINATE_TYPE>
1
5
255

> <PUBCHEM_BONDANNOTATIONS>
19  3  3

$$$$

