442222
  -OEChem-07051212572D

 46 50  0     1  0  0  0  0  0999 V2000
    9.2416   -3.3028    0.0000 O   0  0  0  0  0  0  0  0  0  0  0  0
   10.7731   -2.6209    0.0000 O   0  0  0  0  0  0  0  0  0  0  0  0
    2.4596    2.5850    0.0000 O   0  0  0  0  0  0  0  0  0  0  0  0
    1.7256    0.6728    0.0000 O   0  0  0  0  0  0  0  0  0  0  0  0
    7.3602    2.5712    0.0000 N   0  0  3  0  0  0  0  0  0  0  0  0
    6.8824    0.6227    0.0000 C   0  0  1  0  0  0  0  0  0  0  0  0
    6.6236    1.5886    0.0000 C   0  0  1  0  0  0  0  0  0  0  0  0
    9.2266    0.7808    0.0000 C   0  0  0  0  0  0  0  0  0  0  0  0
    5.1777   -0.4219    0.0000 C   0  0  0  0  0  0  0  0  0  0  0  0
    8.4176   -0.6204    0.0000 C   0  0  0  0  0  0  0  0  0  0  0  0
    4.7590    1.1410    0.0000 C   0  0  0  0  0  0  0  0  0  0  0  0
    9.3311   -0.2137    0.0000 C   0  0  0  0  0  0  0  0  0  0  0  0
    4.4006    0.2074    0.0000 C   0  0  0  0  0  0  0  0  0  0  0  0
    7.8602    3.4373    0.0000 C   0  0  0  0  0  0  0  0  0  0  0  0
    8.2928   -1.6546    0.0000 C   0  0  0  0  0  0  0  0  0  0  0  0
    4.1160    1.9605    0.0000 C   0  0  0  0  0  0  0  0  0  0  0  0
   10.1832   -0.8129    0.0000 C   0  0  0  0  0  0  0  0  0  0  0  0
    3.3744    0.0286    0.0000 C   0  0  0  0  0  0  0  0  0  0  0  0
    9.1307   -2.2733    0.0000 C   0  0  0  0  0  0  0  0  0  0  0  0
   10.0823   -1.8496    0.0000 C   0  0  0  0  0  0  0  0  0  0  0  0
    3.0860    1.8055    0.0000 C   0  0  0  0  0  0  0  0  0  0  0  0
    2.7127    0.8330    0.0000 C   0  0  0  0  0  0  0  0  0  0  0  0
   10.2546   -3.5172    0.0000 C   0  0  0  0  0  0  0  0  0  0  0  0
    2.8216    3.5172    0.0000 C   0  0  0  0  0  0  0  0  0  0  0  0
    1.3708   -0.2622    0.0000 C   0  0  0  0  0  0  0  0  0  0  0  0
    7.1024   -0.1983    0.0000 H   0  0  0  0  0  0  0  0  0  0  0  0
    6.4036    2.4097    0.0000 H   0  0  0  0  0  0  0  0  0  0  0  0
    9.3289    1.3923    0.0000 H   0  0  0  0  0  0  0  0  0  0  0  0
    9.8463    0.7619    0.0000 H   0  0  0  0  0  0  0  0  0  0  0  0
    5.5594   -0.9105    0.0000 H   0  0  0  0  0  0  0  0  0  0  0  0
    4.7355   -0.8565    0.0000 H   0  0  0  0  0  0  0  0  0  0  0  0
    7.3233    3.7473    0.0000 H   0  0  0  0  0  0  0  0  0  0  0  0
    8.1702    3.9742    0.0000 H   0  0  0  0  0  0  0  0  0  0  0  0
    8.3972    3.1273    0.0000 H   0  0  0  0  0  0  0  0  0  0  0  0
    7.7235   -1.9002    0.0000 H   0  0  0  0  0  0  0  0  0  0  0  0
    4.3449    2.5367    0.0000 H   0  0  0  0  0  0  0  0  0  0  0  0
   10.7466   -0.5542    0.0000 H   0  0  0  0  0  0  0  0  0  0  0  0
    3.1590   -0.5528    0.0000 H   0  0  0  0  0  0  0  0  0  0  0  0
   10.8210   -3.7696    0.0000 H   0  0  0  0  0  0  0  0  0  0  0  0
   10.0632   -4.1069    0.0000 H   0  0  0  0  0  0  0  0  0  0  0  0
    2.2437    3.7416    0.0000 H   0  0  0  0  0  0  0  0  0  0  0  0
    3.0460    4.0952    0.0000 H   0  0  0  0  0  0  0  0  0  0  0  0
    3.3996    3.2928    0.0000 H   0  0  0  0  0  0  0  0  0  0  0  0
    1.9505   -0.4821    0.0000 H   0  0  0  0  0  0  0  0  0  0  0  0
    1.1509   -0.8419    0.0000 H   0  0  0  0  0  0  0  0  0  0  0  0
    0.7912   -0.0422    0.0000 H   0  0  0  0  0  0  0  0  0  0  0  0
  1 19  1  0  0  0  0
  1 23  1  0  0  0  0
  2 20  1  0  0  0  0
  2 23  1  0  0  0  0
  3 21  1  0  0  0  0
  3 24  1  0  0  0  0
  4 22  1  0  0  0  0
  4 25  1  0  0  0  0
  5  6  1  0  0  0  0
  5  7  1  0  0  0  0
  5 14  1  0  0  0  0
  6  9  1  0  0  0  0
  6 10  1  0  0  0  0
  6 26  1  1  0  0  0
  7  8  1  0  0  0  0
  7 11  1  0  0  0  0
  7 27  1  6  0  0  0
  8 12  1  0  0  0  0
  8 28  1  0  0  0  0
  8 29  1  0  0  0  0
  9 13  1  0  0  0  0
  9 30  1  0  0  0  0
  9 31  1  0  0  0  0
 10 12  1  0  0  0  0
 10 15  2  0  0  0  0
 11 13  1  0  0  0  0
 11 16  2  0  0  0  0
 12 17  2  0  0  0  0
 13 18  2  0  0  0  0
 14 32  1  0  0  0  0
 14 33  1  0  0  0  0
 14 34  1  0  0  0  0
 15 19  1  0  0  0  0
 15 35  1  0  0  0  0
 16 21  1  0  0  0  0
 16 36  1  0  0  0  0
 17 20  1  0  0  0  0
 17 37  1  0  0  0  0
 18 22  1  0  0  0  0
 18 38  1  0  0  0  0
 19 20  2  0  0  0  0
 21 22  2  0  0  0  0
 23 39  1  0  0  0  0
 23 40  1  0  0  0  0
 24 41  1  0  0  0  0
 24 42  1  0  0  0  0
 24 43  1  0  0  0  0
 25 44  1  0  0  0  0
 25 45  1  0  0  0  0
 25 46  1  0  0  0  0
M  END
> <PUBCHEM_COMPOUND_CID>
442222

> <PUBCHEM_COMPOUND_CANONICALIZED>
1

> <PUBCHEM_CACTVS_COMPLEXITY>
502

> <PUBCHEM_CACTVS_HBOND_ACCEPTOR>
5

> <PUBCHEM_CACTVS_HBOND_DONOR>
0

> <PUBCHEM_CACTVS_ROTATABLE_BOND>
2

> <PUBCHEM_CACTVS_SUBSKEYS>
AAADceB6OAAAAAAAAAAAAAAAAAAAASAAAAA8eIEAAAAYAEixQAAAHgAAAAAADCzBmAcyDoMABACAAiBCAACCCAAgIAAAiAAOjIgdJiKEsRukMCpkwBGOqAew0PMOoAABAAAQQABAAAIAACCAAAAAAAAAAA==

> <PUBCHEM_IUPAC_INCHI>
InChI=1S/C20H21NO4/c1-21-15-5-12-7-19-20(25-10-24-19)9-14(12)16(21)4-11-6-17(22-2)18(23-3)8-13(11)15/h6-9,15-16H,4-5,10H2,1-3H3/t15-,16-/m0/s1

> <PUBCHEM_IUPAC_INCHIKEY>
YTZIQRTXKBDFKM-HOTGVXAUSA-N

> <PUBCHEM_XLOGP3_AA>
3.1

> <PUBCHEM_EXACT_MASS>
339.147058

> <PUBCHEM_MOLECULAR_FORMULA>
C20H21NO4

> <PUBCHEM_MOLECULAR_WEIGHT>
339.38504

> <PUBCHEM_OPENEYE_CAN_SMILES>
CN1C2CC3=CC4=C(C=C3C1CC5=CC(=C(C=C25)OC)OC)OCO4

> <PUBCHEM_OPENEYE_ISO_SMILES>
CN1[C@H]2CC3=CC4=C(C=C3[C@@H]1CC5=CC(=C(C=C25)OC)OC)OCO4

> <PUBCHEM_CACTVS_TPSA>
40.2

> <PUBCHEM_MONOISOTOPIC_WEIGHT>
339.147058

> <PUBCHEM_TOTAL_CHARGE>
0

> <PUBCHEM_HEAVY_ATOM_COUNT>
25

> <PUBCHEM_ATOM_DEF_STEREO_COUNT>
2

> <PUBCHEM_ATOM_UDEF_STEREO_COUNT>
0

> <PUBCHEM_BOND_DEF_STEREO_COUNT>
0

> <PUBCHEM_BOND_UDEF_STEREO_COUNT>
0

> <PUBCHEM_ISOTOPIC_ATOM_COUNT>
0

> <PUBCHEM_COMPONENT_COUNT>
1

> <PUBCHEM_CACTVS_TAUTO_COUNT>
1

> <PUBCHEM_COORDINATE_TYPE>
1
5
255

> <PUBCHEM_BONDANNOTATIONS>
10  12  8
10  15  8
11  13  8
11  16  8
12  17  8
13  18  8
15  19  8
16  21  8
17  20  8
18  22  8
19  20  8
21  22  8
6  26  5
7  27  6

$$$$

