442805
  -OEChem-07051212592D

 40 42  0     1  0  0  0  0  0999 V2000
    6.3301    1.5479    0.0000 O   0  0  0  0  0  0  0  0  0  0  0  0
    8.0785   -1.4867    0.0000 O   0  0  0  0  0  0  0  0  0  0  0  0
    3.7320    1.0479    0.0000 O   0  0  0  0  0  0  0  0  0  0  0  0
    9.8602    1.5721    0.0000 O   0  0  0  0  0  0  0  0  0  0  0  0
    2.0000   -1.9521    0.0000 O   0  0  0  0  0  0  0  0  0  0  0  0
    5.4641    0.0479    0.0000 C   0  0  3  0  0  0  0  0  0  0  0  0
    6.3301   -0.4521    0.0000 C   0  0  0  0  0  0  0  0  0  0  0  0
    5.4641    1.0479    0.0000 C   0  0  0  0  0  0  0  0  0  0  0  0
    7.1962    0.0479    0.0000 C   0  0  0  0  0  0  0  0  0  0  0  0
    4.5981   -0.4521    0.0000 C   0  0  0  0  0  0  0  0  0  0  0  0
    7.1962    1.0479    0.0000 C   0  0  0  0  0  0  0  0  0  0  0  0
    8.0901   -0.4867    0.0000 C   0  0  0  0  0  0  0  0  0  0  0  0
    3.7320    0.0479    0.0000 C   0  0  0  0  0  0  0  0  0  0  0  0
    8.0901    1.5826    0.0000 C   0  0  0  0  0  0  0  0  0  0  0  0
    4.5981   -1.4521    0.0000 C   0  0  0  0  0  0  0  0  0  0  0  0
    8.9962    0.0271    0.0000 C   0  0  0  0  0  0  0  0  0  0  0  0
    8.9962    1.0687    0.0000 C   0  0  0  0  0  0  0  0  0  0  0  0
    2.8660   -0.4521    0.0000 C   0  0  0  0  0  0  0  0  0  0  0  0
    3.7320   -1.9521    0.0000 C   0  0  0  0  0  0  0  0  0  0  0  0
    2.8660   -1.4521    0.0000 C   0  0  0  0  0  0  0  0  0  0  0  0
    8.9387   -1.9966    0.0000 C   0  0  0  0  0  0  0  0  0  0  0  0
    9.8564    2.5721    0.0000 C   0  0  0  0  0  0  0  0  0  0  0  0
    5.4641   -0.5721    0.0000 H   0  0  0  0  0  0  0  0  0  0  0  0
    5.9316   -0.9270    0.0000 H   0  0  0  0  0  0  0  0  0  0  0  0
    6.7287   -0.9270    0.0000 H   0  0  0  0  0  0  0  0  0  0  0  0
    5.2520    1.6305    0.0000 H   0  0  0  0  0  0  0  0  0  0  0  0
    4.8535    0.9403    0.0000 H   0  0  0  0  0  0  0  0  0  0  0  0
    8.0829    2.2026    0.0000 H   0  0  0  0  0  0  0  0  0  0  0  0
    5.1350   -1.7621    0.0000 H   0  0  0  0  0  0  0  0  0  0  0  0
    9.5319   -0.2850    0.0000 H   0  0  0  0  0  0  0  0  0  0  0  0
    2.3291   -0.1421    0.0000 H   0  0  0  0  0  0  0  0  0  0  0  0
    3.7320   -2.5721    0.0000 H   0  0  0  0  0  0  0  0  0  0  0  0
    3.1951    1.3579    0.0000 H   0  0  0  0  0  0  0  0  0  0  0  0
    8.6225   -2.5300    0.0000 H   0  0  0  0  0  0  0  0  0  0  0  0
    9.4720   -2.3128    0.0000 H   0  0  0  0  0  0  0  0  0  0  0  0
    9.2549   -1.4633    0.0000 H   0  0  0  0  0  0  0  0  0  0  0  0
    2.0000   -2.5721    0.0000 H   0  0  0  0  0  0  0  0  0  0  0  0
   10.4764    2.5745    0.0000 H   0  0  0  0  0  0  0  0  0  0  0  0
    9.8540    3.1921    0.0000 H   0  0  0  0  0  0  0  0  0  0  0  0
    9.2364    2.5697    0.0000 H   0  0  0  0  0  0  0  0  0  0  0  0
  1  8  1  0  0  0  0
  1 11  1  0  0  0  0
  2 12  1  0  0  0  0
  2 21  1  0  0  0  0
  3 13  1  0  0  0  0
  3 33  1  0  0  0  0
  4 17  1  0  0  0  0
  4 22  1  0  0  0  0
  5 20  1  0  0  0  0
  5 37  1  0  0  0  0
  6  7  1  0  0  0  0
  6  8  1  0  0  0  0
  6 10  1  0  0  0  0
  6 23  1  0  0  0  0
  7  9  1  0  0  0  0
  7 24  1  0  0  0  0
  7 25  1  0  0  0  0
  8 26  1  0  0  0  0
  8 27  1  0  0  0  0
  9 11  2  0  0  0  0
  9 12  1  0  0  0  0
 10 13  2  0  0  0  0
 10 15  1  0  0  0  0
 11 14  1  0  0  0  0
 12 16  2  0  0  0  0
 13 18  1  0  0  0  0
 14 17  2  0  0  0  0
 14 28  1  0  0  0  0
 15 19  2  0  0  0  0
 15 29  1  0  0  0  0
 16 17  1  0  0  0  0
 16 30  1  0  0  0  0
 18 20  2  0  0  0  0
 18 31  1  0  0  0  0
 19 20  1  0  0  0  0
 19 32  1  0  0  0  0
 21 34  1  0  0  0  0
 21 35  1  0  0  0  0
 21 36  1  0  0  0  0
 22 38  1  0  0  0  0
 22 39  1  0  0  0  0
 22 40  1  0  0  0  0
M  END
> <PUBCHEM_COMPOUND_CID>
442805

> <PUBCHEM_COMPOUND_CANONICALIZED>
1

> <PUBCHEM_CACTVS_COMPLEXITY>
363

> <PUBCHEM_CACTVS_HBOND_ACCEPTOR>
5

> <PUBCHEM_CACTVS_HBOND_DONOR>
2

> <PUBCHEM_CACTVS_ROTATABLE_BOND>
3

> <PUBCHEM_CACTVS_SUBSKEYS>
AAADceB4OAAAAAAAAAAAAAAAAAAAAAAAAAA0YIAAAAAAAACRQAAAGgAACAAADQSgmAIyBoAABgCAAiBCAAACCAAgIAAIiAAGCIgMJyKGMRqCeCClwBUIuAfA4PwOoAAACAAIAABAAAAQABAAAAAAAAAAAA==

> <PUBCHEM_IUPAC_OPENEYE_NAME>
4-(5,7-dimethoxychroman-3-yl)benzene-1,3-diol

> <PUBCHEM_IUPAC_CAS_NAME>
4-(5,7-dimethoxy-3,4-dihydro-2H-1-benzopyran-3-yl)benzene-1,3-diol

> <PUBCHEM_IUPAC_NAME>
4-(5,7-dimethoxy-3,4-dihydro-2H-chromen-3-yl)benzene-1,3-diol

> <PUBCHEM_IUPAC_SYSTEMATIC_NAME>
4-(5,7-dimethoxy-3,4-dihydro-2H-chromen-3-yl)benzene-1,3-diol

> <PUBCHEM_IUPAC_TRADITIONAL_NAME>
4-(5,7-dimethoxychroman-3-yl)resorcinol

> <PUBCHEM_IUPAC_INCHI>
InChI=1S/C17H18O5/c1-20-12-7-16(21-2)14-5-10(9-22-17(14)8-12)13-4-3-11(18)6-15(13)19/h3-4,6-8,10,18-19H,5,9H2,1-2H3

> <PUBCHEM_IUPAC_INCHIKEY>
ITRZCICEVGLQFO-UHFFFAOYSA-N

> <PUBCHEM_XLOGP3_AA>
2.9

> <PUBCHEM_EXACT_MASS>
302.115424

> <PUBCHEM_MOLECULAR_FORMULA>
C17H18O5

> <PUBCHEM_MOLECULAR_WEIGHT>
302.32182

> <PUBCHEM_OPENEYE_CAN_SMILES>
COC1=CC(=C2CC(COC2=C1)C3=C(C=C(C=C3)O)O)OC

> <PUBCHEM_OPENEYE_ISO_SMILES>
COC1=CC(=C2CC(COC2=C1)C3=C(C=C(C=C3)O)O)OC

> <PUBCHEM_CACTVS_TPSA>
68.2

> <PUBCHEM_MONOISOTOPIC_WEIGHT>
302.115424

> <PUBCHEM_TOTAL_CHARGE>
0

> <PUBCHEM_HEAVY_ATOM_COUNT>
22

> <PUBCHEM_ATOM_DEF_STEREO_COUNT>
0

> <PUBCHEM_ATOM_UDEF_STEREO_COUNT>
1

> <PUBCHEM_BOND_DEF_STEREO_COUNT>
0

> <PUBCHEM_BOND_UDEF_STEREO_COUNT>
0

> <PUBCHEM_ISOTOPIC_ATOM_COUNT>
0

> <PUBCHEM_COMPONENT_COUNT>
1

> <PUBCHEM_CACTVS_TAUTO_COUNT>
9

> <PUBCHEM_COORDINATE_TYPE>
1
5
255

> <PUBCHEM_BONDANNOTATIONS>
10  13  8
10  15  8
11  14  8
12  16  8
13  18  8
14  17  8
15  19  8
16  17  8
18  20  8
19  20  8
6  10  3
9  11  8
9  12  8

$$$$

