10065830
  -OEChem-07051213102D

 41 44  0     0  0  0  0  0  0999 V2000
    5.4920    1.1897    0.0000 O   0  0  0  0  0  0  0  0  0  0  0  0
   10.8072   -0.6875    0.0000 O   0  0  0  0  0  0  0  0  0  0  0  0
   10.8134    0.9219    0.0000 O   0  0  0  0  0  0  0  0  0  0  0  0
    3.7320   -1.8450    0.0000 O   0  0  0  0  0  0  0  0  0  0  0  0
    2.0000    1.1550    0.0000 O   0  0  0  0  0  0  0  0  0  0  0  0
    5.4804   -1.8796    0.0000 O   0  0  0  0  0  0  0  0  0  0  0  0
    4.5981   -0.3450    0.0000 C   0  0  0  0  0  0  0  0  0  0  0  0
    7.2622   -0.8692    0.0000 C   0  0  0  0  0  0  0  0  0  0  0  0
    6.3981   -0.3658    0.0000 C   0  0  0  0  0  0  0  0  0  0  0  0
    4.5981    0.6550    0.0000 C   0  0  0  0  0  0  0  0  0  0  0  0
    5.4920   -0.8797    0.0000 C   0  0  0  0  0  0  0  0  0  0  0  0
    3.7320    1.1550    0.0000 C   0  0  0  0  0  0  0  0  0  0  0  0
    8.1301   -0.3725    0.0000 C   0  0  0  0  0  0  0  0  0  0  0  0
    3.7320   -0.8450    0.0000 C   0  0  0  0  0  0  0  0  0  0  0  0
    2.8660   -0.3450    0.0000 C   0  0  0  0  0  0  0  0  0  0  0  0
    2.8660    0.6550    0.0000 C   0  0  0  0  0  0  0  0  0  0  0  0
    6.3981    0.6758    0.0000 C   0  0  0  0  0  0  0  0  0  0  0  0
    8.9942   -0.8758    0.0000 C   0  0  0  0  0  0  0  0  0  0  0  0
    9.8622   -0.3792    0.0000 C   0  0  0  0  0  0  0  0  0  0  0  0
    8.1340    0.6275    0.0000 C   0  0  0  0  0  0  0  0  0  0  0  0
    9.8660    0.6208    0.0000 C   0  0  0  0  0  0  0  0  0  0  0  0
    3.7320    2.1550    0.0000 C   0  0  0  0  0  0  0  0  0  0  0  0
    9.0019    1.1242    0.0000 C   0  0  0  0  0  0  0  0  0  0  0  0
    2.0000   -0.8450    0.0000 C   0  0  0  0  0  0  0  0  0  0  0  0
   11.3939    0.1149    0.0000 C   0  0  0  0  0  0  0  0  0  0  0  0
    6.8618   -1.3426    0.0000 H   0  0  0  0  0  0  0  0  0  0  0  0
    7.6589   -1.3456    0.0000 H   0  0  0  0  0  0  0  0  0  0  0  0
    6.9338    0.9879    0.0000 H   0  0  0  0  0  0  0  0  0  0  0  0
    8.9918   -1.4958    0.0000 H   0  0  0  0  0  0  0  0  0  0  0  0
    7.5982    0.9396    0.0000 H   0  0  0  0  0  0  0  0  0  0  0  0
    4.3520    2.1550    0.0000 H   0  0  0  0  0  0  0  0  0  0  0  0
    3.7320    2.7750    0.0000 H   0  0  0  0  0  0  0  0  0  0  0  0
    3.1120    2.1550    0.0000 H   0  0  0  0  0  0  0  0  0  0  0  0
    9.0043    1.7442    0.0000 H   0  0  0  0  0  0  0  0  0  0  0  0
    1.6900   -0.3081    0.0000 H   0  0  0  0  0  0  0  0  0  0  0  0
    1.4631   -1.1550    0.0000 H   0  0  0  0  0  0  0  0  0  0  0  0
    2.3100   -1.3819    0.0000 H   0  0  0  0  0  0  0  0  0  0  0  0
   11.8532   -0.3016    0.0000 H   0  0  0  0  0  0  0  0  0  0  0  0
   11.8564    0.5279    0.0000 H   0  0  0  0  0  0  0  0  0  0  0  0
    3.1951   -2.1550    0.0000 H   0  0  0  0  0  0  0  0  0  0  0  0
    2.0000    1.7750    0.0000 H   0  0  0  0  0  0  0  0  0  0  0  0
  1 10  1  0  0  0  0
  1 17  1  0  0  0  0
  2 19  1  0  0  0  0
  2 25  1  0  0  0  0
  3 21  1  0  0  0  0
  3 25  1  0  0  0  0
  4 14  1  0  0  0  0
  4 40  1  0  0  0  0
  5 16  1  0  0  0  0
  5 41  1  0  0  0  0
  6 11  2  0  0  0  0
  7 10  1  0  0  0  0
  7 11  1  0  0  0  0
  7 14  2  0  0  0  0
  8  9  1  0  0  0  0
  8 13  1  0  0  0  0
  8 26  1  0  0  0  0
  8 27  1  0  0  0  0
  9 11  1  0  0  0  0
  9 17  2  0  0  0  0
 10 12  2  0  0  0  0
 12 16  1  0  0  0  0
 12 22  1  0  0  0  0
 13 18  2  0  0  0  0
 13 20  1  0  0  0  0
 14 15  1  0  0  0  0
 15 16  2  0  0  0  0
 15 24  1  0  0  0  0
 17 28  1  0  0  0  0
 18 19  1  0  0  0  0
 18 29  1  0  0  0  0
 19 21  2  0  0  0  0
 20 23  2  0  0  0  0
 20 30  1  0  0  0  0
 21 23  1  0  0  0  0
 22 31  1  0  0  0  0
 22 32  1  0  0  0  0
 22 33  1  0  0  0  0
 23 34  1  0  0  0  0
 24 35  1  0  0  0  0
 24 36  1  0  0  0  0
 24 37  1  0  0  0  0
 25 38  1  0  0  0  0
 25 39  1  0  0  0  0
M  END
> <PUBCHEM_COMPOUND_CID>
10065830

> <PUBCHEM_COMPOUND_CANONICALIZED>
1

> <PUBCHEM_CACTVS_COMPLEXITY>
560

> <PUBCHEM_CACTVS_HBOND_ACCEPTOR>
6

> <PUBCHEM_CACTVS_HBOND_DONOR>
2

> <PUBCHEM_CACTVS_ROTATABLE_BOND>
2

> <PUBCHEM_CACTVS_SUBSKEYS>
AAADceB4OAAAAAAAAAAAAAAAAAAAASAAAAAwYIAAAAAAAEiBQAAAGgAACAAADASgmAMyDoAABgCIAqBSAAACCAAkIAAIiAEGiMgdJzaGNRqgcWIl4BUOuYeI7PzOIAADCAAIQABAAAYQABCAAAAAAAAAAA==

> <PUBCHEM_IUPAC_OPENEYE_NAME>
3-(1,3-benzodioxol-5-ylmethyl)-5,7-dihydroxy-6,8-dimethyl-chromen-4-one

> <PUBCHEM_IUPAC_CAS_NAME>
3-(1,3-benzodioxol-5-ylmethyl)-5,7-dihydroxy-6,8-dimethyl-1-benzopyran-4-one

> <PUBCHEM_IUPAC_NAME>
3-(1,3-benzodioxol-5-ylmethyl)-5,7-dihydroxy-6,8-dimethylchromen-4-one

> <PUBCHEM_IUPAC_SYSTEMATIC_NAME>
3-(1,3-benzodioxol-5-ylmethyl)-6,8-dimethyl-5,7-bis(oxidanyl)chromen-4-one

> <PUBCHEM_IUPAC_TRADITIONAL_NAME>
5,7-dihydroxy-6,8-dimethyl-3-piperonyl-chromone

> <PUBCHEM_IUPAC_INCHI>
InChI=1S/C19H16O6/c1-9-16(20)10(2)19-15(17(9)21)18(22)12(7-23-19)5-11-3-4-13-14(6-11)25-8-24-13/h3-4,6-7,20-21H,5,8H2,1-2H3

> <PUBCHEM_IUPAC_INCHIKEY>
AUTZLTCWRDPAPV-UHFFFAOYSA-N

> <PUBCHEM_XLOGP3_AA>
3.9

> <PUBCHEM_EXACT_MASS>
340.094688

> <PUBCHEM_MOLECULAR_FORMULA>
C19H16O6

> <PUBCHEM_MOLECULAR_WEIGHT>
340.32674

> <PUBCHEM_OPENEYE_CAN_SMILES>
CC1=C(C2=C(C(=C1O)C)OC=C(C2=O)CC3=CC4=C(C=C3)OCO4)O

> <PUBCHEM_OPENEYE_ISO_SMILES>
CC1=C(C2=C(C(=C1O)C)OC=C(C2=O)CC3=CC4=C(C=C3)OCO4)O

> <PUBCHEM_CACTVS_TPSA>
85.2

> <PUBCHEM_MONOISOTOPIC_WEIGHT>
340.094688

> <PUBCHEM_TOTAL_CHARGE>
0

> <PUBCHEM_HEAVY_ATOM_COUNT>
25

> <PUBCHEM_ATOM_DEF_STEREO_COUNT>
0

> <PUBCHEM_ATOM_UDEF_STEREO_COUNT>
0

> <PUBCHEM_BOND_DEF_STEREO_COUNT>
0

> <PUBCHEM_BOND_UDEF_STEREO_COUNT>
0

> <PUBCHEM_ISOTOPIC_ATOM_COUNT>
0

> <PUBCHEM_COMPONENT_COUNT>
1

> <PUBCHEM_CACTVS_TAUTO_COUNT>
12

> <PUBCHEM_COORDINATE_TYPE>
1
5
255

> <PUBCHEM_BONDANNOTATIONS>
1  10  8
1  17  8
10  12  8
12  16  8
13  18  8
13  20  8
14  15  8
15  16  8
18  19  8
19  21  8
20  23  8
21  23  8
7  10  8
7  11  8
7  14  8
9  11  8
9  17  8

$$$$

