9652
  -OEChem-06261203542D

 42 42  0     1  0  0  0  0  0999 V2000
    7.5230    3.0802    0.0000 I   0  5  0  0  0  0  0  0  0  0  0  0
    0.5939    5.2078    0.0000 S   0  0  0  0  0  0  0  0  0  0  0  0
    0.4030    3.6200    0.0000 O   0  0  0  0  0  0  0  0  0  0  0  0
    3.9030    4.4860    0.0000 N   0  3  0  0  0  0  0  0  0  0  0  0
    2.9030    4.4860    0.0000 C   0  0  0  0  0  0  0  0  0  0  0  0
    2.4030    3.6200    0.0000 C   0  0  0  0  0  0  0  0  0  0  0  0
    1.4030    3.6200    0.0000 C   0  0  3  0  0  0  0  0  0  0  0  0
    4.9030    4.4860    0.0000 C   0  0  0  0  0  0  0  0  0  0  0  0
    3.9030    5.4860    0.0000 C   0  0  0  0  0  0  0  0  0  0  0  0
    3.9030    3.4860    0.0000 C   0  0  0  0  0  0  0  0  0  0  0  0
    1.4030    2.6200    0.0000 C   0  0  0  0  0  0  0  0  0  0  0  0
    1.4030    4.6200    0.0000 C   0  0  0  0  0  0  0  0  0  0  0  0
    0.5369    2.1200    0.0000 C   0  0  0  0  0  0  0  0  0  0  0  0
    2.2690    2.1200    0.0000 C   0  0  0  0  0  0  0  0  0  0  0  0
    2.2120    5.2078    0.0000 C   0  0  0  0  0  0  0  0  0  0  0  0
    1.9030    6.1588    0.0000 C   0  0  0  0  0  0  0  0  0  0  0  0
    0.5369    1.1200    0.0000 C   0  0  0  0  0  0  0  0  0  0  0  0
    2.2690    1.1200    0.0000 C   0  0  0  0  0  0  0  0  0  0  0  0
    0.9030    6.1588    0.0000 C   0  0  0  0  0  0  0  0  0  0  0  0
    1.4030    0.6200    0.0000 C   0  0  0  0  0  0  0  0  0  0  0  0
    3.0106    5.0966    0.0000 H   0  0  0  0  0  0  0  0  0  0  0  0
    2.3204    4.6981    0.0000 H   0  0  0  0  0  0  0  0  0  0  0  0
    2.2953    3.0094    0.0000 H   0  0  0  0  0  0  0  0  0  0  0  0
    2.9856    3.4080    0.0000 H   0  0  0  0  0  0  0  0  0  0  0  0
    4.9030    3.8660    0.0000 H   0  0  0  0  0  0  0  0  0  0  0  0
    3.2830    3.4860    0.0000 H   0  0  0  0  0  0  0  0  0  0  0  0
    3.9030    2.8660    0.0000 H   0  0  0  0  0  0  0  0  0  0  0  0
    4.5230    3.4860    0.0000 H   0  0  0  0  0  0  0  0  0  0  0  0
    4.5230    5.4860    0.0000 H   0  0  0  0  0  0  0  0  0  0  0  0
    3.9030    6.1060    0.0000 H   0  0  0  0  0  0  0  0  0  0  0  0
    3.2830    5.4860    0.0000 H   0  0  0  0  0  0  0  0  0  0  0  0
    5.5230    4.4860    0.0000 H   0  0  0  0  0  0  0  0  0  0  0  0
    4.9030    5.1060    0.0000 H   0  0  0  0  0  0  0  0  0  0  0  0
    0.0930    4.1569    0.0000 H   0  0  0  0  0  0  0  0  0  0  0  0
    0.0000    2.4300    0.0000 H   0  0  0  0  0  0  0  0  0  0  0  0
    2.8059    2.4300    0.0000 H   0  0  0  0  0  0  0  0  0  0  0  0
    2.8016    5.0162    0.0000 H   0  0  0  0  0  0  0  0  0  0  0  0
    2.2674    6.6604    0.0000 H   0  0  0  0  0  0  0  0  0  0  0  0
    0.0000    0.8100    0.0000 H   0  0  0  0  0  0  0  0  0  0  0  0
    2.8059    0.8100    0.0000 H   0  0  0  0  0  0  0  0  0  0  0  0
    0.5385    6.6604    0.0000 H   0  0  0  0  0  0  0  0  0  0  0  0
    1.4030    0.0000    0.0000 H   0  0  0  0  0  0  0  0  0  0  0  0
  2 12  1  0  0  0  0
  2 19  1  0  0  0  0
  3  7  1  0  0  0  0
  3 34  1  0  0  0  0
  4  5  1  0  0  0  0
  4  8  1  0  0  0  0
  4  9  1  0  0  0  0
  4 10  1  0  0  0  0
  5  6  1  0  0  0  0
  5 21  1  0  0  0  0
  5 22  1  0  0  0  0
  6  7  1  0  0  0  0
  6 23  1  0  0  0  0
  6 24  1  0  0  0  0
  7 11  1  0  0  0  0
  7 12  1  0  0  0  0
  8 25  1  0  0  0  0
  8 32  1  0  0  0  0
  8 33  1  0  0  0  0
  9 29  1  0  0  0  0
  9 30  1  0  0  0  0
  9 31  1  0  0  0  0
 10 26  1  0  0  0  0
 10 27  1  0  0  0  0
 10 28  1  0  0  0  0
 11 13  2  0  0  0  0
 11 14  1  0  0  0  0
 12 15  2  0  0  0  0
 13 17  1  0  0  0  0
 13 35  1  0  0  0  0
 14 18  2  0  0  0  0
 14 36  1  0  0  0  0
 15 16  1  0  0  0  0
 15 37  1  0  0  0  0
 16 19  2  0  0  0  0
 16 38  1  0  0  0  0
 17 20  2  0  0  0  0
 17 39  1  0  0  0  0
 18 20  1  0  0  0  0
 18 40  1  0  0  0  0
 19 41  1  0  0  0  0
 20 42  1  0  0  0  0
M  CHG  2   1  -1   4   1
M  END
> <PUBCHEM_COMPOUND_CID>
9652

> <PUBCHEM_COMPOUND_CANONICALIZED>
1

> <PUBCHEM_CACTVS_COMPLEXITY>
283

> <PUBCHEM_CACTVS_HBOND_ACCEPTOR>
3

> <PUBCHEM_CACTVS_HBOND_DONOR>
1

> <PUBCHEM_CACTVS_ROTATABLE_BOND>
5

> <PUBCHEM_CACTVS_SUBSKEYS>
AAADceB6IABAAgAAAAAAAAAAAAAAASAAAAAwAAAAAAAAAAABwAAAHgQACAAADETF2ASyAYMAAgiEAiBCAAADAIAgCBBIiBgICIgIJiKgkRCEcAAmwAEomAeQwOAOgAAAAAAAAAAAAAAAAAAAAAAAAAAAAA==

> <PUBCHEM_IUPAC_OPENEYE_NAME>
[3-hydroxy-3-phenyl-3-(2-thienyl)propyl]-trimethyl-ammonium iodide

> <PUBCHEM_IUPAC_CAS_NAME>
(3-hydroxy-3-phenyl-3-thiophen-2-ylpropyl)-trimethylammonium iodide

> <PUBCHEM_IUPAC_NAME>
(3-hydroxy-3-phenyl-3-thiophen-2-ylpropyl)-trimethylazanium iodide

> <PUBCHEM_IUPAC_SYSTEMATIC_NAME>
trimethyl-(3-oxidanyl-3-phenyl-3-thiophen-2-yl-propyl)azanium iodide

> <PUBCHEM_IUPAC_TRADITIONAL_NAME>
[3-hydroxy-3-phenyl-3-(2-thienyl)propyl]-trimethyl-ammonium iodide

> <PUBCHEM_IUPAC_INCHI>
InChI=1S/C16H22NOS.HI/c1-17(2,3)12-11-16(18,15-10-7-13-19-15)14-8-5-4-6-9-14;/h4-10,13,18H,11-12H2,1-3H3;1H/q+1;/p-1

> <PUBCHEM_IUPAC_INCHIKEY>
WSJMOXGMNDDXMQ-UHFFFAOYSA-M

> <PUBCHEM_EXACT_MASS>
403.046683

> <PUBCHEM_MOLECULAR_FORMULA>
C16H22INOS

> <PUBCHEM_MOLECULAR_WEIGHT>
403.32145

> <PUBCHEM_OPENEYE_CAN_SMILES>
C[N+](C)(C)CCC(C1=CC=CC=C1)(C2=CC=CS2)O.[I-]

> <PUBCHEM_OPENEYE_ISO_SMILES>
C[N+](C)(C)CCC(C1=CC=CC=C1)(C2=CC=CS2)O.[I-]

> <PUBCHEM_CACTVS_TPSA>
48.5

> <PUBCHEM_MONOISOTOPIC_WEIGHT>
403.046683

> <PUBCHEM_TOTAL_CHARGE>
0

> <PUBCHEM_HEAVY_ATOM_COUNT>
20

> <PUBCHEM_ATOM_DEF_STEREO_COUNT>
0

> <PUBCHEM_ATOM_UDEF_STEREO_COUNT>
1

> <PUBCHEM_BOND_DEF_STEREO_COUNT>
0

> <PUBCHEM_BOND_UDEF_STEREO_COUNT>
0

> <PUBCHEM_ISOTOPIC_ATOM_COUNT>
0

> <PUBCHEM_COMPONENT_COUNT>
2

> <PUBCHEM_CACTVS_TAUTO_COUNT>
1

> <PUBCHEM_COORDINATE_TYPE>
1
5
255

> <PUBCHEM_BONDANNOTATIONS>
11  13  8
11  14  8
12  15  8
13  17  8
14  18  8
15  16  8
16  19  8
17  20  8
18  20  8
2  12  8
2  19  8
7  3  3

$$$$

