241761
  -OEChem-07051213072D

 51 54  0     1  0  0  0  0  0999 V2000
   10.4586    0.5491    0.0000 O   0  0  0  0  0  0  0  0  0  0  0  0
    2.5357   -2.0032    0.0000 O   0  0  0  0  0  0  0  0  0  0  0  0
    7.9288    0.0491    0.0000 C   0  0  2  0  0  0  0  0  0  0  0  0
    7.9288    1.0491    0.0000 C   0  0  2  0  0  0  0  0  0  0  0  0
    7.0628   -0.4509    0.0000 C   0  0  1  0  0  0  0  0  0  0  0  0
    6.1968    0.0491    0.0000 C   0  0  1  0  0  0  0  0  0  0  0  0
    5.2868   -0.4578    0.0000 C   0  0  2  0  0  0  0  0  0  0  0  0
    7.0628    1.5491    0.0000 C   0  0  0  0  0  0  0  0  0  0  0  0
    6.1968    1.0491    0.0000 C   0  0  0  0  0  0  0  0  0  0  0  0
    8.8750   -0.2556    0.0000 C   0  0  0  0  0  0  0  0  0  0  0  0
    8.8750    1.3538    0.0000 C   0  0  0  0  0  0  0  0  0  0  0  0
    9.4586    0.5491    0.0000 C   0  0  1  0  0  0  0  0  0  0  0  0
    7.0789   -1.4924    0.0000 C   0  0  0  0  0  0  0  0  0  0  0  0
    5.2787   -1.4994    0.0000 C   0  0  0  0  0  0  0  0  0  0  0  0
    4.3599    0.1063    0.0000 C   0  0  0  0  0  0  0  0  0  0  0  0
    7.9288    2.0491    0.0000 C   0  0  0  0  0  0  0  0  0  0  0  0
    6.1808   -2.0202    0.0000 C   0  0  0  0  0  0  0  0  0  0  0  0
    5.2945    0.5422    0.0000 C   0  0  0  0  0  0  0  0  0  0  0  0
    4.3433   -2.0491    0.0000 C   0  0  0  0  0  0  0  0  0  0  0  0
    3.4120   -0.4216    0.0000 C   0  0  0  0  0  0  0  0  0  0  0  0
    3.4037   -1.5066    0.0000 C   0  0  2  0  0  0  0  0  0  0  0  0
    8.0188   -0.7961    0.0000 H   0  0  0  0  0  0  0  0  0  0  0  0
    7.8022   -0.8702    0.0000 H   0  0  0  0  0  0  0  0  0  0  0  0
    6.9329    0.4741    0.0000 H   0  0  0  0  0  0  0  0  0  0  0  0
    7.4613    2.0240    0.0000 H   0  0  0  0  0  0  0  0  0  0  0  0
    6.6643    2.0240    0.0000 H   0  0  0  0  0  0  0  0  0  0  0  0
    5.9847    1.6317    0.0000 H   0  0  0  0  0  0  0  0  0  0  0  0
    5.5862    0.9414    0.0000 H   0  0  0  0  0  0  0  0  0  0  0  0
    8.6240   -0.8226    0.0000 H   0  0  0  0  0  0  0  0  0  0  0  0
    9.4124   -0.5649    0.0000 H   0  0  0  0  0  0  0  0  0  0  0  0
    9.4124    1.6630    0.0000 H   0  0  0  0  0  0  0  0  0  0  0  0
    8.6240    1.9207    0.0000 H   0  0  0  0  0  0  0  0  0  0  0  0
    9.7404   -0.0032    0.0000 H   0  0  0  0  0  0  0  0  0  0  0  0
    7.2969   -2.0728    0.0000 H   0  0  0  0  0  0  0  0  0  0  0  0
    7.6880   -1.3769    0.0000 H   0  0  0  0  0  0  0  0  0  0  0  0
    4.7681    0.5730    0.0000 H   0  0  0  0  0  0  0  0  0  0  0  0
    3.9700    0.5884    0.0000 H   0  0  0  0  0  0  0  0  0  0  0  0
    8.5488    2.0491    0.0000 H   0  0  0  0  0  0  0  0  0  0  0  0
    7.9288    2.6691    0.0000 H   0  0  0  0  0  0  0  0  0  0  0  0
    7.3088    2.0491    0.0000 H   0  0  0  0  0  0  0  0  0  0  0  0
    6.1832   -2.6402    0.0000 H   0  0  0  0  0  0  0  0  0  0  0  0
    5.9145    0.5374    0.0000 H   0  0  0  0  0  0  0  0  0  0  0  0
    5.2993    1.1622    0.0000 H   0  0  0  0  0  0  0  0  0  0  0  0
    4.6745    0.5470    0.0000 H   0  0  0  0  0  0  0  0  0  0  0  0
    3.9460   -2.5251    0.0000 H   0  0  0  0  0  0  0  0  0  0  0  0
    4.7443   -2.5220    0.0000 H   0  0  0  0  0  0  0  0  0  0  0  0
    3.2075    0.1637    0.0000 H   0  0  0  0  0  0  0  0  0  0  0  0
    2.8004   -0.5230    0.0000 H   0  0  0  0  0  0  0  0  0  0  0  0
    2.8686   -1.1935    0.0000 H   0  0  0  0  0  0  0  0  0  0  0  0
   10.7687    1.0860    0.0000 H   0  0  0  0  0  0  0  0  0  0  0  0
    2.0000   -1.6912    0.0000 H   0  0  0  0  0  0  0  0  0  0  0  0
 12  1  1  1  0  0  0
  1 50  1  0  0  0  0
 21  2  1  1  0  0  0
  2 51  1  0  0  0  0
  3  4  1  0  0  0  0
  3  5  1  0  0  0  0
  3 10  1  0  0  0  0
  3 22  1  6  0  0  0
  4  8  1  0  0  0  0
  4 11  1  0  0  0  0
  4 16  1  1  0  0  0
  5  6  1  0  0  0  0
  5 13  1  0  0  0  0
  5 23  1  1  0  0  0
  6  7  1  0  0  0  0
  6  9  1  0  0  0  0
  6 24  1  6  0  0  0
  7 14  1  0  0  0  0
  7 15  1  0  0  0  0
  7 18  1  1  0  0  0
  8  9  1  0  0  0  0
  8 25  1  0  0  0  0
  8 26  1  0  0  0  0
  9 27  1  0  0  0  0
  9 28  1  0  0  0  0
 10 12  1  0  0  0  0
 10 29  1  0  0  0  0
 10 30  1  0  0  0  0
 11 12  1  0  0  0  0
 11 31  1  0  0  0  0
 11 32  1  0  0  0  0
 12 33  1  0  0  0  0
 13 17  1  0  0  0  0
 13 34  1  0  0  0  0
 13 35  1  0  0  0  0
 14 17  2  0  0  0  0
 14 19  1  0  0  0  0
 15 20  1  0  0  0  0
 15 36  1  0  0  0  0
 15 37  1  0  0  0  0
 16 38  1  0  0  0  0
 16 39  1  0  0  0  0
 16 40  1  0  0  0  0
 17 41  1  0  0  0  0
 18 42  1  0  0  0  0
 18 43  1  0  0  0  0
 18 44  1  0  0  0  0
 19 21  1  0  0  0  0
 19 45  1  0  0  0  0
 19 46  1  0  0  0  0
 20 21  1  0  0  0  0
 20 47  1  0  0  0  0
 20 48  1  0  0  0  0
 21 49  1  0  0  0  0
M  END
> <PUBCHEM_COMPOUND_CID>
241761

> <PUBCHEM_COMPOUND_CANONICALIZED>
1

> <PUBCHEM_CACTVS_COMPLEXITY>
470

> <PUBCHEM_CACTVS_HBOND_ACCEPTOR>
2

> <PUBCHEM_CACTVS_HBOND_DONOR>
2

> <PUBCHEM_CACTVS_ROTATABLE_BOND>
0

> <PUBCHEM_CACTVS_SUBSKEYS>
AAADceB4MAAAAAAAAAAAAAAAAAAAAYAAAAAwYIAAAAAAAGCAAAAAGgAACAAADxSggAICAAAAAgCAAiBCAAAAAAAgAAAACAAAAAgAEAIAAQAAQAAEwAAIAAOAwPAPgAAAAAAAAADAAAQAACAAAIAACAAAAA==

> <PUBCHEM_IUPAC_OPENEYE_NAME>
(3S,8S,9S,10R,13R,14S,16S)-10,13-dimethyl-2,3,4,7,8,9,11,12,14,15,16,17-dodecahydro-1H-cyclopenta[a]phenanthrene-3,16-diol

> <PUBCHEM_IUPAC_CAS_NAME>
(3S,8S,9S,10R,13R,14S,16S)-10,13-dimethyl-2,3,4,7,8,9,11,12,14,15,16,17-dodecahydro-1H-cyclopenta[a]phenanthrene-3,16-diol

> <PUBCHEM_IUPAC_NAME>
(3S,8S,9S,10R,13R,14S,16S)-10,13-dimethyl-2,3,4,7,8,9,11,12,14,15,16,17-dodecahydro-1H-cyclopenta[a]phenanthrene-3,16-diol

> <PUBCHEM_IUPAC_SYSTEMATIC_NAME>
(3S,8S,9S,10R,13R,14S,16S)-10,13-dimethyl-2,3,4,7,8,9,11,12,14,15,16,17-dodecahydro-1H-cyclopenta[a]phenanthrene-3,16-diol

> <PUBCHEM_IUPAC_TRADITIONAL_NAME>
(3S,8S,9S,10R,13R,14S,16S)-10,13-dimethyl-2,3,4,7,8,9,11,12,14,15,16,17-dodecahydro-1H-cyclopenta[a]phenanthrene-3,16-diol

> <PUBCHEM_IUPAC_INCHI>
InChI=1S/C19H30O2/c1-18-7-6-16-15(17(18)10-14(21)11-18)4-3-12-9-13(20)5-8-19(12,16)2/h3,13-17,20-21H,4-11H2,1-2H3/t13-,14-,15+,16-,17-,18+,19-/m0/s1

> <PUBCHEM_IUPAC_INCHIKEY>
CVCDJRPXEWJAAY-DSEYRMEUSA-N

> <PUBCHEM_XLOGP3>
3.7

> <PUBCHEM_EXACT_MASS>
290.22458

> <PUBCHEM_MOLECULAR_FORMULA>
C19H30O2

> <PUBCHEM_MOLECULAR_WEIGHT>
290.4403

> <PUBCHEM_OPENEYE_CAN_SMILES>
CC12CCC3C(C1CC(C2)O)CC=C4C3(CCC(C4)O)C

> <PUBCHEM_OPENEYE_ISO_SMILES>
C[C@]12CC[C@H]3[C@H]([C@@H]1C[C@@H](C2)O)CC=C4[C@@]3(CC[C@@H](C4)O)C

> <PUBCHEM_CACTVS_TPSA>
40.5

> <PUBCHEM_MONOISOTOPIC_WEIGHT>
290.22458

> <PUBCHEM_TOTAL_CHARGE>
0

> <PUBCHEM_HEAVY_ATOM_COUNT>
21

> <PUBCHEM_ATOM_DEF_STEREO_COUNT>
7

> <PUBCHEM_ATOM_UDEF_STEREO_COUNT>
0

> <PUBCHEM_BOND_DEF_STEREO_COUNT>
0

> <PUBCHEM_BOND_UDEF_STEREO_COUNT>
0

> <PUBCHEM_ISOTOPIC_ATOM_COUNT>
0

> <PUBCHEM_COMPONENT_COUNT>
1

> <PUBCHEM_CACTVS_TAUTO_COUNT>
1

> <PUBCHEM_COORDINATE_TYPE>
1
5
255

> <PUBCHEM_BONDANNOTATIONS>
12  1  5
21  2  5
3  22  6
4  16  5
5  23  5
6  24  6
7  18  5

$$$$

