10050645
  -OEChem-07051213102D

 41 43  0     1  0  0  0  0  0999 V2000
    3.5000   -2.0047    0.0000 Br  0  0  0  0  0  0  0  0  0  0  0  0
    3.5000    1.4594    0.0000 Br  0  0  0  0  0  0  0  0  0  0  0  0
    6.0878   -1.0817    0.0000 O   0  0  0  0  0  0  0  0  0  0  0  0
    5.5000   -2.0047    0.0000 O   0  0  0  0  0  0  0  0  0  0  0  0
    2.5000   -0.2727    0.0000 O   0  0  0  0  0  0  0  0  0  0  0  0
    7.7433    1.8096    0.0000 O   0  0  0  0  0  0  0  0  0  0  0  0
    7.0388   -0.7727    0.0000 N   0  0  0  0  0  0  0  0  0  0  0  0
    8.7614    0.4084    0.0000 N   0  0  0  0  0  0  0  0  0  0  0  0
   11.2930    2.1772    0.0000 N   0  0  0  0  0  0  0  0  0  0  0  0
   12.8318    1.6772    0.0000 N   0  0  0  0  0  0  0  0  0  0  0  0
    5.5000   -0.2727    0.0000 C   0  0  2  0  0  0  0  0  0  0  0  0
    6.0878    0.5364    0.0000 C   0  0  0  0  0  0  0  0  0  0  0  0
    5.0000   -1.1387    0.0000 C   0  0  2  0  0  0  0  0  0  0  0  0
    5.0000    0.5934    0.0000 C   0  0  0  0  0  0  0  0  0  0  0  0
    7.0388    0.2273    0.0000 C   0  0  0  0  0  0  0  0  0  0  0  0
    4.0000   -1.1387    0.0000 C   0  0  0  0  0  0  0  0  0  0  0  0
    4.0000    0.5934    0.0000 C   0  0  0  0  0  0  0  0  0  0  0  0
    3.5000   -0.2727    0.0000 C   0  0  0  0  0  0  0  0  0  0  0  0
    7.8479    0.8151    0.0000 C   0  0  0  0  0  0  0  0  0  0  0  0
    9.5704    0.9962    0.0000 C   0  0  0  0  0  0  0  0  0  0  0  0
   10.4840    0.5894    0.0000 C   0  0  0  0  0  0  0  0  0  0  0  0
   11.2930    1.1772    0.0000 C   0  0  0  0  0  0  0  0  0  0  0  0
    2.0000    0.5934    0.0000 C   0  0  0  0  0  0  0  0  0  0  0  0
   12.2440    0.8682    0.0000 C   0  0  0  0  0  0  0  0  0  0  0  0
   12.2440    2.4862    0.0000 C   0  0  0  0  0  0  0  0  0  0  0  0
    6.3400    1.1027    0.0000 H   0  0  0  0  0  0  0  0  0  0  0  0
    5.5508    0.8464    0.0000 H   0  0  0  0  0  0  0  0  0  0  0  0
    4.6900   -1.6756    0.0000 H   0  0  0  0  0  0  0  0  0  0  0  0
    5.3100    1.1303    0.0000 H   0  0  0  0  0  0  0  0  0  0  0  0
    5.1900   -2.5417    0.0000 H   0  0  0  0  0  0  0  0  0  0  0  0
    8.8262   -0.2082    0.0000 H   0  0  0  0  0  0  0  0  0  0  0  0
    9.9171    1.5102    0.0000 H   0  0  0  0  0  0  0  0  0  0  0  0
    9.1244    1.4269    0.0000 H   0  0  0  0  0  0  0  0  0  0  0  0
   10.1373    0.0754    0.0000 H   0  0  0  0  0  0  0  0  0  0  0  0
   10.9300    0.1587    0.0000 H   0  0  0  0  0  0  0  0  0  0  0  0
    2.5369    0.9034    0.0000 H   0  0  0  0  0  0  0  0  0  0  0  0
    1.6900    1.1303    0.0000 H   0  0  0  0  0  0  0  0  0  0  0  0
    1.4631    0.2834    0.0000 H   0  0  0  0  0  0  0  0  0  0  0  0
   10.7914    2.5417    0.0000 H   0  0  0  0  0  0  0  0  0  0  0  0
   12.4356    0.2785    0.0000 H   0  0  0  0  0  0  0  0  0  0  0  0
   12.4356    3.0759    0.0000 H   0  0  0  0  0  0  0  0  0  0  0  0
  1 16  1  0  0  0  0
  2 17  1  0  0  0  0
  3  7  1  0  0  0  0
 11  3  1  6  0  0  0
 13  4  1  1  0  0  0
  4 30  1  0  0  0  0
  5 18  1  0  0  0  0
  5 23  1  0  0  0  0
  6 19  2  0  0  0  0
  7 15  2  0  0  0  0
  8 19  1  0  0  0  0
  8 20  1  0  0  0  0
  8 31  1  0  0  0  0
  9 22  1  0  0  0  0
  9 25  1  0  0  0  0
  9 39  1  0  0  0  0
 10 24  1  0  0  0  0
 10 25  2  0  0  0  0
 11 12  1  0  0  0  0
 11 13  1  0  0  0  0
 11 14  1  0  0  0  0
 12 15  1  0  0  0  0
 12 26  1  0  0  0  0
 12 27  1  0  0  0  0
 13 16  1  0  0  0  0
 13 28  1  0  0  0  0
 14 17  2  0  0  0  0
 14 29  1  0  0  0  0
 15 19  1  0  0  0  0
 16 18  2  0  0  0  0
 17 18  1  0  0  0  0
 20 21  1  0  0  0  0
 20 32  1  0  0  0  0
 20 33  1  0  0  0  0
 21 22  1  0  0  0  0
 21 34  1  0  0  0  0
 21 35  1  0  0  0  0
 22 24  2  0  0  0  0
 23 36  1  0  0  0  0
 23 37  1  0  0  0  0
 23 38  1  0  0  0  0
 24 40  1  0  0  0  0
 25 41  1  0  0  0  0
M  END
> <PUBCHEM_COMPOUND_CID>
10050645

> <PUBCHEM_COMPOUND_CANONICALIZED>
1

> <PUBCHEM_CACTVS_COMPLEXITY>
651

> <PUBCHEM_CACTVS_HBOND_ACCEPTOR>
6

> <PUBCHEM_CACTVS_HBOND_DONOR>
3

> <PUBCHEM_CACTVS_ROTATABLE_BOND>
5

> <PUBCHEM_CACTVS_SUBSKEYS>
AAADceBzuAAAGAAAAAAAAAAAAAAAAWIAAAAgAAAAAAAAAAABgAAAHgBUCAABjFzhlgYvkBbZlgCoATV3dAAAiC2xMqABWYE4cCiJfBJA6QEUUAAM1gLJ8CO6HAJOAAAAAAAAAAAAAAAAAAAAAAAAAAAAAA==

> <PUBCHEM_IUPAC_OPENEYE_NAME>
(6S,10R)-7,9-dibromo-10-hydroxy-N-[2-(1H-imidazol-5-yl)ethyl]-8-methoxy-1-oxa-2-azaspiro[4.5]deca-2,6,8-triene-3-carboxamide

> <PUBCHEM_IUPAC_CAS_NAME>
(6S,10R)-7,9-dibromo-10-hydroxy-N-[2-(1H-imidazol-5-yl)ethyl]-8-methoxy-1-oxa-2-azaspiro[4.5]deca-2,6,8-triene-3-carboxamide

> <PUBCHEM_IUPAC_NAME>
(6S,10R)-7,9-dibromo-10-hydroxy-N-[2-(1H-imidazol-5-yl)ethyl]-8-methoxy-1-oxa-2-azaspiro[4.5]deca-2,6,8-triene-3-carboxamide

> <PUBCHEM_IUPAC_SYSTEMATIC_NAME>
(6S,10R)-7,9-bis(bromanyl)-N-[2-(1H-imidazol-5-yl)ethyl]-8-methoxy-10-oxidanyl-1-oxa-2-azaspiro[4.5]deca-2,6,8-triene-3-carboxamide

> <PUBCHEM_IUPAC_TRADITIONAL_NAME>
(6S,10R)-7,9-dibromo-10-hydroxy-N-[2-(1H-imidazol-5-yl)ethyl]-8-methoxy-1-oxa-2-azaspiro[4.5]deca-2,6,8-triene-3-carboxamide

> <PUBCHEM_IUPAC_INCHI>
InChI=1S/C15H16Br2N4O4/c1-24-12-9(16)4-15(13(22)11(12)17)5-10(21-25-15)14(23)19-3-2-8-6-18-7-20-8/h4,6-7,13,22H,2-3,5H2,1H3,(H,18,20)(H,19,23)/t13-,15+/m0/s1

> <PUBCHEM_IUPAC_INCHIKEY>
MDUQIEXQKMPARD-DZGCQCFKSA-N

> <PUBCHEM_XLOGP3_AA>
0.4

> <PUBCHEM_EXACT_MASS>
475.951783

> <PUBCHEM_MOLECULAR_FORMULA>
C15H16Br2N4O4

> <PUBCHEM_MOLECULAR_WEIGHT>
476.11994

> <PUBCHEM_OPENEYE_CAN_SMILES>
COC1=C(C(C2(CC(=NO2)C(=O)NCCC3=CN=CN3)C=C1Br)O)Br

> <PUBCHEM_OPENEYE_ISO_SMILES>
COC1=C([C@@H]([C@]2(CC(=NO2)C(=O)NCCC3=CN=CN3)C=C1Br)O)Br

> <PUBCHEM_CACTVS_TPSA>
109

> <PUBCHEM_MONOISOTOPIC_WEIGHT>
473.953829

> <PUBCHEM_TOTAL_CHARGE>
0

> <PUBCHEM_HEAVY_ATOM_COUNT>
25

> <PUBCHEM_ATOM_DEF_STEREO_COUNT>
2

> <PUBCHEM_ATOM_UDEF_STEREO_COUNT>
0

> <PUBCHEM_BOND_DEF_STEREO_COUNT>
0

> <PUBCHEM_BOND_UDEF_STEREO_COUNT>
0

> <PUBCHEM_ISOTOPIC_ATOM_COUNT>
0

> <PUBCHEM_COMPONENT_COUNT>
1

> <PUBCHEM_CACTVS_TAUTO_COUNT>
8

> <PUBCHEM_COORDINATE_TYPE>
1
5
255

> <PUBCHEM_BONDANNOTATIONS>
10  24  8
10  25  8
22  24  8
11  3  6
13  4  5
9  22  8
9  25  8

$$$$

