5281633
  -OEChem-07051212582D

 53 55  0     0  0  0  0  0  0999 V2000
    4.6660   -0.1481    0.0000 O   0  0  0  0  0  0  0  0  0  0  0  0
    8.1962   -0.1723    0.0000 O   0  0  0  0  0  0  0  0  0  0  0  0
    6.4144    2.8864    0.0000 O   0  0  0  0  0  0  0  0  0  0  0  0
    4.6660    2.8519    0.0000 O   0  0  0  0  0  0  0  0  0  0  0  0
    2.9176    2.8864    0.0000 O   0  0  0  0  0  0  0  0  0  0  0  0
    2.9176   -1.1827    0.0000 O   0  0  0  0  0  0  0  0  0  0  0  0
    6.4260   -0.1828    0.0000 C   0  0  0  0  0  0  0  0  0  0  0  0
    5.5321    0.3519    0.0000 C   0  0  0  0  0  0  0  0  0  0  0  0
    5.5321    1.3518    0.0000 C   0  0  0  0  0  0  0  0  0  0  0  0
    7.3321    1.3727    0.0000 C   0  0  0  0  0  0  0  0  0  0  0  0
    7.3321    0.3310    0.0000 C   0  0  0  0  0  0  0  0  0  0  0  0
    6.4260    1.8865    0.0000 C   0  0  0  0  0  0  0  0  0  0  0  0
    6.4144   -1.1827    0.0000 C   0  0  0  0  0  0  0  0  0  0  0  0
    4.6660    1.8518    0.0000 C   0  0  0  0  0  0  0  0  0  0  0  0
    8.1962    1.8760    0.0000 C   0  0  0  0  0  0  0  0  0  0  0  0
    3.8000    1.3518    0.0000 C   0  0  0  0  0  0  0  0  0  0  0  0
    3.8000    0.3519    0.0000 C   0  0  0  0  0  0  0  0  0  0  0  0
    7.2746   -1.6927    0.0000 C   0  0  0  0  0  0  0  0  0  0  0  0
    2.9061    1.8865    0.0000 C   0  0  0  0  0  0  0  0  0  0  0  0
    9.0641    1.3793    0.0000 C   0  0  0  0  0  0  0  0  0  0  0  0
    2.9061   -0.1828    0.0000 C   0  0  0  0  0  0  0  0  0  0  0  0
    2.0000    1.3727    0.0000 C   0  0  0  0  0  0  0  0  0  0  0  0
    7.2631   -2.6927    0.0000 C   0  0  0  0  0  0  0  0  0  0  0  0
    2.0000    0.3310    0.0000 C   0  0  0  0  0  0  0  0  0  0  0  0
    9.9282    1.8827    0.0000 C   0  0  0  0  0  0  0  0  0  0  0  0
    8.1232   -3.2026    0.0000 C   0  0  0  0  0  0  0  0  0  0  0  0
    6.3913   -3.1826    0.0000 C   0  0  0  0  0  0  0  0  0  0  0  0
   10.7961    1.3860    0.0000 C   0  0  0  0  0  0  0  0  0  0  0  0
    9.9243    2.8827    0.0000 C   0  0  0  0  0  0  0  0  0  0  0  0
    5.8051   -1.0680    0.0000 H   0  0  0  0  0  0  0  0  0  0  0  0
    6.1957   -1.7629    0.0000 H   0  0  0  0  0  0  0  0  0  0  0  0
    8.5929    2.3525    0.0000 H   0  0  0  0  0  0  0  0  0  0  0  0
    7.7958    2.3494    0.0000 H   0  0  0  0  0  0  0  0  0  0  0  0
    7.8151   -1.3889    0.0000 H   0  0  0  0  0  0  0  0  0  0  0  0
    9.0665    0.7593    0.0000 H   0  0  0  0  0  0  0  0  0  0  0  0
    1.4643    1.6847    0.0000 H   0  0  0  0  0  0  0  0  0  0  0  0
    1.4643    0.0190    0.0000 H   0  0  0  0  0  0  0  0  0  0  0  0
    8.7343    0.1356    0.0000 H   0  0  0  0  0  0  0  0  0  0  0  0
    6.9478    3.2026    0.0000 H   0  0  0  0  0  0  0  0  0  0  0  0
    6.0875   -2.6421    0.0000 H   0  0  0  0  0  0  0  0  0  0  0  0
    5.8508   -3.4864    0.0000 H   0  0  0  0  0  0  0  0  0  0  0  0
    6.6951   -3.7231    0.0000 H   0  0  0  0  0  0  0  0  0  0  0  0
    7.8071   -3.7360    0.0000 H   0  0  0  0  0  0  0  0  0  0  0  0
    8.6566   -3.5188    0.0000 H   0  0  0  0  0  0  0  0  0  0  0  0
    8.4394   -2.6693    0.0000 H   0  0  0  0  0  0  0  0  0  0  0  0
   10.4882    0.8479    0.0000 H   0  0  0  0  0  0  0  0  0  0  0  0
   11.3343    1.0781    0.0000 H   0  0  0  0  0  0  0  0  0  0  0  0
   10.5443    2.8851    0.0000 H   0  0  0  0  0  0  0  0  0  0  0  0
    9.9220    3.5027    0.0000 H   0  0  0  0  0  0  0  0  0  0  0  0
    9.3044    2.8803    0.0000 H   0  0  0  0  0  0  0  0  0  0  0  0
   11.1041    1.9242    0.0000 H   0  0  0  0  0  0  0  0  0  0  0  0
    2.3843    3.2026    0.0000 H   0  0  0  0  0  0  0  0  0  0  0  0
    2.3843   -1.4989    0.0000 H   0  0  0  0  0  0  0  0  0  0  0  0
  1  8  1  0  0  0  0
  1 17  1  0  0  0  0
  2 11  1  0  0  0  0
  2 38  1  0  0  0  0
  3 12  1  0  0  0  0
  3 39  1  0  0  0  0
  4 14  2  0  0  0  0
  5 19  1  0  0  0  0
  5 52  1  0  0  0  0
  6 21  1  0  0  0  0
  6 53  1  0  0  0  0
  7  8  2  0  0  0  0
  7 11  1  0  0  0  0
  7 13  1  0  0  0  0
  8  9  1  0  0  0  0
  9 12  2  0  0  0  0
  9 14  1  0  0  0  0
 10 11  2  0  0  0  0
 10 12  1  0  0  0  0
 10 15  1  0  0  0  0
 13 18  1  0  0  0  0
 13 30  1  0  0  0  0
 13 31  1  0  0  0  0
 14 16  1  0  0  0  0
 15 20  1  0  0  0  0
 15 32  1  0  0  0  0
 15 33  1  0  0  0  0
 16 17  1  0  0  0  0
 16 19  2  0  0  0  0
 17 21  2  0  0  0  0
 18 23  2  0  0  0  0
 18 34  1  0  0  0  0
 19 22  1  0  0  0  0
 20 25  2  0  0  0  0
 20 35  1  0  0  0  0
 21 24  1  0  0  0  0
 22 24  2  0  0  0  0
 22 36  1  0  0  0  0
 23 26  1  0  0  0  0
 23 27  1  0  0  0  0
 24 37  1  0  0  0  0
 25 28  1  0  0  0  0
 25 29  1  0  0  0  0
 26 43  1  0  0  0  0
 26 44  1  0  0  0  0
 26 45  1  0  0  0  0
 27 40  1  0  0  0  0
 27 41  1  0  0  0  0
 27 42  1  0  0  0  0
 28 46  1  0  0  0  0
 28 47  1  0  0  0  0
 28 51  1  0  0  0  0
 29 48  1  0  0  0  0
 29 49  1  0  0  0  0
 29 50  1  0  0  0  0
M  END
> <PUBCHEM_COMPOUND_CID>
5281633

> <PUBCHEM_COMPOUND_CANONICALIZED>
1

> <PUBCHEM_CACTVS_COMPLEXITY>
662

> <PUBCHEM_CACTVS_HBOND_ACCEPTOR>
6

> <PUBCHEM_CACTVS_HBOND_DONOR>
4

> <PUBCHEM_CACTVS_ROTATABLE_BOND>
4

> <PUBCHEM_CACTVS_SUBSKEYS>
AAADceB4OAAAAAAAAAAAAAAAAAAAAAAAAAA0YIAAAAAAAACRQAAAGgAACAAADASAmAAyBoAABgCIAqBSAAACCAAkIAAIiAEGiMgNJzaGNRqCeWOl4BULuQfK7PzOIQADCAAIQABCAAYQABCAAAAAAAAAAA==

> <PUBCHEM_IUPAC_OPENEYE_NAME>
1,3,5,8-tetrahydroxy-2,4-bis(3-methylbut-2-enyl)xanthen-9-one

> <PUBCHEM_IUPAC_CAS_NAME>
1,3,5,8-tetrahydroxy-2,4-bis(3-methylbut-2-enyl)-9-xanthenone

> <PUBCHEM_IUPAC_NAME>
1,3,5,8-tetrahydroxy-2,4-bis(3-methylbut-2-enyl)xanthen-9-one

> <PUBCHEM_IUPAC_SYSTEMATIC_NAME>
2,4-bis(3-methylbut-2-enyl)-1,3,5,8-tetrakis(oxidanyl)xanthen-9-one

> <PUBCHEM_IUPAC_TRADITIONAL_NAME>
1,3,5,8-tetrahydroxy-2,4-bis(3-methylbut-2-enyl)xanthone

> <PUBCHEM_IUPAC_INCHI>
InChI=1S/C23H24O6/c1-11(2)5-7-13-19(26)14(8-6-12(3)4)22-18(20(13)27)21(28)17-15(24)9-10-16(25)23(17)29-22/h5-6,9-10,24-27H,7-8H2,1-4H3

> <PUBCHEM_IUPAC_INCHIKEY>
OJXQLGQIDIPMTE-UHFFFAOYSA-N

> <PUBCHEM_XLOGP3_AA>
5.9

> <PUBCHEM_EXACT_MASS>
396.157288

> <PUBCHEM_MOLECULAR_FORMULA>
C23H24O6

> <PUBCHEM_MOLECULAR_WEIGHT>
396.43306

> <PUBCHEM_OPENEYE_CAN_SMILES>
CC(=CCC1=C(C2=C(C(=C1O)CC=C(C)C)OC3=C(C=CC(=C3C2=O)O)O)O)C

> <PUBCHEM_OPENEYE_ISO_SMILES>
CC(=CCC1=C(C2=C(C(=C1O)CC=C(C)C)OC3=C(C=CC(=C3C2=O)O)O)O)C

> <PUBCHEM_CACTVS_TPSA>
107

> <PUBCHEM_MONOISOTOPIC_WEIGHT>
396.157288

> <PUBCHEM_TOTAL_CHARGE>
0

> <PUBCHEM_HEAVY_ATOM_COUNT>
29

> <PUBCHEM_ATOM_DEF_STEREO_COUNT>
0

> <PUBCHEM_ATOM_UDEF_STEREO_COUNT>
0

> <PUBCHEM_BOND_DEF_STEREO_COUNT>
0

> <PUBCHEM_BOND_UDEF_STEREO_COUNT>
0

> <PUBCHEM_ISOTOPIC_ATOM_COUNT>
0

> <PUBCHEM_COMPONENT_COUNT>
1

> <PUBCHEM_CACTVS_TAUTO_COUNT>
102

> <PUBCHEM_COORDINATE_TYPE>
1
5
255

> <PUBCHEM_BONDANNOTATIONS>
1  17  8
1  8  8
10  11  8
10  12  8
14  16  8
16  17  8
16  19  8
17  21  8
19  22  8
21  24  8
22  24  8
7  11  8
7  8  8
8  9  8
9  12  8
9  14  8

$$$$

