   Color/Form

     * Fine, white powder
     * ... Colorless crystals ... .

   from [1]HSDB

   Boiling Point
        295.9 deg C @ 760 mm Hg
   from [2]HSDB

   Melting Point
        71-72 deg C
   from [3]HSDB

   Density/Specific Gravity
        1.20 @ 20 deg C
   from [4]HSDB

   Dissociation Constants
        Much less than 0
   from [5]HSDB

   Octanol/Water Partition Coefficient
        log Kow = 1.65
   from [6]HSDB

   Solubilities

     * In ethanol 400, acetone 450, toluene 340, n-hexane 11, n-octanol 68
       (all g/l at 25 deg C)
     * In water, 8,400 mg/l @ 22 deg C

   from [7]HSDB

   Vapor Pressure
        5.62X10-6 mm Hg @ 25 deg C
   from [8]HSDB

   Other Chemical/Physical Properties

     * MP = 63.5-72.3 deg C /Technical/
     * Vapor pressure: 293 uPa at 20 deg C

   from [9]HSDB

   Computed Properties
   Molecular Weight                  279.33154 [g/mol]
   Molecular Formula                 C[15]H[21]NO[4]
   XLogP3                            1.6
   H-Bond Donor                      0
   H-Bond Acceptor                   4
   Rotatable Bond Count              6
   Exact Mass                        279.147058
   MonoIsotopic Mass                 279.147058
   Topological Polar Surface Area    55.8
   Heavy Atom Count                  20
   Formal Charge                     0
   Complexity                        335
   Isotope Atom Count                0
   Defined Atom Stereocenter Count   0
   Undefined Atom Stereocenter Count 1
   Defined Bond Stereocenter Count   0
   Undefined Bond Stereocenter Count 0
   Covalently-Bonded Unit Count      1
   Feature 3D Acceptor Count         3
   Feature 3D Ring Count             1
   Effective Rotor Count             7
   Conformer Sampling RMSD           0.8
   CID Conformer Count               [10]47

References

   1. http://toxnet.nlm.nih.gov/cgi-bin/sis/search/r?dbs+hsdb:@term+@rn+@rel+57837-19-1
   2. http://toxnet.nlm.nih.gov/cgi-bin/sis/search/r?dbs+hsdb:@term+@rn+@rel+57837-19-1
   3. http://toxnet.nlm.nih.gov/cgi-bin/sis/search/r?dbs+hsdb:@term+@rn+@rel+57837-19-1
   4. http://toxnet.nlm.nih.gov/cgi-bin/sis/search/r?dbs+hsdb:@term+@rn+@rel+57837-19-1
   5. http://toxnet.nlm.nih.gov/cgi-bin/sis/search/r?dbs+hsdb:@term+@rn+@rel+57837-19-1
   6. http://toxnet.nlm.nih.gov/cgi-bin/sis/search/r?dbs+hsdb:@term+@rn+@rel+57837-19-1
   7. http://toxnet.nlm.nih.gov/cgi-bin/sis/search/r?dbs+hsdb:@term+@rn+@rel+57837-19-1
   8. http://toxnet.nlm.nih.gov/cgi-bin/sis/search/r?dbs+hsdb:@term+@rn+@rel+57837-19-1
   9. http://toxnet.nlm.nih.gov/cgi-bin/sis/search/r?dbs+hsdb:@term+@rn+@rel+57837-19-1
  10. http://pubchem.ncbi.nlm.nih.gov/vw3d/vw3d.cgi?cid=42586
