   Color/Form

     * Light yellow, slender monoclinic prisms by sublimation in vacuo.
       Almost colorless, orthorhombic, bipyramidal crystals from sulfuric
       acid and water.
     * Yellow rhombic needles from alcohol, benzene
     * Yellow-green crystals

   from [1]HSDB

   Odor
        Aromatic odor (technical)
   from [2]HSDB

   Boiling Point
        377 deg C at 760 mm Hg
   from [3]HSDB

   Melting Point
        286 deg C
   from [4]HSDB

   Density/Specific Gravity
        1.42-1.44 at 20 deg C/4 deg C
   from [5]HSDB

   Octanol/Water Partition Coefficient
        log Kow = 3.39
   from [6]HSDB

   Solubilities

     * 0.44 g/100 g alc at 25 deg C; 2.25 g/100 g boiling alc; 0.11 g/100
       g ether at 25 deg C; 0.61 g/100 g chloroform at 20 deg C; 0.26
       g/100 g benzene at 20 deg C; 0.30 g/100 g toluene at 25 deg C
     * SOL IN CONCN SULFURIC ACID
     * Soluble in acetone
     * In water, 1.353 mg/L at 25 deg C

   from [7]HSDB

   Spectral Properties

     * MAX ABSORPTION (ALCOHOL): 252 NM (LOG E= 4.7), 278 NM (LOG E= 4.1),
       330 NM (LOG E= 3.7); SADTLER REF NUMBER: 1815 (IR, PRISM); 508 (UV)
     * Intense mass spectral peaks: 208 m/z (100%), 180 m/z (96%), 152 m/z
       (75%), 151 m/z (38%)
     * IR: 279 (Sadtler Research Laboratories IR Grating Collection)
     * UV: 815 (Absorption Spectra in the UV and visible Regions, Academic
       Press, New York)
     * MASS: 61196 (NIST/EPA/MSDC Mass Spectral Database, 1990 version)
     * Raman: 997 (Sadtler Research Laboratories research collection)
     * The UV spectrum exhibits four bands - 251 nm (Emax = 54000), 279
       (Emax = 17600), 321 nm (Emax = 4800), 377 nm (Emax = 110)

   from [8]HSDB

   Vapor Density
        7.16 (Air = 1)
   from [9]HSDB

   Vapor Pressure
        1.16X10-7 mm Hg at 25 deg C
   from [10]HSDB

   Other Chemical/Physical Properties

     * Vapor pressure = 1 mm Hg at 190.0 deg C
     * Liquid Molar Volume = 0.193625 cu m/kmol; IG Heat of Formation =
       -9.52X10+7 J/kmol; Heat Fusion at Melting Point = 3.2552X10+7
       J/kmol
     * Anthraquinone is sublimed easily without decomposition ...
       Anthraquinone dissolves in 90% sulfuric acid giving a yellow to
       orange solution, and in oleum (20% SO3), giving a red solution.
     * Henry's Law constant = 2.35X10-8 atm-cu m/mole at 25 deg C (est)
     * Hydroxyl radical reaction rate constant = 1.5X10-12 cu
       cm/molecule-sec at 25 deg C (est)

   from [11]HSDB

   Computed Properties
   Molecular Weight                  208.21212 [g/mol]
   Molecular Formula                 C[14]H[8]O[2]
   XLogP3                            3.4
   H-Bond Donor                      0
   H-Bond Acceptor                   2
   Rotatable Bond Count              0
   Exact Mass                        208.052429
   MonoIsotopic Mass                 208.052429
   Topological Polar Surface Area    34.1
   Heavy Atom Count                  16
   Formal Charge                     0
   Complexity                        261
   Isotope Atom Count                0
   Defined Atom Stereocenter Count   0
   Undefined Atom Stereocenter Count 0
   Defined Bond Stereocenter Count   0
   Undefined Bond Stereocenter Count 0
   Covalently-Bonded Unit Count      1
   Feature 3D Acceptor Count         2
   Feature 3D Ring Count             3
   Effective Rotor Count             0
   Conformer Sampling RMSD           0.4
   CID Conformer Count               [12]1

References

   1. http://toxnet.nlm.nih.gov/cgi-bin/sis/search/r?dbs+hsdb:@term+@rn+@rel+84-65-1
   2. http://toxnet.nlm.nih.gov/cgi-bin/sis/search/r?dbs+hsdb:@term+@rn+@rel+84-65-1
   3. http://toxnet.nlm.nih.gov/cgi-bin/sis/search/r?dbs+hsdb:@term+@rn+@rel+84-65-1
   4. http://toxnet.nlm.nih.gov/cgi-bin/sis/search/r?dbs+hsdb:@term+@rn+@rel+84-65-1
   5. http://toxnet.nlm.nih.gov/cgi-bin/sis/search/r?dbs+hsdb:@term+@rn+@rel+84-65-1
   6. http://toxnet.nlm.nih.gov/cgi-bin/sis/search/r?dbs+hsdb:@term+@rn+@rel+84-65-1
   7. http://toxnet.nlm.nih.gov/cgi-bin/sis/search/r?dbs+hsdb:@term+@rn+@rel+84-65-1
   8. http://toxnet.nlm.nih.gov/cgi-bin/sis/search/r?dbs+hsdb:@term+@rn+@rel+84-65-1
   9. http://toxnet.nlm.nih.gov/cgi-bin/sis/search/r?dbs+hsdb:@term+@rn+@rel+84-65-1
  10. http://toxnet.nlm.nih.gov/cgi-bin/sis/search/r?dbs+hsdb:@term+@rn+@rel+84-65-1
  11. http://toxnet.nlm.nih.gov/cgi-bin/sis/search/r?dbs+hsdb:@term+@rn+@rel+84-65-1
  12. http://pubchem.ncbi.nlm.nih.gov/vw3d/vw3d.cgi?cid=6780
