582727
  -OEChem-06241222432D

 42 43  0     1  0  0  0  0  0999 V2000
    3.0000   -0.4330    0.0000 S   0  0  0  0  0  0  0  0  0  0  0  0
    5.1276    2.0254    0.0000 O   0  0  0  0  0  0  0  0  0  0  0  0
    4.3660    2.9330    0.0000 O   0  0  0  0  0  0  0  0  0  0  0  0
    4.0000   -0.4330    0.0000 O   0  0  0  0  0  0  0  0  0  0  0  0
    2.0000   -0.4330    0.0000 O   0  0  0  0  0  0  0  0  0  0  0  0
    4.8268    0.3197    0.0000 O   0  0  0  0  0  0  0  0  0  0  0  0
    2.6340    2.9330    0.0000 O   0  0  0  0  0  0  0  0  0  0  0  0
    3.0000    0.5670    0.0000 N   0  0  3  0  0  0  0  0  0  0  0  0
    3.5000    1.4330    0.0000 C   0  0  0  0  0  0  0  0  0  0  0  0
    2.5000    1.4330    0.0000 C   0  0  0  0  0  0  0  0  0  0  0  0
    3.5000    2.4330    0.0000 C   0  0  0  0  0  0  0  0  0  0  0  0
    4.4848    1.2594    0.0000 C   0  0  0  0  0  0  0  0  0  0  0  0
    3.0000   -1.4330    0.0000 C   0  0  0  0  0  0  0  0  0  0  0  0
    2.1340   -1.9330    0.0000 C   0  0  0  0  0  0  0  0  0  0  0  0
    3.8660   -1.9330    0.0000 C   0  0  0  0  0  0  0  0  0  0  0  0
    4.3660    3.9330    0.0000 C   0  0  0  0  0  0  0  0  0  0  0  0
    6.1124    1.8518    0.0000 C   0  0  0  0  0  0  0  0  0  0  0  0
    2.1340   -2.9330    0.0000 C   0  0  0  0  0  0  0  0  0  0  0  0
    3.8660   -2.9330    0.0000 C   0  0  0  0  0  0  0  0  0  0  0  0
    3.0000   -3.4330    0.0000 C   0  0  0  0  0  0  0  0  0  0  0  0
    5.2320    4.4330    0.0000 C   0  0  0  0  0  0  0  0  0  0  0  0
    6.7552    2.6178    0.0000 C   0  0  0  0  0  0  0  0  0  0  0  0
    3.0000   -4.4330    0.0000 C   0  0  0  0  0  0  0  0  0  0  0  0
    2.3923    2.0436    0.0000 H   0  0  0  0  0  0  0  0  0  0  0  0
    1.9174    1.2210    0.0000 H   0  0  0  0  0  0  0  0  0  0  0  0
    1.5970   -1.6230    0.0000 H   0  0  0  0  0  0  0  0  0  0  0  0
    4.4030   -1.6230    0.0000 H   0  0  0  0  0  0  0  0  0  0  0  0
    5.9004    1.2692    0.0000 H   0  0  0  0  0  0  0  0  0  0  0  0
    6.6493    1.5418    0.0000 H   0  0  0  0  0  0  0  0  0  0  0  0
    4.1540    4.5156    0.0000 H   0  0  0  0  0  0  0  0  0  0  0  0
    3.7554    3.8254    0.0000 H   0  0  0  0  0  0  0  0  0  0  0  0
    1.5970   -3.2430    0.0000 H   0  0  0  0  0  0  0  0  0  0  0  0
    4.4030   -3.2430    0.0000 H   0  0  0  0  0  0  0  0  0  0  0  0
    7.2301    2.2193    0.0000 H   0  0  0  0  0  0  0  0  0  0  0  0
    7.1537    3.0928    0.0000 H   0  0  0  0  0  0  0  0  0  0  0  0
    6.2802    3.0163    0.0000 H   0  0  0  0  0  0  0  0  0  0  0  0
    5.5420    3.8961    0.0000 H   0  0  0  0  0  0  0  0  0  0  0  0
    5.7690    4.7430    0.0000 H   0  0  0  0  0  0  0  0  0  0  0  0
    4.9220    4.9700    0.0000 H   0  0  0  0  0  0  0  0  0  0  0  0
    2.3800   -4.4330    0.0000 H   0  0  0  0  0  0  0  0  0  0  0  0
    3.0000   -5.0530    0.0000 H   0  0  0  0  0  0  0  0  0  0  0  0
    3.6200   -4.4330    0.0000 H   0  0  0  0  0  0  0  0  0  0  0  0
  1  4  2  0  0  0  0
  1  5  2  0  0  0  0
  1  8  1  0  0  0  0
  1 13  1  0  0  0  0
  2 12  1  0  0  0  0
  2 17  1  0  0  0  0
  3 11  1  0  0  0  0
  3 16  1  0  0  0  0
  6 12  2  0  0  0  0
  7 11  2  0  0  0  0
  8  9  1  0  0  0  0
  8 10  1  0  0  0  0
  9 10  1  0  0  0  0
  9 11  1  0  0  0  0
  9 12  1  0  0  0  0
 10 24  1  0  0  0  0
 10 25  1  0  0  0  0
 13 14  2  0  0  0  0
 13 15  1  0  0  0  0
 14 18  1  0  0  0  0
 14 26  1  0  0  0  0
 15 19  2  0  0  0  0
 15 27  1  0  0  0  0
 16 21  1  0  0  0  0
 16 30  1  0  0  0  0
 16 31  1  0  0  0  0
 17 22  1  0  0  0  0
 17 28  1  0  0  0  0
 17 29  1  0  0  0  0
 18 20  2  0  0  0  0
 18 32  1  0  0  0  0
 19 20  1  0  0  0  0
 19 33  1  0  0  0  0
 20 23  1  0  0  0  0
 21 37  1  0  0  0  0
 21 38  1  0  0  0  0
 21 39  1  0  0  0  0
 22 34  1  0  0  0  0
 22 35  1  0  0  0  0
 22 36  1  0  0  0  0
 23 40  1  0  0  0  0
 23 41  1  0  0  0  0
 23 42  1  0  0  0  0
M  END
> <PUBCHEM_COMPOUND_CID>
582727

> <PUBCHEM_COMPOUND_CANONICALIZED>
1

> <PUBCHEM_CACTVS_COMPLEXITY>
541

> <PUBCHEM_CACTVS_HBOND_ACCEPTOR>
7

> <PUBCHEM_CACTVS_HBOND_DONOR>
0

> <PUBCHEM_CACTVS_ROTATABLE_BOND>
8

> <PUBCHEM_CACTVS_SUBSKEYS>
AAADceByOABAAAAAAAAAAAAAFgAAAAAAAAAwAAAAAAAAAAABAAAAHgQAQAAADIjh2AYyCYIABAKIAiDSCHBCABAgAAAIiBmIAIgKIC6IETCDIAAjoAAYiAcAgAAOEAAAAAAAAAAgAAAAAAAAAAAAAAAAAA==

> <PUBCHEM_IUPAC_OPENEYE_NAME>
diethyl 1-(p-tolylsulfonyl)aziridine-2,2-dicarboxylate

> <PUBCHEM_IUPAC_CAS_NAME>
1-(4-methylphenyl)sulfonylaziridine-2,2-dicarboxylic acid diethyl ester

> <PUBCHEM_IUPAC_NAME>
diethyl 1-(4-methylphenyl)sulfonylaziridine-2,2-dicarboxylate

> <PUBCHEM_IUPAC_SYSTEMATIC_NAME>
diethyl 1-(4-methylphenyl)sulfonylaziridine-2,2-dicarboxylate

> <PUBCHEM_IUPAC_TRADITIONAL_NAME>
1-tosylethylenimine-2,2-dicarboxylic acid diethyl ester

> <PUBCHEM_IUPAC_INCHI>
InChI=1S/C15H19NO6S/c1-4-21-13(17)15(14(18)22-5-2)10-16(15)23(19,20)12-8-6-11(3)7-9-12/h6-9H,4-5,10H2,1-3H3

> <PUBCHEM_IUPAC_INCHIKEY>
FIOHKIOYVPJIDQ-UHFFFAOYSA-N

> <PUBCHEM_XLOGP3_AA>
1.8

> <PUBCHEM_EXACT_MASS>
341.093308

> <PUBCHEM_MOLECULAR_FORMULA>
C15H19NO6S

> <PUBCHEM_MOLECULAR_WEIGHT>
341.37946

> <PUBCHEM_OPENEYE_CAN_SMILES>
CCOC(=O)C1(CN1S(=O)(=O)C2=CC=C(C=C2)C)C(=O)OCC

> <PUBCHEM_OPENEYE_ISO_SMILES>
CCOC(=O)C1(CN1S(=O)(=O)C2=CC=C(C=C2)C)C(=O)OCC

> <PUBCHEM_CACTVS_TPSA>
98.1

> <PUBCHEM_MONOISOTOPIC_WEIGHT>
341.093308

> <PUBCHEM_TOTAL_CHARGE>
0

> <PUBCHEM_HEAVY_ATOM_COUNT>
23

> <PUBCHEM_ATOM_DEF_STEREO_COUNT>
0

> <PUBCHEM_ATOM_UDEF_STEREO_COUNT>
0

> <PUBCHEM_BOND_DEF_STEREO_COUNT>
0

> <PUBCHEM_BOND_UDEF_STEREO_COUNT>
0

> <PUBCHEM_ISOTOPIC_ATOM_COUNT>
0

> <PUBCHEM_COMPONENT_COUNT>
1

> <PUBCHEM_CACTVS_TAUTO_COUNT>
1

> <PUBCHEM_COORDINATE_TYPE>
1
5
255

> <PUBCHEM_BONDANNOTATIONS>
13  14  8
13  15  8
14  18  8
15  19  8
18  20  8
19  20  8

$$$$

