5460444
  -OEChem-07051212512D

 41 45  0     1  0  0  0  0  0999 V2000
    2.2314   -0.4472    0.0000 O   0  0  0  0  0  0  0  0  0  0  0  0
    2.0000   -2.9021    0.0000 O   0  0  0  0  0  0  0  0  0  0  0  0
    2.0000    1.9022    0.0000 O   0  0  0  0  0  0  0  0  0  0  0  0
    6.1607   -1.4511    0.0000 N   0  0  3  0  0  0  0  0  0  0  0  0
    3.6897   -0.9755    0.0000 C   0  0  1  0  0  0  0  0  0  0  0  0
    4.5133   -1.4511    0.0000 C   0  0  0  0  0  0  0  0  0  0  0  0
    5.3370   -0.9755    0.0000 C   0  0  1  0  0  0  0  0  0  0  0  0
    2.8660   -1.4511    0.0000 C   0  0  3  0  0  0  0  0  0  0  0  0
    4.2392   -0.2781    0.0000 C   0  0  0  0  0  0  0  0  0  0  0  0
    3.6897   -0.0245    0.0000 C   0  0  0  0  0  0  0  0  0  0  0  0
    5.3370   -0.0245    0.0000 C   0  0  0  0  0  0  0  0  0  0  0  0
    5.5918   -0.2781    0.0000 C   0  0  0  0  0  0  0  0  0  0  0  0
    4.5133    0.4511    0.0000 C   0  0  0  0  0  0  0  0  0  0  0  0
    2.8660    0.4511    0.0000 C   0  0  0  0  0  0  0  0  0  0  0  0
    4.5133   -2.4021    0.0000 C   0  0  0  0  0  0  0  0  0  0  0  0
    2.8660   -2.4021    0.0000 C   0  0  0  0  0  0  0  0  0  0  0  0
    3.6897   -2.8777    0.0000 C   0  0  0  0  0  0  0  0  0  0  0  0
    4.5133    1.4022    0.0000 C   0  0  0  0  0  0  0  0  0  0  0  0
    6.8418   -2.1832    0.0000 C   0  0  0  0  0  0  0  0  0  0  0  0
    2.8660    1.4022    0.0000 C   0  0  0  0  0  0  0  0  0  0  0  0
    3.6897    1.8777    0.0000 C   0  0  0  0  0  0  0  0  0  0  0  0
    2.0000    2.9021    0.0000 C   0  0  0  0  0  0  0  0  0  0  0  0
    5.3377   -1.8255    0.0000 H   0  0  0  0  0  0  0  0  0  0  0  0
    2.0496   -1.6875    0.0000 H   0  0  0  0  0  0  0  0  0  0  0  0
    4.3760    0.3266    0.0000 H   0  0  0  0  0  0  0  0  0  0  0  0
    3.6795   -0.0113    0.0000 H   0  0  0  0  0  0  0  0  0  0  0  0
    5.9476   -0.1321    0.0000 H   0  0  0  0  0  0  0  0  0  0  0  0
    5.5490    0.5581    0.0000 H   0  0  0  0  0  0  0  0  0  0  0  0
    6.1840   -0.0943    0.0000 H   0  0  0  0  0  0  0  0  0  0  0  0
    5.4989    0.3349    0.0000 H   0  0  0  0  0  0  0  0  0  0  0  0
    5.0503   -2.7122    0.0000 H   0  0  0  0  0  0  0  0  0  0  0  0
    3.2912   -3.3526    0.0000 H   0  0  0  0  0  0  0  0  0  0  0  0
    4.0882   -3.3526    0.0000 H   0  0  0  0  0  0  0  0  0  0  0  0
    5.0503    1.7122    0.0000 H   0  0  0  0  0  0  0  0  0  0  0  0
    6.3879   -2.6055    0.0000 H   0  0  0  0  0  0  0  0  0  0  0  0
    7.2641   -2.6371    0.0000 H   0  0  0  0  0  0  0  0  0  0  0  0
    7.2957   -1.7609    0.0000 H   0  0  0  0  0  0  0  0  0  0  0  0
    3.6897    2.4977    0.0000 H   0  0  0  0  0  0  0  0  0  0  0  0
    2.6200    2.9021    0.0000 H   0  0  0  0  0  0  0  0  0  0  0  0
    2.0000    3.5222    0.0000 H   0  0  0  0  0  0  0  0  0  0  0  0
    1.3800    2.9021    0.0000 H   0  0  0  0  0  0  0  0  0  0  0  0
  1  8  1  0  0  0  0
  1 14  1  0  0  0  0
  2 16  2  0  0  0  0
  3 20  1  0  0  0  0
  3 22  1  0  0  0  0
  4  7  1  0  0  0  0
  4 12  1  0  0  0  0
  4 19  1  0  0  0  0
  5  6  1  0  0  0  0
  5  8  1  0  0  0  0
  5  9  1  1  0  0  0
  5 10  1  0  0  0  0
  6  7  1  0  0  0  0
  6 15  2  0  0  0  0
  7 11  1  0  0  0  0
  7 23  1  6  0  0  0
  8 16  1  0  0  0  0
  8 24  1  0  0  0  0
  9 12  1  0  0  0  0
  9 25  1  0  0  0  0
  9 26  1  0  0  0  0
 10 13  2  0  0  0  0
 10 14  1  0  0  0  0
 11 13  1  0  0  0  0
 11 27  1  0  0  0  0
 11 28  1  0  0  0  0
 12 29  1  0  0  0  0
 12 30  1  0  0  0  0
 13 18  1  0  0  0  0
 14 20  2  0  0  0  0
 15 17  1  0  0  0  0
 15 31  1  0  0  0  0
 16 17  1  0  0  0  0
 17 32  1  0  0  0  0
 17 33  1  0  0  0  0
 18 21  2  0  0  0  0
 18 34  1  0  0  0  0
 19 35  1  0  0  0  0
 19 36  1  0  0  0  0
 19 37  1  0  0  0  0
 20 21  1  0  0  0  0
 21 38  1  0  0  0  0
 22 39  1  0  0  0  0
 22 40  1  0  0  0  0
 22 41  1  0  0  0  0
M  END
> <PUBCHEM_COMPOUND_CID>
5460444

> <PUBCHEM_COMPOUND_CANONICALIZED>
1

> <PUBCHEM_CACTVS_COMPLEXITY>
559

> <PUBCHEM_CACTVS_HBOND_ACCEPTOR>
4

> <PUBCHEM_CACTVS_HBOND_DONOR>
0

> <PUBCHEM_CACTVS_ROTATABLE_BOND>
1

> <PUBCHEM_CACTVS_SUBSKEYS>
AAADceB6MAAAAAAAAAAAAAAAAAAAASAAAAA8YIEAAAAWAEjBAAAAHgAAAAAADjzhmAYyBoMABACIAqBSAAKCCAAgIAAIiAFOiIgNJjKEsR+GOCKkwBGKqAe4/f/foAABAAAYQABQAAaAADCAAAAAAAAAAA==

> <PUBCHEM_IUPAC_OPENEYE_NAME>
(4R,12bS)-9-methoxy-3-methyl-1,2,4,6,7a,13-hexahydro-4,12-methanobenzofuro[3,2-e]isoquinoline-7-one

> <PUBCHEM_IUPAC_CAS_NAME>
(4R,12bS)-9-methoxy-3-methyl-1,2,4,6,7a,13-hexahydro-4,12-methanobenzofuro[3,2-e]isoquinoline-7-one

> <PUBCHEM_IUPAC_NAME>
(4R,12bS)-9-methoxy-3-methyl-1,2,4,6,7a,13-hexahydro-4,12-methanobenzofuro[3,2-e]isoquinoline-7-one

> <PUBCHEM_IUPAC_SYSTEMATIC_NAME>
(4R,12bS)-9-methoxy-3-methyl-1,2,4,6,7a,13-hexahydro-4,12-methanobenzofuro[3,2-e]isoquinoline-7-one

> <PUBCHEM_IUPAC_TRADITIONAL_NAME>
(4R,12bS)-9-methoxy-3-methyl-1,2,4,6,7a,13-hexahydro-4,12-methanobenzofuro[3,2-e]isoquinoline-7-one

> <PUBCHEM_IUPAC_INCHI>
InChI=1S/C18H19NO3/c1-19-8-7-18-11-4-5-13(20)17(18)22-16-14(21-2)6-3-10(15(16)18)9-12(11)19/h3-4,6,12,17H,5,7-9H2,1-2H3/t12-,17?,18+/m1/s1

> <PUBCHEM_IUPAC_INCHIKEY>
LJVKMVSYTWPNGA-UWPQDFKNSA-N

> <PUBCHEM_XLOGP3_AA>
1.7

> <PUBCHEM_EXACT_MASS>
297.136493

> <PUBCHEM_MOLECULAR_FORMULA>
C18H19NO3

> <PUBCHEM_MOLECULAR_WEIGHT>
297.34836

> <PUBCHEM_OPENEYE_CAN_SMILES>
CN1CCC23C4C(=O)CC=C2C1CC5=C3C(=C(C=C5)OC)O4

> <PUBCHEM_OPENEYE_ISO_SMILES>
CN1CC[C@]23C4C(=O)CC=C2[C@H]1CC5=C3C(=C(C=C5)OC)O4

> <PUBCHEM_CACTVS_TPSA>
38.8

> <PUBCHEM_MONOISOTOPIC_WEIGHT>
297.136493

> <PUBCHEM_TOTAL_CHARGE>
0

> <PUBCHEM_HEAVY_ATOM_COUNT>
22

> <PUBCHEM_ATOM_DEF_STEREO_COUNT>
2

> <PUBCHEM_ATOM_UDEF_STEREO_COUNT>
1

> <PUBCHEM_BOND_DEF_STEREO_COUNT>
0

> <PUBCHEM_BOND_UDEF_STEREO_COUNT>
0

> <PUBCHEM_ISOTOPIC_ATOM_COUNT>
0

> <PUBCHEM_COMPONENT_COUNT>
1

> <PUBCHEM_CACTVS_TAUTO_COUNT>
5

> <PUBCHEM_COORDINATE_TYPE>
1
5
255

> <PUBCHEM_BONDANNOTATIONS>
10  13  8
10  14  8
13  18  8
14  20  8
18  21  8
20  21  8
5  9  5
7  23  6
8  24  3

$$$$

