   Color/Form
        Pale yellow solid
   from [1]HSDB

   Melting Point
        157-159 deg C
   from [2]HSDB

   Octanol/Water Partition Coefficient
        log Kow = 3.47 /Estimated/
   from [3]HSDB

   Solubilities
        In water, 3.3 mg/L at 25 deg C /Estimated/
   from [4]HSDB

   Vapor Pressure
        1.2X10-9 mm Hg at 25 deg C /Estimated/
   from [5]HSDB

   Other Chemical/Physical Properties

     * Henry's Law constant = 7.8X10-13 atm-cu m/mol at 25 deg C
       /Estimated
     * Hydroxyl radical reaction rate constant = 1.5X10-11 cu cm/molec-sec
       at 25 deg C /Estimated/

   from [6]HSDB

   Computed Properties
   Molecular Weight                  381.37217 [g/mol]
   Molecular Formula                 C[17]H[14]F[3]N[3]O[2]S
   XLogP3-AA                         3.4
   H-Bond Donor                      1
   H-Bond Acceptor                   7
   Rotatable Bond Count              3
   Exact Mass                        381.075882
   MonoIsotopic Mass                 381.075882
   Topological Polar Surface Area    86.4
   Heavy Atom Count                  26
   Formal Charge                     0
   Complexity                        577
   Isotope Atom Count                0
   Defined Atom Stereocenter Count   0
   Undefined Atom Stereocenter Count 0
   Defined Bond Stereocenter Count   0
   Undefined Bond Stereocenter Count 0
   Covalently-Bonded Unit Count      1
   Feature 3D Acceptor Count         3
   Feature 3D Donor Count            1
   Feature 3D Ring Count             3
   Effective Rotor Count             4
   Conformer Sampling RMSD           0.8
   CID Conformer Count               [7]4

References

   1. http://toxnet.nlm.nih.gov/cgi-bin/sis/search/r?dbs+hsdb:@term+@rn+@rel+169590-42-5
   2. http://toxnet.nlm.nih.gov/cgi-bin/sis/search/r?dbs+hsdb:@term+@rn+@rel+169590-42-5
   3. http://toxnet.nlm.nih.gov/cgi-bin/sis/search/r?dbs+hsdb:@term+@rn+@rel+169590-42-5
   4. http://toxnet.nlm.nih.gov/cgi-bin/sis/search/r?dbs+hsdb:@term+@rn+@rel+169590-42-5
   5. http://toxnet.nlm.nih.gov/cgi-bin/sis/search/r?dbs+hsdb:@term+@rn+@rel+169590-42-5
   6. http://toxnet.nlm.nih.gov/cgi-bin/sis/search/r?dbs+hsdb:@term+@rn+@rel+169590-42-5
   7. http://pubchem.ncbi.nlm.nih.gov/vw3d/vw3d.cgi?cid=2662
