14331
  -OEChem-06241222432D

 29 30  0     0  0  0  0  0  0999 V2000
    2.0000   -2.5755    0.0000 Cl  0  0  0  0  0  0  0  0  0  0  0  0
    2.0000   -0.5755    0.0000 O   0  0  0  0  0  0  0  0  0  0  0  0
    3.7320   -0.5755    0.0000 N   0  0  0  0  0  0  0  0  0  0  0  0
    6.1808    0.2609    0.0000 C   0  0  0  0  0  0  0  0  0  0  0  0
    6.4396    1.2268    0.0000 C   0  0  0  0  0  0  0  0  0  0  0  0
    5.2030    2.0755    0.0000 C   0  0  0  0  0  0  0  0  0  0  0  0
    8.0127   -0.4979    0.0000 C   0  0  0  0  0  0  0  0  0  0  0  0
    6.0690    2.5755    0.0000 C   0  0  0  0  0  0  0  0  0  0  0  0
    8.2715    0.4680    0.0000 C   0  0  0  0  0  0  0  0  0  0  0  0
    4.6456   -0.9822    0.0000 C   0  0  0  0  0  0  0  0  0  0  0  0
    3.8366    0.4190    0.0000 C   0  0  0  0  0  0  0  0  0  0  0  0
    2.8660   -1.0755    0.0000 C   0  0  0  0  0  0  0  0  0  0  0  0
    2.8660   -2.0755    0.0000 C   0  0  0  0  0  0  0  0  0  0  0  0
    6.4111    0.6075    0.0000 H   0  0  0  0  0  0  0  0  0  0  0  0
    6.2697   -0.3527    0.0000 H   0  0  0  0  0  0  0  0  0  0  0  0
    4.8982    2.6154    0.0000 H   0  0  0  0  0  0  0  0  0  0  0  0
    4.6601    1.7760    0.0000 H   0  0  0  0  0  0  0  0  0  0  0  0
    7.8006   -1.0805    0.0000 H   0  0  0  0  0  0  0  0  0  0  0  0
    8.6040   -0.6843    0.0000 H   0  0  0  0  0  0  0  0  0  0  0  0
    6.6507    2.7900    0.0000 H   0  0  0  0  0  0  0  0  0  0  0  0
    5.8058    3.1368    0.0000 H   0  0  0  0  0  0  0  0  0  0  0  0
    8.8628    0.2816    0.0000 H   0  0  0  0  0  0  0  0  0  0  0  0
    8.4836    1.0506    0.0000 H   0  0  0  0  0  0  0  0  0  0  0  0
    4.3079   -1.5022    0.0000 H   0  0  0  0  0  0  0  0  0  0  0  0
    5.1064   -1.3971    0.0000 H   0  0  0  0  0  0  0  0  0  0  0  0
    3.7343    1.0305    0.0000 H   0  0  0  0  0  0  0  0  0  0  0  0
    3.2169    0.4001    0.0000 H   0  0  0  0  0  0  0  0  0  0  0  0
    3.0781   -2.6581    0.0000 H   0  0  0  0  0  0  0  0  0  0  0  0
    3.4766   -1.9678    0.0000 H   0  0  0  0  0  0  0  0  0  0  0  0
  1 13  1  0  0  0  0
  2 12  2  0  0  0  0
  3 10  1  0  0  0  0
  3 11  1  0  0  0  0
  3 12  1  0  0  0  0
  4  6  1  0  0  0  0
  4  7  1  0  0  0  0
  4 10  1  0  0  0  0
  4 15  1  0  0  0  0
  5  8  1  0  0  0  0
  5  9  1  0  0  0  0
  5 11  1  0  0  0  0
  5 14  1  0  0  0  0
  6  8  1  0  0  0  0
  6 16  1  0  0  0  0
  6 17  1  0  0  0  0
  7  9  1  0  0  0  0
  7 18  1  0  0  0  0
  7 19  1  0  0  0  0
  8 20  1  0  0  0  0
  8 21  1  0  0  0  0
  9 22  1  0  0  0  0
  9 23  1  0  0  0  0
 10 24  1  0  0  0  0
 10 25  1  0  0  0  0
 11 26  1  0  0  0  0
 11 27  1  0  0  0  0
 12 13  1  0  0  0  0
 13 28  1  0  0  0  0
 13 29  1  0  0  0  0
M  END
> <PUBCHEM_COMPOUND_CID>
14331

> <PUBCHEM_COMPOUND_CANONICALIZED>
1

> <PUBCHEM_CACTVS_COMPLEXITY>
185

> <PUBCHEM_CACTVS_HBOND_ACCEPTOR>
1

> <PUBCHEM_CACTVS_HBOND_DONOR>
0

> <PUBCHEM_CACTVS_ROTATABLE_BOND>
1

> <PUBCHEM_CACTVS_SUBSKEYS>
AAADceByIAAEAAAAAAAAAAAAAAAAAAAAAAAwAAAABYsAAAAAAAAAHgIAAAAADQPBgEQAAAMAAAAIAAEQEAAAAAAAAAAAAAAIAABAAAIAgABEAAAABgCAAAEQgAAOAAAAAAAAAACAAAAAAAAAAAAAAAAAAA==

> <PUBCHEM_IUPAC_OPENEYE_NAME>
1-(3-azabicyclo[3.2.2]nonan-3-yl)-2-chloro-ethanone

> <PUBCHEM_IUPAC_CAS_NAME>
1-(3-azabicyclo[3.2.2]nonan-3-yl)-2-chloroethanone

> <PUBCHEM_IUPAC_NAME>
1-(3-azabicyclo[3.2.2]nonan-3-yl)-2-chloroethanone

> <PUBCHEM_IUPAC_SYSTEMATIC_NAME>
1-(3-azabicyclo[3.2.2]nonan-3-yl)-2-chloranyl-ethanone

> <PUBCHEM_IUPAC_TRADITIONAL_NAME>
1-(3-azabicyclo[3.2.2]nonan-3-yl)-2-chloro-ethanone

> <PUBCHEM_IUPAC_INCHI>
InChI=1S/C10H16ClNO/c11-5-10(13)12-6-8-1-2-9(7-12)4-3-8/h8-9H,1-7H2

> <PUBCHEM_IUPAC_INCHIKEY>
OZKJSYJSHRYFEH-UHFFFAOYSA-N

> <PUBCHEM_XLOGP3_AA>
1.8

> <PUBCHEM_EXACT_MASS>
201.092042

> <PUBCHEM_MOLECULAR_FORMULA>
C10H16ClNO

> <PUBCHEM_MOLECULAR_WEIGHT>
201.69314

> <PUBCHEM_OPENEYE_CAN_SMILES>
C1CC2CCC1CN(C2)C(=O)CCl

> <PUBCHEM_OPENEYE_ISO_SMILES>
C1CC2CCC1CN(C2)C(=O)CCl

> <PUBCHEM_CACTVS_TPSA>
20.3

> <PUBCHEM_MONOISOTOPIC_WEIGHT>
201.092042

> <PUBCHEM_TOTAL_CHARGE>
0

> <PUBCHEM_HEAVY_ATOM_COUNT>
13

> <PUBCHEM_ATOM_DEF_STEREO_COUNT>
0

> <PUBCHEM_ATOM_UDEF_STEREO_COUNT>
0

> <PUBCHEM_BOND_DEF_STEREO_COUNT>
0

> <PUBCHEM_BOND_UDEF_STEREO_COUNT>
0

> <PUBCHEM_ISOTOPIC_ATOM_COUNT>
0

> <PUBCHEM_COMPONENT_COUNT>
1

> <PUBCHEM_CACTVS_TAUTO_COUNT>
1

> <PUBCHEM_COORDINATE_TYPE>
1
5
255

$$$$

