   Color/Form

     * Fine needles from dilute acetone
     * WHITE CRYSTALS
     * Colorless crystals

   from [1]HSDB

   Odor
        ODORLESS
   from [2]HSDB

   Melting Point
        84-85 deg C
   from [3]HSDB

   Octanol/Water Partition Coefficient
        log Kow = 10.2 (est)
   from [4]HSDB

   Solubilities

     * Sol in the usual org solvents; slightly sol in vegetable oils
     * In water, 1.3X10-5 mg/L at 25 deg C (est)

   from [5]HSDB

   Spectral Properties

     * Specific optical rotation (1.6% in acetone): +84.8 deg at 20 deg
       C/D; (1.6% in chloroform): +51.9 deg at 20 deg C/D
     * Max absorption (in alcohol or hexane): 264.5 nm (epsilon= 450-490,
       1%, 1 cm)
     * IR: 14472 (Sadtler Research Laboratories Prism Collection)
     * UV: 373 (Absorption Spectra in the UV and visible Regions, Academic
       Press, New York)
     * MASS: 16657 (NIST/EPA/MSDC Mass Spectral Database, 1990 version)

   from [6]HSDB

   Vapor Pressure
        2.4X10-9 mm Hg at 25 deg C (est)
   from [7]HSDB

   Other Chemical/Physical Properties

     * Oxidized and inactivated by moist air within a few days
     * Henry's Law constant = 2.3X10-4 atm-cu m/mole at 25 deg C (est)
     * Hydroxyl radical reaction rate constant = 2.7X10-10 cu cm/molec-sec
       at 25 deg C (est)

   from [8]HSDB

   Computed Properties
   Molecular Weight                  384.63766 [g/mol]
   Molecular Formula                 C[27]H[44]O
   XLogP3-AA                         7.9
   H-Bond Donor                      1
   H-Bond Acceptor                   1
   Rotatable Bond Count              6
   Exact Mass                        384.339216
   MonoIsotopic Mass                 384.339216
   Topological Polar Surface Area    20.2
   Heavy Atom Count                  28
   Formal Charge                     0
   Complexity                        610
   Isotope Atom Count                0
   Defined Atom Stereocenter Count   5
   Undefined Atom Stereocenter Count 0
   Defined Bond Stereocenter Count   2
   Undefined Bond Stereocenter Count 0
   Covalently-Bonded Unit Count      1
   Feature 3D Acceptor Count         1
   Feature 3D Donor Count            1
   Feature 3D Hydrophobe Count       3
   Feature 3D Ring Count             3
   Effective Rotor Count             8
   Conformer Sampling RMSD           1
   CID Conformer Count               [9]8

References

   1. http://toxnet.nlm.nih.gov/cgi-bin/sis/search/r?dbs+hsdb:@term+@rn+@rel+67-97-0
   2. http://toxnet.nlm.nih.gov/cgi-bin/sis/search/r?dbs+hsdb:@term+@rn+@rel+67-97-0
   3. http://toxnet.nlm.nih.gov/cgi-bin/sis/search/r?dbs+hsdb:@term+@rn+@rel+67-97-0
   4. http://toxnet.nlm.nih.gov/cgi-bin/sis/search/r?dbs+hsdb:@term+@rn+@rel+67-97-0
   5. http://toxnet.nlm.nih.gov/cgi-bin/sis/search/r?dbs+hsdb:@term+@rn+@rel+67-97-0
   6. http://toxnet.nlm.nih.gov/cgi-bin/sis/search/r?dbs+hsdb:@term+@rn+@rel+67-97-0
   7. http://toxnet.nlm.nih.gov/cgi-bin/sis/search/r?dbs+hsdb:@term+@rn+@rel+67-97-0
   8. http://toxnet.nlm.nih.gov/cgi-bin/sis/search/r?dbs+hsdb:@term+@rn+@rel+67-97-0
   9. http://pubchem.ncbi.nlm.nih.gov/vw3d/vw3d.cgi?cid=5280795
