1349907
  -OEChem-07051212532D

 13 13  0     0  0  0  0  0  0999 V2000
    4.5691   -0.2414    0.0000 S   0  0  0  0  0  0  0  0  0  0  0  0
    2.8090   -0.5202    0.0000 N   0  0  0  0  0  0  0  0  0  0  0  0
    3.3090    1.0186    0.0000 N   0  0  0  0  0  0  0  0  0  0  0  0
    3.6180    0.0676    0.0000 C   0  0  0  0  0  0  0  0  0  0  0  0
    2.0000    0.0676    0.0000 C   0  0  0  0  0  0  0  0  0  0  0  0
    2.8090   -1.5202    0.0000 C   0  0  0  0  0  0  0  0  0  0  0  0
    2.3090    1.0186    0.0000 C   0  0  0  0  0  0  0  0  0  0  0  0
    1.4103   -0.1240    0.0000 H   0  0  0  0  0  0  0  0  0  0  0  0
    2.1890   -1.5202    0.0000 H   0  0  0  0  0  0  0  0  0  0  0  0
    2.8090   -2.1402    0.0000 H   0  0  0  0  0  0  0  0  0  0  0  0
    3.4290   -1.5202    0.0000 H   0  0  0  0  0  0  0  0  0  0  0  0
    3.6734    1.5202    0.0000 H   0  0  0  0  0  0  0  0  0  0  0  0
    1.9446    1.5202    0.0000 H   0  0  0  0  0  0  0  0  0  0  0  0
  1  4  2  0  0  0  0
  2  4  1  0  0  0  0
  2  5  1  0  0  0  0
  2  6  1  0  0  0  0
  3  4  1  0  0  0  0
  3  7  1  0  0  0  0
  3 12  1  0  0  0  0
  5  7  2  0  0  0  0
  5  8  1  0  0  0  0
  6  9  1  0  0  0  0
  6 10  1  0  0  0  0
  6 11  1  0  0  0  0
  7 13  1  0  0  0  0
M  END
> <PUBCHEM_COMPOUND_CID>
1349907

> <PUBCHEM_COMPOUND_CANONICALIZED>
1

> <PUBCHEM_CACTVS_COMPLEXITY>
119

> <PUBCHEM_CACTVS_HBOND_ACCEPTOR>
1

> <PUBCHEM_CACTVS_HBOND_DONOR>
1

> <PUBCHEM_CACTVS_ROTATABLE_BOND>
0

> <PUBCHEM_CACTVS_SUBSKEYS>
AAADcYBjAABAAAAAAAAAAAAAAAAAAQAAAAAAAAAAAAAAAAAAAAAAHAQQAAAAAADBAAQDAAPAAACEAAAGQAAAAAAAAgkIAIAIAACAAAAAAAAAAAAIAAAAAAAAAAAAAAAAAAAAAAAAAAAAAAAAAAAAAAAAAA==

> <PUBCHEM_IUPAC_OPENEYE_NAME>
3-methyl-1H-imidazole-2-thione

> <PUBCHEM_IUPAC_CAS_NAME>
3-methyl-1H-imidazole-2-thione

> <PUBCHEM_IUPAC_NAME>
3-methyl-1H-imidazole-2-thione

> <PUBCHEM_IUPAC_SYSTEMATIC_NAME>
3-methyl-1H-imidazole-2-thione

> <PUBCHEM_IUPAC_TRADITIONAL_NAME>
1-methyl-4-imidazoline-2-thione

> <PUBCHEM_IUPAC_INCHI>
InChI=1S/C4H6N2S/c1-6-3-2-5-4(6)7/h2-3H,1H3,(H,5,7)

> <PUBCHEM_IUPAC_INCHIKEY>
PMRYVIKBURPHAH-UHFFFAOYSA-N

> <PUBCHEM_XLOGP3>
-0.3

> <PUBCHEM_EXACT_MASS>
114.025169

> <PUBCHEM_MOLECULAR_FORMULA>
C4H6N2S

> <PUBCHEM_MOLECULAR_WEIGHT>
114.16884

> <PUBCHEM_OPENEYE_CAN_SMILES>
CN1C=CNC1=S

> <PUBCHEM_OPENEYE_ISO_SMILES>
CN1C=CNC1=S

> <PUBCHEM_CACTVS_TPSA>
47.4

> <PUBCHEM_MONOISOTOPIC_WEIGHT>
114.025169

> <PUBCHEM_TOTAL_CHARGE>
0

> <PUBCHEM_HEAVY_ATOM_COUNT>
7

> <PUBCHEM_ATOM_DEF_STEREO_COUNT>
0

> <PUBCHEM_ATOM_UDEF_STEREO_COUNT>
0

> <PUBCHEM_BOND_DEF_STEREO_COUNT>
0

> <PUBCHEM_BOND_UDEF_STEREO_COUNT>
0

> <PUBCHEM_ISOTOPIC_ATOM_COUNT>
0

> <PUBCHEM_COMPONENT_COUNT>
1

> <PUBCHEM_CACTVS_TAUTO_COUNT>
2

> <PUBCHEM_COORDINATE_TYPE>
1
5
255

> <PUBCHEM_BONDANNOTATIONS>
2  4  8
2  5  8
3  4  8
3  7  8
5  7  8

$$$$

