196748
  -OEChem-07051213072D

 42 42  0     0  0  0  0  0  0999 V2000
    8.0413   -0.1627    0.0000 Cl  0  0  0  0  0  0  0  0  0  0  0  0
    8.6956   -3.3756    0.0000 Na  0  3  0  0  0  0  0  0  0  0  0  0
    7.7445   -3.0666    0.0000 O   0  5  0  0  0  0  0  0  0  0  0  0
    8.2798   -1.4193    0.0000 O   0  0  0  0  0  0  0  0  0  0  0  0
    2.0000   -2.3945    0.0000 O   0  5  0  0  0  0  0  0  0  0  0  0
    2.8660   -0.8945    0.0000 O   0  0  0  0  0  0  0  0  0  0  0  0
    5.4641   -0.3945    0.0000 N   0  0  0  0  0  0  0  0  0  0  0  0
    6.5468    0.8079    0.0000 N   0  0  0  0  0  0  0  0  0  0  0  0
    2.8660   -1.8945    0.0000 N   0  3  0  0  0  0  0  0  0  0  0  0
    5.5686    0.6000    0.0000 C   0  0  0  0  0  0  0  0  0  0  0  0
    4.8255    1.2691    0.0000 C   0  0  0  0  0  0  0  0  0  0  0  0
    4.5981   -0.8945    0.0000 C   0  0  0  0  0  0  0  0  0  0  0  0
    5.0334    2.2473    0.0000 C   0  0  0  0  0  0  0  0  0  0  0  0
    6.3776   -0.8013    0.0000 C   0  0  0  0  0  0  0  0  0  0  0  0
    4.2902    2.9164    0.0000 C   0  0  0  0  0  0  0  0  0  0  0  0
    4.5981   -1.8945    0.0000 C   0  0  0  0  0  0  0  0  0  0  0  0
    7.0468   -0.0581    0.0000 C   0  0  0  0  0  0  0  0  0  0  0  0
    6.5856   -1.7794    0.0000 C   0  0  0  0  0  0  0  0  0  0  0  0
    3.7320   -2.3945    0.0000 C   0  0  0  0  0  0  0  0  0  0  0  0
    4.4982    3.8945    0.0000 C   0  0  0  0  0  0  0  0  0  0  0  0
    5.4641   -2.3945    0.0000 C   0  0  0  0  0  0  0  0  0  0  0  0
    3.7320   -3.3945    0.0000 C   0  0  0  0  0  0  0  0  0  0  0  0
    7.5366   -2.0884    0.0000 C   0  0  0  0  0  0  0  0  0  0  0  0
    5.4641   -3.3945    0.0000 C   0  0  0  0  0  0  0  0  0  0  0  0
    4.5981   -3.8945    0.0000 C   0  0  0  0  0  0  0  0  0  0  0  0
    4.2506    1.5014    0.0000 H   0  0  0  0  0  0  0  0  0  0  0  0
    4.4969    0.7433    0.0000 H   0  0  0  0  0  0  0  0  0  0  0  0
    4.3860   -0.3119    0.0000 H   0  0  0  0  0  0  0  0  0  0  0  0
    3.9875   -1.0022    0.0000 H   0  0  0  0  0  0  0  0  0  0  0  0
    5.6082    2.0150    0.0000 H   0  0  0  0  0  0  0  0  0  0  0  0
    5.3620    2.7730    0.0000 H   0  0  0  0  0  0  0  0  0  0  0  0
    3.7154    3.1486    0.0000 H   0  0  0  0  0  0  0  0  0  0  0  0
    3.9617    2.3906    0.0000 H   0  0  0  0  0  0  0  0  0  0  0  0
    5.9659   -1.8011    0.0000 H   0  0  0  0  0  0  0  0  0  0  0  0
    6.4993   -2.3934    0.0000 H   0  0  0  0  0  0  0  0  0  0  0  0
    5.1046    3.7656    0.0000 H   0  0  0  0  0  0  0  0  0  0  0  0
    4.6271    4.5010    0.0000 H   0  0  0  0  0  0  0  0  0  0  0  0
    3.8917    4.0234    0.0000 H   0  0  0  0  0  0  0  0  0  0  0  0
    6.0010   -2.0845    0.0000 H   0  0  0  0  0  0  0  0  0  0  0  0
    3.1951   -3.7045    0.0000 H   0  0  0  0  0  0  0  0  0  0  0  0
    6.0010   -3.7045    0.0000 H   0  0  0  0  0  0  0  0  0  0  0  0
    4.5981   -4.5145    0.0000 H   0  0  0  0  0  0  0  0  0  0  0  0
  1 17  1  0  0  0  0
  3 23  1  0  0  0  0
  4 23  2  0  0  0  0
  5  9  1  0  0  0  0
  6  9  2  0  0  0  0
  7 10  1  0  0  0  0
  7 12  1  0  0  0  0
  7 14  1  0  0  0  0
  8 10  2  0  0  0  0
  8 17  1  0  0  0  0
  9 19  1  0  0  0  0
 10 11  1  0  0  0  0
 11 13  1  0  0  0  0
 11 26  1  0  0  0  0
 11 27  1  0  0  0  0
 12 16  1  0  0  0  0
 12 28  1  0  0  0  0
 12 29  1  0  0  0  0
 13 15  1  0  0  0  0
 13 30  1  0  0  0  0
 13 31  1  0  0  0  0
 14 17  2  0  0  0  0
 14 18  1  0  0  0  0
 15 20  1  0  0  0  0
 15 32  1  0  0  0  0
 15 33  1  0  0  0  0
 16 19  1  0  0  0  0
 16 21  2  0  0  0  0
 18 23  1  0  0  0  0
 18 34  1  0  0  0  0
 18 35  1  0  0  0  0
 19 22  2  0  0  0  0
 20 36  1  0  0  0  0
 20 37  1  0  0  0  0
 20 38  1  0  0  0  0
 21 24  1  0  0  0  0
 21 39  1  0  0  0  0
 22 25  1  0  0  0  0
 22 40  1  0  0  0  0
 24 25  2  0  0  0  0
 24 41  1  0  0  0  0
 25 42  1  0  0  0  0
M  CHG  4   2   1   3  -1   5  -1   9   1
M  END
> <PUBCHEM_COMPOUND_CID>
196748

> <PUBCHEM_COMPOUND_CANONICALIZED>
1

> <PUBCHEM_CACTVS_COMPLEXITY>
440

> <PUBCHEM_CACTVS_HBOND_ACCEPTOR>
5

> <PUBCHEM_CACTVS_HBOND_DONOR>
0

> <PUBCHEM_CACTVS_ROTATABLE_BOND>
6

> <PUBCHEM_CACTVS_SUBSKEYS>
AAADceB7OCAEAAAAAAAAAAAAAAAAAWAAAAAwAAAAAAAAAAABwAAAHgIEAAAADArBnyQz2JccUACpAybybwCCgC0hFqAp2AE4doqIaDrB3ZHUIAhuwAPIyCc0gAAOAAAAAAACAAAAAAAAAAQAAAAAAAAAAA==

> <PUBCHEM_IUPAC_OPENEYE_NAME>
sodium 2-[2-butyl-5-chloro-3-[(2-nitrophenyl)methyl]imidazol-4-yl]acetate

> <PUBCHEM_IUPAC_CAS_NAME>
sodium 2-[2-butyl-5-chloro-3-[(2-nitrophenyl)methyl]-4-imidazolyl]acetate

> <PUBCHEM_IUPAC_NAME>
sodium 2-[2-butyl-5-chloro-3-[(2-nitrophenyl)methyl]imidazol-4-yl]acetate

> <PUBCHEM_IUPAC_SYSTEMATIC_NAME>
sodium 2-[2-butyl-5-chloranyl-3-[(2-nitrophenyl)methyl]imidazol-4-yl]ethanoate

> <PUBCHEM_IUPAC_TRADITIONAL_NAME>
sodium 2-[2-butyl-5-chloro-3-(2-nitrobenzyl)imidazol-4-yl]acetate

> <PUBCHEM_IUPAC_INCHI>
InChI=1S/C16H18ClN3O4.Na/c1-2-3-8-14-18-16(17)13(9-15(21)22)19(14)10-11-6-4-5-7-12(11)20(23)24;/h4-7H,2-3,8-10H2,1H3,(H,21,22);/q;+1/p-1

> <PUBCHEM_IUPAC_INCHIKEY>
IOLLRZYQFFZPKF-UHFFFAOYSA-M

> <PUBCHEM_EXACT_MASS>
373.080528

> <PUBCHEM_MOLECULAR_FORMULA>
C16H17ClN3NaO4

> <PUBCHEM_MOLECULAR_WEIGHT>
373.766649

> <PUBCHEM_OPENEYE_CAN_SMILES>
CCCCC1=NC(=C(N1CC2=CC=CC=C2[N+](=O)[O-])CC(=O)[O-])Cl.[Na+]

> <PUBCHEM_OPENEYE_ISO_SMILES>
CCCCC1=NC(=C(N1CC2=CC=CC=C2[N+](=O)[O-])CC(=O)[O-])Cl.[Na+]

> <PUBCHEM_CACTVS_TPSA>
104

> <PUBCHEM_MONOISOTOPIC_WEIGHT>
373.080528

> <PUBCHEM_TOTAL_CHARGE>
0

> <PUBCHEM_HEAVY_ATOM_COUNT>
25

> <PUBCHEM_ATOM_DEF_STEREO_COUNT>
0

> <PUBCHEM_ATOM_UDEF_STEREO_COUNT>
0

> <PUBCHEM_BOND_DEF_STEREO_COUNT>
0

> <PUBCHEM_BOND_UDEF_STEREO_COUNT>
0

> <PUBCHEM_ISOTOPIC_ATOM_COUNT>
0

> <PUBCHEM_COMPONENT_COUNT>
2

> <PUBCHEM_CACTVS_TAUTO_COUNT>
2

> <PUBCHEM_COORDINATE_TYPE>
1
5
255

> <PUBCHEM_BONDANNOTATIONS>
14  17  8
16  19  8
16  21  8
19  22  8
21  24  8
22  25  8
24  25  8
7  10  8
7  14  8
8  10  8
8  17  8

$$$$

