5281751
  -OEChem-07051212592D

 55 62  0     0  0  0  0  0  0999 V2000
    9.5494   -1.3020    0.0000 O   0  0  0  0  0  0  0  0  0  0  0  0
    3.4890    2.1969    0.0000 O   0  0  0  0  0  0  0  0  0  0  0  0
    8.7654   -2.8388    0.0000 O   0  0  0  0  0  0  0  0  0  0  0  0
    8.6657    3.1814    0.0000 O   0  0  0  0  0  0  0  0  0  0  0  0
    7.8136    3.6733    0.0000 O   0  0  0  0  0  0  0  0  0  0  0  0
    2.5501    0.7496    0.0000 O   0  0  0  0  0  0  0  0  0  0  0  0
   10.4039    0.1582    0.0000 O   0  0  0  0  0  0  0  0  0  0  0  0
    4.3263    3.6671    0.0000 O   0  0  0  0  0  0  0  0  0  0  0  0
    5.2566   -3.9679    0.0000 O   0  0  0  0  0  0  0  0  0  0  0  0
    6.9348    0.1672    0.0000 C   0  0  0  0  0  0  0  0  0  0  0  0
    6.0688    0.6672    0.0000 C   0  0  0  0  0  0  0  0  0  0  0  0
    6.9508   -0.8743    0.0000 C   0  0  0  0  0  0  0  0  0  0  0  0
    5.1588    0.1604    0.0000 C   0  0  0  0  0  0  0  0  0  0  0  0
    7.8008    0.6672    0.0000 C   0  0  0  0  0  0  0  0  0  0  0  0
    6.0688    1.6672    0.0000 C   0  0  0  0  0  0  0  0  0  0  0  0
    6.0528   -1.4020    0.0000 C   0  0  0  0  0  0  0  0  0  0  0  0
    5.1507   -0.8812    0.0000 C   0  0  0  0  0  0  0  0  0  0  0  0
    7.8008    1.6672    0.0000 C   0  0  0  0  0  0  0  0  0  0  0  0
    6.9348    2.1672    0.0000 C   0  0  0  0  0  0  0  0  0  0  0  0
    7.8280   -1.3370    0.0000 C   0  0  0  0  0  0  0  0  0  0  0  0
    4.3194    0.6886    0.0000 C   0  0  0  0  0  0  0  0  0  0  0  0
    8.6603    0.1725    0.0000 C   0  0  0  0  0  0  0  0  0  0  0  0
    5.2105    2.1642    0.0000 C   0  0  0  0  0  0  0  0  0  0  0  0
    6.0789   -2.4435    0.0000 C   0  0  0  0  0  0  0  0  0  0  0  0
    4.2357   -1.3794    0.0000 C   0  0  0  0  0  0  0  0  0  0  0  0
    8.6737   -0.8192    0.0000 C   0  0  0  0  0  0  0  0  0  0  0  0
    4.3450    1.6800    0.0000 C   0  0  0  0  0  0  0  0  0  0  0  0
    7.8781   -2.3776    0.0000 C   0  0  0  0  0  0  0  0  0  0  0  0
    8.6716    2.1814    0.0000 C   0  0  0  0  0  0  0  0  0  0  0  0
    6.9447    3.1784    0.0000 C   0  0  0  0  0  0  0  0  0  0  0  0
    3.3932    0.2118    0.0000 C   0  0  0  0  0  0  0  0  0  0  0  0
    9.5427    0.6664    0.0000 C   0  0  0  0  0  0  0  0  0  0  0  0
    5.1970    3.1753    0.0000 C   0  0  0  0  0  0  0  0  0  0  0  0
    6.9977   -2.9346    0.0000 C   0  0  0  0  0  0  0  0  0  0  0  0
    3.3510   -0.8292    0.0000 C   0  0  0  0  0  0  0  0  0  0  0  0
    9.5484    1.6776    0.0000 C   0  0  0  0  0  0  0  0  0  0  0  0
    6.0700    3.6859    0.0000 C   0  0  0  0  0  0  0  0  0  0  0  0
    5.2277   -2.9683    0.0000 C   0  0  0  0  0  0  0  0  0  0  0  0
    4.2068   -2.3790    0.0000 C   0  0  0  0  0  0  0  0  0  0  0  0
    7.0204   -3.5542    0.0000 H   0  0  0  0  0  0  0  0  0  0  0  0
    2.8031   -1.1194    0.0000 H   0  0  0  0  0  0  0  0  0  0  0  0
   10.0859    1.9866    0.0000 H   0  0  0  0  0  0  0  0  0  0  0  0
    6.0688    4.3059    0.0000 H   0  0  0  0  0  0  0  0  0  0  0  0
    4.9989   -2.3921    0.0000 H   0  0  0  0  0  0  0  0  0  0  0  0
    4.6204   -3.0936    0.0000 H   0  0  0  0  0  0  0  0  0  0  0  0
    3.5871   -2.3610    0.0000 H   0  0  0  0  0  0  0  0  0  0  0  0
    4.1889   -2.9987    0.0000 H   0  0  0  0  0  0  0  0  0  0  0  0
    4.8266   -2.3969    0.0000 H   0  0  0  0  0  0  0  0  0  0  0  0
    8.7929   -3.4582    0.0000 H   0  0  0  0  0  0  0  0  0  0  0  0
    9.2008    3.4946    0.0000 H   0  0  0  0  0  0  0  0  0  0  0  0
    7.8173    4.2933    0.0000 H   0  0  0  0  0  0  0  0  0  0  0  0
    2.0000    0.4637    0.0000 H   0  0  0  0  0  0  0  0  0  0  0  0
   10.9438    0.4630    0.0000 H   0  0  0  0  0  0  0  0  0  0  0  0
    4.3204    4.2871    0.0000 H   0  0  0  0  0  0  0  0  0  0  0  0
    4.7288   -4.2933    0.0000 H   0  0  0  0  0  0  0  0  0  0  0  0
  1 26  2  0  0  0  0
  2 27  2  0  0  0  0
  3 28  1  0  0  0  0
  3 49  1  0  0  0  0
  4 29  1  0  0  0  0
  4 50  1  0  0  0  0
  5 30  1  0  0  0  0
  5 51  1  0  0  0  0
  6 31  1  0  0  0  0
  6 52  1  0  0  0  0
  7 32  1  0  0  0  0
  7 53  1  0  0  0  0
  8 33  1  0  0  0  0
  8 54  1  0  0  0  0
  9 38  1  0  0  0  0
  9 55  1  0  0  0  0
 10 11  1  0  0  0  0
 10 12  2  0  0  0  0
 10 14  1  0  0  0  0
 11 13  2  0  0  0  0
 11 15  1  0  0  0  0
 12 16  1  0  0  0  0
 12 20  1  0  0  0  0
 13 17  1  0  0  0  0
 13 21  1  0  0  0  0
 14 18  2  0  0  0  0
 14 22  1  0  0  0  0
 15 19  2  0  0  0  0
 15 23  1  0  0  0  0
 16 17  2  0  0  0  0
 16 24  1  0  0  0  0
 17 25  1  0  0  0  0
 18 19  1  0  0  0  0
 18 29  1  0  0  0  0
 19 30  1  0  0  0  0
 20 26  1  0  0  0  0
 20 28  2  0  0  0  0
 21 27  1  0  0  0  0
 21 31  2  0  0  0  0
 22 26  1  0  0  0  0
 22 32  2  0  0  0  0
 23 27  1  0  0  0  0
 23 33  2  0  0  0  0
 24 34  2  0  0  0  0
 24 38  1  0  0  0  0
 25 35  2  0  0  0  0
 25 39  1  0  0  0  0
 28 34  1  0  0  0  0
 29 36  2  0  0  0  0
 30 37  2  0  0  0  0
 31 35  1  0  0  0  0
 32 36  1  0  0  0  0
 33 37  1  0  0  0  0
 34 40  1  0  0  0  0
 35 41  1  0  0  0  0
 36 42  1  0  0  0  0
 37 43  1  0  0  0  0
 38 44  1  0  0  0  0
 38 45  1  0  0  0  0
 39 46  1  0  0  0  0
 39 47  1  0  0  0  0
 39 48  1  0  0  0  0
M  END
> <PUBCHEM_COMPOUND_CID>
5281751

> <PUBCHEM_COMPOUND_CANONICALIZED>
1

> <PUBCHEM_CACTVS_COMPLEXITY>
1080

> <PUBCHEM_CACTVS_HBOND_ACCEPTOR>
9

> <PUBCHEM_CACTVS_HBOND_DONOR>
7

> <PUBCHEM_CACTVS_ROTATABLE_BOND>
1

> <PUBCHEM_CACTVS_SUBSKEYS>
AAADceB4PAAAAAAAAAAAAAAAAAAAAAAAAAAwYMGDAAAAAADBVAAAGgAACAAADASgmAIyBsAAAgCIAqBSAAACAAAkIAAAiAEGCMgINzaCFRKAcUAl4BUImQfI7PTO4AADCAAYAADAAAYQADAAAAAAAAAAAA==

> <PUBCHEM_IUPAC_INCHI>
InChI=1S/C30H16O9/c1-7-2-9(32)19-23-15(7)16-8(6-31)3-10(33)20-24(16)28-26-18(12(35)5-14(37)22(26)30(20)39)17-11(34)4-13(36)21(29(19)38)25(17)27(23)28/h2-5,31-37H,6H2,1H3

> <PUBCHEM_IUPAC_INCHIKEY>
YXBUQQDFTYOHQI-UHFFFAOYSA-N

> <PUBCHEM_XLOGP3_AA>
5.6

> <PUBCHEM_EXACT_MASS>
520.079432

> <PUBCHEM_MOLECULAR_FORMULA>
C30H16O9

> <PUBCHEM_MOLECULAR_WEIGHT>
520.44264

> <PUBCHEM_OPENEYE_CAN_SMILES>
CC1=CC(=C2C3=C1C4=C5C(=C(C=C4CO)O)C(=O)C6=C(C=C(C7=C6C5=C3C8=C7C(=CC(=C8C2=O)O)O)O)O)O

> <PUBCHEM_OPENEYE_ISO_SMILES>
CC1=CC(=C2C3=C1C4=C5C(=C(C=C4CO)O)C(=O)C6=C(C=C(C7=C6C5=C3C8=C7C(=CC(=C8C2=O)O)O)O)O)O

> <PUBCHEM_CACTVS_TPSA>
176

> <PUBCHEM_MONOISOTOPIC_WEIGHT>
520.079432

> <PUBCHEM_TOTAL_CHARGE>
0

> <PUBCHEM_HEAVY_ATOM_COUNT>
39

> <PUBCHEM_ATOM_DEF_STEREO_COUNT>
0

> <PUBCHEM_ATOM_UDEF_STEREO_COUNT>
0

> <PUBCHEM_BOND_DEF_STEREO_COUNT>
0

> <PUBCHEM_BOND_UDEF_STEREO_COUNT>
0

> <PUBCHEM_ISOTOPIC_ATOM_COUNT>
0

> <PUBCHEM_COMPONENT_COUNT>
1

> <PUBCHEM_CACTVS_TAUTO_COUNT>
978

> <PUBCHEM_COORDINATE_TYPE>
1
5
255

> <PUBCHEM_BONDANNOTATIONS>
10  11  8
10  12  8
10  14  8
11  13  8
11  15  8
12  16  8
12  20  8
13  17  8
13  21  8
14  18  8
14  22  8
15  19  8
15  23  8
16  17  8
16  24  8
17  25  8
18  19  8
18  29  8
19  30  8
20  26  8
20  28  8
21  27  8
21  31  8
22  26  8
22  32  8
23  27  8
23  33  8
24  34  8
25  35  8
28  34  8
29  36  8
30  37  8
31  35  8
32  36  8
33  37  8

$$$$

