11563984
  -OEChem-07051213122D

 37 39  0     1  0  0  0  0  0999 V2000
    4.9889    0.2422    0.0000 Cl  0  0  0  0  0  0  0  0  0  0  0  0
    3.7320    2.4975    0.0000 N   0  0  0  0  0  0  0  0  0  0  0  0
    4.6783    2.8022    0.0000 N   0  0  0  0  0  0  0  0  0  0  0  0
    6.2619    1.9975    0.0000 N   0  0  0  0  0  0  0  0  0  0  0  0
    6.5406    0.2374    0.0000 N   0  0  3  0  0  0  0  0  0  0  0  0
    6.8497    2.8065    0.0000 N   0  0  0  0  0  0  0  0  0  0  0  0
    9.4188    0.3219    0.0000 N   0  0  0  0  0  0  0  0  0  0  0  0
    2.0000    1.4975    0.0000 C   0  0  0  0  0  0  0  0  0  0  0  0
    2.8660    0.9975    0.0000 C   0  0  0  0  0  0  0  0  0  0  0  0
    2.0000    2.4975    0.0000 C   0  0  0  0  0  0  0  0  0  0  0  0
    2.8660    2.9975    0.0000 C   0  0  0  0  0  0  0  0  0  0  0  0
    3.7320    1.4975    0.0000 C   0  0  0  0  0  0  0  0  0  0  0  0
    4.6783    1.1928    0.0000 C   0  0  0  0  0  0  0  0  0  0  0  0
    5.2619    1.9975    0.0000 C   0  0  0  0  0  0  0  0  0  0  0  0
    6.8497    1.1885    0.0000 C   0  0  0  0  0  0  0  0  0  0  0  0
    7.8007    1.4975    0.0000 C   0  0  0  0  0  0  0  0  0  0  0  0
    7.8007    2.4975    0.0000 C   0  0  0  0  0  0  0  0  0  0  0  0
    7.2098   -0.5057    0.0000 C   0  0  0  0  0  0  0  0  0  0  0  0
    5.5625    0.0295    0.0000 C   0  0  0  0  0  0  0  0  0  0  0  0
    8.6097    0.9097    0.0000 C   0  0  0  0  0  0  0  0  0  0  0  0
    6.9008   -1.4568    0.0000 C   0  0  0  0  0  0  0  0  0  0  0  0
    6.5917   -2.4078    0.0000 C   0  0  0  0  0  0  0  0  0  0  0  0
    1.3894    1.6052    0.0000 H   0  0  0  0  0  0  0  0  0  0  0  0
    1.7880    0.9149    0.0000 H   0  0  0  0  0  0  0  0  0  0  0  0
    2.4675    0.5225    0.0000 H   0  0  0  0  0  0  0  0  0  0  0  0
    3.2646    0.5225    0.0000 H   0  0  0  0  0  0  0  0  0  0  0  0
    1.7880    3.0801    0.0000 H   0  0  0  0  0  0  0  0  0  0  0  0
    1.3894    2.3898    0.0000 H   0  0  0  0  0  0  0  0  0  0  0  0
    3.2646    3.4724    0.0000 H   0  0  0  0  0  0  0  0  0  0  0  0
    2.4675    3.4724    0.0000 H   0  0  0  0  0  0  0  0  0  0  0  0
    8.3023    2.8619    0.0000 H   0  0  0  0  0  0  0  0  0  0  0  0
    7.7572   -0.7968    0.0000 H   0  0  0  0  0  0  0  0  0  0  0  0
    7.5915   -0.0172    0.0000 H   0  0  0  0  0  0  0  0  0  0  0  0
    5.4336    0.6360    0.0000 H   0  0  0  0  0  0  0  0  0  0  0  0
    4.9560   -0.0994    0.0000 H   0  0  0  0  0  0  0  0  0  0  0  0
    5.6914   -0.5769    0.0000 H   0  0  0  0  0  0  0  0  0  0  0  0
    6.4002   -2.9975    0.0000 H   0  0  0  0  0  0  0  0  0  0  0  0
  1 13  1  0  0  0  0
  2  3  1  0  0  0  0
  2 11  1  0  0  0  0
  2 12  1  0  0  0  0
  3 14  2  0  0  0  0
  4  6  1  0  0  0  0
  4 14  1  0  0  0  0
  4 15  1  0  0  0  0
  5 15  1  0  0  0  0
  5 18  1  0  0  0  0
  5 19  1  0  0  0  0
  6 17  2  0  0  0  0
  7 20  3  0  0  0  0
  8  9  1  0  0  0  0
  8 10  1  0  0  0  0
  8 23  1  0  0  0  0
  8 24  1  0  0  0  0
  9 12  1  0  0  0  0
  9 25  1  0  0  0  0
  9 26  1  0  0  0  0
 10 11  1  0  0  0  0
 10 27  1  0  0  0  0
 10 28  1  0  0  0  0
 11 29  1  0  0  0  0
 11 30  1  0  0  0  0
 12 13  2  0  0  0  0
 13 14  1  0  0  0  0
 15 16  2  0  0  0  0
 16 17  1  0  0  0  0
 16 20  1  0  0  0  0
 17 31  1  0  0  0  0
 18 21  1  0  0  0  0
 18 32  1  0  0  0  0
 18 33  1  0  0  0  0
 19 34  1  0  0  0  0
 19 35  1  0  0  0  0
 19 36  1  0  0  0  0
 21 22  3  0  0  0  0
 22 37  1  0  0  0  0
M  END
> <PUBCHEM_COMPOUND_CID>
11563984

> <PUBCHEM_COMPOUND_CANONICALIZED>
1

> <PUBCHEM_CACTVS_COMPLEXITY>
507

> <PUBCHEM_CACTVS_HBOND_ACCEPTOR>
4

> <PUBCHEM_CACTVS_HBOND_DONOR>
0

> <PUBCHEM_CACTVS_ROTATABLE_BOND>
3

> <PUBCHEM_CACTVS_SUBSKEYS>
AAADccBzgAAEAAAAAAAAAAAAAAAAAWLAAAAsAAAAAAAAAFgB4AAAHAIIAAAADArBHiQvsJMIAADyHxZnZACwBCMhhAAVWCA4RhiAoMJB2MDEhAhoiALISCMQgAAAAAAAAAAAAAAAAAAAAAAAAAAAAAAAAA==

> <PUBCHEM_IUPAC_OPENEYE_NAME>
1-(3-chloro-4,5,6,7-tetrahydropyrazolo[1,5-a]pyridin-2-yl)-5-[methyl(prop-2-ynyl)amino]pyrazole-4-carbonitrile

> <PUBCHEM_IUPAC_CAS_NAME>
1-(3-chloro-4,5,6,7-tetrahydropyrazolo[1,5-a]pyridin-2-yl)-5-[methyl(prop-2-ynyl)amino]-4-pyrazolecarbonitrile

> <PUBCHEM_IUPAC_NAME>
1-(3-chloro-4,5,6,7-tetrahydropyrazolo[1,5-a]pyridin-2-yl)-5-[methyl(prop-2-ynyl)amino]pyrazole-4-carbonitrile

> <PUBCHEM_IUPAC_SYSTEMATIC_NAME>
1-(3-chloranyl-4,5,6,7-tetrahydropyrazolo[1,5-a]pyridin-2-yl)-5-[methyl(prop-2-ynyl)amino]pyrazole-4-carbonitrile

> <PUBCHEM_IUPAC_TRADITIONAL_NAME>
1-(3-chloro-4,5,6,7-tetrahydropyrazolo[1,5-a]pyridin-2-yl)-5-[methyl(propargyl)amino]pyrazole-4-carbonitrile

> <PUBCHEM_IUPAC_INCHI>
InChI=1S/C15H15ClN6/c1-3-7-20(2)15-11(9-17)10-18-22(15)14-13(16)12-6-4-5-8-21(12)19-14/h1,10H,4-8H2,2H3

> <PUBCHEM_IUPAC_INCHIKEY>
IHHMUBRVTJMLQO-UHFFFAOYSA-N

> <PUBCHEM_XLOGP3_AA>
2.2

> <PUBCHEM_EXACT_MASS>
314.104672

> <PUBCHEM_MOLECULAR_FORMULA>
C15H15ClN6

> <PUBCHEM_MOLECULAR_WEIGHT>
314.7728

> <PUBCHEM_OPENEYE_CAN_SMILES>
CN(CC#C)C1=C(C=NN1C2=NN3CCCCC3=C2Cl)C#N

> <PUBCHEM_OPENEYE_ISO_SMILES>
CN(CC#C)C1=C(C=NN1C2=NN3CCCCC3=C2Cl)C#N

> <PUBCHEM_CACTVS_TPSA>
62.7

> <PUBCHEM_MONOISOTOPIC_WEIGHT>
314.104672

> <PUBCHEM_TOTAL_CHARGE>
0

> <PUBCHEM_HEAVY_ATOM_COUNT>
22

> <PUBCHEM_ATOM_DEF_STEREO_COUNT>
0

> <PUBCHEM_ATOM_UDEF_STEREO_COUNT>
0

> <PUBCHEM_BOND_DEF_STEREO_COUNT>
0

> <PUBCHEM_BOND_UDEF_STEREO_COUNT>
0

> <PUBCHEM_ISOTOPIC_ATOM_COUNT>
0

> <PUBCHEM_COMPONENT_COUNT>
1

> <PUBCHEM_CACTVS_TAUTO_COUNT>
1

> <PUBCHEM_COORDINATE_TYPE>
1
5
255

> <PUBCHEM_BONDANNOTATIONS>
12  13  8
13  14  8
15  16  8
16  17  8
2  12  8
2  3  8
3  14  8
4  15  8
4  6  8
6  17  8

$$$$

