441975
  -OEChem-07051212562D

 50 54  0     1  0  0  0  0  0999 V2000
    9.7248   -0.3112    0.0000 O   0  0  0  0  0  0  0  0  0  0  0  0
    7.5596   -2.5737    0.0000 O   0  0  0  0  0  0  0  0  0  0  0  0
    6.2860   -1.3999    0.0000 O   0  0  0  0  0  0  0  0  0  0  0  0
    6.9654    2.1163    0.0000 N   0  0  3  0  0  0  0  0  0  0  0  0
    4.5124    0.9988    0.0000 N   0  0  0  0  0  0  0  0  0  0  0  0
    8.3170    0.9273    0.0000 C   0  0  2  0  0  0  0  0  0  0  0  0
    7.6200    0.1532    0.0000 C   0  0  2  0  0  0  0  0  0  0  0  0
    6.2962    1.3731    0.0000 C   0  0  1  0  0  0  0  0  0  0  0  0
    6.6028    0.3776    0.0000 C   0  0  0  0  0  0  0  0  0  0  0  0
    7.9875    1.9154    0.0000 C   0  0  0  0  0  0  0  0  0  0  0  0
    9.3816    0.7181    0.0000 C   0  0  2  0  0  0  0  0  0  0  0  0
    5.3181    1.5810    0.0000 C   0  0  0  0  0  0  0  0  0  0  0  0
    6.6564    3.0673    0.0000 C   0  0  0  0  0  0  0  0  0  0  0  0
    5.0091    2.5321    0.0000 C   0  0  0  0  0  0  0  0  0  0  0  0
    5.6782    3.2752    0.0000 C   0  0  0  0  0  0  0  0  0  0  0  0
    7.9393   -0.8837    0.0000 C   0  0  0  0  0  0  0  0  0  0  0  0
    4.0150    2.5295    0.0000 C   0  0  0  0  0  0  0  0  0  0  0  0
   10.0421    1.4689    0.0000 C   0  0  0  0  0  0  0  0  0  0  0  0
    8.9988   -1.1175    0.0000 C   0  0  0  0  0  0  0  0  0  0  0  0
    3.7086    1.5838    0.0000 C   0  0  0  0  0  0  0  0  0  0  0  0
    7.2616   -1.6191    0.0000 C   0  0  0  0  0  0  0  0  0  0  0  0
    3.3334    3.3090    0.0000 C   0  0  0  0  0  0  0  0  0  0  0  0
    2.6994    1.3521    0.0000 C   0  0  0  0  0  0  0  0  0  0  0  0
    2.3191    3.1007    0.0000 C   0  0  0  0  0  0  0  0  0  0  0  0
    2.0000    2.1156    0.0000 C   0  0  0  0  0  0  0  0  0  0  0  0
    6.8820   -3.3090    0.0000 C   0  0  0  0  0  0  0  0  0  0  0  0
    8.8784    1.5655    0.0000 H   0  0  0  0  0  0  0  0  0  0  0  0
    7.0440   -0.4718    0.0000 H   0  0  0  0  0  0  0  0  0  0  0  0
    5.7226    0.7459    0.0000 H   0  0  0  0  0  0  0  0  0  0  0  0
    5.9878    0.2992    0.0000 H   0  0  0  0  0  0  0  0  0  0  0  0
    6.5748   -0.2417    0.0000 H   0  0  0  0  0  0  0  0  0  0  0  0
    8.6005    2.0080    0.0000 H   0  0  0  0  0  0  0  0  0  0  0  0
    8.0011    2.5353    0.0000 H   0  0  0  0  0  0  0  0  0  0  0  0
    9.9893    0.5950    0.0000 H   0  0  0  0  0  0  0  0  0  0  0  0
    7.2703    3.1536    0.0000 H   0  0  0  0  0  0  0  0  0  0  0  0
    6.6780    3.6869    0.0000 H   0  0  0  0  0  0  0  0  0  0  0  0
    5.9105    3.8501    0.0000 H   0  0  0  0  0  0  0  0  0  0  0  0
    5.1524    3.6038    0.0000 H   0  0  0  0  0  0  0  0  0  0  0  0
    4.5113    0.3788    0.0000 H   0  0  0  0  0  0  0  0  0  0  0  0
   10.5076    1.0594    0.0000 H   0  0  0  0  0  0  0  0  0  0  0  0
   10.4516    1.9344    0.0000 H   0  0  0  0  0  0  0  0  0  0  0  0
    9.5766    1.8784    0.0000 H   0  0  0  0  0  0  0  0  0  0  0  0
    9.1881   -1.7079    0.0000 H   0  0  0  0  0  0  0  0  0  0  0  0
    3.5313    3.8966    0.0000 H   0  0  0  0  0  0  0  0  0  0  0  0
    2.5152    0.7601    0.0000 H   0  0  0  0  0  0  0  0  0  0  0  0
    1.9056    3.5626    0.0000 H   0  0  0  0  0  0  0  0  0  0  0  0
    1.3942    1.9838    0.0000 H   0  0  0  0  0  0  0  0  0  0  0  0
    6.4260   -2.8888    0.0000 H   0  0  0  0  0  0  0  0  0  0  0  0
    6.4618   -3.7649    0.0000 H   0  0  0  0  0  0  0  0  0  0  0  0
    7.3379   -3.7292    0.0000 H   0  0  0  0  0  0  0  0  0  0  0  0
  1 11  1  0  0  0  0
  1 19  1  0  0  0  0
  2 21  1  0  0  0  0
  2 26  1  0  0  0  0
  3 21  2  0  0  0  0
  4  8  1  0  0  0  0
  4 10  1  0  0  0  0
  4 13  1  0  0  0  0
  5 12  1  0  0  0  0
  5 20  1  0  0  0  0
  5 39  1  0  0  0  0
  6  7  1  0  0  0  0
  6 10  1  0  0  0  0
  6 11  1  0  0  0  0
  6 27  1  1  0  0  0
  7  9  1  0  0  0  0
  7 16  1  0  0  0  0
  7 28  1  6  0  0  0
  8  9  1  0  0  0  0
  8 12  1  0  0  0  0
  8 29  1  6  0  0  0
  9 30  1  0  0  0  0
  9 31  1  0  0  0  0
 10 32  1  0  0  0  0
 10 33  1  0  0  0  0
 11 18  1  6  0  0  0
 11 34  1  0  0  0  0
 12 14  2  0  0  0  0
 13 15  1  0  0  0  0
 13 35  1  0  0  0  0
 13 36  1  0  0  0  0
 14 15  1  0  0  0  0
 14 17  1  0  0  0  0
 15 37  1  0  0  0  0
 15 38  1  0  0  0  0
 16 19  2  0  0  0  0
 16 21  1  0  0  0  0
 17 20  1  0  0  0  0
 17 22  2  0  0  0  0
 18 40  1  0  0  0  0
 18 41  1  0  0  0  0
 18 42  1  0  0  0  0
 19 43  1  0  0  0  0
 20 23  2  0  0  0  0
 22 24  1  0  0  0  0
 22 44  1  0  0  0  0
 23 25  1  0  0  0  0
 23 45  1  0  0  0  0
 24 25  2  0  0  0  0
 24 46  1  0  0  0  0
 25 47  1  0  0  0  0
 26 48  1  0  0  0  0
 26 49  1  0  0  0  0
 26 50  1  0  0  0  0
M  END
> <PUBCHEM_COMPOUND_CID>
441975

> <PUBCHEM_COMPOUND_CANONICALIZED>
1

> <PUBCHEM_CACTVS_COMPLEXITY>
606

> <PUBCHEM_CACTVS_HBOND_ACCEPTOR>
4

> <PUBCHEM_CACTVS_HBOND_DONOR>
1

> <PUBCHEM_CACTVS_ROTATABLE_BOND>
2

> <PUBCHEM_CACTVS_SUBSKEYS>
AAADceB7MAAAAAAAAAAAAAAAAAAAAWAAAAA8WIEAAAAAAFix8AAAHgAQAAAADTzhngYyyPPJlACoAyTyTACCiCAhIiAImSE4ZNgIZPLAsZGUIAhmkADI6IeY/e/egAAAAAACAAAAAAAAAAQAAAAAAAAAAA==

> <PUBCHEM_IUPAC_INCHI>
InChI=1S/C21H24N2O3/c1-12-16-10-23-8-7-14-13-5-3-4-6-18(13)22-20(14)19(23)9-15(16)17(11-26-12)21(24)25-2/h3-6,11-12,15-16,19,22H,7-10H2,1-2H3/t12-,15-,16+,19-/m0/s1

> <PUBCHEM_IUPAC_INCHIKEY>
GRTOGORTSDXSFK-XJTZBENFSA-N

> <PUBCHEM_XLOGP3_AA>
2.7

> <PUBCHEM_EXACT_MASS>
352.178693

> <PUBCHEM_MOLECULAR_FORMULA>
C21H24N2O3

> <PUBCHEM_MOLECULAR_WEIGHT>
352.42686

> <PUBCHEM_OPENEYE_CAN_SMILES>
CC1C2CN3CCC4=C(C3CC2C(=CO1)C(=O)OC)NC5=CC=CC=C45

> <PUBCHEM_OPENEYE_ISO_SMILES>
C[C@H]1[C@H]2CN3CCC4=C([C@@H]3C[C@@H]2C(=CO1)C(=O)OC)NC5=CC=CC=C45

> <PUBCHEM_CACTVS_TPSA>
54.6

> <PUBCHEM_MONOISOTOPIC_WEIGHT>
352.178693

> <PUBCHEM_TOTAL_CHARGE>
0

> <PUBCHEM_HEAVY_ATOM_COUNT>
26

> <PUBCHEM_ATOM_DEF_STEREO_COUNT>
4

> <PUBCHEM_ATOM_UDEF_STEREO_COUNT>
0

> <PUBCHEM_BOND_DEF_STEREO_COUNT>
0

> <PUBCHEM_BOND_UDEF_STEREO_COUNT>
0

> <PUBCHEM_ISOTOPIC_ATOM_COUNT>
0

> <PUBCHEM_COMPONENT_COUNT>
1

> <PUBCHEM_CACTVS_TAUTO_COUNT>
1

> <PUBCHEM_COORDINATE_TYPE>
1
5
255

> <PUBCHEM_BONDANNOTATIONS>
11  18  6
12  14  8
14  17  8
17  20  8
17  22  8
20  23  8
22  24  8
23  25  8
24  25  8
5  12  8
5  20  8
6  27  5
7  28  6
8  29  6

$$$$

