   Color/Form

     * Prisms from dilute alcohol
     * White crystals

   from [1]HSDB

   Melting Point
        175-185 deg C /decomposes/
   from [2]HSDB

   Dissociation Constants
        pKa = 10.8
   from [3]HSDB

   Octanol/Water Partition Coefficient
        log Kow = -2.75
   from [4]HSDB

   Solubilities

     * Freely sol in water with acid reaction; very slightly sol in hot
       alcohol; Insol in anhyd ether
     * Insoluble in absolute alcohol
     * In water, 1X10+6 mg/L at 25 deg C /Estimated/

   from [5]HSDB

   Spectral Properties

     * MAX ABSORPTION (WATER): 278 NM SHOULDERS (LOG E= -0.7), 357 NM
       SHOULDERS (LOG E= -1.1)
     * IR: 15256 (Sadtler Research Laboratories IR Grating Collection)
     * NMR: 17040 (Sadtler Research Laboratories Spectral Collection)

   from [6]HSDB

   Vapor Pressure
        0.13 mm Hg at 25 deg C /Estimated/
   from [7]HSDB

   Other Chemical/Physical Properties

     * Ammonolysis with liquid NH3 gives 95% yield of free base
     * MP: 96 deg C /Base/
     * Henry's Law constant = 1.5X10-12 atm-cu m/mol at 25 deg C
       /Estimated/
     * Hydroxyl radical reaction rate constant = 2X10-12 cu cm/molec-sec
       at 25 deg C /Estimated/

   from [8]HSDB

   Computed Properties
   Molecular Weight                  111.53084 [g/mol]
   Molecular Formula                 CH[6]ClN[3]O
   H-Bond Donor                      4
   H-Bond Acceptor                   2
   Rotatable Bond Count              0
   Tautomer Count                    3
   Exact Mass                        111.01994
   MonoIsotopic Mass                 111.01994
   Topological Polar Surface Area    81.1
   Heavy Atom Count                  6
   Formal Charge                     0
   Complexity                        42.2
   Isotope Atom Count                0
   Defined Atom Stereocenter Count   0
   Undefined Atom Stereocenter Count 0
   Defined Bond Stereocenter Count   0
   Undefined Bond Stereocenter Count 0
   Covalently-Bonded Unit Count      2

References

   1. http://toxnet.nlm.nih.gov/cgi-bin/sis/search/r?dbs+hsdb:@term+@rn+@rel+563-41-7
   2. http://toxnet.nlm.nih.gov/cgi-bin/sis/search/r?dbs+hsdb:@term+@rn+@rel+563-41-7
   3. http://toxnet.nlm.nih.gov/cgi-bin/sis/search/r?dbs+hsdb:@term+@rn+@rel+563-41-7
   4. http://toxnet.nlm.nih.gov/cgi-bin/sis/search/r?dbs+hsdb:@term+@rn+@rel+563-41-7
   5. http://toxnet.nlm.nih.gov/cgi-bin/sis/search/r?dbs+hsdb:@term+@rn+@rel+563-41-7
   6. http://toxnet.nlm.nih.gov/cgi-bin/sis/search/r?dbs+hsdb:@term+@rn+@rel+563-41-7
   7. http://toxnet.nlm.nih.gov/cgi-bin/sis/search/r?dbs+hsdb:@term+@rn+@rel+563-41-7
   8. http://toxnet.nlm.nih.gov/cgi-bin/sis/search/r?dbs+hsdb:@term+@rn+@rel+563-41-7
