441150
  -OEChem-07051212522D

 25 27  0     1  0  0  0  0  0999 V2000
    4.5274    1.8683    0.0000 S   0  0  0  0  0  0  0  0  0  0  0  0
    5.3923   -1.4027    0.0000 O   0  0  0  0  0  0  0  0  0  0  0  0
    7.3991   -0.9923    0.0000 O   0  0  0  0  0  0  0  0  0  0  0  0
    5.7123   -0.4553    0.0000 C   0  0  1  0  0  0  0  0  0  0  0  0
    5.0274    0.3294    0.0000 C   0  0  0  0  0  0  0  0  0  0  0  0
    6.7328   -0.2466    0.0000 C   0  0  1  0  0  0  0  0  0  0  0  0
    4.0274    0.3294    0.0000 C   0  0  0  0  0  0  0  0  0  0  0  0
    5.3364    1.2805    0.0000 C   0  0  0  0  0  0  0  0  0  0  0  0
    3.7183    1.2805    0.0000 C   0  0  0  0  0  0  0  0  0  0  0  0
    7.0547    0.7440    0.0000 C   0  0  0  0  0  0  0  0  0  0  0  0
    6.3518    1.5127    0.0000 C   0  0  0  0  0  0  0  0  0  0  0  0
    3.3424   -0.4553    0.0000 C   0  0  0  0  0  0  0  0  0  0  0  0
    2.7029    1.5127    0.0000 C   0  0  0  0  0  0  0  0  0  0  0  0
    2.3219   -0.2466    0.0000 C   0  0  0  0  0  0  0  0  0  0  0  0
    2.0000    0.7440    0.0000 C   0  0  0  0  0  0  0  0  0  0  0  0
    6.1227   -0.9200    0.0000 H   0  0  0  0  0  0  0  0  0  0  0  0
    6.5378   -0.8352    0.0000 H   0  0  0  0  0  0  0  0  0  0  0  0
    7.6607    0.8753    0.0000 H   0  0  0  0  0  0  0  0  0  0  0  0
    6.5365    2.1046    0.0000 H   0  0  0  0  0  0  0  0  0  0  0  0
    3.5408   -1.0427    0.0000 H   0  0  0  0  0  0  0  0  0  0  0  0
    2.5182    2.1046    0.0000 H   0  0  0  0  0  0  0  0  0  0  0  0
    5.8018   -1.8683    0.0000 H   0  0  0  0  0  0  0  0  0  0  0  0
    1.9088   -0.7090    0.0000 H   0  0  0  0  0  0  0  0  0  0  0  0
    8.0060   -0.8658    0.0000 H   0  0  0  0  0  0  0  0  0  0  0  0
    1.3940    0.8753    0.0000 H   0  0  0  0  0  0  0  0  0  0  0  0
  1  8  1  0  0  0  0
  1  9  1  0  0  0  0
  4  2  1  1  0  0  0
  2 22  1  0  0  0  0
  6  3  1  1  0  0  0
  3 24  1  0  0  0  0
  4  5  1  0  0  0  0
  4  6  1  0  0  0  0
  4 16  1  0  0  0  0
  5  7  1  0  0  0  0
  5  8  2  0  0  0  0
  6 10  1  0  0  0  0
  6 17  1  0  0  0  0
  7  9  1  0  0  0  0
  7 12  2  0  0  0  0
  8 11  1  0  0  0  0
  9 13  2  0  0  0  0
 10 11  2  0  0  0  0
 10 18  1  0  0  0  0
 11 19  1  0  0  0  0
 12 14  1  0  0  0  0
 12 20  1  0  0  0  0
 13 15  1  0  0  0  0
 13 21  1  0  0  0  0
 14 15  2  0  0  0  0
 14 23  1  0  0  0  0
 15 25  1  0  0  0  0
M  END
> <PUBCHEM_COMPOUND_CID>
441150

> <PUBCHEM_COMPOUND_CANONICALIZED>
1

> <PUBCHEM_CACTVS_COMPLEXITY>
279

> <PUBCHEM_CACTVS_HBOND_ACCEPTOR>
3

> <PUBCHEM_CACTVS_HBOND_DONOR>
2

> <PUBCHEM_CACTVS_ROTATABLE_BOND>
0

> <PUBCHEM_CACTVS_SUBSKEYS>
AAADccBwMABAAAAAAAAAAAAAAAAAASAAAAAwQAAAAAAAAEgB8AAAGgQACAAADBSg2AIwAcAAAgiEAiBCAAADAIAgCBBIiBgACIgJNiKgERCAcAAkwAEpmAeAwOAOgAAAAAAEAAAAAAAAAAgAAAAAAAAAAA==

> <PUBCHEM_IUPAC_OPENEYE_NAME>
(1S,2R)-1,2-dihydrodibenzothiophene-1,2-diol

> <PUBCHEM_IUPAC_CAS_NAME>
(1S,2R)-1,2-dihydrodibenzothiophene-1,2-diol

> <PUBCHEM_IUPAC_NAME>
(1S,2R)-1,2-dihydrodibenzothiophene-1,2-diol

> <PUBCHEM_IUPAC_SYSTEMATIC_NAME>
(1S,2R)-1,2-dihydrodibenzothiophene-1,2-diol

> <PUBCHEM_IUPAC_TRADITIONAL_NAME>
(1S,2R)-1,2-dihydrodibenzothiophene-1,2-diol

> <PUBCHEM_IUPAC_INCHI>
InChI=1S/C12H10O2S/c13-8-5-6-10-11(12(8)14)7-3-1-2-4-9(7)15-10/h1-6,8,12-14H/t8-,12-/m1/s1

> <PUBCHEM_IUPAC_INCHIKEY>
OOOXLVUNFHBSNL-PRHODGIISA-N

> <PUBCHEM_XLOGP3_AA>
1.8

> <PUBCHEM_EXACT_MASS>
218.040151

> <PUBCHEM_MOLECULAR_FORMULA>
C12H10O2S

> <PUBCHEM_MOLECULAR_WEIGHT>
218.2716

> <PUBCHEM_OPENEYE_CAN_SMILES>
C1=CC=C2C(=C1)C3=C(S2)C=CC(C3O)O

> <PUBCHEM_OPENEYE_ISO_SMILES>
C1=CC=C2C(=C1)C3=C(S2)C=C[C@H]([C@H]3O)O

> <PUBCHEM_CACTVS_TPSA>
68.7

> <PUBCHEM_MONOISOTOPIC_WEIGHT>
218.040151

> <PUBCHEM_TOTAL_CHARGE>
0

> <PUBCHEM_HEAVY_ATOM_COUNT>
15

> <PUBCHEM_ATOM_DEF_STEREO_COUNT>
2

> <PUBCHEM_ATOM_UDEF_STEREO_COUNT>
0

> <PUBCHEM_BOND_DEF_STEREO_COUNT>
0

> <PUBCHEM_BOND_UDEF_STEREO_COUNT>
0

> <PUBCHEM_ISOTOPIC_ATOM_COUNT>
0

> <PUBCHEM_COMPONENT_COUNT>
1

> <PUBCHEM_CACTVS_TAUTO_COUNT>
1

> <PUBCHEM_COORDINATE_TYPE>
1
5
255

> <PUBCHEM_BONDANNOTATIONS>
1  8  8
1  9  8
12  14  8
13  15  8
14  15  8
4  2  5
6  3  5
5  7  8
5  8  8
7  12  8
7  9  8
9  13  8

$$$$

