25079986
  -OEChem-07051212542D

 87 90  0     1  0  0  0  0  0999 V2000
    7.8903    3.3426    0.0000 O   0  0  0  0  0  0  0  0  0  0  0  0
    7.5134    1.4035    0.0000 O   0  0  0  0  0  0  0  0  0  0  0  0
    8.3794   -0.0965    0.0000 O   0  0  0  0  0  0  0  0  0  0  0  0
    6.3866    3.2610    0.0000 O   0  0  0  0  0  0  0  0  0  0  0  0
    9.0708    1.0399    0.0000 O   0  0  0  0  0  0  0  0  0  0  0  0
   10.4102    2.7542    0.0000 O   0  0  0  0  0  0  0  0  0  0  0  0
    4.8572    2.4479    0.0000 O   0  0  0  0  0  0  0  0  0  0  0  0
    9.2454   -2.5965    0.0000 O   0  0  0  0  0  0  0  0  0  0  0  0
    5.7814    0.4035    0.0000 O   0  0  0  0  0  0  0  0  0  0  0  0
    5.7814   -1.5965    0.0000 O   0  0  0  0  0  0  0  0  0  0  0  0
    7.5134   -2.5965    0.0000 O   0  0  0  0  0  0  0  0  0  0  0  0
   10.9775   -2.5965    0.0000 O   0  0  0  0  0  0  0  0  0  0  0  0
    8.5508    5.3239    0.0000 O   0  0  0  0  0  0  0  0  0  0  0  0
    5.4476    5.0269    0.0000 O   0  0  0  0  0  0  0  0  0  0  0  0
    3.4488    5.0967    0.0000 O   0  0  0  0  0  0  0  0  0  0  0  0
    2.3890    3.4006    0.0000 O   0  0  0  0  0  0  0  0  0  0  0  0
    9.2454   -4.5965    0.0000 O   0  0  0  0  0  0  0  0  0  0  0  0
   10.9775   -5.5965    0.0000 O   0  0  0  0  0  0  0  0  0  0  0  0
   12.7096   -4.5965    0.0000 O   0  0  0  0  0  0  0  0  0  0  0  0
    2.3286    1.6696    0.0000 O   0  0  0  0  0  0  0  0  0  0  0  0
   13.5756   -3.0965    0.0000 O   0  0  0  0  0  0  0  0  0  0  0  0
    7.8554    2.3432    0.0000 C   0  0  1  0  0  0  0  0  0  0  0  0
    8.7951    2.0011    0.0000 C   0  0  2  0  0  0  0  0  0  0  0  0
    9.4108    2.7891    0.0000 C   0  0  1  0  0  0  0  0  0  0  0  0
    8.8516    3.6182    0.0000 C   0  0  1  0  0  0  0  0  0  0  0  0
    7.5134    0.4035    0.0000 C   0  0  1  0  0  0  0  0  0  0  0  0
    6.8560    2.3781    0.0000 C   0  0  0  0  0  0  0  0  0  0  0  0
    6.6474   -0.0965    0.0000 C   0  0  1  0  0  0  0  0  0  0  0  0
    8.3794   -1.0965    0.0000 C   0  0  1  0  0  0  0  0  0  0  0  0
    6.6474   -1.0965    0.0000 C   0  0  2  0  0  0  0  0  0  0  0  0
    7.5134   -1.5965    0.0000 C   0  0  2  0  0  0  0  0  0  0  0  0
    9.1936    4.5579    0.0000 C   0  0  0  0  0  0  0  0  0  0  0  0
    5.3872    3.2959    0.0000 C   0  0  1  0  0  0  0  0  0  0  0  0
    9.2454   -1.5965    0.0000 C   0  0  0  0  0  0  0  0  0  0  0  0
    4.9177    4.1788    0.0000 C   0  0  1  0  0  0  0  0  0  0  0  0
    3.9183    4.2138    0.0000 C   0  0  2  0  0  0  0  0  0  0  0  0
    3.3884    3.3657    0.0000 C   0  0  2  0  0  0  0  0  0  0  0  0
    3.8579    2.4828    0.0000 C   0  0  1  0  0  0  0  0  0  0  0  0
   10.1115   -3.0965    0.0000 C   0  0  1  0  0  0  0  0  0  0  0  0
   10.1115   -4.0965    0.0000 C   0  0  1  0  0  0  0  0  0  0  0  0
   10.9775   -4.5965    0.0000 C   0  0  2  0  0  0  0  0  0  0  0  0
   11.8435   -4.0965    0.0000 C   0  0  2  0  0  0  0  0  0  0  0  0
   11.8435   -3.0965    0.0000 C   0  0  1  0  0  0  0  0  0  0  0  0
    3.3279    1.6347    0.0000 C   0  0  0  0  0  0  0  0  0  0  0  0
   12.7096   -2.5965    0.0000 C   0  0  0  0  0  0  0  0  0  0  0  0
    9.4037    1.8828    0.0000 H   0  0  0  0  0  0  0  0  0  0  0  0
    9.7114    3.3314    0.0000 H   0  0  0  0  0  0  0  0  0  0  0  0
    8.4288    4.0716    0.0000 H   0  0  0  0  0  0  0  0  0  0  0  0
    6.9765    0.7135    0.0000 H   0  0  0  0  0  0  0  0  0  0  0  0
    6.2664    2.1865    0.0000 H   0  0  0  0  0  0  0  0  0  0  0  0
    6.9423    1.7641    0.0000 H   0  0  0  0  0  0  0  0  0  0  0  0
    6.6474    0.5235    0.0000 H   0  0  0  0  0  0  0  0  0  0  0  0
    8.9164   -0.7865    0.0000 H   0  0  0  0  0  0  0  0  0  0  0  0
    6.6474   -1.7165    0.0000 H   0  0  0  0  0  0  0  0  0  0  0  0
    8.0503   -1.9065    0.0000 H   0  0  0  0  0  0  0  0  0  0  0  0
    9.7305    4.2479    0.0000 H   0  0  0  0  0  0  0  0  0  0  0  0
    9.5921    5.0328    0.0000 H   0  0  0  0  0  0  0  0  0  0  0  0
    5.7157    3.8217    0.0000 H   0  0  0  0  0  0  0  0  0  0  0  0
    9.8560   -1.7042    0.0000 H   0  0  0  0  0  0  0  0  0  0  0  0
    9.4575   -1.0139    0.0000 H   0  0  0  0  0  0  0  0  0  0  0  0
    4.6266    4.7263    0.0000 H   0  0  0  0  0  0  0  0  0  0  0  0
    4.2469    4.7395    0.0000 H   0  0  0  0  0  0  0  0  0  0  0  0
    3.0973    3.9131    0.0000 H   0  0  0  0  0  0  0  0  0  0  0  0
    4.1489    1.9353    0.0000 H   0  0  0  0  0  0  0  0  0  0  0  0
    9.6723    0.8899    0.0000 H   0  0  0  0  0  0  0  0  0  0  0  0
   10.1115   -2.4765    0.0000 H   0  0  0  0  0  0  0  0  0  0  0  0
   10.7387    3.2800    0.0000 H   0  0  0  0  0  0  0  0  0  0  0  0
   10.1115   -4.7165    0.0000 H   0  0  0  0  0  0  0  0  0  0  0  0
   10.4406   -4.9065    0.0000 H   0  0  0  0  0  0  0  0  0  0  0  0
   12.3805   -3.7865    0.0000 H   0  0  0  0  0  0  0  0  0  0  0  0
   11.8435   -2.4765    0.0000 H   0  0  0  0  0  0  0  0  0  0  0  0
    5.2444    0.0935    0.0000 H   0  0  0  0  0  0  0  0  0  0  0  0
    5.7814   -2.2165    0.0000 H   0  0  0  0  0  0  0  0  0  0  0  0
    6.9765   -2.9065    0.0000 H   0  0  0  0  0  0  0  0  0  0  0  0
    3.1990    1.0283    0.0000 H   0  0  0  0  0  0  0  0  0  0  0  0
    3.9028    1.4024    0.0000 H   0  0  0  0  0  0  0  0  0  0  0  0
    8.7629    5.9065    0.0000 H   0  0  0  0  0  0  0  0  0  0  0  0
   13.1081   -2.1216    0.0000 H   0  0  0  0  0  0  0  0  0  0  0  0
   12.3110   -2.1216    0.0000 H   0  0  0  0  0  0  0  0  0  0  0  0
    5.1566    5.5743    0.0000 H   0  0  0  0  0  0  0  0  0  0  0  0
    2.8292    5.1183    0.0000 H   0  0  0  0  0  0  0  0  0  0  0  0
    2.0979    3.9480    0.0000 H   0  0  0  0  0  0  0  0  0  0  0  0
    9.2454   -5.2165    0.0000 H   0  0  0  0  0  0  0  0  0  0  0  0
   11.5144   -5.9065    0.0000 H   0  0  0  0  0  0  0  0  0  0  0  0
   12.7096   -5.2165    0.0000 H   0  0  0  0  0  0  0  0  0  0  0  0
    2.0000    1.1438    0.0000 H   0  0  0  0  0  0  0  0  0  0  0  0
   14.1125   -2.7865    0.0000 H   0  0  0  0  0  0  0  0  0  0  0  0
  1 22  1  0  0  0  0
  1 25  1  0  0  0  0
 22  2  1  6  0  0  0
 26  2  1  1  0  0  0
  3 26  1  0  0  0  0
  3 29  1  0  0  0  0
  4 27  1  0  0  0  0
 33  4  1  1  0  0  0
 23  5  1  6  0  0  0
  5 65  1  0  0  0  0
 24  6  1  1  0  0  0
  6 67  1  0  0  0  0
  7 33  1  0  0  0  0
  7 38  1  0  0  0  0
  8 34  1  0  0  0  0
 39  8  1  1  0  0  0
 28  9  1  1  0  0  0
  9 72  1  0  0  0  0
 30 10  1  6  0  0  0
 10 73  1  0  0  0  0
 31 11  1  1  0  0  0
 11 74  1  0  0  0  0
 12 39  1  0  0  0  0
 12 43  1  0  0  0  0
 13 32  1  0  0  0  0
 13 77  1  0  0  0  0
 35 14  1  1  0  0  0
 14 80  1  0  0  0  0
 36 15  1  6  0  0  0
 15 81  1  0  0  0  0
 37 16  1  6  0  0  0
 16 82  1  0  0  0  0
 40 17  1  1  0  0  0
 17 83  1  0  0  0  0
 41 18  1  6  0  0  0
 18 84  1  0  0  0  0
 42 19  1  6  0  0  0
 19 85  1  0  0  0  0
 20 44  1  0  0  0  0
 20 86  1  0  0  0  0
 21 45  1  0  0  0  0
 21 87  1  0  0  0  0
 22 23  1  0  0  0  0
 22 27  1  0  0  0  0
 23 24  1  0  0  0  0
 23 46  1  0  0  0  0
 24 25  1  0  0  0  0
 24 47  1  0  0  0  0
 25 32  1  6  0  0  0
 25 48  1  0  0  0  0
 26 28  1  0  0  0  0
 26 49  1  0  0  0  0
 27 50  1  0  0  0  0
 27 51  1  0  0  0  0
 28 30  1  0  0  0  0
 28 52  1  0  0  0  0
 29 31  1  0  0  0  0
 29 34  1  6  0  0  0
 29 53  1  0  0  0  0
 30 31  1  0  0  0  0
 30 54  1  0  0  0  0
 31 55  1  0  0  0  0
 32 56  1  0  0  0  0
 32 57  1  0  0  0  0
 33 35  1  0  0  0  0
 33 58  1  0  0  0  0
 34 59  1  0  0  0  0
 34 60  1  0  0  0  0
 35 36  1  0  0  0  0
 35 61  1  0  0  0  0
 36 37  1  0  0  0  0
 36 62  1  0  0  0  0
 37 38  1  0  0  0  0
 37 63  1  0  0  0  0
 38 44  1  6  0  0  0
 38 64  1  0  0  0  0
 39 40  1  0  0  0  0
 39 66  1  0  0  0  0
 40 41  1  0  0  0  0
 40 68  1  0  0  0  0
 41 42  1  0  0  0  0
 41 69  1  0  0  0  0
 42 43  1  0  0  0  0
 42 70  1  0  0  0  0
 43 45  1  6  0  0  0
 43 71  1  0  0  0  0
 44 75  1  0  0  0  0
 44 76  1  0  0  0  0
 45 78  1  0  0  0  0
 45 79  1  0  0  0  0
M  END
> <PUBCHEM_COMPOUND_CID>
25079986

> <PUBCHEM_COMPOUND_CANONICALIZED>
1

> <PUBCHEM_CACTVS_COMPLEXITY>
933

> <PUBCHEM_CACTVS_HBOND_ACCEPTOR>
21

> <PUBCHEM_CACTVS_HBOND_DONOR>
14

> <PUBCHEM_CACTVS_ROTATABLE_BOND>
11

> <PUBCHEM_CACTVS_SUBSKEYS>
AAADcfB4PgAAAAAAAAAAAAAAAAAAASAAAAAkSJAAAAAAAAAAAAAAGgAACAAACBSwgAMACAAABgAAAAAAAAAAAAAAAAAAAAAAAAAREAIAAAAiQAAFAAAHAAHAYAwAAAAAAAAAAAAAAAAAAAAAAAAAAAAAAA==

> <PUBCHEM_IUPAC_OPENEYE_NAME>
(2S,3R,4S,5R,6R)-2-[[(2R,3S,4S,5R,6R)-6-[(2S,3S,4S,5R)-3,4-dihydroxy-5-(hydroxymethyl)-2-[[(2S,3R,4S,5R,6R)-3,4,5-trihydroxy-6-(hydroxymethyl)tetrahydropyran-2-yl]oxymethyl]tetrahydrofuran-2-yl]oxy-3,4,5-trihydroxy-tetrahydropyran-2-yl]methoxy]-6-(hydroxymethyl)tetrahydropyran-3,4,5-triol

> <PUBCHEM_IUPAC_CAS_NAME>
(2S,3R,4S,5R,6R)-2-[[(2R,3S,4S,5R,6R)-6-[[(2S,3S,4S,5R)-3,4-dihydroxy-5-(hydroxymethyl)-2-[[(2S,3R,4S,5R,6R)-3,4,5-trihydroxy-6-(hydroxymethyl)-2-oxanyl]oxymethyl]-2-oxolanyl]oxy]-3,4,5-trihydroxy-2-oxanyl]methoxy]-6-(hydroxymethyl)oxane-3,4,5-triol

> <PUBCHEM_IUPAC_NAME>
(2S,3R,4S,5R,6R)-2-[[(2R,3S,4S,5R,6R)-6-[(2S,3S,4S,5R)-3,4-dihydroxy-5-(hydroxymethyl)-2-[[(2S,3R,4S,5R,6R)-3,4,5-trihydroxy-6-(hydroxymethyl)oxan-2-yl]oxymethyl]oxolan-2-yl]oxy-3,4,5-trihydroxyoxan-2-yl]methoxy]-6-(hydroxymethyl)oxane-3,4,5-triol

> <PUBCHEM_IUPAC_SYSTEMATIC_NAME>
(2R,3R,4S,5R,6S)-2-(hydroxymethyl)-6-[[(2R,3S,4S,5R,6R)-6-[(2S,3S,4S,5R)-5-(hydroxymethyl)-2-[[(2S,3R,4S,5R,6R)-6-(hydroxymethyl)-3,4,5-tris(oxidanyl)oxan-2-yl]oxymethyl]-3,4-bis(oxidanyl)oxolan-2-yl]oxy-3,4,5-tris(oxidanyl)oxan-2-yl]methoxy]oxane-3,4,5-triol

> <PUBCHEM_IUPAC_TRADITIONAL_NAME>
(2S,3R,4S,5R,6R)-2-[[(2R,3S,4S,5R,6R)-6-[(2S,3S,4S,5R)-3,4-dihydroxy-5-methylol-2-[[(2S,3R,4S,5R,6R)-3,4,5-trihydroxy-6-methylol-tetrahydropyran-2-yl]oxymethyl]tetrahydrofuran-2-yl]oxy-3,4,5-trihydroxy-tetrahydropyran-2-yl]methoxy]-6-methylol-tetrahydropyran-3,4,5-triol

> <PUBCHEM_IUPAC_INCHI>
InChI=1S/C24H42O21/c25-1-6-10(28)14(32)17(35)21(41-6)39-4-9-12(30)16(34)19(37)23(43-9)45-24(20(38)13(31)8(3-27)44-24)5-40-22-18(36)15(33)11(29)7(2-26)42-22/h6-23,25-38H,1-5H2/t6-,7-,8-,9-,10+,11+,12-,13-,14+,15+,16+,17-,18-,19-,20+,21+,22+,23-,24+/m1/s1

> <PUBCHEM_IUPAC_INCHIKEY>
BNOGJEJAYILSFT-XNSRJBNMSA-N

> <PUBCHEM_XLOGP3>
-8

> <PUBCHEM_EXACT_MASS>
666.221858

> <PUBCHEM_MOLECULAR_FORMULA>
C24H42O21

> <PUBCHEM_MOLECULAR_WEIGHT>
666.57768

> <PUBCHEM_OPENEYE_CAN_SMILES>
C(C1C(C(C(C(O1)OCC2C(C(C(C(O2)OC3(C(C(C(O3)CO)O)O)COC4C(C(C(C(O4)CO)O)O)O)O)O)O)O)O)O)O

> <PUBCHEM_OPENEYE_ISO_SMILES>
C([C@@H]1[C@@H]([C@@H]([C@H]([C@H](O1)OC[C@@H]2[C@H]([C@@H]([C@H]([C@H](O2)O[C@]3([C@H]([C@@H]([C@H](O3)CO)O)O)CO[C@@H]4[C@@H]([C@H]([C@H]([C@H](O4)CO)O)O)O)O)O)O)O)O)O)O

> <PUBCHEM_CACTVS_TPSA>
348

> <PUBCHEM_MONOISOTOPIC_WEIGHT>
666.221858

> <PUBCHEM_TOTAL_CHARGE>
0

> <PUBCHEM_HEAVY_ATOM_COUNT>
45

> <PUBCHEM_ATOM_DEF_STEREO_COUNT>
19

> <PUBCHEM_ATOM_UDEF_STEREO_COUNT>
0

> <PUBCHEM_BOND_DEF_STEREO_COUNT>
0

> <PUBCHEM_BOND_UDEF_STEREO_COUNT>
0

> <PUBCHEM_ISOTOPIC_ATOM_COUNT>
0

> <PUBCHEM_COMPONENT_COUNT>
1

> <PUBCHEM_CACTVS_TAUTO_COUNT>
1

> <PUBCHEM_COORDINATE_TYPE>
1
5
255

> <PUBCHEM_BONDANNOTATIONS>
30  10  6
31  11  5
35  14  5
36  15  6
37  16  6
40  17  5
41  18  6
42  19  6
22  2  6
26  2  5
25  32  6
29  34  6
38  44  6
33  4  5
43  45  6
23  5  6
24  6  5
39  8  5
28  9  5

$$$$

