   Color/Form

     * White to practically white crystalline powder
     * Crystals from water or methanol-ether

   from [1]HSDB

   Odor
        PRACTICALLY ODORLESS
   from [2]HSDB

   Boiling Point
        Decomposes at 282-283 deg C; sublimes (0.1 mm): 190-200 deg C
   from [3]HSDB

   Melting Point
        282 deg C (decomposes)
   from [4]HSDB

   Dissociation Constants
        pKa = 8.02
   from [5]HSDB

   Octanol/Water Partition Coefficient
        log Kow = -0.89
   from [6]HSDB

   Solubilities

     * 1 G IN 80 ML WATER, 170 ML ALCOHOL & 55 ML METHANOL; PRACTICALLY
       INSOL IN CHLOROFORM, ETHER & BENZENE; SOLUBILITY IN AQ SOLN INCR
       WITH INCR PH OF SOLN
     * Soluble in methanol-water mixtures
     * Sparingly soluble in water and slightly soluble in alcohol. 1 g is
       soluble in 100 ml of propylene glycol.
     * In water, 1.11X10+4 mg/L at 22 deg C

   from [7]HSDB

   Spectral Properties

     * UV max (0.1 N hydrogen chloride): 265-266 nm (epsilon= 7070)
     * IR: 5062 (Coblentz Society Spectral Collection)
     * UV: 1400 (Absorption Spectra in the UV and visible Regions,
       Academic Press, New York)
     * MASS: 63626 (NIST/EPA/MSDC Mass Spectral Database, 1990 version)

   from [8]HSDB

   Vapor Pressure
        2.68X10-6 mm Hg at 25 deg C (est)
   from [9]HSDB

   Other Chemical/Physical Properties

     * Henry's Law constant = 1.66X10-10 atm-cu m/mol at 25 deg C (est)
     * Hydroxyl radical reaction rate constant = 5.83X10-12 cu
       cm/molec-sec at 25 deg C (est)

   from [10]HSDB

   Computed Properties
   Molecular Weight                  130.077223 [g/mol]
   Molecular Formula                 C[4]H[3]FN[2]O[2]
   XLogP3                            -0.9
   H-Bond Donor                      2
   H-Bond Acceptor                   3
   Rotatable Bond Count              0
   Tautomer Count                    9
   Exact Mass                        130.017856
   MonoIsotopic Mass                 130.017856
   Topological Polar Surface Area    58.2
   Heavy Atom Count                  9
   Formal Charge                     0
   Complexity                        199
   Isotope Atom Count                0
   Defined Atom Stereocenter Count   0
   Undefined Atom Stereocenter Count 0
   Defined Bond Stereocenter Count   0
   Undefined Bond Stereocenter Count 0
   Covalently-Bonded Unit Count      1
   Feature 3D Acceptor Count         2
   Feature 3D Donor Count            2
   Feature 3D Ring Count             1
   Effective Rotor Count             0
   Conformer Sampling RMSD           0.4
   CID Conformer Count               [11]1

References

   1. http://toxnet.nlm.nih.gov/cgi-bin/sis/search/r?dbs+hsdb:@term+@rn+@rel+51-21-8
   2. http://toxnet.nlm.nih.gov/cgi-bin/sis/search/r?dbs+hsdb:@term+@rn+@rel+51-21-8
   3. http://toxnet.nlm.nih.gov/cgi-bin/sis/search/r?dbs+hsdb:@term+@rn+@rel+51-21-8
   4. http://toxnet.nlm.nih.gov/cgi-bin/sis/search/r?dbs+hsdb:@term+@rn+@rel+51-21-8
   5. http://toxnet.nlm.nih.gov/cgi-bin/sis/search/r?dbs+hsdb:@term+@rn+@rel+51-21-8
   6. http://toxnet.nlm.nih.gov/cgi-bin/sis/search/r?dbs+hsdb:@term+@rn+@rel+51-21-8
   7. http://toxnet.nlm.nih.gov/cgi-bin/sis/search/r?dbs+hsdb:@term+@rn+@rel+51-21-8
   8. http://toxnet.nlm.nih.gov/cgi-bin/sis/search/r?dbs+hsdb:@term+@rn+@rel+51-21-8
   9. http://toxnet.nlm.nih.gov/cgi-bin/sis/search/r?dbs+hsdb:@term+@rn+@rel+51-21-8
  10. http://toxnet.nlm.nih.gov/cgi-bin/sis/search/r?dbs+hsdb:@term+@rn+@rel+51-21-8
  11. http://pubchem.ncbi.nlm.nih.gov/vw3d/vw3d.cgi?cid=3385
