   Color/Form
        OIL
   from [1]HSDB

   Odor
        SLIGHT PLEASANT ODOR
   from [2]HSDB

   Boiling Point
        124 DEG C AT 9 MM HG
   from [3]HSDB

   Density/Specific Gravity
        0.9239 AT 20 DEG C/4 DEG C
   from [4]HSDB

   Solubilities
        INSOLUBLE IN WATER; SLIGHTLY SOLUBLE IN ALCOHOL; SOLUBLE IN
   ACETONE, PETROLEUM ETHER, HOT CHLOROFORM
   from [5]HSDB

   Spectral Properties

     * INDEX OF REFRACTION: 1.5059 AT 20 DEG C/D; SPECIFIC OPTICAL
       ROTATION: -251 DEG AT 20 DEG C/D
     * MAX ABSORPTION (HEXANE): 250 NM (LOG E= 2.65); 323 NM (LOG E= 0.75)
     * MASS: 1449 (Atlas of Mass Spectral Data, John Wiley & Sons, New
       York)

   from [6]HSDB

   Other Chemical/Physical Properties

     * WOODY, RESINOUS, BURNT ODOR WITH LITTLE TASTE /CADINENE/
     * MASS: 1456 (Atlas of Mass Spectral Data, John Wiley & Sons, New
       York) /Gamma-cadinene/
     * MASS: 1237 (National Bureau of Standards EPA-NIH Mass Spectra Data
       Base, NSRDS-NBS-63) /Delta-cadinene/

   from [7]HSDB

   Computed Properties
   Molecular Weight                  204.35106 [g/mol]
   Molecular Formula                 C[15]H[24]
   XLogP3-AA                         4
   H-Bond Donor                      0
   H-Bond Acceptor                   0
   Rotatable Bond Count              1
   Exact Mass                        204.187801
   MonoIsotopic Mass                 204.187801
   Topological Polar Surface Area    0
   Heavy Atom Count                  15
   Formal Charge                     0
   Complexity                        293
   Isotope Atom Count                0
   Defined Atom Stereocenter Count   3
   Undefined Atom Stereocenter Count 0
   Defined Bond Stereocenter Count   0
   Undefined Bond Stereocenter Count 0
   Covalently-Bonded Unit Count      1
   Feature 3D Hydrophobe Count       1
   Feature 3D Ring Count             2
   Effective Rotor Count             1.8
   Conformer Sampling RMSD           0.6
   CID Conformer Count               [8]1

References

   1. http://toxnet.nlm.nih.gov/cgi-bin/sis/search/r?dbs+hsdb:@term+@rn+@rel+523-47-7
   2. http://toxnet.nlm.nih.gov/cgi-bin/sis/search/r?dbs+hsdb:@term+@rn+@rel+523-47-7
   3. http://toxnet.nlm.nih.gov/cgi-bin/sis/search/r?dbs+hsdb:@term+@rn+@rel+523-47-7
   4. http://toxnet.nlm.nih.gov/cgi-bin/sis/search/r?dbs+hsdb:@term+@rn+@rel+523-47-7
   5. http://toxnet.nlm.nih.gov/cgi-bin/sis/search/r?dbs+hsdb:@term+@rn+@rel+523-47-7
   6. http://toxnet.nlm.nih.gov/cgi-bin/sis/search/r?dbs+hsdb:@term+@rn+@rel+523-47-7
   7. http://toxnet.nlm.nih.gov/cgi-bin/sis/search/r?dbs+hsdb:@term+@rn+@rel+523-47-7
   8. http://pubchem.ncbi.nlm.nih.gov/vw3d/vw3d.cgi?cid=10657
