15286666
  -OEChem-07051213092D

 55 58  0     1  0  0  0  0  0999 V2000
    4.9186   -0.8473    0.0000 O   0  0  0  0  0  0  0  0  0  0  0  0
    7.0220   -2.2164    0.0000 O   0  0  0  0  0  0  0  0  0  0  0  0
    2.9567   -0.2587    0.0000 O   0  0  0  0  0  0  0  0  0  0  0  0
    8.8675   -1.3277    0.0000 O   0  0  0  0  0  0  0  0  0  0  0  0
    2.5009    1.7383    0.0000 O   0  0  0  0  0  0  0  0  0  0  0  0
    7.0215    1.8467    0.0000 N   0  0  3  0  0  0  0  0  0  0  0  0
    6.3383    0.4113    0.0000 C   0  0  2  0  0  0  0  0  0  0  0  0
    7.4618    1.8201    0.0000 C   0  0  2  0  0  0  0  0  0  0  0  0
    7.2393    0.8452    0.0000 C   0  0  0  0  0  0  0  0  0  0  0  0
    6.2144    0.8347    0.0000 C   0  0  0  0  0  0  0  0  0  0  0  0
    5.4374    0.8452    0.0000 C   0  0  0  0  0  0  0  0  0  0  0  0
    6.2503    1.6338    0.0000 C   0  0  0  0  0  0  0  0  0  0  0  0
    6.8383    2.6019    0.0000 C   0  0  0  0  0  0  0  0  0  0  0  0
    5.8383    2.6019    0.0000 C   0  0  0  0  0  0  0  0  0  0  0  0
    5.2148    1.8201    0.0000 C   0  0  0  0  0  0  0  0  0  0  0  0
    6.2445   -0.6261    0.0000 C   0  0  0  0  0  0  0  0  0  0  0  0
    8.1089    0.2717    0.0000 C   0  0  0  0  0  0  0  0  0  0  0  0
    4.6848    0.1250    0.0000 C   0  0  0  0  0  0  0  0  0  0  0  0
    7.3729    2.7829    0.0000 C   0  0  0  0  0  0  0  0  0  0  0  0
    7.1006   -1.2195    0.0000 C   0  0  0  0  0  0  0  0  0  0  0  0
    8.0391   -0.7676    0.0000 C   0  0  0  0  0  0  0  0  0  0  0  0
    4.2244    2.1424    0.0000 C   0  0  0  0  0  0  0  0  0  0  0  0
    3.6871    0.4243    0.0000 C   0  0  0  0  0  0  0  0  0  0  0  0
    3.4553    1.4398    0.0000 C   0  0  0  0  0  0  0  0  0  0  0  0
    4.1935   -1.5359    0.0000 C   0  0  0  0  0  0  0  0  0  0  0  0
    7.8461   -2.7829    0.0000 C   0  0  0  0  0  0  0  0  0  0  0  0
    2.0000    0.0324    0.0000 C   0  0  0  0  0  0  0  0  0  0  0  0
    2.2822    2.7141    0.0000 C   0  0  0  0  0  0  0  0  0  0  0  0
    7.9918    2.4846    0.0000 H   0  0  0  0  0  0  0  0  0  0  0  0
    5.6585    1.1091    0.0000 H   0  0  0  0  0  0  0  0  0  0  0  0
    6.8300    0.9088    0.0000 H   0  0  0  0  0  0  0  0  0  0  0  0
    6.1488    2.2455    0.0000 H   0  0  0  0  0  0  0  0  0  0  0  0
    5.6314    1.5968    0.0000 H   0  0  0  0  0  0  0  0  0  0  0  0
    7.3969    2.8709    0.0000 H   0  0  0  0  0  0  0  0  0  0  0  0
    6.7004    3.2064    0.0000 H   0  0  0  0  0  0  0  0  0  0  0  0
    5.9763    3.2064    0.0000 H   0  0  0  0  0  0  0  0  0  0  0  0
    5.2797    2.8709    0.0000 H   0  0  0  0  0  0  0  0  0  0  0  0
    5.6828   -0.8886    0.0000 H   0  0  0  0  0  0  0  0  0  0  0  0
    8.6643    0.5472    0.0000 H   0  0  0  0  0  0  0  0  0  0  0  0
    7.9533    2.5651    0.0000 H   0  0  0  0  0  0  0  0  0  0  0  0
    7.5907    3.3634    0.0000 H   0  0  0  0  0  0  0  0  0  0  0  0
    6.7924    3.0008    0.0000 H   0  0  0  0  0  0  0  0  0  0  0  0
    4.0934    2.7484    0.0000 H   0  0  0  0  0  0  0  0  0  0  0  0
    3.7665   -1.0863    0.0000 H   0  0  0  0  0  0  0  0  0  0  0  0
    3.7439   -1.9628    0.0000 H   0  0  0  0  0  0  0  0  0  0  0  0
    4.6204   -1.9855    0.0000 H   0  0  0  0  0  0  0  0  0  0  0  0
    7.4948   -3.2938    0.0000 H   0  0  0  0  0  0  0  0  0  0  0  0
    8.3570   -3.1341    0.0000 H   0  0  0  0  0  0  0  0  0  0  0  0
    8.1973   -2.2720    0.0000 H   0  0  0  0  0  0  0  0  0  0  0  0
    2.1805    0.6256    0.0000 H   0  0  0  0  0  0  0  0  0  0  0  0
    1.4068    0.2129    0.0000 H   0  0  0  0  0  0  0  0  0  0  0  0
    1.8195   -0.5608    0.0000 H   0  0  0  0  0  0  0  0  0  0  0  0
    2.8871    2.8497    0.0000 H   0  0  0  0  0  0  0  0  0  0  0  0
    2.1465    3.3190    0.0000 H   0  0  0  0  0  0  0  0  0  0  0  0
    1.6772    2.5784    0.0000 H   0  0  0  0  0  0  0  0  0  0  0  0
  1 18  1  0  0  0  0
  1 25  1  0  0  0  0
  2 20  1  0  0  0  0
  2 26  1  0  0  0  0
  3 23  1  0  0  0  0
  3 27  1  0  0  0  0
  4 21  2  0  0  0  0
  5 24  1  0  0  0  0
  5 28  1  0  0  0  0
  6  8  1  0  0  0  0
  6 12  1  0  0  0  0
  6 19  1  0  0  0  0
  7  9  1  0  0  0  0
  7 10  1  0  0  0  0
  7 11  1  0  0  0  0
  7 16  1  6  0  0  0
  8  9  1  0  0  0  0
  8 13  1  0  0  0  0
  8 29  1  6  0  0  0
  9 17  2  0  0  0  0
 10 12  1  0  0  0  0
 10 30  1  0  0  0  0
 10 31  1  0  0  0  0
 11 15  1  0  0  0  0
 11 18  2  0  0  0  0
 12 32  1  0  0  0  0
 12 33  1  0  0  0  0
 13 14  1  0  0  0  0
 13 34  1  0  0  0  0
 13 35  1  0  0  0  0
 14 15  1  0  0  0  0
 14 36  1  0  0  0  0
 14 37  1  0  0  0  0
 15 22  2  0  0  0  0
 16 20  2  0  0  0  0
 16 38  1  0  0  0  0
 17 21  1  0  0  0  0
 17 39  1  0  0  0  0
 18 23  1  0  0  0  0
 19 40  1  0  0  0  0
 19 41  1  0  0  0  0
 19 42  1  0  0  0  0
 20 21  1  0  0  0  0
 22 24  1  0  0  0  0
 22 43  1  0  0  0  0
 23 24  2  0  0  0  0
 25 44  1  0  0  0  0
 25 45  1  0  0  0  0
 25 46  1  0  0  0  0
 26 47  1  0  0  0  0
 26 48  1  0  0  0  0
 26 49  1  0  0  0  0
 27 50  1  0  0  0  0
 27 51  1  0  0  0  0
 27 52  1  0  0  0  0
 28 53  1  0  0  0  0
 28 54  1  0  0  0  0
 28 55  1  0  0  0  0
M  END
> <PUBCHEM_COMPOUND_CID>
15286666

> <PUBCHEM_COMPOUND_CANONICALIZED>
1

> <PUBCHEM_CACTVS_COMPLEXITY>
688

> <PUBCHEM_CACTVS_HBOND_ACCEPTOR>
6

> <PUBCHEM_CACTVS_HBOND_DONOR>
0

> <PUBCHEM_CACTVS_ROTATABLE_BOND>
4

> <PUBCHEM_CACTVS_SUBSKEYS>
AAADceB6OAAAAAAAAAAAAAAAAAAAAAAAAAA8QIAABgAAAFiBAAAAHgAAAAAADizBmAYyBoMABACIAqBSAAKCCAAgIAAAiABOiMgNJyKEsR6EMCIlwBWKqYeQ8P8PoAABCAAYQABAAAIQADCAAAAAAAAAAA==

> <PUBCHEM_IUPAC_INCHI>
InChI=1S/C22H27NO5/c1-23-9-8-22-12-18(26-3)16(24)11-14(22)15(23)7-6-13-10-17(25-2)20(27-4)21(28-5)19(13)22/h10-12,15H,6-9H2,1-5H3/t15-,22+/m0/s1

> <PUBCHEM_IUPAC_INCHIKEY>
AYPIIWGCGUQVNZ-OYHNWAKOSA-N

> <PUBCHEM_XLOGP3_AA>
2.6

> <PUBCHEM_EXACT_MASS>
385.188923

> <PUBCHEM_MOLECULAR_FORMULA>
C22H27NO5

> <PUBCHEM_MOLECULAR_WEIGHT>
385.45348

> <PUBCHEM_OPENEYE_CAN_SMILES>
CN1CCC23C=C(C(=O)C=C2C1CCC4=CC(=C(C(=C34)OC)OC)OC)OC

> <PUBCHEM_OPENEYE_ISO_SMILES>
CN1CC[C@@]23C=C(C(=O)C=C2[C@@H]1CCC4=CC(=C(C(=C34)OC)OC)OC)OC

> <PUBCHEM_CACTVS_TPSA>
57.2

> <PUBCHEM_MONOISOTOPIC_WEIGHT>
385.188923

> <PUBCHEM_TOTAL_CHARGE>
0

> <PUBCHEM_HEAVY_ATOM_COUNT>
28

> <PUBCHEM_ATOM_DEF_STEREO_COUNT>
2

> <PUBCHEM_ATOM_UDEF_STEREO_COUNT>
0

> <PUBCHEM_BOND_DEF_STEREO_COUNT>
0

> <PUBCHEM_BOND_UDEF_STEREO_COUNT>
0

> <PUBCHEM_ISOTOPIC_ATOM_COUNT>
0

> <PUBCHEM_COMPONENT_COUNT>
1

> <PUBCHEM_CACTVS_TAUTO_COUNT>
1

> <PUBCHEM_COORDINATE_TYPE>
1
5
255

> <PUBCHEM_BONDANNOTATIONS>
11  15  8
11  18  8
15  22  8
18  23  8
22  24  8
23  24  8
7  16  6
8  29  6

$$$$

