   Color/Form
        NEEDLES OR PRISMS FROM ETHER
   from [1]HSDB

   Boiling Point
        224.5 deg C
   from [2]HSDB

   Melting Point
        29 deg C
   from [3]HSDB

   Density/Specific Gravity
        1.0810 @ 25 deg C
   from [4]HSDB

   Dissociation Constants
        pKa = -0.26
   from [5]HSDB

   Octanol/Water Partition Coefficient
        log Kow= 0.45
   from [6]HSDB

   Solubilities

     * Soluble in water, alcohol, ether, and benzene.
     * Soluble in chloroform; slightly soluble in petroleum ether.

   from [7]HSDB

   Spectral Properties

     * MAX ABSORPTION (CYCLOHEXANE): 265 NM (LOG E= 3.44), 278 NM SHOULDER
       (LOG E= 2.53); SADTLER REFERENCE NUMBER: 19132 (IR, PRISM)
     * Index of refraction: 1.5242 @ 25 deg C/D
     * IR: SAD 8969 (Sadtler Research Laboratories IR Grating Collection)
     * UV: SAD 6251 (Sadtler Research Laboratories Spectral Collection)
     * 1H NMR: SAD 2160 (Sadtler Research Laboratories Spectral
       Collection)
     * 13C NMR: STOT 251 (Stothers, Carbon-13 NMR Spectroscopy, Academic
       Press, New York)
     * MS: NIST 62741 (NIST/EPA/MSDC Mass Spectral Database 1990 version)

   from [8]HSDB

   Computed Properties
   Molecular Weight                  104.10936 [g/mol]
   Molecular Formula                 C[6]H[4]N[2]
   XLogP3                            0.4
   H-Bond Donor                      0
   H-Bond Acceptor                   2
   Rotatable Bond Count              0
   Exact Mass                        104.037448
   MonoIsotopic Mass                 104.037448
   Topological Polar Surface Area    36.7
   Heavy Atom Count                  8
   Formal Charge                     0
   Complexity                        111
   Isotope Atom Count                0
   Defined Atom Stereocenter Count   0
   Undefined Atom Stereocenter Count 0
   Defined Bond Stereocenter Count   0
   Undefined Bond Stereocenter Count 0
   Covalently-Bonded Unit Count      1
   Feature 3D Acceptor Count         2
   Feature 3D Ring Count             1
   Effective Rotor Count             0
   Conformer Sampling RMSD           0.4
   CID Conformer Count               [9]1

References

   1. http://toxnet.nlm.nih.gov/cgi-bin/sis/search/r?dbs+hsdb:@term+@rn+@rel+100-70-9
   2. http://toxnet.nlm.nih.gov/cgi-bin/sis/search/r?dbs+hsdb:@term+@rn+@rel+100-70-9
   3. http://toxnet.nlm.nih.gov/cgi-bin/sis/search/r?dbs+hsdb:@term+@rn+@rel+100-70-9
   4. http://toxnet.nlm.nih.gov/cgi-bin/sis/search/r?dbs+hsdb:@term+@rn+@rel+100-70-9
   5. http://toxnet.nlm.nih.gov/cgi-bin/sis/search/r?dbs+hsdb:@term+@rn+@rel+100-70-9
   6. http://toxnet.nlm.nih.gov/cgi-bin/sis/search/r?dbs+hsdb:@term+@rn+@rel+100-70-9
   7. http://toxnet.nlm.nih.gov/cgi-bin/sis/search/r?dbs+hsdb:@term+@rn+@rel+100-70-9
   8. http://toxnet.nlm.nih.gov/cgi-bin/sis/search/r?dbs+hsdb:@term+@rn+@rel+100-70-9
   9. http://pubchem.ncbi.nlm.nih.gov/vw3d/vw3d.cgi?cid=7522
