9163
  -OEChem-07051213132D

 36 40  0     0  0  0  0  0  0999 V2000
    6.5410   -0.2398    0.0000 C   0  0  0  0  0  0  0  0  0  0  0  0
    5.6750    0.2602    0.0000 C   0  0  0  0  0  0  0  0  0  0  0  0
    7.4070    0.2602    0.0000 C   0  0  0  0  0  0  0  0  0  0  0  0
    5.6750    1.2602    0.0000 C   0  0  0  0  0  0  0  0  0  0  0  0
    8.3170   -0.2466    0.0000 C   0  0  0  0  0  0  0  0  0  0  0  0
    4.7810   -0.2744    0.0000 C   0  0  0  0  0  0  0  0  0  0  0  0
    8.3250   -1.2882    0.0000 C   0  0  0  0  0  0  0  0  0  0  0  0
    3.8749    0.2394    0.0000 C   0  0  0  0  0  0  0  0  0  0  0  0
    7.4070    1.2602    0.0000 C   0  0  0  0  0  0  0  0  0  0  0  0
    3.8749    1.2810    0.0000 C   0  0  0  0  0  0  0  0  0  0  0  0
    6.5410    1.7602    0.0000 C   0  0  0  0  0  0  0  0  0  0  0  0
    6.5249   -1.2813    0.0000 C   0  0  0  0  0  0  0  0  0  0  0  0
    4.7810    1.7949    0.0000 C   0  0  0  0  0  0  0  0  0  0  0  0
    7.4230   -1.8090    0.0000 C   0  0  0  0  0  0  0  0  0  0  0  0
    9.2438    0.3175    0.0000 C   0  0  0  0  0  0  0  0  0  0  0  0
    9.2605   -1.8380    0.0000 C   0  0  0  0  0  0  0  0  0  0  0  0
    2.9438   -0.3175    0.0000 C   0  0  0  0  0  0  0  0  0  0  0  0
    2.9438    1.8380    0.0000 C   0  0  0  0  0  0  0  0  0  0  0  0
   10.1917   -0.2105    0.0000 C   0  0  0  0  0  0  0  0  0  0  0  0
   10.2001   -1.2955    0.0000 C   0  0  0  0  0  0  0  0  0  0  0  0
    2.0000    0.2177    0.0000 C   0  0  0  0  0  0  0  0  0  0  0  0
    2.0000    1.3027    0.0000 C   0  0  0  0  0  0  0  0  0  0  0  0
    4.7882   -0.8944    0.0000 H   0  0  0  0  0  0  0  0  0  0  0  0
    7.9439    1.5702    0.0000 H   0  0  0  0  0  0  0  0  0  0  0  0
    6.5410    2.3802    0.0000 H   0  0  0  0  0  0  0  0  0  0  0  0
    5.9844   -1.5851    0.0000 H   0  0  0  0  0  0  0  0  0  0  0  0
    4.7882    2.4148    0.0000 H   0  0  0  0  0  0  0  0  0  0  0  0
    7.4206   -2.4290    0.0000 H   0  0  0  0  0  0  0  0  0  0  0  0
    9.2319    0.9373    0.0000 H   0  0  0  0  0  0  0  0  0  0  0  0
    9.2581   -2.4580    0.0000 H   0  0  0  0  0  0  0  0  0  0  0  0
    2.9510   -0.9375    0.0000 H   0  0  0  0  0  0  0  0  0  0  0  0
    2.9510    2.4579    0.0000 H   0  0  0  0  0  0  0  0  0  0  0  0
   10.7250    0.1057    0.0000 H   0  0  0  0  0  0  0  0  0  0  0  0
   10.7382   -1.6034    0.0000 H   0  0  0  0  0  0  0  0  0  0  0  0
    1.4643   -0.0943    0.0000 H   0  0  0  0  0  0  0  0  0  0  0  0
    1.4643    1.6148    0.0000 H   0  0  0  0  0  0  0  0  0  0  0  0
  1  2  1  0  0  0  0
  1  3  2  0  0  0  0
  1 12  1  0  0  0  0
  2  4  1  0  0  0  0
  2  6  2  0  0  0  0
  3  5  1  0  0  0  0
  3  9  1  0  0  0  0
  4 11  1  0  0  0  0
  4 13  2  0  0  0  0
  5  7  1  0  0  0  0
  5 15  2  0  0  0  0
  6  8  1  0  0  0  0
  6 23  1  0  0  0  0
  7 14  1  0  0  0  0
  7 16  2  0  0  0  0
  8 10  1  0  0  0  0
  8 17  2  0  0  0  0
  9 11  2  0  0  0  0
  9 24  1  0  0  0  0
 10 13  1  0  0  0  0
 10 18  2  0  0  0  0
 11 25  1  0  0  0  0
 12 14  2  0  0  0  0
 12 26  1  0  0  0  0
 13 27  1  0  0  0  0
 14 28  1  0  0  0  0
 15 19  1  0  0  0  0
 15 29  1  0  0  0  0
 16 20  1  0  0  0  0
 16 30  1  0  0  0  0
 17 21  1  0  0  0  0
 17 31  1  0  0  0  0
 18 22  1  0  0  0  0
 18 32  1  0  0  0  0
 19 20  2  0  0  0  0
 19 33  1  0  0  0  0
 20 34  1  0  0  0  0
 21 22  2  0  0  0  0
 21 35  1  0  0  0  0
 22 36  1  0  0  0  0
M  END
> <PUBCHEM_COMPOUND_CID>
9163

> <PUBCHEM_COMPOUND_CANONICALIZED>
1

> <PUBCHEM_CACTVS_COMPLEXITY>
399

> <PUBCHEM_CACTVS_HBOND_ACCEPTOR>
0

> <PUBCHEM_CACTVS_HBOND_DONOR>
0

> <PUBCHEM_CACTVS_ROTATABLE_BOND>
0

> <PUBCHEM_CACTVS_SUBSKEYS>
AAADccB4AAAAAAAAAAAAAAAAAAAAAAAAAAAwYMGDAAAAAADBVAAAGAAAAAAADACAGAAwAMAAAACAAiBCAAACAAAgAAAIiAAAAIgIICKAERCAIAAggAAIiAcAgMAOwAACAAAQAACAAAQAACAAAAAAAAAAAA==

> <PUBCHEM_IUPAC_INCHI>
InChI=1S/C22H14/c1-2-7-17-14-22-18(13-16(17)6-1)10-12-20-19-8-4-3-5-15(19)9-11-21(20)22/h1-14H

> <PUBCHEM_IUPAC_INCHIKEY>
YYGRIGYJXSQDQB-UHFFFAOYSA-N

> <PUBCHEM_XLOGP3>
6.5

> <PUBCHEM_EXACT_MASS>
278.10955

> <PUBCHEM_MOLECULAR_FORMULA>
C22H14

> <PUBCHEM_MOLECULAR_WEIGHT>
278.34656

> <PUBCHEM_OPENEYE_CAN_SMILES>
C1=CC=C2C(=C1)C=CC3=C2C=CC4=CC5=CC=CC=C5C=C43

> <PUBCHEM_OPENEYE_ISO_SMILES>
C1=CC=C2C(=C1)C=CC3=C2C=CC4=CC5=CC=CC=C5C=C43

> <PUBCHEM_CACTVS_TPSA>
0

> <PUBCHEM_MONOISOTOPIC_WEIGHT>
278.10955

> <PUBCHEM_TOTAL_CHARGE>
0

> <PUBCHEM_HEAVY_ATOM_COUNT>
22

> <PUBCHEM_ATOM_DEF_STEREO_COUNT>
0

> <PUBCHEM_ATOM_UDEF_STEREO_COUNT>
0

> <PUBCHEM_BOND_DEF_STEREO_COUNT>
0

> <PUBCHEM_BOND_UDEF_STEREO_COUNT>
0

> <PUBCHEM_ISOTOPIC_ATOM_COUNT>
0

> <PUBCHEM_COMPONENT_COUNT>
1

> <PUBCHEM_CACTVS_TAUTO_COUNT>
1

> <PUBCHEM_COORDINATE_TYPE>
1
5
255

> <PUBCHEM_BONDANNOTATIONS>
1  12  8
1  2  8
1  3  8
10  13  8
10  18  8
12  14  8
15  19  8
16  20  8
17  21  8
18  22  8
19  20  8
2  4  8
2  6  8
21  22  8
3  5  8
3  9  8
4  11  8
4  13  8
5  15  8
5  7  8
6  8  8
7  14  8
7  16  8
8  10  8
8  17  8
9  11  8

$$$$

