   Color/Form

     * Olive-brown, brown to orange crystalline solid
     * Orange needles when recrystallized from water

   from [1]HSDB

   Melting Point
        205.8 deg C
   from [2]HSDB

   Octanol/Water Partition Coefficient
        log Kow = 0.99 (est)
   from [3]HSDB

   Solubilities

     * Slightly soluble in water
     * Soluble in ethanol, acetone, and benzene
     * Soluble in deuterated DSMO
     * In water, 1.04X10+4 mg/L at 25 deg C (est)

   from [4]HSDB

   Spectral Properties

     * MASS: 7945 (NIST/EPA/MSDC Mass Spectral Database, 1990 version)
     * IR: 21402 (Sadtler Research Laboratories IR Grating Collection)
     * UV: 6008 (Sadtler Research Laboratories Spectral Collection)
     * 1H NMR: 10012 (Sadtler Research Laboratories Spectral Collection)

   from [5]HSDB

   Vapor Pressure
        3.52X10-5 mm Hg at 25 deg C (est)
   from [6]HSDB

   Other Chemical/Physical Properties

     * Henry's Law constant = 7.82X10-13 at 25 deg C (est)
     * Hydroxyl radical reaction rate constant = 9.40X10-12 cu
       cm/molec-sec at 25 deg C (est)

   from [7]HSDB

   Computed Properties
   Molecular Weight                  154.12344 [g/mol]
   Molecular Formula                 C[6]H[6]N[2]O[3]
   XLogP3                            1.5
   H-Bond Donor                      2
   H-Bond Acceptor                   4
   Rotatable Bond Count              0
   Tautomer Count                    7
   Exact Mass                        154.037842
   MonoIsotopic Mass                 154.037842
   Topological Polar Surface Area    92.1
   Heavy Atom Count                  11
   Formal Charge                     0
   Complexity                        156
   Isotope Atom Count                0
   Defined Atom Stereocenter Count   0
   Undefined Atom Stereocenter Count 0
   Defined Bond Stereocenter Count   0
   Undefined Bond Stereocenter Count 0
   Covalently-Bonded Unit Count      1
   Feature 3D Acceptor Count         2
   Feature 3D Donor Count            2
   Feature 3D Anion Count            1
   Feature 3D Cation Count           1
   Feature 3D Ring Count             1
   Effective Rotor Count             1
   Conformer Sampling RMSD           0.4
   CID Conformer Count               [8]1

References

   1. http://toxnet.nlm.nih.gov/cgi-bin/sis/search/r?dbs+hsdb:@term+@rn+@rel+121-88-0
   2. http://toxnet.nlm.nih.gov/cgi-bin/sis/search/r?dbs+hsdb:@term+@rn+@rel+121-88-0
   3. http://toxnet.nlm.nih.gov/cgi-bin/sis/search/r?dbs+hsdb:@term+@rn+@rel+121-88-0
   4. http://toxnet.nlm.nih.gov/cgi-bin/sis/search/r?dbs+hsdb:@term+@rn+@rel+121-88-0
   5. http://toxnet.nlm.nih.gov/cgi-bin/sis/search/r?dbs+hsdb:@term+@rn+@rel+121-88-0
   6. http://toxnet.nlm.nih.gov/cgi-bin/sis/search/r?dbs+hsdb:@term+@rn+@rel+121-88-0
   7. http://toxnet.nlm.nih.gov/cgi-bin/sis/search/r?dbs+hsdb:@term+@rn+@rel+121-88-0
   8. http://pubchem.ncbi.nlm.nih.gov/vw3d/vw3d.cgi?cid=4984721
