9553
  -OEChem-06261203482D

 23 22  0     0  0  0  0  0  0999 V2000
    4.9641    0.8660    0.0000 F   0  0  0  0  0  0  0  0  0  0  0  0
    5.9641   -0.8660    0.0000 F   0  0  0  0  0  0  0  0  0  0  0  0
    5.8301    1.3660    0.0000 F   0  0  0  0  0  0  0  0  0  0  0  0
    6.8301   -0.3660    0.0000 F   0  0  0  0  0  0  0  0  0  0  0  0
    4.0981    0.3660    0.0000 F   0  0  0  0  0  0  0  0  0  0  0  0
    5.0981   -1.3660    0.0000 F   0  0  0  0  0  0  0  0  0  0  0  0
    7.6962    0.1340    0.0000 F   0  0  0  0  0  0  0  0  0  0  0  0
    6.6962    1.8660    0.0000 F   0  0  0  0  0  0  0  0  0  0  0  0
    3.2320   -0.1340    0.0000 F   0  0  0  0  0  0  0  0  0  0  0  0
    4.2320   -1.8660    0.0000 F   0  0  0  0  0  0  0  0  0  0  0  0
    2.0000   -2.0000    0.0000 F   0  0  0  0  0  0  0  0  0  0  0  0
    8.9282    2.0000    0.0000 F   0  0  0  0  0  0  0  0  0  0  0  0
    2.3660   -0.6340    0.0000 F   0  0  0  0  0  0  0  0  0  0  0  0
    3.3660   -2.3660    0.0000 F   0  0  0  0  0  0  0  0  0  0  0  0
    8.5622    0.6340    0.0000 F   0  0  0  0  0  0  0  0  0  0  0  0
    7.5622    2.3660    0.0000 F   0  0  0  0  0  0  0  0  0  0  0  0
    5.4641    0.0000    0.0000 C   0  0  0  0  0  0  0  0  0  0  0  0
    6.3301    0.5000    0.0000 C   0  0  0  0  0  0  0  0  0  0  0  0
    4.5981   -0.5000    0.0000 C   0  0  0  0  0  0  0  0  0  0  0  0
    7.1962    1.0000    0.0000 C   0  0  0  0  0  0  0  0  0  0  0  0
    3.7320   -1.0000    0.0000 C   0  0  0  0  0  0  0  0  0  0  0  0
    8.0622    1.5000    0.0000 C   0  0  0  0  0  0  0  0  0  0  0  0
    2.8660   -1.5000    0.0000 C   0  0  0  0  0  0  0  0  0  0  0  0
  1 17  1  0  0  0  0
  2 17  1  0  0  0  0
  3 18  1  0  0  0  0
  4 18  1  0  0  0  0
  5 19  1  0  0  0  0
  6 19  1  0  0  0  0
  7 20  1  0  0  0  0
  8 20  1  0  0  0  0
  9 21  1  0  0  0  0
 10 21  1  0  0  0  0
 11 23  1  0  0  0  0
 12 22  1  0  0  0  0
 13 23  1  0  0  0  0
 14 23  1  0  0  0  0
 15 22  1  0  0  0  0
 16 22  1  0  0  0  0
 17 18  1  0  0  0  0
 17 19  1  0  0  0  0
 18 20  1  0  0  0  0
 19 21  1  0  0  0  0
 20 22  1  0  0  0  0
 21 23  1  0  0  0  0
M  END
> <PUBCHEM_COMPOUND_CID>
9553

> <PUBCHEM_COMPOUND_CANONICALIZED>
1

> <PUBCHEM_CACTVS_COMPLEXITY>
394

> <PUBCHEM_CACTVS_HBOND_ACCEPTOR>
16

> <PUBCHEM_CACTVS_HBOND_DONOR>
0

> <PUBCHEM_CACTVS_ROTATABLE_BOND>
4

> <PUBCHEM_CACTVS_SUBSKEYS>
AAADcQBgAcAAAAAAAAAAAAAAAAAAAAAAAAAAAAAAAAAAAAAAAAAACQAAAAAACAAAABAAAAAAAAAAAAAAAAAAAAAAAAAAAAAAAAAAAAIAAAAAAAAAAAAAAAEAgAAAAAAAAAAAAAAAAAAAAAAAAAAAAAAAAA==

> <PUBCHEM_IUPAC_OPENEYE_NAME>
1,1,1,2,2,3,3,4,4,5,5,6,6,7,7,7-hexadecafluoroheptane

> <PUBCHEM_IUPAC_CAS_NAME>
1,1,1,2,2,3,3,4,4,5,5,6,6,7,7,7-hexadecafluoroheptane

> <PUBCHEM_IUPAC_NAME>
1,1,1,2,2,3,3,4,4,5,5,6,6,7,7,7-hexadecafluoroheptane

> <PUBCHEM_IUPAC_SYSTEMATIC_NAME>
1,1,1,2,2,3,3,4,4,5,5,6,6,7,7,7-hexadecakis(fluoranyl)heptane

> <PUBCHEM_IUPAC_TRADITIONAL_NAME>
1,1,1,2,2,3,3,4,4,5,5,6,6,7,7,7-hexadecafluoroheptane

> <PUBCHEM_IUPAC_INCHI>
InChI=1S/C7F16/c8-1(9,2(10,11)4(14,15)6(18,19)20)3(12,13)5(16,17)7(21,22)23

> <PUBCHEM_IUPAC_INCHIKEY>
LGUZHRODIJCVOC-UHFFFAOYSA-N

> <PUBCHEM_XLOGP3_AA>
5.8

> <PUBCHEM_EXACT_MASS>
387.974452

> <PUBCHEM_MOLECULAR_FORMULA>
C7F16

> <PUBCHEM_MOLECULAR_WEIGHT>
388.049351

> <PUBCHEM_OPENEYE_CAN_SMILES>
C(C(C(C(F)(F)F)(F)F)(F)F)(C(C(C(F)(F)F)(F)F)(F)F)(F)F

> <PUBCHEM_OPENEYE_ISO_SMILES>
C(C(C(C(F)(F)F)(F)F)(F)F)(C(C(C(F)(F)F)(F)F)(F)F)(F)F

> <PUBCHEM_CACTVS_TPSA>
0

> <PUBCHEM_MONOISOTOPIC_WEIGHT>
387.974452

> <PUBCHEM_TOTAL_CHARGE>
0

> <PUBCHEM_HEAVY_ATOM_COUNT>
23

> <PUBCHEM_ATOM_DEF_STEREO_COUNT>
0

> <PUBCHEM_ATOM_UDEF_STEREO_COUNT>
0

> <PUBCHEM_BOND_DEF_STEREO_COUNT>
0

> <PUBCHEM_BOND_UDEF_STEREO_COUNT>
0

> <PUBCHEM_ISOTOPIC_ATOM_COUNT>
0

> <PUBCHEM_COMPONENT_COUNT>
1

> <PUBCHEM_CACTVS_TAUTO_COUNT>
1

> <PUBCHEM_COORDINATE_TYPE>
1
5
255

$$$$

