442248
  -OEChem-07051212572D

 61 63  0     1  0  0  0  0  0999 V2000
    8.2222   -0.4658    0.0000 O   0  0  0  0  0  0  0  0  0  0  0  0
    6.7329    1.8666    0.0000 O   0  0  0  0  0  0  0  0  0  0  0  0
    4.6254   -0.7236    0.0000 O   0  0  0  0  0  0  0  0  0  0  0  0
    5.3027   -2.6497    0.0000 O   0  0  0  0  0  0  0  0  0  0  0  0
    7.1640   -3.6821    0.0000 O   0  0  0  0  0  0  0  0  0  0  0  0
    5.4782    3.1240    0.0000 O   0  0  0  0  0  0  0  0  0  0  0  0
    4.3388    2.8708    0.0000 O   0  0  0  0  0  0  0  0  0  0  0  0
    3.3383    0.4353    0.0000 O   0  0  0  0  0  0  0  0  0  0  0  0
    5.4838   -4.3722    0.0000 O   0  0  0  0  0  0  0  0  0  0  0  0
    2.6067    2.8737    0.0000 O   0  0  0  0  0  0  0  0  0  0  0  0
    7.2707   -0.7747    0.0000 C   0  0  1  0  0  0  0  0  0  0  0  0
    7.4786    0.2034    0.0000 C   0  0  1  0  0  0  0  0  0  0  0  0
    6.7354    0.8725    0.0000 C   0  0  2  0  0  0  0  0  0  0  0  0
    8.0138   -1.4439    0.0000 C   0  0  0  0  0  0  0  0  0  0  0  0
    7.0628   -1.7529    0.0000 C   0  0  0  0  0  0  0  0  0  0  0  0
    5.7844    0.5635    0.0000 C   0  0  0  0  0  0  0  0  0  0  0  0
    7.8059   -2.4220    0.0000 C   0  0  0  0  0  0  0  0  0  0  0  0
    5.5765   -0.4146    0.0000 C   0  0  2  0  0  0  0  0  0  0  0  0
    6.1117   -2.0619    0.0000 C   0  0  2  0  0  0  0  0  0  0  0  0
    6.3196   -1.0838    0.0000 C   0  0  0  0  0  0  0  0  0  0  0  0
    5.2022    1.3693    0.0000 C   0  0  0  0  0  0  0  0  0  0  0  0
    6.8549   -2.7310    0.0000 C   0  0  0  0  0  0  0  0  0  0  0  0
    5.7872    2.1730    0.0000 C   0  0  0  0  0  0  0  0  0  0  0  0
    5.1117   -2.0619    0.0000 C   0  0  0  0  0  0  0  0  0  0  0  0
    4.3370    1.8708    0.0000 C   0  0  0  0  0  0  0  0  0  0  0  0
    3.6473   -0.5157    0.0000 C   0  0  0  0  0  0  0  0  0  0  0  0
    4.8960   -3.5632    0.0000 C   0  0  0  0  0  0  0  0  0  0  0  0
    2.9782   -1.2589    0.0000 C   0  0  0  0  0  0  0  0  0  0  0  0
    3.9015   -3.6678    0.0000 C   0  0  0  0  0  0  0  0  0  0  0  0
    3.4736    3.3723    0.0000 C   0  0  0  0  0  0  0  0  0  0  0  0
    2.0000   -1.0510    0.0000 C   0  0  0  0  0  0  0  0  0  0  0  0
    3.4753    4.3722    0.0000 C   0  0  0  0  0  0  0  0  0  0  0  0
    3.2871   -2.2099    0.0000 C   0  0  0  0  0  0  0  0  0  0  0  0
    8.0473    0.8352    0.0000 H   0  0  0  0  0  0  0  0  0  0  0  0
    7.5115    1.2193    0.0000 H   0  0  0  0  0  0  0  0  0  0  0  0
    8.5887   -1.6761    0.0000 H   0  0  0  0  0  0  0  0  0  0  0  0
    8.3424   -0.9181    0.0000 H   0  0  0  0  0  0  0  0  0  0  0  0
    6.4563   -1.6240    0.0000 H   0  0  0  0  0  0  0  0  0  0  0  0
    6.9339   -2.3593    0.0000 H   0  0  0  0  0  0  0  0  0  0  0  0
    7.6692   -1.8818    0.0000 H   0  0  0  0  0  0  0  0  0  0  0  0
    7.8922   -3.0360    0.0000 H   0  0  0  0  0  0  0  0  0  0  0  0
    8.4255   -2.4437    0.0000 H   0  0  0  0  0  0  0  0  0  0  0  0
    5.4476   -1.0211    0.0000 H   0  0  0  0  0  0  0  0  0  0  0  0
    6.8945   -1.3160    0.0000 H   0  0  0  0  0  0  0  0  0  0  0  0
    6.6482   -0.5580    0.0000 H   0  0  0  0  0  0  0  0  0  0  0  0
    5.1117   -1.4419    0.0000 H   0  0  0  0  0  0  0  0  0  0  0  0
    4.4917   -2.0619    0.0000 H   0  0  0  0  0  0  0  0  0  0  0  0
    5.1117   -2.6819    0.0000 H   0  0  0  0  0  0  0  0  0  0  0  0
    3.7266    1.9795    0.0000 H   0  0  0  0  0  0  0  0  0  0  0  0
    4.1240    1.2885    0.0000 H   0  0  0  0  0  0  0  0  0  0  0  0
    3.8366   -3.0512    0.0000 H   0  0  0  0  0  0  0  0  0  0  0  0
    3.2849   -3.7326    0.0000 H   0  0  0  0  0  0  0  0  0  0  0  0
    3.9663   -4.2844    0.0000 H   0  0  0  0  0  0  0  0  0  0  0  0
    2.1289   -0.4445    0.0000 H   0  0  0  0  0  0  0  0  0  0  0  0
    1.3936   -0.9221    0.0000 H   0  0  0  0  0  0  0  0  0  0  0  0
    1.8711   -1.6574    0.0000 H   0  0  0  0  0  0  0  0  0  0  0  0
    4.0953    4.3712    0.0000 H   0  0  0  0  0  0  0  0  0  0  0  0
    3.4764    4.9922    0.0000 H   0  0  0  0  0  0  0  0  0  0  0  0
    2.8553    4.3733    0.0000 H   0  0  0  0  0  0  0  0  0  0  0  0
    2.8722   -2.6706    0.0000 H   0  0  0  0  0  0  0  0  0  0  0  0
    3.8936   -2.3388    0.0000 H   0  0  0  0  0  0  0  0  0  0  0  0
  1 11  1  0  0  0  0
  1 12  1  0  0  0  0
  2 13  1  0  0  0  0
  2 23  1  0  0  0  0
 18  3  1  6  0  0  0
  3 26  1  0  0  0  0
 19  4  1  6  0  0  0
  4 27  1  0  0  0  0
  5 22  2  0  0  0  0
  6 23  2  0  0  0  0
  7 25  1  0  0  0  0
  7 30  1  0  0  0  0
  8 26  2  0  0  0  0
  9 27  2  0  0  0  0
 10 30  2  0  0  0  0
 11 12  1  0  0  0  0
 11 14  1  0  0  0  0
 11 15  1  1  0  0  0
 12 13  1  0  0  0  0
 12 34  1  6  0  0  0
 13 16  1  0  0  0  0
 13 35  1  1  0  0  0
 14 17  1  0  0  0  0
 14 36  1  0  0  0  0
 14 37  1  0  0  0  0
 15 38  1  0  0  0  0
 15 39  1  0  0  0  0
 15 40  1  0  0  0  0
 16 18  1  0  0  0  0
 16 21  2  0  0  0  0
 17 22  1  0  0  0  0
 17 41  1  0  0  0  0
 17 42  1  0  0  0  0
 18 20  1  0  0  0  0
 18 43  1  0  0  0  0
 19 20  1  0  0  0  0
 19 22  1  0  0  0  0
 19 24  1  0  0  0  0
 20 44  1  0  0  0  0
 20 45  1  0  0  0  0
 21 23  1  0  0  0  0
 21 25  1  0  0  0  0
 24 46  1  0  0  0  0
 24 47  1  0  0  0  0
 24 48  1  0  0  0  0
 25 49  1  0  0  0  0
 25 50  1  0  0  0  0
 26 28  1  0  0  0  0
 27 29  1  0  0  0  0
 28 31  1  0  0  0  0
 28 33  2  0  0  0  0
 29 51  1  0  0  0  0
 29 52  1  0  0  0  0
 29 53  1  0  0  0  0
 30 32  1  0  0  0  0
 31 54  1  0  0  0  0
 31 55  1  0  0  0  0
 31 56  1  0  0  0  0
 32 57  1  0  0  0  0
 32 58  1  0  0  0  0
 32 59  1  0  0  0  0
 33 60  1  0  0  0  0
 33 61  1  0  0  0  0
M  END
> <PUBCHEM_COMPOUND_CID>
442248

> <PUBCHEM_COMPOUND_CANONICALIZED>
1

> <PUBCHEM_CACTVS_COMPLEXITY>
962

> <PUBCHEM_CACTVS_HBOND_ACCEPTOR>
10

> <PUBCHEM_CACTVS_HBOND_DONOR>
0

> <PUBCHEM_CACTVS_ROTATABLE_BOND>
8

> <PUBCHEM_CACTVS_SUBSKEYS>
AAADceB4PAAAAAAAAAAAAAAAEgAAAQAAAAAAAAAAAAAAAADAAAAAGgAAAAAADFSggAICCAAABACIAoDSCAIAAAAgAAAACAFAAEgBBBYAIQQCEAAF4AAKIYPK7PzOAAAAAAAAAAAAAAAAAAAAAAAAAAAAAA==

> <PUBCHEM_IUPAC_INCHI>
InChI=1S/C23H28O10/c1-11(2)20(27)30-15-9-23(6,32-13(4)25)16(26)7-8-22(5)19(33-22)18-17(15)14(21(28)31-18)10-29-12(3)24/h15,18-19H,1,7-10H2,2-6H3/t15-,18-,19+,22+,23+/m0/s1

> <PUBCHEM_IUPAC_INCHIKEY>
DDRDDFBLSIAXPP-WMFJGPPASA-N

> <PUBCHEM_XLOGP3_AA>
0.5

> <PUBCHEM_EXACT_MASS>
464.168247

> <PUBCHEM_MOLECULAR_FORMULA>
C23H28O10

> <PUBCHEM_MOLECULAR_WEIGHT>
464.46242

> <PUBCHEM_OPENEYE_CAN_SMILES>
CC(=C)C(=O)OC1CC(C(=O)CCC2(C(O2)C3C1=C(C(=O)O3)COC(=O)C)C)(C)OC(=O)C

> <PUBCHEM_OPENEYE_ISO_SMILES>
CC(=C)C(=O)O[C@H]1C[C@@](C(=O)CC[C@@]2([C@H](O2)[C@@H]3C1=C(C(=O)O3)COC(=O)C)C)(C)OC(=O)C

> <PUBCHEM_CACTVS_TPSA>
135

> <PUBCHEM_MONOISOTOPIC_WEIGHT>
464.168247

> <PUBCHEM_TOTAL_CHARGE>
0

> <PUBCHEM_HEAVY_ATOM_COUNT>
33

> <PUBCHEM_ATOM_DEF_STEREO_COUNT>
5

> <PUBCHEM_ATOM_UDEF_STEREO_COUNT>
0

> <PUBCHEM_BOND_DEF_STEREO_COUNT>
0

> <PUBCHEM_BOND_UDEF_STEREO_COUNT>
0

> <PUBCHEM_ISOTOPIC_ATOM_COUNT>
0

> <PUBCHEM_COMPONENT_COUNT>
1

> <PUBCHEM_CACTVS_TAUTO_COUNT>
2

> <PUBCHEM_COORDINATE_TYPE>
1
5
255

> <PUBCHEM_BONDANNOTATIONS>
11  15  5
12  34  6
13  35  5
18  3  6
19  4  6

$$$$

