   Color/Form

     * Prisms from absolute alcohol
     * Colorless

   from [1]HSDB

   Taste
        Bitter
   from [2]HSDB

   Melting Point
        197-198 deg C (decomposes)
   from [3]HSDB

   Dissociation Constants
        pKa = 5.83 /Estimated/
   from [4]HSDB

   Octanol/Water Partition Coefficient
        log Kow = -1.18 @ 25 deg C /Estimated/
   from [5]HSDB

   Solubilities

     * Slightly sol in water (1.2%); sparingly sol in non-polar org
       solvents (0.09% in oleyl alcohol, 0.012% in dodecane); sol in
       ethanol and chloroform
     * In water, 3.7X10+5 mg/L @ 25 deg C /Estimated/

   from [6]HSDB

   Spectral Properties

     * Specific optical rotation: -54.7 deg @ 26 deg C/D (concentration by
       volume = 5.054 g in 100 ml chloroform); max absorption (96%
       ethanol): 217 nm (log E= 3.32)
     * Specific optical rotation (ethanol): -15 deg @ 20 deg C/D

   from [7]HSDB

   Vapor Pressure
        7.5X10-13 mm Hg @ 25 deg C /Estimated/
   from [8]HSDB

   Other Chemical/Physical Properties

     * MP: 184 deg C (decomp); specific optical rotation: -38.4 deg @ 28
       deg C/D (concentration by volume = 5.2 g in 100 ml water)
       /Monocrotaline hydrochloride/
     * Stereoisomer of
       4,5,8,10,12,13,13a,13b-octahydro-4,5-dihydroxy-3,4,5-trimethyl-
       2H-(1,6)dioxacycloundecino[2,3,4-gh]pyrrolizine-2,6(3H)-dione
     * Readily hydrolyzed with alkali; reacts readily with oxidizing
       agents (slowly with atmospheric oxygen) to form dihydropyrrolizine
       and other derivatives
     * Readily sol in water /Monocrotaline hydrochloride/
     * Henry's Law constant = 1.3X10-12 atm-cu m/mol @ 25 deg C
       /Estimated/
     * Hydroxyl radical reaction rate constant = 1.2X10-10 cu cm/molec-sec
       @ 25 deg C /Estimated/

   from [9]HSDB

   Computed Properties
   Molecular Weight                  325.35692 [g/mol]
   Molecular Formula                 C[16]H[23]NO[6]
   XLogP3-AA                         -0.7
   H-Bond Donor                      2
   H-Bond Acceptor                   7
   Rotatable Bond Count              0
   Tautomer Count                    2
   Exact Mass                        325.152537
   MonoIsotopic Mass                 325.152537
   Topological Polar Surface Area    96.3
   Heavy Atom Count                  23
   Formal Charge                     0
   Complexity                        575
   Isotope Atom Count                0
   Defined Atom Stereocenter Count   5
   Undefined Atom Stereocenter Count 0
   Defined Bond Stereocenter Count   0
   Undefined Bond Stereocenter Count 0
   Covalently-Bonded Unit Count      1
   Feature 3D Acceptor Count         4
   Feature 3D Donor Count            2
   Feature 3D Cation Count           1
   Feature 3D Ring Count             2
   Effective Rotor Count             1.8
   Conformer Sampling RMSD           0.6
   CID Conformer Count               [10]14

References

   1. http://toxnet.nlm.nih.gov/cgi-bin/sis/search/r?dbs+hsdb:@term+@rn+@rel+315-22-0
   2. http://toxnet.nlm.nih.gov/cgi-bin/sis/search/r?dbs+hsdb:@term+@rn+@rel+315-22-0
   3. http://toxnet.nlm.nih.gov/cgi-bin/sis/search/r?dbs+hsdb:@term+@rn+@rel+315-22-0
   4. http://toxnet.nlm.nih.gov/cgi-bin/sis/search/r?dbs+hsdb:@term+@rn+@rel+315-22-0
   5. http://toxnet.nlm.nih.gov/cgi-bin/sis/search/r?dbs+hsdb:@term+@rn+@rel+315-22-0
   6. http://toxnet.nlm.nih.gov/cgi-bin/sis/search/r?dbs+hsdb:@term+@rn+@rel+315-22-0
   7. http://toxnet.nlm.nih.gov/cgi-bin/sis/search/r?dbs+hsdb:@term+@rn+@rel+315-22-0
   8. http://toxnet.nlm.nih.gov/cgi-bin/sis/search/r?dbs+hsdb:@term+@rn+@rel+315-22-0
   9. http://toxnet.nlm.nih.gov/cgi-bin/sis/search/r?dbs+hsdb:@term+@rn+@rel+315-22-0
  10. http://pubchem.ncbi.nlm.nih.gov/vw3d/vw3d.cgi?cid=9415
