   Color/Form
        YELLOW LEAVES FROM BENZENE, ORANGE PRISMS FROM ALC
   from [1]HSDB

   Boiling Point
        220-230 DEG C @ 20 MM HG SLIGHT DECOMP
   from [2]HSDB

   Melting Point
        155-157 DEG C
   from [3]HSDB

   Dissociation Constants
        pKa= 8.2
   from [4]HSDB

   Solubilities

     * INSOL IN WATER; VERY SOL IN ALC & ETHER; SOL IN BENZENE, CONCN
       SULFURIC ACID & DIL ALKALI (YELLOW)
     * Soluble in acetone, ethanol, benzene and ether
     * In water, 90 mg/l @ 20 deg C

   from [5]HSDB

   Spectral Properties

     * MAX ABSORPTION (ALC): 236.5 NM (LOG E= 4.0)
     * IR: 8555 (Sadtler Research Laboratories IR Grating Collection)
     * UV: 13284 (Sadtler Research Laboratories Spectral Collection)
     * NMR: 4493 (Sadtler Research Laboratories Spectral Collection)
     * MASS: 4416 (National Bureau of Standards EPA-NIH Mass Spectra Data
       Base, NSRDS-NBS-63)

   from [6]HSDB

   Vapor Pressure
        2.31X10-7 mm Hg @ 25 deg C
   from [7]HSDB

   Computed Properties
   Molecular Weight                  198.2206 [g/mol]
   Molecular Formula                 C[12]H[10]N[2]O
   XLogP3-AA                         2.2
   H-Bond Donor                      1
   H-Bond Acceptor                   3
   Rotatable Bond Count              2
   Tautomer Count                    3
   Exact Mass                        198.079313
   MonoIsotopic Mass                 198.079313
   Topological Polar Surface Area    41.5
   Heavy Atom Count                  15
   Formal Charge                     0
   Complexity                        305
   Isotope Atom Count                0
   Defined Atom Stereocenter Count   0
   Undefined Atom Stereocenter Count 0
   Defined Bond Stereocenter Count   0
   Undefined Bond Stereocenter Count 0
   Covalently-Bonded Unit Count      1
   Feature 3D Acceptor Count         2
   Feature 3D Donor Count            1
   Feature 3D Ring Count             2
   Effective Rotor Count             2
   Conformer Sampling RMSD           0.6
   CID Conformer Count               [8]4

References

   1. http://toxnet.nlm.nih.gov/cgi-bin/sis/search/r?dbs+hsdb:@term+@rn+@rel+1689-82-3
   2. http://toxnet.nlm.nih.gov/cgi-bin/sis/search/r?dbs+hsdb:@term+@rn+@rel+1689-82-3
   3. http://toxnet.nlm.nih.gov/cgi-bin/sis/search/r?dbs+hsdb:@term+@rn+@rel+1689-82-3
   4. http://toxnet.nlm.nih.gov/cgi-bin/sis/search/r?dbs+hsdb:@term+@rn+@rel+1689-82-3
   5. http://toxnet.nlm.nih.gov/cgi-bin/sis/search/r?dbs+hsdb:@term+@rn+@rel+1689-82-3
   6. http://toxnet.nlm.nih.gov/cgi-bin/sis/search/r?dbs+hsdb:@term+@rn+@rel+1689-82-3
   7. http://toxnet.nlm.nih.gov/cgi-bin/sis/search/r?dbs+hsdb:@term+@rn+@rel+1689-82-3
   8. http://pubchem.ncbi.nlm.nih.gov/vw3d/vw3d.cgi?cid=5354198
