   Color/Form
        Yellow needles from alcohol and water
   from [1]HSDB

   Melting Point
        277 deg C
   from [2]HSDB

   Octanol/Water Partition Coefficient
        log Kow = 2.0 (est)
   from [3]HSDB

   Solubilities

     * Soluble in hot alcohol, ether or alkalies
     * Insoluble in benzene; slightly soluble in chloroform; soluble in
       acetic acid, alkalies; very soluble in ethanol, ethyl ether,
       acetone
     * In water, 440 mg/L at 25 deg C (est)

   from [4]HSDB

   Spectral Properties

     * UV: max at 265, 365 nm
     * MASS: 29868 (NIST/EPA/MSDC Mass Spectral Database, 1990 version)
     * UV: 7-578 (Phillip et al; Organic Electronic Spectral Data, John
       Wiley & Sons, New York)
     * IR: 7613 (Sadtler Research Laboratories IR grating collection)

   from [5]HSDB

   Vapor Pressure
        1.1X10-13mm Hg at 25 deg C (est)
   from [6]HSDB

   Other Chemical/Physical Properties

     * MP: 276-278 deg C and 278-280 deg C decomposes
     * Henry's Law constant = 6.3X10-17 atm cu m/mole at 25 deg C (est)
     * Hydroxyl radical reaction rate constant = 2.4X10-10 cu
       cm/molecule-sec at 25 deg C (est)

   from [7]HSDB

   Computed Properties
   Molecular Weight                  286.2363 [g/mol]
   Molecular Formula                 C[15]H[10]O[6]
   XLogP3                            1.9
   H-Bond Donor                      4
   H-Bond Acceptor                   6
   Rotatable Bond Count              1
   Tautomer Count                    126
   Exact Mass                        286.047738
   MonoIsotopic Mass                 286.047738
   Topological Polar Surface Area    107
   Heavy Atom Count                  21
   Formal Charge                     0
   Complexity                        451
   Isotope Atom Count                0
   Defined Atom Stereocenter Count   0
   Undefined Atom Stereocenter Count 0
   Defined Bond Stereocenter Count   0
   Undefined Bond Stereocenter Count 0
   Covalently-Bonded Unit Count      1
   Feature 3D Acceptor Count         2
   Feature 3D Donor Count            4
   Feature 3D Ring Count             3
   Effective Rotor Count             1
   Conformer Sampling RMSD           0.6
   CID Conformer Count               [8]1

References

   1. http://toxnet.nlm.nih.gov/cgi-bin/sis/search/r?dbs+hsdb:@term+@rn+@rel+520-18-3
   2. http://toxnet.nlm.nih.gov/cgi-bin/sis/search/r?dbs+hsdb:@term+@rn+@rel+520-18-3
   3. http://toxnet.nlm.nih.gov/cgi-bin/sis/search/r?dbs+hsdb:@term+@rn+@rel+520-18-3
   4. http://toxnet.nlm.nih.gov/cgi-bin/sis/search/r?dbs+hsdb:@term+@rn+@rel+520-18-3
   5. http://toxnet.nlm.nih.gov/cgi-bin/sis/search/r?dbs+hsdb:@term+@rn+@rel+520-18-3
   6. http://toxnet.nlm.nih.gov/cgi-bin/sis/search/r?dbs+hsdb:@term+@rn+@rel+520-18-3
   7. http://toxnet.nlm.nih.gov/cgi-bin/sis/search/r?dbs+hsdb:@term+@rn+@rel+520-18-3
   8. http://pubchem.ncbi.nlm.nih.gov/vw3d/vw3d.cgi?cid=5280863
