13932
  -OEChem-06241222412D

 44 43  0     0  0  0  0  0  0999 V2000
    7.4871    4.1200    0.0000 Cl  0  5  0  0  0  0  0  0  0  0  0  0
    4.0010    4.6200    0.0000 O   0  0  0  0  0  0  0  0  0  0  0  0
    4.0010    6.6200    0.0000 N   0  3  0  0  0  0  0  0  0  0  0  0
    2.2690    4.6200    0.0000 N   0  0  0  0  0  0  0  0  0  0  0  0
    3.1350    6.1200    0.0000 C   0  0  0  0  0  0  0  0  0  0  0  0
    4.8671    7.1200    0.0000 C   0  0  0  0  0  0  0  0  0  0  0  0
    3.5010    7.4860    0.0000 C   0  0  0  0  0  0  0  0  0  0  0  0
    3.1350    5.1200    0.0000 C   0  0  0  0  0  0  0  0  0  0  0  0
    4.8671    8.1200    0.0000 C   0  0  0  0  0  0  0  0  0  0  0  0
    2.5010    7.4860    0.0000 C   0  0  0  0  0  0  0  0  0  0  0  0
    2.2690    3.6200    0.0000 C   0  0  0  0  0  0  0  0  0  0  0  0
    1.4030    3.1200    0.0000 C   0  0  0  0  0  0  0  0  0  0  0  0
    3.1350    3.1200    0.0000 C   0  0  0  0  0  0  0  0  0  0  0  0
    2.2690    1.6200    0.0000 C   0  0  0  0  0  0  0  0  0  0  0  0
    1.4030    2.1200    0.0000 C   0  0  0  0  0  0  0  0  0  0  0  0
    3.1350    2.1200    0.0000 C   0  0  0  0  0  0  0  0  0  0  0  0
    0.5369    3.6200    0.0000 C   0  0  0  0  0  0  0  0  0  0  0  0
    4.0010    3.6200    0.0000 C   0  0  0  0  0  0  0  0  0  0  0  0
    2.2690    0.6200    0.0000 C   0  0  0  0  0  0  0  0  0  0  0  0
    4.3110    6.0831    0.0000 H   0  0  0  0  0  0  0  0  0  0  0  0
    2.9230    6.7026    0.0000 H   0  0  0  0  0  0  0  0  0  0  0  0
    2.5244    6.0123    0.0000 H   0  0  0  0  0  0  0  0  0  0  0  0
    4.0836    7.6981    0.0000 H   0  0  0  0  0  0  0  0  0  0  0  0
    3.3934    8.0966    0.0000 H   0  0  0  0  0  0  0  0  0  0  0  0
    5.0791    6.5374    0.0000 H   0  0  0  0  0  0  0  0  0  0  0  0
    5.4776    7.2277    0.0000 H   0  0  0  0  0  0  0  0  0  0  0  0
    5.4871    8.1200    0.0000 H   0  0  0  0  0  0  0  0  0  0  0  0
    2.5010    8.1060    0.0000 H   0  0  0  0  0  0  0  0  0  0  0  0
    1.8810    7.4860    0.0000 H   0  0  0  0  0  0  0  0  0  0  0  0
    2.5010    6.8660    0.0000 H   0  0  0  0  0  0  0  0  0  0  0  0
    4.8671    8.7400    0.0000 H   0  0  0  0  0  0  0  0  0  0  0  0
    4.2471    8.1200    0.0000 H   0  0  0  0  0  0  0  0  0  0  0  0
    1.7320    4.9300    0.0000 H   0  0  0  0  0  0  0  0  0  0  0  0
    0.8660    1.8100    0.0000 H   0  0  0  0  0  0  0  0  0  0  0  0
    3.6720    1.8100    0.0000 H   0  0  0  0  0  0  0  0  0  0  0  0
    0.8469    4.1569    0.0000 H   0  0  0  0  0  0  0  0  0  0  0  0
    0.0000    3.9300    0.0000 H   0  0  0  0  0  0  0  0  0  0  0  0
    0.2269    3.0831    0.0000 H   0  0  0  0  0  0  0  0  0  0  0  0
    4.3110    3.0831    0.0000 H   0  0  0  0  0  0  0  0  0  0  0  0
    4.5380    3.9300    0.0000 H   0  0  0  0  0  0  0  0  0  0  0  0
    3.6910    4.1569    0.0000 H   0  0  0  0  0  0  0  0  0  0  0  0
    1.6490    0.6200    0.0000 H   0  0  0  0  0  0  0  0  0  0  0  0
    2.2690    0.0000    0.0000 H   0  0  0  0  0  0  0  0  0  0  0  0
    2.8890    0.6200    0.0000 H   0  0  0  0  0  0  0  0  0  0  0  0
  2  8  2  0  0  0  0
  3  5  1  0  0  0  0
  3  6  1  0  0  0  0
  3  7  1  0  0  0  0
  3 20  1  0  0  0  0
  4  8  1  0  0  0  0
  4 11  1  0  0  0  0
  4 33  1  0  0  0  0
  5  8  1  0  0  0  0
  5 21  1  0  0  0  0
  5 22  1  0  0  0  0
  6  9  1  0  0  0  0
  6 25  1  0  0  0  0
  6 26  1  0  0  0  0
  7 10  1  0  0  0  0
  7 23  1  0  0  0  0
  7 24  1  0  0  0  0
  9 27  1  0  0  0  0
  9 31  1  0  0  0  0
  9 32  1  0  0  0  0
 10 28  1  0  0  0  0
 10 29  1  0  0  0  0
 10 30  1  0  0  0  0
 11 12  2  0  0  0  0
 11 13  1  0  0  0  0
 12 15  1  0  0  0  0
 12 17  1  0  0  0  0
 13 16  2  0  0  0  0
 13 18  1  0  0  0  0
 14 15  2  0  0  0  0
 14 16  1  0  0  0  0
 14 19  1  0  0  0  0
 15 34  1  0  0  0  0
 16 35  1  0  0  0  0
 17 36  1  0  0  0  0
 17 37  1  0  0  0  0
 17 38  1  0  0  0  0
 18 39  1  0  0  0  0
 18 40  1  0  0  0  0
 18 41  1  0  0  0  0
 19 42  1  0  0  0  0
 19 43  1  0  0  0  0
 19 44  1  0  0  0  0
M  CHG  2   1  -1   3   1
M  END
> <PUBCHEM_COMPOUND_CID>
13932

> <PUBCHEM_COMPOUND_CANONICALIZED>
1

> <PUBCHEM_CACTVS_COMPLEXITY>
251

> <PUBCHEM_CACTVS_HBOND_ACCEPTOR>
2

> <PUBCHEM_CACTVS_HBOND_DONOR>
2

> <PUBCHEM_CACTVS_ROTATABLE_BOND>
5

> <PUBCHEM_CACTVS_SUBSKEYS>
AAADceBzIAAEAAAAAAAAAAAAAAAAAAAAAAAwAAAAAAAAAAABAAAAHgAQAAAADAjBmAQywIPAAACIAiVSUACCAAAhAAAAiICIRIgIYCLAkbGUIAhglADIyAcQgEAOCAACAAACAAAQAAQAAAQAAAAAAAAAAA==

> <PUBCHEM_IUPAC_OPENEYE_NAME>
diethyl-[2-oxo-2-(2,4,6-trimethylanilino)ethyl]ammonium chloride

> <PUBCHEM_IUPAC_CAS_NAME>
diethyl-[2-oxo-2-(2,4,6-trimethylanilino)ethyl]ammonium chloride

> <PUBCHEM_IUPAC_NAME>
diethyl-[2-oxo-2-(2,4,6-trimethylanilino)ethyl]azanium chloride

> <PUBCHEM_IUPAC_SYSTEMATIC_NAME>
diethyl-[2-oxidanylidene-2-[(2,4,6-trimethylphenyl)amino]ethyl]azanium chloride

> <PUBCHEM_IUPAC_TRADITIONAL_NAME>
diethyl-(2-keto-2-mesidino-ethyl)ammonium chloride

> <PUBCHEM_IUPAC_INCHI>
InChI=1S/C15H24N2O.ClH/c1-6-17(7-2)10-14(18)16-15-12(4)8-11(3)9-13(15)5;/h8-9H,6-7,10H2,1-5H3,(H,16,18);1H

> <PUBCHEM_IUPAC_INCHIKEY>
KOOGJYYOMPUGCW-UHFFFAOYSA-N

> <PUBCHEM_EXACT_MASS>
284.165541

> <PUBCHEM_MOLECULAR_FORMULA>
C15H25ClN2O

> <PUBCHEM_MOLECULAR_WEIGHT>
284.8248

> <PUBCHEM_OPENEYE_CAN_SMILES>
CC[NH+](CC)CC(=O)NC1=C(C=C(C=C1C)C)C.[Cl-]

> <PUBCHEM_OPENEYE_ISO_SMILES>
CC[NH+](CC)CC(=O)NC1=C(C=C(C=C1C)C)C.[Cl-]

> <PUBCHEM_CACTVS_TPSA>
33.5

> <PUBCHEM_MONOISOTOPIC_WEIGHT>
284.165541

> <PUBCHEM_TOTAL_CHARGE>
0

> <PUBCHEM_HEAVY_ATOM_COUNT>
19

> <PUBCHEM_ATOM_DEF_STEREO_COUNT>
0

> <PUBCHEM_ATOM_UDEF_STEREO_COUNT>
0

> <PUBCHEM_BOND_DEF_STEREO_COUNT>
0

> <PUBCHEM_BOND_UDEF_STEREO_COUNT>
0

> <PUBCHEM_ISOTOPIC_ATOM_COUNT>
0

> <PUBCHEM_COMPONENT_COUNT>
2

> <PUBCHEM_CACTVS_TAUTO_COUNT>
3

> <PUBCHEM_COORDINATE_TYPE>
1
5
255

> <PUBCHEM_BONDANNOTATIONS>
11  12  8
11  13  8
12  15  8
13  16  8
14  15  8
14  16  8

$$$$

