3713
  -OEChem-07051212492D

 31 32  0     0  0  0  0  0  0999 V2000
    7.5673    2.1922    0.0000 P   0  0  0  0  0  0  0  0  0  0  0  0
    7.2566    1.2417    0.0000 O   0  0  0  0  0  0  0  0  0  0  0  0
    7.8779    3.1427    0.0000 O   0  0  0  0  0  0  0  0  0  0  0  0
    8.5178    1.8815    0.0000 O   0  0  0  0  0  0  0  0  0  0  0  0
    6.6168    2.5029    0.0000 O   0  0  0  0  0  0  0  0  0  0  0  0
    4.6783   -2.6813    0.0000 N   0  0  0  0  0  0  0  0  0  0  0  0
    4.9889   -0.1213    0.0000 C   0  0  0  0  0  0  0  0  0  0  0  0
    4.6783   -1.0718    0.0000 C   0  0  0  0  0  0  0  0  0  0  0  0
    3.7320   -1.3765    0.0000 C   0  0  0  0  0  0  0  0  0  0  0  0
    5.9674    0.0849    0.0000 C   0  0  0  0  0  0  0  0  0  0  0  0
    3.7320   -2.3765    0.0000 C   0  0  0  0  0  0  0  0  0  0  0  0
    5.2619   -1.8765    0.0000 C   0  0  0  0  0  0  0  0  0  0  0  0
    6.2781    1.0355    0.0000 C   0  0  0  0  0  0  0  0  0  0  0  0
    2.8660   -0.8765    0.0000 C   0  0  0  0  0  0  0  0  0  0  0  0
    2.8660   -2.8765    0.0000 C   0  0  0  0  0  0  0  0  0  0  0  0
    2.0000   -1.3765    0.0000 C   0  0  0  0  0  0  0  0  0  0  0  0
    2.0000   -2.3765    0.0000 C   0  0  0  0  0  0  0  0  0  0  0  0
    4.9684    0.4984    0.0000 H   0  0  0  0  0  0  0  0  0  0  0  0
    4.3751   -0.0339    0.0000 H   0  0  0  0  0  0  0  0  0  0  0  0
    5.9880   -0.5347    0.0000 H   0  0  0  0  0  0  0  0  0  0  0  0
    6.5812   -0.0024    0.0000 H   0  0  0  0  0  0  0  0  0  0  0  0
    5.8819   -1.8765    0.0000 H   0  0  0  0  0  0  0  0  0  0  0  0
    6.2575    1.6551    0.0000 H   0  0  0  0  0  0  0  0  0  0  0  0
    5.6643    1.1228    0.0000 H   0  0  0  0  0  0  0  0  0  0  0  0
    4.8709   -3.2706    0.0000 H   0  0  0  0  0  0  0  0  0  0  0  0
    2.8660   -0.2565    0.0000 H   0  0  0  0  0  0  0  0  0  0  0  0
    2.8660   -3.4965    0.0000 H   0  0  0  0  0  0  0  0  0  0  0  0
    1.4631   -1.0665    0.0000 H   0  0  0  0  0  0  0  0  0  0  0  0
    1.4631   -2.6865    0.0000 H   0  0  0  0  0  0  0  0  0  0  0  0
    8.4846    3.2706    0.0000 H   0  0  0  0  0  0  0  0  0  0  0  0
    8.6456    1.2749    0.0000 H   0  0  0  0  0  0  0  0  0  0  0  0
  1  2  1  0  0  0  0
  1  3  1  0  0  0  0
  1  4  1  0  0  0  0
  1  5  2  0  0  0  0
  2 13  1  0  0  0  0
  3 30  1  0  0  0  0
  4 31  1  0  0  0  0
  6 11  1  0  0  0  0
  6 12  1  0  0  0  0
  6 25  1  0  0  0  0
  7  8  1  0  0  0  0
  7 10  1  0  0  0  0
  7 18  1  0  0  0  0
  7 19  1  0  0  0  0
  8  9  1  0  0  0  0
  8 12  2  0  0  0  0
  9 11  1  0  0  0  0
  9 14  2  0  0  0  0
 10 13  1  0  0  0  0
 10 20  1  0  0  0  0
 10 21  1  0  0  0  0
 11 15  2  0  0  0  0
 12 22  1  0  0  0  0
 13 23  1  0  0  0  0
 13 24  1  0  0  0  0
 14 16  1  0  0  0  0
 14 26  1  0  0  0  0
 15 17  1  0  0  0  0
 15 27  1  0  0  0  0
 16 17  2  0  0  0  0
 16 28  1  0  0  0  0
 17 29  1  0  0  0  0
M  END
> <PUBCHEM_COMPOUND_CID>
3713

> <PUBCHEM_COMPOUND_CANONICALIZED>
1

> <PUBCHEM_CACTVS_COMPLEXITY>
293

> <PUBCHEM_CACTVS_HBOND_ACCEPTOR>
4

> <PUBCHEM_CACTVS_HBOND_DONOR>
3

> <PUBCHEM_CACTVS_ROTATABLE_BOND>
5

> <PUBCHEM_CACTVS_SUBSKEYS>
AAADccByOAIAAAAAAAAAAAAAAAAAAWAAAAAwAAAAAAAAAFgB8AAAHgAQCCAADAjhngY8wPLJkRCgQzRnRICCgCAxAiAI2aA4ZJgIIOLAkZGEIAhkkADIyAeQ0PIOgAAAAAACAAAAAAAAAAQAAAAAAAAAAA==

> <PUBCHEM_IUPAC_OPENEYE_NAME>
3-(1H-indol-3-yl)propyl dihydrogen phosphate

> <PUBCHEM_IUPAC_CAS_NAME>
3-(1H-indol-3-yl)propyl dihydrogen phosphate

> <PUBCHEM_IUPAC_NAME>
3-(1H-indol-3-yl)propyl dihydrogen phosphate

> <PUBCHEM_IUPAC_SYSTEMATIC_NAME>
3-(1H-indol-3-yl)propyl dihydrogen phosphate

> <PUBCHEM_IUPAC_TRADITIONAL_NAME>
3-(1H-indol-3-yl)propyl dihydrogen phosphate

> <PUBCHEM_IUPAC_INCHI>
InChI=1S/C11H14NO4P/c13-17(14,15)16-7-3-4-9-8-12-11-6-2-1-5-10(9)11/h1-2,5-6,8,12H,3-4,7H2,(H2,13,14,15)

> <PUBCHEM_IUPAC_INCHIKEY>
NKEZSFZOUIIZFL-UHFFFAOYSA-N

> <PUBCHEM_XLOGP3>
1

> <PUBCHEM_EXACT_MASS>
255.066045

> <PUBCHEM_MOLECULAR_FORMULA>
C11H14NO4P

> <PUBCHEM_MOLECULAR_WEIGHT>
255.206922

> <PUBCHEM_OPENEYE_CAN_SMILES>
C1=CC=C2C(=C1)C(=CN2)CCCOP(=O)(O)O

> <PUBCHEM_OPENEYE_ISO_SMILES>
C1=CC=C2C(=C1)C(=CN2)CCCOP(=O)(O)O

> <PUBCHEM_CACTVS_TPSA>
82.6

> <PUBCHEM_MONOISOTOPIC_WEIGHT>
255.066045

> <PUBCHEM_TOTAL_CHARGE>
0

> <PUBCHEM_HEAVY_ATOM_COUNT>
17

> <PUBCHEM_ATOM_DEF_STEREO_COUNT>
0

> <PUBCHEM_ATOM_UDEF_STEREO_COUNT>
0

> <PUBCHEM_BOND_DEF_STEREO_COUNT>
0

> <PUBCHEM_BOND_UDEF_STEREO_COUNT>
0

> <PUBCHEM_ISOTOPIC_ATOM_COUNT>
0

> <PUBCHEM_COMPONENT_COUNT>
1

> <PUBCHEM_CACTVS_TAUTO_COUNT>
1

> <PUBCHEM_COORDINATE_TYPE>
1
5
255

> <PUBCHEM_BONDANNOTATIONS>
11  15  8
14  16  8
15  17  8
16  17  8
6  11  8
6  12  8
8  12  8
8  9  8
9  11  8
9  14  8

$$$$

