   Color/Form
        Very light, yellow colored liquid
   from [1]HSDB

   Taste
        BITTER TASTE
   from [2]HSDB

   Boiling Point
        158.2 DEG C @ 2 MM HG
   from [3]HSDB

   Melting Point
        FP: BELOW -20 DEG C
   from [4]HSDB

   Corrosivity
        NON-CORROSIVE
   from [5]HSDB

   Solubilities
        PRACTICALLY INSOL IN WATER; MISCIBLE WITH MOST ORG SOLVENTS INCL
   PETROLEUM OILS & FLUORINATED HYDROCARBONS. ...
   from [6]HSDB

   Spectral Properties
        INDEX OF REFRACTION: 1.4982 TO 1.4988 @ 25 DEG C/D
   from [7]HSDB

   Other Chemical/Physical Properties

     * DENSITY: 1.040-1.060 @ 20 DEG C /TECHNICAL GRADE/
     * Stable in range pH 6-8; to light and heat.

   from [8]HSDB

   Computed Properties
   Molecular Weight                  275.3859 [g/mol]
   Molecular Formula                 C[17]H[25]NO[2]
   XLogP3-AA                         3.4
   H-Bond Donor                      0
   H-Bond Acceptor                   2
   Rotatable Bond Count              6
   Exact Mass                        275.188529
   MonoIsotopic Mass                 275.188529
   Topological Polar Surface Area    37.4
   Heavy Atom Count                  20
   Formal Charge                     0
   Complexity                        412
   Isotope Atom Count                0
   Defined Atom Stereocenter Count   0
   Undefined Atom Stereocenter Count 5
   Defined Bond Stereocenter Count   0
   Undefined Bond Stereocenter Count 0
   Covalently-Bonded Unit Count      1
   Feature 3D Acceptor Count         2
   Feature 3D Hydrophobe Count       3
   Feature 3D Ring Count             2
   Effective Rotor Count             6.4
   Conformer Sampling RMSD           0.8
   CID Conformer Count               [9]150

References

   1. http://toxnet.nlm.nih.gov/cgi-bin/sis/search/r?dbs+hsdb:@term+@rn+@rel+113-48-4
   2. http://toxnet.nlm.nih.gov/cgi-bin/sis/search/r?dbs+hsdb:@term+@rn+@rel+113-48-4
   3. http://toxnet.nlm.nih.gov/cgi-bin/sis/search/r?dbs+hsdb:@term+@rn+@rel+113-48-4
   4. http://toxnet.nlm.nih.gov/cgi-bin/sis/search/r?dbs+hsdb:@term+@rn+@rel+113-48-4
   5. http://toxnet.nlm.nih.gov/cgi-bin/sis/search/r?dbs+hsdb:@term+@rn+@rel+113-48-4
   6. http://toxnet.nlm.nih.gov/cgi-bin/sis/search/r?dbs+hsdb:@term+@rn+@rel+113-48-4
   7. http://toxnet.nlm.nih.gov/cgi-bin/sis/search/r?dbs+hsdb:@term+@rn+@rel+113-48-4
   8. http://toxnet.nlm.nih.gov/cgi-bin/sis/search/r?dbs+hsdb:@term+@rn+@rel+113-48-4
   9. http://pubchem.ncbi.nlm.nih.gov/vw3d/vw3d.cgi?cid=8227
