7905
  -OEChem-06261202262D

 13 11  0     0  0  0  0  0  0999 V2000
    2.8660    0.0600    0.0000 Hg  0  0  0  0  0  0  0  0  0  0  0  0
    3.7320   -0.4400    0.0000 O   0  0  0  0  0  0  0  0  0  0  0  0
    4.5981    1.0600    0.0000 O   0  0  0  0  0  0  0  0  0  0  0  0
    4.5981    0.0600    0.0000 C   0  0  0  0  0  0  0  0  0  0  0  0
    5.4641   -0.4400    0.0000 C   0  0  0  0  0  0  0  0  0  0  0  0
    2.0000   -0.4400    0.0000 C   0  0  0  0  0  0  0  0  0  0  0  0
    5.1541   -0.9769    0.0000 H   0  0  0  0  0  0  0  0  0  0  0  0
    6.0010   -0.7500    0.0000 H   0  0  0  0  0  0  0  0  0  0  0  0
    5.7741    0.0969    0.0000 H   0  0  0  0  0  0  0  0  0  0  0  0
    3.7320   -1.0600    0.0000 H   0  0  0  0  0  0  0  0  0  0  0  0
    1.6900    0.0969    0.0000 H   0  0  0  0  0  0  0  0  0  0  0  0
    1.4631   -0.7500    0.0000 H   0  0  0  0  0  0  0  0  0  0  0  0
    2.3100   -0.9769    0.0000 H   0  0  0  0  0  0  0  0  0  0  0  0
  1  6  1  0  0  0  0
  2  4  1  0  0  0  0
  2 10  1  0  0  0  0
  3  4  2  0  0  0  0
  4  5  1  0  0  0  0
  5  7  1  0  0  0  0
  5  8  1  0  0  0  0
  5  9  1  0  0  0  0
  6 11  1  0  0  0  0
  6 12  1  0  0  0  0
  6 13  1  0  0  0  0
M  END
> <PUBCHEM_COMPOUND_CID>
7905

> <PUBCHEM_COMPOUND_CANONICALIZED>
1

> <PUBCHEM_CACTVS_COMPLEXITY>
35.8

> <PUBCHEM_CACTVS_HBOND_ACCEPTOR>
2

> <PUBCHEM_CACTVS_HBOND_DONOR>
1

> <PUBCHEM_CACTVS_ROTATABLE_BOND>
0

> <PUBCHEM_CACTVS_SUBSKEYS>
AAADcYBAMAAAAAAAAAAAAQAAAAAAAAAAAAAAAAAAAAAAAAAAAAAAGgAACAAAAACAgAACCAAAAgAIAACQCAAAAAAAAAAAAAAAAAAAAAAAAAAAAAAAAAAAAAAAAAAAAAAAAAAAAAAAAAAAAAAAAAAAAAAAAA==

> <PUBCHEM_IUPAC_OPENEYE_NAME>
acetic acid; methylmercury

> <PUBCHEM_IUPAC_CAS_NAME>
acetic acid; methylmercury

> <PUBCHEM_IUPAC_NAME>
acetic acid; methylmercury

> <PUBCHEM_IUPAC_SYSTEMATIC_NAME>
ethanoic acid; methylmercury

> <PUBCHEM_IUPAC_TRADITIONAL_NAME>
acetic acid; methylmercury

> <PUBCHEM_IUPAC_INCHI>
InChI=1S/C2H4O2.CH3.Hg/c1-2(3)4;;/h1H3,(H,3,4);1H3;

> <PUBCHEM_IUPAC_INCHIKEY>
WJXAMXHAFPAXKS-UHFFFAOYSA-N

> <PUBCHEM_EXACT_MASS>
277.015247

> <PUBCHEM_MOLECULAR_FORMULA>
C3H7HgO2

> <PUBCHEM_MOLECULAR_WEIGHT>
275.67648

> <PUBCHEM_OPENEYE_CAN_SMILES>
CC(=O)O.C[Hg]

> <PUBCHEM_OPENEYE_ISO_SMILES>
CC(=O)O.C[Hg]

> <PUBCHEM_CACTVS_TPSA>
37.3

> <PUBCHEM_MONOISOTOPIC_WEIGHT>
277.015247

> <PUBCHEM_TOTAL_CHARGE>
0

> <PUBCHEM_HEAVY_ATOM_COUNT>
6

> <PUBCHEM_ATOM_DEF_STEREO_COUNT>
0

> <PUBCHEM_ATOM_UDEF_STEREO_COUNT>
0

> <PUBCHEM_BOND_DEF_STEREO_COUNT>
0

> <PUBCHEM_BOND_UDEF_STEREO_COUNT>
0

> <PUBCHEM_ISOTOPIC_ATOM_COUNT>
0

> <PUBCHEM_COMPONENT_COUNT>
2

> <PUBCHEM_CACTVS_TAUTO_COUNT>
2

> <PUBCHEM_NONSTANDARDBOND>
1  2  6

> <PUBCHEM_COORDINATE_TYPE>
1
5
255

$$$$

