   Color/Form
        Long rods from alcohol
   from [1]HSDB

   Melting Point
        218-220 deg C
   from [2]HSDB

   Dissociation Constants
        pKa = 8.28 (est)
   from [3]HSDB

   Octanol/Water Partition Coefficient
        log Kow = 0.66 (est)
   from [4]HSDB

   Solubilities

     * Nearly insol in ether, water, potassium and sodium hydroxide
     * Insoluble in water; soluble in ethanol, chloroform
     * In water, 4.16X10+3 mg/L at 25 deg C (est)

   from [5]HSDB

   Spectral Properties
        Intense mass spectral peaks: 70 m/z, 140 m/z, 230 m/z, 258 m/z,
   315 m/z
   from [6]HSDB

   Vapor Pressure
        2.22X10-10 mm Hg at 25 deg C (est)
   from [7]HSDB

   Other Chemical/Physical Properties

     * EXISTS IN 2 TAUTOMERIC FORMS WHICH GIVE SAME SALT; DOES NOT REDUCE
       AMMONIACAL SILVER OR FEHLING'S SOLN
     * MP: 218-220 DEG C; STRONGLY REFRINGENT SCALES FROM ALCOHOL; MORE
       SOL IN ALCOHOL THAN OTHER FORM /TAUTOMERIC OXYCODONE/
     * Decomp 270-272 deg C; specific optical rotation: -125 deg at 20 deg
       C/D (concentration by volume = 2.5 g in 100 mL water) long rods
       from water; 1 g dissolves in 10 mL water; slightly soluble in
       alcohol; partition coefficient (octanol/water): 0.07 /Oxycodone
       hydrochloride/
     * Both the hydrochloride and the terephthalate salts are freely
       soluble in water and slightly soluble in alcohol. /Oxycodone
       hydrochloride and oxycodone terephthalate/
     * Oxycodone hydrochloride oral solution has a pH of 1.4-4. /Oxycodone
       hydrochloride/
     * MW 351.83 /Oxycodone hydrochloride/
     * Henry's Law constant = 2.33X10-16 atm-cu m/mol at 25 deg C (est)
     * Hydroxyl radical reaction rate constant = 1.83X10-10 cu
       cm/molec-sec at 25 deg C (est)

   from [8]HSDB

   Computed Properties
   Molecular Weight                  315.36364 [g/mol]
   Molecular Formula                 C[18]H[21]NO[4]
   XLogP3                            1.2
   H-Bond Donor                      1
   H-Bond Acceptor                   5
   Rotatable Bond Count              1
   Tautomer Count                    3
   Exact Mass                        315.147058
   MonoIsotopic Mass                 315.147058
   Topological Polar Surface Area    59
   Heavy Atom Count                  23
   Formal Charge                     0
   Complexity                        553
   Isotope Atom Count                0
   Defined Atom Stereocenter Count   4
   Undefined Atom Stereocenter Count 0
   Defined Bond Stereocenter Count   0
   Undefined Bond Stereocenter Count 0
   Covalently-Bonded Unit Count      1
   Feature 3D Acceptor Count         4
   Feature 3D Donor Count            1
   Feature 3D Cation Count           1
   Feature 3D Ring Count             5
   Effective Rotor Count             2.4
   Conformer Sampling RMSD           0.6
   CID Conformer Count               [9]1

References

   1. http://toxnet.nlm.nih.gov/cgi-bin/sis/search/r?dbs+hsdb:@term+@rn+@rel+76-42-6
   2. http://toxnet.nlm.nih.gov/cgi-bin/sis/search/r?dbs+hsdb:@term+@rn+@rel+76-42-6
   3. http://toxnet.nlm.nih.gov/cgi-bin/sis/search/r?dbs+hsdb:@term+@rn+@rel+76-42-6
   4. http://toxnet.nlm.nih.gov/cgi-bin/sis/search/r?dbs+hsdb:@term+@rn+@rel+76-42-6
   5. http://toxnet.nlm.nih.gov/cgi-bin/sis/search/r?dbs+hsdb:@term+@rn+@rel+76-42-6
   6. http://toxnet.nlm.nih.gov/cgi-bin/sis/search/r?dbs+hsdb:@term+@rn+@rel+76-42-6
   7. http://toxnet.nlm.nih.gov/cgi-bin/sis/search/r?dbs+hsdb:@term+@rn+@rel+76-42-6
   8. http://toxnet.nlm.nih.gov/cgi-bin/sis/search/r?dbs+hsdb:@term+@rn+@rel+76-42-6
   9. http://pubchem.ncbi.nlm.nih.gov/vw3d/vw3d.cgi?cid=5284603
