8258
  -OEChem-06261202422D

 14 13  0     0  0  0  0  0  0999 V2000
    2.5369   -0.7220    0.0000 O   0  0  0  0  0  0  0  0  0  0  0  0
    3.4030   -0.2220    0.0000 C   0  0  0  0  0  0  0  0  0  0  0  0
    2.9030    0.6440    0.0000 C   0  0  0  0  0  0  0  0  0  0  0  0
    3.9030   -1.0880    0.0000 C   0  0  0  0  0  0  0  0  0  0  0  0
    4.2690    0.2780    0.0000 C   0  0  0  0  0  0  0  0  0  0  0  0
    5.1350    0.7780    0.0000 C   0  0  0  0  0  0  0  0  0  0  0  0
    3.4399    0.9540    0.0000 H   0  0  0  0  0  0  0  0  0  0  0  0
    2.5930    1.1810    0.0000 H   0  0  0  0  0  0  0  0  0  0  0  0
    2.3660    0.3340    0.0000 H   0  0  0  0  0  0  0  0  0  0  0  0
    3.3660   -1.3980    0.0000 H   0  0  0  0  0  0  0  0  0  0  0  0
    4.2130   -1.6249    0.0000 H   0  0  0  0  0  0  0  0  0  0  0  0
    4.4399   -0.7780    0.0000 H   0  0  0  0  0  0  0  0  0  0  0  0
    2.0000   -0.4120    0.0000 H   0  0  0  0  0  0  0  0  0  0  0  0
    5.6720    1.0880    0.0000 H   0  0  0  0  0  0  0  0  0  0  0  0
  1  2  1  0  0  0  0
  1 13  1  0  0  0  0
  2  3  1  0  0  0  0
  2  4  1  0  0  0  0
  2  5  1  0  0  0  0
  3  7  1  0  0  0  0
  3  8  1  0  0  0  0
  3  9  1  0  0  0  0
  4 10  1  0  0  0  0
  4 11  1  0  0  0  0
  4 12  1  0  0  0  0
  5  6  3  0  0  0  0
  6 14  1  0  0  0  0
M  END
> <PUBCHEM_COMPOUND_CID>
8258

> <PUBCHEM_COMPOUND_CANONICALIZED>
1

> <PUBCHEM_CACTVS_COMPLEXITY>
83.4

> <PUBCHEM_CACTVS_HBOND_ACCEPTOR>
1

> <PUBCHEM_CACTVS_HBOND_DONOR>
1

> <PUBCHEM_CACTVS_ROTATABLE_BOND>
1

> <PUBCHEM_CACTVS_SUBSKEYS>
AAADccBgIAAAAAAAAAAAAAAAAAAAAAAAAAAAAAAAAAAAAAAAAAAAGgAACAAADESAgAACAAAAAgBAGAAAAAgAAAAAAAAAAAAAAAAAAAAAAAAAAAAAAAAAAAAAAAAAAAAAAAAAAAAAAAAAAAAAAAAAAAAAAA==

> <PUBCHEM_IUPAC_OPENEYE_NAME>
2-methylbut-3-yn-2-ol

> <PUBCHEM_IUPAC_CAS_NAME>
2-methyl-3-butyn-2-ol

> <PUBCHEM_IUPAC_NAME>
2-methylbut-3-yn-2-ol

> <PUBCHEM_IUPAC_SYSTEMATIC_NAME>
2-methylbut-3-yn-2-ol

> <PUBCHEM_IUPAC_TRADITIONAL_NAME>
2-methylbut-3-yn-2-ol

> <PUBCHEM_IUPAC_INCHI>
InChI=1S/C5H8O/c1-4-5(2,3)6/h1,6H,2-3H3

> <PUBCHEM_IUPAC_INCHIKEY>
CEBKHWWANWSNTI-UHFFFAOYSA-N

> <PUBCHEM_XLOGP3>
0.3

> <PUBCHEM_EXACT_MASS>
84.057515

> <PUBCHEM_MOLECULAR_FORMULA>
C5H8O

> <PUBCHEM_MOLECULAR_WEIGHT>
84.11642

> <PUBCHEM_OPENEYE_CAN_SMILES>
CC(C)(C#C)O

> <PUBCHEM_OPENEYE_ISO_SMILES>
CC(C)(C#C)O

> <PUBCHEM_CACTVS_TPSA>
20.2

> <PUBCHEM_MONOISOTOPIC_WEIGHT>
84.057515

> <PUBCHEM_TOTAL_CHARGE>
0

> <PUBCHEM_HEAVY_ATOM_COUNT>
6

> <PUBCHEM_ATOM_DEF_STEREO_COUNT>
0

> <PUBCHEM_ATOM_UDEF_STEREO_COUNT>
0

> <PUBCHEM_BOND_DEF_STEREO_COUNT>
0

> <PUBCHEM_BOND_UDEF_STEREO_COUNT>
0

> <PUBCHEM_ISOTOPIC_ATOM_COUNT>
0

> <PUBCHEM_COMPONENT_COUNT>
1

> <PUBCHEM_CACTVS_TAUTO_COUNT>
1

> <PUBCHEM_COORDINATE_TYPE>
1
5
255

$$$$

