5281315
  -OEChem-07051212562D

 87 90  0     1  0  0  0  0  0999 V2000
   10.4473   -1.2518    0.0000 O   0  0  0  0  0  0  0  0  0  0  0  0
    5.3194   -0.2518    0.0000 O   0  0  0  0  0  0  0  0  0  0  0  0
   10.1248    0.1928    0.0000 O   0  0  0  0  0  0  0  0  0  0  0  0
    4.3346   -1.0781    0.0000 O   0  0  0  0  0  0  0  0  0  0  0  0
    2.5405   -1.7126    0.0000 O   0  0  0  0  0  0  0  0  0  0  0  0
    8.8172    2.1982    0.0000 O   0  0  0  0  0  0  0  0  0  0  0  0
    2.5244   -3.8042    0.0000 O   0  0  0  0  0  0  0  0  0  0  0  0
   12.7312    3.0231    0.0000 O   0  0  0  0  0  0  0  0  0  0  0  0
   12.3740    4.7179    0.0000 O   0  0  0  0  0  0  0  0  0  0  0  0
    7.9174   -1.7518    0.0000 C   0  0  2  0  0  0  0  0  0  0  0  0
    7.9174   -0.7518    0.0000 C   0  0  1  0  0  0  0  0  0  0  0  0
    7.0514   -2.2518    0.0000 C   0  0  1  0  0  0  0  0  0  0  0  0
    6.1854   -1.7518    0.0000 C   0  0  2  0  0  0  0  0  0  0  0  0
    8.8637   -0.4471    0.0000 C   0  0  2  0  0  0  0  0  0  0  0  0
    8.8637   -2.0566    0.0000 C   0  0  0  0  0  0  0  0  0  0  0  0
    9.4473   -1.2518    0.0000 C   0  0  1  0  0  0  0  0  0  0  0  0
    7.0514   -0.2518    0.0000 C   0  0  0  0  0  0  0  0  0  0  0  0
    5.2754   -2.2587    0.0000 C   0  0  1  0  0  0  0  0  0  0  0  0
    6.1854   -0.7518    0.0000 C   0  0  0  0  0  0  0  0  0  0  0  0
    7.0675   -3.2933    0.0000 C   0  0  0  0  0  0  0  0  0  0  0  0
    7.9174   -2.7518    0.0000 C   0  0  0  0  0  0  0  0  0  0  0  0
    7.9174    0.2482    0.0000 C   0  0  0  0  0  0  0  0  0  0  0  0
    9.1743    0.5034    0.0000 C   0  0  1  0  0  0  0  0  0  0  0  0
    5.2674   -3.3003    0.0000 C   0  0  0  0  0  0  0  0  0  0  0  0
    5.3194   -1.2518    0.0000 C   0  0  0  0  0  0  0  0  0  0  0  0
    4.3486   -1.6946    0.0000 C   0  0  0  0  0  0  0  0  0  0  0  0
    6.1694   -3.8211    0.0000 C   0  0  0  0  0  0  0  0  0  0  0  0
    4.3319   -3.8500    0.0000 C   0  0  0  0  0  0  0  0  0  0  0  0
    3.4007   -2.2225    0.0000 C   0  0  1  0  0  0  0  0  0  0  0  0
    8.2238    0.8141    0.0000 C   0  0  0  0  0  0  0  0  0  0  0  0
    9.4850    1.4540    0.0000 C   0  0  0  0  0  0  0  0  0  0  0  0
    3.3923   -3.3075    0.0000 C   0  0  0  0  0  0  0  0  0  0  0  0
    3.8353   -4.7179    0.0000 C   0  0  0  0  0  0  0  0  0  0  0  0
    4.8353   -4.7141    0.0000 C   0  0  0  0  0  0  0  0  0  0  0  0
   10.4635    1.6602    0.0000 C   0  0  0  0  0  0  0  0  0  0  0  0
   10.7742    2.6107    0.0000 C   0  0  0  0  0  0  0  0  0  0  0  0
   11.7527    2.8169    0.0000 C   0  0  0  0  0  0  0  0  0  0  0  0
   11.5464    3.7954    0.0000 C   0  0  0  0  0  0  0  0  0  0  0  0
   11.9589    1.8384    0.0000 C   0  0  0  0  0  0  0  0  0  0  0  0
   13.0418    3.9736    0.0000 C   0  0  0  0  0  0  0  0  0  0  0  0
   14.0203    4.1799    0.0000 C   0  0  0  0  0  0  0  0  0  0  0  0
    7.7908   -2.6711    0.0000 H   0  0  0  0  0  0  0  0  0  0  0  0
    8.2639    0.1552    0.0000 H   0  0  0  0  0  0  0  0  0  0  0  0
    8.6126   -2.6235    0.0000 H   0  0  0  0  0  0  0  0  0  0  0  0
    9.4010   -2.3658    0.0000 H   0  0  0  0  0  0  0  0  0  0  0  0
    9.7290   -1.8041    0.0000 H   0  0  0  0  0  0  0  0  0  0  0  0
    7.4500    0.2231    0.0000 H   0  0  0  0  0  0  0  0  0  0  0  0
    6.6529    0.2231    0.0000 H   0  0  0  0  0  0  0  0  0  0  0  0
    5.2918   -1.4088    0.0000 H   0  0  0  0  0  0  0  0  0  0  0  0
    7.2855   -3.8737    0.0000 H   0  0  0  0  0  0  0  0  0  0  0  0
    7.6766   -3.1778    0.0000 H   0  0  0  0  0  0  0  0  0  0  0  0
    7.2974   -2.7518    0.0000 H   0  0  0  0  0  0  0  0  0  0  0  0
    7.9174   -3.3718    0.0000 H   0  0  0  0  0  0  0  0  0  0  0  0
    8.5374   -2.7518    0.0000 H   0  0  0  0  0  0  0  0  0  0  0  0
    8.5374    0.2482    0.0000 H   0  0  0  0  0  0  0  0  0  0  0  0
    7.9174    0.8682    0.0000 H   0  0  0  0  0  0  0  0  0  0  0  0
    7.2974    0.2482    0.0000 H   0  0  0  0  0  0  0  0  0  0  0  0
    5.8167   -0.8816    0.0000 H   0  0  0  0  0  0  0  0  0  0  0  0
    5.1073   -1.8344    0.0000 H   0  0  0  0  0  0  0  0  0  0  0  0
    4.7568   -1.2279    0.0000 H   0  0  0  0  0  0  0  0  0  0  0  0
    3.9586   -1.2126    0.0000 H   0  0  0  0  0  0  0  0  0  0  0  0
    6.1718   -4.4411    0.0000 H   0  0  0  0  0  0  0  0  0  0  0  0
    2.8608   -2.5274    0.0000 H   0  0  0  0  0  0  0  0  0  0  0  0
   10.7573   -1.7888    0.0000 H   0  0  0  0  0  0  0  0  0  0  0  0
    8.4164    1.4034    0.0000 H   0  0  0  0  0  0  0  0  0  0  0  0
    7.6345    1.0067    0.0000 H   0  0  0  0  0  0  0  0  0  0  0  0
    8.0312    0.2248    0.0000 H   0  0  0  0  0  0  0  0  0  0  0  0
   10.5863    0.6068    0.0000 H   0  0  0  0  0  0  0  0  0  0  0  0
    3.2972   -4.4100    0.0000 H   0  0  0  0  0  0  0  0  0  0  0  0
    3.5274   -5.2561    0.0000 H   0  0  0  0  0  0  0  0  0  0  0  0
    4.3734   -5.0259    0.0000 H   0  0  0  0  0  0  0  0  0  0  0  0
    4.2995   -5.0262    0.0000 H   0  0  0  0  0  0  0  0  0  0  0  0
    5.1473   -5.2498    0.0000 H   0  0  0  0  0  0  0  0  0  0  0  0
    5.3710   -4.4020    0.0000 H   0  0  0  0  0  0  0  0  0  0  0  0
    4.1226   -0.4955    0.0000 H   0  0  0  0  0  0  0  0  0  0  0  0
   10.8776    1.1987    0.0000 H   0  0  0  0  0  0  0  0  0  0  0  0
    2.0000   -2.0163    0.0000 H   0  0  0  0  0  0  0  0  0  0  0  0
   10.3601    3.0722    0.0000 H   0  0  0  0  0  0  0  0  0  0  0  0
   12.1531    3.9233    0.0000 H   0  0  0  0  0  0  0  0  0  0  0  0
   11.4186    4.4021    0.0000 H   0  0  0  0  0  0  0  0  0  0  0  0
   10.9398    3.6676    0.0000 H   0  0  0  0  0  0  0  0  0  0  0  0
   11.3522    1.7105    0.0000 H   0  0  0  0  0  0  0  0  0  0  0  0
   12.0867    1.2317    0.0000 H   0  0  0  0  0  0  0  0  0  0  0  0
   12.5656    1.9662    0.0000 H   0  0  0  0  0  0  0  0  0  0  0  0
   14.1482    3.5732    0.0000 H   0  0  0  0  0  0  0  0  0  0  0  0
   14.6270    4.3077    0.0000 H   0  0  0  0  0  0  0  0  0  0  0  0
   13.8925    4.7865    0.0000 H   0  0  0  0  0  0  0  0  0  0  0  0
 16  1  1  6  0  0  0
  1 64  1  0  0  0  0
  2 19  2  0  0  0  0
 23  3  1  1  0  0  0
  3 68  1  0  0  0  0
  4 25  1  0  0  0  0
  4 75  1  0  0  0  0
 29  5  1  1  0  0  0
  5 77  1  0  0  0  0
  6 31  2  0  0  0  0
  7 32  2  0  0  0  0
  8 37  1  0  0  0  0
  8 40  1  0  0  0  0
  9 40  2  0  0  0  0
 10 11  1  0  0  0  0
 10 12  1  0  0  0  0
 10 15  1  0  0  0  0
 10 21  1  6  0  0  0
 11 14  1  0  0  0  0
 11 17  1  0  0  0  0
 11 22  1  1  0  0  0
 12 13  1  0  0  0  0
 12 20  1  0  0  0  0
 12 42  1  1  0  0  0
 13 18  1  0  0  0  0
 13 19  1  0  0  0  0
 13 25  1  1  0  0  0
 14 16  1  0  0  0  0
 14 23  1  0  0  0  0
 14 43  1  6  0  0  0
 15 16  1  0  0  0  0
 15 44  1  0  0  0  0
 15 45  1  0  0  0  0
 16 46  1  0  0  0  0
 17 19  1  0  0  0  0
 17 47  1  0  0  0  0
 17 48  1  0  0  0  0
 18 24  1  0  0  0  0
 18 26  1  0  0  0  0
 18 49  1  6  0  0  0
 20 27  1  0  0  0  0
 20 50  1  0  0  0  0
 20 51  1  0  0  0  0
 21 52  1  0  0  0  0
 21 53  1  0  0  0  0
 21 54  1  0  0  0  0
 22 55  1  0  0  0  0
 22 56  1  0  0  0  0
 22 57  1  0  0  0  0
 23 30  1  0  0  0  0
 23 31  1  0  0  0  0
 24 27  2  0  0  0  0
 24 28  1  0  0  0  0
 25 58  1  0  0  0  0
 25 59  1  0  0  0  0
 26 29  1  0  0  0  0
 26 60  1  0  0  0  0
 26 61  1  0  0  0  0
 27 62  1  0  0  0  0
 28 32  1  0  0  0  0
 28 33  1  0  0  0  0
 28 34  1  0  0  0  0
 29 32  1  0  0  0  0
 29 63  1  0  0  0  0
 30 65  1  0  0  0  0
 30 66  1  0  0  0  0
 30 67  1  0  0  0  0
 31 35  1  0  0  0  0
 33 69  1  0  0  0  0
 33 70  1  0  0  0  0
 33 71  1  0  0  0  0
 34 72  1  0  0  0  0
 34 73  1  0  0  0  0
 34 74  1  0  0  0  0
 35 36  2  0  0  0  0
 35 76  1  0  0  0  0
 36 37  1  0  0  0  0
 36 78  1  0  0  0  0
 37 38  1  0  0  0  0
 37 39  1  0  0  0  0
 38 79  1  0  0  0  0
 38 80  1  0  0  0  0
 38 81  1  0  0  0  0
 39 82  1  0  0  0  0
 39 83  1  0  0  0  0
 39 84  1  0  0  0  0
 40 41  1  0  0  0  0
 41 85  1  0  0  0  0
 41 86  1  0  0  0  0
 41 87  1  0  0  0  0
M  END
> <PUBCHEM_COMPOUND_CID>
5281315

> <PUBCHEM_COMPOUND_CANONICALIZED>
1

> <PUBCHEM_CACTVS_COMPLEXITY>
1230

> <PUBCHEM_CACTVS_HBOND_ACCEPTOR>
9

> <PUBCHEM_CACTVS_HBOND_DONOR>
4

> <PUBCHEM_CACTVS_ROTATABLE_BOND>
7

> <PUBCHEM_CACTVS_SUBSKEYS>
AAADcfB8PAAAAAAAAAAAAAAAAAAAAYAAAAAwYIAAAAAAAGCAAAAAGgAACAAAD1SggAICCAAABgCIAqDSCAIAAAAgAAAICAFAAEgAFBYAIQACUAAF4AAIIYOK7PTPgAAAAAAAAACAAAYAACAAAYAADAAAAA==

> <PUBCHEM_IUPAC_OPENEYE_NAME>
[(E,5R)-5-[(2S,8S,9R,10R,13R,14S,16R,17R)-2,16-dihydroxy-9-(hydroxymethyl)-4,4,13,14-tetramethyl-3,11-dioxo-2,7,8,10,12,15,16,17-octahydro-1H-cyclopenta[a]phenanthren-17-yl]-5-hydroxy-1,1-dimethyl-4-oxo-hex-2-enyl] acetate

> <PUBCHEM_IUPAC_CAS_NAME>
acetic acid [(E,6R)-6-[(2S,8S,9R,10R,13R,14S,16R,17R)-2,16-dihydroxy-9-(hydroxymethyl)-4,4,13,14-tetramethyl-3,11-dioxo-2,7,8,10,12,15,16,17-octahydro-1H-cyclopenta[a]phenanthren-17-yl]-6-hydroxy-2-methyl-5-oxohept-3-en-2-yl] ester

> <PUBCHEM_IUPAC_NAME>
[(E,6R)-6-[(2S,8S,9R,10R,13R,14S,16R,17R)-2,16-dihydroxy-9-(hydroxymethyl)-4,4,13,14-tetramethyl-3,11-dioxo-2,7,8,10,12,15,16,17-octahydro-1H-cyclopenta[a]phenanthren-17-yl]-6-hydroxy-2-methyl-5-oxohept-3-en-2-yl] acetate

> <PUBCHEM_IUPAC_SYSTEMATIC_NAME>
[(E,6R)-6-[(2S,8S,9R,10R,13R,14S,16R,17R)-9-(hydroxymethyl)-4,4,13,14-tetramethyl-2,16-bis(oxidanyl)-3,11-bis(oxidanylidene)-2,7,8,10,12,15,16,17-octahydro-1H-cyclopenta[a]phenanthren-17-yl]-2-methyl-6-oxidanyl-5-oxidanylidene-hept-3-en-2-yl] ethanoate

> <PUBCHEM_IUPAC_TRADITIONAL_NAME>
acetic acid [(E,5R)-5-[(2S,8S,9R,10R,13R,14S,16R,17R)-2,16-dihydroxy-3,11-diketo-4,4,13,14-tetramethyl-9-methylol-2,7,8,10,12,15,16,17-octahydro-1H-cyclopenta[a]phenanthren-17-yl]-5-hydroxy-4-keto-1,1-dimethyl-hex-2-enyl] ester

> <PUBCHEM_IUPAC_INCHI>
InChI=1S/C32H46O9/c1-17(34)41-27(2,3)12-11-23(37)31(8,40)25-21(36)14-29(6)22-10-9-18-19(13-20(35)26(39)28(18,4)5)32(22,16-33)24(38)15-30(25,29)7/h9,11-12,19-22,25,33,35-36,40H,10,13-16H2,1-8H3/b12-11+/t19-,20+,21-,22+,25+,29+,30-,31+,32+/m1/s1

> <PUBCHEM_IUPAC_INCHIKEY>
IHTCCHVMPGDDSL-IVNGUWCNSA-N

> <PUBCHEM_XLOGP3_AA>
2

> <PUBCHEM_EXACT_MASS>
574.314183

> <PUBCHEM_MOLECULAR_FORMULA>
C32H46O9

> <PUBCHEM_MOLECULAR_WEIGHT>
574.70224

> <PUBCHEM_OPENEYE_CAN_SMILES>
CC(=O)OC(C)(C)C=CC(=O)C(C)(C1C(CC2(C1(CC(=O)C3(C2CC=C4C3CC(C(=O)C4(C)C)O)CO)C)C)O)O

> <PUBCHEM_OPENEYE_ISO_SMILES>
CC(=O)OC(C)(C)/C=C/C(=O)[C@@](C)([C@H]1[C@@H](C[C@@]2([C@@]1(CC(=O)[C@@]3([C@H]2CC=C4[C@H]3C[C@@H](C(=O)C4(C)C)O)CO)C)C)O)O

> <PUBCHEM_CACTVS_TPSA>
158

> <PUBCHEM_MONOISOTOPIC_WEIGHT>
574.314183

> <PUBCHEM_TOTAL_CHARGE>
0

> <PUBCHEM_HEAVY_ATOM_COUNT>
41

> <PUBCHEM_ATOM_DEF_STEREO_COUNT>
9

> <PUBCHEM_ATOM_UDEF_STEREO_COUNT>
0

> <PUBCHEM_BOND_DEF_STEREO_COUNT>
1

> <PUBCHEM_BOND_UDEF_STEREO_COUNT>
0

> <PUBCHEM_ISOTOPIC_ATOM_COUNT>
0

> <PUBCHEM_COMPONENT_COUNT>
1

> <PUBCHEM_CACTVS_TAUTO_COUNT>
8

> <PUBCHEM_COORDINATE_TYPE>
1
5
255

> <PUBCHEM_BONDANNOTATIONS>
16  1  6
10  21  6
11  22  5
12  42  5
13  25  5
14  43  6
18  49  6
23  3  5
29  5  5

$$$$

