5280802
  -OEChem-07051212502D

 27 27  0     0  0  0  0  0  0999 V2000
    2.8660   -1.8450    0.0000 O   0  0  0  0  0  0  0  0  0  0  0  0
    6.3301   -1.8450    0.0000 O   0  0  0  0  0  0  0  0  0  0  0  0
    4.5981   -2.8450    0.0000 O   0  0  0  0  0  0  0  0  0  0  0  0
    6.3301    3.1550    0.0000 O   0  0  0  0  0  0  0  0  0  0  0  0
    4.5981    0.1550    0.0000 C   0  0  0  0  0  0  0  0  0  0  0  0
    3.7320   -1.3450    0.0000 C   0  0  0  0  0  0  0  0  0  0  0  0
    5.4641   -1.3450    0.0000 C   0  0  0  0  0  0  0  0  0  0  0  0
    4.5981   -1.8450    0.0000 C   0  0  0  0  0  0  0  0  0  0  0  0
    3.7320   -0.3450    0.0000 C   0  0  0  0  0  0  0  0  0  0  0  0
    5.4641   -0.3450    0.0000 C   0  0  0  0  0  0  0  0  0  0  0  0
    4.5981    1.1550    0.0000 C   0  0  0  0  0  0  0  0  0  0  0  0
    5.4641    1.6550    0.0000 C   0  0  0  0  0  0  0  0  0  0  0  0
    2.0000   -1.3450    0.0000 C   0  0  0  0  0  0  0  0  0  0  0  0
    7.1962   -1.3450    0.0000 C   0  0  0  0  0  0  0  0  0  0  0  0
    5.4641    2.6550    0.0000 C   0  0  0  0  0  0  0  0  0  0  0  0
    3.1951   -0.0350    0.0000 H   0  0  0  0  0  0  0  0  0  0  0  0
    6.0010   -0.0350    0.0000 H   0  0  0  0  0  0  0  0  0  0  0  0
    4.0611    1.4650    0.0000 H   0  0  0  0  0  0  0  0  0  0  0  0
    4.0611   -3.1550    0.0000 H   0  0  0  0  0  0  0  0  0  0  0  0
    6.0010    1.3450    0.0000 H   0  0  0  0  0  0  0  0  0  0  0  0
    2.3100   -0.8081    0.0000 H   0  0  0  0  0  0  0  0  0  0  0  0
    1.4631   -1.0350    0.0000 H   0  0  0  0  0  0  0  0  0  0  0  0
    1.6900   -1.8819    0.0000 H   0  0  0  0  0  0  0  0  0  0  0  0
    7.5062   -1.8819    0.0000 H   0  0  0  0  0  0  0  0  0  0  0  0
    7.7331   -1.0350    0.0000 H   0  0  0  0  0  0  0  0  0  0  0  0
    6.8862   -0.8081    0.0000 H   0  0  0  0  0  0  0  0  0  0  0  0
    4.9272    2.9650    0.0000 H   0  0  0  0  0  0  0  0  0  0  0  0
  1  6  1  0  0  0  0
  1 13  1  0  0  0  0
  2  7  1  0  0  0  0
  2 14  1  0  0  0  0
  3  8  1  0  0  0  0
  3 19  1  0  0  0  0
  4 15  2  0  0  0  0
  5  9  2  0  0  0  0
  5 10  1  0  0  0  0
  5 11  1  0  0  0  0
  6  8  2  0  0  0  0
  6  9  1  0  0  0  0
  7  8  1  0  0  0  0
  7 10  2  0  0  0  0
  9 16  1  0  0  0  0
 10 17  1  0  0  0  0
 11 12  2  0  0  0  0
 11 18  1  0  0  0  0
 12 15  1  0  0  0  0
 12 20  1  0  0  0  0
 13 21  1  0  0  0  0
 13 22  1  0  0  0  0
 13 23  1  0  0  0  0
 14 24  1  0  0  0  0
 14 25  1  0  0  0  0
 14 26  1  0  0  0  0
 15 27  1  0  0  0  0
M  END
> <PUBCHEM_COMPOUND_CID>
5280802

> <PUBCHEM_COMPOUND_CANONICALIZED>
1

> <PUBCHEM_CACTVS_COMPLEXITY>
213

> <PUBCHEM_CACTVS_HBOND_ACCEPTOR>
4

> <PUBCHEM_CACTVS_HBOND_DONOR>
1

> <PUBCHEM_CACTVS_ROTATABLE_BOND>
4

> <PUBCHEM_CACTVS_SUBSKEYS>
AAADccBwOAAAAAAAAAAAAAAAAAAAAAAAAAAwAAAAAAAAAAABAAAAGgAACAAADASgmAIyBoAABgCIAihSgAACCAAgIAAIiAAGiMgNJyKGMRqAcCMlwBULuYeA4BwOIAABCAAAQABAAAIQAACAAAAAAAAAAA==

> <PUBCHEM_IUPAC_OPENEYE_NAME>
(E)-3-(4-hydroxy-3,5-dimethoxy-phenyl)prop-2-enal

> <PUBCHEM_IUPAC_CAS_NAME>
(E)-3-(4-hydroxy-3,5-dimethoxyphenyl)-2-propenal

> <PUBCHEM_IUPAC_NAME>
(E)-3-(4-hydroxy-3,5-dimethoxyphenyl)prop-2-enal

> <PUBCHEM_IUPAC_SYSTEMATIC_NAME>
(E)-3-(3,5-dimethoxy-4-oxidanyl-phenyl)prop-2-enal

> <PUBCHEM_IUPAC_TRADITIONAL_NAME>
(E)-3-(4-hydroxy-3,5-dimethoxy-phenyl)acrolein

> <PUBCHEM_IUPAC_INCHI>
InChI=1S/C11H12O4/c1-14-9-6-8(4-3-5-12)7-10(15-2)11(9)13/h3-7,13H,1-2H3/b4-3+

> <PUBCHEM_IUPAC_INCHIKEY>
CDICDSOGTRCHMG-ONEGZZNKSA-N

> <PUBCHEM_XLOGP3_AA>
1.4

> <PUBCHEM_EXACT_MASS>
208.073559

> <PUBCHEM_MOLECULAR_FORMULA>
C11H12O4

> <PUBCHEM_MOLECULAR_WEIGHT>
208.21058

> <PUBCHEM_OPENEYE_CAN_SMILES>
COC1=CC(=CC(=C1O)OC)C=CC=O

> <PUBCHEM_OPENEYE_ISO_SMILES>
COC1=CC(=CC(=C1O)OC)/C=C/C=O

> <PUBCHEM_CACTVS_TPSA>
55.8

> <PUBCHEM_MONOISOTOPIC_WEIGHT>
208.073559

> <PUBCHEM_TOTAL_CHARGE>
0

> <PUBCHEM_HEAVY_ATOM_COUNT>
15

> <PUBCHEM_ATOM_DEF_STEREO_COUNT>
0

> <PUBCHEM_ATOM_UDEF_STEREO_COUNT>
0

> <PUBCHEM_BOND_DEF_STEREO_COUNT>
1

> <PUBCHEM_BOND_UDEF_STEREO_COUNT>
0

> <PUBCHEM_ISOTOPIC_ATOM_COUNT>
0

> <PUBCHEM_COMPONENT_COUNT>
1

> <PUBCHEM_CACTVS_TAUTO_COUNT>
5

> <PUBCHEM_COORDINATE_TYPE>
1
5
255

> <PUBCHEM_BONDANNOTATIONS>
5  10  8
5  9  8
6  8  8
6  9  8
7  10  8
7  8  8

$$$$

