   Color/Form

     * Dark brown crystals, with a coppery luster
     * BROWN CRYSTALS

   from [1]HSDB

   Odor
        Odorless
   from [2]HSDB

   Melting Point
        220 deg C
   from [3]HSDB

   Corrosivity
        Noncorrosive
   from [4]HSDB

   Density/Specific Gravity
        1.58 g/cu cm at 20 deg C
   from [5]HSDB

   Octanol/Water Partition Coefficient
        log Kow = 2.84
   from [6]HSDB

   Solubilities

     * Sol in dioxane, chlorobenzene
     * Soluble in acetone
     * Solubility = 12 g/L in chloroform, 10 g/L in acetone, and 8 g/L in
       benzene at 20 deg C; Sparingly soluble in methanol and
       dichloromethane
     * In water, 0.14 mg/L at 20 deg C

   from [7]HSDB

   Spectral Properties

     * Intense mass spectral peaks: 296 m/z (100%), 76 m/z (64%), 240 m/z
       (47%), 104 m/z (47%)
     * MASS: 53745 (NIST/EPA/MSDC Mass Spectral Database, 1990 Version)

   from [8]HSDB

   Vapor Pressure
        2.03X10-11 mm Hg at 25 deg C
   from [9]HSDB

   Other Chemical/Physical Properties

     * Soluble in water approx 0.05 ppm at room temp; light brown color
       /Technical product/
     * Decomposed by alkaline media, by concentrated acids, and by
       prolonged heating; DT50 12.2 hr (pH 7, 25 deg C).
     * Henry's Law constant = 5.7X10-11 atm-cu m/mol at 25 deg C (est)
     * Hydroxyl radical reaction rate constant = 2.0X10-11 cu
       cm/molecule-sec at 25 deg C (est)
     * Ozone reaction rate constant = 1.8X10-18 cu cm/molecule-sec at 25
       deg C (est)
     * Light brown color. Melting point 230 deg C. Solubility varies in
       organic solvents /Technical/

   from [10]HSDB

   Computed Properties
   Molecular Weight                  296.32376 [g/mol]
   Molecular Formula                 C[14]H[4]N[2]O[2]S[2]
   XLogP3                            2.8
   H-Bond Donor                      0
   H-Bond Acceptor                   6
   Rotatable Bond Count              0
   Exact Mass                        295.971419
   MonoIsotopic Mass                 295.971419
   Topological Polar Surface Area    132
   Heavy Atom Count                  20
   Formal Charge                     0
   Complexity                        629
   Isotope Atom Count                0
   Defined Atom Stereocenter Count   0
   Undefined Atom Stereocenter Count 0
   Defined Bond Stereocenter Count   0
   Undefined Bond Stereocenter Count 0
   Covalently-Bonded Unit Count      1
   Feature 3D Acceptor Count         4
   Feature 3D Ring Count             3
   Effective Rotor Count             0
   Conformer Sampling RMSD           0.6
   CID Conformer Count               [11]1

References

   1. http://toxnet.nlm.nih.gov/cgi-bin/sis/search/r?dbs+hsdb:@term+@rn+@rel+3347-22-6
   2. http://toxnet.nlm.nih.gov/cgi-bin/sis/search/r?dbs+hsdb:@term+@rn+@rel+3347-22-6
   3. http://toxnet.nlm.nih.gov/cgi-bin/sis/search/r?dbs+hsdb:@term+@rn+@rel+3347-22-6
   4. http://toxnet.nlm.nih.gov/cgi-bin/sis/search/r?dbs+hsdb:@term+@rn+@rel+3347-22-6
   5. http://toxnet.nlm.nih.gov/cgi-bin/sis/search/r?dbs+hsdb:@term+@rn+@rel+3347-22-6
   6. http://toxnet.nlm.nih.gov/cgi-bin/sis/search/r?dbs+hsdb:@term+@rn+@rel+3347-22-6
   7. http://toxnet.nlm.nih.gov/cgi-bin/sis/search/r?dbs+hsdb:@term+@rn+@rel+3347-22-6
   8. http://toxnet.nlm.nih.gov/cgi-bin/sis/search/r?dbs+hsdb:@term+@rn+@rel+3347-22-6
   9. http://toxnet.nlm.nih.gov/cgi-bin/sis/search/r?dbs+hsdb:@term+@rn+@rel+3347-22-6
  10. http://toxnet.nlm.nih.gov/cgi-bin/sis/search/r?dbs+hsdb:@term+@rn+@rel+3347-22-6
  11. http://pubchem.ncbi.nlm.nih.gov/vw3d/vw3d.cgi?cid=18771
