3034473
  -OEChem-07051213022D

 28 28  0     0  0  0  0  0  0999 V2000
    5.3122   -0.0652    0.0000 S   0  0  0  0  0  0  0  0  0  0  0  0
    8.4927    1.6331    0.0000 S   0  0  0  0  0  0  0  0  0  0  0  0
    7.9575   -0.0141    0.0000 N   0  0  0  0  0  0  0  0  0  0  0  0
    2.8090   -1.0131    0.0000 N   0  0  0  0  0  0  0  0  0  0  0  0
    2.3090    0.5257    0.0000 N   0  0  0  0  0  0  0  0  0  0  0  0
    9.6517    0.3460    0.0000 N   0  0  0  0  0  0  0  0  0  0  0  0
    6.2633   -0.3743    0.0000 C   0  0  0  0  0  0  0  0  0  0  0  0
    7.0064    0.2949    0.0000 C   0  0  0  0  0  0  0  0  0  0  0  0
    4.5691   -0.7344    0.0000 C   0  0  0  0  0  0  0  0  0  0  0  0
    3.6180   -0.4254    0.0000 C   0  0  0  0  0  0  0  0  0  0  0  0
    3.3090    0.5257    0.0000 C   0  0  0  0  0  0  0  0  0  0  0  0
    8.7006    0.6550    0.0000 C   0  0  0  0  0  0  0  0  0  0  0  0
    2.0000   -0.4254    0.0000 C   0  0  0  0  0  0  0  0  0  0  0  0
   10.3948    1.0151    0.0000 C   0  0  0  0  0  0  0  0  0  0  0  0
    5.9722   -0.9217    0.0000 H   0  0  0  0  0  0  0  0  0  0  0  0
    6.7519   -0.7560    0.0000 H   0  0  0  0  0  0  0  0  0  0  0  0
    7.2975    0.8423    0.0000 H   0  0  0  0  0  0  0  0  0  0  0  0
    6.5179    0.6766    0.0000 H   0  0  0  0  0  0  0  0  0  0  0  0
    4.2780   -1.2818    0.0000 H   0  0  0  0  0  0  0  0  0  0  0  0
    5.0577   -1.1161    0.0000 H   0  0  0  0  0  0  0  0  0  0  0  0
    8.0864   -0.6206    0.0000 H   0  0  0  0  0  0  0  0  0  0  0  0
    2.8090   -1.6331    0.0000 H   0  0  0  0  0  0  0  0  0  0  0  0
    3.6734    1.0273    0.0000 H   0  0  0  0  0  0  0  0  0  0  0  0
    1.4103   -0.6169    0.0000 H   0  0  0  0  0  0  0  0  0  0  0  0
    9.7806   -0.2605    0.0000 H   0  0  0  0  0  0  0  0  0  0  0  0
   10.8097    0.5544    0.0000 H   0  0  0  0  0  0  0  0  0  0  0  0
   10.8556    1.4300    0.0000 H   0  0  0  0  0  0  0  0  0  0  0  0
    9.9800    1.4759    0.0000 H   0  0  0  0  0  0  0  0  0  0  0  0
  1  7  1  0  0  0  0
  1  9  1  0  0  0  0
  2 12  2  0  0  0  0
  3  8  1  0  0  0  0
  3 12  1  0  0  0  0
  3 21  1  0  0  0  0
  4 10  1  0  0  0  0
  4 13  1  0  0  0  0
  4 22  1  0  0  0  0
  5 11  1  0  0  0  0
  5 13  2  0  0  0  0
  6 12  1  0  0  0  0
  6 14  1  0  0  0  0
  6 25  1  0  0  0  0
  7  8  1  0  0  0  0
  7 15  1  0  0  0  0
  7 16  1  0  0  0  0
  8 17  1  0  0  0  0
  8 18  1  0  0  0  0
  9 10  1  0  0  0  0
  9 19  1  0  0  0  0
  9 20  1  0  0  0  0
 10 11  2  0  0  0  0
 11 23  1  0  0  0  0
 13 24  1  0  0  0  0
 14 26  1  0  0  0  0
 14 27  1  0  0  0  0
 14 28  1  0  0  0  0
M  END
> <PUBCHEM_COMPOUND_CID>
3034473

> <PUBCHEM_COMPOUND_CANONICALIZED>
1

> <PUBCHEM_CACTVS_COMPLEXITY>
177

> <PUBCHEM_CACTVS_HBOND_ACCEPTOR>
3

> <PUBCHEM_CACTVS_HBOND_DONOR>
3

> <PUBCHEM_CACTVS_ROTATABLE_BOND>
5

> <PUBCHEM_CACTVS_SUBSKEYS>
AAADccBzgABgAAAAAAAAAAAAAAAAAWAAAAAAAAAAAAAAAAABgAAAHAQQAAAACAjFVgSvkBbJkAikARRnZAAAgC2RErkBUYA4cACASABgCQAUAAAIEAJgACAAAAAAAAAAAAAAAAAAAAAAAAAAAAAAAAAAAA==

> <PUBCHEM_IUPAC_OPENEYE_NAME>
1-[2-(1H-imidazol-5-ylmethylsulfanyl)ethyl]-3-methyl-thiourea

> <PUBCHEM_IUPAC_CAS_NAME>
1-[2-(1H-imidazol-5-ylmethylthio)ethyl]-3-methylthiourea

> <PUBCHEM_IUPAC_NAME>
1-[2-(1H-imidazol-5-ylmethylsulfanyl)ethyl]-3-methylthiourea

> <PUBCHEM_IUPAC_SYSTEMATIC_NAME>
1-[2-(1H-imidazol-5-ylmethylsulfanyl)ethyl]-3-methyl-thiourea

> <PUBCHEM_IUPAC_TRADITIONAL_NAME>
1-[2-(1H-imidazol-5-ylmethylthio)ethyl]-3-methyl-thiourea

> <PUBCHEM_IUPAC_INCHI>
InChI=1S/C8H14N4S2/c1-9-8(13)11-2-3-14-5-7-4-10-6-12-7/h4,6H,2-3,5H2,1H3,(H,10,12)(H2,9,11,13)

> <PUBCHEM_IUPAC_INCHIKEY>
XOJHLCFQADZPHU-UHFFFAOYSA-N

> <PUBCHEM_XLOGP3>
0.2

> <PUBCHEM_EXACT_MASS>
230.065988

> <PUBCHEM_MOLECULAR_FORMULA>
C8H14N4S2

> <PUBCHEM_MOLECULAR_WEIGHT>
230.35356

> <PUBCHEM_OPENEYE_CAN_SMILES>
CNC(=S)NCCSCC1=CN=CN1

> <PUBCHEM_OPENEYE_ISO_SMILES>
CNC(=S)NCCSCC1=CN=CN1

> <PUBCHEM_CACTVS_TPSA>
110

> <PUBCHEM_MONOISOTOPIC_WEIGHT>
230.065988

> <PUBCHEM_TOTAL_CHARGE>
0

> <PUBCHEM_HEAVY_ATOM_COUNT>
14

> <PUBCHEM_ATOM_DEF_STEREO_COUNT>
0

> <PUBCHEM_ATOM_UDEF_STEREO_COUNT>
0

> <PUBCHEM_BOND_DEF_STEREO_COUNT>
0

> <PUBCHEM_BOND_UDEF_STEREO_COUNT>
0

> <PUBCHEM_ISOTOPIC_ATOM_COUNT>
0

> <PUBCHEM_COMPONENT_COUNT>
1

> <PUBCHEM_CACTVS_TAUTO_COUNT>
6

> <PUBCHEM_COORDINATE_TYPE>
1
5
255

> <PUBCHEM_BONDANNOTATIONS>
10  11  8
4  10  8
4  13  8
5  11  8
5  13  8

$$$$

