9001
  -OEChem-07051213012D

 22 20  0     0  0  0  0  0  0999 V2000
    4.2690    1.5000    0.0000 S   0  0  0  0  0  0  0  0  0  0  0  0
    6.0010   -1.5000    0.0000 S   0  0  0  0  0  0  0  0  0  0  0  0
    5.1350    3.0000    0.0000 Na  0  3  0  0  0  0  0  0  0  0  0  0
    6.8671   -3.0000    0.0000 Na  0  3  0  0  0  0  0  0  0  0  0  0
    2.5369    0.5000    0.0000 O   0  0  0  0  0  0  0  0  0  0  0  0
    2.5369   -1.5000    0.0000 O   0  0  0  0  0  0  0  0  0  0  0  0
    4.2690    2.5000    0.0000 O   0  5  0  0  0  0  0  0  0  0  0  0
    5.2690    1.5000    0.0000 O   0  0  0  0  0  0  0  0  0  0  0  0
    3.2690    1.5000    0.0000 O   0  0  0  0  0  0  0  0  0  0  0  0
    6.8671   -2.0000    0.0000 O   0  5  0  0  0  0  0  0  0  0  0  0
    5.5010   -2.3660    0.0000 O   0  0  0  0  0  0  0  0  0  0  0  0
    6.5010   -0.6340    0.0000 O   0  0  0  0  0  0  0  0  0  0  0  0
    4.2690    0.5000    0.0000 C   0  0  0  0  0  0  0  0  0  0  0  0
    5.1350   -1.0000    0.0000 C   0  0  0  0  0  0  0  0  0  0  0  0
    5.1350    0.0000    0.0000 C   0  0  0  0  0  0  0  0  0  0  0  0
    3.4030    0.0000    0.0000 C   0  0  0  0  0  0  0  0  0  0  0  0
    4.2690   -1.5000    0.0000 C   0  0  0  0  0  0  0  0  0  0  0  0
    3.4030   -1.0000    0.0000 C   0  0  0  0  0  0  0  0  0  0  0  0
    5.6720    0.3100    0.0000 H   0  0  0  0  0  0  0  0  0  0  0  0
    4.2690   -2.1200    0.0000 H   0  0  0  0  0  0  0  0  0  0  0  0
    2.0000    0.1900    0.0000 H   0  0  0  0  0  0  0  0  0  0  0  0
    2.5369   -2.1200    0.0000 H   0  0  0  0  0  0  0  0  0  0  0  0
  1  7  1  0  0  0  0
  1  8  2  0  0  0  0
  1  9  2  0  0  0  0
  1 13  1  0  0  0  0
  2 10  1  0  0  0  0
  2 11  2  0  0  0  0
  2 12  2  0  0  0  0
  2 14  1  0  0  0  0
  5 16  1  0  0  0  0
  5 21  1  0  0  0  0
  6 18  1  0  0  0  0
  6 22  1  0  0  0  0
 13 15  2  0  0  0  0
 13 16  1  0  0  0  0
 14 15  1  0  0  0  0
 14 17  2  0  0  0  0
 15 19  1  0  0  0  0
 16 18  2  0  0  0  0
 17 18  1  0  0  0  0
 17 20  1  0  0  0  0
M  CHG  4   3   1   4   1   7  -1  10  -1
M  END
> <PUBCHEM_COMPOUND_CID>
9001

> <PUBCHEM_COMPOUND_CANONICALIZED>
1

> <PUBCHEM_CACTVS_COMPLEXITY>
413

> <PUBCHEM_CACTVS_HBOND_ACCEPTOR>
8

> <PUBCHEM_CACTVS_HBOND_DONOR>
2

> <PUBCHEM_CACTVS_ROTATABLE_BOND>
0

> <PUBCHEM_CACTVS_SUBSKEYS>
AAADcYBgPDBgAAAAAAAAAAAAAAAAAAAAAAAwAAAAAAAAAAABAAAAGgQACAAACASA0AAwB4AAAgKAACBCAHBCAEAgIAAAiBoGiIgJJiKCERKAcAEkwBEJmAeAQAAAAIAABEAAYAABAAAIgADAAAAAAAAAAA==

> <PUBCHEM_IUPAC_OPENEYE_NAME>
disodium 4,5-dihydroxybenzene-1,3-disulfonate

> <PUBCHEM_IUPAC_CAS_NAME>
disodium 4,5-dihydroxybenzene-1,3-disulfonate

> <PUBCHEM_IUPAC_NAME>
disodium 4,5-dihydroxybenzene-1,3-disulfonate

> <PUBCHEM_IUPAC_SYSTEMATIC_NAME>
disodium 4,5-bis(oxidanyl)benzene-1,3-disulfonate

> <PUBCHEM_IUPAC_TRADITIONAL_NAME>
disodium 4,5-dihydroxybenzene-1,3-disulfonate

> <PUBCHEM_IUPAC_INCHI>
InChI=1S/C6H6O8S2.2Na/c7-4-1-3(15(9,10)11)2-5(6(4)8)16(12,13)14;;/h1-2,7-8H,(H,9,10,11)(H,12,13,14);;/q;2*+1/p-2

> <PUBCHEM_IUPAC_INCHIKEY>
ISWQCIVKKSOKNN-UHFFFAOYSA-L

> <PUBCHEM_EXACT_MASS>
313.914298

> <PUBCHEM_MOLECULAR_FORMULA>
C6H4Na2O8S2

> <PUBCHEM_MOLECULAR_WEIGHT>
314.200699

> <PUBCHEM_OPENEYE_CAN_SMILES>
C1=C(C=C(C(=C1S(=O)(=O)[O-])O)O)S(=O)(=O)[O-].[Na+].[Na+]

> <PUBCHEM_OPENEYE_ISO_SMILES>
C1=C(C=C(C(=C1S(=O)(=O)[O-])O)O)S(=O)(=O)[O-].[Na+].[Na+]

> <PUBCHEM_CACTVS_TPSA>
172

> <PUBCHEM_MONOISOTOPIC_WEIGHT>
313.914298

> <PUBCHEM_TOTAL_CHARGE>
0

> <PUBCHEM_HEAVY_ATOM_COUNT>
18

> <PUBCHEM_ATOM_DEF_STEREO_COUNT>
0

> <PUBCHEM_ATOM_UDEF_STEREO_COUNT>
0

> <PUBCHEM_BOND_DEF_STEREO_COUNT>
0

> <PUBCHEM_BOND_UDEF_STEREO_COUNT>
0

> <PUBCHEM_ISOTOPIC_ATOM_COUNT>
0

> <PUBCHEM_COMPONENT_COUNT>
3

> <PUBCHEM_CACTVS_TAUTO_COUNT>
8

> <PUBCHEM_COORDINATE_TYPE>
1
5
255

> <PUBCHEM_BONDANNOTATIONS>
13  15  8
13  16  8
14  15  8
14  17  8
16  18  8
17  18  8

$$$$

