   Color/Form
        Colorless to pale straw-colored liquid
   from [1]HSDB

   Odor
        Sweet, pleasant
   from [2]HSDB

   Boiling Point
        194.1 deg C
   from [3]HSDB

   Melting Point
        -35.6 deg C
   from [4]HSDB

   Density/Specific Gravity
        1.0490 g/ cu cm at 25 deg C
   from [5]HSDB

   Octanol/Water Partition Coefficient
        log Kow = 1.61
   from [6]HSDB

   Solubilities

     * Completely soluble in acetone, benzene, carbon tetrachloride, ethyl
       ether, heptane, methanol
     * 0.3% wt in water

   from [7]HSDB

   Spectral Properties

     * MAX ABSORPTION (ALCOHOL): 250 NM SHOULDER (LOG E= 2.2); 254 NM (LOG
       E= 2.24); 260 NM (LOG E= 2.28); 265 NM SHOULDER (LOG E= 2.10);
       SADTLER REFERENCE NUMBER: 9730 (IR, PRISM), 10788 (IR, GRATING)
     * Index of refraction: 1.5342 at 20 deg C/D
     * IR: 5790 (Coblentz Society Spectral Collection)
     * UV: 2303 (Sadtler Research Laboratories Spectral Collection)
     * 1H NMR: 193 (Varian Associates NMR Spectra Catalogue)
     * 13C NMR: 289 (Johnson and Jankowski, Carbon-13 NMR Spectra, John
       Wiley & Sons, New York)
     * RAMAN: 288 (Sadtler Research Laboratories Spectral Collection)
     * MASS: 63990 (NIST/EPA/MSDC Mass Spectral Database 1990 version)

   from [8]HSDB

   Vapor Density
        4.30 (Air = 1)
   from [9]HSDB

   Vapor Pressure
        0.3 mm Hg at 20 deg C
   from [10]HSDB

   Viscosity
        1.99 cP at 20 deg C
   from [11]HSDB

   Other Chemical/Physical Properties

     * Conversion factors: 1 ppm = 4.91 mg/cu m, and 1 mg/L = 203.6 ppm at
       25 deg C, 760 mm Hg
     * Exists as two optical isomers; the commercial product is a racemic
       mixture; polymerizes exothermically; react vigorously with
       compounds having a labile hydrogen, including water, in the
       presence of catalysts such as acids, bases, and certain salts
     * Styrene oxide (98 mole % pure) is available in USA with following
       specifications: density, 1.0490-1.0515 (25/25 deg C); distillation
       range at 760 mm: fraction between 5 and 95% by vol shall boil
       within 3.0 deg C range, which includes temp 194.1 deg C; water,
       0.25% by wt.

   from [12]HSDB

   Computed Properties
   Molecular Weight                  120.14852 [g/mol]
   Molecular Formula                 C[8]H[8]O
   XLogP3                            1.6
   H-Bond Donor                      0
   H-Bond Acceptor                   1
   Rotatable Bond Count              1
   Exact Mass                        120.057515
   MonoIsotopic Mass                 120.057515
   Topological Polar Surface Area    12.5
   Heavy Atom Count                  9
   Formal Charge                     0
   Complexity                        94.7
   Isotope Atom Count                0
   Defined Atom Stereocenter Count   0
   Undefined Atom Stereocenter Count 1
   Defined Bond Stereocenter Count   0
   Undefined Bond Stereocenter Count 0
   Covalently-Bonded Unit Count      1
   Feature 3D Acceptor Count         1
   Feature 3D Ring Count             1
   Effective Rotor Count             1.6
   Conformer Sampling RMSD           0.4
   CID Conformer Count               [13]2

References

   1. http://toxnet.nlm.nih.gov/cgi-bin/sis/search/r?dbs+hsdb:@term+@rn+@rel+96-09-3
   2. http://toxnet.nlm.nih.gov/cgi-bin/sis/search/r?dbs+hsdb:@term+@rn+@rel+96-09-3
   3. http://toxnet.nlm.nih.gov/cgi-bin/sis/search/r?dbs+hsdb:@term+@rn+@rel+96-09-3
   4. http://toxnet.nlm.nih.gov/cgi-bin/sis/search/r?dbs+hsdb:@term+@rn+@rel+96-09-3
   5. http://toxnet.nlm.nih.gov/cgi-bin/sis/search/r?dbs+hsdb:@term+@rn+@rel+96-09-3
   6. http://toxnet.nlm.nih.gov/cgi-bin/sis/search/r?dbs+hsdb:@term+@rn+@rel+96-09-3
   7. http://toxnet.nlm.nih.gov/cgi-bin/sis/search/r?dbs+hsdb:@term+@rn+@rel+96-09-3
   8. http://toxnet.nlm.nih.gov/cgi-bin/sis/search/r?dbs+hsdb:@term+@rn+@rel+96-09-3
   9. http://toxnet.nlm.nih.gov/cgi-bin/sis/search/r?dbs+hsdb:@term+@rn+@rel+96-09-3
  10. http://toxnet.nlm.nih.gov/cgi-bin/sis/search/r?dbs+hsdb:@term+@rn+@rel+96-09-3
  11. http://toxnet.nlm.nih.gov/cgi-bin/sis/search/r?dbs+hsdb:@term+@rn+@rel+96-09-3
  12. http://toxnet.nlm.nih.gov/cgi-bin/sis/search/r?dbs+hsdb:@term+@rn+@rel+96-09-3
  13. http://pubchem.ncbi.nlm.nih.gov/vw3d/vw3d.cgi?cid=7276
