   Color/Form
        Colorless crystalline solid
   from [1]HSDB

   Melting Point
        76-77 deg C
   from [2]HSDB

   Octanol/Water Partition Coefficient
        Log Kow = 1.70
   from [3]HSDB

   Solubilities

     * 2.6 g/l water at 30 deg C
     * Soluble in polar organic solvents (eg, cyclohexanone 790 g/kg at 30
       deg C, xylene 100 g/kg at 30 deg C)
     * Sparingly soluble in non-polar solvents
     * 880 g/kg methanol at room temperature

   from [4]HSDB

   Vapor Pressure
        1X10-5 mm Hg at 25 deg C
   from [5]HSDB

   Other Chemical/Physical Properties
        Easily hydrolyzed in basic media; stable in a solution at pH < 6;
   half-life at pH 9 is 6 hours in seawater and 2.8 hours in freshwater.
   from [6]HSDB

   Computed Properties
   Molecular Weight                  165.18914 [g/mol]
   Molecular Formula                 C[9]H[11]NO[2]
   XLogP3                            1.7
   H-Bond Donor                      1
   H-Bond Acceptor                   2
   Rotatable Bond Count              2
   Tautomer Count                    2
   Exact Mass                        165.078979
   MonoIsotopic Mass                 165.078979
   Topological Polar Surface Area    38.3
   Heavy Atom Count                  12
   Formal Charge                     0
   Complexity                        159
   Isotope Atom Count                0
   Defined Atom Stereocenter Count   0
   Undefined Atom Stereocenter Count 0
   Defined Bond Stereocenter Count   0
   Undefined Bond Stereocenter Count 0
   Covalently-Bonded Unit Count      1
   Feature 3D Acceptor Count         1
   Feature 3D Donor Count            1
   Feature 3D Ring Count             1
   Effective Rotor Count             3
   Conformer Sampling RMSD           0.6
   CID Conformer Count               [7]25

References

   1. http://toxnet.nlm.nih.gov/cgi-bin/sis/search/r?dbs+hsdb:@term+@rn+@rel+1129-41-5
   2. http://toxnet.nlm.nih.gov/cgi-bin/sis/search/r?dbs+hsdb:@term+@rn+@rel+1129-41-5
   3. http://toxnet.nlm.nih.gov/cgi-bin/sis/search/r?dbs+hsdb:@term+@rn+@rel+1129-41-5
   4. http://toxnet.nlm.nih.gov/cgi-bin/sis/search/r?dbs+hsdb:@term+@rn+@rel+1129-41-5
   5. http://toxnet.nlm.nih.gov/cgi-bin/sis/search/r?dbs+hsdb:@term+@rn+@rel+1129-41-5
   6. http://toxnet.nlm.nih.gov/cgi-bin/sis/search/r?dbs+hsdb:@term+@rn+@rel+1129-41-5
   7. http://pubchem.ncbi.nlm.nih.gov/vw3d/vw3d.cgi?cid=14322
