   Color/Form

     * White amorphous powder
     * White, crystalline powder
     * Two crystalline modifications are known, the high temperature
       alpha- and the low-temperature beta-form, transition temperature
       110 deg C.
     * Rhombohedral crystals /Whitlockite/

   from [1]HSDB

   Odor
        Odorless
   from [2]HSDB

   Taste
        Tasteless
   from [3]HSDB

   Melting Point
        1670 deg C
   from [4]HSDB

   Density/Specific Gravity
        3.14 g/cu cm
   from [5]HSDB

   Solubilities

     * Practically insol in alcohol and acetic acid; sol in dilute
       hydrochloric acid, nitric acid
     * Solubility in cold water: 2 mg/100 cc
     * 2.5 mg/100 g water at 25 deg C

   from [6]HSDB

   Spectral Properties
        INDEX OF REFRACTION: 1.629, 1.626
   from [7]HSDB

   Other Chemical/Physical Properties
        DECOMP IN HOT WATER
   from [8]HSDB

   Computed Properties
   Molecular Weight                  310.176724 [g/mol]
   Molecular Formula                 Ca[3]O[8]P[2]
   H-Bond Donor                      0
   H-Bond Acceptor                   8
   Rotatable Bond Count              0
   Exact Mass                        309.794613
   MonoIsotopic Mass                 309.794613
   Topological Polar Surface Area    173
   Heavy Atom Count                  13
   Formal Charge                     0
   Complexity                        36.8
   Isotope Atom Count                0
   Defined Atom Stereocenter Count   0
   Undefined Atom Stereocenter Count 0
   Defined Bond Stereocenter Count   0
   Undefined Bond Stereocenter Count 0
   Covalently-Bonded Unit Count      5

References

   1. http://toxnet.nlm.nih.gov/cgi-bin/sis/search/r?dbs+hsdb:@term+@rn+@rel+7758-87-4
   2. http://toxnet.nlm.nih.gov/cgi-bin/sis/search/r?dbs+hsdb:@term+@rn+@rel+7758-87-4
   3. http://toxnet.nlm.nih.gov/cgi-bin/sis/search/r?dbs+hsdb:@term+@rn+@rel+7758-87-4
   4. http://toxnet.nlm.nih.gov/cgi-bin/sis/search/r?dbs+hsdb:@term+@rn+@rel+7758-87-4
   5. http://toxnet.nlm.nih.gov/cgi-bin/sis/search/r?dbs+hsdb:@term+@rn+@rel+7758-87-4
   6. http://toxnet.nlm.nih.gov/cgi-bin/sis/search/r?dbs+hsdb:@term+@rn+@rel+7758-87-4
   7. http://toxnet.nlm.nih.gov/cgi-bin/sis/search/r?dbs+hsdb:@term+@rn+@rel+7758-87-4
   8. http://toxnet.nlm.nih.gov/cgi-bin/sis/search/r?dbs+hsdb:@term+@rn+@rel+7758-87-4
