656666
  -OEChem-07051213032D

 74 77  0     1  0  0  0  0  0999 V2000
    7.0526   -4.4395    0.0000 I   4  0  0  0  0  0  0  0  0  0  0  0
    2.5357   -2.9259    0.0000 O   0  0  0  0  0  0  0  0  0  0  0  0
    7.9288    0.1264    0.0000 C   0  0  1  0  0  0  0  0  0  0  0  0
    7.9288   -0.8736    0.0000 C   0  0  2  0  0  0  0  0  0  0  0  0
    7.0628   -1.3736    0.0000 C   0  0  1  0  0  0  0  0  0  0  0  0
    8.8750    0.4312    0.0000 C   0  0  2  0  0  0  0  0  0  0  0  0
    6.1968   -0.8736    0.0000 C   0  0  2  0  0  0  0  0  0  0  0  0
    7.0628    0.6264    0.0000 C   0  0  0  0  0  0  0  0  0  0  0  0
    8.8750   -1.1783    0.0000 C   0  0  0  0  0  0  0  0  0  0  0  0
    9.4586   -0.3736    0.0000 C   0  0  0  0  0  0  0  0  0  0  0  0
    6.1968    0.1264    0.0000 C   0  0  0  0  0  0  0  0  0  0  0  0
    7.0789   -2.4151    0.0000 C   0  0  0  0  0  0  0  0  0  0  0  0
    9.1857    1.3817    0.0000 C   0  0  1  0  0  0  0  0  0  0  0  0
    7.9288    1.1264    0.0000 C   0  0  0  0  0  0  0  0  0  0  0  0
    5.2868   -1.3804    0.0000 C   0  0  0  0  0  0  0  0  0  0  0  0
    6.1808   -2.9428    0.0000 C   0  0  2  0  0  0  0  0  0  0  0  0
    5.2787   -2.4220    0.0000 C   0  0  0  0  0  0  0  0  0  0  0  0
    4.3599   -0.8163    0.0000 C   0  0  0  0  0  0  0  0  0  0  0  0
   10.1642    1.5879    0.0000 C   0  0  0  0  0  0  0  0  0  0  0  0
    4.3433   -2.9717    0.0000 C   0  0  0  0  0  0  0  0  0  0  0  0
    8.5179    2.1260    0.0000 C   0  0  0  0  0  0  0  0  0  0  0  0
    6.1847   -3.9428    0.0000 C   0  0  0  0  0  0  0  0  0  0  0  0
    3.4120   -1.3443    0.0000 C   0  0  0  0  0  0  0  0  0  0  0  0
    3.4037   -2.4292    0.0000 C   0  0  2  0  0  0  0  0  0  0  0  0
   10.4749    2.5384    0.0000 C   0  0  0  0  0  0  0  0  0  0  0  0
   11.4534    2.7446    0.0000 C   0  0  0  0  0  0  0  0  0  0  0  0
   11.7640    3.6952    0.0000 C   0  0  0  0  0  0  0  0  0  0  0  0
   12.7425    3.9014    0.0000 C   0  0  0  0  0  0  0  0  0  0  0  0
   11.0962    4.4395    0.0000 C   0  0  0  0  0  0  0  0  0  0  0  0
    8.0188   -1.7188    0.0000 H   0  0  0  0  0  0  0  0  0  0  0  0
    7.8022   -1.7929    0.0000 H   0  0  0  0  0  0  0  0  0  0  0  0
    9.7148    0.5631    0.0000 H   0  0  0  0  0  0  0  0  0  0  0  0
    6.9329   -0.4486    0.0000 H   0  0  0  0  0  0  0  0  0  0  0  0
    7.4613    1.1014    0.0000 H   0  0  0  0  0  0  0  0  0  0  0  0
    6.6643    1.1014    0.0000 H   0  0  0  0  0  0  0  0  0  0  0  0
    8.6240   -1.7452    0.0000 H   0  0  0  0  0  0  0  0  0  0  0  0
    9.4124   -1.4875    0.0000 H   0  0  0  0  0  0  0  0  0  0  0  0
    9.9195   -0.7883    0.0000 H   0  0  0  0  0  0  0  0  0  0  0  0
    9.9195    0.0412    0.0000 H   0  0  0  0  0  0  0  0  0  0  0  0
    5.9847    0.7090    0.0000 H   0  0  0  0  0  0  0  0  0  0  0  0
    5.5862    0.0188    0.0000 H   0  0  0  0  0  0  0  0  0  0  0  0
    7.2969   -2.9955    0.0000 H   0  0  0  0  0  0  0  0  0  0  0  0
    7.6880   -2.2996    0.0000 H   0  0  0  0  0  0  0  0  0  0  0  0
    9.3783    1.9710    0.0000 H   0  0  0  0  0  0  0  0  0  0  0  0
    8.5488    1.1264    0.0000 H   0  0  0  0  0  0  0  0  0  0  0  0
    7.9288    1.7464    0.0000 H   0  0  0  0  0  0  0  0  0  0  0  0
    7.3088    1.1264    0.0000 H   0  0  0  0  0  0  0  0  0  0  0  0
    6.7195   -3.2497    0.0000 H   0  0  0  0  0  0  0  0  0  0  0  0
    4.7681   -0.3497    0.0000 H   0  0  0  0  0  0  0  0  0  0  0  0
    3.9700   -0.3343    0.0000 H   0  0  0  0  0  0  0  0  0  0  0  0
   10.1848    0.9683    0.0000 H   0  0  0  0  0  0  0  0  0  0  0  0
   10.7780    1.5006    0.0000 H   0  0  0  0  0  0  0  0  0  0  0  0
    3.9460   -3.4477    0.0000 H   0  0  0  0  0  0  0  0  0  0  0  0
    4.7443   -3.4446    0.0000 H   0  0  0  0  0  0  0  0  0  0  0  0
    8.9793    2.5401    0.0000 H   0  0  0  0  0  0  0  0  0  0  0  0
    8.1038    2.5875    0.0000 H   0  0  0  0  0  0  0  0  0  0  0  0
    8.0564    1.7119    0.0000 H   0  0  0  0  0  0  0  0  0  0  0  0
    5.5737   -3.8375    0.0000 H   0  0  0  0  0  0  0  0  0  0  0  0
    5.9749   -4.5262    0.0000 H   0  0  0  0  0  0  0  0  0  0  0  0
    3.2075   -0.7590    0.0000 H   0  0  0  0  0  0  0  0  0  0  0  0
    2.8004   -1.4457    0.0000 H   0  0  0  0  0  0  0  0  0  0  0  0
    2.8686   -2.1161    0.0000 H   0  0  0  0  0  0  0  0  0  0  0  0
   10.4543    3.1581    0.0000 H   0  0  0  0  0  0  0  0  0  0  0  0
    9.8611    2.6258    0.0000 H   0  0  0  0  0  0  0  0  0  0  0  0
   11.4739    2.1250    0.0000 H   0  0  0  0  0  0  0  0  0  0  0  0
   12.0672    2.6573    0.0000 H   0  0  0  0  0  0  0  0  0  0  0  0
    2.0000   -2.6138    0.0000 H   0  0  0  0  0  0  0  0  0  0  0  0
   12.1781    3.2337    0.0000 H   0  0  0  0  0  0  0  0  0  0  0  0
   12.8704    3.2947    0.0000 H   0  0  0  0  0  0  0  0  0  0  0  0
   13.3492    4.0292    0.0000 H   0  0  0  0  0  0  0  0  0  0  0  0
   12.6147    4.5081    0.0000 H   0  0  0  0  0  0  0  0  0  0  0  0
   11.5577    4.8535    0.0000 H   0  0  0  0  0  0  0  0  0  0  0  0
   10.6821    4.9009    0.0000 H   0  0  0  0  0  0  0  0  0  0  0  0
   10.6347    4.0254    0.0000 H   0  0  0  0  0  0  0  0  0  0  0  0
  1 22  1  0  0  0  0
 24  2  1  1  0  0  0
  2 67  1  0  0  0  0
  3  4  1  0  0  0  0
  3  6  1  0  0  0  0
  3  8  1  0  0  0  0
  3 14  1  1  0  0  0
  4  5  1  0  0  0  0
  4  9  1  0  0  0  0
  4 30  1  6  0  0  0
  5  7  1  0  0  0  0
  5 12  1  0  0  0  0
  5 31  1  1  0  0  0
  6 10  1  0  0  0  0
  6 13  1  0  0  0  0
  6 32  1  6  0  0  0
  7 11  1  0  0  0  0
  7 15  1  0  0  0  0
  7 33  1  6  0  0  0
  8 11  1  0  0  0  0
  8 34  1  0  0  0  0
  8 35  1  0  0  0  0
  9 10  1  0  0  0  0
  9 36  1  0  0  0  0
  9 37  1  0  0  0  0
 10 38  1  0  0  0  0
 10 39  1  0  0  0  0
 11 40  1  0  0  0  0
 11 41  1  0  0  0  0
 12 16  1  0  0  0  0
 12 42  1  0  0  0  0
 12 43  1  0  0  0  0
 13 19  1  0  0  0  0
 13 21  1  6  0  0  0
 13 44  1  0  0  0  0
 14 45  1  0  0  0  0
 14 46  1  0  0  0  0
 14 47  1  0  0  0  0
 15 17  2  0  0  0  0
 15 18  1  0  0  0  0
 16 17  1  0  0  0  0
 16 22  1  1  0  0  0
 16 48  1  0  0  0  0
 17 20  1  0  0  0  0
 18 23  1  0  0  0  0
 18 49  1  0  0  0  0
 18 50  1  0  0  0  0
 19 25  1  0  0  0  0
 19 51  1  0  0  0  0
 19 52  1  0  0  0  0
 20 24  1  0  0  0  0
 20 53  1  0  0  0  0
 20 54  1  0  0  0  0
 21 55  1  0  0  0  0
 21 56  1  0  0  0  0
 21 57  1  0  0  0  0
 22 58  1  0  0  0  0
 22 59  1  0  0  0  0
 23 24  1  0  0  0  0
 23 60  1  0  0  0  0
 23 61  1  0  0  0  0
 24 62  1  0  0  0  0
 25 26  1  0  0  0  0
 25 63  1  0  0  0  0
 25 64  1  0  0  0  0
 26 27  1  0  0  0  0
 26 65  1  0  0  0  0
 26 66  1  0  0  0  0
 27 28  1  0  0  0  0
 27 29  1  0  0  0  0
 27 68  1  0  0  0  0
 28 69  1  0  0  0  0
 28 70  1  0  0  0  0
 28 71  1  0  0  0  0
 29 72  1  0  0  0  0
 29 73  1  0  0  0  0
 29 74  1  0  0  0  0
M  ISO  1   1 131
M  END
> <PUBCHEM_COMPOUND_CID>
656666

> <PUBCHEM_COMPOUND_CANONICALIZED>
1

> <PUBCHEM_CACTVS_COMPLEXITY>
610

> <PUBCHEM_CACTVS_HBOND_ACCEPTOR>
1

> <PUBCHEM_CACTVS_HBOND_DONOR>
1

> <PUBCHEM_CACTVS_ROTATABLE_BOND>
6

> <PUBCHEM_CACTVS_SUBSKEYS>
AAADcfB4IAAAAgAAAAAAAAAAAAAAAYAAAAAwQIAAAAAAAGDAAAAAGgAgCAAADxSigAICAAAAAgCAAgBAAAAAAAAgAAAACAAAAAgAEAIAAAAAQAAEwAAIAAOAwPAPgAAAAAAAAACAAAQAACAAAQAACAAAAA==

> <PUBCHEM_IUPAC_OPENEYE_NAME>
(3S,6R,8S,9S,13R,14S,17R)-17-[(1R)-1,5-dimethylhexyl]-6-(iodanylmethyl)-13-methyl-1,2,3,4,6,7,8,9,11,12,14,15,16,17-tetradecahydrocyclopenta[a]phenanthren-3-ol

> <PUBCHEM_IUPAC_CAS_NAME>
(3S,6R,8S,9S,13R,14S,17R)-6-(iodanylmethyl)-13-methyl-17-[(2R)-6-methylheptan-2-yl]-1,2,3,4,6,7,8,9,11,12,14,15,16,17-tetradecahydrocyclopenta[a]phenanthren-3-ol

> <PUBCHEM_IUPAC_NAME>
(3S,6R,8S,9S,13R,14S,17R)-6-(iodanylmethyl)-13-methyl-17-[(2R)-6-methylheptan-2-yl]-1,2,3,4,6,7,8,9,11,12,14,15,16,17-tetradecahydrocyclopenta[a]phenanthren-3-ol

> <PUBCHEM_IUPAC_SYSTEMATIC_NAME>
(3S,6R,8S,9S,13R,14S,17R)-6-(iodanylmethyl)-13-methyl-17-[(2R)-6-methylheptan-2-yl]-1,2,3,4,6,7,8,9,11,12,14,15,16,17-tetradecahydrocyclopenta[a]phenanthren-3-ol

> <PUBCHEM_IUPAC_TRADITIONAL_NAME>
(3S,6R,8S,9S,13R,14S,17R)-17-[(1R)-1,5-dimethylhexyl]-6-(iodanylmethyl)-13-methyl-1,2,3,4,6,7,8,9,11,12,14,15,16,17-tetradecahydrocyclopenta[a]phenanthren-3-ol

> <PUBCHEM_IUPAC_INCHI>
InChI=1S/C27H45IO/c1-17(2)6-5-7-18(3)25-10-11-26-24-14-19(16-28)23-15-20(29)8-9-21(23)22(24)12-13-27(25,26)4/h17-20,22,24-26,29H,5-16H2,1-4H3/t18-,19+,20+,22-,24-,25-,26+,27-/m1/s1/i28+4

> <PUBCHEM_IUPAC_INCHIKEY>
QJHZPCLORSPENH-DRTKWHMQSA-N

> <PUBCHEM_XLOGP3_AA>
8.8

> <PUBCHEM_EXACT_MASS>
516.253166

> <PUBCHEM_MOLECULAR_FORMULA>
C27H45IO

> <PUBCHEM_MOLECULAR_WEIGHT>
516.551725

> <PUBCHEM_OPENEYE_CAN_SMILES>
CC(C)CCCC(C)C1CCC2C1(CCC3C2CC(C4=C3CCC(C4)O)CI)C

> <PUBCHEM_OPENEYE_ISO_SMILES>
C[C@H](CCCC(C)C)[C@H]1CC[C@@H]2[C@@]1(CC[C@H]3[C@H]2C[C@H](C4=C3CC[C@@H](C4)O)C[131I])C

> <PUBCHEM_CACTVS_TPSA>
20.2

> <PUBCHEM_MONOISOTOPIC_WEIGHT>
516.253166

> <PUBCHEM_TOTAL_CHARGE>
0

> <PUBCHEM_HEAVY_ATOM_COUNT>
29

> <PUBCHEM_ATOM_DEF_STEREO_COUNT>
8

> <PUBCHEM_ATOM_UDEF_STEREO_COUNT>
0

> <PUBCHEM_BOND_DEF_STEREO_COUNT>
0

> <PUBCHEM_BOND_UDEF_STEREO_COUNT>
0

> <PUBCHEM_ISOTOPIC_ATOM_COUNT>
1

> <PUBCHEM_COMPONENT_COUNT>
1

> <PUBCHEM_CACTVS_TAUTO_COUNT>
1

> <PUBCHEM_COORDINATE_TYPE>
1
5
255

> <PUBCHEM_BONDANNOTATIONS>
13  21  6
16  22  5
24  2  5
3  14  5
4  30  6
5  31  5
6  32  6
7  33  6

$$$$

