440038
  -OEChem-07051212482D

 40 40  0     1  0  0  0  0  0999 V2000
    7.1962    0.2890    0.0000 O   0  0  0  0  0  0  0  0  0  0  0  0
    9.7942   -1.2110    0.0000 O   0  0  0  0  0  0  0  0  0  0  0  0
    6.3301   -2.2110    0.0000 O   0  0  0  0  0  0  0  0  0  0  0  0
    7.5622    1.6550    0.0000 O   0  0  0  0  0  0  0  0  0  0  0  0
    5.4641    0.2890    0.0000 O   0  0  0  0  0  0  0  0  0  0  0  0
    3.7320   -0.7110    0.0000 O   0  0  0  0  0  0  0  0  0  0  0  0
    9.5622    1.6550    0.0000 O   0  0  0  0  0  0  0  0  0  0  0  0
    8.0622    2.5210    0.0000 O   0  0  0  0  0  0  0  0  0  0  0  0
    2.8660   -2.2110    0.0000 O   0  0  0  0  0  0  0  0  0  0  0  0
    8.0622   -2.2110    0.0000 N   0  0  0  0  0  0  0  0  0  0  0  0
    7.1962   -0.7110    0.0000 C   0  0  2  0  0  0  0  0  0  0  0  0
    8.0622   -1.2110    0.0000 C   0  0  1  0  0  0  0  0  0  0  0  0
    8.9282   -0.7110    0.0000 C   0  0  2  0  0  0  0  0  0  0  0  0
    8.9282    0.2890    0.0000 C   0  0  0  0  0  0  0  0  0  0  0  0
    6.3301   -1.2110    0.0000 C   0  0  1  0  0  0  0  0  0  0  0  0
    8.0622    0.7890    0.0000 C   0  0  3  0  0  0  0  0  0  0  0  0
    5.4641   -0.7110    0.0000 C   0  0  1  0  0  0  0  0  0  0  0  0
    8.5622    1.6550    0.0000 C   0  0  0  0  0  0  0  0  0  0  0  0
    4.5981   -1.2110    0.0000 C   0  0  0  0  0  0  0  0  0  0  0  0
    2.8660   -1.2110    0.0000 C   0  0  0  0  0  0  0  0  0  0  0  0
    2.0000   -0.7110    0.0000 C   0  0  0  0  0  0  0  0  0  0  0  0
    6.4600   -0.2860    0.0000 H   0  0  0  0  0  0  0  0  0  0  0  0
    7.5252   -1.5210    0.0000 H   0  0  0  0  0  0  0  0  0  0  0  0
    9.4651   -0.4010    0.0000 H   0  0  0  0  0  0  0  0  0  0  0  0
    9.5388    0.1813    0.0000 H   0  0  0  0  0  0  0  0  0  0  0  0
    9.1403    0.8716    0.0000 H   0  0  0  0  0  0  0  0  0  0  0  0
    6.8671   -1.5210    0.0000 H   0  0  0  0  0  0  0  0  0  0  0  0
    6.0010   -0.4010    0.0000 H   0  0  0  0  0  0  0  0  0  0  0  0
    8.5991   -2.5210    0.0000 H   0  0  0  0  0  0  0  0  0  0  0  0
    7.5252   -2.5210    0.0000 H   0  0  0  0  0  0  0  0  0  0  0  0
   10.3312   -0.9010    0.0000 H   0  0  0  0  0  0  0  0  0  0  0  0
    4.1996   -1.6860    0.0000 H   0  0  0  0  0  0  0  0  0  0  0  0
    4.9966   -1.6860    0.0000 H   0  0  0  0  0  0  0  0  0  0  0  0
    5.7932   -2.5210    0.0000 H   0  0  0  0  0  0  0  0  0  0  0  0
    6.9422    1.6550    0.0000 H   0  0  0  0  0  0  0  0  0  0  0  0
    4.9272    0.5990    0.0000 H   0  0  0  0  0  0  0  0  0  0  0  0
    9.8722    2.1919    0.0000 H   0  0  0  0  0  0  0  0  0  0  0  0
    2.3100   -0.1741    0.0000 H   0  0  0  0  0  0  0  0  0  0  0  0
    1.4631   -0.4010    0.0000 H   0  0  0  0  0  0  0  0  0  0  0  0
    1.6900   -1.2480    0.0000 H   0  0  0  0  0  0  0  0  0  0  0  0
  1 11  1  0  0  0  0
  1 16  1  0  0  0  0
 13  2  1  6  0  0  0
  2 31  1  0  0  0  0
 15  3  1  6  0  0  0
  3 34  1  0  0  0  0
  4 16  1  0  0  0  0
  4 35  1  0  0  0  0
 17  5  1  1  0  0  0
  5 36  1  0  0  0  0
  6 19  1  0  0  0  0
  6 20  1  0  0  0  0
  7 18  1  0  0  0  0
  7 37  1  0  0  0  0
  8 18  2  0  0  0  0
  9 20  2  0  0  0  0
 12 10  1  1  0  0  0
 10 29  1  0  0  0  0
 10 30  1  0  0  0  0
 11 12  1  0  0  0  0
 11 15  1  0  0  0  0
 11 22  1  1  0  0  0
 12 13  1  0  0  0  0
 12 23  1  0  0  0  0
 13 14  1  0  0  0  0
 13 24  1  0  0  0  0
 14 16  1  0  0  0  0
 14 25  1  0  0  0  0
 14 26  1  0  0  0  0
 15 17  1  0  0  0  0
 15 27  1  0  0  0  0
 16 18  1  0  0  0  0
 17 19  1  0  0  0  0
 17 28  1  0  0  0  0
 19 32  1  0  0  0  0
 19 33  1  0  0  0  0
 20 21  1  0  0  0  0
 21 38  1  0  0  0  0
 21 39  1  0  0  0  0
 21 40  1  0  0  0  0
M  END
> <PUBCHEM_COMPOUND_CID>
440038

> <PUBCHEM_COMPOUND_CANONICALIZED>
1

> <PUBCHEM_CACTVS_COMPLEXITY>
403

> <PUBCHEM_CACTVS_HBOND_ACCEPTOR>
10

> <PUBCHEM_CACTVS_HBOND_DONOR>
6

> <PUBCHEM_CACTVS_ROTATABLE_BOND>
6

> <PUBCHEM_CACTVS_SUBSKEYS>
AAADceByPAAAAAAAAAAAAAAAAAAAAAAAAAAkAAAAAAAAAAAAAAAAHgAQCAAACDzhgAYCCABABgAIAACQCAIAAAAAAAAAAIFAAAATEBIAgAQDQAAHEAAHAAH6+aWQAAAAAAAAAAAAAAAAAAAAAAAAAAAAAA==

> <PUBCHEM_IUPAC_OPENEYE_NAME>
(4S,5R,6R)-6-[(1R,2R)-3-acetoxy-1,2-dihydroxy-propyl]-5-amino-2,4-dihydroxy-tetrahydropyran-2-carboxylic acid

> <PUBCHEM_IUPAC_CAS_NAME>
(4S,5R,6R)-6-[(1R,2R)-3-acetyloxy-1,2-dihydroxypropyl]-5-amino-2,4-dihydroxy-2-oxanecarboxylic acid

> <PUBCHEM_IUPAC_NAME>
(4S,5R,6R)-6-[(1R,2R)-3-acetyloxy-1,2-dihydroxypropyl]-5-amino-2,4-dihydroxyoxane-2-carboxylic acid

> <PUBCHEM_IUPAC_SYSTEMATIC_NAME>
(4S,5R,6R)-6-[(1R,2R)-3-acetyloxy-1,2-bis(oxidanyl)propyl]-5-azanyl-2,4-bis(oxidanyl)oxane-2-carboxylic acid

> <PUBCHEM_IUPAC_TRADITIONAL_NAME>
(4S,5R,6R)-6-[(1R,2R)-3-acetoxy-1,2-dihydroxy-propyl]-5-amino-2,4-dihydroxy-tetrahydropyran-2-carboxylic acid

> <PUBCHEM_IUPAC_INCHI>
InChI=1S/C11H19NO9/c1-4(13)20-3-6(15)8(16)9-7(12)5(14)2-11(19,21-9)10(17)18/h5-9,14-16,19H,2-3,12H2,1H3,(H,17,18)/t5-,6+,7+,8+,9+,11?/m0/s1

> <PUBCHEM_IUPAC_INCHIKEY>
BJOZNDRNJJZHPZ-LUWBGTNYSA-N

> <PUBCHEM_XLOGP3_AA>
-5.4

> <PUBCHEM_EXACT_MASS>
309.105981

> <PUBCHEM_MOLECULAR_FORMULA>
C11H19NO9

> <PUBCHEM_MOLECULAR_WEIGHT>
309.26986

> <PUBCHEM_OPENEYE_CAN_SMILES>
CC(=O)OCC(C(C1C(C(CC(O1)(C(=O)O)O)O)N)O)O

> <PUBCHEM_OPENEYE_ISO_SMILES>
CC(=O)OC[C@H]([C@H]([C@H]1[C@@H]([C@H](CC(O1)(C(=O)O)O)O)N)O)O

> <PUBCHEM_CACTVS_TPSA>
180

> <PUBCHEM_MONOISOTOPIC_WEIGHT>
309.105981

> <PUBCHEM_TOTAL_CHARGE>
0

> <PUBCHEM_HEAVY_ATOM_COUNT>
21

> <PUBCHEM_ATOM_DEF_STEREO_COUNT>
5

> <PUBCHEM_ATOM_UDEF_STEREO_COUNT>
1

> <PUBCHEM_BOND_DEF_STEREO_COUNT>
0

> <PUBCHEM_BOND_UDEF_STEREO_COUNT>
0

> <PUBCHEM_ISOTOPIC_ATOM_COUNT>
0

> <PUBCHEM_COMPONENT_COUNT>
1

> <PUBCHEM_CACTVS_TAUTO_COUNT>
1

> <PUBCHEM_COORDINATE_TYPE>
1
5
255

> <PUBCHEM_BONDANNOTATIONS>
12  10  5
11  22  5
16  18  3
13  2  6
15  3  6
17  5  5

$$$$

