   Color/Form
        Colorless, very volatile liquid.
   from [1]HSDB

   Odor
        Gasoline-like odor.
   from [2]HSDB

   Boiling Point
        68.7 deg C
   from [3]HSDB

   Melting Point
        -94.3 deg C
   from [4]HSDB

   Density/Specific Gravity
        0.6548 g/cc at 25 deg C
   from [5]HSDB

   Heat of Vaporization
        79.4 cal/g
   from [6]HSDB

   Octanol/Water Partition Coefficient
        log Kow= 3.90
   from [7]HSDB

   Solubilities

     * 9.5 to 13 mg/L at 20 deg C in distilled water, 75.5 mg/L at 20 deg
       C in salt water
     * Soluble in alcohol, acetone and ether; insoluble in water.
     * Miscible with alcohol, chloroform, and ether
     * In water, 9.5 mg/l @ 25 deg C.

   from [8]HSDB

   Spectral Properties
        Index of refraction: 1.375 @ 20 deg C
   from [9]HSDB

   Vapor Density
        2.97 (AIR= 1)
   from [10]HSDB

   Vapor Pressure
        153 mm Hg @ 25 deg C
   from [11]HSDB

   Viscosity
        3.26X10-4 Pa s at 20 deg C
   from [12]HSDB

   Other Chemical/Physical Properties

     * Critical temperature: 507.38 K; Critical pressure: 3012 kPa;
       Specific gravity, liquid, at 288.72 K: 0.6638; Gross heating value
       at 288.72 K, 101.325 kPa (1 atm): 176.93 MJ/cu m. /from table/
     * Wt/vol conversion: 3.52 mg/cu m= 1 ppm
     * Vapor pressure: 120 mm Hg at 20 deg C, 190 mm Hg at 30 deg C
     * Saturation concn in air 564 g/cu m at 20 deg C, 862 g/cu m at 30
       deg C
     * Hydroxyl radical reaction rate constant = 5.61X10-12 cu
       cm/molecule-sec @ 25 deg C

   from [13]HSDB

   Computed Properties
   Molecular Weight                  86.17536 [g/mol]
   Molecular Formula                 C[6]H[14]
   XLogP3                            3.9
   H-Bond Donor                      0
   H-Bond Acceptor                   0
   Rotatable Bond Count              3
   Exact Mass                        86.10955
   MonoIsotopic Mass                 86.10955
   Topological Polar Surface Area    0
   Heavy Atom Count                  6
   Formal Charge                     0
   Complexity                        12
   Isotope Atom Count                0
   Defined Atom Stereocenter Count   0
   Undefined Atom Stereocenter Count 0
   Defined Bond Stereocenter Count   0
   Undefined Bond Stereocenter Count 0
   Covalently-Bonded Unit Count      1
   Feature 3D Hydrophobe Count       3
   Effective Rotor Count             3
   Conformer Sampling RMSD           0.4
   CID Conformer Count               [14]12

References

   1. http://toxnet.nlm.nih.gov/cgi-bin/sis/search/r?dbs+hsdb:@term+@rn+@rel+110-54-3
   2. http://toxnet.nlm.nih.gov/cgi-bin/sis/search/r?dbs+hsdb:@term+@rn+@rel+110-54-3
   3. http://toxnet.nlm.nih.gov/cgi-bin/sis/search/r?dbs+hsdb:@term+@rn+@rel+110-54-3
   4. http://toxnet.nlm.nih.gov/cgi-bin/sis/search/r?dbs+hsdb:@term+@rn+@rel+110-54-3
   5. http://toxnet.nlm.nih.gov/cgi-bin/sis/search/r?dbs+hsdb:@term+@rn+@rel+110-54-3
   6. http://toxnet.nlm.nih.gov/cgi-bin/sis/search/r?dbs+hsdb:@term+@rn+@rel+110-54-3
   7. http://toxnet.nlm.nih.gov/cgi-bin/sis/search/r?dbs+hsdb:@term+@rn+@rel+110-54-3
   8. http://toxnet.nlm.nih.gov/cgi-bin/sis/search/r?dbs+hsdb:@term+@rn+@rel+110-54-3
   9. http://toxnet.nlm.nih.gov/cgi-bin/sis/search/r?dbs+hsdb:@term+@rn+@rel+110-54-3
  10. http://toxnet.nlm.nih.gov/cgi-bin/sis/search/r?dbs+hsdb:@term+@rn+@rel+110-54-3
  11. http://toxnet.nlm.nih.gov/cgi-bin/sis/search/r?dbs+hsdb:@term+@rn+@rel+110-54-3
  12. http://toxnet.nlm.nih.gov/cgi-bin/sis/search/r?dbs+hsdb:@term+@rn+@rel+110-54-3
  13. http://toxnet.nlm.nih.gov/cgi-bin/sis/search/r?dbs+hsdb:@term+@rn+@rel+110-54-3
  14. http://pubchem.ncbi.nlm.nih.gov/vw3d/vw3d.cgi?cid=8058
