   Color/Form

     * COLORLESS GAS @ USUAL TEMP, BUT EASILY CONDENSIBLE
     * Colorless gas
     * Colorless compressed gas or liquid

   from [1]HSDB

   Odor

     * Slight ethereal odor
     * Ether-like odor

   from [2]HSDB

   Boiling Point
        -24.82 deg C
   from [3]HSDB

   Melting Point
        -141.5 deg C
   from [4]HSDB

   Corrosivity
        NONCORROSIVE
   from [5]HSDB

   Critical Temperature and Pressure
        Critical Temp: 127 deg C; Critical Pressure: 52.6 atm
   from [6]HSDB

   Density/Specific Gravity
        1.91855 g/L at 1 atm and 25 deg C
   from [7]HSDB

   Heat of Combustion
        347.6 kcal/mole
   from [8]HSDB

   Heat of Vaporization
        111.64 cal/g at -24.8 dec C
   from [9]HSDB

   Octanol/Water Partition Coefficient
        log Kow = 0.10
   from [10]HSDB

   Solubilities

     * 1 vol water takes up 37 vol gas
     * Sol in ether, acetone, chloroform; ethyl alcohol
     * SOL IN ORG SOLVENTS EXCEPT FOR POLYALCOHOLS
     * Soluble in oxygenated solvents
     * In water, 4.6X10+4 mg/L at 25 deg C

   from [11]HSDB

   Spectral Properties

     * MAX ABSORPTION (GAS): 162.5 NM (LOG E= 3.60); 184 NM (LOG E= 3.40);
       SADTLER REF NUMBER: 1128 (IR, PRISM)
     * Index of refraction: 1.3441 at -42.5 deg C/D
     * IR: 15307 (Sadtler Research Laboratories IR Grating Collection)
     * MASS: NIST 18887 (NIST/EPA/MSDC Mass Spectral Database, 1990
       version)

   from [12]HSDB

   Surface Tension
        16 dynes/cm at -10 deg C.
   from [13]HSDB

   Vapor Density
        1.6 (Air = 1)
   from [14]HSDB

   Vapor Pressure
        4450 mm Hg at 25 deg C
   from [15]HSDB

   Viscosity
        825 at 0 deg C
   from [16]HSDB

   Other Chemical/Physical Properties

     * Burns with slightly luminous flame
     * CONVERSION FACTORS: 1 PPM IS EQUIV TO 1.881 MG/CU M @ 25 DEG C, 760
       MM HG; 1 MG/L IS EQUIV TO 532 PPM @ 25 DEG C, 760 MM HG
     * Heat of Fusion: 1179.8 cal/mol
     * Henry's Law constant = 1X10-3 atm-cu m/mol at 25 deg C (est)
     * Hydroxyl radical reaction rate constant = 2.98X10-12 cu cm/molc sec
       at 25 deg C

   from [17]HSDB

   Computed Properties
   Molecular Weight                  46.06844 [g/mol]
   Molecular Formula                 C[2]H[6]O
   XLogP3-AA                         0.1
   H-Bond Donor                      0
   H-Bond Acceptor                   1
   Rotatable Bond Count              0
   Exact Mass                        46.041865
   MonoIsotopic Mass                 46.041865
   Topological Polar Surface Area    9.2
   Heavy Atom Count                  3
   Formal Charge                     0
   Complexity                        2.8
   Isotope Atom Count                0
   Defined Atom Stereocenter Count   0
   Undefined Atom Stereocenter Count 0
   Defined Bond Stereocenter Count   0
   Undefined Bond Stereocenter Count 0
   Covalently-Bonded Unit Count      1
   Feature 3D Acceptor Count         1
   Effective Rotor Count             0
   Conformer Sampling RMSD           0.4
   CID Conformer Count               [18]1

References

   1. http://toxnet.nlm.nih.gov/cgi-bin/sis/search/r?dbs+hsdb:@term+@rn+@rel+115-10-6
   2. http://toxnet.nlm.nih.gov/cgi-bin/sis/search/r?dbs+hsdb:@term+@rn+@rel+115-10-6
   3. http://toxnet.nlm.nih.gov/cgi-bin/sis/search/r?dbs+hsdb:@term+@rn+@rel+115-10-6
   4. http://toxnet.nlm.nih.gov/cgi-bin/sis/search/r?dbs+hsdb:@term+@rn+@rel+115-10-6
   5. http://toxnet.nlm.nih.gov/cgi-bin/sis/search/r?dbs+hsdb:@term+@rn+@rel+115-10-6
   6. http://toxnet.nlm.nih.gov/cgi-bin/sis/search/r?dbs+hsdb:@term+@rn+@rel+115-10-6
   7. http://toxnet.nlm.nih.gov/cgi-bin/sis/search/r?dbs+hsdb:@term+@rn+@rel+115-10-6
   8. http://toxnet.nlm.nih.gov/cgi-bin/sis/search/r?dbs+hsdb:@term+@rn+@rel+115-10-6
   9. http://toxnet.nlm.nih.gov/cgi-bin/sis/search/r?dbs+hsdb:@term+@rn+@rel+115-10-6
  10. http://toxnet.nlm.nih.gov/cgi-bin/sis/search/r?dbs+hsdb:@term+@rn+@rel+115-10-6
  11. http://toxnet.nlm.nih.gov/cgi-bin/sis/search/r?dbs+hsdb:@term+@rn+@rel+115-10-6
  12. http://toxnet.nlm.nih.gov/cgi-bin/sis/search/r?dbs+hsdb:@term+@rn+@rel+115-10-6
  13. http://toxnet.nlm.nih.gov/cgi-bin/sis/search/r?dbs+hsdb:@term+@rn+@rel+115-10-6
  14. http://toxnet.nlm.nih.gov/cgi-bin/sis/search/r?dbs+hsdb:@term+@rn+@rel+115-10-6
  15. http://toxnet.nlm.nih.gov/cgi-bin/sis/search/r?dbs+hsdb:@term+@rn+@rel+115-10-6
  16. http://toxnet.nlm.nih.gov/cgi-bin/sis/search/r?dbs+hsdb:@term+@rn+@rel+115-10-6
  17. http://toxnet.nlm.nih.gov/cgi-bin/sis/search/r?dbs+hsdb:@term+@rn+@rel+115-10-6
  18. http://pubchem.ncbi.nlm.nih.gov/vw3d/vw3d.cgi?cid=8254
