   Color/Form

     * COLORLESS LIQ
     * Colorless liquid.
     * Colorless liquid

   from [1]HSDB

   Odor

     * Irritating odor
     * Irritating odor.

   from [2]HSDB

   Boiling Point
        59.5 deg C
   from [3]HSDB

   Melting Point
        -103.5 DEG C
   from [4]HSDB

   Corrosivity
        Will react with surface moisture to evolve hydrogen chloride which
   is corrosive to metal.
   from [5]HSDB

   Density/Specific Gravity
        1.0603 @ 20 DEG C/4 DEG C
   from [6]HSDB

   Heat of Combustion
        APPROX -7,300 BTU/POUND
   from [7]HSDB

   Heat of Vaporization
        LATENT HEAT OF VAPORIZATION: APPROX 154 BTU/POUND
   from [8]HSDB

   Solubilities

     * MISCIBLE WITH ETHANOL & ETHER & MANY OTHER ORG SOLVENTS
     * SOL IN ACETONE, CHLOROFORM, ETHYL ETHER, ETHYL ALCOHOL
     * Soluble in oxygenated solvents

   from [9]HSDB

   Spectral Properties

     * INDEX OF REFRACTION: 1.3974 @ 20 DEG C/D
     * IR: 2:115H (Aldrich Library of Infrared Spectra, Aldrich Chemical
       Co, Milwaukee, WI)
     * NMR: 1:133B (Aldrich Library of Mass Spectra, Aldrich Chemical Co,
       Milwaukee, WI)
     * MASS: 28 (National Bureau of Standards EPA-NIH Mass Spectra Data
       Base, NSRDS-NBS-63)
     * IR: 6991 (Coblentz Society Spectral Collection)
     * NMR: 9193 (Sadtler Research Laboratories Spectral Collection)
     * MASS: 105 (Atlas of Mass Spectral Data, John Wiley & Sons, New
       York)

   from [10]HSDB

   Surface Tension
        LIQUID SURFACE TENSION: APPROX 30 DYNES/CM
   from [11]HSDB

   Vapor Density
        0.5245 lb/cu ft at 70 deg F
   from [12]HSDB

   Vapor Pressure
        30 mm Hg at 22 deg C
   from [13]HSDB

   Other Chemical/Physical Properties

     * /Chloromethyl methyl ether/ in aqueous solution is hydrolyzed very
       fast with half-life in the order of <1 sec.
     * Hydrolysis products include: methanol, formaldehyde, and hydrogen
       chloride. [Fishbein L; Sci Total Environ 11: 223-257 (1979)]
       [14]PubMed Abstract
     * Vapor pressure: 3.705 lb/sq inch at 70 deg F
     * Hydrolyzed by water

   from [15]HSDB

   Computed Properties
   Molecular Weight                  80.5135 [g/mol]
   Molecular Formula                 C[2]H[5]ClO
   XLogP3-AA                         0.8
   H-Bond Donor                      0
   H-Bond Acceptor                   1
   Rotatable Bond Count              1
   Exact Mass                        80.002892
   MonoIsotopic Mass                 80.002892
   Topological Polar Surface Area    9.2
   Heavy Atom Count                  4
   Formal Charge                     0
   Complexity                        10
   Isotope Atom Count                0
   Defined Atom Stereocenter Count   0
   Undefined Atom Stereocenter Count 0
   Defined Bond Stereocenter Count   0
   Undefined Bond Stereocenter Count 0
   Covalently-Bonded Unit Count      1
   Feature 3D Acceptor Count         1
   Effective Rotor Count             1
   Conformer Sampling RMSD           0.4
   CID Conformer Count               [16]3

References

   1. http://toxnet.nlm.nih.gov/cgi-bin/sis/search/r?dbs+hsdb:@term+@rn+@rel+107-30-2
   2. http://toxnet.nlm.nih.gov/cgi-bin/sis/search/r?dbs+hsdb:@term+@rn+@rel+107-30-2
   3. http://toxnet.nlm.nih.gov/cgi-bin/sis/search/r?dbs+hsdb:@term+@rn+@rel+107-30-2
   4. http://toxnet.nlm.nih.gov/cgi-bin/sis/search/r?dbs+hsdb:@term+@rn+@rel+107-30-2
   5. http://toxnet.nlm.nih.gov/cgi-bin/sis/search/r?dbs+hsdb:@term+@rn+@rel+107-30-2
   6. http://toxnet.nlm.nih.gov/cgi-bin/sis/search/r?dbs+hsdb:@term+@rn+@rel+107-30-2
   7. http://toxnet.nlm.nih.gov/cgi-bin/sis/search/r?dbs+hsdb:@term+@rn+@rel+107-30-2
   8. http://toxnet.nlm.nih.gov/cgi-bin/sis/search/r?dbs+hsdb:@term+@rn+@rel+107-30-2
   9. http://toxnet.nlm.nih.gov/cgi-bin/sis/search/r?dbs+hsdb:@term+@rn+@rel+107-30-2
  10. http://toxnet.nlm.nih.gov/cgi-bin/sis/search/r?dbs+hsdb:@term+@rn+@rel+107-30-2
  11. http://toxnet.nlm.nih.gov/cgi-bin/sis/search/r?dbs+hsdb:@term+@rn+@rel+107-30-2
  12. http://toxnet.nlm.nih.gov/cgi-bin/sis/search/r?dbs+hsdb:@term+@rn+@rel+107-30-2
  13. http://toxnet.nlm.nih.gov/cgi-bin/sis/search/r?dbs+hsdb:@term+@rn+@rel+107-30-2
  14. http://www.ncbi.nlm.nih.gov/entrez/query.fcgi?cmd=Retrieve&db=pubmed&dopt=Abstract&list_uids=155878
  15. http://toxnet.nlm.nih.gov/cgi-bin/sis/search/r?dbs+hsdb:@term+@rn+@rel+107-30-2
  16. http://pubchem.ncbi.nlm.nih.gov/vw3d/vw3d.cgi?cid=7864
