11036
  -OEChem-06261205152D

 36 36  0     0  0  0  0  0  0999 V2000
    4.7690    9.5369    0.0000 S   0  0  0  0  0  0  0  0  0  0  0  0
    5.6350   11.0369    0.0000 Na  0  3  0  0  0  0  0  0  0  0  0  0
    4.7690   10.5369    0.0000 O   0  5  0  0  0  0  0  0  0  0  0  0
    3.7690    9.5369    0.0000 O   0  0  0  0  0  0  0  0  0  0  0  0
    5.7690    9.5369    0.0000 O   0  0  0  0  0  0  0  0  0  0  0  0
    3.9030    1.0369    0.0000 N   0  0  0  0  0  0  0  0  0  0  0  0
    3.9030    5.0369    0.0000 N   0  0  0  0  0  0  0  0  0  0  0  0
    4.7690    5.5369    0.0000 N   0  0  0  0  0  0  0  0  0  0  0  0
    3.9030    2.0369    0.0000 C   0  0  0  0  0  0  0  0  0  0  0  0
    4.7690    2.5369    0.0000 C   0  0  0  0  0  0  0  0  0  0  0  0
    3.0369    2.5369    0.0000 C   0  0  0  0  0  0  0  0  0  0  0  0
    3.9030    4.0369    0.0000 C   0  0  0  0  0  0  0  0  0  0  0  0
    4.7690    3.5369    0.0000 C   0  0  0  0  0  0  0  0  0  0  0  0
    3.0369    3.5369    0.0000 C   0  0  0  0  0  0  0  0  0  0  0  0
    4.7690    8.5369    0.0000 C   0  0  0  0  0  0  0  0  0  0  0  0
    3.0369    0.5369    0.0000 C   0  0  0  0  0  0  0  0  0  0  0  0
    4.7690    0.5369    0.0000 C   0  0  0  0  0  0  0  0  0  0  0  0
    4.7690    6.5369    0.0000 C   0  0  0  0  0  0  0  0  0  0  0  0
    3.9030    8.0369    0.0000 C   0  0  0  0  0  0  0  0  0  0  0  0
    5.6350    8.0369    0.0000 C   0  0  0  0  0  0  0  0  0  0  0  0
    3.9030    7.0369    0.0000 C   0  0  0  0  0  0  0  0  0  0  0  0
    5.6350    7.0369    0.0000 C   0  0  0  0  0  0  0  0  0  0  0  0
    5.3059    2.2269    0.0000 H   0  0  0  0  0  0  0  0  0  0  0  0
    2.5000    2.2269    0.0000 H   0  0  0  0  0  0  0  0  0  0  0  0
    5.3059    3.8469    0.0000 H   0  0  0  0  0  0  0  0  0  0  0  0
    2.5000    3.8469    0.0000 H   0  0  0  0  0  0  0  0  0  0  0  0
    3.3469    0.0000    0.0000 H   0  0  0  0  0  0  0  0  0  0  0  0
    2.5000    0.2269    0.0000 H   0  0  0  0  0  0  0  0  0  0  0  0
    2.7269    1.0739    0.0000 H   0  0  0  0  0  0  0  0  0  0  0  0
    5.0790    1.0739    0.0000 H   0  0  0  0  0  0  0  0  0  0  0  0
    5.3059    0.2269    0.0000 H   0  0  0  0  0  0  0  0  0  0  0  0
    4.4590    0.0000    0.0000 H   0  0  0  0  0  0  0  0  0  0  0  0
    3.3660    8.3469    0.0000 H   0  0  0  0  0  0  0  0  0  0  0  0
    6.1719    8.3469    0.0000 H   0  0  0  0  0  0  0  0  0  0  0  0
    3.3660    6.7269    0.0000 H   0  0  0  0  0  0  0  0  0  0  0  0
    6.1719    6.7269    0.0000 H   0  0  0  0  0  0  0  0  0  0  0  0
  1  3  1  0  0  0  0
  1  4  2  0  0  0  0
  1  5  2  0  0  0  0
  1 15  1  0  0  0  0
  6  9  1  0  0  0  0
  6 16  1  0  0  0  0
  6 17  1  0  0  0  0
  7  8  2  0  0  0  0
  7 12  1  0  0  0  0
  8 18  1  0  0  0  0
  9 10  2  0  0  0  0
  9 11  1  0  0  0  0
 10 13  1  0  0  0  0
 10 23  1  0  0  0  0
 11 14  2  0  0  0  0
 11 24  1  0  0  0  0
 12 13  2  0  0  0  0
 12 14  1  0  0  0  0
 13 25  1  0  0  0  0
 14 26  1  0  0  0  0
 15 19  2  0  0  0  0
 15 20  1  0  0  0  0
 16 27  1  0  0  0  0
 16 28  1  0  0  0  0
 16 29  1  0  0  0  0
 17 30  1  0  0  0  0
 17 31  1  0  0  0  0
 17 32  1  0  0  0  0
 18 21  2  0  0  0  0
 18 22  1  0  0  0  0
 19 21  1  0  0  0  0
 19 33  1  0  0  0  0
 20 22  2  0  0  0  0
 20 34  1  0  0  0  0
 21 35  1  0  0  0  0
 22 36  1  0  0  0  0
M  CHG  2   2   1   3  -1
M  END
> <PUBCHEM_COMPOUND_CID>
11036

> <PUBCHEM_COMPOUND_CANONICALIZED>
1

> <PUBCHEM_CACTVS_COMPLEXITY>
429

> <PUBCHEM_CACTVS_HBOND_ACCEPTOR>
6

> <PUBCHEM_CACTVS_HBOND_DONOR>
0

> <PUBCHEM_CACTVS_ROTATABLE_BOND>
3

> <PUBCHEM_CACTVS_SUBSKEYS>
AAADccBzMCBAAAAAAAAAAAAAAAAAAAAAAAAwYAAAAAAAAAABQAAAHAQIAAAACAiBUAQywYMAAAKCACRCQHDCAEAhAgAIiBgIZIgIICLAkZGEIAhggABIyAcQAAAAAASAAAAAAAAACQAAAAAAAAAAAAAAAA==

> <PUBCHEM_IUPAC_OPENEYE_NAME>
sodium 4-[4-(dimethylamino)phenyl]azobenzenesulfonate

> <PUBCHEM_IUPAC_CAS_NAME>
sodium 4-[4-(dimethylamino)phenyl]azobenzenesulfonate

> <PUBCHEM_IUPAC_NAME>
sodium 4-[[4-(dimethylamino)phenyl]diazenyl]benzenesulfonate

> <PUBCHEM_IUPAC_SYSTEMATIC_NAME>
sodium 4-[[4-(dimethylamino)phenyl]diazenyl]benzenesulfonate

> <PUBCHEM_IUPAC_TRADITIONAL_NAME>
sodium 4-[4-(dimethylamino)phenyl]azobesylate

> <PUBCHEM_IUPAC_INCHI>
InChI=1S/C14H15N3O3S.Na/c1-17(2)13-7-3-11(4-8-13)15-16-12-5-9-14(10-6-12)21(18,19)20;/h3-10H,1-2H3,(H,18,19,20);/q;+1/p-1

> <PUBCHEM_IUPAC_INCHIKEY>
STZCRXQWRGQSJD-UHFFFAOYSA-M

> <PUBCHEM_EXACT_MASS>
327.065357

> <PUBCHEM_MOLECULAR_FORMULA>
C14H14N3NaO3S

> <PUBCHEM_MOLECULAR_WEIGHT>
327.334029

> <PUBCHEM_OPENEYE_CAN_SMILES>
CN(C)C1=CC=C(C=C1)N=NC2=CC=C(C=C2)S(=O)(=O)[O-].[Na+]

> <PUBCHEM_OPENEYE_ISO_SMILES>
CN(C)C1=CC=C(C=C1)N=NC2=CC=C(C=C2)S(=O)(=O)[O-].[Na+]

> <PUBCHEM_CACTVS_TPSA>
93.5

> <PUBCHEM_MONOISOTOPIC_WEIGHT>
327.065357

> <PUBCHEM_TOTAL_CHARGE>
0

> <PUBCHEM_HEAVY_ATOM_COUNT>
22

> <PUBCHEM_ATOM_DEF_STEREO_COUNT>
0

> <PUBCHEM_ATOM_UDEF_STEREO_COUNT>
0

> <PUBCHEM_BOND_DEF_STEREO_COUNT>
0

> <PUBCHEM_BOND_UDEF_STEREO_COUNT>
0

> <PUBCHEM_ISOTOPIC_ATOM_COUNT>
0

> <PUBCHEM_COMPONENT_COUNT>
2

> <PUBCHEM_CACTVS_TAUTO_COUNT>
1

> <PUBCHEM_COORDINATE_TYPE>
1
5
255

> <PUBCHEM_BONDANNOTATIONS>
10  13  8
11  14  8
12  13  8
12  14  8
15  19  8
15  20  8
18  21  8
18  22  8
19  21  8
20  22  8
9  10  8
9  11  8

$$$$

