   Color/Form
        White crystals from acetone
   from [1]HSDB

   Melting Point
        173-176.5 deg C
   from [2]HSDB

   Dissociation Constants
        pKa = 1.20 (est)
   from [3]HSDB

   Octanol/Water Partition Coefficient
        log Kow = 1.38 (est)
   from [4]HSDB

   Solubilities
        In water, 349 mg/L at 25 deg C (est)
   from [5]HSDB

   Vapor Pressure
        6.1X10+11 mm Hg at 25 deg C (est)
   from [6]HSDB

   Other Chemical/Physical Properties

     * Henry's Law constant = 8.3X10-14 atm-cu m/mol at 25 deg C (est)
     * Hydroxyl radical reaction rate constant = 8.9X10-11 cu cm/molec-sec
       at 25 deg C (est)
     * Mol wt: 406.24. White crystals as the dihydrate from
       water-ethanol-acetone, mp 220 deg C (softens). pH of a saturated
       aqueous solution: approx 9. Solubility at 25 deg C (mg/mL): 142 in
       water /Disodium salt/

   from [7]HSDB

   Computed Properties
   Molecular Weight                  362.273862 [g/mol]
   Molecular Formula                 C[16]H[15]N[2]O[6]P
   XLogP3-AA                         0.6
   H-Bond Donor                      3
   H-Bond Acceptor                   6
   Rotatable Bond Count              5
   Tautomer Count                    2
   Exact Mass                        362.066773
   MonoIsotopic Mass                 362.066773
   Topological Polar Surface Area    116
   Heavy Atom Count                  25
   Formal Charge                     0
   Complexity                        547
   Isotope Atom Count                0
   Defined Atom Stereocenter Count   0
   Undefined Atom Stereocenter Count 0
   Defined Bond Stereocenter Count   0
   Undefined Bond Stereocenter Count 0
   Covalently-Bonded Unit Count      1
   Feature 3D Acceptor Count         5
   Feature 3D Donor Count            1
   Feature 3D Anion Count            1
   Feature 3D Ring Count             3
   Effective Rotor Count             5.6
   Conformer Sampling RMSD           0.8
   CID Conformer Count               [8]16

References

   1. http://toxnet.nlm.nih.gov/cgi-bin/sis/search/r?dbs+hsdb:@term+@rn+@rel+93390-81-9
   2. http://toxnet.nlm.nih.gov/cgi-bin/sis/search/r?dbs+hsdb:@term+@rn+@rel+93390-81-9
   3. http://toxnet.nlm.nih.gov/cgi-bin/sis/search/r?dbs+hsdb:@term+@rn+@rel+93390-81-9
   4. http://toxnet.nlm.nih.gov/cgi-bin/sis/search/r?dbs+hsdb:@term+@rn+@rel+93390-81-9
   5. http://toxnet.nlm.nih.gov/cgi-bin/sis/search/r?dbs+hsdb:@term+@rn+@rel+93390-81-9
   6. http://toxnet.nlm.nih.gov/cgi-bin/sis/search/r?dbs+hsdb:@term+@rn+@rel+93390-81-9
   7. http://toxnet.nlm.nih.gov/cgi-bin/sis/search/r?dbs+hsdb:@term+@rn+@rel+93390-81-9
   8. http://pubchem.ncbi.nlm.nih.gov/vw3d/vw3d.cgi?cid=56339
