   Color/Form
        COLORLESS LIQUID
   from [1]HSDB

   Boiling Point
        218.4 DEG C @ 760 MM HG
   from [2]HSDB

   Melting Point
        -4 DEG C
   from [3]HSDB

   Density/Specific Gravity
        1.0283 @ 20 DEG C/4 DEG C
   from [4]HSDB

   Dissociation Constants
        pKa = 9.9
   from [5]HSDB

   Octanol/Water Partition Coefficient
        Log Kow = 2.40
   from [6]HSDB

   Solubilities
        SLIGHTLY SOLUBLE IN WATER, CHLOROFORM; VERY SOLUBLE IN ALCOHOL,
   ETHER
   from [7]HSDB

   Spectral Properties

     * MAX ABSORPTION (CYCLOHEXANE): 273 NM (LOG E= 3.25)
     * IR: 2339 (Sadtler Research Laboratories Prism Collection)
     * UV: 4-179 (Organic Electronic Spectral Data, Phillips et al, John
       Wiley & Sons, New York)
     * NMR: 8766 (Sadtler Research Laboratories Spectral Collection)
     * MASS: 504 (Atlas of Mass Spectral Data, John Wiley & Sons, New
       York)

   from [8]HSDB

   Vapor Pressure
        0.05 mm Hg at 25 deg C
   from [9]HSDB

   Computed Properties
   Molecular Weight                  122.1644 [g/mol]
   Molecular Formula                 C[8]H[10]O
   XLogP3                            2.4
   H-Bond Donor                      1
   H-Bond Acceptor                   1
   Rotatable Bond Count              1
   Tautomer Count                    9
   Exact Mass                        122.073165
   MonoIsotopic Mass                 122.073165
   Topological Polar Surface Area    20.2
   Heavy Atom Count                  9
   Formal Charge                     0
   Complexity                        80.6
   Isotope Atom Count                0
   Defined Atom Stereocenter Count   0
   Undefined Atom Stereocenter Count 0
   Defined Bond Stereocenter Count   0
   Undefined Bond Stereocenter Count 0
   Covalently-Bonded Unit Count      1
   Feature 3D Donor Count            1
   Feature 3D Hydrophobe Count       1
   Feature 3D Ring Count             1
   Effective Rotor Count             1
   Conformer Sampling RMSD           0.4
   CID Conformer Count               [10]4

References

   1. http://toxnet.nlm.nih.gov/cgi-bin/sis/search/r?dbs+hsdb:@term+@rn+@rel+620-17-7
   2. http://toxnet.nlm.nih.gov/cgi-bin/sis/search/r?dbs+hsdb:@term+@rn+@rel+620-17-7
   3. http://toxnet.nlm.nih.gov/cgi-bin/sis/search/r?dbs+hsdb:@term+@rn+@rel+620-17-7
   4. http://toxnet.nlm.nih.gov/cgi-bin/sis/search/r?dbs+hsdb:@term+@rn+@rel+620-17-7
   5. http://toxnet.nlm.nih.gov/cgi-bin/sis/search/r?dbs+hsdb:@term+@rn+@rel+620-17-7
   6. http://toxnet.nlm.nih.gov/cgi-bin/sis/search/r?dbs+hsdb:@term+@rn+@rel+620-17-7
   7. http://toxnet.nlm.nih.gov/cgi-bin/sis/search/r?dbs+hsdb:@term+@rn+@rel+620-17-7
   8. http://toxnet.nlm.nih.gov/cgi-bin/sis/search/r?dbs+hsdb:@term+@rn+@rel+620-17-7
   9. http://toxnet.nlm.nih.gov/cgi-bin/sis/search/r?dbs+hsdb:@term+@rn+@rel+620-17-7
  10. http://pubchem.ncbi.nlm.nih.gov/vw3d/vw3d.cgi?cid=12101
