10237
  -OEChem-07051212572D

 44 49  0     1  0  0  0  0  0999 V2000
    5.4110    0.2615    0.0000 O   0  0  0  0  0  0  0  0  0  0  0  0
    8.1603   -1.5426    0.0000 O   0  0  0  0  0  0  0  0  0  0  0  0
    8.1603   -3.1521    0.0000 O   0  0  0  0  0  0  0  0  0  0  0  0
    3.5786    2.9664    0.0000 O   0  0  0  0  0  0  0  0  0  0  0  0
    2.0000    2.6528    0.0000 O   0  0  0  0  0  0  0  0  0  0  0  0
    5.7171    2.0113    0.0000 O   0  0  0  0  0  0  0  0  0  0  0  0
    3.6820   -1.8265    0.0000 N   0  0  3  0  0  0  0  0  0  0  0  0
    4.5880   -1.3127    0.0000 C   0  0  2  0  0  0  0  0  0  0  0  0
    4.5996   -0.3128    0.0000 C   0  0  1  0  0  0  0  0  0  0  0  0
    5.4820   -1.8474    0.0000 C   0  0  0  0  0  0  0  0  0  0  0  0
    3.6820   -2.8682    0.0000 C   0  0  0  0  0  0  0  0  0  0  0  0
    5.4820   -2.8474    0.0000 C   0  0  0  0  0  0  0  0  0  0  0  0
    4.5880   -3.3820    0.0000 C   0  0  0  0  0  0  0  0  0  0  0  0
    3.8017    0.2801    0.0000 C   0  0  0  0  0  0  0  0  0  0  0  0
    4.1233    1.2270    0.0000 C   0  0  0  0  0  0  0  0  0  0  0  0
    6.3480   -1.3474    0.0000 C   0  0  0  0  0  0  0  0  0  0  0  0
    2.8179   -1.3232    0.0000 C   0  0  0  0  0  0  0  0  0  0  0  0
    6.3480   -3.3474    0.0000 C   0  0  0  0  0  0  0  0  0  0  0  0
    5.1173    1.2112    0.0000 C   0  0  0  0  0  0  0  0  0  0  0  0
    7.2140   -1.8474    0.0000 C   0  0  0  0  0  0  0  0  0  0  0  0
    2.8209    0.0852    0.0000 C   0  0  0  0  0  0  0  0  0  0  0  0
    7.2140   -2.8474    0.0000 C   0  0  0  0  0  0  0  0  0  0  0  0
    3.4641    1.9790    0.0000 C   0  0  0  0  0  0  0  0  0  0  0  0
    2.4833    1.7841    0.0000 C   0  0  0  0  0  0  0  0  0  0  0  0
    2.1617    0.8372    0.0000 C   0  0  0  0  0  0  0  0  0  0  0  0
    8.7439   -2.3474    0.0000 C   0  0  0  0  0  0  0  0  0  0  0  0
    2.6756    3.3820    0.0000 C   0  0  0  0  0  0  0  0  0  0  0  0
    3.8561   -0.8806    0.0000 H   0  0  0  0  0  0  0  0  0  0  0  0
    5.3523   -0.7077    0.0000 H   0  0  0  0  0  0  0  0  0  0  0  0
    3.0711   -2.7621    0.0000 H   0  0  0  0  0  0  0  0  0  0  0  0
    3.4729   -3.4519    0.0000 H   0  0  0  0  0  0  0  0  0  0  0  0
    4.1944   -3.8610    0.0000 H   0  0  0  0  0  0  0  0  0  0  0  0
    4.9926   -3.8518    0.0000 H   0  0  0  0  0  0  0  0  0  0  0  0
    6.3480   -0.7273    0.0000 H   0  0  0  0  0  0  0  0  0  0  0  0
    3.1300   -0.7875    0.0000 H   0  0  0  0  0  0  0  0  0  0  0  0
    2.2822   -1.0111    0.0000 H   0  0  0  0  0  0  0  0  0  0  0  0
    2.5058   -1.8589    0.0000 H   0  0  0  0  0  0  0  0  0  0  0  0
    6.3480   -3.9674    0.0000 H   0  0  0  0  0  0  0  0  0  0  0  0
    2.6214   -0.5018    0.0000 H   0  0  0  0  0  0  0  0  0  0  0  0
    1.5536    0.7164    0.0000 H   0  0  0  0  0  0  0  0  0  0  0  0
    9.2047   -2.7621    0.0000 H   0  0  0  0  0  0  0  0  0  0  0  0
    9.2047   -1.9326    0.0000 H   0  0  0  0  0  0  0  0  0  0  0  0
    2.9925    3.9149    0.0000 H   0  0  0  0  0  0  0  0  0  0  0  0
    2.1790    3.7532    0.0000 H   0  0  0  0  0  0  0  0  0  0  0  0
  1  9  1  0  0  0  0
  1 19  1  0  0  0  0
  2 20  1  0  0  0  0
  2 26  1  0  0  0  0
  3 22  1  0  0  0  0
  3 26  1  0  0  0  0
  4 23  1  0  0  0  0
  4 27  1  0  0  0  0
  5 24  1  0  0  0  0
  5 27  1  0  0  0  0
  6 19  2  0  0  0  0
  7  8  1  0  0  0  0
  7 11  1  0  0  0  0
  7 17  1  0  0  0  0
  8  9  1  0  0  0  0
  8 10  1  0  0  0  0
  8 28  1  1  0  0  0
  9 14  1  0  0  0  0
  9 29  1  6  0  0  0
 10 12  1  0  0  0  0
 10 16  2  0  0  0  0
 11 13  1  0  0  0  0
 11 30  1  0  0  0  0
 11 31  1  0  0  0  0
 12 13  1  0  0  0  0
 12 18  2  0  0  0  0
 13 32  1  0  0  0  0
 13 33  1  0  0  0  0
 14 15  2  0  0  0  0
 14 21  1  0  0  0  0
 15 19  1  0  0  0  0
 15 23  1  0  0  0  0
 16 20  1  0  0  0  0
 16 34  1  0  0  0  0
 17 35  1  0  0  0  0
 17 36  1  0  0  0  0
 17 37  1  0  0  0  0
 18 22  1  0  0  0  0
 18 38  1  0  0  0  0
 20 22  2  0  0  0  0
 21 25  2  0  0  0  0
 21 39  1  0  0  0  0
 23 24  2  0  0  0  0
 24 25  1  0  0  0  0
 25 40  1  0  0  0  0
 26 41  1  0  0  0  0
 26 42  1  0  0  0  0
 27 43  1  0  0  0  0
 27 44  1  0  0  0  0
M  END
> <PUBCHEM_COMPOUND_CID>
10237

> <PUBCHEM_COMPOUND_CANONICALIZED>
1

> <PUBCHEM_CACTVS_COMPLEXITY>
615

> <PUBCHEM_CACTVS_HBOND_ACCEPTOR>
7

> <PUBCHEM_CACTVS_HBOND_DONOR>
0

> <PUBCHEM_CACTVS_ROTATABLE_BOND>
1

> <PUBCHEM_CACTVS_SUBSKEYS>
AAADceB6OAAAAAAAAAAAAAAAAAAAASJEgAA8YIAAAAAAAEixQAAAHgAAAAAADDzhmAcyDoMABACIAiDSCACCCAAkIAAIiAEOjMgfJzaEtRunMWpl4BGeqQf6+f+eoAABAAAYQABAAAIAADCAAAAAAAAAAA==

> <PUBCHEM_IUPAC_OPENEYE_NAME>
(6R)-6-[(5S)-6-methyl-7,8-dihydro-5H-[1,3]dioxolo[4,5-g]isoquinolin-5-yl]-6H-furo[3,4-g][1,3]benzodioxol-8-one

> <PUBCHEM_IUPAC_CAS_NAME>
(6R)-6-[(5S)-6-methyl-7,8-dihydro-5H-[1,3]dioxolo[4,5-g]isoquinolin-5-yl]-6H-furo[3,4-g][1,3]benzodioxol-8-one

> <PUBCHEM_IUPAC_NAME>
(6R)-6-[(5S)-6-methyl-7,8-dihydro-5H-[1,3]dioxolo[4,5-g]isoquinolin-5-yl]-6H-furo[3,4-g][1,3]benzodioxol-8-one

> <PUBCHEM_IUPAC_SYSTEMATIC_NAME>
(6R)-6-[(5S)-6-methyl-7,8-dihydro-5H-[1,3]dioxolo[4,5-g]isoquinolin-5-yl]-6H-furo[3,4-g][1,3]benzodioxol-8-one

> <PUBCHEM_IUPAC_TRADITIONAL_NAME>
(6R)-6-[(5S)-6-methyl-7,8-dihydro-5H-[1,3]dioxol[4,5-g]isoquinolin-5-yl]-6H-furo[3,4-g][1,3]benzodioxol-8-one

> <PUBCHEM_IUPAC_INCHI>
InChI=1S/C20H17NO6/c1-21-5-4-10-6-14-15(25-8-24-14)7-12(10)17(21)18-11-2-3-13-19(26-9-23-13)16(11)20(22)27-18/h2-3,6-7,17-18H,4-5,8-9H2,1H3/t17-,18+/m0/s1

> <PUBCHEM_IUPAC_INCHIKEY>
IYGYMKDQCDOMRE-ZWKOTPCHSA-N

> <PUBCHEM_XLOGP3_AA>
2.6

> <PUBCHEM_EXACT_MASS>
367.105587

> <PUBCHEM_MOLECULAR_FORMULA>
C20H17NO6

> <PUBCHEM_MOLECULAR_WEIGHT>
367.35208

> <PUBCHEM_OPENEYE_CAN_SMILES>
CN1CCC2=CC3=C(C=C2C1C4C5=C(C6=C(C=C5)OCO6)C(=O)O4)OCO3

> <PUBCHEM_OPENEYE_ISO_SMILES>
CN1CCC2=CC3=C(C=C2[C@H]1[C@H]4C5=C(C6=C(C=C5)OCO6)C(=O)O4)OCO3

> <PUBCHEM_CACTVS_TPSA>
66.5

> <PUBCHEM_MONOISOTOPIC_WEIGHT>
367.105587

> <PUBCHEM_TOTAL_CHARGE>
0

> <PUBCHEM_HEAVY_ATOM_COUNT>
27

> <PUBCHEM_ATOM_DEF_STEREO_COUNT>
2

> <PUBCHEM_ATOM_UDEF_STEREO_COUNT>
0

> <PUBCHEM_BOND_DEF_STEREO_COUNT>
0

> <PUBCHEM_BOND_UDEF_STEREO_COUNT>
0

> <PUBCHEM_ISOTOPIC_ATOM_COUNT>
0

> <PUBCHEM_COMPONENT_COUNT>
1

> <PUBCHEM_CACTVS_TAUTO_COUNT>
1

> <PUBCHEM_COORDINATE_TYPE>
1
5
255

> <PUBCHEM_BONDANNOTATIONS>
10  12  8
10  16  8
12  18  8
14  15  8
14  21  8
15  23  8
16  20  8
18  22  8
20  22  8
21  25  8
23  24  8
24  25  8
8  28  5
9  29  6

$$$$

