72819
  -OEChem-07051213002D

 33 35  0     0  0  0  0  0  0999 V2000
    3.9061    0.7500    0.0000 O   0  0  0  0  0  0  0  0  0  0  0  0
    5.6660   -2.2846    0.0000 O   0  0  0  0  0  0  0  0  0  0  0  0
    6.5320   -0.7846    0.0000 N   0  0  0  0  0  0  0  0  0  0  0  0
    3.0000    0.2362    0.0000 C   0  0  0  0  0  0  0  0  0  0  0  0
    4.8000    0.2154    0.0000 C   0  0  0  0  0  0  0  0  0  0  0  0
    4.8000   -0.7846    0.0000 C   0  0  0  0  0  0  0  0  0  0  0  0
    5.6660    0.7154    0.0000 C   0  0  0  0  0  0  0  0  0  0  0  0
    3.0000   -0.8054    0.0000 C   0  0  0  0  0  0  0  0  0  0  0  0
    6.5320    0.2154    0.0000 C   0  0  0  0  0  0  0  0  0  0  0  0
    3.9061   -1.3193    0.0000 C   0  0  0  0  0  0  0  0  0  0  0  0
    2.0000    0.2400    0.0000 C   0  0  0  0  0  0  0  0  0  0  0  0
    2.5033    1.1041    0.0000 C   0  0  0  0  0  0  0  0  0  0  0  0
    5.6660   -1.2846    0.0000 C   0  0  0  0  0  0  0  0  0  0  0  0
    5.6500    1.7569    0.0000 C   0  0  0  0  0  0  0  0  0  0  0  0
    7.4420    0.7222    0.0000 C   0  0  0  0  0  0  0  0  0  0  0  0
    7.3981   -1.2846    0.0000 C   0  0  0  0  0  0  0  0  0  0  0  0
    6.5480    2.2846    0.0000 C   0  0  0  0  0  0  0  0  0  0  0  0
    7.4501    1.7638    0.0000 C   0  0  0  0  0  0  0  0  0  0  0  0
    2.4643   -1.1175    0.0000 H   0  0  0  0  0  0  0  0  0  0  0  0
    3.9132   -1.9392    0.0000 H   0  0  0  0  0  0  0  0  0  0  0  0
    3.0415    1.4121    0.0000 H   0  0  0  0  0  0  0  0  0  0  0  0
    2.1954    1.6423    0.0000 H   0  0  0  0  0  0  0  0  0  0  0  0
    1.9652    0.7962    0.0000 H   0  0  0  0  0  0  0  0  0  0  0  0
    2.0024    0.8600    0.0000 H   0  0  0  0  0  0  0  0  0  0  0  0
    1.3800    0.2424    0.0000 H   0  0  0  0  0  0  0  0  0  0  0  0
    1.9976   -0.3800    0.0000 H   0  0  0  0  0  0  0  0  0  0  0  0
    5.1095    2.0606    0.0000 H   0  0  0  0  0  0  0  0  0  0  0  0
    7.9754    0.4060    0.0000 H   0  0  0  0  0  0  0  0  0  0  0  0
    7.0881   -1.8216    0.0000 H   0  0  0  0  0  0  0  0  0  0  0  0
    7.9350   -1.5946    0.0000 H   0  0  0  0  0  0  0  0  0  0  0  0
    7.7081   -0.7477    0.0000 H   0  0  0  0  0  0  0  0  0  0  0  0
    6.5456    2.9046    0.0000 H   0  0  0  0  0  0  0  0  0  0  0  0
    7.9882    2.0717    0.0000 H   0  0  0  0  0  0  0  0  0  0  0  0
  1  4  1  0  0  0  0
  1  5  1  0  0  0  0
  2 13  2  0  0  0  0
  3  9  1  0  0  0  0
  3 13  1  0  0  0  0
  3 16  1  0  0  0  0
  4  8  1  0  0  0  0
  4 11  1  0  0  0  0
  4 12  1  0  0  0  0
  5  6  2  0  0  0  0
  5  7  1  0  0  0  0
  6 10  1  0  0  0  0
  6 13  1  0  0  0  0
  7  9  1  0  0  0  0
  7 14  2  0  0  0  0
  8 10  2  0  0  0  0
  8 19  1  0  0  0  0
  9 15  2  0  0  0  0
 10 20  1  0  0  0  0
 11 24  1  0  0  0  0
 11 25  1  0  0  0  0
 11 26  1  0  0  0  0
 12 21  1  0  0  0  0
 12 22  1  0  0  0  0
 12 23  1  0  0  0  0
 14 17  1  0  0  0  0
 14 27  1  0  0  0  0
 15 18  1  0  0  0  0
 15 28  1  0  0  0  0
 16 29  1  0  0  0  0
 16 30  1  0  0  0  0
 16 31  1  0  0  0  0
 17 18  2  0  0  0  0
 17 32  1  0  0  0  0
 18 33  1  0  0  0  0
M  END
> <PUBCHEM_COMPOUND_CID>
72819

> <PUBCHEM_COMPOUND_CANONICALIZED>
1

> <PUBCHEM_CACTVS_COMPLEXITY>
447

> <PUBCHEM_CACTVS_HBOND_ACCEPTOR>
2

> <PUBCHEM_CACTVS_HBOND_DONOR>
0

> <PUBCHEM_CACTVS_ROTATABLE_BOND>
0

> <PUBCHEM_CACTVS_SUBSKEYS>
AAADccByMAAAAAAAAAAAAAAAAAAAAAAAAAAwQIAAAAAAAACBAAAAHgAAAAAADEyBmAQywIMABACIAiVSUACCCAAhIgAIiAEIbMgIJiLAsZmGMAhmxgHI6QeQwCAOAAAAAAACAAAAAAAAAAQAAAAAAAAAAA==

> <PUBCHEM_IUPAC_OPENEYE_NAME>
2,2,6-trimethylpyrano[3,2-c]quinolin-5-one

> <PUBCHEM_IUPAC_CAS_NAME>
2,2,6-trimethyl-5-pyrano[3,2-c]quinolinone

> <PUBCHEM_IUPAC_NAME>
2,2,6-trimethylpyrano[3,2-c]quinolin-5-one

> <PUBCHEM_IUPAC_SYSTEMATIC_NAME>
2,2,6-trimethylpyrano[3,2-c]quinolin-5-one

> <PUBCHEM_IUPAC_TRADITIONAL_NAME>
2,2,6-trimethylpyrano[3,2-c]quinolin-5-one

> <PUBCHEM_IUPAC_INCHI>
InChI=1S/C15H15NO2/c1-15(2)9-8-11-13(18-15)10-6-4-5-7-12(10)16(3)14(11)17/h4-9H,1-3H3

> <PUBCHEM_IUPAC_INCHIKEY>
RJZFGBNKPOVCHQ-UHFFFAOYSA-N

> <PUBCHEM_XLOGP3_AA>
2.2

> <PUBCHEM_EXACT_MASS>
241.110279

> <PUBCHEM_MOLECULAR_FORMULA>
C15H15NO2

> <PUBCHEM_MOLECULAR_WEIGHT>
241.2851

> <PUBCHEM_OPENEYE_CAN_SMILES>
CC1(C=CC2=C(O1)C3=CC=CC=C3N(C2=O)C)C

> <PUBCHEM_OPENEYE_ISO_SMILES>
CC1(C=CC2=C(O1)C3=CC=CC=C3N(C2=O)C)C

> <PUBCHEM_CACTVS_TPSA>
29.5

> <PUBCHEM_MONOISOTOPIC_WEIGHT>
241.110279

> <PUBCHEM_TOTAL_CHARGE>
0

> <PUBCHEM_HEAVY_ATOM_COUNT>
18

> <PUBCHEM_ATOM_DEF_STEREO_COUNT>
0

> <PUBCHEM_ATOM_UDEF_STEREO_COUNT>
0

> <PUBCHEM_BOND_DEF_STEREO_COUNT>
0

> <PUBCHEM_BOND_UDEF_STEREO_COUNT>
0

> <PUBCHEM_ISOTOPIC_ATOM_COUNT>
0

> <PUBCHEM_COMPONENT_COUNT>
1

> <PUBCHEM_CACTVS_TAUTO_COUNT>
1

> <PUBCHEM_COORDINATE_TYPE>
1
5
255

> <PUBCHEM_BONDANNOTATIONS>
14  17  8
15  18  8
17  18  8
3  13  8
3  9  8
5  6  8
5  7  8
6  13  8
7  14  8
7  9  8
9  15  8

$$$$

