441960
  -OEChem-07051212562D

 40 42  0     1  0  0  0  0  0999 V2000
    8.7460   -1.5374    0.0000 O   0  0  0  0  0  0  0  0  0  0  0  0
   11.3297   -0.7327    0.0000 O   0  0  0  0  0  0  0  0  0  0  0  0
    6.9338    1.2673    0.0000 O   0  0  0  0  0  0  0  0  0  0  0  0
    5.1738   -1.7673    0.0000 O   0  0  0  0  0  0  0  0  0  0  0  0
    5.1854    1.3019    0.0000 O   0  0  0  0  0  0  0  0  0  0  0  0
    2.5357   -1.2602    0.0000 O   0  0  0  0  0  0  0  0  0  0  0  0
    9.3297   -0.7327    0.0000 C   0  0  2  0  0  0  0  0  0  0  0  0
   10.3297   -0.7327    0.0000 C   0  0  0  0  0  0  0  0  0  0  0  0
    8.7460    0.0721    0.0000 C   0  0  0  0  0  0  0  0  0  0  0  0
    7.7998   -0.2327    0.0000 C   0  0  0  0  0  0  0  0  0  0  0  0
    7.7998   -1.2327    0.0000 C   0  0  0  0  0  0  0  0  0  0  0  0
   10.3297   -1.7327    0.0000 C   0  0  0  0  0  0  0  0  0  0  0  0
   10.3297    0.2673    0.0000 C   0  0  0  0  0  0  0  0  0  0  0  0
    6.9338    0.2673    0.0000 C   0  0  0  0  0  0  0  0  0  0  0  0
    6.9338   -1.7327    0.0000 C   0  0  0  0  0  0  0  0  0  0  0  0
    6.0678   -0.2327    0.0000 C   0  0  0  0  0  0  0  0  0  0  0  0
    6.0678   -1.2327    0.0000 C   0  0  0  0  0  0  0  0  0  0  0  0
    5.1738    0.3020    0.0000 C   0  0  0  0  0  0  0  0  0  0  0  0
    4.2678   -1.2535    0.0000 C   0  0  0  0  0  0  0  0  0  0  0  0
    4.2678   -0.2119    0.0000 C   0  0  0  0  0  0  0  0  0  0  0  0
    7.7998    1.7673    0.0000 C   0  0  0  0  0  0  0  0  0  0  0  0
    3.4037   -1.7568    0.0000 C   0  0  0  0  0  0  0  0  0  0  0  0
    9.7159   -1.4899    0.0000 H   0  0  0  0  0  0  0  0  0  0  0  0
    9.2834    0.3813    0.0000 H   0  0  0  0  0  0  0  0  0  0  0  0
    8.4950    0.6390    0.0000 H   0  0  0  0  0  0  0  0  0  0  0  0
    9.7097   -1.7327    0.0000 H   0  0  0  0  0  0  0  0  0  0  0  0
   10.3297   -2.3527    0.0000 H   0  0  0  0  0  0  0  0  0  0  0  0
   10.9497   -1.7327    0.0000 H   0  0  0  0  0  0  0  0  0  0  0  0
   10.9497    0.2673    0.0000 H   0  0  0  0  0  0  0  0  0  0  0  0
   10.3297    0.8873    0.0000 H   0  0  0  0  0  0  0  0  0  0  0  0
    9.7097    0.2673    0.0000 H   0  0  0  0  0  0  0  0  0  0  0  0
    6.9338   -2.3527    0.0000 H   0  0  0  0  0  0  0  0  0  0  0  0
   11.6397   -1.2696    0.0000 H   0  0  0  0  0  0  0  0  0  0  0  0
    3.7320    0.1002    0.0000 H   0  0  0  0  0  0  0  0  0  0  0  0
    8.1098    1.2304    0.0000 H   0  0  0  0  0  0  0  0  0  0  0  0
    8.3368    2.0773    0.0000 H   0  0  0  0  0  0  0  0  0  0  0  0
    7.4898    2.3043    0.0000 H   0  0  0  0  0  0  0  0  0  0  0  0
    3.0070   -2.2333    0.0000 H   0  0  0  0  0  0  0  0  0  0  0  0
    3.8040   -2.2302    0.0000 H   0  0  0  0  0  0  0  0  0  0  0  0
    2.0000   -1.5722    0.0000 H   0  0  0  0  0  0  0  0  0  0  0  0
  1  7  1  0  0  0  0
  1 11  1  0  0  0  0
  2  8  1  0  0  0  0
  2 33  1  0  0  0  0
  3 14  1  0  0  0  0
  3 21  1  0  0  0  0
  4 17  1  0  0  0  0
  4 19  1  0  0  0  0
  5 18  2  0  0  0  0
  6 22  1  0  0  0  0
  6 40  1  0  0  0  0
  7  8  1  0  0  0  0
  7  9  1  0  0  0  0
  7 23  1  6  0  0  0
  8 12  1  0  0  0  0
  8 13  1  0  0  0  0
  9 10  1  0  0  0  0
  9 24  1  0  0  0  0
  9 25  1  0  0  0  0
 10 11  2  0  0  0  0
 10 14  1  0  0  0  0
 11 15  1  0  0  0  0
 12 26  1  0  0  0  0
 12 27  1  0  0  0  0
 12 28  1  0  0  0  0
 13 29  1  0  0  0  0
 13 30  1  0  0  0  0
 13 31  1  0  0  0  0
 14 16  2  0  0  0  0
 15 17  2  0  0  0  0
 15 32  1  0  0  0  0
 16 17  1  0  0  0  0
 16 18  1  0  0  0  0
 18 20  1  0  0  0  0
 19 20  2  0  0  0  0
 19 22  1  0  0  0  0
 20 34  1  0  0  0  0
 21 35  1  0  0  0  0
 21 36  1  0  0  0  0
 21 37  1  0  0  0  0
 22 38  1  0  0  0  0
 22 39  1  0  0  0  0
M  END
> <PUBCHEM_COMPOUND_CID>
441960

> <PUBCHEM_COMPOUND_CANONICALIZED>
1

> <PUBCHEM_CACTVS_COMPLEXITY>
485

> <PUBCHEM_CACTVS_HBOND_ACCEPTOR>
6

> <PUBCHEM_CACTVS_HBOND_DONOR>
2

> <PUBCHEM_CACTVS_ROTATABLE_BOND>
3

> <PUBCHEM_CACTVS_SUBSKEYS>
AAADceB4OAAAAAAAAAAAAAAAAAAAASAAAAAwQAAAAAAAAEiBAAAAGgAACAAADFSgmAIyBoAABgCIAqBSAAACCAAkIAAAiAEGCMgNNzaENRqCeWCl4BULuQfI7PzOIAACCAAIAABAAAQQABAAAAAAAAAAAA==

> <PUBCHEM_IUPAC_OPENEYE_NAME>
(2S)-7-(hydroxymethyl)-2-(1-hydroxy-1-methyl-ethyl)-4-methoxy-2,3-dihydrofuro[3,2-g]chromen-5-one

> <PUBCHEM_IUPAC_CAS_NAME>
(2S)-7-(hydroxymethyl)-2-(2-hydroxypropan-2-yl)-4-methoxy-2,3-dihydrofuro[3,2-g][1]benzopyran-5-one

> <PUBCHEM_IUPAC_NAME>
(2S)-7-(hydroxymethyl)-2-(2-hydroxypropan-2-yl)-4-methoxy-2,3-dihydrofuro[3,2-g]chromen-5-one

> <PUBCHEM_IUPAC_SYSTEMATIC_NAME>
(2S)-7-(hydroxymethyl)-4-methoxy-2-(2-oxidanylpropan-2-yl)-2,3-dihydrofuro[3,2-g]chromen-5-one

> <PUBCHEM_IUPAC_TRADITIONAL_NAME>
(2S)-2-(1-hydroxy-1-methyl-ethyl)-4-methoxy-7-methylol-2,3-dihydrofuro[3,2-g]chromen-5-one

> <PUBCHEM_IUPAC_INCHI>
InChI=1S/C16H18O6/c1-16(2,19)13-5-9-11(22-13)6-12-14(15(9)20-3)10(18)4-8(7-17)21-12/h4,6,13,17,19H,5,7H2,1-3H3/t13-/m0/s1

> <PUBCHEM_IUPAC_INCHIKEY>
ATDBDSBKYKMRGZ-ZDUSSCGKSA-N

> <PUBCHEM_XLOGP3_AA>
0.6

> <PUBCHEM_EXACT_MASS>
306.110338

> <PUBCHEM_MOLECULAR_FORMULA>
C16H18O6

> <PUBCHEM_MOLECULAR_WEIGHT>
306.31052

> <PUBCHEM_OPENEYE_CAN_SMILES>
CC(C)(C1CC2=C(O1)C=C3C(=C2OC)C(=O)C=C(O3)CO)O

> <PUBCHEM_OPENEYE_ISO_SMILES>
CC(C)([C@@H]1CC2=C(O1)C=C3C(=C2OC)C(=O)C=C(O3)CO)O

> <PUBCHEM_CACTVS_TPSA>
85.2

> <PUBCHEM_MONOISOTOPIC_WEIGHT>
306.110338

> <PUBCHEM_TOTAL_CHARGE>
0

> <PUBCHEM_HEAVY_ATOM_COUNT>
22

> <PUBCHEM_ATOM_DEF_STEREO_COUNT>
1

> <PUBCHEM_ATOM_UDEF_STEREO_COUNT>
0

> <PUBCHEM_BOND_DEF_STEREO_COUNT>
0

> <PUBCHEM_BOND_UDEF_STEREO_COUNT>
0

> <PUBCHEM_ISOTOPIC_ATOM_COUNT>
0

> <PUBCHEM_COMPONENT_COUNT>
1

> <PUBCHEM_CACTVS_TAUTO_COUNT>
1

> <PUBCHEM_COORDINATE_TYPE>
1
5
255

> <PUBCHEM_BONDANNOTATIONS>
10  11  8
10  14  8
11  15  8
14  16  8
15  17  8
16  17  8
16  18  8
18  20  8
19  20  8
4  17  8
4  19  8
7  23  6

$$$$

