114868
  -OEChem-07051213132D

 24 25  0     0  0  0  0  0  0999 V2000
    2.0000    0.0000    0.0000 Br  0  0  0  0  0  0  0  0  0  0  0  0
    3.7320    3.0000    0.0000 Cl  0  0  0  0  0  0  0  0  0  0  0  0
    3.7320   -1.0000    0.0000 O   0  0  0  0  0  0  0  0  0  0  0  0
    2.0000   -1.0000    0.0000 O   0  0  0  0  0  0  0  0  0  0  0  0
    5.4920   -0.0347    0.0000 N   0  0  0  0  0  0  0  0  0  0  0  0
    4.5981    1.5000    0.0000 C   0  0  0  0  0  0  0  0  0  0  0  0
    4.5981    0.5000    0.0000 C   0  0  0  0  0  0  0  0  0  0  0  0
    3.7320    0.0000    0.0000 C   0  0  0  0  0  0  0  0  0  0  0  0
    3.7320    2.0000    0.0000 C   0  0  0  0  0  0  0  0  0  0  0  0
    5.4920    2.0347    0.0000 C   0  0  0  0  0  0  0  0  0  0  0  0
    2.8660    0.5000    0.0000 C   0  0  0  0  0  0  0  0  0  0  0  0
    2.8660    1.5000    0.0000 C   0  0  0  0  0  0  0  0  0  0  0  0
    6.3981    1.5208    0.0000 C   0  0  0  0  0  0  0  0  0  0  0  0
    6.3981    0.4792    0.0000 C   0  0  0  0  0  0  0  0  0  0  0  0
    2.8660   -1.5000    0.0000 C   0  0  0  0  0  0  0  0  0  0  0  0
    2.8660   -2.5000    0.0000 C   0  0  0  0  0  0  0  0  0  0  0  0
    2.0000   -3.0000    0.0000 C   0  0  0  0  0  0  0  0  0  0  0  0
    5.4848    2.6546    0.0000 H   0  0  0  0  0  0  0  0  0  0  0  0
    2.3291    1.8100    0.0000 H   0  0  0  0  0  0  0  0  0  0  0  0
    6.9338    1.8329    0.0000 H   0  0  0  0  0  0  0  0  0  0  0  0
    6.9338    0.1671    0.0000 H   0  0  0  0  0  0  0  0  0  0  0  0
    3.4030   -2.8100    0.0000 H   0  0  0  0  0  0  0  0  0  0  0  0
    1.4631   -2.6900    0.0000 H   0  0  0  0  0  0  0  0  0  0  0  0
    2.0000   -3.6200    0.0000 H   0  0  0  0  0  0  0  0  0  0  0  0
  1 11  1  0  0  0  0
  2  9  1  0  0  0  0
  3  8  1  0  0  0  0
  3 15  1  0  0  0  0
  4 15  2  0  0  0  0
  5  7  1  0  0  0  0
  5 14  2  0  0  0  0
  6  7  2  0  0  0  0
  6  9  1  0  0  0  0
  6 10  1  0  0  0  0
  7  8  1  0  0  0  0
  8 11  2  0  0  0  0
  9 12  2  0  0  0  0
 10 13  2  0  0  0  0
 10 18  1  0  0  0  0
 11 12  1  0  0  0  0
 12 19  1  0  0  0  0
 13 14  1  0  0  0  0
 13 20  1  0  0  0  0
 14 21  1  0  0  0  0
 15 16  1  0  0  0  0
 16 17  2  0  0  0  0
 16 22  1  0  0  0  0
 17 23  1  0  0  0  0
 17 24  1  0  0  0  0
M  END
> <PUBCHEM_COMPOUND_CID>
114868

> <PUBCHEM_COMPOUND_CANONICALIZED>
1

> <PUBCHEM_CACTVS_COMPLEXITY>
313

> <PUBCHEM_CACTVS_HBOND_ACCEPTOR>
3

> <PUBCHEM_CACTVS_HBOND_DONOR>
0

> <PUBCHEM_CACTVS_ROTATABLE_BOND>
3

> <PUBCHEM_CACTVS_SUBSKEYS>
AAADcYByMAAEEAAAAAAAAAAAAAAAAAAAAAA8QAAAAAAAAACx8AAAHgJAAAABrA7BniQ8zvIIFACoAzT3TASCiCAxZyQI2CA9bvgOJuLFs5uHOijkwBHY6peQwLAOAiABAANDFAAEQAIABoYoAAAAAAAAAA==

> <PUBCHEM_IUPAC_OPENEYE_NAME>
(7-bromo-5-chloro-8-quinolyl) prop-2-enoate

> <PUBCHEM_IUPAC_CAS_NAME>
2-propenoic acid (7-bromo-5-chloro-8-quinolinyl) ester

> <PUBCHEM_IUPAC_NAME>
(7-bromo-5-chloroquinolin-8-yl) prop-2-enoate

> <PUBCHEM_IUPAC_SYSTEMATIC_NAME>
(7-bromanyl-5-chloranyl-quinolin-8-yl) prop-2-enoate

> <PUBCHEM_IUPAC_TRADITIONAL_NAME>
acrylic acid (7-bromo-5-chloro-8-quinolyl) ester

> <PUBCHEM_IUPAC_INCHI>
InChI=1S/C12H7BrClNO2/c1-2-10(16)17-12-8(13)6-9(14)7-4-3-5-15-11(7)12/h2-6H,1H2

> <PUBCHEM_IUPAC_INCHIKEY>
YDNLKBDXQCHOTH-UHFFFAOYSA-N

> <PUBCHEM_XLOGP3_AA>
3.9

> <PUBCHEM_EXACT_MASS>
310.934868

> <PUBCHEM_MOLECULAR_FORMULA>
C12H7BrClNO2

> <PUBCHEM_MOLECULAR_WEIGHT>
312.54648

> <PUBCHEM_OPENEYE_CAN_SMILES>
C=CC(=O)OC1=C(C=C(C2=C1N=CC=C2)Cl)Br

> <PUBCHEM_OPENEYE_ISO_SMILES>
C=CC(=O)OC1=C(C=C(C2=C1N=CC=C2)Cl)Br

> <PUBCHEM_CACTVS_TPSA>
39.2

> <PUBCHEM_MONOISOTOPIC_WEIGHT>
310.934868

> <PUBCHEM_TOTAL_CHARGE>
0

> <PUBCHEM_HEAVY_ATOM_COUNT>
17

> <PUBCHEM_ATOM_DEF_STEREO_COUNT>
0

> <PUBCHEM_ATOM_UDEF_STEREO_COUNT>
0

> <PUBCHEM_BOND_DEF_STEREO_COUNT>
0

> <PUBCHEM_BOND_UDEF_STEREO_COUNT>
0

> <PUBCHEM_ISOTOPIC_ATOM_COUNT>
0

> <PUBCHEM_COMPONENT_COUNT>
1

> <PUBCHEM_CACTVS_TAUTO_COUNT>
1

> <PUBCHEM_COORDINATE_TYPE>
1
5
255

> <PUBCHEM_BONDANNOTATIONS>
10  13  8
11  12  8
13  14  8
5  14  8
5  7  8
6  10  8
6  7  8
6  9  8
7  8  8
8  11  8
9  12  8

$$$$

