13477
  -OEChem-06261214362D

 38 39  0     0  0  0  0  0  0999 V2000
    4.5981   -0.0317    0.0000 P   0  0  0  0  0  0  0  0  0  0  0  0
    5.4641    0.4683    0.0000 O   0  0  0  0  0  0  0  0  0  0  0  0
    8.9561    0.5029    0.0000 O   0  0  0  0  0  0  0  0  0  0  0  0
    3.7320   -0.5317    0.0000 O   0  0  0  0  0  0  0  0  0  0  0  0
    4.0981    0.8343    0.0000 O   0  0  0  0  0  0  0  0  0  0  0  0
    5.0981   -0.8978    0.0000 O   0  0  0  0  0  0  0  0  0  0  0  0
   10.7263    0.4924    0.0000 O   0  0  0  0  0  0  0  0  0  0  0  0
    8.0622   -1.0317    0.0000 C   0  0  0  0  0  0  0  0  0  0  0  0
    8.0622   -0.0317    0.0000 C   0  0  0  0  0  0  0  0  0  0  0  0
    8.9561   -1.5664    0.0000 C   0  0  0  0  0  0  0  0  0  0  0  0
    6.3301   -0.0317    0.0000 C   0  0  0  0  0  0  0  0  0  0  0  0
    7.1962    0.4683    0.0000 C   0  0  0  0  0  0  0  0  0  0  0  0
    7.1962   -1.5317    0.0000 C   0  0  0  0  0  0  0  0  0  0  0  0
    6.3301   -1.0317    0.0000 C   0  0  0  0  0  0  0  0  0  0  0  0
    9.8622   -1.0526    0.0000 C   0  0  0  0  0  0  0  0  0  0  0  0
    8.9446   -2.5663    0.0000 C   0  0  0  0  0  0  0  0  0  0  0  0
    9.8622   -0.0109    0.0000 C   0  0  0  0  0  0  0  0  0  0  0  0
    2.8660   -0.0317    0.0000 C   0  0  0  0  0  0  0  0  0  0  0  0
    4.5981    1.7003    0.0000 C   0  0  0  0  0  0  0  0  0  0  0  0
    4.0981    2.5663    0.0000 C   0  0  0  0  0  0  0  0  0  0  0  0
    2.0000   -0.5317    0.0000 C   0  0  0  0  0  0  0  0  0  0  0  0
    7.1962    1.0883    0.0000 H   0  0  0  0  0  0  0  0  0  0  0  0
    7.1962   -2.1517    0.0000 H   0  0  0  0  0  0  0  0  0  0  0  0
    5.7932   -1.3417    0.0000 H   0  0  0  0  0  0  0  0  0  0  0  0
   10.3979   -1.3646    0.0000 H   0  0  0  0  0  0  0  0  0  0  0  0
    8.3246   -2.5592    0.0000 H   0  0  0  0  0  0  0  0  0  0  0  0
    8.9374   -3.1863    0.0000 H   0  0  0  0  0  0  0  0  0  0  0  0
    9.5645   -2.5735    0.0000 H   0  0  0  0  0  0  0  0  0  0  0  0
    3.2646    0.4432    0.0000 H   0  0  0  0  0  0  0  0  0  0  0  0
    2.4675    0.4432    0.0000 H   0  0  0  0  0  0  0  0  0  0  0  0
    5.0730    1.3018    0.0000 H   0  0  0  0  0  0  0  0  0  0  0  0
    5.0730    2.0988    0.0000 H   0  0  0  0  0  0  0  0  0  0  0  0
    4.6350    2.8763    0.0000 H   0  0  0  0  0  0  0  0  0  0  0  0
    3.7881    3.1033    0.0000 H   0  0  0  0  0  0  0  0  0  0  0  0
    3.5611    2.2563    0.0000 H   0  0  0  0  0  0  0  0  0  0  0  0
    1.6900    0.0052    0.0000 H   0  0  0  0  0  0  0  0  0  0  0  0
    1.4631   -0.8417    0.0000 H   0  0  0  0  0  0  0  0  0  0  0  0
    2.3100   -1.0687    0.0000 H   0  0  0  0  0  0  0  0  0  0  0  0
  1  2  1  0  0  0  0
  1  4  1  0  0  0  0
  1  5  1  0  0  0  0
  1  6  2  0  0  0  0
  2 11  1  0  0  0  0
  3  9  1  0  0  0  0
  3 17  1  0  0  0  0
  4 18  1  0  0  0  0
  5 19  1  0  0  0  0
  7 17  2  0  0  0  0
  8  9  2  0  0  0  0
  8 10  1  0  0  0  0
  8 13  1  0  0  0  0
  9 12  1  0  0  0  0
 10 15  2  0  0  0  0
 10 16  1  0  0  0  0
 11 12  2  0  0  0  0
 11 14  1  0  0  0  0
 12 22  1  0  0  0  0
 13 14  2  0  0  0  0
 13 23  1  0  0  0  0
 14 24  1  0  0  0  0
 15 17  1  0  0  0  0
 15 25  1  0  0  0  0
 16 26  1  0  0  0  0
 16 27  1  0  0  0  0
 16 28  1  0  0  0  0
 18 21  1  0  0  0  0
 18 29  1  0  0  0  0
 18 30  1  0  0  0  0
 19 20  1  0  0  0  0
 19 31  1  0  0  0  0
 19 32  1  0  0  0  0
 20 33  1  0  0  0  0
 20 34  1  0  0  0  0
 20 35  1  0  0  0  0
 21 36  1  0  0  0  0
 21 37  1  0  0  0  0
 21 38  1  0  0  0  0
M  END
> <PUBCHEM_COMPOUND_CID>
13477

> <PUBCHEM_COMPOUND_CANONICALIZED>
1

> <PUBCHEM_CACTVS_COMPLEXITY>
450

> <PUBCHEM_CACTVS_HBOND_ACCEPTOR>
6

> <PUBCHEM_CACTVS_HBOND_DONOR>
0

> <PUBCHEM_CACTVS_ROTATABLE_BOND>
6

> <PUBCHEM_CACTVS_SUBSKEYS>
AAADceBwOAIAAAAAAAAAAAAAAAAAAAAAAAAwQAAAAAAAAACBAAAAGgAAACAADASgmAIyDoAABRCIQiDSCIACCAAgIAAIiAAGCMgMJyKEMRqCOiClwBUIqQeA4KwOIAAACAAIAABAAAAQABAAAAAAAAAAAA==

> <PUBCHEM_IUPAC_OPENEYE_NAME>
diethyl (4-methyl-2-oxo-chromen-7-yl) phosphate

> <PUBCHEM_IUPAC_CAS_NAME>
phosphoric acid diethyl (4-methyl-2-oxo-1-benzopyran-7-yl) ester

> <PUBCHEM_IUPAC_NAME>
diethyl (4-methyl-2-oxochromen-7-yl) phosphate

> <PUBCHEM_IUPAC_SYSTEMATIC_NAME>
diethyl (4-methyl-2-oxidanylidene-chromen-7-yl) phosphate

> <PUBCHEM_IUPAC_TRADITIONAL_NAME>
phosphoric acid diethyl (2-keto-4-methyl-chromen-7-yl) ester

> <PUBCHEM_IUPAC_INCHI>
InChI=1S/C14H17O6P/c1-4-17-21(16,18-5-2)20-11-6-7-12-10(3)8-14(15)19-13(12)9-11/h6-9H,4-5H2,1-3H3

> <PUBCHEM_IUPAC_INCHIKEY>
GHGRYKAFUNNHBG-UHFFFAOYSA-N

> <PUBCHEM_XLOGP3>
2.4

> <PUBCHEM_EXACT_MASS>
312.076275

> <PUBCHEM_MOLECULAR_FORMULA>
C14H17O6P

> <PUBCHEM_MOLECULAR_WEIGHT>
312.254942

> <PUBCHEM_OPENEYE_CAN_SMILES>
CCOP(=O)(OCC)OC1=CC2=C(C=C1)C(=CC(=O)O2)C

> <PUBCHEM_OPENEYE_ISO_SMILES>
CCOP(=O)(OCC)OC1=CC2=C(C=C1)C(=CC(=O)O2)C

> <PUBCHEM_CACTVS_TPSA>
71.1

> <PUBCHEM_MONOISOTOPIC_WEIGHT>
312.076275

> <PUBCHEM_TOTAL_CHARGE>
0

> <PUBCHEM_HEAVY_ATOM_COUNT>
21

> <PUBCHEM_ATOM_DEF_STEREO_COUNT>
0

> <PUBCHEM_ATOM_UDEF_STEREO_COUNT>
0

> <PUBCHEM_BOND_DEF_STEREO_COUNT>
0

> <PUBCHEM_BOND_UDEF_STEREO_COUNT>
0

> <PUBCHEM_ISOTOPIC_ATOM_COUNT>
0

> <PUBCHEM_COMPONENT_COUNT>
1

> <PUBCHEM_CACTVS_TAUTO_COUNT>
1

> <PUBCHEM_COORDINATE_TYPE>
1
5
255

> <PUBCHEM_BONDANNOTATIONS>
10  15  8
11  12  8
11  14  8
13  14  8
15  17  8
3  17  8
3  9  8
8  10  8
8  13  8
8  9  8
9  12  8

$$$$

