46173860
  -OEChem-07051213092D

 58 62  0     1  0  0  0  0  0999 V2000
    2.8304    1.0898    0.0000 O   0  0  0  0  0  0  0  0  0  0  0  0
    7.2580    0.7637    0.0000 O   0  0  0  0  0  0  0  0  0  0  0  0
    7.2580    2.3732    0.0000 O   0  0  0  0  0  0  0  0  0  0  0  0
    7.2700   -0.4771    0.0000 O   0  0  0  0  0  0  0  0  0  0  0  0
    7.3022   -2.5685    0.0000 O   0  0  0  0  0  0  0  0  0  0  0  0
    2.0000    2.5982    0.0000 O   0  0  0  0  0  0  0  0  0  0  0  0
    4.5797    1.0684    0.0000 C   0  0  2  0  0  0  0  0  0  0  0  0
    5.4457    0.5684    0.0000 C   0  0  1  0  0  0  0  0  0  0  0  0
    5.4618   -0.4731    0.0000 C   0  0  1  0  0  0  0  0  0  0  0  0
    4.5797    2.0684    0.0000 C   0  0  2  0  0  0  0  0  0  0  0  0
    3.6697    0.5616    0.0000 C   0  0  1  0  0  0  0  0  0  0  0  0
    4.5638   -1.0008    0.0000 C   0  0  1  0  0  0  0  0  0  0  0  0
    6.3118    1.0684    0.0000 C   0  0  1  0  0  0  0  0  0  0  0  0
    5.4457    2.5684    0.0000 C   0  0  3  0  0  0  0  0  0  0  0  0
    6.3118    2.0684    0.0000 C   0  0  2  0  0  0  0  0  0  0  0  0
    3.6617   -0.4800    0.0000 C   0  0  0  0  0  0  0  0  0  0  0  0
    4.5797    0.0684    0.0000 C   0  0  0  0  0  0  0  0  0  0  0  0
    3.7215    2.5654    0.0000 C   0  0  0  0  0  0  0  0  0  0  0  0
    4.5554   -2.0858    0.0000 C   0  0  1  0  0  0  0  0  0  0  0  0
    6.3239    0.0336    0.0000 C   0  0  0  0  0  0  0  0  0  0  0  0
    6.4137   -0.9937    0.0000 C   0  0  0  0  0  0  0  0  0  0  0  0
    5.4457    3.5684    0.0000 C   0  0  0  0  0  0  0  0  0  0  0  0
    2.8560    2.0812    0.0000 C   0  0  0  0  0  0  0  0  0  0  0  0
    7.8416    1.5684    0.0000 C   0  0  0  0  0  0  0  0  0  0  0  0
    5.4950   -2.6283    0.0000 C   0  0  0  0  0  0  0  0  0  0  0  0
    6.4305   -2.0786    0.0000 C   0  0  0  0  0  0  0  0  0  0  0  0
    3.6874   -2.5824    0.0000 C   0  0  0  0  0  0  0  0  0  0  0  0
    7.3138   -3.5684    0.0000 C   0  0  0  0  0  0  0  0  0  0  0  0
    6.1851    0.1491    0.0000 H   0  0  0  0  0  0  0  0  0  0  0  0
    4.5802    2.9184    0.0000 H   0  0  0  0  0  0  0  0  0  0  0  0
    2.9240    0.1536    0.0000 H   0  0  0  0  0  0  0  0  0  0  0  0
    3.8260   -1.4230    0.0000 H   0  0  0  0  0  0  0  0  0  0  0  0
    6.4017    0.2232    0.0000 H   0  0  0  0  0  0  0  0  0  0  0  0
    5.9827    2.8784    0.0000 H   0  0  0  0  0  0  0  0  0  0  0  0
    6.4017    2.9137    0.0000 H   0  0  0  0  0  0  0  0  0  0  0  0
    3.0517   -0.3692    0.0000 H   0  0  0  0  0  0  0  0  0  0  0  0
    3.4481   -1.0621    0.0000 H   0  0  0  0  0  0  0  0  0  0  0  0
    3.9597    0.0684    0.0000 H   0  0  0  0  0  0  0  0  0  0  0  0
    4.5797   -0.5516    0.0000 H   0  0  0  0  0  0  0  0  0  0  0  0
    5.1997    0.0684    0.0000 H   0  0  0  0  0  0  0  0  0  0  0  0
    4.1226    3.0382    0.0000 H   0  0  0  0  0  0  0  0  0  0  0  0
    3.3275    3.0441    0.0000 H   0  0  0  0  0  0  0  0  0  0  0  0
    4.0203   -1.7727    0.0000 H   0  0  0  0  0  0  0  0  0  0  0  0
    6.6381   -0.5009    0.0000 H   0  0  0  0  0  0  0  0  0  0  0  0
    6.8585    0.3477    0.0000 H   0  0  0  0  0  0  0  0  0  0  0  0
    6.0098    0.5681    0.0000 H   0  0  0  0  0  0  0  0  0  0  0  0
    6.0657    3.5684    0.0000 H   0  0  0  0  0  0  0  0  0  0  0  0
    5.4457    4.1884    0.0000 H   0  0  0  0  0  0  0  0  0  0  0  0
    4.8257    3.5684    0.0000 H   0  0  0  0  0  0  0  0  0  0  0  0
    8.3025    1.1537    0.0000 H   0  0  0  0  0  0  0  0  0  0  0  0
    8.3025    1.9832    0.0000 H   0  0  0  0  0  0  0  0  0  0  0  0
    5.4974   -3.2483    0.0000 H   0  0  0  0  0  0  0  0  0  0  0  0
    3.3795   -2.0443    0.0000 H   0  0  0  0  0  0  0  0  0  0  0  0
    3.1493   -2.8904    0.0000 H   0  0  0  0  0  0  0  0  0  0  0  0
    3.9954   -3.1206    0.0000 H   0  0  0  0  0  0  0  0  0  0  0  0
    6.6938   -3.5756    0.0000 H   0  0  0  0  0  0  0  0  0  0  0  0
    7.3209   -4.1884    0.0000 H   0  0  0  0  0  0  0  0  0  0  0  0
    7.9337   -3.5613    0.0000 H   0  0  0  0  0  0  0  0  0  0  0  0
  1 11  1  0  0  0  0
  1 23  1  0  0  0  0
  2 13  1  0  0  0  0
  2 24  1  0  0  0  0
  3 15  1  0  0  0  0
  3 24  1  0  0  0  0
  4 21  2  0  0  0  0
  5 26  1  0  0  0  0
  5 28  1  0  0  0  0
  6 23  2  0  0  0  0
  7  8  1  0  0  0  0
  7 10  1  0  0  0  0
  7 11  1  0  0  0  0
  7 17  1  6  0  0  0
  8  9  1  0  0  0  0
  8 13  1  0  0  0  0
  8 29  1  1  0  0  0
  9 12  1  0  0  0  0
  9 20  1  6  0  0  0
  9 21  1  0  0  0  0
 10 14  1  0  0  0  0
 10 18  1  0  0  0  0
 10 30  1  6  0  0  0
 11 16  1  0  0  0  0
 11 31  1  6  0  0  0
 12 16  1  0  0  0  0
 12 19  1  0  0  0  0
 12 32  1  1  0  0  0
 13 15  1  0  0  0  0
 13 33  1  6  0  0  0
 14 15  1  0  0  0  0
 14 22  1  0  0  0  0
 14 34  1  0  0  0  0
 15 35  1  1  0  0  0
 16 36  1  0  0  0  0
 16 37  1  0  0  0  0
 17 38  1  0  0  0  0
 17 39  1  0  0  0  0
 17 40  1  0  0  0  0
 18 23  1  0  0  0  0
 18 41  1  0  0  0  0
 18 42  1  0  0  0  0
 19 25  1  0  0  0  0
 19 27  1  1  0  0  0
 19 43  1  0  0  0  0
 20 44  1  0  0  0  0
 20 45  1  0  0  0  0
 20 46  1  0  0  0  0
 21 26  1  0  0  0  0
 22 47  1  0  0  0  0
 22 48  1  0  0  0  0
 22 49  1  0  0  0  0
 24 50  1  0  0  0  0
 24 51  1  0  0  0  0
 25 26  2  0  0  0  0
 25 52  1  0  0  0  0
 27 53  1  0  0  0  0
 27 54  1  0  0  0  0
 27 55  1  0  0  0  0
 28 56  1  0  0  0  0
 28 57  1  0  0  0  0
 28 58  1  0  0  0  0
M  END
> <PUBCHEM_COMPOUND_CID>
46173860

> <PUBCHEM_COMPOUND_CANONICALIZED>
1

> <PUBCHEM_CACTVS_COMPLEXITY>
760

> <PUBCHEM_CACTVS_HBOND_ACCEPTOR>
6

> <PUBCHEM_CACTVS_HBOND_DONOR>
0

> <PUBCHEM_CACTVS_ROTATABLE_BOND>
1

> <PUBCHEM_CACTVS_SUBSKEYS>
AAADceB4OAAAAAAAAAAAAAAAAAAAASAAAAA0YIEAAAAAAEjQAAAAGgAAAAAADxSggAMCCAAABACIAKDSCAIACAAgIAAACAFAAEgRABIAAAQiAAAEgAAOAYPK7PzPgAAAAAAAAADAAAYAADCAAAAAAAAAAA==

> <PUBCHEM_IUPAC_INCHI>
InChI=1S/C22H30O6/c1-10-6-14(25-5)20(24)22(4)12(10)7-15-21(3)13(8-16(23)28-15)11(2)17-18(19(21)22)27-9-26-17/h6,10-13,15,17-19H,7-9H2,1-5H3/t10-,11?,12+,13+,15-,17+,18-,19+,21-,22+/m1/s1

> <PUBCHEM_IUPAC_INCHIKEY>
GNPWDPZTRHBTJY-ZXXQBWPGSA-N

> <PUBCHEM_XLOGP3_AA>
2.9

> <PUBCHEM_EXACT_MASS>
390.204239

> <PUBCHEM_MOLECULAR_FORMULA>
C22H30O6

> <PUBCHEM_MOLECULAR_WEIGHT>
390.47

> <PUBCHEM_OPENEYE_CAN_SMILES>
CC1C=C(C(=O)C2(C1CC3C4(C2C5C(C(C4CC(=O)O3)C)OCO5)C)C)OC

> <PUBCHEM_OPENEYE_ISO_SMILES>
C[C@@H]1C=C(C(=O)[C@]2([C@H]1C[C@@H]3[C@@]4([C@@H]2[C@H]5[C@H](C([C@@H]4CC(=O)O3)C)OCO5)C)C)OC

> <PUBCHEM_CACTVS_TPSA>
71.1

> <PUBCHEM_MONOISOTOPIC_WEIGHT>
390.204239

> <PUBCHEM_TOTAL_CHARGE>
0

> <PUBCHEM_HEAVY_ATOM_COUNT>
28

> <PUBCHEM_ATOM_DEF_STEREO_COUNT>
9

> <PUBCHEM_ATOM_UDEF_STEREO_COUNT>
1

> <PUBCHEM_BOND_DEF_STEREO_COUNT>
0

> <PUBCHEM_BOND_UDEF_STEREO_COUNT>
0

> <PUBCHEM_ISOTOPIC_ATOM_COUNT>
0

> <PUBCHEM_COMPONENT_COUNT>
1

> <PUBCHEM_CACTVS_TAUTO_COUNT>
6

> <PUBCHEM_COORDINATE_TYPE>
1
5
255

> <PUBCHEM_BONDANNOTATIONS>
10  30  6
11  31  6
12  32  5
13  33  6
14  22  3
15  35  5
19  27  5
7  17  6
8  29  5
9  20  6

$$$$

