   Color/Form
        Colorless liquid
   from [1]HSDB

   Odor

     * CHARACTERISTIC FUSEL-LIKE ODOR
     * Mild odor

   from [2]HSDB

   Taste
        BURNING TASTE
   from [3]HSDB

   Boiling Point
        137.5 deg C
   from [4]HSDB

   Melting Point
        -79 deg C
   from [5]HSDB

   Critical Temperature and Pressure
        Critical temperature = 315.35 deg C; Critical pressure = 3858 kPa
   from [6]HSDB

   Density/Specific Gravity
        0.8146 @ 20 deg C/4 deg C
   from [7]HSDB

   Heat of Combustion
        -16,200 Btu/lb= -9,000 Cal/g
   from [8]HSDB

   Heat of Vaporization
        44.83 kJ/mol
   from [9]HSDB

   Octanol/Water Partition Coefficient
        low Kow= 1.51
   from [10]HSDB

   Solubilities

     * Miscible with alcohol, ether
     * Sol in acetone
     * MISCIBLE WITH MOST ORG SOLVENTS
     * In water, 22,000 mg/L at 25 deg C

   from [11]HSDB

   Spectral Properties

     * Index of refraction: 1.4103 at 20 deg C/D
     * MAX ABSORPTION (UNDILUTED): 178 NM (LOG E= 2.4), 215 NM (LOG E=
       1.55); SADTLER REFERENCE NUMBER: 52 (IR, PRISM)
     * IR: 205 (Sadtler Research Laboratories IR Grating Collection)
     * NMR: 10132 (Sadtler Research Laboratories Spectral Collection)
     * MASS: NIST 19493 (NIST/EPA/MSDC Mass Spectral Database, 1990
       version)
     * Raman: 182 (Sadtler Research Laboratories Spectral Collection)

   from [12]HSDB

   Surface Tension
        25.5 dynes/cm at 20 deg C
   from [13]HSDB

   Vapor Density
        3.0 (AIR= 1)
   from [14]HSDB

   Vapor Pressure
        2.2 mm Hg at 25 deg C
   from [15]HSDB

   Other Chemical/Physical Properties

     * /Bulk density/ (wt/gal)= 6.9 lb at 20 deg C.
     * Ratio of specific heats of vapor (gas) = 1.06; Liquid water
       interfacial tension: 5 dynes/cm = 0.005 N/m at 20 deg C
     * Henry's Law constant = 1.3X10-5 atm-cu m/mol at 25 deg C
     * Hydroxyl radical reaction rate constant = 1.1X10-11 cu cm/molec-sec
       at 25 deg C

   from [16]HSDB

   Computed Properties
   Molecular Weight                  88.14818 [g/mol]
   Molecular Formula                 C[5]H[12]O
   XLogP3                            1.6
   H-Bond Donor                      1
   H-Bond Acceptor                   1
   Rotatable Bond Count              3
   Exact Mass                        88.088815
   MonoIsotopic Mass                 88.088815
   Topological Polar Surface Area    20.2
   Heavy Atom Count                  6
   Formal Charge                     0
   Complexity                        19.9
   Isotope Atom Count                0
   Defined Atom Stereocenter Count   0
   Undefined Atom Stereocenter Count 0
   Defined Bond Stereocenter Count   0
   Undefined Bond Stereocenter Count 0
   Covalently-Bonded Unit Count      1
   Feature 3D Acceptor Count         1
   Feature 3D Donor Count            1
   Feature 3D Hydrophobe Count       1
   Effective Rotor Count             3
   Conformer Sampling RMSD           0.4
   CID Conformer Count               [17]19

References

   1. http://toxnet.nlm.nih.gov/cgi-bin/sis/search/r?dbs+hsdb:@term+@rn+@rel+71-41-0
   2. http://toxnet.nlm.nih.gov/cgi-bin/sis/search/r?dbs+hsdb:@term+@rn+@rel+71-41-0
   3. http://toxnet.nlm.nih.gov/cgi-bin/sis/search/r?dbs+hsdb:@term+@rn+@rel+71-41-0
   4. http://toxnet.nlm.nih.gov/cgi-bin/sis/search/r?dbs+hsdb:@term+@rn+@rel+71-41-0
   5. http://toxnet.nlm.nih.gov/cgi-bin/sis/search/r?dbs+hsdb:@term+@rn+@rel+71-41-0
   6. http://toxnet.nlm.nih.gov/cgi-bin/sis/search/r?dbs+hsdb:@term+@rn+@rel+71-41-0
   7. http://toxnet.nlm.nih.gov/cgi-bin/sis/search/r?dbs+hsdb:@term+@rn+@rel+71-41-0
   8. http://toxnet.nlm.nih.gov/cgi-bin/sis/search/r?dbs+hsdb:@term+@rn+@rel+71-41-0
   9. http://toxnet.nlm.nih.gov/cgi-bin/sis/search/r?dbs+hsdb:@term+@rn+@rel+71-41-0
  10. http://toxnet.nlm.nih.gov/cgi-bin/sis/search/r?dbs+hsdb:@term+@rn+@rel+71-41-0
  11. http://toxnet.nlm.nih.gov/cgi-bin/sis/search/r?dbs+hsdb:@term+@rn+@rel+71-41-0
  12. http://toxnet.nlm.nih.gov/cgi-bin/sis/search/r?dbs+hsdb:@term+@rn+@rel+71-41-0
  13. http://toxnet.nlm.nih.gov/cgi-bin/sis/search/r?dbs+hsdb:@term+@rn+@rel+71-41-0
  14. http://toxnet.nlm.nih.gov/cgi-bin/sis/search/r?dbs+hsdb:@term+@rn+@rel+71-41-0
  15. http://toxnet.nlm.nih.gov/cgi-bin/sis/search/r?dbs+hsdb:@term+@rn+@rel+71-41-0
  16. http://toxnet.nlm.nih.gov/cgi-bin/sis/search/r?dbs+hsdb:@term+@rn+@rel+71-41-0
  17. http://pubchem.ncbi.nlm.nih.gov/vw3d/vw3d.cgi?cid=6276
