10918539
  -OEChem-07051213082D

 96 95  0     0  0  0  0  0  0999 V2000
    5.4641   -1.2500    0.0000 C   0  0  0  0  0  0  0  0  0  0  0  0
   23.6506    1.2500    0.0000 C   0  0  0  0  0  0  0  0  0  0  0  0
    4.5981   -1.7500    0.0000 C   0  0  0  0  0  0  0  0  0  0  0  0
   24.5167    1.7500    0.0000 C   0  0  0  0  0  0  0  0  0  0  0  0
    6.3301   -1.7500    0.0000 C   0  0  0  0  0  0  0  0  0  0  0  0
   22.7846    1.7500    0.0000 C   0  0  0  0  0  0  0  0  0  0  0  0
    3.7320   -1.2500    0.0000 C   0  0  0  0  0  0  0  0  0  0  0  0
   25.3827    1.2500    0.0000 C   0  0  0  0  0  0  0  0  0  0  0  0
   26.2487    1.7500    0.0000 C   0  0  0  0  0  0  0  0  0  0  0  0
    2.8660   -1.7500    0.0000 C   0  0  0  0  0  0  0  0  0  0  0  0
   22.7846    2.7500    0.0000 C   0  0  0  0  0  0  0  0  0  0  0  0
    6.3301   -2.7500    0.0000 C   0  0  0  0  0  0  0  0  0  0  0  0
   21.9186    1.2500    0.0000 C   0  0  0  0  0  0  0  0  0  0  0  0
    7.1962   -1.2500    0.0000 C   0  0  0  0  0  0  0  0  0  0  0  0
    2.0000   -1.2500    0.0000 C   0  0  0  0  0  0  0  0  0  0  0  0
    2.8660   -2.7500    0.0000 C   0  0  0  0  0  0  0  0  0  0  0  0
   27.1147    1.2500    0.0000 C   0  0  0  0  0  0  0  0  0  0  0  0
   26.2487    2.7500    0.0000 C   0  0  0  0  0  0  0  0  0  0  0  0
   21.0526    1.7500    0.0000 C   0  0  0  0  0  0  0  0  0  0  0  0
    8.0622   -1.7500    0.0000 C   0  0  0  0  0  0  0  0  0  0  0  0
   20.1865    1.2500    0.0000 C   0  0  0  0  0  0  0  0  0  0  0  0
    8.9282   -1.2500    0.0000 C   0  0  0  0  0  0  0  0  0  0  0  0
    8.9282   -0.2500    0.0000 C   0  0  0  0  0  0  0  0  0  0  0  0
   20.1865    0.2500    0.0000 C   0  0  0  0  0  0  0  0  0  0  0  0
   21.0526   -0.2500    0.0000 C   0  0  0  0  0  0  0  0  0  0  0  0
    8.0622    0.2500    0.0000 C   0  0  0  0  0  0  0  0  0  0  0  0
    9.7942    0.2500    0.0000 C   0  0  0  0  0  0  0  0  0  0  0  0
   19.3205   -0.2500    0.0000 C   0  0  0  0  0  0  0  0  0  0  0  0
   10.6603   -0.2500    0.0000 C   0  0  0  0  0  0  0  0  0  0  0  0
   18.4545    0.2500    0.0000 C   0  0  0  0  0  0  0  0  0  0  0  0
   17.5885   -0.2500    0.0000 C   0  0  0  0  0  0  0  0  0  0  0  0
   11.5263    0.2500    0.0000 C   0  0  0  0  0  0  0  0  0  0  0  0
   12.3923   -0.2500    0.0000 C   0  0  0  0  0  0  0  0  0  0  0  0
   16.7224    0.2500    0.0000 C   0  0  0  0  0  0  0  0  0  0  0  0
   15.8564   -0.2500    0.0000 C   0  0  0  0  0  0  0  0  0  0  0  0
   13.2583    0.2500    0.0000 C   0  0  0  0  0  0  0  0  0  0  0  0
   16.7224    1.2500    0.0000 C   0  0  0  0  0  0  0  0  0  0  0  0
   12.3923   -1.2500    0.0000 C   0  0  0  0  0  0  0  0  0  0  0  0
   14.9904    0.2500    0.0000 C   0  0  0  0  0  0  0  0  0  0  0  0
   14.1244   -0.2500    0.0000 C   0  0  0  0  0  0  0  0  0  0  0  0
   23.2521    0.7751    0.0000 H   0  0  0  0  0  0  0  0  0  0  0  0
   24.0492    0.7751    0.0000 H   0  0  0  0  0  0  0  0  0  0  0  0
    5.8626   -0.7751    0.0000 H   0  0  0  0  0  0  0  0  0  0  0  0
    5.0656   -0.7751    0.0000 H   0  0  0  0  0  0  0  0  0  0  0  0
   24.9152    2.2250    0.0000 H   0  0  0  0  0  0  0  0  0  0  0  0
   24.1181    2.2250    0.0000 H   0  0  0  0  0  0  0  0  0  0  0  0
    4.1996   -2.2250    0.0000 H   0  0  0  0  0  0  0  0  0  0  0  0
    4.9966   -2.2250    0.0000 H   0  0  0  0  0  0  0  0  0  0  0  0
    3.7320   -0.6300    0.0000 H   0  0  0  0  0  0  0  0  0  0  0  0
   25.3827    0.6300    0.0000 H   0  0  0  0  0  0  0  0  0  0  0  0
   23.4046    2.7500    0.0000 H   0  0  0  0  0  0  0  0  0  0  0  0
    5.7101   -2.7500    0.0000 H   0  0  0  0  0  0  0  0  0  0  0  0
   22.7846    3.3700    0.0000 H   0  0  0  0  0  0  0  0  0  0  0  0
   22.1646    2.7500    0.0000 H   0  0  0  0  0  0  0  0  0  0  0  0
    6.3301   -3.3700    0.0000 H   0  0  0  0  0  0  0  0  0  0  0  0
    6.9501   -2.7500    0.0000 H   0  0  0  0  0  0  0  0  0  0  0  0
   21.9186    0.6300    0.0000 H   0  0  0  0  0  0  0  0  0  0  0  0
    7.1962   -0.6300    0.0000 H   0  0  0  0  0  0  0  0  0  0  0  0
   26.8047    0.7131    0.0000 H   0  0  0  0  0  0  0  0  0  0  0  0
   27.6517    0.9400    0.0000 H   0  0  0  0  0  0  0  0  0  0  0  0
    2.2460   -2.7500    0.0000 H   0  0  0  0  0  0  0  0  0  0  0  0
    2.8660   -3.3700    0.0000 H   0  0  0  0  0  0  0  0  0  0  0  0
    3.4860   -2.7500    0.0000 H   0  0  0  0  0  0  0  0  0  0  0  0
    2.3100   -0.7131    0.0000 H   0  0  0  0  0  0  0  0  0  0  0  0
    1.4631   -0.9400    0.0000 H   0  0  0  0  0  0  0  0  0  0  0  0
    1.6900   -1.7869    0.0000 H   0  0  0  0  0  0  0  0  0  0  0  0
   27.4247    1.7869    0.0000 H   0  0  0  0  0  0  0  0  0  0  0  0
   26.8687    2.7500    0.0000 H   0  0  0  0  0  0  0  0  0  0  0  0
   26.2487    3.3700    0.0000 H   0  0  0  0  0  0  0  0  0  0  0  0
   25.6287    2.7500    0.0000 H   0  0  0  0  0  0  0  0  0  0  0  0
    8.0622   -2.3700    0.0000 H   0  0  0  0  0  0  0  0  0  0  0  0
   21.0526    2.3700    0.0000 H   0  0  0  0  0  0  0  0  0  0  0  0
   19.6496    1.5600    0.0000 H   0  0  0  0  0  0  0  0  0  0  0  0
    9.4651   -1.5600    0.0000 H   0  0  0  0  0  0  0  0  0  0  0  0
    8.3722    0.7869    0.0000 H   0  0  0  0  0  0  0  0  0  0  0  0
    7.5252    0.5600    0.0000 H   0  0  0  0  0  0  0  0  0  0  0  0
    7.7522   -0.2869    0.0000 H   0  0  0  0  0  0  0  0  0  0  0  0
   20.7426   -0.7869    0.0000 H   0  0  0  0  0  0  0  0  0  0  0  0
   21.5895   -0.5600    0.0000 H   0  0  0  0  0  0  0  0  0  0  0  0
   21.3626    0.2869    0.0000 H   0  0  0  0  0  0  0  0  0  0  0  0
   19.3205   -0.8700    0.0000 H   0  0  0  0  0  0  0  0  0  0  0  0
    9.7942    0.8700    0.0000 H   0  0  0  0  0  0  0  0  0  0  0  0
   18.4545    0.8700    0.0000 H   0  0  0  0  0  0  0  0  0  0  0  0
   10.6603   -0.8700    0.0000 H   0  0  0  0  0  0  0  0  0  0  0  0
   17.5885   -0.8700    0.0000 H   0  0  0  0  0  0  0  0  0  0  0  0
   11.5263    0.8700    0.0000 H   0  0  0  0  0  0  0  0  0  0  0  0
   15.8564   -0.8700    0.0000 H   0  0  0  0  0  0  0  0  0  0  0  0
   13.2583    0.8700    0.0000 H   0  0  0  0  0  0  0  0  0  0  0  0
   17.3424    1.2500    0.0000 H   0  0  0  0  0  0  0  0  0  0  0  0
   16.7224    1.8700    0.0000 H   0  0  0  0  0  0  0  0  0  0  0  0
   16.1024    1.2500    0.0000 H   0  0  0  0  0  0  0  0  0  0  0  0
   11.7723   -1.2500    0.0000 H   0  0  0  0  0  0  0  0  0  0  0  0
   12.3923   -1.8700    0.0000 H   0  0  0  0  0  0  0  0  0  0  0  0
   13.0123   -1.2500    0.0000 H   0  0  0  0  0  0  0  0  0  0  0  0
   14.1244   -0.8700    0.0000 H   0  0  0  0  0  0  0  0  0  0  0  0
   14.9904    0.8700    0.0000 H   0  0  0  0  0  0  0  0  0  0  0  0
  1  3  1  0  0  0  0
  1  5  1  0  0  0  0
  1 43  1  0  0  0  0
  1 44  1  0  0  0  0
  2  4  1  0  0  0  0
  2  6  1  0  0  0  0
  2 41  1  0  0  0  0
  2 42  1  0  0  0  0
  3  7  1  0  0  0  0
  3 47  1  0  0  0  0
  3 48  1  0  0  0  0
  4  8  1  0  0  0  0
  4 45  1  0  0  0  0
  4 46  1  0  0  0  0
  5 12  1  0  0  0  0
  5 14  2  0  0  0  0
  6 11  1  0  0  0  0
  6 13  2  0  0  0  0
  7 10  2  0  0  0  0
  7 49  1  0  0  0  0
  8  9  2  0  0  0  0
  8 50  1  0  0  0  0
  9 17  1  0  0  0  0
  9 18  1  0  0  0  0
 10 15  1  0  0  0  0
 10 16  1  0  0  0  0
 11 51  1  0  0  0  0
 11 53  1  0  0  0  0
 11 54  1  0  0  0  0
 12 52  1  0  0  0  0
 12 55  1  0  0  0  0
 12 56  1  0  0  0  0
 13 19  1  0  0  0  0
 13 57  1  0  0  0  0
 14 20  1  0  0  0  0
 14 58  1  0  0  0  0
 15 64  1  0  0  0  0
 15 65  1  0  0  0  0
 15 66  1  0  0  0  0
 16 61  1  0  0  0  0
 16 62  1  0  0  0  0
 16 63  1  0  0  0  0
 17 59  1  0  0  0  0
 17 60  1  0  0  0  0
 17 67  1  0  0  0  0
 18 68  1  0  0  0  0
 18 69  1  0  0  0  0
 18 70  1  0  0  0  0
 19 21  2  0  0  0  0
 19 72  1  0  0  0  0
 20 22  2  0  0  0  0
 20 71  1  0  0  0  0
 21 24  1  0  0  0  0
 21 73  1  0  0  0  0
 22 23  1  0  0  0  0
 22 74  1  0  0  0  0
 23 26  1  0  0  0  0
 23 27  2  0  0  0  0
 24 25  1  0  0  0  0
 24 28  2  0  0  0  0
 25 78  1  0  0  0  0
 25 79  1  0  0  0  0
 25 80  1  0  0  0  0
 26 75  1  0  0  0  0
 26 76  1  0  0  0  0
 26 77  1  0  0  0  0
 27 29  1  0  0  0  0
 27 82  1  0  0  0  0
 28 30  1  0  0  0  0
 28 81  1  0  0  0  0
 29 32  2  0  0  0  0
 29 84  1  0  0  0  0
 30 31  2  0  0  0  0
 30 83  1  0  0  0  0
 31 34  1  0  0  0  0
 31 85  1  0  0  0  0
 32 33  1  0  0  0  0
 32 86  1  0  0  0  0
 33 36  2  0  0  0  0
 33 38  1  0  0  0  0
 34 35  2  0  0  0  0
 34 37  1  0  0  0  0
 35 39  1  0  0  0  0
 35 87  1  0  0  0  0
 36 40  1  0  0  0  0
 36 88  1  0  0  0  0
 37 89  1  0  0  0  0
 37 90  1  0  0  0  0
 37 91  1  0  0  0  0
 38 92  1  0  0  0  0
 38 93  1  0  0  0  0
 38 94  1  0  0  0  0
 39 40  2  0  0  0  0
 39 96  1  0  0  0  0
 40 95  1  0  0  0  0
M  END
> <PUBCHEM_COMPOUND_CID>
10918539

> <PUBCHEM_COMPOUND_CANONICALIZED>
1

> <PUBCHEM_CACTVS_COMPLEXITY>
1050

> <PUBCHEM_CACTVS_HBOND_ACCEPTOR>
0

> <PUBCHEM_CACTVS_HBOND_DONOR>
0

> <PUBCHEM_CACTVS_ROTATABLE_BOND>
16

> <PUBCHEM_CACTVS_SUBSKEYS>
AAADcfB8AAAAAAAAAAAAAAAAAAAAAAAAAAAAAAAAAAAAAAAAAAAAGAAAAAAADACAAAACAAAAAACAAiBCAAAAAAAgAAAICAAAAAgIAAIAAQAAAAAAgAAIgAIAAAAAAAAAAAAAAAAAAAAAAAAAAAAAAAAAAA==

> <PUBCHEM_IUPAC_OPENEYE_NAME>
(6E,8Z,10Z,12E,14E,16E,18E,20E,22Z,24Z,26E)-2,6,10,14,19,23,27,31-octamethyldotriaconta-2,6,8,10,12,14,16,18,20,22,24,26,30-tridecaene

> <PUBCHEM_IUPAC_CAS_NAME>
(6E,8Z,10Z,12E,14E,16E,18E,20E,22Z,24Z,26E)-2,6,10,14,19,23,27,31-octamethyldotriaconta-2,6,8,10,12,14,16,18,20,22,24,26,30-tridecaene

> <PUBCHEM_IUPAC_NAME>
(6E,8Z,10Z,12E,14E,16E,18E,20E,22Z,24Z,26E)-2,6,10,14,19,23,27,31-octamethyldotriaconta-2,6,8,10,12,14,16,18,20,22,24,26,30-tridecaene

> <PUBCHEM_IUPAC_SYSTEMATIC_NAME>
(6E,8Z,10Z,12E,14E,16E,18E,20E,22Z,24Z,26E)-2,6,10,14,19,23,27,31-octamethyldotriaconta-2,6,8,10,12,14,16,18,20,22,24,26,30-tridecaene

> <PUBCHEM_IUPAC_TRADITIONAL_NAME>
(6E,8Z,10Z,12E,14E,16E,18E,20E,22Z,24Z,26E)-2,6,10,14,19,23,27,31-octamethyldotriaconta-2,6,8,10,12,14,16,18,20,22,24,26,30-tridecaene

> <PUBCHEM_IUPAC_INCHI>
InChI=1S/C40H56/c1-33(2)19-13-23-37(7)27-17-31-39(9)29-15-25-35(5)21-11-12-22-36(6)26-16-30-40(10)32-18-28-38(8)24-14-20-34(3)4/h11-12,15-22,25-32H,13-14,23-24H2,1-10H3/b12-11+,25-15+,26-16+,31-17-,32-18-,35-21+,36-22+,37-27+,38-28+,39-29-,40-30-

> <PUBCHEM_IUPAC_INCHIKEY>
OAIJSZIZWZSQBC-BYUNHUQQSA-N

> <PUBCHEM_XLOGP3_AA>
15.6

> <PUBCHEM_EXACT_MASS>
536.438202

> <PUBCHEM_MOLECULAR_FORMULA>
C40H56

> <PUBCHEM_MOLECULAR_WEIGHT>
536.87264

> <PUBCHEM_OPENEYE_CAN_SMILES>
CC(=CCCC(=CC=CC(=CC=CC(=CC=CC=C(C)C=CC=C(C)C=CC=C(C)CCC=C(C)C)C)C)C)C

> <PUBCHEM_OPENEYE_ISO_SMILES>
CC(=CCC/C(=C/C=C\C(=C/C=C/C(=C/C=C/C=C(/C=C/C=C(\C=C/C=C(/CCC=C(C)C)\C)/C)\C)/C)\C)/C)C

> <PUBCHEM_CACTVS_TPSA>
0

> <PUBCHEM_MONOISOTOPIC_WEIGHT>
536.438202

> <PUBCHEM_TOTAL_CHARGE>
0

> <PUBCHEM_HEAVY_ATOM_COUNT>
40

> <PUBCHEM_ATOM_DEF_STEREO_COUNT>
0

> <PUBCHEM_ATOM_UDEF_STEREO_COUNT>
0

> <PUBCHEM_BOND_DEF_STEREO_COUNT>
11

> <PUBCHEM_BOND_UDEF_STEREO_COUNT>
0

> <PUBCHEM_ISOTOPIC_ATOM_COUNT>
0

> <PUBCHEM_COMPONENT_COUNT>
1

> <PUBCHEM_CACTVS_TAUTO_COUNT>
1

> <PUBCHEM_COORDINATE_TYPE>
1
5
255

$$$$

