6433205
  -OEChem-07051212472D

 12 11  0     0  0  0  0  0  0999 V2000
    4.5981    1.1900    0.0000 O   0  0  0  0  0  0  0  0  0  0  0  0
    2.0000   -0.3100    0.0000 O   0  5  0  0  0  0  0  0  0  0  0  0
    2.8660   -0.8100    0.0000 N   0  3  0  0  0  0  0  0  0  0  0  0
    3.7320   -0.3100    0.0000 N   0  0  0  0  0  0  0  0  0  0  0  0
    3.7320    0.6900    0.0000 C   0  0  0  0  0  0  0  0  0  0  0  0
    2.8660   -1.8100    0.0000 C   0  0  0  0  0  0  0  0  0  0  0  0
    3.5200    1.2726    0.0000 H   0  0  0  0  0  0  0  0  0  0  0  0
    3.1215    0.5823    0.0000 H   0  0  0  0  0  0  0  0  0  0  0  0
    2.2460   -1.8100    0.0000 H   0  0  0  0  0  0  0  0  0  0  0  0
    2.8660   -2.4300    0.0000 H   0  0  0  0  0  0  0  0  0  0  0  0
    3.4860   -1.8100    0.0000 H   0  0  0  0  0  0  0  0  0  0  0  0
    4.5981    1.8100    0.0000 H   0  0  0  0  0  0  0  0  0  0  0  0
  1  5  1  0  0  0  0
  1 12  1  0  0  0  0
  2  3  1  0  0  0  0
  3  4  2  0  0  0  0
  3  6  1  0  0  0  0
  4  5  1  0  0  0  0
  5  7  1  0  0  0  0
  5  8  1  0  0  0  0
  6  9  1  0  0  0  0
  6 10  1  0  0  0  0
  6 11  1  0  0  0  0
M  CHG  2   2  -1   3   1
M  END
> <PUBCHEM_COMPOUND_CID>
6433205

> <PUBCHEM_COMPOUND_CANONICALIZED>
1

> <PUBCHEM_CACTVS_COMPLEXITY>
60.6

> <PUBCHEM_CACTVS_HBOND_ACCEPTOR>
3

> <PUBCHEM_CACTVS_HBOND_DONOR>
1

> <PUBCHEM_CACTVS_ROTATABLE_BOND>
1

> <PUBCHEM_CACTVS_SUBSKEYS>
AAADcYBDMAAAAAAAAAAAAAAAAAAAAAAAAAAAAAAAAAAAAAAAAAAAFgAMCAAAAAAAAAYCAAAQAgACAAAAAAAAAAAAAAAAAAAAAAAAEAAAAAAAAAAAAAAAAAAAAAAAAAAAAAAAAAAAAAAAAAAAAAAAAAAAAA==

> <PUBCHEM_IUPAC_OPENEYE_NAME>
(Z)-hydroxymethylimino-methyl-oxido-ammonium

> <PUBCHEM_IUPAC_CAS_NAME>
(Z)-hydroxymethylimino-methyl-oxidoammonium

> <PUBCHEM_IUPAC_NAME>
(Z)-hydroxymethylimino-methyl-oxidoazanium

> <PUBCHEM_IUPAC_SYSTEMATIC_NAME>
(Z)-hydroxymethylimino-methyl-oxidanidyl-azanium

> <PUBCHEM_IUPAC_TRADITIONAL_NAME>
(Z)-methyl-methylolimino-oxido-ammonium

> <PUBCHEM_IUPAC_INCHI>
InChI=1S/C2H6N2O2/c1-4(6)3-2-5/h5H,2H2,1H3/b4-3-

> <PUBCHEM_IUPAC_INCHIKEY>
BJNBRIBHKLJMAG-ARJAWSKDSA-N

> <PUBCHEM_XLOGP3_AA>
-0.8

> <PUBCHEM_EXACT_MASS>
90.042927

> <PUBCHEM_MOLECULAR_FORMULA>
C2H6N2O2

> <PUBCHEM_MOLECULAR_WEIGHT>
90.08124

> <PUBCHEM_OPENEYE_CAN_SMILES>
C[N+](=NCO)[O-]

> <PUBCHEM_OPENEYE_ISO_SMILES>
C/[N+](=N/CO)/[O-]

> <PUBCHEM_CACTVS_TPSA>
61.3

> <PUBCHEM_MONOISOTOPIC_WEIGHT>
90.042927

> <PUBCHEM_TOTAL_CHARGE>
0

> <PUBCHEM_HEAVY_ATOM_COUNT>
6

> <PUBCHEM_ATOM_DEF_STEREO_COUNT>
0

> <PUBCHEM_ATOM_UDEF_STEREO_COUNT>
0

> <PUBCHEM_BOND_DEF_STEREO_COUNT>
1

> <PUBCHEM_BOND_UDEF_STEREO_COUNT>
0

> <PUBCHEM_ISOTOPIC_ATOM_COUNT>
0

> <PUBCHEM_COMPONENT_COUNT>
1

> <PUBCHEM_CACTVS_TAUTO_COUNT>
1

> <PUBCHEM_COORDINATE_TYPE>
1
5
255

$$$$

