   Color/Form
        Colorless liquid
   from [1]HSDB

   Boiling Point
        decomposes at 57 deg C
   from [2]HSDB

   Melting Point
        -109 deg C
   from [3]HSDB

   Density/Specific Gravity
        1.0130 g/cu m at 20 deg C
   from [4]HSDB

   Octanol/Water Partition Coefficient
        log Kow = 0.81 (est)
   from [5]HSDB

   Solubilities

     * Slightly soluble in ethanol and ether; soluble in acetone and
       chloroform
     * In water, 2.8X10+4 mg/L at 25 deg C (est)

   from [6]HSDB

   Spectral Properties

     * MAX ABSORPTION (ALCOHOL): 258 NM (LOG E= 1.5)
     * Index of refraction: 1.4935 at 20 deg C
     * IR: 5947 (Coblentz Society Spectral Collection)
     * UV: 4-4 (Organic Electronic Spectral Data, Phillips et al, John
       Wiley & Sons, New York) /

   from [7]HSDB

   Vapor Pressure
        250 mm Hg at 25 deg C
   from [8]HSDB

   Other Chemical/Physical Properties

     * Heat of formation = 51.6 kJ/mol (liq); 82.0 kJ/mol (gas). Gibbs
       free energy = 96.8 kJ/mol (gas). Entropy = 255.2 J/molK (gas)
     * Specific heat = 53.3 J/molK (gas)
     * Polymerizes gradually; reacts with 4(4'-nitrobenzyl) pyridine
     * Henry's Law constant = 3.46X10-4 atm-cu m/mol at 25 deg C (est)
     * Hydroxyl radical reaction rate constant = 2.06X10-12 cu
       cm/molec-sec at 25 deg C (est)

   from [9]HSDB

   Computed Properties
   Molecular Weight                  60.11816 [g/mol]
   Molecular Formula                 C[2]H[4]S
   XLogP3-AA                         0.6
   H-Bond Donor                      0
   H-Bond Acceptor                   1
   Rotatable Bond Count              0
   Exact Mass                        60.003371
   MonoIsotopic Mass                 60.003371
   Topological Polar Surface Area    25.3
   Heavy Atom Count                  3
   Formal Charge                     0
   Complexity                        10.3
   Isotope Atom Count                0
   Defined Atom Stereocenter Count   0
   Undefined Atom Stereocenter Count 0
   Defined Bond Stereocenter Count   0
   Undefined Bond Stereocenter Count 0
   Covalently-Bonded Unit Count      1
   Effective Rotor Count             0.6
   Conformer Sampling RMSD           0.4
   CID Conformer Count               [10]1

References

   1. http://toxnet.nlm.nih.gov/cgi-bin/sis/search/r?dbs+hsdb:@term+@rn+@rel+420-12-2
   2. http://toxnet.nlm.nih.gov/cgi-bin/sis/search/r?dbs+hsdb:@term+@rn+@rel+420-12-2
   3. http://toxnet.nlm.nih.gov/cgi-bin/sis/search/r?dbs+hsdb:@term+@rn+@rel+420-12-2
   4. http://toxnet.nlm.nih.gov/cgi-bin/sis/search/r?dbs+hsdb:@term+@rn+@rel+420-12-2
   5. http://toxnet.nlm.nih.gov/cgi-bin/sis/search/r?dbs+hsdb:@term+@rn+@rel+420-12-2
   6. http://toxnet.nlm.nih.gov/cgi-bin/sis/search/r?dbs+hsdb:@term+@rn+@rel+420-12-2
   7. http://toxnet.nlm.nih.gov/cgi-bin/sis/search/r?dbs+hsdb:@term+@rn+@rel+420-12-2
   8. http://toxnet.nlm.nih.gov/cgi-bin/sis/search/r?dbs+hsdb:@term+@rn+@rel+420-12-2
   9. http://toxnet.nlm.nih.gov/cgi-bin/sis/search/r?dbs+hsdb:@term+@rn+@rel+420-12-2
  10. http://pubchem.ncbi.nlm.nih.gov/vw3d/vw3d.cgi?cid=9865
