   Color/Form

     * COLORLESS CRYSTALS, OFTEN LARGE, OR WHITE CRYSTALLINE POWDER
     * PLATES FROM ACETIC ACID OR ACETONE

   from [1]HSDB

   Odor

     * A spicy-herbal, slightly medicinal odor reminiscent of thyme
     * Aromatic odor

   from [2]HSDB

   Taste

     * PUNGENT, SOMEWHAT CAUSTIC
     * SWEET, MEDICINAL, SPICY
     * Aromatic taste

   from [3]HSDB

   Boiling Point
        233 DEG C
   from [4]HSDB

   Melting Point
        52 DEG C
   from [5]HSDB

   Density/Specific Gravity
        0.9699 @ 25 DEG C/4 DEG C
   from [6]HSDB

   Dissociation Constants
        pKa = 10.62
   from [7]HSDB

   Octanol/Water Partition Coefficient
        Log Kow = 3.30
   from [8]HSDB

   pH
        SOLN IN ALCOHOL IS NEUTRAL TO LITMUS
   from [9]HSDB

   Solubilities

     * 1 G DISSOLVES IN ABOUT 1000 ML WATER, 1 ML ALC, 0.7 ML CHLOROFORM,
       1.5 ML ETHER, 1.7 ML OLIVE OIL @ 25 DEG C; SOL IN GLACIAL ACETIC
       ACIDS, OILS, FIXED ALKALI HYDROXIDE
     * Solubility in water: 0.098 g in 100 g at 25 deg C
     * Slightly soluble in glycerol
     * water solubility = 900 mg/l @ 20 deg C

   from [10]HSDB

   Spectral Properties

     * INDICES OF REFRACTION: 1.5227 @ 20 DEG C/D; 1.5204 @ 25 DEG C/D
     * MAX ABSORPTION (CYCLOHEXANE): 276 NM (LOG E= 3.34), 282 NM (LOG E=
       3.34)
     * Intense mass spectral peaks: 135 m/z (100%), 150 m/z (38%), 91 m/z
       (15%), 136 m/z (10%)
     * IR: 6256 (Coblentz Society Spectral Collection)
     * UV: 531 (Sadtler Research Laboratories Spectral Collection)
     * NMR: 270 (Varian Associates NMR Spectra Catalogue)
     * MASS: 891 (Atlas of Mass Spectral Data, John Wiley & Sons, New
       York)

   from [11]HSDB

   Vapor Pressure
        2.2X10-3 mm Hg @ 25 deg C
   from [12]HSDB

   Other Chemical/Physical Properties

     * MELTS BETWEEN 48-51 DEG C, BUT WHEN MELTED IT REMAINS LIQ @
       CONSIDERABLY LOWER TEMP
     * HEAVIER THAN WATER, BUT WHEN LIQUEFIED BY FUSION IT IS LIGHTER THAN
       WATER
     * WHEN THYMOL IS TRITURATED WITH EQUAL WT OF CAMPHOR, MENTHOL,
       CHLORAL HYDRATE, & SOME OTHER SUBSTANCES, MIXT LIQUEFIES
     * Vapor pressure = 12.7 Pa at 40 deg C

   from [13]HSDB

   Computed Properties
   Molecular Weight                  150.21756 [g/mol]
   Molecular Formula                 C[10]H[14]O
   XLogP3                            3.3
   H-Bond Donor                      1
   H-Bond Acceptor                   1
   Rotatable Bond Count              1
   Tautomer Count                    9
   Exact Mass                        150.104465
   MonoIsotopic Mass                 150.104465
   Topological Polar Surface Area    20.2
   Heavy Atom Count                  11
   Formal Charge                     0
   Complexity                        120
   Isotope Atom Count                0
   Defined Atom Stereocenter Count   0
   Undefined Atom Stereocenter Count 0
   Defined Bond Stereocenter Count   0
   Undefined Bond Stereocenter Count 0
   Covalently-Bonded Unit Count      1
   Feature 3D Donor Count            1
   Feature 3D Hydrophobe Count       1
   Feature 3D Ring Count             1
   Effective Rotor Count             1
   Conformer Sampling RMSD           0.4
   CID Conformer Count               [14]2

References

   1. http://toxnet.nlm.nih.gov/cgi-bin/sis/search/r?dbs+hsdb:@term+@rn+@rel+89-83-8
   2. http://toxnet.nlm.nih.gov/cgi-bin/sis/search/r?dbs+hsdb:@term+@rn+@rel+89-83-8
   3. http://toxnet.nlm.nih.gov/cgi-bin/sis/search/r?dbs+hsdb:@term+@rn+@rel+89-83-8
   4. http://toxnet.nlm.nih.gov/cgi-bin/sis/search/r?dbs+hsdb:@term+@rn+@rel+89-83-8
   5. http://toxnet.nlm.nih.gov/cgi-bin/sis/search/r?dbs+hsdb:@term+@rn+@rel+89-83-8
   6. http://toxnet.nlm.nih.gov/cgi-bin/sis/search/r?dbs+hsdb:@term+@rn+@rel+89-83-8
   7. http://toxnet.nlm.nih.gov/cgi-bin/sis/search/r?dbs+hsdb:@term+@rn+@rel+89-83-8
   8. http://toxnet.nlm.nih.gov/cgi-bin/sis/search/r?dbs+hsdb:@term+@rn+@rel+89-83-8
   9. http://toxnet.nlm.nih.gov/cgi-bin/sis/search/r?dbs+hsdb:@term+@rn+@rel+89-83-8
  10. http://toxnet.nlm.nih.gov/cgi-bin/sis/search/r?dbs+hsdb:@term+@rn+@rel+89-83-8
  11. http://toxnet.nlm.nih.gov/cgi-bin/sis/search/r?dbs+hsdb:@term+@rn+@rel+89-83-8
  12. http://toxnet.nlm.nih.gov/cgi-bin/sis/search/r?dbs+hsdb:@term+@rn+@rel+89-83-8
  13. http://toxnet.nlm.nih.gov/cgi-bin/sis/search/r?dbs+hsdb:@term+@rn+@rel+89-83-8
  14. http://pubchem.ncbi.nlm.nih.gov/vw3d/vw3d.cgi?cid=6989
