442151
  -OEChem-07051212572D

 52 54  0     1  0  0  0  0  0999 V2000
    6.3701   -2.1249    0.0000 O   0  0  0  0  0  0  0  0  0  0  0  0
    4.6000   -0.0661    0.0000 O   0  0  0  0  0  0  0  0  0  0  0  0
    6.3817    0.9443    0.0000 O   0  0  0  0  0  0  0  0  0  0  0  0
    8.1140    0.9513    0.0000 O   0  0  0  0  0  0  0  0  0  0  0  0
    3.7282   -1.5628    0.0000 O   0  0  0  0  0  0  0  0  0  0  0  0
    4.6498    0.9644    0.0000 O   0  0  0  0  0  0  0  0  0  0  0  0
    9.0082    2.4790    0.0000 O   0  0  0  0  0  0  0  0  0  0  0  0
    5.4641   -1.6111    0.0000 C   0  0  0  0  0  0  0  0  0  0  0  0
    5.4641   -0.5694    0.0000 C   0  0  1  0  0  0  0  0  0  0  0  0
    6.3701   -0.0556    0.0000 C   0  0  1  0  0  0  0  0  0  0  0  0
    7.2641   -0.5902    0.0000 C   0  0  0  0  0  0  0  0  0  0  0  0
    7.2641   -1.5902    0.0000 C   0  0  0  0  0  0  0  0  0  0  0  0
    4.9674   -2.4790    0.0000 C   0  0  0  0  0  0  0  0  0  0  0  0
    4.4641   -1.6149    0.0000 C   0  0  0  0  0  0  0  0  0  0  0  0
    8.1301   -0.0902    0.0000 C   0  0  0  0  0  0  0  0  0  0  0  0
    8.1301   -2.0902    0.0000 C   0  0  0  0  0  0  0  0  0  0  0  0
    8.9961   -0.5902    0.0000 C   0  0  0  0  0  0  0  0  0  0  0  0
    3.7320   -0.5628    0.0000 C   0  0  0  0  0  0  0  0  0  0  0  0
    2.8680   -0.0594    0.0000 C   0  0  1  0  0  0  0  0  0  0  0  0
    8.9961   -1.5902    0.0000 C   0  0  0  0  0  0  0  0  0  0  0  0
    2.8718    0.9406    0.0000 C   0  0  0  0  0  0  0  0  0  0  0  0
    5.5215    1.4543    0.0000 C   0  0  0  0  0  0  0  0  0  0  0  0
    9.9061   -0.0834    0.0000 C   0  0  0  0  0  0  0  0  0  0  0  0
    2.0000   -0.5561    0.0000 C   0  0  0  0  0  0  0  0  0  0  0  0
    9.0121    1.4790    0.0000 C   0  0  0  0  0  0  0  0  0  0  0  0
    9.9142    0.9582    0.0000 C   0  0  0  0  0  0  0  0  0  0  0  0
    2.0077    1.4439    0.0000 C   0  0  0  0  0  0  0  0  0  0  0  0
    5.5331    2.4543    0.0000 C   0  0  0  0  0  0  0  0  0  0  0  0
    5.4677    0.0506    0.0000 H   0  0  0  0  0  0  0  0  0  0  0  0
    5.8362    0.2596    0.0000 H   0  0  0  0  0  0  0  0  0  0  0  0
    4.4293   -2.1711    0.0000 H   0  0  0  0  0  0  0  0  0  0  0  0
    4.6595   -3.0171    0.0000 H   0  0  0  0  0  0  0  0  0  0  0  0
    5.5055   -2.7869    0.0000 H   0  0  0  0  0  0  0  0  0  0  0  0
    4.4617   -0.9949    0.0000 H   0  0  0  0  0  0  0  0  0  0  0  0
    3.8441   -1.6173    0.0000 H   0  0  0  0  0  0  0  0  0  0  0  0
    4.4665   -2.2349    0.0000 H   0  0  0  0  0  0  0  0  0  0  0  0
    8.1301   -2.7102    0.0000 H   0  0  0  0  0  0  0  0  0  0  0  0
    2.3322    0.2526    0.0000 H   0  0  0  0  0  0  0  0  0  0  0  0
    9.5331   -1.9002    0.0000 H   0  0  0  0  0  0  0  0  0  0  0  0
    3.4820    0.8306    0.0000 H   0  0  0  0  0  0  0  0  0  0  0  0
    3.0861    1.5224    0.0000 H   0  0  0  0  0  0  0  0  0  0  0  0
   10.4395   -0.3996    0.0000 H   0  0  0  0  0  0  0  0  0  0  0  0
    1.6921   -0.0180    0.0000 H   0  0  0  0  0  0  0  0  0  0  0  0
    1.4619   -0.8640    0.0000 H   0  0  0  0  0  0  0  0  0  0  0  0
    2.3079   -1.0942    0.0000 H   0  0  0  0  0  0  0  0  0  0  0  0
   10.4523    1.2661    0.0000 H   0  0  0  0  0  0  0  0  0  0  0  0
    2.3198    1.9796    0.0000 H   0  0  0  0  0  0  0  0  0  0  0  0
    1.4720    1.7560    0.0000 H   0  0  0  0  0  0  0  0  0  0  0  0
    1.6956    0.9082    0.0000 H   0  0  0  0  0  0  0  0  0  0  0  0
    6.1530    2.4471    0.0000 H   0  0  0  0  0  0  0  0  0  0  0  0
    5.5402    3.0742    0.0000 H   0  0  0  0  0  0  0  0  0  0  0  0
    4.9131    2.4614    0.0000 H   0  0  0  0  0  0  0  0  0  0  0  0
  1  8  1  0  0  0  0
  1 12  1  0  0  0  0
  9  2  1  6  0  0  0
  2 18  1  0  0  0  0
 10  3  1  6  0  0  0
  3 22  1  0  0  0  0
  4 15  1  0  0  0  0
  4 25  1  0  0  0  0
  5 18  2  0  0  0  0
  6 22  2  0  0  0  0
  7 25  2  0  0  0  0
  8  9  1  0  0  0  0
  8 13  1  0  0  0  0
  8 14  1  0  0  0  0
  9 10  1  0  0  0  0
  9 29  1  0  0  0  0
 10 11  1  0  0  0  0
 10 30  1  0  0  0  0
 11 12  2  0  0  0  0
 11 15  1  0  0  0  0
 12 16  1  0  0  0  0
 13 31  1  0  0  0  0
 13 32  1  0  0  0  0
 13 33  1  0  0  0  0
 14 34  1  0  0  0  0
 14 35  1  0  0  0  0
 14 36  1  0  0  0  0
 15 17  2  0  0  0  0
 16 20  2  0  0  0  0
 16 37  1  0  0  0  0
 17 20  1  0  0  0  0
 17 23  1  0  0  0  0
 18 19  1  0  0  0  0
 19 21  1  0  0  0  0
 19 24  1  6  0  0  0
 19 38  1  0  0  0  0
 20 39  1  0  0  0  0
 21 27  1  0  0  0  0
 21 40  1  0  0  0  0
 21 41  1  0  0  0  0
 22 28  1  0  0  0  0
 23 26  2  0  0  0  0
 23 42  1  0  0  0  0
 24 43  1  0  0  0  0
 24 44  1  0  0  0  0
 24 45  1  0  0  0  0
 25 26  1  0  0  0  0
 26 46  1  0  0  0  0
 27 47  1  0  0  0  0
 27 48  1  0  0  0  0
 27 49  1  0  0  0  0
 28 50  1  0  0  0  0
 28 51  1  0  0  0  0
 28 52  1  0  0  0  0
M  END
> <PUBCHEM_COMPOUND_CID>
442151

> <PUBCHEM_COMPOUND_CANONICALIZED>
1

> <PUBCHEM_CACTVS_COMPLEXITY>
668

> <PUBCHEM_CACTVS_HBOND_ACCEPTOR>
7

> <PUBCHEM_CACTVS_HBOND_DONOR>
0

> <PUBCHEM_CACTVS_ROTATABLE_BOND>
6

> <PUBCHEM_CACTVS_SUBSKEYS>
AAADceB4OAAAAAAAAAAAAAAAAAAAAAAAAAA0QIAAAAAAAACRAAAAGgAAAAAADVSgmAIyDoAABACIAiDSCAACCAAgIAAIiAEGCMgNJzKEMRqCOiClwBUKqYfA4PwOIAACCAAIAABAAAQQABAAAAAAAAAAAA==

> <PUBCHEM_IUPAC_OPENEYE_NAME>
[(9R,10R)-10-acetoxy-8,8-dimethyl-2-oxo-9,10-dihydropyrano[2,3-f]chromen-9-yl] (2R)-2-methylbutanoate

> <PUBCHEM_IUPAC_CAS_NAME>
(2R)-2-methylbutanoic acid [(9R,10R)-10-acetyloxy-8,8-dimethyl-2-oxo-9,10-dihydropyrano[2,3-f][1]benzopyran-9-yl] ester

> <PUBCHEM_IUPAC_NAME>
[(9R,10R)-10-acetyloxy-8,8-dimethyl-2-oxo-9,10-dihydropyrano[2,3-f]chromen-9-yl] (2R)-2-methylbutanoate

> <PUBCHEM_IUPAC_SYSTEMATIC_NAME>
[(9R,10R)-10-acetyloxy-8,8-dimethyl-2-oxidanylidene-9,10-dihydropyrano[2,3-f]chromen-9-yl] (2R)-2-methylbutanoate

> <PUBCHEM_IUPAC_TRADITIONAL_NAME>
(2R)-2-methylbutyric acid [(9R,10R)-10-acetoxy-2-keto-8,8-dimethyl-9,10-dihydropyrano[2,3-f]chromen-9-yl] ester

> <PUBCHEM_IUPAC_INCHI>
InChI=1S/C21H24O7/c1-6-11(2)20(24)27-19-18(25-12(3)22)16-14(28-21(19,4)5)9-7-13-8-10-15(23)26-17(13)16/h7-11,18-19H,6H2,1-5H3/t11-,18-,19-/m1/s1

> <PUBCHEM_IUPAC_INCHIKEY>
GVBNSPFBYXGREE-CXWAGAITSA-N

> <PUBCHEM_XLOGP3_AA>
3.4

> <PUBCHEM_EXACT_MASS>
388.152203

> <PUBCHEM_MOLECULAR_FORMULA>
C21H24O7

> <PUBCHEM_MOLECULAR_WEIGHT>
388.41106

> <PUBCHEM_OPENEYE_CAN_SMILES>
CCC(C)C(=O)OC1C(C2=C(C=CC3=C2OC(=O)C=C3)OC1(C)C)OC(=O)C

> <PUBCHEM_OPENEYE_ISO_SMILES>
CC[C@@H](C)C(=O)O[C@@H]1[C@@H](C2=C(C=CC3=C2OC(=O)C=C3)OC1(C)C)OC(=O)C

> <PUBCHEM_CACTVS_TPSA>
88.1

> <PUBCHEM_MONOISOTOPIC_WEIGHT>
388.152203

> <PUBCHEM_TOTAL_CHARGE>
0

> <PUBCHEM_HEAVY_ATOM_COUNT>
28

> <PUBCHEM_ATOM_DEF_STEREO_COUNT>
3

> <PUBCHEM_ATOM_UDEF_STEREO_COUNT>
0

> <PUBCHEM_BOND_DEF_STEREO_COUNT>
0

> <PUBCHEM_BOND_UDEF_STEREO_COUNT>
0

> <PUBCHEM_ISOTOPIC_ATOM_COUNT>
0

> <PUBCHEM_COMPONENT_COUNT>
1

> <PUBCHEM_CACTVS_TAUTO_COUNT>
1

> <PUBCHEM_COORDINATE_TYPE>
1
5
255

> <PUBCHEM_BONDANNOTATIONS>
11  12  8
11  15  8
12  16  8
15  17  8
16  20  8
17  20  8
17  23  8
19  24  6
9  2  6
23  26  8
25  26  8
10  3  6
4  15  8
4  25  8

$$$$

