6824
  -OEChem-07051213142D

 32 34  0     0  0  0  0  0  0999 V2000
    4.2690    0.2327    0.0000 N   0  0  0  0  0  0  0  0  0  0  0  0
    2.5369    1.2327    0.0000 N   0  0  0  0  0  0  0  0  0  0  0  0
    3.4030   -0.2673    0.0000 N   0  0  0  0  0  0  0  0  0  0  0  0
    5.1350    1.7327    0.0000 C   0  0  0  0  0  0  0  0  0  0  0  0
    5.1350    2.7327    0.0000 C   0  0  0  0  0  0  0  0  0  0  0  0
    4.2690    1.2327    0.0000 C   0  0  0  0  0  0  0  0  0  0  0  0
    3.4030    1.7327    0.0000 C   0  0  0  0  0  0  0  0  0  0  0  0
    4.2690    3.2327    0.0000 C   0  0  0  0  0  0  0  0  0  0  0  0
    6.0290    1.1980    0.0000 C   0  0  0  0  0  0  0  0  0  0  0  0
    6.0290    3.2673    0.0000 C   0  0  0  0  0  0  0  0  0  0  0  0
    3.4030    2.7327    0.0000 C   0  0  0  0  0  0  0  0  0  0  0  0
    6.9350    1.7118    0.0000 C   0  0  0  0  0  0  0  0  0  0  0  0
    6.9350    2.7535    0.0000 C   0  0  0  0  0  0  0  0  0  0  0  0
    3.4030   -1.2673    0.0000 C   0  0  0  0  0  0  0  0  0  0  0  0
    2.5369   -1.7673    0.0000 C   0  0  0  0  0  0  0  0  0  0  0  0
    4.2690   -1.7673    0.0000 C   0  0  0  0  0  0  0  0  0  0  0  0
    2.5369   -2.7673    0.0000 C   0  0  0  0  0  0  0  0  0  0  0  0
    4.2690   -2.7673    0.0000 C   0  0  0  0  0  0  0  0  0  0  0  0
    3.4030   -3.2673    0.0000 C   0  0  0  0  0  0  0  0  0  0  0  0
    4.2690    3.8527    0.0000 H   0  0  0  0  0  0  0  0  0  0  0  0
    6.0218    0.5780    0.0000 H   0  0  0  0  0  0  0  0  0  0  0  0
    6.0218    3.8873    0.0000 H   0  0  0  0  0  0  0  0  0  0  0  0
    2.8660    3.0427    0.0000 H   0  0  0  0  0  0  0  0  0  0  0  0
    7.4708    1.3998    0.0000 H   0  0  0  0  0  0  0  0  0  0  0  0
    7.4708    3.0656    0.0000 H   0  0  0  0  0  0  0  0  0  0  0  0
    2.0000    1.5427    0.0000 H   0  0  0  0  0  0  0  0  0  0  0  0
    2.5369    0.6127    0.0000 H   0  0  0  0  0  0  0  0  0  0  0  0
    2.0000   -1.4573    0.0000 H   0  0  0  0  0  0  0  0  0  0  0  0
    4.8059   -1.4573    0.0000 H   0  0  0  0  0  0  0  0  0  0  0  0
    2.0000   -3.0773    0.0000 H   0  0  0  0  0  0  0  0  0  0  0  0
    4.8059   -3.0773    0.0000 H   0  0  0  0  0  0  0  0  0  0  0  0
    3.4030   -3.8873    0.0000 H   0  0  0  0  0  0  0  0  0  0  0  0
  1  3  2  0  0  0  0
  1  6  1  0  0  0  0
  2  7  1  0  0  0  0
  2 26  1  0  0  0  0
  2 27  1  0  0  0  0
  3 14  1  0  0  0  0
  4  5  1  0  0  0  0
  4  6  1  0  0  0  0
  4  9  2  0  0  0  0
  5  8  1  0  0  0  0
  5 10  2  0  0  0  0
  6  7  2  0  0  0  0
  7 11  1  0  0  0  0
  8 11  2  0  0  0  0
  8 20  1  0  0  0  0
  9 12  1  0  0  0  0
  9 21  1  0  0  0  0
 10 13  1  0  0  0  0
 10 22  1  0  0  0  0
 11 23  1  0  0  0  0
 12 13  2  0  0  0  0
 12 24  1  0  0  0  0
 13 25  1  0  0  0  0
 14 15  2  0  0  0  0
 14 16  1  0  0  0  0
 15 17  1  0  0  0  0
 15 28  1  0  0  0  0
 16 18  2  0  0  0  0
 16 29  1  0  0  0  0
 17 19  2  0  0  0  0
 17 30  1  0  0  0  0
 18 19  1  0  0  0  0
 18 31  1  0  0  0  0
 19 32  1  0  0  0  0
M  END
> <PUBCHEM_COMPOUND_CID>
6824

> <PUBCHEM_COMPOUND_CANONICALIZED>
1

> <PUBCHEM_CACTVS_COMPLEXITY>
309

> <PUBCHEM_CACTVS_HBOND_ACCEPTOR>
3

> <PUBCHEM_CACTVS_HBOND_DONOR>
1

> <PUBCHEM_CACTVS_ROTATABLE_BOND>
2

> <PUBCHEM_CACTVS_SUBSKEYS>
AAADccB7AAAAAAAAAAAAAAAAAAAAAAAAAAAwYMAAAAAAAADBVAAAHAAYAAAADAiBGAAwwMBAAACCAiRCQACCAAAgAgAIiAAAdIgIYCKAkZGAIABgkAAIyAcQgIAOiAAAQAASACAQAACAACQAQAAAAAAAAA==

> <PUBCHEM_IUPAC_OPENEYE_NAME>
1-phenylazonaphthalen-2-amine

> <PUBCHEM_IUPAC_CAS_NAME>
1-phenyldiazenyl-2-naphthalenamine

> <PUBCHEM_IUPAC_NAME>
1-phenyldiazenylnaphthalen-2-amine

> <PUBCHEM_IUPAC_SYSTEMATIC_NAME>
1-phenyldiazenylnaphthalen-2-amine

> <PUBCHEM_IUPAC_TRADITIONAL_NAME>
(1-phenylazo-2-naphthyl)amine

> <PUBCHEM_IUPAC_INCHI>
InChI=1S/C16H13N3/c17-15-11-10-12-6-4-5-9-14(12)16(15)19-18-13-7-2-1-3-8-13/h1-11H,17H2

> <PUBCHEM_IUPAC_INCHIKEY>
KLCDQSGLLRINHY-UHFFFAOYSA-N

> <PUBCHEM_XLOGP3_AA>
4.3

> <PUBCHEM_EXACT_MASS>
247.110947

> <PUBCHEM_MOLECULAR_FORMULA>
C16H13N3

> <PUBCHEM_MOLECULAR_WEIGHT>
247.29452

> <PUBCHEM_OPENEYE_CAN_SMILES>
C1=CC=C(C=C1)N=NC2=C(C=CC3=CC=CC=C32)N

> <PUBCHEM_OPENEYE_ISO_SMILES>
C1=CC=C(C=C1)N=NC2=C(C=CC3=CC=CC=C32)N

> <PUBCHEM_CACTVS_TPSA>
50.7

> <PUBCHEM_MONOISOTOPIC_WEIGHT>
247.110947

> <PUBCHEM_TOTAL_CHARGE>
0

> <PUBCHEM_HEAVY_ATOM_COUNT>
19

> <PUBCHEM_ATOM_DEF_STEREO_COUNT>
0

> <PUBCHEM_ATOM_UDEF_STEREO_COUNT>
0

> <PUBCHEM_BOND_DEF_STEREO_COUNT>
0

> <PUBCHEM_BOND_UDEF_STEREO_COUNT>
0

> <PUBCHEM_ISOTOPIC_ATOM_COUNT>
0

> <PUBCHEM_COMPONENT_COUNT>
1

> <PUBCHEM_CACTVS_TAUTO_COUNT>
2

> <PUBCHEM_COORDINATE_TYPE>
1
5
255

> <PUBCHEM_BONDANNOTATIONS>
10  13  8
12  13  8
14  15  8
14  16  8
15  17  8
16  18  8
17  19  8
18  19  8
4  5  8
4  6  8
4  9  8
5  10  8
5  8  8
6  7  8
7  11  8
8  11  8
9  12  8

$$$$

