   Color/Form

     * Yellow to light brown liquid... .
     * Clear yellow to light-brown liquid

   from [1]HSDB

   Odor
        Characteristic odor
   from [2]HSDB

   Boiling Point
        154 deg C/1 Pa
   from [3]HSDB

   Melting Point
        -25 deg C
   from [4]HSDB

   Density/Specific Gravity
        1.251 g/cu cm (20 deg C)
   from [5]HSDB

   Octanol/Water Partition Coefficient
        log Kow = 3.48
   from [6]HSDB

   Solubilities

     * In n-hexane 20-50, dichloromethane, isopropanol, toluene 200 (all
       in g/l, 20 deg C). Readily soluble in methanol, acetone, benzene,
       xylene, carbon tetrachloride and dioxane. Sparingly soluble in
       heptane.
     * In water, 56 mg/l @ 20 deg C

   from [7]HSDB

   Vapor Pressure
        2.70X10-7 mm Hg @ 25 deg C
   from [8]HSDB

   Computed Properties
   Molecular Weight                  310.371462 [g/mol]
   Molecular Formula                 C[14]H[15]O[2]PS[2]
   XLogP3-AA                         3.8
   H-Bond Donor                      0
   H-Bond Acceptor                   4
   Rotatable Bond Count              6
   Exact Mass                        310.025108
   MonoIsotopic Mass                 310.025108
   Topological Polar Surface Area    76.9
   Heavy Atom Count                  19
   Formal Charge                     0
   Complexity                        276
   Isotope Atom Count                0
   Defined Atom Stereocenter Count   0
   Undefined Atom Stereocenter Count 0
   Defined Bond Stereocenter Count   0
   Undefined Bond Stereocenter Count 0
   Covalently-Bonded Unit Count      1
   Feature 3D Ring Count             2
   Effective Rotor Count             6
   Conformer Sampling RMSD           0.8
   CID Conformer Count               [9]20

References

   1. http://toxnet.nlm.nih.gov/cgi-bin/sis/search/r?dbs+hsdb:@term+@rn+@rel+17109-49-8
   2. http://toxnet.nlm.nih.gov/cgi-bin/sis/search/r?dbs+hsdb:@term+@rn+@rel+17109-49-8
   3. http://toxnet.nlm.nih.gov/cgi-bin/sis/search/r?dbs+hsdb:@term+@rn+@rel+17109-49-8
   4. http://toxnet.nlm.nih.gov/cgi-bin/sis/search/r?dbs+hsdb:@term+@rn+@rel+17109-49-8
   5. http://toxnet.nlm.nih.gov/cgi-bin/sis/search/r?dbs+hsdb:@term+@rn+@rel+17109-49-8
   6. http://toxnet.nlm.nih.gov/cgi-bin/sis/search/r?dbs+hsdb:@term+@rn+@rel+17109-49-8
   7. http://toxnet.nlm.nih.gov/cgi-bin/sis/search/r?dbs+hsdb:@term+@rn+@rel+17109-49-8
   8. http://toxnet.nlm.nih.gov/cgi-bin/sis/search/r?dbs+hsdb:@term+@rn+@rel+17109-49-8
   9. http://pubchem.ncbi.nlm.nih.gov/vw3d/vw3d.cgi?cid=28292
