   Dissociation Constants
        pKa = 10.43 (est)
   from [1]HSDB

   Octanol/Water Partition Coefficient
        log Kow = 3.34 (est)
   from [2]HSDB

   Solubilities
        In water, 296 mg/L at 25 deg C (est)
   from [3]HSDB

   Vapor Pressure
        0.027 mm Hg at 25 deg C (est)
   from [4]HSDB

   Other Chemical/Physical Properties

     * White to off-white crystalline powder. MP: 373-375 deg C;
       Solubility in water, 50 mg/L at 20 deg C. /Hydrochloride/
     * Henry's Law constant = 1.5X10-5 atm-cu m/mol at 25 deg C (est)
     * Hydroxyl radical reaction rate constant = 6.3X10-11 cu cm/molec-sec
       at 25 deg C (est)

   from [5]HSDB

   Computed Properties
   Molecular Weight                  179.30184 [g/mol]
   Molecular Formula                 C[12]H[21]N
   XLogP3-AA                         2.6
   H-Bond Donor                      1
   H-Bond Acceptor                   1
   Rotatable Bond Count              1
   Exact Mass                        179.1674
   MonoIsotopic Mass                 179.1674
   Topological Polar Surface Area    26
   Heavy Atom Count                  13
   Formal Charge                     0
   Complexity                        180
   Isotope Atom Count                0
   Defined Atom Stereocenter Count   0
   Undefined Atom Stereocenter Count 1
   Defined Bond Stereocenter Count   0
   Undefined Bond Stereocenter Count 0
   Covalently-Bonded Unit Count      1
   Feature 3D Donor Count            1
   Feature 3D Cation Count           1
   Feature 3D Ring Count             4
   Effective Rotor Count             2.2
   Conformer Sampling RMSD           0.6
   CID Conformer Count               [6]1

References

   1. http://toxnet.nlm.nih.gov/cgi-bin/sis/search/r?dbs+hsdb:@term+@rn+@rel+13392-28-4
   2. http://toxnet.nlm.nih.gov/cgi-bin/sis/search/r?dbs+hsdb:@term+@rn+@rel+13392-28-4
   3. http://toxnet.nlm.nih.gov/cgi-bin/sis/search/r?dbs+hsdb:@term+@rn+@rel+13392-28-4
   4. http://toxnet.nlm.nih.gov/cgi-bin/sis/search/r?dbs+hsdb:@term+@rn+@rel+13392-28-4
   5. http://toxnet.nlm.nih.gov/cgi-bin/sis/search/r?dbs+hsdb:@term+@rn+@rel+13392-28-4
   6. http://pubchem.ncbi.nlm.nih.gov/vw3d/vw3d.cgi?cid=5071
