17395436
  -OEChem-06241222502D

 48 49  0     0  0  0  0  0  0999 V2000
   12.3923    2.5670    0.0000 F   0  0  0  0  0  0  0  0  0  0  0  0
   12.0263    1.2010    0.0000 F   0  0  0  0  0  0  0  0  0  0  0  0
   11.0263    2.9330    0.0000 F   0  0  0  0  0  0  0  0  0  0  0  0
    5.4641   -2.4330    0.0000 O   0  0  0  0  0  0  0  0  0  0  0  0
    8.0622    0.0670    0.0000 N   0  0  0  0  0  0  0  0  0  0  0  0
    4.5981   -0.9330    0.0000 N   0  0  0  0  0  0  0  0  0  0  0  0
    9.7942    0.0670    0.0000 N   0  0  0  0  0  0  0  0  0  0  0  0
    6.3301   -0.9330    0.0000 C   0  0  0  0  0  0  0  0  0  0  0  0
    6.3301    0.0670    0.0000 C   0  0  0  0  0  0  0  0  0  0  0  0
    7.1962   -1.4330    0.0000 C   0  0  0  0  0  0  0  0  0  0  0  0
    7.1962    0.5670    0.0000 C   0  0  0  0  0  0  0  0  0  0  0  0
    8.0622   -0.9330    0.0000 C   0  0  0  0  0  0  0  0  0  0  0  0
    5.4641   -1.4330    0.0000 C   0  0  0  0  0  0  0  0  0  0  0  0
    3.7320   -1.4330    0.0000 C   0  0  0  0  0  0  0  0  0  0  0  0
    8.9282    0.5670    0.0000 C   0  0  0  0  0  0  0  0  0  0  0  0
    2.8660   -0.9330    0.0000 C   0  0  0  0  0  0  0  0  0  0  0  0
    3.7320   -2.4330    0.0000 C   0  0  0  0  0  0  0  0  0  0  0  0
    8.9282    1.5670    0.0000 C   0  0  0  0  0  0  0  0  0  0  0  0
    2.0000   -1.4330    0.0000 C   0  0  0  0  0  0  0  0  0  0  0  0
    2.8660   -2.9330    0.0000 C   0  0  0  0  0  0  0  0  0  0  0  0
    9.7942    2.0670    0.0000 C   0  0  0  0  0  0  0  0  0  0  0  0
   10.6603    0.5670    0.0000 C   0  0  0  0  0  0  0  0  0  0  0  0
   10.6603    1.5670    0.0000 C   0  0  0  0  0  0  0  0  0  0  0  0
   11.5263    2.0670    0.0000 C   0  0  0  0  0  0  0  0  0  0  0  0
    5.7932   -0.6230    0.0000 H   0  0  0  0  0  0  0  0  0  0  0  0
    6.1181    0.6496    0.0000 H   0  0  0  0  0  0  0  0  0  0  0  0
    5.7196   -0.0407    0.0000 H   0  0  0  0  0  0  0  0  0  0  0  0
    6.7976   -1.9080    0.0000 H   0  0  0  0  0  0  0  0  0  0  0  0
    7.5947   -1.9080    0.0000 H   0  0  0  0  0  0  0  0  0  0  0  0
    7.5947    1.0419    0.0000 H   0  0  0  0  0  0  0  0  0  0  0  0
    6.7976    1.0419    0.0000 H   0  0  0  0  0  0  0  0  0  0  0  0
    8.2742   -1.5156    0.0000 H   0  0  0  0  0  0  0  0  0  0  0  0
    8.6728   -0.8254    0.0000 H   0  0  0  0  0  0  0  0  0  0  0  0
    3.7320   -0.8130    0.0000 H   0  0  0  0  0  0  0  0  0  0  0  0
    4.5981   -0.3130    0.0000 H   0  0  0  0  0  0  0  0  0  0  0  0
    3.2646   -0.4581    0.0000 H   0  0  0  0  0  0  0  0  0  0  0  0
    2.4675   -0.4581    0.0000 H   0  0  0  0  0  0  0  0  0  0  0  0
    3.9441   -3.0156    0.0000 H   0  0  0  0  0  0  0  0  0  0  0  0
    4.3426   -2.3253    0.0000 H   0  0  0  0  0  0  0  0  0  0  0  0
    8.3913    1.8770    0.0000 H   0  0  0  0  0  0  0  0  0  0  0  0
    2.5560   -2.3961    0.0000 H   0  0  0  0  0  0  0  0  0  0  0  0
    2.3291   -3.2430    0.0000 H   0  0  0  0  0  0  0  0  0  0  0  0
    3.1760   -3.4700    0.0000 H   0  0  0  0  0  0  0  0  0  0  0  0
    1.6900   -0.8961    0.0000 H   0  0  0  0  0  0  0  0  0  0  0  0
    1.4631   -1.7430    0.0000 H   0  0  0  0  0  0  0  0  0  0  0  0
    2.3100   -1.9700    0.0000 H   0  0  0  0  0  0  0  0  0  0  0  0
    9.7942    2.6870    0.0000 H   0  0  0  0  0  0  0  0  0  0  0  0
   11.1972    0.2570    0.0000 H   0  0  0  0  0  0  0  0  0  0  0  0
  1 24  1  0  0  0  0
  2 24  1  0  0  0  0
  3 24  1  0  0  0  0
  4 13  2  0  0  0  0
  5 11  1  0  0  0  0
  5 12  1  0  0  0  0
  5 15  1  0  0  0  0
  6 13  1  0  0  0  0
  6 14  1  0  0  0  0
  6 35  1  0  0  0  0
  7 15  2  0  0  0  0
  7 22  1  0  0  0  0
  8  9  1  0  0  0  0
  8 10  1  0  0  0  0
  8 13  1  0  0  0  0
  8 25  1  0  0  0  0
  9 11  1  0  0  0  0
  9 26  1  0  0  0  0
  9 27  1  0  0  0  0
 10 12  1  0  0  0  0
 10 28  1  0  0  0  0
 10 29  1  0  0  0  0
 11 30  1  0  0  0  0
 11 31  1  0  0  0  0
 12 32  1  0  0  0  0
 12 33  1  0  0  0  0
 14 16  1  0  0  0  0
 14 17  1  0  0  0  0
 14 34  1  0  0  0  0
 15 18  1  0  0  0  0
 16 19  1  0  0  0  0
 16 36  1  0  0  0  0
 16 37  1  0  0  0  0
 17 20  1  0  0  0  0
 17 38  1  0  0  0  0
 17 39  1  0  0  0  0
 18 21  2  0  0  0  0
 18 40  1  0  0  0  0
 19 44  1  0  0  0  0
 19 45  1  0  0  0  0
 19 46  1  0  0  0  0
 20 41  1  0  0  0  0
 20 42  1  0  0  0  0
 20 43  1  0  0  0  0
 21 23  1  0  0  0  0
 21 47  1  0  0  0  0
 22 23  2  0  0  0  0
 22 48  1  0  0  0  0
 23 24  1  0  0  0  0
M  END
> <PUBCHEM_COMPOUND_CID>
17395436

> <PUBCHEM_COMPOUND_CANONICALIZED>
1

> <PUBCHEM_CACTVS_COMPLEXITY>
404

> <PUBCHEM_CACTVS_HBOND_ACCEPTOR>
6

> <PUBCHEM_CACTVS_HBOND_DONOR>
1

> <PUBCHEM_CACTVS_ROTATABLE_BOND>
5

> <PUBCHEM_CACTVS_SUBSKEYS>
AAADceB7IYAAAAAAAAAAAAAAAAAAAAAAAAAsWAAAAAAAAAABgAAAHwAQAAAADSjBmhQ/sJPIEACoAjN3dACCgCkxAiAJ2KE4ZJiIIPLAmZGEIAholgLIyCYUAAAOAAAAAAAAAAAAAAAAAAAAAAAAAAAAAA==

> <PUBCHEM_IUPAC_OPENEYE_NAME>
N-(1-ethylpropyl)-1-[5-(trifluoromethyl)-2-pyridyl]piperidine-4-carboxamide

> <PUBCHEM_IUPAC_CAS_NAME>
N-pentan-3-yl-1-[5-(trifluoromethyl)-2-pyridinyl]-4-piperidinecarboxamide

> <PUBCHEM_IUPAC_NAME>
N-pentan-3-yl-1-[5-(trifluoromethyl)pyridin-2-yl]piperidine-4-carboxamide

> <PUBCHEM_IUPAC_SYSTEMATIC_NAME>
N-pentan-3-yl-1-[5-(trifluoromethyl)pyridin-2-yl]piperidine-4-carboxamide

> <PUBCHEM_IUPAC_TRADITIONAL_NAME>
N-(1-ethylpropyl)-1-[5-(trifluoromethyl)-2-pyridyl]isonipecotamide

> <PUBCHEM_IUPAC_INCHI>
InChI=1S/C17H24F3N3O/c1-3-14(4-2)22-16(24)12-7-9-23(10-8-12)15-6-5-13(11-21-15)17(18,19)20/h5-6,11-12,14H,3-4,7-10H2,1-2H3,(H,22,24)

> <PUBCHEM_IUPAC_INCHIKEY>
RQDYXXJAQDBTMB-UHFFFAOYSA-N

> <PUBCHEM_XLOGP3_AA>
3.8

> <PUBCHEM_EXACT_MASS>
343.187147

> <PUBCHEM_MOLECULAR_FORMULA>
C17H24F3N3O

> <PUBCHEM_MOLECULAR_WEIGHT>
343.38717

> <PUBCHEM_OPENEYE_CAN_SMILES>
CCC(CC)NC(=O)C1CCN(CC1)C2=NC=C(C=C2)C(F)(F)F

> <PUBCHEM_OPENEYE_ISO_SMILES>
CCC(CC)NC(=O)C1CCN(CC1)C2=NC=C(C=C2)C(F)(F)F

> <PUBCHEM_CACTVS_TPSA>
45.2

> <PUBCHEM_MONOISOTOPIC_WEIGHT>
343.187147

> <PUBCHEM_TOTAL_CHARGE>
0

> <PUBCHEM_HEAVY_ATOM_COUNT>
24

> <PUBCHEM_ATOM_DEF_STEREO_COUNT>
0

> <PUBCHEM_ATOM_UDEF_STEREO_COUNT>
0

> <PUBCHEM_BOND_DEF_STEREO_COUNT>
0

> <PUBCHEM_BOND_UDEF_STEREO_COUNT>
0

> <PUBCHEM_ISOTOPIC_ATOM_COUNT>
0

> <PUBCHEM_COMPONENT_COUNT>
1

> <PUBCHEM_CACTVS_TAUTO_COUNT>
2

> <PUBCHEM_COORDINATE_TYPE>
1
5
255

> <PUBCHEM_BONDANNOTATIONS>
15  18  8
18  21  8
21  23  8
22  23  8
7  15  8
7  22  8

$$$$

