5196
  -OEChem-07051212462D

 10  9  0     0  0  0  0  0  0999 V2000
    4.2690    1.0600    0.0000 O   0  0  0  0  0  0  0  0  0  0  0  0
    3.4030   -0.4400    0.0000 N   0  0  0  0  0  0  0  0  0  0  0  0
    2.5369    0.0600    0.0000 N   0  0  0  0  0  0  0  0  0  0  0  0
    5.1350   -0.4400    0.0000 N   0  0  0  0  0  0  0  0  0  0  0  0
    4.2690    0.0600    0.0000 C   0  0  0  0  0  0  0  0  0  0  0  0
    3.4030   -1.0600    0.0000 H   0  0  0  0  0  0  0  0  0  0  0  0
    2.0000   -0.2500    0.0000 H   0  0  0  0  0  0  0  0  0  0  0  0
    2.5369    0.6800    0.0000 H   0  0  0  0  0  0  0  0  0  0  0  0
    5.6720   -0.1300    0.0000 H   0  0  0  0  0  0  0  0  0  0  0  0
    5.1350   -1.0600    0.0000 H   0  0  0  0  0  0  0  0  0  0  0  0
  1  5  2  0  0  0  0
  2  3  1  0  0  0  0
  2  5  1  0  0  0  0
  2  6  1  0  0  0  0
  3  7  1  0  0  0  0
  3  8  1  0  0  0  0
  4  5  1  0  0  0  0
  4  9  1  0  0  0  0
  4 10  1  0  0  0  0
M  END
> <PUBCHEM_COMPOUND_CID>
5196

> <PUBCHEM_COMPOUND_CANONICALIZED>
1

> <PUBCHEM_CACTVS_COMPLEXITY>
42.2

> <PUBCHEM_CACTVS_HBOND_ACCEPTOR>
2

> <PUBCHEM_CACTVS_HBOND_DONOR>
3

> <PUBCHEM_CACTVS_ROTATABLE_BOND>
0

> <PUBCHEM_CACTVS_SUBSKEYS>
AAADcYADIAAAAAAAAAAAAAAAAAAAAAAAAAAAAAAAAAAAAAAAAAAABgAYAAAAAAAAAAABAABiAAAIAAAAEAAAAAAAAAIGIAAAAAAAAAAAAAAAAAAQAAAAAAAAAAAAAAAAAAAAAAAAAAAAAAAAAAAAAAAAAA==

> <PUBCHEM_IUPAC_OPENEYE_NAME>
aminourea

> <PUBCHEM_IUPAC_CAS_NAME>
aminourea

> <PUBCHEM_IUPAC_NAME>
aminourea

> <PUBCHEM_IUPAC_SYSTEMATIC_NAME>
1-azanylurea

> <PUBCHEM_IUPAC_TRADITIONAL_NAME>
aminourea

> <PUBCHEM_IUPAC_INCHI>
InChI=1S/CH5N3O/c2-1(5)4-3/h3H2,(H3,2,4,5)

> <PUBCHEM_IUPAC_INCHIKEY>
DUIOPKIIICUYRZ-UHFFFAOYSA-N

> <PUBCHEM_XLOGP3_AA>
-1.8

> <PUBCHEM_EXACT_MASS>
75.043262

> <PUBCHEM_MOLECULAR_FORMULA>
CH5N3O

> <PUBCHEM_MOLECULAR_WEIGHT>
75.0699

> <PUBCHEM_OPENEYE_CAN_SMILES>
C(=O)(N)NN

> <PUBCHEM_OPENEYE_ISO_SMILES>
C(=O)(N)NN

> <PUBCHEM_CACTVS_TPSA>
81.1

> <PUBCHEM_MONOISOTOPIC_WEIGHT>
75.043262

> <PUBCHEM_TOTAL_CHARGE>
0

> <PUBCHEM_HEAVY_ATOM_COUNT>
5

> <PUBCHEM_ATOM_DEF_STEREO_COUNT>
0

> <PUBCHEM_ATOM_UDEF_STEREO_COUNT>
0

> <PUBCHEM_BOND_DEF_STEREO_COUNT>
0

> <PUBCHEM_BOND_UDEF_STEREO_COUNT>
0

> <PUBCHEM_ISOTOPIC_ATOM_COUNT>
0

> <PUBCHEM_COMPONENT_COUNT>
1

> <PUBCHEM_CACTVS_TAUTO_COUNT>
3

> <PUBCHEM_COORDINATE_TYPE>
1
5
255

$$$$

