5460495
  -OEChem-07051213112D

 17 16  0     0  0  0  0  0  0999 V2000
    6.3301    1.0600    0.0000 O   0  0  0  0  0  0  0  0  0  0  0  0
    2.0000   -0.4400    0.0000 O   0  0  0  0  0  0  0  0  0  0  0  0
    5.4641   -0.4400    0.0000 N   0  0  0  0  0  0  0  0  0  0  0  0
    4.5981    0.0600    0.0000 C   0  0  0  0  0  0  0  0  0  0  0  0
    3.7320   -0.4400    0.0000 C   0  0  0  0  0  0  0  0  0  0  0  0
    6.3301    0.0600    0.0000 C   0  0  0  0  0  0  0  0  0  0  0  0
    2.8660    0.0600    0.0000 C   0  0  0  0  0  0  0  0  0  0  0  0
    7.1962   -0.4400    0.0000 C   0  0  0  0  0  0  0  0  0  0  0  0
    4.9966    0.5349    0.0000 H   0  0  0  0  0  0  0  0  0  0  0  0
    4.1996    0.5349    0.0000 H   0  0  0  0  0  0  0  0  0  0  0  0
    3.3335   -0.9149    0.0000 H   0  0  0  0  0  0  0  0  0  0  0  0
    4.1306   -0.9149    0.0000 H   0  0  0  0  0  0  0  0  0  0  0  0
    5.4641   -1.0600    0.0000 H   0  0  0  0  0  0  0  0  0  0  0  0
    2.8660    0.6800    0.0000 H   0  0  0  0  0  0  0  0  0  0  0  0
    6.8862   -0.9769    0.0000 H   0  0  0  0  0  0  0  0  0  0  0  0
    7.7331   -0.7500    0.0000 H   0  0  0  0  0  0  0  0  0  0  0  0
    7.5062    0.0969    0.0000 H   0  0  0  0  0  0  0  0  0  0  0  0
  1  6  2  0  0  0  0
  2  7  2  0  0  0  0
  3  4  1  0  0  0  0
  3  6  1  0  0  0  0
  3 13  1  0  0  0  0
  4  5  1  0  0  0  0
  4  9  1  0  0  0  0
  4 10  1  0  0  0  0
  5  7  1  0  0  0  0
  5 11  1  0  0  0  0
  5 12  1  0  0  0  0
  6  8  1  0  0  0  0
  7 14  1  0  0  0  0
  8 15  1  0  0  0  0
  8 16  1  0  0  0  0
  8 17  1  0  0  0  0
M  END
> <PUBCHEM_COMPOUND_CID>
5460495

> <PUBCHEM_COMPOUND_CANONICALIZED>
1

> <PUBCHEM_CACTVS_COMPLEXITY>
90.4

> <PUBCHEM_CACTVS_HBOND_ACCEPTOR>
2

> <PUBCHEM_CACTVS_HBOND_DONOR>
1

> <PUBCHEM_CACTVS_ROTATABLE_BOND>
3

> <PUBCHEM_CACTVS_SUBSKEYS>
AAADccBiMAAAAAAAAAAAAAAAAAAAAAAAAAAAAAAAAAAAAAAAAAAAHgAQAAAACADhgAYCAALAAAAIAAkQkAAAAAAAAAAAAIEIAAAAAAgAAAAEAAAAFgCAAAAAAAAAAAAAAAAAAAAAAAAAAAAAAAAAAAAAAA==

> <PUBCHEM_IUPAC_OPENEYE_NAME>
N-(3-oxopropyl)acetamide

> <PUBCHEM_IUPAC_CAS_NAME>
N-(3-oxopropyl)acetamide

> <PUBCHEM_IUPAC_NAME>
N-(3-oxopropyl)acetamide

> <PUBCHEM_IUPAC_SYSTEMATIC_NAME>
N-(3-oxidanylidenepropyl)ethanamide

> <PUBCHEM_IUPAC_TRADITIONAL_NAME>
N-(3-ketopropyl)acetamide

> <PUBCHEM_IUPAC_INCHI>
InChI=1S/C5H9NO2/c1-5(8)6-3-2-4-7/h4H,2-3H2,1H3,(H,6,8)

> <PUBCHEM_IUPAC_INCHIKEY>
ARJPPNFIEQKVBB-UHFFFAOYSA-N

> <PUBCHEM_XLOGP3_AA>
-1

> <PUBCHEM_EXACT_MASS>
115.063329

> <PUBCHEM_MOLECULAR_FORMULA>
C5H9NO2

> <PUBCHEM_MOLECULAR_WEIGHT>
115.13046

> <PUBCHEM_OPENEYE_CAN_SMILES>
CC(=O)NCCC=O

> <PUBCHEM_OPENEYE_ISO_SMILES>
CC(=O)NCCC=O

> <PUBCHEM_CACTVS_TPSA>
46.2

> <PUBCHEM_MONOISOTOPIC_WEIGHT>
115.063329

> <PUBCHEM_TOTAL_CHARGE>
0

> <PUBCHEM_HEAVY_ATOM_COUNT>
8

> <PUBCHEM_ATOM_DEF_STEREO_COUNT>
0

> <PUBCHEM_ATOM_UDEF_STEREO_COUNT>
0

> <PUBCHEM_BOND_DEF_STEREO_COUNT>
0

> <PUBCHEM_BOND_UDEF_STEREO_COUNT>
0

> <PUBCHEM_ISOTOPIC_ATOM_COUNT>
0

> <PUBCHEM_COMPONENT_COUNT>
1

> <PUBCHEM_CACTVS_TAUTO_COUNT>
4

> <PUBCHEM_COORDINATE_TYPE>
1
5
255

$$$$

