   Color/Form

     * FLAKES FROM ETHYL ACETATE
     * SOLID OR LEAF-LIKE CRYSTALS
     * White crystals
     * UNCTUOUS, WHITE FLAKES, GRANULES, CUBES, OR CASTINGS
     * White, waxy solid

   from [1]HSDB

   Odor

     * Faint odor
     * ODORLESS

   from [2]HSDB

   Taste
        BLAND, MILD TASTE
   from [3]HSDB

   Boiling Point
        334 deg C at 760 mm Hg
   from [4]HSDB

   Melting Point
        49.3 deg C
   from [5]HSDB

   Critical Temperature and Pressure
        Critical temperature = 761 K; Critical pressure = 1.51E+06 Pa
   from [6]HSDB

   Density/Specific Gravity
        0.8187 at 50 deg C/4 deg C
   from [7]HSDB

   Dissociation Constants
        pKa = 16.20
   from [8]HSDB

   Heat of Combustion
        -9.797X10+09 J/kmol
   from [9]HSDB

   Heat of Vaporization
        9.9829X10+07 J/kmol at melting point
   from [10]HSDB

   Octanol/Water Partition Coefficient
        log Kow = 6.83 (est)
   from [11]HSDB

   Solubilities

     * Slightly soluble in alcohol; soluble in acetone; very soluble in
       ether, benzene, chloroform
     * Soluble in alcohol, chloroform, ether
     * In water, 4.1X10-2 mg/L at 25 deg C

   from [12]HSDB

   Spectral Properties

     * Index of refraction = 1.4283 at 79 deg C/D
     * CRYSTALS: SADTLER REFERENCE NUMBER: 222 (IR, PRISM); 5175 (NMR)
     * IR: 2106 (Coblentz Society Spectral Collection)
     * MASS: 63476 (NIST/EPA/MSDC Mass Spectral database, 1990 version);
       1677 (National Bureau of Standards)
     * Raman: 614 (Sadtler Research Laboratories Spectral Collection)

   from [13]HSDB

   Surface Tension
        0.028449 Newtons/m at melting point
   from [14]HSDB

   Vapor Density
        8.360 (AIR= 1)
   from [15]HSDB

   Vapor Pressure
        6X10-6 mm Hg at 25 deg C
   from [16]HSDB

   Viscosity
        53 mPa-s (=cP) at 75 deg C
   from [17]HSDB

   Other Chemical/Physical Properties

     * Congealing point: 46 deg C
     * Liquid molar volume = 0.296365 cu m/kmol; Heat of formation =
       -5.1421X10+08 J/kmol; Heat of fusion = 5.838X10+07 J/kmol
     * Henry's Law constant = 4.65X10-5 atm-cu m/mol at 25 deg C (est)
     * Hydroxyl radical reaction rate constant = 2.8X10-11 cu cm/molec-sec
       at 25 deg C (est)

   from [18]HSDB

   Computed Properties
   Molecular Weight                  242.44056 [g/mol]
   Molecular Formula                 C[16]H[34]O
   XLogP3                            7.3
   H-Bond Donor                      1
   H-Bond Acceptor                   1
   Rotatable Bond Count              14
   Exact Mass                        242.260966
   MonoIsotopic Mass                 242.260966
   Topological Polar Surface Area    20.2
   Heavy Atom Count                  17
   Formal Charge                     0
   Complexity                        123
   Isotope Atom Count                0
   Defined Atom Stereocenter Count   0
   Undefined Atom Stereocenter Count 0
   Defined Bond Stereocenter Count   0
   Undefined Bond Stereocenter Count 0
   Covalently-Bonded Unit Count      1
   Feature 3D Acceptor Count         1
   Feature 3D Donor Count            1
   Feature 3D Hydrophobe Count       1
   Effective Rotor Count             14
   Conformer Sampling RMSD           1.4
   CID Conformer Count               [19]52

References

   1. http://toxnet.nlm.nih.gov/cgi-bin/sis/search/r?dbs+hsdb:@term+@rn+@rel+36653-82-4
   2. http://toxnet.nlm.nih.gov/cgi-bin/sis/search/r?dbs+hsdb:@term+@rn+@rel+36653-82-4
   3. http://toxnet.nlm.nih.gov/cgi-bin/sis/search/r?dbs+hsdb:@term+@rn+@rel+36653-82-4
   4. http://toxnet.nlm.nih.gov/cgi-bin/sis/search/r?dbs+hsdb:@term+@rn+@rel+36653-82-4
   5. http://toxnet.nlm.nih.gov/cgi-bin/sis/search/r?dbs+hsdb:@term+@rn+@rel+36653-82-4
   6. http://toxnet.nlm.nih.gov/cgi-bin/sis/search/r?dbs+hsdb:@term+@rn+@rel+36653-82-4
   7. http://toxnet.nlm.nih.gov/cgi-bin/sis/search/r?dbs+hsdb:@term+@rn+@rel+36653-82-4
   8. http://toxnet.nlm.nih.gov/cgi-bin/sis/search/r?dbs+hsdb:@term+@rn+@rel+36653-82-4
   9. http://toxnet.nlm.nih.gov/cgi-bin/sis/search/r?dbs+hsdb:@term+@rn+@rel+36653-82-4
  10. http://toxnet.nlm.nih.gov/cgi-bin/sis/search/r?dbs+hsdb:@term+@rn+@rel+36653-82-4
  11. http://toxnet.nlm.nih.gov/cgi-bin/sis/search/r?dbs+hsdb:@term+@rn+@rel+36653-82-4
  12. http://toxnet.nlm.nih.gov/cgi-bin/sis/search/r?dbs+hsdb:@term+@rn+@rel+36653-82-4
  13. http://toxnet.nlm.nih.gov/cgi-bin/sis/search/r?dbs+hsdb:@term+@rn+@rel+36653-82-4
  14. http://toxnet.nlm.nih.gov/cgi-bin/sis/search/r?dbs+hsdb:@term+@rn+@rel+36653-82-4
  15. http://toxnet.nlm.nih.gov/cgi-bin/sis/search/r?dbs+hsdb:@term+@rn+@rel+36653-82-4
  16. http://toxnet.nlm.nih.gov/cgi-bin/sis/search/r?dbs+hsdb:@term+@rn+@rel+36653-82-4
  17. http://toxnet.nlm.nih.gov/cgi-bin/sis/search/r?dbs+hsdb:@term+@rn+@rel+36653-82-4
  18. http://toxnet.nlm.nih.gov/cgi-bin/sis/search/r?dbs+hsdb:@term+@rn+@rel+36653-82-4
  19. http://pubchem.ncbi.nlm.nih.gov/vw3d/vw3d.cgi?cid=2682
