9543286
  -OEChem-07051213112D

 27 31  0     1  0  0  0  0  0999 V2000
    2.9178    2.8011    0.0000 O   0  0  0  0  0  0  0  0  0  0  0  0
    2.9180    1.8007    0.0000 C   0  0  3  0  0  0  0  0  0  0  0  0
    3.7841    2.3007    0.0000 C   0  0  3  0  0  0  0  0  0  0  0  0
    2.9180    0.8007    0.0000 C   0  0  0  0  0  0  0  0  0  0  0  0
    3.7841    0.3007    0.0000 C   0  0  0  0  0  0  0  0  0  0  0  0
    4.6501    1.8007    0.0000 C   0  0  0  0  0  0  0  0  0  0  0  0
    4.6501    0.8007    0.0000 C   0  0  0  0  0  0  0  0  0  0  0  0
    3.8001   -0.7408    0.0000 C   0  0  0  0  0  0  0  0  0  0  0  0
    2.0080    0.2938    0.0000 C   0  0  0  0  0  0  0  0  0  0  0  0
    2.9021   -1.2686    0.0000 C   0  0  0  0  0  0  0  0  0  0  0  0
    4.6772   -1.2036    0.0000 C   0  0  0  0  0  0  0  0  0  0  0  0
    5.5095    0.3059    0.0000 C   0  0  0  0  0  0  0  0  0  0  0  0
    2.0000   -0.7478    0.0000 C   0  0  0  0  0  0  0  0  0  0  0  0
    5.5230   -0.6857    0.0000 C   0  0  0  0  0  0  0  0  0  0  0  0
    2.9282   -2.3100    0.0000 C   0  0  0  0  0  0  0  0  0  0  0  0
    4.7274   -2.2442    0.0000 C   0  0  0  0  0  0  0  0  0  0  0  0
    3.8470   -2.8011    0.0000 C   0  0  0  0  0  0  0  0  0  0  0  0
    2.2980    1.8006    0.0000 H   0  0  0  0  0  0  0  0  0  0  0  0
    4.0941    2.8376    0.0000 H   0  0  0  0  0  0  0  0  0  0  0  0
    5.1870    2.1107    0.0000 H   0  0  0  0  0  0  0  0  0  0  0  0
    1.4747    0.6100    0.0000 H   0  0  0  0  0  0  0  0  0  0  0  0
    6.0442    0.6199    0.0000 H   0  0  0  0  0  0  0  0  0  0  0  0
    1.4619   -1.0557    0.0000 H   0  0  0  0  0  0  0  0  0  0  0  0
    6.0659   -0.9851    0.0000 H   0  0  0  0  0  0  0  0  0  0  0  0
    2.4004   -2.6354    0.0000 H   0  0  0  0  0  0  0  0  0  0  0  0
    5.2775   -2.5301    0.0000 H   0  0  0  0  0  0  0  0  0  0  0  0
    3.8696   -3.4207    0.0000 H   0  0  0  0  0  0  0  0  0  0  0  0
  1  2  1  0  0  0  0
  1  3  1  0  0  0  0
  2  3  1  0  0  0  0
  2  4  1  0  0  0  0
  2 18  1  0  0  0  0
  3  6  1  0  0  0  0
  3 19  1  0  0  0  0
  4  5  2  0  0  0  0
  4  9  1  0  0  0  0
  5  7  1  0  0  0  0
  5  8  1  0  0  0  0
  6  7  2  0  0  0  0
  6 20  1  0  0  0  0
  7 12  1  0  0  0  0
  8 10  1  0  0  0  0
  8 11  2  0  0  0  0
  9 13  2  0  0  0  0
  9 21  1  0  0  0  0
 10 13  1  0  0  0  0
 10 15  2  0  0  0  0
 11 14  1  0  0  0  0
 11 16  1  0  0  0  0
 12 14  2  0  0  0  0
 12 22  1  0  0  0  0
 13 23  1  0  0  0  0
 14 24  1  0  0  0  0
 15 17  1  0  0  0  0
 15 25  1  0  0  0  0
 16 17  2  0  0  0  0
 16 26  1  0  0  0  0
 17 27  1  0  0  0  0
M  END
> <PUBCHEM_COMPOUND_CID>
9543286

> <PUBCHEM_COMPOUND_CANONICALIZED>
1

> <PUBCHEM_CACTVS_COMPLEXITY>
421

> <PUBCHEM_CACTVS_HBOND_ACCEPTOR>
1

> <PUBCHEM_CACTVS_HBOND_DONOR>
0

> <PUBCHEM_CACTVS_ROTATABLE_BOND>
0

> <PUBCHEM_CACTVS_SUBSKEYS>
AAADccB4IAAAAAAAAAAAAAAAEgAAAAAAAAAwYIEABAAAAADBUAAAGgAAAAAADBSgmAIwAMAABACAAiBCAAACAAAgAAAIiAAACIgIJiKAMRiCMAAkwAEIqAeAwPAOwAACAAAQAACAAAQAACAAAAAAAAAAAA==

> <PUBCHEM_IUPAC_INCHI>
InChI=1S/C16H10O/c1-2-9-4-5-11-8-13-16(17-13)12-7-6-10(3-1)14(9)15(11)12/h1-8,13,16H

> <PUBCHEM_IUPAC_INCHIKEY>
IRYBKFGKUNZRSI-UHFFFAOYSA-N

> <PUBCHEM_XLOGP3_AA>
3.1

> <PUBCHEM_EXACT_MASS>
218.073165

> <PUBCHEM_MOLECULAR_FORMULA>
C16H10O

> <PUBCHEM_MOLECULAR_WEIGHT>
218.25

> <PUBCHEM_OPENEYE_CAN_SMILES>
C1=CC2=C3C(=C1)C=CC4=C3C(=CC5C4O5)C=C2

> <PUBCHEM_OPENEYE_ISO_SMILES>
C1=CC2=C3C(=C1)C=CC4=C3C(=CC5C4O5)C=C2

> <PUBCHEM_CACTVS_TPSA>
12.5

> <PUBCHEM_MONOISOTOPIC_WEIGHT>
218.073165

> <PUBCHEM_TOTAL_CHARGE>
0

> <PUBCHEM_HEAVY_ATOM_COUNT>
17

> <PUBCHEM_ATOM_DEF_STEREO_COUNT>
0

> <PUBCHEM_ATOM_UDEF_STEREO_COUNT>
2

> <PUBCHEM_BOND_DEF_STEREO_COUNT>
0

> <PUBCHEM_BOND_UDEF_STEREO_COUNT>
0

> <PUBCHEM_ISOTOPIC_ATOM_COUNT>
0

> <PUBCHEM_COMPONENT_COUNT>
1

> <PUBCHEM_CACTVS_TAUTO_COUNT>
1

> <PUBCHEM_COORDINATE_TYPE>
1
5
255

> <PUBCHEM_BONDANNOTATIONS>
2  1  3
10  13  8
10  15  8
11  14  8
11  16  8
12  14  8
15  17  8
16  17  8
3  6  3
4  5  8
4  9  8
5  7  8
5  8  8
7  12  8
8  10  8
8  11  8
9  13  8

$$$$

