92221
  -OEChem-07051212512D

 26 27  0     1  0  0  0  0  0999 V2000
    4.2320   -0.0976    0.0000 C   0  0  1  0  0  0  0  0  0  0  0  0
    6.0640   -0.8564    0.0000 C   0  0  0  0  0  0  0  0  0  0  0  0
    4.4909    0.8683    0.0000 C   0  0  2  0  0  0  0  0  0  0  0  0
    3.7543    1.8509    0.0000 C   0  0  0  0  0  0  0  0  0  0  0  0
    2.5000   -1.0976    0.0000 C   0  0  0  0  0  0  0  0  0  0  0  0
    2.0000   -0.2316    0.0000 C   0  0  0  0  0  0  0  0  0  0  0  0
    6.3228    0.1095    0.0000 C   0  0  0  0  0  0  0  0  0  0  0  0
    6.9776   -1.2632    0.0000 C   0  0  0  0  0  0  0  0  0  0  0  0
    5.9595   -1.8509    0.0000 C   0  0  0  0  0  0  0  0  0  0  0  0
    7.1888    0.6095    0.0000 C   0  0  0  0  0  0  0  0  0  0  0  0
    4.0120   -0.9186    0.0000 H   0  0  0  0  0  0  0  0  0  0  0  0
    4.7109    1.6894    0.0000 H   0  0  0  0  0  0  0  0  0  0  0  0
    4.0721    2.3833    0.0000 H   0  0  0  0  0  0  0  0  0  0  0  0
    3.1411    1.9429    0.0000 H   0  0  0  0  0  0  0  0  0  0  0  0
    1.9631   -1.4076    0.0000 H   0  0  0  0  0  0  0  0  0  0  0  0
    2.8100   -1.6345    0.0000 H   0  0  0  0  0  0  0  0  0  0  0  0
    1.7294    0.3262    0.0000 H   0  0  0  0  0  0  0  0  0  0  0  0
    1.4523   -0.5221    0.0000 H   0  0  0  0  0  0  0  0  0  0  0  0
    6.7254   -1.8296    0.0000 H   0  0  0  0  0  0  0  0  0  0  0  0
    7.5440   -1.5153    0.0000 H   0  0  0  0  0  0  0  0  0  0  0  0
    7.2297   -0.6968    0.0000 H   0  0  0  0  0  0  0  0  0  0  0  0
    5.3429   -1.7861    0.0000 H   0  0  0  0  0  0  0  0  0  0  0  0
    5.8947   -2.4675    0.0000 H   0  0  0  0  0  0  0  0  0  0  0  0
    6.5761   -1.9158    0.0000 H   0  0  0  0  0  0  0  0  0  0  0  0
    7.7258    0.2995    0.0000 H   0  0  0  0  0  0  0  0  0  0  0  0
    7.1888    1.2295    0.0000 H   0  0  0  0  0  0  0  0  0  0  0  0
  1  2  1  0  0  0  0
  1  4  1  0  0  0  0
  1  5  1  0  0  0  0
  1 11  1  1  0  0  0
  2  7  1  0  0  0  0
  2  8  1  0  0  0  0
  2  9  1  0  0  0  0
  3  4  1  0  0  0  0
  3  6  1  0  0  0  0
  3  7  1  0  0  0  0
  3 12  1  6  0  0  0
  4 13  1  0  0  0  0
  4 14  1  0  0  0  0
  5  6  1  0  0  0  0
  5 15  1  0  0  0  0
  5 16  1  0  0  0  0
  6 17  1  0  0  0  0
  6 18  1  0  0  0  0
  7 10  2  0  0  0  0
  8 19  1  0  0  0  0
  8 20  1  0  0  0  0
  8 21  1  0  0  0  0
  9 22  1  0  0  0  0
  9 23  1  0  0  0  0
  9 24  1  0  0  0  0
 10 25  1  0  0  0  0
 10 26  1  0  0  0  0
M  END
> <PUBCHEM_COMPOUND_CID>
92221

> <PUBCHEM_COMPOUND_CANONICALIZED>
1

> <PUBCHEM_CACTVS_COMPLEXITY>
177

> <PUBCHEM_CACTVS_HBOND_ACCEPTOR>
0

> <PUBCHEM_CACTVS_HBOND_DONOR>
0

> <PUBCHEM_CACTVS_ROTATABLE_BOND>
0

> <PUBCHEM_CACTVS_SUBSKEYS>
AAADceBwAAAAAAAAAAAAAAAAAAAAAYMAAAAwAAAAAAAAAAAAAAAAGAAAAAAADwCAAAACAAAAAACAAgBCAAAAAAAgAAAAAAAAAAgAAAIAAQAAAAAAgAAAAAEAgMAPgAAAAAAAAAAAAAQAACAAAQAACAAAAA==

> <PUBCHEM_IUPAC_OPENEYE_NAME>
(1R,4S)-2,2-dimethyl-3-methylene-norbornane

> <PUBCHEM_IUPAC_CAS_NAME>
(1S,4R)-3,3-dimethyl-2-methylenebicyclo[2.2.1]heptane

> <PUBCHEM_IUPAC_NAME>
(1S,4R)-3,3-dimethyl-2-methylidenebicyclo[2.2.1]heptane

> <PUBCHEM_IUPAC_SYSTEMATIC_NAME>
(1S,4R)-3,3-dimethyl-2-methylidene-bicyclo[2.2.1]heptane

> <PUBCHEM_IUPAC_TRADITIONAL_NAME>
(1R,4S)-2,2-dimethyl-3-methylene-norbornane

> <PUBCHEM_IUPAC_INCHI>
InChI=1S/C10H16/c1-7-8-4-5-9(6-8)10(7,2)3/h8-9H,1,4-6H2,2-3H3/t8-,9+/m0/s1

> <PUBCHEM_IUPAC_INCHIKEY>
CRPUJAZIXJMDBK-DTWKUNHWSA-N

> <PUBCHEM_XLOGP3_AA>
3.3

> <PUBCHEM_EXACT_MASS>
136.125201

> <PUBCHEM_MOLECULAR_FORMULA>
C10H16

> <PUBCHEM_MOLECULAR_WEIGHT>
136.23404

> <PUBCHEM_OPENEYE_CAN_SMILES>
CC1(C2CCC(C2)C1=C)C

> <PUBCHEM_OPENEYE_ISO_SMILES>
CC1([C@@H]2CC[C@@H](C2)C1=C)C

> <PUBCHEM_CACTVS_TPSA>
0

> <PUBCHEM_MONOISOTOPIC_WEIGHT>
136.125201

> <PUBCHEM_TOTAL_CHARGE>
0

> <PUBCHEM_HEAVY_ATOM_COUNT>
10

> <PUBCHEM_ATOM_DEF_STEREO_COUNT>
2

> <PUBCHEM_ATOM_UDEF_STEREO_COUNT>
0

> <PUBCHEM_BOND_DEF_STEREO_COUNT>
0

> <PUBCHEM_BOND_UDEF_STEREO_COUNT>
0

> <PUBCHEM_ISOTOPIC_ATOM_COUNT>
0

> <PUBCHEM_COMPONENT_COUNT>
1

> <PUBCHEM_CACTVS_TAUTO_COUNT>
1

> <PUBCHEM_COORDINATE_TYPE>
1
5
255

> <PUBCHEM_BONDANNOTATIONS>
1  11  5
3  12  6

$$$$

