   Color/Form

     * YELLOW LIQUID
     * Yellow liquid. [Note: A solid below 59 degrees F.]

   from [1]HSDB

   Odor
        Weak, aromatic odor.
   from [2]HSDB

   Boiling Point
        231.9 deg C @ 760 mm Hg
   from [3]HSDB

   Melting Point
        15.5 deg C
   from [4]HSDB

   Density/Specific Gravity
        1.1581 @ 20 deg C/4 deg C
   from [5]HSDB

   Heat of Combustion
        11,232 Btu/lb = 86.3 cal/g = 3.61X10+5 J/kg
   from [6]HSDB

   Heat of Vaporization
        11,831.1 gcal/gmole
   from [7]HSDB

   Octanol/Water Partition Coefficient
        log Kow= 2.45
   from [8]HSDB

   Solubilities

     * Miscible in alcohol and ether; sol in benzene.
     * In water, 500 mg/L @ 30 deg C
     * Soluble in ethanol

   from [9]HSDB

   Spectral Properties

     * Index of refraction: 1.5426 @ 30 deg C/D
     * MAX ABSORPTION (5% ALCOHOL): 274 NM (LOG E = 3.86); SADTLER
       REFERENCE NUMBER: 18 (IR, PRISM); 61 (IR, GRATING)
     * IR: 2210 (Coblentz Society Spectral Collection)
     * UV: 73 (Sadtler Research Laboratories Spectral Collection)
     * NMR: 22 (Sadtler Research Laboratories Spectral Collection)
     * MASS: 69554 (NIST/EPA/MSDC Mass Spectral Database, 1990 version);
       714 (Atlas of Mass Spectral Data, John Wiley & Sons, New York)

   from [10]HSDB

   Surface Tension
        39.07 dynes/cm @ 40 deg C
   from [11]HSDB

   Vapor Density
        4.73 (AIR = 1)
   from [12]HSDB

   Vapor Pressure
        0.205 mm Hg @ 25 deg C /Extrapolated/
   from [13]HSDB

   Other Chemical/Physical Properties

     * Solidifies in an ice and salt cooling mixture
     * % in saturated air 0.13 @ 60 deg C.
     * Vapor pressure: 1.0 mm Hg @ 60 deg C
     * Henry's Law constant = 9.3X10-6 atm-cu m/mole @ 25 deg C
     * Hydroxyl radical reaction rate constant = 9.5X10-13 cu
       cm/molecule-sec @ 25 deg C

   from [14]HSDB

   Computed Properties
   Molecular Weight                  137.13598 [g/mol]
   Molecular Formula                 C[7]H[7]NO[2]
   XLogP3                            2.4
   H-Bond Donor                      0
   H-Bond Acceptor                   2
   Rotatable Bond Count              0
   Exact Mass                        137.047678
   MonoIsotopic Mass                 137.047678
   Topological Polar Surface Area    45.8
   Heavy Atom Count                  10
   Formal Charge                     0
   Complexity                        130
   Isotope Atom Count                0
   Defined Atom Stereocenter Count   0
   Undefined Atom Stereocenter Count 0
   Defined Bond Stereocenter Count   0
   Undefined Bond Stereocenter Count 0
   Covalently-Bonded Unit Count      1
   Feature 3D Acceptor Count         2
   Feature 3D Anion Count            1
   Feature 3D Ring Count             1
   Effective Rotor Count             1
   Conformer Sampling RMSD           0.4
   CID Conformer Count               [15]1

References

   1. http://toxnet.nlm.nih.gov/cgi-bin/sis/search/r?dbs+hsdb:@term+@rn+@rel+99-08-1
   2. http://toxnet.nlm.nih.gov/cgi-bin/sis/search/r?dbs+hsdb:@term+@rn+@rel+99-08-1
   3. http://toxnet.nlm.nih.gov/cgi-bin/sis/search/r?dbs+hsdb:@term+@rn+@rel+99-08-1
   4. http://toxnet.nlm.nih.gov/cgi-bin/sis/search/r?dbs+hsdb:@term+@rn+@rel+99-08-1
   5. http://toxnet.nlm.nih.gov/cgi-bin/sis/search/r?dbs+hsdb:@term+@rn+@rel+99-08-1
   6. http://toxnet.nlm.nih.gov/cgi-bin/sis/search/r?dbs+hsdb:@term+@rn+@rel+99-08-1
   7. http://toxnet.nlm.nih.gov/cgi-bin/sis/search/r?dbs+hsdb:@term+@rn+@rel+99-08-1
   8. http://toxnet.nlm.nih.gov/cgi-bin/sis/search/r?dbs+hsdb:@term+@rn+@rel+99-08-1
   9. http://toxnet.nlm.nih.gov/cgi-bin/sis/search/r?dbs+hsdb:@term+@rn+@rel+99-08-1
  10. http://toxnet.nlm.nih.gov/cgi-bin/sis/search/r?dbs+hsdb:@term+@rn+@rel+99-08-1
  11. http://toxnet.nlm.nih.gov/cgi-bin/sis/search/r?dbs+hsdb:@term+@rn+@rel+99-08-1
  12. http://toxnet.nlm.nih.gov/cgi-bin/sis/search/r?dbs+hsdb:@term+@rn+@rel+99-08-1
  13. http://toxnet.nlm.nih.gov/cgi-bin/sis/search/r?dbs+hsdb:@term+@rn+@rel+99-08-1
  14. http://toxnet.nlm.nih.gov/cgi-bin/sis/search/r?dbs+hsdb:@term+@rn+@rel+99-08-1
  15. http://pubchem.ncbi.nlm.nih.gov/vw3d/vw3d.cgi?cid=7422
