   Color/Form

     * Colorless to white crystalline solid
     * Cream to wine-red colored solid
     * Colorless to yellow crystals

   from [1]HSDB

   Odor
        Odorless
   from [2]HSDB

   Boiling Point
        100 deg C at 0.02 mm Hg; 135 deg C at 0.3 mm Hg
   from [3]HSDB

   Melting Point
        40-41 deg C
   from [4]HSDB

   Corrosivity
        NO CORROSION TO NUMBER 316 & 304 STAINLESS STEEL, ALUMINUM &
   HERESITE; CORROSIVE TO STEEL & BLACK IRON
   from [5]HSDB

   Density/Specific Gravity
        1.133 at 25 deg C/15.6 deg C
   from [6]HSDB

   Octanol/Water Partition Coefficient
        log Kow = 3.52
   from [7]HSDB

   Solubilities

     * Soluble in diethyl ether, acetone, benzene, chloroform, ethanol,
       ethyl acetate; sparingly soluble in heptane
     * In water, 240 mg/L at 25 deg C [Chesters G et al; Rev Environ
       Contam Toxicol 110: 1-74 (1989)] [8]PubMed Abstract

   from [9]HSDB

   Spectral Properties
        Intense mass spectral peaks: 45 m/z (100%), 160 m/z (38%), 188 m/z
   (30%), 146 m/z (13%)
   from [10]HSDB

   Vapor Pressure
        2.20X10-5 mm Hg at 25 deg C [Chesters G et al; Rev Environ Contam
   Toxicol 110: 1-74 (1989)] [11]PubMed Abstract
   from [12]HSDB

   Other Chemical/Physical Properties

     * Hydrolyzed under strongly acid or alkaline conditions
     * Decomposes at 105 deg C
     * Colorless crystals; MW: 269.77; MP: 39.5-41.5 deg C; specific
       gravity 1.133 at 25 deg C/15.6 deg C. /Technical alachlor/
     * Henry's Law constant = 8.32X10-9 atm-cu m/mol at 25 deg C
     * Hydroxyl radical reaction rate constant = 1.85X10-10 cu
       cm/molec-sec at 25 deg C (est)

   from [13]HSDB

   Computed Properties
   Molecular Weight                  269.7671 [g/mol]
   Molecular Formula                 C[14]H[20]ClNO[2]
   XLogP3                            3.5
   H-Bond Donor                      0
   H-Bond Acceptor                   2
   Rotatable Bond Count              6
   Exact Mass                        269.118257
   MonoIsotopic Mass                 269.118257
   Topological Polar Surface Area    29.5
   Heavy Atom Count                  18
   Formal Charge                     0
   Complexity                        248
   Isotope Atom Count                0
   Defined Atom Stereocenter Count   0
   Undefined Atom Stereocenter Count 0
   Defined Bond Stereocenter Count   0
   Undefined Bond Stereocenter Count 0
   Covalently-Bonded Unit Count      1
   Feature 3D Acceptor Count         2
   Feature 3D Hydrophobe Count       2
   Feature 3D Ring Count             1
   Effective Rotor Count             7
   Conformer Sampling RMSD           0.8
   CID Conformer Count               [14]24

References

   1. http://toxnet.nlm.nih.gov/cgi-bin/sis/search/r?dbs+hsdb:@term+@rn+@rel+15972-60-8
   2. http://toxnet.nlm.nih.gov/cgi-bin/sis/search/r?dbs+hsdb:@term+@rn+@rel+15972-60-8
   3. http://toxnet.nlm.nih.gov/cgi-bin/sis/search/r?dbs+hsdb:@term+@rn+@rel+15972-60-8
   4. http://toxnet.nlm.nih.gov/cgi-bin/sis/search/r?dbs+hsdb:@term+@rn+@rel+15972-60-8
   5. http://toxnet.nlm.nih.gov/cgi-bin/sis/search/r?dbs+hsdb:@term+@rn+@rel+15972-60-8
   6. http://toxnet.nlm.nih.gov/cgi-bin/sis/search/r?dbs+hsdb:@term+@rn+@rel+15972-60-8
   7. http://toxnet.nlm.nih.gov/cgi-bin/sis/search/r?dbs+hsdb:@term+@rn+@rel+15972-60-8
   8. http://www.ncbi.nlm.nih.gov/entrez/query.fcgi?cmd=Retrieve&db=pubmed&dopt=Abstract&list_uids=2692086
   9. http://toxnet.nlm.nih.gov/cgi-bin/sis/search/r?dbs+hsdb:@term+@rn+@rel+15972-60-8
  10. http://toxnet.nlm.nih.gov/cgi-bin/sis/search/r?dbs+hsdb:@term+@rn+@rel+15972-60-8
  11. http://www.ncbi.nlm.nih.gov/entrez/query.fcgi?cmd=Retrieve&db=pubmed&dopt=Abstract&list_uids=2692086
  12. http://toxnet.nlm.nih.gov/cgi-bin/sis/search/r?dbs+hsdb:@term+@rn+@rel+15972-60-8
  13. http://toxnet.nlm.nih.gov/cgi-bin/sis/search/r?dbs+hsdb:@term+@rn+@rel+15972-60-8
  14. http://pubchem.ncbi.nlm.nih.gov/vw3d/vw3d.cgi?cid=2078
