1531
  -OEChem-07051213012D

 18 17  0     0  0  0  0  0  0999 V2000
    2.5369   -0.7015    0.0000 O   0  0  0  0  0  0  0  0  0  0  0  0
    4.2690    1.0306    0.0000 O   0  0  0  0  0  0  0  0  0  0  0  0
    5.1350   -0.2015    0.0000 N   0  0  0  0  0  0  0  0  0  0  0  0
    4.2690   -0.7015    0.0000 C   0  0  0  0  0  0  0  0  0  0  0  0
    3.4030   -1.2015    0.0000 C   0  0  0  0  0  0  0  0  0  0  0  0
    3.7690    0.1645    0.0000 C   0  0  0  0  0  0  0  0  0  0  0  0
    4.7690   -1.5675    0.0000 C   0  0  0  0  0  0  0  0  0  0  0  0
    3.0044   -1.6764    0.0000 H   0  0  0  0  0  0  0  0  0  0  0  0
    3.8015   -1.6764    0.0000 H   0  0  0  0  0  0  0  0  0  0  0  0
    3.2940    0.5631    0.0000 H   0  0  0  0  0  0  0  0  0  0  0  0
    3.2940   -0.2340    0.0000 H   0  0  0  0  0  0  0  0  0  0  0  0
    4.2320   -1.8775    0.0000 H   0  0  0  0  0  0  0  0  0  0  0  0
    5.0790   -2.1044    0.0000 H   0  0  0  0  0  0  0  0  0  0  0  0
    5.3059   -1.2575    0.0000 H   0  0  0  0  0  0  0  0  0  0  0  0
    5.6720   -0.5115    0.0000 H   0  0  0  0  0  0  0  0  0  0  0  0
    5.1350    0.4185    0.0000 H   0  0  0  0  0  0  0  0  0  0  0  0
    2.0000   -1.0115    0.0000 H   0  0  0  0  0  0  0  0  0  0  0  0
    3.9590    1.5675    0.0000 H   0  0  0  0  0  0  0  0  0  0  0  0
  1  5  1  0  0  0  0
  1 17  1  0  0  0  0
  2  6  1  0  0  0  0
  2 18  1  0  0  0  0
  3  4  1  0  0  0  0
  3 15  1  0  0  0  0
  3 16  1  0  0  0  0
  4  5  1  0  0  0  0
  4  6  1  0  0  0  0
  4  7  1  0  0  0  0
  5  8  1  0  0  0  0
  5  9  1  0  0  0  0
  6 10  1  0  0  0  0
  6 11  1  0  0  0  0
  7 12  1  0  0  0  0
  7 13  1  0  0  0  0
  7 14  1  0  0  0  0
M  END
> <PUBCHEM_COMPOUND_CID>
1531

> <PUBCHEM_COMPOUND_CANONICALIZED>
1

> <PUBCHEM_CACTVS_COMPLEXITY>
51.7

> <PUBCHEM_CACTVS_HBOND_ACCEPTOR>
3

> <PUBCHEM_CACTVS_HBOND_DONOR>
3

> <PUBCHEM_CACTVS_ROTATABLE_BOND>
2

> <PUBCHEM_CACTVS_SUBSKEYS>
AAADccBiMAAAAAAAAAAAAAAAAAAAAAAAAAAAAAAAAAAAAAAAAAAAHgAQCAAADIihgAICAABAAgAAAAAAAAAAAAAAAAAAAAAAAAACEAAAAAAAQAABEAAAAAAAAAAAAAAAAAAAAAAAAAAAAAAAAAAAAAAAAA==

> <PUBCHEM_IUPAC_OPENEYE_NAME>
2-amino-2-methyl-propane-1,3-diol

> <PUBCHEM_IUPAC_CAS_NAME>
2-amino-2-methylpropane-1,3-diol

> <PUBCHEM_IUPAC_NAME>
2-amino-2-methylpropane-1,3-diol

> <PUBCHEM_IUPAC_SYSTEMATIC_NAME>
2-azanyl-2-methyl-propane-1,3-diol

> <PUBCHEM_IUPAC_TRADITIONAL_NAME>
2-amino-2-methyl-propane-1,3-diol

> <PUBCHEM_IUPAC_INCHI>
InChI=1S/C4H11NO2/c1-4(5,2-6)3-7/h6-7H,2-3,5H2,1H3

> <PUBCHEM_IUPAC_INCHIKEY>
UXFQFBNBSPQBJW-UHFFFAOYSA-N

> <PUBCHEM_XLOGP3_AA>
-1.8

> <PUBCHEM_EXACT_MASS>
105.078979

> <PUBCHEM_MOLECULAR_FORMULA>
C4H11NO2

> <PUBCHEM_MOLECULAR_WEIGHT>
105.13564

> <PUBCHEM_OPENEYE_CAN_SMILES>
CC(CO)(CO)N

> <PUBCHEM_OPENEYE_ISO_SMILES>
CC(CO)(CO)N

> <PUBCHEM_CACTVS_TPSA>
66.5

> <PUBCHEM_MONOISOTOPIC_WEIGHT>
105.078979

> <PUBCHEM_TOTAL_CHARGE>
0

> <PUBCHEM_HEAVY_ATOM_COUNT>
7

> <PUBCHEM_ATOM_DEF_STEREO_COUNT>
0

> <PUBCHEM_ATOM_UDEF_STEREO_COUNT>
0

> <PUBCHEM_BOND_DEF_STEREO_COUNT>
0

> <PUBCHEM_BOND_UDEF_STEREO_COUNT>
0

> <PUBCHEM_ISOTOPIC_ATOM_COUNT>
0

> <PUBCHEM_COMPONENT_COUNT>
1

> <PUBCHEM_CACTVS_TAUTO_COUNT>
1

> <PUBCHEM_COORDINATE_TYPE>
1
5
255

$$$$

