65999
  -OEChem-07051212542D

 69 74  0     0  0  0  0  0  0999 V2000
   13.8689   -0.7274    0.0000 O   0  0  0  0  0  0  0  0  0  0  0  0
   12.2225   -0.1893    0.0000 O   0  0  0  0  0  0  0  0  0  0  0  0
    8.6192   -0.0637    0.0000 N   0  0  0  0  0  0  0  0  0  0  0  0
    8.6192   -1.6732    0.0000 N   0  0  0  0  0  0  0  0  0  0  0  0
    4.1671   -0.2735    0.0000 N   0  0  0  0  0  0  0  0  0  0  0  0
    4.9718    1.1203    0.0000 N   0  0  0  0  0  0  0  0  0  0  0  0
    7.6730   -0.3684    0.0000 C   0  0  0  0  0  0  0  0  0  0  0  0
    9.2028   -0.8684    0.0000 C   0  0  0  0  0  0  0  0  0  0  0  0
    7.6730   -1.3684    0.0000 C   0  0  0  0  0  0  0  0  0  0  0  0
    8.9298    0.8868    0.0000 C   0  0  0  0  0  0  0  0  0  0  0  0
   10.2028   -0.8684    0.0000 C   0  0  0  0  0  0  0  0  0  0  0  0
    5.9409   -0.3684    0.0000 C   0  0  0  0  0  0  0  0  0  0  0  0
    6.8069    0.1316    0.0000 C   0  0  0  0  0  0  0  0  0  0  0  0
    6.8069   -1.8684    0.0000 C   0  0  0  0  0  0  0  0  0  0  0  0
    5.9409   -1.3684    0.0000 C   0  0  0  0  0  0  0  0  0  0  0  0
    5.0749    0.1316    0.0000 C   0  0  0  0  0  0  0  0  0  0  0  0
    9.9083    1.0930    0.0000 C   0  0  0  0  0  0  0  0  0  0  0  0
   10.7028   -1.7345    0.0000 C   0  0  0  0  0  0  0  0  0  0  0  0
    6.8069   -2.8684    0.0000 C   0  0  0  0  0  0  0  0  0  0  0  0
    3.5000    0.4635    0.0000 C   0  0  0  0  0  0  0  0  0  0  0  0
    4.0000    1.3295    0.0000 C   0  0  0  0  0  0  0  0  0  0  0  0
   10.5762    0.3487    0.0000 C   0  0  0  0  0  0  0  0  0  0  0  0
   10.2190    2.0436    0.0000 C   0  0  0  0  0  0  0  0  0  0  0  0
   11.7028   -1.7345    0.0000 C   0  0  0  0  0  0  0  0  0  0  0  0
    3.9609   -1.2521    0.0000 C   0  0  0  0  0  0  0  0  0  0  0  0
   11.8653    1.5055    0.0000 C   0  0  0  0  0  0  0  0  0  0  0  0
   11.5547    0.5550    0.0000 C   0  0  0  0  0  0  0  0  0  0  0  0
   11.1975    2.2498    0.0000 C   0  0  0  0  0  0  0  0  0  0  0  0
    2.5000    0.4635    0.0000 C   0  0  0  0  0  0  0  0  0  0  0  0
    3.5000    2.1955    0.0000 C   0  0  0  0  0  0  0  0  0  0  0  0
   12.8439    1.7117    0.0000 C   0  0  0  0  0  0  0  0  0  0  0  0
    2.0000    1.3295    0.0000 C   0  0  0  0  0  0  0  0  0  0  0  0
    2.5000    2.1955    0.0000 C   0  0  0  0  0  0  0  0  0  0  0  0
   13.5117    0.9674    0.0000 C   0  0  0  0  0  0  0  0  0  0  0  0
   13.1545    2.6622    0.0000 C   0  0  0  0  0  0  0  0  0  0  0  0
   14.4902    1.1736    0.0000 C   0  0  0  0  0  0  0  0  0  0  0  0
   14.1330    2.8684    0.0000 C   0  0  0  0  0  0  0  0  0  0  0  0
   14.8009    2.1241    0.0000 C   0  0  0  0  0  0  0  0  0  0  0  0
   13.2010    0.0169    0.0000 C   0  0  0  0  0  0  0  0  0  0  0  0
    8.9093    1.5065    0.0000 H   0  0  0  0  0  0  0  0  0  0  0  0
    8.3160    0.9742    0.0000 H   0  0  0  0  0  0  0  0  0  0  0  0
   10.7854   -0.6564    0.0000 H   0  0  0  0  0  0  0  0  0  0  0  0
   10.0951   -0.2579    0.0000 H   0  0  0  0  0  0  0  0  0  0  0  0
    6.8069    0.7516    0.0000 H   0  0  0  0  0  0  0  0  0  0  0  0
    5.4040   -1.6784    0.0000 H   0  0  0  0  0  0  0  0  0  0  0  0
   10.1202   -1.9465    0.0000 H   0  0  0  0  0  0  0  0  0  0  0  0
   10.8104   -2.3450    0.0000 H   0  0  0  0  0  0  0  0  0  0  0  0
    6.1869   -2.8684    0.0000 H   0  0  0  0  0  0  0  0  0  0  0  0
    6.8069   -3.4884    0.0000 H   0  0  0  0  0  0  0  0  0  0  0  0
    7.4269   -2.8684    0.0000 H   0  0  0  0  0  0  0  0  0  0  0  0
   10.3836   -0.2406    0.0000 H   0  0  0  0  0  0  0  0  0  0  0  0
    9.8049    2.5050    0.0000 H   0  0  0  0  0  0  0  0  0  0  0  0
   11.7028   -2.3545    0.0000 H   0  0  0  0  0  0  0  0  0  0  0  0
   12.3228   -1.7345    0.0000 H   0  0  0  0  0  0  0  0  0  0  0  0
   11.7028   -1.1145    0.0000 H   0  0  0  0  0  0  0  0  0  0  0  0
    3.3542   -1.1242    0.0000 H   0  0  0  0  0  0  0  0  0  0  0  0
    3.8330   -1.8587    0.0000 H   0  0  0  0  0  0  0  0  0  0  0  0
    4.5675   -1.3799    0.0000 H   0  0  0  0  0  0  0  0  0  0  0  0
   11.9687    0.0935    0.0000 H   0  0  0  0  0  0  0  0  0  0  0  0
   11.3901    2.8391    0.0000 H   0  0  0  0  0  0  0  0  0  0  0  0
    2.1900   -0.0735    0.0000 H   0  0  0  0  0  0  0  0  0  0  0  0
    3.8100    2.7325    0.0000 H   0  0  0  0  0  0  0  0  0  0  0  0
    1.3800    1.3295    0.0000 H   0  0  0  0  0  0  0  0  0  0  0  0
    2.1900    2.7325    0.0000 H   0  0  0  0  0  0  0  0  0  0  0  0
   12.7405    3.1237    0.0000 H   0  0  0  0  0  0  0  0  0  0  0  0
   14.9043    0.7121    0.0000 H   0  0  0  0  0  0  0  0  0  0  0  0
   14.3256    3.4578    0.0000 H   0  0  0  0  0  0  0  0  0  0  0  0
   15.4075    2.2520    0.0000 H   0  0  0  0  0  0  0  0  0  0  0  0
   14.4756   -0.5996    0.0000 H   0  0  0  0  0  0  0  0  0  0  0  0
  1 39  1  0  0  0  0
  1 69  1  0  0  0  0
  2 39  2  0  0  0  0
  3  7  1  0  0  0  0
  3  8  1  0  0  0  0
  3 10  1  0  0  0  0
  4  8  2  0  0  0  0
  4  9  1  0  0  0  0
  5 16  1  0  0  0  0
  5 20  1  0  0  0  0
  5 25  1  0  0  0  0
  6 16  2  0  0  0  0
  6 21  1  0  0  0  0
  7  9  2  0  0  0  0
  7 13  1  0  0  0  0
  8 11  1  0  0  0  0
  9 14  1  0  0  0  0
 10 17  1  0  0  0  0
 10 40  1  0  0  0  0
 10 41  1  0  0  0  0
 11 18  1  0  0  0  0
 11 42  1  0  0  0  0
 11 43  1  0  0  0  0
 12 13  2  0  0  0  0
 12 15  1  0  0  0  0
 12 16  1  0  0  0  0
 13 44  1  0  0  0  0
 14 15  2  0  0  0  0
 14 19  1  0  0  0  0
 15 45  1  0  0  0  0
 17 22  2  0  0  0  0
 17 23  1  0  0  0  0
 18 24  1  0  0  0  0
 18 46  1  0  0  0  0
 18 47  1  0  0  0  0
 19 48  1  0  0  0  0
 19 49  1  0  0  0  0
 19 50  1  0  0  0  0
 20 21  1  0  0  0  0
 20 29  2  0  0  0  0
 21 30  2  0  0  0  0
 22 27  1  0  0  0  0
 22 51  1  0  0  0  0
 23 28  2  0  0  0  0
 23 52  1  0  0  0  0
 24 53  1  0  0  0  0
 24 54  1  0  0  0  0
 24 55  1  0  0  0  0
 25 56  1  0  0  0  0
 25 57  1  0  0  0  0
 25 58  1  0  0  0  0
 26 27  2  0  0  0  0
 26 28  1  0  0  0  0
 26 31  1  0  0  0  0
 27 59  1  0  0  0  0
 28 60  1  0  0  0  0
 29 32  1  0  0  0  0
 29 61  1  0  0  0  0
 30 33  1  0  0  0  0
 30 62  1  0  0  0  0
 31 34  1  0  0  0  0
 31 35  2  0  0  0  0
 32 33  2  0  0  0  0
 32 63  1  0  0  0  0
 33 64  1  0  0  0  0
 34 36  2  0  0  0  0
 34 39  1  0  0  0  0
 35 37  1  0  0  0  0
 35 65  1  0  0  0  0
 36 38  1  0  0  0  0
 36 66  1  0  0  0  0
 37 38  2  0  0  0  0
 37 67  1  0  0  0  0
 38 68  1  0  0  0  0
M  END
> <PUBCHEM_COMPOUND_CID>
65999

> <PUBCHEM_COMPOUND_CANONICALIZED>
1

> <PUBCHEM_CACTVS_COMPLEXITY>
831

> <PUBCHEM_CACTVS_HBOND_ACCEPTOR>
4

> <PUBCHEM_CACTVS_HBOND_DONOR>
1

> <PUBCHEM_CACTVS_ROTATABLE_BOND>
7

> <PUBCHEM_CACTVS_SUBSKEYS>
AAADceB/sAAAAAAAAAAAAAAAAAAAAWLAAAAwYMGAAAAAAFgB/gAAHgAACAAADAjBnwQz2LcMEgCoAybybACCgC0lEqAJ2CE4fNiIbrLAnZGUcQhswAPI2aeYyOCOyAACQAASACCQAASAACQAQAAAAAAAAA==

> <PUBCHEM_IUPAC_OPENEYE_NAME>
2-[4-[[4-methyl-6-(1-methylbenzimidazol-2-yl)-2-propyl-benzimidazol-1-yl]methyl]phenyl]benzoic acid

> <PUBCHEM_IUPAC_CAS_NAME>
2-[4-[[4-methyl-6-(1-methyl-2-benzimidazolyl)-2-propyl-1-benzimidazolyl]methyl]phenyl]benzoic acid

> <PUBCHEM_IUPAC_NAME>
2-[4-[[4-methyl-6-(1-methylbenzimidazol-2-yl)-2-propylbenzimidazol-1-yl]methyl]phenyl]benzoic acid

> <PUBCHEM_IUPAC_SYSTEMATIC_NAME>
2-[4-[[4-methyl-6-(1-methylbenzimidazol-2-yl)-2-propyl-benzimidazol-1-yl]methyl]phenyl]benzoic acid

> <PUBCHEM_IUPAC_TRADITIONAL_NAME>
2-[4-[[4-methyl-6-(1-methylbenzimidazol-2-yl)-2-propyl-benzimidazol-1-yl]methyl]phenyl]benzoic acid

> <PUBCHEM_IUPAC_INCHI>
InChI=1S/C33H30N4O2/c1-4-9-30-35-31-21(2)18-24(32-34-27-12-7-8-13-28(27)36(32)3)19-29(31)37(30)20-22-14-16-23(17-15-22)25-10-5-6-11-26(25)33(38)39/h5-8,10-19H,4,9,20H2,1-3H3,(H,38,39)

> <PUBCHEM_IUPAC_INCHIKEY>
RMMXLENWKUUMAY-UHFFFAOYSA-N

> <PUBCHEM_XLOGP3_AA>
6.9

> <PUBCHEM_EXACT_MASS>
514.236876

> <PUBCHEM_MOLECULAR_FORMULA>
C33H30N4O2

> <PUBCHEM_MOLECULAR_WEIGHT>
514.6169

> <PUBCHEM_OPENEYE_CAN_SMILES>
CCCC1=NC2=C(C=C(C=C2N1CC3=CC=C(C=C3)C4=CC=CC=C4C(=O)O)C5=NC6=CC=CC=C6N5C)C

> <PUBCHEM_OPENEYE_ISO_SMILES>
CCCC1=NC2=C(C=C(C=C2N1CC3=CC=C(C=C3)C4=CC=CC=C4C(=O)O)C5=NC6=CC=CC=C6N5C)C

> <PUBCHEM_CACTVS_TPSA>
72.9

> <PUBCHEM_MONOISOTOPIC_WEIGHT>
514.236876

> <PUBCHEM_TOTAL_CHARGE>
0

> <PUBCHEM_HEAVY_ATOM_COUNT>
39

> <PUBCHEM_ATOM_DEF_STEREO_COUNT>
0

> <PUBCHEM_ATOM_UDEF_STEREO_COUNT>
0

> <PUBCHEM_BOND_DEF_STEREO_COUNT>
0

> <PUBCHEM_BOND_UDEF_STEREO_COUNT>
0

> <PUBCHEM_ISOTOPIC_ATOM_COUNT>
0

> <PUBCHEM_COMPONENT_COUNT>
1

> <PUBCHEM_CACTVS_TAUTO_COUNT>
4

> <PUBCHEM_COORDINATE_TYPE>
1
5
255

> <PUBCHEM_BONDANNOTATIONS>
12  13  8
12  15  8
14  15  8
17  22  8
17  23  8
20  21  8
20  29  8
21  30  8
22  27  8
23  28  8
26  27  8
26  28  8
29  32  8
3  7  8
3  8  8
30  33  8
31  34  8
31  35  8
32  33  8
34  36  8
35  37  8
36  38  8
37  38  8
4  8  8
4  9  8
5  16  8
5  20  8
6  16  8
6  21  8
7  13  8
7  9  8
9  14  8

$$$$

