17395578
  -OEChem-06241222512D

 37 38  0     1  0  0  0  0  0999 V2000
    3.7320    1.2352    0.0000 S   0  0  0  0  0  0  0  0  0  0  0  0
    6.4942    4.7648    0.0000 F   0  0  0  0  0  0  0  0  0  0  0  0
    7.0010    3.4445    0.0000 F   0  0  0  0  0  0  0  0  0  0  0  0
    5.1739    4.2580    0.0000 F   0  0  0  0  0  0  0  0  0  0  0  0
    2.0000    0.2352    0.0000 O   0  0  0  0  0  0  0  0  0  0  0  0
    2.8660   -4.2648    0.0000 O   0  0  0  0  0  0  0  0  0  0  0  0
    4.7026    2.7298    0.0000 N   0  0  0  0  0  0  0  0  0  0  0  0
    5.5116    1.3285    0.0000 N   0  0  0  0  0  0  0  0  0  0  0  0
    6.1808    2.0716    0.0000 N   0  0  0  0  0  0  0  0  0  0  0  0
    3.7320    0.2352    0.0000 C   0  0  3  0  0  0  0  0  0  0  0  0
    2.8660   -0.2648    0.0000 C   0  0  0  0  0  0  0  0  0  0  0  0
    4.5981    1.7352    0.0000 C   0  0  0  0  0  0  0  0  0  0  0  0
    2.8660   -1.2648    0.0000 C   0  0  0  0  0  0  0  0  0  0  0  0
    4.5981   -0.2648    0.0000 C   0  0  0  0  0  0  0  0  0  0  0  0
    5.6808    2.9377    0.0000 C   0  0  0  0  0  0  0  0  0  0  0  0
    3.9595    3.3989    0.0000 C   0  0  0  0  0  0  0  0  0  0  0  0
    2.0000   -1.7648    0.0000 C   0  0  0  0  0  0  0  0  0  0  0  0
    3.7320   -1.7648    0.0000 C   0  0  0  0  0  0  0  0  0  0  0  0
    6.0875    3.8512    0.0000 C   0  0  0  0  0  0  0  0  0  0  0  0
    2.0000   -2.7648    0.0000 C   0  0  0  0  0  0  0  0  0  0  0  0
    3.7320   -2.7648    0.0000 C   0  0  0  0  0  0  0  0  0  0  0  0
    2.8660   -3.2648    0.0000 C   0  0  0  0  0  0  0  0  0  0  0  0
    2.0000   -4.7648    0.0000 C   0  0  0  0  0  0  0  0  0  0  0  0
    4.2690    0.5452    0.0000 H   0  0  0  0  0  0  0  0  0  0  0  0
    4.2881   -0.8017    0.0000 H   0  0  0  0  0  0  0  0  0  0  0  0
    5.1350   -0.5748    0.0000 H   0  0  0  0  0  0  0  0  0  0  0  0
    4.9081    0.2722    0.0000 H   0  0  0  0  0  0  0  0  0  0  0  0
    4.3743    3.8596    0.0000 H   0  0  0  0  0  0  0  0  0  0  0  0
    3.4987    3.8138    0.0000 H   0  0  0  0  0  0  0  0  0  0  0  0
    3.5446    2.9381    0.0000 H   0  0  0  0  0  0  0  0  0  0  0  0
    1.4631   -1.4548    0.0000 H   0  0  0  0  0  0  0  0  0  0  0  0
    4.2690   -1.4548    0.0000 H   0  0  0  0  0  0  0  0  0  0  0  0
    1.4631   -3.0748    0.0000 H   0  0  0  0  0  0  0  0  0  0  0  0
    4.2690   -3.0748    0.0000 H   0  0  0  0  0  0  0  0  0  0  0  0
    1.6900   -4.2278    0.0000 H   0  0  0  0  0  0  0  0  0  0  0  0
    1.4631   -5.0748    0.0000 H   0  0  0  0  0  0  0  0  0  0  0  0
    2.3100   -5.3017    0.0000 H   0  0  0  0  0  0  0  0  0  0  0  0
  1 10  1  0  0  0  0
  1 12  1  0  0  0  0
  2 19  1  0  0  0  0
  3 19  1  0  0  0  0
  4 19  1  0  0  0  0
  5 11  2  0  0  0  0
  6 22  1  0  0  0  0
  6 23  1  0  0  0  0
  7 12  1  0  0  0  0
  7 15  1  0  0  0  0
  7 16  1  0  0  0  0
  8  9  1  0  0  0  0
  8 12  2  0  0  0  0
  9 15  2  0  0  0  0
 10 11  1  0  0  0  0
 10 14  1  0  0  0  0
 10 24  1  0  0  0  0
 11 13  1  0  0  0  0
 13 17  2  0  0  0  0
 13 18  1  0  0  0  0
 14 25  1  0  0  0  0
 14 26  1  0  0  0  0
 14 27  1  0  0  0  0
 15 19  1  0  0  0  0
 16 28  1  0  0  0  0
 16 29  1  0  0  0  0
 16 30  1  0  0  0  0
 17 20  1  0  0  0  0
 17 31  1  0  0  0  0
 18 21  2  0  0  0  0
 18 32  1  0  0  0  0
 20 22  2  0  0  0  0
 20 33  1  0  0  0  0
 21 22  1  0  0  0  0
 21 34  1  0  0  0  0
 23 35  1  0  0  0  0
 23 36  1  0  0  0  0
 23 37  1  0  0  0  0
M  END
> <PUBCHEM_COMPOUND_CID>
17395578

> <PUBCHEM_COMPOUND_CANONICALIZED>
1

> <PUBCHEM_CACTVS_COMPLEXITY>
417

> <PUBCHEM_CACTVS_HBOND_ACCEPTOR>
8

> <PUBCHEM_CACTVS_HBOND_DONOR>
0

> <PUBCHEM_CACTVS_ROTATABLE_BOND>
5

> <PUBCHEM_CACTVS_SUBSKEYS>
AAADccBzMYBAAAAAAAAAAAAAAAAAAWAAAAAwAAAAAAAAAAABwAAAHwQIAAAADASF2xazFocMFAiqAqJyJAAS2AtkILAdyAEOCMiMLjKkPRqAMSAkyBMIqYeIzKDOIAAAAAAAAABAAAAAAAAAAAAAAAAAAA==

> <PUBCHEM_IUPAC_OPENEYE_NAME>
1-(4-methoxyphenyl)-2-[[4-methyl-5-(trifluoromethyl)-1,2,4-triazol-3-yl]sulfanyl]propan-1-one

> <PUBCHEM_IUPAC_CAS_NAME>
1-(4-methoxyphenyl)-2-[[4-methyl-5-(trifluoromethyl)-1,2,4-triazol-3-yl]thio]-1-propanone

> <PUBCHEM_IUPAC_NAME>
1-(4-methoxyphenyl)-2-[[4-methyl-5-(trifluoromethyl)-1,2,4-triazol-3-yl]sulfanyl]propan-1-one

> <PUBCHEM_IUPAC_SYSTEMATIC_NAME>
1-(4-methoxyphenyl)-2-[[4-methyl-5-(trifluoromethyl)-1,2,4-triazol-3-yl]sulfanyl]propan-1-one

> <PUBCHEM_IUPAC_TRADITIONAL_NAME>
1-(4-methoxyphenyl)-2-[[4-methyl-5-(trifluoromethyl)-1,2,4-triazol-3-yl]thio]propan-1-one

> <PUBCHEM_IUPAC_INCHI>
InChI=1S/C14H14F3N3O2S/c1-8(11(21)9-4-6-10(22-3)7-5-9)23-13-19-18-12(20(13)2)14(15,16)17/h4-8H,1-3H3

> <PUBCHEM_IUPAC_INCHIKEY>
JKEXSXUAIKWVAJ-UHFFFAOYSA-N

> <PUBCHEM_XLOGP3_AA>
3

> <PUBCHEM_EXACT_MASS>
345.075882

> <PUBCHEM_MOLECULAR_FORMULA>
C14H14F3N3O2S

> <PUBCHEM_MOLECULAR_WEIGHT>
345.34007

> <PUBCHEM_OPENEYE_CAN_SMILES>
CC(C(=O)C1=CC=C(C=C1)OC)SC2=NN=C(N2C)C(F)(F)F

> <PUBCHEM_OPENEYE_ISO_SMILES>
CC(C(=O)C1=CC=C(C=C1)OC)SC2=NN=C(N2C)C(F)(F)F

> <PUBCHEM_CACTVS_TPSA>
82.3

> <PUBCHEM_MONOISOTOPIC_WEIGHT>
345.075882

> <PUBCHEM_TOTAL_CHARGE>
0

> <PUBCHEM_HEAVY_ATOM_COUNT>
23

> <PUBCHEM_ATOM_DEF_STEREO_COUNT>
0

> <PUBCHEM_ATOM_UDEF_STEREO_COUNT>
1

> <PUBCHEM_BOND_DEF_STEREO_COUNT>
0

> <PUBCHEM_BOND_UDEF_STEREO_COUNT>
0

> <PUBCHEM_ISOTOPIC_ATOM_COUNT>
0

> <PUBCHEM_COMPONENT_COUNT>
1

> <PUBCHEM_CACTVS_TAUTO_COUNT>
2

> <PUBCHEM_COORDINATE_TYPE>
1
5
255

> <PUBCHEM_BONDANNOTATIONS>
10  14  3
13  17  8
13  18  8
17  20  8
18  21  8
20  22  8
21  22  8
7  12  8
7  15  8
8  12  8
8  9  8
9  15  8

$$$$

