12852
  -OEChem-06261207272D

 28 30  0     0  0  0  0  0  0999 V2000
    4.6783    0.2731    0.0000 N   0  0  0  0  0  0  0  0  0  0  0  0
    4.6783   -1.3364    0.0000 N   0  0  0  0  0  0  0  0  0  0  0  0
    2.8660    0.4684    0.0000 N   0  0  0  0  0  0  0  0  0  0  0  0
    2.0000   -1.0316    0.0000 N   0  0  0  0  0  0  0  0  0  0  0  0
    2.8660   -2.5316    0.0000 N   0  0  0  0  0  0  0  0  0  0  0  0
    4.9889    1.2236    0.0000 C   0  0  0  0  0  0  0  0  0  0  0  0
    5.9405    1.5310    0.0000 C   0  0  0  0  0  0  0  0  0  0  0  0
    4.4026    2.0336    0.0000 C   0  0  0  0  0  0  0  0  0  0  0  0
    5.9422    2.5310    0.0000 C   0  0  0  0  0  0  0  0  0  0  0  0
    4.9917    2.8416    0.0000 C   0  0  0  0  0  0  0  0  0  0  0  0
    3.7320   -0.0316    0.0000 C   0  0  0  0  0  0  0  0  0  0  0  0
    5.2619   -0.5316    0.0000 C   0  0  0  0  0  0  0  0  0  0  0  0
    3.7320   -1.0316    0.0000 C   0  0  0  0  0  0  0  0  0  0  0  0
    2.8660   -1.5316    0.0000 C   0  0  0  0  0  0  0  0  0  0  0  0
    2.0000   -0.0316    0.0000 C   0  0  0  0  0  0  0  0  0  0  0  0
    5.4266    0.7844    0.0000 H   0  0  0  0  0  0  0  0  0  0  0  0
    6.0684    0.9243    0.0000 H   0  0  0  0  0  0  0  0  0  0  0  0
    6.5572    1.5947    0.0000 H   0  0  0  0  0  0  0  0  0  0  0  0
    3.9425    2.4493    0.0000 H   0  0  0  0  0  0  0  0  0  0  0  0
    3.9411    1.6196    0.0000 H   0  0  0  0  0  0  0  0  0  0  0  0
    6.5587    2.4651    0.0000 H   0  0  0  0  0  0  0  0  0  0  0  0
    6.0722    3.1372    0.0000 H   0  0  0  0  0  0  0  0  0  0  0  0
    5.2449    3.4076    0.0000 H   0  0  0  0  0  0  0  0  0  0  0  0
    4.4553    3.1526    0.0000 H   0  0  0  0  0  0  0  0  0  0  0  0
    5.8819   -0.5316    0.0000 H   0  0  0  0  0  0  0  0  0  0  0  0
    1.4631    0.2784    0.0000 H   0  0  0  0  0  0  0  0  0  0  0  0
    2.3291   -2.8416    0.0000 H   0  0  0  0  0  0  0  0  0  0  0  0
    3.4030   -2.8416    0.0000 H   0  0  0  0  0  0  0  0  0  0  0  0
  1  6  1  0  0  0  0
  1 11  1  0  0  0  0
  1 12  1  0  0  0  0
  2 12  2  0  0  0  0
  2 13  1  0  0  0  0
  3 11  1  0  0  0  0
  3 15  2  0  0  0  0
  4 14  2  0  0  0  0
  4 15  1  0  0  0  0
  5 14  1  0  0  0  0
  5 27  1  0  0  0  0
  5 28  1  0  0  0  0
  6  7  1  0  0  0  0
  6  8  1  0  0  0  0
  6 16  1  0  0  0  0
  7  9  1  0  0  0  0
  7 17  1  0  0  0  0
  7 18  1  0  0  0  0
  8 10  1  0  0  0  0
  8 19  1  0  0  0  0
  8 20  1  0  0  0  0
  9 10  1  0  0  0  0
  9 21  1  0  0  0  0
  9 22  1  0  0  0  0
 10 23  1  0  0  0  0
 10 24  1  0  0  0  0
 11 13  2  0  0  0  0
 12 25  1  0  0  0  0
 13 14  1  0  0  0  0
 15 26  1  0  0  0  0
M  END
> <PUBCHEM_COMPOUND_CID>
12852

> <PUBCHEM_COMPOUND_CANONICALIZED>
1

> <PUBCHEM_CACTVS_COMPLEXITY>
228

> <PUBCHEM_CACTVS_HBOND_ACCEPTOR>
4

> <PUBCHEM_CACTVS_HBOND_DONOR>
1

> <PUBCHEM_CACTVS_ROTATABLE_BOND>
1

> <PUBCHEM_CACTVS_SUBSKEYS>
AAADccBzgAAAAAAAAAAAAAAAAAAAAeIAAAAsAAAAAAAAAFgB+AAAHAAQAAAACCjBFwQF8L9MEACgAQZhZACAgC0REKABUCAoVBCASAJAyEAUBAgIAALAACAQAAAAAAAAAAAAAAAAAAAAAAAAAAAAAAAAAA==

> <PUBCHEM_IUPAC_OPENEYE_NAME>
9-cyclopentylpurin-6-amine

> <PUBCHEM_IUPAC_CAS_NAME>
9-cyclopentyl-6-purinamine

> <PUBCHEM_IUPAC_NAME>
9-cyclopentylpurin-6-amine

> <PUBCHEM_IUPAC_SYSTEMATIC_NAME>
9-cyclopentylpurin-6-amine

> <PUBCHEM_IUPAC_TRADITIONAL_NAME>
(9-cyclopentylpurin-6-yl)amine

> <PUBCHEM_IUPAC_INCHI>
InChI=1S/C10H13N5/c11-9-8-10(13-5-12-9)15(6-14-8)7-3-1-2-4-7/h5-7H,1-4H2,(H2,11,12,13)

> <PUBCHEM_IUPAC_INCHIKEY>
KTJWHJNBTXITCB-UHFFFAOYSA-N

> <PUBCHEM_XLOGP3>
1.1

> <PUBCHEM_EXACT_MASS>
203.117095

> <PUBCHEM_MOLECULAR_FORMULA>
C10H13N5

> <PUBCHEM_MOLECULAR_WEIGHT>
203.24372

> <PUBCHEM_OPENEYE_CAN_SMILES>
C1CCC(C1)N2C=NC3=C2N=CN=C3N

> <PUBCHEM_OPENEYE_ISO_SMILES>
C1CCC(C1)N2C=NC3=C2N=CN=C3N

> <PUBCHEM_CACTVS_TPSA>
69.6

> <PUBCHEM_MONOISOTOPIC_WEIGHT>
203.117095

> <PUBCHEM_TOTAL_CHARGE>
0

> <PUBCHEM_HEAVY_ATOM_COUNT>
15

> <PUBCHEM_ATOM_DEF_STEREO_COUNT>
0

> <PUBCHEM_ATOM_UDEF_STEREO_COUNT>
0

> <PUBCHEM_BOND_DEF_STEREO_COUNT>
0

> <PUBCHEM_BOND_UDEF_STEREO_COUNT>
0

> <PUBCHEM_ISOTOPIC_ATOM_COUNT>
0

> <PUBCHEM_COMPONENT_COUNT>
1

> <PUBCHEM_CACTVS_TAUTO_COUNT>
3

> <PUBCHEM_COORDINATE_TYPE>
1
5
255

> <PUBCHEM_BONDANNOTATIONS>
1  11  8
1  12  8
11  13  8
13  14  8
2  12  8
2  13  8
3  11  8
3  15  8
4  14  8
4  15  8

$$$$

