17395415
  -OEChem-06241222502D

 40 43  0     0  0  0  0  0  0999 V2000
    9.5708   -0.1110    0.0000 O   0  0  0  0  0  0  0  0  0  0  0  0
    4.6783   -1.1421    0.0000 N   0  0  0  0  0  0  0  0  0  0  0  0
    5.2619   -1.9468    0.0000 N   0  0  0  0  0  0  0  0  0  0  0  0
    4.6783   -2.7515    0.0000 N   0  0  0  0  0  0  0  0  0  0  0  0
    9.2136    1.5838    0.0000 N   0  0  0  0  0  0  0  0  0  0  0  0
   10.5028    2.7406    0.0000 N   0  0  0  0  0  0  0  0  0  0  0  0
    4.9889   -0.1916    0.0000 C   0  0  0  0  0  0  0  0  0  0  0  0
    5.9674    0.0147    0.0000 C   0  0  0  0  0  0  0  0  0  0  0  0
    3.7320   -1.4468    0.0000 C   0  0  0  0  0  0  0  0  0  0  0  0
    3.7320   -2.4468    0.0000 C   0  0  0  0  0  0  0  0  0  0  0  0
    6.6353   -0.7296    0.0000 C   0  0  0  0  0  0  0  0  0  0  0  0
    6.2781    0.9652    0.0000 C   0  0  0  0  0  0  0  0  0  0  0  0
    7.9244    0.4271    0.0000 C   0  0  0  0  0  0  0  0  0  0  0  0
    2.8660   -0.9468    0.0000 C   0  0  0  0  0  0  0  0  0  0  0  0
    7.6138   -0.5234    0.0000 C   0  0  0  0  0  0  0  0  0  0  0  0
    7.2566    1.1714    0.0000 C   0  0  0  0  0  0  0  0  0  0  0  0
    2.8660   -2.9468    0.0000 C   0  0  0  0  0  0  0  0  0  0  0  0
    2.0000   -1.4468    0.0000 C   0  0  0  0  0  0  0  0  0  0  0  0
    2.0000   -2.4468    0.0000 C   0  0  0  0  0  0  0  0  0  0  0  0
    8.9030    0.6333    0.0000 C   0  0  0  0  0  0  0  0  0  0  0  0
   10.1921    1.7901    0.0000 C   0  0  0  0  0  0  0  0  0  0  0  0
   10.8600    1.0458    0.0000 C   0  0  0  0  0  0  0  0  0  0  0  0
   11.8385    1.2520    0.0000 C   0  0  0  0  0  0  0  0  0  0  0  0
   12.1491    2.2025    0.0000 C   0  0  0  0  0  0  0  0  0  0  0  0
   11.4813    2.9468    0.0000 C   0  0  0  0  0  0  0  0  0  0  0  0
    4.9684    0.4281    0.0000 H   0  0  0  0  0  0  0  0  0  0  0  0
    4.3751   -0.1042    0.0000 H   0  0  0  0  0  0  0  0  0  0  0  0
    6.4427   -1.3190    0.0000 H   0  0  0  0  0  0  0  0  0  0  0  0
    5.8640    1.4267    0.0000 H   0  0  0  0  0  0  0  0  0  0  0  0
    2.8660   -0.3268    0.0000 H   0  0  0  0  0  0  0  0  0  0  0  0
    8.0279   -0.9849    0.0000 H   0  0  0  0  0  0  0  0  0  0  0  0
    7.4492    1.7607    0.0000 H   0  0  0  0  0  0  0  0  0  0  0  0
    2.8660   -3.5668    0.0000 H   0  0  0  0  0  0  0  0  0  0  0  0
    1.4631   -1.1368    0.0000 H   0  0  0  0  0  0  0  0  0  0  0  0
    1.4631   -2.7568    0.0000 H   0  0  0  0  0  0  0  0  0  0  0  0
    8.7996    2.0453    0.0000 H   0  0  0  0  0  0  0  0  0  0  0  0
   10.6674    0.4564    0.0000 H   0  0  0  0  0  0  0  0  0  0  0  0
   12.2525    0.7905    0.0000 H   0  0  0  0  0  0  0  0  0  0  0  0
   12.7558    2.3304    0.0000 H   0  0  0  0  0  0  0  0  0  0  0  0
   11.6739    3.5361    0.0000 H   0  0  0  0  0  0  0  0  0  0  0  0
  1 20  2  0  0  0  0
  2  3  1  0  0  0  0
  2  7  1  0  0  0  0
  2  9  1  0  0  0  0
  3  4  2  0  0  0  0
  4 10  1  0  0  0  0
  5 20  1  0  0  0  0
  5 21  1  0  0  0  0
  5 36  1  0  0  0  0
  6 21  1  0  0  0  0
  6 25  2  0  0  0  0
  7  8  1  0  0  0  0
  7 26  1  0  0  0  0
  7 27  1  0  0  0  0
  8 11  2  0  0  0  0
  8 12  1  0  0  0  0
  9 10  1  0  0  0  0
  9 14  2  0  0  0  0
 10 17  2  0  0  0  0
 11 15  1  0  0  0  0
 11 28  1  0  0  0  0
 12 16  2  0  0  0  0
 12 29  1  0  0  0  0
 13 15  2  0  0  0  0
 13 16  1  0  0  0  0
 13 20  1  0  0  0  0
 14 18  1  0  0  0  0
 14 30  1  0  0  0  0
 15 31  1  0  0  0  0
 16 32  1  0  0  0  0
 17 19  1  0  0  0  0
 17 33  1  0  0  0  0
 18 19  2  0  0  0  0
 18 34  1  0  0  0  0
 19 35  1  0  0  0  0
 21 22  2  0  0  0  0
 22 23  1  0  0  0  0
 22 37  1  0  0  0  0
 23 24  2  0  0  0  0
 23 38  1  0  0  0  0
 24 25  1  0  0  0  0
 24 39  1  0  0  0  0
 25 40  1  0  0  0  0
M  END
> <PUBCHEM_COMPOUND_CID>
17395415

> <PUBCHEM_COMPOUND_CANONICALIZED>
1

> <PUBCHEM_CACTVS_COMPLEXITY>
451

> <PUBCHEM_CACTVS_HBOND_ACCEPTOR>
4

> <PUBCHEM_CACTVS_HBOND_DONOR>
1

> <PUBCHEM_CACTVS_ROTATABLE_BOND>
4

> <PUBCHEM_CACTVS_SUBSKEYS>
AAADccB7oAAAAAAAAAAAAAAAAAAAAWAAAAA8YIAAAAAAAFgB/AAAHgAYAAAADAjBngQ98LLIEACqAzd3dACChC01kiAZ2CE4dNiIYPLAnZGUIQholQLIyacYiACOQAAAAAAAACCAAAAAAAAAQAAAAAAAAA==

> <PUBCHEM_IUPAC_OPENEYE_NAME>
4-(benzotriazol-1-ylmethyl)-N-(2-pyridyl)benzamide

> <PUBCHEM_IUPAC_CAS_NAME>
4-(1-benzotriazolylmethyl)-N-(2-pyridinyl)benzamide

> <PUBCHEM_IUPAC_NAME>
4-(benzotriazol-1-ylmethyl)-N-pyridin-2-ylbenzamide

> <PUBCHEM_IUPAC_SYSTEMATIC_NAME>
4-(benzotriazol-1-ylmethyl)-N-pyridin-2-yl-benzamide

> <PUBCHEM_IUPAC_TRADITIONAL_NAME>
4-(benzotriazol-1-ylmethyl)-N-(2-pyridyl)benzamide

> <PUBCHEM_IUPAC_INCHI>
InChI=1S/C19H15N5O/c25-19(21-18-7-3-4-12-20-18)15-10-8-14(9-11-15)13-24-17-6-2-1-5-16(17)22-23-24/h1-12H,13H2,(H,20,21,25)

> <PUBCHEM_IUPAC_INCHIKEY>
FFIYEFNCWFPJCE-UHFFFAOYSA-N

> <PUBCHEM_XLOGP3_AA>
2.8

> <PUBCHEM_EXACT_MASS>
329.12766

> <PUBCHEM_MOLECULAR_FORMULA>
C19H15N5O

> <PUBCHEM_MOLECULAR_WEIGHT>
329.3553

> <PUBCHEM_OPENEYE_CAN_SMILES>
C1=CC=C2C(=C1)N=NN2CC3=CC=C(C=C3)C(=O)NC4=CC=CC=N4

> <PUBCHEM_OPENEYE_ISO_SMILES>
C1=CC=C2C(=C1)N=NN2CC3=CC=C(C=C3)C(=O)NC4=CC=CC=N4

> <PUBCHEM_CACTVS_TPSA>
72.7

> <PUBCHEM_MONOISOTOPIC_WEIGHT>
329.12766

> <PUBCHEM_TOTAL_CHARGE>
0

> <PUBCHEM_HEAVY_ATOM_COUNT>
25

> <PUBCHEM_ATOM_DEF_STEREO_COUNT>
0

> <PUBCHEM_ATOM_UDEF_STEREO_COUNT>
0

> <PUBCHEM_BOND_DEF_STEREO_COUNT>
0

> <PUBCHEM_BOND_UDEF_STEREO_COUNT>
0

> <PUBCHEM_ISOTOPIC_ATOM_COUNT>
0

> <PUBCHEM_COMPONENT_COUNT>
1

> <PUBCHEM_CACTVS_TAUTO_COUNT>
3

> <PUBCHEM_COORDINATE_TYPE>
1
5
255

> <PUBCHEM_BONDANNOTATIONS>
10  17  8
11  15  8
12  16  8
13  15  8
13  16  8
14  18  8
17  19  8
18  19  8
2  3  8
2  9  8
21  22  8
22  23  8
23  24  8
24  25  8
3  4  8
4  10  8
6  21  8
6  25  8
8  11  8
8  12  8
9  10  8
9  14  8

$$$$

