   Color/Form

     * CRYSTALS FROM BENZENE + TOLUENE
     * WHITE TO OFF-WHITE POWDER

   from [1]HSDB

   Odor
        ODORLESS
   from [2]HSDB

   Taste
        PRACTICALLY TASTELESS
   from [3]HSDB

   Melting Point
        89-91 DEG C
   from [4]HSDB

   Solubilities

     * READILY SOL IN 95% ETHANOL, ACETONE, ETHYL ACETATE; FAIRLY READILY
       SOL IN DIOXANE; ALMOST INSOL IN COLD WATER, BENZENE, CYCLOHEXANE
     * SLIGHTLY SOL IN CHLOROFORM
     * FREELY SOL IN ALCOHOL

   from [5]HSDB

   Spectral Properties
        MASS: 1700 (National Bureau of Standards EPA-NIH Mass Spectra Data
   Base, NSRDS-NBS-63)
   from [6]HSDB

   Computed Properties
   Molecular Weight                  245.65958 [g/mol]
   Molecular Formula                 C[10]H[12]ClNO[4]
   XLogP3-AA                         1.2
   H-Bond Donor                      2
   H-Bond Acceptor                   4
   Rotatable Bond Count              6
   Tautomer Count                    2
   Exact Mass                        245.045486
   MonoIsotopic Mass                 245.045486
   Topological Polar Surface Area    81.8
   Heavy Atom Count                  16
   Formal Charge                     0
   Complexity                        219
   Isotope Atom Count                0
   Defined Atom Stereocenter Count   0
   Undefined Atom Stereocenter Count 1
   Defined Bond Stereocenter Count   0
   Undefined Bond Stereocenter Count 0
   Covalently-Bonded Unit Count      1
   Feature 3D Acceptor Count         3
   Feature 3D Donor Count            2
   Feature 3D Ring Count             1
   Effective Rotor Count             6
   Conformer Sampling RMSD           0.8
   CID Conformer Count               [7]103

References

   1. http://toxnet.nlm.nih.gov/cgi-bin/sis/search/r?dbs+hsdb:@term+@rn+@rel+886-74-8
   2. http://toxnet.nlm.nih.gov/cgi-bin/sis/search/r?dbs+hsdb:@term+@rn+@rel+886-74-8
   3. http://toxnet.nlm.nih.gov/cgi-bin/sis/search/r?dbs+hsdb:@term+@rn+@rel+886-74-8
   4. http://toxnet.nlm.nih.gov/cgi-bin/sis/search/r?dbs+hsdb:@term+@rn+@rel+886-74-8
   5. http://toxnet.nlm.nih.gov/cgi-bin/sis/search/r?dbs+hsdb:@term+@rn+@rel+886-74-8
   6. http://toxnet.nlm.nih.gov/cgi-bin/sis/search/r?dbs+hsdb:@term+@rn+@rel+886-74-8
   7. http://pubchem.ncbi.nlm.nih.gov/vw3d/vw3d.cgi?cid=2724
