168722
  -OEChem-07051212572D

 39 42  0     1  0  0  0  0  0999 V2000
    2.0000    1.4607    0.0000 O   0  0  0  0  0  0  0  0  0  0  0  0
    2.9435   -1.2697    0.0000 O   0  0  0  0  0  0  0  0  0  0  0  0
    5.4646    2.4607    0.0000 O   0  0  0  0  0  0  0  0  0  0  0  0
    2.8515   -3.0807    0.0000 O   0  0  0  0  0  0  0  0  0  0  0  0
    3.7326    0.4607    0.0000 C   0  0  1  0  0  0  0  0  0  0  0  0
    2.8665    0.9607    0.0000 C   0  0  1  0  0  0  0  0  0  0  0  0
    4.5986    0.9607    0.0000 C   0  0  2  0  0  0  0  0  0  0  0  0
    2.8665    1.9607    0.0000 C   0  0  1  0  0  0  0  0  0  0  0  0
    3.7165   -0.5808    0.0000 C   0  0  2  0  0  0  0  0  0  0  0  0
    4.5986    1.9607    0.0000 C   0  0  2  0  0  0  0  0  0  0  0  0
    3.7326    2.4607    0.0000 C   0  0  0  0  0  0  0  0  0  0  0  0
    5.5086    0.4538    0.0000 C   0  0  0  0  0  0  0  0  0  0  0  0
    4.6145   -1.1086    0.0000 C   0  0  1  0  0  0  0  0  0  0  0  0
    5.5166   -0.5878    0.0000 C   0  0  0  0  0  0  0  0  0  0  0  0
    2.8665   -0.0393    0.0000 C   0  0  0  0  0  0  0  0  0  0  0  0
    5.4646    1.4607    0.0000 C   0  0  0  0  0  0  0  0  0  0  0  0
    4.3888   -2.1191    0.0000 C   0  0  0  0  0  0  0  0  0  0  0  0
    3.3582   -2.2185    0.0000 C   0  0  0  0  0  0  0  0  0  0  0  0
    5.0509   -2.8686    0.0000 C   0  0  0  0  0  0  0  0  0  0  0  0
    2.9932    0.0414    0.0000 H   0  0  0  0  0  0  0  0  0  0  0  0
    2.4416    2.6969    0.0000 H   0  0  0  0  0  0  0  0  0  0  0  0
    2.9436   -0.2271    0.0000 H   0  0  0  0  0  0  0  0  0  0  0  0
    5.1355    1.6507    0.0000 H   0  0  0  0  0  0  0  0  0  0  0  0
    4.1311    2.9356    0.0000 H   0  0  0  0  0  0  0  0  0  0  0  0
    3.3340    2.9356    0.0000 H   0  0  0  0  0  0  0  0  0  0  0  0
    6.1202    0.3525    0.0000 H   0  0  0  0  0  0  0  0  0  0  0  0
    5.7131    1.0391    0.0000 H   0  0  0  0  0  0  0  0  0  0  0  0
    5.2996   -1.6117    0.0000 H   0  0  0  0  0  0  0  0  0  0  0  0
    5.7302   -1.1698    0.0000 H   0  0  0  0  0  0  0  0  0  0  0  0
    6.1266   -0.4770    0.0000 H   0  0  0  0  0  0  0  0  0  0  0  0
    2.2465   -0.0393    0.0000 H   0  0  0  0  0  0  0  0  0  0  0  0
    2.8665   -0.6593    0.0000 H   0  0  0  0  0  0  0  0  0  0  0  0
    3.4865   -0.0393    0.0000 H   0  0  0  0  0  0  0  0  0  0  0  0
    5.7746    0.9238    0.0000 H   0  0  0  0  0  0  0  0  0  0  0  0
    6.0016    1.7707    0.0000 H   0  0  0  0  0  0  0  0  0  0  0  0
    5.1546    1.9976    0.0000 H   0  0  0  0  0  0  0  0  0  0  0  0
    5.4646    3.0807    0.0000 H   0  0  0  0  0  0  0  0  0  0  0  0
    4.8538   -3.4564    0.0000 H   0  0  0  0  0  0  0  0  0  0  0  0
    5.6586   -2.7454    0.0000 H   0  0  0  0  0  0  0  0  0  0  0  0
  1  6  1  0  0  0  0
  1  8  1  0  0  0  0
  2  9  1  0  0  0  0
  2 18  1  0  0  0  0
 10  3  1  6  0  0  0
  3 37  1  0  0  0  0
  4 18  2  0  0  0  0
  5  6  1  0  0  0  0
  5  7  1  0  0  0  0
  5  9  1  0  0  0  0
  5 20  1  6  0  0  0
  6  8  1  0  0  0  0
  6 15  1  1  0  0  0
  7 10  1  0  0  0  0
  7 12  1  0  0  0  0
  7 16  1  1  0  0  0
  8 11  1  0  0  0  0
  8 21  1  1  0  0  0
  9 13  1  0  0  0  0
  9 22  1  1  0  0  0
 10 11  1  0  0  0  0
 10 23  1  0  0  0  0
 11 24  1  0  0  0  0
 11 25  1  0  0  0  0
 12 14  1  0  0  0  0
 12 26  1  0  0  0  0
 12 27  1  0  0  0  0
 13 14  1  0  0  0  0
 13 17  1  0  0  0  0
 13 28  1  6  0  0  0
 14 29  1  0  0  0  0
 14 30  1  0  0  0  0
 15 31  1  0  0  0  0
 15 32  1  0  0  0  0
 15 33  1  0  0  0  0
 16 34  1  0  0  0  0
 16 35  1  0  0  0  0
 16 36  1  0  0  0  0
 17 18  1  0  0  0  0
 17 19  2  0  0  0  0
 19 38  1  0  0  0  0
 19 39  1  0  0  0  0
M  END
> <PUBCHEM_COMPOUND_CID>
168722

> <PUBCHEM_COMPOUND_CANONICALIZED>
1

> <PUBCHEM_CACTVS_COMPLEXITY>
487

> <PUBCHEM_CACTVS_HBOND_ACCEPTOR>
4

> <PUBCHEM_CACTVS_HBOND_DONOR>
1

> <PUBCHEM_CACTVS_ROTATABLE_BOND>
0

> <PUBCHEM_CACTVS_SUBSKEYS>
AAADceBwOAAAAAAAAAAAAAAAEgAAASAAAAAwYAAABIAAAEjAAAAAGgAACAAAD1SggAICCAAABgCIAgDSCAAAAAAgAAAAAAEAAEgAFBIAIQACQAAFwAAAIIHK6PSPgAAAAAAAAADCAAYQADAAAAAAAAAAAA==

> <PUBCHEM_IUPAC_INCHI>
InChI=1S/C15H20O4/c1-7-8-4-5-14(2)9(16)6-10-15(3,19-10)12(14)11(8)18-13(7)17/h8-12,16H,1,4-6H2,2-3H3/t8-,9-,10+,11-,12+,14-,15+/m0/s1

> <PUBCHEM_IUPAC_INCHIKEY>
OAWNDSFRANSMHG-PDIQHLCYSA-N

> <PUBCHEM_XLOGP3_AA>
1.5

> <PUBCHEM_EXACT_MASS>
264.136159

> <PUBCHEM_MOLECULAR_FORMULA>
C15H20O4

> <PUBCHEM_MOLECULAR_WEIGHT>
264.3169

> <PUBCHEM_OPENEYE_CAN_SMILES>
CC12CCC3C(C1C4(C(O4)CC2O)C)OC(=O)C3=C

> <PUBCHEM_OPENEYE_ISO_SMILES>
C[C@@]12CC[C@@H]3[C@@H]([C@H]1[C@]4([C@H](O4)C[C@@H]2O)C)OC(=O)C3=C

> <PUBCHEM_CACTVS_TPSA>
59.1

> <PUBCHEM_MONOISOTOPIC_WEIGHT>
264.136159

> <PUBCHEM_TOTAL_CHARGE>
0

> <PUBCHEM_HEAVY_ATOM_COUNT>
19

> <PUBCHEM_ATOM_DEF_STEREO_COUNT>
7

> <PUBCHEM_ATOM_UDEF_STEREO_COUNT>
0

> <PUBCHEM_BOND_DEF_STEREO_COUNT>
0

> <PUBCHEM_BOND_UDEF_STEREO_COUNT>
0

> <PUBCHEM_ISOTOPIC_ATOM_COUNT>
0

> <PUBCHEM_COMPONENT_COUNT>
1

> <PUBCHEM_CACTVS_TAUTO_COUNT>
1

> <PUBCHEM_COORDINATE_TYPE>
1
5
255

> <PUBCHEM_BONDANNOTATIONS>
13  28  6
10  3  6
5  20  6
6  15  5
7  16  5
8  21  5
9  22  5

$$$$

