185034
  -OEChem-07051212562D

 35 37  0     0  0  0  0  0  0999 V2000
    5.5443   -0.4802    0.0000 O   0  0  0  0  0  0  0  0  0  0  0  0
    2.0000   -0.6755    0.0000 O   0  0  0  0  0  0  0  0  0  0  0  0
    2.0000    1.3245    0.0000 O   0  0  0  0  0  0  0  0  0  0  0  0
    7.1279   -1.4076    0.0000 O   0  0  0  0  0  0  0  0  0  0  0  0
   10.1279    0.3245    0.0000 O   0  0  0  0  0  0  0  0  0  0  0  0
    4.5981    0.8245    0.0000 C   0  0  0  0  0  0  0  0  0  0  0  0
    6.1279    0.3245    0.0000 C   0  0  0  0  0  0  0  0  0  0  0  0
    4.5981   -0.1755    0.0000 C   0  0  0  0  0  0  0  0  0  0  0  0
    5.5443    1.1292    0.0000 C   0  0  0  0  0  0  0  0  0  0  0  0
    7.1279    0.3245    0.0000 C   0  0  0  0  0  0  0  0  0  0  0  0
    3.7320    1.3245    0.0000 C   0  0  0  0  0  0  0  0  0  0  0  0
    3.7320   -0.6755    0.0000 C   0  0  0  0  0  0  0  0  0  0  0  0
    2.8660   -0.1755    0.0000 C   0  0  0  0  0  0  0  0  0  0  0  0
    2.8660    0.8245    0.0000 C   0  0  0  0  0  0  0  0  0  0  0  0
    7.6279   -0.5415    0.0000 C   0  0  0  0  0  0  0  0  0  0  0  0
    7.6279    1.1905    0.0000 C   0  0  0  0  0  0  0  0  0  0  0  0
    8.6279   -0.5415    0.0000 C   0  0  0  0  0  0  0  0  0  0  0  0
    8.6279    1.1905    0.0000 C   0  0  0  0  0  0  0  0  0  0  0  0
    9.1279    0.3245    0.0000 C   0  0  0  0  0  0  0  0  0  0  0  0
    2.0000   -1.6755    0.0000 C   0  0  0  0  0  0  0  0  0  0  0  0
   10.6279    1.1905    0.0000 C   0  0  0  0  0  0  0  0  0  0  0  0
    5.7369    1.7186    0.0000 H   0  0  0  0  0  0  0  0  0  0  0  0
    3.7320    1.9445    0.0000 H   0  0  0  0  0  0  0  0  0  0  0  0
    3.7320   -1.2955    0.0000 H   0  0  0  0  0  0  0  0  0  0  0  0
    7.3179    1.7274    0.0000 H   0  0  0  0  0  0  0  0  0  0  0  0
    8.9379   -1.0785    0.0000 H   0  0  0  0  0  0  0  0  0  0  0  0
    8.9379    1.7274    0.0000 H   0  0  0  0  0  0  0  0  0  0  0  0
    2.0000    1.9445    0.0000 H   0  0  0  0  0  0  0  0  0  0  0  0
    7.4379   -1.9445    0.0000 H   0  0  0  0  0  0  0  0  0  0  0  0
    1.3800   -1.6755    0.0000 H   0  0  0  0  0  0  0  0  0  0  0  0
    2.0000   -2.2955    0.0000 H   0  0  0  0  0  0  0  0  0  0  0  0
    2.6200   -1.6755    0.0000 H   0  0  0  0  0  0  0  0  0  0  0  0
   11.1648    0.8805    0.0000 H   0  0  0  0  0  0  0  0  0  0  0  0
   10.9379    1.7274    0.0000 H   0  0  0  0  0  0  0  0  0  0  0  0
   10.0910    1.5005    0.0000 H   0  0  0  0  0  0  0  0  0  0  0  0
  1  7  1  0  0  0  0
  1  8  1  0  0  0  0
  2 13  1  0  0  0  0
  2 20  1  0  0  0  0
  3 14  1  0  0  0  0
  3 28  1  0  0  0  0
  4 15  1  0  0  0  0
  4 29  1  0  0  0  0
  5 19  1  0  0  0  0
  5 21  1  0  0  0  0
  6  8  1  0  0  0  0
  6  9  1  0  0  0  0
  6 11  2  0  0  0  0
  7  9  2  0  0  0  0
  7 10  1  0  0  0  0
  8 12  2  0  0  0  0
  9 22  1  0  0  0  0
 10 15  2  0  0  0  0
 10 16  1  0  0  0  0
 11 14  1  0  0  0  0
 11 23  1  0  0  0  0
 12 13  1  0  0  0  0
 12 24  1  0  0  0  0
 13 14  2  0  0  0  0
 15 17  1  0  0  0  0
 16 18  2  0  0  0  0
 16 25  1  0  0  0  0
 17 19  2  0  0  0  0
 17 26  1  0  0  0  0
 18 19  1  0  0  0  0
 18 27  1  0  0  0  0
 20 30  1  0  0  0  0
 20 31  1  0  0  0  0
 20 32  1  0  0  0  0
 21 33  1  0  0  0  0
 21 34  1  0  0  0  0
 21 35  1  0  0  0  0
M  END
> <PUBCHEM_COMPOUND_CID>
185034

> <PUBCHEM_COMPOUND_CANONICALIZED>
1

> <PUBCHEM_CACTVS_COMPLEXITY>
350

> <PUBCHEM_CACTVS_HBOND_ACCEPTOR>
5

> <PUBCHEM_CACTVS_HBOND_DONOR>
2

> <PUBCHEM_CACTVS_ROTATABLE_BOND>
3

> <PUBCHEM_CACTVS_SUBSKEYS>
AAADccB4OAAAAAAAAAAAAAAAAAAAASAAAAAwYAAAAAAAAEgB9AAAGgAACAAADASAmAIyBsAABkCIAqBSAAACCAAkIAAIiAEGiMgNJzaGNRqCeWOl4BULuYfK7PzOIQABCAAIQABCAAIQABCAAAAAAAAAAA==

> <PUBCHEM_IUPAC_OPENEYE_NAME>
2-(2-hydroxy-4-methoxy-phenyl)-6-methoxy-benzofuran-5-ol

> <PUBCHEM_IUPAC_CAS_NAME>
2-(2-hydroxy-4-methoxyphenyl)-6-methoxy-5-benzofuranol

> <PUBCHEM_IUPAC_NAME>
2-(2-hydroxy-4-methoxyphenyl)-6-methoxy-1-benzofuran-5-ol

> <PUBCHEM_IUPAC_SYSTEMATIC_NAME>
6-methoxy-2-(4-methoxy-2-oxidanyl-phenyl)-1-benzofuran-5-ol

> <PUBCHEM_IUPAC_TRADITIONAL_NAME>
2-(2-hydroxy-4-methoxy-phenyl)-6-methoxy-benzofuran-5-ol

> <PUBCHEM_IUPAC_INCHI>
InChI=1S/C16H14O5/c1-19-10-3-4-11(12(17)7-10)15-6-9-5-13(18)16(20-2)8-14(9)21-15/h3-8,17-18H,1-2H3

> <PUBCHEM_IUPAC_INCHIKEY>
BVSPXSLCUKWRNP-UHFFFAOYSA-N

> <PUBCHEM_XLOGP3_AA>
3.2

> <PUBCHEM_EXACT_MASS>
286.084124

> <PUBCHEM_MOLECULAR_FORMULA>
C16H14O5

> <PUBCHEM_MOLECULAR_WEIGHT>
286.27936

> <PUBCHEM_OPENEYE_CAN_SMILES>
COC1=CC(=C(C=C1)C2=CC3=CC(=C(C=C3O2)OC)O)O

> <PUBCHEM_OPENEYE_ISO_SMILES>
COC1=CC(=C(C=C1)C2=CC3=CC(=C(C=C3O2)OC)O)O

> <PUBCHEM_CACTVS_TPSA>
72.1

> <PUBCHEM_MONOISOTOPIC_WEIGHT>
286.084124

> <PUBCHEM_TOTAL_CHARGE>
0

> <PUBCHEM_HEAVY_ATOM_COUNT>
21

> <PUBCHEM_ATOM_DEF_STEREO_COUNT>
0

> <PUBCHEM_ATOM_UDEF_STEREO_COUNT>
0

> <PUBCHEM_BOND_DEF_STEREO_COUNT>
0

> <PUBCHEM_BOND_UDEF_STEREO_COUNT>
0

> <PUBCHEM_ISOTOPIC_ATOM_COUNT>
0

> <PUBCHEM_COMPONENT_COUNT>
1

> <PUBCHEM_CACTVS_TAUTO_COUNT>
14

> <PUBCHEM_COORDINATE_TYPE>
1
5
255

> <PUBCHEM_BONDANNOTATIONS>
1  7  8
1  8  8
10  15  8
10  16  8
11  14  8
12  13  8
13  14  8
15  17  8
16  18  8
17  19  8
18  19  8
6  11  8
6  8  8
6  9  8
7  9  8
8  12  8

$$$$

