5280728
  -OEChem-07051212492D

 61 62  0     1  0  0  0  0  0999 V2000
    4.9860    3.5194    0.0000 P   0  0  0  0  0  0  0  0  0  0  0  0
    7.5841    0.0194    0.0000 O   0  0  0  0  0  0  0  0  0  0  0  0
    6.7751   -1.5684    0.0000 O   0  0  0  0  0  0  0  0  0  0  0  0
    5.8520    3.0194    0.0000 O   0  0  0  0  0  0  0  0  0  0  0  0
    7.5841    2.0194    0.0000 O   0  0  0  0  0  0  0  0  0  0  0  0
    4.1200    0.0194    0.0000 O   0  0  0  0  0  0  0  0  0  0  0  0
    9.0352   -2.8284    0.0000 O   0  0  0  0  0  0  0  0  0  0  0  0
    9.3442   -1.2594    0.0000 O   0  0  0  0  0  0  0  0  0  0  0  0
    8.9501   -4.0194    0.0000 O   0  0  0  0  0  0  0  0  0  0  0  0
    4.1200    4.0194    0.0000 O   0  0  0  0  0  0  0  0  0  0  0  0
    5.4860    4.3854    0.0000 O   0  0  0  0  0  0  0  0  0  0  0  0
    4.4860    2.6534    0.0000 O   0  0  0  0  0  0  0  0  0  0  0  0
    5.8520   -0.9806    0.0000 N   0  0  0  0  0  0  0  0  0  0  0  0
    4.1200    2.0194    0.0000 N   0  0  0  0  0  0  0  0  0  0  0  0
    4.9860   -2.4806    0.0000 N   0  0  0  0  0  0  0  0  0  0  0  0
    3.9860   -1.4806    0.0000 N   0  0  0  0  0  0  0  0  0  0  0  0
    2.6200    2.8855    0.0000 N   0  0  0  0  0  0  0  0  0  0  0  0
    2.6200    1.1534    0.0000 N   0  0  0  0  0  0  0  0  0  0  0  0
    6.7181    0.5194    0.0000 C   0  0  2  0  0  0  0  0  0  0  0  0
    5.8520    0.0194    0.0000 C   0  0  2  0  0  0  0  0  0  0  0  0
    6.7181    1.5194    0.0000 C   0  0  1  0  0  0  0  0  0  0  0  0
    5.8520    2.0194    0.0000 C   0  0  2  0  0  0  0  0  0  0  0  0
    4.9860    0.5194    0.0000 C   0  0  1  0  0  0  0  0  0  0  0  0
    4.9860    1.5194    0.0000 C   0  0  1  0  0  0  0  0  0  0  0  0
    8.0841   -2.5194    0.0000 C   0  0  1  0  0  0  0  0  0  0  0  0
    7.5841   -0.9806    0.0000 C   0  0  2  0  0  0  0  0  0  0  0  0
    8.3931   -1.5684    0.0000 C   0  0  2  0  0  0  0  0  0  0  0  0
    7.0841   -2.5194    0.0000 C   0  0  2  0  0  0  0  0  0  0  0  0
    8.0841   -3.5194    0.0000 C   0  0  0  0  0  0  0  0  0  0  0  0
    6.4963   -3.3284    0.0000 C   0  0  0  0  0  0  0  0  0  0  0  0
    4.9860   -1.4806    0.0000 C   0  0  0  0  0  0  0  0  0  0  0  0
    3.1200    2.0195    0.0000 C   0  0  0  0  0  0  0  0  0  0  0  0
    6.7181   -0.1006    0.0000 H   0  0  0  0  0  0  0  0  0  0  0  0
    6.3890   -0.2906    0.0000 H   0  0  0  0  0  0  0  0  0  0  0  0
    6.7181    2.1394    0.0000 H   0  0  0  0  0  0  0  0  0  0  0  0
    6.3890    2.3294    0.0000 H   0  0  0  0  0  0  0  0  0  0  0  0
    4.9860   -0.1006    0.0000 H   0  0  0  0  0  0  0  0  0  0  0  0
    4.9860    2.1394    0.0000 H   0  0  0  0  0  0  0  0  0  0  0  0
    8.1365   -0.6991    0.0000 H   0  0  0  0  0  0  0  0  0  0  0  0
    8.8315   -2.0068    0.0000 H   0  0  0  0  0  0  0  0  0  0  0  0
    6.4717   -2.4224    0.0000 H   0  0  0  0  0  0  0  0  0  0  0  0
    7.4735   -3.4118    0.0000 H   0  0  0  0  0  0  0  0  0  0  0  0
    7.8720   -4.1020    0.0000 H   0  0  0  0  0  0  0  0  0  0  0  0
    5.9947   -2.9640    0.0000 H   0  0  0  0  0  0  0  0  0  0  0  0
    6.1319   -3.8300    0.0000 H   0  0  0  0  0  0  0  0  0  0  0  0
    6.9979   -3.6929    0.0000 H   0  0  0  0  0  0  0  0  0  0  0  0
    7.5841    2.6394    0.0000 H   0  0  0  0  0  0  0  0  0  0  0  0
    3.5831    0.3294    0.0000 H   0  0  0  0  0  0  0  0  0  0  0  0
    9.4959   -2.4136    0.0000 H   0  0  0  0  0  0  0  0  0  0  0  0
    9.4731   -0.6529    0.0000 H   0  0  0  0  0  0  0  0  0  0  0  0
    8.9501   -4.6394    0.0000 H   0  0  0  0  0  0  0  0  0  0  0  0
    3.6760   -2.0175    0.0000 H   0  0  0  0  0  0  0  0  0  0  0  0
    3.6760   -0.9436    0.0000 H   0  0  0  0  0  0  0  0  0  0  0  0
    4.4491   -2.7906    0.0000 H   0  0  0  0  0  0  0  0  0  0  0  0
    5.5230   -2.7906    0.0000 H   0  0  0  0  0  0  0  0  0  0  0  0
    6.1060    4.3854    0.0000 H   0  0  0  0  0  0  0  0  0  0  0  0
    4.1200    4.6394    0.0000 H   0  0  0  0  0  0  0  0  0  0  0  0
    2.0000    2.8855    0.0000 H   0  0  0  0  0  0  0  0  0  0  0  0
    2.9300    3.4224    0.0000 H   0  0  0  0  0  0  0  0  0  0  0  0
    2.0000    1.1534    0.0000 H   0  0  0  0  0  0  0  0  0  0  0  0
    2.9300    0.6164    0.0000 H   0  0  0  0  0  0  0  0  0  0  0  0
  1  4  1  0  0  0  0
  1 10  1  0  0  0  0
  1 11  1  0  0  0  0
  1 12  2  0  0  0  0
 19  2  1  6  0  0  0
 26  2  1  1  0  0  0
  3 26  1  0  0  0  0
  3 28  1  0  0  0  0
 22  4  1  6  0  0  0
 21  5  1  1  0  0  0
  5 47  1  0  0  0  0
 23  6  1  6  0  0  0
  6 48  1  0  0  0  0
 25  7  1  6  0  0  0
  7 49  1  0  0  0  0
 27  8  1  6  0  0  0
  8 50  1  0  0  0  0
  9 29  1  0  0  0  0
  9 51  1  0  0  0  0
 10 57  1  0  0  0  0
 11 56  1  0  0  0  0
 20 13  1  1  0  0  0
 13 31  2  0  0  0  0
 24 14  1  1  0  0  0
 14 32  2  0  0  0  0
 15 31  1  0  0  0  0
 15 54  1  0  0  0  0
 15 55  1  0  0  0  0
 16 31  1  0  0  0  0
 16 52  1  0  0  0  0
 16 53  1  0  0  0  0
 17 32  1  0  0  0  0
 17 58  1  0  0  0  0
 17 59  1  0  0  0  0
 18 32  1  0  0  0  0
 18 60  1  0  0  0  0
 18 61  1  0  0  0  0
 19 20  1  0  0  0  0
 19 21  1  0  0  0  0
 19 33  1  0  0  0  0
 20 23  1  0  0  0  0
 20 34  1  0  0  0  0
 21 22  1  0  0  0  0
 21 35  1  0  0  0  0
 22 24  1  0  0  0  0
 22 36  1  0  0  0  0
 23 24  1  0  0  0  0
 23 37  1  0  0  0  0
 24 38  1  0  0  0  0
 25 27  1  0  0  0  0
 25 28  1  0  0  0  0
 25 29  1  0  0  0  0
 26 27  1  0  0  0  0
 26 39  1  0  0  0  0
 27 40  1  0  0  0  0
 28 30  1  6  0  0  0
 28 41  1  0  0  0  0
 29 42  1  0  0  0  0
 29 43  1  0  0  0  0
 30 44  1  0  0  0  0
 30 45  1  0  0  0  0
 30 46  1  0  0  0  0
M  END
> <PUBCHEM_COMPOUND_CID>
5280728

> <PUBCHEM_COMPOUND_CANONICALIZED>
1

> <PUBCHEM_CACTVS_COMPLEXITY>
774

> <PUBCHEM_CACTVS_HBOND_ACCEPTOR>
13

> <PUBCHEM_CACTVS_HBOND_DONOR>
11

> <PUBCHEM_CACTVS_ROTATABLE_BOND>
7

> <PUBCHEM_CACTVS_SUBSKEYS>
AAADceBzvAIAAAAAAAAAAAAAAAAAASAAAAAwAAAAAAAAAAAAAAAAHgAQCCAADHzxgAcDCAJABxAgQAAAJIAAAAEAAAAAAAAAAAATEAIAwAAjQAAHAAAHAAHwcA0KAAAAAAAAAAACgAAUCACgAAAAAAAAAA==

> <PUBCHEM_IUPAC_OPENEYE_NAME>
[(1S,2R,3S,4S,5R,6S)-5-[(2R,3R,4S,5S)-3,4-dihydroxy-4-(hydroxymethyl)-5-methyl-tetrahydrofuran-2-yl]oxy-2,4-diguanidino-3,6-dihydroxy-cyclohexyl] dihydrogen phosphate

> <PUBCHEM_IUPAC_CAS_NAME>
[(1S,2R,3S,4S,5R,6S)-2,4-bis(diaminomethylideneamino)-5-[[(2R,3R,4S,5S)-3,4-dihydroxy-4-(hydroxymethyl)-5-methyl-2-oxolanyl]oxy]-3,6-dihydroxycyclohexyl] dihydrogen phosphate

> <PUBCHEM_IUPAC_NAME>
[(1S,2R,3S,4S,5R,6S)-2,4-bis(diaminomethylideneamino)-5-[(2R,3R,4S,5S)-3,4-dihydroxy-4-(hydroxymethyl)-5-methyloxolan-2-yl]oxy-3,6-dihydroxycyclohexyl] dihydrogen phosphate

> <PUBCHEM_IUPAC_SYSTEMATIC_NAME>
[(1S,2R,3S,4S,5R,6S)-2,4-bis[bis(azanyl)methylideneamino]-5-[(2R,3R,4S,5S)-4-(hydroxymethyl)-5-methyl-3,4-bis(oxidanyl)oxolan-2-yl]oxy-3,6-bis(oxidanyl)cyclohexyl] dihydrogen phosphate

> <PUBCHEM_IUPAC_TRADITIONAL_NAME>
[(1S,2R,3S,4S,5R,6S)-5-[(2R,3R,4S,5S)-3,4-dihydroxy-5-methyl-4-methylol-tetrahydrofuran-2-yl]oxy-2,4-diguanidino-3,6-dihydroxy-cyclohexyl] dihydrogen phosphate

> <PUBCHEM_IUPAC_INCHI>
InChI=1S/C14H29N6O11P/c1-3-14(25,2-21)10(24)11(29-3)30-8-4(19-12(15)16)6(22)5(20-13(17)18)9(7(8)23)31-32(26,27)28/h3-11,21-25H,2H2,1H3,(H4,15,16,19)(H4,17,18,20)(H2,26,27,28)/t3-,4-,5+,6-,7-,8+,9-,10-,11-,14+/m0/s1

> <PUBCHEM_IUPAC_INCHIKEY>
RUBKAAVMXLSLAZ-UVTYLADFSA-N

> <PUBCHEM_XLOGP3_AA>
-7.4

> <PUBCHEM_EXACT_MASS>
488.163192

> <PUBCHEM_MOLECULAR_FORMULA>
C14H29N6O11P

> <PUBCHEM_MOLECULAR_WEIGHT>
488.387422

> <PUBCHEM_OPENEYE_CAN_SMILES>
CC1C(C(C(O1)OC2C(C(C(C(C2O)OP(=O)(O)O)N=C(N)N)O)N=C(N)N)O)(CO)O

> <PUBCHEM_OPENEYE_ISO_SMILES>
C[C@H]1[C@@]([C@H]([C@@H](O1)O[C@@H]2[C@H]([C@@H]([C@H]([C@@H]([C@H]2O)OP(=O)(O)O)N=C(N)N)O)N=C(N)N)O)(CO)O

> <PUBCHEM_CACTVS_TPSA>
315

> <PUBCHEM_MONOISOTOPIC_WEIGHT>
488.163192

> <PUBCHEM_TOTAL_CHARGE>
0

> <PUBCHEM_HEAVY_ATOM_COUNT>
32

> <PUBCHEM_ATOM_DEF_STEREO_COUNT>
10

> <PUBCHEM_ATOM_UDEF_STEREO_COUNT>
0

> <PUBCHEM_BOND_DEF_STEREO_COUNT>
0

> <PUBCHEM_BOND_UDEF_STEREO_COUNT>
0

> <PUBCHEM_ISOTOPIC_ATOM_COUNT>
0

> <PUBCHEM_COMPONENT_COUNT>
1

> <PUBCHEM_CACTVS_TAUTO_COUNT>
4

> <PUBCHEM_COORDINATE_TYPE>
1
5
255

> <PUBCHEM_BONDANNOTATIONS>
20  13  5
24  14  5
19  2  6
26  2  5
28  30  6
22  4  6
21  5  5
23  6  6
25  7  6
27  8  6

$$$$

