12931
  -OEChem-06261207332D

 45 47  0     0  0  0  0  0  0999 V2000
    4.2788   -3.5582    0.0000 O   0  0  0  0  0  0  0  0  0  0  0  0
    6.3479   -0.7104    0.0000 O   0  0  0  0  0  0  0  0  0  0  0  0
    8.0704   -3.0670    0.0000 O   0  0  0  0  0  0  0  0  0  0  0  0
    3.3517    2.8151    0.0000 O   0  0  0  0  0  0  0  0  0  0  0  0
    4.5878   -0.9891    0.0000 N   0  0  0  0  0  0  0  0  0  0  0  0
    5.5388   -2.2982    0.0000 N   0  0  0  0  0  0  0  0  0  0  0  0
    4.0000   -1.7982    0.0000 C   0  0  0  0  0  0  0  0  0  0  0  0
    3.5000   -2.6642    0.0000 C   0  0  0  0  0  0  0  0  0  0  0  0
    3.5000   -0.9321    0.0000 C   0  0  0  0  0  0  0  0  0  0  0  0
    2.5000   -0.9321    0.0000 C   0  0  0  0  0  0  0  0  0  0  0  0
    2.5000   -2.6642    0.0000 C   0  0  0  0  0  0  0  0  0  0  0  0
    2.0000   -1.7982    0.0000 C   0  0  0  0  0  0  0  0  0  0  0  0
    4.5878   -2.6072    0.0000 C   0  0  0  0  0  0  0  0  0  0  0  0
    5.5388   -1.2982    0.0000 C   0  0  0  0  0  0  0  0  0  0  0  0
    4.2788   -0.0381    0.0000 C   0  0  0  0  0  0  0  0  0  0  0  0
    6.3479   -2.8859    0.0000 C   0  0  0  0  0  0  0  0  0  0  0  0
    4.9479    0.7051    0.0000 C   0  0  0  0  0  0  0  0  0  0  0  0
    3.3006    0.1698    0.0000 C   0  0  0  0  0  0  0  0  0  0  0  0
    7.2614   -2.4792    0.0000 C   0  0  0  0  0  0  0  0  0  0  0  0
    4.6389    1.6561    0.0000 C   0  0  0  0  0  0  0  0  0  0  0  0
    2.9916    1.1209    0.0000 C   0  0  0  0  0  0  0  0  0  0  0  0
    3.6607    1.8640    0.0000 C   0  0  0  0  0  0  0  0  0  0  0  0
    4.0208    3.5582    0.0000 C   0  0  0  0  0  0  0  0  0  0  0  0
    3.3923   -3.2748    0.0000 H   0  0  0  0  0  0  0  0  0  0  0  0
    4.0826   -2.8762    0.0000 H   0  0  0  0  0  0  0  0  0  0  0  0
    4.0826   -0.7201    0.0000 H   0  0  0  0  0  0  0  0  0  0  0  0
    3.3923   -0.3216    0.0000 H   0  0  0  0  0  0  0  0  0  0  0  0
    1.9174   -2.8762    0.0000 H   0  0  0  0  0  0  0  0  0  0  0  0
    2.6077   -3.2748    0.0000 H   0  0  0  0  0  0  0  0  0  0  0  0
    2.6077   -0.3216    0.0000 H   0  0  0  0  0  0  0  0  0  0  0  0
    1.9174   -0.7201    0.0000 H   0  0  0  0  0  0  0  0  0  0  0  0
    1.5250   -1.3996    0.0000 H   0  0  0  0  0  0  0  0  0  0  0  0
    1.5250   -2.1967    0.0000 H   0  0  0  0  0  0  0  0  0  0  0  0
    5.9019   -3.3166    0.0000 H   0  0  0  0  0  0  0  0  0  0  0  0
    6.6946   -3.4000    0.0000 H   0  0  0  0  0  0  0  0  0  0  0  0
    5.5544    0.5762    0.0000 H   0  0  0  0  0  0  0  0  0  0  0  0
    2.8858   -0.2909    0.0000 H   0  0  0  0  0  0  0  0  0  0  0  0
    7.7074   -2.0485    0.0000 H   0  0  0  0  0  0  0  0  0  0  0  0
    6.9147   -1.9652    0.0000 H   0  0  0  0  0  0  0  0  0  0  0  0
    5.0537    2.1169    0.0000 H   0  0  0  0  0  0  0  0  0  0  0  0
    2.3852    1.2498    0.0000 H   0  0  0  0  0  0  0  0  0  0  0  0
    8.6368   -2.8148    0.0000 H   0  0  0  0  0  0  0  0  0  0  0  0
    4.4816    3.1434    0.0000 H   0  0  0  0  0  0  0  0  0  0  0  0
    4.4357    4.0190    0.0000 H   0  0  0  0  0  0  0  0  0  0  0  0
    3.5601    3.9731    0.0000 H   0  0  0  0  0  0  0  0  0  0  0  0
  1 13  2  0  0  0  0
  2 14  2  0  0  0  0
  3 19  1  0  0  0  0
  3 42  1  0  0  0  0
  4 22  1  0  0  0  0
  4 23  1  0  0  0  0
  5  7  1  0  0  0  0
  5 14  1  0  0  0  0
  5 15  1  0  0  0  0
  6 13  1  0  0  0  0
  6 14  1  0  0  0  0
  6 16  1  0  0  0  0
  7  8  1  0  0  0  0
  7  9  1  0  0  0  0
  7 13  1  0  0  0  0
  8 11  1  0  0  0  0
  8 24  1  0  0  0  0
  8 25  1  0  0  0  0
  9 10  1  0  0  0  0
  9 26  1  0  0  0  0
  9 27  1  0  0  0  0
 10 12  1  0  0  0  0
 10 30  1  0  0  0  0
 10 31  1  0  0  0  0
 11 12  1  0  0  0  0
 11 28  1  0  0  0  0
 11 29  1  0  0  0  0
 12 32  1  0  0  0  0
 12 33  1  0  0  0  0
 15 17  2  0  0  0  0
 15 18  1  0  0  0  0
 16 19  1  0  0  0  0
 16 34  1  0  0  0  0
 16 35  1  0  0  0  0
 17 20  1  0  0  0  0
 17 36  1  0  0  0  0
 18 21  2  0  0  0  0
 18 37  1  0  0  0  0
 19 38  1  0  0  0  0
 19 39  1  0  0  0  0
 20 22  2  0  0  0  0
 20 40  1  0  0  0  0
 21 22  1  0  0  0  0
 21 41  1  0  0  0  0
 23 43  1  0  0  0  0
 23 44  1  0  0  0  0
 23 45  1  0  0  0  0
M  END
> <PUBCHEM_COMPOUND_CID>
12931

> <PUBCHEM_COMPOUND_CANONICALIZED>
1

> <PUBCHEM_CACTVS_COMPLEXITY>
454

> <PUBCHEM_CACTVS_HBOND_ACCEPTOR>
4

> <PUBCHEM_CACTVS_HBOND_DONOR>
1

> <PUBCHEM_CACTVS_ROTATABLE_BOND>
4

> <PUBCHEM_CACTVS_SUBSKEYS>
AAADceB7OAAAAAAAAAAAAAAAAAAAAWAAAAAwYAAAAAAAAAABAAAAHgAACAAADIzhkAYzxoMABgCIACVSUACCCAAhIgAIiAGObIiOdjLEsbuUMChsxzPY6Ce4yACOAEAAAAAAAAAAgAAAAAAAAAAAAAAAAA==

> <PUBCHEM_IUPAC_OPENEYE_NAME>
3-(2-hydroxyethyl)-1-(4-methoxyphenyl)-1,3-diazaspiro[4.5]decane-2,4-dione

> <PUBCHEM_IUPAC_CAS_NAME>
3-(2-hydroxyethyl)-1-(4-methoxyphenyl)-1,3-diazaspiro[4.5]decane-2,4-dione

> <PUBCHEM_IUPAC_NAME>
3-(2-hydroxyethyl)-1-(4-methoxyphenyl)-1,3-diazaspiro[4.5]decane-2,4-dione

> <PUBCHEM_IUPAC_SYSTEMATIC_NAME>
3-(2-hydroxyethyl)-1-(4-methoxyphenyl)-1,3-diazaspiro[4.5]decane-2,4-dione

> <PUBCHEM_IUPAC_TRADITIONAL_NAME>
3-(2-hydroxyethyl)-1-(4-methoxyphenyl)-1,3-diazaspiro[4.5]decane-2,4-quinone

> <PUBCHEM_IUPAC_INCHI>
InChI=1S/C17H22N2O4/c1-23-14-7-5-13(6-8-14)19-16(22)18(11-12-20)15(21)17(19)9-3-2-4-10-17/h5-8,20H,2-4,9-12H2,1H3

> <PUBCHEM_IUPAC_INCHIKEY>
BCNPBBVTEKAGMU-UHFFFAOYSA-N

> <PUBCHEM_XLOGP3_AA>
1.8

> <PUBCHEM_EXACT_MASS>
318.157957

> <PUBCHEM_MOLECULAR_FORMULA>
C17H22N2O4

> <PUBCHEM_MOLECULAR_WEIGHT>
318.36758

> <PUBCHEM_OPENEYE_CAN_SMILES>
COC1=CC=C(C=C1)N2C(=O)N(C(=O)C23CCCCC3)CCO

> <PUBCHEM_OPENEYE_ISO_SMILES>
COC1=CC=C(C=C1)N2C(=O)N(C(=O)C23CCCCC3)CCO

> <PUBCHEM_CACTVS_TPSA>
70.1

> <PUBCHEM_MONOISOTOPIC_WEIGHT>
318.157957

> <PUBCHEM_TOTAL_CHARGE>
0

> <PUBCHEM_HEAVY_ATOM_COUNT>
23

> <PUBCHEM_ATOM_DEF_STEREO_COUNT>
0

> <PUBCHEM_ATOM_UDEF_STEREO_COUNT>
0

> <PUBCHEM_BOND_DEF_STEREO_COUNT>
0

> <PUBCHEM_BOND_UDEF_STEREO_COUNT>
0

> <PUBCHEM_ISOTOPIC_ATOM_COUNT>
0

> <PUBCHEM_COMPONENT_COUNT>
1

> <PUBCHEM_CACTVS_TAUTO_COUNT>
1

> <PUBCHEM_COORDINATE_TYPE>
1
5
255

> <PUBCHEM_BONDANNOTATIONS>
15  17  8
15  18  8
17  20  8
18  21  8
20  22  8
21  22  8

$$$$

