46173998
  -OEChem-07051213102D

 72 76  0     1  0  0  0  0  0999 V2000
    3.8000    1.0204    0.0000 O   0  0  0  0  0  0  0  0  0  0  0  0
    6.3981    0.5204    0.0000 O   0  0  0  0  0  0  0  0  0  0  0  0
    6.3981    2.5204    0.0000 O   0  0  0  0  0  0  0  0  0  0  0  0
    4.6660    3.5204    0.0000 O   0  0  0  0  0  0  0  0  0  0  0  0
    9.9243    0.5512    0.0000 O   0  0  0  0  0  0  0  0  0  0  0  0
    9.0641   -0.9521    0.0000 O   0  0  0  0  0  0  0  0  0  0  0  0
    2.9340    3.5204    0.0000 O   0  0  0  0  0  0  0  0  0  0  0  0
    4.6660   -3.4796    0.0000 O   0  0  0  0  0  0  0  0  0  0  0  0
   12.5282   -0.9388    0.0000 O   0  0  0  0  0  0  0  0  0  0  0  0
   10.8000   -1.9454    0.0000 O   0  0  0  0  0  0  0  0  0  0  0  0
   12.5205    1.0612    0.0000 O   0  0  0  0  0  0  0  0  0  0  0  0
    6.4144   -3.5142    0.0000 O   0  0  0  0  0  0  0  0  0  0  0  0
    2.9176   -3.5142    0.0000 O   0  0  0  0  0  0  0  0  0  0  0  0
    4.6660    0.5204    0.0000 C   0  0  1  0  0  0  0  0  0  0  0  0
    4.6660   -0.4796    0.0000 C   0  0  1  0  0  0  0  0  0  0  0  0
    5.5321    1.0204    0.0000 C   0  0  1  0  0  0  0  0  0  0  0  0
    5.5321    2.0204    0.0000 C   0  0  2  0  0  0  0  0  0  0  0  0
    4.6660    2.5204    0.0000 C   0  0  1  0  0  0  0  0  0  0  0  0
    3.8000    2.0204    0.0000 C   0  0  1  0  0  0  0  0  0  0  0  0
    5.5321   -0.9796    0.0000 C   0  0  0  0  0  0  0  0  0  0  0  0
    3.8000   -0.9796    0.0000 C   0  0  0  0  0  0  0  0  0  0  0  0
    5.5321   -1.9796    0.0000 C   0  0  0  0  0  0  0  0  0  0  0  0
    3.8000   -1.9796    0.0000 C   0  0  0  0  0  0  0  0  0  0  0  0
    2.9340    2.5204    0.0000 C   0  0  0  0  0  0  0  0  0  0  0  0
    6.4260   -0.4449    0.0000 C   0  0  0  0  0  0  0  0  0  0  0  0
    4.6660   -2.4796    0.0000 C   0  0  0  0  0  0  0  0  0  0  0  0
    2.9061   -0.4449    0.0000 C   0  0  0  0  0  0  0  0  0  0  0  0
    7.3321   -0.9588    0.0000 C   0  0  0  0  0  0  0  0  0  0  0  0
   11.6602   -0.4421    0.0000 C   0  0  1  0  0  0  0  0  0  0  0  0
   10.7961   -0.9454    0.0000 C   0  0  2  0  0  0  0  0  0  0  0  0
   11.6564    0.5579    0.0000 C   0  0  2  0  0  0  0  0  0  0  0  0
    9.9282   -0.4488    0.0000 C   0  0  1  0  0  0  0  0  0  0  0  0
    6.4260   -2.5143    0.0000 C   0  0  0  0  0  0  0  0  0  0  0  0
   10.7884    1.0545    0.0000 C   0  0  2  0  0  0  0  0  0  0  0  0
    2.9061   -2.5143    0.0000 C   0  0  0  0  0  0  0  0  0  0  0  0
    7.3321   -2.0004    0.0000 C   0  0  0  0  0  0  0  0  0  0  0  0
    8.1962   -0.4555    0.0000 C   0  0  0  0  0  0  0  0  0  0  0  0
    2.0000   -0.9588    0.0000 C   0  0  0  0  0  0  0  0  0  0  0  0
    2.0000   -2.0004    0.0000 C   0  0  0  0  0  0  0  0  0  0  0  0
   10.7846    2.0545    0.0000 C   0  0  0  0  0  0  0  0  0  0  0  0
    3.9299    0.0954    0.0000 H   0  0  0  0  0  0  0  0  0  0  0  0
    5.4022   -0.0546    0.0000 H   0  0  0  0  0  0  0  0  0  0  0  0
    5.5321    0.4004    0.0000 H   0  0  0  0  0  0  0  0  0  0  0  0
    5.5321    2.6404    0.0000 H   0  0  0  0  0  0  0  0  0  0  0  0
    5.2030    2.8304    0.0000 H   0  0  0  0  0  0  0  0  0  0  0  0
    3.2631    1.7104    0.0000 H   0  0  0  0  0  0  0  0  0  0  0  0
    2.3234    2.6280    0.0000 H   0  0  0  0  0  0  0  0  0  0  0  0
    2.7219    1.9378    0.0000 H   0  0  0  0  0  0  0  0  0  0  0  0
    6.4188    0.1750    0.0000 H   0  0  0  0  0  0  0  0  0  0  0  0
    6.9350    0.8304    0.0000 H   0  0  0  0  0  0  0  0  0  0  0  0
    2.9132    0.1750    0.0000 H   0  0  0  0  0  0  0  0  0  0  0  0
    6.3981    3.1404    0.0000 H   0  0  0  0  0  0  0  0  0  0  0  0
   12.1960   -0.1300    0.0000 H   0  0  0  0  0  0  0  0  0  0  0  0
   10.2604   -1.2575    0.0000 H   0  0  0  0  0  0  0  0  0  0  0  0
   11.6540    1.1779    0.0000 H   0  0  0  0  0  0  0  0  0  0  0  0
    5.2030    3.8304    0.0000 H   0  0  0  0  0  0  0  0  0  0  0  0
    9.9306   -1.0688    0.0000 H   0  0  0  0  0  0  0  0  0  0  0  0
   10.2503    1.3625    0.0000 H   0  0  0  0  0  0  0  0  0  0  0  0
    7.8678   -2.3125    0.0000 H   0  0  0  0  0  0  0  0  0  0  0  0
    8.5929    0.0210    0.0000 H   0  0  0  0  0  0  0  0  0  0  0  0
    7.7958    0.0179    0.0000 H   0  0  0  0  0  0  0  0  0  0  0  0
    1.4643   -0.6467    0.0000 H   0  0  0  0  0  0  0  0  0  0  0  0
    1.4643   -2.3125    0.0000 H   0  0  0  0  0  0  0  0  0  0  0  0
    2.3970    3.8304    0.0000 H   0  0  0  0  0  0  0  0  0  0  0  0
   11.4046    2.0569    0.0000 H   0  0  0  0  0  0  0  0  0  0  0  0
   10.7822    2.6745    0.0000 H   0  0  0  0  0  0  0  0  0  0  0  0
   10.1646    2.0522    0.0000 H   0  0  0  0  0  0  0  0  0  0  0  0
   13.0639   -0.6267    0.0000 H   0  0  0  0  0  0  0  0  0  0  0  0
   11.3381   -2.2534    0.0000 H   0  0  0  0  0  0  0  0  0  0  0  0
   12.5181    1.6812    0.0000 H   0  0  0  0  0  0  0  0  0  0  0  0
    6.9478   -3.8304    0.0000 H   0  0  0  0  0  0  0  0  0  0  0  0
    2.3843   -3.8304    0.0000 H   0  0  0  0  0  0  0  0  0  0  0  0
  1 14  1  0  0  0  0
  1 19  1  0  0  0  0
 16  2  1  1  0  0  0
  2 50  1  0  0  0  0
 17  3  1  6  0  0  0
  3 52  1  0  0  0  0
 18  4  1  1  0  0  0
  4 56  1  0  0  0  0
  5 32  1  0  0  0  0
  5 34  1  0  0  0  0
 32  6  1  6  0  0  0
  6 37  1  0  0  0  0
  7 24  1  0  0  0  0
  7 64  1  0  0  0  0
  8 26  2  0  0  0  0
 29  9  1  1  0  0  0
  9 68  1  0  0  0  0
 30 10  1  1  0  0  0
 10 69  1  0  0  0  0
 31 11  1  6  0  0  0
 11 70  1  0  0  0  0
 12 33  1  0  0  0  0
 12 71  1  0  0  0  0
 13 35  1  0  0  0  0
 13 72  1  0  0  0  0
 14 15  1  0  0  0  0
 14 16  1  0  0  0  0
 14 41  1  1  0  0  0
 15 20  1  0  0  0  0
 15 21  1  0  0  0  0
 15 42  1  6  0  0  0
 16 17  1  0  0  0  0
 16 43  1  0  0  0  0
 17 18  1  0  0  0  0
 17 44  1  0  0  0  0
 18 19  1  0  0  0  0
 18 45  1  0  0  0  0
 19 24  1  6  0  0  0
 19 46  1  0  0  0  0
 20 22  2  0  0  0  0
 20 25  1  0  0  0  0
 21 23  2  0  0  0  0
 21 27  1  0  0  0  0
 22 26  1  0  0  0  0
 22 33  1  0  0  0  0
 23 26  1  0  0  0  0
 23 35  1  0  0  0  0
 24 47  1  0  0  0  0
 24 48  1  0  0  0  0
 25 28  2  0  0  0  0
 25 49  1  0  0  0  0
 27 38  2  0  0  0  0
 27 51  1  0  0  0  0
 28 36  1  0  0  0  0
 28 37  1  0  0  0  0
 29 30  1  0  0  0  0
 29 31  1  0  0  0  0
 29 53  1  0  0  0  0
 30 32  1  0  0  0  0
 30 54  1  0  0  0  0
 31 34  1  0  0  0  0
 31 55  1  0  0  0  0
 32 57  1  0  0  0  0
 33 36  2  0  0  0  0
 34 40  1  1  0  0  0
 34 58  1  0  0  0  0
 35 39  2  0  0  0  0
 36 59  1  0  0  0  0
 37 60  1  0  0  0  0
 37 61  1  0  0  0  0
 38 39  1  0  0  0  0
 38 62  1  0  0  0  0
 39 63  1  0  0  0  0
 40 65  1  0  0  0  0
 40 66  1  0  0  0  0
 40 67  1  0  0  0  0
M  END
> <PUBCHEM_COMPOUND_CID>
46173998

> <PUBCHEM_COMPOUND_CANONICALIZED>
1

> <PUBCHEM_CACTVS_COMPLEXITY>
891

> <PUBCHEM_CACTVS_HBOND_ACCEPTOR>
13

> <PUBCHEM_CACTVS_HBOND_DONOR>
9

> <PUBCHEM_CACTVS_ROTATABLE_BOND>
5

> <PUBCHEM_CACTVS_SUBSKEYS>
AAADcfB4PAAAAAAAAAAAAAAAAAAAAAAAAAA0aMECAAAAAADBQAAAGgAACAAADRSwmAMyDoAABgCIAqBSAAACAAAkIAAIiAEGCMgZNjaCNRqicUAl4BEPuQfI7PzOwAADAAAYAACAAAYAADAAAAAAAAAAAA==

> <PUBCHEM_IUPAC_OPENEYE_NAME>
(10R)-1,8-dihydroxy-10-[(2S,3R,4R,5S,6R)-3,4,5-trihydroxy-6-(hydroxymethyl)tetrahydropyran-2-yl]-3-[[(2R,3R,4R,5R,6S)-3,4,5-trihydroxy-6-methyl-tetrahydropyran-2-yl]oxymethyl]-10H-anthracen-9-one

> <PUBCHEM_IUPAC_CAS_NAME>
(10R)-1,8-dihydroxy-10-[(2S,3R,4R,5S,6R)-3,4,5-trihydroxy-6-(hydroxymethyl)-2-oxanyl]-3-[[(2R,3R,4R,5R,6S)-3,4,5-trihydroxy-6-methyl-2-oxanyl]oxymethyl]-10H-anthracen-9-one

> <PUBCHEM_IUPAC_NAME>
(10R)-1,8-dihydroxy-10-[(2S,3R,4R,5S,6R)-3,4,5-trihydroxy-6-(hydroxymethyl)oxan-2-yl]-3-[[(2R,3R,4R,5R,6S)-3,4,5-trihydroxy-6-methyloxan-2-yl]oxymethyl]-10H-anthracen-9-one

> <PUBCHEM_IUPAC_SYSTEMATIC_NAME>
(10R)-10-[(2S,3R,4R,5S,6R)-6-(hydroxymethyl)-3,4,5-tris(oxidanyl)oxan-2-yl]-3-[[(2R,3R,4R,5R,6S)-6-methyl-3,4,5-tris(oxidanyl)oxan-2-yl]oxymethyl]-1,8-bis(oxidanyl)-10H-anthracen-9-one

> <PUBCHEM_IUPAC_TRADITIONAL_NAME>
(10R)-1,8-dihydroxy-10-[(2S,3R,4R,5S,6R)-3,4,5-trihydroxy-6-methylol-tetrahydropyran-2-yl]-3-[[(2R,3R,4R,5R,6S)-3,4,5-trihydroxy-6-methyl-tetrahydropyran-2-yl]oxymethyl]-10H-anthracen-9-one

> <PUBCHEM_IUPAC_INCHI>
InChI=1S/C27H32O13/c1-9-19(31)22(34)25(37)27(39-9)38-8-10-5-12-16(26-24(36)23(35)20(32)15(7-28)40-26)11-3-2-4-13(29)17(11)21(33)18(12)14(30)6-10/h2-6,9,15-16,19-20,22-32,34-37H,7-8H2,1H3/t9-,15+,16+,19-,20+,22+,23-,24+,25+,26-,27+/m0/s1

> <PUBCHEM_IUPAC_INCHIKEY>
BUPDVJFRVYWYEV-SGAFVUFDSA-N

> <PUBCHEM_XLOGP3_AA>
-1.2

> <PUBCHEM_EXACT_MASS>
564.184291

> <PUBCHEM_MOLECULAR_FORMULA>
C27H32O13

> <PUBCHEM_MOLECULAR_WEIGHT>
564.53518

> <PUBCHEM_OPENEYE_CAN_SMILES>
CC1C(C(C(C(O1)OCC2=CC(=C3C(=C2)C(C4=C(C3=O)C(=CC=C4)O)C5C(C(C(C(O5)CO)O)O)O)O)O)O)O

> <PUBCHEM_OPENEYE_ISO_SMILES>
C[C@H]1[C@@H]([C@H]([C@H]([C@@H](O1)OCC2=CC(=C3C(=C2)[C@@H](C4=C(C3=O)C(=CC=C4)O)[C@H]5[C@@H]([C@H]([C@@H]([C@H](O5)CO)O)O)O)O)O)O)O

> <PUBCHEM_CACTVS_TPSA>
227

> <PUBCHEM_MONOISOTOPIC_WEIGHT>
564.184291

> <PUBCHEM_TOTAL_CHARGE>
0

> <PUBCHEM_HEAVY_ATOM_COUNT>
40

> <PUBCHEM_ATOM_DEF_STEREO_COUNT>
11

> <PUBCHEM_ATOM_UDEF_STEREO_COUNT>
0

> <PUBCHEM_BOND_DEF_STEREO_COUNT>
0

> <PUBCHEM_BOND_UDEF_STEREO_COUNT>
0

> <PUBCHEM_ISOTOPIC_ATOM_COUNT>
0

> <PUBCHEM_COMPONENT_COUNT>
1

> <PUBCHEM_CACTVS_TAUTO_COUNT>
89

> <PUBCHEM_COORDINATE_TYPE>
1
5
255

> <PUBCHEM_BONDANNOTATIONS>
30  10  5
31  11  6
14  41  5
15  42  6
19  24  6
16  2  5
20  22  8
20  25  8
21  23  8
21  27  8
22  33  8
23  35  8
25  28  8
27  38  8
28  36  8
17  3  6
33  36  8
34  40  5
35  39  8
38  39  8
18  4  5
32  6  6
29  9  5

$$$$

