11953827
  -OEChem-07051212482D

 56 58  0     1  0  0  0  0  0999 V2000
   10.2886    1.3056    0.0000 O   0  0  0  0  0  0  0  0  0  0  0  0
    8.6423    1.8437    0.0000 N   0  0  0  0  0  0  0  0  0  0  0  0
    7.0424   -0.2636    0.0000 N   0  0  0  0  0  0  0  0  0  0  0  0
    7.3996   -3.5678    0.0000 N   0  0  0  0  0  0  0  0  0  0  0  0
    8.9995    0.1489    0.0000 N   0  0  0  0  0  0  0  0  0  0  0  0
    4.0604    1.7631    0.0000 N   0  0  0  0  0  0  0  0  0  0  0  0
    2.4141    2.3012    0.0000 N   0  0  0  0  0  0  0  0  0  0  0  0
    3.7032    3.4579    0.0000 N   0  0  0  0  0  0  0  0  0  0  0  0
    9.9314    3.0004    0.0000 C   0  0  1  0  0  0  0  0  0  0  0  0
    6.6853    1.4313    0.0000 C   0  0  0  0  0  0  0  0  0  0  0  0
    7.3531    0.6870    0.0000 C   0  0  0  0  0  0  0  0  0  0  0  0
   10.9100    3.2066    0.0000 C   0  0  0  0  0  0  0  0  0  0  0  0
    7.3996   -1.9584    0.0000 C   0  0  0  0  0  0  0  0  0  0  0  0
    8.3316    0.8932    0.0000 C   0  0  0  0  0  0  0  0  0  0  0  0
    6.4534   -2.2631    0.0000 C   0  0  0  0  0  0  0  0  0  0  0  0
    5.7068    1.2250    0.0000 C   0  0  0  0  0  0  0  0  0  0  0  0
    7.7103   -1.0079    0.0000 C   0  0  0  0  0  0  0  0  0  0  0  0
    9.6208    2.0499    0.0000 C   0  0  0  0  0  0  0  0  0  0  0  0
    6.4534   -3.2631    0.0000 C   0  0  0  0  0  0  0  0  0  0  0  0
    9.2636    3.7447    0.0000 C   0  0  0  0  0  0  0  0  0  0  0  0
    7.9832   -2.7631    0.0000 C   0  0  0  0  0  0  0  0  0  0  0  0
    5.0389    1.9693    0.0000 C   0  0  0  0  0  0  0  0  0  0  0  0
    8.6888   -0.8016    0.0000 C   0  0  0  0  0  0  0  0  0  0  0  0
   11.2206    4.1572    0.0000 C   0  0  0  0  0  0  0  0  0  0  0  0
    5.5874   -1.7631    0.0000 C   0  0  0  0  0  0  0  0  0  0  0  0
    5.5874   -3.7631    0.0000 C   0  0  0  0  0  0  0  0  0  0  0  0
    4.7214   -2.2631    0.0000 C   0  0  0  0  0  0  0  0  0  0  0  0
    4.7214   -3.2631    0.0000 C   0  0  0  0  0  0  0  0  0  0  0  0
    3.3926    2.5074    0.0000 C   0  0  0  0  0  0  0  0  0  0  0  0
   10.1241    3.5898    0.0000 H   0  0  0  0  0  0  0  0  0  0  0  0
    7.2116    1.7589    0.0000 H   0  0  0  0  0  0  0  0  0  0  0  0
    6.4540    2.0065    0.0000 H   0  0  0  0  0  0  0  0  0  0  0  0
   10.9305    2.5870    0.0000 H   0  0  0  0  0  0  0  0  0  0  0  0
   11.5238    3.1193    0.0000 H   0  0  0  0  0  0  0  0  0  0  0  0
    5.1804    0.8974    0.0000 H   0  0  0  0  0  0  0  0  0  0  0  0
    5.9380    0.6498    0.0000 H   0  0  0  0  0  0  0  0  0  0  0  0
    8.2282    2.3052    0.0000 H   0  0  0  0  0  0  0  0  0  0  0  0
    9.7251    4.1588    0.0000 H   0  0  0  0  0  0  0  0  0  0  0  0
    8.8495    4.2062    0.0000 H   0  0  0  0  0  0  0  0  0  0  0  0
    8.8021    3.3307    0.0000 H   0  0  0  0  0  0  0  0  0  0  0  0
    8.6032   -2.7631    0.0000 H   0  0  0  0  0  0  0  0  0  0  0  0
    7.5922   -4.1572    0.0000 H   0  0  0  0  0  0  0  0  0  0  0  0
    5.5653    2.2970    0.0000 H   0  0  0  0  0  0  0  0  0  0  0  0
    4.8077    2.5446    0.0000 H   0  0  0  0  0  0  0  0  0  0  0  0
    9.1029   -1.2631    0.0000 H   0  0  0  0  0  0  0  0  0  0  0  0
   11.8099    3.9646    0.0000 H   0  0  0  0  0  0  0  0  0  0  0  0
   11.4132    4.7465    0.0000 H   0  0  0  0  0  0  0  0  0  0  0  0
   10.6313    4.3498    0.0000 H   0  0  0  0  0  0  0  0  0  0  0  0
    5.5874   -1.1431    0.0000 H   0  0  0  0  0  0  0  0  0  0  0  0
    5.5874   -4.3831    0.0000 H   0  0  0  0  0  0  0  0  0  0  0  0
    4.1844   -1.9531    0.0000 H   0  0  0  0  0  0  0  0  0  0  0  0
    4.1844   -3.5731    0.0000 H   0  0  0  0  0  0  0  0  0  0  0  0
    3.2892    3.9194    0.0000 H   0  0  0  0  0  0  0  0  0  0  0  0
    2.0000    2.7627    0.0000 H   0  0  0  0  0  0  0  0  0  0  0  0
    2.2214    1.7119    0.0000 H   0  0  0  0  0  0  0  0  0  0  0  0
    4.3099    3.5858    0.0000 H   0  0  0  0  0  0  0  0  0  0  0  0
  1 18  2  0  0  0  0
  2 14  1  0  0  0  0
  2 18  1  0  0  0  0
  2 37  1  0  0  0  0
  3 11  2  0  0  0  0
  3 17  1  0  0  0  0
  4 19  1  0  0  0  0
  4 21  1  0  0  0  0
  4 42  1  0  0  0  0
  5 14  2  0  0  0  0
  5 23  1  0  0  0  0
  6 22  1  0  0  0  0
  6 29  2  0  0  0  0
  7 29  1  0  0  0  0
  7 54  1  0  0  0  0
  7 55  1  0  0  0  0
  8 29  1  0  0  0  0
  8 53  1  0  0  0  0
  8 56  1  0  0  0  0
  9 12  1  0  0  0  0
  9 18  1  0  0  0  0
  9 20  1  1  0  0  0
  9 30  1  0  0  0  0
 10 11  1  0  0  0  0
 10 16  1  0  0  0  0
 10 31  1  0  0  0  0
 10 32  1  0  0  0  0
 11 14  1  0  0  0  0
 12 24  1  0  0  0  0
 12 33  1  0  0  0  0
 12 34  1  0  0  0  0
 13 15  1  0  0  0  0
 13 17  1  0  0  0  0
 13 21  2  0  0  0  0
 15 19  1  0  0  0  0
 15 25  2  0  0  0  0
 16 22  1  0  0  0  0
 16 35  1  0  0  0  0
 16 36  1  0  0  0  0
 17 23  2  0  0  0  0
 19 26  2  0  0  0  0
 20 38  1  0  0  0  0
 20 39  1  0  0  0  0
 20 40  1  0  0  0  0
 21 41  1  0  0  0  0
 22 43  1  0  0  0  0
 22 44  1  0  0  0  0
 23 45  1  0  0  0  0
 24 46  1  0  0  0  0
 24 47  1  0  0  0  0
 24 48  1  0  0  0  0
 25 27  1  0  0  0  0
 25 49  1  0  0  0  0
 26 28  1  0  0  0  0
 26 50  1  0  0  0  0
 27 28  2  0  0  0  0
 27 51  1  0  0  0  0
 28 52  1  0  0  0  0
M  END
> <PUBCHEM_COMPOUND_CID>
11953827

> <PUBCHEM_COMPOUND_CANONICALIZED>
1

> <PUBCHEM_CACTVS_COMPLEXITY>
565

> <PUBCHEM_CACTVS_HBOND_ACCEPTOR>
4

> <PUBCHEM_CACTVS_HBOND_DONOR>
4

> <PUBCHEM_CACTVS_ROTATABLE_BOND>
8

> <PUBCHEM_CACTVS_SUBSKEYS>
AAADceB7oAAAAAAAAAAAAAAAAAAAAWAAAAA8QAAAAAAAAFgB/AAAHgAQAAAADQjBngQ/8PLJkACoAzd3dACCgC0xEiAJ2aE4dJiIYPLA2ZGUIAholQLIyCcQgMAOgAAAAAACAAAAAAAAAAQAAAAAAAAAAA==

> <PUBCHEM_IUPAC_OPENEYE_NAME>
(2S)-N-[3-(3-guanidinopropyl)-5-(1H-indol-3-yl)pyrazin-2-yl]-2-methyl-butanamide

> <PUBCHEM_IUPAC_CAS_NAME>
(2S)-N-[3-[3-(diaminomethylideneamino)propyl]-5-(1H-indol-3-yl)-2-pyrazinyl]-2-methylbutanamide

> <PUBCHEM_IUPAC_NAME>
(2S)-N-[3-[3-(diaminomethylideneamino)propyl]-5-(1H-indol-3-yl)pyrazin-2-yl]-2-methylbutanamide

> <PUBCHEM_IUPAC_SYSTEMATIC_NAME>
(2S)-N-[3-[3-[bis(azanyl)methylideneamino]propyl]-5-(1H-indol-3-yl)pyrazin-2-yl]-2-methyl-butanamide

> <PUBCHEM_IUPAC_TRADITIONAL_NAME>
(2S)-N-[3-(3-guanidinopropyl)-5-(1H-indol-3-yl)pyrazin-2-yl]-2-methyl-butyramide

> <PUBCHEM_IUPAC_INCHI>
InChI=1S/C21H27N7O/c1-3-13(2)20(29)28-19-17(9-6-10-24-21(22)23)27-18(12-26-19)15-11-25-16-8-5-4-7-14(15)16/h4-5,7-8,11-13,25H,3,6,9-10H2,1-2H3,(H4,22,23,24)(H,26,28,29)/t13-/m0/s1

> <PUBCHEM_IUPAC_INCHIKEY>
PSYJEEMZZIZTSR-ZDUSSCGKSA-N

> <PUBCHEM_XLOGP3_AA>
1.6

> <PUBCHEM_EXACT_MASS>
393.227709

> <PUBCHEM_MOLECULAR_FORMULA>
C21H27N7O

> <PUBCHEM_MOLECULAR_WEIGHT>
393.48538

> <PUBCHEM_OPENEYE_CAN_SMILES>
CCC(C)C(=O)NC1=NC=C(N=C1CCCN=C(N)N)C2=CNC3=CC=CC=C32

> <PUBCHEM_OPENEYE_ISO_SMILES>
CC[C@H](C)C(=O)NC1=NC=C(N=C1CCCN=C(N)N)C2=CNC3=CC=CC=C32

> <PUBCHEM_CACTVS_TPSA>
135

> <PUBCHEM_MONOISOTOPIC_WEIGHT>
393.227709

> <PUBCHEM_TOTAL_CHARGE>
0

> <PUBCHEM_HEAVY_ATOM_COUNT>
29

> <PUBCHEM_ATOM_DEF_STEREO_COUNT>
1

> <PUBCHEM_ATOM_UDEF_STEREO_COUNT>
0

> <PUBCHEM_BOND_DEF_STEREO_COUNT>
0

> <PUBCHEM_BOND_UDEF_STEREO_COUNT>
0

> <PUBCHEM_ISOTOPIC_ATOM_COUNT>
0

> <PUBCHEM_COMPONENT_COUNT>
1

> <PUBCHEM_CACTVS_TAUTO_COUNT>
70

> <PUBCHEM_COORDINATE_TYPE>
1
5
255

> <PUBCHEM_BONDANNOTATIONS>
11  14  8
13  15  8
13  21  8
15  19  8
15  25  8
17  23  8
19  26  8
25  27  8
26  28  8
27  28  8
3  11  8
3  17  8
4  19  8
4  21  8
5  14  8
5  23  8
9  20  5

$$$$

