443455
  -OEChem-07051213022D

 52 55  0     1  0  0  0  0  0999 V2000
    2.6198   -2.2018    0.0000 O   0  0  0  0  0  0  0  0  0  0  0  0
    7.3668   -0.7181    0.0000 O   0  0  0  0  0  0  0  0  0  0  0  0
    2.5385    0.7440    0.0000 O   0  0  0  0  0  0  0  0  0  0  0  0
    6.1677   -1.9679    0.0000 O   0  0  0  0  0  0  0  0  0  0  0  0
    3.2846   -2.8554    0.0000 O   0  0  0  0  0  0  0  0  0  0  0  0
    5.0164   -2.8857    0.0000 O   0  0  0  0  0  0  0  0  0  0  0  0
    5.8209    0.6802    0.0000 C   0  0  1  0  0  0  0  0  0  0  0  0
    4.9199    1.1141    0.0000 C   0  0  2  0  0  0  0  0  0  0  0  0
    4.2348    0.3938    0.0000 C   0  0  1  0  0  0  0  0  0  0  0  0
    4.7066   -0.4812    0.0000 C   0  0  2  0  0  0  0  0  0  0  0  0
    5.6849   -0.3045    0.0000 C   0  0  2  0  0  0  0  0  0  0  0  0
    5.7140    1.8570    0.0000 C   0  0  0  0  0  0  0  0  0  0  0  0
    6.7218    1.1141    0.0000 C   0  0  0  0  0  0  0  0  0  0  0  0
    4.1767   -1.3708    0.0000 C   0  0  2  0  0  0  0  0  0  0  0  0
    6.3209    2.8708    0.0000 C   0  0  1  0  0  0  0  0  0  0  0  0
    4.6974    2.0890    0.0000 C   0  0  0  0  0  0  0  0  0  0  0  0
    3.2003    0.4398    0.0000 C   0  0  0  0  0  0  0  0  0  0  0  0
    5.3209    2.8708    0.0000 C   0  0  0  0  0  0  0  0  0  0  0  0
    6.9444    2.0890    0.0000 C   0  0  0  0  0  0  0  0  0  0  0  0
    3.1415   -1.3487    0.0000 C   0  0  2  0  0  0  0  0  0  0  0  0
    2.6500   -0.4373    0.0000 C   0  0  0  0  0  0  0  0  0  0  0  0
    3.4877    1.0586    0.0000 C   0  0  0  0  0  0  0  0  0  0  0  0
    6.4065   -0.9968    0.0000 C   0  0  0  0  0  0  0  0  0  0  0  0
    5.0338   -1.8858    0.0000 C   0  0  0  0  0  0  0  0  0  0  0  0
    4.1592   -2.3706    0.0000 C   0  0  0  0  0  0  0  0  0  0  0  0
    7.9193    2.3115    0.0000 C   0  0  0  0  0  0  0  0  0  0  0  0
    4.1541    1.4829    0.0000 H   0  0  0  0  0  0  0  0  0  0  0  0
    5.1908   -1.1798    0.0000 H   0  0  0  0  0  0  0  0  0  0  0  0
    6.2705   -0.1010    0.0000 H   0  0  0  0  0  0  0  0  0  0  0  0
    5.3062    2.3240    0.0000 H   0  0  0  0  0  0  0  0  0  0  0  0
    5.1440    1.6132    0.0000 H   0  0  0  0  0  0  0  0  0  0  0  0
    6.8598    0.5096    0.0000 H   0  0  0  0  0  0  0  0  0  0  0  0
    7.3418    1.1141    0.0000 H   0  0  0  0  0  0  0  0  0  0  0  0
    6.5100    3.6995    0.0000 H   0  0  0  0  0  0  0  0  0  0  0  0
    4.3108    2.5738    0.0000 H   0  0  0  0  0  0  0  0  0  0  0  0
    4.1388    1.8200    0.0000 H   0  0  0  0  0  0  0  0  0  0  0  0
    3.3335    1.0454    0.0000 H   0  0  0  0  0  0  0  0  0  0  0  0
    2.6265    0.6746    0.0000 H   0  0  0  0  0  0  0  0  0  0  0  0
    5.4588    3.4753    0.0000 H   0  0  0  0  0  0  0  0  0  0  0  0
    4.7623    3.1399    0.0000 H   0  0  0  0  0  0  0  0  0  0  0  0
    3.4389   -1.8927    0.0000 H   0  0  0  0  0  0  0  0  0  0  0  0
    2.1890   -0.0227    0.0000 H   0  0  0  0  0  0  0  0  0  0  0  0
    2.1627   -0.8206    0.0000 H   0  0  0  0  0  0  0  0  0  0  0  0
    3.6131    1.6658    0.0000 H   0  0  0  0  0  0  0  0  0  0  0  0
    4.7145   -2.4173    0.0000 H   0  0  0  0  0  0  0  0  0  0  0  0
    5.5653   -2.2052    0.0000 H   0  0  0  0  0  0  0  0  0  0  0  0
    5.3532   -1.3544    0.0000 H   0  0  0  0  0  0  0  0  0  0  0  0
    8.3410    1.8570    0.0000 H   0  0  0  0  0  0  0  0  0  0  0  0
    8.1020    2.9040    0.0000 H   0  0  0  0  0  0  0  0  0  0  0  0
    2.0000   -2.1862    0.0000 H   0  0  0  0  0  0  0  0  0  0  0  0
    7.8142   -1.1473    0.0000 H   0  0  0  0  0  0  0  0  0  0  0  0
    3.2737   -3.4753    0.0000 H   0  0  0  0  0  0  0  0  0  0  0  0
 20  1  1  1  0  0  0
  1 50  1  0  0  0  0
  2 23  1  0  0  0  0
  2 51  1  0  0  0  0
  3 22  2  0  0  0  0
  4 23  2  0  0  0  0
  5 25  1  0  0  0  0
  5 52  1  0  0  0  0
  6 25  2  0  0  0  0
  7  8  1  0  0  0  0
  7 11  1  0  0  0  0
  7 12  1  6  0  0  0
  7 13  1  0  0  0  0
  8  9  1  0  0  0  0
  8 16  1  0  0  0  0
  8 27  1  1  0  0  0
  9 10  1  0  0  0  0
  9 17  1  0  0  0  0
  9 22  1  6  0  0  0
 10 11  1  0  0  0  0
 10 14  1  0  0  0  0
 10 28  1  1  0  0  0
 11 23  1  1  0  0  0
 11 29  1  0  0  0  0
 12 15  1  0  0  0  0
 12 30  1  0  0  0  0
 12 31  1  0  0  0  0
 13 19  1  0  0  0  0
 13 32  1  0  0  0  0
 13 33  1  0  0  0  0
 14 20  1  0  0  0  0
 14 24  1  1  0  0  0
 14 25  1  0  0  0  0
 15 18  1  0  0  0  0
 15 19  1  0  0  0  0
 15 34  1  6  0  0  0
 16 18  1  0  0  0  0
 16 35  1  0  0  0  0
 16 36  1  0  0  0  0
 17 21  1  0  0  0  0
 17 37  1  0  0  0  0
 17 38  1  0  0  0  0
 18 39  1  0  0  0  0
 18 40  1  0  0  0  0
 19 26  2  0  0  0  0
 20 21  1  0  0  0  0
 20 41  1  0  0  0  0
 21 42  1  0  0  0  0
 21 43  1  0  0  0  0
 22 44  1  0  0  0  0
 24 45  1  0  0  0  0
 24 46  1  0  0  0  0
 24 47  1  0  0  0  0
 26 48  1  0  0  0  0
 26 49  1  0  0  0  0
M  END
> <PUBCHEM_COMPOUND_CID>
443455

> <PUBCHEM_COMPOUND_CANONICALIZED>
1

> <PUBCHEM_CACTVS_COMPLEXITY>
715

> <PUBCHEM_CACTVS_HBOND_ACCEPTOR>
6

> <PUBCHEM_CACTVS_HBOND_DONOR>
3

> <PUBCHEM_CACTVS_ROTATABLE_BOND>
3

> <PUBCHEM_CACTVS_SUBSKEYS>
AAADceB4OAAAAAAAAAAAAAAAAAAAAYMAAAAwYAAABgAAAGDAAAAAGgAACAAADxSggAICCAAAAgCIAgjSiAAAAAAgAAAAAAEAAAgAEBYAAQAAQAAFoAAAAAGI7vTPgAAAAAAAAADAAAYAADAAAQAACAAAAA==

> <PUBCHEM_IUPAC_INCHI>
InChI=1S/C20H26O6/c1-10-7-20-8-11(10)3-4-12(20)19(9-21)6-5-13(22)18(2,17(25)26)15(19)14(20)16(23)24/h9,11-15,22H,1,3-8H2,2H3,(H,23,24)(H,25,26)/t11-,12+,13+,14-,15-,18-,19-,20+/m1/s1

> <PUBCHEM_IUPAC_INCHIKEY>
JZBLVVPDEDCVQA-SQLMURCQSA-N

> <PUBCHEM_XLOGP3_AA>
1.7

> <PUBCHEM_EXACT_MASS>
362.172939

> <PUBCHEM_MOLECULAR_FORMULA>
C20H26O6

> <PUBCHEM_MOLECULAR_WEIGHT>
362.41684

> <PUBCHEM_OPENEYE_CAN_SMILES>
CC1(C(CCC2(C1C(C34C2CCC(C3)C(=C)C4)C(=O)O)C=O)O)C(=O)O

> <PUBCHEM_OPENEYE_ISO_SMILES>
C[C@]1([C@H](CC[C@@]2([C@@H]1[C@@H]([C@]34[C@H]2CC[C@H](C3)C(=C)C4)C(=O)O)C=O)O)C(=O)O

> <PUBCHEM_CACTVS_TPSA>
112

> <PUBCHEM_MONOISOTOPIC_WEIGHT>
362.172939

> <PUBCHEM_TOTAL_CHARGE>
0

> <PUBCHEM_HEAVY_ATOM_COUNT>
26

> <PUBCHEM_ATOM_DEF_STEREO_COUNT>
8

> <PUBCHEM_ATOM_UDEF_STEREO_COUNT>
0

> <PUBCHEM_BOND_DEF_STEREO_COUNT>
0

> <PUBCHEM_BOND_UDEF_STEREO_COUNT>
0

> <PUBCHEM_ISOTOPIC_ATOM_COUNT>
0

> <PUBCHEM_COMPONENT_COUNT>
1

> <PUBCHEM_CACTVS_TAUTO_COUNT>
1

> <PUBCHEM_COORDINATE_TYPE>
1
5
255

> <PUBCHEM_BONDANNOTATIONS>
20  1  5
10  28  5
11  23  5
14  24  5
15  34  6
7  12  6
8  27  5
9  22  6

$$$$

