   Color/Form
        Orthorhombic bisphenoidal crystals
   from [1]HSDB

   Melting Point
        234-235 deg C
   from [2]HSDB

   Density/Specific Gravity
        1.543 g/cu cm at 15/4 deg C
   from [3]HSDB

   Dissociation Constants
        pKa1 = 2.02; pKa2 = 8.80
   from [4]HSDB

   Octanol/Water Partition Coefficient
        log Kow = -3.82
   from [5]HSDB

   Solubilities

     * Practically insoluble in methanol, ethanol, ether, benzene. Soluble
       in acids and alkalies
     * In water, 2.94X10+4 mg/L at 25 deg C

   from [6]HSDB

   Vapor Pressure
        4.8X10-8 mm Hg at 25 deg C (est)
   from [7]HSDB

   Other Chemical/Physical Properties

     * White crystals /L(-) Asparagine monohydrate/
     * Neutral taste /L-isomer/
     * Specific optical rotation: -5.3 at 20 deg C (c= 1.3 mg/L); +34.26
       at 20 deg C (c= 2.24 mg/L in 3.4N Hcl); -635 at 20 deg C (c= 11.23
       mg/L in 2.5N NaOH) /L-asparagine/
     * Sweet taste /D-isomer/
     * Specific optical rotation: +5.41 at 20 deg C (c= 1.3 mg/L)
       /D-asparagine/
     * Henry's Law constant = 2.3X10-16 atm cu m/mol at 25 deg C (est)
     * Hydroxyl radical reaction rate constant = 7.7X10-11 cu cm/molec-sec
       at 25 deg C (est)

   from [8]HSDB

   Computed Properties
   Molecular Weight                  132.11792 [g/mol]
   Molecular Formula                 C[4]H[8]N[2]O[3]
   XLogP3                            -3.4
   H-Bond Donor                      3
   H-Bond Acceptor                   4
   Rotatable Bond Count              3
   Tautomer Count                    3
   Exact Mass                        132.053492
   MonoIsotopic Mass                 132.053492
   Topological Polar Surface Area    106
   Heavy Atom Count                  9
   Formal Charge                     0
   Complexity                        134
   Isotope Atom Count                0
   Defined Atom Stereocenter Count   1
   Undefined Atom Stereocenter Count 0
   Defined Bond Stereocenter Count   0
   Undefined Bond Stereocenter Count 0
   Covalently-Bonded Unit Count      1
   Feature 3D Acceptor Count         3
   Feature 3D Donor Count            2
   Feature 3D Anion Count            1
   Feature 3D Cation Count           1
   Effective Rotor Count             3
   Conformer Sampling RMSD           0.6
   CID Conformer Count               [9]18

References

   1. http://toxnet.nlm.nih.gov/cgi-bin/sis/search/r?dbs+hsdb:@term+@rn+@rel+70-47-3
   2. http://toxnet.nlm.nih.gov/cgi-bin/sis/search/r?dbs+hsdb:@term+@rn+@rel+70-47-3
   3. http://toxnet.nlm.nih.gov/cgi-bin/sis/search/r?dbs+hsdb:@term+@rn+@rel+70-47-3
   4. http://toxnet.nlm.nih.gov/cgi-bin/sis/search/r?dbs+hsdb:@term+@rn+@rel+70-47-3
   5. http://toxnet.nlm.nih.gov/cgi-bin/sis/search/r?dbs+hsdb:@term+@rn+@rel+70-47-3
   6. http://toxnet.nlm.nih.gov/cgi-bin/sis/search/r?dbs+hsdb:@term+@rn+@rel+70-47-3
   7. http://toxnet.nlm.nih.gov/cgi-bin/sis/search/r?dbs+hsdb:@term+@rn+@rel+70-47-3
   8. http://toxnet.nlm.nih.gov/cgi-bin/sis/search/r?dbs+hsdb:@term+@rn+@rel+70-47-3
   9. http://pubchem.ncbi.nlm.nih.gov/vw3d/vw3d.cgi?cid=6267
