   Color/Form
        COLORLESS CRYSTALS
   from [1]HSDB

   Odor
        LITTLE OR NO ODOR
   from [2]HSDB

   Melting Point
        FP: 164-166 DEG C
   from [3]HSDB

   Dissociation Constants
        pKa=3.8
   from [4]HSDB

   Solubilities

     * LOW SOLUBILITY IN WATER & ORG SOLVENTS
     * GENERALLY SOL TO ABOUT 10-20% IN HYDROXYLIC SOLVENTS
     * AT ROOM TEMP: 200 G/KG 2-ETHOXYETHANOL, 250 G/KG 2-METHOXYETHANOL,
       150 G/KG TETRAHYDROFURFURYL ALCOHOL, 100 G/KG ETHYLENE GLYCOL
     * In water, 240 mg/l at 20 deg C

   from [5]HSDB

   Spectral Properties

     * Max absorption (ethanol): 208 nm, 260 nm
     * Intense mass spectral peaks: 156 m/z (100%), 43 m/z (25%), 125 m/z
       (24%), 93 m/z (20%)

   from [6]HSDB

   Vapor Pressure
        9.75X10-7 mm Hg at 25 deg C
   from [7]HSDB

   Other Chemical/Physical Properties

     * DECOMP 160-162 DEG C
     * It is decomp by strong acids and lyes
     * FORMS CRYSTALLINE PICRATE, HYDROCHLORIDE & DIHYDROGEN CITRATE
     * MERCAPTAN-LIKE ODOR /TECHNICAL PRODUCT/

   from [8]HSDB

   Computed Properties
   Molecular Weight                  281.295542 [g/mol]
   Molecular Formula                 C[6]H[12]N[5]O[2]PS[2]
   XLogP3-AA                         0.5
   H-Bond Donor                      2
   H-Bond Acceptor                   9
   Rotatable Bond Count              5
   Tautomer Count                    5
   Exact Mass                        281.017003
   MonoIsotopic Mass                 281.017003
   Topological Polar Surface Area    167
   Heavy Atom Count                  16
   Formal Charge                     0
   Complexity                        253
   Isotope Atom Count                0
   Defined Atom Stereocenter Count   0
   Undefined Atom Stereocenter Count 0
   Defined Bond Stereocenter Count   0
   Undefined Bond Stereocenter Count 0
   Covalently-Bonded Unit Count      1
   Feature 3D Donor Count            2
   Feature 3D Cation Count           2
   Feature 3D Ring Count             1
   Effective Rotor Count             5
   Conformer Sampling RMSD           0.6
   CID Conformer Count               [9]51

References

   1. http://toxnet.nlm.nih.gov/cgi-bin/sis/search/r?dbs+hsdb:@term+@rn+@rel+78-57-9
   2. http://toxnet.nlm.nih.gov/cgi-bin/sis/search/r?dbs+hsdb:@term+@rn+@rel+78-57-9
   3. http://toxnet.nlm.nih.gov/cgi-bin/sis/search/r?dbs+hsdb:@term+@rn+@rel+78-57-9
   4. http://toxnet.nlm.nih.gov/cgi-bin/sis/search/r?dbs+hsdb:@term+@rn+@rel+78-57-9
   5. http://toxnet.nlm.nih.gov/cgi-bin/sis/search/r?dbs+hsdb:@term+@rn+@rel+78-57-9
   6. http://toxnet.nlm.nih.gov/cgi-bin/sis/search/r?dbs+hsdb:@term+@rn+@rel+78-57-9
   7. http://toxnet.nlm.nih.gov/cgi-bin/sis/search/r?dbs+hsdb:@term+@rn+@rel+78-57-9
   8. http://toxnet.nlm.nih.gov/cgi-bin/sis/search/r?dbs+hsdb:@term+@rn+@rel+78-57-9
   9. http://pubchem.ncbi.nlm.nih.gov/vw3d/vw3d.cgi?cid=6543
