   Color/Form

     * Colorless crystals
     * Crystals

   from [1]HSDB

   Melting Point
        256 deg C (decomposes)
   from [2]HSDB

   Dissociation Constants
        pKa1' = 2.63 (SRC: carboxylic acid); pKa2' = 10.43 (SRC: amine)
   from [3]HSDB

   Octanol/Water Partition Coefficient
        log Kow = -2.94
   from [4]HSDB

   Solubilities

     * Insoluble in ethanol, ethyl ether, chloroform
     * Insoluble in common neutral solvents
     * In water, 9.70X10+4 mg/L at 25 deg C

   from [5]HSDB

   Spectral Properties

     * Optically active
     * MASS: 26149 (NIST/EPA/MSDC Mass Spectral Database, 1990 version)
     * 1H NMR: 11978 (Sadtler Research Laboratories spectral collection)
     * Raman: 423 (Sadtler Research Laboratories spectral collection)
     * IR: 21317 (Sadtler Research Laboratories IR grating collection)

   from [6]HSDB

   Vapor Pressure
        1.32X10-8 mm Hg at 25 deg C (est)
   from [7]HSDB

   Other Chemical/Physical Properties

     * Orthorhombic crystals, decomposes at 229-230 deg C /Threonine,
       DL-form hemihydrate/
     * MP: 228-229 deg C with decomposition (dl-threonine); 255-275 deg C
       with decomposition (l(-)-threonine) (naturally occurring); 250-252
       deg C (dl-allo-threonine)
     * IR: 21020 (Coblentz Society Spectral Collection) /Threonine (DL)/
     * UV: 1-34 (Organic Electronic Spectral Data, Phillips et al, John
       Wiley & Sons, New York) /Threonine (DL)/
     * 1H NMR: 8212 (Sadtler Research Laboratories spectral collection)
       /Threonine (DL)/
     * 13C NMR: 87 (Johnson and Jankowski, Carbon-13 NMR Spectra, John
       Wiley & Sons, New York) /Threonine (DL)/
     * MASS: 60 (Aldermaston, Eight Peak Index of Mass Spectra, U.K.)
       /Threonine (DL)/
     * IR: 18771 (Coblentz Society Spectral Collection) /Threonine (D)/
     * MASS: 60 (Aldermaston, Eight Peak Index of Mass Spectra, U.K.)
       /Threonine (D)/
     * Henry's Law constant = 7.24X10-14 atm-cu m/mol at 25 deg C (est)
     * Hydroxyl radical reaction rate constant = 4.68X10-11 cu
       cm/molec-sec at 25 deg C (est)

   from [8]HSDB

   Computed Properties
   Molecular Weight                  119.11916 [g/mol]
   Molecular Formula                 C[4]H[9]NO[3]
   XLogP3                            -2.9
   H-Bond Donor                      3
   H-Bond Acceptor                   4
   Rotatable Bond Count              2
   Exact Mass                        119.058243
   MonoIsotopic Mass                 119.058243
   Topological Polar Surface Area    83.6
   Heavy Atom Count                  8
   Formal Charge                     0
   Complexity                        93.3
   Isotope Atom Count                0
   Defined Atom Stereocenter Count   2
   Undefined Atom Stereocenter Count 0
   Defined Bond Stereocenter Count   0
   Undefined Bond Stereocenter Count 0
   Covalently-Bonded Unit Count      1
   Feature 3D Acceptor Count         3
   Feature 3D Donor Count            2
   Feature 3D Anion Count            1
   Feature 3D Cation Count           1
   Effective Rotor Count             2
   Conformer Sampling RMSD           0.4
   CID Conformer Count               [9]9

References

   1. http://toxnet.nlm.nih.gov/cgi-bin/sis/search/r?dbs+hsdb:@term+@rn+@rel+72-19-5
   2. http://toxnet.nlm.nih.gov/cgi-bin/sis/search/r?dbs+hsdb:@term+@rn+@rel+72-19-5
   3. http://toxnet.nlm.nih.gov/cgi-bin/sis/search/r?dbs+hsdb:@term+@rn+@rel+72-19-5
   4. http://toxnet.nlm.nih.gov/cgi-bin/sis/search/r?dbs+hsdb:@term+@rn+@rel+72-19-5
   5. http://toxnet.nlm.nih.gov/cgi-bin/sis/search/r?dbs+hsdb:@term+@rn+@rel+72-19-5
   6. http://toxnet.nlm.nih.gov/cgi-bin/sis/search/r?dbs+hsdb:@term+@rn+@rel+72-19-5
   7. http://toxnet.nlm.nih.gov/cgi-bin/sis/search/r?dbs+hsdb:@term+@rn+@rel+72-19-5
   8. http://toxnet.nlm.nih.gov/cgi-bin/sis/search/r?dbs+hsdb:@term+@rn+@rel+72-19-5
   9. http://pubchem.ncbi.nlm.nih.gov/vw3d/vw3d.cgi?cid=6288
