5463137
  -OEChem-07051213082D

 20 20  0     0  0  0  0  0  0999 V2000
    4.7962    1.2094    0.0000 O   0  0  0  0  0  0  0  0  0  0  0  0
    6.4712   -0.8784    0.0000 N   0  0  0  0  0  0  0  0  0  0  0  0
    5.1622   -1.8294    0.0000 N   0  0  0  0  0  0  0  0  0  0  0  0
    3.9021   -0.5693    0.0000 N   0  0  0  0  0  0  0  0  0  0  0  0
    3.6942    0.4088    0.0000 N   0  0  0  0  0  0  0  0  0  0  0  0
    2.7431    0.7178    0.0000 N   0  0  0  0  0  0  0  0  0  0  0  0
    6.5282    1.2094    0.0000 N   0  0  0  0  0  0  0  0  0  0  0  0
    5.6622   -0.2906    0.0000 C   0  0  0  0  0  0  0  0  0  0  0  0
    4.8532   -0.8784    0.0000 C   0  0  0  0  0  0  0  0  0  0  0  0
    5.6622    0.7094    0.0000 C   0  0  0  0  0  0  0  0  0  0  0  0
    6.1622   -1.8294    0.0000 C   0  0  0  0  0  0  0  0  0  0  0  0
    2.0000    0.0487    0.0000 C   0  0  0  0  0  0  0  0  0  0  0  0
    6.5266   -2.3310    0.0000 H   0  0  0  0  0  0  0  0  0  0  0  0
    4.1550    0.8237    0.0000 H   0  0  0  0  0  0  0  0  0  0  0  0
    2.6142    1.3243    0.0000 H   0  0  0  0  0  0  0  0  0  0  0  0
    1.5851    0.5094    0.0000 H   0  0  0  0  0  0  0  0  0  0  0  0
    1.5392   -0.3662    0.0000 H   0  0  0  0  0  0  0  0  0  0  0  0
    2.4149   -0.4121    0.0000 H   0  0  0  0  0  0  0  0  0  0  0  0
    6.5282    1.8294    0.0000 H   0  0  0  0  0  0  0  0  0  0  0  0
    7.0652    0.8994    0.0000 H   0  0  0  0  0  0  0  0  0  0  0  0
  1 10  2  0  0  0  0
  2  8  2  0  0  0  0
  2 11  1  0  0  0  0
  3  9  1  0  0  0  0
  3 11  2  0  0  0  0
  4  5  1  0  0  0  0
  4  9  2  0  0  0  0
  5  6  1  0  0  0  0
  5 14  1  0  0  0  0
  6 12  1  0  0  0  0
  6 15  1  0  0  0  0
  7 10  1  0  0  0  0
  7 19  1  0  0  0  0
  7 20  1  0  0  0  0
  8  9  1  0  0  0  0
  8 10  1  0  0  0  0
 11 13  1  0  0  0  0
 12 16  1  0  0  0  0
 12 17  1  0  0  0  0
 12 18  1  0  0  0  0
M  END
> <PUBCHEM_COMPOUND_CID>
5463137

> <PUBCHEM_COMPOUND_CANONICALIZED>
1

> <PUBCHEM_CACTVS_COMPLEXITY>
278

> <PUBCHEM_CACTVS_HBOND_ACCEPTOR>
4

> <PUBCHEM_CACTVS_HBOND_DONOR>
3

> <PUBCHEM_CACTVS_ROTATABLE_BOND>
3

> <PUBCHEM_CACTVS_SUBSKEYS>
AAADccBjoAAAAAAAAAAAAAAAAAAAAQAAAAAAAAAAAAAAAAAAAAAAHgAYAAAACAgBgAQDAAJiAAAoAQMxNAAAAAEAAAIAIIEgAAAAAAgAQAAAAAAAAAAAAAAAAAAAAAAAAAAAAAAAAAAAAAAAAAAAAAAAAA==

> <PUBCHEM_IUPAC_OPENEYE_NAME>
(5E)-5-(methylaminohydrazono)imidazole-4-carboxamide

> <PUBCHEM_IUPAC_CAS_NAME>
(5E)-5-(methylaminohydrazinylidene)-4-imidazolecarboxamide

> <PUBCHEM_IUPAC_NAME>
(5E)-5-(methylaminohydrazinylidene)imidazole-4-carboxamide

> <PUBCHEM_IUPAC_SYSTEMATIC_NAME>
(5E)-5-(methylaminohydrazinylidene)imidazole-4-carboxamide

> <PUBCHEM_IUPAC_TRADITIONAL_NAME>
(5E)-5-(methylaminohydrazono)imidazole-4-carboxamide

> <PUBCHEM_IUPAC_INCHI>
InChI=1S/C5H8N6O/c1-7-11-10-5-3(4(6)12)8-2-9-5/h2,7,11H,1H3,(H2,6,12)/b10-5+

> <PUBCHEM_IUPAC_INCHIKEY>
KNZAVOVKKCNCEG-BJMVGYQFSA-N

> <PUBCHEM_XLOGP3_AA>
-0.7

> <PUBCHEM_EXACT_MASS>
168.075959

> <PUBCHEM_MOLECULAR_FORMULA>
C5H8N6O

> <PUBCHEM_MOLECULAR_WEIGHT>
168.15662

> <PUBCHEM_OPENEYE_CAN_SMILES>
CNNN=C1C(=NC=N1)C(=O)N

> <PUBCHEM_OPENEYE_ISO_SMILES>
CNN/N=C/1\C(=NC=N1)C(=O)N

> <PUBCHEM_CACTVS_TPSA>
104

> <PUBCHEM_MONOISOTOPIC_WEIGHT>
168.075959

> <PUBCHEM_TOTAL_CHARGE>
0

> <PUBCHEM_HEAVY_ATOM_COUNT>
12

> <PUBCHEM_ATOM_DEF_STEREO_COUNT>
0

> <PUBCHEM_ATOM_UDEF_STEREO_COUNT>
0

> <PUBCHEM_BOND_DEF_STEREO_COUNT>
1

> <PUBCHEM_BOND_UDEF_STEREO_COUNT>
0

> <PUBCHEM_ISOTOPIC_ATOM_COUNT>
0

> <PUBCHEM_COMPONENT_COUNT>
1

> <PUBCHEM_CACTVS_TAUTO_COUNT>
22

> <PUBCHEM_COORDINATE_TYPE>
1
5
255

$$$$

