   Color/Form
        Colorless liquid
   from [1]HSDB

   Boiling Point
        187 DEG C @ 760 MM HG
   from [2]HSDB

   Melting Point
        -96.8 TO -101.8 DEG C
   from [3]HSDB

   Density/Specific Gravity
        1.103 @ 20 DEG C/4 DEG C
   from [4]HSDB

   Octanol/Water Partition Coefficient
        log Kow= 2.48
   from [5]HSDB

   Solubilities

     * MISCIBLE IN ORGANIC SOLVENTS
     * MISCIBLE IN ETHYL ALCOHOL, ETHYL ETHER, ACETONE
     * Water solubility of 1700 ppm at 20 deg C.

   from [6]HSDB

   Spectral Properties

     * INDEX OF REFRACTION: 1.4505 @ 20 DEG C/D
     * IR: 10994 (Sadtler Research Laboratories IR Grating Collection)
     * MASS: 1124 (Atlas of Mass Spectral Data, John Wiley & Sons, New
       York)

   from [7]HSDB

   Vapor Density
        5.9 (AIR= 1)
   from [8]HSDB

   Vapor Pressure
        0.56 mm Hg @ 20 deg C
   from [9]HSDB

   Viscosity
        0.0230 POISE @ 20 DEG C
   from [10]HSDB

   Other Chemical/Physical Properties

     * WT/GAL 9.3 LB @ 20 DEG C; COEFFICIENT OF EXPANSION 0.00096 @ 20 DEG
       C
     * PER CENT IN SATURATED AIR: 0.12 @ 25 DEG C, 760 MM HG; DENSITY OF
       SATURATED AIR: 1.05 @ 25 DEG C, 760 MM HG (AIR= 1)
     * Henry's Law constant: 0.00626

   from [11]HSDB

   Computed Properties
   Molecular Weight                  171.06488 [g/mol]
   Molecular Formula                 C[6]H[12]Cl[2]O
   XLogP3-AA                         2.1
   H-Bond Donor                      0
   H-Bond Acceptor                   1
   Rotatable Bond Count              4
   Exact Mass                        170.02652
   MonoIsotopic Mass                 170.02652
   Topological Polar Surface Area    9.2
   Heavy Atom Count                  9
   Formal Charge                     0
   Complexity                        60.1
   Isotope Atom Count                0
   Defined Atom Stereocenter Count   0
   Undefined Atom Stereocenter Count 2
   Defined Bond Stereocenter Count   0
   Undefined Bond Stereocenter Count 0
   Covalently-Bonded Unit Count      1
   Feature 3D Acceptor Count         1
   Effective Rotor Count             4
   Conformer Sampling RMSD           0.6
   CID Conformer Count               [12]66

References

   1. http://toxnet.nlm.nih.gov/cgi-bin/sis/search/r?dbs+hsdb:@term+@rn+@rel+108-60-1
   2. http://toxnet.nlm.nih.gov/cgi-bin/sis/search/r?dbs+hsdb:@term+@rn+@rel+108-60-1
   3. http://toxnet.nlm.nih.gov/cgi-bin/sis/search/r?dbs+hsdb:@term+@rn+@rel+108-60-1
   4. http://toxnet.nlm.nih.gov/cgi-bin/sis/search/r?dbs+hsdb:@term+@rn+@rel+108-60-1
   5. http://toxnet.nlm.nih.gov/cgi-bin/sis/search/r?dbs+hsdb:@term+@rn+@rel+108-60-1
   6. http://toxnet.nlm.nih.gov/cgi-bin/sis/search/r?dbs+hsdb:@term+@rn+@rel+108-60-1
   7. http://toxnet.nlm.nih.gov/cgi-bin/sis/search/r?dbs+hsdb:@term+@rn+@rel+108-60-1
   8. http://toxnet.nlm.nih.gov/cgi-bin/sis/search/r?dbs+hsdb:@term+@rn+@rel+108-60-1
   9. http://toxnet.nlm.nih.gov/cgi-bin/sis/search/r?dbs+hsdb:@term+@rn+@rel+108-60-1
  10. http://toxnet.nlm.nih.gov/cgi-bin/sis/search/r?dbs+hsdb:@term+@rn+@rel+108-60-1
  11. http://toxnet.nlm.nih.gov/cgi-bin/sis/search/r?dbs+hsdb:@term+@rn+@rel+108-60-1
  12. http://pubchem.ncbi.nlm.nih.gov/vw3d/vw3d.cgi?cid=7944
