441579
  -OEChem-07051212552D

 48 48  0     1  0  0  0  0  0999 V2000
    4.5981    3.4050    0.0000 O   0  0  0  0  0  0  0  0  0  0  0  0
    2.8660    2.4050    0.0000 O   0  0  0  0  0  0  0  0  0  0  0  0
    7.1962   -2.0950    0.0000 N   0  0  0  0  0  0  0  0  0  0  0  0
   10.6603   -1.0950    0.0000 N   0  0  0  0  0  0  0  0  0  0  0  0
    8.0622   -3.5950    0.0000 N   0  0  0  0  0  0  0  0  0  0  0  0
   12.3923   -1.0950    0.0000 N   0  0  0  0  0  0  0  0  0  0  0  0
    7.1962   -1.0950    0.0000 C   0  0  3  0  0  0  0  0  0  0  0  0
    6.3301   -0.5950    0.0000 C   0  0  0  0  0  0  0  0  0  0  0  0
    8.0622   -0.5950    0.0000 C   0  0  0  0  0  0  0  0  0  0  0  0
    6.3301    0.4050    0.0000 C   0  0  0  0  0  0  0  0  0  0  0  0
    8.9282   -1.0950    0.0000 C   0  0  0  0  0  0  0  0  0  0  0  0
    5.4641    0.9050    0.0000 C   0  0  0  0  0  0  0  0  0  0  0  0
    9.7942   -0.5950    0.0000 C   0  0  0  0  0  0  0  0  0  0  0  0
    5.4641    1.9050    0.0000 C   0  0  0  0  0  0  0  0  0  0  0  0
    4.5981    0.4050    0.0000 C   0  0  0  0  0  0  0  0  0  0  0  0
    4.5981    2.4050    0.0000 C   0  0  0  0  0  0  0  0  0  0  0  0
    3.7320    0.9050    0.0000 C   0  0  0  0  0  0  0  0  0  0  0  0
    3.7320    1.9050    0.0000 C   0  0  0  0  0  0  0  0  0  0  0  0
    8.0622   -2.5950    0.0000 C   0  0  0  0  0  0  0  0  0  0  0  0
   11.5263   -0.5950    0.0000 C   0  0  0  0  0  0  0  0  0  0  0  0
    5.4641    3.9050    0.0000 C   0  0  0  0  0  0  0  0  0  0  0  0
    2.0000    1.9050    0.0000 C   0  0  0  0  0  0  0  0  0  0  0  0
    6.6592   -1.4050    0.0000 H   0  0  0  0  0  0  0  0  0  0  0  0
    5.7196   -0.4873    0.0000 H   0  0  0  0  0  0  0  0  0  0  0  0
    6.1181   -1.1776    0.0000 H   0  0  0  0  0  0  0  0  0  0  0  0
    8.4607   -0.1201    0.0000 H   0  0  0  0  0  0  0  0  0  0  0  0
    7.6636   -0.1201    0.0000 H   0  0  0  0  0  0  0  0  0  0  0  0
    6.9407    0.2973    0.0000 H   0  0  0  0  0  0  0  0  0  0  0  0
    6.5422    0.9876    0.0000 H   0  0  0  0  0  0  0  0  0  0  0  0
    8.5297   -1.5700    0.0000 H   0  0  0  0  0  0  0  0  0  0  0  0
    9.3267   -1.5700    0.0000 H   0  0  0  0  0  0  0  0  0  0  0  0
   10.1928   -0.1201    0.0000 H   0  0  0  0  0  0  0  0  0  0  0  0
    9.3957   -0.1201    0.0000 H   0  0  0  0  0  0  0  0  0  0  0  0
    6.0010    2.2150    0.0000 H   0  0  0  0  0  0  0  0  0  0  0  0
    4.5981   -0.2150    0.0000 H   0  0  0  0  0  0  0  0  0  0  0  0
    3.1951    0.5950    0.0000 H   0  0  0  0  0  0  0  0  0  0  0  0
    8.5991   -2.2850    0.0000 H   0  0  0  0  0  0  0  0  0  0  0  0
    8.5991   -3.9050    0.0000 H   0  0  0  0  0  0  0  0  0  0  0  0
    7.5252   -3.9050    0.0000 H   0  0  0  0  0  0  0  0  0  0  0  0
   11.5263    0.0250    0.0000 H   0  0  0  0  0  0  0  0  0  0  0  0
    5.7741    3.3681    0.0000 H   0  0  0  0  0  0  0  0  0  0  0  0
    6.0010    4.2150    0.0000 H   0  0  0  0  0  0  0  0  0  0  0  0
    5.1541    4.4419    0.0000 H   0  0  0  0  0  0  0  0  0  0  0  0
    1.6900    2.4419    0.0000 H   0  0  0  0  0  0  0  0  0  0  0  0
    1.4631    1.5950    0.0000 H   0  0  0  0  0  0  0  0  0  0  0  0
    2.3100    1.3681    0.0000 H   0  0  0  0  0  0  0  0  0  0  0  0
   12.9292   -0.7850    0.0000 H   0  0  0  0  0  0  0  0  0  0  0  0
   12.3923   -1.7150    0.0000 H   0  0  0  0  0  0  0  0  0  0  0  0
  1 16  1  0  0  0  0
  1 21  1  0  0  0  0
  2 18  1  0  0  0  0
  2 22  1  0  0  0  0
  3  7  1  0  0  0  0
  3 19  2  0  0  0  0
  4 13  1  0  0  0  0
  4 20  2  0  0  0  0
  5 19  1  0  0  0  0
  5 38  1  0  0  0  0
  5 39  1  0  0  0  0
  6 20  1  0  0  0  0
  6 47  1  0  0  0  0
  6 48  1  0  0  0  0
  7  8  1  0  0  0  0
  7  9  1  0  0  0  0
  7 23  1  0  0  0  0
  8 10  1  0  0  0  0
  8 24  1  0  0  0  0
  8 25  1  0  0  0  0
  9 11  1  0  0  0  0
  9 26  1  0  0  0  0
  9 27  1  0  0  0  0
 10 12  1  0  0  0  0
 10 28  1  0  0  0  0
 10 29  1  0  0  0  0
 11 13  1  0  0  0  0
 11 30  1  0  0  0  0
 11 31  1  0  0  0  0
 12 14  2  0  0  0  0
 12 15  1  0  0  0  0
 13 32  1  0  0  0  0
 13 33  1  0  0  0  0
 14 16  1  0  0  0  0
 14 34  1  0  0  0  0
 15 17  2  0  0  0  0
 15 35  1  0  0  0  0
 16 18  2  0  0  0  0
 17 18  1  0  0  0  0
 17 36  1  0  0  0  0
 19 37  1  0  0  0  0
 20 40  1  0  0  0  0
 21 41  1  0  0  0  0
 21 42  1  0  0  0  0
 21 43  1  0  0  0  0
 22 44  1  0  0  0  0
 22 45  1  0  0  0  0
 22 46  1  0  0  0  0
M  END
> <PUBCHEM_COMPOUND_CID>
441579

> <PUBCHEM_COMPOUND_CANONICALIZED>
1

> <PUBCHEM_CACTVS_COMPLEXITY>
336

> <PUBCHEM_CACTVS_HBOND_ACCEPTOR>
4

> <PUBCHEM_CACTVS_HBOND_DONOR>
2

> <PUBCHEM_CACTVS_ROTATABLE_BOND>
10

> <PUBCHEM_CACTVS_SUBSKEYS>
AAADceB7sAAAAAAAAAAAAAAAAAAAAAAAAAAwAAAAAAAAAAABAAAAHgAQAAAADCzBmAYzBoJABACgAiBDJAACCAEgIAAIiIAGiIgNJiKEsRqAMCIkwBEKqAeQwPAOIAABAAAAQABAAAIAAACAAAAAAAAAAA==

> <PUBCHEM_IUPAC_OPENEYE_NAME>
N'-[4-(aminomethyleneamino)-1-[2-(3,4-dimethoxyphenyl)ethyl]butyl]formamidine

> <PUBCHEM_IUPAC_CAS_NAME>
N'-[6-(aminomethylideneamino)-1-(3,4-dimethoxyphenyl)hexan-3-yl]methanimidamide

> <PUBCHEM_IUPAC_NAME>
N'-[6-(aminomethylideneamino)-1-(3,4-dimethoxyphenyl)hexan-3-yl]methanimidamide

> <PUBCHEM_IUPAC_SYSTEMATIC_NAME>
N'-[6-(azanylmethylideneamino)-1-(3,4-dimethoxyphenyl)hexan-3-yl]methanimidamide

> <PUBCHEM_IUPAC_TRADITIONAL_NAME>
N'-[4-(aminomethyleneamino)-6-(3,4-dimethoxyphenyl)hexyl]formamidine

> <PUBCHEM_IUPAC_INCHI>
InChI=1S/C16H26N4O2/c1-21-15-8-6-13(10-16(15)22-2)5-7-14(20-12-18)4-3-9-19-11-17/h6,8,10-12,14H,3-5,7,9H2,1-2H3,(H2,17,19)(H2,18,20)

> <PUBCHEM_IUPAC_INCHIKEY>
JVNVHIPXYJPRRV-UHFFFAOYSA-N

> <PUBCHEM_XLOGP3_AA>
1.3

> <PUBCHEM_EXACT_MASS>
306.205576

> <PUBCHEM_MOLECULAR_FORMULA>
C16H26N4O2

> <PUBCHEM_MOLECULAR_WEIGHT>
306.40324

> <PUBCHEM_OPENEYE_CAN_SMILES>
COC1=C(C=C(C=C1)CCC(CCCN=CN)N=CN)OC

> <PUBCHEM_OPENEYE_ISO_SMILES>
COC1=C(C=C(C=C1)CCC(CCCN=CN)N=CN)OC

> <PUBCHEM_CACTVS_TPSA>
95.2

> <PUBCHEM_MONOISOTOPIC_WEIGHT>
306.205576

> <PUBCHEM_TOTAL_CHARGE>
0

> <PUBCHEM_HEAVY_ATOM_COUNT>
22

> <PUBCHEM_ATOM_DEF_STEREO_COUNT>
0

> <PUBCHEM_ATOM_UDEF_STEREO_COUNT>
1

> <PUBCHEM_BOND_DEF_STEREO_COUNT>
0

> <PUBCHEM_BOND_UDEF_STEREO_COUNT>
0

> <PUBCHEM_ISOTOPIC_ATOM_COUNT>
0

> <PUBCHEM_COMPONENT_COUNT>
1

> <PUBCHEM_CACTVS_TAUTO_COUNT>
4

> <PUBCHEM_COORDINATE_TYPE>
1
5
255

> <PUBCHEM_BONDANNOTATIONS>
12  14  8
12  15  8
14  16  8
15  17  8
16  18  8
17  18  8
7  9  3

$$$$

