126517
  -OEChem-07051212512D

 21 21  0     1  0  0  0  0  0999 V2000
    5.1350   -1.1550    0.0000 O   0  0  0  0  0  0  0  0  0  0  0  0
    4.2690    1.3450    0.0000 O   0  0  0  0  0  0  0  0  0  0  0  0
    2.5369    0.3450    0.0000 O   0  0  0  0  0  0  0  0  0  0  0  0
    6.8671   -0.1550    0.0000 O   0  0  0  0  0  0  0  0  0  0  0  0
    2.5369   -1.6550    0.0000 O   0  0  0  0  0  0  0  0  0  0  0  0
    4.2690    0.3450    0.0000 C   0  0  2  0  0  0  0  0  0  0  0  0
    5.1350   -0.1550    0.0000 C   0  0  1  0  0  0  0  0  0  0  0  0
    3.4030   -0.1550    0.0000 C   0  0  1  0  0  0  0  0  0  0  0  0
    3.4030   -1.1550    0.0000 C   0  0  0  0  0  0  0  0  0  0  0  0
    4.2690   -1.6550    0.0000 C   0  0  0  0  0  0  0  0  0  0  0  0
    6.0010    0.3450    0.0000 C   0  0  0  0  0  0  0  0  0  0  0  0
    4.8059    0.6550    0.0000 H   0  0  0  0  0  0  0  0  0  0  0  0
    5.6720   -0.4650    0.0000 H   0  0  0  0  0  0  0  0  0  0  0  0
    3.4030    0.4650    0.0000 H   0  0  0  0  0  0  0  0  0  0  0  0
    3.8705   -2.1300    0.0000 H   0  0  0  0  0  0  0  0  0  0  0  0
    4.6675   -2.1300    0.0000 H   0  0  0  0  0  0  0  0  0  0  0  0
    6.3996    0.8199    0.0000 H   0  0  0  0  0  0  0  0  0  0  0  0
    5.6025    0.8199    0.0000 H   0  0  0  0  0  0  0  0  0  0  0  0
    3.7320    1.6550    0.0000 H   0  0  0  0  0  0  0  0  0  0  0  0
    2.0000    0.0350    0.0000 H   0  0  0  0  0  0  0  0  0  0  0  0
    7.4040    0.1550    0.0000 H   0  0  0  0  0  0  0  0  0  0  0  0
  1  7  1  0  0  0  0
  1 10  1  0  0  0  0
  6  2  1  6  0  0  0
  2 19  1  0  0  0  0
  8  3  1  1  0  0  0
  3 20  1  0  0  0  0
  4 11  1  0  0  0  0
  4 21  1  0  0  0  0
  5  9  2  0  0  0  0
  6  7  1  0  0  0  0
  6  8  1  0  0  0  0
  6 12  1  0  0  0  0
  7 11  1  1  0  0  0
  7 13  1  0  0  0  0
  8  9  1  0  0  0  0
  8 14  1  0  0  0  0
  9 10  1  0  0  0  0
 10 15  1  0  0  0  0
 10 16  1  0  0  0  0
 11 17  1  0  0  0  0
 11 18  1  0  0  0  0
M  END
> <PUBCHEM_COMPOUND_CID>
126517

> <PUBCHEM_COMPOUND_CANONICALIZED>
1

> <PUBCHEM_CACTVS_COMPLEXITY>
157

> <PUBCHEM_CACTVS_HBOND_ACCEPTOR>
5

> <PUBCHEM_CACTVS_HBOND_DONOR>
3

> <PUBCHEM_CACTVS_ROTATABLE_BOND>
1

> <PUBCHEM_CACTVS_SUBSKEYS>
AAADccBgOAAAAAAAAAAAAAAAAAAAAAAAAAAkAAAAAAAAAAAAAAAAGgAACAAACBSggAIAAAAABgAIAIAQAAIAAAAAAAAAAAFAAAABEBYAAAQCQAAFIAADAAHKRAAAAAAAAAAAAAAAAAAAAAAAAAAAAAAAAA==

> <PUBCHEM_IUPAC_OPENEYE_NAME>
(4S,5S,6R)-4,5-dihydroxy-6-(hydroxymethyl)tetrahydropyran-3-one

> <PUBCHEM_IUPAC_CAS_NAME>
(4S,5S,6R)-4,5-dihydroxy-6-(hydroxymethyl)-3-oxanone

> <PUBCHEM_IUPAC_NAME>
(4S,5S,6R)-4,5-dihydroxy-6-(hydroxymethyl)oxan-3-one

> <PUBCHEM_IUPAC_SYSTEMATIC_NAME>
(4S,5S,6R)-6-(hydroxymethyl)-4,5-bis(oxidanyl)oxan-3-one

> <PUBCHEM_IUPAC_TRADITIONAL_NAME>
(4S,5S,6R)-4,5-dihydroxy-6-methylol-tetrahydropyran-3-one

> <PUBCHEM_IUPAC_INCHI>
InChI=1S/C6H10O5/c7-1-4-6(10)5(9)3(8)2-11-4/h4-7,9-10H,1-2H2/t4-,5-,6-/m1/s1

> <PUBCHEM_IUPAC_INCHIKEY>
OCLOLUFOLJIQDC-HSUXUTPPSA-N

> <PUBCHEM_XLOGP3_AA>
-1.6

> <PUBCHEM_EXACT_MASS>
162.052823

> <PUBCHEM_MOLECULAR_FORMULA>
C6H10O5

> <PUBCHEM_MOLECULAR_WEIGHT>
162.1406

> <PUBCHEM_OPENEYE_CAN_SMILES>
C1C(=O)C(C(C(O1)CO)O)O

> <PUBCHEM_OPENEYE_ISO_SMILES>
C1C(=O)[C@H]([C@@H]([C@H](O1)CO)O)O

> <PUBCHEM_CACTVS_TPSA>
87

> <PUBCHEM_MONOISOTOPIC_WEIGHT>
162.052823

> <PUBCHEM_TOTAL_CHARGE>
0

> <PUBCHEM_HEAVY_ATOM_COUNT>
11

> <PUBCHEM_ATOM_DEF_STEREO_COUNT>
3

> <PUBCHEM_ATOM_UDEF_STEREO_COUNT>
0

> <PUBCHEM_BOND_DEF_STEREO_COUNT>
0

> <PUBCHEM_BOND_UDEF_STEREO_COUNT>
0

> <PUBCHEM_ISOTOPIC_ATOM_COUNT>
0

> <PUBCHEM_COMPONENT_COUNT>
1

> <PUBCHEM_CACTVS_TAUTO_COUNT>
7

> <PUBCHEM_COORDINATE_TYPE>
1
5
255

> <PUBCHEM_BONDANNOTATIONS>
6  2  6
8  3  5
7  11  5

$$$$

