   Color/Form
        Crystals
   from [1]HSDB

   Boiling Point
        263 deg C
   from [2]HSDB

   Melting Point
        56 deg C
   from [3]HSDB

   Density/Specific Gravity
        1.0416 g/cu cm at 14 deg C
   from [4]HSDB

   Dissociation Constants
        pKa = 7.51 (est)
   from [5]HSDB

   Octanol/Water Partition Coefficient
        log Kow = 0.23
   from [6]HSDB

   Solubilities

     * Very soluble in ethanol
     * In water, 8.25X10+4 mg/L at 25 deg C (est)

   from [7]HSDB

   Spectral Properties
        Index of refraction = 1.5037 at 14 deg C/D
   from [8]HSDB

   Vapor Pressure
        0.007 mm Hg at 25 deg C (est)
   from [9]HSDB

   Other Chemical/Physical Properties

     * Henry's Law constant = 4.14X10-6 atm-cu m/mol at 25 deg C (est)
     * Hydroxyl radical reaction rate constant = 9.41X10-11 cu
       cm/molec-sec at 25 deg C (est)

   from [10]HSDB

   Computed Properties
   Molecular Weight                  82.10384 [g/mol]
   Molecular Formula                 C[4]H[6]N[2]
   XLogP3                            0.2
   H-Bond Donor                      1
   H-Bond Acceptor                   1
   Rotatable Bond Count              0
   Tautomer Count                    2
   Exact Mass                        82.053098
   MonoIsotopic Mass                 82.053098
   Topological Polar Surface Area    28.7
   Heavy Atom Count                  6
   Formal Charge                     0
   Complexity                        44.8
   Isotope Atom Count                0
   Defined Atom Stereocenter Count   0
   Undefined Atom Stereocenter Count 0
   Defined Bond Stereocenter Count   0
   Undefined Bond Stereocenter Count 0
   Covalently-Bonded Unit Count      1
   Feature 3D Donor Count            1
   Feature 3D Cation Count           1
   Feature 3D Ring Count             1
   Effective Rotor Count             0
   Conformer Sampling RMSD           0.4
   CID Conformer Count               [11]1

References

   1. http://toxnet.nlm.nih.gov/cgi-bin/sis/search/r?dbs+hsdb:@term+@rn+@rel+822-36-6
   2. http://toxnet.nlm.nih.gov/cgi-bin/sis/search/r?dbs+hsdb:@term+@rn+@rel+822-36-6
   3. http://toxnet.nlm.nih.gov/cgi-bin/sis/search/r?dbs+hsdb:@term+@rn+@rel+822-36-6
   4. http://toxnet.nlm.nih.gov/cgi-bin/sis/search/r?dbs+hsdb:@term+@rn+@rel+822-36-6
   5. http://toxnet.nlm.nih.gov/cgi-bin/sis/search/r?dbs+hsdb:@term+@rn+@rel+822-36-6
   6. http://toxnet.nlm.nih.gov/cgi-bin/sis/search/r?dbs+hsdb:@term+@rn+@rel+822-36-6
   7. http://toxnet.nlm.nih.gov/cgi-bin/sis/search/r?dbs+hsdb:@term+@rn+@rel+822-36-6
   8. http://toxnet.nlm.nih.gov/cgi-bin/sis/search/r?dbs+hsdb:@term+@rn+@rel+822-36-6
   9. http://toxnet.nlm.nih.gov/cgi-bin/sis/search/r?dbs+hsdb:@term+@rn+@rel+822-36-6
  10. http://toxnet.nlm.nih.gov/cgi-bin/sis/search/r?dbs+hsdb:@term+@rn+@rel+822-36-6
  11. http://pubchem.ncbi.nlm.nih.gov/vw3d/vw3d.cgi?cid=13195
