17396123
  -OEChem-06241222542D

 45 48  0     0  0  0  0  0  0999 V2000
    4.6783    0.8047    0.0000 S   0  0  0  0  0  0  0  0  0  0  0  0
    9.2619    0.0000    0.0000 O   0  0  0  0  0  0  0  0  0  0  0  0
    8.2619    0.0000    0.0000 O   0  0  0  0  0  0  0  0  0  0  0  0
    8.2619   -1.7320    0.0000 N   0  0  0  0  0  0  0  0  0  0  0  0
    4.6783   -0.8047    0.0000 N   0  0  0  0  0  0  0  0  0  0  0  0
    6.2619    0.0000    0.0000 C   0  0  0  0  0  0  0  0  0  0  0  0
    6.7619   -0.8660    0.0000 C   0  0  0  0  0  0  0  0  0  0  0  0
    5.2619    0.0000    0.0000 C   0  0  0  0  0  0  0  0  0  0  0  0
    7.7619   -0.8660    0.0000 C   0  0  0  0  0  0  0  0  0  0  0  0
    3.7320    0.5000    0.0000 C   0  0  0  0  0  0  0  0  0  0  0  0
    3.7320   -0.5000    0.0000 C   0  0  0  0  0  0  0  0  0  0  0  0
    9.2619   -1.7320    0.0000 C   0  0  0  0  0  0  0  0  0  0  0  0
    9.7619   -0.8660    0.0000 C   0  0  0  0  0  0  0  0  0  0  0  0
    2.8660    1.0000    0.0000 C   0  0  0  0  0  0  0  0  0  0  0  0
    2.8660   -1.0000    0.0000 C   0  0  0  0  0  0  0  0  0  0  0  0
    9.7619   -2.5981    0.0000 C   0  0  0  0  0  0  0  0  0  0  0  0
    2.0000    0.5000    0.0000 C   0  0  0  0  0  0  0  0  0  0  0  0
    2.0000   -0.5000    0.0000 C   0  0  0  0  0  0  0  0  0  0  0  0
   10.7619   -0.8660    0.0000 C   0  0  0  0  0  0  0  0  0  0  0  0
   10.7619   -2.5981    0.0000 C   0  0  0  0  0  0  0  0  0  0  0  0
   11.2619   -1.7320    0.0000 C   0  0  0  0  0  0  0  0  0  0  0  0
    9.7619    0.8660    0.0000 C   0  0  0  0  0  0  0  0  0  0  0  0
   10.7619    0.8660    0.0000 C   0  0  0  0  0  0  0  0  0  0  0  0
    9.2619    1.7320    0.0000 C   0  0  0  0  0  0  0  0  0  0  0  0
   11.2619    1.7320    0.0000 C   0  0  0  0  0  0  0  0  0  0  0  0
    9.7619    2.5981    0.0000 C   0  0  0  0  0  0  0  0  0  0  0  0
   10.7619    2.5981    0.0000 C   0  0  0  0  0  0  0  0  0  0  0  0
    6.8445    0.2121    0.0000 H   0  0  0  0  0  0  0  0  0  0  0  0
    6.1542    0.6106    0.0000 H   0  0  0  0  0  0  0  0  0  0  0  0
    6.1793   -1.0781    0.0000 H   0  0  0  0  0  0  0  0  0  0  0  0
    6.8695   -1.4766    0.0000 H   0  0  0  0  0  0  0  0  0  0  0  0
    7.9519   -2.2690    0.0000 H   0  0  0  0  0  0  0  0  0  0  0  0
    2.8660    1.6200    0.0000 H   0  0  0  0  0  0  0  0  0  0  0  0
    2.8660   -1.6200    0.0000 H   0  0  0  0  0  0  0  0  0  0  0  0
    9.4519   -3.1350    0.0000 H   0  0  0  0  0  0  0  0  0  0  0  0
    1.4631    0.8100    0.0000 H   0  0  0  0  0  0  0  0  0  0  0  0
    1.4631   -0.8100    0.0000 H   0  0  0  0  0  0  0  0  0  0  0  0
   11.0719   -0.3291    0.0000 H   0  0  0  0  0  0  0  0  0  0  0  0
   11.0719   -3.1350    0.0000 H   0  0  0  0  0  0  0  0  0  0  0  0
   11.8819   -1.7320    0.0000 H   0  0  0  0  0  0  0  0  0  0  0  0
   11.0719    0.3291    0.0000 H   0  0  0  0  0  0  0  0  0  0  0  0
    8.6419    1.7320    0.0000 H   0  0  0  0  0  0  0  0  0  0  0  0
   11.8819    1.7320    0.0000 H   0  0  0  0  0  0  0  0  0  0  0  0
    9.4519    3.1350    0.0000 H   0  0  0  0  0  0  0  0  0  0  0  0
   11.0719    3.1350    0.0000 H   0  0  0  0  0  0  0  0  0  0  0  0
  1  8  1  0  0  0  0
  1 10  1  0  0  0  0
  2 13  1  0  0  0  0
  2 22  1  0  0  0  0
  3  9  2  0  0  0  0
  4  9  1  0  0  0  0
  4 12  1  0  0  0  0
  4 32  1  0  0  0  0
  5  8  2  0  0  0  0
  5 11  1  0  0  0  0
  6  7  1  0  0  0  0
  6  8  1  0  0  0  0
  6 28  1  0  0  0  0
  6 29  1  0  0  0  0
  7  9  1  0  0  0  0
  7 30  1  0  0  0  0
  7 31  1  0  0  0  0
 10 11  1  0  0  0  0
 10 14  2  0  0  0  0
 11 15  2  0  0  0  0
 12 13  1  0  0  0  0
 12 16  2  0  0  0  0
 13 19  2  0  0  0  0
 14 17  1  0  0  0  0
 14 33  1  0  0  0  0
 15 18  1  0  0  0  0
 15 34  1  0  0  0  0
 16 20  1  0  0  0  0
 16 35  1  0  0  0  0
 17 18  2  0  0  0  0
 17 36  1  0  0  0  0
 18 37  1  0  0  0  0
 19 21  1  0  0  0  0
 19 38  1  0  0  0  0
 20 21  2  0  0  0  0
 20 39  1  0  0  0  0
 21 40  1  0  0  0  0
 22 23  2  0  0  0  0
 22 24  1  0  0  0  0
 23 25  1  0  0  0  0
 23 41  1  0  0  0  0
 24 26  2  0  0  0  0
 24 42  1  0  0  0  0
 25 27  2  0  0  0  0
 25 43  1  0  0  0  0
 26 27  1  0  0  0  0
 26 44  1  0  0  0  0
 27 45  1  0  0  0  0
M  END
> <PUBCHEM_COMPOUND_CID>
17396123

> <PUBCHEM_COMPOUND_CANONICALIZED>
1

> <PUBCHEM_CACTVS_COMPLEXITY>
483

> <PUBCHEM_CACTVS_HBOND_ACCEPTOR>
4

> <PUBCHEM_CACTVS_HBOND_DONOR>
1

> <PUBCHEM_CACTVS_ROTATABLE_BOND>
6

> <PUBCHEM_CACTVS_SUBSKEYS>
AAADceB7MABAAAAAAAAAAAAAAAAAAWAAAAAwYMAAAAAAAFgB9AAAHgQQAAAACAyB1gAwx7LIFAisASVyVACD+KBhKjhImD03bJgOJrLksZuHOCjk1BH46AeUQAAAAAAAAAAAEQAAAAAAAAAiAAAAAAAAAA==

> <PUBCHEM_IUPAC_OPENEYE_NAME>
3-(1,3-benzothiazol-2-yl)-N-(2-phenoxyphenyl)propanamide

> <PUBCHEM_IUPAC_CAS_NAME>
3-(1,3-benzothiazol-2-yl)-N-(2-phenoxyphenyl)propanamide

> <PUBCHEM_IUPAC_NAME>
3-(1,3-benzothiazol-2-yl)-N-(2-phenoxyphenyl)propanamide

> <PUBCHEM_IUPAC_SYSTEMATIC_NAME>
3-(1,3-benzothiazol-2-yl)-N-(2-phenoxyphenyl)propanamide

> <PUBCHEM_IUPAC_TRADITIONAL_NAME>
3-(1,3-benzothiazol-2-yl)-N-(2-phenoxyphenyl)propionamide

> <PUBCHEM_IUPAC_INCHI>
InChI=1S/C22H18N2O2S/c25-21(14-15-22-24-18-11-5-7-13-20(18)27-22)23-17-10-4-6-12-19(17)26-16-8-2-1-3-9-16/h1-13H,14-15H2,(H,23,25)

> <PUBCHEM_IUPAC_INCHIKEY>
YPHLYQXAAVYGSN-UHFFFAOYSA-N

> <PUBCHEM_XLOGP3_AA>
5

> <PUBCHEM_EXACT_MASS>
374.108899

> <PUBCHEM_MOLECULAR_FORMULA>
C22H18N2O2S

> <PUBCHEM_MOLECULAR_WEIGHT>
374.45552

> <PUBCHEM_OPENEYE_CAN_SMILES>
C1=CC=C(C=C1)OC2=CC=CC=C2NC(=O)CCC3=NC4=CC=CC=C4S3

> <PUBCHEM_OPENEYE_ISO_SMILES>
C1=CC=C(C=C1)OC2=CC=CC=C2NC(=O)CCC3=NC4=CC=CC=C4S3

> <PUBCHEM_CACTVS_TPSA>
79.5

> <PUBCHEM_MONOISOTOPIC_WEIGHT>
374.108899

> <PUBCHEM_TOTAL_CHARGE>
0

> <PUBCHEM_HEAVY_ATOM_COUNT>
27

> <PUBCHEM_ATOM_DEF_STEREO_COUNT>
0

> <PUBCHEM_ATOM_UDEF_STEREO_COUNT>
0

> <PUBCHEM_BOND_DEF_STEREO_COUNT>
0

> <PUBCHEM_BOND_UDEF_STEREO_COUNT>
0

> <PUBCHEM_ISOTOPIC_ATOM_COUNT>
0

> <PUBCHEM_COMPONENT_COUNT>
1

> <PUBCHEM_CACTVS_TAUTO_COUNT>
6

> <PUBCHEM_COORDINATE_TYPE>
1
5
255

> <PUBCHEM_BONDANNOTATIONS>
1  10  8
1  8  8
10  11  8
10  14  8
11  15  8
12  13  8
12  16  8
13  19  8
14  17  8
15  18  8
16  20  8
17  18  8
19  21  8
20  21  8
22  23  8
22  24  8
23  25  8
24  26  8
25  27  8
26  27  8
5  11  8
5  8  8

$$$$

