442835
  -OEChem-07051212592D

 53 56  0     1  0  0  0  0  0999 V2000
    6.3782   -2.7666    0.0000 O   0  0  0  0  0  0  0  0  0  0  0  0
    4.8837   -1.7960    0.0000 O   0  0  0  0  0  0  0  0  0  0  0  0
   11.8712   -1.2594    0.0000 O   0  0  0  0  0  0  0  0  0  0  0  0
   11.8712   -2.8689    0.0000 O   0  0  0  0  0  0  0  0  0  0  0  0
    2.9511   -0.8995    0.0000 O   0  0  0  0  0  0  0  0  0  0  0  0
    4.0215    2.3950    0.0000 O   0  0  0  0  0  0  0  0  0  0  0  0
    2.5352    1.0568    0.0000 O   0  0  0  0  0  0  0  0  0  0  0  0
    7.4609   -1.5642    0.0000 C   0  0  2  0  0  0  0  0  0  0  0  0
    6.5474   -1.1574    0.0000 C   0  0  1  0  0  0  0  0  0  0  0  0
    7.3564   -2.5587    0.0000 C   0  0  0  0  0  0  0  0  0  0  0  0
    8.3269   -1.0642    0.0000 C   0  0  0  0  0  0  0  0  0  0  0  0
    6.3395   -0.1793    0.0000 C   0  0  0  0  0  0  0  0  0  0  0  0
    5.8782   -1.9006    0.0000 C   0  0  0  0  0  0  0  0  0  0  0  0
    9.1930   -1.5642    0.0000 C   0  0  0  0  0  0  0  0  0  0  0  0
    5.3884    0.1297    0.0000 C   0  0  0  0  0  0  0  0  0  0  0  0
   10.0590   -1.0642    0.0000 C   0  0  0  0  0  0  0  0  0  0  0  0
    9.1930   -2.5642    0.0000 C   0  0  0  0  0  0  0  0  0  0  0  0
    5.1805    1.1079    0.0000 C   0  0  0  0  0  0  0  0  0  0  0  0
    4.6453   -0.5394    0.0000 C   0  0  0  0  0  0  0  0  0  0  0  0
   10.9250   -1.5642    0.0000 C   0  0  0  0  0  0  0  0  0  0  0  0
   10.0590   -3.0642    0.0000 C   0  0  0  0  0  0  0  0  0  0  0  0
   10.9250   -2.5642    0.0000 C   0  0  0  0  0  0  0  0  0  0  0  0
    3.6942   -0.2304    0.0000 C   0  0  0  0  0  0  0  0  0  0  0  0
    4.2294    1.4169    0.0000 C   0  0  0  0  0  0  0  0  0  0  0  0
    3.4863    0.7478    0.0000 C   0  0  0  0  0  0  0  0  0  0  0  0
   12.4548   -2.0642    0.0000 C   0  0  0  0  0  0  0  0  0  0  0  0
    2.0000   -0.5905    0.0000 C   0  0  0  0  0  0  0  0  0  0  0  0
    4.7647    3.0642    0.0000 C   0  0  0  0  0  0  0  0  0  0  0  0
    2.3273    2.0349    0.0000 C   0  0  0  0  0  0  0  0  0  0  0  0
    7.9809   -1.9018    0.0000 H   0  0  0  0  0  0  0  0  0  0  0  0
    5.9485   -0.9970    0.0000 H   0  0  0  0  0  0  0  0  0  0  0  0
    7.4212   -3.1753    0.0000 H   0  0  0  0  0  0  0  0  0  0  0  0
    7.9764   -2.5587    0.0000 H   0  0  0  0  0  0  0  0  0  0  0  0
    8.7255   -0.5892    0.0000 H   0  0  0  0  0  0  0  0  0  0  0  0
    7.9284   -0.5892    0.0000 H   0  0  0  0  0  0  0  0  0  0  0  0
    6.9591   -0.1577    0.0000 H   0  0  0  0  0  0  0  0  0  0  0  0
    6.4258    0.4347    0.0000 H   0  0  0  0  0  0  0  0  0  0  0  0
   10.0590   -0.4442    0.0000 H   0  0  0  0  0  0  0  0  0  0  0  0
    8.6560   -2.8742    0.0000 H   0  0  0  0  0  0  0  0  0  0  0  0
    5.6412    1.5227    0.0000 H   0  0  0  0  0  0  0  0  0  0  0  0
    4.7742   -1.1458    0.0000 H   0  0  0  0  0  0  0  0  0  0  0  0
   10.0590   -3.6842    0.0000 H   0  0  0  0  0  0  0  0  0  0  0  0
   12.9157   -2.4789    0.0000 H   0  0  0  0  0  0  0  0  0  0  0  0
   12.9157   -1.6494    0.0000 H   0  0  0  0  0  0  0  0  0  0  0  0
    2.1916   -0.0008    0.0000 H   0  0  0  0  0  0  0  0  0  0  0  0
    1.4103   -0.3989    0.0000 H   0  0  0  0  0  0  0  0  0  0  0  0
    1.8084   -1.1802    0.0000 H   0  0  0  0  0  0  0  0  0  0  0  0
    5.1795    2.6034    0.0000 H   0  0  0  0  0  0  0  0  0  0  0  0
    5.2254    3.4790    0.0000 H   0  0  0  0  0  0  0  0  0  0  0  0
    4.3498    3.5249    0.0000 H   0  0  0  0  0  0  0  0  0  0  0  0
    2.9338    2.1638    0.0000 H   0  0  0  0  0  0  0  0  0  0  0  0
    2.1984    2.6414    0.0000 H   0  0  0  0  0  0  0  0  0  0  0  0
    1.7209    1.9060    0.0000 H   0  0  0  0  0  0  0  0  0  0  0  0
  1 10  1  0  0  0  0
  1 13  1  0  0  0  0
  2 13  2  0  0  0  0
  3 20  1  0  0  0  0
  3 26  1  0  0  0  0
  4 22  1  0  0  0  0
  4 26  1  0  0  0  0
  5 23  1  0  0  0  0
  5 27  1  0  0  0  0
  6 24  1  0  0  0  0
  6 28  1  0  0  0  0
  7 25  1  0  0  0  0
  7 29  1  0  0  0  0
  8  9  1  0  0  0  0
  8 10  1  0  0  0  0
  8 11  1  1  0  0  0
  8 30  1  0  0  0  0
  9 12  1  6  0  0  0
  9 13  1  0  0  0  0
  9 31  1  0  0  0  0
 10 32  1  0  0  0  0
 10 33  1  0  0  0  0
 11 14  1  0  0  0  0
 11 34  1  0  0  0  0
 11 35  1  0  0  0  0
 12 15  1  0  0  0  0
 12 36  1  0  0  0  0
 12 37  1  0  0  0  0
 14 16  2  0  0  0  0
 14 17  1  0  0  0  0
 15 18  2  0  0  0  0
 15 19  1  0  0  0  0
 16 20  1  0  0  0  0
 16 38  1  0  0  0  0
 17 21  2  0  0  0  0
 17 39  1  0  0  0  0
 18 24  1  0  0  0  0
 18 40  1  0  0  0  0
 19 23  2  0  0  0  0
 19 41  1  0  0  0  0
 20 22  2  0  0  0  0
 21 22  1  0  0  0  0
 21 42  1  0  0  0  0
 23 25  1  0  0  0  0
 24 25  2  0  0  0  0
 26 43  1  0  0  0  0
 26 44  1  0  0  0  0
 27 45  1  0  0  0  0
 27 46  1  0  0  0  0
 27 47  1  0  0  0  0
 28 48  1  0  0  0  0
 28 49  1  0  0  0  0
 28 50  1  0  0  0  0
 29 51  1  0  0  0  0
 29 52  1  0  0  0  0
 29 53  1  0  0  0  0
M  END
> <PUBCHEM_COMPOUND_CID>
442835

> <PUBCHEM_COMPOUND_CANONICALIZED>
1

> <PUBCHEM_CACTVS_COMPLEXITY>
541

> <PUBCHEM_CACTVS_HBOND_ACCEPTOR>
7

> <PUBCHEM_CACTVS_HBOND_DONOR>
0

> <PUBCHEM_CACTVS_ROTATABLE_BOND>
7

> <PUBCHEM_CACTVS_SUBSKEYS>
AAADceB4OAAAAAAAAAAAAAAAAAAAASJAAAAwYAAAAAAAAEgBQAAAGgAAAAAADQSgmAMyDoAABACIAiDSCAACCAAgIAAIiAEGiIgdJzKEMRqiMCIlwBUOqAeK6PyOoAABCAAAQABAAAIQAACAAAAAAAAAAA==

> <PUBCHEM_IUPAC_OPENEYE_NAME>
(3R,4R)-4-(1,3-benzodioxol-5-ylmethyl)-3-[(3,4,5-trimethoxyphenyl)methyl]tetrahydrofuran-2-one

> <PUBCHEM_IUPAC_CAS_NAME>
(3R,4R)-4-(1,3-benzodioxol-5-ylmethyl)-3-[(3,4,5-trimethoxyphenyl)methyl]-2-oxolanone

> <PUBCHEM_IUPAC_NAME>
(3R,4R)-4-(1,3-benzodioxol-5-ylmethyl)-3-[(3,4,5-trimethoxyphenyl)methyl]oxolan-2-one

> <PUBCHEM_IUPAC_SYSTEMATIC_NAME>
(3R,4R)-4-(1,3-benzodioxol-5-ylmethyl)-3-[(3,4,5-trimethoxyphenyl)methyl]oxolan-2-one

> <PUBCHEM_IUPAC_TRADITIONAL_NAME>
(3R,4R)-4-piperonyl-3-(3,4,5-trimethoxybenzyl)tetrahydrofuran-2-one

> <PUBCHEM_IUPAC_INCHI>
InChI=1S/C22H24O7/c1-24-19-9-14(10-20(25-2)21(19)26-3)7-16-15(11-27-22(16)23)6-13-4-5-17-18(8-13)29-12-28-17/h4-5,8-10,15-16H,6-7,11-12H2,1-3H3/t15-,16+/m0/s1

> <PUBCHEM_IUPAC_INCHIKEY>
GMLDZDDTZKXJLU-JKSUJKDBSA-N

> <PUBCHEM_XLOGP3_AA>
3.8

> <PUBCHEM_EXACT_MASS>
400.152203

> <PUBCHEM_MOLECULAR_FORMULA>
C22H24O7

> <PUBCHEM_MOLECULAR_WEIGHT>
400.42176

> <PUBCHEM_OPENEYE_CAN_SMILES>
COC1=CC(=CC(=C1OC)OC)CC2C(COC2=O)CC3=CC4=C(C=C3)OCO4

> <PUBCHEM_OPENEYE_ISO_SMILES>
COC1=CC(=CC(=C1OC)OC)C[C@@H]2[C@H](COC2=O)CC3=CC4=C(C=C3)OCO4

> <PUBCHEM_CACTVS_TPSA>
72.4

> <PUBCHEM_MONOISOTOPIC_WEIGHT>
400.152203

> <PUBCHEM_TOTAL_CHARGE>
0

> <PUBCHEM_HEAVY_ATOM_COUNT>
29

> <PUBCHEM_ATOM_DEF_STEREO_COUNT>
2

> <PUBCHEM_ATOM_UDEF_STEREO_COUNT>
0

> <PUBCHEM_BOND_DEF_STEREO_COUNT>
0

> <PUBCHEM_BOND_UDEF_STEREO_COUNT>
0

> <PUBCHEM_ISOTOPIC_ATOM_COUNT>
0

> <PUBCHEM_COMPONENT_COUNT>
1

> <PUBCHEM_CACTVS_TAUTO_COUNT>
2

> <PUBCHEM_COORDINATE_TYPE>
1
5
255

> <PUBCHEM_BONDANNOTATIONS>
14  16  8
14  17  8
15  18  8
15  19  8
16  20  8
17  21  8
18  24  8
19  23  8
20  22  8
21  22  8
23  25  8
24  25  8
8  11  5
9  12  6

$$$$

