68589
  -OEChem-07051212542D

 44 45  0     1  0  0  0  0  0999 V2000
    6.8671    3.0000    0.0000 Cl  0  0  0  0  0  0  0  0  0  0  0  0
    8.5991    0.0000    0.0000 Cl  0  0  0  0  0  0  0  0  0  0  0  0
    4.2690    7.5000    0.0000 Cl  0  0  0  0  0  0  0  0  0  0  0  0
    7.7331    4.5000    0.0000 O   0  0  0  0  0  0  0  0  0  0  0  0
    1.7320    4.8100    0.0000 O   0  0  0  0  0  0  0  0  0  0  0  0
    0.0000    4.8100    0.0000 O   0  5  0  0  0  0  0  0  0  0  0  0
    0.8660    3.3100    0.0000 O   0  0  0  0  0  0  0  0  0  0  0  0
    9.4651    5.5000    0.0000 N   0  0  0  0  0  0  0  0  0  0  0  0
    8.9651    7.0388    0.0000 N   0  0  0  0  0  0  0  0  0  0  0  0
    0.8660    4.3100    0.0000 N   0  3  0  0  0  0  0  0  0  0  0  0
    8.5991    4.0000    0.0000 C   0  0  3  0  0  0  0  0  0  0  0  0
    9.4651    4.5000    0.0000 C   0  0  0  0  0  0  0  0  0  0  0  0
    8.5991    3.0000    0.0000 C   0  0  0  0  0  0  0  0  0  0  0  0
    7.7331    5.5000    0.0000 C   0  0  0  0  0  0  0  0  0  0  0  0
    7.7331    2.5000    0.0000 C   0  0  0  0  0  0  0  0  0  0  0  0
    9.4651    2.5000    0.0000 C   0  0  0  0  0  0  0  0  0  0  0  0
    6.8671    6.0000    0.0000 C   0  0  0  0  0  0  0  0  0  0  0  0
   10.2742    6.0878    0.0000 C   0  0  0  0  0  0  0  0  0  0  0  0
    8.6561    6.0878    0.0000 C   0  0  0  0  0  0  0  0  0  0  0  0
    7.7331    1.5000    0.0000 C   0  0  0  0  0  0  0  0  0  0  0  0
    9.4651    1.5000    0.0000 C   0  0  0  0  0  0  0  0  0  0  0  0
    8.5991    1.0000    0.0000 C   0  0  0  0  0  0  0  0  0  0  0  0
    9.9651    7.0388    0.0000 C   0  0  0  0  0  0  0  0  0  0  0  0
    6.8671    7.0000    0.0000 C   0  0  0  0  0  0  0  0  0  0  0  0
    6.0010    5.5000    0.0000 C   0  0  0  0  0  0  0  0  0  0  0  0
    6.0010    7.5000    0.0000 C   0  0  0  0  0  0  0  0  0  0  0  0
    5.1350    6.0000    0.0000 C   0  0  0  0  0  0  0  0  0  0  0  0
    5.1350    7.0000    0.0000 C   0  0  0  0  0  0  0  0  0  0  0  0
    8.0622    3.6900    0.0000 H   0  0  0  0  0  0  0  0  0  0  0  0
    9.6772    3.9174    0.0000 H   0  0  0  0  0  0  0  0  0  0  0  0
   10.0757    4.6077    0.0000 H   0  0  0  0  0  0  0  0  0  0  0  0
    8.3437    5.3923    0.0000 H   0  0  0  0  0  0  0  0  0  0  0  0
    7.9451    6.0826    0.0000 H   0  0  0  0  0  0  0  0  0  0  0  0
   10.0021    2.8100    0.0000 H   0  0  0  0  0  0  0  0  0  0  0  0
   10.8638    5.8962    0.0000 H   0  0  0  0  0  0  0  0  0  0  0  0
    8.0665    5.8962    0.0000 H   0  0  0  0  0  0  0  0  0  0  0  0
    7.1962    1.1900    0.0000 H   0  0  0  0  0  0  0  0  0  0  0  0
   10.0021    1.1900    0.0000 H   0  0  0  0  0  0  0  0  0  0  0  0
   10.3296    7.5404    0.0000 H   0  0  0  0  0  0  0  0  0  0  0  0
    7.4040    7.3100    0.0000 H   0  0  0  0  0  0  0  0  0  0  0  0
    6.0010    4.8800    0.0000 H   0  0  0  0  0  0  0  0  0  0  0  0
    6.0010    8.1200    0.0000 H   0  0  0  0  0  0  0  0  0  0  0  0
    4.5981    5.6900    0.0000 H   0  0  0  0  0  0  0  0  0  0  0  0
    2.2690    4.5000    0.0000 H   0  0  0  0  0  0  0  0  0  0  0  0
  1 15  1  0  0  0  0
  2 22  1  0  0  0  0
  3 28  1  0  0  0  0
  4 11  1  0  0  0  0
  4 14  1  0  0  0  0
  5 10  1  0  0  0  0
  5 44  1  0  0  0  0
  6 10  1  0  0  0  0
  7 10  2  0  0  0  0
  8 12  1  0  0  0  0
  8 18  1  0  0  0  0
  8 19  1  0  0  0  0
  9 19  2  0  0  0  0
  9 23  1  0  0  0  0
 11 12  1  0  0  0  0
 11 13  1  0  0  0  0
 11 29  1  0  0  0  0
 12 30  1  0  0  0  0
 12 31  1  0  0  0  0
 13 15  2  0  0  0  0
 13 16  1  0  0  0  0
 14 17  1  0  0  0  0
 14 32  1  0  0  0  0
 14 33  1  0  0  0  0
 15 20  1  0  0  0  0
 16 21  2  0  0  0  0
 16 34  1  0  0  0  0
 17 24  2  0  0  0  0
 17 25  1  0  0  0  0
 18 23  2  0  0  0  0
 18 35  1  0  0  0  0
 19 36  1  0  0  0  0
 20 22  2  0  0  0  0
 20 37  1  0  0  0  0
 21 22  1  0  0  0  0
 21 38  1  0  0  0  0
 23 39  1  0  0  0  0
 24 26  1  0  0  0  0
 24 40  1  0  0  0  0
 25 27  2  0  0  0  0
 25 41  1  0  0  0  0
 26 28  2  0  0  0  0
 26 42  1  0  0  0  0
 27 28  1  0  0  0  0
 27 43  1  0  0  0  0
M  CHG  2   6  -1  10   1
M  END
> <PUBCHEM_COMPOUND_CID>
68589

> <PUBCHEM_COMPOUND_CANONICALIZED>
1

> <PUBCHEM_CACTVS_COMPLEXITY>
404

> <PUBCHEM_CACTVS_HBOND_ACCEPTOR>
5

> <PUBCHEM_CACTVS_HBOND_DONOR>
1

> <PUBCHEM_CACTVS_ROTATABLE_BOND>
6

> <PUBCHEM_CACTVS_SUBSKEYS>
AAADceB7OAAGAAAAAAAAAAAAAAAAAWAAAAAwYAAAAAAAAAAB0AAAHgIECAAADBbhmiY9kJcMVAChAjBnZQACgC0xF6AJyAAYOoiKbiKBuxmXMAAswAOYqCeQwKAOBAAAAACBAAAIAAAAAQIAAAAAAAAAAA==

> <PUBCHEM_IUPAC_OPENEYE_NAME>
1-[2-[(4-chlorophenyl)methoxy]-2-(2,4-dichlorophenyl)ethyl]imidazole; nitric acid

> <PUBCHEM_IUPAC_CAS_NAME>
1-[2-[(4-chlorophenyl)methoxy]-2-(2,4-dichlorophenyl)ethyl]imidazole; nitric acid

> <PUBCHEM_IUPAC_NAME>
1-[2-[(4-chlorophenyl)methoxy]-2-(2,4-dichlorophenyl)ethyl]imidazole; nitric acid

> <PUBCHEM_IUPAC_SYSTEMATIC_NAME>
1-[2-[(4-chlorophenyl)methoxy]-2-(2,4-dichlorophenyl)ethyl]imidazole; nitric acid

> <PUBCHEM_IUPAC_TRADITIONAL_NAME>
1-[2-(4-chlorobenzyl)oxy-2-(2,4-dichlorophenyl)ethyl]imidazole; nitric acid

> <PUBCHEM_IUPAC_INCHI>
InChI=1S/C18H15Cl3N2O.HNO3/c19-14-3-1-13(2-4-14)11-24-18(10-23-8-7-22-12-23)16-6-5-15(20)9-17(16)21;2-1(3)4/h1-9,12,18H,10-11H2;(H,2,3,4)

> <PUBCHEM_IUPAC_INCHIKEY>
DDXORDQKGIZAME-UHFFFAOYSA-N

> <PUBCHEM_EXACT_MASS>
443.020639

> <PUBCHEM_MOLECULAR_FORMULA>
C18H16Cl3N3O4

> <PUBCHEM_MOLECULAR_WEIGHT>
444.69634

> <PUBCHEM_OPENEYE_CAN_SMILES>
C1=CC(=CC=C1COC(CN2C=CN=C2)C3=C(C=C(C=C3)Cl)Cl)Cl.[N+](=O)(O)[O-]

> <PUBCHEM_OPENEYE_ISO_SMILES>
C1=CC(=CC=C1COC(CN2C=CN=C2)C3=C(C=C(C=C3)Cl)Cl)Cl.[N+](=O)(O)[O-]

> <PUBCHEM_CACTVS_TPSA>
93.1

> <PUBCHEM_MONOISOTOPIC_WEIGHT>
443.020639

> <PUBCHEM_TOTAL_CHARGE>
0

> <PUBCHEM_HEAVY_ATOM_COUNT>
28

> <PUBCHEM_ATOM_DEF_STEREO_COUNT>
0

> <PUBCHEM_ATOM_UDEF_STEREO_COUNT>
1

> <PUBCHEM_BOND_DEF_STEREO_COUNT>
0

> <PUBCHEM_BOND_UDEF_STEREO_COUNT>
0

> <PUBCHEM_ISOTOPIC_ATOM_COUNT>
0

> <PUBCHEM_COMPONENT_COUNT>
2

> <PUBCHEM_CACTVS_TAUTO_COUNT>
1

> <PUBCHEM_COORDINATE_TYPE>
1
5
255

> <PUBCHEM_BONDANNOTATIONS>
11  12  3
13  15  8
13  16  8
15  20  8
16  21  8
17  24  8
17  25  8
18  23  8
20  22  8
21  22  8
24  26  8
25  27  8
26  28  8
27  28  8
8  18  8
8  19  8
9  19  8
9  23  8

$$$$

