8948
  -OEChem-07051212532D

 10  9  0     0  0  0  0  0  0999 V2000
    3.4030    0.0000    0.0000 As  0  0  0  0  0  0  0  0  0  0  0  0
    4.2690    0.5000    0.0000 O   0  0  0  0  0  0  0  0  0  0  0  0
    2.5369   -0.5000    0.0000 O   0  0  0  0  0  0  0  0  0  0  0  0
    3.9030   -0.8660    0.0000 O   0  0  0  0  0  0  0  0  0  0  0  0
    2.9030    0.8660    0.0000 C   0  0  0  0  0  0  0  0  0  0  0  0
    3.4399    1.1760    0.0000 H   0  0  0  0  0  0  0  0  0  0  0  0
    2.5930    1.4030    0.0000 H   0  0  0  0  0  0  0  0  0  0  0  0
    2.3660    0.5560    0.0000 H   0  0  0  0  0  0  0  0  0  0  0  0
    4.8059    0.1900    0.0000 H   0  0  0  0  0  0  0  0  0  0  0  0
    2.0000   -0.1900    0.0000 H   0  0  0  0  0  0  0  0  0  0  0  0
  1  2  1  0  0  0  0
  1  3  1  0  0  0  0
  1  4  2  0  0  0  0
  1  5  1  0  0  0  0
  2  9  1  0  0  0  0
  3 10  1  0  0  0  0
  5  6  1  0  0  0  0
  5  7  1  0  0  0  0
  5  8  1  0  0  0  0
M  END
> <PUBCHEM_COMPOUND_CID>
8948

> <PUBCHEM_COMPOUND_CANONICALIZED>
1

> <PUBCHEM_CACTVS_COMPLEXITY>
61.3

> <PUBCHEM_CACTVS_HBOND_ACCEPTOR>
3

> <PUBCHEM_CACTVS_HBOND_DONOR>
2

> <PUBCHEM_CACTVS_ROTATABLE_BOND>
0

> <PUBCHEM_CACTVS_SUBSKEYS>
AAADcYAAMAAAAAAAQAAAAAAAAAAAAAAAAAAAAAAAAAAAAAAAAAAAEAEACAAAAAAAAAACAAAAAAAAAAAAAAAAAAAAAACAAAAAAAAAAAAAAAAAAAAAAAAAAAAAAAAAAAAAAAAAAAAAAAAAAAAAAAAAAAAAAA==

> <PUBCHEM_IUPAC_OPENEYE_NAME>
methylarsonic acid

> <PUBCHEM_IUPAC_CAS_NAME>
methylarsonic acid

> <PUBCHEM_IUPAC_NAME>
methylarsonic acid

> <PUBCHEM_IUPAC_SYSTEMATIC_NAME>
methylarsonic acid

> <PUBCHEM_IUPAC_TRADITIONAL_NAME>
methylarsonic acid

> <PUBCHEM_IUPAC_INCHI>
InChI=1S/CH5AsO3/c1-2(3,4)5/h1H3,(H2,3,4,5)

> <PUBCHEM_IUPAC_INCHIKEY>
QYPPRTNMGCREIM-UHFFFAOYSA-N

> <PUBCHEM_EXACT_MASS>
139.945466

> <PUBCHEM_MOLECULAR_FORMULA>
CH5AsO3

> <PUBCHEM_MOLECULAR_WEIGHT>
139.9702

> <PUBCHEM_OPENEYE_CAN_SMILES>
C[As](=O)(O)O

> <PUBCHEM_OPENEYE_ISO_SMILES>
C[As](=O)(O)O

> <PUBCHEM_CACTVS_TPSA>
57.5

> <PUBCHEM_MONOISOTOPIC_WEIGHT>
139.945466

> <PUBCHEM_TOTAL_CHARGE>
0

> <PUBCHEM_HEAVY_ATOM_COUNT>
5

> <PUBCHEM_ATOM_DEF_STEREO_COUNT>
0

> <PUBCHEM_ATOM_UDEF_STEREO_COUNT>
0

> <PUBCHEM_BOND_DEF_STEREO_COUNT>
0

> <PUBCHEM_BOND_UDEF_STEREO_COUNT>
0

> <PUBCHEM_ISOTOPIC_ATOM_COUNT>
0

> <PUBCHEM_COMPONENT_COUNT>
1

> <PUBCHEM_CACTVS_TAUTO_COUNT>
1

> <PUBCHEM_COORDINATE_TYPE>
1
5
255

$$$$

