   Color/Form
        Colorless gas
   from [1]HSDB

   Odor

     * Sharp, irritating odor
     * Acrid odor

   from [2]HSDB

   Taste
        Fumes have a sour taste
   from [3]HSDB

   Boiling Point
        -66.8 deg C at 760 mm Hg
   from [4]HSDB

   Melting Point
        -86.9 deg C
   from [5]HSDB

   Corrosivity
        Corrosive
   from [6]HSDB

   Critical Temperature and Pressure
        Critical temperature: 89.8 deg C; critical pressure: 84.5 atm
   from [7]HSDB

   Density/Specific Gravity
        3.307 g/L
   from [8]HSDB

   Heat of Vaporization
        51.3 cal/g at boiling point
   from [9]HSDB

   pH
        Aqueous solutions are strongly acidic
   from [10]HSDB

   Solubilities

     * 221 g/100 cc water at 0 deg C; 130 g/100 cc water at 100 deg C
     * Freely soluble in water; 1 volume of water dissolves 600 volumes of
       HBr at 0 deg C; soluble in alcohol; soluble in organic solvents
     * 204.0 g/ 100 g water at 15 deg C

   from [11]HSDB

   Vapor Density
        2.71 (Air = 1)
   from [12]HSDB

   Vapor Pressure
        18,410 mm Hg at 25 deg C
   from [13]HSDB

   Other Chemical/Physical Properties

     * Boiling point: -4.8 deg C at 11.0 atm; 12 deg C at 17.1 atm; 36 deg
       C at 30.0 atm; 70 deg C at 59.2 atm; specific heat (cal/g deg C):
       0.152 at -91 deg C (solid); 0.176 (liquid); 0.085 at 27 deg C
       (gas); heat of fusion at melting point: 7.44 cal/g; saturated
       solution contains 68.85% HBr at 0 deg C and 66% at 25 deg C
       /Hydrogen bromide/
     * Colorless or faintly yellow; slowly darkens on exposure to air and
       light; miscible with water, alcohol; density: 1.517 (50% HBr
       solution); 1.38 (40% HBr solution); 1.13 (34% HBr solution); 1.08
       (10% HBr solution); miscible with water and alcohol /Hydrobromic
       acid/
     * Conversion factor: 1 ppm = 3.31 mg/cu m
     * Henry's law constant: 1.32X10+9 mol/L atm (7.58X10-13 cu m atm/mol)
       /Hydrobromic acid/

   from [14]HSDB

   Computed Properties
   Molecular Weight                  80.91194 [g/mol]
   Molecular Formula                 BrH
   XLogP3-AA                         1
   H-Bond Donor                      0
   H-Bond Acceptor                   0
   Rotatable Bond Count              0
   Exact Mass                        79.926162
   MonoIsotopic Mass                 79.926162
   Topological Polar Surface Area    0
   Heavy Atom Count                  1
   Formal Charge                     0
   Complexity                        0
   Isotope Atom Count                0
   Defined Atom Stereocenter Count   0
   Undefined Atom Stereocenter Count 0
   Defined Bond Stereocenter Count   0
   Undefined Bond Stereocenter Count 0
   Covalently-Bonded Unit Count      1
   Feature 3D Anion Count            1
   Effective Rotor Count             0
   Conformer Sampling RMSD           0.4
   CID Conformer Count               [15]1

References

   1. http://toxnet.nlm.nih.gov/cgi-bin/sis/search/r?dbs+hsdb:@term+@rn+@rel+10035-10-6
   2. http://toxnet.nlm.nih.gov/cgi-bin/sis/search/r?dbs+hsdb:@term+@rn+@rel+10035-10-6
   3. http://toxnet.nlm.nih.gov/cgi-bin/sis/search/r?dbs+hsdb:@term+@rn+@rel+10035-10-6
   4. http://toxnet.nlm.nih.gov/cgi-bin/sis/search/r?dbs+hsdb:@term+@rn+@rel+10035-10-6
   5. http://toxnet.nlm.nih.gov/cgi-bin/sis/search/r?dbs+hsdb:@term+@rn+@rel+10035-10-6
   6. http://toxnet.nlm.nih.gov/cgi-bin/sis/search/r?dbs+hsdb:@term+@rn+@rel+10035-10-6
   7. http://toxnet.nlm.nih.gov/cgi-bin/sis/search/r?dbs+hsdb:@term+@rn+@rel+10035-10-6
   8. http://toxnet.nlm.nih.gov/cgi-bin/sis/search/r?dbs+hsdb:@term+@rn+@rel+10035-10-6
   9. http://toxnet.nlm.nih.gov/cgi-bin/sis/search/r?dbs+hsdb:@term+@rn+@rel+10035-10-6
  10. http://toxnet.nlm.nih.gov/cgi-bin/sis/search/r?dbs+hsdb:@term+@rn+@rel+10035-10-6
  11. http://toxnet.nlm.nih.gov/cgi-bin/sis/search/r?dbs+hsdb:@term+@rn+@rel+10035-10-6
  12. http://toxnet.nlm.nih.gov/cgi-bin/sis/search/r?dbs+hsdb:@term+@rn+@rel+10035-10-6
  13. http://toxnet.nlm.nih.gov/cgi-bin/sis/search/r?dbs+hsdb:@term+@rn+@rel+10035-10-6
  14. http://toxnet.nlm.nih.gov/cgi-bin/sis/search/r?dbs+hsdb:@term+@rn+@rel+10035-10-6
  15. http://pubchem.ncbi.nlm.nih.gov/vw3d/vw3d.cgi?cid=260
