7543
  -OEChem-07051213002D

 29 30  0     0  0  0  0  0  0999 V2000
    2.0000    2.1550    0.0000 Cl  0  0  0  0  0  0  0  0  0  0  0  0
    7.1962   -0.8450    0.0000 Cl  0  0  0  0  0  0  0  0  0  0  0  0
    3.7320    3.1550    0.0000 N   0  0  0  0  0  0  0  0  0  0  0  0
    7.1962   -2.8450    0.0000 N   0  0  0  0  0  0  0  0  0  0  0  0
    3.7320   -0.8450    0.0000 C   0  0  0  0  0  0  0  0  0  0  0  0
    3.7320    0.1550    0.0000 C   0  0  0  0  0  0  0  0  0  0  0  0
    4.5981   -1.3450    0.0000 C   0  0  0  0  0  0  0  0  0  0  0  0
    2.8660    0.6550    0.0000 C   0  0  0  0  0  0  0  0  0  0  0  0
    5.4641   -0.8450    0.0000 C   0  0  0  0  0  0  0  0  0  0  0  0
    4.5981    0.6550    0.0000 C   0  0  0  0  0  0  0  0  0  0  0  0
    4.5981   -2.3450    0.0000 C   0  0  0  0  0  0  0  0  0  0  0  0
    2.8660    1.6550    0.0000 C   0  0  0  0  0  0  0  0  0  0  0  0
    6.3301   -1.3450    0.0000 C   0  0  0  0  0  0  0  0  0  0  0  0
    4.5981    1.6550    0.0000 C   0  0  0  0  0  0  0  0  0  0  0  0
    5.4641   -2.8450    0.0000 C   0  0  0  0  0  0  0  0  0  0  0  0
    3.7320    2.1550    0.0000 C   0  0  0  0  0  0  0  0  0  0  0  0
    6.3301   -2.3450    0.0000 C   0  0  0  0  0  0  0  0  0  0  0  0
    3.1215   -0.7373    0.0000 H   0  0  0  0  0  0  0  0  0  0  0  0
    3.5200   -1.4276    0.0000 H   0  0  0  0  0  0  0  0  0  0  0  0
    2.3291    0.3450    0.0000 H   0  0  0  0  0  0  0  0  0  0  0  0
    5.4641   -0.2250    0.0000 H   0  0  0  0  0  0  0  0  0  0  0  0
    5.1350    0.3450    0.0000 H   0  0  0  0  0  0  0  0  0  0  0  0
    4.0611   -2.6550    0.0000 H   0  0  0  0  0  0  0  0  0  0  0  0
    5.1350    1.9650    0.0000 H   0  0  0  0  0  0  0  0  0  0  0  0
    5.4641   -3.4650    0.0000 H   0  0  0  0  0  0  0  0  0  0  0  0
    4.2690    3.4650    0.0000 H   0  0  0  0  0  0  0  0  0  0  0  0
    3.1951    3.4650    0.0000 H   0  0  0  0  0  0  0  0  0  0  0  0
    7.1962   -3.4650    0.0000 H   0  0  0  0  0  0  0  0  0  0  0  0
    7.7331   -2.5350    0.0000 H   0  0  0  0  0  0  0  0  0  0  0  0
  1 12  1  0  0  0  0
  2 13  1  0  0  0  0
  3 16  1  0  0  0  0
  3 26  1  0  0  0  0
  3 27  1  0  0  0  0
  4 17  1  0  0  0  0
  4 28  1  0  0  0  0
  4 29  1  0  0  0  0
  5  6  1  0  0  0  0
  5  7  1  0  0  0  0
  5 18  1  0  0  0  0
  5 19  1  0  0  0  0
  6  8  2  0  0  0  0
  6 10  1  0  0  0  0
  7  9  2  0  0  0  0
  7 11  1  0  0  0  0
  8 12  1  0  0  0  0
  8 20  1  0  0  0  0
  9 13  1  0  0  0  0
  9 21  1  0  0  0  0
 10 14  2  0  0  0  0
 10 22  1  0  0  0  0
 11 15  2  0  0  0  0
 11 23  1  0  0  0  0
 12 16  2  0  0  0  0
 13 17  2  0  0  0  0
 14 16  1  0  0  0  0
 14 24  1  0  0  0  0
 15 17  1  0  0  0  0
 15 25  1  0  0  0  0
M  END
> <PUBCHEM_COMPOUND_CID>
7543

> <PUBCHEM_COMPOUND_CANONICALIZED>
1

> <PUBCHEM_CACTVS_COMPLEXITY>
226

> <PUBCHEM_CACTVS_HBOND_ACCEPTOR>
2

> <PUBCHEM_CACTVS_HBOND_DONOR>
2

> <PUBCHEM_CACTVS_ROTATABLE_BOND>
2

> <PUBCHEM_CACTVS_SUBSKEYS>
AAADccBzAAAGAAAAAAAAAAAAAAAAAAAAAAAwYAAAAAAAAAABQAAAHAIQAAAADAqBGCAwwIBAAACAAiRCQACCAAAgBwAIiAAAZogIICKBk5GAIABgkAAIyAcQgMAOCAAAIAAAABAQAABAAAAAIAAAAAAAAA==

> <PUBCHEM_IUPAC_OPENEYE_NAME>
4-[(4-amino-3-chloro-phenyl)methyl]-2-chloro-aniline

> <PUBCHEM_IUPAC_CAS_NAME>
4-[(4-amino-3-chlorophenyl)methyl]-2-chloroaniline

> <PUBCHEM_IUPAC_NAME>
4-[(4-amino-3-chlorophenyl)methyl]-2-chloroaniline

> <PUBCHEM_IUPAC_SYSTEMATIC_NAME>
4-[(4-azanyl-3-chloranyl-phenyl)methyl]-2-chloranyl-aniline

> <PUBCHEM_IUPAC_TRADITIONAL_NAME>
[4-(4-amino-3-chloro-benzyl)-2-chloro-phenyl]amine

> <PUBCHEM_IUPAC_INCHI>
InChI=1S/C13H12Cl2N2/c14-10-6-8(1-3-12(10)16)5-9-2-4-13(17)11(15)7-9/h1-4,6-7H,5,16-17H2

> <PUBCHEM_IUPAC_INCHIKEY>
IBOFVQJTBBUKMU-UHFFFAOYSA-N

> <PUBCHEM_XLOGP3>
3.8

> <PUBCHEM_EXACT_MASS>
266.037754

> <PUBCHEM_MOLECULAR_FORMULA>
C13H12Cl2N2

> <PUBCHEM_MOLECULAR_WEIGHT>
267.15378

> <PUBCHEM_OPENEYE_CAN_SMILES>
C1=CC(=C(C=C1CC2=CC(=C(C=C2)N)Cl)Cl)N

> <PUBCHEM_OPENEYE_ISO_SMILES>
C1=CC(=C(C=C1CC2=CC(=C(C=C2)N)Cl)Cl)N

> <PUBCHEM_CACTVS_TPSA>
52

> <PUBCHEM_MONOISOTOPIC_WEIGHT>
266.037754

> <PUBCHEM_TOTAL_CHARGE>
0

> <PUBCHEM_HEAVY_ATOM_COUNT>
17

> <PUBCHEM_ATOM_DEF_STEREO_COUNT>
0

> <PUBCHEM_ATOM_UDEF_STEREO_COUNT>
0

> <PUBCHEM_BOND_DEF_STEREO_COUNT>
0

> <PUBCHEM_BOND_UDEF_STEREO_COUNT>
0

> <PUBCHEM_ISOTOPIC_ATOM_COUNT>
0

> <PUBCHEM_COMPONENT_COUNT>
1

> <PUBCHEM_CACTVS_TAUTO_COUNT>
1

> <PUBCHEM_COORDINATE_TYPE>
1
5
255

> <PUBCHEM_BONDANNOTATIONS>
10  14  8
11  15  8
12  16  8
13  17  8
14  16  8
15  17  8
6  10  8
6  8  8
7  11  8
7  9  8
8  12  8
9  13  8

$$$$

