164722
  -OEChem-07051213102D

 36 38  0     1  0  0  0  0  0999 V2000
    3.9061   -1.4953    0.0000 O   0  0  0  0  0  0  0  0  0  0  0  0
    2.1359    0.5635    0.0000 O   0  0  0  0  0  0  0  0  0  0  0  0
    7.4260   -1.4953    0.0000 O   0  0  0  0  0  0  0  0  0  0  0  0
    5.6660    1.5394    0.0000 O   0  0  0  0  0  0  0  0  0  0  0  0
    7.4144    1.5740    0.0000 O   0  0  0  0  0  0  0  0  0  0  0  0
    3.0000   -0.9814    0.0000 C   0  0  0  0  0  0  0  0  0  0  0  0
    3.0000    0.0602    0.0000 C   0  0  2  0  0  0  0  0  0  0  0  0
    3.9061    0.5740    0.0000 C   0  0  0  0  0  0  0  0  0  0  0  0
    4.8000    0.0394    0.0000 C   0  0  0  0  0  0  0  0  0  0  0  0
    4.8000   -0.9606    0.0000 C   0  0  0  0  0  0  0  0  0  0  0  0
    2.0000   -0.9853    0.0000 C   0  0  0  0  0  0  0  0  0  0  0  0
    2.5033   -1.8494    0.0000 C   0  0  0  0  0  0  0  0  0  0  0  0
    5.6660    0.5394    0.0000 C   0  0  0  0  0  0  0  0  0  0  0  0
    5.6660   -1.4606    0.0000 C   0  0  0  0  0  0  0  0  0  0  0  0
    6.5320    0.0394    0.0000 C   0  0  0  0  0  0  0  0  0  0  0  0
    6.5320   -0.9606    0.0000 C   0  0  0  0  0  0  0  0  0  0  0  0
    7.4260    0.5740    0.0000 C   0  0  0  0  0  0  0  0  0  0  0  0
    8.3321   -0.9814    0.0000 C   0  0  0  0  0  0  0  0  0  0  0  0
    8.3321    0.0602    0.0000 C   0  0  0  0  0  0  0  0  0  0  0  0
    9.1962   -1.4848    0.0000 C   0  0  0  0  0  0  0  0  0  0  0  0
    3.0036    0.6802    0.0000 H   0  0  0  0  0  0  0  0  0  0  0  0
    4.3107    1.0438    0.0000 H   0  0  0  0  0  0  0  0  0  0  0  0
    3.5124    1.0531    0.0000 H   0  0  0  0  0  0  0  0  0  0  0  0
    1.9976   -0.3653    0.0000 H   0  0  0  0  0  0  0  0  0  0  0  0
    1.3800   -0.9877    0.0000 H   0  0  0  0  0  0  0  0  0  0  0  0
    2.0024   -1.6053    0.0000 H   0  0  0  0  0  0  0  0  0  0  0  0
    1.9652   -1.5414    0.0000 H   0  0  0  0  0  0  0  0  0  0  0  0
    2.1954   -2.3875    0.0000 H   0  0  0  0  0  0  0  0  0  0  0  0
    3.0415   -2.1573    0.0000 H   0  0  0  0  0  0  0  0  0  0  0  0
    5.6660   -2.0806    0.0000 H   0  0  0  0  0  0  0  0  0  0  0  0
    2.1383    1.1835    0.0000 H   0  0  0  0  0  0  0  0  0  0  0  0
    5.1291    1.8494    0.0000 H   0  0  0  0  0  0  0  0  0  0  0  0
    8.8678    0.3723    0.0000 H   0  0  0  0  0  0  0  0  0  0  0  0
    8.8841   -2.0205    0.0000 H   0  0  0  0  0  0  0  0  0  0  0  0
    9.7319   -1.7968    0.0000 H   0  0  0  0  0  0  0  0  0  0  0  0
    9.5082   -0.9490    0.0000 H   0  0  0  0  0  0  0  0  0  0  0  0
  1  6  1  0  0  0  0
  1 10  1  0  0  0  0
  7  2  1  1  0  0  0
  2 31  1  0  0  0  0
  3 16  1  0  0  0  0
  3 18  1  0  0  0  0
  4 13  1  0  0  0  0
  4 32  1  0  0  0  0
  5 17  2  0  0  0  0
  6  7  1  0  0  0  0
  6 11  1  0  0  0  0
  6 12  1  0  0  0  0
  7  8  1  0  0  0  0
  7 21  1  0  0  0  0
  8  9  1  0  0  0  0
  8 22  1  0  0  0  0
  8 23  1  0  0  0  0
  9 10  2  0  0  0  0
  9 13  1  0  0  0  0
 10 14  1  0  0  0  0
 11 24  1  0  0  0  0
 11 25  1  0  0  0  0
 11 26  1  0  0  0  0
 12 27  1  0  0  0  0
 12 28  1  0  0  0  0
 12 29  1  0  0  0  0
 13 15  2  0  0  0  0
 14 16  2  0  0  0  0
 14 30  1  0  0  0  0
 15 16  1  0  0  0  0
 15 17  1  0  0  0  0
 17 19  1  0  0  0  0
 18 19  2  0  0  0  0
 18 20  1  0  0  0  0
 19 33  1  0  0  0  0
 20 34  1  0  0  0  0
 20 35  1  0  0  0  0
 20 36  1  0  0  0  0
M  END
> <PUBCHEM_COMPOUND_CID>
164722

> <PUBCHEM_COMPOUND_CANONICALIZED>
1

> <PUBCHEM_CACTVS_COMPLEXITY>
455

> <PUBCHEM_CACTVS_HBOND_ACCEPTOR>
5

> <PUBCHEM_CACTVS_HBOND_DONOR>
2

> <PUBCHEM_CACTVS_ROTATABLE_BOND>
0

> <PUBCHEM_CACTVS_SUBSKEYS>
AAADceBwOAAAAAAAAAAAAAAAAAAAAAAAAAA0QIAAAAAAAACRAAAAGgAACAAADFSgmAIyBoAABgCIAqBSAAACCAAkIAAAiAEGCMgNNzaGNRqCeWCl4BULuQfI7PzOIAACCAAIAABAAAQQABAAAAAAAAAAAA==

> <PUBCHEM_IUPAC_OPENEYE_NAME>
(3S)-3,5-dihydroxy-2,2,8-trimethyl-3,4-dihydropyrano[3,2-g]chromen-6-one

> <PUBCHEM_IUPAC_CAS_NAME>
(3S)-3,5-dihydroxy-2,2,8-trimethyl-3,4-dihydropyrano[3,2-g][1]benzopyran-6-one

> <PUBCHEM_IUPAC_NAME>
(3S)-3,5-dihydroxy-2,2,8-trimethyl-3,4-dihydropyrano[3,2-g]chromen-6-one

> <PUBCHEM_IUPAC_SYSTEMATIC_NAME>
(3S)-2,2,8-trimethyl-3,5-bis(oxidanyl)-3,4-dihydropyrano[3,2-g]chromen-6-one

> <PUBCHEM_IUPAC_TRADITIONAL_NAME>
(3S)-3,5-dihydroxy-2,2,8-trimethyl-3,4-dihydropyrano[3,2-g]chromen-6-one

> <PUBCHEM_IUPAC_INCHI>
InChI=1S/C15H16O5/c1-7-4-9(16)13-11(19-7)6-10-8(14(13)18)5-12(17)15(2,3)20-10/h4,6,12,17-18H,5H2,1-3H3/t12-/m0/s1

> <PUBCHEM_IUPAC_INCHIKEY>
VOTLUFSYIRHICX-LBPRGKRZSA-N

> <PUBCHEM_XLOGP3_AA>
2.1

> <PUBCHEM_EXACT_MASS>
276.099774

> <PUBCHEM_MOLECULAR_FORMULA>
C15H16O5

> <PUBCHEM_MOLECULAR_WEIGHT>
276.28454

> <PUBCHEM_OPENEYE_CAN_SMILES>
CC1=CC(=O)C2=C(C3=C(C=C2O1)OC(C(C3)O)(C)C)O

> <PUBCHEM_OPENEYE_ISO_SMILES>
CC1=CC(=O)C2=C(C3=C(C=C2O1)OC([C@H](C3)O)(C)C)O

> <PUBCHEM_CACTVS_TPSA>
76

> <PUBCHEM_MONOISOTOPIC_WEIGHT>
276.099774

> <PUBCHEM_TOTAL_CHARGE>
0

> <PUBCHEM_HEAVY_ATOM_COUNT>
20

> <PUBCHEM_ATOM_DEF_STEREO_COUNT>
1

> <PUBCHEM_ATOM_UDEF_STEREO_COUNT>
0

> <PUBCHEM_BOND_DEF_STEREO_COUNT>
0

> <PUBCHEM_BOND_UDEF_STEREO_COUNT>
0

> <PUBCHEM_ISOTOPIC_ATOM_COUNT>
0

> <PUBCHEM_COMPONENT_COUNT>
1

> <PUBCHEM_CACTVS_TAUTO_COUNT>
14

> <PUBCHEM_COORDINATE_TYPE>
1
5
255

> <PUBCHEM_BONDANNOTATIONS>
10  14  8
13  15  8
14  16  8
15  16  8
15  17  8
17  19  8
18  19  8
7  2  5
3  16  8
3  18  8
9  10  8
9  13  8

$$$$

