   Color/Form

     * CRYSTALS FROM METHANOL
     * Crystals

   from [1]HSDB

   Melting Point
        222-223 deg C, decomposes
   from [2]HSDB

   Solubilities
        Slightly soluble in water, solubl.e in polar organic solvents
   from [3]HSDB

   Spectral Properties

     * SPECIFIC OPTICAL ROTATION: +21.54 DEG @ 24 DEG C/D (ETHANOL; 1.3%);
       MAX ABSORPTION (METHANOL): 218 NM (E= 7,500)
     * UV max (methanol)= 218 nm

   from [4]HSDB

   Computed Properties
   Molecular Weight                  312.3151 [g/mol]
   Molecular Formula                 C[15]H[20]O[7]
   XLogP3-AA                         -1.7
   H-Bond Donor                      4
   H-Bond Acceptor                   7
   Rotatable Bond Count              1
   Tautomer Count                    8
   Exact Mass                        312.120903
   MonoIsotopic Mass                 312.120903
   Topological Polar Surface Area    120
   Heavy Atom Count                  22
   Formal Charge                     0
   Complexity                        588
   Isotope Atom Count                0
   Defined Atom Stereocenter Count   8
   Undefined Atom Stereocenter Count 0
   Defined Bond Stereocenter Count   0
   Undefined Bond Stereocenter Count 0
   Covalently-Bonded Unit Count      1
   Feature 3D Acceptor Count         7
   Feature 3D Donor Count            4
   Feature 3D Ring Count             2
   Effective Rotor Count             2.2
   Conformer Sampling RMSD           0.6
   CID Conformer Count               [5]1

References

   1. http://toxnet.nlm.nih.gov/cgi-bin/sis/search/r?dbs+hsdb:@term+@rn+@rel+23282-20-4
   2. http://toxnet.nlm.nih.gov/cgi-bin/sis/search/r?dbs+hsdb:@term+@rn+@rel+23282-20-4
   3. http://toxnet.nlm.nih.gov/cgi-bin/sis/search/r?dbs+hsdb:@term+@rn+@rel+23282-20-4
   4. http://toxnet.nlm.nih.gov/cgi-bin/sis/search/r?dbs+hsdb:@term+@rn+@rel+23282-20-4
   5. http://pubchem.ncbi.nlm.nih.gov/vw3d/vw3d.cgi?cid=440908
