   Color/Form
        Prisms from alcohol
   from [1]HSDB

   Melting Point
        198 deg C
   from [2]HSDB

   Dissociation Constants
        pKa = 8.23
   from [3]HSDB

   Octanol/Water Partition Coefficient
        log Kow = 2.16 (est)
   from [4]HSDB

   Solubilities

     * Sol in alcohol, dilute acids; insol in water
     * SLIGHTLY SOL IN PETROLEUM ETHER
     * In water, 6.87X10+3 mg/L at 25 deg C (est)

   from [5]HSDB

   Spectral Properties

     * Maximum absorption: 280 nm (e = 1310)
     * Intense mass spectral peaks: 59 m/z, 96 m/z, 185 m/z, 242 m/z, 299
       m/z
     * MASS: 60616 (NIST/EPA/MSDC Mass Spectral database, 1990 version)
     * UV: 151 (Absorption Spectra in the UV and Visible Region, Academic
       Press, New York)

   from [6]HSDB

   Vapor Pressure
        2.83X10-7 mm Hg at 25 deg C (est)
   from [7]HSDB

   Other Chemical/Physical Properties

     * Crystals; melting point 185-186 deg C, decomposes; specific optical
       rotation: -130 deg at 27 deg C/D (concentration by volume = 2.877 g
       ub 100 mL water); very sol in water /hydrocodone hydrochloride
       monohydrate/
     * Needles; 1 g sol in 16 mL H2O and in 150 g 95% ethanol; almost
       insoluble in ether, chloroform; pH: ca 3.6 (2% aq soln)
       /Hydrocodone bitartrate hemipentahydrate/
     * MP: 219-220 deg C /Hydrocodone hydriodide/
     * MP: 250-225 deg C /Hydrocodone methiodide/
     * Henry's Law constant = 6.37X10-12 atm-cu m/mol at 25 deg C (est)
     * Hydroxyl radical reaction rate constant = 1.80X10-10 cu
       cm/molec-sec at 25 deg C (est)

   from [8]HSDB

   Computed Properties
   Molecular Weight                  299.36424 [g/mol]
   Molecular Formula                 C[18]H[21]NO[3]
   XLogP3-AA                         2.2
   H-Bond Donor                      0
   H-Bond Acceptor                   4
   Rotatable Bond Count              1
   Tautomer Count                    3
   Exact Mass                        299.152144
   MonoIsotopic Mass                 299.152144
   Topological Polar Surface Area    38.8
   Heavy Atom Count                  22
   Formal Charge                     0
   Complexity                        509
   Isotope Atom Count                0
   Defined Atom Stereocenter Count   4
   Undefined Atom Stereocenter Count 0
   Defined Bond Stereocenter Count   0
   Undefined Bond Stereocenter Count 0
   Covalently-Bonded Unit Count      1
   Feature 3D Acceptor Count         3
   Feature 3D Cation Count           1
   Feature 3D Ring Count             5
   Effective Rotor Count             2.4
   Conformer Sampling RMSD           0.6
   CID Conformer Count               [9]1

References

   1. http://toxnet.nlm.nih.gov/cgi-bin/sis/search/r?dbs+hsdb:@term+@rn+@rel+125-29-1
   2. http://toxnet.nlm.nih.gov/cgi-bin/sis/search/r?dbs+hsdb:@term+@rn+@rel+125-29-1
   3. http://toxnet.nlm.nih.gov/cgi-bin/sis/search/r?dbs+hsdb:@term+@rn+@rel+125-29-1
   4. http://toxnet.nlm.nih.gov/cgi-bin/sis/search/r?dbs+hsdb:@term+@rn+@rel+125-29-1
   5. http://toxnet.nlm.nih.gov/cgi-bin/sis/search/r?dbs+hsdb:@term+@rn+@rel+125-29-1
   6. http://toxnet.nlm.nih.gov/cgi-bin/sis/search/r?dbs+hsdb:@term+@rn+@rel+125-29-1
   7. http://toxnet.nlm.nih.gov/cgi-bin/sis/search/r?dbs+hsdb:@term+@rn+@rel+125-29-1
   8. http://toxnet.nlm.nih.gov/cgi-bin/sis/search/r?dbs+hsdb:@term+@rn+@rel+125-29-1
   9. http://pubchem.ncbi.nlm.nih.gov/vw3d/vw3d.cgi?cid=5284569
