5320227
  -OEChem-07051213102D

 48 50  0     1  0  0  0  0  0999 V2000
    5.5301   -1.4827    0.0000 O   0  0  0  0  0  0  0  0  0  0  0  0
    7.3424   -4.2874    0.0000 O   0  0  0  0  0  0  0  0  0  0  0  0
    3.7702   -4.5173    0.0000 O   0  0  0  0  0  0  0  0  0  0  0  0
    8.9942    1.5173    0.0000 O   0  0  0  0  0  0  0  0  0  0  0  0
    2.0000   -4.5068    0.0000 O   0  0  0  0  0  0  0  0  0  0  0  0
    7.2622    1.5173    0.0000 C   0  0  0  0  0  0  0  0  0  0  0  0
    8.1282    2.0173    0.0000 C   0  0  3  0  0  0  0  0  0  0  0  0
    5.5301   -2.4827    0.0000 C   0  0  0  0  0  0  0  0  0  0  0  0
    7.2622    0.5173    0.0000 C   0  0  0  0  0  0  0  0  0  0  0  0
    6.3961   -2.9827    0.0000 C   0  0  0  0  0  0  0  0  0  0  0  0
    4.6641   -2.9827    0.0000 C   0  0  0  0  0  0  0  0  0  0  0  0
    6.3961   -3.9827    0.0000 C   0  0  0  0  0  0  0  0  0  0  0  0
    4.6641   -3.9827    0.0000 C   0  0  0  0  0  0  0  0  0  0  0  0
    6.3961   -0.9827    0.0000 C   0  0  0  0  0  0  0  0  0  0  0  0
    6.3961    0.0173    0.0000 C   0  0  0  0  0  0  0  0  0  0  0  0
    5.5301   -4.4827    0.0000 C   0  0  0  0  0  0  0  0  0  0  0  0
    8.1282    3.0173    0.0000 C   0  0  0  0  0  0  0  0  0  0  0  0
    7.3424   -2.6779    0.0000 C   0  0  0  0  0  0  0  0  0  0  0  0
    8.1282    0.0173    0.0000 C   0  0  0  0  0  0  0  0  0  0  0  0
    3.7702   -2.4480    0.0000 C   0  0  0  0  0  0  0  0  0  0  0  0
    8.9942    3.5173    0.0000 C   0  0  0  0  0  0  0  0  0  0  0  0
    7.9260   -3.4827    0.0000 C   0  0  0  0  0  0  0  0  0  0  0  0
    2.8641   -2.9618    0.0000 C   0  0  0  0  0  0  0  0  0  0  0  0
    2.8641   -4.0035    0.0000 C   0  0  0  0  0  0  0  0  0  0  0  0
    8.9942    4.5173    0.0000 C   0  0  0  0  0  0  0  0  0  0  0  0
    9.8602    3.0173    0.0000 C   0  0  0  0  0  0  0  0  0  0  0  0
    7.0501    2.0999    0.0000 H   0  0  0  0  0  0  0  0  0  0  0  0
    6.6516    1.4097    0.0000 H   0  0  0  0  0  0  0  0  0  0  0  0
    8.6651    2.3273    0.0000 H   0  0  0  0  0  0  0  0  0  0  0  0
    6.6082   -1.5653    0.0000 H   0  0  0  0  0  0  0  0  0  0  0  0
    7.0067   -0.8750    0.0000 H   0  0  0  0  0  0  0  0  0  0  0  0
    5.8592    0.3273    0.0000 H   0  0  0  0  0  0  0  0  0  0  0  0
    5.5301   -5.1027    0.0000 H   0  0  0  0  0  0  0  0  0  0  0  0
    7.5913    3.3273    0.0000 H   0  0  0  0  0  0  0  0  0  0  0  0
    7.5350   -2.0886    0.0000 H   0  0  0  0  0  0  0  0  0  0  0  0
    7.8182   -0.5196    0.0000 H   0  0  0  0  0  0  0  0  0  0  0  0
    8.6651   -0.2927    0.0000 H   0  0  0  0  0  0  0  0  0  0  0  0
    8.4382    0.5543    0.0000 H   0  0  0  0  0  0  0  0  0  0  0  0
    3.7773   -1.8280    0.0000 H   0  0  0  0  0  0  0  0  0  0  0  0
    8.5460   -3.4827    0.0000 H   0  0  0  0  0  0  0  0  0  0  0  0
    2.3284   -2.6498    0.0000 H   0  0  0  0  0  0  0  0  0  0  0  0
    9.5312    1.8273    0.0000 H   0  0  0  0  0  0  0  0  0  0  0  0
    9.6142    4.5173    0.0000 H   0  0  0  0  0  0  0  0  0  0  0  0
    9.5502    2.4804    0.0000 H   0  0  0  0  0  0  0  0  0  0  0  0
   10.3972    2.7073    0.0000 H   0  0  0  0  0  0  0  0  0  0  0  0
   10.1703    3.5543    0.0000 H   0  0  0  0  0  0  0  0  0  0  0  0
    8.9942    5.1373    0.0000 H   0  0  0  0  0  0  0  0  0  0  0  0
    8.3742    4.5173    0.0000 H   0  0  0  0  0  0  0  0  0  0  0  0
  1  8  1  0  0  0  0
  1 14  1  0  0  0  0
  2 12  1  0  0  0  0
  2 22  1  0  0  0  0
  3 13  1  0  0  0  0
  3 24  1  0  0  0  0
  4  7  1  0  0  0  0
  4 42  1  0  0  0  0
  5 24  2  0  0  0  0
  6  7  1  0  0  0  0
  6  9  1  0  0  0  0
  6 27  1  0  0  0  0
  6 28  1  0  0  0  0
  7 17  1  0  0  0  0
  7 29  1  0  0  0  0
  8 10  1  0  0  0  0
  8 11  2  0  0  0  0
  9 15  2  0  0  0  0
  9 19  1  0  0  0  0
 10 12  2  0  0  0  0
 10 18  1  0  0  0  0
 11 13  1  0  0  0  0
 11 20  1  0  0  0  0
 12 16  1  0  0  0  0
 13 16  2  0  0  0  0
 14 15  1  0  0  0  0
 14 30  1  0  0  0  0
 14 31  1  0  0  0  0
 15 32  1  0  0  0  0
 16 33  1  0  0  0  0
 17 21  2  0  0  0  0
 17 34  1  0  0  0  0
 18 22  2  0  0  0  0
 18 35  1  0  0  0  0
 19 36  1  0  0  0  0
 19 37  1  0  0  0  0
 19 38  1  0  0  0  0
 20 23  2  0  0  0  0
 20 39  1  0  0  0  0
 21 25  1  0  0  0  0
 21 26  1  0  0  0  0
 22 40  1  0  0  0  0
 23 24  1  0  0  0  0
 23 41  1  0  0  0  0
 25 43  1  0  0  0  0
 25 47  1  0  0  0  0
 25 48  1  0  0  0  0
 26 44  1  0  0  0  0
 26 45  1  0  0  0  0
 26 46  1  0  0  0  0
M  END
> <PUBCHEM_COMPOUND_CID>
5320227

> <PUBCHEM_COMPOUND_CANONICALIZED>
1

> <PUBCHEM_CACTVS_COMPLEXITY>
602

> <PUBCHEM_CACTVS_HBOND_ACCEPTOR>
5

> <PUBCHEM_CACTVS_HBOND_DONOR>
1

> <PUBCHEM_CACTVS_ROTATABLE_BOND>
6

> <PUBCHEM_CACTVS_SUBSKEYS>
AAADceB4OAAAAAAAAAAAAAAAAAAAASAAAAAwQAAAAAAAAEiB8AAAGgAACAAADBSgmAIyDsAABkCIAqjSiAACCAAkIAAIiAEGCMgMNzaENRqCe2Cl4BUIuYfK7PzOIAACCAAIAABAAAQQABAAAAAAAAAAAA==

> <PUBCHEM_IUPAC_OPENEYE_NAME>
4-[(2E)-5-hydroxy-3,7-dimethyl-octa-2,6-dienoxy]furo[3,2-g]chromen-7-one

> <PUBCHEM_IUPAC_CAS_NAME>
4-[(2E)-5-hydroxy-3,7-dimethylocta-2,6-dienoxy]-7-furo[3,2-g][1]benzopyranone

> <PUBCHEM_IUPAC_NAME>
4-[(2E)-5-hydroxy-3,7-dimethylocta-2,6-dienoxy]furo[3,2-g]chromen-7-one

> <PUBCHEM_IUPAC_SYSTEMATIC_NAME>
4-[(2E)-3,7-dimethyl-5-oxidanyl-octa-2,6-dienoxy]furo[3,2-g]chromen-7-one

> <PUBCHEM_IUPAC_TRADITIONAL_NAME>
4-[(2E)-5-hydroxy-3,7-dimethyl-octa-2,6-dienoxy]furo[3,2-g]chromen-7-one

> <PUBCHEM_IUPAC_INCHI>
InChI=1S/C21H22O5/c1-13(2)10-15(22)11-14(3)6-8-25-21-16-4-5-20(23)26-19(16)12-18-17(21)7-9-24-18/h4-7,9-10,12,15,22H,8,11H2,1-3H3/b14-6+

> <PUBCHEM_IUPAC_INCHIKEY>
BKIACVAZUKISOR-MKMNVTDBSA-N

> <PUBCHEM_XLOGP3_AA>
4.5

> <PUBCHEM_EXACT_MASS>
354.146724

> <PUBCHEM_MOLECULAR_FORMULA>
C21H22O5

> <PUBCHEM_MOLECULAR_WEIGHT>
354.39638

> <PUBCHEM_OPENEYE_CAN_SMILES>
CC(=CC(CC(=CCOC1=C2C=CC(=O)OC2=CC3=C1C=CO3)C)O)C

> <PUBCHEM_OPENEYE_ISO_SMILES>
CC(=CC(C/C(=C/COC1=C2C=CC(=O)OC2=CC3=C1C=CO3)/C)O)C

> <PUBCHEM_CACTVS_TPSA>
68.9

> <PUBCHEM_MONOISOTOPIC_WEIGHT>
354.146724

> <PUBCHEM_TOTAL_CHARGE>
0

> <PUBCHEM_HEAVY_ATOM_COUNT>
26

> <PUBCHEM_ATOM_DEF_STEREO_COUNT>
0

> <PUBCHEM_ATOM_UDEF_STEREO_COUNT>
1

> <PUBCHEM_BOND_DEF_STEREO_COUNT>
1

> <PUBCHEM_BOND_UDEF_STEREO_COUNT>
0

> <PUBCHEM_ISOTOPIC_ATOM_COUNT>
0

> <PUBCHEM_COMPONENT_COUNT>
1

> <PUBCHEM_CACTVS_TAUTO_COUNT>
1

> <PUBCHEM_COORDINATE_TYPE>
1
5
255

> <PUBCHEM_BONDANNOTATIONS>
10  12  8
10  18  8
11  13  8
11  20  8
12  16  8
13  16  8
18  22  8
2  12  8
2  22  8
20  23  8
23  24  8
3  13  8
3  24  8
7  4  3
8  10  8
8  11  8

$$$$

