   Color/Form
        Liquid
   from [1]HSDB

   Boiling Point
        138-140 deg C @ 12 mm Hg
   from [2]HSDB

   Spectral Properties

     * MAX ABSORPTION (0.1 N HCL): 204 NM (A= 613, 1%, 1 CM); 250 NM (A=
       9, 1%, 1 CM); 255 NM (A= 13, 1%, 1 CM)
     * MAX ABSORPTION (0.1 N HCL): 260 NM (A= 11, 1%, 1 CM); 266 NM (A= 7,
       1%, 1 CM)
     * MASS: 800 (National Bureau of Standards EPA-NIH Mass Spectra Data
       Base, NSRDS-NBS-63)
     * Intense mass spectral peaks: 177 m/z, 71 m/z, 57 m/z

   from [3]HSDB

   Other Chemical/Physical Properties

     * MELTS WITHIN RANGE OF 3 DEG BETWEEN 172 DEG C & 182 DEG C; PKA 7.6
       /PHENMETRAZINE HYDROCHLORIDE/
     * Crystals from ethanol + ether; mp: 182 deg C; 1 g dissolves in 0.4
       ml water, 2.0 ml 95% alc, 2.0 ml chloroform; sparingly sol in ether
       /Phenmetrazine hydrochloride/
     * WHITE TO OFF-WHITE, CRYSTALLINE POWDER /PHENMETRAZINE
       HYDROCHLORIDE/
     * INDEX OF REFRACTION: 1.508 (ALPHA); 1.516 (BETA); 1.628 (GAMMA)
       /PHENMETRAZINE HYDROCHLORIDE/
     * Odorless; bitter taste; pH 4.5 to 5.5 (2.5% in water)
       /Phenmetrazine hydrochloride/

   from [4]HSDB

   Computed Properties
   Molecular Weight                  177.2429 [g/mol]
   Molecular Formula                 C[11]H[15]NO
   XLogP3-AA                         1.4
   H-Bond Donor                      1
   H-Bond Acceptor                   2
   Rotatable Bond Count              1
   Exact Mass                        177.115364
   MonoIsotopic Mass                 177.115364
   Topological Polar Surface Area    21.3
   Heavy Atom Count                  13
   Formal Charge                     0
   Complexity                        154
   Isotope Atom Count                0
   Defined Atom Stereocenter Count   0
   Undefined Atom Stereocenter Count 2
   Defined Bond Stereocenter Count   0
   Undefined Bond Stereocenter Count 0
   Covalently-Bonded Unit Count      1
   Feature 3D Acceptor Count         1
   Feature 3D Donor Count            1
   Feature 3D Cation Count           1
   Feature 3D Ring Count             2
   Effective Rotor Count             2.2
   Conformer Sampling RMSD           0.6
   CID Conformer Count               [5]8

References

   1. http://toxnet.nlm.nih.gov/cgi-bin/sis/search/r?dbs+hsdb:@term+@rn+@rel+134-49-6
   2. http://toxnet.nlm.nih.gov/cgi-bin/sis/search/r?dbs+hsdb:@term+@rn+@rel+134-49-6
   3. http://toxnet.nlm.nih.gov/cgi-bin/sis/search/r?dbs+hsdb:@term+@rn+@rel+134-49-6
   4. http://toxnet.nlm.nih.gov/cgi-bin/sis/search/r?dbs+hsdb:@term+@rn+@rel+134-49-6
   5. http://pubchem.ncbi.nlm.nih.gov/vw3d/vw3d.cgi?cid=4762
