442013
  -OEChem-07051212562D

 85 89  0     1  0  0  0  0  0999 V2000
    5.6690   -2.3845    0.0000 O   0  0  0  0  0  0  0  0  0  0  0  0
    7.9011   -1.5185    0.0000 O   0  0  0  0  0  0  0  0  0  0  0  0
    4.4206   -2.5531    0.0000 O   0  0  0  0  0  0  0  0  0  0  0  0
    2.9258    1.5039    0.0000 O   0  0  0  0  0  0  0  0  0  0  0  0
    7.9011    0.4815    0.0000 O   0  0  0  0  0  0  0  0  0  0  0  0
    6.1690   -2.5185    0.0000 O   0  0  0  0  0  0  0  0  0  0  0  0
    2.0000    3.1600    0.0000 O   0  0  0  0  0  0  0  0  0  0  0  0
    8.7671   -0.0185    0.0000 O   0  0  0  0  0  0  0  0  0  0  0  0
    2.6887   -2.5731    0.0000 O   0  0  0  0  0  0  0  0  0  0  0  0
   10.4991   -2.0185    0.0000 O   0  0  0  0  0  0  0  0  0  0  0  0
    5.3030   -4.0185    0.0000 O   0  0  0  0  0  0  0  0  0  0  0  0
    9.6331   -3.5185    0.0000 O   0  0  0  0  0  0  0  0  0  0  0  0
    5.3030   -1.0185    0.0000 C   0  0  1  0  0  0  0  0  0  0  0  0
    6.1690   -1.5185    0.0000 C   0  0  1  0  0  0  0  0  0  0  0  0
    5.3030   -0.0185    0.0000 C   0  0  1  0  0  0  0  0  0  0  0  0
    4.4090    0.5162    0.0000 C   0  0  1  0  0  0  0  0  0  0  0  0
    7.0350   -1.0185    0.0000 C   0  0  2  0  0  0  0  0  0  0  0  0
    6.6690   -2.3845    0.0000 C   0  0  0  0  0  0  0  0  0  0  0  0
    6.1690    0.4815    0.0000 C   0  0  0  0  0  0  0  0  0  0  0  0
    4.4090   -1.5532    0.0000 C   0  0  2  0  0  0  0  0  0  0  0  0
    7.0350   -0.0185    0.0000 C   0  0  1  0  0  0  0  0  0  0  0  0
    5.3030   -2.0185    0.0000 C   0  0  0  0  0  0  0  0  0  0  0  0
    3.9191    1.3879    0.0000 C   0  0  2  0  0  0  0  0  0  0  0  0
    3.5030    0.0023    0.0000 C   0  0  0  0  0  0  0  0  0  0  0  0
    3.5030   -1.0393    0.0000 C   0  0  0  0  0  0  0  0  0  0  0  0
    4.9190    1.3763    0.0000 C   0  0  0  0  0  0  0  0  0  0  0  0
    4.3364    2.2967    0.0000 C   0  0  0  0  0  0  0  0  0  0  0  0
    3.6010    2.9744    0.0000 C   0  0  2  0  0  0  0  0  0  0  0  0
    2.6389    0.5056    0.0000 C   0  0  0  0  0  0  0  0  0  0  0  0
    2.7292    2.4844    0.0000 C   0  0  2  0  0  0  0  0  0  0  0  0
    8.7671   -1.0185    0.0000 C   0  0  0  0  0  0  0  0  0  0  0  0
    3.4030    3.9485    0.0000 C   0  0  0  0  0  0  0  0  0  0  0  0
    3.5604   -3.0631    0.0000 C   0  0  0  0  0  0  0  0  0  0  0  0
    6.1690   -3.5185    0.0000 C   0  0  0  0  0  0  0  0  0  0  0  0
    2.4156    4.0630    0.0000 C   0  0  0  0  0  0  0  0  0  0  0  0
    9.6331   -1.5185    0.0000 C   0  0  1  0  0  0  0  0  0  0  0  0
    3.5720   -4.0630    0.0000 C   0  0  0  0  0  0  0  0  0  0  0  0
   10.1331   -0.6525    0.0000 C   0  0  0  0  0  0  0  0  0  0  0  0
    7.0350   -4.0185    0.0000 C   0  0  0  0  0  0  0  0  0  0  0  0
    9.1331   -2.3845    0.0000 C   0  0  0  0  0  0  0  0  0  0  0  0
   11.1331   -0.6525    0.0000 C   0  0  0  0  0  0  0  0  0  0  0  0
   10.4991   -3.0185    0.0000 C   0  0  0  0  0  0  0  0  0  0  0  0
   11.3652   -3.5185    0.0000 C   0  0  0  0  0  0  0  0  0  0  0  0
    5.3095    0.8315    0.0000 H   0  0  0  0  0  0  0  0  0  0  0  0
    7.0350   -1.6385    0.0000 H   0  0  0  0  0  0  0  0  0  0  0  0
    6.7767   -2.9951    0.0000 H   0  0  0  0  0  0  0  0  0  0  0  0
    7.2516   -2.1725    0.0000 H   0  0  0  0  0  0  0  0  0  0  0  0
    6.5675    0.9564    0.0000 H   0  0  0  0  0  0  0  0  0  0  0  0
    5.7705    0.9564    0.0000 H   0  0  0  0  0  0  0  0  0  0  0  0
    3.8751   -1.8683    0.0000 H   0  0  0  0  0  0  0  0  0  0  0  0
    7.0350    0.6015    0.0000 H   0  0  0  0  0  0  0  0  0  0  0  0
    4.6924   -1.9108    0.0000 H   0  0  0  0  0  0  0  0  0  0  0  0
    5.0909   -2.6011    0.0000 H   0  0  0  0  0  0  0  0  0  0  0  0
    3.4479    0.6804    0.0000 H   0  0  0  0  0  0  0  0  0  0  0  0
    2.9672   -1.3514    0.0000 H   0  0  0  0  0  0  0  0  0  0  0  0
    5.4523    1.0602    0.0000 H   0  0  0  0  0  0  0  0  0  0  0  0
    5.2352    1.9097    0.0000 H   0  0  0  0  0  0  0  0  0  0  0  0
    4.3857    1.6925    0.0000 H   0  0  0  0  0  0  0  0  0  0  0  0
    4.8697    1.9805    0.0000 H   0  0  0  0  0  0  0  0  0  0  0  0
    4.7066    2.7940    0.0000 H   0  0  0  0  0  0  0  0  0  0  0  0
    4.3414    3.3918    0.0000 H   0  0  0  0  0  0  0  0  0  0  0  0
    2.9510    1.0414    0.0000 H   0  0  0  0  0  0  0  0  0  0  0  0
    2.1031    0.8177    0.0000 H   0  0  0  0  0  0  0  0  0  0  0  0
    2.3268   -0.0301    0.0000 H   0  0  0  0  0  0  0  0  0  0  0  0
    1.9877    2.0689    0.0000 H   0  0  0  0  0  0  0  0  0  0  0  0
    7.9011    1.1015    0.0000 H   0  0  0  0  0  0  0  0  0  0  0  0
    3.8224    4.4052    0.0000 H   0  0  0  0  0  0  0  0  0  0  0  0
    2.1118    4.6035    0.0000 H   0  0  0  0  0  0  0  0  0  0  0  0
    2.9520   -4.0702    0.0000 H   0  0  0  0  0  0  0  0  0  0  0  0
    3.5792   -4.6830    0.0000 H   0  0  0  0  0  0  0  0  0  0  0  0
    4.1919   -4.0559    0.0000 H   0  0  0  0  0  0  0  0  0  0  0  0
   10.2408   -0.0419    0.0000 H   0  0  0  0  0  0  0  0  0  0  0  0
    9.5505   -0.4404    0.0000 H   0  0  0  0  0  0  0  0  0  0  0  0
    6.7250   -4.5554    0.0000 H   0  0  0  0  0  0  0  0  0  0  0  0
    7.5720   -4.3285    0.0000 H   0  0  0  0  0  0  0  0  0  0  0  0
    7.3450   -3.4816    0.0000 H   0  0  0  0  0  0  0  0  0  0  0  0
    8.5962   -2.0745    0.0000 H   0  0  0  0  0  0  0  0  0  0  0  0
    8.8231   -2.9215    0.0000 H   0  0  0  0  0  0  0  0  0  0  0  0
    9.6700   -2.6945    0.0000 H   0  0  0  0  0  0  0  0  0  0  0  0
   11.1331   -1.2725    0.0000 H   0  0  0  0  0  0  0  0  0  0  0  0
   11.7531   -0.6525    0.0000 H   0  0  0  0  0  0  0  0  0  0  0  0
   11.1331   -0.0325    0.0000 H   0  0  0  0  0  0  0  0  0  0  0  0
   11.0552   -4.0554    0.0000 H   0  0  0  0  0  0  0  0  0  0  0  0
   11.9021   -3.8285    0.0000 H   0  0  0  0  0  0  0  0  0  0  0  0
   11.6752   -2.9816    0.0000 H   0  0  0  0  0  0  0  0  0  0  0  0
 14  1  1  1  0  0  0
  1 18  1  0  0  0  0
 17  2  1  6  0  0  0
  2 31  1  0  0  0  0
 20  3  1  1  0  0  0
  3 33  1  0  0  0  0
  4 23  1  0  0  0  0
  4 30  1  0  0  0  0
 21  5  1  1  0  0  0
  5 66  1  0  0  0  0
  6 22  1  0  0  0  0
  6 34  1  0  0  0  0
  7 30  1  0  0  0  0
  7 35  1  0  0  0  0
  8 31  2  0  0  0  0
  9 33  2  0  0  0  0
 36 10  1  1  0  0  0
 10 42  1  0  0  0  0
 11 34  2  0  0  0  0
 12 42  2  0  0  0  0
 13 14  1  0  0  0  0
 13 15  1  0  0  0  0
 13 20  1  0  0  0  0
 13 22  1  1  0  0  0
 14 17  1  0  0  0  0
 14 18  1  0  0  0  0
 15 16  1  0  0  0  0
 15 19  1  0  0  0  0
 15 44  1  6  0  0  0
 16 23  1  0  0  0  0
 16 24  1  0  0  0  0
 16 26  1  1  0  0  0
 17 21  1  0  0  0  0
 17 45  1  0  0  0  0
 18 46  1  0  0  0  0
 18 47  1  0  0  0  0
 19 21  1  0  0  0  0
 19 48  1  0  0  0  0
 19 49  1  0  0  0  0
 20 25  1  0  0  0  0
 20 50  1  0  0  0  0
 21 51  1  0  0  0  0
 22 52  1  0  0  0  0
 22 53  1  0  0  0  0
 23 27  1  0  0  0  0
 23 54  1  6  0  0  0
 24 25  2  0  0  0  0
 24 29  1  0  0  0  0
 25 55  1  0  0  0  0
 26 56  1  0  0  0  0
 26 57  1  0  0  0  0
 26 58  1  0  0  0  0
 27 28  1  0  0  0  0
 27 59  1  0  0  0  0
 27 60  1  0  0  0  0
 28 30  1  0  0  0  0
 28 32  1  0  0  0  0
 28 61  1  1  0  0  0
 29 62  1  0  0  0  0
 29 63  1  0  0  0  0
 29 64  1  0  0  0  0
 30 65  1  1  0  0  0
 31 36  1  0  0  0  0
 32 35  2  0  0  0  0
 32 67  1  0  0  0  0
 33 37  1  0  0  0  0
 34 39  1  0  0  0  0
 35 68  1  0  0  0  0
 36 38  1  0  0  0  0
 36 40  1  0  0  0  0
 37 69  1  0  0  0  0
 37 70  1  0  0  0  0
 37 71  1  0  0  0  0
 38 41  1  0  0  0  0
 38 72  1  0  0  0  0
 38 73  1  0  0  0  0
 39 74  1  0  0  0  0
 39 75  1  0  0  0  0
 39 76  1  0  0  0  0
 40 77  1  0  0  0  0
 40 78  1  0  0  0  0
 40 79  1  0  0  0  0
 41 80  1  0  0  0  0
 41 81  1  0  0  0  0
 41 82  1  0  0  0  0
 42 43  1  0  0  0  0
 43 83  1  0  0  0  0
 43 84  1  0  0  0  0
 43 85  1  0  0  0  0
M  END
> <PUBCHEM_COMPOUND_CID>
442013

> <PUBCHEM_COMPOUND_CANONICALIZED>
1

> <PUBCHEM_CACTVS_COMPLEXITY>
1240

> <PUBCHEM_CACTVS_HBOND_ACCEPTOR>
12

> <PUBCHEM_CACTVS_HBOND_DONOR>
1

> <PUBCHEM_CACTVS_ROTATABLE_BOND>
12

> <PUBCHEM_CACTVS_SUBSKEYS>
AAADcfB4PAAAAAAAAAAAAAAAEgAAASIAAAAwQAAAAAAQAACAAAAAGgAACAAAD1SwgAMCCAAABgCIAiDSCAIACAAgIAAICAFAAAgRFBIAIQQiUAAFwAAPIAPA4PwPgAAAAAAAAABAAAYQADCAAAAAAAAAAA==

> <PUBCHEM_IUPAC_OPENEYE_NAME>
[(1R,2S,3R,4aR,5R,8S,8aR)-5-[(3aS,5S,6aS)-3a,4,5,6a-tetrahydrofuro[2,3-b]furan-5-yl]-8-acetoxy-8a-(acetoxymethyl)-3-hydroxy-5,6-dimethyl-spiro[3,4,4a,8-tetrahydro-2H-naphthalene-1,2'-oxirane]-2-yl] (2R)-2-acetoxy-2-methyl-butanoate

> <PUBCHEM_IUPAC_CAS_NAME>
(2R)-2-acetyloxy-2-methylbutanoic acid [(1R,2S,3R,4aR,5R,8S,8aR)-5-[(3aS,5S,6aS)-3a,4,5,6a-tetrahydrofuro[2,3-b]furan-5-yl]-8-acetyloxy-8a-(acetyloxymethyl)-3-hydroxy-5,6-dimethyl-2-spiro[3,4,4a,8-tetrahydro-2H-naphthalene-1,2'-oxirane]yl] ester

> <PUBCHEM_IUPAC_NAME>
[(1R,2S,3R,4aR,5R,8S,8aR)-5-[(3aS,5S,6aS)-3a,4,5,6a-tetrahydrofuro[2,3-b]furan-5-yl]-8-acetyloxy-8a-(acetyloxymethyl)-3-hydroxy-5,6-dimethylspiro[3,4,4a,8-tetrahydro-2H-naphthalene-1,2'-oxirane]-2-yl] (2R)-2-acetyloxy-2-methylbutanoate

> <PUBCHEM_IUPAC_SYSTEMATIC_NAME>
[(1R,2S,3R,4aR,5R,8S,8aR)-5-[(3aS,5S,6aS)-3a,4,5,6a-tetrahydrofuro[2,3-b]furan-5-yl]-8-acetyloxy-8a-(acetyloxymethyl)-5,6-dimethyl-3-oxidanyl-spiro[3,4,4a,8-tetrahydro-2H-naphthalene-1,2'-oxirane]-2-yl] (2R)-2-acetyloxy-2-methyl-butanoate

> <PUBCHEM_IUPAC_TRADITIONAL_NAME>
(2R)-2-acetoxy-2-methyl-butyric acid [(1R,2S,3R,4aR,5R,8S,8aR)-5-[(3aS,5S,6aS)-3a,4,5,6a-tetrahydrofuro[2,3-b]furan-5-yl]-8-acetoxy-8a-(acetoxymethyl)-3-hydroxy-5,6-dimethyl-spiro[3,4,4a,8-tetrahydro-2H-naphthalene-1,2'-oxirane]-2-yl] ester

> <PUBCHEM_IUPAC_INCHI>
InChI=1S/C31H42O12/c1-8-28(6,43-19(5)34)27(36)42-25-21(35)13-22-29(7,23-12-20-9-10-37-26(20)41-23)16(2)11-24(40-18(4)33)30(22,14-38-17(3)32)31(25)15-39-31/h9-11,20-26,35H,8,12-15H2,1-7H3/t20-,21-,22-,23+,24+,25+,26+,28-,29+,30+,31-/m1/s1

> <PUBCHEM_IUPAC_INCHIKEY>
NXKWGKNTUFLKGN-NLDKIVAHSA-N

> <PUBCHEM_XLOGP3_AA>
2

> <PUBCHEM_EXACT_MASS>
606.267627

> <PUBCHEM_MOLECULAR_FORMULA>
C31H42O12

> <PUBCHEM_MOLECULAR_WEIGHT>
606.65798

> <PUBCHEM_OPENEYE_CAN_SMILES>
CCC(C)(C(=O)OC1C(CC2C(C(=CC(C2(C13CO3)COC(=O)C)OC(=O)C)C)(C)C4CC5C=COC5O4)O)OC(=O)C

> <PUBCHEM_OPENEYE_ISO_SMILES>
CC[C@](C)(C(=O)O[C@H]1[C@@H](C[C@@H]2[C@@](C(=C[C@@H]([C@]2([C@@]13CO3)COC(=O)C)OC(=O)C)C)(C)[C@@H]4C[C@H]5C=CO[C@H]5O4)O)OC(=O)C

> <PUBCHEM_CACTVS_TPSA>
156

> <PUBCHEM_MONOISOTOPIC_WEIGHT>
606.267627

> <PUBCHEM_TOTAL_CHARGE>
0

> <PUBCHEM_HEAVY_ATOM_COUNT>
43

> <PUBCHEM_ATOM_DEF_STEREO_COUNT>
11

> <PUBCHEM_ATOM_UDEF_STEREO_COUNT>
0

> <PUBCHEM_BOND_DEF_STEREO_COUNT>
0

> <PUBCHEM_BOND_UDEF_STEREO_COUNT>
0

> <PUBCHEM_ISOTOPIC_ATOM_COUNT>
0

> <PUBCHEM_COMPONENT_COUNT>
1

> <PUBCHEM_CACTVS_TAUTO_COUNT>
1

> <PUBCHEM_COORDINATE_TYPE>
1
5
255

> <PUBCHEM_BONDANNOTATIONS>
14  1  5
36  10  5
13  22  5
15  44  6
16  26  5
17  2  6
23  54  6
28  61  5
20  3  5
30  65  5
21  5  5

$$$$

