16004
  -OEChem-07051213122D

 14 14  0     0  0  0  0  0  0999 V2000
    2.0000   -1.0670    0.0000 Cl  0  0  0  0  0  0  0  0  0  0  0  0
    2.3660    0.2990    0.0000 Cl  0  0  0  0  0  0  0  0  0  0  0  0
    3.3660   -1.4330    0.0000 Cl  0  0  0  0  0  0  0  0  0  0  0  0
    6.3301   -0.5670    0.0000 Cl  0  0  0  0  0  0  0  0  0  0  0  0
    4.5981   -0.5670    0.0000 N   0  0  0  0  0  0  0  0  0  0  0  0
    3.7320   -0.0670    0.0000 C   0  0  0  0  0  0  0  0  0  0  0  0
    2.8660   -0.5670    0.0000 C   0  0  0  0  0  0  0  0  0  0  0  0
    3.7320    0.9330    0.0000 C   0  0  0  0  0  0  0  0  0  0  0  0
    4.5981    1.4330    0.0000 C   0  0  0  0  0  0  0  0  0  0  0  0
    5.4641    0.9330    0.0000 C   0  0  0  0  0  0  0  0  0  0  0  0
    5.4641   -0.0670    0.0000 C   0  0  0  0  0  0  0  0  0  0  0  0
    3.1951    1.2430    0.0000 H   0  0  0  0  0  0  0  0  0  0  0  0
    4.5981    2.0530    0.0000 H   0  0  0  0  0  0  0  0  0  0  0  0
    6.0010    1.2430    0.0000 H   0  0  0  0  0  0  0  0  0  0  0  0
  1  7  1  0  0  0  0
  2  7  1  0  0  0  0
  3  7  1  0  0  0  0
  4 11  1  0  0  0  0
  5  6  2  0  0  0  0
  5 11  1  0  0  0  0
  6  7  1  0  0  0  0
  6  8  1  0  0  0  0
  8  9  2  0  0  0  0
  8 12  1  0  0  0  0
  9 10  1  0  0  0  0
  9 13  1  0  0  0  0
 10 11  2  0  0  0  0
 10 14  1  0  0  0  0
M  END
> <PUBCHEM_COMPOUND_CID>
16004

> <PUBCHEM_COMPOUND_CANONICALIZED>
1

> <PUBCHEM_CACTVS_COMPLEXITY>
133

> <PUBCHEM_CACTVS_HBOND_ACCEPTOR>
1

> <PUBCHEM_CACTVS_HBOND_DONOR>
0

> <PUBCHEM_CACTVS_ROTATABLE_BOND>
0

> <PUBCHEM_CACTVS_SUBSKEYS>
AAADcQBiAAAHAAAAAAAAAAAAAAAAAAAAAAAsAAAAAAAAAAABgAAAHAIAAAAACAqBFqAwgJIIEACgASRiRACCgCAhByAImCAwZpgIIOLBk5HEIAhggADIyAcQAAAAAAAAAAAAAAAAAAAAAAAAAAAAAAAAAA==

> <PUBCHEM_IUPAC_OPENEYE_NAME>
2-chloro-6-(trichloromethyl)pyridine

> <PUBCHEM_IUPAC_CAS_NAME>
2-chloro-6-(trichloromethyl)pyridine

> <PUBCHEM_IUPAC_NAME>
2-chloro-6-(trichloromethyl)pyridine

> <PUBCHEM_IUPAC_SYSTEMATIC_NAME>
2-chloranyl-6-(trichloromethyl)pyridine

> <PUBCHEM_IUPAC_TRADITIONAL_NAME>
2-chloro-6-(trichloromethyl)pyridine

> <PUBCHEM_IUPAC_INCHI>
InChI=1S/C6H3Cl4N/c7-5-3-1-2-4(11-5)6(8,9)10/h1-3H

> <PUBCHEM_IUPAC_INCHIKEY>
DCUJJWWUNKIJPH-UHFFFAOYSA-N

> <PUBCHEM_XLOGP3>
3.4

> <PUBCHEM_EXACT_MASS>
230.89901

> <PUBCHEM_MOLECULAR_FORMULA>
C6H3Cl4N

> <PUBCHEM_MOLECULAR_WEIGHT>
230.90672

> <PUBCHEM_OPENEYE_CAN_SMILES>
C1=CC(=NC(=C1)Cl)C(Cl)(Cl)Cl

> <PUBCHEM_OPENEYE_ISO_SMILES>
C1=CC(=NC(=C1)Cl)C(Cl)(Cl)Cl

> <PUBCHEM_CACTVS_TPSA>
12.9

> <PUBCHEM_MONOISOTOPIC_WEIGHT>
228.90196

> <PUBCHEM_TOTAL_CHARGE>
0

> <PUBCHEM_HEAVY_ATOM_COUNT>
11

> <PUBCHEM_ATOM_DEF_STEREO_COUNT>
0

> <PUBCHEM_ATOM_UDEF_STEREO_COUNT>
0

> <PUBCHEM_BOND_DEF_STEREO_COUNT>
0

> <PUBCHEM_BOND_UDEF_STEREO_COUNT>
0

> <PUBCHEM_ISOTOPIC_ATOM_COUNT>
0

> <PUBCHEM_COMPONENT_COUNT>
1

> <PUBCHEM_CACTVS_TAUTO_COUNT>
1

> <PUBCHEM_COORDINATE_TYPE>
1
5
255

> <PUBCHEM_BONDANNOTATIONS>
10  11  8
5  11  8
5  6  8
6  8  8
8  9  8
9  10  8

$$$$

