   Color/Form
        YELLOW RHOMBIC BIPYRAMIDAL CRYSTALS FROM ALCOHOL,
   BENZENE-PETROLEUM ETHER
   from [1]HSDB

   Boiling Point
        341.5 DEG C @ 760 MM HG
   from [2]HSDB

   Melting Point
        84 DEG C
   from [3]HSDB

   Density/Specific Gravity
        1.1300 @ 99 DEG C/4 DEG C
   from [4]HSDB

   Octanol/Water Partition Coefficient
        Log Kow = 3.58
   from [5]HSDB

   Solubilities

     * INSOL IN WATER; SOL IN ALCOHOL, ACETONE, BENZENE; VERY SOL IN
       ETHER, TOLUENE, HOT BENZENE
     * Insoluble in water. Soluble in oxygenated and aromatic solvents

   from [6]HSDB

   Spectral Properties

     * INDEX OF REFRACTION: 1.6369 @ 99 DEG C/D; SADTLER REFERENCE NUMBER:
       7390 (IR, PRISM); MAX ABSORPTION (DIOXANE): 258 NM (LOG E= 4.90),
       294 NM (LOG E= 3.62), 328 NM (LOG E= 2.89), 378 NM (LOG E= 2.43)
     * IR: 1604 (Coblentz Society Spectral Collection)
     * UV: 2095 (Sadtler Research Laboratories Spectral Collection)
     * NMR: 287 (Sadtler Research Laboratories Spectral Collection)
     * MASS: 1224 (Atlas of Mass Spectral Data, John Wiley & Sons, New
       York)

   from [7]HSDB

   Computed Properties
   Molecular Weight                  180.20202 [g/mol]
   Molecular Formula                 C[13]H[8]O
   XLogP3                            3.6
   H-Bond Donor                      0
   H-Bond Acceptor                   1
   Rotatable Bond Count              0
   Exact Mass                        180.057515
   MonoIsotopic Mass                 180.057515
   Topological Polar Surface Area    17.1
   Heavy Atom Count                  14
   Formal Charge                     0
   Complexity                        222
   Isotope Atom Count                0
   Defined Atom Stereocenter Count   0
   Undefined Atom Stereocenter Count 0
   Defined Bond Stereocenter Count   0
   Undefined Bond Stereocenter Count 0
   Covalently-Bonded Unit Count      1
   Feature 3D Acceptor Count         1
   Feature 3D Ring Count             3
   Effective Rotor Count             0
   Conformer Sampling RMSD           0.4
   CID Conformer Count               [8]1

References

   1. http://toxnet.nlm.nih.gov/cgi-bin/sis/search/r?dbs+hsdb:@term+@rn+@rel+486-25-9
   2. http://toxnet.nlm.nih.gov/cgi-bin/sis/search/r?dbs+hsdb:@term+@rn+@rel+486-25-9
   3. http://toxnet.nlm.nih.gov/cgi-bin/sis/search/r?dbs+hsdb:@term+@rn+@rel+486-25-9
   4. http://toxnet.nlm.nih.gov/cgi-bin/sis/search/r?dbs+hsdb:@term+@rn+@rel+486-25-9
   5. http://toxnet.nlm.nih.gov/cgi-bin/sis/search/r?dbs+hsdb:@term+@rn+@rel+486-25-9
   6. http://toxnet.nlm.nih.gov/cgi-bin/sis/search/r?dbs+hsdb:@term+@rn+@rel+486-25-9
   7. http://toxnet.nlm.nih.gov/cgi-bin/sis/search/r?dbs+hsdb:@term+@rn+@rel+486-25-9
   8. http://pubchem.ncbi.nlm.nih.gov/vw3d/vw3d.cgi?cid=10241
