   Color/Form

     * Crystals from acetone-hexane
     * White to off-white crystalline powder
     * White to creamy white, crystalline powder; soluble in water and
       sparingly soluble in alcohol. /Naproxen sodium/

   from [1]HSDB

   Odor
        Practically odorless
   from [2]HSDB

   Melting Point
        155 deg C
   from [3]HSDB

   Dissociation Constants
        pKa = 4.15
   from [4]HSDB

   Octanol/Water Partition Coefficient
        log Kow = 3.18
   from [5]HSDB

   Solubilities

     * Slightly soluble in ether; soluble in methanol, chloroform
     * Soluble in 25 parts ethanol (96%), 20 parts methanol, 15 parts
       chloroform, 40 parts ether. Practically insoluble in water
     * Practically insoluble in water and freely soluble in alcohol.
     * In water, 15.9 mg/L at 25 deg C

   from [6]HSDB

   Spectral Properties
        Specific optical rotation: +66 deg at 25 deg C/D (in chloroform)
   from [7]HSDB

   Vapor Pressure
        1.89X10-6 mm Hg at 25 deg C (est)
   from [8]HSDB

   Other Chemical/Physical Properties

     * Crystals from acetone; mp: 244-246 deg C; specific optical
       rotation: -11 deg at 25 deg C/D (in methanol) /Naproxen sodium
       salt/
     * MW: 546.65 /Naproxen piperazine salt/
     * Henry's Law constant = 3.39X10-10 atm-cu m/mol at 25 deg C (est)
     * Hydroxyl radical reaction rate constant = 1.16X10-10 cu
       cm/molec-sec at 25 deg C (est)

   from [9]HSDB

   Computed Properties
   Molecular Weight                  230.25916 [g/mol]
   Molecular Formula                 C[14]H[14]O[3]
   XLogP3                            3.3
   H-Bond Donor                      1
   H-Bond Acceptor                   3
   Rotatable Bond Count              3
   Exact Mass                        230.094294
   MonoIsotopic Mass                 230.094294
   Topological Polar Surface Area    46.5
   Heavy Atom Count                  17
   Formal Charge                     0
   Complexity                        277
   Isotope Atom Count                0
   Defined Atom Stereocenter Count   1
   Undefined Atom Stereocenter Count 0
   Defined Bond Stereocenter Count   0
   Undefined Bond Stereocenter Count 0
   Covalently-Bonded Unit Count      1
   Feature 3D Acceptor Count         3
   Feature 3D Anion Count            1
   Feature 3D Hydrophobe Count       1
   Feature 3D Ring Count             2
   Effective Rotor Count             3
   Conformer Sampling RMSD           0.6
   CID Conformer Count               [10]12

References

   1. http://toxnet.nlm.nih.gov/cgi-bin/sis/search/r?dbs+hsdb:@term+@rn+@rel+22204-53-1
   2. http://toxnet.nlm.nih.gov/cgi-bin/sis/search/r?dbs+hsdb:@term+@rn+@rel+22204-53-1
   3. http://toxnet.nlm.nih.gov/cgi-bin/sis/search/r?dbs+hsdb:@term+@rn+@rel+22204-53-1
   4. http://toxnet.nlm.nih.gov/cgi-bin/sis/search/r?dbs+hsdb:@term+@rn+@rel+22204-53-1
   5. http://toxnet.nlm.nih.gov/cgi-bin/sis/search/r?dbs+hsdb:@term+@rn+@rel+22204-53-1
   6. http://toxnet.nlm.nih.gov/cgi-bin/sis/search/r?dbs+hsdb:@term+@rn+@rel+22204-53-1
   7. http://toxnet.nlm.nih.gov/cgi-bin/sis/search/r?dbs+hsdb:@term+@rn+@rel+22204-53-1
   8. http://toxnet.nlm.nih.gov/cgi-bin/sis/search/r?dbs+hsdb:@term+@rn+@rel+22204-53-1
   9. http://toxnet.nlm.nih.gov/cgi-bin/sis/search/r?dbs+hsdb:@term+@rn+@rel+22204-53-1
  10. http://pubchem.ncbi.nlm.nih.gov/vw3d/vw3d.cgi?cid=156391
