   Color/Form

     * CRYSTALS FROM 95% ETHANOL
     * LEAFLETS FROM DIL ETHANOL & METHANOL
     * WHITE OR CREAMY WHITE CRYSTALLINE POWDER
     * EXISTS IN 4 POLYMORPHIC FORMS

   from [1]HSDB

   Odor
        Odorless
   from [2]HSDB

   Taste
        SLIGHTLY BITTER TASTE
   from [3]HSDB

   Melting Point
        175-176 DEG C
   from [4]HSDB

   Dissociation Constants
        pKb= 13.0
   from [5]HSDB

   Octanol/Water Partition Coefficient
        log Kow = 0.97
   from [6]HSDB

   Solubilities

     * SOL IN ALC, METHANOL, ACETONE & DIL HYDROCHLORIC ACID
     * In water, 380 mg/l at 37 deg C
     * Insoluble in fixed and vegetable oils.
     * Slightly soluble in deuterated dimethyl sulfoxide.

   from [7]HSDB

   Spectral Properties

     * MAX ABSORPTION (ALCOHOL): 261 NM (LOG E= 4.25), 295 NM (LOG E=
       4.43)
     * SADTLER REFERENCE NUMBER: 2991, 13393 & 4873 (IR, PRISM)
     * IR: 6054 (Coblentz Society Spectral Collection)
     * UV: 864 (Sadtler Research Laboratories Spectral Collection)
     * NMR: 6921 (Sadtler Research Laboratories Spectral Collection)
     * IR: 3:1153C (Aldrich Library of Infrared Spectra, Aldrich Chemical
       Co, Milwaukee, WI)
     * NMR: 10:24D (Aldrich Library of Mass Spectra, Aldrich Chemical Co,
       Milwaukee, WI)

   from [8]HSDB

   Vapor Density
        8.3
   from [9]HSDB

   Other Chemical/Physical Properties
        Also a higher melting form, melting point 180.5 deg C.
   from [10]HSDB

   Computed Properties
   Molecular Weight                  248.30088 [g/mol]
   Molecular Formula                 C[12]H[12]N[2]O[2]S
   XLogP3                            1
   H-Bond Donor                      2
   H-Bond Acceptor                   4
   Rotatable Bond Count              2
   Exact Mass                        248.061949
   MonoIsotopic Mass                 248.061949
   Topological Polar Surface Area    94.6
   Heavy Atom Count                  17
   Formal Charge                     0
   Complexity                        306
   Isotope Atom Count                0
   Defined Atom Stereocenter Count   0
   Undefined Atom Stereocenter Count 0
   Defined Bond Stereocenter Count   0
   Undefined Bond Stereocenter Count 0
   Covalently-Bonded Unit Count      1
   Feature 3D Acceptor Count         2
   Feature 3D Donor Count            2
   Feature 3D Cation Count           2
   Feature 3D Ring Count             2
   Effective Rotor Count             2
   Conformer Sampling RMSD           0.6
   CID Conformer Count               [11]1

References

   1. http://toxnet.nlm.nih.gov/cgi-bin/sis/search/r?dbs+hsdb:@term+@rn+@rel+80-08-0
   2. http://toxnet.nlm.nih.gov/cgi-bin/sis/search/r?dbs+hsdb:@term+@rn+@rel+80-08-0
   3. http://toxnet.nlm.nih.gov/cgi-bin/sis/search/r?dbs+hsdb:@term+@rn+@rel+80-08-0
   4. http://toxnet.nlm.nih.gov/cgi-bin/sis/search/r?dbs+hsdb:@term+@rn+@rel+80-08-0
   5. http://toxnet.nlm.nih.gov/cgi-bin/sis/search/r?dbs+hsdb:@term+@rn+@rel+80-08-0
   6. http://toxnet.nlm.nih.gov/cgi-bin/sis/search/r?dbs+hsdb:@term+@rn+@rel+80-08-0
   7. http://toxnet.nlm.nih.gov/cgi-bin/sis/search/r?dbs+hsdb:@term+@rn+@rel+80-08-0
   8. http://toxnet.nlm.nih.gov/cgi-bin/sis/search/r?dbs+hsdb:@term+@rn+@rel+80-08-0
   9. http://toxnet.nlm.nih.gov/cgi-bin/sis/search/r?dbs+hsdb:@term+@rn+@rel+80-08-0
  10. http://toxnet.nlm.nih.gov/cgi-bin/sis/search/r?dbs+hsdb:@term+@rn+@rel+80-08-0
  11. http://pubchem.ncbi.nlm.nih.gov/vw3d/vw3d.cgi?cid=2955
