10218
  -OEChem-06261204222D

 72 76  0     1  0  0  0  0  0999 V2000
   10.7664    2.2554    0.0000 O   0  0  0  0  0  0  0  0  0  0  0  0
   12.5403    1.2313    0.0000 O   0  0  0  0  0  0  0  0  0  0  0  0
    2.8698    0.7181    0.0000 O   0  0  0  0  0  0  0  0  0  0  0  0
    2.8544    2.7180    0.0000 O   0  0  0  0  0  0  0  0  0  0  0  0
    9.0223   -1.8138    0.0000 N   0  0  3  0  0  0  0  0  0  0  0  0
    7.2641    1.2311    0.0000 N   0  0  0  0  0  0  0  0  0  0  0  0
    7.2223   -0.7930    0.0000 C   0  0  3  0  0  0  0  0  0  0  0  0
    7.2223   -1.8346    0.0000 C   0  0  2  0  0  0  0  0  0  0  0  0
    9.0223   -0.8138    0.0000 C   0  0  1  0  0  0  0  0  0  0  0  0
    8.1283   -0.2792    0.0000 C   0  0  0  0  0  0  0  0  0  0  0  0
    8.1283   -2.3485    0.0000 C   0  0  0  0  0  0  0  0  0  0  0  0
    6.3582   -0.2897    0.0000 C   0  0  0  0  0  0  0  0  0  0  0  0
    9.8883   -2.3138    0.0000 C   0  0  0  0  0  0  0  0  0  0  0  0
    6.3582   -2.3380    0.0000 C   0  0  0  0  0  0  0  0  0  0  0  0
    9.8883   -0.3138    0.0000 C   0  0  0  0  0  0  0  0  0  0  0  0
    6.3620    0.7103    0.0000 C   0  0  2  0  0  0  0  0  0  0  0  0
   10.7543   -1.8138    0.0000 C   0  0  0  0  0  0  0  0  0  0  0  0
   10.7543   -0.8138    0.0000 C   0  0  0  0  0  0  0  0  0  0  0  0
    5.4640    1.2381    0.0000 C   0  0  0  0  0  0  0  0  0  0  0  0
    6.3620   -3.3380    0.0000 C   0  0  0  0  0  0  0  0  0  0  0  0
    9.8722    0.7277    0.0000 C   0  0  0  0  0  0  0  0  0  0  0  0
    7.2561    2.2727    0.0000 C   0  0  0  0  0  0  0  0  0  0  0  0
   11.6643   -0.3070    0.0000 C   0  0  0  0  0  0  0  0  0  0  0  0
    5.4563    2.2380    0.0000 C   0  0  0  0  0  0  0  0  0  0  0  0
    6.3461    2.7796    0.0000 C   0  0  0  0  0  0  0  0  0  0  0  0
   10.7703    1.2554    0.0000 C   0  0  0  0  0  0  0  0  0  0  0  0
   11.6724    0.7346    0.0000 C   0  0  0  0  0  0  0  0  0  0  0  0
    4.6018    0.7314    0.0000 C   0  0  0  0  0  0  0  0  0  0  0  0
    4.5864    2.7313    0.0000 C   0  0  0  0  0  0  0  0  0  0  0  0
    3.7320    1.2247    0.0000 C   0  0  0  0  0  0  0  0  0  0  0  0
    3.7243    2.2247    0.0000 C   0  0  0  0  0  0  0  0  0  0  0  0
   11.6305    2.7588    0.0000 C   0  0  0  0  0  0  0  0  0  0  0  0
   13.4044    0.7279    0.0000 C   0  0  0  0  0  0  0  0  0  0  0  0
    2.0000    1.2114    0.0000 C   0  0  0  0  0  0  0  0  0  0  0  0
    7.2259   -0.1730    0.0000 H   0  0  0  0  0  0  0  0  0  0  0  0
    7.2259   -2.4546    0.0000 H   0  0  0  0  0  0  0  0  0  0  0  0
    9.0288    0.0361    0.0000 H   0  0  0  0  0  0  0  0  0  0  0  0
    8.5329    0.1906    0.0000 H   0  0  0  0  0  0  0  0  0  0  0  0
    7.7347    0.1998    0.0000 H   0  0  0  0  0  0  0  0  0  0  0  0
    7.7347   -2.8275    0.0000 H   0  0  0  0  0  0  0  0  0  0  0  0
    8.5329   -2.8183    0.0000 H   0  0  0  0  0  0  0  0  0  0  0  0
    5.7480   -0.1797    0.0000 H   0  0  0  0  0  0  0  0  0  0  0  0
    6.1439   -0.8715    0.0000 H   0  0  0  0  0  0  0  0  0  0  0  0
    9.4898   -2.7888    0.0000 H   0  0  0  0  0  0  0  0  0  0  0  0
   10.2868   -2.7888    0.0000 H   0  0  0  0  0  0  0  0  0  0  0  0
    6.1439   -1.7562    0.0000 H   0  0  0  0  0  0  0  0  0  0  0  0
    5.7480   -2.4480    0.0000 H   0  0  0  0  0  0  0  0  0  0  0  0
    6.8984    0.3993    0.0000 H   0  0  0  0  0  0  0  0  0  0  0  0
   10.9664   -2.3964    0.0000 H   0  0  0  0  0  0  0  0  0  0  0  0
   11.3649   -1.7062    0.0000 H   0  0  0  0  0  0  0  0  0  0  0  0
    7.8022    0.9232    0.0000 H   0  0  0  0  0  0  0  0  0  0  0  0
    5.7420   -3.3404    0.0000 H   0  0  0  0  0  0  0  0  0  0  0  0
    6.3644   -3.9580    0.0000 H   0  0  0  0  0  0  0  0  0  0  0  0
    6.9820   -3.3356    0.0000 H   0  0  0  0  0  0  0  0  0  0  0  0
    9.3318    1.0314    0.0000 H   0  0  0  0  0  0  0  0  0  0  0  0
    7.8677    2.1714    0.0000 H   0  0  0  0  0  0  0  0  0  0  0  0
    7.4606    2.8580    0.0000 H   0  0  0  0  0  0  0  0  0  0  0  0
   12.1976   -0.6232    0.0000 H   0  0  0  0  0  0  0  0  0  0  0  0
    6.7360    3.2616    0.0000 H   0  0  0  0  0  0  0  0  0  0  0  0
    5.9379    3.2462    0.0000 H   0  0  0  0  0  0  0  0  0  0  0  0
    4.6066    0.1114    0.0000 H   0  0  0  0  0  0  0  0  0  0  0  0
    4.5817    3.3513    0.0000 H   0  0  0  0  0  0  0  0  0  0  0  0
   11.9426    2.2230    0.0000 H   0  0  0  0  0  0  0  0  0  0  0  0
   12.1663    3.0708    0.0000 H   0  0  0  0  0  0  0  0  0  0  0  0
   11.3185    3.2945    0.0000 H   0  0  0  0  0  0  0  0  0  0  0  0
   13.0923    0.1922    0.0000 H   0  0  0  0  0  0  0  0  0  0  0  0
   13.9401    0.4159    0.0000 H   0  0  0  0  0  0  0  0  0  0  0  0
   13.7165    1.2637    0.0000 H   0  0  0  0  0  0  0  0  0  0  0  0
    2.8497    3.3380    0.0000 H   0  0  0  0  0  0  0  0  0  0  0  0
    2.3058    1.7507    0.0000 H   0  0  0  0  0  0  0  0  0  0  0  0
    1.4607    1.5172    0.0000 H   0  0  0  0  0  0  0  0  0  0  0  0
    1.6942    0.6721    0.0000 H   0  0  0  0  0  0  0  0  0  0  0  0
  1 26  1  0  0  0  0
  1 32  1  0  0  0  0
  2 27  1  0  0  0  0
  2 33  1  0  0  0  0
  3 30  1  0  0  0  0
  3 34  1  0  0  0  0
  4 31  1  0  0  0  0
  4 69  1  0  0  0  0
  5  9  1  0  0  0  0
  5 11  1  0  0  0  0
  5 13  1  0  0  0  0
  6 16  1  0  0  0  0
  6 22  1  0  0  0  0
  6 51  1  0  0  0  0
  7  8  1  0  0  0  0
  7 10  1  0  0  0  0
  7 12  1  0  0  0  0
  7 35  1  0  0  0  0
  8 11  1  0  0  0  0
  8 14  1  6  0  0  0
  8 36  1  0  0  0  0
  9 10  1  0  0  0  0
  9 15  1  0  0  0  0
  9 37  1  6  0  0  0
 10 38  1  0  0  0  0
 10 39  1  0  0  0  0
 11 40  1  0  0  0  0
 11 41  1  0  0  0  0
 16 12  1  6  0  0  0
 12 42  1  0  0  0  0
 12 43  1  0  0  0  0
 13 17  1  0  0  0  0
 13 44  1  0  0  0  0
 13 45  1  0  0  0  0
 14 20  1  0  0  0  0
 14 46  1  0  0  0  0
 14 47  1  0  0  0  0
 15 18  1  0  0  0  0
 15 21  2  0  0  0  0
 16 19  1  0  0  0  0
 16 48  1  0  0  0  0
 17 18  1  0  0  0  0
 17 49  1  0  0  0  0
 17 50  1  0  0  0  0
 18 23  2  0  0  0  0
 19 24  1  0  0  0  0
 19 28  2  0  0  0  0
 20 52  1  0  0  0  0
 20 53  1  0  0  0  0
 20 54  1  0  0  0  0
 21 26  1  0  0  0  0
 21 55  1  0  0  0  0
 22 25  1  0  0  0  0
 22 56  1  0  0  0  0
 22 57  1  0  0  0  0
 23 27  1  0  0  0  0
 23 58  1  0  0  0  0
 24 25  1  0  0  0  0
 24 29  2  0  0  0  0
 25 59  1  0  0  0  0
 25 60  1  0  0  0  0
 26 27  2  0  0  0  0
 28 30  1  0  0  0  0
 28 61  1  0  0  0  0
 29 31  1  0  0  0  0
 29 62  1  0  0  0  0
 30 31  2  0  0  0  0
 32 63  1  0  0  0  0
 32 64  1  0  0  0  0
 32 65  1  0  0  0  0
 33 66  1  0  0  0  0
 33 67  1  0  0  0  0
 33 68  1  0  0  0  0
 34 70  1  0  0  0  0
 34 71  1  0  0  0  0
 34 72  1  0  0  0  0
M  END
> <PUBCHEM_COMPOUND_CID>
10218

> <PUBCHEM_COMPOUND_CANONICALIZED>
1

> <PUBCHEM_CACTVS_COMPLEXITY>
664

> <PUBCHEM_CACTVS_HBOND_ACCEPTOR>
6

> <PUBCHEM_CACTVS_HBOND_DONOR>
2

> <PUBCHEM_CACTVS_ROTATABLE_BOND>
6

> <PUBCHEM_CACTVS_SUBSKEYS>
AAADcfB7OAAAAAAAAAAAAAAAAAAAAAAAAAA8eLECAAAAAACxQAAAHgAQCAAADSzBmAYyBoPABgCAAiBCAACCCAAgIAAAiIAOjIgNJiKGsRuEcCtk0BGLuAew0PMOoAABAAAQQABAAAIAACCAAAAAAAAAAA==

> <PUBCHEM_IUPAC_OPENEYE_NAME>
(1R)-1-[[(3R,11bS)-3-ethyl-9,10-dimethoxy-2,3,4,6,7,11b-hexahydro-1H-benzo[a]quinolizin-2-yl]methyl]-7-methoxy-1,2,3,4-tetrahydroisoquinolin-6-ol

> <PUBCHEM_IUPAC_CAS_NAME>
(1R)-1-[[(3R,11bS)-3-ethyl-9,10-dimethoxy-2,3,4,6,7,11b-hexahydro-1H-benzo[a]quinolizin-2-yl]methyl]-7-methoxy-1,2,3,4-tetrahydroisoquinolin-6-ol

> <PUBCHEM_IUPAC_NAME>
(1R)-1-[[(3R,11bS)-3-ethyl-9,10-dimethoxy-2,3,4,6,7,11b-hexahydro-1H-benzo[a]quinolizin-2-yl]methyl]-7-methoxy-1,2,3,4-tetrahydroisoquinolin-6-ol

> <PUBCHEM_IUPAC_SYSTEMATIC_NAME>
(1R)-1-[[(3R,11bS)-3-ethyl-9,10-dimethoxy-2,3,4,6,7,11b-hexahydro-1H-benzo[a]quinolizin-2-yl]methyl]-7-methoxy-1,2,3,4-tetrahydroisoquinolin-6-ol

> <PUBCHEM_IUPAC_TRADITIONAL_NAME>
(1R)-1-[[(3R,11bS)-3-ethyl-9,10-dimethoxy-2,3,4,6,7,11b-hexahydro-1H-benzo[a]quinolizin-2-yl]methyl]-7-methoxy-1,2,3,4-tetrahydroisoquinolin-6-ol

> <PUBCHEM_IUPAC_INCHI>
InChI=1S/C28H38N2O4/c1-5-17-16-30-9-7-19-13-27(33-3)28(34-4)15-22(19)24(30)11-20(17)10-23-21-14-26(32-2)25(31)12-18(21)6-8-29-23/h12-15,17,20,23-24,29,31H,5-11,16H2,1-4H3/t17-,20?,23+,24-/m0/s1

> <PUBCHEM_IUPAC_INCHIKEY>
DTGZHCFJNDAHEN-KTHHGNHXSA-N

> <PUBCHEM_XLOGP3_AA>
4.4

> <PUBCHEM_EXACT_MASS>
466.283158

> <PUBCHEM_MOLECULAR_FORMULA>
C28H38N2O4

> <PUBCHEM_MOLECULAR_WEIGHT>
466.61232

> <PUBCHEM_OPENEYE_CAN_SMILES>
CCC1CN2CCC3=CC(=C(C=C3C2CC1CC4C5=CC(=C(C=C5CCN4)O)OC)OC)OC

> <PUBCHEM_OPENEYE_ISO_SMILES>
CC[C@H]1CN2CCC3=CC(=C(C=C3[C@@H]2CC1C[C@@H]4C5=CC(=C(C=C5CCN4)O)OC)OC)OC

> <PUBCHEM_CACTVS_TPSA>
63.2

> <PUBCHEM_MONOISOTOPIC_WEIGHT>
466.283158

> <PUBCHEM_TOTAL_CHARGE>
0

> <PUBCHEM_HEAVY_ATOM_COUNT>
34

> <PUBCHEM_ATOM_DEF_STEREO_COUNT>
3

> <PUBCHEM_ATOM_UDEF_STEREO_COUNT>
1

> <PUBCHEM_BOND_DEF_STEREO_COUNT>
0

> <PUBCHEM_BOND_UDEF_STEREO_COUNT>
0

> <PUBCHEM_ISOTOPIC_ATOM_COUNT>
0

> <PUBCHEM_COMPONENT_COUNT>
1

> <PUBCHEM_CACTVS_TAUTO_COUNT>
9

> <PUBCHEM_COORDINATE_TYPE>
1
5
255

> <PUBCHEM_BONDANNOTATIONS>
16  12  6
15  18  8
15  21  8
18  23  8
19  24  8
19  28  8
21  26  8
23  27  8
24  29  8
26  27  8
28  30  8
29  31  8
30  31  8
7  12  3
8  14  6
9  37  6

$$$$

