73110
  -OEChem-07051213152D

 60 66  0     1  0  0  0  0  0999 V2000
    5.7342   -3.5914    0.0000 Cl  0  0  0  0  0  0  0  0  0  0  0  0
    5.5547    3.1060    0.0000 Cl  0  0  0  0  0  0  0  0  0  0  0  0
    5.2927   -0.0103    0.0000 O   0  0  0  0  0  0  0  0  0  0  0  0
    2.6678   -0.3422    0.0000 O   0  0  0  0  0  0  0  0  0  0  0  0
    4.7293   -2.6837    0.0000 O   0  0  0  0  0  0  0  0  0  0  0  0
    3.2892   -2.2433    0.0000 O   0  0  0  0  0  0  0  0  0  0  0  0
    3.0250    1.3526    0.0000 O   0  0  0  0  0  0  0  0  0  0  0  0
   10.3078   -1.7552    0.0000 O   0  0  0  0  0  0  0  0  0  0  0  0
   10.3078    1.7552    0.0000 O   0  0  0  0  0  0  0  0  0  0  0  0
    6.5819   -1.1671    0.0000 N   0  0  0  0  0  0  0  0  0  0  0  0
    6.5819    1.1671    0.0000 N   0  0  0  0  0  0  0  0  0  0  0  0
   10.5808    0.0000    0.0000 N   0  0  0  0  0  0  0  0  0  0  0  0
    5.6034   -0.9609    0.0000 C   0  0  1  0  0  0  0  0  0  0  0  0
    4.9355   -1.7052    0.0000 C   0  0  1  0  0  0  0  0  0  0  0  0
    3.9570   -1.4990    0.0000 C   0  0  2  0  0  0  0  0  0  0  0  0
    3.6464   -0.5484    0.0000 C   0  0  1  0  0  0  0  0  0  0  0  0
    4.3142    0.1959    0.0000 C   0  0  1  0  0  0  0  0  0  0  0  0
    7.3189   -0.5000    0.0000 C   0  0  0  0  0  0  0  0  0  0  0  0
    8.1849   -1.0000    0.0000 C   0  0  0  0  0  0  0  0  0  0  0  0
    6.9870   -2.0749    0.0000 C   0  0  0  0  0  0  0  0  0  0  0  0
    7.3189    0.5000    0.0000 C   0  0  0  0  0  0  0  0  0  0  0  0
    7.9757   -1.9718    0.0000 C   0  0  0  0  0  0  0  0  0  0  0  0
    8.1849    1.0000    0.0000 C   0  0  0  0  0  0  0  0  0  0  0  0
    9.0509   -0.5000    0.0000 C   0  0  0  0  0  0  0  0  0  0  0  0
    9.0509    0.5000    0.0000 C   0  0  0  0  0  0  0  0  0  0  0  0
    4.0035    1.1464    0.0000 C   0  0  0  0  0  0  0  0  0  0  0  0
    7.9757    1.9718    0.0000 C   0  0  0  0  0  0  0  0  0  0  0  0
    6.5505   -3.0138    0.0000 C   0  0  0  0  0  0  0  0  0  0  0  0
    6.9870    2.0749    0.0000 C   0  0  0  0  0  0  0  0  0  0  0  0
    8.5965   -2.8006    0.0000 C   0  0  0  0  0  0  0  0  0  0  0  0
    9.9972   -0.8047    0.0000 C   0  0  0  0  0  0  0  0  0  0  0  0
    9.9972    0.8047    0.0000 C   0  0  0  0  0  0  0  0  0  0  0  0
    7.1519   -3.8567    0.0000 C   0  0  0  0  0  0  0  0  0  0  0  0
    8.1818   -3.7494    0.0000 C   0  0  0  0  0  0  0  0  0  0  0  0
    8.5965    2.8006    0.0000 C   0  0  0  0  0  0  0  0  0  0  0  0
    6.5505    3.0138    0.0000 C   0  0  0  0  0  0  0  0  0  0  0  0
    2.0000   -1.0865    0.0000 C   0  0  0  0  0  0  0  0  0  0  0  0
    8.1818    3.7494    0.0000 C   0  0  0  0  0  0  0  0  0  0  0  0
    7.1519    3.8567    0.0000 C   0  0  0  0  0  0  0  0  0  0  0  0
    6.0174   -0.4994    0.0000 H   0  0  0  0  0  0  0  0  0  0  0  0
    5.4884   -1.9857    0.0000 H   0  0  0  0  0  0  0  0  0  0  0  0
    4.1496   -2.0883    0.0000 H   0  0  0  0  0  0  0  0  0  0  0  0
    3.2323   -1.0099    0.0000 H   0  0  0  0  0  0  0  0  0  0  0  0
    4.7283    0.6573    0.0000 H   0  0  0  0  0  0  0  0  0  0  0  0
    4.6174    1.2337    0.0000 H   0  0  0  0  0  0  0  0  0  0  0  0
    4.0241    1.7660    0.0000 H   0  0  0  0  0  0  0  0  0  0  0  0
    5.9752    1.0392    0.0000 H   0  0  0  0  0  0  0  0  0  0  0  0
    4.1400   -2.8763    0.0000 H   0  0  0  0  0  0  0  0  0  0  0  0
    9.2123   -2.7292    0.0000 H   0  0  0  0  0  0  0  0  0  0  0  0
    2.6825   -2.1154    0.0000 H   0  0  0  0  0  0  0  0  0  0  0  0
   11.2008    0.0000    0.0000 H   0  0  0  0  0  0  0  0  0  0  0  0
    6.8970   -4.4219    0.0000 H   0  0  0  0  0  0  0  0  0  0  0  0
    8.5477   -4.2499    0.0000 H   0  0  0  0  0  0  0  0  0  0  0  0
    9.2123    2.7292    0.0000 H   0  0  0  0  0  0  0  0  0  0  0  0
    1.5385   -0.6724    0.0000 H   0  0  0  0  0  0  0  0  0  0  0  0
    1.5859   -1.5480    0.0000 H   0  0  0  0  0  0  0  0  0  0  0  0
    2.4615   -1.5006    0.0000 H   0  0  0  0  0  0  0  0  0  0  0  0
    2.8324    1.9419    0.0000 H   0  0  0  0  0  0  0  0  0  0  0  0
    8.5477    4.2499    0.0000 H   0  0  0  0  0  0  0  0  0  0  0  0
    6.8970    4.4219    0.0000 H   0  0  0  0  0  0  0  0  0  0  0  0
  1 28  1  0  0  0  0
  2 36  1  0  0  0  0
  3 13  1  0  0  0  0
  3 17  1  0  0  0  0
 16  4  1  6  0  0  0
  4 37  1  0  0  0  0
 14  5  1  6  0  0  0
  5 48  1  0  0  0  0
 15  6  1  1  0  0  0
  6 50  1  0  0  0  0
  7 26  1  0  0  0  0
  7 58  1  0  0  0  0
  8 31  2  0  0  0  0
  9 32  2  0  0  0  0
 13 10  1  1  0  0  0
 10 18  1  0  0  0  0
 10 20  1  0  0  0  0
 11 21  1  0  0  0  0
 11 29  1  0  0  0  0
 11 47  1  0  0  0  0
 12 31  1  0  0  0  0
 12 32  1  0  0  0  0
 12 51  1  0  0  0  0
 13 14  1  0  0  0  0
 13 40  1  0  0  0  0
 14 15  1  0  0  0  0
 14 41  1  0  0  0  0
 15 16  1  0  0  0  0
 15 42  1  0  0  0  0
 16 17  1  0  0  0  0
 16 43  1  0  0  0  0
 17 26  1  1  0  0  0
 17 44  1  0  0  0  0
 18 19  1  0  0  0  0
 18 21  2  0  0  0  0
 19 22  1  0  0  0  0
 19 24  2  0  0  0  0
 20 22  2  0  0  0  0
 20 28  1  0  0  0  0
 21 23  1  0  0  0  0
 22 30  1  0  0  0  0
 23 25  2  0  0  0  0
 23 27  1  0  0  0  0
 24 25  1  0  0  0  0
 24 31  1  0  0  0  0
 25 32  1  0  0  0  0
 26 45  1  0  0  0  0
 26 46  1  0  0  0  0
 27 29  2  0  0  0  0
 27 35  1  0  0  0  0
 28 33  2  0  0  0  0
 29 36  1  0  0  0  0
 30 34  2  0  0  0  0
 30 49  1  0  0  0  0
 33 34  1  0  0  0  0
 33 52  1  0  0  0  0
 34 53  1  0  0  0  0
 35 38  2  0  0  0  0
 35 54  1  0  0  0  0
 36 39  2  0  0  0  0
 37 55  1  0  0  0  0
 37 56  1  0  0  0  0
 37 57  1  0  0  0  0
 38 39  1  0  0  0  0
 38 59  1  0  0  0  0
 39 60  1  0  0  0  0
M  END
> <PUBCHEM_COMPOUND_CID>
73110

> <PUBCHEM_COMPOUND_CANONICALIZED>
1

> <PUBCHEM_CACTVS_COMPLEXITY>
1010

> <PUBCHEM_CACTVS_HBOND_ACCEPTOR>
7

> <PUBCHEM_CACTVS_HBOND_DONOR>
5

> <PUBCHEM_CACTVS_ROTATABLE_BOND>
3

> <PUBCHEM_CACTVS_SUBSKEYS>
AAADceB7OAAGAAAAAAAAAAAAAAAAAWLFgAA0YMEAAAAAAFgB/gAAHgIQCAAADB7hniYywPPNlgCoAyVyVACCgCQlFSAI2SEoVtgLcPLBl5HeYQhnhCDbyQf9+caeyAACYAASADCQAATAACQAYAAAAAAAAA==

> <PUBCHEM_IUPAC_INCHI>
InChI=1S/C27H21Cl2N3O7/c1-38-24-13(8-33)39-27(23(35)22(24)34)32-20-10(5-3-7-12(20)29)15-17-16(25(36)31-26(17)37)14-9-4-2-6-11(28)18(9)30-19(14)21(15)32/h2-7,13,22-24,27,30,33-35H,8H2,1H3,(H,31,36,37)/t13-,22-,23-,24-,27-/m1/s1

> <PUBCHEM_IUPAC_INCHIKEY>
QEHOIJJIZXRMAN-QZQSLCQPSA-N

> <PUBCHEM_XLOGP3_AA>
2.6

> <PUBCHEM_EXACT_MASS>
569.075655

> <PUBCHEM_MOLECULAR_FORMULA>
C27H21Cl2N3O7

> <PUBCHEM_MOLECULAR_WEIGHT>
570.37754

> <PUBCHEM_OPENEYE_CAN_SMILES>
COC1C(OC(C(C1O)O)N2C3=C(C=CC=C3Cl)C4=C5C(=C6C7=C(C(=CC=C7)Cl)NC6=C42)C(=O)NC5=O)CO

> <PUBCHEM_OPENEYE_ISO_SMILES>
CO[C@@H]1[C@H](O[C@H]([C@@H]([C@H]1O)O)N2C3=C(C=CC=C3Cl)C4=C5C(=C6C7=C(C(=CC=C7)Cl)NC6=C42)C(=O)NC5=O)CO

> <PUBCHEM_CACTVS_TPSA>
146

> <PUBCHEM_MONOISOTOPIC_WEIGHT>
569.075655

> <PUBCHEM_TOTAL_CHARGE>
0

> <PUBCHEM_HEAVY_ATOM_COUNT>
39

> <PUBCHEM_ATOM_DEF_STEREO_COUNT>
5

> <PUBCHEM_ATOM_UDEF_STEREO_COUNT>
0

> <PUBCHEM_BOND_DEF_STEREO_COUNT>
0

> <PUBCHEM_BOND_UDEF_STEREO_COUNT>
0

> <PUBCHEM_ISOTOPIC_ATOM_COUNT>
0

> <PUBCHEM_COMPONENT_COUNT>
1

> <PUBCHEM_CACTVS_TAUTO_COUNT>
21

> <PUBCHEM_COORDINATE_TYPE>
1
5
255

> <PUBCHEM_BONDANNOTATIONS>
13  10  5
10  18  8
10  20  8
11  21  8
11  29  8
17  26  5
18  19  8
18  21  8
19  22  8
19  24  8
20  22  8
20  28  8
21  23  8
22  30  8
23  25  8
23  27  8
24  25  8
27  29  8
27  35  8
28  33  8
29  36  8
30  34  8
33  34  8
35  38  8
36  39  8
38  39  8
16  4  6
14  5  6
15  6  5

$$$$

