   Color/Form

     * Black powder
     * Blue-black microcrystalline powder
     * Red-brown needles

   from [1]HSDB

   Melting Point
        331 deg C
   from [2]HSDB

   Octanol/Water Partition Coefficient
        log Kow = 2.98 (est)
   from [3]HSDB

   Solubilities

     * Soluble in acetone, ethanol, and cellosolve; slightly soluble in
       benzene and linseed oil
     * In ethylene glycol monomethyl ether, 30 mg/mL; in ethanol, 2 mg/mL
     * Insoluble in water /Dyes, disperse/
     * In water, 0.03 mg/L at 25 deg C

   from [4]HSDB

   Spectral Properties

     * NIST Mass Spectra Number = 245765
     * lambda max is 615 nm, E1=1.8X10-4
     * lambda max: 620 nm in 50% ethanol + 1 drop 1N NaOH

   from [5]HSDB

   Vapor Pressure
        1.8X10-8 mm Hg at 25 deg C
   from [6]HSDB

   Other Chemical/Physical Properties

     * Henry's Law constant = 2.1X10-7 atm-cu m/mol at 25 deg C (est)
     * Hydroxyl radical reaction rate constant = 1.36X10-10 cu
       cm/molec-sec at 25 degt C (est)

   from [7]HSDB

   Computed Properties
   Molecular Weight                  268.27068 [g/mol]
   Molecular Formula                 C[14]H[12]N[4]O[2]
   XLogP3-AA                         1.2
   H-Bond Donor                      4
   H-Bond Acceptor                   6
   Rotatable Bond Count              0
   Tautomer Count                    52
   Exact Mass                        268.096026
   MonoIsotopic Mass                 268.096026
   Topological Polar Surface Area    138
   Heavy Atom Count                  20
   Formal Charge                     0
   Complexity                        365
   Isotope Atom Count                0
   Defined Atom Stereocenter Count   0
   Undefined Atom Stereocenter Count 0
   Defined Bond Stereocenter Count   0
   Undefined Bond Stereocenter Count 0
   Covalently-Bonded Unit Count      1
   Feature 3D Acceptor Count         2
   Feature 3D Donor Count            4
   Feature 3D Cation Count           4
   Feature 3D Ring Count             3
   Effective Rotor Count             0
   Conformer Sampling RMSD           0.6
   CID Conformer Count               [8]1

References

   1. http://toxnet.nlm.nih.gov/cgi-bin/sis/search/r?dbs+hsdb:@term+@rn+@rel+2475-45-8
   2. http://toxnet.nlm.nih.gov/cgi-bin/sis/search/r?dbs+hsdb:@term+@rn+@rel+2475-45-8
   3. http://toxnet.nlm.nih.gov/cgi-bin/sis/search/r?dbs+hsdb:@term+@rn+@rel+2475-45-8
   4. http://toxnet.nlm.nih.gov/cgi-bin/sis/search/r?dbs+hsdb:@term+@rn+@rel+2475-45-8
   5. http://toxnet.nlm.nih.gov/cgi-bin/sis/search/r?dbs+hsdb:@term+@rn+@rel+2475-45-8
   6. http://toxnet.nlm.nih.gov/cgi-bin/sis/search/r?dbs+hsdb:@term+@rn+@rel+2475-45-8
   7. http://toxnet.nlm.nih.gov/cgi-bin/sis/search/r?dbs+hsdb:@term+@rn+@rel+2475-45-8
   8. http://pubchem.ncbi.nlm.nih.gov/vw3d/vw3d.cgi?cid=17190
