   Color/Form
        White to reddish crystals or powder [Note: Darkens on exposure to
   air].
   from [1]HSDB

   Boiling Point
        300 DEG C
   from [2]HSDB

   Melting Point
        129-131 deg C
   from [3]HSDB

   Dissociation Constants
        pKa1= 4.5; pKa2= 3.3
   from [4]HSDB

   Heat of Combustion
        Liquid: 964.3 kg.cal
   from [5]HSDB

   Octanol/Water Partition Coefficient
        log Kow= 2.34
   from [6]HSDB

   Solubilities

     * Sol in alc, ether, dil acids
     * In water, 1,300 mg/l @ 25 deg C

   from [7]HSDB

   Spectral Properties

     * SADTLER REFERENCE NUMBER: 6379 (IR, PRISM) MAX ABSORPTION (DIL
       ALC): 284 NM (LOG E= 4.4)
     * Intense mass spectral peaks: 212 m/z (100%), 106 m/z (83%), 213 m/z
       (16%), 211 m/z (16%)
     * IR: 8468 (Sadtler Research Laboratories IR Grating Collection)
     * UV: 1760 (Sadtler Research Laboratories Spectral Collection)
     * NMR: 269 (Sadtler Research Laboratories Spectral Collection)

   from [8]HSDB

   Computed Properties
   Molecular Weight                  212.29024 [g/mol]
   Molecular Formula                 C[14]H[16]N[2]
   XLogP3                            2.3
   H-Bond Donor                      2
   H-Bond Acceptor                   2
   Rotatable Bond Count              1
   Exact Mass                        212.131349
   MonoIsotopic Mass                 212.131349
   Topological Polar Surface Area    52
   Heavy Atom Count                  16
   Formal Charge                     0
   Complexity                        205
   Isotope Atom Count                0
   Defined Atom Stereocenter Count   0
   Undefined Atom Stereocenter Count 0
   Defined Bond Stereocenter Count   0
   Undefined Bond Stereocenter Count 0
   Covalently-Bonded Unit Count      1
   Feature 3D Donor Count            2
   Feature 3D Cation Count           2
   Feature 3D Ring Count             2
   Effective Rotor Count             1
   Conformer Sampling RMSD           0.6
   CID Conformer Count               [9]4

References

   1. http://toxnet.nlm.nih.gov/cgi-bin/sis/search/r?dbs+hsdb:@term+@rn+@rel+119-93-7
   2. http://toxnet.nlm.nih.gov/cgi-bin/sis/search/r?dbs+hsdb:@term+@rn+@rel+119-93-7
   3. http://toxnet.nlm.nih.gov/cgi-bin/sis/search/r?dbs+hsdb:@term+@rn+@rel+119-93-7
   4. http://toxnet.nlm.nih.gov/cgi-bin/sis/search/r?dbs+hsdb:@term+@rn+@rel+119-93-7
   5. http://toxnet.nlm.nih.gov/cgi-bin/sis/search/r?dbs+hsdb:@term+@rn+@rel+119-93-7
   6. http://toxnet.nlm.nih.gov/cgi-bin/sis/search/r?dbs+hsdb:@term+@rn+@rel+119-93-7
   7. http://toxnet.nlm.nih.gov/cgi-bin/sis/search/r?dbs+hsdb:@term+@rn+@rel+119-93-7
   8. http://toxnet.nlm.nih.gov/cgi-bin/sis/search/r?dbs+hsdb:@term+@rn+@rel+119-93-7
   9. http://pubchem.ncbi.nlm.nih.gov/vw3d/vw3d.cgi?cid=8413
