9328
  -OEChem-06261203372D

 96103  0     1  0  0  0  0  0999 V2000
   11.9060   11.4980    0.0000 O   0  0  0  0  0  0  0  0  0  0  0  0
   11.9060    3.1497    0.0000 O   0  0  0  0  0  0  0  0  0  0  0  0
   12.9365   13.4351    0.0000 O   0  0  0  0  0  0  0  0  0  0  0  0
   12.9365    5.0868    0.0000 O   0  0  0  0  0  0  0  0  0  0  0  0
   11.6274    8.9552    0.0000 O   0  0  0  0  0  0  0  0  0  0  0  0
   11.6274    0.6069    0.0000 O   0  0  0  0  0  0  0  0  0  0  0  0
    3.1350    8.6267    0.0000 O   0  0  0  0  0  0  0  0  0  0  0  0
    2.2690    6.1267    0.0000 O   0  0  0  0  0  0  0  0  0  0  0  0
    4.8671    7.6267    0.0000 O   0  0  0  0  0  0  0  0  0  0  0  0
    0.5369    7.1267    0.0000 O   0  0  0  0  0  0  0  0  0  0  0  0
    4.0010    6.1267    0.0000 O   0  0  0  0  0  0  0  0  0  0  0  0
    1.4030    8.6267    0.0000 O   0  0  0  0  0  0  0  0  0  0  0  0
    8.9583   12.2668    0.0000 N   0  0  3  0  0  0  0  0  0  0  0  0
    8.9583    3.9185    0.0000 N   0  0  3  0  0  0  0  0  0  0  0  0
   10.5135   12.3051    0.0000 C   0  0  1  0  0  0  0  0  0  0  0  0
   10.5135    3.9568    0.0000 C   0  0  1  0  0  0  0  0  0  0  0  0
    9.7704   12.9742    0.0000 C   0  0  2  0  0  0  0  0  0  0  0  0
    9.7704    4.6260    0.0000 C   0  0  2  0  0  0  0  0  0  0  0  0
    8.8193   12.6652    0.0000 C   0  0  2  0  0  0  0  0  0  0  0  0
    8.8193    4.3169    0.0000 C   0  0  2  0  0  0  0  0  0  0  0  0
   11.5024   12.4065    0.0000 C   0  0  2  0  0  0  0  0  0  0  0  0
   11.5024    4.0582    0.0000 C   0  0  2  0  0  0  0  0  0  0  0  0
   10.2245   11.9976    0.0000 C   0  0  0  0  0  0  0  0  0  0  0  0
   10.2245    3.6494    0.0000 C   0  0  0  0  0  0  0  0  0  0  0  0
   10.3056   11.3270    0.0000 C   0  0  0  0  0  0  0  0  0  0  0  0
   10.3056    2.9787    0.0000 C   0  0  0  0  0  0  0  0  0  0  0  0
    8.6114   11.6871    0.0000 C   0  0  0  0  0  0  0  0  0  0  0  0
    8.6114    3.3388    0.0000 C   0  0  0  0  0  0  0  0  0  0  0  0
    9.4936   11.6723    0.0000 C   0  0  0  0  0  0  0  0  0  0  0  0
    9.4936    3.3240    0.0000 C   0  0  0  0  0  0  0  0  0  0  0  0
    9.3546   11.0180    0.0000 C   0  0  0  0  0  0  0  0  0  0  0  0
    9.3546    2.6697    0.0000 C   0  0  0  0  0  0  0  0  0  0  0  0
   11.9406   13.3447    0.0000 C   0  0  2  0  0  0  0  0  0  0  0  0
   11.9406    4.9964    0.0000 C   0  0  2  0  0  0  0  0  0  0  0  0
   10.3105   14.0830    0.0000 C   0  0  0  0  0  0  0  0  0  0  0  0
   10.3105    5.7347    0.0000 C   0  0  0  0  0  0  0  0  0  0  0  0
   11.0904   10.6420    0.0000 C   0  0  0  0  0  0  0  0  0  0  0  0
   11.0904    2.2937    0.0000 C   0  0  0  0  0  0  0  0  0  0  0  0
   11.3406   14.1886    0.0000 C   0  0  0  0  0  0  0  0  0  0  0  0
   11.3406    5.8403    0.0000 C   0  0  0  0  0  0  0  0  0  0  0  0
    7.9638   12.1622    0.0000 C   0  0  0  0  0  0  0  0  0  0  0  0
    7.9638    3.8140    0.0000 C   0  0  0  0  0  0  0  0  0  0  0  0
    9.1223   10.0025    0.0000 C   0  0  0  0  0  0  0  0  0  0  0  0
    9.1223    1.6543    0.0000 C   0  0  0  0  0  0  0  0  0  0  0  0
   10.8817    9.6215    0.0000 C   0  0  0  0  0  0  0  0  0  0  0  0
   10.8817    1.2732    0.0000 C   0  0  0  0  0  0  0  0  0  0  0  0
    9.8910    9.2996    0.0000 C   0  0  0  0  0  0  0  0  0  0  0  0
    9.8910    0.9513    0.0000 C   0  0  0  0  0  0  0  0  0  0  0  0
    3.1350    7.6267    0.0000 C   0  0  2  0  0  0  0  0  0  0  0  0
    2.2690    7.1267    0.0000 C   0  0  2  0  0  0  0  0  0  0  0  0
    4.0010    7.1267    0.0000 C   0  0  0  0  0  0  0  0  0  0  0  0
    1.4030    7.6267    0.0000 C   0  0  0  0  0  0  0  0  0  0  0  0
    9.9367   13.7568    0.0000 H   0  0  0  0  0  0  0  0  0  0  0  0
    9.9367    5.4085    0.0000 H   0  0  0  0  0  0  0  0  0  0  0  0
    8.0368   12.8316    0.0000 H   0  0  0  0  0  0  0  0  0  0  0  0
    8.0368    4.4833    0.0000 H   0  0  0  0  0  0  0  0  0  0  0  0
   12.3024   12.3989    0.0000 H   0  0  0  0  0  0  0  0  0  0  0  0
   12.3024    4.0506    0.0000 H   0  0  0  0  0  0  0  0  0  0  0  0
   10.2417   11.3779    0.0000 H   0  0  0  0  0  0  0  0  0  0  0  0
    9.8655   12.5031    0.0000 H   0  0  0  0  0  0  0  0  0  0  0  0
   10.2417    3.0296    0.0000 H   0  0  0  0  0  0  0  0  0  0  0  0
    9.8655    4.1548    0.0000 H   0  0  0  0  0  0  0  0  0  0  0  0
    8.0366   11.9193    0.0000 H   0  0  0  0  0  0  0  0  0  0  0  0
    8.2829   11.1613    0.0000 H   0  0  0  0  0  0  0  0  0  0  0  0
    8.0366    3.5711    0.0000 H   0  0  0  0  0  0  0  0  0  0  0  0
    8.2829    2.8130    0.0000 H   0  0  0  0  0  0  0  0  0  0  0  0
    8.9921   11.3078    0.0000 H   0  0  0  0  0  0  0  0  0  0  0  0
    9.8036   11.1353    0.0000 H   0  0  0  0  0  0  0  0  0  0  0  0
    8.9921    2.9595    0.0000 H   0  0  0  0  0  0  0  0  0  0  0  0
    9.8036    2.7870    0.0000 H   0  0  0  0  0  0  0  0  0  0  0  0
   12.2969   12.8373    0.0000 H   0  0  0  0  0  0  0  0  0  0  0  0
   12.1997    5.5596    0.0000 H   0  0  0  0  0  0  0  0  0  0  0  0
    9.9555   14.5913    0.0000 H   0  0  0  0  0  0  0  0  0  0  0  0
    9.9555    6.2430    0.0000 H   0  0  0  0  0  0  0  0  0  0  0  0
   11.5964   14.7534    0.0000 H   0  0  0  0  0  0  0  0  0  0  0  0
   11.5964    6.4051    0.0000 H   0  0  0  0  0  0  0  0  0  0  0  0
    7.8990   12.7789    0.0000 H   0  0  0  0  0  0  0  0  0  0  0  0
    7.3472   12.0974    0.0000 H   0  0  0  0  0  0  0  0  0  0  0  0
    8.0286   11.5456    0.0000 H   0  0  0  0  0  0  0  0  0  0  0  0
    7.8990    4.4306    0.0000 H   0  0  0  0  0  0  0  0  0  0  0  0
    7.3472    3.7492    0.0000 H   0  0  0  0  0  0  0  0  0  0  0  0
    8.0286    3.1974    0.0000 H   0  0  0  0  0  0  0  0  0  0  0  0
    8.5305    9.8178    0.0000 H   0  0  0  0  0  0  0  0  0  0  0  0
    8.5305    1.4695    0.0000 H   0  0  0  0  0  0  0  0  0  0  0  0
    9.7598    8.6937    0.0000 H   0  0  0  0  0  0  0  0  0  0  0  0
    9.7598    0.3454    0.0000 H   0  0  0  0  0  0  0  0  0  0  0  0
   13.1966   13.9979    0.0000 H   0  0  0  0  0  0  0  0  0  0  0  0
   13.1966    5.6496    0.0000 H   0  0  0  0  0  0  0  0  0  0  0  0
   11.5008    8.3483    0.0000 H   0  0  0  0  0  0  0  0  0  0  0  0
   11.5008    0.0000    0.0000 H   0  0  0  0  0  0  0  0  0  0  0  0
    3.6719    7.9367    0.0000 H   0  0  0  0  0  0  0  0  0  0  0  0
    2.8059    6.8167    0.0000 H   0  0  0  0  0  0  0  0  0  0  0  0
    3.6719    8.9367    0.0000 H   0  0  0  0  0  0  0  0  0  0  0  0
    1.7321    5.8167    0.0000 H   0  0  0  0  0  0  0  0  0  0  0  0
    5.4040    7.3167    0.0000 H   0  0  0  0  0  0  0  0  0  0  0  0
    0.0000    7.4367    0.0000 H   0  0  0  0  0  0  0  0  0  0  0  0
  1 21  1  0  0  0  0
  1 37  1  0  0  0  0
  2 22  1  0  0  0  0
  2 38  1  0  0  0  0
  3 33  1  0  0  0  0
  3 87  1  0  0  0  0
  4 34  1  0  0  0  0
  4 88  1  0  0  0  0
  5 45  1  0  0  0  0
  5 89  1  0  0  0  0
  6 46  1  0  0  0  0
  6 90  1  0  0  0  0
  7 49  1  0  0  0  0
  7 93  1  0  0  0  0
  8 50  1  0  0  0  0
  8 94  1  0  0  0  0
  9 51  1  0  0  0  0
  9 95  1  0  0  0  0
 10 52  1  0  0  0  0
 10 96  1  0  0  0  0
 11 51  2  0  0  0  0
 12 52  2  0  0  0  0
 13 19  1  0  0  0  0
 13 29  1  0  0  0  0
 13 41  1  0  0  0  0
 14 20  1  0  0  0  0
 14 30  1  0  0  0  0
 14 42  1  0  0  0  0
 15 17  1  0  0  0  0
 15 21  1  0  0  0  0
 15 23  1  0  0  0  0
 15 25  1  0  0  0  0
 16 18  1  0  0  0  0
 16 22  1  0  0  0  0
 16 24  1  0  0  0  0
 16 26  1  0  0  0  0
 17 19  1  0  0  0  0
 17 35  1  0  0  0  0
 17 53  1  0  0  0  0
 18 20  1  0  0  0  0
 18 36  1  0  0  0  0
 18 54  1  0  0  0  0
 19 27  1  0  0  0  0
 19 55  1  0  0  0  0
 20 28  1  0  0  0  0
 20 56  1  0  0  0  0
 21 33  1  0  0  0  0
 21 57  1  0  0  0  0
 22 34  1  0  0  0  0
 22 58  1  0  0  0  0
 23 29  1  0  0  0  0
 23 59  1  0  0  0  0
 23 60  1  0  0  0  0
 24 30  1  0  0  0  0
 24 61  1  0  0  0  0
 24 62  1  0  0  0  0
 25 31  2  0  0  0  0
 25 37  1  0  0  0  0
 26 32  2  0  0  0  0
 26 38  1  0  0  0  0
 27 31  1  0  0  0  0
 27 63  1  0  0  0  0
 27 64  1  0  0  0  0
 28 32  1  0  0  0  0
 28 65  1  0  0  0  0
 28 66  1  0  0  0  0
 29 67  1  0  0  0  0
 29 68  1  0  0  0  0
 30 69  1  0  0  0  0
 30 70  1  0  0  0  0
 31 43  1  0  0  0  0
 32 44  1  0  0  0  0
 33 39  1  0  0  0  0
 33 71  1  0  0  0  0
 34 40  1  0  0  0  0
 34 72  1  0  0  0  0
 35 39  2  0  0  0  0
 35 73  1  0  0  0  0
 36 40  2  0  0  0  0
 36 74  1  0  0  0  0
 37 45  2  0  0  0  0
 38 46  2  0  0  0  0
 39 75  1  0  0  0  0
 40 76  1  0  0  0  0
 41 77  1  0  0  0  0
 41 78  1  0  0  0  0
 41 79  1  0  0  0  0
 42 80  1  0  0  0  0
 42 81  1  0  0  0  0
 42 82  1  0  0  0  0
 43 47  2  0  0  0  0
 43 83  1  0  0  0  0
 44 48  2  0  0  0  0
 44 84  1  0  0  0  0
 45 47  1  0  0  0  0
 46 48  1  0  0  0  0
 47 85  1  0  0  0  0
 48 86  1  0  0  0  0
 49 50  1  0  0  0  0
 49 51  1  0  0  0  0
 49 91  1  0  0  0  0
 50 52  1  0  0  0  0
 50 92  1  0  0  0  0
M  END
> <PUBCHEM_COMPOUND_CID>
9328

> <PUBCHEM_COMPOUND_CANONICALIZED>
1

> <PUBCHEM_CACTVS_COMPLEXITY>
628

> <PUBCHEM_CACTVS_HBOND_ACCEPTOR>
14

> <PUBCHEM_CACTVS_HBOND_DONOR>
8

> <PUBCHEM_CACTVS_ROTATABLE_BOND>
3

> <PUBCHEM_CACTVS_SUBSKEYS>
AAADcfB/PAAAAAAAAAAAAAAAAAAAASJAAAA8eMGCAAAWLEjBQAAAHgAACAAADzzhmAYyDoMABgCIAiDSCAICCAAgIAAIiAFOiIgNNjaGsRuGeCOl4BGLuAfz8PcPoAABAAAYQADQAAaAADSAAAAAAAAAAA==

> <PUBCHEM_IUPAC_OPENEYE_NAME>
(4S,4aR,7S,7aR,12bS)-3-methyl-2,4,4a,7,7a,13-hexahydro-1H-4,12-methanobenzofuro[3,2-e]isoquinoline-7,9-diol; (2R,3R)-2,3-dihydroxybutanedioic acid

> <PUBCHEM_IUPAC_CAS_NAME>
(4S,4aR,7S,7aR,12bS)-3-methyl-2,4,4a,7,7a,13-hexahydro-1H-4,12-methanobenzofuro[3,2-e]isoquinoline-7,9-diol; (2R,3R)-2,3-dihydroxybutanedioic acid

> <PUBCHEM_IUPAC_NAME>
(4S,4aR,7S,7aR,12bS)-3-methyl-2,4,4a,7,7a,13-hexahydro-1H-4,12-methanobenzofuro[3,2-e]isoquinoline-7,9-diol; (2R,3R)-2,3-dihydroxybutanedioic acid

> <PUBCHEM_IUPAC_SYSTEMATIC_NAME>
(4S,4aR,7S,7aR,12bS)-3-methyl-2,4,4a,7,7a,13-hexahydro-1H-4,12-methanobenzofuro[3,2-e]isoquinoline-7,9-diol; (2R,3R)-2,3-bis(oxidanyl)butanedioic acid

> <PUBCHEM_IUPAC_TRADITIONAL_NAME>
(4S,4aR,7S,7aR,12bS)-3-methyl-2,4,4a,7,7a,13-hexahydro-1H-4,12-methanobenzofuro[3,2-e]isoquinoline-7,9-diol; (2R,3R)-2,3-dihydroxysuccinic acid

> <PUBCHEM_IUPAC_INCHI>
InChI=1S/2C17H19NO3.C4H6O6/c2*1-18-7-6-17-10-3-5-13(20)16(17)21-15-12(19)4-2-9(14(15)17)8-11(10)18;5-1(3(7)8)2(6)4(9)10/h2*2-5,10-11,13,16,19-20H,6-8H2,1H3;1-2,5-6H,(H,7,8)(H,9,10)/t2*10-,11-,13-,16-,17-;1-,2-/m001/s1

> <PUBCHEM_IUPAC_INCHIKEY>
SVTKSKRNLMAUKF-QMGDQFMZSA-N

> <PUBCHEM_XLOGP3_AA>
0.794

> <PUBCHEM_EXACT_MASS>
720.289425

> <PUBCHEM_MOLECULAR_FORMULA>
C38H44N2O12

> <PUBCHEM_MOLECULAR_WEIGHT>
720.76216

> <PUBCHEM_OPENEYE_CAN_SMILES>
CN1CCC23C4C1CC5=C2C(=C(C=C5)O)OC3C(C=C4)O.CN1CCC23C4C1CC5=C2C(=C(C=C5)O)OC3C(C=C4)O.C(C(C(=O)O)O)(C(=O)O)O

> <PUBCHEM_OPENEYE_ISO_SMILES>
CN1CC[C@]23[C@@H]4[C@@H]1CC5=C2C(=C(C=C5)O)O[C@H]3[C@H](C=C4)O.CN1CC[C@]23[C@@H]4[C@@H]1CC5=C2C(=C(C=C5)O)O[C@H]3[C@H](C=C4)O.[C@@H]([C@H](C(=O)O)O)(C(=O)O)O

> <PUBCHEM_CACTVS_TPSA>
221

> <PUBCHEM_MONOISOTOPIC_WEIGHT>
720.289425

> <PUBCHEM_TOTAL_CHARGE>
0

> <PUBCHEM_HEAVY_ATOM_COUNT>
52

> <PUBCHEM_ATOM_DEF_STEREO_COUNT>
12

> <PUBCHEM_ATOM_UDEF_STEREO_COUNT>
0

> <PUBCHEM_BOND_DEF_STEREO_COUNT>
0

> <PUBCHEM_BOND_UDEF_STEREO_COUNT>
0

> <PUBCHEM_ISOTOPIC_ATOM_COUNT>
0

> <PUBCHEM_COMPONENT_COUNT>
3

> <PUBCHEM_CACTVS_TAUTO_COUNT>
5

> <PUBCHEM_COORDINATE_TYPE>
1
5
255

> <PUBCHEM_BONDANNOTATIONS>
15  23  3
16  24  3
17  53  3
18  54  3
19  55  3
20  56  3
21  57  3
22  58  3
25  31  8
25  37  8
26  32  8
26  38  8
33  3  3
31  43  8
32  44  8
37  45  8
38  46  8
34  4  3
43  47  8
44  48  8
45  47  8
46  48  8
49  7  3
50  8  3

$$$$

