   Color/Form

     * White powder
     * WHITE, CRYSTALLINE
     * Colorless crystals

   from [1]HSDB

   Boiling Point
        337 deg C at 98.6 kPa
   from [2]HSDB

   Melting Point
        88 deg C
   from [3]HSDB

   Corrosivity
        Noncorrosive
   from [4]HSDB

   Density/Specific Gravity
        1.18 at 22 deg C
   from [5]HSDB

   Dissociation Constants

     * pKa = 4.10, weak base
     * pKb = 9.9

   from [6]HSDB

   Octanol/Water Partition Coefficient
        log Kow = 2.98
   from [7]HSDB

   Solubilities

     * Readily soluble in organic solvents
     * Solubilities in organic solvents at 25 deg C.

       Solvent

   g/L

   Acetone 620
   Methanol 510
   Toluene 470
   n-Octanol 220
   Hexane 12

     In water, 209 mg/L at 25 deg C

   from [8]HSDB

   Spectral Properties
        Intense mass spectral peaks: 227 m/z (100%), 212 m/z (64%), 58 m/z
   (47%), 44 m/z (41%)
   from [9]HSDB

   Vapor Pressure
        2.74X10-6 mm Hg at 25 deg C
   from [10]HSDB

   Other Chemical/Physical Properties

     * VAPOR PRESSURE: 8.4X10-7 MM HG @ 20 DEG C
     * Stable in neutral, weakly acidic, and weakly alkaline media.
       Hydrolyzed by strong acids (pH 1) and alkalis (pH 13) to the
       herbicidally-inactive 6-hydroxy derivative. Slowly decomposed by UV
       light.
     * Henry's Law constant = 2.43X10-9 atm-cu m/mol at 25 deg C (est)
     * Hydroxyl radical reaction rate constant = 2.85X10-11 cu
       cm/molec-sec at 25 deg C (est)

   from [11]HSDB

   Computed Properties
   Molecular Weight                  227.32978 [g/mol]
   Molecular Formula                 C[9]H[17]N[5]S
   XLogP3                            3
   H-Bond Donor                      2
   H-Bond Acceptor                   6
   Rotatable Bond Count              5
   Tautomer Count                    9
   Exact Mass                        227.120467
   MonoIsotopic Mass                 227.120467
   Topological Polar Surface Area    88
   Heavy Atom Count                  15
   Formal Charge                     0
   Complexity                        178
   Isotope Atom Count                0
   Defined Atom Stereocenter Count   0
   Undefined Atom Stereocenter Count 0
   Defined Bond Stereocenter Count   0
   Undefined Bond Stereocenter Count 0
   Covalently-Bonded Unit Count      1
   Feature 3D Donor Count            2
   Feature 3D Cation Count           2
   Feature 3D Hydrophobe Count       2
   Feature 3D Ring Count             1
   Effective Rotor Count             5
   Conformer Sampling RMSD           0.6
   CID Conformer Count               [12]176

References

   1. http://toxnet.nlm.nih.gov/cgi-bin/sis/search/r?dbs+hsdb:@term+@rn+@rel+834-12-8
   2. http://toxnet.nlm.nih.gov/cgi-bin/sis/search/r?dbs+hsdb:@term+@rn+@rel+834-12-8
   3. http://toxnet.nlm.nih.gov/cgi-bin/sis/search/r?dbs+hsdb:@term+@rn+@rel+834-12-8
   4. http://toxnet.nlm.nih.gov/cgi-bin/sis/search/r?dbs+hsdb:@term+@rn+@rel+834-12-8
   5. http://toxnet.nlm.nih.gov/cgi-bin/sis/search/r?dbs+hsdb:@term+@rn+@rel+834-12-8
   6. http://toxnet.nlm.nih.gov/cgi-bin/sis/search/r?dbs+hsdb:@term+@rn+@rel+834-12-8
   7. http://toxnet.nlm.nih.gov/cgi-bin/sis/search/r?dbs+hsdb:@term+@rn+@rel+834-12-8
   8. http://toxnet.nlm.nih.gov/cgi-bin/sis/search/r?dbs+hsdb:@term+@rn+@rel+834-12-8
   9. http://toxnet.nlm.nih.gov/cgi-bin/sis/search/r?dbs+hsdb:@term+@rn+@rel+834-12-8
  10. http://toxnet.nlm.nih.gov/cgi-bin/sis/search/r?dbs+hsdb:@term+@rn+@rel+834-12-8
  11. http://toxnet.nlm.nih.gov/cgi-bin/sis/search/r?dbs+hsdb:@term+@rn+@rel+834-12-8
  12. http://pubchem.ncbi.nlm.nih.gov/vw3d/vw3d.cgi?cid=13263
