12431
  -OEChem-06261206552D

 33 32  0     0  0  0  0  0  0999 V2000
    7.7331    0.5000    0.0000 O   0  0  0  0  0  0  0  0  0  0  0  0
    2.5369   -0.5000    0.0000 O   0  0  0  0  0  0  0  0  0  0  0  0
    4.6350    2.5981    0.0000 O   0  0  0  0  0  0  0  0  0  0  0  0
    5.6350   -2.5981    0.0000 O   0  0  0  0  0  0  0  0  0  0  0  0
    5.1350    0.0000    0.0000 N   0  3  0  0  0  0  0  0  0  0  0  0
    6.0010    0.5000    0.0000 C   0  0  0  0  0  0  0  0  0  0  0  0
    4.2690   -0.5000    0.0000 C   0  0  0  0  0  0  0  0  0  0  0  0
    4.6350    0.8660    0.0000 C   0  0  0  0  0  0  0  0  0  0  0  0
    5.6350   -0.8660    0.0000 C   0  0  0  0  0  0  0  0  0  0  0  0
    6.8671    0.0000    0.0000 C   0  0  0  0  0  0  0  0  0  0  0  0
    3.4030    0.0000    0.0000 C   0  0  0  0  0  0  0  0  0  0  0  0
    5.1350    1.7320    0.0000 C   0  0  0  0  0  0  0  0  0  0  0  0
    5.1350   -1.7320    0.0000 C   0  0  0  0  0  0  0  0  0  0  0  0
    6.1100   -1.2646    0.0000 H   0  0  0  0  0  0  0  0  0  0  0  0
    6.1100   -0.4675    0.0000 H   0  0  0  0  0  0  0  0  0  0  0  0
    4.1601    1.2646    0.0000 H   0  0  0  0  0  0  0  0  0  0  0  0
    4.1601    0.4675    0.0000 H   0  0  0  0  0  0  0  0  0  0  0  0
    3.8705   -0.9749    0.0000 H   0  0  0  0  0  0  0  0  0  0  0  0
    4.6675   -0.9749    0.0000 H   0  0  0  0  0  0  0  0  0  0  0  0
    6.3996    0.9749    0.0000 H   0  0  0  0  0  0  0  0  0  0  0  0
    5.6025    0.9749    0.0000 H   0  0  0  0  0  0  0  0  0  0  0  0
    4.6601   -1.3335    0.0000 H   0  0  0  0  0  0  0  0  0  0  0  0
    4.6601   -2.1306    0.0000 H   0  0  0  0  0  0  0  0  0  0  0  0
    5.6100    1.3335    0.0000 H   0  0  0  0  0  0  0  0  0  0  0  0
    5.6100    2.1306    0.0000 H   0  0  0  0  0  0  0  0  0  0  0  0
    3.8015    0.4749    0.0000 H   0  0  0  0  0  0  0  0  0  0  0  0
    3.0044    0.4749    0.0000 H   0  0  0  0  0  0  0  0  0  0  0  0
    6.4685   -0.4749    0.0000 H   0  0  0  0  0  0  0  0  0  0  0  0
    7.2656   -0.4749    0.0000 H   0  0  0  0  0  0  0  0  0  0  0  0
    5.3250   -3.1350    0.0000 H   0  0  0  0  0  0  0  0  0  0  0  0
    4.9450    3.1350    0.0000 H   0  0  0  0  0  0  0  0  0  0  0  0
    2.0000   -0.1900    0.0000 H   0  0  0  0  0  0  0  0  0  0  0  0
    8.2700    0.1900    0.0000 H   0  0  0  0  0  0  0  0  0  0  0  0
  1 10  1  0  0  0  0
  1 33  1  0  0  0  0
  2 11  1  0  0  0  0
  2 32  1  0  0  0  0
  3 12  1  0  0  0  0
  3 31  1  0  0  0  0
  4 13  1  0  0  0  0
  4 30  1  0  0  0  0
  5  6  1  0  0  0  0
  5  7  1  0  0  0  0
  5  8  1  0  0  0  0
  5  9  1  0  0  0  0
  6 10  1  0  0  0  0
  6 20  1  0  0  0  0
  6 21  1  0  0  0  0
  7 11  1  0  0  0  0
  7 18  1  0  0  0  0
  7 19  1  0  0  0  0
  8 12  1  0  0  0  0
  8 16  1  0  0  0  0
  8 17  1  0  0  0  0
  9 13  1  0  0  0  0
  9 14  1  0  0  0  0
  9 15  1  0  0  0  0
 10 28  1  0  0  0  0
 10 29  1  0  0  0  0
 11 26  1  0  0  0  0
 11 27  1  0  0  0  0
 12 24  1  0  0  0  0
 12 25  1  0  0  0  0
 13 22  1  0  0  0  0
 13 23  1  0  0  0  0
M  CHG  1   5   1
M  END
> <PUBCHEM_COMPOUND_CID>
12431

> <PUBCHEM_COMPOUND_CANONICALIZED>
1

> <PUBCHEM_CACTVS_COMPLEXITY>
91.2

> <PUBCHEM_CACTVS_HBOND_ACCEPTOR>
4

> <PUBCHEM_CACTVS_HBOND_DONOR>
4

> <PUBCHEM_CACTVS_ROTATABLE_BOND>
8

> <PUBCHEM_CACTVS_SUBSKEYS>
AAADceByOAAAAAAAAAAAAAAAAAAAAAAAAAAAAAAAAAAAAAAAAAAAHgAACAAAAADhgAYAAAMAAgAAAAAAAAAAAAAAAAAAAAAIAAACEAAAAAAAAAAAAACQAAAAAAAAAAAAAAAAAAAAAAAAAAAAAAAAAAAAAA==

> <PUBCHEM_IUPAC_OPENEYE_NAME>
tetrakis(2-hydroxyethyl)ammonium

> <PUBCHEM_IUPAC_CAS_NAME>
tetrakis(2-hydroxyethyl)ammonium

> <PUBCHEM_IUPAC_NAME>
tetrakis(2-hydroxyethyl)azanium

> <PUBCHEM_IUPAC_SYSTEMATIC_NAME>
tetrakis(2-hydroxyethyl)azanium

> <PUBCHEM_IUPAC_TRADITIONAL_NAME>
tetrakis(2-hydroxyethyl)ammonium

> <PUBCHEM_IUPAC_INCHI>
InChI=1S/C8H20NO4/c10-5-1-9(2-6-11,3-7-12)4-8-13/h10-13H,1-8H2/q+1

> <PUBCHEM_IUPAC_INCHIKEY>
MRKAVJXPGLUQKP-UHFFFAOYSA-N

> <PUBCHEM_XLOGP3_AA>
-2.5

> <PUBCHEM_EXACT_MASS>
194.139233

> <PUBCHEM_MOLECULAR_FORMULA>
C8H20NO4+

> <PUBCHEM_MOLECULAR_WEIGHT>
194.2487

> <PUBCHEM_OPENEYE_CAN_SMILES>
C(CO)[N+](CCO)(CCO)CCO

> <PUBCHEM_OPENEYE_ISO_SMILES>
C(CO)[N+](CCO)(CCO)CCO

> <PUBCHEM_CACTVS_TPSA>
80.9

> <PUBCHEM_MONOISOTOPIC_WEIGHT>
194.139233

> <PUBCHEM_TOTAL_CHARGE>
1

> <PUBCHEM_HEAVY_ATOM_COUNT>
13

> <PUBCHEM_ATOM_DEF_STEREO_COUNT>
0

> <PUBCHEM_ATOM_UDEF_STEREO_COUNT>
0

> <PUBCHEM_BOND_DEF_STEREO_COUNT>
0

> <PUBCHEM_BOND_UDEF_STEREO_COUNT>
0

> <PUBCHEM_ISOTOPIC_ATOM_COUNT>
0

> <PUBCHEM_COMPONENT_COUNT>
1

> <PUBCHEM_CACTVS_TAUTO_COUNT>
1

> <PUBCHEM_COORDINATE_TYPE>
1
5
255

$$$$

