23724686
  -OEChem-07051213082D

 39 41  0     1  0  0  0  0  0999 V2000
    4.0984   -0.7554    0.0000 C   0  0  1  0  0  0  0  0  0  0  0  0
    4.5984    1.4352    0.0000 C   0  0  1  0  0  0  0  0  0  0  0  0
    3.9916    0.4214    0.0000 C   0  0  0  0  0  0  0  0  0  0  0  0
    3.9624   -1.7401    0.0000 C   0  0  2  0  0  0  0  0  0  0  0  0
    4.9994   -0.3215    0.0000 C   0  0  0  0  0  0  0  0  0  0  0  0
    3.5984    1.4352    0.0000 C   0  0  0  0  0  0  0  0  0  0  0  0
    3.1974   -0.3215    0.0000 C   0  0  0  0  0  0  0  0  0  0  0  0
    5.2219    0.6534    0.0000 C   0  0  0  0  0  0  0  0  0  0  0  0
    2.9749    0.6534    0.0000 C   0  0  0  0  0  0  0  0  0  0  0  0
    2.9842   -1.9168    0.0000 C   0  0  0  0  0  0  0  0  0  0  0  0
    2.5124   -1.0418    0.0000 C   0  0  0  0  0  0  0  0  0  0  0  0
    4.6840   -2.4324    0.0000 C   0  0  0  0  0  0  0  0  0  0  0  0
    2.7722    1.9986    0.0000 C   0  0  0  0  0  0  0  0  0  0  0  0
    3.6732    2.4324    0.0000 C   0  0  0  0  0  0  0  0  0  0  0  0
    2.0000    0.8759    0.0000 C   0  0  0  0  0  0  0  0  0  0  0  0
    4.7876    2.2639    0.0000 H   0  0  0  0  0  0  0  0  0  0  0  0
    3.5838    0.8884    0.0000 H   0  0  0  0  0  0  0  0  0  0  0  0
    3.4215    0.1775    0.0000 H   0  0  0  0  0  0  0  0  0  0  0  0
    4.5481   -1.5366    0.0000 H   0  0  0  0  0  0  0  0  0  0  0  0
    5.1374   -0.9260    0.0000 H   0  0  0  0  0  0  0  0  0  0  0  0
    5.6194   -0.3215    0.0000 H   0  0  0  0  0  0  0  0  0  0  0  0
    5.7805    0.3844    0.0000 H   0  0  0  0  0  0  0  0  0  0  0  0
    5.6085    1.1382    0.0000 H   0  0  0  0  0  0  0  0  0  0  0  0
    2.4105   -2.1521    0.0000 H   0  0  0  0  0  0  0  0  0  0  0  0
    3.1579   -2.5120    0.0000 H   0  0  0  0  0  0  0  0  0  0  0  0
    2.1105   -0.5697    0.0000 H   0  0  0  0  0  0  0  0  0  0  0  0
    2.0006   -1.3918    0.0000 H   0  0  0  0  0  0  0  0  0  0  0  0
    4.2548   -2.8798    0.0000 H   0  0  0  0  0  0  0  0  0  0  0  0
    5.1314   -2.8617    0.0000 H   0  0  0  0  0  0  0  0  0  0  0  0
    5.1132   -1.9851    0.0000 H   0  0  0  0  0  0  0  0  0  0  0  0
    3.1214    2.5108    0.0000 H   0  0  0  0  0  0  0  0  0  0  0  0
    2.2599    2.3478    0.0000 H   0  0  0  0  0  0  0  0  0  0  0  0
    2.4229    1.4863    0.0000 H   0  0  0  0  0  0  0  0  0  0  0  0
    4.2914    2.3861    0.0000 H   0  0  0  0  0  0  0  0  0  0  0  0
    3.7195    3.0507    0.0000 H   0  0  0  0  0  0  0  0  0  0  0  0
    3.0549    2.4788    0.0000 H   0  0  0  0  0  0  0  0  0  0  0  0
    2.1380    1.4804    0.0000 H   0  0  0  0  0  0  0  0  0  0  0  0
    1.3955    1.0139    0.0000 H   0  0  0  0  0  0  0  0  0  0  0  0
    1.8620    0.2715    0.0000 H   0  0  0  0  0  0  0  0  0  0  0  0
  1  3  1  6  0  0  0
  1  4  1  0  0  0  0
  1  5  1  0  0  0  0
  1  7  1  0  0  0  0
  2  3  1  0  0  0  0
  2  6  1  0  0  0  0
  2  8  1  0  0  0  0
  2 16  1  6  0  0  0
  3 17  1  0  0  0  0
  3 18  1  0  0  0  0
  4 10  1  0  0  0  0
  4 12  1  1  0  0  0
  4 19  1  0  0  0  0
  5  8  1  0  0  0  0
  5 20  1  0  0  0  0
  5 21  1  0  0  0  0
  6  9  1  0  0  0  0
  6 13  1  0  0  0  0
  6 14  1  0  0  0  0
  7  9  2  0  0  0  0
  7 11  1  0  0  0  0
  8 22  1  0  0  0  0
  8 23  1  0  0  0  0
  9 15  1  0  0  0  0
 10 11  1  0  0  0  0
 10 24  1  0  0  0  0
 10 25  1  0  0  0  0
 11 26  1  0  0  0  0
 11 27  1  0  0  0  0
 12 28  1  0  0  0  0
 12 29  1  0  0  0  0
 12 30  1  0  0  0  0
 13 31  1  0  0  0  0
 13 32  1  0  0  0  0
 13 33  1  0  0  0  0
 14 34  1  0  0  0  0
 14 35  1  0  0  0  0
 14 36  1  0  0  0  0
 15 37  1  0  0  0  0
 15 38  1  0  0  0  0
 15 39  1  0  0  0  0
M  END
> <PUBCHEM_COMPOUND_CID>
23724686

> <PUBCHEM_COMPOUND_CANONICALIZED>
1

> <PUBCHEM_CACTVS_COMPLEXITY>
334

> <PUBCHEM_CACTVS_HBOND_ACCEPTOR>
0

> <PUBCHEM_CACTVS_HBOND_DONOR>
0

> <PUBCHEM_CACTVS_ROTATABLE_BOND>
0

> <PUBCHEM_CACTVS_SUBSKEYS>
AAADceBwAAAAAAAAAAAAAAAAAAAAAYMAAAAgAAAABAAAAECAAAAAGAAAAAAADwCAAAACAAAAAACAAgBAAAAAAAAgAAAACAAAAAgAAAIAAAAAAAAAgAAIAAMAgMAPgAAAAAAAAAAAAAAAAAAAAQAACAAAAA==

> <PUBCHEM_IUPAC_INCHI>
InChI=1S/C15H24/c1-10-5-6-13-11(2)14(3,4)12-7-8-15(10,13)9-12/h10,12H,5-9H2,1-4H3/t10-,12-,15+/m0/s1

> <PUBCHEM_IUPAC_INCHIKEY>
CYLSPJUZBPWJGC-ITDIGPHOSA-N

> <PUBCHEM_XLOGP3_AA>
4.5

> <PUBCHEM_EXACT_MASS>
204.187801

> <PUBCHEM_MOLECULAR_FORMULA>
C15H24

> <PUBCHEM_MOLECULAR_WEIGHT>
204.35106

> <PUBCHEM_OPENEYE_CAN_SMILES>
CC1CCC2=C(C(C3CCC12C3)(C)C)C

> <PUBCHEM_OPENEYE_ISO_SMILES>
C[C@H]1CCC2=C(C([C@H]3CC[C@@]12C3)(C)C)C

> <PUBCHEM_CACTVS_TPSA>
0

> <PUBCHEM_MONOISOTOPIC_WEIGHT>
204.187801

> <PUBCHEM_TOTAL_CHARGE>
0

> <PUBCHEM_HEAVY_ATOM_COUNT>
15

> <PUBCHEM_ATOM_DEF_STEREO_COUNT>
3

> <PUBCHEM_ATOM_UDEF_STEREO_COUNT>
0

> <PUBCHEM_BOND_DEF_STEREO_COUNT>
0

> <PUBCHEM_BOND_UDEF_STEREO_COUNT>
0

> <PUBCHEM_ISOTOPIC_ATOM_COUNT>
0

> <PUBCHEM_COMPONENT_COUNT>
1

> <PUBCHEM_CACTVS_TAUTO_COUNT>
1

> <PUBCHEM_COORDINATE_TYPE>
1
5
255

> <PUBCHEM_BONDANNOTATIONS>
1  3  6
2  16  6
4  12  5

$$$$

