47205020
  -OEChem-06241222572D

 30 31  0     0  0  0  0  0  0999 V2000
    2.8660   -4.4547    0.0000 F   0  0  0  0  0  0  0  0  0  0  0  0
    2.0000   -2.9547    0.0000 F   0  0  0  0  0  0  0  0  0  0  0  0
    3.7320   -2.9547    0.0000 O   0  0  0  0  0  0  0  0  0  0  0  0
    2.8660    1.5453    0.0000 O   0  0  0  0  0  0  0  0  0  0  0  0
    4.5981    1.5453    0.0000 N   0  0  0  0  0  0  0  0  0  0  0  0
    5.5686    4.0398    0.0000 N   0  0  0  0  0  0  0  0  0  0  0  0
    6.5468    4.2477    0.0000 N   0  0  0  0  0  0  0  0  0  0  0  0
    4.5981    2.5453    0.0000 C   0  0  0  0  0  0  0  0  0  0  0  0
    5.4641    3.0453    0.0000 C   0  0  0  0  0  0  0  0  0  0  0  0
    3.7320    0.0453    0.0000 C   0  0  0  0  0  0  0  0  0  0  0  0
    3.7320    1.0453    0.0000 C   0  0  0  0  0  0  0  0  0  0  0  0
    2.8660   -0.4547    0.0000 C   0  0  0  0  0  0  0  0  0  0  0  0
    4.5981   -0.4547    0.0000 C   0  0  0  0  0  0  0  0  0  0  0  0
    6.3776    2.6386    0.0000 C   0  0  0  0  0  0  0  0  0  0  0  0
    3.7320   -1.9547    0.0000 C   0  0  0  0  0  0  0  0  0  0  0  0
    2.8660   -1.4547    0.0000 C   0  0  0  0  0  0  0  0  0  0  0  0
    4.5981   -1.4547    0.0000 C   0  0  0  0  0  0  0  0  0  0  0  0
    7.0468    3.3817    0.0000 C   0  0  0  0  0  0  0  0  0  0  0  0
    2.8660   -3.4547    0.0000 C   0  0  0  0  0  0  0  0  0  0  0  0
    4.3860    3.1279    0.0000 H   0  0  0  0  0  0  0  0  0  0  0  0
    3.9875    2.4376    0.0000 H   0  0  0  0  0  0  0  0  0  0  0  0
    5.1350    1.2353    0.0000 H   0  0  0  0  0  0  0  0  0  0  0  0
    2.3291   -0.1447    0.0000 H   0  0  0  0  0  0  0  0  0  0  0  0
    5.1350   -0.1447    0.0000 H   0  0  0  0  0  0  0  0  0  0  0  0
    6.5066    2.0321    0.0000 H   0  0  0  0  0  0  0  0  0  0  0  0
    5.1079    4.4547    0.0000 H   0  0  0  0  0  0  0  0  0  0  0  0
    2.3291   -1.7647    0.0000 H   0  0  0  0  0  0  0  0  0  0  0  0
    5.1350   -1.7647    0.0000 H   0  0  0  0  0  0  0  0  0  0  0  0
    7.6634    3.3169    0.0000 H   0  0  0  0  0  0  0  0  0  0  0  0
    2.8660   -2.8347    0.0000 H   0  0  0  0  0  0  0  0  0  0  0  0
  1 19  1  0  0  0  0
  2 19  1  0  0  0  0
  3 15  1  0  0  0  0
  3 19  1  0  0  0  0
  4 11  2  0  0  0  0
  5  8  1  0  0  0  0
  5 11  1  0  0  0  0
  5 22  1  0  0  0  0
  6  7  1  0  0  0  0
  6  9  1  0  0  0  0
  6 26  1  0  0  0  0
  7 18  2  0  0  0  0
  8  9  1  0  0  0  0
  8 20  1  0  0  0  0
  8 21  1  0  0  0  0
  9 14  2  0  0  0  0
 10 11  1  0  0  0  0
 10 12  2  0  0  0  0
 10 13  1  0  0  0  0
 12 16  1  0  0  0  0
 12 23  1  0  0  0  0
 13 17  2  0  0  0  0
 13 24  1  0  0  0  0
 14 18  1  0  0  0  0
 14 25  1  0  0  0  0
 15 16  2  0  0  0  0
 15 17  1  0  0  0  0
 16 27  1  0  0  0  0
 17 28  1  0  0  0  0
 18 29  1  0  0  0  0
 19 30  1  0  0  0  0
M  END
> <PUBCHEM_COMPOUND_CID>
47205020

> <PUBCHEM_COMPOUND_CANONICALIZED>
1

> <PUBCHEM_CACTVS_COMPLEXITY>
297

> <PUBCHEM_CACTVS_HBOND_ACCEPTOR>
5

> <PUBCHEM_CACTVS_HBOND_DONOR>
2

> <PUBCHEM_CACTVS_ROTATABLE_BOND>
5

> <PUBCHEM_CACTVS_SUBSKEYS>
AAADccBzMYAAAAAAAAAAAAAAAAAAAWAAAAAwAAAAAAAAAAABwAAAHwAYAAAADAzBnhY8hpLjBACqAzV3UACSDAAkogAYuaE+bNgMZrKE9duUtShk3hGI6YeY3ALOIAAAAAAAAABAAAAAAAAAAAAAAAAAAA==

> <PUBCHEM_IUPAC_OPENEYE_NAME>
4-(difluoromethoxy)-N-(1H-pyrazol-5-ylmethyl)benzamide

> <PUBCHEM_IUPAC_CAS_NAME>
4-(difluoromethoxy)-N-(1H-pyrazol-5-ylmethyl)benzamide

> <PUBCHEM_IUPAC_NAME>
4-(difluoromethoxy)-N-(1H-pyrazol-5-ylmethyl)benzamide

> <PUBCHEM_IUPAC_SYSTEMATIC_NAME>
4-[bis(fluoranyl)methoxy]-N-(1H-pyrazol-5-ylmethyl)benzamide

> <PUBCHEM_IUPAC_TRADITIONAL_NAME>
4-(difluoromethoxy)-N-(1H-pyrazol-5-ylmethyl)benzamide

> <PUBCHEM_IUPAC_INCHI>
InChI=1S/C12H11F2N3O2/c13-12(14)19-10-3-1-8(2-4-10)11(18)15-7-9-5-6-16-17-9/h1-6,12H,7H2,(H,15,18)(H,16,17)

> <PUBCHEM_IUPAC_INCHIKEY>
WDXQTSNTVULSPR-UHFFFAOYSA-N

> <PUBCHEM_XLOGP3_AA>
1.9

> <PUBCHEM_EXACT_MASS>
267.081933

> <PUBCHEM_MOLECULAR_FORMULA>
C12H11F2N3O2

> <PUBCHEM_MOLECULAR_WEIGHT>
267.231446

> <PUBCHEM_OPENEYE_CAN_SMILES>
C1=CC(=CC=C1C(=O)NCC2=CC=NN2)OC(F)F

> <PUBCHEM_OPENEYE_ISO_SMILES>
C1=CC(=CC=C1C(=O)NCC2=CC=NN2)OC(F)F

> <PUBCHEM_CACTVS_TPSA>
67

> <PUBCHEM_MONOISOTOPIC_WEIGHT>
267.081933

> <PUBCHEM_TOTAL_CHARGE>
0

> <PUBCHEM_HEAVY_ATOM_COUNT>
19

> <PUBCHEM_ATOM_DEF_STEREO_COUNT>
0

> <PUBCHEM_ATOM_UDEF_STEREO_COUNT>
0

> <PUBCHEM_BOND_DEF_STEREO_COUNT>
0

> <PUBCHEM_BOND_UDEF_STEREO_COUNT>
0

> <PUBCHEM_ISOTOPIC_ATOM_COUNT>
0

> <PUBCHEM_COMPONENT_COUNT>
1

> <PUBCHEM_CACTVS_TAUTO_COUNT>
4

> <PUBCHEM_COORDINATE_TYPE>
1
5
255

> <PUBCHEM_BONDANNOTATIONS>
10  12  8
10  13  8
12  16  8
13  17  8
14  18  8
15  16  8
15  17  8
6  7  8
6  9  8
7  18  8
9  14  8

$$$$

