9837314
  -OEChem-07051213122D

  2  0  0     0  0  0  0  0  0999 V2000
    2.0000    0.0000    0.0000 Hg  0  2  0  0  0  0  0  0  0  0  0  0
    3.0000    0.0000    0.0000 O   0  6  0  0  0  0  0  0  0  0  0  0
M  CHG  2   1   2   2  -2
M  END
> <PUBCHEM_COMPOUND_CID>
9837314

> <PUBCHEM_COMPOUND_CANONICALIZED>
1

> <PUBCHEM_CACTVS_COMPLEXITY>
0

> <PUBCHEM_CACTVS_HBOND_ACCEPTOR>
1

> <PUBCHEM_CACTVS_HBOND_DONOR>
0

> <PUBCHEM_CACTVS_ROTATABLE_BOND>
0

> <PUBCHEM_CACTVS_SUBSKEYS>
AAADcQAAIAAAAAAAAAAAAQAAAAAAAAAAAAAAAAAAAAAAAAAAAAAAAAAAAAAAAAAAAAAAAAAAAAAAAAAAAAAAAAAAAAAAAAAAAAAAAAAAAAAAAAAAAAAAAAAAAAAAAAAAAAAAAAAAAAAAAAAAAAAAAAAAAA==

> <PUBCHEM_IUPAC_OPENEYE_NAME>
mercuric oxygen(2-)

> <PUBCHEM_IUPAC_CAS_NAME>
mercury(2+); oxygen(2-)

> <PUBCHEM_IUPAC_NAME>
mercury(2+); oxygen(2-)

> <PUBCHEM_IUPAC_SYSTEMATIC_NAME>
mercury(2+); oxygen(2-)

> <PUBCHEM_IUPAC_TRADITIONAL_NAME>
mercuric oxygen(2-)

> <PUBCHEM_IUPAC_INCHI>
InChI=1S/Hg.O/q+2;-2

> <PUBCHEM_IUPAC_INCHIKEY>
QYZBCWXZSYTIOY-UHFFFAOYSA-N

> <PUBCHEM_EXACT_MASS>
217.965558

> <PUBCHEM_MOLECULAR_FORMULA>
HgO

> <PUBCHEM_MOLECULAR_WEIGHT>
216.5894

> <PUBCHEM_OPENEYE_CAN_SMILES>
[O-2].[Hg+2]

> <PUBCHEM_OPENEYE_ISO_SMILES>
[O-2].[Hg+2]

> <PUBCHEM_CACTVS_TPSA>
1

> <PUBCHEM_MONOISOTOPIC_WEIGHT>
217.965558

> <PUBCHEM_TOTAL_CHARGE>
0

> <PUBCHEM_HEAVY_ATOM_COUNT>
2

> <PUBCHEM_ATOM_DEF_STEREO_COUNT>
0

> <PUBCHEM_ATOM_UDEF_STEREO_COUNT>
0

> <PUBCHEM_BOND_DEF_STEREO_COUNT>
0

> <PUBCHEM_BOND_UDEF_STEREO_COUNT>
0

> <PUBCHEM_ISOTOPIC_ATOM_COUNT>
0

> <PUBCHEM_COMPONENT_COUNT>
2

> <PUBCHEM_CACTVS_TAUTO_COUNT>
1

> <PUBCHEM_COORDINATE_TYPE>
1
5
255

$$$$

