56928168
  -OEChem-07051213152D

 68 69  0     1  0  0  0  0  0999 V2000
    2.9030    1.7800    0.0000 Cl  0  0  0  0  0  0  0  0  0  0  0  0
    6.8671   -0.0860    0.0000 O   0  0  0  0  0  0  0  0  0  0  0  0
    5.1350    2.9140    0.0000 O   0  0  0  0  0  0  0  0  0  0  0  0
    8.8579   -2.7840    0.0000 O   0  0  0  0  0  0  0  0  0  0  0  0
    9.8494   -1.1825    0.0000 O   0  0  0  0  0  0  0  0  0  0  0  0
    3.4030    2.9140    0.0000 O   0  0  0  0  0  0  0  0  0  0  0  0
    4.9118    1.1800    0.0000 O   0  0  0  0  0  0  0  0  0  0  0  0
    2.5369    1.4140    0.0000 N   0  0  0  0  0  0  0  0  0  0  0  0
    7.7331    1.4140    0.0000 C   0  0  2  0  0  0  0  0  0  0  0  0
    7.7331    0.4140    0.0000 C   0  0  2  0  0  0  0  0  0  0  0  0
    8.5991   -0.0860    0.0000 C   0  0  0  0  0  0  0  0  0  0  0  0
    6.8671    1.9140    0.0000 C   0  0  0  0  0  0  0  0  0  0  0  0
    6.0010    1.4140    0.0000 C   0  0  0  0  0  0  0  0  0  0  0  0
    8.5991    1.9140    0.0000 C   0  0  0  0  0  0  0  0  0  0  0  0
    5.1350    1.9140    0.0000 C   0  0  2  0  0  0  0  0  0  0  0  0
    8.8579   -1.0520    0.0000 C   0  0  0  0  0  0  0  0  0  0  0  0
    4.2690    1.4140    0.0000 C   0  0  0  0  0  0  0  0  0  0  0  0
    8.3579   -1.9180    0.0000 C   0  0  1  0  0  0  0  0  0  0  0  0
    6.0010    0.4140    0.0000 C   0  0  0  0  0  0  0  0  0  0  0  0
    3.4030    1.9140    0.0000 C   0  0  0  0  0  0  0  0  0  0  0  0
    7.3579   -1.9180    0.0000 C   0  0  0  0  0  0  0  0  0  0  0  0
    4.2690   -1.5860    0.0000 C   0  0  0  0  0  0  0  0  0  0  0  0
    3.4030   -1.0860    0.0000 C   0  0  0  0  0  0  0  0  0  0  0  0
    2.5369    0.4140    0.0000 C   0  0  0  0  0  0  0  0  0  0  0  0
    5.1849   -1.5002    0.0000 C   0  0  0  0  0  0  0  0  0  0  0  0
    2.5369   -0.5860    0.0000 C   0  0  0  0  0  0  0  0  0  0  0  0
    6.6508   -2.6251    0.0000 C   0  0  0  0  0  0  0  0  0  0  0  0
    5.6849   -2.3663    0.0000 C   0  0  0  0  0  0  0  0  0  0  0  0
    4.2690   -0.5860    0.0000 C   0  0  0  0  0  0  0  0  0  0  0  0
    3.4030    0.9140    0.0000 C   0  0  0  0  0  0  0  0  0  0  0  0
    4.2690    0.4140    0.0000 C   0  0  0  0  0  0  0  0  0  0  0  0
    5.5853   -0.5839    0.0000 C   0  0  0  0  0  0  0  0  0  0  0  0
    9.8579   -2.7840    0.0000 C   0  0  0  0  0  0  0  0  0  0  0  0
    4.5698    2.1197    0.0000 C   0  0  0  0  0  0  0  0  0  0  0  0
    7.7331    2.0340    0.0000 H   0  0  0  0  0  0  0  0  0  0  0  0
    7.7331   -0.2060    0.0000 H   0  0  0  0  0  0  0  0  0  0  0  0
    9.2191   -0.0860    0.0000 H   0  0  0  0  0  0  0  0  0  0  0  0
    8.7596    0.5128    0.0000 H   0  0  0  0  0  0  0  0  0  0  0  0
    6.8671    2.5340    0.0000 H   0  0  0  0  0  0  0  0  0  0  0  0
    8.9091    1.3770    0.0000 H   0  0  0  0  0  0  0  0  0  0  0  0
    9.1360    2.2240    0.0000 H   0  0  0  0  0  0  0  0  0  0  0  0
    8.2891    2.4509    0.0000 H   0  0  0  0  0  0  0  0  0  0  0  0
    5.6720    2.2240    0.0000 H   0  0  0  0  0  0  0  0  0  0  0  0
    3.8705    0.9390    0.0000 H   0  0  0  0  0  0  0  0  0  0  0  0
    4.6675    0.9390    0.0000 H   0  0  0  0  0  0  0  0  0  0  0  0
    8.9779   -1.9180    0.0000 H   0  0  0  0  0  0  0  0  0  0  0  0
    5.3810    0.4140    0.0000 H   0  0  0  0  0  0  0  0  0  0  0  0
    6.0010   -0.2060    0.0000 H   0  0  0  0  0  0  0  0  0  0  0  0
    6.6210    0.4140    0.0000 H   0  0  0  0  0  0  0  0  0  0  0  0
    6.8671   -0.7060    0.0000 H   0  0  0  0  0  0  0  0  0  0  0  0
    7.1207   -1.3452    0.0000 H   0  0  0  0  0  0  0  0  0  0  0  0
    5.6720    3.2240    0.0000 H   0  0  0  0  0  0  0  0  0  0  0  0
    3.8067   -1.9992    0.0000 H   0  0  0  0  0  0  0  0  0  0  0  0
    4.4013   -0.9803    0.0000 H   0  0  0  0  0  0  0  0  0  0  0  0
    2.0000    1.7240    0.0000 H   0  0  0  0  0  0  0  0  0  0  0  0
    2.0000   -0.8960    0.0000 H   0  0  0  0  0  0  0  0  0  0  0  0
    6.8113   -3.2240    0.0000 H   0  0  0  0  0  0  0  0  0  0  0  0
    5.3075   -2.8582    0.0000 H   0  0  0  0  0  0  0  0  0  0  0  0
    4.8059   -0.8960    0.0000 H   0  0  0  0  0  0  0  0  0  0  0  0
    6.1534   -0.8322    0.0000 H   0  0  0  0  0  0  0  0  0  0  0  0
    5.8336   -0.0158    0.0000 H   0  0  0  0  0  0  0  0  0  0  0  0
    5.0172   -0.3357    0.0000 H   0  0  0  0  0  0  0  0  0  0  0  0
    9.8579   -3.4040    0.0000 H   0  0  0  0  0  0  0  0  0  0  0  0
   10.4779   -2.7840    0.0000 H   0  0  0  0  0  0  0  0  0  0  0  0
    9.8579   -2.1640    0.0000 H   0  0  0  0  0  0  0  0  0  0  0  0
    5.1524    2.3318    0.0000 H   0  0  0  0  0  0  0  0  0  0  0  0
    4.3577    2.7023    0.0000 H   0  0  0  0  0  0  0  0  0  0  0  0
    3.9871    1.9076    0.0000 H   0  0  0  0  0  0  0  0  0  0  0  0
  1 30  1  0  0  0  0
 10  2  1  6  0  0  0
  2 50  1  0  0  0  0
 15  3  1  6  0  0  0
  3 52  1  0  0  0  0
 18  4  1  6  0  0  0
  4 33  1  0  0  0  0
  5 16  2  0  0  0  0
  6 20  2  0  0  0  0
  7 31  1  0  0  0  0
  7 34  1  0  0  0  0
  8 20  1  0  0  0  0
  8 24  1  0  0  0  0
  8 55  1  0  0  0  0
  9 10  1  0  0  0  0
  9 12  1  0  0  0  0
  9 14  1  6  0  0  0
  9 35  1  0  0  0  0
 10 11  1  0  0  0  0
 10 36  1  0  0  0  0
 11 16  1  0  0  0  0
 11 37  1  0  0  0  0
 11 38  1  0  0  0  0
 12 13  2  0  0  0  0
 12 39  1  0  0  0  0
 13 15  1  0  0  0  0
 13 19  1  0  0  0  0
 14 40  1  0  0  0  0
 14 41  1  0  0  0  0
 14 42  1  0  0  0  0
 15 17  1  0  0  0  0
 15 43  1  0  0  0  0
 16 18  1  0  0  0  0
 17 20  1  0  0  0  0
 17 44  1  0  0  0  0
 17 45  1  0  0  0  0
 18 21  1  0  0  0  0
 18 46  1  0  0  0  0
 19 47  1  0  0  0  0
 19 48  1  0  0  0  0
 19 49  1  0  0  0  0
 21 27  2  0  0  0  0
 21 51  1  0  0  0  0
 22 23  1  0  0  0  0
 22 25  1  0  0  0  0
 22 53  1  0  0  0  0
 22 54  1  0  0  0  0
 23 26  2  0  0  0  0
 23 29  1  0  0  0  0
 24 26  1  0  0  0  0
 24 30  2  0  0  0  0
 25 28  2  0  0  0  0
 25 32  1  0  0  0  0
 26 56  1  0  0  0  0
 27 28  1  0  0  0  0
 27 57  1  0  0  0  0
 28 58  1  0  0  0  0
 29 31  2  0  0  0  0
 29 59  1  0  0  0  0
 30 31  1  0  0  0  0
 32 60  1  0  0  0  0
 32 61  1  0  0  0  0
 32 62  1  0  0  0  0
 33 63  1  0  0  0  0
 33 64  1  0  0  0  0
 33 65  1  0  0  0  0
 34 66  1  0  0  0  0
 34 67  1  0  0  0  0
 34 68  1  0  0  0  0
M  END
> <PUBCHEM_COMPOUND_CID>
56928168

> <PUBCHEM_COMPOUND_CANONICALIZED>
1

> <PUBCHEM_CACTVS_COMPLEXITY>
794

> <PUBCHEM_CACTVS_HBOND_ACCEPTOR>
6

> <PUBCHEM_CACTVS_HBOND_DONOR>
3

> <PUBCHEM_CACTVS_ROTATABLE_BOND>
2

> <PUBCHEM_CACTVS_SUBSKEYS>
AAADcfB6OAAEAAAAAAAAAAAAAAAAAAAAAAAwAAAAAAAAAAABAAAAHgIQCAAADR6hmCIyxoLABgCIAqVSUAKCCAAhJkAIiAFGb4gMNjfFs5/EcChm9BnI+AfY0PMOBAABQgAACBAIAAKEAAAQIAAAAAAAAA==

> <PUBCHEM_IUPAC_OPENEYE_NAME>
(3E,5E,7R,10S,11S,12E,14S)-19-chloro-10,14-dihydroxy-7,20-dimethoxy-3,11,13-trimethyl-17-azabicyclo[16.3.1]docosa-1(22),3,5,12,18,20-hexaene-8,16-dione

> <PUBCHEM_IUPAC_CAS_NAME>
(3E,5E,7R,10S,11S,12E,14S)-19-chloro-10,14-dihydroxy-7,20-dimethoxy-3,11,13-trimethyl-17-azabicyclo[16.3.1]docosa-1(22),3,5,12,18,20-hexaene-8,16-dione

> <PUBCHEM_IUPAC_NAME>
(3E,5E,7R,10S,11S,12E,14S)-19-chloro-10,14-dihydroxy-7,20-dimethoxy-3,11,13-trimethyl-17-azabicyclo[16.3.1]docosa-1(22),3,5,12,18,20-hexaene-8,16-dione

> <PUBCHEM_IUPAC_SYSTEMATIC_NAME>
(3E,5E,7R,10S,11S,12E,14S)-19-chloranyl-7,20-dimethoxy-3,11,13-trimethyl-10,14-bis(oxidanyl)-17-azabicyclo[16.3.1]docosa-1(22),3,5,12,18,20-hexaene-8,16-dione

> <PUBCHEM_IUPAC_TRADITIONAL_NAME>
(3E,5E,7R,10S,11S,12E,14S)-19-chloro-10,14-dihydroxy-7,20-dimethoxy-3,11,13-trimethyl-17-azabicyclo[16.3.1]docosa-1(22),3,5,12,18,20-hexaene-8,16-quinone

> <PUBCHEM_IUPAC_INCHI>
InChI=1S/C26H34ClNO6/c1-15-7-6-8-23(33-4)22(31)13-20(29)16(2)10-17(3)21(30)14-25(32)28-19-11-18(9-15)12-24(34-5)26(19)27/h6-8,10-12,16,20-21,23,29-30H,9,13-14H2,1-5H3,(H,28,32)/b8-6+,15-7+,17-10+/t16-,20-,21-,23+/m0/s1

> <PUBCHEM_IUPAC_INCHIKEY>
FDXIJEQRVYBNHT-NMOHGNPQSA-N

> <PUBCHEM_XLOGP3_AA>
2.7

> <PUBCHEM_EXACT_MASS>
491.207465

> <PUBCHEM_MOLECULAR_FORMULA>
C26H34ClNO6

> <PUBCHEM_MOLECULAR_WEIGHT>
492.00426

> <PUBCHEM_OPENEYE_CAN_SMILES>
CC1C=C(C(CC(=O)NC2=C(C(=CC(=C2)CC(=CC=CC(C(=O)CC1O)OC)C)OC)Cl)O)C

> <PUBCHEM_OPENEYE_ISO_SMILES>
C[C@H]1/C=C(/[C@H](CC(=O)NC2=C(C(=CC(=C2)C/C(=C/C=C/[C@H](C(=O)C[C@@H]1O)OC)/C)OC)Cl)O)\C

> <PUBCHEM_CACTVS_TPSA>
105

> <PUBCHEM_MONOISOTOPIC_WEIGHT>
491.207465

> <PUBCHEM_TOTAL_CHARGE>
0

> <PUBCHEM_HEAVY_ATOM_COUNT>
34

> <PUBCHEM_ATOM_DEF_STEREO_COUNT>
4

> <PUBCHEM_ATOM_UDEF_STEREO_COUNT>
0

> <PUBCHEM_BOND_DEF_STEREO_COUNT>
3

> <PUBCHEM_BOND_UDEF_STEREO_COUNT>
0

> <PUBCHEM_ISOTOPIC_ATOM_COUNT>
0

> <PUBCHEM_COMPONENT_COUNT>
1

> <PUBCHEM_CACTVS_TAUTO_COUNT>
21

> <PUBCHEM_COORDINATE_TYPE>
1
5
255

> <PUBCHEM_BONDANNOTATIONS>
10  2  6
23  26  8
23  29  8
24  26  8
24  30  8
29  31  8
15  3  6
30  31  8
18  4  6
9  14  6

$$$$

