   Chemical and Physical Properties References

   [1]USDA ARS - USDA chemical properties
   from [2]ChemIDplus

   Color/Form

     * Pure compound: yellow liquid
     * Oily, colorless to yellow liquid
     * Colorless oil

   from [3]HSDB

   Odor
        Characteristic, sulfur odor.
   from [4]HSDB

   Boiling Point
        132-133 deg C @ 1.5 mm Hg; 108 deg C @ 0.01 mm Hg
   from [5]HSDB

   Melting Point
        -25 deg C
   from [6]HSDB

   Density/Specific Gravity
        1.144 @ 20 deg C referred to water @ 4 deg C
   from [7]HSDB

   Octanol/Water Partition Coefficient
        log Kow = 4.02
   from [8]HSDB

   Solubilities

     * SOL IN MOST ORG LIQ & FATTY OILS
     * Miscible in n-hexane, dichloromethane, 2-propanol, toluene
     * In water, 16.3 mg/l @ 20 deg C

   from [9]HSDB

   Spectral Properties

     * Index of refraction: 1.5348 for 20 deg C and sodium light
     * Intense mass spectral peaks: 88 m/z (100%), 89 m/z (37%), 60 m/z
       (24%), 61 m/z (23%)
     * Intense mass spectral peaks: 97 m/z, 125 m/z, 186 m/z, 274 m/z

   from [10]HSDB

   Vapor Pressure
        9.75X10-5 mm Hg @ 25 deg C
   from [11]HSDB

   Other Chemical/Physical Properties

     * SUSCEPTIBLE TO ALKALINE HYDROLYSIS
     * Brown liquid /Technical/
     * AROMATIC ODOR /TECHNICAL PRODUCT/
     * Dark yellowish oil /Technical/
     * Boiling point: 62 deg C at 0.01 mm Hg
     * HALF-LIFE at PH OF 8: 21.5 HR (70 DEG C); PH 9: 7.2 HR (70 DEG C)
     * VOLATILITY at 20 DEG C IS 2.7 MG/CU M
     * At 20 deg C, 50% loss by hydrolysis occurs in 3.04 yr at pH 1-5; at
       70 deg C: in 1.2 days at pH 7, 7.2 hr at pH 9.
     * Pale yellow oil /Technical disulfoton/

   from [12]HSDB

   Computed Properties
   Molecular Weight                  274.404022 [g/mol]
   Molecular Formula                 C[8]H[19]O[2]PS[3]
   XLogP3                            4
   H-Bond Donor                      0
   H-Bond Acceptor                   5
   Rotatable Bond Count              9
   Exact Mass                        274.028479
   MonoIsotopic Mass                 274.028479
   Topological Polar Surface Area    101
   Heavy Atom Count                  14
   Formal Charge                     0
   Complexity                        168
   Isotope Atom Count                0
   Defined Atom Stereocenter Count   0
   Undefined Atom Stereocenter Count 0
   Defined Bond Stereocenter Count   0
   Undefined Bond Stereocenter Count 0
   Covalently-Bonded Unit Count      1
   Feature 3D Hydrophobe Count       2
   Effective Rotor Count             9
   Conformer Sampling RMSD           0.8
   CID Conformer Count               [13]201

References

   1. http://www.ars.usda.gov/SP2UserFiles/ad_hoc/12755100DatabaseFiles/PesticidePropertiesDatabase/IndividualPesticideFiles/DISULFOTON.TXT
   2. http://chem.sis.nlm.nih.gov/chemidplus/
   3. http://toxnet.nlm.nih.gov/cgi-bin/sis/search/r?dbs+hsdb:@term+@rn+@rel+298-04-4
   4. http://toxnet.nlm.nih.gov/cgi-bin/sis/search/r?dbs+hsdb:@term+@rn+@rel+298-04-4
   5. http://toxnet.nlm.nih.gov/cgi-bin/sis/search/r?dbs+hsdb:@term+@rn+@rel+298-04-4
   6. http://toxnet.nlm.nih.gov/cgi-bin/sis/search/r?dbs+hsdb:@term+@rn+@rel+298-04-4
   7. http://toxnet.nlm.nih.gov/cgi-bin/sis/search/r?dbs+hsdb:@term+@rn+@rel+298-04-4
   8. http://toxnet.nlm.nih.gov/cgi-bin/sis/search/r?dbs+hsdb:@term+@rn+@rel+298-04-4
   9. http://toxnet.nlm.nih.gov/cgi-bin/sis/search/r?dbs+hsdb:@term+@rn+@rel+298-04-4
  10. http://toxnet.nlm.nih.gov/cgi-bin/sis/search/r?dbs+hsdb:@term+@rn+@rel+298-04-4
  11. http://toxnet.nlm.nih.gov/cgi-bin/sis/search/r?dbs+hsdb:@term+@rn+@rel+298-04-4
  12. http://toxnet.nlm.nih.gov/cgi-bin/sis/search/r?dbs+hsdb:@term+@rn+@rel+298-04-4
  13. http://pubchem.ncbi.nlm.nih.gov/vw3d/vw3d.cgi?cid=3118
