23724772
  -OEChem-07051213082D

 45 44  0     1  0  0  0  0  0999 V2000
    4.2690    1.0950    0.0000 O   0  0  0  0  0  0  0  0  0  0  0  0
    2.5369   -0.9050    0.0000 O   0  0  0  0  0  0  0  0  0  0  0  0
   12.9292    0.0950    0.0000 O   0  0  0  0  0  0  0  0  0  0  0  0
   12.0632   -1.4050    0.0000 O   0  0  0  0  0  0  0  0  0  0  0  0
    4.2690    0.0950    0.0000 C   0  0  2  0  0  0  0  0  0  0  0  0
    3.4030   -0.4050    0.0000 C   0  0  0  0  0  0  0  0  0  0  0  0
    5.1350   -0.4050    0.0000 C   0  0  0  0  0  0  0  0  0  0  0  0
    6.0010    0.0950    0.0000 C   0  0  0  0  0  0  0  0  0  0  0  0
    2.9030    0.4610    0.0000 C   0  0  0  0  0  0  0  0  0  0  0  0
    3.9030   -1.2710    0.0000 C   0  0  0  0  0  0  0  0  0  0  0  0
    6.8671   -0.4050    0.0000 C   0  0  0  0  0  0  0  0  0  0  0  0
    7.7331    0.0950    0.0000 C   0  0  0  0  0  0  0  0  0  0  0  0
    8.5991   -0.4050    0.0000 C   0  0  0  0  0  0  0  0  0  0  0  0
    6.8671   -1.4050    0.0000 C   0  0  0  0  0  0  0  0  0  0  0  0
    9.4651    0.0950    0.0000 C   0  0  0  0  0  0  0  0  0  0  0  0
   10.3312   -0.4050    0.0000 C   0  0  0  0  0  0  0  0  0  0  0  0
   10.3312   -1.4050    0.0000 C   0  0  0  0  0  0  0  0  0  0  0  0
   11.1972    0.0950    0.0000 C   0  0  0  0  0  0  0  0  0  0  0  0
   12.0632   -0.4050    0.0000 C   0  0  0  0  0  0  0  0  0  0  0  0
    4.8059    0.4050    0.0000 H   0  0  0  0  0  0  0  0  0  0  0  0
    4.7365   -0.8799    0.0000 H   0  0  0  0  0  0  0  0  0  0  0  0
    5.5335   -0.8799    0.0000 H   0  0  0  0  0  0  0  0  0  0  0  0
    6.3996    0.5699    0.0000 H   0  0  0  0  0  0  0  0  0  0  0  0
    5.6025    0.5699    0.0000 H   0  0  0  0  0  0  0  0  0  0  0  0
    3.3660   -1.5810    0.0000 H   0  0  0  0  0  0  0  0  0  0  0  0
    4.2130   -1.8080    0.0000 H   0  0  0  0  0  0  0  0  0  0  0  0
    4.4399   -0.9610    0.0000 H   0  0  0  0  0  0  0  0  0  0  0  0
    3.4399    0.7710    0.0000 H   0  0  0  0  0  0  0  0  0  0  0  0
    2.5930    0.9980    0.0000 H   0  0  0  0  0  0  0  0  0  0  0  0
    2.3660    0.1510    0.0000 H   0  0  0  0  0  0  0  0  0  0  0  0
    4.8059    1.4050    0.0000 H   0  0  0  0  0  0  0  0  0  0  0  0
    2.0000   -0.5950    0.0000 H   0  0  0  0  0  0  0  0  0  0  0  0
    7.7331    0.7150    0.0000 H   0  0  0  0  0  0  0  0  0  0  0  0
    8.2006   -0.8799    0.0000 H   0  0  0  0  0  0  0  0  0  0  0  0
    8.9976   -0.8799    0.0000 H   0  0  0  0  0  0  0  0  0  0  0  0
    6.2471   -1.4050    0.0000 H   0  0  0  0  0  0  0  0  0  0  0  0
    6.8671   -2.0250    0.0000 H   0  0  0  0  0  0  0  0  0  0  0  0
    7.4871   -1.4050    0.0000 H   0  0  0  0  0  0  0  0  0  0  0  0
    9.8637    0.5699    0.0000 H   0  0  0  0  0  0  0  0  0  0  0  0
    9.0666    0.5699    0.0000 H   0  0  0  0  0  0  0  0  0  0  0  0
    9.7112   -1.4050    0.0000 H   0  0  0  0  0  0  0  0  0  0  0  0
   10.3312   -2.0250    0.0000 H   0  0  0  0  0  0  0  0  0  0  0  0
   10.9512   -1.4050    0.0000 H   0  0  0  0  0  0  0  0  0  0  0  0
   11.1972    0.7150    0.0000 H   0  0  0  0  0  0  0  0  0  0  0  0
   13.4662   -0.2150    0.0000 H   0  0  0  0  0  0  0  0  0  0  0  0
  5  1  1  1  0  0  0
  1 31  1  0  0  0  0
  2  6  1  0  0  0  0
  2 32  1  0  0  0  0
  3 19  1  0  0  0  0
  3 45  1  0  0  0  0
  4 19  2  0  0  0  0
  5  6  1  0  0  0  0
  5  7  1  0  0  0  0
  5 20  1  0  0  0  0
  6  9  1  0  0  0  0
  6 10  1  0  0  0  0
  7  8  1  0  0  0  0
  7 21  1  0  0  0  0
  7 22  1  0  0  0  0
  8 11  1  0  0  0  0
  8 23  1  0  0  0  0
  8 24  1  0  0  0  0
  9 28  1  0  0  0  0
  9 29  1  0  0  0  0
  9 30  1  0  0  0  0
 10 25  1  0  0  0  0
 10 26  1  0  0  0  0
 10 27  1  0  0  0  0
 11 12  2  0  0  0  0
 11 14  1  0  0  0  0
 12 13  1  0  0  0  0
 12 33  1  0  0  0  0
 13 15  1  0  0  0  0
 13 34  1  0  0  0  0
 13 35  1  0  0  0  0
 14 36  1  0  0  0  0
 14 37  1  0  0  0  0
 14 38  1  0  0  0  0
 15 16  1  0  0  0  0
 15 39  1  0  0  0  0
 15 40  1  0  0  0  0
 16 17  1  0  0  0  0
 16 18  2  0  0  0  0
 17 41  1  0  0  0  0
 17 42  1  0  0  0  0
 17 43  1  0  0  0  0
 18 19  1  0  0  0  0
 18 44  1  0  0  0  0
M  END
> <PUBCHEM_COMPOUND_CID>
23724772

> <PUBCHEM_COMPOUND_CANONICALIZED>
1

> <PUBCHEM_CACTVS_COMPLEXITY>
353

> <PUBCHEM_CACTVS_HBOND_ACCEPTOR>
4

> <PUBCHEM_CACTVS_HBOND_DONOR>
3

> <PUBCHEM_CACTVS_ROTATABLE_BOND>
8

> <PUBCHEM_CACTVS_SUBSKEYS>
AAADceBwOAAAAAAAAAAAAAAAAAAAAAAAAAAAAAAAAAAAAAAAAAAAGgAACAAADFSggAICCAAAAgCIAiDSCAAAAAAgAAAACAAAAEgBFAIAAQAAUAAEgAAJEQOAwEAMAAAAAAAAAAAAAAAAAAAAAAAAAAAAAA==

> <PUBCHEM_IUPAC_OPENEYE_NAME>
(2E,6E,10S)-10,11-dihydroxy-3,7,11-trimethyl-dodeca-2,6-dienoic acid

> <PUBCHEM_IUPAC_CAS_NAME>
(2E,6E,10S)-10,11-dihydroxy-3,7,11-trimethyldodeca-2,6-dienoic acid

> <PUBCHEM_IUPAC_NAME>
(2E,6E,10S)-10,11-dihydroxy-3,7,11-trimethyldodeca-2,6-dienoic acid

> <PUBCHEM_IUPAC_SYSTEMATIC_NAME>
(2E,6E,10S)-3,7,11-trimethyl-10,11-bis(oxidanyl)dodeca-2,6-dienoic acid

> <PUBCHEM_IUPAC_TRADITIONAL_NAME>
(2E,6E,10S)-10,11-dihydroxy-3,7,11-trimethyl-dodeca-2,6-dienoic acid

> <PUBCHEM_IUPAC_INCHI>
InChI=1S/C15H26O4/c1-11(8-9-13(16)15(3,4)19)6-5-7-12(2)10-14(17)18/h6,10,13,16,19H,5,7-9H2,1-4H3,(H,17,18)/b11-6+,12-10+/t13-/m0/s1

> <PUBCHEM_IUPAC_INCHIKEY>
UULZSWLWBGEDTD-WGRJTNITSA-N

> <PUBCHEM_XLOGP3_AA>
2.7

> <PUBCHEM_EXACT_MASS>
270.183109

> <PUBCHEM_MOLECULAR_FORMULA>
C15H26O4

> <PUBCHEM_MOLECULAR_WEIGHT>
270.36454

> <PUBCHEM_OPENEYE_CAN_SMILES>
CC(=CCCC(=CC(=O)O)C)CCC(C(C)(C)O)O

> <PUBCHEM_OPENEYE_ISO_SMILES>
C/C(=C\CC/C(=C/C(=O)O)/C)/CC[C@@H](C(C)(C)O)O

> <PUBCHEM_CACTVS_TPSA>
77.8

> <PUBCHEM_MONOISOTOPIC_WEIGHT>
270.183109

> <PUBCHEM_TOTAL_CHARGE>
0

> <PUBCHEM_HEAVY_ATOM_COUNT>
19

> <PUBCHEM_ATOM_DEF_STEREO_COUNT>
1

> <PUBCHEM_ATOM_UDEF_STEREO_COUNT>
0

> <PUBCHEM_BOND_DEF_STEREO_COUNT>
2

> <PUBCHEM_BOND_UDEF_STEREO_COUNT>
0

> <PUBCHEM_ISOTOPIC_ATOM_COUNT>
0

> <PUBCHEM_COMPONENT_COUNT>
1

> <PUBCHEM_CACTVS_TAUTO_COUNT>
1

> <PUBCHEM_COORDINATE_TYPE>
1
5
255

> <PUBCHEM_BONDANNOTATIONS>
5  1  5

$$$$

