   Color/Form
        Dimorphic crystals
   from [1]HSDB

   Melting Point
        112 and 124 deg C
   from [2]HSDB

   Octanol/Water Partition Coefficient
        log Kow = 2.62
   from [3]HSDB

   Solubilities
        Soluble in ether, chloroform, and alcohol
   from [4]HSDB

   Spectral Properties

     * Specific optical rotation: +55 deg at 22 deg C/D (c= 0.93 in
       chloroform)
     * Max absorption (ethanol): 241 nm (epsilon= 17,000)

   from [5]HSDB

   Vapor Pressure
        3.5X10-8 mm Hg at 25 deg C (est)
   from [6]HSDB

   Other Chemical/Physical Properties

     * Needles from 75% alcohol; mp: 174-175 deg C; specific optical
       rotation (alcohol): +104.5 deg at 20 deg C/D /Benzoate/
     * Small, elongated prisms from petroleum ether; mp: 88-89 deg C;
       specific optical rotation: +50 deg at 20 deg C/D (c= 0.5 g/100 ml
       in chloroform) /cyclohexanecarboxylate/
     * Fine, white to creamy white, crystalline powder; soluble in
       acetone, chloroform, alcohol, vegetable oils; insoluble in water;
       odorless or may have slight odor; mp: 33-37 deg C /Decanoate/
     * Fine, white to creamy white, crystalline powder; soluble in
       chloroform, alcohol, dioxane, ether, vegetable oils; insoluble in
       water; having slight characteristic odor; mp: 95-99 deg C
       /Phenpropionate/
     * Henry's Law constant = 2.7X10-9 atm-cu m/mole at 25 deg C (est)
     * Hydroxyl radical reaction rate constant = 1.1X10-10 cu cm/molec-sec
       at 25 deg C (est)
     * Ozone reaction rate constant = 7.4X10-17 cu cm/molec-sec at 25 deg
       C (est)

   from [7]HSDB

   Computed Properties
   Molecular Weight                  274.39784 [g/mol]
   Molecular Formula                 C[18]H[26]O[2]
   XLogP3                            2.6
   H-Bond Donor                      1
   H-Bond Acceptor                   2
   Rotatable Bond Count              0
   Tautomer Count                    8
   Exact Mass                        274.19328
   MonoIsotopic Mass                 274.19328
   Topological Polar Surface Area    37.3
   Heavy Atom Count                  20
   Formal Charge                     0
   Complexity                        466
   Isotope Atom Count                0
   Defined Atom Stereocenter Count   6
   Undefined Atom Stereocenter Count 0
   Defined Bond Stereocenter Count   0
   Undefined Bond Stereocenter Count 0
   Covalently-Bonded Unit Count      1
   Feature 3D Acceptor Count         2
   Feature 3D Donor Count            1
   Feature 3D Ring Count             4
   Effective Rotor Count             1.8
   Conformer Sampling RMSD           0.6
   CID Conformer Count               [8]2

References

   1. http://toxnet.nlm.nih.gov/cgi-bin/sis/search/r?dbs+hsdb:@term+@rn+@rel+434-22-0
   2. http://toxnet.nlm.nih.gov/cgi-bin/sis/search/r?dbs+hsdb:@term+@rn+@rel+434-22-0
   3. http://toxnet.nlm.nih.gov/cgi-bin/sis/search/r?dbs+hsdb:@term+@rn+@rel+434-22-0
   4. http://toxnet.nlm.nih.gov/cgi-bin/sis/search/r?dbs+hsdb:@term+@rn+@rel+434-22-0
   5. http://toxnet.nlm.nih.gov/cgi-bin/sis/search/r?dbs+hsdb:@term+@rn+@rel+434-22-0
   6. http://toxnet.nlm.nih.gov/cgi-bin/sis/search/r?dbs+hsdb:@term+@rn+@rel+434-22-0
   7. http://toxnet.nlm.nih.gov/cgi-bin/sis/search/r?dbs+hsdb:@term+@rn+@rel+434-22-0
   8. http://pubchem.ncbi.nlm.nih.gov/vw3d/vw3d.cgi?cid=9904
