   Color/Form
        CRYSTALS FROM ACETONITRILE
   from [1]HSDB

   Melting Point
        155-157 DEG C (DECOMPOSES)
   from [2]HSDB

   Spectral Properties
        Intense mass spectral peaks: 91 m/z, 122 m/z, 198 m/z, 212 m/z
   from [3]HSDB

   Other Chemical/Physical Properties
        PYRROLE-ACETIC ACID DERIVATIVE /TOLMETIN SODIUM/
   from [4]HSDB

   Computed Properties
   Molecular Weight                  257.2845 [g/mol]
   Molecular Formula                 C[15]H[15]NO[3]
   XLogP3                            2.8
   H-Bond Donor                      1
   H-Bond Acceptor                   3
   Rotatable Bond Count              4
   Tautomer Count                    15
   Exact Mass                        257.105193
   MonoIsotopic Mass                 257.105193
   Topological Polar Surface Area    59.3
   Heavy Atom Count                  19
   Formal Charge                     0
   Complexity                        347
   Isotope Atom Count                0
   Defined Atom Stereocenter Count   0
   Undefined Atom Stereocenter Count 0
   Defined Bond Stereocenter Count   0
   Undefined Bond Stereocenter Count 0
   Covalently-Bonded Unit Count      1
   Feature 3D Acceptor Count         3
   Feature 3D Anion Count            1
   Feature 3D Cation Count           1
   Feature 3D Ring Count             2
   Effective Rotor Count             4
   Conformer Sampling RMSD           0.6
   CID Conformer Count               [5]41

References

   1. http://toxnet.nlm.nih.gov/cgi-bin/sis/search/r?dbs+hsdb:@term+@rn+@rel+26171-23-3
   2. http://toxnet.nlm.nih.gov/cgi-bin/sis/search/r?dbs+hsdb:@term+@rn+@rel+26171-23-3
   3. http://toxnet.nlm.nih.gov/cgi-bin/sis/search/r?dbs+hsdb:@term+@rn+@rel+26171-23-3
   4. http://toxnet.nlm.nih.gov/cgi-bin/sis/search/r?dbs+hsdb:@term+@rn+@rel+26171-23-3
   5. http://pubchem.ncbi.nlm.nih.gov/vw3d/vw3d.cgi?cid=5509
