   Color/Form

     * Colorless oily liquid
     * Colorless to water-white, oily liquid.

   from [1]HSDB

   Odor

     * Practically odorless
     * Odorless
     * Very slight, aromatic odor.

   from [2]HSDB

   Taste
        Bitter disagreeable taste
   from [3]HSDB

   Boiling Point
        295 deg C
   from [4]HSDB

   Melting Point
        -40.5 deg C
   from [5]HSDB

   Density/Specific Gravity
        1.120 at 25 deg C/25 deg C
   from [6]HSDB

   Heat of Combustion
        -10,920 BTU/LB= -6,070 CAL/G= -254X10+5 J/KG
   from [7]HSDB

   Heat of Vaporization
        170 BTU/LB= 96 CAL/G= 4.0X10+5 J/KG
   from [8]HSDB

   Octanol/Water Partition Coefficient
        log Kow = 2.47
   from [9]HSDB

   Solubilities

     * Miscible with ethanol, ethyl ether. Soluble in acetone, benzene,
       carbon tetrachloride
     * MISCIBLE WITH VEGETABLE OILS
     * Miscible with alcohols, ketones, esters, aromatic hydrocarbons;
       partly miscible with aliphatic solvents
     * Miscible with many organic solvents
     * In water, 1,080 mg/L at 25 deg C

   from [10]HSDB

   Spectral Properties

     * Index of refraction: 1.5002 at 25 deg C/D
     * MAX ABSORPTION (ALCOHOL): 225 NM (LOG E= 3.9); 275 NM (LOG E= 3.1);
       SADTLER REFERENCE NUMBER: 375 (IR, PRISM); 117 (IR, GRATING)
     * Intense mass spectral peaks: 149 m/z (100%), 177 m/z (28%), 150 m/z
       (13%), 176 m/z (9%)
     * Intense mass spectral peaks: 222 m/z
     * IR: 4798 (Coblentz Society Spectral Collection)
     * Raman: 75 (Sadtler Research Laboratories Spectral Collection)
     * UV: 150 (Sadtler Research Laboratories Spectral Collection)
     * 1H NMR: 705 (Sadtler Research Laboratories Spectral Collection)
     * MASS: 22733 (NIST/EPA/MSDC Mass Spectral Database, 1990 version);
       2-706 (Archives of Mass Spectral Data, John Wiley & Sons, New York)

   from [11]HSDB

   Surface Tension
        37.5 dynes/cm at 20 deg C
   from [12]HSDB

   Vapor Pressure
        2.1X10-3 mm Hg at 25 deg C
   from [13]HSDB

   Viscosity
        31.3 centistokes at 0 deg C
   from [14]HSDB

   Other Chemical/Physical Properties

     * LIQUID-WATER INTERFACE TENSION: 16.27 DYNES/CM= 0.01627 N/M @ 20.5
       DEG C
     * Wt/gal approx 9.31 lb at 20 deg C
     * Density: 1.232 at 14 deg C/4 deg C. Index of refraction: 1.5049 at
       14 deg C/D
     * Conversion: 9.07 mg/cu m = 1 ppm
     * ... Resistance to migration from polymers, low temperature
       flexibility ... compatibility with polar polymers and additives
       over a wide range of compositions. /Phthalate esters/
     * Phthalate esters would be expected to have UV maxima in the 230 nm
       and 270 nm regions. /Phthalate esters/
     * Henry's Law constant = 6.10X10-7 atm-cu m/mol at 25 deg C (est)
     * Hydroxyl radical reaction rate constant = 3.47X10-12 cu
       cm/molec-sec at 25 deg C (est)

   from [15]HSDB

   Computed Properties
   Molecular Weight                  222.23716 [g/mol]
   Molecular Formula                 C[12]H[14]O[4]
   XLogP3                            2.5
   H-Bond Donor                      0
   H-Bond Acceptor                   4
   Rotatable Bond Count              6
   Exact Mass                        222.089209
   MonoIsotopic Mass                 222.089209
   Topological Polar Surface Area    52.6
   Heavy Atom Count                  16
   Formal Charge                     0
   Complexity                        223
   Isotope Atom Count                0
   Defined Atom Stereocenter Count   0
   Undefined Atom Stereocenter Count 0
   Defined Bond Stereocenter Count   0
   Undefined Bond Stereocenter Count 0
   Covalently-Bonded Unit Count      1
   Feature 3D Acceptor Count         2
   Feature 3D Ring Count             1
   Effective Rotor Count             6
   Conformer Sampling RMSD           0.8
   CID Conformer Count               [16]28

References

   1. http://toxnet.nlm.nih.gov/cgi-bin/sis/search/r?dbs+hsdb:@term+@rn+@rel+84-66-2
   2. http://toxnet.nlm.nih.gov/cgi-bin/sis/search/r?dbs+hsdb:@term+@rn+@rel+84-66-2
   3. http://toxnet.nlm.nih.gov/cgi-bin/sis/search/r?dbs+hsdb:@term+@rn+@rel+84-66-2
   4. http://toxnet.nlm.nih.gov/cgi-bin/sis/search/r?dbs+hsdb:@term+@rn+@rel+84-66-2
   5. http://toxnet.nlm.nih.gov/cgi-bin/sis/search/r?dbs+hsdb:@term+@rn+@rel+84-66-2
   6. http://toxnet.nlm.nih.gov/cgi-bin/sis/search/r?dbs+hsdb:@term+@rn+@rel+84-66-2
   7. http://toxnet.nlm.nih.gov/cgi-bin/sis/search/r?dbs+hsdb:@term+@rn+@rel+84-66-2
   8. http://toxnet.nlm.nih.gov/cgi-bin/sis/search/r?dbs+hsdb:@term+@rn+@rel+84-66-2
   9. http://toxnet.nlm.nih.gov/cgi-bin/sis/search/r?dbs+hsdb:@term+@rn+@rel+84-66-2
  10. http://toxnet.nlm.nih.gov/cgi-bin/sis/search/r?dbs+hsdb:@term+@rn+@rel+84-66-2
  11. http://toxnet.nlm.nih.gov/cgi-bin/sis/search/r?dbs+hsdb:@term+@rn+@rel+84-66-2
  12. http://toxnet.nlm.nih.gov/cgi-bin/sis/search/r?dbs+hsdb:@term+@rn+@rel+84-66-2
  13. http://toxnet.nlm.nih.gov/cgi-bin/sis/search/r?dbs+hsdb:@term+@rn+@rel+84-66-2
  14. http://toxnet.nlm.nih.gov/cgi-bin/sis/search/r?dbs+hsdb:@term+@rn+@rel+84-66-2
  15. http://toxnet.nlm.nih.gov/cgi-bin/sis/search/r?dbs+hsdb:@term+@rn+@rel+84-66-2
  16. http://pubchem.ncbi.nlm.nih.gov/vw3d/vw3d.cgi?cid=6781
