   Color/Form

     * Colorless powder
     * Crystals

   from [1]HSDB

   Melting Point
        229.7 deg C
   from [2]HSDB

   Corrosivity
        NONCORROSIVE UNDER NORMAL USE CONDITIONS
   from [3]HSDB

   Density/Specific Gravity
        1.162 g/cu cm at 20 deg C
   from [4]HSDB

   Dissociation Constants
        pKa = 1.7 at 21 deg C
   from [5]HSDB

   Octanol/Water Partition Coefficient
        log Kow = 2.93
   from [6]HSDB

   pH
        Very weak base
   from [7]HSDB

   Solubilities

     * 6.2 benzene; 6.2 toluene; 2.5 carbon tetrachloride; 5 diethyl ether
       (all in g/kg at 20 deg C
     * Difficult to dissolve in organic solvents
     * In water, 8.6 mg/L at 22 deg C

   from [8]HSDB

   Spectral Properties
        Intense mass spectral peaks: 58 m/z (100%), 214 m/z (84%), 229 m/z
   (53%), 43 m/z (52%)
   from [9]HSDB

   Vapor Pressure
        1.31X10-7 mm Hg at 25 deg C
   from [10]HSDB

   Other Chemical/Physical Properties

     * Stable to hydrolysis in neutral, slightly acidic or slightly
       alkaline media
     * Henry's Law constant = 4.60X10-9 atm-cu m/mole at 25 deg C (est)
     * Hydroxyl radical reaction rate constant = 3.69x10-11 cu
       cm/molec-sec at 25 deg C (est)

   from [11]HSDB

   Computed Properties
   Molecular Weight                  229.70984 [g/mol]
   Molecular Formula                 C[9]H[16]ClN[5]
   XLogP3                            2.9
   H-Bond Donor                      2
   H-Bond Acceptor                   5
   Rotatable Bond Count              4
   Tautomer Count                    5
   Exact Mass                        229.109423
   MonoIsotopic Mass                 229.109423
   Topological Polar Surface Area    62.7
   Heavy Atom Count                  15
   Formal Charge                     0
   Complexity                        169
   Isotope Atom Count                0
   Defined Atom Stereocenter Count   0
   Undefined Atom Stereocenter Count 0
   Defined Bond Stereocenter Count   0
   Undefined Bond Stereocenter Count 0
   Covalently-Bonded Unit Count      1
   Feature 3D Donor Count            2
   Feature 3D Cation Count           2
   Feature 3D Hydrophobe Count       2
   Feature 3D Ring Count             1
   Effective Rotor Count             4
   Conformer Sampling RMSD           0.6
   CID Conformer Count               [12]42

References

   1. http://toxnet.nlm.nih.gov/cgi-bin/sis/search/r?dbs+hsdb:@term+@rn+@rel+139-40-2
   2. http://toxnet.nlm.nih.gov/cgi-bin/sis/search/r?dbs+hsdb:@term+@rn+@rel+139-40-2
   3. http://toxnet.nlm.nih.gov/cgi-bin/sis/search/r?dbs+hsdb:@term+@rn+@rel+139-40-2
   4. http://toxnet.nlm.nih.gov/cgi-bin/sis/search/r?dbs+hsdb:@term+@rn+@rel+139-40-2
   5. http://toxnet.nlm.nih.gov/cgi-bin/sis/search/r?dbs+hsdb:@term+@rn+@rel+139-40-2
   6. http://toxnet.nlm.nih.gov/cgi-bin/sis/search/r?dbs+hsdb:@term+@rn+@rel+139-40-2
   7. http://toxnet.nlm.nih.gov/cgi-bin/sis/search/r?dbs+hsdb:@term+@rn+@rel+139-40-2
   8. http://toxnet.nlm.nih.gov/cgi-bin/sis/search/r?dbs+hsdb:@term+@rn+@rel+139-40-2
   9. http://toxnet.nlm.nih.gov/cgi-bin/sis/search/r?dbs+hsdb:@term+@rn+@rel+139-40-2
  10. http://toxnet.nlm.nih.gov/cgi-bin/sis/search/r?dbs+hsdb:@term+@rn+@rel+139-40-2
  11. http://toxnet.nlm.nih.gov/cgi-bin/sis/search/r?dbs+hsdb:@term+@rn+@rel+139-40-2
  12. http://pubchem.ncbi.nlm.nih.gov/vw3d/vw3d.cgi?cid=4937
