197259
  -OEChem-07051213032D

 97103  0     1  0  0  0  0  0999 V2000
    5.1616   -2.1740    0.0000 O   0  0  0  0  0  0  0  0  0  0  0  0
    2.5393   -3.7150    0.0000 O   0  0  0  0  0  0  0  0  0  0  0  0
    4.8361   -5.6999    0.0000 O   0  0  0  0  0  0  0  0  0  0  0  0
    6.6683   -3.0284    0.0000 O   0  0  0  0  0  0  0  0  0  0  0  0
    6.1975   -3.5251    0.0000 O   0  0  0  0  0  0  0  0  0  0  0  0
    4.2936    3.4268    0.0000 O   0  0  0  0  0  0  0  0  0  0  0  0
    6.8859    4.9368    0.0000 O   0  0  0  0  0  0  0  0  0  0  0  0
    6.0155   -0.6391    0.0000 O   0  0  0  0  0  0  0  0  0  0  0  0
    2.5514    0.3609    0.0000 O   0  0  0  0  0  0  0  0  0  0  0  0
    9.1615   -2.1431    0.0000 O   0  0  0  0  0  0  0  0  0  0  0  0
    8.6179    4.9435    0.0000 O   0  0  0  0  0  0  0  0  0  0  0  0
    5.1500    5.9301    0.0000 O   0  0  0  0  0  0  0  0  0  0  0  0
    3.3956    1.8924    0.0000 O   0  0  0  0  0  0  0  0  0  0  0  0
   10.3577    2.9502    0.0000 O   0  0  0  0  0  0  0  0  0  0  0  0
    4.2995   -2.6806    0.0000 C   0  0  1  0  0  0  0  0  0  0  0  0
    3.4014   -3.2084    0.0000 C   0  0  2  0  0  0  0  0  0  0  0  0
    3.3931   -4.2933    0.0000 C   0  0  0  0  0  0  0  0  0  0  0  0
    4.3327   -4.8358    0.0000 C   0  0  2  0  0  0  0  0  0  0  0  0
    5.2682   -4.2861    0.0000 C   0  0  0  0  0  0  0  0  0  0  0  0
    5.2514   -3.2012    0.0000 C   0  0  0  0  0  0  0  0  0  0  0  0
    4.2834   -1.6391    0.0000 C   0  0  0  0  0  0  0  0  0  0  0  0
    2.4994   -2.6876    0.0000 C   0  0  0  0  0  0  0  0  0  0  0  0
    3.4174   -1.1391    0.0000 C   0  0  0  0  0  0  0  0  0  0  0  0
    3.8361   -5.7038    0.0000 C   0  0  0  0  0  0  0  0  0  0  0  0
    6.1616   -2.1662    0.0000 C   0  0  2  0  0  0  0  0  0  0  0  0
    2.5074   -1.6460    0.0000 C   0  0  0  0  0  0  0  0  0  0  0  0
    5.1495   -1.1391    0.0000 C   0  0  0  0  0  0  0  0  0  0  0  0
    6.6549   -1.2964    0.0000 C   0  0  0  0  0  0  0  0  0  0  0  0
    3.4174   -0.1391    0.0000 C   0  0  0  0  0  0  0  0  0  0  0  0
    5.1495   -0.1391    0.0000 C   0  0  0  0  0  0  0  0  0  0  0  0
    4.2834    0.3609    0.0000 C   0  0  0  0  0  0  0  0  0  0  0  0
    7.6549   -1.2887    0.0000 C   0  0  0  0  0  0  0  0  0  0  0  0
    7.6682   -3.0207    0.0000 C   0  0  2  0  0  0  0  0  0  0  0  0
    5.1616    2.9301    0.0000 C   0  0  2  0  0  0  0  0  0  0  0  0
    8.1616   -2.1508    0.0000 C   0  0  1  0  0  0  0  0  0  0  0  0
    6.0218    4.4335    0.0000 C   0  0  2  0  0  0  0  0  0  0  0  0
    6.0256    3.4335    0.0000 C   0  0  0  0  0  0  0  0  0  0  0  0
    5.1654    1.9302    0.0000 C   0  0  0  0  0  0  0  0  0  0  0  0
    5.1538    4.9301    0.0000 C   0  0  1  0  0  0  0  0  0  0  0  0
    4.2674    1.4024    0.0000 C   0  0  0  0  0  0  0  0  0  0  0  0
    4.2898    4.4268    0.0000 C   0  0  1  0  0  0  0  0  0  0  0  0
    6.0595    0.3677    0.0000 C   0  0  0  0  0  0  0  0  0  0  0  0
    6.0675    1.4093    0.0000 C   0  0  0  0  0  0  0  0  0  0  0  0
    7.7538    4.4402    0.0000 C   0  0  2  0  0  0  0  0  0  0  0  0
    8.1749   -3.8828    0.0000 C   0  0  0  0  0  0  0  0  0  0  0  0
    7.7577    3.4402    0.0000 C   0  0  0  0  0  0  0  0  0  0  0  0
    3.4218    4.9234    0.0000 C   0  0  0  0  0  0  0  0  0  0  0  0
    8.6256    2.9435    0.0000 C   0  0  0  0  0  0  0  0  0  0  0  0
    9.4897    3.4468    0.0000 C   0  0  1  0  0  0  0  0  0  0  0  0
    9.4859    4.4468    0.0000 C   0  0  2  0  0  0  0  0  0  0  0  0
   10.3500    4.9502    0.0000 C   0  0  0  0  0  0  0  0  0  0  0  0
    2.7831   -4.1825    0.0000 H   0  0  0  0  0  0  0  0  0  0  0  0
    3.1795   -4.8754    0.0000 H   0  0  0  0  0  0  0  0  0  0  0  0
    5.4862   -4.8665    0.0000 H   0  0  0  0  0  0  0  0  0  0  0  0
    5.8773   -4.1706    0.0000 H   0  0  0  0  0  0  0  0  0  0  0  0
    1.9612   -2.9955    0.0000 H   0  0  0  0  0  0  0  0  0  0  0  0
    3.2979   -5.3958    0.0000 H   0  0  0  0  0  0  0  0  0  0  0  0
    3.5281   -6.2419    0.0000 H   0  0  0  0  0  0  0  0  0  0  0  0
    4.3742   -6.0117    0.0000 H   0  0  0  0  0  0  0  0  0  0  0  0
    5.8558   -2.7056    0.0000 H   0  0  0  0  0  0  0  0  0  0  0  0
    1.9741   -1.3298    0.0000 H   0  0  0  0  0  0  0  0  0  0  0  0
    2.0000   -3.4092    0.0000 H   0  0  0  0  0  0  0  0  0  0  0  0
    6.7579   -0.6850    0.0000 H   0  0  0  0  0  0  0  0  0  0  0  0
    6.0707   -1.0888    0.0000 H   0  0  0  0  0  0  0  0  0  0  0  0
    4.5281   -6.2380    0.0000 H   0  0  0  0  0  0  0  0  0  0  0  0
    8.2358   -1.0722    0.0000 H   0  0  0  0  0  0  0  0  0  0  0  0
    7.5425   -0.6790    0.0000 H   0  0  0  0  0  0  0  0  0  0  0  0
    5.8993    2.5080    0.0000 H   0  0  0  0  0  0  0  0  0  0  0  0
    7.3624   -3.5600    0.0000 H   0  0  0  0  0  0  0  0  0  0  0  0
    8.4757   -2.6854    0.0000 H   0  0  0  0  0  0  0  0  0  0  0  0
    6.0194    5.0535    0.0000 H   0  0  0  0  0  0  0  0  0  0  0  0
    6.2399    2.8517    0.0000 H   0  0  0  0  0  0  0  0  0  0  0  0
    6.6358    3.5435    0.0000 H   0  0  0  0  0  0  0  0  0  0  0  0
    5.6896    5.2422    0.0000 H   0  0  0  0  0  0  0  0  0  0  0  0
    3.7540    4.1147    0.0000 H   0  0  0  0  0  0  0  0  0  0  0  0
    6.5928    0.0515    0.0000 H   0  0  0  0  0  0  0  0  0  0  0  0
    6.6056    1.7173    0.0000 H   0  0  0  0  0  0  0  0  0  0  0  0
    7.7514    5.0601    0.0000 H   0  0  0  0  0  0  0  0  0  0  0  0
    7.6404   -4.1970    0.0000 H   0  0  0  0  0  0  0  0  0  0  0  0
    8.4890   -4.4174    0.0000 H   0  0  0  0  0  0  0  0  0  0  0  0
    8.7094   -3.5687    0.0000 H   0  0  0  0  0  0  0  0  0  0  0  0
    7.1467    3.5455    0.0000 H   0  0  0  0  0  0  0  0  0  0  0  0
    7.5479    2.8567    0.0000 H   0  0  0  0  0  0  0  0  0  0  0  0
    3.7297    5.4616    0.0000 H   0  0  0  0  0  0  0  0  0  0  0  0
    2.8837    5.2314    0.0000 H   0  0  0  0  0  0  0  0  0  0  0  0
    3.1139    4.3853    0.0000 H   0  0  0  0  0  0  0  0  0  0  0  0
    8.2289    2.4670    0.0000 H   0  0  0  0  0  0  0  0  0  0  0  0
    9.0260    2.4701    0.0000 H   0  0  0  0  0  0  0  0  0  0  0  0
   10.0255    3.7589    0.0000 H   0  0  0  0  0  0  0  0  0  0  0  0
    9.4835    5.0668    0.0000 H   0  0  0  0  0  0  0  0  0  0  0  0
    9.4674   -1.6038    0.0000 H   0  0  0  0  0  0  0  0  0  0  0  0
    4.6119    6.2380    0.0000 H   0  0  0  0  0  0  0  0  0  0  0  0
    2.8623    1.5762    0.0000 H   0  0  0  0  0  0  0  0  0  0  0  0
   10.6620    4.4144    0.0000 H   0  0  0  0  0  0  0  0  0  0  0  0
   10.8857    5.2622    0.0000 H   0  0  0  0  0  0  0  0  0  0  0  0
   10.0379    5.4859    0.0000 H   0  0  0  0  0  0  0  0  0  0  0  0
   10.8934    3.2622    0.0000 H   0  0  0  0  0  0  0  0  0  0  0  0
 15  1  1  6  0  0  0
 25  1  1  1  0  0  0
 16  2  1  6  0  0  0
  2 62  1  0  0  0  0
 18  3  1  6  0  0  0
  3 65  1  0  0  0  0
  4 25  1  0  0  0  0
  4 33  1  0  0  0  0
  5 20  2  0  0  0  0
  6 34  1  0  0  0  0
  6 41  1  0  0  0  0
 36  7  1  6  0  0  0
 44  7  1  6  0  0  0
  8 27  2  0  0  0  0
  9 29  2  0  0  0  0
 35 10  1  6  0  0  0
 10 91  1  0  0  0  0
 11 44  1  0  0  0  0
 11 50  1  0  0  0  0
 39 12  1  1  0  0  0
 12 92  1  0  0  0  0
 13 40  1  0  0  0  0
 13 93  1  0  0  0  0
 49 14  1  1  0  0  0
 14 97  1  0  0  0  0
 15 16  1  0  0  0  0
 15 20  1  0  0  0  0
 15 21  1  0  0  0  0
 16 17  1  0  0  0  0
 16 22  1  0  0  0  0
 17 18  1  0  0  0  0
 17 52  1  0  0  0  0
 17 53  1  0  0  0  0
 18 19  1  0  0  0  0
 18 24  1  0  0  0  0
 19 20  1  0  0  0  0
 19 54  1  0  0  0  0
 19 55  1  0  0  0  0
 21 23  2  0  0  0  0
 21 27  1  0  0  0  0
 22 26  2  0  0  0  0
 22 56  1  0  0  0  0
 23 26  1  0  0  0  0
 23 29  1  0  0  0  0
 24 57  1  0  0  0  0
 24 58  1  0  0  0  0
 24 59  1  0  0  0  0
 25 28  1  0  0  0  0
 25 60  1  0  0  0  0
 26 61  1  0  0  0  0
 27 30  1  0  0  0  0
 28 32  1  0  0  0  0
 28 63  1  0  0  0  0
 28 64  1  0  0  0  0
 29 31  1  0  0  0  0
 30 31  2  0  0  0  0
 30 42  1  0  0  0  0
 31 40  1  0  0  0  0
 32 35  1  0  0  0  0
 32 66  1  0  0  0  0
 32 67  1  0  0  0  0
 33 35  1  0  0  0  0
 33 45  1  6  0  0  0
 33 69  1  0  0  0  0
 34 37  1  0  0  0  0
 34 38  1  0  0  0  0
 34 68  1  1  0  0  0
 35 70  1  0  0  0  0
 36 37  1  0  0  0  0
 36 39  1  0  0  0  0
 36 71  1  0  0  0  0
 37 72  1  0  0  0  0
 37 73  1  0  0  0  0
 38 40  2  0  0  0  0
 38 43  1  0  0  0  0
 39 41  1  0  0  0  0
 39 74  1  0  0  0  0
 41 47  1  6  0  0  0
 41 75  1  0  0  0  0
 42 43  2  0  0  0  0
 42 76  1  0  0  0  0
 43 77  1  0  0  0  0
 44 46  1  0  0  0  0
 44 78  1  0  0  0  0
 45 79  1  0  0  0  0
 45 80  1  0  0  0  0
 45 81  1  0  0  0  0
 46 48  1  0  0  0  0
 46 82  1  0  0  0  0
 46 83  1  0  0  0  0
 47 84  1  0  0  0  0
 47 85  1  0  0  0  0
 47 86  1  0  0  0  0
 48 49  1  0  0  0  0
 48 87  1  0  0  0  0
 48 88  1  0  0  0  0
 49 50  1  0  0  0  0
 49 89  1  0  0  0  0
 50 51  1  1  0  0  0
 50 90  1  0  0  0  0
 51 94  1  0  0  0  0
 51 95  1  0  0  0  0
 51 96  1  0  0  0  0
M  END
> <PUBCHEM_COMPOUND_CID>
197259

> <PUBCHEM_COMPOUND_CANONICALIZED>
1

> <PUBCHEM_CACTVS_COMPLEXITY>
1480

> <PUBCHEM_CACTVS_HBOND_ACCEPTOR>
14

> <PUBCHEM_CACTVS_HBOND_DONOR>
6

> <PUBCHEM_CACTVS_ROTATABLE_BOND>
5

> <PUBCHEM_CACTVS_SUBSKEYS>
AAADcfB8PAAAAAAAAAAAAAAAAAAAAAAAAAA0aJECAAAAAACBAAAAGgAACAAADFSwmAMyDoAABgCIAqBSAAICAAAkIAAIiAFECMgZNzaCNR6icUAl4BEPuYfL7PzOwAADAAAYAADCAAYQADCAAAAAAAAAAA==

> <PUBCHEM_IUPAC_OPENEYE_NAME>
(3R,4aR,12bS)-3,4a,8-trihydroxy-9-[(2R,4R,5R,6R)-5-hydroxy-4-[(2S,5S,6S)-5-hydroxy-6-methyl-tetrahydropyran-2-yl]oxy-6-methyl-tetrahydropyran-2-yl]-12b-[(2S,5S,6S)-5-hydroxy-6-methyl-tetrahydropyran-2-yl]oxy-3-methyl-2,4-dihydrobenzo[a]anthracene-1,7,12-trione

> <PUBCHEM_IUPAC_CAS_NAME>
(3R,4aR,12bS)-3,4a,8-trihydroxy-9-[(2R,4R,5R,6R)-5-hydroxy-4-[[(2S,5S,6S)-5-hydroxy-6-methyl-2-oxanyl]oxy]-6-methyl-2-oxanyl]-12b-[[(2S,5S,6S)-5-hydroxy-6-methyl-2-oxanyl]oxy]-3-methyl-2,4-dihydrobenzo[a]anthracene-1,7,12-trione

> <PUBCHEM_IUPAC_NAME>
(3R,4aR,12bS)-3,4a,8-trihydroxy-9-[(2R,4R,5R,6R)-5-hydroxy-4-[(2S,5S,6S)-5-hydroxy-6-methyloxan-2-yl]oxy-6-methyloxan-2-yl]-12b-[(2S,5S,6S)-5-hydroxy-6-methyloxan-2-yl]oxy-3-methyl-2,4-dihydrobenzo[a]anthracene-1,7,12-trione

> <PUBCHEM_IUPAC_SYSTEMATIC_NAME>
(3R,4aR,12bS)-3-methyl-9-[(2R,4R,5R,6R)-6-methyl-4-[(2S,5S,6S)-6-methyl-5-oxidanyl-oxan-2-yl]oxy-5-oxidanyl-oxan-2-yl]-12b-[(2S,5S,6S)-6-methyl-5-oxidanyl-oxan-2-yl]oxy-3,4a,8-tris(oxidanyl)-2,4-dihydrobenzo[a]anthracene-1,7,12-trione

> <PUBCHEM_IUPAC_TRADITIONAL_NAME>
(3R,4aR,12bS)-3,4a,8-trihydroxy-9-[(2R,4R,5R,6R)-5-hydroxy-4-[(2S,5S,6S)-5-hydroxy-6-methyl-tetrahydropyran-2-yl]oxy-6-methyl-tetrahydropyran-2-yl]-12b-[(2S,5S,6S)-5-hydroxy-6-methyl-tetrahydropyran-2-yl]oxy-3-methyl-2,4-dihydrobenz[a]anthracene-1,7,12-trione

> <PUBCHEM_IUPAC_INCHI>
InChI=1S/C37H46O14/c1-16-22(38)7-9-27(48-16)50-25-13-24(47-18(3)31(25)41)19-5-6-20-29(32(19)42)33(43)21-11-12-36(46)15-35(4,45)14-26(40)37(36,30(21)34(20)44)51-28-10-8-23(39)17(2)49-28/h5-6,11-12,16-18,22-25,27-28,31,38-39,41-42,45-46H,7-10,13-15H2,1-4H3/t16-,17-,18+,22-,23-,24+,25+,27-,28-,31+,35-,36-,37-/m0/s1

> <PUBCHEM_IUPAC_INCHIKEY>
NXMILGRUJOPZOM-WCWCMWHBSA-N

> <PUBCHEM_XLOGP3_AA>
0.5

> <PUBCHEM_EXACT_MASS>
714.288756

> <PUBCHEM_MOLECULAR_FORMULA>
C37H46O14

> <PUBCHEM_MOLECULAR_WEIGHT>
714.75274

> <PUBCHEM_OPENEYE_CAN_SMILES>
CC1C(CCC(O1)OC2CC(OC(C2O)C)C3=C(C4=C(C=C3)C(=O)C5=C(C4=O)C=CC6(C5(C(=O)CC(C6)(C)O)OC7CCC(C(O7)C)O)O)O)O

> <PUBCHEM_OPENEYE_ISO_SMILES>
C[C@H]1[C@H](CC[C@@H](O1)O[C@@H]2C[C@@H](O[C@@H]([C@H]2O)C)C3=C(C4=C(C=C3)C(=O)C5=C(C4=O)C=C[C@]6([C@@]5(C(=O)C[C@](C6)(C)O)O[C@H]7CC[C@@H]([C@@H](O7)C)O)O)O)O

> <PUBCHEM_CACTVS_TPSA>
219

> <PUBCHEM_MONOISOTOPIC_WEIGHT>
714.288756

> <PUBCHEM_TOTAL_CHARGE>
0

> <PUBCHEM_HEAVY_ATOM_COUNT>
51

> <PUBCHEM_ATOM_DEF_STEREO_COUNT>
13

> <PUBCHEM_ATOM_UDEF_STEREO_COUNT>
0

> <PUBCHEM_BOND_DEF_STEREO_COUNT>
0

> <PUBCHEM_BOND_UDEF_STEREO_COUNT>
0

> <PUBCHEM_ISOTOPIC_ATOM_COUNT>
0

> <PUBCHEM_COMPONENT_COUNT>
1

> <PUBCHEM_CACTVS_TAUTO_COUNT>
10

> <PUBCHEM_COORDINATE_TYPE>
1
5
255

> <PUBCHEM_BONDANNOTATIONS>
15  1  6
25  1  5
35  10  6
39  12  5
49  14  5
16  2  6
18  3  6
30  31  8
30  42  8
31  40  8
33  45  6
34  68  5
38  40  8
38  43  8
41  47  6
42  43  8
50  51  5
36  7  6
44  7  6

$$$$

