115201
  -OEChem-07051213152D

 72 72  0     1  0  0  0  0  0999 V2000
    9.4651   -2.0000    0.0000 O   0  0  0  0  0  0  0  0  0  0  0  0
   10.3312   -2.5000    0.0000 O   0  0  0  0  0  0  0  0  0  0  0  0
    7.7331   -8.0000    0.0000 O   0  0  0  0  0  0  0  0  0  0  0  0
    6.0010    2.0000    0.0000 N   0  0  0  0  0  0  0  0  0  0  0  0
    7.7331   -2.0000    0.0000 N   0  0  0  0  0  0  0  0  0  0  0  0
    9.4651   -4.0000    0.0000 N   0  0  0  0  0  0  0  0  0  0  0  0
    4.2690    5.0000    0.0000 N   0  0  0  0  0  0  0  0  0  0  0  0
    2.5369    8.0000    0.0000 N   0  0  0  0  0  0  0  0  0  0  0  0
    6.8671    0.5000    0.0000 C   0  0  0  0  0  0  0  0  0  0  0  0
    6.8671   -0.5000    0.0000 C   0  0  0  0  0  0  0  0  0  0  0  0
    8.5991   -3.5000    0.0000 C   0  0  1  0  0  0  0  0  0  0  0  0
    6.0010    1.0000    0.0000 C   0  0  0  0  0  0  0  0  0  0  0  0
    7.7331   -1.0000    0.0000 C   0  0  0  0  0  0  0  0  0  0  0  0
    5.1350    2.5000    0.0000 C   0  0  0  0  0  0  0  0  0  0  0  0
    5.1350    3.5000    0.0000 C   0  0  0  0  0  0  0  0  0  0  0  0
    7.7331   -4.0000    0.0000 C   0  0  0  0  0  0  0  0  0  0  0  0
    4.2690    4.0000    0.0000 C   0  0  0  0  0  0  0  0  0  0  0  0
    8.5991   -2.5000    0.0000 C   0  0  0  0  0  0  0  0  0  0  0  0
    7.7331   -5.0000    0.0000 C   0  0  0  0  0  0  0  0  0  0  0  0
    3.4030    5.5000    0.0000 C   0  0  0  0  0  0  0  0  0  0  0  0
    3.4030    6.5000    0.0000 C   0  0  0  0  0  0  0  0  0  0  0  0
   10.3312   -3.5000    0.0000 C   0  0  0  0  0  0  0  0  0  0  0  0
   11.1972   -4.0000    0.0000 C   0  0  0  0  0  0  0  0  0  0  0  0
    6.8671   -5.5000    0.0000 C   0  0  0  0  0  0  0  0  0  0  0  0
    8.5991   -5.5000    0.0000 C   0  0  0  0  0  0  0  0  0  0  0  0
    2.5369    7.0000    0.0000 C   0  0  0  0  0  0  0  0  0  0  0  0
   12.0632   -3.5000    0.0000 C   0  0  0  0  0  0  0  0  0  0  0  0
    6.8671   -6.5000    0.0000 C   0  0  0  0  0  0  0  0  0  0  0  0
    8.5991   -6.5000    0.0000 C   0  0  0  0  0  0  0  0  0  0  0  0
    7.7331   -7.0000    0.0000 C   0  0  0  0  0  0  0  0  0  0  0  0
   12.9292   -4.0000    0.0000 C   0  0  0  0  0  0  0  0  0  0  0  0
    7.4776    0.3923    0.0000 H   0  0  0  0  0  0  0  0  0  0  0  0
    7.0791    1.0826    0.0000 H   0  0  0  0  0  0  0  0  0  0  0  0
    6.2565   -0.3923    0.0000 H   0  0  0  0  0  0  0  0  0  0  0  0
    6.6550   -1.0826    0.0000 H   0  0  0  0  0  0  0  0  0  0  0  0
    8.5991   -4.1200    0.0000 H   0  0  0  0  0  0  0  0  0  0  0  0
    5.3905    1.1077    0.0000 H   0  0  0  0  0  0  0  0  0  0  0  0
    5.7890    0.4174    0.0000 H   0  0  0  0  0  0  0  0  0  0  0  0
    8.3437   -1.1077    0.0000 H   0  0  0  0  0  0  0  0  0  0  0  0
    7.9451   -0.4174    0.0000 H   0  0  0  0  0  0  0  0  0  0  0  0
    4.5244    2.6077    0.0000 H   0  0  0  0  0  0  0  0  0  0  0  0
    4.9230    1.9174    0.0000 H   0  0  0  0  0  0  0  0  0  0  0  0
    5.7456    3.3923    0.0000 H   0  0  0  0  0  0  0  0  0  0  0  0
    5.3471    4.0826    0.0000 H   0  0  0  0  0  0  0  0  0  0  0  0
    7.5210   -3.4174    0.0000 H   0  0  0  0  0  0  0  0  0  0  0  0
    7.1225   -4.1077    0.0000 H   0  0  0  0  0  0  0  0  0  0  0  0
    6.5380    2.3100    0.0000 H   0  0  0  0  0  0  0  0  0  0  0  0
    3.6584    4.1077    0.0000 H   0  0  0  0  0  0  0  0  0  0  0  0
    4.0569    3.4174    0.0000 H   0  0  0  0  0  0  0  0  0  0  0  0
    7.1962   -2.3100    0.0000 H   0  0  0  0  0  0  0  0  0  0  0  0
    9.4651   -4.6200    0.0000 H   0  0  0  0  0  0  0  0  0  0  0  0
    4.8059    5.3100    0.0000 H   0  0  0  0  0  0  0  0  0  0  0  0
    2.7924    5.6077    0.0000 H   0  0  0  0  0  0  0  0  0  0  0  0
    3.1909    4.9174    0.0000 H   0  0  0  0  0  0  0  0  0  0  0  0
    4.0135    6.3923    0.0000 H   0  0  0  0  0  0  0  0  0  0  0  0
    3.6150    7.0826    0.0000 H   0  0  0  0  0  0  0  0  0  0  0  0
   10.7987   -4.4750    0.0000 H   0  0  0  0  0  0  0  0  0  0  0  0
   11.5957   -4.4750    0.0000 H   0  0  0  0  0  0  0  0  0  0  0  0
    6.3301   -5.1900    0.0000 H   0  0  0  0  0  0  0  0  0  0  0  0
    9.1360   -5.1900    0.0000 H   0  0  0  0  0  0  0  0  0  0  0  0
    1.9264    7.1077    0.0000 H   0  0  0  0  0  0  0  0  0  0  0  0
    2.3249    6.4174    0.0000 H   0  0  0  0  0  0  0  0  0  0  0  0
   12.4617   -3.0250    0.0000 H   0  0  0  0  0  0  0  0  0  0  0  0
   11.6647   -3.0250    0.0000 H   0  0  0  0  0  0  0  0  0  0  0  0
    6.3301   -6.8100    0.0000 H   0  0  0  0  0  0  0  0  0  0  0  0
    9.1360   -6.8100    0.0000 H   0  0  0  0  0  0  0  0  0  0  0  0
   12.6192   -4.5369    0.0000 H   0  0  0  0  0  0  0  0  0  0  0  0
   13.4662   -4.3100    0.0000 H   0  0  0  0  0  0  0  0  0  0  0  0
   13.2392   -3.4631    0.0000 H   0  0  0  0  0  0  0  0  0  0  0  0
    2.0000    8.3100    0.0000 H   0  0  0  0  0  0  0  0  0  0  0  0
    3.0739    8.3100    0.0000 H   0  0  0  0  0  0  0  0  0  0  0  0
    7.1962   -8.3100    0.0000 H   0  0  0  0  0  0  0  0  0  0  0  0
  1 18  2  0  0  0  0
  2 22  2  0  0  0  0
  3 30  1  0  0  0  0
  3 72  1  0  0  0  0
  4 12  1  0  0  0  0
  4 14  1  0  0  0  0
  4 47  1  0  0  0  0
  5 13  1  0  0  0  0
  5 18  1  0  0  0  0
  5 50  1  0  0  0  0
 11  6  1  1  0  0  0
  6 22  1  0  0  0  0
  6 51  1  0  0  0  0
  7 17  1  0  0  0  0
  7 20  1  0  0  0  0
  7 52  1  0  0  0  0
  8 26  1  0  0  0  0
  8 70  1  0  0  0  0
  8 71  1  0  0  0  0
  9 10  1  0  0  0  0
  9 12  1  0  0  0  0
  9 32  1  0  0  0  0
  9 33  1  0  0  0  0
 10 13  1  0  0  0  0
 10 34  1  0  0  0  0
 10 35  1  0  0  0  0
 11 16  1  0  0  0  0
 11 18  1  0  0  0  0
 11 36  1  0  0  0  0
 12 37  1  0  0  0  0
 12 38  1  0  0  0  0
 13 39  1  0  0  0  0
 13 40  1  0  0  0  0
 14 15  1  0  0  0  0
 14 41  1  0  0  0  0
 14 42  1  0  0  0  0
 15 17  1  0  0  0  0
 15 43  1  0  0  0  0
 15 44  1  0  0  0  0
 16 19  1  0  0  0  0
 16 45  1  0  0  0  0
 16 46  1  0  0  0  0
 17 48  1  0  0  0  0
 17 49  1  0  0  0  0
 19 24  2  0  0  0  0
 19 25  1  0  0  0  0
 20 21  1  0  0  0  0
 20 53  1  0  0  0  0
 20 54  1  0  0  0  0
 21 26  1  0  0  0  0
 21 55  1  0  0  0  0
 21 56  1  0  0  0  0
 22 23  1  0  0  0  0
 23 27  1  0  0  0  0
 23 57  1  0  0  0  0
 23 58  1  0  0  0  0
 24 28  1  0  0  0  0
 24 59  1  0  0  0  0
 25 29  2  0  0  0  0
 25 60  1  0  0  0  0
 26 61  1  0  0  0  0
 26 62  1  0  0  0  0
 27 31  1  0  0  0  0
 27 63  1  0  0  0  0
 27 64  1  0  0  0  0
 28 30  2  0  0  0  0
 28 65  1  0  0  0  0
 29 30  1  0  0  0  0
 29 66  1  0  0  0  0
 31 67  1  0  0  0  0
 31 68  1  0  0  0  0
 31 69  1  0  0  0  0
M  END
> <PUBCHEM_COMPOUND_CID>
115201

> <PUBCHEM_COMPOUND_CANONICALIZED>
1

> <PUBCHEM_CACTVS_COMPLEXITY>
470

> <PUBCHEM_CACTVS_HBOND_ACCEPTOR>
6

> <PUBCHEM_CACTVS_HBOND_DONOR>
6

> <PUBCHEM_CACTVS_ROTATABLE_BOND>
18

> <PUBCHEM_CACTVS_SUBSKEYS>
AAADcfB7sAAAAAAAAAAAAAAAAAAAAAAAAAAwAAAAAAAAAAABAAAAHgAQCAAADCzBmAQyBoLAAgCIAiFSEAACAAAgIAAIiIGOCIgIZjKC0TOUcAAk1hGImAeYyKCOIAAAAAAAAABAAAAAAAAAAAAAAAAAAA==

> <PUBCHEM_IUPAC_OPENEYE_NAME>
N-[(1S)-2-[4-[3-(3-aminopropylamino)propylamino]butylamino]-1-[(4-hydroxyphenyl)methyl]-2-oxo-ethyl]butanamide

> <PUBCHEM_IUPAC_CAS_NAME>
N-[(2S)-1-[4-[3-(3-aminopropylamino)propylamino]butylamino]-3-(4-hydroxyphenyl)-1-oxopropan-2-yl]butanamide

> <PUBCHEM_IUPAC_NAME>
N-[(2S)-1-[4-[3-(3-aminopropylamino)propylamino]butylamino]-3-(4-hydroxyphenyl)-1-oxopropan-2-yl]butanamide

> <PUBCHEM_IUPAC_SYSTEMATIC_NAME>
N-[(2S)-1-[4-[3-(3-azanylpropylamino)propylamino]butylamino]-3-(4-hydroxyphenyl)-1-oxidanylidene-propan-2-yl]butanamide

> <PUBCHEM_IUPAC_TRADITIONAL_NAME>
N-[(1S)-2-[4-[3-(3-aminopropylamino)propylamino]butylamino]-1-(4-hydroxybenzyl)-2-keto-ethyl]butyramide

> <PUBCHEM_IUPAC_INCHI>
InChI=1S/C23H41N5O3/c1-2-7-22(30)28-21(18-19-8-10-20(29)11-9-19)23(31)27-17-4-3-13-25-15-6-16-26-14-5-12-24/h8-11,21,25-26,29H,2-7,12-18,24H2,1H3,(H,27,31)(H,28,30)/t21-/m0/s1

> <PUBCHEM_IUPAC_INCHIKEY>
VRQNABCCOFCGJL-NRFANRHFSA-N

> <PUBCHEM_XLOGP3_AA>
1

> <PUBCHEM_EXACT_MASS>
435.32094

> <PUBCHEM_MOLECULAR_FORMULA>
C23H41N5O3

> <PUBCHEM_MOLECULAR_WEIGHT>
435.60334

> <PUBCHEM_OPENEYE_CAN_SMILES>
CCCC(=O)NC(CC1=CC=C(C=C1)O)C(=O)NCCCCNCCCNCCCN

> <PUBCHEM_OPENEYE_ISO_SMILES>
CCCC(=O)N[C@@H](CC1=CC=C(C=C1)O)C(=O)NCCCCNCCCNCCCN

> <PUBCHEM_CACTVS_TPSA>
129

> <PUBCHEM_MONOISOTOPIC_WEIGHT>
435.32094

> <PUBCHEM_TOTAL_CHARGE>
0

> <PUBCHEM_HEAVY_ATOM_COUNT>
31

> <PUBCHEM_ATOM_DEF_STEREO_COUNT>
1

> <PUBCHEM_ATOM_UDEF_STEREO_COUNT>
0

> <PUBCHEM_BOND_DEF_STEREO_COUNT>
0

> <PUBCHEM_BOND_UDEF_STEREO_COUNT>
0

> <PUBCHEM_ISOTOPIC_ATOM_COUNT>
0

> <PUBCHEM_COMPONENT_COUNT>
1

> <PUBCHEM_CACTVS_TAUTO_COUNT>
8

> <PUBCHEM_COORDINATE_TYPE>
1
5
255

> <PUBCHEM_BONDANNOTATIONS>
19  24  8
19  25  8
24  28  8
25  29  8
28  30  8
29  30  8
11  6  5

$$$$

