15713577
  -OEChem-07051213082D

124128  0     1  0  0  0  0  0999 V2000
   14.9334    0.8831    0.0000 O   0  0  0  0  0  0  0  0  0  0  0  0
   13.2583    1.9709    0.0000 O   0  0  0  0  0  0  0  0  0  0  0  0
   12.3923    2.4709    0.0000 O   0  0  0  0  0  0  0  0  0  0  0  0
   15.4904   -1.5679    0.0000 O   0  0  0  0  0  0  0  0  0  0  0  0
    5.4641    2.4709    0.0000 O   0  0  0  0  0  0  0  0  0  0  0  0
   15.1244   -3.9340    0.0000 O   0  0  0  0  0  0  0  0  0  0  0  0
   15.8564    1.4709    0.0000 O   0  0  0  0  0  0  0  0  0  0  0  0
    8.0622    3.9709    0.0000 O   0  0  0  0  0  0  0  0  0  0  0  0
    9.7942    3.9709    0.0000 O   0  0  0  0  0  0  0  0  0  0  0  0
    2.8660    0.9709    0.0000 O   0  0  0  0  0  0  0  0  0  0  0  0
    4.5981    0.9709    0.0000 O   0  0  0  0  0  0  0  0  0  0  0  0
   14.6244   -0.0679    0.0000 C   0  0  2  0  0  0  0  0  0  0  0  0
   14.1244    1.4709    0.0000 C   0  0  2  0  0  0  0  0  0  0  0  0
   13.2583    2.9709    0.0000 C   0  0  2  0  0  0  0  0  0  0  0  0
   14.6244   -1.0679    0.0000 C   0  0  1  0  0  0  0  0  0  0  0  0
   13.6244   -0.0679    0.0000 C   0  0  0  0  0  0  0  0  0  0  0  0
   13.2583    3.9709    0.0000 C   0  0  1  0  0  0  0  0  0  0  0  0
   13.3153    0.8831    0.0000 C   0  0  0  0  0  0  0  0  0  0  0  0
   11.5263    2.9709    0.0000 C   0  0  1  0  0  0  0  0  0  0  0  0
   11.5263    3.9709    0.0000 C   0  0  2  0  0  0  0  0  0  0  0  0
   12.3923    4.4709    0.0000 C   0  0  0  0  0  0  0  0  0  0  0  0
   13.7583   -1.5679    0.0000 C   0  0  0  0  0  0  0  0  0  0  0  0
   10.6603    2.4709    0.0000 C   0  0  2  0  0  0  0  0  0  0  0  0
   14.6244   -3.0679    0.0000 C   0  0  2  0  0  0  0  0  0  0  0  0
   13.7583   -2.5679    0.0000 C   0  0  0  0  0  0  0  0  0  0  0  0
   15.4904   -2.5679    0.0000 C   0  0  2  0  0  0  0  0  0  0  0  0
   15.5754   -0.3770    0.0000 C   0  0  0  0  0  0  0  0  0  0  0  0
    6.3301    2.9709    0.0000 C   0  0  1  0  0  0  0  0  0  0  0  0
   14.9904    1.9709    0.0000 C   0  0  0  0  0  0  0  0  0  0  0  0
   14.1244    3.4709    0.0000 C   0  0  0  0  0  0  0  0  0  0  0  0
    7.1962    2.4709    0.0000 C   0  0  2  0  0  0  0  0  0  0  0  0
    6.3301    3.9709    0.0000 C   0  0  2  0  0  0  0  0  0  0  0  0
    4.5981    3.9709    0.0000 C   0  0  2  0  0  0  0  0  0  0  0  0
    8.0622    2.9709    0.0000 C   0  0  1  0  0  0  0  0  0  0  0  0
    8.9282    2.4709    0.0000 C   0  0  1  0  0  0  0  0  0  0  0  0
   14.1244    4.4709    0.0000 C   0  0  0  0  0  0  0  0  0  0  0  0
    4.5981    2.9709    0.0000 C   0  0  2  0  0  0  0  0  0  0  0  0
    5.4641    4.4709    0.0000 C   0  0  0  0  0  0  0  0  0  0  0  0
    9.7942    2.9709    0.0000 C   0  0  0  0  0  0  0  0  0  0  0  0
   10.6603    4.4709    0.0000 C   0  0  0  0  0  0  0  0  0  0  0  0
   14.9904    2.9709    0.0000 C   0  0  0  0  0  0  0  0  0  0  0  0
   10.6603    1.4709    0.0000 C   0  0  0  0  0  0  0  0  0  0  0  0
   14.1244   -3.9340    0.0000 C   0  0  0  0  0  0  0  0  0  0  0  0
    3.7320    2.4709    0.0000 C   0  0  1  0  0  0  0  0  0  0  0  0
   16.3564   -3.0679    0.0000 C   0  0  0  0  0  0  0  0  0  0  0  0
    7.1962    1.4709    0.0000 C   0  0  0  0  0  0  0  0  0  0  0  0
    7.1962    4.4709    0.0000 C   0  0  0  0  0  0  0  0  0  0  0  0
    3.7320    4.4709    0.0000 C   0  0  0  0  0  0  0  0  0  0  0  0
    8.9282    1.4709    0.0000 C   0  0  0  0  0  0  0  0  0  0  0  0
    9.7942    0.9709    0.0000 C   0  0  0  0  0  0  0  0  0  0  0  0
   13.1244   -3.9340    0.0000 C   0  0  0  0  0  0  0  0  0  0  0  0
    2.8660    2.9709    0.0000 C   0  0  0  0  0  0  0  0  0  0  0  0
    3.7320    1.4709    0.0000 C   0  0  0  0  0  0  0  0  0  0  0  0
    2.0000    2.4709    0.0000 C   0  0  0  0  0  0  0  0  0  0  0  0
   13.8882   -0.6429    0.0000 H   0  0  0  0  0  0  0  0  0  0  0  0
   13.0179   -0.1968    0.0000 H   0  0  0  0  0  0  0  0  0  0  0  0
   13.6892   -0.6845    0.0000 H   0  0  0  0  0  0  0  0  0  0  0  0
   13.7953    3.6609    0.0000 H   0  0  0  0  0  0  0  0  0  0  0  0
   13.0053    1.4200    0.0000 H   0  0  0  0  0  0  0  0  0  0  0  0
   12.7489    0.6309    0.0000 H   0  0  0  0  0  0  0  0  0  0  0  0
   11.5263    2.1209    0.0000 H   0  0  0  0  0  0  0  0  0  0  0  0
   10.9893    3.6609    0.0000 H   0  0  0  0  0  0  0  0  0  0  0  0
   12.7908    4.9458    0.0000 H   0  0  0  0  0  0  0  0  0  0  0  0
   11.9938    4.9458    0.0000 H   0  0  0  0  0  0  0  0  0  0  0  0
   13.5463   -0.9853    0.0000 H   0  0  0  0  0  0  0  0  0  0  0  0
   13.1477   -1.6756    0.0000 H   0  0  0  0  0  0  0  0  0  0  0  0
   11.1972    2.1609    0.0000 H   0  0  0  0  0  0  0  0  0  0  0  0
   13.1477   -2.4603    0.0000 H   0  0  0  0  0  0  0  0  0  0  0  0
   13.5463   -3.1506    0.0000 H   0  0  0  0  0  0  0  0  0  0  0  0
   16.0273   -2.2579    0.0000 H   0  0  0  0  0  0  0  0  0  0  0  0
   15.3838   -0.9666    0.0000 H   0  0  0  0  0  0  0  0  0  0  0  0
   16.1651   -0.5685    0.0000 H   0  0  0  0  0  0  0  0  0  0  0  0
   15.7670    0.2127    0.0000 H   0  0  0  0  0  0  0  0  0  0  0  0
    6.3301    2.1209    0.0000 H   0  0  0  0  0  0  0  0  0  0  0  0
   14.1244    4.0909    0.0000 H   0  0  0  0  0  0  0  0  0  0  0  0
    6.6592    2.1609    0.0000 H   0  0  0  0  0  0  0  0  0  0  0  0
    6.8671    3.6609    0.0000 H   0  0  0  0  0  0  0  0  0  0  0  0
    4.5981    4.5909    0.0000 H   0  0  0  0  0  0  0  0  0  0  0  0
    7.5252    3.2809    0.0000 H   0  0  0  0  0  0  0  0  0  0  0  0
    9.4651    2.1609    0.0000 H   0  0  0  0  0  0  0  0  0  0  0  0
   14.4344    3.9340    0.0000 H   0  0  0  0  0  0  0  0  0  0  0  0
   14.6613    4.7809    0.0000 H   0  0  0  0  0  0  0  0  0  0  0  0
   13.8144    5.0078    0.0000 H   0  0  0  0  0  0  0  0  0  0  0  0
    4.5981    2.1209    0.0000 H   0  0  0  0  0  0  0  0  0  0  0  0
    5.8626    4.9458    0.0000 H   0  0  0  0  0  0  0  0  0  0  0  0
    5.0656    4.9458    0.0000 H   0  0  0  0  0  0  0  0  0  0  0  0
   10.9703    5.0078    0.0000 H   0  0  0  0  0  0  0  0  0  0  0  0
   10.1233    4.7809    0.0000 H   0  0  0  0  0  0  0  0  0  0  0  0
   10.3503    3.9340    0.0000 H   0  0  0  0  0  0  0  0  0  0  0  0
   15.5273    3.2809    0.0000 H   0  0  0  0  0  0  0  0  0  0  0  0
   10.8723    0.8883    0.0000 H   0  0  0  0  0  0  0  0  0  0  0  0
   11.2708    1.5786    0.0000 H   0  0  0  0  0  0  0  0  0  0  0  0
   14.0167   -4.5446    0.0000 H   0  0  0  0  0  0  0  0  0  0  0  0
   14.7070   -4.1460    0.0000 H   0  0  0  0  0  0  0  0  0  0  0  0
    3.7320    3.0909    0.0000 H   0  0  0  0  0  0  0  0  0  0  0  0
   16.0464   -3.6049    0.0000 H   0  0  0  0  0  0  0  0  0  0  0  0
   16.8933   -3.3779    0.0000 H   0  0  0  0  0  0  0  0  0  0  0  0
   16.6664   -2.5310    0.0000 H   0  0  0  0  0  0  0  0  0  0  0  0
    6.5762    1.4709    0.0000 H   0  0  0  0  0  0  0  0  0  0  0  0
    7.1962    0.8509    0.0000 H   0  0  0  0  0  0  0  0  0  0  0  0
    7.8162    1.4709    0.0000 H   0  0  0  0  0  0  0  0  0  0  0  0
    7.5062    3.9340    0.0000 H   0  0  0  0  0  0  0  0  0  0  0  0
    7.7331    4.7809    0.0000 H   0  0  0  0  0  0  0  0  0  0  0  0
    6.8862    5.0078    0.0000 H   0  0  0  0  0  0  0  0  0  0  0  0
    4.0420    5.0078    0.0000 H   0  0  0  0  0  0  0  0  0  0  0  0
    3.1951    4.7809    0.0000 H   0  0  0  0  0  0  0  0  0  0  0  0
    3.4220    3.9340    0.0000 H   0  0  0  0  0  0  0  0  0  0  0  0
   14.8144   -4.4709    0.0000 H   0  0  0  0  0  0  0  0  0  0  0  0
    8.3082    1.4709    0.0000 H   0  0  0  0  0  0  0  0  0  0  0  0
    8.9282    0.8509    0.0000 H   0  0  0  0  0  0  0  0  0  0  0  0
    9.5482    1.4709    0.0000 H   0  0  0  0  0  0  0  0  0  0  0  0
    9.4842    1.5078    0.0000 H   0  0  0  0  0  0  0  0  0  0  0  0
    9.2573    0.6609    0.0000 H   0  0  0  0  0  0  0  0  0  0  0  0
   10.1042    0.4340    0.0000 H   0  0  0  0  0  0  0  0  0  0  0  0
   13.1244   -3.3140    0.0000 H   0  0  0  0  0  0  0  0  0  0  0  0
   12.5044   -3.9340    0.0000 H   0  0  0  0  0  0  0  0  0  0  0  0
   13.1244   -4.5540    0.0000 H   0  0  0  0  0  0  0  0  0  0  0  0
    3.2646    3.4458    0.0000 H   0  0  0  0  0  0  0  0  0  0  0  0
    2.4675    3.4458    0.0000 H   0  0  0  0  0  0  0  0  0  0  0  0
    8.5991    4.2809    0.0000 H   0  0  0  0  0  0  0  0  0  0  0  0
    1.6900    3.0078    0.0000 H   0  0  0  0  0  0  0  0  0  0  0  0
    1.4631    2.1609    0.0000 H   0  0  0  0  0  0  0  0  0  0  0  0
    2.3100    1.9340    0.0000 H   0  0  0  0  0  0  0  0  0  0  0  0
    2.8660    0.3509    0.0000 H   0  0  0  0  0  0  0  0  0  0  0  0
  1 12  1  0  0  0  0
 13  1  1  1  0  0  0
  2 13  1  0  0  0  0
  2 14  1  0  0  0  0
 14  3  1  1  0  0  0
  3 19  1  0  0  0  0
  4 15  1  0  0  0  0
  4 26  1  0  0  0  0
  5 28  1  0  0  0  0
  5 37  1  0  0  0  0
 24  6  1  6  0  0  0
  6108  1  0  0  0  0
  7 29  2  0  0  0  0
 34  8  1  6  0  0  0
  8120  1  0  0  0  0
  9 39  2  0  0  0  0
 10 53  1  0  0  0  0
 10124  1  0  0  0  0
 11 53  2  0  0  0  0
 12 15  1  0  0  0  0
 12 16  1  0  0  0  0
 12 27  1  1  0  0  0
 13 18  1  0  0  0  0
 13 29  1  0  0  0  0
 14 17  1  0  0  0  0
 14 30  1  0  0  0  0
 15 22  1  0  0  0  0
 15 55  1  1  0  0  0
 16 18  1  0  0  0  0
 16 56  1  0  0  0  0
 16 57  1  0  0  0  0
 17 21  1  0  0  0  0
 17 36  1  1  0  0  0
 17 58  1  0  0  0  0
 18 59  1  0  0  0  0
 18 60  1  0  0  0  0
 19 20  1  0  0  0  0
 19 23  1  0  0  0  0
 19 61  1  1  0  0  0
 20 21  1  0  0  0  0
 20 40  1  1  0  0  0
 20 62  1  0  0  0  0
 21 63  1  0  0  0  0
 21 64  1  0  0  0  0
 22 25  1  0  0  0  0
 22 65  1  0  0  0  0
 22 66  1  0  0  0  0
 23 39  1  6  0  0  0
 23 42  1  0  0  0  0
 23 67  1  0  0  0  0
 24 25  1  0  0  0  0
 24 26  1  0  0  0  0
 24 43  1  0  0  0  0
 25 68  1  0  0  0  0
 25 69  1  0  0  0  0
 26 45  1  1  0  0  0
 26 70  1  0  0  0  0
 27 71  1  0  0  0  0
 27 72  1  0  0  0  0
 27 73  1  0  0  0  0
 28 31  1  0  0  0  0
 28 32  1  0  0  0  0
 28 74  1  1  0  0  0
 29 41  1  0  0  0  0
 30 41  2  0  0  0  0
 30 75  1  0  0  0  0
 31 34  1  0  0  0  0
 31 46  1  6  0  0  0
 31 76  1  0  0  0  0
 32 38  1  0  0  0  0
 32 47  1  6  0  0  0
 32 77  1  0  0  0  0
 33 37  1  0  0  0  0
 33 38  1  0  0  0  0
 33 48  1  1  0  0  0
 33 78  1  0  0  0  0
 34 35  1  0  0  0  0
 34 79  1  0  0  0  0
 35 39  1  0  0  0  0
 35 49  1  1  0  0  0
 35 80  1  0  0  0  0
 36 81  1  0  0  0  0
 36 82  1  0  0  0  0
 36 83  1  0  0  0  0
 37 44  1  0  0  0  0
 37 84  1  6  0  0  0
 38 85  1  0  0  0  0
 38 86  1  0  0  0  0
 40 87  1  0  0  0  0
 40 88  1  0  0  0  0
 40 89  1  0  0  0  0
 41 90  1  0  0  0  0
 42 50  1  0  0  0  0
 42 91  1  0  0  0  0
 42 92  1  0  0  0  0
 43 51  1  0  0  0  0
 43 93  1  0  0  0  0
 43 94  1  0  0  0  0
 44 52  1  6  0  0  0
 44 53  1  0  0  0  0
 44 95  1  0  0  0  0
 45 96  1  0  0  0  0
 45 97  1  0  0  0  0
 45 98  1  0  0  0  0
 46 99  1  0  0  0  0
 46100  1  0  0  0  0
 46101  1  0  0  0  0
 47102  1  0  0  0  0
 47103  1  0  0  0  0
 47104  1  0  0  0  0
 48105  1  0  0  0  0
 48106  1  0  0  0  0
 48107  1  0  0  0  0
 49109  1  0  0  0  0
 49110  1  0  0  0  0
 49111  1  0  0  0  0
 50112  1  0  0  0  0
 50113  1  0  0  0  0
 50114  1  0  0  0  0
 51115  1  0  0  0  0
 51116  1  0  0  0  0
 51117  1  0  0  0  0
 52 54  1  0  0  0  0
 52118  1  0  0  0  0
 52119  1  0  0  0  0
 54121  1  0  0  0  0
 54122  1  0  0  0  0
 54123  1  0  0  0  0
M  END
> <PUBCHEM_COMPOUND_CID>
15713577

> <PUBCHEM_COMPOUND_CANONICALIZED>
1

> <PUBCHEM_CACTVS_COMPLEXITY>
1400

> <PUBCHEM_CACTVS_HBOND_ACCEPTOR>
11

> <PUBCHEM_CACTVS_HBOND_DONOR>
3

> <PUBCHEM_CACTVS_ROTATABLE_BOND>
12

> <PUBCHEM_CACTVS_SUBSKEYS>
AAADcfB8PAAAAAAAAAAAAAAAAAAAASAAAAAkSJEAAAAAAAAAAAAAGgAACAAADVSggAICCAAABgCIAKDSCAIAAAAgAAAICAFAAEgRFBYAIAQiUAAF4AAPIYPI7PzOAAAAAAAAAAAAAAAAAAAAAAAAAAAAAA==

> <PUBCHEM_IUPAC_OPENEYE_NAME>
(2R)-2-[(2R,3S,5S,6R)-6-[(1S,2S,3S,5R)-5-[(3S,5S,7R,9S,10S,12R)-3-[(2R,5R,6S)-5-ethyl-5-hydroxy-6-methyl-tetrahydropyran-2-yl]-3,10,12-trimethyl-15-oxo-4,6,8-trioxadispiro[4.1.5^{7}.3^{5}]pentadec-13-en-9-yl]-2-hydroxy-1,3-dimethyl-4-oxo-heptyl]-3,5-dimethyl-tetrahydropyran-2-yl]butanoic acid

> <PUBCHEM_IUPAC_CAS_NAME>
(2R)-2-[(2R,3S,5S,6R)-6-[(2S,3S,4S,6R)-6-[(3S,5S,7R,9S,10S,12R)-3-[(2R,5R,6S)-5-ethyl-5-hydroxy-6-methyl-2-oxanyl]-3,10,12-trimethyl-15-oxo-4,6,8-trioxadispiro[4.1.5^{7}.3^{5}]pentadec-13-en-9-yl]-3-hydroxy-4-methyl-5-oxooctan-2-yl]-3,5-dimethyl-2-oxanyl]butanoic acid

> <PUBCHEM_IUPAC_NAME>
(2R)-2-[(2R,3S,5S,6R)-6-[(2S,3S,4S,6R)-6-[(3S,5S,7R,9S,10S,12R)-3-[(2R,5R,6S)-5-ethyl-5-hydroxy-6-methyloxan-2-yl]-3,10,12-trimethyl-15-oxo-4,6,8-trioxadispiro[4.1.5^{7}.3^{5}]pentadec-13-en-9-yl]-3-hydroxy-4-methyl-5-oxooctan-2-yl]-3,5-dimethyloxan-2-yl]butanoic acid

> <PUBCHEM_IUPAC_SYSTEMATIC_NAME>
(2R)-2-[(2R,3S,5S,6R)-6-[(2S,3S,4S,6R)-6-[(3S,5S,7R,9S,10S,12R)-3-[(2R,5R,6S)-5-ethyl-6-methyl-5-oxidanyl-oxan-2-yl]-3,10,12-trimethyl-15-oxidanylidene-4,6,8-trioxadispiro[4.1.5^{7}.3^{5}]pentadec-13-en-9-yl]-4-methyl-3-oxidanyl-5-oxidanylidene-octan-2-yl]-3,5-dimethyl-oxan-2-yl]butanoic acid

> <PUBCHEM_IUPAC_TRADITIONAL_NAME>
(2R)-2-[(2R,3S,5S,6R)-6-[(1S,2S,3S,5R)-5-[(3S,5S,7R,9S,10S,12R)-3-[(2R,5R,6S)-5-ethyl-5-hydroxy-6-methyl-tetrahydropyran-2-yl]-15-keto-3,10,12-trimethyl-4,6,8-trioxadispiro[4.1.5^{7}.3^{5}]pentadec-13-en-9-yl]-2-hydroxy-4-keto-1,3-dimethyl-heptyl]-3,5-dimethyl-tetrahydropyran-2-yl]butyric acid

> <PUBCHEM_IUPAC_INCHI>
InChI=1S/C43H70O11/c1-12-30(35(46)27(8)34(45)28(9)36-23(4)21-24(5)37(51-36)31(13-2)39(47)48)38-25(6)22-26(7)42(52-38)18-15-32(44)43(54-42)20-19-40(11,53-43)33-16-17-41(49,14-3)29(10)50-33/h15,18,23-31,33-34,36-38,45,49H,12-14,16-17,19-22H2,1-11H3,(H,47,48)/t23-,24-,25-,26+,27-,28-,29-,30-,31+,33+,34+,36+,37+,38-,40-,41+,42-,43-/m0/s1

> <PUBCHEM_IUPAC_INCHIKEY>
FBLJTCGAXDPRJH-BEXJWCDGSA-N

> <PUBCHEM_XLOGP3_AA>
6.5

> <PUBCHEM_EXACT_MASS>
762.491813

> <PUBCHEM_MOLECULAR_FORMULA>
C43H70O11

> <PUBCHEM_MOLECULAR_WEIGHT>
763.0093

> <PUBCHEM_OPENEYE_CAN_SMILES>
CCC(C1C(CC(C(O1)C(C)C(C(C)C(=O)C(CC)C2C(CC(C3(O2)C=CC(=O)C4(O3)CCC(O4)(C)C5CCC(C(O5)C)(CC)O)C)C)O)C)C)C(=O)O

> <PUBCHEM_OPENEYE_ISO_SMILES>
CC[C@H]([C@H]1[C@H](C[C@@H]([C@@H](O1)[C@@H](C)[C@@H]([C@H](C)C(=O)[C@H](CC)[C@@H]2[C@H](C[C@H]([C@]3(O2)C=CC(=O)[C@@]4(O3)CC[C@@](O4)(C)[C@H]5CC[C@@]([C@@H](O5)C)(CC)O)C)C)O)C)C)C(=O)O

> <PUBCHEM_CACTVS_TPSA>
158

> <PUBCHEM_MONOISOTOPIC_WEIGHT>
762.491813

> <PUBCHEM_TOTAL_CHARGE>
0

> <PUBCHEM_HEAVY_ATOM_COUNT>
54

> <PUBCHEM_ATOM_DEF_STEREO_COUNT>
18

> <PUBCHEM_ATOM_UDEF_STEREO_COUNT>
0

> <PUBCHEM_BOND_DEF_STEREO_COUNT>
0

> <PUBCHEM_BOND_UDEF_STEREO_COUNT>
0

> <PUBCHEM_ISOTOPIC_ATOM_COUNT>
0

> <PUBCHEM_COMPONENT_COUNT>
1

> <PUBCHEM_CACTVS_TAUTO_COUNT>
3

> <PUBCHEM_COORDINATE_TYPE>
1
5
255

> <PUBCHEM_BONDANNOTATIONS>
13  1  5
12  27  5
15  55  5
17  36  5
19  61  5
20  40  5
23  39  6
26  45  5
28  74  5
14  3  5
31  46  6
32  47  6
33  48  5
35  49  5
37  84  6
44  52  6
24  6  6
34  8  6

$$$$

