   Color/Form
        Clear, colorless liquid
   from [1]HSDB

   Odor
        Distinctive, aromatic odor
   from [2]HSDB

   Boiling Point
        168.89 deg C
   from [3]HSDB

   Melting Point
        -43.77 deg C
   from [4]HSDB

   Critical Temperature and Pressure
        Critical temperature = 376.13 deg C; Critical pressure =
   3.2323X10+6 Pa
   from [5]HSDB

   Density/Specific Gravity
        0.8758 g/cu cm at 20 deg C; 0.8718 g/cu m at 25 deg C
   from [6]HSDB

   Heat of Combustion
        5194.8 kJ/mol at 25 deg C
   from [7]HSDB

   Heat of Vaporization
        39.2 kJ/mol at boiling point
   from [8]HSDB

   Octanol/Water Partition Coefficient
        log Kow = 3.78
   from [9]HSDB

   Solubilities

     * Miscible with ethanol, benzene, ethyl ether, acetone, carbon
       tetrachloride, petroleum ether
     * In water, 57 mg/L at 25 deg C

   from [10]HSDB

   Spectral Properties

     * MAX ABSORPTION (ISOOCTANE): 196 NM (LOG E= 4.71), 204-220 NM (LOG
       E= 3.91)
     * Index of refraction: 1.5048 at 20 deg C/D
     * IR: 8116 (Sadtler Research Laboratories IR Grating Collection)
     * UV: 316 (Sadtler Research Laboratories Spectral Collection)
     * 1H NMR: 3417 (Sadtler Research Laboratories Spectral Collection)
     * 13C NMR: 350 (Johnson and Jankowski, Carbon-13 NMR Spectra, John
       WIley & Sons, New York)
     * MASS: 34893 (NIST/EPA/MSDC Mass Spectral database. 1990 version);
       485 (Atlas of Mass Spectral Data, John Wiley & Sons, New York)

   from [11]HSDB

   Surface Tension
        29.71 dyn/cm at 20 deg C
   from [12]HSDB

   Vapor Density
        4.15 (Air = 1)
   from [13]HSDB

   Vapor Pressure
        2.10 mm Hg at 25 deg C
   from [14]HSDB

   Other Chemical/Physical Properties

     * Specific gravity: 0.8761 at 20 degC/4 deg C
     * Oxidation yields trimellitic anhydride
     * Heat of fusion at melting point= 1.3192X10+7 J/kmol; Liquid Molar
       Volume= 0.137779 cu m/kmol.
     * Heat of formation at 25 deg C = -61.8 kJ/mol; Specific heat at 25
       deg C = 214.9 J/mol-K
     * Henry's Law constant = 6.16X10-3 atm-cu m/mol at 25 deg C
     * Hydroxyl radical reaction rate constant = 3.25X10-11 cu
       cm/molec-sec at 25 deg C

   from [15]HSDB

   Computed Properties
   Molecular Weight                  120.19158 [g/mol]
   Molecular Formula                 C[9]H[12]
   XLogP3-AA                         3
   H-Bond Donor                      0
   H-Bond Acceptor                   0
   Rotatable Bond Count              0
   Exact Mass                        120.0939
   MonoIsotopic Mass                 120.0939
   Topological Polar Surface Area    0
   Heavy Atom Count                  9
   Formal Charge                     0
   Complexity                        86
   Isotope Atom Count                0
   Defined Atom Stereocenter Count   0
   Undefined Atom Stereocenter Count 0
   Defined Bond Stereocenter Count   0
   Undefined Bond Stereocenter Count 0
   Covalently-Bonded Unit Count      1
   Feature 3D Ring Count             1
   Effective Rotor Count             0
   Conformer Sampling RMSD           0.4
   CID Conformer Count               [16]1

References

   1. http://toxnet.nlm.nih.gov/cgi-bin/sis/search/r?dbs+hsdb:@term+@rn+@rel+95-63-6
   2. http://toxnet.nlm.nih.gov/cgi-bin/sis/search/r?dbs+hsdb:@term+@rn+@rel+95-63-6
   3. http://toxnet.nlm.nih.gov/cgi-bin/sis/search/r?dbs+hsdb:@term+@rn+@rel+95-63-6
   4. http://toxnet.nlm.nih.gov/cgi-bin/sis/search/r?dbs+hsdb:@term+@rn+@rel+95-63-6
   5. http://toxnet.nlm.nih.gov/cgi-bin/sis/search/r?dbs+hsdb:@term+@rn+@rel+95-63-6
   6. http://toxnet.nlm.nih.gov/cgi-bin/sis/search/r?dbs+hsdb:@term+@rn+@rel+95-63-6
   7. http://toxnet.nlm.nih.gov/cgi-bin/sis/search/r?dbs+hsdb:@term+@rn+@rel+95-63-6
   8. http://toxnet.nlm.nih.gov/cgi-bin/sis/search/r?dbs+hsdb:@term+@rn+@rel+95-63-6
   9. http://toxnet.nlm.nih.gov/cgi-bin/sis/search/r?dbs+hsdb:@term+@rn+@rel+95-63-6
  10. http://toxnet.nlm.nih.gov/cgi-bin/sis/search/r?dbs+hsdb:@term+@rn+@rel+95-63-6
  11. http://toxnet.nlm.nih.gov/cgi-bin/sis/search/r?dbs+hsdb:@term+@rn+@rel+95-63-6
  12. http://toxnet.nlm.nih.gov/cgi-bin/sis/search/r?dbs+hsdb:@term+@rn+@rel+95-63-6
  13. http://toxnet.nlm.nih.gov/cgi-bin/sis/search/r?dbs+hsdb:@term+@rn+@rel+95-63-6
  14. http://toxnet.nlm.nih.gov/cgi-bin/sis/search/r?dbs+hsdb:@term+@rn+@rel+95-63-6
  15. http://toxnet.nlm.nih.gov/cgi-bin/sis/search/r?dbs+hsdb:@term+@rn+@rel+95-63-6
  16. http://pubchem.ncbi.nlm.nih.gov/vw3d/vw3d.cgi?cid=7247
