5281323
  -OEChem-07051212562D

 88 91  0     1  0  0  0  0  0999 V2000
   10.4586   -1.2518    0.0000 O   0  0  0  0  0  0  0  0  0  0  0  0
    5.3307   -0.2518    0.0000 O   0  0  0  0  0  0  0  0  0  0  0  0
   10.1362    0.1928    0.0000 O   0  0  0  0  0  0  0  0  0  0  0  0
    2.5519   -1.7126    0.0000 O   0  0  0  0  0  0  0  0  0  0  0  0
    2.5357   -3.8042    0.0000 O   0  0  0  0  0  0  0  0  0  0  0  0
    8.8285    2.1982    0.0000 O   0  0  0  0  0  0  0  0  0  0  0  0
   12.7425    3.0231    0.0000 O   0  0  0  0  0  0  0  0  0  0  0  0
   12.3854    4.7179    0.0000 O   0  0  0  0  0  0  0  0  0  0  0  0
    7.9288   -1.7518    0.0000 C   0  0  2  0  0  0  0  0  0  0  0  0
    7.9288   -0.7518    0.0000 C   0  0  1  0  0  0  0  0  0  0  0  0
    7.0628   -2.2518    0.0000 C   0  0  1  0  0  0  0  0  0  0  0  0
    6.1968   -1.7518    0.0000 C   0  0  2  0  0  0  0  0  0  0  0  0
    8.8750   -0.4471    0.0000 C   0  0  2  0  0  0  0  0  0  0  0  0
    8.8750   -2.0566    0.0000 C   0  0  0  0  0  0  0  0  0  0  0  0
    7.0628   -0.2518    0.0000 C   0  0  0  0  0  0  0  0  0  0  0  0
    9.4586   -1.2518    0.0000 C   0  0  1  0  0  0  0  0  0  0  0  0
    5.2868   -2.2587    0.0000 C   0  0  1  0  0  0  0  0  0  0  0  0
    6.1968   -0.7518    0.0000 C   0  0  0  0  0  0  0  0  0  0  0  0
    7.0789   -3.2933    0.0000 C   0  0  0  0  0  0  0  0  0  0  0  0
    7.9288   -2.7518    0.0000 C   0  0  0  0  0  0  0  0  0  0  0  0
    7.9288    0.2482    0.0000 C   0  0  0  0  0  0  0  0  0  0  0  0
    9.1857    0.5034    0.0000 C   0  0  1  0  0  0  0  0  0  0  0  0
    5.2787   -3.3003    0.0000 C   0  0  0  0  0  0  0  0  0  0  0  0
    5.3307   -1.2518    0.0000 C   0  0  0  0  0  0  0  0  0  0  0  0
    4.3599   -1.6946    0.0000 C   0  0  0  0  0  0  0  0  0  0  0  0
    6.1808   -3.8211    0.0000 C   0  0  0  0  0  0  0  0  0  0  0  0
    4.3433   -3.8500    0.0000 C   0  0  0  0  0  0  0  0  0  0  0  0
    3.4120   -2.2225    0.0000 C   0  0  2  0  0  0  0  0  0  0  0  0
    3.4037   -3.3075    0.0000 C   0  0  1  0  0  0  0  0  0  0  0  0
    8.2352    0.8141    0.0000 C   0  0  0  0  0  0  0  0  0  0  0  0
    9.4964    1.4540    0.0000 C   0  0  0  0  0  0  0  0  0  0  0  0
    3.8467   -4.7179    0.0000 C   0  0  0  0  0  0  0  0  0  0  0  0
    4.8466   -4.7141    0.0000 C   0  0  0  0  0  0  0  0  0  0  0  0
   10.4749    1.6602    0.0000 C   0  0  0  0  0  0  0  0  0  0  0  0
   10.7855    2.6107    0.0000 C   0  0  0  0  0  0  0  0  0  0  0  0
   11.7640    2.8169    0.0000 C   0  0  0  0  0  0  0  0  0  0  0  0
   11.5578    3.7954    0.0000 C   0  0  0  0  0  0  0  0  0  0  0  0
   11.9703    1.8384    0.0000 C   0  0  0  0  0  0  0  0  0  0  0  0
   13.0532    3.9736    0.0000 C   0  0  0  0  0  0  0  0  0  0  0  0
   14.0317    4.1799    0.0000 C   0  0  0  0  0  0  0  0  0  0  0  0
    7.8022   -2.6711    0.0000 H   0  0  0  0  0  0  0  0  0  0  0  0
    9.7148   -0.3152    0.0000 H   0  0  0  0  0  0  0  0  0  0  0  0
    8.6240   -2.6235    0.0000 H   0  0  0  0  0  0  0  0  0  0  0  0
    9.4124   -2.3658    0.0000 H   0  0  0  0  0  0  0  0  0  0  0  0
    7.4613    0.2231    0.0000 H   0  0  0  0  0  0  0  0  0  0  0  0
    6.6643    0.2231    0.0000 H   0  0  0  0  0  0  0  0  0  0  0  0
    9.7404   -1.8041    0.0000 H   0  0  0  0  0  0  0  0  0  0  0  0
    5.3031   -1.4088    0.0000 H   0  0  0  0  0  0  0  0  0  0  0  0
    7.2969   -3.8737    0.0000 H   0  0  0  0  0  0  0  0  0  0  0  0
    7.6880   -3.1778    0.0000 H   0  0  0  0  0  0  0  0  0  0  0  0
    7.3088   -2.7518    0.0000 H   0  0  0  0  0  0  0  0  0  0  0  0
    7.9288   -3.3718    0.0000 H   0  0  0  0  0  0  0  0  0  0  0  0
    8.5488   -2.7518    0.0000 H   0  0  0  0  0  0  0  0  0  0  0  0
    8.5488    0.2482    0.0000 H   0  0  0  0  0  0  0  0  0  0  0  0
    7.9288    0.8682    0.0000 H   0  0  0  0  0  0  0  0  0  0  0  0
    7.3088    0.2482    0.0000 H   0  0  0  0  0  0  0  0  0  0  0  0
    5.6407   -0.7149    0.0000 H   0  0  0  0  0  0  0  0  0  0  0  0
    4.7938   -0.9418    0.0000 H   0  0  0  0  0  0  0  0  0  0  0  0
    5.0207   -1.7888    0.0000 H   0  0  0  0  0  0  0  0  0  0  0  0
    4.7681   -1.2279    0.0000 H   0  0  0  0  0  0  0  0  0  0  0  0
    3.9700   -1.2126    0.0000 H   0  0  0  0  0  0  0  0  0  0  0  0
    6.1832   -4.4411    0.0000 H   0  0  0  0  0  0  0  0  0  0  0  0
    2.8722   -2.5274    0.0000 H   0  0  0  0  0  0  0  0  0  0  0  0
    3.4025   -3.9275    0.0000 H   0  0  0  0  0  0  0  0  0  0  0  0
   10.7687   -1.7888    0.0000 H   0  0  0  0  0  0  0  0  0  0  0  0
    8.4278    1.4034    0.0000 H   0  0  0  0  0  0  0  0  0  0  0  0
    7.6459    1.0067    0.0000 H   0  0  0  0  0  0  0  0  0  0  0  0
    8.0426    0.2248    0.0000 H   0  0  0  0  0  0  0  0  0  0  0  0
    3.3085   -4.4100    0.0000 H   0  0  0  0  0  0  0  0  0  0  0  0
    3.5387   -5.2561    0.0000 H   0  0  0  0  0  0  0  0  0  0  0  0
    4.3848   -5.0259    0.0000 H   0  0  0  0  0  0  0  0  0  0  0  0
    4.3109   -5.0262    0.0000 H   0  0  0  0  0  0  0  0  0  0  0  0
    5.1587   -5.2498    0.0000 H   0  0  0  0  0  0  0  0  0  0  0  0
    5.3824   -4.4020    0.0000 H   0  0  0  0  0  0  0  0  0  0  0  0
   10.5977    0.6068    0.0000 H   0  0  0  0  0  0  0  0  0  0  0  0
    2.5590   -1.0926    0.0000 H   0  0  0  0  0  0  0  0  0  0  0  0
    2.0000   -3.4921    0.0000 H   0  0  0  0  0  0  0  0  0  0  0  0
   10.8889    1.1987    0.0000 H   0  0  0  0  0  0  0  0  0  0  0  0
   10.3715    3.0722    0.0000 H   0  0  0  0  0  0  0  0  0  0  0  0
   12.1645    3.9233    0.0000 H   0  0  0  0  0  0  0  0  0  0  0  0
   11.4300    4.4021    0.0000 H   0  0  0  0  0  0  0  0  0  0  0  0
   10.9511    3.6676    0.0000 H   0  0  0  0  0  0  0  0  0  0  0  0
   11.3636    1.7105    0.0000 H   0  0  0  0  0  0  0  0  0  0  0  0
   12.0981    1.2317    0.0000 H   0  0  0  0  0  0  0  0  0  0  0  0
   12.5769    1.9662    0.0000 H   0  0  0  0  0  0  0  0  0  0  0  0
   14.1596    3.5732    0.0000 H   0  0  0  0  0  0  0  0  0  0  0  0
   14.6384    4.3077    0.0000 H   0  0  0  0  0  0  0  0  0  0  0  0
   13.9039    4.7865    0.0000 H   0  0  0  0  0  0  0  0  0  0  0  0
 16  1  1  6  0  0  0
  1 65  1  0  0  0  0
  2 18  2  0  0  0  0
 22  3  1  1  0  0  0
  3 75  1  0  0  0  0
 28  4  1  6  0  0  0
  4 76  1  0  0  0  0
 29  5  1  6  0  0  0
  5 77  1  0  0  0  0
  6 31  2  0  0  0  0
  7 36  1  0  0  0  0
  7 39  1  0  0  0  0
  8 39  2  0  0  0  0
  9 10  1  0  0  0  0
  9 11  1  0  0  0  0
  9 14  1  0  0  0  0
  9 20  1  6  0  0  0
 10 13  1  0  0  0  0
 10 15  1  0  0  0  0
 10 21  1  1  0  0  0
 11 12  1  0  0  0  0
 11 19  1  0  0  0  0
 11 41  1  1  0  0  0
 12 17  1  0  0  0  0
 12 18  1  0  0  0  0
 12 24  1  1  0  0  0
 13 16  1  0  0  0  0
 13 22  1  0  0  0  0
 13 42  1  6  0  0  0
 14 16  1  0  0  0  0
 14 43  1  0  0  0  0
 14 44  1  0  0  0  0
 15 18  1  0  0  0  0
 15 45  1  0  0  0  0
 15 46  1  0  0  0  0
 16 47  1  0  0  0  0
 17 23  1  0  0  0  0
 17 25  1  0  0  0  0
 17 48  1  6  0  0  0
 19 26  1  0  0  0  0
 19 49  1  0  0  0  0
 19 50  1  0  0  0  0
 20 51  1  0  0  0  0
 20 52  1  0  0  0  0
 20 53  1  0  0  0  0
 21 54  1  0  0  0  0
 21 55  1  0  0  0  0
 21 56  1  0  0  0  0
 22 30  1  0  0  0  0
 22 31  1  0  0  0  0
 23 26  2  0  0  0  0
 23 27  1  0  0  0  0
 24 57  1  0  0  0  0
 24 58  1  0  0  0  0
 24 59  1  0  0  0  0
 25 28  1  0  0  0  0
 25 60  1  0  0  0  0
 25 61  1  0  0  0  0
 26 62  1  0  0  0  0
 27 29  1  0  0  0  0
 27 32  1  0  0  0  0
 27 33  1  0  0  0  0
 28 29  1  0  0  0  0
 28 63  1  0  0  0  0
 29 64  1  0  0  0  0
 30 66  1  0  0  0  0
 30 67  1  0  0  0  0
 30 68  1  0  0  0  0
 31 34  1  0  0  0  0
 32 69  1  0  0  0  0
 32 70  1  0  0  0  0
 32 71  1  0  0  0  0
 33 72  1  0  0  0  0
 33 73  1  0  0  0  0
 33 74  1  0  0  0  0
 34 35  2  0  0  0  0
 34 78  1  0  0  0  0
 35 36  1  0  0  0  0
 35 79  1  0  0  0  0
 36 37  1  0  0  0  0
 36 38  1  0  0  0  0
 37 80  1  0  0  0  0
 37 81  1  0  0  0  0
 37 82  1  0  0  0  0
 38 83  1  0  0  0  0
 38 84  1  0  0  0  0
 38 85  1  0  0  0  0
 39 40  1  0  0  0  0
 40 86  1  0  0  0  0
 40 87  1  0  0  0  0
 40 88  1  0  0  0  0
M  END
> <PUBCHEM_COMPOUND_CID>
5281323

> <PUBCHEM_COMPOUND_CANONICALIZED>
1

> <PUBCHEM_CACTVS_COMPLEXITY>
1170

> <PUBCHEM_CACTVS_HBOND_ACCEPTOR>
8

> <PUBCHEM_CACTVS_HBOND_DONOR>
4

> <PUBCHEM_CACTVS_ROTATABLE_BOND>
6

> <PUBCHEM_CACTVS_SUBSKEYS>
AAADcfB8PAAAAAAAAAAAAAAAAAAAAYAAAAAwYIAAAAAAAGCAAAAAGgAACAAAD1SggAICCAAABgCIAqDSCAIAAAAgAAAICAFAAEgBFBIAIQACUAAFwAAJIYOKzPDPgAAAAAAAAADAAAYAADCAAYAADAAAAA==

> <PUBCHEM_IUPAC_OPENEYE_NAME>
[(E,5R)-5-hydroxy-1,1-dimethyl-4-oxo-5-[(2R,3S,8S,9R,10R,13R,14S,16R,17R)-2,3,16-trihydroxy-4,4,9,13,14-pentamethyl-11-oxo-1,2,3,7,8,10,12,15,16,17-decahydrocyclopenta[a]phenanthren-17-yl]hex-2-enyl] acetate

> <PUBCHEM_IUPAC_CAS_NAME>
acetic acid [(E,6R)-6-hydroxy-2-methyl-5-oxo-6-[(2R,3S,8S,9R,10R,13R,14S,16R,17R)-2,3,16-trihydroxy-4,4,9,13,14-pentamethyl-11-oxo-1,2,3,7,8,10,12,15,16,17-decahydrocyclopenta[a]phenanthren-17-yl]hept-3-en-2-yl] ester

> <PUBCHEM_IUPAC_NAME>
[(E,6R)-6-hydroxy-2-methyl-5-oxo-6-[(2R,3S,8S,9R,10R,13R,14S,16R,17R)-2,3,16-trihydroxy-4,4,9,13,14-pentamethyl-11-oxo-1,2,3,7,8,10,12,15,16,17-decahydrocyclopenta[a]phenanthren-17-yl]hept-3-en-2-yl] acetate

> <PUBCHEM_IUPAC_SYSTEMATIC_NAME>
[(E,6R)-2-methyl-6-oxidanyl-5-oxidanylidene-6-[(2R,3S,8S,9R,10R,13R,14S,16R,17R)-4,4,9,13,14-pentamethyl-2,3,16-tris(oxidanyl)-11-oxidanylidene-1,2,3,7,8,10,12,15,16,17-decahydrocyclopenta[a]phenanthren-17-yl]hept-3-en-2-yl] ethanoate

> <PUBCHEM_IUPAC_TRADITIONAL_NAME>
acetic acid [(E,5R)-5-hydroxy-4-keto-1,1-dimethyl-5-[(2R,3S,8S,9R,10R,13R,14S,16R,17R)-2,3,16-trihydroxy-11-keto-4,4,9,13,14-pentamethyl-1,2,3,7,8,10,12,15,16,17-decahydrocyclopenta[a]phenanthren-17-yl]hex-2-enyl] ester

> <PUBCHEM_IUPAC_INCHI>
InChI=1S/C32H48O8/c1-17(33)40-27(2,3)13-12-23(36)32(9,39)25-21(35)15-29(6)22-11-10-18-19(14-20(34)26(38)28(18,4)5)31(22,8)24(37)16-30(25,29)7/h10,12-13,19-22,25-26,34-35,38-39H,11,14-16H2,1-9H3/b13-12+/t19-,20-,21-,22+,25+,26-,29+,30-,31+,32+/m1/s1

> <PUBCHEM_IUPAC_INCHIKEY>
LMJMTWXDWFWZHV-CWJYERATSA-N

> <PUBCHEM_XLOGP3_AA>
2.5

> <PUBCHEM_EXACT_MASS>
560.334918

> <PUBCHEM_MOLECULAR_FORMULA>
C32H48O8

> <PUBCHEM_MOLECULAR_WEIGHT>
560.71872

> <PUBCHEM_OPENEYE_CAN_SMILES>
CC(=O)OC(C)(C)C=CC(=O)C(C)(C1C(CC2(C1(CC(=O)C3(C2CC=C4C3CC(C(C4(C)C)O)O)C)C)C)O)O

> <PUBCHEM_OPENEYE_ISO_SMILES>
CC(=O)OC(C)(C)/C=C/C(=O)[C@@](C)([C@H]1[C@@H](C[C@@]2([C@@]1(CC(=O)[C@@]3([C@H]2CC=C4[C@H]3C[C@H]([C@H](C4(C)C)O)O)C)C)C)O)O

> <PUBCHEM_CACTVS_TPSA>
141

> <PUBCHEM_MONOISOTOPIC_WEIGHT>
560.334918

> <PUBCHEM_TOTAL_CHARGE>
0

> <PUBCHEM_HEAVY_ATOM_COUNT>
40

> <PUBCHEM_ATOM_DEF_STEREO_COUNT>
10

> <PUBCHEM_ATOM_UDEF_STEREO_COUNT>
0

> <PUBCHEM_BOND_DEF_STEREO_COUNT>
1

> <PUBCHEM_BOND_UDEF_STEREO_COUNT>
0

> <PUBCHEM_ISOTOPIC_ATOM_COUNT>
0

> <PUBCHEM_COMPONENT_COUNT>
1

> <PUBCHEM_CACTVS_TAUTO_COUNT>
2

> <PUBCHEM_COORDINATE_TYPE>
1
5
255

> <PUBCHEM_BONDANNOTATIONS>
16  1  6
10  21  5
11  41  5
12  24  5
13  42  6
17  48  6
22  3  5
28  4  6
29  5  6
9  20  6

$$$$

