   Color/Form

     * Crystals
     * Crystals from water or alcohol
     * Crystals from water or ethyl alcohol

   from [1]HSDB

   Melting Point
        192 deg C
   from [2]HSDB

   Dissociation Constants
        pKa= 0.5
   from [3]HSDB

   Octanol/Water Partition Coefficient
        log Kow= -0.60
   from [4]HSDB

   pH
        Aqueous solutions are neutral
   from [5]HSDB

   Solubilities

     * Solubility (mg/ml, 25 deg C): methanol 13.8; absolute ethanol 5.7;
       isopropanol 3.8; ether 1.0; isooctane 0.01; chloroform 7.4
     * In water, 15 mg/ml @ 25 deg C

   from [6]HSDB

   Other Chemical/Physical Properties
        Begins to sublime at 60 deg C
   from [7]HSDB

   Computed Properties
   Molecular Weight                  123.1127 [g/mol]
   Molecular Formula                 C[5]H[5]N[3]O
   XLogP3                            -0.6
   H-Bond Donor                      1
   H-Bond Acceptor                   3
   Rotatable Bond Count              1
   Tautomer Count                    2
   Exact Mass                        123.043262
   MonoIsotopic Mass                 123.043262
   Topological Polar Surface Area    68.9
   Heavy Atom Count                  9
   Formal Charge                     0
   Complexity                        115
   Isotope Atom Count                0
   Defined Atom Stereocenter Count   0
   Undefined Atom Stereocenter Count 0
   Defined Bond Stereocenter Count   0
   Undefined Bond Stereocenter Count 0
   Covalently-Bonded Unit Count      1
   Feature 3D Acceptor Count         3
   Feature 3D Donor Count            1
   Feature 3D Ring Count             1
   Effective Rotor Count             1
   Conformer Sampling RMSD           0.4
   CID Conformer Count               [8]4

References

   1. http://toxnet.nlm.nih.gov/cgi-bin/sis/search/r?dbs+hsdb:@term+@rn+@rel+98-96-4
   2. http://toxnet.nlm.nih.gov/cgi-bin/sis/search/r?dbs+hsdb:@term+@rn+@rel+98-96-4
   3. http://toxnet.nlm.nih.gov/cgi-bin/sis/search/r?dbs+hsdb:@term+@rn+@rel+98-96-4
   4. http://toxnet.nlm.nih.gov/cgi-bin/sis/search/r?dbs+hsdb:@term+@rn+@rel+98-96-4
   5. http://toxnet.nlm.nih.gov/cgi-bin/sis/search/r?dbs+hsdb:@term+@rn+@rel+98-96-4
   6. http://toxnet.nlm.nih.gov/cgi-bin/sis/search/r?dbs+hsdb:@term+@rn+@rel+98-96-4
   7. http://toxnet.nlm.nih.gov/cgi-bin/sis/search/r?dbs+hsdb:@term+@rn+@rel+98-96-4
   8. http://pubchem.ncbi.nlm.nih.gov/vw3d/vw3d.cgi?cid=1046
