8155
  -OEChem-07051213112D

 69 67  0     0  0  0  0  0  0999 V2000
    8.5142    0.0000    0.0000 Cl  0  5  0  0  0  0  0  0  0  0  0  0
    1.4030    3.9030    0.0000 N   0  3  0  0  0  0  0  0  0  0  0  0
    2.2690    4.4030    0.0000 C   0  0  0  0  0  0  0  0  0  0  0  0
    3.1350    3.9030    0.0000 C   0  0  0  0  0  0  0  0  0  0  0  0
    4.0010    4.4030    0.0000 C   0  0  0  0  0  0  0  0  0  0  0  0
    4.8671    3.9030    0.0000 C   0  0  0  0  0  0  0  0  0  0  0  0
    5.7331    4.4030    0.0000 C   0  0  0  0  0  0  0  0  0  0  0  0
    6.5991    3.9030    0.0000 C   0  0  0  0  0  0  0  0  0  0  0  0
    7.4651    4.4030    0.0000 C   0  0  0  0  0  0  0  0  0  0  0  0
    8.3312    3.9030    0.0000 C   0  0  0  0  0  0  0  0  0  0  0  0
    9.1972    4.4030    0.0000 C   0  0  0  0  0  0  0  0  0  0  0  0
    0.5369    3.4030    0.0000 C   0  0  0  0  0  0  0  0  0  0  0  0
    0.9030    4.7690    0.0000 C   0  0  0  0  0  0  0  0  0  0  0  0
    1.9030    3.0369    0.0000 C   0  0  0  0  0  0  0  0  0  0  0  0
   10.0632    3.9030    0.0000 C   0  0  0  0  0  0  0  0  0  0  0  0
   10.9292    4.4030    0.0000 C   0  0  0  0  0  0  0  0  0  0  0  0
   11.7953    3.9030    0.0000 C   0  0  0  0  0  0  0  0  0  0  0  0
   12.6613    4.4030    0.0000 C   0  0  0  0  0  0  0  0  0  0  0  0
   13.5273    3.9030    0.0000 C   0  0  0  0  0  0  0  0  0  0  0  0
   14.3933    4.4030    0.0000 C   0  0  0  0  0  0  0  0  0  0  0  0
   15.2594    3.9030    0.0000 C   0  0  0  0  0  0  0  0  0  0  0  0
   16.1254    4.4030    0.0000 C   0  0  0  0  0  0  0  0  0  0  0  0
   16.9914    3.9030    0.0000 C   0  0  0  0  0  0  0  0  0  0  0  0
    2.6675    4.8779    0.0000 H   0  0  0  0  0  0  0  0  0  0  0  0
    1.8705    4.8779    0.0000 H   0  0  0  0  0  0  0  0  0  0  0  0
    2.7365    3.4280    0.0000 H   0  0  0  0  0  0  0  0  0  0  0  0
    3.5335    3.4280    0.0000 H   0  0  0  0  0  0  0  0  0  0  0  0
    4.3996    4.8779    0.0000 H   0  0  0  0  0  0  0  0  0  0  0  0
    3.6025    4.8779    0.0000 H   0  0  0  0  0  0  0  0  0  0  0  0
    4.4685    3.4280    0.0000 H   0  0  0  0  0  0  0  0  0  0  0  0
    5.2656    3.4280    0.0000 H   0  0  0  0  0  0  0  0  0  0  0  0
    6.1316    4.8779    0.0000 H   0  0  0  0  0  0  0  0  0  0  0  0
    5.3346    4.8779    0.0000 H   0  0  0  0  0  0  0  0  0  0  0  0
    6.2006    3.4280    0.0000 H   0  0  0  0  0  0  0  0  0  0  0  0
    6.9976    3.4280    0.0000 H   0  0  0  0  0  0  0  0  0  0  0  0
    7.8637    4.8779    0.0000 H   0  0  0  0  0  0  0  0  0  0  0  0
    7.0666    4.8779    0.0000 H   0  0  0  0  0  0  0  0  0  0  0  0
    7.9326    3.4280    0.0000 H   0  0  0  0  0  0  0  0  0  0  0  0
    8.7297    3.4280    0.0000 H   0  0  0  0  0  0  0  0  0  0  0  0
    9.5957    4.8779    0.0000 H   0  0  0  0  0  0  0  0  0  0  0  0
    8.7987    4.8779    0.0000 H   0  0  0  0  0  0  0  0  0  0  0  0
    0.2269    3.9399    0.0000 H   0  0  0  0  0  0  0  0  0  0  0  0
    0.0000    3.0930    0.0000 H   0  0  0  0  0  0  0  0  0  0  0  0
    0.8469    2.8660    0.0000 H   0  0  0  0  0  0  0  0  0  0  0  0
    1.4399    5.0790    0.0000 H   0  0  0  0  0  0  0  0  0  0  0  0
    0.5930    5.3059    0.0000 H   0  0  0  0  0  0  0  0  0  0  0  0
    0.3660    4.4590    0.0000 H   0  0  0  0  0  0  0  0  0  0  0  0
    1.3660    2.7269    0.0000 H   0  0  0  0  0  0  0  0  0  0  0  0
    2.2130    2.5000    0.0000 H   0  0  0  0  0  0  0  0  0  0  0  0
    2.4399    3.3469    0.0000 H   0  0  0  0  0  0  0  0  0  0  0  0
    9.6647    3.4280    0.0000 H   0  0  0  0  0  0  0  0  0  0  0  0
   10.4617    3.4280    0.0000 H   0  0  0  0  0  0  0  0  0  0  0  0
   11.3278    4.8779    0.0000 H   0  0  0  0  0  0  0  0  0  0  0  0
   10.5307    4.8779    0.0000 H   0  0  0  0  0  0  0  0  0  0  0  0
   11.3967    3.4280    0.0000 H   0  0  0  0  0  0  0  0  0  0  0  0
   12.1938    3.4280    0.0000 H   0  0  0  0  0  0  0  0  0  0  0  0
   13.0598    4.8779    0.0000 H   0  0  0  0  0  0  0  0  0  0  0  0
   12.2628    4.8779    0.0000 H   0  0  0  0  0  0  0  0  0  0  0  0
   13.1288    3.4280    0.0000 H   0  0  0  0  0  0  0  0  0  0  0  0
   13.9258    3.4280    0.0000 H   0  0  0  0  0  0  0  0  0  0  0  0
   14.7919    4.8779    0.0000 H   0  0  0  0  0  0  0  0  0  0  0  0
   13.9948    4.8779    0.0000 H   0  0  0  0  0  0  0  0  0  0  0  0
   14.8608    3.4280    0.0000 H   0  0  0  0  0  0  0  0  0  0  0  0
   15.6579    3.4280    0.0000 H   0  0  0  0  0  0  0  0  0  0  0  0
   16.5239    4.8779    0.0000 H   0  0  0  0  0  0  0  0  0  0  0  0
   15.7269    4.8779    0.0000 H   0  0  0  0  0  0  0  0  0  0  0  0
   16.6814    3.3660    0.0000 H   0  0  0  0  0  0  0  0  0  0  0  0
   17.5284    3.5930    0.0000 H   0  0  0  0  0  0  0  0  0  0  0  0
   17.3014    4.4399    0.0000 H   0  0  0  0  0  0  0  0  0  0  0  0
  2  3  1  0  0  0  0
  2 12  1  0  0  0  0
  2 13  1  0  0  0  0
  2 14  1  0  0  0  0
  3  4  1  0  0  0  0
  3 24  1  0  0  0  0
  3 25  1  0  0  0  0
  4  5  1  0  0  0  0
  4 26  1  0  0  0  0
  4 27  1  0  0  0  0
  5  6  1  0  0  0  0
  5 28  1  0  0  0  0
  5 29  1  0  0  0  0
  6  7  1  0  0  0  0
  6 30  1  0  0  0  0
  6 31  1  0  0  0  0
  7  8  1  0  0  0  0
  7 32  1  0  0  0  0
  7 33  1  0  0  0  0
  8  9  1  0  0  0  0
  8 34  1  0  0  0  0
  8 35  1  0  0  0  0
  9 10  1  0  0  0  0
  9 36  1  0  0  0  0
  9 37  1  0  0  0  0
 10 11  1  0  0  0  0
 10 38  1  0  0  0  0
 10 39  1  0  0  0  0
 11 15  1  0  0  0  0
 11 40  1  0  0  0  0
 11 41  1  0  0  0  0
 12 42  1  0  0  0  0
 12 43  1  0  0  0  0
 12 44  1  0  0  0  0
 13 45  1  0  0  0  0
 13 46  1  0  0  0  0
 13 47  1  0  0  0  0
 14 48  1  0  0  0  0
 14 49  1  0  0  0  0
 14 50  1  0  0  0  0
 15 16  1  0  0  0  0
 15 51  1  0  0  0  0
 15 52  1  0  0  0  0
 16 17  1  0  0  0  0
 16 53  1  0  0  0  0
 16 54  1  0  0  0  0
 17 18  1  0  0  0  0
 17 55  1  0  0  0  0
 17 56  1  0  0  0  0
 18 19  1  0  0  0  0
 18 57  1  0  0  0  0
 18 58  1  0  0  0  0
 19 20  1  0  0  0  0
 19 59  1  0  0  0  0
 19 60  1  0  0  0  0
 20 21  1  0  0  0  0
 20 61  1  0  0  0  0
 20 62  1  0  0  0  0
 21 22  1  0  0  0  0
 21 63  1  0  0  0  0
 21 64  1  0  0  0  0
 22 23  1  0  0  0  0
 22 65  1  0  0  0  0
 22 66  1  0  0  0  0
 23 67  1  0  0  0  0
 23 68  1  0  0  0  0
 23 69  1  0  0  0  0
M  CHG  2   1  -1   2   1
M  END
> <PUBCHEM_COMPOUND_CID>
8155

> <PUBCHEM_COMPOUND_CANONICALIZED>
1

> <PUBCHEM_CACTVS_COMPLEXITY>
204

> <PUBCHEM_CACTVS_HBOND_ACCEPTOR>
1

> <PUBCHEM_CACTVS_HBOND_DONOR>
0

> <PUBCHEM_CACTVS_ROTATABLE_BOND>
17

> <PUBCHEM_CACTVS_SUBSKEYS>
AAADcfB6AAAEAAAAAAAAAAAAAAAAAAAAAAAAAAAAAAAAAAAAAAAAHAAAAAAACADBAAQCAAMAAAAAAAAAAAAAAAAAAAAAAAAIAAAAAAIAgAAEAAAAAAAAAAEQgIAAAAAAAAAAAAAAAAAAAAAAAAAAAAAAAA==

> <PUBCHEM_IUPAC_OPENEYE_NAME>
trimethyl(octadecyl)ammonium chloride

> <PUBCHEM_IUPAC_CAS_NAME>
trimethyl(octadecyl)ammonium chloride

> <PUBCHEM_IUPAC_NAME>
trimethyl(octadecyl)azanium chloride

> <PUBCHEM_IUPAC_SYSTEMATIC_NAME>
trimethyl(octadecyl)azanium chloride

> <PUBCHEM_IUPAC_TRADITIONAL_NAME>
trimethyl(stearyl)ammonium chloride

> <PUBCHEM_IUPAC_INCHI>
InChI=1S/C21H46N.ClH/c1-5-6-7-8-9-10-11-12-13-14-15-16-17-18-19-20-21-22(2,3)4;/h5-21H2,1-4H3;1H/q+1;/p-1

> <PUBCHEM_IUPAC_INCHIKEY>
VBIIFPGSPJYLRR-UHFFFAOYSA-M

> <PUBCHEM_EXACT_MASS>
347.331878

> <PUBCHEM_MOLECULAR_FORMULA>
C21H46ClN

> <PUBCHEM_MOLECULAR_WEIGHT>
348.04964

> <PUBCHEM_OPENEYE_CAN_SMILES>
CCCCCCCCCCCCCCCCCC[N+](C)(C)C.[Cl-]

> <PUBCHEM_OPENEYE_ISO_SMILES>
CCCCCCCCCCCCCCCCCC[N+](C)(C)C.[Cl-]

> <PUBCHEM_CACTVS_TPSA>
0

> <PUBCHEM_MONOISOTOPIC_WEIGHT>
347.331878

> <PUBCHEM_TOTAL_CHARGE>
0

> <PUBCHEM_HEAVY_ATOM_COUNT>
23

> <PUBCHEM_ATOM_DEF_STEREO_COUNT>
0

> <PUBCHEM_ATOM_UDEF_STEREO_COUNT>
0

> <PUBCHEM_BOND_DEF_STEREO_COUNT>
0

> <PUBCHEM_BOND_UDEF_STEREO_COUNT>
0

> <PUBCHEM_ISOTOPIC_ATOM_COUNT>
0

> <PUBCHEM_COMPONENT_COUNT>
2

> <PUBCHEM_CACTVS_TAUTO_COUNT>
1

> <PUBCHEM_COORDINATE_TYPE>
1
5
255

$$$$

