   Color/Form
        CRYSTALS FROM DILUTE ETHANOL
   from [1]HSDB

   Melting Point
        180-182 DEG C
   from [2]HSDB

   Dissociation Constants
        PKA= 4.5
   from [3]HSDB

   Solubilities
        SOL IN WATER; SPARINGLY SOL IN ETHANOL; INSOL IN CHLOROFORM &
   DIETHYL ETHER
   from [4]HSDB

   Spectral Properties

     * SPECIFIC OPTICAL ROTATION: -88.9 DEG @ 20 DEG C/D (METHANOL, 3%)
     * Intense mass spectral peaks: 85 m/z, 157 m/z, 176 m/z, 256 m/z, 283
       m/z

   from [5]HSDB

   Other Chemical/Physical Properties

     * INDICES OF REFRACTION: 1.545 (ALPHA), 1.595 (BETA), 1.653 (GAMMA)
       /TARTRATE/
     * CRYSTALS FROM ETHANOL; SPECIFIC OPTICAL ROTATION: -39 DEG @ 16 DEG
       C/D; MP: 176-177 DEG C /TARTRATE/
     * WHITE OR PRACTICALLY WHITE CRYSTALLINE POWDER; 1 G SOL IN ABOUT 20
       ML WATER; PRACTICALLY INSOL IN ETHER; INSOL IN CHLOROFORM; 1 G SOL
       IN ABOUT 60 ML ALCOHOL /TARTRATE/

   from [6]HSDB

   Computed Properties
   Molecular Weight                  283.4079 [g/mol]
   Molecular Formula                 C[19]H[25]NO
   XLogP3                            3.5
   H-Bond Donor                      1
   H-Bond Acceptor                   2
   Rotatable Bond Count              2
   Tautomer Count                    3
   Exact Mass                        283.193614
   MonoIsotopic Mass                 283.193614
   Topological Polar Surface Area    23.5
   Heavy Atom Count                  21
   Formal Charge                     0
   Complexity                        408
   Isotope Atom Count                0
   Defined Atom Stereocenter Count   3
   Undefined Atom Stereocenter Count 0
   Defined Bond Stereocenter Count   0
   Undefined Bond Stereocenter Count 0
   Covalently-Bonded Unit Count      1
   Feature 3D Donor Count            1
   Feature 3D Cation Count           1
   Feature 3D Hydrophobe Count       1
   Feature 3D Ring Count             4
   Effective Rotor Count             3.6
   Conformer Sampling RMSD           0.6
   CID Conformer Count               [7]5

References

   1. http://toxnet.nlm.nih.gov/cgi-bin/sis/search/r?dbs+hsdb:@term+@rn+@rel+152-02-3
   2. http://toxnet.nlm.nih.gov/cgi-bin/sis/search/r?dbs+hsdb:@term+@rn+@rel+152-02-3
   3. http://toxnet.nlm.nih.gov/cgi-bin/sis/search/r?dbs+hsdb:@term+@rn+@rel+152-02-3
   4. http://toxnet.nlm.nih.gov/cgi-bin/sis/search/r?dbs+hsdb:@term+@rn+@rel+152-02-3
   5. http://toxnet.nlm.nih.gov/cgi-bin/sis/search/r?dbs+hsdb:@term+@rn+@rel+152-02-3
   6. http://toxnet.nlm.nih.gov/cgi-bin/sis/search/r?dbs+hsdb:@term+@rn+@rel+152-02-3
   7. http://pubchem.ncbi.nlm.nih.gov/vw3d/vw3d.cgi?cid=5359371
