   Color/Form
        Red needles (from xylene)
   from [1]HSDB

   Melting Point
        221 deg C
   from [2]HSDB

   Octanol/Water Partition Coefficient
        log Kow = 5.31 (est)
   from [3]HSDB

   Solubilities
        In water, 0.015 mg/L at 25 deg C (est)
   from [4]HSDB

   Spectral Properties

     * MASS: 75964 (NIST/EPA/MSDC Mass Spectral Database 1990 version)
     * IR: 4611 (Coblentz Society Spectral Collection)

   from [5]HSDB

   Vapor Pressure
        1.4X10-9 mm Hg at 25 deg C (est)
   from [6]HSDB

   Other Chemical/Physical Properties

     * When heated to decomposition it emits very toxic fumes of bromide
       and nitrogen oxides
     * Henry's Law constant = 1.8X10-13 atm-cu m/mol at 25 deg C (est)
     * Hydroxyl radical reaction rate constant = 1.2X10-12 cu cm/molec-sec
       at 25 deg C (est)

   from [7]HSDB

   Computed Properties
   Molecular Weight                  381.01888 [g/mol]
   Molecular Formula                 C[14]H[7]Br[2]NO[2]
   XLogP3-AA                         4.1
   H-Bond Donor                      1
   H-Bond Acceptor                   3
   Rotatable Bond Count              0
   Tautomer Count                    3
   Exact Mass                        380.882306
   MonoIsotopic Mass                 378.884353
   Topological Polar Surface Area    60.2
   Heavy Atom Count                  19
   Formal Charge                     0
   Complexity                        414
   Isotope Atom Count                0
   Defined Atom Stereocenter Count   0
   Undefined Atom Stereocenter Count 0
   Defined Bond Stereocenter Count   0
   Undefined Bond Stereocenter Count 0
   Covalently-Bonded Unit Count      1
   Feature 3D Acceptor Count         2
   Feature 3D Donor Count            1
   Feature 3D Cation Count           1
   Feature 3D Hydrophobe Count       2
   Feature 3D Ring Count             3
   Effective Rotor Count             0
   Conformer Sampling RMSD           0.4
   CID Conformer Count               [8]1

References

   1. http://toxnet.nlm.nih.gov/cgi-bin/sis/search/r?dbs+hsdb:@term+@rn+@rel+81-49-2
   2. http://toxnet.nlm.nih.gov/cgi-bin/sis/search/r?dbs+hsdb:@term+@rn+@rel+81-49-2
   3. http://toxnet.nlm.nih.gov/cgi-bin/sis/search/r?dbs+hsdb:@term+@rn+@rel+81-49-2
   4. http://toxnet.nlm.nih.gov/cgi-bin/sis/search/r?dbs+hsdb:@term+@rn+@rel+81-49-2
   5. http://toxnet.nlm.nih.gov/cgi-bin/sis/search/r?dbs+hsdb:@term+@rn+@rel+81-49-2
   6. http://toxnet.nlm.nih.gov/cgi-bin/sis/search/r?dbs+hsdb:@term+@rn+@rel+81-49-2
   7. http://toxnet.nlm.nih.gov/cgi-bin/sis/search/r?dbs+hsdb:@term+@rn+@rel+81-49-2
   8. http://pubchem.ncbi.nlm.nih.gov/vw3d/vw3d.cgi?cid=6681
