6681
  -OEChem-07051213132D

 26 28  0     0  0  0  0  0  0999 V2000
    6.4144   -2.1927    0.0000 Br  0  0  0  0  0  0  0  0  0  0  0  0
    8.1962    0.8661    0.0000 Br  0  0  0  0  0  0  0  0  0  0  0  0
    4.6660    1.8419    0.0000 O   0  0  0  0  0  0  0  0  0  0  0  0
    4.6660   -2.1581    0.0000 O   0  0  0  0  0  0  0  0  0  0  0  0
    6.4144    1.8765    0.0000 N   0  0  0  0  0  0  0  0  0  0  0  0
    5.5321    0.3419    0.0000 C   0  0  0  0  0  0  0  0  0  0  0  0
    5.5321   -0.6581    0.0000 C   0  0  0  0  0  0  0  0  0  0  0  0
    3.8000    0.3419    0.0000 C   0  0  0  0  0  0  0  0  0  0  0  0
    3.8000   -0.6581    0.0000 C   0  0  0  0  0  0  0  0  0  0  0  0
    4.6660    0.8419    0.0000 C   0  0  0  0  0  0  0  0  0  0  0  0
    4.6660   -1.1581    0.0000 C   0  0  0  0  0  0  0  0  0  0  0  0
    6.4260    0.8766    0.0000 C   0  0  0  0  0  0  0  0  0  0  0  0
    6.4260   -1.1928    0.0000 C   0  0  0  0  0  0  0  0  0  0  0  0
    2.9061    0.8766    0.0000 C   0  0  0  0  0  0  0  0  0  0  0  0
    2.9061   -1.1928    0.0000 C   0  0  0  0  0  0  0  0  0  0  0  0
    7.3321    0.3627    0.0000 C   0  0  0  0  0  0  0  0  0  0  0  0
    7.3321   -0.6789    0.0000 C   0  0  0  0  0  0  0  0  0  0  0  0
    2.0000    0.3627    0.0000 C   0  0  0  0  0  0  0  0  0  0  0  0
    2.0000   -0.6789    0.0000 C   0  0  0  0  0  0  0  0  0  0  0  0
    2.9132    1.4965    0.0000 H   0  0  0  0  0  0  0  0  0  0  0  0
    2.9132   -1.8127    0.0000 H   0  0  0  0  0  0  0  0  0  0  0  0
    7.8678   -0.9910    0.0000 H   0  0  0  0  0  0  0  0  0  0  0  0
    1.4643    0.6748    0.0000 H   0  0  0  0  0  0  0  0  0  0  0  0
    1.4643   -0.9910    0.0000 H   0  0  0  0  0  0  0  0  0  0  0  0
    6.9478    2.1927    0.0000 H   0  0  0  0  0  0  0  0  0  0  0  0
    5.8740    2.1803    0.0000 H   0  0  0  0  0  0  0  0  0  0  0  0
  1 13  1  0  0  0  0
  2 16  1  0  0  0  0
  3 10  2  0  0  0  0
  4 11  2  0  0  0  0
  5 12  1  0  0  0  0
  5 25  1  0  0  0  0
  5 26  1  0  0  0  0
  6  7  2  0  0  0  0
  6 10  1  0  0  0  0
  6 12  1  0  0  0  0
  7 11  1  0  0  0  0
  7 13  1  0  0  0  0
  8  9  1  0  0  0  0
  8 10  1  0  0  0  0
  8 14  2  0  0  0  0
  9 11  1  0  0  0  0
  9 15  2  0  0  0  0
 12 16  2  0  0  0  0
 13 17  2  0  0  0  0
 14 18  1  0  0  0  0
 14 20  1  0  0  0  0
 15 19  1  0  0  0  0
 15 21  1  0  0  0  0
 16 17  1  0  0  0  0
 17 22  1  0  0  0  0
 18 19  2  0  0  0  0
 18 23  1  0  0  0  0
 19 24  1  0  0  0  0
M  END
> <PUBCHEM_COMPOUND_CID>
6681

> <PUBCHEM_COMPOUND_CANONICALIZED>
1

> <PUBCHEM_CACTVS_COMPLEXITY>
414

> <PUBCHEM_CACTVS_HBOND_ACCEPTOR>
3

> <PUBCHEM_CACTVS_HBOND_DONOR>
1

> <PUBCHEM_CACTVS_ROTATABLE_BOND>
0

> <PUBCHEM_CACTVS_SUBSKEYS>
AAADcYByMAAAGAAAAAAAAAAAAAAAAAAAAAAwYMAAAAAAAADBQAAAHgBQAAABrAyBmAAwwIBAAACIAqRSQACCAAAkAAQIiAEAROgIIDqAlZGAIYBggAAIy9cdiMCOggAgUAAygAiEAESgAGUAEAAAAAAAAA==

> <PUBCHEM_IUPAC_OPENEYE_NAME>
1-amino-2,4-dibromo-anthracene-9,10-dione

> <PUBCHEM_IUPAC_CAS_NAME>
1-amino-2,4-dibromoanthracene-9,10-dione

> <PUBCHEM_IUPAC_NAME>
1-amino-2,4-dibromoanthracene-9,10-dione

> <PUBCHEM_IUPAC_SYSTEMATIC_NAME>
1-azanyl-2,4-bis(bromanyl)anthracene-9,10-dione

> <PUBCHEM_IUPAC_TRADITIONAL_NAME>
1-amino-2,4-dibromo-9,10-anthraquinone

> <PUBCHEM_IUPAC_INCHI>
InChI=1S/C14H7Br2NO2/c15-8-5-9(16)12(17)11-10(8)13(18)6-3-1-2-4-7(6)14(11)19/h1-5H,17H2

> <PUBCHEM_IUPAC_INCHIKEY>
ZINRVIQBCHAZMM-UHFFFAOYSA-N

> <PUBCHEM_XLOGP3_AA>
4.1

> <PUBCHEM_EXACT_MASS>
380.882306

> <PUBCHEM_MOLECULAR_FORMULA>
C14H7Br2NO2

> <PUBCHEM_MOLECULAR_WEIGHT>
381.01888

> <PUBCHEM_OPENEYE_CAN_SMILES>
C1=CC=C2C(=C1)C(=O)C3=C(C2=O)C(=C(C=C3Br)Br)N

> <PUBCHEM_OPENEYE_ISO_SMILES>
C1=CC=C2C(=C1)C(=O)C3=C(C2=O)C(=C(C=C3Br)Br)N

> <PUBCHEM_CACTVS_TPSA>
60.2

> <PUBCHEM_MONOISOTOPIC_WEIGHT>
378.884353

> <PUBCHEM_TOTAL_CHARGE>
0

> <PUBCHEM_HEAVY_ATOM_COUNT>
19

> <PUBCHEM_ATOM_DEF_STEREO_COUNT>
0

> <PUBCHEM_ATOM_UDEF_STEREO_COUNT>
0

> <PUBCHEM_BOND_DEF_STEREO_COUNT>
0

> <PUBCHEM_BOND_UDEF_STEREO_COUNT>
0

> <PUBCHEM_ISOTOPIC_ATOM_COUNT>
0

> <PUBCHEM_COMPONENT_COUNT>
1

> <PUBCHEM_CACTVS_TAUTO_COUNT>
3

> <PUBCHEM_COORDINATE_TYPE>
1
5
255

> <PUBCHEM_BONDANNOTATIONS>
12  16  8
13  17  8
14  18  8
15  19  8
16  17  8
18  19  8
6  12  8
6  7  8
7  13  8
8  14  8
8  9  8
9  15  8

$$$$

