   Color/Form

     * Crystals from ethyl acetate/cyclohexane
     * Off-white powder

   from [1]HSDB

   Melting Point
        81-82 deg C
   from [2]HSDB

   Dissociation Constants
        pKa = 2.01 (est)
   from [3]HSDB

   Octanol/Water Partition Coefficient
        log Kow = 2.37 (est)
   from [4]HSDB

   Solubilities

     * Freely soluble in methanol, acetone, ethanol, tetrahydrofuran; very
       soluble in acetonitrile.
     * In water, 0.5 mg/mL at 25 deg C; solubility is dependent of pH in
       the physiological range.

   from [5]HSDB

   Vapor Pressure
        1.19X10-8 mm Hg at 25 deg C (est)
   from [6]HSDB

   Other Chemical/Physical Properties

     * Henry's Law constant = 1.71X10-12 atm-cu m/mol at 25 deg C (est)
     * Hydroxyl radical reaction rate constant = 25.2X10-12 cu
       cm/molec-sec at 25 deg C (est)

   from [7]HSDB

   Computed Properties
   Molecular Weight                  293.36626 [g/mol]
   Molecular Formula                 C[17]H[19]N[5]
   XLogP3                            2.1
   H-Bond Donor                      0
   H-Bond Acceptor                   4
   Rotatable Bond Count              4
   Exact Mass                        293.164046
   MonoIsotopic Mass                 293.164046
   Topological Polar Surface Area    78.3
   Heavy Atom Count                  22
   Formal Charge                     0
   Complexity                        456
   Isotope Atom Count                0
   Defined Atom Stereocenter Count   0
   Undefined Atom Stereocenter Count 0
   Defined Bond Stereocenter Count   0
   Undefined Bond Stereocenter Count 0
   Covalently-Bonded Unit Count      1
   Feature 3D Acceptor Count         2
   Feature 3D Cation Count           2
   Feature 3D Hydrophobe Count       2
   Feature 3D Ring Count             2
   Effective Rotor Count             4
   Conformer Sampling RMSD           0.6
   CID Conformer Count               [8]294

References

   1. http://toxnet.nlm.nih.gov/cgi-bin/sis/search/r?dbs+hsdb:@term+@rn+@rel+120511-73-1
   2. http://toxnet.nlm.nih.gov/cgi-bin/sis/search/r?dbs+hsdb:@term+@rn+@rel+120511-73-1
   3. http://toxnet.nlm.nih.gov/cgi-bin/sis/search/r?dbs+hsdb:@term+@rn+@rel+120511-73-1
   4. http://toxnet.nlm.nih.gov/cgi-bin/sis/search/r?dbs+hsdb:@term+@rn+@rel+120511-73-1
   5. http://toxnet.nlm.nih.gov/cgi-bin/sis/search/r?dbs+hsdb:@term+@rn+@rel+120511-73-1
   6. http://toxnet.nlm.nih.gov/cgi-bin/sis/search/r?dbs+hsdb:@term+@rn+@rel+120511-73-1
   7. http://toxnet.nlm.nih.gov/cgi-bin/sis/search/r?dbs+hsdb:@term+@rn+@rel+120511-73-1
   8. http://pubchem.ncbi.nlm.nih.gov/vw3d/vw3d.cgi?cid=2187
