   Color/Form

     * WHITE POWDER
     * Colorless crystals.

   from [1]HSDB

   Boiling Point
        148-150 deg C @ 0.5 mm Hg
   from [2]HSDB

   Melting Point
        73 deg C
   from [3]HSDB

   Density/Specific Gravity
        1.36 g/cu cm @ 20 deg C
   from [4]HSDB

   Solubilities

     * At 20 deg C: 700 g/L acetone, dichloromethane; 50 g/L hexane; 300
       g/L methanol; 130 g/L n-octanol; 500 g/L toluene
     * In water, 10 mg/L @ 20 deg C.

   from [5]HSDB

   Vapor Pressure
        1.8X10-7 mm Hg @ 20 deg C
   from [6]HSDB

   Other Chemical/Physical Properties

     * MP: 66-72 deg C /Technical product/
     * Henry's Law constant = 8.03X10-9 atm-cu m/mol @ 25 deg C
       /Estimated/
     * Hydroxyl radical reaction rate constant = 6.87X10-12 cu
       cm/molecule-sec @ 25 deg C /Estimated/

   from [7]HSDB

   Computed Properties
   Molecular Weight                  339.21314 [g/mol]
   Molecular Formula                 C[17]H[16]Cl[2]O[3]
   XLogP3-AA                         4.7
   H-Bond Donor                      1
   H-Bond Acceptor                   3
   Rotatable Bond Count              5
   Exact Mass                        338.04765
   MonoIsotopic Mass                 338.04765
   Topological Polar Surface Area    46.5
   Heavy Atom Count                  22
   Formal Charge                     0
   Complexity                        348
   Isotope Atom Count                0
   Defined Atom Stereocenter Count   0
   Undefined Atom Stereocenter Count 0
   Defined Bond Stereocenter Count   0
   Undefined Bond Stereocenter Count 0
   Covalently-Bonded Unit Count      1
   Feature 3D Acceptor Count         2
   Feature 3D Donor Count            1
   Feature 3D Hydrophobe Count       1
   Feature 3D Ring Count             2
   Effective Rotor Count             5
   Conformer Sampling RMSD           0.8
   CID Conformer Count               [8]11

References

   1. http://toxnet.nlm.nih.gov/cgi-bin/sis/search/r?dbs+hsdb:@term+@rn+@rel+5836-10-2
   2. http://toxnet.nlm.nih.gov/cgi-bin/sis/search/r?dbs+hsdb:@term+@rn+@rel+5836-10-2
   3. http://toxnet.nlm.nih.gov/cgi-bin/sis/search/r?dbs+hsdb:@term+@rn+@rel+5836-10-2
   4. http://toxnet.nlm.nih.gov/cgi-bin/sis/search/r?dbs+hsdb:@term+@rn+@rel+5836-10-2
   5. http://toxnet.nlm.nih.gov/cgi-bin/sis/search/r?dbs+hsdb:@term+@rn+@rel+5836-10-2
   6. http://toxnet.nlm.nih.gov/cgi-bin/sis/search/r?dbs+hsdb:@term+@rn+@rel+5836-10-2
   7. http://toxnet.nlm.nih.gov/cgi-bin/sis/search/r?dbs+hsdb:@term+@rn+@rel+5836-10-2
   8. http://pubchem.ncbi.nlm.nih.gov/vw3d/vw3d.cgi?cid=22094
