   Color/Form
        WHITE TO LIGHT-TAN FINE CRYSTALS
   from [1]HSDB

   Boiling Point
        263 DEG C
   from [2]HSDB

   Melting Point
        100 DEG C
   from [3]HSDB

   Octanol/Water Partition Coefficient
        log Kow = 1.40
   from [4]HSDB

   Solubilities
        VERY SOL IN WATER AND ALC, SLIGHTLY SOL IN ETHER
   from [5]HSDB

   Spectral Properties

     * IR: 264 (Sadtler Research Laboratories IR Grating Collection)
     * UV: 9787 (Sadtler Research Laboratories Spectral Collection)
     * NMR: 8217 (Sadtler Research Laboratories Spectral Collection)

   from [6]HSDB

   Computed Properties
   Molecular Weight                  144.5557 [g/mol]
   Molecular Formula                 C[6]H[5]ClO[2]
   XLogP3                            1.4
   H-Bond Donor                      2
   H-Bond Acceptor                   2
   Rotatable Bond Count              0
   Tautomer Count                    7
   Exact Mass                        143.997807
   MonoIsotopic Mass                 143.997807
   Topological Polar Surface Area    40.5
   Heavy Atom Count                  9
   Formal Charge                     0
   Complexity                        97.1
   Isotope Atom Count                0
   Defined Atom Stereocenter Count   0
   Undefined Atom Stereocenter Count 0
   Defined Bond Stereocenter Count   0
   Undefined Bond Stereocenter Count 0
   Covalently-Bonded Unit Count      1
   Feature 3D Donor Count            2
   Feature 3D Ring Count             1
   Effective Rotor Count             0
   Conformer Sampling RMSD           0.4
   CID Conformer Count               [7]1

References

   1. http://toxnet.nlm.nih.gov/cgi-bin/sis/search/r?dbs+hsdb:@term+@rn+@rel+615-67-8
   2. http://toxnet.nlm.nih.gov/cgi-bin/sis/search/r?dbs+hsdb:@term+@rn+@rel+615-67-8
   3. http://toxnet.nlm.nih.gov/cgi-bin/sis/search/r?dbs+hsdb:@term+@rn+@rel+615-67-8
   4. http://toxnet.nlm.nih.gov/cgi-bin/sis/search/r?dbs+hsdb:@term+@rn+@rel+615-67-8
   5. http://toxnet.nlm.nih.gov/cgi-bin/sis/search/r?dbs+hsdb:@term+@rn+@rel+615-67-8
   6. http://toxnet.nlm.nih.gov/cgi-bin/sis/search/r?dbs+hsdb:@term+@rn+@rel+615-67-8
   7. http://pubchem.ncbi.nlm.nih.gov/vw3d/vw3d.cgi?cid=301
