854040
  -OEChem-06241222472D

 22 23  0     0  0  0  0  0  0999 V2000
    5.9674    1.5637    0.0000 O   0  0  0  0  0  0  0  0  0  0  0  0
    4.3211    2.1018    0.0000 O   0  0  0  0  0  0  0  0  0  0  0  0
    4.6783   -1.2025    0.0000 N   0  0  0  0  0  0  0  0  0  0  0  0
    3.7320   -0.8978    0.0000 C   0  0  0  0  0  0  0  0  0  0  0  0
    3.7320    0.1022    0.0000 C   0  0  0  0  0  0  0  0  0  0  0  0
    4.6783    0.4070    0.0000 C   0  0  0  0  0  0  0  0  0  0  0  0
    5.2619   -0.3978    0.0000 C   0  0  0  0  0  0  0  0  0  0  0  0
    2.8660   -1.3978    0.0000 C   0  0  0  0  0  0  0  0  0  0  0  0
    2.8660    0.6022    0.0000 C   0  0  0  0  0  0  0  0  0  0  0  0
    4.9889   -2.1530    0.0000 C   0  0  0  0  0  0  0  0  0  0  0  0
    2.0000   -0.8978    0.0000 C   0  0  0  0  0  0  0  0  0  0  0  0
    2.0000    0.1022    0.0000 C   0  0  0  0  0  0  0  0  0  0  0  0
    4.9889    1.3575    0.0000 C   0  0  0  0  0  0  0  0  0  0  0  0
    5.8819   -0.3978    0.0000 H   0  0  0  0  0  0  0  0  0  0  0  0
    2.8660   -2.0178    0.0000 H   0  0  0  0  0  0  0  0  0  0  0  0
    2.8660    1.2222    0.0000 H   0  0  0  0  0  0  0  0  0  0  0  0
    4.3996   -2.3456    0.0000 H   0  0  0  0  0  0  0  0  0  0  0  0
    5.1815   -2.7424    0.0000 H   0  0  0  0  0  0  0  0  0  0  0  0
    5.5783   -1.9604    0.0000 H   0  0  0  0  0  0  0  0  0  0  0  0
    1.4631   -1.2078    0.0000 H   0  0  0  0  0  0  0  0  0  0  0  0
    1.4631    0.4122    0.0000 H   0  0  0  0  0  0  0  0  0  0  0  0
    6.1600    2.1530    0.0000 H   0  0  0  0  0  0  0  0  0  0  0  0
  1 13  1  0  0  0  0
  1 22  1  0  0  0  0
  2 13  2  0  0  0  0
  3  4  1  0  0  0  0
  3  7  1  0  0  0  0
  3 10  1  0  0  0  0
  4  5  1  0  0  0  0
  4  8  2  0  0  0  0
  5  6  1  0  0  0  0
  5  9  2  0  0  0  0
  6  7  2  0  0  0  0
  6 13  1  0  0  0  0
  7 14  1  0  0  0  0
  8 11  1  0  0  0  0
  8 15  1  0  0  0  0
  9 12  1  0  0  0  0
  9 16  1  0  0  0  0
 10 17  1  0  0  0  0
 10 18  1  0  0  0  0
 10 19  1  0  0  0  0
 11 12  2  0  0  0  0
 11 20  1  0  0  0  0
 12 21  1  0  0  0  0
M  END
> <PUBCHEM_COMPOUND_CID>
854040

> <PUBCHEM_COMPOUND_CANONICALIZED>
1

> <PUBCHEM_CACTVS_COMPLEXITY>
217

> <PUBCHEM_CACTVS_HBOND_ACCEPTOR>
2

> <PUBCHEM_CACTVS_HBOND_DONOR>
1

> <PUBCHEM_CACTVS_ROTATABLE_BOND>
1

> <PUBCHEM_CACTVS_SUBSKEYS>
AAADccByMAAAAAAAAAAAAAAAAAAAAWAAAAAwAAAAAAAAAFgB8AAAHgAACAAADAjBngQ+yPMMEgCoAzT3TACCgCA1AiAI2CE4bNgIJvrAlZGEcYhmwAHI2ce8yOCOgAAAAAACAAAAAAAAAAQAAAAAAAAAAA==

> <PUBCHEM_IUPAC_OPENEYE_NAME>
1-methylindole-3-carboxylic acid

> <PUBCHEM_IUPAC_CAS_NAME>
1-methyl-3-indolecarboxylic acid

> <PUBCHEM_IUPAC_NAME>
1-methylindole-3-carboxylic acid

> <PUBCHEM_IUPAC_SYSTEMATIC_NAME>
1-methylindole-3-carboxylic acid

> <PUBCHEM_IUPAC_TRADITIONAL_NAME>
1-methylindole-3-carboxylic acid

> <PUBCHEM_IUPAC_INCHI>
InChI=1S/C10H9NO2/c1-11-6-8(10(12)13)7-4-2-3-5-9(7)11/h2-6H,1H3,(H,12,13)

> <PUBCHEM_IUPAC_INCHIKEY>
HVRCLXXJIQTXHC-UHFFFAOYSA-N

> <PUBCHEM_XLOGP3>
1.8

> <PUBCHEM_EXACT_MASS>
175.063329

> <PUBCHEM_MOLECULAR_FORMULA>
C10H9NO2

> <PUBCHEM_MOLECULAR_WEIGHT>
175.18396

> <PUBCHEM_OPENEYE_CAN_SMILES>
CN1C=C(C2=CC=CC=C21)C(=O)O

> <PUBCHEM_OPENEYE_ISO_SMILES>
CN1C=C(C2=CC=CC=C21)C(=O)O

> <PUBCHEM_CACTVS_TPSA>
42.2

> <PUBCHEM_MONOISOTOPIC_WEIGHT>
175.063329

> <PUBCHEM_TOTAL_CHARGE>
0

> <PUBCHEM_HEAVY_ATOM_COUNT>
13

> <PUBCHEM_ATOM_DEF_STEREO_COUNT>
0

> <PUBCHEM_ATOM_UDEF_STEREO_COUNT>
0

> <PUBCHEM_BOND_DEF_STEREO_COUNT>
0

> <PUBCHEM_BOND_UDEF_STEREO_COUNT>
0

> <PUBCHEM_ISOTOPIC_ATOM_COUNT>
0

> <PUBCHEM_COMPONENT_COUNT>
1

> <PUBCHEM_CACTVS_TAUTO_COUNT>
1

> <PUBCHEM_COORDINATE_TYPE>
1
5
255

> <PUBCHEM_BONDANNOTATIONS>
11  12  8
3  4  8
3  7  8
4  5  8
4  8  8
5  6  8
5  9  8
6  7  8
8  11  8
9  12  8

$$$$

