5284370
  -OEChem-07051212592D

 56 57  0     1  0  0  0  0  0999 V2000
    3.6730   -0.1111    0.0000 O   0  0  0  0  0  0  0  0  0  0  0  0
    8.2951   -0.4354    0.0000 O   0  0  0  0  0  0  0  0  0  0  0  0
    5.5050    1.1300    0.0000 O   0  0  0  0  0  0  0  0  0  0  0  0
    6.1465    0.6544    0.0000 O   0  0  0  0  0  0  0  0  0  0  0  0
    3.7729    1.1300    0.0000 O   0  0  0  0  0  0  0  0  0  0  0  0
    6.9469   -0.0402    0.0000 O   0  0  0  0  0  0  0  0  0  0  0  0
    3.2248   -1.7843    0.0000 O   0  0  0  0  0  0  0  0  0  0  0  0
    8.9602    2.7610    0.0000 N   0  0  3  0  0  0  0  0  0  0  0  0
    4.6390   -0.3700    0.0000 C   0  0  2  0  0  0  0  0  0  0  0  0
    5.5050   -0.8700    0.0000 C   0  0  1  0  0  0  0  0  0  0  0  0
    8.0363    0.5305    0.0000 C   0  0  2  0  0  0  0  0  0  0  0  0
    8.9602    0.9132    0.0000 C   0  0  0  0  0  0  0  0  0  0  0  0
    9.3429    1.8371    0.0000 C   0  0  0  0  0  0  0  0  0  0  0  0
    6.7297    1.8371    0.0000 C   0  0  0  0  0  0  0  0  0  0  0  0
    3.9318   -1.0771    0.0000 C   0  0  0  0  0  0  0  0  0  0  0  0
    8.0363    3.1437    0.0000 C   0  0  0  0  0  0  0  0  0  0  0  0
    7.1124    0.9132    0.0000 C   0  0  0  0  0  0  0  0  0  0  0  0
    6.0050   -1.7360    0.0000 C   0  0  0  0  0  0  0  0  0  0  0  0
    4.6390    0.6300    0.0000 C   0  0  0  0  0  0  0  0  0  0  0  0
    6.2121   -0.1629    0.0000 C   0  0  0  0  0  0  0  0  0  0  0  0
    5.7638    2.0959    0.0000 C   0  0  0  0  0  0  0  0  0  0  0  0
    7.1124    2.7610    0.0000 C   0  0  0  0  0  0  0  0  0  0  0  0
    7.0050   -1.7360    0.0000 C   0  0  0  0  0  0  0  0  0  0  0  0
    9.6673    3.4681    0.0000 C   0  0  0  0  0  0  0  0  0  0  0  0
    7.5050   -0.8700    0.0000 C   0  0  0  0  0  0  0  0  0  0  0  0
    2.9659   -0.8183    0.0000 C   0  0  0  0  0  0  0  0  0  0  0  0
    7.5050   -2.6021    0.0000 C   0  0  0  0  0  0  0  0  0  0  0  0
    2.0000   -0.5594    0.0000 C   0  0  0  0  0  0  0  0  0  0  0  0
    7.0050   -3.4681    0.0000 C   0  0  0  0  0  0  0  0  0  0  0  0
    6.1197   -0.9509    0.0000 H   0  0  0  0  0  0  0  0  0  0  0  0
    8.7986    0.1546    0.0000 H   0  0  0  0  0  0  0  0  0  0  0  0
    9.0411    0.2985    0.0000 H   0  0  0  0  0  0  0  0  0  0  0  0
    9.5749    0.8323    0.0000 H   0  0  0  0  0  0  0  0  0  0  0  0
    9.8347    1.4597    0.0000 H   0  0  0  0  0  0  0  0  0  0  0  0
    9.8347    2.2145    0.0000 H   0  0  0  0  0  0  0  0  0  0  0  0
    3.4934   -0.6387    0.0000 H   0  0  0  0  0  0  0  0  0  0  0  0
    3.4934   -1.5155    0.0000 H   0  0  0  0  0  0  0  0  0  0  0  0
    4.3703   -1.5155    0.0000 H   0  0  0  0  0  0  0  0  0  0  0  0
    8.4137    3.6355    0.0000 H   0  0  0  0  0  0  0  0  0  0  0  0
    7.6589    3.6355    0.0000 H   0  0  0  0  0  0  0  0  0  0  0  0
    5.6950   -2.2730    0.0000 H   0  0  0  0  0  0  0  0  0  0  0  0
    6.6505   -0.6013    0.0000 H   0  0  0  0  0  0  0  0  0  0  0  0
    6.6505    0.2755    0.0000 H   0  0  0  0  0  0  0  0  0  0  0  0
    5.7737    0.2755    0.0000 H   0  0  0  0  0  0  0  0  0  0  0  0
    5.9243    2.6948    0.0000 H   0  0  0  0  0  0  0  0  0  0  0  0
    5.1649    2.2564    0.0000 H   0  0  0  0  0  0  0  0  0  0  0  0
    6.6740    3.1994    0.0000 H   0  0  0  0  0  0  0  0  0  0  0  0
   10.1057    3.0297    0.0000 H   0  0  0  0  0  0  0  0  0  0  0  0
   10.1057    3.9065    0.0000 H   0  0  0  0  0  0  0  0  0  0  0  0
    9.2289    3.9065    0.0000 H   0  0  0  0  0  0  0  0  0  0  0  0
    8.1250   -2.6021    0.0000 H   0  0  0  0  0  0  0  0  0  0  0  0
    2.1605    0.0394    0.0000 H   0  0  0  0  0  0  0  0  0  0  0  0
    1.4011   -0.3990    0.0000 H   0  0  0  0  0  0  0  0  0  0  0  0
    1.8395   -1.1583    0.0000 H   0  0  0  0  0  0  0  0  0  0  0  0
    6.3850   -3.4681    0.0000 H   0  0  0  0  0  0  0  0  0  0  0  0
    7.3150   -4.0050    0.0000 H   0  0  0  0  0  0  0  0  0  0  0  0
  9  1  1  6  0  0  0
  1 26  1  0  0  0  0
  2 11  1  0  0  0  0
  2 25  1  0  0  0  0
  3 19  1  0  0  0  0
  3 21  1  0  0  0  0
  4 17  2  0  0  0  0
  5 19  2  0  0  0  0
  6 25  2  0  0  0  0
  7 26  2  0  0  0  0
  8 13  1  0  0  0  0
  8 16  1  0  0  0  0
  8 24  1  0  0  0  0
  9 10  1  0  0  0  0
  9 15  1  0  0  0  0
  9 19  1  0  0  0  0
 10 18  1  0  0  0  0
 10 20  1  6  0  0  0
 10 30  1  0  0  0  0
 11 12  1  0  0  0  0
 11 17  1  0  0  0  0
 11 31  1  6  0  0  0
 12 13  1  0  0  0  0
 12 32  1  0  0  0  0
 12 33  1  0  0  0  0
 13 34  1  0  0  0  0
 13 35  1  0  0  0  0
 14 17  1  0  0  0  0
 14 21  1  0  0  0  0
 14 22  2  0  0  0  0
 15 36  1  0  0  0  0
 15 37  1  0  0  0  0
 15 38  1  0  0  0  0
 16 22  1  0  0  0  0
 16 39  1  0  0  0  0
 16 40  1  0  0  0  0
 18 23  2  0  0  0  0
 18 41  1  0  0  0  0
 20 42  1  0  0  0  0
 20 43  1  0  0  0  0
 20 44  1  0  0  0  0
 21 45  1  0  0  0  0
 21 46  1  0  0  0  0
 22 47  1  0  0  0  0
 23 25  1  0  0  0  0
 23 27  1  0  0  0  0
 24 48  1  0  0  0  0
 24 49  1  0  0  0  0
 24 50  1  0  0  0  0
 26 28  1  0  0  0  0
 27 29  2  0  0  0  0
 27 51  1  0  0  0  0
 28 52  1  0  0  0  0
 28 53  1  0  0  0  0
 28 54  1  0  0  0  0
 29 55  1  0  0  0  0
 29 56  1  0  0  0  0
M  END
> <PUBCHEM_COMPOUND_CID>
5284370

> <PUBCHEM_COMPOUND_CANONICALIZED>
1

> <PUBCHEM_CACTVS_COMPLEXITY>
782

> <PUBCHEM_CACTVS_HBOND_ACCEPTOR>
8

> <PUBCHEM_CACTVS_HBOND_DONOR>
0

> <PUBCHEM_CACTVS_ROTATABLE_BOND>
3

> <PUBCHEM_CACTVS_SUBSKEYS>
AAADceB6OAAAAAAAAAAAAAAAAAAAAAAAAAAAAAAAAAAQAAAAAAAAHgAAAAAADVThgAYCCAMABACIAqDSCAKAAAAgAAAICAFIAEgJBBYAoQQGEAAG4ACKoYPUQAAIgAAAAAAAAAAAAAAAAAAAAAAAAAAAAA==

> <PUBCHEM_IUPAC_OPENEYE_NAME>
[(1R,4Z,6R,7S,11Z)-6,7,14-trimethyl-3,8,17-trioxo-4-vinyl-2,9-dioxa-14-azabicyclo[9.5.1]heptadeca-4,11-dien-7-yl] acetate

> <PUBCHEM_IUPAC_CAS_NAME>
acetic acid [(1R,4Z,6R,7S,11Z)-4-ethenyl-6,7,14-trimethyl-3,8,17-trioxo-2,9-dioxa-14-azabicyclo[9.5.1]heptadeca-4,11-dien-7-yl] ester

> <PUBCHEM_IUPAC_NAME>
[(1R,4Z,6R,7S,11Z)-4-ethenyl-6,7,14-trimethyl-3,8,17-trioxo-2,9-dioxa-14-azabicyclo[9.5.1]heptadeca-4,11-dien-7-yl] acetate

> <PUBCHEM_IUPAC_SYSTEMATIC_NAME>
[(1R,4Z,6R,7S,11Z)-4-ethenyl-6,7,14-trimethyl-3,8,17-tris(oxidanylidene)-2,9-dioxa-14-azabicyclo[9.5.1]heptadeca-4,11-dien-7-yl] ethanoate

> <PUBCHEM_IUPAC_TRADITIONAL_NAME>
acetic acid [(1R,4Z,6R,7S,11Z)-3,8,17-triketo-6,7,14-trimethyl-4-vinyl-2,9-dioxa-14-azabicyclo[9.5.1]heptadeca-4,11-dien-7-yl] ester

> <PUBCHEM_IUPAC_INCHI>
InChI=1S/C21H27NO7/c1-6-15-11-13(2)21(4,29-14(3)23)20(26)27-12-16-7-9-22(5)10-8-17(18(16)24)28-19(15)25/h6-7,11,13,17H,1,8-10,12H2,2-5H3/b15-11-,16-7-/t13-,17-,21+/m1/s1

> <PUBCHEM_IUPAC_INCHIKEY>
LIEIOJNANXUNDT-WIOQBUNOSA-N

> <PUBCHEM_XLOGP3_AA>
2

> <PUBCHEM_EXACT_MASS>
405.178752

> <PUBCHEM_MOLECULAR_FORMULA>
C21H27NO7

> <PUBCHEM_MOLECULAR_WEIGHT>
405.44158

> <PUBCHEM_OPENEYE_CAN_SMILES>
CC1C=C(C(=O)OC2CCN(CC=C(C2=O)COC(=O)C1(C)OC(=O)C)C)C=C

> <PUBCHEM_OPENEYE_ISO_SMILES>
C[C@@H]1/C=C(\C(=O)O[C@@H]2CCN(C/C=C(\C2=O)/COC(=O)[C@@]1(C)OC(=O)C)C)/C=C

> <PUBCHEM_CACTVS_TPSA>
99.2

> <PUBCHEM_MONOISOTOPIC_WEIGHT>
405.178752

> <PUBCHEM_TOTAL_CHARGE>
0

> <PUBCHEM_HEAVY_ATOM_COUNT>
29

> <PUBCHEM_ATOM_DEF_STEREO_COUNT>
3

> <PUBCHEM_ATOM_UDEF_STEREO_COUNT>
0

> <PUBCHEM_BOND_DEF_STEREO_COUNT>
2

> <PUBCHEM_BOND_UDEF_STEREO_COUNT>
0

> <PUBCHEM_ISOTOPIC_ATOM_COUNT>
0

> <PUBCHEM_COMPONENT_COUNT>
1

> <PUBCHEM_CACTVS_TAUTO_COUNT>
1

> <PUBCHEM_COORDINATE_TYPE>
1
5
255

> <PUBCHEM_BONDANNOTATIONS>
9  1  6
10  20  6
11  31  6

$$$$

