   Color/Form

     * NEEDLES
     * WHITE CRYSTALS OR POWDER

   from [1]HSDB

   Density/Specific Gravity
        1.51
   from [2]HSDB

   Dissociation Constants

     * PKA: 3.51
     * The dissociation constants pK1 and pK2 for terephthalic acid at 25
       deg C are 3.54 and 4.46, respectively.

   from [3]HSDB

   Octanol/Water Partition Coefficient
        log Kow = 2.00
   from [4]HSDB

   Solubilities

     * INSOL IN WATER, ETHER, CHLOROFORM, ACETIC ACID; INSOL IN COLD BUT
       SOL IN HOT ETHANOL
     * SOL IN ALKALIES
     * water solubility = 15 mg/l @ 20 deg C

   from [5]HSDB

   Spectral Properties

     * MAX ABSORPTION (DIOXANE): 242 NM (LOG E= 4.21); 286 NM (LOG E=
       3.23)
     * IR: 9178 (Sadtler Research Laboratories Prism Collection)
     * UV: 2383 (Sadtler Research Laboratories Spectral Collection)
     * MASS: 1080 (Atlas of Mass Spectral Data, John Wiley & Sons, New
       York)

   from [6]HSDB

   Vapor Pressure
        vapor pressure = 9.20X10-6 mm Hg @ 25 deg C, ext
   from [7]HSDB

   Other Chemical/Physical Properties
        Sublimes at 402 deg C
   from [8]HSDB

   Computed Properties
   Molecular Weight                  166.13084 [g/mol]
   Molecular Formula                 C[8]H[6]O[4]
   XLogP3                            2
   H-Bond Donor                      2
   H-Bond Acceptor                   4
   Rotatable Bond Count              2
   Exact Mass                        166.026609
   MonoIsotopic Mass                 166.026609
   Topological Polar Surface Area    74.6
   Heavy Atom Count                  12
   Formal Charge                     0
   Complexity                        169
   Isotope Atom Count                0
   Defined Atom Stereocenter Count   0
   Undefined Atom Stereocenter Count 0
   Defined Bond Stereocenter Count   0
   Undefined Bond Stereocenter Count 0
   Covalently-Bonded Unit Count      1
   Feature 3D Acceptor Count         4
   Feature 3D Anion Count            2
   Feature 3D Ring Count             1
   Effective Rotor Count             2
   Conformer Sampling RMSD           0.6
   CID Conformer Count               [9]3

References

   1. http://toxnet.nlm.nih.gov/cgi-bin/sis/search/r?dbs+hsdb:@term+@rn+@rel+100-21-0
   2. http://toxnet.nlm.nih.gov/cgi-bin/sis/search/r?dbs+hsdb:@term+@rn+@rel+100-21-0
   3. http://toxnet.nlm.nih.gov/cgi-bin/sis/search/r?dbs+hsdb:@term+@rn+@rel+100-21-0
   4. http://toxnet.nlm.nih.gov/cgi-bin/sis/search/r?dbs+hsdb:@term+@rn+@rel+100-21-0
   5. http://toxnet.nlm.nih.gov/cgi-bin/sis/search/r?dbs+hsdb:@term+@rn+@rel+100-21-0
   6. http://toxnet.nlm.nih.gov/cgi-bin/sis/search/r?dbs+hsdb:@term+@rn+@rel+100-21-0
   7. http://toxnet.nlm.nih.gov/cgi-bin/sis/search/r?dbs+hsdb:@term+@rn+@rel+100-21-0
   8. http://toxnet.nlm.nih.gov/cgi-bin/sis/search/r?dbs+hsdb:@term+@rn+@rel+100-21-0
   9. http://pubchem.ncbi.nlm.nih.gov/vw3d/vw3d.cgi?cid=7489
