   Color/Form

     * Liquid
     * Colorless liquid

   from [1]HSDB

   Boiling Point
        90 deg C
   from [2]HSDB

   Melting Point
        -57 deg C
   from [3]HSDB

   Density/Specific Gravity
        1.980 g/cu m 20 deg C
   from [4]HSDB

   Octanol/Water Partition Coefficient
        log Kow = 2.00
   from [5]HSDB

   Solubilities

     * Very soluble in ethanol, ethyl ether, benzene and acetone; slightly
       soluble in carbon tetrachloride.
     * Very soluble in organic solvents; miscible with chloroform
     * In water, 3.968X10+3 mg/L at 30 deg C

   from [6]HSDB

   Spectral Properties

     * Index of refraction: 1.4964 at 20 deg C/D
     * IR: 18024 (Sadtler Research Laboratories IR Grating Collection)
     * 1H NMR: 6709 (Sadtler Research Laboratories Spectral Collection)
     * 13C NMR: 130 (Stothers, Carbon-13 NMR Spectroscopy, Academic Press,
       New York)
     * MASS: 28167 (NIST/EPA/MSDC Mass Spectral database, 1990 version);
       1217 (Atlas of Mass Spectral Data, John Wiley & Sons, New York)

   from [7]HSDB

   Vapor Pressure
        50 mm Hg at 20 deg C
   from [8]HSDB

   Other Chemical/Physical Properties

     * Dipole moment: 1.31 debyes (in benzene @ 25 deg C)
     * Gibbs (free) energy of formation @ 25 deg C: -10.16 kcal/mole
       (gas); entropy @ 25 deg C: 75.56 cal/deg.mole (gas)
     * Enthalpy of formation at 25 deg C: 316.4 J/mol K; molar heat
       capacity: 67.4 J/mol K
     * Henry's Law constant = 2.12X10-3 atm-cu m/mol at 25 deg C
     * Hydroxyl radical reaction rate constant = 7.84X10-14 cu
       cm/molec-sec at 25 deg C (est)

   from [9]HSDB

   Computed Properties
   Molecular Weight                  163.82864 [g/mol]
   Molecular Formula                 CHBrCl[2]
   XLogP3-AA                         2.4
   H-Bond Donor                      0
   H-Bond Acceptor                   0
   Rotatable Bond Count              0
   Exact Mass                        161.863867
   MonoIsotopic Mass                 161.863867
   Topological Polar Surface Area    0
   Heavy Atom Count                  4
   Formal Charge                     0
   Complexity                        13.5
   Isotope Atom Count                0
   Defined Atom Stereocenter Count   0
   Undefined Atom Stereocenter Count 0
   Defined Bond Stereocenter Count   0
   Undefined Bond Stereocenter Count 0
   Covalently-Bonded Unit Count      1
   Feature 3D Hydrophobe Count       1
   Effective Rotor Count             0
   Conformer Sampling RMSD           0.4
   CID Conformer Count               [10]1

References

   1. http://toxnet.nlm.nih.gov/cgi-bin/sis/search/r?dbs+hsdb:@term+@rn+@rel+75-27-4
   2. http://toxnet.nlm.nih.gov/cgi-bin/sis/search/r?dbs+hsdb:@term+@rn+@rel+75-27-4
   3. http://toxnet.nlm.nih.gov/cgi-bin/sis/search/r?dbs+hsdb:@term+@rn+@rel+75-27-4
   4. http://toxnet.nlm.nih.gov/cgi-bin/sis/search/r?dbs+hsdb:@term+@rn+@rel+75-27-4
   5. http://toxnet.nlm.nih.gov/cgi-bin/sis/search/r?dbs+hsdb:@term+@rn+@rel+75-27-4
   6. http://toxnet.nlm.nih.gov/cgi-bin/sis/search/r?dbs+hsdb:@term+@rn+@rel+75-27-4
   7. http://toxnet.nlm.nih.gov/cgi-bin/sis/search/r?dbs+hsdb:@term+@rn+@rel+75-27-4
   8. http://toxnet.nlm.nih.gov/cgi-bin/sis/search/r?dbs+hsdb:@term+@rn+@rel+75-27-4
   9. http://toxnet.nlm.nih.gov/cgi-bin/sis/search/r?dbs+hsdb:@term+@rn+@rel+75-27-4
  10. http://pubchem.ncbi.nlm.nih.gov/vw3d/vw3d.cgi?cid=6359
