441826
  -OEChem-07051212562D

 78 81  0     1  0  0  0  0  0999 V2000
    7.9174   -2.2250    0.0000 O   0  0  0  0  0  0  0  0  0  0  0  0
    5.3194    0.2750    0.0000 O   0  0  0  0  0  0  0  0  0  0  0  0
   10.1248    0.7196    0.0000 O   0  0  0  0  0  0  0  0  0  0  0  0
    2.5405   -1.1857    0.0000 O   0  0  0  0  0  0  0  0  0  0  0  0
    6.1733   -4.2942    0.0000 O   0  0  0  0  0  0  0  0  0  0  0  0
    2.5244   -3.2773    0.0000 O   0  0  0  0  0  0  0  0  0  0  0  0
    8.8172    2.7251    0.0000 O   0  0  0  0  0  0  0  0  0  0  0  0
    7.9174   -0.2250    0.0000 C   0  0  1  0  0  0  0  0  0  0  0  0
    7.9174   -1.2250    0.0000 C   0  0  1  0  0  0  0  0  0  0  0  0
    8.8637    0.0797    0.0000 C   0  0  2  0  0  0  0  0  0  0  0  0
    6.1854   -1.2250    0.0000 C   0  0  2  0  0  0  0  0  0  0  0  0
    5.2754   -1.7318    0.0000 C   0  0  2  0  0  0  0  0  0  0  0  0
    7.0514    0.2750    0.0000 C   0  0  0  0  0  0  0  0  0  0  0  0
    7.0514   -1.7250    0.0000 C   0  0  0  0  0  0  0  0  0  0  0  0
    8.8637   -1.5297    0.0000 C   0  0  0  0  0  0  0  0  0  0  0  0
    6.1854   -0.2250    0.0000 C   0  0  1  0  0  0  0  0  0  0  0  0
    9.4473   -0.7250    0.0000 C   0  0  0  0  0  0  0  0  0  0  0  0
    5.2674   -2.7734    0.0000 C   0  0  1  0  0  0  0  0  0  0  0  0
    9.1743    1.0303    0.0000 C   0  0  2  0  0  0  0  0  0  0  0  0
    7.9174    0.7750    0.0000 C   0  0  0  0  0  0  0  0  0  0  0  0
    4.3486   -1.1678    0.0000 C   0  0  0  0  0  0  0  0  0  0  0  0
    7.0675   -2.7665    0.0000 C   0  0  0  0  0  0  0  0  0  0  0  0
    4.3319   -3.3232    0.0000 C   0  0  0  0  0  0  0  0  0  0  0  0
    5.2831   -0.7319    0.0000 C   0  0  0  0  0  0  0  0  0  0  0  0
    6.1694   -3.2943    0.0000 C   0  0  0  0  0  0  0  0  0  0  0  0
    3.4007   -1.6957    0.0000 C   0  0  1  0  0  0  0  0  0  0  0  0
    3.3923   -2.7807    0.0000 C   0  0  2  0  0  0  0  0  0  0  0  0
    9.4850    1.9808    0.0000 C   0  0  1  0  0  0  0  0  0  0  0  0
    8.2238    1.3409    0.0000 C   0  0  0  0  0  0  0  0  0  0  0  0
   10.4635    2.1870    0.0000 C   0  0  0  0  0  0  0  0  0  0  0  0
   10.7742    3.1375    0.0000 C   0  0  0  0  0  0  0  0  0  0  0  0
   11.7527    3.3437    0.0000 C   0  0  0  0  0  0  0  0  0  0  0  0
   12.0633    4.2942    0.0000 C   0  0  0  0  0  0  0  0  0  0  0  0
   12.4205    2.5994    0.0000 C   0  0  0  0  0  0  0  0  0  0  0  0
    9.7034    0.2116    0.0000 H   0  0  0  0  0  0  0  0  0  0  0  0
    6.9215   -0.8000    0.0000 H   0  0  0  0  0  0  0  0  0  0  0  0
    7.4500    0.7499    0.0000 H   0  0  0  0  0  0  0  0  0  0  0  0
    6.6529    0.7499    0.0000 H   0  0  0  0  0  0  0  0  0  0  0  0
    8.6126   -2.0966    0.0000 H   0  0  0  0  0  0  0  0  0  0  0  0
    9.4010   -1.8390    0.0000 H   0  0  0  0  0  0  0  0  0  0  0  0
    6.1854    0.3950    0.0000 H   0  0  0  0  0  0  0  0  0  0  0  0
    9.9081   -1.1397    0.0000 H   0  0  0  0  0  0  0  0  0  0  0  0
    9.9081   -0.3103    0.0000 H   0  0  0  0  0  0  0  0  0  0  0  0
    5.2706   -3.6234    0.0000 H   0  0  0  0  0  0  0  0  0  0  0  0
    8.5374    0.7750    0.0000 H   0  0  0  0  0  0  0  0  0  0  0  0
    7.9174    1.3950    0.0000 H   0  0  0  0  0  0  0  0  0  0  0  0
    7.2974    0.7750    0.0000 H   0  0  0  0  0  0  0  0  0  0  0  0
    4.7568   -0.7011    0.0000 H   0  0  0  0  0  0  0  0  0  0  0  0
    3.9586   -0.6857    0.0000 H   0  0  0  0  0  0  0  0  0  0  0  0
    7.6080   -3.0703    0.0000 H   0  0  0  0  0  0  0  0  0  0  0  0
    3.9346   -3.7991    0.0000 H   0  0  0  0  0  0  0  0  0  0  0  0
    4.7329   -3.7961    0.0000 H   0  0  0  0  0  0  0  0  0  0  0  0
    5.9031   -0.7367    0.0000 H   0  0  0  0  0  0  0  0  0  0  0  0
    5.2879   -0.1119    0.0000 H   0  0  0  0  0  0  0  0  0  0  0  0
    4.6631   -0.7271    0.0000 H   0  0  0  0  0  0  0  0  0  0  0  0
    2.8608   -2.0005    0.0000 H   0  0  0  0  0  0  0  0  0  0  0  0
    8.4544   -2.5350    0.0000 H   0  0  0  0  0  0  0  0  0  0  0  0
    2.8572   -2.4676    0.0000 H   0  0  0  0  0  0  0  0  0  0  0  0
    8.8783    1.8529    0.0000 H   0  0  0  0  0  0  0  0  0  0  0  0
    8.4164    1.9302    0.0000 H   0  0  0  0  0  0  0  0  0  0  0  0
    7.6345    1.5335    0.0000 H   0  0  0  0  0  0  0  0  0  0  0  0
    8.0312    0.7516    0.0000 H   0  0  0  0  0  0  0  0  0  0  0  0
    5.3194    0.8950    0.0000 H   0  0  0  0  0  0  0  0  0  0  0  0
   10.5863    1.1336    0.0000 H   0  0  0  0  0  0  0  0  0  0  0  0
   10.4841    1.5673    0.0000 H   0  0  0  0  0  0  0  0  0  0  0  0
   11.0773    2.0996    0.0000 H   0  0  0  0  0  0  0  0  0  0  0  0
    2.0000   -1.4895    0.0000 H   0  0  0  0  0  0  0  0  0  0  0  0
    2.5220   -3.8973    0.0000 H   0  0  0  0  0  0  0  0  0  0  0  0
    9.0098    3.3144    0.0000 H   0  0  0  0  0  0  0  0  0  0  0  0
   10.7536    3.7572    0.0000 H   0  0  0  0  0  0  0  0  0  0  0  0
   10.1603    3.2249    0.0000 H   0  0  0  0  0  0  0  0  0  0  0  0
   11.5601    2.7544    0.0000 H   0  0  0  0  0  0  0  0  0  0  0  0
   12.6526    4.1016    0.0000 H   0  0  0  0  0  0  0  0  0  0  0  0
   12.2559    4.8836    0.0000 H   0  0  0  0  0  0  0  0  0  0  0  0
   11.4740    4.4869    0.0000 H   0  0  0  0  0  0  0  0  0  0  0  0
   11.9590    2.1854    0.0000 H   0  0  0  0  0  0  0  0  0  0  0  0
   12.8346    2.1380    0.0000 H   0  0  0  0  0  0  0  0  0  0  0  0
   12.8820    3.0135    0.0000 H   0  0  0  0  0  0  0  0  0  0  0  0
  9  1  1  6  0  0  0
  1 57  1  0  0  0  0
 16  2  1  6  0  0  0
  2 63  1  0  0  0  0
 19  3  1  1  0  0  0
  3 64  1  0  0  0  0
 26  4  1  1  0  0  0
  4 67  1  0  0  0  0
  5 25  2  0  0  0  0
 27  6  1  1  0  0  0
  6 68  1  0  0  0  0
 28  7  1  6  0  0  0
  7 69  1  0  0  0  0
  8  9  1  0  0  0  0
  8 10  1  0  0  0  0
  8 13  1  0  0  0  0
  8 20  1  1  0  0  0
  9 14  1  0  0  0  0
  9 15  1  0  0  0  0
 10 17  1  0  0  0  0
 10 19  1  0  0  0  0
 10 35  1  6  0  0  0
 11 12  1  0  0  0  0
 11 14  1  0  0  0  0
 11 16  1  0  0  0  0
 11 36  1  6  0  0  0
 12 18  1  0  0  0  0
 12 21  1  0  0  0  0
 12 24  1  1  0  0  0
 13 16  1  0  0  0  0
 13 37  1  0  0  0  0
 13 38  1  0  0  0  0
 14 22  2  0  0  0  0
 15 17  1  0  0  0  0
 15 39  1  0  0  0  0
 15 40  1  0  0  0  0
 16 41  1  0  0  0  0
 17 42  1  0  0  0  0
 17 43  1  0  0  0  0
 18 23  1  0  0  0  0
 18 25  1  0  0  0  0
 18 44  1  1  0  0  0
 19 28  1  0  0  0  0
 19 29  1  0  0  0  0
 20 45  1  0  0  0  0
 20 46  1  0  0  0  0
 20 47  1  0  0  0  0
 21 26  1  0  0  0  0
 21 48  1  0  0  0  0
 21 49  1  0  0  0  0
 22 25  1  0  0  0  0
 22 50  1  0  0  0  0
 23 27  1  0  0  0  0
 23 51  1  0  0  0  0
 23 52  1  0  0  0  0
 24 53  1  0  0  0  0
 24 54  1  0  0  0  0
 24 55  1  0  0  0  0
 26 27  1  0  0  0  0
 26 56  1  0  0  0  0
 27 58  1  0  0  0  0
 28 30  1  0  0  0  0
 28 59  1  0  0  0  0
 29 60  1  0  0  0  0
 29 61  1  0  0  0  0
 29 62  1  0  0  0  0
 30 31  1  0  0  0  0
 30 65  1  0  0  0  0
 30 66  1  0  0  0  0
 31 32  1  0  0  0  0
 31 70  1  0  0  0  0
 31 71  1  0  0  0  0
 32 33  1  0  0  0  0
 32 34  1  0  0  0  0
 32 72  1  0  0  0  0
 33 73  1  0  0  0  0
 33 74  1  0  0  0  0
 33 75  1  0  0  0  0
 34 76  1  0  0  0  0
 34 77  1  0  0  0  0
 34 78  1  0  0  0  0
M  END
> <PUBCHEM_COMPOUND_CID>
441826

> <PUBCHEM_COMPOUND_CANONICALIZED>
1

> <PUBCHEM_CACTVS_COMPLEXITY>
856

> <PUBCHEM_CACTVS_HBOND_ACCEPTOR>
7

> <PUBCHEM_CACTVS_HBOND_DONOR>
6

> <PUBCHEM_CACTVS_ROTATABLE_BOND>
5

> <PUBCHEM_CACTVS_SUBSKEYS>
AAADcfB4OAAAAAAAAAAAAAAAAAAAAYAAAAAwYIAAAAAAAGCAAAAAGgAACAAAD1SggAICAAAAAgCIAqBSAAAAAAAgAAAACAEAAEgBFBIAAQAAUAAEwAAJEQPK7PTPgAAAAAAAAADCAAYAADCAAYAADAAAAA==

> <PUBCHEM_IUPAC_OPENEYE_NAME>
(2S,3R,5R,9R,10R,11R,13R,14S,17S)-17-[(1R,2R)-1,2-dihydroxy-1,5-dimethyl-hexyl]-2,3,11,14-tetrahydroxy-10,13-dimethyl-2,3,4,5,9,11,12,15,16,17-decahydro-1H-cyclopenta[a]phenanthren-6-one

> <PUBCHEM_IUPAC_CAS_NAME>
(2S,3R,5R,9R,10R,11R,13R,14S,17S)-17-[(2R,3R)-2,3-dihydroxy-6-methylheptan-2-yl]-2,3,11,14-tetrahydroxy-10,13-dimethyl-2,3,4,5,9,11,12,15,16,17-decahydro-1H-cyclopenta[a]phenanthren-6-one

> <PUBCHEM_IUPAC_NAME>
(2S,3R,5R,9R,10R,11R,13R,14S,17S)-17-[(2R,3R)-2,3-dihydroxy-6-methylheptan-2-yl]-2,3,11,14-tetrahydroxy-10,13-dimethyl-2,3,4,5,9,11,12,15,16,17-decahydro-1H-cyclopenta[a]phenanthren-6-one

> <PUBCHEM_IUPAC_SYSTEMATIC_NAME>
(2S,3R,5R,9R,10R,11R,13R,14S,17S)-10,13-dimethyl-17-[(2R,3R)-6-methyl-2,3-bis(oxidanyl)heptan-2-yl]-2,3,11,14-tetrakis(oxidanyl)-2,3,4,5,9,11,12,15,16,17-decahydro-1H-cyclopenta[a]phenanthren-6-one

> <PUBCHEM_IUPAC_TRADITIONAL_NAME>
(2S,3R,5R,9R,10R,11R,13R,14S,17S)-17-[(1R,2R)-1,2-dihydroxy-1,5-dimethyl-hexyl]-2,3,11,14-tetrahydroxy-10,13-dimethyl-2,3,4,5,9,11,12,15,16,17-decahydro-1H-cyclopenta[a]phenanthren-6-one

> <PUBCHEM_IUPAC_INCHI>
InChI=1S/C27H44O7/c1-14(2)6-7-22(32)26(5,33)21-8-9-27(34)16-11-17(28)15-10-18(29)19(30)12-24(15,3)23(16)20(31)13-25(21,27)4/h11,14-15,18-23,29-34H,6-10,12-13H2,1-5H3/t15-,18+,19-,20+,21-,22+,23+,24-,25+,26+,27+/m0/s1

> <PUBCHEM_IUPAC_INCHIKEY>
LQGNCUXDDPRDJH-UKTRSHMFSA-N

> <PUBCHEM_XLOGP3_AA>
0.7

> <PUBCHEM_EXACT_MASS>
480.308704

> <PUBCHEM_MOLECULAR_FORMULA>
C27H44O7

> <PUBCHEM_MOLECULAR_WEIGHT>
480.63406

> <PUBCHEM_OPENEYE_CAN_SMILES>
CC(C)CCC(C(C)(C1CCC2(C1(CC(C3C2=CC(=O)C4C3(CC(C(C4)O)O)C)O)C)O)O)O

> <PUBCHEM_OPENEYE_ISO_SMILES>
CC(C)CC[C@H]([C@@](C)([C@H]1CC[C@@]2([C@@]1(C[C@H]([C@H]3C2=CC(=O)[C@H]4[C@@]3(C[C@@H]([C@@H](C4)O)O)C)O)C)O)O)O

> <PUBCHEM_CACTVS_TPSA>
138

> <PUBCHEM_MONOISOTOPIC_WEIGHT>
480.308704

> <PUBCHEM_TOTAL_CHARGE>
0

> <PUBCHEM_HEAVY_ATOM_COUNT>
34

> <PUBCHEM_ATOM_DEF_STEREO_COUNT>
11

> <PUBCHEM_ATOM_UDEF_STEREO_COUNT>
0

> <PUBCHEM_BOND_DEF_STEREO_COUNT>
0

> <PUBCHEM_BOND_UDEF_STEREO_COUNT>
0

> <PUBCHEM_ISOTOPIC_ATOM_COUNT>
0

> <PUBCHEM_COMPONENT_COUNT>
1

> <PUBCHEM_CACTVS_TAUTO_COUNT>
5

> <PUBCHEM_COORDINATE_TYPE>
1
5
255

> <PUBCHEM_BONDANNOTATIONS>
9  1  6
10  35  6
11  36  6
12  24  5
18  44  5
16  2  6
19  3  5
26  4  5
27  6  5
28  7  6
8  20  5

$$$$

