   Color/Form
        Colorless solid
   from [1]HSDB

   Boiling Point
        156 deg C @ 1 mm Hg
   from [2]HSDB

   Melting Point
        44.6 deg C
   from [3]HSDB

   Density/Specific Gravity
        1.48 g/ml (25 deg C)
   from [4]HSDB

   Octanol/Water Partition Coefficient
        log Kow = 6.50 at 20 deg C
   from [5]HSDB

   Solubilities

     * Soluble in most common organic solvents.
     * In acetone, hexane, toluene, dichloromethane, ethyl acetate >500,
       methanol 263 (all in g/l, 21 deg C).
     * In water, 0.02 mg/l @ 20 deg C [Shiu WY et al; Rev Environ Contam
       Toxicol 116: 15-187 (1990)] [6]PubMed Abstract

   from [7]HSDB

   Vapor Pressure
        6.00X10-5 mm Hg @ 20 deg C
   from [8]HSDB

   Other Chemical/Physical Properties

     * Off-white; MP: 39-43 deg C /Technical/
     * MP: 44 deg C; vapor pressure: 80 mPa @ 20 deg C; water solubility:
       20 ug/l /Mixture of two isomers/

   from [9]HSDB

   Computed Properties
   Molecular Weight                  418.733682 [g/mol]
   Molecular Formula                 C[17]H[14]ClF[7]O[2]
   XLogP3-AA                         5.4
   H-Bond Donor                      0
   H-Bond Acceptor                   9
   Rotatable Bond Count              5
   Exact Mass                        418.057055
   MonoIsotopic Mass                 418.057055
   Topological Polar Surface Area    26.3
   Heavy Atom Count                  27
   Formal Charge                     0
   Complexity                        591
   Isotope Atom Count                0
   Defined Atom Stereocenter Count   0
   Undefined Atom Stereocenter Count 2
   Defined Bond Stereocenter Count   1
   Undefined Bond Stereocenter Count 0
   Covalently-Bonded Unit Count      1
   Feature 3D Acceptor Count         1
   Feature 3D Hydrophobe Count       1
   Feature 3D Ring Count             1
   Effective Rotor Count             6.6
   Conformer Sampling RMSD           0.8
   CID Conformer Count               [10]335

References

   1. http://toxnet.nlm.nih.gov/cgi-bin/sis/search/r?dbs+hsdb:@term+@rn+@rel+79538-32-2
   2. http://toxnet.nlm.nih.gov/cgi-bin/sis/search/r?dbs+hsdb:@term+@rn+@rel+79538-32-2
   3. http://toxnet.nlm.nih.gov/cgi-bin/sis/search/r?dbs+hsdb:@term+@rn+@rel+79538-32-2
   4. http://toxnet.nlm.nih.gov/cgi-bin/sis/search/r?dbs+hsdb:@term+@rn+@rel+79538-32-2
   5. http://toxnet.nlm.nih.gov/cgi-bin/sis/search/r?dbs+hsdb:@term+@rn+@rel+79538-32-2
   6. http://www.ncbi.nlm.nih.gov/entrez/query.fcgi?cmd=Retrieve&db=pubmed&dopt=Abstract&list_uids=2205893
   7. http://toxnet.nlm.nih.gov/cgi-bin/sis/search/r?dbs+hsdb:@term+@rn+@rel+79538-32-2
   8. http://toxnet.nlm.nih.gov/cgi-bin/sis/search/r?dbs+hsdb:@term+@rn+@rel+79538-32-2
   9. http://toxnet.nlm.nih.gov/cgi-bin/sis/search/r?dbs+hsdb:@term+@rn+@rel+79538-32-2
  10. http://pubchem.ncbi.nlm.nih.gov/vw3d/vw3d.cgi?cid=5281874
