   Color/Form

     * Colorless liquid
     * Colorless to pale-yellow liquid ...

   from [1]HSDB

   Odor

     * Pleasant odor
     * ... Pleasant, aromatic odor

   from [2]HSDB

   Boiling Point
        180.1 deg C at 760 mm Hg
   from [3]HSDB

   Melting Point
        -16.7 deg C
   from [4]HSDB

   Critical Temperature and Pressure
        Critical temperature: 417.2 deg C; Critical pressure: 4031 kPa
   from [5]HSDB

   Density/Specific Gravity
        1.3059 g/mL at 20 deg C/4 deg C
   from [6]HSDB

   Heat of Combustion
        -7969 Btu/lb= -4427 cal/g= -185.4X10+5 J/kg
   from [7]HSDB

   Heat of Vaporization
        311 J/g
   from [8]HSDB

   Octanol/Water Partition Coefficient
        log Kow = 3.43
   from [9]HSDB

   Solubilities

     * Miscible with alcohol, ether, benzene.
     * In water, 156 mg/L at 25 deg C

   from [10]HSDB

   Spectral Properties

     * Intense mass spectral peaks: 146 m/z (100%), 148 m/z (64%), 111 m/z
       (38%), 75 m/z (23%)
     * IR: 4275 (Coblentz Society Spectral Collection)
     * UV: 303 (Sadtler Research Laboratories Spectral Collection)
     * NMR: 746 (Sadtler Research Laboratories Spectral Collection)
     * MASS: 816 (Atlas of Mass Spectral Data, John Wiley & Sons, New
       York)

   from [11]HSDB

   Surface Tension
        36.61 dyn/cm
   from [12]HSDB

   Vapor Density
        5.05 (Air = 1)
   from [13]HSDB

   Vapor Pressure
        1.36 mm Hg at 25 deg C
   from [14]HSDB

   Viscosity
        1.324 mPa.s at 25 deg C
   from [15]HSDB

   Other Chemical/Physical Properties

     * PERCENT IN SATURATED AIR: 0.2 (25 DEG C)
     * EQUIVALENCIES: 1 MG/L= 166.3 PPM AND 1 PPM= 6.01 MG/CU M @ 25 DEG C
       AND 760 MM HG
     * Partition coefficients at 37 deg C for 1,2-dichlorobenzene into
       blood= 423; into oil= 39,900. [Sato A, Nakajima T; Scand J Work
       Environ Health 13: 81-93 (1987)] [16]PubMed Abstract
     * Heat of fusion 21.01 cal/g
     * Saturated liquid density 81.45 lb/cu ft @ 70 deg F
     * Liquid heat capacity: 1.159 J/g
     * Liquid thermal conductivity = 0.121 W/w.k
     * Saturated vapor pressure= 0.025 lb/sq in @ 70 deg F
     * Saturated vapor density= 0.00065 lb/cu ft @ 70 deg F
     * Ideal gas heat capacity= 0.184 Btu/lb ft @ 75 deg F
     * Dielectric constant = 12.12 at 293.2 K
     * Dipole moment: 2.50 D (D= debye)
     * Heat of Fusion = 86.11 J/g
     * Heat of Formation of Liquid = -125.23 J/g
     * Henry's Law constant = 0.0015 atm-cu m/mol at 20 deg C
     * Hydroxyl radical reaction rate constant = 4.2X10-13 cu cm/molec-sec
       at 25 deg C

   from [17]HSDB

   Computed Properties
   Molecular Weight                  147.00196 [g/mol]
   Molecular Formula                 C[6]H[4]Cl[2]
   XLogP3                            3.4
   H-Bond Donor                      0
   H-Bond Acceptor                   0
   Rotatable Bond Count              0
   Exact Mass                        145.969005
   MonoIsotopic Mass                 145.969005
   Topological Polar Surface Area    0
   Heavy Atom Count                  8
   Formal Charge                     0
   Complexity                        62.9
   Isotope Atom Count                0
   Defined Atom Stereocenter Count   0
   Undefined Atom Stereocenter Count 0
   Defined Bond Stereocenter Count   0
   Undefined Bond Stereocenter Count 0
   Covalently-Bonded Unit Count      1
   Feature 3D Ring Count             1
   Effective Rotor Count             0
   Conformer Sampling RMSD           0.4
   CID Conformer Count               [18]1

References

   1. http://toxnet.nlm.nih.gov/cgi-bin/sis/search/r?dbs+hsdb:@term+@rn+@rel+95-50-1
   2. http://toxnet.nlm.nih.gov/cgi-bin/sis/search/r?dbs+hsdb:@term+@rn+@rel+95-50-1
   3. http://toxnet.nlm.nih.gov/cgi-bin/sis/search/r?dbs+hsdb:@term+@rn+@rel+95-50-1
   4. http://toxnet.nlm.nih.gov/cgi-bin/sis/search/r?dbs+hsdb:@term+@rn+@rel+95-50-1
   5. http://toxnet.nlm.nih.gov/cgi-bin/sis/search/r?dbs+hsdb:@term+@rn+@rel+95-50-1
   6. http://toxnet.nlm.nih.gov/cgi-bin/sis/search/r?dbs+hsdb:@term+@rn+@rel+95-50-1
   7. http://toxnet.nlm.nih.gov/cgi-bin/sis/search/r?dbs+hsdb:@term+@rn+@rel+95-50-1
   8. http://toxnet.nlm.nih.gov/cgi-bin/sis/search/r?dbs+hsdb:@term+@rn+@rel+95-50-1
   9. http://toxnet.nlm.nih.gov/cgi-bin/sis/search/r?dbs+hsdb:@term+@rn+@rel+95-50-1
  10. http://toxnet.nlm.nih.gov/cgi-bin/sis/search/r?dbs+hsdb:@term+@rn+@rel+95-50-1
  11. http://toxnet.nlm.nih.gov/cgi-bin/sis/search/r?dbs+hsdb:@term+@rn+@rel+95-50-1
  12. http://toxnet.nlm.nih.gov/cgi-bin/sis/search/r?dbs+hsdb:@term+@rn+@rel+95-50-1
  13. http://toxnet.nlm.nih.gov/cgi-bin/sis/search/r?dbs+hsdb:@term+@rn+@rel+95-50-1
  14. http://toxnet.nlm.nih.gov/cgi-bin/sis/search/r?dbs+hsdb:@term+@rn+@rel+95-50-1
  15. http://toxnet.nlm.nih.gov/cgi-bin/sis/search/r?dbs+hsdb:@term+@rn+@rel+95-50-1
  16. http://www.ncbi.nlm.nih.gov/entrez/query.fcgi?cmd=Retrieve&db=pubmed&dopt=Abstract&list_uids=3299685
  17. http://toxnet.nlm.nih.gov/cgi-bin/sis/search/r?dbs+hsdb:@term+@rn+@rel+95-50-1
  18. http://pubchem.ncbi.nlm.nih.gov/vw3d/vw3d.cgi?cid=7239
