   Dissociation Constants
        pKa = 7.7 at 25 deg C (primary amine)
   from [1]HSDB

   Octanol/Water Partition Coefficient
        log Kow = 0.95 (est)
   from [2]HSDB

   Solubilities
        In water, 1.6X10+3 mg/L at 25 deg C (est)
   from [3]HSDB

   Vapor Pressure
        1.3X10-8 mm Hg at 25 deg C (est)
   from [4]HSDB

   Other Chemical/Physical Properties

     * Mol wt: 410.40. White crystalline solid /Phosphate/
     * Henry's Law constant = 2.9X10-16 atm-cu m/mol at 25 deg C (est)
     * Hydroxyl radical reaction rate constant = 1.3X10-10 cu
       cm/molecule-sec at 25 deg C (est)

   from [5]HSDB

   Computed Properties
   Molecular Weight                  312.40452 [g/mol]
   Molecular Formula                 C[16]H[28]N[2]O[4]
   XLogP3-AA                         1.1
   H-Bond Donor                      2
   H-Bond Acceptor                   5
   Rotatable Bond Count              8
   Tautomer Count                    2
   Exact Mass                        312.204907
   MonoIsotopic Mass                 312.204907
   Topological Polar Surface Area    90.6
   Heavy Atom Count                  22
   Formal Charge                     0
   Complexity                        418
   Isotope Atom Count                0
   Defined Atom Stereocenter Count   3
   Undefined Atom Stereocenter Count 0
   Defined Bond Stereocenter Count   0
   Undefined Bond Stereocenter Count 0
   Covalently-Bonded Unit Count      1
   Feature 3D Acceptor Count         3
   Feature 3D Donor Count            2
   Feature 3D Cation Count           1
   Feature 3D Hydrophobe Count       2
   Feature 3D Ring Count             1
   Effective Rotor Count             9.8
   Conformer Sampling RMSD           1
   CID Conformer Count               [6]30

References

   1. http://toxnet.nlm.nih.gov/cgi-bin/sis/search/r?dbs+hsdb:@term+@rn+@rel+196618-13-0
   2. http://toxnet.nlm.nih.gov/cgi-bin/sis/search/r?dbs+hsdb:@term+@rn+@rel+196618-13-0
   3. http://toxnet.nlm.nih.gov/cgi-bin/sis/search/r?dbs+hsdb:@term+@rn+@rel+196618-13-0
   4. http://toxnet.nlm.nih.gov/cgi-bin/sis/search/r?dbs+hsdb:@term+@rn+@rel+196618-13-0
   5. http://toxnet.nlm.nih.gov/cgi-bin/sis/search/r?dbs+hsdb:@term+@rn+@rel+196618-13-0
   6. http://pubchem.ncbi.nlm.nih.gov/vw3d/vw3d.cgi?cid=65028
