8954
  -OEChem-06261203162D

 41 40  0     1  0  0  0  0  0999 V2000
    3.7320    0.0000    0.0000 S   0  0  0  0  0  0  0  0  0  0  0  0
    2.8660   -5.5000    0.0000 S   0  0  3  0  0  0  0  0  0  0  0  0
    4.5981    5.5000    0.0000 S   0  0  3  0  0  0  0  0  0  0  0  0
    5.4641    7.0000    0.0000 Na  0  3  0  0  0  0  0  0  0  0  0  0
    2.0000   -7.0000    0.0000 Na  0  3  0  0  0  0  0  0  0  0  0  0
    4.7320    0.0000    0.0000 O   0  0  0  0  0  0  0  0  0  0  0  0
    2.7320    0.0000    0.0000 O   0  0  0  0  0  0  0  0  0  0  0  0
    5.4641    6.0000    0.0000 O   0  5  0  0  0  0  0  0  0  0  0  0
    2.0000   -6.0000    0.0000 O   0  5  0  0  0  0  0  0  0  0  0  0
    3.7320   -6.0000    0.0000 O   0  0  0  0  0  0  0  0  0  0  0  0
    3.7320    6.0000    0.0000 O   0  0  0  0  0  0  0  0  0  0  0  0
    3.7320   -4.0000    0.0000 N   0  0  0  0  0  0  0  0  0  0  0  0
    3.7320    4.0000    0.0000 N   0  0  0  0  0  0  0  0  0  0  0  0
    3.7320   -1.0000    0.0000 C   0  0  0  0  0  0  0  0  0  0  0  0
    3.7320    1.0000    0.0000 C   0  0  0  0  0  0  0  0  0  0  0  0
    2.8660   -1.5000    0.0000 C   0  0  0  0  0  0  0  0  0  0  0  0
    4.5981    1.5000    0.0000 C   0  0  0  0  0  0  0  0  0  0  0  0
    4.5981   -1.5000    0.0000 C   0  0  0  0  0  0  0  0  0  0  0  0
    2.8660    1.5000    0.0000 C   0  0  0  0  0  0  0  0  0  0  0  0
    3.7320   -3.0000    0.0000 C   0  0  0  0  0  0  0  0  0  0  0  0
    3.7320    3.0000    0.0000 C   0  0  0  0  0  0  0  0  0  0  0  0
    2.8660   -2.5000    0.0000 C   0  0  0  0  0  0  0  0  0  0  0  0
    4.5981    2.5000    0.0000 C   0  0  0  0  0  0  0  0  0  0  0  0
    4.5981   -2.5000    0.0000 C   0  0  0  0  0  0  0  0  0  0  0  0
    2.8660    2.5000    0.0000 C   0  0  0  0  0  0  0  0  0  0  0  0
    2.8660   -4.5000    0.0000 C   0  0  0  0  0  0  0  0  0  0  0  0
    4.5981    4.5000    0.0000 C   0  0  0  0  0  0  0  0  0  0  0  0
    2.3291   -1.1900    0.0000 H   0  0  0  0  0  0  0  0  0  0  0  0
    5.1350    1.1900    0.0000 H   0  0  0  0  0  0  0  0  0  0  0  0
    5.1350   -1.1900    0.0000 H   0  0  0  0  0  0  0  0  0  0  0  0
    2.3291    1.1900    0.0000 H   0  0  0  0  0  0  0  0  0  0  0  0
    2.3291   -2.8100    0.0000 H   0  0  0  0  0  0  0  0  0  0  0  0
    5.1350    2.8100    0.0000 H   0  0  0  0  0  0  0  0  0  0  0  0
    5.1350   -2.8100    0.0000 H   0  0  0  0  0  0  0  0  0  0  0  0
    2.3291    2.8100    0.0000 H   0  0  0  0  0  0  0  0  0  0  0  0
    4.2690   -4.3100    0.0000 H   0  0  0  0  0  0  0  0  0  0  0  0
    3.1951    4.3100    0.0000 H   0  0  0  0  0  0  0  0  0  0  0  0
    4.8101    3.9174    0.0000 H   0  0  0  0  0  0  0  0  0  0  0  0
    5.2087    4.6077    0.0000 H   0  0  0  0  0  0  0  0  0  0  0  0
    2.6540   -3.9174    0.0000 H   0  0  0  0  0  0  0  0  0  0  0  0
    2.2554   -4.6077    0.0000 H   0  0  0  0  0  0  0  0  0  0  0  0
  1  6  2  0  0  0  0
  1  7  2  0  0  0  0
  1 14  1  0  0  0  0
  1 15  1  0  0  0  0
  2  9  1  0  0  0  0
  2 10  2  0  0  0  0
  2 26  1  0  0  0  0
  3  8  1  0  0  0  0
  3 11  2  0  0  0  0
  3 27  1  0  0  0  0
 12 20  1  0  0  0  0
 12 26  1  0  0  0  0
 12 36  1  0  0  0  0
 13 21  1  0  0  0  0
 13 27  1  0  0  0  0
 13 37  1  0  0  0  0
 14 16  2  0  0  0  0
 14 18  1  0  0  0  0
 15 17  2  0  0  0  0
 15 19  1  0  0  0  0
 16 22  1  0  0  0  0
 16 28  1  0  0  0  0
 17 23  1  0  0  0  0
 17 29  1  0  0  0  0
 18 24  2  0  0  0  0
 18 30  1  0  0  0  0
 19 25  2  0  0  0  0
 19 31  1  0  0  0  0
 20 22  2  0  0  0  0
 20 24  1  0  0  0  0
 21 23  2  0  0  0  0
 21 25  1  0  0  0  0
 22 32  1  0  0  0  0
 23 33  1  0  0  0  0
 24 34  1  0  0  0  0
 25 35  1  0  0  0  0
 26 40  1  0  0  0  0
 26 41  1  0  0  0  0
 27 38  1  0  0  0  0
 27 39  1  0  0  0  0
M  CHG  4   4   1   5   1   8  -1   9  -1
M  END
> <PUBCHEM_COMPOUND_CID>
8954

> <PUBCHEM_COMPOUND_CANONICALIZED>
1

> <PUBCHEM_CACTVS_COMPLEXITY>
509

> <PUBCHEM_CACTVS_HBOND_ACCEPTOR>
10

> <PUBCHEM_CACTVS_HBOND_DONOR>
2

> <PUBCHEM_CACTVS_ROTATABLE_BOND>
6

> <PUBCHEM_CACTVS_SUBSKEYS>
AAADccBzODBgAAAAAAAAAAAAAAAAAAAAAAAwYAAAAAAAAAABQAAAHAQQAAAACAiBUASwwYLAAAqAACRCQHDKAAAhChAIiJgIZIgIICLgkZGEIAhgkABoyAcQAAAAAAQAAAAAAAAACAAAAAAAAAAAAAAAAA==

> <PUBCHEM_IUPAC_OPENEYE_NAME>
disodium [4-[4-(sulfinatomethylamino)phenyl]sulfonylanilino]methanesulfinate

> <PUBCHEM_IUPAC_CAS_NAME>
disodium [4-[4-(sulfinatomethylamino)phenyl]sulfonylanilino]methanesulfinate

> <PUBCHEM_IUPAC_NAME>
disodium [4-[4-(sulfinatomethylamino)phenyl]sulfonylanilino]methanesulfinate

> <PUBCHEM_IUPAC_SYSTEMATIC_NAME>
disodium [[4-[4-(sulfinatomethylamino)phenyl]sulfonylphenyl]amino]methanesulfinate

> <PUBCHEM_IUPAC_TRADITIONAL_NAME>
disodium [4-[4-(sulfinatomethylamino)phenyl]sulfonylanilino]methanesulfinate

> <PUBCHEM_IUPAC_INCHI>
InChI=1S/C14H16N2O6S3.2Na/c17-23(18)9-15-11-1-5-13(6-2-11)25(21,22)14-7-3-12(4-8-14)16-10-24(19)20;;/h1-8,15-16H,9-10H2,(H,17,18)(H,19,20);;/q;2*+1/p-2

> <PUBCHEM_IUPAC_INCHIKEY>
AZBNFLZFSZDPQF-UHFFFAOYSA-L

> <PUBCHEM_EXACT_MASS>
447.980938

> <PUBCHEM_MOLECULAR_FORMULA>
C14H14N2Na2O6S3

> <PUBCHEM_MOLECULAR_WEIGHT>
448.445299

> <PUBCHEM_OPENEYE_CAN_SMILES>
C1=CC(=CC=C1NCS(=O)[O-])S(=O)(=O)C2=CC=C(C=C2)NCS(=O)[O-].[Na+].[Na+]

> <PUBCHEM_OPENEYE_ISO_SMILES>
C1=CC(=CC=C1NCS(=O)[O-])S(=O)(=O)C2=CC=C(C=C2)NCS(=O)[O-].[Na+].[Na+]

> <PUBCHEM_CACTVS_TPSA>
185

> <PUBCHEM_MONOISOTOPIC_WEIGHT>
447.980938

> <PUBCHEM_TOTAL_CHARGE>
0

> <PUBCHEM_HEAVY_ATOM_COUNT>
27

> <PUBCHEM_ATOM_DEF_STEREO_COUNT>
0

> <PUBCHEM_ATOM_UDEF_STEREO_COUNT>
0

> <PUBCHEM_BOND_DEF_STEREO_COUNT>
0

> <PUBCHEM_BOND_UDEF_STEREO_COUNT>
0

> <PUBCHEM_ISOTOPIC_ATOM_COUNT>
0

> <PUBCHEM_COMPONENT_COUNT>
3

> <PUBCHEM_CACTVS_TAUTO_COUNT>
1

> <PUBCHEM_COORDINATE_TYPE>
1
5
255

> <PUBCHEM_BONDANNOTATIONS>
14  16  8
14  18  8
15  17  8
15  19  8
16  22  8
17  23  8
18  24  8
19  25  8
20  22  8
20  24  8
21  23  8
21  25  8

$$$$

