6330
  -OEChem-06261201152D

 14 12  0     0  0  0  0  0  0999 V2000
    1.4030    0.6200    0.0000 N   0  0  0  0  0  0  0  0  0  0  0  0
    2.2690    1.1200    0.0000 C   0  0  0  0  0  0  0  0  0  0  0  0
    0.5369    1.1200    0.0000 C   0  0  0  0  0  0  0  0  0  0  0  0
    1.4030    4.2769    0.0000 B   0  0  0  0  0  0  0  0  0  0  0  0
    1.4030    0.0000    0.0000 H   0  0  0  0  0  0  0  0  0  0  0  0
    2.5790    0.5831    0.0000 H   0  0  0  0  0  0  0  0  0  0  0  0
    2.8059    1.4300    0.0000 H   0  0  0  0  0  0  0  0  0  0  0  0
    1.9590    1.6569    0.0000 H   0  0  0  0  0  0  0  0  0  0  0  0
    0.8469    1.6569    0.0000 H   0  0  0  0  0  0  0  0  0  0  0  0
    0.0000    1.4300    0.0000 H   0  0  0  0  0  0  0  0  0  0  0  0
    0.2269    0.5831    0.0000 H   0  0  0  0  0  0  0  0  0  0  0  0
    1.9399    4.5869    0.0000 H   0  0  0  0  0  0  0  0  0  0  0  0
    0.8660    4.5869    0.0000 H   0  0  0  0  0  0  0  0  0  0  0  0
    1.4030    3.6569    0.0000 H   0  0  0  0  0  0  0  0  0  0  0  0
  1  2  1  0  0  0  0
  1  3  1  0  0  0  0
  1  5  1  0  0  0  0
  2  6  1  0  0  0  0
  2  7  1  0  0  0  0
  2  8  1  0  0  0  0
  3  9  1  0  0  0  0
  3 10  1  0  0  0  0
  3 11  1  0  0  0  0
  4 12  1  0  0  0  0
  4 13  1  0  0  0  0
  4 14  1  0  0  0  0
M  END
> <PUBCHEM_COMPOUND_CID>
6330

> <PUBCHEM_COMPOUND_CANONICALIZED>
1

> <PUBCHEM_CACTVS_COMPLEXITY>
2.8

> <PUBCHEM_CACTVS_HBOND_ACCEPTOR>
1

> <PUBCHEM_CACTVS_HBOND_DONOR>
1

> <PUBCHEM_CACTVS_ROTATABLE_BOND>
0

> <PUBCHEM_CACTVS_SUBSKEYS>
AAADccJCAAAAAAAAAAAAAAAAAAAAAAAAAAAAAAAAAAAAAAAAAACAFAAQAAAAAAAAAAQCAALAAAAAAAAAAAAAAAAAAAAAAIAIAAAAAAAAAAAAAAAAAAAAAAAAAAAAAAAAAAAAAAAAAAAAAAAAAAAAAAAAAA==

> <PUBCHEM_IUPAC_OPENEYE_NAME>
borane; N-methylmethanamine

> <PUBCHEM_IUPAC_CAS_NAME>
borane; N-methylmethanamine

> <PUBCHEM_IUPAC_NAME>
borane; N-methylmethanamine

> <PUBCHEM_IUPAC_SYSTEMATIC_NAME>
borane; N-methylmethanamine

> <PUBCHEM_IUPAC_TRADITIONAL_NAME>
borane; dimethylamine

> <PUBCHEM_IUPAC_INCHI>
InChI=1S/C2H7N.BH3/c1-3-2;/h3H,1-2H3;1H3

> <PUBCHEM_IUPAC_INCHIKEY>
FTDUHBOCJSQEKS-UHFFFAOYSA-N

> <PUBCHEM_EXACT_MASS>
59.09063

> <PUBCHEM_MOLECULAR_FORMULA>
C2H10BN

> <PUBCHEM_MOLECULAR_WEIGHT>
58.9185

> <PUBCHEM_OPENEYE_CAN_SMILES>
B.CNC

> <PUBCHEM_OPENEYE_ISO_SMILES>
B.CNC

> <PUBCHEM_CACTVS_TPSA>
12

> <PUBCHEM_MONOISOTOPIC_WEIGHT>
59.09063

> <PUBCHEM_TOTAL_CHARGE>
0

> <PUBCHEM_HEAVY_ATOM_COUNT>
4

> <PUBCHEM_ATOM_DEF_STEREO_COUNT>
0

> <PUBCHEM_ATOM_UDEF_STEREO_COUNT>
0

> <PUBCHEM_BOND_DEF_STEREO_COUNT>
0

> <PUBCHEM_BOND_UDEF_STEREO_COUNT>
0

> <PUBCHEM_ISOTOPIC_ATOM_COUNT>
0

> <PUBCHEM_COMPONENT_COUNT>
2

> <PUBCHEM_CACTVS_TAUTO_COUNT>
1

> <PUBCHEM_COORDINATE_TYPE>
1
5
255

$$$$

