247022
  -OEChem-07051213072D

 54 57  0     1  0  0  0  0  0999 V2000
    3.9271    1.1907    0.0000 O   0  0  0  0  0  0  0  0  0  0  0  0
    7.7820    1.9460    0.0000 N   0  0  0  0  0  0  0  0  0  0  0  0
    4.7931   -0.3093    0.0000 C   0  0  1  0  0  0  0  0  0  0  0  0
    5.6591   -0.8093    0.0000 C   0  0  2  0  0  0  0  0  0  0  0  0
    6.5251   -0.3093    0.0000 C   0  0  1  0  0  0  0  0  0  0  0  0
    6.5251    0.6907    0.0000 C   0  0  2  0  0  0  0  0  0  0  0  0
    3.8831   -0.8161    0.0000 C   0  0  2  0  0  0  0  0  0  0  0  0
    3.8751   -1.8577    0.0000 C   0  0  1  0  0  0  0  0  0  0  0  0
    4.7931    0.6907    0.0000 C   0  0  2  0  0  0  0  0  0  0  0  0
    5.6591    1.1907    0.0000 C   0  0  0  0  0  0  0  0  0  0  0  0
    5.6752   -1.8508    0.0000 C   0  0  0  0  0  0  0  0  0  0  0  0
    7.4714    0.9955    0.0000 C   0  0  2  0  0  0  0  0  0  0  0  0
    7.4714   -0.6140    0.0000 C   0  0  0  0  0  0  0  0  0  0  0  0
    4.7771   -2.3785    0.0000 C   0  0  0  0  0  0  0  0  0  0  0  0
    2.9562   -0.2520    0.0000 C   0  0  0  0  0  0  0  0  0  0  0  0
    8.0550    0.1907    0.0000 C   0  0  0  0  0  0  0  0  0  0  0  0
    2.9396   -2.4074    0.0000 C   0  0  0  0  0  0  0  0  0  0  0  0
    6.5251    1.6907    0.0000 C   0  0  0  0  0  0  0  0  0  0  0  0
    3.8908    0.1839    0.0000 C   0  0  0  0  0  0  0  0  0  0  0  0
    2.0084   -0.7800    0.0000 C   0  0  0  0  0  0  0  0  0  0  0  0
    2.0000   -1.8650    0.0000 C   0  0  0  0  0  0  0  0  0  0  0  0
    5.5292    0.1157    0.0000 H   0  0  0  0  0  0  0  0  0  0  0  0
    6.3985   -1.2286    0.0000 H   0  0  0  0  0  0  0  0  0  0  0  0
    6.6151   -1.1545    0.0000 H   0  0  0  0  0  0  0  0  0  0  0  0
    3.8783   -2.7077    0.0000 H   0  0  0  0  0  0  0  0  0  0  0  0
    4.2562    0.3807    0.0000 H   0  0  0  0  0  0  0  0  0  0  0  0
    6.0576    1.6657    0.0000 H   0  0  0  0  0  0  0  0  0  0  0  0
    5.2606    1.6657    0.0000 H   0  0  0  0  0  0  0  0  0  0  0  0
    5.8932   -2.4312    0.0000 H   0  0  0  0  0  0  0  0  0  0  0  0
    6.2843   -1.7353    0.0000 H   0  0  0  0  0  0  0  0  0  0  0  0
    8.0838    1.0916    0.0000 H   0  0  0  0  0  0  0  0  0  0  0  0
    7.2203   -1.1809    0.0000 H   0  0  0  0  0  0  0  0  0  0  0  0
    8.0087   -0.9232    0.0000 H   0  0  0  0  0  0  0  0  0  0  0  0
    4.3798   -2.8545    0.0000 H   0  0  0  0  0  0  0  0  0  0  0  0
    5.1781   -2.8514    0.0000 H   0  0  0  0  0  0  0  0  0  0  0  0
    3.3645    0.2146    0.0000 H   0  0  0  0  0  0  0  0  0  0  0  0
    2.5663    0.2300    0.0000 H   0  0  0  0  0  0  0  0  0  0  0  0
    8.5158   -0.2240    0.0000 H   0  0  0  0  0  0  0  0  0  0  0  0
    8.5158    0.6055    0.0000 H   0  0  0  0  0  0  0  0  0  0  0  0
    2.5423   -2.8834    0.0000 H   0  0  0  0  0  0  0  0  0  0  0  0
    3.3406   -2.8803    0.0000 H   0  0  0  0  0  0  0  0  0  0  0  0
    7.1451    1.6907    0.0000 H   0  0  0  0  0  0  0  0  0  0  0  0
    6.5251    2.3107    0.0000 H   0  0  0  0  0  0  0  0  0  0  0  0
    5.9051    1.6907    0.0000 H   0  0  0  0  0  0  0  0  0  0  0  0
    4.5108    0.1791    0.0000 H   0  0  0  0  0  0  0  0  0  0  0  0
    3.8956    0.8038    0.0000 H   0  0  0  0  0  0  0  0  0  0  0  0
    3.2708    0.1886    0.0000 H   0  0  0  0  0  0  0  0  0  0  0  0
    1.8038   -0.1947    0.0000 H   0  0  0  0  0  0  0  0  0  0  0  0
    1.3967   -0.8814    0.0000 H   0  0  0  0  0  0  0  0  0  0  0  0
    1.3900   -1.7542    0.0000 H   0  0  0  0  0  0  0  0  0  0  0  0
    1.7864   -2.4470    0.0000 H   0  0  0  0  0  0  0  0  0  0  0  0
    8.3887    2.0738    0.0000 H   0  0  0  0  0  0  0  0  0  0  0  0
    7.3680    2.4074    0.0000 H   0  0  0  0  0  0  0  0  0  0  0  0
    3.9271    1.8107    0.0000 H   0  0  0  0  0  0  0  0  0  0  0  0
  9  1  1  1  0  0  0
  1 54  1  0  0  0  0
 12  2  1  1  0  0  0
  2 52  1  0  0  0  0
  2 53  1  0  0  0  0
  3  4  1  0  0  0  0
  3  7  1  0  0  0  0
  3  9  1  0  0  0  0
  3 22  1  6  0  0  0
  4  5  1  0  0  0  0
  4 11  1  0  0  0  0
  4 23  1  1  0  0  0
  5  6  1  0  0  0  0
  5 13  1  0  0  0  0
  5 24  1  6  0  0  0
  6 10  1  0  0  0  0
  6 12  1  0  0  0  0
  6 18  1  1  0  0  0
  7  8  1  0  0  0  0
  7 15  1  0  0  0  0
  7 19  1  1  0  0  0
  8 14  1  0  0  0  0
  8 17  1  0  0  0  0
  8 25  1  6  0  0  0
  9 10  1  0  0  0  0
  9 26  1  0  0  0  0
 10 27  1  0  0  0  0
 10 28  1  0  0  0  0
 11 14  1  0  0  0  0
 11 29  1  0  0  0  0
 11 30  1  0  0  0  0
 12 16  1  0  0  0  0
 12 31  1  0  0  0  0
 13 16  1  0  0  0  0
 13 32  1  0  0  0  0
 13 33  1  0  0  0  0
 14 34  1  0  0  0  0
 14 35  1  0  0  0  0
 15 20  1  0  0  0  0
 15 36  1  0  0  0  0
 15 37  1  0  0  0  0
 16 38  1  0  0  0  0
 16 39  1  0  0  0  0
 17 21  1  0  0  0  0
 17 40  1  0  0  0  0
 17 41  1  0  0  0  0
 18 42  1  0  0  0  0
 18 43  1  0  0  0  0
 18 44  1  0  0  0  0
 19 45  1  0  0  0  0
 19 46  1  0  0  0  0
 19 47  1  0  0  0  0
 20 21  1  0  0  0  0
 20 48  1  0  0  0  0
 20 49  1  0  0  0  0
 21 50  1  0  0  0  0
 21 51  1  0  0  0  0
M  END
> <PUBCHEM_COMPOUND_CID>
247022

> <PUBCHEM_COMPOUND_CANONICALIZED>
1

> <PUBCHEM_CACTVS_COMPLEXITY>
424

> <PUBCHEM_CACTVS_HBOND_ACCEPTOR>
2

> <PUBCHEM_CACTVS_HBOND_DONOR>
2

> <PUBCHEM_CACTVS_ROTATABLE_BOND>
0

> <PUBCHEM_CACTVS_SUBSKEYS>
AAADcfB6IAAAAAAAAAAAAAAAAAAAAYAAAAAwYMAAAAAAAGDAAAAAHgAQCAAADzzhgAYCAABAAgAAAAAAAAAAAAAAAAAAAIAAAAAAEAIAgAAAQAAEEAAAAAGwwPAPgAAAAAAAAADAAAYAADAAACAACQAAAA==

> <PUBCHEM_IUPAC_OPENEYE_NAME>
(5R,8S,9S,10S,11S,13S,14S,17S)-17-amino-10,13-dimethyl-2,3,4,5,6,7,8,9,11,12,14,15,16,17-tetradecahydro-1H-cyclopenta[a]phenanthren-11-ol

> <PUBCHEM_IUPAC_CAS_NAME>
(5R,8S,9S,10S,11S,13S,14S,17S)-17-amino-10,13-dimethyl-2,3,4,5,6,7,8,9,11,12,14,15,16,17-tetradecahydro-1H-cyclopenta[a]phenanthren-11-ol

> <PUBCHEM_IUPAC_NAME>
(5R,8S,9S,10S,11S,13S,14S,17S)-17-amino-10,13-dimethyl-2,3,4,5,6,7,8,9,11,12,14,15,16,17-tetradecahydro-1H-cyclopenta[a]phenanthren-11-ol

> <PUBCHEM_IUPAC_SYSTEMATIC_NAME>
(5R,8S,9S,10S,11S,13S,14S,17S)-17-azanyl-10,13-dimethyl-2,3,4,5,6,7,8,9,11,12,14,15,16,17-tetradecahydro-1H-cyclopenta[a]phenanthren-11-ol

> <PUBCHEM_IUPAC_TRADITIONAL_NAME>
(5R,8S,9S,10S,11S,13S,14S,17S)-17-amino-10,13-dimethyl-2,3,4,5,6,7,8,9,11,12,14,15,16,17-tetradecahydro-1H-cyclopenta[a]phenanthren-11-ol

> <PUBCHEM_IUPAC_INCHI>
InChI=1S/C19H33NO/c1-18-10-4-3-5-12(18)6-7-13-14-8-9-16(20)19(14,2)11-15(21)17(13)18/h12-17,21H,3-11,20H2,1-2H3/t12-,13+,14+,15+,16+,17-,18+,19+/m1/s1

> <PUBCHEM_IUPAC_INCHIKEY>
OMKYOYBEVIPBMI-YISWTCPOSA-N

> <PUBCHEM_XLOGP3_AA>
4.5

> <PUBCHEM_EXACT_MASS>
291.256215

> <PUBCHEM_MOLECULAR_FORMULA>
C19H33NO

> <PUBCHEM_MOLECULAR_WEIGHT>
291.47142

> <PUBCHEM_OPENEYE_CAN_SMILES>
CC12CCCCC1CCC3C2C(CC4(C3CCC4N)C)O

> <PUBCHEM_OPENEYE_ISO_SMILES>
C[C@]12CCCC[C@@H]1CC[C@@H]3[C@@H]2[C@H](C[C@]4([C@H]3CC[C@@H]4N)C)O

> <PUBCHEM_CACTVS_TPSA>
46.2

> <PUBCHEM_MONOISOTOPIC_WEIGHT>
291.256215

> <PUBCHEM_TOTAL_CHARGE>
0

> <PUBCHEM_HEAVY_ATOM_COUNT>
21

> <PUBCHEM_ATOM_DEF_STEREO_COUNT>
8

> <PUBCHEM_ATOM_UDEF_STEREO_COUNT>
0

> <PUBCHEM_BOND_DEF_STEREO_COUNT>
0

> <PUBCHEM_BOND_UDEF_STEREO_COUNT>
0

> <PUBCHEM_ISOTOPIC_ATOM_COUNT>
0

> <PUBCHEM_COMPONENT_COUNT>
1

> <PUBCHEM_CACTVS_TAUTO_COUNT>
1

> <PUBCHEM_COORDINATE_TYPE>
1
5
255

> <PUBCHEM_BONDANNOTATIONS>
9  1  5
12  2  5
3  22  6
4  23  5
5  24  6
6  18  5
7  19  5
8  25  6

$$$$

