31622
  -OEChem-07051213122D

 43 44  0     1  0  0  0  0  0999 V2000
    8.2103   -1.3247    0.0000 O   0  0  0  0  0  0  0  0  0  0  0  0
    9.3693   -2.6119    0.0000 O   0  0  0  0  0  0  0  0  0  0  0  0
    5.7071   -2.2726    0.0000 O   0  0  0  0  0  0  0  0  0  0  0  0
   10.8827   -0.7567    0.0000 C   0  0  0  0  0  0  0  0  0  0  0  0
   10.2135   -0.0135    0.0000 C   0  0  3  0  0  0  0  0  0  0  0  0
    9.9045   -0.9646    0.0000 C   0  0  3  0  0  0  0  0  0  0  0  0
   11.6258   -0.0876    0.0000 C   0  0  0  0  0  0  0  0  0  0  0  0
   11.0906   -1.7348    0.0000 C   0  0  0  0  0  0  0  0  0  0  0  0
   10.0056    0.9646    0.0000 C   0  0  0  0  0  0  0  0  0  0  0  0
    9.1614   -1.6337    0.0000 C   0  0  0  0  0  0  0  0  0  0  0  0
   10.7488    1.6337    0.0000 C   0  0  0  0  0  0  0  0  0  0  0  0
   10.5409    2.6119    0.0000 C   0  0  0  0  0  0  0  0  0  0  0  0
   11.6998    1.3247    0.0000 C   0  0  0  0  0  0  0  0  0  0  0  0
    7.4672   -1.9938    0.0000 C   0  0  0  0  0  0  0  0  0  0  0  0
    6.5161   -1.6848    0.0000 C   0  0  0  0  0  0  0  0  0  0  0  0
    6.2071   -0.7338    0.0000 C   0  0  0  0  0  0  0  0  0  0  0  0
    4.8981   -1.6848    0.0000 C   0  0  0  0  0  0  0  0  0  0  0  0
    5.2071   -0.7338    0.0000 C   0  0  0  0  0  0  0  0  0  0  0  0
    3.9470   -1.9938    0.0000 C   0  0  0  0  0  0  0  0  0  0  0  0
    3.2039   -1.3247    0.0000 C   0  0  0  0  0  0  0  0  0  0  0  0
    2.4608   -0.6556    0.0000 C   0  0  0  0  0  0  0  0  0  0  0  0
   10.9709    0.3723    0.0000 H   0  0  0  0  0  0  0  0  0  0  0  0
   10.2904   -1.7220    0.0000 H   0  0  0  0  0  0  0  0  0  0  0  0
   12.0407   -0.5483    0.0000 H   0  0  0  0  0  0  0  0  0  0  0  0
   12.0866    0.3273    0.0000 H   0  0  0  0  0  0  0  0  0  0  0  0
   11.2110    0.3732    0.0000 H   0  0  0  0  0  0  0  0  0  0  0  0
   10.4841   -1.8637    0.0000 H   0  0  0  0  0  0  0  0  0  0  0  0
   11.2195   -2.3413    0.0000 H   0  0  0  0  0  0  0  0  0  0  0  0
   11.6970   -1.6059    0.0000 H   0  0  0  0  0  0  0  0  0  0  0  0
    9.4160    1.1562    0.0000 H   0  0  0  0  0  0  0  0  0  0  0  0
   11.5082    0.7351    0.0000 H   0  0  0  0  0  0  0  0  0  0  0  0
   12.2895    1.1331    0.0000 H   0  0  0  0  0  0  0  0  0  0  0  0
   11.8914    1.9144    0.0000 H   0  0  0  0  0  0  0  0  0  0  0  0
   11.1473    2.7408    0.0000 H   0  0  0  0  0  0  0  0  0  0  0  0
   10.4120    3.2183    0.0000 H   0  0  0  0  0  0  0  0  0  0  0  0
    9.9344    2.4830    0.0000 H   0  0  0  0  0  0  0  0  0  0  0  0
    7.1761   -2.5413    0.0000 H   0  0  0  0  0  0  0  0  0  0  0  0
    7.9558   -2.3756    0.0000 H   0  0  0  0  0  0  0  0  0  0  0  0
    6.5715   -0.2322    0.0000 H   0  0  0  0  0  0  0  0  0  0  0  0
    4.8427   -0.2322    0.0000 H   0  0  0  0  0  0  0  0  0  0  0  0
    3.4585   -2.3756    0.0000 H   0  0  0  0  0  0  0  0  0  0  0  0
    4.2381   -2.5413    0.0000 H   0  0  0  0  0  0  0  0  0  0  0  0
    2.0000   -0.2407    0.0000 H   0  0  0  0  0  0  0  0  0  0  0  0
  1 10  1  0  0  0  0
  1 14  1  0  0  0  0
  2 10  2  0  0  0  0
  3 15  1  0  0  0  0
  3 17  1  0  0  0  0
  4  5  1  0  0  0  0
  4  6  1  0  0  0  0
  4  7  1  0  0  0  0
  4  8  1  0  0  0  0
  5  6  1  0  0  0  0
  5  9  1  0  0  0  0
  5 22  1  0  0  0  0
  6 10  1  0  0  0  0
  6 23  1  0  0  0  0
  7 24  1  0  0  0  0
  7 25  1  0  0  0  0
  7 26  1  0  0  0  0
  8 27  1  0  0  0  0
  8 28  1  0  0  0  0
  8 29  1  0  0  0  0
  9 11  2  0  0  0  0
  9 30  1  0  0  0  0
 11 12  1  0  0  0  0
 11 13  1  0  0  0  0
 12 34  1  0  0  0  0
 12 35  1  0  0  0  0
 12 36  1  0  0  0  0
 13 31  1  0  0  0  0
 13 32  1  0  0  0  0
 13 33  1  0  0  0  0
 14 15  1  0  0  0  0
 14 37  1  0  0  0  0
 14 38  1  0  0  0  0
 15 16  2  0  0  0  0
 16 18  1  0  0  0  0
 16 39  1  0  0  0  0
 17 18  2  0  0  0  0
 17 19  1  0  0  0  0
 18 40  1  0  0  0  0
 19 20  1  0  0  0  0
 19 41  1  0  0  0  0
 19 42  1  0  0  0  0
 20 21  3  0  0  0  0
 21 43  1  0  0  0  0
M  END
> <PUBCHEM_COMPOUND_CID>
31622

> <PUBCHEM_COMPOUND_CANONICALIZED>
1

> <PUBCHEM_CACTVS_COMPLEXITY>
476

> <PUBCHEM_CACTVS_HBOND_ACCEPTOR>
3

> <PUBCHEM_CACTVS_HBOND_DONOR>
0

> <PUBCHEM_CACTVS_ROTATABLE_BOND>
6

> <PUBCHEM_CACTVS_SUBSKEYS>
AAADceB4MAAAAAAAAAAAAAAAGAAAASAAAAAAAAAAAAAAAAABgAAAGgAAAAAADwSgkAIyDIAABEDIGqDSCAoCCAAkIAAIiAFGCMgNJjKENR6CGSCkwBEKqYeI7CwPgAAAAAAAAAAAAAAAAAAAAAAAAAAAAA==

> <PUBCHEM_IUPAC_OPENEYE_NAME>
(5-prop-2-ynyl-2-furyl)methyl 2,2-dimethyl-3-(2-methylprop-1-enyl)cyclopropanecarboxylate

> <PUBCHEM_IUPAC_CAS_NAME>
2,2-dimethyl-3-(2-methylprop-1-enyl)-1-cyclopropanecarboxylic acid (5-prop-2-ynyl-2-furanyl)methyl ester

> <PUBCHEM_IUPAC_NAME>
(5-prop-2-ynylfuran-2-yl)methyl 2,2-dimethyl-3-(2-methylprop-1-enyl)cyclopropane-1-carboxylate

> <PUBCHEM_IUPAC_SYSTEMATIC_NAME>
(5-prop-2-ynylfuran-2-yl)methyl 2,2-dimethyl-3-(2-methylprop-1-enyl)cyclopropane-1-carboxylate

> <PUBCHEM_IUPAC_TRADITIONAL_NAME>
2,2-dimethyl-3-(2-methylprop-1-enyl)cyclopropanecarboxylic acid (5-propargyl-2-furyl)methyl ester

> <PUBCHEM_IUPAC_INCHI>
InChI=1S/C18H22O3/c1-6-7-13-8-9-14(21-13)11-20-17(19)16-15(10-12(2)3)18(16,4)5/h1,8-10,15-16H,7,11H2,2-5H3

> <PUBCHEM_IUPAC_INCHIKEY>
FSYXMFXBRJFYBS-UHFFFAOYSA-N

> <PUBCHEM_XLOGP3_AA>
4

> <PUBCHEM_EXACT_MASS>
286.156895

> <PUBCHEM_MOLECULAR_FORMULA>
C18H22O3

> <PUBCHEM_MOLECULAR_WEIGHT>
286.36548

> <PUBCHEM_OPENEYE_CAN_SMILES>
CC(=CC1C(C1(C)C)C(=O)OCC2=CC=C(O2)CC#C)C

> <PUBCHEM_OPENEYE_ISO_SMILES>
CC(=CC1C(C1(C)C)C(=O)OCC2=CC=C(O2)CC#C)C

> <PUBCHEM_CACTVS_TPSA>
39.4

> <PUBCHEM_MONOISOTOPIC_WEIGHT>
286.156895

> <PUBCHEM_TOTAL_CHARGE>
0

> <PUBCHEM_HEAVY_ATOM_COUNT>
21

> <PUBCHEM_ATOM_DEF_STEREO_COUNT>
0

> <PUBCHEM_ATOM_UDEF_STEREO_COUNT>
2

> <PUBCHEM_BOND_DEF_STEREO_COUNT>
0

> <PUBCHEM_BOND_UDEF_STEREO_COUNT>
0

> <PUBCHEM_ISOTOPIC_ATOM_COUNT>
0

> <PUBCHEM_COMPONENT_COUNT>
1

> <PUBCHEM_CACTVS_TAUTO_COUNT>
1

> <PUBCHEM_COORDINATE_TYPE>
1
5
255

> <PUBCHEM_BONDANNOTATIONS>
15  16  8
16  18  8
17  18  8
3  15  8
3  17  8
5  22  3
6  23  3

$$$$

