17396418
  -OEChem-06241222562D

 40 42  0     1  0  0  0  0  0999 V2000
    7.6097   -0.7559    0.0000 S   0  0  0  0  0  0  0  0  0  0  0  0
    3.5827    1.6280    0.0000 O   0  0  0  0  0  0  0  0  0  0  0  0
    5.7076   -1.3740    0.0000 O   0  0  0  0  0  0  0  0  0  0  0  0
    9.3698   -1.0347    0.0000 N   0  0  0  0  0  0  0  0  0  0  0  0
    9.8698    0.5041    0.0000 N   0  0  0  0  0  0  0  0  0  0  0  0
    8.8698    0.5041    0.0000 N   0  0  0  0  0  0  0  0  0  0  0  0
    5.1724    0.2733    0.0000 N   0  0  0  0  0  0  0  0  0  0  0  0
   11.1298   -0.7559    0.0000 C   0  0  0  0  0  0  0  0  0  0  0  0
   11.7990   -1.4991    0.0000 C   0  0  0  0  0  0  0  0  0  0  0  0
   12.1080   -0.5480    0.0000 C   0  0  0  0  0  0  0  0  0  0  0  0
   10.1788   -0.4469    0.0000 C   0  0  0  0  0  0  0  0  0  0  0  0
    3.4782    0.6334    0.0000 C   0  0  3  0  0  0  0  0  0  0  0  0
    2.5000    0.4255    0.0000 C   0  0  0  0  0  0  0  0  0  0  0  0
    2.0000    1.2916    0.0000 C   0  0  0  0  0  0  0  0  0  0  0  0
    2.6691    2.0347    0.0000 C   0  0  0  0  0  0  0  0  0  0  0  0
    4.2213   -0.0357    0.0000 C   0  0  0  0  0  0  0  0  0  0  0  0
    8.5608   -0.4469    0.0000 C   0  0  0  0  0  0  0  0  0  0  0  0
    9.3698   -2.0347    0.0000 C   0  0  0  0  0  0  0  0  0  0  0  0
    6.8666   -0.0868    0.0000 C   0  0  0  0  0  0  0  0  0  0  0  0
    5.9155   -0.3958    0.0000 C   0  0  0  0  0  0  0  0  0  0  0  0
   10.7922   -1.2759    0.0000 H   0  0  0  0  0  0  0  0  0  0  0  0
   12.7220   -0.6343    0.0000 H   0  0  0  0  0  0  0  0  0  0  0  0
   12.0864    0.0716    0.0000 H   0  0  0  0  0  0  0  0  0  0  0  0
   11.4173   -1.9876    0.0000 H   0  0  0  0  0  0  0  0  0  0  0  0
   12.3464   -1.7901    0.0000 H   0  0  0  0  0  0  0  0  0  0  0  0
    4.0570    0.8556    0.0000 H   0  0  0  0  0  0  0  0  0  0  0  0
    1.9336    0.1733    0.0000 H   0  0  0  0  0  0  0  0  0  0  0  0
    2.6916   -0.1641    0.0000 H   0  0  0  0  0  0  0  0  0  0  0  0
    1.5851    1.7523    0.0000 H   0  0  0  0  0  0  0  0  0  0  0  0
    1.4984    0.9271    0.0000 H   0  0  0  0  0  0  0  0  0  0  0  0
    2.9791    2.5716    0.0000 H   0  0  0  0  0  0  0  0  0  0  0  0
    2.1675    2.3991    0.0000 H   0  0  0  0  0  0  0  0  0  0  0  0
    3.7327   -0.4174    0.0000 H   0  0  0  0  0  0  0  0  0  0  0  0
    4.5124   -0.5831    0.0000 H   0  0  0  0  0  0  0  0  0  0  0  0
    8.7498   -2.0347    0.0000 H   0  0  0  0  0  0  0  0  0  0  0  0
    9.3698   -2.6547    0.0000 H   0  0  0  0  0  0  0  0  0  0  0  0
    9.9898   -2.0347    0.0000 H   0  0  0  0  0  0  0  0  0  0  0  0
    5.3012    0.8798    0.0000 H   0  0  0  0  0  0  0  0  0  0  0  0
    7.3551    0.2949    0.0000 H   0  0  0  0  0  0  0  0  0  0  0  0
    6.5755    0.4606    0.0000 H   0  0  0  0  0  0  0  0  0  0  0  0
  1 17  1  0  0  0  0
  1 19  1  0  0  0  0
  2 12  1  0  0  0  0
  2 15  1  0  0  0  0
  3 20  2  0  0  0  0
  4 11  1  0  0  0  0
  4 17  1  0  0  0  0
  4 18  1  0  0  0  0
  5  6  1  0  0  0  0
  5 11  2  0  0  0  0
  6 17  2  0  0  0  0
  7 16  1  0  0  0  0
  7 20  1  0  0  0  0
  7 38  1  0  0  0  0
  8  9  1  0  0  0  0
  8 10  1  0  0  0  0
  8 11  1  0  0  0  0
  8 21  1  0  0  0  0
  9 10  1  0  0  0  0
  9 24  1  0  0  0  0
  9 25  1  0  0  0  0
 10 22  1  0  0  0  0
 10 23  1  0  0  0  0
 12 13  1  0  0  0  0
 12 16  1  0  0  0  0
 12 26  1  0  0  0  0
 13 14  1  0  0  0  0
 13 27  1  0  0  0  0
 13 28  1  0  0  0  0
 14 15  1  0  0  0  0
 14 29  1  0  0  0  0
 14 30  1  0  0  0  0
 15 31  1  0  0  0  0
 15 32  1  0  0  0  0
 16 33  1  0  0  0  0
 16 34  1  0  0  0  0
 18 35  1  0  0  0  0
 18 36  1  0  0  0  0
 18 37  1  0  0  0  0
 19 20  1  0  0  0  0
 19 39  1  0  0  0  0
 19 40  1  0  0  0  0
M  END
> <PUBCHEM_COMPOUND_CID>
17396418

> <PUBCHEM_COMPOUND_CANONICALIZED>
1

> <PUBCHEM_CACTVS_COMPLEXITY>
353

> <PUBCHEM_CACTVS_HBOND_ACCEPTOR>
5

> <PUBCHEM_CACTVS_HBOND_DONOR>
1

> <PUBCHEM_CACTVS_ROTATABLE_BOND>
6

> <PUBCHEM_CACTVS_SUBSKEYS>
AAADceBzsABAAAAAAAAAAAAAGAAAAWJAAAAAAAAAAAAAAAABgAAAHgQYAAAADRTlwwaDEAfMFAgqAAMwNAAQ0AtAALAVQIA4AACCCAIAiAAHAAAEHgKQAACQEAIAAAAAAAAAAAAAAAAAAAAAAAAAAAAAAA==

> <PUBCHEM_IUPAC_OPENEYE_NAME>
2-[(5-cyclopropyl-4-methyl-1,2,4-triazol-3-yl)sulfanyl]-N-(tetrahydrofuran-2-ylmethyl)acetamide

> <PUBCHEM_IUPAC_CAS_NAME>
2-[(5-cyclopropyl-4-methyl-1,2,4-triazol-3-yl)thio]-N-(2-oxolanylmethyl)acetamide

> <PUBCHEM_IUPAC_NAME>
2-[(5-cyclopropyl-4-methyl-1,2,4-triazol-3-yl)sulfanyl]-N-(oxolan-2-ylmethyl)acetamide

> <PUBCHEM_IUPAC_SYSTEMATIC_NAME>
2-[(5-cyclopropyl-4-methyl-1,2,4-triazol-3-yl)sulfanyl]-N-(oxolan-2-ylmethyl)ethanamide

> <PUBCHEM_IUPAC_TRADITIONAL_NAME>
2-[(5-cyclopropyl-4-methyl-1,2,4-triazol-3-yl)thio]-N-(tetrahydrofurfuryl)acetamide

> <PUBCHEM_IUPAC_INCHI>
InChI=1S/C13H20N4O2S/c1-17-12(9-4-5-9)15-16-13(17)20-8-11(18)14-7-10-3-2-6-19-10/h9-10H,2-8H2,1H3,(H,14,18)

> <PUBCHEM_IUPAC_INCHIKEY>
HJUOKZHWGOFNDA-UHFFFAOYSA-N

> <PUBCHEM_XLOGP3_AA>
0.6

> <PUBCHEM_EXACT_MASS>
296.130697

> <PUBCHEM_MOLECULAR_FORMULA>
C13H20N4O2S

> <PUBCHEM_MOLECULAR_WEIGHT>
296.3885

> <PUBCHEM_OPENEYE_CAN_SMILES>
CN1C(=NN=C1SCC(=O)NCC2CCCO2)C3CC3

> <PUBCHEM_OPENEYE_ISO_SMILES>
CN1C(=NN=C1SCC(=O)NCC2CCCO2)C3CC3

> <PUBCHEM_CACTVS_TPSA>
94.3

> <PUBCHEM_MONOISOTOPIC_WEIGHT>
296.130697

> <PUBCHEM_TOTAL_CHARGE>
0

> <PUBCHEM_HEAVY_ATOM_COUNT>
20

> <PUBCHEM_ATOM_DEF_STEREO_COUNT>
0

> <PUBCHEM_ATOM_UDEF_STEREO_COUNT>
1

> <PUBCHEM_BOND_DEF_STEREO_COUNT>
0

> <PUBCHEM_BOND_UDEF_STEREO_COUNT>
0

> <PUBCHEM_ISOTOPIC_ATOM_COUNT>
0

> <PUBCHEM_COMPONENT_COUNT>
1

> <PUBCHEM_CACTVS_TAUTO_COUNT>
2

> <PUBCHEM_COORDINATE_TYPE>
1
5
255

> <PUBCHEM_BONDANNOTATIONS>
12  16  3
4  11  8
4  17  8
5  11  8
5  6  8
6  17  8

$$$$

