   Color/Form

     * Needles from water, hexagonal plates from dilute alcohol
     * Colorless crystals

   from [1]HSDB

   Taste
        Sweet/bitter
   from [2]HSDB

   Melting Point
        224 deg C, decomposes
   from [3]HSDB

   Dissociation Constants
        pK1 = 2.18; pK2 = 8.95; pK3 = 10.53 at 38 deg C
   from [4]HSDB

   Octanol/Water Partition Coefficient
        log Kow = -3.05
   from [5]HSDB

   Solubilities

     * Insoluble in ethanol, ethyl ether, acetone, benzene
     * Insolulble in common neutral solvents
     * Very freely soluble in water.
     * Water solubility: >100 g/100 g H20 at 25 deg C
     * In water, 5.84X10+5 mg/L at 27 deg C

   from [6]HSDB

   Spectral Properties

     * Specific optical rotation: +14.6 at 20 deg C/D (c = 6.5); +25.9 at
       23 deg C/D (c = 2 in 6.0N HCl)
     * SADTLER REFERENCE NUMBER: 788 (IR, PRISM)
     * IR: 18007 (Sadtler Research Laboratories IR Grating Collection)
     * 1H NMR: 8213 (Sadtler Research Laboratories Spectral Collection)
     * 13C NMR: 479 (Stothers, Cabon-13 NMR Spectroscopy, Academic Press,
       New York)
     * MASS: 26152 (NIST/EPA/MSDC Mass Spectral Database, 1990 version)

   from [7]HSDB

   Vapor Pressure
        5.28X10+9 mm Hg at 25 deg C /extrapolated/
   from [8]HSDB

   Other Chemical/Physical Properties

     * Darkens at 210 deg C
     * OCCURS IN ISOMERIC FORMS
     * Crystals from ethanol + ether, mp 193 deg C. Specific optical
       rotation: +15.3 deg at 20 deg C/D (C = 2) /Lysine dihydrochloride/
     * Crystals from dilute ethanol; mp 263-264 deg C when anhydrous.
       Specific optical rotaton: +14.6 deg at 25 deg C/D (c = 2 in 0.6N
       HCl) /Lysine monohydrochloride/
     * Crystlas, decomposes at 315 deg C /Lysine monoorotate/
     * IR: 18008 (Sadtler Research Laboratories IR Grating Collection)
       /Lysine (DL)/
     * NMR: 8251 (Sadtler Research Laboratories Spectral Collection)
       /Lysine (DL)/
     * MASS: 98 (Aldermaston, Eight Peak Index of Mass Spectra, UK)
       /Lysine (DL)/
     * Henry's Law constant = 3.59X10-13 atm-cu m/mol at 25 deg C (est)
     * Hydroxyl radical reaction rate constant = 7.41X10-11 cu
       cm/molec-sec at 25 deg C (est)

   from [9]HSDB

   Computed Properties
   Molecular Weight                  146.18756 [g/mol]
   Molecular Formula                 C[6]H[14]N[2]O[2]
   XLogP3                            -3
   H-Bond Donor                      3
   H-Bond Acceptor                   4
   Rotatable Bond Count              5
   Exact Mass                        146.105528
   MonoIsotopic Mass                 146.105528
   Topological Polar Surface Area    89.3
   Heavy Atom Count                  10
   Formal Charge                     0
   Complexity                        106
   Isotope Atom Count                0
   Defined Atom Stereocenter Count   1
   Undefined Atom Stereocenter Count 0
   Defined Bond Stereocenter Count   0
   Undefined Bond Stereocenter Count 0
   Covalently-Bonded Unit Count      1
   Feature 3D Acceptor Count         2
   Feature 3D Donor Count            2
   Feature 3D Anion Count            1
   Feature 3D Cation Count           2
   Effective Rotor Count             5
   Conformer Sampling RMSD           0.6
   CID Conformer Count               [10]93

References

   1. http://toxnet.nlm.nih.gov/cgi-bin/sis/search/r?dbs+hsdb:@term+@rn+@rel+56-87-1
   2. http://toxnet.nlm.nih.gov/cgi-bin/sis/search/r?dbs+hsdb:@term+@rn+@rel+56-87-1
   3. http://toxnet.nlm.nih.gov/cgi-bin/sis/search/r?dbs+hsdb:@term+@rn+@rel+56-87-1
   4. http://toxnet.nlm.nih.gov/cgi-bin/sis/search/r?dbs+hsdb:@term+@rn+@rel+56-87-1
   5. http://toxnet.nlm.nih.gov/cgi-bin/sis/search/r?dbs+hsdb:@term+@rn+@rel+56-87-1
   6. http://toxnet.nlm.nih.gov/cgi-bin/sis/search/r?dbs+hsdb:@term+@rn+@rel+56-87-1
   7. http://toxnet.nlm.nih.gov/cgi-bin/sis/search/r?dbs+hsdb:@term+@rn+@rel+56-87-1
   8. http://toxnet.nlm.nih.gov/cgi-bin/sis/search/r?dbs+hsdb:@term+@rn+@rel+56-87-1
   9. http://toxnet.nlm.nih.gov/cgi-bin/sis/search/r?dbs+hsdb:@term+@rn+@rel+56-87-1
  10. http://pubchem.ncbi.nlm.nih.gov/vw3d/vw3d.cgi?cid=5962
