17395802
  -OEChem-06241222522D

 42 44  0     1  0  0  0  0  0999 V2000
    2.6890    6.7236    0.0000 Cl  0  0  0  0  0  0  0  0  0  0  0  0
    2.8660   -6.7236    0.0000 F   0  0  0  0  0  0  0  0  0  0  0  0
    3.6750   -2.1358    0.0000 O   0  0  0  0  0  0  0  0  0  0  0  0
    2.7336    2.3649    0.0000 O   0  0  0  0  0  0  0  0  0  0  0  0
    3.5471    0.5378    0.0000 N   0  0  3  0  0  0  0  0  0  0  0  0
    4.3159    3.0694    0.0000 N   0  0  0  0  0  0  0  0  0  0  0  0
    2.3660   -1.1847    0.0000 N   0  0  0  0  0  0  0  0  0  0  0  0
    2.0570   -2.1358    0.0000 N   0  0  0  0  0  0  0  0  0  0  0  0
    3.9538   -0.3757    0.0000 C   0  0  0  0  0  0  0  0  0  0  0  0
    4.1349    1.3468    0.0000 C   0  0  0  0  0  0  0  0  0  0  0  0
    3.3660   -1.1847    0.0000 C   0  0  0  0  0  0  0  0  0  0  0  0
    2.5526    0.6424    0.0000 C   0  0  0  0  0  0  0  0  0  0  0  0
    3.7281    2.2604    0.0000 C   0  0  0  0  0  0  0  0  0  0  0  0
    2.8660   -2.7236    0.0000 C   0  0  0  0  0  0  0  0  0  0  0  0
    2.8660   -3.7236    0.0000 C   0  0  0  0  0  0  0  0  0  0  0  0
    3.9092    3.9830    0.0000 C   0  0  0  0  0  0  0  0  0  0  0  0
    2.0000   -4.2236    0.0000 C   0  0  0  0  0  0  0  0  0  0  0  0
    3.7320   -4.2236    0.0000 C   0  0  0  0  0  0  0  0  0  0  0  0
    2.9146    4.0875    0.0000 C   0  0  0  0  0  0  0  0  0  0  0  0
    4.4970    4.7920    0.0000 C   0  0  0  0  0  0  0  0  0  0  0  0
    2.0000   -5.2236    0.0000 C   0  0  0  0  0  0  0  0  0  0  0  0
    3.7320   -5.2236    0.0000 C   0  0  0  0  0  0  0  0  0  0  0  0
    2.5079    5.0010    0.0000 C   0  0  0  0  0  0  0  0  0  0  0  0
    4.0902    5.7055    0.0000 C   0  0  0  0  0  0  0  0  0  0  0  0
    2.8660   -5.7236    0.0000 C   0  0  0  0  0  0  0  0  0  0  0  0
    3.0957    5.8100    0.0000 C   0  0  0  0  0  0  0  0  0  0  0  0
    4.3845   -0.8217    0.0000 H   0  0  0  0  0  0  0  0  0  0  0  0
    4.4678   -0.0290    0.0000 H   0  0  0  0  0  0  0  0  0  0  0  0
    4.5656    0.9008    0.0000 H   0  0  0  0  0  0  0  0  0  0  0  0
    4.6489    1.6935    0.0000 H   0  0  0  0  0  0  0  0  0  0  0  0
    2.6174    1.2590    0.0000 H   0  0  0  0  0  0  0  0  0  0  0  0
    1.9360    0.7072    0.0000 H   0  0  0  0  0  0  0  0  0  0  0  0
    2.4877    0.0257    0.0000 H   0  0  0  0  0  0  0  0  0  0  0  0
    4.9325    3.0046    0.0000 H   0  0  0  0  0  0  0  0  0  0  0  0
    1.4631   -3.9136    0.0000 H   0  0  0  0  0  0  0  0  0  0  0  0
    4.2690   -3.9136    0.0000 H   0  0  0  0  0  0  0  0  0  0  0  0
    2.5502    3.5859    0.0000 H   0  0  0  0  0  0  0  0  0  0  0  0
    5.1136    4.7272    0.0000 H   0  0  0  0  0  0  0  0  0  0  0  0
    1.4631   -5.5336    0.0000 H   0  0  0  0  0  0  0  0  0  0  0  0
    4.2690   -5.5336    0.0000 H   0  0  0  0  0  0  0  0  0  0  0  0
    1.8913    5.0658    0.0000 H   0  0  0  0  0  0  0  0  0  0  0  0
    4.4546    6.2071    0.0000 H   0  0  0  0  0  0  0  0  0  0  0  0
  1 26  1  0  0  0  0
  2 25  1  0  0  0  0
  3 11  1  0  0  0  0
  3 14  1  0  0  0  0
  4 13  2  0  0  0  0
  5  9  1  0  0  0  0
  5 10  1  0  0  0  0
  5 12  1  0  0  0  0
  6 13  1  0  0  0  0
  6 16  1  0  0  0  0
  6 34  1  0  0  0  0
  7  8  1  0  0  0  0
  7 11  2  0  0  0  0
  8 14  2  0  0  0  0
  9 11  1  0  0  0  0
  9 27  1  0  0  0  0
  9 28  1  0  0  0  0
 10 13  1  0  0  0  0
 10 29  1  0  0  0  0
 10 30  1  0  0  0  0
 12 31  1  0  0  0  0
 12 32  1  0  0  0  0
 12 33  1  0  0  0  0
 14 15  1  0  0  0  0
 15 17  2  0  0  0  0
 15 18  1  0  0  0  0
 16 19  2  0  0  0  0
 16 20  1  0  0  0  0
 17 21  1  0  0  0  0
 17 35  1  0  0  0  0
 18 22  2  0  0  0  0
 18 36  1  0  0  0  0
 19 23  1  0  0  0  0
 19 37  1  0  0  0  0
 20 24  2  0  0  0  0
 20 38  1  0  0  0  0
 21 25  2  0  0  0  0
 21 39  1  0  0  0  0
 22 25  1  0  0  0  0
 22 40  1  0  0  0  0
 23 26  2  0  0  0  0
 23 41  1  0  0  0  0
 24 26  1  0  0  0  0
 24 42  1  0  0  0  0
M  END
> <PUBCHEM_COMPOUND_CID>
17395802

> <PUBCHEM_COMPOUND_CANONICALIZED>
1

> <PUBCHEM_CACTVS_COMPLEXITY>
457

> <PUBCHEM_CACTVS_HBOND_ACCEPTOR>
6

> <PUBCHEM_CACTVS_HBOND_DONOR>
1

> <PUBCHEM_CACTVS_ROTATABLE_BOND>
6

> <PUBCHEM_CACTVS_SUBSKEYS>
AAADceB7sQAEAAAAAAAAAAAAAAAAAWAAAAAwYAAAAAAAAAAB0AAAHwIYAAAADArBmiwywIPABECqAiVyUACSAAAtBwAaiCG4btgKZrLBt7mfMQhk3AHY6YeYyCCOAABAAAAAAAAAAIAAAAAAAAAAAAAAAA==

> <PUBCHEM_IUPAC_OPENEYE_NAME>
N-(4-chlorophenyl)-2-[[5-(4-fluorophenyl)-1,3,4-oxadiazol-2-yl]methyl-methyl-amino]acetamide

> <PUBCHEM_IUPAC_CAS_NAME>
N-(4-chlorophenyl)-2-[[5-(4-fluorophenyl)-1,3,4-oxadiazol-2-yl]methyl-methylamino]acetamide

> <PUBCHEM_IUPAC_NAME>
N-(4-chlorophenyl)-2-[[5-(4-fluorophenyl)-1,3,4-oxadiazol-2-yl]methyl-methylamino]acetamide

> <PUBCHEM_IUPAC_SYSTEMATIC_NAME>
N-(4-chlorophenyl)-2-[[5-(4-fluorophenyl)-1,3,4-oxadiazol-2-yl]methyl-methyl-amino]ethanamide

> <PUBCHEM_IUPAC_TRADITIONAL_NAME>
N-(4-chlorophenyl)-2-[[5-(4-fluorophenyl)-1,3,4-oxadiazol-2-yl]methyl-methyl-amino]acetamide

> <PUBCHEM_IUPAC_INCHI>
InChI=1S/C18H16ClFN4O2/c1-24(10-16(25)21-15-8-4-13(19)5-9-15)11-17-22-23-18(26-17)12-2-6-14(20)7-3-12/h2-9H,10-11H2,1H3,(H,21,25)

> <PUBCHEM_IUPAC_INCHIKEY>
DBXKPUDUCUZLSG-UHFFFAOYSA-N

> <PUBCHEM_XLOGP3_AA>
2.9

> <PUBCHEM_EXACT_MASS>
374.094582

> <PUBCHEM_MOLECULAR_FORMULA>
C18H16ClFN4O2

> <PUBCHEM_MOLECULAR_WEIGHT>
374.796643

> <PUBCHEM_OPENEYE_CAN_SMILES>
CN(CC1=NN=C(O1)C2=CC=C(C=C2)F)CC(=O)NC3=CC=C(C=C3)Cl

> <PUBCHEM_OPENEYE_ISO_SMILES>
CN(CC1=NN=C(O1)C2=CC=C(C=C2)F)CC(=O)NC3=CC=C(C=C3)Cl

> <PUBCHEM_CACTVS_TPSA>
71.3

> <PUBCHEM_MONOISOTOPIC_WEIGHT>
374.094582

> <PUBCHEM_TOTAL_CHARGE>
0

> <PUBCHEM_HEAVY_ATOM_COUNT>
26

> <PUBCHEM_ATOM_DEF_STEREO_COUNT>
0

> <PUBCHEM_ATOM_UDEF_STEREO_COUNT>
0

> <PUBCHEM_BOND_DEF_STEREO_COUNT>
0

> <PUBCHEM_BOND_UDEF_STEREO_COUNT>
0

> <PUBCHEM_ISOTOPIC_ATOM_COUNT>
0

> <PUBCHEM_COMPONENT_COUNT>
1

> <PUBCHEM_CACTVS_TAUTO_COUNT>
3

> <PUBCHEM_COORDINATE_TYPE>
1
5
255

> <PUBCHEM_BONDANNOTATIONS>
15  17  8
15  18  8
16  19  8
16  20  8
17  21  8
18  22  8
19  23  8
20  24  8
21  25  8
22  25  8
23  26  8
24  26  8
3  11  8
3  14  8
7  11  8
7  8  8
8  14  8

$$$$

