12491370
  -OEChem-07051213092D

 27 27  0     1  0  0  0  0  0999 V2000
    4.1906    0.7373    0.0000 C   0  0  1  0  0  0  0  0  0  0  0  0
    3.7568   -0.1637    0.0000 C   0  0  0  0  0  0  0  0  0  0  0  0
    3.7568    1.6383    0.0000 C   0  0  0  0  0  0  0  0  0  0  0  0
    5.1906    0.7373    0.0000 C   0  0  0  0  0  0  0  0  0  0  0  0
    2.7818   -0.3862    0.0000 C   0  0  0  0  0  0  0  0  0  0  0  0
    2.0000    1.2373    0.0000 C   0  0  0  0  0  0  0  0  0  0  0  0
    2.7818    1.8608    0.0000 C   0  0  0  0  0  0  0  0  0  0  0  0
    2.0000    0.2373    0.0000 C   0  0  0  0  0  0  0  0  0  0  0  0
    5.6906   -0.1287    0.0000 C   0  0  0  0  0  0  0  0  0  0  0  0
    5.1906   -0.9948    0.0000 C   0  0  0  0  0  0  0  0  0  0  0  0
    5.6906   -1.8608    0.0000 C   0  0  0  0  0  0  0  0  0  0  0  0
    4.5205    0.2123    0.0000 H   0  0  0  0  0  0  0  0  0  0  0  0
    3.7568   -0.7837    0.0000 H   0  0  0  0  0  0  0  0  0  0  0  0
    4.3612   -0.3016    0.0000 H   0  0  0  0  0  0  0  0  0  0  0  0
    4.1433    2.1230    0.0000 H   0  0  0  0  0  0  0  0  0  0  0  0
    5.5006    1.2742    0.0000 H   0  0  0  0  0  0  0  0  0  0  0  0
    2.6439   -0.9907    0.0000 H   0  0  0  0  0  0  0  0  0  0  0  0
    1.7310    1.7959    0.0000 H   0  0  0  0  0  0  0  0  0  0  0  0
    1.3955    1.0993    0.0000 H   0  0  0  0  0  0  0  0  0  0  0  0
    2.6439    2.4652    0.0000 H   0  0  0  0  0  0  0  0  0  0  0  0
    1.4414   -0.0317    0.0000 H   0  0  0  0  0  0  0  0  0  0  0  0
    6.3106   -0.1287    0.0000 H   0  0  0  0  0  0  0  0  0  0  0  0
    4.7157   -0.5962    0.0000 H   0  0  0  0  0  0  0  0  0  0  0  0
    4.7157   -1.3933    0.0000 H   0  0  0  0  0  0  0  0  0  0  0  0
    5.1537   -2.1708    0.0000 H   0  0  0  0  0  0  0  0  0  0  0  0
    6.0006   -2.3977    0.0000 H   0  0  0  0  0  0  0  0  0  0  0  0
    6.2276   -1.5508    0.0000 H   0  0  0  0  0  0  0  0  0  0  0  0
  1  2  1  0  0  0  0
  1  3  1  0  0  0  0
  1  4  1  1  0  0  0
  1 12  1  0  0  0  0
  2  5  1  0  0  0  0
  2 13  1  0  0  0  0
  2 14  1  0  0  0  0
  3  7  2  0  0  0  0
  3 15  1  0  0  0  0
  4  9  2  0  0  0  0
  4 16  1  0  0  0  0
  5  8  2  0  0  0  0
  5 17  1  0  0  0  0
  6  7  1  0  0  0  0
  6  8  1  0  0  0  0
  6 18  1  0  0  0  0
  6 19  1  0  0  0  0
  7 20  1  0  0  0  0
  8 21  1  0  0  0  0
  9 10  1  0  0  0  0
  9 22  1  0  0  0  0
 10 11  1  0  0  0  0
 10 23  1  0  0  0  0
 10 24  1  0  0  0  0
 11 25  1  0  0  0  0
 11 26  1  0  0  0  0
 11 27  1  0  0  0  0
M  END
> <PUBCHEM_COMPOUND_CID>
12491370

> <PUBCHEM_COMPOUND_CANONICALIZED>
1

> <PUBCHEM_CACTVS_COMPLEXITY>
173

> <PUBCHEM_CACTVS_HBOND_ACCEPTOR>
0

> <PUBCHEM_CACTVS_HBOND_DONOR>
0

> <PUBCHEM_CACTVS_ROTATABLE_BOND>
2

> <PUBCHEM_CACTVS_SUBSKEYS>
AAADceBwAAAAAAAAAAAAAAAAAAAAAAAAAAAAAAAABAAAAAAAAAAAGAAAAAAADQCAAAACAAAAAACAACBCAAAAAAAgAAAICAAAAAgAAAAAAQAAAAAAgAAIAAIAAAAIAAAAAAAAAAAAAAAAAAAAAAAAAAAAAA==

> <PUBCHEM_IUPAC_OPENEYE_NAME>
(6R)-6-[(Z)-but-1-enyl]cyclohepta-1,4-diene

> <PUBCHEM_IUPAC_CAS_NAME>
(6R)-6-[(Z)-but-1-enyl]cyclohepta-1,4-diene

> <PUBCHEM_IUPAC_NAME>
(6R)-6-[(Z)-but-1-enyl]cyclohepta-1,4-diene

> <PUBCHEM_IUPAC_SYSTEMATIC_NAME>
(6R)-6-[(Z)-but-1-enyl]cyclohepta-1,4-diene

> <PUBCHEM_IUPAC_TRADITIONAL_NAME>
(6R)-6-[(Z)-but-1-enyl]cyclohepta-1,4-diene

> <PUBCHEM_IUPAC_INCHI>
InChI=1S/C11H16/c1-2-3-8-11-9-6-4-5-7-10-11/h3-4,6-8,10-11H,2,5,9H2,1H3/b8-3-/t11-/m0/s1

> <PUBCHEM_IUPAC_INCHIKEY>
KIFXGGYCNMHCSX-DZHRUPLWSA-N

> <PUBCHEM_XLOGP3_AA>
3.7

> <PUBCHEM_EXACT_MASS>
148.125201

> <PUBCHEM_MOLECULAR_FORMULA>
C11H16

> <PUBCHEM_MOLECULAR_WEIGHT>
148.24474

> <PUBCHEM_OPENEYE_CAN_SMILES>
CCC=CC1CC=CCC=C1

> <PUBCHEM_OPENEYE_ISO_SMILES>
CC/C=C\[C@H]1CC=CCC=C1

> <PUBCHEM_CACTVS_TPSA>
0

> <PUBCHEM_MONOISOTOPIC_WEIGHT>
148.125201

> <PUBCHEM_TOTAL_CHARGE>
0

> <PUBCHEM_HEAVY_ATOM_COUNT>
11

> <PUBCHEM_ATOM_DEF_STEREO_COUNT>
1

> <PUBCHEM_ATOM_UDEF_STEREO_COUNT>
0

> <PUBCHEM_BOND_DEF_STEREO_COUNT>
1

> <PUBCHEM_BOND_UDEF_STEREO_COUNT>
0

> <PUBCHEM_ISOTOPIC_ATOM_COUNT>
0

> <PUBCHEM_COMPONENT_COUNT>
1

> <PUBCHEM_CACTVS_TAUTO_COUNT>
1

> <PUBCHEM_COORDINATE_TYPE>
1
5
255

> <PUBCHEM_BONDANNOTATIONS>
1  4  5

$$$$

