   Color/Form
        ORTHORHOMBIC CRYSTALS FROM AQ GLACIAL ACETIC ACID, ALCOHOL, OR
   ACETONE
   from [1]HSDB

   Boiling Point
        333 deg C
   from [2]HSDB

   Melting Point
        178-179 DEG C
   from [3]HSDB

   Density/Specific Gravity
        1.385 AT 22 DEG C/4 DEG C
   from [4]HSDB

   Octanol/Water Partition Coefficient
        Log Kow = 2.12
   from [5]HSDB

   Solubilities

     * PRACTICALLY INSOL IN /COLD/ WATER; READILY SOL IN ALC, ETHER;
       READILY SOL IN CARBON DISULFIDE; SLIGHTLY SOL IN CARBON
       TETRACHLORIDE, BENZENE
     * SOL IN HOT WATER

   from [6]HSDB

   Spectral Properties
        MAX ABSORPTION (95% ETHANOL): 249 NM (LOG E= 4.25)
   from [7]HSDB

   Computed Properties
   Molecular Weight                  169.60822 [g/mol]
   Molecular Formula                 C[8]H[8]ClNO
   XLogP3                            2.1
   H-Bond Donor                      1
   H-Bond Acceptor                   1
   Rotatable Bond Count              1
   Tautomer Count                    3
   Exact Mass                        169.029442
   MonoIsotopic Mass                 169.029442
   Topological Polar Surface Area    29.1
   Heavy Atom Count                  11
   Formal Charge                     0
   Complexity                        141
   Isotope Atom Count                0
   Defined Atom Stereocenter Count   0
   Undefined Atom Stereocenter Count 0
   Defined Bond Stereocenter Count   0
   Undefined Bond Stereocenter Count 0
   Covalently-Bonded Unit Count      1
   Feature 3D Acceptor Count         1
   Feature 3D Donor Count            1
   Feature 3D Ring Count             1
   Effective Rotor Count             2
   Conformer Sampling RMSD           0.4
   CID Conformer Count               [8]2

References

   1. http://toxnet.nlm.nih.gov/cgi-bin/sis/search/r?dbs+hsdb:@term+@rn+@rel+539-03-7
   2. http://toxnet.nlm.nih.gov/cgi-bin/sis/search/r?dbs+hsdb:@term+@rn+@rel+539-03-7
   3. http://toxnet.nlm.nih.gov/cgi-bin/sis/search/r?dbs+hsdb:@term+@rn+@rel+539-03-7
   4. http://toxnet.nlm.nih.gov/cgi-bin/sis/search/r?dbs+hsdb:@term+@rn+@rel+539-03-7
   5. http://toxnet.nlm.nih.gov/cgi-bin/sis/search/r?dbs+hsdb:@term+@rn+@rel+539-03-7
   6. http://toxnet.nlm.nih.gov/cgi-bin/sis/search/r?dbs+hsdb:@term+@rn+@rel+539-03-7
   7. http://toxnet.nlm.nih.gov/cgi-bin/sis/search/r?dbs+hsdb:@term+@rn+@rel+539-03-7
   8. http://pubchem.ncbi.nlm.nih.gov/vw3d/vw3d.cgi?cid=10871
