23724602
  -OEChem-07051213082D

 78 78  0     1  0  0  0  0  0999 V2000
    2.5369   -4.5000    0.0000 O   0  0  0  0  0  0  0  0  0  0  0  0
    6.0010   -6.5000    0.0000 O   0  0  0  0  0  0  0  0  0  0  0  0
    8.5991    4.0000    0.0000 C   0  0  3  0  0  0  0  0  0  0  0  0
    8.5991    3.0000    0.0000 C   0  0  0  0  0  0  0  0  0  0  0  0
    6.8671    1.0000    0.0000 C   0  0  3  0  0  0  0  0  0  0  0  0
    7.7331    2.5000    0.0000 C   0  0  0  0  0  0  0  0  0  0  0  0
    7.7331    1.5000    0.0000 C   0  0  0  0  0  0  0  0  0  0  0  0
    9.4651    4.5000    0.0000 C   0  0  0  0  0  0  0  0  0  0  0  0
    6.8671    0.0000    0.0000 C   0  0  0  0  0  0  0  0  0  0  0  0
    9.4651    5.5000    0.0000 C   0  0  0  0  0  0  0  0  0  0  0  0
   10.3312    6.0000    0.0000 C   0  0  0  0  0  0  0  0  0  0  0  0
    7.7331    4.5000    0.0000 C   0  0  0  0  0  0  0  0  0  0  0  0
    6.0010   -0.5000    0.0000 C   0  0  0  0  0  0  0  0  0  0  0  0
    6.0010    1.5000    0.0000 C   0  0  0  0  0  0  0  0  0  0  0  0
   10.3312    7.0000    0.0000 C   0  0  0  0  0  0  0  0  0  0  0  0
    6.0010   -1.5000    0.0000 C   0  0  0  0  0  0  0  0  0  0  0  0
   11.1972    7.5000    0.0000 C   0  0  0  0  0  0  0  0  0  0  0  0
    9.4651    7.5000    0.0000 C   0  0  0  0  0  0  0  0  0  0  0  0
    5.1350   -2.0000    0.0000 C   0  0  0  0  0  0  0  0  0  0  0  0
    5.1350   -3.0000    0.0000 C   0  0  0  0  0  0  0  0  0  0  0  0
    4.2690   -1.5000    0.0000 C   0  0  0  0  0  0  0  0  0  0  0  0
    4.2690   -3.5000    0.0000 C   0  0  0  0  0  0  0  0  0  0  0  0
    4.2690   -4.5000    0.0000 C   0  0  0  0  0  0  0  0  0  0  0  0
    3.4030   -5.0000    0.0000 C   0  0  0  0  0  0  0  0  0  0  0  0
    5.1350   -5.0000    0.0000 C   0  0  0  0  0  0  0  0  0  0  0  0
    3.4030   -6.0000    0.0000 C   0  0  0  0  0  0  0  0  0  0  0  0
    4.2690   -6.5000    0.0000 C   0  0  0  0  0  0  0  0  0  0  0  0
    5.1350   -6.0000    0.0000 C   0  0  0  0  0  0  0  0  0  0  0  0
    2.5369   -6.5000    0.0000 C   0  0  0  0  0  0  0  0  0  0  0  0
    4.2690   -7.5000    0.0000 C   0  0  0  0  0  0  0  0  0  0  0  0
    8.5991    4.6200    0.0000 H   0  0  0  0  0  0  0  0  0  0  0  0
    8.8112    2.4174    0.0000 H   0  0  0  0  0  0  0  0  0  0  0  0
    9.2097    3.1077    0.0000 H   0  0  0  0  0  0  0  0  0  0  0  0
    6.3301    0.6900    0.0000 H   0  0  0  0  0  0  0  0  0  0  0  0
    7.5210    3.0826    0.0000 H   0  0  0  0  0  0  0  0  0  0  0  0
    7.1225    2.3923    0.0000 H   0  0  0  0  0  0  0  0  0  0  0  0
    7.9451    0.9174    0.0000 H   0  0  0  0  0  0  0  0  0  0  0  0
    8.3437    1.6077    0.0000 H   0  0  0  0  0  0  0  0  0  0  0  0
    9.6772    3.9174    0.0000 H   0  0  0  0  0  0  0  0  0  0  0  0
   10.0757    4.6077    0.0000 H   0  0  0  0  0  0  0  0  0  0  0  0
    7.0791   -0.5826    0.0000 H   0  0  0  0  0  0  0  0  0  0  0  0
    7.4776    0.1077    0.0000 H   0  0  0  0  0  0  0  0  0  0  0  0
    9.2531    6.0826    0.0000 H   0  0  0  0  0  0  0  0  0  0  0  0
    8.8546    5.3923    0.0000 H   0  0  0  0  0  0  0  0  0  0  0  0
   10.5432    5.4174    0.0000 H   0  0  0  0  0  0  0  0  0  0  0  0
   10.9417    6.1077    0.0000 H   0  0  0  0  0  0  0  0  0  0  0  0
    8.0431    5.0369    0.0000 H   0  0  0  0  0  0  0  0  0  0  0  0
    7.1962    4.8100    0.0000 H   0  0  0  0  0  0  0  0  0  0  0  0
    7.4231    3.9631    0.0000 H   0  0  0  0  0  0  0  0  0  0  0  0
    5.7890    0.0826    0.0000 H   0  0  0  0  0  0  0  0  0  0  0  0
    5.3905   -0.6077    0.0000 H   0  0  0  0  0  0  0  0  0  0  0  0
    6.3110    2.0369    0.0000 H   0  0  0  0  0  0  0  0  0  0  0  0
    5.4641    1.8100    0.0000 H   0  0  0  0  0  0  0  0  0  0  0  0
    5.6910    0.9631    0.0000 H   0  0  0  0  0  0  0  0  0  0  0  0
   10.8681    6.6900    0.0000 H   0  0  0  0  0  0  0  0  0  0  0  0
    6.2131   -2.0826    0.0000 H   0  0  0  0  0  0  0  0  0  0  0  0
    6.6116   -1.3923    0.0000 H   0  0  0  0  0  0  0  0  0  0  0  0
   11.5072    6.9631    0.0000 H   0  0  0  0  0  0  0  0  0  0  0  0
   11.7341    7.8100    0.0000 H   0  0  0  0  0  0  0  0  0  0  0  0
   10.8872    8.0369    0.0000 H   0  0  0  0  0  0  0  0  0  0  0  0
    9.7751    8.0369    0.0000 H   0  0  0  0  0  0  0  0  0  0  0  0
    8.9282    7.8100    0.0000 H   0  0  0  0  0  0  0  0  0  0  0  0
    9.1551    6.9631    0.0000 H   0  0  0  0  0  0  0  0  0  0  0  0
    5.6720   -3.3100    0.0000 H   0  0  0  0  0  0  0  0  0  0  0  0
    4.5790   -0.9631    0.0000 H   0  0  0  0  0  0  0  0  0  0  0  0
    3.7320   -1.1900    0.0000 H   0  0  0  0  0  0  0  0  0  0  0  0
    3.9590   -2.0369    0.0000 H   0  0  0  0  0  0  0  0  0  0  0  0
    4.0569   -2.9174    0.0000 H   0  0  0  0  0  0  0  0  0  0  0  0
    3.6584   -3.6077    0.0000 H   0  0  0  0  0  0  0  0  0  0  0  0
    5.6720   -4.6900    0.0000 H   0  0  0  0  0  0  0  0  0  0  0  0
    2.2269   -5.9631    0.0000 H   0  0  0  0  0  0  0  0  0  0  0  0
    2.0000   -6.8100    0.0000 H   0  0  0  0  0  0  0  0  0  0  0  0
    2.8469   -7.0369    0.0000 H   0  0  0  0  0  0  0  0  0  0  0  0
    3.6490   -7.5000    0.0000 H   0  0  0  0  0  0  0  0  0  0  0  0
    4.2690   -8.1200    0.0000 H   0  0  0  0  0  0  0  0  0  0  0  0
    4.8890   -7.5000    0.0000 H   0  0  0  0  0  0  0  0  0  0  0  0
    2.0000   -4.8100    0.0000 H   0  0  0  0  0  0  0  0  0  0  0  0
    6.5380   -6.1900    0.0000 H   0  0  0  0  0  0  0  0  0  0  0  0
  1 24  1  0  0  0  0
  1 77  1  0  0  0  0
  2 28  1  0  0  0  0
  2 78  1  0  0  0  0
  3  4  1  0  0  0  0
  3  8  1  0  0  0  0
  3 12  1  0  0  0  0
  3 31  1  0  0  0  0
  4  6  1  0  0  0  0
  4 32  1  0  0  0  0
  4 33  1  0  0  0  0
  5  7  1  0  0  0  0
  5  9  1  0  0  0  0
  5 14  1  0  0  0  0
  5 34  1  0  0  0  0
  6  7  1  0  0  0  0
  6 35  1  0  0  0  0
  6 36  1  0  0  0  0
  7 37  1  0  0  0  0
  7 38  1  0  0  0  0
  8 10  1  0  0  0  0
  8 39  1  0  0  0  0
  8 40  1  0  0  0  0
  9 13  1  0  0  0  0
  9 41  1  0  0  0  0
  9 42  1  0  0  0  0
 10 11  1  0  0  0  0
 10 43  1  0  0  0  0
 10 44  1  0  0  0  0
 11 15  1  0  0  0  0
 11 45  1  0  0  0  0
 11 46  1  0  0  0  0
 12 47  1  0  0  0  0
 12 48  1  0  0  0  0
 12 49  1  0  0  0  0
 13 16  1  0  0  0  0
 13 50  1  0  0  0  0
 13 51  1  0  0  0  0
 14 52  1  0  0  0  0
 14 53  1  0  0  0  0
 14 54  1  0  0  0  0
 15 17  1  0  0  0  0
 15 18  1  0  0  0  0
 15 55  1  0  0  0  0
 16 19  1  0  0  0  0
 16 56  1  0  0  0  0
 16 57  1  0  0  0  0
 17 58  1  0  0  0  0
 17 59  1  0  0  0  0
 17 60  1  0  0  0  0
 18 61  1  0  0  0  0
 18 62  1  0  0  0  0
 18 63  1  0  0  0  0
 19 20  2  0  0  0  0
 19 21  1  0  0  0  0
 20 22  1  0  0  0  0
 20 64  1  0  0  0  0
 21 65  1  0  0  0  0
 21 66  1  0  0  0  0
 21 67  1  0  0  0  0
 22 23  1  0  0  0  0
 22 68  1  0  0  0  0
 22 69  1  0  0  0  0
 23 24  1  0  0  0  0
 23 25  2  0  0  0  0
 24 26  2  0  0  0  0
 25 28  1  0  0  0  0
 25 70  1  0  0  0  0
 26 27  1  0  0  0  0
 26 29  1  0  0  0  0
 27 28  2  0  0  0  0
 27 30  1  0  0  0  0
 29 71  1  0  0  0  0
 29 72  1  0  0  0  0
 29 73  1  0  0  0  0
 30 74  1  0  0  0  0
 30 75  1  0  0  0  0
 30 76  1  0  0  0  0
M  END
> <PUBCHEM_COMPOUND_CID>
23724602

> <PUBCHEM_COMPOUND_CANONICALIZED>
1

> <PUBCHEM_CACTVS_COMPLEXITY>
469

> <PUBCHEM_CACTVS_HBOND_ACCEPTOR>
2

> <PUBCHEM_CACTVS_HBOND_DONOR>
2

> <PUBCHEM_CACTVS_ROTATABLE_BOND>
14

> <PUBCHEM_CACTVS_SUBSKEYS>
AAADcfB4MAAAAAAAAAAAAAAAAAAAAAAAAAAwAAAAAAAAAAABAAAAGgAACAAADQSAmAAyBoAAAgCAAiBCAAACAAAgIAAAiAAGCIgIJiKCERKAcAAkwBEImAfAwPAOwQADAAAYAACCAAYAADAAAAAAAAAAAA==

> <PUBCHEM_IUPAC_OPENEYE_NAME>
2,3-dimethyl-5-[(E)-3,7,11,15-tetramethylhexadec-2-enyl]benzene-1,4-diol

> <PUBCHEM_IUPAC_CAS_NAME>
2,3-dimethyl-5-[(E)-3,7,11,15-tetramethylhexadec-2-enyl]benzene-1,4-diol

> <PUBCHEM_IUPAC_NAME>
2,3-dimethyl-5-[(E)-3,7,11,15-tetramethylhexadec-2-enyl]benzene-1,4-diol

> <PUBCHEM_IUPAC_SYSTEMATIC_NAME>
2,3-dimethyl-5-[(E)-3,7,11,15-tetramethylhexadec-2-enyl]benzene-1,4-diol

> <PUBCHEM_IUPAC_TRADITIONAL_NAME>
2,3-dimethyl-5-[(E)-3,7,11,15-tetramethylhexadec-2-enyl]hydroquinone

> <PUBCHEM_IUPAC_INCHI>
InChI=1S/C28H48O2/c1-20(2)11-8-12-21(3)13-9-14-22(4)15-10-16-23(5)17-18-26-19-27(29)24(6)25(7)28(26)30/h17,19-22,29-30H,8-16,18H2,1-7H3/b23-17+

> <PUBCHEM_IUPAC_INCHIKEY>
SUFZKUBNOVDJRR-HAVVHWLPSA-N

> <PUBCHEM_XLOGP3_AA>
11

> <PUBCHEM_EXACT_MASS>
416.365431

> <PUBCHEM_MOLECULAR_FORMULA>
C28H48O2

> <PUBCHEM_MOLECULAR_WEIGHT>
416.67952

> <PUBCHEM_OPENEYE_CAN_SMILES>
CC1=C(C=C(C(=C1C)O)CC=C(C)CCCC(C)CCCC(C)CCCC(C)C)O

> <PUBCHEM_OPENEYE_ISO_SMILES>
CC1=C(C=C(C(=C1C)O)C/C=C(\C)/CCCC(C)CCCC(C)CCCC(C)C)O

> <PUBCHEM_CACTVS_TPSA>
40.5

> <PUBCHEM_MONOISOTOPIC_WEIGHT>
416.365431

> <PUBCHEM_TOTAL_CHARGE>
0

> <PUBCHEM_HEAVY_ATOM_COUNT>
30

> <PUBCHEM_ATOM_DEF_STEREO_COUNT>
0

> <PUBCHEM_ATOM_UDEF_STEREO_COUNT>
2

> <PUBCHEM_BOND_DEF_STEREO_COUNT>
1

> <PUBCHEM_BOND_UDEF_STEREO_COUNT>
0

> <PUBCHEM_ISOTOPIC_ATOM_COUNT>
0

> <PUBCHEM_COMPONENT_COUNT>
1

> <PUBCHEM_CACTVS_TAUTO_COUNT>
130

> <PUBCHEM_COORDINATE_TYPE>
1
5
255

> <PUBCHEM_BONDANNOTATIONS>
23  24  8
23  25  8
24  26  8
25  28  8
26  27  8
27  28  8
3  12  3
5  14  3

$$$$

