5282180
  -OEChem-07051213032D

128130  0     1  0  0  0  0  0999 V2000
   15.8843   -2.7889    0.0000 O   0  0  0  0  0  0  0  0  0  0  0  0
   12.3923   -0.7543    0.0000 O   0  0  0  0  0  0  0  0  0  0  0  0
   11.5263   -2.2543    0.0000 O   0  0  0  0  0  0  0  0  0  0  0  0
   16.7904   -2.2751    0.0000 C   0  0  2  0  0  0  0  0  0  0  0  0
   17.7904   -2.2790    0.0000 C   0  0  0  0  0  0  0  0  0  0  0  0
   16.7904   -1.2335    0.0000 C   0  0  0  0  0  0  0  0  0  0  0  0
   18.2937   -1.4149    0.0000 C   0  0  0  0  0  0  0  0  0  0  0  0
   19.2937   -1.4187    0.0000 C   0  0  0  0  0  0  0  0  0  0  0  0
   19.7970   -0.5546    0.0000 C   0  0  1  0  0  0  0  0  0  0  0  0
   15.8843   -0.7196    0.0000 C   0  0  0  0  0  0  0  0  0  0  0  0
   17.2870   -3.1430    0.0000 C   0  0  0  0  0  0  0  0  0  0  0  0
   14.9904   -1.2543    0.0000 C   0  0  0  0  0  0  0  0  0  0  0  0
   20.7970   -0.5585    0.0000 C   0  0  0  0  0  0  0  0  0  0  0  0
   14.9904   -2.2543    0.0000 C   0  0  0  0  0  0  0  0  0  0  0  0
    3.7320    0.2457    0.0000 C   0  0  0  0  0  0  0  0  0  0  0  0
   21.3004    0.3056    0.0000 C   0  0  0  0  0  0  0  0  0  0  0  0
   22.3004    0.3018    0.0000 C   0  0  0  0  0  0  0  0  0  0  0  0
   22.8037    1.1659    0.0000 C   0  0  1  0  0  0  0  0  0  0  0  0
    2.8660    0.7457    0.0000 C   0  0  0  0  0  0  0  0  0  0  0  0
   14.1244   -0.7543    0.0000 C   0  0  0  0  0  0  0  0  0  0  0  0
   19.3004    0.3133    0.0000 C   0  0  0  0  0  0  0  0  0  0  0  0
   14.1244   -2.7543    0.0000 C   0  0  0  0  0  0  0  0  0  0  0  0
    2.0000    0.2457    0.0000 C   0  0  0  0  0  0  0  0  0  0  0  0
    3.7320   -0.7543    0.0000 C   0  0  0  0  0  0  0  0  0  0  0  0
   23.8037    1.1620    0.0000 C   0  0  0  0  0  0  0  0  0  0  0  0
    2.0000   -0.7543    0.0000 C   0  0  0  0  0  0  0  0  0  0  0  0
    2.8660   -1.2543    0.0000 C   0  0  0  0  0  0  0  0  0  0  0  0
   13.2583   -2.2543    0.0000 C   0  0  0  0  0  0  0  0  0  0  0  0
   13.2583   -1.2543    0.0000 C   0  0  0  0  0  0  0  0  0  0  0  0
    4.2320    1.1118    0.0000 C   0  0  0  0  0  0  0  0  0  0  0  0
    4.7320    0.2457    0.0000 C   0  0  0  0  0  0  0  0  0  0  0  0
   24.3070    2.0261    0.0000 C   0  0  0  0  0  0  0  0  0  0  0  0
   22.3070    2.0338    0.0000 C   0  0  0  0  0  0  0  0  0  0  0  0
   14.1244    0.2457    0.0000 C   0  0  0  0  0  0  0  0  0  0  0  0
   14.1244   -3.7543    0.0000 C   0  0  0  0  0  0  0  0  0  0  0  0
   25.3070    2.0222    0.0000 C   0  0  0  0  0  0  0  0  0  0  0  0
    4.5981   -1.2543    0.0000 C   0  0  0  0  0  0  0  0  0  0  0  0
    2.8660   -2.2543    0.0000 C   0  0  0  0  0  0  0  0  0  0  0  0
   12.3923   -2.7543    0.0000 C   0  0  0  0  0  0  0  0  0  0  0  0
   25.8104    2.8863    0.0000 C   0  0  0  0  0  0  0  0  0  0  0  0
    5.4641   -0.7543    0.0000 C   0  0  0  0  0  0  0  0  0  0  0  0
   26.8103    2.8825    0.0000 C   0  0  0  0  0  0  0  0  0  0  0  0
   25.3137    3.7543    0.0000 C   0  0  0  0  0  0  0  0  0  0  0  0
   11.5263   -1.2543    0.0000 C   0  0  0  0  0  0  0  0  0  0  0  0
    6.3301   -1.2543    0.0000 C   0  0  0  0  0  0  0  0  0  0  0  0
   10.6603   -0.7543    0.0000 C   0  0  0  0  0  0  0  0  0  0  0  0
    6.3301   -2.2543    0.0000 C   0  0  0  0  0  0  0  0  0  0  0  0
    7.1962   -0.7543    0.0000 C   0  0  0  0  0  0  0  0  0  0  0  0
    9.7942   -1.2543    0.0000 C   0  0  0  0  0  0  0  0  0  0  0  0
    8.0622   -1.2543    0.0000 C   0  0  0  0  0  0  0  0  0  0  0  0
    8.9282   -0.7543    0.0000 C   0  0  0  0  0  0  0  0  0  0  0  0
    9.7942   -2.2543    0.0000 C   0  0  0  0  0  0  0  0  0  0  0  0
   17.6804   -2.8891    0.0000 H   0  0  0  0  0  0  0  0  0  0  0  0
   18.3722   -2.4932    0.0000 H   0  0  0  0  0  0  0  0  0  0  0  0
   17.4012   -1.3396    0.0000 H   0  0  0  0  0  0  0  0  0  0  0  0
   16.9994   -0.6498    0.0000 H   0  0  0  0  0  0  0  0  0  0  0  0
   18.4037   -0.8047    0.0000 H   0  0  0  0  0  0  0  0  0  0  0  0
   17.7119   -1.2006    0.0000 H   0  0  0  0  0  0  0  0  0  0  0  0
   19.1837   -2.0289    0.0000 H   0  0  0  0  0  0  0  0  0  0  0  0
   19.8755   -1.6330    0.0000 H   0  0  0  0  0  0  0  0  0  0  0  0
   19.1770   -0.5522    0.0000 H   0  0  0  0  0  0  0  0  0  0  0  0
   16.2779   -0.2406    0.0000 H   0  0  0  0  0  0  0  0  0  0  0  0
   15.4797   -0.2498    0.0000 H   0  0  0  0  0  0  0  0  0  0  0  0
   16.7489   -3.4510    0.0000 H   0  0  0  0  0  0  0  0  0  0  0  0
   17.5950   -3.6812    0.0000 H   0  0  0  0  0  0  0  0  0  0  0  0
   17.8252   -2.8351    0.0000 H   0  0  0  0  0  0  0  0  0  0  0  0
   20.6870   -1.1686    0.0000 H   0  0  0  0  0  0  0  0  0  0  0  0
   21.3788   -0.7728    0.0000 H   0  0  0  0  0  0  0  0  0  0  0  0
   21.4104    0.9158    0.0000 H   0  0  0  0  0  0  0  0  0  0  0  0
   20.7186    0.5199    0.0000 H   0  0  0  0  0  0  0  0  0  0  0  0
   22.1903   -0.3084    0.0000 H   0  0  0  0  0  0  0  0  0  0  0  0
   22.8822    0.0875    0.0000 H   0  0  0  0  0  0  0  0  0  0  0  0
   23.1158    1.7016    0.0000 H   0  0  0  0  0  0  0  0  0  0  0  0
    3.2646    1.2207    0.0000 H   0  0  0  0  0  0  0  0  0  0  0  0
    2.4675    1.2207    0.0000 H   0  0  0  0  0  0  0  0  0  0  0  0
   19.8385    0.6213    0.0000 H   0  0  0  0  0  0  0  0  0  0  0  0
   18.9925    0.8515    0.0000 H   0  0  0  0  0  0  0  0  0  0  0  0
   18.7623    0.0054    0.0000 H   0  0  0  0  0  0  0  0  0  0  0  0
    1.7880    0.8283    0.0000 H   0  0  0  0  0  0  0  0  0  0  0  0
    1.3894    0.1381    0.0000 H   0  0  0  0  0  0  0  0  0  0  0  0
   23.6937    0.5518    0.0000 H   0  0  0  0  0  0  0  0  0  0  0  0
   24.3855    0.9477    0.0000 H   0  0  0  0  0  0  0  0  0  0  0  0
    1.3894   -0.6466    0.0000 H   0  0  0  0  0  0  0  0  0  0  0  0
    1.7880   -1.3369    0.0000 H   0  0  0  0  0  0  0  0  0  0  0  0
    4.7690    0.8017    0.0000 H   0  0  0  0  0  0  0  0  0  0  0  0
    4.5420    1.6487    0.0000 H   0  0  0  0  0  0  0  0  0  0  0  0
    3.6951    1.4218    0.0000 H   0  0  0  0  0  0  0  0  0  0  0  0
    4.7320   -0.3743    0.0000 H   0  0  0  0  0  0  0  0  0  0  0  0
    5.3520    0.2457    0.0000 H   0  0  0  0  0  0  0  0  0  0  0  0
    4.7320    0.8657    0.0000 H   0  0  0  0  0  0  0  0  0  0  0  0
   24.4170    2.6362    0.0000 H   0  0  0  0  0  0  0  0  0  0  0  0
   23.7252    2.2404    0.0000 H   0  0  0  0  0  0  0  0  0  0  0  0
   22.8452    2.3417    0.0000 H   0  0  0  0  0  0  0  0  0  0  0  0
   21.9991    2.5719    0.0000 H   0  0  0  0  0  0  0  0  0  0  0  0
   21.7689    1.7259    0.0000 H   0  0  0  0  0  0  0  0  0  0  0  0
   14.7444    0.2457    0.0000 H   0  0  0  0  0  0  0  0  0  0  0  0
   14.1244    0.8657    0.0000 H   0  0  0  0  0  0  0  0  0  0  0  0
   13.5044    0.2457    0.0000 H   0  0  0  0  0  0  0  0  0  0  0  0
   13.5044   -3.7543    0.0000 H   0  0  0  0  0  0  0  0  0  0  0  0
   14.1244   -4.3743    0.0000 H   0  0  0  0  0  0  0  0  0  0  0  0
   14.7444   -3.7543    0.0000 H   0  0  0  0  0  0  0  0  0  0  0  0
   25.1970    1.4121    0.0000 H   0  0  0  0  0  0  0  0  0  0  0  0
   25.8888    1.8079    0.0000 H   0  0  0  0  0  0  0  0  0  0  0  0
    4.5981   -1.8743    0.0000 H   0  0  0  0  0  0  0  0  0  0  0  0
    2.2460   -2.2543    0.0000 H   0  0  0  0  0  0  0  0  0  0  0  0
    2.8660   -2.8743    0.0000 H   0  0  0  0  0  0  0  0  0  0  0  0
    3.4860   -2.2543    0.0000 H   0  0  0  0  0  0  0  0  0  0  0  0
   12.0823   -2.2173    0.0000 H   0  0  0  0  0  0  0  0  0  0  0  0
   11.8554   -3.0643    0.0000 H   0  0  0  0  0  0  0  0  0  0  0  0
   12.7023   -3.2912    0.0000 H   0  0  0  0  0  0  0  0  0  0  0  0
   26.1183    2.3482    0.0000 H   0  0  0  0  0  0  0  0  0  0  0  0
    5.4641   -0.1343    0.0000 H   0  0  0  0  0  0  0  0  0  0  0  0
   25.8518    4.0622    0.0000 H   0  0  0  0  0  0  0  0  0  0  0  0
   25.0058    4.2924    0.0000 H   0  0  0  0  0  0  0  0  0  0  0  0
   24.7756    3.4464    0.0000 H   0  0  0  0  0  0  0  0  0  0  0  0
   26.8080    2.2625    0.0000 H   0  0  0  0  0  0  0  0  0  0  0  0
   27.4303    2.8801    0.0000 H   0  0  0  0  0  0  0  0  0  0  0  0
   26.8127    3.5025    0.0000 H   0  0  0  0  0  0  0  0  0  0  0  0
   10.6603   -0.1343    0.0000 H   0  0  0  0  0  0  0  0  0  0  0  0
    5.7101   -2.2543    0.0000 H   0  0  0  0  0  0  0  0  0  0  0  0
    6.3301   -2.8743    0.0000 H   0  0  0  0  0  0  0  0  0  0  0  0
    6.9501   -2.2543    0.0000 H   0  0  0  0  0  0  0  0  0  0  0  0
    7.1962   -0.1343    0.0000 H   0  0  0  0  0  0  0  0  0  0  0  0
    8.0622   -1.8743    0.0000 H   0  0  0  0  0  0  0  0  0  0  0  0
    8.9282   -0.1343    0.0000 H   0  0  0  0  0  0  0  0  0  0  0  0
    9.1742   -2.2543    0.0000 H   0  0  0  0  0  0  0  0  0  0  0  0
    9.7942   -2.8743    0.0000 H   0  0  0  0  0  0  0  0  0  0  0  0
   10.4142   -2.2543    0.0000 H   0  0  0  0  0  0  0  0  0  0  0  0
  1  4  1  0  0  0  0
  1 14  1  0  0  0  0
  2 29  1  0  0  0  0
  2 44  1  0  0  0  0
  3 44  2  0  0  0  0
  4  5  1  0  0  0  0
  4  6  1  0  0  0  0
  4 11  1  6  0  0  0
  5  7  1  0  0  0  0
  5 53  1  0  0  0  0
  5 54  1  0  0  0  0
  6 10  1  0  0  0  0
  6 55  1  0  0  0  0
  6 56  1  0  0  0  0
  7  8  1  0  0  0  0
  7 57  1  0  0  0  0
  7 58  1  0  0  0  0
  8  9  1  0  0  0  0
  8 59  1  0  0  0  0
  8 60  1  0  0  0  0
  9 13  1  0  0  0  0
  9 21  1  6  0  0  0
  9 61  1  0  0  0  0
 10 12  1  0  0  0  0
 10 62  1  0  0  0  0
 10 63  1  0  0  0  0
 11 64  1  0  0  0  0
 11 65  1  0  0  0  0
 11 66  1  0  0  0  0
 12 14  1  0  0  0  0
 12 20  2  0  0  0  0
 13 16  1  0  0  0  0
 13 67  1  0  0  0  0
 13 68  1  0  0  0  0
 14 22  2  0  0  0  0
 15 19  1  0  0  0  0
 15 24  1  0  0  0  0
 15 30  1  0  0  0  0
 15 31  1  0  0  0  0
 16 17  1  0  0  0  0
 16 69  1  0  0  0  0
 16 70  1  0  0  0  0
 17 18  1  0  0  0  0
 17 71  1  0  0  0  0
 17 72  1  0  0  0  0
 18 25  1  0  0  0  0
 18 33  1  6  0  0  0
 18 73  1  0  0  0  0
 19 23  1  0  0  0  0
 19 74  1  0  0  0  0
 19 75  1  0  0  0  0
 20 29  1  0  0  0  0
 20 34  1  0  0  0  0
 21 76  1  0  0  0  0
 21 77  1  0  0  0  0
 21 78  1  0  0  0  0
 22 28  1  0  0  0  0
 22 35  1  0  0  0  0
 23 26  1  0  0  0  0
 23 79  1  0  0  0  0
 23 80  1  0  0  0  0
 24 27  2  0  0  0  0
 24 37  1  0  0  0  0
 25 32  1  0  0  0  0
 25 81  1  0  0  0  0
 25 82  1  0  0  0  0
 26 27  1  0  0  0  0
 26 83  1  0  0  0  0
 26 84  1  0  0  0  0
 27 38  1  0  0  0  0
 28 29  2  0  0  0  0
 28 39  1  0  0  0  0
 30 85  1  0  0  0  0
 30 86  1  0  0  0  0
 30 87  1  0  0  0  0
 31 88  1  0  0  0  0
 31 89  1  0  0  0  0
 31 90  1  0  0  0  0
 32 36  1  0  0  0  0
 32 91  1  0  0  0  0
 32 92  1  0  0  0  0
 33 93  1  0  0  0  0
 33 94  1  0  0  0  0
 33 95  1  0  0  0  0
 34 96  1  0  0  0  0
 34 97  1  0  0  0  0
 34 98  1  0  0  0  0
 35 99  1  0  0  0  0
 35100  1  0  0  0  0
 35101  1  0  0  0  0
 36 40  1  0  0  0  0
 36102  1  0  0  0  0
 36103  1  0  0  0  0
 37 41  2  0  0  0  0
 37104  1  0  0  0  0
 38105  1  0  0  0  0
 38106  1  0  0  0  0
 38107  1  0  0  0  0
 39108  1  0  0  0  0
 39109  1  0  0  0  0
 39110  1  0  0  0  0
 40 42  1  0  0  0  0
 40 43  1  0  0  0  0
 40111  1  0  0  0  0
 41 45  1  0  0  0  0
 41112  1  0  0  0  0
 42116  1  0  0  0  0
 42117  1  0  0  0  0
 42118  1  0  0  0  0
 43113  1  0  0  0  0
 43114  1  0  0  0  0
 43115  1  0  0  0  0
 44 46  1  0  0  0  0
 45 47  1  0  0  0  0
 45 48  2  0  0  0  0
 46 49  2  0  0  0  0
 46119  1  0  0  0  0
 47120  1  0  0  0  0
 47121  1  0  0  0  0
 47122  1  0  0  0  0
 48 50  1  0  0  0  0
 48123  1  0  0  0  0
 49 51  1  0  0  0  0
 49 52  1  0  0  0  0
 50 51  2  0  0  0  0
 50124  1  0  0  0  0
 51125  1  0  0  0  0
 52126  1  0  0  0  0
 52127  1  0  0  0  0
 52128  1  0  0  0  0
M  END
> <PUBCHEM_COMPOUND_CID>
5282180

> <PUBCHEM_COMPOUND_CANONICALIZED>
1

> <PUBCHEM_CACTVS_COMPLEXITY>
1280

> <PUBCHEM_CACTVS_HBOND_ACCEPTOR>
3

> <PUBCHEM_CACTVS_HBOND_DONOR>
0

> <PUBCHEM_CACTVS_ROTATABLE_BOND>
19

> <PUBCHEM_CACTVS_SUBSKEYS>
AAADcfB8MAAAAAAAAAAAAAAAAAAAAAAAAAA0QIAAAAAAAACRAAAAGgAAAAAAD0SAmAACDoAABACIAiDSCAACCAAgIAAIiAAECMgMJiKEMRqCOiCkwBEIqQfAwPAPwQADAAAYAACCAAYAADAAAAAAAAAAAA==

> <PUBCHEM_IUPAC_OPENEYE_NAME>
[(2R)-2,5,7,8-tetramethyl-2-[(4R,8R)-4,8,12-trimethyltridecyl]chroman-6-yl] (2E,4E,6E,8E)-3,7-dimethyl-9-(2,6,6-trimethylcyclohexen-1-yl)nona-2,4,6,8-tetraenoate

> <PUBCHEM_IUPAC_CAS_NAME>
(2E,4E,6E,8E)-3,7-dimethyl-9-(2,6,6-trimethyl-1-cyclohexenyl)nona-2,4,6,8-tetraenoic acid [(2R)-2,5,7,8-tetramethyl-2-[(4R,8R)-4,8,12-trimethyltridecyl]-3,4-dihydro-2H-1-benzopyran-6-yl] ester

> <PUBCHEM_IUPAC_NAME>
[(2R)-2,5,7,8-tetramethyl-2-[(4R,8R)-4,8,12-trimethyltridecyl]-3,4-dihydrochromen-6-yl] (2E,4E,6E,8E)-3,7-dimethyl-9-(2,6,6-trimethylcyclohexen-1-yl)nona-2,4,6,8-tetraenoate

> <PUBCHEM_IUPAC_SYSTEMATIC_NAME>
[(2R)-2,5,7,8-tetramethyl-2-[(4R,8R)-4,8,12-trimethyltridecyl]-3,4-dihydrochromen-6-yl] (2E,4E,6E,8E)-3,7-dimethyl-9-(2,6,6-trimethylcyclohexen-1-yl)nona-2,4,6,8-tetraenoate

> <PUBCHEM_IUPAC_TRADITIONAL_NAME>
(2E,4E,6E,8E)-3,7-dimethyl-9-(2,6,6-trimethylcyclohexen-1-yl)nona-2,4,6,8-tetraenoic acid [(2R)-2,5,7,8-tetramethyl-2-[(4R,8R)-4,8,12-trimethyltridecyl]chroman-6-yl] ester

> <PUBCHEM_IUPAC_INCHI>
InChI=1S/C49H76O3/c1-34(2)19-14-20-35(3)21-15-22-36(4)25-17-31-49(13)32-29-43-42(10)46(40(8)41(9)47(43)52-49)51-45(50)33-38(6)24-16-23-37(5)27-28-44-39(7)26-18-30-48(44,11)12/h16,23-24,27-28,33-36H,14-15,17-22,25-26,29-32H2,1-13H3/b24-16+,28-27+,37-23+,38-33+/t35-,36-,49-/m1/s1

> <PUBCHEM_IUPAC_INCHIKEY>
RIQIJXOWVAHQES-UNAKLNRMSA-N

> <PUBCHEM_XLOGP3_AA>
16.9

> <PUBCHEM_EXACT_MASS>
712.579446

> <PUBCHEM_MOLECULAR_FORMULA>
C49H76O3

> <PUBCHEM_MOLECULAR_WEIGHT>
713.12594

> <PUBCHEM_OPENEYE_CAN_SMILES>
CC1=C(C(CCC1)(C)C)C=CC(=CC=CC(=CC(=O)OC2=C(C(=C3C(=C2C)CCC(O3)(C)CCCC(C)CCCC(C)CCCC(C)C)C)C)C)C

> <PUBCHEM_OPENEYE_ISO_SMILES>
CC1=C(C(CCC1)(C)C)/C=C/C(=C/C=C/C(=C/C(=O)OC2=C(C(=C3C(=C2C)CC[C@@](O3)(C)CCC[C@H](C)CCC[C@H](C)CCCC(C)C)C)C)/C)/C

> <PUBCHEM_CACTVS_TPSA>
35.5

> <PUBCHEM_MONOISOTOPIC_WEIGHT>
712.579446

> <PUBCHEM_TOTAL_CHARGE>
0

> <PUBCHEM_HEAVY_ATOM_COUNT>
52

> <PUBCHEM_ATOM_DEF_STEREO_COUNT>
3

> <PUBCHEM_ATOM_UDEF_STEREO_COUNT>
0

> <PUBCHEM_BOND_DEF_STEREO_COUNT>
4

> <PUBCHEM_BOND_UDEF_STEREO_COUNT>
0

> <PUBCHEM_ISOTOPIC_ATOM_COUNT>
0

> <PUBCHEM_COMPONENT_COUNT>
1

> <PUBCHEM_CACTVS_TAUTO_COUNT>
1

> <PUBCHEM_COORDINATE_TYPE>
1
5
255

> <PUBCHEM_BONDANNOTATIONS>
12  14  8
12  20  8
14  22  8
18  33  6
20  29  8
22  28  8
28  29  8
4  11  6
9  21  6

$$$$

