   Color/Form
        WATER-WHITE LIQUID
   from [1]HSDB

   Odor

     * PEAR-LIKE ODOR
     * CHARACTERISTIC FLOWERY (JASMINE) ODOR
     * Powerful but thin, sweet floral fresh, fresh and light, fruity odor
       reminiscent of Jasmin, Gardenia, Muguet, Lily and other flowers.

   from [2]HSDB

   Taste
        BITTER, PUNGENT TASTE
   from [3]HSDB

   Boiling Point
        213 DEG C
   from [4]HSDB

   Melting Point
        -51 DEG C
   from [5]HSDB

   Density/Specific Gravity
        1.050 @ 25 DEG C/4 DEG C
   from [6]HSDB

   Octanol/Water Partition Coefficient
        log Kow = 1.96
   from [7]HSDB

   Solubilities

     * PRACTICALLY INSOL IN WATER; MISCIBLE WITH ALCOHOL, ETHER
     * SOL IN BENZENE, CHLOROFORM
     * Miscible in ethanol, soluble in ethyl ether and acetone.
     * In water, 3.1 g/l.

   from [8]HSDB

   Spectral Properties

     * INDICES OF REFRACTION: 1.5232 @ 20 DEG C/D; 1.4998 @ 25 DEG C/D
     * IR: 3715 (Coblentz Society Spectral Collection)
     * UV: 260 (Sadtler Research Laboratories Spectral Collection)
     * NMR: 53 (Varian Associates NMR Spectra Catalogue)
     * MASS: 879 (Atlas of Mass Spectral Data, John Wiley & Sons, New
       York)
     * IR: 2:892C (Aldrich Library of Infrared Spectra, Aldrich Chemical
       Co, Milwaukee, WI)
     * NMR: 7:21A (Aldrich Library of Mass Spectra, Aldrich Chemical Co,
       Milwaukee, WI)
     * MASS: 4147 (National Bureau of Standards EPA-NIH Mass Spectra Data
       Base, NSRDS-NBS-63)

   from [9]HSDB

   Vapor Density
        5.1 (AIR= 1)
   from [10]HSDB

   Vapor Pressure
        0.177 mm Hg at 25 deg C /from experimentally-derived coefficients/
   from [11]HSDB

   Other Chemical/Physical Properties

     * Bp: 134 deg C at 102 mm Hg
     * VAPOR PRESURE = 1.0 MM HG @ 45 DEG C

   from [12]HSDB

   Computed Properties
   Molecular Weight                  150.1745 [g/mol]
   Molecular Formula                 C[9]H[10]O[2]
   XLogP3                            2
   H-Bond Donor                      0
   H-Bond Acceptor                   2
   Rotatable Bond Count              3
   Exact Mass                        150.06808
   MonoIsotopic Mass                 150.06808
   Topological Polar Surface Area    26.3
   Heavy Atom Count                  11
   Formal Charge                     0
   Complexity                        126
   Isotope Atom Count                0
   Defined Atom Stereocenter Count   0
   Undefined Atom Stereocenter Count 0
   Defined Bond Stereocenter Count   0
   Undefined Bond Stereocenter Count 0
   Covalently-Bonded Unit Count      1
   Feature 3D Acceptor Count         1
   Feature 3D Ring Count             1
   Effective Rotor Count             3
   Conformer Sampling RMSD           0.6
   CID Conformer Count               [13]6

References

   1. http://toxnet.nlm.nih.gov/cgi-bin/sis/search/r?dbs+hsdb:@term+@rn+@rel+140-11-4
   2. http://toxnet.nlm.nih.gov/cgi-bin/sis/search/r?dbs+hsdb:@term+@rn+@rel+140-11-4
   3. http://toxnet.nlm.nih.gov/cgi-bin/sis/search/r?dbs+hsdb:@term+@rn+@rel+140-11-4
   4. http://toxnet.nlm.nih.gov/cgi-bin/sis/search/r?dbs+hsdb:@term+@rn+@rel+140-11-4
   5. http://toxnet.nlm.nih.gov/cgi-bin/sis/search/r?dbs+hsdb:@term+@rn+@rel+140-11-4
   6. http://toxnet.nlm.nih.gov/cgi-bin/sis/search/r?dbs+hsdb:@term+@rn+@rel+140-11-4
   7. http://toxnet.nlm.nih.gov/cgi-bin/sis/search/r?dbs+hsdb:@term+@rn+@rel+140-11-4
   8. http://toxnet.nlm.nih.gov/cgi-bin/sis/search/r?dbs+hsdb:@term+@rn+@rel+140-11-4
   9. http://toxnet.nlm.nih.gov/cgi-bin/sis/search/r?dbs+hsdb:@term+@rn+@rel+140-11-4
  10. http://toxnet.nlm.nih.gov/cgi-bin/sis/search/r?dbs+hsdb:@term+@rn+@rel+140-11-4
  11. http://toxnet.nlm.nih.gov/cgi-bin/sis/search/r?dbs+hsdb:@term+@rn+@rel+140-11-4
  12. http://toxnet.nlm.nih.gov/cgi-bin/sis/search/r?dbs+hsdb:@term+@rn+@rel+140-11-4
  13. http://pubchem.ncbi.nlm.nih.gov/vw3d/vw3d.cgi?cid=8785
