   Color/Form

     * Pale-yellow, oily liquid [Note: A solid below 36 degrees F].
     * Yellowish to brownish, oily liquid

   from [1]HSDB

   Odor
        Amine-like odor.
   from [2]HSDB

   Boiling Point
        193.54 deg C
   from [3]HSDB

   Melting Point
        2.50 deg C
   from [4]HSDB

   Critical Temperature and Pressure
        Critical temperature: 414 deg C; critical pressure: 3.63X10+3 kPa
   from [5]HSDB

   Density/Specific Gravity
        0.956 @ 20 deg C/4 deg C
   from [6]HSDB

   Dissociation Constants
        pKa= 5.15 @ 25 deg C
   from [7]HSDB

   Heat of Vaporization
        5.14X10+7 J/kmol @ 2.50 deg C
   from [8]HSDB

   Octanol/Water Partition Coefficient
        log Kow= 2.31
   from [9]HSDB

   Solubilities

     * Freely sol in alcohol, chloroform, ether
     * Sol in acetone, benzene, org solvents
     * Sol in oxygenated and chlorinated solvents
     * Soluble in ethanol, ethyl ether, and acetone
     * Water solubility of 1454 ppm at 25 deg C

   from [10]HSDB

   Spectral Properties

     * Index of refraction: 1.5582 @ 20 deg C/D
     * MAX ABSORPTION (ALC): 235 NM (LOG E= 4.1); 251 NM (LOG E= 4.11);
       293 NM (LOG E= 3.2); SADTLER REFERENCE NUMBER: 6 (IR, PRISM); 4
       (IR, GRATING)
     * IR: 6951 (Coblentz Society Spectral Collection)
     * UV: 3 (Sadtler Research Laboratories Spectral Collection)
     * NMR: 1 (Sadtler Research Laboratories Spectral Collection)
     * MASS: 490 (Atlas of Mass Spectral Data, John Wiley & Sons, New
       York)
     * Intense mass spectral peaks: 106 m/z, 121 m/z

   from [11]HSDB

   Surface Tension
        3.83X10-3 N.m @ 2.50 deg C
   from [12]HSDB

   Vapor Density
        4.17 (Air= 1)
   from [13]HSDB

   Vapor Pressure
        0.70 mm Hg @ 25 deg C
   from [14]HSDB

   Viscosity
        1.89X10-3 Pa.s @ 2.50 deg C
   from [15]HSDB

   Other Chemical/Physical Properties

     * SOLIDIFIES +2 DEG C
     * VAPOR PRESSURE: 1 MM HG @ 29.5 DEG C
     * Hydroxyl radical rate constant = 1.48X10-10 cu cm/molecule-sec @ 25
       deg C

   from [16]HSDB

   Computed Properties
   Molecular Weight                  121.17964 [g/mol]
   Molecular Formula                 C[8]H[11]N
   XLogP3                            2.3
   H-Bond Donor                      0
   H-Bond Acceptor                   1
   Rotatable Bond Count              1
   Exact Mass                        121.089149
   MonoIsotopic Mass                 121.089149
   Topological Polar Surface Area    3.2
   Heavy Atom Count                  9
   Formal Charge                     0
   Complexity                        72.6
   Isotope Atom Count                0
   Defined Atom Stereocenter Count   0
   Undefined Atom Stereocenter Count 0
   Defined Bond Stereocenter Count   0
   Undefined Bond Stereocenter Count 0
   Covalently-Bonded Unit Count      1
   Feature 3D Cation Count           1
   Feature 3D Ring Count             1
   Effective Rotor Count             1
   Conformer Sampling RMSD           0.4
   CID Conformer Count               [17]2

References

   1. http://toxnet.nlm.nih.gov/cgi-bin/sis/search/r?dbs+hsdb:@term+@rn+@rel+121-69-7
   2. http://toxnet.nlm.nih.gov/cgi-bin/sis/search/r?dbs+hsdb:@term+@rn+@rel+121-69-7
   3. http://toxnet.nlm.nih.gov/cgi-bin/sis/search/r?dbs+hsdb:@term+@rn+@rel+121-69-7
   4. http://toxnet.nlm.nih.gov/cgi-bin/sis/search/r?dbs+hsdb:@term+@rn+@rel+121-69-7
   5. http://toxnet.nlm.nih.gov/cgi-bin/sis/search/r?dbs+hsdb:@term+@rn+@rel+121-69-7
   6. http://toxnet.nlm.nih.gov/cgi-bin/sis/search/r?dbs+hsdb:@term+@rn+@rel+121-69-7
   7. http://toxnet.nlm.nih.gov/cgi-bin/sis/search/r?dbs+hsdb:@term+@rn+@rel+121-69-7
   8. http://toxnet.nlm.nih.gov/cgi-bin/sis/search/r?dbs+hsdb:@term+@rn+@rel+121-69-7
   9. http://toxnet.nlm.nih.gov/cgi-bin/sis/search/r?dbs+hsdb:@term+@rn+@rel+121-69-7
  10. http://toxnet.nlm.nih.gov/cgi-bin/sis/search/r?dbs+hsdb:@term+@rn+@rel+121-69-7
  11. http://toxnet.nlm.nih.gov/cgi-bin/sis/search/r?dbs+hsdb:@term+@rn+@rel+121-69-7
  12. http://toxnet.nlm.nih.gov/cgi-bin/sis/search/r?dbs+hsdb:@term+@rn+@rel+121-69-7
  13. http://toxnet.nlm.nih.gov/cgi-bin/sis/search/r?dbs+hsdb:@term+@rn+@rel+121-69-7
  14. http://toxnet.nlm.nih.gov/cgi-bin/sis/search/r?dbs+hsdb:@term+@rn+@rel+121-69-7
  15. http://toxnet.nlm.nih.gov/cgi-bin/sis/search/r?dbs+hsdb:@term+@rn+@rel+121-69-7
  16. http://toxnet.nlm.nih.gov/cgi-bin/sis/search/r?dbs+hsdb:@term+@rn+@rel+121-69-7
  17. http://pubchem.ncbi.nlm.nih.gov/vw3d/vw3d.cgi?cid=949
