65016
  -OEChem-07051212542D

 70 72  0     1  0  0  0  0  0999 V2000
    4.5981   -1.4462    0.0000 S   0  0  0  0  0  0  0  0  0  0  0  0
    4.5981    1.5538    0.0000 O   0  0  0  0  0  0  0  0  0  0  0  0
    5.4641    4.0538    0.0000 O   0  0  0  0  0  0  0  0  0  0  0  0
    3.0154    4.8902    0.0000 O   0  0  0  0  0  0  0  0  0  0  0  0
    5.5981   -1.4462    0.0000 O   0  0  0  0  0  0  0  0  0  0  0  0
    3.5981   -1.4462    0.0000 O   0  0  0  0  0  0  0  0  0  0  0  0
    4.5981    2.5538    0.0000 O   0  0  0  0  0  0  0  0  0  0  0  0
    4.5981   -0.4462    0.0000 N   0  0  3  0  0  0  0  0  0  0  0  0
    6.3301    2.5538    0.0000 N   0  0  0  0  0  0  0  0  0  0  0  0
    4.5981   -5.4462    0.0000 N   0  0  0  0  0  0  0  0  0  0  0  0
    5.4641    1.0538    0.0000 C   0  0  1  0  0  0  0  0  0  0  0  0
    6.3301    1.5538    0.0000 C   0  0  2  0  0  0  0  0  0  0  0  0
    5.4641    0.0538    0.0000 C   0  0  0  0  0  0  0  0  0  0  0  0
    3.7320    0.0538    0.0000 C   0  0  0  0  0  0  0  0  0  0  0  0
    7.1962    1.0538    0.0000 C   0  0  0  0  0  0  0  0  0  0  0  0
    2.8660   -0.4462    0.0000 C   0  0  0  0  0  0  0  0  0  0  0  0
    4.5981    4.5538    0.0000 C   0  0  1  0  0  0  0  0  0  0  0  0
    8.0622    1.5538    0.0000 C   0  0  0  0  0  0  0  0  0  0  0  0
    2.0000    0.0538    0.0000 C   0  0  0  0  0  0  0  0  0  0  0  0
    2.8660   -1.4462    0.0000 C   0  0  0  0  0  0  0  0  0  0  0  0
    4.4936    5.5483    0.0000 C   0  0  0  0  0  0  0  0  0  0  0  0
    4.5981   -2.4462    0.0000 C   0  0  0  0  0  0  0  0  0  0  0  0
    3.6845    4.1470    0.0000 C   0  0  0  0  0  0  0  0  0  0  0  0
    5.4641    3.0538    0.0000 C   0  0  0  0  0  0  0  0  0  0  0  0
    3.5154    5.7562    0.0000 C   0  0  0  0  0  0  0  0  0  0  0  0
    8.9282    1.0538    0.0000 C   0  0  0  0  0  0  0  0  0  0  0  0
    8.0622    2.5538    0.0000 C   0  0  0  0  0  0  0  0  0  0  0  0
    3.7320   -2.9462    0.0000 C   0  0  0  0  0  0  0  0  0  0  0  0
    5.4641   -2.9462    0.0000 C   0  0  0  0  0  0  0  0  0  0  0  0
    9.7942    1.5538    0.0000 C   0  0  0  0  0  0  0  0  0  0  0  0
    8.9282    3.0538    0.0000 C   0  0  0  0  0  0  0  0  0  0  0  0
    3.7320   -3.9462    0.0000 C   0  0  0  0  0  0  0  0  0  0  0  0
    5.4641   -3.9462    0.0000 C   0  0  0  0  0  0  0  0  0  0  0  0
    4.5981   -4.4462    0.0000 C   0  0  0  0  0  0  0  0  0  0  0  0
    9.7942    2.5538    0.0000 C   0  0  0  0  0  0  0  0  0  0  0  0
    5.4641    1.6738    0.0000 H   0  0  0  0  0  0  0  0  0  0  0  0
    6.8671    1.8638    0.0000 H   0  0  0  0  0  0  0  0  0  0  0  0
    5.6762   -0.5288    0.0000 H   0  0  0  0  0  0  0  0  0  0  0  0
    6.0747    0.1614    0.0000 H   0  0  0  0  0  0  0  0  0  0  0  0
    4.1306    0.5287    0.0000 H   0  0  0  0  0  0  0  0  0  0  0  0
    3.3335    0.5287    0.0000 H   0  0  0  0  0  0  0  0  0  0  0  0
    6.7976    0.5788    0.0000 H   0  0  0  0  0  0  0  0  0  0  0  0
    7.5947    0.5788    0.0000 H   0  0  0  0  0  0  0  0  0  0  0  0
    2.8660    0.1738    0.0000 H   0  0  0  0  0  0  0  0  0  0  0  0
    6.8671    2.8638    0.0000 H   0  0  0  0  0  0  0  0  0  0  0  0
    5.1180    4.8915    0.0000 H   0  0  0  0  0  0  0  0  0  0  0  0
    5.1136    5.5483    0.0000 H   0  0  0  0  0  0  0  0  0  0  0  0
    4.5584    6.1649    0.0000 H   0  0  0  0  0  0  0  0  0  0  0  0
    2.2460   -1.4462    0.0000 H   0  0  0  0  0  0  0  0  0  0  0  0
    2.8660   -2.0662    0.0000 H   0  0  0  0  0  0  0  0  0  0  0  0
    3.4860   -1.4462    0.0000 H   0  0  0  0  0  0  0  0  0  0  0  0
    2.3100    0.5907    0.0000 H   0  0  0  0  0  0  0  0  0  0  0  0
    1.4631    0.3638    0.0000 H   0  0  0  0  0  0  0  0  0  0  0  0
    1.6900   -0.4832    0.0000 H   0  0  0  0  0  0  0  0  0  0  0  0
    4.0611    1.2438    0.0000 H   0  0  0  0  0  0  0  0  0  0  0  0
    3.1829    3.7826    0.0000 H   0  0  0  0  0  0  0  0  0  0  0  0
    3.9945    3.6101    0.0000 H   0  0  0  0  0  0  0  0  0  0  0  0
    3.7070    6.3459    0.0000 H   0  0  0  0  0  0  0  0  0  0  0  0
    2.9490    6.0084    0.0000 H   0  0  0  0  0  0  0  0  0  0  0  0
    8.9282    0.4338    0.0000 H   0  0  0  0  0  0  0  0  0  0  0  0
    7.5252    2.8638    0.0000 H   0  0  0  0  0  0  0  0  0  0  0  0
    3.1951   -2.6362    0.0000 H   0  0  0  0  0  0  0  0  0  0  0  0
    6.0010   -2.6362    0.0000 H   0  0  0  0  0  0  0  0  0  0  0  0
   10.3312    1.2438    0.0000 H   0  0  0  0  0  0  0  0  0  0  0  0
    8.9282    3.6738    0.0000 H   0  0  0  0  0  0  0  0  0  0  0  0
    3.1951   -4.2562    0.0000 H   0  0  0  0  0  0  0  0  0  0  0  0
    6.0010   -4.2562    0.0000 H   0  0  0  0  0  0  0  0  0  0  0  0
   10.3312    2.8638    0.0000 H   0  0  0  0  0  0  0  0  0  0  0  0
    4.0611   -5.7562    0.0000 H   0  0  0  0  0  0  0  0  0  0  0  0
    5.1350   -5.7562    0.0000 H   0  0  0  0  0  0  0  0  0  0  0  0
  1  5  2  0  0  0  0
  1  6  2  0  0  0  0
  1  8  1  0  0  0  0
  1 22  1  0  0  0  0
 11  2  1  1  0  0  0
  2 55  1  0  0  0  0
 17  3  1  6  0  0  0
  3 24  1  0  0  0  0
  4 23  1  0  0  0  0
  4 25  1  0  0  0  0
  7 24  2  0  0  0  0
  8 13  1  0  0  0  0
  8 14  1  0  0  0  0
 12  9  1  1  0  0  0
  9 24  1  0  0  0  0
  9 45  1  0  0  0  0
 10 34  1  0  0  0  0
 10 69  1  0  0  0  0
 10 70  1  0  0  0  0
 11 12  1  0  0  0  0
 11 13  1  0  0  0  0
 11 36  1  0  0  0  0
 12 15  1  0  0  0  0
 12 37  1  0  0  0  0
 13 38  1  0  0  0  0
 13 39  1  0  0  0  0
 14 16  1  0  0  0  0
 14 40  1  0  0  0  0
 14 41  1  0  0  0  0
 15 18  1  0  0  0  0
 15 42  1  0  0  0  0
 15 43  1  0  0  0  0
 16 19  1  0  0  0  0
 16 20  1  0  0  0  0
 16 44  1  0  0  0  0
 17 21  1  0  0  0  0
 17 23  1  0  0  0  0
 17 46  1  0  0  0  0
 18 26  2  0  0  0  0
 18 27  1  0  0  0  0
 19 52  1  0  0  0  0
 19 53  1  0  0  0  0
 19 54  1  0  0  0  0
 20 49  1  0  0  0  0
 20 50  1  0  0  0  0
 20 51  1  0  0  0  0
 21 25  1  0  0  0  0
 21 47  1  0  0  0  0
 21 48  1  0  0  0  0
 22 28  2  0  0  0  0
 22 29  1  0  0  0  0
 23 56  1  0  0  0  0
 23 57  1  0  0  0  0
 25 58  1  0  0  0  0
 25 59  1  0  0  0  0
 26 30  1  0  0  0  0
 26 60  1  0  0  0  0
 27 31  2  0  0  0  0
 27 61  1  0  0  0  0
 28 32  1  0  0  0  0
 28 62  1  0  0  0  0
 29 33  2  0  0  0  0
 29 63  1  0  0  0  0
 30 35  2  0  0  0  0
 30 64  1  0  0  0  0
 31 35  1  0  0  0  0
 31 65  1  0  0  0  0
 32 34  2  0  0  0  0
 32 66  1  0  0  0  0
 33 34  1  0  0  0  0
 33 67  1  0  0  0  0
 35 68  1  0  0  0  0
M  END
> <PUBCHEM_COMPOUND_CID>
65016

> <PUBCHEM_COMPOUND_CANONICALIZED>
1

> <PUBCHEM_CACTVS_COMPLEXITY>
745

> <PUBCHEM_CACTVS_HBOND_ACCEPTOR>
8

> <PUBCHEM_CACTVS_HBOND_DONOR>
3

> <PUBCHEM_CACTVS_ROTATABLE_BOND>
12

> <PUBCHEM_CACTVS_SUBSKEYS>
AAADcfB7OABAAAAAAAAAAAAAAAAAASAAAAAwYAAAAAAAAAABQAAAHgQQSAAADTzh2AYyyYLABgKIAiRCWHDCABAgAgAIiJgIZIkLMCKA0ZGOYABllgCayAeQwKAOAAQAAAAAAAAACAAAAAAAAAAAAAAAAA==

> <PUBCHEM_IUPAC_OPENEYE_NAME>
[(3S)-tetrahydrofuran-3-yl] N-[(1S,2R)-3-[(4-aminophenyl)sulfonyl-isobutyl-amino]-1-benzyl-2-hydroxy-propyl]carbamate

> <PUBCHEM_IUPAC_CAS_NAME>
N-[(2S,3R)-4-[(4-aminophenyl)sulfonyl-(2-methylpropyl)amino]-3-hydroxy-1-phenylbutan-2-yl]carbamic acid [(3S)-3-oxolanyl] ester

> <PUBCHEM_IUPAC_NAME>
[(3S)-oxolan-3-yl] N-[(2S,3R)-4-[(4-aminophenyl)sulfonyl-(2-methylpropyl)amino]-3-hydroxy-1-phenylbutan-2-yl]carbamate

> <PUBCHEM_IUPAC_SYSTEMATIC_NAME>
[(3S)-oxolan-3-yl] N-[(2S,3R)-4-[(4-aminophenyl)sulfonyl-(2-methylpropyl)amino]-3-oxidanyl-1-phenyl-butan-2-yl]carbamate

> <PUBCHEM_IUPAC_TRADITIONAL_NAME>
N-[(1S,2R)-1-benzyl-2-hydroxy-3-[isobutyl(sulfanilyl)amino]propyl]carbamic acid [(3S)-tetrahydrofuran-3-yl] ester

> <PUBCHEM_IUPAC_INCHI>
InChI=1S/C25H35N3O6S/c1-18(2)15-28(35(31,32)22-10-8-20(26)9-11-22)16-24(29)23(14-19-6-4-3-5-7-19)27-25(30)34-21-12-13-33-17-21/h3-11,18,21,23-24,29H,12-17,26H2,1-2H3,(H,27,30)/t21-,23-,24+/m0/s1

> <PUBCHEM_IUPAC_INCHIKEY>
YMARZQAQMVYCKC-OEMFJLHTSA-N

> <PUBCHEM_XLOGP3_AA>
2.9

> <PUBCHEM_EXACT_MASS>
505.224657

> <PUBCHEM_MOLECULAR_FORMULA>
C25H35N3O6S

> <PUBCHEM_MOLECULAR_WEIGHT>
505.6269

> <PUBCHEM_OPENEYE_CAN_SMILES>
CC(C)CN(CC(C(CC1=CC=CC=C1)NC(=O)OC2CCOC2)O)S(=O)(=O)C3=CC=C(C=C3)N

> <PUBCHEM_OPENEYE_ISO_SMILES>
CC(C)CN(C[C@H]([C@H](CC1=CC=CC=C1)NC(=O)O[C@H]2CCOC2)O)S(=O)(=O)C3=CC=C(C=C3)N

> <PUBCHEM_CACTVS_TPSA>
140

> <PUBCHEM_MONOISOTOPIC_WEIGHT>
505.224657

> <PUBCHEM_TOTAL_CHARGE>
0

> <PUBCHEM_HEAVY_ATOM_COUNT>
35

> <PUBCHEM_ATOM_DEF_STEREO_COUNT>
3

> <PUBCHEM_ATOM_UDEF_STEREO_COUNT>
0

> <PUBCHEM_BOND_DEF_STEREO_COUNT>
0

> <PUBCHEM_BOND_UDEF_STEREO_COUNT>
0

> <PUBCHEM_ISOTOPIC_ATOM_COUNT>
0

> <PUBCHEM_COMPONENT_COUNT>
1

> <PUBCHEM_CACTVS_TAUTO_COUNT>
2

> <PUBCHEM_COORDINATE_TYPE>
1
5
255

> <PUBCHEM_BONDANNOTATIONS>
18  26  8
18  27  8
11  2  5
22  28  8
22  29  8
26  30  8
27  31  8
28  32  8
29  33  8
17  3  6
30  35  8
31  35  8
32  34  8
33  34  8
12  9  5

$$$$

