17395280
  -OEChem-06241222492D

 48 52  0     1  0  0  0  0  0999 V2000
   10.1360    3.0929    0.0000 S   0  0  0  0  0  0  0  0  0  0  0  0
    2.3090    1.7161    0.0000 O   0  0  0  0  0  0  0  0  0  0  0  0
    5.0778    2.6297    0.0000 O   0  0  0  0  0  0  0  0  0  0  0  0
    4.8968    0.9071    0.0000 N   0  0  0  0  0  0  0  0  0  0  0  0
    5.2058   -0.0440    0.0000 N   0  0  0  0  0  0  0  0  0  0  0  0
    7.0669    2.4206    0.0000 N   0  0  0  0  0  0  0  0  0  0  0  0
    8.0669    2.4206    0.0000 N   0  0  0  0  0  0  0  0  0  0  0  0
    6.7579    3.3717    0.0000 N   0  0  0  0  0  0  0  0  0  0  0  0
    7.5669    3.9594    0.0000 N   0  0  0  0  0  0  0  0  0  0  0  0
    3.8968    0.9071    0.0000 C   0  0  3  0  0  0  0  0  0  0  0  0
    3.5878   -0.0440    0.0000 C   0  0  0  0  0  0  0  0  0  0  0  0
    4.3968   -0.6317    0.0000 C   0  0  0  0  0  0  0  0  0  0  0  0
    3.3090    1.7161    0.0000 C   0  0  0  0  0  0  0  0  0  0  0  0
    4.3968   -1.6317    0.0000 C   0  0  0  0  0  0  0  0  0  0  0  0
    5.4846    1.7161    0.0000 C   0  0  0  0  0  0  0  0  0  0  0  0
    3.6180    2.6672    0.0000 C   0  0  0  0  0  0  0  0  0  0  0  0
    6.4791    1.6116    0.0000 C   0  0  0  0  0  0  0  0  0  0  0  0
    3.5308   -2.1317    0.0000 C   0  0  0  0  0  0  0  0  0  0  0  0
    5.2628   -2.1317    0.0000 C   0  0  0  0  0  0  0  0  0  0  0  0
    2.8090    3.2550    0.0000 C   0  0  0  0  0  0  0  0  0  0  0  0
    2.0000    2.6672    0.0000 C   0  0  0  0  0  0  0  0  0  0  0  0
    3.5308   -3.1317    0.0000 C   0  0  0  0  0  0  0  0  0  0  0  0
    5.2628   -3.1317    0.0000 C   0  0  0  0  0  0  0  0  0  0  0  0
    4.3968   -3.6317    0.0000 C   0  0  0  0  0  0  0  0  0  0  0  0
    4.3968   -4.6317    0.0000 C   0  0  0  0  0  0  0  0  0  0  0  0
    8.3759    3.3717    0.0000 C   0  0  0  0  0  0  0  0  0  0  0  0
    9.3270    3.6807    0.0000 C   0  0  0  0  0  0  0  0  0  0  0  0
    9.6360    4.6317    0.0000 C   0  0  0  0  0  0  0  0  0  0  0  0
   10.6360    4.6317    0.0000 C   0  0  0  0  0  0  0  0  0  0  0  0
   10.9450    3.6807    0.0000 C   0  0  0  0  0  0  0  0  0  0  0  0
    3.2844    0.8101    0.0000 H   0  0  0  0  0  0  0  0  0  0  0  0
    3.0214    0.2082    0.0000 H   0  0  0  0  0  0  0  0  0  0  0  0
    3.2778   -0.5809    0.0000 H   0  0  0  0  0  0  0  0  0  0  0  0
    4.2077    2.8588    0.0000 H   0  0  0  0  0  0  0  0  0  0  0  0
    6.3082    1.0156    0.0000 H   0  0  0  0  0  0  0  0  0  0  0  0
    7.0364    1.3398    0.0000 H   0  0  0  0  0  0  0  0  0  0  0  0
    2.9938   -1.8217    0.0000 H   0  0  0  0  0  0  0  0  0  0  0  0
    5.7998   -1.8217    0.0000 H   0  0  0  0  0  0  0  0  0  0  0  0
    2.8090    3.8750    0.0000 H   0  0  0  0  0  0  0  0  0  0  0  0
    1.4103    2.8588    0.0000 H   0  0  0  0  0  0  0  0  0  0  0  0
    2.9938   -3.4417    0.0000 H   0  0  0  0  0  0  0  0  0  0  0  0
    5.7998   -3.4417    0.0000 H   0  0  0  0  0  0  0  0  0  0  0  0
    3.7768   -4.6317    0.0000 H   0  0  0  0  0  0  0  0  0  0  0  0
    4.3968   -5.2517    0.0000 H   0  0  0  0  0  0  0  0  0  0  0  0
    5.0168   -4.6317    0.0000 H   0  0  0  0  0  0  0  0  0  0  0  0
    9.2716    5.1333    0.0000 H   0  0  0  0  0  0  0  0  0  0  0  0
   11.0004    5.1333    0.0000 H   0  0  0  0  0  0  0  0  0  0  0  0
   11.5347    3.4891    0.0000 H   0  0  0  0  0  0  0  0  0  0  0  0
  1 27  1  0  0  0  0
  1 30  1  0  0  0  0
  2 13  1  0  0  0  0
  2 21  1  0  0  0  0
  3 15  2  0  0  0  0
  4  5  1  0  0  0  0
  4 10  1  0  0  0  0
  4 15  1  0  0  0  0
  5 12  2  0  0  0  0
  6  7  1  0  0  0  0
  6  8  1  0  0  0  0
  6 17  1  0  0  0  0
  7 26  2  0  0  0  0
  8  9  2  0  0  0  0
  9 26  1  0  0  0  0
 10 11  1  0  0  0  0
 10 13  1  0  0  0  0
 10 31  1  0  0  0  0
 11 12  1  0  0  0  0
 11 32  1  0  0  0  0
 11 33  1  0  0  0  0
 12 14  1  0  0  0  0
 13 16  2  0  0  0  0
 14 18  2  0  0  0  0
 14 19  1  0  0  0  0
 15 17  1  0  0  0  0
 16 20  1  0  0  0  0
 16 34  1  0  0  0  0
 17 35  1  0  0  0  0
 17 36  1  0  0  0  0
 18 22  1  0  0  0  0
 18 37  1  0  0  0  0
 19 23  2  0  0  0  0
 19 38  1  0  0  0  0
 20 21  2  0  0  0  0
 20 39  1  0  0  0  0
 21 40  1  0  0  0  0
 22 24  2  0  0  0  0
 22 41  1  0  0  0  0
 23 24  1  0  0  0  0
 23 42  1  0  0  0  0
 24 25  1  0  0  0  0
 25 43  1  0  0  0  0
 25 44  1  0  0  0  0
 25 45  1  0  0  0  0
 26 27  1  0  0  0  0
 27 28  2  0  0  0  0
 28 29  1  0  0  0  0
 28 46  1  0  0  0  0
 29 30  2  0  0  0  0
 29 47  1  0  0  0  0
 30 48  1  0  0  0  0
M  END
> <PUBCHEM_COMPOUND_CID>
17395280

> <PUBCHEM_COMPOUND_CANONICALIZED>
1

> <PUBCHEM_CACTVS_COMPLEXITY>
655

> <PUBCHEM_CACTVS_HBOND_ACCEPTOR>
7

> <PUBCHEM_CACTVS_HBOND_DONOR>
0

> <PUBCHEM_CACTVS_ROTATABLE_BOND>
5

> <PUBCHEM_CACTVS_SUBSKEYS>
AAADceB7sABAAAAAAAAAAAAAAAAAAWJEiAAwAAAAAAAAAAAB/AAAHgQIAAAADCzl2wazFYYABEiuA6tysACTCIIkqBBeiDm+DNgOZrKktTuXOSjkzhG4qYeY2fOeQAAAAAAAAACAAAAAAAAAAAAAAAAAAA==

> <PUBCHEM_IUPAC_OPENEYE_NAME>
1-[3-(2-furyl)-5-(p-tolyl)-3,4-dihydropyrazol-2-yl]-2-[5-(2-thienyl)tetrazol-2-yl]ethanone

> <PUBCHEM_IUPAC_CAS_NAME>
1-[3-(2-furanyl)-5-(4-methylphenyl)-3,4-dihydropyrazol-2-yl]-2-(5-thiophen-2-yl-2-tetrazolyl)ethanone

> <PUBCHEM_IUPAC_NAME>
1-[3-(furan-2-yl)-5-(4-methylphenyl)-3,4-dihydropyrazol-2-yl]-2-(5-thiophen-2-yltetrazol-2-yl)ethanone

> <PUBCHEM_IUPAC_SYSTEMATIC_NAME>
1-[3-(furan-2-yl)-5-(4-methylphenyl)-3,4-dihydropyrazol-2-yl]-2-(5-thiophen-2-yl-1,2,3,4-tetrazol-2-yl)ethanone

> <PUBCHEM_IUPAC_TRADITIONAL_NAME>
1-[5-(2-furyl)-3-(p-tolyl)-2-pyrazolin-1-yl]-2-[5-(2-thienyl)tetrazol-2-yl]ethanone

> <PUBCHEM_IUPAC_INCHI>
InChI=1S/C21H18N6O2S/c1-14-6-8-15(9-7-14)16-12-17(18-4-2-10-29-18)27(23-16)20(28)13-26-24-21(22-25-26)19-5-3-11-30-19/h2-11,17H,12-13H2,1H3

> <PUBCHEM_IUPAC_INCHIKEY>
BCDJTPOSTQLJEZ-UHFFFAOYSA-N

> <PUBCHEM_XLOGP3_AA>
3.6

> <PUBCHEM_EXACT_MASS>
418.121195

> <PUBCHEM_MOLECULAR_FORMULA>
C21H18N6O2S

> <PUBCHEM_MOLECULAR_WEIGHT>
418.47162

> <PUBCHEM_OPENEYE_CAN_SMILES>
CC1=CC=C(C=C1)C2=NN(C(C2)C3=CC=CO3)C(=O)CN4N=C(N=N4)C5=CC=CS5

> <PUBCHEM_OPENEYE_ISO_SMILES>
CC1=CC=C(C=C1)C2=NN(C(C2)C3=CC=CO3)C(=O)CN4N=C(N=N4)C5=CC=CS5

> <PUBCHEM_CACTVS_TPSA>
118

> <PUBCHEM_MONOISOTOPIC_WEIGHT>
418.121195

> <PUBCHEM_TOTAL_CHARGE>
0

> <PUBCHEM_HEAVY_ATOM_COUNT>
30

> <PUBCHEM_ATOM_DEF_STEREO_COUNT>
0

> <PUBCHEM_ATOM_UDEF_STEREO_COUNT>
1

> <PUBCHEM_BOND_DEF_STEREO_COUNT>
0

> <PUBCHEM_BOND_UDEF_STEREO_COUNT>
0

> <PUBCHEM_ISOTOPIC_ATOM_COUNT>
0

> <PUBCHEM_COMPONENT_COUNT>
1

> <PUBCHEM_CACTVS_TAUTO_COUNT>
2

> <PUBCHEM_COORDINATE_TYPE>
1
5
255

> <PUBCHEM_BONDANNOTATIONS>
1  27  8
1  30  8
10  13  3
13  16  8
14  18  8
14  19  8
16  20  8
18  22  8
19  23  8
2  13  8
2  21  8
20  21  8
22  24  8
23  24  8
27  28  8
28  29  8
29  30  8
6  7  8
6  8  8
7  26  8
8  9  8
9  26  8

$$$$

