   Color/Form
        Colorless syrupy liquid
   from [1]HSDB

   Odor
        Practically odorless
   from [2]HSDB

   Taste
        Sharply sweetish taste
   from [3]HSDB

   Boiling Point
        245.8 deg C
   from [4]HSDB

   Melting Point
        -10.4 deg C
   from [5]HSDB

   Critical Temperature and Pressure
        CRITICAL TEMP: 766 DEG F= 408 DEG C= 681 DEG K; CRITICAL PRESSURE
   680 PSIA= 46 ATM= 4.7 MEGANEWTONS/SQUARE M
   from [6]HSDB

   Density/Specific Gravity
        1.1197 g/cu cm at 15 deg C
   from [7]HSDB

   Heat of Combustion
        -9617 BTU/LB= -5343 CAL/G= -223.7X10+5 JOULES/KG
   from [8]HSDB

   Heat of Vaporization
        270 BTU/LB= 150 CAL/G= 6.28X10+5 JOULES/KG
   from [9]HSDB

   Octanol/Water Partition Coefficient
        log Kow = -1.47 (est)
   from [10]HSDB

   Solubilities

     * Immiscible with toluene, petroleum, linseed or castor oil
     * Soluble in chloroform
     * Soluble in ethanol, ethyl ether
     * Miscible with alcohol, ether, acetone, ethylene glycol; practically
       insoluble in benzene, carbon tetrachloride
     * Miscible with water /1X10+6 mg/L/ at 25 deg C (est)

   from [11]HSDB

   Spectral Properties

     * Sadtler Ref Number: 2945 (IR, PRISM)
     * Index of refraction = 1.4472 at 20 deg C/D
     * IR: 20210 (Sadtler Research Laboratories IR Grating Collection)
     * 1H NMR: 179 (Sadtler Research Laboratories Spectral Collection)
     * Raman: 198 (Sadtler Research Laboratories Spectral Collection)
     * MASS: 62317 (NIST/EPA/MSDC Mass Spectral database, 1990 version);
       1324 (Atlas of Mass Spectral Data, John Wiley & Sons, New York)

   from [12]HSDB

   Surface Tension
        48.5 dynes/cm at 25 deg C
   from [13]HSDB

   Vapor Density
        3.66 (Air = 1)
   from [14]HSDB

   Vapor Pressure
        5.7X10-3 mm Hg at 25 deg C
   from [15]HSDB

   Viscosity
        0.30 cP at 25 deg C
   from [16]HSDB

   Other Chemical/Physical Properties

     * Solidifies at -10.45 deg C (when pure); hygroscopic
     * Percent in saturated air: 0.0013 (20 deg C)
     * VP: 1 mm Hg at 91.8 deg C
     * Liquid molar volume = 0.095268 cu m/kmol
     * Ideal gas heat of formation = -5.712E+8 J/kmol
     * Henry's Law constant = 2.0X10-9 atm-cu m/mol at 25 deg C (est)
     * Hydroxyl radical reaction rate constant = 3.0X10-11 cu cm/molec-sec
       at 25 deg C

   from [17]HSDB

   Computed Properties
   Molecular Weight                  106.1204 [g/mol]
   Molecular Formula                 C[4]H[10]O[3]
   XLogP3-AA                         -1.3
   H-Bond Donor                      2
   H-Bond Acceptor                   3
   Rotatable Bond Count              4
   Exact Mass                        106.062994
   MonoIsotopic Mass                 106.062994
   Topological Polar Surface Area    49.7
   Heavy Atom Count                  7
   Formal Charge                     0
   Complexity                        26.1
   Isotope Atom Count                0
   Defined Atom Stereocenter Count   0
   Undefined Atom Stereocenter Count 0
   Defined Bond Stereocenter Count   0
   Undefined Bond Stereocenter Count 0
   Covalently-Bonded Unit Count      1
   Feature 3D Acceptor Count         3
   Feature 3D Donor Count            2
   Effective Rotor Count             4
   Conformer Sampling RMSD           0.6
   CID Conformer Count               [18]19

References

   1. http://toxnet.nlm.nih.gov/cgi-bin/sis/search/r?dbs+hsdb:@term+@rn+@rel+111-46-6
   2. http://toxnet.nlm.nih.gov/cgi-bin/sis/search/r?dbs+hsdb:@term+@rn+@rel+111-46-6
   3. http://toxnet.nlm.nih.gov/cgi-bin/sis/search/r?dbs+hsdb:@term+@rn+@rel+111-46-6
   4. http://toxnet.nlm.nih.gov/cgi-bin/sis/search/r?dbs+hsdb:@term+@rn+@rel+111-46-6
   5. http://toxnet.nlm.nih.gov/cgi-bin/sis/search/r?dbs+hsdb:@term+@rn+@rel+111-46-6
   6. http://toxnet.nlm.nih.gov/cgi-bin/sis/search/r?dbs+hsdb:@term+@rn+@rel+111-46-6
   7. http://toxnet.nlm.nih.gov/cgi-bin/sis/search/r?dbs+hsdb:@term+@rn+@rel+111-46-6
   8. http://toxnet.nlm.nih.gov/cgi-bin/sis/search/r?dbs+hsdb:@term+@rn+@rel+111-46-6
   9. http://toxnet.nlm.nih.gov/cgi-bin/sis/search/r?dbs+hsdb:@term+@rn+@rel+111-46-6
  10. http://toxnet.nlm.nih.gov/cgi-bin/sis/search/r?dbs+hsdb:@term+@rn+@rel+111-46-6
  11. http://toxnet.nlm.nih.gov/cgi-bin/sis/search/r?dbs+hsdb:@term+@rn+@rel+111-46-6
  12. http://toxnet.nlm.nih.gov/cgi-bin/sis/search/r?dbs+hsdb:@term+@rn+@rel+111-46-6
  13. http://toxnet.nlm.nih.gov/cgi-bin/sis/search/r?dbs+hsdb:@term+@rn+@rel+111-46-6
  14. http://toxnet.nlm.nih.gov/cgi-bin/sis/search/r?dbs+hsdb:@term+@rn+@rel+111-46-6
  15. http://toxnet.nlm.nih.gov/cgi-bin/sis/search/r?dbs+hsdb:@term+@rn+@rel+111-46-6
  16. http://toxnet.nlm.nih.gov/cgi-bin/sis/search/r?dbs+hsdb:@term+@rn+@rel+111-46-6
  17. http://toxnet.nlm.nih.gov/cgi-bin/sis/search/r?dbs+hsdb:@term+@rn+@rel+111-46-6
  18. http://pubchem.ncbi.nlm.nih.gov/vw3d/vw3d.cgi?cid=8117
