517000
  -OEChem-07051213122D

 43 44  0     0  0  0  0  0  0999 V2000
    1.4030    4.9795    0.0000 S   0  0  0  0  0  0  0  0  0  0  0  0
    6.2386    0.3100    0.0000 O   0  0  0  0  0  0  0  0  0  0  0  0
    6.2386    6.3044    0.0000 O   0  0  0  0  0  0  0  0  0  0  0  0
    2.2690    5.4795    0.0000 O   0  0  0  0  0  0  0  0  0  0  0  0
    0.5369    4.4795    0.0000 O   0  0  0  0  0  0  0  0  0  0  0  0
    0.9030    5.8455    0.0000 O   0  0  0  0  0  0  0  0  0  0  0  0
    1.9030    4.1135    0.0000 O   0  0  0  0  0  0  0  0  0  0  0  0
    7.9986    1.2753    0.0000 N   0  0  0  0  0  0  0  0  0  0  0  0
    7.9986    7.2697    0.0000 N   0  0  0  0  0  0  0  0  0  0  0  0
    7.1046    8.8044    0.0000 C   0  0  0  0  0  0  0  0  0  0  0  0
    7.1046    2.8100    0.0000 C   0  0  0  0  0  0  0  0  0  0  0  0
    7.1046    7.8044    0.0000 C   0  0  0  0  0  0  0  0  0  0  0  0
    7.1046    1.8100    0.0000 C   0  0  0  0  0  0  0  0  0  0  0  0
    6.2386    1.3100    0.0000 C   0  0  0  0  0  0  0  0  0  0  0  0
    6.2386    7.3044    0.0000 C   0  0  0  0  0  0  0  0  0  0  0  0
    6.2386    3.3100    0.0000 C   0  0  0  0  0  0  0  0  0  0  0  0
    6.2386    9.3044    0.0000 C   0  0  0  0  0  0  0  0  0  0  0  0
    7.9986    3.3447    0.0000 C   0  0  0  0  0  0  0  0  0  0  0  0
    7.9986    9.3390    0.0000 C   0  0  0  0  0  0  0  0  0  0  0  0
    5.3726    1.8100    0.0000 C   0  0  0  0  0  0  0  0  0  0  0  0
    5.3726    7.8044    0.0000 C   0  0  0  0  0  0  0  0  0  0  0  0
    5.3726    2.8100    0.0000 C   0  0  0  0  0  0  0  0  0  0  0  0
    5.3726    8.8044    0.0000 C   0  0  0  0  0  0  0  0  0  0  0  0
    8.9046    2.8308    0.0000 C   0  0  0  0  0  0  0  0  0  0  0  0
    8.9046    8.8252    0.0000 C   0  0  0  0  0  0  0  0  0  0  0  0
    8.9046    1.7892    0.0000 C   0  0  0  0  0  0  0  0  0  0  0  0
    8.9046    7.7835    0.0000 C   0  0  0  0  0  0  0  0  0  0  0  0
    6.2386    9.9244    0.0000 H   0  0  0  0  0  0  0  0  0  0  0  0
    6.2386    3.9300    0.0000 H   0  0  0  0  0  0  0  0  0  0  0  0
    7.9914    9.9590    0.0000 H   0  0  0  0  0  0  0  0  0  0  0  0
    7.9914    3.9646    0.0000 H   0  0  0  0  0  0  0  0  0  0  0  0
    4.8357    7.4944    0.0000 H   0  0  0  0  0  0  0  0  0  0  0  0
    4.8357    1.5000    0.0000 H   0  0  0  0  0  0  0  0  0  0  0  0
    4.8357    3.1200    0.0000 H   0  0  0  0  0  0  0  0  0  0  0  0
    4.8357    9.1144    0.0000 H   0  0  0  0  0  0  0  0  0  0  0  0
    9.4404    9.1372    0.0000 H   0  0  0  0  0  0  0  0  0  0  0  0
    9.4404    3.1429    0.0000 H   0  0  0  0  0  0  0  0  0  0  0  0
    9.4404    7.4715    0.0000 H   0  0  0  0  0  0  0  0  0  0  0  0
    9.4404    1.4771    0.0000 H   0  0  0  0  0  0  0  0  0  0  0  0
    5.7017    5.9944    0.0000 H   0  0  0  0  0  0  0  0  0  0  0  0
    5.7017    0.0000    0.0000 H   0  0  0  0  0  0  0  0  0  0  0  0
    2.8059    5.1695    0.0000 H   0  0  0  0  0  0  0  0  0  0  0  0
    0.0000    4.7895    0.0000 H   0  0  0  0  0  0  0  0  0  0  0  0
  1  4  1  0  0  0  0
  1  5  1  0  0  0  0
  1  6  2  0  0  0  0
  1  7  2  0  0  0  0
  2 14  1  0  0  0  0
  2 41  1  0  0  0  0
  3 15  1  0  0  0  0
  3 40  1  0  0  0  0
  4 42  1  0  0  0  0
  5 43  1  0  0  0  0
  8 13  1  0  0  0  0
  8 26  2  0  0  0  0
  9 12  1  0  0  0  0
  9 27  2  0  0  0  0
 10 12  2  0  0  0  0
 10 17  1  0  0  0  0
 10 19  1  0  0  0  0
 11 13  2  0  0  0  0
 11 16  1  0  0  0  0
 11 18  1  0  0  0  0
 12 15  1  0  0  0  0
 13 14  1  0  0  0  0
 14 20  2  0  0  0  0
 15 21  2  0  0  0  0
 16 22  2  0  0  0  0
 16 29  1  0  0  0  0
 17 23  2  0  0  0  0
 17 28  1  0  0  0  0
 18 24  2  0  0  0  0
 18 31  1  0  0  0  0
 19 25  2  0  0  0  0
 19 30  1  0  0  0  0
 20 22  1  0  0  0  0
 20 33  1  0  0  0  0
 21 23  1  0  0  0  0
 21 32  1  0  0  0  0
 22 34  1  0  0  0  0
 23 35  1  0  0  0  0
 24 26  1  0  0  0  0
 24 37  1  0  0  0  0
 25 27  1  0  0  0  0
 25 36  1  0  0  0  0
 26 39  1  0  0  0  0
 27 38  1  0  0  0  0
M  END
> <PUBCHEM_COMPOUND_CID>
517000

> <PUBCHEM_COMPOUND_CANONICALIZED>
1

> <PUBCHEM_CACTVS_COMPLEXITY>
219

> <PUBCHEM_CACTVS_HBOND_ACCEPTOR>
8

> <PUBCHEM_CACTVS_HBOND_DONOR>
4

> <PUBCHEM_CACTVS_ROTATABLE_BOND>
0

> <PUBCHEM_CACTVS_SUBSKEYS>
AAADceB7OABAAAAAAAAAAAAAAAAAAAAAAAA8eIEAAAAAAACx/gAAHgAACAAADAzBngQ8xvIIEoCgAzRnRDSCgCAxYiAI2CA/bJgKJuLSkZOEcAhkwBHY2AeQwLAOAAABAAACEAAAAAIAAAQgAAAAAAAAAA==

> <PUBCHEM_IUPAC_OPENEYE_NAME>
quinolin-8-ol; sulfuric acid

> <PUBCHEM_IUPAC_CAS_NAME>
8-quinolinol; sulfuric acid

> <PUBCHEM_IUPAC_NAME>
quinolin-8-ol; sulfuric acid

> <PUBCHEM_IUPAC_SYSTEMATIC_NAME>
quinolin-8-ol; sulfuric acid

> <PUBCHEM_IUPAC_TRADITIONAL_NAME>
oxine; sulfuric acid

> <PUBCHEM_IUPAC_INCHI>
InChI=1S/2C9H7NO.H2O4S/c2*11-8-5-1-3-7-4-2-6-10-9(7)8;1-5(2,3)4/h2*1-6,11H;(H2,1,2,3,4)

> <PUBCHEM_IUPAC_INCHIKEY>
YYVFXSYQSOZCOQ-UHFFFAOYSA-N

> <PUBCHEM_EXACT_MASS>
388.072907

> <PUBCHEM_MOLECULAR_FORMULA>
C18H16N2O6S

> <PUBCHEM_MOLECULAR_WEIGHT>
388.39444

> <PUBCHEM_OPENEYE_CAN_SMILES>
C1=CC2=C(C(=C1)O)N=CC=C2.C1=CC2=C(C(=C1)O)N=CC=C2.OS(=O)(=O)O

> <PUBCHEM_OPENEYE_ISO_SMILES>
C1=CC2=C(C(=C1)O)N=CC=C2.C1=CC2=C(C(=C1)O)N=CC=C2.OS(=O)(=O)O

> <PUBCHEM_CACTVS_TPSA>
149

> <PUBCHEM_MONOISOTOPIC_WEIGHT>
388.072907

> <PUBCHEM_TOTAL_CHARGE>
0

> <PUBCHEM_HEAVY_ATOM_COUNT>
27

> <PUBCHEM_ATOM_DEF_STEREO_COUNT>
0

> <PUBCHEM_ATOM_UDEF_STEREO_COUNT>
0

> <PUBCHEM_BOND_DEF_STEREO_COUNT>
0

> <PUBCHEM_BOND_UDEF_STEREO_COUNT>
0

> <PUBCHEM_ISOTOPIC_ATOM_COUNT>
0

> <PUBCHEM_COMPONENT_COUNT>
3

> <PUBCHEM_CACTVS_TAUTO_COUNT>
3

> <PUBCHEM_COORDINATE_TYPE>
1
5
255

> <PUBCHEM_BONDANNOTATIONS>
10  12  8
10  17  8
10  19  8
11  13  8
11  16  8
11  18  8
12  15  8
13  14  8
14  20  8
15  21  8
16  22  8
17  23  8
18  24  8
19  25  8
20  22  8
21  23  8
24  26  8
25  27  8
8  13  8
8  26  8
9  12  8
9  27  8

$$$$

