   Boiling Point
        87-89 deg C @ 0.005 mm Hg
   from [1]HSDB

   Density/Specific Gravity
        1.1294 @ 20 deg C
   from [2]HSDB

   Dissociation Constants
        pKa = 13.67 @ 23 deg C
   from [3]HSDB

   Octanol/Water Partition Coefficient
        log Kow = 3.82
   from [4]HSDB

   Solubilities

     * Readily miscible with acetone, ethanol, methanol, hexane, diethyl
       ether, dimethyl sulfoxide, chloroform, xylene
     * In water, 1.10X10+2 mg/l @ 24 deg C

   from [5]HSDB

   Surface Tension
        Index of refraction= 1.495 @ 20 deg C
   from [6]HSDB

   Vapor Pressure
        1.43X10-5 mm Hg @ 20 deg C
   from [7]HSDB

   Other Chemical/Physical Properties
        Yellowish oily liquid /Technical/
   from [8]HSDB

   Computed Properties
   Molecular Weight                  281.308862 [g/mol]
   Molecular Formula                 C[10]H[20]NO[4]PS
   XLogP3-AA                         2.8
   H-Bond Donor                      1
   H-Bond Acceptor                   6
   Rotatable Bond Count              8
   Tautomer Count                    2
   Exact Mass                        281.085066
   MonoIsotopic Mass                 281.085066
   Topological Polar Surface Area    88.9
   Heavy Atom Count                  17
   Formal Charge                     0
   Complexity                        330
   Isotope Atom Count                0
   Defined Atom Stereocenter Count   0
   Undefined Atom Stereocenter Count 1
   Defined Bond Stereocenter Count   1
   Undefined Bond Stereocenter Count 0
   Covalently-Bonded Unit Count      1
   Feature 3D Acceptor Count         1
   Feature 3D Hydrophobe Count       1
   Effective Rotor Count             8
   Conformer Sampling RMSD           1
   CID Conformer Count               [9]191

References

   1. http://toxnet.nlm.nih.gov/cgi-bin/sis/search/r?dbs+hsdb:@term+@rn+@rel+31218-83-4
   2. http://toxnet.nlm.nih.gov/cgi-bin/sis/search/r?dbs+hsdb:@term+@rn+@rel+31218-83-4
   3. http://toxnet.nlm.nih.gov/cgi-bin/sis/search/r?dbs+hsdb:@term+@rn+@rel+31218-83-4
   4. http://toxnet.nlm.nih.gov/cgi-bin/sis/search/r?dbs+hsdb:@term+@rn+@rel+31218-83-4
   5. http://toxnet.nlm.nih.gov/cgi-bin/sis/search/r?dbs+hsdb:@term+@rn+@rel+31218-83-4
   6. http://toxnet.nlm.nih.gov/cgi-bin/sis/search/r?dbs+hsdb:@term+@rn+@rel+31218-83-4
   7. http://toxnet.nlm.nih.gov/cgi-bin/sis/search/r?dbs+hsdb:@term+@rn+@rel+31218-83-4
   8. http://toxnet.nlm.nih.gov/cgi-bin/sis/search/r?dbs+hsdb:@term+@rn+@rel+31218-83-4
   9. http://pubchem.ncbi.nlm.nih.gov/vw3d/vw3d.cgi?cid=5372405
