5281615
  -OEChem-07051212582D

 52 55  0     1  0  0  0  0  0999 V2000
    9.4756   -0.8593    0.0000 O   0  0  0  0  0  0  0  0  0  0  0  0
    6.8835   -0.3293    0.0000 O   0  0  0  0  0  0  0  0  0  0  0  0
    6.8604   -2.3291    0.0000 O   0  0  0  0  0  0  0  0  0  0  0  0
    8.5808   -3.3491    0.0000 O   0  0  0  0  0  0  0  0  0  0  0  0
    6.8671    0.6853    0.0000 O   0  0  0  0  0  0  0  0  0  0  0  0
   10.3127   -3.3691    0.0000 O   0  0  0  0  0  0  0  0  0  0  0  0
   10.3972    0.6612    0.0000 O   0  0  0  0  0  0  0  0  0  0  0  0
    6.8671    3.6853    0.0000 O   0  0  0  0  0  0  0  0  0  0  0  0
    5.1350    2.6853    0.0000 O   0  0  0  0  0  0  0  0  0  0  0  0
    2.5369    1.1853    0.0000 O   0  0  0  0  0  0  0  0  0  0  0  0
    2.5369   -0.8147    0.0000 O   0  0  0  0  0  0  0  0  0  0  0  0
    7.7437   -0.8392    0.0000 C   0  0  2  0  0  0  0  0  0  0  0  0
    7.7322   -1.8392    0.0000 C   0  0  2  0  0  0  0  0  0  0  0  0
    8.6155   -0.3493    0.0000 C   0  0  2  0  0  0  0  0  0  0  0  0
    8.5923   -2.3492    0.0000 C   0  0  1  0  0  0  0  0  0  0  0  0
    9.4641   -1.8592    0.0000 C   0  0  1  0  0  0  0  0  0  0  0  0
    8.6270    0.6506    0.0000 C   0  0  0  0  0  0  0  0  0  0  0  0
   10.3243   -2.3692    0.0000 C   0  0  0  0  0  0  0  0  0  0  0  0
    7.7331    1.1853    0.0000 C   0  0  0  0  0  0  0  0  0  0  0  0
    9.5331    1.1645    0.0000 C   0  0  0  0  0  0  0  0  0  0  0  0
    7.7331    2.1853    0.0000 C   0  0  0  0  0  0  0  0  0  0  0  0
    9.5331    2.2061    0.0000 C   0  0  0  0  0  0  0  0  0  0  0  0
    8.6270    2.7200    0.0000 C   0  0  0  0  0  0  0  0  0  0  0  0
    6.8671    2.6853    0.0000 C   0  0  0  0  0  0  0  0  0  0  0  0
    6.0010    1.1853    0.0000 C   0  0  0  0  0  0  0  0  0  0  0  0
    6.0010    2.1853    0.0000 C   0  0  0  0  0  0  0  0  0  0  0  0
    5.1350    0.6853    0.0000 C   0  0  0  0  0  0  0  0  0  0  0  0
    4.2690    1.1853    0.0000 C   0  0  0  0  0  0  0  0  0  0  0  0
    5.1350   -0.3147    0.0000 C   0  0  0  0  0  0  0  0  0  0  0  0
    3.4030    0.6853    0.0000 C   0  0  0  0  0  0  0  0  0  0  0  0
    4.2690   -0.8147    0.0000 C   0  0  0  0  0  0  0  0  0  0  0  0
    3.4030   -0.3147    0.0000 C   0  0  0  0  0  0  0  0  0  0  0  0
    7.7509   -0.2193    0.0000 H   0  0  0  0  0  0  0  0  0  0  0  0
    7.7250   -2.4591    0.0000 H   0  0  0  0  0  0  0  0  0  0  0  0
    9.3564    0.0672    0.0000 H   0  0  0  0  0  0  0  0  0  0  0  0
    9.1257   -2.6653    0.0000 H   0  0  0  0  0  0  0  0  0  0  0  0
   10.0046   -1.5554    0.0000 H   0  0  0  0  0  0  0  0  0  0  0  0
   10.9336   -2.4839    0.0000 H   0  0  0  0  0  0  0  0  0  0  0  0
   10.5430   -1.7891    0.0000 H   0  0  0  0  0  0  0  0  0  0  0  0
    6.3430   -0.6330    0.0000 H   0  0  0  0  0  0  0  0  0  0  0  0
    6.8532   -2.9491    0.0000 H   0  0  0  0  0  0  0  0  0  0  0  0
    8.0403   -3.6529    0.0000 H   0  0  0  0  0  0  0  0  0  0  0  0
   10.0688    2.5182    0.0000 H   0  0  0  0  0  0  0  0  0  0  0  0
    8.6199    3.3399    0.0000 H   0  0  0  0  0  0  0  0  0  0  0  0
   10.8460   -3.6853    0.0000 H   0  0  0  0  0  0  0  0  0  0  0  0
   10.9353    0.9691    0.0000 H   0  0  0  0  0  0  0  0  0  0  0  0
    4.2690    1.8053    0.0000 H   0  0  0  0  0  0  0  0  0  0  0  0
    5.6720   -0.6247    0.0000 H   0  0  0  0  0  0  0  0  0  0  0  0
    5.1350    3.3053    0.0000 H   0  0  0  0  0  0  0  0  0  0  0  0
    4.2690   -1.4347    0.0000 H   0  0  0  0  0  0  0  0  0  0  0  0
    2.0000    0.8753    0.0000 H   0  0  0  0  0  0  0  0  0  0  0  0
    2.5369   -1.4347    0.0000 H   0  0  0  0  0  0  0  0  0  0  0  0
  1 14  1  0  0  0  0
  1 16  1  0  0  0  0
 12  2  1  1  0  0  0
  2 40  1  0  0  0  0
 13  3  1  6  0  0  0
  3 41  1  0  0  0  0
 15  4  1  1  0  0  0
  4 42  1  0  0  0  0
  5 19  1  0  0  0  0
  5 25  1  0  0  0  0
  6 18  1  0  0  0  0
  6 45  1  0  0  0  0
  7 20  1  0  0  0  0
  7 46  1  0  0  0  0
  8 24  2  0  0  0  0
  9 26  1  0  0  0  0
  9 49  1  0  0  0  0
 10 30  1  0  0  0  0
 10 51  1  0  0  0  0
 11 32  1  0  0  0  0
 11 52  1  0  0  0  0
 12 13  1  0  0  0  0
 12 14  1  0  0  0  0
 12 33  1  0  0  0  0
 13 15  1  0  0  0  0
 13 34  1  0  0  0  0
 14 17  1  0  0  0  0
 14 35  1  1  0  0  0
 15 16  1  0  0  0  0
 15 36  1  0  0  0  0
 16 18  1  6  0  0  0
 16 37  1  0  0  0  0
 17 19  1  0  0  0  0
 17 20  2  0  0  0  0
 18 38  1  0  0  0  0
 18 39  1  0  0  0  0
 19 21  2  0  0  0  0
 20 22  1  0  0  0  0
 21 23  1  0  0  0  0
 21 24  1  0  0  0  0
 22 23  2  0  0  0  0
 22 43  1  0  0  0  0
 23 44  1  0  0  0  0
 24 26  1  0  0  0  0
 25 26  2  0  0  0  0
 25 27  1  0  0  0  0
 27 28  2  0  0  0  0
 27 29  1  0  0  0  0
 28 30  1  0  0  0  0
 28 47  1  0  0  0  0
 29 31  2  0  0  0  0
 29 48  1  0  0  0  0
 30 32  2  0  0  0  0
 31 32  1  0  0  0  0
 31 50  1  0  0  0  0
M  END
> <PUBCHEM_COMPOUND_CID>
5281615

> <PUBCHEM_COMPOUND_CANONICALIZED>
1

> <PUBCHEM_CACTVS_COMPLEXITY>
741

> <PUBCHEM_CACTVS_HBOND_ACCEPTOR>
11

> <PUBCHEM_CACTVS_HBOND_DONOR>
8

> <PUBCHEM_CACTVS_ROTATABLE_BOND>
3

> <PUBCHEM_CACTVS_SUBSKEYS>
AAADceB4PAAAAAAAAAAAAAAAAAAAAAAAAAA0YIEAAAAAAACBQAAAGgAACAAADBSgmAIwBoAABgCIAqBSAAICCAAkIAAIiAFGiMgNNzaGNRqCeWGl4BULuYfI7PzOIAADCAAIQABAAAYQABCAAAAAAAAAAA==

> <PUBCHEM_IUPAC_OPENEYE_NAME>
2-(3,4-dihydroxyphenyl)-3,7-dihydroxy-8-[(2S,3R,4R,5S,6R)-3,4,5-trihydroxy-6-(hydroxymethyl)tetrahydropyran-2-yl]chromen-4-one

> <PUBCHEM_IUPAC_CAS_NAME>
2-(3,4-dihydroxyphenyl)-3,7-dihydroxy-8-[(2S,3R,4R,5S,6R)-3,4,5-trihydroxy-6-(hydroxymethyl)-2-oxanyl]-1-benzopyran-4-one

> <PUBCHEM_IUPAC_NAME>
2-(3,4-dihydroxyphenyl)-3,7-dihydroxy-8-[(2S,3R,4R,5S,6R)-3,4,5-trihydroxy-6-(hydroxymethyl)oxan-2-yl]chromen-4-one

> <PUBCHEM_IUPAC_SYSTEMATIC_NAME>
2-[3,4-bis(oxidanyl)phenyl]-8-[(2S,3R,4R,5S,6R)-6-(hydroxymethyl)-3,4,5-tris(oxidanyl)oxan-2-yl]-3,7-bis(oxidanyl)chromen-4-one

> <PUBCHEM_IUPAC_TRADITIONAL_NAME>
2-(3,4-dihydroxyphenyl)-3,7-dihydroxy-8-[(2S,3R,4R,5S,6R)-3,4,5-trihydroxy-6-methylol-tetrahydropyran-2-yl]chromone

> <PUBCHEM_IUPAC_INCHI>
InChI=1S/C21H20O11/c22-6-12-15(27)16(28)18(30)21(31-12)13-10(24)4-2-8-14(26)17(29)19(32-20(8)13)7-1-3-9(23)11(25)5-7/h1-5,12,15-16,18,21-25,27-30H,6H2/t12-,15-,16+,18-,21+/m1/s1

> <PUBCHEM_IUPAC_INCHIKEY>
GVDZEEZFEKPWPL-GOXGMXGVSA-N

> <PUBCHEM_XLOGP3_AA>
-0.5

> <PUBCHEM_EXACT_MASS>
448.100561

> <PUBCHEM_MOLECULAR_FORMULA>
C21H20O11

> <PUBCHEM_MOLECULAR_WEIGHT>
448.3769

> <PUBCHEM_OPENEYE_CAN_SMILES>
C1=CC(=C(C=C1C2=C(C(=O)C3=C(O2)C(=C(C=C3)O)C4C(C(C(C(O4)CO)O)O)O)O)O)O

> <PUBCHEM_OPENEYE_ISO_SMILES>
C1=CC(=C(C=C1C2=C(C(=O)C3=C(O2)C(=C(C=C3)O)[C@H]4[C@@H]([C@H]([C@@H]([C@H](O4)CO)O)O)O)O)O)O

> <PUBCHEM_CACTVS_TPSA>
197

> <PUBCHEM_MONOISOTOPIC_WEIGHT>
448.100561

> <PUBCHEM_TOTAL_CHARGE>
0

> <PUBCHEM_HEAVY_ATOM_COUNT>
32

> <PUBCHEM_ATOM_DEF_STEREO_COUNT>
5

> <PUBCHEM_ATOM_UDEF_STEREO_COUNT>
0

> <PUBCHEM_BOND_DEF_STEREO_COUNT>
0

> <PUBCHEM_BOND_UDEF_STEREO_COUNT>
0

> <PUBCHEM_ISOTOPIC_ATOM_COUNT>
0

> <PUBCHEM_COMPONENT_COUNT>
1

> <PUBCHEM_CACTVS_TAUTO_COUNT>
211

> <PUBCHEM_COORDINATE_TYPE>
1
5
255

> <PUBCHEM_BONDANNOTATIONS>
14  35  5
16  18  6
17  19  8
17  20  8
19  21  8
12  2  5
20  22  8
21  23  8
21  24  8
22  23  8
24  26  8
25  26  8
27  28  8
27  29  8
28  30  8
29  31  8
13  3  6
30  32  8
31  32  8
15  4  5
5  19  8
5  25  8

$$$$

