   Color/Form
        Oily, colorless liquid
   from [1]HSDB

   Odor

     * Pleasant but slightly irritating
     * MILD, FRUITY, SOMEWHAT DISAGREEABLE, CHLOROFORM-LIKE
     * Mild, fruity odor.

   from [2]HSDB

   Boiling Point
        114.0 deg C
   from [3]HSDB

   Melting Point
        -89.5 deg C
   from [4]HSDB

   Critical Temperature and Pressure
        Critical temperature: 388 deg C
   from [5]HSDB

   Density/Specific Gravity
        1.0448 at 25 deg C/4 deg C
   from [6]HSDB

   Dissociation Constants
        pKa = 8.6
   from [7]HSDB

   Heat of Combustion
        -1362 kJ/mol at 25 deg C
   from [8]HSDB

   Heat of Vaporization
        41.6 kJ/mol at 25 deg C; 38.0 kJ/mol at boiling point
   from [9]HSDB

   Octanol/Water Partition Coefficient
        log Kow = 0.18
   from [10]HSDB

   pH
        pH of 0.01 M aqueous solution at 25 deg C = 6.0
   from [11]HSDB

   Solubilities

     * Miscible in methanol, ethanol, ethyl ether, trichloromethane.
     * Soluble in acetone, chloroform, dilute alkali
     * In water, 4.8X10+4 mg/L at 25 deg C

   from [12]HSDB

   Spectral Properties

     * Index of refraction: 1.3917 at 20 deg C/D; 1.39007 at 24.3 deg C/D
     * SADTLER REF NUMBER: 7 (IR, PRISM); 5 (IR, GRATING)
     * IR: 4296 (Coblentz Society Spectral Collection)
     * UV: 4 (Sadtler Research Laboratories Spectral Collection)
     * 1H NMR: 2 (Sadtler Research Laboratories Spectral Collection)
     * 13C NMR: 155 (Stother, Carbon-13 NMR Spectroscopy, Academic Pres,
       New York)
     * MASS: 19209 (NIST/EPA/MSDC Mass Spectral Database, 1990 version):
       86 (Atlas of Mass Spectral Data, John Wiley & Sons, New York)

   from [13]HSDB

   Surface Tension
        32.66 mN/m at 20 deg C
   from [14]HSDB

   Vapor Density
        2.58 (Air= 1)
   from [15]HSDB

   Vapor Pressure
        20.8 mm Hg at 25 deg C /Extrapolated/
   from [16]HSDB

   Relative Evaporation Rate
        1.2 (BUTYL ACETATE = 1)
   from [17]HSDB

   Viscosity
        0.661 centipoise at 25 deg C
   from [18]HSDB

   Other Chemical/Physical Properties

     * Heating value (liq): 7720 btu/lb; has high heat of absorption
     * Ratio of specific heats of vapor (gas): estimated 1.115 @ 20 deg c
     * Solubility of water in nitroethane 0.9% (by wt); specific heat:
       138.5 J/(mol-C) at 25 deg C; heat of formation: -141.8 kJ/mol at 25
       deg C; dielectric constant 28.06 at 30 deg C.
     * Bulk density: 8.75 lb/gal at 20 deg C
     * Heat capacity: 1.79 J/g K at 25 deg C
     * Ionization Potential, 10.88 eV
     * Henry's Law constant = 4.76X10-5 atm-cu m/mol at 25 deg C [Gaffney
       JS et al; Environ Sci Technol 21: 519-23 (1987)] [19]PubMed
       Abstract
     * Hydroxyl radical reaction rate constant = 1.5X10-13 cu m/molec-sec
       at 25 deg C

   from [20]HSDB

   Computed Properties
   Molecular Weight                  75.0666 [g/mol]
   Molecular Formula                 C[2]H[5]NO[2]
   XLogP3                            0.2
   H-Bond Donor                      0
   H-Bond Acceptor                   2
   Rotatable Bond Count              0
   Tautomer Count                    2
   Exact Mass                        75.032028
   MonoIsotopic Mass                 75.032028
   Topological Polar Surface Area    45.8
   Heavy Atom Count                  5
   Formal Charge                     0
   Complexity                        37.4
   Isotope Atom Count                0
   Defined Atom Stereocenter Count   0
   Undefined Atom Stereocenter Count 0
   Defined Bond Stereocenter Count   0
   Undefined Bond Stereocenter Count 0
   Covalently-Bonded Unit Count      1
   Feature 3D Acceptor Count         2
   Feature 3D Anion Count            1
   Effective Rotor Count             1
   Conformer Sampling RMSD           0.4
   CID Conformer Count               [21]2

References

   1. http://toxnet.nlm.nih.gov/cgi-bin/sis/search/r?dbs+hsdb:@term+@rn+@rel+79-24-3
   2. http://toxnet.nlm.nih.gov/cgi-bin/sis/search/r?dbs+hsdb:@term+@rn+@rel+79-24-3
   3. http://toxnet.nlm.nih.gov/cgi-bin/sis/search/r?dbs+hsdb:@term+@rn+@rel+79-24-3
   4. http://toxnet.nlm.nih.gov/cgi-bin/sis/search/r?dbs+hsdb:@term+@rn+@rel+79-24-3
   5. http://toxnet.nlm.nih.gov/cgi-bin/sis/search/r?dbs+hsdb:@term+@rn+@rel+79-24-3
   6. http://toxnet.nlm.nih.gov/cgi-bin/sis/search/r?dbs+hsdb:@term+@rn+@rel+79-24-3
   7. http://toxnet.nlm.nih.gov/cgi-bin/sis/search/r?dbs+hsdb:@term+@rn+@rel+79-24-3
   8. http://toxnet.nlm.nih.gov/cgi-bin/sis/search/r?dbs+hsdb:@term+@rn+@rel+79-24-3
   9. http://toxnet.nlm.nih.gov/cgi-bin/sis/search/r?dbs+hsdb:@term+@rn+@rel+79-24-3
  10. http://toxnet.nlm.nih.gov/cgi-bin/sis/search/r?dbs+hsdb:@term+@rn+@rel+79-24-3
  11. http://toxnet.nlm.nih.gov/cgi-bin/sis/search/r?dbs+hsdb:@term+@rn+@rel+79-24-3
  12. http://toxnet.nlm.nih.gov/cgi-bin/sis/search/r?dbs+hsdb:@term+@rn+@rel+79-24-3
  13. http://toxnet.nlm.nih.gov/cgi-bin/sis/search/r?dbs+hsdb:@term+@rn+@rel+79-24-3
  14. http://toxnet.nlm.nih.gov/cgi-bin/sis/search/r?dbs+hsdb:@term+@rn+@rel+79-24-3
  15. http://toxnet.nlm.nih.gov/cgi-bin/sis/search/r?dbs+hsdb:@term+@rn+@rel+79-24-3
  16. http://toxnet.nlm.nih.gov/cgi-bin/sis/search/r?dbs+hsdb:@term+@rn+@rel+79-24-3
  17. http://toxnet.nlm.nih.gov/cgi-bin/sis/search/r?dbs+hsdb:@term+@rn+@rel+79-24-3
  18. http://toxnet.nlm.nih.gov/cgi-bin/sis/search/r?dbs+hsdb:@term+@rn+@rel+79-24-3
  19. http://www.ncbi.nlm.nih.gov/entrez/query.fcgi?cmd=Retrieve&db=pubmed&dopt=Abstract&list_uids=19994967
  20. http://toxnet.nlm.nih.gov/cgi-bin/sis/search/r?dbs+hsdb:@term+@rn+@rel+79-24-3
  21. http://pubchem.ncbi.nlm.nih.gov/vw3d/vw3d.cgi?cid=6587
