   Color/Form
        Colorless liquid
   from [1]HSDB

   Color/Form
        COLORLESS MOBILE LIQUID
   from [2]HSDB

   Color/Form
        YELLOW VISCOUS LIQUID
   from [3]HSDB

   Color/Form
        Pale yellow to yellowish brown liquid (orange oil bitter); yellow
   to reddish yellow liquid (orange oil sweet)
   from [4]HSDB

   Color/Form
        PALE YELLOW OR GREENISH-YELLOW LIQUID
   from [5]HSDB

   Color/Form
        Liquid
   from [6]HSDB

   Odor

     * Characteristic odor ... becoming more pronounced and less agreeable
       on aging or exposure to air
     * Penetrating odor

   from [7]HSDB

   Odor

     * Pleasant, lemon-like odor
     * CITRUS ODOR

   from [8]HSDB

   Odor
        Slightly mandarin-like odor (orange oil bitter); chracteristic
   odor of orange peels (orange oil sweet)
   from [9]HSDB

   Odor
        ACQUIRES TEREBINTHINATE ODOR UPON OXIDATION
   from [10]HSDB

   Odor
        Pleasant lemon-like odor
   from [11]HSDB

   Taste
        Characteristic ... taste, ... becoming more pronounced and less
   agreeable on aging or exposure to air
   from [12]HSDB

   Taste
        SWEET, CITRUS TASTE
   from [13]HSDB

   Taste
        Characteristic orange taste
   from [14]HSDB

   Taste
        FRESH, CITRUS TASTE
   from [15]HSDB

   Boiling Point
        154-170 deg C
   from [16]HSDB

   Boiling Point
        175.5-176.5 deg C at 763 mm Hg
   from [17]HSDB

   Boiling Point
        175.5-176 deg C at 763 mm Hg
   from [18]HSDB

   Melting Point
        -50 to -60 deg C (freezing point)
   from [19]HSDB

   Melting Point
        -95.5 deg C
   from [20]HSDB

   Melting Point
        -95.5 deg C
   from [21]HSDB

   Density/Specific Gravity
        0.854-0.868 @ 25 deg C/25 deg C
   from [22]HSDB

   Density/Specific Gravity
        0.8402 at 20.85 deg C/4 deg C
   from [23]HSDB

   Density/Specific Gravity
        0.845-0.851 @ 25/25 deg C (orange oil bitter); 0.844-0.847 @ 20/20
   deg C (orange oil sweet)
   from [24]HSDB

   Density/Specific Gravity
        0.849-0.855 @ 25 DEG/25 DEG C
   from [25]HSDB

   Density/Specific Gravity
        0.8402 at 25 deg C/4 deg C
   from [26]HSDB

   Heat of Combustion
        -19,520 Btu/lb = -10,840 cal/g = -454x10+5 J/kg
   from [27]HSDB

   Heat of Combustion
        19,250 Btu/lb = -10,840 cal/g = -454X10+5 J/kg
   from [28]HSDB

   Heat of Vaporization
        140 Btu/lb = 77 cal/g = 3.2x10+5 J/kg
   from [29]HSDB

   Heat of Vaporization
        140 Btu/lb
   from [30]HSDB

   Octanol/Water Partition Coefficient
        log Kow = 4.57
   from [31]HSDB

   Octanol/Water Partition Coefficient
        log Kow = 4.57
   from [32]HSDB

   Solubilities
        Insol in water; sol in 5 vol alcohol. Miscible with benzene,
   chloroform, ether, carbon disulfide, petroleum ether and oils.
   from [33]HSDB

   Solubilities

     * Miscible with alcohol
     * Miscible in ... ether.
     * In water, 7.57 mg/L at 25 deg C

   from [34]HSDB

   Solubilities
        Slightly sol in water; sol in 2 vol 90% alcohol, 1 vol glacial
   acetic acid; miscible with absolute alcohol, carbon disulfide
   from [35]HSDB

   Solubilities
        SLIGHTLY SOL IN WATER; SOL IN 3 VOL ALCOHOL; MISCIBLE WITH CARBON
   DISULFIDE, GLACIAL ACETIC ACID
   from [36]HSDB

   Solubilities

     * In water, 13.8 mg/L at 25 deg C
     * Miscible in ethanol and ether; soluble in carbon tetrachloride

   from [37]HSDB

   Spectral Properties

     * Index of refraction: 1.4680-1.4780; rotation is variable
     * Refractory index 1.463-1.483 (20).

   from [38]HSDB

   Spectral Properties

     * INDEX OF REFRACTION: 1.4727 @ 20 DEG C/D; MAX ABSORPTION
       (ISOOCTANE): 220 NM (LOG E= 2.41); 250 NM (LOG E= 1.36)
     * IR: 4996 (Coblentz Society Spectral Collection) /DL-Limonene/
     * NMR: 400 (Johnson and Jankowski, Carbon-13 NMR Spectra, John Wiley
       & Sons, New York) /DL-Limonene/
     * MASS: 704 (Atlas of Mass Spectral Data, John Wiley & Sons, New
       York) /DL-Limonene/

   from [39]HSDB

   Spectral Properties
        Specific optical rotation: +88 to +98 deg at 25 deg C; Index of
   refraction: 1.4725-1.4755 at 20 deg C/D (orange oil biter); Specific
   optical rotation: 97-99 deg; Index of refraction: 1.4720-1.4750 at 20
   deg C/D )orange oil sweet)
   from [40]HSDB

   Spectral Properties

     * SPECIFIC OPTICAL ROTATION: +57 TO +65.6 DEG IN 100 MM TUBE @ 25 DEG
       C; INDEX OF REFRACTION: 1.4742-1.4755 AT 20 DEG C/D
     * INDEX OF REFRACTION: 1.474-1.476 @ 20 DEG C; SPECIFIC OPTICAL
       ROTATION: +57 DEG TO +65 DEG @ 20 DEG C

   from [41]HSDB

   Spectral Properties

     * Index of refraction: 1.4743 at 21 deg C/D; specific optical
       rotation: +123.8 deg at 19.5 deg C/D
     * MAX ABSORPTION (ISOOCTANE): 220 NM (LOG E= 2.41), 250 NM (LOG E=
       1.36)
     * IR: 10018 (Sadtler Research Laboratories IR Grating Collection)
     * NMR: 2852 (Sadtler Research Laboratories Spectral Collection)
     * MASS: 704 (Atlas of Mass Spectral Data, John Wiley & Sons, New
       York)

   from [42]HSDB

   Surface Tension
        26 dynes/cm = 0.026 N/m at 20 deg C
   from [43]HSDB

   Surface Tension
        26 dynes/cm
   from [44]HSDB

   Vapor Density
        4.7 (air=1 at boiling point of turpentine)
   from [45]HSDB

   Vapor Density
        4.7 (Air = 1)
   from [46]HSDB

   Vapor Density
        4.7 (Air = 1)
   from [47]HSDB

   Vapor Pressure
        1.55 mm Hg at 25 deg C /extrapolated/
   from [48]HSDB

   Vapor Pressure
        1.98 mm Hg at 25 deg C
   from [49]HSDB

   Other Chemical/Physical Properties

     * Yellowish, opaque, sticky masses. /Oleoresin/
     * 136 (approx mol wt) /undefined mixtures/
     * Vapor pressure = 5 mm Hg at 25 deg C /Unspecified mixtures/
     * Turpentine consists chemically of 58-65% gamma-pinene along with
       beta-pinene and other isomeric terpenes. Wood turpentine, obtained
       from waste wood chips or sawdust, contains 80% gamma-pinene, 15%
       monocyclic terpenes, 1.5% terpene alcohols, and other terpenes.
     * Immiscible with water; lighter than water; flash point 90-115 deg F
       (32-46 deg C); no acidity, bulk density 7.18 lb/gal, auto ignition
       temperature 488 deg F (253 deg C)

   from [50]HSDB

   Other Chemical/Physical Properties

     * Wt/gal: 7.15 lb at 15.5 deg C
     * With dry hydrogen chloride or hydrogen bromide it forms
       monohalides, and with aq hydrogen chloride or hydrogen bromide, the
       dihalide.
     * Henry's Law constant = 0.032 atm-cu m/mol at 25 deg C (est)
     * Hydroxyl radical reaction rate constant = 1.49X10-10 cu
       cm/molec-sec at 35 deg C
     * Ozone reaction rate constant = 6.5X10-16 cu cm/molec-sec at 25 deg
       C
     * Specific optical rotation: -101.3 deg C at 19.5 deg C/D
       /L-limonene/
     * Bp: 177-8 deg C at 755 mm Hg, 64.4 deg C at 15 mm Hg; density:
       0.8422 at 20 deg C/4 deg C; index of refraction: 1.4746 at 20 deg
       C/D; max absorption (isooctane): 220 nm (log e = 2.4), 250 nm (log
       e = 1.1); specific optical rotation: -122.1 deg at 20 deg C/D
       (undiluted) /L-limonene/
     * IR: 4996 (Coblentz Society Spectral Collection) /L-Limonene/
     * NMR: 400 (Johnson and Jankowski, Carbon-13 NMR Spectra, John Wiley
       & Sons, New York) /L-Limonene/
     * MASS: 704 (Atlas of Mass Spectral Data, John Wiley & Sons, New
       York) /L-Limonene/

   from [51]HSDB

   Other Chemical/Physical Properties
        The volatile oil (bitter orange oil) contains more than 90%
   monoterpenes (mainly d-limonene, also myrcene, camphene, pinene,
   ocimene, p-cymene,etc.); small amounts of alcohols ... usually 0.5-1%
   aldehydes ... and ketones (carvone, alpha-ionone, and jasmone); free
   acids ... about 2.4% esters ... coumarins (osthole, and auraptenol) ...
   from [52]HSDB

   Other Chemical/Physical Properties

     * SPECIFIC GRAVITY: 0.852-0.858 @ 20 DEG C
     * EVAPORATION RESIDUE 1.5-3.6%; ACID VALUE 1.4 MAX
     * MOBILE, CLEAR LIQUID; MAY BECOME TURBID ON COOLING /EXPRESSED OIL/

   from [53]HSDB

   Other Chemical/Physical Properties

     * Henry's Law constant= 0.026 atm-cu m/mole at 25 deg C
     * Hydroxyl radical reaction rate constant = 1.71X10-10 cu
       cm/molecule-sec at 25 deg C
     * Ozone reaction rate constant constant = 4.4X10-18 cu
       cm/molecule-sec at 25 deg C

   from [54]HSDB

   Computed Properties
   Molecular Weight                  136.23404 [g/mol]
   Molecular Formula                 C[10]H[16]
   XLogP3-AA                         3.4
   H-Bond Donor                      0
   H-Bond Acceptor                   0
   Rotatable Bond Count              1
   Exact Mass                        136.125201
   MonoIsotopic Mass                 136.125201
   Topological Polar Surface Area    0
   Heavy Atom Count                  10
   Formal Charge                     0
   Complexity                        163
   Isotope Atom Count                0
   Defined Atom Stereocenter Count   0
   Undefined Atom Stereocenter Count 1
   Defined Bond Stereocenter Count   0
   Undefined Bond Stereocenter Count 0
   Covalently-Bonded Unit Count      1
   Feature 3D Ring Count             1
   Effective Rotor Count             1.8
   Conformer Sampling RMSD           0.4
   CID Conformer Count               [55]4

References

   1. http://toxnet.nlm.nih.gov/cgi-bin/sis/search/r?dbs+hsdb:@term+@rn+@rel+8006-64-2
   2. http://toxnet.nlm.nih.gov/cgi-bin/sis/search/r?dbs+hsdb:@term+@rn+@rel+138-86-3
   3. http://toxnet.nlm.nih.gov/cgi-bin/sis/search/r?dbs+hsdb:@term+@rn+@rel+9003-73-0
   4. http://toxnet.nlm.nih.gov/cgi-bin/sis/search/r?dbs+hsdb:@term+@rn+@rel+8008-57-9
   5. http://toxnet.nlm.nih.gov/cgi-bin/sis/search/r?dbs+hsdb:@term+@rn+@rel+8008-56-8
   6. http://toxnet.nlm.nih.gov/cgi-bin/sis/search/r?dbs+hsdb:@term+@rn+@rel+5989-27-5
   7. http://toxnet.nlm.nih.gov/cgi-bin/sis/search/r?dbs+hsdb:@term+@rn+@rel+8006-64-2
   8. http://toxnet.nlm.nih.gov/cgi-bin/sis/search/r?dbs+hsdb:@term+@rn+@rel+138-86-3
   9. http://toxnet.nlm.nih.gov/cgi-bin/sis/search/r?dbs+hsdb:@term+@rn+@rel+8008-57-9
  10. http://toxnet.nlm.nih.gov/cgi-bin/sis/search/r?dbs+hsdb:@term+@rn+@rel+8008-56-8
  11. http://toxnet.nlm.nih.gov/cgi-bin/sis/search/r?dbs+hsdb:@term+@rn+@rel+5989-27-5
  12. http://toxnet.nlm.nih.gov/cgi-bin/sis/search/r?dbs+hsdb:@term+@rn+@rel+8006-64-2
  13. http://toxnet.nlm.nih.gov/cgi-bin/sis/search/r?dbs+hsdb:@term+@rn+@rel+138-86-3
  14. http://toxnet.nlm.nih.gov/cgi-bin/sis/search/r?dbs+hsdb:@term+@rn+@rel+8008-57-9
  15. http://toxnet.nlm.nih.gov/cgi-bin/sis/search/r?dbs+hsdb:@term+@rn+@rel+5989-27-5
  16. http://toxnet.nlm.nih.gov/cgi-bin/sis/search/r?dbs+hsdb:@term+@rn+@rel+8006-64-2
  17. http://toxnet.nlm.nih.gov/cgi-bin/sis/search/r?dbs+hsdb:@term+@rn+@rel+138-86-3
  18. http://toxnet.nlm.nih.gov/cgi-bin/sis/search/r?dbs+hsdb:@term+@rn+@rel+5989-27-5
  19. http://toxnet.nlm.nih.gov/cgi-bin/sis/search/r?dbs+hsdb:@term+@rn+@rel+8006-64-2
  20. http://toxnet.nlm.nih.gov/cgi-bin/sis/search/r?dbs+hsdb:@term+@rn+@rel+138-86-3
  21. http://toxnet.nlm.nih.gov/cgi-bin/sis/search/r?dbs+hsdb:@term+@rn+@rel+5989-27-5
  22. http://toxnet.nlm.nih.gov/cgi-bin/sis/search/r?dbs+hsdb:@term+@rn+@rel+8006-64-2
  23. http://toxnet.nlm.nih.gov/cgi-bin/sis/search/r?dbs+hsdb:@term+@rn+@rel+138-86-3
  24. http://toxnet.nlm.nih.gov/cgi-bin/sis/search/r?dbs+hsdb:@term+@rn+@rel+8008-57-9
  25. http://toxnet.nlm.nih.gov/cgi-bin/sis/search/r?dbs+hsdb:@term+@rn+@rel+8008-56-8
  26. http://toxnet.nlm.nih.gov/cgi-bin/sis/search/r?dbs+hsdb:@term+@rn+@rel+5989-27-5
  27. http://toxnet.nlm.nih.gov/cgi-bin/sis/search/r?dbs+hsdb:@term+@rn+@rel+138-86-3
  28. http://toxnet.nlm.nih.gov/cgi-bin/sis/search/r?dbs+hsdb:@term+@rn+@rel+5989-27-5
  29. http://toxnet.nlm.nih.gov/cgi-bin/sis/search/r?dbs+hsdb:@term+@rn+@rel+138-86-3
  30. http://toxnet.nlm.nih.gov/cgi-bin/sis/search/r?dbs+hsdb:@term+@rn+@rel+5989-27-5
  31. http://toxnet.nlm.nih.gov/cgi-bin/sis/search/r?dbs+hsdb:@term+@rn+@rel+138-86-3
  32. http://toxnet.nlm.nih.gov/cgi-bin/sis/search/r?dbs+hsdb:@term+@rn+@rel+5989-27-5
  33. http://toxnet.nlm.nih.gov/cgi-bin/sis/search/r?dbs+hsdb:@term+@rn+@rel+8006-64-2
  34. http://toxnet.nlm.nih.gov/cgi-bin/sis/search/r?dbs+hsdb:@term+@rn+@rel+138-86-3
  35. http://toxnet.nlm.nih.gov/cgi-bin/sis/search/r?dbs+hsdb:@term+@rn+@rel+8008-57-9
  36. http://toxnet.nlm.nih.gov/cgi-bin/sis/search/r?dbs+hsdb:@term+@rn+@rel+8008-56-8
  37. http://toxnet.nlm.nih.gov/cgi-bin/sis/search/r?dbs+hsdb:@term+@rn+@rel+5989-27-5
  38. http://toxnet.nlm.nih.gov/cgi-bin/sis/search/r?dbs+hsdb:@term+@rn+@rel+8006-64-2
  39. http://toxnet.nlm.nih.gov/cgi-bin/sis/search/r?dbs+hsdb:@term+@rn+@rel+138-86-3
  40. http://toxnet.nlm.nih.gov/cgi-bin/sis/search/r?dbs+hsdb:@term+@rn+@rel+8008-57-9
  41. http://toxnet.nlm.nih.gov/cgi-bin/sis/search/r?dbs+hsdb:@term+@rn+@rel+8008-56-8
  42. http://toxnet.nlm.nih.gov/cgi-bin/sis/search/r?dbs+hsdb:@term+@rn+@rel+5989-27-5
  43. http://toxnet.nlm.nih.gov/cgi-bin/sis/search/r?dbs+hsdb:@term+@rn+@rel+138-86-3
  44. http://toxnet.nlm.nih.gov/cgi-bin/sis/search/r?dbs+hsdb:@term+@rn+@rel+5989-27-5
  45. http://toxnet.nlm.nih.gov/cgi-bin/sis/search/r?dbs+hsdb:@term+@rn+@rel+8006-64-2
  46. http://toxnet.nlm.nih.gov/cgi-bin/sis/search/r?dbs+hsdb:@term+@rn+@rel+138-86-3
  47. http://toxnet.nlm.nih.gov/cgi-bin/sis/search/r?dbs+hsdb:@term+@rn+@rel+5989-27-5
  48. http://toxnet.nlm.nih.gov/cgi-bin/sis/search/r?dbs+hsdb:@term+@rn+@rel+138-86-3
  49. http://toxnet.nlm.nih.gov/cgi-bin/sis/search/r?dbs+hsdb:@term+@rn+@rel+5989-27-5
  50. http://toxnet.nlm.nih.gov/cgi-bin/sis/search/r?dbs+hsdb:@term+@rn+@rel+8006-64-2
  51. http://toxnet.nlm.nih.gov/cgi-bin/sis/search/r?dbs+hsdb:@term+@rn+@rel+138-86-3
  52. http://toxnet.nlm.nih.gov/cgi-bin/sis/search/r?dbs+hsdb:@term+@rn+@rel+8008-57-9
  53. http://toxnet.nlm.nih.gov/cgi-bin/sis/search/r?dbs+hsdb:@term+@rn+@rel+8008-56-8
  54. http://toxnet.nlm.nih.gov/cgi-bin/sis/search/r?dbs+hsdb:@term+@rn+@rel+5989-27-5
  55. http://pubchem.ncbi.nlm.nih.gov/vw3d/vw3d.cgi?cid=22311
