12858
  -OEChem-06261207272D

 25 26  0     0  0  0  0  0  0999 V2000
    5.5116    1.4921    0.0000 O   0  0  0  0  0  0  0  0  0  0  0  0
    2.0000    0.3988    0.0000 O   0  0  0  0  0  0  0  0  0  0  0  0
    2.8660   -1.1012    0.0000 C   0  0  0  0  0  0  0  0  0  0  0  0
    2.8660   -0.1012    0.0000 C   0  0  0  0  0  0  0  0  0  0  0  0
    4.5981    1.8988    0.0000 C   0  0  0  0  0  0  0  0  0  0  0  0
    2.0000   -1.6012    0.0000 C   0  0  0  0  0  0  0  0  0  0  0  0
    3.7320   -1.6012    0.0000 C   0  0  0  0  0  0  0  0  0  0  0  0
    3.7320    0.3988    0.0000 C   0  0  0  0  0  0  0  0  0  0  0  0
    3.7320    1.3988    0.0000 C   0  0  0  0  0  0  0  0  0  0  0  0
    2.0000   -2.6012    0.0000 C   0  0  0  0  0  0  0  0  0  0  0  0
    3.7320   -2.6012    0.0000 C   0  0  0  0  0  0  0  0  0  0  0  0
    4.7026    2.8933    0.0000 C   0  0  0  0  0  0  0  0  0  0  0  0
    2.8660   -3.1012    0.0000 C   0  0  0  0  0  0  0  0  0  0  0  0
    5.6808    3.1012    0.0000 C   0  0  0  0  0  0  0  0  0  0  0  0
    6.1808    2.2352    0.0000 C   0  0  0  0  0  0  0  0  0  0  0  0
    1.4631   -1.2912    0.0000 H   0  0  0  0  0  0  0  0  0  0  0  0
    4.2690   -1.2912    0.0000 H   0  0  0  0  0  0  0  0  0  0  0  0
    4.2690    0.0888    0.0000 H   0  0  0  0  0  0  0  0  0  0  0  0
    3.1951    1.7088    0.0000 H   0  0  0  0  0  0  0  0  0  0  0  0
    4.2419    3.3082    0.0000 H   0  0  0  0  0  0  0  0  0  0  0  0
    1.4631   -2.9112    0.0000 H   0  0  0  0  0  0  0  0  0  0  0  0
    4.2690   -2.9112    0.0000 H   0  0  0  0  0  0  0  0  0  0  0  0
    2.8660   -3.7212    0.0000 H   0  0  0  0  0  0  0  0  0  0  0  0
    5.9329    3.6676    0.0000 H   0  0  0  0  0  0  0  0  0  0  0  0
    6.7974    2.1704    0.0000 H   0  0  0  0  0  0  0  0  0  0  0  0
  1  5  1  0  0  0  0
  1 15  1  0  0  0  0
  2  4  2  0  0  0  0
  3  4  1  0  0  0  0
  3  6  2  0  0  0  0
  3  7  1  0  0  0  0
  4  8  1  0  0  0  0
  5  9  1  0  0  0  0
  5 12  2  0  0  0  0
  6 10  1  0  0  0  0
  6 16  1  0  0  0  0
  7 11  2  0  0  0  0
  7 17  1  0  0  0  0
  8  9  2  3  0  0  0
  8 18  1  0  0  0  0
  9 19  1  0  0  0  0
 10 13  2  0  0  0  0
 10 21  1  0  0  0  0
 11 13  1  0  0  0  0
 11 22  1  0  0  0  0
 12 14  1  0  0  0  0
 12 20  1  0  0  0  0
 13 23  1  0  0  0  0
 14 15  2  0  0  0  0
 14 24  1  0  0  0  0
 15 25  1  0  0  0  0
M  END
> <PUBCHEM_COMPOUND_CID>
12858

> <PUBCHEM_COMPOUND_CANONICALIZED>
1

> <PUBCHEM_CACTVS_COMPLEXITY>
239

> <PUBCHEM_CACTVS_HBOND_ACCEPTOR>
2

> <PUBCHEM_CACTVS_HBOND_DONOR>
0

> <PUBCHEM_CACTVS_ROTATABLE_BOND>
3

> <PUBCHEM_CACTVS_SUBSKEYS>
AAADccBwMAAAAAAAAAAAAAAAAAAAASAAAAAwAAAAAAAAAAABwAAAGgAAAAAADASgmAIwBIAABECIAqhSgAACCAAkIAAIiAEGCMgMJjKENRqCOSCkwBEIqYeIiICOAAAAAAAAAAAAAAAAAAAAAAAAAAAAAA==

> <PUBCHEM_IUPAC_OPENEYE_NAME>
3-(2-furyl)-1-phenyl-prop-2-en-1-one

> <PUBCHEM_IUPAC_CAS_NAME>
3-(2-furanyl)-1-phenyl-2-propen-1-one

> <PUBCHEM_IUPAC_NAME>
3-(furan-2-yl)-1-phenylprop-2-en-1-one

> <PUBCHEM_IUPAC_SYSTEMATIC_NAME>
3-(furan-2-yl)-1-phenyl-prop-2-en-1-one

> <PUBCHEM_IUPAC_TRADITIONAL_NAME>
3-(2-furyl)-1-phenyl-prop-2-en-1-one

> <PUBCHEM_IUPAC_INCHI>
InChI=1S/C13H10O2/c14-13(11-5-2-1-3-6-11)9-8-12-7-4-10-15-12/h1-10H

> <PUBCHEM_IUPAC_INCHIKEY>
BVAGSGSYUAOFPJ-UHFFFAOYSA-N

> <PUBCHEM_XLOGP3>
3

> <PUBCHEM_EXACT_MASS>
198.06808

> <PUBCHEM_MOLECULAR_FORMULA>
C13H10O2

> <PUBCHEM_MOLECULAR_WEIGHT>
198.2173

> <PUBCHEM_OPENEYE_CAN_SMILES>
C1=CC=C(C=C1)C(=O)C=CC2=CC=CO2

> <PUBCHEM_OPENEYE_ISO_SMILES>
C1=CC=C(C=C1)C(=O)C=CC2=CC=CO2

> <PUBCHEM_CACTVS_TPSA>
30.2

> <PUBCHEM_MONOISOTOPIC_WEIGHT>
198.06808

> <PUBCHEM_TOTAL_CHARGE>
0

> <PUBCHEM_HEAVY_ATOM_COUNT>
15

> <PUBCHEM_ATOM_DEF_STEREO_COUNT>
0

> <PUBCHEM_ATOM_UDEF_STEREO_COUNT>
0

> <PUBCHEM_BOND_DEF_STEREO_COUNT>
0

> <PUBCHEM_BOND_UDEF_STEREO_COUNT>
1

> <PUBCHEM_ISOTOPIC_ATOM_COUNT>
0

> <PUBCHEM_COMPONENT_COUNT>
1

> <PUBCHEM_CACTVS_TAUTO_COUNT>
1

> <PUBCHEM_COORDINATE_TYPE>
1
5
255

> <PUBCHEM_BONDANNOTATIONS>
1  15  8
1  5  8
10  13  8
11  13  8
12  14  8
14  15  8
3  6  8
3  7  8
5  12  8
6  10  8
7  11  8
8  9  1

$$$$

