   Color/Form

     * MINUTE CRYSTALS FROM CHLOROFORM
     * WHITE, CRYSTALLINE POWDER

   from [1]HSDB

   Odor
        ODORLESS
   from [2]HSDB

   Melting Point
        @ 160 DEG C, IT INITIALLY MELTS, THEN RAPIDLY POLYMERIZES TO WHITE
   SOLID
   from [3]HSDB

   Octanol/Water Partition Coefficient
        Log P= -0.54
   from [4]HSDB

   Solubilities

     * WT/WT @ 26 DEG C: WATER 40%, CHLOROFORM 28.1%, METHYLENE CHLORIDE
       19.7%, DIOXANE 9.6%, ETHANOL 7.7%, DIMETHYL CELLOSOLVE 4.8%, ETHYL
       ACETATE 4.5%, CARBON TETRACHLORIDE 3.6%, ACETONE 10.6%, METHYL
       ETHYL KETONE 4.7%, METHANOL 12.5%, BENZENE 5.6%
     * Soluble in oxygenated and chlorinated solvents.

   from [5]HSDB

   Spectral Properties
        MAX ABSORPTION: 222 NM
   from [6]HSDB

   Other Chemical/Physical Properties

     * DECOMP 139 DEG C; @ ROOM TEMP AQUEOUS SOLUTIONS POLYMERIZE
     * Polymerizes readily with heat or moisture

   from [7]HSDB

   Computed Properties
   Molecular Weight                  204.23178 [g/mol]
   Molecular Formula                 C[9]H[12]N[6]
   XLogP3-AA                         0.7
   H-Bond Donor                      0
   H-Bond Acceptor                   6
   Rotatable Bond Count              3
   Exact Mass                        204.112344
   MonoIsotopic Mass                 204.112344
   Topological Polar Surface Area    47.7
   Heavy Atom Count                  15
   Formal Charge                     0
   Complexity                        205
   Isotope Atom Count                0
   Defined Atom Stereocenter Count   0
   Undefined Atom Stereocenter Count 0
   Defined Bond Stereocenter Count   0
   Undefined Bond Stereocenter Count 0
   Covalently-Bonded Unit Count      1
   Feature 3D Cation Count           3
   Feature 3D Ring Count             1
   Effective Rotor Count             4.8
   Conformer Sampling RMSD           0.6
   CID Conformer Count               [8]3

References

   1. http://toxnet.nlm.nih.gov/cgi-bin/sis/search/r?dbs+hsdb:@term+@rn+@rel+51-18-3
   2. http://toxnet.nlm.nih.gov/cgi-bin/sis/search/r?dbs+hsdb:@term+@rn+@rel+51-18-3
   3. http://toxnet.nlm.nih.gov/cgi-bin/sis/search/r?dbs+hsdb:@term+@rn+@rel+51-18-3
   4. http://toxnet.nlm.nih.gov/cgi-bin/sis/search/r?dbs+hsdb:@term+@rn+@rel+51-18-3
   5. http://toxnet.nlm.nih.gov/cgi-bin/sis/search/r?dbs+hsdb:@term+@rn+@rel+51-18-3
   6. http://toxnet.nlm.nih.gov/cgi-bin/sis/search/r?dbs+hsdb:@term+@rn+@rel+51-18-3
   7. http://toxnet.nlm.nih.gov/cgi-bin/sis/search/r?dbs+hsdb:@term+@rn+@rel+51-18-3
   8. http://pubchem.ncbi.nlm.nih.gov/vw3d/vw3d.cgi?cid=5799
