46173893
  -OEChem-07051213102D

 37 38  0     1  0  0  0  0  0999 V2000
    4.6650   -0.0570    0.0000 O   0  0  0  0  0  0  0  0  0  0  0  0
    6.7528   -1.7320    0.0000 O   0  0  0  0  0  0  0  0  0  0  0  0
    2.0000   -2.0787    0.0000 O   0  0  0  0  0  0  0  0  0  0  0  0
    6.7528    1.7320    0.0000 O   0  0  0  0  0  0  0  0  0  0  0  0
    5.2528    0.8660    0.0000 O   0  0  0  0  0  0  0  0  0  0  0  0
    7.7528    1.7320    0.0000 O   0  0  0  0  0  0  0  0  0  0  0  0
    3.7139   -1.3660    0.0000 N   0  0  0  0  0  0  0  0  0  0  0  0
    7.7528    0.0000    0.0000 N   0  0  0  0  0  0  0  0  0  0  0  0
    9.7528    1.7320    0.0000 N   0  0  0  0  0  0  0  0  0  0  0  0
    3.7139   -0.3660    0.0000 C   0  0  2  0  0  0  0  0  0  0  0  0
    5.2528   -0.8660    0.0000 C   0  0  2  0  0  0  0  0  0  0  0  0
    4.6650   -1.6750    0.0000 C   0  0  0  0  0  0  0  0  0  0  0  0
    2.7056   -0.3619    0.0000 C   0  0  0  0  0  0  0  0  0  0  0  0
    6.2528   -0.8660    0.0000 C   0  0  3  0  0  0  0  0  0  0  0  0
    2.7056   -1.3702    0.0000 C   0  0  0  0  0  0  0  0  0  0  0  0
    6.7528    0.0000    0.0000 C   0  0  1  0  0  0  0  0  0  0  0  0
    6.2528    0.8660    0.0000 C   0  0  0  0  0  0  0  0  0  0  0  0
    8.2528    0.8660    0.0000 C   0  0  0  0  0  0  0  0  0  0  0  0
    9.2528    0.8660    0.0000 C   0  0  2  0  0  0  0  0  0  0  0  0
    9.7528    0.0000    0.0000 C   0  0  0  0  0  0  0  0  0  0  0  0
    3.5827    0.4738    0.0000 H   0  0  0  0  0  0  0  0  0  0  0  0
    5.5342   -0.3136    0.0000 H   0  0  0  0  0  0  0  0  0  0  0  0
    4.4128   -2.2414    0.0000 H   0  0  0  0  0  0  0  0  0  0  0  0
    5.2019   -1.9850    0.0000 H   0  0  0  0  0  0  0  0  0  0  0  0
    2.7074    0.2581    0.0000 H   0  0  0  0  0  0  0  0  0  0  0  0
    2.0856   -0.3610    0.0000 H   0  0  0  0  0  0  0  0  0  0  0  0
    5.9428   -1.4030    0.0000 H   0  0  0  0  0  0  0  0  0  0  0  0
    7.0628   -0.5369    0.0000 H   0  0  0  0  0  0  0  0  0  0  0  0
    8.0628   -0.5369    0.0000 H   0  0  0  0  0  0  0  0  0  0  0  0
    6.4428   -2.2690    0.0000 H   0  0  0  0  0  0  0  0  0  0  0  0
    8.9428    1.4030    0.0000 H   0  0  0  0  0  0  0  0  0  0  0  0
    6.4428    2.2690    0.0000 H   0  0  0  0  0  0  0  0  0  0  0  0
    9.2158   -0.3100    0.0000 H   0  0  0  0  0  0  0  0  0  0  0  0
   10.0628   -0.5369    0.0000 H   0  0  0  0  0  0  0  0  0  0  0  0
   10.2897    0.3100    0.0000 H   0  0  0  0  0  0  0  0  0  0  0  0
   10.3728    1.7320    0.0000 H   0  0  0  0  0  0  0  0  0  0  0  0
    9.4428    2.2690    0.0000 H   0  0  0  0  0  0  0  0  0  0  0  0
  1 10  1  0  0  0  0
  1 11  1  0  0  0  0
  2 14  1  0  0  0  0
  2 30  1  0  0  0  0
  3 15  2  0  0  0  0
  4 17  1  0  0  0  0
  4 32  1  0  0  0  0
  5 17  2  0  0  0  0
  6 18  2  0  0  0  0
  7 10  1  0  0  0  0
  7 12  1  0  0  0  0
  7 15  1  0  0  0  0
 16  8  1  1  0  0  0
  8 18  1  0  0  0  0
  8 29  1  0  0  0  0
 19  9  1  1  0  0  0
  9 36  1  0  0  0  0
  9 37  1  0  0  0  0
 10 13  1  0  0  0  0
 10 21  1  1  0  0  0
 11 12  1  0  0  0  0
 11 14  1  1  0  0  0
 11 22  1  0  0  0  0
 12 23  1  0  0  0  0
 12 24  1  0  0  0  0
 13 15  1  0  0  0  0
 13 25  1  0  0  0  0
 13 26  1  0  0  0  0
 14 16  1  0  0  0  0
 14 27  1  0  0  0  0
 16 17  1  0  0  0  0
 16 28  1  0  0  0  0
 18 19  1  0  0  0  0
 19 20  1  0  0  0  0
 19 31  1  0  0  0  0
 20 33  1  0  0  0  0
 20 34  1  0  0  0  0
 20 35  1  0  0  0  0
M  END
> <PUBCHEM_COMPOUND_CID>
46173893

> <PUBCHEM_COMPOUND_CANONICALIZED>
1

> <PUBCHEM_CACTVS_COMPLEXITY>
442

> <PUBCHEM_CACTVS_HBOND_ACCEPTOR>
7

> <PUBCHEM_CACTVS_HBOND_DONOR>
4

> <PUBCHEM_CACTVS_ROTATABLE_BOND>
5

> <PUBCHEM_CACTVS_SUBSKEYS>
AAADceBzOAAAAAAAAAAAAAAAAABYAWAAAAAAAAAABYAAAAAAAAAAHgAQCAAACDzhgAYCCAPABgAIAAGQGAAAAAAAAAAAAIGIAAADUB4AgCAfQAAHNgCTAADaEQIAAAAAAAAAAAAAAAAAAAAAAAAAAAAAAA==

> <PUBCHEM_IUPAC_OPENEYE_NAME>
(2S)-2-[[(2S)-2-aminopropanoyl]amino]-3-hydroxy-3-[(3R,5S)-7-oxo-4-oxa-1-azabicyclo[3.2.0]heptan-3-yl]propanoic acid

> <PUBCHEM_IUPAC_CAS_NAME>
(2S)-2-[[(2S)-2-amino-1-oxopropyl]amino]-3-hydroxy-3-[(3R,5S)-7-oxo-4-oxa-1-azabicyclo[3.2.0]heptan-3-yl]propanoic acid

> <PUBCHEM_IUPAC_NAME>
(2S)-2-[[(2S)-2-aminopropanoyl]amino]-3-hydroxy-3-[(3R,5S)-7-oxo-4-oxa-1-azabicyclo[3.2.0]heptan-3-yl]propanoic acid

> <PUBCHEM_IUPAC_SYSTEMATIC_NAME>
(2S)-2-[[(2S)-2-azanylpropanoyl]amino]-3-oxidanyl-3-[(3R,5S)-7-oxidanylidene-4-oxa-1-azabicyclo[3.2.0]heptan-3-yl]propanoic acid

> <PUBCHEM_IUPAC_TRADITIONAL_NAME>
(2S)-2-[[(2S)-2-aminopropanoyl]amino]-3-hydroxy-3-[(3R,5S)-7-keto-4-oxa-1-azabicyclo[3.2.0]heptan-3-yl]propionic acid

> <PUBCHEM_IUPAC_INCHI>
InChI=1S/C11H17N3O6/c1-4(12)10(17)13-8(11(18)19)9(16)5-3-14-6(15)2-7(14)20-5/h4-5,7-9,16H,2-3,12H2,1H3,(H,13,17)(H,18,19)/t4-,5+,7-,8-,9?/m0/s1

> <PUBCHEM_IUPAC_INCHIKEY>
HYVUCUGHACXFFU-NQIQCGANSA-N

> <PUBCHEM_XLOGP3_AA>
-5.2

> <PUBCHEM_EXACT_MASS>
287.111735

> <PUBCHEM_MOLECULAR_FORMULA>
C11H17N3O6

> <PUBCHEM_MOLECULAR_WEIGHT>
287.26918

> <PUBCHEM_OPENEYE_CAN_SMILES>
CC(C(=O)NC(C(C1CN2C(O1)CC2=O)O)C(=O)O)N

> <PUBCHEM_OPENEYE_ISO_SMILES>
C[C@@H](C(=O)N[C@@H](C([C@H]1CN2[C@@H](O1)CC2=O)O)C(=O)O)N

> <PUBCHEM_CACTVS_TPSA>
142

> <PUBCHEM_MONOISOTOPIC_WEIGHT>
287.111735

> <PUBCHEM_TOTAL_CHARGE>
0

> <PUBCHEM_HEAVY_ATOM_COUNT>
20

> <PUBCHEM_ATOM_DEF_STEREO_COUNT>
4

> <PUBCHEM_ATOM_UDEF_STEREO_COUNT>
1

> <PUBCHEM_BOND_DEF_STEREO_COUNT>
0

> <PUBCHEM_BOND_UDEF_STEREO_COUNT>
0

> <PUBCHEM_ISOTOPIC_ATOM_COUNT>
0

> <PUBCHEM_COMPONENT_COUNT>
1

> <PUBCHEM_CACTVS_TAUTO_COUNT>
4

> <PUBCHEM_COORDINATE_TYPE>
1
5
255

> <PUBCHEM_BONDANNOTATIONS>
10  21  5
11  14  5
14  2  3
16  8  5
19  9  5

$$$$

