84843
  -OEChem-07051213012D

 25 26  0     0  0  0  0  0  0999 V2000
    3.4030    0.8343    0.0000 S   0  0  0  0  0  0  0  0  0  0  0  0
    7.7610    1.3689    0.0000 O   0  0  0  0  0  0  0  0  0  0  0  0
    4.2690    1.3343    0.0000 O   0  0  0  0  0  0  0  0  0  0  0  0
    9.5312    1.3584    0.0000 O   0  0  0  0  0  0  0  0  0  0  0  0
    2.5369    0.3343    0.0000 O   0  0  0  0  0  0  0  0  0  0  0  0
    2.9030    1.7003    0.0000 O   0  0  0  0  0  0  0  0  0  0  0  0
    3.9030   -0.0317    0.0000 O   0  0  0  0  0  0  0  0  0  0  0  0
    6.8671   -0.1657    0.0000 C   0  0  0  0  0  0  0  0  0  0  0  0
    6.8671    0.8343    0.0000 C   0  0  0  0  0  0  0  0  0  0  0  0
    7.7610   -0.7004    0.0000 C   0  0  0  0  0  0  0  0  0  0  0  0
    6.0010   -0.6657    0.0000 C   0  0  0  0  0  0  0  0  0  0  0  0
    6.0010    1.3343    0.0000 C   0  0  0  0  0  0  0  0  0  0  0  0
    5.1350    0.8343    0.0000 C   0  0  0  0  0  0  0  0  0  0  0  0
    5.1350   -0.1657    0.0000 C   0  0  0  0  0  0  0  0  0  0  0  0
    8.6671   -0.1865    0.0000 C   0  0  0  0  0  0  0  0  0  0  0  0
    7.7494   -1.7003    0.0000 C   0  0  0  0  0  0  0  0  0  0  0  0
    8.6671    0.8551    0.0000 C   0  0  0  0  0  0  0  0  0  0  0  0
    6.0010   -1.2857    0.0000 H   0  0  0  0  0  0  0  0  0  0  0  0
    6.0010    1.9543    0.0000 H   0  0  0  0  0  0  0  0  0  0  0  0
    4.5981   -0.4757    0.0000 H   0  0  0  0  0  0  0  0  0  0  0  0
    9.2028   -0.4986    0.0000 H   0  0  0  0  0  0  0  0  0  0  0  0
    7.1295   -1.6931    0.0000 H   0  0  0  0  0  0  0  0  0  0  0  0
    7.7423   -2.3203    0.0000 H   0  0  0  0  0  0  0  0  0  0  0  0
    8.3694   -1.7075    0.0000 H   0  0  0  0  0  0  0  0  0  0  0  0
    2.0000    0.6443    0.0000 H   0  0  0  0  0  0  0  0  0  0  0  0
  1  3  1  0  0  0  0
  1  5  1  0  0  0  0
  1  6  2  0  0  0  0
  1  7  2  0  0  0  0
  2  9  1  0  0  0  0
  2 17  1  0  0  0  0
  3 13  1  0  0  0  0
  4 17  2  0  0  0  0
  5 25  1  0  0  0  0
  8  9  2  0  0  0  0
  8 10  1  0  0  0  0
  8 11  1  0  0  0  0
  9 12  1  0  0  0  0
 10 15  2  0  0  0  0
 10 16  1  0  0  0  0
 11 14  2  0  0  0  0
 11 18  1  0  0  0  0
 12 13  2  0  0  0  0
 12 19  1  0  0  0  0
 13 14  1  0  0  0  0
 14 20  1  0  0  0  0
 15 17  1  0  0  0  0
 15 21  1  0  0  0  0
 16 22  1  0  0  0  0
 16 23  1  0  0  0  0
 16 24  1  0  0  0  0
M  END
> <PUBCHEM_COMPOUND_CID>
84843

> <PUBCHEM_COMPOUND_CANONICALIZED>
1

> <PUBCHEM_CACTVS_COMPLEXITY>
446

> <PUBCHEM_CACTVS_HBOND_ACCEPTOR>
6

> <PUBCHEM_CACTVS_HBOND_DONOR>
1

> <PUBCHEM_CACTVS_ROTATABLE_BOND>
2

> <PUBCHEM_CACTVS_SUBSKEYS>
AAADccBwOABAAAAAAAAAAAAAAAAAAAAAAAAwQAAAAAAAAACBAAAAGgAACAAADASAmAAyDoAABICIAiDSCDACCAAgIAAIiAAGCMgMJyKEMRqCOiClwBUIqQeA4KwOIAAACAAIAABAAAAQABAAAAAAAAAAAA==

> <PUBCHEM_IUPAC_OPENEYE_NAME>
(4-methyl-2-oxo-chromen-7-yl) hydrogen sulfate

> <PUBCHEM_IUPAC_CAS_NAME>
sulfuric acid (4-methyl-2-oxo-1-benzopyran-7-yl) ester

> <PUBCHEM_IUPAC_NAME>
(4-methyl-2-oxochromen-7-yl) hydrogen sulfate

> <PUBCHEM_IUPAC_SYSTEMATIC_NAME>
(4-methyl-2-oxidanylidene-chromen-7-yl) hydrogen sulfate

> <PUBCHEM_IUPAC_TRADITIONAL_NAME>
sulfuric acid (2-keto-4-methyl-chromen-7-yl) ester

> <PUBCHEM_IUPAC_INCHI>
InChI=1S/C10H8O6S/c1-6-4-10(11)15-9-5-7(2-3-8(6)9)16-17(12,13)14/h2-5H,1H3,(H,12,13,14)

> <PUBCHEM_IUPAC_INCHIKEY>
FUYLLJCBCKRIAL-UHFFFAOYSA-N

> <PUBCHEM_XLOGP3>
1.3

> <PUBCHEM_EXACT_MASS>
256.004159

> <PUBCHEM_MOLECULAR_FORMULA>
C10H8O6S

> <PUBCHEM_MOLECULAR_WEIGHT>
256.23192

> <PUBCHEM_OPENEYE_CAN_SMILES>
CC1=CC(=O)OC2=C1C=CC(=C2)OS(=O)(=O)O

> <PUBCHEM_OPENEYE_ISO_SMILES>
CC1=CC(=O)OC2=C1C=CC(=C2)OS(=O)(=O)O

> <PUBCHEM_CACTVS_TPSA>
98.3

> <PUBCHEM_MONOISOTOPIC_WEIGHT>
256.004159

> <PUBCHEM_TOTAL_CHARGE>
0

> <PUBCHEM_HEAVY_ATOM_COUNT>
17

> <PUBCHEM_ATOM_DEF_STEREO_COUNT>
0

> <PUBCHEM_ATOM_UDEF_STEREO_COUNT>
0

> <PUBCHEM_BOND_DEF_STEREO_COUNT>
0

> <PUBCHEM_BOND_UDEF_STEREO_COUNT>
0

> <PUBCHEM_ISOTOPIC_ATOM_COUNT>
0

> <PUBCHEM_COMPONENT_COUNT>
1

> <PUBCHEM_CACTVS_TAUTO_COUNT>
1

> <PUBCHEM_COORDINATE_TYPE>
1
5
255

> <PUBCHEM_BONDANNOTATIONS>
10  15  8
11  14  8
12  13  8
13  14  8
15  17  8
2  17  8
2  9  8
8  10  8
8  11  8
8  9  8
9  12  8

$$$$

