9156
  -OEChem-06261203272D

 25 28  0     0  0  0  0  0  0999 V2000
    4.6946   -2.4110    0.0000 N   0  0  0  0  0  0  0  0  0  0  0  0
    3.8839   -0.9279    0.0000 C   0  0  0  0  0  0  0  0  0  0  0  0
    3.0749   -0.3401    0.0000 C   0  0  0  0  0  0  0  0  0  0  0  0
    4.6929   -0.3401    0.0000 C   0  0  0  0  0  0  0  0  0  0  0  0
    3.3839    0.6110    0.0000 C   0  0  0  0  0  0  0  0  0  0  0  0
    4.3839    0.6110    0.0000 C   0  0  0  0  0  0  0  0  0  0  0  0
    3.7910   -1.9653    0.0000 C   0  0  0  0  0  0  0  0  0  0  0  0
    2.1169   -0.7490    0.0000 C   0  0  0  0  0  0  0  0  0  0  0  0
    5.5492   -0.8710    0.0000 C   0  0  0  0  0  0  0  0  0  0  0  0
    2.8492    1.5049    0.0000 C   0  0  0  0  0  0  0  0  0  0  0  0
    4.9185    1.5049    0.0000 C   0  0  0  0  0  0  0  0  0  0  0  0
    2.8427   -2.3963    0.0000 C   0  0  0  0  0  0  0  0  0  0  0  0
    2.0000   -1.7841    0.0000 C   0  0  0  0  0  0  0  0  0  0  0  0
    3.3631    2.4110    0.0000 C   0  0  0  0  0  0  0  0  0  0  0  0
    4.4047    2.4110    0.0000 C   0  0  0  0  0  0  0  0  0  0  0  0
    5.5500   -1.8786    0.0000 C   0  0  0  0  0  0  0  0  0  0  0  0
    1.6195   -0.3788    0.0000 H   0  0  0  0  0  0  0  0  0  0  0  0
    6.0908   -0.5693    0.0000 H   0  0  0  0  0  0  0  0  0  0  0  0
    2.2293    1.4978    0.0000 H   0  0  0  0  0  0  0  0  0  0  0  0
    5.5385    1.4978    0.0000 H   0  0  0  0  0  0  0  0  0  0  0  0
    2.7803   -3.0132    0.0000 H   0  0  0  0  0  0  0  0  0  0  0  0
    1.4326   -2.0341    0.0000 H   0  0  0  0  0  0  0  0  0  0  0  0
    3.0510    2.9467    0.0000 H   0  0  0  0  0  0  0  0  0  0  0  0
    6.0921   -2.1794    0.0000 H   0  0  0  0  0  0  0  0  0  0  0  0
    4.7168    2.9467    0.0000 H   0  0  0  0  0  0  0  0  0  0  0  0
  1  7  1  0  0  0  0
  1 16  2  0  0  0  0
  2  3  2  0  0  0  0
  2  4  1  0  0  0  0
  2  7  1  0  0  0  0
  3  5  1  0  0  0  0
  3  8  1  0  0  0  0
  4  6  1  0  0  0  0
  4  9  2  0  0  0  0
  5  6  1  0  0  0  0
  5 10  2  0  0  0  0
  6 11  2  0  0  0  0
  7 12  2  0  0  0  0
  8 13  2  0  0  0  0
  8 17  1  0  0  0  0
  9 16  1  0  0  0  0
  9 18  1  0  0  0  0
 10 14  1  0  0  0  0
 10 19  1  0  0  0  0
 11 15  1  0  0  0  0
 11 20  1  0  0  0  0
 12 13  1  0  0  0  0
 12 21  1  0  0  0  0
 13 22  1  0  0  0  0
 14 15  2  0  0  0  0
 14 23  1  0  0  0  0
 15 25  1  0  0  0  0
 16 24  1  0  0  0  0
M  END
> <PUBCHEM_COMPOUND_CID>
9156

> <PUBCHEM_COMPOUND_CANONICALIZED>
1

> <PUBCHEM_CACTVS_COMPLEXITY>
275

> <PUBCHEM_CACTVS_HBOND_ACCEPTOR>
1

> <PUBCHEM_CACTVS_HBOND_DONOR>
0

> <PUBCHEM_CACTVS_ROTATABLE_BOND>
0

> <PUBCHEM_CACTVS_SUBSKEYS>
AAADccByAAAAAAAAAAAAAAAAAAAAAYAAAAA8YIAAAAAAAHix9AAAHAAAAAAADAjBHgQ8wPIIEACgAzRnRACCgCAxAiAI2CA4ZJgIIOLAkZGEIAhggADIyAcQgMAOgAAAQAASAAAAAACAACQAAQAACAAAAA==

> <PUBCHEM_IUPAC_INCHI>
InChI=1S/C15H9N/c1-2-5-11-10(4-1)12-6-3-7-14-15(12)13(11)8-9-16-14/h1-9H

> <PUBCHEM_IUPAC_INCHIKEY>
LBRODQCXTUTGSV-UHFFFAOYSA-N

> <PUBCHEM_XLOGP3_AA>
3.5

> <PUBCHEM_EXACT_MASS>
203.073499

> <PUBCHEM_MOLECULAR_FORMULA>
C15H9N

> <PUBCHEM_MOLECULAR_WEIGHT>
203.23866

> <PUBCHEM_OPENEYE_CAN_SMILES>
C1=CC=C2C(=C1)C3=C4C2=CC=NC4=CC=C3

> <PUBCHEM_OPENEYE_ISO_SMILES>
C1=CC=C2C(=C1)C3=C4C2=CC=NC4=CC=C3

> <PUBCHEM_CACTVS_TPSA>
12.9

> <PUBCHEM_MONOISOTOPIC_WEIGHT>
203.073499

> <PUBCHEM_TOTAL_CHARGE>
0

> <PUBCHEM_HEAVY_ATOM_COUNT>
16

> <PUBCHEM_ATOM_DEF_STEREO_COUNT>
0

> <PUBCHEM_ATOM_UDEF_STEREO_COUNT>
0

> <PUBCHEM_BOND_DEF_STEREO_COUNT>
0

> <PUBCHEM_BOND_UDEF_STEREO_COUNT>
0

> <PUBCHEM_ISOTOPIC_ATOM_COUNT>
0

> <PUBCHEM_COMPONENT_COUNT>
1

> <PUBCHEM_CACTVS_TAUTO_COUNT>
1

> <PUBCHEM_COORDINATE_TYPE>
1
5
255

> <PUBCHEM_BONDANNOTATIONS>
1  16  8
1  7  8
10  14  8
11  15  8
12  13  8
14  15  8
2  3  8
2  4  8
2  7  8
3  8  8
4  9  8
5  10  8
5  6  8
6  11  8
7  12  8
8  13  8
9  16  8

$$$$

