281241
  -OEChem-07051212502D

 18 17  0     0  0  0  0  0  0999 V2000
    3.4030   -0.2685    0.0000 P   0  0  0  0  0  0  0  0  0  0  0  0
    2.5369   -0.7685    0.0000 O   0  0  0  0  0  0  0  0  0  0  0  0
    2.9030    0.5976    0.0000 O   0  0  0  0  0  0  0  0  0  0  0  0
    3.9030   -1.1345    0.0000 O   0  0  0  0  0  0  0  0  0  0  0  0
    6.0010    0.2315    0.0000 N   0  0  0  0  0  0  0  0  0  0  0  0
    4.2690    0.2315    0.0000 C   0  0  0  0  0  0  0  0  0  0  0  0
    5.1350   -0.2685    0.0000 C   0  0  0  0  0  0  0  0  0  0  0  0
    6.8671   -0.2685    0.0000 C   0  0  0  0  0  0  0  0  0  0  0  0
    4.6675    0.7065    0.0000 H   0  0  0  0  0  0  0  0  0  0  0  0
    3.8705    0.7065    0.0000 H   0  0  0  0  0  0  0  0  0  0  0  0
    4.7365   -0.7434    0.0000 H   0  0  0  0  0  0  0  0  0  0  0  0
    5.5335   -0.7434    0.0000 H   0  0  0  0  0  0  0  0  0  0  0  0
    6.0010    0.8515    0.0000 H   0  0  0  0  0  0  0  0  0  0  0  0
    6.5571   -0.8054    0.0000 H   0  0  0  0  0  0  0  0  0  0  0  0
    7.4040   -0.5785    0.0000 H   0  0  0  0  0  0  0  0  0  0  0  0
    7.1771    0.2685    0.0000 H   0  0  0  0  0  0  0  0  0  0  0  0
    3.2130    1.1345    0.0000 H   0  0  0  0  0  0  0  0  0  0  0  0
    2.0000   -0.4585    0.0000 H   0  0  0  0  0  0  0  0  0  0  0  0
  1  2  1  0  0  0  0
  1  3  1  0  0  0  0
  1  4  2  0  0  0  0
  1  6  1  0  0  0  0
  2 18  1  0  0  0  0
  3 17  1  0  0  0  0
  5  7  1  0  0  0  0
  5  8  1  0  0  0  0
  5 13  1  0  0  0  0
  6  7  1  0  0  0  0
  6  9  1  0  0  0  0
  6 10  1  0  0  0  0
  7 11  1  0  0  0  0
  7 12  1  0  0  0  0
  8 14  1  0  0  0  0
  8 15  1  0  0  0  0
  8 16  1  0  0  0  0
M  END
> <PUBCHEM_COMPOUND_CID>
281241

> <PUBCHEM_COMPOUND_CANONICALIZED>
1

> <PUBCHEM_CACTVS_COMPLEXITY>
98.7

> <PUBCHEM_CACTVS_HBOND_ACCEPTOR>
4

> <PUBCHEM_CACTVS_HBOND_DONOR>
3

> <PUBCHEM_CACTVS_ROTATABLE_BOND>
3

> <PUBCHEM_CACTVS_SUBSKEYS>
AAADccBCMAIAAAAAAAAAAAAAAAAAAAAAAAAAAAAAAAAAAAAAAAAAHAgQCCAAAADJAAQCAALAABAAQAAAAIAAAAAAAAAAAIAIAAAAAAAAAAAAAAAAEAAAAAAAAAAAAAAAAAAAAAAAAAAAAAAAAAAAAAAAAA==

> <PUBCHEM_IUPAC_OPENEYE_NAME>
2-(methylamino)ethylphosphonic acid

> <PUBCHEM_IUPAC_CAS_NAME>
2-(methylamino)ethylphosphonic acid

> <PUBCHEM_IUPAC_NAME>
2-(methylamino)ethylphosphonic acid

> <PUBCHEM_IUPAC_SYSTEMATIC_NAME>
2-(methylamino)ethylphosphonic acid

> <PUBCHEM_IUPAC_TRADITIONAL_NAME>
2-(methylamino)ethylphosphonic acid

> <PUBCHEM_IUPAC_INCHI>
InChI=1S/C3H10NO3P/c1-4-2-3-8(5,6)7/h4H,2-3H2,1H3,(H2,5,6,7)

> <PUBCHEM_IUPAC_INCHIKEY>
KMMKKNKMHUQJAW-UHFFFAOYSA-N

> <PUBCHEM_XLOGP3_AA>
-4.3

> <PUBCHEM_EXACT_MASS>
139.03983

> <PUBCHEM_MOLECULAR_FORMULA>
C3H10NO3P

> <PUBCHEM_MOLECULAR_WEIGHT>
139.090162

> <PUBCHEM_OPENEYE_CAN_SMILES>
CNCCP(=O)(O)O

> <PUBCHEM_OPENEYE_ISO_SMILES>
CNCCP(=O)(O)O

> <PUBCHEM_CACTVS_TPSA>
69.6

> <PUBCHEM_MONOISOTOPIC_WEIGHT>
139.03983

> <PUBCHEM_TOTAL_CHARGE>
0

> <PUBCHEM_HEAVY_ATOM_COUNT>
8

> <PUBCHEM_ATOM_DEF_STEREO_COUNT>
0

> <PUBCHEM_ATOM_UDEF_STEREO_COUNT>
0

> <PUBCHEM_BOND_DEF_STEREO_COUNT>
0

> <PUBCHEM_BOND_UDEF_STEREO_COUNT>
0

> <PUBCHEM_ISOTOPIC_ATOM_COUNT>
0

> <PUBCHEM_COMPONENT_COUNT>
1

> <PUBCHEM_CACTVS_TAUTO_COUNT>
1

> <PUBCHEM_COORDINATE_TYPE>
1
5
255

$$$$

