   Color/Form

     * Liquid
     * Colorless, oily liquid

   from [1]HSDB

   Odor

     * Garlic-like odor
     * Ethereal odor

   from [2]HSDB

   Boiling Point
        92.1 deg C
   from [3]HSDB

   Melting Point
        -103.9 deg C
   from [4]HSDB

   Density/Specific Gravity
        0.8362 g/cu cm at 20 deg C
   from [5]HSDB

   Octanol/Water Partition Coefficient
        log Kow = 1.95
   from [6]HSDB

   Solubilities

     * Soluble in ethanol, diethyl ether; slightly soluble in carbon
       tetrachloride.
     * Soluble in oxygenated solvents.
     * Miscible with alcohol, ether
     * In water, 3130 mg/L at 25 deg C [Valvani SC et al; J Pharm Sci 70:
       502-7 (1981)] [7]PubMed Abstract

   from [8]HSDB

   Spectral Properties

     * MAX ABSORPTION (ALCOHOL): 210 NM (LOG E= 3.24); 229 NM (LOG E=
       2.14) SHOULDER
     * Index of refraction: 1.4430 at 20 deg C/D
     * IR: 319 (Sadtler Research Laboratories Prism Collection)
     * UV: 5-23 (Organic Electronic Spectral Data, Phillips et al, John
       Wiley & Sons, New York)
     * 1H NMR: 10215 (Sadtler Research Laboratories Spectral Collection)
     * 13C NMR: 158 (Stothers, Carbon-13 NMR Spectroscopy, Academic Press,
       NY)
     * Raman: 543 (Sadtler Research Laboratories Spectral Collection)
     * MASS: 69738 (NIST/EPA/MSDC Mass Spectral Database, 1990 version)

   from [9]HSDB

   Vapor Density
        3.11 (AIR= 1)
   from [10]HSDB

   Vapor Pressure
        60.2 mm Hg at 25 deg C
   from [11]HSDB

   Other Chemical/Physical Properties

     * Conversion factor: 3.68 mg/cu m = 1 ppm
     * Henry's Law constant = 1.68X10-3 atm-cu m/mol at 25 deg C
     * Hydroxyl radical reaction rate constant = 1.5X10-11 cu cm/molec-sec
       at 25 deg C

   from [12]HSDB

   Computed Properties
   Molecular Weight                  90.1872 [g/mol]
   Molecular Formula                 C[4]H[10]S
   XLogP3                            1.9
   H-Bond Donor                      0
   H-Bond Acceptor                   1
   Rotatable Bond Count              2
   Exact Mass                        90.050321
   MonoIsotopic Mass                 90.050321
   Topological Polar Surface Area    25.3
   Heavy Atom Count                  5
   Formal Charge                     0
   Complexity                        11.1
   Isotope Atom Count                0
   Defined Atom Stereocenter Count   0
   Undefined Atom Stereocenter Count 0
   Defined Bond Stereocenter Count   0
   Undefined Bond Stereocenter Count 0
   Covalently-Bonded Unit Count      1
   Feature 3D Hydrophobe Count       2
   Effective Rotor Count             2
   Conformer Sampling RMSD           0.4
   CID Conformer Count               [13]5

References

   1. http://toxnet.nlm.nih.gov/cgi-bin/sis/search/r?dbs+hsdb:@term+@rn+@rel+352-93-2
   2. http://toxnet.nlm.nih.gov/cgi-bin/sis/search/r?dbs+hsdb:@term+@rn+@rel+352-93-2
   3. http://toxnet.nlm.nih.gov/cgi-bin/sis/search/r?dbs+hsdb:@term+@rn+@rel+352-93-2
   4. http://toxnet.nlm.nih.gov/cgi-bin/sis/search/r?dbs+hsdb:@term+@rn+@rel+352-93-2
   5. http://toxnet.nlm.nih.gov/cgi-bin/sis/search/r?dbs+hsdb:@term+@rn+@rel+352-93-2
   6. http://toxnet.nlm.nih.gov/cgi-bin/sis/search/r?dbs+hsdb:@term+@rn+@rel+352-93-2
   7. http://www.ncbi.nlm.nih.gov/entrez/query.fcgi?cmd=Retrieve&db=pubmed&dopt=Abstract&list_uids=7241352
   8. http://toxnet.nlm.nih.gov/cgi-bin/sis/search/r?dbs+hsdb:@term+@rn+@rel+352-93-2
   9. http://toxnet.nlm.nih.gov/cgi-bin/sis/search/r?dbs+hsdb:@term+@rn+@rel+352-93-2
  10. http://toxnet.nlm.nih.gov/cgi-bin/sis/search/r?dbs+hsdb:@term+@rn+@rel+352-93-2
  11. http://toxnet.nlm.nih.gov/cgi-bin/sis/search/r?dbs+hsdb:@term+@rn+@rel+352-93-2
  12. http://toxnet.nlm.nih.gov/cgi-bin/sis/search/r?dbs+hsdb:@term+@rn+@rel+352-93-2
  13. http://pubchem.ncbi.nlm.nih.gov/vw3d/vw3d.cgi?cid=9609
