17395834
  -OEChem-06241222522D

 47 49  0     0  0  0  0  0  0999 V2000
    2.3064   -3.6754    0.0000 O   0  0  0  0  0  0  0  0  0  0  0  0
    5.1543   -1.6063    0.0000 O   0  0  0  0  0  0  0  0  0  0  0  0
    4.1989    1.1343    0.0000 O   0  0  0  0  0  0  0  0  0  0  0  0
    4.8755   -3.3664    0.0000 N   0  0  0  0  0  0  0  0  0  0  0  0
    3.5665   -2.4153    0.0000 N   0  0  0  0  0  0  0  0  0  0  0  0
    2.6166    1.8388    0.0000 N   0  0  0  0  0  0  0  0  0  0  0  0
    4.0665   -3.9542    0.0000 C   0  0  0  0  0  0  0  0  0  0  0  0
    4.8755   -4.5420    0.0000 C   0  0  0  0  0  0  0  0  0  0  0  0
    3.2575   -4.5420    0.0000 C   0  0  0  0  0  0  0  0  0  0  0  0
    4.5665   -5.4930    0.0000 C   0  0  0  0  0  0  0  0  0  0  0  0
    3.5665   -5.4930    0.0000 C   0  0  0  0  0  0  0  0  0  0  0  0
    3.2575   -3.3664    0.0000 C   0  0  0  0  0  0  0  0  0  0  0  0
    4.5665   -2.4153    0.0000 C   0  0  0  0  0  0  0  0  0  0  0  0
    2.9787   -1.6063    0.0000 C   0  0  0  0  0  0  0  0  0  0  0  0
    3.3854   -0.6928    0.0000 C   0  0  0  0  0  0  0  0  0  0  0  0
    2.7976    0.1163    0.0000 C   0  0  0  0  0  0  0  0  0  0  0  0
    3.2044    1.0298    0.0000 C   0  0  0  0  0  0  0  0  0  0  0  0
    3.0233    2.7524    0.0000 C   0  0  0  0  0  0  0  0  0  0  0  0
    2.4356    3.5614    0.0000 C   0  0  0  0  0  0  0  0  0  0  0  0
    4.0179    2.8569    0.0000 C   0  0  0  0  0  0  0  0  0  0  0  0
    3.8368    4.5795    0.0000 C   0  0  0  0  0  0  0  0  0  0  0  0
    2.8423    4.4749    0.0000 C   0  0  0  0  0  0  0  0  0  0  0  0
    4.4246    3.7704    0.0000 C   0  0  0  0  0  0  0  0  0  0  0  0
    4.2436    5.4930    0.0000 C   0  0  0  0  0  0  0  0  0  0  0  0
    2.9475   -4.0050    0.0000 H   0  0  0  0  0  0  0  0  0  0  0  0
    2.6911   -4.7941    0.0000 H   0  0  0  0  0  0  0  0  0  0  0  0
    5.4419   -4.7941    0.0000 H   0  0  0  0  0  0  0  0  0  0  0  0
    5.1855   -4.0050    0.0000 H   0  0  0  0  0  0  0  0  0  0  0  0
    4.5017   -6.1096    0.0000 H   0  0  0  0  0  0  0  0  0  0  0  0
    5.1729   -5.6219    0.0000 H   0  0  0  0  0  0  0  0  0  0  0  0
    2.9600   -5.6219    0.0000 H   0  0  0  0  0  0  0  0  0  0  0  0
    3.6313   -6.1096    0.0000 H   0  0  0  0  0  0  0  0  0  0  0  0
    5.4652   -3.5580    0.0000 H   0  0  0  0  0  0  0  0  0  0  0  0
    2.4647   -1.2596    0.0000 H   0  0  0  0  0  0  0  0  0  0  0  0
    2.5480   -2.0523    0.0000 H   0  0  0  0  0  0  0  0  0  0  0  0
    3.8994   -1.0395    0.0000 H   0  0  0  0  0  0  0  0  0  0  0  0
    3.8161   -0.2468    0.0000 H   0  0  0  0  0  0  0  0  0  0  0  0
    2.2836    0.4630    0.0000 H   0  0  0  0  0  0  0  0  0  0  0  0
    2.3670   -0.3297    0.0000 H   0  0  0  0  0  0  0  0  0  0  0  0
    2.0000    1.7740    0.0000 H   0  0  0  0  0  0  0  0  0  0  0  0
    1.8190    3.4966    0.0000 H   0  0  0  0  0  0  0  0  0  0  0  0
    4.3823    2.3553    0.0000 H   0  0  0  0  0  0  0  0  0  0  0  0
    2.4779    4.9765    0.0000 H   0  0  0  0  0  0  0  0  0  0  0  0
    5.0412    3.8352    0.0000 H   0  0  0  0  0  0  0  0  0  0  0  0
    4.8100    5.2408    0.0000 H   0  0  0  0  0  0  0  0  0  0  0  0
    4.4957    6.0594    0.0000 H   0  0  0  0  0  0  0  0  0  0  0  0
    3.6772    5.7452    0.0000 H   0  0  0  0  0  0  0  0  0  0  0  0
  1 12  2  0  0  0  0
  2 13  2  0  0  0  0
  3 17  2  0  0  0  0
  4  7  1  0  0  0  0
  4 13  1  0  0  0  0
  4 33  1  0  0  0  0
  5 12  1  0  0  0  0
  5 13  1  0  0  0  0
  5 14  1  0  0  0  0
  6 17  1  0  0  0  0
  6 18  1  0  0  0  0
  6 40  1  0  0  0  0
  7  8  1  0  0  0  0
  7  9  1  0  0  0  0
  7 12  1  0  0  0  0
  8 10  1  0  0  0  0
  8 27  1  0  0  0  0
  8 28  1  0  0  0  0
  9 11  1  0  0  0  0
  9 25  1  0  0  0  0
  9 26  1  0  0  0  0
 10 11  1  0  0  0  0
 10 29  1  0  0  0  0
 10 30  1  0  0  0  0
 11 31  1  0  0  0  0
 11 32  1  0  0  0  0
 14 15  1  0  0  0  0
 14 34  1  0  0  0  0
 14 35  1  0  0  0  0
 15 16  1  0  0  0  0
 15 36  1  0  0  0  0
 15 37  1  0  0  0  0
 16 17  1  0  0  0  0
 16 38  1  0  0  0  0
 16 39  1  0  0  0  0
 18 19  2  0  0  0  0
 18 20  1  0  0  0  0
 19 22  1  0  0  0  0
 19 41  1  0  0  0  0
 20 23  2  0  0  0  0
 20 42  1  0  0  0  0
 21 22  2  0  0  0  0
 21 23  1  0  0  0  0
 21 24  1  0  0  0  0
 22 43  1  0  0  0  0
 23 44  1  0  0  0  0
 24 45  1  0  0  0  0
 24 46  1  0  0  0  0
 24 47  1  0  0  0  0
M  END
> <PUBCHEM_COMPOUND_CID>
17395834

> <PUBCHEM_COMPOUND_CANONICALIZED>
1

> <PUBCHEM_CACTVS_COMPLEXITY>
506

> <PUBCHEM_CACTVS_HBOND_ACCEPTOR>
3

> <PUBCHEM_CACTVS_HBOND_DONOR>
2

> <PUBCHEM_CACTVS_ROTATABLE_BOND>
5

> <PUBCHEM_CACTVS_SUBSKEYS>
AAADceB7MAAAAAAAAAAAAAAAAAAAAeIAAAAwAAAAAAAAAAABAAAAHgAQAAAADIjBmAQzwIPAAACIAiVSUACCAAAhAgAIiAGIZIiIYDLAkbGUIAholyLIyAcciAAOCAAAAAAAAAAQAAAAAAAAAAAAAAAAAA==

> <PUBCHEM_IUPAC_OPENEYE_NAME>
4-(2,4-dioxo-1,3-diazaspiro[4.4]nonan-3-yl)-N-(p-tolyl)butanamide

> <PUBCHEM_IUPAC_CAS_NAME>
4-(2,4-dioxo-1,3-diazaspiro[4.4]nonan-3-yl)-N-(4-methylphenyl)butanamide

> <PUBCHEM_IUPAC_NAME>
4-(2,4-dioxo-1,3-diazaspiro[4.4]nonan-3-yl)-N-(4-methylphenyl)butanamide

> <PUBCHEM_IUPAC_SYSTEMATIC_NAME>
4-[2,4-bis(oxidanylidene)-1,3-diazaspiro[4.4]nonan-3-yl]-N-(4-methylphenyl)butanamide

> <PUBCHEM_IUPAC_TRADITIONAL_NAME>
4-(2,4-diketo-1,3-diazaspiro[4.4]nonan-3-yl)-N-(p-tolyl)butyramide

> <PUBCHEM_IUPAC_INCHI>
InChI=1S/C18H23N3O3/c1-13-6-8-14(9-7-13)19-15(22)5-4-12-21-16(23)18(20-17(21)24)10-2-3-11-18/h6-9H,2-5,10-12H2,1H3,(H,19,22)(H,20,24)

> <PUBCHEM_IUPAC_INCHIKEY>
PPIFYNOLAFJCDD-UHFFFAOYSA-N

> <PUBCHEM_XLOGP3_AA>
1.7

> <PUBCHEM_EXACT_MASS>
329.173942

> <PUBCHEM_MOLECULAR_FORMULA>
C18H23N3O3

> <PUBCHEM_MOLECULAR_WEIGHT>
329.39352

> <PUBCHEM_OPENEYE_CAN_SMILES>
CC1=CC=C(C=C1)NC(=O)CCCN2C(=O)C3(CCCC3)NC2=O

> <PUBCHEM_OPENEYE_ISO_SMILES>
CC1=CC=C(C=C1)NC(=O)CCCN2C(=O)C3(CCCC3)NC2=O

> <PUBCHEM_CACTVS_TPSA>
78.5

> <PUBCHEM_MONOISOTOPIC_WEIGHT>
329.173942

> <PUBCHEM_TOTAL_CHARGE>
0

> <PUBCHEM_HEAVY_ATOM_COUNT>
24

> <PUBCHEM_ATOM_DEF_STEREO_COUNT>
0

> <PUBCHEM_ATOM_UDEF_STEREO_COUNT>
0

> <PUBCHEM_BOND_DEF_STEREO_COUNT>
0

> <PUBCHEM_BOND_UDEF_STEREO_COUNT>
0

> <PUBCHEM_ISOTOPIC_ATOM_COUNT>
0

> <PUBCHEM_COMPONENT_COUNT>
1

> <PUBCHEM_CACTVS_TAUTO_COUNT>
6

> <PUBCHEM_COORDINATE_TYPE>
1
5
255

> <PUBCHEM_BONDANNOTATIONS>
18  19  8
18  20  8
19  22  8
20  23  8
21  22  8
21  23  8

$$$$

