   Color/Form
        Colorless prisms
   from [1]HSDB

   Melting Point
        138 DEGdeg C (Decomp)
   from [2]HSDB

   Octanol/Water Partition Coefficient
        log Kow = -1.0 @ 25 deg C /Estimated/
   from [3]HSDB

   Solubilities

     * Sol in water and ethanol; sparingly sol in non-polar solvents
     * In water, 5,200 mg/L @ 25 deg C /Estimated/

   from [4]HSDB

   Spectral Properties
        Specific optical rotation: -8.2 deg @ 22 deg C/D (in water); max
   absorption (water): 217 nm (epsilon= 172)
   from [5]HSDB

   Other Chemical/Physical Properties

     * Henry's Law constant = 1X10-19 atm-cu m/mol @ 25 deg C /Estimated/
     * Hydroxyl radical reaction rate constant = 1.7X10-10 cu cm/molec-sec
       @ 25 deg C /Estimated/

   from [6]HSDB

   Computed Properties
   Molecular Weight                  367.3936 [g/mol]
   Molecular Formula                 C[18]H[25]NO[7]
   XLogP3-AA                         0
   H-Bond Donor                      2
   H-Bond Acceptor                   7
   Rotatable Bond Count              1
   Exact Mass                        367.163102
   MonoIsotopic Mass                 367.163102
   Topological Polar Surface Area    111
   Heavy Atom Count                  26
   Formal Charge                     0
   Complexity                        673
   Isotope Atom Count                0
   Defined Atom Stereocenter Count   4
   Undefined Atom Stereocenter Count 1
   Defined Bond Stereocenter Count   1
   Undefined Bond Stereocenter Count 0
   Covalently-Bonded Unit Count      1
   Feature 3D Acceptor Count         4
   Feature 3D Donor Count            2
   Feature 3D Anion Count            1
   Feature 3D Hydrophobe Count       1
   Feature 3D Ring Count             2
   Effective Rotor Count             2.8
   Conformer Sampling RMSD           0.6
   CID Conformer Count               [7]19

References

   1. http://toxnet.nlm.nih.gov/cgi-bin/sis/search/r?dbs+hsdb:@term+@rn+@rel+15503-86-3
   2. http://toxnet.nlm.nih.gov/cgi-bin/sis/search/r?dbs+hsdb:@term+@rn+@rel+15503-86-3
   3. http://toxnet.nlm.nih.gov/cgi-bin/sis/search/r?dbs+hsdb:@term+@rn+@rel+15503-86-3
   4. http://toxnet.nlm.nih.gov/cgi-bin/sis/search/r?dbs+hsdb:@term+@rn+@rel+15503-86-3
   5. http://toxnet.nlm.nih.gov/cgi-bin/sis/search/r?dbs+hsdb:@term+@rn+@rel+15503-86-3
   6. http://toxnet.nlm.nih.gov/cgi-bin/sis/search/r?dbs+hsdb:@term+@rn+@rel+15503-86-3
   7. http://pubchem.ncbi.nlm.nih.gov/vw3d/vw3d.cgi?cid=5281734
