11969465
  -OEChem-07051213152D

 61 66  0     1  0  0  0  0  0999 V2000
    5.7364   -2.2619    0.0000 O   0  0  0  0  0  0  0  0  0  0  0  0
    2.9380   -0.5672    0.0000 O   0  0  0  0  0  0  0  0  0  0  0  0
    2.0000    2.0496    0.0000 O   0  0  0  0  0  0  0  0  0  0  0  0
   10.3446   -0.3989    0.0000 O   0  0  0  0  0  0  0  0  0  0  0  0
   11.9910   -0.9370    0.0000 O   0  0  0  0  0  0  0  0  0  0  0  0
    6.4739   -1.5947    0.0000 C   0  0  2  0  0  0  0  0  0  0  0  0
    7.3399   -1.0947    0.0000 C   0  0  1  0  0  0  0  0  0  0  0  0
    5.6079   -1.0947    0.0000 C   0  0  1  0  0  0  0  0  0  0  0  0
    6.6831   -2.5666    0.0000 C   0  0  1  0  0  0  0  0  0  0  0  0
    5.6079   -0.0948    0.0000 C   0  0  1  0  0  0  0  0  0  0  0  0
    8.0770   -1.7618    0.0000 C   0  0  2  0  0  0  0  0  0  0  0  0
    4.7140    0.4399    0.0000 C   0  0  2  0  0  0  0  0  0  0  0  0
    7.6718   -2.6696    0.0000 C   0  0  0  0  0  0  0  0  0  0  0  0
    7.3399   -0.0948    0.0000 C   0  0  0  0  0  0  0  0  0  0  0  0
    6.4739    0.4052    0.0000 C   0  0  0  0  0  0  0  0  0  0  0  0
    4.7140   -1.6294    0.0000 C   0  0  0  0  0  0  0  0  0  0  0  0
    3.8079   -0.0739    0.0000 C   0  0  1  0  0  0  0  0  0  0  0  0
    3.8079   -1.1156    0.0000 C   0  0  0  0  0  0  0  0  0  0  0  0
    8.2060   -0.5948    0.0000 C   0  0  0  0  0  0  0  0  0  0  0  0
    4.7390    1.5246    0.0000 C   0  0  0  0  0  0  0  0  0  0  0  0
    2.8641    0.4613    0.0000 C   0  0  0  0  0  0  0  0  0  0  0  0
    5.5838    0.9332    0.0000 C   0  0  0  0  0  0  0  0  0  0  0  0
    9.0555   -1.5556    0.0000 C   0  0  0  0  0  0  0  0  0  0  0  0
    3.8079    2.0815    0.0000 C   0  0  0  0  0  0  0  0  0  0  0  0
    2.8641    1.5463    0.0000 C   0  0  2  0  0  0  0  0  0  0  0  0
    9.7233   -2.2999    0.0000 C   0  0  0  0  0  0  0  0  0  0  0  0
    9.3661   -0.6051    0.0000 C   0  0  0  0  0  0  0  0  0  0  0  0
   10.7018   -2.0937    0.0000 C   0  0  0  0  0  0  0  0  0  0  0  0
   11.0125   -1.1432    0.0000 C   0  0  0  0  0  0  0  0  0  0  0  0
    5.6144   -1.9447    0.0000 H   0  0  0  0  0  0  0  0  0  0  0  0
    6.5079   -3.3983    0.0000 H   0  0  0  0  0  0  0  0  0  0  0  0
    6.3440   -0.5198    0.0000 H   0  0  0  0  0  0  0  0  0  0  0  0
    8.4665   -2.2442    0.0000 H   0  0  0  0  0  0  0  0  0  0  0  0
    7.5431   -3.2761    0.0000 H   0  0  0  0  0  0  0  0  0  0  0  0
    8.2614   -2.8614    0.0000 H   0  0  0  0  0  0  0  0  0  0  0  0
    7.9505   -0.2024    0.0000 H   0  0  0  0  0  0  0  0  0  0  0  0
    7.5520    0.4879    0.0000 H   0  0  0  0  0  0  0  0  0  0  0  0
    6.8724    0.8802    0.0000 H   0  0  0  0  0  0  0  0  0  0  0  0
    6.0754    0.8802    0.0000 H   0  0  0  0  0  0  0  0  0  0  0  0
    4.3203   -2.1084    0.0000 H   0  0  0  0  0  0  0  0  0  0  0  0
    5.1185   -2.0992    0.0000 H   0  0  0  0  0  0  0  0  0  0  0  0
    3.1970   -1.0095    0.0000 H   0  0  0  0  0  0  0  0  0  0  0  0
    3.5988   -1.6993    0.0000 H   0  0  0  0  0  0  0  0  0  0  0  0
    8.5160   -1.1317    0.0000 H   0  0  0  0  0  0  0  0  0  0  0  0
    8.7429   -0.2848    0.0000 H   0  0  0  0  0  0  0  0  0  0  0  0
    7.8960   -0.0578    0.0000 H   0  0  0  0  0  0  0  0  0  0  0  0
    5.3473    1.4044    0.0000 H   0  0  0  0  0  0  0  0  0  0  0  0
    4.9615    2.1033    0.0000 H   0  0  0  0  0  0  0  0  0  0  0  0
    2.2532    0.5674    0.0000 H   0  0  0  0  0  0  0  0  0  0  0  0
    2.6550   -0.1224    0.0000 H   0  0  0  0  0  0  0  0  0  0  0  0
    5.8896    0.3939    0.0000 H   0  0  0  0  0  0  0  0  0  0  0  0
    6.1231    1.2391    0.0000 H   0  0  0  0  0  0  0  0  0  0  0  0
    5.2780    1.4725    0.0000 H   0  0  0  0  0  0  0  0  0  0  0  0
    4.2125    2.5513    0.0000 H   0  0  0  0  0  0  0  0  0  0  0  0
    3.4142    2.5606    0.0000 H   0  0  0  0  0  0  0  0  0  0  0  0
    2.8677    2.1663    0.0000 H   0  0  0  0  0  0  0  0  0  0  0  0
    2.4035   -0.2531    0.0000 H   0  0  0  0  0  0  0  0  0  0  0  0
    9.5307   -2.8892    0.0000 H   0  0  0  0  0  0  0  0  0  0  0  0
    8.9521   -0.1436    0.0000 H   0  0  0  0  0  0  0  0  0  0  0  0
    2.0024    2.6696    0.0000 H   0  0  0  0  0  0  0  0  0  0  0  0
   11.1159   -2.5552    0.0000 H   0  0  0  0  0  0  0  0  0  0  0  0
  6  1  1  1  0  0  0
  1  9  1  0  0  0  0
 17  2  1  1  0  0  0
  2 57  1  0  0  0  0
 25  3  1  1  0  0  0
  3 60  1  0  0  0  0
  4 27  1  0  0  0  0
  4 29  1  0  0  0  0
  5 29  2  0  0  0  0
  6  7  1  0  0  0  0
  6  8  1  0  0  0  0
  6  9  1  0  0  0  0
  7 11  1  0  0  0  0
  7 14  1  0  0  0  0
  7 19  1  1  0  0  0
  8 10  1  0  0  0  0
  8 16  1  0  0  0  0
  8 30  1  1  0  0  0
  9 13  1  0  0  0  0
  9 31  1  6  0  0  0
 10 12  1  0  0  0  0
 10 15  1  0  0  0  0
 10 32  1  6  0  0  0
 11 13  1  0  0  0  0
 11 23  1  1  0  0  0
 11 33  1  0  0  0  0
 12 17  1  0  0  0  0
 12 20  1  0  0  0  0
 12 22  1  1  0  0  0
 13 34  1  0  0  0  0
 13 35  1  0  0  0  0
 14 15  1  0  0  0  0
 14 36  1  0  0  0  0
 14 37  1  0  0  0  0
 15 38  1  0  0  0  0
 15 39  1  0  0  0  0
 16 18  1  0  0  0  0
 16 40  1  0  0  0  0
 16 41  1  0  0  0  0
 17 18  1  0  0  0  0
 17 21  1  0  0  0  0
 18 42  1  0  0  0  0
 18 43  1  0  0  0  0
 19 44  1  0  0  0  0
 19 45  1  0  0  0  0
 19 46  1  0  0  0  0
 20 24  1  0  0  0  0
 20 47  1  0  0  0  0
 20 48  1  0  0  0  0
 21 25  1  0  0  0  0
 21 49  1  0  0  0  0
 21 50  1  0  0  0  0
 22 51  1  0  0  0  0
 22 52  1  0  0  0  0
 22 53  1  0  0  0  0
 23 26  1  0  0  0  0
 23 27  2  0  0  0  0
 24 25  1  0  0  0  0
 24 54  1  0  0  0  0
 24 55  1  0  0  0  0
 25 56  1  0  0  0  0
 26 28  2  0  0  0  0
 26 58  1  0  0  0  0
 27 59  1  0  0  0  0
 28 29  1  0  0  0  0
 28 61  1  0  0  0  0
M  END
> <PUBCHEM_COMPOUND_CID>
11969465

> <PUBCHEM_COMPOUND_CANONICALIZED>
1

> <PUBCHEM_CACTVS_COMPLEXITY>
833

> <PUBCHEM_CACTVS_HBOND_ACCEPTOR>
5

> <PUBCHEM_CACTVS_HBOND_DONOR>
2

> <PUBCHEM_CACTVS_ROTATABLE_BOND>
1

> <PUBCHEM_CACTVS_SUBSKEYS>
AAADcfB4OAAAAAAAAAAAAAAAEgAAAYAAAAA0YMECAAAAAGDQAAAAGgAACAAAD1SggAICCAAABgCIAiDSCAAACAAgIAAICAAAAEgIFAIAIQACUAAFgAAIoYOA4PwPgAAAAAAAAADAAAYQADAAAYAADAAAAA==

> <PUBCHEM_IUPAC_INCHI>
InChI=1S/C24H32O5/c1-21-8-5-15(25)12-23(21,27)10-7-17-16(21)6-9-22(2)18(11-19-24(17,22)29-19)14-3-4-20(26)28-13-14/h3-4,13,15-19,25,27H,5-12H2,1-2H3/t15-,16-,17+,18+,19+,21+,22+,23-,24+/m0/s1

> <PUBCHEM_IUPAC_INCHIKEY>
JMNQTHQLNRILMH-OBBGIPBRSA-N

> <PUBCHEM_XLOGP3_AA>
2.5

> <PUBCHEM_EXACT_MASS>
400.224974

> <PUBCHEM_MOLECULAR_FORMULA>
C24H32O5

> <PUBCHEM_MOLECULAR_WEIGHT>
400.50788

> <PUBCHEM_OPENEYE_CAN_SMILES>
CC12CCC(CC1(CCC3C2CCC4(C35C(O5)CC4C6=COC(=O)C=C6)C)O)O

> <PUBCHEM_OPENEYE_ISO_SMILES>
C[C@]12CC[C@@H](C[C@]1(CC[C@@H]3[C@@H]2CC[C@]4([C@]35[C@H](O5)C[C@@H]4C6=COC(=O)C=C6)C)O)O

> <PUBCHEM_CACTVS_TPSA>
79.3

> <PUBCHEM_MONOISOTOPIC_WEIGHT>
400.224974

> <PUBCHEM_TOTAL_CHARGE>
0

> <PUBCHEM_HEAVY_ATOM_COUNT>
29

> <PUBCHEM_ATOM_DEF_STEREO_COUNT>
9

> <PUBCHEM_ATOM_UDEF_STEREO_COUNT>
0

> <PUBCHEM_BOND_DEF_STEREO_COUNT>
0

> <PUBCHEM_BOND_UDEF_STEREO_COUNT>
0

> <PUBCHEM_ISOTOPIC_ATOM_COUNT>
0

> <PUBCHEM_COMPONENT_COUNT>
1

> <PUBCHEM_CACTVS_TAUTO_COUNT>
1

> <PUBCHEM_COORDINATE_TYPE>
1
5
255

> <PUBCHEM_BONDANNOTATIONS>
6  1  5
10  32  6
11  23  5
12  22  5
17  2  5
23  26  8
23  27  8
26  28  8
28  29  8
25  3  5
4  27  8
4  29  8
7  19  5
8  30  5
9  31  6

$$$$

