174864
  -OEChem-07051212592D

 33 35  0     0  0  0  0  0  0999 V2000
    9.0343   -0.0684    0.0000 O   0  0  0  0  0  0  0  0  0  0  0  0
    2.8680   -1.5894    0.0000 O   0  0  0  0  0  0  0  0  0  0  0  0
    9.0501    1.9798    0.0000 O   0  0  0  0  0  0  0  0  0  0  0  0
    4.6497    1.4693    0.0000 O   0  0  0  0  0  0  0  0  0  0  0  0
    4.6497   -2.5998    0.0000 O   0  0  0  0  0  0  0  0  0  0  0  0
    6.3981    0.4347    0.0000 C   0  0  0  0  0  0  0  0  0  0  0  0
    5.5320   -0.0653    0.0000 C   0  0  0  0  0  0  0  0  0  0  0  0
    7.2641   -0.0653    0.0000 C   0  0  0  0  0  0  0  0  0  0  0  0
    5.5320   -1.0652    0.0000 C   0  0  0  0  0  0  0  0  0  0  0  0
    7.2641   -1.0652    0.0000 C   0  0  0  0  0  0  0  0  0  0  0  0
    6.3981   -1.5652    0.0000 C   0  0  0  0  0  0  0  0  0  0  0  0
    8.1741    0.4416    0.0000 C   0  0  0  0  0  0  0  0  0  0  0  0
    6.3820    1.4762    0.0000 C   0  0  0  0  0  0  0  0  0  0  0  0
    4.6381    0.4694    0.0000 C   0  0  0  0  0  0  0  0  0  0  0  0
    4.6381   -1.5999    0.0000 C   0  0  0  0  0  0  0  0  0  0  0  0
    8.1821    1.4832    0.0000 C   0  0  0  0  0  0  0  0  0  0  0  0
    3.7320   -1.0861    0.0000 C   0  0  0  0  0  0  0  0  0  0  0  0
    7.2800    2.0040    0.0000 C   0  0  0  0  0  0  0  0  0  0  0  0
    3.7320   -0.0444    0.0000 C   0  0  0  0  0  0  0  0  0  0  0  0
    9.9060    0.4216    0.0000 C   0  0  0  0  0  0  0  0  0  0  0  0
    2.0000   -1.0927    0.0000 C   0  0  0  0  0  0  0  0  0  0  0  0
    7.8010   -1.3752    0.0000 H   0  0  0  0  0  0  0  0  0  0  0  0
    6.3981   -2.1852    0.0000 H   0  0  0  0  0  0  0  0  0  0  0  0
    5.8415    1.7800    0.0000 H   0  0  0  0  0  0  0  0  0  0  0  0
    7.2777    2.6240    0.0000 H   0  0  0  0  0  0  0  0  0  0  0  0
    3.1963    0.2676    0.0000 H   0  0  0  0  0  0  0  0  0  0  0  0
    9.0525    2.5998    0.0000 H   0  0  0  0  0  0  0  0  0  0  0  0
   10.2098   -0.1189    0.0000 H   0  0  0  0  0  0  0  0  0  0  0  0
   10.4465    0.7253    0.0000 H   0  0  0  0  0  0  0  0  0  0  0  0
    9.6023    0.9620    0.0000 H   0  0  0  0  0  0  0  0  0  0  0  0
    2.3079   -0.5546    0.0000 H   0  0  0  0  0  0  0  0  0  0  0  0
    1.4619   -0.7848    0.0000 H   0  0  0  0  0  0  0  0  0  0  0  0
    1.6921   -1.6309    0.0000 H   0  0  0  0  0  0  0  0  0  0  0  0
  1 12  1  0  0  0  0
  1 20  1  0  0  0  0
  2 17  1  0  0  0  0
  2 21  1  0  0  0  0
  3 16  1  0  0  0  0
  3 27  1  0  0  0  0
  4 14  2  0  0  0  0
  5 15  2  0  0  0  0
  6  7  1  0  0  0  0
  6  8  2  0  0  0  0
  6 13  1  0  0  0  0
  7  9  2  0  0  0  0
  7 14  1  0  0  0  0
  8 10  1  0  0  0  0
  8 12  1  0  0  0  0
  9 11  1  0  0  0  0
  9 15  1  0  0  0  0
 10 11  2  0  0  0  0
 10 22  1  0  0  0  0
 11 23  1  0  0  0  0
 12 16  2  0  0  0  0
 13 18  2  0  0  0  0
 13 24  1  0  0  0  0
 14 19  1  0  0  0  0
 15 17  1  0  0  0  0
 16 18  1  0  0  0  0
 17 19  2  0  0  0  0
 18 25  1  0  0  0  0
 19 26  1  0  0  0  0
 20 28  1  0  0  0  0
 20 29  1  0  0  0  0
 20 30  1  0  0  0  0
 21 31  1  0  0  0  0
 21 32  1  0  0  0  0
 21 33  1  0  0  0  0
M  END
> <PUBCHEM_COMPOUND_CID>
174864

> <PUBCHEM_COMPOUND_CANONICALIZED>
1

> <PUBCHEM_CACTVS_COMPLEXITY>
483

> <PUBCHEM_CACTVS_HBOND_ACCEPTOR>
5

> <PUBCHEM_CACTVS_HBOND_DONOR>
1

> <PUBCHEM_CACTVS_ROTATABLE_BOND>
2

> <PUBCHEM_CACTVS_SUBSKEYS>
AAADccB4OAAAAAAAAAAAAAAAAAAAAAAAAAAwYIAAAAAAAADBUAAAGgAACAAADASAmAIyBsAABgCIAqBSAAICCAAkIAAIiAFGiMgNJjKGNB6AcSMkwBELuYeJzPDO4AADAAAYQADAAAYAADCAAAAAAAAAAA==

> <PUBCHEM_IUPAC_OPENEYE_NAME>
7-hydroxy-2,8-dimethoxy-phenanthrene-1,4-dione

> <PUBCHEM_IUPAC_CAS_NAME>
7-hydroxy-2,8-dimethoxyphenanthrene-1,4-dione

> <PUBCHEM_IUPAC_NAME>
7-hydroxy-2,8-dimethoxyphenanthrene-1,4-dione

> <PUBCHEM_IUPAC_SYSTEMATIC_NAME>
2,8-dimethoxy-7-oxidanyl-phenanthrene-1,4-dione

> <PUBCHEM_IUPAC_TRADITIONAL_NAME>
7-hydroxy-2,8-dimethoxy-phenanthrene-1,4-quinone

> <PUBCHEM_IUPAC_INCHI>
InChI=1S/C16H12O5/c1-20-13-7-12(18)14-8-5-6-11(17)16(21-2)9(8)3-4-10(14)15(13)19/h3-7,17H,1-2H3

> <PUBCHEM_IUPAC_INCHIKEY>
BMYGDZTYQFCHKI-UHFFFAOYSA-N

> <PUBCHEM_XLOGP3_AA>
2.5

> <PUBCHEM_EXACT_MASS>
284.068473

> <PUBCHEM_MOLECULAR_FORMULA>
C16H12O5

> <PUBCHEM_MOLECULAR_WEIGHT>
284.26348

> <PUBCHEM_OPENEYE_CAN_SMILES>
COC1=CC(=O)C2=C(C1=O)C=CC3=C2C=CC(=C3OC)O

> <PUBCHEM_OPENEYE_ISO_SMILES>
COC1=CC(=O)C2=C(C1=O)C=CC3=C2C=CC(=C3OC)O

> <PUBCHEM_CACTVS_TPSA>
72.8

> <PUBCHEM_MONOISOTOPIC_WEIGHT>
284.068473

> <PUBCHEM_TOTAL_CHARGE>
0

> <PUBCHEM_HEAVY_ATOM_COUNT>
21

> <PUBCHEM_ATOM_DEF_STEREO_COUNT>
0

> <PUBCHEM_ATOM_UDEF_STEREO_COUNT>
0

> <PUBCHEM_BOND_DEF_STEREO_COUNT>
0

> <PUBCHEM_BOND_UDEF_STEREO_COUNT>
0

> <PUBCHEM_ISOTOPIC_ATOM_COUNT>
0

> <PUBCHEM_COMPONENT_COUNT>
1

> <PUBCHEM_CACTVS_TAUTO_COUNT>
7

> <PUBCHEM_COORDINATE_TYPE>
1
5
255

> <PUBCHEM_BONDANNOTATIONS>
10  11  8
12  16  8
13  18  8
16  18  8
6  13  8
6  7  8
6  8  8
7  9  8
8  10  8
8  12  8
9  11  8

$$$$

