   Color/Form
        CRYSTALS
   from [1]HSDB

   Melting Point
        168-169 DEG C
   from [2]HSDB

   Solubilities
        PRACTICALLY INSOL IN WATER; VERY SOL IN METHANOL, ETHANOL,
   CHLOROFORM, ACETONE, DILUTE SULFURIC ACID
   from [3]HSDB

   Other Chemical/Physical Properties

     * DECOMPOSES @ 225 DEG C; ESTIMATED PK: 5-5.5
     * CRYSTALS; MP: 298-302 DEG C; SOL IN CHLOROFORM, DIMETHYLFORMAMIDE,
       HOT PROPYLENE GLYCOL; IN WATER @ 20 DEG C 0.1% /CALCIUM SALT/
     * VERY FREELY SOL IN WATER, METHANOL, ETHANOL; PRACTICALLY INSOL IN
       ACETONE, ETHER; SOLUBILITY IN DIMETHYLFORMAMIDE & DIMETHYL
       SULFOXIDE ABOUT 33 G/100 ML; IN DIMETHYLACETAMIDE ABOUT 66 G/100
       ML; LEAFLETS FROM WATER + ACETONE; MP: 303-304 DEG C (DECOMP WITH
       EVOLUTION OF IODINE); BITTER LEAFLETS /SODIUM SALT/
     * ODORLESS; CHALKY, VERY BITTER TASTE /CALCIUM SALT/
     * ODORLESS /SODIUM SALT/
     * WHITE TO OFF-WHITE, CRYSTALLINE POWDER /CALCIUM & SODIUM SALTS/
     * SLIGHTLY SOL IN ETHANOL; METHANOL /CALCIUM SALT/
     * VERY SOL IN CHLOROFORM /SODIUM SALT/

   from [4]HSDB

   Computed Properties
   Molecular Weight                  597.95723 [g/mol]
   Molecular Formula                 C[12]H[13]I[3]N[2]O[2]
   XLogP3-AA                         3.3
   H-Bond Donor                      1
   H-Bond Acceptor                   3
   Rotatable Bond Count              5
   Exact Mass                        597.811122
   MonoIsotopic Mass                 597.811122
   Topological Polar Surface Area    52.9
   Heavy Atom Count                  19
   Formal Charge                     0
   Complexity                        339
   Isotope Atom Count                0
   Defined Atom Stereocenter Count   0
   Undefined Atom Stereocenter Count 0
   Defined Bond Stereocenter Count   0
   Undefined Bond Stereocenter Count 0
   Covalently-Bonded Unit Count      1
   Feature 3D Acceptor Count         2
   Feature 3D Anion Count            1
   Feature 3D Cation Count           1
   Feature 3D Hydrophobe Count       3
   Feature 3D Ring Count             1
   Effective Rotor Count             5
   Conformer Sampling RMSD           0.6
   CID Conformer Count               [5]16

References

   1. http://toxnet.nlm.nih.gov/cgi-bin/sis/search/r?dbs+hsdb:@term+@rn+@rel+5587-89-3
   2. http://toxnet.nlm.nih.gov/cgi-bin/sis/search/r?dbs+hsdb:@term+@rn+@rel+5587-89-3
   3. http://toxnet.nlm.nih.gov/cgi-bin/sis/search/r?dbs+hsdb:@term+@rn+@rel+5587-89-3
   4. http://toxnet.nlm.nih.gov/cgi-bin/sis/search/r?dbs+hsdb:@term+@rn+@rel+5587-89-3
   5. http://pubchem.ncbi.nlm.nih.gov/vw3d/vw3d.cgi?cid=5241
