8548
  -OEChem-06261202532D

 48 51  0     1  0  0  0  0  0999 V2000
    7.2215    0.0065    0.0000 O   0  0  0  0  0  0  0  0  0  0  0  0
    9.8856    1.4823    0.0000 O   0  0  0  0  0  0  0  0  0  0  0  0
    4.7979   -1.2092    0.0000 N   0  0  0  0  0  0  0  0  0  0  0  0
    6.3555    3.5065    0.0000 N   0  0  0  0  0  0  0  0  0  0  0  0
    3.9318   -1.7092    0.0000 C   0  0  0  0  0  0  0  0  0  0  0  0
    5.4895    0.0065    0.0000 C   0  0  3  0  0  0  0  0  0  0  0  0
    4.5235    0.2653    0.0000 C   0  0  0  0  0  0  0  0  0  0  0  0
    2.0000   -1.1916    0.0000 C   0  0  0  0  0  0  0  0  0  0  0  0
    4.6907   -3.5412    0.0000 C   0  0  0  0  0  0  0  0  0  0  0  0
    2.2588   -0.2256    0.0000 C   0  0  0  0  0  0  0  0  0  0  0  0
    5.5567   -3.0412    0.0000 C   0  0  0  0  0  0  0  0  0  0  0  0
    6.3555    0.5065    0.0000 C   0  0  3  0  0  0  0  0  0  0  0  0
    3.0658   -2.2092    0.0000 C   0  0  0  0  0  0  0  0  0  0  0  0
    6.3555    1.5065    0.0000 C   0  0  0  0  0  0  0  0  0  0  0  0
    3.0658   -3.2092    0.0000 C   0  0  0  0  0  0  0  0  0  0  0  0
    7.2215    2.0065    0.0000 C   0  0  0  0  0  0  0  0  0  0  0  0
    5.4895    2.0065    0.0000 C   0  0  0  0  0  0  0  0  0  0  0  0
    7.2215    3.0065    0.0000 C   0  0  0  0  0  0  0  0  0  0  0  0
    8.1155    1.4718    0.0000 C   0  0  0  0  0  0  0  0  0  0  0  0
    5.4895    3.0065    0.0000 C   0  0  0  0  0  0  0  0  0  0  0  0
    8.1155    3.5412    0.0000 C   0  0  0  0  0  0  0  0  0  0  0  0
    9.0215    1.9857    0.0000 C   0  0  0  0  0  0  0  0  0  0  0  0
    9.0215    3.0273    0.0000 C   0  0  0  0  0  0  0  0  0  0  0  0
   10.7536    1.9790    0.0000 C   0  0  0  0  0  0  0  0  0  0  0  0
    5.9293   -0.4305    0.0000 H   0  0  0  0  0  0  0  0  0  0  0  0
    4.6899    0.8626    0.0000 H   0  0  0  0  0  0  0  0  0  0  0  0
    3.9279    0.4375    0.0000 H   0  0  0  0  0  0  0  0  0  0  0  0
    4.1288   -3.8032    0.0000 H   0  0  0  0  0  0  0  0  0  0  0  0
    4.9770   -4.0911    0.0000 H   0  0  0  0  0  0  0  0  0  0  0  0
    1.4011   -1.0311    0.0000 H   0  0  0  0  0  0  0  0  0  0  0  0
    1.8395   -1.7904    0.0000 H   0  0  0  0  0  0  0  0  0  0  0  0
    5.8430   -3.5911    0.0000 H   0  0  0  0  0  0  0  0  0  0  0  0
    6.1186   -2.7791    0.0000 H   0  0  0  0  0  0  0  0  0  0  0  0
    2.4619    0.3602    0.0000 H   0  0  0  0  0  0  0  0  0  0  0  0
    1.6661   -0.0438    0.0000 H   0  0  0  0  0  0  0  0  0  0  0  0
    6.3555   -0.1135    0.0000 H   0  0  0  0  0  0  0  0  0  0  0  0
    2.5289   -1.8992    0.0000 H   0  0  0  0  0  0  0  0  0  0  0  0
    2.5289   -3.5192    0.0000 H   0  0  0  0  0  0  0  0  0  0  0  0
    3.6028   -3.5192    0.0000 H   0  0  0  0  0  0  0  0  0  0  0  0
    7.2215   -0.6135    0.0000 H   0  0  0  0  0  0  0  0  0  0  0  0
    4.9525    1.6965    0.0000 H   0  0  0  0  0  0  0  0  0  0  0  0
    8.1083    0.8519    0.0000 H   0  0  0  0  0  0  0  0  0  0  0  0
    4.9525    3.3165    0.0000 H   0  0  0  0  0  0  0  0  0  0  0  0
    8.1083    4.1611    0.0000 H   0  0  0  0  0  0  0  0  0  0  0  0
    9.5573    3.3394    0.0000 H   0  0  0  0  0  0  0  0  0  0  0  0
   11.0615    1.4409    0.0000 H   0  0  0  0  0  0  0  0  0  0  0  0
   11.2917    2.2869    0.0000 H   0  0  0  0  0  0  0  0  0  0  0  0
   10.4456    2.5171    0.0000 H   0  0  0  0  0  0  0  0  0  0  0  0
  1 12  1  0  0  0  0
  1 40  1  0  0  0  0
  2 22  1  0  0  0  0
  2 24  1  0  0  0  0
  3  6  1  0  0  0  0
  3 10  1  0  0  0  0
  3 11  1  0  0  0  0
  4 18  2  0  0  0  0
  4 20  1  0  0  0  0
  5  7  1  0  0  0  0
  5  8  1  0  0  0  0
  5  9  1  0  0  0  0
  5 13  1  0  0  0  0
  6  7  1  0  0  0  0
  6 12  1  0  0  0  0
  6 25  1  0  0  0  0
  7 26  1  0  0  0  0
  7 27  1  0  0  0  0
  8 10  1  0  0  0  0
  8 30  1  0  0  0  0
  8 31  1  0  0  0  0
  9 11  1  0  0  0  0
  9 28  1  0  0  0  0
  9 29  1  0  0  0  0
 10 34  1  0  0  0  0
 10 35  1  0  0  0  0
 11 32  1  0  0  0  0
 11 33  1  0  0  0  0
 12 14  1  0  0  0  0
 12 36  1  0  0  0  0
 13 15  2  0  0  0  0
 13 37  1  0  0  0  0
 14 16  2  0  0  0  0
 14 17  1  0  0  0  0
 15 38  1  0  0  0  0
 15 39  1  0  0  0  0
 16 18  1  0  0  0  0
 16 19  1  0  0  0  0
 17 20  2  0  0  0  0
 17 41  1  0  0  0  0
 18 21  1  0  0  0  0
 19 22  2  0  0  0  0
 19 42  1  0  0  0  0
 20 43  1  0  0  0  0
 21 23  2  0  0  0  0
 21 44  1  0  0  0  0
 22 23  1  0  0  0  0
 23 45  1  0  0  0  0
 24 46  1  0  0  0  0
 24 47  1  0  0  0  0
 24 48  1  0  0  0  0
M  END
> <PUBCHEM_COMPOUND_CID>
8548

> <PUBCHEM_COMPOUND_CANONICALIZED>
1

> <PUBCHEM_CACTVS_COMPLEXITY>
461

> <PUBCHEM_CACTVS_HBOND_ACCEPTOR>
4

> <PUBCHEM_CACTVS_HBOND_DONOR>
1

> <PUBCHEM_CACTVS_ROTATABLE_BOND>
4

> <PUBCHEM_CACTVS_SUBSKEYS>
AAADceB7MAAAAAAAAAAAAAAAAAAAAAAAAAA8WLFiAAAAAACx8AAAHgAACAAADjzhngY+xvMIFgCgAzRnRACCiCAxIiAI2CA+bJgONuLEsZuEcChkwBHY+Aew4PwPgEABAAACAAAAgAIAAAQAAAAAAAAAAA==

> <PUBCHEM_IUPAC_OPENEYE_NAME>
(6-methoxy-4-quinolyl)-(4-vinylquinuclidin-2-yl)methanol

> <PUBCHEM_IUPAC_CAS_NAME>
(4-ethenyl-1-azabicyclo[2.2.2]octan-2-yl)-(6-methoxy-4-quinolinyl)methanol

> <PUBCHEM_IUPAC_NAME>
(4-ethenyl-1-azabicyclo[2.2.2]octan-2-yl)-(6-methoxyquinolin-4-yl)methanol

> <PUBCHEM_IUPAC_SYSTEMATIC_NAME>
(4-ethenyl-1-azabicyclo[2.2.2]octan-2-yl)-(6-methoxyquinolin-4-yl)methanol

> <PUBCHEM_IUPAC_TRADITIONAL_NAME>
(6-methoxy-4-quinolyl)-(4-vinylquinuclidin-2-yl)methanol

> <PUBCHEM_IUPAC_INCHI>
InChI=1S/C20H24N2O2/c1-3-20-7-10-22(11-8-20)18(13-20)19(23)15-6-9-21-17-5-4-14(24-2)12-16(15)17/h3-6,9,12,18-19,23H,1,7-8,10-11,13H2,2H3

> <PUBCHEM_IUPAC_INCHIKEY>
FNBBFRCDCVFRON-UHFFFAOYSA-N

> <PUBCHEM_XLOGP3>
3

> <PUBCHEM_EXACT_MASS>
324.183778

> <PUBCHEM_MOLECULAR_FORMULA>
C20H24N2O2

> <PUBCHEM_MOLECULAR_WEIGHT>
324.41676

> <PUBCHEM_OPENEYE_CAN_SMILES>
COC1=CC2=C(C=CN=C2C=C1)C(C3CC4(CCN3CC4)C=C)O

> <PUBCHEM_OPENEYE_ISO_SMILES>
COC1=CC2=C(C=CN=C2C=C1)C(C3CC4(CCN3CC4)C=C)O

> <PUBCHEM_CACTVS_TPSA>
45.6

> <PUBCHEM_MONOISOTOPIC_WEIGHT>
324.183778

> <PUBCHEM_TOTAL_CHARGE>
0

> <PUBCHEM_HEAVY_ATOM_COUNT>
24

> <PUBCHEM_ATOM_DEF_STEREO_COUNT>
0

> <PUBCHEM_ATOM_UDEF_STEREO_COUNT>
2

> <PUBCHEM_BOND_DEF_STEREO_COUNT>
0

> <PUBCHEM_BOND_UDEF_STEREO_COUNT>
0

> <PUBCHEM_ISOTOPIC_ATOM_COUNT>
0

> <PUBCHEM_COMPONENT_COUNT>
1

> <PUBCHEM_CACTVS_TAUTO_COUNT>
1

> <PUBCHEM_COORDINATE_TYPE>
1
5
255

> <PUBCHEM_BONDANNOTATIONS>
12  1  3
14  16  8
14  17  8
16  18  8
16  19  8
17  20  8
18  21  8
19  22  8
21  23  8
22  23  8
4  18  8
4  20  8
6  7  3

$$$$

