   Color/Form

     * Colorless liquid
     * Yellow oil

   from [1]HSDB

   Boiling Point
        106 deg C @ 0.01 mm Hg
   from [2]HSDB

   Melting Point
        <-20 deg C
   from [3]HSDB

   Density/Specific Gravity
        1.289 g/cu cm @ 20 deg C
   from [4]HSDB

   Octanol/Water Partition Coefficient
        log Kow = -0.74 @ 21 deg C
   from [5]HSDB

   Solubilities

     * Soluble in common organic solvents except petroleum ether
     * Completely miscible with water.

   from [6]HSDB

   Spectral Properties

     * INDEX OF REFRACTION: 1.5216 @ 20 DEG C/D
     * Intense mass spectral peaks: 109 m/z, 125 m/z, 169 m/z, 218 m/z,
       246 m/z

   from [7]HSDB

   Vapor Pressure
        3.8 mPa (2.85X10-5 mm Hg) @ 20 deg C
   from [8]HSDB

   Other Chemical/Physical Properties
        ...Rapidly hydrolyzed in alkaline media.
   from [9]HSDB

   Computed Properties
   Molecular Weight                  246.284662 [g/mol]
   Molecular Formula                 C[6]H[15]O[4]PS[2]
   XLogP3-AA                         -0.7
   H-Bond Donor                      0
   H-Bond Acceptor                   6
   Rotatable Bond Count              7
   Exact Mass                        246.014938
   MonoIsotopic Mass                 246.014938
   Topological Polar Surface Area    97.1
   Heavy Atom Count                  13
   Formal Charge                     0
   Complexity                        201
   Isotope Atom Count                0
   Defined Atom Stereocenter Count   0
   Undefined Atom Stereocenter Count 1
   Defined Bond Stereocenter Count   0
   Undefined Bond Stereocenter Count 0
   Covalently-Bonded Unit Count      1
   Feature 3D Acceptor Count         2
   Effective Rotor Count             7
   Conformer Sampling RMSD           0.8
   CID Conformer Count               [10]175

References

   1. http://toxnet.nlm.nih.gov/cgi-bin/sis/search/r?dbs+hsdb:@term+@rn+@rel+301-12-2
   2. http://toxnet.nlm.nih.gov/cgi-bin/sis/search/r?dbs+hsdb:@term+@rn+@rel+301-12-2
   3. http://toxnet.nlm.nih.gov/cgi-bin/sis/search/r?dbs+hsdb:@term+@rn+@rel+301-12-2
   4. http://toxnet.nlm.nih.gov/cgi-bin/sis/search/r?dbs+hsdb:@term+@rn+@rel+301-12-2
   5. http://toxnet.nlm.nih.gov/cgi-bin/sis/search/r?dbs+hsdb:@term+@rn+@rel+301-12-2
   6. http://toxnet.nlm.nih.gov/cgi-bin/sis/search/r?dbs+hsdb:@term+@rn+@rel+301-12-2
   7. http://toxnet.nlm.nih.gov/cgi-bin/sis/search/r?dbs+hsdb:@term+@rn+@rel+301-12-2
   8. http://toxnet.nlm.nih.gov/cgi-bin/sis/search/r?dbs+hsdb:@term+@rn+@rel+301-12-2
   9. http://toxnet.nlm.nih.gov/cgi-bin/sis/search/r?dbs+hsdb:@term+@rn+@rel+301-12-2
  10. http://pubchem.ncbi.nlm.nih.gov/vw3d/vw3d.cgi?cid=4618
