253935
  -OEChem-07051213062D

 53 55  0     0  0  0  0  0  0999 V2000
    7.1962    2.0670    0.0000 O   0  0  0  0  0  0  0  0  0  0  0  0
   10.7263    2.0911    0.0000 O   0  0  0  0  0  0  0  0  0  0  0  0
    2.8660   -1.4330    0.0000 O   0  0  0  0  0  0  0  0  0  0  0  0
   11.5981    0.5945    0.0000 O   0  0  0  0  0  0  0  0  0  0  0  0
    6.3301    1.5670    0.0000 C   0  0  0  0  0  0  0  0  0  0  0  0
    6.3301    0.5670    0.0000 C   0  0  0  0  0  0  0  0  0  0  0  0
    7.1962    0.0670    0.0000 C   0  0  0  0  0  0  0  0  0  0  0  0
    8.0622    0.5670    0.0000 C   0  0  0  0  0  0  0  0  0  0  0  0
    7.1962   -0.9330    0.0000 C   0  0  0  0  0  0  0  0  0  0  0  0
    5.8301    2.4330    0.0000 C   0  0  0  0  0  0  0  0  0  0  0  0
    5.3301    1.5670    0.0000 C   0  0  0  0  0  0  0  0  0  0  0  0
    8.0622    1.5670    0.0000 C   0  0  0  0  0  0  0  0  0  0  0  0
    5.4641    0.0670    0.0000 C   0  0  0  0  0  0  0  0  0  0  0  0
    8.0622   -1.4330    0.0000 C   0  0  0  0  0  0  0  0  0  0  0  0
    8.9561    0.0323    0.0000 C   0  0  0  0  0  0  0  0  0  0  0  0
    8.9561    2.1016    0.0000 C   0  0  0  0  0  0  0  0  0  0  0  0
    4.5981    0.5670    0.0000 C   0  0  0  0  0  0  0  0  0  0  0  0
    5.4641   -0.9330    0.0000 C   0  0  0  0  0  0  0  0  0  0  0  0
    9.8622    1.5878    0.0000 C   0  0  0  0  0  0  0  0  0  0  0  0
    9.8622    0.5462    0.0000 C   0  0  0  0  0  0  0  0  0  0  0  0
    8.0622   -2.4330    0.0000 C   0  0  0  0  0  0  0  0  0  0  0  0
    3.7320    0.0670    0.0000 C   0  0  0  0  0  0  0  0  0  0  0  0
    4.5981   -1.4330    0.0000 C   0  0  0  0  0  0  0  0  0  0  0  0
    3.7320   -0.9330    0.0000 C   0  0  0  0  0  0  0  0  0  0  0  0
   11.5942    1.5945    0.0000 C   0  0  0  0  0  0  0  0  0  0  0  0
    2.0000   -0.9330    0.0000 C   0  0  0  0  0  0  0  0  0  0  0  0
   12.4583    2.0978    0.0000 C   0  0  0  0  0  0  0  0  0  0  0  0
    6.5856   -0.8254    0.0000 H   0  0  0  0  0  0  0  0  0  0  0  0
    6.9841   -1.5156    0.0000 H   0  0  0  0  0  0  0  0  0  0  0  0
    6.3671    2.7430    0.0000 H   0  0  0  0  0  0  0  0  0  0  0  0
    5.5201    2.9700    0.0000 H   0  0  0  0  0  0  0  0  0  0  0  0
    5.2932    2.1230    0.0000 H   0  0  0  0  0  0  0  0  0  0  0  0
    5.3301    2.1870    0.0000 H   0  0  0  0  0  0  0  0  0  0  0  0
    4.7101    1.5670    0.0000 H   0  0  0  0  0  0  0  0  0  0  0  0
    5.3301    0.9470    0.0000 H   0  0  0  0  0  0  0  0  0  0  0  0
    8.6728   -1.5407    0.0000 H   0  0  0  0  0  0  0  0  0  0  0  0
    8.2742   -0.8504    0.0000 H   0  0  0  0  0  0  0  0  0  0  0  0
    8.9490   -0.5876    0.0000 H   0  0  0  0  0  0  0  0  0  0  0  0
    8.9490    2.7216    0.0000 H   0  0  0  0  0  0  0  0  0  0  0  0
    4.5981    1.1870    0.0000 H   0  0  0  0  0  0  0  0  0  0  0  0
    6.0010   -1.2430    0.0000 H   0  0  0  0  0  0  0  0  0  0  0  0
   10.3979    0.2341    0.0000 H   0  0  0  0  0  0  0  0  0  0  0  0
    7.4422   -2.4330    0.0000 H   0  0  0  0  0  0  0  0  0  0  0  0
    8.0622   -3.0530    0.0000 H   0  0  0  0  0  0  0  0  0  0  0  0
    8.6822   -2.4330    0.0000 H   0  0  0  0  0  0  0  0  0  0  0  0
    3.1951    0.3770    0.0000 H   0  0  0  0  0  0  0  0  0  0  0  0
    4.5981   -2.0530    0.0000 H   0  0  0  0  0  0  0  0  0  0  0  0
    2.3100   -0.3961    0.0000 H   0  0  0  0  0  0  0  0  0  0  0  0
    1.4631   -0.6230    0.0000 H   0  0  0  0  0  0  0  0  0  0  0  0
    1.6900   -1.4700    0.0000 H   0  0  0  0  0  0  0  0  0  0  0  0
   12.7704    1.5621    0.0000 H   0  0  0  0  0  0  0  0  0  0  0  0
   12.9941    2.4099    0.0000 H   0  0  0  0  0  0  0  0  0  0  0  0
   12.1462    2.6336    0.0000 H   0  0  0  0  0  0  0  0  0  0  0  0
  1  5  1  0  0  0  0
  1 12  1  0  0  0  0
  2 19  1  0  0  0  0
  2 25  1  0  0  0  0
  3 24  1  0  0  0  0
  3 26  1  0  0  0  0
  4 25  2  0  0  0  0
  5  6  1  0  0  0  0
  5 10  1  0  0  0  0
  5 11  1  0  0  0  0
  6  7  2  0  0  0  0
  6 13  1  0  0  0  0
  7  8  1  0  0  0  0
  7  9  1  0  0  0  0
  8 12  2  0  0  0  0
  8 15  1  0  0  0  0
  9 14  1  0  0  0  0
  9 28  1  0  0  0  0
  9 29  1  0  0  0  0
 10 30  1  0  0  0  0
 10 31  1  0  0  0  0
 10 32  1  0  0  0  0
 11 33  1  0  0  0  0
 11 34  1  0  0  0  0
 11 35  1  0  0  0  0
 12 16  1  0  0  0  0
 13 17  2  0  0  0  0
 13 18  1  0  0  0  0
 14 21  1  0  0  0  0
 14 36  1  0  0  0  0
 14 37  1  0  0  0  0
 15 20  2  0  0  0  0
 15 38  1  0  0  0  0
 16 19  2  0  0  0  0
 16 39  1  0  0  0  0
 17 22  1  0  0  0  0
 17 40  1  0  0  0  0
 18 23  2  0  0  0  0
 18 41  1  0  0  0  0
 19 20  1  0  0  0  0
 20 42  1  0  0  0  0
 21 43  1  0  0  0  0
 21 44  1  0  0  0  0
 21 45  1  0  0  0  0
 22 24  2  0  0  0  0
 22 46  1  0  0  0  0
 23 24  1  0  0  0  0
 23 47  1  0  0  0  0
 25 27  1  0  0  0  0
 26 48  1  0  0  0  0
 26 49  1  0  0  0  0
 26 50  1  0  0  0  0
 27 51  1  0  0  0  0
 27 52  1  0  0  0  0
 27 53  1  0  0  0  0
M  END
> <PUBCHEM_COMPOUND_CID>
253935

> <PUBCHEM_COMPOUND_CANONICALIZED>
1

> <PUBCHEM_CACTVS_COMPLEXITY>
557

> <PUBCHEM_CACTVS_HBOND_ACCEPTOR>
4

> <PUBCHEM_CACTVS_HBOND_DONOR>
0

> <PUBCHEM_CACTVS_ROTATABLE_BOND>
6

> <PUBCHEM_CACTVS_SUBSKEYS>
AAADceB4OAAAAAAAAAAAAAAAAAAAAAAAAAAwYIAAAAAAAACBQAAAGgAAAAAADESAmAIyDoAABACIAiDSCAACCAAgIAAIiAAGCIgMJyKEMRqCOiClwBUIqAeA4OwOIAAACAAIAABAAAAQABAAAAAAAAAAAA==

> <PUBCHEM_IUPAC_OPENEYE_NAME>
[3-(4-methoxyphenyl)-2,2-dimethyl-4-propyl-chromen-7-yl] acetate

> <PUBCHEM_IUPAC_CAS_NAME>
acetic acid [3-(4-methoxyphenyl)-2,2-dimethyl-4-propyl-1-benzopyran-7-yl] ester

> <PUBCHEM_IUPAC_NAME>
[3-(4-methoxyphenyl)-2,2-dimethyl-4-propylchromen-7-yl] acetate

> <PUBCHEM_IUPAC_SYSTEMATIC_NAME>
[3-(4-methoxyphenyl)-2,2-dimethyl-4-propyl-chromen-7-yl] ethanoate

> <PUBCHEM_IUPAC_TRADITIONAL_NAME>
acetic acid [3-(4-methoxyphenyl)-2,2-dimethyl-4-propyl-chromen-7-yl] ester

> <PUBCHEM_IUPAC_INCHI>
InChI=1S/C23H26O4/c1-6-7-20-19-13-12-18(26-15(2)24)14-21(19)27-23(3,4)22(20)16-8-10-17(25-5)11-9-16/h8-14H,6-7H2,1-5H3

> <PUBCHEM_IUPAC_INCHIKEY>
NSETTWBXUXKUOF-UHFFFAOYSA-N

> <PUBCHEM_XLOGP3_AA>
4.6

> <PUBCHEM_EXACT_MASS>
366.183109

> <PUBCHEM_MOLECULAR_FORMULA>
C23H26O4

> <PUBCHEM_MOLECULAR_WEIGHT>
366.45014

> <PUBCHEM_OPENEYE_CAN_SMILES>
CCCC1=C(C(OC2=C1C=CC(=C2)OC(=O)C)(C)C)C3=CC=C(C=C3)OC

> <PUBCHEM_OPENEYE_ISO_SMILES>
CCCC1=C(C(OC2=C1C=CC(=C2)OC(=O)C)(C)C)C3=CC=C(C=C3)OC

> <PUBCHEM_CACTVS_TPSA>
44.8

> <PUBCHEM_MONOISOTOPIC_WEIGHT>
366.183109

> <PUBCHEM_TOTAL_CHARGE>
0

> <PUBCHEM_HEAVY_ATOM_COUNT>
27

> <PUBCHEM_ATOM_DEF_STEREO_COUNT>
0

> <PUBCHEM_ATOM_UDEF_STEREO_COUNT>
0

> <PUBCHEM_BOND_DEF_STEREO_COUNT>
0

> <PUBCHEM_BOND_UDEF_STEREO_COUNT>
0

> <PUBCHEM_ISOTOPIC_ATOM_COUNT>
0

> <PUBCHEM_COMPONENT_COUNT>
1

> <PUBCHEM_CACTVS_TAUTO_COUNT>
1

> <PUBCHEM_COORDINATE_TYPE>
1
5
255

> <PUBCHEM_BONDANNOTATIONS>
12  16  8
13  17  8
13  18  8
15  20  8
16  19  8
17  22  8
18  23  8
19  20  8
22  24  8
23  24  8
8  12  8
8  15  8

$$$$

