96942
  -OEChem-07051212572D

 28 30  0     0  0  0  0  0  0999 V2000
    6.6498    1.9147    0.0000 O   0  0  0  0  0  0  0  0  0  0  0  0
    8.3780   -1.3408    0.0000 O   0  0  0  0  0  0  0  0  0  0  0  0
    4.5274    1.3156    0.0000 N   0  0  0  0  0  0  0  0  0  0  0  0
    5.0274   -0.2232    0.0000 C   0  0  0  0  0  0  0  0  0  0  0  0
    5.3364    0.7278    0.0000 C   0  0  0  0  0  0  0  0  0  0  0  0
    4.0274   -0.2232    0.0000 C   0  0  0  0  0  0  0  0  0  0  0  0
    3.7183    0.7278    0.0000 C   0  0  0  0  0  0  0  0  0  0  0  0
    6.3518    0.9601    0.0000 C   0  0  0  0  0  0  0  0  0  0  0  0
    5.7123   -1.0079    0.0000 C   0  0  0  0  0  0  0  0  0  0  0  0
    3.3424   -1.0079    0.0000 C   0  0  0  0  0  0  0  0  0  0  0  0
    6.7328   -0.7992    0.0000 C   0  0  0  0  0  0  0  0  0  0  0  0
    2.7029    0.9601    0.0000 C   0  0  0  0  0  0  0  0  0  0  0  0
    7.0547    0.1914    0.0000 C   0  0  0  0  0  0  0  0  0  0  0  0
    2.3219   -0.7992    0.0000 C   0  0  0  0  0  0  0  0  0  0  0  0
    2.0000    0.1914    0.0000 C   0  0  0  0  0  0  0  0  0  0  0  0
    7.3991   -1.5450    0.0000 C   0  0  0  0  0  0  0  0  0  0  0  0
    7.6255    2.1339    0.0000 C   0  0  0  0  0  0  0  0  0  0  0  0
    4.5274    1.9356    0.0000 H   0  0  0  0  0  0  0  0  0  0  0  0
    5.5139   -1.5954    0.0000 H   0  0  0  0  0  0  0  0  0  0  0  0
    3.5408   -1.5954    0.0000 H   0  0  0  0  0  0  0  0  0  0  0  0
    2.5182    1.5519    0.0000 H   0  0  0  0  0  0  0  0  0  0  0  0
    7.6607    0.3227    0.0000 H   0  0  0  0  0  0  0  0  0  0  0  0
    1.9088   -1.2616    0.0000 H   0  0  0  0  0  0  0  0  0  0  0  0
    1.3940    0.3227    0.0000 H   0  0  0  0  0  0  0  0  0  0  0  0
    7.2052   -2.1339    0.0000 H   0  0  0  0  0  0  0  0  0  0  0  0
    7.7614    1.5290    0.0000 H   0  0  0  0  0  0  0  0  0  0  0  0
    8.2304    2.2698    0.0000 H   0  0  0  0  0  0  0  0  0  0  0  0
    7.4896    2.7388    0.0000 H   0  0  0  0  0  0  0  0  0  0  0  0
  1  8  1  0  0  0  0
  1 17  1  0  0  0  0
  2 16  2  0  0  0  0
  3  5  1  0  0  0  0
  3  7  1  0  0  0  0
  3 18  1  0  0  0  0
  4  5  2  0  0  0  0
  4  6  1  0  0  0  0
  4  9  1  0  0  0  0
  5  8  1  0  0  0  0
  6  7  1  0  0  0  0
  6 10  2  0  0  0  0
  7 12  2  0  0  0  0
  8 13  2  0  0  0  0
  9 11  2  0  0  0  0
  9 19  1  0  0  0  0
 10 14  1  0  0  0  0
 10 20  1  0  0  0  0
 11 13  1  0  0  0  0
 11 16  1  0  0  0  0
 12 15  1  0  0  0  0
 12 21  1  0  0  0  0
 13 22  1  0  0  0  0
 14 15  2  0  0  0  0
 14 23  1  0  0  0  0
 15 24  1  0  0  0  0
 16 25  1  0  0  0  0
 17 26  1  0  0  0  0
 17 27  1  0  0  0  0
 17 28  1  0  0  0  0
M  END
> <PUBCHEM_COMPOUND_CID>
96942

> <PUBCHEM_COMPOUND_CANONICALIZED>
1

> <PUBCHEM_CACTVS_COMPLEXITY>
294

> <PUBCHEM_CACTVS_HBOND_ACCEPTOR>
2

> <PUBCHEM_CACTVS_HBOND_DONOR>
1

> <PUBCHEM_CACTVS_ROTATABLE_BOND>
2

> <PUBCHEM_CACTVS_SUBSKEYS>
AAADccByMAAAAAAAAAAAAAAAAAAAAWAAAAAwYAAAAAAAAFgB/AAAHgAQAAAADAyhngIyxvLJlACoAyxyxASCiCAlYiAImSE3bNgOJvLEtZuFMShk0BHY6Yea2fGeiAADAAACEAAQAAYAAAQgAAAAAAAAAA==

> <PUBCHEM_IUPAC_OPENEYE_NAME>
1-methoxy-9H-carbazole-3-carbaldehyde

> <PUBCHEM_IUPAC_CAS_NAME>
1-methoxy-9H-carbazole-3-carboxaldehyde

> <PUBCHEM_IUPAC_NAME>
1-methoxy-9H-carbazole-3-carbaldehyde

> <PUBCHEM_IUPAC_SYSTEMATIC_NAME>
1-methoxy-9H-carbazole-3-carbaldehyde

> <PUBCHEM_IUPAC_TRADITIONAL_NAME>
1-methoxy-9H-carbazole-3-carbaldehyde

> <PUBCHEM_IUPAC_INCHI>
InChI=1S/C14H11NO2/c1-17-13-7-9(8-16)6-11-10-4-2-3-5-12(10)15-14(11)13/h2-8,15H,1H3

> <PUBCHEM_IUPAC_INCHIKEY>
FWNZQNAJETXQPP-UHFFFAOYSA-N

> <PUBCHEM_XLOGP3_AA>
2.8

> <PUBCHEM_EXACT_MASS>
225.078979

> <PUBCHEM_MOLECULAR_FORMULA>
C14H11NO2

> <PUBCHEM_MOLECULAR_WEIGHT>
225.24264

> <PUBCHEM_OPENEYE_CAN_SMILES>
COC1=C2C(=CC(=C1)C=O)C3=CC=CC=C3N2

> <PUBCHEM_OPENEYE_ISO_SMILES>
COC1=C2C(=CC(=C1)C=O)C3=CC=CC=C3N2

> <PUBCHEM_CACTVS_TPSA>
42.1

> <PUBCHEM_MONOISOTOPIC_WEIGHT>
225.078979

> <PUBCHEM_TOTAL_CHARGE>
0

> <PUBCHEM_HEAVY_ATOM_COUNT>
17

> <PUBCHEM_ATOM_DEF_STEREO_COUNT>
0

> <PUBCHEM_ATOM_UDEF_STEREO_COUNT>
0

> <PUBCHEM_BOND_DEF_STEREO_COUNT>
0

> <PUBCHEM_BOND_UDEF_STEREO_COUNT>
0

> <PUBCHEM_ISOTOPIC_ATOM_COUNT>
0

> <PUBCHEM_COMPONENT_COUNT>
1

> <PUBCHEM_CACTVS_TAUTO_COUNT>
4

> <PUBCHEM_COORDINATE_TYPE>
1
5
255

> <PUBCHEM_BONDANNOTATIONS>
10  14  8
11  13  8
12  15  8
14  15  8
3  5  8
3  7  8
4  5  8
4  6  8
4  9  8
5  8  8
6  10  8
6  7  8
7  12  8
8  13  8
9  11  8

$$$$

