253758
  -OEChem-07051213062D

 52 55  0     1  0  0  0  0  0999 V2000
    9.1493    1.4410    0.0000 O   0  0  0  0  0  0  0  0  0  0  0  0
    7.3931    0.5499    0.0000 C   0  0  1  0  0  0  0  0  0  0  0  0
    7.3931   -0.4501    0.0000 C   0  0  2  0  0  0  0  0  0  0  0  0
    6.5271   -0.9501    0.0000 C   0  0  1  0  0  0  0  0  0  0  0  0
    8.3393    0.8547    0.0000 C   0  0  2  0  0  0  0  0  0  0  0  0
    8.3393   -0.7548    0.0000 C   0  0  0  0  0  0  0  0  0  0  0  0
    6.5271    1.0499    0.0000 C   0  0  0  0  0  0  0  0  0  0  0  0
    5.6610   -0.4501    0.0000 C   0  0  2  0  0  0  0  0  0  0  0  0
    8.9229    0.0499    0.0000 C   0  0  0  0  0  0  0  0  0  0  0  0
    5.6610    0.5499    0.0000 C   0  0  0  0  0  0  0  0  0  0  0  0
    6.5431   -1.9916    0.0000 C   0  0  0  0  0  0  0  0  0  0  0  0
    7.3931    1.5499    0.0000 C   0  0  0  0  0  0  0  0  0  0  0  0
    8.0319    1.8062    0.0000 C   0  0  0  0  0  0  0  0  0  0  0  0
    4.7510   -0.9569    0.0000 C   0  0  0  0  0  0  0  0  0  0  0  0
    5.6451   -2.5193    0.0000 C   0  0  0  0  0  0  0  0  0  0  0  0
    4.7430   -1.9985    0.0000 C   0  0  0  0  0  0  0  0  0  0  0  0
    8.7023    2.5482    0.0000 C   0  0  0  0  0  0  0  0  0  0  0  0
    3.8242   -0.3928    0.0000 C   0  0  0  0  0  0  0  0  0  0  0  0
    3.8076   -2.5482    0.0000 C   0  0  0  0  0  0  0  0  0  0  0  0
    2.8763   -0.9208    0.0000 C   0  0  0  0  0  0  0  0  0  0  0  0
    2.8680   -2.0057    0.0000 C   0  0  0  0  0  0  0  0  0  0  0  0
    2.0000   -2.5024    0.0000 C   0  0  0  0  0  0  0  0  0  0  0  0
    7.4830   -1.2953    0.0000 H   0  0  0  0  0  0  0  0  0  0  0  0
    7.2664   -1.3694    0.0000 H   0  0  0  0  0  0  0  0  0  0  0  0
    8.0883   -1.3217    0.0000 H   0  0  0  0  0  0  0  0  0  0  0  0
    8.8767   -1.0640    0.0000 H   0  0  0  0  0  0  0  0  0  0  0  0
    6.9256    1.5249    0.0000 H   0  0  0  0  0  0  0  0  0  0  0  0
    6.1285    1.5249    0.0000 H   0  0  0  0  0  0  0  0  0  0  0  0
    6.3972   -0.0251    0.0000 H   0  0  0  0  0  0  0  0  0  0  0  0
    9.3838   -0.3648    0.0000 H   0  0  0  0  0  0  0  0  0  0  0  0
    9.3838    0.4647    0.0000 H   0  0  0  0  0  0  0  0  0  0  0  0
    5.4490    1.1325    0.0000 H   0  0  0  0  0  0  0  0  0  0  0  0
    5.0504    0.4423    0.0000 H   0  0  0  0  0  0  0  0  0  0  0  0
    6.7612   -2.5720    0.0000 H   0  0  0  0  0  0  0  0  0  0  0  0
    7.1523   -1.8761    0.0000 H   0  0  0  0  0  0  0  0  0  0  0  0
    8.0131    1.5499    0.0000 H   0  0  0  0  0  0  0  0  0  0  0  0
    7.3931    2.1699    0.0000 H   0  0  0  0  0  0  0  0  0  0  0  0
    6.7731    1.5499    0.0000 H   0  0  0  0  0  0  0  0  0  0  0  0
    7.6511    2.2955    0.0000 H   0  0  0  0  0  0  0  0  0  0  0  0
    7.4840    1.5161    0.0000 H   0  0  0  0  0  0  0  0  0  0  0  0
    5.2478   -2.9953    0.0000 H   0  0  0  0  0  0  0  0  0  0  0  0
    6.0460   -2.9922    0.0000 H   0  0  0  0  0  0  0  0  0  0  0  0
    9.7153    1.1879    0.0000 H   0  0  0  0  0  0  0  0  0  0  0  0
    9.1624    2.1326    0.0000 H   0  0  0  0  0  0  0  0  0  0  0  0
    9.1180    3.0083    0.0000 H   0  0  0  0  0  0  0  0  0  0  0  0
    8.2423    2.9639    0.0000 H   0  0  0  0  0  0  0  0  0  0  0  0
    3.8361    0.2271    0.0000 H   0  0  0  0  0  0  0  0  0  0  0  0
    3.8100   -3.1682    0.0000 H   0  0  0  0  0  0  0  0  0  0  0  0
    2.3430   -0.6046    0.0000 H   0  0  0  0  0  0  0  0  0  0  0  0
    1.6921   -1.9643    0.0000 H   0  0  0  0  0  0  0  0  0  0  0  0
    1.4619   -2.8103    0.0000 H   0  0  0  0  0  0  0  0  0  0  0  0
    2.3079   -3.0405    0.0000 H   0  0  0  0  0  0  0  0  0  0  0  0
  5  1  1  1  0  0  0
  1 43  1  0  0  0  0
  2  3  1  0  0  0  0
  2  5  1  0  0  0  0
  2  7  1  0  0  0  0
  2 12  1  1  0  0  0
  3  4  1  0  0  0  0
  3  6  1  0  0  0  0
  3 23  1  6  0  0  0
  4  8  1  0  0  0  0
  4 11  1  0  0  0  0
  4 24  1  1  0  0  0
  5  9  1  0  0  0  0
  5 13  1  0  0  0  0
  6  9  1  0  0  0  0
  6 25  1  0  0  0  0
  6 26  1  0  0  0  0
  7 10  1  0  0  0  0
  7 27  1  0  0  0  0
  7 28  1  0  0  0  0
  8 10  1  0  0  0  0
  8 14  1  0  0  0  0
  8 29  1  6  0  0  0
  9 30  1  0  0  0  0
  9 31  1  0  0  0  0
 10 32  1  0  0  0  0
 10 33  1  0  0  0  0
 11 15  1  0  0  0  0
 11 34  1  0  0  0  0
 11 35  1  0  0  0  0
 12 36  1  0  0  0  0
 12 37  1  0  0  0  0
 12 38  1  0  0  0  0
 13 17  1  0  0  0  0
 13 39  1  0  0  0  0
 13 40  1  0  0  0  0
 14 16  2  0  0  0  0
 14 18  1  0  0  0  0
 15 16  1  0  0  0  0
 15 41  1  0  0  0  0
 15 42  1  0  0  0  0
 16 19  1  0  0  0  0
 17 44  1  0  0  0  0
 17 45  1  0  0  0  0
 17 46  1  0  0  0  0
 18 20  2  0  0  0  0
 18 47  1  0  0  0  0
 19 21  2  0  0  0  0
 19 48  1  0  0  0  0
 20 21  1  0  0  0  0
 20 49  1  0  0  0  0
 21 22  1  0  0  0  0
 22 50  1  0  0  0  0
 22 51  1  0  0  0  0
 22 52  1  0  0  0  0
M  END
> <PUBCHEM_COMPOUND_CID>
253758

> <PUBCHEM_COMPOUND_CANONICALIZED>
1

> <PUBCHEM_CACTVS_COMPLEXITY>
432

> <PUBCHEM_CACTVS_HBOND_ACCEPTOR>
1

> <PUBCHEM_CACTVS_HBOND_DONOR>
1

> <PUBCHEM_CACTVS_ROTATABLE_BOND>
1

> <PUBCHEM_CACTVS_SUBSKEYS>
AAADceB4IAAAAAAAAAAAAAAAAAAAAYAAAAAwYMAAAAAAAGDBAAAAGgAACAAAD0SAmAAyAIAAAgCAAiBCAAACAAAgAAAIiAAAAIgIICKAERCAYAAkgAAIiAeAwPAPwAACAAAQAACAAAQAACAAAYAADAAAAA==

> <PUBCHEM_IUPAC_OPENEYE_NAME>
(8R,9S,13S,14S,17S)-17-ethyl-3,13-dimethyl-7,8,9,11,12,14,15,16-octahydro-6H-cyclopenta[a]phenanthren-17-ol

> <PUBCHEM_IUPAC_CAS_NAME>
(8R,9S,13S,14S,17S)-17-ethyl-3,13-dimethyl-7,8,9,11,12,14,15,16-octahydro-6H-cyclopenta[a]phenanthren-17-ol

> <PUBCHEM_IUPAC_NAME>
(8R,9S,13S,14S,17S)-17-ethyl-3,13-dimethyl-7,8,9,11,12,14,15,16-octahydro-6H-cyclopenta[a]phenanthren-17-ol

> <PUBCHEM_IUPAC_SYSTEMATIC_NAME>
(8R,9S,13S,14S,17S)-17-ethyl-3,13-dimethyl-7,8,9,11,12,14,15,16-octahydro-6H-cyclopenta[a]phenanthren-17-ol

> <PUBCHEM_IUPAC_TRADITIONAL_NAME>
(8R,9S,13S,14S,17S)-17-ethyl-3,13-dimethyl-7,8,9,11,12,14,15,16-octahydro-6H-cyclopenta[a]phenanthren-17-ol

> <PUBCHEM_IUPAC_INCHI>
InChI=1S/C21H30O/c1-4-21(22)12-10-19-18-8-6-15-13-14(2)5-7-16(15)17(18)9-11-20(19,21)3/h5,7,13,17-19,22H,4,6,8-12H2,1-3H3/t17-,18-,19+,20+,21+/m1/s1

> <PUBCHEM_IUPAC_INCHIKEY>
VOJSXGZKQUZFCX-MJCUULBUSA-N

> <PUBCHEM_XLOGP3_AA>
5.3

> <PUBCHEM_EXACT_MASS>
298.229666

> <PUBCHEM_MOLECULAR_FORMULA>
C21H30O

> <PUBCHEM_MOLECULAR_WEIGHT>
298.4623

> <PUBCHEM_OPENEYE_CAN_SMILES>
CCC1(CCC2C1(CCC3C2CCC4=C3C=CC(=C4)C)C)O

> <PUBCHEM_OPENEYE_ISO_SMILES>
CC[C@@]1(CC[C@@H]2[C@@]1(CC[C@H]3[C@H]2CCC4=C3C=CC(=C4)C)C)O

> <PUBCHEM_CACTVS_TPSA>
20.2

> <PUBCHEM_MONOISOTOPIC_WEIGHT>
298.229666

> <PUBCHEM_TOTAL_CHARGE>
0

> <PUBCHEM_HEAVY_ATOM_COUNT>
22

> <PUBCHEM_ATOM_DEF_STEREO_COUNT>
5

> <PUBCHEM_ATOM_UDEF_STEREO_COUNT>
0

> <PUBCHEM_BOND_DEF_STEREO_COUNT>
0

> <PUBCHEM_BOND_UDEF_STEREO_COUNT>
0

> <PUBCHEM_ISOTOPIC_ATOM_COUNT>
0

> <PUBCHEM_COMPONENT_COUNT>
1

> <PUBCHEM_CACTVS_TAUTO_COUNT>
1

> <PUBCHEM_COORDINATE_TYPE>
1
5
255

> <PUBCHEM_BONDANNOTATIONS>
5  1  5
14  16  8
14  18  8
16  19  8
18  20  8
19  21  8
2  12  5
20  21  8
3  23  6
4  24  5
8  29  6

$$$$

