   Color/Form

     * Clear, colorless liquid
     * Water-white liquid

   from [1]HSDB

   Odor

     * Strong, unpleasant odor
     * ODOR HAS CHARACTERISTIC OF SULFHYDRYL GROUPS
     * Strong, disagreeable odor characteristic of mercaptans [Note:
       Olfactory fatigue may occur after short exposures].
     * Pungent /Anhydrous/

   from [2]HSDB

   Boiling Point
        120 deg C @ 20 mm Hg
   from [3]HSDB

   Melting Point
        -16.5 deg C
   from [4]HSDB

   Density/Specific Gravity
        1.3253 @ 20 deg C
   from [5]HSDB

   Dissociation Constants
        Dissociation constants (in NaClO4 solution at 20 deg C): pKa1=
   3.82 + or - 0.1; pKa2= 9.30 + or - 0.1
   from [6]HSDB

   Heat of Combustion
        1450 kJ/mol
   from [7]HSDB

   Heat of Vaporization
        627.2 J/g
   from [8]HSDB

   Octanol/Water Partition Coefficient
        log Kow = 0.09
   from [9]HSDB

   Solubilities

     * Miscible with water, alcohol, ether, chloroform, benzene and many
       other org solvents
     * Miscible with water, ethanol, and ethyl ether; slightyl soluble in
       chloroform.
     * Miscible with water, mono- and polyalcohols, ethers, ketones,
       esters, chlorinated hydrocarbons, and aromatic hydrocarbons, but
       not with aliphatic hydrocarbons.

   from [10]HSDB

   Spectral Properties

     * Index of refraction: 1.5080 @ 20 deg C/D
     * MAX ABSORPTION (WATER, PH= 10): 240 NM (LOG E= 3.26)
     * IR: 21703 (Sadtler Research Laboratories IR Grating Collection)
     * UV: 3-4 (Organic Electronic Spectral Data, Phillips et al, John
       Wiley & Sons, New York)
     * NMR: 10969 (Sadtler Research Laboratories Spectral Collection)
     * MASS: 184 (Atlas of Mass Spectral Data, John Wiley & Sons, New
       York)

   from [11]HSDB

   Vapor Density
        3.18 (Air= 1)
   from [12]HSDB

   Vapor Pressure
        8.68X10-2 mm Hg at 25 deg C
   from [13]HSDB

   Viscosity
        6.55 mPa.s (=cP) @ 20 deg C
   from [14]HSDB

   Other Chemical/Physical Properties

     * VAPOR PRESSURE: 1 MM HG (0.13X10+3 Pa) AT 60 DEG C
     * A STRONGER ACID THAN ACETIC ACID
     * With ferric iron a blue color appears, and when alkali hydroxide is
       added to soln of ferrous salts and thioglycolic acid, yellow
       precipitate forms
     * VAPOR PRESSURE = 10 TORR AT 18 DEG C
     * Oxidation of mercaptoacetic acid, which occurs even on standing in
       air, gives dithiodiglycolic acid.
     * Vapor pressure: 0.02 kPa @ 30 deg C
     * Freezes at -16 deg C and distills under reduced pressure
     * Colorless liquid /Anhydrous/

   from [15]HSDB

   Computed Properties
   Molecular Weight                  92.11696 [g/mol]
   Molecular Formula                 C[2]H[4]O[2]S
   XLogP3                            0.1
   H-Bond Donor                      2
   H-Bond Acceptor                   3
   Rotatable Bond Count              1
   Exact Mass                        91.9932
   MonoIsotopic Mass                 91.9932
   Topological Polar Surface Area    38.3
   Heavy Atom Count                  5
   Formal Charge                     0
   Complexity                        42.9
   Isotope Atom Count                0
   Defined Atom Stereocenter Count   0
   Undefined Atom Stereocenter Count 0
   Defined Bond Stereocenter Count   0
   Undefined Bond Stereocenter Count 0
   Covalently-Bonded Unit Count      1
   Feature 3D Acceptor Count         2
   Feature 3D Anion Count            1
   Effective Rotor Count             1
   Conformer Sampling RMSD           0.4
   CID Conformer Count               [16]2

References

   1. http://toxnet.nlm.nih.gov/cgi-bin/sis/search/r?dbs+hsdb:@term+@rn+@rel+68-11-1
   2. http://toxnet.nlm.nih.gov/cgi-bin/sis/search/r?dbs+hsdb:@term+@rn+@rel+68-11-1
   3. http://toxnet.nlm.nih.gov/cgi-bin/sis/search/r?dbs+hsdb:@term+@rn+@rel+68-11-1
   4. http://toxnet.nlm.nih.gov/cgi-bin/sis/search/r?dbs+hsdb:@term+@rn+@rel+68-11-1
   5. http://toxnet.nlm.nih.gov/cgi-bin/sis/search/r?dbs+hsdb:@term+@rn+@rel+68-11-1
   6. http://toxnet.nlm.nih.gov/cgi-bin/sis/search/r?dbs+hsdb:@term+@rn+@rel+68-11-1
   7. http://toxnet.nlm.nih.gov/cgi-bin/sis/search/r?dbs+hsdb:@term+@rn+@rel+68-11-1
   8. http://toxnet.nlm.nih.gov/cgi-bin/sis/search/r?dbs+hsdb:@term+@rn+@rel+68-11-1
   9. http://toxnet.nlm.nih.gov/cgi-bin/sis/search/r?dbs+hsdb:@term+@rn+@rel+68-11-1
  10. http://toxnet.nlm.nih.gov/cgi-bin/sis/search/r?dbs+hsdb:@term+@rn+@rel+68-11-1
  11. http://toxnet.nlm.nih.gov/cgi-bin/sis/search/r?dbs+hsdb:@term+@rn+@rel+68-11-1
  12. http://toxnet.nlm.nih.gov/cgi-bin/sis/search/r?dbs+hsdb:@term+@rn+@rel+68-11-1
  13. http://toxnet.nlm.nih.gov/cgi-bin/sis/search/r?dbs+hsdb:@term+@rn+@rel+68-11-1
  14. http://toxnet.nlm.nih.gov/cgi-bin/sis/search/r?dbs+hsdb:@term+@rn+@rel+68-11-1
  15. http://toxnet.nlm.nih.gov/cgi-bin/sis/search/r?dbs+hsdb:@term+@rn+@rel+68-11-1
  16. http://pubchem.ncbi.nlm.nih.gov/vw3d/vw3d.cgi?cid=1133
