   Color/Form

     * Crystalline powder
     * Colorless, crystalline solid

   from [1]HSDB

   Odor
        Characteristic odor
   from [2]HSDB

   Taste
        Sweet, cooling taste
   from [3]HSDB

   Melting Point
        about 75-80 deg C
   from [4]HSDB

   Octanol/Water Partition Coefficient
        log Kow = -0.71 (est)
   from [5]HSDB

   Solubilities

     * Soluble in ethanol, ethyl ether, acetone; insoluble in ligroin
     * Slowly soluble in 1 part water, 15 parts alcohol
     * In water, 5.03X10+5 mg/L at 25 deg C (est)

   from [6]HSDB

   Spectral Properties

     * MASS: 743 (NIST/EPA/MSDC Mass Spectral Database, 1990 version)
     * IR: 6302 (Coblentz Society spectral collection)
     * UV: 2-9 (Phillip et al., Organic Electronic Spectral Data, John
       Wiley & Sons, New York)

   from [7]HSDB

   Vapor Pressure
        2.08X10-2 mm Hg at 25 deg C (est)
   from [8]HSDB

   Other Chemical/Physical Properties

     * Fairly hygroscopic ... the normal form is a dimer. When freshly
       prepared reverts rapidly to monomer in solution. The monomer is
       very soluble in water, alcohol, ether, acetone.
     * Hydroxyl radical reaction rate constant = 5.18X10-12 cu
       cm/molec-sec at 25 deg C (est)
     * Henry's Law constant = 1.21X10-13 atm-cu m/mol at 25 deg C (est)

   from [9]HSDB

   Computed Properties
   Molecular Weight                  90.07794 [g/mol]
   Molecular Formula                 C[3]H[6]O[3]
   XLogP3-AA                         -1.4
   H-Bond Donor                      2
   H-Bond Acceptor                   3
   Rotatable Bond Count              2
   Tautomer Count                    3
   Exact Mass                        90.031694
   MonoIsotopic Mass                 90.031694
   Topological Polar Surface Area    57.5
   Heavy Atom Count                  6
   Formal Charge                     0
   Complexity                        44
   Isotope Atom Count                0
   Defined Atom Stereocenter Count   0
   Undefined Atom Stereocenter Count 0
   Defined Bond Stereocenter Count   0
   Undefined Bond Stereocenter Count 0
   Covalently-Bonded Unit Count      1
   Feature 3D Acceptor Count         3
   Feature 3D Donor Count            2
   Effective Rotor Count             2
   Conformer Sampling RMSD           0.4
   CID Conformer Count               [10]12

References

   1. http://toxnet.nlm.nih.gov/cgi-bin/sis/search/r?dbs+hsdb:@term+@rn+@rel+96-26-4
   2. http://toxnet.nlm.nih.gov/cgi-bin/sis/search/r?dbs+hsdb:@term+@rn+@rel+96-26-4
   3. http://toxnet.nlm.nih.gov/cgi-bin/sis/search/r?dbs+hsdb:@term+@rn+@rel+96-26-4
   4. http://toxnet.nlm.nih.gov/cgi-bin/sis/search/r?dbs+hsdb:@term+@rn+@rel+96-26-4
   5. http://toxnet.nlm.nih.gov/cgi-bin/sis/search/r?dbs+hsdb:@term+@rn+@rel+96-26-4
   6. http://toxnet.nlm.nih.gov/cgi-bin/sis/search/r?dbs+hsdb:@term+@rn+@rel+96-26-4
   7. http://toxnet.nlm.nih.gov/cgi-bin/sis/search/r?dbs+hsdb:@term+@rn+@rel+96-26-4
   8. http://toxnet.nlm.nih.gov/cgi-bin/sis/search/r?dbs+hsdb:@term+@rn+@rel+96-26-4
   9. http://toxnet.nlm.nih.gov/cgi-bin/sis/search/r?dbs+hsdb:@term+@rn+@rel+96-26-4
  10. http://pubchem.ncbi.nlm.nih.gov/vw3d/vw3d.cgi?cid=670
