14006
  -OEChem-06241222412D

 55 56  0     0  0  0  0  0  0999 V2000
    6.3301    2.2363    0.0000 S   0  0  0  0  0  0  0  0  0  0  0  0
   11.5923    2.2604    0.0000 S   0  0  0  0  0  0  0  0  0  0  0  0
   12.4525    3.7637    0.0000 Na  0  3  0  0  0  0  0  0  0  0  0  0
    5.4641    3.7363    0.0000 Na  0  3  0  0  0  0  0  0  0  0  0  0
    9.8106   -0.7983    0.0000 O   0  0  0  0  0  0  0  0  0  0  0  0
    5.4641    2.7363    0.0000 O   0  5  0  0  0  0  0  0  0  0  0  0
    5.8301    1.3702    0.0000 O   0  0  0  0  0  0  0  0  0  0  0  0
    6.8301    3.1023    0.0000 O   0  0  0  0  0  0  0  0  0  0  0  0
   12.4564    2.7637    0.0000 O   0  5  0  0  0  0  0  0  0  0  0  0
   12.0956    1.3963    0.0000 O   0  0  0  0  0  0  0  0  0  0  0  0
   11.0890    3.1245    0.0000 O   0  0  0  0  0  0  0  0  0  0  0  0
    2.8660   -3.7637    0.0000 O   0  5  0  0  0  0  0  0  0  0  0  0
    2.0000   -2.2637    0.0000 O   0  0  0  0  0  0  0  0  0  0  0  0
    6.3301    0.2363    0.0000 N   0  0  0  0  0  0  0  0  0  0  0  0
   11.5923    0.2121    0.0000 N   0  0  0  0  0  0  0  0  0  0  0  0
    8.0622   -0.7637    0.0000 N   0  0  0  0  0  0  0  0  0  0  0  0
    6.3301   -0.7637    0.0000 N   0  0  0  0  0  0  0  0  0  0  0  0
   11.5884   -0.7879    0.0000 N   0  0  0  0  0  0  0  0  0  0  0  0
    2.8660   -2.7637    0.0000 N   0  3  0  0  0  0  0  0  0  0  0  0
    8.9282    1.7363    0.0000 C   0  0  0  0  0  0  0  0  0  0  0  0
    8.9282    0.7363    0.0000 C   0  0  0  0  0  0  0  0  0  0  0  0
    7.1962    1.7363    0.0000 C   0  0  0  0  0  0  0  0  0  0  0  0
    8.0622    0.2363    0.0000 C   0  0  0  0  0  0  0  0  0  0  0  0
    8.0622    2.2363    0.0000 C   0  0  0  0  0  0  0  0  0  0  0  0
   10.7282    1.7571    0.0000 C   0  0  0  0  0  0  0  0  0  0  0  0
    9.8221    2.2709    0.0000 C   0  0  0  0  0  0  0  0  0  0  0  0
    7.1962    0.7363    0.0000 C   0  0  0  0  0  0  0  0  0  0  0  0
    9.8221    0.2016    0.0000 C   0  0  0  0  0  0  0  0  0  0  0  0
   10.7282    0.7154    0.0000 C   0  0  0  0  0  0  0  0  0  0  0  0
    5.4641   -1.2637    0.0000 C   0  0  0  0  0  0  0  0  0  0  0  0
   12.4525   -1.2912    0.0000 C   0  0  0  0  0  0  0  0  0  0  0  0
    5.4641   -2.2637    0.0000 C   0  0  0  0  0  0  0  0  0  0  0  0
    4.5981   -0.7637    0.0000 C   0  0  0  0  0  0  0  0  0  0  0  0
    4.5981   -2.7637    0.0000 C   0  0  0  0  0  0  0  0  0  0  0  0
    3.7321   -1.2637    0.0000 C   0  0  0  0  0  0  0  0  0  0  0  0
    3.7321   -2.2637    0.0000 C   0  0  0  0  0  0  0  0  0  0  0  0
   13.3205   -0.7946    0.0000 C   0  0  0  0  0  0  0  0  0  0  0  0
   12.4487   -2.2912    0.0000 C   0  0  0  0  0  0  0  0  0  0  0  0
   14.1846   -1.2979    0.0000 C   0  0  0  0  0  0  0  0  0  0  0  0
   13.3128   -2.7945    0.0000 C   0  0  0  0  0  0  0  0  0  0  0  0
   14.1807   -2.2979    0.0000 C   0  0  0  0  0  0  0  0  0  0  0  0
    8.0622    2.8563    0.0000 H   0  0  0  0  0  0  0  0  0  0  0  0
    9.8150    2.8909    0.0000 H   0  0  0  0  0  0  0  0  0  0  0  0
    7.5252   -1.0737    0.0000 H   0  0  0  0  0  0  0  0  0  0  0  0
    6.8671   -1.0737    0.0000 H   0  0  0  0  0  0  0  0  0  0  0  0
   11.0503   -1.0958    0.0000 H   0  0  0  0  0  0  0  0  0  0  0  0
    6.0010   -2.5737    0.0000 H   0  0  0  0  0  0  0  0  0  0  0  0
    4.5981   -0.1437    0.0000 H   0  0  0  0  0  0  0  0  0  0  0  0
    4.5981   -3.3837    0.0000 H   0  0  0  0  0  0  0  0  0  0  0  0
    3.1951   -0.9537    0.0000 H   0  0  0  0  0  0  0  0  0  0  0  0
   13.3229   -0.1746    0.0000 H   0  0  0  0  0  0  0  0  0  0  0  0
   11.9106   -2.5991    0.0000 H   0  0  0  0  0  0  0  0  0  0  0  0
   14.7227   -0.9900    0.0000 H   0  0  0  0  0  0  0  0  0  0  0  0
   13.3104   -3.4145    0.0000 H   0  0  0  0  0  0  0  0  0  0  0  0
   14.7165   -2.6100    0.0000 H   0  0  0  0  0  0  0  0  0  0  0  0
  1  6  1  0  0  0  0
  1  7  2  0  0  0  0
  1  8  2  0  0  0  0
  1 22  1  0  0  0  0
  2  9  1  0  0  0  0
  2 10  2  0  0  0  0
  2 11  2  0  0  0  0
  2 25  1  0  0  0  0
  5 28  2  0  0  0  0
 12 19  1  0  0  0  0
 13 19  2  0  0  0  0
 14 17  1  0  0  0  0
 14 27  2  3  0  0  0
 15 18  1  0  0  0  0
 15 29  2  3  0  0  0
 16 23  2  0  0  0  0
 16 44  1  0  0  0  0
 17 30  1  0  0  0  0
 17 45  1  0  0  0  0
 18 31  1  0  0  0  0
 18 46  1  0  0  0  0
 19 36  1  0  0  0  0
 20 21  2  0  0  0  0
 20 24  1  0  0  0  0
 20 26  1  0  0  0  0
 21 23  1  0  0  0  0
 21 28  1  0  0  0  0
 22 24  2  0  0  0  0
 22 27  1  0  0  0  0
 23 27  1  0  0  0  0
 24 42  1  0  0  0  0
 25 26  2  0  0  0  0
 25 29  1  0  0  0  0
 26 43  1  0  0  0  0
 28 29  1  0  0  0  0
 30 32  2  0  0  0  0
 30 33  1  0  0  0  0
 31 37  2  0  0  0  0
 31 38  1  0  0  0  0
 32 34  1  0  0  0  0
 32 47  1  0  0  0  0
 33 35  2  0  0  0  0
 33 48  1  0  0  0  0
 34 36  2  0  0  0  0
 34 49  1  0  0  0  0
 35 36  1  0  0  0  0
 35 50  1  0  0  0  0
 37 39  1  0  0  0  0
 37 51  1  0  0  0  0
 38 40  2  0  0  0  0
 38 52  1  0  0  0  0
 39 41  2  0  0  0  0
 39 53  1  0  0  0  0
 40 41  1  0  0  0  0
 40 54  1  0  0  0  0
 41 55  1  0  0  0  0
M  CHG  6   3   1   4   1   6  -1   9  -1  12  -1  19   1
M  END
> <PUBCHEM_COMPOUND_CID>
14006

> <PUBCHEM_COMPOUND_CANONICALIZED>
1

> <PUBCHEM_CACTVS_COMPLEXITY>
1420

> <PUBCHEM_CACTVS_HBOND_ACCEPTOR>
14

> <PUBCHEM_CACTVS_HBOND_DONOR>
3

> <PUBCHEM_CACTVS_ROTATABLE_BOND>
4

> <PUBCHEM_CACTVS_SUBSKEYS>
AAADccB7vDBgAAAAAAAAAAAAAAAAAAAAAAAwYIEAAAAAAACBQAAAHgQcAAAADAyB0AAwwIByQAKpA6RyQ3DSBAAgAgA4iAEgZNoIIDKAkZGAIABgmAAIyQcYgAAAAACAAAAAAAAAAQAAAAAAAAAAAAAAAA==

> <PUBCHEM_IUPAC_OPENEYE_NAME>
disodium 4-imino-3-[(4-nitrophenyl)hydrazono]-5-oxo-6-(phenylhydrazono)naphthalene-2,7-disulfonate

> <PUBCHEM_IUPAC_CAS_NAME>
disodium 4-imino-3-[(4-nitrophenyl)hydrazinylidene]-5-oxo-6-(phenylhydrazinylidene)naphthalene-2,7-disulfonate

> <PUBCHEM_IUPAC_NAME>
disodium 4-imino-3-[(4-nitrophenyl)hydrazinylidene]-5-oxo-6-(phenylhydrazinylidene)naphthalene-2,7-disulfonate

> <PUBCHEM_IUPAC_SYSTEMATIC_NAME>
disodium 4-azanylidene-3-[(4-nitrophenyl)hydrazinylidene]-5-oxidanylidene-6-(phenylhydrazinylidene)naphthalene-2,7-disulfonate

> <PUBCHEM_IUPAC_TRADITIONAL_NAME>
disodium 4-imino-5-keto-3-[(4-nitrophenyl)hydrazono]-6-(phenylhydrazono)naphthalene-2,7-disulfonate

> <PUBCHEM_IUPAC_INCHI>
InChI=1S/C22H16N6O9S2.2Na/c23-19-18-12(11-17(39(35,36)37)21(22(18)29)27-24-13-4-2-1-3-5-13)10-16(38(32,33)34)20(19)26-25-14-6-8-15(9-7-14)28(30)31;;/h1-11,23-25H,(H,32,33,34)(H,35,36,37);;/q;2*+1/p-2

> <PUBCHEM_IUPAC_INCHIKEY>
XEOJHCMDYSXAPG-UHFFFAOYSA-L

> <PUBCHEM_EXACT_MASS>
616.005907

> <PUBCHEM_MOLECULAR_FORMULA>
C22H14N6Na2O9S2

> <PUBCHEM_MOLECULAR_WEIGHT>
616.490899

> <PUBCHEM_OPENEYE_CAN_SMILES>
C1=CC=C(C=C1)NN=C2C(=CC3=C(C2=O)C(=N)C(=NNC4=CC=C(C=C4)[N+](=O)[O-])C(=C3)S(=O)(=O)[O-])S(=O)(=O)[O-].[Na+].[Na+]

> <PUBCHEM_OPENEYE_ISO_SMILES>
C1=CC=C(C=C1)NN=C2C(=CC3=C(C2=O)C(=N)C(=NNC4=CC=C(C=C4)[N+](=O)[O-])C(=C3)S(=O)(=O)[O-])S(=O)(=O)[O-].[Na+].[Na+]

> <PUBCHEM_CACTVS_TPSA>
267

> <PUBCHEM_MONOISOTOPIC_WEIGHT>
616.005907

> <PUBCHEM_TOTAL_CHARGE>
0

> <PUBCHEM_HEAVY_ATOM_COUNT>
41

> <PUBCHEM_ATOM_DEF_STEREO_COUNT>
0

> <PUBCHEM_ATOM_UDEF_STEREO_COUNT>
0

> <PUBCHEM_BOND_DEF_STEREO_COUNT>
0

> <PUBCHEM_BOND_UDEF_STEREO_COUNT>
2

> <PUBCHEM_ISOTOPIC_ATOM_COUNT>
0

> <PUBCHEM_COMPONENT_COUNT>
3

> <PUBCHEM_CACTVS_TAUTO_COUNT>
1

> <PUBCHEM_COORDINATE_TYPE>
1
5
255

> <PUBCHEM_BONDANNOTATIONS>
14  27  1
15  29  1
20  24  8
20  26  8
21  23  8
21  28  8
22  24  8
22  27  8
23  27  8
25  26  8
25  29  8
28  29  8
30  32  8
30  33  8
31  37  8
31  38  8
32  34  8
33  35  8
34  36  8
35  36  8
37  39  8
38  40  8
39  41  8
40  41  8

$$$$

