   Color/Form
        Clear, colorless, very mobile liquid
   from [1]HSDB

   Odor

     * Mild, rather pleasant; like wine or whiskey
     * Weak, ethereal, vinous odor.

   from [2]HSDB

   Taste
        Burning
   from [3]HSDB

   Boiling Point
        78.5 deg C
   from [4]HSDB

   Melting Point
        -114.1 deg C
   from [5]HSDB

   Critical Temperature and Pressure
        Critical temperature: 243.1 deg C; critical pressure: 6383.48 kPa
   from [6]HSDB

   Density/Specific Gravity
        0.789 at 20 deg C/4 deg
   from [7]HSDB

   Dissociation Constants
        pKa = 15.9 at 25 deg C
   from [8]HSDB

   Heat of Combustion
        29676.69 J/g at 25 deg C
   from [9]HSDB

   Heat of Vaporization
        839.31 J/g
   from [10]HSDB

   Octanol/Water Partition Coefficient
        log Kow = -0.31
   from [11]HSDB

   Solubilities

     * Miscible in ether, acetone, benzene and acetic acid
     * Miscible with many org solvents
     * In water, miscible

   from [12]HSDB

   Spectral Properties

     * Index of refraction: 1.361 at 20 deg C/D
     * MAX ABSORPTION (GAS): 181 NM (LOG E= 2.51); SADTLER REFERENCE
       NUMBER: 188 (IR, PRISM); 64 (IR, GRATING)
     * IR: 6986 (Coblentz Society Spectral Collection)
     * NMR: 14 (Varian Associates NMR Spectra Catalogue)
     * MASS: 37886 (NIST/EPA/MSDC Mass Spectral database, 1990 version)
     * Intense mass spectral peaks: 31 m/z , 45 m/z, 46 m/z

   from [13]HSDB

   Surface Tension
        23.1 dynes/cm at 25 deg C
   from [14]HSDB

   Vapor Density
        1.59 (Air= 1)
   from [15]HSDB

   Vapor Pressure
        59.3 mm Hg at 25 deg C /Extrapolated/
   from [16]HSDB

   Viscosity
        1.17 cP at 20 deg C
   from [17]HSDB

   Other Chemical/Physical Properties

     * % in saturated air: 6.58 at 25 deg C. Equivalences: 1 mg/L = 532
       ppm; 1 ppm = 1.88 mg/cu m at 25 deg C and 760 mm Hg
     * RATIO OF SPECIFIC HEATS OF VAPOR: 1.128; HEAT OF SOLUTION: -55
       CAL/G= -2.3X10+5 J/KG= -99 BTU/LB; REID VAPOR PRESSURE: 2.3 PSIA
     * Specific heat 0.618 cal/g at 23 deg C
     * Heat of Formation: -66.37 kcal/mol (liq); -56.19 kcal/mol (gas) at
       25 deg C
     * Heat of Fusion: 104.6 J/g
     * Solidifies below -130 deg C. Absorbs water rapidly
     * Heat capacity: 113.0 J/mol-K (liquid) & 65.7 J/mol-K (gas) at 25
       deg C & 1 atm
     * VOLATILE
     * Dielectric constant: 25.00 at 20 deg C; 20.21 at 55 deg C; dipole
       moment (debyes): 1.69 (gas), 1.71 in benzene at 25 deg C
     * Enthalpies of formation: -66.20 kcal/mole (liquid); -56.03
       kcal/mole (gas); Gibbs (free) energies of formation: -41.63
       kcal/mole (liquid); -40.13 kcal/mole (gas); Entropies: 38.49
       cal/deg-mole (liquid); 67.54 cal/deg-mole (gas); Heat capacities:
       26.76 cal/deg-mole (liquid); 15.64 cal/deg-mole (gas)
     * Heat of melting: 1.198 kcal/mole; heat of sublimation: 10.11
       kcal/mole at 298 K; specific heat: 19.36 cal/K.mol at 400 K
     * Observed and estimated solubility of naphthalene in ethanol at 40
       deg C: 0.073 mole fraction (observed) & 0.054 mole fraction
       (estimated)
     * Observed and estimated solubility of anthracene in ethanol at 20
       deg C: 0.0005 mole fraction (observed) & 0.0004 mole fraction
       (estimated)
     * Observed and estimated solubility of phenanthrene in ethanol at 20
       deg C: 0.0123 mole fraction (observed) & 0.0102 mole fraction
       (estimated)
     * Rate constant for reaction of ethanol with OH radical at 300 K:
       1.8X10+12 cu cm/mol-sec
     * Electrical conductivity: 1.35X10-9/ohm cm at 25 deg C; heat of
       solution: 2.54 kcal/mole solute in water at 13 deg C; latent heat
       of fusion: 24.9 cal/g; specific tension: 22.1 dynes/cm at 25 deg C;
       wt/gal: 6.61 at 20 deg C
     * Forms binary azeotropes with tert-amyl ethyl ether, benzene,
       1-bromobutane, 2-bromobutane, cis-1-bromo-1-butene,
       trans-1-bromo-1-butene, cis-2-bromo-2-butene,
       trans-2-bromo-2-butene, 2-bromo-1-butene, 1-bromo-3-methylbutane,
       1-bromo-1-methylpropane, 2-bromo-2-methylpropane, 1-bromopropane,
       2-bromopropane, 2-bromopropane, trans-1-bromopropene,
       cis-1-bromopropene, tert-butyl ethyl ether, carbon disulfide,
       carbon tetrachloride, 1-chlorobutane, 2-chlorobutane,
       cis-1-chloro-1-butene, trans-1-chloro-1-butene, 2-chloro-1-butene,
       cis-2-chloro-2-butene, chloroform, 1-chloro-3-methylbutane,
       1-chloro-2-methylpropane, 1-chloropropane, 2-chloropane,
       trans-1-chloropropene, 3-chloropropene, 1,3-cyclohexadiene,
       cyclohexane, cyclohexane, cyclopentane, 1,1-dichloropropane,
       2,2-dichloropropane, 2,5-dimethylhexane, diethoxymethane, ethyl
       acetate, ethyl acrylate, ethyl propionate, ethyl propyl ether,
       ethyl sulfide, fluorobenzene, n-heptane, n-hexane, 2-iodobutane,
       1-iodo-2-methylpropane, 1-iodopropane, 2-iodopropane,
       3-iodopropene, isobutyl formate, isoprene, isopropyl acetate,
       methyl acetate, methyl acrylate, methyl borate, 2-methylbutane,
       methyl butyrate, methyl carbonate, methylcyclopentene,
       methylcyclopentene, methyl ethyl ketone, methyl propionate, octane,
       pentane, 2-pentanone, perchloroethylene, propanediol, propyl
       acetate, propyl ether, thiophene, toluene, trichloroethylene
     * Forms ternary azeotropes with water, acetal; water, benzene; water,
       bromodichlormethane; water, 1-bromo-2-methylpropane; water,
       cis-1-bromopropane; water, trans-bromopropane; water,
       1-bromopropane; water, 2-bromopropane; water, carbon disulfide;
       water, chloroform; water, 1-chloro-2-methylpropane; water,
       cyclohexene; water, 1,2-dichloroethane; water,
       cis-1,2-dichloroethylene; water, trans-1,2-dichloroethylene; water,
       dimethoxymethane; water, ethyl acetate; water, ethyl chloroacetate;
       water, trichloroethylene; water, triethylamine
     * Saturated concn in air: 105 g/cu m at 20 deg C, 182 g/cu m at 30
       deg C
     * Liquid heat capacity: 0.583 BTU/lb-F @ 70 deg F; Liquid thermal
       conductivity: 1.159 BTU-in/hr-sq ft-F at 70 deg F; Saturated vapor
       density: 0.00716 lb/cu ft @ 70 deg F; Ideal gas heat capacity:
       0.384 BTU/lb-F @ 75 deg F
     * Diffusion coefficient: 0.034 sq m/hr (calculated) and 0.037 sq m/hr
       (experimental) in air at 0 deg C and 1 atm
     * Magnetic susceptibility: 0.734X10-6 at 20 deg C
     * VAPOR PRESSURE= 40 MM HG @ 19 DEG C
     * Henry's Law constant = 5X10-6 atm-cu m/mol at 25 deg C [Gaffney JS
       et al; Environ Sci Technol 21: 519-23 (1987)] [18]PubMed Abstract
     * Hydroxyl radical reaction rate constant= 3.3X10-12 cu cm/molec-sec
       at 25 deg C

   from [19]HSDB

   Computed Properties
   Molecular Weight                  46.06844 [g/mol]
   Molecular Formula                 C[2]H[6]O
   XLogP3-AA                         -0.1
   H-Bond Donor                      1
   H-Bond Acceptor                   1
   Rotatable Bond Count              0
   Exact Mass                        46.041865
   MonoIsotopic Mass                 46.041865
   Topological Polar Surface Area    20.2
   Heavy Atom Count                  3
   Formal Charge                     0
   Complexity                        2.8
   Isotope Atom Count                0
   Defined Atom Stereocenter Count   0
   Undefined Atom Stereocenter Count 0
   Defined Bond Stereocenter Count   0
   Undefined Bond Stereocenter Count 0
   Covalently-Bonded Unit Count      1
   Feature 3D Acceptor Count         1
   Feature 3D Donor Count            1
   Effective Rotor Count             0
   Conformer Sampling RMSD           0.4
   CID Conformer Count               [20]1

References

   1. http://toxnet.nlm.nih.gov/cgi-bin/sis/search/r?dbs+hsdb:@term+@rn+@rel+64-17-5
   2. http://toxnet.nlm.nih.gov/cgi-bin/sis/search/r?dbs+hsdb:@term+@rn+@rel+64-17-5
   3. http://toxnet.nlm.nih.gov/cgi-bin/sis/search/r?dbs+hsdb:@term+@rn+@rel+64-17-5
   4. http://toxnet.nlm.nih.gov/cgi-bin/sis/search/r?dbs+hsdb:@term+@rn+@rel+64-17-5
   5. http://toxnet.nlm.nih.gov/cgi-bin/sis/search/r?dbs+hsdb:@term+@rn+@rel+64-17-5
   6. http://toxnet.nlm.nih.gov/cgi-bin/sis/search/r?dbs+hsdb:@term+@rn+@rel+64-17-5
   7. http://toxnet.nlm.nih.gov/cgi-bin/sis/search/r?dbs+hsdb:@term+@rn+@rel+64-17-5
   8. http://toxnet.nlm.nih.gov/cgi-bin/sis/search/r?dbs+hsdb:@term+@rn+@rel+64-17-5
   9. http://toxnet.nlm.nih.gov/cgi-bin/sis/search/r?dbs+hsdb:@term+@rn+@rel+64-17-5
  10. http://toxnet.nlm.nih.gov/cgi-bin/sis/search/r?dbs+hsdb:@term+@rn+@rel+64-17-5
  11. http://toxnet.nlm.nih.gov/cgi-bin/sis/search/r?dbs+hsdb:@term+@rn+@rel+64-17-5
  12. http://toxnet.nlm.nih.gov/cgi-bin/sis/search/r?dbs+hsdb:@term+@rn+@rel+64-17-5
  13. http://toxnet.nlm.nih.gov/cgi-bin/sis/search/r?dbs+hsdb:@term+@rn+@rel+64-17-5
  14. http://toxnet.nlm.nih.gov/cgi-bin/sis/search/r?dbs+hsdb:@term+@rn+@rel+64-17-5
  15. http://toxnet.nlm.nih.gov/cgi-bin/sis/search/r?dbs+hsdb:@term+@rn+@rel+64-17-5
  16. http://toxnet.nlm.nih.gov/cgi-bin/sis/search/r?dbs+hsdb:@term+@rn+@rel+64-17-5
  17. http://toxnet.nlm.nih.gov/cgi-bin/sis/search/r?dbs+hsdb:@term+@rn+@rel+64-17-5
  18. http://www.ncbi.nlm.nih.gov/entrez/query.fcgi?cmd=Retrieve&db=pubmed&dopt=Abstract&list_uids=19994967
  19. http://toxnet.nlm.nih.gov/cgi-bin/sis/search/r?dbs+hsdb:@term+@rn+@rel+64-17-5
  20. http://pubchem.ncbi.nlm.nih.gov/vw3d/vw3d.cgi?cid=702
