   Color/Form
        Crystals from acetone, petroleum ether, ether plus petroleum ether
   from [1]HSDB

   Odor

     * STRONG, PUNGENT ODOR REMINISCENT OF GINGER
     * SWEET, SPICY AROMA

   from [2]HSDB

   Taste

     * SHARP TASTE SIMILAR TO GINGER
     * SWEET, SPICY TASTE

   from [3]HSDB

   Boiling Point
        187-188 deg C @ 14 mm Hg
   from [4]HSDB

   Melting Point
        40.5 deg C
   from [5]HSDB

   Density/Specific Gravity
        1.138-1.139 @ 25 DEG C
   from [6]HSDB

   Solubilities

     * Sparingly sol in water, petroleum ether; sol in ether, dil alkalies
     * Very soluble in ethyl ether
     * SOLUBILITY 1:1 IN 50% ALCOHOL

   from [7]HSDB

   Spectral Properties

     * INDEX OF REFRACTION: 1.5440-1.5450 @ 20 DEG C/D
     * MASS: 1093 (National Bureau of Standards EPA-NIH Mass Spectra Data
       Base, NSRDS-NBS-63)

   from [8]HSDB

   Other Chemical/Physical Properties
        YELLOWISH LIQUID /COMMERCIAL PRODUCT/
   from [9]HSDB

   Computed Properties
   Molecular Weight                  194.22706 [g/mol]
   Molecular Formula                 C[11]H[14]O[3]
   XLogP3                            0.8
   H-Bond Donor                      1
   H-Bond Acceptor                   3
   Rotatable Bond Count              4
   Tautomer Count                    9
   Exact Mass                        194.094294
   MonoIsotopic Mass                 194.094294
   Topological Polar Surface Area    46.5
   Heavy Atom Count                  14
   Formal Charge                     0
   Complexity                        191
   Isotope Atom Count                0
   Defined Atom Stereocenter Count   0
   Undefined Atom Stereocenter Count 0
   Defined Bond Stereocenter Count   0
   Undefined Bond Stereocenter Count 0
   Covalently-Bonded Unit Count      1
   Feature 3D Acceptor Count         2
   Feature 3D Donor Count            1
   Feature 3D Ring Count             1
   Effective Rotor Count             4
   Conformer Sampling RMSD           0.6
   CID Conformer Count               [10]49

References

   1. http://toxnet.nlm.nih.gov/cgi-bin/sis/search/r?dbs+hsdb:@term+@rn+@rel+122-48-5
   2. http://toxnet.nlm.nih.gov/cgi-bin/sis/search/r?dbs+hsdb:@term+@rn+@rel+122-48-5
   3. http://toxnet.nlm.nih.gov/cgi-bin/sis/search/r?dbs+hsdb:@term+@rn+@rel+122-48-5
   4. http://toxnet.nlm.nih.gov/cgi-bin/sis/search/r?dbs+hsdb:@term+@rn+@rel+122-48-5
   5. http://toxnet.nlm.nih.gov/cgi-bin/sis/search/r?dbs+hsdb:@term+@rn+@rel+122-48-5
   6. http://toxnet.nlm.nih.gov/cgi-bin/sis/search/r?dbs+hsdb:@term+@rn+@rel+122-48-5
   7. http://toxnet.nlm.nih.gov/cgi-bin/sis/search/r?dbs+hsdb:@term+@rn+@rel+122-48-5
   8. http://toxnet.nlm.nih.gov/cgi-bin/sis/search/r?dbs+hsdb:@term+@rn+@rel+122-48-5
   9. http://toxnet.nlm.nih.gov/cgi-bin/sis/search/r?dbs+hsdb:@term+@rn+@rel+122-48-5
  10. http://pubchem.ncbi.nlm.nih.gov/vw3d/vw3d.cgi?cid=31211
