   Color/Form

     * WHITE TO YELLOWISH CRYSTALLINE POWDER
     * White or very slightly yellow needles

   from [1]HSDB

   Odor
        Pleasant aromatic vanilla odor
   from [2]HSDB

   Taste
        Pleasant vanilla taste
   from [3]HSDB

   Boiling Point
        284-285 deg C @ 760 mm Hg
   from [4]HSDB

   Melting Point
        80-81 deg C
   from [5]HSDB

   Density/Specific Gravity
        1.056
   from [6]HSDB

   Dissociation Constants
        pKa = 7.4 @ 25 deg C
   from [7]HSDB

   Heat of Combustion
        914.1 KGCAL @ 20 DEG C
   from [8]HSDB

   Octanol/Water Partition Coefficient
        log Kow = 1.37
   from [9]HSDB

   pH
        Solns are acid to litmus
   from [10]HSDB

   Solubilities

     * VERY SOL IN ACETONE, HOT BENZENE & PETROLEUM ETHER
     * 1 g dissolves in: 100 ml water, 16 ml water @ 80 deg C, about 20 ml
       glycerol; freely sol in chloroform, ether, carbon disulfide,
       glacial acetic acid, pyridine; sol in oils & in aq soln of alkali
       hydroxides
     * 1:2 IN 95% ALCOHOL, 1:3 IN 70% ALCOHOL
     * In water, 1.1X10+4 mg/l @ 25 deg C

   from [11]HSDB

   Spectral Properties

     * MAX ABSORPTION (ALCOHOL): 279 NM (LOG E= 4.01); 309 NM (LOG E=
       4.02)
     * SADTLER REFERENCE NUMBER: 8703 (IR, PRISM)
     * MAX ABSORPTION (0.1 N HYDROCHLORIC ACID): 247 NM, 309 NM
     * IR: 2530 (Coblentz Society Spectral Collection)
     * UV: 3-153 (Organic Electronic Spectral Data, Phillips et al, John
       Wiley & Sons, New York)
     * NMR: 197 (Varian Associates NMR Spectra Catalogue)
     * MASS: 905 (Atlas of Mass Spectral Data, John Wiley & Sons, New
       York)
     * NMR: 107 (Varian Associates NMR Spectra Catalogue)

   from [12]HSDB

   Vapor Density
        5.2 (AIR= 1)
   from [13]HSDB

   Vapor Pressure
        1.18X10-4 mm Hg @ 25 deg C
   from [14]HSDB

   Other Chemical/Physical Properties

     * PERCENT IN "SATURATED" AIR: 0.00029 @ 25 DEG C, 760 MM HG
     * RELATIVE HUMIDITY: 0.5% MAX (WEIGHT LOSS %)
     * DECOMPOSED BY ALKALIES
     * CONVERSION FACTORS: 1 MG/L= 161 PPM, 1 PPM= 6.2 MG/CU M
     * ODOR DETECTION: RECOGNITION IN WATER: 4.00 PPM; DETECTION IN WATER:
       2.00X10-1 PPM; DETECTION IN AIR: 1.10X10-8 PPB; DETECTION IN AIR:
       2.00X10-4 PPB. /FROM TABLE/

   from [15]HSDB

   Computed Properties
   Molecular Weight                  152.14732 [g/mol]
   Molecular Formula                 C[8]H[8]O[3]
   XLogP3                            1.2
   H-Bond Donor                      1
   H-Bond Acceptor                   3
   Rotatable Bond Count              2
   Tautomer Count                    5
   Exact Mass                        152.047344
   MonoIsotopic Mass                 152.047344
   Topological Polar Surface Area    46.5
   Heavy Atom Count                  11
   Formal Charge                     0
   Complexity                        135
   Isotope Atom Count                0
   Defined Atom Stereocenter Count   0
   Undefined Atom Stereocenter Count 0
   Defined Bond Stereocenter Count   0
   Undefined Bond Stereocenter Count 0
   Covalently-Bonded Unit Count      1
   Feature 3D Acceptor Count         2
   Feature 3D Donor Count            1
   Feature 3D Ring Count             1
   Effective Rotor Count             2
   Conformer Sampling RMSD           0.4
   CID Conformer Count               [16]6

References

   1. http://toxnet.nlm.nih.gov/cgi-bin/sis/search/r?dbs+hsdb:@term+@rn+@rel+121-33-5
   2. http://toxnet.nlm.nih.gov/cgi-bin/sis/search/r?dbs+hsdb:@term+@rn+@rel+121-33-5
   3. http://toxnet.nlm.nih.gov/cgi-bin/sis/search/r?dbs+hsdb:@term+@rn+@rel+121-33-5
   4. http://toxnet.nlm.nih.gov/cgi-bin/sis/search/r?dbs+hsdb:@term+@rn+@rel+121-33-5
   5. http://toxnet.nlm.nih.gov/cgi-bin/sis/search/r?dbs+hsdb:@term+@rn+@rel+121-33-5
   6. http://toxnet.nlm.nih.gov/cgi-bin/sis/search/r?dbs+hsdb:@term+@rn+@rel+121-33-5
   7. http://toxnet.nlm.nih.gov/cgi-bin/sis/search/r?dbs+hsdb:@term+@rn+@rel+121-33-5
   8. http://toxnet.nlm.nih.gov/cgi-bin/sis/search/r?dbs+hsdb:@term+@rn+@rel+121-33-5
   9. http://toxnet.nlm.nih.gov/cgi-bin/sis/search/r?dbs+hsdb:@term+@rn+@rel+121-33-5
  10. http://toxnet.nlm.nih.gov/cgi-bin/sis/search/r?dbs+hsdb:@term+@rn+@rel+121-33-5
  11. http://toxnet.nlm.nih.gov/cgi-bin/sis/search/r?dbs+hsdb:@term+@rn+@rel+121-33-5
  12. http://toxnet.nlm.nih.gov/cgi-bin/sis/search/r?dbs+hsdb:@term+@rn+@rel+121-33-5
  13. http://toxnet.nlm.nih.gov/cgi-bin/sis/search/r?dbs+hsdb:@term+@rn+@rel+121-33-5
  14. http://toxnet.nlm.nih.gov/cgi-bin/sis/search/r?dbs+hsdb:@term+@rn+@rel+121-33-5
  15. http://toxnet.nlm.nih.gov/cgi-bin/sis/search/r?dbs+hsdb:@term+@rn+@rel+121-33-5
  16. http://pubchem.ncbi.nlm.nih.gov/vw3d/vw3d.cgi?cid=1183
