46173825
  -OEChem-07051213092D

 87 90  0     1  0  0  0  0  0999 V2000
    4.7320   -0.2575    0.0000 O   0  0  0  0  0  0  0  0  0  0  0  0
    4.7320   -1.2574    0.0000 O   0  0  0  0  0  0  0  0  0  0  0  0
    3.7508    2.0071    0.0000 O   0  0  0  0  0  0  0  0  0  0  0  0
    5.0742   -3.1971    0.0000 O   0  0  0  0  0  0  0  0  0  0  0  0
    7.9406   -0.0286    0.0000 O   0  0  0  0  0  0  0  0  0  0  0  0
    8.1966   -2.0184    0.0000 O   0  0  0  0  0  0  0  0  0  0  0  0
    4.9393    3.6235    0.0000 O   0  0  0  0  0  0  0  0  0  0  0  0
    7.2320   -1.8555    0.0000 O   0  0  0  0  0  0  0  0  0  0  0  0
    8.8356    2.6294    0.0000 O   0  0  0  0  0  0  0  0  0  0  0  0
   10.7321   -2.7216    0.0000 O   0  0  0  0  0  0  0  0  0  0  0  0
    3.8660   -0.7575    0.0000 C   0  0  1  0  0  0  0  0  0  0  0  0
    3.0000   -1.2574    0.0000 C   0  0  0  0  0  0  0  0  0  0  0  0
    3.0000   -0.2575    0.0000 C   0  0  0  0  0  0  0  0  0  0  0  0
    3.0000   -2.2574    0.0000 C   0  0  0  0  0  0  0  0  0  0  0  0
    3.8660   -2.7574    0.0000 C   0  0  2  0  0  0  0  0  0  0  0  0
    4.7320    0.7425    0.0000 C   0  0  1  0  0  0  0  0  0  0  0  0
    3.8660    1.2426    0.0000 C   0  0  2  0  0  0  0  0  0  0  0  0
    3.0000    0.7425    0.0000 C   0  0  3  0  0  0  0  0  0  0  0  0
    4.7320   -2.2574    0.0000 C   0  0  2  0  0  0  0  0  0  0  0  0
    2.0000   -1.2574    0.0000 C   0  0  0  0  0  0  0  0  0  0  0  0
    2.2340   -0.6147    0.0000 C   0  0  0  0  0  0  0  0  0  0  0  0
    5.7320    0.7425    0.0000 C   0  0  2  0  0  0  0  0  0  0  0  0
    6.2026   -2.2395    0.0000 C   0  0  0  0  0  0  0  0  0  0  0  0
    3.3660   -3.6235    0.0000 C   0  0  0  0  0  0  0  0  0  0  0  0
    4.4410    2.2385    0.0000 C   0  0  0  0  0  0  0  0  0  0  0  0
    6.2320   -0.1235    0.0000 C   0  0  0  0  0  0  0  0  0  0  0  0
    6.2320    1.6086    0.0000 C   0  0  0  0  0  0  0  0  0  0  0  0
    7.2320   -0.1235    0.0000 C   0  0  0  0  0  0  0  0  0  0  0  0
    7.4105   -1.4004    0.0000 C   0  0  0  0  0  0  0  0  0  0  0  0
    5.0814    2.6336    0.0000 C   0  0  0  0  0  0  0  0  0  0  0  0
    7.7320   -0.9895    0.0000 C   0  0  1  0  0  0  0  0  0  0  0  0
    6.5345    2.4068    0.0000 C   0  0  0  0  0  0  0  0  0  0  0  0
    7.6108    1.4046    0.0000 C   0  0  2  0  0  0  0  0  0  0  0  0
    8.7320   -0.9895    0.0000 C   0  0  0  0  0  0  0  0  0  0  0  0
    8.5768    1.6634    0.0000 C   0  0  0  0  0  0  0  0  0  0  0  0
    9.2320   -1.8555    0.0000 C   0  0  0  0  0  0  0  0  0  0  0  0
    9.2320   -0.1235    0.0000 C   0  0  0  0  0  0  0  0  0  0  0  0
    7.7320   -2.7216    0.0000 C   0  0  0  0  0  0  0  0  0  0  0  0
   10.2321   -1.8555    0.0000 C   0  0  0  0  0  0  0  0  0  0  0  0
   10.2321   -0.1235    0.0000 C   0  0  0  0  0  0  0  0  0  0  0  0
   10.7321   -0.9895    0.0000 C   0  0  0  0  0  0  0  0  0  0  0  0
    2.3894   -0.1498    0.0000 H   0  0  0  0  0  0  0  0  0  0  0  0
    2.7880   -0.8401    0.0000 H   0  0  0  0  0  0  0  0  0  0  0  0
    2.3894   -2.1498    0.0000 H   0  0  0  0  0  0  0  0  0  0  0  0
    2.7880   -2.8401    0.0000 H   0  0  0  0  0  0  0  0  0  0  0  0
    4.1760   -3.2944    0.0000 H   0  0  0  0  0  0  0  0  0  0  0  0
    5.1570    1.4787    0.0000 H   0  0  0  0  0  0  0  0  0  0  0  0
    3.2834    1.4546    0.0000 H   0  0  0  0  0  0  0  0  0  0  0  0
    2.4021    0.9067    0.0000 H   0  0  0  0  0  0  0  0  0  0  0  0
    2.0000   -0.6375    0.0000 H   0  0  0  0  0  0  0  0  0  0  0  0
    1.3800   -1.2574    0.0000 H   0  0  0  0  0  0  0  0  0  0  0  0
    2.0000   -1.8774    0.0000 H   0  0  0  0  0  0  0  0  0  0  0  0
    2.6325   -0.1397    0.0000 H   0  0  0  0  0  0  0  0  0  0  0  0
    1.7590   -0.2161    0.0000 H   0  0  0  0  0  0  0  0  0  0  0  0
    1.8354   -1.0896    0.0000 H   0  0  0  0  0  0  0  0  0  0  0  0
    6.3520    0.7425    0.0000 H   0  0  0  0  0  0  0  0  0  0  0  0
    6.0117   -2.8293    0.0000 H   0  0  0  0  0  0  0  0  0  0  0  0
    6.0137   -1.6490    0.0000 H   0  0  0  0  0  0  0  0  0  0  0  0
    2.8291   -3.3135    0.0000 H   0  0  0  0  0  0  0  0  0  0  0  0
    3.0560   -4.1604    0.0000 H   0  0  0  0  0  0  0  0  0  0  0  0
    3.9030   -3.9335    0.0000 H   0  0  0  0  0  0  0  0  0  0  0  0
    4.9780    1.9285    0.0000 H   0  0  0  0  0  0  0  0  0  0  0  0
    4.7510    2.7754    0.0000 H   0  0  0  0  0  0  0  0  0  0  0  0
    3.9041    2.5485    0.0000 H   0  0  0  0  0  0  0  0  0  0  0  0
    5.6494   -0.3355    0.0000 H   0  0  0  0  0  0  0  0  0  0  0  0
    6.3397   -0.7341    0.0000 H   0  0  0  0  0  0  0  0  0  0  0  0
    6.7690    1.2986    0.0000 H   0  0  0  0  0  0  0  0  0  0  0  0
    6.5420    2.1455    0.0000 H   0  0  0  0  0  0  0  0  0  0  0  0
    5.6951    1.9186    0.0000 H   0  0  0  0  0  0  0  0  0  0  0  0
    5.6847   -3.3048    0.0000 H   0  0  0  0  0  0  0  0  0  0  0  0
    7.8147    0.0886    0.0000 H   0  0  0  0  0  0  0  0  0  0  0  0
    7.1244    0.4871    0.0000 H   0  0  0  0  0  0  0  0  0  0  0  0
    7.1120   -0.9895    0.0000 H   0  0  0  0  0  0  0  0  0  0  0  0
    7.0799    2.7018    0.0000 H   0  0  0  0  0  0  0  0  0  0  0  0
    6.2636    1.8492    0.0000 H   0  0  0  0  0  0  0  0  0  0  0  0
    7.7713    2.0035    0.0000 H   0  0  0  0  0  0  0  0  0  0  0  0
    8.6308    1.0458    0.0000 H   0  0  0  0  0  0  0  0  0  0  0  0
    9.1944    1.6094    0.0000 H   0  0  0  0  0  0  0  0  0  0  0  0
    8.9220   -2.3925    0.0000 H   0  0  0  0  0  0  0  0  0  0  0  0
    8.9220    0.4135    0.0000 H   0  0  0  0  0  0  0  0  0  0  0  0
    7.1951   -3.0316    0.0000 H   0  0  0  0  0  0  0  0  0  0  0  0
    8.0420   -3.2585    0.0000 H   0  0  0  0  0  0  0  0  0  0  0  0
    8.2690   -2.4116    0.0000 H   0  0  0  0  0  0  0  0  0  0  0  0
    9.4345    2.7898    0.0000 H   0  0  0  0  0  0  0  0  0  0  0  0
   10.5421    0.4135    0.0000 H   0  0  0  0  0  0  0  0  0  0  0  0
   11.3521   -0.9895    0.0000 H   0  0  0  0  0  0  0  0  0  0  0  0
   11.3521   -2.7216    0.0000 H   0  0  0  0  0  0  0  0  0  0  0  0
 11  1  1  1  0  0  0
  1 16  1  0  0  0  0
  2 11  1  0  0  0  0
  2 19  1  0  0  0  0
  3 18  1  0  0  0  0
  3 30  1  0  0  0  0
 19  4  1  6  0  0  0
  4 70  1  0  0  0  0
  5 29  1  0  0  0  0
  5 33  1  0  0  0  0
  6 29  2  0  0  0  0
  7 30  2  0  0  0  0
 31  8  1  1  0  0  0
  8 38  1  0  0  0  0
  9 35  1  0  0  0  0
  9 84  1  0  0  0  0
 10 39  1  0  0  0  0
 10 87  1  0  0  0  0
 11 12  1  0  0  0  0
 11 13  1  0  0  0  0
 12 14  1  0  0  0  0
 12 20  1  0  0  0  0
 12 21  1  0  0  0  0
 13 18  1  0  0  0  0
 13 42  1  0  0  0  0
 13 43  1  0  0  0  0
 14 15  1  0  0  0  0
 14 44  1  0  0  0  0
 14 45  1  0  0  0  0
 15 19  1  0  0  0  0
 15 24  1  6  0  0  0
 15 46  1  0  0  0  0
 16 17  1  0  0  0  0
 16 22  1  0  0  0  0
 16 47  1  6  0  0  0
 17 18  1  0  0  0  0
 17 25  1  6  0  0  0
 17 48  1  0  0  0  0
 18 49  1  0  0  0  0
 19 23  1  0  0  0  0
 20 50  1  0  0  0  0
 20 51  1  0  0  0  0
 20 52  1  0  0  0  0
 21 53  1  0  0  0  0
 21 54  1  0  0  0  0
 21 55  1  0  0  0  0
 22 26  1  0  0  0  0
 22 27  1  1  0  0  0
 22 56  1  0  0  0  0
 23 29  1  0  0  0  0
 23 57  1  0  0  0  0
 23 58  1  0  0  0  0
 24 59  1  0  0  0  0
 24 60  1  0  0  0  0
 24 61  1  0  0  0  0
 25 62  1  0  0  0  0
 25 63  1  0  0  0  0
 25 64  1  0  0  0  0
 26 28  1  0  0  0  0
 26 65  1  0  0  0  0
 26 66  1  0  0  0  0
 27 67  1  0  0  0  0
 27 68  1  0  0  0  0
 27 69  1  0  0  0  0
 28 31  1  0  0  0  0
 28 71  1  0  0  0  0
 28 72  1  0  0  0  0
 30 32  1  0  0  0  0
 31 34  1  0  0  0  0
 31 73  1  0  0  0  0
 32 33  1  0  0  0  0
 32 74  1  0  0  0  0
 32 75  1  0  0  0  0
 33 35  1  6  0  0  0
 33 76  1  0  0  0  0
 34 36  2  0  0  0  0
 34 37  1  0  0  0  0
 35 77  1  0  0  0  0
 35 78  1  0  0  0  0
 36 39  1  0  0  0  0
 36 79  1  0  0  0  0
 37 40  2  0  0  0  0
 37 80  1  0  0  0  0
 38 81  1  0  0  0  0
 38 82  1  0  0  0  0
 38 83  1  0  0  0  0
 39 41  2  0  0  0  0
 40 41  1  0  0  0  0
 40 85  1  0  0  0  0
 41 86  1  0  0  0  0
M  END
> <PUBCHEM_COMPOUND_CID>
46173825

> <PUBCHEM_COMPOUND_CANONICALIZED>
1

> <PUBCHEM_CACTVS_COMPLEXITY>
925

> <PUBCHEM_CACTVS_HBOND_ACCEPTOR>
10

> <PUBCHEM_CACTVS_HBOND_DONOR>
3

> <PUBCHEM_CACTVS_ROTATABLE_BOND>
7

> <PUBCHEM_CACTVS_SUBSKEYS>
AAADcfB4PAAAAAAAAAAAAAAAAAAAAAAAAAA0SIAAAAAAAAABAAAAGgAACAAADxSgmAIyDoAABgCIAiDSCAACAAAgIAAIiAEGCIgZNjaCMRqicAAl4BEPuAfK6PyPAAABAAAAAAAAAAIAAAAAAAAAAAAAAA==

> <PUBCHEM_IUPAC_INCHI>
InChI=1S/C31H46O10/c1-18(10-11-24(37-6)21-8-7-9-22(33)12-21)28-20(3)25-15-31(40-28)29(4,5)14-19(2)30(36,41-31)16-27(35)38-23(17-32)13-26(34)39-25/h7-9,12,18-20,23-25,28,32-33,36H,10-11,13-17H2,1-6H3/t18-,19+,20-,23+,24-,25?,28+,30-,31-/m0/s1

> <PUBCHEM_IUPAC_INCHIKEY>
GKTXURNRIDXUNG-IYYTYHDMSA-N

> <PUBCHEM_XLOGP3_AA>
3.7

> <PUBCHEM_EXACT_MASS>
578.309098

> <PUBCHEM_MOLECULAR_FORMULA>
C31H46O10

> <PUBCHEM_MOLECULAR_WEIGHT>
578.69094

> <PUBCHEM_OPENEYE_CAN_SMILES>
CC1CC(C23CC(C(C(O2)C(C)CCC(C4=CC(=CC=C4)O)OC)C)OC(=O)CC(OC(=O)CC1(O3)O)CO)(C)C

> <PUBCHEM_OPENEYE_ISO_SMILES>
C[C@@H]1CC([C@@]23CC([C@@H]([C@H](O2)[C@@H](C)CC[C@@H](C4=CC(=CC=C4)O)OC)C)OC(=O)C[C@@H](OC(=O)C[C@@]1(O3)O)CO)(C)C

> <PUBCHEM_CACTVS_TPSA>
141

> <PUBCHEM_MONOISOTOPIC_WEIGHT>
578.309098

> <PUBCHEM_TOTAL_CHARGE>
0

> <PUBCHEM_HEAVY_ATOM_COUNT>
41

> <PUBCHEM_ATOM_DEF_STEREO_COUNT>
8

> <PUBCHEM_ATOM_UDEF_STEREO_COUNT>
1

> <PUBCHEM_BOND_DEF_STEREO_COUNT>
0

> <PUBCHEM_BOND_UDEF_STEREO_COUNT>
0

> <PUBCHEM_ISOTOPIC_ATOM_COUNT>
0

> <PUBCHEM_COMPONENT_COUNT>
1

> <PUBCHEM_CACTVS_TAUTO_COUNT>
3

> <PUBCHEM_COORDINATE_TYPE>
1
5
255

> <PUBCHEM_BONDANNOTATIONS>
11  1  5
18  13  3
15  24  6
16  47  6
17  25  6
22  27  5
33  35  6
34  36  8
34  37  8
36  39  8
37  40  8
39  41  8
19  4  6
40  41  8
31  8  5

$$$$

