   Color/Form
        White to off-white crystalline powder
   from [1]HSDB

   Melting Point
        93-94 deg C
   from [2]HSDB

   Dissociation Constants
        pKa1 = 5.6 (tertiary amine); pKa2 = 8.5 (phenol)
   from [3]HSDB

   Octanol/Water Partition Coefficient
        log Kow = 2.38 at pH 7.4
   from [4]HSDB

   Solubilities

     * Freely soluble in acetone, soluble in methanol, and sparingly
       soluble in ethanol
     * In water, 43 mg/L at pH 7.4, temp not specified

   from [5]HSDB

   Vapor Pressure
        1.9X10-13 mm Hg at 25 deg C (est)
   from [6]HSDB

   Other Chemical/Physical Properties

     * Henry's Law constant = 5.5X10-15 atm-cu m/mol at 25 deg C (est)
     * Hydroxyl radical reaction rate constant = 4.5X10-10 cu cm/molecule
       sec at 25 deg C (est)

   from [7]HSDB

   Computed Properties
   Molecular Weight                  433.49474 [g/mol]
   Molecular Formula                 C[23]H[31]NO[7]
   XLogP3-AA                         3.2
   H-Bond Donor                      1
   H-Bond Acceptor                   8
   Rotatable Bond Count              10
   Tautomer Count                    4
   Exact Mass                        433.210052
   MonoIsotopic Mass                 433.210052
   Topological Polar Surface Area    94.5
   Heavy Atom Count                  31
   Formal Charge                     0
   Complexity                        646
   Isotope Atom Count                0
   Defined Atom Stereocenter Count   0
   Undefined Atom Stereocenter Count 0
   Defined Bond Stereocenter Count   1
   Undefined Bond Stereocenter Count 0
   Covalently-Bonded Unit Count      1
   Feature 3D Acceptor Count         4
   Feature 3D Donor Count            1
   Feature 3D Cation Count           1
   Feature 3D Hydrophobe Count       1
   Feature 3D Ring Count             3
   Effective Rotor Count             11.6
   Conformer Sampling RMSD           1.2
   CID Conformer Count               [8]207

References

   1. http://toxnet.nlm.nih.gov/cgi-bin/sis/search/r?dbs+hsdb:@term+@rn+@rel+128794-94-5
   2. http://toxnet.nlm.nih.gov/cgi-bin/sis/search/r?dbs+hsdb:@term+@rn+@rel+128794-94-5
   3. http://toxnet.nlm.nih.gov/cgi-bin/sis/search/r?dbs+hsdb:@term+@rn+@rel+128794-94-5
   4. http://toxnet.nlm.nih.gov/cgi-bin/sis/search/r?dbs+hsdb:@term+@rn+@rel+128794-94-5
   5. http://toxnet.nlm.nih.gov/cgi-bin/sis/search/r?dbs+hsdb:@term+@rn+@rel+128794-94-5
   6. http://toxnet.nlm.nih.gov/cgi-bin/sis/search/r?dbs+hsdb:@term+@rn+@rel+128794-94-5
   7. http://toxnet.nlm.nih.gov/cgi-bin/sis/search/r?dbs+hsdb:@term+@rn+@rel+128794-94-5
   8. http://pubchem.ncbi.nlm.nih.gov/vw3d/vw3d.cgi?cid=5281078
