442012
  -OEChem-07051212562D

 49 54  0     1  0  0  0  0  0999 V2000
    9.6286    0.9714    0.0000 O   0  0  0  0  0  0  0  0  0  0  0  0
    5.8524    3.2861    0.0000 O   0  0  0  0  0  0  0  0  0  0  0  0
    7.3478    3.4034    0.0000 O   0  0  0  0  0  0  0  0  0  0  0  0
    3.5425   -2.3215    0.0000 O   0  0  0  0  0  0  0  0  0  0  0  0
    6.9773    4.7520    0.0000 O   0  0  0  0  0  0  0  0  0  0  0  0
    2.0000   -1.3780    0.0000 O   0  0  0  0  0  0  0  0  0  0  0  0
    6.3523   -4.2421    0.0000 O   0  0  0  0  0  0  0  0  0  0  0  0
    4.5982    1.3376    0.0000 C   0  0  2  0  0  0  0  0  0  0  0  0
    5.0982    0.4715    0.0000 C   0  0  1  0  0  0  0  0  0  0  0  0
    7.0890    2.4375    0.0000 C   0  0  1  0  0  0  0  0  0  0  0  0
    6.8302    1.4716    0.0000 C   0  0  1  0  0  0  0  0  0  0  0  0
    8.9210    1.6787    0.0000 C   0  0  2  0  0  0  0  0  0  0  0  0
    4.5913   -0.4385    0.0000 C   0  0  1  0  0  0  0  0  0  0  0  0
    8.6622    0.7127    0.0000 C   0  0  1  0  0  0  0  0  0  0  0  0
    3.5567    1.3536    0.0000 C   0  0  0  0  0  0  0  0  0  0  0  0
    3.5497   -0.4465    0.0000 C   0  0  1  0  0  0  0  0  0  0  0  0
    3.0289    0.4556    0.0000 C   0  0  0  0  0  0  0  0  0  0  0  0
    4.0982    2.2036    0.0000 C   0  0  0  0  0  0  0  0  0  0  0  0
    6.7184    3.7861    0.0000 C   0  0  0  0  0  0  0  0  0  0  0  0
    5.1554   -1.3653    0.0000 C   0  0  0  0  0  0  0  0  0  0  0  0
    5.5336   -0.7732    0.0000 C   0  0  0  0  0  0  0  0  0  0  0  0
    4.6274   -2.3132    0.0000 C   0  0  2  0  0  0  0  0  0  0  0  0
    3.0000   -1.3819    0.0000 C   0  0  0  0  0  0  0  0  0  0  0  0
    5.1374   -3.1734    0.0000 C   0  0  0  0  0  0  0  0  0  0  0  0
    4.7413   -4.0916    0.0000 C   0  0  0  0  0  0  0  0  0  0  0  0
    6.1331   -3.2664    0.0000 C   0  0  0  0  0  0  0  0  0  0  0  0
    5.4921   -4.7520    0.0000 C   0  0  0  0  0  0  0  0  0  0  0  0
    5.7493   -0.0748    0.0000 H   0  0  0  0  0  0  0  0  0  0  0  0
    6.6102    0.6505    0.0000 H   0  0  0  0  0  0  0  0  0  0  0  0
    9.0814    2.2775    0.0000 H   0  0  0  0  0  0  0  0  0  0  0  0
    8.5017    0.1139    0.0000 H   0  0  0  0  0  0  0  0  0  0  0  0
    3.6722    1.9628    0.0000 H   0  0  0  0  0  0  0  0  0  0  0  0
    2.9763    1.5717    0.0000 H   0  0  0  0  0  0  0  0  0  0  0  0
    2.6997   -0.4432    0.0000 H   0  0  0  0  0  0  0  0  0  0  0  0
    2.5560    0.8566    0.0000 H   0  0  0  0  0  0  0  0  0  0  0  0
    2.5529    0.0583    0.0000 H   0  0  0  0  0  0  0  0  0  0  0  0
    4.6351    2.5136    0.0000 H   0  0  0  0  0  0  0  0  0  0  0  0
    3.7882    2.7405    0.0000 H   0  0  0  0  0  0  0  0  0  0  0  0
    3.5612    1.8936    0.0000 H   0  0  0  0  0  0  0  0  0  0  0  0
    5.6374   -1.7552    0.0000 H   0  0  0  0  0  0  0  0  0  0  0  0
    5.6220   -0.9571    0.0000 H   0  0  0  0  0  0  0  0  0  0  0  0
    5.3261   -1.3574    0.0000 H   0  0  0  0  0  0  0  0  0  0  0  0
    6.1178   -0.9808    0.0000 H   0  0  0  0  0  0  0  0  0  0  0  0
    5.7412   -0.1890    0.0000 H   0  0  0  0  0  0  0  0  0  0  0  0
    7.9467    3.5639    0.0000 H   0  0  0  0  0  0  0  0  0  0  0  0
    4.3226   -2.8531    0.0000 H   0  0  0  0  0  0  0  0  0  0  0  0
    4.1364   -4.2275    0.0000 H   0  0  0  0  0  0  0  0  0  0  0  0
    6.5426   -2.8009    0.0000 H   0  0  0  0  0  0  0  0  0  0  0  0
    5.4344   -5.3694    0.0000 H   0  0  0  0  0  0  0  0  0  0  0  0
 12  1  1  1  0  0  0
 14  1  1  1  0  0  0
  2 11  1  0  0  0  0
  2 19  1  0  0  0  0
 10  3  1  6  0  0  0
  3 45  1  0  0  0  0
  4 22  1  0  0  0  0
  4 23  1  0  0  0  0
  5 19  2  0  0  0  0
  6 23  2  0  0  0  0
  7 26  1  0  0  0  0
  7 27  1  0  0  0  0
  8  9  1  0  0  0  0
  8 10  1  0  0  0  0
  8 15  1  0  0  0  0
  8 18  1  6  0  0  0
  9 11  1  0  0  0  0
  9 13  1  0  0  0  0
  9 28  1  6  0  0  0
 10 12  1  0  0  0  0
 10 19  1  0  0  0  0
 11 14  1  0  0  0  0
 11 29  1  1  0  0  0
 12 14  1  0  0  0  0
 12 30  1  0  0  0  0
 13 16  1  0  0  0  0
 13 20  1  0  0  0  0
 13 21  1  1  0  0  0
 14 31  1  0  0  0  0
 15 17  1  0  0  0  0
 15 32  1  0  0  0  0
 15 33  1  0  0  0  0
 16 17  1  0  0  0  0
 16 23  1  0  0  0  0
 16 34  1  1  0  0  0
 17 35  1  0  0  0  0
 17 36  1  0  0  0  0
 18 37  1  0  0  0  0
 18 38  1  0  0  0  0
 18 39  1  0  0  0  0
 20 22  1  0  0  0  0
 20 40  1  0  0  0  0
 20 41  1  0  0  0  0
 21 42  1  0  0  0  0
 21 43  1  0  0  0  0
 21 44  1  0  0  0  0
 22 24  1  6  0  0  0
 22 46  1  0  0  0  0
 24 25  1  0  0  0  0
 24 26  2  0  0  0  0
 25 27  2  0  0  0  0
 25 47  1  0  0  0  0
 26 48  1  0  0  0  0
 27 49  1  0  0  0  0
M  END
> <PUBCHEM_COMPOUND_CID>
442012

> <PUBCHEM_COMPOUND_CANONICALIZED>
1

> <PUBCHEM_CACTVS_COMPLEXITY>
738

> <PUBCHEM_CACTVS_HBOND_ACCEPTOR>
7

> <PUBCHEM_CACTVS_HBOND_DONOR>
1

> <PUBCHEM_CACTVS_ROTATABLE_BOND>
1

> <PUBCHEM_CACTVS_SUBSKEYS>
AAADceB4OAAAAAAAAAAAAAAAEgAAASAAAAA0aJECBIAAAADRgAAAGgAACAAAD1SgmAIyDIAABkCIAijSiAICCAAkIAAIiAFGCMgNJxYENQqCWSCl4BELKYPK7PzPgAAAAAAAAADCAAYQADCAAAAAAAAAAA==

> <PUBCHEM_IUPAC_INCHI>
InChI=1S/C20H22O7/c1-18-7-11(9-4-6-24-8-9)25-16(21)10(18)3-5-19(2)14(18)12-13-15(26-13)20(19,23)17(22)27-12/h4,6,8,10-15,23H,3,5,7H2,1-2H3/t10-,11+,12+,13-,14-,15-,18+,19+,20-/m0/s1

> <PUBCHEM_IUPAC_INCHIKEY>
TXOMRNMZLZXJQP-OQDMGONLSA-N

> <PUBCHEM_XLOGP3_AA>
1.3

> <PUBCHEM_EXACT_MASS>
374.136553

> <PUBCHEM_MOLECULAR_FORMULA>
C20H22O7

> <PUBCHEM_MOLECULAR_WEIGHT>
374.38448

> <PUBCHEM_OPENEYE_CAN_SMILES>
CC12CCC3C(=O)OC(CC3(C1C4C5C(C2(C(=O)O4)O)O5)C)C6=COC=C6

> <PUBCHEM_OPENEYE_ISO_SMILES>
C[C@@]12CC[C@H]3C(=O)O[C@H](C[C@]3([C@@H]1[C@H]4[C@H]5[C@@H]([C@@]2(C(=O)O4)O)O5)C)C6=COC=C6

> <PUBCHEM_CACTVS_TPSA>
98.5

> <PUBCHEM_MONOISOTOPIC_WEIGHT>
374.136553

> <PUBCHEM_TOTAL_CHARGE>
0

> <PUBCHEM_HEAVY_ATOM_COUNT>
27

> <PUBCHEM_ATOM_DEF_STEREO_COUNT>
9

> <PUBCHEM_ATOM_UDEF_STEREO_COUNT>
0

> <PUBCHEM_BOND_DEF_STEREO_COUNT>
0

> <PUBCHEM_BOND_UDEF_STEREO_COUNT>
0

> <PUBCHEM_ISOTOPIC_ATOM_COUNT>
0

> <PUBCHEM_COMPONENT_COUNT>
1

> <PUBCHEM_CACTVS_TAUTO_COUNT>
2

> <PUBCHEM_COORDINATE_TYPE>
1
5
255

> <PUBCHEM_BONDANNOTATIONS>
12  1  5
14  1  5
11  29  5
13  21  5
16  34  5
22  24  6
24  25  8
24  26  8
25  27  8
10  3  6
7  26  8
7  27  8
8  18  6
9  28  6

$$$$

