   Color/Form

     * Solid
     * Liquid at room temperature

   from [1]HSDB

   Boiling Point
        167 deg C at 10 mm Hg
   from [2]HSDB

   Melting Point
        20 deg C
   from [3]HSDB

   Corrosivity
        Corrosive to iron, steel, brass, copper, lead
   from [4]HSDB

   Density/Specific Gravity
        1.4812 g/cu cm at 18 deg C
   from [5]HSDB

   Dissociation Constants
        pKa = -1.86
   from [6]HSDB

   Octanol/Water Partition Coefficient
        log Kow = -2.38 (est)
   from [7]HSDB

   Solubilities

     * Solubility at 26-28 deg C in wt %: hexane, 0; benzene, 1.5;
       methylcyclopentane, 0; toluene, 0.38; o-chlorotoluene, 0.23; ethyl
       disulfide, 0.47
     * Soluble in alcohol, ether
     * Soluble in water
     * In water, 1X10+6 mg/L at 20 deg C /Miscible/

   from [8]HSDB

   Spectral Properties

     * Index of refraction: 1.4317 at 18 deg C
     * 1H NMR: 8237 (Sadtler Research Laboratories Spectral Collection)

   from [9]HSDB

   Surface Tension
        5.0584X10-2 N/m at melting point
   from [10]HSDB

   Vapor Pressure
        4.28X10-4 mm Hg at 25 deg C
   from [11]HSDB

   Other Chemical/Physical Properties

     * Not hydrolyzed by boiling water or hot aqueous alkali
     * Thermally stable at moderately elevated temperatures.
     * Liquid molar volume = 0.065051 cu meter/kmol
     * Henry's Law constant = 1.26X10-8 atm-cu m/mol at 25 deg C (est)
     * Hydroxyl radical reaction rate constant = 2.76X10-13 cu
       cm/molec-sec at 25 deg C (est)

   from [12]HSDB

   Computed Properties
   Molecular Weight                  96.10566 [g/mol]
   Molecular Formula                 CH[4]O[3]S
   XLogP3-AA                         -0.9
   H-Bond Donor                      1
   H-Bond Acceptor                   3
   Rotatable Bond Count              0
   Exact Mass                        95.988115
   MonoIsotopic Mass                 95.988115
   Topological Polar Surface Area    62.8
   Heavy Atom Count                  5
   Formal Charge                     0
   Complexity                        92.6
   Isotope Atom Count                0
   Defined Atom Stereocenter Count   0
   Undefined Atom Stereocenter Count 0
   Defined Bond Stereocenter Count   0
   Undefined Bond Stereocenter Count 0
   Covalently-Bonded Unit Count      1
   Feature 3D Acceptor Count         3
   Feature 3D Anion Count            1
   Effective Rotor Count             0
   Conformer Sampling RMSD           0.4
   CID Conformer Count               [13]1

References

   1. http://toxnet.nlm.nih.gov/cgi-bin/sis/search/r?dbs+hsdb:@term+@rn+@rel+75-75-2
   2. http://toxnet.nlm.nih.gov/cgi-bin/sis/search/r?dbs+hsdb:@term+@rn+@rel+75-75-2
   3. http://toxnet.nlm.nih.gov/cgi-bin/sis/search/r?dbs+hsdb:@term+@rn+@rel+75-75-2
   4. http://toxnet.nlm.nih.gov/cgi-bin/sis/search/r?dbs+hsdb:@term+@rn+@rel+75-75-2
   5. http://toxnet.nlm.nih.gov/cgi-bin/sis/search/r?dbs+hsdb:@term+@rn+@rel+75-75-2
   6. http://toxnet.nlm.nih.gov/cgi-bin/sis/search/r?dbs+hsdb:@term+@rn+@rel+75-75-2
   7. http://toxnet.nlm.nih.gov/cgi-bin/sis/search/r?dbs+hsdb:@term+@rn+@rel+75-75-2
   8. http://toxnet.nlm.nih.gov/cgi-bin/sis/search/r?dbs+hsdb:@term+@rn+@rel+75-75-2
   9. http://toxnet.nlm.nih.gov/cgi-bin/sis/search/r?dbs+hsdb:@term+@rn+@rel+75-75-2
  10. http://toxnet.nlm.nih.gov/cgi-bin/sis/search/r?dbs+hsdb:@term+@rn+@rel+75-75-2
  11. http://toxnet.nlm.nih.gov/cgi-bin/sis/search/r?dbs+hsdb:@term+@rn+@rel+75-75-2
  12. http://toxnet.nlm.nih.gov/cgi-bin/sis/search/r?dbs+hsdb:@term+@rn+@rel+75-75-2
  13. http://pubchem.ncbi.nlm.nih.gov/vw3d/vw3d.cgi?cid=6395
