443418
  -OEChem-07051213022D

 64 68  0     1  0  0  0  0  0999 V2000
    4.6660    1.8917    0.0000 O   0  0  0  0  0  0  0  0  0  0  0  0
    6.4361    1.8676    0.0000 O   0  0  0  0  0  0  0  0  0  0  0  0
    5.5758    3.3709    0.0000 O   0  0  0  0  0  0  0  0  0  0  0  0
    2.0520    0.3225    0.0000 O   0  0  0  0  0  0  0  0  0  0  0  0
    8.1720    2.8609    0.0000 O   0  0  0  0  0  0  0  0  0  0  0  0
    8.1797    4.8609    0.0000 O   0  0  0  0  0  0  0  0  0  0  0  0
    6.4515    5.8676    0.0000 O   0  0  0  0  0  0  0  0  0  0  0  0
    5.6405   -4.8145    0.0000 O   0  0  0  0  0  0  0  0  0  0  0  0
    4.7194    5.8742    0.0000 O   0  0  0  0  0  0  0  0  0  0  0  0
    3.8372   -5.8742    0.0000 O   0  0  0  0  0  0  0  0  0  0  0  0
    2.9180   -1.1775    0.0000 N   0  0  0  0  0  0  0  0  0  0  0  0
    4.6501   -0.1775    0.0000 C   0  0  1  0  0  0  0  0  0  0  0  0
    3.7841   -1.6775    0.0000 C   0  0  2  0  0  0  0  0  0  0  0  0
    4.6501   -1.1775    0.0000 C   0  0  0  0  0  0  0  0  0  0  0  0
    5.5601    0.3293    0.0000 C   0  0  2  0  0  0  0  0  0  0  0  0
    3.7841    0.3225    0.0000 C   0  0  0  0  0  0  0  0  0  0  0  0
    5.5681    1.3709    0.0000 C   0  0  1  0  0  0  0  0  0  0  0  0
    3.8001   -2.7190    0.0000 C   0  0  0  0  0  0  0  0  0  0  0  0
    2.0080   -1.6844    0.0000 C   0  0  0  0  0  0  0  0  0  0  0  0
    2.9180   -0.1775    0.0000 C   0  0  0  0  0  0  0  0  0  0  0  0
    2.0000   -2.7260    0.0000 C   0  0  0  0  0  0  0  0  0  0  0  0
    2.9021   -3.2468    0.0000 C   0  0  0  0  0  0  0  0  0  0  0  0
    3.7680    1.3640    0.0000 C   0  0  0  0  0  0  0  0  0  0  0  0
    6.4399    2.8676    0.0000 C   0  0  2  0  0  0  0  0  0  0  0  0
    6.4203   -0.1807    0.0000 C   0  0  0  0  0  0  0  0  0  0  0  0
    7.3079    3.3642    0.0000 C   0  0  1  0  0  0  0  0  0  0  0  0
    7.3117    4.3642    0.0000 C   0  0  2  0  0  0  0  0  0  0  0  0
    6.4476    4.8676    0.0000 C   0  0  1  0  0  0  0  0  0  0  0  0
    5.5797    4.3709    0.0000 C   0  0  1  0  0  0  0  0  0  0  0  0
    4.7520   -3.2396    0.0000 C   0  0  0  0  0  0  0  0  0  0  0  0
    2.8937   -4.3317    0.0000 C   0  0  0  0  0  0  0  0  0  0  0  0
    4.7688   -4.3245    0.0000 C   0  0  0  0  0  0  0  0  0  0  0  0
    3.8334   -4.8742    0.0000 C   0  0  0  0  0  0  0  0  0  0  0  0
    4.7156    4.8742    0.0000 C   0  0  0  0  0  0  0  0  0  0  0  0
    7.2920    0.3093    0.0000 C   0  0  0  0  0  0  0  0  0  0  0  0
    5.3829   -0.6082    0.0000 H   0  0  0  0  0  0  0  0  0  0  0  0
    4.5234   -2.0968    0.0000 H   0  0  0  0  0  0  0  0  0  0  0  0
    4.8621   -1.7601    0.0000 H   0  0  0  0  0  0  0  0  0  0  0  0
    5.2607   -1.0699    0.0000 H   0  0  0  0  0  0  0  0  0  0  0  0
    5.5517   -0.2906    0.0000 H   0  0  0  0  0  0  0  0  0  0  0  0
    6.1032    1.0578    0.0000 H   0  0  0  0  0  0  0  0  0  0  0  0
    1.8035   -1.0991    0.0000 H   0  0  0  0  0  0  0  0  0  0  0  0
    1.3964   -1.7857    0.0000 H   0  0  0  0  0  0  0  0  0  0  0  0
    1.3900   -2.6152    0.0000 H   0  0  0  0  0  0  0  0  0  0  0  0
    1.7864   -3.3080    0.0000 H   0  0  0  0  0  0  0  0  0  0  0  0
    3.2275    1.6678    0.0000 H   0  0  0  0  0  0  0  0  0  0  0  0
    6.9756    2.5555    0.0000 H   0  0  0  0  0  0  0  0  0  0  0  0
    6.4131   -0.8006    0.0000 H   0  0  0  0  0  0  0  0  0  0  0  0
    7.8460    3.6722    0.0000 H   0  0  0  0  0  0  0  0  0  0  0  0
    7.8474    4.0522    0.0000 H   0  0  0  0  0  0  0  0  0  0  0  0
    6.9858    5.1755    0.0000 H   0  0  0  0  0  0  0  0  0  0  0  0
    5.0416    4.0630    0.0000 H   0  0  0  0  0  0  0  0  0  0  0  0
    5.2829   -2.9194    0.0000 H   0  0  0  0  0  0  0  0  0  0  0  0
    2.3556   -4.6397    0.0000 H   0  0  0  0  0  0  0  0  0  0  0  0
    4.1054    4.9842    0.0000 H   0  0  0  0  0  0  0  0  0  0  0  0
    4.5013    4.2924    0.0000 H   0  0  0  0  0  0  0  0  0  0  0  0
    7.8253   -0.0069    0.0000 H   0  0  0  0  0  0  0  0  0  0  0  0
    7.2992    0.9293    0.0000 H   0  0  0  0  0  0  0  0  0  0  0  0
    8.7101    3.1688    0.0000 H   0  0  0  0  0  0  0  0  0  0  0  0
    8.1820    5.4809    0.0000 H   0  0  0  0  0  0  0  0  0  0  0  0
    6.9896    6.1755    0.0000 H   0  0  0  0  0  0  0  0  0  0  0  0
    5.6477   -5.4344    0.0000 H   0  0  0  0  0  0  0  0  0  0  0  0
    4.1837    6.1863    0.0000 H   0  0  0  0  0  0  0  0  0  0  0  0
    3.3015   -6.1863    0.0000 H   0  0  0  0  0  0  0  0  0  0  0  0
  1 17  1  0  0  0  0
  1 23  1  0  0  0  0
 17  2  1  1  0  0  0
 24  2  1  6  0  0  0
  3 24  1  0  0  0  0
  3 29  1  0  0  0  0
  4 20  2  0  0  0  0
 26  5  1  1  0  0  0
  5 59  1  0  0  0  0
 27  6  1  6  0  0  0
  6 60  1  0  0  0  0
 28  7  1  1  0  0  0
  7 61  1  0  0  0  0
  8 32  1  0  0  0  0
  8 62  1  0  0  0  0
  9 34  1  0  0  0  0
  9 63  1  0  0  0  0
 10 33  1  0  0  0  0
 10 64  1  0  0  0  0
 11 13  1  0  0  0  0
 11 19  1  0  0  0  0
 11 20  1  0  0  0  0
 12 14  1  0  0  0  0
 12 15  1  0  0  0  0
 12 16  1  0  0  0  0
 12 36  1  1  0  0  0
 13 14  1  0  0  0  0
 13 18  1  0  0  0  0
 13 37  1  1  0  0  0
 14 38  1  0  0  0  0
 14 39  1  0  0  0  0
 15 17  1  0  0  0  0
 15 25  1  6  0  0  0
 15 40  1  0  0  0  0
 16 20  1  0  0  0  0
 16 23  2  0  0  0  0
 17 41  1  0  0  0  0
 18 22  1  0  0  0  0
 18 30  2  0  0  0  0
 19 21  1  0  0  0  0
 19 42  1  0  0  0  0
 19 43  1  0  0  0  0
 21 22  1  0  0  0  0
 21 44  1  0  0  0  0
 21 45  1  0  0  0  0
 22 31  2  0  0  0  0
 23 46  1  0  0  0  0
 24 26  1  0  0  0  0
 24 47  1  0  0  0  0
 25 35  2  0  0  0  0
 25 48  1  0  0  0  0
 26 27  1  0  0  0  0
 26 49  1  0  0  0  0
 27 28  1  0  0  0  0
 27 50  1  0  0  0  0
 28 29  1  0  0  0  0
 28 51  1  0  0  0  0
 29 34  1  6  0  0  0
 29 52  1  0  0  0  0
 30 32  1  0  0  0  0
 30 53  1  0  0  0  0
 31 33  1  0  0  0  0
 31 54  1  0  0  0  0
 32 33  2  0  0  0  0
 34 55  1  0  0  0  0
 34 56  1  0  0  0  0
 35 57  1  0  0  0  0
 35 58  1  0  0  0  0
M  END
> <PUBCHEM_COMPOUND_CID>
443418

> <PUBCHEM_COMPOUND_CANONICALIZED>
1

> <PUBCHEM_CACTVS_COMPLEXITY>
852

> <PUBCHEM_CACTVS_HBOND_ACCEPTOR>
10

> <PUBCHEM_CACTVS_HBOND_DONOR>
6

> <PUBCHEM_CACTVS_ROTATABLE_BOND>
4

> <PUBCHEM_CACTVS_SUBSKEYS>
AAADceB6PAAAAAAAAAAAAAAAAAAAAAAAAAA8WJECAAAAAACxAAAAHgAACAAADTzxmAcwDoMABgCIAiFSEACCCAAgIAAIiAEOjMgZNjKCkROmcAllxhGPmIf4/f+eoAABAAAQQABAAAIAACCAAAAAAAAAAA==

> <PUBCHEM_IUPAC_INCHI>
InChI=1S/C24H29NO10/c1-2-11-13-6-15-12-7-17(28)16(27)5-10(12)3-4-25(15)22(32)14(13)9-33-23(11)35-24-21(31)20(30)19(29)18(8-26)34-24/h2,5,7,9,11,13,15,18-21,23-24,26-31H,1,3-4,6,8H2/t11-,13+,15-,18-,19-,20+,21-,23+,24+/m1/s1

> <PUBCHEM_IUPAC_INCHIKEY>
ODZVWJRTEQQVCO-RJRDEGSCSA-N

> <PUBCHEM_XLOGP3_AA>
-0.5

> <PUBCHEM_EXACT_MASS>
491.179146

> <PUBCHEM_MOLECULAR_FORMULA>
C24H29NO10

> <PUBCHEM_MOLECULAR_WEIGHT>
491.48776

> <PUBCHEM_OPENEYE_CAN_SMILES>
C=CC1C2CC3C4=CC(=C(C=C4CCN3C(=O)C2=COC1OC5C(C(C(C(O5)CO)O)O)O)O)O

> <PUBCHEM_OPENEYE_ISO_SMILES>
C=C[C@@H]1[C@@H]2C[C@@H]3C4=CC(=C(C=C4CCN3C(=O)C2=CO[C@H]1O[C@H]5[C@@H]([C@H]([C@@H]([C@H](O5)CO)O)O)O)O)O

> <PUBCHEM_CACTVS_TPSA>
169

> <PUBCHEM_MONOISOTOPIC_WEIGHT>
491.179146

> <PUBCHEM_TOTAL_CHARGE>
0

> <PUBCHEM_HEAVY_ATOM_COUNT>
35

> <PUBCHEM_ATOM_DEF_STEREO_COUNT>
9

> <PUBCHEM_ATOM_UDEF_STEREO_COUNT>
0

> <PUBCHEM_BOND_DEF_STEREO_COUNT>
0

> <PUBCHEM_BOND_UDEF_STEREO_COUNT>
0

> <PUBCHEM_ISOTOPIC_ATOM_COUNT>
0

> <PUBCHEM_COMPONENT_COUNT>
1

> <PUBCHEM_CACTVS_TAUTO_COUNT>
18

> <PUBCHEM_COORDINATE_TYPE>
1
5
255

> <PUBCHEM_BONDANNOTATIONS>
12  36  5
13  37  5
15  25  6
18  22  8
18  30  8
17  2  5
24  2  6
22  31  8
29  34  6
30  32  8
31  33  8
32  33  8
26  5  5
27  6  6
28  7  5

$$$$

