5281308
  -OEChem-07051212562D

 69 74  0     1  0  0  0  0  0999 V2000
    5.4246   -1.7134    0.0000 O   0  0  0  0  0  0  0  0  0  0  0  0
    3.9393   -1.8087    0.0000 O   0  0  0  0  0  0  0  0  0  0  0  0
    4.7977   -1.9728    0.0000 O   0  0  0  0  0  0  0  0  0  0  0  0
    8.1192   -2.2550    0.0000 O   0  0  0  0  0  0  0  0  0  0  0  0
    3.3522    0.6030    0.0000 O   0  0  0  0  0  0  0  0  0  0  0  0
    2.1905    0.0736    0.0000 O   0  0  0  0  0  0  0  0  0  0  0  0
    7.2133   -3.7758    0.0000 O   0  0  0  0  0  0  0  0  0  0  0  0
   10.0401    0.5115    0.0000 O   0  0  0  0  0  0  0  0  0  0  0  0
    2.5117    2.8242    0.0000 O   0  0  0  0  0  0  0  0  0  0  0  0
    2.8747    1.1306    0.0000 O   0  0  0  0  0  0  0  0  0  0  0  0
    5.4691   -0.7065    0.0000 C   0  0  1  0  0  0  0  0  0  0  0  0
    6.3351   -1.2065    0.0000 C   0  0  1  0  0  0  0  0  0  0  0  0
    5.4691    0.2935    0.0000 C   0  0  1  0  0  0  0  0  0  0  0  0
    7.2012   -0.7065    0.0000 C   0  0  1  0  0  0  0  0  0  0  0  0
    4.5229   -1.0112    0.0000 C   0  0  1  0  0  0  0  0  0  0  0  0
    4.5229    0.5982    0.0000 C   0  0  1  0  0  0  0  0  0  0  0  0
    3.9393   -0.2065    0.0000 C   0  0  2  0  0  0  0  0  0  0  0  0
    6.3191   -2.2480    0.0000 C   0  0  1  0  0  0  0  0  0  0  0  0
    6.3351    0.7935    0.0000 C   0  0  0  0  0  0  0  0  0  0  0  0
    7.2012    0.2935    0.0000 C   0  0  0  0  0  0  0  0  0  0  0  0
    6.1192   -1.8323    0.0000 C   0  0  0  0  0  0  0  0  0  0  0  0
    8.1112   -1.2134    0.0000 C   0  0  2  0  0  0  0  0  0  0  0  0
    3.0000   -0.5135    0.0000 C   0  0  0  0  0  0  0  0  0  0  0  0
    8.0672   -0.2065    0.0000 C   0  0  0  0  0  0  0  0  0  0  0  0
    3.0000   -1.5017    0.0000 C   0  0  0  0  0  0  0  0  0  0  0  0
    7.2171   -2.7758    0.0000 C   0  0  0  0  0  0  0  0  0  0  0  0
    3.7129    1.1846    0.0000 C   0  0  0  0  0  0  0  0  0  0  0  0
    4.8303    1.5498    0.0000 C   0  0  0  0  0  0  0  0  0  0  0  0
    8.9714   -0.7034    0.0000 C   0  0  0  0  0  0  0  0  0  0  0  0
    2.6902   -2.4525    0.0000 C   0  0  0  0  0  0  0  0  0  0  0  0
    2.0000   -1.5008    0.0000 C   0  0  0  0  0  0  0  0  0  0  0  0
    4.1599    2.2918    0.0000 C   0  0  0  0  0  0  0  0  0  0  0  0
    9.8896   -1.0995    0.0000 C   0  0  0  0  0  0  0  0  0  0  0  0
    9.0644    0.2923    0.0000 C   0  0  0  0  0  0  0  0  0  0  0  0
    3.1821    2.0822    0.0000 C   0  0  0  0  0  0  0  0  0  0  0  0
   10.5500   -0.3487    0.0000 C   0  0  0  0  0  0  0  0  0  0  0  0
    2.8190    3.7758    0.0000 C   0  0  0  0  0  0  0  0  0  0  0  0
    5.3792    1.1387    0.0000 H   0  0  0  0  0  0  0  0  0  0  0  0
    5.8857   -2.9792    0.0000 H   0  0  0  0  0  0  0  0  0  0  0  0
    6.7337    1.2684    0.0000 H   0  0  0  0  0  0  0  0  0  0  0  0
    5.9366    1.2684    0.0000 H   0  0  0  0  0  0  0  0  0  0  0  0
    7.8118    0.1858    0.0000 H   0  0  0  0  0  0  0  0  0  0  0  0
    7.4132    0.8761    0.0000 H   0  0  0  0  0  0  0  0  0  0  0  0
    5.5823   -2.1423    0.0000 H   0  0  0  0  0  0  0  0  0  0  0  0
    6.4293   -2.3692    0.0000 H   0  0  0  0  0  0  0  0  0  0  0  0
    6.6561   -1.5222    0.0000 H   0  0  0  0  0  0  0  0  0  0  0  0
    8.6511   -1.5182    0.0000 H   0  0  0  0  0  0  0  0  0  0  0  0
    8.3772   -0.7434    0.0000 H   0  0  0  0  0  0  0  0  0  0  0  0
    8.6041    0.1035    0.0000 H   0  0  0  0  0  0  0  0  0  0  0  0
    7.7572    0.3304    0.0000 H   0  0  0  0  0  0  0  0  0  0  0  0
    4.0764    1.6868    0.0000 H   0  0  0  0  0  0  0  0  0  0  0  0
    3.2106    1.5482    0.0000 H   0  0  0  0  0  0  0  0  0  0  0  0
    3.3493    0.6824    0.0000 H   0  0  0  0  0  0  0  0  0  0  0  0
    5.4365    1.6798    0.0000 H   0  0  0  0  0  0  0  0  0  0  0  0
    4.3666   -2.4184    0.0000 H   0  0  0  0  0  0  0  0  0  0  0  0
    2.7356    0.5387    0.0000 H   0  0  0  0  0  0  0  0  0  0  0  0
    2.0005   -0.8808    0.0000 H   0  0  0  0  0  0  0  0  0  0  0  0
    1.3800   -1.5003    0.0000 H   0  0  0  0  0  0  0  0  0  0  0  0
    1.9995   -2.1208    0.0000 H   0  0  0  0  0  0  0  0  0  0  0  0
    2.1007   -2.2604    0.0000 H   0  0  0  0  0  0  0  0  0  0  0  0
    2.4981   -3.0420    0.0000 H   0  0  0  0  0  0  0  0  0  0  0  0
    3.2796   -2.6446    0.0000 H   0  0  0  0  0  0  0  0  0  0  0  0
    4.3504    2.8818    0.0000 H   0  0  0  0  0  0  0  0  0  0  0  0
   10.0255   -1.7044    0.0000 H   0  0  0  0  0  0  0  0  0  0  0  0
    8.5989    0.7018    0.0000 H   0  0  0  0  0  0  0  0  0  0  0  0
   11.1674   -0.4064    0.0000 H   0  0  0  0  0  0  0  0  0  0  0  0
    3.4090    3.5852    0.0000 H   0  0  0  0  0  0  0  0  0  0  0  0
    3.0096    4.3658    0.0000 H   0  0  0  0  0  0  0  0  0  0  0  0
    2.2290    3.9663    0.0000 H   0  0  0  0  0  0  0  0  0  0  0  0
 12  1  1  1  0  0  0
  1 18  1  0  0  0  0
  2 15  1  0  0  0  0
  2 25  1  0  0  0  0
 15  3  1  1  0  0  0
  3 55  1  0  0  0  0
  4 22  1  0  0  0  0
  4 26  1  0  0  0  0
 17  5  1  1  0  0  0
  5 56  1  0  0  0  0
  6 23  2  0  0  0  0
  7 26  2  0  0  0  0
  8 34  1  0  0  0  0
  8 36  1  0  0  0  0
  9 35  1  0  0  0  0
  9 37  1  0  0  0  0
 10 35  2  0  0  0  0
 11 12  1  0  0  0  0
 11 13  1  0  0  0  0
 11 15  1  0  0  0  0
 11 21  1  1  0  0  0
 12 14  1  0  0  0  0
 12 18  1  0  0  0  0
 13 16  1  0  0  0  0
 13 19  1  0  0  0  0
 13 38  1  6  0  0  0
 14 20  1  0  0  0  0
 14 22  1  0  0  0  0
 14 24  1  6  0  0  0
 15 17  1  0  0  0  0
 16 17  1  0  0  0  0
 16 27  1  1  0  0  0
 16 28  1  0  0  0  0
 17 23  1  0  0  0  0
 18 26  1  0  0  0  0
 18 39  1  6  0  0  0
 19 20  1  0  0  0  0
 19 40  1  0  0  0  0
 19 41  1  0  0  0  0
 20 42  1  0  0  0  0
 20 43  1  0  0  0  0
 21 44  1  0  0  0  0
 21 45  1  0  0  0  0
 21 46  1  0  0  0  0
 22 29  1  6  0  0  0
 22 47  1  0  0  0  0
 23 25  1  0  0  0  0
 24 48  1  0  0  0  0
 24 49  1  0  0  0  0
 24 50  1  0  0  0  0
 25 30  1  0  0  0  0
 25 31  1  0  0  0  0
 27 51  1  0  0  0  0
 27 52  1  0  0  0  0
 27 53  1  0  0  0  0
 28 32  2  0  0  0  0
 28 54  1  0  0  0  0
 29 33  1  0  0  0  0
 29 34  2  0  0  0  0
 30 60  1  0  0  0  0
 30 61  1  0  0  0  0
 30 62  1  0  0  0  0
 31 57  1  0  0  0  0
 31 58  1  0  0  0  0
 31 59  1  0  0  0  0
 32 35  1  0  0  0  0
 32 63  1  0  0  0  0
 33 36  2  0  0  0  0
 33 64  1  0  0  0  0
 34 65  1  0  0  0  0
 36 66  1  0  0  0  0
 37 67  1  0  0  0  0
 37 68  1  0  0  0  0
 37 69  1  0  0  0  0
M  END
> <PUBCHEM_COMPOUND_CID>
5281308

> <PUBCHEM_COMPOUND_CANONICALIZED>
1

> <PUBCHEM_CACTVS_COMPLEXITY>
1130

> <PUBCHEM_CACTVS_HBOND_ACCEPTOR>
10

> <PUBCHEM_CACTVS_HBOND_DONOR>
2

> <PUBCHEM_CACTVS_ROTATABLE_BOND>
4

> <PUBCHEM_CACTVS_SUBSKEYS>
AAADcfB4PAAAAAAAAAAAAAAAEgAAAaJEAAA0QAAABIASAGCRgAAAGgAACAAAD1SgmAIyDIAABkCIAqjSiAICCAAkIAAIiAFGCMgdJxYENQ6CWSCl4BEPKYPK7PzPgAAAAAAAAACAAAYAADAAAYAADCAAAA==

> <PUBCHEM_IUPAC_INCHI>
InChI=1S/C27H32O10/c1-21(2)20(30)25(31)22(3,11-8-16(28)33-6)15-7-10-23(4)17(14-9-12-34-13-14)35-19(29)18-26(23,36-18)24(15,5)27(25,32)37-21/h8-9,11-13,15,17-18,31-32H,7,10H2,1-6H3/b11-8-/t15-,17+,18-,22-,23+,24-,25+,26-,27+/m1/s1

> <PUBCHEM_IUPAC_INCHIKEY>
DYNIRWNERRSOEV-HPGFDZHLSA-N

> <PUBCHEM_XLOGP3_AA>
1.6

> <PUBCHEM_EXACT_MASS>
516.199547

> <PUBCHEM_MOLECULAR_FORMULA>
C27H32O10

> <PUBCHEM_MOLECULAR_WEIGHT>
516.53698

> <PUBCHEM_OPENEYE_CAN_SMILES>
CC1(C(=O)C2(C(C3CCC4(C(OC(=O)C5C4(C3(C2(O1)O)C)O5)C6=COC=C6)C)(C)C=CC(=O)OC)O)C

> <PUBCHEM_OPENEYE_ISO_SMILES>
C[C@@]12CC[C@@H]3[C@@]([C@]4(C(=O)C(O[C@]4([C@]3([C@@]15[C@H](O5)C(=O)O[C@H]2C6=COC=C6)C)O)(C)C)O)(C)/C=C\C(=O)OC

> <PUBCHEM_CACTVS_TPSA>
145

> <PUBCHEM_MONOISOTOPIC_WEIGHT>
516.199547

> <PUBCHEM_TOTAL_CHARGE>
0

> <PUBCHEM_HEAVY_ATOM_COUNT>
37

> <PUBCHEM_ATOM_DEF_STEREO_COUNT>
9

> <PUBCHEM_ATOM_UDEF_STEREO_COUNT>
0

> <PUBCHEM_BOND_DEF_STEREO_COUNT>
1

> <PUBCHEM_BOND_UDEF_STEREO_COUNT>
0

> <PUBCHEM_ISOTOPIC_ATOM_COUNT>
0

> <PUBCHEM_COMPONENT_COUNT>
1

> <PUBCHEM_CACTVS_TAUTO_COUNT>
2

> <PUBCHEM_COORDINATE_TYPE>
1
5
255

> <PUBCHEM_BONDANNOTATIONS>
12  1  5
11  21  5
13  38  6
14  24  6
16  27  5
18  39  6
22  29  6
29  33  8
29  34  8
15  3  5
33  36  8
17  5  5
8  34  8
8  36  8

$$$$

