242863
  -OEChem-07051213062D

 54 57  0     1  0  0  0  0  0999 V2000
    9.5141    1.9460    0.0000 O   0  0  0  0  0  0  0  0  0  0  0  0
   10.5960   -0.3971    0.0000 O   0  0  0  0  0  0  0  0  0  0  0  0
    2.8641   -2.3616    0.0000 O   0  0  0  0  0  0  0  0  0  0  0  0
    8.2572    0.6907    0.0000 C   0  0  1  0  0  0  0  0  0  0  0  0
    8.2572   -0.3093    0.0000 C   0  0  2  0  0  0  0  0  0  0  0  0
    7.3912   -0.8093    0.0000 C   0  0  1  0  0  0  0  0  0  0  0  0
    9.2034    0.9955    0.0000 C   0  0  2  0  0  0  0  0  0  0  0  0
    9.2034   -0.6140    0.0000 C   0  0  0  0  0  0  0  0  0  0  0  0
    9.7870    0.1907    0.0000 C   0  0  2  0  0  0  0  0  0  0  0  0
    6.5251   -0.3093    0.0000 C   0  0  2  0  0  0  0  0  0  0  0  0
    7.3912    1.1907    0.0000 C   0  0  0  0  0  0  0  0  0  0  0  0
    6.5251    0.6907    0.0000 C   0  0  0  0  0  0  0  0  0  0  0  0
    7.4072   -1.8508    0.0000 C   0  0  0  0  0  0  0  0  0  0  0  0
    8.2572    1.6907    0.0000 C   0  0  0  0  0  0  0  0  0  0  0  0
   10.5960    0.7785    0.0000 C   0  0  0  0  0  0  0  0  0  0  0  0
    5.6151   -0.8161    0.0000 C   0  0  0  0  0  0  0  0  0  0  0  0
    6.5092   -2.3785    0.0000 C   0  0  0  0  0  0  0  0  0  0  0  0
    5.6071   -1.8577    0.0000 C   0  0  0  0  0  0  0  0  0  0  0  0
   10.4915    1.7730    0.0000 C   0  0  0  0  0  0  0  0  0  0  0  0
    4.6883   -0.2520    0.0000 C   0  0  0  0  0  0  0  0  0  0  0  0
    4.6717   -2.4074    0.0000 C   0  0  0  0  0  0  0  0  0  0  0  0
    3.7404   -0.7800    0.0000 C   0  0  0  0  0  0  0  0  0  0  0  0
    3.7320   -1.8650    0.0000 C   0  0  0  0  0  0  0  0  0  0  0  0
    2.0000   -1.8583    0.0000 C   0  0  0  0  0  0  0  0  0  0  0  0
    8.3471   -1.1545    0.0000 H   0  0  0  0  0  0  0  0  0  0  0  0
    8.1305   -1.2286    0.0000 H   0  0  0  0  0  0  0  0  0  0  0  0
    9.8159    1.0916    0.0000 H   0  0  0  0  0  0  0  0  0  0  0  0
    8.9524   -1.1809    0.0000 H   0  0  0  0  0  0  0  0  0  0  0  0
    9.7408   -0.9232    0.0000 H   0  0  0  0  0  0  0  0  0  0  0  0
    7.2612    0.1157    0.0000 H   0  0  0  0  0  0  0  0  0  0  0  0
    7.7897    1.6657    0.0000 H   0  0  0  0  0  0  0  0  0  0  0  0
    6.9926    1.6657    0.0000 H   0  0  0  0  0  0  0  0  0  0  0  0
    6.3131    1.2733    0.0000 H   0  0  0  0  0  0  0  0  0  0  0  0
    5.9145    0.5831    0.0000 H   0  0  0  0  0  0  0  0  0  0  0  0
    7.6252   -2.4312    0.0000 H   0  0  0  0  0  0  0  0  0  0  0  0
    8.0164   -1.7353    0.0000 H   0  0  0  0  0  0  0  0  0  0  0  0
    8.8772    1.6907    0.0000 H   0  0  0  0  0  0  0  0  0  0  0  0
    8.2572    2.3107    0.0000 H   0  0  0  0  0  0  0  0  0  0  0  0
    7.6372    1.6907    0.0000 H   0  0  0  0  0  0  0  0  0  0  0  0
   10.8678    0.2213    0.0000 H   0  0  0  0  0  0  0  0  0  0  0  0
   11.1920    0.9494    0.0000 H   0  0  0  0  0  0  0  0  0  0  0  0
    6.1119   -2.8545    0.0000 H   0  0  0  0  0  0  0  0  0  0  0  0
    6.9101   -2.8514    0.0000 H   0  0  0  0  0  0  0  0  0  0  0  0
    9.1000    2.4074    0.0000 H   0  0  0  0  0  0  0  0  0  0  0  0
   11.1624   -0.1449    0.0000 H   0  0  0  0  0  0  0  0  0  0  0  0
   11.1081    1.8378    0.0000 H   0  0  0  0  0  0  0  0  0  0  0  0
   10.4267    2.3896    0.0000 H   0  0  0  0  0  0  0  0  0  0  0  0
    9.8749    1.7082    0.0000 H   0  0  0  0  0  0  0  0  0  0  0  0
    4.7002    0.3678    0.0000 H   0  0  0  0  0  0  0  0  0  0  0  0
    4.6741   -3.0274    0.0000 H   0  0  0  0  0  0  0  0  0  0  0  0
    3.2071   -0.4638    0.0000 H   0  0  0  0  0  0  0  0  0  0  0  0
    2.3121   -1.3225    0.0000 H   0  0  0  0  0  0  0  0  0  0  0  0
    1.4643   -1.5462    0.0000 H   0  0  0  0  0  0  0  0  0  0  0  0
    1.6879   -2.3940    0.0000 H   0  0  0  0  0  0  0  0  0  0  0  0
  7  1  1  1  0  0  0
  1 44  1  0  0  0  0
  9  2  1  1  0  0  0
  2 45  1  0  0  0  0
  3 23  1  0  0  0  0
  3 24  1  0  0  0  0
  4  5  1  0  0  0  0
  4  7  1  0  0  0  0
  4 11  1  0  0  0  0
  4 14  1  1  0  0  0
  5  6  1  0  0  0  0
  5  8  1  0  0  0  0
  5 25  1  6  0  0  0
  6 10  1  0  0  0  0
  6 13  1  0  0  0  0
  6 26  1  1  0  0  0
  7  9  1  0  0  0  0
  7 27  1  0  0  0  0
  8  9  1  0  0  0  0
  8 28  1  0  0  0  0
  8 29  1  0  0  0  0
  9 15  1  0  0  0  0
 10 12  1  0  0  0  0
 10 16  1  0  0  0  0
 10 30  1  6  0  0  0
 11 12  1  0  0  0  0
 11 31  1  0  0  0  0
 11 32  1  0  0  0  0
 12 33  1  0  0  0  0
 12 34  1  0  0  0  0
 13 17  1  0  0  0  0
 13 35  1  0  0  0  0
 13 36  1  0  0  0  0
 14 37  1  0  0  0  0
 14 38  1  0  0  0  0
 14 39  1  0  0  0  0
 15 19  1  0  0  0  0
 15 40  1  0  0  0  0
 15 41  1  0  0  0  0
 16 18  2  0  0  0  0
 16 20  1  0  0  0  0
 17 18  1  0  0  0  0
 17 42  1  0  0  0  0
 17 43  1  0  0  0  0
 18 21  1  0  0  0  0
 19 46  1  0  0  0  0
 19 47  1  0  0  0  0
 19 48  1  0  0  0  0
 20 22  2  0  0  0  0
 20 49  1  0  0  0  0
 21 23  2  0  0  0  0
 21 50  1  0  0  0  0
 22 23  1  0  0  0  0
 22 51  1  0  0  0  0
 24 52  1  0  0  0  0
 24 53  1  0  0  0  0
 24 54  1  0  0  0  0
M  END
> <PUBCHEM_COMPOUND_CID>
242863

> <PUBCHEM_COMPOUND_CANONICALIZED>
1

> <PUBCHEM_CACTVS_COMPLEXITY>
480

> <PUBCHEM_CACTVS_HBOND_ACCEPTOR>
3

> <PUBCHEM_CACTVS_HBOND_DONOR>
2

> <PUBCHEM_CACTVS_ROTATABLE_BOND>
2

> <PUBCHEM_CACTVS_SUBSKEYS>
AAADceB4MAAAAAAAAAAAAAAAAAAAAYAAAAAwYMAAAAAAAGDBAAAAGgAACAAAD1SgmAIyBoAABgCAAiBCAAACCAAgIAAIiAAGCIgNNiKEMRqAcCAkwBEJqAeA4PQPoAABAAAQAADAAAYAACAAAYAADCAAAA==

> <PUBCHEM_IUPAC_OPENEYE_NAME>
(8R,9S,13S,14S,16S,17R)-16-ethyl-3-methoxy-13-methyl-7,8,9,11,12,14,15,17-octahydro-6H-cyclopenta[a]phenanthrene-16,17-diol

> <PUBCHEM_IUPAC_CAS_NAME>
(8R,9S,13S,14S,16S,17R)-16-ethyl-3-methoxy-13-methyl-7,8,9,11,12,14,15,17-octahydro-6H-cyclopenta[a]phenanthrene-16,17-diol

> <PUBCHEM_IUPAC_NAME>
(8R,9S,13S,14S,16S,17R)-16-ethyl-3-methoxy-13-methyl-7,8,9,11,12,14,15,17-octahydro-6H-cyclopenta[a]phenanthrene-16,17-diol

> <PUBCHEM_IUPAC_SYSTEMATIC_NAME>
(8R,9S,13S,14S,16S,17R)-16-ethyl-3-methoxy-13-methyl-7,8,9,11,12,14,15,17-octahydro-6H-cyclopenta[a]phenanthrene-16,17-diol

> <PUBCHEM_IUPAC_TRADITIONAL_NAME>
(8R,9S,13S,14S,16S,17R)-16-ethyl-3-methoxy-13-methyl-7,8,9,11,12,14,15,17-octahydro-6H-cyclopenta[a]phenanthrene-16,17-diol

> <PUBCHEM_IUPAC_INCHI>
InChI=1S/C21H30O3/c1-4-21(23)12-18-17-7-5-13-11-14(24-3)6-8-15(13)16(17)9-10-20(18,2)19(21)22/h6,8,11,16-19,22-23H,4-5,7,9-10,12H2,1-3H3/t16-,17-,18+,19-,20+,21+/m1/s1

> <PUBCHEM_IUPAC_INCHIKEY>
MIAWQCWOHVVLMH-YQPXSLGVSA-N

> <PUBCHEM_XLOGP3>
2.8

> <PUBCHEM_EXACT_MASS>
330.219495

> <PUBCHEM_MOLECULAR_FORMULA>
C21H30O3

> <PUBCHEM_MOLECULAR_WEIGHT>
330.4611

> <PUBCHEM_OPENEYE_CAN_SMILES>
CCC1(CC2C3CCC4=C(C3CCC2(C1O)C)C=CC(=C4)OC)O

> <PUBCHEM_OPENEYE_ISO_SMILES>
CC[C@@]1(C[C@H]2[C@@H]3CCC4=C([C@H]3CC[C@@]2([C@H]1O)C)C=CC(=C4)OC)O

> <PUBCHEM_CACTVS_TPSA>
49.7

> <PUBCHEM_MONOISOTOPIC_WEIGHT>
330.219495

> <PUBCHEM_TOTAL_CHARGE>
0

> <PUBCHEM_HEAVY_ATOM_COUNT>
24

> <PUBCHEM_ATOM_DEF_STEREO_COUNT>
6

> <PUBCHEM_ATOM_UDEF_STEREO_COUNT>
0

> <PUBCHEM_BOND_DEF_STEREO_COUNT>
0

> <PUBCHEM_BOND_UDEF_STEREO_COUNT>
0

> <PUBCHEM_ISOTOPIC_ATOM_COUNT>
0

> <PUBCHEM_COMPONENT_COUNT>
1

> <PUBCHEM_CACTVS_TAUTO_COUNT>
1

> <PUBCHEM_COORDINATE_TYPE>
1
5
255

> <PUBCHEM_BONDANNOTATIONS>
7  1  5
10  30  6
16  18  8
16  20  8
18  21  8
9  2  5
20  22  8
21  23  8
22  23  8
4  14  5
5  25  6
6  26  5

$$$$

