440553
  -OEChem-07051212502D

 20 21  0     1  0  0  0  0  0999 V2000
    2.8660   -1.1550    0.0000 N   0  0  0  0  0  0  0  0  0  0  0  0
    4.6783    0.6497    0.0000 N   0  0  0  0  0  0  0  0  0  0  0  0
    2.0000    0.3450    0.0000 N   0  0  0  0  0  0  0  0  0  0  0  0
    4.6783   -0.9597    0.0000 N   0  0  0  0  0  0  0  0  0  0  0  0
    2.8660    1.8450    0.0000 N   0  0  0  0  0  0  0  0  0  0  0  0
    3.7320    0.3450    0.0000 C   0  0  0  0  0  0  0  0  0  0  0  0
    2.8660    0.8450    0.0000 C   0  0  3  0  0  0  0  0  0  0  0  0
    3.7320   -0.6550    0.0000 C   0  0  0  0  0  0  0  0  0  0  0  0
    2.0000   -0.6550    0.0000 C   0  0  0  0  0  0  0  0  0  0  0  0
    5.2619   -0.1550    0.0000 C   0  0  0  0  0  0  0  0  0  0  0  0
    2.8660   -2.1550    0.0000 C   0  0  0  0  0  0  0  0  0  0  0  0
    3.4030    1.1550    0.0000 H   0  0  0  0  0  0  0  0  0  0  0  0
    4.8709    1.2390    0.0000 H   0  0  0  0  0  0  0  0  0  0  0  0
    1.4631   -0.9650    0.0000 H   0  0  0  0  0  0  0  0  0  0  0  0
    5.8819   -0.1550    0.0000 H   0  0  0  0  0  0  0  0  0  0  0  0
    2.2460   -2.1550    0.0000 H   0  0  0  0  0  0  0  0  0  0  0  0
    2.8660   -2.7750    0.0000 H   0  0  0  0  0  0  0  0  0  0  0  0
    3.4860   -2.1550    0.0000 H   0  0  0  0  0  0  0  0  0  0  0  0
    2.3291    2.1550    0.0000 H   0  0  0  0  0  0  0  0  0  0  0  0
    3.4030    2.1550    0.0000 H   0  0  0  0  0  0  0  0  0  0  0  0
  1  8  1  0  0  0  0
  1  9  1  0  0  0  0
  1 11  1  0  0  0  0
  2  6  1  0  0  0  0
  2 10  1  0  0  0  0
  2 13  1  0  0  0  0
  3  7  1  0  0  0  0
  3  9  2  0  0  0  0
  4  8  1  0  0  0  0
  4 10  2  0  0  0  0
  5  7  1  0  0  0  0
  5 19  1  0  0  0  0
  5 20  1  0  0  0  0
  6  7  1  0  0  0  0
  6  8  2  0  0  0  0
  7 12  1  0  0  0  0
  9 14  1  0  0  0  0
 10 15  1  0  0  0  0
 11 16  1  0  0  0  0
 11 17  1  0  0  0  0
 11 18  1  0  0  0  0
M  END
> <PUBCHEM_COMPOUND_CID>
440553

> <PUBCHEM_COMPOUND_CANONICALIZED>
1

> <PUBCHEM_CACTVS_COMPLEXITY>
180

> <PUBCHEM_CACTVS_HBOND_ACCEPTOR>
3

> <PUBCHEM_CACTVS_HBOND_DONOR>
2

> <PUBCHEM_CACTVS_ROTATABLE_BOND>
0

> <PUBCHEM_CACTVS_SUBSKEYS>
AAADccBjgAAAAAAAAAAAAAAAAAAAAWAAAAAgAAAAAAAAAEABgAAAHAAQAAAACAjBFgQHsBfJkACgAQZhZACAgC2REKABUYA4VACASABASAAUAAAIEAJAACAAAAAAAAAAAAAAAAAAAAAAAAAAAAAAAAAAAA==

> <PUBCHEM_IUPAC_OPENEYE_NAME>
3-methyl-6,7-dihydropurin-6-amine

> <PUBCHEM_IUPAC_CAS_NAME>
3-methyl-6,7-dihydropurin-6-amine

> <PUBCHEM_IUPAC_NAME>
3-methyl-6,7-dihydropurin-6-amine

> <PUBCHEM_IUPAC_SYSTEMATIC_NAME>
3-methyl-6,7-dihydropurin-6-amine

> <PUBCHEM_IUPAC_TRADITIONAL_NAME>
(3-methyl-6,7-dihydropurin-6-yl)amine

> <PUBCHEM_IUPAC_INCHI>
InChI=1S/C6H9N5/c1-11-3-10-5(7)4-6(11)9-2-8-4/h2-3,5H,7H2,1H3,(H,8,9)

> <PUBCHEM_IUPAC_INCHIKEY>
ICMSBKUUXMDWAQ-UHFFFAOYSA-N

> <PUBCHEM_XLOGP3_AA>
-1.4

> <PUBCHEM_EXACT_MASS>
151.085795

> <PUBCHEM_MOLECULAR_FORMULA>
C6H9N5

> <PUBCHEM_MOLECULAR_WEIGHT>
151.16916

> <PUBCHEM_OPENEYE_CAN_SMILES>
CN1C=NC(C2=C1N=CN2)N

> <PUBCHEM_OPENEYE_ISO_SMILES>
CN1C=NC(C2=C1N=CN2)N

> <PUBCHEM_CACTVS_TPSA>
70.3

> <PUBCHEM_MONOISOTOPIC_WEIGHT>
151.085795

> <PUBCHEM_TOTAL_CHARGE>
0

> <PUBCHEM_HEAVY_ATOM_COUNT>
11

> <PUBCHEM_ATOM_DEF_STEREO_COUNT>
0

> <PUBCHEM_ATOM_UDEF_STEREO_COUNT>
1

> <PUBCHEM_BOND_DEF_STEREO_COUNT>
0

> <PUBCHEM_BOND_UDEF_STEREO_COUNT>
0

> <PUBCHEM_ISOTOPIC_ATOM_COUNT>
0

> <PUBCHEM_COMPONENT_COUNT>
1

> <PUBCHEM_CACTVS_TAUTO_COUNT>
2

> <PUBCHEM_COORDINATE_TYPE>
1
5
255

> <PUBCHEM_BONDANNOTATIONS>
2  10  8
2  6  8
4  10  8
4  8  8
7  5  3
6  8  8

$$$$

