   Color/Form

     * Yellow needles
     * Pale yellow needles from alcohol
     * Violet flourescence in concentrated sulfuric acid

   from [1]HSDB

   Melting Point
        171 to 172 deg C
   from [2]HSDB

   Dissociation Constants
        pKa = 9.12 (est)
   from [3]HSDB

   Octanol/Water Partition Coefficient
        log Kow = 2.62 (est)
   from [4]HSDB

   Solubilities

     * Soluble in ethanol
     * In water, 28.9 mg/L at 25 deg C (est)

   from [5]HSDB

   Spectral Properties

     * MASS: 73600 (NIST/EPA/MSDC Mass Spectral database, 1990 version);
       1634 (National Bureau of Standards)
     * IR: 9412 (Sadtler Research Laboratories prism collection)
     * UV: 2519 (Sadtler Research Laboratories spectral collection)
     * 1H NMR: 18012 (Sadtler Research Laboratories spectral collection)

   from [6]HSDB

   Vapor Pressure
        2.75X10-9 mm Hg at 25 deg C (est)
   from [7]HSDB

   Other Chemical/Physical Properties

     * MP: 169.5 deg C
     * Henry's Law constant = 4.47X10-8 atm-cu m/mol at 25 deg C (est)
     * Hydroxyl radical reaction rate constant = 6.01X10-11 cu
       cm/molec-sec at 25 deg C (est)
     * Ozone reaction rate constant = 1.05X10-16 cu cm/molec-sec at 25 deg
       C (est)

   from [8]HSDB

   Computed Properties
   Molecular Weight                  238.2381 [g/mol]
   Molecular Formula                 C[15]H[10]O[3]
   XLogP3                            3.4
   H-Bond Donor                      1
   H-Bond Acceptor                   3
   Rotatable Bond Count              1
   Tautomer Count                    2
   Exact Mass                        238.062994
   MonoIsotopic Mass                 238.062994
   Topological Polar Surface Area    46.5
   Heavy Atom Count                  18
   Formal Charge                     0
   Complexity                        366
   Isotope Atom Count                0
   Defined Atom Stereocenter Count   0
   Undefined Atom Stereocenter Count 0
   Defined Bond Stereocenter Count   0
   Undefined Bond Stereocenter Count 0
   Covalently-Bonded Unit Count      1
   Feature 3D Acceptor Count         2
   Feature 3D Donor Count            1
   Feature 3D Ring Count             3
   Effective Rotor Count             1
   Conformer Sampling RMSD           0.6
   CID Conformer Count               [9]1

References

   1. http://toxnet.nlm.nih.gov/cgi-bin/sis/search/r?dbs+hsdb:@term+@rn+@rel+577-85-5
   2. http://toxnet.nlm.nih.gov/cgi-bin/sis/search/r?dbs+hsdb:@term+@rn+@rel+577-85-5
   3. http://toxnet.nlm.nih.gov/cgi-bin/sis/search/r?dbs+hsdb:@term+@rn+@rel+577-85-5
   4. http://toxnet.nlm.nih.gov/cgi-bin/sis/search/r?dbs+hsdb:@term+@rn+@rel+577-85-5
   5. http://toxnet.nlm.nih.gov/cgi-bin/sis/search/r?dbs+hsdb:@term+@rn+@rel+577-85-5
   6. http://toxnet.nlm.nih.gov/cgi-bin/sis/search/r?dbs+hsdb:@term+@rn+@rel+577-85-5
   7. http://toxnet.nlm.nih.gov/cgi-bin/sis/search/r?dbs+hsdb:@term+@rn+@rel+577-85-5
   8. http://toxnet.nlm.nih.gov/cgi-bin/sis/search/r?dbs+hsdb:@term+@rn+@rel+577-85-5
   9. http://pubchem.ncbi.nlm.nih.gov/vw3d/vw3d.cgi?cid=11349
