   Color/Form

     * Yellow liquid
     * Colorless to reddish-yellow, clear liquid

   from [1]HSDB

   Boiling Point
        216 deg C
   from [2]HSDB

   Melting Point
        11.2 DEG C
   from [3]HSDB

   Density/Specific Gravity
        0.9842 @ 20 DEG C
   from [4]HSDB

   Octanol/Water Partition Coefficient
        log Kow = 1.84
   from [5]HSDB

   Solubilities

     * Water solubility of 8240 ppm at 25 deg C
     * Very soluble in ethanol, ether
     * Soluble in oxygenated and aromatic solvents.

   from [6]HSDB

   Spectral Properties

     * Index of refraction: 1.5610 at 20 deg C/D
     * Max absorption (Isooctane): 233 nm (Log E= 3.92); 284 nm (Log E=
       3.37)
     * Sadtler Ref Number: 7555 (IR prism); 10785 (IR grating)
     * IR: 4180 (Coblentz Society Spectral Collection)
     * UV: 15776 (Sadtler Research Laboratories Spectral Collection)
     * NMR: 6006 (Sadtler Research Laboratories Spectral Collection)

   from [7]HSDB

   Vapor Pressure
        0.125 mm Hg at 25 deg C
   from [8]HSDB

   Other Chemical/Physical Properties

     * Forms more or less sol salts with the strong mineral acids
       /Xylidine/
     * All /isomers/ except ortho-4-xylidine are liquids above 27 deg C
     * BOILING POINT: 214 DEG C @ 739 MM HG

   from [9]HSDB

   Computed Properties
   Molecular Weight                  121.17964 [g/mol]
   Molecular Formula                 C[8]H[11]N
   XLogP3                            1.8
   H-Bond Donor                      1
   H-Bond Acceptor                   1
   Rotatable Bond Count              0
   Exact Mass                        121.089149
   MonoIsotopic Mass                 121.089149
   Topological Polar Surface Area    26
   Heavy Atom Count                  9
   Formal Charge                     0
   Complexity                        80.6
   Isotope Atom Count                0
   Defined Atom Stereocenter Count   0
   Undefined Atom Stereocenter Count 0
   Defined Bond Stereocenter Count   0
   Undefined Bond Stereocenter Count 0
   Covalently-Bonded Unit Count      1
   Feature 3D Donor Count            1
   Feature 3D Cation Count           1
   Feature 3D Ring Count             1
   Effective Rotor Count             0
   Conformer Sampling RMSD           0.4
   CID Conformer Count               [10]1

References

   1. http://toxnet.nlm.nih.gov/cgi-bin/sis/search/r?dbs+hsdb:@term+@rn+@rel+87-62-7
   2. http://toxnet.nlm.nih.gov/cgi-bin/sis/search/r?dbs+hsdb:@term+@rn+@rel+87-62-7
   3. http://toxnet.nlm.nih.gov/cgi-bin/sis/search/r?dbs+hsdb:@term+@rn+@rel+87-62-7
   4. http://toxnet.nlm.nih.gov/cgi-bin/sis/search/r?dbs+hsdb:@term+@rn+@rel+87-62-7
   5. http://toxnet.nlm.nih.gov/cgi-bin/sis/search/r?dbs+hsdb:@term+@rn+@rel+87-62-7
   6. http://toxnet.nlm.nih.gov/cgi-bin/sis/search/r?dbs+hsdb:@term+@rn+@rel+87-62-7
   7. http://toxnet.nlm.nih.gov/cgi-bin/sis/search/r?dbs+hsdb:@term+@rn+@rel+87-62-7
   8. http://toxnet.nlm.nih.gov/cgi-bin/sis/search/r?dbs+hsdb:@term+@rn+@rel+87-62-7
   9. http://toxnet.nlm.nih.gov/cgi-bin/sis/search/r?dbs+hsdb:@term+@rn+@rel+87-62-7
  10. http://pubchem.ncbi.nlm.nih.gov/vw3d/vw3d.cgi?cid=6896
