   Color/Form
        Viscous liquid
   from [1]HSDB

   Boiling Point
        175-179 deg C
   from [2]HSDB

   Dissociation Constants
        pKa1 = 2.9 (aromatic amine); pKa2 = 4.2 (secondary amine); pKa3 =
   9.9 (primary amine) (est)
   from [3]HSDB

   Octanol/Water Partition Coefficient
        log Kow = 3.15 at 25 deg C (est)
   from [4]HSDB

   Solubilities
        In water, 1300 mg/L at 25 deg C (est)
   from [5]HSDB

   Vapor Pressure
        9.9X10-6 mm Hg at 25 deg C (est)
   from [6]HSDB

   Other Chemical/Physical Properties

     * Upon decomposition emits NOx
     * Henry's Law constant = 1X10-14 atm-cu m/mole at 25 deg C (est)
     * Hydroxy radical reaction rate constant= 2.5X10-10 cu cm/molec-sec
       at 25 deg C (est)
     * Yellow crystals from 90% ethanol. mp 197-198 deg C. Moderately
       soluble in water /Phosphate/
     * Yellow crystals from 80% ethanol. mp 182-185 deg C /Oxalate/

   from [7]HSDB

   Computed Properties
   Molecular Weight                  259.34674 [g/mol]
   Molecular Formula                 C[15]H[21]N[3]O
   XLogP3                            2.2
   H-Bond Donor                      2
   H-Bond Acceptor                   4
   Rotatable Bond Count              6
   Exact Mass                        259.168462
   MonoIsotopic Mass                 259.168462
   Topological Polar Surface Area    60.2
   Heavy Atom Count                  19
   Formal Charge                     0
   Complexity                        262
   Isotope Atom Count                0
   Defined Atom Stereocenter Count   0
   Undefined Atom Stereocenter Count 1
   Defined Bond Stereocenter Count   0
   Undefined Bond Stereocenter Count 0
   Covalently-Bonded Unit Count      1
   Feature 3D Acceptor Count         2
   Feature 3D Donor Count            2
   Feature 3D Cation Count           2
   Feature 3D Ring Count             2
   Effective Rotor Count             6
   Conformer Sampling RMSD           0.8
   CID Conformer Count               [8]57

References

   1. http://toxnet.nlm.nih.gov/cgi-bin/sis/search/r?dbs+hsdb:@term+@rn+@rel+90-34-6
   2. http://toxnet.nlm.nih.gov/cgi-bin/sis/search/r?dbs+hsdb:@term+@rn+@rel+90-34-6
   3. http://toxnet.nlm.nih.gov/cgi-bin/sis/search/r?dbs+hsdb:@term+@rn+@rel+90-34-6
   4. http://toxnet.nlm.nih.gov/cgi-bin/sis/search/r?dbs+hsdb:@term+@rn+@rel+90-34-6
   5. http://toxnet.nlm.nih.gov/cgi-bin/sis/search/r?dbs+hsdb:@term+@rn+@rel+90-34-6
   6. http://toxnet.nlm.nih.gov/cgi-bin/sis/search/r?dbs+hsdb:@term+@rn+@rel+90-34-6
   7. http://toxnet.nlm.nih.gov/cgi-bin/sis/search/r?dbs+hsdb:@term+@rn+@rel+90-34-6
   8. http://pubchem.ncbi.nlm.nih.gov/vw3d/vw3d.cgi?cid=4908
