84298
  -OEChem-07051212582D

 51 54  0     1  0  0  0  0  0999 V2000
    7.5641   -3.0985    0.0000 O   0  0  0  0  0  0  0  0  0  0  0  0
    4.6341   -0.0236    0.0000 O   0  0  0  0  0  0  0  0  0  0  0  0
    6.3661   -0.0236    0.0000 O   0  0  0  0  0  0  0  0  0  0  0  0
    5.5001    1.4764    0.0000 O   0  0  0  0  0  0  0  0  0  0  0  0
    2.9020    0.9764    0.0000 O   0  0  0  0  0  0  0  0  0  0  0  0
    3.5442   -3.3414    0.0000 O   0  0  0  0  0  0  0  0  0  0  0  0
    2.9020    2.9764    0.0000 O   0  0  0  0  0  0  0  0  0  0  0  0
    4.6341    3.9764    0.0000 O   0  0  0  0  0  0  0  0  0  0  0  0
    8.9477   -1.9844    0.0000 O   0  0  0  0  0  0  0  0  0  0  0  0
    6.3661    3.9764    0.0000 O   0  0  0  0  0  0  0  0  0  0  0  0
    2.0000   -2.5568    0.0000 O   0  0  0  0  0  0  0  0  0  0  0  0
    6.3661   -2.0236    0.0000 C   0  0  2  0  0  0  0  0  0  0  0  0
    5.5001   -1.5236    0.0000 C   0  0  2  0  0  0  0  0  0  0  0  0
    6.5753   -2.9954    0.0000 C   0  0  2  0  0  0  0  0  0  0  0  0
    5.5001   -0.5236    0.0000 C   0  0  2  0  0  0  0  0  0  0  0  0
    4.9957   -2.3965    0.0000 C   0  0  0  0  0  0  0  0  0  0  0  0
    7.2322   -1.5236    0.0000 C   0  0  0  0  0  0  0  0  0  0  0  0
    5.5904   -3.2105    0.0000 C   0  0  0  0  0  0  0  0  0  0  0  0
    4.6341    0.9764    0.0000 C   0  0  2  0  0  0  0  0  0  0  0  0
    7.9692   -2.1907    0.0000 C   0  0  0  0  0  0  0  0  0  0  0  0
    3.7681    1.4764    0.0000 C   0  0  1  0  0  0  0  0  0  0  0  0
    7.2322   -0.5236    0.0000 C   0  0  0  0  0  0  0  0  0  0  0  0
    3.9971   -2.4499    0.0000 C   0  0  0  0  0  0  0  0  0  0  0  0
    3.7681    2.4764    0.0000 C   0  0  2  0  0  0  0  0  0  0  0  0
    4.6341    2.9764    0.0000 C   0  0  1  0  0  0  0  0  0  0  0  0
    5.5001    2.4764    0.0000 C   0  0  1  0  0  0  0  0  0  0  0  0
    6.3661    2.9764    0.0000 C   0  0  0  0  0  0  0  0  0  0  0  0
    2.5456   -3.3949    0.0000 C   0  0  0  0  0  0  0  0  0  0  0  0
    2.0926   -4.2864    0.0000 C   0  0  0  0  0  0  0  0  0  0  0  0
    7.1023   -2.4486    0.0000 H   0  0  0  0  0  0  0  0  0  0  0  0
    4.6791   -1.3034    0.0000 H   0  0  0  0  0  0  0  0  0  0  0  0
    6.6226   -3.8441    0.0000 H   0  0  0  0  0  0  0  0  0  0  0  0
    5.5001    0.0964    0.0000 H   0  0  0  0  0  0  0  0  0  0  0  0
    5.3706   -3.7903    0.0000 H   0  0  0  0  0  0  0  0  0  0  0  0
    4.0972    0.6664    0.0000 H   0  0  0  0  0  0  0  0  0  0  0  0
    3.7681    0.8564    0.0000 H   0  0  0  0  0  0  0  0  0  0  0  0
    7.7691   -0.2136    0.0000 H   0  0  0  0  0  0  0  0  0  0  0  0
    3.7681    3.0964    0.0000 H   0  0  0  0  0  0  0  0  0  0  0  0
    4.0720   -1.8345    0.0000 H   0  0  0  0  0  0  0  0  0  0  0  0
    3.4040   -2.2693    0.0000 H   0  0  0  0  0  0  0  0  0  0  0  0
    5.1710    3.2864    0.0000 H   0  0  0  0  0  0  0  0  0  0  0  0
    6.0370    2.1664    0.0000 H   0  0  0  0  0  0  0  0  0  0  0  0
    6.5782    2.3938    0.0000 H   0  0  0  0  0  0  0  0  0  0  0  0
    6.9767    3.0841    0.0000 H   0  0  0  0  0  0  0  0  0  0  0  0
    2.3651    1.2864    0.0000 H   0  0  0  0  0  0  0  0  0  0  0  0
    2.9020    3.5964    0.0000 H   0  0  0  0  0  0  0  0  0  0  0  0
    4.0972    4.2864    0.0000 H   0  0  0  0  0  0  0  0  0  0  0  0
    6.9031    4.2864    0.0000 H   0  0  0  0  0  0  0  0  0  0  0  0
    1.5398   -4.0056    0.0000 H   0  0  0  0  0  0  0  0  0  0  0  0
    1.8117   -4.8392    0.0000 H   0  0  0  0  0  0  0  0  0  0  0  0
    2.6453   -4.5673    0.0000 H   0  0  0  0  0  0  0  0  0  0  0  0
  1 14  1  0  0  0  0
  1 20  1  0  0  0  0
 15  2  1  6  0  0  0
 19  2  1  1  0  0  0
  3 15  1  0  0  0  0
  3 22  1  0  0  0  0
  4 19  1  0  0  0  0
  4 26  1  0  0  0  0
 21  5  1  6  0  0  0
  5 45  1  0  0  0  0
  6 23  1  0  0  0  0
  6 28  1  0  0  0  0
 24  7  1  1  0  0  0
  7 46  1  0  0  0  0
 25  8  1  6  0  0  0
  8 47  1  0  0  0  0
  9 20  2  0  0  0  0
 10 27  1  0  0  0  0
 10 48  1  0  0  0  0
 11 28  2  0  0  0  0
 12 13  1  0  0  0  0
 12 14  1  0  0  0  0
 12 17  1  0  0  0  0
 12 30  1  6  0  0  0
 13 15  1  0  0  0  0
 13 16  1  0  0  0  0
 13 31  1  6  0  0  0
 14 18  1  0  0  0  0
 14 32  1  6  0  0  0
 15 33  1  0  0  0  0
 16 18  2  0  0  0  0
 16 23  1  0  0  0  0
 17 20  1  0  0  0  0
 17 22  2  0  0  0  0
 18 34  1  0  0  0  0
 19 21  1  0  0  0  0
 19 35  1  0  0  0  0
 21 24  1  0  0  0  0
 21 36  1  0  0  0  0
 22 37  1  0  0  0  0
 23 39  1  0  0  0  0
 23 40  1  0  0  0  0
 24 25  1  0  0  0  0
 24 38  1  0  0  0  0
 25 26  1  0  0  0  0
 25 41  1  0  0  0  0
 26 27  1  1  0  0  0
 26 42  1  0  0  0  0
 27 43  1  0  0  0  0
 27 44  1  0  0  0  0
 28 29  1  0  0  0  0
 29 49  1  0  0  0  0
 29 50  1  0  0  0  0
 29 51  1  0  0  0  0
M  END
> <PUBCHEM_COMPOUND_CID>
84298

> <PUBCHEM_COMPOUND_CANONICALIZED>
1

> <PUBCHEM_CACTVS_COMPLEXITY>
746

> <PUBCHEM_CACTVS_HBOND_ACCEPTOR>
11

> <PUBCHEM_CACTVS_HBOND_DONOR>
4

> <PUBCHEM_CACTVS_ROTATABLE_BOND>
6

> <PUBCHEM_CACTVS_SUBSKEYS>
AAADceB4PAAAAAAAAAAAAAAAAAAAASIAAAAkQAAAAAAQAEAAAAAAGgAACAAADRSwgAMCCAAABgCIAiDSCAAACAAgIAAACAEAAEgRFBIAIQAiUAAFwAAPIIPKbAwOgAAAAAAAAAAAAAAAAAAAAAAAAAAAAA==

> <PUBCHEM_IUPAC_INCHI>
InChI=1S/C18H22O11/c1-6(20)25-4-7-2-9-12-8(16(24)27-9)5-26-17(11(7)12)29-18-15(23)14(22)13(21)10(3-19)28-18/h2,5,9-15,17-19,21-23H,3-4H2,1H3/t9-,10+,11+,12-,13+,14-,15+,17-,18-/m0/s1

> <PUBCHEM_IUPAC_INCHIKEY>
IBIPGYWNOBGEMH-DILZHRMZSA-N

> <PUBCHEM_XLOGP3_AA>
-2.4

> <PUBCHEM_EXACT_MASS>
414.116212

> <PUBCHEM_MOLECULAR_FORMULA>
C18H22O11

> <PUBCHEM_MOLECULAR_WEIGHT>
414.36068

> <PUBCHEM_OPENEYE_CAN_SMILES>
CC(=O)OCC1=CC2C3C1C(OC=C3C(=O)O2)OC4C(C(C(C(O4)CO)O)O)O

> <PUBCHEM_OPENEYE_ISO_SMILES>
CC(=O)OCC1=C[C@H]2[C@H]3[C@@H]1[C@@H](OC=C3C(=O)O2)O[C@H]4[C@@H]([C@H]([C@@H]([C@H](O4)CO)O)O)O

> <PUBCHEM_CACTVS_TPSA>
161

> <PUBCHEM_MONOISOTOPIC_WEIGHT>
414.116212

> <PUBCHEM_TOTAL_CHARGE>
0

> <PUBCHEM_HEAVY_ATOM_COUNT>
29

> <PUBCHEM_ATOM_DEF_STEREO_COUNT>
9

> <PUBCHEM_ATOM_UDEF_STEREO_COUNT>
0

> <PUBCHEM_BOND_DEF_STEREO_COUNT>
0

> <PUBCHEM_BOND_UDEF_STEREO_COUNT>
0

> <PUBCHEM_ISOTOPIC_ATOM_COUNT>
0

> <PUBCHEM_COMPONENT_COUNT>
1

> <PUBCHEM_CACTVS_TAUTO_COUNT>
1

> <PUBCHEM_COORDINATE_TYPE>
1
5
255

> <PUBCHEM_BONDANNOTATIONS>
12  30  6
13  31  6
14  32  6
15  2  6
19  2  5
26  27  5
21  5  6
24  7  5
25  8  6

$$$$

