3552
  -OEChem-06251223302D

 20 20  0     0  0  0  0  0  0999 V2000
    3.8660    3.3100    0.0000 Cl  0  0  0  0  0  0  0  0  0  0  0  0
    2.1340    3.3100    0.0000 Cl  0  0  0  0  0  0  0  0  0  0  0  0
    3.0000    1.8100    0.0000 S   0  0  0  0  0  0  0  0  0  0  0  0
    4.0000    1.8100    0.0000 O   0  0  0  0  0  0  0  0  0  0  0  0
    2.0000    1.8100    0.0000 O   0  0  0  0  0  0  0  0  0  0  0  0
    2.1340   -2.6900    0.0000 O   0  0  0  0  0  0  0  0  0  0  0  0
    3.8660   -2.6900    0.0000 O   0  0  0  0  0  0  0  0  0  0  0  0
    3.0000    2.8100    0.0000 N   0  0  0  0  0  0  0  0  0  0  0  0
    3.0000    0.8100    0.0000 C   0  0  0  0  0  0  0  0  0  0  0  0
    2.1340    0.3100    0.0000 C   0  0  0  0  0  0  0  0  0  0  0  0
    3.8660    0.3100    0.0000 C   0  0  0  0  0  0  0  0  0  0  0  0
    3.0000   -1.1900    0.0000 C   0  0  0  0  0  0  0  0  0  0  0  0
    2.1340   -0.6900    0.0000 C   0  0  0  0  0  0  0  0  0  0  0  0
    3.8660   -0.6900    0.0000 C   0  0  0  0  0  0  0  0  0  0  0  0
    3.0000   -2.1900    0.0000 C   0  0  0  0  0  0  0  0  0  0  0  0
    1.5970    0.6200    0.0000 H   0  0  0  0  0  0  0  0  0  0  0  0
    4.4030    0.6200    0.0000 H   0  0  0  0  0  0  0  0  0  0  0  0
    1.5970   -1.0000    0.0000 H   0  0  0  0  0  0  0  0  0  0  0  0
    4.4030   -1.0000    0.0000 H   0  0  0  0  0  0  0  0  0  0  0  0
    2.1340   -3.3100    0.0000 H   0  0  0  0  0  0  0  0  0  0  0  0
  1  8  1  0  0  0  0
  2  8  1  0  0  0  0
  3  4  2  0  0  0  0
  3  5  2  0  0  0  0
  3  8  1  0  0  0  0
  3  9  1  0  0  0  0
  6 15  1  0  0  0  0
  6 20  1  0  0  0  0
  7 15  2  0  0  0  0
  9 10  2  0  0  0  0
  9 11  1  0  0  0  0
 10 13  1  0  0  0  0
 10 16  1  0  0  0  0
 11 14  2  0  0  0  0
 11 17  1  0  0  0  0
 12 13  2  0  0  0  0
 12 14  1  0  0  0  0
 12 15  1  0  0  0  0
 13 18  1  0  0  0  0
 14 19  1  0  0  0  0
M  END
> <PUBCHEM_COMPOUND_CID>
3552

> <PUBCHEM_COMPOUND_CANONICALIZED>
1

> <PUBCHEM_CACTVS_COMPLEXITY>
329

> <PUBCHEM_CACTVS_HBOND_ACCEPTOR>
5

> <PUBCHEM_CACTVS_HBOND_DONOR>
1

> <PUBCHEM_CACTVS_ROTATABLE_BOND>
2

> <PUBCHEM_CACTVS_SUBSKEYS>
AAADcYBiOABGAAAAAAAAAAAAAAAAAAAAAAAwAAAAAAAAAAABAAAAGgQAaAAADACA2AAwCYAAAgKIAiDSCHBCABAkAAAIiBkACMgIJjKAFRCAcQAkwAEImYeIyCCOEAAAAAAAAAAgAAAAAAAAAAAAAAAAAA==

> <PUBCHEM_IUPAC_OPENEYE_NAME>
4-(dichlorosulfamoyl)benzoic acid

> <PUBCHEM_IUPAC_CAS_NAME>
4-(dichlorosulfamoyl)benzoic acid

> <PUBCHEM_IUPAC_NAME>
4-(dichlorosulfamoyl)benzoic acid

> <PUBCHEM_IUPAC_SYSTEMATIC_NAME>
4-[bis(chloranyl)sulfamoyl]benzoic acid

> <PUBCHEM_IUPAC_TRADITIONAL_NAME>
4-(dichlorosulfamoyl)benzoic acid

> <PUBCHEM_IUPAC_INCHI>
InChI=1S/C7H5Cl2NO4S/c8-10(9)15(13,14)6-3-1-5(2-4-6)7(11)12/h1-4H,(H,11,12)

> <PUBCHEM_IUPAC_INCHIKEY>
XPDVQPODLRGWPL-UHFFFAOYSA-N

> <PUBCHEM_XLOGP3>
1.6

> <PUBCHEM_EXACT_MASS>
268.931634

> <PUBCHEM_MOLECULAR_FORMULA>
C7H5Cl2NO4S

> <PUBCHEM_MOLECULAR_WEIGHT>
270.0899

> <PUBCHEM_OPENEYE_CAN_SMILES>
C1=CC(=CC=C1C(=O)O)S(=O)(=O)N(Cl)Cl

> <PUBCHEM_OPENEYE_ISO_SMILES>
C1=CC(=CC=C1C(=O)O)S(=O)(=O)N(Cl)Cl

> <PUBCHEM_CACTVS_TPSA>
83.1

> <PUBCHEM_MONOISOTOPIC_WEIGHT>
268.931634

> <PUBCHEM_TOTAL_CHARGE>
0

> <PUBCHEM_HEAVY_ATOM_COUNT>
15

> <PUBCHEM_ATOM_DEF_STEREO_COUNT>
0

> <PUBCHEM_ATOM_UDEF_STEREO_COUNT>
0

> <PUBCHEM_BOND_DEF_STEREO_COUNT>
0

> <PUBCHEM_BOND_UDEF_STEREO_COUNT>
0

> <PUBCHEM_ISOTOPIC_ATOM_COUNT>
0

> <PUBCHEM_COMPONENT_COUNT>
1

> <PUBCHEM_CACTVS_TAUTO_COUNT>
1

> <PUBCHEM_COORDINATE_TYPE>
1
5
255

> <PUBCHEM_BONDANNOTATIONS>
10  13  8
11  14  8
12  13  8
12  14  8
9  10  8
9  11  8

$$$$

