10775424
  -OEChem-07051213152D

 42 44  0     1  0  0  0  0  0999 V2000
    3.7498   -0.7847    0.0000 O   0  0  0  0  0  0  0  0  0  0  0  0
    4.5159   -0.1419    0.0000 C   0  0  1  0  0  0  0  0  0  0  0  0
    4.3067   -1.1138    0.0000 C   0  0  2  0  0  0  0  0  0  0  0  0
    3.6499    0.3581    0.0000 C   0  0  2  0  0  0  0  0  0  0  0  0
    5.3819    0.3581    0.0000 C   0  0  1  0  0  0  0  0  0  0  0  0
    2.9128   -0.3090    0.0000 C   0  0  0  0  0  0  0  0  0  0  0  0
    3.3180   -1.2168    0.0000 C   0  0  0  0  0  0  0  0  0  0  0  0
    5.2916   -1.3289    0.0000 C   0  0  0  0  0  0  0  0  0  0  0  0
    5.8863   -0.5148    0.0000 C   0  0  0  0  0  0  0  0  0  0  0  0
    5.3819    1.3581    0.0000 C   0  0  1  0  0  0  0  0  0  0  0  0
    3.6499    1.3581    0.0000 C   0  0  0  0  0  0  0  0  0  0  0  0
    4.5159    1.8581    0.0000 C   0  0  0  0  0  0  0  0  0  0  0  0
    4.9745   -1.8581    0.0000 C   0  0  0  0  0  0  0  0  0  0  0  0
    2.0000   -0.7173    0.0000 C   0  0  0  0  0  0  0  0  0  0  0  0
    2.2424    0.4330    0.0000 C   0  0  0  0  0  0  0  0  0  0  0  0
    6.2479    1.8581    0.0000 C   0  0  0  0  0  0  0  0  0  0  0  0
    2.8729    0.7028    0.0000 H   0  0  0  0  0  0  0  0  0  0  0  0
    6.2029    0.5782    0.0000 H   0  0  0  0  0  0  0  0  0  0  0  0
    2.7284   -1.4086    0.0000 H   0  0  0  0  0  0  0  0  0  0  0  0
    3.4467   -1.8233    0.0000 H   0  0  0  0  0  0  0  0  0  0  0  0
    5.0769   -1.9105    0.0000 H   0  0  0  0  0  0  0  0  0  0  0  0
    5.8380   -1.6219    0.0000 H   0  0  0  0  0  0  0  0  0  0  0  0
    6.3316   -0.9462    0.0000 H   0  0  0  0  0  0  0  0  0  0  0  0
    6.3751   -0.1334    0.0000 H   0  0  0  0  0  0  0  0  0  0  0  0
    5.3819    1.9781    0.0000 H   0  0  0  0  0  0  0  0  0  0  0  0
    3.4378    1.9407    0.0000 H   0  0  0  0  0  0  0  0  0  0  0  0
    3.0393    1.2504    0.0000 H   0  0  0  0  0  0  0  0  0  0  0  0
    4.9144    2.3330    0.0000 H   0  0  0  0  0  0  0  0  0  0  0  0
    4.1174    2.3330    0.0000 H   0  0  0  0  0  0  0  0  0  0  0  0
    4.5130   -2.2721    0.0000 H   0  0  0  0  0  0  0  0  0  0  0  0
    5.3886   -2.3195    0.0000 H   0  0  0  0  0  0  0  0  0  0  0  0
    5.4360   -1.4440    0.0000 H   0  0  0  0  0  0  0  0  0  0  0  0
    1.7468   -0.1514    0.0000 H   0  0  0  0  0  0  0  0  0  0  0  0
    1.4340   -0.9705    0.0000 H   0  0  0  0  0  0  0  0  0  0  0  0
    2.2532   -1.2833    0.0000 H   0  0  0  0  0  0  0  0  0  0  0  0
    2.7025    0.8486    0.0000 H   0  0  0  0  0  0  0  0  0  0  0  0
    1.8268    0.8930    0.0000 H   0  0  0  0  0  0  0  0  0  0  0  0
    1.7824    0.0173    0.0000 H   0  0  0  0  0  0  0  0  0  0  0  0
    3.8575   -1.3953    0.0000 H   0  0  0  0  0  0  0  0  0  0  0  0
    6.5579    1.3211    0.0000 H   0  0  0  0  0  0  0  0  0  0  0  0
    6.7849    2.1681    0.0000 H   0  0  0  0  0  0  0  0  0  0  0  0
    5.9379    2.3950    0.0000 H   0  0  0  0  0  0  0  0  0  0  0  0
  2  1  1  1  0  0  0
  1 39  1  0  0  0  0
  2  3  1  0  0  0  0
  2  4  1  0  0  0  0
  2  5  1  0  0  0  0
  3  7  1  0  0  0  0
  3  8  1  0  0  0  0
  3 13  1  6  0  0  0
  4  6  1  0  0  0  0
  4 11  1  0  0  0  0
  4 17  1  1  0  0  0
  5  9  1  0  0  0  0
  5 10  1  0  0  0  0
  5 18  1  1  0  0  0
  6  7  1  0  0  0  0
  6 14  1  0  0  0  0
  6 15  1  0  0  0  0
  7 19  1  0  0  0  0
  7 20  1  0  0  0  0
  8  9  1  0  0  0  0
  8 21  1  0  0  0  0
  8 22  1  0  0  0  0
  9 23  1  0  0  0  0
  9 24  1  0  0  0  0
 10 12  1  0  0  0  0
 10 16  1  1  0  0  0
 10 25  1  0  0  0  0
 11 12  1  0  0  0  0
 11 26  1  0  0  0  0
 11 27  1  0  0  0  0
 12 28  1  0  0  0  0
 12 29  1  0  0  0  0
 13 30  1  0  0  0  0
 13 31  1  0  0  0  0
 13 32  1  0  0  0  0
 14 33  1  0  0  0  0
 14 34  1  0  0  0  0
 14 35  1  0  0  0  0
 15 36  1  0  0  0  0
 15 37  1  0  0  0  0
 15 38  1  0  0  0  0
 16 40  1  0  0  0  0
 16 41  1  0  0  0  0
 16 42  1  0  0  0  0
M  END
> <PUBCHEM_COMPOUND_CID>
10775424

> <PUBCHEM_COMPOUND_CANONICALIZED>
1

> <PUBCHEM_CACTVS_COMPLEXITY>
321

> <PUBCHEM_CACTVS_HBOND_ACCEPTOR>
1

> <PUBCHEM_CACTVS_HBOND_DONOR>
1

> <PUBCHEM_CACTVS_ROTATABLE_BOND>
0

> <PUBCHEM_CACTVS_SUBSKEYS>
AAADceBwIAAAAAAAAAAAAAAAAAAAAYMAAAAwAAAAAAAYAGAAAAAAGgAACAAAD0SAgAACAAAAAgAAAAAAAAAAAAAAAAAAAAAAAAAAAAIAAAAAQAAEAAAAAAGAwPAPgAAAAAAAAACAAAYAADAAAYAADAAAAA==

> <PUBCHEM_IUPAC_INCHI>
InChI=1S/C15H26O/c1-10-5-6-12-13(2,3)9-14(4)8-7-11(10)15(12,14)16/h10-12,16H,5-9H2,1-4H3/t10-,11+,12+,14+,15-/m1/s1

> <PUBCHEM_IUPAC_INCHIKEY>
ZCRYDCBITZERMT-FUQNVFFISA-N

> <PUBCHEM_XLOGP3_AA>
3.9

> <PUBCHEM_EXACT_MASS>
222.198365

> <PUBCHEM_MOLECULAR_FORMULA>
C15H26O

> <PUBCHEM_MOLECULAR_WEIGHT>
222.36634

> <PUBCHEM_OPENEYE_CAN_SMILES>
CC1CCC2C(CC3(C2(C1CC3)O)C)(C)C

> <PUBCHEM_OPENEYE_ISO_SMILES>
C[C@@H]1CC[C@@H]2[C@@]3([C@H]1CC[C@]3(CC2(C)C)C)O

> <PUBCHEM_CACTVS_TPSA>
20.2

> <PUBCHEM_MONOISOTOPIC_WEIGHT>
222.198365

> <PUBCHEM_TOTAL_CHARGE>
0

> <PUBCHEM_HEAVY_ATOM_COUNT>
16

> <PUBCHEM_ATOM_DEF_STEREO_COUNT>
5

> <PUBCHEM_ATOM_UDEF_STEREO_COUNT>
0

> <PUBCHEM_BOND_DEF_STEREO_COUNT>
0

> <PUBCHEM_BOND_UDEF_STEREO_COUNT>
0

> <PUBCHEM_ISOTOPIC_ATOM_COUNT>
0

> <PUBCHEM_COMPONENT_COUNT>
1

> <PUBCHEM_CACTVS_TAUTO_COUNT>
1

> <PUBCHEM_COORDINATE_TYPE>
1
5
255

> <PUBCHEM_BONDANNOTATIONS>
2  1  5
10  16  5
3  13  6
4  17  5
5  18  5

$$$$

