440047
  -OEChem-07051212482D

 32 34  0     1  0  0  0  0  0999 V2000
    6.3301    2.0427    0.0000 O   0  0  0  0  0  0  0  0  0  0  0  0
    6.3301   -0.9573    0.0000 O   0  0  0  0  0  0  0  0  0  0  0  0
    3.7320    1.5427    0.0000 O   0  0  0  0  0  0  0  0  0  0  0  0
    9.8602    2.0668    0.0000 O   0  0  0  0  0  0  0  0  0  0  0  0
    2.0000   -1.4573    0.0000 O   0  0  0  0  0  0  0  0  0  0  0  0
    5.4641    0.5427    0.0000 C   0  0  3  0  0  0  0  0  0  0  0  0
    5.4641    1.5427    0.0000 C   0  0  0  0  0  0  0  0  0  0  0  0
    4.5981    0.0427    0.0000 C   0  0  0  0  0  0  0  0  0  0  0  0
    6.3301    0.0427    0.0000 C   0  0  0  0  0  0  0  0  0  0  0  0
    7.1962    0.5427    0.0000 C   0  0  0  0  0  0  0  0  0  0  0  0
    7.1962    1.5427    0.0000 C   0  0  0  0  0  0  0  0  0  0  0  0
    3.7320    0.5427    0.0000 C   0  0  0  0  0  0  0  0  0  0  0  0
    4.5981   -0.9573    0.0000 C   0  0  0  0  0  0  0  0  0  0  0  0
    8.0901    0.0080    0.0000 C   0  0  0  0  0  0  0  0  0  0  0  0
    8.0901    2.0773    0.0000 C   0  0  0  0  0  0  0  0  0  0  0  0
    2.8660    0.0427    0.0000 C   0  0  0  0  0  0  0  0  0  0  0  0
    3.7320   -1.4573    0.0000 C   0  0  0  0  0  0  0  0  0  0  0  0
    8.9962    0.5219    0.0000 C   0  0  0  0  0  0  0  0  0  0  0  0
    8.9962    1.5635    0.0000 C   0  0  0  0  0  0  0  0  0  0  0  0
    2.8660   -0.9573    0.0000 C   0  0  0  0  0  0  0  0  0  0  0  0
    5.4641   -0.3073    0.0000 H   0  0  0  0  0  0  0  0  0  0  0  0
    5.2520    2.1253    0.0000 H   0  0  0  0  0  0  0  0  0  0  0  0
    4.8535    1.4350    0.0000 H   0  0  0  0  0  0  0  0  0  0  0  0
    5.1350   -1.2673    0.0000 H   0  0  0  0  0  0  0  0  0  0  0  0
    8.0829   -0.6120    0.0000 H   0  0  0  0  0  0  0  0  0  0  0  0
    8.0829    2.6973    0.0000 H   0  0  0  0  0  0  0  0  0  0  0  0
    2.3291    0.3527    0.0000 H   0  0  0  0  0  0  0  0  0  0  0  0
    3.7320   -2.0773    0.0000 H   0  0  0  0  0  0  0  0  0  0  0  0
    9.5319    0.2098    0.0000 H   0  0  0  0  0  0  0  0  0  0  0  0
    3.1951    1.8527    0.0000 H   0  0  0  0  0  0  0  0  0  0  0  0
   10.3984    1.7589    0.0000 H   0  0  0  0  0  0  0  0  0  0  0  0
    2.0000   -2.0773    0.0000 H   0  0  0  0  0  0  0  0  0  0  0  0
  1  7  1  0  0  0  0
  1 11  1  0  0  0  0
  2  9  2  0  0  0  0
  3 12  1  0  0  0  0
  3 30  1  0  0  0  0
  4 19  1  0  0  0  0
  4 31  1  0  0  0  0
  5 20  1  0  0  0  0
  5 32  1  0  0  0  0
  6  7  1  0  0  0  0
  6  8  1  0  0  0  0
  6  9  1  0  0  0  0
  6 21  1  0  0  0  0
  7 22  1  0  0  0  0
  7 23  1  0  0  0  0
  8 12  2  0  0  0  0
  8 13  1  0  0  0  0
  9 10  1  0  0  0  0
 10 11  2  0  0  0  0
 10 14  1  0  0  0  0
 11 15  1  0  0  0  0
 12 16  1  0  0  0  0
 13 17  2  0  0  0  0
 13 24  1  0  0  0  0
 14 18  2  0  0  0  0
 14 25  1  0  0  0  0
 15 19  2  0  0  0  0
 15 26  1  0  0  0  0
 16 20  2  0  0  0  0
 16 27  1  0  0  0  0
 17 20  1  0  0  0  0
 17 28  1  0  0  0  0
 18 19  1  0  0  0  0
 18 29  1  0  0  0  0
M  END
> <PUBCHEM_COMPOUND_CID>
440047

> <PUBCHEM_COMPOUND_CANONICALIZED>
1

> <PUBCHEM_CACTVS_COMPLEXITY>
371

> <PUBCHEM_CACTVS_HBOND_ACCEPTOR>
5

> <PUBCHEM_CACTVS_HBOND_DONOR>
3

> <PUBCHEM_CACTVS_ROTATABLE_BOND>
1

> <PUBCHEM_CACTVS_SUBSKEYS>
AAADccBwOAAAAAAAAAAAAAAAAAAAAAAAAAA0YIAAAAAAAACRQAAAGgAACAAADQSgmAIwBoAABgCIAqBSAAACCAAkIAAIiAEGCMgMJzaGNRqCeWCl4BUIuYfK7PzOoAAACAAIAABAAAAQABAAAAAAAAAAAA==

> <PUBCHEM_IUPAC_OPENEYE_NAME>
3-(2,4-dihydroxyphenyl)-7-hydroxy-chroman-4-one

> <PUBCHEM_IUPAC_CAS_NAME>
3-(2,4-dihydroxyphenyl)-7-hydroxy-3,4-dihydro-2H-1-benzopyran-4-one

> <PUBCHEM_IUPAC_NAME>
3-(2,4-dihydroxyphenyl)-7-hydroxy-2,3-dihydrochromen-4-one

> <PUBCHEM_IUPAC_SYSTEMATIC_NAME>
3-[2,4-bis(oxidanyl)phenyl]-7-oxidanyl-2,3-dihydrochromen-4-one

> <PUBCHEM_IUPAC_TRADITIONAL_NAME>
3-(2,4-dihydroxyphenyl)-7-hydroxy-chroman-4-one

> <PUBCHEM_IUPAC_INCHI>
InChI=1S/C15H12O5/c16-8-1-3-10(13(18)5-8)12-7-20-14-6-9(17)2-4-11(14)15(12)19/h1-6,12,16-18H,7H2

> <PUBCHEM_IUPAC_INCHIKEY>
WBOWBLGZAXVREM-UHFFFAOYSA-N

> <PUBCHEM_XLOGP3_AA>
2

> <PUBCHEM_EXACT_MASS>
272.068473

> <PUBCHEM_MOLECULAR_FORMULA>
C15H12O5

> <PUBCHEM_MOLECULAR_WEIGHT>
272.25278

> <PUBCHEM_OPENEYE_CAN_SMILES>
C1C(C(=O)C2=C(O1)C=C(C=C2)O)C3=C(C=C(C=C3)O)O

> <PUBCHEM_OPENEYE_ISO_SMILES>
C1C(C(=O)C2=C(O1)C=C(C=C2)O)C3=C(C=C(C=C3)O)O

> <PUBCHEM_CACTVS_TPSA>
87

> <PUBCHEM_MONOISOTOPIC_WEIGHT>
272.068473

> <PUBCHEM_TOTAL_CHARGE>
0

> <PUBCHEM_HEAVY_ATOM_COUNT>
20

> <PUBCHEM_ATOM_DEF_STEREO_COUNT>
0

> <PUBCHEM_ATOM_UDEF_STEREO_COUNT>
1

> <PUBCHEM_BOND_DEF_STEREO_COUNT>
0

> <PUBCHEM_BOND_UDEF_STEREO_COUNT>
0

> <PUBCHEM_ISOTOPIC_ATOM_COUNT>
0

> <PUBCHEM_COMPONENT_COUNT>
1

> <PUBCHEM_CACTVS_TAUTO_COUNT>
127

> <PUBCHEM_COORDINATE_TYPE>
1
5
255

> <PUBCHEM_BONDANNOTATIONS>
10  11  8
10  14  8
11  15  8
12  16  8
13  17  8
14  18  8
15  19  8
16  20  8
17  20  8
18  19  8
6  21  3
8  12  8
8  13  8

$$$$

