   Color/Form

     * Orthorhombic crystals or crystalline powder
     * White or pale yellow, crystalline powder

   from [1]HSDB

   Odor

     * Slight acetic acid-like odor
     * Weak, caramel-like odor

   from [2]HSDB

   Melting Point
        Greater than 300 deg C
   from [3]HSDB

   Density/Specific Gravity
        2.015
   from [4]HSDB

   Solubilities

     * Practically insol in alc
     * In water, 170 g/l @ 20 deg C

   from [5]HSDB

   Computed Properties
   Molecular Weight                  130.11288 [g/mol]
   Molecular Formula                 C[2]H[2]CaO[4]
   H-Bond Donor                      0
   H-Bond Acceptor                   4
   Rotatable Bond Count              0
   Exact Mass                        129.9579
   MonoIsotopic Mass                 129.9579
   Topological Polar Surface Area    80.3
   Heavy Atom Count                  7
   Formal Charge                     0
   Complexity                        7.5
   Isotope Atom Count                0
   Defined Atom Stereocenter Count   0
   Undefined Atom Stereocenter Count 0
   Defined Bond Stereocenter Count   0
   Undefined Bond Stereocenter Count 0
   Covalently-Bonded Unit Count      3

References

   1. http://toxnet.nlm.nih.gov/cgi-bin/sis/search/r?dbs+hsdb:@term+@rn+@rel+544-17-2
   2. http://toxnet.nlm.nih.gov/cgi-bin/sis/search/r?dbs+hsdb:@term+@rn+@rel+544-17-2
   3. http://toxnet.nlm.nih.gov/cgi-bin/sis/search/r?dbs+hsdb:@term+@rn+@rel+544-17-2
   4. http://toxnet.nlm.nih.gov/cgi-bin/sis/search/r?dbs+hsdb:@term+@rn+@rel+544-17-2
   5. http://toxnet.nlm.nih.gov/cgi-bin/sis/search/r?dbs+hsdb:@term+@rn+@rel+544-17-2
