   Color/Form

     * White crystals, fine needles, or fluffy white crystalline powder
     * Powder or needles from water
     * Needles in water; monoclinic prisms in alcohol

   from [1]HSDB

   Odor
        SYNTHETIC ACID IS ODORLESS
   from [2]HSDB

   Taste

     * Acrid taste
     * IT HAS SWEETISH, AFTERWARD ACRID, TASTE

   from [3]HSDB

   Boiling Point
        211 deg C at 20 torr
   from [4]HSDB

   Melting Point
        159 deg C
   from [5]HSDB

   Corrosivity
        Non-corrosive
   from [6]HSDB

   Density/Specific Gravity
        1.443 g/cu cm at 20 deg C/4 deg C
   from [7]HSDB

   Dissociation Constants
        pKa1 = 2.98 at 20 deg C (carboxylic acid); pKa2 = 13.6 (phenol)
   from [8]HSDB

   Heat of Combustion
        3.026 millijoules/mole
   from [9]HSDB

   Octanol/Water Partition Coefficient
        log Kow = 2.26
   from [10]HSDB

   pH
        pH of saturated solution: 2.4
   from [11]HSDB

   Solubilities

     * Solubility (weight percent): carbon tetrachloride 0.262 (25 deg C);
       benzene 0.775 (25 deg C); propanol 27.36 (21 deg C); absolute
       ethanol 34.87 (21 deg C); acetone 396 (23 deg C)
     * Soluble in oil of turpentine, alcohol, ether
     * SLIGHTLY SOL IN TOLUENE
     * In water, 2,240 mg/L at 25 deg C

   from [12]HSDB

   Spectral Properties

     * Index of refraction: 1.565 at 25 deg C/D
     * UV max (4 mg percent in ethanol): 210, 234, 303 nm (molar
       extinction coefficient 8343, 5466, 3591)
     * MAX ABSORPTION (ALCOHOL): 207 NM (LOG E= 4.46); 236 NM (LOG E=
       3.85); 303 NM (LOG E= 3.57); SADTLER REF NUMBER: 17414 (IR, PRISM);
       328 (IR, GRATING); 671 (UV)
     * Intense mass spectral peaks: 64 m/z, 92 m/z, 120 m/z, 138 m/z
     * IR: 5154 (Coblentz Society Spectral Collection)
     * Raman: 7 (Sadtler Research Laboratories spectral collection)
     * MASS: 3579 (NIST/EPA/MSDC Mass Spectral database, 1990 version);
       1351 (Atlas of Mass Spectral Data, John Wiley & Sons, New York)

   from [13]HSDB

   Vapor Density
        4.8 (Air= 1)
   from [14]HSDB

   Vapor Pressure
        8.2X10-5 mm Hg at 25 deg C
   from [15]HSDB

   Other Chemical/Physical Properties

     * Sublimes at 76 deg C
     * When heated to decomposition it emits acrid smoke and irritating
       fumes
     * /Salicylic acid is/ incompatible with iodine, iron salts, and
       oxidizing substances.
     * Henry's Law constant = 7.3X10-9 atm-cu m/mole at 25 deg C (est)
     * Hydroxyl radical reaction rate constant = 1.3X10-11 cu
       cm/molecule-sec at 25 deg C (est)

   from [16]HSDB

   Computed Properties
   Molecular Weight                  138.12074 [g/mol]
   Molecular Formula                 C[7]H[6]O[3]
   XLogP3                            2.3
   H-Bond Donor                      2
   H-Bond Acceptor                   3
   Rotatable Bond Count              1
   Tautomer Count                    4
   Exact Mass                        138.031694
   MonoIsotopic Mass                 138.031694
   Topological Polar Surface Area    57.5
   Heavy Atom Count                  10
   Formal Charge                     0
   Complexity                        133
   Isotope Atom Count                0
   Defined Atom Stereocenter Count   0
   Undefined Atom Stereocenter Count 0
   Defined Bond Stereocenter Count   0
   Undefined Bond Stereocenter Count 0
   Covalently-Bonded Unit Count      1
   Feature 3D Acceptor Count         2
   Feature 3D Donor Count            1
   Feature 3D Anion Count            1
   Feature 3D Ring Count             1
   Effective Rotor Count             1
   Conformer Sampling RMSD           0.4
   CID Conformer Count               [17]3

References

   1. http://toxnet.nlm.nih.gov/cgi-bin/sis/search/r?dbs+hsdb:@term+@rn+@rel+69-72-7
   2. http://toxnet.nlm.nih.gov/cgi-bin/sis/search/r?dbs+hsdb:@term+@rn+@rel+69-72-7
   3. http://toxnet.nlm.nih.gov/cgi-bin/sis/search/r?dbs+hsdb:@term+@rn+@rel+69-72-7
   4. http://toxnet.nlm.nih.gov/cgi-bin/sis/search/r?dbs+hsdb:@term+@rn+@rel+69-72-7
   5. http://toxnet.nlm.nih.gov/cgi-bin/sis/search/r?dbs+hsdb:@term+@rn+@rel+69-72-7
   6. http://toxnet.nlm.nih.gov/cgi-bin/sis/search/r?dbs+hsdb:@term+@rn+@rel+69-72-7
   7. http://toxnet.nlm.nih.gov/cgi-bin/sis/search/r?dbs+hsdb:@term+@rn+@rel+69-72-7
   8. http://toxnet.nlm.nih.gov/cgi-bin/sis/search/r?dbs+hsdb:@term+@rn+@rel+69-72-7
   9. http://toxnet.nlm.nih.gov/cgi-bin/sis/search/r?dbs+hsdb:@term+@rn+@rel+69-72-7
  10. http://toxnet.nlm.nih.gov/cgi-bin/sis/search/r?dbs+hsdb:@term+@rn+@rel+69-72-7
  11. http://toxnet.nlm.nih.gov/cgi-bin/sis/search/r?dbs+hsdb:@term+@rn+@rel+69-72-7
  12. http://toxnet.nlm.nih.gov/cgi-bin/sis/search/r?dbs+hsdb:@term+@rn+@rel+69-72-7
  13. http://toxnet.nlm.nih.gov/cgi-bin/sis/search/r?dbs+hsdb:@term+@rn+@rel+69-72-7
  14. http://toxnet.nlm.nih.gov/cgi-bin/sis/search/r?dbs+hsdb:@term+@rn+@rel+69-72-7
  15. http://toxnet.nlm.nih.gov/cgi-bin/sis/search/r?dbs+hsdb:@term+@rn+@rel+69-72-7
  16. http://toxnet.nlm.nih.gov/cgi-bin/sis/search/r?dbs+hsdb:@term+@rn+@rel+69-72-7
  17. http://pubchem.ncbi.nlm.nih.gov/vw3d/vw3d.cgi?cid=338
