3035905
  -OEChem-07051213112D

 44 46  0     0  0  0  0  0  0999 V2000
    4.5981   -1.5194    0.0000 S   0  0  0  0  0  0  0  0  0  0  0  0
    3.7320   -0.0194    0.0000 N   0  0  0  0  0  0  0  0  0  0  0  0
    2.8660   -1.5194    0.0000 N   0  0  0  0  0  0  0  0  0  0  0  0
    4.5411    3.5684    0.0000 N   0  0  0  0  0  0  0  0  0  0  0  0
    3.2320    4.5194    0.0000 N   0  0  0  0  0  0  0  0  0  0  0  0
    2.8660   -2.5194    0.0000 C   0  0  0  0  0  0  0  0  0  0  0  0
    3.7320    1.9806    0.0000 C   0  0  0  0  0  0  0  0  0  0  0  0
    2.0000   -3.0194    0.0000 C   0  0  0  0  0  0  0  0  0  0  0  0
    3.7320   -3.0194    0.0000 C   0  0  0  0  0  0  0  0  0  0  0  0
    2.8660    1.4806    0.0000 C   0  0  0  0  0  0  0  0  0  0  0  0
    4.5981    1.4806    0.0000 C   0  0  0  0  0  0  0  0  0  0  0  0
    2.8660    0.4806    0.0000 C   0  0  0  0  0  0  0  0  0  0  0  0
    4.5981    0.4806    0.0000 C   0  0  0  0  0  0  0  0  0  0  0  0
    2.0000   -4.0194    0.0000 C   0  0  0  0  0  0  0  0  0  0  0  0
    3.7320   -4.0194    0.0000 C   0  0  0  0  0  0  0  0  0  0  0  0
    2.8660   -4.5194    0.0000 C   0  0  0  0  0  0  0  0  0  0  0  0
    3.7320   -1.0194    0.0000 C   0  0  0  0  0  0  0  0  0  0  0  0
    3.7320    2.9806    0.0000 C   0  0  0  0  0  0  0  0  0  0  0  0
    2.9230    3.5684    0.0000 C   0  0  0  0  0  0  0  0  0  0  0  0
    4.2320    4.5194    0.0000 C   0  0  0  0  0  0  0  0  0  0  0  0
    3.4030   -2.2094    0.0000 H   0  0  0  0  0  0  0  0  0  0  0  0
    4.2690    2.2906    0.0000 H   0  0  0  0  0  0  0  0  0  0  0  0
    4.3426   -3.1271    0.0000 H   0  0  0  0  0  0  0  0  0  0  0  0
    3.9441   -2.4368    0.0000 H   0  0  0  0  0  0  0  0  0  0  0  0
    1.7880   -2.4368    0.0000 H   0  0  0  0  0  0  0  0  0  0  0  0
    1.3894   -3.1271    0.0000 H   0  0  0  0  0  0  0  0  0  0  0  0
    5.2087    1.3729    0.0000 H   0  0  0  0  0  0  0  0  0  0  0  0
    4.8101    2.0632    0.0000 H   0  0  0  0  0  0  0  0  0  0  0  0
    2.6540    2.0632    0.0000 H   0  0  0  0  0  0  0  0  0  0  0  0
    2.2554    1.3729    0.0000 H   0  0  0  0  0  0  0  0  0  0  0  0
    4.8101   -0.1020    0.0000 H   0  0  0  0  0  0  0  0  0  0  0  0
    5.2087    0.5882    0.0000 H   0  0  0  0  0  0  0  0  0  0  0  0
    2.2554    0.5882    0.0000 H   0  0  0  0  0  0  0  0  0  0  0  0
    2.6540   -0.1020    0.0000 H   0  0  0  0  0  0  0  0  0  0  0  0
    3.9441   -4.6020    0.0000 H   0  0  0  0  0  0  0  0  0  0  0  0
    4.3426   -3.9118    0.0000 H   0  0  0  0  0  0  0  0  0  0  0  0
    1.3894   -3.9118    0.0000 H   0  0  0  0  0  0  0  0  0  0  0  0
    1.7880   -4.6020    0.0000 H   0  0  0  0  0  0  0  0  0  0  0  0
    2.4675   -4.9944    0.0000 H   0  0  0  0  0  0  0  0  0  0  0  0
    3.2646   -4.9944    0.0000 H   0  0  0  0  0  0  0  0  0  0  0  0
    2.3291   -1.2094    0.0000 H   0  0  0  0  0  0  0  0  0  0  0  0
    5.1307    3.3768    0.0000 H   0  0  0  0  0  0  0  0  0  0  0  0
    2.3334    3.3768    0.0000 H   0  0  0  0  0  0  0  0  0  0  0  0
    4.5965    5.0210    0.0000 H   0  0  0  0  0  0  0  0  0  0  0  0
  1 17  2  0  0  0  0
  2 12  1  0  0  0  0
  2 13  1  0  0  0  0
  2 17  1  0  0  0  0
  3  6  1  0  0  0  0
  3 17  1  0  0  0  0
  3 41  1  0  0  0  0
  4 18  1  0  0  0  0
  4 20  1  0  0  0  0
  4 42  1  0  0  0  0
  5 19  1  0  0  0  0
  5 20  2  0  0  0  0
  6  8  1  0  0  0  0
  6  9  1  0  0  0  0
  6 21  1  0  0  0  0
  7 10  1  0  0  0  0
  7 11  1  0  0  0  0
  7 18  1  0  0  0  0
  7 22  1  0  0  0  0
  8 14  1  0  0  0  0
  8 25  1  0  0  0  0
  8 26  1  0  0  0  0
  9 15  1  0  0  0  0
  9 23  1  0  0  0  0
  9 24  1  0  0  0  0
 10 12  1  0  0  0  0
 10 29  1  0  0  0  0
 10 30  1  0  0  0  0
 11 13  1  0  0  0  0
 11 27  1  0  0  0  0
 11 28  1  0  0  0  0
 12 33  1  0  0  0  0
 12 34  1  0  0  0  0
 13 31  1  0  0  0  0
 13 32  1  0  0  0  0
 14 16  1  0  0  0  0
 14 37  1  0  0  0  0
 14 38  1  0  0  0  0
 15 16  1  0  0  0  0
 15 35  1  0  0  0  0
 15 36  1  0  0  0  0
 16 39  1  0  0  0  0
 16 40  1  0  0  0  0
 18 19  2  0  0  0  0
 19 43  1  0  0  0  0
 20 44  1  0  0  0  0
M  END
> <PUBCHEM_COMPOUND_CID>
3035905

> <PUBCHEM_COMPOUND_CANONICALIZED>
1

> <PUBCHEM_CACTVS_COMPLEXITY>
322

> <PUBCHEM_CACTVS_HBOND_ACCEPTOR>
2

> <PUBCHEM_CACTVS_HBOND_DONOR>
2

> <PUBCHEM_CACTVS_ROTATABLE_BOND>
2

> <PUBCHEM_CACTVS_SUBSKEYS>
AAADceBzgABAAAAAAAAAAAAAAAAAAWAAAAA8QAAAAAAAAAABgAAAHAQQAAAADSjBFgQtkBfJkACkARRnZAAAgC2xEqkBUYA4cAiAaAJAmQCUAAAIkALAQCEQAAAKAAAAAAAAAAAAAAAAAAAAAAAAAAAAAA==

> <PUBCHEM_IUPAC_OPENEYE_NAME>
N-cyclohexyl-4-(1H-imidazol-5-yl)piperidine-1-carbothioamide

> <PUBCHEM_IUPAC_CAS_NAME>
N-cyclohexyl-4-(1H-imidazol-5-yl)-1-piperidinecarbothioamide

> <PUBCHEM_IUPAC_NAME>
N-cyclohexyl-4-(1H-imidazol-5-yl)piperidine-1-carbothioamide

> <PUBCHEM_IUPAC_SYSTEMATIC_NAME>
N-cyclohexyl-4-(1H-imidazol-5-yl)piperidine-1-carbothioamide

> <PUBCHEM_IUPAC_TRADITIONAL_NAME>
N-cyclohexyl-4-(1H-imidazol-5-yl)piperidine-1-carbothioamide

> <PUBCHEM_IUPAC_INCHI>
InChI=1S/C15H24N4S/c20-15(18-13-4-2-1-3-5-13)19-8-6-12(7-9-19)14-10-16-11-17-14/h10-13H,1-9H2,(H,16,17)(H,18,20)

> <PUBCHEM_IUPAC_INCHIKEY>
QKDDJDBFONZGBW-UHFFFAOYSA-N

> <PUBCHEM_XLOGP3_AA>
2.4

> <PUBCHEM_EXACT_MASS>
292.172168

> <PUBCHEM_MOLECULAR_FORMULA>
C15H24N4S

> <PUBCHEM_MOLECULAR_WEIGHT>
292.44286

> <PUBCHEM_OPENEYE_CAN_SMILES>
C1CCC(CC1)NC(=S)N2CCC(CC2)C3=CN=CN3

> <PUBCHEM_OPENEYE_ISO_SMILES>
C1CCC(CC1)NC(=S)N2CCC(CC2)C3=CN=CN3

> <PUBCHEM_CACTVS_TPSA>
76

> <PUBCHEM_MONOISOTOPIC_WEIGHT>
292.172168

> <PUBCHEM_TOTAL_CHARGE>
0

> <PUBCHEM_HEAVY_ATOM_COUNT>
20

> <PUBCHEM_ATOM_DEF_STEREO_COUNT>
0

> <PUBCHEM_ATOM_UDEF_STEREO_COUNT>
0

> <PUBCHEM_BOND_DEF_STEREO_COUNT>
0

> <PUBCHEM_BOND_UDEF_STEREO_COUNT>
0

> <PUBCHEM_ISOTOPIC_ATOM_COUNT>
0

> <PUBCHEM_COMPONENT_COUNT>
1

> <PUBCHEM_CACTVS_TAUTO_COUNT>
4

> <PUBCHEM_COORDINATE_TYPE>
1
5
255

> <PUBCHEM_BONDANNOTATIONS>
18  19  8
4  18  8
4  20  8
5  19  8
5  20  8

$$$$

