6857377
  -OEChem-07051212492D

 36 36  0     1  0  0  0  0  0999 V2000
    5.1350    2.6830    0.0000 P   0  0  0  0  0  0  0  0  0  0  0  0
    4.2690    2.1830    0.0000 O   0  0  0  0  0  0  0  0  0  0  0  0
    2.5369   -0.8170    0.0000 O   0  0  0  0  0  0  0  0  0  0  0  0
    6.0010    1.1830    0.0000 O   0  0  0  0  0  0  0  0  0  0  0  0
    6.0010   -0.8170    0.0000 O   0  0  0  0  0  0  0  0  0  0  0  0
    6.0010    3.1830    0.0000 O   0  0  0  0  0  0  0  0  0  0  0  0
    4.6350    3.5490    0.0000 O   0  0  0  0  0  0  0  0  0  0  0  0
    5.6350    1.8170    0.0000 O   0  0  0  0  0  0  0  0  0  0  0  0
    2.5369    1.1830    0.0000 N   0  0  0  0  0  0  0  0  0  0  0  0
    4.2690   -1.8170    0.0000 N   0  0  0  0  0  0  0  0  0  0  0  0
    4.2690   -3.5490    0.0000 N   0  0  0  0  0  0  0  0  0  0  0  0
    2.7689   -2.6829    0.0000 N   0  0  0  0  0  0  0  0  0  0  0  0
    3.4030    0.6830    0.0000 C   0  0  2  0  0  0  0  0  0  0  0  0
    4.2690    1.1830    0.0000 C   0  0  2  0  0  0  0  0  0  0  0  0
    3.4030   -0.3170    0.0000 C   0  0  1  0  0  0  0  0  0  0  0  0
    4.2690   -0.8170    0.0000 C   0  0  2  0  0  0  0  0  0  0  0  0
    5.1350    0.6830    0.0000 C   0  0  1  0  0  0  0  0  0  0  0  0
    5.1350   -0.3170    0.0000 C   0  0  1  0  0  0  0  0  0  0  0  0
    3.7690   -2.6830    0.0000 C   0  0  0  0  0  0  0  0  0  0  0  0
    3.4030    1.3030    0.0000 H   0  0  0  0  0  0  0  0  0  0  0  0
    4.8059    1.4930    0.0000 H   0  0  0  0  0  0  0  0  0  0  0  0
    3.4030   -0.9370    0.0000 H   0  0  0  0  0  0  0  0  0  0  0  0
    4.8059   -1.1270    0.0000 H   0  0  0  0  0  0  0  0  0  0  0  0
    5.1350    1.3030    0.0000 H   0  0  0  0  0  0  0  0  0  0  0  0
    5.1350   -0.9370    0.0000 H   0  0  0  0  0  0  0  0  0  0  0  0
    2.0000    0.8730    0.0000 H   0  0  0  0  0  0  0  0  0  0  0  0
    2.5369    1.8030    0.0000 H   0  0  0  0  0  0  0  0  0  0  0  0
    2.0000   -0.5070    0.0000 H   0  0  0  0  0  0  0  0  0  0  0  0
    6.5380    0.8730    0.0000 H   0  0  0  0  0  0  0  0  0  0  0  0
    6.0010   -1.4370    0.0000 H   0  0  0  0  0  0  0  0  0  0  0  0
    6.0010    3.8030    0.0000 H   0  0  0  0  0  0  0  0  0  0  0  0
    4.9450    4.0860    0.0000 H   0  0  0  0  0  0  0  0  0  0  0  0
    3.9590   -4.0860    0.0000 H   0  0  0  0  0  0  0  0  0  0  0  0
    4.8891   -3.5490    0.0000 H   0  0  0  0  0  0  0  0  0  0  0  0
    2.4589   -3.2199    0.0000 H   0  0  0  0  0  0  0  0  0  0  0  0
    2.4590   -2.1461    0.0000 H   0  0  0  0  0  0  0  0  0  0  0  0
  1  2  1  0  0  0  0
  1  6  1  0  0  0  0
  1  7  1  0  0  0  0
  1  8  2  0  0  0  0
 14  2  1  1  0  0  0
 15  3  1  1  0  0  0
  3 28  1  0  0  0  0
 17  4  1  6  0  0  0
  4 29  1  0  0  0  0
 18  5  1  1  0  0  0
  5 30  1  0  0  0  0
  6 31  1  0  0  0  0
  7 32  1  0  0  0  0
 13  9  1  6  0  0  0
  9 26  1  0  0  0  0
  9 27  1  0  0  0  0
 16 10  1  6  0  0  0
 10 19  2  0  0  0  0
 11 19  1  0  0  0  0
 11 33  1  0  0  0  0
 11 34  1  0  0  0  0
 12 19  1  0  0  0  0
 12 35  1  0  0  0  0
 12 36  1  0  0  0  0
 13 14  1  0  0  0  0
 13 15  1  0  0  0  0
 13 20  1  0  0  0  0
 14 17  1  0  0  0  0
 14 21  1  0  0  0  0
 15 16  1  0  0  0  0
 15 22  1  0  0  0  0
 16 18  1  0  0  0  0
 16 23  1  0  0  0  0
 17 18  1  0  0  0  0
 17 24  1  0  0  0  0
 18 25  1  0  0  0  0
M  END
> <PUBCHEM_COMPOUND_CID>
6857377

> <PUBCHEM_COMPOUND_CANONICALIZED>
1

> <PUBCHEM_CACTVS_COMPLEXITY>
397

> <PUBCHEM_CACTVS_HBOND_ACCEPTOR>
9

> <PUBCHEM_CACTVS_HBOND_DONOR>
8

> <PUBCHEM_CACTVS_ROTATABLE_BOND>
3

> <PUBCHEM_CACTVS_SUBSKEYS>
AAADceBjuAIAAAAAAAAAAAAAAAAAAAAAAAAwAAAAAAAAAAAAAAAAHgAQCCAACDzhgAYBAAJAAxAgQAAAJIAAAAEAAAAAAIAAAAADEAIAwAAAQAAHEAABAAHwcAUAAAAAAAAAAAACgAAUCACgAAAAAAAAAA==

> <PUBCHEM_IUPAC_OPENEYE_NAME>
[(1R,2S,3S,4R,5S,6R)-2-amino-4-guanidino-3,5,6-trihydroxy-cyclohexyl] dihydrogen phosphate

> <PUBCHEM_IUPAC_CAS_NAME>
[(1R,2S,3S,4R,5S,6R)-2-amino-4-(diaminomethylideneamino)-3,5,6-trihydroxycyclohexyl] dihydrogen phosphate

> <PUBCHEM_IUPAC_NAME>
[(1R,2S,3S,4R,5S,6R)-2-amino-4-(diaminomethylideneamino)-3,5,6-trihydroxycyclohexyl] dihydrogen phosphate

> <PUBCHEM_IUPAC_SYSTEMATIC_NAME>
[(1R,2S,3S,4R,5S,6R)-2-azanyl-4-[bis(azanyl)methylideneamino]-3,5,6-tris(oxidanyl)cyclohexyl] dihydrogen phosphate

> <PUBCHEM_IUPAC_TRADITIONAL_NAME>
[(1R,2S,3S,4R,5S,6R)-2-amino-4-guanidino-3,5,6-trihydroxy-cyclohexyl] dihydrogen phosphate

> <PUBCHEM_IUPAC_INCHI>
InChI=1S/C7H17N4O7P/c8-1-3(12)2(11-7(9)10)4(13)5(14)6(1)18-19(15,16)17/h1-6,12-14H,8H2,(H4,9,10,11)(H2,15,16,17)/t1-,2+,3-,4-,5+,6+/m0/s1

> <PUBCHEM_IUPAC_INCHIKEY>
RCHWKUFHKPKXKQ-UZAAGFTCSA-N

> <PUBCHEM_XLOGP3_AA>
-8.2

> <PUBCHEM_EXACT_MASS>
300.083486

> <PUBCHEM_MOLECULAR_FORMULA>
C7H17N4O7P

> <PUBCHEM_MOLECULAR_WEIGHT>
300.206242

> <PUBCHEM_OPENEYE_CAN_SMILES>
C1(C(C(C(C(C1OP(=O)(O)O)O)O)N=C(N)N)O)N

> <PUBCHEM_OPENEYE_ISO_SMILES>
[C@@H]1([C@@H]([C@H]([C@@H]([C@H]([C@@H]1OP(=O)(O)O)O)O)N=C(N)N)O)N

> <PUBCHEM_CACTVS_TPSA>
218

> <PUBCHEM_MONOISOTOPIC_WEIGHT>
300.083486

> <PUBCHEM_TOTAL_CHARGE>
0

> <PUBCHEM_HEAVY_ATOM_COUNT>
19

> <PUBCHEM_ATOM_DEF_STEREO_COUNT>
6

> <PUBCHEM_ATOM_UDEF_STEREO_COUNT>
0

> <PUBCHEM_BOND_DEF_STEREO_COUNT>
0

> <PUBCHEM_BOND_UDEF_STEREO_COUNT>
0

> <PUBCHEM_ISOTOPIC_ATOM_COUNT>
0

> <PUBCHEM_COMPONENT_COUNT>
1

> <PUBCHEM_CACTVS_TAUTO_COUNT>
2

> <PUBCHEM_COORDINATE_TYPE>
1
5
255

> <PUBCHEM_BONDANNOTATIONS>
16  10  6
14  2  5
15  3  5
17  4  6
18  5  5
13  9  6

$$$$

