   Color/Form

     * Colorless or pale yellow liquid
     * CRYSTALS FROM HEXANE

   from [1]HSDB

   Odor
        Odor of cloves
   from [2]HSDB

   Taste
        Spicy, pungent taste
   from [3]HSDB

   Boiling Point
        253.2 deg C at 760 mm Hg
   from [4]HSDB

   Melting Point
        -9.2 to -9.1 deg C
   from [5]HSDB

   Density/Specific Gravity
        1.0664 at 20 deg C/4 deg C
   from [6]HSDB

   Dissociation Constants
        pKa = 10.19 at 25 deg C
   from [7]HSDB

   Octanol/Water Partition Coefficient
        log Kow = 2.27
   from [8]HSDB

   Solubilities

     * Sol in glacial acetic acid, 1 mL in 2 mL 70% alcohol, aq fixed
       alkali hydroxide solutions; miscible with alcohol, chloroform,
       ether, oils
     * Water: 0.0398 moles/l
     * In water, 2.463X10+3 mg/L at 25 deg C

   from [9]HSDB

   Spectral Properties

     * INDEX OF REFRACTION: 1.5416 @ 19.5 DEG C/D; 1.5380-1.5420 @ 20 DEG
       C/D; SPECIFIC OPTICAL ROTATION: -1 DEG 30 MIN
     * Index of refraction: 1.5410 at 20 deg C/D
     * SADTLER REF NUMBER: 3880 (IR, PRISM)
     * IR: 5146 (Coblentz Society Spectral Collection)
     * UV: 3-254 (Organic Electronic Spectral Data, Phillips et al, John
       Wiley & Sons, New York)
     * NMR: 260 (Varian Associates NMR Spectra Catalogue)
     * MASS: 77576 (NIST/EPA/MSDC Mass Spectral Data Base, 1990 Version)

   from [10]HSDB

   Vapor Pressure
        2.26X10-2 mm Hg at 25 deg C
   from [11]HSDB

   Other Chemical/Physical Properties

     * VP: 1 mm Hg at 78.4 deg C. Percent in saturated air: approx 0.004
       at 25 deg C, 760 mmHg
     * Distills between 250 deg C and 255 deg C
     * Oily; Becomes brown in air; Optically inactive.
     * Crystals; mp: 69-70 deg C; bp: 360 deg C; practically insol in
       water; freely sol in benzene, chloroform, ether, hot alcohol.
       /Eugenol benzoate/
     * Henry's Law constant = 2.0X10-6 atm-cu m/mole at 25 deg C (est)
     * Hydroxyl radical reaction rate constant: 6.5X10-11 cu cm/molec-sec
       at 25 deg C (est)
     * Ozone reaction rate constant: 1.2X10-17 cu cm/molec-sec at 25 deg C
       (est)

   from [12]HSDB

   Computed Properties
   Molecular Weight                  164.20108 [g/mol]
   Molecular Formula                 C[10]H[12]O[2]
   XLogP3                            2
   H-Bond Donor                      1
   H-Bond Acceptor                   2
   Rotatable Bond Count              3
   Tautomer Count                    3
   Exact Mass                        164.08373
   MonoIsotopic Mass                 164.08373
   Topological Polar Surface Area    29.5
   Heavy Atom Count                  12
   Formal Charge                     0
   Complexity                        145
   Isotope Atom Count                0
   Defined Atom Stereocenter Count   0
   Undefined Atom Stereocenter Count 0
   Defined Bond Stereocenter Count   0
   Undefined Bond Stereocenter Count 0
   Covalently-Bonded Unit Count      1
   Feature 3D Acceptor Count         1
   Feature 3D Donor Count            1
   Feature 3D Hydrophobe Count       1
   Feature 3D Ring Count             1
   Effective Rotor Count             3
   Conformer Sampling RMSD           0.6
   CID Conformer Count               [13]9

References

   1. http://toxnet.nlm.nih.gov/cgi-bin/sis/search/r?dbs+hsdb:@term+@rn+@rel+97-53-0
   2. http://toxnet.nlm.nih.gov/cgi-bin/sis/search/r?dbs+hsdb:@term+@rn+@rel+97-53-0
   3. http://toxnet.nlm.nih.gov/cgi-bin/sis/search/r?dbs+hsdb:@term+@rn+@rel+97-53-0
   4. http://toxnet.nlm.nih.gov/cgi-bin/sis/search/r?dbs+hsdb:@term+@rn+@rel+97-53-0
   5. http://toxnet.nlm.nih.gov/cgi-bin/sis/search/r?dbs+hsdb:@term+@rn+@rel+97-53-0
   6. http://toxnet.nlm.nih.gov/cgi-bin/sis/search/r?dbs+hsdb:@term+@rn+@rel+97-53-0
   7. http://toxnet.nlm.nih.gov/cgi-bin/sis/search/r?dbs+hsdb:@term+@rn+@rel+97-53-0
   8. http://toxnet.nlm.nih.gov/cgi-bin/sis/search/r?dbs+hsdb:@term+@rn+@rel+97-53-0
   9. http://toxnet.nlm.nih.gov/cgi-bin/sis/search/r?dbs+hsdb:@term+@rn+@rel+97-53-0
  10. http://toxnet.nlm.nih.gov/cgi-bin/sis/search/r?dbs+hsdb:@term+@rn+@rel+97-53-0
  11. http://toxnet.nlm.nih.gov/cgi-bin/sis/search/r?dbs+hsdb:@term+@rn+@rel+97-53-0
  12. http://toxnet.nlm.nih.gov/cgi-bin/sis/search/r?dbs+hsdb:@term+@rn+@rel+97-53-0
  13. http://pubchem.ncbi.nlm.nih.gov/vw3d/vw3d.cgi?cid=3314
