10818425
  -OEChem-07051213072D

107108  0     1  0  0  0  0  0999 V2000
    5.3024    1.8249    0.0000 O   0  0  0  0  0  0  0  0  0  0  0  0
    2.7863    0.1910    0.0000 O   0  0  0  0  0  0  0  0  0  0  0  0
    2.9433   -2.8049    0.0000 O   0  0  0  0  0  0  0  0  0  0  0  0
    8.4495    1.8175    0.0000 O   0  0  0  0  0  0  0  0  0  0  0  0
    7.0320    1.9156    0.0000 O   0  0  0  0  0  0  0  0  0  0  0  0
   12.2527    0.7586    0.0000 O   0  0  0  0  0  0  0  0  0  0  0  0
    8.6047    4.3850    0.0000 O   0  0  0  0  0  0  0  0  0  0  0  0
    8.4504   -3.9574    0.0000 O   0  0  0  0  0  0  0  0  0  0  0  0
   10.9437   -0.1924    0.0000 N   0  0  0  0  0  0  0  0  0  0  0  0
    4.5160    0.2817    0.0000 C   0  0  3  0  0  0  0  0  0  0  0  0
    4.4637    1.2803    0.0000 C   0  0  3  0  0  0  0  0  0  0  0  0
    3.6773   -0.2630    0.0000 C   0  0  3  0  0  0  0  0  0  0  0  0
    3.5727    1.7343    0.0000 C   0  0  3  0  0  0  0  0  0  0  0  0
    3.7297   -1.2616    0.0000 C   0  0  0  0  0  0  0  0  0  0  0  0
    5.0606   -0.5570    0.0000 C   0  0  0  0  0  0  0  0  0  0  0  0
    2.8910   -1.8062    0.0000 C   0  0  3  0  0  0  0  0  0  0  0  0
    2.7340    1.1897    0.0000 C   0  0  0  0  0  0  0  0  0  0  0  0
    3.5203    2.7329    0.0000 C   0  0  0  0  0  0  0  0  0  0  0  0
    2.0000   -1.3522    0.0000 C   0  0  0  0  0  0  0  0  0  0  0  0
    4.3590    3.2776    0.0000 C   0  0  0  0  0  0  0  0  0  0  0  0
    6.1934    1.3709    0.0000 C   0  0  0  0  0  0  0  0  0  0  0  0
    9.4490    1.7866    0.0000 C   0  0  3  0  0  0  0  0  0  0  0  0
   10.5096    1.4278    0.0000 C   0  0  3  0  0  0  0  0  0  0  0  0
    9.1400    2.7377    0.0000 C   0  0  0  0  0  0  0  0  0  0  0  0
    8.3968    3.4068    0.0000 C   0  0  3  0  0  0  0  0  0  0  0  0
    5.2500    2.8236    0.0000 C   0  0  0  0  0  0  0  0  0  0  0  0
    6.2457    0.3723    0.0000 C   0  0  0  0  0  0  0  0  0  0  0  0
   11.2247    2.1268    0.0000 C   0  0  0  0  0  0  0  0  0  0  0  0
   11.2527    0.7586    0.0000 C   0  0  0  0  0  0  0  0  0  0  0  0
    7.4458    3.0978    0.0000 C   0  0  0  0  0  0  0  0  0  0  0  0
    5.7040    3.7146    0.0000 C   0  0  0  0  0  0  0  0  0  0  0  0
    6.7026    3.7669    0.0000 C   0  0  0  0  0  0  0  0  0  0  0  0
    6.9888   -0.2968    0.0000 C   0  0  0  0  0  0  0  0  0  0  0  0
    7.9764    2.6984    0.0000 C   0  0  0  0  0  0  0  0  0  0  0  0
   11.7527   -0.7802    0.0000 C   0  0  0  0  0  0  0  0  0  0  0  0
   12.5617   -0.1924    0.0000 C   0  0  0  0  0  0  0  0  0  0  0  0
    7.9875   -0.2445    0.0000 C   0  0  0  0  0  0  0  0  0  0  0  0
   11.8050   -1.7788    0.0000 C   0  0  0  0  0  0  0  0  0  0  0  0
    9.2367   -2.4141    0.0000 C   0  0  3  0  0  0  0  0  0  0  0  0
    9.2890   -3.4128    0.0000 C   0  0  3  0  0  0  0  0  0  0  0  0
   10.9664   -2.3235    0.0000 C   0  0  0  0  0  0  0  0  0  0  0  0
    8.4414    0.6465    0.0000 C   0  0  0  0  0  0  0  0  0  0  0  0
   10.0754   -1.8695    0.0000 C   0  0  0  0  0  0  0  0  0  0  0  0
    8.3457   -1.9601    0.0000 C   0  0  0  0  0  0  0  0  0  0  0  0
   10.1800   -3.8667    0.0000 C   0  0  0  0  0  0  0  0  0  0  0  0
   11.0187   -3.3221    0.0000 C   0  0  0  0  0  0  0  0  0  0  0  0
    9.5307   -1.0308    0.0000 C   0  0  0  0  0  0  0  0  0  0  0  0
    9.4401    0.6989    0.0000 C   0  0  0  0  0  0  0  0  0  0  0  0
    9.9847   -0.1398    0.0000 C   0  0  0  0  0  0  0  0  0  0  0  0
    8.6102   -1.4215    0.0000 C   0  0  0  0  0  0  0  0  0  0  0  0
    5.1057    0.4733    0.0000 H   0  0  0  0  0  0  0  0  0  0  0  0
    5.0161    0.9988    0.0000 H   0  0  0  0  0  0  0  0  0  0  0  0
    3.6449    0.3562    0.0000 H   0  0  0  0  0  0  0  0  0  0  0  0
    3.6051    1.1151    0.0000 H   0  0  0  0  0  0  0  0  0  0  0  0
    3.9719   -1.8323    0.0000 H   0  0  0  0  0  0  0  0  0  0  0  0
    4.3338   -1.1221    0.0000 H   0  0  0  0  0  0  0  0  0  0  0  0
    4.5407   -0.8947    0.0000 H   0  0  0  0  0  0  0  0  0  0  0  0
    5.3983   -1.0770    0.0000 H   0  0  0  0  0  0  0  0  0  0  0  0
    5.5806   -0.2193    0.0000 H   0  0  0  0  0  0  0  0  0  0  0  0
    2.3710   -2.1439    0.0000 H   0  0  0  0  0  0  0  0  0  0  0  0
    2.3963    1.7096    0.0000 H   0  0  0  0  0  0  0  0  0  0  0  0
    2.2140    0.8520    0.0000 H   0  0  0  0  0  0  0  0  0  0  0  0
    3.0717    0.6697    0.0000 H   0  0  0  0  0  0  0  0  0  0  0  0
    2.9679    3.0144    0.0000 H   0  0  0  0  0  0  0  0  0  0  0  0
    2.2664   -0.1467    0.0000 H   0  0  0  0  0  0  0  0  0  0  0  0
    2.2815   -0.7998    0.0000 H   0  0  0  0  0  0  0  0  0  0  0  0
    1.4476   -1.0708    0.0000 H   0  0  0  0  0  0  0  0  0  0  0  0
    1.7185   -1.9047    0.0000 H   0  0  0  0  0  0  0  0  0  0  0  0
    4.3266    3.8967    0.0000 H   0  0  0  0  0  0  0  0  0  0  0  0
    2.4234   -3.1425    0.0000 H   0  0  0  0  0  0  0  0  0  0  0  0
    9.3389    1.1765    0.0000 H   0  0  0  0  0  0  0  0  0  0  0  0
   10.3719    2.0323    0.0000 H   0  0  0  0  0  0  0  0  0  0  0  0
    9.7596    2.7160    0.0000 H   0  0  0  0  0  0  0  0  0  0  0  0
    8.6200    2.4000    0.0000 H   0  0  0  0  0  0  0  0  0  0  0  0
    8.9865    3.5984    0.0000 H   0  0  0  0  0  0  0  0  0  0  0  0
    5.6317    2.3350    0.0000 H   0  0  0  0  0  0  0  0  0  0  0  0
    5.8945   -0.1386    0.0000 H   0  0  0  0  0  0  0  0  0  0  0  0
   11.6581    1.6834    0.0000 H   0  0  0  0  0  0  0  0  0  0  0  0
   11.6680    2.5602    0.0000 H   0  0  0  0  0  0  0  0  0  0  0  0
   10.7913    2.5702    0.0000 H   0  0  0  0  0  0  0  0  0  0  0  0
    7.3169    2.4913    0.0000 H   0  0  0  0  0  0  0  0  0  0  0  0
    5.3663    4.2345    0.0000 H   0  0  0  0  0  0  0  0  0  0  0  0
    6.9096    4.3514    0.0000 H   0  0  0  0  0  0  0  0  0  0  0  0
    6.7819   -0.8812    0.0000 H   0  0  0  0  0  0  0  0  0  0  0  0
    9.1944    4.5765    0.0000 H   0  0  0  0  0  0  0  0  0  0  0  0
    8.5226    2.9918    0.0000 H   0  0  0  0  0  0  0  0  0  0  0  0
    7.6830    3.2446    0.0000 H   0  0  0  0  0  0  0  0  0  0  0  0
    7.4302    2.4051    0.0000 H   0  0  0  0  0  0  0  0  0  0  0  0
   13.1514   -0.3840    0.0000 H   0  0  0  0  0  0  0  0  0  0  0  0
    8.1269   -0.8486    0.0000 H   0  0  0  0  0  0  0  0  0  0  0  0
   12.3575   -2.0603    0.0000 H   0  0  0  0  0  0  0  0  0  0  0  0
    9.2042   -1.7950    0.0000 H   0  0  0  0  0  0  0  0  0  0  0  0
    8.7366   -3.1313    0.0000 H   0  0  0  0  0  0  0  0  0  0  0  0
   10.3622   -2.4628    0.0000 H   0  0  0  0  0  0  0  0  0  0  0  0
   10.6893   -1.7832    0.0000 H   0  0  0  0  0  0  0  0  0  0  0  0
    8.0186    1.1000    0.0000 H   0  0  0  0  0  0  0  0  0  0  0  0
    8.6272   -1.4077    0.0000 H   0  0  0  0  0  0  0  0  0  0  0  0
    7.7933   -1.6786    0.0000 H   0  0  0  0  0  0  0  0  0  0  0  0
    8.0642   -2.5126    0.0000 H   0  0  0  0  0  0  0  0  0  0  0  0
   10.2125   -4.4859    0.0000 H   0  0  0  0  0  0  0  0  0  0  0  0
   11.5711   -3.6036    0.0000 H   0  0  0  0  0  0  0  0  0  0  0  0
    9.7216    1.2513    0.0000 H   0  0  0  0  0  0  0  0  0  0  0  0
   10.4382    0.2830    0.0000 H   0  0  0  0  0  0  0  0  0  0  0  0
    8.4828   -4.5765    0.0000 H   0  0  0  0  0  0  0  0  0  0  0  0
    8.3680   -0.8507    0.0000 H   0  0  0  0  0  0  0  0  0  0  0  0
    8.0394   -1.6636    0.0000 H   0  0  0  0  0  0  0  0  0  0  0  0
    8.8524   -1.9922    0.0000 H   0  0  0  0  0  0  0  0  0  0  0  0
  1 11  1  0  0  0  0
  1 21  1  0  0  0  0
  2 12  1  0  0  0  0
  2 65  1  0  0  0  0
  3 16  1  0  0  0  0
  3 70  1  0  0  0  0
  4 22  1  0  0  0  0
  4 34  1  0  0  0  0
  5 21  2  0  0  0  0
  6 29  1  0  0  0  0
  6 36  1  0  0  0  0
  7 25  1  0  0  0  0
  7 85  1  0  0  0  0
  8 40  1  0  0  0  0
  8104  1  0  0  0  0
  9 29  2  0  0  0  0
  9 35  1  0  0  0  0
 10 11  1  0  0  0  0
 10 12  1  0  0  0  0
 10 15  1  0  0  0  0
 10 51  1  0  0  0  0
 11 13  1  0  0  0  0
 11 52  1  0  0  0  0
 12 14  1  0  0  0  0
 12 53  1  0  0  0  0
 13 17  1  0  0  0  0
 13 18  1  0  0  0  0
 13 54  1  0  0  0  0
 14 16  1  0  0  0  0
 14 55  1  0  0  0  0
 14 56  1  0  0  0  0
 15 57  1  0  0  0  0
 15 58  1  0  0  0  0
 15 59  1  0  0  0  0
 16 19  1  0  0  0  0
 16 60  1  0  0  0  0
 17 61  1  0  0  0  0
 17 62  1  0  0  0  0
 17 63  1  0  0  0  0
 18 20  2  0  0  0  0
 18 64  1  0  0  0  0
 19 66  1  0  0  0  0
 19 67  1  0  0  0  0
 19 68  1  0  0  0  0
 20 26  1  0  0  0  0
 20 69  1  0  0  0  0
 21 27  1  0  0  0  0
 22 23  1  0  0  0  0
 22 24  1  0  0  0  0
 22 71  1  0  0  0  0
 23 28  1  0  0  0  0
 23 29  1  0  0  0  0
 23 72  1  0  0  0  0
 24 25  1  0  0  0  0
 24 73  1  0  0  0  0
 24 74  1  0  0  0  0
 25 30  1  0  0  0  0
 25 75  1  0  0  0  0
 26 31  2  0  0  0  0
 26 76  1  0  0  0  0
 27 33  2  0  0  0  0
 27 77  1  0  0  0  0
 28 78  1  0  0  0  0
 28 79  1  0  0  0  0
 28 80  1  0  0  0  0
 30 32  2  0  0  0  0
 30 81  1  0  0  0  0
 31 32  1  0  0  0  0
 31 82  1  0  0  0  0
 32 83  1  0  0  0  0
 33 37  1  0  0  0  0
 33 84  1  0  0  0  0
 34 86  1  0  0  0  0
 34 87  1  0  0  0  0
 34 88  1  0  0  0  0
 35 36  2  0  0  0  0
 35 38  1  0  0  0  0
 36 89  1  0  0  0  0
 37 42  2  0  0  0  0
 37 90  1  0  0  0  0
 38 41  2  0  0  0  0
 38 91  1  0  0  0  0
 39 40  1  0  0  0  0
 39 43  1  0  0  0  0
 39 44  1  0  0  0  0
 39 92  1  0  0  0  0
 40 45  1  0  0  0  0
 40 93  1  0  0  0  0
 41 46  1  0  0  0  0
 41 94  1  0  0  0  0
 42 48  1  0  0  0  0
 42 96  1  0  0  0  0
 43 47  2  0  0  0  0
 43 95  1  0  0  0  0
 44 97  1  0  0  0  0
 44 98  1  0  0  0  0
 44 99  1  0  0  0  0
 45 46  2  0  0  0  0
 45100  1  0  0  0  0
 46101  1  0  0  0  0
 47 49  1  0  0  0  0
 47 50  1  0  0  0  0
 48 49  2  0  0  0  0
 48102  1  0  0  0  0
 49103  1  0  0  0  0
 50105  1  0  0  0  0
 50106  1  0  0  0  0
 50107  1  0  0  0  0
M  END
> <PUBCHEM_COMPOUND_CID>
10818425

> <PUBCHEM_COMPOUND_CANONICALIZED>
1

> <PUBCHEM_CACTVS_COMPLEXITY>
1280

> <PUBCHEM_CACTVS_HBOND_ACCEPTOR>
9

> <PUBCHEM_CACTVS_HBOND_DONOR>
4

> <PUBCHEM_CACTVS_ROTATABLE_BOND>
5

> <PUBCHEM_CACTVS_SUBSKEYS>
AAADcfB+PAAAAAAAAAAAAAAAAAAAAWAAAAAAAAAAAAAAAAABgAAAHgAACAAADRyhlgIijBIIFkCoAy3y3ASCiCArYiAIiAG1IFgOFBaEoSAPWCCH5ACYsYeY/O5OAAAAAAAAAAAAAAAAAAAAAAAAAAAAAA==

> <PUBCHEM_IUPAC_OPENEYE_NAME>
(2E,4Z,8E,10Z,12E,14Z,20Z,22E,24E)-18-(2,4-dihydroxy-1-methyl-pentyl)-6,26-dihydroxy-28-methoxy-7,9,19,29-tetramethyl-17,31-dioxa-33-azabicyclo[28.2.1]tritriaconta-1(32),2,4,8,10,12,14,20,22,24,30(33)-undecaen-16-one

> <PUBCHEM_IUPAC_CAS_NAME>
(2E,4Z,8E,10Z,12E,14Z,20Z,22E,24E)-18-(3,5-dihydroxyhexan-2-yl)-6,26-dihydroxy-28-methoxy-7,9,19,29-tetramethyl-17,31-dioxa-33-azabicyclo[28.2.1]tritriaconta-1(32),2,4,8,10,12,14,20,22,24,30(33)-undecaen-16-one

> <PUBCHEM_IUPAC_NAME>
(2E,4Z,8E,10Z,12E,14Z,20Z,22E,24E)-18-(3,5-dihydroxyhexan-2-yl)-6,26-dihydroxy-28-methoxy-7,9,19,29-tetramethyl-17,31-dioxa-33-azabicyclo[28.2.1]tritriaconta-1(32),2,4,8,10,12,14,20,22,24,30(33)-undecaen-16-one

> <PUBCHEM_IUPAC_SYSTEMATIC_NAME>
(2E,4Z,8E,10Z,12E,14Z,20Z,22E,24E)-18-[3,5-bis(oxidanyl)hexan-2-yl]-28-methoxy-7,9,19,29-tetramethyl-6,26-bis(oxidanyl)-17,31-dioxa-33-azabicyclo[28.2.1]tritriaconta-1(32),2,4,8,10,12,14,20,22,24,30(33)-undecaen-16-one

> <PUBCHEM_IUPAC_TRADITIONAL_NAME>
(2E,4Z,8E,10Z,12E,14Z,20Z,22E,24E)-18-(2,4-dihydroxy-1-methyl-pentyl)-6,26-dihydroxy-28-methoxy-7,9,19,29-tetramethyl-17,31-dioxa-33-azabicyclo[28.2.1]tritriaconta-1(32),2,4,8,10,12,14,20,22,24,30(33)-undecaen-16-one

> <PUBCHEM_IUPAC_INCHI>
InChI=1S/C41H57NO8/c1-28-18-12-8-11-15-23-39(47)50-40(32(5)37(46)25-31(4)43)29(2)19-13-9-10-14-21-35(44)26-38(48-7)33(6)41-42-34(27-49-41)20-16-17-22-36(45)30(3)24-28/h8-24,27,29-33,35-38,40,43-46H,25-26H2,1-7H3/b10-9+,11-8+,18-12-,19-13-,20-16+,21-14+,22-17-,23-15-,28-24+

> <PUBCHEM_IUPAC_INCHIKEY>
ATQKOUYCGKRYRF-GDDXYXLTSA-N

> <PUBCHEM_XLOGP3_AA>
7.6

> <PUBCHEM_EXACT_MASS>
691.408418

> <PUBCHEM_MOLECULAR_FORMULA>
C41H57NO8

> <PUBCHEM_MOLECULAR_WEIGHT>
691.89318

> <PUBCHEM_OPENEYE_CAN_SMILES>
CC1C=CC=CC=CC(CC(C(C2=NC(=CO2)C=CC=CC(C(C=C(C=CC=CC=CC(=O)OC1C(C)C(CC(C)O)O)C)C)O)C)OC)O

> <PUBCHEM_OPENEYE_ISO_SMILES>
CC1/C=C\C=C\C=C\C(CC(C(C2=NC(=CO2)/C=C/C=C\C(C(/C=C(/C=C\C=C\C=C/C(=O)OC1C(C)C(CC(C)O)O)\C)C)O)C)OC)O

> <PUBCHEM_CACTVS_TPSA>
143

> <PUBCHEM_MONOISOTOPIC_WEIGHT>
691.408418

> <PUBCHEM_TOTAL_CHARGE>
0

> <PUBCHEM_HEAVY_ATOM_COUNT>
50

> <PUBCHEM_ATOM_DEF_STEREO_COUNT>
0

> <PUBCHEM_ATOM_UDEF_STEREO_COUNT>
10

> <PUBCHEM_BOND_DEF_STEREO_COUNT>
9

> <PUBCHEM_BOND_UDEF_STEREO_COUNT>
0

> <PUBCHEM_ISOTOPIC_ATOM_COUNT>
0

> <PUBCHEM_COMPONENT_COUNT>
1

> <PUBCHEM_CACTVS_TAUTO_COUNT>
1

> <PUBCHEM_COORDINATE_TYPE>
1
5
255

> <PUBCHEM_BONDANNOTATIONS>
11  1  3
10  15  3
13  17  3
12  2  3
23  28  3
16  3  3
35  36  8
39  44  3
22  4  3
6  29  8
6  36  8
25  7  3
40  8  3
9  29  8
9  35  8

$$$$

