   Color/Form
        Colorless gas [Note Shipped as a liquefied compressed gas. Easily
   liquefied under pressure].
   from [1]HSDB

   Odor

     * Sharp, cloying, repellent
     * ... Pungent, suffocating odor ...
     * Sharp, intensely irritating odor
     * Very pungent odor, characteristic of drying urine

   from [2]HSDB

   Boiling Point
        -33.35 DEG C
   from [3]HSDB

   Melting Point
        -77.7 DEG C
   from [4]HSDB

   Corrosivity

     * CORROSIVE, ALKALINE GAS
     * Liquid ammonia will attack some forms of plastics, rubber, and
       coatings.

   from [5]HSDB

   Critical Temperature and Pressure
        CRITICAL TEMP: 132.4 DEG C; CRITICAL PRESSURE: 111.5 ATM
   from [6]HSDB

   Density/Specific Gravity
        0.7710 G/L @ 760 MM HG (GAS)
   from [7]HSDB

   Dissociation Constants
        pKa = 9.25 @ 25 deg C
   from [8]HSDB

   Heat of Combustion
        -7992 Btu/lb= -4440 cal/g= -185.9x10+5 J/kg
   from [9]HSDB

   Heat of Vaporization
        5.581 KCAL/MOLE
   from [10]HSDB

   pH
        pH of 1.0N aqueous solution 11.6; 0.1N aqueous solution 11.1;
   0.01N aqueous solution 10.6.
   from [11]HSDB

   Solubilities

     * 47% IN WATER AT 0 DEG C
     * 38% IN WATER AT 15 DEG C
     * 34% IN WATER @ 20 DEG C
     * 31% IN WATER @ 25 DEG C
     * 28% IN WATER @ 30 DEG C
     * 18% IN WATER AT 50 DEG C
     * 15% IN 95% ALCOHOL AT 20 DEG C
     * 11% IN ALCOHOL AT 30 DEG C
     * 20% IN ABSOLUTE ETHANOL AT 0 DEG C
     * 10% IN ABSOLUTE ETHANOL AT 25 DEG C
     * 16% IN METHANOL AT 25 DEG C
     * SOL IN CHLOROFORM & ETHER
     * 531,000 mg/l in water at 20 deg C; 895,000 mg/l in water at 0 deg
       C; 444,000 mg/l in water at 28 deg C
     * water solubility = 482,000 mg/l @ 25 deg C
     * Soluble in water forming alkaline solutions; soluble in oxygenated
       solvents.

   from [12]HSDB

   Spectral Properties
        INDEX OF REFRACTION: 0.817 @ -79 DEG C/D; 1.325 @ 16.5 DEG C/D
   from [13]HSDB

   Surface Tension
        23.4 dynes/cm at 11.1 deg C; 18.1 dynes/cm at 34.1 deg C
   from [14]HSDB

   Vapor Density
        0.59 (Air= 1)
   from [15]HSDB

   Vapor Pressure
        vapor pressure = 7,510 mm Hg @ 25 deg C (from experimentally
   derived coefficients)
   from [16]HSDB

   Viscosity
        0.475, 0.317, 0.276 & 0.255 CENTIPOISE AT -69, -50, -40 & -33.5
   DEG C, RESPECTIVELY
   from [17]HSDB

   Other Chemical/Physical Properties

     * DENSITY OF LIQ NH3: 0.6818 AT -33.35 DEG C, 1 ATM; 0.6585 AT -15
       DEG C, 2.332 ATM; 0.6386 AT 0 DEG C, 4.238 ATM; 0.6175 AT 15 DEG C,
       7.188 ATM; 0.5875 AT 35 DEG C, 13.321 ATM
     * VAPOR PRESSURE: 2, 5, 10, 20, 40 & 60 ATM AT -18.7, 4.7, 25.7,
       50.1, 78.9 & 98.3 DEG C, RESPECTIVELY
     * Liquified by compression
     * Specific gravity 0.817 at 79 deg C
     * Specific gravity at -33.4 deg C (liquid) 0.682
     * Dipole moment, gas: 4.9x10-30 C m; 1.47 D
     * HEAT CAPACITY 8.38 CAL/MOL/DEG AT 25 DEG C
     * 1 mg/cu m= 1.414 ppm; 1 ppm= 0.707 mg/cu m
     * AQUEOUS AMMONIA: pKb 4.767, Kb 1.710X10-5 at 20 deg C; pKb 4.751,
       Kb 1.774X10-5 at 25 deg C; pKb 4.740, Kb 1.820X10-5 at 30 deg C
     * Ionization potential= 10.5 eV
     * vapor pressure = 1 MM, 10 MM & 40 MM HG AT -109.1, -91.9 & -79.2
       DEG C, RESPECTIVELY, (SOLID); 100 MM & 400 MM AT -68.4 & -45.4 DEG
       C (LIQUID)
     * Density/Specific gravity: Density of aqueous solutions @ 20 deg C/4
       deg C: 0.9939 (1%), 0.9811 (4%), 0.9651 (8%), 0.9362 (16%), 0.9229
       (20%), 0.9101 (24%), 0.8980 (28%)
     * Lighter than air; easily liquified by pressure
     * Mixtures of ammonia and air will explode when ignited under
       favorable conditions: Angew. Chem 43: 302 (1930), but ammonia is
       generally regarded as nonflammable.
     * Freezing point of aqueous solutions, deg C: -2.9 (4%), -8.1 (8%),
       -23.1 (16%), -34.9 (20%), -44.5 (24%), -69.2 (28%)
     * One liter of the gas weighs 0.7714 g
     * Vapor pressure (kPa) = 152, 429, 1003, 2033, 3709, 6253, and 9963
       at -25, 0, 25, 50, 75, 100, and 125 deg C, respectively
     * Henry's Law constant = 1.61X10-5 atm cu-m/mole at 25 deg C

   from [18]HSDB

   Computed Properties
   Molecular Weight                  17.03052 [g/mol]
   Molecular Formula                 H[3]N
   XLogP3-AA                         -0.7
   H-Bond Donor                      1
   H-Bond Acceptor                   1
   Rotatable Bond Count              0
   Exact Mass                        17.026549
   MonoIsotopic Mass                 17.026549
   Topological Polar Surface Area    1
   Heavy Atom Count                  1
   Formal Charge                     0
   Complexity                        0
   Isotope Atom Count                0
   Defined Atom Stereocenter Count   0
   Undefined Atom Stereocenter Count 0
   Defined Bond Stereocenter Count   0
   Undefined Bond Stereocenter Count 0
   Covalently-Bonded Unit Count      1
   Feature 3D Cation Count           1
   Effective Rotor Count             0
   Conformer Sampling RMSD           0.4
   CID Conformer Count               [19]1

References

   1. http://toxnet.nlm.nih.gov/cgi-bin/sis/search/r?dbs+hsdb:@term+@rn+@rel+7664-41-7
   2. http://toxnet.nlm.nih.gov/cgi-bin/sis/search/r?dbs+hsdb:@term+@rn+@rel+7664-41-7
   3. http://toxnet.nlm.nih.gov/cgi-bin/sis/search/r?dbs+hsdb:@term+@rn+@rel+7664-41-7
   4. http://toxnet.nlm.nih.gov/cgi-bin/sis/search/r?dbs+hsdb:@term+@rn+@rel+7664-41-7
   5. http://toxnet.nlm.nih.gov/cgi-bin/sis/search/r?dbs+hsdb:@term+@rn+@rel+7664-41-7
   6. http://toxnet.nlm.nih.gov/cgi-bin/sis/search/r?dbs+hsdb:@term+@rn+@rel+7664-41-7
   7. http://toxnet.nlm.nih.gov/cgi-bin/sis/search/r?dbs+hsdb:@term+@rn+@rel+7664-41-7
   8. http://toxnet.nlm.nih.gov/cgi-bin/sis/search/r?dbs+hsdb:@term+@rn+@rel+7664-41-7
   9. http://toxnet.nlm.nih.gov/cgi-bin/sis/search/r?dbs+hsdb:@term+@rn+@rel+7664-41-7
  10. http://toxnet.nlm.nih.gov/cgi-bin/sis/search/r?dbs+hsdb:@term+@rn+@rel+7664-41-7
  11. http://toxnet.nlm.nih.gov/cgi-bin/sis/search/r?dbs+hsdb:@term+@rn+@rel+7664-41-7
  12. http://toxnet.nlm.nih.gov/cgi-bin/sis/search/r?dbs+hsdb:@term+@rn+@rel+7664-41-7
  13. http://toxnet.nlm.nih.gov/cgi-bin/sis/search/r?dbs+hsdb:@term+@rn+@rel+7664-41-7
  14. http://toxnet.nlm.nih.gov/cgi-bin/sis/search/r?dbs+hsdb:@term+@rn+@rel+7664-41-7
  15. http://toxnet.nlm.nih.gov/cgi-bin/sis/search/r?dbs+hsdb:@term+@rn+@rel+7664-41-7
  16. http://toxnet.nlm.nih.gov/cgi-bin/sis/search/r?dbs+hsdb:@term+@rn+@rel+7664-41-7
  17. http://toxnet.nlm.nih.gov/cgi-bin/sis/search/r?dbs+hsdb:@term+@rn+@rel+7664-41-7
  18. http://toxnet.nlm.nih.gov/cgi-bin/sis/search/r?dbs+hsdb:@term+@rn+@rel+7664-41-7
  19. http://pubchem.ncbi.nlm.nih.gov/vw3d/vw3d.cgi?cid=222
