440784
  -OEChem-07051212502D

 85 88  0     1  0  0  0  0  0999 V2000
    3.4557    2.4188    0.0000 O   0  0  0  0  0  0  0  0  0  0  0  0
   14.0162   -3.6783    0.0000 O   0  0  0  0  0  0  0  0  0  0  0  0
    7.8380    4.0755    0.0000 O   0  0  0  0  0  0  0  0  0  0  0  0
    5.1101   -3.7600    0.0000 O   0  0  0  0  0  0  0  0  0  0  0  0
    9.2392    3.0574    0.0000 O   0  0  0  0  0  0  0  0  0  0  0  0
    5.2912   -2.0375    0.0000 O   0  0  0  0  0  0  0  0  0  0  0  0
    6.9759   -0.9085    0.0000 N   0  0  0  0  0  0  0  0  0  0  0  0
    9.8574   -2.0146    0.0000 N   0  0  0  0  0  0  0  0  0  0  0  0
    4.5772    1.0339    0.0000 N   0  0  0  0  0  0  0  0  0  0  0  0
   12.2561   -3.9570    0.0000 N   0  0  0  0  0  0  0  0  0  0  0  0
    4.4727    0.0394    0.0000 C   0  0  3  0  0  0  0  0  0  0  0  0
    5.2158   -0.6297    0.0000 C   0  0  0  0  0  0  0  0  0  0  0  0
    6.1669   -0.3207    0.0000 C   0  0  0  0  0  0  0  0  0  0  0  0
    7.7849   -0.3207    0.0000 C   0  0  0  0  0  0  0  0  0  0  0  0
    8.7360   -0.6297    0.0000 C   0  0  0  0  0  0  0  0  0  0  0  0
    8.9439   -1.6079    0.0000 C   0  0  0  0  0  0  0  0  0  0  0  0
    7.4759    0.6303    0.0000 C   0  0  0  0  0  0  0  0  0  0  0  0
    6.4759    0.6303    0.0000 C   0  0  0  0  0  0  0  0  0  0  0  0
    9.7529   -3.0092    0.0000 C   0  0  0  0  0  0  0  0  0  0  0  0
    8.2747   -2.3510    0.0000 C   0  0  0  0  0  0  0  0  0  0  0  0
   10.4960   -3.6783    0.0000 C   0  0  0  0  0  0  0  0  0  0  0  0
    3.4945   -0.1685    0.0000 C   0  0  0  0  0  0  0  0  0  0  0  0
    8.7747   -3.2171    0.0000 C   0  0  0  0  0  0  0  0  0  0  0  0
   11.4471   -3.3693    0.0000 C   0  0  3  0  0  0  0  0  0  0  0  0
    8.0637    1.4393    0.0000 C   0  0  0  0  0  0  0  0  0  0  0  0
    7.2802   -2.2465    0.0000 C   0  0  0  0  0  0  0  0  0  0  0  0
    2.9945    0.6975    0.0000 C   0  0  0  0  0  0  0  0  0  0  0  0
   11.7561   -2.4182    0.0000 C   0  0  0  0  0  0  0  0  0  0  0  0
    3.0878   -1.0821    0.0000 C   0  0  0  0  0  0  0  0  0  0  0  0
    3.6636    1.4406    0.0000 C   0  0  0  0  0  0  0  0  0  0  0  0
    5.8881    1.4393    0.0000 C   0  0  0  0  0  0  0  0  0  0  0  0
    8.3680   -4.1306    0.0000 C   0  0  0  0  0  0  0  0  0  0  0  0
    7.6569    2.3529    0.0000 C   0  0  0  0  0  0  0  0  0  0  0  0
   12.7561   -2.4182    0.0000 C   0  0  0  0  0  0  0  0  0  0  0  0
    6.6924   -3.0555    0.0000 C   0  0  0  0  0  0  0  0  0  0  0  0
   13.0651   -3.3693    0.0000 C   0  0  0  0  0  0  0  0  0  0  0  0
    2.0000    0.8020    0.0000 C   0  0  0  0  0  0  0  0  0  0  0  0
   11.1683   -1.6092    0.0000 C   0  0  0  0  0  0  0  0  0  0  0  0
    2.0933   -1.1866    0.0000 C   0  0  0  0  0  0  0  0  0  0  0  0
   13.3439   -1.6092    0.0000 C   0  0  0  0  0  0  0  0  0  0  0  0
    8.2447    3.1619    0.0000 C   0  0  0  0  0  0  0  0  0  0  0  0
    5.6979   -2.9510    0.0000 C   0  0  0  0  0  0  0  0  0  0  0  0
   14.3384   -1.7137    0.0000 C   0  0  0  0  0  0  0  0  0  0  0  0
    5.2662    0.3440    0.0000 H   0  0  0  0  0  0  0  0  0  0  0  0
    4.7272   -1.0114    0.0000 H   0  0  0  0  0  0  0  0  0  0  0  0
    5.5069   -1.1772    0.0000 H   0  0  0  0  0  0  0  0  0  0  0  0
    9.3556   -0.6081    0.0000 H   0  0  0  0  0  0  0  0  0  0  0  0
    8.8222   -0.0158    0.0000 H   0  0  0  0  0  0  0  0  0  0  0  0
   10.0075   -4.0600    0.0000 H   0  0  0  0  0  0  0  0  0  0  0  0
   10.7871   -4.2257    0.0000 H   0  0  0  0  0  0  0  0  0  0  0  0
    6.9759   -1.5285    0.0000 H   0  0  0  0  0  0  0  0  0  0  0  0
   11.3141   -4.2088    0.0000 H   0  0  0  0  0  0  0  0  0  0  0  0
   10.3944   -1.7046    0.0000 H   0  0  0  0  0  0  0  0  0  0  0  0
    8.4944    0.9934    0.0000 H   0  0  0  0  0  0  0  0  0  0  0  0
    8.5777    1.7860    0.0000 H   0  0  0  0  0  0  0  0  0  0  0  0
    5.1141    1.3439    0.0000 H   0  0  0  0  0  0  0  0  0  0  0  0
    7.4511   -1.6505    0.0000 H   0  0  0  0  0  0  0  0  0  0  0  0
    6.7230   -1.9747    0.0000 H   0  0  0  0  0  0  0  0  0  0  0  0
    3.0445   -1.7006    0.0000 H   0  0  0  0  0  0  0  0  0  0  0  0
    3.6894   -1.2321    0.0000 H   0  0  0  0  0  0  0  0  0  0  0  0
    6.3897    1.8038    0.0000 H   0  0  0  0  0  0  0  0  0  0  0  0
    5.5237    1.9409    0.0000 H   0  0  0  0  0  0  0  0  0  0  0  0
    5.3865    1.0749    0.0000 H   0  0  0  0  0  0  0  0  0  0  0  0
   12.2561   -4.5770    0.0000 H   0  0  0  0  0  0  0  0  0  0  0  0
    7.8016   -3.8784    0.0000 H   0  0  0  0  0  0  0  0  0  0  0  0
    8.1158   -4.6970    0.0000 H   0  0  0  0  0  0  0  0  0  0  0  0
    8.9344   -4.3828    0.0000 H   0  0  0  0  0  0  0  0  0  0  0  0
    7.2262    2.7989    0.0000 H   0  0  0  0  0  0  0  0  0  0  0  0
    7.1429    2.0062    0.0000 H   0  0  0  0  0  0  0  0  0  0  0  0
    6.5215   -3.6515    0.0000 H   0  0  0  0  0  0  0  0  0  0  0  0
    7.2497   -3.3273    0.0000 H   0  0  0  0  0  0  0  0  0  0  0  0
    2.0648    1.4186    0.0000 H   0  0  0  0  0  0  0  0  0  0  0  0
    1.3834    0.8668    0.0000 H   0  0  0  0  0  0  0  0  0  0  0  0
    1.9352    0.1854    0.0000 H   0  0  0  0  0  0  0  0  0  0  0  0
   11.6699   -1.2448    0.0000 H   0  0  0  0  0  0  0  0  0  0  0  0
   10.8039   -1.1076    0.0000 H   0  0  0  0  0  0  0  0  0  0  0  0
   10.6667   -1.9736    0.0000 H   0  0  0  0  0  0  0  0  0  0  0  0
    2.0285   -0.5700    0.0000 H   0  0  0  0  0  0  0  0  0  0  0  0
    1.4767   -1.2514    0.0000 H   0  0  0  0  0  0  0  0  0  0  0  0
    2.1581   -1.8032    0.0000 H   0  0  0  0  0  0  0  0  0  0  0  0
   13.0917   -1.0428    0.0000 H   0  0  0  0  0  0  0  0  0  0  0  0
   14.5906   -2.2801    0.0000 H   0  0  0  0  0  0  0  0  0  0  0  0
   14.7028   -1.2121    0.0000 H   0  0  0  0  0  0  0  0  0  0  0  0
    8.2024    4.5770    0.0000 H   0  0  0  0  0  0  0  0  0  0  0  0
    4.4935   -3.6952    0.0000 H   0  0  0  0  0  0  0  0  0  0  0  0
  1 30  2  0  0  0  0
  2 36  2  0  0  0  0
  3 41  1  0  0  0  0
  3 84  1  0  0  0  0
  4 42  1  0  0  0  0
  4 85  1  0  0  0  0
  5 41  2  0  0  0  0
  6 42  2  0  0  0  0
  7 13  1  0  0  0  0
  7 14  1  0  0  0  0
  7 51  1  0  0  0  0
  8 16  1  0  0  0  0
  8 19  1  0  0  0  0
  8 53  1  0  0  0  0
  9 11  1  0  0  0  0
  9 30  1  0  0  0  0
  9 56  1  0  0  0  0
 10 24  1  0  0  0  0
 10 36  1  0  0  0  0
 10 64  1  0  0  0  0
 11 12  1  0  0  0  0
 11 22  1  0  0  0  0
 11 44  1  0  0  0  0
 12 13  1  0  0  0  0
 12 45  1  0  0  0  0
 12 46  1  0  0  0  0
 13 18  2  0  0  0  0
 14 15  1  0  0  0  0
 14 17  2  0  0  0  0
 15 16  1  0  0  0  0
 15 47  1  0  0  0  0
 15 48  1  0  0  0  0
 16 20  2  0  0  0  0
 17 18  1  0  0  0  0
 17 25  1  0  0  0  0
 18 31  1  0  0  0  0
 19 21  1  0  0  0  0
 19 23  2  0  0  0  0
 20 23  1  0  0  0  0
 20 26  1  0  0  0  0
 21 24  1  0  0  0  0
 21 49  1  0  0  0  0
 21 50  1  0  0  0  0
 22 27  2  0  0  0  0
 22 29  1  0  0  0  0
 23 32  1  0  0  0  0
 24 28  1  0  0  0  0
 24 52  1  0  0  0  0
 25 33  1  0  0  0  0
 25 54  1  0  0  0  0
 25 55  1  0  0  0  0
 26 35  1  0  0  0  0
 26 57  1  0  0  0  0
 26 58  1  0  0  0  0
 27 30  1  0  0  0  0
 27 37  1  0  0  0  0
 28 34  2  0  0  0  0
 28 38  1  0  0  0  0
 29 39  1  0  0  0  0
 29 59  1  0  0  0  0
 29 60  1  0  0  0  0
 31 61  1  0  0  0  0
 31 62  1  0  0  0  0
 31 63  1  0  0  0  0
 32 65  1  0  0  0  0
 32 66  1  0  0  0  0
 32 67  1  0  0  0  0
 33 41  1  0  0  0  0
 33 68  1  0  0  0  0
 33 69  1  0  0  0  0
 34 36  1  0  0  0  0
 34 40  1  0  0  0  0
 35 42  1  0  0  0  0
 35 70  1  0  0  0  0
 35 71  1  0  0  0  0
 37 72  1  0  0  0  0
 37 73  1  0  0  0  0
 37 74  1  0  0  0  0
 38 75  1  0  0  0  0
 38 76  1  0  0  0  0
 38 77  1  0  0  0  0
 39 78  1  0  0  0  0
 39 79  1  0  0  0  0
 39 80  1  0  0  0  0
 40 43  2  0  0  0  0
 40 81  1  0  0  0  0
 43 82  1  0  0  0  0
 43 83  1  0  0  0  0
M  END
> <PUBCHEM_COMPOUND_CID>
440784

> <PUBCHEM_COMPOUND_CANONICALIZED>
1

> <PUBCHEM_CACTVS_COMPLEXITY>
1190

> <PUBCHEM_CACTVS_HBOND_ACCEPTOR>
6

> <PUBCHEM_CACTVS_HBOND_DONOR>
6

> <PUBCHEM_CACTVS_ROTATABLE_BOND>
14

> <PUBCHEM_CACTVS_SUBSKEYS>
AAADcfB/uAAAAAAAAAAAAAAAAAAAAWLECAAAAAAAAAAAAAAB4AAAHgAQCAAADCjBngQCiJLJkgCoAyXyXACCgCAhACAImaE4RNgIIHLA0JGEYAhklgDIyQeY2fOegAAAAAAAAAAAAAAAAAAAAAAAAAAAAA==

> <PUBCHEM_IUPAC_OPENEYE_NAME>
3-[2-[[3-(2-carboxyethyl)-5-[(3-ethyl-4-methyl-5-oxo-1,2-dihydropyrrol-2-yl)methyl]-4-methyl-1H-pyrrol-2-yl]methyl]-4-methyl-5-[(3-methyl-5-oxo-4-vinyl-1,2-dihydropyrrol-2-yl)methyl]-1H-pyrrol-3-yl]propanoic acid

> <PUBCHEM_IUPAC_CAS_NAME>
3-[2-[[3-(2-carboxyethyl)-5-[(3-ethyl-4-methyl-5-oxo-1,2-dihydropyrrol-2-yl)methyl]-4-methyl-1H-pyrrol-2-yl]methyl]-5-[(4-ethenyl-3-methyl-5-oxo-1,2-dihydropyrrol-2-yl)methyl]-4-methyl-1H-pyrrol-3-yl]propanoic acid

> <PUBCHEM_IUPAC_NAME>
3-[2-[[3-(2-carboxyethyl)-5-[(3-ethyl-4-methyl-5-oxo-1,2-dihydropyrrol-2-yl)methyl]-4-methyl-1H-pyrrol-2-yl]methyl]-5-[(4-ethenyl-3-methyl-5-oxo-1,2-dihydropyrrol-2-yl)methyl]-4-methyl-1H-pyrrol-3-yl]propanoic acid

> <PUBCHEM_IUPAC_SYSTEMATIC_NAME>
3-[5-[(4-ethenyl-3-methyl-5-oxidanylidene-1,2-dihydropyrrol-2-yl)methyl]-2-[[5-[(3-ethyl-4-methyl-5-oxidanylidene-1,2-dihydropyrrol-2-yl)methyl]-3-(3-hydroxy-3-oxopropyl)-4-methyl-1H-pyrrol-2-yl]methyl]-4-methyl-1H-pyrrol-3-yl]propanoic acid

> <PUBCHEM_IUPAC_TRADITIONAL_NAME>
3-[2-[[3-(2-carboxyethyl)-5-[(3-ethyl-5-keto-4-methyl-3-pyrrolin-2-yl)methyl]-4-methyl-1H-pyrrol-2-yl]methyl]-5-[(5-keto-3-methyl-4-vinyl-3-pyrrolin-2-yl)methyl]-4-methyl-1H-pyrrol-3-yl]propionic acid

> <PUBCHEM_IUPAC_INCHI>
InChI=1S/C33H42N4O6/c1-7-20-19(6)32(42)37-27(20)14-25-18(5)23(10-12-31(40)41)29(35-25)15-28-22(9-11-30(38)39)17(4)24(34-28)13-26-16(3)21(8-2)33(43)36-26/h8,26-27,34-35H,2,7,9-15H2,1,3-6H3,(H,36,43)(H,37,42)(H,38,39)(H,40,41)

> <PUBCHEM_IUPAC_INCHIKEY>
KSQFFJKKJAEKTB-UHFFFAOYSA-N

> <PUBCHEM_XLOGP3_AA>
2.7

> <PUBCHEM_EXACT_MASS>
590.310435

> <PUBCHEM_MOLECULAR_FORMULA>
C33H42N4O6

> <PUBCHEM_MOLECULAR_WEIGHT>
590.70978

> <PUBCHEM_OPENEYE_CAN_SMILES>
CCC1=C(C(=O)NC1CC2=C(C(=C(N2)CC3=C(C(=C(N3)CC4C(=C(C(=O)N4)C=C)C)C)CCC(=O)O)CCC(=O)O)C)C

> <PUBCHEM_OPENEYE_ISO_SMILES>
CCC1=C(C(=O)NC1CC2=C(C(=C(N2)CC3=C(C(=C(N3)CC4C(=C(C(=O)N4)C=C)C)C)CCC(=O)O)CCC(=O)O)C)C

> <PUBCHEM_CACTVS_TPSA>
164

> <PUBCHEM_MONOISOTOPIC_WEIGHT>
590.310435

> <PUBCHEM_TOTAL_CHARGE>
0

> <PUBCHEM_HEAVY_ATOM_COUNT>
43

> <PUBCHEM_ATOM_DEF_STEREO_COUNT>
0

> <PUBCHEM_ATOM_UDEF_STEREO_COUNT>
2

> <PUBCHEM_BOND_DEF_STEREO_COUNT>
0

> <PUBCHEM_BOND_UDEF_STEREO_COUNT>
0

> <PUBCHEM_ISOTOPIC_ATOM_COUNT>
0

> <PUBCHEM_COMPONENT_COUNT>
1

> <PUBCHEM_CACTVS_TAUTO_COUNT>
4

> <PUBCHEM_COORDINATE_TYPE>
1
5
255

> <PUBCHEM_BONDANNOTATIONS>
11  44  3
13  18  8
14  17  8
16  20  8
17  18  8
19  23  8
20  23  8
24  52  3
7  13  8
7  14  8
8  16  8
8  19  8

$$$$

