   Color/Form

     * TAN LIQUID
     * Viscous brown liquid
     * Viscous, brown, tan, or dark-amber liquid.

   from [1]HSDB

   Melting Point
        -20 DEG C
   from [2]HSDB

   Density/Specific Gravity
        1.257 @ 26 DEG C/4 DEG C
   from [3]HSDB

   Solubilities

     * PRACTICALLY INSOL IN WATER; PARTLY SOL IN HEXANE
     * 10 G/KG HEXANE, KEROSENE
     * SOL IN AROMATIC HYDROCARBONS, ETHERS, ESTERS, & KETONES
     * SOL IN ETHANOL, BENZENE, ACETONE; SLIGHTLY SOL IN PETROLEUM OILS
     * Water solubility = insoluble

   from [4]HSDB

   Spectral Properties

     * INDEX OF REFRACTION: 1.5420 @ 20 DEG C/D
     * Intense mass spectral peaks: 97 m/z (100%), 125 m/z (67%), 65 m/z
       (47%), 153 m/z (38%)

   from [5]HSDB

   Viscosity
        117 CENTIPOISES @ 25 DEG C
   from [6]HSDB

   Other Chemical/Physical Properties

     * NONVOLATILE
     * BROWN LIQ /TECHNICAL PRODUCT/
     * Hydrolyzed by alkali and by heating
     * Decomposes on heating (above (135 deg C); hydrolyzed by strong
       acids and alkalis; perishable if stored in iron and tin containers.

   from [7]HSDB

   Computed Properties
   Molecular Weight                  456.538764 [g/mol]
   Molecular Formula                 C[12]H[26]O[6]P[2]S[4]
   XLogP3-AA                         4.3
   H-Bond Donor                      0
   H-Bond Acceptor                   10
   Rotatable Bond Count              12
   Exact Mass                        456.008746
   MonoIsotopic Mass                 456.008746
   Topological Polar Surface Area    170
   Heavy Atom Count                  24
   Formal Charge                     0
   Complexity                        395
   Isotope Atom Count                0
   Defined Atom Stereocenter Count   0
   Undefined Atom Stereocenter Count 2
   Defined Bond Stereocenter Count   0
   Undefined Bond Stereocenter Count 0
   Covalently-Bonded Unit Count      1
   Feature 3D Acceptor Count         2
   Feature 3D Ring Count             1
   Effective Rotor Count             13.2
   Conformer Sampling RMSD           1
   CID Conformer Count               [8]187

References

   1. http://toxnet.nlm.nih.gov/cgi-bin/sis/search/r?dbs+hsdb:@term+@rn+@rel+78-34-2
   2. http://toxnet.nlm.nih.gov/cgi-bin/sis/search/r?dbs+hsdb:@term+@rn+@rel+78-34-2
   3. http://toxnet.nlm.nih.gov/cgi-bin/sis/search/r?dbs+hsdb:@term+@rn+@rel+78-34-2
   4. http://toxnet.nlm.nih.gov/cgi-bin/sis/search/r?dbs+hsdb:@term+@rn+@rel+78-34-2
   5. http://toxnet.nlm.nih.gov/cgi-bin/sis/search/r?dbs+hsdb:@term+@rn+@rel+78-34-2
   6. http://toxnet.nlm.nih.gov/cgi-bin/sis/search/r?dbs+hsdb:@term+@rn+@rel+78-34-2
   7. http://toxnet.nlm.nih.gov/cgi-bin/sis/search/r?dbs+hsdb:@term+@rn+@rel+78-34-2
   8. http://pubchem.ncbi.nlm.nih.gov/vw3d/vw3d.cgi?cid=6531
