56928096
  -OEChem-07051213102D

 42 43  0     1  0  0  0  0  0999 V2000
    2.1340    1.7780    0.0000 Br  0  0  0  0  0  0  0  0  0  0  0  0
    4.3660   -3.0880    0.0000 Br  0  0  0  0  0  0  0  0  0  0  0  0
    5.5981   -2.2220    0.0000 Cl  0  0  0  0  0  0  0  0  0  0  0  0
    3.8660    2.7780    0.0000 O   0  0  0  0  0  0  0  0  0  0  0  0
    3.8660   -0.2220    0.0000 C   0  0  2  0  0  0  0  0  0  0  0  0
    3.0000    0.2780    0.0000 C   0  0  0  0  0  0  0  0  0  0  0  0
    4.7320   -0.7220    0.0000 C   0  0  0  0  0  0  0  0  0  0  0  0
    3.0000   -0.7220    0.0000 C   0  0  0  0  0  0  0  0  0  0  0  0
    3.0000    1.2780    0.0000 C   0  0  1  0  0  0  0  0  0  0  0  0
    4.7320    0.2780    0.0000 C   0  0  0  0  0  0  0  0  0  0  0  0
    4.7320   -1.7220    0.0000 C   0  0  3  0  0  0  0  0  0  0  0  0
    3.0000   -1.7220    0.0000 C   0  0  0  0  0  0  0  0  0  0  0  0
    3.8660   -2.2220    0.0000 C   0  0  2  0  0  0  0  0  0  0  0  0
    3.8660    1.7780    0.0000 C   0  0  1  0  0  0  0  0  0  0  0  0
    4.7320    1.2780    0.0000 C   0  0  0  0  0  0  0  0  0  0  0  0
    2.0000    0.2780    0.0000 C   0  0  0  0  0  0  0  0  0  0  0  0
    2.2340   -0.3648    0.0000 C   0  0  0  0  0  0  0  0  0  0  0  0
    3.3660   -3.0880    0.0000 C   0  0  0  0  0  0  0  0  0  0  0  0
    5.5981   -0.2220    0.0000 C   0  0  0  0  0  0  0  0  0  0  0  0
    5.3426   -0.8296    0.0000 H   0  0  0  0  0  0  0  0  0  0  0  0
    4.9441   -0.1394    0.0000 H   0  0  0  0  0  0  0  0  0  0  0  0
    2.7880   -0.1394    0.0000 H   0  0  0  0  0  0  0  0  0  0  0  0
    2.3894   -0.8296    0.0000 H   0  0  0  0  0  0  0  0  0  0  0  0
    3.0000    1.8980    0.0000 H   0  0  0  0  0  0  0  0  0  0  0  0
    4.7320   -2.3420    0.0000 H   0  0  0  0  0  0  0  0  0  0  0  0
    2.3894   -1.6143    0.0000 H   0  0  0  0  0  0  0  0  0  0  0  0
    2.7880   -2.3046    0.0000 H   0  0  0  0  0  0  0  0  0  0  0  0
    4.4030    2.0880    0.0000 H   0  0  0  0  0  0  0  0  0  0  0  0
    5.3426    1.1704    0.0000 H   0  0  0  0  0  0  0  0  0  0  0  0
    4.9441    1.8606    0.0000 H   0  0  0  0  0  0  0  0  0  0  0  0
    2.0000    0.8980    0.0000 H   0  0  0  0  0  0  0  0  0  0  0  0
    1.3800    0.2780    0.0000 H   0  0  0  0  0  0  0  0  0  0  0  0
    2.0000   -0.3420    0.0000 H   0  0  0  0  0  0  0  0  0  0  0  0
    1.8354    0.1101    0.0000 H   0  0  0  0  0  0  0  0  0  0  0  0
    1.7590   -0.7633    0.0000 H   0  0  0  0  0  0  0  0  0  0  0  0
    2.6325   -0.8397    0.0000 H   0  0  0  0  0  0  0  0  0  0  0  0
    2.8291   -2.7780    0.0000 H   0  0  0  0  0  0  0  0  0  0  0  0
    3.0560   -3.6250    0.0000 H   0  0  0  0  0  0  0  0  0  0  0  0
    3.9030   -3.3980    0.0000 H   0  0  0  0  0  0  0  0  0  0  0  0
    5.5981   -0.8420    0.0000 H   0  0  0  0  0  0  0  0  0  0  0  0
    6.1350    0.0880    0.0000 H   0  0  0  0  0  0  0  0  0  0  0  0
    4.4030    3.0880    0.0000 H   0  0  0  0  0  0  0  0  0  0  0  0
  9  1  1  6  0  0  0
 13  2  1  1  0  0  0
  3 11  1  0  0  0  0
 14  4  1  6  0  0  0
  4 42  1  0  0  0  0
  5  6  1  0  0  0  0
  5  7  1  6  0  0  0
  5  8  1  0  0  0  0
  5 10  1  0  0  0  0
  6  9  1  0  0  0  0
  6 16  1  0  0  0  0
  6 17  1  0  0  0  0
  7 11  1  0  0  0  0
  7 20  1  0  0  0  0
  7 21  1  0  0  0  0
  8 12  1  0  0  0  0
  8 22  1  0  0  0  0
  8 23  1  0  0  0  0
  9 14  1  0  0  0  0
  9 24  1  0  0  0  0
 10 15  1  0  0  0  0
 10 19  2  0  0  0  0
 11 13  1  0  0  0  0
 11 25  1  0  0  0  0
 12 13  1  0  0  0  0
 12 26  1  0  0  0  0
 12 27  1  0  0  0  0
 13 18  1  0  0  0  0
 14 15  1  0  0  0  0
 14 28  1  0  0  0  0
 15 29  1  0  0  0  0
 15 30  1  0  0  0  0
 16 31  1  0  0  0  0
 16 32  1  0  0  0  0
 16 33  1  0  0  0  0
 17 34  1  0  0  0  0
 17 35  1  0  0  0  0
 17 36  1  0  0  0  0
 18 37  1  0  0  0  0
 18 38  1  0  0  0  0
 18 39  1  0  0  0  0
 19 40  1  0  0  0  0
 19 41  1  0  0  0  0
M  END
> <PUBCHEM_COMPOUND_CID>
56928096

> <PUBCHEM_COMPOUND_CANONICALIZED>
1

> <PUBCHEM_CACTVS_COMPLEXITY>
398

> <PUBCHEM_CACTVS_HBOND_ACCEPTOR>
1

> <PUBCHEM_CACTVS_HBOND_DONOR>
1

> <PUBCHEM_CACTVS_ROTATABLE_BOND>
0

> <PUBCHEM_CACTVS_SUBSKEYS>
AAADceBwIAAEGAAAAAAAAAAAAAAAAAAAAAAwYAAAAAAAAAAAAAAAGgJACAABzheggEICAAAAAgCAAgBCAAAAAAAgAAAAAAAAAigAEAIBAQAAQAAEwAAAAAGAwPAPgAAAAAAAAADEAAJgACMIBAAAAAAAAA==

> <PUBCHEM_IUPAC_OPENEYE_NAME>
(3R,4S,6S,9S)-4,9-dibromo-10-chloro-5,5,9-trimethyl-1-methylene-spiro[5.5]undecan-3-ol

> <PUBCHEM_IUPAC_CAS_NAME>
(3R,4S,6S,9S)-4,9-dibromo-10-chloro-5,5,9-trimethyl-1-methylene-3-spiro[5.5]undecanol

> <PUBCHEM_IUPAC_NAME>
(3R,4S,6S,9S)-4,9-dibromo-10-chloro-5,5,9-trimethyl-1-methylidenespiro[5.5]undecan-3-ol

> <PUBCHEM_IUPAC_SYSTEMATIC_NAME>
(3R,4S,6S,9S)-4,9-bis(bromanyl)-10-chloranyl-5,5,9-trimethyl-1-methylidene-spiro[5.5]undecan-3-ol

> <PUBCHEM_IUPAC_TRADITIONAL_NAME>
(3R,4S,6S,9S)-4,9-dibromo-10-chloro-5,5,9-trimethyl-1-methylene-spiro[5.5]undecan-3-ol

> <PUBCHEM_IUPAC_INCHI>
InChI=1S/C15H23Br2ClO/c1-9-7-10(19)12(16)13(2,3)15(9)6-5-14(4,17)11(18)8-15/h10-12,19H,1,5-8H2,2-4H3/t10-,11?,12-,14+,15+/m1/s1

> <PUBCHEM_IUPAC_INCHIKEY>
JPQFUHCOKXIWBB-SUWDNJBVSA-N

> <PUBCHEM_XLOGP3_AA>
4.7

> <PUBCHEM_EXACT_MASS>
413.978371

> <PUBCHEM_MOLECULAR_FORMULA>
C15H23Br2ClO

> <PUBCHEM_MOLECULAR_WEIGHT>
414.60352

> <PUBCHEM_OPENEYE_CAN_SMILES>
CC1(C(C(CC(=C)C12CCC(C(C2)Cl)(C)Br)O)Br)C

> <PUBCHEM_OPENEYE_ISO_SMILES>
C[C@@]1(CC[C@]2(CC1Cl)C(=C)C[C@H]([C@H](C2(C)C)Br)O)Br

> <PUBCHEM_CACTVS_TPSA>
20.2

> <PUBCHEM_MONOISOTOPIC_WEIGHT>
411.980417

> <PUBCHEM_TOTAL_CHARGE>
0

> <PUBCHEM_HEAVY_ATOM_COUNT>
19

> <PUBCHEM_ATOM_DEF_STEREO_COUNT>
4

> <PUBCHEM_ATOM_UDEF_STEREO_COUNT>
1

> <PUBCHEM_BOND_DEF_STEREO_COUNT>
0

> <PUBCHEM_BOND_UDEF_STEREO_COUNT>
0

> <PUBCHEM_ISOTOPIC_ATOM_COUNT>
0

> <PUBCHEM_COMPONENT_COUNT>
1

> <PUBCHEM_CACTVS_TAUTO_COUNT>
1

> <PUBCHEM_COORDINATE_TYPE>
1
5
255

> <PUBCHEM_BONDANNOTATIONS>
9  1  6
13  2  5
11  3  3
14  4  6
5  7  6

$$$$

