13590
  -OEChem-06241222392D

 17 17  0     0  0  0  0  0  0999 V2000
    2.8090   -0.4594    0.0000 N   0  0  0  0  0  0  0  0  0  0  0  0
    3.3090    1.0794    0.0000 N   0  0  0  0  0  0  0  0  0  0  0  0
    2.0000    0.1284    0.0000 C   0  0  0  0  0  0  0  0  0  0  0  0
    3.6180    0.1284    0.0000 C   0  0  0  0  0  0  0  0  0  0  0  0
    2.3090    1.0794    0.0000 C   0  0  0  0  0  0  0  0  0  0  0  0
    4.5691   -0.1807    0.0000 C   0  0  0  0  0  0  0  0  0  0  0  0
    5.3122    0.4885    0.0000 C   0  0  0  0  0  0  0  0  0  0  0  0
    1.4336    0.3805    0.0000 H   0  0  0  0  0  0  0  0  0  0  0  0
    1.6900   -0.4086    0.0000 H   0  0  0  0  0  0  0  0  0  0  0  0
    2.3738    1.6960    0.0000 H   0  0  0  0  0  0  0  0  0  0  0  0
    1.7026    1.2083    0.0000 H   0  0  0  0  0  0  0  0  0  0  0  0
    2.8090   -1.0794    0.0000 H   0  0  0  0  0  0  0  0  0  0  0  0
    4.2780   -0.7281    0.0000 H   0  0  0  0  0  0  0  0  0  0  0  0
    5.0577   -0.5624    0.0000 H   0  0  0  0  0  0  0  0  0  0  0  0
    5.7271    0.0277    0.0000 H   0  0  0  0  0  0  0  0  0  0  0  0
    5.7730    0.9033    0.0000 H   0  0  0  0  0  0  0  0  0  0  0  0
    4.8974    0.9492    0.0000 H   0  0  0  0  0  0  0  0  0  0  0  0
  1  3  1  0  0  0  0
  1  4  1  0  0  0  0
  1 12  1  0  0  0  0
  2  4  2  0  0  0  0
  2  5  1  0  0  0  0
  3  5  1  0  0  0  0
  3  8  1  0  0  0  0
  3  9  1  0  0  0  0
  4  6  1  0  0  0  0
  5 10  1  0  0  0  0
  5 11  1  0  0  0  0
  6  7  1  0  0  0  0
  6 13  1  0  0  0  0
  6 14  1  0  0  0  0
  7 15  1  0  0  0  0
  7 16  1  0  0  0  0
  7 17  1  0  0  0  0
M  END
> <PUBCHEM_COMPOUND_CID>
13590

> <PUBCHEM_COMPOUND_CANONICALIZED>
1

> <PUBCHEM_CACTVS_COMPLEXITY>
86.1

> <PUBCHEM_CACTVS_HBOND_ACCEPTOR>
1

> <PUBCHEM_CACTVS_HBOND_DONOR>
1

> <PUBCHEM_CACTVS_ROTATABLE_BOND>
1

> <PUBCHEM_CACTVS_SUBSKEYS>
AAADccBjAAAAAAAAAAAAAAAAAAAAAQAAAAAAAAAAAAAAAAAAAAAAHAAQAAAACADBAAQDAALAAAAgAAIgJAAAAAEAAAABAIA4AAAAQAAACAAUAAAAEACAAAAAAAAAAAAAAAAAAAAAAAAAAAAAAAAAAAAAAA==

> <PUBCHEM_IUPAC_OPENEYE_NAME>
2-ethyl-4,5-dihydro-1H-imidazole

> <PUBCHEM_IUPAC_CAS_NAME>
2-ethyl-4,5-dihydro-1H-imidazole

> <PUBCHEM_IUPAC_NAME>
2-ethyl-4,5-dihydro-1H-imidazole

> <PUBCHEM_IUPAC_SYSTEMATIC_NAME>
2-ethyl-4,5-dihydro-1H-imidazole

> <PUBCHEM_IUPAC_TRADITIONAL_NAME>
2-ethyl-2-imidazoline

> <PUBCHEM_IUPAC_INCHI>
InChI=1S/C5H10N2/c1-2-5-6-3-4-7-5/h2-4H2,1H3,(H,6,7)

> <PUBCHEM_IUPAC_INCHIKEY>
QUPKCFBHJFNUEW-UHFFFAOYSA-N

> <PUBCHEM_XLOGP3_AA>
-0.3

> <PUBCHEM_EXACT_MASS>
98.084398

> <PUBCHEM_MOLECULAR_FORMULA>
C5H10N2

> <PUBCHEM_MOLECULAR_WEIGHT>
98.1463

> <PUBCHEM_OPENEYE_CAN_SMILES>
CCC1=NCCN1

> <PUBCHEM_OPENEYE_ISO_SMILES>
CCC1=NCCN1

> <PUBCHEM_CACTVS_TPSA>
24.4

> <PUBCHEM_MONOISOTOPIC_WEIGHT>
98.084398

> <PUBCHEM_TOTAL_CHARGE>
0

> <PUBCHEM_HEAVY_ATOM_COUNT>
7

> <PUBCHEM_ATOM_DEF_STEREO_COUNT>
0

> <PUBCHEM_ATOM_UDEF_STEREO_COUNT>
0

> <PUBCHEM_BOND_DEF_STEREO_COUNT>
0

> <PUBCHEM_BOND_UDEF_STEREO_COUNT>
0

> <PUBCHEM_ISOTOPIC_ATOM_COUNT>
0

> <PUBCHEM_COMPONENT_COUNT>
1

> <PUBCHEM_CACTVS_TAUTO_COUNT>
1

> <PUBCHEM_COORDINATE_TYPE>
1
5
255

$$$$

