46173816
  -OEChem-07051213092D

 67 72  0     1  0  0  0  0  0999 V2000
    6.1260    1.8032    0.0000 O   0  0  0  0  0  0  0  0  0  0  0  0
    8.5739   -2.1665    0.0000 O   0  0  0  0  0  0  0  0  0  0  0  0
    5.8828   -2.3553    0.0000 O   0  0  0  0  0  0  0  0  0  0  0  0
    7.3760    1.9084    0.0000 O   0  0  0  0  0  0  0  0  0  0  0  0
    2.8458    0.9364    0.0000 O   0  0  0  0  0  0  0  0  0  0  0  0
    5.1461    3.5467    0.0000 O   0  0  0  0  0  0  0  0  0  0  0  0
    3.6362    2.6981    0.0000 O   0  0  0  0  0  0  0  0  0  0  0  0
    5.9613   -4.0872    0.0000 O   0  0  0  0  0  0  0  0  0  0  0  0
    2.8641   -2.0124    0.0000 O   0  0  0  0  0  0  0  0  0  0  0  0
    5.6160    0.9430    0.0000 C   0  0  1  0  0  0  0  0  0  0  0  0
    6.5099    0.4084    0.0000 C   0  0  1  0  0  0  0  0  0  0  0  0
    6.5099   -0.5916    0.0000 C   0  0  1  0  0  0  0  0  0  0  0  0
    7.3760   -1.0916    0.0000 C   0  0  2  0  0  0  0  0  0  0  0  0
    4.7099    0.4292    0.0000 C   0  0  1  0  0  0  0  0  0  0  0  0
    8.2420   -0.5916    0.0000 C   0  0  1  0  0  0  0  0  0  0  0  0
    5.1260    1.8148    0.0000 C   0  0  1  0  0  0  0  0  0  0  0  0
    5.6160   -1.1263    0.0000 C   0  0  0  0  0  0  0  0  0  0  0  0
    4.7099   -0.6124    0.0000 C   0  0  0  0  0  0  0  0  0  0  0  0
    7.5852   -2.0634    0.0000 C   0  0  2  0  0  0  0  0  0  0  0  0
    7.3760    0.9084    0.0000 C   0  0  0  0  0  0  0  0  0  0  0  0
    8.2420    0.4084    0.0000 C   0  0  0  0  0  0  0  0  0  0  0  0
    8.9790   -1.2587    0.0000 C   0  0  0  0  0  0  0  0  0  0  0  0
    6.3604   -1.2939    0.0000 C   0  0  0  0  0  0  0  0  0  0  0  0
    6.6836    1.3932    0.0000 C   0  0  0  0  0  0  0  0  0  0  0  0
    3.7099    0.4331    0.0000 C   0  0  2  0  0  0  0  0  0  0  0  0
    4.2133    1.2972    0.0000 C   0  0  0  0  0  0  0  0  0  0  0  0
    7.2830   -3.0538    0.0000 C   0  0  0  0  0  0  0  0  0  0  0  0
    4.6361    2.6866    0.0000 C   0  0  0  0  0  0  0  0  0  0  0  0
    9.8918   -1.6670    0.0000 C   0  0  0  0  0  0  0  0  0  0  0  0
    9.6494   -0.5167    0.0000 C   0  0  0  0  0  0  0  0  0  0  0  0
    6.4250   -3.2013    0.0000 C   0  0  0  0  0  0  0  0  0  0  0  0
    3.2066   -0.4310    0.0000 C   0  0  0  0  0  0  0  0  0  0  0  0
    2.2117   -0.5317    0.0000 C   0  0  0  0  0  0  0  0  0  0  0  0
    3.6098   -1.3461    0.0000 C   0  0  0  0  0  0  0  0  0  0  0  0
    2.0000   -1.5091    0.0000 C   0  0  0  0  0  0  0  0  0  0  0  0
    6.5165   -1.4416    0.0000 H   0  0  0  0  0  0  0  0  0  0  0  0
    9.0190   -0.2469    0.0000 H   0  0  0  0  0  0  0  0  0  0  0  0
    5.4422    2.3481    0.0000 H   0  0  0  0  0  0  0  0  0  0  0  0
    5.2224   -1.6053    0.0000 H   0  0  0  0  0  0  0  0  0  0  0  0
    6.0206   -1.5961    0.0000 H   0  0  0  0  0  0  0  0  0  0  0  0
    4.0991   -0.5063    0.0000 H   0  0  0  0  0  0  0  0  0  0  0  0
    4.5009   -1.1961    0.0000 H   0  0  0  0  0  0  0  0  0  0  0  0
    8.0548   -2.7719    0.0000 H   0  0  0  0  0  0  0  0  0  0  0  0
    8.8526    0.3007    0.0000 H   0  0  0  0  0  0  0  0  0  0  0  0
    8.4540    0.9910    0.0000 H   0  0  0  0  0  0  0  0  0  0  0  0
    6.3666   -0.6739    0.0000 H   0  0  0  0  0  0  0  0  0  0  0  0
    5.7549   -1.1608    0.0000 H   0  0  0  0  0  0  0  0  0  0  0  0
    7.2942    1.2855    0.0000 H   0  0  0  0  0  0  0  0  0  0  0  0
    6.7912    2.0038    0.0000 H   0  0  0  0  0  0  0  0  0  0  0  0
    6.0730    1.5009    0.0000 H   0  0  0  0  0  0  0  0  0  0  0  0
    3.8727    1.0313    0.0000 H   0  0  0  0  0  0  0  0  0  0  0  0
    4.7514    1.6051    0.0000 H   0  0  0  0  0  0  0  0  0  0  0  0
    3.9053    1.8353    0.0000 H   0  0  0  0  0  0  0  0  0  0  0  0
    3.6751    0.9892    0.0000 H   0  0  0  0  0  0  0  0  0  0  0  0
    7.2921   -3.6738    0.0000 H   0  0  0  0  0  0  0  0  0  0  0  0
    7.8968   -3.1408    0.0000 H   0  0  0  0  0  0  0  0  0  0  0  0
    9.6387   -2.2330    0.0000 H   0  0  0  0  0  0  0  0  0  0  0  0
   10.4578   -1.9202    0.0000 H   0  0  0  0  0  0  0  0  0  0  0  0
   10.1450   -1.1010    0.0000 H   0  0  0  0  0  0  0  0  0  0  0  0
   10.1094   -0.9324    0.0000 H   0  0  0  0  0  0  0  0  0  0  0  0
   10.0651   -0.0567    0.0000 H   0  0  0  0  0  0  0  0  0  0  0  0
    9.1894   -0.1011    0.0000 H   0  0  0  0  0  0  0  0  0  0  0  0
    2.3077    0.6285    0.0000 H   0  0  0  0  0  0  0  0  0  0  0  0
    4.8423    4.0872    0.0000 H   0  0  0  0  0  0  0  0  0  0  0  0
    1.7986   -0.0694    0.0000 H   0  0  0  0  0  0  0  0  0  0  0  0
    4.2158   -1.4774    0.0000 H   0  0  0  0  0  0  0  0  0  0  0  0
    1.4326   -1.7591    0.0000 H   0  0  0  0  0  0  0  0  0  0  0  0
 10  1  1  1  0  0  0
  1 16  1  0  0  0  0
  2 19  1  0  0  0  0
  2 22  1  0  0  0  0
  3 23  1  0  0  0  0
  3 31  1  0  0  0  0
  4 20  2  0  0  0  0
 25  5  1  6  0  0  0
  5 63  1  0  0  0  0
  6 28  1  0  0  0  0
  6 64  1  0  0  0  0
  7 28  2  0  0  0  0
  8 31  2  0  0  0  0
  9 34  1  0  0  0  0
  9 35  1  0  0  0  0
 10 11  1  0  0  0  0
 10 14  1  0  0  0  0
 10 16  1  0  0  0  0
 11 12  1  0  0  0  0
 11 20  1  0  0  0  0
 11 24  1  1  0  0  0
 12 13  1  0  0  0  0
 12 17  1  0  0  0  0
 12 36  1  6  0  0  0
 13 15  1  0  0  0  0
 13 19  1  0  0  0  0
 13 23  1  1  0  0  0
 14 18  1  0  0  0  0
 14 25  1  0  0  0  0
 14 26  1  6  0  0  0
 15 21  1  0  0  0  0
 15 22  1  0  0  0  0
 15 37  1  6  0  0  0
 16 28  1  1  0  0  0
 16 38  1  0  0  0  0
 17 18  1  0  0  0  0
 17 39  1  0  0  0  0
 17 40  1  0  0  0  0
 18 41  1  0  0  0  0
 18 42  1  0  0  0  0
 19 27  1  0  0  0  0
 19 43  1  6  0  0  0
 20 21  1  0  0  0  0
 21 44  1  0  0  0  0
 21 45  1  0  0  0  0
 22 29  1  0  0  0  0
 22 30  1  0  0  0  0
 23 46  1  0  0  0  0
 23 47  1  0  0  0  0
 24 48  1  0  0  0  0
 24 49  1  0  0  0  0
 24 50  1  0  0  0  0
 25 32  1  0  0  0  0
 25 51  1  0  0  0  0
 26 52  1  0  0  0  0
 26 53  1  0  0  0  0
 26 54  1  0  0  0  0
 27 31  1  0  0  0  0
 27 55  1  0  0  0  0
 27 56  1  0  0  0  0
 29 57  1  0  0  0  0
 29 58  1  0  0  0  0
 29 59  1  0  0  0  0
 30 60  1  0  0  0  0
 30 61  1  0  0  0  0
 30 62  1  0  0  0  0
 32 33  1  0  0  0  0
 32 34  2  0  0  0  0
 33 35  2  0  0  0  0
 33 65  1  0  0  0  0
 34 66  1  0  0  0  0
 35 67  1  0  0  0  0
M  END
> <PUBCHEM_COMPOUND_CID>
46173816

> <PUBCHEM_COMPOUND_CANONICALIZED>
1

> <PUBCHEM_CACTVS_COMPLEXITY>
993

> <PUBCHEM_CACTVS_HBOND_ACCEPTOR>
9

> <PUBCHEM_CACTVS_HBOND_DONOR>
2

> <PUBCHEM_CACTVS_ROTATABLE_BOND>
3

> <PUBCHEM_CACTVS_SUBSKEYS>
AAADcfB4PAAAAAAAAAAAAAAAEgAAASJAAAA0YIAAAAAAAEjBgAAAGgAACAAAD1SgmAIyDIAABkCIAqjSiAICCAAkIAAIiAFGCMgNNxYENQ6CWSCl4BELOYPK7vzvgAAAAAAAAACAAAYAADAAAAAAAAAAAA==

> <PUBCHEM_IUPAC_INCHI>
InChI=1S/C26H32O9/c1-22(2)15-9-16(27)24(4)14(25(15)12-33-18(28)10-17(25)34-22)5-7-23(3,19(29)13-6-8-32-11-13)26(24)20(35-26)21(30)31/h6,8,11,14-15,17,19-20,29H,5,7,9-10,12H2,1-4H3,(H,30,31)/t14-,15-,17-,19-,20+,23-,24-,25+,26+/m0/s1

> <PUBCHEM_IUPAC_INCHIKEY>
JQTDUZWQZNXSOU-MSGMIQHVSA-N

> <PUBCHEM_XLOGP3_AA>
1

> <PUBCHEM_EXACT_MASS>
488.204633

> <PUBCHEM_MOLECULAR_FORMULA>
C26H32O9

> <PUBCHEM_MOLECULAR_WEIGHT>
488.52688

> <PUBCHEM_OPENEYE_CAN_SMILES>
CC1(C2CC(=O)C3(C(C24COC(=O)CC4O1)CCC(C35C(O5)C(=O)O)(C)C(C6=COC=C6)O)C)C

> <PUBCHEM_OPENEYE_ISO_SMILES>
C[C@]1(CC[C@H]2[C@]([C@@]13[C@H](O3)C(=O)O)(C(=O)C[C@@H]4[C@@]25COC(=O)C[C@@H]5OC4(C)C)C)[C@H](C6=COC=C6)O

> <PUBCHEM_CACTVS_TPSA>
136

> <PUBCHEM_MONOISOTOPIC_WEIGHT>
488.204633

> <PUBCHEM_TOTAL_CHARGE>
0

> <PUBCHEM_HEAVY_ATOM_COUNT>
35

> <PUBCHEM_ATOM_DEF_STEREO_COUNT>
9

> <PUBCHEM_ATOM_UDEF_STEREO_COUNT>
0

> <PUBCHEM_BOND_DEF_STEREO_COUNT>
0

> <PUBCHEM_BOND_UDEF_STEREO_COUNT>
0

> <PUBCHEM_ISOTOPIC_ATOM_COUNT>
0

> <PUBCHEM_COMPONENT_COUNT>
1

> <PUBCHEM_CACTVS_TAUTO_COUNT>
4

> <PUBCHEM_COORDINATE_TYPE>
1
5
255

> <PUBCHEM_BONDANNOTATIONS>
10  1  5
11  24  5
12  36  6
13  23  5
14  26  6
15  37  6
16  28  5
19  43  6
32  33  8
32  34  8
33  35  8
25  5  6
9  34  8
9  35  8

$$$$

