440032
  -OEChem-07051212482D

 46 49  0     1  0  0  0  0  0999 V2000
    8.1464    0.3693    0.0000 O   0  0  0  0  0  0  0  0  0  0  0  0
    6.4144    0.3493    0.0000 O   0  0  0  0  0  0  0  0  0  0  0  0
    8.1117    3.3691    0.0000 O   0  0  0  0  0  0  0  0  0  0  0  0
    9.8552    2.3892    0.0000 O   0  0  0  0  0  0  0  0  0  0  0  0
    6.3913    2.3492    0.0000 O   0  0  0  0  0  0  0  0  0  0  0  0
   10.7385    0.8993    0.0000 O   0  0  0  0  0  0  0  0  0  0  0  0
    4.6660    0.3147    0.0000 O   0  0  0  0  0  0  0  0  0  0  0  0
    4.6660   -3.6853    0.0000 O   0  0  0  0  0  0  0  0  0  0  0  0
    8.1232    2.3692    0.0000 C   0  0  1  0  0  0  0  0  0  0  0  0
    8.9950    1.8792    0.0000 C   0  0  1  0  0  0  0  0  0  0  0  0
    7.2631    1.8592    0.0000 C   0  0  2  0  0  0  0  0  0  0  0  0
    9.0066    0.8793    0.0000 C   0  0  1  0  0  0  0  0  0  0  0  0
    7.2746    0.8593    0.0000 C   0  0  1  0  0  0  0  0  0  0  0  0
    9.8783    0.3893    0.0000 C   0  0  0  0  0  0  0  0  0  0  0  0
    6.4260   -0.6506    0.0000 C   0  0  0  0  0  0  0  0  0  0  0  0
    5.5321   -1.1853    0.0000 C   0  0  0  0  0  0  0  0  0  0  0  0
    5.5321   -2.1853    0.0000 C   0  0  0  0  0  0  0  0  0  0  0  0
    7.3321   -1.1645    0.0000 C   0  0  0  0  0  0  0  0  0  0  0  0
    4.6660   -0.6853    0.0000 C   0  0  0  0  0  0  0  0  0  0  0  0
    3.8000   -1.1853    0.0000 C   0  0  0  0  0  0  0  0  0  0  0  0
    3.8000   -2.1853    0.0000 C   0  0  0  0  0  0  0  0  0  0  0  0
    4.6660   -2.6853    0.0000 C   0  0  0  0  0  0  0  0  0  0  0  0
    6.4260   -2.7200    0.0000 C   0  0  0  0  0  0  0  0  0  0  0  0
    7.3321   -2.2061    0.0000 C   0  0  0  0  0  0  0  0  0  0  0  0
    2.9061   -0.6506    0.0000 C   0  0  0  0  0  0  0  0  0  0  0  0
    2.9061   -2.7200    0.0000 C   0  0  0  0  0  0  0  0  0  0  0  0
    2.0000   -1.1645    0.0000 C   0  0  0  0  0  0  0  0  0  0  0  0
    2.0000   -2.2061    0.0000 C   0  0  0  0  0  0  0  0  0  0  0  0
    7.5828    2.6730    0.0000 H   0  0  0  0  0  0  0  0  0  0  0  0
    8.9878    2.4992    0.0000 H   0  0  0  0  0  0  0  0  0  0  0  0
    6.7298    1.5430    0.0000 H   0  0  0  0  0  0  0  0  0  0  0  0
    9.0137    0.2593    0.0000 H   0  0  0  0  0  0  0  0  0  0  0  0
    6.7341    1.1630    0.0000 H   0  0  0  0  0  0  0  0  0  0  0  0
    9.4853   -0.0902    0.0000 H   0  0  0  0  0  0  0  0  0  0  0  0
   10.2823   -0.0810    0.0000 H   0  0  0  0  0  0  0  0  0  0  0  0
    8.6450    3.6853    0.0000 H   0  0  0  0  0  0  0  0  0  0  0  0
    9.8480    3.0092    0.0000 H   0  0  0  0  0  0  0  0  0  0  0  0
    6.3841    2.9691    0.0000 H   0  0  0  0  0  0  0  0  0  0  0  0
    7.8678   -0.8524    0.0000 H   0  0  0  0  0  0  0  0  0  0  0  0
   11.2790    0.5956    0.0000 H   0  0  0  0  0  0  0  0  0  0  0  0
    6.4188   -3.3399    0.0000 H   0  0  0  0  0  0  0  0  0  0  0  0
    7.8678   -2.5182    0.0000 H   0  0  0  0  0  0  0  0  0  0  0  0
    2.9132   -0.0307    0.0000 H   0  0  0  0  0  0  0  0  0  0  0  0
    2.9132   -3.3399    0.0000 H   0  0  0  0  0  0  0  0  0  0  0  0
    1.4643   -0.8524    0.0000 H   0  0  0  0  0  0  0  0  0  0  0  0
    1.4643   -2.5182    0.0000 H   0  0  0  0  0  0  0  0  0  0  0  0
  1 12  1  0  0  0  0
  1 13  1  0  0  0  0
 13  2  1  1  0  0  0
  2 15  1  0  0  0  0
  9  3  1  1  0  0  0
  3 36  1  0  0  0  0
 10  4  1  6  0  0  0
  4 37  1  0  0  0  0
 11  5  1  6  0  0  0
  5 38  1  0  0  0  0
  6 14  1  0  0  0  0
  6 40  1  0  0  0  0
  7 19  2  0  0  0  0
  8 22  2  0  0  0  0
  9 10  1  0  0  0  0
  9 11  1  0  0  0  0
  9 29  1  0  0  0  0
 10 12  1  0  0  0  0
 10 30  1  0  0  0  0
 11 13  1  0  0  0  0
 11 31  1  0  0  0  0
 12 14  1  1  0  0  0
 12 32  1  0  0  0  0
 13 33  1  0  0  0  0
 14 34  1  0  0  0  0
 14 35  1  0  0  0  0
 15 16  1  0  0  0  0
 15 18  2  0  0  0  0
 16 17  2  0  0  0  0
 16 19  1  0  0  0  0
 17 22  1  0  0  0  0
 17 23  1  0  0  0  0
 18 24  1  0  0  0  0
 18 39  1  0  0  0  0
 19 20  1  0  0  0  0
 20 21  1  0  0  0  0
 20 25  2  0  0  0  0
 21 22  1  0  0  0  0
 21 26  2  0  0  0  0
 23 24  2  0  0  0  0
 23 41  1  0  0  0  0
 24 42  1  0  0  0  0
 25 27  1  0  0  0  0
 25 43  1  0  0  0  0
 26 28  1  0  0  0  0
 26 44  1  0  0  0  0
 27 28  2  0  0  0  0
 27 45  1  0  0  0  0
 28 46  1  0  0  0  0
M  END
> <PUBCHEM_COMPOUND_CID>
440032

> <PUBCHEM_COMPOUND_CANONICALIZED>
1

> <PUBCHEM_CACTVS_COMPLEXITY>
609

> <PUBCHEM_CACTVS_HBOND_ACCEPTOR>
8

> <PUBCHEM_CACTVS_HBOND_DONOR>
4

> <PUBCHEM_CACTVS_ROTATABLE_BOND>
3

> <PUBCHEM_CACTVS_SUBSKEYS>
AAADceB4PAAAAAAAAAAAAAAAAAAAAAAAAAA0YMEAAAAAAADBQAAAGgAACAAADBSwmAMwDoAABgCIAqBSAAACCAAkIAAIiAEGCMgdNjaENRqieWCl4BEPqYfL6PyOgAABAAAYAACAAAYAADAAAAAAAAAAAA==

> <PUBCHEM_IUPAC_OPENEYE_NAME>
1-[(2S,3R,4S,5S,6R)-3,4,5-trihydroxy-6-(hydroxymethyl)tetrahydropyran-2-yl]oxyanthracene-9,10-dione

> <PUBCHEM_IUPAC_CAS_NAME>
1-[[(2S,3R,4S,5S,6R)-3,4,5-trihydroxy-6-(hydroxymethyl)-2-oxanyl]oxy]anthracene-9,10-dione

> <PUBCHEM_IUPAC_NAME>
1-[(2S,3R,4S,5S,6R)-3,4,5-trihydroxy-6-(hydroxymethyl)oxan-2-yl]oxyanthracene-9,10-dione

> <PUBCHEM_IUPAC_SYSTEMATIC_NAME>
1-[(2S,3R,4S,5S,6R)-6-(hydroxymethyl)-3,4,5-tris(oxidanyl)oxan-2-yl]oxyanthracene-9,10-dione

> <PUBCHEM_IUPAC_TRADITIONAL_NAME>
1-[(2S,3R,4S,5S,6R)-3,4,5-trihydroxy-6-methylol-tetrahydropyran-2-yl]oxy-9,10-anthraquinone

> <PUBCHEM_IUPAC_INCHI>
InChI=1S/C20H18O8/c21-8-13-17(24)18(25)19(26)20(28-13)27-12-7-3-6-11-14(12)16(23)10-5-2-1-4-9(10)15(11)22/h1-7,13,17-21,24-26H,8H2/t13-,17-,18+,19-,20-/m1/s1

> <PUBCHEM_IUPAC_INCHIKEY>
KIAQLDGFGYNFJU-DBTZYBQZSA-N

> <PUBCHEM_XLOGP3_AA>
0.7

> <PUBCHEM_EXACT_MASS>
386.100168

> <PUBCHEM_MOLECULAR_FORMULA>
C20H18O8

> <PUBCHEM_MOLECULAR_WEIGHT>
386.35212

> <PUBCHEM_OPENEYE_CAN_SMILES>
C1=CC=C2C(=C1)C(=O)C3=C(C2=O)C(=CC=C3)OC4C(C(C(C(O4)CO)O)O)O

> <PUBCHEM_OPENEYE_ISO_SMILES>
C1=CC=C2C(=C1)C(=O)C3=C(C2=O)C(=CC=C3)O[C@H]4[C@@H]([C@H]([C@@H]([C@H](O4)CO)O)O)O

> <PUBCHEM_CACTVS_TPSA>
134

> <PUBCHEM_MONOISOTOPIC_WEIGHT>
386.100168

> <PUBCHEM_TOTAL_CHARGE>
0

> <PUBCHEM_HEAVY_ATOM_COUNT>
28

> <PUBCHEM_ATOM_DEF_STEREO_COUNT>
5

> <PUBCHEM_ATOM_UDEF_STEREO_COUNT>
0

> <PUBCHEM_BOND_DEF_STEREO_COUNT>
0

> <PUBCHEM_BOND_UDEF_STEREO_COUNT>
0

> <PUBCHEM_ISOTOPIC_ATOM_COUNT>
0

> <PUBCHEM_COMPONENT_COUNT>
1

> <PUBCHEM_CACTVS_TAUTO_COUNT>
1

> <PUBCHEM_COORDINATE_TYPE>
1
5
255

> <PUBCHEM_BONDANNOTATIONS>
12  14  5
15  16  8
15  18  8
16  17  8
17  23  8
18  24  8
13  2  5
20  21  8
20  25  8
21  26  8
23  24  8
25  27  8
26  28  8
27  28  8
9  3  5
10  4  6
11  5  6

$$$$

