854107
  -OEChem-06241222472D

 37 39  0     0  0  0  0  0  0999 V2000
    6.3301    1.2073    0.0000 O   0  0  0  0  0  0  0  0  0  0  0  0
    4.5981    1.2073    0.0000 O   0  0  0  0  0  0  0  0  0  0  0  0
    8.0785   -1.8273    0.0000 O   0  0  0  0  0  0  0  0  0  0  0  0
    5.4641   -0.2927    0.0000 C   0  0  0  0  0  0  0  0  0  0  0  0
    6.3301   -0.7927    0.0000 C   0  0  0  0  0  0  0  0  0  0  0  0
    7.1962   -0.2927    0.0000 C   0  0  0  0  0  0  0  0  0  0  0  0
    4.5981   -0.7927    0.0000 C   0  0  0  0  0  0  0  0  0  0  0  0
    7.1962    0.7073    0.0000 C   0  0  0  0  0  0  0  0  0  0  0  0
    5.4641    0.7073    0.0000 C   0  0  0  0  0  0  0  0  0  0  0  0
    3.7321   -0.2927    0.0000 C   0  0  0  0  0  0  0  0  0  0  0  0
    8.0901   -0.8274    0.0000 C   0  0  0  0  0  0  0  0  0  0  0  0
    6.3301   -1.7927    0.0000 C   0  0  0  0  0  0  0  0  0  0  0  0
    8.0901    1.2420    0.0000 C   0  0  0  0  0  0  0  0  0  0  0  0
    8.9962    0.7281    0.0000 C   0  0  0  0  0  0  0  0  0  0  0  0
    8.9962   -0.3135    0.0000 C   0  0  0  0  0  0  0  0  0  0  0  0
    3.7321    0.7073    0.0000 C   0  0  0  0  0  0  0  0  0  0  0  0
    2.8660   -0.7927    0.0000 C   0  0  0  0  0  0  0  0  0  0  0  0
    9.8603    1.2314    0.0000 C   0  0  0  0  0  0  0  0  0  0  0  0
    2.8660    1.2073    0.0000 C   0  0  0  0  0  0  0  0  0  0  0  0
    2.0000   -0.2927    0.0000 C   0  0  0  0  0  0  0  0  0  0  0  0
    2.0000    0.7073    0.0000 C   0  0  0  0  0  0  0  0  0  0  0  0
    4.1995   -1.2677    0.0000 H   0  0  0  0  0  0  0  0  0  0  0  0
    4.9966   -1.2677    0.0000 H   0  0  0  0  0  0  0  0  0  0  0  0
    5.7101   -1.7927    0.0000 H   0  0  0  0  0  0  0  0  0  0  0  0
    6.3301   -2.4127    0.0000 H   0  0  0  0  0  0  0  0  0  0  0  0
    6.9501   -1.7927    0.0000 H   0  0  0  0  0  0  0  0  0  0  0  0
    8.0829    1.8619    0.0000 H   0  0  0  0  0  0  0  0  0  0  0  0
    9.5319   -0.6256    0.0000 H   0  0  0  0  0  0  0  0  0  0  0  0
    4.2690    1.0173    0.0000 H   0  0  0  0  0  0  0  0  0  0  0  0
    2.8660   -1.4127    0.0000 H   0  0  0  0  0  0  0  0  0  0  0  0
   10.1723    0.6957    0.0000 H   0  0  0  0  0  0  0  0  0  0  0  0
   10.3960    1.5435    0.0000 H   0  0  0  0  0  0  0  0  0  0  0  0
    9.5482    1.7672    0.0000 H   0  0  0  0  0  0  0  0  0  0  0  0
    2.8660    1.8273    0.0000 H   0  0  0  0  0  0  0  0  0  0  0  0
    1.4631   -0.6027    0.0000 H   0  0  0  0  0  0  0  0  0  0  0  0
    4.5981    1.8273    0.0000 H   0  0  0  0  0  0  0  0  0  0  0  0
    1.4631    1.0173    0.0000 H   0  0  0  0  0  0  0  0  0  0  0  0
  1  8  1  0  0  0  0
  1  9  1  0  0  0  0
  2  9  1  0  0  0  0
  2 36  1  0  0  0  0
  3 11  2  0  0  0  0
  4  5  1  0  0  0  0
  4  7  1  0  0  0  0
  4  9  2  0  0  0  0
  5  6  2  0  0  0  0
  5 12  1  0  0  0  0
  6  8  1  0  0  0  0
  6 11  1  0  0  0  0
  7 10  1  0  0  0  0
  7 22  1  0  0  0  0
  7 23  1  0  0  0  0
  8 13  2  0  0  0  0
 10 16  2  0  0  0  0
 10 17  1  0  0  0  0
 11 15  1  0  0  0  0
 12 24  1  0  0  0  0
 12 25  1  0  0  0  0
 12 26  1  0  0  0  0
 13 14  1  0  0  0  0
 13 27  1  0  0  0  0
 14 15  2  0  0  0  0
 14 18  1  0  0  0  0
 15 28  1  0  0  0  0
 16 19  1  0  0  0  0
 16 29  1  0  0  0  0
 17 20  2  0  0  0  0
 17 30  1  0  0  0  0
 18 31  1  0  0  0  0
 18 32  1  0  0  0  0
 18 33  1  0  0  0  0
 19 21  2  0  0  0  0
 19 34  1  0  0  0  0
 20 21  1  0  0  0  0
 20 35  1  0  0  0  0
 21 37  1  0  0  0  0
M  END
> <PUBCHEM_COMPOUND_CID>
854107

> <PUBCHEM_COMPOUND_CANONICALIZED>
1

> <PUBCHEM_CACTVS_COMPLEXITY>
596

> <PUBCHEM_CACTVS_HBOND_ACCEPTOR>
3

> <PUBCHEM_CACTVS_HBOND_DONOR>
1

> <PUBCHEM_CACTVS_ROTATABLE_BOND>
2

> <PUBCHEM_CACTVS_SUBSKEYS>
AAADceB4MAAAAAAAAAAAAAAAAAAAAAAAAAAwQIAAAAAAAACBAAAAGgAACAAADASAmAAyCIAABgCIAqBSAAACCAAgIAAIiAEAAMgYJCaAMRCAMAAkoAAMqQcAgIAOAAAAAAAAAAAAAAAAAAAAAAAAAAAAAA==

> <PUBCHEM_IUPAC_OPENEYE_NAME>
3-benzyl-2-hydroxy-4,7-dimethyl-chromen-5-one

> <PUBCHEM_IUPAC_CAS_NAME>
2-hydroxy-4,7-dimethyl-3-(phenylmethyl)-1-benzopyran-5-one

> <PUBCHEM_IUPAC_NAME>
3-benzyl-2-hydroxy-4,7-dimethylchromen-5-one

> <PUBCHEM_IUPAC_SYSTEMATIC_NAME>
4,7-dimethyl-2-oxidanyl-3-(phenylmethyl)chromen-5-one

> <PUBCHEM_IUPAC_TRADITIONAL_NAME>
3-benzyl-2-hydroxy-4,7-dimethyl-chromen-5-one

> <PUBCHEM_IUPAC_INCHI>
InChI=1S/C18H16O3/c1-11-8-15(19)17-12(2)14(18(20)21-16(17)9-11)10-13-6-4-3-5-7-13/h3-9,20H,10H2,1-2H3

> <PUBCHEM_IUPAC_INCHIKEY>
DYRPVAUPJITEGK-UHFFFAOYSA-N

> <PUBCHEM_XLOGP3_AA>
2.6

> <PUBCHEM_EXACT_MASS>
280.109944

> <PUBCHEM_MOLECULAR_FORMULA>
C18H16O3

> <PUBCHEM_MOLECULAR_WEIGHT>
280.31784

> <PUBCHEM_OPENEYE_CAN_SMILES>
CC1=CC(=O)C2=C(C(=C(OC2=C1)O)CC3=CC=CC=C3)C

> <PUBCHEM_OPENEYE_ISO_SMILES>
CC1=CC(=O)C2=C(C(=C(OC2=C1)O)CC3=CC=CC=C3)C

> <PUBCHEM_CACTVS_TPSA>
46.5

> <PUBCHEM_MONOISOTOPIC_WEIGHT>
280.109944

> <PUBCHEM_TOTAL_CHARGE>
0

> <PUBCHEM_HEAVY_ATOM_COUNT>
21

> <PUBCHEM_ATOM_DEF_STEREO_COUNT>
0

> <PUBCHEM_ATOM_UDEF_STEREO_COUNT>
0

> <PUBCHEM_BOND_DEF_STEREO_COUNT>
0

> <PUBCHEM_BOND_UDEF_STEREO_COUNT>
0

> <PUBCHEM_ISOTOPIC_ATOM_COUNT>
0

> <PUBCHEM_COMPONENT_COUNT>
1

> <PUBCHEM_CACTVS_TAUTO_COUNT>
30

> <PUBCHEM_COORDINATE_TYPE>
1
5
255

> <PUBCHEM_BONDANNOTATIONS>
1  8  8
1  9  8
10  16  8
10  17  8
11  15  8
13  14  8
14  15  8
16  19  8
17  20  8
19  21  8
20  21  8
4  5  8
4  9  8
5  6  8
6  11  8
8  13  8

$$$$

