   Color/Form

     * RED PLATELETS FROM ABS ALCOHOL
     * ORANGE CRYSTALS; ORANGE-RED PLATELETS

   from [1]HSDB

   Melting Point
        102-104 DEG C
   from [2]HSDB

   Solubilities

     * INSOL IN WATER; VERY SOL IN ALC, ACETIC ACID; SOL IN CONCENTRATED
       SULFURIC ACID
     * SOL IN CARBON TETRACHLORIDE AND IN VEGETABLE OILS

   from [3]HSDB

   Spectral Properties

     * MAX ABSORPTION (ALCOHOL): 340 NM (LOG E= 3.9); 450 NM (LOG E= 4.2)
     * MAX ABSORPTION (CHLOROFORM): 434 NM

   from [4]HSDB

   Other Chemical/Physical Properties

     * ALCOHOLIC SOLN BECOMES REDDER WITH HYDROCHLORIC ACID ADDITION, & IS
       UNALTERED BY SODIUM HYDROXIDE ADDITION
     * TURNS BLUE IN CONCENTRATED SULFURIC ACID
     * IR: 404 (Coblentz Society Spectral Collection)
       /Benzeneazo-1-naphthalene, 4'-amino/
     * UV: 6-653 (Organic Electronic Spectral Data, Phillips et al, John
       Wiley & Sons, New York) /Benzeneazo-1-naphthalene, 4'-amino/
     * NMR: 18829 (Sadtler Research Laboratories Spectral Collection)
       /Benzeneazo-1-naphthalene, 4'-amino/

   from [5]HSDB

   Computed Properties
   Molecular Weight                  247.29452 [g/mol]
   Molecular Formula                 C[16]H[13]N[3]
   XLogP3-AA                         4.3
   H-Bond Donor                      1
   H-Bond Acceptor                   3
   Rotatable Bond Count              2
   Tautomer Count                    2
   Exact Mass                        247.110947
   MonoIsotopic Mass                 247.110947
   Topological Polar Surface Area    50.7
   Heavy Atom Count                  19
   Formal Charge                     0
   Complexity                        309
   Isotope Atom Count                0
   Defined Atom Stereocenter Count   0
   Undefined Atom Stereocenter Count 0
   Defined Bond Stereocenter Count   0
   Undefined Bond Stereocenter Count 0
   Covalently-Bonded Unit Count      1
   Feature 3D Donor Count            1
   Feature 3D Cation Count           1
   Feature 3D Ring Count             3
   Effective Rotor Count             2
   Conformer Sampling RMSD           0.6
   CID Conformer Count               [6]3

References

   1. http://toxnet.nlm.nih.gov/cgi-bin/sis/search/r?dbs+hsdb:@term+@rn+@rel+85-84-7
   2. http://toxnet.nlm.nih.gov/cgi-bin/sis/search/r?dbs+hsdb:@term+@rn+@rel+85-84-7
   3. http://toxnet.nlm.nih.gov/cgi-bin/sis/search/r?dbs+hsdb:@term+@rn+@rel+85-84-7
   4. http://toxnet.nlm.nih.gov/cgi-bin/sis/search/r?dbs+hsdb:@term+@rn+@rel+85-84-7
   5. http://toxnet.nlm.nih.gov/cgi-bin/sis/search/r?dbs+hsdb:@term+@rn+@rel+85-84-7
   6. http://pubchem.ncbi.nlm.nih.gov/vw3d/vw3d.cgi?cid=6824
