447152
  -OEChem-07051212452D

 63 66  0     1  0  0  0  0  0999 V2000
    9.8781    0.8460    0.0000 P   0  0  3  0  0  0  0  0  0  0  0  0
   11.6010    1.0241    0.0000 P   0  0  3  0  0  0  0  0  0  0  0  0
    7.3435   -0.9184    0.0000 O   0  0  0  0  0  0  0  0  0  0  0  0
    4.8055   -0.4140    0.0000 O   0  0  0  0  0  0  0  0  0  0  0  0
    6.0873    1.3438    0.0000 O   0  0  0  0  0  0  0  0  0  0  0  0
   13.2211    2.1969    0.0000 O   0  0  0  0  0  0  0  0  0  0  0  0
    9.0681    0.2596    0.0000 O   0  0  0  0  0  0  0  0  0  0  0  0
   12.5138    0.6158    0.0000 O   0  0  0  0  0  0  0  0  0  0  0  0
   15.9596    0.9719    0.0000 O   0  0  0  0  0  0  0  0  0  0  0  0
   14.3395   -0.2009    0.0000 O   0  0  0  0  0  0  0  0  0  0  0  0
   15.7540    2.9613    0.0000 O   0  0  0  0  0  0  0  0  0  0  0  0
   10.6882    1.4324    0.0000 O   0  0  0  0  0  0  0  0  0  0  0  0
   14.7383    4.3643    0.0000 O   0  0  0  0  0  0  0  0  0  0  0  0
   10.4645    0.0360    0.0000 O   0  0  0  0  0  0  0  0  0  0  0  0
   12.0093    1.9369    0.0000 O   0  0  0  0  0  0  0  0  0  0  0  0
   13.0154    4.1863    0.0000 O   0  0  0  0  0  0  0  0  0  0  0  0
    9.2917    1.6561    0.0000 O   0  0  0  0  0  0  0  0  0  0  0  0
   11.1927    0.1113    0.0000 O   0  0  0  0  0  0  0  0  0  0  0  0
    4.2690   -4.9810    0.0000 O   0  0  0  0  0  0  0  0  0  0  0  0
    6.0812   -2.1763    0.0000 N   0  0  0  0  0  0  0  0  0  0  0  0
    4.2690   -1.9810    0.0000 N   0  0  0  0  0  0  0  0  0  0  0  0
    6.0812   -3.7858    0.0000 N   0  0  0  0  0  0  0  0  0  0  0  0
    3.4030   -3.4810    0.0000 N   0  0  0  0  0  0  0  0  0  0  0  0
    2.5369   -1.9810    0.0000 N   0  0  0  0  0  0  0  0  0  0  0  0
    5.8055   -0.4158    0.0000 C   0  0  2  0  0  0  0  0  0  0  0  0
    6.3947    0.3922    0.0000 C   0  0  1  0  0  0  0  0  0  0  0  0
    6.3919   -1.2258    0.0000 C   0  0  1  0  0  0  0  0  0  0  0  0
    7.3452    0.0816    0.0000 C   0  0  1  0  0  0  0  0  0  0  0  0
    8.1552    0.6680    0.0000 C   0  0  0  0  0  0  0  0  0  0  0  0
   15.0467    1.3802    0.0000 C   0  0  2  0  0  0  0  0  0  0  0  0
   14.2367    0.7938    0.0000 C   0  0  1  0  0  0  0  0  0  0  0  0
   14.9439    2.3749    0.0000 C   0  0  1  0  0  0  0  0  0  0  0  0
   13.3239    1.2022    0.0000 C   0  0  2  0  0  0  0  0  0  0  0  0
   14.0311    2.7832    0.0000 C   0  0  1  0  0  0  0  0  0  0  0  0
    5.1350   -2.4811    0.0000 C   0  0  0  0  0  0  0  0  0  0  0  0
    6.6648   -2.9811    0.0000 C   0  0  0  0  0  0  0  0  0  0  0  0
    5.1350   -3.4810    0.0000 C   0  0  0  0  0  0  0  0  0  0  0  0
   13.9283    3.7780    0.0000 C   0  0  0  0  0  0  0  0  0  0  0  0
    4.2690   -3.9810    0.0000 C   0  0  0  0  0  0  0  0  0  0  0  0
    3.4030   -2.4811    0.0000 C   0  0  0  0  0  0  0  0  0  0  0  0
    5.5250    0.1371    0.0000 H   0  0  0  0  0  0  0  0  0  0  0  0
    5.7825    0.4903    0.0000 H   0  0  0  0  0  0  0  0  0  0  0  0
    5.7794   -1.3217    0.0000 H   0  0  0  0  0  0  0  0  0  0  0  0
    7.8972   -0.2009    0.0000 H   0  0  0  0  0  0  0  0  0  0  0  0
    8.5028    1.1814    0.0000 H   0  0  0  0  0  0  0  0  0  0  0  0
    7.7100    1.0994    0.0000 H   0  0  0  0  0  0  0  0  0  0  0  0
   15.1105    0.7635    0.0000 H   0  0  0  0  0  0  0  0  0  0  0  0
   13.7345    0.4303    0.0000 H   0  0  0  0  0  0  0  0  0  0  0  0
   15.5099    2.1218    0.0000 H   0  0  0  0  0  0  0  0  0  0  0  0
   12.7579    1.4553    0.0000 H   0  0  0  0  0  0  0  0  0  0  0  0
   13.4651    3.0364    0.0000 H   0  0  0  0  0  0  0  0  0  0  0  0
    4.4964    0.1234    0.0000 H   0  0  0  0  0  0  0  0  0  0  0  0
    6.5030    1.8039    0.0000 H   0  0  0  0  0  0  0  0  0  0  0  0
    7.2848   -2.9811    0.0000 H   0  0  0  0  0  0  0  0  0  0  0  0
    4.2690   -1.3611    0.0000 H   0  0  0  0  0  0  0  0  0  0  0  0
   16.0233    0.3552    0.0000 H   0  0  0  0  0  0  0  0  0  0  0  0
   14.9055   -0.4540    0.0000 H   0  0  0  0  0  0  0  0  0  0  0  0
   16.3199    2.7082    0.0000 H   0  0  0  0  0  0  0  0  0  0  0  0
   14.6746    4.9810    0.0000 H   0  0  0  0  0  0  0  0  0  0  0  0
   10.2113   -0.5300    0.0000 H   0  0  0  0  0  0  0  0  0  0  0  0
   11.6458    2.4392    0.0000 H   0  0  0  0  0  0  0  0  0  0  0  0
    2.0000   -2.2910    0.0000 H   0  0  0  0  0  0  0  0  0  0  0  0
    2.5369   -1.3611    0.0000 H   0  0  0  0  0  0  0  0  0  0  0  0
  1  7  1  0  0  0  0
  1 12  1  0  0  0  0
  1 14  1  0  0  0  0
  1 17  2  0  0  0  0
  2  8  1  0  0  0  0
  2 12  1  0  0  0  0
  2 15  1  0  0  0  0
  2 18  2  0  0  0  0
  3 27  1  0  0  0  0
  3 28  1  0  0  0  0
 25  4  1  6  0  0  0
  4 52  1  0  0  0  0
 26  5  1  6  0  0  0
  5 53  1  0  0  0  0
  6 33  1  0  0  0  0
  6 34  1  0  0  0  0
  7 29  1  0  0  0  0
 33  8  1  1  0  0  0
 30  9  1  6  0  0  0
  9 56  1  0  0  0  0
 31 10  1  6  0  0  0
 10 57  1  0  0  0  0
 32 11  1  1  0  0  0
 11 58  1  0  0  0  0
 13 38  1  0  0  0  0
 13 59  1  0  0  0  0
 14 60  1  0  0  0  0
 15 61  1  0  0  0  0
 16 38  2  0  0  0  0
 19 39  2  0  0  0  0
 27 20  1  1  0  0  0
 20 35  1  0  0  0  0
 20 36  1  0  0  0  0
 21 35  1  0  0  0  0
 21 40  1  0  0  0  0
 21 55  1  0  0  0  0
 22 36  2  0  0  0  0
 22 37  1  0  0  0  0
 23 39  1  0  0  0  0
 23 40  2  0  0  0  0
 24 40  1  0  0  0  0
 24 62  1  0  0  0  0
 24 63  1  0  0  0  0
 25 26  1  0  0  0  0
 25 27  1  0  0  0  0
 25 41  1  0  0  0  0
 26 28  1  0  0  0  0
 26 42  1  0  0  0  0
 27 43  1  0  0  0  0
 28 29  1  1  0  0  0
 28 44  1  0  0  0  0
 29 45  1  0  0  0  0
 29 46  1  0  0  0  0
 30 31  1  0  0  0  0
 30 32  1  0  0  0  0
 30 47  1  0  0  0  0
 31 33  1  0  0  0  0
 31 48  1  0  0  0  0
 32 34  1  0  0  0  0
 32 49  1  0  0  0  0
 33 50  1  0  0  0  0
 34 38  1  6  0  0  0
 34 51  1  0  0  0  0
 35 37  2  0  0  0  0
 36 54  1  0  0  0  0
 37 39  1  0  0  0  0
M  END
> <PUBCHEM_COMPOUND_CID>
447152

> <PUBCHEM_COMPOUND_CANONICALIZED>
1

> <PUBCHEM_CACTVS_COMPLEXITY>
1130

> <PUBCHEM_CACTVS_HBOND_ACCEPTOR>
18

> <PUBCHEM_CACTVS_HBOND_DONOR>
10

> <PUBCHEM_CACTVS_ROTATABLE_BOND>
9

> <PUBCHEM_CACTVS_SUBSKEYS>
AAADceB7vgMAAAAAAAAAAAAAAAAAAWJAAAAkQAAAAAAAAEABgAAAHgAQCCAACBzxlgcFuBfMFxCoQQfxfIKAgC0XEKABUAHoVECTWB5AyCQeQIAPIALXAGH6fAZAAAAAAAAAAAAAAAAAAAAAAAAAAAAAAA==

> <PUBCHEM_IUPAC_OPENEYE_NAME>
(2S,3S,4S,5S,6R)-6-[[[(2R,3S,4R,5R)-5-(2-amino-6-oxo-3H-purin-9-yl)-3,4-dihydroxy-tetrahydrofuran-2-yl]methoxy-hydroxy-phosphoryl]oxy-hydroxy-phosphoryl]oxy-3,4,5-trihydroxy-tetrahydropyran-2-carboxylic acid

> <PUBCHEM_IUPAC_CAS_NAME>
(2S,3S,4S,5S,6R)-6-[[[(2R,3S,4R,5R)-5-(2-amino-6-oxo-3H-purin-9-yl)-3,4-dihydroxy-2-oxolanyl]methoxy-hydroxyphosphoryl]oxy-hydroxyphosphoryl]oxy-3,4,5-trihydroxy-2-oxanecarboxylic acid

> <PUBCHEM_IUPAC_NAME>
(2S,3S,4S,5S,6R)-6-[[[(2R,3S,4R,5R)-5-(2-amino-6-oxo-3H-purin-9-yl)-3,4-dihydroxyoxolan-2-yl]methoxy-hydroxyphosphoryl]oxy-hydroxyphosphoryl]oxy-3,4,5-trihydroxyoxane-2-carboxylic acid

> <PUBCHEM_IUPAC_SYSTEMATIC_NAME>
(2S,3S,4S,5S,6R)-6-[[[(2R,3S,4R,5R)-5-(2-azanyl-6-oxidanylidene-3H-purin-9-yl)-3,4-bis(oxidanyl)oxolan-2-yl]methoxy-oxidanyl-phosphoryl]oxy-oxidanyl-phosphoryl]oxy-3,4,5-tris(oxidanyl)oxane-2-carboxylic acid

> <PUBCHEM_IUPAC_TRADITIONAL_NAME>
(2S,3S,4S,5S,6R)-6-[[[(2R,3S,4R,5R)-5-(2-amino-6-keto-3H-purin-9-yl)-3,4-dihydroxy-tetrahydrofuran-2-yl]methoxy-hydroxy-phosphoryl]oxy-hydroxy-phosphoryl]oxy-3,4,5-trihydroxy-tetrahydropyran-2-carboxylic acid

> <PUBCHEM_IUPAC_INCHI>
InChI=1S/C16H23N5O17P2/c17-16-19-11-4(12(27)20-16)18-2-21(11)13-8(25)5(22)3(35-13)1-34-39(30,31)38-40(32,33)37-15-9(26)6(23)7(24)10(36-15)14(28)29/h2-3,5-10,13,15,22-26H,1H2,(H,28,29)(H,30,31)(H,32,33)(H3,17,19,20,27)/t3-,5-,6+,7+,8-,9+,10+,13-,15-/m1/s1

> <PUBCHEM_IUPAC_INCHIKEY>
DNBSDUDYNPJVCN-ZXTXFPBHSA-N

> <PUBCHEM_XLOGP3_AA>
-6.8

> <PUBCHEM_EXACT_MASS>
619.056418

> <PUBCHEM_MOLECULAR_FORMULA>
C16H23N5O17P2

> <PUBCHEM_MOLECULAR_WEIGHT>
619.324644

> <PUBCHEM_OPENEYE_CAN_SMILES>
C1=NC2=C(N1C3C(C(C(O3)COP(=O)(O)OP(=O)(O)OC4C(C(C(C(O4)C(=O)O)O)O)O)O)O)NC(=NC2=O)N

> <PUBCHEM_OPENEYE_ISO_SMILES>
C1=NC2=C(N1[C@H]3[C@@H]([C@@H]([C@H](O3)COP(=O)(O)OP(=O)(O)O[C@@H]4[C@H]([C@H]([C@@H]([C@H](O4)C(=O)O)O)O)O)O)O)NC(=NC2=O)N

> <PUBCHEM_CACTVS_TPSA>
345

> <PUBCHEM_MONOISOTOPIC_WEIGHT>
619.056418

> <PUBCHEM_TOTAL_CHARGE>
0

> <PUBCHEM_HEAVY_ATOM_COUNT>
40

> <PUBCHEM_ATOM_DEF_STEREO_COUNT>
9

> <PUBCHEM_ATOM_UDEF_STEREO_COUNT>
0

> <PUBCHEM_BOND_DEF_STEREO_COUNT>
0

> <PUBCHEM_BOND_UDEF_STEREO_COUNT>
0

> <PUBCHEM_ISOTOPIC_ATOM_COUNT>
0

> <PUBCHEM_COMPONENT_COUNT>
1

> <PUBCHEM_CACTVS_TAUTO_COUNT>
9

> <PUBCHEM_COORDINATE_TYPE>
1
5
255

> <PUBCHEM_BONDANNOTATIONS>
31  10  6
32  11  5
27  20  5
20  35  8
20  36  8
21  35  8
21  40  8
22  36  8
22  37  8
23  39  8
23  40  8
28  29  5
34  38  6
35  37  8
37  39  8
25  4  6
26  5  6
33  8  5
30  9  6

$$$$

