17395719
  -OEChem-06241222522D

 44 46  0     0  0  0  0  0  0999 V2000
    4.5981    1.5285    0.0000 S   0  0  0  0  0  0  0  0  0  0  0  0
    2.8660    0.5285    0.0000 O   0  0  0  0  0  0  0  0  0  0  0  0
    3.7320   -5.9715    0.0000 O   0  0  0  0  0  0  0  0  0  0  0  0
    2.8660   -4.4715    0.0000 N   0  0  0  0  0  0  0  0  0  0  0  0
    7.0468    2.3649    0.0000 N   0  0  0  0  0  0  0  0  0  0  0  0
    5.5686    3.0230    0.0000 N   0  0  0  0  0  0  0  0  0  0  0  0
    6.3776    1.6217    0.0000 N   0  0  0  0  0  0  0  0  0  0  0  0
    3.7320   -2.9715    0.0000 C   0  0  0  0  0  0  0  0  0  0  0  0
    3.7320   -3.9715    0.0000 C   0  0  0  0  0  0  0  0  0  0  0  0
    3.7320   -0.9715    0.0000 C   0  0  0  0  0  0  0  0  0  0  0  0
    4.5981   -2.4715    0.0000 C   0  0  0  0  0  0  0  0  0  0  0  0
    2.8660   -2.4715    0.0000 C   0  0  0  0  0  0  0  0  0  0  0  0
    4.5981   -1.4715    0.0000 C   0  0  0  0  0  0  0  0  0  0  0  0
    2.8660   -1.4715    0.0000 C   0  0  0  0  0  0  0  0  0  0  0  0
    3.7320    0.0285    0.0000 C   0  0  0  0  0  0  0  0  0  0  0  0
    4.5981    0.5285    0.0000 C   0  0  0  0  0  0  0  0  0  0  0  0
    6.9535    4.1444    0.0000 C   0  0  0  0  0  0  0  0  0  0  0  0
    6.5468    3.2309    0.0000 C   0  0  0  0  0  0  0  0  0  0  0  0
    5.4641    2.0285    0.0000 C   0  0  0  0  0  0  0  0  0  0  0  0
    7.9480    4.2490    0.0000 C   0  0  0  0  0  0  0  0  0  0  0  0
    6.3657    4.9535    0.0000 C   0  0  0  0  0  0  0  0  0  0  0  0
    2.8660   -5.4715    0.0000 C   0  0  0  0  0  0  0  0  0  0  0  0
    8.3548    5.1625    0.0000 C   0  0  0  0  0  0  0  0  0  0  0  0
    6.7725    5.8670    0.0000 C   0  0  0  0  0  0  0  0  0  0  0  0
    7.7670    5.9715    0.0000 C   0  0  0  0  0  0  0  0  0  0  0  0
    2.0000   -5.9715    0.0000 C   0  0  0  0  0  0  0  0  0  0  0  0
    3.9441   -4.5541    0.0000 H   0  0  0  0  0  0  0  0  0  0  0  0
    4.3426   -3.8639    0.0000 H   0  0  0  0  0  0  0  0  0  0  0  0
    5.1350   -2.7815    0.0000 H   0  0  0  0  0  0  0  0  0  0  0  0
    2.3291   -2.7815    0.0000 H   0  0  0  0  0  0  0  0  0  0  0  0
    5.1350   -1.1615    0.0000 H   0  0  0  0  0  0  0  0  0  0  0  0
    2.3291   -1.1615    0.0000 H   0  0  0  0  0  0  0  0  0  0  0  0
    4.8101   -0.0541    0.0000 H   0  0  0  0  0  0  0  0  0  0  0  0
    5.2087    0.6361    0.0000 H   0  0  0  0  0  0  0  0  0  0  0  0
    2.3291   -4.1615    0.0000 H   0  0  0  0  0  0  0  0  0  0  0  0
    8.3125    3.7474    0.0000 H   0  0  0  0  0  0  0  0  0  0  0  0
    5.7491    4.8886    0.0000 H   0  0  0  0  0  0  0  0  0  0  0  0
    7.6634    2.3001    0.0000 H   0  0  0  0  0  0  0  0  0  0  0  0
    8.9714    5.2273    0.0000 H   0  0  0  0  0  0  0  0  0  0  0  0
    6.4080    6.3686    0.0000 H   0  0  0  0  0  0  0  0  0  0  0  0
    8.0192    6.5379    0.0000 H   0  0  0  0  0  0  0  0  0  0  0  0
    1.6900   -5.4346    0.0000 H   0  0  0  0  0  0  0  0  0  0  0  0
    1.4631   -6.2815    0.0000 H   0  0  0  0  0  0  0  0  0  0  0  0
    2.3100   -6.5085    0.0000 H   0  0  0  0  0  0  0  0  0  0  0  0
  1 16  1  0  0  0  0
  1 19  1  0  0  0  0
  2 15  2  0  0  0  0
  3 22  2  0  0  0  0
  4  9  1  0  0  0  0
  4 22  1  0  0  0  0
  4 35  1  0  0  0  0
  5  7  1  0  0  0  0
  5 18  1  0  0  0  0
  5 38  1  0  0  0  0
  6 18  2  0  0  0  0
  6 19  1  0  0  0  0
  7 19  2  0  0  0  0
  8  9  1  0  0  0  0
  8 11  2  0  0  0  0
  8 12  1  0  0  0  0
  9 27  1  0  0  0  0
  9 28  1  0  0  0  0
 10 13  2  0  0  0  0
 10 14  1  0  0  0  0
 10 15  1  0  0  0  0
 11 13  1  0  0  0  0
 11 29  1  0  0  0  0
 12 14  2  0  0  0  0
 12 30  1  0  0  0  0
 13 31  1  0  0  0  0
 14 32  1  0  0  0  0
 15 16  1  0  0  0  0
 16 33  1  0  0  0  0
 16 34  1  0  0  0  0
 17 18  1  0  0  0  0
 17 20  2  0  0  0  0
 17 21  1  0  0  0  0
 20 23  1  0  0  0  0
 20 36  1  0  0  0  0
 21 24  2  0  0  0  0
 21 37  1  0  0  0  0
 22 26  1  0  0  0  0
 23 25  2  0  0  0  0
 23 39  1  0  0  0  0
 24 25  1  0  0  0  0
 24 40  1  0  0  0  0
 25 41  1  0  0  0  0
 26 42  1  0  0  0  0
 26 43  1  0  0  0  0
 26 44  1  0  0  0  0
M  END
> <PUBCHEM_COMPOUND_CID>
17395719

> <PUBCHEM_COMPOUND_CANONICALIZED>
1

> <PUBCHEM_CACTVS_COMPLEXITY>
476

> <PUBCHEM_CACTVS_HBOND_ACCEPTOR>
5

> <PUBCHEM_CACTVS_HBOND_DONOR>
2

> <PUBCHEM_CACTVS_ROTATABLE_BOND>
7

> <PUBCHEM_CACTVS_SUBSKEYS>
AAADceB7sABAAAAAAAAAAAAAAAAAAWAAAAAwYAAAAAAAAAAB0AAAHgQYAAAADATF2wSzEIbrEAiqAqNyNACS0AvkALAdqKEoBNiIKLKgnRGEIQhgngKIiYcYiMCOQAAAAAAAAACAAAAAAAAAAAAAAAAAAA==

> <PUBCHEM_IUPAC_OPENEYE_NAME>
N-[[4-[2-[(5-phenyl-1H-1,2,4-triazol-3-yl)sulfanyl]acetyl]phenyl]methyl]acetamide

> <PUBCHEM_IUPAC_CAS_NAME>
N-[[4-[1-oxo-2-[(5-phenyl-1H-1,2,4-triazol-3-yl)thio]ethyl]phenyl]methyl]acetamide

> <PUBCHEM_IUPAC_NAME>
N-[[4-[2-[(5-phenyl-1H-1,2,4-triazol-3-yl)sulfanyl]acetyl]phenyl]methyl]acetamide

> <PUBCHEM_IUPAC_SYSTEMATIC_NAME>
N-[[4-[2-[(5-phenyl-1H-1,2,4-triazol-3-yl)sulfanyl]ethanoyl]phenyl]methyl]ethanamide

> <PUBCHEM_IUPAC_TRADITIONAL_NAME>
N-[4-[2-[(5-phenyl-1H-1,2,4-triazol-3-yl)thio]acetyl]benzyl]acetamide

> <PUBCHEM_IUPAC_INCHI>
InChI=1S/C19H18N4O2S/c1-13(24)20-11-14-7-9-15(10-8-14)17(25)12-26-19-21-18(22-23-19)16-5-3-2-4-6-16/h2-10H,11-12H2,1H3,(H,20,24)(H,21,22,23)

> <PUBCHEM_IUPAC_INCHIKEY>
RGFCQSSHMAJVQO-UHFFFAOYSA-N

> <PUBCHEM_XLOGP3_AA>
3

> <PUBCHEM_EXACT_MASS>
366.115047

> <PUBCHEM_MOLECULAR_FORMULA>
C19H18N4O2S

> <PUBCHEM_MOLECULAR_WEIGHT>
366.43682

> <PUBCHEM_OPENEYE_CAN_SMILES>
CC(=O)NCC1=CC=C(C=C1)C(=O)CSC2=NNC(=N2)C3=CC=CC=C3

> <PUBCHEM_OPENEYE_ISO_SMILES>
CC(=O)NCC1=CC=C(C=C1)C(=O)CSC2=NNC(=N2)C3=CC=CC=C3

> <PUBCHEM_CACTVS_TPSA>
113

> <PUBCHEM_MONOISOTOPIC_WEIGHT>
366.115047

> <PUBCHEM_TOTAL_CHARGE>
0

> <PUBCHEM_HEAVY_ATOM_COUNT>
26

> <PUBCHEM_ATOM_DEF_STEREO_COUNT>
0

> <PUBCHEM_ATOM_UDEF_STEREO_COUNT>
0

> <PUBCHEM_BOND_DEF_STEREO_COUNT>
0

> <PUBCHEM_BOND_UDEF_STEREO_COUNT>
0

> <PUBCHEM_ISOTOPIC_ATOM_COUNT>
0

> <PUBCHEM_COMPONENT_COUNT>
1

> <PUBCHEM_CACTVS_TAUTO_COUNT>
12

> <PUBCHEM_COORDINATE_TYPE>
1
5
255

> <PUBCHEM_BONDANNOTATIONS>
10  13  8
10  14  8
11  13  8
12  14  8
17  20  8
17  21  8
20  23  8
21  24  8
23  25  8
24  25  8
5  18  8
5  7  8
6  18  8
6  19  8
7  19  8
8  11  8
8  12  8

$$$$

