   Color/Form

     * GLISTENING, VIOLET CRYSTALS FROM TOLUENE
     * VIOLET OR RED PRISMS (TOLUENE OR BENZENE); NEEDLES (AQ ACETIC
       ACID); LEAF (DILUTED ALC)

   from [1]HSDB

   Melting Point
        181-182 DEG C
   from [2]HSDB

   Dissociation Constants
        PKA1 2.5; PKA2 9.5; PKB 4.8
   from [3]HSDB

   Solubilities

     * ALMOST INSOL IN WATER; SOL IN ALC & ACETIC ACID
     * SOL IN VERY HOT ACETONE, BENZENE; SOL IN CHLOROFORM; SLIGHTLY SOL
       IN PETROLEUM ETHER
     * SOL IN LIPIDS

   from [4]HSDB

   Spectral Properties

     * MAX ABSORPTION (METHANOL-0.4 N HYDROGEN CHLORIDE): 521 NM (LOG E=
       4.76)
     * MAX ABSORPTION (METHANOL-SODIUM METHOXIDE): 410 NM (LOG E= 4.4)
     * IR: 7156 (Sadtler Research Laboratories Prism Collection)
     * NMR: 14706 (Sadtler Research Laboratories Spectral Collection)

   from [5]HSDB

   Computed Properties
   Molecular Weight                  269.2985 [g/mol]
   Molecular Formula                 C[15]H[15]N[3]O[2]
   XLogP3-AA                         3.3
   H-Bond Donor                      1
   H-Bond Acceptor                   5
   Rotatable Bond Count              4
   Exact Mass                        269.116427
   MonoIsotopic Mass                 269.116427
   Topological Polar Surface Area    65.3
   Heavy Atom Count                  20
   Formal Charge                     0
   Complexity                        349
   Isotope Atom Count                0
   Defined Atom Stereocenter Count   0
   Undefined Atom Stereocenter Count 0
   Defined Bond Stereocenter Count   0
   Undefined Bond Stereocenter Count 0
   Covalently-Bonded Unit Count      1
   Feature 3D Acceptor Count         2
   Feature 3D Anion Count            1
   Feature 3D Cation Count           1
   Feature 3D Ring Count             2
   Effective Rotor Count             4
   Conformer Sampling RMSD           0.6
   CID Conformer Count               [6]12

References

   1. http://toxnet.nlm.nih.gov/cgi-bin/sis/search/r?dbs+hsdb:@term+@rn+@rel+493-52-7
   2. http://toxnet.nlm.nih.gov/cgi-bin/sis/search/r?dbs+hsdb:@term+@rn+@rel+493-52-7
   3. http://toxnet.nlm.nih.gov/cgi-bin/sis/search/r?dbs+hsdb:@term+@rn+@rel+493-52-7
   4. http://toxnet.nlm.nih.gov/cgi-bin/sis/search/r?dbs+hsdb:@term+@rn+@rel+493-52-7
   5. http://toxnet.nlm.nih.gov/cgi-bin/sis/search/r?dbs+hsdb:@term+@rn+@rel+493-52-7
   6. http://pubchem.ncbi.nlm.nih.gov/vw3d/vw3d.cgi?cid=10303
