   Color/Form

     * White powder
     * White solid
     * Colorless, crystalline solid

   from [1]HSDB

   Odor
        Odorless
   from [2]HSDB

   Melting Point
        129-130 deg C
   from [3]HSDB

   Corrosivity
        Lack of corrosive properties
   from [4]HSDB

   Density/Specific Gravity
        1.25 g/cu cm at 20 deg C
   from [5]HSDB

   Heat of Vaporization
        318 J/g at 25 deg C [Haith DA et al; J Environ Qual 31: 724-9
   (2002)] [6]PubMed Abstract
   from [7]HSDB

   Octanol/Water Partition Coefficient
        log Kow = 1.70
   from [8]HSDB

   pH
        Very weak acid
   from [9]HSDB

   Solubilities

     * 200 g/kg acetone; 100 g/kg dichloromethane; 200 g/kg dioxane; 40
       g/kg benzene; 10 g/kg ethanol
     * 350 ppm in hexane
     * 200 g/L chloroform, 60-75 g/L ethyl acetate. 10 g/L o-xylene, 11.7
       g/L p-xylene, all at 25 deg C
     * In water, 260 mg/L at 25 deg C

   from [10]HSDB

   Spectral Properties
        Intense mass spectral peaks: 151 m/z (100%), 166 m/z (69%), 126
   m/z (61%), 58 m/z (60%)
   from [11]HSDB

   Vapor Pressure
        3.45X10-5 mm Hg at 25 deg C
   from [12]HSDB

   Other Chemical/Physical Properties

     * PARTITION RATIO AT 20 DEG C IS 1:9 FOR WATER/HEXANE
     * Henry's Law constant = 3.9X10-8 atm-cu m/mol at 25 deg C (est)
     * Hydroxyl radical reaction rate constant = 2.39X10-11 cu
       cm/molec-sec at 25 deg C (est)

   from [13]HSDB

   Computed Properties
   Molecular Weight                  223.22522 [g/mol]
   Molecular Formula                 C[11]H[13]NO[4]
   XLogP3                            1.7
   H-Bond Donor                      1
   H-Bond Acceptor                   4
   Rotatable Bond Count              2
   Tautomer Count                    2
   Exact Mass                        223.084458
   MonoIsotopic Mass                 223.084458
   Topological Polar Surface Area    56.8
   Heavy Atom Count                  16
   Formal Charge                     0
   Complexity                        279
   Isotope Atom Count                0
   Defined Atom Stereocenter Count   0
   Undefined Atom Stereocenter Count 0
   Defined Bond Stereocenter Count   0
   Undefined Bond Stereocenter Count 0
   Covalently-Bonded Unit Count      1
   Feature 3D Acceptor Count         3
   Feature 3D Donor Count            1
   Feature 3D Hydrophobe Count       1
   Feature 3D Ring Count             2
   Effective Rotor Count             3.6
   Conformer Sampling RMSD           0.6
   CID Conformer Count               [14]26

References

   1. http://toxnet.nlm.nih.gov/cgi-bin/sis/search/r?dbs+hsdb:@term+@rn+@rel+22781-23-3
   2. http://toxnet.nlm.nih.gov/cgi-bin/sis/search/r?dbs+hsdb:@term+@rn+@rel+22781-23-3
   3. http://toxnet.nlm.nih.gov/cgi-bin/sis/search/r?dbs+hsdb:@term+@rn+@rel+22781-23-3
   4. http://toxnet.nlm.nih.gov/cgi-bin/sis/search/r?dbs+hsdb:@term+@rn+@rel+22781-23-3
   5. http://toxnet.nlm.nih.gov/cgi-bin/sis/search/r?dbs+hsdb:@term+@rn+@rel+22781-23-3
   6. http://www.ncbi.nlm.nih.gov/entrez/query.fcgi?cmd=Retrieve&db=pubmed&dopt=Abstract&list_uids=12026074
   7. http://toxnet.nlm.nih.gov/cgi-bin/sis/search/r?dbs+hsdb:@term+@rn+@rel+22781-23-3
   8. http://toxnet.nlm.nih.gov/cgi-bin/sis/search/r?dbs+hsdb:@term+@rn+@rel+22781-23-3
   9. http://toxnet.nlm.nih.gov/cgi-bin/sis/search/r?dbs+hsdb:@term+@rn+@rel+22781-23-3
  10. http://toxnet.nlm.nih.gov/cgi-bin/sis/search/r?dbs+hsdb:@term+@rn+@rel+22781-23-3
  11. http://toxnet.nlm.nih.gov/cgi-bin/sis/search/r?dbs+hsdb:@term+@rn+@rel+22781-23-3
  12. http://toxnet.nlm.nih.gov/cgi-bin/sis/search/r?dbs+hsdb:@term+@rn+@rel+22781-23-3
  13. http://toxnet.nlm.nih.gov/cgi-bin/sis/search/r?dbs+hsdb:@term+@rn+@rel+22781-23-3
  14. http://pubchem.ncbi.nlm.nih.gov/vw3d/vw3d.cgi?cid=2314
