46173793
  -OEChem-07051213022D

 68 70  0     1  0  0  0  0  0999 V2000
   10.1588    0.6351    0.0000 P   0  0  3  0  0  0  0  0  0  0  0  0
    9.2928   -0.8649    0.0000 P   0  0  3  0  0  0  0  0  0  0  0  0
   11.8909    1.6350    0.0000 O   0  0  0  0  0  0  0  0  0  0  0  0
    6.6472   -2.4582    0.0000 O   0  0  0  0  0  0  0  0  0  0  0  0
   13.6229    3.6350    0.0000 O   0  0  0  0  0  0  0  0  0  0  0  0
   10.1588    1.6350    0.0000 O   0  0  0  0  0  0  0  0  0  0  0  0
   10.1588    3.6350    0.0000 O   0  0  0  0  0  0  0  0  0  0  0  0
    8.1994   -4.5286    0.0000 O   0  0  0  0  0  0  0  0  0  0  0  0
    8.4268   -1.3650    0.0000 O   0  0  0  0  0  0  0  0  0  0  0  0
   10.1588   -0.3649    0.0000 O   0  0  0  0  0  0  0  0  0  0  0  0
    9.1588    0.6351    0.0000 O   0  0  0  0  0  0  0  0  0  0  0  0
   11.1588    0.6351    0.0000 O   0  0  0  0  0  0  0  0  0  0  0  0
    9.7928   -1.7310    0.0000 O   0  0  0  0  0  0  0  0  0  0  0  0
    4.8025   -4.8194    0.0000 O   0  0  0  0  0  0  0  0  0  0  0  0
    8.7928    0.0011    0.0000 O   0  0  0  0  0  0  0  0  0  0  0  0
    2.0000   -2.7832    0.0000 O   0  0  0  0  0  0  0  0  0  0  0  0
   11.8909    4.6350    0.0000 N   0  0  0  0  0  0  0  0  0  0  0  0
    4.9836   -3.0968    0.0000 N   0  0  0  0  0  0  0  0  0  0  0  0
    3.4013   -3.8013    0.0000 N   0  0  0  0  0  0  0  0  0  0  0  0
   11.8909    3.6350    0.0000 C   0  0  1  0  0  0  0  0  0  0  0  0
   12.7569    3.1350    0.0000 C   0  0  1  0  0  0  0  0  0  0  0  0
   11.0249    3.1350    0.0000 C   0  0  2  0  0  0  0  0  0  0  0  0
   12.7569    2.1350    0.0000 C   0  0  1  0  0  0  0  0  0  0  0  0
   11.0249    2.1350    0.0000 C   0  0  2  0  0  0  0  0  0  0  0  0
    7.4562   -3.8595    0.0000 C   0  0  2  0  0  0  0  0  0  0  0  0
    7.5608   -2.8650    0.0000 C   0  0  1  0  0  0  0  0  0  0  0  0
    6.4781   -4.0674    0.0000 C   0  0  0  0  0  0  0  0  0  0  0  0
    5.9781   -3.2014    0.0000 C   0  0  1  0  0  0  0  0  0  0  0  0
   13.6229    1.6350    0.0000 C   0  0  0  0  0  0  0  0  0  0  0  0
    8.4268   -2.3650    0.0000 C   0  0  0  0  0  0  0  0  0  0  0  0
   12.7569    5.1350    0.0000 C   0  0  0  0  0  0  0  0  0  0  0  0
   11.0249    5.1350    0.0000 C   0  0  0  0  0  0  0  0  0  0  0  0
    4.5768   -2.1833    0.0000 C   0  0  0  0  0  0  0  0  0  0  0  0
    4.3958   -3.9058    0.0000 C   0  0  0  0  0  0  0  0  0  0  0  0
    3.5823   -2.0788    0.0000 C   0  0  0  0  0  0  0  0  0  0  0  0
    2.9945   -2.8878    0.0000 C   0  0  0  0  0  0  0  0  0  0  0  0
    3.1756   -1.1652    0.0000 C   0  0  0  0  0  0  0  0  0  0  0  0
   12.4278    3.9450    0.0000 H   0  0  0  0  0  0  0  0  0  0  0  0
   13.2939    2.8250    0.0000 H   0  0  0  0  0  0  0  0  0  0  0  0
   10.4879    2.8250    0.0000 H   0  0  0  0  0  0  0  0  0  0  0  0
   12.7569    1.5150    0.0000 H   0  0  0  0  0  0  0  0  0  0  0  0
   10.4879    2.4450    0.0000 H   0  0  0  0  0  0  0  0  0  0  0  0
    8.0351   -3.6373    0.0000 H   0  0  0  0  0  0  0  0  0  0  0  0
    7.5283   -2.2458    0.0000 H   0  0  0  0  0  0  0  0  0  0  0  0
    5.9117   -4.3196    0.0000 H   0  0  0  0  0  0  0  0  0  0  0  0
    6.6697   -4.6570    0.0000 H   0  0  0  0  0  0  0  0  0  0  0  0
    5.7559   -2.6225    0.0000 H   0  0  0  0  0  0  0  0  0  0  0  0
   13.3129    1.0981    0.0000 H   0  0  0  0  0  0  0  0  0  0  0  0
   14.1599    1.3250    0.0000 H   0  0  0  0  0  0  0  0  0  0  0  0
   13.9329    2.1720    0.0000 H   0  0  0  0  0  0  0  0  0  0  0  0
    8.6388   -2.9476    0.0000 H   0  0  0  0  0  0  0  0  0  0  0  0
    9.0374   -2.2573    0.0000 H   0  0  0  0  0  0  0  0  0  0  0  0
   14.1599    3.3250    0.0000 H   0  0  0  0  0  0  0  0  0  0  0  0
   13.0669    4.5981    0.0000 H   0  0  0  0  0  0  0  0  0  0  0  0
   13.2939    5.4450    0.0000 H   0  0  0  0  0  0  0  0  0  0  0  0
   12.4469    5.6720    0.0000 H   0  0  0  0  0  0  0  0  0  0  0  0
   11.3349    5.6720    0.0000 H   0  0  0  0  0  0  0  0  0  0  0  0
   10.4879    5.4450    0.0000 H   0  0  0  0  0  0  0  0  0  0  0  0
   10.7149    4.5981    0.0000 H   0  0  0  0  0  0  0  0  0  0  0  0
    9.6219    3.3250    0.0000 H   0  0  0  0  0  0  0  0  0  0  0  0
    8.0705   -5.1350    0.0000 H   0  0  0  0  0  0  0  0  0  0  0  0
    4.9413   -1.6817    0.0000 H   0  0  0  0  0  0  0  0  0  0  0  0
    3.0368   -4.3029    0.0000 H   0  0  0  0  0  0  0  0  0  0  0  0
    8.8488    1.1720    0.0000 H   0  0  0  0  0  0  0  0  0  0  0  0
    3.7420   -0.9130    0.0000 H   0  0  0  0  0  0  0  0  0  0  0  0
    2.9234   -0.5988    0.0000 H   0  0  0  0  0  0  0  0  0  0  0  0
    2.6092   -1.4174    0.0000 H   0  0  0  0  0  0  0  0  0  0  0  0
   10.4128   -1.7310    0.0000 H   0  0  0  0  0  0  0  0  0  0  0  0
  1  6  1  0  0  0  0
  1 10  1  0  0  0  0
  1 11  1  0  0  0  0
  1 12  2  0  0  0  0
  2  9  1  0  0  0  0
  2 10  1  0  0  0  0
  2 13  1  0  0  0  0
  2 15  2  0  0  0  0
  3 23  1  0  0  0  0
  3 24  1  0  0  0  0
  4 26  1  0  0  0  0
  4 28  1  0  0  0  0
 21  5  1  6  0  0  0
  5 53  1  0  0  0  0
 24  6  1  6  0  0  0
 22  7  1  6  0  0  0
  7 60  1  0  0  0  0
 25  8  1  1  0  0  0
  8 61  1  0  0  0  0
  9 30  1  0  0  0  0
 11 64  1  0  0  0  0
 13 68  1  0  0  0  0
 14 34  2  0  0  0  0
 16 36  2  0  0  0  0
 20 17  1  1  0  0  0
 17 31  1  0  0  0  0
 17 32  1  0  0  0  0
 28 18  1  6  0  0  0
 18 33  1  0  0  0  0
 18 34  1  0  0  0  0
 19 34  1  0  0  0  0
 19 36  1  0  0  0  0
 19 63  1  0  0  0  0
 20 21  1  0  0  0  0
 20 22  1  0  0  0  0
 20 38  1  0  0  0  0
 21 23  1  0  0  0  0
 21 39  1  0  0  0  0
 22 24  1  0  0  0  0
 22 40  1  0  0  0  0
 23 29  1  1  0  0  0
 23 41  1  0  0  0  0
 24 42  1  0  0  0  0
 25 26  1  0  0  0  0
 25 27  1  0  0  0  0
 25 43  1  0  0  0  0
 26 30  1  6  0  0  0
 26 44  1  0  0  0  0
 27 28  1  0  0  0  0
 27 45  1  0  0  0  0
 27 46  1  0  0  0  0
 28 47  1  0  0  0  0
 29 48  1  0  0  0  0
 29 49  1  0  0  0  0
 29 50  1  0  0  0  0
 30 51  1  0  0  0  0
 30 52  1  0  0  0  0
 31 54  1  0  0  0  0
 31 55  1  0  0  0  0
 31 56  1  0  0  0  0
 32 57  1  0  0  0  0
 32 58  1  0  0  0  0
 32 59  1  0  0  0  0
 33 35  2  0  0  0  0
 33 62  1  0  0  0  0
 35 36  1  0  0  0  0
 35 37  1  0  0  0  0
 37 65  1  0  0  0  0
 37 66  1  0  0  0  0
 37 67  1  0  0  0  0
M  END
> <PUBCHEM_COMPOUND_CID>
46173793

> <PUBCHEM_COMPOUND_CANONICALIZED>
1

> <PUBCHEM_CACTVS_COMPLEXITY>
1010

> <PUBCHEM_CACTVS_HBOND_ACCEPTOR>
15

> <PUBCHEM_CACTVS_HBOND_DONOR>
6

> <PUBCHEM_CACTVS_ROTATABLE_BOND>
9

> <PUBCHEM_CACTVS_SUBSKEYS>
AAADceB7PAMAAAAAAAAAAAAAAAAAASAAAAAkQAAAAAAAAAAAAAAAHgAQCCAADDzxgAcDCAPABxCIQgFWUICAAAAAAAAAAAEIAECTEAIAgQAOQAAPByIXAMHwcAYAAAAAAAAAAAAAAAAAAAAAAAAAAAAAAA==

> <PUBCHEM_IUPAC_OPENEYE_NAME>
[(2R,3R,4S,5S,6R)-4-(dimethylamino)-3,5-dihydroxy-6-methyl-tetrahydropyran-2-yl] [hydroxy-[[(2R,3S,5R)-3-hydroxy-5-(5-methyl-2,4-dioxo-pyrimidin-1-yl)tetrahydrofuran-2-yl]methoxy]phosphoryl] hydrogen phosphate

> <PUBCHEM_IUPAC_CAS_NAME>
[(2R,3R,4S,5S,6R)-4-(dimethylamino)-3,5-dihydroxy-6-methyl-2-oxanyl] [hydroxy-[[(2R,3S,5R)-3-hydroxy-5-(5-methyl-2,4-dioxo-1-pyrimidinyl)-2-oxolanyl]methoxy]phosphoryl] hydrogen phosphate

> <PUBCHEM_IUPAC_NAME>
[(2R,3R,4S,5S,6R)-4-(dimethylamino)-3,5-dihydroxy-6-methyloxan-2-yl] [hydroxy-[[(2R,3S,5R)-3-hydroxy-5-(5-methyl-2,4-dioxopyrimidin-1-yl)oxolan-2-yl]methoxy]phosphoryl] hydrogen phosphate

> <PUBCHEM_IUPAC_SYSTEMATIC_NAME>
[(2R,3R,4S,5S,6R)-4-(dimethylamino)-6-methyl-3,5-bis(oxidanyl)oxan-2-yl] [[(2R,3S,5R)-5-[5-methyl-2,4-bis(oxidanylidene)pyrimidin-1-yl]-3-oxidanyl-oxolan-2-yl]methoxy-oxidanyl-phosphoryl] hydrogen phosphate

> <PUBCHEM_IUPAC_TRADITIONAL_NAME>
[[(2R,3S,5R)-5-(2,4-diketo-5-methyl-pyrimidin-1-yl)-3-hydroxy-tetrahydrofuran-2-yl]methoxy-hydroxy-phosphoryl] [(2R,3R,4S,5S,6R)-4-(dimethylamino)-3,5-dihydroxy-6-methyl-tetrahydropyran-2-yl] hydrogen phosphate

> <PUBCHEM_IUPAC_INCHI>
InChI=1S/C18H31N3O14P2/c1-8-6-21(18(26)19-16(8)25)12-5-10(22)11(33-12)7-31-36(27,28)35-37(29,30)34-17-15(24)13(20(3)4)14(23)9(2)32-17/h6,9-15,17,22-24H,5,7H2,1-4H3,(H,27,28)(H,29,30)(H,19,25,26)/t9-,10+,11-,12-,13+,14-,15-,17-/m1/s1

> <PUBCHEM_IUPAC_INCHIKEY>
IJJNPDQFXCRKOA-WHRNYZGVSA-N

> <PUBCHEM_XLOGP3_AA>
-6.3

> <PUBCHEM_EXACT_MASS>
575.128126

> <PUBCHEM_MOLECULAR_FORMULA>
C18H31N3O14P2

> <PUBCHEM_MOLECULAR_WEIGHT>
575.397964

> <PUBCHEM_OPENEYE_CAN_SMILES>
CC1C(C(C(C(O1)OP(=O)(O)OP(=O)(O)OCC2C(CC(O2)N3C=C(C(=O)NC3=O)C)O)O)N(C)C)O

> <PUBCHEM_OPENEYE_ISO_SMILES>
C[C@@H]1[C@H]([C@@H]([C@H]([C@H](O1)OP(=O)(O)OP(=O)(O)OC[C@@H]2[C@H](C[C@@H](O2)N3C=C(C(=O)NC3=O)C)O)O)N(C)C)O

> <PUBCHEM_CACTVS_TPSA>
234

> <PUBCHEM_MONOISOTOPIC_WEIGHT>
575.128126

> <PUBCHEM_TOTAL_CHARGE>
0

> <PUBCHEM_HEAVY_ATOM_COUNT>
37

> <PUBCHEM_ATOM_DEF_STEREO_COUNT>
8

> <PUBCHEM_ATOM_UDEF_STEREO_COUNT>
0

> <PUBCHEM_BOND_DEF_STEREO_COUNT>
0

> <PUBCHEM_BOND_UDEF_STEREO_COUNT>
0

> <PUBCHEM_ISOTOPIC_ATOM_COUNT>
0

> <PUBCHEM_COMPONENT_COUNT>
1

> <PUBCHEM_CACTVS_TAUTO_COUNT>
3

> <PUBCHEM_COORDINATE_TYPE>
1
5
255

> <PUBCHEM_BONDANNOTATIONS>
20  17  5
28  18  6
18  33  8
18  34  8
19  34  8
19  36  8
23  29  5
26  30  6
33  35  8
35  36  8
21  5  6
24  6  6
22  7  6
25  8  5

$$$$

