5282060
  -OEChem-07051213022D

 44 48  0     0  0  0  0  0  0999 V2000
    3.3944   -1.9400    0.0000 O   0  0  0  0  0  0  0  0  0  0  0  0
    8.6610   -2.0158    0.0000 O   0  0  0  0  0  0  0  0  0  0  0  0
    2.5398   -0.4798    0.0000 O   0  0  0  0  0  0  0  0  0  0  0  0
    6.0090    2.5293    0.0000 O   0  0  0  0  0  0  0  0  0  0  0  0
    4.2781    2.5434    0.0000 O   0  0  0  0  0  0  0  0  0  0  0  0
    7.7259    2.5262    0.0000 O   0  0  0  0  0  0  0  0  0  0  0  0
    5.1158   -1.9750    0.0000 C   0  0  0  0  0  0  0  0  0  0  0  0
    5.9930   -1.5123    0.0000 C   0  0  0  0  0  0  0  0  0  0  0  0
    6.0090   -0.4707    0.0000 C   0  0  0  0  0  0  0  0  0  0  0  0
    5.1430    0.0293    0.0000 C   0  0  0  0  0  0  0  0  0  0  0  0
    6.8750    0.0293    0.0000 C   0  0  0  0  0  0  0  0  0  0  0  0
    4.2701   -1.4571    0.0000 C   0  0  0  0  0  0  0  0  0  0  0  0
    4.2835   -0.4655    0.0000 C   0  0  0  0  0  0  0  0  0  0  0  0
    5.1430    1.0292    0.0000 C   0  0  0  0  0  0  0  0  0  0  0  0
    7.7850   -0.4776    0.0000 C   0  0  0  0  0  0  0  0  0  0  0  0
    6.8750    1.0292    0.0000 C   0  0  0  0  0  0  0  0  0  0  0  0
    4.5884   -2.8246    0.0000 C   0  0  0  0  0  0  0  0  0  0  0  0
    5.5879   -2.8566    0.0000 C   0  0  0  0  0  0  0  0  0  0  0  0
    6.8910   -2.0400    0.0000 C   0  0  0  0  0  0  0  0  0  0  0  0
    6.0090    1.5292    0.0000 C   0  0  0  0  0  0  0  0  0  0  0  0
    7.7931   -1.5192    0.0000 C   0  0  0  0  0  0  0  0  0  0  0  0
    3.4011    0.0284    0.0000 C   0  0  0  0  0  0  0  0  0  0  0  0
    8.6244    0.0506    0.0000 C   0  0  0  0  0  0  0  0  0  0  0  0
    4.2722    1.5434    0.0000 C   0  0  0  0  0  0  0  0  0  0  0  0
    7.7333    1.5262    0.0000 C   0  0  0  0  0  0  0  0  0  0  0  0
    3.3954    1.0396    0.0000 C   0  0  0  0  0  0  0  0  0  0  0  0
    8.5988    1.0420    0.0000 C   0  0  0  0  0  0  0  0  0  0  0  0
    9.5059   -0.4214    0.0000 C   0  0  0  0  0  0  0  0  0  0  0  0
    4.0617   -2.4976    0.0000 H   0  0  0  0  0  0  0  0  0  0  0  0
    4.2614   -3.3514    0.0000 H   0  0  0  0  0  0  0  0  0  0  0  0
    5.1152   -3.1516    0.0000 H   0  0  0  0  0  0  0  0  0  0  0  0
    5.0413   -3.1492    0.0000 H   0  0  0  0  0  0  0  0  0  0  0  0
    5.8806   -3.4032    0.0000 H   0  0  0  0  0  0  0  0  0  0  0  0
    6.1345   -2.5639    0.0000 H   0  0  0  0  0  0  0  0  0  0  0  0
    6.8886   -2.6600    0.0000 H   0  0  0  0  0  0  0  0  0  0  0  0
    2.8579    1.3486    0.0000 H   0  0  0  0  0  0  0  0  0  0  0  0
    9.1295    1.3625    0.0000 H   0  0  0  0  0  0  0  0  0  0  0  0
    9.2133   -0.9680    0.0000 H   0  0  0  0  0  0  0  0  0  0  0  0
   10.0525   -0.7141    0.0000 H   0  0  0  0  0  0  0  0  0  0  0  0
    9.7986    0.1252    0.0000 H   0  0  0  0  0  0  0  0  0  0  0  0
    8.6634   -2.6358    0.0000 H   0  0  0  0  0  0  0  0  0  0  0  0
    2.0000   -0.1749    0.0000 H   0  0  0  0  0  0  0  0  0  0  0  0
    3.7430    2.8566    0.0000 H   0  0  0  0  0  0  0  0  0  0  0  0
    8.2605    2.8401    0.0000 H   0  0  0  0  0  0  0  0  0  0  0  0
  1 12  2  0  0  0  0
  2 21  1  0  0  0  0
  2 41  1  0  0  0  0
  3 22  1  0  0  0  0
  3 42  1  0  0  0  0
  4 20  2  0  0  0  0
  5 24  1  0  0  0  0
  5 43  1  0  0  0  0
  6 25  1  0  0  0  0
  6 44  1  0  0  0  0
  7  8  1  0  0  0  0
  7 12  1  0  0  0  0
  7 17  1  0  0  0  0
  7 18  1  0  0  0  0
  8  9  1  0  0  0  0
  8 19  2  0  0  0  0
  9 10  1  0  0  0  0
  9 11  2  0  0  0  0
 10 13  1  0  0  0  0
 10 14  2  0  0  0  0
 11 15  1  0  0  0  0
 11 16  1  0  0  0  0
 12 13  1  0  0  0  0
 13 22  2  0  0  0  0
 14 20  1  0  0  0  0
 14 24  1  0  0  0  0
 15 21  2  0  0  0  0
 15 23  1  0  0  0  0
 16 20  1  0  0  0  0
 16 25  2  0  0  0  0
 17 29  1  0  0  0  0
 17 30  1  0  0  0  0
 17 31  1  0  0  0  0
 18 32  1  0  0  0  0
 18 33  1  0  0  0  0
 18 34  1  0  0  0  0
 19 21  1  0  0  0  0
 19 35  1  0  0  0  0
 22 26  1  0  0  0  0
 23 27  2  0  0  0  0
 23 28  1  0  0  0  0
 24 26  2  0  0  0  0
 25 27  1  0  0  0  0
 26 36  1  0  0  0  0
 27 37  1  0  0  0  0
 28 38  1  0  0  0  0
 28 39  1  0  0  0  0
 28 40  1  0  0  0  0
M  END
> <PUBCHEM_COMPOUND_CID>
5282060

> <PUBCHEM_COMPOUND_CANONICALIZED>
1

> <PUBCHEM_CACTVS_COMPLEXITY>
718

> <PUBCHEM_CACTVS_HBOND_ACCEPTOR>
6

> <PUBCHEM_CACTVS_HBOND_DONOR>
4

> <PUBCHEM_CACTVS_ROTATABLE_BOND>
0

> <PUBCHEM_CACTVS_SUBSKEYS>
AAADceB4OAAAAAAAAAAAAAAAAAAAAAAAAAAwYMGDAAAAAADBVAAAGgAACAAADgSAmAAyBsAAAgCIAqBSAAACAAAkIAAAiAEGCMgIJzaCFRKAcUAl4BUImQeI7vTv4AADCAAYAADAAAYQADAAAAAAAAAAAA==

> <PUBCHEM_IUPAC_INCHI>
InChI=1S/C22H16O6/c1-7-4-9(23)15-18-13(7)10(24)5-8-14(18)19-16(20(15)27)11(25)6-12(26)17(19)21(28)22(8,2)3/h4-6,23-26H,1-3H3

> <PUBCHEM_IUPAC_INCHIKEY>
ABLACSIRCKEUOB-UHFFFAOYSA-N

> <PUBCHEM_XLOGP3_AA>
4.7

> <PUBCHEM_EXACT_MASS>
376.094688

> <PUBCHEM_MOLECULAR_FORMULA>
C22H16O6

> <PUBCHEM_MOLECULAR_WEIGHT>
376.35884

> <PUBCHEM_OPENEYE_CAN_SMILES>
CC1=CC(=C2C3=C4C(=CC(=C13)O)C(C(=O)C5=C(C=C(C(=C45)C2=O)O)O)(C)C)O

> <PUBCHEM_OPENEYE_ISO_SMILES>
CC1=CC(=C2C3=C4C(=CC(=C13)O)C(C(=O)C5=C(C=C(C(=C45)C2=O)O)O)(C)C)O

> <PUBCHEM_CACTVS_TPSA>
115

> <PUBCHEM_MONOISOTOPIC_WEIGHT>
376.094688

> <PUBCHEM_TOTAL_CHARGE>
0

> <PUBCHEM_HEAVY_ATOM_COUNT>
28

> <PUBCHEM_ATOM_DEF_STEREO_COUNT>
0

> <PUBCHEM_ATOM_UDEF_STEREO_COUNT>
0

> <PUBCHEM_BOND_DEF_STEREO_COUNT>
0

> <PUBCHEM_BOND_UDEF_STEREO_COUNT>
0

> <PUBCHEM_ISOTOPIC_ATOM_COUNT>
0

> <PUBCHEM_COMPONENT_COUNT>
1

> <PUBCHEM_CACTVS_TAUTO_COUNT>
996

> <PUBCHEM_COORDINATE_TYPE>
1
5
255

> <PUBCHEM_BONDANNOTATIONS>
10  13  8
10  14  8
11  15  8
11  16  8
13  22  8
14  24  8
15  21  8
15  23  8
16  25  8
19  21  8
22  26  8
23  27  8
24  26  8
25  27  8
8  19  8
8  9  8
9  11  8

$$$$

