   Color/Form

     * Monoclinic prisms from dilute alcohol
     * Light buff crystals; white when pure
     * Yellowish to red crystals or prisms
     * White or slightly yellow crystals or crystalline powder

   from [1]HSDB

   Odor
        Odorless
   from [2]HSDB

   Melting Point
        188.5 deg C
   from [3]HSDB

   Dissociation Constants

     * pKa1 = 2.38 @ 25 deg C
     * pKa2 = 4.85 @ 25 deg C

   from [4]HSDB

   Octanol/Water Partition Coefficient
        log Kow = 0.83
   from [5]HSDB

   pH
        pH (0.5% soln): 3.5
   from [6]HSDB

   Solubilities

     * One gram dissolves in 90 ml boiling water; in 8 ml alcohol, in 60
       ml ether. Sol in ethyl acetate, glacial acetic acid; slightly sol
       in benzene; practically insol in petroleum ether.
     * Freely soluble in alcohol.
     * Soluble in alkalis and ethane (C2H6)
     * Insoluble in chloroform
     * Soluble in oxygenated solvents
     * Slightly soluble in acetone
     * In water, 6,110 mg/liter @ 30 deg C

   from [7]HSDB

   Spectral Properties

     * Maximum absorption (water): 266 nm (absorbance of one gram per 100
       ml contained in a cell having an absorption path of one cm = 1070);
       isopropanol: 288 nm (absorbance of one gram per 100 ml contained in
       a cell having an absorption path of one cm = 137).
     * MASS: 3477 (NIST/EPA/MSDC Mass Spectral Database, 1990 Version)
     * IR: 5714 m (Coblentz Society Spectral Collection)
     * UV: 441 (Sadtler Research Laboratories Spectral Collection)
     * 1H-NMR: 6944 (Sadtler Research Laboratories Spectral Collection)

   from [8]HSDB

   Vapor Pressure
        2.8X10-4 mm Hg @ 25 deg C /Estimated/
   from [9]HSDB

   Other Chemical/Physical Properties

     * May turn slightly yellow on prolonged exposure to light and air
     * Henry's Law constant = 3.83 10-11 atm-cu m/mole @ 25 deg C
       /Estimated/
     * Hydroxyl radical reaction rate constant = 4.0X10-11 cu cm/molecule
       sec @ 25 deg C /Estimated/

   from [10]HSDB

   Computed Properties
   Molecular Weight                  137.13598 [g/mol]
   Molecular Formula                 C[7]H[7]NO[2]
   XLogP3                            0.8
   H-Bond Donor                      2
   H-Bond Acceptor                   3
   Rotatable Bond Count              1
   Tautomer Count                    3
   Exact Mass                        137.047678
   MonoIsotopic Mass                 137.047678
   Topological Polar Surface Area    63.3
   Heavy Atom Count                  10
   Formal Charge                     0
   Complexity                        128
   Isotope Atom Count                0
   Defined Atom Stereocenter Count   0
   Undefined Atom Stereocenter Count 0
   Defined Bond Stereocenter Count   0
   Undefined Bond Stereocenter Count 0
   Covalently-Bonded Unit Count      1
   Feature 3D Acceptor Count         2
   Feature 3D Donor Count            1
   Feature 3D Anion Count            1
   Feature 3D Cation Count           1
   Feature 3D Ring Count             1
   Effective Rotor Count             1
   Conformer Sampling RMSD           0.4
   CID Conformer Count               [11]2

References

   1. http://toxnet.nlm.nih.gov/cgi-bin/sis/search/r?dbs+hsdb:@term+@rn+@rel+150-13-0
   2. http://toxnet.nlm.nih.gov/cgi-bin/sis/search/r?dbs+hsdb:@term+@rn+@rel+150-13-0
   3. http://toxnet.nlm.nih.gov/cgi-bin/sis/search/r?dbs+hsdb:@term+@rn+@rel+150-13-0
   4. http://toxnet.nlm.nih.gov/cgi-bin/sis/search/r?dbs+hsdb:@term+@rn+@rel+150-13-0
   5. http://toxnet.nlm.nih.gov/cgi-bin/sis/search/r?dbs+hsdb:@term+@rn+@rel+150-13-0
   6. http://toxnet.nlm.nih.gov/cgi-bin/sis/search/r?dbs+hsdb:@term+@rn+@rel+150-13-0
   7. http://toxnet.nlm.nih.gov/cgi-bin/sis/search/r?dbs+hsdb:@term+@rn+@rel+150-13-0
   8. http://toxnet.nlm.nih.gov/cgi-bin/sis/search/r?dbs+hsdb:@term+@rn+@rel+150-13-0
   9. http://toxnet.nlm.nih.gov/cgi-bin/sis/search/r?dbs+hsdb:@term+@rn+@rel+150-13-0
  10. http://toxnet.nlm.nih.gov/cgi-bin/sis/search/r?dbs+hsdb:@term+@rn+@rel+150-13-0
  11. http://pubchem.ncbi.nlm.nih.gov/vw3d/vw3d.cgi?cid=978
