13691
  -OEChem-06241222392D

 31 30  0     1  0  0  0  0  0999 V2000
    4.5981   -2.6440    0.0000 S   0  0  0  0  0  0  0  0  0  0  0  0
    2.0000   -0.1440    0.0000 Na  0  3  0  0  0  0  0  0  0  0  0  0
    2.8660    0.3560    0.0000 O   0  5  0  0  0  0  0  0  0  0  0  0
    6.3301    0.3560    0.0000 O   0  0  0  0  0  0  0  0  0  0  0  0
    3.7321   -1.1440    0.0000 N   0  0  0  0  0  0  0  0  0  0  0  0
    5.4641   -1.1440    0.0000 N   0  0  0  0  0  0  0  0  0  0  0  0
    4.5981    0.3560    0.0000 C   0  0  3  0  0  0  0  0  0  0  0  0
    5.0981    1.2220    0.0000 C   0  0  3  0  0  0  0  0  0  0  0  0
    4.0981    1.2220    0.0000 C   0  0  0  0  0  0  0  0  0  0  0  0
    4.5981    2.0880    0.0000 C   0  0  0  0  0  0  0  0  0  0  0  0
    6.0981    1.2220    0.0000 C   0  0  0  0  0  0  0  0  0  0  0  0
    3.7321   -0.1440    0.0000 C   0  0  0  0  0  0  0  0  0  0  0  0
    5.4641   -0.1440    0.0000 C   0  0  0  0  0  0  0  0  0  0  0  0
    3.0981    1.2220    0.0000 C   0  0  0  0  0  0  0  0  0  0  0  0
    5.0981    2.9540    0.0000 C   0  0  0  0  0  0  0  0  0  0  0  0
    4.5981   -1.6440    0.0000 C   0  0  0  0  0  0  0  0  0  0  0  0
    5.4081    0.6851    0.0000 H   0  0  0  0  0  0  0  0  0  0  0  0
    4.6807    1.4340    0.0000 H   0  0  0  0  0  0  0  0  0  0  0  0
    3.9904    1.8326    0.0000 H   0  0  0  0  0  0  0  0  0  0  0  0
    4.1231    2.4865    0.0000 H   0  0  0  0  0  0  0  0  0  0  0  0
    4.1231    1.6895    0.0000 H   0  0  0  0  0  0  0  0  0  0  0  0
    6.0981    0.6020    0.0000 H   0  0  0  0  0  0  0  0  0  0  0  0
    6.7181    1.2220    0.0000 H   0  0  0  0  0  0  0  0  0  0  0  0
    6.0981    1.8420    0.0000 H   0  0  0  0  0  0  0  0  0  0  0  0
    3.0981    1.8420    0.0000 H   0  0  0  0  0  0  0  0  0  0  0  0
    2.4781    1.2220    0.0000 H   0  0  0  0  0  0  0  0  0  0  0  0
    3.0981    0.6020    0.0000 H   0  0  0  0  0  0  0  0  0  0  0  0
    5.6350    2.6440    0.0000 H   0  0  0  0  0  0  0  0  0  0  0  0
    5.4081    3.4910    0.0000 H   0  0  0  0  0  0  0  0  0  0  0  0
    4.5611    3.2640    0.0000 H   0  0  0  0  0  0  0  0  0  0  0  0
    5.1350   -2.9540    0.0000 H   0  0  0  0  0  0  0  0  0  0  0  0
  1 16  1  0  0  0  0
  1 31  1  0  0  0  0
  3 12  1  0  0  0  0
  4 13  2  0  0  0  0
  5 12  2  0  0  0  0
  5 16  1  0  0  0  0
  6 13  1  0  0  0  0
  6 16  2  0  0  0  0
  7  8  1  0  0  0  0
  7  9  1  0  0  0  0
  7 12  1  0  0  0  0
  7 13  1  0  0  0  0
  8 10  1  0  0  0  0
  8 11  1  0  0  0  0
  8 17  1  0  0  0  0
  9 14  1  0  0  0  0
  9 18  1  0  0  0  0
  9 19  1  0  0  0  0
 10 15  1  0  0  0  0
 10 20  1  0  0  0  0
 10 21  1  0  0  0  0
 11 22  1  0  0  0  0
 11 23  1  0  0  0  0
 11 24  1  0  0  0  0
 14 25  1  0  0  0  0
 14 26  1  0  0  0  0
 14 27  1  0  0  0  0
 15 28  1  0  0  0  0
 15 29  1  0  0  0  0
 15 30  1  0  0  0  0
M  CHG  2   2   1   3  -1
M  END
> <PUBCHEM_COMPOUND_CID>
13691

> <PUBCHEM_COMPOUND_CANONICALIZED>
1

> <PUBCHEM_CACTVS_COMPLEXITY>
315

> <PUBCHEM_CACTVS_HBOND_ACCEPTOR>
3

> <PUBCHEM_CACTVS_HBOND_DONOR>
1

> <PUBCHEM_CACTVS_ROTATABLE_BOND>
3

> <PUBCHEM_CACTVS_SUBSKEYS>
AAADccBzMCBAAAAAAAAAAAAAAAAAAAAAAAAgAAAAAAAAAAAAAAAAHgQAAAAADwCBgAADAAIAAAQoAAEwNAAAEAEAAAAAAAEgAAAAABYAgAAAAAAGIAAAAAGYAAAPgAAAAAAAAAAAAAAAAAAAAAAAAAAAAA==

> <PUBCHEM_IUPAC_OPENEYE_NAME>
sodium 5-ethyl-6-oxo-5-sec-butyl-2-sulfanyl-pyrimidin-4-olate

> <PUBCHEM_IUPAC_CAS_NAME>
sodium 5-butan-2-yl-5-ethyl-2-mercapto-6-oxo-4-pyrimidinolate

> <PUBCHEM_IUPAC_NAME>
sodium 5-butan-2-yl-5-ethyl-6-oxo-2-sulfanylpyrimidin-4-olate

> <PUBCHEM_IUPAC_SYSTEMATIC_NAME>
sodium 5-butan-2-yl-5-ethyl-6-oxidanylidene-2-sulfanyl-pyrimidin-4-olate

> <PUBCHEM_IUPAC_TRADITIONAL_NAME>
sodium 5-ethyl-6-keto-2-mercapto-5-sec-butyl-pyrimidin-4-olate

> <PUBCHEM_IUPAC_INCHI>
InChI=1S/C10H16N2O2S.Na/c1-4-6(3)10(5-2)7(13)11-9(15)12-8(10)14;/h6H,4-5H2,1-3H3,(H2,11,12,13,14,15);/q;+1/p-1

> <PUBCHEM_IUPAC_INCHIKEY>
SLZHLQUFNFXTHB-UHFFFAOYSA-M

> <PUBCHEM_EXACT_MASS>
250.075193

> <PUBCHEM_MOLECULAR_FORMULA>
C10H15N2NaO2S

> <PUBCHEM_MOLECULAR_WEIGHT>
250.293069

> <PUBCHEM_OPENEYE_CAN_SMILES>
CCC(C)C1(C(=NC(=NC1=O)S)[O-])CC.[Na+]

> <PUBCHEM_OPENEYE_ISO_SMILES>
CCC(C)C1(C(=NC(=NC1=O)S)[O-])CC.[Na+]

> <PUBCHEM_CACTVS_TPSA>
65.8

> <PUBCHEM_MONOISOTOPIC_WEIGHT>
250.075193

> <PUBCHEM_TOTAL_CHARGE>
0

> <PUBCHEM_HEAVY_ATOM_COUNT>
16

> <PUBCHEM_ATOM_DEF_STEREO_COUNT>
0

> <PUBCHEM_ATOM_UDEF_STEREO_COUNT>
2

> <PUBCHEM_BOND_DEF_STEREO_COUNT>
0

> <PUBCHEM_BOND_UDEF_STEREO_COUNT>
0

> <PUBCHEM_ISOTOPIC_ATOM_COUNT>
0

> <PUBCHEM_COMPONENT_COUNT>
2

> <PUBCHEM_CACTVS_TAUTO_COUNT>
3

> <PUBCHEM_COORDINATE_TYPE>
1
5
255

> <PUBCHEM_BONDANNOTATIONS>
7  9  3
8  11  3

$$$$

