14677
  -OEChem-07051212532D

 41 44  0     1  0  0  0  0  0999 V2000
    4.6660   -2.3339    0.0000 S   0  0  0  0  0  0  0  0  0  0  0  0
    7.1147    1.5025    0.0000 N   0  0  3  0  0  0  0  0  0  0  0  0
    4.6660   -0.3339    0.0000 N   0  0  0  0  0  0  0  0  0  0  0  0
    5.5321    1.1661    0.0000 C   0  0  3  0  0  0  0  0  0  0  0  0
    5.6366    2.1606    0.0000 C   0  0  0  0  0  0  0  0  0  0  0  0
    6.4456    0.7594    0.0000 C   0  0  0  0  0  0  0  0  0  0  0  0
    6.6147    2.3686    0.0000 C   0  0  0  0  0  0  0  0  0  0  0  0
    4.6660    0.6661    0.0000 C   0  0  0  0  0  0  0  0  0  0  0  0
    8.1093    1.3980    0.0000 C   0  0  0  0  0  0  0  0  0  0  0  0
    5.5321   -0.8339    0.0000 C   0  0  0  0  0  0  0  0  0  0  0  0
    3.8000   -0.8339    0.0000 C   0  0  0  0  0  0  0  0  0  0  0  0
    5.5321   -1.8339    0.0000 C   0  0  0  0  0  0  0  0  0  0  0  0
    3.8000   -1.8339    0.0000 C   0  0  0  0  0  0  0  0  0  0  0  0
    6.4260   -0.2992    0.0000 C   0  0  0  0  0  0  0  0  0  0  0  0
    2.9061   -0.2992    0.0000 C   0  0  0  0  0  0  0  0  0  0  0  0
    6.4260   -2.3686    0.0000 C   0  0  0  0  0  0  0  0  0  0  0  0
    2.9061   -2.3686    0.0000 C   0  0  0  0  0  0  0  0  0  0  0  0
    2.0000   -0.8131    0.0000 C   0  0  0  0  0  0  0  0  0  0  0  0
    7.3321   -0.8131    0.0000 C   0  0  0  0  0  0  0  0  0  0  0  0
    7.3321   -1.8547    0.0000 C   0  0  0  0  0  0  0  0  0  0  0  0
    2.0000   -1.8547    0.0000 C   0  0  0  0  0  0  0  0  0  0  0  0
    5.5645    0.5470    0.0000 H   0  0  0  0  0  0  0  0  0  0  0  0
    5.5718    2.7772    0.0000 H   0  0  0  0  0  0  0  0  0  0  0  0
    5.0166    2.1606    0.0000 H   0  0  0  0  0  0  0  0  0  0  0  0
    6.1356    0.2224    0.0000 H   0  0  0  0  0  0  0  0  0  0  0  0
    6.9472    0.3950    0.0000 H   0  0  0  0  0  0  0  0  0  0  0  0
    7.1811    2.6207    0.0000 H   0  0  0  0  0  0  0  0  0  0  0  0
    6.4231    2.9582    0.0000 H   0  0  0  0  0  0  0  0  0  0  0  0
    4.4540    1.2487    0.0000 H   0  0  0  0  0  0  0  0  0  0  0  0
    4.0555    0.5585    0.0000 H   0  0  0  0  0  0  0  0  0  0  0  0
    8.0444    0.7814    0.0000 H   0  0  0  0  0  0  0  0  0  0  0  0
    8.7259    1.3332    0.0000 H   0  0  0  0  0  0  0  0  0  0  0  0
    8.1741    2.0146    0.0000 H   0  0  0  0  0  0  0  0  0  0  0  0
    6.4188    0.3207    0.0000 H   0  0  0  0  0  0  0  0  0  0  0  0
    2.9132    0.3207    0.0000 H   0  0  0  0  0  0  0  0  0  0  0  0
    6.4188   -2.9885    0.0000 H   0  0  0  0  0  0  0  0  0  0  0  0
    2.9132   -2.9885    0.0000 H   0  0  0  0  0  0  0  0  0  0  0  0
    1.4643   -0.5010    0.0000 H   0  0  0  0  0  0  0  0  0  0  0  0
    7.8678   -0.5010    0.0000 H   0  0  0  0  0  0  0  0  0  0  0  0
    1.4643   -2.1668    0.0000 H   0  0  0  0  0  0  0  0  0  0  0  0
    7.8678   -2.1668    0.0000 H   0  0  0  0  0  0  0  0  0  0  0  0
  1 12  1  0  0  0  0
  1 13  1  0  0  0  0
  2  6  1  0  0  0  0
  2  7  1  0  0  0  0
  2  9  1  0  0  0  0
  3  8  1  0  0  0  0
  3 10  1  0  0  0  0
  3 11  1  0  0  0  0
  4  5  1  0  0  0  0
  4  6  1  0  0  0  0
  4  8  1  0  0  0  0
  4 22  1  0  0  0  0
  5  7  1  0  0  0  0
  5 23  1  0  0  0  0
  5 24  1  0  0  0  0
  6 25  1  0  0  0  0
  6 26  1  0  0  0  0
  7 27  1  0  0  0  0
  7 28  1  0  0  0  0
  8 29  1  0  0  0  0
  8 30  1  0  0  0  0
  9 31  1  0  0  0  0
  9 32  1  0  0  0  0
  9 33  1  0  0  0  0
 10 12  1  0  0  0  0
 10 14  2  0  0  0  0
 11 13  1  0  0  0  0
 11 15  2  0  0  0  0
 12 16  2  0  0  0  0
 13 17  2  0  0  0  0
 14 19  1  0  0  0  0
 14 34  1  0  0  0  0
 15 18  1  0  0  0  0
 15 35  1  0  0  0  0
 16 20  1  0  0  0  0
 16 36  1  0  0  0  0
 17 21  1  0  0  0  0
 17 37  1  0  0  0  0
 18 21  2  0  0  0  0
 18 38  1  0  0  0  0
 19 20  2  0  0  0  0
 19 39  1  0  0  0  0
 20 41  1  0  0  0  0
 21 40  1  0  0  0  0
M  END
> <PUBCHEM_COMPOUND_CID>
14677

> <PUBCHEM_COMPOUND_CANONICALIZED>
1

> <PUBCHEM_CACTVS_COMPLEXITY>
339

> <PUBCHEM_CACTVS_HBOND_ACCEPTOR>
3

> <PUBCHEM_CACTVS_HBOND_DONOR>
0

> <PUBCHEM_CACTVS_ROTATABLE_BOND>
2

> <PUBCHEM_CACTVS_SUBSKEYS>
AAADceB7AABAAAAAAAAAAAAAAAAAAWAAAAA8YIAAAAAAAACxQAAAHAQAAAAADQjBUAQywYMAAAiAACRCQACCAAAhChAIiBwIZIgIIGLg0ZGEIAhggADoyAcQAAAIAAAAAAAAAQAAAAAAAAACAAAAAAAAAA==

> <PUBCHEM_IUPAC_OPENEYE_NAME>
10-[(1-methylpyrrolidin-3-yl)methyl]phenothiazine

> <PUBCHEM_IUPAC_CAS_NAME>
10-[(1-methyl-3-pyrrolidinyl)methyl]phenothiazine

> <PUBCHEM_IUPAC_NAME>
10-[(1-methylpyrrolidin-3-yl)methyl]phenothiazine

> <PUBCHEM_IUPAC_SYSTEMATIC_NAME>
10-[(1-methylpyrrolidin-3-yl)methyl]phenothiazine

> <PUBCHEM_IUPAC_TRADITIONAL_NAME>
10-[(1-methylpyrrolidin-3-yl)methyl]phenothiazine

> <PUBCHEM_IUPAC_INCHI>
InChI=1S/C18H20N2S/c1-19-11-10-14(12-19)13-20-15-6-2-4-8-17(15)21-18-9-5-3-7-16(18)20/h2-9,14H,10-13H2,1H3

> <PUBCHEM_IUPAC_INCHIKEY>
HTMIBDQKFHUPSX-UHFFFAOYSA-N

> <PUBCHEM_XLOGP3>
5.2

> <PUBCHEM_EXACT_MASS>
296.13472

> <PUBCHEM_MOLECULAR_FORMULA>
C18H20N2S

> <PUBCHEM_MOLECULAR_WEIGHT>
296.4298

> <PUBCHEM_OPENEYE_CAN_SMILES>
CN1CCC(C1)CN2C3=CC=CC=C3SC4=CC=CC=C42

> <PUBCHEM_OPENEYE_ISO_SMILES>
CN1CCC(C1)CN2C3=CC=CC=C3SC4=CC=CC=C42

> <PUBCHEM_CACTVS_TPSA>
31.8

> <PUBCHEM_MONOISOTOPIC_WEIGHT>
296.13472

> <PUBCHEM_TOTAL_CHARGE>
0

> <PUBCHEM_HEAVY_ATOM_COUNT>
21

> <PUBCHEM_ATOM_DEF_STEREO_COUNT>
0

> <PUBCHEM_ATOM_UDEF_STEREO_COUNT>
1

> <PUBCHEM_BOND_DEF_STEREO_COUNT>
0

> <PUBCHEM_BOND_UDEF_STEREO_COUNT>
0

> <PUBCHEM_ISOTOPIC_ATOM_COUNT>
0

> <PUBCHEM_COMPONENT_COUNT>
1

> <PUBCHEM_CACTVS_TAUTO_COUNT>
1

> <PUBCHEM_COORDINATE_TYPE>
1
5
255

> <PUBCHEM_BONDANNOTATIONS>
10  12  8
10  14  8
11  13  8
11  15  8
12  16  8
13  17  8
14  19  8
15  18  8
16  20  8
17  21  8
18  21  8
19  20  8
4  8  3

$$$$

