17395400
  -OEChem-06241222502D

 51 55  0     0  0  0  0  0  0999 V2000
    9.5920    1.5000    0.0000 O   0  0  0  0  0  0  0  0  0  0  0  0
    2.5836   -1.3047    0.0000 O   0  0  0  0  0  0  0  0  0  0  0  0
    2.5836    0.3047    0.0000 O   0  0  0  0  0  0  0  0  0  0  0  0
    6.9939   -1.0000    0.0000 N   0  0  0  0  0  0  0  0  0  0  0  0
    8.7260    0.0000    0.0000 N   0  0  0  0  0  0  0  0  0  0  0  0
    7.8600   -1.5000    0.0000 C   0  0  0  0  0  0  0  0  0  0  0  0
    6.9939    0.0000    0.0000 C   0  0  0  0  0  0  0  0  0  0  0  0
    8.7260   -1.0000    0.0000 C   0  0  0  0  0  0  0  0  0  0  0  0
    7.8600    0.5000    0.0000 C   0  0  0  0  0  0  0  0  0  0  0  0
    6.1279   -1.5000    0.0000 C   0  0  0  0  0  0  0  0  0  0  0  0
   12.1901    0.0000    0.0000 C   0  0  0  0  0  0  0  0  0  0  0  0
   13.1363    0.3047    0.0000 C   0  0  0  0  0  0  0  0  0  0  0  0
   13.7199   -0.5000    0.0000 C   0  0  0  0  0  0  0  0  0  0  0  0
   13.1363   -1.3047    0.0000 C   0  0  0  0  0  0  0  0  0  0  0  0
   12.1901   -1.0000    0.0000 C   0  0  0  0  0  0  0  0  0  0  0  0
    9.5920    0.5000    0.0000 C   0  0  0  0  0  0  0  0  0  0  0  0
   10.4580    0.0000    0.0000 C   0  0  0  0  0  0  0  0  0  0  0  0
   11.3241    0.5000    0.0000 C   0  0  0  0  0  0  0  0  0  0  0  0
    5.2619   -1.0000    0.0000 C   0  0  0  0  0  0  0  0  0  0  0  0
   11.3241   -1.5000    0.0000 C   0  0  0  0  0  0  0  0  0  0  0  0
   10.4580   -1.0000    0.0000 C   0  0  0  0  0  0  0  0  0  0  0  0
    4.3958   -1.5000    0.0000 C   0  0  0  0  0  0  0  0  0  0  0  0
    5.2619    0.0000    0.0000 C   0  0  0  0  0  0  0  0  0  0  0  0
    3.5298   -1.0000    0.0000 C   0  0  0  0  0  0  0  0  0  0  0  0
    3.5298    0.0000    0.0000 C   0  0  0  0  0  0  0  0  0  0  0  0
    4.3958    0.5000    0.0000 C   0  0  0  0  0  0  0  0  0  0  0  0
    2.0000   -0.5000    0.0000 C   0  0  0  0  0  0  0  0  0  0  0  0
    6.7819    0.5826    0.0000 H   0  0  0  0  0  0  0  0  0  0  0  0
    6.3834   -0.1077    0.0000 H   0  0  0  0  0  0  0  0  0  0  0  0
    7.4614   -1.9750    0.0000 H   0  0  0  0  0  0  0  0  0  0  0  0
    8.2585   -1.9750    0.0000 H   0  0  0  0  0  0  0  0  0  0  0  0
    8.9380   -1.5826    0.0000 H   0  0  0  0  0  0  0  0  0  0  0  0
    9.3366   -0.8923    0.0000 H   0  0  0  0  0  0  0  0  0  0  0  0
    8.2585    0.9749    0.0000 H   0  0  0  0  0  0  0  0  0  0  0  0
    7.4614    0.9749    0.0000 H   0  0  0  0  0  0  0  0  0  0  0  0
    5.7294   -1.9750    0.0000 H   0  0  0  0  0  0  0  0  0  0  0  0
    6.5264   -1.9750    0.0000 H   0  0  0  0  0  0  0  0  0  0  0  0
   13.6737    0.6140    0.0000 H   0  0  0  0  0  0  0  0  0  0  0  0
   12.8853    0.8716    0.0000 H   0  0  0  0  0  0  0  0  0  0  0  0
   14.1808   -0.9147    0.0000 H   0  0  0  0  0  0  0  0  0  0  0  0
   14.1808   -0.0853    0.0000 H   0  0  0  0  0  0  0  0  0  0  0  0
   12.8853   -1.8716    0.0000 H   0  0  0  0  0  0  0  0  0  0  0  0
   13.6737   -1.6140    0.0000 H   0  0  0  0  0  0  0  0  0  0  0  0
   11.3241    1.1200    0.0000 H   0  0  0  0  0  0  0  0  0  0  0  0
   11.3241   -2.1200    0.0000 H   0  0  0  0  0  0  0  0  0  0  0  0
    9.9211   -1.3100    0.0000 H   0  0  0  0  0  0  0  0  0  0  0  0
    4.3958   -2.1200    0.0000 H   0  0  0  0  0  0  0  0  0  0  0  0
    5.7988    0.3100    0.0000 H   0  0  0  0  0  0  0  0  0  0  0  0
    4.3958    1.1200    0.0000 H   0  0  0  0  0  0  0  0  0  0  0  0
    1.5391   -0.0853    0.0000 H   0  0  0  0  0  0  0  0  0  0  0  0
    1.5391   -0.9147    0.0000 H   0  0  0  0  0  0  0  0  0  0  0  0
  1 16  2  0  0  0  0
  2 24  1  0  0  0  0
  2 27  1  0  0  0  0
  3 25  1  0  0  0  0
  3 27  1  0  0  0  0
  4  6  1  0  0  0  0
  4  7  1  0  0  0  0
  4 10  1  0  0  0  0
  5  8  1  0  0  0  0
  5  9  1  0  0  0  0
  5 16  1  0  0  0  0
  6  8  1  0  0  0  0
  6 30  1  0  0  0  0
  6 31  1  0  0  0  0
  7  9  1  0  0  0  0
  7 28  1  0  0  0  0
  7 29  1  0  0  0  0
  8 32  1  0  0  0  0
  8 33  1  0  0  0  0
  9 34  1  0  0  0  0
  9 35  1  0  0  0  0
 10 19  1  0  0  0  0
 10 36  1  0  0  0  0
 10 37  1  0  0  0  0
 11 12  1  0  0  0  0
 11 15  2  0  0  0  0
 11 18  1  0  0  0  0
 12 13  1  0  0  0  0
 12 38  1  0  0  0  0
 12 39  1  0  0  0  0
 13 14  1  0  0  0  0
 13 40  1  0  0  0  0
 13 41  1  0  0  0  0
 14 15  1  0  0  0  0
 14 42  1  0  0  0  0
 14 43  1  0  0  0  0
 15 20  1  0  0  0  0
 16 17  1  0  0  0  0
 17 18  2  0  0  0  0
 17 21  1  0  0  0  0
 18 44  1  0  0  0  0
 19 22  2  0  0  0  0
 19 23  1  0  0  0  0
 20 21  2  0  0  0  0
 20 45  1  0  0  0  0
 21 46  1  0  0  0  0
 22 24  1  0  0  0  0
 22 47  1  0  0  0  0
 23 26  2  0  0  0  0
 23 48  1  0  0  0  0
 24 25  2  0  0  0  0
 25 26  1  0  0  0  0
 26 49  1  0  0  0  0
 27 50  1  0  0  0  0
 27 51  1  0  0  0  0
M  END
> <PUBCHEM_COMPOUND_CID>
17395400

> <PUBCHEM_COMPOUND_CANONICALIZED>
1

> <PUBCHEM_CACTVS_COMPLEXITY>
534

> <PUBCHEM_CACTVS_HBOND_ACCEPTOR>
4

> <PUBCHEM_CACTVS_HBOND_DONOR>
0

> <PUBCHEM_CACTVS_ROTATABLE_BOND>
3

> <PUBCHEM_CACTVS_SUBSKEYS>
AAADceB7MAAAAAAAAAAAAAAAAAAAAaIAAAA8YIAAAAAAAGgBQAAAHgAAAAAADATBmAcwDoMABACIAiFSEACCCAAkIAAIiAEOjMgdZjKEtRu0MSpkxhGOqYe42NKO4AADAAAQQADAAAYAACCAAAAACAAAAA==

> <PUBCHEM_IUPAC_OPENEYE_NAME>
[4-(1,3-benzodioxol-5-ylmethyl)piperazin-1-yl]-indan-5-yl-methanone

> <PUBCHEM_IUPAC_CAS_NAME>
[4-(1,3-benzodioxol-5-ylmethyl)-1-piperazinyl]-(2,3-dihydro-1H-inden-5-yl)methanone

> <PUBCHEM_IUPAC_NAME>
[4-(1,3-benzodioxol-5-ylmethyl)piperazin-1-yl]-(2,3-dihydro-1H-inden-5-yl)methanone

> <PUBCHEM_IUPAC_SYSTEMATIC_NAME>
[4-(1,3-benzodioxol-5-ylmethyl)piperazin-1-yl]-(2,3-dihydro-1H-inden-5-yl)methanone

> <PUBCHEM_IUPAC_TRADITIONAL_NAME>
indan-5-yl-(4-piperonylpiperazino)methanone

> <PUBCHEM_IUPAC_INCHI>
InChI=1S/C22H24N2O3/c25-22(19-6-5-17-2-1-3-18(17)13-19)24-10-8-23(9-11-24)14-16-4-7-20-21(12-16)27-15-26-20/h4-7,12-13H,1-3,8-11,14-15H2

> <PUBCHEM_IUPAC_INCHIKEY>
VXZUQSULDUEIKJ-UHFFFAOYSA-N

> <PUBCHEM_XLOGP3_AA>
3.3

> <PUBCHEM_EXACT_MASS>
364.178693

> <PUBCHEM_MOLECULAR_FORMULA>
C22H24N2O3

> <PUBCHEM_MOLECULAR_WEIGHT>
364.43756

> <PUBCHEM_OPENEYE_CAN_SMILES>
C1CC2=C(C1)C=C(C=C2)C(=O)N3CCN(CC3)CC4=CC5=C(C=C4)OCO5

> <PUBCHEM_OPENEYE_ISO_SMILES>
C1CC2=C(C1)C=C(C=C2)C(=O)N3CCN(CC3)CC4=CC5=C(C=C4)OCO5

> <PUBCHEM_CACTVS_TPSA>
42

> <PUBCHEM_MONOISOTOPIC_WEIGHT>
364.178693

> <PUBCHEM_TOTAL_CHARGE>
0

> <PUBCHEM_HEAVY_ATOM_COUNT>
27

> <PUBCHEM_ATOM_DEF_STEREO_COUNT>
0

> <PUBCHEM_ATOM_UDEF_STEREO_COUNT>
0

> <PUBCHEM_BOND_DEF_STEREO_COUNT>
0

> <PUBCHEM_BOND_UDEF_STEREO_COUNT>
0

> <PUBCHEM_ISOTOPIC_ATOM_COUNT>
0

> <PUBCHEM_COMPONENT_COUNT>
1

> <PUBCHEM_CACTVS_TAUTO_COUNT>
3

> <PUBCHEM_COORDINATE_TYPE>
1
5
255

> <PUBCHEM_BONDANNOTATIONS>
11  15  8
11  18  8
15  20  8
17  18  8
17  21  8
19  22  8
19  23  8
20  21  8
22  24  8
23  26  8
24  25  8
25  26  8

$$$$

