443373
  -OEChem-07051213022D

 39 41  0     0  0  0  0  0  0999 V2000
    3.0000   -2.2694    0.0000 S   0  0  0  0  0  0  0  0  0  0  0  0
    7.6132    1.0823    0.0000 F   0  0  0  0  0  0  0  0  0  0  0  0
    2.0000   -2.2694    0.0000 O   0  0  0  0  0  0  0  0  0  0  0  0
    4.0000   -2.2694    0.0000 O   0  0  0  0  0  0  0  0  0  0  0  0
    2.5000    3.2694    0.0000 C   0  0  0  0  0  0  0  0  0  0  0  0
    2.1910    2.3184    0.0000 C   0  0  0  0  0  0  0  0  0  0  0  0
    3.5000    3.2694    0.0000 C   0  0  0  0  0  0  0  0  0  0  0  0
    3.0000    1.7306    0.0000 C   0  0  0  0  0  0  0  0  0  0  0  0
    3.8090    2.3184    0.0000 C   0  0  0  0  0  0  0  0  0  0  0  0
    3.0000    0.7306    0.0000 C   0  0  0  0  0  0  0  0  0  0  0  0
    4.7601    2.0094    0.0000 C   0  0  0  0  0  0  0  0  0  0  0  0
    2.1340    0.2306    0.0000 C   0  0  0  0  0  0  0  0  0  0  0  0
    3.8660    0.2306    0.0000 C   0  0  0  0  0  0  0  0  0  0  0  0
    3.0000   -1.2694    0.0000 C   0  0  0  0  0  0  0  0  0  0  0  0
    4.9680    1.0312    0.0000 C   0  0  0  0  0  0  0  0  0  0  0  0
    5.5032    2.6785    0.0000 C   0  0  0  0  0  0  0  0  0  0  0  0
    2.1340   -0.7694    0.0000 C   0  0  0  0  0  0  0  0  0  0  0  0
    3.8660   -0.7694    0.0000 C   0  0  0  0  0  0  0  0  0  0  0  0
    5.9190    0.7222    0.0000 C   0  0  0  0  0  0  0  0  0  0  0  0
    6.4543    2.3695    0.0000 C   0  0  0  0  0  0  0  0  0  0  0  0
    6.6622    1.3913    0.0000 C   0  0  0  0  0  0  0  0  0  0  0  0
    3.0000   -3.2694    0.0000 C   0  0  0  0  0  0  0  0  0  0  0  0
    2.5648    3.8860    0.0000 H   0  0  0  0  0  0  0  0  0  0  0  0
    1.8936    3.3983    0.0000 H   0  0  0  0  0  0  0  0  0  0  0  0
    1.6246    2.5705    0.0000 H   0  0  0  0  0  0  0  0  0  0  0  0
    1.8810    1.7814    0.0000 H   0  0  0  0  0  0  0  0  0  0  0  0
    4.1064    3.3983    0.0000 H   0  0  0  0  0  0  0  0  0  0  0  0
    3.4352    3.8860    0.0000 H   0  0  0  0  0  0  0  0  0  0  0  0
    1.5970    0.5406    0.0000 H   0  0  0  0  0  0  0  0  0  0  0  0
    4.4030    0.5406    0.0000 H   0  0  0  0  0  0  0  0  0  0  0  0
    4.5072    0.6163    0.0000 H   0  0  0  0  0  0  0  0  0  0  0  0
    5.3743    3.2849    0.0000 H   0  0  0  0  0  0  0  0  0  0  0  0
    1.5970   -1.0794    0.0000 H   0  0  0  0  0  0  0  0  0  0  0  0
    4.4030   -1.0794    0.0000 H   0  0  0  0  0  0  0  0  0  0  0  0
    6.0480    0.1157    0.0000 H   0  0  0  0  0  0  0  0  0  0  0  0
    6.9150    2.7843    0.0000 H   0  0  0  0  0  0  0  0  0  0  0  0
    2.3800   -3.2694    0.0000 H   0  0  0  0  0  0  0  0  0  0  0  0
    3.0000   -3.8894    0.0000 H   0  0  0  0  0  0  0  0  0  0  0  0
    3.6200   -3.2694    0.0000 H   0  0  0  0  0  0  0  0  0  0  0  0
  1  3  2  0  0  0  0
  1  4  2  0  0  0  0
  1 14  1  0  0  0  0
  1 22  1  0  0  0  0
  2 21  1  0  0  0  0
  5  6  1  0  0  0  0
  5  7  1  0  0  0  0
  5 23  1  0  0  0  0
  5 24  1  0  0  0  0
  6  8  1  0  0  0  0
  6 25  1  0  0  0  0
  6 26  1  0  0  0  0
  7  9  1  0  0  0  0
  7 27  1  0  0  0  0
  7 28  1  0  0  0  0
  8  9  2  0  0  0  0
  8 10  1  0  0  0  0
  9 11  1  0  0  0  0
 10 12  2  0  0  0  0
 10 13  1  0  0  0  0
 11 15  2  0  0  0  0
 11 16  1  0  0  0  0
 12 17  1  0  0  0  0
 12 29  1  0  0  0  0
 13 18  2  0  0  0  0
 13 30  1  0  0  0  0
 14 17  2  0  0  0  0
 14 18  1  0  0  0  0
 15 19  1  0  0  0  0
 15 31  1  0  0  0  0
 16 20  2  0  0  0  0
 16 32  1  0  0  0  0
 17 33  1  0  0  0  0
 18 34  1  0  0  0  0
 19 21  2  0  0  0  0
 19 35  1  0  0  0  0
 20 21  1  0  0  0  0
 20 36  1  0  0  0  0
 22 37  1  0  0  0  0
 22 38  1  0  0  0  0
 22 39  1  0  0  0  0
M  END
> <PUBCHEM_COMPOUND_CID>
443373

> <PUBCHEM_COMPOUND_CANONICALIZED>
1

> <PUBCHEM_CACTVS_COMPLEXITY>
516

> <PUBCHEM_CACTVS_HBOND_ACCEPTOR>
3

> <PUBCHEM_CACTVS_HBOND_DONOR>
0

> <PUBCHEM_CACTVS_ROTATABLE_BOND>
3

> <PUBCHEM_CACTVS_SUBSKEYS>
AAADceB4MQBAAAAAAAAAAAAAAAAAAQAAAAAwYAAAAAAAAAABQAAAGQQAAAAADACAWAiyAYAAAAqAAiBCAHBCAAAgCBAIiBgAAIgIICKgERCAIAAggAAIiAcAgMAOEAAAAAAAAAAgAAAAAAAAAAAAAAAAAA==

> <PUBCHEM_IUPAC_OPENEYE_NAME>
1-fluoro-4-[2-(4-methylsulfonylphenyl)cyclopenten-1-yl]benzene

> <PUBCHEM_IUPAC_CAS_NAME>
1-fluoro-4-[2-(4-methylsulfonylphenyl)-1-cyclopentenyl]benzene

> <PUBCHEM_IUPAC_NAME>
1-fluoro-4-[2-(4-methylsulfonylphenyl)cyclopenten-1-yl]benzene

> <PUBCHEM_IUPAC_SYSTEMATIC_NAME>
1-fluoranyl-4-[2-(4-methylsulfonylphenyl)cyclopenten-1-yl]benzene

> <PUBCHEM_IUPAC_TRADITIONAL_NAME>
1-fluoro-4-[2-(4-mesylphenyl)cyclopenten-1-yl]benzene

> <PUBCHEM_IUPAC_INCHI>
InChI=1S/C18H17FO2S/c1-22(20,21)16-11-7-14(8-12-16)18-4-2-3-17(18)13-5-9-15(19)10-6-13/h5-12H,2-4H2,1H3

> <PUBCHEM_IUPAC_INCHIKEY>
GJGZQTGPOKPFES-UHFFFAOYSA-N

> <PUBCHEM_XLOGP3_AA>
3.6

> <PUBCHEM_EXACT_MASS>
316.093329

> <PUBCHEM_MOLECULAR_FORMULA>
C18H17FO2S

> <PUBCHEM_MOLECULAR_WEIGHT>
316.389783

> <PUBCHEM_OPENEYE_CAN_SMILES>
CS(=O)(=O)C1=CC=C(C=C1)C2=C(CCC2)C3=CC=C(C=C3)F

> <PUBCHEM_OPENEYE_ISO_SMILES>
CS(=O)(=O)C1=CC=C(C=C1)C2=C(CCC2)C3=CC=C(C=C3)F

> <PUBCHEM_CACTVS_TPSA>
42.5

> <PUBCHEM_MONOISOTOPIC_WEIGHT>
316.093329

> <PUBCHEM_TOTAL_CHARGE>
0

> <PUBCHEM_HEAVY_ATOM_COUNT>
22

> <PUBCHEM_ATOM_DEF_STEREO_COUNT>
0

> <PUBCHEM_ATOM_UDEF_STEREO_COUNT>
0

> <PUBCHEM_BOND_DEF_STEREO_COUNT>
0

> <PUBCHEM_BOND_UDEF_STEREO_COUNT>
0

> <PUBCHEM_ISOTOPIC_ATOM_COUNT>
0

> <PUBCHEM_COMPONENT_COUNT>
1

> <PUBCHEM_CACTVS_TAUTO_COUNT>
1

> <PUBCHEM_COORDINATE_TYPE>
1
5
255

> <PUBCHEM_BONDANNOTATIONS>
10  12  8
10  13  8
11  15  8
11  16  8
12  17  8
13  18  8
14  17  8
14  18  8
15  19  8
16  20  8
19  21  8
20  21  8

$$$$

