3352
  -OEChem-07051213012D

 30 31  0     1  0  0  0  0  0999 V2000
    2.0000   -0.5875    0.0000 Cl  0  0  0  0  0  0  0  0  0  0  0  0
    5.4641   -0.5875    0.0000 Cl  0  0  0  0  0  0  0  0  0  0  0  0
    4.8198    2.7604    0.0000 S   0  0  3  0  0  0  0  0  0  0  0  0
    3.7320   -4.5875    0.0000 F   0  0  0  0  0  0  0  0  0  0  0  0
    2.7320   -3.5875    0.0000 F   0  0  0  0  0  0  0  0  0  0  0  0
    4.7320   -3.5875    0.0000 F   0  0  0  0  0  0  0  0  0  0  0  0
    4.0064    4.5875    0.0000 F   0  0  0  0  0  0  0  0  0  0  0  0
    5.3266    4.0807    0.0000 F   0  0  0  0  0  0  0  0  0  0  0  0
    3.4996    3.2672    0.0000 F   0  0  0  0  0  0  0  0  0  0  0  0
    5.8144    2.6559    0.0000 O   0  0  0  0  0  0  0  0  0  0  0  0
    3.7320    0.4125    0.0000 N   0  0  0  0  0  0  0  0  0  0  0  0
    2.9230    1.0003    0.0000 N   0  0  0  0  0  0  0  0  0  0  0  0
    5.4921    0.6913    0.0000 N   0  0  0  0  0  0  0  0  0  0  0  0
    2.0565    3.5694    0.0000 N   0  0  0  0  0  0  0  0  0  0  0  0
    3.7320   -0.5875    0.0000 C   0  0  0  0  0  0  0  0  0  0  0  0
    4.5411    1.0003    0.0000 C   0  0  0  0  0  0  0  0  0  0  0  0
    4.2320    1.9514    0.0000 C   0  0  0  0  0  0  0  0  0  0  0  0
    3.2320    1.9514    0.0000 C   0  0  0  0  0  0  0  0  0  0  0  0
    2.8660   -1.0875    0.0000 C   0  0  0  0  0  0  0  0  0  0  0  0
    4.5981   -1.0875    0.0000 C   0  0  0  0  0  0  0  0  0  0  0  0
    3.7320   -2.5875    0.0000 C   0  0  0  0  0  0  0  0  0  0  0  0
    2.8660   -2.0875    0.0000 C   0  0  0  0  0  0  0  0  0  0  0  0
    4.5981   -2.0875    0.0000 C   0  0  0  0  0  0  0  0  0  0  0  0
    3.7320   -3.5875    0.0000 C   0  0  0  0  0  0  0  0  0  0  0  0
    4.4131    3.6739    0.0000 C   0  0  0  0  0  0  0  0  0  0  0  0
    2.6443    2.7604    0.0000 C   0  0  0  0  0  0  0  0  0  0  0  0
    2.3291   -2.3975    0.0000 H   0  0  0  0  0  0  0  0  0  0  0  0
    5.1350   -2.3975    0.0000 H   0  0  0  0  0  0  0  0  0  0  0  0
    5.9529    1.1062    0.0000 H   0  0  0  0  0  0  0  0  0  0  0  0
    5.6210    0.0848    0.0000 H   0  0  0  0  0  0  0  0  0  0  0  0
  1 19  1  0  0  0  0
  2 20  1  0  0  0  0
  3 10  2  0  0  0  0
  3 17  1  0  0  0  0
  3 25  1  0  0  0  0
  4 24  1  0  0  0  0
  5 24  1  0  0  0  0
  6 24  1  0  0  0  0
  7 25  1  0  0  0  0
  8 25  1  0  0  0  0
  9 25  1  0  0  0  0
 11 12  1  0  0  0  0
 11 15  1  0  0  0  0
 11 16  1  0  0  0  0
 12 18  2  0  0  0  0
 13 16  1  0  0  0  0
 13 29  1  0  0  0  0
 13 30  1  0  0  0  0
 14 26  3  0  0  0  0
 15 19  2  0  0  0  0
 15 20  1  0  0  0  0
 16 17  2  0  0  0  0
 17 18  1  0  0  0  0
 18 26  1  0  0  0  0
 19 22  1  0  0  0  0
 20 23  2  0  0  0  0
 21 22  2  0  0  0  0
 21 23  1  0  0  0  0
 21 24  1  0  0  0  0
 22 27  1  0  0  0  0
 23 28  1  0  0  0  0
M  END
> <PUBCHEM_COMPOUND_CID>
3352

> <PUBCHEM_COMPOUND_CANONICALIZED>
1

> <PUBCHEM_CACTVS_COMPLEXITY>
599

> <PUBCHEM_CACTVS_HBOND_ACCEPTOR>
11

> <PUBCHEM_CACTVS_HBOND_DONOR>
1

> <PUBCHEM_CACTVS_ROTATABLE_BOND>
2

> <PUBCHEM_CACTVS_SUBSKEYS>
AAADcYBzocBGAAAAAAAAAAAAAAAAAWAAAAAwAAAAAAAAAAABwAAAHQYYAAAADAqBXjAx8ZJIAAqyByZiZEDyBCMhDRAUmDQgRpiIoGLh09HEpAhwiALIyC8QgAAOCAAAIACAABAQAABAAQAAIAAAAAAAAA==

> <PUBCHEM_IUPAC_OPENEYE_NAME>
5-amino-1-[2,6-dichloro-4-(trifluoromethyl)phenyl]-4-(trifluoromethylsulfinyl)pyrazole-3-carbonitrile

> <PUBCHEM_IUPAC_CAS_NAME>
5-amino-1-[2,6-dichloro-4-(trifluoromethyl)phenyl]-4-(trifluoromethylsulfinyl)-3-pyrazolecarbonitrile

> <PUBCHEM_IUPAC_NAME>
5-amino-1-[2,6-dichloro-4-(trifluoromethyl)phenyl]-4-(trifluoromethylsulfinyl)pyrazole-3-carbonitrile

> <PUBCHEM_IUPAC_SYSTEMATIC_NAME>
5-azanyl-1-[2,6-bis(chloranyl)-4-(trifluoromethyl)phenyl]-4-(trifluoromethylsulfinyl)pyrazole-3-carbonitrile

> <PUBCHEM_IUPAC_TRADITIONAL_NAME>
5-amino-1-[2,6-dichloro-4-(trifluoromethyl)phenyl]-4-(trifluoromethylsulfinyl)pyrazole-3-carbonitrile

> <PUBCHEM_IUPAC_INCHI>
InChI=1S/C12H4Cl2F6N4OS/c13-5-1-4(11(15,16)17)2-6(14)8(5)24-10(22)9(7(3-21)23-24)26(25)12(18,19)20/h1-2H,22H2

> <PUBCHEM_IUPAC_INCHIKEY>
ZOCSXAVNDGMNBV-UHFFFAOYSA-N

> <PUBCHEM_XLOGP3_AA>
4.5

> <PUBCHEM_EXACT_MASS>
435.938706

> <PUBCHEM_MOLECULAR_FORMULA>
C12H4Cl2F6N4OS

> <PUBCHEM_MOLECULAR_WEIGHT>
437.147779

> <PUBCHEM_OPENEYE_CAN_SMILES>
C1=C(C=C(C(=C1Cl)N2C(=C(C(=N2)C#N)S(=O)C(F)(F)F)N)Cl)C(F)(F)F

> <PUBCHEM_OPENEYE_ISO_SMILES>
C1=C(C=C(C(=C1Cl)N2C(=C(C(=N2)C#N)S(=O)C(F)(F)F)N)Cl)C(F)(F)F

> <PUBCHEM_CACTVS_TPSA>
104

> <PUBCHEM_MONOISOTOPIC_WEIGHT>
435.938706

> <PUBCHEM_TOTAL_CHARGE>
0

> <PUBCHEM_HEAVY_ATOM_COUNT>
26

> <PUBCHEM_ATOM_DEF_STEREO_COUNT>
0

> <PUBCHEM_ATOM_UDEF_STEREO_COUNT>
1

> <PUBCHEM_BOND_DEF_STEREO_COUNT>
0

> <PUBCHEM_BOND_UDEF_STEREO_COUNT>
0

> <PUBCHEM_ISOTOPIC_ATOM_COUNT>
0

> <PUBCHEM_COMPONENT_COUNT>
1

> <PUBCHEM_CACTVS_TAUTO_COUNT>
3

> <PUBCHEM_COORDINATE_TYPE>
1
5
255

> <PUBCHEM_BONDANNOTATIONS>
11  12  8
11  16  8
12  18  8
15  19  8
15  20  8
16  17  8
17  18  8
19  22  8
20  23  8
21  22  8
21  23  8
3  25  3

$$$$

