5282093
  -OEChem-07051213022D

 58 58  0     1  0  0  0  0  0999 V2000
    6.3301    2.4050    0.0000 O   0  0  0  0  0  0  0  0  0  0  0  0
    5.4641   -0.0950    0.0000 O   0  0  0  0  0  0  0  0  0  0  0  0
    4.5981    2.4050    0.0000 O   0  0  0  0  0  0  0  0  0  0  0  0
    2.8660   -0.5950    0.0000 O   0  0  0  0  0  0  0  0  0  0  0  0
    8.9282   -2.0950    0.0000 O   0  0  0  0  0  0  0  0  0  0  0  0
    4.7320   -0.0950    0.0000 O   0  0  0  0  0  0  0  0  0  0  0  0
    7.1962    0.9050    0.0000 C   0  0  2  0  0  0  0  0  0  0  0  0
    6.3301    1.4050    0.0000 C   0  0  1  0  0  0  0  0  0  0  0  0
    7.1962   -0.0950    0.0000 C   0  0  0  0  0  0  0  0  0  0  0  0
    5.4641    0.9050    0.0000 C   0  0  2  0  0  0  0  0  0  0  0  0
    8.0622    1.4050    0.0000 C   0  0  0  0  0  0  0  0  0  0  0  0
    8.0622   -0.5950    0.0000 C   0  0  1  0  0  0  0  0  0  0  0  0
    4.5981    1.4050    0.0000 C   0  0  1  0  0  0  0  0  0  0  0  0
    8.0622    2.4050    0.0000 C   0  0  0  0  0  0  0  0  0  0  0  0
    3.7320    0.9050    0.0000 C   0  0  0  0  0  0  0  0  0  0  0  0
    8.9282   -0.0950    0.0000 C   0  0  0  0  0  0  0  0  0  0  0  0
    8.0622   -1.5950    0.0000 C   0  0  0  0  0  0  0  0  0  0  0  0
    3.7320   -0.0950    0.0000 C   0  0  0  0  0  0  0  0  0  0  0  0
    6.4641   -0.0950    0.0000 C   0  0  0  0  0  0  0  0  0  0  0  0
    7.1962   -2.0950    0.0000 C   0  0  0  0  0  0  0  0  0  0  0  0
    2.8660   -1.5950    0.0000 C   0  0  1  0  0  0  0  0  0  0  0  0
    3.7320   -2.0950    0.0000 C   0  0  0  0  0  0  0  0  0  0  0  0
    6.3301   -1.5950    0.0000 C   0  0  0  0  0  0  0  0  0  0  0  0
    2.0000   -2.0950    0.0000 C   0  0  0  0  0  0  0  0  0  0  0  0
    4.5981   -1.5950    0.0000 C   0  0  0  0  0  0  0  0  0  0  0  0
    5.4641   -2.0950    0.0000 C   0  0  0  0  0  0  0  0  0  0  0  0
    7.7331    0.5950    0.0000 H   0  0  0  0  0  0  0  0  0  0  0  0
    6.8671    1.7150    0.0000 H   0  0  0  0  0  0  0  0  0  0  0  0
    6.5856    0.0127    0.0000 H   0  0  0  0  0  0  0  0  0  0  0  0
    6.9841   -0.6776    0.0000 H   0  0  0  0  0  0  0  0  0  0  0  0
    6.0010    0.5950    0.0000 H   0  0  0  0  0  0  0  0  0  0  0  0
    8.2742    0.8224    0.0000 H   0  0  0  0  0  0  0  0  0  0  0  0
    8.6728    1.5127    0.0000 H   0  0  0  0  0  0  0  0  0  0  0  0
    8.0622    0.0250    0.0000 H   0  0  0  0  0  0  0  0  0  0  0  0
    5.1350    1.7150    0.0000 H   0  0  0  0  0  0  0  0  0  0  0  0
    8.6822    2.4050    0.0000 H   0  0  0  0  0  0  0  0  0  0  0  0
    8.0622    3.0250    0.0000 H   0  0  0  0  0  0  0  0  0  0  0  0
    7.4422    2.4050    0.0000 H   0  0  0  0  0  0  0  0  0  0  0  0
    3.5200    1.4876    0.0000 H   0  0  0  0  0  0  0  0  0  0  0  0
    3.1215    0.7973    0.0000 H   0  0  0  0  0  0  0  0  0  0  0  0
    9.2382   -0.6319    0.0000 H   0  0  0  0  0  0  0  0  0  0  0  0
    9.4651    0.2150    0.0000 H   0  0  0  0  0  0  0  0  0  0  0  0
    8.6182    0.4419    0.0000 H   0  0  0  0  0  0  0  0  0  0  0  0
    6.8671    2.7150    0.0000 H   0  0  0  0  0  0  0  0  0  0  0  0
    4.0611    2.7150    0.0000 H   0  0  0  0  0  0  0  0  0  0  0  0
    6.4641   -0.7150    0.0000 H   0  0  0  0  0  0  0  0  0  0  0  0
    7.0841   -0.0950    0.0000 H   0  0  0  0  0  0  0  0  0  0  0  0
    6.4641    0.5250    0.0000 H   0  0  0  0  0  0  0  0  0  0  0  0
    7.1962   -2.7150    0.0000 H   0  0  0  0  0  0  0  0  0  0  0  0
    2.3291   -1.2850    0.0000 H   0  0  0  0  0  0  0  0  0  0  0  0
    3.3335   -2.5700    0.0000 H   0  0  0  0  0  0  0  0  0  0  0  0
    4.1306   -2.5700    0.0000 H   0  0  0  0  0  0  0  0  0  0  0  0
    6.6401   -1.0581    0.0000 H   0  0  0  0  0  0  0  0  0  0  0  0
    1.6900   -1.5581    0.0000 H   0  0  0  0  0  0  0  0  0  0  0  0
    1.4631   -2.4050    0.0000 H   0  0  0  0  0  0  0  0  0  0  0  0
    2.3100   -2.6319    0.0000 H   0  0  0  0  0  0  0  0  0  0  0  0
    4.5981   -0.9750    0.0000 H   0  0  0  0  0  0  0  0  0  0  0  0
    5.4641   -2.7150    0.0000 H   0  0  0  0  0  0  0  0  0  0  0  0
  8  1  1  1  0  0  0
  1 44  1  0  0  0  0
 10  2  1  1  0  0  0
  2 19  1  0  0  0  0
 13  3  1  1  0  0  0
  3 45  1  0  0  0  0
  4 18  1  0  0  0  0
  4 21  1  0  0  0  0
  5 17  2  0  0  0  0
  6 18  2  0  0  0  0
  7  8  1  0  0  0  0
  7  9  1  0  0  0  0
  7 11  1  1  0  0  0
  7 27  1  0  0  0  0
  8 10  1  0  0  0  0
  8 28  1  0  0  0  0
  9 12  1  0  0  0  0
  9 29  1  0  0  0  0
  9 30  1  0  0  0  0
 10 13  1  0  0  0  0
 10 31  1  0  0  0  0
 11 14  1  0  0  0  0
 11 32  1  0  0  0  0
 11 33  1  0  0  0  0
 12 16  1  1  0  0  0
 12 17  1  0  0  0  0
 12 34  1  0  0  0  0
 13 15  1  0  0  0  0
 13 35  1  0  0  0  0
 14 36  1  0  0  0  0
 14 37  1  0  0  0  0
 14 38  1  0  0  0  0
 15 18  1  0  0  0  0
 15 39  1  0  0  0  0
 15 40  1  0  0  0  0
 16 41  1  0  0  0  0
 16 42  1  0  0  0  0
 16 43  1  0  0  0  0
 17 20  1  0  0  0  0
 19 46  1  0  0  0  0
 19 47  1  0  0  0  0
 19 48  1  0  0  0  0
 20 23  2  0  0  0  0
 20 49  1  0  0  0  0
 21 22  1  0  0  0  0
 21 24  1  1  0  0  0
 21 50  1  0  0  0  0
 22 25  1  0  0  0  0
 22 51  1  0  0  0  0
 22 52  1  0  0  0  0
 23 26  1  0  0  0  0
 23 53  1  0  0  0  0
 24 54  1  0  0  0  0
 24 55  1  0  0  0  0
 24 56  1  0  0  0  0
 25 26  2  0  0  0  0
 25 57  1  0  0  0  0
 26 58  1  0  0  0  0
M  END
> <PUBCHEM_COMPOUND_CID>
5282093

> <PUBCHEM_COMPOUND_CANONICALIZED>
1

> <PUBCHEM_CACTVS_COMPLEXITY>
512

> <PUBCHEM_CACTVS_HBOND_ACCEPTOR>
6

> <PUBCHEM_CACTVS_HBOND_DONOR>
2

> <PUBCHEM_CACTVS_ROTATABLE_BOND>
2

> <PUBCHEM_CACTVS_SUBSKEYS>
AAADcfB4OAAAAAAAAAAAAAAAAAAAAAAAAAAAAAAAAAAAAAAAAAAAGgAACAAADRSggAICCAAABgCIAKDSCAAAAAAgAAAICAEAAEgJEBYAAQACQAAF4AALgYPK7PzOAAAAAAAAAAAAAAAAAAAAAAAAAAAAAA==

> <PUBCHEM_IUPAC_OPENEYE_NAME>
(4R,5S,6S,7S,9R,11E,13E,16R)-7-ethyl-4,6-dihydroxy-5-methoxy-9,16-dimethyl-1-oxacyclohexadeca-11,13-diene-2,10-dione

> <PUBCHEM_IUPAC_CAS_NAME>
(4R,5S,6S,7S,9R,11E,13E,16R)-7-ethyl-4,6-dihydroxy-5-methoxy-9,16-dimethyl-1-oxacyclohexadeca-11,13-diene-2,10-dione

> <PUBCHEM_IUPAC_NAME>
(4R,5S,6S,7S,9R,11E,13E,16R)-7-ethyl-4,6-dihydroxy-5-methoxy-9,16-dimethyl-1-oxacyclohexadeca-11,13-diene-2,10-dione

> <PUBCHEM_IUPAC_SYSTEMATIC_NAME>
(4R,5S,6S,7S,9R,11E,13E,16R)-7-ethyl-5-methoxy-9,16-dimethyl-4,6-bis(oxidanyl)-1-oxacyclohexadeca-11,13-diene-2,10-dione

> <PUBCHEM_IUPAC_TRADITIONAL_NAME>
(4R,5S,6S,7S,9R,11E,13E,16R)-7-ethyl-4,6-dihydroxy-5-methoxy-9,16-dimethyl-1-oxacyclohexadeca-11,13-diene-2,10-quinone

> <PUBCHEM_IUPAC_INCHI>
InChI=1S/C20H32O6/c1-5-15-11-13(2)16(21)10-8-6-7-9-14(3)26-18(23)12-17(22)20(25-4)19(15)24/h6-8,10,13-15,17,19-20,22,24H,5,9,11-12H2,1-4H3/b7-6+,10-8+/t13-,14-,15+,17-,19+,20+/m1/s1

> <PUBCHEM_IUPAC_INCHIKEY>
VWVDRJWACDDRKD-SECFAUQFSA-N

> <PUBCHEM_XLOGP3_AA>
2.3

> <PUBCHEM_EXACT_MASS>
368.219889

> <PUBCHEM_MOLECULAR_FORMULA>
C20H32O6

> <PUBCHEM_MOLECULAR_WEIGHT>
368.46448

> <PUBCHEM_OPENEYE_CAN_SMILES>
CCC1CC(C(=O)C=CC=CCC(OC(=O)CC(C(C1O)OC)O)C)C

> <PUBCHEM_OPENEYE_ISO_SMILES>
CC[C@H]1C[C@H](C(=O)/C=C/C=C/C[C@H](OC(=O)C[C@H]([C@@H]([C@H]1O)OC)O)C)C

> <PUBCHEM_CACTVS_TPSA>
93.1

> <PUBCHEM_MONOISOTOPIC_WEIGHT>
368.219889

> <PUBCHEM_TOTAL_CHARGE>
0

> <PUBCHEM_HEAVY_ATOM_COUNT>
26

> <PUBCHEM_ATOM_DEF_STEREO_COUNT>
6

> <PUBCHEM_ATOM_UDEF_STEREO_COUNT>
0

> <PUBCHEM_BOND_DEF_STEREO_COUNT>
2

> <PUBCHEM_BOND_UDEF_STEREO_COUNT>
0

> <PUBCHEM_ISOTOPIC_ATOM_COUNT>
0

> <PUBCHEM_COMPONENT_COUNT>
1

> <PUBCHEM_CACTVS_TAUTO_COUNT>
14

> <PUBCHEM_COORDINATE_TYPE>
1
5
255

> <PUBCHEM_BONDANNOTATIONS>
8  1  5
12  16  5
10  2  5
21  24  5
13  3  5
7  11  5

$$$$

