33360
  -OEChem-07051213122D

 37 38  0     1  0  0  0  0  0999 V2000
    2.8660    0.1218    0.0000 S   0  0  0  0  0  0  0  0  0  0  0  0
    7.2764   -1.1829    0.0000 O   0  0  0  0  0  0  0  0  0  0  0  0
    8.8600   -0.3782    0.0000 O   0  0  0  0  0  0  0  0  0  0  0  0
    3.7320    0.6218    0.0000 O   0  0  0  0  0  0  0  0  0  0  0  0
    2.3660    0.9879    0.0000 O   0  0  0  0  0  0  0  0  0  0  0  0
    3.3660   -0.7442    0.0000 O   0  0  0  0  0  0  0  0  0  0  0  0
    7.2764    0.4266    0.0000 C   0  0  0  0  0  0  0  0  0  0  0  0
    7.8600   -0.3782    0.0000 C   0  0  3  0  0  0  0  0  0  0  0  0
    6.3301    0.1218    0.0000 C   0  0  0  0  0  0  0  0  0  0  0  0
    8.0864    1.0130    0.0000 C   0  0  0  0  0  0  0  0  0  0  0  0
    6.9690    1.3782    0.0000 C   0  0  0  0  0  0  0  0  0  0  0  0
    6.3301   -0.8782    0.0000 C   0  0  0  0  0  0  0  0  0  0  0  0
    5.4641    0.6218    0.0000 C   0  0  0  0  0  0  0  0  0  0  0  0
    5.4641   -1.3782    0.0000 C   0  0  0  0  0  0  0  0  0  0  0  0
    4.5981    0.1218    0.0000 C   0  0  0  0  0  0  0  0  0  0  0  0
    4.5981   -0.8782    0.0000 C   0  0  0  0  0  0  0  0  0  0  0  0
    9.3600   -1.2442    0.0000 C   0  0  0  0  0  0  0  0  0  0  0  0
   10.3600   -1.2442    0.0000 C   0  0  0  0  0  0  0  0  0  0  0  0
    2.0000   -0.3782    0.0000 C   0  0  0  0  0  0  0  0  0  0  0  0
    8.2462    0.3790    0.0000 H   0  0  0  0  0  0  0  0  0  0  0  0
    8.4499    0.5107    0.0000 H   0  0  0  0  0  0  0  0  0  0  0  0
    8.5886    1.3765    0.0000 H   0  0  0  0  0  0  0  0  0  0  0  0
    7.7228    1.5152    0.0000 H   0  0  0  0  0  0  0  0  0  0  0  0
    7.5590    1.5687    0.0000 H   0  0  0  0  0  0  0  0  0  0  0  0
    6.7784    1.9682    0.0000 H   0  0  0  0  0  0  0  0  0  0  0  0
    6.3790    1.1876    0.0000 H   0  0  0  0  0  0  0  0  0  0  0  0
    5.4641    1.2418    0.0000 H   0  0  0  0  0  0  0  0  0  0  0  0
    5.4641   -1.9982    0.0000 H   0  0  0  0  0  0  0  0  0  0  0  0
    4.0611   -1.1882    0.0000 H   0  0  0  0  0  0  0  0  0  0  0  0
    8.7774   -1.4562    0.0000 H   0  0  0  0  0  0  0  0  0  0  0  0
    9.4676   -1.8548    0.0000 H   0  0  0  0  0  0  0  0  0  0  0  0
   10.3600   -1.8642    0.0000 H   0  0  0  0  0  0  0  0  0  0  0  0
   10.9800   -1.2442    0.0000 H   0  0  0  0  0  0  0  0  0  0  0  0
   10.3600   -0.6242    0.0000 H   0  0  0  0  0  0  0  0  0  0  0  0
    1.6900    0.1588    0.0000 H   0  0  0  0  0  0  0  0  0  0  0  0
    1.4631   -0.6882    0.0000 H   0  0  0  0  0  0  0  0  0  0  0  0
    2.3100   -0.9151    0.0000 H   0  0  0  0  0  0  0  0  0  0  0  0
  1  4  1  0  0  0  0
  1  5  2  0  0  0  0
  1  6  2  0  0  0  0
  1 19  1  0  0  0  0
  2  8  1  0  0  0  0
  2 12  1  0  0  0  0
  3  8  1  0  0  0  0
  3 17  1  0  0  0  0
  4 15  1  0  0  0  0
  7  8  1  0  0  0  0
  7  9  1  0  0  0  0
  7 10  1  0  0  0  0
  7 11  1  0  0  0  0
  8 20  1  0  0  0  0
  9 12  2  0  0  0  0
  9 13  1  0  0  0  0
 10 21  1  0  0  0  0
 10 22  1  0  0  0  0
 10 23  1  0  0  0  0
 11 24  1  0  0  0  0
 11 25  1  0  0  0  0
 11 26  1  0  0  0  0
 12 14  1  0  0  0  0
 13 15  2  0  0  0  0
 13 27  1  0  0  0  0
 14 16  2  0  0  0  0
 14 28  1  0  0  0  0
 15 16  1  0  0  0  0
 16 29  1  0  0  0  0
 17 18  1  0  0  0  0
 17 30  1  0  0  0  0
 17 31  1  0  0  0  0
 18 32  1  0  0  0  0
 18 33  1  0  0  0  0
 18 34  1  0  0  0  0
 19 35  1  0  0  0  0
 19 36  1  0  0  0  0
 19 37  1  0  0  0  0
M  END
> <PUBCHEM_COMPOUND_CID>
33360

> <PUBCHEM_COMPOUND_CANONICALIZED>
1

> <PUBCHEM_CACTVS_COMPLEXITY>
411

> <PUBCHEM_CACTVS_HBOND_ACCEPTOR>
5

> <PUBCHEM_CACTVS_HBOND_DONOR>
0

> <PUBCHEM_CACTVS_ROTATABLE_BOND>
4

> <PUBCHEM_CACTVS_SUBSKEYS>
AAADceBwOABAAAAAAAAAAAAAAAAAASAAAAAwAAAAAAAAAEgBAAAAGgQAAAAADgSwmAOyDoAABAKAAiBCAHACCAAgIAAIiAAGCIgcJiKEMRqiOCCkwBEMqAfA4PwPgQABAAAIAAACAAIAABAAAAAAAAAAAA==

> <PUBCHEM_IUPAC_OPENEYE_NAME>
(2-ethoxy-3,3-dimethyl-2H-benzofuran-5-yl) methanesulfonate

> <PUBCHEM_IUPAC_CAS_NAME>
methanesulfonic acid (2-ethoxy-3,3-dimethyl-2H-benzofuran-5-yl) ester

> <PUBCHEM_IUPAC_NAME>
(2-ethoxy-3,3-dimethyl-2H-1-benzofuran-5-yl) methanesulfonate

> <PUBCHEM_IUPAC_SYSTEMATIC_NAME>
(2-ethoxy-3,3-dimethyl-2H-1-benzofuran-5-yl) methanesulfonate

> <PUBCHEM_IUPAC_TRADITIONAL_NAME>
methanesulfonic acid (2-ethoxy-3,3-dimethyl-coumaran-5-yl) ester

> <PUBCHEM_IUPAC_INCHI>
InChI=1S/C13H18O5S/c1-5-16-12-13(2,3)10-8-9(18-19(4,14)15)6-7-11(10)17-12/h6-8,12H,5H2,1-4H3

> <PUBCHEM_IUPAC_INCHIKEY>
IRCMYGHHKLLGHV-UHFFFAOYSA-N

> <PUBCHEM_XLOGP3_AA>
2.7

> <PUBCHEM_EXACT_MASS>
286.087495

> <PUBCHEM_MOLECULAR_FORMULA>
C13H18O5S

> <PUBCHEM_MOLECULAR_WEIGHT>
286.34402

> <PUBCHEM_OPENEYE_CAN_SMILES>
CCOC1C(C2=C(O1)C=CC(=C2)OS(=O)(=O)C)(C)C

> <PUBCHEM_OPENEYE_ISO_SMILES>
CCOC1C(C2=C(O1)C=CC(=C2)OS(=O)(=O)C)(C)C

> <PUBCHEM_CACTVS_TPSA>
70.2

> <PUBCHEM_MONOISOTOPIC_WEIGHT>
286.087495

> <PUBCHEM_TOTAL_CHARGE>
0

> <PUBCHEM_HEAVY_ATOM_COUNT>
19

> <PUBCHEM_ATOM_DEF_STEREO_COUNT>
0

> <PUBCHEM_ATOM_UDEF_STEREO_COUNT>
1

> <PUBCHEM_BOND_DEF_STEREO_COUNT>
0

> <PUBCHEM_BOND_UDEF_STEREO_COUNT>
0

> <PUBCHEM_ISOTOPIC_ATOM_COUNT>
0

> <PUBCHEM_COMPONENT_COUNT>
1

> <PUBCHEM_CACTVS_TAUTO_COUNT>
1

> <PUBCHEM_COORDINATE_TYPE>
1
5
255

> <PUBCHEM_BONDANNOTATIONS>
12  14  8
13  15  8
14  16  8
15  16  8
8  20  3
9  12  8
9  13  8

$$$$

