   Color/Form
        Colorless to slightly yellow liquid.
   from [1]HSDB

   Odor

     * Rather unpleasant, irritating odor
     * Pungent, aromatic odor

   from [2]HSDB

   Boiling Point
        179 deg C
   from [3]HSDB

   Melting Point
        -45 deg C
   from [4]HSDB

   Corrosivity
        Corrosive to metal. ...
   from [5]HSDB

   Critical Temperature and Pressure
        772 DEG F= 411 DEG C= 684 DEG K (ESTIMATED); 567 PSIA= 38.5 ATM=
   3.91 MN/SQ M (ESTIMATED)
   from [6]HSDB

   Density/Specific Gravity
        1.100 @ 20 deg C
   from [7]HSDB

   Heat of Combustion
        -12,000 BTU/LB= -6,700 CAL/G= -280X10+5 JOULES/KG
   from [8]HSDB

   Heat of Vaporization
        130 BTU/LB= 70 CAL/G= 2.9X10+5 JOULES/KG
   from [9]HSDB

   Octanol/Water Partition Coefficient
        log Kow = 2.30
   from [10]HSDB

   Solubilities

     * Slightly soluble in carbon tetrachloride
     * Miscible in most organic solvents
     * Soluble in ethanol(>10%), ethyl ether(>10%), and chloroform(>10%)
     * In water, 525 mg/liter @ 25 deg C

   from [11]HSDB

   Spectral Properties

     * Index of refraction: 1.5415 @ 15 deg C/D; very refractive
     * MAX ABSORPTION (ALCOHOL): 217 NM (LOG E= 3.85)
     * IR: 6 (Sadtler Research Laboratories IR Grating Collection)
     * UV: 5 (Sadtler Research Laboratories Spectral Collection)
     * 1H-NMR: 3 (Sadtler Research Laboratories Spectral Collection)
     * MASS: 62385 (NIST/EPA/MSDC Mass Spectral Database, 1990 version);
       530 (Atlas of Mass Spectral Data, John Wiley & Sons, NY)
     * RAMAN: 769 (Sadtler Research Laboratories Spectral Collection)

   from [12]HSDB

   Surface Tension
        37.46 dynes/cm @ 20.6 deg C; 36.76 dynes/cm @ 26.3 deg C
   from [13]HSDB

   Vapor Density
        4.36 (Air= 1)
   from [14]HSDB

   Vapor Pressure
        1.23 mm Hg @ 25 deg C
   from [15]HSDB

   Other Chemical/Physical Properties

     * Decomposition in hot water to benzyl alcohol, undergoes reactions
       at side chain containing chlorine and at aromatic ring; reacts with
       steam and oxidizing agents.
     * Dielectric constant: 7.0 @ 13 deg C
     * Slowly hydrolyzed by water.
     * Vapor pressure: 5.60 mm Hg @ 50 deg C; 19.95 mm Hg @ 75 deg C;
       58.73 mm Hg @ 100 deg C; 148.5 mm Hg @ 125 deg C; 330 mm Hg @ 150
       deg C
     * Heat capacity: 182.4 J/kmol @ 25 deg C; thermal expansion
       coefficient: 0.000972 (deg C)-1
     * Saturation concentration in air: 6.2 g/cu m @ 20 deg C; 11 g/cu m
       at 30 deg C
     * Saturation concentration in air: 6.2 g/cu m @ 20 deg C; 11 g/cu m
       at 30 deg C
     * BP: 99 deg C @ 62 mm Hg
     * Henry's Law constant: 4.12X10-4 atm-cu m/mole @ 25 deg C
       /Estimated/
     * Hydroxyl radical reaction rate constant = 2.90X10-12 cu cm/molec
       sec @ 25 deg C

   from [16]HSDB

   Computed Properties
   Molecular Weight                  126.58348 [g/mol]
   Molecular Formula                 C[7]H[7]Cl
   XLogP3                            2.3
   H-Bond Donor                      0
   H-Bond Acceptor                   0
   Rotatable Bond Count              1
   Exact Mass                        126.023628
   MonoIsotopic Mass                 126.023628
   Topological Polar Surface Area    0
   Heavy Atom Count                  8
   Formal Charge                     0
   Complexity                        55.4
   Isotope Atom Count                0
   Defined Atom Stereocenter Count   0
   Undefined Atom Stereocenter Count 0
   Defined Bond Stereocenter Count   0
   Undefined Bond Stereocenter Count 0
   Covalently-Bonded Unit Count      1
   Feature 3D Ring Count             1
   Effective Rotor Count             1
   Conformer Sampling RMSD           0.4
   CID Conformer Count               [17]2

References

   1. http://toxnet.nlm.nih.gov/cgi-bin/sis/search/r?dbs+hsdb:@term+@rn+@rel+100-44-7
   2. http://toxnet.nlm.nih.gov/cgi-bin/sis/search/r?dbs+hsdb:@term+@rn+@rel+100-44-7
   3. http://toxnet.nlm.nih.gov/cgi-bin/sis/search/r?dbs+hsdb:@term+@rn+@rel+100-44-7
   4. http://toxnet.nlm.nih.gov/cgi-bin/sis/search/r?dbs+hsdb:@term+@rn+@rel+100-44-7
   5. http://toxnet.nlm.nih.gov/cgi-bin/sis/search/r?dbs+hsdb:@term+@rn+@rel+100-44-7
   6. http://toxnet.nlm.nih.gov/cgi-bin/sis/search/r?dbs+hsdb:@term+@rn+@rel+100-44-7
   7. http://toxnet.nlm.nih.gov/cgi-bin/sis/search/r?dbs+hsdb:@term+@rn+@rel+100-44-7
   8. http://toxnet.nlm.nih.gov/cgi-bin/sis/search/r?dbs+hsdb:@term+@rn+@rel+100-44-7
   9. http://toxnet.nlm.nih.gov/cgi-bin/sis/search/r?dbs+hsdb:@term+@rn+@rel+100-44-7
  10. http://toxnet.nlm.nih.gov/cgi-bin/sis/search/r?dbs+hsdb:@term+@rn+@rel+100-44-7
  11. http://toxnet.nlm.nih.gov/cgi-bin/sis/search/r?dbs+hsdb:@term+@rn+@rel+100-44-7
  12. http://toxnet.nlm.nih.gov/cgi-bin/sis/search/r?dbs+hsdb:@term+@rn+@rel+100-44-7
  13. http://toxnet.nlm.nih.gov/cgi-bin/sis/search/r?dbs+hsdb:@term+@rn+@rel+100-44-7
  14. http://toxnet.nlm.nih.gov/cgi-bin/sis/search/r?dbs+hsdb:@term+@rn+@rel+100-44-7
  15. http://toxnet.nlm.nih.gov/cgi-bin/sis/search/r?dbs+hsdb:@term+@rn+@rel+100-44-7
  16. http://toxnet.nlm.nih.gov/cgi-bin/sis/search/r?dbs+hsdb:@term+@rn+@rel+100-44-7
  17. http://pubchem.ncbi.nlm.nih.gov/vw3d/vw3d.cgi?cid=7503
