5281904
  -OEChem-07051213012D

 65 69  0     1  0  0  0  0  0999 V2000
    9.1857    0.9315    0.0000 O   0  0  0  0  0  0  0  0  0  0  0  0
   10.4586   -0.8237    0.0000 O   0  0  0  0  0  0  0  0  0  0  0  0
   10.8321    0.3934    0.0000 O   0  0  0  0  0  0  0  0  0  0  0  0
    9.8070    2.8326    0.0000 O   0  0  0  0  0  0  0  0  0  0  0  0
   11.7640    3.2450    0.0000 O   0  0  0  0  0  0  0  0  0  0  0  0
    2.5357   -3.3760    0.0000 O   0  0  0  0  0  0  0  0  0  0  0  0
   13.0997    1.7564    0.0000 O   0  0  0  0  0  0  0  0  0  0  0  0
   12.1677   -1.0952    0.0000 O   0  0  0  0  0  0  0  0  0  0  0  0
   13.4569    0.0616    0.0000 O   0  0  0  0  0  0  0  0  0  0  0  0
    7.9288   -0.3237    0.0000 C   0  0  1  0  0  0  0  0  0  0  0  0
    7.9288   -1.3237    0.0000 C   0  0  2  0  0  0  0  0  0  0  0  0
    7.0628   -1.8237    0.0000 C   0  0  1  0  0  0  0  0  0  0  0  0
    8.8750   -0.0190    0.0000 C   0  0  2  0  0  0  0  0  0  0  0  0
    6.1968   -1.3237    0.0000 C   0  0  2  0  0  0  0  0  0  0  0  0
    8.8750   -1.6285    0.0000 C   0  0  0  0  0  0  0  0  0  0  0  0
    7.0628    0.1763    0.0000 C   0  0  0  0  0  0  0  0  0  0  0  0
    9.4586   -0.8237    0.0000 C   0  0  1  0  0  0  0  0  0  0  0  0
    6.1968   -0.3237    0.0000 C   0  0  0  0  0  0  0  0  0  0  0  0
    7.0789   -2.8652    0.0000 C   0  0  0  0  0  0  0  0  0  0  0  0
    7.9288    0.6763    0.0000 C   0  0  0  0  0  0  0  0  0  0  0  0
    5.2868   -1.8306    0.0000 C   0  0  0  0  0  0  0  0  0  0  0  0
    6.1808   -3.3930    0.0000 C   0  0  0  0  0  0  0  0  0  0  0  0
    5.2787   -2.8722    0.0000 C   0  0  0  0  0  0  0  0  0  0  0  0
   10.1642    1.1378    0.0000 C   0  0  2  0  0  0  0  0  0  0  0  0
    4.3599   -1.2665    0.0000 C   0  0  0  0  0  0  0  0  0  0  0  0
    4.3433   -3.4219    0.0000 C   0  0  0  0  0  0  0  0  0  0  0  0
   10.4749    2.0883    0.0000 C   0  0  1  0  0  0  0  0  0  0  0  0
    3.4120   -1.7944    0.0000 C   0  0  0  0  0  0  0  0  0  0  0  0
   11.4534    2.2945    0.0000 C   0  0  2  0  0  0  0  0  0  0  0  0
    3.4037   -2.8794    0.0000 C   0  0  0  0  0  0  0  0  0  0  0  0
   11.8106    0.5997    0.0000 C   0  0  1  0  0  0  0  0  0  0  0  0
   12.1212    1.5502    0.0000 C   0  0  1  0  0  0  0  0  0  0  0  0
   12.4784   -0.1446    0.0000 C   0  0  0  0  0  0  0  0  0  0  0  0
    8.0188   -2.1690    0.0000 H   0  0  0  0  0  0  0  0  0  0  0  0
    7.8022   -2.2430    0.0000 H   0  0  0  0  0  0  0  0  0  0  0  0
    9.4875    0.0772    0.0000 H   0  0  0  0  0  0  0  0  0  0  0  0
    6.9329   -0.8987    0.0000 H   0  0  0  0  0  0  0  0  0  0  0  0
    8.6240   -2.1954    0.0000 H   0  0  0  0  0  0  0  0  0  0  0  0
    9.4124   -1.9377    0.0000 H   0  0  0  0  0  0  0  0  0  0  0  0
    7.4613    0.6512    0.0000 H   0  0  0  0  0  0  0  0  0  0  0  0
    6.6643    0.6512    0.0000 H   0  0  0  0  0  0  0  0  0  0  0  0
    9.7404   -1.3760    0.0000 H   0  0  0  0  0  0  0  0  0  0  0  0
    5.9847    0.2589    0.0000 H   0  0  0  0  0  0  0  0  0  0  0  0
    5.5862   -0.4314    0.0000 H   0  0  0  0  0  0  0  0  0  0  0  0
    7.2969   -3.4456    0.0000 H   0  0  0  0  0  0  0  0  0  0  0  0
    7.6880   -2.7497    0.0000 H   0  0  0  0  0  0  0  0  0  0  0  0
    8.5488    0.6763    0.0000 H   0  0  0  0  0  0  0  0  0  0  0  0
    7.9288    1.2963    0.0000 H   0  0  0  0  0  0  0  0  0  0  0  0
    7.3088    0.6763    0.0000 H   0  0  0  0  0  0  0  0  0  0  0  0
    5.7835   -3.8690    0.0000 H   0  0  0  0  0  0  0  0  0  0  0  0
    6.5818   -3.8659    0.0000 H   0  0  0  0  0  0  0  0  0  0  0  0
   10.7687   -1.3607    0.0000 H   0  0  0  0  0  0  0  0  0  0  0  0
    9.9716    0.5484    0.0000 H   0  0  0  0  0  0  0  0  0  0  0  0
    4.3719   -0.6466    0.0000 H   0  0  0  0  0  0  0  0  0  0  0  0
    4.3457   -4.0419    0.0000 H   0  0  0  0  0  0  0  0  0  0  0  0
   10.6675    2.6776    0.0000 H   0  0  0  0  0  0  0  0  0  0  0  0
    2.8787   -1.4782    0.0000 H   0  0  0  0  0  0  0  0  0  0  0  0
   12.0601    2.4223    0.0000 H   0  0  0  0  0  0  0  0  0  0  0  0
   11.6179    0.0103    0.0000 H   0  0  0  0  0  0  0  0  0  0  0  0
   12.5353    1.0887    0.0000 H   0  0  0  0  0  0  0  0  0  0  0  0
    9.9996    3.4219    0.0000 H   0  0  0  0  0  0  0  0  0  0  0  0
   12.3707    3.3729    0.0000 H   0  0  0  0  0  0  0  0  0  0  0  0
    2.0000   -3.0640    0.0000 H   0  0  0  0  0  0  0  0  0  0  0  0
   13.2923    2.3457    0.0000 H   0  0  0  0  0  0  0  0  0  0  0  0
   12.5818   -1.5566    0.0000 H   0  0  0  0  0  0  0  0  0  0  0  0
 13  1  1  1  0  0  0
 24  1  1  1  0  0  0
 17  2  1  6  0  0  0
  2 52  1  0  0  0  0
  3 24  1  0  0  0  0
  3 31  1  0  0  0  0
 27  4  1  6  0  0  0
  4 61  1  0  0  0  0
 29  5  1  1  0  0  0
  5 62  1  0  0  0  0
  6 30  1  0  0  0  0
  6 63  1  0  0  0  0
 32  7  1  6  0  0  0
  7 64  1  0  0  0  0
  8 33  1  0  0  0  0
  8 65  1  0  0  0  0
  9 33  2  0  0  0  0
 10 11  1  0  0  0  0
 10 13  1  0  0  0  0
 10 16  1  0  0  0  0
 10 20  1  1  0  0  0
 11 12  1  0  0  0  0
 11 15  1  0  0  0  0
 11 34  1  6  0  0  0
 12 14  1  0  0  0  0
 12 19  1  0  0  0  0
 12 35  1  1  0  0  0
 13 17  1  0  0  0  0
 13 36  1  0  0  0  0
 14 18  1  0  0  0  0
 14 21  1  0  0  0  0
 14 37  1  6  0  0  0
 15 17  1  0  0  0  0
 15 38  1  0  0  0  0
 15 39  1  0  0  0  0
 16 18  1  0  0  0  0
 16 40  1  0  0  0  0
 16 41  1  0  0  0  0
 17 42  1  0  0  0  0
 18 43  1  0  0  0  0
 18 44  1  0  0  0  0
 19 22  1  0  0  0  0
 19 45  1  0  0  0  0
 19 46  1  0  0  0  0
 20 47  1  0  0  0  0
 20 48  1  0  0  0  0
 20 49  1  0  0  0  0
 21 23  2  0  0  0  0
 21 25  1  0  0  0  0
 22 23  1  0  0  0  0
 22 50  1  0  0  0  0
 22 51  1  0  0  0  0
 23 26  1  0  0  0  0
 24 27  1  0  0  0  0
 24 53  1  0  0  0  0
 25 28  2  0  0  0  0
 25 54  1  0  0  0  0
 26 30  2  0  0  0  0
 26 55  1  0  0  0  0
 27 29  1  0  0  0  0
 27 56  1  0  0  0  0
 28 30  1  0  0  0  0
 28 57  1  0  0  0  0
 29 32  1  0  0  0  0
 29 58  1  0  0  0  0
 31 32  1  0  0  0  0
 31 33  1  1  0  0  0
 31 59  1  0  0  0  0
 32 60  1  0  0  0  0
M  END
> <PUBCHEM_COMPOUND_CID>
5281904

> <PUBCHEM_COMPOUND_CANONICALIZED>
1

> <PUBCHEM_CACTVS_COMPLEXITY>
747

> <PUBCHEM_CACTVS_HBOND_ACCEPTOR>
9

> <PUBCHEM_CACTVS_HBOND_DONOR>
6

> <PUBCHEM_CACTVS_ROTATABLE_BOND>
3

> <PUBCHEM_CACTVS_SUBSKEYS>
AAADcfB4PAAAAAAAAAAAAAAAAAAAAYAAAAA0YMEAAAAAAGDBAAAAGgAACAAADxSwmAMyDoAABgCIAiDSCAICAAAgIAAIiAFGCIgZNjaCERaicAAl4BEPmAfK7PxPoAABAAAQAADAAAYAACAAAIAADCAAAA==

> <PUBCHEM_IUPAC_OPENEYE_NAME>
(2S,3S,4S,5R,6R)-6-[[(8R,9S,13S,14S,16R,17R)-3,16-dihydroxy-13-methyl-6,7,8,9,11,12,14,15,16,17-decahydrocyclopenta[a]phenanthren-17-yl]oxy]-3,4,5-trihydroxy-tetrahydropyran-2-carboxylic acid

> <PUBCHEM_IUPAC_CAS_NAME>
(2S,3S,4S,5R,6R)-6-[[(8R,9S,13S,14S,16R,17R)-3,16-dihydroxy-13-methyl-6,7,8,9,11,12,14,15,16,17-decahydrocyclopenta[a]phenanthren-17-yl]oxy]-3,4,5-trihydroxy-2-oxanecarboxylic acid

> <PUBCHEM_IUPAC_NAME>
(2S,3S,4S,5R,6R)-6-[[(8R,9S,13S,14S,16R,17R)-3,16-dihydroxy-13-methyl-6,7,8,9,11,12,14,15,16,17-decahydrocyclopenta[a]phenanthren-17-yl]oxy]-3,4,5-trihydroxyoxane-2-carboxylic acid

> <PUBCHEM_IUPAC_SYSTEMATIC_NAME>
(2S,3S,4S,5R,6R)-6-[[(8R,9S,13S,14S,16R,17R)-13-methyl-3,16-bis(oxidanyl)-6,7,8,9,11,12,14,15,16,17-decahydrocyclopenta[a]phenanthren-17-yl]oxy]-3,4,5-tris(oxidanyl)oxane-2-carboxylic acid

> <PUBCHEM_IUPAC_TRADITIONAL_NAME>
(2S,3S,4S,5R,6R)-6-[[(8R,9S,13S,14S,16R,17R)-3,16-dihydroxy-13-methyl-6,7,8,9,11,12,14,15,16,17-decahydrocyclopenta[a]phenanthren-17-yl]oxy]-3,4,5-trihydroxy-tetrahydropyran-2-carboxylic acid

> <PUBCHEM_IUPAC_INCHI>
InChI=1S/C24H32O9/c1-24-7-6-13-12-5-3-11(25)8-10(12)2-4-14(13)15(24)9-16(26)21(24)33-23-19(29)17(27)18(28)20(32-23)22(30)31/h3,5,8,13-21,23,25-29H,2,4,6-7,9H2,1H3,(H,30,31)/t13-,14-,15+,16-,17+,18+,19-,20+,21+,23+,24+/m1/s1

> <PUBCHEM_IUPAC_INCHIKEY>
CZGFLAQOJPXVRV-FLVROIOLSA-N

> <PUBCHEM_XLOGP3>
1.1

> <PUBCHEM_EXACT_MASS>
464.204633

> <PUBCHEM_MOLECULAR_FORMULA>
C24H32O9

> <PUBCHEM_MOLECULAR_WEIGHT>
464.50548

> <PUBCHEM_OPENEYE_CAN_SMILES>
CC12CCC3C(C1CC(C2OC4C(C(C(C(O4)C(=O)O)O)O)O)O)CCC5=C3C=CC(=C5)O

> <PUBCHEM_OPENEYE_ISO_SMILES>
C[C@]12CC[C@H]3[C@H]([C@@H]1C[C@H]([C@@H]2O[C@H]4[C@@H]([C@H]([C@@H]([C@H](O4)C(=O)O)O)O)O)O)CCC5=C3C=CC(=C5)O

> <PUBCHEM_CACTVS_TPSA>
157

> <PUBCHEM_MONOISOTOPIC_WEIGHT>
464.204633

> <PUBCHEM_TOTAL_CHARGE>
0

> <PUBCHEM_HEAVY_ATOM_COUNT>
33

> <PUBCHEM_ATOM_DEF_STEREO_COUNT>
11

> <PUBCHEM_ATOM_UDEF_STEREO_COUNT>
0

> <PUBCHEM_BOND_DEF_STEREO_COUNT>
0

> <PUBCHEM_BOND_UDEF_STEREO_COUNT>
0

> <PUBCHEM_ISOTOPIC_ATOM_COUNT>
0

> <PUBCHEM_COMPONENT_COUNT>
1

> <PUBCHEM_CACTVS_TAUTO_COUNT>
9

> <PUBCHEM_COORDINATE_TYPE>
1
5
255

> <PUBCHEM_BONDANNOTATIONS>
13  1  5
24  1  5
10  20  5
11  34  6
12  35  5
14  37  6
17  2  6
21  23  8
21  25  8
23  26  8
25  28  8
26  30  8
28  30  8
31  33  5
27  4  6
29  5  5
32  7  6

$$$$

