   Color/Form

     * Red to lavender dimorphic, othorhombic crystals
     * Red orthorhombic crystals
     * Red powder

   from [1]HSDB

   Melting Point
        735 deg C
   from [2]HSDB

   Density/Specific Gravity
        3.71 @ 25 deg C/4 deg C
   from [3]HSDB

   Solubilities

     * 38.3 G/100 ML WATER @ 25 DEG C
     * 84 G/100 ML WATER @ 100 DEG C
     * 1.04 G/100 ML METHANOL @ 18 DEG C
     * INSOL IN AMMONIA
     * Dissolves slowly in boiling water
     * In water, 330 g/l @ 20 deg C

   from [4]HSDB

   Other Chemical/Physical Properties

     * Stable to 708 deg C
     * Mol wt: 281.10; red-pink, monoclinic crystals; index of refraction:
       1.477, 1.483, 1.489; density: 1.948 at 25 deg C/25 deg C; MP: 96.8
       deg C; BP: 420 deg C (loses 7H2O); solubility: 60.4 g/100 cc water
       at 3 deg C, 67 g/100 cc water at 70 deg C, 2.5 g/100 cc alcohol at
       3 deg C, 54.5 g/100 cc methanol at 18 deg C /Heptahydrate/
     * Mol wt: 263.08; red monoclinic crystals; index of refraction:
       1.531, 1.549, 1.552; density: 2.019 at 15 deg C/15 deg C; MP: 95
       deg C (loses 2H2O) /Hexahydrate/
     * Mol wt: 173.01; red crystals; index of refraction: 1.603, 1.639,
       1.683; density: 3.075 at 25 deg C; sol in water /Monohydrate/
     * Structure reported to be (Co(H2O)6)(H2SO5); ...on heating
       dehydrates to the hexahydrate at 41.5 deg C, and to the monohydrate
       at 71 deg C. /Heptahydrate/
     * Structure reported to be Co(H2SO5) /Monohydrate/
     * Odorless; heat of solution: 23 BTU/lb= 13 cal/g= 0.54X10+5 J/kg;
       solubility: 35.040 lb/100 lb water at 70 deg F /Heptahydrate/
     * Rose color monoclinic crystals; specific gravity: 3.08; dissolves
       slowly in boiling water /Cobalt(II) sulfate monohydrate/
     * Standard enthalpy of formation: -888.3 kJ/mol
     * Light red crystalline solid; loses waters of crystallization when
       heated above 42 deg C, producing the monohydrate at 100 deg C and
       anhydrous salt above 250 deg C; density: 2.01 kg/l @ 25 deg C
       /Cobalt(II) sulfate hexahydrate/
     * Density: 1.948 g/cu cm; loses heptahydrate at 420 deg C /Cobalt(II)
       sulfate heptahydrate/

   from [5]HSDB

   Computed Properties
   Molecular Weight                  154.995795 [g/mol]
   Molecular Formula                 CoO[4]S
   H-Bond Donor                      0
   H-Bond Acceptor                   4
   Rotatable Bond Count              0
   Exact Mass                        154.884924
   MonoIsotopic Mass                 154.884924
   Topological Polar Surface Area    88.6
   Heavy Atom Count                  6
   Formal Charge                     0
   Complexity                        62.2
   Isotope Atom Count                0
   Defined Atom Stereocenter Count   0
   Undefined Atom Stereocenter Count 0
   Defined Bond Stereocenter Count   0
   Undefined Bond Stereocenter Count 0
   Covalently-Bonded Unit Count      2

References

   1. http://toxnet.nlm.nih.gov/cgi-bin/sis/search/r?dbs+hsdb:@term+@rn+@rel+10124-43-3
   2. http://toxnet.nlm.nih.gov/cgi-bin/sis/search/r?dbs+hsdb:@term+@rn+@rel+10124-43-3
   3. http://toxnet.nlm.nih.gov/cgi-bin/sis/search/r?dbs+hsdb:@term+@rn+@rel+10124-43-3
   4. http://toxnet.nlm.nih.gov/cgi-bin/sis/search/r?dbs+hsdb:@term+@rn+@rel+10124-43-3
   5. http://toxnet.nlm.nih.gov/cgi-bin/sis/search/r?dbs+hsdb:@term+@rn+@rel+10124-43-3
