   Color/Form

     * COLORLESS OR YELLOW CRYSTALS, NEEDLES OR PLATES
     * White to yellow monoclinic plates
     * White crystals
     * Pale white or yellow, crystalline solid.

   from [1]HSDB

   Boiling Point
        319 deg C @ 773 mm Hg
   from [2]HSDB

   Melting Point
        117 - 118.5 deg C
   from [3]HSDB

   Corrosivity
        Liquid dinitrobenzene will attack some forms of plastics, rubber,
   and coatings. /Dinitrobenzene, all isomers/
   from [4]HSDB

   Density/Specific Gravity
        1.3119 g/cu cm
   from [5]HSDB

   Octanol/Water Partition Coefficient
        log Kow = 1.69
   from [6]HSDB

   Solubilities

     * Sol in alc, benzene, chloroform
     * 1 g dissolves in 6600 ml cold water, 2700 ml boiling water
     * In water, 133 mg/l @ 25 deg C

   from [7]HSDB

   Spectral Properties

     * SADTLER REF NUMBER: 12397 (IR, PRISM)
     * IR: 6608 (Coblentz Society Spectral Collection)
     * NMR: 7871 (Sadtler Research Laboratories Spectral Collection)
     * MASS: 80685 (NIST/EPA/MSDC Mass Spectral Database, 1990 version)

   from [8]HSDB

   Vapor Density
        5.79 (AIR= 1)
   from [9]HSDB

   Vapor Pressure
        4.55X10-5 mm Hg @ 25 deg C
   from [10]HSDB

   Other Chemical/Physical Properties
        1 mg/cu m= 0.14 ppm, 1 ppm= 6.99 mg/cu m
   from [11]HSDB

   Computed Properties
   Molecular Weight                  168.10696 [g/mol]
   Molecular Formula                 C[6]H[4]N[2]O[4]
   XLogP3                            1.7
   H-Bond Donor                      0
   H-Bond Acceptor                   4
   Rotatable Bond Count              0
   Exact Mass                        168.017107
   MonoIsotopic Mass                 168.017107
   Topological Polar Surface Area    91.6
   Heavy Atom Count                  12
   Formal Charge                     0
   Complexity                        173
   Isotope Atom Count                0
   Defined Atom Stereocenter Count   0
   Undefined Atom Stereocenter Count 0
   Defined Bond Stereocenter Count   0
   Undefined Bond Stereocenter Count 0
   Covalently-Bonded Unit Count      1
   Feature 3D Acceptor Count         4
   Feature 3D Anion Count            2
   Feature 3D Ring Count             1
   Effective Rotor Count             2
   Conformer Sampling RMSD           0.6
   CID Conformer Count               [12]2

References

   1. http://toxnet.nlm.nih.gov/cgi-bin/sis/search/r?dbs+hsdb:@term+@rn+@rel+528-29-0
   2. http://toxnet.nlm.nih.gov/cgi-bin/sis/search/r?dbs+hsdb:@term+@rn+@rel+528-29-0
   3. http://toxnet.nlm.nih.gov/cgi-bin/sis/search/r?dbs+hsdb:@term+@rn+@rel+528-29-0
   4. http://toxnet.nlm.nih.gov/cgi-bin/sis/search/r?dbs+hsdb:@term+@rn+@rel+528-29-0
   5. http://toxnet.nlm.nih.gov/cgi-bin/sis/search/r?dbs+hsdb:@term+@rn+@rel+528-29-0
   6. http://toxnet.nlm.nih.gov/cgi-bin/sis/search/r?dbs+hsdb:@term+@rn+@rel+528-29-0
   7. http://toxnet.nlm.nih.gov/cgi-bin/sis/search/r?dbs+hsdb:@term+@rn+@rel+528-29-0
   8. http://toxnet.nlm.nih.gov/cgi-bin/sis/search/r?dbs+hsdb:@term+@rn+@rel+528-29-0
   9. http://toxnet.nlm.nih.gov/cgi-bin/sis/search/r?dbs+hsdb:@term+@rn+@rel+528-29-0
  10. http://toxnet.nlm.nih.gov/cgi-bin/sis/search/r?dbs+hsdb:@term+@rn+@rel+528-29-0
  11. http://toxnet.nlm.nih.gov/cgi-bin/sis/search/r?dbs+hsdb:@term+@rn+@rel+528-29-0
  12. http://pubchem.ncbi.nlm.nih.gov/vw3d/vw3d.cgi?cid=10707
