   Color/Form

     * White crystals
     * Monoclinic prisms (sublimation); needles from water; prisms from
       methanol
     * Light-tan, light-gray, or colorless crystals.

   from [1]HSDB

   Odor
        Odorless
   from [2]HSDB

   Taste
        A slightly bitter taste in aqueous solutions
   from [3]HSDB

   Boiling Point
        285-287 deg C
   from [4]HSDB

   Melting Point
        170-171 deg C
   from [5]HSDB

   Critical Temperature and Pressure
        Critical temperature: 549 deg C; critical pressure: 7.45 MPa
   from [6]HSDB

   Density/Specific Gravity
        1.330 g/cu cm at 20 deg C
   from [7]HSDB

   Dissociation Constants

     * pKa = 9.96
     * pKa = 10.85 at 25 deg C

   from [8]HSDB

   Heat of Combustion
        -2.74X10+3 kJ/mol
   from [9]HSDB

   Octanol/Water Partition Coefficient
        log Kow = 0.59
   from [10]HSDB

   Solubilities

     * Grams of hydroquinone per 100 g solvent (30 deg C); ethanol 46.4;
       acetone 28.4; water 8.3; benzene 0.06; tetrachloromethane 0.01
     * Solulble in 14 parts water; slightly soluble in benzene
     * Sol in ethyl ether
     * Very soluble in carbon tetrachloride
     * Water solubility = 3.85 g/L at 0 deg C; 5.12 g/L at 10 deg C; 5.40
       g/L at 15 deg C; 6.72 g/L at 20 deg C; 8.76 g/L at 30 deg C; 11.5
       g/L at 40 deg C; 25/9 g/L at 60 deg C; 46.8 g/L at 80 deg C; 66.4
       g/L at 100 deg C
     * 7% soluble in water at 25 deg C
     * In water, 72,000 mg/L at 25 deg C

   from [11]HSDB

   Spectral Properties

     * MAX ABSORPTION (WATER): 288 NM (LOG E= 3.36)
     * Index of refraction = 1.632 at 25 deg C
     * IR: 2882 (Coblentz Society Spectral Collection)
     * UV: 60 (Sadtler Research Laboratories Spectral Collection)
     * NMR: 10350 (Sadtler Research Laboratories Spectral Collection)
     * MASS: 1529 (NIST/EPA/MSDC Mass Spectral Database, 1990 version)
     * Intense mass spectral peaks: 81 m/z, 110 m/z

   from [12]HSDB

   Vapor Density
        3.81 (Air = 1)
   from [13]HSDB

   Vapor Pressure
        1.9X10-5 mm Hg at 25 deg C
   from [14]HSDB

   Other Chemical/Physical Properties

     * Solution becomes brown in the air due to oxidation; oxidation is
       very rapid in presence of alkali
     * Density of "saturated" air = 1.011 (150 deg C) (air = 1) ...
       Crystals remain relatively stable in air if dry ... Reacts with
       molecular oxygen undergoing autooxidation in aqueous media
     * Liquid molar volume = 0.123 cu m/kmol (determined at triple point)
     * Ideal Gas Heat of Formation = -2.6X10+8 J/kmol
     * Heat of fusion at melting point = 2.71X10+7 J/kmol
     * Vapor Pressure = 4.0 mm Hg at 150 deg C; 40 mmHg at 192 deg C; 200
       mm Hg at 238 deg C. Saturation concentration in air = 0.00006 g/cu
       m at 25 deg C
     * Enthalpy of sublimation = 24.8; Absolute entropy = 344.17 J/mole-K
     * Particle size analysis showed an average length distribution of <
       1% of particles < 100 um long
     * Crystals discolored by light and air
     * Henry's Law constant = 3.82X10-11 atm-cu m/mole at 25 deg C (est)
     * Hydroxyl radical reaction rate constant = 2.32X10-11 cu
       cm/molecule-sec at 25 deg C (est)

   from [15]HSDB

   Computed Properties
   Molecular Weight                  110.11064 [g/mol]
   Molecular Formula                 C[6]H[6]O[2]
   XLogP3                            0.6
   H-Bond Donor                      2
   H-Bond Acceptor                   2
   Rotatable Bond Count              0
   Tautomer Count                    3
   Exact Mass                        110.036779
   MonoIsotopic Mass                 110.036779
   Topological Polar Surface Area    40.5
   Heavy Atom Count                  8
   Formal Charge                     0
   Complexity                        54.9
   Isotope Atom Count                0
   Defined Atom Stereocenter Count   0
   Undefined Atom Stereocenter Count 0
   Defined Bond Stereocenter Count   0
   Undefined Bond Stereocenter Count 0
   Covalently-Bonded Unit Count      1
   Feature 3D Donor Count            2
   Feature 3D Ring Count             1
   Effective Rotor Count             0
   Conformer Sampling RMSD           0.4
   CID Conformer Count               [16]1

References

   1. http://toxnet.nlm.nih.gov/cgi-bin/sis/search/r?dbs+hsdb:@term+@rn+@rel+123-31-9
   2. http://toxnet.nlm.nih.gov/cgi-bin/sis/search/r?dbs+hsdb:@term+@rn+@rel+123-31-9
   3. http://toxnet.nlm.nih.gov/cgi-bin/sis/search/r?dbs+hsdb:@term+@rn+@rel+123-31-9
   4. http://toxnet.nlm.nih.gov/cgi-bin/sis/search/r?dbs+hsdb:@term+@rn+@rel+123-31-9
   5. http://toxnet.nlm.nih.gov/cgi-bin/sis/search/r?dbs+hsdb:@term+@rn+@rel+123-31-9
   6. http://toxnet.nlm.nih.gov/cgi-bin/sis/search/r?dbs+hsdb:@term+@rn+@rel+123-31-9
   7. http://toxnet.nlm.nih.gov/cgi-bin/sis/search/r?dbs+hsdb:@term+@rn+@rel+123-31-9
   8. http://toxnet.nlm.nih.gov/cgi-bin/sis/search/r?dbs+hsdb:@term+@rn+@rel+123-31-9
   9. http://toxnet.nlm.nih.gov/cgi-bin/sis/search/r?dbs+hsdb:@term+@rn+@rel+123-31-9
  10. http://toxnet.nlm.nih.gov/cgi-bin/sis/search/r?dbs+hsdb:@term+@rn+@rel+123-31-9
  11. http://toxnet.nlm.nih.gov/cgi-bin/sis/search/r?dbs+hsdb:@term+@rn+@rel+123-31-9
  12. http://toxnet.nlm.nih.gov/cgi-bin/sis/search/r?dbs+hsdb:@term+@rn+@rel+123-31-9
  13. http://toxnet.nlm.nih.gov/cgi-bin/sis/search/r?dbs+hsdb:@term+@rn+@rel+123-31-9
  14. http://toxnet.nlm.nih.gov/cgi-bin/sis/search/r?dbs+hsdb:@term+@rn+@rel+123-31-9
  15. http://toxnet.nlm.nih.gov/cgi-bin/sis/search/r?dbs+hsdb:@term+@rn+@rel+123-31-9
  16. http://pubchem.ncbi.nlm.nih.gov/vw3d/vw3d.cgi?cid=785
