44237182
  -OEChem-07051213102D

 31 30  0     1  0  0  0  0  0999 V2000
    3.1350    2.4335    0.0000 S   0  0  0  0  0  0  0  0  0  0  0  0
    5.6350   -1.8966    0.0000 O   0  0  0  0  0  0  0  0  0  0  0  0
    6.8671   -1.0306    0.0000 O   0  0  0  0  0  0  0  0  0  0  0  0
    6.0010    0.4694    0.0000 O   0  0  0  0  0  0  0  0  0  0  0  0
    2.5369   -1.5306    0.0000 O   0  0  0  0  0  0  0  0  0  0  0  0
    3.4030   -0.0306    0.0000 O   0  0  0  0  0  0  0  0  0  0  0  0
    5.1350   -1.0306    0.0000 C   0  0  3  0  0  0  0  0  0  0  0  0
    4.6350   -0.1645    0.0000 C   0  0  0  0  0  0  0  0  0  0  0  0
    5.1350    0.7015    0.0000 C   0  0  0  0  0  0  0  0  0  0  0  0
    4.6350    1.5675    0.0000 C   0  0  0  0  0  0  0  0  0  0  0  0
    4.2690   -1.5306    0.0000 C   0  0  0  0  0  0  0  0  0  0  0  0
    6.0010   -0.5306    0.0000 C   0  0  0  0  0  0  0  0  0  0  0  0
    3.6350    1.5675    0.0000 C   0  0  0  0  0  0  0  0  0  0  0  0
    3.4030   -1.0306    0.0000 C   0  0  0  0  0  0  0  0  0  0  0  0
    2.1350    2.4335    0.0000 C   0  0  0  0  0  0  0  0  0  0  0  0
    4.1601    0.2340    0.0000 H   0  0  0  0  0  0  0  0  0  0  0  0
    4.1601   -0.5631    0.0000 H   0  0  0  0  0  0  0  0  0  0  0  0
    5.6100    0.3030    0.0000 H   0  0  0  0  0  0  0  0  0  0  0  0
    5.6100    1.1000    0.0000 H   0  0  0  0  0  0  0  0  0  0  0  0
    5.2176    1.7796    0.0000 H   0  0  0  0  0  0  0  0  0  0  0  0
    4.5274    2.1781    0.0000 H   0  0  0  0  0  0  0  0  0  0  0  0
    3.8705   -2.0055    0.0000 H   0  0  0  0  0  0  0  0  0  0  0  0
    4.6675   -2.0055    0.0000 H   0  0  0  0  0  0  0  0  0  0  0  0
    3.0524    1.3554    0.0000 H   0  0  0  0  0  0  0  0  0  0  0  0
    3.7427    0.9569    0.0000 H   0  0  0  0  0  0  0  0  0  0  0  0
    5.3250   -2.4335    0.0000 H   0  0  0  0  0  0  0  0  0  0  0  0
    7.4040   -0.7206    0.0000 H   0  0  0  0  0  0  0  0  0  0  0  0
    2.1350    3.0535    0.0000 H   0  0  0  0  0  0  0  0  0  0  0  0
    1.5150    2.4335    0.0000 H   0  0  0  0  0  0  0  0  0  0  0  0
    2.1350    1.8135    0.0000 H   0  0  0  0  0  0  0  0  0  0  0  0
    2.0000   -1.2206    0.0000 H   0  0  0  0  0  0  0  0  0  0  0  0
  1 13  1  0  0  0  0
  1 15  1  0  0  0  0
  2  7  1  0  0  0  0
  2 26  1  0  0  0  0
  3 12  1  0  0  0  0
  3 27  1  0  0  0  0
  4 12  2  0  0  0  0
  5 14  1  0  0  0  0
  5 31  1  0  0  0  0
  6 14  2  0  0  0  0
  7  8  1  0  0  0  0
  7 11  1  0  0  0  0
  7 12  1  0  0  0  0
  8  9  1  0  0  0  0
  8 16  1  0  0  0  0
  8 17  1  0  0  0  0
  9 10  1  0  0  0  0
  9 18  1  0  0  0  0
  9 19  1  0  0  0  0
 10 13  1  0  0  0  0
 10 20  1  0  0  0  0
 10 21  1  0  0  0  0
 11 14  1  0  0  0  0
 11 22  1  0  0  0  0
 11 23  1  0  0  0  0
 13 24  1  0  0  0  0
 13 25  1  0  0  0  0
 15 28  1  0  0  0  0
 15 29  1  0  0  0  0
 15 30  1  0  0  0  0
M  END
> <PUBCHEM_COMPOUND_CID>
44237182

> <PUBCHEM_COMPOUND_CANONICALIZED>
1

> <PUBCHEM_CACTVS_COMPLEXITY>
231

> <PUBCHEM_CACTVS_HBOND_ACCEPTOR>
6

> <PUBCHEM_CACTVS_HBOND_DONOR>
3

> <PUBCHEM_CACTVS_ROTATABLE_BOND>
8

> <PUBCHEM_CACTVS_SUBSKEYS>
AAADceBwOABAAAAAAAAAAAAAAAAAAAAAAAAAAAAAAAAAAAAAAAAAGgQACAAADESEwACCCAAAAggIAACQCAIAAAAAABAAAAFAAAABABYgAAAAQAAFIAABAAHLyCCOAAAAAAAAAAAAAAAAAAAAAAAAAAAAAA==

> <PUBCHEM_IUPAC_OPENEYE_NAME>
2-hydroxy-2-(4-methylsulfanylbutyl)butanedioic acid

> <PUBCHEM_IUPAC_CAS_NAME>
2-hydroxy-2-[4-(methylthio)butyl]butanedioic acid

> <PUBCHEM_IUPAC_NAME>
2-hydroxy-2-(4-methylsulfanylbutyl)butanedioic acid

> <PUBCHEM_IUPAC_SYSTEMATIC_NAME>
2-(4-methylsulfanylbutyl)-2-oxidanyl-butanedioic acid

> <PUBCHEM_IUPAC_TRADITIONAL_NAME>
2-hydroxy-2-[4-(methylthio)butyl]succinic acid

> <PUBCHEM_IUPAC_INCHI>
InChI=1S/C9H16O5S/c1-15-5-3-2-4-9(14,8(12)13)6-7(10)11/h14H,2-6H2,1H3,(H,10,11)(H,12,13)

> <PUBCHEM_IUPAC_INCHIKEY>
MHYITDUVXNMMNZ-UHFFFAOYSA-N

> <PUBCHEM_XLOGP3_AA>
0.2

> <PUBCHEM_EXACT_MASS>
236.071845

> <PUBCHEM_MOLECULAR_FORMULA>
C9H16O5S

> <PUBCHEM_MOLECULAR_WEIGHT>
236.28534

> <PUBCHEM_OPENEYE_CAN_SMILES>
CSCCCCC(CC(=O)O)(C(=O)O)O

> <PUBCHEM_OPENEYE_ISO_SMILES>
CSCCCCC(CC(=O)O)(C(=O)O)O

> <PUBCHEM_CACTVS_TPSA>
120

> <PUBCHEM_MONOISOTOPIC_WEIGHT>
236.071845

> <PUBCHEM_TOTAL_CHARGE>
0

> <PUBCHEM_HEAVY_ATOM_COUNT>
15

> <PUBCHEM_ATOM_DEF_STEREO_COUNT>
0

> <PUBCHEM_ATOM_UDEF_STEREO_COUNT>
1

> <PUBCHEM_BOND_DEF_STEREO_COUNT>
0

> <PUBCHEM_BOND_UDEF_STEREO_COUNT>
0

> <PUBCHEM_ISOTOPIC_ATOM_COUNT>
0

> <PUBCHEM_COMPONENT_COUNT>
1

> <PUBCHEM_CACTVS_TAUTO_COUNT>
1

> <PUBCHEM_COORDINATE_TYPE>
1
5
255

> <PUBCHEM_BONDANNOTATIONS>
7  2  3

$$$$

