41635
  -OEChem-07051212482D

 37 36  0     1  0  0  0  0  0999 V2000
    3.4030   -0.7220    0.0000 P   0  0  0  0  0  0  0  0  0  0  0  0
    4.2690   -0.2220    0.0000 O   0  0  0  0  0  0  0  0  0  0  0  0
    6.8671    1.2780    0.0000 O   0  0  0  0  0  0  0  0  0  0  0  0
    7.7331   -1.2220    0.0000 O   0  0  0  0  0  0  0  0  0  0  0  0
    2.5369   -1.2220    0.0000 O   0  0  0  0  0  0  0  0  0  0  0  0
    2.9030    0.1440    0.0000 O   0  0  0  0  0  0  0  0  0  0  0  0
    3.9030   -1.5880    0.0000 O   0  0  0  0  0  0  0  0  0  0  0  0
   12.0632    0.2780    0.0000 O   0  0  0  0  0  0  0  0  0  0  0  0
   11.1972   -1.2220    0.0000 O   0  0  0  0  0  0  0  0  0  0  0  0
    8.5991    0.2780    0.0000 N   0  0  0  0  0  0  0  0  0  0  0  0
    6.0010   -0.2220    0.0000 C   0  0  0  0  0  0  0  0  0  0  0  0
    6.8671    0.2780    0.0000 C   0  0  2  0  0  0  0  0  0  0  0  0
    5.1350   -0.7220    0.0000 C   0  0  0  0  0  0  0  0  0  0  0  0
    5.5010    0.6440    0.0000 C   0  0  0  0  0  0  0  0  0  0  0  0
    6.5010   -1.0880    0.0000 C   0  0  0  0  0  0  0  0  0  0  0  0
    7.7331   -0.2220    0.0000 C   0  0  0  0  0  0  0  0  0  0  0  0
    9.4651   -0.2220    0.0000 C   0  0  0  0  0  0  0  0  0  0  0  0
   10.3312    0.2780    0.0000 C   0  0  0  0  0  0  0  0  0  0  0  0
   11.1972   -0.2220    0.0000 C   0  0  0  0  0  0  0  0  0  0  0  0
    6.3301    0.5880    0.0000 H   0  0  0  0  0  0  0  0  0  0  0  0
    4.7365   -1.1969    0.0000 H   0  0  0  0  0  0  0  0  0  0  0  0
    5.5335   -1.1969    0.0000 H   0  0  0  0  0  0  0  0  0  0  0  0
    6.0380    0.9540    0.0000 H   0  0  0  0  0  0  0  0  0  0  0  0
    5.9641   -1.3980    0.0000 H   0  0  0  0  0  0  0  0  0  0  0  0
    6.8110   -1.6249    0.0000 H   0  0  0  0  0  0  0  0  0  0  0  0
    7.0380   -0.7780    0.0000 H   0  0  0  0  0  0  0  0  0  0  0  0
    5.1910    1.1810    0.0000 H   0  0  0  0  0  0  0  0  0  0  0  0
    4.9641    0.3340    0.0000 H   0  0  0  0  0  0  0  0  0  0  0  0
    7.4040    1.5880    0.0000 H   0  0  0  0  0  0  0  0  0  0  0  0
    8.5991    0.8980    0.0000 H   0  0  0  0  0  0  0  0  0  0  0  0
    9.0666   -0.6969    0.0000 H   0  0  0  0  0  0  0  0  0  0  0  0
    9.8637   -0.6969    0.0000 H   0  0  0  0  0  0  0  0  0  0  0  0
   10.7297    0.7530    0.0000 H   0  0  0  0  0  0  0  0  0  0  0  0
    9.9326    0.7530    0.0000 H   0  0  0  0  0  0  0  0  0  0  0  0
    2.0000   -0.9120    0.0000 H   0  0  0  0  0  0  0  0  0  0  0  0
    3.2130    0.6810    0.0000 H   0  0  0  0  0  0  0  0  0  0  0  0
   12.6002   -0.0320    0.0000 H   0  0  0  0  0  0  0  0  0  0  0  0
  1  2  1  0  0  0  0
  1  5  1  0  0  0  0
  1  6  1  0  0  0  0
  1  7  2  0  0  0  0
  2 13  1  0  0  0  0
 12  3  1  1  0  0  0
  3 29  1  0  0  0  0
  4 16  2  0  0  0  0
  5 35  1  0  0  0  0
  6 36  1  0  0  0  0
  8 19  1  0  0  0  0
  8 37  1  0  0  0  0
  9 19  2  0  0  0  0
 10 16  1  0  0  0  0
 10 17  1  0  0  0  0
 10 30  1  0  0  0  0
 11 12  1  0  0  0  0
 11 13  1  0  0  0  0
 11 14  1  0  0  0  0
 11 15  1  0  0  0  0
 12 16  1  0  0  0  0
 12 20  1  0  0  0  0
 13 21  1  0  0  0  0
 13 22  1  0  0  0  0
 14 23  1  0  0  0  0
 14 27  1  0  0  0  0
 14 28  1  0  0  0  0
 15 24  1  0  0  0  0
 15 25  1  0  0  0  0
 15 26  1  0  0  0  0
 17 18  1  0  0  0  0
 17 31  1  0  0  0  0
 17 32  1  0  0  0  0
 18 19  1  0  0  0  0
 18 33  1  0  0  0  0
 18 34  1  0  0  0  0
M  END
> <PUBCHEM_COMPOUND_CID>
41635

> <PUBCHEM_COMPOUND_CANONICALIZED>
1

> <PUBCHEM_CACTVS_COMPLEXITY>
376

> <PUBCHEM_CACTVS_HBOND_ACCEPTOR>
8

> <PUBCHEM_CACTVS_HBOND_DONOR>
5

> <PUBCHEM_CACTVS_ROTATABLE_BOND>
8

> <PUBCHEM_CACTVS_SUBSKEYS>
AAADceByPAIAAAAAAAAAAAAAAAAAAAAAAAAAAAAAAAAAAAAAAAAAHgAQCCAADhThgAYCCALAAxAIQAGQGIIAAAAAAAAAAIFIAAACEBgAgAAEQAAHFgCQAAAiAAAJAAAAAAAAAAAAAAAAAAAAAAAAAAAAAA==

> <PUBCHEM_IUPAC_OPENEYE_NAME>
3-[[(2R)-2-hydroxy-3,3-dimethyl-4-phosphonooxy-butanoyl]amino]propanoic acid

> <PUBCHEM_IUPAC_CAS_NAME>
3-[[(2R)-2-hydroxy-3,3-dimethyl-1-oxo-4-phosphonooxybutyl]amino]propanoic acid

> <PUBCHEM_IUPAC_NAME>
3-[[(2R)-2-hydroxy-3,3-dimethyl-4-phosphonooxybutanoyl]amino]propanoic acid

> <PUBCHEM_IUPAC_SYSTEMATIC_NAME>
3-[[(2R)-3,3-dimethyl-2-oxidanyl-4-phosphonooxy-butanoyl]amino]propanoic acid

> <PUBCHEM_IUPAC_TRADITIONAL_NAME>
3-[[(2R)-2-hydroxy-3,3-dimethyl-4-phosphonooxy-butanoyl]amino]propionic acid

> <PUBCHEM_IUPAC_INCHI>
InChI=1S/C9H18NO8P/c1-9(2,5-18-19(15,16)17)7(13)8(14)10-4-3-6(11)12/h7,13H,3-5H2,1-2H3,(H,10,14)(H,11,12)(H2,15,16,17)/t7-/m0/s1

> <PUBCHEM_IUPAC_INCHIKEY>
XHFVGHPGDLDEQO-ZETCQYMHSA-N

> <PUBCHEM_XLOGP3_AA>
-2.2

> <PUBCHEM_EXACT_MASS>
299.077003

> <PUBCHEM_MOLECULAR_FORMULA>
C9H18NO8P

> <PUBCHEM_MOLECULAR_WEIGHT>
299.214882

> <PUBCHEM_OPENEYE_CAN_SMILES>
CC(C)(COP(=O)(O)O)C(C(=O)NCCC(=O)O)O

> <PUBCHEM_OPENEYE_ISO_SMILES>
CC(C)(COP(=O)(O)O)[C@H](C(=O)NCCC(=O)O)O

> <PUBCHEM_CACTVS_TPSA>
153

> <PUBCHEM_MONOISOTOPIC_WEIGHT>
299.077003

> <PUBCHEM_TOTAL_CHARGE>
0

> <PUBCHEM_HEAVY_ATOM_COUNT>
19

> <PUBCHEM_ATOM_DEF_STEREO_COUNT>
1

> <PUBCHEM_ATOM_UDEF_STEREO_COUNT>
0

> <PUBCHEM_BOND_DEF_STEREO_COUNT>
0

> <PUBCHEM_BOND_UDEF_STEREO_COUNT>
0

> <PUBCHEM_ISOTOPIC_ATOM_COUNT>
0

> <PUBCHEM_COMPONENT_COUNT>
1

> <PUBCHEM_CACTVS_TAUTO_COUNT>
2

> <PUBCHEM_COORDINATE_TYPE>
1
5
255

> <PUBCHEM_BONDANNOTATIONS>
12  3  5

$$$$

