5281979
  -OEChem-07051213022D

 54 54  0     1  0  0  0  0  0999 V2000
    3.2601   -6.5194    0.0000 O   0  0  0  0  0  0  0  0  0  0  0  0
    6.3582   -2.4806    0.0000 O   0  0  0  0  0  0  0  0  0  0  0  0
    5.4921   -3.9806    0.0000 O   0  0  0  0  0  0  0  0  0  0  0  0
    2.0000   -5.2594    0.0000 O   0  0  0  0  0  0  0  0  0  0  0  0
    3.7601   -3.9806    0.0000 N   0  0  0  0  0  0  0  0  0  0  0  0
    3.7601   -4.9806    0.0000 C   0  0  1  0  0  0  0  0  0  0  0  0
    5.4921   -1.9806    0.0000 C   0  0  3  0  0  0  0  0  0  0  0  0
    5.4921   -0.9806    0.0000 C   0  0  0  0  0  0  0  0  0  0  0  0
    4.5691   -5.5684    0.0000 C   0  0  0  0  0  0  0  0  0  0  0  0
    6.3582   -0.4806    0.0000 C   0  0  0  0  0  0  0  0  0  0  0  0
    4.6261   -2.4806    0.0000 C   0  0  0  0  0  0  0  0  0  0  0  0
    4.2601   -6.5194    0.0000 C   0  0  0  0  0  0  0  0  0  0  0  0
    6.3582    0.5194    0.0000 C   0  0  0  0  0  0  0  0  0  0  0  0
    4.6261   -3.4806    0.0000 C   0  0  0  0  0  0  0  0  0  0  0  0
    2.9511   -5.5684    0.0000 C   0  0  0  0  0  0  0  0  0  0  0  0
    6.3582    3.5194    0.0000 C   0  0  0  0  0  0  0  0  0  0  0  0
    5.4921    4.0194    0.0000 C   0  0  0  0  0  0  0  0  0  0  0  0
    6.3582    2.5194    0.0000 C   0  0  0  0  0  0  0  0  0  0  0  0
    5.4921    5.0194    0.0000 C   0  0  0  0  0  0  0  0  0  0  0  0
    7.2242    1.0194    0.0000 C   0  0  0  0  0  0  0  0  0  0  0  0
    7.2242    2.0194    0.0000 C   0  0  0  0  0  0  0  0  0  0  0  0
    4.6261    5.5194    0.0000 C   0  0  0  0  0  0  0  0  0  0  0  0
    4.6261    6.5194    0.0000 C   0  0  0  0  0  0  0  0  0  0  0  0
    4.3125   -4.6991    0.0000 H   0  0  0  0  0  0  0  0  0  0  0  0
    6.2282   -1.5556    0.0000 H   0  0  0  0  0  0  0  0  0  0  0  0
    5.2801   -0.3980    0.0000 H   0  0  0  0  0  0  0  0  0  0  0  0
    4.8815   -1.0882    0.0000 H   0  0  0  0  0  0  0  0  0  0  0  0
    5.1355   -5.8205    0.0000 H   0  0  0  0  0  0  0  0  0  0  0  0
    4.8791   -5.0314    0.0000 H   0  0  0  0  0  0  0  0  0  0  0  0
    6.5702   -1.0632    0.0000 H   0  0  0  0  0  0  0  0  0  0  0  0
    6.9687   -0.3729    0.0000 H   0  0  0  0  0  0  0  0  0  0  0  0
    4.4140   -1.8980    0.0000 H   0  0  0  0  0  0  0  0  0  0  0  0
    4.0155   -2.5882    0.0000 H   0  0  0  0  0  0  0  0  0  0  0  0
    4.1953   -7.1360    0.0000 H   0  0  0  0  0  0  0  0  0  0  0  0
    4.8665   -6.6483    0.0000 H   0  0  0  0  0  0  0  0  0  0  0  0
    3.2231   -3.6706    0.0000 H   0  0  0  0  0  0  0  0  0  0  0  0
    6.1461    1.1020    0.0000 H   0  0  0  0  0  0  0  0  0  0  0  0
    5.7476    0.4118    0.0000 H   0  0  0  0  0  0  0  0  0  0  0  0
    6.9687    3.4118    0.0000 H   0  0  0  0  0  0  0  0  0  0  0  0
    6.5702    4.1020    0.0000 H   0  0  0  0  0  0  0  0  0  0  0  0
    4.8815    4.1271    0.0000 H   0  0  0  0  0  0  0  0  0  0  0  0
    5.2801    3.4368    0.0000 H   0  0  0  0  0  0  0  0  0  0  0  0
    5.7476    2.6271    0.0000 H   0  0  0  0  0  0  0  0  0  0  0  0
    6.1461    1.9368    0.0000 H   0  0  0  0  0  0  0  0  0  0  0  0
    6.1027    4.9118    0.0000 H   0  0  0  0  0  0  0  0  0  0  0  0
    5.7042    5.6020    0.0000 H   0  0  0  0  0  0  0  0  0  0  0  0
    7.7611    0.7094    0.0000 H   0  0  0  0  0  0  0  0  0  0  0  0
    7.7611    2.3294    0.0000 H   0  0  0  0  0  0  0  0  0  0  0  0
    4.0155    5.6271    0.0000 H   0  0  0  0  0  0  0  0  0  0  0  0
    4.4140    4.9368    0.0000 H   0  0  0  0  0  0  0  0  0  0  0  0
    6.8951   -2.1706    0.0000 H   0  0  0  0  0  0  0  0  0  0  0  0
    5.2461    6.5194    0.0000 H   0  0  0  0  0  0  0  0  0  0  0  0
    4.6261    7.1394    0.0000 H   0  0  0  0  0  0  0  0  0  0  0  0
    4.0061    6.5194    0.0000 H   0  0  0  0  0  0  0  0  0  0  0  0
  1 12  1  0  0  0  0
  1 15  1  0  0  0  0
  2  7  1  0  0  0  0
  2 51  1  0  0  0  0
  3 14  2  0  0  0  0
  4 15  2  0  0  0  0
  6  5  1  1  0  0  0
  5 14  1  0  0  0  0
  5 36  1  0  0  0  0
  6  9  1  0  0  0  0
  6 15  1  0  0  0  0
  6 24  1  0  0  0  0
  7  8  1  0  0  0  0
  7 11  1  0  0  0  0
  7 25  1  0  0  0  0
  8 10  1  0  0  0  0
  8 26  1  0  0  0  0
  8 27  1  0  0  0  0
  9 12  1  0  0  0  0
  9 28  1  0  0  0  0
  9 29  1  0  0  0  0
 10 13  1  0  0  0  0
 10 30  1  0  0  0  0
 10 31  1  0  0  0  0
 11 14  1  0  0  0  0
 11 32  1  0  0  0  0
 11 33  1  0  0  0  0
 12 34  1  0  0  0  0
 12 35  1  0  0  0  0
 13 20  1  0  0  0  0
 13 37  1  0  0  0  0
 13 38  1  0  0  0  0
 16 17  1  0  0  0  0
 16 18  1  0  0  0  0
 16 39  1  0  0  0  0
 16 40  1  0  0  0  0
 17 19  1  0  0  0  0
 17 41  1  0  0  0  0
 17 42  1  0  0  0  0
 18 21  1  0  0  0  0
 18 43  1  0  0  0  0
 18 44  1  0  0  0  0
 19 22  1  0  0  0  0
 19 45  1  0  0  0  0
 19 46  1  0  0  0  0
 20 21  2  0  0  0  0
 20 47  1  0  0  0  0
 21 48  1  0  0  0  0
 22 23  1  0  0  0  0
 22 49  1  0  0  0  0
 22 50  1  0  0  0  0
 23 52  1  0  0  0  0
 23 53  1  0  0  0  0
 23 54  1  0  0  0  0
M  END
> <PUBCHEM_COMPOUND_CID>
5281979

> <PUBCHEM_COMPOUND_CANONICALIZED>
1

> <PUBCHEM_CACTVS_COMPLEXITY>
381

> <PUBCHEM_CACTVS_HBOND_ACCEPTOR>
4

> <PUBCHEM_CACTVS_HBOND_DONOR>
2

> <PUBCHEM_CACTVS_ROTATABLE_BOND>
12

> <PUBCHEM_CACTVS_SUBSKEYS>
AAADceB6OAAAAAAAAAAAAAAAAAAAASAAAAAAAAAAAAAAAAAAAAAAHgAQCAAACDzhgAYCCALABgCIACHSGAAAAAAgAAAICIGIAAgCEBYAgSAHQAAGtgCYAAOaiACAAAAAAAAAAAAAAAAAAAAAAAAAAAAAAA==

> <PUBCHEM_IUPAC_OPENEYE_NAME>
(Z)-3-hydroxy-N-[(3S)-2-oxotetrahydrofuran-3-yl]tetradec-7-enamide

> <PUBCHEM_IUPAC_CAS_NAME>
(Z)-3-hydroxy-N-[(3S)-2-oxo-3-oxolanyl]-7-tetradecenamide

> <PUBCHEM_IUPAC_NAME>
(Z)-3-hydroxy-N-[(3S)-2-oxooxolan-3-yl]tetradec-7-enamide

> <PUBCHEM_IUPAC_SYSTEMATIC_NAME>
(Z)-3-oxidanyl-N-[(3S)-2-oxidanylideneoxolan-3-yl]tetradec-7-enamide

> <PUBCHEM_IUPAC_TRADITIONAL_NAME>
(Z)-3-hydroxy-N-[(3S)-2-ketotetrahydrofuran-3-yl]tetradec-7-enamide

> <PUBCHEM_IUPAC_INCHI>
InChI=1S/C18H31NO4/c1-2-3-4-5-6-7-8-9-10-11-15(20)14-17(21)19-16-12-13-23-18(16)22/h7-8,15-16,20H,2-6,9-14H2,1H3,(H,19,21)/b8-7-/t15?,16-/m0/s1

> <PUBCHEM_IUPAC_INCHIKEY>
GFSFGXWHLLUVRK-UPVLWJCGSA-N

> <PUBCHEM_XLOGP3_AA>
4.1

> <PUBCHEM_EXACT_MASS>
325.225308

> <PUBCHEM_MOLECULAR_FORMULA>
C18H31NO4

> <PUBCHEM_MOLECULAR_WEIGHT>
325.44304

> <PUBCHEM_OPENEYE_CAN_SMILES>
CCCCCCC=CCCCC(CC(=O)NC1CCOC1=O)O

> <PUBCHEM_OPENEYE_ISO_SMILES>
CCCCCC/C=C\CCCC(CC(=O)N[C@H]1CCOC1=O)O

> <PUBCHEM_CACTVS_TPSA>
75.6

> <PUBCHEM_MONOISOTOPIC_WEIGHT>
325.225308

> <PUBCHEM_TOTAL_CHARGE>
0

> <PUBCHEM_HEAVY_ATOM_COUNT>
23

> <PUBCHEM_ATOM_DEF_STEREO_COUNT>
1

> <PUBCHEM_ATOM_UDEF_STEREO_COUNT>
1

> <PUBCHEM_BOND_DEF_STEREO_COUNT>
1

> <PUBCHEM_BOND_UDEF_STEREO_COUNT>
0

> <PUBCHEM_ISOTOPIC_ATOM_COUNT>
0

> <PUBCHEM_COMPONENT_COUNT>
1

> <PUBCHEM_CACTVS_TAUTO_COUNT>
4

> <PUBCHEM_COORDINATE_TYPE>
1
5
255

> <PUBCHEM_BONDANNOTATIONS>
6  5  5
7  25  3

$$$$

