10356588
  -OEChem-07051212552D

 40 43  0     1  0  0  0  0  0999 V2000
    4.8885    0.9311    0.0000 O   0  0  0  0  0  0  0  0  0  0  0  0
    2.8660   -0.0709    0.0000 O   0  0  0  0  0  0  0  0  0  0  0  0
    7.6534    2.8000    0.0000 O   0  0  0  0  0  0  0  0  0  0  0  0
    7.2255   -1.9737    0.0000 N   0  0  3  0  0  0  0  0  0  0  0  0
    6.2493    0.0534    0.0000 C   0  0  1  0  0  0  0  0  0  0  0  0
    5.7341    0.9756    0.0000 C   0  0  2  0  0  0  0  0  0  0  0  0
    5.4664   -0.5709    0.0000 C   0  0  0  0  0  0  0  0  0  0  0  0
    7.2255   -0.1694    0.0000 C   0  0  0  0  0  0  0  0  0  0  0  0
    6.1939    1.8651    0.0000 C   0  0  0  0  0  0  0  0  0  0  0  0
    7.2748    0.1792    0.0000 C   0  0  0  0  0  0  0  0  0  0  0  0
    4.5992   -0.0702    0.0000 C   0  0  0  0  0  0  0  0  0  0  0  0
    7.6600   -1.0716    0.0000 C   0  0  0  0  0  0  0  0  0  0  0  0
    5.4664   -1.5722    0.0000 C   0  0  0  0  0  0  0  0  0  0  0  0
    6.2493   -2.1966    0.0000 C   0  0  0  0  0  0  0  0  0  0  0  0
    7.1942    1.9117    0.0000 C   0  0  0  0  0  0  0  0  0  0  0  0
    7.7346    1.0687    0.0000 C   0  0  0  0  0  0  0  0  0  0  0  0
    3.7320   -0.5709    0.0000 C   0  0  0  0  0  0  0  0  0  0  0  0
    4.5992   -2.0729    0.0000 C   0  0  0  0  0  0  0  0  0  0  0  0
    3.7320   -1.5722    0.0000 C   0  0  0  0  0  0  0  0  0  0  0  0
    7.7889   -2.8000    0.0000 C   0  0  0  0  0  0  0  0  0  0  0  0
    2.0000   -0.5709    0.0000 C   0  0  0  0  0  0  0  0  0  0  0  0
    5.2732    1.6898    0.0000 H   0  0  0  0  0  0  0  0  0  0  0  0
    7.8300   -0.0314    0.0000 H   0  0  0  0  0  0  0  0  0  0  0  0
    7.2255    0.4506    0.0000 H   0  0  0  0  0  0  0  0  0  0  0  0
    6.2731    2.4801    0.0000 H   0  0  0  0  0  0  0  0  0  0  0  0
    5.6021    2.0499    0.0000 H   0  0  0  0  0  0  0  0  0  0  0  0
    7.6288   -0.3298    0.0000 H   0  0  0  0  0  0  0  0  0  0  0  0
    8.1447   -1.4581    0.0000 H   0  0  0  0  0  0  0  0  0  0  0  0
    8.1447   -0.6850    0.0000 H   0  0  0  0  0  0  0  0  0  0  0  0
    5.7646   -2.5831    0.0000 H   0  0  0  0  0  0  0  0  0  0  0  0
    6.5183   -2.7552    0.0000 H   0  0  0  0  0  0  0  0  0  0  0  0
    8.3539    1.0975    0.0000 H   0  0  0  0  0  0  0  0  0  0  0  0
    4.5992   -2.6929    0.0000 H   0  0  0  0  0  0  0  0  0  0  0  0
    3.1951   -1.8822    0.0000 H   0  0  0  0  0  0  0  0  0  0  0  0
    7.2766   -3.1492    0.0000 H   0  0  0  0  0  0  0  0  0  0  0  0
    8.1381   -3.3122    0.0000 H   0  0  0  0  0  0  0  0  0  0  0  0
    8.3011   -2.4507    0.0000 H   0  0  0  0  0  0  0  0  0  0  0  0
    1.6900   -0.0339    0.0000 H   0  0  0  0  0  0  0  0  0  0  0  0
    1.4631   -0.8809    0.0000 H   0  0  0  0  0  0  0  0  0  0  0  0
    2.3100   -1.1078    0.0000 H   0  0  0  0  0  0  0  0  0  0  0  0
  1  6  1  0  0  0  0
  1 11  1  0  0  0  0
  2 17  1  0  0  0  0
  2 21  1  0  0  0  0
  3 15  2  0  0  0  0
  4 12  1  0  0  0  0
  4 14  1  0  0  0  0
  4 20  1  0  0  0  0
  5  6  1  0  0  0  0
  5  7  1  0  0  0  0
  5  8  1  6  0  0  0
  5 10  1  0  0  0  0
  6  9  1  0  0  0  0
  6 22  1  6  0  0  0
  7 11  1  0  0  0  0
  7 13  2  0  0  0  0
  8 12  1  0  0  0  0
  8 23  1  0  0  0  0
  8 24  1  0  0  0  0
  9 15  1  0  0  0  0
  9 25  1  0  0  0  0
  9 26  1  0  0  0  0
 10 16  2  0  0  0  0
 10 27  1  0  0  0  0
 11 17  2  0  0  0  0
 12 28  1  0  0  0  0
 12 29  1  0  0  0  0
 13 14  1  0  0  0  0
 13 18  1  0  0  0  0
 14 30  1  0  0  0  0
 14 31  1  0  0  0  0
 15 16  1  0  0  0  0
 16 32  1  0  0  0  0
 17 19  1  0  0  0  0
 18 19  2  0  0  0  0
 18 33  1  0  0  0  0
 19 34  1  0  0  0  0
 20 35  1  0  0  0  0
 20 36  1  0  0  0  0
 20 37  1  0  0  0  0
 21 38  1  0  0  0  0
 21 39  1  0  0  0  0
 21 40  1  0  0  0  0
M  END
> <PUBCHEM_COMPOUND_CID>
10356588

> <PUBCHEM_COMPOUND_CANONICALIZED>
1

> <PUBCHEM_CACTVS_COMPLEXITY>
477

> <PUBCHEM_CACTVS_HBOND_ACCEPTOR>
4

> <PUBCHEM_CACTVS_HBOND_DONOR>
0

> <PUBCHEM_CACTVS_ROTATABLE_BOND>
1

> <PUBCHEM_CACTVS_SUBSKEYS>
AAADceB6MAAAAAAAAAAAAAAAAAAAASAAAAAwQAAABYAAAEixAAAAHgAAAAAADhThmAYyBoMABACIAqBSAACCCAAgIAAIiAEOjMgNJjaEsRuGOCrk4BGKqYe4+P6PoAABAAAYQABAAAIAADCAAAAAAAAAAA==

> <PUBCHEM_IUPAC_INCHI>
InChI=1S/C17H19NO3/c1-18-8-7-17-6-5-12(19)9-14(17)21-16-13(20-2)4-3-11(10-18)15(16)17/h3-6,14H,7-10H2,1-2H3/t14-,17-/m0/s1

> <PUBCHEM_IUPAC_INCHIKEY>
QENVUHCAYXAROT-YOEHRIQHSA-N

> <PUBCHEM_XLOGP3_AA>
1.7

> <PUBCHEM_EXACT_MASS>
285.136493

> <PUBCHEM_MOLECULAR_FORMULA>
C17H19NO3

> <PUBCHEM_MOLECULAR_WEIGHT>
285.33766

> <PUBCHEM_OPENEYE_CAN_SMILES>
CN1CCC23C=CC(=O)CC2OC4=C(C=CC(=C34)C1)OC

> <PUBCHEM_OPENEYE_ISO_SMILES>
CN1CC[C@@]23C=CC(=O)C[C@@H]2OC4=C(C=CC(=C34)C1)OC

> <PUBCHEM_CACTVS_TPSA>
38.8

> <PUBCHEM_MONOISOTOPIC_WEIGHT>
285.136493

> <PUBCHEM_TOTAL_CHARGE>
0

> <PUBCHEM_HEAVY_ATOM_COUNT>
21

> <PUBCHEM_ATOM_DEF_STEREO_COUNT>
2

> <PUBCHEM_ATOM_UDEF_STEREO_COUNT>
0

> <PUBCHEM_BOND_DEF_STEREO_COUNT>
0

> <PUBCHEM_BOND_UDEF_STEREO_COUNT>
0

> <PUBCHEM_ISOTOPIC_ATOM_COUNT>
0

> <PUBCHEM_COMPONENT_COUNT>
1

> <PUBCHEM_CACTVS_TAUTO_COUNT>
2

> <PUBCHEM_COORDINATE_TYPE>
1
5
255

> <PUBCHEM_BONDANNOTATIONS>
11  17  8
13  18  8
17  19  8
18  19  8
5  8  6
6  22  6
7  11  8
7  13  8

$$$$

