114851
  -OEChem-07051213012D

 39 41  0     1  0  0  0  0  0999 V2000
    5.1350   -0.9573    0.0000 O   0  0  0  0  0  0  0  0  0  0  0  0
    6.0010    0.5427    0.0000 O   0  0  0  0  0  0  0  0  0  0  0  0
    2.5369    0.5427    0.0000 O   0  0  0  0  0  0  0  0  0  0  0  0
    4.2690    1.5427    0.0000 O   0  0  0  0  0  0  0  0  0  0  0  0
    2.5369   -1.4573    0.0000 O   0  0  0  0  0  0  0  0  0  0  0  0
    5.1350   -2.9573    0.0000 O   0  0  0  0  0  0  0  0  0  0  0  0
    3.4030   -2.9573    0.0000 O   0  0  0  0  0  0  0  0  0  0  0  0
    3.4030    0.0427    0.0000 C   0  0  2  0  0  0  0  0  0  0  0  0
    4.2690    0.5427    0.0000 C   0  0  2  0  0  0  0  0  0  0  0  0
    3.4030   -0.9573    0.0000 C   0  0  1  0  0  0  0  0  0  0  0  0
    5.1350    0.0427    0.0000 C   0  0  1  0  0  0  0  0  0  0  0  0
    4.2690   -1.4573    0.0000 C   0  0  1  0  0  0  0  0  0  0  0  0
    4.2690   -2.4573    0.0000 C   0  0  0  0  0  0  0  0  0  0  0  0
    6.0010    1.5427    0.0000 C   0  0  0  0  0  0  0  0  0  0  0  0
    6.8671    2.0427    0.0000 C   0  0  0  0  0  0  0  0  0  0  0  0
    6.8671    3.0427    0.0000 C   0  0  0  0  0  0  0  0  0  0  0  0
    5.1350    2.0427    0.0000 C   0  0  0  0  0  0  0  0  0  0  0  0
    7.7610    1.5080    0.0000 C   0  0  0  0  0  0  0  0  0  0  0  0
    6.0010    3.5427    0.0000 C   0  0  0  0  0  0  0  0  0  0  0  0
    5.1350    3.0427    0.0000 C   0  0  0  0  0  0  0  0  0  0  0  0
    7.7610    3.5773    0.0000 C   0  0  0  0  0  0  0  0  0  0  0  0
    8.6671    2.0218    0.0000 C   0  0  0  0  0  0  0  0  0  0  0  0
    8.6671    3.0635    0.0000 C   0  0  0  0  0  0  0  0  0  0  0  0
    3.4030    0.6627    0.0000 H   0  0  0  0  0  0  0  0  0  0  0  0
    4.8059    0.8527    0.0000 H   0  0  0  0  0  0  0  0  0  0  0  0
    3.4030   -1.5773    0.0000 H   0  0  0  0  0  0  0  0  0  0  0  0
    5.1350    0.6627    0.0000 H   0  0  0  0  0  0  0  0  0  0  0  0
    4.8059   -1.7673    0.0000 H   0  0  0  0  0  0  0  0  0  0  0  0
    2.5369    1.1627    0.0000 H   0  0  0  0  0  0  0  0  0  0  0  0
    3.7320    1.8527    0.0000 H   0  0  0  0  0  0  0  0  0  0  0  0
    2.0000   -1.1473    0.0000 H   0  0  0  0  0  0  0  0  0  0  0  0
    4.5981    1.7327    0.0000 H   0  0  0  0  0  0  0  0  0  0  0  0
    7.7538    0.8880    0.0000 H   0  0  0  0  0  0  0  0  0  0  0  0
    5.1350   -3.5773    0.0000 H   0  0  0  0  0  0  0  0  0  0  0  0
    6.0010    4.1627    0.0000 H   0  0  0  0  0  0  0  0  0  0  0  0
    4.5981    3.3527    0.0000 H   0  0  0  0  0  0  0  0  0  0  0  0
    7.7538    4.1973    0.0000 H   0  0  0  0  0  0  0  0  0  0  0  0
    9.2028    1.7098    0.0000 H   0  0  0  0  0  0  0  0  0  0  0  0
    9.2028    3.3756    0.0000 H   0  0  0  0  0  0  0  0  0  0  0  0
  1 11  1  0  0  0  0
  1 12  1  0  0  0  0
 11  2  1  6  0  0  0
  2 14  1  0  0  0  0
  8  3  1  6  0  0  0
  3 29  1  0  0  0  0
  9  4  1  1  0  0  0
  4 30  1  0  0  0  0
 10  5  1  1  0  0  0
  5 31  1  0  0  0  0
  6 13  1  0  0  0  0
  6 34  1  0  0  0  0
  7 13  2  0  0  0  0
  8  9  1  0  0  0  0
  8 10  1  0  0  0  0
  8 24  1  0  0  0  0
  9 11  1  0  0  0  0
  9 25  1  0  0  0  0
 10 12  1  0  0  0  0
 10 26  1  0  0  0  0
 11 27  1  0  0  0  0
 12 13  1  6  0  0  0
 12 28  1  0  0  0  0
 14 15  1  0  0  0  0
 14 17  2  0  0  0  0
 15 16  1  0  0  0  0
 15 18  2  0  0  0  0
 16 19  1  0  0  0  0
 16 21  2  0  0  0  0
 17 20  1  0  0  0  0
 17 32  1  0  0  0  0
 18 22  1  0  0  0  0
 18 33  1  0  0  0  0
 19 20  2  0  0  0  0
 19 35  1  0  0  0  0
 20 36  1  0  0  0  0
 21 23  1  0  0  0  0
 21 37  1  0  0  0  0
 22 23  2  0  0  0  0
 22 38  1  0  0  0  0
 23 39  1  0  0  0  0
M  END
> <PUBCHEM_COMPOUND_CID>
114851

> <PUBCHEM_COMPOUND_CANONICALIZED>
1

> <PUBCHEM_CACTVS_COMPLEXITY>
429

> <PUBCHEM_CACTVS_HBOND_ACCEPTOR>
7

> <PUBCHEM_CACTVS_HBOND_DONOR>
4

> <PUBCHEM_CACTVS_ROTATABLE_BOND>
3

> <PUBCHEM_CACTVS_SUBSKEYS>
AAADceB4OAAAAAAAAAAAAAAAAAAAAAAAAAA0YIAAAAAAAADBUAAAGgAACAAADBSwmAMwDsAABgCIAiDSCAICCAAgIAAIiAFGCIgdNjaEMR6ieCCl4BEPqAfK7LxOgAABAAAYAAAAAAIAADAAAAAAAAAAAA==

> <PUBCHEM_IUPAC_OPENEYE_NAME>
(2S,3S,4S,5R,6S)-3,4,5-trihydroxy-6-(1-naphthyloxy)tetrahydropyran-2-carboxylic acid

> <PUBCHEM_IUPAC_CAS_NAME>
(2S,3S,4S,5R,6S)-3,4,5-trihydroxy-6-(1-naphthalenyloxy)-2-oxanecarboxylic acid

> <PUBCHEM_IUPAC_NAME>
(2S,3S,4S,5R,6S)-3,4,5-trihydroxy-6-naphthalen-1-yloxyoxane-2-carboxylic acid

> <PUBCHEM_IUPAC_SYSTEMATIC_NAME>
(2S,3S,4S,5R,6S)-6-naphthalen-1-yloxy-3,4,5-tris(oxidanyl)oxane-2-carboxylic acid

> <PUBCHEM_IUPAC_TRADITIONAL_NAME>
(2S,3S,4S,5R,6S)-3,4,5-trihydroxy-6-(1-naphthoxy)tetrahydropyran-2-carboxylic acid

> <PUBCHEM_IUPAC_INCHI>
InChI=1S/C16H16O7/c17-11-12(18)14(15(20)21)23-16(13(11)19)22-10-7-3-5-8-4-1-2-6-9(8)10/h1-7,11-14,16-19H,(H,20,21)/t11-,12-,13+,14-,16+/m0/s1

> <PUBCHEM_IUPAC_INCHIKEY>
KEQWBZWOGRCILF-JHZZJYKESA-N

> <PUBCHEM_XLOGP3_AA>
1.3

> <PUBCHEM_EXACT_MASS>
320.089603

> <PUBCHEM_MOLECULAR_FORMULA>
C16H16O7

> <PUBCHEM_MOLECULAR_WEIGHT>
320.29404

> <PUBCHEM_OPENEYE_CAN_SMILES>
C1=CC=C2C(=C1)C=CC=C2OC3C(C(C(C(O3)C(=O)O)O)O)O

> <PUBCHEM_OPENEYE_ISO_SMILES>
C1=CC=C2C(=C1)C=CC=C2O[C@H]3[C@@H]([C@H]([C@@H]([C@H](O3)C(=O)O)O)O)O

> <PUBCHEM_CACTVS_TPSA>
116

> <PUBCHEM_MONOISOTOPIC_WEIGHT>
320.089603

> <PUBCHEM_TOTAL_CHARGE>
0

> <PUBCHEM_HEAVY_ATOM_COUNT>
23

> <PUBCHEM_ATOM_DEF_STEREO_COUNT>
5

> <PUBCHEM_ATOM_UDEF_STEREO_COUNT>
0

> <PUBCHEM_BOND_DEF_STEREO_COUNT>
0

> <PUBCHEM_BOND_UDEF_STEREO_COUNT>
0

> <PUBCHEM_ISOTOPIC_ATOM_COUNT>
0

> <PUBCHEM_COMPONENT_COUNT>
1

> <PUBCHEM_CACTVS_TAUTO_COUNT>
1

> <PUBCHEM_COORDINATE_TYPE>
1
5
255

> <PUBCHEM_BONDANNOTATIONS>
12  13  6
14  15  8
14  17  8
15  16  8
15  18  8
16  19  8
16  21  8
17  20  8
18  22  8
19  20  8
11  2  6
21  23  8
22  23  8
8  3  6
9  4  5
10  5  5

$$$$

