   Color/Form
        Clear, colorless liquid.
   from [1]HSDB

   Boiling Point
        167 deg C
   from [2]HSDB

   Melting Point
        -33 deg C
   from [3]HSDB

   Density/Specific Gravity
        1.168 g/cu cm @ 25 deg C
   from [4]HSDB

   Spectral Properties

     * Index of refraction: 1.4529 @ 20 deg C/D
     * IR: 496 (Sadtler Research Laboratories Prism Collection)
     * NMR: 9436 (Sadtler Research Laboratories Spectral Collection)
     * MASS: NIST 72928 (NIST/EPA/MCDC Mass Spectral Database 1990
       version)

   from [5]HSDB

   Vapor Density
        3.73 (Air = 1)
   from [6]HSDB

   Vapor Pressure
        1.95 mm Hg @ 25 deg C
   from [7]HSDB

   Other Chemical/Physical Properties
        Hydrolyzed by water and alcohol.
   from [8]HSDB

   Computed Properties
   Molecular Weight                  107.53884 [g/mol]
   Molecular Formula                 C[3]H[6]ClNO
   XLogP3-AA                         0.8
   H-Bond Donor                      0
   H-Bond Acceptor                   1
   Rotatable Bond Count              0
   Exact Mass                        107.013791
   MonoIsotopic Mass                 107.013791
   Topological Polar Surface Area    20.3
   Heavy Atom Count                  6
   Formal Charge                     0
   Complexity                        61.8
   Isotope Atom Count                0
   Defined Atom Stereocenter Count   0
   Undefined Atom Stereocenter Count 0
   Defined Bond Stereocenter Count   0
   Undefined Bond Stereocenter Count 0
   Covalently-Bonded Unit Count      1
   Feature 3D Acceptor Count         1
   Effective Rotor Count             1
   Conformer Sampling RMSD           0.4
   CID Conformer Count               [9]1

References

   1. http://toxnet.nlm.nih.gov/cgi-bin/sis/search/r?dbs+hsdb:@term+@rn+@rel+79-44-7
   2. http://toxnet.nlm.nih.gov/cgi-bin/sis/search/r?dbs+hsdb:@term+@rn+@rel+79-44-7
   3. http://toxnet.nlm.nih.gov/cgi-bin/sis/search/r?dbs+hsdb:@term+@rn+@rel+79-44-7
   4. http://toxnet.nlm.nih.gov/cgi-bin/sis/search/r?dbs+hsdb:@term+@rn+@rel+79-44-7
   5. http://toxnet.nlm.nih.gov/cgi-bin/sis/search/r?dbs+hsdb:@term+@rn+@rel+79-44-7
   6. http://toxnet.nlm.nih.gov/cgi-bin/sis/search/r?dbs+hsdb:@term+@rn+@rel+79-44-7
   7. http://toxnet.nlm.nih.gov/cgi-bin/sis/search/r?dbs+hsdb:@term+@rn+@rel+79-44-7
   8. http://toxnet.nlm.nih.gov/cgi-bin/sis/search/r?dbs+hsdb:@term+@rn+@rel+79-44-7
   9. http://pubchem.ncbi.nlm.nih.gov/vw3d/vw3d.cgi?cid=6598
