10659816
  -OEChem-07051213112D

 52 54  0     1  0  0  0  0  0999 V2000
    5.1296   -1.1955    0.0000 C   0  0  2  0  0  0  0  0  0  0  0  0
    6.0534    1.0349    0.0000 C   0  0  2  0  0  0  0  0  0  0  0  0
    6.0534   -0.8129    0.0000 C   0  0  0  0  0  0  0  0  0  0  0  0
    4.2057   -0.8129    0.0000 C   0  0  0  0  0  0  0  0  0  0  0  0
    6.4361    0.1110    0.0000 C   0  0  0  0  0  0  0  0  0  0  0  0
    5.0490   -2.1864    0.0000 C   0  0  0  0  0  0  0  0  0  0  0  0
    5.1296    1.4176    0.0000 C   0  0  2  0  0  0  0  0  0  0  0  0
    3.5620   -1.5704    0.0000 C   0  0  0  0  0  0  0  0  0  0  0  0
    3.8230    0.1110    0.0000 C   0  0  0  0  0  0  0  0  0  0  0  0
    4.0822   -2.4176    0.0000 C   0  0  0  0  0  0  0  0  0  0  0  0
    4.2057    1.0349    0.0000 C   0  0  0  0  0  0  0  0  0  0  0  0
    6.8110    1.6785    0.0000 C   0  0  0  0  0  0  0  0  0  0  0  0
    7.4269    0.1916    0.0000 C   0  0  0  0  0  0  0  0  0  0  0  0
    6.0534   -1.5782    0.0000 C   0  0  0  0  0  0  0  0  0  0  0  0
    7.6582    1.1584    0.0000 C   0  0  0  0  0  0  0  0  0  0  0  0
    2.5650   -1.4937    0.0000 C   0  0  0  0  0  0  0  0  0  0  0  0
    5.1296    2.4176    0.0000 C   0  0  0  0  0  0  0  0  0  0  0  0
    8.0777   -0.5677    0.0000 C   0  0  0  0  0  0  0  0  0  0  0  0
    2.0000   -2.3188    0.0000 C   0  0  0  0  0  0  0  0  0  0  0  0
    2.1329   -0.5919    0.0000 C   0  0  0  0  0  0  0  0  0  0  0  0
    5.9216    1.8746    0.0000 H   0  0  0  0  0  0  0  0  0  0  0  0
    6.1344   -1.4276    0.0000 H   0  0  0  0  0  0  0  0  0  0  0  0
    6.6681   -0.8938    0.0000 H   0  0  0  0  0  0  0  0  0  0  0  0
    5.1290   -2.8012    0.0000 H   0  0  0  0  0  0  0  0  0  0  0  0
    5.6688   -2.1714    0.0000 H   0  0  0  0  0  0  0  0  0  0  0  0
    5.6451    1.7620    0.0000 H   0  0  0  0  0  0  0  0  0  0  0  0
    3.3311    0.4884    0.0000 H   0  0  0  0  0  0  0  0  0  0  0  0
    3.3311   -0.2664    0.0000 H   0  0  0  0  0  0  0  0  0  0  0  0
    3.5226   -2.6847    0.0000 H   0  0  0  0  0  0  0  0  0  0  0  0
    4.2890   -3.0021    0.0000 H   0  0  0  0  0  0  0  0  0  0  0  0
    4.1247    1.6496    0.0000 H   0  0  0  0  0  0  0  0  0  0  0  0
    3.5910    1.1158    0.0000 H   0  0  0  0  0  0  0  0  0  0  0  0
    7.1892    2.1699    0.0000 H   0  0  0  0  0  0  0  0  0  0  0  0
    6.3621    2.1062    0.0000 H   0  0  0  0  0  0  0  0  0  0  0  0
    5.8162   -2.1510    0.0000 H   0  0  0  0  0  0  0  0  0  0  0  0
    6.6262   -1.8155    0.0000 H   0  0  0  0  0  0  0  0  0  0  0  0
    6.2907   -1.0054    0.0000 H   0  0  0  0  0  0  0  0  0  0  0  0
    8.2426    0.9516    0.0000 H   0  0  0  0  0  0  0  0  0  0  0  0
    7.9252    1.7179    0.0000 H   0  0  0  0  0  0  0  0  0  0  0  0
    2.9153   -0.9821    0.0000 H   0  0  0  0  0  0  0  0  0  0  0  0
    5.7496    2.4176    0.0000 H   0  0  0  0  0  0  0  0  0  0  0  0
    5.1296    3.0376    0.0000 H   0  0  0  0  0  0  0  0  0  0  0  0
    4.5096    2.4176    0.0000 H   0  0  0  0  0  0  0  0  0  0  0  0
    7.6069   -0.9712    0.0000 H   0  0  0  0  0  0  0  0  0  0  0  0
    8.4812   -1.0385    0.0000 H   0  0  0  0  0  0  0  0  0  0  0  0
    8.5484   -0.1642    0.0000 H   0  0  0  0  0  0  0  0  0  0  0  0
    1.4884   -1.9685    0.0000 H   0  0  0  0  0  0  0  0  0  0  0  0
    1.6497   -2.8304    0.0000 H   0  0  0  0  0  0  0  0  0  0  0  0
    2.5116   -2.6691    0.0000 H   0  0  0  0  0  0  0  0  0  0  0  0
    2.6920   -0.3240    0.0000 H   0  0  0  0  0  0  0  0  0  0  0  0
    1.8650   -0.0327    0.0000 H   0  0  0  0  0  0  0  0  0  0  0  0
    1.5738   -0.8598    0.0000 H   0  0  0  0  0  0  0  0  0  0  0  0
  1  3  1  0  0  0  0
  1  4  1  0  0  0  0
  1  6  1  0  0  0  0
  1 14  1  6  0  0  0
  2  5  1  0  0  0  0
  2  7  1  0  0  0  0
  2 12  1  0  0  0  0
  2 21  1  1  0  0  0
  3  5  1  0  0  0  0
  3 22  1  0  0  0  0
  3 23  1  0  0  0  0
  4  8  2  0  0  0  0
  4  9  1  0  0  0  0
  5 13  2  0  0  0  0
  6 10  1  0  0  0  0
  6 24  1  0  0  0  0
  6 25  1  0  0  0  0
  7 11  1  0  0  0  0
  7 17  1  6  0  0  0
  7 26  1  0  0  0  0
  8 10  1  0  0  0  0
  8 16  1  0  0  0  0
  9 11  1  0  0  0  0
  9 27  1  0  0  0  0
  9 28  1  0  0  0  0
 10 29  1  0  0  0  0
 10 30  1  0  0  0  0
 11 31  1  0  0  0  0
 11 32  1  0  0  0  0
 12 15  1  0  0  0  0
 12 33  1  0  0  0  0
 12 34  1  0  0  0  0
 13 15  1  0  0  0  0
 13 18  1  0  0  0  0
 14 35  1  0  0  0  0
 14 36  1  0  0  0  0
 14 37  1  0  0  0  0
 15 38  1  0  0  0  0
 15 39  1  0  0  0  0
 16 19  1  0  0  0  0
 16 20  1  0  0  0  0
 16 40  1  0  0  0  0
 17 41  1  0  0  0  0
 17 42  1  0  0  0  0
 17 43  1  0  0  0  0
 18 44  1  0  0  0  0
 18 45  1  0  0  0  0
 18 46  1  0  0  0  0
 19 47  1  0  0  0  0
 19 48  1  0  0  0  0
 19 49  1  0  0  0  0
 20 50  1  0  0  0  0
 20 51  1  0  0  0  0
 20 52  1  0  0  0  0
M  END
> <PUBCHEM_COMPOUND_CID>
10659816

> <PUBCHEM_COMPOUND_CANONICALIZED>
1

> <PUBCHEM_CACTVS_COMPLEXITY>
462

> <PUBCHEM_CACTVS_HBOND_ACCEPTOR>
0

> <PUBCHEM_CACTVS_HBOND_DONOR>
0

> <PUBCHEM_CACTVS_ROTATABLE_BOND>
1

> <PUBCHEM_CACTVS_SUBSKEYS>
AAADcfB4AAAAAAAAAAAAAAAAAAAAAQIAAAAAAAAAAAAYAAAAAAAAGAAAAAAADwCAAAACAAAAAACAAgBAAAAAAAAgAAAACAAAAAgAAAIAAAAAAAAAgAAIAAMAgMAPgAAAAAAAAAAAAAAAAAAAAAAAAAAAAA==

> <PUBCHEM_IUPAC_INCHI>
InChI=1S/C20H32/c1-13(2)16-10-11-20(5)12-18-15(4)6-8-17(18)14(3)7-9-19(16)20/h13-14,17H,6-12H2,1-5H3/t14-,17-,20+/m0/s1

> <PUBCHEM_IUPAC_INCHIKEY>
PZSFDLBSQBBRAM-GZRFBZBPSA-N

> <PUBCHEM_XLOGP3_AA>
5.1

> <PUBCHEM_EXACT_MASS>
272.250401

> <PUBCHEM_MOLECULAR_FORMULA>
C20H32

> <PUBCHEM_MOLECULAR_WEIGHT>
272.46808

> <PUBCHEM_OPENEYE_CAN_SMILES>
CC1CCC2=C(CCC2(CC3=C(CCC13)C)C)C(C)C

> <PUBCHEM_OPENEYE_ISO_SMILES>
C[C@H]1CCC2=C(CC[C@@]2(CC3=C(CC[C@@H]13)C)C)C(C)C

> <PUBCHEM_CACTVS_TPSA>
0

> <PUBCHEM_MONOISOTOPIC_WEIGHT>
272.250401

> <PUBCHEM_TOTAL_CHARGE>
0

> <PUBCHEM_HEAVY_ATOM_COUNT>
20

> <PUBCHEM_ATOM_DEF_STEREO_COUNT>
3

> <PUBCHEM_ATOM_UDEF_STEREO_COUNT>
0

> <PUBCHEM_BOND_DEF_STEREO_COUNT>
0

> <PUBCHEM_BOND_UDEF_STEREO_COUNT>
0

> <PUBCHEM_ISOTOPIC_ATOM_COUNT>
0

> <PUBCHEM_COMPONENT_COUNT>
1

> <PUBCHEM_CACTVS_TAUTO_COUNT>
1

> <PUBCHEM_COORDINATE_TYPE>
1
5
255

> <PUBCHEM_BONDANNOTATIONS>
1  14  6
2  21  5
7  17  6

$$$$

