440189
  -OEChem-07051212492D

 38 39  0     1  0  0  0  0  0999 V2000
    6.4021   -3.2767    0.0000 P   0  0  0  0  0  0  0  0  0  0  0  0
    4.5411   -0.8121    0.0000 O   0  0  0  0  0  0  0  0  0  0  0  0
    2.6443   -2.5722    0.0000 O   0  0  0  0  0  0  0  0  0  0  0  0
    5.8144   -2.4676    0.0000 O   0  0  0  0  0  0  0  0  0  0  0  0
    2.0000    0.7757    0.0000 O   0  0  0  0  0  0  0  0  0  0  0  0
    6.9899   -4.0857    0.0000 O   0  0  0  0  0  0  0  0  0  0  0  0
    7.2112   -2.6889    0.0000 O   0  0  0  0  0  0  0  0  0  0  0  0
    6.3301    2.2757    0.0000 O   0  0  0  0  0  0  0  0  0  0  0  0
    5.5931   -3.8644    0.0000 O   0  0  0  0  0  0  0  0  0  0  0  0
    3.7320    0.7757    0.0000 N   0  0  0  0  0  0  0  0  0  0  0  0
    2.8660    2.2757    0.0000 N   0  0  0  0  0  0  0  0  0  0  0  0
    3.7320    3.7757    0.0000 N   0  0  0  0  0  0  0  0  0  0  0  0
    3.2320   -1.7632    0.0000 C   0  0  2  0  0  0  0  0  0  0  0  0
    4.2320   -1.7632    0.0000 C   0  0  1  0  0  0  0  0  0  0  0  0
    2.9230   -0.8121    0.0000 C   0  0  0  0  0  0  0  0  0  0  0  0
    3.7320   -0.2243    0.0000 C   0  0  1  0  0  0  0  0  0  0  0  0
    4.8198   -2.5722    0.0000 C   0  0  0  0  0  0  0  0  0  0  0  0
    4.5981    1.2757    0.0000 C   0  0  0  0  0  0  0  0  0  0  0  0
    2.8660    1.2757    0.0000 C   0  0  0  0  0  0  0  0  0  0  0  0
    4.5981    2.2757    0.0000 C   0  0  0  0  0  0  0  0  0  0  0  0
    3.7320    2.7757    0.0000 C   0  0  0  0  0  0  0  0  0  0  0  0
    5.4641    2.7757    0.0000 C   0  0  0  0  0  0  0  0  0  0  0  0
    3.5135   -2.3156    0.0000 H   0  0  0  0  0  0  0  0  0  0  0  0
    4.8444   -1.6662    0.0000 H   0  0  0  0  0  0  0  0  0  0  0  0
    2.6130   -0.2752    0.0000 H   0  0  0  0  0  0  0  0  0  0  0  0
    2.3566   -1.0643    0.0000 H   0  0  0  0  0  0  0  0  0  0  0  0
    4.2845    0.0572    0.0000 H   0  0  0  0  0  0  0  0  0  0  0  0
    4.2626   -2.8440    0.0000 H   0  0  0  0  0  0  0  0  0  0  0  0
    4.9907   -3.1682    0.0000 H   0  0  0  0  0  0  0  0  0  0  0  0
    2.0277   -2.5074    0.0000 H   0  0  0  0  0  0  0  0  0  0  0  0
    5.1350    0.9657    0.0000 H   0  0  0  0  0  0  0  0  0  0  0  0
    5.8626    3.2506    0.0000 H   0  0  0  0  0  0  0  0  0  0  0  0
    5.0656    3.2506    0.0000 H   0  0  0  0  0  0  0  0  0  0  0  0
    3.1951    4.0857    0.0000 H   0  0  0  0  0  0  0  0  0  0  0  0
    4.2690    4.0857    0.0000 H   0  0  0  0  0  0  0  0  0  0  0  0
    7.6065   -4.0209    0.0000 H   0  0  0  0  0  0  0  0  0  0  0  0
    7.1464   -2.0723    0.0000 H   0  0  0  0  0  0  0  0  0  0  0  0
    6.8671    2.5857    0.0000 H   0  0  0  0  0  0  0  0  0  0  0  0
  1  4  1  0  0  0  0
  1  6  1  0  0  0  0
  1  7  1  0  0  0  0
  1  9  2  0  0  0  0
  2 14  1  0  0  0  0
  2 16  1  0  0  0  0
 13  3  1  1  0  0  0
  3 30  1  0  0  0  0
  4 17  1  0  0  0  0
  5 19  2  0  0  0  0
  6 36  1  0  0  0  0
  7 37  1  0  0  0  0
  8 22  1  0  0  0  0
  8 38  1  0  0  0  0
 16 10  1  6  0  0  0
 10 18  1  0  0  0  0
 10 19  1  0  0  0  0
 11 19  1  0  0  0  0
 11 21  2  0  0  0  0
 12 21  1  0  0  0  0
 12 34  1  0  0  0  0
 12 35  1  0  0  0  0
 13 14  1  0  0  0  0
 13 15  1  0  0  0  0
 13 23  1  0  0  0  0
 14 17  1  6  0  0  0
 14 24  1  0  0  0  0
 15 16  1  0  0  0  0
 15 25  1  0  0  0  0
 15 26  1  0  0  0  0
 16 27  1  0  0  0  0
 17 28  1  0  0  0  0
 17 29  1  0  0  0  0
 18 20  2  0  0  0  0
 18 31  1  0  0  0  0
 20 21  1  0  0  0  0
 20 22  1  0  0  0  0
 22 32  1  0  0  0  0
 22 33  1  0  0  0  0
M  END
> <PUBCHEM_COMPOUND_CID>
440189

> <PUBCHEM_COMPOUND_CANONICALIZED>
1

> <PUBCHEM_CACTVS_COMPLEXITY>
558

> <PUBCHEM_CACTVS_HBOND_ACCEPTOR>
8

> <PUBCHEM_CACTVS_HBOND_DONOR>
5

> <PUBCHEM_CACTVS_ROTATABLE_BOND>
5

> <PUBCHEM_CACTVS_SUBSKEYS>
AAADceBzPAIAAAAAAAAAAAAAAAAAASAAAAAgAAAAAAAAAAAAAAAAHgAQCCAADBThgAYBAANABxCoQgJmdICAAAEAAAAAAAAoABCBFAIAgQAOQAAHBgIDEACwMAIAAAAAAAAAAAAAAAAAAAAAAAAAAAAAAA==

> <PUBCHEM_IUPAC_OPENEYE_NAME>
[(2R,3S,5R)-5-[4-amino-5-(hydroxymethyl)-2-oxo-pyrimidin-1-yl]-3-hydroxy-tetrahydrofuran-2-yl]methyl dihydrogen phosphate

> <PUBCHEM_IUPAC_CAS_NAME>
[(2R,3S,5R)-5-[4-amino-5-(hydroxymethyl)-2-oxo-1-pyrimidinyl]-3-hydroxy-2-oxolanyl]methyl dihydrogen phosphate

> <PUBCHEM_IUPAC_NAME>
[(2R,3S,5R)-5-[4-amino-5-(hydroxymethyl)-2-oxopyrimidin-1-yl]-3-hydroxyoxolan-2-yl]methyl dihydrogen phosphate

> <PUBCHEM_IUPAC_SYSTEMATIC_NAME>
[(2R,3S,5R)-5-[4-azanyl-5-(hydroxymethyl)-2-oxidanylidene-pyrimidin-1-yl]-3-oxidanyl-oxolan-2-yl]methyl dihydrogen phosphate

> <PUBCHEM_IUPAC_TRADITIONAL_NAME>
[(2R,3S,5R)-5-(4-amino-2-keto-5-methylol-pyrimidin-1-yl)-3-hydroxy-tetrahydrofuran-2-yl]methyl dihydrogen phosphate

> <PUBCHEM_IUPAC_INCHI>
InChI=1S/C10H16N3O8P/c11-9-5(3-14)2-13(10(16)12-9)8-1-6(15)7(21-8)4-20-22(17,18)19/h2,6-8,14-15H,1,3-4H2,(H2,11,12,16)(H2,17,18,19)/t6-,7+,8+/m0/s1

> <PUBCHEM_IUPAC_INCHIKEY>
BTIWPBKNTZFNRI-XLPZGREQSA-N

> <PUBCHEM_XLOGP3_AA>
-3.6

> <PUBCHEM_EXACT_MASS>
337.067501

> <PUBCHEM_MOLECULAR_FORMULA>
C10H16N3O8P

> <PUBCHEM_MOLECULAR_WEIGHT>
337.223102

> <PUBCHEM_OPENEYE_CAN_SMILES>
C1C(C(OC1N2C=C(C(=NC2=O)N)CO)COP(=O)(O)O)O

> <PUBCHEM_OPENEYE_ISO_SMILES>
C1[C@@H]([C@H](O[C@H]1N2C=C(C(=NC2=O)N)CO)COP(=O)(O)O)O

> <PUBCHEM_CACTVS_TPSA>
175

> <PUBCHEM_MONOISOTOPIC_WEIGHT>
337.067501

> <PUBCHEM_TOTAL_CHARGE>
0

> <PUBCHEM_HEAVY_ATOM_COUNT>
22

> <PUBCHEM_ATOM_DEF_STEREO_COUNT>
3

> <PUBCHEM_ATOM_UDEF_STEREO_COUNT>
0

> <PUBCHEM_BOND_DEF_STEREO_COUNT>
0

> <PUBCHEM_BOND_UDEF_STEREO_COUNT>
0

> <PUBCHEM_ISOTOPIC_ATOM_COUNT>
0

> <PUBCHEM_COMPONENT_COUNT>
1

> <PUBCHEM_CACTVS_TAUTO_COUNT>
3

> <PUBCHEM_COORDINATE_TYPE>
1
5
255

> <PUBCHEM_BONDANNOTATIONS>
16  10  6
10  18  8
10  19  8
11  19  8
11  21  8
14  17  6
18  20  8
20  21  8
13  3  5

$$$$

