11011465
  -OEChem-07051213082D

 46 46  0     1  0  0  0  0  0999 V2000
   10.0000    2.9151    0.0000 O   0  0  0  0  0  0  0  0  0  0  0  0
   12.3660    1.5490    0.0000 O   0  0  0  0  0  0  0  0  0  0  0  0
    2.5000   -2.4151    0.0000 O   0  0  0  0  0  0  0  0  0  0  0  0
    4.0000   -3.2811    0.0000 O   0  0  0  0  0  0  0  0  0  0  0  0
   10.8660    2.4151    0.0000 C   0  0  1  0  0  0  0  0  0  0  0  0
   10.0000    1.9151    0.0000 C   0  0  1  0  0  0  0  0  0  0  0  0
    9.5000    1.0490    0.0000 C   0  0  0  0  0  0  0  0  0  0  0  0
   11.3660    1.5490    0.0000 C   0  0  0  0  0  0  0  0  0  0  0  0
   11.3660    3.2811    0.0000 C   0  0  0  0  0  0  0  0  0  0  0  0
    8.5000    1.0490    0.0000 C   0  0  0  0  0  0  0  0  0  0  0  0
    8.0000    0.1830    0.0000 C   0  0  0  0  0  0  0  0  0  0  0  0
    7.0000    0.1830    0.0000 C   0  0  0  0  0  0  0  0  0  0  0  0
    8.5000   -0.6830    0.0000 C   0  0  0  0  0  0  0  0  0  0  0  0
    6.5000   -0.6830    0.0000 C   0  0  0  0  0  0  0  0  0  0  0  0
    5.5000   -0.6830    0.0000 C   0  0  0  0  0  0  0  0  0  0  0  0
    5.0000   -1.5490    0.0000 C   0  0  0  0  0  0  0  0  0  0  0  0
    5.5000   -2.4151    0.0000 C   0  0  0  0  0  0  0  0  0  0  0  0
    4.0000   -1.5490    0.0000 C   0  0  0  0  0  0  0  0  0  0  0  0
    3.5000   -2.4151    0.0000 C   0  0  0  0  0  0  0  0  0  0  0  0
    2.0000   -3.2811    0.0000 C   0  0  0  0  0  0  0  0  0  0  0  0
    9.4011    2.0755    0.0000 H   0  0  0  0  0  0  0  0  0  0  0  0
    9.3923    0.4385    0.0000 H   0  0  0  0  0  0  0  0  0  0  0  0
   10.0826    0.8370    0.0000 H   0  0  0  0  0  0  0  0  0  0  0  0
   10.7834    1.3370    0.0000 H   0  0  0  0  0  0  0  0  0  0  0  0
   11.4737    0.9385    0.0000 H   0  0  0  0  0  0  0  0  0  0  0  0
   11.9030    2.9711    0.0000 H   0  0  0  0  0  0  0  0  0  0  0  0
   11.6760    3.8180    0.0000 H   0  0  0  0  0  0  0  0  0  0  0  0
   10.8291    3.5911    0.0000 H   0  0  0  0  0  0  0  0  0  0  0  0
    8.6077    1.6596    0.0000 H   0  0  0  0  0  0  0  0  0  0  0  0
    7.9174    1.2611    0.0000 H   0  0  0  0  0  0  0  0  0  0  0  0
   12.6760    1.0121    0.0000 H   0  0  0  0  0  0  0  0  0  0  0  0
    6.6900    0.7199    0.0000 H   0  0  0  0  0  0  0  0  0  0  0  0
    7.9631   -0.9930    0.0000 H   0  0  0  0  0  0  0  0  0  0  0  0
    8.8100   -1.2200    0.0000 H   0  0  0  0  0  0  0  0  0  0  0  0
    9.0369   -0.3730    0.0000 H   0  0  0  0  0  0  0  0  0  0  0  0
    6.3923   -1.2936    0.0000 H   0  0  0  0  0  0  0  0  0  0  0  0
    7.0826   -0.8951    0.0000 H   0  0  0  0  0  0  0  0  0  0  0  0
    5.6077   -0.0724    0.0000 H   0  0  0  0  0  0  0  0  0  0  0  0
    4.9174   -0.4710    0.0000 H   0  0  0  0  0  0  0  0  0  0  0  0
    4.9631   -2.7251    0.0000 H   0  0  0  0  0  0  0  0  0  0  0  0
    5.8100   -2.9520    0.0000 H   0  0  0  0  0  0  0  0  0  0  0  0
    6.0369   -2.1051    0.0000 H   0  0  0  0  0  0  0  0  0  0  0  0
    3.6900   -1.0121    0.0000 H   0  0  0  0  0  0  0  0  0  0  0  0
    1.4631   -2.9711    0.0000 H   0  0  0  0  0  0  0  0  0  0  0  0
    1.6900   -3.8180    0.0000 H   0  0  0  0  0  0  0  0  0  0  0  0
    2.5369   -3.5911    0.0000 H   0  0  0  0  0  0  0  0  0  0  0  0
  1  5  1  0  0  0  0
  1  6  1  0  0  0  0
  2  8  1  0  0  0  0
  2 31  1  0  0  0  0
  3 19  1  0  0  0  0
  3 20  1  0  0  0  0
  4 19  2  0  0  0  0
  5  6  1  0  0  0  0
  5  8  1  0  0  0  0
  5  9  1  1  0  0  0
  6  7  1  1  0  0  0
  6 21  1  0  0  0  0
  7 10  1  0  0  0  0
  7 22  1  0  0  0  0
  7 23  1  0  0  0  0
  8 24  1  0  0  0  0
  8 25  1  0  0  0  0
  9 26  1  0  0  0  0
  9 27  1  0  0  0  0
  9 28  1  0  0  0  0
 10 11  1  0  0  0  0
 10 29  1  0  0  0  0
 10 30  1  0  0  0  0
 11 12  2  0  0  0  0
 11 13  1  0  0  0  0
 12 14  1  0  0  0  0
 12 32  1  0  0  0  0
 13 33  1  0  0  0  0
 13 34  1  0  0  0  0
 13 35  1  0  0  0  0
 14 15  1  0  0  0  0
 14 36  1  0  0  0  0
 14 37  1  0  0  0  0
 15 16  1  0  0  0  0
 15 38  1  0  0  0  0
 15 39  1  0  0  0  0
 16 17  1  0  0  0  0
 16 18  2  0  0  0  0
 17 40  1  0  0  0  0
 17 41  1  0  0  0  0
 17 42  1  0  0  0  0
 18 19  1  0  0  0  0
 18 43  1  0  0  0  0
 20 44  1  0  0  0  0
 20 45  1  0  0  0  0
 20 46  1  0  0  0  0
M  END
> <PUBCHEM_COMPOUND_CID>
11011465

> <PUBCHEM_COMPOUND_CANONICALIZED>
1

> <PUBCHEM_CACTVS_COMPLEXITY>
397

> <PUBCHEM_CACTVS_HBOND_ACCEPTOR>
4

> <PUBCHEM_CACTVS_HBOND_DONOR>
1

> <PUBCHEM_CACTVS_ROTATABLE_BOND>
9

> <PUBCHEM_CACTVS_SUBSKEYS>
AAADceB4OAAAAAAAAAAAAAAAEgAAAAAAAAAAAAAAAAAAAAAAAAAAGgAACAAADFSggAICCAAABgCIAiDSCAAAAAAgAAAACAAAAEgBFAIAIQACUAAFgAALIQOAwGAMAAAAAAAAAAAAAAAAAAAAAAAAAAAAAA==

> <PUBCHEM_IUPAC_OPENEYE_NAME>
methyl (2E,6E)-9-[(2R,3R)-3-(hydroxymethyl)-3-methyl-oxiran-2-yl]-3,7-dimethyl-nona-2,6-dienoate

> <PUBCHEM_IUPAC_CAS_NAME>
(2E,6E)-9-[(2R,3R)-3-(hydroxymethyl)-3-methyl-2-oxiranyl]-3,7-dimethylnona-2,6-dienoic acid methyl ester

> <PUBCHEM_IUPAC_NAME>
methyl (2E,6E)-9-[(2R,3R)-3-(hydroxymethyl)-3-methyloxiran-2-yl]-3,7-dimethylnona-2,6-dienoate

> <PUBCHEM_IUPAC_SYSTEMATIC_NAME>
methyl (2E,6E)-9-[(2R,3R)-3-(hydroxymethyl)-3-methyl-oxiran-2-yl]-3,7-dimethyl-nona-2,6-dienoate

> <PUBCHEM_IUPAC_TRADITIONAL_NAME>
(2E,6E)-3,7-dimethyl-9-[(2R,3R)-3-methyl-3-methylol-oxiran-2-yl]nona-2,6-dienoic acid methyl ester

> <PUBCHEM_IUPAC_INCHI>
InChI=1S/C16H26O4/c1-12(8-9-14-16(3,11-17)20-14)6-5-7-13(2)10-15(18)19-4/h6,10,14,17H,5,7-9,11H2,1-4H3/b12-6+,13-10+/t14-,16-/m1/s1

> <PUBCHEM_IUPAC_INCHIKEY>
SQVPMPJSJJNPOS-TWAVMNLWSA-N

> <PUBCHEM_XLOGP3_AA>
2.9

> <PUBCHEM_EXACT_MASS>
282.183109

> <PUBCHEM_MOLECULAR_FORMULA>
C16H26O4

> <PUBCHEM_MOLECULAR_WEIGHT>
282.37524

> <PUBCHEM_OPENEYE_CAN_SMILES>
CC(=CCCC(=CC(=O)OC)C)CCC1C(O1)(C)CO

> <PUBCHEM_OPENEYE_ISO_SMILES>
C/C(=C\CC/C(=C/C(=O)OC)/C)/CC[C@@H]1[C@@](O1)(C)CO

> <PUBCHEM_CACTVS_TPSA>
59.1

> <PUBCHEM_MONOISOTOPIC_WEIGHT>
282.183109

> <PUBCHEM_TOTAL_CHARGE>
0

> <PUBCHEM_HEAVY_ATOM_COUNT>
20

> <PUBCHEM_ATOM_DEF_STEREO_COUNT>
2

> <PUBCHEM_ATOM_UDEF_STEREO_COUNT>
0

> <PUBCHEM_BOND_DEF_STEREO_COUNT>
2

> <PUBCHEM_BOND_UDEF_STEREO_COUNT>
0

> <PUBCHEM_ISOTOPIC_ATOM_COUNT>
0

> <PUBCHEM_COMPONENT_COUNT>
1

> <PUBCHEM_CACTVS_TAUTO_COUNT>
1

> <PUBCHEM_COORDINATE_TYPE>
1
5
255

> <PUBCHEM_BONDANNOTATIONS>
5  9  5
6  7  5

$$$$

