14104340
  -OEChem-07051212482D

 45 45  0     1  0  0  0  0  0999 V2000
    8.0622    1.5950    0.0000 O   0  0  0  0  0  0  0  0  0  0  0  0
    6.3301    3.5950    0.0000 O   0  0  0  0  0  0  0  0  0  0  0  0
    6.3301    0.5950    0.0000 O   0  0  0  0  0  0  0  0  0  0  0  0
    8.9282    3.0950    0.0000 O   0  0  0  0  0  0  0  0  0  0  0  0
    5.4641    3.0950    0.0000 O   0  0  0  0  0  0  0  0  0  0  0  0
    8.9282    5.0950    0.0000 O   0  0  0  0  0  0  0  0  0  0  0  0
    4.5981    1.5950    0.0000 O   0  0  0  0  0  0  0  0  0  0  0  0
    7.1962    5.0950    0.0000 O   0  0  0  0  0  0  0  0  0  0  0  0
    4.5981    0.5950    0.0000 O   0  0  0  0  0  0  0  0  0  0  0  0
    2.8660   -4.4050    0.0000 O   0  0  0  0  0  0  0  0  0  0  0  0
    4.5981   -5.4050    0.0000 O   0  0  0  0  0  0  0  0  0  0  0  0
    7.1962    2.0950    0.0000 C   0  0  1  0  0  0  0  0  0  0  0  0
    7.1962    3.0950    0.0000 C   0  0  2  0  0  0  0  0  0  0  0  0
    6.3301    1.5950    0.0000 C   0  0  2  0  0  0  0  0  0  0  0  0
    8.0622    3.5950    0.0000 C   0  0  1  0  0  0  0  0  0  0  0  0
    5.4641    2.0950    0.0000 C   0  0  0  0  0  0  0  0  0  0  0  0
    8.0622    4.5950    0.0000 C   0  0  0  0  0  0  0  0  0  0  0  0
    5.4641    0.0950    0.0000 C   0  0  0  0  0  0  0  0  0  0  0  0
    5.4641   -0.9050    0.0000 C   0  0  0  0  0  0  0  0  0  0  0  0
    4.5981   -2.4050    0.0000 C   0  0  0  0  0  0  0  0  0  0  0  0
    4.5981   -1.4050    0.0000 C   0  0  0  0  0  0  0  0  0  0  0  0
    3.7320   -2.9050    0.0000 C   0  0  0  0  0  0  0  0  0  0  0  0
    5.4641   -2.9050    0.0000 C   0  0  0  0  0  0  0  0  0  0  0  0
    3.7320   -3.9050    0.0000 C   0  0  0  0  0  0  0  0  0  0  0  0
    4.5981   -4.4050    0.0000 C   0  0  0  0  0  0  0  0  0  0  0  0
    5.4641   -3.9050    0.0000 C   0  0  0  0  0  0  0  0  0  0  0  0
    2.0000   -3.9050    0.0000 C   0  0  0  0  0  0  0  0  0  0  0  0
    7.7331    2.4050    0.0000 H   0  0  0  0  0  0  0  0  0  0  0  0
    6.6592    2.7850    0.0000 H   0  0  0  0  0  0  0  0  0  0  0  0
    6.8671    1.2850    0.0000 H   0  0  0  0  0  0  0  0  0  0  0  0
    8.0622    2.9750    0.0000 H   0  0  0  0  0  0  0  0  0  0  0  0
    8.5991    1.9050    0.0000 H   0  0  0  0  0  0  0  0  0  0  0  0
    6.3301    4.2150    0.0000 H   0  0  0  0  0  0  0  0  0  0  0  0
    9.4651    3.4050    0.0000 H   0  0  0  0  0  0  0  0  0  0  0  0
    6.0010   -1.2150    0.0000 H   0  0  0  0  0  0  0  0  0  0  0  0
    4.9272    3.4050    0.0000 H   0  0  0  0  0  0  0  0  0  0  0  0
    8.9282    5.7150    0.0000 H   0  0  0  0  0  0  0  0  0  0  0  0
    4.0611   -1.0950    0.0000 H   0  0  0  0  0  0  0  0  0  0  0  0
    3.1951   -2.5950    0.0000 H   0  0  0  0  0  0  0  0  0  0  0  0
    6.0010   -2.5950    0.0000 H   0  0  0  0  0  0  0  0  0  0  0  0
    6.0010   -4.2150    0.0000 H   0  0  0  0  0  0  0  0  0  0  0  0
    5.1350   -5.7150    0.0000 H   0  0  0  0  0  0  0  0  0  0  0  0
    2.3100   -3.3681    0.0000 H   0  0  0  0  0  0  0  0  0  0  0  0
    1.4631   -3.5950    0.0000 H   0  0  0  0  0  0  0  0  0  0  0  0
    1.6900   -4.4419    0.0000 H   0  0  0  0  0  0  0  0  0  0  0  0
 12  1  1  6  0  0  0
  1 32  1  0  0  0  0
 13  2  1  1  0  0  0
  2 33  1  0  0  0  0
 14  3  1  1  0  0  0
  3 18  1  0  0  0  0
 15  4  1  1  0  0  0
  4 34  1  0  0  0  0
  5 16  1  0  0  0  0
  5 36  1  0  0  0  0
  6 17  1  0  0  0  0
  6 37  1  0  0  0  0
  7 16  2  0  0  0  0
  8 17  2  0  0  0  0
  9 18  2  0  0  0  0
 10 24  1  0  0  0  0
 10 27  1  0  0  0  0
 11 25  1  0  0  0  0
 11 42  1  0  0  0  0
 12 13  1  0  0  0  0
 12 14  1  0  0  0  0
 12 28  1  0  0  0  0
 13 15  1  0  0  0  0
 13 29  1  0  0  0  0
 14 16  1  0  0  0  0
 14 30  1  0  0  0  0
 15 17  1  0  0  0  0
 15 31  1  0  0  0  0
 18 19  1  0  0  0  0
 19 21  2  0  0  0  0
 19 35  1  0  0  0  0
 20 21  1  0  0  0  0
 20 22  2  0  0  0  0
 20 23  1  0  0  0  0
 21 38  1  0  0  0  0
 22 24  1  0  0  0  0
 22 39  1  0  0  0  0
 23 26  2  0  0  0  0
 23 40  1  0  0  0  0
 24 25  2  0  0  0  0
 25 26  1  0  0  0  0
 26 41  1  0  0  0  0
 27 43  1  0  0  0  0
 27 44  1  0  0  0  0
 27 45  1  0  0  0  0
M  END
> <PUBCHEM_COMPOUND_CID>
14104340

> <PUBCHEM_COMPOUND_CANONICALIZED>
1

> <PUBCHEM_CACTVS_COMPLEXITY>
561

> <PUBCHEM_CACTVS_HBOND_ACCEPTOR>
11

> <PUBCHEM_CACTVS_HBOND_DONOR>
6

> <PUBCHEM_CACTVS_ROTATABLE_BOND>
10

> <PUBCHEM_CACTVS_SUBSKEYS>
AAADceB4PAAAAAAAAAAAAAAAAAAAAAAAAAAwAAAAAAAAAAABAAAAGgAACAAADBSgmAIyDoAABgCIAiDSCAICCAAgIAAIiAFGiMgNNjaGMR6CcCMl4BELuYfK7BxOIAABAAAAQABAAAIAAACAAAAAAAAAAA==

> <PUBCHEM_IUPAC_OPENEYE_NAME>
(2S,3R,4S,5R)-2,3,4-trihydroxy-5-[(E)-3-(4-hydroxy-3-methoxy-phenyl)prop-2-enoyl]oxy-hexanedioic acid

> <PUBCHEM_IUPAC_CAS_NAME>
(2S,3R,4S,5R)-2,3,4-trihydroxy-5-[(E)-3-(4-hydroxy-3-methoxyphenyl)-1-oxoprop-2-enoxy]hexanedioic acid

> <PUBCHEM_IUPAC_NAME>
(2S,3R,4S,5R)-2,3,4-trihydroxy-5-[(E)-3-(4-hydroxy-3-methoxyphenyl)prop-2-enoyl]oxyhexanedioic acid

> <PUBCHEM_IUPAC_SYSTEMATIC_NAME>
(2R,3S,4R,5S)-2-[(E)-3-(3-methoxy-4-oxidanyl-phenyl)prop-2-enoyl]oxy-3,4,5-tris(oxidanyl)hexanedioic acid

> <PUBCHEM_IUPAC_TRADITIONAL_NAME>
(2S,3R,4S,5R)-2,3,4-trihydroxy-5-[(E)-3-(4-hydroxy-3-methoxy-phenyl)acryloyl]oxy-adipic acid

> <PUBCHEM_IUPAC_INCHI>
InChI=1S/C16H18O11/c1-26-9-6-7(2-4-8(9)17)3-5-10(18)27-14(16(24)25)12(20)11(19)13(21)15(22)23/h2-6,11-14,17,19-21H,1H3,(H,22,23)(H,24,25)/b5-3+/t11-,12+,13+,14-/m1/s1

> <PUBCHEM_IUPAC_INCHIKEY>
JZRAOXRUPYISEN-MOEPPVLCSA-N

> <PUBCHEM_XLOGP3_AA>
-0.8

> <PUBCHEM_EXACT_MASS>
386.084911

> <PUBCHEM_MOLECULAR_FORMULA>
C16H18O11

> <PUBCHEM_MOLECULAR_WEIGHT>
386.30752

> <PUBCHEM_OPENEYE_CAN_SMILES>
COC1=C(C=CC(=C1)C=CC(=O)OC(C(C(C(C(=O)O)O)O)O)C(=O)O)O

> <PUBCHEM_OPENEYE_ISO_SMILES>
COC1=C(C=CC(=C1)/C=C/C(=O)O[C@H]([C@H]([C@H]([C@@H](C(=O)O)O)O)O)C(=O)O)O

> <PUBCHEM_CACTVS_TPSA>
191

> <PUBCHEM_MONOISOTOPIC_WEIGHT>
386.084911

> <PUBCHEM_TOTAL_CHARGE>
0

> <PUBCHEM_HEAVY_ATOM_COUNT>
27

> <PUBCHEM_ATOM_DEF_STEREO_COUNT>
4

> <PUBCHEM_ATOM_UDEF_STEREO_COUNT>
0

> <PUBCHEM_BOND_DEF_STEREO_COUNT>
1

> <PUBCHEM_BOND_UDEF_STEREO_COUNT>
0

> <PUBCHEM_ISOTOPIC_ATOM_COUNT>
0

> <PUBCHEM_COMPONENT_COUNT>
1

> <PUBCHEM_CACTVS_TAUTO_COUNT>
5

> <PUBCHEM_COORDINATE_TYPE>
1
5
255

> <PUBCHEM_BONDANNOTATIONS>
12  1  6
13  2  5
20  22  8
20  23  8
22  24  8
23  26  8
24  25  8
25  26  8
14  3  5
15  4  5

$$$$

