46173990
  -OEChem-07051213102D

 44 46  0     1  0  0  0  0  0999 V2000
    5.1350   -0.6550    0.0000 O   0  0  0  0  0  0  0  0  0  0  0  0
    4.2690    0.8450    0.0000 O   0  0  0  0  0  0  0  0  0  0  0  0
    2.5369   -2.1550    0.0000 O   0  0  0  0  0  0  0  0  0  0  0  0
    4.2690   -3.1550    0.0000 O   0  0  0  0  0  0  0  0  0  0  0  0
    2.5369   -0.1550    0.0000 O   0  0  0  0  0  0  0  0  0  0  0  0
    6.0010   -3.1550    0.0000 O   0  0  0  0  0  0  0  0  0  0  0  0
    4.2690    2.8450    0.0000 O   0  0  0  0  0  0  0  0  0  0  0  0
    9.8969    0.9790    0.0000 O   0  0  0  0  0  0  0  0  0  0  0  0
    9.8969    2.7110    0.0000 O   0  0  0  0  0  0  0  0  0  0  0  0
    7.8133    2.6497    0.0000 N   0  0  0  0  0  0  0  0  0  0  0  0
    3.4030   -1.6550    0.0000 C   0  0  1  0  0  0  0  0  0  0  0  0
    4.2690   -2.1550    0.0000 C   0  0  1  0  0  0  0  0  0  0  0  0
    3.4030   -0.6550    0.0000 C   0  0  2  0  0  0  0  0  0  0  0  0
    5.1350   -1.6550    0.0000 C   0  0  1  0  0  0  0  0  0  0  0  0
    4.2690   -0.1550    0.0000 C   0  0  1  0  0  0  0  0  0  0  0  0
    6.0010   -2.1550    0.0000 C   0  0  0  0  0  0  0  0  0  0  0  0
    7.8133    1.0403    0.0000 C   0  0  0  0  0  0  0  0  0  0  0  0
    6.8671    1.3450    0.0000 C   0  0  0  0  0  0  0  0  0  0  0  0
    8.3969    1.8450    0.0000 C   0  0  1  0  0  0  0  0  0  0  0  0
    6.8671    2.3450    0.0000 C   0  0  0  0  0  0  0  0  0  0  0  0
    5.1350    1.3450    0.0000 C   0  0  0  0  0  0  0  0  0  0  0  0
    6.0010    0.8450    0.0000 C   0  0  0  0  0  0  0  0  0  0  0  0
    5.1350    2.3450    0.0000 C   0  0  0  0  0  0  0  0  0  0  0  0
    6.0010    2.8450    0.0000 C   0  0  0  0  0  0  0  0  0  0  0  0
    9.3969    1.8450    0.0000 C   0  0  0  0  0  0  0  0  0  0  0  0
    3.4030   -2.2750    0.0000 H   0  0  0  0  0  0  0  0  0  0  0  0
    4.8059   -2.4650    0.0000 H   0  0  0  0  0  0  0  0  0  0  0  0
    3.4030   -0.0350    0.0000 H   0  0  0  0  0  0  0  0  0  0  0  0
    5.6720   -1.3450    0.0000 H   0  0  0  0  0  0  0  0  0  0  0  0
    3.7320    0.1550    0.0000 H   0  0  0  0  0  0  0  0  0  0  0  0
    6.6116   -2.2627    0.0000 H   0  0  0  0  0  0  0  0  0  0  0  0
    6.2131   -1.5724    0.0000 H   0  0  0  0  0  0  0  0  0  0  0  0
    7.5622    0.4734    0.0000 H   0  0  0  0  0  0  0  0  0  0  0  0
    8.3507    0.7310    0.0000 H   0  0  0  0  0  0  0  0  0  0  0  0
    8.6786    2.3973    0.0000 H   0  0  0  0  0  0  0  0  0  0  0  0
    2.5369   -2.7750    0.0000 H   0  0  0  0  0  0  0  0  0  0  0  0
    8.0059    3.2391    0.0000 H   0  0  0  0  0  0  0  0  0  0  0  0
    3.7320   -3.4650    0.0000 H   0  0  0  0  0  0  0  0  0  0  0  0
    6.0010    0.2250    0.0000 H   0  0  0  0  0  0  0  0  0  0  0  0
    2.0000   -0.4650    0.0000 H   0  0  0  0  0  0  0  0  0  0  0  0
    6.0010    3.4650    0.0000 H   0  0  0  0  0  0  0  0  0  0  0  0
    6.5380   -3.4650    0.0000 H   0  0  0  0  0  0  0  0  0  0  0  0
    4.2690    3.4650    0.0000 H   0  0  0  0  0  0  0  0  0  0  0  0
   10.5169    0.9790    0.0000 H   0  0  0  0  0  0  0  0  0  0  0  0
  1 14  1  0  0  0  0
  1 15  1  0  0  0  0
 15  2  1  6  0  0  0
  2 21  1  0  0  0  0
 11  3  1  6  0  0  0
  3 36  1  0  0  0  0
 12  4  1  1  0  0  0
  4 38  1  0  0  0  0
 13  5  1  1  0  0  0
  5 40  1  0  0  0  0
  6 16  1  0  0  0  0
  6 42  1  0  0  0  0
  7 23  1  0  0  0  0
  7 43  1  0  0  0  0
  8 25  1  0  0  0  0
  8 44  1  0  0  0  0
  9 25  2  0  0  0  0
 10 19  1  0  0  0  0
 10 20  1  0  0  0  0
 10 37  1  0  0  0  0
 11 12  1  0  0  0  0
 11 13  1  0  0  0  0
 11 26  1  0  0  0  0
 12 14  1  0  0  0  0
 12 27  1  0  0  0  0
 13 15  1  0  0  0  0
 13 28  1  0  0  0  0
 14 16  1  6  0  0  0
 14 29  1  0  0  0  0
 15 30  1  0  0  0  0
 16 31  1  0  0  0  0
 16 32  1  0  0  0  0
 17 18  1  0  0  0  0
 17 19  1  0  0  0  0
 17 33  1  0  0  0  0
 17 34  1  0  0  0  0
 18 20  1  0  0  0  0
 18 22  2  0  0  0  0
 19 25  1  6  0  0  0
 19 35  1  0  0  0  0
 20 24  2  0  0  0  0
 21 22  1  0  0  0  0
 21 23  2  0  0  0  0
 22 39  1  0  0  0  0
 23 24  1  0  0  0  0
 24 41  1  0  0  0  0
M  END
> <PUBCHEM_COMPOUND_CID>
46173990

> <PUBCHEM_COMPOUND_CANONICALIZED>
1

> <PUBCHEM_CACTVS_COMPLEXITY>
492

> <PUBCHEM_CACTVS_HBOND_ACCEPTOR>
10

> <PUBCHEM_CACTVS_HBOND_DONOR>
7

> <PUBCHEM_CACTVS_ROTATABLE_BOND>
4

> <PUBCHEM_CACTVS_SUBSKEYS>
AAADceByPAAAAAAAAAAAAAAAAAAAAWAAAAA0QAAAAAAAAFgBAAAAHgAQCAAADDzxmAcwzoLABgCIAiTSSACCCAAhIgAAiIGO7IgfNjLGsbumeCvn0Bnf+Af4+b+eIEABAgACQABAgAIEAASAAAAAAAAAAA==

> <PUBCHEM_IUPAC_OPENEYE_NAME>
(2S)-6-hydroxy-5-[(2S,3R,4S,5S,6R)-3,4,5-trihydroxy-6-(hydroxymethyl)tetrahydropyran-2-yl]oxy-indoline-2-carboxylic acid

> <PUBCHEM_IUPAC_CAS_NAME>
(2S)-6-hydroxy-5-[[(2S,3R,4S,5S,6R)-3,4,5-trihydroxy-6-(hydroxymethyl)-2-oxanyl]oxy]-2,3-dihydro-1H-indole-2-carboxylic acid

> <PUBCHEM_IUPAC_NAME>
(2S)-6-hydroxy-5-[(2S,3R,4S,5S,6R)-3,4,5-trihydroxy-6-(hydroxymethyl)oxan-2-yl]oxy-2,3-dihydro-1H-indole-2-carboxylic acid

> <PUBCHEM_IUPAC_SYSTEMATIC_NAME>
(2S)-5-[(2S,3R,4S,5S,6R)-6-(hydroxymethyl)-3,4,5-tris(oxidanyl)oxan-2-yl]oxy-6-oxidanyl-2,3-dihydro-1H-indole-2-carboxylic acid

> <PUBCHEM_IUPAC_TRADITIONAL_NAME>
(2S)-6-hydroxy-5-[(2S,3R,4S,5S,6R)-3,4,5-trihydroxy-6-methylol-tetrahydropyran-2-yl]oxy-indoline-2-carboxylic acid

> <PUBCHEM_IUPAC_INCHI>
InChI=1S/C15H19NO9/c17-4-10-11(19)12(20)13(21)15(25-10)24-9-2-5-1-7(14(22)23)16-6(5)3-8(9)18/h2-3,7,10-13,15-21H,1,4H2,(H,22,23)/t7-,10+,11+,12-,13+,15+/m0/s1

> <PUBCHEM_IUPAC_INCHIKEY>
PXMFPPFHRQZIHO-OLCQZNMOSA-N

> <PUBCHEM_XLOGP3_AA>
-0.9

> <PUBCHEM_EXACT_MASS>
357.105981

> <PUBCHEM_MOLECULAR_FORMULA>
C15H19NO9

> <PUBCHEM_MOLECULAR_WEIGHT>
357.31266

> <PUBCHEM_OPENEYE_CAN_SMILES>
C1C(NC2=CC(=C(C=C21)OC3C(C(C(C(O3)CO)O)O)O)O)C(=O)O

> <PUBCHEM_OPENEYE_ISO_SMILES>
C1[C@H](NC2=CC(=C(C=C21)O[C@H]3[C@@H]([C@H]([C@@H]([C@H](O3)CO)O)O)O)O)C(=O)O

> <PUBCHEM_CACTVS_TPSA>
169

> <PUBCHEM_MONOISOTOPIC_WEIGHT>
357.105981

> <PUBCHEM_TOTAL_CHARGE>
0

> <PUBCHEM_HEAVY_ATOM_COUNT>
25

> <PUBCHEM_ATOM_DEF_STEREO_COUNT>
6

> <PUBCHEM_ATOM_UDEF_STEREO_COUNT>
0

> <PUBCHEM_BOND_DEF_STEREO_COUNT>
0

> <PUBCHEM_BOND_UDEF_STEREO_COUNT>
0

> <PUBCHEM_ISOTOPIC_ATOM_COUNT>
0

> <PUBCHEM_COMPONENT_COUNT>
1

> <PUBCHEM_CACTVS_TAUTO_COUNT>
9

> <PUBCHEM_COORDINATE_TYPE>
1
5
255

> <PUBCHEM_BONDANNOTATIONS>
14  16  6
18  20  8
18  22  8
19  25  6
15  2  6
20  24  8
21  22  8
21  23  8
23  24  8
11  3  6
12  4  5
13  5  5

$$$$

