   Color/Form

     * Crystals with green fluorescence from ethanol.
     * Crystals ... exhibits green-blue fluorescence.

   from [1]HSDB

   Melting Point
        237-240 deg C
   from [2]HSDB

   Spectral Properties

     * Max absorption (ethanol): 265, 363 nm (e= 9700, 21,000); specific
       optical rotation (0.084 in chloroform): -473 deg/D
     * MAX ABSORPTION: 217, 245, 265, 365 NM (E= 28,000, 12,900, 11,200,
       19,300); FLUORESCENCE EMISSION: 450 NM; SPECIFIC OPTICAL ROTATION
       (1.0 IN CHLOROFORM): -454 DEG/D
     * MASS: 64293 (NIST/EPA/MSDC Mass Spectral Database, 1990 version)

   from [3]HSDB

   Computed Properties
   Molecular Weight                  330.28886 [g/mol]
   Molecular Formula                 C[17]H[14]O[7]
   XLogP3-AA                         1.5
   H-Bond Donor                      0
   H-Bond Acceptor                   7
   Rotatable Bond Count              1
   Exact Mass                        330.073953
   MonoIsotopic Mass                 330.073953
   Topological Polar Surface Area    80.3
   Heavy Atom Count                  24
   Formal Charge                     0
   Complexity                        626
   Isotope Atom Count                0
   Defined Atom Stereocenter Count   2
   Undefined Atom Stereocenter Count 0
   Defined Bond Stereocenter Count   0
   Undefined Bond Stereocenter Count 0
   Covalently-Bonded Unit Count      1
   Feature 3D Acceptor Count         5
   Feature 3D Anion Count            1
   Feature 3D Ring Count             5
   Effective Rotor Count             2.4
   Conformer Sampling RMSD           0.6
   CID Conformer Count               [4]2

References

   1. http://toxnet.nlm.nih.gov/cgi-bin/sis/search/r?dbs+hsdb:@term+@rn+@rel+7241-98-7
   2. http://toxnet.nlm.nih.gov/cgi-bin/sis/search/r?dbs+hsdb:@term+@rn+@rel+7241-98-7
   3. http://toxnet.nlm.nih.gov/cgi-bin/sis/search/r?dbs+hsdb:@term+@rn+@rel+7241-98-7
   4. http://pubchem.ncbi.nlm.nih.gov/vw3d/vw3d.cgi?cid=2724362
