82400
  -OEChem-07051212452D

 34 34  0     1  0  0  0  0  0999 V2000
    7.1962    1.2035    0.0000 P   0  0  0  0  0  0  0  0  0  0  0  0
    2.8660    1.7035    0.0000 P   0  0  0  0  0  0  0  0  0  0  0  0
    5.4641    0.2035    0.0000 O   0  0  0  0  0  0  0  0  0  0  0  0
    3.7320   -1.7965    0.0000 O   0  0  0  0  0  0  0  0  0  0  0  0
    5.4641   -2.7965    0.0000 O   0  0  0  0  0  0  0  0  0  0  0  0
    7.1962    0.2035    0.0000 O   0  0  0  0  0  0  0  0  0  0  0  0
    7.1962   -1.7965    0.0000 O   0  0  0  0  0  0  0  0  0  0  0  0
    3.7320    1.2035    0.0000 O   0  0  0  0  0  0  0  0  0  0  0  0
    7.1962    2.2035    0.0000 O   0  0  0  0  0  0  0  0  0  0  0  0
    8.1962    1.2035    0.0000 O   0  0  0  0  0  0  0  0  0  0  0  0
    6.1962    1.2035    0.0000 O   0  0  0  0  0  0  0  0  0  0  0  0
    2.0000    2.2035    0.0000 O   0  0  0  0  0  0  0  0  0  0  0  0
    3.3660    2.5695    0.0000 O   0  0  0  0  0  0  0  0  0  0  0  0
    2.3660    0.8375    0.0000 O   0  0  0  0  0  0  0  0  0  0  0  0
    4.5981   -1.2965    0.0000 C   0  0  1  0  0  0  0  0  0  0  0  0
    5.4641   -1.7965    0.0000 C   0  0  1  0  0  0  0  0  0  0  0  0
    4.5981   -0.2965    0.0000 C   0  0  1  0  0  0  0  0  0  0  0  0
    6.3301   -1.2965    0.0000 C   0  0  2  0  0  0  0  0  0  0  0  0
    6.3301   -0.2965    0.0000 C   0  0  2  0  0  0  0  0  0  0  0  0
    3.7320    0.2035    0.0000 C   0  0  0  0  0  0  0  0  0  0  0  0
    4.5981   -1.9165    0.0000 H   0  0  0  0  0  0  0  0  0  0  0  0
    6.0010   -2.1065    0.0000 H   0  0  0  0  0  0  0  0  0  0  0  0
    4.5981    0.3235    0.0000 H   0  0  0  0  0  0  0  0  0  0  0  0
    6.8671   -0.9865    0.0000 H   0  0  0  0  0  0  0  0  0  0  0  0
    6.8671   -0.6065    0.0000 H   0  0  0  0  0  0  0  0  0  0  0  0
    3.1215    0.3112    0.0000 H   0  0  0  0  0  0  0  0  0  0  0  0
    3.5200   -0.3791    0.0000 H   0  0  0  0  0  0  0  0  0  0  0  0
    3.1951   -1.4865    0.0000 H   0  0  0  0  0  0  0  0  0  0  0  0
    4.9272   -3.1065    0.0000 H   0  0  0  0  0  0  0  0  0  0  0  0
    7.1962   -2.4165    0.0000 H   0  0  0  0  0  0  0  0  0  0  0  0
    8.5062    0.6666    0.0000 H   0  0  0  0  0  0  0  0  0  0  0  0
    7.7331    2.5135    0.0000 H   0  0  0  0  0  0  0  0  0  0  0  0
    3.0560    3.1065    0.0000 H   0  0  0  0  0  0  0  0  0  0  0  0
    2.0000    2.8235    0.0000 H   0  0  0  0  0  0  0  0  0  0  0  0
  1  6  1  0  0  0  0
  1  9  1  0  0  0  0
  1 10  1  0  0  0  0
  1 11  2  0  0  0  0
  2  8  1  0  0  0  0
  2 12  1  0  0  0  0
  2 13  1  0  0  0  0
  2 14  2  0  0  0  0
  3 17  1  0  0  0  0
  3 19  1  0  0  0  0
 15  4  1  6  0  0  0
  4 28  1  0  0  0  0
 16  5  1  1  0  0  0
  5 29  1  0  0  0  0
 19  6  1  6  0  0  0
 18  7  1  6  0  0  0
  7 30  1  0  0  0  0
  8 20  1  0  0  0  0
  9 32  1  0  0  0  0
 10 31  1  0  0  0  0
 12 34  1  0  0  0  0
 13 33  1  0  0  0  0
 15 16  1  0  0  0  0
 15 17  1  0  0  0  0
 15 21  1  0  0  0  0
 16 18  1  0  0  0  0
 16 22  1  0  0  0  0
 17 20  1  1  0  0  0
 17 23  1  0  0  0  0
 18 19  1  0  0  0  0
 18 24  1  0  0  0  0
 19 25  1  0  0  0  0
 20 26  1  0  0  0  0
 20 27  1  0  0  0  0
M  END
> <PUBCHEM_COMPOUND_CID>
82400

> <PUBCHEM_COMPOUND_CANONICALIZED>
1

> <PUBCHEM_CACTVS_COMPLEXITY>
414

> <PUBCHEM_CACTVS_HBOND_ACCEPTOR>
12

> <PUBCHEM_CACTVS_HBOND_DONOR>
7

> <PUBCHEM_CACTVS_ROTATABLE_BOND>
5

> <PUBCHEM_CACTVS_SUBSKEYS>
AAADccBgPAMAAAAAAAAAAAAAAAAAAAAAAAAkAAAAAAAAAAAAAAAAGgAACCAACBSwgAMACAAABxAAQAAAAIAAAAAAAAAAAAAAAAAREAIAAAACQAAFAAAHAAHAYAQAAAAAAAAAAAAAAAAAAAAAAAAAAAAAAA==

> <PUBCHEM_IUPAC_OPENEYE_NAME>
[(2R,3R,4S,5S,6R)-3,4,5-trihydroxy-6-(phosphonooxymethyl)tetrahydropyran-2-yl] dihydrogen phosphate

> <PUBCHEM_IUPAC_CAS_NAME>
[(2R,3R,4S,5S,6R)-3,4,5-trihydroxy-6-(phosphonooxymethyl)-2-oxanyl] dihydrogen phosphate

> <PUBCHEM_IUPAC_NAME>
[(2R,3R,4S,5S,6R)-3,4,5-trihydroxy-6-(phosphonooxymethyl)oxan-2-yl] dihydrogen phosphate

> <PUBCHEM_IUPAC_SYSTEMATIC_NAME>
[(2R,3R,4S,5S,6R)-3,4,5-tris(oxidanyl)-6-(phosphonooxymethyl)oxan-2-yl] dihydrogen phosphate

> <PUBCHEM_IUPAC_TRADITIONAL_NAME>
[(2R,3R,4S,5S,6R)-3,4,5-trihydroxy-6-(phosphonooxymethyl)tetrahydropyran-2-yl] dihydrogen phosphate

> <PUBCHEM_IUPAC_INCHI>
InChI=1S/C6H14O12P2/c7-3-2(1-16-19(10,11)12)17-6(5(9)4(3)8)18-20(13,14)15/h2-9H,1H2,(H2,10,11,12)(H2,13,14,15)/t2-,3-,4+,5-,6-/m1/s1

> <PUBCHEM_IUPAC_INCHIKEY>
RWHOZGRAXYWRNX-VFUOTHLCSA-N

> <PUBCHEM_XLOGP3_AA>
-5.3

> <PUBCHEM_EXACT_MASS>
339.996049

> <PUBCHEM_MOLECULAR_FORMULA>
C6H14O12P2

> <PUBCHEM_MOLECULAR_WEIGHT>
340.115684

> <PUBCHEM_OPENEYE_CAN_SMILES>
C(C1C(C(C(C(O1)OP(=O)(O)O)O)O)O)OP(=O)(O)O

> <PUBCHEM_OPENEYE_ISO_SMILES>
C([C@@H]1[C@H]([C@@H]([C@H]([C@H](O1)OP(=O)(O)O)O)O)O)OP(=O)(O)O

> <PUBCHEM_CACTVS_TPSA>
203

> <PUBCHEM_MONOISOTOPIC_WEIGHT>
339.996049

> <PUBCHEM_TOTAL_CHARGE>
0

> <PUBCHEM_HEAVY_ATOM_COUNT>
20

> <PUBCHEM_ATOM_DEF_STEREO_COUNT>
5

> <PUBCHEM_ATOM_UDEF_STEREO_COUNT>
0

> <PUBCHEM_BOND_DEF_STEREO_COUNT>
0

> <PUBCHEM_BOND_UDEF_STEREO_COUNT>
0

> <PUBCHEM_ISOTOPIC_ATOM_COUNT>
0

> <PUBCHEM_COMPONENT_COUNT>
1

> <PUBCHEM_CACTVS_TAUTO_COUNT>
1

> <PUBCHEM_COORDINATE_TYPE>
1
5
255

> <PUBCHEM_BONDANNOTATIONS>
17  20  5
15  4  6
16  5  5
19  6  6
18  7  6

$$$$

