   Color/Form
        Pale yellow to brownish-yellow liquid
   from [1]HSDB

   Boiling Point
        126-129 deg C @ 0.008 mm hg
   from [2]HSDB

   Melting Point
        3.3 deg C
   from [3]HSDB

   Corrosivity
        Relatively noncorrosive
   from [4]HSDB

   Density/Specific Gravity
        1.145 to 1.180 @ 20 deg C
   from [5]HSDB

   Octanol/Water Partition Coefficient
        log Kow=3.42
   from [6]HSDB

   Solubilities

     * Readily soluble in acetone, ethanol, xylene, methanol, benzene,
       n-hexane, and acetonitrile.
     * In water, 28.0 mg/l @ 25 deg C

   from [7]HSDB

   Vapor Pressure
        2.2X10-5 mm Hg @ 25 deg C
   from [8]HSDB

   Other Chemical/Physical Properties
        Stable in water at pH 5-9 for 5-9 days (21 deg C); stable to heat.
   from [9]HSDB

   Computed Properties
   Molecular Weight                  257.77954 [g/mol]
   Molecular Formula                 C[12]H[16]ClNOS
   XLogP3                            3.4
   H-Bond Donor                      0
   H-Bond Acceptor                   2
   Rotatable Bond Count              5
   Exact Mass                        257.064113
   MonoIsotopic Mass                 257.064113
   Topological Polar Surface Area    45.6
   Heavy Atom Count                  16
   Formal Charge                     0
   Complexity                        213
   Isotope Atom Count                0
   Defined Atom Stereocenter Count   0
   Undefined Atom Stereocenter Count 0
   Defined Bond Stereocenter Count   0
   Undefined Bond Stereocenter Count 0
   Covalently-Bonded Unit Count      1
   Feature 3D Ring Count             1
   Effective Rotor Count             6
   Conformer Sampling RMSD           0.8
   CID Conformer Count               [10]29

References

   1. http://toxnet.nlm.nih.gov/cgi-bin/sis/search/r?dbs+hsdb:@term+@rn+@rel+28249-77-6
   2. http://toxnet.nlm.nih.gov/cgi-bin/sis/search/r?dbs+hsdb:@term+@rn+@rel+28249-77-6
   3. http://toxnet.nlm.nih.gov/cgi-bin/sis/search/r?dbs+hsdb:@term+@rn+@rel+28249-77-6
   4. http://toxnet.nlm.nih.gov/cgi-bin/sis/search/r?dbs+hsdb:@term+@rn+@rel+28249-77-6
   5. http://toxnet.nlm.nih.gov/cgi-bin/sis/search/r?dbs+hsdb:@term+@rn+@rel+28249-77-6
   6. http://toxnet.nlm.nih.gov/cgi-bin/sis/search/r?dbs+hsdb:@term+@rn+@rel+28249-77-6
   7. http://toxnet.nlm.nih.gov/cgi-bin/sis/search/r?dbs+hsdb:@term+@rn+@rel+28249-77-6
   8. http://toxnet.nlm.nih.gov/cgi-bin/sis/search/r?dbs+hsdb:@term+@rn+@rel+28249-77-6
   9. http://toxnet.nlm.nih.gov/cgi-bin/sis/search/r?dbs+hsdb:@term+@rn+@rel+28249-77-6
  10. http://pubchem.ncbi.nlm.nih.gov/vw3d/vw3d.cgi?cid=34192
