442839
  -OEChem-07051212592D

 54 55  0     0  0  0  0  0  0999 V2000
    8.3235   -4.4193    0.0000 O   0  0  0  0  0  0  0  0  0  0  0  0
    4.5981    5.6418    0.0000 O   0  0  0  0  0  0  0  0  0  0  0  0
    2.8660    4.6418    0.0000 O   0  0  0  0  0  0  0  0  0  0  0  0
    6.7412   -5.1238    0.0000 O   0  0  0  0  0  0  0  0  0  0  0  0
    8.7788    0.8054    0.0000 N   0  0  0  0  0  0  0  0  0  0  0  0
    7.3007    0.1473    0.0000 N   0  0  0  0  0  0  0  0  0  0  0  0
    8.6856   -0.9741    0.0000 C   0  0  0  0  0  0  0  0  0  0  0  0
    7.1962    1.1418    0.0000 C   0  0  0  0  0  0  0  0  0  0  0  0
    6.3301    1.6418    0.0000 C   0  0  0  0  0  0  0  0  0  0  0  0
    8.2788   -0.0606    0.0000 C   0  0  0  0  0  0  0  0  0  0  0  0
    8.0978   -1.7832    0.0000 C   0  0  0  0  0  0  0  0  0  0  0  0
    8.1097    1.5486    0.0000 C   0  0  0  0  0  0  0  0  0  0  0  0
    6.3301    2.6418    0.0000 C   0  0  0  0  0  0  0  0  0  0  0  0
    8.5045   -2.6967    0.0000 C   0  0  0  0  0  0  0  0  0  0  0  0
    5.4641    3.1418    0.0000 C   0  0  0  0  0  0  0  0  0  0  0  0
    8.3176    2.5267    0.0000 C   0  0  0  0  0  0  0  0  0  0  0  0
    7.9167   -3.5057    0.0000 C   0  0  0  0  0  0  0  0  0  0  0  0
    5.4641    4.1418    0.0000 C   0  0  0  0  0  0  0  0  0  0  0  0
    4.5981    2.6418    0.0000 C   0  0  0  0  0  0  0  0  0  0  0  0
    4.5981    4.6418    0.0000 C   0  0  0  0  0  0  0  0  0  0  0  0
    3.7320    3.1418    0.0000 C   0  0  0  0  0  0  0  0  0  0  0  0
    3.7320    4.1418    0.0000 C   0  0  0  0  0  0  0  0  0  0  0  0
    7.7357   -5.2283    0.0000 C   0  0  0  0  0  0  0  0  0  0  0  0
    5.4641    6.1418    0.0000 C   0  0  0  0  0  0  0  0  0  0  0  0
    8.1424   -6.1418    0.0000 C   0  0  0  0  0  0  0  0  0  0  0  0
    2.0000    4.1418    0.0000 C   0  0  0  0  0  0  0  0  0  0  0  0
    9.1163   -1.4201    0.0000 H   0  0  0  0  0  0  0  0  0  0  0  0
    9.1996   -0.6274    0.0000 H   0  0  0  0  0  0  0  0  0  0  0  0
    5.7196    1.7495    0.0000 H   0  0  0  0  0  0  0  0  0  0  0  0
    6.1181    1.0592    0.0000 H   0  0  0  0  0  0  0  0  0  0  0  0
    7.6671   -1.3372    0.0000 H   0  0  0  0  0  0  0  0  0  0  0  0
    7.5838   -2.1299    0.0000 H   0  0  0  0  0  0  0  0  0  0  0  0
    6.9407    2.5342    0.0000 H   0  0  0  0  0  0  0  0  0  0  0  0
    6.5422    3.2244    0.0000 H   0  0  0  0  0  0  0  0  0  0  0  0
    9.3954    0.8702    0.0000 H   0  0  0  0  0  0  0  0  0  0  0  0
    8.9352   -3.1427    0.0000 H   0  0  0  0  0  0  0  0  0  0  0  0
    9.0185   -2.3500    0.0000 H   0  0  0  0  0  0  0  0  0  0  0  0
    8.9241    2.3978    0.0000 H   0  0  0  0  0  0  0  0  0  0  0  0
    8.4465    3.1332    0.0000 H   0  0  0  0  0  0  0  0  0  0  0  0
    7.7112    2.6556    0.0000 H   0  0  0  0  0  0  0  0  0  0  0  0
    7.4860   -3.0597    0.0000 H   0  0  0  0  0  0  0  0  0  0  0  0
    7.4027   -3.8524    0.0000 H   0  0  0  0  0  0  0  0  0  0  0  0
    6.0010    4.4518    0.0000 H   0  0  0  0  0  0  0  0  0  0  0  0
    4.5981    2.0218    0.0000 H   0  0  0  0  0  0  0  0  0  0  0  0
    3.1951    2.8318    0.0000 H   0  0  0  0  0  0  0  0  0  0  0  0
    5.7741    5.6049    0.0000 H   0  0  0  0  0  0  0  0  0  0  0  0
    6.0010    6.4518    0.0000 H   0  0  0  0  0  0  0  0  0  0  0  0
    5.1541    6.6788    0.0000 H   0  0  0  0  0  0  0  0  0  0  0  0
    7.5760   -6.3940    0.0000 H   0  0  0  0  0  0  0  0  0  0  0  0
    8.3946   -6.7082    0.0000 H   0  0  0  0  0  0  0  0  0  0  0  0
    8.7088   -5.8897    0.0000 H   0  0  0  0  0  0  0  0  0  0  0  0
    1.6900    4.6788    0.0000 H   0  0  0  0  0  0  0  0  0  0  0  0
    1.4631    3.8318    0.0000 H   0  0  0  0  0  0  0  0  0  0  0  0
    2.3100    3.6049    0.0000 H   0  0  0  0  0  0  0  0  0  0  0  0
  1 17  1  0  0  0  0
  1 23  1  0  0  0  0
  2 20  1  0  0  0  0
  2 24  1  0  0  0  0
  3 22  1  0  0  0  0
  3 26  1  0  0  0  0
  4 23  2  0  0  0  0
  5 10  1  0  0  0  0
  5 12  1  0  0  0  0
  5 35  1  0  0  0  0
  6  8  1  0  0  0  0
  6 10  2  0  0  0  0
  7 10  1  0  0  0  0
  7 11  1  0  0  0  0
  7 27  1  0  0  0  0
  7 28  1  0  0  0  0
  8  9  1  0  0  0  0
  8 12  2  0  0  0  0
  9 13  1  0  0  0  0
  9 29  1  0  0  0  0
  9 30  1  0  0  0  0
 11 14  1  0  0  0  0
 11 31  1  0  0  0  0
 11 32  1  0  0  0  0
 12 16  1  0  0  0  0
 13 15  1  0  0  0  0
 13 33  1  0  0  0  0
 13 34  1  0  0  0  0
 14 17  1  0  0  0  0
 14 36  1  0  0  0  0
 14 37  1  0  0  0  0
 15 18  2  0  0  0  0
 15 19  1  0  0  0  0
 16 38  1  0  0  0  0
 16 39  1  0  0  0  0
 16 40  1  0  0  0  0
 17 41  1  0  0  0  0
 17 42  1  0  0  0  0
 18 20  1  0  0  0  0
 18 43  1  0  0  0  0
 19 21  2  0  0  0  0
 19 44  1  0  0  0  0
 20 22  2  0  0  0  0
 21 22  1  0  0  0  0
 21 45  1  0  0  0  0
 23 25  1  0  0  0  0
 24 46  1  0  0  0  0
 24 47  1  0  0  0  0
 24 48  1  0  0  0  0
 25 49  1  0  0  0  0
 25 50  1  0  0  0  0
 25 51  1  0  0  0  0
 26 52  1  0  0  0  0
 26 53  1  0  0  0  0
 26 54  1  0  0  0  0
M  END
> <PUBCHEM_COMPOUND_CID>
442839

> <PUBCHEM_COMPOUND_CANONICALIZED>
1

> <PUBCHEM_CACTVS_COMPLEXITY>
421

> <PUBCHEM_CACTVS_HBOND_ACCEPTOR>
5

> <PUBCHEM_CACTVS_HBOND_DONOR>
1

> <PUBCHEM_CACTVS_ROTATABLE_BOND>
11

> <PUBCHEM_CACTVS_SUBSKEYS>
AAADceB7OAAAAAAAAAAAAAAAAAAAAWAAAAAwAAAAAAAAAAABwAAAHgAQAAAADAyhnwIznpbJlACoAybybAACiC2hMKAJmQA22IiNbiLEuRqWMCIs0BPK6CeQ0PIOIAABAAAAQABAAAIAAACAAAAAAAAAAA==

> <PUBCHEM_IUPAC_OPENEYE_NAME>
4-[4-[2-(3,4-dimethoxyphenyl)ethyl]-5-methyl-1H-imidazol-2-yl]butyl acetate

> <PUBCHEM_IUPAC_CAS_NAME>
acetic acid 4-[4-[2-(3,4-dimethoxyphenyl)ethyl]-5-methyl-1H-imidazol-2-yl]butyl ester

> <PUBCHEM_IUPAC_NAME>
4-[4-[2-(3,4-dimethoxyphenyl)ethyl]-5-methyl-1H-imidazol-2-yl]butyl acetate

> <PUBCHEM_IUPAC_SYSTEMATIC_NAME>
4-[4-[2-(3,4-dimethoxyphenyl)ethyl]-5-methyl-1H-imidazol-2-yl]butyl ethanoate

> <PUBCHEM_IUPAC_TRADITIONAL_NAME>
acetic acid 4-(4-homoveratryl-5-methyl-1H-imidazol-2-yl)butyl ester

> <PUBCHEM_IUPAC_INCHI>
InChI=1S/C20H28N2O4/c1-14-17(22-20(21-14)7-5-6-12-26-15(2)23)10-8-16-9-11-18(24-3)19(13-16)25-4/h9,11,13H,5-8,10,12H2,1-4H3,(H,21,22)

> <PUBCHEM_IUPAC_INCHIKEY>
KKAYZKDSAIGIJC-UHFFFAOYSA-N

> <PUBCHEM_XLOGP3_AA>
3.6

> <PUBCHEM_EXACT_MASS>
360.204907

> <PUBCHEM_MOLECULAR_FORMULA>
C20H28N2O4

> <PUBCHEM_MOLECULAR_WEIGHT>
360.44732

> <PUBCHEM_OPENEYE_CAN_SMILES>
CC1=C(N=C(N1)CCCCOC(=O)C)CCC2=CC(=C(C=C2)OC)OC

> <PUBCHEM_OPENEYE_ISO_SMILES>
CC1=C(N=C(N1)CCCCOC(=O)C)CCC2=CC(=C(C=C2)OC)OC

> <PUBCHEM_CACTVS_TPSA>
73.4

> <PUBCHEM_MONOISOTOPIC_WEIGHT>
360.204907

> <PUBCHEM_TOTAL_CHARGE>
0

> <PUBCHEM_HEAVY_ATOM_COUNT>
26

> <PUBCHEM_ATOM_DEF_STEREO_COUNT>
0

> <PUBCHEM_ATOM_UDEF_STEREO_COUNT>
0

> <PUBCHEM_BOND_DEF_STEREO_COUNT>
0

> <PUBCHEM_BOND_UDEF_STEREO_COUNT>
0

> <PUBCHEM_ISOTOPIC_ATOM_COUNT>
0

> <PUBCHEM_COMPONENT_COUNT>
1

> <PUBCHEM_CACTVS_TAUTO_COUNT>
3

> <PUBCHEM_COORDINATE_TYPE>
1
5
255

> <PUBCHEM_BONDANNOTATIONS>
15  18  8
15  19  8
18  20  8
19  21  8
20  22  8
21  22  8
5  10  8
5  12  8
6  10  8
6  8  8
8  12  8

$$$$

