5688
  -OEChem-06261200492D

 66 72  0     1  0  0  0  0  0999 V2000
    9.8312    2.8629    0.0000 O   0  0  0  0  0  0  0  0  0  0  0  0
    2.7684   -0.3179    0.0000 N   0  0  0  0  0  0  0  0  0  0  0  0
    3.6344   -1.8179    0.0000 N   0  0  0  0  0  0  0  0  0  0  0  0
    2.0314   -1.9850    0.0000 N   0  0  0  0  0  0  0  0  0  0  0  0
    6.3747    2.8434    0.0000 C   0  0  3  0  0  0  0  0  0  0  0  0
    6.3664    1.7585    0.0000 C   0  0  3  0  0  0  0  0  0  0  0  0
    7.3491    3.4160    0.0000 C   0  0  3  0  0  0  0  0  0  0  0  0
    8.3279    2.8510    0.0000 C   0  0  3  0  0  0  0  0  0  0  0  0
    5.4185    1.2305    0.0000 C   0  0  3  0  0  0  0  0  0  0  0  0
    4.5164    1.7513    0.0000 C   0  0  3  0  0  0  0  0  0  0  0  0
    7.3318    1.1709    0.0000 C   0  0  0  0  0  0  0  0  0  0  0  0
    8.3191    1.7208    0.0000 C   0  0  0  0  0  0  0  0  0  0  0  0
    5.4351    3.3859    0.0000 C   0  0  0  0  0  0  0  0  0  0  0  0
    9.1608    3.6049    0.0000 C   0  0  3  0  0  0  0  0  0  0  0  0
    7.5855    4.5144    0.0000 C   0  0  0  0  0  0  0  0  0  0  0  0
    4.4997    2.8362    0.0000 C   0  0  0  0  0  0  0  0  0  0  0  0
    8.7030    4.6308    0.0000 C   0  0  0  0  0  0  0  0  0  0  0  0
    5.4105    0.1889    0.0000 C   0  0  0  0  0  0  0  0  0  0  0  0
    9.1939    2.3510    0.0000 C   0  0  0  0  0  0  0  0  0  0  0  0
    6.2845    0.7305    0.0000 C   0  0  0  0  0  0  0  0  0  0  0  0
    3.6184    1.2236    0.0000 C   0  0  0  0  0  0  0  0  0  0  0  0
    4.5005   -0.3179    0.0000 C   0  0  0  0  0  0  0  0  0  0  0  0
    3.6344    0.1821    0.0000 C   0  0  0  0  0  0  0  0  0  0  0  0
   10.0736    4.0132    0.0000 C   0  0  0  0  0  0  0  0  0  0  0  0
    4.5005   -1.3179    0.0000 C   0  0  0  0  0  0  0  0  0  0  0  0
   10.9865    4.4215    0.0000 C   0  0  0  0  0  0  0  0  0  0  0  0
    2.7684   -1.3179    0.0000 C   0  0  0  0  0  0  0  0  0  0  0  0
    3.4252   -2.7898    0.0000 C   0  0  0  0  0  0  0  0  0  0  0  0
    2.4365   -2.8928    0.0000 C   0  0  0  0  0  0  0  0  0  0  0  0
    4.0460   -3.6185    0.0000 C   0  0  0  0  0  0  0  0  0  0  0  0
    2.0000   -3.8318    0.0000 C   0  0  0  0  0  0  0  0  0  0  0  0
    3.6313   -4.5673    0.0000 C   0  0  0  0  0  0  0  0  0  0  0  0
    2.6014   -4.6747    0.0000 C   0  0  0  0  0  0  0  0  0  0  0  0
    6.3724    3.4634    0.0000 H   0  0  0  0  0  0  0  0  0  0  0  0
    6.3544    1.1386    0.0000 H   0  0  0  0  0  0  0  0  0  0  0  0
    6.8466    3.7792    0.0000 H   0  0  0  0  0  0  0  0  0  0  0  0
    3.9759    2.0551    0.0000 H   0  0  0  0  0  0  0  0  0  0  0  0
    6.9236    0.7042    0.0000 H   0  0  0  0  0  0  0  0  0  0  0  0
    7.7217    0.6889    0.0000 H   0  0  0  0  0  0  0  0  0  0  0  0
    8.5237    1.1355    0.0000 H   0  0  0  0  0  0  0  0  0  0  0  0
    8.9308    1.8222    0.0000 H   0  0  0  0  0  0  0  0  0  0  0  0
    5.8324    3.8619    0.0000 H   0  0  0  0  0  0  0  0  0  0  0  0
    5.0341    3.8588    0.0000 H   0  0  0  0  0  0  0  0  0  0  0  0
    7.5864    5.1344    0.0000 H   0  0  0  0  0  0  0  0  0  0  0  0
    6.9691    4.5804    0.0000 H   0  0  0  0  0  0  0  0  0  0  0  0
    4.2817    3.4166    0.0000 H   0  0  0  0  0  0  0  0  0  0  0  0
    3.8905    2.7207    0.0000 H   0  0  0  0  0  0  0  0  0  0  0  0
    9.2926    4.8226    0.0000 H   0  0  0  0  0  0  0  0  0  0  0  0
    8.5742    5.2373    0.0000 H   0  0  0  0  0  0  0  0  0  0  0  0
    5.6150   -0.3964    0.0000 H   0  0  0  0  0  0  0  0  0  0  0  0
    6.0221    0.2903    0.0000 H   0  0  0  0  0  0  0  0  0  0  0  0
    8.8839    1.8140    0.0000 H   0  0  0  0  0  0  0  0  0  0  0  0
    9.7308    2.0410    0.0000 H   0  0  0  0  0  0  0  0  0  0  0  0
    9.5039    2.8879    0.0000 H   0  0  0  0  0  0  0  0  0  0  0  0
    5.9745    0.1936    0.0000 H   0  0  0  0  0  0  0  0  0  0  0  0
    6.8214    0.4205    0.0000 H   0  0  0  0  0  0  0  0  0  0  0  0
    6.5945    1.2674    0.0000 H   0  0  0  0  0  0  0  0  0  0  0  0
    3.4004    1.8040    0.0000 H   0  0  0  0  0  0  0  0  0  0  0  0
    3.0092    1.1081    0.0000 H   0  0  0  0  0  0  0  0  0  0  0  0
   10.4374    2.9928    0.0000 H   0  0  0  0  0  0  0  0  0  0  0  0
    5.0374   -1.6279    0.0000 H   0  0  0  0  0  0  0  0  0  0  0  0
   11.5524    4.6747    0.0000 H   0  0  0  0  0  0  0  0  0  0  0  0
    4.6619   -3.5471    0.0000 H   0  0  0  0  0  0  0  0  0  0  0  0
    1.3826   -3.8889    0.0000 H   0  0  0  0  0  0  0  0  0  0  0  0
    3.9972   -5.0678    0.0000 H   0  0  0  0  0  0  0  0  0  0  0  0
    2.3466   -5.2399    0.0000 H   0  0  0  0  0  0  0  0  0  0  0  0
  1 14  1  0  0  0  0
  1 60  1  0  0  0  0
  2 23  2  0  0  0  0
  2 27  1  0  0  0  0
  3 25  1  0  0  0  0
  3 27  1  0  0  0  0
  3 28  1  0  0  0  0
  4 27  2  0  0  0  0
  4 29  1  0  0  0  0
  5  6  1  0  0  0  0
  5  7  1  0  0  0  0
  5 13  1  0  0  0  0
  5 34  1  0  0  0  0
  6  9  1  0  0  0  0
  6 11  1  0  0  0  0
  6 35  1  0  0  0  0
  7  8  1  0  0  0  0
  7 15  1  0  0  0  0
  7 36  1  0  0  0  0
  8 12  1  0  0  0  0
  8 14  1  0  0  0  0
  8 19  1  0  0  0  0
  9 10  1  0  0  0  0
  9 18  1  0  0  0  0
  9 20  1  0  0  0  0
 10 16  1  0  0  0  0
 10 21  1  0  0  0  0
 10 37  1  0  0  0  0
 11 12  1  0  0  0  0
 11 38  1  0  0  0  0
 11 39  1  0  0  0  0
 12 40  1  0  0  0  0
 12 41  1  0  0  0  0
 13 16  1  0  0  0  0
 13 42  1  0  0  0  0
 13 43  1  0  0  0  0
 14 17  1  0  0  0  0
 14 24  1  0  0  0  0
 15 17  1  0  0  0  0
 15 44  1  0  0  0  0
 15 45  1  0  0  0  0
 16 46  1  0  0  0  0
 16 47  1  0  0  0  0
 17 48  1  0  0  0  0
 17 49  1  0  0  0  0
 18 22  1  0  0  0  0
 18 50  1  0  0  0  0
 18 51  1  0  0  0  0
 19 52  1  0  0  0  0
 19 53  1  0  0  0  0
 19 54  1  0  0  0  0
 20 55  1  0  0  0  0
 20 56  1  0  0  0  0
 20 57  1  0  0  0  0
 21 23  1  0  0  0  0
 21 58  1  0  0  0  0
 21 59  1  0  0  0  0
 22 23  1  0  0  0  0
 22 25  2  0  0  0  0
 24 26  3  0  0  0  0
 25 61  1  0  0  0  0
 26 62  1  0  0  0  0
 28 29  1  0  0  0  0
 28 30  2  0  0  0  0
 29 31  2  0  0  0  0
 30 32  1  0  0  0  0
 30 63  1  0  0  0  0
 31 33  1  0  0  0  0
 31 64  1  0  0  0  0
 32 33  2  0  0  0  0
 32 65  1  0  0  0  0
 33 66  1  0  0  0  0
M  END
> <PUBCHEM_COMPOUND_CID>
5688

> <PUBCHEM_COMPOUND_CANONICALIZED>
1

> <PUBCHEM_CACTVS_COMPLEXITY>
866

> <PUBCHEM_CACTVS_HBOND_ACCEPTOR>
3

> <PUBCHEM_CACTVS_HBOND_DONOR>
1

> <PUBCHEM_CACTVS_ROTATABLE_BOND>
1

> <PUBCHEM_CACTVS_SUBSKEYS>
AAADcfB7IAAAAAAAAAAAAAAAAAAAAeIAAAA8YMGCAAAAAHjx/AAAHgAACAAAD0zBngQ/0LcMGgDgGzRnZAiCgC0xEqAJ2CA4dJiIaOLA2dGUZAhsgALIyCeQwPAPgAAAAAAAACCQAASAACQAQYAADAAAAA==

> <PUBCHEM_IUPAC_INCHI>
InChI=1S/C29H33N3O/c1-4-29(33)14-12-22-20-10-9-19-15-24-18(16-27(19,2)21(20)11-13-28(22,29)3)17-32-25-8-6-5-7-23(25)30-26(32)31-24/h1,5-8,17,19-22,33H,9-16H2,2-3H3

> <PUBCHEM_IUPAC_INCHIKEY>
AIIXYCDTEGICEE-UHFFFAOYSA-N

> <PUBCHEM_XLOGP3_AA>
6.5

> <PUBCHEM_EXACT_MASS>
439.262363

> <PUBCHEM_MOLECULAR_FORMULA>
C29H33N3O

> <PUBCHEM_MOLECULAR_WEIGHT>
439.59182

> <PUBCHEM_OPENEYE_CAN_SMILES>
CC12CCC3C(C1CCC2(C#C)O)CCC4C3(CC5=CN6C7=CC=CC=C7N=C6N=C5C4)C

> <PUBCHEM_OPENEYE_ISO_SMILES>
CC12CCC3C(C1CCC2(C#C)O)CCC4C3(CC5=CN6C7=CC=CC=C7N=C6N=C5C4)C

> <PUBCHEM_CACTVS_TPSA>
50.4

> <PUBCHEM_MONOISOTOPIC_WEIGHT>
439.262363

> <PUBCHEM_TOTAL_CHARGE>
0

> <PUBCHEM_HEAVY_ATOM_COUNT>
33

> <PUBCHEM_ATOM_DEF_STEREO_COUNT>
0

> <PUBCHEM_ATOM_UDEF_STEREO_COUNT>
7

> <PUBCHEM_BOND_DEF_STEREO_COUNT>
0

> <PUBCHEM_BOND_UDEF_STEREO_COUNT>
0

> <PUBCHEM_ISOTOPIC_ATOM_COUNT>
0

> <PUBCHEM_COMPONENT_COUNT>
1

> <PUBCHEM_CACTVS_TAUTO_COUNT>
1

> <PUBCHEM_COORDINATE_TYPE>
1
5
255

> <PUBCHEM_BONDANNOTATIONS>
14  1  3
10  16  3
2  23  8
2  27  8
22  23  8
22  25  8
28  29  8
28  30  8
29  31  8
3  25  8
3  27  8
3  28  8
30  32  8
31  33  8
32  33  8
4  27  8
4  29  8
5  13  3
6  11  3
7  15  3
8  19  3
9  20  3

$$$$

