   Color/Form

     * RED LIQUID
     * Colorless, brown, yellow, or purple liquid ...

   from [1]HSDB

   Odor
        Pungent, unpleasant odor.
   from [2]HSDB

   Boiling Point
        44-45 deg C
   from [3]HSDB

   Melting Point
        -134.5 deg C
   from [4]HSDB

   Corrosivity
        Allyl chloride will attack some forms of plastics, rubber, and
   coatings.
   from [5]HSDB

   Critical Temperature and Pressure
        466 deg F; 690 PSI
   from [6]HSDB

   Density/Specific Gravity
        0.938 at 20 deg C/4 deg C
   from [7]HSDB

   Heat of Vaporization
        29.04 KJ/mol
   from [8]HSDB

   Octanol/Water Partition Coefficient
        log Kow = 1.93 (est)
   from [9]HSDB

   Solubilities

     * Miscible with alcohol, chloroform, ether, petrol ether
     * In water, 3,370 mg/L at 25 deg C

   from [10]HSDB

   Spectral Properties

     * MAX ABSORPTION: 230 NM; SADTLER REFERENCE NUMBER: 14564 (IR, PRISM)
     * IR: 171 (Coblentz Society Spectral Collection)
     * UV: 5-9 (Organic Electronic Spectral Data, Phillips et al, John
       Wiley & Sons, New York)
     * 1H NMR: 7833 (Sadtler Research Laboratories Spectral Collection)
     * MASS: 19226 (NIST/EPA/MSDC Mass Spectral Database 1990 version); 65
       (Aldermaston, Eight Peak Index of Mass Spectra, U.K.)
     * Raman: 726 (Sadtler Research Laboratories Spectral Collection)
     * Index of refraction: 1.4157 at 20 deg C/D

   from [11]HSDB

   Surface Tension
        0.0289 N/m at 15 deg C
   from [12]HSDB

   Vapor Density
        2.64 (Air= 1)
   from [13]HSDB

   Vapor Pressure
        368 mm Hg at 25 deg C
   from [14]HSDB

   Relative Evaporation Rate
        50% of the compound evaporated after 27 min in water at 25 deg C
   at 1 ppm.
   from [15]HSDB

   Other Chemical/Physical Properties

     * Percent in saturated air: 48 at 25 deg C; 1 mg/L is equivalent to
       320 ppm & 1 ppm is equivalent to 3.13 mg/cu m at 25 deg C
     * Henry's Law constant: 1.10X10-2 atm-cu m/ mol at 25 deg C (est)
     * Hydroxyl radical reaction rate constant = 1.70X10-11 cu
       cm/molec-sec at 25 deg C
     * Ozone rate constant = 1.5X10-18 cu cm/molec-sec at 25 deg C (est)

   from [16]HSDB

   Computed Properties
   Molecular Weight                  76.5248 [g/mol]
   Molecular Formula                 C[3]H[5]Cl
   XLogP3-AA                         1.5
   H-Bond Donor                      0
   H-Bond Acceptor                   0
   Rotatable Bond Count              1
   Exact Mass                        76.007978
   MonoIsotopic Mass                 76.007978
   Topological Polar Surface Area    0
   Heavy Atom Count                  4
   Formal Charge                     0
   Complexity                        17.2
   Isotope Atom Count                0
   Defined Atom Stereocenter Count   0
   Undefined Atom Stereocenter Count 0
   Defined Bond Stereocenter Count   0
   Undefined Bond Stereocenter Count 0
   Covalently-Bonded Unit Count      1
   Feature 3D Hydrophobe Count       1
   Effective Rotor Count             1
   Conformer Sampling RMSD           0.4
   CID Conformer Count               [17]3

References

   1. http://toxnet.nlm.nih.gov/cgi-bin/sis/search/r?dbs+hsdb:@term+@rn+@rel+107-05-1
   2. http://toxnet.nlm.nih.gov/cgi-bin/sis/search/r?dbs+hsdb:@term+@rn+@rel+107-05-1
   3. http://toxnet.nlm.nih.gov/cgi-bin/sis/search/r?dbs+hsdb:@term+@rn+@rel+107-05-1
   4. http://toxnet.nlm.nih.gov/cgi-bin/sis/search/r?dbs+hsdb:@term+@rn+@rel+107-05-1
   5. http://toxnet.nlm.nih.gov/cgi-bin/sis/search/r?dbs+hsdb:@term+@rn+@rel+107-05-1
   6. http://toxnet.nlm.nih.gov/cgi-bin/sis/search/r?dbs+hsdb:@term+@rn+@rel+107-05-1
   7. http://toxnet.nlm.nih.gov/cgi-bin/sis/search/r?dbs+hsdb:@term+@rn+@rel+107-05-1
   8. http://toxnet.nlm.nih.gov/cgi-bin/sis/search/r?dbs+hsdb:@term+@rn+@rel+107-05-1
   9. http://toxnet.nlm.nih.gov/cgi-bin/sis/search/r?dbs+hsdb:@term+@rn+@rel+107-05-1
  10. http://toxnet.nlm.nih.gov/cgi-bin/sis/search/r?dbs+hsdb:@term+@rn+@rel+107-05-1
  11. http://toxnet.nlm.nih.gov/cgi-bin/sis/search/r?dbs+hsdb:@term+@rn+@rel+107-05-1
  12. http://toxnet.nlm.nih.gov/cgi-bin/sis/search/r?dbs+hsdb:@term+@rn+@rel+107-05-1
  13. http://toxnet.nlm.nih.gov/cgi-bin/sis/search/r?dbs+hsdb:@term+@rn+@rel+107-05-1
  14. http://toxnet.nlm.nih.gov/cgi-bin/sis/search/r?dbs+hsdb:@term+@rn+@rel+107-05-1
  15. http://toxnet.nlm.nih.gov/cgi-bin/sis/search/r?dbs+hsdb:@term+@rn+@rel+107-05-1
  16. http://toxnet.nlm.nih.gov/cgi-bin/sis/search/r?dbs+hsdb:@term+@rn+@rel+107-05-1
  17. http://pubchem.ncbi.nlm.nih.gov/vw3d/vw3d.cgi?cid=7850
