656874
  -OEChem-07051213042D

 25 26  0     1  0  0  0  0  0999 V2000
    4.9860    0.0649    0.0000 O   0  0  0  0  0  0  0  0  0  0  0  0
    3.6200   -0.3011    0.0000 O   0  0  0  0  0  0  0  0  0  0  0  0
    2.6200    1.4310    0.0000 O   0  0  0  0  0  0  0  0  0  0  0  0
    2.6200   -0.3011    0.0000 O   0  0  0  0  0  0  0  0  0  0  0  0
    7.5946   -1.4796    0.0000 O   0  0  0  0  0  0  0  0  0  0  0  0
    5.8627   -1.4596    0.0000 O   0  0  0  0  0  0  0  0  0  0  0  0
    4.1200    0.5649    0.0000 C   0  0  3  0  0  0  0  0  0  0  0  0
    5.8520    0.5649    0.0000 C   0  0  0  0  0  0  0  0  0  0  0  0
    5.8520    1.5649    0.0000 C   0  0  0  0  0  0  0  0  0  0  0  0
    4.1200    1.5649    0.0000 C   0  0  0  0  0  0  0  0  0  0  0  0
    4.9860    2.0649    0.0000 C   0  0  0  0  0  0  0  0  0  0  0  0
    6.7460    0.0303    0.0000 C   0  0  0  0  0  0  0  0  0  0  0  0
    6.7460    2.0996    0.0000 C   0  0  0  0  0  0  0  0  0  0  0  0
    7.6521    0.5441    0.0000 C   0  0  0  0  0  0  0  0  0  0  0  0
    7.6521    1.5858    0.0000 C   0  0  0  0  0  0  0  0  0  0  0  0
    3.1200    0.5649    0.0000 C   0  0  0  0  0  0  0  0  0  0  0  0
    6.7344   -0.9697    0.0000 C   0  0  0  0  0  0  0  0  0  0  0  0
    3.5831    1.8749    0.0000 H   0  0  0  0  0  0  0  0  0  0  0  0
    4.9860    2.6849    0.0000 H   0  0  0  0  0  0  0  0  0  0  0  0
    6.7388    2.7196    0.0000 H   0  0  0  0  0  0  0  0  0  0  0  0
    8.1878    0.2321    0.0000 H   0  0  0  0  0  0  0  0  0  0  0  0
    8.1878    1.8978    0.0000 H   0  0  0  0  0  0  0  0  0  0  0  0
    3.9300   -0.8380    0.0000 H   0  0  0  0  0  0  0  0  0  0  0  0
    2.0000    1.4310    0.0000 H   0  0  0  0  0  0  0  0  0  0  0  0
    7.5874   -2.0996    0.0000 H   0  0  0  0  0  0  0  0  0  0  0  0
  1  7  1  0  0  0  0
  1  8  1  0  0  0  0
  2  7  1  0  0  0  0
  2 23  1  0  0  0  0
  3 16  1  0  0  0  0
  3 24  1  0  0  0  0
  4 16  2  0  0  0  0
  5 17  1  0  0  0  0
  5 25  1  0  0  0  0
  6 17  2  0  0  0  0
  7 10  1  0  0  0  0
  7 16  1  0  0  0  0
  8  9  2  0  0  0  0
  8 12  1  0  0  0  0
  9 11  1  0  0  0  0
  9 13  1  0  0  0  0
 10 11  2  0  0  0  0
 10 18  1  0  0  0  0
 11 19  1  0  0  0  0
 12 14  2  0  0  0  0
 12 17  1  0  0  0  0
 13 15  2  0  0  0  0
 13 20  1  0  0  0  0
 14 15  1  0  0  0  0
 14 21  1  0  0  0  0
 15 22  1  0  0  0  0
M  END
> <PUBCHEM_COMPOUND_CID>
656874

> <PUBCHEM_COMPOUND_CANONICALIZED>
1

> <PUBCHEM_CACTVS_COMPLEXITY>
376

> <PUBCHEM_CACTVS_HBOND_ACCEPTOR>
6

> <PUBCHEM_CACTVS_HBOND_DONOR>
3

> <PUBCHEM_CACTVS_ROTATABLE_BOND>
2

> <PUBCHEM_CACTVS_SUBSKEYS>
AAADccBwOAAAAAAAAAAAAAAAAAAAAAAAAAAwQAAAAAAAAACBAAAAGgAACAAADASAmAAwDoAABgCIAiDSCAICCAAkIAAIiAFECMgdJzaENR6CeWCl4BEPuYeIyGCOAAACAAAIAAAAAAQAABAAAAAAAAAAAA==

> <PUBCHEM_IUPAC_OPENEYE_NAME>
2-hydroxychromene-2,8-dicarboxylic acid

> <PUBCHEM_IUPAC_CAS_NAME>
2-hydroxy-1-benzopyran-2,8-dicarboxylic acid

> <PUBCHEM_IUPAC_NAME>
2-hydroxychromene-2,8-dicarboxylic acid

> <PUBCHEM_IUPAC_SYSTEMATIC_NAME>
2-oxidanylchromene-2,8-dicarboxylic acid

> <PUBCHEM_IUPAC_TRADITIONAL_NAME>
2-hydroxychromene-2,8-dicarboxylic acid

> <PUBCHEM_IUPAC_INCHI>
InChI=1S/C11H8O6/c12-9(13)7-3-1-2-6-4-5-11(16,10(14)15)17-8(6)7/h1-5,16H,(H,12,13)(H,14,15)

> <PUBCHEM_IUPAC_INCHIKEY>
QTUUVCOZQOTVCR-UHFFFAOYSA-N

> <PUBCHEM_XLOGP3_AA>
0.8

> <PUBCHEM_EXACT_MASS>
236.032088

> <PUBCHEM_MOLECULAR_FORMULA>
C11H8O6

> <PUBCHEM_MOLECULAR_WEIGHT>
236.17762

> <PUBCHEM_OPENEYE_CAN_SMILES>
C1=CC2=C(C(=C1)C(=O)O)OC(C=C2)(C(=O)O)O

> <PUBCHEM_OPENEYE_ISO_SMILES>
C1=CC2=C(C(=C1)C(=O)O)OC(C=C2)(C(=O)O)O

> <PUBCHEM_CACTVS_TPSA>
104

> <PUBCHEM_MONOISOTOPIC_WEIGHT>
236.032088

> <PUBCHEM_TOTAL_CHARGE>
0

> <PUBCHEM_HEAVY_ATOM_COUNT>
17

> <PUBCHEM_ATOM_DEF_STEREO_COUNT>
0

> <PUBCHEM_ATOM_UDEF_STEREO_COUNT>
1

> <PUBCHEM_BOND_DEF_STEREO_COUNT>
0

> <PUBCHEM_BOND_UDEF_STEREO_COUNT>
0

> <PUBCHEM_ISOTOPIC_ATOM_COUNT>
0

> <PUBCHEM_COMPONENT_COUNT>
1

> <PUBCHEM_CACTVS_TAUTO_COUNT>
1

> <PUBCHEM_COORDINATE_TYPE>
1
5
255

> <PUBCHEM_BONDANNOTATIONS>
12  14  8
13  15  8
14  15  8
7  16  3
8  12  8
8  9  8
9  13  8

$$$$

