   Color/Form

     * COLORLESS LIQ OR WHITE CRYSTALS
     * White, crystalline solid or a colorless liquid (above 86 degrees
       F).

   from [1]HSDB

   Odor

     * Foul odor above 31.11 deg C.
     * Releases a fould odor as it melts.

   from [2]HSDB

   Boiling Point
        180 deg C at 0.039 atm.
   from [3]HSDB

   Melting Point
        31 DEG C
   from [4]HSDB

   Density/Specific Gravity
        SPECIFIC GRAVITY: 1.393 @ 40 DEG C/4 DEG C
   from [5]HSDB

   Solubilities

     * READILY SOL IN KETONES, ESTERS & AROMATIC HYDROCARBONS
     * INSOL IN ALIPHATIC HYDROCARBONS
     * SOL IN WATER (100 G/L)

   from [6]HSDB

   Spectral Properties

     * INDEX OF REFRACTION: 1.450 @ 40 DEG C/D
     * IR: 2:479A (Aldrich Library of Infrared Spectra, Aldrich Chemical
       Co, Milwaukee, WI)
     * NMR: 10:14C (Aldrich Library of Mass Spectra, Aldrich Chemical Co,
       Milwaukee, WI)

   from [7]HSDB

   Other Chemical/Physical Properties
        HYDROLYZES TO 3-HYDROXY-1-PROPANESULFONIC ACID.
   from [8]HSDB

   Computed Properties
   Molecular Weight                  122.14294 [g/mol]
   Molecular Formula                 C[3]H[6]O[3]S
   XLogP3-AA                         -0.2
   H-Bond Donor                      0
   H-Bond Acceptor                   3
   Rotatable Bond Count              0
   Exact Mass                        122.003765
   MonoIsotopic Mass                 122.003765
   Topological Polar Surface Area    51.8
   Heavy Atom Count                  7
   Formal Charge                     0
   Complexity                        140
   Isotope Atom Count                0
   Defined Atom Stereocenter Count   0
   Undefined Atom Stereocenter Count 0
   Defined Bond Stereocenter Count   0
   Undefined Bond Stereocenter Count 0
   Covalently-Bonded Unit Count      1
   Feature 3D Acceptor Count         2
   Feature 3D Ring Count             1
   Effective Rotor Count             0.8
   Conformer Sampling RMSD           0.4
   CID Conformer Count               [9]1

References

   1. http://toxnet.nlm.nih.gov/cgi-bin/sis/search/r?dbs+hsdb:@term+@rn+@rel+1120-71-4
   2. http://toxnet.nlm.nih.gov/cgi-bin/sis/search/r?dbs+hsdb:@term+@rn+@rel+1120-71-4
   3. http://toxnet.nlm.nih.gov/cgi-bin/sis/search/r?dbs+hsdb:@term+@rn+@rel+1120-71-4
   4. http://toxnet.nlm.nih.gov/cgi-bin/sis/search/r?dbs+hsdb:@term+@rn+@rel+1120-71-4
   5. http://toxnet.nlm.nih.gov/cgi-bin/sis/search/r?dbs+hsdb:@term+@rn+@rel+1120-71-4
   6. http://toxnet.nlm.nih.gov/cgi-bin/sis/search/r?dbs+hsdb:@term+@rn+@rel+1120-71-4
   7. http://toxnet.nlm.nih.gov/cgi-bin/sis/search/r?dbs+hsdb:@term+@rn+@rel+1120-71-4
   8. http://toxnet.nlm.nih.gov/cgi-bin/sis/search/r?dbs+hsdb:@term+@rn+@rel+1120-71-4
   9. http://pubchem.ncbi.nlm.nih.gov/vw3d/vw3d.cgi?cid=14264
