   Color/Form
        Ivory powder
   from [1]HSDB

   Odor
        Odorless
   from [2]HSDB

   Melting Point
        152.7 deg C
   from [3]HSDB

   Density/Specific Gravity
        1.446 at 20 deg C
   from [4]HSDB

   Dissociation Constants
        No pKa evident in pH range 2-12
   from [5]HSDB

   Octanol/Water Partition Coefficient
        log Kow = 3.2
   from [6]HSDB

   pH
        pH = 4.9 at 25 deg C
   from [7]HSDB

   Solubilities

     * Solvent solubility (all in g/100 mL, 21.2 deg C): hexane, 0.003;
       methanol, 0.174, acetonitrile, 3.095, dichloroethane, 10.212;
       toluene, 0.600, ethyl acetate, 1.649; acetone, 4.564, octanol,
       0.004
     * In water, 0.107 mg/L at 20 deg C, pH 7; 0.121 at pH 5; 0.109 at pH
       9 (all in mg/L at 20 deg C)

   from [8]HSDB

   Vapor Pressure
        1.3X10-2 mPa at 35 deg C
   from [9]HSDB

   Other Chemical/Physical Properties

     * Henry's Law constant = 3.9X10-7 atm-cu m/mol at 25 deg C (est)
     * Hydroxyl radical reaction rate constant = 4.08X10-11 cu
       cm/molec-sec at 25 deg C (est)

   from [10]HSDB

   Computed Properties
   Molecular Weight                  324.78592 [g/mol]
   Molecular Formula                 C[13]H[13]ClN[4]O[2]S
   XLogP3-AA                         2.6
   H-Bond Donor                      0
   H-Bond Acceptor                   5
   Rotatable Bond Count              3
   Exact Mass                        324.044774
   MonoIsotopic Mass                 324.044774
   Topological Polar Surface Area    87.4
   Heavy Atom Count                  21
   Formal Charge                     0
   Complexity                        516
   Isotope Atom Count                0
   Defined Atom Stereocenter Count   0
   Undefined Atom Stereocenter Count 0
   Defined Bond Stereocenter Count   0
   Undefined Bond Stereocenter Count 0
   Covalently-Bonded Unit Count      1
   Feature 3D Acceptor Count         2
   Feature 3D Ring Count             2
   Effective Rotor Count             3
   Conformer Sampling RMSD           0.6
   CID Conformer Count               [11]5

References

   1. http://toxnet.nlm.nih.gov/cgi-bin/sis/search/r?dbs+hsdb:@term+@rn+@rel+120116-88-3
   2. http://toxnet.nlm.nih.gov/cgi-bin/sis/search/r?dbs+hsdb:@term+@rn+@rel+120116-88-3
   3. http://toxnet.nlm.nih.gov/cgi-bin/sis/search/r?dbs+hsdb:@term+@rn+@rel+120116-88-3
   4. http://toxnet.nlm.nih.gov/cgi-bin/sis/search/r?dbs+hsdb:@term+@rn+@rel+120116-88-3
   5. http://toxnet.nlm.nih.gov/cgi-bin/sis/search/r?dbs+hsdb:@term+@rn+@rel+120116-88-3
   6. http://toxnet.nlm.nih.gov/cgi-bin/sis/search/r?dbs+hsdb:@term+@rn+@rel+120116-88-3
   7. http://toxnet.nlm.nih.gov/cgi-bin/sis/search/r?dbs+hsdb:@term+@rn+@rel+120116-88-3
   8. http://toxnet.nlm.nih.gov/cgi-bin/sis/search/r?dbs+hsdb:@term+@rn+@rel+120116-88-3
   9. http://toxnet.nlm.nih.gov/cgi-bin/sis/search/r?dbs+hsdb:@term+@rn+@rel+120116-88-3
  10. http://toxnet.nlm.nih.gov/cgi-bin/sis/search/r?dbs+hsdb:@term+@rn+@rel+120116-88-3
  11. http://pubchem.ncbi.nlm.nih.gov/vw3d/vw3d.cgi?cid=9862076
