   Color/Form

     * Yellow needles from benzene
     * Yellow crystals
     * Pale yellow, slender prisms from benzene plus ether

   from [1]HSDB

   Boiling Point
        280 deg C at 80 mm Hg
   from [2]HSDB

   Melting Point
        180 deg C
   from [3]HSDB

   Density/Specific Gravity
        1.28 g/cu cm at 20 deg C
   from [4]HSDB

   Octanol/Water Partition Coefficient
        log Kow = 6.42
   from [5]HSDB

   Solubilities

     * Soluble in xylene, toluene; slightly sol in amyl alcohol
     * Soluble in benzene
     * 3-MC solubility in a mixed lipid/sodium taurocholate bile salt
       system was minimal below the critical miocelle concentration of the
       bile salt. [Laher JM, Barrowman JA; Lipids 18 (3): 216-22 (1983)]
       [6]PubMed Abstract
     * In water, 2.9X10-3 mg/L at 25 deg C

   from [7]HSDB

   Spectral Properties

     * MAX ABSORPTION (ALCOHOL): 327 NM (LOG E= 3.63), 343 NM (LOG E=
       3.79), 359 NM (LOG E= 3.88)
     * Interacted with DNA bases by forming moderately charge transfer
       complexes in their ground state. The fluorescence quenching rate
       constant showed a better inverse correlation with the free energies
       of activation using the Marcus model of electron transfer.
     * Intense mass spectral peaks: 268 m/z (100%), 253 m/z (40%), 252 m/z
       (39%), 267 m/z (24%)
     * UV: 2-653 (Organic Electronic Spectral Data, Phillips et al, John
       Wiley & Sons, New York)
     * MASS: 101250 (NIST/EPA/MSDC Mass Spectral Database, 1990 version):
       1780 (National Bureau of Standards)

   from [8]HSDB

   Vapor Pressure
        4.3X10-8 mm Hg at 25 deg C
   from [9]HSDB

   Other Chemical/Physical Properties

     * CONVERSION FACTOR (WT/VOL): 10.98 MG/CU M IS EQUIVALENT TO 1 PPM
     * Henry's Law constant = 5.2X10-6 atm-cu m/mol at 25 deg C (est)
     * Hydroxyl radical reaction rate constant = 2.2X10-10 cu cm/molec-sec
       at 25 deg C (est)

   from [10]HSDB

   Computed Properties
   Molecular Weight                  268.35174 [g/mol]
   Molecular Formula                 C[21]H[16]
   XLogP3                            6.4
   H-Bond Donor                      0
   H-Bond Acceptor                   0
   Rotatable Bond Count              0
   Exact Mass                        268.125201
   MonoIsotopic Mass                 268.125201
   Topological Polar Surface Area    0
   Heavy Atom Count                  21
   Formal Charge                     0
   Complexity                        399
   Isotope Atom Count                0
   Defined Atom Stereocenter Count   0
   Undefined Atom Stereocenter Count 0
   Defined Bond Stereocenter Count   0
   Undefined Bond Stereocenter Count 0
   Covalently-Bonded Unit Count      1
   Feature 3D Ring Count             5
   Effective Rotor Count             0.4
   Conformer Sampling RMSD           0.6
   CID Conformer Count               [11]1

References

   1. http://toxnet.nlm.nih.gov/cgi-bin/sis/search/r?dbs+hsdb:@term+@rn+@rel+56-49-5
   2. http://toxnet.nlm.nih.gov/cgi-bin/sis/search/r?dbs+hsdb:@term+@rn+@rel+56-49-5
   3. http://toxnet.nlm.nih.gov/cgi-bin/sis/search/r?dbs+hsdb:@term+@rn+@rel+56-49-5
   4. http://toxnet.nlm.nih.gov/cgi-bin/sis/search/r?dbs+hsdb:@term+@rn+@rel+56-49-5
   5. http://toxnet.nlm.nih.gov/cgi-bin/sis/search/r?dbs+hsdb:@term+@rn+@rel+56-49-5
   6. http://www.ncbi.nlm.nih.gov/entrez/query.fcgi?cmd=Retrieve&db=pubmed&dopt=Abstract&list_uids=6406782
   7. http://toxnet.nlm.nih.gov/cgi-bin/sis/search/r?dbs+hsdb:@term+@rn+@rel+56-49-5
   8. http://toxnet.nlm.nih.gov/cgi-bin/sis/search/r?dbs+hsdb:@term+@rn+@rel+56-49-5
   9. http://toxnet.nlm.nih.gov/cgi-bin/sis/search/r?dbs+hsdb:@term+@rn+@rel+56-49-5
  10. http://toxnet.nlm.nih.gov/cgi-bin/sis/search/r?dbs+hsdb:@term+@rn+@rel+56-49-5
  11. http://pubchem.ncbi.nlm.nih.gov/vw3d/vw3d.cgi?cid=1674
