46173906
  -OEChem-07051213102D

 67 69  0     1  0  0  0  0  0999 V2000
    7.5059    2.6613    0.0000 O   0  0  0  0  0  0  0  0  0  0  0  0
    5.1350    1.4050    0.0000 O   0  0  0  0  0  0  0  0  0  0  0  0
    9.3969    0.9050    0.0000 O   0  0  0  0  0  0  0  0  0  0  0  0
    6.0010    2.9050    0.0000 O   0  0  0  0  0  0  0  0  0  0  0  0
    8.5205    3.2908    0.0000 O   0  0  0  0  0  0  0  0  0  0  0  0
    5.1350   -1.5950    0.0000 O   0  0  0  0  0  0  0  0  0  0  0  0
    4.2690   -3.0950    0.0000 O   0  0  0  0  0  0  0  0  0  0  0  0
    6.8671   -2.5950    0.0000 O   0  0  0  0  0  0  0  0  0  0  0  0
    6.8671   -4.5950    0.0000 O   0  0  0  0  0  0  0  0  0  0  0  0
    5.1350   -5.5950    0.0000 O   0  0  0  0  0  0  0  0  0  0  0  0
    4.2690    2.9050    0.0000 O   0  0  0  0  0  0  0  0  0  0  0  0
    2.5369   -4.0950    0.0000 O   0  0  0  0  0  0  0  0  0  0  0  0
    6.8671    1.4050    0.0000 C   0  0  2  0  0  0  0  0  0  0  0  0
    7.8133    1.7097    0.0000 C   0  0  1  0  0  0  0  0  0  0  0  0
    6.8671    0.4050    0.0000 C   0  0  2  0  0  0  0  0  0  0  0  0
    8.3969    0.9050    0.0000 C   0  0  2  0  0  0  0  0  0  0  0  0
    7.8133    0.1003    0.0000 C   0  0  0  0  0  0  0  0  0  0  0  0
    6.0010    1.9050    0.0000 C   0  0  1  0  0  0  0  0  0  0  0  0
    6.0010   -0.0950    0.0000 C   0  0  0  0  0  0  0  0  0  0  0  0
    8.6233    2.2961    0.0000 C   0  0  0  0  0  0  0  0  0  0  0  0
    5.1350    0.4050    0.0000 C   0  0  0  0  0  0  0  0  0  0  0  0
    6.0010   -1.0950    0.0000 C   0  0  0  0  0  0  0  0  0  0  0  0
    5.1350   -2.5950    0.0000 C   0  0  2  0  0  0  0  0  0  0  0  0
    6.0010   -3.0950    0.0000 C   0  0  1  0  0  0  0  0  0  0  0  0
    5.1350    3.4050    0.0000 C   0  0  0  0  0  0  0  0  0  0  0  0
    6.0010   -4.0950    0.0000 C   0  0  2  0  0  0  0  0  0  0  0  0
    5.1350   -4.5950    0.0000 C   0  0  1  0  0  0  0  0  0  0  0  0
    4.2690   -4.0950    0.0000 C   0  0  1  0  0  0  0  0  0  0  0  0
    5.1350    4.4050    0.0000 C   0  0  0  0  0  0  0  0  0  0  0  0
    3.4030   -4.5950    0.0000 C   0  0  0  0  0  0  0  0  0  0  0  0
    4.2690    4.9050    0.0000 C   0  0  0  0  0  0  0  0  0  0  0  0
    4.2690    5.9050    0.0000 C   0  0  0  0  0  0  0  0  0  0  0  0
    3.4030    4.4050    0.0000 C   0  0  0  0  0  0  0  0  0  0  0  0
    6.9570    2.2502    0.0000 H   0  0  0  0  0  0  0  0  0  0  0  0
    6.9570   -0.4402    0.0000 H   0  0  0  0  0  0  0  0  0  0  0  0
    8.6786    0.3527    0.0000 H   0  0  0  0  0  0  0  0  0  0  0  0
    7.5622   -0.4666    0.0000 H   0  0  0  0  0  0  0  0  0  0  0  0
    8.3507   -0.2090    0.0000 H   0  0  0  0  0  0  0  0  0  0  0  0
    6.5380    2.2150    0.0000 H   0  0  0  0  0  0  0  0  0  0  0  0
    8.8941    1.7384    0.0000 H   0  0  0  0  0  0  0  0  0  0  0  0
    9.2196    2.4660    0.0000 H   0  0  0  0  0  0  0  0  0  0  0  0
    6.8997    2.7913    0.0000 H   0  0  0  0  0  0  0  0  0  0  0  0
    4.5981    0.0950    0.0000 H   0  0  0  0  0  0  0  0  0  0  0  0
    6.2131   -1.6776    0.0000 H   0  0  0  0  0  0  0  0  0  0  0  0
    6.6116   -0.9873    0.0000 H   0  0  0  0  0  0  0  0  0  0  0  0
    9.7069    0.3681    0.0000 H   0  0  0  0  0  0  0  0  0  0  0  0
    9.0227    3.6544    0.0000 H   0  0  0  0  0  0  0  0  0  0  0  0
    5.6720   -2.2850    0.0000 H   0  0  0  0  0  0  0  0  0  0  0  0
    6.5380   -3.4050    0.0000 H   0  0  0  0  0  0  0  0  0  0  0  0
    6.5380   -3.7850    0.0000 H   0  0  0  0  0  0  0  0  0  0  0  0
    5.6720   -4.9050    0.0000 H   0  0  0  0  0  0  0  0  0  0  0  0
    3.7320   -3.7850    0.0000 H   0  0  0  0  0  0  0  0  0  0  0  0
    5.7456    4.2973    0.0000 H   0  0  0  0  0  0  0  0  0  0  0  0
    5.3471    4.9876    0.0000 H   0  0  0  0  0  0  0  0  0  0  0  0
    3.0044   -5.0700    0.0000 H   0  0  0  0  0  0  0  0  0  0  0  0
    3.8015   -5.0700    0.0000 H   0  0  0  0  0  0  0  0  0  0  0  0
    4.2690    4.2850    0.0000 H   0  0  0  0  0  0  0  0  0  0  0  0
    7.4040   -2.9050    0.0000 H   0  0  0  0  0  0  0  0  0  0  0  0
    6.8671   -5.2150    0.0000 H   0  0  0  0  0  0  0  0  0  0  0  0
    4.5981   -5.9050    0.0000 H   0  0  0  0  0  0  0  0  0  0  0  0
    4.8890    5.9050    0.0000 H   0  0  0  0  0  0  0  0  0  0  0  0
    4.2690    6.5250    0.0000 H   0  0  0  0  0  0  0  0  0  0  0  0
    3.6490    5.9050    0.0000 H   0  0  0  0  0  0  0  0  0  0  0  0
    3.0930    4.9419    0.0000 H   0  0  0  0  0  0  0  0  0  0  0  0
    2.8660    4.0950    0.0000 H   0  0  0  0  0  0  0  0  0  0  0  0
    3.7130    3.8681    0.0000 H   0  0  0  0  0  0  0  0  0  0  0  0
    2.0000   -4.4050    0.0000 H   0  0  0  0  0  0  0  0  0  0  0  0
 14  1  1  6  0  0  0
  1 42  1  0  0  0  0
  2 18  1  0  0  0  0
  2 21  1  0  0  0  0
 16  3  1  1  0  0  0
  3 46  1  0  0  0  0
 18  4  1  1  0  0  0
  4 25  1  0  0  0  0
  5 20  1  0  0  0  0
  5 47  1  0  0  0  0
  6 22  1  0  0  0  0
 23  6  1  1  0  0  0
  7 23  1  0  0  0  0
  7 28  1  0  0  0  0
 24  8  1  6  0  0  0
  8 58  1  0  0  0  0
 26  9  1  1  0  0  0
  9 59  1  0  0  0  0
 27 10  1  6  0  0  0
 10 60  1  0  0  0  0
 11 25  2  0  0  0  0
 12 30  1  0  0  0  0
 12 67  1  0  0  0  0
 13 14  1  0  0  0  0
 13 15  1  0  0  0  0
 13 18  1  0  0  0  0
 13 34  1  1  0  0  0
 14 16  1  0  0  0  0
 14 20  1  0  0  0  0
 15 17  1  0  0  0  0
 15 19  1  0  0  0  0
 15 35  1  1  0  0  0
 16 17  1  0  0  0  0
 16 36  1  0  0  0  0
 17 37  1  0  0  0  0
 17 38  1  0  0  0  0
 18 39  1  0  0  0  0
 19 21  2  0  0  0  0
 19 22  1  0  0  0  0
 20 40  1  0  0  0  0
 20 41  1  0  0  0  0
 21 43  1  0  0  0  0
 22 44  1  0  0  0  0
 22 45  1  0  0  0  0
 23 24  1  0  0  0  0
 23 48  1  0  0  0  0
 24 26  1  0  0  0  0
 24 49  1  0  0  0  0
 25 29  1  0  0  0  0
 26 27  1  0  0  0  0
 26 50  1  0  0  0  0
 27 28  1  0  0  0  0
 27 51  1  0  0  0  0
 28 30  1  1  0  0  0
 28 52  1  0  0  0  0
 29 31  1  0  0  0  0
 29 53  1  0  0  0  0
 29 54  1  0  0  0  0
 30 55  1  0  0  0  0
 30 56  1  0  0  0  0
 31 32  1  0  0  0  0
 31 33  1  0  0  0  0
 31 57  1  0  0  0  0
 32 61  1  0  0  0  0
 32 62  1  0  0  0  0
 32 63  1  0  0  0  0
 33 64  1  0  0  0  0
 33 65  1  0  0  0  0
 33 66  1  0  0  0  0
M  END
> <PUBCHEM_COMPOUND_CID>
46173906

> <PUBCHEM_COMPOUND_CANONICALIZED>
1

> <PUBCHEM_CACTVS_COMPLEXITY>
713

> <PUBCHEM_CACTVS_HBOND_ACCEPTOR>
12

> <PUBCHEM_CACTVS_HBOND_DONOR>
7

> <PUBCHEM_CACTVS_ROTATABLE_BOND>
9

> <PUBCHEM_CACTVS_SUBSKEYS>
AAADcfB4PAAAAAAAAAAAAAAAAAAAAYAAAAAkQAAAAAAAAEAAAAAAGgAACAAADVSwgAMCCAAABgCIAgDSCAAACAAgIAAAAAEAAAgRFBIAIQAiQAAFgAAHIAHA4PwOgAAAAAAAAAAAAAAAAAAAAYAADCAAAA==

> <PUBCHEM_IUPAC_OPENEYE_NAME>
[(1S,4aS,6S,7R,7aS)-6,7-dihydroxy-7-(hydroxymethyl)-4-[[(2R,3R,4S,5S,6R)-3,4,5-trihydroxy-6-(hydroxymethyl)tetrahydropyran-2-yl]oxymethyl]-4a,5,6,7a-tetrahydro-1H-cyclopenta[c]pyran-1-yl] 3-methylbutanoate

> <PUBCHEM_IUPAC_CAS_NAME>
3-methylbutanoic acid [(1S,4aS,6S,7R,7aS)-6,7-dihydroxy-7-(hydroxymethyl)-4-[[(2R,3R,4S,5S,6R)-3,4,5-trihydroxy-6-(hydroxymethyl)-2-oxanyl]oxymethyl]-4a,5,6,7a-tetrahydro-1H-cyclopenta[c]pyran-1-yl] ester

> <PUBCHEM_IUPAC_NAME>
[(1S,4aS,6S,7R,7aS)-6,7-dihydroxy-7-(hydroxymethyl)-4-[[(2R,3R,4S,5S,6R)-3,4,5-trihydroxy-6-(hydroxymethyl)oxan-2-yl]oxymethyl]-4a,5,6,7a-tetrahydro-1H-cyclopenta[c]pyran-1-yl] 3-methylbutanoate

> <PUBCHEM_IUPAC_SYSTEMATIC_NAME>
[(1S,4aS,6S,7R,7aS)-7-(hydroxymethyl)-4-[[(2R,3R,4S,5S,6R)-6-(hydroxymethyl)-3,4,5-tris(oxidanyl)oxan-2-yl]oxymethyl]-6,7-bis(oxidanyl)-4a,5,6,7a-tetrahydro-1H-cyclopenta[c]pyran-1-yl] 3-methylbutanoate

> <PUBCHEM_IUPAC_TRADITIONAL_NAME>
3-methylbutyric acid [(1S,4aS,6S,7R,7aS)-6,7-dihydroxy-7-methylol-4-[[(2R,3R,4S,5S,6R)-3,4,5-trihydroxy-6-methylol-tetrahydropyran-2-yl]oxymethyl]-4a,5,6,7a-tetrahydro-1H-cyclopenta[c]pyran-1-yl] ester

> <PUBCHEM_IUPAC_INCHI>
InChI=1S/C21H34O12/c1-9(2)3-14(25)33-19-15-11(4-13(24)21(15,29)8-23)10(6-30-19)7-31-20-18(28)17(27)16(26)12(5-22)32-20/h6,9,11-13,15-20,22-24,26-29H,3-5,7-8H2,1-2H3/t11-,12-,13+,15-,16-,17+,18-,19+,20-,21-/m1/s1

> <PUBCHEM_IUPAC_INCHIKEY>
HOCKGUMMVOPFFC-RHMPUOGUSA-N

> <PUBCHEM_XLOGP3_AA>
-2.2

> <PUBCHEM_EXACT_MASS>
478.205027

> <PUBCHEM_MOLECULAR_FORMULA>
C21H34O12

> <PUBCHEM_MOLECULAR_WEIGHT>
478.48746

> <PUBCHEM_OPENEYE_CAN_SMILES>
CC(C)CC(=O)OC1C2C(CC(C2(CO)O)O)C(=CO1)COC3C(C(C(C(O3)CO)O)O)O

> <PUBCHEM_OPENEYE_ISO_SMILES>
CC(C)CC(=O)O[C@H]1[C@H]2[C@H](C[C@@H]([C@@]2(CO)O)O)C(=CO1)CO[C@H]3[C@@H]([C@H]([C@@H]([C@H](O3)CO)O)O)O

> <PUBCHEM_CACTVS_TPSA>
196

> <PUBCHEM_MONOISOTOPIC_WEIGHT>
478.205027

> <PUBCHEM_TOTAL_CHARGE>
0

> <PUBCHEM_HEAVY_ATOM_COUNT>
33

> <PUBCHEM_ATOM_DEF_STEREO_COUNT>
10

> <PUBCHEM_ATOM_UDEF_STEREO_COUNT>
0

> <PUBCHEM_BOND_DEF_STEREO_COUNT>
0

> <PUBCHEM_BOND_UDEF_STEREO_COUNT>
0

> <PUBCHEM_ISOTOPIC_ATOM_COUNT>
0

> <PUBCHEM_COMPONENT_COUNT>
1

> <PUBCHEM_CACTVS_TAUTO_COUNT>
1

> <PUBCHEM_COORDINATE_TYPE>
1
5
255

> <PUBCHEM_BONDANNOTATIONS>
14  1  6
27  10  6
13  34  5
15  35  5
28  30  5
16  3  5
18  4  5
23  6  5
24  8  6
26  9  5

$$$$

