   Color/Form
        COLORLESS LIQ
   from [1]HSDB

   Odor
        PENETRATING PUNGENT ODOR
   from [2]HSDB

   Boiling Point
        89.2 deg C
   from [3]HSDB

   Melting Point
        -37.6 to -37.4 deg C
   from [4]HSDB

   Density/Specific Gravity
        1.436 @ 25 DEG C
   from [5]HSDB

   Solubilities

     * SOL IN ALC
     * Soluble in water and common organic solvents.

   from [6]HSDB

   Spectral Properties

     * MAX ABSORPTION (CYCLOHEXANE): 301.5 NM (LOG E= 1.59)
     * IR: 8040 (Sadtler Research Laboratories Prism Collection)
     * UV: 5-3 (Organic Electronic Spectral Data, Phillips et al, John
       Wiley & Sons, New York)

   from [7]HSDB

   Vapor Pressure
        55.4 mm Hg @ 25 deg C
   from [8]HSDB

   Other Chemical/Physical Properties

     * WT/GAL 12.1 LB
     * Reacts with water and alcohols to form hydrates and hemi-acetals
       /From table/
     * Density: 1.4113 g/ cu cm @ 25 deg C
     * Forms hydrate in water.
     * Crystalizes from water; melting point: 35-50 deg C; boiling point:
       85-95 deg C; specific gravity: 1.53-1.54 at 20 deg C/4 deg C; vapor
       pressure: ca. 6.5 kPa @ 20 deg C; ca. 25 kPa @ 50 deg C; soluble in
       polar organic solvent, insoluble in nonpolar organic solvents.
       /Dichloroacetaldehyde monohydrate/
     * Forms a solid, colorless polymer on standing which depolymerizes if
       heated to 120 deg C.

   from [9]HSDB

   Computed Properties
   Molecular Weight                  112.94268 [g/mol]
   Molecular Formula                 C[2]H[2]Cl[2]O
   XLogP3-AA                         1.1
   H-Bond Donor                      0
   H-Bond Acceptor                   1
   Rotatable Bond Count              1
   Tautomer Count                    2
   Exact Mass                        111.94827
   MonoIsotopic Mass                 111.94827
   Topological Polar Surface Area    17.1
   Heavy Atom Count                  5
   Formal Charge                     0
   Complexity                        34.6
   Isotope Atom Count                0
   Defined Atom Stereocenter Count   0
   Undefined Atom Stereocenter Count 0
   Defined Bond Stereocenter Count   0
   Undefined Bond Stereocenter Count 0
   Covalently-Bonded Unit Count      1
   Feature 3D Acceptor Count         1
   Effective Rotor Count             1
   Conformer Sampling RMSD           0.4
   CID Conformer Count               [10]3

References

   1. http://toxnet.nlm.nih.gov/cgi-bin/sis/search/r?dbs+hsdb:@term+@rn+@rel+79-02-7
   2. http://toxnet.nlm.nih.gov/cgi-bin/sis/search/r?dbs+hsdb:@term+@rn+@rel+79-02-7
   3. http://toxnet.nlm.nih.gov/cgi-bin/sis/search/r?dbs+hsdb:@term+@rn+@rel+79-02-7
   4. http://toxnet.nlm.nih.gov/cgi-bin/sis/search/r?dbs+hsdb:@term+@rn+@rel+79-02-7
   5. http://toxnet.nlm.nih.gov/cgi-bin/sis/search/r?dbs+hsdb:@term+@rn+@rel+79-02-7
   6. http://toxnet.nlm.nih.gov/cgi-bin/sis/search/r?dbs+hsdb:@term+@rn+@rel+79-02-7
   7. http://toxnet.nlm.nih.gov/cgi-bin/sis/search/r?dbs+hsdb:@term+@rn+@rel+79-02-7
   8. http://toxnet.nlm.nih.gov/cgi-bin/sis/search/r?dbs+hsdb:@term+@rn+@rel+79-02-7
   9. http://toxnet.nlm.nih.gov/cgi-bin/sis/search/r?dbs+hsdb:@term+@rn+@rel+79-02-7
  10. http://pubchem.ncbi.nlm.nih.gov/vw3d/vw3d.cgi?cid=6576
