440755
  -OEChem-07051212502D

 57 58  0     1  0  0  0  0  0999 V2000
    8.4732   -3.2362    0.0000 P   0  0  3  0  0  0  0  0  0  0  0  0
    6.8909   -2.5317    0.0000 P   0  0  3  0  0  0  0  0  0  0  0  0
    5.0298   -0.0671    0.0000 O   0  0  0  0  0  0  0  0  0  0  0  0
    3.1330   -1.8272    0.0000 O   0  0  0  0  0  0  0  0  0  0  0  0
    2.4608    0.2419    0.0000 O   0  0  0  0  0  0  0  0  0  0  0  0
    6.3031   -1.7227    0.0000 O   0  0  0  0  0  0  0  0  0  0  0  0
    7.4787   -3.3407    0.0000 O   0  0  0  0  0  0  0  0  0  0  0  0
    8.5778   -4.2307    0.0000 O   0  0  0  0  0  0  0  0  0  0  0  0
    8.3687   -2.2417    0.0000 O   0  0  0  0  0  0  0  0  0  0  0  0
    7.6999   -1.9439    0.0000 O   0  0  0  0  0  0  0  0  0  0  0  0
    2.4888    1.5207    0.0000 O   0  0  0  0  0  0  0  0  0  0  0  0
    6.0819   -3.1195    0.0000 O   0  0  0  0  0  0  0  0  0  0  0  0
   11.0501   -3.8361    0.0000 N   0  3  0  0  0  0  0  0  0  0  0  0
    4.2208    1.5207    0.0000 N   0  0  0  0  0  0  0  0  0  0  0  0
    3.3548    3.0207    0.0000 N   0  0  0  0  0  0  0  0  0  0  0  0
    4.2208    4.5207    0.0000 N   0  0  0  0  0  0  0  0  0  0  0  0
    3.7208   -1.0182    0.0000 C   0  0  2  0  0  0  0  0  0  0  0  0
    4.7208   -1.0182    0.0000 C   0  0  1  0  0  0  0  0  0  0  0  0
    3.4118   -0.0671    0.0000 C   0  0  2  0  0  0  0  0  0  0  0  0
    4.2208    0.5207    0.0000 C   0  0  1  0  0  0  0  0  0  0  0  0
    5.3086   -1.8272    0.0000 C   0  0  0  0  0  0  0  0  0  0  0  0
   10.0555   -3.9407    0.0000 C   0  0  0  0  0  0  0  0  0  0  0  0
    9.4677   -3.1316    0.0000 C   0  0  0  0  0  0  0  0  0  0  0  0
   12.0446   -3.7316    0.0000 C   0  0  0  0  0  0  0  0  0  0  0  0
   11.1546   -4.8307    0.0000 C   0  0  0  0  0  0  0  0  0  0  0  0
   10.9455   -2.8416    0.0000 C   0  0  0  0  0  0  0  0  0  0  0  0
    5.0868    2.0207    0.0000 C   0  0  0  0  0  0  0  0  0  0  0  0
    3.3548    2.0207    0.0000 C   0  0  0  0  0  0  0  0  0  0  0  0
    5.0868    3.0207    0.0000 C   0  0  0  0  0  0  0  0  0  0  0  0
    4.2208    3.5207    0.0000 C   0  0  0  0  0  0  0  0  0  0  0  0
    3.1085   -0.9212    0.0000 H   0  0  0  0  0  0  0  0  0  0  0  0
    5.3332   -0.9212    0.0000 H   0  0  0  0  0  0  0  0  0  0  0  0
    2.9734   -0.5055    0.0000 H   0  0  0  0  0  0  0  0  0  0  0  0
    3.6684    0.8021    0.0000 H   0  0  0  0  0  0  0  0  0  0  0  0
    4.7514   -2.0990    0.0000 H   0  0  0  0  0  0  0  0  0  0  0  0
    5.4795   -2.4232    0.0000 H   0  0  0  0  0  0  0  0  0  0  0  0
    9.4983   -4.2125    0.0000 H   0  0  0  0  0  0  0  0  0  0  0  0
   10.2264   -4.5366    0.0000 H   0  0  0  0  0  0  0  0  0  0  0  0
   10.0250   -2.8599    0.0000 H   0  0  0  0  0  0  0  0  0  0  0  0
    9.2968   -2.5357    0.0000 H   0  0  0  0  0  0  0  0  0  0  0  0
    3.3852   -2.3936    0.0000 H   0  0  0  0  0  0  0  0  0  0  0  0
    2.0000   -0.1730    0.0000 H   0  0  0  0  0  0  0  0  0  0  0  0
   11.5621   -2.7768    0.0000 H   0  0  0  0  0  0  0  0  0  0  0  0
   12.1094   -4.3482    0.0000 H   0  0  0  0  0  0  0  0  0  0  0  0
   12.6612   -3.6668    0.0000 H   0  0  0  0  0  0  0  0  0  0  0  0
   11.9798   -3.1150    0.0000 H   0  0  0  0  0  0  0  0  0  0  0  0
   10.5380   -4.8955    0.0000 H   0  0  0  0  0  0  0  0  0  0  0  0
   11.2194   -5.4473    0.0000 H   0  0  0  0  0  0  0  0  0  0  0  0
   11.7712   -4.7658    0.0000 H   0  0  0  0  0  0  0  0  0  0  0  0
   10.8807   -2.2250    0.0000 H   0  0  0  0  0  0  0  0  0  0  0  0
   10.3289   -2.9064    0.0000 H   0  0  0  0  0  0  0  0  0  0  0  0
    5.6238    1.7107    0.0000 H   0  0  0  0  0  0  0  0  0  0  0  0
    5.6238    3.3307    0.0000 H   0  0  0  0  0  0  0  0  0  0  0  0
    8.0762   -4.5951    0.0000 H   0  0  0  0  0  0  0  0  0  0  0  0
    7.6351   -1.3273    0.0000 H   0  0  0  0  0  0  0  0  0  0  0  0
    4.7578    4.8307    0.0000 H   0  0  0  0  0  0  0  0  0  0  0  0
    3.6839    4.8307    0.0000 H   0  0  0  0  0  0  0  0  0  0  0  0
  1  7  1  0  0  0  0
  1  8  1  0  0  0  0
  1  9  2  0  0  0  0
  1 23  1  0  0  0  0
  2  6  1  0  0  0  0
  2  7  1  0  0  0  0
  2 10  1  0  0  0  0
  2 12  2  0  0  0  0
  3 18  1  0  0  0  0
  3 20  1  0  0  0  0
 17  4  1  1  0  0  0
  4 41  1  0  0  0  0
 19  5  1  1  0  0  0
  5 42  1  0  0  0  0
  6 21  1  0  0  0  0
  8 54  1  0  0  0  0
 10 55  1  0  0  0  0
 11 28  2  0  0  0  0
 13 22  1  0  0  0  0
 13 24  1  0  0  0  0
 13 25  1  0  0  0  0
 13 26  1  0  0  0  0
 20 14  1  6  0  0  0
 14 27  1  0  0  0  0
 14 28  1  0  0  0  0
 15 28  1  0  0  0  0
 15 30  2  0  0  0  0
 16 30  1  0  0  0  0
 16 56  1  0  0  0  0
 16 57  1  0  0  0  0
 17 18  1  0  0  0  0
 17 19  1  0  0  0  0
 17 31  1  0  0  0  0
 18 21  1  6  0  0  0
 18 32  1  0  0  0  0
 19 20  1  0  0  0  0
 19 33  1  0  0  0  0
 20 34  1  0  0  0  0
 21 35  1  0  0  0  0
 21 36  1  0  0  0  0
 22 23  1  0  0  0  0
 22 37  1  0  0  0  0
 22 38  1  0  0  0  0
 23 39  1  0  0  0  0
 23 40  1  0  0  0  0
 24 44  1  0  0  0  0
 24 45  1  0  0  0  0
 24 46  1  0  0  0  0
 25 47  1  0  0  0  0
 25 48  1  0  0  0  0
 25 49  1  0  0  0  0
 26 43  1  0  0  0  0
 26 50  1  0  0  0  0
 26 51  1  0  0  0  0
 27 29  2  0  0  0  0
 27 52  1  0  0  0  0
 29 30  1  0  0  0  0
 29 53  1  0  0  0  0
M  CHG  1  13   1
M  END
> <PUBCHEM_COMPOUND_CID>
440755

> <PUBCHEM_COMPOUND_CANONICALIZED>
1

> <PUBCHEM_CACTVS_COMPLEXITY>
813

> <PUBCHEM_CACTVS_HBOND_ACCEPTOR>
10

> <PUBCHEM_CACTVS_HBOND_DONOR>
5

> <PUBCHEM_CACTVS_ROTATABLE_BOND>
9

> <PUBCHEM_CACTVS_SUBSKEYS>
AAADceBzvAMAAAAAAAAAAAAAAAAAASAAAAAgAAAAAAAAAAAAAAAAHggQCCAACBTpgAYDAANABxCoQCJmdICAAAEAAgAIAAAYABCDEAIAgAAOQAAHFgITAADwMAIAAAAAAAAAAAAAAAAAAAAAAAAAAAAAAA==

> <PUBCHEM_IUPAC_OPENEYE_NAME>
2-[[[(2R,3S,4R,5R)-5-(4-amino-2-oxo-pyrimidin-1-yl)-3,4-dihydroxy-tetrahydrofuran-2-yl]methoxy-hydroxy-phosphoryl]oxy-hydroxy-phosphoryl]ethyl-trimethyl-ammonium

> <PUBCHEM_IUPAC_CAS_NAME>
2-[[[(2R,3S,4R,5R)-5-(4-amino-2-oxo-1-pyrimidinyl)-3,4-dihydroxy-2-oxolanyl]methoxy-hydroxyphosphoryl]oxy-hydroxyphosphoryl]ethyl-trimethylammonium

> <PUBCHEM_IUPAC_NAME>
2-[[[(2R,3S,4R,5R)-5-(4-amino-2-oxopyrimidin-1-yl)-3,4-dihydroxyoxolan-2-yl]methoxy-hydroxyphosphoryl]oxy-hydroxyphosphoryl]ethyl-trimethylazanium

> <PUBCHEM_IUPAC_SYSTEMATIC_NAME>
2-[[[(2R,3S,4R,5R)-5-(4-azanyl-2-oxidanylidene-pyrimidin-1-yl)-3,4-bis(oxidanyl)oxolan-2-yl]methoxy-oxidanyl-phosphoryl]oxy-oxidanyl-phosphoryl]ethyl-trimethyl-azanium

> <PUBCHEM_IUPAC_TRADITIONAL_NAME>
2-[[[(2R,3S,4R,5R)-5-(4-amino-2-keto-pyrimidin-1-yl)-3,4-dihydroxy-tetrahydrofuran-2-yl]methoxy-hydroxy-phosphoryl]oxy-hydroxy-phosphoryl]ethyl-trimethyl-ammonium

> <PUBCHEM_IUPAC_INCHI>
InChI=1S/C14H26N4O10P2/c1-18(2,3)6-7-29(22,23)28-30(24,25)26-8-9-11(19)12(20)13(27-9)17-5-4-10(15)16-14(17)21/h4-5,9,11-13,19-20H,6-8H2,1-3H3,(H3-,15,16,21,22,23,24,25)/p+1/t9-,11-,12-,13-/m1/s1

> <PUBCHEM_IUPAC_INCHIKEY>
RNUGPSIGKYHQNQ-OJAKKHQRSA-O

> <PUBCHEM_XLOGP3>
-4

> <PUBCHEM_EXACT_MASS>
473.120241

> <PUBCHEM_MOLECULAR_FORMULA>
C14H27N4O10P2+

> <PUBCHEM_MOLECULAR_WEIGHT>
473.332504

> <PUBCHEM_OPENEYE_CAN_SMILES>
C[N+](C)(C)CCP(=O)(O)OP(=O)(O)OCC1C(C(C(O1)N2C=CC(=NC2=O)N)O)O

> <PUBCHEM_OPENEYE_ISO_SMILES>
C[N+](C)(C)CCP(=O)(O)OP(=O)(O)OC[C@@H]1[C@H]([C@H]([C@@H](O1)N2C=CC(=NC2=O)N)O)O

> <PUBCHEM_CACTVS_TPSA>
201

> <PUBCHEM_MONOISOTOPIC_WEIGHT>
473.120241

> <PUBCHEM_TOTAL_CHARGE>
1

> <PUBCHEM_HEAVY_ATOM_COUNT>
30

> <PUBCHEM_ATOM_DEF_STEREO_COUNT>
4

> <PUBCHEM_ATOM_UDEF_STEREO_COUNT>
0

> <PUBCHEM_BOND_DEF_STEREO_COUNT>
0

> <PUBCHEM_BOND_UDEF_STEREO_COUNT>
0

> <PUBCHEM_ISOTOPIC_ATOM_COUNT>
0

> <PUBCHEM_COMPONENT_COUNT>
1

> <PUBCHEM_CACTVS_TAUTO_COUNT>
3

> <PUBCHEM_COORDINATE_TYPE>
1
5
255

> <PUBCHEM_BONDANNOTATIONS>
20  14  6
14  27  8
14  28  8
15  28  8
15  30  8
18  21  6
27  29  8
29  30  8
17  4  5
19  5  5

$$$$

