15934091
  -OEChem-07051213082D

 59 62  0     1  0  0  0  0  0999 V2000
   12.1292   -0.3973    0.0000 O   0  0  0  0  0  0  0  0  0  0  0  0
   10.3972   -0.4040    0.0000 O   0  0  0  0  0  0  0  0  0  0  0  0
   13.8690   -2.3906    0.0000 O   0  0  0  0  0  0  0  0  0  0  0  0
   12.1408   -3.3973    0.0000 O   0  0  0  0  0  0  0  0  0  0  0  0
   10.4049   -2.4039    0.0000 O   0  0  0  0  0  0  0  0  0  0  0  0
   13.8574    0.6094    0.0000 O   0  0  0  0  0  0  0  0  0  0  0  0
    6.8671   -0.4281    0.0000 O   0  0  0  0  0  0  0  0  0  0  0  0
    8.6155   -3.4627    0.0000 O   0  0  0  0  0  0  0  0  0  0  0  0
   15.5894    0.6161    0.0000 O   0  0  0  0  0  0  0  0  0  0  0  0
    6.8671   -3.4281    0.0000 O   0  0  0  0  0  0  0  0  0  0  0  0
   15.5779    3.6160    0.0000 O   0  0  0  0  0  0  0  0  0  0  0  0
   16.4497    2.1194    0.0000 O   0  0  0  0  0  0  0  0  0  0  0  0
    2.5369   -3.9281    0.0000 O   0  0  0  0  0  0  0  0  0  0  0  0
   13.0010   -1.8939    0.0000 C   0  0  1  0  0  0  0  0  0  0  0  0
   12.1369   -2.3973    0.0000 C   0  0  1  0  0  0  0  0  0  0  0  0
   12.9972   -0.8939    0.0000 C   0  0  1  0  0  0  0  0  0  0  0  0
   11.2690   -1.9006    0.0000 C   0  0  2  0  0  0  0  0  0  0  0  0
   11.2651   -0.9006    0.0000 C   0  0  1  0  0  0  0  0  0  0  0  0
   13.8613   -0.3906    0.0000 C   0  0  0  0  0  0  0  0  0  0  0  0
    9.5331   -0.9073    0.0000 C   0  0  0  0  0  0  0  0  0  0  0  0
    8.6270   -0.3934    0.0000 C   0  0  0  0  0  0  0  0  0  0  0  0
    9.5331   -1.9489    0.0000 C   0  0  0  0  0  0  0  0  0  0  0  0
    7.7331   -0.9281    0.0000 C   0  0  0  0  0  0  0  0  0  0  0  0
   14.7215    1.1127    0.0000 C   0  0  0  0  0  0  0  0  0  0  0  0
    7.7331   -1.9281    0.0000 C   0  0  0  0  0  0  0  0  0  0  0  0
    8.6270   -2.4628    0.0000 C   0  0  0  0  0  0  0  0  0  0  0  0
    6.8671   -2.4281    0.0000 C   0  0  0  0  0  0  0  0  0  0  0  0
   14.7176    2.1127    0.0000 C   0  0  0  0  0  0  0  0  0  0  0  0
    6.0010   -1.9281    0.0000 C   0  0  0  0  0  0  0  0  0  0  0  0
    6.0010   -0.9281    0.0000 C   0  0  0  0  0  0  0  0  0  0  0  0
    5.1350   -2.4281    0.0000 C   0  0  0  0  0  0  0  0  0  0  0  0
   15.5817    2.6160    0.0000 C   0  0  0  0  0  0  0  0  0  0  0  0
    4.2690   -1.9281    0.0000 C   0  0  0  0  0  0  0  0  0  0  0  0
    5.1350   -3.4281    0.0000 C   0  0  0  0  0  0  0  0  0  0  0  0
    3.4030   -2.4281    0.0000 C   0  0  0  0  0  0  0  0  0  0  0  0
    4.2690   -3.9281    0.0000 C   0  0  0  0  0  0  0  0  0  0  0  0
    3.4030   -3.4281    0.0000 C   0  0  0  0  0  0  0  0  0  0  0  0
   13.0034   -2.5139    0.0000 H   0  0  0  0  0  0  0  0  0  0  0  0
   11.6012   -2.7093    0.0000 H   0  0  0  0  0  0  0  0  0  0  0  0
   12.9948   -0.2739    0.0000 H   0  0  0  0  0  0  0  0  0  0  0  0
   11.2714   -2.5206    0.0000 H   0  0  0  0  0  0  0  0  0  0  0  0
   10.7294   -1.2127    0.0000 H   0  0  0  0  0  0  0  0  0  0  0  0
   14.0756   -0.9724    0.0000 H   0  0  0  0  0  0  0  0  0  0  0  0
   14.4714   -0.2806    0.0000 H   0  0  0  0  0  0  0  0  0  0  0  0
   14.4047   -2.0785    0.0000 H   0  0  0  0  0  0  0  0  0  0  0  0
   12.6789   -3.7052    0.0000 H   0  0  0  0  0  0  0  0  0  0  0  0
   10.4073   -3.0239    0.0000 H   0  0  0  0  0  0  0  0  0  0  0  0
    8.6199    0.2265    0.0000 H   0  0  0  0  0  0  0  0  0  0  0  0
   10.0688   -2.2610    0.0000 H   0  0  0  0  0  0  0  0  0  0  0  0
   14.5034    2.6945    0.0000 H   0  0  0  0  0  0  0  0  0  0  0  0
   14.1075    2.0027    0.0000 H   0  0  0  0  0  0  0  0  0  0  0  0
    5.4641   -0.6181    0.0000 H   0  0  0  0  0  0  0  0  0  0  0  0
    9.1488   -3.7789    0.0000 H   0  0  0  0  0  0  0  0  0  0  0  0
    4.2690   -1.3081    0.0000 H   0  0  0  0  0  0  0  0  0  0  0  0
    5.6720   -3.7381    0.0000 H   0  0  0  0  0  0  0  0  0  0  0  0
    2.8660   -2.1181    0.0000 H   0  0  0  0  0  0  0  0  0  0  0  0
    4.2690   -4.5481    0.0000 H   0  0  0  0  0  0  0  0  0  0  0  0
   16.1136    3.9281    0.0000 H   0  0  0  0  0  0  0  0  0  0  0  0
    2.0000   -3.6181    0.0000 H   0  0  0  0  0  0  0  0  0  0  0  0
  1 16  1  0  0  0  0
  1 18  1  0  0  0  0
 18  2  1  6  0  0  0
  2 20  1  0  0  0  0
 14  3  1  1  0  0  0
  3 45  1  0  0  0  0
 15  4  1  6  0  0  0
  4 46  1  0  0  0  0
 17  5  1  1  0  0  0
  5 47  1  0  0  0  0
  6 19  1  0  0  0  0
  6 24  1  0  0  0  0
  7 23  1  0  0  0  0
  7 30  1  0  0  0  0
  8 26  1  0  0  0  0
  8 53  1  0  0  0  0
  9 24  2  0  0  0  0
 10 27  2  0  0  0  0
 11 32  1  0  0  0  0
 11 58  1  0  0  0  0
 12 32  2  0  0  0  0
 13 37  1  0  0  0  0
 13 59  1  0  0  0  0
 14 15  1  0  0  0  0
 14 16  1  0  0  0  0
 14 38  1  0  0  0  0
 15 17  1  0  0  0  0
 15 39  1  0  0  0  0
 16 19  1  6  0  0  0
 16 40  1  0  0  0  0
 17 18  1  0  0  0  0
 17 41  1  0  0  0  0
 18 42  1  0  0  0  0
 19 43  1  0  0  0  0
 19 44  1  0  0  0  0
 20 21  1  0  0  0  0
 20 22  2  0  0  0  0
 21 23  2  0  0  0  0
 21 48  1  0  0  0  0
 22 26  1  0  0  0  0
 22 49  1  0  0  0  0
 23 25  1  0  0  0  0
 24 28  1  0  0  0  0
 25 26  2  0  0  0  0
 25 27  1  0  0  0  0
 27 29  1  0  0  0  0
 28 32  1  0  0  0  0
 28 50  1  0  0  0  0
 28 51  1  0  0  0  0
 29 30  2  0  0  0  0
 29 31  1  0  0  0  0
 30 52  1  0  0  0  0
 31 33  2  0  0  0  0
 31 34  1  0  0  0  0
 33 35  1  0  0  0  0
 33 54  1  0  0  0  0
 34 36  2  0  0  0  0
 34 55  1  0  0  0  0
 35 37  2  0  0  0  0
 35 56  1  0  0  0  0
 36 37  1  0  0  0  0
 36 57  1  0  0  0  0
M  END
> <PUBCHEM_COMPOUND_CID>
15934091

> <PUBCHEM_COMPOUND_CANONICALIZED>
1

> <PUBCHEM_CACTVS_COMPLEXITY>
882

> <PUBCHEM_CACTVS_HBOND_ACCEPTOR>
13

> <PUBCHEM_CACTVS_HBOND_DONOR>
6

> <PUBCHEM_CACTVS_ROTATABLE_BOND>
8

> <PUBCHEM_CACTVS_SUBSKEYS>
AAADceB4PAAAAAAAAAAAAAAAAAAAAAAAAAA0YIEAAAAAAACBQAAAGgAACAAADBSwmAMwDoAABgCIAqDSCAACCAAkIAAIiAEGCMgdNzaONRqieWCl4BUPuYfI7PzOIAAACAAIAABAAAAQABAAAAAAAAAAAA==

> <PUBCHEM_IUPAC_OPENEYE_NAME>
3-oxo-3-[[(2R,3S,4S,5R,6S)-3,4,5-trihydroxy-6-[5-hydroxy-3-(4-hydroxyphenyl)-4-oxo-chromen-7-yl]oxy-tetrahydropyran-2-yl]methoxy]propanoic acid

> <PUBCHEM_IUPAC_CAS_NAME>
3-oxo-3-[[(2R,3S,4S,5R,6S)-3,4,5-trihydroxy-6-[[5-hydroxy-3-(4-hydroxyphenyl)-4-oxo-1-benzopyran-7-yl]oxy]-2-oxanyl]methoxy]propanoic acid

> <PUBCHEM_IUPAC_NAME>
3-oxo-3-[[(2R,3S,4S,5R,6S)-3,4,5-trihydroxy-6-[5-hydroxy-3-(4-hydroxyphenyl)-4-oxochromen-7-yl]oxyoxan-2-yl]methoxy]propanoic acid

> <PUBCHEM_IUPAC_SYSTEMATIC_NAME>
3-[[(2R,3S,4S,5R,6S)-6-[3-(4-hydroxyphenyl)-5-oxidanyl-4-oxidanylidene-chromen-7-yl]oxy-3,4,5-tris(oxidanyl)oxan-2-yl]methoxy]-3-oxidanylidene-propanoic acid

> <PUBCHEM_IUPAC_TRADITIONAL_NAME>
3-keto-3-[[(2R,3S,4S,5R,6S)-3,4,5-trihydroxy-6-[5-hydroxy-3-(4-hydroxyphenyl)-4-keto-chromen-7-yl]oxy-tetrahydropyran-2-yl]methoxy]propionic acid

> <PUBCHEM_IUPAC_INCHI>
InChI=1S/C24H22O13/c25-11-3-1-10(2-4-11)13-8-34-15-6-12(5-14(26)19(15)20(13)30)36-24-23(33)22(32)21(31)16(37-24)9-35-18(29)7-17(27)28/h1-6,8,16,21-26,31-33H,7,9H2,(H,27,28)/t16-,21-,22+,23-,24-/m1/s1

> <PUBCHEM_IUPAC_INCHIKEY>
FRAUJUKWSKMNJY-RSEYPYQYSA-N

> <PUBCHEM_XLOGP3_AA>
0.6

> <PUBCHEM_EXACT_MASS>
518.106041

> <PUBCHEM_MOLECULAR_FORMULA>
C24H22O13

> <PUBCHEM_MOLECULAR_WEIGHT>
518.42368

> <PUBCHEM_OPENEYE_CAN_SMILES>
C1=CC(=CC=C1C2=COC3=CC(=CC(=C3C2=O)O)OC4C(C(C(C(O4)COC(=O)CC(=O)O)O)O)O)O

> <PUBCHEM_OPENEYE_ISO_SMILES>
C1=CC(=CC=C1C2=COC3=CC(=CC(=C3C2=O)O)O[C@H]4[C@@H]([C@H]([C@@H]([C@H](O4)COC(=O)CC(=O)O)O)O)O)O

> <PUBCHEM_CACTVS_TPSA>
210

> <PUBCHEM_MONOISOTOPIC_WEIGHT>
518.106041

> <PUBCHEM_TOTAL_CHARGE>
0

> <PUBCHEM_HEAVY_ATOM_COUNT>
37

> <PUBCHEM_ATOM_DEF_STEREO_COUNT>
5

> <PUBCHEM_ATOM_UDEF_STEREO_COUNT>
0

> <PUBCHEM_BOND_DEF_STEREO_COUNT>
0

> <PUBCHEM_BOND_UDEF_STEREO_COUNT>
0

> <PUBCHEM_ISOTOPIC_ATOM_COUNT>
0

> <PUBCHEM_COMPONENT_COUNT>
1

> <PUBCHEM_CACTVS_TAUTO_COUNT>
10

> <PUBCHEM_COORDINATE_TYPE>
1
5
255

> <PUBCHEM_BONDANNOTATIONS>
16  19  6
18  2  6
20  21  8
20  22  8
21  23  8
22  26  8
23  25  8
25  26  8
25  27  8
27  29  8
29  30  8
14  3  5
31  33  8
31  34  8
33  35  8
34  36  8
35  37  8
36  37  8
15  4  6
17  5  5
7  23  8
7  30  8

$$$$

