12680
  -OEChem-06261207142D

 11 10  0     0  0  0  0  0  0999 V2000
    3.2320    0.8660    0.0000 Cl  0  0  0  0  0  0  0  0  0  0  0  0
    4.2320   -0.8660    0.0000 Cl  0  0  0  0  0  0  0  0  0  0  0  0
    4.5981    1.5000    0.0000 Cl  0  0  0  0  0  0  0  0  0  0  0  0
    2.0000    0.0000    0.0000 Cl  0  0  0  0  0  0  0  0  0  0  0  0
    6.3301    0.5000    0.0000 Cl  0  0  0  0  0  0  0  0  0  0  0  0
    5.4641   -1.0000    0.0000 Cl  0  0  0  0  0  0  0  0  0  0  0  0
    2.8660   -1.5000    0.0000 O   0  0  0  0  0  0  0  0  0  0  0  0
    3.7320    0.0000    0.0000 C   0  0  0  0  0  0  0  0  0  0  0  0
    4.5981    0.5000    0.0000 C   0  0  0  0  0  0  0  0  0  0  0  0
    2.8660   -0.5000    0.0000 C   0  0  0  0  0  0  0  0  0  0  0  0
    5.4641    0.0000    0.0000 C   0  0  0  0  0  0  0  0  0  0  0  0
  1  8  1  0  0  0  0
  2  8  1  0  0  0  0
  3  9  1  0  0  0  0
  4 10  1  0  0  0  0
  5 11  1  0  0  0  0
  6 11  1  0  0  0  0
  7 10  2  0  0  0  0
  8  9  1  0  0  0  0
  8 10  1  0  0  0  0
  9 11  2  0  0  0  0
M  END
> <PUBCHEM_COMPOUND_CID>
12680

> <PUBCHEM_COMPOUND_CANONICALIZED>
1

> <PUBCHEM_CACTVS_COMPLEXITY>
203

> <PUBCHEM_CACTVS_HBOND_ACCEPTOR>
1

> <PUBCHEM_CACTVS_HBOND_DONOR>
0

> <PUBCHEM_CACTVS_ROTATABLE_BOND>
2

> <PUBCHEM_CACTVS_SUBSKEYS>
AAADcQBgIAAHAAAAAAAAAAAAAAAAAAAAAAAAAAAAAAAAAAAAAAAACgIAAAAACAIAgIAAAAAAAACIAEBYAAAAAAAgAAAAAEEAAghAAAAAAAAAAAAAAAAAAAAAAAAAAAAAAAAAAAAAAAAAAAAAAAAAAAAAAA==

> <PUBCHEM_IUPAC_OPENEYE_NAME>
2,2,3,4,4-pentachlorobut-3-enoyl chloride

> <PUBCHEM_IUPAC_CAS_NAME>
2,2,3,4,4-pentachloro-3-butenoyl chloride

> <PUBCHEM_IUPAC_NAME>
2,2,3,4,4-pentachlorobut-3-enoyl chloride

> <PUBCHEM_IUPAC_SYSTEMATIC_NAME>
2,2,3,4,4-pentakis(chloranyl)but-3-enoyl chloride

> <PUBCHEM_IUPAC_TRADITIONAL_NAME>
2,2,3,4,4-pentachlorobut-3-enoyl chloride

> <PUBCHEM_IUPAC_INCHI>
InChI=1S/C4Cl6O/c5-1(2(6)7)4(9,10)3(8)11

> <PUBCHEM_IUPAC_INCHIKEY>
YWBSILUOCLPVTI-UHFFFAOYSA-N

> <PUBCHEM_XLOGP3_AA>
4.3

> <PUBCHEM_EXACT_MASS>
275.805081

> <PUBCHEM_MOLECULAR_FORMULA>
C4Cl6O

> <PUBCHEM_MOLECULAR_WEIGHT>
276.7602

> <PUBCHEM_OPENEYE_CAN_SMILES>
C(=C(Cl)Cl)(C(C(=O)Cl)(Cl)Cl)Cl

> <PUBCHEM_OPENEYE_ISO_SMILES>
C(=C(Cl)Cl)(C(C(=O)Cl)(Cl)Cl)Cl

> <PUBCHEM_CACTVS_TPSA>
17.1

> <PUBCHEM_MONOISOTOPIC_WEIGHT>
273.808031

> <PUBCHEM_TOTAL_CHARGE>
0

> <PUBCHEM_HEAVY_ATOM_COUNT>
11

> <PUBCHEM_ATOM_DEF_STEREO_COUNT>
0

> <PUBCHEM_ATOM_UDEF_STEREO_COUNT>
0

> <PUBCHEM_BOND_DEF_STEREO_COUNT>
0

> <PUBCHEM_BOND_UDEF_STEREO_COUNT>
0

> <PUBCHEM_ISOTOPIC_ATOM_COUNT>
0

> <PUBCHEM_COMPONENT_COUNT>
1

> <PUBCHEM_CACTVS_TAUTO_COUNT>
1

> <PUBCHEM_COORDINATE_TYPE>
1
5
255

$$$$

