439810
  -OEChem-07051212472D

 50 53  0     1  0  0  0  0  0999 V2000
    2.0000   -2.0032    0.0000 O   0  0  0  0  0  0  0  0  0  0  0  0
    6.5271   -0.4509    0.0000 C   0  0  3  0  0  0  0  0  0  0  0  0
    5.6610    0.0491    0.0000 C   0  0  3  0  0  0  0  0  0  0  0  0
    7.3931    0.0491    0.0000 C   0  0  3  0  0  0  0  0  0  0  0  0
    4.7510   -0.4578    0.0000 C   0  0  3  0  0  0  0  0  0  0  0  0
    7.3931    1.0491    0.0000 C   0  0  3  0  0  0  0  0  0  0  0  0
    4.7430   -1.4994    0.0000 C   0  0  2  0  0  0  0  0  0  0  0  0
    5.6610    1.0491    0.0000 C   0  0  0  0  0  0  0  0  0  0  0  0
    6.5271    1.5491    0.0000 C   0  0  0  0  0  0  0  0  0  0  0  0
    6.5431   -1.4924    0.0000 C   0  0  0  0  0  0  0  0  0  0  0  0
    8.3393   -0.2556    0.0000 C   0  0  0  0  0  0  0  0  0  0  0  0
    8.3393    1.3538    0.0000 C   0  0  0  0  0  0  0  0  0  0  0  0
    5.6451   -2.0202    0.0000 C   0  0  0  0  0  0  0  0  0  0  0  0
    3.8242    0.1063    0.0000 C   0  0  0  0  0  0  0  0  0  0  0  0
    8.9229    0.5491    0.0000 C   0  0  0  0  0  0  0  0  0  0  0  0
    4.7587    0.5422    0.0000 C   0  0  0  0  0  0  0  0  0  0  0  0
    7.3931    2.0491    0.0000 C   0  0  0  0  0  0  0  0  0  0  0  0
    3.8076   -2.0491    0.0000 C   0  0  0  0  0  0  0  0  0  0  0  0
    2.8763   -0.4216    0.0000 C   0  0  0  0  0  0  0  0  0  0  0  0
    2.8680   -1.5066    0.0000 C   0  0  0  0  0  0  0  0  0  0  0  0
    7.2664   -0.8702    0.0000 H   0  0  0  0  0  0  0  0  0  0  0  0
    6.3972    0.4741    0.0000 H   0  0  0  0  0  0  0  0  0  0  0  0
    7.4830   -0.7961    0.0000 H   0  0  0  0  0  0  0  0  0  0  0  0
    4.7463   -2.3494    0.0000 H   0  0  0  0  0  0  0  0  0  0  0  0
    5.4490    1.6317    0.0000 H   0  0  0  0  0  0  0  0  0  0  0  0
    5.0504    0.9414    0.0000 H   0  0  0  0  0  0  0  0  0  0  0  0
    6.9256    2.0240    0.0000 H   0  0  0  0  0  0  0  0  0  0  0  0
    6.1285    2.0240    0.0000 H   0  0  0  0  0  0  0  0  0  0  0  0
    6.7612   -2.0728    0.0000 H   0  0  0  0  0  0  0  0  0  0  0  0
    7.1523   -1.3769    0.0000 H   0  0  0  0  0  0  0  0  0  0  0  0
    8.0883   -0.8226    0.0000 H   0  0  0  0  0  0  0  0  0  0  0  0
    8.8767   -0.5649    0.0000 H   0  0  0  0  0  0  0  0  0  0  0  0
    8.8767    1.6630    0.0000 H   0  0  0  0  0  0  0  0  0  0  0  0
    8.0883    1.9207    0.0000 H   0  0  0  0  0  0  0  0  0  0  0  0
    5.2478   -2.4962    0.0000 H   0  0  0  0  0  0  0  0  0  0  0  0
    6.0460   -2.4931    0.0000 H   0  0  0  0  0  0  0  0  0  0  0  0
    4.2324    0.5730    0.0000 H   0  0  0  0  0  0  0  0  0  0  0  0
    3.4343    0.5884    0.0000 H   0  0  0  0  0  0  0  0  0  0  0  0
    9.3838    0.1344    0.0000 H   0  0  0  0  0  0  0  0  0  0  0  0
    9.3838    0.9638    0.0000 H   0  0  0  0  0  0  0  0  0  0  0  0
    5.3787    0.5374    0.0000 H   0  0  0  0  0  0  0  0  0  0  0  0
    4.7635    1.1622    0.0000 H   0  0  0  0  0  0  0  0  0  0  0  0
    4.1388    0.5470    0.0000 H   0  0  0  0  0  0  0  0  0  0  0  0
    8.0131    2.0491    0.0000 H   0  0  0  0  0  0  0  0  0  0  0  0
    7.3931    2.6691    0.0000 H   0  0  0  0  0  0  0  0  0  0  0  0
    6.7731    2.0491    0.0000 H   0  0  0  0  0  0  0  0  0  0  0  0
    3.4103   -2.5251    0.0000 H   0  0  0  0  0  0  0  0  0  0  0  0
    4.2085   -2.5220    0.0000 H   0  0  0  0  0  0  0  0  0  0  0  0
    2.6718    0.1637    0.0000 H   0  0  0  0  0  0  0  0  0  0  0  0
    2.2647   -0.5230    0.0000 H   0  0  0  0  0  0  0  0  0  0  0  0
  1 20  2  0  0  0  0
  2  3  1  0  0  0  0
  2  4  1  0  0  0  0
  2 10  1  0  0  0  0
  2 21  1  0  0  0  0
  3  5  1  0  0  0  0
  3  8  1  0  0  0  0
  3 22  1  0  0  0  0
  4  6  1  0  0  0  0
  4 11  1  0  0  0  0
  4 23  1  0  0  0  0
  5  7  1  0  0  0  0
  5 14  1  0  0  0  0
  5 16  1  0  0  0  0
  6  9  1  0  0  0  0
  6 12  1  0  0  0  0
  6 17  1  0  0  0  0
  7 13  1  0  0  0  0
  7 18  1  0  0  0  0
  7 24  1  1  0  0  0
  8  9  1  0  0  0  0
  8 25  1  0  0  0  0
  8 26  1  0  0  0  0
  9 27  1  0  0  0  0
  9 28  1  0  0  0  0
 10 13  1  0  0  0  0
 10 29  1  0  0  0  0
 10 30  1  0  0  0  0
 11 15  1  0  0  0  0
 11 31  1  0  0  0  0
 11 32  1  0  0  0  0
 12 15  1  0  0  0  0
 12 33  1  0  0  0  0
 12 34  1  0  0  0  0
 13 35  1  0  0  0  0
 13 36  1  0  0  0  0
 14 19  1  0  0  0  0
 14 37  1  0  0  0  0
 14 38  1  0  0  0  0
 15 39  1  0  0  0  0
 15 40  1  0  0  0  0
 16 41  1  0  0  0  0
 16 42  1  0  0  0  0
 16 43  1  0  0  0  0
 17 44  1  0  0  0  0
 17 45  1  0  0  0  0
 17 46  1  0  0  0  0
 18 20  1  0  0  0  0
 18 47  1  0  0  0  0
 18 48  1  0  0  0  0
 19 20  1  0  0  0  0
 19 49  1  0  0  0  0
 19 50  1  0  0  0  0
M  END
> <PUBCHEM_COMPOUND_CID>
439810

> <PUBCHEM_COMPOUND_CANONICALIZED>
1

> <PUBCHEM_CACTVS_COMPLEXITY>
428

> <PUBCHEM_CACTVS_HBOND_ACCEPTOR>
1

> <PUBCHEM_CACTVS_HBOND_DONOR>
0

> <PUBCHEM_CACTVS_ROTATABLE_BOND>
0

> <PUBCHEM_CACTVS_SUBSKEYS>
AAADceB4IAAAAAAAAAAAAAAAAAAAAYAAAAAwYMAAAAAAAGDAAAAAGgAAAAAADwSAgAACAAAAAAAIAIAQAAAAAAAAAAAAAAEAAAAAABIAAAAAAAAAAAAAAAEIiMCPgAAAAAAAAACAAAQAACAAAAAACAAAAA==

> <PUBCHEM_IUPAC_OPENEYE_NAME>
(5R)-10,13-dimethyl-1,2,4,5,6,7,8,9,11,12,14,15,16,17-tetradecahydrocyclopenta[a]phenanthren-3-one

> <PUBCHEM_IUPAC_CAS_NAME>
(5R)-10,13-dimethyl-1,2,4,5,6,7,8,9,11,12,14,15,16,17-tetradecahydrocyclopenta[a]phenanthren-3-one

> <PUBCHEM_IUPAC_NAME>
(5R)-10,13-dimethyl-1,2,4,5,6,7,8,9,11,12,14,15,16,17-tetradecahydrocyclopenta[a]phenanthren-3-one

> <PUBCHEM_IUPAC_SYSTEMATIC_NAME>
(5R)-10,13-dimethyl-1,2,4,5,6,7,8,9,11,12,14,15,16,17-tetradecahydrocyclopenta[a]phenanthren-3-one

> <PUBCHEM_IUPAC_TRADITIONAL_NAME>
(5R)-10,13-dimethyl-1,2,4,5,6,7,8,9,11,12,14,15,16,17-tetradecahydrocyclopenta[a]phenanthren-3-one

> <PUBCHEM_IUPAC_INCHI>
InChI=1S/C19H30O/c1-18-9-3-4-16(18)15-6-5-13-12-14(20)7-11-19(13,2)17(15)8-10-18/h13,15-17H,3-12H2,1-2H3/t13-,15?,16?,17?,18?,19?/m1/s1

> <PUBCHEM_IUPAC_INCHIKEY>
VMNRNUNYBVFVQI-OCUVBNDUSA-N

> <PUBCHEM_XLOGP3_AA>
5.5

> <PUBCHEM_EXACT_MASS>
274.229666

> <PUBCHEM_MOLECULAR_FORMULA>
C19H30O

> <PUBCHEM_MOLECULAR_WEIGHT>
274.4409

> <PUBCHEM_OPENEYE_CAN_SMILES>
CC12CCCC1C3CCC4CC(=O)CCC4(C3CC2)C

> <PUBCHEM_OPENEYE_ISO_SMILES>
CC12CCCC1C3CC[C@@H]4CC(=O)CCC4(C3CC2)C

> <PUBCHEM_CACTVS_TPSA>
17.1

> <PUBCHEM_MONOISOTOPIC_WEIGHT>
274.229666

> <PUBCHEM_TOTAL_CHARGE>
0

> <PUBCHEM_HEAVY_ATOM_COUNT>
20

> <PUBCHEM_ATOM_DEF_STEREO_COUNT>
1

> <PUBCHEM_ATOM_UDEF_STEREO_COUNT>
5

> <PUBCHEM_BOND_DEF_STEREO_COUNT>
0

> <PUBCHEM_BOND_UDEF_STEREO_COUNT>
0

> <PUBCHEM_ISOTOPIC_ATOM_COUNT>
0

> <PUBCHEM_COMPONENT_COUNT>
1

> <PUBCHEM_CACTVS_TAUTO_COUNT>
3

> <PUBCHEM_COORDINATE_TYPE>
1
5
255

> <PUBCHEM_BONDANNOTATIONS>
2  21  3
3  22  3
4  23  3
5  16  3
6  17  3
7  24  5

$$$$

