12657
  -OEChem-06261207122D

 22 22  0     0  0  0  0  0  0999 V2000
    2.3244   -1.6690    0.0000 O   0  0  0  0  0  0  0  0  0  0  0  0
    3.7071   -0.7452    0.0000 N   0  0  0  0  0  0  0  0  0  0  0  0
    3.7071    1.6690    0.0000 C   0  0  0  0  0  0  0  0  0  0  0  0
    2.7071    1.6690    0.0000 C   0  0  0  0  0  0  0  0  0  0  0  0
    4.4142    0.9619    0.0000 C   0  0  0  0  0  0  0  0  0  0  0  0
    2.0000    0.9619    0.0000 C   0  0  0  0  0  0  0  0  0  0  0  0
    4.4142   -0.0381    0.0000 C   0  0  0  0  0  0  0  0  0  0  0  0
    2.0000   -0.0381    0.0000 C   0  0  0  0  0  0  0  0  0  0  0  0
    2.7071   -0.7452    0.0000 C   0  0  0  0  0  0  0  0  0  0  0  0
    4.2440    1.9790    0.0000 H   0  0  0  0  0  0  0  0  0  0  0  0
    3.5466    2.2679    0.0000 H   0  0  0  0  0  0  0  0  0  0  0  0
    2.8676    2.2679    0.0000 H   0  0  0  0  0  0  0  0  0  0  0  0
    2.1702    1.9790    0.0000 H   0  0  0  0  0  0  0  0  0  0  0  0
    5.0131    0.8015    0.0000 H   0  0  0  0  0  0  0  0  0  0  0  0
    4.7242    1.4989    0.0000 H   0  0  0  0  0  0  0  0  0  0  0  0
    1.6900    1.4989    0.0000 H   0  0  0  0  0  0  0  0  0  0  0  0
    1.4011    0.8015    0.0000 H   0  0  0  0  0  0  0  0  0  0  0  0
    4.7242   -0.5750    0.0000 H   0  0  0  0  0  0  0  0  0  0  0  0
    5.0131    0.1224    0.0000 H   0  0  0  0  0  0  0  0  0  0  0  0
    1.4011    0.1224    0.0000 H   0  0  0  0  0  0  0  0  0  0  0  0
    1.6900   -0.5750    0.0000 H   0  0  0  0  0  0  0  0  0  0  0  0
    3.9444   -1.3180    0.0000 H   0  0  0  0  0  0  0  0  0  0  0  0
  1  9  2  0  0  0  0
  2  7  1  0  0  0  0
  2  9  1  0  0  0  0
  2 22  1  0  0  0  0
  3  4  1  0  0  0  0
  3  5  1  0  0  0  0
  3 10  1  0  0  0  0
  3 11  1  0  0  0  0
  4  6  1  0  0  0  0
  4 12  1  0  0  0  0
  4 13  1  0  0  0  0
  5  7  1  0  0  0  0
  5 14  1  0  0  0  0
  5 15  1  0  0  0  0
  6  8  1  0  0  0  0
  6 16  1  0  0  0  0
  6 17  1  0  0  0  0
  7 18  1  0  0  0  0
  7 19  1  0  0  0  0
  8  9  1  0  0  0  0
  8 20  1  0  0  0  0
  8 21  1  0  0  0  0
M  END
> <PUBCHEM_COMPOUND_CID>
12657

> <PUBCHEM_COMPOUND_CANONICALIZED>
1

> <PUBCHEM_CACTVS_COMPLEXITY>
101

> <PUBCHEM_CACTVS_HBOND_ACCEPTOR>
1

> <PUBCHEM_CACTVS_HBOND_DONOR>
1

> <PUBCHEM_CACTVS_ROTATABLE_BOND>
0

> <PUBCHEM_CACTVS_SUBSKEYS>
AAADccBiIAAAAAAAAAAAAAAAAAAAAAAAAAAAAAAAAAAWAAAAAAAAHgAQAAAACADBgAQAAALAAAAIAAEQEAAAAAAAAAAAAIEIAAAAABIAgAAEAAAAFgCAAAEYiACAAAAAAAAAAAAAAAAAAAAAAAAAAAAAAA==

> <PUBCHEM_IUPAC_OPENEYE_NAME>
azocan-2-one

> <PUBCHEM_IUPAC_CAS_NAME>
2-azocanone

> <PUBCHEM_IUPAC_NAME>
azocan-2-one

> <PUBCHEM_IUPAC_SYSTEMATIC_NAME>
azocan-2-one

> <PUBCHEM_IUPAC_TRADITIONAL_NAME>
azocan-2-one

> <PUBCHEM_IUPAC_INCHI>
InChI=1S/C7H13NO/c9-7-5-3-1-2-4-6-8-7/h1-6H2,(H,8,9)

> <PUBCHEM_IUPAC_INCHIKEY>
CJYXCQLOZNIMFP-UHFFFAOYSA-N

> <PUBCHEM_XLOGP3>
0.2

> <PUBCHEM_EXACT_MASS>
127.099714

> <PUBCHEM_MOLECULAR_FORMULA>
C7H13NO

> <PUBCHEM_MOLECULAR_WEIGHT>
127.18422

> <PUBCHEM_OPENEYE_CAN_SMILES>
C1CCCNC(=O)CC1

> <PUBCHEM_OPENEYE_ISO_SMILES>
C1CCCNC(=O)CC1

> <PUBCHEM_CACTVS_TPSA>
29.1

> <PUBCHEM_MONOISOTOPIC_WEIGHT>
127.099714

> <PUBCHEM_TOTAL_CHARGE>
0

> <PUBCHEM_HEAVY_ATOM_COUNT>
9

> <PUBCHEM_ATOM_DEF_STEREO_COUNT>
0

> <PUBCHEM_ATOM_UDEF_STEREO_COUNT>
0

> <PUBCHEM_BOND_DEF_STEREO_COUNT>
0

> <PUBCHEM_BOND_UDEF_STEREO_COUNT>
0

> <PUBCHEM_ISOTOPIC_ATOM_COUNT>
0

> <PUBCHEM_COMPONENT_COUNT>
1

> <PUBCHEM_CACTVS_TAUTO_COUNT>
3

> <PUBCHEM_COORDINATE_TYPE>
1
5
255

$$$$

