   Color/Form
        TETRAHEDRA FROM ETHYL ACETATE, FINE NEEDLES FROM BENZENE; TENDS TO
   FORM SOLVATED CRYSTALS
   from [1]HSDB

   Melting Point
        162 DEG C
   from [2]HSDB

   Solubilities
        FREELY SOL IN LOWER ALCOHOLS, ETHYL ACETATE, ACETONE; MORE SOL IN
   WATER THAN OTHER PRINCIPAL ALKALOIDS OF ERGOT; SLIGHTLY SOL IN
   CHLOROFORM
   from [3]HSDB

   Spectral Properties

     * SPECIFIC OPTICAL ROTATION: 190 DEG @ 20 DEG C/D; -16 DEG @ 20 DEG
       C/D (C= 1 IN PYRIDINE); PK: 6.8
     * Intense mass spectral peaks: 196 m/z, 221 m/z, 307 m/z, 325 m/z

   from [4]HSDB

   Other Chemical/Physical Properties

     * CRYSTALS; 1 G SOL IN 36 ML WATER, 120 ML ALCOHOL; NEARLY INSOL IN
       ETHER, CHLOROFORM; DECOMP @ 167 DEG C; SPECIFIC OPTICAL ROTATION:
       +48 TO +57 DEG @ 25 DEG C/D /MALEATE/
     * ERGONOVINE & ITS DERIV UPON HYDROLYSIS YIELD LYSERGIC ACID & AMINE;
       THEY ARE DESIGNATED AS AMINE ALKALOIDS
     * WHITE OR FAINTLY YELLOW, MICROCRYSTALLINE POWDER; ODORLESS;
       SPECIFIC OPTICAL ROTATION (AQ SOLN): +51 TO +56 DEG /MALEATE NF/
     * CRYSTALS FROM WATER; SLIGHTLY SOL IN WATER /HYDROBROMIDE/
     * NEEDLES FROM ETHANOL; MORE SOL IN WATER THAN HYDROBROMIDE
       /HYDROCHLORIDE/
     * CRYSTALS /TARTRATE HYDRATE/

   from [5]HSDB

   Computed Properties
   Molecular Weight                  325.40482 [g/mol]
   Molecular Formula                 C[19]H[23]N[3]O[2]
   XLogP3                            1.8
   H-Bond Donor                      3
   H-Bond Acceptor                   3
   Rotatable Bond Count              3
   Tautomer Count                    4
   Exact Mass                        325.179027
   MonoIsotopic Mass                 325.179027
   Topological Polar Surface Area    68.4
   Heavy Atom Count                  24
   Formal Charge                     0
   Complexity                        535
   Isotope Atom Count                0
   Defined Atom Stereocenter Count   3
   Undefined Atom Stereocenter Count 0
   Defined Bond Stereocenter Count   0
   Undefined Bond Stereocenter Count 0
   Covalently-Bonded Unit Count      1
   Feature 3D Acceptor Count         2
   Feature 3D Donor Count            3
   Feature 3D Cation Count           2
   Feature 3D Ring Count             4
   Effective Rotor Count             4.8
   Conformer Sampling RMSD           0.8
   CID Conformer Count               [6]20

References

   1. http://toxnet.nlm.nih.gov/cgi-bin/sis/search/r?dbs+hsdb:@term+@rn+@rel+60-79-7
   2. http://toxnet.nlm.nih.gov/cgi-bin/sis/search/r?dbs+hsdb:@term+@rn+@rel+60-79-7
   3. http://toxnet.nlm.nih.gov/cgi-bin/sis/search/r?dbs+hsdb:@term+@rn+@rel+60-79-7
   4. http://toxnet.nlm.nih.gov/cgi-bin/sis/search/r?dbs+hsdb:@term+@rn+@rel+60-79-7
   5. http://toxnet.nlm.nih.gov/cgi-bin/sis/search/r?dbs+hsdb:@term+@rn+@rel+60-79-7
   6. http://pubchem.ncbi.nlm.nih.gov/vw3d/vw3d.cgi?cid=443884
