   Color/Form

     * Yellow crystals
     * Orange solid

   from [1]HSDB

   Odor
        PUNGENT ODOR
   from [2]HSDB

   Melting Point
        38-42 DEG C
   from [3]HSDB

   Corrosivity

     * CORROSIVE TO MILD STEEL IN THE PRESENCE OF WATER
     * Formulations are noncorrosive to equipment if cleaned after use.

   from [4]HSDB

   Density/Specific Gravity
        1.2647 @ 45 deg C/4 deg C
   from [5]HSDB

   Dissociation Constants
        PKA 4.62
   from [6]HSDB

   pH
        AN ACIDIC PHENOL
   from [7]HSDB

   Solubilities
        0.0052 G/100 G WATER; 48 G/100 G ETHANOL; 27 G/100 G N-HEPTANE;
   MISCIBLE IN ETHYL ETHER, TOLUENE, & XYLENE
   from [8]HSDB

   Spectral Properties

     * Index of refraction 1.5707 @ 45 deg C/D
     * Intense mass spectral peaks: 211 m/z (100%), 163 m/z (40%), 147 m/z
       (23%), 117 m/z (19%)

   from [9]HSDB

   Vapor Pressure
        1 MM HG @ 151.1 DEG C
   from [10]HSDB

   Other Chemical/Physical Properties

     * FORMS SALTS, SOME OF WHICH ARE WATER SOLUBLE, WITH INORGANIC &
       ORGANIC BASES
     * Technical: red-brown liquid
     * Highly water soluble as alkali salts.
     * The absorption maximum of dinoseb in water is 375 nm.

   from [11]HSDB

   Computed Properties
   Molecular Weight                  240.21268 [g/mol]
   Molecular Formula                 C[10]H[12]N[2]O[5]
   XLogP3                            3.6
   H-Bond Donor                      1
   H-Bond Acceptor                   5
   Rotatable Bond Count              2
   Tautomer Count                    4
   Exact Mass                        240.074621
   MonoIsotopic Mass                 240.074621
   Topological Polar Surface Area    112
   Heavy Atom Count                  17
   Formal Charge                     0
   Complexity                        298
   Isotope Atom Count                0
   Defined Atom Stereocenter Count   0
   Undefined Atom Stereocenter Count 1
   Defined Bond Stereocenter Count   0
   Undefined Bond Stereocenter Count 0
   Covalently-Bonded Unit Count      1
   Feature 3D Acceptor Count         4
   Feature 3D Donor Count            1
   Feature 3D Anion Count            2
   Feature 3D Hydrophobe Count       2
   Feature 3D Ring Count             1
   Effective Rotor Count             4
   Conformer Sampling RMSD           0.6
   CID Conformer Count               [12]6

References

   1. http://toxnet.nlm.nih.gov/cgi-bin/sis/search/r?dbs+hsdb:@term+@rn+@rel+88-85-7
   2. http://toxnet.nlm.nih.gov/cgi-bin/sis/search/r?dbs+hsdb:@term+@rn+@rel+88-85-7
   3. http://toxnet.nlm.nih.gov/cgi-bin/sis/search/r?dbs+hsdb:@term+@rn+@rel+88-85-7
   4. http://toxnet.nlm.nih.gov/cgi-bin/sis/search/r?dbs+hsdb:@term+@rn+@rel+88-85-7
   5. http://toxnet.nlm.nih.gov/cgi-bin/sis/search/r?dbs+hsdb:@term+@rn+@rel+88-85-7
   6. http://toxnet.nlm.nih.gov/cgi-bin/sis/search/r?dbs+hsdb:@term+@rn+@rel+88-85-7
   7. http://toxnet.nlm.nih.gov/cgi-bin/sis/search/r?dbs+hsdb:@term+@rn+@rel+88-85-7
   8. http://toxnet.nlm.nih.gov/cgi-bin/sis/search/r?dbs+hsdb:@term+@rn+@rel+88-85-7
   9. http://toxnet.nlm.nih.gov/cgi-bin/sis/search/r?dbs+hsdb:@term+@rn+@rel+88-85-7
  10. http://toxnet.nlm.nih.gov/cgi-bin/sis/search/r?dbs+hsdb:@term+@rn+@rel+88-85-7
  11. http://toxnet.nlm.nih.gov/cgi-bin/sis/search/r?dbs+hsdb:@term+@rn+@rel+88-85-7
  12. http://pubchem.ncbi.nlm.nih.gov/vw3d/vw3d.cgi?cid=6950
