   Color/Form
        Yellow-orange powder
   from [1]HSDB

   Melting Point
        approx 143 deg C
   from [2]HSDB

   Solubilities

     * Freely soluble in 95% ethanol; slightly soluble in chloroform; very
       slightly soluble in acetone; practically insoluble or insoluble in
       benzene and ether.
     * Very soluble in water.

   from [3]HSDB

   Spectral Properties
        Lamba max 232-234, 257, 327-331 and 427-435 nm in methanol
   from [4]HSDB

   Other Chemical/Physical Properties

     * Crystals; MP 100.6-102.8 deg C; MW 356.49 g/mol. Absorption max
       (ethanol): 233, 258, 329, 438 nm (E 19400, 37000, 9700, 6600).
       Extremely sensitive to acid. /Hycanthone/
     * MP: 173-176 deg C (decomposes) /Hydrochloride/
     * Slightly soluble in water. /Hycanthone/

   from [5]HSDB

   Computed Properties
   Molecular Weight                  452.58742 [g/mol]
   Molecular Formula                 C[21]H[28]N[2]O[5]S[2]
   H-Bond Donor                      3
   H-Bond Acceptor                   8
   Rotatable Bond Count              7
   Tautomer Count                    5
   Exact Mass                        452.143964
   MonoIsotopic Mass                 452.143964
   Topological Polar Surface Area    141
   Heavy Atom Count                  30
   Formal Charge                     0
   Complexity                        536
   Isotope Atom Count                0
   Defined Atom Stereocenter Count   0
   Undefined Atom Stereocenter Count 0
   Defined Bond Stereocenter Count   0
   Undefined Bond Stereocenter Count 0
   Covalently-Bonded Unit Count      2

References

   1. http://toxnet.nlm.nih.gov/cgi-bin/sis/search/r?dbs+hsdb:@term+@rn+@rel+23255-93-8
   2. http://toxnet.nlm.nih.gov/cgi-bin/sis/search/r?dbs+hsdb:@term+@rn+@rel+23255-93-8
   3. http://toxnet.nlm.nih.gov/cgi-bin/sis/search/r?dbs+hsdb:@term+@rn+@rel+23255-93-8
   4. http://toxnet.nlm.nih.gov/cgi-bin/sis/search/r?dbs+hsdb:@term+@rn+@rel+23255-93-8
   5. http://toxnet.nlm.nih.gov/cgi-bin/sis/search/r?dbs+hsdb:@term+@rn+@rel+23255-93-8
