23724518
  -OEChem-07051213032D

 58 60  0     1  0  0  0  0  0999 V2000
    6.8671   -0.6783    0.0000 P   0  0  3  0  0  0  0  0  0  0  0  0
    6.0010   -2.1783    0.0000 P   0  0  3  0  0  0  0  0  0  0  0  0
    8.7036    2.3162    0.0000 O   0  0  0  0  0  0  0  0  0  0  0  0
    9.7206   -0.0632    0.0000 O   0  0  0  0  0  0  0  0  0  0  0  0
   11.1763    1.5536    0.0000 O   0  0  0  0  0  0  0  0  0  0  0  0
    7.7331   -0.1783    0.0000 O   0  0  0  0  0  0  0  0  0  0  0  0
    4.2690   -3.1783    0.0000 O   0  0  0  0  0  0  0  0  0  0  0  0
    6.0010   -3.1783    0.0000 O   0  0  0  0  0  0  0  0  0  0  0  0
    6.0010   -1.1783    0.0000 O   0  0  0  0  0  0  0  0  0  0  0  0
    2.5369   -5.1783    0.0000 O   0  0  0  0  0  0  0  0  0  0  0  0
    6.0010   -5.1783    0.0000 O   0  0  0  0  0  0  0  0  0  0  0  0
   11.6708    2.7332    0.0000 O   0  0  0  0  0  0  0  0  0  0  0  0
    4.2690   -6.1783    0.0000 O   0  0  0  0  0  0  0  0  0  0  0  0
    2.5369   -2.1783    0.0000 O   0  0  0  0  0  0  0  0  0  0  0  0
    6.3671    0.1877    0.0000 O   0  0  0  0  0  0  0  0  0  0  0  0
    7.3671   -1.5443    0.0000 O   0  0  0  0  0  0  0  0  0  0  0  0
    7.0010   -2.1783    0.0000 O   0  0  0  0  0  0  0  0  0  0  0  0
    5.0010   -2.1783    0.0000 O   0  0  0  0  0  0  0  0  0  0  0  0
   11.3087    6.1783    0.0000 O   0  0  0  0  0  0  0  0  0  0  0  0
   10.0885    3.4377    0.0000 N   0  0  0  0  0  0  0  0  0  0  0  0
   11.4898    4.4558    0.0000 N   0  0  0  0  0  0  0  0  0  0  0  0
    9.5127    0.9150    0.0000 C   0  0  1  0  0  0  0  0  0  0  0  0
   10.1818    1.6581    0.0000 C   0  0  2  0  0  0  0  0  0  0  0  0
    8.5991    1.3217    0.0000 C   0  0  1  0  0  0  0  0  0  0  0  0
    9.6818    2.5241    0.0000 C   0  0  1  0  0  0  0  0  0  0  0  0
    7.7331    0.8217    0.0000 C   0  0  0  0  0  0  0  0  0  0  0  0
    3.4030   -3.6783    0.0000 C   0  0  1  0  0  0  0  0  0  0  0  0
    3.4030   -4.6783    0.0000 C   0  0  2  0  0  0  0  0  0  0  0  0
    5.1350   -3.6783    0.0000 C   0  0  2  0  0  0  0  0  0  0  0  0
    5.1350   -4.6783    0.0000 C   0  0  1  0  0  0  0  0  0  0  0  0
   11.0830    3.5422    0.0000 C   0  0  0  0  0  0  0  0  0  0  0  0
    9.5007    4.2467    0.0000 C   0  0  0  0  0  0  0  0  0  0  0  0
    4.2690   -5.1783    0.0000 C   0  0  0  0  0  0  0  0  0  0  0  0
    2.5369   -3.1783    0.0000 C   0  0  0  0  0  0  0  0  0  0  0  0
    9.9075    5.1602    0.0000 C   0  0  0  0  0  0  0  0  0  0  0  0
   10.9020    5.2648    0.0000 C   0  0  0  0  0  0  0  0  0  0  0  0
   10.1115    0.7545    0.0000 H   0  0  0  0  0  0  0  0  0  0  0  0
   10.5195    2.1781    0.0000 H   0  0  0  0  0  0  0  0  0  0  0  0
    8.0791    1.6594    0.0000 H   0  0  0  0  0  0  0  0  0  0  0  0
    9.2916    3.0060    0.0000 H   0  0  0  0  0  0  0  0  0  0  0  0
    7.5210    1.4043    0.0000 H   0  0  0  0  0  0  0  0  0  0  0  0
    7.1225    0.7140    0.0000 H   0  0  0  0  0  0  0  0  0  0  0  0
   10.3102   -0.2548    0.0000 H   0  0  0  0  0  0  0  0  0  0  0  0
   11.4285    0.9872    0.0000 H   0  0  0  0  0  0  0  0  0  0  0  0
    3.4030   -3.0583    0.0000 H   0  0  0  0  0  0  0  0  0  0  0  0
    3.4030   -5.2983    0.0000 H   0  0  0  0  0  0  0  0  0  0  0  0
    5.1350   -3.0583    0.0000 H   0  0  0  0  0  0  0  0  0  0  0  0
    5.1350   -5.2983    0.0000 H   0  0  0  0  0  0  0  0  0  0  0  0
    8.8841    4.1819    0.0000 H   0  0  0  0  0  0  0  0  0  0  0  0
    1.9264   -3.0706    0.0000 H   0  0  0  0  0  0  0  0  0  0  0  0
    2.3249   -3.7609    0.0000 H   0  0  0  0  0  0  0  0  0  0  0  0
   12.1064    4.5206    0.0000 H   0  0  0  0  0  0  0  0  0  0  0  0
    9.5430    5.6618    0.0000 H   0  0  0  0  0  0  0  0  0  0  0  0
    2.5369   -5.7983    0.0000 H   0  0  0  0  0  0  0  0  0  0  0  0
    6.0010   -5.7983    0.0000 H   0  0  0  0  0  0  0  0  0  0  0  0
    2.0000   -1.8683    0.0000 H   0  0  0  0  0  0  0  0  0  0  0  0
    5.7471    0.1877    0.0000 H   0  0  0  0  0  0  0  0  0  0  0  0
    7.3110   -2.7152    0.0000 H   0  0  0  0  0  0  0  0  0  0  0  0
  1  6  1  0  0  0  0
  1  9  1  0  0  0  0
  1 15  1  0  0  0  0
  1 16  2  0  0  0  0
  2  8  1  0  0  0  0
  2  9  1  0  0  0  0
  2 17  1  0  0  0  0
  2 18  2  0  0  0  0
  3 24  1  0  0  0  0
  3 25  1  0  0  0  0
 22  4  1  6  0  0  0
  4 43  1  0  0  0  0
 23  5  1  6  0  0  0
  5 44  1  0  0  0  0
  6 26  1  0  0  0  0
  7 27  1  0  0  0  0
  7 29  1  0  0  0  0
 29  8  1  6  0  0  0
 28 10  1  6  0  0  0
 10 54  1  0  0  0  0
 30 11  1  6  0  0  0
 11 55  1  0  0  0  0
 12 31  2  0  0  0  0
 13 33  2  0  0  0  0
 14 34  1  0  0  0  0
 14 56  1  0  0  0  0
 15 57  1  0  0  0  0
 17 58  1  0  0  0  0
 19 36  2  0  0  0  0
 25 20  1  1  0  0  0
 20 31  1  0  0  0  0
 20 32  1  0  0  0  0
 21 31  1  0  0  0  0
 21 36  1  0  0  0  0
 21 52  1  0  0  0  0
 22 23  1  0  0  0  0
 22 24  1  0  0  0  0
 22 37  1  0  0  0  0
 23 25  1  0  0  0  0
 23 38  1  0  0  0  0
 24 26  1  1  0  0  0
 24 39  1  0  0  0  0
 25 40  1  0  0  0  0
 26 41  1  0  0  0  0
 26 42  1  0  0  0  0
 27 28  1  0  0  0  0
 27 34  1  1  0  0  0
 27 45  1  0  0  0  0
 28 33  1  0  0  0  0
 28 46  1  0  0  0  0
 29 30  1  0  0  0  0
 29 47  1  0  0  0  0
 30 33  1  0  0  0  0
 30 48  1  0  0  0  0
 32 35  2  0  0  0  0
 32 49  1  0  0  0  0
 34 50  1  0  0  0  0
 34 51  1  0  0  0  0
 35 36  1  0  0  0  0
 35 53  1  0  0  0  0
M  END
> <PUBCHEM_COMPOUND_CID>
23724518

> <PUBCHEM_COMPOUND_CANONICALIZED>
1

> <PUBCHEM_CACTVS_COMPLEXITY>
1010

> <PUBCHEM_CACTVS_HBOND_ACCEPTOR>
17

> <PUBCHEM_CACTVS_HBOND_DONOR>
8

> <PUBCHEM_CACTVS_ROTATABLE_BOND>
9

> <PUBCHEM_CACTVS_SUBSKEYS>
AAADceBzPgMAAAAAAAAAAAAAAAAAASAAAAAkQAAAAAAAAAAAAAAAHgAQCCAACBTxgAcBCAPABxCIQKFWUIKAAAAAAgAIAAFIAECTEBYAgAAOQAAPNyIXAMHycAYAAAAAAAAAAAAAAAAAAAAAAAAAAAAAAA==

> <PUBCHEM_IUPAC_OPENEYE_NAME>
[(2R,3S,5R,6R)-3,5-dihydroxy-6-(hydroxymethyl)-4-oxo-tetrahydropyran-2-yl] [[(2R,3S,4R,5R)-5-(2,4-dioxopyrimidin-1-yl)-3,4-dihydroxy-tetrahydrofuran-2-yl]methoxy-hydroxy-phosphoryl] hydrogen phosphate

> <PUBCHEM_IUPAC_CAS_NAME>
[(2R,3S,5R,6R)-3,5-dihydroxy-6-(hydroxymethyl)-4-oxo-2-oxanyl] [[(2R,3S,4R,5R)-5-(2,4-dioxo-1-pyrimidinyl)-3,4-dihydroxy-2-oxolanyl]methoxy-hydroxyphosphoryl] hydrogen phosphate

> <PUBCHEM_IUPAC_NAME>
[(2R,3S,5R,6R)-3,5-dihydroxy-6-(hydroxymethyl)-4-oxooxan-2-yl] [[(2R,3S,4R,5R)-5-(2,4-dioxopyrimidin-1-yl)-3,4-dihydroxyoxolan-2-yl]methoxy-hydroxyphosphoryl] hydrogen phosphate

> <PUBCHEM_IUPAC_SYSTEMATIC_NAME>
[[(2R,3S,4R,5R)-5-[2,4-bis(oxidanylidene)pyrimidin-1-yl]-3,4-bis(oxidanyl)oxolan-2-yl]methoxy-oxidanyl-phosphoryl] [(2R,3S,5R,6R)-6-(hydroxymethyl)-3,5-bis(oxidanyl)-4-oxidanylidene-oxan-2-yl] hydrogen phosphate

> <PUBCHEM_IUPAC_TRADITIONAL_NAME>
[(2R,3S,5R,6R)-3,5-dihydroxy-4-keto-6-methylol-tetrahydropyran-2-yl] [[(2R,3S,4R,5R)-5-(2,4-diketopyrimidin-1-yl)-3,4-dihydroxy-tetrahydrofuran-2-yl]methoxy-hydroxy-phosphoryl] hydrogen phosphate

> <PUBCHEM_IUPAC_INCHI>
InChI=1S/C15H22N2O17P2/c18-3-5-8(20)10(22)12(24)14(32-5)33-36(28,29)34-35(26,27)30-4-6-9(21)11(23)13(31-6)17-2-1-7(19)16-15(17)25/h1-2,5-6,8-9,11-14,18,20-21,23-24H,3-4H2,(H,26,27)(H,28,29)(H,16,19,25)/t5-,6-,8-,9-,11-,12-,13-,14-/m1/s1

> <PUBCHEM_IUPAC_INCHIKEY>
VRDZHCNPFRUVRQ-SZNRHJFNSA-N

> <PUBCHEM_XLOGP3_AA>
-6.2

> <PUBCHEM_EXACT_MASS>
564.039371

> <PUBCHEM_MOLECULAR_FORMULA>
C15H22N2O17P2

> <PUBCHEM_MOLECULAR_WEIGHT>
564.285904

> <PUBCHEM_OPENEYE_CAN_SMILES>
C1=CN(C(=O)NC1=O)C2C(C(C(O2)COP(=O)(O)OP(=O)(O)OC3C(C(=O)C(C(O3)CO)O)O)O)O

> <PUBCHEM_OPENEYE_ISO_SMILES>
C1=CN(C(=O)NC1=O)[C@H]2[C@@H]([C@@H]([C@H](O2)COP(=O)(O)OP(=O)(O)O[C@@H]3[C@@H](C(=O)[C@@H]([C@H](O3)CO)O)O)O)O

> <PUBCHEM_CACTVS_TPSA>
288

> <PUBCHEM_MONOISOTOPIC_WEIGHT>
564.039371

> <PUBCHEM_TOTAL_CHARGE>
0

> <PUBCHEM_HEAVY_ATOM_COUNT>
36

> <PUBCHEM_ATOM_DEF_STEREO_COUNT>
8

> <PUBCHEM_ATOM_UDEF_STEREO_COUNT>
0

> <PUBCHEM_BOND_DEF_STEREO_COUNT>
0

> <PUBCHEM_BOND_UDEF_STEREO_COUNT>
0

> <PUBCHEM_ISOTOPIC_ATOM_COUNT>
0

> <PUBCHEM_COMPONENT_COUNT>
1

> <PUBCHEM_CACTVS_TAUTO_COUNT>
21

> <PUBCHEM_COORDINATE_TYPE>
1
5
255

> <PUBCHEM_BONDANNOTATIONS>
28  10  6
30  11  6
25  20  5
20  31  8
20  32  8
21  31  8
21  36  8
24  26  5
27  34  5
32  35  8
35  36  8
22  4  6
23  5  6
29  8  6

$$$$

