442335
  -OEChem-07051212572D

 44 45  0     1  0  0  0  0  0999 V2000
    8.1408   -1.2109    0.0000 O   0  0  0  0  0  0  0  0  0  0  0  0
    3.4957    0.4367    0.0000 O   0  0  0  0  0  0  0  0  0  0  0  0
    9.7204   -0.3982    0.0000 O   0  0  0  0  0  0  0  0  0  0  0  0
    2.0000   -0.4367    0.0000 O   0  0  0  0  0  0  0  0  0  0  0  0
    4.9913    1.3102    0.0000 O   0  0  0  0  0  0  0  0  0  0  0  0
    7.1931   -0.9109    0.0000 C   0  0  1  0  0  0  0  0  0  0  0  0
    7.1881    0.0891    0.0000 C   0  0  2  0  0  0  0  0  0  0  0  0
    6.4144   -1.5382    0.0000 C   0  0  0  0  0  0  0  0  0  0  0  0
    5.4383   -1.3206    0.0000 C   0  0  1  0  0  0  0  0  0  0  0  0
    6.4032    0.7087    0.0000 C   0  0  0  0  0  0  0  0  0  0  0  0
    5.0000   -0.4218    0.0000 C   0  0  0  0  0  0  0  0  0  0  0  0
    8.1328    0.3986    0.0000 C   0  0  0  0  0  0  0  0  0  0  0  0
    5.4294    0.4813    0.0000 C   0  0  0  0  0  0  0  0  0  0  0  0
    4.0000   -0.4268    0.0000 C   0  0  1  0  0  0  0  0  0  0  0  0
    4.8188   -2.1055    0.0000 C   0  0  0  0  0  0  0  0  0  0  0  0
    8.7204   -0.4032    0.0000 C   0  0  0  0  0  0  0  0  0  0  0  0
    3.5043   -1.2953    0.0000 C   0  0  0  0  0  0  0  0  0  0  0  0
    8.4387    1.3506    0.0000 C   0  0  0  0  0  0  0  0  0  0  0  0
    2.5043   -1.3003    0.0000 C   0  0  0  0  0  0  0  0  0  0  0  0
    3.9913    1.3053    0.0000 C   0  0  0  0  0  0  0  0  0  0  0  0
    2.0086   -2.1688    0.0000 C   0  0  0  0  0  0  0  0  0  0  0  0
    3.4870    2.1688    0.0000 C   0  0  0  0  0  0  0  0  0  0  0  0
    7.3501   -1.7462    0.0000 H   0  0  0  0  0  0  0  0  0  0  0  0
    7.3368    0.9260    0.0000 H   0  0  0  0  0  0  0  0  0  0  0  0
    6.1481   -2.0982    0.0000 H   0  0  0  0  0  0  0  0  0  0  0  0
    6.9010   -1.9224    0.0000 H   0  0  0  0  0  0  0  0  0  0  0  0
    5.6460   -1.9048    0.0000 H   0  0  0  0  0  0  0  0  0  0  0  0
    6.8860    1.0977    0.0000 H   0  0  0  0  0  0  0  0  0  0  0  0
    6.1314    1.2660    0.0000 H   0  0  0  0  0  0  0  0  0  0  0  0
    5.0404    0.9641    0.0000 H   0  0  0  0  0  0  0  0  0  0  0  0
    4.3073    0.1117    0.0000 H   0  0  0  0  0  0  0  0  0  0  0  0
    4.3321   -1.7214    0.0000 H   0  0  0  0  0  0  0  0  0  0  0  0
    4.4346   -2.5922    0.0000 H   0  0  0  0  0  0  0  0  0  0  0  0
    5.3054   -2.4896    0.0000 H   0  0  0  0  0  0  0  0  0  0  0  0
    3.3997   -1.9064    0.0000 H   0  0  0  0  0  0  0  0  0  0  0  0
    4.0880   -1.5044    0.0000 H   0  0  0  0  0  0  0  0  0  0  0  0
    9.0447    1.4815    0.0000 H   0  0  0  0  0  0  0  0  0  0  0  0
    8.0223    1.8100    0.0000 H   0  0  0  0  0  0  0  0  0  0  0  0
    1.4702   -1.8615    0.0000 H   0  0  0  0  0  0  0  0  0  0  0  0
    1.7013   -2.7072    0.0000 H   0  0  0  0  0  0  0  0  0  0  0  0
    2.5471   -2.4761    0.0000 H   0  0  0  0  0  0  0  0  0  0  0  0
    4.0224    2.4814    0.0000 H   0  0  0  0  0  0  0  0  0  0  0  0
    3.1744    2.7042    0.0000 H   0  0  0  0  0  0  0  0  0  0  0  0
    2.9516    1.8561    0.0000 H   0  0  0  0  0  0  0  0  0  0  0  0
  1  6  1  0  0  0  0
  1 16  1  0  0  0  0
 14  2  1  1  0  0  0
  2 20  1  0  0  0  0
  3 16  2  0  0  0  0
  4 19  2  0  0  0  0
  5 20  2  0  0  0  0
  6  7  1  0  0  0  0
  6  8  1  0  0  0  0
  6 23  1  1  0  0  0
  7 10  1  0  0  0  0
  7 12  1  0  0  0  0
  7 24  1  1  0  0  0
  8  9  1  0  0  0  0
  8 25  1  0  0  0  0
  8 26  1  0  0  0  0
  9 11  1  0  0  0  0
  9 15  1  6  0  0  0
  9 27  1  0  0  0  0
 10 13  1  0  0  0  0
 10 28  1  0  0  0  0
 10 29  1  0  0  0  0
 11 13  2  0  0  0  0
 11 14  1  0  0  0  0
 12 16  1  0  0  0  0
 12 18  2  0  0  0  0
 13 30  1  0  0  0  0
 14 17  1  0  0  0  0
 14 31  1  0  0  0  0
 15 32  1  0  0  0  0
 15 33  1  0  0  0  0
 15 34  1  0  0  0  0
 17 19  1  0  0  0  0
 17 35  1  0  0  0  0
 17 36  1  0  0  0  0
 18 37  1  0  0  0  0
 18 38  1  0  0  0  0
 19 21  1  0  0  0  0
 20 22  1  0  0  0  0
 21 39  1  0  0  0  0
 21 40  1  0  0  0  0
 21 41  1  0  0  0  0
 22 42  1  0  0  0  0
 22 43  1  0  0  0  0
 22 44  1  0  0  0  0
M  END
> <PUBCHEM_COMPOUND_CID>
442335

> <PUBCHEM_COMPOUND_CANONICALIZED>
1

> <PUBCHEM_CACTVS_COMPLEXITY>
545

> <PUBCHEM_CACTVS_HBOND_ACCEPTOR>
5

> <PUBCHEM_CACTVS_HBOND_DONOR>
0

> <PUBCHEM_CACTVS_ROTATABLE_BOND>
5

> <PUBCHEM_CACTVS_SUBSKEYS>
AAADceB4OAAAAAAAAAAAAAAAAAAAASAAAAAAAAAABAAAAACAAAAAGgAAAAAADRSggAICCAAABACIAqDSCAAAAAAgAAAACAEAAEgABBYAIQACEAAE4AAIIIOK6OyOAAAAAAAAAAAAAAAAAAAAAAAAAAAAAA==

> <PUBCHEM_IUPAC_OPENEYE_NAME>
[(1R)-1-[(3aR,7S,8aR)-7-methyl-3-methylene-2-oxo-4,7,8,8a-tetrahydro-3aH-cyclohepta[b]furan-6-yl]-3-oxo-butyl] acetate

> <PUBCHEM_IUPAC_CAS_NAME>
acetic acid [(1R)-1-[(3aR,7S,8aR)-7-methyl-3-methylene-2-oxo-4,7,8,8a-tetrahydro-3aH-cyclohepta[b]furan-6-yl]-3-oxobutyl] ester

> <PUBCHEM_IUPAC_NAME>
[(1R)-1-[(3aR,7S,8aR)-7-methyl-3-methylidene-2-oxo-4,7,8,8a-tetrahydro-3aH-cyclohepta[b]furan-6-yl]-3-oxobutyl] acetate

> <PUBCHEM_IUPAC_SYSTEMATIC_NAME>
[(1R)-1-[(3aR,7S,8aR)-7-methyl-3-methylidene-2-oxidanylidene-4,7,8,8a-tetrahydro-3aH-cyclohepta[b]furan-6-yl]-3-oxidanylidene-butyl] ethanoate

> <PUBCHEM_IUPAC_TRADITIONAL_NAME>
acetic acid [(1R)-1-[(3aR,7S,8aR)-2-keto-7-methyl-3-methylene-4,7,8,8a-tetrahydro-3aH-cyclohepta[b]furan-6-yl]-3-keto-butyl] ester

> <PUBCHEM_IUPAC_INCHI>
InChI=1S/C17H22O5/c1-9-7-15-14(11(3)17(20)22-15)6-5-13(9)16(8-10(2)18)21-12(4)19/h5,9,14-16H,3,6-8H2,1-2,4H3/t9-,14+,15+,16+/m0/s1

> <PUBCHEM_IUPAC_INCHIKEY>
DPSCQKGSAHTWSP-LDYRWJSCSA-N

> <PUBCHEM_XLOGP3_AA>
1.4

> <PUBCHEM_EXACT_MASS>
306.146724

> <PUBCHEM_MOLECULAR_FORMULA>
C17H22O5

> <PUBCHEM_MOLECULAR_WEIGHT>
306.35358

> <PUBCHEM_OPENEYE_CAN_SMILES>
CC1CC2C(CC=C1C(CC(=O)C)OC(=O)C)C(=C)C(=O)O2

> <PUBCHEM_OPENEYE_ISO_SMILES>
C[C@H]1C[C@@H]2[C@H](CC=C1[C@@H](CC(=O)C)OC(=O)C)C(=C)C(=O)O2

> <PUBCHEM_CACTVS_TPSA>
69.7

> <PUBCHEM_MONOISOTOPIC_WEIGHT>
306.146724

> <PUBCHEM_TOTAL_CHARGE>
0

> <PUBCHEM_HEAVY_ATOM_COUNT>
22

> <PUBCHEM_ATOM_DEF_STEREO_COUNT>
4

> <PUBCHEM_ATOM_UDEF_STEREO_COUNT>
0

> <PUBCHEM_BOND_DEF_STEREO_COUNT>
0

> <PUBCHEM_BOND_UDEF_STEREO_COUNT>
0

> <PUBCHEM_ISOTOPIC_ATOM_COUNT>
0

> <PUBCHEM_COMPONENT_COUNT>
1

> <PUBCHEM_CACTVS_TAUTO_COUNT>
3

> <PUBCHEM_COORDINATE_TYPE>
1
5
255

> <PUBCHEM_BONDANNOTATIONS>
14  2  5
6  23  5
7  24  5
9  15  6

$$$$

