   Color/Form

     * Crystals from dioxane.
     * WHITE TO CREAM-COLORED, FINELY DIVIDED, CRYSTALLINE POWDER

   from [1]HSDB

   Odor
        ODORLESS OR HAS SLIGHT, CHARACTERISTIC FLORAL ODOR
   from [2]HSDB

   Melting Point
        224.5 to 225.5 deg C (also reported as 221 to 223 deg C)
   from [3]HSDB

   Octanol/Water Partition Coefficient
        log Kow = 1.19
   from [4]HSDB

   Solubilities

     * FREELY SOL IN ALC & ACETONE
     * Insoluble in chloroform, benzene, ether.
     * In water, 108.3 mg/l at 25 deg C.

   from [5]HSDB

   Spectral Properties

     * MAX ABSORPTION (0.2 MOLAR BORIC ACID): 319 NM; 272 NM; 328 NM
     * MAX ABSORPTION (PH 9.4 BORATE BUFFER): 273 NM (A= 350, 1%, 1 CM);
       330 NM; MAX ABSORPTION (ETHANOL): 272 NM (A= 435, 1%, 1 CM); 328 NM
     * SADTLER REFERENCE NUMBER: R80 (IR)
     * UV max (methanol): 208, 273, 326 nm (E 745, 565, 96, 1%, 1 cm).

   from [6]HSDB

   Computed Properties
   Molecular Weight                  421.41457 [g/mol]
   Molecular Formula                 C[15]H[14]F[3]N[3]O[4]S[2]
   XLogP3                            1.2
   H-Bond Donor                      3
   H-Bond Acceptor                   10
   Rotatable Bond Count              3
   Exact Mass                        421.037783
   MonoIsotopic Mass                 421.037783
   Topological Polar Surface Area    135
   Heavy Atom Count                  27
   Formal Charge                     0
   Complexity                        740
   Isotope Atom Count                0
   Defined Atom Stereocenter Count   0
   Undefined Atom Stereocenter Count 1
   Defined Bond Stereocenter Count   0
   Undefined Bond Stereocenter Count 0
   Covalently-Bonded Unit Count      1
   Feature 3D Acceptor Count         4
   Feature 3D Donor Count            3
   Feature 3D Cation Count           1
   Feature 3D Ring Count             3
   Effective Rotor Count             4.6
   Conformer Sampling RMSD           0.8
   CID Conformer Count               [7]10

References

   1. http://toxnet.nlm.nih.gov/cgi-bin/sis/search/r?dbs+hsdb:@term+@rn+@rel+73-48-3
   2. http://toxnet.nlm.nih.gov/cgi-bin/sis/search/r?dbs+hsdb:@term+@rn+@rel+73-48-3
   3. http://toxnet.nlm.nih.gov/cgi-bin/sis/search/r?dbs+hsdb:@term+@rn+@rel+73-48-3
   4. http://toxnet.nlm.nih.gov/cgi-bin/sis/search/r?dbs+hsdb:@term+@rn+@rel+73-48-3
   5. http://toxnet.nlm.nih.gov/cgi-bin/sis/search/r?dbs+hsdb:@term+@rn+@rel+73-48-3
   6. http://toxnet.nlm.nih.gov/cgi-bin/sis/search/r?dbs+hsdb:@term+@rn+@rel+73-48-3
   7. http://pubchem.ncbi.nlm.nih.gov/vw3d/vw3d.cgi?cid=2315
