47205011
  -OEChem-06241222572D

 35 36  0     0  0  0  0  0  0999 V2000
    4.5981   -0.7694    0.0000 O   0  0  0  0  0  0  0  0  0  0  0  0
    3.7320    0.7306    0.0000 N   0  0  0  0  0  0  0  0  0  0  0  0
    3.7891    2.8184    0.0000 N   0  0  0  0  0  0  0  0  0  0  0  0
    4.0981    3.7694    0.0000 N   0  0  0  0  0  0  0  0  0  0  0  0
    2.8660   -1.7694    0.0000 C   0  0  0  0  0  0  0  0  0  0  0  0
    2.0000   -2.2694    0.0000 C   0  0  0  0  0  0  0  0  0  0  0  0
    3.7320   -2.2694    0.0000 C   0  0  0  0  0  0  0  0  0  0  0  0
    2.0000   -3.2694    0.0000 C   0  0  0  0  0  0  0  0  0  0  0  0
    3.7320   -3.2694    0.0000 C   0  0  0  0  0  0  0  0  0  0  0  0
    2.8660   -3.7694    0.0000 C   0  0  0  0  0  0  0  0  0  0  0  0
    2.8660   -0.7694    0.0000 C   0  0  0  0  0  0  0  0  0  0  0  0
    3.7320   -0.2694    0.0000 C   0  0  0  0  0  0  0  0  0  0  0  0
    4.5981    1.2306    0.0000 C   0  0  0  0  0  0  0  0  0  0  0  0
    4.5981    2.2306    0.0000 C   0  0  0  0  0  0  0  0  0  0  0  0
    5.4071    2.8184    0.0000 C   0  0  0  0  0  0  0  0  0  0  0  0
    5.0981    3.7694    0.0000 C   0  0  0  0  0  0  0  0  0  0  0  0
    3.4030   -1.4594    0.0000 H   0  0  0  0  0  0  0  0  0  0  0  0
    1.7880   -1.6868    0.0000 H   0  0  0  0  0  0  0  0  0  0  0  0
    1.3894   -2.3771    0.0000 H   0  0  0  0  0  0  0  0  0  0  0  0
    4.3426   -2.3771    0.0000 H   0  0  0  0  0  0  0  0  0  0  0  0
    3.9441   -1.6868    0.0000 H   0  0  0  0  0  0  0  0  0  0  0  0
    1.3894   -3.1618    0.0000 H   0  0  0  0  0  0  0  0  0  0  0  0
    1.7880   -3.8520    0.0000 H   0  0  0  0  0  0  0  0  0  0  0  0
    3.9441   -3.8520    0.0000 H   0  0  0  0  0  0  0  0  0  0  0  0
    4.3426   -3.1618    0.0000 H   0  0  0  0  0  0  0  0  0  0  0  0
    2.4675   -4.2444    0.0000 H   0  0  0  0  0  0  0  0  0  0  0  0
    3.2646   -4.2444    0.0000 H   0  0  0  0  0  0  0  0  0  0  0  0
    2.6540   -0.1868    0.0000 H   0  0  0  0  0  0  0  0  0  0  0  0
    2.2554   -0.8771    0.0000 H   0  0  0  0  0  0  0  0  0  0  0  0
    3.1951    1.0406    0.0000 H   0  0  0  0  0  0  0  0  0  0  0  0
    4.8101    0.6480    0.0000 H   0  0  0  0  0  0  0  0  0  0  0  0
    5.2087    1.3382    0.0000 H   0  0  0  0  0  0  0  0  0  0  0  0
    5.9967    2.6268    0.0000 H   0  0  0  0  0  0  0  0  0  0  0  0
    3.1994    2.6268    0.0000 H   0  0  0  0  0  0  0  0  0  0  0  0
    5.4625    4.2710    0.0000 H   0  0  0  0  0  0  0  0  0  0  0  0
  1 12  2  0  0  0  0
  2 12  1  0  0  0  0
  2 13  1  0  0  0  0
  2 30  1  0  0  0  0
  3  4  1  0  0  0  0
  3 14  1  0  0  0  0
  3 34  1  0  0  0  0
  4 16  2  0  0  0  0
  5  6  1  0  0  0  0
  5  7  1  0  0  0  0
  5 11  1  0  0  0  0
  5 17  1  0  0  0  0
  6  8  1  0  0  0  0
  6 18  1  0  0  0  0
  6 19  1  0  0  0  0
  7  9  1  0  0  0  0
  7 20  1  0  0  0  0
  7 21  1  0  0  0  0
  8 10  1  0  0  0  0
  8 22  1  0  0  0  0
  8 23  1  0  0  0  0
  9 10  1  0  0  0  0
  9 24  1  0  0  0  0
  9 25  1  0  0  0  0
 10 26  1  0  0  0  0
 10 27  1  0  0  0  0
 11 12  1  0  0  0  0
 11 28  1  0  0  0  0
 11 29  1  0  0  0  0
 13 14  1  0  0  0  0
 13 31  1  0  0  0  0
 13 32  1  0  0  0  0
 14 15  2  0  0  0  0
 15 16  1  0  0  0  0
 15 33  1  0  0  0  0
 16 35  1  0  0  0  0
M  END
> <PUBCHEM_COMPOUND_CID>
47205011

> <PUBCHEM_COMPOUND_CANONICALIZED>
1

> <PUBCHEM_CACTVS_COMPLEXITY>
226

> <PUBCHEM_CACTVS_HBOND_ACCEPTOR>
2

> <PUBCHEM_CACTVS_HBOND_DONOR>
2

> <PUBCHEM_CACTVS_ROTATABLE_BOND>
4

> <PUBCHEM_CACTVS_SUBSKEYS>
AAADceBzIAAAAAAAAAAAAAAAAAAAAWAAAAAwAAAAAAAAAAABgAAAHgAYAAAADQjBlgQ8gJLjAACqATV3UACQBAAgggAYOaE4ZBgAYJIAwcEUhAhAHgCAQAEYiICOAAAAAAAAAAAAAAAAAAAAAAAAAAAAAA==

> <PUBCHEM_IUPAC_OPENEYE_NAME>
2-cyclohexyl-N-(1H-pyrazol-5-ylmethyl)acetamide

> <PUBCHEM_IUPAC_CAS_NAME>
2-cyclohexyl-N-(1H-pyrazol-5-ylmethyl)acetamide

> <PUBCHEM_IUPAC_NAME>
2-cyclohexyl-N-(1H-pyrazol-5-ylmethyl)acetamide

> <PUBCHEM_IUPAC_SYSTEMATIC_NAME>
2-cyclohexyl-N-(1H-pyrazol-5-ylmethyl)ethanamide

> <PUBCHEM_IUPAC_TRADITIONAL_NAME>
2-cyclohexyl-N-(1H-pyrazol-5-ylmethyl)acetamide

> <PUBCHEM_IUPAC_INCHI>
InChI=1S/C12H19N3O/c16-12(8-10-4-2-1-3-5-10)13-9-11-6-7-14-15-11/h6-7,10H,1-5,8-9H2,(H,13,16)(H,14,15)

> <PUBCHEM_IUPAC_INCHIKEY>
VHMAXSGKMBHDBN-UHFFFAOYSA-N

> <PUBCHEM_XLOGP3_AA>
2

> <PUBCHEM_EXACT_MASS>
221.152812

> <PUBCHEM_MOLECULAR_FORMULA>
C12H19N3O

> <PUBCHEM_MOLECULAR_WEIGHT>
221.29876

> <PUBCHEM_OPENEYE_CAN_SMILES>
C1CCC(CC1)CC(=O)NCC2=CC=NN2

> <PUBCHEM_OPENEYE_ISO_SMILES>
C1CCC(CC1)CC(=O)NCC2=CC=NN2

> <PUBCHEM_CACTVS_TPSA>
57.8

> <PUBCHEM_MONOISOTOPIC_WEIGHT>
221.152812

> <PUBCHEM_TOTAL_CHARGE>
0

> <PUBCHEM_HEAVY_ATOM_COUNT>
16

> <PUBCHEM_ATOM_DEF_STEREO_COUNT>
0

> <PUBCHEM_ATOM_UDEF_STEREO_COUNT>
0

> <PUBCHEM_BOND_DEF_STEREO_COUNT>
0

> <PUBCHEM_BOND_UDEF_STEREO_COUNT>
0

> <PUBCHEM_ISOTOPIC_ATOM_COUNT>
0

> <PUBCHEM_COMPONENT_COUNT>
1

> <PUBCHEM_CACTVS_TAUTO_COUNT>
4

> <PUBCHEM_COORDINATE_TYPE>
1
5
255

> <PUBCHEM_BONDANNOTATIONS>
14  15  8
15  16  8
3  14  8
3  4  8
4  16  8

$$$$

