47205455
  -OEChem-06241222582D

 40 41  0     0  0  0  0  0  0999 V2000
    2.8660   -3.7409    0.0000 S   0  0  0  0  0  0  0  0  0  0  0  0
    2.3660   -4.6069    0.0000 O   0  0  0  0  0  0  0  0  0  0  0  0
    3.3660   -4.6069    0.0000 O   0  0  0  0  0  0  0  0  0  0  0  0
    4.5981   -0.7409    0.0000 O   0  0  0  0  0  0  0  0  0  0  0  0
    3.7891    2.8469    0.0000 O   0  0  0  0  0  0  0  0  0  0  0  0
    2.8660   -1.7409    0.0000 N   0  0  0  0  0  0  0  0  0  0  0  0
    3.7320    0.7591    0.0000 N   0  0  0  0  0  0  0  0  0  0  0  0
    2.0000   -2.2409    0.0000 C   0  0  0  0  0  0  0  0  0  0  0  0
    3.7320   -2.2409    0.0000 C   0  0  0  0  0  0  0  0  0  0  0  0
    2.0000   -3.2409    0.0000 C   0  0  0  0  0  0  0  0  0  0  0  0
    3.7320   -3.2409    0.0000 C   0  0  0  0  0  0  0  0  0  0  0  0
    2.8660   -0.7409    0.0000 C   0  0  0  0  0  0  0  0  0  0  0  0
    3.7320   -0.2409    0.0000 C   0  0  0  0  0  0  0  0  0  0  0  0
    4.5981    1.2591    0.0000 C   0  0  0  0  0  0  0  0  0  0  0  0
    2.8660    1.2591    0.0000 C   0  0  0  0  0  0  0  0  0  0  0  0
    4.5981    2.2591    0.0000 C   0  0  0  0  0  0  0  0  0  0  0  0
    5.4071    2.8469    0.0000 C   0  0  0  0  0  0  0  0  0  0  0  0
    4.0981    3.7979    0.0000 C   0  0  0  0  0  0  0  0  0  0  0  0
    5.0981    3.7979    0.0000 C   0  0  0  0  0  0  0  0  0  0  0  0
    3.5103    4.6069    0.0000 C   0  0  0  0  0  0  0  0  0  0  0  0
    1.7880   -1.6583    0.0000 H   0  0  0  0  0  0  0  0  0  0  0  0
    4.3426   -2.3486    0.0000 H   0  0  0  0  0  0  0  0  0  0  0  0
    3.9441   -1.6583    0.0000 H   0  0  0  0  0  0  0  0  0  0  0  0
    1.3894   -2.3486    0.0000 H   0  0  0  0  0  0  0  0  0  0  0  0
    1.3894   -3.1332    0.0000 H   0  0  0  0  0  0  0  0  0  0  0  0
    1.7880   -3.8235    0.0000 H   0  0  0  0  0  0  0  0  0  0  0  0
    3.9441   -3.8235    0.0000 H   0  0  0  0  0  0  0  0  0  0  0  0
    4.3426   -3.1332    0.0000 H   0  0  0  0  0  0  0  0  0  0  0  0
    2.6540   -0.1583    0.0000 H   0  0  0  0  0  0  0  0  0  0  0  0
    2.2554   -0.8486    0.0000 H   0  0  0  0  0  0  0  0  0  0  0  0
    4.8101    0.6765    0.0000 H   0  0  0  0  0  0  0  0  0  0  0  0
    5.2087    1.3668    0.0000 H   0  0  0  0  0  0  0  0  0  0  0  0
    3.1760    1.7960    0.0000 H   0  0  0  0  0  0  0  0  0  0  0  0
    2.3291    1.5691    0.0000 H   0  0  0  0  0  0  0  0  0  0  0  0
    2.5560    0.7221    0.0000 H   0  0  0  0  0  0  0  0  0  0  0  0
    5.9967    2.6553    0.0000 H   0  0  0  0  0  0  0  0  0  0  0  0
    5.4625    4.2995    0.0000 H   0  0  0  0  0  0  0  0  0  0  0  0
    4.0119    4.9714    0.0000 H   0  0  0  0  0  0  0  0  0  0  0  0
    3.1459    5.1085    0.0000 H   0  0  0  0  0  0  0  0  0  0  0  0
    3.0087    4.2425    0.0000 H   0  0  0  0  0  0  0  0  0  0  0  0
  1  2  2  0  0  0  0
  1  3  2  0  0  0  0
  1 10  1  0  0  0  0
  1 11  1  0  0  0  0
  4 13  2  0  0  0  0
  5 16  1  0  0  0  0
  5 18  1  0  0  0  0
  6  8  1  0  0  0  0
  6  9  1  0  0  0  0
  6 12  1  0  0  0  0
  7 13  1  0  0  0  0
  7 14  1  0  0  0  0
  7 15  1  0  0  0  0
  8 10  1  0  0  0  0
  8 21  1  0  0  0  0
  8 24  1  0  0  0  0
  9 11  1  0  0  0  0
  9 22  1  0  0  0  0
  9 23  1  0  0  0  0
 10 25  1  0  0  0  0
 10 26  1  0  0  0  0
 11 27  1  0  0  0  0
 11 28  1  0  0  0  0
 12 13  1  0  0  0  0
 12 29  1  0  0  0  0
 12 30  1  0  0  0  0
 14 16  1  0  0  0  0
 14 31  1  0  0  0  0
 14 32  1  0  0  0  0
 15 33  1  0  0  0  0
 15 34  1  0  0  0  0
 15 35  1  0  0  0  0
 16 17  2  0  0  0  0
 17 19  1  0  0  0  0
 17 36  1  0  0  0  0
 18 19  2  0  0  0  0
 18 20  1  0  0  0  0
 19 37  1  0  0  0  0
 20 38  1  0  0  0  0
 20 39  1  0  0  0  0
 20 40  1  0  0  0  0
M  END
> <PUBCHEM_COMPOUND_CID>
47205455

> <PUBCHEM_COMPOUND_CANONICALIZED>
1

> <PUBCHEM_CACTVS_COMPLEXITY>
432

> <PUBCHEM_CACTVS_HBOND_ACCEPTOR>
5

> <PUBCHEM_CACTVS_HBOND_DONOR>
0

> <PUBCHEM_CACTVS_ROTATABLE_BOND>
4

> <PUBCHEM_CACTVS_SUBSKEYS>
AAADceBzOABAAAAAAAAAAAAAAAAAASAAAAAsAAAAAAAAAAABgAAAHgQAAAAACATF0ASyBIMABEqIAKFSEHDCCAAkIBAIiAGODMgOZjKEtTuXGSjkxhG4qYeYEQIAAAAAAAAAAAAAAAAAAAAAAAAAAAAAAA==

> <PUBCHEM_IUPAC_OPENEYE_NAME>
2-(1,1-dioxo-1,4-thiazinan-4-yl)-N-methyl-N-[(5-methyl-2-furyl)methyl]acetamide

> <PUBCHEM_IUPAC_CAS_NAME>
2-(1,1-dioxo-1,4-thiazinan-4-yl)-N-methyl-N-[(5-methyl-2-furanyl)methyl]acetamide

> <PUBCHEM_IUPAC_NAME>
2-(1,1-dioxo-1,4-thiazinan-4-yl)-N-methyl-N-[(5-methylfuran-2-yl)methyl]acetamide

> <PUBCHEM_IUPAC_SYSTEMATIC_NAME>
2-[1,1-bis(oxidanylidene)-1,4-thiazinan-4-yl]-N-methyl-N-[(5-methylfuran-2-yl)methyl]ethanamide

> <PUBCHEM_IUPAC_TRADITIONAL_NAME>
2-(1,1-diketo-1,4-thiazinan-4-yl)-N-methyl-N-[(5-methyl-2-furyl)methyl]acetamide

> <PUBCHEM_IUPAC_INCHI>
InChI=1S/C13H20N2O4S/c1-11-3-4-12(19-11)9-14(2)13(16)10-15-5-7-20(17,18)8-6-15/h3-4H,5-10H2,1-2H3

> <PUBCHEM_IUPAC_INCHIKEY>
IRKYHMDERYDUKN-UHFFFAOYSA-N

> <PUBCHEM_XLOGP3_AA>
-0.1

> <PUBCHEM_EXACT_MASS>
300.114378

> <PUBCHEM_MOLECULAR_FORMULA>
C13H20N2O4S

> <PUBCHEM_MOLECULAR_WEIGHT>
300.3739

> <PUBCHEM_OPENEYE_CAN_SMILES>
CC1=CC=C(O1)CN(C)C(=O)CN2CCS(=O)(=O)CC2

> <PUBCHEM_OPENEYE_ISO_SMILES>
CC1=CC=C(O1)CN(C)C(=O)CN2CCS(=O)(=O)CC2

> <PUBCHEM_CACTVS_TPSA>
79.2

> <PUBCHEM_MONOISOTOPIC_WEIGHT>
300.114378

> <PUBCHEM_TOTAL_CHARGE>
0

> <PUBCHEM_HEAVY_ATOM_COUNT>
20

> <PUBCHEM_ATOM_DEF_STEREO_COUNT>
0

> <PUBCHEM_ATOM_UDEF_STEREO_COUNT>
0

> <PUBCHEM_BOND_DEF_STEREO_COUNT>
0

> <PUBCHEM_BOND_UDEF_STEREO_COUNT>
0

> <PUBCHEM_ISOTOPIC_ATOM_COUNT>
0

> <PUBCHEM_COMPONENT_COUNT>
1

> <PUBCHEM_CACTVS_TAUTO_COUNT>
1

> <PUBCHEM_COORDINATE_TYPE>
1
5
255

> <PUBCHEM_BONDANNOTATIONS>
16  17  8
17  19  8
18  19  8
5  16  8
5  18  8

$$$$

