7084
  -OEChem-06261201452D

 35 37  0     0  0  0  0  0  0999 V2000
    6.3981    0.5053    0.0000 S   0  0  0  0  0  0  0  0  0  0  0  0
    2.8680    0.5294    0.0000 N   0  3  0  0  0  0  0  0  0  0  0  0
    6.3981   -1.4947    0.0000 N   0  0  0  0  0  0  0  0  0  0  0  0
    9.9282    0.5294    0.0000 N   0  0  0  0  0  0  0  0  0  0  0  0
    5.5320    0.0053    0.0000 C   0  0  0  0  0  0  0  0  0  0  0  0
    7.2641   -0.9947    0.0000 C   0  0  0  0  0  0  0  0  0  0  0  0
    5.5320   -0.9947    0.0000 C   0  0  0  0  0  0  0  0  0  0  0  0
    7.2641    0.0053    0.0000 C   0  0  0  0  0  0  0  0  0  0  0  0
    3.7320    0.0261    0.0000 C   0  0  0  0  0  0  0  0  0  0  0  0
    4.6381    0.5399    0.0000 C   0  0  0  0  0  0  0  0  0  0  0  0
    9.0641   -1.0156    0.0000 C   0  0  0  0  0  0  0  0  0  0  0  0
    8.1580   -1.5294    0.0000 C   0  0  0  0  0  0  0  0  0  0  0  0
    9.0641    0.0261    0.0000 C   0  0  0  0  0  0  0  0  0  0  0  0
    8.1580    0.5399    0.0000 C   0  0  0  0  0  0  0  0  0  0  0  0
    4.6381   -1.5294    0.0000 C   0  0  0  0  0  0  0  0  0  0  0  0
    3.7320   -1.0156    0.0000 C   0  0  0  0  0  0  0  0  0  0  0  0
    9.9282   -1.5189    0.0000 C   0  0  0  0  0  0  0  0  0  0  0  0
    2.0000    0.0328    0.0000 C   0  0  0  0  0  0  0  0  0  0  0  0
    2.8718    1.5294    0.0000 C   0  0  0  0  0  0  0  0  0  0  0  0
    4.6453    1.1599    0.0000 H   0  0  0  0  0  0  0  0  0  0  0  0
    8.1509   -2.1494    0.0000 H   0  0  0  0  0  0  0  0  0  0  0  0
    8.1509    1.1599    0.0000 H   0  0  0  0  0  0  0  0  0  0  0  0
    4.6453   -2.1494    0.0000 H   0  0  0  0  0  0  0  0  0  0  0  0
    3.1963   -1.3276    0.0000 H   0  0  0  0  0  0  0  0  0  0  0  0
    9.6161   -2.0546    0.0000 H   0  0  0  0  0  0  0  0  0  0  0  0
   10.4639   -1.8310    0.0000 H   0  0  0  0  0  0  0  0  0  0  0  0
   10.2403   -0.9832    0.0000 H   0  0  0  0  0  0  0  0  0  0  0  0
    3.4918    1.5270    0.0000 H   0  0  0  0  0  0  0  0  0  0  0  0
    2.8742    2.1494    0.0000 H   0  0  0  0  0  0  0  0  0  0  0  0
    2.2518    1.5318    0.0000 H   0  0  0  0  0  0  0  0  0  0  0  0
    1.6921    0.5709    0.0000 H   0  0  0  0  0  0  0  0  0  0  0  0
    1.4619   -0.2752    0.0000 H   0  0  0  0  0  0  0  0  0  0  0  0
    2.3079   -0.5054    0.0000 H   0  0  0  0  0  0  0  0  0  0  0  0
    9.9258    1.1494    0.0000 H   0  0  0  0  0  0  0  0  0  0  0  0
   10.4663    0.2215    0.0000 H   0  0  0  0  0  0  0  0  0  0  0  0
  1  5  1  0  0  0  0
  1  8  1  0  0  0  0
  2  9  2  0  0  0  0
  2 18  1  0  0  0  0
  2 19  1  0  0  0  0
  3  6  1  0  0  0  0
  3  7  2  0  0  0  0
  4 13  1  0  0  0  0
  4 34  1  0  0  0  0
  4 35  1  0  0  0  0
  5  7  1  0  0  0  0
  5 10  2  0  0  0  0
  6  8  2  0  0  0  0
  6 12  1  0  0  0  0
  7 15  1  0  0  0  0
  8 14  1  0  0  0  0
  9 10  1  0  0  0  0
  9 16  1  0  0  0  0
 10 20  1  0  0  0  0
 11 12  2  0  0  0  0
 11 13  1  0  0  0  0
 11 17  1  0  0  0  0
 12 21  1  0  0  0  0
 13 14  2  0  0  0  0
 14 22  1  0  0  0  0
 15 16  2  0  0  0  0
 15 23  1  0  0  0  0
 16 24  1  0  0  0  0
 17 25  1  0  0  0  0
 17 26  1  0  0  0  0
 17 27  1  0  0  0  0
 18 31  1  0  0  0  0
 18 32  1  0  0  0  0
 18 33  1  0  0  0  0
 19 28  1  0  0  0  0
 19 29  1  0  0  0  0
 19 30  1  0  0  0  0
M  CHG  1   2   1
M  END
> <PUBCHEM_COMPOUND_CID>
7084

> <PUBCHEM_COMPOUND_CANONICALIZED>
1

> <PUBCHEM_CACTVS_COMPLEXITY>
512

> <PUBCHEM_CACTVS_HBOND_ACCEPTOR>
3

> <PUBCHEM_CACTVS_HBOND_DONOR>
1

> <PUBCHEM_CACTVS_ROTATABLE_BOND>
0

> <PUBCHEM_CACTVS_SUBSKEYS>
AAADceBzAABAAAAAAAAAAAAAAAAAAAAAAAAwQIAAAAAAAACBAAAAHAQQAAAADAiBWAQywYNAAAigAyRiRACCAAAgChAIiBwYZJgIICKgkZGAIARgkAAoyAcQgAAOEACAQCACAQAgAQCAQAQCAAAAAAAAAA==

> <PUBCHEM_IUPAC_OPENEYE_NAME>
(7-amino-8-methyl-phenothiazin-3-ylidene)-dimethyl-ammonium

> <PUBCHEM_IUPAC_CAS_NAME>
(7-amino-8-methyl-3-phenothiazinylidene)-dimethylammonium

> <PUBCHEM_IUPAC_NAME>
(7-amino-8-methylphenothiazin-3-ylidene)-dimethylazanium

> <PUBCHEM_IUPAC_SYSTEMATIC_NAME>
(7-azanyl-8-methyl-phenothiazin-3-ylidene)-dimethyl-azanium

> <PUBCHEM_IUPAC_TRADITIONAL_NAME>
(7-amino-8-methyl-phenothiazin-3-ylidene)-dimethyl-ammonium

> <PUBCHEM_IUPAC_INCHI>
InChI=1S/C15H15N3S/c1-9-6-13-15(8-11(9)16)19-14-7-10(18(2)3)4-5-12(14)17-13/h4-8,16H,1-3H3/p+1

> <PUBCHEM_IUPAC_INCHIKEY>
KZEUBCUXBNEMSQ-UHFFFAOYSA-O

> <PUBCHEM_XLOGP3_AA>
1.8

> <PUBCHEM_EXACT_MASS>
270.106494

> <PUBCHEM_MOLECULAR_FORMULA>
C15H16N3S+

> <PUBCHEM_MOLECULAR_WEIGHT>
270.37264

> <PUBCHEM_OPENEYE_CAN_SMILES>
CC1=CC2=C(C=C1N)SC3=CC(=[N+](C)C)C=CC3=N2

> <PUBCHEM_OPENEYE_ISO_SMILES>
CC1=CC2=C(C=C1N)SC3=CC(=[N+](C)C)C=CC3=N2

> <PUBCHEM_CACTVS_TPSA>
66.7

> <PUBCHEM_MONOISOTOPIC_WEIGHT>
270.106494

> <PUBCHEM_TOTAL_CHARGE>
1

> <PUBCHEM_HEAVY_ATOM_COUNT>
19

> <PUBCHEM_ATOM_DEF_STEREO_COUNT>
0

> <PUBCHEM_ATOM_UDEF_STEREO_COUNT>
0

> <PUBCHEM_BOND_DEF_STEREO_COUNT>
0

> <PUBCHEM_BOND_UDEF_STEREO_COUNT>
0

> <PUBCHEM_ISOTOPIC_ATOM_COUNT>
0

> <PUBCHEM_COMPONENT_COUNT>
1

> <PUBCHEM_CACTVS_TAUTO_COUNT>
1

> <PUBCHEM_COORDINATE_TYPE>
1
5
255

> <PUBCHEM_BONDANNOTATIONS>
1  5  8
1  8  8
11  12  8
11  13  8
13  14  8
15  16  8
3  6  8
3  7  8
5  10  8
6  12  8
6  8  8
7  15  8
8  14  8
9  10  8
9  16  8

$$$$

