5462248
  -OEChem-07051212472D

 49 49  0     1  0  0  0  0  0999 V2000
   10.3312   -0.6900    0.0000 O   0  0  0  0  0  0  0  0  0  0  0  0
    7.7331    0.8100    0.0000 O   0  0  0  0  0  0  0  0  0  0  0  0
    7.7331   -1.1900    0.0000 O   0  0  0  0  0  0  0  0  0  0  0  0
   11.1972    0.8100    0.0000 O   0  0  0  0  0  0  0  0  0  0  0  0
   10.3312   -2.6900    0.0000 O   0  0  0  0  0  0  0  0  0  0  0  0
   11.1972    1.8100    0.0000 O   0  0  0  0  0  0  0  0  0  0  0  0
    6.0010    1.8100    0.0000 O   0  0  0  0  0  0  0  0  0  0  0  0
    2.5369    0.8100    0.0000 O   0  0  0  0  0  0  0  0  0  0  0  0
    3.4030   -0.6900    0.0000 O   0  0  0  0  0  0  0  0  0  0  0  0
    9.4651    1.8100    0.0000 N   0  0  0  0  0  0  0  0  0  0  0  0
    5.1350    0.3100    0.0000 N   0  0  0  0  0  0  0  0  0  0  0  0
    8.5991    0.3100    0.0000 C   0  0  2  0  0  0  0  0  0  0  0  0
    9.4651    0.8100    0.0000 C   0  0  2  0  0  0  0  0  0  0  0  0
    8.5991   -0.6900    0.0000 C   0  0  1  0  0  0  0  0  0  0  0  0
    9.4651   -1.1900    0.0000 C   0  0  1  0  0  0  0  0  0  0  0  0
   10.3312    0.3100    0.0000 C   0  0  2  0  0  0  0  0  0  0  0  0
    9.4651   -2.1900    0.0000 C   0  0  0  0  0  0  0  0  0  0  0  0
    6.8671    0.3100    0.0000 C   0  0  2  0  0  0  0  0  0  0  0  0
   10.3312    2.3100    0.0000 C   0  0  0  0  0  0  0  0  0  0  0  0
    6.8671   -0.6900    0.0000 C   0  0  0  0  0  0  0  0  0  0  0  0
    6.0010    0.8100    0.0000 C   0  0  0  0  0  0  0  0  0  0  0  0
   10.3312    3.3100    0.0000 C   0  0  0  0  0  0  0  0  0  0  0  0
    4.2690    0.8100    0.0000 C   0  0  2  0  0  0  0  0  0  0  0  0
    4.2690    1.8100    0.0000 C   0  0  0  0  0  0  0  0  0  0  0  0
    3.4030    0.3100    0.0000 C   0  0  0  0  0  0  0  0  0  0  0  0
    8.5991    0.9300    0.0000 H   0  0  0  0  0  0  0  0  0  0  0  0
   10.0021    1.1200    0.0000 H   0  0  0  0  0  0  0  0  0  0  0  0
    8.5991   -1.3100    0.0000 H   0  0  0  0  0  0  0  0  0  0  0  0
   10.0021   -1.5000    0.0000 H   0  0  0  0  0  0  0  0  0  0  0  0
   10.3312    0.9300    0.0000 H   0  0  0  0  0  0  0  0  0  0  0  0
    8.8546   -2.0823    0.0000 H   0  0  0  0  0  0  0  0  0  0  0  0
    9.2531   -2.7726    0.0000 H   0  0  0  0  0  0  0  0  0  0  0  0
    8.9282    2.1200    0.0000 H   0  0  0  0  0  0  0  0  0  0  0  0
    7.4040    0.0000    0.0000 H   0  0  0  0  0  0  0  0  0  0  0  0
    7.7331   -1.8100    0.0000 H   0  0  0  0  0  0  0  0  0  0  0  0
   11.7341    0.5000    0.0000 H   0  0  0  0  0  0  0  0  0  0  0  0
    6.2471   -0.6900    0.0000 H   0  0  0  0  0  0  0  0  0  0  0  0
    6.8671   -1.3100    0.0000 H   0  0  0  0  0  0  0  0  0  0  0  0
    7.4871   -0.6900    0.0000 H   0  0  0  0  0  0  0  0  0  0  0  0
   10.3312   -3.3100    0.0000 H   0  0  0  0  0  0  0  0  0  0  0  0
   10.9512    3.3100    0.0000 H   0  0  0  0  0  0  0  0  0  0  0  0
   10.3312    3.9300    0.0000 H   0  0  0  0  0  0  0  0  0  0  0  0
    9.7112    3.3100    0.0000 H   0  0  0  0  0  0  0  0  0  0  0  0
    5.1350   -0.3100    0.0000 H   0  0  0  0  0  0  0  0  0  0  0  0
    4.2690    0.1900    0.0000 H   0  0  0  0  0  0  0  0  0  0  0  0
    4.8890    1.8100    0.0000 H   0  0  0  0  0  0  0  0  0  0  0  0
    4.2690    2.4300    0.0000 H   0  0  0  0  0  0  0  0  0  0  0  0
    3.6490    1.8100    0.0000 H   0  0  0  0  0  0  0  0  0  0  0  0
    2.0000    0.5000    0.0000 H   0  0  0  0  0  0  0  0  0  0  0  0
  1 15  1  0  0  0  0
  1 16  1  0  0  0  0
 12  2  1  6  0  0  0
 18  2  1  6  0  0  0
 14  3  1  1  0  0  0
  3 35  1  0  0  0  0
 16  4  1  1  0  0  0
  4 36  1  0  0  0  0
  5 17  1  0  0  0  0
  5 40  1  0  0  0  0
  6 19  2  0  0  0  0
  7 21  2  0  0  0  0
  8 25  1  0  0  0  0
  8 49  1  0  0  0  0
  9 25  2  0  0  0  0
 13 10  1  1  0  0  0
 10 19  1  0  0  0  0
 10 33  1  0  0  0  0
 11 21  1  0  0  0  0
 23 11  1  1  0  0  0
 11 44  1  0  0  0  0
 12 13  1  0  0  0  0
 12 14  1  0  0  0  0
 12 26  1  0  0  0  0
 13 16  1  0  0  0  0
 13 27  1  0  0  0  0
 14 15  1  0  0  0  0
 14 28  1  0  0  0  0
 15 17  1  6  0  0  0
 15 29  1  0  0  0  0
 16 30  1  0  0  0  0
 17 31  1  0  0  0  0
 17 32  1  0  0  0  0
 18 20  1  0  0  0  0
 18 21  1  0  0  0  0
 18 34  1  0  0  0  0
 19 22  1  0  0  0  0
 20 37  1  0  0  0  0
 20 38  1  0  0  0  0
 20 39  1  0  0  0  0
 22 41  1  0  0  0  0
 22 42  1  0  0  0  0
 22 43  1  0  0  0  0
 23 24  1  0  0  0  0
 23 25  1  0  0  0  0
 23 45  1  0  0  0  0
 24 46  1  0  0  0  0
 24 47  1  0  0  0  0
 24 48  1  0  0  0  0
M  END
> <PUBCHEM_COMPOUND_CID>
5462248

> <PUBCHEM_COMPOUND_CANONICALIZED>
1

> <PUBCHEM_CACTVS_COMPLEXITY>
501

> <PUBCHEM_CACTVS_HBOND_ACCEPTOR>
9

> <PUBCHEM_CACTVS_HBOND_DONOR>
6

> <PUBCHEM_CACTVS_ROTATABLE_BOND>
7

> <PUBCHEM_CACTVS_SUBSKEYS>
AAADceBzPAAAAAAAAAAAAAAAAAAAAAAAAAAkAAAAAAAAAAAAAAAAHgAQCAAACDzxgAcCCALABgAIAAGQGAIAAAAAAAAAAIHIAAATEAIAgCQHQAAHFgCXAAHwcAcAAAAAAAAAAAAAAAAAAAAAAAAAAAAAAA==

> <PUBCHEM_IUPAC_OPENEYE_NAME>
(2R)-2-[[(2R)-2-[(2S,3R,4R,5S,6R)-3-acetamido-2,5-dihydroxy-6-(hydroxymethyl)tetrahydropyran-4-yl]oxypropanoyl]amino]propanoic acid

> <PUBCHEM_IUPAC_CAS_NAME>
(2R)-2-[[(2R)-2-[[(2S,3R,4R,5S,6R)-3-acetamido-2,5-dihydroxy-6-(hydroxymethyl)-4-oxanyl]oxy]-1-oxopropyl]amino]propanoic acid

> <PUBCHEM_IUPAC_NAME>
(2R)-2-[[(2R)-2-[(2S,3R,4R,5S,6R)-3-acetamido-2,5-dihydroxy-6-(hydroxymethyl)oxan-4-yl]oxypropanoyl]amino]propanoic acid

> <PUBCHEM_IUPAC_SYSTEMATIC_NAME>
(2R)-2-[[(2R)-2-[(2R,3S,4R,5R,6S)-5-acetamido-2-(hydroxymethyl)-3,6-bis(oxidanyl)oxan-4-yl]oxypropanoyl]amino]propanoic acid

> <PUBCHEM_IUPAC_TRADITIONAL_NAME>
(2R)-2-[[(2R)-2-[(2S,3R,4R,5S,6R)-3-acetamido-2,5-dihydroxy-6-methylol-tetrahydropyran-4-yl]oxypropanoyl]amino]propionic acid

> <PUBCHEM_IUPAC_INCHI>
InChI=1S/C14H24N2O9/c1-5(13(21)22)15-12(20)6(2)24-11-9(16-7(3)18)14(23)25-8(4-17)10(11)19/h5-6,8-11,14,17,19,23H,4H2,1-3H3,(H,15,20)(H,16,18)(H,21,22)/t5-,6-,8-,9-,10-,11-,14+/m1/s1

> <PUBCHEM_IUPAC_INCHIKEY>
ICMUIFDBEVJCQA-GQQBCVOHSA-N

> <PUBCHEM_XLOGP3_AA>
-2.3

> <PUBCHEM_EXACT_MASS>
364.14818

> <PUBCHEM_MOLECULAR_FORMULA>
C14H24N2O9

> <PUBCHEM_MOLECULAR_WEIGHT>
364.34836

> <PUBCHEM_OPENEYE_CAN_SMILES>
CC(C(=O)O)NC(=O)C(C)OC1C(C(OC(C1O)CO)O)NC(=O)C

> <PUBCHEM_OPENEYE_ISO_SMILES>
C[C@H](C(=O)O)NC(=O)[C@@H](C)O[C@@H]1[C@H]([C@H](O[C@@H]([C@H]1O)CO)O)NC(=O)C

> <PUBCHEM_CACTVS_TPSA>
175

> <PUBCHEM_MONOISOTOPIC_WEIGHT>
364.14818

> <PUBCHEM_TOTAL_CHARGE>
0

> <PUBCHEM_HEAVY_ATOM_COUNT>
25

> <PUBCHEM_ATOM_DEF_STEREO_COUNT>
7

> <PUBCHEM_ATOM_UDEF_STEREO_COUNT>
0

> <PUBCHEM_BOND_DEF_STEREO_COUNT>
0

> <PUBCHEM_BOND_UDEF_STEREO_COUNT>
0

> <PUBCHEM_ISOTOPIC_ATOM_COUNT>
0

> <PUBCHEM_COMPONENT_COUNT>
1

> <PUBCHEM_CACTVS_TAUTO_COUNT>
4

> <PUBCHEM_COORDINATE_TYPE>
1
5
255

> <PUBCHEM_BONDANNOTATIONS>
13  10  5
23  11  5
15  17  6
12  2  6
18  2  6
14  3  5
16  4  5

$$$$

