   Color/Form

     * Crystalline solid
     * White solid

   from [1]HSDB

   Odor
        ODORLESS
   from [2]HSDB

   Melting Point
        119 deg C
   from [3]HSDB

   Corrosivity
        Noncorrosive
   from [4]HSDB

   Density/Specific Gravity
        1.54 g/cu cm @ 20 deg C
   from [5]HSDB

   Dissociation Constants
        pKa = 5.20
   from [6]HSDB

   Octanol/Water Partition Coefficient
        log Kow = 3.53
   from [7]HSDB

   Solubilities

     * In ethanol ca. 10, dichloromethane 171, diethyl ether 28, acetone
       ca. 50 (all in g/l at 20 deg C). In benzene 41 g/l (as
       bis(triphenytin)oxide).
     * Slightly sol in toluene and alcohol
     * In water, 1.2 ppm @ 20 deg C.

   from [8]HSDB

   Spectral Properties
        Intense mass spectral peaks: 351 m/z (100%), 120 m/z (97%), 154
   m/z (95%), 78 m/z (91%)
   from [9]HSDB

   Vapor Pressure
        3.53X10-7 mm Hg at 25 deg C
   from [10]HSDB

   Other Chemical/Physical Properties

     * Thermally decomp to phenyltin, phenyltin oxide and water.
     * Dehydration to oxide occurs on heating above 45 deg C.
     * Triorganotin hydroxides behave not as alcohols, but more like
       inorganic bases, although strong bases remove the proton in certain
       triorganotin hydroxides since tin is amphoteric. /Triorganotin
       hydroxides/

   from [11]HSDB

   Computed Properties
   Molecular Weight                  368.03698 [g/mol]
   Molecular Formula                 C[18]H[17]OSn
   H-Bond Donor                      1
   H-Bond Acceptor                   1
   Rotatable Bond Count              3
   Exact Mass                        369.030135
   MonoIsotopic Mass                 369.030135
   Topological Polar Surface Area    1
   Heavy Atom Count                  20
   Formal Charge                     0
   Complexity                        207
   Isotope Atom Count                0
   Defined Atom Stereocenter Count   0
   Undefined Atom Stereocenter Count 0
   Defined Bond Stereocenter Count   0
   Undefined Bond Stereocenter Count 0
   Covalently-Bonded Unit Count      2

References

   1. http://toxnet.nlm.nih.gov/cgi-bin/sis/search/r?dbs+hsdb:@term+@rn+@rel+76-87-9
   2. http://toxnet.nlm.nih.gov/cgi-bin/sis/search/r?dbs+hsdb:@term+@rn+@rel+76-87-9
   3. http://toxnet.nlm.nih.gov/cgi-bin/sis/search/r?dbs+hsdb:@term+@rn+@rel+76-87-9
   4. http://toxnet.nlm.nih.gov/cgi-bin/sis/search/r?dbs+hsdb:@term+@rn+@rel+76-87-9
   5. http://toxnet.nlm.nih.gov/cgi-bin/sis/search/r?dbs+hsdb:@term+@rn+@rel+76-87-9
   6. http://toxnet.nlm.nih.gov/cgi-bin/sis/search/r?dbs+hsdb:@term+@rn+@rel+76-87-9
   7. http://toxnet.nlm.nih.gov/cgi-bin/sis/search/r?dbs+hsdb:@term+@rn+@rel+76-87-9
   8. http://toxnet.nlm.nih.gov/cgi-bin/sis/search/r?dbs+hsdb:@term+@rn+@rel+76-87-9
   9. http://toxnet.nlm.nih.gov/cgi-bin/sis/search/r?dbs+hsdb:@term+@rn+@rel+76-87-9
  10. http://toxnet.nlm.nih.gov/cgi-bin/sis/search/r?dbs+hsdb:@term+@rn+@rel+76-87-9
  11. http://toxnet.nlm.nih.gov/cgi-bin/sis/search/r?dbs+hsdb:@term+@rn+@rel+76-87-9
