47205654
  -OEChem-06241222592D

 32 33  0     1  0  0  0  0  0999 V2000
    2.8090    0.4494    0.0000 S   0  0  0  0  0  0  0  0  0  0  0  0
    6.4712    0.1101    0.0000 O   0  0  0  0  0  0  0  0  0  0  0  0
    6.8870   -1.8462    0.0000 N   0  0  0  0  0  0  0  0  0  0  0  0
    4.7770   -0.2500    0.0000 N   0  0  0  0  0  0  0  0  0  0  0  0
    8.5051   -1.8462    0.0000 N   0  0  0  0  0  0  0  0  0  0  0  0
    5.9360   -1.5372    0.0000 C   0  0  3  0  0  0  0  0  0  0  0  0
    5.7281   -0.5590    0.0000 C   0  0  0  0  0  0  0  0  0  0  0  0
    4.5691    0.7281    0.0000 C   0  0  0  0  0  0  0  0  0  0  0  0
    5.1928   -2.2063    0.0000 C   0  0  0  0  0  0  0  0  0  0  0  0
    3.6180    1.0372    0.0000 C   0  0  0  0  0  0  0  0  0  0  0  0
    3.3090    1.9882    0.0000 C   0  0  0  0  0  0  0  0  0  0  0  0
    7.1960   -2.7972    0.0000 C   0  0  0  0  0  0  0  0  0  0  0  0
    7.6960   -1.2584    0.0000 C   0  0  0  0  0  0  0  0  0  0  0  0
    2.3090    1.9882    0.0000 C   0  0  0  0  0  0  0  0  0  0  0  0
    3.8968    2.7972    0.0000 C   0  0  0  0  0  0  0  0  0  0  0  0
    8.1960   -2.7972    0.0000 C   0  0  0  0  0  0  0  0  0  0  0  0
    2.0000    1.0372    0.0000 C   0  0  0  0  0  0  0  0  0  0  0  0
    6.0649   -2.1436    0.0000 H   0  0  0  0  0  0  0  0  0  0  0  0
    5.1887    0.7498    0.0000 H   0  0  0  0  0  0  0  0  0  0  0  0
    4.6554    1.3421    0.0000 H   0  0  0  0  0  0  0  0  0  0  0  0
    4.7780   -1.7456    0.0000 H   0  0  0  0  0  0  0  0  0  0  0  0
    4.7321   -2.6212    0.0000 H   0  0  0  0  0  0  0  0  0  0  0  0
    5.6077   -2.6670    0.0000 H   0  0  0  0  0  0  0  0  0  0  0  0
    4.3162   -0.6649    0.0000 H   0  0  0  0  0  0  0  0  0  0  0  0
    6.8316   -3.2988    0.0000 H   0  0  0  0  0  0  0  0  0  0  0  0
    7.6960   -0.6384    0.0000 H   0  0  0  0  0  0  0  0  0  0  0  0
    1.9446    2.4898    0.0000 H   0  0  0  0  0  0  0  0  0  0  0  0
    4.3984    2.4328    0.0000 H   0  0  0  0  0  0  0  0  0  0  0  0
    4.2612    3.2988    0.0000 H   0  0  0  0  0  0  0  0  0  0  0  0
    3.3952    3.1617    0.0000 H   0  0  0  0  0  0  0  0  0  0  0  0
    8.5605   -3.2988    0.0000 H   0  0  0  0  0  0  0  0  0  0  0  0
    1.4103    0.8456    0.0000 H   0  0  0  0  0  0  0  0  0  0  0  0
  1 10  1  0  0  0  0
  1 17  1  0  0  0  0
  2  7  2  0  0  0  0
  3  6  1  0  0  0  0
  3 12  1  0  0  0  0
  3 13  1  0  0  0  0
  4  7  1  0  0  0  0
  4  8  1  0  0  0  0
  4 24  1  0  0  0  0
  5 13  2  0  0  0  0
  5 16  1  0  0  0  0
  6  7  1  0  0  0  0
  6  9  1  0  0  0  0
  6 18  1  0  0  0  0
  8 10  1  0  0  0  0
  8 19  1  0  0  0  0
  8 20  1  0  0  0  0
  9 21  1  0  0  0  0
  9 22  1  0  0  0  0
  9 23  1  0  0  0  0
 10 11  2  0  0  0  0
 11 14  1  0  0  0  0
 11 15  1  0  0  0  0
 12 16  2  0  0  0  0
 12 25  1  0  0  0  0
 13 26  1  0  0  0  0
 14 17  2  0  0  0  0
 14 27  1  0  0  0  0
 15 28  1  0  0  0  0
 15 29  1  0  0  0  0
 15 30  1  0  0  0  0
 16 31  1  0  0  0  0
 17 32  1  0  0  0  0
M  END
> <PUBCHEM_COMPOUND_CID>
47205654

> <PUBCHEM_COMPOUND_CANONICALIZED>
1

> <PUBCHEM_CACTVS_COMPLEXITY>
275

> <PUBCHEM_CACTVS_HBOND_ACCEPTOR>
3

> <PUBCHEM_CACTVS_HBOND_DONOR>
1

> <PUBCHEM_CACTVS_ROTATABLE_BOND>
4

> <PUBCHEM_CACTVS_SUBSKEYS>
AAADccBzIABAAAAAAAAAAAAAAAAAAWJAAAAAAAAAAAAAAAAB4AAAHgQQAAAADCjF2gS/kZfMEAisAjF3dACDgK0xGrBJyJmYNIiIaCKgmTGUAAholgKoiCYQAAAKAAAAAAAAAAAAAAAAAAAAAAAAAAAAAA==

> <PUBCHEM_IUPAC_OPENEYE_NAME>
2-imidazol-1-yl-N-[(3-methyl-2-thienyl)methyl]propanamide

> <PUBCHEM_IUPAC_CAS_NAME>
2-(1-imidazolyl)-N-[(3-methyl-2-thiophenyl)methyl]propanamide

> <PUBCHEM_IUPAC_NAME>
2-imidazol-1-yl-N-[(3-methylthiophen-2-yl)methyl]propanamide

> <PUBCHEM_IUPAC_SYSTEMATIC_NAME>
2-imidazol-1-yl-N-[(3-methylthiophen-2-yl)methyl]propanamide

> <PUBCHEM_IUPAC_TRADITIONAL_NAME>
2-imidazol-1-yl-N-[(3-methyl-2-thienyl)methyl]propionamide

> <PUBCHEM_IUPAC_INCHI>
InChI=1S/C12H15N3OS/c1-9-3-6-17-11(9)7-14-12(16)10(2)15-5-4-13-8-15/h3-6,8,10H,7H2,1-2H3,(H,14,16)

> <PUBCHEM_IUPAC_INCHIKEY>
LUESCNRJWXPWRH-UHFFFAOYSA-N

> <PUBCHEM_XLOGP3_AA>
1.4

> <PUBCHEM_EXACT_MASS>
249.093583

> <PUBCHEM_MOLECULAR_FORMULA>
C12H15N3OS

> <PUBCHEM_MOLECULAR_WEIGHT>
249.332

> <PUBCHEM_OPENEYE_CAN_SMILES>
CC1=C(SC=C1)CNC(=O)C(C)N2C=CN=C2

> <PUBCHEM_OPENEYE_ISO_SMILES>
CC1=C(SC=C1)CNC(=O)C(C)N2C=CN=C2

> <PUBCHEM_CACTVS_TPSA>
75.2

> <PUBCHEM_MONOISOTOPIC_WEIGHT>
249.093583

> <PUBCHEM_TOTAL_CHARGE>
0

> <PUBCHEM_HEAVY_ATOM_COUNT>
17

> <PUBCHEM_ATOM_DEF_STEREO_COUNT>
0

> <PUBCHEM_ATOM_UDEF_STEREO_COUNT>
1

> <PUBCHEM_BOND_DEF_STEREO_COUNT>
0

> <PUBCHEM_BOND_UDEF_STEREO_COUNT>
0

> <PUBCHEM_ISOTOPIC_ATOM_COUNT>
0

> <PUBCHEM_COMPONENT_COUNT>
1

> <PUBCHEM_CACTVS_TAUTO_COUNT>
2

> <PUBCHEM_COORDINATE_TYPE>
1
5
255

> <PUBCHEM_BONDANNOTATIONS>
1  10  8
1  17  8
10  11  8
11  14  8
12  16  8
14  17  8
3  12  8
3  13  8
5  13  8
5  16  8
6  9  3

$$$$

