3157
  -OEChem-07051212522D

 58 62  0     1  0  0  0  0  0999 V2000
    4.6660    1.9050    0.0000 O   0  0  0  0  0  0  0  0  0  0  0  0
    4.6660   -0.0950    0.0000 O   0  0  0  0  0  0  0  0  0  0  0  0
    6.3981    2.9050    0.0000 O   0  0  0  0  0  0  0  0  0  0  0  0
   14.2583    0.4292    0.0000 O   0  0  0  0  0  0  0  0  0  0  0  0
   14.2583   -1.6192    0.0000 O   0  0  0  0  0  0  0  0  0  0  0  0
    7.2641    1.4050    0.0000 N   0  0  0  0  0  0  0  0  0  0  0  0
    8.9962    0.4050    0.0000 N   0  0  0  0  0  0  0  0  0  0  0  0
   10.7282    0.4050    0.0000 N   0  0  0  0  0  0  0  0  0  0  0  0
    9.8622   -1.0950    0.0000 N   0  0  0  0  0  0  0  0  0  0  0  0
   10.7282   -2.5950    0.0000 N   0  0  0  0  0  0  0  0  0  0  0  0
    7.2641    0.4050    0.0000 C   0  0  0  0  0  0  0  0  0  0  0  0
    8.1301    1.9050    0.0000 C   0  0  0  0  0  0  0  0  0  0  0  0
    8.9962    1.4050    0.0000 C   0  0  0  0  0  0  0  0  0  0  0  0
    8.1301   -0.0950    0.0000 C   0  0  0  0  0  0  0  0  0  0  0  0
    6.3981    1.9050    0.0000 C   0  0  0  0  0  0  0  0  0  0  0  0
    5.5321    1.4050    0.0000 C   0  0  3  0  0  0  0  0  0  0  0  0
    9.8622   -0.0950    0.0000 C   0  0  0  0  0  0  0  0  0  0  0  0
    5.5321    0.4050    0.0000 C   0  0  0  0  0  0  0  0  0  0  0  0
    3.8000    1.4050    0.0000 C   0  0  0  0  0  0  0  0  0  0  0  0
   11.5942   -0.0950    0.0000 C   0  0  0  0  0  0  0  0  0  0  0  0
    3.8000    0.4050    0.0000 C   0  0  0  0  0  0  0  0  0  0  0  0
   11.5942   -1.0950    0.0000 C   0  0  0  0  0  0  0  0  0  0  0  0
   10.7282   -1.5950    0.0000 C   0  0  0  0  0  0  0  0  0  0  0  0
   12.4882    0.4397    0.0000 C   0  0  0  0  0  0  0  0  0  0  0  0
    2.9061    1.9397    0.0000 C   0  0  0  0  0  0  0  0  0  0  0  0
   12.4882   -1.6297    0.0000 C   0  0  0  0  0  0  0  0  0  0  0  0
    2.9061   -0.1297    0.0000 C   0  0  0  0  0  0  0  0  0  0  0  0
   13.3942   -0.0742    0.0000 C   0  0  0  0  0  0  0  0  0  0  0  0
   13.3942   -1.1158    0.0000 C   0  0  0  0  0  0  0  0  0  0  0  0
    2.0000    1.4258    0.0000 C   0  0  0  0  0  0  0  0  0  0  0  0
    2.0000    0.3842    0.0000 C   0  0  0  0  0  0  0  0  0  0  0  0
   14.2545    1.4291    0.0000 C   0  0  0  0  0  0  0  0  0  0  0  0
   15.1263   -1.1225    0.0000 C   0  0  0  0  0  0  0  0  0  0  0  0
    8.5287    2.3800    0.0000 H   0  0  0  0  0  0  0  0  0  0  0  0
    7.7316    2.3800    0.0000 H   0  0  0  0  0  0  0  0  0  0  0  0
    6.6535    0.5127    0.0000 H   0  0  0  0  0  0  0  0  0  0  0  0
    7.0521   -0.1776    0.0000 H   0  0  0  0  0  0  0  0  0  0  0  0
    9.6067    1.2973    0.0000 H   0  0  0  0  0  0  0  0  0  0  0  0
    9.2082    1.9876    0.0000 H   0  0  0  0  0  0  0  0  0  0  0  0
    7.7316   -0.5699    0.0000 H   0  0  0  0  0  0  0  0  0  0  0  0
    8.5287   -0.5699    0.0000 H   0  0  0  0  0  0  0  0  0  0  0  0
    5.5321    2.0250    0.0000 H   0  0  0  0  0  0  0  0  0  0  0  0
    5.7441   -0.1776    0.0000 H   0  0  0  0  0  0  0  0  0  0  0  0
    6.1426    0.5127    0.0000 H   0  0  0  0  0  0  0  0  0  0  0  0
   12.4810    1.0596    0.0000 H   0  0  0  0  0  0  0  0  0  0  0  0
    2.9132    2.5596    0.0000 H   0  0  0  0  0  0  0  0  0  0  0  0
   12.4810   -2.2496    0.0000 H   0  0  0  0  0  0  0  0  0  0  0  0
    2.9132   -0.7496    0.0000 H   0  0  0  0  0  0  0  0  0  0  0  0
    1.4643    1.7379    0.0000 H   0  0  0  0  0  0  0  0  0  0  0  0
    1.4643    0.0721    0.0000 H   0  0  0  0  0  0  0  0  0  0  0  0
   10.1913   -2.9050    0.0000 H   0  0  0  0  0  0  0  0  0  0  0  0
   11.2651   -2.9050    0.0000 H   0  0  0  0  0  0  0  0  0  0  0  0
   14.8745    1.4315    0.0000 H   0  0  0  0  0  0  0  0  0  0  0  0
   14.2521    2.0491    0.0000 H   0  0  0  0  0  0  0  0  0  0  0  0
   13.6345    1.4268    0.0000 H   0  0  0  0  0  0  0  0  0  0  0  0
   15.4342   -1.6606    0.0000 H   0  0  0  0  0  0  0  0  0  0  0  0
   15.6644   -0.8146    0.0000 H   0  0  0  0  0  0  0  0  0  0  0  0
   14.8184   -0.5844    0.0000 H   0  0  0  0  0  0  0  0  0  0  0  0
  1 16  1  0  0  0  0
  1 19  1  0  0  0  0
  2 18  1  0  0  0  0
  2 21  1  0  0  0  0
  3 15  2  0  0  0  0
  4 28  1  0  0  0  0
  4 32  1  0  0  0  0
  5 29  1  0  0  0  0
  5 33  1  0  0  0  0
  6 11  1  0  0  0  0
  6 12  1  0  0  0  0
  6 15  1  0  0  0  0
  7 13  1  0  0  0  0
  7 14  1  0  0  0  0
  7 17  1  0  0  0  0
  8 17  2  0  0  0  0
  8 20  1  0  0  0  0
  9 17  1  0  0  0  0
  9 23  2  0  0  0  0
 10 23  1  0  0  0  0
 10 51  1  0  0  0  0
 10 52  1  0  0  0  0
 11 14  1  0  0  0  0
 11 36  1  0  0  0  0
 11 37  1  0  0  0  0
 12 13  1  0  0  0  0
 12 34  1  0  0  0  0
 12 35  1  0  0  0  0
 13 38  1  0  0  0  0
 13 39  1  0  0  0  0
 14 40  1  0  0  0  0
 14 41  1  0  0  0  0
 15 16  1  0  0  0  0
 16 18  1  0  0  0  0
 16 42  1  0  0  0  0
 18 43  1  0  0  0  0
 18 44  1  0  0  0  0
 19 21  1  0  0  0  0
 19 25  2  0  0  0  0
 20 22  1  0  0  0  0
 20 24  2  0  0  0  0
 21 27  2  0  0  0  0
 22 23  1  0  0  0  0
 22 26  2  0  0  0  0
 24 28  1  0  0  0  0
 24 45  1  0  0  0  0
 25 30  1  0  0  0  0
 25 46  1  0  0  0  0
 26 29  1  0  0  0  0
 26 47  1  0  0  0  0
 27 31  1  0  0  0  0
 27 48  1  0  0  0  0
 28 29  2  0  0  0  0
 30 31  2  0  0  0  0
 30 49  1  0  0  0  0
 31 50  1  0  0  0  0
 32 53  1  0  0  0  0
 32 54  1  0  0  0  0
 32 55  1  0  0  0  0
 33 56  1  0  0  0  0
 33 57  1  0  0  0  0
 33 58  1  0  0  0  0
M  END
> <PUBCHEM_COMPOUND_CID>
3157

> <PUBCHEM_COMPOUND_CANONICALIZED>
1

> <PUBCHEM_CACTVS_COMPLEXITY>
678

> <PUBCHEM_CACTVS_HBOND_ACCEPTOR>
9

> <PUBCHEM_CACTVS_HBOND_DONOR>
1

> <PUBCHEM_CACTVS_ROTATABLE_BOND>
4

> <PUBCHEM_CACTVS_SUBSKEYS>
AAADceB7uAAAAAAAAAAAAAAAAAAAAAAAAAA8eJECAAAAAACx9AAAHgAQAAAADBzhngYz9vdIFACoAydydAKCiCkhIqAJmCF+7JiPbqbE+d+XPCru5hva6Cew0BMOIEABAgACQABAgAIEAASAAAAAAAAAAA==

> <PUBCHEM_IUPAC_OPENEYE_NAME>
[4-(4-amino-6,7-dimethoxy-quinazolin-2-yl)piperazin-1-yl]-(2,3-dihydro-1,4-benzodioxin-3-yl)methanone

> <PUBCHEM_IUPAC_CAS_NAME>
[4-(4-amino-6,7-dimethoxy-2-quinazolinyl)-1-piperazinyl]-(2,3-dihydro-1,4-benzodioxin-3-yl)methanone

> <PUBCHEM_IUPAC_NAME>
[4-(4-amino-6,7-dimethoxyquinazolin-2-yl)piperazin-1-yl]-(2,3-dihydro-1,4-benzodioxin-3-yl)methanone

> <PUBCHEM_IUPAC_SYSTEMATIC_NAME>
[4-(4-azanyl-6,7-dimethoxy-quinazolin-2-yl)piperazin-1-yl]-(2,3-dihydro-1,4-benzodioxin-3-yl)methanone

> <PUBCHEM_IUPAC_TRADITIONAL_NAME>
[4-(4-amino-6,7-dimethoxy-quinazolin-2-yl)piperazino]-(2,3-dihydro-1,4-benzodioxin-3-yl)methanone

> <PUBCHEM_IUPAC_INCHI>
InChI=1S/C23H25N5O5/c1-30-18-11-14-15(12-19(18)31-2)25-23(26-21(14)24)28-9-7-27(8-10-28)22(29)20-13-32-16-5-3-4-6-17(16)33-20/h3-6,11-12,20H,7-10,13H2,1-2H3,(H2,24,25,26)

> <PUBCHEM_IUPAC_INCHIKEY>
RUZYUOTYCVRMRZ-UHFFFAOYSA-N

> <PUBCHEM_XLOGP3>
2.5

> <PUBCHEM_EXACT_MASS>
451.185569

> <PUBCHEM_MOLECULAR_FORMULA>
C23H25N5O5

> <PUBCHEM_MOLECULAR_WEIGHT>
451.4751

> <PUBCHEM_OPENEYE_CAN_SMILES>
COC1=C(C=C2C(=C1)C(=NC(=N2)N3CCN(CC3)C(=O)C4COC5=CC=CC=C5O4)N)OC

> <PUBCHEM_OPENEYE_ISO_SMILES>
COC1=C(C=C2C(=C1)C(=NC(=N2)N3CCN(CC3)C(=O)C4COC5=CC=CC=C5O4)N)OC

> <PUBCHEM_CACTVS_TPSA>
112

> <PUBCHEM_MONOISOTOPIC_WEIGHT>
451.185569

> <PUBCHEM_TOTAL_CHARGE>
0

> <PUBCHEM_HEAVY_ATOM_COUNT>
33

> <PUBCHEM_ATOM_DEF_STEREO_COUNT>
0

> <PUBCHEM_ATOM_UDEF_STEREO_COUNT>
1

> <PUBCHEM_BOND_DEF_STEREO_COUNT>
0

> <PUBCHEM_BOND_UDEF_STEREO_COUNT>
0

> <PUBCHEM_ISOTOPIC_ATOM_COUNT>
0

> <PUBCHEM_COMPONENT_COUNT>
1

> <PUBCHEM_CACTVS_TAUTO_COUNT>
3

> <PUBCHEM_COORDINATE_TYPE>
1
5
255

> <PUBCHEM_BONDANNOTATIONS>
16  15  3
19  21  8
19  25  8
20  22  8
20  24  8
21  27  8
22  23  8
22  26  8
24  28  8
25  30  8
26  29  8
27  31  8
28  29  8
30  31  8
8  17  8
8  20  8
9  17  8
9  23  8

$$$$

