91747
  -OEChem-07051213122D

 31 32  0     0  0  0  0  0  0999 V2000
    7.0468   -2.6830    0.0000 Cl  0  0  0  0  0  0  0  0  0  0  0  0
    8.7788    2.3170    0.0000 F   0  0  0  0  0  0  0  0  0  0  0  0
    7.4128    2.6830    0.0000 F   0  0  0  0  0  0  0  0  0  0  0  0
    8.4128    0.9510    0.0000 F   0  0  0  0  0  0  0  0  0  0  0  0
    3.4782    0.3225    0.0000 O   0  0  0  0  0  0  0  0  0  0  0  0
    2.6691    1.7237    0.0000 O   0  0  0  0  0  0  0  0  0  0  0  0
    5.3147    1.3170    0.0000 O   0  0  0  0  0  0  0  0  0  0  0  0
    6.1808    1.8170    0.0000 N   0  0  0  0  0  0  0  0  0  0  0  0
    3.5827    1.3170    0.0000 C   0  0  0  0  0  0  0  0  0  0  0  0
    2.5000    0.1146    0.0000 C   0  0  0  0  0  0  0  0  0  0  0  0
    2.0000    0.9806    0.0000 C   0  0  0  0  0  0  0  0  0  0  0  0
    4.4487    1.8170    0.0000 C   0  0  0  0  0  0  0  0  0  0  0  0
    7.0468    0.3170    0.0000 C   0  0  0  0  0  0  0  0  0  0  0  0
    7.0468    1.3170    0.0000 C   0  0  0  0  0  0  0  0  0  0  0  0
    6.1808   -0.1830    0.0000 C   0  0  0  0  0  0  0  0  0  0  0  0
    7.9128   -0.1830    0.0000 C   0  0  0  0  0  0  0  0  0  0  0  0
    7.9128    1.8170    0.0000 C   0  0  0  0  0  0  0  0  0  0  0  0
    6.1808   -1.1830    0.0000 C   0  0  0  0  0  0  0  0  0  0  0  0
    7.9128   -1.1830    0.0000 C   0  0  0  0  0  0  0  0  0  0  0  0
    7.0468   -1.6830    0.0000 C   0  0  0  0  0  0  0  0  0  0  0  0
    4.1026    0.9793    0.0000 H   0  0  0  0  0  0  0  0  0  0  0  0
    1.9336   -0.1376    0.0000 H   0  0  0  0  0  0  0  0  0  0  0  0
    2.6916   -0.4751    0.0000 H   0  0  0  0  0  0  0  0  0  0  0  0
    1.5851    1.4413    0.0000 H   0  0  0  0  0  0  0  0  0  0  0  0
    1.4984    0.6162    0.0000 H   0  0  0  0  0  0  0  0  0  0  0  0
    4.8472    2.2919    0.0000 H   0  0  0  0  0  0  0  0  0  0  0  0
    4.0502    2.2919    0.0000 H   0  0  0  0  0  0  0  0  0  0  0  0
    5.6438    0.1270    0.0000 H   0  0  0  0  0  0  0  0  0  0  0  0
    8.4497    0.1270    0.0000 H   0  0  0  0  0  0  0  0  0  0  0  0
    5.6438   -1.4930    0.0000 H   0  0  0  0  0  0  0  0  0  0  0  0
    8.4497   -1.4930    0.0000 H   0  0  0  0  0  0  0  0  0  0  0  0
  1 20  1  0  0  0  0
  2 17  1  0  0  0  0
  3 17  1  0  0  0  0
  4 17  1  0  0  0  0
  5  9  1  0  0  0  0
  5 10  1  0  0  0  0
  6  9  1  0  0  0  0
  6 11  1  0  0  0  0
  7  8  1  0  0  0  0
  7 12  1  0  0  0  0
  8 14  2  3  0  0  0
  9 12  1  0  0  0  0
  9 21  1  0  0  0  0
 10 11  1  0  0  0  0
 10 22  1  0  0  0  0
 10 23  1  0  0  0  0
 11 24  1  0  0  0  0
 11 25  1  0  0  0  0
 12 26  1  0  0  0  0
 12 27  1  0  0  0  0
 13 14  1  0  0  0  0
 13 15  2  0  0  0  0
 13 16  1  0  0  0  0
 14 17  1  0  0  0  0
 15 18  1  0  0  0  0
 15 28  1  0  0  0  0
 16 19  2  0  0  0  0
 16 29  1  0  0  0  0
 18 20  2  0  0  0  0
 18 30  1  0  0  0  0
 19 20  1  0  0  0  0
 19 31  1  0  0  0  0
M  END
> <PUBCHEM_COMPOUND_CID>
91747

> <PUBCHEM_COMPOUND_CANONICALIZED>
1

> <PUBCHEM_CACTVS_COMPLEXITY>
337

> <PUBCHEM_CACTVS_HBOND_ACCEPTOR>
7

> <PUBCHEM_CACTVS_HBOND_DONOR>
0

> <PUBCHEM_CACTVS_ROTATABLE_BOND>
4

> <PUBCHEM_CACTVS_SUBSKEYS>
AAADccByMYAEAAAAAAAAAAAAAAAAASAAAAAwAAAAAAAAAAABAAAAHwIEAAAADAqxmDMwCIAQBACgAyBiAAACAAAgBQAIiAAgApgZIKKBExCiIAAggAAOiAcAgIAOBAAAAAAAAAAIAAAAAAAAAAAAAAAAAA==

> <PUBCHEM_IUPAC_OPENEYE_NAME>
1-(4-chlorophenyl)-N-(1,3-dioxolan-2-ylmethoxy)-2,2,2-trifluoro-ethanimine

> <PUBCHEM_IUPAC_CAS_NAME>
1-(4-chlorophenyl)-N-(1,3-dioxolan-2-ylmethoxy)-2,2,2-trifluoroethanimine

> <PUBCHEM_IUPAC_NAME>
1-(4-chlorophenyl)-N-(1,3-dioxolan-2-ylmethoxy)-2,2,2-trifluoroethanimine

> <PUBCHEM_IUPAC_SYSTEMATIC_NAME>
1-(4-chlorophenyl)-N-(1,3-dioxolan-2-ylmethoxy)-2,2,2-tris(fluoranyl)ethanimine

> <PUBCHEM_IUPAC_TRADITIONAL_NAME>
[1-(4-chlorophenyl)-2,2,2-trifluoro-ethylidene]-(1,3-dioxolan-2-ylmethoxy)amine

> <PUBCHEM_IUPAC_INCHI>
InChI=1S/C12H11ClF3NO3/c13-9-3-1-8(2-4-9)11(12(14,15)16)17-20-7-10-18-5-6-19-10/h1-4,10H,5-7H2

> <PUBCHEM_IUPAC_INCHIKEY>
UKSLKNUCVPZQCQ-UHFFFAOYSA-N

> <PUBCHEM_XLOGP3>
3.9

> <PUBCHEM_EXACT_MASS>
309.037956

> <PUBCHEM_MOLECULAR_FORMULA>
C12H11ClF3NO3

> <PUBCHEM_MOLECULAR_WEIGHT>
309.66885

> <PUBCHEM_OPENEYE_CAN_SMILES>
C1COC(O1)CON=C(C2=CC=C(C=C2)Cl)C(F)(F)F

> <PUBCHEM_OPENEYE_ISO_SMILES>
C1COC(O1)CON=C(C2=CC=C(C=C2)Cl)C(F)(F)F

> <PUBCHEM_CACTVS_TPSA>
40

> <PUBCHEM_MONOISOTOPIC_WEIGHT>
309.037956

> <PUBCHEM_TOTAL_CHARGE>
0

> <PUBCHEM_HEAVY_ATOM_COUNT>
20

> <PUBCHEM_ATOM_DEF_STEREO_COUNT>
0

> <PUBCHEM_ATOM_UDEF_STEREO_COUNT>
0

> <PUBCHEM_BOND_DEF_STEREO_COUNT>
0

> <PUBCHEM_BOND_UDEF_STEREO_COUNT>
1

> <PUBCHEM_ISOTOPIC_ATOM_COUNT>
0

> <PUBCHEM_COMPONENT_COUNT>
1

> <PUBCHEM_CACTVS_TAUTO_COUNT>
1

> <PUBCHEM_COORDINATE_TYPE>
1
5
255

> <PUBCHEM_BONDANNOTATIONS>
13  15  8
13  16  8
15  18  8
16  19  8
18  20  8
19  20  8
8  14  1

$$$$

