441715
  -OEChem-07051212552D

 66 71  0     1  0  0  0  0  0999 V2000
    3.5620   -0.8926    0.0000 O   0  0  0  0  0  0  0  0  0  0  0  0
    6.9023    1.7004    0.0000 O   0  0  0  0  0  0  0  0  0  0  0  0
    3.1854    1.2745    0.0000 O   0  0  0  0  0  0  0  0  0  0  0  0
    2.7846    2.1583    0.0000 O   0  0  0  0  0  0  0  0  0  0  0  0
    7.7683   -2.5348    0.0000 O   0  0  0  0  0  0  0  0  0  0  0  0
    8.0976   -0.1287    0.0000 N   0  0  3  0  0  0  0  0  0  0  0  0
    6.1509    0.2666    0.0000 C   0  0  1  0  0  0  0  0  0  0  0  0
    6.1509   -0.6010    0.0000 C   0  0  2  0  0  0  0  0  0  0  0  0
    5.4726    0.8075    0.0000 C   0  0  1  0  0  0  0  0  0  0  0  0
    7.1529    0.1605    0.0000 C   0  0  3  0  0  0  0  0  0  0  0  0
    4.6268   -0.9489    0.0000 C   0  0  1  0  0  0  0  0  0  0  0  0
    4.6268    0.6144    0.0000 C   0  0  1  0  0  0  0  0  0  0  0  0
    4.2504   -0.1672    0.0000 C   0  0  1  0  0  0  0  0  0  0  0  0
    5.4726   -1.1419    0.0000 C   0  0  0  0  0  0  0  0  0  0  0  0
    6.9023   -1.0348    0.0000 C   0  0  2  0  0  0  0  0  0  0  0  0
    6.9023    0.7004    0.0000 C   0  0  2  0  0  0  0  0  0  0  0  0
    5.5504    1.6716    0.0000 C   0  0  0  0  0  0  0  0  0  0  0  0
    4.7526    2.0126    0.0000 C   0  0  1  0  0  0  0  0  0  0  0  0
    4.1818    1.3592    0.0000 C   0  0  2  0  0  0  0  0  0  0  0  0
    3.6055    0.1027    0.0000 C   0  0  0  0  0  0  0  0  0  0  0  0
    8.0976   -0.8806    0.0000 C   0  0  0  0  0  0  0  0  0  0  0  0
    7.6536   -0.6010    0.0000 C   0  0  0  0  0  0  0  0  0  0  0  0
    3.6055    1.5872    0.0000 C   0  0  2  0  0  0  0  0  0  0  0  0
    7.6536    0.2666    0.0000 C   0  0  0  0  0  0  0  0  0  0  0  0
    6.9023   -2.0348    0.0000 C   0  0  0  0  0  0  0  0  0  0  0  0
    8.9016    0.4660    0.0000 C   0  0  0  0  0  0  0  0  0  0  0  0
    9.8186    0.0671    0.0000 C   0  0  0  0  0  0  0  0  0  0  0  0
    7.7683    2.2004    0.0000 C   0  0  0  0  0  0  0  0  0  0  0  0
    2.8688    3.1548    0.0000 C   0  0  0  0  0  0  0  0  0  0  0  0
    6.2145   -1.4486    0.0000 H   0  0  0  0  0  0  0  0  0  0  0  0
    6.2542    1.1416    0.0000 H   0  0  0  0  0  0  0  0  0  0  0  0
    7.2768    0.7680    0.0000 H   0  0  0  0  0  0  0  0  0  0  0  0
    4.0968   -1.6134    0.0000 H   0  0  0  0  0  0  0  0  0  0  0  0
    3.7777    0.5763    0.0000 H   0  0  0  0  0  0  0  0  0  0  0  0
    5.9574   -1.5285    0.0000 H   0  0  0  0  0  0  0  0  0  0  0  0
    5.2036   -1.7005    0.0000 H   0  0  0  0  0  0  0  0  0  0  0  0
    6.3653    1.0104    0.0000 H   0  0  0  0  0  0  0  0  0  0  0  0
    5.7332    2.2640    0.0000 H   0  0  0  0  0  0  0  0  0  0  0  0
    6.1587    1.5518    0.0000 H   0  0  0  0  0  0  0  0  0  0  0  0
    4.7734    2.8623    0.0000 H   0  0  0  0  0  0  0  0  0  0  0  0
    3.9017    1.9123    0.0000 H   0  0  0  0  0  0  0  0  0  0  0  0
    3.4436   -0.4958    0.0000 H   0  0  0  0  0  0  0  0  0  0  0  0
    2.9909    0.1844    0.0000 H   0  0  0  0  0  0  0  0  0  0  0  0
    8.7170   -0.8540    0.0000 H   0  0  0  0  0  0  0  0  0  0  0  0
    8.1506   -1.4983    0.0000 H   0  0  0  0  0  0  0  0  0  0  0  0
    8.2642   -0.4933    0.0000 H   0  0  0  0  0  0  0  0  0  0  0  0
    7.8657   -1.1836    0.0000 H   0  0  0  0  0  0  0  0  0  0  0  0
    3.6836    2.2023    0.0000 H   0  0  0  0  0  0  0  0  0  0  0  0
    7.8657    0.8492    0.0000 H   0  0  0  0  0  0  0  0  0  0  0  0
    8.2642    0.1589    0.0000 H   0  0  0  0  0  0  0  0  0  0  0  0
    6.6902   -2.6174    0.0000 H   0  0  0  0  0  0  0  0  0  0  0  0
    6.2917   -1.9271    0.0000 H   0  0  0  0  0  0  0  0  0  0  0  0
    2.9592   -0.7479    0.0000 H   0  0  0  0  0  0  0  0  0  0  0  0
    8.4519    0.8929    0.0000 H   0  0  0  0  0  0  0  0  0  0  0  0
    9.2439    0.9830    0.0000 H   0  0  0  0  0  0  0  0  0  0  0  0
    2.9220    0.7133    0.0000 H   0  0  0  0  0  0  0  0  0  0  0  0
   10.0659    0.6356    0.0000 H   0  0  0  0  0  0  0  0  0  0  0  0
   10.3871   -0.1802    0.0000 H   0  0  0  0  0  0  0  0  0  0  0  0
    9.5712   -0.5014    0.0000 H   0  0  0  0  0  0  0  0  0  0  0  0
    7.7683   -3.1548    0.0000 H   0  0  0  0  0  0  0  0  0  0  0  0
    7.4583    2.7373    0.0000 H   0  0  0  0  0  0  0  0  0  0  0  0
    8.3052    2.5104    0.0000 H   0  0  0  0  0  0  0  0  0  0  0  0
    8.0783    1.6634    0.0000 H   0  0  0  0  0  0  0  0  0  0  0  0
    2.2510    3.2070    0.0000 H   0  0  0  0  0  0  0  0  0  0  0  0
    2.9210    3.7726    0.0000 H   0  0  0  0  0  0  0  0  0  0  0  0
    3.4866    3.1026    0.0000 H   0  0  0  0  0  0  0  0  0  0  0  0
 13  1  1  6  0  0  0
  1 53  1  0  0  0  0
 16  2  1  1  0  0  0
  2 28  1  0  0  0  0
 19  3  1  1  0  0  0
  3 56  1  0  0  0  0
 23  4  1  6  0  0  0
  4 29  1  0  0  0  0
  5 25  1  0  0  0  0
  5 60  1  0  0  0  0
  6 10  1  0  0  0  0
  6 21  1  0  0  0  0
  6 26  1  0  0  0  0
  7  8  1  0  0  0  0
  7  9  1  0  0  0  0
  7 10  1  0  0  0  0
  7 16  1  6  0  0  0
  8 14  1  0  0  0  0
  8 15  1  0  0  0  0
  8 30  1  6  0  0  0
  9 12  1  0  0  0  0
  9 17  1  0  0  0  0
  9 31  1  6  0  0  0
 10 11  1  0  0  0  0
 10 32  1  0  0  0  0
 11 13  1  0  0  0  0
 11 14  1  0  0  0  0
 11 33  1  1  0  0  0
 12 13  1  0  0  0  0
 12 19  1  0  0  0  0
 12 34  1  6  0  0  0
 13 20  1  0  0  0  0
 14 35  1  0  0  0  0
 14 36  1  0  0  0  0
 15 21  1  0  0  0  0
 15 22  1  0  0  0  0
 15 25  1  6  0  0  0
 16 24  1  0  0  0  0
 16 37  1  0  0  0  0
 17 18  1  0  0  0  0
 17 38  1  0  0  0  0
 17 39  1  0  0  0  0
 18 19  1  0  0  0  0
 18 23  1  0  0  0  0
 18 40  1  6  0  0  0
 19 41  1  0  0  0  0
 20 23  1  0  0  0  0
 20 42  1  0  0  0  0
 20 43  1  0  0  0  0
 21 44  1  0  0  0  0
 21 45  1  0  0  0  0
 22 24  1  0  0  0  0
 22 46  1  0  0  0  0
 22 47  1  0  0  0  0
 23 48  1  0  0  0  0
 24 49  1  0  0  0  0
 24 50  1  0  0  0  0
 25 51  1  0  0  0  0
 25 52  1  0  0  0  0
 26 27  1  0  0  0  0
 26 54  1  0  0  0  0
 26 55  1  0  0  0  0
 27 57  1  0  0  0  0
 27 58  1  0  0  0  0
 27 59  1  0  0  0  0
 28 61  1  0  0  0  0
 28 62  1  0  0  0  0
 28 63  1  0  0  0  0
 29 64  1  0  0  0  0
 29 65  1  0  0  0  0
 29 66  1  0  0  0  0
M  END
> <PUBCHEM_COMPOUND_CID>
441715

> <PUBCHEM_COMPOUND_CANONICALIZED>
1

> <PUBCHEM_CACTVS_COMPLEXITY>
705

> <PUBCHEM_CACTVS_HBOND_ACCEPTOR>
6

> <PUBCHEM_CACTVS_HBOND_DONOR>
3

> <PUBCHEM_CACTVS_ROTATABLE_BOND>
4

> <PUBCHEM_CACTVS_SUBSKEYS>
AAADcfB6OAAAAAAAAAAAAAAAAAAAAYMAAAA8YMEAB4gWAGAAAAAAHgAACAAAD3zhgAYCAAMABgAAAAAAAAAAAAAAAAAAAAAIAAAAEAIAgAAEQAAHAACAAAGQ8P8PgAAAAAAAAADQAAaUADQAAaAADQAAAA==

> <PUBCHEM_IUPAC_INCHI>
InChI=1S/C23H37NO5/c1-4-24-10-21(11-25)6-5-17(29-3)23-13-7-12-15(28-2)9-22(27,18(13)19(12)26)14(20(23)24)8-16(21)23/h12-20,25-27H,4-11H2,1-3H3/t12-,13-,14+,15+,16-,17+,18-,19+,20?,21+,22+,23-/m1/s1

> <PUBCHEM_IUPAC_INCHIKEY>
WCEASIFXIDFWHE-JPAZAREGSA-N

> <PUBCHEM_XLOGP3_AA>
0.4

> <PUBCHEM_EXACT_MASS>
407.267173

> <PUBCHEM_MOLECULAR_FORMULA>
C23H37NO5

> <PUBCHEM_MOLECULAR_WEIGHT>
407.54358

> <PUBCHEM_OPENEYE_CAN_SMILES>
CCN1CC2(CCC(C34C2CC(C31)C5(CC(C6CC4C5C6O)OC)O)OC)CO

> <PUBCHEM_OPENEYE_ISO_SMILES>
CCN1C[C@@]2(CC[C@@H]([C@@]34[C@@H]2C[C@@H](C31)[C@]5(C[C@@H]([C@H]6C[C@@H]4[C@@H]5[C@H]6O)OC)O)OC)CO

> <PUBCHEM_CACTVS_TPSA>
82.4

> <PUBCHEM_MONOISOTOPIC_WEIGHT>
407.267173

> <PUBCHEM_TOTAL_CHARGE>
0

> <PUBCHEM_HEAVY_ATOM_COUNT>
29

> <PUBCHEM_ATOM_DEF_STEREO_COUNT>
11

> <PUBCHEM_ATOM_UDEF_STEREO_COUNT>
1

> <PUBCHEM_BOND_DEF_STEREO_COUNT>
0

> <PUBCHEM_BOND_UDEF_STEREO_COUNT>
0

> <PUBCHEM_ISOTOPIC_ATOM_COUNT>
0

> <PUBCHEM_COMPONENT_COUNT>
1

> <PUBCHEM_CACTVS_TAUTO_COUNT>
1

> <PUBCHEM_COORDINATE_TYPE>
1
5
255

> <PUBCHEM_BONDANNOTATIONS>
13  1  6
11  33  5
12  34  6
15  25  6
18  40  6
16  2  5
19  3  5
23  4  6
10  6  3
7  16  6
8  30  6
9  31  6

$$$$

