   Color/Form

     * Crystals from ethyl acetate and benzene
     * White crystalline powder

   from [1]HSDB

   Taste
        Bitter
   from [2]HSDB

   Melting Point
        125-126 deg C
   from [3]HSDB

   Octanol/Water Partition Coefficient
        log Kow = -0.33 (est)
   from [4]HSDB

   pH
        pH= 6.3 (saturated solution)
   from [5]HSDB

   Solubilities

     * Soluble in most alkaline solutions containing sodium hydroxide or
       sodium phosphate and having a pH of 9 to 10. It is freely soluble
       in acetone, chloroform, dimethylsulfoxide, and ethanol.
     * In water, 9,800 mg/L, temp not specified

   from [6]HSDB

   Spectral Properties
        Specific optical rotation = -34 deg/D (c = 0.4 in methanol)
   from [7]HSDB

   Vapor Pressure
        7.0X10-8 mm Hg at 25 deg C (est)
   from [8]HSDB

   Other Chemical/Physical Properties

     * Henry's Law constant = 8.8X19-17 atm-cu cm/mol at 25 deg C (est)
     * Hydroxyl radical reaction rate constant = 6.67X10-11 cu
       cm/molec-sec at 25 deg C (est)

   from [9]HSDB

   Computed Properties
   Molecular Weight                  339.36204 [g/mol]
   Molecular Formula                 C[12]H[21]NO[8]S
   XLogP3-AA                         -0.8
   H-Bond Donor                      1
   H-Bond Acceptor                   9
   Rotatable Bond Count              3
   Exact Mass                        339.098788
   MonoIsotopic Mass                 339.098788
   Topological Polar Surface Area    124
   Heavy Atom Count                  22
   Formal Charge                     0
   Complexity                        556
   Isotope Atom Count                0
   Defined Atom Stereocenter Count   4
   Undefined Atom Stereocenter Count 0
   Defined Bond Stereocenter Count   0
   Undefined Bond Stereocenter Count 0
   Covalently-Bonded Unit Count      1
   Feature 3D Acceptor Count         7
   Feature 3D Donor Count            1
   Feature 3D Hydrophobe Count       2
   Feature 3D Ring Count             3
   Effective Rotor Count             4.6
   Conformer Sampling RMSD           0.8
   CID Conformer Count               [10]15

References

   1. http://toxnet.nlm.nih.gov/cgi-bin/sis/search/r?dbs+hsdb:@term+@rn+@rel+97240-79-4
   2. http://toxnet.nlm.nih.gov/cgi-bin/sis/search/r?dbs+hsdb:@term+@rn+@rel+97240-79-4
   3. http://toxnet.nlm.nih.gov/cgi-bin/sis/search/r?dbs+hsdb:@term+@rn+@rel+97240-79-4
   4. http://toxnet.nlm.nih.gov/cgi-bin/sis/search/r?dbs+hsdb:@term+@rn+@rel+97240-79-4
   5. http://toxnet.nlm.nih.gov/cgi-bin/sis/search/r?dbs+hsdb:@term+@rn+@rel+97240-79-4
   6. http://toxnet.nlm.nih.gov/cgi-bin/sis/search/r?dbs+hsdb:@term+@rn+@rel+97240-79-4
   7. http://toxnet.nlm.nih.gov/cgi-bin/sis/search/r?dbs+hsdb:@term+@rn+@rel+97240-79-4
   8. http://toxnet.nlm.nih.gov/cgi-bin/sis/search/r?dbs+hsdb:@term+@rn+@rel+97240-79-4
   9. http://toxnet.nlm.nih.gov/cgi-bin/sis/search/r?dbs+hsdb:@term+@rn+@rel+97240-79-4
  10. http://pubchem.ncbi.nlm.nih.gov/vw3d/vw3d.cgi?cid=5284627
