443421
  -OEChem-07051213022D

 50 52  0     1  0  0  0  0  0999 V2000
    7.2685    2.5450    0.0000 O   0  0  0  0  0  0  0  0  0  0  0  0
    9.0424    1.5209    0.0000 O   0  0  0  0  0  0  0  0  0  0  0  0
    2.0000    1.5032    0.0000 O   0  0  0  0  0  0  0  0  0  0  0  0
    5.5243   -1.5242    0.0000 N   0  0  3  0  0  0  0  0  0  0  0  0
    3.7243   -0.5034    0.0000 C   0  0  2  0  0  0  0  0  0  0  0  0
    3.7243   -1.5450    0.0000 C   0  0  2  0  0  0  0  0  0  0  0  0
    5.5243   -0.5242    0.0000 C   0  0  1  0  0  0  0  0  0  0  0  0
    4.6304    0.0104    0.0000 C   0  0  0  0  0  0  0  0  0  0  0  0
    4.6304   -2.0589    0.0000 C   0  0  0  0  0  0  0  0  0  0  0  0
    6.3904   -2.0242    0.0000 C   0  0  0  0  0  0  0  0  0  0  0  0
    6.3904   -0.0242    0.0000 C   0  0  0  0  0  0  0  0  0  0  0  0
    2.8602   -2.0484    0.0000 C   0  0  0  0  0  0  0  0  0  0  0  0
    2.8602   -0.0001    0.0000 C   0  0  0  0  0  0  0  0  0  0  0  0
    7.2564   -1.5242    0.0000 C   0  0  0  0  0  0  0  0  0  0  0  0
    7.2564   -0.5242    0.0000 C   0  0  0  0  0  0  0  0  0  0  0  0
    6.3743    1.0173    0.0000 C   0  0  0  0  0  0  0  0  0  0  0  0
    2.8641   -3.0484    0.0000 C   0  0  0  0  0  0  0  0  0  0  0  0
    8.1664   -0.0174    0.0000 C   0  0  0  0  0  0  0  0  0  0  0  0
    2.8641    0.9999    0.0000 C   0  0  0  0  0  0  0  0  0  0  0  0
    7.2723    1.5450    0.0000 C   0  0  0  0  0  0  0  0  0  0  0  0
    8.1744    1.0242    0.0000 C   0  0  0  0  0  0  0  0  0  0  0  0
    8.1326    3.0484    0.0000 C   0  0  0  0  0  0  0  0  0  0  0  0
    9.9065    1.0176    0.0000 C   0  0  0  0  0  0  0  0  0  0  0  0
    3.7279    0.1166    0.0000 H   0  0  0  0  0  0  0  0  0  0  0  0
    3.1868   -1.2361    0.0000 H   0  0  0  0  0  0  0  0  0  0  0  0
    5.5309    0.3258    0.0000 H   0  0  0  0  0  0  0  0  0  0  0  0
    5.0350    0.4802    0.0000 H   0  0  0  0  0  0  0  0  0  0  0  0
    4.2368    0.4895    0.0000 H   0  0  0  0  0  0  0  0  0  0  0  0
    4.2368   -2.5379    0.0000 H   0  0  0  0  0  0  0  0  0  0  0  0
    5.0350   -2.5287    0.0000 H   0  0  0  0  0  0  0  0  0  0  0  0
    5.9918   -2.4992    0.0000 H   0  0  0  0  0  0  0  0  0  0  0  0
    6.7889   -2.4992    0.0000 H   0  0  0  0  0  0  0  0  0  0  0  0
    2.6459   -1.4666    0.0000 H   0  0  0  0  0  0  0  0  0  0  0  0
    2.2501   -2.1584    0.0000 H   0  0  0  0  0  0  0  0  0  0  0  0
    2.2501    0.1099    0.0000 H   0  0  0  0  0  0  0  0  0  0  0  0
    2.6459   -0.5819    0.0000 H   0  0  0  0  0  0  0  0  0  0  0  0
    7.4684   -2.1068    0.0000 H   0  0  0  0  0  0  0  0  0  0  0  0
    7.8670   -1.4166    0.0000 H   0  0  0  0  0  0  0  0  0  0  0  0
    5.8338    1.3210    0.0000 H   0  0  0  0  0  0  0  0  0  0  0  0
    2.2441   -3.0508    0.0000 H   0  0  0  0  0  0  0  0  0  0  0  0
    2.8665   -3.6684    0.0000 H   0  0  0  0  0  0  0  0  0  0  0  0
    3.4841   -3.0460    0.0000 H   0  0  0  0  0  0  0  0  0  0  0  0
    8.6997   -0.3336    0.0000 H   0  0  0  0  0  0  0  0  0  0  0  0
    3.4022    1.3078    0.0000 H   0  0  0  0  0  0  0  0  0  0  0  0
    8.4446    2.5126    0.0000 H   0  0  0  0  0  0  0  0  0  0  0  0
    8.6683    3.3604    0.0000 H   0  0  0  0  0  0  0  0  0  0  0  0
    7.8205    3.5841    0.0000 H   0  0  0  0  0  0  0  0  0  0  0  0
    9.5944    0.4818    0.0000 H   0  0  0  0  0  0  0  0  0  0  0  0
   10.4422    0.7055    0.0000 H   0  0  0  0  0  0  0  0  0  0  0  0
   10.2185    1.5533    0.0000 H   0  0  0  0  0  0  0  0  0  0  0  0
  1 20  1  0  0  0  0
  1 22  1  0  0  0  0
  2 21  1  0  0  0  0
  2 23  1  0  0  0  0
  3 19  2  0  0  0  0
  4  7  1  0  0  0  0
  4  9  1  0  0  0  0
  4 10  1  0  0  0  0
  5  6  1  0  0  0  0
  5  8  1  0  0  0  0
  5 13  1  1  0  0  0
  5 24  1  0  0  0  0
  6  9  1  0  0  0  0
  6 12  1  6  0  0  0
  6 25  1  0  0  0  0
  7  8  1  0  0  0  0
  7 11  1  0  0  0  0
  7 26  1  6  0  0  0
  8 27  1  0  0  0  0
  8 28  1  0  0  0  0
  9 29  1  0  0  0  0
  9 30  1  0  0  0  0
 10 14  1  0  0  0  0
 10 31  1  0  0  0  0
 10 32  1  0  0  0  0
 11 15  1  0  0  0  0
 11 16  2  0  0  0  0
 12 17  1  0  0  0  0
 12 33  1  0  0  0  0
 12 34  1  0  0  0  0
 13 19  1  0  0  0  0
 13 35  1  0  0  0  0
 13 36  1  0  0  0  0
 14 15  1  0  0  0  0
 14 37  1  0  0  0  0
 14 38  1  0  0  0  0
 15 18  2  0  0  0  0
 16 20  1  0  0  0  0
 16 39  1  0  0  0  0
 17 40  1  0  0  0  0
 17 41  1  0  0  0  0
 17 42  1  0  0  0  0
 18 21  1  0  0  0  0
 18 43  1  0  0  0  0
 19 44  1  0  0  0  0
 20 21  2  0  0  0  0
 22 45  1  0  0  0  0
 22 46  1  0  0  0  0
 22 47  1  0  0  0  0
 23 48  1  0  0  0  0
 23 49  1  0  0  0  0
 23 50  1  0  0  0  0
M  END
> <PUBCHEM_COMPOUND_CID>
443421

> <PUBCHEM_COMPOUND_CANONICALIZED>
1

> <PUBCHEM_CACTVS_COMPLEXITY>
402

> <PUBCHEM_CACTVS_HBOND_ACCEPTOR>
4

> <PUBCHEM_CACTVS_HBOND_DONOR>
0

> <PUBCHEM_CACTVS_ROTATABLE_BOND>
5

> <PUBCHEM_CACTVS_SUBSKEYS>
AAADceB6MAAAAAAAAAAAAAAAAAAAAAAAAAA8WIAAAAAAAACxAAAAHgAAAAAADSzhmAYyBoMABACIAihSgACCCAAgIAAAiAEOjIgNJjKEsRuEMCpkwBGKqAe42fOeoAABAAAQQABAAAIAACCAAAAAAAAAAA==

> <PUBCHEM_IUPAC_OPENEYE_NAME>
2-[(2R,3R,11bS)-3-ethyl-9,10-dimethoxy-2,3,4,6,7,11b-hexahydro-1H-benzo[a]quinolizin-2-yl]acetaldehyde

> <PUBCHEM_IUPAC_CAS_NAME>
2-[(2R,3R,11bS)-3-ethyl-9,10-dimethoxy-2,3,4,6,7,11b-hexahydro-1H-benzo[a]quinolizin-2-yl]acetaldehyde

> <PUBCHEM_IUPAC_NAME>
2-[(2R,3R,11bS)-3-ethyl-9,10-dimethoxy-2,3,4,6,7,11b-hexahydro-1H-benzo[a]quinolizin-2-yl]acetaldehyde

> <PUBCHEM_IUPAC_SYSTEMATIC_NAME>
2-[(2R,3R,11bS)-3-ethyl-9,10-dimethoxy-2,3,4,6,7,11b-hexahydro-1H-benzo[a]quinolizin-2-yl]ethanal

> <PUBCHEM_IUPAC_TRADITIONAL_NAME>
2-[(2R,3R,11bS)-3-ethyl-9,10-dimethoxy-2,3,4,6,7,11b-hexahydro-1H-benzo[a]quinolizin-2-yl]acetaldehyde

> <PUBCHEM_IUPAC_INCHI>
InChI=1S/C19H27NO3/c1-4-13-12-20-7-5-15-10-18(22-2)19(23-3)11-16(15)17(20)9-14(13)6-8-21/h8,10-11,13-14,17H,4-7,9,12H2,1-3H3/t13-,14-,17-/m0/s1

> <PUBCHEM_IUPAC_INCHIKEY>
BBVFHYCHEWCGBH-ZQIUZPCESA-N

> <PUBCHEM_XLOGP3_AA>
2.7

> <PUBCHEM_EXACT_MASS>
317.199094

> <PUBCHEM_MOLECULAR_FORMULA>
C19H27NO3

> <PUBCHEM_MOLECULAR_WEIGHT>
317.42258

> <PUBCHEM_OPENEYE_CAN_SMILES>
CCC1CN2CCC3=CC(=C(C=C3C2CC1CC=O)OC)OC

> <PUBCHEM_OPENEYE_ISO_SMILES>
CC[C@H]1CN2CCC3=CC(=C(C=C3[C@@H]2C[C@@H]1CC=O)OC)OC

> <PUBCHEM_CACTVS_TPSA>
38.8

> <PUBCHEM_MONOISOTOPIC_WEIGHT>
317.199094

> <PUBCHEM_TOTAL_CHARGE>
0

> <PUBCHEM_HEAVY_ATOM_COUNT>
23

> <PUBCHEM_ATOM_DEF_STEREO_COUNT>
3

> <PUBCHEM_ATOM_UDEF_STEREO_COUNT>
0

> <PUBCHEM_BOND_DEF_STEREO_COUNT>
0

> <PUBCHEM_BOND_UDEF_STEREO_COUNT>
0

> <PUBCHEM_ISOTOPIC_ATOM_COUNT>
0

> <PUBCHEM_COMPONENT_COUNT>
1

> <PUBCHEM_CACTVS_TAUTO_COUNT>
2

> <PUBCHEM_COORDINATE_TYPE>
1
5
255

> <PUBCHEM_BONDANNOTATIONS>
11  15  8
11  16  8
15  18  8
16  20  8
18  21  8
20  21  8
5  13  5
6  12  6
7  26  6

$$$$

