15940571
  -OEChem-07051213082D

 74 75  0     1  0  0  0  0  0999 V2000
    4.2690   -1.8100    0.0000 O   0  0  0  0  0  0  0  0  0  0  0  0
    6.8671   -3.3100    0.0000 O   0  0  0  0  0  0  0  0  0  0  0  0
    6.8671   -5.3100    0.0000 O   0  0  0  0  0  0  0  0  0  0  0  0
    6.0010    1.1900    0.0000 O   0  0  0  0  0  0  0  0  0  0  0  0
    6.8671    5.6900    0.0000 O   0  0  0  0  0  0  0  0  0  0  0  0
   10.3312    5.6900    0.0000 O   0  0  0  0  0  0  0  0  0  0  0  0
    2.5369   -1.8100    0.0000 O   0  0  0  0  0  0  0  0  0  0  0  0
    8.5991    5.6900    0.0000 N   0  0  0  0  0  0  0  0  0  0  0  0
    5.1350   -3.3100    0.0000 C   0  0  2  0  0  0  0  0  0  0  0  0
    8.5991    3.6900    0.0000 C   0  0  0  0  0  0  0  0  0  0  0  0
    5.1350   -2.3100    0.0000 C   0  0  2  0  0  0  0  0  0  0  0  0
    6.0010   -3.8100    0.0000 C   0  0  1  0  0  0  0  0  0  0  0  0
    8.5991    2.6900    0.0000 C   0  0  0  0  0  0  0  0  0  0  0  0
    7.7331    2.1900    0.0000 C   0  0  0  0  0  0  0  0  0  0  0  0
    7.7331    4.1900    0.0000 C   0  0  0  0  0  0  0  0  0  0  0  0
    9.4651    4.1900    0.0000 C   0  0  0  0  0  0  0  0  0  0  0  0
    6.0010   -1.8100    0.0000 C   0  0  0  0  0  0  0  0  0  0  0  0
    6.0010   -4.8100    0.0000 C   0  0  2  0  0  0  0  0  0  0  0  0
    7.7331    1.1900    0.0000 C   0  0  0  0  0  0  0  0  0  0  0  0
    4.2690   -2.8099    0.0000 C   0  0  0  0  0  0  0  0  0  0  0  0
    6.8671   -0.3100    0.0000 C   0  0  1  0  0  0  0  0  0  0  0  0
    6.0010   -0.8100    0.0000 C   0  0  0  0  0  0  0  0  0  0  0  0
    6.8671    0.6900    0.0000 C   0  0  0  0  0  0  0  0  0  0  0  0
    7.7331    5.1900    0.0000 C   0  0  0  0  0  0  0  0  0  0  0  0
    9.4651    5.1900    0.0000 C   0  0  0  0  0  0  0  0  0  0  0  0
    6.8671   -2.3100    0.0000 C   0  0  0  0  0  0  0  0  0  0  0  0
    5.1350   -5.3100    0.0000 C   0  0  0  0  0  0  0  0  0  0  0  0
    7.7331   -0.8100    0.0000 C   0  0  0  0  0  0  0  0  0  0  0  0
    4.2690   -4.8100    0.0000 C   0  0  0  0  0  0  0  0  0  0  0  0
    3.4030   -2.3100    0.0000 C   0  0  0  0  0  0  0  0  0  0  0  0
    3.4030   -5.3100    0.0000 C   0  0  0  0  0  0  0  0  0  0  0  0
    2.5369   -4.8100    0.0000 C   0  0  0  0  0  0  0  0  0  0  0  0
    6.8671   -6.3100    0.0000 C   0  0  0  0  0  0  0  0  0  0  0  0
    3.4030   -3.3100    0.0000 C   0  0  0  0  0  0  0  0  0  0  0  0
    2.5369   -3.8100    0.0000 C   0  0  0  0  0  0  0  0  0  0  0  0
    4.8250   -3.8469    0.0000 H   0  0  0  0  0  0  0  0  0  0  0  0
    8.0622    3.3800    0.0000 H   0  0  0  0  0  0  0  0  0  0  0  0
    5.1350   -1.6900    0.0000 H   0  0  0  0  0  0  0  0  0  0  0  0
    6.5380   -4.1200    0.0000 H   0  0  0  0  0  0  0  0  0  0  0  0
    8.8112    2.1074    0.0000 H   0  0  0  0  0  0  0  0  0  0  0  0
    9.2097    2.7977    0.0000 H   0  0  0  0  0  0  0  0  0  0  0  0
    7.5210    2.7726    0.0000 H   0  0  0  0  0  0  0  0  0  0  0  0
    7.1225    2.0823    0.0000 H   0  0  0  0  0  0  0  0  0  0  0  0
    7.1225    4.2977    0.0000 H   0  0  0  0  0  0  0  0  0  0  0  0
    7.5210    3.6074    0.0000 H   0  0  0  0  0  0  0  0  0  0  0  0
    9.6772    3.6074    0.0000 H   0  0  0  0  0  0  0  0  0  0  0  0
   10.0757    4.2977    0.0000 H   0  0  0  0  0  0  0  0  0  0  0  0
    6.5380   -4.5000    0.0000 H   0  0  0  0  0  0  0  0  0  0  0  0
    7.9451    0.6074    0.0000 H   0  0  0  0  0  0  0  0  0  0  0  0
    8.3437    1.2977    0.0000 H   0  0  0  0  0  0  0  0  0  0  0  0
    4.5791   -2.2730    0.0000 H   0  0  0  0  0  0  0  0  0  0  0  0
    3.7322   -2.4998    0.0000 H   0  0  0  0  0  0  0  0  0  0  0  0
    3.9590   -3.3468    0.0000 H   0  0  0  0  0  0  0  0  0  0  0  0
    7.4040    0.0000    0.0000 H   0  0  0  0  0  0  0  0  0  0  0  0
    5.4641   -0.5000    0.0000 H   0  0  0  0  0  0  0  0  0  0  0  0
    6.5571   -2.8469    0.0000 H   0  0  0  0  0  0  0  0  0  0  0  0
    7.4040   -2.6200    0.0000 H   0  0  0  0  0  0  0  0  0  0  0  0
    7.1771   -1.7731    0.0000 H   0  0  0  0  0  0  0  0  0  0  0  0
    5.1350   -5.9300    0.0000 H   0  0  0  0  0  0  0  0  0  0  0  0
    8.5991    6.3100    0.0000 H   0  0  0  0  0  0  0  0  0  0  0  0
    7.4231   -1.3469    0.0000 H   0  0  0  0  0  0  0  0  0  0  0  0
    8.2700   -1.1200    0.0000 H   0  0  0  0  0  0  0  0  0  0  0  0
    8.0431   -0.2731    0.0000 H   0  0  0  0  0  0  0  0  0  0  0  0
    7.4040   -3.6200    0.0000 H   0  0  0  0  0  0  0  0  0  0  0  0
    3.9590   -4.2731    0.0000 H   0  0  0  0  0  0  0  0  0  0  0  0
    3.0044   -5.7850    0.0000 H   0  0  0  0  0  0  0  0  0  0  0  0
    3.8015   -5.7850    0.0000 H   0  0  0  0  0  0  0  0  0  0  0  0
    1.9264   -4.7023    0.0000 H   0  0  0  0  0  0  0  0  0  0  0  0
    2.3249   -5.3926    0.0000 H   0  0  0  0  0  0  0  0  0  0  0  0
    6.2471   -6.3100    0.0000 H   0  0  0  0  0  0  0  0  0  0  0  0
    6.8671   -6.9300    0.0000 H   0  0  0  0  0  0  0  0  0  0  0  0
    7.4871   -6.3100    0.0000 H   0  0  0  0  0  0  0  0  0  0  0  0
    3.9399   -3.6200    0.0000 H   0  0  0  0  0  0  0  0  0  0  0  0
    2.0000   -3.5000    0.0000 H   0  0  0  0  0  0  0  0  0  0  0  0
  1 11  1  0  0  0  0
  1 30  1  0  0  0  0
 12  2  1  6  0  0  0
  2 64  1  0  0  0  0
 18  3  1  1  0  0  0
  3 33  1  0  0  0  0
  4 23  2  0  0  0  0
  5 24  2  0  0  0  0
  6 25  2  0  0  0  0
  7 30  2  0  0  0  0
  8 24  1  0  0  0  0
  8 25  1  0  0  0  0
  8 60  1  0  0  0  0
  9 11  1  0  0  0  0
  9 12  1  0  0  0  0
  9 20  1  6  0  0  0
  9 36  1  0  0  0  0
 10 13  1  0  0  0  0
 10 15  1  0  0  0  0
 10 16  1  0  0  0  0
 10 37  1  0  0  0  0
 11 17  1  1  0  0  0
 11 38  1  0  0  0  0
 12 18  1  0  0  0  0
 12 39  1  0  0  0  0
 13 14  1  0  0  0  0
 13 40  1  0  0  0  0
 13 41  1  0  0  0  0
 14 19  1  0  0  0  0
 14 42  1  0  0  0  0
 14 43  1  0  0  0  0
 15 24  1  0  0  0  0
 15 44  1  0  0  0  0
 15 45  1  0  0  0  0
 16 25  1  0  0  0  0
 16 46  1  0  0  0  0
 16 47  1  0  0  0  0
 17 22  2  0  0  0  0
 17 26  1  0  0  0  0
 18 27  1  0  0  0  0
 18 48  1  0  0  0  0
 19 23  1  0  0  0  0
 19 49  1  0  0  0  0
 19 50  1  0  0  0  0
 20 51  1  0  0  0  0
 20 52  1  0  0  0  0
 20 53  1  0  0  0  0
 21 22  1  0  0  0  0
 21 23  1  0  0  0  0
 21 28  1  1  0  0  0
 21 54  1  0  0  0  0
 22 55  1  0  0  0  0
 26 56  1  0  0  0  0
 26 57  1  0  0  0  0
 26 58  1  0  0  0  0
 27 29  2  0  0  0  0
 27 59  1  0  0  0  0
 28 61  1  0  0  0  0
 28 62  1  0  0  0  0
 28 63  1  0  0  0  0
 29 31  1  0  0  0  0
 29 65  1  0  0  0  0
 30 34  1  0  0  0  0
 31 32  1  0  0  0  0
 31 66  1  0  0  0  0
 31 67  1  0  0  0  0
 32 35  1  0  0  0  0
 32 68  1  0  0  0  0
 32 69  1  0  0  0  0
 33 70  1  0  0  0  0
 33 71  1  0  0  0  0
 33 72  1  0  0  0  0
 34 35  2  0  0  0  0
 34 73  1  0  0  0  0
 35 74  1  0  0  0  0
M  END
> <PUBCHEM_COMPOUND_CID>
15940571

> <PUBCHEM_COMPOUND_CANONICALIZED>
1

> <PUBCHEM_CACTVS_COMPLEXITY>
844

> <PUBCHEM_CACTVS_HBOND_ACCEPTOR>
7

> <PUBCHEM_CACTVS_HBOND_DONOR>
2

> <PUBCHEM_CACTVS_ROTATABLE_BOND>
8

> <PUBCHEM_CACTVS_SUBSKEYS>
AAADcfB6OAAAAAAAAAAAAAAAAAAAAAAAAAAsAAAAAAAAAAAAAAAAHgAQCAAADRShgAICCALABgCIAqHSGAAAAAAgAAAICAEAAEgBFBIAoQAGUAAF1CCLIYPYy8COAAAAAAAAAAAAAAAAAAAAAAAAAAAAAA==

> <PUBCHEM_IUPAC_OPENEYE_NAME>
4-[(E,5S)-7-[(2R,3S,4S,5S,6E,10E)-4-hydroxy-5-methoxy-3-methyl-12-oxo-1-oxacyclododeca-6,10-dien-2-yl]-5-methyl-4-oxo-oct-6-enyl]piperidine-2,6-dione

> <PUBCHEM_IUPAC_CAS_NAME>
4-[(E,5S)-7-[(2R,3S,4S,5S,6E,10E)-4-hydroxy-5-methoxy-3-methyl-12-oxo-1-oxacyclododeca-6,10-dien-2-yl]-5-methyl-4-oxooct-6-enyl]piperidine-2,6-dione

> <PUBCHEM_IUPAC_NAME>
4-[(E,5S)-7-[(2R,3S,4S,5S,6E,10E)-4-hydroxy-5-methoxy-3-methyl-12-oxo-1-oxacyclododeca-6,10-dien-2-yl]-5-methyl-4-oxooct-6-enyl]piperidine-2,6-dione

> <PUBCHEM_IUPAC_SYSTEMATIC_NAME>
4-[(E,5S)-7-[(2R,3S,4S,5S,6E,10E)-5-methoxy-3-methyl-4-oxidanyl-12-oxidanylidene-1-oxacyclododeca-6,10-dien-2-yl]-5-methyl-4-oxidanylidene-oct-6-enyl]piperidine-2,6-dione

> <PUBCHEM_IUPAC_TRADITIONAL_NAME>
4-[(E,5S)-7-[(2R,3S,4S,5S,6E,10E)-4-hydroxy-12-keto-5-methoxy-3-methyl-1-oxacyclododeca-6,10-dien-2-yl]-4-keto-5-methyl-oct-6-enyl]piperidine-2,6-quinone

> <PUBCHEM_IUPAC_INCHI>
InChI=1S/C27H39NO7/c1-17(21(29)11-9-10-20-15-23(30)28-24(31)16-20)14-18(2)27-19(3)26(33)22(34-4)12-7-5-6-8-13-25(32)35-27/h7-8,12-14,17,19-20,22,26-27,33H,5-6,9-11,15-16H2,1-4H3,(H,28,30,31)/b12-7+,13-8+,18-14+/t17-,19-,22-,26-,27-/m0/s1

> <PUBCHEM_IUPAC_INCHIKEY>
TYTDEHCAAKKYOG-FEJRZXFSSA-N

> <PUBCHEM_XLOGP3_AA>
2.8

> <PUBCHEM_EXACT_MASS>
489.272653

> <PUBCHEM_MOLECULAR_FORMULA>
C27H39NO7

> <PUBCHEM_MOLECULAR_WEIGHT>
489.60106

> <PUBCHEM_OPENEYE_CAN_SMILES>
CC1C(C(C=CCCC=CC(=O)OC1C(=CC(C)C(=O)CCCC2CC(=O)NC(=O)C2)C)OC)O

> <PUBCHEM_OPENEYE_ISO_SMILES>
C[C@H]1[C@@H]([C@H](/C=C/CC/C=C/C(=O)O[C@H]1/C(=C/[C@H](C)C(=O)CCCC2CC(=O)NC(=O)C2)/C)OC)O

> <PUBCHEM_CACTVS_TPSA>
119

> <PUBCHEM_MONOISOTOPIC_WEIGHT>
489.272653

> <PUBCHEM_TOTAL_CHARGE>
0

> <PUBCHEM_HEAVY_ATOM_COUNT>
35

> <PUBCHEM_ATOM_DEF_STEREO_COUNT>
5

> <PUBCHEM_ATOM_UDEF_STEREO_COUNT>
0

> <PUBCHEM_BOND_DEF_STEREO_COUNT>
3

> <PUBCHEM_BOND_UDEF_STEREO_COUNT>
0

> <PUBCHEM_ISOTOPIC_ATOM_COUNT>
0

> <PUBCHEM_COMPONENT_COUNT>
1

> <PUBCHEM_CACTVS_TAUTO_COUNT>
25

> <PUBCHEM_COORDINATE_TYPE>
1
5
255

> <PUBCHEM_BONDANNOTATIONS>
11  17  5
12  2  6
21  28  5
18  3  5
9  20  6

$$$$

