440051
  -OEChem-07051212482D

 50 54  0     1  0  0  0  0  0999 V2000
    5.5083    0.8543    0.0000 O   0  0  0  0  0  0  0  0  0  0  0  0
    9.2696   -1.4578    0.0000 O   0  0  0  0  0  0  0  0  0  0  0  0
    2.5636   -0.2463    0.0000 O   0  0  0  0  0  0  0  0  0  0  0  0
    3.1232   -2.1068    0.0000 O   0  0  0  0  0  0  0  0  0  0  0  0
    3.0864    1.4108    0.0000 O   0  0  0  0  0  0  0  0  0  0  0  0
    6.5851    2.0827    0.0000 O   0  0  0  0  0  0  0  0  0  0  0  0
    4.8592    1.9372    0.0000 O   0  0  0  0  0  0  0  0  0  0  0  0
    6.5764   -0.0340    0.0000 C   0  0  1  0  0  0  0  0  0  0  0  0
    5.3624   -0.8796    0.0000 C   0  0  2  0  0  0  0  0  0  0  0  0
    6.2744   -0.9012    0.0000 C   0  0  2  0  0  0  0  0  0  0  0  0
    5.0993   -0.0056    0.0000 C   0  0  2  0  0  0  0  0  0  0  0  0
    5.8481    0.5152    0.0000 C   0  0  2  0  0  0  0  0  0  0  0  0
    4.1821    0.2104    0.0000 C   0  0  3  0  0  0  0  0  0  0  0  0
    7.2724   -0.8664    0.0000 C   0  0  0  0  0  0  0  0  0  0  0  0
    8.3252   -1.1290    0.0000 C   0  0  2  0  0  0  0  0  0  0  0  0
    7.4432    0.2707    0.0000 C   0  0  0  0  0  0  0  0  0  0  0  0
    6.7647   -1.6777    0.0000 C   0  0  0  0  0  0  0  0  0  0  0  0
    4.7246   -1.5942    0.0000 C   0  0  0  0  0  0  0  0  0  0  0  0
    7.6770   -1.7790    0.0000 C   0  0  0  0  0  0  0  0  0  0  0  0
    3.5369   -0.4758    0.0000 C   0  0  2  0  0  0  0  0  0  0  0  0
    3.8084   -1.3784    0.0000 C   0  0  1  0  0  0  0  0  0  0  0  0
    8.2208   -0.2164    0.0000 C   0  0  0  0  0  0  0  0  0  0  0  0
    3.9172    0.8543    0.0000 C   0  0  0  0  0  0  0  0  0  0  0  0
    5.7641    1.5117    0.0000 C   0  0  0  0  0  0  0  0  0  0  0  0
    3.1986    0.3916    0.0000 C   0  0  0  0  0  0  0  0  0  0  0  0
    9.0244    0.3788    0.0000 C   0  0  0  0  0  0  0  0  0  0  0  0
    5.8553   -1.6407    0.0000 H   0  0  0  0  0  0  0  0  0  0  0  0
    4.6643    0.7246    0.0000 H   0  0  0  0  0  0  0  0  0  0  0  0
    6.3909    0.8148    0.0000 H   0  0  0  0  0  0  0  0  0  0  0  0
    7.3152   -1.4849    0.0000 H   0  0  0  0  0  0  0  0  0  0  0  0
    6.6972   -1.0980    0.0000 H   0  0  0  0  0  0  0  0  0  0  0  0
    7.1126    0.7952    0.0000 H   0  0  0  0  0  0  0  0  0  0  0  0
    7.8810    0.7097    0.0000 H   0  0  0  0  0  0  0  0  0  0  0  0
    6.8352   -2.2937    0.0000 H   0  0  0  0  0  0  0  0  0  0  0  0
    6.1799   -1.8836    0.0000 H   0  0  0  0  0  0  0  0  0  0  0  0
    5.2489   -1.9250    0.0000 H   0  0  0  0  0  0  0  0  0  0  0  0
    4.4848   -2.1659    0.0000 H   0  0  0  0  0  0  0  0  0  0  0  0
    8.2024   -2.1081    0.0000 H   0  0  0  0  0  0  0  0  0  0  0  0
    7.4731   -2.3645    0.0000 H   0  0  0  0  0  0  0  0  0  0  0  0
    3.1120   -0.9273    0.0000 H   0  0  0  0  0  0  0  0  0  0  0  0
    3.2049   -1.2363    0.0000 H   0  0  0  0  0  0  0  0  0  0  0  0
    3.0863   -0.2181    0.0000 H   0  0  0  0  0  0  0  0  0  0  0  0
    2.5889    0.5039    0.0000 H   0  0  0  0  0  0  0  0  0  0  0  0
    3.3110    1.0013    0.0000 H   0  0  0  0  0  0  0  0  0  0  0  0
    9.3858   -2.0668    0.0000 H   0  0  0  0  0  0  0  0  0  0  0  0
    8.9540    0.9947    0.0000 H   0  0  0  0  0  0  0  0  0  0  0  0
    9.5931    0.1318    0.0000 H   0  0  0  0  0  0  0  0  0  0  0  0
    2.1387   -0.6978    0.0000 H   0  0  0  0  0  0  0  0  0  0  0  0
    3.3019   -2.7005    0.0000 H   0  0  0  0  0  0  0  0  0  0  0  0
    6.5330    2.7005    0.0000 H   0  0  0  0  0  0  0  0  0  0  0  0
  9  1  1  1  0  0  0
  1 23  1  0  0  0  0
 15  2  1  1  0  0  0
  2 45  1  0  0  0  0
 20  3  1  6  0  0  0
  3 48  1  0  0  0  0
 21  4  1  6  0  0  0
  4 49  1  0  0  0  0
  5 23  2  0  0  0  0
  6 24  1  0  0  0  0
  6 50  1  0  0  0  0
  7 24  2  0  0  0  0
  8 10  1  0  0  0  0
  8 12  1  0  0  0  0
  8 14  1  1  0  0  0
  8 16  1  0  0  0  0
  9 10  1  0  0  0  0
  9 11  1  0  0  0  0
  9 18  1  0  0  0  0
 10 17  1  0  0  0  0
 10 27  1  6  0  0  0
 11 12  1  0  0  0  0
 11 13  1  0  0  0  0
 11 28  1  6  0  0  0
 12 24  1  6  0  0  0
 12 29  1  0  0  0  0
 13 20  1  0  0  0  0
 13 23  1  0  0  0  0
 13 25  1  0  0  0  0
 14 15  1  0  0  0  0
 14 30  1  0  0  0  0
 14 31  1  0  0  0  0
 15 19  1  0  0  0  0
 15 22  1  0  0  0  0
 16 22  1  0  0  0  0
 16 32  1  0  0  0  0
 16 33  1  0  0  0  0
 17 19  1  0  0  0  0
 17 34  1  0  0  0  0
 17 35  1  0  0  0  0
 18 21  1  0  0  0  0
 18 36  1  0  0  0  0
 18 37  1  0  0  0  0
 19 38  1  0  0  0  0
 19 39  1  0  0  0  0
 20 21  1  0  0  0  0
 20 40  1  0  0  0  0
 21 41  1  0  0  0  0
 22 26  2  0  0  0  0
 25 42  1  0  0  0  0
 25 43  1  0  0  0  0
 25 44  1  0  0  0  0
 26 46  1  0  0  0  0
 26 47  1  0  0  0  0
M  END
> <PUBCHEM_COMPOUND_CID>
440051

> <PUBCHEM_COMPOUND_CANONICALIZED>
1

> <PUBCHEM_CACTVS_COMPLEXITY>
763

> <PUBCHEM_CACTVS_HBOND_ACCEPTOR>
7

> <PUBCHEM_CACTVS_HBOND_DONOR>
4

> <PUBCHEM_CACTVS_ROTATABLE_BOND>
1

> <PUBCHEM_CACTVS_SUBSKEYS>
AAADceB4OAAAAAAAAAAAAAAAAAAAAaMEAAAwYAAABogSAGDAAAAAGgAACAAAD1SggAICCAAABgCIAgDSCAAAAAAgAAAAAAEAAAgBFBYAAQACQAAFoAABEAHK7vzPgAAAAAAAAADCAAYQADCAAYAADAAAAA==

> <PUBCHEM_IUPAC_INCHI>
InChI=1S/C19H24O7/c1-8-5-17-7-18(8,25)4-3-10(17)19-6-9(20)13(21)16(2,15(24)26-19)12(19)11(17)14(22)23/h9-13,20-21,25H,1,3-7H2,2H3,(H,22,23)/t9-,10+,11+,12+,13-,16?,17-,18-,19+/m0/s1

> <PUBCHEM_IUPAC_INCHIKEY>
WZRRJZYYGOOHRC-JXHFLFEZSA-N

> <PUBCHEM_XLOGP3_AA>
-0.7

> <PUBCHEM_EXACT_MASS>
364.152203

> <PUBCHEM_MOLECULAR_FORMULA>
C19H24O7

> <PUBCHEM_MOLECULAR_WEIGHT>
364.38966

> <PUBCHEM_OPENEYE_CAN_SMILES>
CC12C3C(C45CC(=C)C(C4)(CCC5C3(CC(C1O)O)OC2=O)O)C(=O)O

> <PUBCHEM_OPENEYE_ISO_SMILES>
CC12[C@H]3[C@@H]([C@@]45CC(=C)[C@@](C4)(CC[C@H]5[C@@]3(C[C@@H]([C@@H]1O)O)OC2=O)O)C(=O)O

> <PUBCHEM_CACTVS_TPSA>
124

> <PUBCHEM_MONOISOTOPIC_WEIGHT>
364.152203

> <PUBCHEM_TOTAL_CHARGE>
0

> <PUBCHEM_HEAVY_ATOM_COUNT>
26

> <PUBCHEM_ATOM_DEF_STEREO_COUNT>
8

> <PUBCHEM_ATOM_UDEF_STEREO_COUNT>
1

> <PUBCHEM_BOND_DEF_STEREO_COUNT>
0

> <PUBCHEM_BOND_UDEF_STEREO_COUNT>
0

> <PUBCHEM_ISOTOPIC_ATOM_COUNT>
0

> <PUBCHEM_COMPONENT_COUNT>
1

> <PUBCHEM_CACTVS_TAUTO_COUNT>
1

> <PUBCHEM_COORDINATE_TYPE>
1
5
255

> <PUBCHEM_BONDANNOTATIONS>
9  1  5
10  27  6
11  28  6
12  24  6
13  25  3
15  2  5
20  3  6
21  4  6
8  14  5

$$$$

