443564
  -OEChem-07051213022D

 61 62  0     1  0  0  0  0  0999 V2000
    5.8301   -2.7710    0.0000 O   0  0  0  0  0  0  0  0  0  0  0  0
    5.9881   -0.8447    0.0000 O   0  0  0  0  0  0  0  0  0  0  0  0
    5.4641   -0.4050    0.0000 O   0  0  0  0  0  0  0  0  0  0  0  0
    2.8660   -1.9050    0.0000 O   0  0  0  0  0  0  0  0  0  0  0  0
    2.8660    1.0950    0.0000 O   0  0  0  0  0  0  0  0  0  0  0  0
    5.4641    2.5950    0.0000 O   0  0  0  0  0  0  0  0  0  0  0  0
    3.7320    2.5950    0.0000 O   0  0  0  0  0  0  0  0  0  0  0  0
    6.3301   -1.9050    0.0000 C   0  0  2  0  0  0  0  0  0  0  0  0
    7.1962   -1.4050    0.0000 C   0  0  0  0  0  0  0  0  0  0  0  0
    6.8301   -2.7710    0.0000 C   0  0  0  0  0  0  0  0  0  0  0  0
    7.1962   -0.4050    0.0000 C   0  0  1  0  0  0  0  0  0  0  0  0
    5.4641   -1.4050    0.0000 C   0  0  0  0  0  0  0  0  0  0  0  0
    6.3301    0.0950    0.0000 C   0  0  1  0  0  0  0  0  0  0  0  0
    4.5981   -1.9050    0.0000 C   0  0  1  0  0  0  0  0  0  0  0  0
    6.3301    1.0950    0.0000 C   0  0  2  0  0  0  0  0  0  0  0  0
    3.7320   -1.4050    0.0000 C   0  0  2  0  0  0  0  0  0  0  0  0
    5.4641    1.5950    0.0000 C   0  0  1  0  0  0  0  0  0  0  0  0
    3.7320   -0.4050    0.0000 C   0  0  2  0  0  0  0  0  0  0  0  0
    8.0622    0.0950    0.0000 C   0  0  0  0  0  0  0  0  0  0  0  0
    4.5981    1.0950    0.0000 C   0  0  2  0  0  0  0  0  0  0  0  0
    4.5981   -2.9050    0.0000 C   0  0  0  0  0  0  0  0  0  0  0  0
    2.8660    0.0950    0.0000 C   0  0  1  0  0  0  0  0  0  0  0  0
    7.1962    1.5950    0.0000 C   0  0  0  0  0  0  0  0  0  0  0  0
    4.5981    0.0950    0.0000 C   0  0  0  0  0  0  0  0  0  0  0  0
    3.7320    1.5950    0.0000 C   0  0  0  0  0  0  0  0  0  0  0  0
    3.7321    0.5949    0.0000 C   0  0  0  0  0  0  0  0  0  0  0  0
    2.0000   -0.4050    0.0000 C   0  0  0  0  0  0  0  0  0  0  0  0
    7.4082   -1.9876    0.0000 H   0  0  0  0  0  0  0  0  0  0  0  0
    7.8067   -1.2973    0.0000 H   0  0  0  0  0  0  0  0  0  0  0  0
    6.9378   -3.3816    0.0000 H   0  0  0  0  0  0  0  0  0  0  0  0
    7.4127   -2.5590    0.0000 H   0  0  0  0  0  0  0  0  0  0  0  0
    7.7331   -0.7150    0.0000 H   0  0  0  0  0  0  0  0  0  0  0  0
    5.7196    0.2027    0.0000 H   0  0  0  0  0  0  0  0  0  0  0  0
    5.1350   -2.2150    0.0000 H   0  0  0  0  0  0  0  0  0  0  0  0
    6.8671    0.7850    0.0000 H   0  0  0  0  0  0  0  0  0  0  0  0
    3.7320   -2.0250    0.0000 H   0  0  0  0  0  0  0  0  0  0  0  0
    6.0010    1.9050    0.0000 H   0  0  0  0  0  0  0  0  0  0  0  0
    3.7320    0.2150    0.0000 H   0  0  0  0  0  0  0  0  0  0  0  0
    8.3722   -0.4419    0.0000 H   0  0  0  0  0  0  0  0  0  0  0  0
    8.5991    0.4050    0.0000 H   0  0  0  0  0  0  0  0  0  0  0  0
    7.7522    0.6319    0.0000 H   0  0  0  0  0  0  0  0  0  0  0  0
    4.9081    0.5581    0.0000 H   0  0  0  0  0  0  0  0  0  0  0  0
    3.9781   -2.9050    0.0000 H   0  0  0  0  0  0  0  0  0  0  0  0
    4.5981   -3.5250    0.0000 H   0  0  0  0  0  0  0  0  0  0  0  0
    5.2181   -2.9050    0.0000 H   0  0  0  0  0  0  0  0  0  0  0  0
    2.3291    0.4050    0.0000 H   0  0  0  0  0  0  0  0  0  0  0  0
    7.5062    1.0581    0.0000 H   0  0  0  0  0  0  0  0  0  0  0  0
    7.7331    1.9050    0.0000 H   0  0  0  0  0  0  0  0  0  0  0  0
    6.8862    2.1319    0.0000 H   0  0  0  0  0  0  0  0  0  0  0  0
    6.5707   -1.0567    0.0000 H   0  0  0  0  0  0  0  0  0  0  0  0
    4.9081   -0.4419    0.0000 H   0  0  0  0  0  0  0  0  0  0  0  0
    5.1350    0.4050    0.0000 H   0  0  0  0  0  0  0  0  0  0  0  0
    4.2881    0.6319    0.0000 H   0  0  0  0  0  0  0  0  0  0  0  0
    2.8660   -2.5250    0.0000 H   0  0  0  0  0  0  0  0  0  0  0  0
    3.4220    1.1318    0.0000 H   0  0  0  0  0  0  0  0  0  0  0  0
    3.1952    0.2849    0.0000 H   0  0  0  0  0  0  0  0  0  0  0  0
    4.0422    0.0580    0.0000 H   0  0  0  0  0  0  0  0  0  0  0  0
    1.6900    0.1319    0.0000 H   0  0  0  0  0  0  0  0  0  0  0  0
    1.4631   -0.7150    0.0000 H   0  0  0  0  0  0  0  0  0  0  0  0
    2.3100   -0.9419    0.0000 H   0  0  0  0  0  0  0  0  0  0  0  0
    6.0010    2.9050    0.0000 H   0  0  0  0  0  0  0  0  0  0  0  0
  8  1  1  6  0  0  0
  1 10  1  0  0  0  0
 13  2  1  6  0  0  0
  2 50  1  0  0  0  0
  3 12  2  0  0  0  0
 16  4  1  1  0  0  0
  4 54  1  0  0  0  0
  5 22  1  0  0  0  0
  5 25  1  0  0  0  0
 17  6  1  1  0  0  0
  6 61  1  0  0  0  0
  7 25  2  0  0  0  0
  8  9  1  0  0  0  0
  8 10  1  0  0  0  0
  8 12  1  0  0  0  0
  9 11  1  0  0  0  0
  9 28  1  0  0  0  0
  9 29  1  0  0  0  0
 10 30  1  0  0  0  0
 10 31  1  0  0  0  0
 11 13  1  0  0  0  0
 11 19  1  1  0  0  0
 11 32  1  0  0  0  0
 12 14  1  0  0  0  0
 13 15  1  0  0  0  0
 13 33  1  0  0  0  0
 14 16  1  0  0  0  0
 14 21  1  6  0  0  0
 14 34  1  0  0  0  0
 15 17  1  0  0  0  0
 15 23  1  6  0  0  0
 15 35  1  0  0  0  0
 16 18  1  0  0  0  0
 16 36  1  0  0  0  0
 17 20  1  0  0  0  0
 17 37  1  0  0  0  0
 18 22  1  0  0  0  0
 18 24  1  6  0  0  0
 18 38  1  0  0  0  0
 19 39  1  0  0  0  0
 19 40  1  0  0  0  0
 19 41  1  0  0  0  0
 20 25  1  0  0  0  0
 20 26  1  1  0  0  0
 20 42  1  0  0  0  0
 21 43  1  0  0  0  0
 21 44  1  0  0  0  0
 21 45  1  0  0  0  0
 22 27  1  1  0  0  0
 22 46  1  0  0  0  0
 23 47  1  0  0  0  0
 23 48  1  0  0  0  0
 23 49  1  0  0  0  0
 24 51  1  0  0  0  0
 24 52  1  0  0  0  0
 24 53  1  0  0  0  0
 26 55  1  0  0  0  0
 26 56  1  0  0  0  0
 26 57  1  0  0  0  0
 27 58  1  0  0  0  0
 27 59  1  0  0  0  0
 27 60  1  0  0  0  0
M  END
> <PUBCHEM_COMPOUND_CID>
443564

> <PUBCHEM_COMPOUND_CANONICALIZED>
1

> <PUBCHEM_CACTVS_COMPLEXITY>
565

> <PUBCHEM_CACTVS_HBOND_ACCEPTOR>
7

> <PUBCHEM_CACTVS_HBOND_DONOR>
3

> <PUBCHEM_CACTVS_ROTATABLE_BOND>
0

> <PUBCHEM_CACTVS_SUBSKEYS>
AAADcfB4OAAAAAAAAAAAAAAAEgAAAAAAAAAAAAAAAAAAAAAAAAAAGgAACAAADVSggAICCAAABgAIAICQCAIAAAAAAAAAAAFAAAAAEBYAAAQCQAAFIAAAAAHI7PzOAAAAAAAAAAAAAAAAAAAAAAAAAAAAAA==

> <PUBCHEM_IUPAC_OPENEYE_NAME>
(14R,15R,16S,17R,18R,21R,22S,23R,24S,25S)-16,22,24-trihydroxy-15,17,18,21,23,25-hexamethyl-1,19-dioxaspiro[2.13]hexadecane-14,20-dione

> <PUBCHEM_IUPAC_CAS_NAME>
(14R,15R,16S,17R,18R,21R,22S,23R,24S,25S)-16,22,24-trihydroxy-15,17,18,21,23,25-hexamethyl-1,19-dioxaspiro[2.13]hexadecane-14,20-dione

> <PUBCHEM_IUPAC_NAME>
(14R,15R,16S,17R,18R,21R,22S,23R,24S,25S)-16,22,24-trihydroxy-15,17,18,21,23,25-hexamethyl-1,19-dioxaspiro[2.13]hexadecane-14,20-dione

> <PUBCHEM_IUPAC_SYSTEMATIC_NAME>
(14R,15R,16S,17R,18R,21R,22S,23R,24S,25S)-15,17,18,21,23,25-hexamethyl-16,22,24-tris(oxidanyl)-1,19-dioxaspiro[2.13]hexadecane-14,20-dione

> <PUBCHEM_IUPAC_TRADITIONAL_NAME>
(14R,15R,16S,17R,18R,21R,22S,23R,24S,25S)-16,22,24-trihydroxy-15,17,18,21,23,25-hexamethyl-1,19-dioxaspiro[2.13]hexadecane-14,20-quinone

> <PUBCHEM_IUPAC_INCHI>
InChI=1S/C20H34O7/c1-9-7-20(8-26-20)18(24)12(4)16(22)10(2)14(6)27-19(25)13(5)17(23)11(3)15(9)21/h9-17,21-23H,7-8H2,1-6H3/t9-,10-,11+,12+,13+,14+,15-,16-,17-,20+/m0/s1

> <PUBCHEM_IUPAC_INCHIKEY>
PFDLUBNRHMFBGI-HRVFELILSA-N

> <PUBCHEM_XLOGP3_AA>
1.5

> <PUBCHEM_EXACT_MASS>
386.230453

> <PUBCHEM_MOLECULAR_FORMULA>
C20H34O7

> <PUBCHEM_MOLECULAR_WEIGHT>
386.47976

> <PUBCHEM_OPENEYE_CAN_SMILES>
CC1CC2(CO2)C(=O)C(C(C(C(OC(=O)C(C(C(C1O)C)O)C)C)C)O)C

> <PUBCHEM_OPENEYE_ISO_SMILES>
C[C@H]1C[C@@]2(CO2)C(=O)[C@@H]([C@H]([C@H]([C@H](OC(=O)[C@@H]([C@H]([C@@H]([C@H]1O)C)O)C)C)C)O)C

> <PUBCHEM_CACTVS_TPSA>
117

> <PUBCHEM_MONOISOTOPIC_WEIGHT>
386.230453

> <PUBCHEM_TOTAL_CHARGE>
0

> <PUBCHEM_HEAVY_ATOM_COUNT>
27

> <PUBCHEM_ATOM_DEF_STEREO_COUNT>
10

> <PUBCHEM_ATOM_UDEF_STEREO_COUNT>
0

> <PUBCHEM_BOND_DEF_STEREO_COUNT>
0

> <PUBCHEM_BOND_UDEF_STEREO_COUNT>
0

> <PUBCHEM_ISOTOPIC_ATOM_COUNT>
0

> <PUBCHEM_COMPONENT_COUNT>
1

> <PUBCHEM_CACTVS_TAUTO_COUNT>
4

> <PUBCHEM_COORDINATE_TYPE>
1
5
255

> <PUBCHEM_BONDANNOTATIONS>
8  1  6
11  19  5
14  21  6
15  23  6
18  24  6
13  2  6
20  26  5
22  27  5
16  4  5
17  6  5

$$$$

