   Color/Form

     * Colorless powder
     * White, crystalline
     * Crystalline solid

   from [1]HSDB

   Melting Point
        91 to 92 deg C
   from [2]HSDB

   Corrosivity
        Non-corrosive under common application conditions
   from [3]HSDB

   Density/Specific Gravity
        1.088 at 20 deg C (units not specified)
   from [4]HSDB

   Dissociation Constants
        pKa = 4.3 at 21 deg C
   from [5]HSDB

   Octanol/Water Partition Coefficient
        log Kow = 2.99
   from [6]HSDB

   Solubilities

     * READILY SOL IN CHLOROFORM
     * 150 g/L octan-1-ol
     * In benzene >250, methanol, acetone >500, dichloromethane 350,
       toluene 250 (all in g/L, 20 deg C).
     * Organic solvents g/100 mL at 20 deg C: n-hexane 1.2, methanol 60,
       cycylohexane 4.9, n-octanol 26
     * Very soluble in organic solvents
     * In water, 750 mg/L at 20 deg C

   from [7]HSDB

   Vapor Pressure
        2.3X10-6 mm Hg at 20 deg C
   from [8]HSDB

   Other Chemical/Physical Properties

     * HEATING PROMETONE @ 260 DEG C PRODUCES ISOMERIZATION & DISMUTATION
       PRODUCTS
     * Stable to hydrolysis at 20 deg C in neutral, slightly acidic or
       slightly alkaline media. Hydrolyzed by acids or alkalis on warming.
       Decomposed by u.v. irradiation.
     * Relatively stable at neutral pH, but hydrolyzes in strong acid or
       base; Decomposed by UV light.
     * Henry's Law constant = 9.09X10-10 atm-cu m/mol at 25 deg C (est)
     * Hydroxyl radical reaction rate constant = 3.79X10-11 cu
       cm/molec-sec at 25 deg C (est)

   from [9]HSDB

   Computed Properties
   Molecular Weight                  225.29076 [g/mol]
   Molecular Formula                 C[10]H[19]N[5]O
   XLogP3                            3
   H-Bond Donor                      2
   H-Bond Acceptor                   6
   Rotatable Bond Count              5
   Tautomer Count                    5
   Exact Mass                        225.15896
   MonoIsotopic Mass                 225.15896
   Topological Polar Surface Area    72
   Heavy Atom Count                  16
   Formal Charge                     0
   Complexity                        182
   Isotope Atom Count                0
   Defined Atom Stereocenter Count   0
   Undefined Atom Stereocenter Count 0
   Defined Bond Stereocenter Count   0
   Undefined Bond Stereocenter Count 0
   Covalently-Bonded Unit Count      1
   Feature 3D Donor Count            2
   Feature 3D Cation Count           2
   Feature 3D Hydrophobe Count       2
   Feature 3D Ring Count             1
   Effective Rotor Count             5
   Conformer Sampling RMSD           0.6
   CID Conformer Count               [10]74

References

   1. http://toxnet.nlm.nih.gov/cgi-bin/sis/search/r?dbs+hsdb:@term+@rn+@rel+1610-18-0
   2. http://toxnet.nlm.nih.gov/cgi-bin/sis/search/r?dbs+hsdb:@term+@rn+@rel+1610-18-0
   3. http://toxnet.nlm.nih.gov/cgi-bin/sis/search/r?dbs+hsdb:@term+@rn+@rel+1610-18-0
   4. http://toxnet.nlm.nih.gov/cgi-bin/sis/search/r?dbs+hsdb:@term+@rn+@rel+1610-18-0
   5. http://toxnet.nlm.nih.gov/cgi-bin/sis/search/r?dbs+hsdb:@term+@rn+@rel+1610-18-0
   6. http://toxnet.nlm.nih.gov/cgi-bin/sis/search/r?dbs+hsdb:@term+@rn+@rel+1610-18-0
   7. http://toxnet.nlm.nih.gov/cgi-bin/sis/search/r?dbs+hsdb:@term+@rn+@rel+1610-18-0
   8. http://toxnet.nlm.nih.gov/cgi-bin/sis/search/r?dbs+hsdb:@term+@rn+@rel+1610-18-0
   9. http://toxnet.nlm.nih.gov/cgi-bin/sis/search/r?dbs+hsdb:@term+@rn+@rel+1610-18-0
  10. http://pubchem.ncbi.nlm.nih.gov/vw3d/vw3d.cgi?cid=4928
