   Color/Form

     * Colorless powder
     * White to off-white powder

   from [1]HSDB

   Odor
        Odorless
   from [2]HSDB

   Melting Point
        84 deg C
   from [3]HSDB

   Density/Specific Gravity
        1.72 g/mL
   from [4]HSDB

   Octanol/Water Partition Coefficient
        log Kow = 3.24
   from [5]HSDB

   Solubilities

     * Acetone 32 g/100 ml; dichloromethane 50 g/100 ml; ethyl acetate 23
       g/100 ml; n-hexane 0.2 g/100ml; MeOH 30 g/100 ml; 1-octanol 6 g/100
       ml; 2-propanol 6 g/100 ml; toluene 22 g/100 ml; water (distilled)
       61 mg/L; water (pH 5) 52 mg/L
     * Moderate to high solubility in organic solvents.
     * In water, 50 mg/L at 25 deg C

   from [6]HSDB

   Vapor Pressure
        3X10-8 mm Hg at 25 deg C
   from [7]HSDB

   Other Chemical/Physical Properties

     * Henry's Law constant = 8.2X10-11 atm-cu m/mole at 25 deg C
     * Hydroxyl radical reaction rate constant = 8.7X10-12 cu
       cm/molecule-sec at 25 deg C (est)

   from [8]HSDB

   Computed Properties
   Molecular Weight                  377.06388 [g/mol]
   Molecular Formula                 C[13]H[12]BrCl[2]N[3]O
   XLogP3                            3.6
   H-Bond Donor                      0
   H-Bond Acceptor                   3
   Rotatable Bond Count              3
   Exact Mass                        374.954079
   MonoIsotopic Mass                 374.954079
   Topological Polar Surface Area    39.9
   Heavy Atom Count                  20
   Formal Charge                     0
   Complexity                        352
   Isotope Atom Count                0
   Defined Atom Stereocenter Count   0
   Undefined Atom Stereocenter Count 2
   Defined Bond Stereocenter Count   0
   Undefined Bond Stereocenter Count 0
   Covalently-Bonded Unit Count      1
   Feature 3D Acceptor Count         1
   Feature 3D Cation Count           2
   Feature 3D Hydrophobe Count       1
   Feature 3D Ring Count             3
   Effective Rotor Count             4
   Conformer Sampling RMSD           0.6
   CID Conformer Count               [9]60

References

   1. http://toxnet.nlm.nih.gov/cgi-bin/sis/search/r?dbs+hsdb:@term+@rn+@rel+116255-48-2
   2. http://toxnet.nlm.nih.gov/cgi-bin/sis/search/r?dbs+hsdb:@term+@rn+@rel+116255-48-2
   3. http://toxnet.nlm.nih.gov/cgi-bin/sis/search/r?dbs+hsdb:@term+@rn+@rel+116255-48-2
   4. http://toxnet.nlm.nih.gov/cgi-bin/sis/search/r?dbs+hsdb:@term+@rn+@rel+116255-48-2
   5. http://toxnet.nlm.nih.gov/cgi-bin/sis/search/r?dbs+hsdb:@term+@rn+@rel+116255-48-2
   6. http://toxnet.nlm.nih.gov/cgi-bin/sis/search/r?dbs+hsdb:@term+@rn+@rel+116255-48-2
   7. http://toxnet.nlm.nih.gov/cgi-bin/sis/search/r?dbs+hsdb:@term+@rn+@rel+116255-48-2
   8. http://toxnet.nlm.nih.gov/cgi-bin/sis/search/r?dbs+hsdb:@term+@rn+@rel+116255-48-2
   9. http://pubchem.ncbi.nlm.nih.gov/vw3d/vw3d.cgi?cid=3444
