656577
  -OEChem-07051213012D

 58 62  0     0  0  0  0  0  0999 V2000
   12.1868   -3.9568    0.0000 I  -2  0  0  0  0  0  0  0  0  0  0  0
    6.0682   -1.4226    0.0000 O   0  0  0  0  0  0  0  0  0  0  0  0
    3.8755    3.1908    0.0000 O   0  0  0  0  0  0  0  0  0  0  0  0
    3.5746    1.4850    0.0000 O   0  0  0  0  0  0  0  0  0  0  0  0
   10.4702    0.0499    0.0000 O   0  0  0  0  0  0  0  0  0  0  0  0
   10.4586   -2.9501    0.0000 O   0  0  0  0  0  0  0  0  0  0  0  0
    9.5984   -1.4468    0.0000 N   0  3  0  0  0  0  0  0  0  0  0  0
    2.5381   -1.4468    0.0000 N   0  0  0  0  0  0  0  0  0  0  0  0
   13.9227   -2.9634    0.0000 N   0  0  0  0  0  0  0  0  0  0  0  0
   14.7906   -2.4668    0.0000 N   0  3  0  0  0  0  0  0  0  0  0  0
   15.6586   -1.9701    0.0000 N   0  5  0  0  0  0  0  0  0  0  0  0
    6.0682    0.5774    0.0000 C   0  0  0  0  0  0  0  0  0  0  0  0
    6.9343    0.0774    0.0000 C   0  0  0  0  0  0  0  0  0  0  0  0
    5.2022    0.0774    0.0000 C   0  0  0  0  0  0  0  0  0  0  0  0
    6.9343   -0.9226    0.0000 C   0  0  0  0  0  0  0  0  0  0  0  0
    6.0682    1.5774    0.0000 C   0  0  0  0  0  0  0  0  0  0  0  0
    5.2022   -0.9226    0.0000 C   0  0  0  0  0  0  0  0  0  0  0  0
    7.8282    0.6120    0.0000 C   0  0  0  0  0  0  0  0  0  0  0  0
    7.8282   -1.4573    0.0000 C   0  0  0  0  0  0  0  0  0  0  0  0
    4.3083    0.6120    0.0000 C   0  0  0  0  0  0  0  0  0  0  0  0
    8.7343   -0.9434    0.0000 C   0  0  0  0  0  0  0  0  0  0  0  0
    5.2022    2.0774    0.0000 C   0  0  0  0  0  0  0  0  0  0  0  0
    4.3083   -1.4573    0.0000 C   0  0  0  0  0  0  0  0  0  0  0  0
    8.7343    0.0982    0.0000 C   0  0  0  0  0  0  0  0  0  0  0  0
    6.9343    2.0774    0.0000 C   0  0  0  0  0  0  0  0  0  0  0  0
    3.4022   -0.9434    0.0000 C   0  0  0  0  0  0  0  0  0  0  0  0
    3.4022    0.0982    0.0000 C   0  0  0  0  0  0  0  0  0  0  0  0
    5.2022    3.0774    0.0000 C   0  0  0  0  0  0  0  0  0  0  0  0
    6.9343    3.0774    0.0000 C   0  0  0  0  0  0  0  0  0  0  0  0
    6.0682    3.5774    0.0000 C   0  0  0  0  0  0  0  0  0  0  0  0
    4.2174    2.2511    0.0000 C   0  0  0  0  0  0  0  0  0  0  0  0
   10.4663   -0.9501    0.0000 C   0  0  0  0  0  0  0  0  0  0  0  0
   11.3304   -1.4534    0.0000 C   0  0  0  0  0  0  0  0  0  0  0  0
   11.3266   -2.4534    0.0000 C   0  0  0  0  0  0  0  0  0  0  0  0
   12.1984   -0.9568    0.0000 C   0  0  0  0  0  0  0  0  0  0  0  0
   12.1907   -2.9568    0.0000 C   0  0  0  0  0  0  0  0  0  0  0  0
   13.0625   -1.4601    0.0000 C   0  0  0  0  0  0  0  0  0  0  0  0
   13.0586   -2.4601    0.0000 C   0  0  0  0  0  0  0  0  0  0  0  0
    4.5182    3.9568    0.0000 C   0  0  0  0  0  0  0  0  0  0  0  0
    7.8210    1.2320    0.0000 H   0  0  0  0  0  0  0  0  0  0  0  0
    7.8210   -2.0772    0.0000 H   0  0  0  0  0  0  0  0  0  0  0  0
    4.3154    1.2320    0.0000 H   0  0  0  0  0  0  0  0  0  0  0  0
    4.3154   -2.0772    0.0000 H   0  0  0  0  0  0  0  0  0  0  0  0
    9.2700    0.4103    0.0000 H   0  0  0  0  0  0  0  0  0  0  0  0
    7.4712    1.7674    0.0000 H   0  0  0  0  0  0  0  0  0  0  0  0
    2.8665    0.4103    0.0000 H   0  0  0  0  0  0  0  0  0  0  0  0
    4.6653    3.3874    0.0000 H   0  0  0  0  0  0  0  0  0  0  0  0
    9.5960   -2.0668    0.0000 H   0  0  0  0  0  0  0  0  0  0  0  0
    7.4712    3.3874    0.0000 H   0  0  0  0  0  0  0  0  0  0  0  0
    6.0682    4.1974    0.0000 H   0  0  0  0  0  0  0  0  0  0  0  0
    2.0000   -1.1388    0.0000 H   0  0  0  0  0  0  0  0  0  0  0  0
    2.5405   -2.0668    0.0000 H   0  0  0  0  0  0  0  0  0  0  0  0
   12.2008   -0.3368    0.0000 H   0  0  0  0  0  0  0  0  0  0  0  0
   13.6006   -1.1522    0.0000 H   0  0  0  0  0  0  0  0  0  0  0  0
    4.9931    3.5582    0.0000 H   0  0  0  0  0  0  0  0  0  0  0  0
    4.9167    4.4317    0.0000 H   0  0  0  0  0  0  0  0  0  0  0  0
    4.0432    4.3553    0.0000 H   0  0  0  0  0  0  0  0  0  0  0  0
   10.4562   -3.5701    0.0000 H   0  0  0  0  0  0  0  0  0  0  0  0
  1 36  1  0  0  0  0
  2 15  1  0  0  0  0
  2 17  1  0  0  0  0
  3 31  1  0  0  0  0
  3 39  1  0  0  0  0
  4 31  2  0  0  0  0
  5 32  2  0  0  0  0
  6 34  1  0  0  0  0
  6 58  1  0  0  0  0
  7 21  2  0  0  0  0
  7 32  1  0  0  0  0
  7 48  1  0  0  0  0
  8 26  1  0  0  0  0
  8 51  1  0  0  0  0
  8 52  1  0  0  0  0
  9 10  2  0  0  0  0
  9 38  1  0  0  0  0
 10 11  2  0  0  0  0
 12 13  2  0  0  0  0
 12 14  1  0  0  0  0
 12 16  1  0  0  0  0
 13 15  1  0  0  0  0
 13 18  1  0  0  0  0
 14 17  2  0  0  0  0
 14 20  1  0  0  0  0
 15 19  2  0  0  0  0
 16 22  1  0  0  0  0
 16 25  2  0  0  0  0
 17 23  1  0  0  0  0
 18 24  2  0  0  0  0
 18 40  1  0  0  0  0
 19 21  1  0  0  0  0
 19 41  1  0  0  0  0
 20 27  2  0  0  0  0
 20 42  1  0  0  0  0
 21 24  1  0  0  0  0
 22 28  2  0  0  0  0
 22 31  1  0  0  0  0
 23 26  2  0  0  0  0
 23 43  1  0  0  0  0
 24 44  1  0  0  0  0
 25 29  1  0  0  0  0
 25 45  1  0  0  0  0
 26 27  1  0  0  0  0
 27 46  1  0  0  0  0
 28 30  1  0  0  0  0
 28 47  1  0  0  0  0
 29 30  2  0  0  0  0
 29 49  1  0  0  0  0
 30 50  1  0  0  0  0
 32 33  1  0  0  0  0
 33 34  2  0  0  0  0
 33 35  1  0  0  0  0
 34 36  1  0  0  0  0
 35 37  2  0  0  0  0
 35 53  1  0  0  0  0
 36 38  2  0  0  0  0
 37 38  1  0  0  0  0
 37 54  1  0  0  0  0
 39 55  1  0  0  0  0
 39 56  1  0  0  0  0
 39 57  1  0  0  0  0
M  CHG  3   7   1  10   1  11  -1
M  ISO  1   1 125
M  END
> <PUBCHEM_COMPOUND_CID>
656577

> <PUBCHEM_COMPOUND_CANONICALIZED>
1

> <PUBCHEM_CACTVS_COMPLEXITY>
1170

> <PUBCHEM_CACTVS_HBOND_ACCEPTOR>
8

> <PUBCHEM_CACTVS_HBOND_DONOR>
3

> <PUBCHEM_CACTVS_ROTATABLE_BOND>
5

> <PUBCHEM_CACTVS_SUBSKEYS>
AAADceB7uAAAAgAAAAAAAAAAAAAAAAAAAAAwYMECAAAAAACBUAAAHgA4CAAADAyDmAIyzoLABgCqAyXyXACCCAAkIgAIiAEWbNgMJjaGtZuCeWDm8BkI+YeY2fGeiAAAAgAYAAAQAAAEADAAAAAAAAAAAA==

> <PUBCHEM_IUPAC_OPENEYE_NAME>
[6-amino-9-(2-methoxycarbonylphenyl)xanthen-3-ylidene]-(4-azido-2-hydroxy-3-iodanyl-benzoyl)ammonium

> <PUBCHEM_IUPAC_CAS_NAME>
[6-amino-9-(2-methoxycarbonylphenyl)-3-xanthenylidene]-[(4-azido-2-hydroxy-3-iodanylphenyl)-oxomethyl]ammonium

> <PUBCHEM_IUPAC_NAME>
[6-amino-9-(2-methoxycarbonylphenyl)xanthen-3-ylidene]-(4-azido-2-hydroxy-3-iodanylbenzoyl)azanium

> <PUBCHEM_IUPAC_SYSTEMATIC_NAME>
[6-azanyl-9-(2-methoxycarbonylphenyl)xanthen-3-ylidene]-(4-azido-3-iodanyl-2-oxidanyl-phenyl)carbonyl-azanium

> <PUBCHEM_IUPAC_TRADITIONAL_NAME>
[6-amino-9-(2-carbomethoxyphenyl)xanthen-3-ylidene]-(4-azido-2-hydroxy-3-iodanyl-benzoyl)ammonium

> <PUBCHEM_IUPAC_INCHI>
InChI=1S/C28H18IN5O5/c1-38-28(37)17-5-3-2-4-16(17)24-18-8-6-14(30)12-22(18)39-23-13-15(7-9-19(23)24)32-27(36)20-10-11-21(33-34-31)25(29)26(20)35/h2-13,35H,30H2,1H3/p+1/i29-2

> <PUBCHEM_IUPAC_INCHIKEY>
WSXCGDISGGLKTB-FRTDBYGKSA-O

> <PUBCHEM_XLOGP3_AA>
5.9

> <PUBCHEM_EXACT_MASS>
630.043249

> <PUBCHEM_MOLECULAR_FORMULA>
C28H19IN5O5+

> <PUBCHEM_MOLECULAR_WEIGHT>
630.38559

> <PUBCHEM_OPENEYE_CAN_SMILES>
COC(=O)C1=CC=CC=C1C2=C3C=CC(=[NH+]C(=O)C4=C(C(=C(C=C4)N=[N+]=[N-])I)O)C=C3OC5=C2C=CC(=C5)N

> <PUBCHEM_OPENEYE_ISO_SMILES>
COC(=O)C1=CC=CC=C1C2=C3C=CC(=[NH+]C(=O)C4=C(C(=C(C=C4)N=[N+]=[N-])[125I])O)C=C3OC5=C2C=CC(=C5)N

> <PUBCHEM_CACTVS_TPSA>
127

> <PUBCHEM_MONOISOTOPIC_WEIGHT>
630.043249

> <PUBCHEM_TOTAL_CHARGE>
1

> <PUBCHEM_HEAVY_ATOM_COUNT>
39

> <PUBCHEM_ATOM_DEF_STEREO_COUNT>
0

> <PUBCHEM_ATOM_UDEF_STEREO_COUNT>
0

> <PUBCHEM_BOND_DEF_STEREO_COUNT>
0

> <PUBCHEM_BOND_UDEF_STEREO_COUNT>
0

> <PUBCHEM_ISOTOPIC_ATOM_COUNT>
1

> <PUBCHEM_COMPONENT_COUNT>
1

> <PUBCHEM_CACTVS_TAUTO_COUNT>
28

> <PUBCHEM_COORDINATE_TYPE>
1
5
255

> <PUBCHEM_BONDANNOTATIONS>
12  13  8
12  14  8
13  18  8
14  17  8
14  20  8
15  19  8
16  22  8
16  25  8
17  23  8
18  24  8
19  21  8
2  15  8
2  17  8
20  27  8
21  24  8
22  28  8
23  26  8
25  29  8
26  27  8
28  30  8
29  30  8
33  34  8
33  35  8
34  36  8
35  37  8
36  38  8
37  38  8

$$$$

