10910
  -OEChem-06261205062D

 16 15  0     0  0  0  0  0  0999 V2000
    3.4030   -0.2500    0.0000 S   0  0  0  0  0  0  0  0  0  0  0  0
    5.1350    0.7500    0.0000 O   0  0  0  0  0  0  0  0  0  0  0  0
    2.5369   -0.7500    0.0000 O   0  0  0  0  0  0  0  0  0  0  0  0
    2.9030    0.6160    0.0000 O   0  0  0  0  0  0  0  0  0  0  0  0
    3.9030   -1.1160    0.0000 O   0  0  0  0  0  0  0  0  0  0  0  0
    4.2690    0.2500    0.0000 C   0  0  0  0  0  0  0  0  0  0  0  0
    4.7690   -0.6160    0.0000 C   0  0  0  0  0  0  0  0  0  0  0  0
    3.7690    1.1160    0.0000 C   0  0  0  0  0  0  0  0  0  0  0  0
    4.2320   -0.9260    0.0000 H   0  0  0  0  0  0  0  0  0  0  0  0
    5.0790   -1.1530    0.0000 H   0  0  0  0  0  0  0  0  0  0  0  0
    5.3059   -0.3060    0.0000 H   0  0  0  0  0  0  0  0  0  0  0  0
    4.3059    1.4260    0.0000 H   0  0  0  0  0  0  0  0  0  0  0  0
    3.4590    1.6530    0.0000 H   0  0  0  0  0  0  0  0  0  0  0  0
    3.2320    0.8060    0.0000 H   0  0  0  0  0  0  0  0  0  0  0  0
    5.6720    0.4400    0.0000 H   0  0  0  0  0  0  0  0  0  0  0  0
    2.0000   -0.4400    0.0000 H   0  0  0  0  0  0  0  0  0  0  0  0
  1  3  1  0  0  0  0
  1  4  2  0  0  0  0
  1  5  2  0  0  0  0
  1  6  1  0  0  0  0
  2  6  1  0  0  0  0
  2 15  1  0  0  0  0
  3 16  1  0  0  0  0
  6  7  1  0  0  0  0
  6  8  1  0  0  0  0
  7  9  1  0  0  0  0
  7 10  1  0  0  0  0
  7 11  1  0  0  0  0
  8 12  1  0  0  0  0
  8 13  1  0  0  0  0
  8 14  1  0  0  0  0
M  END
> <PUBCHEM_COMPOUND_CID>
10910

> <PUBCHEM_COMPOUND_CANONICALIZED>
1

> <PUBCHEM_CACTVS_COMPLEXITY>
160

> <PUBCHEM_CACTVS_HBOND_ACCEPTOR>
4

> <PUBCHEM_CACTVS_HBOND_DONOR>
2

> <PUBCHEM_CACTVS_ROTATABLE_BOND>
1

> <PUBCHEM_CACTVS_SUBSKEYS>
AAADccBAOABAAAAAAAAAAAAAAAAAAAAAAAAAAAAAAAAAAAAAAAAAGgQACAAACASAwAACAAAAAoIAAAAAAHBAAAAAAAAAAAAAAAAAAAAAAAAAAAAAAAAAAAAAAAAAAAAAAAAAAAAAAAAAAAAAAAAAAAAAAA==

> <PUBCHEM_IUPAC_OPENEYE_NAME>
2-hydroxypropane-2-sulfonic acid

> <PUBCHEM_IUPAC_CAS_NAME>
2-hydroxy-2-propanesulfonic acid

> <PUBCHEM_IUPAC_NAME>
2-hydroxypropane-2-sulfonic acid

> <PUBCHEM_IUPAC_SYSTEMATIC_NAME>
2-oxidanylpropane-2-sulfonic acid

> <PUBCHEM_IUPAC_TRADITIONAL_NAME>
2-hydroxypropane-2-sulfonic acid

> <PUBCHEM_IUPAC_INCHI>
InChI=1S/C3H8O4S/c1-3(2,4)8(5,6)7/h4H,1-2H3,(H,5,6,7)

> <PUBCHEM_IUPAC_INCHIKEY>
WCBWZBSYSCYPTM-UHFFFAOYSA-N

> <PUBCHEM_XLOGP3_AA>
-0.9

> <PUBCHEM_EXACT_MASS>
140.01433

> <PUBCHEM_MOLECULAR_FORMULA>
C3H8O4S

> <PUBCHEM_MOLECULAR_WEIGHT>
140.15822

> <PUBCHEM_OPENEYE_CAN_SMILES>
CC(C)(O)S(=O)(=O)O

> <PUBCHEM_OPENEYE_ISO_SMILES>
CC(C)(O)S(=O)(=O)O

> <PUBCHEM_CACTVS_TPSA>
83

> <PUBCHEM_MONOISOTOPIC_WEIGHT>
140.01433

> <PUBCHEM_TOTAL_CHARGE>
0

> <PUBCHEM_HEAVY_ATOM_COUNT>
8

> <PUBCHEM_ATOM_DEF_STEREO_COUNT>
0

> <PUBCHEM_ATOM_UDEF_STEREO_COUNT>
0

> <PUBCHEM_BOND_DEF_STEREO_COUNT>
0

> <PUBCHEM_BOND_UDEF_STEREO_COUNT>
0

> <PUBCHEM_ISOTOPIC_ATOM_COUNT>
0

> <PUBCHEM_COMPONENT_COUNT>
1

> <PUBCHEM_CACTVS_TAUTO_COUNT>
1

> <PUBCHEM_COORDINATE_TYPE>
1
5
255

$$$$

