   Color/Form

     * COLORLESS OR WHITE CRYSTALS, OR A WHITE, CRYSTALLINE POWDER
     * Crystals from alcohol

   from [1]HSDB

   Melting Point
        171.4 deg C
   from [2]HSDB

   Dissociation Constants
        pK1= 1.75; pK2= 3.57; pK3= 10.75
   from [3]HSDB

   Octanol/Water Partition Coefficient
        log Kow = -0.70
   from [4]HSDB

   pH
        pH of a 1% aqueous solution 5.5 to 6.5
   from [5]HSDB

   Solubilities

     * Solubility in alcohol at 25 deg C: about 2, in boiling alcohol:
       about 10%; in chloroform: about 0.1%. Practically insoluble in
       ether, benzene.
     * Sol in methyl ethyl ketone, acetone
     * In water, 1.4X10+5 mg/L at 25 deg C

   from [6]HSDB

   Spectral Properties

     * MAX ABSORPTION (ALCOHOL): 263 NM (LOG E= 3.6)
     * IR: 7547 (Sadtler Research Laboratories Prism Collection)
     * UV: 8-45 (Organic Electronic Spectral Data, Phillips et al, John
       Wiley & Sons, New York)
     * MASS: 65072 (NIST/EPA/MSDC Mass Spectral Database, 1990 version);
       322 (National Bureau of Standards EPA-NIH Mass Spectra Data Base,
       NSRDS-NBS-63)
     * Intense mass spectral peaks: 78 m/z, 106 m/z, 137 m/z
     * UV max (water): 266 nm (E(1%)(1 cm) 378); (0.01N HCl): 265 nm
       (E(1%)(1 cm) approx 420).

   from [7]HSDB

   Vapor Pressure
        4.6X10-5 mm Hg at 25 deg C /Estimated/
   from [8]HSDB

   Other Chemical/Physical Properties

     * Can react as weak acid or weak base; can be hydrolyzed to release
       hydrazine; lysed at hydrazine moiety by redox reactions.
     * Aqueous solutions may be sterilized at 120 deg C for 30 minutes.
     * An equimolecular salt produced by dissolving the components in hot
       dil alc, followed by cooling and evapn ... MW: 290.27. Yellow
       crystals from methanol or ethanol; mp 142-144 deg C. Sparingly
       soluble in water, uv max 272, 303 nm (E(1%)(1 cm) 550, 445).
       /4-Aminosalicylate/
     * MW: 231.23. Crystals, dec 187-189 deg C /Methanesulfonate/
     * MW: 253.21. Yellow crystals from water, dec 164-167 deg C
       /Methanesulfonate sodium/
     * MW: 500.52. Crystals, dec 215-220 deg C /Methanesulfonate calcium/
     * Henry's Law constant = 1.2X10-14 atm-cu m/mole at 25 deg C
       /Estimated/
     * Hydroxyl radical reaction rate constant = 5.8X10-12 cu cm/molec-sec
       at 25 deg C /Estimated/

   from [9]HSDB

   Computed Properties
   Molecular Weight                  137.13928 [g/mol]
   Molecular Formula                 C[6]H[7]N[3]O
   XLogP3                            -0.7
   H-Bond Donor                      2
   H-Bond Acceptor                   3
   Rotatable Bond Count              1
   Tautomer Count                    4
   Exact Mass                        137.058912
   MonoIsotopic Mass                 137.058912
   Topological Polar Surface Area    68
   Heavy Atom Count                  10
   Formal Charge                     0
   Complexity                        120
   Isotope Atom Count                0
   Defined Atom Stereocenter Count   0
   Undefined Atom Stereocenter Count 0
   Defined Bond Stereocenter Count   0
   Undefined Bond Stereocenter Count 0
   Covalently-Bonded Unit Count      1
   Feature 3D Acceptor Count         2
   Feature 3D Donor Count            2
   Feature 3D Ring Count             1
   Effective Rotor Count             2
   Conformer Sampling RMSD           0.4
   CID Conformer Count               [10]3

References

   1. http://toxnet.nlm.nih.gov/cgi-bin/sis/search/r?dbs+hsdb:@term+@rn+@rel+54-85-3
   2. http://toxnet.nlm.nih.gov/cgi-bin/sis/search/r?dbs+hsdb:@term+@rn+@rel+54-85-3
   3. http://toxnet.nlm.nih.gov/cgi-bin/sis/search/r?dbs+hsdb:@term+@rn+@rel+54-85-3
   4. http://toxnet.nlm.nih.gov/cgi-bin/sis/search/r?dbs+hsdb:@term+@rn+@rel+54-85-3
   5. http://toxnet.nlm.nih.gov/cgi-bin/sis/search/r?dbs+hsdb:@term+@rn+@rel+54-85-3
   6. http://toxnet.nlm.nih.gov/cgi-bin/sis/search/r?dbs+hsdb:@term+@rn+@rel+54-85-3
   7. http://toxnet.nlm.nih.gov/cgi-bin/sis/search/r?dbs+hsdb:@term+@rn+@rel+54-85-3
   8. http://toxnet.nlm.nih.gov/cgi-bin/sis/search/r?dbs+hsdb:@term+@rn+@rel+54-85-3
   9. http://toxnet.nlm.nih.gov/cgi-bin/sis/search/r?dbs+hsdb:@term+@rn+@rel+54-85-3
  10. http://pubchem.ncbi.nlm.nih.gov/vw3d/vw3d.cgi?cid=3767
