   Color/Form

     * Crystals from hexane
     * White or creamy white crystals or crystalline powder

   from [1]HSDB

   Odor
        Odorless
   from [2]HSDB

   Melting Point
        161-166 deg C
   from [3]HSDB

   Octanol/Water Partition Coefficient
        log Kow = 3.36
   from [4]HSDB

   Solubilities

     * Soluble in alcohol, methanol, ether and other organic solvents;
       sparingly soluble in vegetable oil
     * Soluble in ethanol
     * In water, 34 mg/L at 25 deg C

   from [5]HSDB

   Spectral Properties

     * Specific optical rotation: +69 to +75 deg at 25 deg C/D (dioxane)
     * MAX ABSORPTION (97% SULFUR): 298 NM (LOG E= 4.26); 497 NM (LOG E=
       2.86)
     * IR: 5051 (Coblentz Society Spectral Collection)
     * UV: 4-837 (Organic Electronic Spectral Data, Phillips et al, John
       Wiley & Sons, New York)
     * MASS: 64978 (NIST/EPA/MSDC Mass Spectral Data Base, 1990 Version)

   from [6]HSDB

   Vapor Pressure
        1.8X10-8 mm Hg at 25 deg C (est)
   from [7]HSDB

   Other Chemical/Physical Properties

     * Stable to air. Slightly hydroscopic
     * Henry's Law constant = 4.7X10-9 atm-cu m/mole at 25 deg C (est)
     * Hydroxy radical reaction rate constant = 1.0X10-10 cu cm/molec-sec
       at 25 deg C (est)
     * Ozone reaction rate constant = 1.1X10-17 cu cm/molec-sec at 25 deg
       C (est)

   from [8]HSDB

   Computed Properties
   Molecular Weight                  302.451 [g/mol]
   Molecular Formula                 C[20]H[30]O[2]
   XLogP3                            3.4
   H-Bond Donor                      1
   H-Bond Acceptor                   2
   Rotatable Bond Count              0
   Tautomer Count                    5
   Exact Mass                        302.22458
   MonoIsotopic Mass                 302.22458
   Topological Polar Surface Area    37.3
   Heavy Atom Count                  22
   Formal Charge                     0
   Complexity                        550
   Isotope Atom Count                0
   Defined Atom Stereocenter Count   6
   Undefined Atom Stereocenter Count 0
   Defined Bond Stereocenter Count   0
   Undefined Bond Stereocenter Count 0
   Covalently-Bonded Unit Count      1
   Feature 3D Acceptor Count         2
   Feature 3D Donor Count            1
   Feature 3D Ring Count             4
   Effective Rotor Count             1.8
   Conformer Sampling RMSD           0.6
   CID Conformer Count               [9]1

References

   1. http://toxnet.nlm.nih.gov/cgi-bin/sis/search/r?dbs+hsdb:@term+@rn+@rel+58-18-4
   2. http://toxnet.nlm.nih.gov/cgi-bin/sis/search/r?dbs+hsdb:@term+@rn+@rel+58-18-4
   3. http://toxnet.nlm.nih.gov/cgi-bin/sis/search/r?dbs+hsdb:@term+@rn+@rel+58-18-4
   4. http://toxnet.nlm.nih.gov/cgi-bin/sis/search/r?dbs+hsdb:@term+@rn+@rel+58-18-4
   5. http://toxnet.nlm.nih.gov/cgi-bin/sis/search/r?dbs+hsdb:@term+@rn+@rel+58-18-4
   6. http://toxnet.nlm.nih.gov/cgi-bin/sis/search/r?dbs+hsdb:@term+@rn+@rel+58-18-4
   7. http://toxnet.nlm.nih.gov/cgi-bin/sis/search/r?dbs+hsdb:@term+@rn+@rel+58-18-4
   8. http://toxnet.nlm.nih.gov/cgi-bin/sis/search/r?dbs+hsdb:@term+@rn+@rel+58-18-4
   9. http://pubchem.ncbi.nlm.nih.gov/vw3d/vw3d.cgi?cid=6010
