23724696
  -OEChem-07051213082D

 68 71  0     1  0  0  0  0  0999 V2000
    6.3301    0.0950    0.0000 O   0  0  0  0  0  0  0  0  0  0  0  0
    3.7320   -1.4050    0.0000 O   0  0  0  0  0  0  0  0  0  0  0  0
    5.4641   -2.4050    0.0000 O   0  0  0  0  0  0  0  0  0  0  0  0
    5.4641    1.5950    0.0000 O   0  0  0  0  0  0  0  0  0  0  0  0
    3.7320    0.5950    0.0000 O   0  0  0  0  0  0  0  0  0  0  0  0
    7.1962   -2.4050    0.0000 O   0  0  0  0  0  0  0  0  0  0  0  0
    7.1962    3.5950    0.0000 O   0  3  0  0  0  0  0  0  0  0  0  0
    4.5981   -2.9050    0.0000 O   0  0  0  0  0  0  0  0  0  0  0  0
    8.9282   -2.4050    0.0000 O   0  0  0  0  0  0  0  0  0  0  0  0
    8.9446    0.5604    0.0000 O   0  0  0  0  0  0  0  0  0  0  0  0
    2.0000   -4.4050    0.0000 O   0  0  0  0  0  0  0  0  0  0  0  0
    3.7320   -4.4050    0.0000 O   0  0  0  0  0  0  0  0  0  0  0  0
   10.7263    3.6192    0.0000 O   0  0  0  0  0  0  0  0  0  0  0  0
    8.9282   -5.4050    0.0000 O   0  0  0  0  0  0  0  0  0  0  0  0
    2.8660    5.0950    0.0000 O   0  0  0  0  0  0  0  0  0  0  0  0
    9.7942   -3.9050    0.0000 O   0  0  0  0  0  0  0  0  0  0  0  0
    4.5981   -0.9050    0.0000 C   0  0  1  0  0  0  0  0  0  0  0  0
    5.4641   -1.4050    0.0000 C   0  0  1  0  0  0  0  0  0  0  0  0
    6.3301   -0.9050    0.0000 C   0  0  1  0  0  0  0  0  0  0  0  0
    4.5981    0.0950    0.0000 C   0  0  2  0  0  0  0  0  0  0  0  0
    5.4641    0.5950    0.0000 C   0  0  1  0  0  0  0  0  0  0  0  0
    7.1962   -1.4050    0.0000 C   0  0  0  0  0  0  0  0  0  0  0  0
    6.3301    2.0950    0.0000 C   0  0  0  0  0  0  0  0  0  0  0  0
    3.7320   -2.4050    0.0000 C   0  0  0  0  0  0  0  0  0  0  0  0
    6.3301    3.0950    0.0000 C   0  0  0  0  0  0  0  0  0  0  0  0
    7.1962    1.5950    0.0000 C   0  0  0  0  0  0  0  0  0  0  0  0
    2.8660   -2.9050    0.0000 C   0  0  0  0  0  0  0  0  0  0  0  0
    8.0622   -2.9050    0.0000 C   0  0  0  0  0  0  0  0  0  0  0  0
    8.0622    2.0950    0.0000 C   0  0  0  0  0  0  0  0  0  0  0  0
    8.0622    3.0950    0.0000 C   0  0  0  0  0  0  0  0  0  0  0  0
    5.4641    3.5950    0.0000 C   0  0  0  0  0  0  0  0  0  0  0  0
    8.0622   -3.9050    0.0000 C   0  0  0  0  0  0  0  0  0  0  0  0
    8.9561    1.5603    0.0000 C   0  0  0  0  0  0  0  0  0  0  0  0
    2.8660   -3.9050    0.0000 C   0  0  0  0  0  0  0  0  0  0  0  0
    8.9561    3.6297    0.0000 C   0  0  0  0  0  0  0  0  0  0  0  0
    5.4641    4.5950    0.0000 C   0  0  0  0  0  0  0  0  0  0  0  0
    4.5981    3.0950    0.0000 C   0  0  0  0  0  0  0  0  0  0  0  0
    9.8622    2.0742    0.0000 C   0  0  0  0  0  0  0  0  0  0  0  0
    9.8622    3.1158    0.0000 C   0  0  0  0  0  0  0  0  0  0  0  0
    8.9282   -4.4050    0.0000 C   0  0  0  0  0  0  0  0  0  0  0  0
    4.5981    5.0950    0.0000 C   0  0  0  0  0  0  0  0  0  0  0  0
    3.7320    3.5950    0.0000 C   0  0  0  0  0  0  0  0  0  0  0  0
    3.7320    4.5950    0.0000 C   0  0  0  0  0  0  0  0  0  0  0  0
    4.5981   -1.5250    0.0000 H   0  0  0  0  0  0  0  0  0  0  0  0
    6.0010   -1.7150    0.0000 H   0  0  0  0  0  0  0  0  0  0  0  0
    6.8671   -0.5950    0.0000 H   0  0  0  0  0  0  0  0  0  0  0  0
    4.5981    0.7150    0.0000 H   0  0  0  0  0  0  0  0  0  0  0  0
    4.9272    0.9050    0.0000 H   0  0  0  0  0  0  0  0  0  0  0  0
    7.8067   -1.5127    0.0000 H   0  0  0  0  0  0  0  0  0  0  0  0
    7.4082   -0.8224    0.0000 H   0  0  0  0  0  0  0  0  0  0  0  0
    6.0010   -2.7150    0.0000 H   0  0  0  0  0  0  0  0  0  0  0  0
    3.1951    0.2850    0.0000 H   0  0  0  0  0  0  0  0  0  0  0  0
    7.1962    0.9750    0.0000 H   0  0  0  0  0  0  0  0  0  0  0  0
    2.6540   -2.3224    0.0000 H   0  0  0  0  0  0  0  0  0  0  0  0
    2.2554   -3.0127    0.0000 H   0  0  0  0  0  0  0  0  0  0  0  0
    7.4516   -3.7973    0.0000 H   0  0  0  0  0  0  0  0  0  0  0  0
    7.8501   -4.4876    0.0000 H   0  0  0  0  0  0  0  0  0  0  0  0
    8.9490    4.2496    0.0000 H   0  0  0  0  0  0  0  0  0  0  0  0
    6.0010    4.9050    0.0000 H   0  0  0  0  0  0  0  0  0  0  0  0
    4.5981    2.4750    0.0000 H   0  0  0  0  0  0  0  0  0  0  0  0
   10.3979    1.7621    0.0000 H   0  0  0  0  0  0  0  0  0  0  0  0
    4.5981    5.7150    0.0000 H   0  0  0  0  0  0  0  0  0  0  0  0
    3.1951    3.2850    0.0000 H   0  0  0  0  0  0  0  0  0  0  0  0
    9.4779    0.2442    0.0000 H   0  0  0  0  0  0  0  0  0  0  0  0
    2.0000   -5.0250    0.0000 H   0  0  0  0  0  0  0  0  0  0  0  0
   11.2644    3.3112    0.0000 H   0  0  0  0  0  0  0  0  0  0  0  0
    9.4651   -5.7150    0.0000 H   0  0  0  0  0  0  0  0  0  0  0  0
    2.8660    5.7150    0.0000 H   0  0  0  0  0  0  0  0  0  0  0  0
  1 19  1  0  0  0  0
  1 21  1  0  0  0  0
 17  2  1  6  0  0  0
  2 24  1  0  0  0  0
 18  3  1  1  0  0  0
  3 51  1  0  0  0  0
 21  4  1  6  0  0  0
  4 23  1  0  0  0  0
 20  5  1  1  0  0  0
  5 52  1  0  0  0  0
  6 22  1  0  0  0  0
  6 28  1  0  0  0  0
  7 25  2  0  0  0  0
  7 30  1  0  0  0  0
  8 24  2  0  0  0  0
  9 28  2  0  0  0  0
 10 33  1  0  0  0  0
 10 64  1  0  0  0  0
 11 34  1  0  0  0  0
 11 65  1  0  0  0  0
 12 34  2  0  0  0  0
 13 39  1  0  0  0  0
 13 66  1  0  0  0  0
 14 40  1  0  0  0  0
 14 67  1  0  0  0  0
 15 43  1  0  0  0  0
 15 68  1  0  0  0  0
 16 40  2  0  0  0  0
 17 18  1  0  0  0  0
 17 20  1  0  0  0  0
 17 44  1  0  0  0  0
 18 19  1  0  0  0  0
 18 45  1  0  0  0  0
 19 22  1  6  0  0  0
 19 46  1  0  0  0  0
 20 21  1  0  0  0  0
 20 47  1  0  0  0  0
 21 48  1  0  0  0  0
 22 49  1  0  0  0  0
 22 50  1  0  0  0  0
 23 25  1  0  0  0  0
 23 26  2  0  0  0  0
 24 27  1  0  0  0  0
 25 31  1  0  0  0  0
 26 29  1  0  0  0  0
 26 53  1  0  0  0  0
 27 34  1  0  0  0  0
 27 54  1  0  0  0  0
 27 55  1  0  0  0  0
 28 32  1  0  0  0  0
 29 30  1  0  0  0  0
 29 33  2  0  0  0  0
 30 35  2  0  0  0  0
 31 36  2  0  0  0  0
 31 37  1  0  0  0  0
 32 40  1  0  0  0  0
 32 56  1  0  0  0  0
 32 57  1  0  0  0  0
 33 38  1  0  0  0  0
 35 39  1  0  0  0  0
 35 58  1  0  0  0  0
 36 41  1  0  0  0  0
 36 59  1  0  0  0  0
 37 42  2  0  0  0  0
 37 60  1  0  0  0  0
 38 39  2  0  0  0  0
 38 61  1  0  0  0  0
 41 43  2  0  0  0  0
 41 62  1  0  0  0  0
 42 43  1  0  0  0  0
 42 63  1  0  0  0  0
M  CHG  1   7   1
M  END
> <PUBCHEM_COMPOUND_CID>
23724696

> <PUBCHEM_COMPOUND_CANONICALIZED>
1

> <PUBCHEM_CACTVS_COMPLEXITY>
998

> <PUBCHEM_CACTVS_HBOND_ACCEPTOR>
15

> <PUBCHEM_CACTVS_HBOND_DONOR>
7

> <PUBCHEM_CACTVS_ROTATABLE_BOND>
12

> <PUBCHEM_CACTVS_SUBSKEYS>
AAADceB4PgAAAAAAAAAAAAAAAAAAAAAAAAA0aIEAAAAAAACR9AAAGgAACAAADBSwmAMwDsAABkCIAqDSCAICCAAkIAAIiAFGiMgdNzaONR6ieWKl4BUPuYfK7OzOIAAACAAIAABAAAAQABAAAAAAAAAAAA==

> <PUBCHEM_IUPAC_OPENEYE_NAME>
3-[[(2R,3R,4S,5R,6S)-4-(2-carboxyacetyl)oxy-6-[5,7-dihydroxy-2-(4-hydroxyphenyl)chromenylium-3-yl]oxy-3,5-dihydroxy-tetrahydropyran-2-yl]methoxy]-3-oxo-propanoic acid

> <PUBCHEM_IUPAC_CAS_NAME>
3-[[(2R,3R,4S,5R,6S)-4-(2-carboxy-1-oxoethoxy)-6-[[5,7-dihydroxy-2-(4-hydroxyphenyl)-1-benzopyrylium-3-yl]oxy]-3,5-dihydroxy-2-oxanyl]methoxy]-3-oxopropanoic acid

> <PUBCHEM_IUPAC_NAME>
3-[[(2R,3R,4S,5R,6S)-4-(2-carboxyacetyl)oxy-6-[5,7-dihydroxy-2-(4-hydroxyphenyl)chromenylium-3-yl]oxy-3,5-dihydroxyoxan-2-yl]methoxy]-3-oxopropanoic acid

> <PUBCHEM_IUPAC_SYSTEMATIC_NAME>
3-[[(2R,3R,4S,5R,6S)-6-[2-(4-hydroxyphenyl)-5,7-bis(oxidanyl)chromenylium-3-yl]oxy-3,5-bis(oxidanyl)-4-(3-oxidanyl-3-oxidanylidene-propanoyl)oxy-oxan-2-yl]methoxy]-3-oxidanylidene-propanoic acid

> <PUBCHEM_IUPAC_TRADITIONAL_NAME>
3-[[(2R,3R,4S,5R,6S)-4-(2-carboxyacetyl)oxy-6-[[5,7-dihydroxy-2-(4-hydroxyphenyl)-1-benzopyrylium-3-yl]oxy]-3,5-dihydroxy-tetrahydropyran-2-yl]methoxy]-3-keto-propionic acid

> <PUBCHEM_IUPAC_INCHI>
InChI=1S/C27H24O16/c28-12-3-1-11(2-4-12)25-17(7-14-15(30)5-13(29)6-16(14)40-25)41-27-24(38)26(43-22(36)9-20(33)34)23(37)18(42-27)10-39-21(35)8-19(31)32/h1-7,18,23-24,26-27,37-38H,8-10H2,(H4-,28,29,30,31,32,33,34)/p+1/t18-,23-,24-,26+,27-/m1/s1

> <PUBCHEM_IUPAC_INCHIKEY>
FYXSNZOHHSEKPD-MQWSOPDOSA-O

> <PUBCHEM_EXACT_MASS>
605.11426

> <PUBCHEM_MOLECULAR_FORMULA>
C27H25O16+

> <PUBCHEM_MOLECULAR_WEIGHT>
605.4778

> <PUBCHEM_OPENEYE_CAN_SMILES>
C1=CC(=CC=C1C2=C(C=C3C(=CC(=CC3=[O+]2)O)O)OC4C(C(C(C(O4)COC(=O)CC(=O)O)O)OC(=O)CC(=O)O)O)O

> <PUBCHEM_OPENEYE_ISO_SMILES>
C1=CC(=CC=C1C2=C(C=C3C(=CC(=CC3=[O+]2)O)O)O[C@H]4[C@@H]([C@H]([C@@H]([C@H](O4)COC(=O)CC(=O)O)O)OC(=O)CC(=O)O)O)O

> <PUBCHEM_CACTVS_TPSA>
248

> <PUBCHEM_MONOISOTOPIC_WEIGHT>
605.11426

> <PUBCHEM_TOTAL_CHARGE>
1

> <PUBCHEM_HEAVY_ATOM_COUNT>
43

> <PUBCHEM_ATOM_DEF_STEREO_COUNT>
5

> <PUBCHEM_ATOM_UDEF_STEREO_COUNT>
0

> <PUBCHEM_BOND_DEF_STEREO_COUNT>
0

> <PUBCHEM_BOND_UDEF_STEREO_COUNT>
0

> <PUBCHEM_ISOTOPIC_ATOM_COUNT>
0

> <PUBCHEM_COMPONENT_COUNT>
1

> <PUBCHEM_CACTVS_TAUTO_COUNT>
53

> <PUBCHEM_COORDINATE_TYPE>
1
5
255

> <PUBCHEM_BONDANNOTATIONS>
19  22  6
17  2  6
23  25  8
23  26  8
26  29  8
29  30  8
29  33  8
18  3  5
30  35  8
31  36  8
31  37  8
33  38  8
35  39  8
36  41  8
37  42  8
38  39  8
21  4  6
41  43  8
42  43  8
20  5  5
7  25  8
7  30  8

$$$$

