441294
  -OEChem-07051212532D

 54 59  0     1  0  0  0  0  0999 V2000
    6.3423    1.3620    0.0000 O   0  0  0  0  0  0  0  0  0  0  0  0
    4.6512   -1.1070    0.0000 O   0  0  0  0  0  0  0  0  0  0  0  0
    8.1324    0.7803    0.0000 O   0  0  0  0  0  0  0  0  0  0  0  0
    3.2568   -0.1608    0.0000 O   0  0  0  0  0  0  0  0  0  0  0  0
    4.8612    1.7314    0.0000 O   0  0  0  0  0  0  0  0  0  0  0  0
    5.0470   -1.7424    0.0000 O   0  0  0  0  0  0  0  0  0  0  0  0
    7.6377   -1.7424    0.0000 O   0  0  0  0  0  0  0  0  0  0  0  0
    3.7551    0.5464    0.0000 O   0  0  0  0  0  0  0  0  0  0  0  0
    9.3893   -0.4698    0.0000 O   0  0  0  0  0  0  0  0  0  0  0  0
    2.0000    1.0894    0.0000 O   0  0  0  0  0  0  0  0  0  0  0  0
    5.8475   -0.1608    0.0000 C   0  0  3  0  0  0  0  0  0  0  0  0
    6.8371   -0.1608    0.0000 C   0  0  3  0  0  0  0  0  0  0  0  0
    5.5418    0.7803    0.0000 C   0  0  2  0  0  0  0  0  0  0  0  0
    5.5418   -1.1019    0.0000 C   0  0  1  0  0  0  0  0  0  0  0  0
    7.1429   -1.1019    0.0000 C   0  0  1  0  0  0  0  0  0  0  0  0
    4.5522    0.7803    0.0000 C   0  0  1  0  0  0  0  0  0  0  0  0
    5.0470   -0.7424    0.0000 C   0  0  3  0  0  0  0  0  0  0  0  0
    7.1429    0.7803    0.0000 C   0  0  2  0  0  0  0  0  0  0  0  0
    4.2464   -0.1608    0.0000 C   0  0  2  0  0  0  0  0  0  0  0  0
    6.3423   -1.6836    0.0000 C   0  0  0  0  0  0  0  0  0  0  0  0
    7.6377   -0.7424    0.0000 C   0  0  3  0  0  0  0  0  0  0  0  0
    4.6512    0.1024    0.0000 C   0  0  0  0  0  0  0  0  0  0  0  0
    8.0939   -1.4109    0.0000 C   0  0  0  0  0  0  0  0  0  0  0  0
    3.7516    1.3620    0.0000 C   0  0  1  0  0  0  0  0  0  0  0  0
    8.4382   -0.1608    0.0000 C   0  0  0  0  0  0  0  0  0  0  0  0
    2.9511    0.7803    0.0000 C   0  0  0  0  0  0  0  0  0  0  0  0
    9.0450   -1.7200    0.0000 C   0  0  0  0  0  0  0  0  0  0  0  0
    7.7849   -2.3620    0.0000 C   0  0  0  0  0  0  0  0  0  0  0  0
    8.9420   -0.8810    0.0000 C   0  0  0  0  0  0  0  0  0  0  0  0
    3.7516    2.3620    0.0000 C   0  0  0  0  0  0  0  0  0  0  0  0
    5.2814   -1.9111    0.0000 H   0  0  0  0  0  0  0  0  0  0  0  0
    7.2399   -1.7143    0.0000 H   0  0  0  0  0  0  0  0  0  0  0  0
    4.2896   -1.1283    0.0000 H   0  0  0  0  0  0  0  0  0  0  0  0
    7.4056    1.5887    0.0000 H   0  0  0  0  0  0  0  0  0  0  0  0
    3.9837   -0.9692    0.0000 H   0  0  0  0  0  0  0  0  0  0  0  0
    5.9274   -2.1443    0.0000 H   0  0  0  0  0  0  0  0  0  0  0  0
    6.7572   -2.1443    0.0000 H   0  0  0  0  0  0  0  0  0  0  0  0
    6.8803   -1.1283    0.0000 H   0  0  0  0  0  0  0  0  0  0  0  0
    4.3040    1.6435    0.0000 H   0  0  0  0  0  0  0  0  0  0  0  0
    5.4677    1.8603    0.0000 H   0  0  0  0  0  0  0  0  0  0  0  0
    4.5100   -2.0524    0.0000 H   0  0  0  0  0  0  0  0  0  0  0  0
    9.2705   -1.4068    0.0000 H   0  0  0  0  0  0  0  0  0  0  0  0
    9.4678   -0.5525    0.0000 H   0  0  0  0  0  0  0  0  0  0  0  0
    8.6134   -0.3552    0.0000 H   0  0  0  0  0  0  0  0  0  0  0  0
    7.1952   -2.1704    0.0000 H   0  0  0  0  0  0  0  0  0  0  0  0
    7.5933   -2.9516    0.0000 H   0  0  0  0  0  0  0  0  0  0  0  0
    8.3746   -2.5536    0.0000 H   0  0  0  0  0  0  0  0  0  0  0  0
    8.8534   -2.3096    0.0000 H   0  0  0  0  0  0  0  0  0  0  0  0
    9.6346   -1.9116    0.0000 H   0  0  0  0  0  0  0  0  0  0  0  0
    9.2366   -1.1303    0.0000 H   0  0  0  0  0  0  0  0  0  0  0  0
    4.3716    2.3620    0.0000 H   0  0  0  0  0  0  0  0  0  0  0  0
    3.7516    2.9820    0.0000 H   0  0  0  0  0  0  0  0  0  0  0  0
    3.1316    2.3620    0.0000 H   0  0  0  0  0  0  0  0  0  0  0  0
    7.1007   -2.0524    0.0000 H   0  0  0  0  0  0  0  0  0  0  0  0
 13  1  1  1  0  0  0
  1 18  1  0  0  0  0
  2 14  1  0  0  0  0
  2 22  1  0  0  0  0
  3 18  1  0  0  0  0
  3 25  1  0  0  0  0
  4 19  1  0  0  0  0
  4 26  1  0  0  0  0
 16  5  1  1  0  0  0
  5 40  1  0  0  0  0
  6 17  1  0  0  0  0
  6 41  1  0  0  0  0
  7 21  1  0  0  0  0
  7 54  1  0  0  0  0
  8 22  2  0  0  0  0
  9 25  2  0  0  0  0
 10 26  2  0  0  0  0
 11 12  1  0  0  0  0
 11 13  1  0  0  0  0
 11 14  1  0  0  0  0
 11 17  1  0  0  0  0
 12 15  1  0  0  0  0
 12 18  1  0  0  0  0
 12 21  1  0  0  0  0
 13 16  1  0  0  0  0
 13 22  1  0  0  0  0
 14 20  1  0  0  0  0
 14 31  1  6  0  0  0
 15 20  1  0  0  0  0
 15 23  1  0  0  0  0
 15 32  1  0  0  0  0
 16 19  1  0  0  0  0
 16 24  1  0  0  0  0
 17 19  1  0  0  0  0
 17 33  1  0  0  0  0
 18 34  1  1  0  0  0
 19 35  1  1  0  0  0
 20 36  1  0  0  0  0
 20 37  1  0  0  0  0
 21 25  1  0  0  0  0
 21 38  1  0  0  0  0
 23 27  1  0  0  0  0
 23 28  1  0  0  0  0
 23 29  1  0  0  0  0
 24 26  1  0  0  0  0
 24 30  1  1  0  0  0
 24 39  1  0  0  0  0
 27 48  1  0  0  0  0
 27 49  1  0  0  0  0
 27 50  1  0  0  0  0
 28 45  1  0  0  0  0
 28 46  1  0  0  0  0
 28 47  1  0  0  0  0
 29 42  1  0  0  0  0
 29 43  1  0  0  0  0
 29 44  1  0  0  0  0
 30 51  1  0  0  0  0
 30 52  1  0  0  0  0
 30 53  1  0  0  0  0
M  END
> <PUBCHEM_COMPOUND_CID>
441294

> <PUBCHEM_COMPOUND_CANONICALIZED>
1

> <PUBCHEM_CACTVS_COMPLEXITY>
925

> <PUBCHEM_CACTVS_HBOND_ACCEPTOR>
10

> <PUBCHEM_CACTVS_HBOND_DONOR>
3

> <PUBCHEM_CACTVS_ROTATABLE_BOND>
1

> <PUBCHEM_CACTVS_SUBSKEYS>
AAADceB4PAAAAAAAAAAAAAAAAAAAAaNEiRAAAAAAAAASJAAAAAAAGgAACAAAD1SwgAMCCAAABgAIAACQCAIAAAAAAAAAAAFAAAAREBYAAAQiQAAFIAAHAAHK7vzPgAAAAAAAAAAAAAAAAAAAAYQADCAAAA==

> <PUBCHEM_IUPAC_INCHI>
InChI=1S/C20H24O10/c1-6-12(23)28-11-9(21)18-8-5-7(16(2,3)4)17(18)10(22)13(24)29-15(17)30-20(18,14(25)27-8)19(6,11)26/h6-11,15,21-22,26H,5H2,1-4H3/t6-,7+,8-,9?,10?,11+,15+,17?,18?,19-,20-/m1/s1

> <PUBCHEM_IUPAC_INCHIKEY>
SQOJOAFXDQDRGF-OOHPMXMZSA-N

> <PUBCHEM_XLOGP3_AA>
-0.4

> <PUBCHEM_EXACT_MASS>
424.136947

> <PUBCHEM_MOLECULAR_FORMULA>
C20H24O10

> <PUBCHEM_MOLECULAR_WEIGHT>
424.39856

> <PUBCHEM_OPENEYE_CAN_SMILES>
CC1C(=O)OC2C1(C34C(=O)OC5C3(C2O)C6(C(C5)C(C)(C)C)C(C(=O)OC6O4)O)O

> <PUBCHEM_OPENEYE_ISO_SMILES>
C[C@@H]1C(=O)O[C@@H]2[C@]1([C@@]34C(=O)O[C@H]5C3(C2O)C6([C@@H](C5)C(C)(C)C)[C@H](O4)OC(=O)C6O)O

> <PUBCHEM_CACTVS_TPSA>
149

> <PUBCHEM_MONOISOTOPIC_WEIGHT>
424.136947

> <PUBCHEM_TOTAL_CHARGE>
0

> <PUBCHEM_HEAVY_ATOM_COUNT>
30

> <PUBCHEM_ATOM_DEF_STEREO_COUNT>
7

> <PUBCHEM_ATOM_UDEF_STEREO_COUNT>
4

> <PUBCHEM_BOND_DEF_STEREO_COUNT>
0

> <PUBCHEM_BOND_UDEF_STEREO_COUNT>
0

> <PUBCHEM_ISOTOPIC_ATOM_COUNT>
0

> <PUBCHEM_COMPONENT_COUNT>
1

> <PUBCHEM_CACTVS_TAUTO_COUNT>
6

> <PUBCHEM_COORDINATE_TYPE>
1
5
255

> <PUBCHEM_BONDANNOTATIONS>
13  1  5
11  17  3
12  15  3
14  31  6
17  33  3
18  34  5
19  35  5
21  38  3
24  30  5
16  5  5

$$$$

