20485
  -OEChem-07051212572D

 49 53  0     1  0  0  0  0  0999 V2000
    6.6555   -2.1870    0.0000 O   0  0  0  0  0  0  0  0  0  0  0  0
    7.0156   -0.4928    0.0000 O   0  0  0  0  0  0  0  0  0  0  0  0
    2.6254   -0.4450    0.0000 N   0  0  3  0  0  0  0  0  0  0  0  0
    5.7049    0.5556    0.0000 N   0  0  0  0  0  0  0  0  0  0  0  0
    4.1652    0.0553    0.0000 C   0  0  2  0  0  0  0  0  0  0  0  0
    3.5397   -0.6393    0.0000 C   0  0  2  0  0  0  0  0  0  0  0  0
    3.8286   -1.5283    0.0000 C   0  0  1  0  0  0  0  0  0  0  0  0
    3.7801    1.0909    0.0000 C   0  0  0  0  0  0  0  0  0  0  0  0
    5.0795   -0.1390    0.0000 C   0  0  0  0  0  0  0  0  0  0  0  0
    2.3366    0.4440    0.0000 C   0  0  0  0  0  0  0  0  0  0  0  0
    4.7429   -1.7226    0.0000 C   0  0  0  0  0  0  0  0  0  0  0  0
    4.5018    1.6389    0.0000 C   0  0  0  0  0  0  0  0  0  0  0  0
    5.3683   -1.0280    0.0000 C   0  0  0  0  0  0  0  0  0  0  0  0
    4.1376   -2.4794    0.0000 C   0  0  0  0  0  0  0  0  0  0  0  0
    3.2031   -2.2229    0.0000 C   0  0  0  0  0  0  0  0  0  0  0  0
    2.0000   -1.1396    0.0000 C   0  0  0  0  0  0  0  0  0  0  0  0
    5.4161    1.4446    0.0000 C   0  0  0  0  0  0  0  0  0  0  0  0
    2.2888   -2.0286    0.0000 C   0  0  0  0  0  0  0  0  0  0  0  0
    4.2129    2.5279    0.0000 C   0  0  0  0  0  0  0  0  0  0  0  0
    3.4685   -3.2225    0.0000 C   0  0  0  0  0  0  0  0  0  0  0  0
    6.3465   -1.2359    0.0000 C   0  0  0  0  0  0  0  0  0  0  0  0
    6.0415    2.1392    0.0000 C   0  0  0  0  0  0  0  0  0  0  0  0
    4.8384    3.2225    0.0000 C   0  0  0  0  0  0  0  0  0  0  0  0
    5.7527    3.0282    0.0000 C   0  0  0  0  0  0  0  0  0  0  0  0
    7.6336   -2.3949    0.0000 C   0  0  0  0  0  0  0  0  0  0  0  0
    3.2771    0.1691    0.0000 H   0  0  0  0  0  0  0  0  0  0  0  0
    4.3564    1.3196    0.0000 H   0  0  0  0  0  0  0  0  0  0  0  0
    3.5389    1.6621    0.0000 H   0  0  0  0  0  0  0  0  0  0  0  0
    2.1034    1.0184    0.0000 H   0  0  0  0  0  0  0  0  0  0  0  0
    1.7542    0.2314    0.0000 H   0  0  0  0  0  0  0  0  0  0  0  0
    4.5106   -2.2975    0.0000 H   0  0  0  0  0  0  0  0  0  0  0  0
    5.2687   -2.0512    0.0000 H   0  0  0  0  0  0  0  0  0  0  0  0
    4.5193   -2.9679    0.0000 H   0  0  0  0  0  0  0  0  0  0  0  0
    4.6850   -2.1883    0.0000 H   0  0  0  0  0  0  0  0  0  0  0  0
    3.3947   -2.8126    0.0000 H   0  0  0  0  0  0  0  0  0  0  0  0
    1.6183   -0.6510    0.0000 H   0  0  0  0  0  0  0  0  0  0  0  0
    1.4526   -1.4307    0.0000 H   0  0  0  0  0  0  0  0  0  0  0  0
    6.3114    0.4267    0.0000 H   0  0  0  0  0  0  0  0  0  0  0  0
    1.8740   -2.4893    0.0000 H   0  0  0  0  0  0  0  0  0  0  0  0
    3.6065    2.6568    0.0000 H   0  0  0  0  0  0  0  0  0  0  0  0
    3.0077   -2.8076    0.0000 H   0  0  0  0  0  0  0  0  0  0  0  0
    3.0536   -3.6832    0.0000 H   0  0  0  0  0  0  0  0  0  0  0  0
    3.9292   -3.6374    0.0000 H   0  0  0  0  0  0  0  0  0  0  0  0
    6.6480    2.0103    0.0000 H   0  0  0  0  0  0  0  0  0  0  0  0
    4.6468    3.8122    0.0000 H   0  0  0  0  0  0  0  0  0  0  0  0
    6.1676    3.4889    0.0000 H   0  0  0  0  0  0  0  0  0  0  0  0
    7.5047   -3.0013    0.0000 H   0  0  0  0  0  0  0  0  0  0  0  0
    8.2401   -2.5238    0.0000 H   0  0  0  0  0  0  0  0  0  0  0  0
    7.7625   -1.7884    0.0000 H   0  0  0  0  0  0  0  0  0  0  0  0
  1 21  1  0  0  0  0
  1 25  1  0  0  0  0
  2 21  2  0  0  0  0
  3  6  1  0  0  0  0
  3 10  1  0  0  0  0
  3 16  1  0  0  0  0
  4  9  1  0  0  0  0
  4 17  1  0  0  0  0
  4 38  1  0  0  0  0
  5  6  1  0  0  0  0
  5  8  1  6  0  0  0
  5  9  1  0  0  0  0
  5 12  1  0  0  0  0
  6  7  1  0  0  0  0
  6 26  1  1  0  0  0
  7 11  1  0  0  0  0
  7 14  1  1  0  0  0
  7 15  1  0  0  0  0
  8 10  1  0  0  0  0
  8 27  1  0  0  0  0
  8 28  1  0  0  0  0
  9 13  2  0  0  0  0
 10 29  1  0  0  0  0
 10 30  1  0  0  0  0
 11 13  1  0  0  0  0
 11 31  1  0  0  0  0
 11 32  1  0  0  0  0
 12 17  1  0  0  0  0
 12 19  2  0  0  0  0
 13 21  1  0  0  0  0
 14 20  1  0  0  0  0
 14 33  1  0  0  0  0
 14 34  1  0  0  0  0
 15 18  2  0  0  0  0
 15 35  1  0  0  0  0
 16 18  1  0  0  0  0
 16 36  1  0  0  0  0
 16 37  1  0  0  0  0
 17 22  2  0  0  0  0
 18 39  1  0  0  0  0
 19 23  1  0  0  0  0
 19 40  1  0  0  0  0
 20 41  1  0  0  0  0
 20 42  1  0  0  0  0
 20 43  1  0  0  0  0
 22 24  1  0  0  0  0
 22 44  1  0  0  0  0
 23 24  2  0  0  0  0
 23 45  1  0  0  0  0
 24 46  1  0  0  0  0
 25 47  1  0  0  0  0
 25 48  1  0  0  0  0
 25 49  1  0  0  0  0
M  END
> <PUBCHEM_COMPOUND_CID>
20485

> <PUBCHEM_COMPOUND_CANONICALIZED>
1

> <PUBCHEM_CACTVS_COMPLEXITY>
669

> <PUBCHEM_CACTVS_HBOND_ACCEPTOR>
4

> <PUBCHEM_CACTVS_HBOND_DONOR>
1

> <PUBCHEM_CACTVS_ROTATABLE_BOND>
3

> <PUBCHEM_CACTVS_SUBSKEYS>
AAADceB7MAAAAAAAAAAAAAAAAAAAAWLAAAAwQIAAAAAAAFiBAAAAHgAQAAAADijBmAYyyIPABACIAiTSSACCAAAhAgAIiAEIZMgIJDLA8ZGEMAhkkADI6UeY2eOfgAAAAAACAAAAAAAAAAQAAAAAAAAAAA==

> <PUBCHEM_IUPAC_INCHI>
InChI=1S/C21H24N2O2/c1-3-20-9-6-11-23-12-10-21(19(20)23)15-7-4-5-8-16(15)22-17(21)14(13-20)18(24)25-2/h4-9,19,22H,3,10-13H2,1-2H3/t19-,20-,21-/m0/s1

> <PUBCHEM_IUPAC_INCHIKEY>
FNGGIPWAZSFKCN-ACRUOGEOSA-N

> <PUBCHEM_XLOGP3_AA>
3.4

> <PUBCHEM_EXACT_MASS>
336.183778

> <PUBCHEM_MOLECULAR_FORMULA>
C21H24N2O2

> <PUBCHEM_MOLECULAR_WEIGHT>
336.42746

> <PUBCHEM_OPENEYE_CAN_SMILES>
CCC12CC(=C3C4(C1N(CC4)CC=C2)C5=CC=CC=C5N3)C(=O)OC

> <PUBCHEM_OPENEYE_ISO_SMILES>
CC[C@]12CC(=C3[C@@]4([C@H]1N(CC4)CC=C2)C5=CC=CC=C5N3)C(=O)OC

> <PUBCHEM_CACTVS_TPSA>
41.6

> <PUBCHEM_MONOISOTOPIC_WEIGHT>
336.183778

> <PUBCHEM_TOTAL_CHARGE>
0

> <PUBCHEM_HEAVY_ATOM_COUNT>
25

> <PUBCHEM_ATOM_DEF_STEREO_COUNT>
3

> <PUBCHEM_ATOM_UDEF_STEREO_COUNT>
0

> <PUBCHEM_BOND_DEF_STEREO_COUNT>
0

> <PUBCHEM_BOND_UDEF_STEREO_COUNT>
0

> <PUBCHEM_ISOTOPIC_ATOM_COUNT>
0

> <PUBCHEM_COMPONENT_COUNT>
1

> <PUBCHEM_CACTVS_TAUTO_COUNT>
3

> <PUBCHEM_COORDINATE_TYPE>
1
5
255

> <PUBCHEM_BONDANNOTATIONS>
12  17  8
12  19  8
17  22  8
19  23  8
22  24  8
23  24  8
5  8  6
6  26  5
7  14  5

$$$$

