   Color/Form

     * TRICLINIC PRISMS FROM ALCOHOL AND ETHER
     * NEARLY WHITE COARSE POWDER

   from [1]HSDB

   Odor
        Odorless
   from [2]HSDB

   Melting Point
        243 DEG C
   from [3]HSDB

   Dissociation Constants
        PKA 4.03
   from [4]HSDB

   Octanol/Water Partition Coefficient
        log Kow= 2.65.
   from [5]HSDB

   Solubilities

     * SOL IN 5290 PARTS WATER; FREELY SOL IN ALCOHOL, ETHER
     * SOL IN METHANOL
     * SLIGHTLY SOL IN ACETONE; SOL IN CARBON TETRACHLORIDE; INSOL IN
       CARBON DISULFIDE, BENZENE, PETROLEUM ETHER
     * Water solubility: 77 mg/l (experimental)

   from [6]HSDB

   Spectral Properties

     * SADTLER REF NUMBER: 147 (IR, PRISM); 45 (IR, GRATING); MAX
       ABSORPTION (ALCOHOL): 234 NM (LOG E= 4.18)
     * IR: 1345 (Coblentz Society Spectral Collection)
     * UV: 56 (Sadtler Research Laboratories Spectral Collection)
     * NMR: 10266 (Sadtler Research Laboratories Spectral Collection)
     * MASS: 952 (Atlas of Mass Spectral Data, John Wiley & Sons, New
       York)

   from [7]HSDB

   Vapor Pressure
        1.85X10-03 mm Hg at 25 deg C (est).
   from [8]HSDB

   Other Chemical/Physical Properties
        pKa= 3.98
   from [9]HSDB

   Computed Properties
   Molecular Weight                  156.5664 [g/mol]
   Molecular Formula                 C[7]H[5]ClO[2]
   XLogP3                            2.7
   H-Bond Donor                      1
   H-Bond Acceptor                   2
   Rotatable Bond Count              1
   Exact Mass                        155.997807
   MonoIsotopic Mass                 155.997807
   Topological Polar Surface Area    37.3
   Heavy Atom Count                  10
   Formal Charge                     0
   Complexity                        128
   Isotope Atom Count                0
   Defined Atom Stereocenter Count   0
   Undefined Atom Stereocenter Count 0
   Defined Bond Stereocenter Count   0
   Undefined Bond Stereocenter Count 0
   Covalently-Bonded Unit Count      1
   Feature 3D Acceptor Count         2
   Feature 3D Anion Count            1
   Feature 3D Ring Count             1
   Effective Rotor Count             1
   Conformer Sampling RMSD           0.4
   CID Conformer Count               [10]2

References

   1. http://toxnet.nlm.nih.gov/cgi-bin/sis/search/r?dbs+hsdb:@term+@rn+@rel+74-11-3
   2. http://toxnet.nlm.nih.gov/cgi-bin/sis/search/r?dbs+hsdb:@term+@rn+@rel+74-11-3
   3. http://toxnet.nlm.nih.gov/cgi-bin/sis/search/r?dbs+hsdb:@term+@rn+@rel+74-11-3
   4. http://toxnet.nlm.nih.gov/cgi-bin/sis/search/r?dbs+hsdb:@term+@rn+@rel+74-11-3
   5. http://toxnet.nlm.nih.gov/cgi-bin/sis/search/r?dbs+hsdb:@term+@rn+@rel+74-11-3
   6. http://toxnet.nlm.nih.gov/cgi-bin/sis/search/r?dbs+hsdb:@term+@rn+@rel+74-11-3
   7. http://toxnet.nlm.nih.gov/cgi-bin/sis/search/r?dbs+hsdb:@term+@rn+@rel+74-11-3
   8. http://toxnet.nlm.nih.gov/cgi-bin/sis/search/r?dbs+hsdb:@term+@rn+@rel+74-11-3
   9. http://toxnet.nlm.nih.gov/cgi-bin/sis/search/r?dbs+hsdb:@term+@rn+@rel+74-11-3
  10. http://pubchem.ncbi.nlm.nih.gov/vw3d/vw3d.cgi?cid=6318
