   Color/Form

     * Needles, prisms from alcohol or amyl alcohol
     * White to pale-green crystals

   from [1]HSDB

   Odor
        Faint, amine odor
   from [2]HSDB

   Melting Point
        203 deg C
   from [3]HSDB

   Octanol/Water Partition Coefficient
        log Kow = -0.66
   from [4]HSDB

   Solubilities

     * Soluble in ethanol; slightly soluble in dimethyl sulfoxide;
       insoluble in ethyl ether, benzene, chloroform
     * Moderately soluble in methanol, ethanol, ethylene glycol, pyridine;
       insoluble in acetone, ether, chloroform, benzene, ligroin
     * Soluble in ethanol; insoluble in ethyl ether and benzene.
     * Slightly soluble at room temperature in methanol, ethanol, acetic
       acid, naphtha.
     * 2 g/100 mL water at 30 deg C; 9 g/100 mL water at 60 deg C; 44
       g/100 mL water at 90 deg C

   from [5]HSDB

   Spectral Properties

     * MAX ABSORPTION (ALCOHOL SOLVENT): 235 NM (LOG E= 4.18); SADTLER REF
       NUMBER: 5619 (IR, PRISM)
     * IR: 18092 (Sadtler Research Laboratories IR Grating Collection)
     * UV: 4571 (Sadtler Research Laboratories Spectral Collection)
     * 1H NMR: 7058 (Sadtler Research Laboratories Spectral Collection)
     * MASS: 52471 (NIST/EPA/MSDC Mass Spectral Database, 1990 version)

   from [6]HSDB

   Vapor Pressure
        2.02X10-6 mm Hg at 25 deg C (est)
   from [7]HSDB

   Other Chemical/Physical Properties

     * ETHYLENE THIOUREA (ETU) IS AVAILABLE IN USA AS WHITE CRYSTALS OR
       FINELY-GROUND POWDER WITH A MELTING POINT OF 192 DEG C. IT IS ALSO
       AVAILABLE IN USA & JAPAN AS A WHITE POWDER WITH A MELTING POINT
       ABOVE 195 DEG C. IT IS AVAILABLE IN USA AS WHITE POWDER CONSISTING
       OF 80% DISPERSION OF ETU IN OIL.
     * Henry's Law constant = 1.36X10-11 atm-cu m/mol at 25 deg C (est)
     * Hydroxyl radical reaction rate constant = 1.40X10-10 cu
       cm/molec-sec at 25 deg C (est)

   from [8]HSDB

   Computed Properties
   Molecular Weight                  102.15814 [g/mol]
   Molecular Formula                 C[3]H[6]N[2]S
   XLogP3                            -0.7
   H-Bond Donor                      2
   H-Bond Acceptor                   1
   Rotatable Bond Count              0
   Tautomer Count                    2
   Exact Mass                        102.025169
   MonoIsotopic Mass                 102.025169
   Topological Polar Surface Area    56.2
   Heavy Atom Count                  6
   Formal Charge                     0
   Complexity                        63.2
   Isotope Atom Count                0
   Defined Atom Stereocenter Count   0
   Undefined Atom Stereocenter Count 0
   Defined Bond Stereocenter Count   0
   Undefined Bond Stereocenter Count 0
   Covalently-Bonded Unit Count      1
   Feature 3D Acceptor Count         1
   Feature 3D Donor Count            2
   Feature 3D Ring Count             1
   Effective Rotor Count             0.8
   Conformer Sampling RMSD           0.4
   CID Conformer Count               [9]1

References

   1. http://toxnet.nlm.nih.gov/cgi-bin/sis/search/r?dbs+hsdb:@term+@rn+@rel+96-45-7
   2. http://toxnet.nlm.nih.gov/cgi-bin/sis/search/r?dbs+hsdb:@term+@rn+@rel+96-45-7
   3. http://toxnet.nlm.nih.gov/cgi-bin/sis/search/r?dbs+hsdb:@term+@rn+@rel+96-45-7
   4. http://toxnet.nlm.nih.gov/cgi-bin/sis/search/r?dbs+hsdb:@term+@rn+@rel+96-45-7
   5. http://toxnet.nlm.nih.gov/cgi-bin/sis/search/r?dbs+hsdb:@term+@rn+@rel+96-45-7
   6. http://toxnet.nlm.nih.gov/cgi-bin/sis/search/r?dbs+hsdb:@term+@rn+@rel+96-45-7
   7. http://toxnet.nlm.nih.gov/cgi-bin/sis/search/r?dbs+hsdb:@term+@rn+@rel+96-45-7
   8. http://toxnet.nlm.nih.gov/cgi-bin/sis/search/r?dbs+hsdb:@term+@rn+@rel+96-45-7
   9. http://pubchem.ncbi.nlm.nih.gov/vw3d/vw3d.cgi?cid=2723650
