   Color/Form

     * POINTED PRISMS FROM BENZENE
     * Colorless

   from [1]HSDB

   Odor
        Odorless
   from [2]HSDB

   Taste
        Tasteless
   from [3]HSDB

   Melting Point
        80-85 DEG C
   from [4]HSDB

   Solubilities
        Water sol
   from [5]HSDB

   Spectral Properties

     * SPECIFIC OPTICAL ROTATION: 17 DEG @ 20 DEG C/D (CONCENTRATION BY
       VOLUME= 0.5 G IN 100 ML PYRIDINE) MAX ABSORPTION (ETHANOL): 311 NM
       (E= 257, 1%, 1CM)
     * Intense mass spectral peaks: 181 m/z, 221 m/z, 323 m/z

   from [6]HSDB

   Other Chemical/Physical Properties

     * SOLVATED, ELONGATED PRISMS FROM METHANOL; SOL IN WATER; MP: 198-200
       DEG C; SPECIFIC OPTICAL ROTATION: 30 DEG @ 20 DEG C/D /LYSERGIDE
       D-TARTRATE/
     * Sensitivity to both light and heat.

   from [7]HSDB

   Computed Properties
   Molecular Weight                  323.432 [g/mol]
   Molecular Formula                 C[20]H[25]N[3]O
   XLogP3                            3
   H-Bond Donor                      1
   H-Bond Acceptor                   2
   Rotatable Bond Count              3
   Tautomer Count                    2
   Exact Mass                        323.199762
   MonoIsotopic Mass                 323.199762
   Topological Polar Surface Area    39.3
   Heavy Atom Count                  24
   Formal Charge                     0
   Complexity                        527
   Isotope Atom Count                0
   Defined Atom Stereocenter Count   2
   Undefined Atom Stereocenter Count 0
   Defined Bond Stereocenter Count   0
   Undefined Bond Stereocenter Count 0
   Covalently-Bonded Unit Count      1
   Feature 3D Acceptor Count         1
   Feature 3D Donor Count            1
   Feature 3D Cation Count           2
   Feature 3D Ring Count             4
   Effective Rotor Count             4.8
   Conformer Sampling RMSD           0.8
   CID Conformer Count               [8]7

References

   1. http://toxnet.nlm.nih.gov/cgi-bin/sis/search/r?dbs+hsdb:@term+@rn+@rel+50-37-3
   2. http://toxnet.nlm.nih.gov/cgi-bin/sis/search/r?dbs+hsdb:@term+@rn+@rel+50-37-3
   3. http://toxnet.nlm.nih.gov/cgi-bin/sis/search/r?dbs+hsdb:@term+@rn+@rel+50-37-3
   4. http://toxnet.nlm.nih.gov/cgi-bin/sis/search/r?dbs+hsdb:@term+@rn+@rel+50-37-3
   5. http://toxnet.nlm.nih.gov/cgi-bin/sis/search/r?dbs+hsdb:@term+@rn+@rel+50-37-3
   6. http://toxnet.nlm.nih.gov/cgi-bin/sis/search/r?dbs+hsdb:@term+@rn+@rel+50-37-3
   7. http://toxnet.nlm.nih.gov/cgi-bin/sis/search/r?dbs+hsdb:@term+@rn+@rel+50-37-3
   8. http://pubchem.ncbi.nlm.nih.gov/vw3d/vw3d.cgi?cid=5761
