   Color/Form

     * Monoclinic plates from alcohol
     * Colorless, shining crystals
     * Leaves (sublimes)

   from [1]HSDB

   Odor
        Faint aromatic odor
   from [2]HSDB

   Boiling Point
        340 deg C
   from [3]HSDB

   Melting Point
        101 deg C
   from [4]HSDB

   Critical Temperature and Pressure
        Critical temperature: 869 K (596 deg C)
   from [5]HSDB

   Density/Specific Gravity
        1.179 at 25 deg C
   from [6]HSDB

   Heat of Combustion
        1,685.6 kcal at 25 deg C
   from [7]HSDB

   Heat of Vaporization
        75.50 kJ/mol at 25 deg C
   from [8]HSDB

   Octanol/Water Partition Coefficient
        log Kow = 4.46
   from [9]HSDB

   Solubilities

     * Sol in organic solvents, especially in aromatic hydrocarbons. One
       gram dissolves in 60 mL cold, 10 mL boiling 95% alcohol, 25 mL
       absolute alcohol, 2.4 mL toluene or carbon tetrachloride, 2 mL
       benzene, 1 mL carbon disulfide, 3.3 mL anhydr ether. Soluble in
       glacial acetic acid.
     * Soluble in ethanol, diethyl ether, acetone, benzene, and carbon
       disulfide.
     * In water, 1.6 mg/L at 15 deg C; 0.42 mg/L at 8.5 deg C; 0.82 mg/L
       at 21 deg C; 1.3 mg/L at 30 deg C; In seawater: 0.6 mg/L at 22 deg
       C
     * In water, 1.15 mg/L at 25 deg C

   from [10]HSDB

   Spectral Properties

     * MAX ABSORPTION (HEPTANE): 187.5 NM (LOG E= 4.48); 211.5 NM (LOG E=
       4.57); INDEX OF REFRACTION: 1.59427; SADTLER REFERENCE NUMBER: 810
       (IR, PRISM); 8035 (IR, GRATING)
     * Max absorption (methanol-ethanol): 210, 219, 242, 251, 273.5, 281,
       292.5, 308.5 314, 322.5, 329.5, 337, 345 nm
     * Intense mass spectral peaks: 178 m/z (100%), 176 m/z (25%), 179 m/z
       (23%), 177 m/z (15%)
     * Index of refraction: 1.5943
     * IR: 6030 (Coblentz Society Spectral Collection)
     * UV: 256 (Sadtler Research Laboratories Spectral Collection)
     * 1H NMR: 61 (Sadtler Research Laboratories Spectral Collection)
     * MASS: 107152 (NIST/EPA/MSDC Mass Spectral Database 1990 version);
       150 (Aldermaston, Eight Peak Index of Mass Spectra, U.K.)
     * UV: Absorbs at wavelenghts >290 nm

   from [11]HSDB

   Vapor Density
        6.15 (Air = 1) at boiling point of phenanthrene
   from [12]HSDB

   Vapor Pressure
        1.21X10-4 mm Hg at 25 deg C
   from [13]HSDB

   Other Chemical/Physical Properties

     * Isomeric with anthracene; sublimes in high vacuum
     * Can be hydrogenated, nitrated, sulfonated, and halogenated at
       various positions; Forms a 9,10-ozonide from which a 2,2'-diformyl
       diphenyl can be obtained; Lithium, sodium, and potassium add at the
       9,10- position; reacts with Nitrogen oxide and Nitrogen dioxide to
       form nitro derivatives.
     * Heat of formation: 116.2 kJ/mol (solid); 207.5 kJ/mol (gas). Molar
       entropy: 215.1 J/mol-K. Heat capacity: 220.6 J/mol-K
     * Heat of fusion: 16.46 kJ/mol
     * Sublimation pressure = 0.025 Pa at 300 K
     * Solutions exhibit a blue fluorescence
     * /Phenanthrene/ does not contain a group amenable to hydrolysis.
     * Henry's Law constant = 4.23X10-5 atm-cu m/mol at 25 deg C
     * Hydroxyl radical reaction rate constant = 1.30X10-11 cu
       cm/molec-sec at 23 deg C

   from [14]HSDB

   Computed Properties
   Molecular Weight                  178.2292 [g/mol]
   Molecular Formula                 C[14]H[10]
   XLogP3                            4.5
   H-Bond Donor                      0
   H-Bond Acceptor                   0
   Rotatable Bond Count              0
   Exact Mass                        178.07825
   MonoIsotopic Mass                 178.07825
   Topological Polar Surface Area    0
   Heavy Atom Count                  14
   Formal Charge                     0
   Complexity                        174
   Isotope Atom Count                0
   Defined Atom Stereocenter Count   0
   Undefined Atom Stereocenter Count 0
   Defined Bond Stereocenter Count   0
   Undefined Bond Stereocenter Count 0
   Covalently-Bonded Unit Count      1
   Feature 3D Ring Count             3
   Effective Rotor Count             0
   Conformer Sampling RMSD           0.4
   CID Conformer Count               [15]1

References

   1. http://toxnet.nlm.nih.gov/cgi-bin/sis/search/r?dbs+hsdb:@term+@rn+@rel+85-01-8
   2. http://toxnet.nlm.nih.gov/cgi-bin/sis/search/r?dbs+hsdb:@term+@rn+@rel+85-01-8
   3. http://toxnet.nlm.nih.gov/cgi-bin/sis/search/r?dbs+hsdb:@term+@rn+@rel+85-01-8
   4. http://toxnet.nlm.nih.gov/cgi-bin/sis/search/r?dbs+hsdb:@term+@rn+@rel+85-01-8
   5. http://toxnet.nlm.nih.gov/cgi-bin/sis/search/r?dbs+hsdb:@term+@rn+@rel+85-01-8
   6. http://toxnet.nlm.nih.gov/cgi-bin/sis/search/r?dbs+hsdb:@term+@rn+@rel+85-01-8
   7. http://toxnet.nlm.nih.gov/cgi-bin/sis/search/r?dbs+hsdb:@term+@rn+@rel+85-01-8
   8. http://toxnet.nlm.nih.gov/cgi-bin/sis/search/r?dbs+hsdb:@term+@rn+@rel+85-01-8
   9. http://toxnet.nlm.nih.gov/cgi-bin/sis/search/r?dbs+hsdb:@term+@rn+@rel+85-01-8
  10. http://toxnet.nlm.nih.gov/cgi-bin/sis/search/r?dbs+hsdb:@term+@rn+@rel+85-01-8
  11. http://toxnet.nlm.nih.gov/cgi-bin/sis/search/r?dbs+hsdb:@term+@rn+@rel+85-01-8
  12. http://toxnet.nlm.nih.gov/cgi-bin/sis/search/r?dbs+hsdb:@term+@rn+@rel+85-01-8
  13. http://toxnet.nlm.nih.gov/cgi-bin/sis/search/r?dbs+hsdb:@term+@rn+@rel+85-01-8
  14. http://toxnet.nlm.nih.gov/cgi-bin/sis/search/r?dbs+hsdb:@term+@rn+@rel+85-01-8
  15. http://pubchem.ncbi.nlm.nih.gov/vw3d/vw3d.cgi?cid=995
