   Color/Form

     * Yellow to colorless crystals from toluene
     * Golden yellow plates

   from [1]HSDB

   Boiling Point
        350-400 (sublimes)
   from [2]HSDB

   Melting Point
        273-274 deg C
   from [3]HSDB

   Density/Specific Gravity
        1.35
   from [4]HSDB

   Octanol/Water Partition Coefficient
        log Kow= 5.82
   from [5]HSDB

   Solubilities

     * Freely soluble in carbon disulfide, chloroform; moderately soluble
       in benzene; slightly in ether, alcohol, acetone; very sparingly
       soluble in petroleum ether.
     * Sl sol in ethyl alcohol, ethyl ether; very sol in acetone
     * In water, 0.0004 mg/l at 25 deg C.

   from [6]HSDB

   Spectral Properties

     * Max wavelength: 245, 251, 368, 387, 406, 434 nm in methanol/ethanol
     * Absorption spectrum: Clar, Ber. 65, 848 (1932)

   from [7]HSDB

   Vapor Pressure
        5.25X10-9 mm Hg at 25 deg C
   from [8]HSDB

   Other Chemical/Physical Properties

     * Henry's Law constant= 4.34X10-6 atm cu-m/mol at 25 deg C
     * Photo-oxidizable in presence of acids; forms deep-brown molecular
       compounds with halogens; can be hydrogenated to
       tetradecahydroperylene; reacts with nitrogen dioxide to form nitro
       derivatives

   from [9]HSDB

   Computed Properties
   Molecular Weight                  252.30928 [g/mol]
   Molecular Formula                 C[20]H[12]
   XLogP3-AA                         5.8
   H-Bond Donor                      0
   H-Bond Acceptor                   0
   Rotatable Bond Count              0
   Exact Mass                        252.0939
   MonoIsotopic Mass                 252.0939
   Topological Polar Surface Area    0
   Heavy Atom Count                  20
   Formal Charge                     0
   Complexity                        304
   Isotope Atom Count                0
   Defined Atom Stereocenter Count   0
   Undefined Atom Stereocenter Count 0
   Defined Bond Stereocenter Count   0
   Undefined Bond Stereocenter Count 0
   Covalently-Bonded Unit Count      1
   Feature 3D Ring Count             5
   Effective Rotor Count             0
   Conformer Sampling RMSD           0.6
   CID Conformer Count               [10]1

References

   1. http://toxnet.nlm.nih.gov/cgi-bin/sis/search/r?dbs+hsdb:@term+@rn+@rel+198-55-0
   2. http://toxnet.nlm.nih.gov/cgi-bin/sis/search/r?dbs+hsdb:@term+@rn+@rel+198-55-0
   3. http://toxnet.nlm.nih.gov/cgi-bin/sis/search/r?dbs+hsdb:@term+@rn+@rel+198-55-0
   4. http://toxnet.nlm.nih.gov/cgi-bin/sis/search/r?dbs+hsdb:@term+@rn+@rel+198-55-0
   5. http://toxnet.nlm.nih.gov/cgi-bin/sis/search/r?dbs+hsdb:@term+@rn+@rel+198-55-0
   6. http://toxnet.nlm.nih.gov/cgi-bin/sis/search/r?dbs+hsdb:@term+@rn+@rel+198-55-0
   7. http://toxnet.nlm.nih.gov/cgi-bin/sis/search/r?dbs+hsdb:@term+@rn+@rel+198-55-0
   8. http://toxnet.nlm.nih.gov/cgi-bin/sis/search/r?dbs+hsdb:@term+@rn+@rel+198-55-0
   9. http://toxnet.nlm.nih.gov/cgi-bin/sis/search/r?dbs+hsdb:@term+@rn+@rel+198-55-0
  10. http://pubchem.ncbi.nlm.nih.gov/vw3d/vw3d.cgi?cid=9142
