   Color/Form
        Colorless crystals
   from [1]HSDB

   Melting Point
        105 deg C
   from [2]HSDB

   Dissociation Constants
        pKa = 2.3 (est)
   from [3]HSDB

   Octanol/Water Partition Coefficient
        log Kow = 3.7
   from [4]HSDB

   Solubilities
        In water, 36 mg/L at pH 5-9, 20 deg C
   from [5]HSDB

   Vapor Pressure
        1.7X10-6 Pa (1.3X10-8 mm Hg) at 20 deg C
   from [6]HSDB

   Other Chemical/Physical Properties

     * Henry's Law constant = 1.45X10-10 atm-cu m/mole at 20 deg C (est)
     * Hydroxyl radical reaction rate constant = 1.1 X10-11 cu
       cm/molec-sec at 25 deg C (est)

   from [7]HSDB

   Computed Properties
   Molecular Weight                  307.81838 [g/mol]
   Molecular Formula                 C[16]H[22]ClN[3]O
   XLogP3                            3.7
   H-Bond Donor                      1
   H-Bond Acceptor                   3
   Rotatable Bond Count              6
   Exact Mass                        307.14514
   MonoIsotopic Mass                 307.14514
   Topological Polar Surface Area    50.9
   Heavy Atom Count                  21
   Formal Charge                     0
   Complexity                        326
   Isotope Atom Count                0
   Defined Atom Stereocenter Count   0
   Undefined Atom Stereocenter Count 1
   Defined Bond Stereocenter Count   0
   Undefined Bond Stereocenter Count 0
   Covalently-Bonded Unit Count      1
   Feature 3D Acceptor Count         1
   Feature 3D Donor Count            1
   Feature 3D Cation Count           2
   Feature 3D Hydrophobe Count       1
   Feature 3D Ring Count             2
   Effective Rotor Count             6
   Conformer Sampling RMSD           0.8
   CID Conformer Count               [8]36

References

   1. http://toxnet.nlm.nih.gov/cgi-bin/sis/search/r?dbs+hsdb:@term+@rn+@rel+107534-96-3
   2. http://toxnet.nlm.nih.gov/cgi-bin/sis/search/r?dbs+hsdb:@term+@rn+@rel+107534-96-3
   3. http://toxnet.nlm.nih.gov/cgi-bin/sis/search/r?dbs+hsdb:@term+@rn+@rel+107534-96-3
   4. http://toxnet.nlm.nih.gov/cgi-bin/sis/search/r?dbs+hsdb:@term+@rn+@rel+107534-96-3
   5. http://toxnet.nlm.nih.gov/cgi-bin/sis/search/r?dbs+hsdb:@term+@rn+@rel+107534-96-3
   6. http://toxnet.nlm.nih.gov/cgi-bin/sis/search/r?dbs+hsdb:@term+@rn+@rel+107534-96-3
   7. http://toxnet.nlm.nih.gov/cgi-bin/sis/search/r?dbs+hsdb:@term+@rn+@rel+107534-96-3
   8. http://pubchem.ncbi.nlm.nih.gov/vw3d/vw3d.cgi?cid=86102
