   Color/Form

     * Colorless powder
     * WHITE SOLID
     * Off-white. Powdery solid, waxy and globular

   from [1]HSDB

   Odor
        Rancid, putrid
   from [2]HSDB

   Melting Point
        177-179 deg C
   from [3]HSDB

   Corrosivity
        Non-corrosive
   from [4]HSDB

   Density/Specific Gravity
        1.188 g/cu cm @ 20 deg C
   from [5]HSDB

   Dissociation Constants
        pKa = 2.0; very weak base
   from [6]HSDB

   Octanol/Water Partition Coefficient
        log Kow = 3.21 (unionised)
   from [7]HSDB

   Solubilities

     * In acetone 41, ethanol 14, n-octanol 12, n-hexane 0.36 (all in
       g/liter, 25 deg C)
     * Dimethylformamide, 40 g/liter; ethyl acetate, 10 g/liter;
       isopropanol, 10 g/liter; tetralin, 10 g/l; xylene, 14.3 g/liter
     * Toluene, 1.04 g/100 ml; ethylene glycol, 0.236 g/100 ml, both at 25
       deg C
     * In water, 8.5 mg/liter @ 20 deg C, pH 7

   from [8]HSDB

   Vapor Pressure
        1.12X10-6 mm Hg @ 25 deg C
   from [9]HSDB

   Other Chemical/Physical Properties

     * Henry's Law constant = 3.72X10-8 atm-cu m/mol @ 25 deg C /VP/WSOL/
     * Hydroxyl radical reaction rate constant = 1.10X10-11 cu
       cm/molec-sec @ 25 deg C

   from [10]HSDB

   Computed Properties
   Molecular Weight                  229.70984 [g/mol]
   Molecular Formula                 C[9]H[16]ClN[5]
   XLogP3                            3.1
   H-Bond Donor                      2
   H-Bond Acceptor                   5
   Rotatable Bond Count              4
   Tautomer Count                    9
   Exact Mass                        229.109423
   MonoIsotopic Mass                 229.109423
   Topological Polar Surface Area    62.7
   Heavy Atom Count                  15
   Formal Charge                     0
   Complexity                        193
   Isotope Atom Count                0
   Defined Atom Stereocenter Count   0
   Undefined Atom Stereocenter Count 0
   Defined Bond Stereocenter Count   0
   Undefined Bond Stereocenter Count 0
   Covalently-Bonded Unit Count      1
   Feature 3D Donor Count            2
   Feature 3D Cation Count           2
   Feature 3D Hydrophobe Count       1
   Feature 3D Ring Count             1
   Effective Rotor Count             4
   Conformer Sampling RMSD           0.6
   CID Conformer Count               [11]33

References

   1. http://toxnet.nlm.nih.gov/cgi-bin/sis/search/r?dbs+hsdb:@term+@rn+@rel+5915-41-3
   2. http://toxnet.nlm.nih.gov/cgi-bin/sis/search/r?dbs+hsdb:@term+@rn+@rel+5915-41-3
   3. http://toxnet.nlm.nih.gov/cgi-bin/sis/search/r?dbs+hsdb:@term+@rn+@rel+5915-41-3
   4. http://toxnet.nlm.nih.gov/cgi-bin/sis/search/r?dbs+hsdb:@term+@rn+@rel+5915-41-3
   5. http://toxnet.nlm.nih.gov/cgi-bin/sis/search/r?dbs+hsdb:@term+@rn+@rel+5915-41-3
   6. http://toxnet.nlm.nih.gov/cgi-bin/sis/search/r?dbs+hsdb:@term+@rn+@rel+5915-41-3
   7. http://toxnet.nlm.nih.gov/cgi-bin/sis/search/r?dbs+hsdb:@term+@rn+@rel+5915-41-3
   8. http://toxnet.nlm.nih.gov/cgi-bin/sis/search/r?dbs+hsdb:@term+@rn+@rel+5915-41-3
   9. http://toxnet.nlm.nih.gov/cgi-bin/sis/search/r?dbs+hsdb:@term+@rn+@rel+5915-41-3
  10. http://toxnet.nlm.nih.gov/cgi-bin/sis/search/r?dbs+hsdb:@term+@rn+@rel+5915-41-3
  11. http://pubchem.ncbi.nlm.nih.gov/vw3d/vw3d.cgi?cid=22206
