5281991
  -OEChem-07051213022D

 65 66  0     1  0  0  0  0  0999 V2000
    3.7320   -2.8932    0.0000 P   0  0  3  0  0  0  0  0  0  0  0  0
    2.8660   -4.3932    0.0000 P   0  0  0  0  0  0  0  0  0  0  0  0
    3.7320   -1.8932    0.0000 O   0  0  0  0  0  0  0  0  0  0  0  0
    3.7320   -3.8932    0.0000 O   0  0  0  0  0  0  0  0  0  0  0  0
    2.7320   -2.8932    0.0000 O   0  0  0  0  0  0  0  0  0  0  0  0
    4.7320   -2.8932    0.0000 O   0  0  0  0  0  0  0  0  0  0  0  0
    2.0000   -4.8932    0.0000 O   0  0  0  0  0  0  0  0  0  0  0  0
    3.3660   -5.2592    0.0000 O   0  0  0  0  0  0  0  0  0  0  0  0
    2.3660   -3.5272    0.0000 O   0  0  0  0  0  0  0  0  0  0  0  0
    7.1962    3.1068    0.0000 C   0  0  1  0  0  0  0  0  0  0  0  0
    7.1962    4.1068    0.0000 C   0  0  2  0  0  0  0  0  0  0  0  0
    8.0901    4.6415    0.0000 C   0  0  0  0  0  0  0  0  0  0  0  0
    6.3301    2.6068    0.0000 C   0  0  1  0  0  0  0  0  0  0  0  0
    8.0901    2.5721    0.0000 C   0  0  0  0  0  0  0  0  0  0  0  0
    6.3301    4.6068    0.0000 C   0  0  0  0  0  0  0  0  0  0  0  0
    8.9962    4.1276    0.0000 C   0  0  0  0  0  0  0  0  0  0  0  0
    8.9962    3.0860    0.0000 C   0  0  0  0  0  0  0  0  0  0  0  0
    7.1962    2.1068    0.0000 C   0  0  0  0  0  0  0  0  0  0  0  0
    5.4641    4.1068    0.0000 C   0  0  0  0  0  0  0  0  0  0  0  0
    5.4641    3.1068    0.0000 C   0  0  0  0  0  0  0  0  0  0  0  0
    6.3301    1.6068    0.0000 C   0  0  0  0  0  0  0  0  0  0  0  0
    8.5800    5.5132    0.0000 C   0  0  0  0  0  0  0  0  0  0  0  0
    7.5801    5.5016    0.0000 C   0  0  0  0  0  0  0  0  0  0  0  0
    5.4641    1.1068    0.0000 C   0  0  0  0  0  0  0  0  0  0  0  0
    4.5981    2.6068    0.0000 C   0  0  0  0  0  0  0  0  0  0  0  0
    5.4641    0.1068    0.0000 C   0  0  0  0  0  0  0  0  0  0  0  0
    6.3301   -0.3932    0.0000 C   0  0  0  0  0  0  0  0  0  0  0  0
    4.5981   -0.3932    0.0000 C   0  0  0  0  0  0  0  0  0  0  0  0
    4.5981   -1.3932    0.0000 C   0  0  0  0  0  0  0  0  0  0  0  0
    7.1896    4.9568    0.0000 H   0  0  0  0  0  0  0  0  0  0  0  0
    6.8671    2.2968    0.0000 H   0  0  0  0  0  0  0  0  0  0  0  0
    7.6855    2.1024    0.0000 H   0  0  0  0  0  0  0  0  0  0  0  0
    8.4837    2.0931    0.0000 H   0  0  0  0  0  0  0  0  0  0  0  0
    6.7287    5.0817    0.0000 H   0  0  0  0  0  0  0  0  0  0  0  0
    5.9316    5.0817    0.0000 H   0  0  0  0  0  0  0  0  0  0  0  0
    9.6070    4.0215    0.0000 H   0  0  0  0  0  0  0  0  0  0  0  0
    9.2052    4.7113    0.0000 H   0  0  0  0  0  0  0  0  0  0  0  0
    9.2052    2.5023    0.0000 H   0  0  0  0  0  0  0  0  0  0  0  0
    9.6070    3.1921    0.0000 H   0  0  0  0  0  0  0  0  0  0  0  0
    6.5762    2.1068    0.0000 H   0  0  0  0  0  0  0  0  0  0  0  0
    7.1962    1.4868    0.0000 H   0  0  0  0  0  0  0  0  0  0  0  0
    7.8162    2.1068    0.0000 H   0  0  0  0  0  0  0  0  0  0  0  0
    5.2520    4.6894    0.0000 H   0  0  0  0  0  0  0  0  0  0  0  0
    4.8535    3.9991    0.0000 H   0  0  0  0  0  0  0  0  0  0  0  0
    6.5422    1.0242    0.0000 H   0  0  0  0  0  0  0  0  0  0  0  0
    6.9407    1.7145    0.0000 H   0  0  0  0  0  0  0  0  0  0  0  0
    8.1134    5.8178    0.0000 H   0  0  0  0  0  0  0  0  0  0  0  0
    7.2639    6.0350    0.0000 H   0  0  0  0  0  0  0  0  0  0  0  0
    7.0468    5.1854    0.0000 H   0  0  0  0  0  0  0  0  0  0  0  0
    9.1205    5.2094    0.0000 H   0  0  0  0  0  0  0  0  0  0  0  0
    8.8838    6.0537    0.0000 H   0  0  0  0  0  0  0  0  0  0  0  0
    8.0396    5.8170    0.0000 H   0  0  0  0  0  0  0  0  0  0  0  0
    5.2520    1.6894    0.0000 H   0  0  0  0  0  0  0  0  0  0  0  0
    4.8535    0.9991    0.0000 H   0  0  0  0  0  0  0  0  0  0  0  0
    4.0611    2.9168    0.0000 H   0  0  0  0  0  0  0  0  0  0  0  0
    4.5981    1.9868    0.0000 H   0  0  0  0  0  0  0  0  0  0  0  0
    6.0201   -0.9301    0.0000 H   0  0  0  0  0  0  0  0  0  0  0  0
    6.8671   -0.7032    0.0000 H   0  0  0  0  0  0  0  0  0  0  0  0
    6.6401    0.1437    0.0000 H   0  0  0  0  0  0  0  0  0  0  0  0
    4.0611   -0.0832    0.0000 H   0  0  0  0  0  0  0  0  0  0  0  0
    4.8101   -1.9758    0.0000 H   0  0  0  0  0  0  0  0  0  0  0  0
    5.2087   -1.2855    0.0000 H   0  0  0  0  0  0  0  0  0  0  0  0
    2.4220   -2.3563    0.0000 H   0  0  0  0  0  0  0  0  0  0  0  0
    2.0000   -5.5132    0.0000 H   0  0  0  0  0  0  0  0  0  0  0  0
    3.9860   -5.2592    0.0000 H   0  0  0  0  0  0  0  0  0  0  0  0
  1  3  1  0  0  0  0
  1  4  1  0  0  0  0
  1  5  1  0  0  0  0
  1  6  2  0  0  0  0
  2  4  1  0  0  0  0
  2  7  1  0  0  0  0
  2  8  1  0  0  0  0
  2  9  2  0  0  0  0
  3 29  1  0  0  0  0
  5 63  1  0  0  0  0
  7 64  1  0  0  0  0
  8 65  1  0  0  0  0
 10 11  1  0  0  0  0
 10 13  1  0  0  0  0
 10 14  1  0  0  0  0
 10 18  1  1  0  0  0
 11 12  1  0  0  0  0
 11 15  1  0  0  0  0
 11 30  1  6  0  0  0
 12 16  1  0  0  0  0
 12 22  1  0  0  0  0
 12 23  1  0  0  0  0
 13 20  1  0  0  0  0
 13 21  1  6  0  0  0
 13 31  1  0  0  0  0
 14 17  1  0  0  0  0
 14 32  1  0  0  0  0
 14 33  1  0  0  0  0
 15 19  1  0  0  0  0
 15 34  1  0  0  0  0
 15 35  1  0  0  0  0
 16 17  1  0  0  0  0
 16 36  1  0  0  0  0
 16 37  1  0  0  0  0
 17 38  1  0  0  0  0
 17 39  1  0  0  0  0
 18 40  1  0  0  0  0
 18 41  1  0  0  0  0
 18 42  1  0  0  0  0
 19 20  1  0  0  0  0
 19 43  1  0  0  0  0
 19 44  1  0  0  0  0
 20 25  2  0  0  0  0
 21 24  1  0  0  0  0
 21 45  1  0  0  0  0
 21 46  1  0  0  0  0
 22 50  1  0  0  0  0
 22 51  1  0  0  0  0
 22 52  1  0  0  0  0
 23 47  1  0  0  0  0
 23 48  1  0  0  0  0
 23 49  1  0  0  0  0
 24 26  1  0  0  0  0
 24 53  1  0  0  0  0
 24 54  1  0  0  0  0
 25 55  1  0  0  0  0
 25 56  1  0  0  0  0
 26 27  1  0  0  0  0
 26 28  2  0  0  0  0
 27 57  1  0  0  0  0
 27 58  1  0  0  0  0
 27 59  1  0  0  0  0
 28 29  1  0  0  0  0
 28 60  1  0  0  0  0
 29 61  1  0  0  0  0
 29 62  1  0  0  0  0
M  END
> <PUBCHEM_COMPOUND_CID>
5281991

> <PUBCHEM_COMPOUND_CANONICALIZED>
1

> <PUBCHEM_CACTVS_COMPLEXITY>
739

> <PUBCHEM_CACTVS_HBOND_ACCEPTOR>
7

> <PUBCHEM_CACTVS_HBOND_DONOR>
3

> <PUBCHEM_CACTVS_ROTATABLE_BOND>
8

> <PUBCHEM_CACTVS_SUBSKEYS>
AAADcfB4OAMAAAAAAAAAAAAAAAAAAAAAAAAwYAAAAAAAAADAAAAAGgAACCAADwCggAICAAAAARCAQiBCAIAAAAAgAAAACAAAAAgABAIAAQAAEAAAgAAIAAMAgMAPgAAAAAAAAAAAAAQAACAAAAAAAAAAAA==

> <PUBCHEM_IUPAC_OPENEYE_NAME>
[(E)-5-[(1R,4aS,8aS)-5,5,8a-trimethyl-2-methylene-decalin-1-yl]-3-methyl-pent-2-enyl] phosphono hydrogen phosphate

> <PUBCHEM_IUPAC_CAS_NAME>
[(E)-5-[(1R,4aS,8aS)-5,5,8a-trimethyl-2-methylene-3,4,4a,6,7,8-hexahydro-1H-naphthalen-1-yl]-3-methylpent-2-enyl] phosphono hydrogen phosphate

> <PUBCHEM_IUPAC_NAME>
[(E)-5-[(1R,4aS,8aS)-5,5,8a-trimethyl-2-methylidene-3,4,4a,6,7,8-hexahydro-1H-naphthalen-1-yl]-3-methylpent-2-enyl] phosphono hydrogen phosphate

> <PUBCHEM_IUPAC_SYSTEMATIC_NAME>
[(E)-5-[(1R,4aS,8aS)-5,5,8a-trimethyl-2-methylidene-3,4,4a,6,7,8-hexahydro-1H-naphthalen-1-yl]-3-methyl-pent-2-enyl] phosphono hydrogen phosphate

> <PUBCHEM_IUPAC_TRADITIONAL_NAME>
[(E)-5-[(1R,4aS,8aS)-5,5,8a-trimethyl-2-methylene-decalin-1-yl]-3-methyl-pent-2-enyl] phosphono hydrogen phosphate

> <PUBCHEM_IUPAC_INCHI>
InChI=1S/C20H36O7P2/c1-15(11-14-26-29(24,25)27-28(21,22)23)7-9-17-16(2)8-10-18-19(3,4)12-6-13-20(17,18)5/h11,17-18H,2,6-10,12-14H2,1,3-5H3,(H,24,25)(H2,21,22,23)/b15-11+/t17-,18+,20-/m1/s1

> <PUBCHEM_IUPAC_INCHIKEY>
JCAIWDXKLCEQEO-HZEYQZKKSA-N

> <PUBCHEM_XLOGP3_AA>
3.9

> <PUBCHEM_EXACT_MASS>
450.193627

> <PUBCHEM_MOLECULAR_FORMULA>
C20H36O7P2

> <PUBCHEM_MOLECULAR_WEIGHT>
450.443164

> <PUBCHEM_OPENEYE_CAN_SMILES>
CC(=CCOP(=O)(O)OP(=O)(O)O)CCC1C(=C)CCC2C1(CCCC2(C)C)C

> <PUBCHEM_OPENEYE_ISO_SMILES>
C/C(=C\COP(=O)(O)OP(=O)(O)O)/CC[C@@H]1C(=C)CC[C@@H]2[C@@]1(CCCC2(C)C)C

> <PUBCHEM_CACTVS_TPSA>
113

> <PUBCHEM_MONOISOTOPIC_WEIGHT>
450.193627

> <PUBCHEM_TOTAL_CHARGE>
0

> <PUBCHEM_HEAVY_ATOM_COUNT>
29

> <PUBCHEM_ATOM_DEF_STEREO_COUNT>
3

> <PUBCHEM_ATOM_UDEF_STEREO_COUNT>
0

> <PUBCHEM_BOND_DEF_STEREO_COUNT>
1

> <PUBCHEM_BOND_UDEF_STEREO_COUNT>
0

> <PUBCHEM_ISOTOPIC_ATOM_COUNT>
0

> <PUBCHEM_COMPONENT_COUNT>
1

> <PUBCHEM_CACTVS_TAUTO_COUNT>
1

> <PUBCHEM_COORDINATE_TYPE>
1
5
255

> <PUBCHEM_BONDANNOTATIONS>
10  18  5
11  30  6
13  21  6

$$$$

