   Color/Form
        Tan solid
   from [1]HSDB

   Odor
        Faint sulfur-like
   from [2]HSDB

   Melting Point
        121-123 deg C
   from [3]HSDB

   Density/Specific Gravity
        1.21 g/ml @ 20 deg C
   from [4]HSDB

   Dissociation Constants
        pKa = 6.56
   from [5]HSDB

   Octanol/Water Partition Coefficient
        log Kow = 0.99 @ pH 7
   from [6]HSDB

   Solubilities
        In water, 110 mg/l (pH 6) at 25 deg C; 780 mg/l (pH 7) at 25 deg
   C; 16000 mg/l (pH 7.5) at 25 deg C
   from [7]HSDB

   Vapor Pressure
        9.75X10-10 mm Hg @ 25 deg C
   from [8]HSDB

   Computed Properties
   Molecular Weight                  387.189906 [g/mol]
   Molecular Formula                 C[11]H[10]Cl[2]F[2]N[4]O[3]S
   XLogP3-AA                         2.3
   H-Bond Donor                      1
   H-Bond Acceptor                   7
   Rotatable Bond Count              4
   Exact Mass                        385.981873
   MonoIsotopic Mass                 385.981873
   Topological Polar Surface Area    90.5
   Heavy Atom Count                  23
   Formal Charge                     0
   Complexity                        613
   Isotope Atom Count                0
   Defined Atom Stereocenter Count   0
   Undefined Atom Stereocenter Count 0
   Defined Bond Stereocenter Count   0
   Undefined Bond Stereocenter Count 0
   Covalently-Bonded Unit Count      1
   Feature 3D Acceptor Count         3
   Feature 3D Donor Count            1
   Feature 3D Ring Count             2
   Effective Rotor Count             4
   Conformer Sampling RMSD           0.8
   CID Conformer Count               [9]41

References

   1. http://toxnet.nlm.nih.gov/cgi-bin/sis/search/r?dbs+hsdb:@term+@rn+@rel+122836-35-5
   2. http://toxnet.nlm.nih.gov/cgi-bin/sis/search/r?dbs+hsdb:@term+@rn+@rel+122836-35-5
   3. http://toxnet.nlm.nih.gov/cgi-bin/sis/search/r?dbs+hsdb:@term+@rn+@rel+122836-35-5
   4. http://toxnet.nlm.nih.gov/cgi-bin/sis/search/r?dbs+hsdb:@term+@rn+@rel+122836-35-5
   5. http://toxnet.nlm.nih.gov/cgi-bin/sis/search/r?dbs+hsdb:@term+@rn+@rel+122836-35-5
   6. http://toxnet.nlm.nih.gov/cgi-bin/sis/search/r?dbs+hsdb:@term+@rn+@rel+122836-35-5
   7. http://toxnet.nlm.nih.gov/cgi-bin/sis/search/r?dbs+hsdb:@term+@rn+@rel+122836-35-5
   8. http://toxnet.nlm.nih.gov/cgi-bin/sis/search/r?dbs+hsdb:@term+@rn+@rel+122836-35-5
   9. http://pubchem.ncbi.nlm.nih.gov/vw3d/vw3d.cgi?cid=86369
