442948
  -OEChem-07051213002D

 61 65  0     1  0  0  0  0  0999 V2000
    4.7709   -0.3402    0.0000 O   0  0  0  0  0  0  0  0  0  0  0  0
   10.7664    2.0181    0.0000 O   0  0  0  0  0  0  0  0  0  0  0  0
    3.0490   -0.5279    0.0000 O   0  0  0  0  0  0  0  0  0  0  0  0
    6.0111   -3.7258    0.0000 O   0  0  0  0  0  0  0  0  0  0  0  0
    2.5674   -4.1011    0.0000 O   0  0  0  0  0  0  0  0  0  0  0  0
    4.3976   -4.9075    0.0000 O   0  0  0  0  0  0  0  0  0  0  0  0
    4.4621    2.7135    0.0000 N   0  0  3  0  0  0  0  0  0  0  0  0
    9.3926    3.1346    0.0000 N   0  0  0  0  0  0  0  0  0  0  0  0
    6.9108    3.5499    0.0000 C   0  0  1  0  0  0  0  0  0  0  0  0
    7.1696    4.5158    0.0000 C   0  0  1  0  0  0  0  0  0  0  0  0
    5.3756    2.3068    0.0000 C   0  0  2  0  0  0  0  0  0  0  0  0
    6.4330    5.4984    0.0000 C   0  0  0  0  0  0  0  0  0  0  0  0
    9.0343    4.0682    0.0000 C   0  0  1  0  0  0  0  0  0  0  0  0
    4.5666    3.7080    0.0000 C   0  0  0  0  0  0  0  0  0  0  0  0
    8.6155    2.5053    0.0000 C   0  0  0  0  0  0  0  0  0  0  0  0
    5.5005    1.2726    0.0000 C   0  0  0  0  0  0  0  0  0  0  0  0
    9.6772    4.8877    0.0000 C   0  0  0  0  0  0  0  0  0  0  0  0
    3.6100    2.1143    0.0000 C   0  0  0  0  0  0  0  0  0  0  0  0
    4.6625    0.6539    0.0000 C   0  0  2  0  0  0  0  0  0  0  0  0
    3.7109    1.0776    0.0000 C   0  0  0  0  0  0  0  0  0  0  0  0
   10.7073    4.7327    0.0000 C   0  0  0  0  0  0  0  0  0  0  0  0
   10.4188    2.9558    0.0000 C   0  0  0  0  0  0  0  0  0  0  0  0
   11.0805    3.7602    0.0000 C   0  0  0  0  0  0  0  0  0  0  0  0
    3.9641   -0.9311    0.0000 C   0  0  0  0  0  0  0  0  0  0  0  0
    4.0725   -1.9252    0.0000 C   0  0  0  0  0  0  0  0  0  0  0  0
    3.2658   -2.5161    0.0000 C   0  0  0  0  0  0  0  0  0  0  0  0
    4.9876   -2.3284    0.0000 C   0  0  0  0  0  0  0  0  0  0  0  0
    5.0960   -3.3225    0.0000 C   0  0  0  0  0  0  0  0  0  0  0  0
    3.3741   -3.5102    0.0000 C   0  0  0  0  0  0  0  0  0  0  0  0
    4.2892   -3.9134    0.0000 C   0  0  0  0  0  0  0  0  0  0  0  0
    3.5908   -5.4984    0.0000 C   0  0  0  0  0  0  0  0  0  0  0  0
    6.6908    2.7289    0.0000 H   0  0  0  0  0  0  0  0  0  0  0  0
    7.3896    5.3369    0.0000 H   0  0  0  0  0  0  0  0  0  0  0  0
    6.1522    1.9610    0.0000 H   0  0  0  0  0  0  0  0  0  0  0  0
    6.7508    6.0308    0.0000 H   0  0  0  0  0  0  0  0  0  0  0  0
    5.8198    5.5904    0.0000 H   0  0  0  0  0  0  0  0  0  0  0  0
    8.7296    4.8617    0.0000 H   0  0  0  0  0  0  0  0  0  0  0  0
    4.4643    4.3195    0.0000 H   0  0  0  0  0  0  0  0  0  0  0  0
    3.9469    3.6891    0.0000 H   0  0  0  0  0  0  0  0  0  0  0  0
    8.2338    2.0167    0.0000 H   0  0  0  0  0  0  0  0  0  0  0  0
    9.0577    2.0707    0.0000 H   0  0  0  0  0  0  0  0  0  0  0  0
    5.7780    0.7182    0.0000 H   0  0  0  0  0  0  0  0  0  0  0  0
    6.0942    1.4512    0.0000 H   0  0  0  0  0  0  0  0  0  0  0  0
    9.8730    5.4760    0.0000 H   0  0  0  0  0  0  0  0  0  0  0  0
    9.1311    5.1813    0.0000 H   0  0  0  0  0  0  0  0  0  0  0  0
    3.3454    2.6750    0.0000 H   0  0  0  0  0  0  0  0  0  0  0  0
    3.0123    1.9496    0.0000 H   0  0  0  0  0  0  0  0  0  0  0  0
    5.2304    0.4050    0.0000 H   0  0  0  0  0  0  0  0  0  0  0  0
    3.0927    1.1240    0.0000 H   0  0  0  0  0  0  0  0  0  0  0  0
    3.5594    0.4764    0.0000 H   0  0  0  0  0  0  0  0  0  0  0  0
   11.3156    4.8525    0.0000 H   0  0  0  0  0  0  0  0  0  0  0  0
   10.6932    5.3525    0.0000 H   0  0  0  0  0  0  0  0  0  0  0  0
   11.4849    3.2902    0.0000 H   0  0  0  0  0  0  0  0  0  0  0  0
   11.6128    4.0782    0.0000 H   0  0  0  0  0  0  0  0  0  0  0  0
    2.6984   -2.2661    0.0000 H   0  0  0  0  0  0  0  0  0  0  0  0
    5.4878   -1.9621    0.0000 H   0  0  0  0  0  0  0  0  0  0  0  0
    6.5113   -3.3594    0.0000 H   0  0  0  0  0  0  0  0  0  0  0  0
    2.0000   -3.8511    0.0000 H   0  0  0  0  0  0  0  0  0  0  0  0
    3.2245   -4.9983    0.0000 H   0  0  0  0  0  0  0  0  0  0  0  0
    3.0906   -5.8648    0.0000 H   0  0  0  0  0  0  0  0  0  0  0  0
    3.9572   -5.9986    0.0000 H   0  0  0  0  0  0  0  0  0  0  0  0
 19  1  1  1  0  0  0
  1 24  1  0  0  0  0
  2 22  2  0  0  0  0
  3 24  2  0  0  0  0
  4 28  1  0  0  0  0
  4 57  1  0  0  0  0
  5 29  1  0  0  0  0
  5 58  1  0  0  0  0
  6 30  1  0  0  0  0
  6 31  1  0  0  0  0
  7 11  1  0  0  0  0
  7 14  1  0  0  0  0
  7 18  1  0  0  0  0
  8 13  1  0  0  0  0
  8 15  1  0  0  0  0
  8 22  1  0  0  0  0
  9 11  1  0  0  0  0
  9 12  1  0  0  0  0
  9 15  1  0  0  0  0
  9 32  1  6  0  0  0
 10 12  1  0  0  0  0
 10 13  1  0  0  0  0
 10 14  1  0  0  0  0
 10 33  1  6  0  0  0
 11 16  1  0  0  0  0
 11 34  1  1  0  0  0
 12 35  1  0  0  0  0
 12 36  1  0  0  0  0
 13 17  1  0  0  0  0
 13 37  1  6  0  0  0
 14 38  1  0  0  0  0
 14 39  1  0  0  0  0
 15 40  1  0  0  0  0
 15 41  1  0  0  0  0
 16 19  1  0  0  0  0
 16 42  1  0  0  0  0
 16 43  1  0  0  0  0
 17 21  1  0  0  0  0
 17 44  1  0  0  0  0
 17 45  1  0  0  0  0
 18 20  1  0  0  0  0
 18 46  1  0  0  0  0
 18 47  1  0  0  0  0
 19 20  1  0  0  0  0
 19 48  1  0  0  0  0
 20 49  1  0  0  0  0
 20 50  1  0  0  0  0
 21 23  1  0  0  0  0
 21 51  1  0  0  0  0
 21 52  1  0  0  0  0
 22 23  1  0  0  0  0
 23 53  1  0  0  0  0
 23 54  1  0  0  0  0
 24 25  1  0  0  0  0
 25 26  2  0  0  0  0
 25 27  1  0  0  0  0
 26 29  1  0  0  0  0
 26 55  1  0  0  0  0
 27 28  2  0  0  0  0
 27 56  1  0  0  0  0
 28 30  1  0  0  0  0
 29 30  2  0  0  0  0
 31 59  1  0  0  0  0
 31 60  1  0  0  0  0
 31 61  1  0  0  0  0
M  END
> <PUBCHEM_COMPOUND_CID>
442948

> <PUBCHEM_COMPOUND_CANONICALIZED>
1

> <PUBCHEM_CACTVS_COMPLEXITY>
692

> <PUBCHEM_CACTVS_HBOND_ACCEPTOR>
7

> <PUBCHEM_CACTVS_HBOND_DONOR>
2

> <PUBCHEM_CACTVS_ROTATABLE_BOND>
4

> <PUBCHEM_CACTVS_SUBSKEYS>
AAADceB7OAAAAAAAAAAAAAAAAAAAAAAAAAA8WLFiAAAWAACxAAAAHgAACAAADTzhmAYyDoMABgCIAiHSGAACCAAkIAAAiAEOiMgNJzKG9RqGcSMnxhWLuYfa/f7eIAABCAAAQABAAAIQAACAAAAAAAAAAA==

> <PUBCHEM_IUPAC_INCHI>
InChI=1S/C23H30N2O6/c1-30-22-19(26)8-13(9-20(22)27)23(29)31-16-5-6-24-11-14-7-15(18(24)10-16)12-25-17(14)3-2-4-21(25)28/h8-9,14-18,26-27H,2-7,10-12H2,1H3/t14-,15+,16+,17-,18+/m1/s1

> <PUBCHEM_IUPAC_INCHIKEY>
WCNNCIUCJFPASX-ICUGJSFKSA-N

> <PUBCHEM_XLOGP3_AA>
2.1

> <PUBCHEM_EXACT_MASS>
430.210387

> <PUBCHEM_MOLECULAR_FORMULA>
C23H30N2O6

> <PUBCHEM_MOLECULAR_WEIGHT>
430.4941

> <PUBCHEM_OPENEYE_CAN_SMILES>
COC1=C(C=C(C=C1O)C(=O)OC2CCN3CC4CC(C3C2)CN5C4CCCC5=O)O

> <PUBCHEM_OPENEYE_ISO_SMILES>
COC1=C(C=C(C=C1O)C(=O)O[C@H]2CCN3C[C@H]4C[C@H]([C@@H]3C2)CN5[C@@H]4CCCC5=O)O

> <PUBCHEM_CACTVS_TPSA>
99.5

> <PUBCHEM_MONOISOTOPIC_WEIGHT>
430.210387

> <PUBCHEM_TOTAL_CHARGE>
0

> <PUBCHEM_HEAVY_ATOM_COUNT>
31

> <PUBCHEM_ATOM_DEF_STEREO_COUNT>
5

> <PUBCHEM_ATOM_UDEF_STEREO_COUNT>
0

> <PUBCHEM_BOND_DEF_STEREO_COUNT>
0

> <PUBCHEM_BOND_UDEF_STEREO_COUNT>
0

> <PUBCHEM_ISOTOPIC_ATOM_COUNT>
0

> <PUBCHEM_COMPONENT_COUNT>
1

> <PUBCHEM_CACTVS_TAUTO_COUNT>
10

> <PUBCHEM_COORDINATE_TYPE>
1
5
255

> <PUBCHEM_BONDANNOTATIONS>
19  1  5
10  33  6
11  34  5
13  37  6
25  26  8
25  27  8
26  29  8
27  28  8
28  30  8
29  30  8
9  32  6

$$$$

