   Color/Form

     * Crystals from butyl acetate
     * WHITE TO OFF-WHITE SOLID

   from [1]HSDB

   Odor
        ODORLESS
   from [2]HSDB

   Melting Point
        150-151 deg C
   from [3]HSDB

   Dissociation Constants
        pKa = 7.44 (imide nitrogen)
   from [4]HSDB

   Octanol/Water Partition Coefficient
        log Kow = -1.16
   from [5]HSDB

   Solubilities

     * 1 g in about 4.5 ml isopropanol, about 7.5 ml methanol, about 12 ml
       alcohol, about 27 ml acetone; insol in chloroform, ether, and
       benzene
     * In water, 1.2X10+4 mg/L at 25 deg C (est)

   from [6]HSDB

   Spectral Properties

     * UV max: (pH 7.2) 268 nm (epsilon 7570); (pH 14): 270 nm (epsilon
       6480)
     * Specific optical rotation for D (sodium) line = +37 deg (water);
       +48.6 deg (DMF)
     * IR: 6924 (Coblentz Society spectral collection)
     * MASS: 11957 (NIST/EPA/MSDC Mass Spectral Database, 1990 Version)

   from [7]HSDB

   Vapor Pressure
        7.6X10-13 mm Hg at 25 deg C (est)
   from [8]HSDB

   Other Chemical/Physical Properties

     * Crystals from butyl acetate, mp 150-151 deg C. Specific optical
       rotation at 25 deg C for D (sodium) line = -21 deg (c = 2 in water)
       /alpha-Anomer/
     * Henry's Law constant = 1.5X10-17 atm-cu m/mol at 25 deg C (est)
     * Hydroxyl radical reaction rate constant = 6.7X10-11 cu
       cm/molecule-sec at 25 deg C (est)
     * Ozone reaction rate constant = 7.0X10-19 cu cm/molecule-sec at 25
       deg C (est)

   from [9]HSDB

   Computed Properties
   Molecular Weight                  246.192443 [g/mol]
   Molecular Formula                 C[9]H[11]FN[2]O[5]
   XLogP3                            -1.2
   H-Bond Donor                      3
   H-Bond Acceptor                   6
   Rotatable Bond Count              2
   Tautomer Count                    3
   Exact Mass                        246.0652
   MonoIsotopic Mass                 246.0652
   Topological Polar Surface Area    99.1
   Heavy Atom Count                  17
   Formal Charge                     0
   Complexity                        386
   Isotope Atom Count                0
   Defined Atom Stereocenter Count   3
   Undefined Atom Stereocenter Count 0
   Defined Bond Stereocenter Count   0
   Undefined Bond Stereocenter Count 0
   Covalently-Bonded Unit Count      1
   Feature 3D Acceptor Count         5
   Feature 3D Donor Count            3
   Feature 3D Ring Count             2
   Effective Rotor Count             3
   Conformer Sampling RMSD           0.6
   CID Conformer Count               [10]15

References

   1. http://toxnet.nlm.nih.gov/cgi-bin/sis/search/r?dbs+hsdb:@term+@rn+@rel+50-91-9
   2. http://toxnet.nlm.nih.gov/cgi-bin/sis/search/r?dbs+hsdb:@term+@rn+@rel+50-91-9
   3. http://toxnet.nlm.nih.gov/cgi-bin/sis/search/r?dbs+hsdb:@term+@rn+@rel+50-91-9
   4. http://toxnet.nlm.nih.gov/cgi-bin/sis/search/r?dbs+hsdb:@term+@rn+@rel+50-91-9
   5. http://toxnet.nlm.nih.gov/cgi-bin/sis/search/r?dbs+hsdb:@term+@rn+@rel+50-91-9
   6. http://toxnet.nlm.nih.gov/cgi-bin/sis/search/r?dbs+hsdb:@term+@rn+@rel+50-91-9
   7. http://toxnet.nlm.nih.gov/cgi-bin/sis/search/r?dbs+hsdb:@term+@rn+@rel+50-91-9
   8. http://toxnet.nlm.nih.gov/cgi-bin/sis/search/r?dbs+hsdb:@term+@rn+@rel+50-91-9
   9. http://toxnet.nlm.nih.gov/cgi-bin/sis/search/r?dbs+hsdb:@term+@rn+@rel+50-91-9
  10. http://pubchem.ncbi.nlm.nih.gov/vw3d/vw3d.cgi?cid=5790
