   Color/Form
        Colorless gas; compresses to colorless liquid
   from [1]HSDB

   Odor

     * Ethereal odor (liquid)
     * Faint, sweet odor

   from [2]HSDB

   Taste
        Sweet taste (liquid)
   from [3]HSDB

   Boiling Point
        -23.7 deg C
   from [4]HSDB

   Melting Point
        -97 deg C
   from [5]HSDB

   Corrosivity

     * Methyl chloride will attack some forms of plastics, rubber and
       coatings.
     * Attacks aluminum, magnesium, and zinc.

   from [6]HSDB

   Critical Temperature and Pressure
        Critical temperature: 416.25 K; critical pressure: 6.679 MPa
   from [7]HSDB

   Density/Specific Gravity
        0.911 g/cu cm @ 25 deg C
   from [8]HSDB

   Heat of Combustion
        -2939 CAL/G
   from [9]HSDB

   Heat of Vaporization
        18.92 kJ/mol at 25 deg C; 21.40 kJ/mol at boiling point
   from [10]HSDB

   Octanol/Water Partition Coefficient
        log Kow = 0.91
   from [11]HSDB

   Solubilities

     * @ 20 deg C (ml/100 ml): water 303, benzene 4723, carbon
       tetrachloride 3756, glacial acetic acid 3679, ethanol 3740;
       miscible with chloroform, ether
     * SOL IN ACETONE
     * Soluble in ethanol; miscible in ethyl ether and acetone.
     * Water solubility = 5320 mg/l @ 25 deg C

   from [12]HSDB

   Spectral Properties

     * Index of refraction: 1.3712 @ -23.7 deg C/D (liq)
     * IR: 15290 (Sadtler Research Laboratories IR Grating Collection)
     * MASS: 18 (Atlas of Mass Spectral Data, John Wiley & Sons, New York)

   from [13]HSDB

   Surface Tension
        SURFACE TENSION: 16.2 DYNES/CM @ 20 DEG C
   from [14]HSDB

   Vapor Density
        2.47 (Air= 1)
   from [15]HSDB

   Vapor Pressure
        4300 mm Hg @ 25 deg C
   from [16]HSDB

   Viscosity
        0.1834 cP @ 20 deg C
   from [17]HSDB

   Other Chemical/Physical Properties

     * SADTLER REFERENCE NUMBER: 842 (IR, PRISM)
     * Wt/gal 7.68 lb @ 20 deg C
     * 1 MG/L= 484 PPM AND 1 PPM= 2.06 MG/CU M @ 25 DEG C, 760 TORR
     * LIQUID-WATER INTERFACIAL TENSION: (EST) 50 DYNES/CM @ -24 DEG C;
       RATIO OF SPECIFIC HEATS OF VAPOR (GAS): 1.259
     * Heat of fusion: 15.05 cal/g= 62.97 J/g= 5,978 J/mol
     * Saturated liquid density: 62.170 lb/cu ft at -20 deg F; liquid heat
       capacity: 0.362 Btu/lb-F at -20 deg F; liquid viscosity: 0.320
       centipoise at -20 deg F; saturated vapor pressure: 67.520 lb/sq in
       at 65 deg F; saturated vapor density: 0.60530 lb/cu ft at 65 deg F;
       ideal gas heat capacity: 0.192 Btu/lb-F at 75 deg F
     * Henry's Law constant = 8.82X10-3 atm-cu m/mol @ 24 deg C
     * Hydroxyl radical rate constant= 5.3X10-14 cu cm/molecule-sec @ 25
       deg C

   from [18]HSDB

   Computed Properties
   Molecular Weight                  50.48752 [g/mol]
   Molecular Formula                 CH[3]Cl
   XLogP3-AA                         0.8
   H-Bond Donor                      0
   H-Bond Acceptor                   0
   Rotatable Bond Count              0
   Exact Mass                        49.992328
   MonoIsotopic Mass                 49.992328
   Topological Polar Surface Area    0
   Heavy Atom Count                  2
   Formal Charge                     0
   Complexity                        2
   Isotope Atom Count                0
   Defined Atom Stereocenter Count   0
   Undefined Atom Stereocenter Count 0
   Defined Bond Stereocenter Count   0
   Undefined Bond Stereocenter Count 0
   Covalently-Bonded Unit Count      1
   Effective Rotor Count             0
   Conformer Sampling RMSD           0.4
   CID Conformer Count               [19]1

References

   1. http://toxnet.nlm.nih.gov/cgi-bin/sis/search/r?dbs+hsdb:@term+@rn+@rel+74-87-3
   2. http://toxnet.nlm.nih.gov/cgi-bin/sis/search/r?dbs+hsdb:@term+@rn+@rel+74-87-3
   3. http://toxnet.nlm.nih.gov/cgi-bin/sis/search/r?dbs+hsdb:@term+@rn+@rel+74-87-3
   4. http://toxnet.nlm.nih.gov/cgi-bin/sis/search/r?dbs+hsdb:@term+@rn+@rel+74-87-3
   5. http://toxnet.nlm.nih.gov/cgi-bin/sis/search/r?dbs+hsdb:@term+@rn+@rel+74-87-3
   6. http://toxnet.nlm.nih.gov/cgi-bin/sis/search/r?dbs+hsdb:@term+@rn+@rel+74-87-3
   7. http://toxnet.nlm.nih.gov/cgi-bin/sis/search/r?dbs+hsdb:@term+@rn+@rel+74-87-3
   8. http://toxnet.nlm.nih.gov/cgi-bin/sis/search/r?dbs+hsdb:@term+@rn+@rel+74-87-3
   9. http://toxnet.nlm.nih.gov/cgi-bin/sis/search/r?dbs+hsdb:@term+@rn+@rel+74-87-3
  10. http://toxnet.nlm.nih.gov/cgi-bin/sis/search/r?dbs+hsdb:@term+@rn+@rel+74-87-3
  11. http://toxnet.nlm.nih.gov/cgi-bin/sis/search/r?dbs+hsdb:@term+@rn+@rel+74-87-3
  12. http://toxnet.nlm.nih.gov/cgi-bin/sis/search/r?dbs+hsdb:@term+@rn+@rel+74-87-3
  13. http://toxnet.nlm.nih.gov/cgi-bin/sis/search/r?dbs+hsdb:@term+@rn+@rel+74-87-3
  14. http://toxnet.nlm.nih.gov/cgi-bin/sis/search/r?dbs+hsdb:@term+@rn+@rel+74-87-3
  15. http://toxnet.nlm.nih.gov/cgi-bin/sis/search/r?dbs+hsdb:@term+@rn+@rel+74-87-3
  16. http://toxnet.nlm.nih.gov/cgi-bin/sis/search/r?dbs+hsdb:@term+@rn+@rel+74-87-3
  17. http://toxnet.nlm.nih.gov/cgi-bin/sis/search/r?dbs+hsdb:@term+@rn+@rel+74-87-3
  18. http://toxnet.nlm.nih.gov/cgi-bin/sis/search/r?dbs+hsdb:@term+@rn+@rel+74-87-3
  19. http://pubchem.ncbi.nlm.nih.gov/vw3d/vw3d.cgi?cid=6327
