12850
  -OEChem-06261207272D

 31 32  0     0  0  0  0  0  0999 V2000
    4.4694    1.5794    0.0000 O   0  0  0  0  0  0  0  0  0  0  0  0
    6.5385   -1.2685    0.0000 O   0  0  0  0  0  0  0  0  0  0  0  0
    7.4520    0.5003    0.0000 O   0  0  0  0  0  0  0  0  0  0  0  0
    4.7784   -0.9897    0.0000 N   0  0  0  0  0  0  0  0  0  0  0  0
    5.7295    0.3193    0.0000 N   0  0  0  0  0  0  0  0  0  0  0  0
    4.1906   -0.1807    0.0000 C   0  0  0  0  0  0  0  0  0  0  0  0
    3.7568   -1.0817    0.0000 C   0  0  0  0  0  0  0  0  0  0  0  0
    3.7568    0.7203    0.0000 C   0  0  0  0  0  0  0  0  0  0  0  0
    2.7818   -1.3042    0.0000 C   0  0  0  0  0  0  0  0  0  0  0  0
    2.7818    0.9428    0.0000 C   0  0  0  0  0  0  0  0  0  0  0  0
    2.0000   -0.6807    0.0000 C   0  0  0  0  0  0  0  0  0  0  0  0
    2.0000    0.3193    0.0000 C   0  0  0  0  0  0  0  0  0  0  0  0
    4.7784    0.6283    0.0000 C   0  0  0  0  0  0  0  0  0  0  0  0
    5.7295   -0.6807    0.0000 C   0  0  0  0  0  0  0  0  0  0  0  0
    6.5385    0.9071    0.0000 C   0  0  0  0  0  0  0  0  0  0  0  0
    3.7568   -1.7017    0.0000 H   0  0  0  0  0  0  0  0  0  0  0  0
    4.3612   -1.2196    0.0000 H   0  0  0  0  0  0  0  0  0  0  0  0
    4.3612    0.8582    0.0000 H   0  0  0  0  0  0  0  0  0  0  0  0
    3.7568    1.3403    0.0000 H   0  0  0  0  0  0  0  0  0  0  0  0
    2.2971   -1.6908    0.0000 H   0  0  0  0  0  0  0  0  0  0  0  0
    3.0508   -1.8628    0.0000 H   0  0  0  0  0  0  0  0  0  0  0  0
    3.0508    1.5014    0.0000 H   0  0  0  0  0  0  0  0  0  0  0  0
    2.2971    1.3294    0.0000 H   0  0  0  0  0  0  0  0  0  0  0  0
    1.3955   -0.5427    0.0000 H   0  0  0  0  0  0  0  0  0  0  0  0
    1.7310   -1.2393    0.0000 H   0  0  0  0  0  0  0  0  0  0  0  0
    1.7310    0.8779    0.0000 H   0  0  0  0  0  0  0  0  0  0  0  0
    1.3955    0.1813    0.0000 H   0  0  0  0  0  0  0  0  0  0  0  0
    4.5868   -1.5794    0.0000 H   0  0  0  0  0  0  0  0  0  0  0  0
    6.8852    1.4211    0.0000 H   0  0  0  0  0  0  0  0  0  0  0  0
    6.0925    1.3378    0.0000 H   0  0  0  0  0  0  0  0  0  0  0  0
    7.9536    0.8648    0.0000 H   0  0  0  0  0  0  0  0  0  0  0  0
  1 13  2  0  0  0  0
  2 14  2  0  0  0  0
  3 15  1  0  0  0  0
  3 31  1  0  0  0  0
  4  6  1  0  0  0  0
  4 14  1  0  0  0  0
  4 28  1  0  0  0  0
  5 13  1  0  0  0  0
  5 14  1  0  0  0  0
  5 15  1  0  0  0  0
  6  7  1  0  0  0  0
  6  8  1  0  0  0  0
  6 13  1  0  0  0  0
  7  9  1  0  0  0  0
  7 16  1  0  0  0  0
  7 17  1  0  0  0  0
  8 10  1  0  0  0  0
  8 18  1  0  0  0  0
  8 19  1  0  0  0  0
  9 11  1  0  0  0  0
  9 20  1  0  0  0  0
  9 21  1  0  0  0  0
 10 12  1  0  0  0  0
 10 22  1  0  0  0  0
 10 23  1  0  0  0  0
 11 12  1  0  0  0  0
 11 24  1  0  0  0  0
 11 25  1  0  0  0  0
 12 26  1  0  0  0  0
 12 27  1  0  0  0  0
 15 29  1  0  0  0  0
 15 30  1  0  0  0  0
M  END
> <PUBCHEM_COMPOUND_CID>
12850

> <PUBCHEM_COMPOUND_CANONICALIZED>
1

> <PUBCHEM_CACTVS_COMPLEXITY>
282

> <PUBCHEM_CACTVS_HBOND_ACCEPTOR>
3

> <PUBCHEM_CACTVS_HBOND_DONOR>
2

> <PUBCHEM_CACTVS_ROTATABLE_BOND>
1

> <PUBCHEM_CACTVS_SUBSKEYS>
AAADceBzMAAAAAAAAAAAAAAAAAAAAWAAAAAAAAAABgAAAAAAAAAAHgAQCAAADIiBgAYBAAPAAgAIAAEQEAAAAAAAAAAAAAGIAACAUBIAgCAUAAAIFyIAAAEYiMCOAAAAAAAAAAAAAAAAAAAAAAAAAAAAAA==

> <PUBCHEM_IUPAC_OPENEYE_NAME>
3-(hydroxymethyl)-1,3-diazaspiro[4.6]undecane-2,4-dione

> <PUBCHEM_IUPAC_CAS_NAME>
3-(hydroxymethyl)-1,3-diazaspiro[4.6]undecane-2,4-dione

> <PUBCHEM_IUPAC_NAME>
3-(hydroxymethyl)-1,3-diazaspiro[4.6]undecane-2,4-dione

> <PUBCHEM_IUPAC_SYSTEMATIC_NAME>
3-(hydroxymethyl)-1,3-diazaspiro[4.6]undecane-2,4-dione

> <PUBCHEM_IUPAC_TRADITIONAL_NAME>
3-methylol-1,3-diazaspiro[4.6]undecane-2,4-quinone

> <PUBCHEM_IUPAC_INCHI>
InChI=1S/C10H16N2O3/c13-7-12-8(14)10(11-9(12)15)5-3-1-2-4-6-10/h13H,1-7H2,(H,11,15)

> <PUBCHEM_IUPAC_INCHIKEY>
YLINVOUPSJUXAU-UHFFFAOYSA-N

> <PUBCHEM_XLOGP3_AA>
1.2

> <PUBCHEM_EXACT_MASS>
212.116092

> <PUBCHEM_MOLECULAR_FORMULA>
C10H16N2O3

> <PUBCHEM_MOLECULAR_WEIGHT>
212.24564

> <PUBCHEM_OPENEYE_CAN_SMILES>
C1CCCC2(CC1)C(=O)N(C(=O)N2)CO

> <PUBCHEM_OPENEYE_ISO_SMILES>
C1CCCC2(CC1)C(=O)N(C(=O)N2)CO

> <PUBCHEM_CACTVS_TPSA>
69.6

> <PUBCHEM_MONOISOTOPIC_WEIGHT>
212.116092

> <PUBCHEM_TOTAL_CHARGE>
0

> <PUBCHEM_HEAVY_ATOM_COUNT>
15

> <PUBCHEM_ATOM_DEF_STEREO_COUNT>
0

> <PUBCHEM_ATOM_UDEF_STEREO_COUNT>
0

> <PUBCHEM_BOND_DEF_STEREO_COUNT>
0

> <PUBCHEM_BOND_UDEF_STEREO_COUNT>
0

> <PUBCHEM_ISOTOPIC_ATOM_COUNT>
0

> <PUBCHEM_COMPONENT_COUNT>
1

> <PUBCHEM_CACTVS_TAUTO_COUNT>
2

> <PUBCHEM_COORDINATE_TYPE>
1
5
255

$$$$

