10167
  -OEChem-06261204212D

 28 30  0     0  0  0  0  0  0999 V2000
    3.7702   -0.9397    0.0000 O   0  0  0  0  0  0  0  0  0  0  0  0
    7.3424   -0.7097    0.0000 O   0  0  0  0  0  0  0  0  0  0  0  0
    5.5301   -1.9050    0.0000 O   0  0  0  0  0  0  0  0  0  0  0  0
    5.5301    2.0950    0.0000 O   0  0  0  0  0  0  0  0  0  0  0  0
    3.7817    2.1296    0.0000 O   0  0  0  0  0  0  0  0  0  0  0  0
    4.6641    0.5950    0.0000 C   0  0  0  0  0  0  0  0  0  0  0  0
    4.6641   -0.4050    0.0000 C   0  0  0  0  0  0  0  0  0  0  0  0
    6.3961    0.5950    0.0000 C   0  0  0  0  0  0  0  0  0  0  0  0
    6.3961   -0.4050    0.0000 C   0  0  0  0  0  0  0  0  0  0  0  0
    5.5301   -0.9050    0.0000 C   0  0  0  0  0  0  0  0  0  0  0  0
    5.5301    1.0950    0.0000 C   0  0  0  0  0  0  0  0  0  0  0  0
    3.7702    1.1297    0.0000 C   0  0  0  0  0  0  0  0  0  0  0  0
    7.3424    0.8997    0.0000 C   0  0  0  0  0  0  0  0  0  0  0  0
    2.8641   -0.4258    0.0000 C   0  0  0  0  0  0  0  0  0  0  0  0
    2.8641    0.6158    0.0000 C   0  0  0  0  0  0  0  0  0  0  0  0
    7.9260    0.0950    0.0000 C   0  0  0  0  0  0  0  0  0  0  0  0
    2.0000   -0.9292    0.0000 C   0  0  0  0  0  0  0  0  0  0  0  0
    6.3961   -2.4050    0.0000 C   0  0  0  0  0  0  0  0  0  0  0  0
    7.5350    1.4890    0.0000 H   0  0  0  0  0  0  0  0  0  0  0  0
    2.3284    0.9279    0.0000 H   0  0  0  0  0  0  0  0  0  0  0  0
    8.5460    0.0950    0.0000 H   0  0  0  0  0  0  0  0  0  0  0  0
    1.6879   -0.3934    0.0000 H   0  0  0  0  0  0  0  0  0  0  0  0
    1.4643   -1.2412    0.0000 H   0  0  0  0  0  0  0  0  0  0  0  0
    2.3121   -1.4649    0.0000 H   0  0  0  0  0  0  0  0  0  0  0  0
    6.0671    2.4050    0.0000 H   0  0  0  0  0  0  0  0  0  0  0  0
    6.0862   -2.9419    0.0000 H   0  0  0  0  0  0  0  0  0  0  0  0
    6.9331   -2.7150    0.0000 H   0  0  0  0  0  0  0  0  0  0  0  0
    6.7062   -1.8681    0.0000 H   0  0  0  0  0  0  0  0  0  0  0  0
  1  7  1  0  0  0  0
  1 14  1  0  0  0  0
  2  9  1  0  0  0  0
  2 16  1  0  0  0  0
  3 10  1  0  0  0  0
  3 18  1  0  0  0  0
  4 11  1  0  0  0  0
  4 25  1  0  0  0  0
  5 12  2  0  0  0  0
  6  7  2  0  0  0  0
  6 11  1  0  0  0  0
  6 12  1  0  0  0  0
  7 10  1  0  0  0  0
  8  9  1  0  0  0  0
  8 11  2  0  0  0  0
  8 13  1  0  0  0  0
  9 10  2  0  0  0  0
 12 15  1  0  0  0  0
 13 16  2  0  0  0  0
 13 19  1  0  0  0  0
 14 15  2  0  0  0  0
 14 17  1  0  0  0  0
 15 20  1  0  0  0  0
 16 21  1  0  0  0  0
 17 22  1  0  0  0  0
 17 23  1  0  0  0  0
 17 24  1  0  0  0  0
 18 26  1  0  0  0  0
 18 27  1  0  0  0  0
 18 28  1  0  0  0  0
M  END
> <PUBCHEM_COMPOUND_CID>
10167

> <PUBCHEM_COMPOUND_CANONICALIZED>
1

> <PUBCHEM_CACTVS_COMPLEXITY>
391

> <PUBCHEM_CACTVS_HBOND_ACCEPTOR>
5

> <PUBCHEM_CACTVS_HBOND_DONOR>
1

> <PUBCHEM_CACTVS_ROTATABLE_BOND>
1

> <PUBCHEM_CACTVS_SUBSKEYS>
AAADccBwOAAAAAAAAAAAAAAAAAAAASAAAAAwQAAAAAAAAEiB8AAAGgAACAAADASgmAIyBsAABkCIAqhSgAICCAAkIAAIiAFGiMgNJzaGNR6CeWKl4BUKuYfK7vzuIQADCAAIQABCAAYQABCAAAAAAAAAAA==

> <PUBCHEM_IUPAC_OPENEYE_NAME>
4-hydroxy-9-methoxy-7-methyl-furo[3,2-g]chromen-5-one

> <PUBCHEM_IUPAC_CAS_NAME>
4-hydroxy-9-methoxy-7-methyl-5-furo[3,2-g][1]benzopyranone

> <PUBCHEM_IUPAC_NAME>
4-hydroxy-9-methoxy-7-methylfuro[3,2-g]chromen-5-one

> <PUBCHEM_IUPAC_SYSTEMATIC_NAME>
9-methoxy-7-methyl-4-oxidanyl-furo[3,2-g]chromen-5-one

> <PUBCHEM_IUPAC_TRADITIONAL_NAME>
4-hydroxy-9-methoxy-7-methyl-furo[3,2-g]chromen-5-one

> <PUBCHEM_IUPAC_INCHI>
InChI=1S/C13H10O5/c1-6-5-8(14)9-10(15)7-3-4-17-11(7)13(16-2)12(9)18-6/h3-5,15H,1-2H3

> <PUBCHEM_IUPAC_INCHIKEY>
GEYVZPGXYUDRSN-UHFFFAOYSA-N

> <PUBCHEM_XLOGP3_AA>
2.5

> <PUBCHEM_EXACT_MASS>
246.052823

> <PUBCHEM_MOLECULAR_FORMULA>
C13H10O5

> <PUBCHEM_MOLECULAR_WEIGHT>
246.2155

> <PUBCHEM_OPENEYE_CAN_SMILES>
CC1=CC(=O)C2=C(C3=C(C(=C2O1)OC)OC=C3)O

> <PUBCHEM_OPENEYE_ISO_SMILES>
CC1=CC(=O)C2=C(C3=C(C(=C2O1)OC)OC=C3)O

> <PUBCHEM_CACTVS_TPSA>
68.9

> <PUBCHEM_MONOISOTOPIC_WEIGHT>
246.052823

> <PUBCHEM_TOTAL_CHARGE>
0

> <PUBCHEM_HEAVY_ATOM_COUNT>
18

> <PUBCHEM_ATOM_DEF_STEREO_COUNT>
0

> <PUBCHEM_ATOM_UDEF_STEREO_COUNT>
0

> <PUBCHEM_BOND_DEF_STEREO_COUNT>
0

> <PUBCHEM_BOND_UDEF_STEREO_COUNT>
0

> <PUBCHEM_ISOTOPIC_ATOM_COUNT>
0

> <PUBCHEM_COMPONENT_COUNT>
1

> <PUBCHEM_CACTVS_TAUTO_COUNT>
8

> <PUBCHEM_COORDINATE_TYPE>
1
5
255

> <PUBCHEM_BONDANNOTATIONS>
1  14  8
1  7  8
12  15  8
13  16  8
14  15  8
2  16  8
2  9  8
6  11  8
6  12  8
6  7  8
7  10  8
8  11  8
8  13  8
8  9  8
9  10  8

$$$$

