   Color/Form

     * Pale yellow crystals
     * Colorless needles
     * Fine needles from alcohol, platelets from carbon disulfide
     * Cream crystals

   from [1]HSDB

   Odor
        Musty odor
   from [2]HSDB

   Boiling Point
        328 deg C at 760 mm Hg with some decomposition
   from [3]HSDB

   Melting Point
        144 deg C
   from [4]HSDB

   Corrosivity
        NON-CORROSIVE
   from [5]HSDB

   Density/Specific Gravity
        1.718 at 25 deg C/4 deg C
   from [6]HSDB

   Octanol/Water Partition Coefficient
        log Kow = 4.22
   from [7]HSDB

   Solubilities

     * Practically insol in cold alc
     * Slightly soluble in alcohols; somewhat soluble in carbon disulfide,
       benzene, chloroform
     * Solubility in various solvents.

       Solvent

   g/L at 20 deg C

   Toluene 1,140
   Methanol 20
   Heptane 30

     In water, 0.44 mg/L at 25 deg C

   from [8]HSDB

   Spectral Properties

     * Intense mass spectral peaks: 295 m/z (100%), 249 m/z (85%), 237 m/z
       (81%), 297 m/z (64%)
     * IR: 4969 (Sadtler Research Laboratories IR Grating Collection)
     * UV: 8786 (Sadtler Research Laboratories Spectral Collection)
     * MASS: 52414 (NIST/EPA/MSDC Mass Spectral database, 1990 version)

   from [9]HSDB

   Vapor Pressure
        5X10-5 mm Hg at 20 deg C [Gile JD, Gillett JW; J Agric Food Chem
   27: 1159-64 (1979)] [10]PubMed Abstract
   from [11]HSDB

   Other Chemical/Physical Properties

     * MP OF TECHNICAL PRODUCT: 142-145 DEG C
     * Conversion factors: 1 mg/cu m = 0.08 ppm; 1 ppm = 12.3 mg/cu m
     * Stable to heat. Stable in acidic media, but hydrolyzed by alkalis.
       Some surface coloring after 10 hr exposure to sunlight.
     * Pale yellow crystals. 99% pure. MP: 142-145 deg C /Technical grade/
     * Colorless to pale yellow to cream-colored crystalline solid of fine
       needles /Technical/
     * Henry's Law constant = 4.42X10-5 atm-cu m/mol at 25 deg C (est)
     * Hydroxyl radical reaction rate constant = 7.23X10-15 cu
       cm/molec-sec at 25 deg C (est)

   from [12]HSDB

   Computed Properties
   Molecular Weight                  295.3347 [g/mol]
   Molecular Formula                 C[6]Cl[5]NO[2]
   XLogP3                            4.2
   H-Bond Donor                      0
   H-Bond Acceptor                   2
   Rotatable Bond Count              0
   Exact Mass                        294.834217
   MonoIsotopic Mass                 292.837167
   Topological Polar Surface Area    45.8
   Heavy Atom Count                  14
   Formal Charge                     0
   Complexity                        219
   Isotope Atom Count                0
   Defined Atom Stereocenter Count   0
   Undefined Atom Stereocenter Count 0
   Defined Bond Stereocenter Count   0
   Undefined Bond Stereocenter Count 0
   Covalently-Bonded Unit Count      1
   Feature 3D Acceptor Count         2
   Feature 3D Anion Count            1
   Feature 3D Ring Count             1
   Effective Rotor Count             1
   Conformer Sampling RMSD           0.4
   CID Conformer Count               [13]1

References

   1. http://toxnet.nlm.nih.gov/cgi-bin/sis/search/r?dbs+hsdb:@term+@rn+@rel+82-68-8
   2. http://toxnet.nlm.nih.gov/cgi-bin/sis/search/r?dbs+hsdb:@term+@rn+@rel+82-68-8
   3. http://toxnet.nlm.nih.gov/cgi-bin/sis/search/r?dbs+hsdb:@term+@rn+@rel+82-68-8
   4. http://toxnet.nlm.nih.gov/cgi-bin/sis/search/r?dbs+hsdb:@term+@rn+@rel+82-68-8
   5. http://toxnet.nlm.nih.gov/cgi-bin/sis/search/r?dbs+hsdb:@term+@rn+@rel+82-68-8
   6. http://toxnet.nlm.nih.gov/cgi-bin/sis/search/r?dbs+hsdb:@term+@rn+@rel+82-68-8
   7. http://toxnet.nlm.nih.gov/cgi-bin/sis/search/r?dbs+hsdb:@term+@rn+@rel+82-68-8
   8. http://toxnet.nlm.nih.gov/cgi-bin/sis/search/r?dbs+hsdb:@term+@rn+@rel+82-68-8
   9. http://toxnet.nlm.nih.gov/cgi-bin/sis/search/r?dbs+hsdb:@term+@rn+@rel+82-68-8
  10. http://www.ncbi.nlm.nih.gov/entrez/query.fcgi?cmd=Retrieve&db=pubmed&dopt=Abstract&list_uids=397242
  11. http://toxnet.nlm.nih.gov/cgi-bin/sis/search/r?dbs+hsdb:@term+@rn+@rel+82-68-8
  12. http://toxnet.nlm.nih.gov/cgi-bin/sis/search/r?dbs+hsdb:@term+@rn+@rel+82-68-8
  13. http://pubchem.ncbi.nlm.nih.gov/vw3d/vw3d.cgi?cid=6720
