1790
  -OEChem-07051212512D

 54 56  0     1  0  0  0  0  0999 V2000
    6.5519    1.0000    0.0000 O   0  0  0  0  0  0  0  0  0  0  0  0
    5.7429    5.5878    0.0000 O   0  0  0  0  0  0  0  0  0  0  0  0
    3.8968   -5.5878    0.0000 O   0  0  0  0  0  0  0  0  0  0  0  0
    7.3609    5.5878    0.0000 N   0  0  0  0  0  0  0  0  0  0  0  0
    3.5878   -6.5388    0.0000 N   0  0  0  0  0  0  0  0  0  0  0  0
    4.8198   -2.0000    0.0000 C   0  0  0  0  0  0  0  0  0  0  0  0
    3.9538   -2.5000    0.0000 C   0  0  0  0  0  0  0  0  0  0  0  0
    4.8198   -1.0000    0.0000 C   0  0  0  0  0  0  0  0  0  0  0  0
    3.9538   -3.5000    0.0000 C   0  0  0  0  0  0  0  0  0  0  0  0
    5.6859   -0.5000    0.0000 C   0  0  0  0  0  0  0  0  0  0  0  0
    3.0878   -4.0000    0.0000 C   0  0  0  0  0  0  0  0  0  0  0  0
    5.6859    0.5000    0.0000 C   0  0  0  0  0  0  0  0  0  0  0  0
    3.0878   -5.0000    0.0000 C   0  0  0  0  0  0  0  0  0  0  0  0
    7.0519    6.5388    0.0000 C   0  0  3  0  0  0  0  0  0  0  0  0
    6.0519    6.5388    0.0000 C   0  0  0  0  0  0  0  0  0  0  0  0
    6.5519    5.0000    0.0000 C   0  0  0  0  0  0  0  0  0  0  0  0
    6.5519    4.0000    0.0000 C   0  0  0  0  0  0  0  0  0  0  0  0
    6.5519    2.0000    0.0000 C   0  0  0  0  0  0  0  0  0  0  0  0
    2.2788   -5.5878    0.0000 C   0  0  0  0  0  0  0  0  0  0  0  0
    7.6397    7.3479    0.0000 C   0  0  0  0  0  0  0  0  0  0  0  0
    5.6859    3.5000    0.0000 C   0  0  0  0  0  0  0  0  0  0  0  0
    7.4179    3.5000    0.0000 C   0  0  0  0  0  0  0  0  0  0  0  0
    5.6859    2.5000    0.0000 C   0  0  0  0  0  0  0  0  0  0  0  0
    7.4179    2.5000    0.0000 C   0  0  0  0  0  0  0  0  0  0  0  0
    2.5878   -6.5388    0.0000 C   0  0  0  0  0  0  0  0  0  0  0  0
    2.0000   -7.3479    0.0000 C   0  0  0  0  0  0  0  0  0  0  0  0
    5.0319   -2.5826    0.0000 H   0  0  0  0  0  0  0  0  0  0  0  0
    5.4304   -1.8923    0.0000 H   0  0  0  0  0  0  0  0  0  0  0  0
    3.7418   -1.9174    0.0000 H   0  0  0  0  0  0  0  0  0  0  0  0
    3.3432   -2.6077    0.0000 H   0  0  0  0  0  0  0  0  0  0  0  0
    4.6078   -0.4174    0.0000 H   0  0  0  0  0  0  0  0  0  0  0  0
    4.2093   -1.1077    0.0000 H   0  0  0  0  0  0  0  0  0  0  0  0
    4.1659   -4.0826    0.0000 H   0  0  0  0  0  0  0  0  0  0  0  0
    4.5644   -3.3923    0.0000 H   0  0  0  0  0  0  0  0  0  0  0  0
    5.8979   -1.0826    0.0000 H   0  0  0  0  0  0  0  0  0  0  0  0
    6.2964   -0.3923    0.0000 H   0  0  0  0  0  0  0  0  0  0  0  0
    2.8757   -3.4174    0.0000 H   0  0  0  0  0  0  0  0  0  0  0  0
    2.4772   -4.1077    0.0000 H   0  0  0  0  0  0  0  0  0  0  0  0
    5.4738    1.0826    0.0000 H   0  0  0  0  0  0  0  0  0  0  0  0
    5.0753    0.3923    0.0000 H   0  0  0  0  0  0  0  0  0  0  0  0
    7.8914    6.4059    0.0000 H   0  0  0  0  0  0  0  0  0  0  0  0
    6.1167    7.1554    0.0000 H   0  0  0  0  0  0  0  0  0  0  0  0
    5.4454    6.6678    0.0000 H   0  0  0  0  0  0  0  0  0  0  0  0
    1.6891   -5.3962    0.0000 H   0  0  0  0  0  0  0  0  0  0  0  0
    8.1413    6.9834    0.0000 H   0  0  0  0  0  0  0  0  0  0  0  0
    8.0041    7.8494    0.0000 H   0  0  0  0  0  0  0  0  0  0  0  0
    7.1381    7.7123    0.0000 H   0  0  0  0  0  0  0  0  0  0  0  0
    5.1489    3.8100    0.0000 H   0  0  0  0  0  0  0  0  0  0  0  0
    7.9548    3.8100    0.0000 H   0  0  0  0  0  0  0  0  0  0  0  0
    5.1489    2.1900    0.0000 H   0  0  0  0  0  0  0  0  0  0  0  0
    7.9548    2.1900    0.0000 H   0  0  0  0  0  0  0  0  0  0  0  0
    1.4984   -6.9834    0.0000 H   0  0  0  0  0  0  0  0  0  0  0  0
    1.6356   -7.8494    0.0000 H   0  0  0  0  0  0  0  0  0  0  0  0
    2.5016   -7.7123    0.0000 H   0  0  0  0  0  0  0  0  0  0  0  0
  1 12  1  0  0  0  0
  1 18  1  0  0  0  0
  2 15  1  0  0  0  0
  2 16  1  0  0  0  0
  3  5  1  0  0  0  0
  3 13  1  0  0  0  0
  4 14  1  0  0  0  0
  4 16  2  0  0  0  0
  5 25  2  0  0  0  0
  6  7  1  0  0  0  0
  6  8  1  0  0  0  0
  6 27  1  0  0  0  0
  6 28  1  0  0  0  0
  7  9  1  0  0  0  0
  7 29  1  0  0  0  0
  7 30  1  0  0  0  0
  8 10  1  0  0  0  0
  8 31  1  0  0  0  0
  8 32  1  0  0  0  0
  9 11  1  0  0  0  0
  9 33  1  0  0  0  0
  9 34  1  0  0  0  0
 10 12  1  0  0  0  0
 10 35  1  0  0  0  0
 10 36  1  0  0  0  0
 11 13  1  0  0  0  0
 11 37  1  0  0  0  0
 11 38  1  0  0  0  0
 12 39  1  0  0  0  0
 12 40  1  0  0  0  0
 13 19  2  0  0  0  0
 14 15  1  0  0  0  0
 14 20  1  0  0  0  0
 14 41  1  0  0  0  0
 15 42  1  0  0  0  0
 15 43  1  0  0  0  0
 16 17  1  0  0  0  0
 17 21  2  0  0  0  0
 17 22  1  0  0  0  0
 18 23  2  0  0  0  0
 18 24  1  0  0  0  0
 19 25  1  0  0  0  0
 19 44  1  0  0  0  0
 20 45  1  0  0  0  0
 20 46  1  0  0  0  0
 20 47  1  0  0  0  0
 21 23  1  0  0  0  0
 21 48  1  0  0  0  0
 22 24  2  0  0  0  0
 22 49  1  0  0  0  0
 23 50  1  0  0  0  0
 24 51  1  0  0  0  0
 25 26  1  0  0  0  0
 26 52  1  0  0  0  0
 26 53  1  0  0  0  0
 26 54  1  0  0  0  0
M  END
> <PUBCHEM_COMPOUND_CID>
1790

> <PUBCHEM_COMPOUND_CANONICALIZED>
1

> <PUBCHEM_CACTVS_COMPLEXITY>
435

> <PUBCHEM_CACTVS_HBOND_ACCEPTOR>
5

> <PUBCHEM_CACTVS_HBOND_DONOR>
0

> <PUBCHEM_CACTVS_ROTATABLE_BOND>
10

> <PUBCHEM_CACTVS_SUBSKEYS>
AAADceB7MAAAAAAAAAAAAAAAAAAAAWIAAAAwAAAAAAAAAAABwAAAHgAEAAAADCzhngYyhpIQBACpA6RyRgCCCAAkIgAomCE2bNoOJrqEsZqDOaDmwBkI6UeY6KyOIAAAAAAAAABAAAAAAAAAAAAAAAAAAA==

> <PUBCHEM_IUPAC_OPENEYE_NAME>
3-methyl-5-[7-[4-(4-methyl-4,5-dihydrooxazol-2-yl)phenoxy]heptyl]isoxazole

> <PUBCHEM_IUPAC_CAS_NAME>
3-methyl-5-[7-[4-(4-methyl-4,5-dihydrooxazol-2-yl)phenoxy]heptyl]isoxazole

> <PUBCHEM_IUPAC_NAME>
3-methyl-5-[7-[4-(4-methyl-4,5-dihydro-1,3-oxazol-2-yl)phenoxy]heptyl]-1,2-oxazole

> <PUBCHEM_IUPAC_SYSTEMATIC_NAME>
3-methyl-5-[7-[4-(4-methyl-4,5-dihydro-1,3-oxazol-2-yl)phenoxy]heptyl]-1,2-oxazole

> <PUBCHEM_IUPAC_TRADITIONAL_NAME>
3-methyl-5-[7-[4-(4-methyl-2-oxazolin-2-yl)phenoxy]heptyl]isoxazole

> <PUBCHEM_IUPAC_INCHI>
InChI=1S/C21H28N2O3/c1-16-14-20(26-23-16)8-6-4-3-5-7-13-24-19-11-9-18(10-12-19)21-22-17(2)15-25-21/h9-12,14,17H,3-8,13,15H2,1-2H3

> <PUBCHEM_IUPAC_INCHIKEY>
NEAZMARKCJKUMF-UHFFFAOYSA-N

> <PUBCHEM_XLOGP3_AA>
4.8

> <PUBCHEM_EXACT_MASS>
356.209993

> <PUBCHEM_MOLECULAR_FORMULA>
C21H28N2O3

> <PUBCHEM_MOLECULAR_WEIGHT>
356.45862

> <PUBCHEM_OPENEYE_CAN_SMILES>
CC1COC(=N1)C2=CC=C(C=C2)OCCCCCCCC3=CC(=NO3)C

> <PUBCHEM_OPENEYE_ISO_SMILES>
CC1COC(=N1)C2=CC=C(C=C2)OCCCCCCCC3=CC(=NO3)C

> <PUBCHEM_CACTVS_TPSA>
56.8

> <PUBCHEM_MONOISOTOPIC_WEIGHT>
356.209993

> <PUBCHEM_TOTAL_CHARGE>
0

> <PUBCHEM_HEAVY_ATOM_COUNT>
26

> <PUBCHEM_ATOM_DEF_STEREO_COUNT>
0

> <PUBCHEM_ATOM_UDEF_STEREO_COUNT>
1

> <PUBCHEM_BOND_DEF_STEREO_COUNT>
0

> <PUBCHEM_BOND_UDEF_STEREO_COUNT>
0

> <PUBCHEM_ISOTOPIC_ATOM_COUNT>
0

> <PUBCHEM_COMPONENT_COUNT>
1

> <PUBCHEM_CACTVS_TAUTO_COUNT>
1

> <PUBCHEM_COORDINATE_TYPE>
1
5
255

> <PUBCHEM_BONDANNOTATIONS>
13  19  8
14  41  3
17  21  8
17  22  8
18  23  8
18  24  8
19  25  8
21  23  8
22  24  8
3  13  8
3  5  8
5  25  8

$$$$

