   Color/Form

     * Yellow crystals
     * Bright yellow crystals from ethanol
     * Bright yellow powder
     * Yellow-brown cystalline solid

   from [1]HSDB

   Odor
        Almost no odor.
   from [2]HSDB

   Taste
        TASTELESS
   from [3]HSDB

   Boiling Point
        180 DEG C @ 1 MM HG
   from [4]HSDB

   Melting Point
        108.5-110.5 deg C
   from [5]HSDB

   Density/Specific Gravity
        1.06
   from [6]HSDB

   Solubilities

     * SOL IN ALCOHOL, ETHER, ACETONE, AQ ALKALI SOLN
     * Readily soluble in aq alkali or ammonia to give bright yellow salts
     * Soluble in most organic solvents
     * In water, 18 mg/l @ 25 deg C

   from [7]HSDB

   Spectral Properties

     * IR: 11597 (Sadtler Research Laboratories Prism Collection)
     * Intense mass spectral peaks: 173 m/z (100%), 174 m/z (81%), 146 m/z
       (41%), 89 m/z (32%)

   from [8]HSDB

   Vapor Pressure
        1 mm Hg @ 180 deg C
   from [9]HSDB

   Other Chemical/Physical Properties
        Bright yellow crystals; sol in water; mp: 205-210 deg C /Sodium
   salt/
   from [10]HSDB

   Computed Properties
   Molecular Weight                  230.25916 [g/mol]
   Molecular Formula                 C[14]H[14]O[3]
   XLogP3-AA                         2.7
   H-Bond Donor                      0
   H-Bond Acceptor                   3
   Rotatable Bond Count              2
   Tautomer Count                    3
   Exact Mass                        230.094294
   MonoIsotopic Mass                 230.094294
   Topological Polar Surface Area    51.2
   Heavy Atom Count                  17
   Formal Charge                     0
   Complexity                        351
   Isotope Atom Count                0
   Defined Atom Stereocenter Count   0
   Undefined Atom Stereocenter Count 0
   Defined Bond Stereocenter Count   0
   Undefined Bond Stereocenter Count 0
   Covalently-Bonded Unit Count      1
   Feature 3D Acceptor Count         3
   Feature 3D Anion Count            1
   Feature 3D Hydrophobe Count       1
   Feature 3D Ring Count             2
   Effective Rotor Count             2.2
   Conformer Sampling RMSD           0.6
   CID Conformer Count               [11]3

References

   1. http://toxnet.nlm.nih.gov/cgi-bin/sis/search/r?dbs+hsdb:@term+@rn+@rel+83-26-1
   2. http://toxnet.nlm.nih.gov/cgi-bin/sis/search/r?dbs+hsdb:@term+@rn+@rel+83-26-1
   3. http://toxnet.nlm.nih.gov/cgi-bin/sis/search/r?dbs+hsdb:@term+@rn+@rel+83-26-1
   4. http://toxnet.nlm.nih.gov/cgi-bin/sis/search/r?dbs+hsdb:@term+@rn+@rel+83-26-1
   5. http://toxnet.nlm.nih.gov/cgi-bin/sis/search/r?dbs+hsdb:@term+@rn+@rel+83-26-1
   6. http://toxnet.nlm.nih.gov/cgi-bin/sis/search/r?dbs+hsdb:@term+@rn+@rel+83-26-1
   7. http://toxnet.nlm.nih.gov/cgi-bin/sis/search/r?dbs+hsdb:@term+@rn+@rel+83-26-1
   8. http://toxnet.nlm.nih.gov/cgi-bin/sis/search/r?dbs+hsdb:@term+@rn+@rel+83-26-1
   9. http://toxnet.nlm.nih.gov/cgi-bin/sis/search/r?dbs+hsdb:@term+@rn+@rel+83-26-1
  10. http://toxnet.nlm.nih.gov/cgi-bin/sis/search/r?dbs+hsdb:@term+@rn+@rel+83-26-1
  11. http://pubchem.ncbi.nlm.nih.gov/vw3d/vw3d.cgi?cid=6732
