6569946
  -OEChem-07051213072D

 52 54  0     1  0  0  0  0  0999 V2000
    2.9230   -1.6790    0.0000 O   0  0  0  0  0  0  0  0  0  0  0  0
    4.5981   -3.7668    0.0000 O   0  0  0  0  0  0  0  0  0  0  0  0
    5.4641   -5.2668    0.0000 O   0  0  0  0  0  0  0  0  0  0  0  0
    2.0000   -5.2668    0.0000 O   0  0  0  0  0  0  0  0  0  0  0  0
    3.9617    6.2668    0.0000 O   0  5  0  0  0  0  0  0  0  0  0  0
    2.3794    5.5623    0.0000 O   0  0  0  0  0  0  0  0  0  0  0  0
    3.3739    5.4578    0.0000 N   0  3  0  0  0  0  0  0  0  0  0  0
    3.7320   -2.2668    0.0000 C   0  0  2  0  0  0  0  0  0  0  0  0
    4.5411   -1.6790    0.0000 C   0  0  0  0  0  0  0  0  0  0  0  0
    4.2320   -0.7280    0.0000 C   0  0  0  0  0  0  0  0  0  0  0  0
    3.2320   -0.7280    0.0000 C   0  0  0  0  0  0  0  0  0  0  0  0
    3.7320   -3.2668    0.0000 C   0  0  0  0  0  0  0  0  0  0  0  0
    2.8660   -3.7668    0.0000 C   0  0  0  0  0  0  0  0  0  0  0  0
    4.8198    0.0810    0.0000 C   0  0  0  0  0  0  0  0  0  0  0  0
    2.8660   -4.7668    0.0000 C   0  0  0  0  0  0  0  0  0  0  0  0
    4.4131    0.9946    0.0000 C   0  0  0  0  0  0  0  0  0  0  0  0
    3.7320   -5.2668    0.0000 C   0  0  0  0  0  0  0  0  0  0  0  0
    2.0000   -3.2668    0.0000 C   0  0  0  0  0  0  0  0  0  0  0  0
    4.5981   -4.7668    0.0000 C   0  0  0  0  0  0  0  0  0  0  0  0
    5.0009    1.8036    0.0000 C   0  0  0  0  0  0  0  0  0  0  0  0
    3.4186    1.0991    0.0000 C   0  0  0  0  0  0  0  0  0  0  0  0
    3.7320   -6.2668    0.0000 C   0  0  0  0  0  0  0  0  0  0  0  0
    4.5942    2.7172    0.0000 C   0  0  0  0  0  0  0  0  0  0  0  0
    5.1819    3.5262    0.0000 C   0  0  0  0  0  0  0  0  0  0  0  0
    3.5996    2.8217    0.0000 C   0  0  0  0  0  0  0  0  0  0  0  0
    6.3301   -4.7668    0.0000 C   0  0  0  0  0  0  0  0  0  0  0  0
    4.7752    4.4397    0.0000 C   0  0  0  0  0  0  0  0  0  0  0  0
    3.1929    3.7352    0.0000 C   0  0  0  0  0  0  0  0  0  0  0  0
    3.7807    4.5442    0.0000 C   0  0  0  0  0  0  0  0  0  0  0  0
    2.9747   -2.6527    0.0000 H   0  0  0  0  0  0  0  0  0  0  0  0
    4.8511   -2.2160    0.0000 H   0  0  0  0  0  0  0  0  0  0  0  0
    5.1075   -1.4268    0.0000 H   0  0  0  0  0  0  0  0  0  0  0  0
    3.2969   -0.1114    0.0000 H   0  0  0  0  0  0  0  0  0  0  0  0
    2.6256   -0.5991    0.0000 H   0  0  0  0  0  0  0  0  0  0  0  0
    5.4364    0.0162    0.0000 H   0  0  0  0  0  0  0  0  0  0  0  0
    2.3100   -2.7299    0.0000 H   0  0  0  0  0  0  0  0  0  0  0  0
    1.4631   -2.9568    0.0000 H   0  0  0  0  0  0  0  0  0  0  0  0
    1.6900   -3.8038    0.0000 H   0  0  0  0  0  0  0  0  0  0  0  0
    5.6175    1.7388    0.0000 H   0  0  0  0  0  0  0  0  0  0  0  0
    3.4834    1.7157    0.0000 H   0  0  0  0  0  0  0  0  0  0  0  0
    2.8020    1.1639    0.0000 H   0  0  0  0  0  0  0  0  0  0  0  0
    3.3538    0.4825    0.0000 H   0  0  0  0  0  0  0  0  0  0  0  0
    3.1120   -6.2668    0.0000 H   0  0  0  0  0  0  0  0  0  0  0  0
    3.7320   -6.8868    0.0000 H   0  0  0  0  0  0  0  0  0  0  0  0
    4.3520   -6.2668    0.0000 H   0  0  0  0  0  0  0  0  0  0  0  0
    5.7985    3.4614    0.0000 H   0  0  0  0  0  0  0  0  0  0  0  0
    3.2352    2.3201    0.0000 H   0  0  0  0  0  0  0  0  0  0  0  0
    6.6401   -5.3038    0.0000 H   0  0  0  0  0  0  0  0  0  0  0  0
    6.8671   -4.4568    0.0000 H   0  0  0  0  0  0  0  0  0  0  0  0
    6.0201   -4.2299    0.0000 H   0  0  0  0  0  0  0  0  0  0  0  0
    5.1396    4.9413    0.0000 H   0  0  0  0  0  0  0  0  0  0  0  0
    2.5763    3.8000    0.0000 H   0  0  0  0  0  0  0  0  0  0  0  0
  1  8  1  0  0  0  0
  1 11  1  0  0  0  0
  2 12  1  0  0  0  0
  2 19  1  0  0  0  0
  3 19  1  0  0  0  0
  3 26  1  0  0  0  0
  4 15  2  0  0  0  0
  5  7  1  0  0  0  0
  6  7  2  0  0  0  0
  7 29  1  0  0  0  0
  8  9  1  0  0  0  0
  8 12  1  0  0  0  0
  8 30  1  1  0  0  0
  9 10  1  0  0  0  0
  9 31  1  0  0  0  0
  9 32  1  0  0  0  0
 10 11  1  0  0  0  0
 10 14  2  0  0  0  0
 11 33  1  0  0  0  0
 11 34  1  0  0  0  0
 12 13  2  0  0  0  0
 13 15  1  0  0  0  0
 13 18  1  0  0  0  0
 14 16  1  0  0  0  0
 14 35  1  0  0  0  0
 15 17  1  0  0  0  0
 16 20  2  0  0  0  0
 16 21  1  0  0  0  0
 17 19  2  0  0  0  0
 17 22  1  0  0  0  0
 18 36  1  0  0  0  0
 18 37  1  0  0  0  0
 18 38  1  0  0  0  0
 20 23  1  0  0  0  0
 20 39  1  0  0  0  0
 21 40  1  0  0  0  0
 21 41  1  0  0  0  0
 21 42  1  0  0  0  0
 22 43  1  0  0  0  0
 22 44  1  0  0  0  0
 22 45  1  0  0  0  0
 23 24  2  0  0  0  0
 23 25  1  0  0  0  0
 24 27  1  0  0  0  0
 24 46  1  0  0  0  0
 25 28  2  0  0  0  0
 25 47  1  0  0  0  0
 26 48  1  0  0  0  0
 26 49  1  0  0  0  0
 26 50  1  0  0  0  0
 27 29  2  0  0  0  0
 27 51  1  0  0  0  0
 28 29  1  0  0  0  0
 28 52  1  0  0  0  0
M  CHG  2   5  -1   7   1
M  END
> <PUBCHEM_COMPOUND_CID>
6569946

> <PUBCHEM_COMPOUND_CANONICALIZED>
1

> <PUBCHEM_CACTVS_COMPLEXITY>
806

> <PUBCHEM_CACTVS_HBOND_ACCEPTOR>
6

> <PUBCHEM_CACTVS_HBOND_DONOR>
0

> <PUBCHEM_CACTVS_ROTATABLE_BOND>
4

> <PUBCHEM_CACTVS_SUBSKEYS>
AAADceB6OAAAAAAAAAAAAAAAAAAAASAAAAAwQAAAAAAAAAABAAAAHgAEAAAADByhmAIyyIAQRACJAqRSQwCCCAAgIgAoiAEAZMoZJCKAsZGiMABkwAAO6QeQoAgOCAAAAAAAAAAQAAAAAAAAAAAAAAAAAA==

> <PUBCHEM_IUPAC_OPENEYE_NAME>
2-methoxy-3,5-dimethyl-6-[(2R,4Z)-4-[(E)-2-methyl-3-(4-nitrophenyl)prop-2-enylidene]tetrahydrofuran-2-yl]pyran-4-one

> <PUBCHEM_IUPAC_CAS_NAME>
2-methoxy-3,5-dimethyl-6-[(2R,4Z)-4-[(E)-2-methyl-3-(4-nitrophenyl)prop-2-enylidene]-2-oxolanyl]-4-pyranone

> <PUBCHEM_IUPAC_NAME>
2-methoxy-3,5-dimethyl-6-[(2R,4Z)-4-[(E)-2-methyl-3-(4-nitrophenyl)prop-2-enylidene]oxolan-2-yl]pyran-4-one

> <PUBCHEM_IUPAC_SYSTEMATIC_NAME>
2-methoxy-3,5-dimethyl-6-[(2R,4Z)-4-[(E)-2-methyl-3-(4-nitrophenyl)prop-2-enylidene]oxolan-2-yl]pyran-4-one

> <PUBCHEM_IUPAC_TRADITIONAL_NAME>
2-methoxy-3,5-dimethyl-6-[(2R,4Z)-4-[(E)-2-methyl-3-(4-nitrophenyl)prop-2-enylidene]tetrahydrofuran-2-yl]pyran-4-one

> <PUBCHEM_IUPAC_INCHI>
InChI=1S/C22H23NO6/c1-13(9-16-5-7-18(8-6-16)23(25)26)10-17-11-19(28-12-17)21-14(2)20(24)15(3)22(27-4)29-21/h5-10,19H,11-12H2,1-4H3/b13-9+,17-10-/t19-/m1/s1

> <PUBCHEM_IUPAC_INCHIKEY>
GQKXCBCSVYJUMI-WACKOAQBSA-N

> <PUBCHEM_XLOGP3_AA>
3.6

> <PUBCHEM_EXACT_MASS>
397.152537

> <PUBCHEM_MOLECULAR_FORMULA>
C22H23NO6

> <PUBCHEM_MOLECULAR_WEIGHT>
397.42112

> <PUBCHEM_OPENEYE_CAN_SMILES>
CC1=C(OC(=C(C1=O)C)OC)C2CC(=CC(=CC3=CC=C(C=C3)[N+](=O)[O-])C)CO2

> <PUBCHEM_OPENEYE_ISO_SMILES>
CC1=C(OC(=C(C1=O)C)OC)[C@H]2C/C(=C/C(=C/C3=CC=C(C=C3)[N+](=O)[O-])/C)/CO2

> <PUBCHEM_CACTVS_TPSA>
90.6

> <PUBCHEM_MONOISOTOPIC_WEIGHT>
397.152537

> <PUBCHEM_TOTAL_CHARGE>
0

> <PUBCHEM_HEAVY_ATOM_COUNT>
29

> <PUBCHEM_ATOM_DEF_STEREO_COUNT>
1

> <PUBCHEM_ATOM_UDEF_STEREO_COUNT>
0

> <PUBCHEM_BOND_DEF_STEREO_COUNT>
2

> <PUBCHEM_BOND_UDEF_STEREO_COUNT>
0

> <PUBCHEM_ISOTOPIC_ATOM_COUNT>
0

> <PUBCHEM_COMPONENT_COUNT>
1

> <PUBCHEM_CACTVS_TAUTO_COUNT>
1

> <PUBCHEM_COORDINATE_TYPE>
1
5
255

> <PUBCHEM_BONDANNOTATIONS>
12  13  8
13  15  8
15  17  8
17  19  8
2  12  8
2  19  8
23  24  8
23  25  8
24  27  8
25  28  8
27  29  8
28  29  8
8  30  5

$$$$

