120773
  -OEChem-07051212582D

 34 35  0     1  0  0  0  0  0999 V2000
    2.8660    1.8176    0.0000 O   0  0  0  0  0  0  0  0  0  0  0  0
    2.8660   -1.1824    0.0000 N   0  0  3  0  0  0  0  0  0  0  0  0
    4.5981   -0.1824    0.0000 C   0  0  3  0  0  0  0  0  0  0  0  0
    4.5981   -1.1824    0.0000 C   0  0  3  0  0  0  0  0  0  0  0  0
    5.5443   -1.4871    0.0000 C   0  0  3  0  0  0  0  0  0  0  0  0
    3.7320    0.3176    0.0000 C   0  0  3  0  0  0  0  0  0  0  0  0
    5.5443    0.1224    0.0000 C   0  0  0  0  0  0  0  0  0  0  0  0
    6.1279   -0.6824    0.0000 C   0  0  0  0  0  0  0  0  0  0  0  0
    3.7320   -1.6824    0.0000 C   0  0  0  0  0  0  0  0  0  0  0  0
    2.8660   -0.1824    0.0000 C   0  0  0  0  0  0  0  0  0  0  0  0
    5.8550   -2.4376    0.0000 C   0  0  0  0  0  0  0  0  0  0  0  0
    3.7320    1.3176    0.0000 C   0  0  0  0  0  0  0  0  0  0  0  0
    2.0000   -1.6824    0.0000 C   0  0  0  0  0  0  0  0  0  0  0  0
    4.6880    0.6629    0.0000 H   0  0  0  0  0  0  0  0  0  0  0  0
    4.6880   -2.0276    0.0000 H   0  0  0  0  0  0  0  0  0  0  0  0
    4.9446   -2.0894    0.0000 H   0  0  0  0  0  0  0  0  0  0  0  0
    4.4682    0.7426    0.0000 H   0  0  0  0  0  0  0  0  0  0  0  0
    6.0817    0.4316    0.0000 H   0  0  0  0  0  0  0  0  0  0  0  0
    5.2933    0.6893    0.0000 H   0  0  0  0  0  0  0  0  0  0  0  0
    6.5888   -1.0971    0.0000 H   0  0  0  0  0  0  0  0  0  0  0  0
    6.5888   -0.2676    0.0000 H   0  0  0  0  0  0  0  0  0  0  0  0
    3.3335   -2.1573    0.0000 H   0  0  0  0  0  0  0  0  0  0  0  0
    4.1306   -2.1573    0.0000 H   0  0  0  0  0  0  0  0  0  0  0  0
    2.6540    0.4002    0.0000 H   0  0  0  0  0  0  0  0  0  0  0  0
    2.2554   -0.2900    0.0000 H   0  0  0  0  0  0  0  0  0  0  0  0
    5.2656   -2.6302    0.0000 H   0  0  0  0  0  0  0  0  0  0  0  0
    6.0476   -3.0269    0.0000 H   0  0  0  0  0  0  0  0  0  0  0  0
    6.4443   -2.2450    0.0000 H   0  0  0  0  0  0  0  0  0  0  0  0
    4.3426    1.2100    0.0000 H   0  0  0  0  0  0  0  0  0  0  0  0
    3.9441    1.9002    0.0000 H   0  0  0  0  0  0  0  0  0  0  0  0
    1.6900   -1.1454    0.0000 H   0  0  0  0  0  0  0  0  0  0  0  0
    1.4631   -1.9924    0.0000 H   0  0  0  0  0  0  0  0  0  0  0  0
    2.3100   -2.2193    0.0000 H   0  0  0  0  0  0  0  0  0  0  0  0
    2.8660    2.4376    0.0000 H   0  0  0  0  0  0  0  0  0  0  0  0
  1 12  1  0  0  0  0
  1 34  1  0  0  0  0
  2  9  1  0  0  0  0
  2 10  1  0  0  0  0
  2 13  1  0  0  0  0
  3  4  1  0  0  0  0
  3  6  1  0  0  0  0
  3  7  1  0  0  0  0
  3 14  1  0  0  0  0
  4  5  1  0  0  0  0
  4  9  1  0  0  0  0
  4 15  1  0  0  0  0
  5  8  1  0  0  0  0
  5 11  1  0  0  0  0
  5 16  1  0  0  0  0
  6 10  1  0  0  0  0
  6 12  1  0  0  0  0
  6 17  1  0  0  0  0
  7  8  1  0  0  0  0
  7 18  1  0  0  0  0
  7 19  1  0  0  0  0
  8 20  1  0  0  0  0
  8 21  1  0  0  0  0
  9 22  1  0  0  0  0
  9 23  1  0  0  0  0
 10 24  1  0  0  0  0
 10 25  1  0  0  0  0
 11 26  1  0  0  0  0
 11 27  1  0  0  0  0
 11 28  1  0  0  0  0
 12 29  1  0  0  0  0
 12 30  1  0  0  0  0
 13 31  1  0  0  0  0
 13 32  1  0  0  0  0
 13 33  1  0  0  0  0
M  END
> <PUBCHEM_COMPOUND_CID>
120773

> <PUBCHEM_COMPOUND_CANONICALIZED>
1

> <PUBCHEM_CACTVS_COMPLEXITY>
183

> <PUBCHEM_CACTVS_HBOND_ACCEPTOR>
2

> <PUBCHEM_CACTVS_HBOND_DONOR>
1

> <PUBCHEM_CACTVS_ROTATABLE_BOND>
1

> <PUBCHEM_CACTVS_SUBSKEYS>
AAADceByIAAAAAAAAAAAAAAAAAAAAYAAAAAsAAAAAAAAAFgAAAAAHgAACAAADQDhgAYCAAMAAgAAAAAAAAAAAAAAAAAAAAAIAAAAEAIAgAAEQAAGAACAAAGQ0PIOgAAAAAAAAAAAAAAAAAAAAQAACAAAAA==

> <PUBCHEM_IUPAC_OPENEYE_NAME>
(2,7-dimethyl-1,3,4,4a,5,6,7,7a-octahydrocyclopenta[c]pyridin-4-yl)methanol

> <PUBCHEM_IUPAC_CAS_NAME>
(2,7-dimethyl-1,3,4,4a,5,6,7,7a-octahydrocyclopenta[c]pyridin-4-yl)methanol

> <PUBCHEM_IUPAC_NAME>
(2,7-dimethyl-1,3,4,4a,5,6,7,7a-octahydrocyclopenta[c]pyridin-4-yl)methanol

> <PUBCHEM_IUPAC_SYSTEMATIC_NAME>
(2,7-dimethyl-1,3,4,4a,5,6,7,7a-octahydrocyclopenta[c]pyridin-4-yl)methanol

> <PUBCHEM_IUPAC_TRADITIONAL_NAME>
(2,7-dimethyl-1,3,4,4a,5,6,7,7a-octahydro-2-pyrindin-4-yl)methanol

> <PUBCHEM_IUPAC_INCHI>
InChI=1S/C11H21NO/c1-8-3-4-10-9(7-13)5-12(2)6-11(8)10/h8-11,13H,3-7H2,1-2H3

> <PUBCHEM_IUPAC_INCHIKEY>
CRVXJVHSLVEDRI-UHFFFAOYSA-N

> <PUBCHEM_XLOGP3_AA>
1.8

> <PUBCHEM_EXACT_MASS>
183.162314

> <PUBCHEM_MOLECULAR_FORMULA>
C11H21NO

> <PUBCHEM_MOLECULAR_WEIGHT>
183.29054

> <PUBCHEM_OPENEYE_CAN_SMILES>
CC1CCC2C1CN(CC2CO)C

> <PUBCHEM_OPENEYE_ISO_SMILES>
CC1CCC2C1CN(CC2CO)C

> <PUBCHEM_CACTVS_TPSA>
23.5

> <PUBCHEM_MONOISOTOPIC_WEIGHT>
183.162314

> <PUBCHEM_TOTAL_CHARGE>
0

> <PUBCHEM_HEAVY_ATOM_COUNT>
13

> <PUBCHEM_ATOM_DEF_STEREO_COUNT>
0

> <PUBCHEM_ATOM_UDEF_STEREO_COUNT>
4

> <PUBCHEM_BOND_DEF_STEREO_COUNT>
0

> <PUBCHEM_BOND_UDEF_STEREO_COUNT>
0

> <PUBCHEM_ISOTOPIC_ATOM_COUNT>
0

> <PUBCHEM_COMPONENT_COUNT>
1

> <PUBCHEM_CACTVS_TAUTO_COUNT>
1

> <PUBCHEM_COORDINATE_TYPE>
1
5
255

> <PUBCHEM_BONDANNOTATIONS>
3  14  3
4  15  3
5  16  3
6  17  3

$$$$

