1076
  -OEChem-07051212452D

 34 33  0     1  0  0  0  0  0999 V2000
    8.5991    1.1550    0.0000 S   0  0  0  0  0  0  0  0  0  0  0  0
    6.8671   -1.8450    0.0000 S   0  0  0  0  0  0  0  0  0  0  0  0
    3.4030    2.1550    0.0000 O   0  0  0  0  0  0  0  0  0  0  0  0
    9.4651   -0.3450    0.0000 O   0  0  0  0  0  0  0  0  0  0  0  0
    2.5369    0.6550    0.0000 N   0  0  0  0  0  0  0  0  0  0  0  0
    6.8671    1.1550    0.0000 C   0  0  0  0  0  0  0  0  0  0  0  0
    7.7331    0.6550    0.0000 C   0  0  3  0  0  0  0  0  0  0  0  0
    6.0010    0.6550    0.0000 C   0  0  0  0  0  0  0  0  0  0  0  0
    7.7331   -0.3450    0.0000 C   0  0  0  0  0  0  0  0  0  0  0  0
    5.1350    1.1550    0.0000 C   0  0  0  0  0  0  0  0  0  0  0  0
    4.2690    0.6550    0.0000 C   0  0  0  0  0  0  0  0  0  0  0  0
    6.8671   -0.8450    0.0000 C   0  0  0  0  0  0  0  0  0  0  0  0
    3.4030    1.1550    0.0000 C   0  0  0  0  0  0  0  0  0  0  0  0
    9.4651    0.6550    0.0000 C   0  0  0  0  0  0  0  0  0  0  0  0
   10.3312    1.1550    0.0000 C   0  0  0  0  0  0  0  0  0  0  0  0
    7.2656    1.6300    0.0000 H   0  0  0  0  0  0  0  0  0  0  0  0
    6.4685    1.6300    0.0000 H   0  0  0  0  0  0  0  0  0  0  0  0
    7.7331    1.2750    0.0000 H   0  0  0  0  0  0  0  0  0  0  0  0
    5.6025    0.1801    0.0000 H   0  0  0  0  0  0  0  0  0  0  0  0
    6.3996    0.1801    0.0000 H   0  0  0  0  0  0  0  0  0  0  0  0
    7.9451   -0.9276    0.0000 H   0  0  0  0  0  0  0  0  0  0  0  0
    8.3437   -0.2373    0.0000 H   0  0  0  0  0  0  0  0  0  0  0  0
    5.5335    1.6300    0.0000 H   0  0  0  0  0  0  0  0  0  0  0  0
    4.7365    1.6300    0.0000 H   0  0  0  0  0  0  0  0  0  0  0  0
    3.8705    0.1801    0.0000 H   0  0  0  0  0  0  0  0  0  0  0  0
    4.6675    0.1801    0.0000 H   0  0  0  0  0  0  0  0  0  0  0  0
    6.6550   -0.2624    0.0000 H   0  0  0  0  0  0  0  0  0  0  0  0
    6.2565   -0.9527    0.0000 H   0  0  0  0  0  0  0  0  0  0  0  0
    6.3301   -2.1550    0.0000 H   0  0  0  0  0  0  0  0  0  0  0  0
   10.6412    0.6181    0.0000 H   0  0  0  0  0  0  0  0  0  0  0  0
   10.8681    1.4650    0.0000 H   0  0  0  0  0  0  0  0  0  0  0  0
   10.0212    1.6919    0.0000 H   0  0  0  0  0  0  0  0  0  0  0  0
    2.0000    0.9650    0.0000 H   0  0  0  0  0  0  0  0  0  0  0  0
    2.5369    0.0350    0.0000 H   0  0  0  0  0  0  0  0  0  0  0  0
  1  7  1  0  0  0  0
  1 14  1  0  0  0  0
  2 12  1  0  0  0  0
  2 29  1  0  0  0  0
  3 13  2  0  0  0  0
  4 14  2  0  0  0  0
  5 13  1  0  0  0  0
  5 33  1  0  0  0  0
  5 34  1  0  0  0  0
  6  7  1  0  0  0  0
  6  8  1  0  0  0  0
  6 16  1  0  0  0  0
  6 17  1  0  0  0  0
  7  9  1  0  0  0  0
  7 18  1  0  0  0  0
  8 10  1  0  0  0  0
  8 19  1  0  0  0  0
  8 20  1  0  0  0  0
  9 12  1  0  0  0  0
  9 21  1  0  0  0  0
  9 22  1  0  0  0  0
 10 11  1  0  0  0  0
 10 23  1  0  0  0  0
 10 24  1  0  0  0  0
 11 13  1  0  0  0  0
 11 25  1  0  0  0  0
 11 26  1  0  0  0  0
 12 27  1  0  0  0  0
 12 28  1  0  0  0  0
 14 15  1  0  0  0  0
 15 30  1  0  0  0  0
 15 31  1  0  0  0  0
 15 32  1  0  0  0  0
M  END
> <PUBCHEM_COMPOUND_CID>
1076

> <PUBCHEM_COMPOUND_CANONICALIZED>
1

> <PUBCHEM_CACTVS_COMPLEXITY>
210

> <PUBCHEM_CACTVS_HBOND_ACCEPTOR>
4

> <PUBCHEM_CACTVS_HBOND_DONOR>
2

> <PUBCHEM_CACTVS_ROTATABLE_BOND>
9

> <PUBCHEM_CACTVS_SUBSKEYS>
AAADceByMABgAAAAAAAAAAAAAAAAAAAAAAAAAAAAAAAAAAAAAAAAHgQQAAAACACFwACCAABAAAwIAAEQEAAAAAAAABAAAAEAAAAAABIggAAAAAAAEAAgAAEYiICAAAAAAAAAAAAAAAAAAAAAAAAAAAAAAA==

> <PUBCHEM_IUPAC_OPENEYE_NAME>
S-[6-amino-6-oxo-1-(2-sulfanylethyl)hexyl] ethanethioate

> <PUBCHEM_IUPAC_CAS_NAME>
ethanethioic acid S-(8-amino-1-mercapto-8-oxooctan-3-yl) ester

> <PUBCHEM_IUPAC_NAME>
S-(8-amino-8-oxo-1-sulfanyloctan-3-yl) ethanethioate

> <PUBCHEM_IUPAC_SYSTEMATIC_NAME>
S-(8-azanyl-8-oxidanylidene-1-sulfanyl-octan-3-yl) ethanethioate

> <PUBCHEM_IUPAC_TRADITIONAL_NAME>
ethanethioic acid S-[6-amino-6-keto-1-(2-mercaptoethyl)hexyl] ester

> <PUBCHEM_IUPAC_INCHI>
InChI=1S/C10H19NO2S2/c1-8(12)15-9(6-7-14)4-2-3-5-10(11)13/h9,14H,2-7H2,1H3,(H2,11,13)

> <PUBCHEM_IUPAC_INCHIKEY>
ARGXEXVCHMNAQU-UHFFFAOYSA-N

> <PUBCHEM_XLOGP3_AA>
1.3

> <PUBCHEM_EXACT_MASS>
249.085721

> <PUBCHEM_MOLECULAR_FORMULA>
C10H19NO2S2

> <PUBCHEM_MOLECULAR_WEIGHT>
249.39336

> <PUBCHEM_OPENEYE_CAN_SMILES>
CC(=O)SC(CCCCC(=O)N)CCS

> <PUBCHEM_OPENEYE_ISO_SMILES>
CC(=O)SC(CCCCC(=O)N)CCS

> <PUBCHEM_CACTVS_TPSA>
86.5

> <PUBCHEM_MONOISOTOPIC_WEIGHT>
249.085721

> <PUBCHEM_TOTAL_CHARGE>
0

> <PUBCHEM_HEAVY_ATOM_COUNT>
15

> <PUBCHEM_ATOM_DEF_STEREO_COUNT>
0

> <PUBCHEM_ATOM_UDEF_STEREO_COUNT>
1

> <PUBCHEM_BOND_DEF_STEREO_COUNT>
0

> <PUBCHEM_BOND_UDEF_STEREO_COUNT>
0

> <PUBCHEM_ISOTOPIC_ATOM_COUNT>
0

> <PUBCHEM_COMPONENT_COUNT>
1

> <PUBCHEM_CACTVS_TAUTO_COUNT>
3

> <PUBCHEM_COORDINATE_TYPE>
1
5
255

> <PUBCHEM_BONDANNOTATIONS>
7  9  3

$$$$

