   Color/Form
        OILY LIQUID
   from [1]HSDB

   Boiling Point
        201 DEG C @ 5 MM HG
   from [2]HSDB

   Solubilities
        1 G DISSOLVES IN ABOUT 2 ML CHLOROFORM
   from [3]HSDB

   Spectral Properties

     * INDEX OF REFRACTION: 1.5760-1.5765 @ 25 DEG C/D
     * MAX ABSORPTION (0.2 MOLAR H3BO3): 243 NM (A= 400, 1%, 1 CM); 306 NM
       (A= 120, 1% 1 CM)

   from [4]HSDB

   Other Chemical/Physical Properties

     * MAX ABSORPTION: 244 NM (E= 420, 1%, 1 CM); CRYSTALS BITTER SALINE
       TASTE; STABLE IN AIR; 10% SOLN HAS A PH OF APPROX 5.1, ON RAISING
       PH TO 7.5 OR 8.0 PPTN OF THE OILY FREE BASE BEGINS /MALEATE/
     * MELTING POINT: 143-143.5 DEG C /HYDROCHLORIDE/, 100-101 DEG C
       /MALEATE/
     * WHITE, CRYSTALLINE POWDER; FAINT ODOR; SOLUTIONS ARE ACID TO
       LITMUS; MELTS BETWEEN 99 AND 103 DEG C /MALEATE/
     * CRYSTALS; VERY SOLUBLE IN WATER /HYDROCHLORIDE/
     * 1 G DISSOLVES IN ABOUT 0.4 ML WATER; SLIGHTLY SOL IN BENZENE,
       ETHER; 1 G DISSOLVES IN ABOUT 15 ML ABS ALCOHOL /MALEATE/

   from [5]HSDB

   Computed Properties
   Molecular Weight                  285.38402 [g/mol]
   Molecular Formula                 C[17]H[23]N[3]O
   XLogP3                            3.3
   H-Bond Donor                      0
   H-Bond Acceptor                   4
   Rotatable Bond Count              7
   Exact Mass                        285.184112
   MonoIsotopic Mass                 285.184112
   Topological Polar Surface Area    28.6
   Heavy Atom Count                  21
   Formal Charge                     0
   Complexity                        277
   Isotope Atom Count                0
   Defined Atom Stereocenter Count   0
   Undefined Atom Stereocenter Count 0
   Defined Bond Stereocenter Count   0
   Undefined Bond Stereocenter Count 0
   Covalently-Bonded Unit Count      1
   Feature 3D Acceptor Count         2
   Feature 3D Cation Count           2
   Feature 3D Ring Count             2
   Effective Rotor Count             7
   Conformer Sampling RMSD           0.8
   CID Conformer Count               [6]187

References

   1. http://toxnet.nlm.nih.gov/cgi-bin/sis/search/r?dbs+hsdb:@term+@rn+@rel+91-84-9
   2. http://toxnet.nlm.nih.gov/cgi-bin/sis/search/r?dbs+hsdb:@term+@rn+@rel+91-84-9
   3. http://toxnet.nlm.nih.gov/cgi-bin/sis/search/r?dbs+hsdb:@term+@rn+@rel+91-84-9
   4. http://toxnet.nlm.nih.gov/cgi-bin/sis/search/r?dbs+hsdb:@term+@rn+@rel+91-84-9
   5. http://toxnet.nlm.nih.gov/cgi-bin/sis/search/r?dbs+hsdb:@term+@rn+@rel+91-84-9
   6. http://pubchem.ncbi.nlm.nih.gov/vw3d/vw3d.cgi?cid=4992
