23724770
  -OEChem-07051213082D

 73 76  0     1  0  0  0  0  0999 V2000
    7.3931   -2.2889    0.0000 O   0  0  0  0  0  0  0  0  0  0  0  0
    5.6489   -4.3582    0.0000 O   0  0  0  0  0  0  0  0  0  0  0  0
    2.0000   -3.3413    0.0000 O   0  0  0  0  0  0  0  0  0  0  0  0
   11.5390    4.2303    0.0000 O   0  0  0  0  0  0  0  0  0  0  0  0
    7.3931   -0.2889    0.0000 C   0  0  1  0  0  0  0  0  0  0  0  0
    7.3931   -1.2889    0.0000 C   0  0  1  0  0  0  0  0  0  0  0  0
    8.3393    0.0158    0.0000 C   0  0  2  0  0  0  0  0  0  0  0  0
    5.6610   -1.2889    0.0000 C   0  0  1  0  0  0  0  0  0  0  0  0
    6.5271    0.2111    0.0000 C   0  0  0  0  0  0  0  0  0  0  0  0
    6.5271   -1.7889    0.0000 C   0  0  0  0  0  0  0  0  0  0  0  0
    4.7510   -1.7958    0.0000 C   0  0  2  0  0  0  0  0  0  0  0  0
    8.3393   -1.5937    0.0000 C   0  0  0  0  0  0  0  0  0  0  0  0
    8.9229   -0.7889    0.0000 C   0  0  0  0  0  0  0  0  0  0  0  0
    5.6610   -0.2889    0.0000 C   0  0  0  0  0  0  0  0  0  0  0  0
    8.6500    0.9663    0.0000 C   0  0  1  0  0  0  0  0  0  0  0  0
    4.7430   -2.8374    0.0000 C   0  0  2  0  0  0  0  0  0  0  0  0
    7.3931    0.7111    0.0000 C   0  0  0  0  0  0  0  0  0  0  0  0
    3.8242   -1.2317    0.0000 C   0  0  0  0  0  0  0  0  0  0  0  0
    6.5431   -2.8304    0.0000 C   0  0  0  0  0  0  0  0  0  0  0  0
    4.7587   -0.7958    0.0000 C   0  0  0  0  0  0  0  0  0  0  0  0
    5.6451   -3.3582    0.0000 C   0  0  0  0  0  0  0  0  0  0  0  0
    3.8076   -3.3871    0.0000 C   0  0  0  0  0  0  0  0  0  0  0  0
    9.6285    1.1725    0.0000 C   0  0  0  0  0  0  0  0  0  0  0  0
    2.8763   -1.7596    0.0000 C   0  0  0  0  0  0  0  0  0  0  0  0
    7.9821    1.7106    0.0000 C   0  0  0  0  0  0  0  0  0  0  0  0
    2.8680   -2.8446    0.0000 C   0  0  0  0  0  0  0  0  0  0  0  0
    9.9391    2.1231    0.0000 C   0  0  0  0  0  0  0  0  0  0  0  0
   10.9176    2.3293    0.0000 C   0  0  0  0  0  0  0  0  0  0  0  0
   11.2283    3.2798    0.0000 C   0  0  0  0  0  0  0  0  0  0  0  0
   12.1788    2.9691    0.0000 C   0  0  0  0  0  0  0  0  0  0  0  0
   10.2778    3.5905    0.0000 C   0  0  0  0  0  0  0  0  0  0  0  0
    9.1790    0.1477    0.0000 H   0  0  0  0  0  0  0  0  0  0  0  0
    6.3972   -0.8639    0.0000 H   0  0  0  0  0  0  0  0  0  0  0  0
    6.9256    0.6860    0.0000 H   0  0  0  0  0  0  0  0  0  0  0  0
    6.1285    0.6860    0.0000 H   0  0  0  0  0  0  0  0  0  0  0  0
    8.0883   -2.1606    0.0000 H   0  0  0  0  0  0  0  0  0  0  0  0
    8.8767   -1.9029    0.0000 H   0  0  0  0  0  0  0  0  0  0  0  0
    9.3838   -1.2037    0.0000 H   0  0  0  0  0  0  0  0  0  0  0  0
    9.3838   -0.3742    0.0000 H   0  0  0  0  0  0  0  0  0  0  0  0
    5.4490    0.2937    0.0000 H   0  0  0  0  0  0  0  0  0  0  0  0
    5.0504   -0.3966    0.0000 H   0  0  0  0  0  0  0  0  0  0  0  0
    8.0433    0.8385    0.0000 H   0  0  0  0  0  0  0  0  0  0  0  0
    4.7463   -3.6874    0.0000 H   0  0  0  0  0  0  0  0  0  0  0  0
    8.0131    0.7111    0.0000 H   0  0  0  0  0  0  0  0  0  0  0  0
    7.3931    1.3311    0.0000 H   0  0  0  0  0  0  0  0  0  0  0  0
    6.7731    0.7111    0.0000 H   0  0  0  0  0  0  0  0  0  0  0  0
    4.2324   -0.7650    0.0000 H   0  0  0  0  0  0  0  0  0  0  0  0
    3.4343   -0.7497    0.0000 H   0  0  0  0  0  0  0  0  0  0  0  0
    7.0836   -3.1342    0.0000 H   0  0  0  0  0  0  0  0  0  0  0  0
    5.3787   -0.8006    0.0000 H   0  0  0  0  0  0  0  0  0  0  0  0
    4.7635   -0.1758    0.0000 H   0  0  0  0  0  0  0  0  0  0  0  0
    4.1388   -0.7910    0.0000 H   0  0  0  0  0  0  0  0  0  0  0  0
    7.9300   -2.5989    0.0000 H   0  0  0  0  0  0  0  0  0  0  0  0
    3.4103   -3.8631    0.0000 H   0  0  0  0  0  0  0  0  0  0  0  0
    4.2085   -3.8600    0.0000 H   0  0  0  0  0  0  0  0  0  0  0  0
    9.6490    0.5529    0.0000 H   0  0  0  0  0  0  0  0  0  0  0  0
   10.2423    1.0852    0.0000 H   0  0  0  0  0  0  0  0  0  0  0  0
    2.6718   -1.1744    0.0000 H   0  0  0  0  0  0  0  0  0  0  0  0
    2.2647   -1.8610    0.0000 H   0  0  0  0  0  0  0  0  0  0  0  0
    8.4436    2.1247    0.0000 H   0  0  0  0  0  0  0  0  0  0  0  0
    7.5681    2.1721    0.0000 H   0  0  0  0  0  0  0  0  0  0  0  0
    7.5207    1.2966    0.0000 H   0  0  0  0  0  0  0  0  0  0  0  0
    9.9186    2.7427    0.0000 H   0  0  0  0  0  0  0  0  0  0  0  0
    9.3253    2.2104    0.0000 H   0  0  0  0  0  0  0  0  0  0  0  0
   10.9382    1.7096    0.0000 H   0  0  0  0  0  0  0  0  0  0  0  0
   11.5315    2.2419    0.0000 H   0  0  0  0  0  0  0  0  0  0  0  0
   11.9862    2.3798    0.0000 H   0  0  0  0  0  0  0  0  0  0  0  0
   12.7681    2.7765    0.0000 H   0  0  0  0  0  0  0  0  0  0  0  0
   10.4704    4.1798    0.0000 H   0  0  0  0  0  0  0  0  0  0  0  0
    9.6885    3.7831    0.0000 H   0  0  0  0  0  0  0  0  0  0  0  0
   10.0852    3.0011    0.0000 H   0  0  0  0  0  0  0  0  0  0  0  0
   12.3714    3.5585    0.0000 H   0  0  0  0  0  0  0  0  0  0  0  0
   12.1456    4.3582    0.0000 H   0  0  0  0  0  0  0  0  0  0  0  0
  6  1  1  6  0  0  0
  1 53  1  0  0  0  0
  2 21  2  0  0  0  0
  3 26  2  0  0  0  0
  4 29  1  0  0  0  0
  4 73  1  0  0  0  0
  5  6  1  0  0  0  0
  5  7  1  0  0  0  0
  5  9  1  0  0  0  0
  5 17  1  1  0  0  0
  6 10  1  0  0  0  0
  6 12  1  0  0  0  0
  7 13  1  0  0  0  0
  7 15  1  0  0  0  0
  7 32  1  6  0  0  0
  8 10  1  0  0  0  0
  8 11  1  0  0  0  0
  8 14  1  0  0  0  0
  8 33  1  6  0  0  0
  9 14  1  0  0  0  0
  9 34  1  0  0  0  0
  9 35  1  0  0  0  0
 10 19  2  0  0  0  0
 11 16  1  0  0  0  0
 11 18  1  0  0  0  0
 11 20  1  1  0  0  0
 12 13  1  0  0  0  0
 12 36  1  0  0  0  0
 12 37  1  0  0  0  0
 13 38  1  0  0  0  0
 13 39  1  0  0  0  0
 14 40  1  0  0  0  0
 14 41  1  0  0  0  0
 15 23  1  0  0  0  0
 15 25  1  6  0  0  0
 15 42  1  0  0  0  0
 16 21  1  0  0  0  0
 16 22  1  0  0  0  0
 16 43  1  1  0  0  0
 17 44  1  0  0  0  0
 17 45  1  0  0  0  0
 17 46  1  0  0  0  0
 18 24  1  0  0  0  0
 18 47  1  0  0  0  0
 18 48  1  0  0  0  0
 19 21  1  0  0  0  0
 19 49  1  0  0  0  0
 20 50  1  0  0  0  0
 20 51  1  0  0  0  0
 20 52  1  0  0  0  0
 22 26  1  0  0  0  0
 22 54  1  0  0  0  0
 22 55  1  0  0  0  0
 23 27  1  0  0  0  0
 23 56  1  0  0  0  0
 23 57  1  0  0  0  0
 24 26  1  0  0  0  0
 24 58  1  0  0  0  0
 24 59  1  0  0  0  0
 25 60  1  0  0  0  0
 25 61  1  0  0  0  0
 25 62  1  0  0  0  0
 27 28  1  0  0  0  0
 27 63  1  0  0  0  0
 27 64  1  0  0  0  0
 28 29  1  0  0  0  0
 28 65  1  0  0  0  0
 28 66  1  0  0  0  0
 29 30  1  0  0  0  0
 29 31  1  0  0  0  0
 30 67  1  0  0  0  0
 30 68  1  0  0  0  0
 30 72  1  0  0  0  0
 31 69  1  0  0  0  0
 31 70  1  0  0  0  0
 31 71  1  0  0  0  0
M  END
> <PUBCHEM_COMPOUND_CID>
23724770

> <PUBCHEM_COMPOUND_CANONICALIZED>
1

> <PUBCHEM_CACTVS_COMPLEXITY>
797

> <PUBCHEM_CACTVS_HBOND_ACCEPTOR>
4

> <PUBCHEM_CACTVS_HBOND_DONOR>
2

> <PUBCHEM_CACTVS_ROTATABLE_BOND>
5

> <PUBCHEM_CACTVS_SUBSKEYS>
AAADcfB4OAAAAAAAAAAAAAAAAAAAAYAAAAAwYIAAAAAAAGCAAAAAGgAACAAAD0SAgAACAAAAAgCIAqBSAAAAAAAgAAAACAEAAEgABBIAAQAAUAAEgAAIEQOJyPCPgAAAAAAAAACAAAYAADAAAYAADAAAAA==

> <PUBCHEM_IUPAC_OPENEYE_NAME>
(5R,9R,10R,13R,14S,17R)-14-hydroxy-17-[(1R)-5-hydroxy-1,5-dimethyl-hexyl]-10,13-dimethyl-1,2,4,5,9,11,12,15,16,17-decahydrocyclopenta[a]phenanthrene-3,6-dione

> <PUBCHEM_IUPAC_CAS_NAME>
(5R,9R,10R,13R,14S,17R)-14-hydroxy-17-[(2R)-6-hydroxy-6-methylheptan-2-yl]-10,13-dimethyl-1,2,4,5,9,11,12,15,16,17-decahydrocyclopenta[a]phenanthrene-3,6-dione

> <PUBCHEM_IUPAC_NAME>
(5R,9R,10R,13R,14S,17R)-14-hydroxy-17-[(2R)-6-hydroxy-6-methylheptan-2-yl]-10,13-dimethyl-1,2,4,5,9,11,12,15,16,17-decahydrocyclopenta[a]phenanthrene-3,6-dione

> <PUBCHEM_IUPAC_SYSTEMATIC_NAME>
(5R,9R,10R,13R,14S,17R)-10,13-dimethyl-17-[(2R)-6-methyl-6-oxidanyl-heptan-2-yl]-14-oxidanyl-1,2,4,5,9,11,12,15,16,17-decahydrocyclopenta[a]phenanthrene-3,6-dione

> <PUBCHEM_IUPAC_TRADITIONAL_NAME>
(5R,9R,10R,13R,14S,17R)-14-hydroxy-17-[(1R)-5-hydroxy-1,5-dimethyl-hexyl]-10,13-dimethyl-1,2,4,5,9,11,12,15,16,17-decahydrocyclopenta[a]phenanthrene-3,6-quinone

> <PUBCHEM_IUPAC_INCHI>
InChI=1S/C27H42O4/c1-17(7-6-11-24(2,3)30)19-10-14-27(31)21-16-23(29)22-15-18(28)8-12-25(22,4)20(21)9-13-26(19,27)5/h16-17,19-20,22,30-31H,6-15H2,1-5H3/t17-,19-,20+,22+,25-,26-,27-/m1/s1

> <PUBCHEM_IUPAC_INCHIKEY>
ADJIOBLYKGQIDH-NOVLVJNXSA-N

> <PUBCHEM_XLOGP3_AA>
3.4

> <PUBCHEM_EXACT_MASS>
430.30831

> <PUBCHEM_MOLECULAR_FORMULA>
C27H42O4

> <PUBCHEM_MOLECULAR_WEIGHT>
430.61998

> <PUBCHEM_OPENEYE_CAN_SMILES>
CC(CCCC(C)(C)O)C1CCC2(C1(CCC3C2=CC(=O)C4C3(CCC(=O)C4)C)C)O

> <PUBCHEM_OPENEYE_ISO_SMILES>
C[C@H](CCCC(C)(C)O)[C@H]1CC[C@@]2([C@@]1(CC[C@H]3C2=CC(=O)[C@H]4[C@@]3(CCC(=O)C4)C)C)O

> <PUBCHEM_CACTVS_TPSA>
74.6

> <PUBCHEM_MONOISOTOPIC_WEIGHT>
430.30831

> <PUBCHEM_TOTAL_CHARGE>
0

> <PUBCHEM_HEAVY_ATOM_COUNT>
31

> <PUBCHEM_ATOM_DEF_STEREO_COUNT>
7

> <PUBCHEM_ATOM_UDEF_STEREO_COUNT>
0

> <PUBCHEM_BOND_DEF_STEREO_COUNT>
0

> <PUBCHEM_BOND_UDEF_STEREO_COUNT>
0

> <PUBCHEM_ISOTOPIC_ATOM_COUNT>
0

> <PUBCHEM_COMPONENT_COUNT>
1

> <PUBCHEM_CACTVS_TAUTO_COUNT>
25

> <PUBCHEM_COORDINATE_TYPE>
1
5
255

> <PUBCHEM_BONDANNOTATIONS>
6  1  6
11  20  5
15  25  6
16  43  5
5  17  5
7  32  6
8  33  6

$$$$

