75421
  -OEChem-07051212462D

 17 18  0     0  0  0  0  0  0999 V2000
    2.8660    1.5420    0.0000 O   0  0  0  0  0  0  0  0  0  0  0  0
    4.6783   -1.2627    0.0000 N   0  0  0  0  0  0  0  0  0  0  0  0
    3.7320    0.0420    0.0000 C   0  0  0  0  0  0  0  0  0  0  0  0
    3.7320   -0.9580    0.0000 C   0  0  0  0  0  0  0  0  0  0  0  0
    2.8660    0.5420    0.0000 C   0  0  0  0  0  0  0  0  0  0  0  0
    4.6783    0.3468    0.0000 C   0  0  0  0  0  0  0  0  0  0  0  0
    2.8660   -1.4580    0.0000 C   0  0  0  0  0  0  0  0  0  0  0  0
    5.2619   -0.4580    0.0000 C   0  0  0  0  0  0  0  0  0  0  0  0
    2.0000    0.0420    0.0000 C   0  0  0  0  0  0  0  0  0  0  0  0
    2.0000   -0.9580    0.0000 C   0  0  0  0  0  0  0  0  0  0  0  0
    4.8709    0.9361    0.0000 H   0  0  0  0  0  0  0  0  0  0  0  0
    4.8709   -1.8520    0.0000 H   0  0  0  0  0  0  0  0  0  0  0  0
    2.8660   -2.0780    0.0000 H   0  0  0  0  0  0  0  0  0  0  0  0
    5.8819   -0.4580    0.0000 H   0  0  0  0  0  0  0  0  0  0  0  0
    1.4631    0.3520    0.0000 H   0  0  0  0  0  0  0  0  0  0  0  0
    1.4631   -1.2680    0.0000 H   0  0  0  0  0  0  0  0  0  0  0  0
    2.3291    1.8520    0.0000 H   0  0  0  0  0  0  0  0  0  0  0  0
  1  5  1  0  0  0  0
  1 17  1  0  0  0  0
  2  4  1  0  0  0  0
  2  8  1  0  0  0  0
  2 12  1  0  0  0  0
  3  4  2  0  0  0  0
  3  5  1  0  0  0  0
  3  6  1  0  0  0  0
  4  7  1  0  0  0  0
  5  9  2  0  0  0  0
  6  8  2  0  0  0  0
  6 11  1  0  0  0  0
  7 10  2  0  0  0  0
  7 13  1  0  0  0  0
  8 14  1  0  0  0  0
  9 10  1  0  0  0  0
  9 15  1  0  0  0  0
 10 16  1  0  0  0  0
M  END
> <PUBCHEM_COMPOUND_CID>
75421

> <PUBCHEM_COMPOUND_CANONICALIZED>
1

> <PUBCHEM_CACTVS_COMPLEXITY>
126

> <PUBCHEM_CACTVS_HBOND_ACCEPTOR>
1

> <PUBCHEM_CACTVS_HBOND_DONOR>
2

> <PUBCHEM_CACTVS_ROTATABLE_BOND>
0

> <PUBCHEM_CACTVS_SUBSKEYS>
AAADcYByIAAAAAAAAAAAAAAAAAAAAWAAAAAwAAAAAAAAAFgB8AAAHgAQCAAADAzBngQ8xvLJkgCgAzRnRACCgCAxIiAI2aA+bJgIJuLCkZOEcAhm0BnI2Aew0KMOAAAAAgAKAAAAAAAEABQAAAAAAAAAAA==

> <PUBCHEM_IUPAC_OPENEYE_NAME>
1H-indol-4-ol

> <PUBCHEM_IUPAC_CAS_NAME>
1H-indol-4-ol

> <PUBCHEM_IUPAC_NAME>
1H-indol-4-ol

> <PUBCHEM_IUPAC_SYSTEMATIC_NAME>
1H-indol-4-ol

> <PUBCHEM_IUPAC_TRADITIONAL_NAME>
1H-indol-4-ol

> <PUBCHEM_IUPAC_INCHI>
InChI=1S/C8H7NO/c10-8-3-1-2-7-6(8)4-5-9-7/h1-5,9-10H

> <PUBCHEM_IUPAC_INCHIKEY>
NLMQHXUGJIAKTH-UHFFFAOYSA-N

> <PUBCHEM_XLOGP3>
2.4

> <PUBCHEM_EXACT_MASS>
133.052764

> <PUBCHEM_MOLECULAR_FORMULA>
C8H7NO

> <PUBCHEM_MOLECULAR_WEIGHT>
133.14728

> <PUBCHEM_OPENEYE_CAN_SMILES>
C1=CC2=C(C=CN2)C(=C1)O

> <PUBCHEM_OPENEYE_ISO_SMILES>
C1=CC2=C(C=CN2)C(=C1)O

> <PUBCHEM_CACTVS_TPSA>
36

> <PUBCHEM_MONOISOTOPIC_WEIGHT>
133.052764

> <PUBCHEM_TOTAL_CHARGE>
0

> <PUBCHEM_HEAVY_ATOM_COUNT>
10

> <PUBCHEM_ATOM_DEF_STEREO_COUNT>
0

> <PUBCHEM_ATOM_UDEF_STEREO_COUNT>
0

> <PUBCHEM_BOND_DEF_STEREO_COUNT>
0

> <PUBCHEM_BOND_UDEF_STEREO_COUNT>
0

> <PUBCHEM_ISOTOPIC_ATOM_COUNT>
0

> <PUBCHEM_COMPONENT_COUNT>
1

> <PUBCHEM_CACTVS_TAUTO_COUNT>
11

> <PUBCHEM_COORDINATE_TYPE>
1
5
255

> <PUBCHEM_BONDANNOTATIONS>
2  4  8
2  8  8
3  4  8
3  5  8
3  6  8
4  7  8
5  9  8
6  8  8
7  10  8
9  10  8

$$$$

