   Color/Form

     * Heavy liquid
     * Colorless liquid or solid (below 50 degrees F).

   from [1]HSDB

   Odor

     * Chloroform odor
     * Sweet odor.

   from [2]HSDB

   Boiling Point
        131-132 deg C
   from [3]HSDB

   Melting Point
        9.97 deg C
   from [4]HSDB

   Corrosivity

     * Liquid ethylene dibromide will attack some forms of plastics,
       rubber, and coatings.
     * May poison platinum catalysts

   from [5]HSDB

   Critical Temperature and Pressure
        Critical temperature: 309.8 deg C; critical pressure: 7154 kPa
   (70.6 atm).
   from [6]HSDB

   Density/Specific Gravity
        (Liquid) 2.172 g/ml
   from [7]HSDB

   Heat of Combustion
        Heat of combustion in an oxygen bomb is 6647 J/g (1289 cal/g).
   from [8]HSDB

   Heat of Vaporization
        82.1 BTU/lb= 45.6 cal/g= 1.91X10+5 J/kg
   from [9]HSDB

   Octanol/Water Partition Coefficient
        log Kow = 1.96
   from [10]HSDB

   Solubilities

     * Sol in about 250 parts water
     * Miscible with most organic solvents, diethyl ether, and ethanol
     * Very soluble in acetone, benzene, ethyl ether, and ethanol
     * Miscible with non-alkaline organic liquids
     * Soluble in oxygenated solvents
     * In water, 4,310 mg/l @ 30 deg C
     * In water, 3.91X10+3 mg/l @ 25 deg C

   from [11]HSDB

   Spectral Properties

     * Index of refraction: 1.5379 @ 20 deg C/D
     * Intense mass spectral peaks: 107 m/z (100%), 109 m/z (94%), 81 m/z
       (6%), 79 m/z (6%)
     * IR: 15294 (Sadtler Research Laboratories IR Grating Collection)
     * 1H NMR: 7554 (Sadtler Research Laboratories Spectral Collection)
     * MASS: 22302 (NIST/EPA/MSDC Mass Spectral Database, 1990 version)

   from [12]HSDB

   Surface Tension
        38.75 dynes/cm= 0.03875 Newtons/m @ 20 deg C; Liquid-water
   interfacial tension: 36.54 dynes @ 20 deg C
   from [13]HSDB

   Vapor Density
        6.5 (Air= 1)
   from [14]HSDB

   Vapor Pressure
        11.2 mm Hg @ 25 deg C
   from [15]HSDB

   Viscosity
        1.727 cP @ 20 deg C
   from [16]HSDB

   Other Chemical/Physical Properties

     * REACTS AS ALKYLATING AGENT; LIBERATES BROMIDE
     * Percent in saturated air: 1.5 @ 25 deg C
     * Vapor Pressure: 1.13 kPa (8.5 mm Hg) at 20 deg C; 15.98 kPa (119.8
       mm Hg) at 75 deg C; 285.2 mm Hg at 100 deg C.
     * Heat capacity, J/(kg K): solid at 15.3 deg C, 519 (124 cal/kg K);
       liquid at 21.3 deg C, 724 (173 cal/kg K).
     * Heat of transition at -23.6 deg C, 10.34 kJ/kg (2.47 kcal/kg).
     * Dielectric constant at 20.5 deg C (0.1 MHz), 4.77.
     * Ratio of specific heats of vapor (gas): 1.109.
     * Ionization potential 9.45 eV
     * Henry's Law constant = 6.50X10-4 atm-cu m/mole @ 25 deg C
     * Hydroxyl radical reaction rate constant = 2.5X10-13 cu-cm/molc sec
       @ 25 deg C

   from [17]HSDB

   Computed Properties
   Molecular Weight                  187.86116 [g/mol]
   Molecular Formula                 C[2]H[4]Br[2]
   XLogP3                            2
   H-Bond Donor                      0
   H-Bond Acceptor                   0
   Rotatable Bond Count              1
   Exact Mass                        187.865928
   MonoIsotopic Mass                 185.867974
   Topological Polar Surface Area    0
   Heavy Atom Count                  4
   Formal Charge                     0
   Complexity                        6
   Isotope Atom Count                0
   Defined Atom Stereocenter Count   0
   Undefined Atom Stereocenter Count 0
   Defined Bond Stereocenter Count   0
   Undefined Bond Stereocenter Count 0
   Covalently-Bonded Unit Count      1
   Feature 3D Hydrophobe Count       2
   Effective Rotor Count             1
   Conformer Sampling RMSD           0.4
   CID Conformer Count               [18]3

References

   1. http://toxnet.nlm.nih.gov/cgi-bin/sis/search/r?dbs+hsdb:@term+@rn+@rel+106-93-4
   2. http://toxnet.nlm.nih.gov/cgi-bin/sis/search/r?dbs+hsdb:@term+@rn+@rel+106-93-4
   3. http://toxnet.nlm.nih.gov/cgi-bin/sis/search/r?dbs+hsdb:@term+@rn+@rel+106-93-4
   4. http://toxnet.nlm.nih.gov/cgi-bin/sis/search/r?dbs+hsdb:@term+@rn+@rel+106-93-4
   5. http://toxnet.nlm.nih.gov/cgi-bin/sis/search/r?dbs+hsdb:@term+@rn+@rel+106-93-4
   6. http://toxnet.nlm.nih.gov/cgi-bin/sis/search/r?dbs+hsdb:@term+@rn+@rel+106-93-4
   7. http://toxnet.nlm.nih.gov/cgi-bin/sis/search/r?dbs+hsdb:@term+@rn+@rel+106-93-4
   8. http://toxnet.nlm.nih.gov/cgi-bin/sis/search/r?dbs+hsdb:@term+@rn+@rel+106-93-4
   9. http://toxnet.nlm.nih.gov/cgi-bin/sis/search/r?dbs+hsdb:@term+@rn+@rel+106-93-4
  10. http://toxnet.nlm.nih.gov/cgi-bin/sis/search/r?dbs+hsdb:@term+@rn+@rel+106-93-4
  11. http://toxnet.nlm.nih.gov/cgi-bin/sis/search/r?dbs+hsdb:@term+@rn+@rel+106-93-4
  12. http://toxnet.nlm.nih.gov/cgi-bin/sis/search/r?dbs+hsdb:@term+@rn+@rel+106-93-4
  13. http://toxnet.nlm.nih.gov/cgi-bin/sis/search/r?dbs+hsdb:@term+@rn+@rel+106-93-4
  14. http://toxnet.nlm.nih.gov/cgi-bin/sis/search/r?dbs+hsdb:@term+@rn+@rel+106-93-4
  15. http://toxnet.nlm.nih.gov/cgi-bin/sis/search/r?dbs+hsdb:@term+@rn+@rel+106-93-4
  16. http://toxnet.nlm.nih.gov/cgi-bin/sis/search/r?dbs+hsdb:@term+@rn+@rel+106-93-4
  17. http://toxnet.nlm.nih.gov/cgi-bin/sis/search/r?dbs+hsdb:@term+@rn+@rel+106-93-4
  18. http://pubchem.ncbi.nlm.nih.gov/vw3d/vw3d.cgi?cid=7839
