442837
  -OEChem-07051212592D

 81 84  0     1  0  0  0  0  0999 V2000
    7.3849   -0.3551    0.0000 O   0  0  0  0  0  0  0  0  0  0  0  0
    2.5369    0.0513    0.0000 O   0  0  0  0  0  0  0  0  0  0  0  0
    8.3648   -2.0986    0.0000 O   0  0  0  0  0  0  0  0  0  0  0  0
   10.3647   -2.1217    0.0000 O   0  0  0  0  0  0  0  0  0  0  0  0
    6.0010    2.0513    0.0000 C   0  0  1  0  0  0  0  0  0  0  0  0
    6.0010    1.0513    0.0000 C   0  0  2  0  0  0  0  0  0  0  0  0
    6.8950    0.5166    0.0000 C   0  0  1  0  0  0  0  0  0  0  0  0
    5.1350    0.5513    0.0000 C   0  0  0  0  0  0  0  0  0  0  0  0
    5.1350    2.5513    0.0000 C   0  0  0  0  0  0  0  0  0  0  0  0
    4.2690    1.0513    0.0000 C   0  0  1  0  0  0  0  0  0  0  0  0
    6.8950    2.5860    0.0000 C   0  0  0  0  0  0  0  0  0  0  0  0
    4.2690    2.0513    0.0000 C   0  0  0  0  0  0  0  0  0  0  0  0
    7.8010    1.0305    0.0000 C   0  0  0  0  0  0  0  0  0  0  0  0
    7.8010    2.0721    0.0000 C   0  0  0  0  0  0  0  0  0  0  0  0
    6.0010    3.0513    0.0000 C   0  0  0  0  0  0  0  0  0  0  0  0
    3.4030    0.5513    0.0000 C   0  0  0  0  0  0  0  0  0  0  0  0
    6.3850   -0.3435    0.0000 C   0  0  0  0  0  0  0  0  0  0  0  0
    2.9030    1.4173    0.0000 C   0  0  0  0  0  0  0  0  0  0  0  0
    3.9030   -0.3147    0.0000 C   0  0  0  0  0  0  0  0  0  0  0  0
    8.3849   -0.3667    0.0000 C   0  0  0  0  0  0  0  0  0  0  0  0
    8.8748   -1.2384    0.0000 C   0  0  0  0  0  0  0  0  0  0  0  0
    8.8948    0.4935    0.0000 C   0  0  0  0  0  0  0  0  0  0  0  0
    9.8948    0.4819    0.0000 C   0  0  0  0  0  0  0  0  0  0  0  0
    9.8748   -1.2500    0.0000 C   0  0  0  0  0  0  0  0  0  0  0  0
   10.3847   -0.3898    0.0000 C   0  0  0  0  0  0  0  0  0  0  0  0
   10.4048    1.3421    0.0000 C   0  0  0  0  0  0  0  0  0  0  0  0
   11.4047    1.3306    0.0000 C   0  0  0  0  0  0  0  0  0  0  0  0
   11.3646   -2.1333    0.0000 C   0  0  0  0  0  0  0  0  0  0  0  0
   11.9147    2.1908    0.0000 C   0  0  0  0  0  0  0  0  0  0  0  0
   11.8546   -3.0051    0.0000 C   0  0  0  0  0  0  0  0  0  0  0  0
   11.8746   -1.2731    0.0000 C   0  0  0  0  0  0  0  0  0  0  0  0
   12.8545   -3.0166    0.0000 C   0  0  0  0  0  0  0  0  0  0  0  0
   12.8745   -1.2847    0.0000 C   0  0  0  0  0  0  0  0  0  0  0  0
   13.3645   -2.1564    0.0000 C   0  0  0  0  0  0  0  0  0  0  0  0
   14.3644   -2.1680    0.0000 C   0  0  0  0  0  0  0  0  0  0  0  0
   14.8544   -3.0397    0.0000 C   0  0  0  0  0  0  0  0  0  0  0  0
   15.8543   -3.0513    0.0000 C   0  0  0  0  0  0  0  0  0  0  0  0
    5.9945    0.2013    0.0000 H   0  0  0  0  0  0  0  0  0  0  0  0
    4.7365    0.0764    0.0000 H   0  0  0  0  0  0  0  0  0  0  0  0
    5.5335    0.0764    0.0000 H   0  0  0  0  0  0  0  0  0  0  0  0
    5.5335    3.0262    0.0000 H   0  0  0  0  0  0  0  0  0  0  0  0
    4.7365    3.0262    0.0000 H   0  0  0  0  0  0  0  0  0  0  0  0
    3.5329    1.4763    0.0000 H   0  0  0  0  0  0  0  0  0  0  0  0
    7.2886    3.0650    0.0000 H   0  0  0  0  0  0  0  0  0  0  0  0
    6.4904    3.0558    0.0000 H   0  0  0  0  0  0  0  0  0  0  0  0
    4.0569    2.6339    0.0000 H   0  0  0  0  0  0  0  0  0  0  0  0
    3.6584    1.9436    0.0000 H   0  0  0  0  0  0  0  0  0  0  0  0
    8.0101    0.4468    0.0000 H   0  0  0  0  0  0  0  0  0  0  0  0
    8.4119    1.1366    0.0000 H   0  0  0  0  0  0  0  0  0  0  0  0
    8.4119    1.9660    0.0000 H   0  0  0  0  0  0  0  0  0  0  0  0
    8.0101    2.6558    0.0000 H   0  0  0  0  0  0  0  0  0  0  0  0
    6.6210    3.0513    0.0000 H   0  0  0  0  0  0  0  0  0  0  0  0
    6.0010    3.6713    0.0000 H   0  0  0  0  0  0  0  0  0  0  0  0
    5.3810    3.0513    0.0000 H   0  0  0  0  0  0  0  0  0  0  0  0
    5.8517   -0.0274    0.0000 H   0  0  0  0  0  0  0  0  0  0  0  0
    6.0688   -0.8769    0.0000 H   0  0  0  0  0  0  0  0  0  0  0  0
    6.9183   -0.6597    0.0000 H   0  0  0  0  0  0  0  0  0  0  0  0
    3.4399    1.7273    0.0000 H   0  0  0  0  0  0  0  0  0  0  0  0
    2.5930    1.9543    0.0000 H   0  0  0  0  0  0  0  0  0  0  0  0
    2.3660    1.1073    0.0000 H   0  0  0  0  0  0  0  0  0  0  0  0
    3.3660   -0.6247    0.0000 H   0  0  0  0  0  0  0  0  0  0  0  0
    4.2130   -0.8517    0.0000 H   0  0  0  0  0  0  0  0  0  0  0  0
    4.4399   -0.0047    0.0000 H   0  0  0  0  0  0  0  0  0  0  0  0
    2.0000    0.3613    0.0000 H   0  0  0  0  0  0  0  0  0  0  0  0
    8.5911    1.0340    0.0000 H   0  0  0  0  0  0  0  0  0  0  0  0
   11.0047   -0.3970    0.0000 H   0  0  0  0  0  0  0  0  0  0  0  0
    8.6686   -2.6391    0.0000 H   0  0  0  0  0  0  0  0  0  0  0  0
   10.5195    1.9514    0.0000 H   0  0  0  0  0  0  0  0  0  0  0  0
    9.8246    1.5609    0.0000 H   0  0  0  0  0  0  0  0  0  0  0  0
   11.7085    0.7901    0.0000 H   0  0  0  0  0  0  0  0  0  0  0  0
   12.5346    2.1836    0.0000 H   0  0  0  0  0  0  0  0  0  0  0  0
   11.6109    2.7312    0.0000 H   0  0  0  0  0  0  0  0  0  0  0  0
   11.5384   -3.5384    0.0000 H   0  0  0  0  0  0  0  0  0  0  0  0
   11.5708   -0.7326    0.0000 H   0  0  0  0  0  0  0  0  0  0  0  0
   13.1583   -3.5571    0.0000 H   0  0  0  0  0  0  0  0  0  0  0  0
   13.1907   -0.7514    0.0000 H   0  0  0  0  0  0  0  0  0  0  0  0
   14.9495   -1.9627    0.0000 H   0  0  0  0  0  0  0  0  0  0  0  0
   14.2638   -1.5562    0.0000 H   0  0  0  0  0  0  0  0  0  0  0  0
   14.5382   -3.5730    0.0000 H   0  0  0  0  0  0  0  0  0  0  0  0
   16.1581   -3.5918    0.0000 H   0  0  0  0  0  0  0  0  0  0  0  0
   16.1705   -2.5180    0.0000 H   0  0  0  0  0  0  0  0  0  0  0  0
  7  1  1  1  0  0  0
  1 20  1  0  0  0  0
  2 16  1  0  0  0  0
  2 64  1  0  0  0  0
  3 21  1  0  0  0  0
  3 67  1  0  0  0  0
  4 24  1  0  0  0  0
  4 28  1  0  0  0  0
  5  6  1  0  0  0  0
  5  9  1  0  0  0  0
  5 11  1  0  0  0  0
  5 15  1  6  0  0  0
  6  7  1  0  0  0  0
  6  8  1  0  0  0  0
  6 38  1  1  0  0  0
  7 13  1  0  0  0  0
  7 17  1  0  0  0  0
  8 10  1  0  0  0  0
  8 39  1  0  0  0  0
  8 40  1  0  0  0  0
  9 12  1  0  0  0  0
  9 41  1  0  0  0  0
  9 42  1  0  0  0  0
 10 12  1  0  0  0  0
 10 16  1  0  0  0  0
 10 43  1  1  0  0  0
 11 14  1  0  0  0  0
 11 44  1  0  0  0  0
 11 45  1  0  0  0  0
 12 46  1  0  0  0  0
 12 47  1  0  0  0  0
 13 14  1  0  0  0  0
 13 48  1  0  0  0  0
 13 49  1  0  0  0  0
 14 50  1  0  0  0  0
 14 51  1  0  0  0  0
 15 52  1  0  0  0  0
 15 53  1  0  0  0  0
 15 54  1  0  0  0  0
 16 18  1  0  0  0  0
 16 19  1  0  0  0  0
 17 55  1  0  0  0  0
 17 56  1  0  0  0  0
 17 57  1  0  0  0  0
 18 58  1  0  0  0  0
 18 59  1  0  0  0  0
 18 60  1  0  0  0  0
 19 61  1  0  0  0  0
 19 62  1  0  0  0  0
 19 63  1  0  0  0  0
 20 21  1  0  0  0  0
 20 22  2  0  0  0  0
 21 24  2  0  0  0  0
 22 23  1  0  0  0  0
 22 65  1  0  0  0  0
 23 25  2  0  0  0  0
 23 26  1  0  0  0  0
 24 25  1  0  0  0  0
 25 66  1  0  0  0  0
 26 27  1  0  0  0  0
 26 68  1  0  0  0  0
 26 69  1  0  0  0  0
 27 29  2  0  0  0  0
 27 70  1  0  0  0  0
 28 30  2  0  0  0  0
 28 31  1  0  0  0  0
 29 71  1  0  0  0  0
 29 72  1  0  0  0  0
 30 32  1  0  0  0  0
 30 73  1  0  0  0  0
 31 33  2  0  0  0  0
 31 74  1  0  0  0  0
 32 34  2  0  0  0  0
 32 75  1  0  0  0  0
 33 34  1  0  0  0  0
 33 76  1  0  0  0  0
 34 35  1  0  0  0  0
 35 36  1  0  0  0  0
 35 77  1  0  0  0  0
 35 78  1  0  0  0  0
 36 37  2  0  0  0  0
 36 79  1  0  0  0  0
 37 80  1  0  0  0  0
 37 81  1  0  0  0  0
M  END
> <PUBCHEM_COMPOUND_CID>
442837

> <PUBCHEM_COMPOUND_CANONICALIZED>
1

> <PUBCHEM_CACTVS_COMPLEXITY>
770

> <PUBCHEM_CACTVS_HBOND_ACCEPTOR>
4

> <PUBCHEM_CACTVS_HBOND_DONOR>
2

> <PUBCHEM_CACTVS_ROTATABLE_BOND>
9

> <PUBCHEM_CACTVS_SUBSKEYS>
AAADcfB8OAAAAAAAAAAAAAAAAAAAAAAAAAAwYMGAAAAAAADBQAAAGgAACAAAD0SAmAAyBoAABgCAAiBCAAACCAAgIAAIiAAGiIgNJyKGMRqCeCOlwBULuAeA4PwPoAABCAAAQADAAAYQADCAAAAAAAAAAA==

> <PUBCHEM_IUPAC_OPENEYE_NAME>
2-[(1R,4aR,7R,8aR)-7-(1-hydroxy-1-methyl-ethyl)-1,4a-dimethyl-decalin-1-yl]oxy-4-allyl-6-(4-allylphenoxy)phenol

> <PUBCHEM_IUPAC_CAS_NAME>
2-[[(1R,4aR,7R,8aR)-7-(2-hydroxypropan-2-yl)-1,4a-dimethyl-2,3,4,5,6,7,8,8a-octahydronaphthalen-1-yl]oxy]-4-prop-2-enyl-6-(4-prop-2-enylphenoxy)phenol

> <PUBCHEM_IUPAC_NAME>
2-[[(1R,4aR,7R,8aR)-7-(2-hydroxypropan-2-yl)-1,4a-dimethyl-2,3,4,5,6,7,8,8a-octahydronaphthalen-1-yl]oxy]-4-prop-2-enyl-6-(4-prop-2-enylphenoxy)phenol

> <PUBCHEM_IUPAC_SYSTEMATIC_NAME>
2-[[(1R,4aR,7R,8aR)-1,4a-dimethyl-7-(2-oxidanylpropan-2-yl)-2,3,4,5,6,7,8,8a-octahydronaphthalen-1-yl]oxy]-4-prop-2-enyl-6-(4-prop-2-enylphenoxy)phenol

> <PUBCHEM_IUPAC_TRADITIONAL_NAME>
2-[(1R,4aR,7R,8aR)-7-(1-hydroxy-1-methyl-ethyl)-1,4a-dimethyl-decalin-1-yl]oxy-4-allyl-6-(4-allylphenoxy)phenol

> <PUBCHEM_IUPAC_INCHI>
InChI=1S/C33H44O4/c1-7-10-23-12-14-26(15-13-23)36-27-20-24(11-8-2)21-28(30(27)34)37-33(6)18-9-17-32(5)19-16-25(22-29(32)33)31(3,4)35/h7-8,12-15,20-21,25,29,34-35H,1-2,9-11,16-19,22H2,3-6H3/t25-,29-,32-,33-/m1/s1

> <PUBCHEM_IUPAC_INCHIKEY>
JKKWXFYURXPBFN-CLRSYFRZSA-N

> <PUBCHEM_XLOGP3_AA>
8.6

> <PUBCHEM_EXACT_MASS>
504.32396

> <PUBCHEM_MOLECULAR_FORMULA>
C33H44O4

> <PUBCHEM_MOLECULAR_WEIGHT>
504.70006

> <PUBCHEM_OPENEYE_CAN_SMILES>
CC12CCCC(C1CC(CC2)C(C)(C)O)(C)OC3=CC(=CC(=C3O)OC4=CC=C(C=C4)CC=C)CC=C

> <PUBCHEM_OPENEYE_ISO_SMILES>
C[C@]12CCC[C@@]([C@@H]1C[C@@H](CC2)C(C)(C)O)(C)OC3=CC(=CC(=C3O)OC4=CC=C(C=C4)CC=C)CC=C

> <PUBCHEM_CACTVS_TPSA>
58.9

> <PUBCHEM_MONOISOTOPIC_WEIGHT>
504.32396

> <PUBCHEM_TOTAL_CHARGE>
0

> <PUBCHEM_HEAVY_ATOM_COUNT>
37

> <PUBCHEM_ATOM_DEF_STEREO_COUNT>
4

> <PUBCHEM_ATOM_UDEF_STEREO_COUNT>
0

> <PUBCHEM_BOND_DEF_STEREO_COUNT>
0

> <PUBCHEM_BOND_UDEF_STEREO_COUNT>
0

> <PUBCHEM_ISOTOPIC_ATOM_COUNT>
0

> <PUBCHEM_COMPONENT_COUNT>
1

> <PUBCHEM_CACTVS_TAUTO_COUNT>
3

> <PUBCHEM_COORDINATE_TYPE>
1
5
255

> <PUBCHEM_BONDANNOTATIONS>
7  1  5
10  43  5
20  21  8
20  22  8
21  24  8
22  23  8
23  25  8
24  25  8
28  30  8
28  31  8
30  32  8
31  33  8
32  34  8
33  34  8
5  15  6
6  38  5

$$$$

