17434
  -OEChem-07051213122D

 39 38  0     0  0  0  0  0  0999 V2000
    5.4641   -0.2990    0.0000 S   0  0  0  0  0  0  0  0  0  0  0  0
    5.0981   -1.6651    0.0000 S   0  0  0  0  0  0  0  0  0  0  0  0
    4.5981   -0.7990    0.0000 P   0  0  0  0  0  0  0  0  0  0  0  0
    3.7320   -1.2990    0.0000 O   0  0  0  0  0  0  0  0  0  0  0  0
    4.0981    0.0670    0.0000 O   0  0  0  0  0  0  0  0  0  0  0  0
    9.7942   -0.7990    0.0000 O   0  0  0  0  0  0  0  0  0  0  0  0
    7.1962    0.7010    0.0000 O   0  0  0  0  0  0  0  0  0  0  0  0
    8.9282    0.7010    0.0000 O   0  0  0  0  0  0  0  0  0  0  0  0
    8.0622   -0.7990    0.0000 N   0  0  0  0  0  0  0  0  0  0  0  0
    6.3301   -0.7990    0.0000 C   0  0  0  0  0  0  0  0  0  0  0  0
    7.1962   -0.2990    0.0000 C   0  0  0  0  0  0  0  0  0  0  0  0
    2.8660   -0.7990    0.0000 C   0  0  0  0  0  0  0  0  0  0  0  0
    4.5981    0.9330    0.0000 C   0  0  0  0  0  0  0  0  0  0  0  0
    8.0622   -1.7990    0.0000 C   0  0  0  0  0  0  0  0  0  0  0  0
    8.9282   -0.2990    0.0000 C   0  0  0  0  0  0  0  0  0  0  0  0
    2.0000   -1.2990    0.0000 C   0  0  0  0  0  0  0  0  0  0  0  0
    4.0981    1.7990    0.0000 C   0  0  0  0  0  0  0  0  0  0  0  0
   10.6603   -0.2990    0.0000 C   0  0  0  0  0  0  0  0  0  0  0  0
   11.5263   -0.7990    0.0000 C   0  0  0  0  0  0  0  0  0  0  0  0
    5.9316   -1.2740    0.0000 H   0  0  0  0  0  0  0  0  0  0  0  0
    6.7287   -1.2740    0.0000 H   0  0  0  0  0  0  0  0  0  0  0  0
    5.0730    0.5345    0.0000 H   0  0  0  0  0  0  0  0  0  0  0  0
    5.0730    1.3315    0.0000 H   0  0  0  0  0  0  0  0  0  0  0  0
    3.2646   -0.3241    0.0000 H   0  0  0  0  0  0  0  0  0  0  0  0
    2.4675   -0.3241    0.0000 H   0  0  0  0  0  0  0  0  0  0  0  0
    7.4422   -1.7990    0.0000 H   0  0  0  0  0  0  0  0  0  0  0  0
    8.0622   -2.4190    0.0000 H   0  0  0  0  0  0  0  0  0  0  0  0
    8.6822   -1.7990    0.0000 H   0  0  0  0  0  0  0  0  0  0  0  0
    1.6900   -0.7621    0.0000 H   0  0  0  0  0  0  0  0  0  0  0  0
    1.4631   -1.6090    0.0000 H   0  0  0  0  0  0  0  0  0  0  0  0
    2.3100   -1.8360    0.0000 H   0  0  0  0  0  0  0  0  0  0  0  0
    4.6350    2.1090    0.0000 H   0  0  0  0  0  0  0  0  0  0  0  0
    3.7881    2.3360    0.0000 H   0  0  0  0  0  0  0  0  0  0  0  0
    3.5611    1.4890    0.0000 H   0  0  0  0  0  0  0  0  0  0  0  0
   11.0588    0.1759    0.0000 H   0  0  0  0  0  0  0  0  0  0  0  0
   10.2617    0.1759    0.0000 H   0  0  0  0  0  0  0  0  0  0  0  0
   11.2163   -1.3360    0.0000 H   0  0  0  0  0  0  0  0  0  0  0  0
   12.0632   -1.1090    0.0000 H   0  0  0  0  0  0  0  0  0  0  0  0
   11.8363   -0.2621    0.0000 H   0  0  0  0  0  0  0  0  0  0  0  0
  1  3  1  0  0  0  0
  1 10  1  0  0  0  0
  2  3  2  0  0  0  0
  3  4  1  0  0  0  0
  3  5  1  0  0  0  0
  4 12  1  0  0  0  0
  5 13  1  0  0  0  0
  6 15  1  0  0  0  0
  6 18  1  0  0  0  0
  7 11  2  0  0  0  0
  8 15  2  0  0  0  0
  9 11  1  0  0  0  0
  9 14  1  0  0  0  0
  9 15  1  0  0  0  0
 10 11  1  0  0  0  0
 10 20  1  0  0  0  0
 10 21  1  0  0  0  0
 12 16  1  0  0  0  0
 12 24  1  0  0  0  0
 12 25  1  0  0  0  0
 13 17  1  0  0  0  0
 13 22  1  0  0  0  0
 13 23  1  0  0  0  0
 14 26  1  0  0  0  0
 14 27  1  0  0  0  0
 14 28  1  0  0  0  0
 16 29  1  0  0  0  0
 16 30  1  0  0  0  0
 16 31  1  0  0  0  0
 17 32  1  0  0  0  0
 17 33  1  0  0  0  0
 17 34  1  0  0  0  0
 18 19  1  0  0  0  0
 18 35  1  0  0  0  0
 18 36  1  0  0  0  0
 19 37  1  0  0  0  0
 19 38  1  0  0  0  0
 19 39  1  0  0  0  0
M  END
> <PUBCHEM_COMPOUND_CID>
17434

> <PUBCHEM_COMPOUND_CANONICALIZED>
1

> <PUBCHEM_CACTVS_COMPLEXITY>
343

> <PUBCHEM_CACTVS_HBOND_ACCEPTOR>
7

> <PUBCHEM_CACTVS_HBOND_DONOR>
0

> <PUBCHEM_CACTVS_ROTATABLE_BOND>
9

> <PUBCHEM_CACTVS_SUBSKEYS>
AAADceByOAJgAAAAAAAAAAAAAAAAAAAAAAAAAAAAAAAAAAAAAAAAHgQAACAAAAClwAaCCAMABRAIAAEQGAAAAAAAAAAAAAAIAAAAAAAAAAAIAAAABiAAAAAAAAAAAAAAAAAAAAAAAAAAAAAAAAAAAAAAAA==

> <PUBCHEM_IUPAC_OPENEYE_NAME>
ethyl N-(2-diethoxyphosphinothioylsulfanylacetyl)-N-methyl-carbamate

> <PUBCHEM_IUPAC_CAS_NAME>
N-[2-(diethoxyphosphinothioylthio)-1-oxoethyl]-N-methylcarbamic acid ethyl ester

> <PUBCHEM_IUPAC_NAME>
ethyl N-(2-diethoxyphosphinothioylsulfanylacetyl)-N-methylcarbamate

> <PUBCHEM_IUPAC_SYSTEMATIC_NAME>
ethyl N-(2-diethoxyphosphinothioylsulfanylethanoyl)-N-methyl-carbamate

> <PUBCHEM_IUPAC_TRADITIONAL_NAME>
N-[2-(diethoxythiophosphorylthio)acetyl]-N-methyl-carbamic acid ethyl ester

> <PUBCHEM_IUPAC_INCHI>
InChI=1S/C10H20NO5PS2/c1-5-14-10(13)11(4)9(12)8-19-17(18,15-6-2)16-7-3/h5-8H2,1-4H3

> <PUBCHEM_IUPAC_INCHIKEY>
KLGMSAOQDHLCOS-UHFFFAOYSA-N

> <PUBCHEM_XLOGP3_AA>
2.4

> <PUBCHEM_EXACT_MASS>
329.052051

> <PUBCHEM_MOLECULAR_FORMULA>
C10H20NO5PS2

> <PUBCHEM_MOLECULAR_WEIGHT>
329.373262

> <PUBCHEM_OPENEYE_CAN_SMILES>
CCOC(=O)N(C)C(=O)CSP(=S)(OCC)OCC

> <PUBCHEM_OPENEYE_ISO_SMILES>
CCOC(=O)N(C)C(=O)CSP(=S)(OCC)OCC

> <PUBCHEM_CACTVS_TPSA>
123

> <PUBCHEM_MONOISOTOPIC_WEIGHT>
329.052051

> <PUBCHEM_TOTAL_CHARGE>
0

> <PUBCHEM_HEAVY_ATOM_COUNT>
19

> <PUBCHEM_ATOM_DEF_STEREO_COUNT>
0

> <PUBCHEM_ATOM_UDEF_STEREO_COUNT>
0

> <PUBCHEM_BOND_DEF_STEREO_COUNT>
0

> <PUBCHEM_BOND_UDEF_STEREO_COUNT>
0

> <PUBCHEM_ISOTOPIC_ATOM_COUNT>
0

> <PUBCHEM_COMPONENT_COUNT>
1

> <PUBCHEM_CACTVS_TAUTO_COUNT>
1

> <PUBCHEM_COORDINATE_TYPE>
1
5
255

$$$$

