76875
  -OEChem-07051213052D

 20 21  0     0  0  0  0  0  0999 V2000
    6.7619   -0.8660    0.0000 O   0  0  0  0  0  0  0  0  0  0  0  0
    6.2619    0.0000    0.0000 N   0  0  0  0  0  0  0  0  0  0  0  0
    3.7320    0.5000    0.0000 C   0  0  0  0  0  0  0  0  0  0  0  0
    3.7320   -0.5000    0.0000 C   0  0  0  0  0  0  0  0  0  0  0  0
    4.6783    0.8047    0.0000 C   0  0  0  0  0  0  0  0  0  0  0  0
    4.6783   -0.8047    0.0000 C   0  0  0  0  0  0  0  0  0  0  0  0
    5.2619    0.0000    0.0000 C   0  0  0  0  0  0  0  0  0  0  0  0
    2.8660    1.0000    0.0000 C   0  0  0  0  0  0  0  0  0  0  0  0
    2.8660   -1.0000    0.0000 C   0  0  0  0  0  0  0  0  0  0  0  0
    2.0000   -0.5000    0.0000 C   0  0  0  0  0  0  0  0  0  0  0  0
    2.0000    0.5000    0.0000 C   0  0  0  0  0  0  0  0  0  0  0  0
    5.2156    1.1140    0.0000 H   0  0  0  0  0  0  0  0  0  0  0  0
    4.4272    1.3716    0.0000 H   0  0  0  0  0  0  0  0  0  0  0  0
    4.4272   -1.3716    0.0000 H   0  0  0  0  0  0  0  0  0  0  0  0
    5.2156   -1.1140    0.0000 H   0  0  0  0  0  0  0  0  0  0  0  0
    2.8660    1.6200    0.0000 H   0  0  0  0  0  0  0  0  0  0  0  0
    2.8660   -1.6200    0.0000 H   0  0  0  0  0  0  0  0  0  0  0  0
    1.4631    0.8100    0.0000 H   0  0  0  0  0  0  0  0  0  0  0  0
    1.4631   -0.8100    0.0000 H   0  0  0  0  0  0  0  0  0  0  0  0
    7.3819   -0.8660    0.0000 H   0  0  0  0  0  0  0  0  0  0  0  0
  1  2  1  0  0  0  0
  1 20  1  0  0  0  0
  2  7  2  0  0  0  0
  3  4  1  0  0  0  0
  3  5  1  0  0  0  0
  3  8  2  0  0  0  0
  4  6  1  0  0  0  0
  4  9  2  0  0  0  0
  5  7  1  0  0  0  0
  5 12  1  0  0  0  0
  5 13  1  0  0  0  0
  6  7  1  0  0  0  0
  6 14  1  0  0  0  0
  6 15  1  0  0  0  0
  8 11  1  0  0  0  0
  8 16  1  0  0  0  0
  9 10  1  0  0  0  0
  9 17  1  0  0  0  0
 10 11  2  0  0  0  0
 10 19  1  0  0  0  0
 11 18  1  0  0  0  0
M  END
> <PUBCHEM_COMPOUND_CID>
76875

> <PUBCHEM_COMPOUND_CANONICALIZED>
1

> <PUBCHEM_CACTVS_COMPLEXITY>
160

> <PUBCHEM_CACTVS_HBOND_ACCEPTOR>
2

> <PUBCHEM_CACTVS_HBOND_DONOR>
1

> <PUBCHEM_CACTVS_ROTATABLE_BOND>
0

> <PUBCHEM_CACTVS_SUBSKEYS>
AAADccByIAAAAAAAAAAAAAAAAAAAAYAAAAAwAAAAAAAAAGABAAAAHAAECAAADAiBGAAwAIAQAACgAyBiAAACAAAgAAAIiAAwAIgIICKAERCAIAAggAAIiAcAgIAOgAAAAAAQAAAAAAAAACAAAAAACAAAAA==

> <PUBCHEM_IUPAC_OPENEYE_NAME>
indan-2-one oxime

> <PUBCHEM_IUPAC_CAS_NAME>
1,3-dihydroinden-2-one oxime

> <PUBCHEM_IUPAC_NAME>
N-(1,3-dihydroinden-2-ylidene)hydroxylamine

> <PUBCHEM_IUPAC_SYSTEMATIC_NAME>
N-(1,3-dihydroinden-2-ylidene)hydroxylamine

> <PUBCHEM_IUPAC_TRADITIONAL_NAME>
indan-2-one oxime

> <PUBCHEM_IUPAC_INCHI>
InChI=1S/C9H9NO/c11-10-9-5-7-3-1-2-4-8(7)6-9/h1-4,11H,5-6H2

> <PUBCHEM_IUPAC_INCHIKEY>
UJLFLOAXKVGYIA-UHFFFAOYSA-N

> <PUBCHEM_XLOGP3_AA>
1.6

> <PUBCHEM_EXACT_MASS>
147.068414

> <PUBCHEM_MOLECULAR_FORMULA>
C9H9NO

> <PUBCHEM_MOLECULAR_WEIGHT>
147.17386

> <PUBCHEM_OPENEYE_CAN_SMILES>
C1C(=NO)CC2=CC=CC=C21

> <PUBCHEM_OPENEYE_ISO_SMILES>
C1C(=NO)CC2=CC=CC=C21

> <PUBCHEM_CACTVS_TPSA>
32.6

> <PUBCHEM_MONOISOTOPIC_WEIGHT>
147.068414

> <PUBCHEM_TOTAL_CHARGE>
0

> <PUBCHEM_HEAVY_ATOM_COUNT>
11

> <PUBCHEM_ATOM_DEF_STEREO_COUNT>
0

> <PUBCHEM_ATOM_UDEF_STEREO_COUNT>
0

> <PUBCHEM_BOND_DEF_STEREO_COUNT>
0

> <PUBCHEM_BOND_UDEF_STEREO_COUNT>
0

> <PUBCHEM_ISOTOPIC_ATOM_COUNT>
0

> <PUBCHEM_COMPONENT_COUNT>
1

> <PUBCHEM_CACTVS_TAUTO_COUNT>
3

> <PUBCHEM_COORDINATE_TYPE>
1
5
255

> <PUBCHEM_BONDANNOTATIONS>
10  11  8
3  4  8
3  8  8
4  9  8
8  11  8
9  10  8

$$$$

