46173718
  -OEChem-07051212462D

 52 55  0     1  0  0  0  0  0999 V2000
    6.0049    3.5692    0.0000 O   0  0  0  0  0  0  0  0  0  0  0  0
    6.8283   -0.9947    0.0000 O   0  0  0  0  0  0  0  0  0  0  0  0
    2.0000    0.4674    0.0000 O   0  0  0  0  0  0  0  0  0  0  0  0
    5.6292   -2.2445    0.0000 O   0  0  0  0  0  0  0  0  0  0  0  0
    2.7461   -3.1320    0.0000 O   0  0  0  0  0  0  0  0  0  0  0  0
    4.4778   -3.1623    0.0000 O   0  0  0  0  0  0  0  0  0  0  0  0
    5.2824    0.4036    0.0000 C   0  0  1  0  0  0  0  0  0  0  0  0
    4.3814    0.8375    0.0000 C   0  0  2  0  0  0  0  0  0  0  0  0
    3.6963    0.1172    0.0000 C   0  0  1  0  0  0  0  0  0  0  0  0
    4.1681   -0.7578    0.0000 C   0  0  3  0  0  0  0  0  0  0  0  0
    5.1464   -0.5811    0.0000 C   0  0  2  0  0  0  0  0  0  0  0  0
    5.1755    1.5804    0.0000 C   0  0  0  0  0  0  0  0  0  0  0  0
    5.7824    2.5942    0.0000 C   0  0  2  0  0  0  0  0  0  0  0  0
    6.1833    0.8375    0.0000 C   0  0  0  0  0  0  0  0  0  0  0  0
    4.1589    1.8124    0.0000 C   0  0  0  0  0  0  0  0  0  0  0  0
    3.6382   -1.6474    0.0000 C   0  0  2  0  0  0  0  0  0  0  0  0
    2.6618    0.1632    0.0000 C   0  0  0  0  0  0  0  0  0  0  0  0
    4.7824    2.5942    0.0000 C   0  0  0  0  0  0  0  0  0  0  0  0
    6.4058    1.8124    0.0000 C   0  0  0  0  0  0  0  0  0  0  0  0
    2.6030   -1.6253    0.0000 C   0  0  0  0  0  0  0  0  0  0  0  0
    2.1115   -0.7139    0.0000 C   0  0  0  0  0  0  0  0  0  0  0  0
    2.9492    0.7820    0.0000 C   0  0  0  0  0  0  0  0  0  0  0  0
    5.8680   -1.2734    0.0000 C   0  0  0  0  0  0  0  0  0  0  0  0
    4.4953   -2.1625    0.0000 C   0  0  0  0  0  0  0  0  0  0  0  0
    3.6207   -2.6472    0.0000 C   0  0  0  0  0  0  0  0  0  0  0  0
    7.3808    2.0349    0.0000 C   0  0  0  0  0  0  0  0  0  0  0  0
    3.6156    1.2063    0.0000 H   0  0  0  0  0  0  0  0  0  0  0  0
    4.5213   -1.2674    0.0000 H   0  0  0  0  0  0  0  0  0  0  0  0
    4.9673   -1.1747    0.0000 H   0  0  0  0  0  0  0  0  0  0  0  0
    4.7677    2.0474    0.0000 H   0  0  0  0  0  0  0  0  0  0  0  0
    4.6055    1.3365    0.0000 H   0  0  0  0  0  0  0  0  0  0  0  0
    6.3213    0.2330    0.0000 H   0  0  0  0  0  0  0  0  0  0  0  0
    6.8033    0.8375    0.0000 H   0  0  0  0  0  0  0  0  0  0  0  0
    3.7723    2.2971    0.0000 H   0  0  0  0  0  0  0  0  0  0  0  0
    3.6003    1.5434    0.0000 H   0  0  0  0  0  0  0  0  0  0  0  0
    2.7950    0.7688    0.0000 H   0  0  0  0  0  0  0  0  0  0  0  0
    2.0880    0.3980    0.0000 H   0  0  0  0  0  0  0  0  0  0  0  0
    4.9203    3.1987    0.0000 H   0  0  0  0  0  0  0  0  0  0  0  0
    4.2238    2.8632    0.0000 H   0  0  0  0  0  0  0  0  0  0  0  0
    2.0149   -1.8218    0.0000 H   0  0  0  0  0  0  0  0  0  0  0  0
    2.6960   -2.2383    0.0000 H   0  0  0  0  0  0  0  0  0  0  0  0
    1.6504   -0.2994    0.0000 H   0  0  0  0  0  0  0  0  0  0  0  0
    1.6242   -1.0972    0.0000 H   0  0  0  0  0  0  0  0  0  0  0  0
    3.0746    1.3892    0.0000 H   0  0  0  0  0  0  0  0  0  0  0  0
    4.1760   -2.6939    0.0000 H   0  0  0  0  0  0  0  0  0  0  0  0
    5.0268   -2.4818    0.0000 H   0  0  0  0  0  0  0  0  0  0  0  0
    4.8147   -1.6310    0.0000 H   0  0  0  0  0  0  0  0  0  0  0  0
    6.5973    3.7519    0.0000 H   0  0  0  0  0  0  0  0  0  0  0  0
    7.8025    1.5804    0.0000 H   0  0  0  0  0  0  0  0  0  0  0  0
    7.5635    2.6274    0.0000 H   0  0  0  0  0  0  0  0  0  0  0  0
    7.2757   -1.4239    0.0000 H   0  0  0  0  0  0  0  0  0  0  0  0
    2.7352   -3.7519    0.0000 H   0  0  0  0  0  0  0  0  0  0  0  0
 13  1  1  6  0  0  0
  1 48  1  0  0  0  0
  2 23  1  0  0  0  0
  2 51  1  0  0  0  0
  3 22  2  0  0  0  0
  4 23  2  0  0  0  0
  5 25  1  0  0  0  0
  5 52  1  0  0  0  0
  6 25  2  0  0  0  0
  7  8  1  0  0  0  0
  7 11  1  0  0  0  0
  7 12  1  6  0  0  0
  7 14  1  0  0  0  0
  8  9  1  0  0  0  0
  8 15  1  0  0  0  0
  8 27  1  1  0  0  0
  9 10  1  0  0  0  0
  9 17  1  0  0  0  0
  9 22  1  6  0  0  0
 10 11  1  0  0  0  0
 10 16  1  0  0  0  0
 10 28  1  0  0  0  0
 11 23  1  0  0  0  0
 11 29  1  0  0  0  0
 12 13  1  0  0  0  0
 12 30  1  0  0  0  0
 12 31  1  0  0  0  0
 13 18  1  0  0  0  0
 13 19  1  0  0  0  0
 14 19  1  0  0  0  0
 14 32  1  0  0  0  0
 14 33  1  0  0  0  0
 15 18  1  0  0  0  0
 15 34  1  0  0  0  0
 15 35  1  0  0  0  0
 16 20  1  0  0  0  0
 16 24  1  1  0  0  0
 16 25  1  0  0  0  0
 17 21  1  0  0  0  0
 17 36  1  0  0  0  0
 17 37  1  0  0  0  0
 18 38  1  0  0  0  0
 18 39  1  0  0  0  0
 19 26  2  0  0  0  0
 20 21  1  0  0  0  0
 20 40  1  0  0  0  0
 20 41  1  0  0  0  0
 21 42  1  0  0  0  0
 21 43  1  0  0  0  0
 22 44  1  0  0  0  0
 24 45  1  0  0  0  0
 24 46  1  0  0  0  0
 24 47  1  0  0  0  0
 26 49  1  0  0  0  0
 26 50  1  0  0  0  0
M  END
> <PUBCHEM_COMPOUND_CID>
46173718

> <PUBCHEM_COMPOUND_CANONICALIZED>
1

> <PUBCHEM_CACTVS_COMPLEXITY>
730

> <PUBCHEM_CACTVS_HBOND_ACCEPTOR>
6

> <PUBCHEM_CACTVS_HBOND_DONOR>
3

> <PUBCHEM_CACTVS_ROTATABLE_BOND>
3

> <PUBCHEM_CACTVS_SUBSKEYS>
AAADceB4OAAAAAAAAAAAAAAAAAAAAYMAAAAwYAAABgAAAGDAAAAAGgAACAAAD0SggAICCAAAAgCIAgjSiAAAAAAgAAAAAAEAAAgABBIAAQAAQAAEgAAAEAGI7vTPgAAAAAAAAADAAAYAACAAAYAACAAAAA==

> <PUBCHEM_IUPAC_INCHI>
InChI=1S/C20H26O6/c1-11-8-19-9-20(11,26)7-4-12(19)18(10-21)6-3-5-17(2,16(24)25)14(18)13(19)15(22)23/h10,12-14,26H,1,3-9H2,2H3,(H,22,23)(H,24,25)/t12-,13+,14?,17+,18+,19-,20-/m0/s1

> <PUBCHEM_IUPAC_INCHIKEY>
VNCQCPQAMDQEBY-YCXUMCKNSA-N

> <PUBCHEM_XLOGP3_AA>
0.7

> <PUBCHEM_EXACT_MASS>
362.172939

> <PUBCHEM_MOLECULAR_FORMULA>
C20H26O6

> <PUBCHEM_MOLECULAR_WEIGHT>
362.41684

> <PUBCHEM_OPENEYE_CAN_SMILES>
CC1(CCCC2(C1C(C34C2CCC(C3)(C(=C)C4)O)C(=O)O)C=O)C(=O)O

> <PUBCHEM_OPENEYE_ISO_SMILES>
C[C@]1(CCC[C@@]2(C1[C@@H]([C@]34[C@H]2CC[C@](C3)(C(=C)C4)O)C(=O)O)C=O)C(=O)O

> <PUBCHEM_CACTVS_TPSA>
112

> <PUBCHEM_MONOISOTOPIC_WEIGHT>
362.172939

> <PUBCHEM_TOTAL_CHARGE>
0

> <PUBCHEM_HEAVY_ATOM_COUNT>
26

> <PUBCHEM_ATOM_DEF_STEREO_COUNT>
6

> <PUBCHEM_ATOM_UDEF_STEREO_COUNT>
1

> <PUBCHEM_BOND_DEF_STEREO_COUNT>
0

> <PUBCHEM_BOND_UDEF_STEREO_COUNT>
0

> <PUBCHEM_ISOTOPIC_ATOM_COUNT>
0

> <PUBCHEM_COMPONENT_COUNT>
1

> <PUBCHEM_CACTVS_TAUTO_COUNT>
1

> <PUBCHEM_COORDINATE_TYPE>
1
5
255

> <PUBCHEM_BONDANNOTATIONS>
13  1  6
10  11  3
16  24  5
7  12  6
8  27  5
9  22  6

$$$$

