   Color/Form
        Colorless liquid
   from [1]HSDB

   Odor
        Odorless
   from [2]HSDB

   Boiling Point
        278-280 deg C
   from [3]HSDB

   Melting Point
        -20 deg C
   from [4]HSDB

   Density/Specific Gravity
        0.9534 g/cu cm @ 19 deg C
   from [5]HSDB

   Solubilities
        Sol in most org solvents; insol in water
   from [6]HSDB

   Spectral Properties

     * Index of refraction: 1.4301 @ 20 deg C
     * IR: 1122 (Coblentz Society Spectral Collection)
     * MASS: 1785 (Atlas of Mass Spectral Data, John Wiley & Sons, New
       York)
     * Intense mass spectral peaks: 111 m/z, 129 m/z, 185 m/z, 258 m/z

   from [7]HSDB

   Other Chemical/Physical Properties

     * Wt/gal 7.95 lb
     * Acidity (as adipic acid) less than 0.05%
     * BP: 186-8 deg C @ 15 mm Hg

   from [8]HSDB

   Computed Properties
   Molecular Weight                  258.35384 [g/mol]
   Molecular Formula                 C[14]H[26]O[4]
   XLogP3-AA                         3.2
   H-Bond Donor                      0
   H-Bond Acceptor                   4
   Rotatable Bond Count              11
   Exact Mass                        258.183109
   MonoIsotopic Mass                 258.183109
   Topological Polar Surface Area    52.6
   Heavy Atom Count                  18
   Formal Charge                     0
   Complexity                        220
   Isotope Atom Count                0
   Defined Atom Stereocenter Count   0
   Undefined Atom Stereocenter Count 0
   Defined Bond Stereocenter Count   0
   Undefined Bond Stereocenter Count 0
   Covalently-Bonded Unit Count      1
   Feature 3D Acceptor Count         2
   Feature 3D Hydrophobe Count       3
   Effective Rotor Count             11
   Conformer Sampling RMSD           1.2
   CID Conformer Count               [9]40

References

   1. http://toxnet.nlm.nih.gov/cgi-bin/sis/search/r?dbs+hsdb:@term+@rn+@rel+141-04-8
   2. http://toxnet.nlm.nih.gov/cgi-bin/sis/search/r?dbs+hsdb:@term+@rn+@rel+141-04-8
   3. http://toxnet.nlm.nih.gov/cgi-bin/sis/search/r?dbs+hsdb:@term+@rn+@rel+141-04-8
   4. http://toxnet.nlm.nih.gov/cgi-bin/sis/search/r?dbs+hsdb:@term+@rn+@rel+141-04-8
   5. http://toxnet.nlm.nih.gov/cgi-bin/sis/search/r?dbs+hsdb:@term+@rn+@rel+141-04-8
   6. http://toxnet.nlm.nih.gov/cgi-bin/sis/search/r?dbs+hsdb:@term+@rn+@rel+141-04-8
   7. http://toxnet.nlm.nih.gov/cgi-bin/sis/search/r?dbs+hsdb:@term+@rn+@rel+141-04-8
   8. http://toxnet.nlm.nih.gov/cgi-bin/sis/search/r?dbs+hsdb:@term+@rn+@rel+141-04-8
   9. http://pubchem.ncbi.nlm.nih.gov/vw3d/vw3d.cgi?cid=8831
