14141
  -OEChem-06241222422D

 30 31  0     0  0  0  0  0  0999 V2000
    3.7891    2.4139    0.0000 O   0  0  0  0  0  0  0  0  0  0  0  0
    5.4641    0.3261    0.0000 O   0  0  0  0  0  0  0  0  0  0  0  0
    3.7320   -0.6739    0.0000 N   0  0  0  0  0  0  0  0  0  0  0  0
    3.7320    0.3261    0.0000 N   0  0  0  0  0  0  0  0  0  0  0  0
    4.0981    3.3649    0.0000 N   0  0  0  0  0  0  0  0  0  0  0  0
    2.8660   -1.1739    0.0000 C   0  0  0  0  0  0  0  0  0  0  0  0
    2.8660   -2.1739    0.0000 C   0  0  0  0  0  0  0  0  0  0  0  0
    2.0000   -2.6739    0.0000 C   0  0  0  0  0  0  0  0  0  0  0  0
    3.7320   -2.6739    0.0000 C   0  0  0  0  0  0  0  0  0  0  0  0
    4.5981    1.8261    0.0000 C   0  0  0  0  0  0  0  0  0  0  0  0
    4.5981    0.8261    0.0000 C   0  0  0  0  0  0  0  0  0  0  0  0
    2.0000   -3.6739    0.0000 C   0  0  0  0  0  0  0  0  0  0  0  0
    3.7320   -3.6739    0.0000 C   0  0  0  0  0  0  0  0  0  0  0  0
    5.4071    2.4139    0.0000 C   0  0  0  0  0  0  0  0  0  0  0  0
    5.0981    3.3649    0.0000 C   0  0  0  0  0  0  0  0  0  0  0  0
    2.8660   -4.1739    0.0000 C   0  0  0  0  0  0  0  0  0  0  0  0
    5.6859    4.1739    0.0000 C   0  0  0  0  0  0  0  0  0  0  0  0
    2.6540   -0.5913    0.0000 H   0  0  0  0  0  0  0  0  0  0  0  0
    2.2554   -1.2816    0.0000 H   0  0  0  0  0  0  0  0  0  0  0  0
    4.2690   -0.9839    0.0000 H   0  0  0  0  0  0  0  0  0  0  0  0
    1.4631   -2.3639    0.0000 H   0  0  0  0  0  0  0  0  0  0  0  0
    4.2690   -2.3639    0.0000 H   0  0  0  0  0  0  0  0  0  0  0  0
    3.1951    0.6361    0.0000 H   0  0  0  0  0  0  0  0  0  0  0  0
    5.9967    2.2223    0.0000 H   0  0  0  0  0  0  0  0  0  0  0  0
    1.4631   -3.9839    0.0000 H   0  0  0  0  0  0  0  0  0  0  0  0
    4.2690   -3.9839    0.0000 H   0  0  0  0  0  0  0  0  0  0  0  0
    2.8660   -4.7939    0.0000 H   0  0  0  0  0  0  0  0  0  0  0  0
    6.1874    3.8095    0.0000 H   0  0  0  0  0  0  0  0  0  0  0  0
    6.0503    4.6755    0.0000 H   0  0  0  0  0  0  0  0  0  0  0  0
    5.1843    4.5384    0.0000 H   0  0  0  0  0  0  0  0  0  0  0  0
  1  5  1  0  0  0  0
  1 10  1  0  0  0  0
  2 11  2  0  0  0  0
  3  4  1  0  0  0  0
  3  6  1  0  0  0  0
  3 20  1  0  0  0  0
  4 11  1  0  0  0  0
  4 23  1  0  0  0  0
  5 15  2  0  0  0  0
  6  7  1  0  0  0  0
  6 18  1  0  0  0  0
  6 19  1  0  0  0  0
  7  8  2  0  0  0  0
  7  9  1  0  0  0  0
  8 12  1  0  0  0  0
  8 21  1  0  0  0  0
  9 13  2  0  0  0  0
  9 22  1  0  0  0  0
 10 11  1  0  0  0  0
 10 14  2  0  0  0  0
 12 16  2  0  0  0  0
 12 25  1  0  0  0  0
 13 16  1  0  0  0  0
 13 26  1  0  0  0  0
 14 15  1  0  0  0  0
 14 24  1  0  0  0  0
 15 17  1  0  0  0  0
 16 27  1  0  0  0  0
 17 28  1  0  0  0  0
 17 29  1  0  0  0  0
 17 30  1  0  0  0  0
M  END
> <PUBCHEM_COMPOUND_CID>
14141

> <PUBCHEM_COMPOUND_CANONICALIZED>
1

> <PUBCHEM_CACTVS_COMPLEXITY>
254

> <PUBCHEM_CACTVS_HBOND_ACCEPTOR>
4

> <PUBCHEM_CACTVS_HBOND_DONOR>
2

> <PUBCHEM_CACTVS_ROTATABLE_BOND>
4

> <PUBCHEM_CACTVS_SUBSKEYS>
AAADccBzMAAAAAAAAAAAAAAAAAAAAWAAAAAwAAAAAAAAAAABwAAAHgAcAAAADAzBngQyhJByAACpA6VyUgKCAAAkIgI6uKH2bNoKJjqAlZOAMYBmgBgIycccgAAOAAAAAAAAAAAAAAAAAAAAAAAAAAAAAA==

> <PUBCHEM_IUPAC_OPENEYE_NAME>
N'-benzyl-3-methyl-isoxazole-5-carbohydrazide

> <PUBCHEM_IUPAC_CAS_NAME>
3-methyl-N'-(phenylmethyl)-5-isoxazolecarbohydrazide

> <PUBCHEM_IUPAC_NAME>
N'-benzyl-3-methyl-1,2-oxazole-5-carbohydrazide

> <PUBCHEM_IUPAC_SYSTEMATIC_NAME>
3-methyl-N'-(phenylmethyl)-1,2-oxazole-5-carbohydrazide

> <PUBCHEM_IUPAC_TRADITIONAL_NAME>
N'-benzyl-3-methyl-isoxazole-5-carbohydrazide

> <PUBCHEM_IUPAC_INCHI>
InChI=1S/C12H13N3O2/c1-9-7-11(17-15-9)12(16)14-13-8-10-5-3-2-4-6-10/h2-7,13H,8H2,1H3,(H,14,16)

> <PUBCHEM_IUPAC_INCHIKEY>
SZOGVNNFYRYSLY-UHFFFAOYSA-N

> <PUBCHEM_XLOGP3_AA>
1.6

> <PUBCHEM_EXACT_MASS>
231.100777

> <PUBCHEM_MOLECULAR_FORMULA>
C12H13N3O2

> <PUBCHEM_MOLECULAR_WEIGHT>
231.25052

> <PUBCHEM_OPENEYE_CAN_SMILES>
CC1=NOC(=C1)C(=O)NNCC2=CC=CC=C2

> <PUBCHEM_OPENEYE_ISO_SMILES>
CC1=NOC(=C1)C(=O)NNCC2=CC=CC=C2

> <PUBCHEM_CACTVS_TPSA>
67.2

> <PUBCHEM_MONOISOTOPIC_WEIGHT>
231.100777

> <PUBCHEM_TOTAL_CHARGE>
0

> <PUBCHEM_HEAVY_ATOM_COUNT>
17

> <PUBCHEM_ATOM_DEF_STEREO_COUNT>
0

> <PUBCHEM_ATOM_UDEF_STEREO_COUNT>
0

> <PUBCHEM_BOND_DEF_STEREO_COUNT>
0

> <PUBCHEM_BOND_UDEF_STEREO_COUNT>
0

> <PUBCHEM_ISOTOPIC_ATOM_COUNT>
0

> <PUBCHEM_COMPONENT_COUNT>
1

> <PUBCHEM_CACTVS_TAUTO_COUNT>
10

> <PUBCHEM_COORDINATE_TYPE>
1
5
255

> <PUBCHEM_BONDANNOTATIONS>
1  10  8
1  5  8
10  14  8
12  16  8
13  16  8
14  15  8
5  15  8
7  8  8
7  9  8
8  12  8
9  13  8

$$$$

