   Color/Form

     * Unstable orthorhombic crystals or clear syrupy liquid
     * Colorless, sparkling liquid or transparent, crystalline solid,
       depending on concentration and temperature. At 20 deg C the 50% and
       75% strengths are mobile liquids, the 85% is of syrupy consistency;
       the 100% acid is in the form of crystals.

   from [1]HSDB

   Odor
        Odorless
   from [2]HSDB

   Taste
        Pleasing acid taste when suitably diluted
   from [3]HSDB

   Boiling Point
        At 213 deg C losing 1/2 water
   from [4]HSDB

   Melting Point
        42.35 deg C
   from [5]HSDB

   Corrosivity
        Corrosive to ferrous metals & alloys
   from [6]HSDB

   Density/Specific Gravity
        1.834 at 18 deg C
   from [7]HSDB

   Dissociation Constants
        Tribasic acid: pK1: 2.15; pK2: 7.09; pK3: 12.32
   from [8]HSDB

   pH
        1.5 (0.1 N aq soln)
   from [9]HSDB

   Solubilities

     * Sol in alcohol; sol in 8 vol of 3:1 ether:alcohol mixt
     * VERY SOL IN HOT WATER; 548 G SOL IN 100 CC COLD WATER

   from [10]HSDB

   Spectral Properties
        Index of refraction: 1.34203 @ 17.5 deg C/D, 10% soln; 1.35032 @
   17.5 deg C/D, 20% soln; 1.35846 @ 17.5 deg C/D, 30% soln
   from [11]HSDB

   Vapor Density
        3.4 (air= 1 at the boiling point of phosphoric acid)
   from [12]HSDB

   Vapor Pressure
        0.0285 torr @ 20 DEG C
   from [13]HSDB

   Viscosity
        3.86 mPa.s (40% solution at 20 deg C).
   from [14]HSDB

   Other Chemical/Physical Properties

     * PH: 2.0-2.2 /DETERMINED IN 1% SOLN AND IN 10-50% SLURRIES OF INSOL
       COMPOUNDS/
     * IT FORMS 3 SERIES OF SALTS: PRIMARY PHOSPHATES; DIBASIC PHOSPHATES;
       AND TRIBASIC PHOSPHATES.
     * Easily supercooled into a glass; Heat of formation (crystalline):
       -306.2 Kcal/mol; Heat of soln: +2.79 Kcal/mol.
     * Acid containing about 88% orthophosphoric acid will frequently
       crystallize on prolonged cooling, forms hemihydrate; becomes anhyd
       @ 150 deg C, gradually changes to pyrophosphoric acid @ about 200
       deg C; above 300 deg C, metaphosphoric acid; hot concn acid attacks
       porcelain & granite ware.
     * DELIQUESCENT
     * Melting point: 75% -17.5 deg C; 80% 4.6 deg C; 85% 21 deg C.
     * Density at 25 deg C: 75% 1.574; 80% 1.628; 85% 1.685.
     * Hygroscopic; Latent heat of fusion = 10.5 kJ/mol at the melting
       point; Heat capacity at constant pressure = 106.2 J/mole (25 deg
       C).
     * /Bulk density =/ 15.6 lb/gal. /Phosphoric acid, liquid or solution/
     * Phosphoric acid is a chelating agent.
     * Density @ 25 deg C: 1.8741 (100% soln); 1.6850 (85% soln); 1.3334
       (50% soln); 1.0523 (10% soln) /Phosphoric acid solutions/

   from [15]HSDB

   Computed Properties
   Molecular Weight                  97.995182 [g/mol]
   Molecular Formula                 H[3]O[4]P
   XLogP3-AA                         -2.1
   H-Bond Donor                      3
   H-Bond Acceptor                   4
   Rotatable Bond Count              0
   Exact Mass                        97.976895
   MonoIsotopic Mass                 97.976895
   Topological Polar Surface Area    77.8
   Heavy Atom Count                  5
   Formal Charge                     0
   Complexity                        49.8
   Isotope Atom Count                0
   Defined Atom Stereocenter Count   0
   Undefined Atom Stereocenter Count 0
   Defined Bond Stereocenter Count   0
   Undefined Bond Stereocenter Count 0
   Covalently-Bonded Unit Count      1
   Feature 3D Acceptor Count         4
   Feature 3D Anion Count            1
   Effective Rotor Count             0
   Conformer Sampling RMSD           0.4
   CID Conformer Count               [16]1

References

   1. http://toxnet.nlm.nih.gov/cgi-bin/sis/search/r?dbs+hsdb:@term+@rn+@rel+7664-38-2
   2. http://toxnet.nlm.nih.gov/cgi-bin/sis/search/r?dbs+hsdb:@term+@rn+@rel+7664-38-2
   3. http://toxnet.nlm.nih.gov/cgi-bin/sis/search/r?dbs+hsdb:@term+@rn+@rel+7664-38-2
   4. http://toxnet.nlm.nih.gov/cgi-bin/sis/search/r?dbs+hsdb:@term+@rn+@rel+7664-38-2
   5. http://toxnet.nlm.nih.gov/cgi-bin/sis/search/r?dbs+hsdb:@term+@rn+@rel+7664-38-2
   6. http://toxnet.nlm.nih.gov/cgi-bin/sis/search/r?dbs+hsdb:@term+@rn+@rel+7664-38-2
   7. http://toxnet.nlm.nih.gov/cgi-bin/sis/search/r?dbs+hsdb:@term+@rn+@rel+7664-38-2
   8. http://toxnet.nlm.nih.gov/cgi-bin/sis/search/r?dbs+hsdb:@term+@rn+@rel+7664-38-2
   9. http://toxnet.nlm.nih.gov/cgi-bin/sis/search/r?dbs+hsdb:@term+@rn+@rel+7664-38-2
  10. http://toxnet.nlm.nih.gov/cgi-bin/sis/search/r?dbs+hsdb:@term+@rn+@rel+7664-38-2
  11. http://toxnet.nlm.nih.gov/cgi-bin/sis/search/r?dbs+hsdb:@term+@rn+@rel+7664-38-2
  12. http://toxnet.nlm.nih.gov/cgi-bin/sis/search/r?dbs+hsdb:@term+@rn+@rel+7664-38-2
  13. http://toxnet.nlm.nih.gov/cgi-bin/sis/search/r?dbs+hsdb:@term+@rn+@rel+7664-38-2
  14. http://toxnet.nlm.nih.gov/cgi-bin/sis/search/r?dbs+hsdb:@term+@rn+@rel+7664-38-2
  15. http://toxnet.nlm.nih.gov/cgi-bin/sis/search/r?dbs+hsdb:@term+@rn+@rel+7664-38-2
  16. http://pubchem.ncbi.nlm.nih.gov/vw3d/vw3d.cgi?cid=1004
