3036914
  -OEChem-07051213062D

 29 29  0     1  0  0  0  0  0999 V2000
    2.0000    2.4720    0.0000 Cl  0  0  0  0  0  0  0  0  0  0  0  0
    3.3660    2.8380    0.0000 Cl  0  0  0  0  0  0  0  0  0  0  0  0
    2.3660    1.1060    0.0000 Cl  0  0  0  0  0  0  0  0  0  0  0  0
    5.4641    0.4720    0.0000 O   0  0  0  0  0  0  0  0  0  0  0  0
    3.7320    0.4720    0.0000 O   0  0  0  0  0  0  0  0  0  0  0  0
    5.4641   -2.5280    0.0000 O   0  0  0  0  0  0  0  0  0  0  0  0
    3.7320   -1.5280    0.0000 O   0  0  0  0  0  0  0  0  0  0  0  0
    7.1962   -1.5280    0.0000 O   0  0  0  0  0  0  0  0  0  0  0  0
    7.1962    1.4720    0.0000 O   0  0  0  0  0  0  0  0  0  0  0  0
    8.0622   -0.0280    0.0000 O   0  0  0  0  0  0  0  0  0  0  0  0
    5.4641   -1.5280    0.0000 C   0  0  2  0  0  0  0  0  0  0  0  0
    4.5981   -1.0280    0.0000 C   0  0  2  0  0  0  0  0  0  0  0  0
    6.3301   -1.0280    0.0000 C   0  0  1  0  0  0  0  0  0  0  0  0
    4.5981   -0.0280    0.0000 C   0  0  1  0  0  0  0  0  0  0  0  0
    6.3301   -0.0280    0.0000 C   0  0  1  0  0  0  0  0  0  0  0  0
    7.1962    0.4720    0.0000 C   0  0  0  0  0  0  0  0  0  0  0  0
    3.7320    1.4720    0.0000 C   0  0  0  0  0  0  0  0  0  0  0  0
    2.8660    1.9720    0.0000 C   0  0  0  0  0  0  0  0  0  0  0  0
    6.0010   -1.8380    0.0000 H   0  0  0  0  0  0  0  0  0  0  0  0
    4.5981   -1.6480    0.0000 H   0  0  0  0  0  0  0  0  0  0  0  0
    6.8671   -0.7180    0.0000 H   0  0  0  0  0  0  0  0  0  0  0  0
    4.5981    0.5920    0.0000 H   0  0  0  0  0  0  0  0  0  0  0  0
    6.3301    0.5920    0.0000 H   0  0  0  0  0  0  0  0  0  0  0  0
    4.9272   -2.8380    0.0000 H   0  0  0  0  0  0  0  0  0  0  0  0
    3.1951   -1.2180    0.0000 H   0  0  0  0  0  0  0  0  0  0  0  0
    7.1962   -2.1480    0.0000 H   0  0  0  0  0  0  0  0  0  0  0  0
    4.3426    1.3643    0.0000 H   0  0  0  0  0  0  0  0  0  0  0  0
    3.9441    2.0546    0.0000 H   0  0  0  0  0  0  0  0  0  0  0  0
    7.7331    1.7820    0.0000 H   0  0  0  0  0  0  0  0  0  0  0  0
  1 18  1  0  0  0  0
  2 18  1  0  0  0  0
  3 18  1  0  0  0  0
  4 14  1  0  0  0  0
  4 15  1  0  0  0  0
 14  5  1  6  0  0  0
  5 17  1  0  0  0  0
 11  6  1  6  0  0  0
  6 24  1  0  0  0  0
 12  7  1  1  0  0  0
  7 25  1  0  0  0  0
 13  8  1  1  0  0  0
  8 26  1  0  0  0  0
  9 16  1  0  0  0  0
  9 29  1  0  0  0  0
 10 16  2  0  0  0  0
 11 12  1  0  0  0  0
 11 13  1  0  0  0  0
 11 19  1  0  0  0  0
 12 14  1  0  0  0  0
 12 20  1  0  0  0  0
 13 15  1  0  0  0  0
 13 21  1  0  0  0  0
 14 22  1  0  0  0  0
 15 16  1  6  0  0  0
 15 23  1  0  0  0  0
 17 18  1  0  0  0  0
 17 27  1  0  0  0  0
 17 28  1  0  0  0  0
M  END
> <PUBCHEM_COMPOUND_CID>
3036914

> <PUBCHEM_COMPOUND_CANONICALIZED>
1

> <PUBCHEM_CACTVS_COMPLEXITY>
308

> <PUBCHEM_CACTVS_HBOND_ACCEPTOR>
7

> <PUBCHEM_CACTVS_HBOND_DONOR>
4

> <PUBCHEM_CACTVS_ROTATABLE_BOND>
3

> <PUBCHEM_CACTVS_SUBSKEYS>
AAADccBwOAAGAAAAAAAAAAAAAAAAAAAAAAAkAAAAAAAAAAAAAAAAGgIACAAACBawgIMACAAABgAIAACQCAIAAAAAAAAAAAFAAQAREBYAAAQiQAAFIAAHAAHKbAxAAAAAAAAAAAAAAAAAAAAAAAAAAAAAAA==

> <PUBCHEM_IUPAC_OPENEYE_NAME>
(2S,3S,4S,5R,6R)-3,4,5-trihydroxy-6-(2,2,2-trichloroethoxy)tetrahydropyran-2-carboxylic acid

> <PUBCHEM_IUPAC_CAS_NAME>
(2S,3S,4S,5R,6R)-3,4,5-trihydroxy-6-(2,2,2-trichloroethoxy)-2-oxanecarboxylic acid

> <PUBCHEM_IUPAC_NAME>
(2S,3S,4S,5R,6R)-3,4,5-trihydroxy-6-(2,2,2-trichloroethoxy)oxane-2-carboxylic acid

> <PUBCHEM_IUPAC_SYSTEMATIC_NAME>
(2S,3S,4S,5R,6R)-3,4,5-tris(oxidanyl)-6-[2,2,2-tris(chloranyl)ethoxy]oxane-2-carboxylic acid

> <PUBCHEM_IUPAC_TRADITIONAL_NAME>
(2S,3S,4S,5R,6R)-3,4,5-trihydroxy-6-(2,2,2-trichloroethoxy)tetrahydropyran-2-carboxylic acid

> <PUBCHEM_IUPAC_INCHI>
InChI=1S/C8H11Cl3O7/c9-8(10,11)1-17-7-4(14)2(12)3(13)5(18-7)6(15)16/h2-5,7,12-14H,1H2,(H,15,16)/t2-,3-,4+,5-,7+/m0/s1

> <PUBCHEM_IUPAC_INCHIKEY>
IQOASJJGUQMXDW-GHQVIJFQSA-N

> <PUBCHEM_XLOGP3_AA>
0

> <PUBCHEM_EXACT_MASS>
323.957036

> <PUBCHEM_MOLECULAR_FORMULA>
C8H11Cl3O7

> <PUBCHEM_MOLECULAR_WEIGHT>
325.52774

> <PUBCHEM_OPENEYE_CAN_SMILES>
C(C(Cl)(Cl)Cl)OC1C(C(C(C(O1)C(=O)O)O)O)O

> <PUBCHEM_OPENEYE_ISO_SMILES>
C(C(Cl)(Cl)Cl)O[C@H]1[C@@H]([C@H]([C@@H]([C@H](O1)C(=O)O)O)O)O

> <PUBCHEM_CACTVS_TPSA>
116

> <PUBCHEM_MONOISOTOPIC_WEIGHT>
323.957036

> <PUBCHEM_TOTAL_CHARGE>
0

> <PUBCHEM_HEAVY_ATOM_COUNT>
18

> <PUBCHEM_ATOM_DEF_STEREO_COUNT>
5

> <PUBCHEM_ATOM_UDEF_STEREO_COUNT>
0

> <PUBCHEM_BOND_DEF_STEREO_COUNT>
0

> <PUBCHEM_BOND_UDEF_STEREO_COUNT>
0

> <PUBCHEM_ISOTOPIC_ATOM_COUNT>
0

> <PUBCHEM_COMPONENT_COUNT>
1

> <PUBCHEM_CACTVS_TAUTO_COUNT>
1

> <PUBCHEM_COORDINATE_TYPE>
1
5
255

> <PUBCHEM_BONDANNOTATIONS>
15  16  6
14  5  6
11  6  6
12  7  5
13  8  5

$$$$

