   Color/Form
        Yellow-orange crystals
   from [1]HSDB

   Odor
        NO APPRECIABLE ODOR
   from [2]HSDB

   Melting Point
        32.1 to 32.5 deg C
   from [3]HSDB

   Corrosivity
        NON-CORROSIVE
   from [4]HSDB

   Density/Specific Gravity
        1.38 at 20 deg C
   from [5]HSDB

   Octanol/Water Partition Coefficient
        log Kow = 5.58
   from [6]HSDB

   Solubilities

     * O.1 PPM IN WATER AT 27 DEG C; GREATER THAN 1 G/G OF ACETONE
     * GREATER THAN 1 G/G OF XYLENE, ETHANOL, ULTRACENE, SINCLAIR 90,
       N-HEXANE, AROMATIC AND ALIPHATIC HYDROCARBONS, KETONES; GREATER
       THAN 1 G/3 G OF LOWER ALCOHOLS
     * Readily soluble in most organic solvents
     * In water = 0.1 mg/L at 20 deg C

   from [7]HSDB

   Spectral Properties
        Intense mass spectral peaks: 318 m/z (100%), 330 m/z (54%), 69 m/z
   (28%), 264 m/z (21%)
   from [8]HSDB

   Vapor Pressure
        6.3X10-5 mm Hg at 20 deg C
   from [9]HSDB

   Other Chemical/Physical Properties

     * Decomposition temp approx 180 deg C
     * Specific gravity: 1.45 at 25 deg C /Technical/
     * Henry's Law constant = 2.9X10-4 atm cu m/mol at 25 deg C (est)
     * Hydroxyl radical reaction rate constant = 2.3X10-11 cu cm/molec-sec
       at 25 deg C (est)

   from [10]HSDB

   Computed Properties
   Molecular Weight                  347.28975 [g/mol]
   Molecular Formula                 C[14]H[16]F[3]N[3]O[4]
   XLogP3                            5.2
   H-Bond Donor                      0
   H-Bond Acceptor                   8
   Rotatable Bond Count              5
   Exact Mass                        347.109291
   MonoIsotopic Mass                 347.109291
   Topological Polar Surface Area    94.9
   Heavy Atom Count                  24
   Formal Charge                     0
   Complexity                        449
   Isotope Atom Count                0
   Defined Atom Stereocenter Count   0
   Undefined Atom Stereocenter Count 0
   Defined Bond Stereocenter Count   0
   Undefined Bond Stereocenter Count 0
   Covalently-Bonded Unit Count      1
   Feature 3D Acceptor Count         4
   Feature 3D Anion Count            2
   Feature 3D Cation Count           1
   Feature 3D Hydrophobe Count       1
   Feature 3D Ring Count             1
   Effective Rotor Count             8.6
   Conformer Sampling RMSD           0.8
   CID Conformer Count               [11]3

References

   1. http://toxnet.nlm.nih.gov/cgi-bin/sis/search/r?dbs+hsdb:@term+@rn+@rel+26399-36-0
   2. http://toxnet.nlm.nih.gov/cgi-bin/sis/search/r?dbs+hsdb:@term+@rn+@rel+26399-36-0
   3. http://toxnet.nlm.nih.gov/cgi-bin/sis/search/r?dbs+hsdb:@term+@rn+@rel+26399-36-0
   4. http://toxnet.nlm.nih.gov/cgi-bin/sis/search/r?dbs+hsdb:@term+@rn+@rel+26399-36-0
   5. http://toxnet.nlm.nih.gov/cgi-bin/sis/search/r?dbs+hsdb:@term+@rn+@rel+26399-36-0
   6. http://toxnet.nlm.nih.gov/cgi-bin/sis/search/r?dbs+hsdb:@term+@rn+@rel+26399-36-0
   7. http://toxnet.nlm.nih.gov/cgi-bin/sis/search/r?dbs+hsdb:@term+@rn+@rel+26399-36-0
   8. http://toxnet.nlm.nih.gov/cgi-bin/sis/search/r?dbs+hsdb:@term+@rn+@rel+26399-36-0
   9. http://toxnet.nlm.nih.gov/cgi-bin/sis/search/r?dbs+hsdb:@term+@rn+@rel+26399-36-0
  10. http://toxnet.nlm.nih.gov/cgi-bin/sis/search/r?dbs+hsdb:@term+@rn+@rel+26399-36-0
  11. http://pubchem.ncbi.nlm.nih.gov/vw3d/vw3d.cgi?cid=33500
