6038
  -OEChem-06261201042D

 18 19  0     0  0  0  0  0  0999 V2000
    2.0000   -0.7073    0.0000 O   0  0  0  0  0  0  0  0  0  0  0  0
    3.7320   -0.7073    0.0000 N   0  0  0  0  0  0  0  0  0  0  0  0
    4.5981   -0.2073    0.0000 C   0  0  0  0  0  0  0  0  0  0  0  0
    4.5981    0.7927    0.0000 C   0  0  0  0  0  0  0  0  0  0  0  0
    3.7320    1.2927    0.0000 C   0  0  0  0  0  0  0  0  0  0  0  0
    5.4920   -0.7420    0.0000 C   0  0  0  0  0  0  0  0  0  0  0  0
    5.4920    1.3273    0.0000 C   0  0  0  0  0  0  0  0  0  0  0  0
    2.8660   -0.2073    0.0000 C   0  0  0  0  0  0  0  0  0  0  0  0
    2.8660    0.7927    0.0000 C   0  0  0  0  0  0  0  0  0  0  0  0
    6.3981   -0.2281    0.0000 C   0  0  0  0  0  0  0  0  0  0  0  0
    6.3981    0.8135    0.0000 C   0  0  0  0  0  0  0  0  0  0  0  0
    3.7320   -1.3273    0.0000 H   0  0  0  0  0  0  0  0  0  0  0  0
    3.7320    1.9127    0.0000 H   0  0  0  0  0  0  0  0  0  0  0  0
    5.4848   -1.3620    0.0000 H   0  0  0  0  0  0  0  0  0  0  0  0
    5.4848    1.9473    0.0000 H   0  0  0  0  0  0  0  0  0  0  0  0
    2.3291    1.1027    0.0000 H   0  0  0  0  0  0  0  0  0  0  0  0
    6.9338   -0.5402    0.0000 H   0  0  0  0  0  0  0  0  0  0  0  0
    6.9338    1.1256    0.0000 H   0  0  0  0  0  0  0  0  0  0  0  0
  1  8  2  0  0  0  0
  2  3  1  0  0  0  0
  2  8  1  0  0  0  0
  2 12  1  0  0  0  0
  3  4  1  0  0  0  0
  3  6  2  0  0  0  0
  4  5  1  0  0  0  0
  4  7  2  0  0  0  0
  5  9  2  0  0  0  0
  5 13  1  0  0  0  0
  6 10  1  0  0  0  0
  6 14  1  0  0  0  0
  7 11  1  0  0  0  0
  7 15  1  0  0  0  0
  8  9  1  0  0  0  0
  9 16  1  0  0  0  0
 10 11  2  0  0  0  0
 10 17  1  0  0  0  0
 11 18  1  0  0  0  0
M  END
> <PUBCHEM_COMPOUND_CID>
6038

> <PUBCHEM_COMPOUND_CANONICALIZED>
1

> <PUBCHEM_CACTVS_COMPLEXITY>
198

> <PUBCHEM_CACTVS_HBOND_ACCEPTOR>
1

> <PUBCHEM_CACTVS_HBOND_DONOR>
1

> <PUBCHEM_CACTVS_ROTATABLE_BOND>
0

> <PUBCHEM_CACTVS_SUBSKEYS>
AAADcYByIAAAAAAAAAAAAAAAAAAAAAAAAAAwQAAAAAAAAACBAAAAHgAQAAAADAiBmAAwwILAAACIAiVSUACCAAAhAgAIiAAAZMgIICLAkZGEIAhglADIyYcQgAAOAAAAAAACAAAAAAAAAAQAAAAAAAAAAA==

> <PUBCHEM_IUPAC_OPENEYE_NAME>
1H-quinolin-2-one

> <PUBCHEM_IUPAC_CAS_NAME>
1H-quinolin-2-one

> <PUBCHEM_IUPAC_NAME>
1H-quinolin-2-one

> <PUBCHEM_IUPAC_SYSTEMATIC_NAME>
1H-quinolin-2-one

> <PUBCHEM_IUPAC_TRADITIONAL_NAME>
carbostyril

> <PUBCHEM_IUPAC_INCHI>
InChI=1S/C9H7NO/c11-9-6-5-7-3-1-2-4-8(7)10-9/h1-6H,(H,10,11)

> <PUBCHEM_IUPAC_INCHIKEY>
LISFMEBWQUVKPJ-UHFFFAOYSA-N

> <PUBCHEM_XLOGP3>
1.3

> <PUBCHEM_EXACT_MASS>
145.052764

> <PUBCHEM_MOLECULAR_FORMULA>
C9H7NO

> <PUBCHEM_MOLECULAR_WEIGHT>
145.15798

> <PUBCHEM_OPENEYE_CAN_SMILES>
C1=CC=C2C(=C1)C=CC(=O)N2

> <PUBCHEM_OPENEYE_ISO_SMILES>
C1=CC=C2C(=C1)C=CC(=O)N2

> <PUBCHEM_CACTVS_TPSA>
29.1

> <PUBCHEM_MONOISOTOPIC_WEIGHT>
145.052764

> <PUBCHEM_TOTAL_CHARGE>
0

> <PUBCHEM_HEAVY_ATOM_COUNT>
11

> <PUBCHEM_ATOM_DEF_STEREO_COUNT>
0

> <PUBCHEM_ATOM_UDEF_STEREO_COUNT>
0

> <PUBCHEM_BOND_DEF_STEREO_COUNT>
0

> <PUBCHEM_BOND_UDEF_STEREO_COUNT>
0

> <PUBCHEM_ISOTOPIC_ATOM_COUNT>
0

> <PUBCHEM_COMPONENT_COUNT>
1

> <PUBCHEM_CACTVS_TAUTO_COUNT>
2

> <PUBCHEM_COORDINATE_TYPE>
1
5
255

> <PUBCHEM_BONDANNOTATIONS>
10  11  8
2  3  8
2  8  8
3  4  8
3  6  8
4  5  8
4  7  8
5  9  8
6  10  8
7  11  8
8  9  8

$$$$

