42027
  -OEChem-07051213052D

 33 37  0     0  0  0  0  0  0999 V2000
    3.8836   -3.6705    0.0000 O   0  0  0  0  0  0  0  0  0  0  0  0
    3.7841    0.4307    0.0000 C   0  0  0  0  0  0  0  0  0  0  0  0
    3.8001   -0.6108    0.0000 C   0  0  0  0  0  0  0  0  0  0  0  0
    2.9180    0.9307    0.0000 C   0  0  0  0  0  0  0  0  0  0  0  0
    4.6501    0.9307    0.0000 C   0  0  0  0  0  0  0  0  0  0  0  0
    2.9180    1.9307    0.0000 C   0  0  0  0  0  0  0  0  0  0  0  0
    2.9021   -1.1386    0.0000 C   0  0  0  0  0  0  0  0  0  0  0  0
    4.6772   -1.0736    0.0000 C   0  0  0  0  0  0  0  0  0  0  0  0
    3.7841    2.4307    0.0000 C   0  0  0  0  0  0  0  0  0  0  0  0
    4.6501    1.9307    0.0000 C   0  0  0  0  0  0  0  0  0  0  0  0
    2.0080    0.4238    0.0000 C   0  0  0  0  0  0  0  0  0  0  0  0
    5.5095    0.4359    0.0000 C   0  0  0  0  0  0  0  0  0  0  0  0
    2.0000   -0.6178    0.0000 C   0  0  0  0  0  0  0  0  0  0  0  0
    5.5230   -0.5557    0.0000 C   0  0  0  0  0  0  0  0  0  0  0  0
    2.9282   -2.1801    0.0000 C   0  0  0  0  0  0  0  0  0  0  0  0
    4.7274   -2.1142    0.0000 C   0  0  0  0  0  0  0  0  0  0  0  0
    2.0080    2.4375    0.0000 C   0  0  0  0  0  0  0  0  0  0  0  0
    3.8470   -2.6712    0.0000 C   0  0  0  0  0  0  0  0  0  0  0  0
    3.8001    3.4722    0.0000 C   0  0  0  0  0  0  0  0  0  0  0  0
    2.0000    3.4791    0.0000 C   0  0  0  0  0  0  0  0  0  0  0  0
    2.9021    3.9999    0.0000 C   0  0  0  0  0  0  0  0  0  0  0  0
    5.1870    2.2407    0.0000 H   0  0  0  0  0  0  0  0  0  0  0  0
    1.4747    0.7400    0.0000 H   0  0  0  0  0  0  0  0  0  0  0  0
    6.0442    0.7499    0.0000 H   0  0  0  0  0  0  0  0  0  0  0  0
    1.4619   -0.9257    0.0000 H   0  0  0  0  0  0  0  0  0  0  0  0
    6.0659   -0.8551    0.0000 H   0  0  0  0  0  0  0  0  0  0  0  0
    2.4004   -2.5055    0.0000 H   0  0  0  0  0  0  0  0  0  0  0  0
    5.2775   -2.4001    0.0000 H   0  0  0  0  0  0  0  0  0  0  0  0
    1.4747    2.1213    0.0000 H   0  0  0  0  0  0  0  0  0  0  0  0
    4.3406    3.7760    0.0000 H   0  0  0  0  0  0  0  0  0  0  0  0
    1.4619    3.7870    0.0000 H   0  0  0  0  0  0  0  0  0  0  0  0
    2.9045    4.6199    0.0000 H   0  0  0  0  0  0  0  0  0  0  0  0
    3.3583   -3.9999    0.0000 H   0  0  0  0  0  0  0  0  0  0  0  0
  1 18  1  0  0  0  0
  1 33  1  0  0  0  0
  2  3  1  0  0  0  0
  2  4  2  0  0  0  0
  2  5  1  0  0  0  0
  3  7  2  0  0  0  0
  3  8  1  0  0  0  0
  4  6  1  0  0  0  0
  4 11  1  0  0  0  0
  5 10  2  0  0  0  0
  5 12  1  0  0  0  0
  6  9  1  0  0  0  0
  6 17  2  0  0  0  0
  7 13  1  0  0  0  0
  7 15  1  0  0  0  0
  8 14  1  0  0  0  0
  8 16  2  0  0  0  0
  9 10  1  0  0  0  0
  9 19  2  0  0  0  0
 10 22  1  0  0  0  0
 11 13  2  0  0  0  0
 11 23  1  0  0  0  0
 12 14  2  0  0  0  0
 12 24  1  0  0  0  0
 13 25  1  0  0  0  0
 14 26  1  0  0  0  0
 15 18  2  0  0  0  0
 15 27  1  0  0  0  0
 16 18  1  0  0  0  0
 16 28  1  0  0  0  0
 17 20  1  0  0  0  0
 17 29  1  0  0  0  0
 19 21  1  0  0  0  0
 19 30  1  0  0  0  0
 20 21  2  0  0  0  0
 20 31  1  0  0  0  0
 21 32  1  0  0  0  0
M  END
> <PUBCHEM_COMPOUND_CID>
42027

> <PUBCHEM_COMPOUND_CANONICALIZED>
1

> <PUBCHEM_CACTVS_COMPLEXITY>
405

> <PUBCHEM_CACTVS_HBOND_ACCEPTOR>
1

> <PUBCHEM_CACTVS_HBOND_DONOR>
1

> <PUBCHEM_CACTVS_ROTATABLE_BOND>
0

> <PUBCHEM_CACTVS_SUBSKEYS>
AAADccB4IAAAAAAAAAAAAAAAAAAAAAAAAAAwYMGDAAAAAADBVAAAGgAACAAADASAmAAwBsAAAgCAAiBCAAACAAAgIAAIiAAGCIgIJiKCERKAcAAkwBEImAeAwPAO4AADAAAQAADAAAYAACAAAAAAAAAAAA==

> <PUBCHEM_IUPAC_OPENEYE_NAME>
benzo[a]pyren-2-ol

> <PUBCHEM_IUPAC_CAS_NAME>
2-benzo[a]pyrenol

> <PUBCHEM_IUPAC_NAME>
benzo[a]pyren-2-ol

> <PUBCHEM_IUPAC_SYSTEMATIC_NAME>
benzo[a]pyren-2-ol

> <PUBCHEM_IUPAC_TRADITIONAL_NAME>
benzo[a]pyren-2-ol

> <PUBCHEM_IUPAC_INCHI>
InChI=1S/C20H12O/c21-16-10-14-6-5-13-9-12-3-1-2-4-17(12)18-8-7-15(11-16)19(14)20(13)18/h1-11,21H

> <PUBCHEM_IUPAC_INCHIKEY>
KAXJMEFTXJWMLE-UHFFFAOYSA-N

> <PUBCHEM_XLOGP3>
5.6

> <PUBCHEM_EXACT_MASS>
268.088815

> <PUBCHEM_MOLECULAR_FORMULA>
C20H12O

> <PUBCHEM_MOLECULAR_WEIGHT>
268.30868

> <PUBCHEM_OPENEYE_CAN_SMILES>
C1=CC=C2C3=C4C(=CC2=C1)C=CC5=CC(=CC(=C54)C=C3)O

> <PUBCHEM_OPENEYE_ISO_SMILES>
C1=CC=C2C3=C4C(=CC2=C1)C=CC5=CC(=CC(=C54)C=C3)O

> <PUBCHEM_CACTVS_TPSA>
20.2

> <PUBCHEM_MONOISOTOPIC_WEIGHT>
268.088815

> <PUBCHEM_TOTAL_CHARGE>
0

> <PUBCHEM_HEAVY_ATOM_COUNT>
21

> <PUBCHEM_ATOM_DEF_STEREO_COUNT>
0

> <PUBCHEM_ATOM_UDEF_STEREO_COUNT>
0

> <PUBCHEM_BOND_DEF_STEREO_COUNT>
0

> <PUBCHEM_BOND_UDEF_STEREO_COUNT>
0

> <PUBCHEM_ISOTOPIC_ATOM_COUNT>
0

> <PUBCHEM_COMPONENT_COUNT>
1

> <PUBCHEM_CACTVS_TAUTO_COUNT>
3

> <PUBCHEM_COORDINATE_TYPE>
1
5
255

> <PUBCHEM_BONDANNOTATIONS>
11  13  8
12  14  8
15  18  8
16  18  8
17  20  8
19  21  8
2  3  8
2  4  8
2  5  8
20  21  8
3  7  8
3  8  8
4  11  8
4  6  8
5  10  8
5  12  8
6  17  8
6  9  8
7  13  8
7  15  8
8  14  8
8  16  8
9  10  8
9  19  8

$$$$

