3182
  -OEChem-07051212542D

 32 33  0     1  0  0  0  0  0999 V2000
    7.5013    0.3634    0.0000 O   0  0  0  0  0  0  0  0  0  0  0  0
    3.7320    1.1462    0.0000 O   0  0  0  0  0  0  0  0  0  0  0  0
    8.1226    2.2644    0.0000 O   0  0  0  0  0  0  0  0  0  0  0  0
    2.0000   -1.8538    0.0000 O   0  0  0  0  0  0  0  0  0  0  0  0
    5.5443   -0.0490    0.0000 N   0  0  0  0  0  0  0  0  0  0  0  0
    3.7320   -1.8538    0.0000 N   0  0  0  0  0  0  0  0  0  0  0  0
    2.8660   -0.3538    0.0000 N   0  0  0  0  0  0  0  0  0  0  0  0
    5.5443   -1.6585    0.0000 N   0  0  0  0  0  0  0  0  0  0  0  0
    4.5981   -0.3538    0.0000 C   0  0  0  0  0  0  0  0  0  0  0  0
    5.8550    0.9015    0.0000 C   0  0  0  0  0  0  0  0  0  0  0  0
    4.5981   -1.3538    0.0000 C   0  0  0  0  0  0  0  0  0  0  0  0
    6.8335    1.1077    0.0000 C   0  0  3  0  0  0  0  0  0  0  0  0
    3.7320    0.1462    0.0000 C   0  0  0  0  0  0  0  0  0  0  0  0
    6.1279   -0.8538    0.0000 C   0  0  0  0  0  0  0  0  0  0  0  0
    2.8660   -1.3538    0.0000 C   0  0  0  0  0  0  0  0  0  0  0  0
    7.1441    2.0582    0.0000 C   0  0  0  0  0  0  0  0  0  0  0  0
    3.7320   -2.8538    0.0000 C   0  0  0  0  0  0  0  0  0  0  0  0
    2.0000    0.1462    0.0000 C   0  0  0  0  0  0  0  0  0  0  0  0
    5.8344    1.5211    0.0000 H   0  0  0  0  0  0  0  0  0  0  0  0
    5.2411    0.9888    0.0000 H   0  0  0  0  0  0  0  0  0  0  0  0
    6.6408    0.5184    0.0000 H   0  0  0  0  0  0  0  0  0  0  0  0
    6.7479   -0.8538    0.0000 H   0  0  0  0  0  0  0  0  0  0  0  0
    7.1236    2.6779    0.0000 H   0  0  0  0  0  0  0  0  0  0  0  0
    6.5303    2.1456    0.0000 H   0  0  0  0  0  0  0  0  0  0  0  0
    3.1120   -2.8538    0.0000 H   0  0  0  0  0  0  0  0  0  0  0  0
    3.7320   -3.4738    0.0000 H   0  0  0  0  0  0  0  0  0  0  0  0
    4.3520   -2.8538    0.0000 H   0  0  0  0  0  0  0  0  0  0  0  0
    2.3100    0.6832    0.0000 H   0  0  0  0  0  0  0  0  0  0  0  0
    1.4631    0.4562    0.0000 H   0  0  0  0  0  0  0  0  0  0  0  0
    1.6900   -0.3907    0.0000 H   0  0  0  0  0  0  0  0  0  0  0  0
    8.1080    0.4913    0.0000 H   0  0  0  0  0  0  0  0  0  0  0  0
    8.3152    2.8538    0.0000 H   0  0  0  0  0  0  0  0  0  0  0  0
  1 12  1  0  0  0  0
  1 31  1  0  0  0  0
  2 13  2  0  0  0  0
  3 16  1  0  0  0  0
  3 32  1  0  0  0  0
  4 15  2  0  0  0  0
  5  9  1  0  0  0  0
  5 10  1  0  0  0  0
  5 14  1  0  0  0  0
  6 11  1  0  0  0  0
  6 15  1  0  0  0  0
  6 17  1  0  0  0  0
  7 13  1  0  0  0  0
  7 15  1  0  0  0  0
  7 18  1  0  0  0  0
  8 11  1  0  0  0  0
  8 14  2  0  0  0  0
  9 11  2  0  0  0  0
  9 13  1  0  0  0  0
 10 12  1  0  0  0  0
 10 19  1  0  0  0  0
 10 20  1  0  0  0  0
 12 16  1  0  0  0  0
 12 21  1  0  0  0  0
 14 22  1  0  0  0  0
 16 23  1  0  0  0  0
 16 24  1  0  0  0  0
 17 25  1  0  0  0  0
 17 26  1  0  0  0  0
 17 27  1  0  0  0  0
 18 28  1  0  0  0  0
 18 29  1  0  0  0  0
 18 30  1  0  0  0  0
M  END
> <PUBCHEM_COMPOUND_CID>
3182

> <PUBCHEM_COMPOUND_CANONICALIZED>
1

> <PUBCHEM_CACTVS_COMPLEXITY>
364

> <PUBCHEM_CACTVS_HBOND_ACCEPTOR>
5

> <PUBCHEM_CACTVS_HBOND_DONOR>
2

> <PUBCHEM_CACTVS_ROTATABLE_BOND>
3

> <PUBCHEM_CACTVS_SUBSKEYS>
AAADccBzuAAAAAAAAAAAAAAAAAAAAWAAAAAsAAAAAAAAAFgBgAAAHgAACAAACBzhlgYHsBcMEgCoAQdxdACAgC0XEKABUAGoVECDWAhASCAUQIgKByLRAGAAAAAAAAAAAAAAAAAAAAAAAAAAAAAAAAAAAA==

> <PUBCHEM_IUPAC_OPENEYE_NAME>
7-(2,3-dihydroxypropyl)-1,3-dimethyl-purine-2,6-dione

> <PUBCHEM_IUPAC_CAS_NAME>
7-(2,3-dihydroxypropyl)-1,3-dimethylpurine-2,6-dione

> <PUBCHEM_IUPAC_NAME>
7-(2,3-dihydroxypropyl)-1,3-dimethylpurine-2,6-dione

> <PUBCHEM_IUPAC_SYSTEMATIC_NAME>
7-[2,3-bis(oxidanyl)propyl]-1,3-dimethyl-purine-2,6-dione

> <PUBCHEM_IUPAC_TRADITIONAL_NAME>
7-glyceryl-1,3-dimethyl-xanthine

> <PUBCHEM_IUPAC_INCHI>
InChI=1S/C10H14N4O4/c1-12-8-7(9(17)13(2)10(12)18)14(5-11-8)3-6(16)4-15/h5-6,15-16H,3-4H2,1-2H3

> <PUBCHEM_IUPAC_INCHIKEY>
KSCFJBIXMNOVSH-UHFFFAOYSA-N

> <PUBCHEM_XLOGP3>
-1.8

> <PUBCHEM_EXACT_MASS>
254.101505

> <PUBCHEM_MOLECULAR_FORMULA>
C10H14N4O4

> <PUBCHEM_MOLECULAR_WEIGHT>
254.24256

> <PUBCHEM_OPENEYE_CAN_SMILES>
CN1C2=C(C(=O)N(C1=O)C)N(C=N2)CC(CO)O

> <PUBCHEM_OPENEYE_ISO_SMILES>
CN1C2=C(C(=O)N(C1=O)C)N(C=N2)CC(CO)O

> <PUBCHEM_CACTVS_TPSA>
98.9

> <PUBCHEM_MONOISOTOPIC_WEIGHT>
254.101505

> <PUBCHEM_TOTAL_CHARGE>
0

> <PUBCHEM_HEAVY_ATOM_COUNT>
18

> <PUBCHEM_ATOM_DEF_STEREO_COUNT>
0

> <PUBCHEM_ATOM_UDEF_STEREO_COUNT>
1

> <PUBCHEM_BOND_DEF_STEREO_COUNT>
0

> <PUBCHEM_BOND_UDEF_STEREO_COUNT>
0

> <PUBCHEM_ISOTOPIC_ATOM_COUNT>
0

> <PUBCHEM_COMPONENT_COUNT>
1

> <PUBCHEM_CACTVS_TAUTO_COUNT>
1

> <PUBCHEM_COORDINATE_TYPE>
1
5
255

> <PUBCHEM_BONDANNOTATIONS>
12  1  3
5  14  8
5  9  8
6  11  8
6  15  8
7  13  8
7  15  8
8  11  8
8  14  8
9  11  8
9  13  8

$$$$

