17396346
  -OEChem-06241222562D

 48 50  0     1  0  0  0  0  0999 V2000
    4.5411   -4.0878    0.0000 S   0  0  0  0  0  0  0  0  0  0  0  0
    7.2242    3.7788    0.0000 O   0  0  0  0  0  0  0  0  0  0  0  0
    6.3301   -1.0000    0.0000 O   0  0  0  0  0  0  0  0  0  0  0  0
    5.4641    3.5000    0.0000 N   0  0  0  0  0  0  0  0  0  0  0  0
    2.8660   -2.0000    0.0000 N   0  0  0  0  0  0  0  0  0  0  0  0
    4.5981   -1.0000    0.0000 N   0  0  0  0  0  0  0  0  0  0  0  0
    4.6551    4.0878    0.0000 C   0  0  0  0  0  0  0  0  0  0  0  0
    4.9641    5.0388    0.0000 C   0  0  0  0  0  0  0  0  0  0  0  0
    5.9641    5.0388    0.0000 C   0  0  0  0  0  0  0  0  0  0  0  0
    3.7320   -2.5000    0.0000 C   0  0  3  0  0  0  0  0  0  0  0  0
    6.2731    4.0878    0.0000 C   0  0  0  0  0  0  0  0  0  0  0  0
    5.4641    2.5000    0.0000 C   0  0  0  0  0  0  0  0  0  0  0  0
    4.5981   -2.0000    0.0000 C   0  0  0  0  0  0  0  0  0  0  0  0
    3.7320   -3.5000    0.0000 C   0  0  0  0  0  0  0  0  0  0  0  0
    4.5981    2.0000    0.0000 C   0  0  0  0  0  0  0  0  0  0  0  0
    6.3301    2.0000    0.0000 C   0  0  0  0  0  0  0  0  0  0  0  0
    5.4641    0.5000    0.0000 C   0  0  0  0  0  0  0  0  0  0  0  0
    5.4641   -0.5000    0.0000 C   0  0  0  0  0  0  0  0  0  0  0  0
    4.5981    1.0000    0.0000 C   0  0  0  0  0  0  0  0  0  0  0  0
    6.3301    1.0000    0.0000 C   0  0  0  0  0  0  0  0  0  0  0  0
    2.0000   -2.5000    0.0000 C   0  0  0  0  0  0  0  0  0  0  0  0
    2.8660   -1.0000    0.0000 C   0  0  0  0  0  0  0  0  0  0  0  0
    2.9230   -4.0878    0.0000 C   0  0  0  0  0  0  0  0  0  0  0  0
    3.2320   -5.0388    0.0000 C   0  0  0  0  0  0  0  0  0  0  0  0
    4.2320   -5.0388    0.0000 C   0  0  0  0  0  0  0  0  0  0  0  0
    4.0887    4.3400    0.0000 H   0  0  0  0  0  0  0  0  0  0  0  0
    4.3451    3.5508    0.0000 H   0  0  0  0  0  0  0  0  0  0  0  0
    5.0289    5.6554    0.0000 H   0  0  0  0  0  0  0  0  0  0  0  0
    4.3576    5.1678    0.0000 H   0  0  0  0  0  0  0  0  0  0  0  0
    6.5706    5.1678    0.0000 H   0  0  0  0  0  0  0  0  0  0  0  0
    5.8993    5.6554    0.0000 H   0  0  0  0  0  0  0  0  0  0  0  0
    3.7320   -1.8800    0.0000 H   0  0  0  0  0  0  0  0  0  0  0  0
    4.8101   -2.5826    0.0000 H   0  0  0  0  0  0  0  0  0  0  0  0
    5.2087   -1.8923    0.0000 H   0  0  0  0  0  0  0  0  0  0  0  0
    4.0611   -0.6900    0.0000 H   0  0  0  0  0  0  0  0  0  0  0  0
    4.0611    2.3100    0.0000 H   0  0  0  0  0  0  0  0  0  0  0  0
    6.8671    2.3100    0.0000 H   0  0  0  0  0  0  0  0  0  0  0  0
    1.6900   -1.9631    0.0000 H   0  0  0  0  0  0  0  0  0  0  0  0
    1.4631   -2.8100    0.0000 H   0  0  0  0  0  0  0  0  0  0  0  0
    2.3100   -3.0369    0.0000 H   0  0  0  0  0  0  0  0  0  0  0  0
    3.4860   -1.0000    0.0000 H   0  0  0  0  0  0  0  0  0  0  0  0
    2.8660   -0.3800    0.0000 H   0  0  0  0  0  0  0  0  0  0  0  0
    2.2460   -1.0000    0.0000 H   0  0  0  0  0  0  0  0  0  0  0  0
    4.0611    0.6900    0.0000 H   0  0  0  0  0  0  0  0  0  0  0  0
    6.8671    0.6900    0.0000 H   0  0  0  0  0  0  0  0  0  0  0  0
    2.3334   -3.8962    0.0000 H   0  0  0  0  0  0  0  0  0  0  0  0
    2.8676   -5.5404    0.0000 H   0  0  0  0  0  0  0  0  0  0  0  0
    4.5965   -5.5404    0.0000 H   0  0  0  0  0  0  0  0  0  0  0  0
  1 14  1  0  0  0  0
  1 25  1  0  0  0  0
  2 11  2  0  0  0  0
  3 18  2  0  0  0  0
  4  7  1  0  0  0  0
  4 11  1  0  0  0  0
  4 12  1  0  0  0  0
  5 10  1  0  0  0  0
  5 21  1  0  0  0  0
  5 22  1  0  0  0  0
  6 13  1  0  0  0  0
  6 18  1  0  0  0  0
  6 35  1  0  0  0  0
  7  8  1  0  0  0  0
  7 26  1  0  0  0  0
  7 27  1  0  0  0  0
  8  9  1  0  0  0  0
  8 28  1  0  0  0  0
  8 29  1  0  0  0  0
  9 11  1  0  0  0  0
  9 30  1  0  0  0  0
  9 31  1  0  0  0  0
 10 13  1  0  0  0  0
 10 14  1  0  0  0  0
 10 32  1  0  0  0  0
 12 15  2  0  0  0  0
 12 16  1  0  0  0  0
 13 33  1  0  0  0  0
 13 34  1  0  0  0  0
 14 23  2  0  0  0  0
 15 19  1  0  0  0  0
 15 36  1  0  0  0  0
 16 20  2  0  0  0  0
 16 37  1  0  0  0  0
 17 18  1  0  0  0  0
 17 19  2  0  0  0  0
 17 20  1  0  0  0  0
 19 44  1  0  0  0  0
 20 45  1  0  0  0  0
 21 38  1  0  0  0  0
 21 39  1  0  0  0  0
 21 40  1  0  0  0  0
 22 41  1  0  0  0  0
 22 42  1  0  0  0  0
 22 43  1  0  0  0  0
 23 24  1  0  0  0  0
 23 46  1  0  0  0  0
 24 25  2  0  0  0  0
 24 47  1  0  0  0  0
 25 48  1  0  0  0  0
M  END
> <PUBCHEM_COMPOUND_CID>
17396346

> <PUBCHEM_COMPOUND_CANONICALIZED>
1

> <PUBCHEM_CACTVS_COMPLEXITY>
477

> <PUBCHEM_CACTVS_HBOND_ACCEPTOR>
4

> <PUBCHEM_CACTVS_HBOND_DONOR>
1

> <PUBCHEM_CACTVS_ROTATABLE_BOND>
6

> <PUBCHEM_CACTVS_SUBSKEYS>
AAADceB7MABAAAAAAAAAAAAAAAAAAWJAAAAwAAAAAAAAAAABwAAAHgQQAAAADCjF2ASywYPAAAiMAiVSUACDAIAlChBIiJkIZMgIYDLglZGUIQhglgDoyYcciQCeCAAAAAAAAAAQAAAAAAAAAAAAAAAAAA==

> <PUBCHEM_IUPAC_OPENEYE_NAME>
N-[2-(dimethylamino)-2-(2-thienyl)ethyl]-4-(2-oxopyrrolidin-1-yl)benzamide

> <PUBCHEM_IUPAC_CAS_NAME>
N-[2-(dimethylamino)-2-thiophen-2-ylethyl]-4-(2-oxo-1-pyrrolidinyl)benzamide

> <PUBCHEM_IUPAC_NAME>
N-[2-(dimethylamino)-2-thiophen-2-ylethyl]-4-(2-oxopyrrolidin-1-yl)benzamide

> <PUBCHEM_IUPAC_SYSTEMATIC_NAME>
N-[2-(dimethylamino)-2-thiophen-2-yl-ethyl]-4-(2-oxidanylidenepyrrolidin-1-yl)benzamide

> <PUBCHEM_IUPAC_TRADITIONAL_NAME>
N-[2-(dimethylamino)-2-(2-thienyl)ethyl]-4-(2-ketopyrrolidino)benzamide

> <PUBCHEM_IUPAC_INCHI>
InChI=1S/C19H23N3O2S/c1-21(2)16(17-5-4-12-25-17)13-20-19(24)14-7-9-15(10-8-14)22-11-3-6-18(22)23/h4-5,7-10,12,16H,3,6,11,13H2,1-2H3,(H,20,24)

> <PUBCHEM_IUPAC_INCHIKEY>
YIEGCKLHYLBBPR-UHFFFAOYSA-N

> <PUBCHEM_XLOGP3_AA>
1.9

> <PUBCHEM_EXACT_MASS>
357.151098

> <PUBCHEM_MOLECULAR_FORMULA>
C19H23N3O2S

> <PUBCHEM_MOLECULAR_WEIGHT>
357.46982

> <PUBCHEM_OPENEYE_CAN_SMILES>
CN(C)C(CNC(=O)C1=CC=C(C=C1)N2CCCC2=O)C3=CC=CS3

> <PUBCHEM_OPENEYE_ISO_SMILES>
CN(C)C(CNC(=O)C1=CC=C(C=C1)N2CCCC2=O)C3=CC=CS3

> <PUBCHEM_CACTVS_TPSA>
80.9

> <PUBCHEM_MONOISOTOPIC_WEIGHT>
357.151098

> <PUBCHEM_TOTAL_CHARGE>
0

> <PUBCHEM_HEAVY_ATOM_COUNT>
25

> <PUBCHEM_ATOM_DEF_STEREO_COUNT>
0

> <PUBCHEM_ATOM_UDEF_STEREO_COUNT>
1

> <PUBCHEM_BOND_DEF_STEREO_COUNT>
0

> <PUBCHEM_BOND_UDEF_STEREO_COUNT>
0

> <PUBCHEM_ISOTOPIC_ATOM_COUNT>
0

> <PUBCHEM_COMPONENT_COUNT>
1

> <PUBCHEM_CACTVS_TAUTO_COUNT>
4

> <PUBCHEM_COORDINATE_TYPE>
1
5
255

> <PUBCHEM_BONDANNOTATIONS>
1  14  8
1  25  8
10  13  3
12  15  8
12  16  8
14  23  8
15  19  8
16  20  8
17  19  8
17  20  8
23  24  8
24  25  8

$$$$

