   Color/Form

     * Colorless oily fluid
     * Colorless to pale-yellow liquid or solid (below 57 degrees F).

   from [1]HSDB

   Odor

     * Distinct pungent odor
     * Pungent odor

   from [2]HSDB

   Boiling Point
        126 deg C at 760 mm Hg; 40 deg C at 25.8 mm Hg; 30 deg C at 14.9
   mm Hg; 20 deg C at 8.4 mm Hg; 13.8 deg C at 5.7 mm Hg; 0 deg C at 1.9
   mm Hg
   from [3]HSDB

   Melting Point
        13.8 deg C
   from [4]HSDB

   Corrosivity
        Attacks iron, copper, brass, zinc, rubber
   from [5]HSDB

   Density/Specific Gravity
        1.6229 at 20 deg C/4 deg C
   from [6]HSDB

   Octanol/Water Partition Coefficient
        log Kow = -2.05 (est)
   from [7]HSDB

   Solubilities

     * Soluble in ethanol, ether, and carbon tetrachloride
     * Freely sol in alcoholic potassium hydroxide
     * In water, 900 mg/L at 25 deg C [Page JD, Wilson IB; J Biol Chem
       260: 1475-8 (1985)] [8]PubMed Abstract

   from [9]HSDB

   Spectral Properties

     * Index of refraction = 1.4384 at 20 deg C/D
     * Index of refraction = 1.4358 at 25 deg C/D
     * IR: 6408 (Coblentz Society Spectral Collection)
     * MASS: 8742 (NIST/EPA/MSDC Mass Spectral database, 1990 version); 10
       (National Bureau of Standards EPA-NIH Mass Spectra Data Base,
       NSRDS-NBS-63)

   from [10]HSDB

   Vapor Density
        0.8 (Air = 1)
   from [11]HSDB

   Vapor Pressure
        8.42 mm Hg at 25 deg C
   from [12]HSDB

   Viscosity
        1.76 cP at 20 deg C
   from [13]HSDB

   Other Chemical/Physical Properties

     * Density: 1.638 at 25 deg C/4 deg C /Technical/
     * Powerful oxidizing agent
     * Reacts violently with amines, powdered metals and metals such as
       aluminium, copper, iron or zinc causing fire and explosion hazard.
       Attacks rubber.
     * Henry's Law constant = 2.4X10-3 atm-cu m/mol at 25 deg C (est)
     * Hydroxyl radical reaction rate constant = 5.20X10-13 cu
       cm/molec-sec at 25 deg C (est)

   from [14]HSDB

   Computed Properties
   Molecular Weight                  196.0327 [g/mol]
   Molecular Formula                 CN[4]O[8]
   XLogP3-AA                         0.1
   H-Bond Donor                      0
   H-Bond Acceptor                   8
   Rotatable Bond Count              0
   Exact Mass                        195.971613
   MonoIsotopic Mass                 195.971613
   Topological Polar Surface Area    183
   Heavy Atom Count                  13
   Formal Charge                     0
   Complexity                        209
   Isotope Atom Count                0
   Defined Atom Stereocenter Count   0
   Undefined Atom Stereocenter Count 0
   Defined Bond Stereocenter Count   0
   Undefined Bond Stereocenter Count 0
   Covalently-Bonded Unit Count      1
   Feature 3D Acceptor Count         8
   Feature 3D Anion Count            4
   Effective Rotor Count             4
   Conformer Sampling RMSD           0.6
   CID Conformer Count               [15]2

References

   1. http://toxnet.nlm.nih.gov/cgi-bin/sis/search/r?dbs+hsdb:@term+@rn+@rel+509-14-8
   2. http://toxnet.nlm.nih.gov/cgi-bin/sis/search/r?dbs+hsdb:@term+@rn+@rel+509-14-8
   3. http://toxnet.nlm.nih.gov/cgi-bin/sis/search/r?dbs+hsdb:@term+@rn+@rel+509-14-8
   4. http://toxnet.nlm.nih.gov/cgi-bin/sis/search/r?dbs+hsdb:@term+@rn+@rel+509-14-8
   5. http://toxnet.nlm.nih.gov/cgi-bin/sis/search/r?dbs+hsdb:@term+@rn+@rel+509-14-8
   6. http://toxnet.nlm.nih.gov/cgi-bin/sis/search/r?dbs+hsdb:@term+@rn+@rel+509-14-8
   7. http://toxnet.nlm.nih.gov/cgi-bin/sis/search/r?dbs+hsdb:@term+@rn+@rel+509-14-8
   8. http://www.ncbi.nlm.nih.gov/entrez/query.fcgi?cmd=Retrieve&db=pubmed&dopt=Abstract&list_uids=3968080
   9. http://toxnet.nlm.nih.gov/cgi-bin/sis/search/r?dbs+hsdb:@term+@rn+@rel+509-14-8
  10. http://toxnet.nlm.nih.gov/cgi-bin/sis/search/r?dbs+hsdb:@term+@rn+@rel+509-14-8
  11. http://toxnet.nlm.nih.gov/cgi-bin/sis/search/r?dbs+hsdb:@term+@rn+@rel+509-14-8
  12. http://toxnet.nlm.nih.gov/cgi-bin/sis/search/r?dbs+hsdb:@term+@rn+@rel+509-14-8
  13. http://toxnet.nlm.nih.gov/cgi-bin/sis/search/r?dbs+hsdb:@term+@rn+@rel+509-14-8
  14. http://toxnet.nlm.nih.gov/cgi-bin/sis/search/r?dbs+hsdb:@term+@rn+@rel+509-14-8
  15. http://pubchem.ncbi.nlm.nih.gov/vw3d/vw3d.cgi?cid=10509
