53297426
  -OEChem-07051213132D

 48 48  0     0  0  0  0  0  0999 V2000
    3.3823    8.1200    0.0000 S   0  0  0  0  0  0  0  0  0  0  0  0
    8.6445    8.1442    0.0000 S   0  0  0  0  0  0  0  0  0  0  0  0
    0.0000    4.5584    0.0000 Na  0  4  0  0  0  0  0  0  0  0  0  0
    2.5163    9.6200    0.0000 Na  0  3  0  0  0  0  0  0  0  0  0  0
    3.3823    6.1200    0.0000 O   0  0  0  0  0  0  0  0  0  0  0  0
    2.5163    8.6200    0.0000 O   0  5  0  0  0  0  0  0  0  0  0  0
    3.8823    8.9860    0.0000 O   0  0  0  0  0  0  0  0  0  0  0  0
    2.8823    7.2540    0.0000 O   0  0  0  0  0  0  0  0  0  0  0  0
    9.5086    8.6475    0.0000 O   0  5  0  0  0  0  0  0  0  0  0  0
    9.1478    7.2801    0.0000 O   0  0  0  0  0  0  0  0  0  0  0  0
    8.1411    9.0082    0.0000 O   0  0  0  0  0  0  0  0  0  0  0  0
    5.9804    4.6200    0.0000 N   0  0  0  0  0  0  0  0  0  0  0  0
    5.1143    5.1200    0.0000 N   0  0  0  0  0  0  0  0  0  0  0  0
    5.9804    6.6200    0.0000 C   0  0  0  0  0  0  0  0  0  0  0  0
    5.9804    7.6200    0.0000 C   0  0  0  0  0  0  0  0  0  0  0  0
    5.1143    6.1200    0.0000 C   0  0  0  0  0  0  0  0  0  0  0  0
    4.2483    7.6200    0.0000 C   0  0  0  0  0  0  0  0  0  0  0  0
    5.1143    8.1200    0.0000 C   0  0  0  0  0  0  0  0  0  0  0  0
    6.8743    8.1547    0.0000 C   0  0  0  0  0  0  0  0  0  0  0  0
    4.2483    6.6200    0.0000 C   0  0  0  0  0  0  0  0  0  0  0  0
    5.9804    3.6200    0.0000 C   0  0  0  0  0  0  0  0  0  0  0  0
    6.8743    6.0853    0.0000 C   0  0  0  0  0  0  0  0  0  0  0  0
    7.7804    7.6408    0.0000 C   0  0  0  0  0  0  0  0  0  0  0  0
    5.1143    3.1200    0.0000 C   0  0  0  0  0  0  0  0  0  0  0  0
    6.8464    2.1200    0.0000 C   0  0  0  0  0  0  0  0  0  0  0  0
    5.9804    1.6200    0.0000 C   0  0  0  0  0  0  0  0  0  0  0  0
    7.7804    6.5992    0.0000 C   0  0  0  0  0  0  0  0  0  0  0  0
    6.8464    3.1200    0.0000 C   0  0  0  0  0  0  0  0  0  0  0  0
    5.1143    2.1200    0.0000 C   0  0  0  0  0  0  0  0  0  0  0  0
    4.2483    3.6200    0.0000 C   0  0  0  0  0  0  0  0  0  0  0  0
    7.7124    1.6200    0.0000 C   0  0  0  0  0  0  0  0  0  0  0  0
    5.9804    0.6200    0.0000 C   0  0  0  0  0  0  0  0  0  0  0  0
    5.1143    8.7400    0.0000 H   0  0  0  0  0  0  0  0  0  0  0  0
    6.8671    8.7746    0.0000 H   0  0  0  0  0  0  0  0  0  0  0  0
    6.8671    5.4654    0.0000 H   0  0  0  0  0  0  0  0  0  0  0  0
    8.3161    6.2871    0.0000 H   0  0  0  0  0  0  0  0  0  0  0  0
    7.3833    3.4300    0.0000 H   0  0  0  0  0  0  0  0  0  0  0  0
    4.5774    1.8100    0.0000 H   0  0  0  0  0  0  0  0  0  0  0  0
    6.5173    4.9300    0.0000 H   0  0  0  0  0  0  0  0  0  0  0  0
    4.5583    4.1569    0.0000 H   0  0  0  0  0  0  0  0  0  0  0  0
    3.7114    3.9300    0.0000 H   0  0  0  0  0  0  0  0  0  0  0  0
    3.9383    3.0831    0.0000 H   0  0  0  0  0  0  0  0  0  0  0  0
    7.4024    1.0831    0.0000 H   0  0  0  0  0  0  0  0  0  0  0  0
    8.2494    1.3100    0.0000 H   0  0  0  0  0  0  0  0  0  0  0  0
    8.0224    2.1569    0.0000 H   0  0  0  0  0  0  0  0  0  0  0  0
    5.3604    0.6200    0.0000 H   0  0  0  0  0  0  0  0  0  0  0  0
    5.9804    0.0000    0.0000 H   0  0  0  0  0  0  0  0  0  0  0  0
    6.6004    0.6200    0.0000 H   0  0  0  0  0  0  0  0  0  0  0  0
  1  6  1  0  0  0  0
  1  7  2  0  0  0  0
  1  8  2  0  0  0  0
  1 17  1  0  0  0  0
  2  9  1  0  0  0  0
  2 10  2  0  0  0  0
  2 11  2  0  0  0  0
  2 23  1  0  0  0  0
  5 20  2  0  0  0  0
 12 13  1  0  0  0  0
 12 21  1  0  0  0  0
 12 39  1  0  0  0  0
 13 16  2  0  0  0  0
 14 15  2  0  0  0  0
 14 16  1  0  0  0  0
 14 22  1  0  0  0  0
 15 18  1  0  0  0  0
 15 19  1  0  0  0  0
 16 20  1  0  0  0  0
 17 18  2  0  0  0  0
 17 20  1  0  0  0  0
 18 33  1  0  0  0  0
 19 23  2  0  0  0  0
 19 34  1  0  0  0  0
 21 24  2  0  0  0  0
 21 28  1  0  0  0  0
 22 27  2  0  0  0  0
 22 35  1  0  0  0  0
 23 27  1  0  0  0  0
 24 29  1  0  0  0  0
 24 30  1  0  0  0  0
 25 26  1  0  0  0  0
 25 28  2  0  0  0  0
 25 31  1  0  0  0  0
 26 29  2  0  0  0  0
 26 32  1  0  0  0  0
 27 36  1  0  0  0  0
 28 37  1  0  0  0  0
 29 38  1  0  0  0  0
 30 40  1  0  0  0  0
 30 41  1  0  0  0  0
 30 42  1  0  0  0  0
 31 43  1  0  0  0  0
 31 44  1  0  0  0  0
 31 45  1  0  0  0  0
 32 46  1  0  0  0  0
 32 47  1  0  0  0  0
 32 48  1  0  0  0  0
M  CHG  3   4   1   6  -1   9  -1
M  RAD  1   3   2
M  END
> <PUBCHEM_COMPOUND_CID>
53297426

> <PUBCHEM_COMPOUND_CANONICALIZED>
1

> <PUBCHEM_CACTVS_COMPLEXITY>
933

> <PUBCHEM_CACTVS_HBOND_ACCEPTOR>
9

> <PUBCHEM_CACTVS_HBOND_DONOR>
1

> <PUBCHEM_CACTVS_ROTATABLE_BOND>
2

> <PUBCHEM_CACTVS_SUBSKEYS>
AAADceB7ODBgAAAAAAAAAAAAAAAAAAAAAAAwYIAAAAAAAACBQAAAHgQYAAAADAyB2AAywYBiAAKoA6RyQHDSBEAgAgAYiBkgZNgIILKAlZGAIABgmAAIyYcYiMCO2AACwAASAACwAAWAACQAAAAAAAAAAA==

> <PUBCHEM_IUPAC_OPENEYE_NAME>
sodium; (4E)-3-oxo-4-[(2,4,5-trimethylphenyl)hydrazono]naphthalene-2,7-disulfonate; sodium

> <PUBCHEM_IUPAC_CAS_NAME>
sodium; (4E)-3-oxo-4-[(2,4,5-trimethylphenyl)hydrazinylidene]naphthalene-2,7-disulfonate; sodium

> <PUBCHEM_IUPAC_NAME>
sodium; (4E)-3-oxo-4-[(2,4,5-trimethylphenyl)hydrazinylidene]naphthalene-2,7-disulfonate; sodium

> <PUBCHEM_IUPAC_SYSTEMATIC_NAME>
sodium; (4E)-3-oxidanylidene-4-[(2,4,5-trimethylphenyl)hydrazinylidene]naphthalene-2,7-disulfonate; sodium

> <PUBCHEM_IUPAC_TRADITIONAL_NAME>
sodium; (4E)-3-keto-4-[(2,4,5-trimethylphenyl)hydrazono]naphthalene-2,7-disulfonate; sodium

> <PUBCHEM_IUPAC_INCHI>
InChI=1S/C19H18N2O7S2.2Na/c1-10-6-12(3)16(7-11(10)2)20-21-18-15-5-4-14(29(23,24)25)8-13(15)9-17(19(18)22)30(26,27)28;;/h4-9,20H,1-3H3,(H,23,24,25)(H,26,27,28);;/q;;+1/p-2/b21-18+;;

> <PUBCHEM_IUPAC_INCHIKEY>
GMJMEVSIXFVXDX-GQKUHHGYSA-L

> <PUBCHEM_EXACT_MASS>
494.019431

> <PUBCHEM_MOLECULAR_FORMULA>
C19H16N2Na2O7S2-

> <PUBCHEM_MOLECULAR_WEIGHT>
494.449079

> <PUBCHEM_OPENEYE_CAN_SMILES>
CC1=CC(=C(C=C1C)NN=C2C3=C(C=C(C=C3)S(=O)(=O)[O-])C=C(C2=O)S(=O)(=O)[O-])C.[Na].[Na+]

> <PUBCHEM_OPENEYE_ISO_SMILES>
CC1=CC(=C(C=C1C)N/N=C/2\C3=C(C=C(C=C3)S(=O)(=O)[O-])C=C(C2=O)S(=O)(=O)[O-])C.[Na].[Na+]

> <PUBCHEM_CACTVS_TPSA>
173

> <PUBCHEM_MONOISOTOPIC_WEIGHT>
494.019431

> <PUBCHEM_TOTAL_CHARGE>
-1

> <PUBCHEM_HEAVY_ATOM_COUNT>
32

> <PUBCHEM_ATOM_DEF_STEREO_COUNT>
0

> <PUBCHEM_ATOM_UDEF_STEREO_COUNT>
0

> <PUBCHEM_BOND_DEF_STEREO_COUNT>
1

> <PUBCHEM_BOND_UDEF_STEREO_COUNT>
0

> <PUBCHEM_ISOTOPIC_ATOM_COUNT>
0

> <PUBCHEM_COMPONENT_COUNT>
3

> <PUBCHEM_CACTVS_TAUTO_COUNT>
5

> <PUBCHEM_COORDINATE_TYPE>
1
5
255

> <PUBCHEM_BONDANNOTATIONS>
14  15  8
14  22  8
15  19  8
19  23  8
21  24  8
21  28  8
22  27  8
23  27  8
24  29  8
25  26  8
25  28  8
26  29  8

$$$$

