17395450
  -OEChem-06241222502D

 27 29  0     0  0  0  0  0  0999 V2000
    3.5878   -0.6919    0.0000 S   0  0  0  0  0  0  0  0  0  0  0  0
    5.1569    1.5192    0.0000 O   0  0  0  0  0  0  0  0  0  0  0  0
    8.5384   -1.1258    0.0000 O   0  0  0  0  0  0  0  0  0  0  0  0
    6.7447    2.3282    0.0000 O   0  0  0  0  0  0  0  0  0  0  0  0
    5.6569   -0.0197    0.0000 N   0  0  0  0  0  0  0  0  0  0  0  0
    3.8968    0.2591    0.0000 C   0  0  0  0  0  0  0  0  0  0  0  0
    4.8479    0.5681    0.0000 C   0  0  0  0  0  0  0  0  0  0  0  0
    2.5878   -0.6919    0.0000 C   0  0  0  0  0  0  0  0  0  0  0  0
    6.4659    0.5681    0.0000 C   0  0  0  0  0  0  0  0  0  0  0  0
    3.0878    0.8469    0.0000 C   0  0  0  0  0  0  0  0  0  0  0  0
    2.2788    0.2591    0.0000 C   0  0  0  0  0  0  0  0  0  0  0  0
    7.4170    0.2591    0.0000 C   0  0  0  0  0  0  0  0  0  0  0  0
    6.1569    1.5192    0.0000 C   0  0  0  0  0  0  0  0  0  0  0  0
    7.6249   -0.7190    0.0000 C   0  0  0  0  0  0  0  0  0  0  0  0
    2.0000   -1.5010    0.0000 C   0  0  0  0  0  0  0  0  0  0  0  0
    6.9557   -1.4622    0.0000 C   0  0  0  0  0  0  0  0  0  0  0  0
    7.4557   -2.3282    0.0000 C   0  0  0  0  0  0  0  0  0  0  0  0
    8.4339   -2.1203    0.0000 C   0  0  0  0  0  0  0  0  0  0  0  0
    3.0878    1.4669    0.0000 H   0  0  0  0  0  0  0  0  0  0  0  0
    1.6891    0.4507    0.0000 H   0  0  0  0  0  0  0  0  0  0  0  0
    7.8777    0.6740    0.0000 H   0  0  0  0  0  0  0  0  0  0  0  0
    1.4984   -1.1365    0.0000 H   0  0  0  0  0  0  0  0  0  0  0  0
    1.6356   -2.0026    0.0000 H   0  0  0  0  0  0  0  0  0  0  0  0
    2.5016   -1.8654    0.0000 H   0  0  0  0  0  0  0  0  0  0  0  0
    6.3391   -1.3974    0.0000 H   0  0  0  0  0  0  0  0  0  0  0  0
    7.2036   -2.8946    0.0000 H   0  0  0  0  0  0  0  0  0  0  0  0
    8.8946   -2.5351    0.0000 H   0  0  0  0  0  0  0  0  0  0  0  0
  1  6  1  0  0  0  0
  1  8  1  0  0  0  0
  2  7  1  0  0  0  0
  2 13  1  0  0  0  0
  3 14  1  0  0  0  0
  3 18  1  0  0  0  0
  4 13  2  0  0  0  0
  5  7  2  0  0  0  0
  5  9  1  0  0  0  0
  6  7  1  0  0  0  0
  6 10  2  0  0  0  0
  8 11  2  0  0  0  0
  8 15  1  0  0  0  0
  9 12  2  0  0  0  0
  9 13  1  0  0  0  0
 10 11  1  0  0  0  0
 10 19  1  0  0  0  0
 11 20  1  0  0  0  0
 12 14  1  0  0  0  0
 12 21  1  0  0  0  0
 14 16  2  0  0  0  0
 15 22  1  0  0  0  0
 15 23  1  0  0  0  0
 15 24  1  0  0  0  0
 16 17  1  0  0  0  0
 16 25  1  0  0  0  0
 17 18  2  0  0  0  0
 17 26  1  0  0  0  0
 18 27  1  0  0  0  0
M  END
> <PUBCHEM_COMPOUND_CID>
17395450

> <PUBCHEM_COMPOUND_CANONICALIZED>
1

> <PUBCHEM_CACTVS_COMPLEXITY>
419

> <PUBCHEM_CACTVS_HBOND_ACCEPTOR>
5

> <PUBCHEM_CACTVS_HBOND_DONOR>
0

> <PUBCHEM_CACTVS_ROTATABLE_BOND>
2

> <PUBCHEM_CACTVS_SUBSKEYS>
AAADccByMABAAAAAAAAAAAAAAAAAASJEAAAAAAAAAAAAAAAB4AAAHgQAAAAACAyh0AIyDYIABEisAKzyzAADCIAkKhBIiBmmCNgOJrKkNRqDGSCkwBEoqceIQAAAAAAAAAAAAAAAAAAAAAAAAAAAAAAAAA==

> <PUBCHEM_IUPAC_OPENEYE_NAME>
(4Z)-4-(2-furylmethylene)-2-(5-methyl-2-thienyl)oxazol-5-one

> <PUBCHEM_IUPAC_CAS_NAME>
(4Z)-4-(2-furanylmethylidene)-2-(5-methyl-2-thiophenyl)-5-oxazolone

> <PUBCHEM_IUPAC_NAME>
(4Z)-4-(furan-2-ylmethylidene)-2-(5-methylthiophen-2-yl)-1,3-oxazol-5-one

> <PUBCHEM_IUPAC_SYSTEMATIC_NAME>
(4Z)-4-(furan-2-ylmethylidene)-2-(5-methylthiophen-2-yl)-1,3-oxazol-5-one

> <PUBCHEM_IUPAC_TRADITIONAL_NAME>
(4Z)-4-(2-furfurylidene)-2-(5-methyl-2-thienyl)-2-oxazolin-5-one

> <PUBCHEM_IUPAC_INCHI>
InChI=1S/C13H9NO3S/c1-8-4-5-11(18-8)12-14-10(13(15)17-12)7-9-3-2-6-16-9/h2-7H,1H3/b10-7-

> <PUBCHEM_IUPAC_INCHIKEY>
LOXDRUSUQGGHSU-YFHOEESVSA-N

> <PUBCHEM_XLOGP3_AA>
3.1

> <PUBCHEM_EXACT_MASS>
259.030314

> <PUBCHEM_MOLECULAR_FORMULA>
C13H9NO3S

> <PUBCHEM_MOLECULAR_WEIGHT>
259.28046

> <PUBCHEM_OPENEYE_CAN_SMILES>
CC1=CC=C(S1)C2=NC(=CC3=CC=CO3)C(=O)O2

> <PUBCHEM_OPENEYE_ISO_SMILES>
CC1=CC=C(S1)C2=N/C(=C\C3=CC=CO3)/C(=O)O2

> <PUBCHEM_CACTVS_TPSA>
80

> <PUBCHEM_MONOISOTOPIC_WEIGHT>
259.030314

> <PUBCHEM_TOTAL_CHARGE>
0

> <PUBCHEM_HEAVY_ATOM_COUNT>
18

> <PUBCHEM_ATOM_DEF_STEREO_COUNT>
0

> <PUBCHEM_ATOM_UDEF_STEREO_COUNT>
0

> <PUBCHEM_BOND_DEF_STEREO_COUNT>
1

> <PUBCHEM_BOND_UDEF_STEREO_COUNT>
0

> <PUBCHEM_ISOTOPIC_ATOM_COUNT>
0

> <PUBCHEM_COMPONENT_COUNT>
1

> <PUBCHEM_CACTVS_TAUTO_COUNT>
3

> <PUBCHEM_COORDINATE_TYPE>
1
5
255

> <PUBCHEM_BONDANNOTATIONS>
1  6  8
1  8  8
10  11  8
14  16  8
16  17  8
17  18  8
3  14  8
3  18  8
6  10  8
8  11  8

$$$$

