6473
  -OEChem-06261201202D

 31 31  0     0  0  0  0  0  0999 V2000
    5.4641   -0.2321    0.0000 O   0  0  0  0  0  0  0  0  0  0  0  0
    2.0000   -0.2321    0.0000 O   0  0  0  0  0  0  0  0  0  0  0  0
    3.7320   -3.2320    0.0000 O   0  0  0  0  0  0  0  0  0  0  0  0
    4.5981   -1.7320    0.0000 N   0  0  0  0  0  0  0  0  0  0  0  0
    2.8660   -1.7320    0.0000 N   0  0  0  0  0  0  0  0  0  0  0  0
    3.7320   -0.2321    0.0000 C   0  0  0  0  0  0  0  0  0  0  0  0
    4.2320    0.6340    0.0000 C   0  0  0  0  0  0  0  0  0  0  0  0
    3.2320    0.6340    0.0000 C   0  0  0  0  0  0  0  0  0  0  0  0
    3.7320    1.5000    0.0000 C   0  0  0  0  0  0  0  0  0  0  0  0
    4.5981   -0.7321    0.0000 C   0  0  0  0  0  0  0  0  0  0  0  0
    2.8660   -0.7321    0.0000 C   0  0  0  0  0  0  0  0  0  0  0  0
    4.2320    2.3660    0.0000 C   0  0  0  0  0  0  0  0  0  0  0  0
    2.2320    0.6340    0.0000 C   0  0  0  0  0  0  0  0  0  0  0  0
    3.7320   -2.2320    0.0000 C   0  0  0  0  0  0  0  0  0  0  0  0
    3.7320    3.2320    0.0000 C   0  0  0  0  0  0  0  0  0  0  0  0
    4.7070    0.2354    0.0000 H   0  0  0  0  0  0  0  0  0  0  0  0
    4.7070    1.0325    0.0000 H   0  0  0  0  0  0  0  0  0  0  0  0
    3.8147    0.8460    0.0000 H   0  0  0  0  0  0  0  0  0  0  0  0
    3.1244    1.2446    0.0000 H   0  0  0  0  0  0  0  0  0  0  0  0
    3.2571    1.8985    0.0000 H   0  0  0  0  0  0  0  0  0  0  0  0
    3.2571    1.1015    0.0000 H   0  0  0  0  0  0  0  0  0  0  0  0
    4.7070    1.9675    0.0000 H   0  0  0  0  0  0  0  0  0  0  0  0
    4.7070    2.7646    0.0000 H   0  0  0  0  0  0  0  0  0  0  0  0
    2.2320    1.2540    0.0000 H   0  0  0  0  0  0  0  0  0  0  0  0
    1.6120    0.6340    0.0000 H   0  0  0  0  0  0  0  0  0  0  0  0
    2.2320    0.0140    0.0000 H   0  0  0  0  0  0  0  0  0  0  0  0
    5.1350   -2.0420    0.0000 H   0  0  0  0  0  0  0  0  0  0  0  0
    2.3291   -2.0420    0.0000 H   0  0  0  0  0  0  0  0  0  0  0  0
    4.2690    3.5420    0.0000 H   0  0  0  0  0  0  0  0  0  0  0  0
    3.4220    3.7690    0.0000 H   0  0  0  0  0  0  0  0  0  0  0  0
    3.1951    2.9220    0.0000 H   0  0  0  0  0  0  0  0  0  0  0  0
  1 10  2  0  0  0  0
  2 11  2  0  0  0  0
  3 14  2  0  0  0  0
  4 10  1  0  0  0  0
  4 14  1  0  0  0  0
  4 27  1  0  0  0  0
  5 11  1  0  0  0  0
  5 14  1  0  0  0  0
  5 28  1  0  0  0  0
  6  7  1  0  0  0  0
  6  8  1  0  0  0  0
  6 10  1  0  0  0  0
  6 11  1  0  0  0  0
  7  9  1  0  0  0  0
  7 16  1  0  0  0  0
  7 17  1  0  0  0  0
  8 13  1  0  0  0  0
  8 18  1  0  0  0  0
  8 19  1  0  0  0  0
  9 12  1  0  0  0  0
  9 20  1  0  0  0  0
  9 21  1  0  0  0  0
 12 15  1  0  0  0  0
 12 22  1  0  0  0  0
 12 23  1  0  0  0  0
 13 24  1  0  0  0  0
 13 25  1  0  0  0  0
 13 26  1  0  0  0  0
 15 29  1  0  0  0  0
 15 30  1  0  0  0  0
 15 31  1  0  0  0  0
M  END
> <PUBCHEM_COMPOUND_CID>
6473

> <PUBCHEM_COMPOUND_CANONICALIZED>
1

> <PUBCHEM_CACTVS_COMPLEXITY>
279

> <PUBCHEM_CACTVS_HBOND_ACCEPTOR>
3

> <PUBCHEM_CACTVS_HBOND_DONOR>
2

> <PUBCHEM_CACTVS_ROTATABLE_BOND>
4

> <PUBCHEM_CACTVS_SUBSKEYS>
AAADceBzMAAAAAAAAAAAAAAAAAAAAAAAAAAsAAAAAAAAAAAAAAAAHgAQAAAADgCBgAADAALAAAAIAAEQEAAAAAAAAAAAAAEAAACAABoIwAAEAAAIBSIAAAEYiAAPAAAAAAAAAAAAAAAAAAAAAAAAAAAAAA==

> <PUBCHEM_IUPAC_OPENEYE_NAME>
5-butyl-5-ethyl-hexahydropyrimidine-2,4,6-trione

> <PUBCHEM_IUPAC_CAS_NAME>
5-butyl-5-ethyl-1,3-diazinane-2,4,6-trione

> <PUBCHEM_IUPAC_NAME>
5-butyl-5-ethyl-1,3-diazinane-2,4,6-trione

> <PUBCHEM_IUPAC_SYSTEMATIC_NAME>
5-butyl-5-ethyl-1,3-diazinane-2,4,6-trione

> <PUBCHEM_IUPAC_TRADITIONAL_NAME>
5-butyl-5-ethyl-barbituric acid

> <PUBCHEM_IUPAC_INCHI>
InChI=1S/C10H16N2O3/c1-3-5-6-10(4-2)7(13)11-9(15)12-8(10)14/h3-6H2,1-2H3,(H2,11,12,13,14,15)

> <PUBCHEM_IUPAC_INCHIKEY>
STDBAQMTJLUMFW-UHFFFAOYSA-N

> <PUBCHEM_XLOGP3>
1.7

> <PUBCHEM_EXACT_MASS>
212.116092

> <PUBCHEM_MOLECULAR_FORMULA>
C10H16N2O3

> <PUBCHEM_MOLECULAR_WEIGHT>
212.24564

> <PUBCHEM_OPENEYE_CAN_SMILES>
CCCCC1(C(=O)NC(=O)NC1=O)CC

> <PUBCHEM_OPENEYE_ISO_SMILES>
CCCCC1(C(=O)NC(=O)NC1=O)CC

> <PUBCHEM_CACTVS_TPSA>
75.3

> <PUBCHEM_MONOISOTOPIC_WEIGHT>
212.116092

> <PUBCHEM_TOTAL_CHARGE>
0

> <PUBCHEM_HEAVY_ATOM_COUNT>
15

> <PUBCHEM_ATOM_DEF_STEREO_COUNT>
0

> <PUBCHEM_ATOM_UDEF_STEREO_COUNT>
0

> <PUBCHEM_BOND_DEF_STEREO_COUNT>
0

> <PUBCHEM_BOND_UDEF_STEREO_COUNT>
0

> <PUBCHEM_ISOTOPIC_ATOM_COUNT>
0

> <PUBCHEM_COMPONENT_COUNT>
1

> <PUBCHEM_CACTVS_TAUTO_COUNT>
5

> <PUBCHEM_COORDINATE_TYPE>
1
5
255

$$$$

