443697
  -OEChem-07051213032D

 91101  0     1  0  0  0  0  0999 V2000
    7.1498    0.1092    0.0000 O   0  0  0  0  0  0  0  0  0  0  0  0
    8.9157    3.2115    0.0000 O   0  0  0  0  0  0  0  0  0  0  0  0
    3.4519    4.1908    0.0000 O   0  0  0  0  0  0  0  0  0  0  0  0
    2.0000    3.3525    0.0000 O   0  0  0  0  0  0  0  0  0  0  0  0
   10.7312    4.2504    0.0000 O   0  0  0  0  0  0  0  0  0  0  0  0
    6.3417   -3.7554    0.0000 O   0  0  0  0  0  0  0  0  0  0  0  0
    8.0957   -3.6795    0.0000 O   0  0  0  0  0  0  0  0  0  0  0  0
    4.8362   -4.6401    0.0000 O   0  0  0  0  0  0  0  0  0  0  0  0
    9.5443   -4.5234    0.0000 O   0  0  0  0  0  0  0  0  0  0  0  0
    5.4178    0.1092    0.0000 N   0  0  3  0  0  0  0  0  0  0  0  0
    8.8859    0.0676    0.0000 N   0  0  3  0  0  0  0  0  0  0  0  0
    5.4178    1.1092    0.0000 C   0  0  1  0  0  0  0  0  0  0  0  0
    8.8819    1.1092    0.0000 C   0  0  1  0  0  0  0  0  0  0  0  0
    6.2838    1.6092    0.0000 C   0  0  0  0  0  0  0  0  0  0  0  0
    8.0159    1.6092    0.0000 C   0  0  0  0  0  0  0  0  0  0  0  0
    4.5518    1.6092    0.0000 C   0  0  0  0  0  0  0  0  0  0  0  0
    9.7860    1.6266    0.0000 C   0  0  0  0  0  0  0  0  0  0  0  0
    4.5518   -0.3908    0.0000 C   0  0  0  0  0  0  0  0  0  0  0  0
    9.7939   -0.4428    0.0000 C   0  0  0  0  0  0  0  0  0  0  0  0
    3.6857    1.1092    0.0000 C   0  0  0  0  0  0  0  0  0  0  0  0
    7.1498    1.1092    0.0000 C   0  0  0  0  0  0  0  0  0  0  0  0
    3.6857    0.1092    0.0000 C   0  0  0  0  0  0  0  0  0  0  0  0
   10.6820    1.0953    0.0000 C   0  0  0  0  0  0  0  0  0  0  0  0
   10.6619    0.0539    0.0000 C   0  0  0  0  0  0  0  0  0  0  0  0
    4.5678   -1.4323    0.0000 C   0  0  0  0  0  0  0  0  0  0  0  0
    9.7901   -1.4428    0.0000 C   0  0  0  0  0  0  0  0  0  0  0  0
    4.5678    2.6507    0.0000 C   0  0  0  0  0  0  0  0  0  0  0  0
    9.7818    2.7115    0.0000 C   0  0  0  0  0  0  0  0  0  0  0  0
    6.2838   -0.3908    0.0000 C   0  0  0  0  0  0  0  0  0  0  0  0
    8.0238   -0.4391    0.0000 C   0  0  0  0  0  0  0  0  0  0  0  0
    2.7757    1.6161    0.0000 C   0  0  0  0  0  0  0  0  0  0  0  0
    2.7757   -0.3976    0.0000 C   0  0  0  0  0  0  0  0  0  0  0  0
    3.6698   -1.9600    0.0000 C   0  0  0  0  0  0  0  0  0  0  0  0
   10.6542   -1.9461    0.0000 C   0  0  0  0  0  0  0  0  0  0  0  0
   11.5260   -0.4494    0.0000 C   0  0  0  0  0  0  0  0  0  0  0  0
   11.6359    1.6123    0.0000 C   0  0  0  0  0  0  0  0  0  0  0  0
    3.6698    3.1785    0.0000 C   0  0  0  0  0  0  0  0  0  0  0  0
    2.7677    2.6577    0.0000 C   0  0  0  0  0  0  0  0  0  0  0  0
    2.7677   -1.4392    0.0000 C   0  0  0  0  0  0  0  0  0  0  0  0
   10.7235    3.2504    0.0000 C   0  0  0  0  0  0  0  0  0  0  0  0
   11.5221   -1.4494    0.0000 C   0  0  0  0  0  0  0  0  0  0  0  0
    5.5197   -1.9529    0.0000 C   0  0  0  0  0  0  0  0  0  0  0  0
    8.8781   -1.9461    0.0000 C   0  0  0  0  0  0  0  0  0  0  0  0
   11.6568    2.6971    0.0000 C   0  0  0  0  0  0  0  0  0  0  0  0
    3.6614   -3.0450    0.0000 C   0  0  0  0  0  0  0  0  0  0  0  0
   10.6662   -2.9876    0.0000 C   0  0  0  0  0  0  0  0  0  0  0  0
    5.5365   -3.0378    0.0000 C   0  0  0  0  0  0  0  0  0  0  0  0
    8.8661   -2.9876    0.0000 C   0  0  0  0  0  0  0  0  0  0  0  0
    4.6010   -3.5875    0.0000 C   0  0  0  0  0  0  0  0  0  0  0  0
    9.7662   -3.5119    0.0000 C   0  0  0  0  0  0  0  0  0  0  0  0
    2.4220    4.2981    0.0000 C   0  0  0  0  0  0  0  0  0  0  0  0
    5.9097   -4.7437    0.0000 C   0  0  0  0  0  0  0  0  0  0  0  0
    8.5140   -4.6267    0.0000 C   0  0  0  0  0  0  0  0  0  0  0  0
    8.9157    4.2115    0.0000 C   0  0  0  0  0  0  0  0  0  0  0  0
   11.6011    4.7437    0.0000 C   0  0  0  0  0  0  0  0  0  0  0  0
    5.9547    0.7992    0.0000 H   0  0  0  0  0  0  0  0  0  0  0  0
    8.3455    0.7982    0.0000 H   0  0  0  0  0  0  0  0  0  0  0  0
    6.6823    2.0842    0.0000 H   0  0  0  0  0  0  0  0  0  0  0  0
    5.8853    2.0842    0.0000 H   0  0  0  0  0  0  0  0  0  0  0  0
    8.4144    2.0842    0.0000 H   0  0  0  0  0  0  0  0  0  0  0  0
    7.6173    2.0842    0.0000 H   0  0  0  0  0  0  0  0  0  0  0  0
    5.1083    2.9545    0.0000 H   0  0  0  0  0  0  0  0  0  0  0  0
    5.9738   -0.9277    0.0000 H   0  0  0  0  0  0  0  0  0  0  0  0
    6.8207   -0.7008    0.0000 H   0  0  0  0  0  0  0  0  0  0  0  0
    6.5938    0.1461    0.0000 H   0  0  0  0  0  0  0  0  0  0  0  0
    7.7096    0.0955    0.0000 H   0  0  0  0  0  0  0  0  0  0  0  0
    7.4892   -0.7532    0.0000 H   0  0  0  0  0  0  0  0  0  0  0  0
    8.3379   -0.9736    0.0000 H   0  0  0  0  0  0  0  0  0  0  0  0
    2.2424    1.2999    0.0000 H   0  0  0  0  0  0  0  0  0  0  0  0
    2.2424   -0.0814    0.0000 H   0  0  0  0  0  0  0  0  0  0  0  0
   12.0641   -0.1415    0.0000 H   0  0  0  0  0  0  0  0  0  0  0  0
   12.1655    1.2900    0.0000 H   0  0  0  0  0  0  0  0  0  0  0  0
    2.2296   -1.7472    0.0000 H   0  0  0  0  0  0  0  0  0  0  0  0
   12.0579   -1.7615    0.0000 H   0  0  0  0  0  0  0  0  0  0  0  0
    6.0506   -1.6326    0.0000 H   0  0  0  0  0  0  0  0  0  0  0  0
    8.3460   -1.6278    0.0000 H   0  0  0  0  0  0  0  0  0  0  0  0
   12.1984    2.9988    0.0000 H   0  0  0  0  0  0  0  0  0  0  0  0
    3.1233   -3.3529    0.0000 H   0  0  0  0  0  0  0  0  0  0  0  0
   11.2055   -3.2935    0.0000 H   0  0  0  0  0  0  0  0  0  0  0  0
    2.5507    4.9046    0.0000 H   0  0  0  0  0  0  0  0  0  0  0  0
    1.8324    4.4898    0.0000 H   0  0  0  0  0  0  0  0  0  0  0  0
    5.7857   -5.3511    0.0000 H   0  0  0  0  0  0  0  0  0  0  0  0
    6.5008   -4.9309    0.0000 H   0  0  0  0  0  0  0  0  0  0  0  0
    7.9237   -4.8162    0.0000 H   0  0  0  0  0  0  0  0  0  0  0  0
    8.6404   -5.2337    0.0000 H   0  0  0  0  0  0  0  0  0  0  0  0
    9.5358    4.2115    0.0000 H   0  0  0  0  0  0  0  0  0  0  0  0
    8.9157    4.8315    0.0000 H   0  0  0  0  0  0  0  0  0  0  0  0
    8.2958    4.2115    0.0000 H   0  0  0  0  0  0  0  0  0  0  0  0
   11.9069    4.2044    0.0000 H   0  0  0  0  0  0  0  0  0  0  0  0
   12.1404    5.0495    0.0000 H   0  0  0  0  0  0  0  0  0  0  0  0
   11.2952    5.2830    0.0000 H   0  0  0  0  0  0  0  0  0  0  0  0
  1 21  2  0  0  0  0
  2 28  1  0  0  0  0
  2 54  1  0  0  0  0
  3 37  1  0  0  0  0
  3 51  1  0  0  0  0
  4 38  1  0  0  0  0
  4 51  1  0  0  0  0
  5 40  1  0  0  0  0
  5 55  1  0  0  0  0
  6 47  1  0  0  0  0
  6 52  1  0  0  0  0
  7 48  1  0  0  0  0
  7 53  1  0  0  0  0
  8 49  1  0  0  0  0
  8 52  1  0  0  0  0
  9 50  1  0  0  0  0
  9 53  1  0  0  0  0
 10 12  1  0  0  0  0
 10 18  1  0  0  0  0
 10 29  1  0  0  0  0
 11 13  1  0  0  0  0
 11 19  1  0  0  0  0
 11 30  1  0  0  0  0
 12 14  1  6  0  0  0
 12 16  1  0  0  0  0
 12 56  1  0  0  0  0
 13 15  1  1  0  0  0
 13 17  1  0  0  0  0
 13 57  1  0  0  0  0
 14 21  1  0  0  0  0
 14 58  1  0  0  0  0
 14 59  1  0  0  0  0
 15 21  1  0  0  0  0
 15 60  1  0  0  0  0
 15 61  1  0  0  0  0
 16 20  1  0  0  0  0
 16 27  2  0  0  0  0
 17 23  2  0  0  0  0
 17 28  1  0  0  0  0
 18 22  2  0  0  0  0
 18 25  1  0  0  0  0
 19 24  2  0  0  0  0
 19 26  1  0  0  0  0
 20 22  1  0  0  0  0
 20 31  2  0  0  0  0
 22 32  1  0  0  0  0
 23 24  1  0  0  0  0
 23 36  1  0  0  0  0
 24 35  1  0  0  0  0
 25 33  1  0  0  0  0
 25 42  2  0  0  0  0
 26 34  1  0  0  0  0
 26 43  2  0  0  0  0
 27 37  1  0  0  0  0
 27 62  1  0  0  0  0
 28 40  2  0  0  0  0
 29 63  1  0  0  0  0
 29 64  1  0  0  0  0
 29 65  1  0  0  0  0
 30 66  1  0  0  0  0
 30 67  1  0  0  0  0
 30 68  1  0  0  0  0
 31 38  1  0  0  0  0
 31 69  1  0  0  0  0
 32 39  2  0  0  0  0
 32 70  1  0  0  0  0
 33 39  1  0  0  0  0
 33 45  2  0  0  0  0
 34 41  1  0  0  0  0
 34 46  2  0  0  0  0
 35 41  2  0  0  0  0
 35 71  1  0  0  0  0
 36 44  2  0  0  0  0
 36 72  1  0  0  0  0
 37 38  2  0  0  0  0
 39 73  1  0  0  0  0
 40 44  1  0  0  0  0
 41 74  1  0  0  0  0
 42 47  1  0  0  0  0
 42 75  1  0  0  0  0
 43 48  1  0  0  0  0
 43 76  1  0  0  0  0
 44 77  1  0  0  0  0
 45 49  1  0  0  0  0
 45 78  1  0  0  0  0
 46 50  1  0  0  0  0
 46 79  1  0  0  0  0
 47 49  2  0  0  0  0
 48 50  2  0  0  0  0
 51 80  1  0  0  0  0
 51 81  1  0  0  0  0
 52 82  1  0  0  0  0
 52 83  1  0  0  0  0
 53 84  1  0  0  0  0
 53 85  1  0  0  0  0
 54 86  1  0  0  0  0
 54 87  1  0  0  0  0
 54 88  1  0  0  0  0
 55 89  1  0  0  0  0
 55 90  1  0  0  0  0
 55 91  1  0  0  0  0
M  END
> <PUBCHEM_COMPOUND_CID>
443697

> <PUBCHEM_COMPOUND_CANONICALIZED>
1

> <PUBCHEM_CACTVS_COMPLEXITY>
1420

> <PUBCHEM_CACTVS_HBOND_ACCEPTOR>
11

> <PUBCHEM_CACTVS_HBOND_DONOR>
0

> <PUBCHEM_CACTVS_ROTATABLE_BOND>
6

> <PUBCHEM_CACTVS_SUBSKEYS>
AAADcfB/PAAAAAAAAAAAAAAAAAAAASJEgAA8eMGDAAAAAEjxVAAAHgAAAAAADCzBmAcyzsMABACIAqRSQACCCAAhIAAIiAEOzIgdJjrEsZukMCpmwBHO6Ae43PPO4AADQAAaQADAAAaAADSAAAAAAAAAAA==

> <PUBCHEM_IUPAC_INCHI>
InChI=1S/C44H36N2O9/c1-45-32(31-18-40-39(54-21-55-40)17-30(31)27-8-6-23-12-36-38(53-20-51-36)16-29(23)43(27)45)13-24(47)14-33-41-25(9-10-34(48-3)44(41)49-4)26-7-5-22-11-35-37(52-19-50-35)15-28(22)42(26)46(33)2/h5-12,15-18,32-33H,13-14,19-21H2,1-4H3/t32-,33-/m0/s1

> <PUBCHEM_IUPAC_INCHIKEY>
MQZDOSAHCDNWQT-LQJZCPKCSA-N

> <PUBCHEM_XLOGP3_AA>
7.8

> <PUBCHEM_EXACT_MASS>
736.242081

> <PUBCHEM_MOLECULAR_FORMULA>
C44H36N2O9

> <PUBCHEM_MOLECULAR_WEIGHT>
736.76464

> <PUBCHEM_OPENEYE_CAN_SMILES>
CN1C(C2=CC3=C(C=C2C4=C1C5=CC6=C(C=C5C=C4)OCO6)OCO3)CC(=O)CC7C8=C(C=CC(=C8OC)OC)C9=C(N7C)C1=CC2=C(C=C1C=C9)OCO2

> <PUBCHEM_OPENEYE_ISO_SMILES>
CN1[C@H](C2=CC3=C(C=C2C4=C1C5=CC6=C(C=C5C=C4)OCO6)OCO3)CC(=O)C[C@H]7C8=C(C=CC(=C8OC)OC)C9=C(N7C)C1=CC2=C(C=C1C=C9)OCO2

> <PUBCHEM_CACTVS_TPSA>
97.4

> <PUBCHEM_MONOISOTOPIC_WEIGHT>
736.242081

> <PUBCHEM_TOTAL_CHARGE>
0

> <PUBCHEM_HEAVY_ATOM_COUNT>
55

> <PUBCHEM_ATOM_DEF_STEREO_COUNT>
2

> <PUBCHEM_ATOM_UDEF_STEREO_COUNT>
0

> <PUBCHEM_BOND_DEF_STEREO_COUNT>
0

> <PUBCHEM_BOND_UDEF_STEREO_COUNT>
0

> <PUBCHEM_ISOTOPIC_ATOM_COUNT>
0

> <PUBCHEM_COMPONENT_COUNT>
1

> <PUBCHEM_CACTVS_TAUTO_COUNT>
3

> <PUBCHEM_COORDINATE_TYPE>
1
5
255

> <PUBCHEM_BONDANNOTATIONS>
12  14  6
13  15  5
16  20  8
16  27  8
17  23  8
17  28  8
18  22  8
18  25  8
19  24  8
19  26  8
20  31  8
22  32  8
23  36  8
24  35  8
25  33  8
25  42  8
26  34  8
26  43  8
27  37  8
28  40  8
31  38  8
32  39  8
33  39  8
33  45  8
34  41  8
34  46  8
35  41  8
36  44  8
37  38  8
40  44  8
42  47  8
43  48  8
45  49  8
46  50  8
47  49  8
48  50  8

$$$$

