   Color/Form
        Colorless solid
   from [1]HSDB

   Melting Point
        90.5 deg C
   from [2]HSDB

   Density/Specific Gravity
        1.21 g/cu cm
   from [3]HSDB

   Dissociation Constants
        pKa = 4.53
   from [4]HSDB

   Octanol/Water Partition Coefficient
        log Kow = 1.7
   from [5]HSDB

   Solubilities

     * 4 g/l in acetone @ 25 deg C; 2.5 g/l in ethanol at 25 deg C; 2.9
       g/l in xylene at 25 deg C; 3.3 g/l in chloroform at 25 deg C
     * In water, 2,700 mg/l @ 25 deg C

   from [6]HSDB

   Vapor Pressure
        7.28X10-6 mm Hg @ 25 deg C
   from [7]HSDB

   Computed Properties
   Molecular Weight                  238.28622 [g/mol]
   Molecular Formula                 C[11]H[18]N[4]O[2]
   XLogP3                            1.7
   H-Bond Donor                      0
   H-Bond Acceptor                   5
   Rotatable Bond Count              3
   Exact Mass                        238.142976
   MonoIsotopic Mass                 238.142976
   Topological Polar Surface Area    58.6
   Heavy Atom Count                  17
   Formal Charge                     0
   Complexity                        270
   Isotope Atom Count                0
   Defined Atom Stereocenter Count   0
   Undefined Atom Stereocenter Count 0
   Defined Bond Stereocenter Count   0
   Undefined Bond Stereocenter Count 0
   Covalently-Bonded Unit Count      1
   Feature 3D Acceptor Count         1
   Feature 3D Cation Count           1
   Feature 3D Ring Count             1
   Effective Rotor Count             4
   Conformer Sampling RMSD           0.6
   CID Conformer Count               [8]31

References

   1. http://toxnet.nlm.nih.gov/cgi-bin/sis/search/r?dbs+hsdb:@term+@rn+@rel+23103-98-2
   2. http://toxnet.nlm.nih.gov/cgi-bin/sis/search/r?dbs+hsdb:@term+@rn+@rel+23103-98-2
   3. http://toxnet.nlm.nih.gov/cgi-bin/sis/search/r?dbs+hsdb:@term+@rn+@rel+23103-98-2
   4. http://toxnet.nlm.nih.gov/cgi-bin/sis/search/r?dbs+hsdb:@term+@rn+@rel+23103-98-2
   5. http://toxnet.nlm.nih.gov/cgi-bin/sis/search/r?dbs+hsdb:@term+@rn+@rel+23103-98-2
   6. http://toxnet.nlm.nih.gov/cgi-bin/sis/search/r?dbs+hsdb:@term+@rn+@rel+23103-98-2
   7. http://toxnet.nlm.nih.gov/cgi-bin/sis/search/r?dbs+hsdb:@term+@rn+@rel+23103-98-2
   8. http://pubchem.ncbi.nlm.nih.gov/vw3d/vw3d.cgi?cid=31645
