177562
  -OEChem-07051213002D

 67 70  0     1  0  0  0  0  0999 V2000
    4.3472   -3.0990    0.0000 O   0  0  0  0  0  0  0  0  0  0  0  0
    2.5357   -2.0532    0.0000 O   0  0  0  0  0  0  0  0  0  0  0  0
   10.1642    2.4606    0.0000 N   0  0  0  0  0  0  0  0  0  0  0  0
    7.9288   -0.0009    0.0000 C   0  0  2  0  0  0  0  0  0  0  0  0
    7.9288    0.9991    0.0000 C   0  0  1  0  0  0  0  0  0  0  0  0
    7.0628   -0.5009    0.0000 C   0  0  1  0  0  0  0  0  0  0  0  0
    6.1968   -0.0009    0.0000 C   0  0  1  0  0  0  0  0  0  0  0  0
    5.2868   -0.5077    0.0000 C   0  0  2  0  0  0  0  0  0  0  0  0
    8.8750    1.3038    0.0000 C   0  0  2  0  0  0  0  0  0  0  0  0
    5.2787   -1.5493    0.0000 C   0  0  1  0  0  0  0  0  0  0  0  0
    7.0628    1.4991    0.0000 C   0  0  0  0  0  0  0  0  0  0  0  0
    6.1968    0.9991    0.0000 C   0  0  0  0  0  0  0  0  0  0  0  0
    8.8750   -0.3056    0.0000 C   0  0  0  0  0  0  0  0  0  0  0  0
    7.0789   -1.5424    0.0000 C   0  0  0  0  0  0  0  0  0  0  0  0
    9.4586    0.4991    0.0000 C   0  0  0  0  0  0  0  0  0  0  0  0
    6.1808   -2.0701    0.0000 C   0  0  0  0  0  0  0  0  0  0  0  0
    4.3599    0.0564    0.0000 C   0  0  0  0  0  0  0  0  0  0  0  0
    4.3433   -2.0990    0.0000 C   0  0  1  0  0  0  0  0  0  0  0  0
    7.9288    1.9991    0.0000 C   0  0  0  0  0  0  0  0  0  0  0  0
    9.1857    2.2544    0.0000 C   0  0  2  0  0  0  0  0  0  0  0  0
    5.2945    0.4922    0.0000 C   0  0  0  0  0  0  0  0  0  0  0  0
    3.4120   -0.4716    0.0000 C   0  0  0  0  0  0  0  0  0  0  0  0
    3.4037   -1.5566    0.0000 C   0  0  2  0  0  0  0  0  0  0  0  0
    8.5179    2.9987    0.0000 C   0  0  0  0  0  0  0  0  0  0  0  0
   10.4749    3.4111    0.0000 C   0  0  0  0  0  0  0  0  0  0  0  0
   10.8321    1.7163    0.0000 C   0  0  0  0  0  0  0  0  0  0  0  0
    8.0188   -0.8461    0.0000 H   0  0  0  0  0  0  0  0  0  0  0  0
    7.8022   -0.9202    0.0000 H   0  0  0  0  0  0  0  0  0  0  0  0
    6.9329    0.4241    0.0000 H   0  0  0  0  0  0  0  0  0  0  0  0
    9.7148    1.4357    0.0000 H   0  0  0  0  0  0  0  0  0  0  0  0
    5.2820   -2.3993    0.0000 H   0  0  0  0  0  0  0  0  0  0  0  0
    7.4613    1.9741    0.0000 H   0  0  0  0  0  0  0  0  0  0  0  0
    6.6643    1.9741    0.0000 H   0  0  0  0  0  0  0  0  0  0  0  0
    5.9847    1.5817    0.0000 H   0  0  0  0  0  0  0  0  0  0  0  0
    5.5862    0.8915    0.0000 H   0  0  0  0  0  0  0  0  0  0  0  0
    8.6240   -0.8725    0.0000 H   0  0  0  0  0  0  0  0  0  0  0  0
    9.4124   -0.6148    0.0000 H   0  0  0  0  0  0  0  0  0  0  0  0
    7.2969   -2.1228    0.0000 H   0  0  0  0  0  0  0  0  0  0  0  0
    7.6880   -1.4269    0.0000 H   0  0  0  0  0  0  0  0  0  0  0  0
    9.9195    0.0844    0.0000 H   0  0  0  0  0  0  0  0  0  0  0  0
    9.9195    0.9138    0.0000 H   0  0  0  0  0  0  0  0  0  0  0  0
    5.7835   -2.5461    0.0000 H   0  0  0  0  0  0  0  0  0  0  0  0
    6.5818   -2.5430    0.0000 H   0  0  0  0  0  0  0  0  0  0  0  0
    4.7681    0.5230    0.0000 H   0  0  0  0  0  0  0  0  0  0  0  0
    3.9700    0.5384    0.0000 H   0  0  0  0  0  0  0  0  0  0  0  0
    3.8070   -2.4101    0.0000 H   0  0  0  0  0  0  0  0  0  0  0  0
    8.5488    1.9991    0.0000 H   0  0  0  0  0  0  0  0  0  0  0  0
    7.9288    2.6191    0.0000 H   0  0  0  0  0  0  0  0  0  0  0  0
    7.3088    1.9991    0.0000 H   0  0  0  0  0  0  0  0  0  0  0  0
    9.3783    2.8437    0.0000 H   0  0  0  0  0  0  0  0  0  0  0  0
    5.9145    0.4875    0.0000 H   0  0  0  0  0  0  0  0  0  0  0  0
    5.2993    1.1122    0.0000 H   0  0  0  0  0  0  0  0  0  0  0  0
    4.6745    0.4970    0.0000 H   0  0  0  0  0  0  0  0  0  0  0  0
    3.2075    0.1137    0.0000 H   0  0  0  0  0  0  0  0  0  0  0  0
    2.8004   -0.5730    0.0000 H   0  0  0  0  0  0  0  0  0  0  0  0
    2.8686   -1.2434    0.0000 H   0  0  0  0  0  0  0  0  0  0  0  0
    8.9793    3.4127    0.0000 H   0  0  0  0  0  0  0  0  0  0  0  0
    8.1038    3.4601    0.0000 H   0  0  0  0  0  0  0  0  0  0  0  0
    8.0564    2.5846    0.0000 H   0  0  0  0  0  0  0  0  0  0  0  0
    3.8114   -3.4111    0.0000 H   0  0  0  0  0  0  0  0  0  0  0  0
    2.0000   -1.7411    0.0000 H   0  0  0  0  0  0  0  0  0  0  0  0
   10.3706    1.3022    0.0000 H   0  0  0  0  0  0  0  0  0  0  0  0
   11.0642    3.2185    0.0000 H   0  0  0  0  0  0  0  0  0  0  0  0
   11.2461    1.2548    0.0000 H   0  0  0  0  0  0  0  0  0  0  0  0
   11.2935    2.1304    0.0000 H   0  0  0  0  0  0  0  0  0  0  0  0
   10.6675    4.0004    0.0000 H   0  0  0  0  0  0  0  0  0  0  0  0
    9.8856    3.6037    0.0000 H   0  0  0  0  0  0  0  0  0  0  0  0
 18  1  1  6  0  0  0
  1 60  1  0  0  0  0
 23  2  1  1  0  0  0
  2 61  1  0  0  0  0
 20  3  1  6  0  0  0
  3 25  1  0  0  0  0
  3 26  1  0  0  0  0
  4  5  1  0  0  0  0
  4  6  1  0  0  0  0
  4 13  1  0  0  0  0
  4 27  1  6  0  0  0
  5  9  1  0  0  0  0
  5 11  1  0  0  0  0
  5 19  1  1  0  0  0
  6  7  1  0  0  0  0
  6 14  1  0  0  0  0
  6 28  1  1  0  0  0
  7  8  1  0  0  0  0
  7 12  1  0  0  0  0
  7 29  1  6  0  0  0
  8 10  1  0  0  0  0
  8 17  1  0  0  0  0
  8 21  1  1  0  0  0
  9 15  1  0  0  0  0
  9 20  1  0  0  0  0
  9 30  1  6  0  0  0
 10 16  1  0  0  0  0
 10 18  1  0  0  0  0
 10 31  1  6  0  0  0
 11 12  1  0  0  0  0
 11 32  1  0  0  0  0
 11 33  1  0  0  0  0
 12 34  1  0  0  0  0
 12 35  1  0  0  0  0
 13 15  1  0  0  0  0
 13 36  1  0  0  0  0
 13 37  1  0  0  0  0
 14 16  1  0  0  0  0
 14 38  1  0  0  0  0
 14 39  1  0  0  0  0
 15 40  1  0  0  0  0
 15 41  1  0  0  0  0
 16 42  1  0  0  0  0
 16 43  1  0  0  0  0
 17 22  1  0  0  0  0
 17 44  1  0  0  0  0
 17 45  1  0  0  0  0
 18 23  1  0  0  0  0
 18 46  1  0  0  0  0
 19 47  1  0  0  0  0
 19 48  1  0  0  0  0
 19 49  1  0  0  0  0
 20 24  1  0  0  0  0
 20 50  1  0  0  0  0
 21 51  1  0  0  0  0
 21 52  1  0  0  0  0
 21 53  1  0  0  0  0
 22 23  1  0  0  0  0
 22 54  1  0  0  0  0
 22 55  1  0  0  0  0
 23 56  1  0  0  0  0
 24 57  1  0  0  0  0
 24 58  1  0  0  0  0
 24 59  1  0  0  0  0
 25 63  1  0  0  0  0
 25 66  1  0  0  0  0
 25 67  1  0  0  0  0
 26 62  1  0  0  0  0
 26 64  1  0  0  0  0
 26 65  1  0  0  0  0
M  END
> <PUBCHEM_COMPOUND_CID>
177562

> <PUBCHEM_COMPOUND_CANONICALIZED>
1

> <PUBCHEM_CACTVS_COMPLEXITY>
536

> <PUBCHEM_CACTVS_HBOND_ACCEPTOR>
3

> <PUBCHEM_CACTVS_HBOND_DONOR>
2

> <PUBCHEM_CACTVS_ROTATABLE_BOND>
2

> <PUBCHEM_CACTVS_SUBSKEYS>
AAADcfB6MAAAAAAAAAAAAAAAAAAAAYAAAAAwYMAAAAAAAGDAAAAAHgAACAAADzzhgAYCAAMAAgAAAAAAAAAAAAAAAAAAAAAIAAABEAIAgAAEQAAEAAABAAGQwPAPgAAAAAAAAADAAAYAADCAAQAACAAAAA==

> <PUBCHEM_IUPAC_OPENEYE_NAME>
(3S,4S,5R,8S,9S,10R,13S,14S,17S)-17-[(1S)-1-(dimethylamino)ethyl]-10,13-dimethyl-2,3,4,5,6,7,8,9,11,12,14,15,16,17-tetradecahydro-1H-cyclopenta[a]phenanthrene-3,4-diol

> <PUBCHEM_IUPAC_CAS_NAME>
(3S,4S,5R,8S,9S,10R,13S,14S,17S)-17-[(1S)-1-(dimethylamino)ethyl]-10,13-dimethyl-2,3,4,5,6,7,8,9,11,12,14,15,16,17-tetradecahydro-1H-cyclopenta[a]phenanthrene-3,4-diol

> <PUBCHEM_IUPAC_NAME>
(3S,4S,5R,8S,9S,10R,13S,14S,17S)-17-[(1S)-1-(dimethylamino)ethyl]-10,13-dimethyl-2,3,4,5,6,7,8,9,11,12,14,15,16,17-tetradecahydro-1H-cyclopenta[a]phenanthrene-3,4-diol

> <PUBCHEM_IUPAC_SYSTEMATIC_NAME>
(3S,4S,5R,8S,9S,10R,13S,14S,17S)-17-[(1S)-1-(dimethylamino)ethyl]-10,13-dimethyl-2,3,4,5,6,7,8,9,11,12,14,15,16,17-tetradecahydro-1H-cyclopenta[a]phenanthrene-3,4-diol

> <PUBCHEM_IUPAC_TRADITIONAL_NAME>
(3S,4S,5R,8S,9S,10R,13S,14S,17S)-17-[(1S)-1-(dimethylamino)ethyl]-10,13-dimethyl-2,3,4,5,6,7,8,9,11,12,14,15,16,17-tetradecahydro-1H-cyclopenta[a]phenanthrene-3,4-diol

> <PUBCHEM_IUPAC_INCHI>
InChI=1S/C23H41NO2/c1-14(24(4)5)16-8-9-17-15-6-7-19-21(26)20(25)11-13-23(19,3)18(15)10-12-22(16,17)2/h14-21,25-26H,6-13H2,1-5H3/t14-,15-,16+,17-,18-,19-,20-,21-,22+,23+/m0/s1

> <PUBCHEM_IUPAC_INCHIKEY>
QTNGLMWAVBOBLJ-RCFZRFIHSA-N

> <PUBCHEM_XLOGP3_AA>
4.7

> <PUBCHEM_EXACT_MASS>
363.31373

> <PUBCHEM_MOLECULAR_FORMULA>
C23H41NO2

> <PUBCHEM_MOLECULAR_WEIGHT>
363.57714

> <PUBCHEM_OPENEYE_CAN_SMILES>
CC(C1CCC2C1(CCC3C2CCC4C3(CCC(C4O)O)C)C)N(C)C

> <PUBCHEM_OPENEYE_ISO_SMILES>
C[C@@H]([C@H]1CC[C@@H]2[C@@]1(CC[C@H]3[C@H]2CC[C@@H]4[C@@]3(CC[C@@H]([C@H]4O)O)C)C)N(C)C

> <PUBCHEM_CACTVS_TPSA>
43.7

> <PUBCHEM_MONOISOTOPIC_WEIGHT>
363.31373

> <PUBCHEM_TOTAL_CHARGE>
0

> <PUBCHEM_HEAVY_ATOM_COUNT>
26

> <PUBCHEM_ATOM_DEF_STEREO_COUNT>
10

> <PUBCHEM_ATOM_UDEF_STEREO_COUNT>
0

> <PUBCHEM_BOND_DEF_STEREO_COUNT>
0

> <PUBCHEM_BOND_UDEF_STEREO_COUNT>
0

> <PUBCHEM_ISOTOPIC_ATOM_COUNT>
0

> <PUBCHEM_COMPONENT_COUNT>
1

> <PUBCHEM_CACTVS_TAUTO_COUNT>
1

> <PUBCHEM_COORDINATE_TYPE>
1
5
255

> <PUBCHEM_BONDANNOTATIONS>
18  1  6
10  31  6
23  2  5
20  3  6
4  27  6
5  19  5
6  28  5
7  29  6
8  21  5
9  30  6

$$$$

