24892797
  -OEChem-07051213082D

100 99  0     1  0  0  0  0  0999 V2000
    7.7331   -1.3450    0.0000 S   0  0  0  0  0  0  0  0  0  0  0  0
   26.7856   -1.3450    0.0000 S   0  0  0  0  0  0  0  0  0  0  0  0
   12.0632   -0.8450    0.0000 O   0  0  0  0  0  0  0  0  0  0  0  0
    9.4651    1.6550    0.0000 O   0  0  0  0  0  0  0  0  0  0  0  0
   22.4555   -0.8450    0.0000 O   0  0  0  0  0  0  0  0  0  0  0  0
    6.8671   -0.8450    0.0000 O   0  0  0  0  0  0  0  0  0  0  0  0
   27.6517   -0.8450    0.0000 O   0  0  0  0  0  0  0  0  0  0  0  0
   25.0536    1.6550    0.0000 O   0  0  0  0  0  0  0  0  0  0  0  0
    2.5369    0.6550    0.0000 O   0  0  0  0  0  0  0  0  0  0  0  0
   31.9818    0.6550    0.0000 O   0  0  0  0  0  0  0  0  0  0  0  0
    3.4030   -0.8450    0.0000 O   0  0  0  0  0  0  0  0  0  0  0  0
   31.1158   -0.8450    0.0000 O   0  0  0  0  0  0  0  0  0  0  0  0
   18.1254    0.6550    0.0000 N   0  0  0  0  0  0  0  0  0  0  0  0
   12.9292    0.6550    0.0000 N   0  0  0  0  0  0  0  0  0  0  0  0
   21.5895    0.6550    0.0000 N   0  0  0  0  0  0  0  0  0  0  0  0
    7.7331    0.6550    0.0000 N   0  0  0  0  0  0  0  0  0  0  0  0
   26.7856    0.6550    0.0000 N   0  0  0  0  0  0  0  0  0  0  0  0
   10.3312    0.1550    0.0000 N   0  0  0  0  0  0  0  0  0  0  0  0
   24.1876    0.1550    0.0000 N   0  0  0  0  0  0  0  0  0  0  0  0
    4.2690    1.6550    0.0000 N   0  0  0  0  0  0  0  0  0  0  0  0
   30.2497    1.6550    0.0000 N   0  0  0  0  0  0  0  0  0  0  0  0
   15.5273    0.1550    0.0000 C   0  0  0  0  0  0  0  0  0  0  0  0
   16.3933    0.6550    0.0000 C   0  0  0  0  0  0  0  0  0  0  0  0
   14.6613    0.6550    0.0000 C   0  0  0  0  0  0  0  0  0  0  0  0
   17.2594    0.1550    0.0000 C   0  0  0  0  0  0  0  0  0  0  0  0
   18.9914    0.1550    0.0000 C   0  0  0  0  0  0  0  0  0  0  0  0
   13.7953    0.1550    0.0000 C   0  0  0  0  0  0  0  0  0  0  0  0
   19.8574    0.6550    0.0000 C   0  0  0  0  0  0  0  0  0  0  0  0
   20.7235    0.1550    0.0000 C   0  0  0  0  0  0  0  0  0  0  0  0
    8.5991    0.1550    0.0000 C   0  0  2  0  0  0  0  0  0  0  0  0
   12.0632    0.1550    0.0000 C   0  0  0  0  0  0  0  0  0  0  0  0
   25.9196    0.1550    0.0000 C   0  0  2  0  0  0  0  0  0  0  0  0
   11.1972    0.6550    0.0000 C   0  0  0  0  0  0  0  0  0  0  0  0
    5.1350    0.1550    0.0000 C   0  0  0  0  0  0  0  0  0  0  0  0
   29.3837    0.1550    0.0000 C   0  0  0  0  0  0  0  0  0  0  0  0
    6.0010    0.6550    0.0000 C   0  0  0  0  0  0  0  0  0  0  0  0
   28.5177    0.6550    0.0000 C   0  0  0  0  0  0  0  0  0  0  0  0
    4.2690    0.6550    0.0000 C   0  0  1  0  0  0  0  0  0  0  0  0
   30.2497    0.6550    0.0000 C   0  0  1  0  0  0  0  0  0  0  0  0
    9.4651    0.6550    0.0000 C   0  0  0  0  0  0  0  0  0  0  0  0
   22.4555    0.1550    0.0000 C   0  0  0  0  0  0  0  0  0  0  0  0
   23.3215    0.6550    0.0000 C   0  0  0  0  0  0  0  0  0  0  0  0
    6.8671    0.1550    0.0000 C   0  0  0  0  0  0  0  0  0  0  0  0
   27.6517    0.1550    0.0000 C   0  0  0  0  0  0  0  0  0  0  0  0
   25.0536    0.6550    0.0000 C   0  0  0  0  0  0  0  0  0  0  0  0
    8.5991   -0.8450    0.0000 C   0  0  0  0  0  0  0  0  0  0  0  0
   25.9196   -0.8450    0.0000 C   0  0  0  0  0  0  0  0  0  0  0  0
    3.4030    0.1550    0.0000 C   0  0  0  0  0  0  0  0  0  0  0  0
   31.1158    0.1550    0.0000 C   0  0  0  0  0  0  0  0  0  0  0  0
   15.1288   -0.3199    0.0000 H   0  0  0  0  0  0  0  0  0  0  0  0
   15.9258   -0.3199    0.0000 H   0  0  0  0  0  0  0  0  0  0  0  0
   16.7919    1.1300    0.0000 H   0  0  0  0  0  0  0  0  0  0  0  0
   15.9948    1.1300    0.0000 H   0  0  0  0  0  0  0  0  0  0  0  0
   15.0598    1.1300    0.0000 H   0  0  0  0  0  0  0  0  0  0  0  0
   14.2628    1.1300    0.0000 H   0  0  0  0  0  0  0  0  0  0  0  0
   16.8608   -0.3199    0.0000 H   0  0  0  0  0  0  0  0  0  0  0  0
   17.6579   -0.3199    0.0000 H   0  0  0  0  0  0  0  0  0  0  0  0
   18.5929   -0.3199    0.0000 H   0  0  0  0  0  0  0  0  0  0  0  0
   19.3899   -0.3199    0.0000 H   0  0  0  0  0  0  0  0  0  0  0  0
   13.3967   -0.3199    0.0000 H   0  0  0  0  0  0  0  0  0  0  0  0
   14.1938   -0.3199    0.0000 H   0  0  0  0  0  0  0  0  0  0  0  0
   18.1254    1.2750    0.0000 H   0  0  0  0  0  0  0  0  0  0  0  0
   20.2560    1.1300    0.0000 H   0  0  0  0  0  0  0  0  0  0  0  0
   19.4589    1.1300    0.0000 H   0  0  0  0  0  0  0  0  0  0  0  0
   20.3249   -0.3199    0.0000 H   0  0  0  0  0  0  0  0  0  0  0  0
   21.1220   -0.3199    0.0000 H   0  0  0  0  0  0  0  0  0  0  0  0
   12.9292    1.2750    0.0000 H   0  0  0  0  0  0  0  0  0  0  0  0
    8.5991    0.7750    0.0000 H   0  0  0  0  0  0  0  0  0  0  0  0
   21.5895    1.2750    0.0000 H   0  0  0  0  0  0  0  0  0  0  0  0
   26.4566   -0.1550    0.0000 H   0  0  0  0  0  0  0  0  0  0  0  0
    4.7365   -0.3199    0.0000 H   0  0  0  0  0  0  0  0  0  0  0  0
    5.5335   -0.3199    0.0000 H   0  0  0  0  0  0  0  0  0  0  0  0
   11.5957    1.1300    0.0000 H   0  0  0  0  0  0  0  0  0  0  0  0
   10.7987    1.1300    0.0000 H   0  0  0  0  0  0  0  0  0  0  0  0
   28.9852   -0.3199    0.0000 H   0  0  0  0  0  0  0  0  0  0  0  0
   29.7823   -0.3199    0.0000 H   0  0  0  0  0  0  0  0  0  0  0  0
    6.3996    1.1300    0.0000 H   0  0  0  0  0  0  0  0  0  0  0  0
    5.6025    1.1300    0.0000 H   0  0  0  0  0  0  0  0  0  0  0  0
   28.9162    1.1300    0.0000 H   0  0  0  0  0  0  0  0  0  0  0  0
   28.1192    1.1300    0.0000 H   0  0  0  0  0  0  0  0  0  0  0  0
    4.8059    0.9650    0.0000 H   0  0  0  0  0  0  0  0  0  0  0  0
   29.7128    0.9650    0.0000 H   0  0  0  0  0  0  0  0  0  0  0  0
    7.7331    1.2750    0.0000 H   0  0  0  0  0  0  0  0  0  0  0  0
   23.7201    1.1300    0.0000 H   0  0  0  0  0  0  0  0  0  0  0  0
   22.9230    1.1300    0.0000 H   0  0  0  0  0  0  0  0  0  0  0  0
   26.7856    1.2750    0.0000 H   0  0  0  0  0  0  0  0  0  0  0  0
   10.3312   -0.4650    0.0000 H   0  0  0  0  0  0  0  0  0  0  0  0
    8.8112   -1.4276    0.0000 H   0  0  0  0  0  0  0  0  0  0  0  0
    9.2097   -0.7373    0.0000 H   0  0  0  0  0  0  0  0  0  0  0  0
   25.3090   -0.7373    0.0000 H   0  0  0  0  0  0  0  0  0  0  0  0
   25.7076   -1.4276    0.0000 H   0  0  0  0  0  0  0  0  0  0  0  0
   24.1876   -0.4650    0.0000 H   0  0  0  0  0  0  0  0  0  0  0  0
    3.7320    1.9650    0.0000 H   0  0  0  0  0  0  0  0  0  0  0  0
    4.8059    1.9650    0.0000 H   0  0  0  0  0  0  0  0  0  0  0  0
   30.7867    1.9650    0.0000 H   0  0  0  0  0  0  0  0  0  0  0  0
   29.7128    1.9650    0.0000 H   0  0  0  0  0  0  0  0  0  0  0  0
    7.7331   -1.9650    0.0000 H   0  0  0  0  0  0  0  0  0  0  0  0
   26.7856   -1.9650    0.0000 H   0  0  0  0  0  0  0  0  0  0  0  0
    2.0000    0.3450    0.0000 H   0  0  0  0  0  0  0  0  0  0  0  0
   32.5187    0.3450    0.0000 H   0  0  0  0  0  0  0  0  0  0  0  0
  1 46  1  0  0  0  0
  1 97  1  0  0  0  0
  2 47  1  0  0  0  0
  2 98  1  0  0  0  0
  3 31  2  0  0  0  0
  4 40  2  0  0  0  0
  5 41  2  0  0  0  0
  6 43  2  0  0  0  0
  7 44  2  0  0  0  0
  8 45  2  0  0  0  0
  9 48  1  0  0  0  0
  9 99  1  0  0  0  0
 10 49  1  0  0  0  0
 10100  1  0  0  0  0
 11 48  2  0  0  0  0
 12 49  2  0  0  0  0
 13 25  1  0  0  0  0
 13 26  1  0  0  0  0
 13 62  1  0  0  0  0
 14 27  1  0  0  0  0
 14 31  1  0  0  0  0
 14 67  1  0  0  0  0
 15 29  1  0  0  0  0
 15 41  1  0  0  0  0
 15 69  1  0  0  0  0
 30 16  1  6  0  0  0
 16 43  1  0  0  0  0
 16 83  1  0  0  0  0
 32 17  1  1  0  0  0
 17 44  1  0  0  0  0
 17 86  1  0  0  0  0
 18 33  1  0  0  0  0
 18 40  1  0  0  0  0
 18 87  1  0  0  0  0
 19 42  1  0  0  0  0
 19 45  1  0  0  0  0
 19 92  1  0  0  0  0
 38 20  1  1  0  0  0
 20 93  1  0  0  0  0
 20 94  1  0  0  0  0
 39 21  1  6  0  0  0
 21 95  1  0  0  0  0
 21 96  1  0  0  0  0
 22 23  1  0  0  0  0
 22 24  1  0  0  0  0
 22 50  1  0  0  0  0
 22 51  1  0  0  0  0
 23 25  1  0  0  0  0
 23 52  1  0  0  0  0
 23 53  1  0  0  0  0
 24 27  1  0  0  0  0
 24 54  1  0  0  0  0
 24 55  1  0  0  0  0
 25 56  1  0  0  0  0
 25 57  1  0  0  0  0
 26 28  1  0  0  0  0
 26 58  1  0  0  0  0
 26 59  1  0  0  0  0
 27 60  1  0  0  0  0
 27 61  1  0  0  0  0
 28 29  1  0  0  0  0
 28 63  1  0  0  0  0
 28 64  1  0  0  0  0
 29 65  1  0  0  0  0
 29 66  1  0  0  0  0
 30 40  1  0  0  0  0
 30 46  1  0  0  0  0
 30 68  1  0  0  0  0
 31 33  1  0  0  0  0
 32 45  1  0  0  0  0
 32 47  1  0  0  0  0
 32 70  1  0  0  0  0
 33 73  1  0  0  0  0
 33 74  1  0  0  0  0
 34 36  1  0  0  0  0
 34 38  1  0  0  0  0
 34 71  1  0  0  0  0
 34 72  1  0  0  0  0
 35 37  1  0  0  0  0
 35 39  1  0  0  0  0
 35 75  1  0  0  0  0
 35 76  1  0  0  0  0
 36 43  1  0  0  0  0
 36 77  1  0  0  0  0
 36 78  1  0  0  0  0
 37 44  1  0  0  0  0
 37 79  1  0  0  0  0
 37 80  1  0  0  0  0
 38 48  1  0  0  0  0
 38 81  1  0  0  0  0
 39 49  1  0  0  0  0
 39 82  1  0  0  0  0
 41 42  1  0  0  0  0
 42 84  1  0  0  0  0
 42 85  1  0  0  0  0
 46 88  1  0  0  0  0
 46 89  1  0  0  0  0
 47 90  1  0  0  0  0
 47 91  1  0  0  0  0
M  END
> <PUBCHEM_COMPOUND_CID>
24892797

> <PUBCHEM_COMPOUND_CANONICALIZED>
1

> <PUBCHEM_CACTVS_COMPLEXITY>
1100

> <PUBCHEM_CACTVS_HBOND_ACCEPTOR>
15

> <PUBCHEM_CACTVS_HBOND_DONOR>
13

> <PUBCHEM_CACTVS_ROTATABLE_BOND>
28

> <PUBCHEM_CACTVS_SUBSKEYS>
AAADcfB7/ABgAAAAAAAAAAAAAAAAAAAAAAAAAAAAAAAAAAAAAAAAHgQQCAAACCjFwASACALAAgQIAAGQGAAAAAAAAAAAAIGIAAACQBIAwCAUQAAEFgCAAACcFwIAAAAAAAAAAAAAAAAAAAAAAAAAAAAAAA==

> <PUBCHEM_IUPAC_OPENEYE_NAME>
(2S)-2-amino-5-[[(1R)-2-[[2-[5-[3-[[2-[[(2R)-2-[[(4S)-4-amino-4-carboxy-butanoyl]amino]-3-sulfanyl-propanoyl]amino]acetyl]amino]propylamino]pentylamino]-2-oxo-ethyl]amino]-2-oxo-1-(sulfanylmethyl)ethyl]amino]-5-oxo-pentanoic acid

> <PUBCHEM_IUPAC_CAS_NAME>
(2S)-2-amino-5-[[(2R)-1-[[2-[5-[3-[[2-[[(2R)-2-[[(4S)-4-amino-4-carboxy-1-oxobutyl]amino]-3-mercapto-1-oxopropyl]amino]-1-oxoethyl]amino]propylamino]pentylamino]-2-oxoethyl]amino]-3-mercapto-1-oxopropan-2-yl]amino]-5-oxopentanoic acid

> <PUBCHEM_IUPAC_NAME>
(2S)-2-amino-5-[[(2R)-1-[[2-[5-[3-[[2-[[(2R)-2-[[(4S)-4-amino-4-carboxybutanoyl]amino]-3-sulfanylpropanoyl]amino]acetyl]amino]propylamino]pentylamino]-2-oxoethyl]amino]-1-oxo-3-sulfanylpropan-2-yl]amino]-5-oxopentanoic acid

> <PUBCHEM_IUPAC_SYSTEMATIC_NAME>
(2S)-2-azanyl-5-[[(2R)-1-[[2-[5-[3-[2-[[(2R)-2-[[(4S)-4-azanyl-5-oxidanyl-5-oxidanylidene-pentanoyl]amino]-3-sulfanyl-propanoyl]amino]ethanoylamino]propylamino]pentylamino]-2-oxidanylidene-ethyl]amino]-1-oxidanylidene-3-sulfanyl-propan-2-yl]amino]-5-oxidanylidene-pentanoic acid

> <PUBCHEM_IUPAC_TRADITIONAL_NAME>
(2S)-2-amino-5-[[(1R)-2-[[2-[5-[3-[[2-[[(2R)-2-[[(4S)-4-amino-4-carboxy-butanoyl]amino]-3-mercapto-propanoyl]amino]acetyl]amino]propylamino]pentylamino]-2-keto-ethyl]amino]-2-keto-1-(mercaptomethyl)ethyl]amino]-5-keto-valeric acid

> <PUBCHEM_IUPAC_INCHI>
InChI=1S/C28H51N9O10S2/c29-17(27(44)45)5-7-21(38)36-19(15-48)25(42)34-13-23(40)32-11-3-1-2-9-31-10-4-12-33-24(41)14-35-26(43)20(16-49)37-22(39)8-6-18(30)28(46)47/h17-20,31,48-49H,1-16,29-30H2,(H,32,40)(H,33,41)(H,34,42)(H,35,43)(H,36,38)(H,37,39)(H,44,45)(H,46,47)/t17-,18-,19-,20-/m0/s1

> <PUBCHEM_IUPAC_INCHIKEY>
XMVRDWGUVWNOBX-MUGJNUQGSA-N

> <PUBCHEM_XLOGP3_AA>
-8.7

> <PUBCHEM_EXACT_MASS>
737.320031

> <PUBCHEM_MOLECULAR_FORMULA>
C28H51N9O10S2

> <PUBCHEM_MOLECULAR_WEIGHT>
737.88884

> <PUBCHEM_OPENEYE_CAN_SMILES>
C(CCNCCCNC(=O)CNC(=O)C(CS)NC(=O)CCC(C(=O)O)N)CCNC(=O)CNC(=O)C(CS)NC(=O)CCC(C(=O)O)N

> <PUBCHEM_OPENEYE_ISO_SMILES>
C(CCNCCCNC(=O)CNC(=O)[C@H](CS)NC(=O)CC[C@@H](C(=O)O)N)CCNC(=O)CNC(=O)[C@H](CS)NC(=O)CC[C@@H](C(=O)O)N

> <PUBCHEM_CACTVS_TPSA>
315

> <PUBCHEM_MONOISOTOPIC_WEIGHT>
737.320031

> <PUBCHEM_TOTAL_CHARGE>
0

> <PUBCHEM_HEAVY_ATOM_COUNT>
49

> <PUBCHEM_ATOM_DEF_STEREO_COUNT>
4

> <PUBCHEM_ATOM_UDEF_STEREO_COUNT>
0

> <PUBCHEM_BOND_DEF_STEREO_COUNT>
0

> <PUBCHEM_BOND_UDEF_STEREO_COUNT>
0

> <PUBCHEM_ISOTOPIC_ATOM_COUNT>
0

> <PUBCHEM_COMPONENT_COUNT>
1

> <PUBCHEM_CACTVS_TAUTO_COUNT>
64

> <PUBCHEM_COORDINATE_TYPE>
1
5
255

> <PUBCHEM_BONDANNOTATIONS>
30  16  6
32  17  5
38  20  5
39  21  6

$$$$

