   Color/Form
        COLORLESS SOLID
   from [1]HSDB

   Odor
        PUNGENT
   from [2]HSDB

   Melting Point
        56.5 TO 57.5 DEG C
   from [3]HSDB

   Corrosivity
        Non-corrosive
   from [4]HSDB

   Octanol/Water Partition Coefficient
        log Kow= -1.67
   from [5]HSDB

   Solubilities

     * 5.2 G/L WATER AT 22 DEG C
     * VERY SOL IN CHLORINATED & AROMATIC HYDROCARBONS, KETONES, INCLUDING
       APOLAR SOLVENTS; SPARINGLY SOL IN POLAR ALIPHATIC HYDROCARBONS.

   from [6]HSDB

   Vapor Pressure
        1.7X10-4 mm Hg at 25 deg C
   from [7]HSDB

   Other Chemical/Physical Properties
        Decomposed by strong acids and alkalis
   from [8]HSDB

   Computed Properties
   Molecular Weight                  218.31642 [g/mol]
   Molecular Formula                 C[9]H[18]N[2]O[2]S
   XLogP3-AA                         2.2
   H-Bond Donor                      1
   H-Bond Acceptor                   4
   Rotatable Bond Count              5
   Tautomer Count                    4
   Exact Mass                        218.108899
   MonoIsotopic Mass                 218.108899
   Topological Polar Surface Area    76
   Heavy Atom Count                  14
   Formal Charge                     0
   Complexity                        221
   Isotope Atom Count                0
   Defined Atom Stereocenter Count   0
   Undefined Atom Stereocenter Count 0
   Defined Bond Stereocenter Count   1
   Undefined Bond Stereocenter Count 0
   Covalently-Bonded Unit Count      1
   Feature 3D Acceptor Count         2
   Feature 3D Donor Count            1
   Feature 3D Hydrophobe Count       2
   Effective Rotor Count             6
   Conformer Sampling RMSD           0.6
   CID Conformer Count               [9]86

References

   1. http://toxnet.nlm.nih.gov/cgi-bin/sis/search/r?dbs+hsdb:@term+@rn+@rel+39196-18-4
   2. http://toxnet.nlm.nih.gov/cgi-bin/sis/search/r?dbs+hsdb:@term+@rn+@rel+39196-18-4
   3. http://toxnet.nlm.nih.gov/cgi-bin/sis/search/r?dbs+hsdb:@term+@rn+@rel+39196-18-4
   4. http://toxnet.nlm.nih.gov/cgi-bin/sis/search/r?dbs+hsdb:@term+@rn+@rel+39196-18-4
   5. http://toxnet.nlm.nih.gov/cgi-bin/sis/search/r?dbs+hsdb:@term+@rn+@rel+39196-18-4
   6. http://toxnet.nlm.nih.gov/cgi-bin/sis/search/r?dbs+hsdb:@term+@rn+@rel+39196-18-4
   7. http://toxnet.nlm.nih.gov/cgi-bin/sis/search/r?dbs+hsdb:@term+@rn+@rel+39196-18-4
   8. http://toxnet.nlm.nih.gov/cgi-bin/sis/search/r?dbs+hsdb:@term+@rn+@rel+39196-18-4
   9. http://pubchem.ncbi.nlm.nih.gov/vw3d/vw3d.cgi?cid=5361043
