6468
  -OEChem-07051212532D

 43 45  0     0  0  0  0  0  0999 V2000
    5.3191    0.5670    0.0000 N   0  0  0  0  0  0  0  0  0  0  0  0
    4.8191   -0.2990    0.0000 C   0  0  0  0  0  0  0  0  0  0  0  0
    3.9530   -0.7990    0.0000 C   0  0  0  0  0  0  0  0  0  0  0  0
    5.6851   -0.7990    0.0000 C   0  0  0  0  0  0  0  0  0  0  0  0
    3.9530   -1.7990    0.0000 C   0  0  0  0  0  0  0  0  0  0  0  0
    5.6851   -1.7990    0.0000 C   0  0  0  0  0  0  0  0  0  0  0  0
    6.3191    0.5670    0.0000 C   0  0  0  0  0  0  0  0  0  0  0  0
    4.8191    1.4330    0.0000 C   0  0  0  0  0  0  0  0  0  0  0  0
    4.8191   -2.2990    0.0000 C   0  0  0  0  0  0  0  0  0  0  0  0
    3.8794    0.0430    0.0000 C   0  0  0  0  0  0  0  0  0  0  0  0
    6.8191    1.4330    0.0000 C   0  0  0  0  0  0  0  0  0  0  0  0
    5.3191    2.2990    0.0000 C   0  0  0  0  0  0  0  0  0  0  0  0
    6.3191    2.2990    0.0000 C   0  0  0  0  0  0  0  0  0  0  0  0
    3.7057    1.0278    0.0000 C   0  0  0  0  0  0  0  0  0  0  0  0
    3.1133   -0.5998    0.0000 C   0  0  0  0  0  0  0  0  0  0  0  0
    2.7660    1.3698    0.0000 C   0  0  0  0  0  0  0  0  0  0  0  0
    2.1736   -0.2578    0.0000 C   0  0  0  0  0  0  0  0  0  0  0  0
    2.0000    0.7270    0.0000 C   0  0  0  0  0  0  0  0  0  0  0  0
    6.2957   -0.9067    0.0000 H   0  0  0  0  0  0  0  0  0  0  0  0
    5.8972   -0.2164    0.0000 H   0  0  0  0  0  0  0  0  0  0  0  0
    3.7410   -0.2164    0.0000 H   0  0  0  0  0  0  0  0  0  0  0  0
    3.3425   -0.9067    0.0000 H   0  0  0  0  0  0  0  0  0  0  0  0
    5.8972   -2.3816    0.0000 H   0  0  0  0  0  0  0  0  0  0  0  0
    6.2957   -1.6914    0.0000 H   0  0  0  0  0  0  0  0  0  0  0  0
    3.3425   -1.6914    0.0000 H   0  0  0  0  0  0  0  0  0  0  0  0
    3.7410   -2.3816    0.0000 H   0  0  0  0  0  0  0  0  0  0  0  0
    4.3441    1.8315    0.0000 H   0  0  0  0  0  0  0  0  0  0  0  0
    4.3441    1.0345    0.0000 H   0  0  0  0  0  0  0  0  0  0  0  0
    6.2114   -0.0436    0.0000 H   0  0  0  0  0  0  0  0  0  0  0  0
    6.9017    0.3549    0.0000 H   0  0  0  0  0  0  0  0  0  0  0  0
    4.4206   -2.7740    0.0000 H   0  0  0  0  0  0  0  0  0  0  0  0
    5.2176   -2.7740    0.0000 H   0  0  0  0  0  0  0  0  0  0  0  0
    5.4267    2.9096    0.0000 H   0  0  0  0  0  0  0  0  0  0  0  0
    4.7365    2.5111    0.0000 H   0  0  0  0  0  0  0  0  0  0  0  0
    7.2940    1.0345    0.0000 H   0  0  0  0  0  0  0  0  0  0  0  0
    7.2940    1.8315    0.0000 H   0  0  0  0  0  0  0  0  0  0  0  0
    6.9017    2.5111    0.0000 H   0  0  0  0  0  0  0  0  0  0  0  0
    6.2114    2.9096    0.0000 H   0  0  0  0  0  0  0  0  0  0  0  0
    4.1807    1.4263    0.0000 H   0  0  0  0  0  0  0  0  0  0  0  0
    3.2210   -1.2104    0.0000 H   0  0  0  0  0  0  0  0  0  0  0  0
    2.6584    1.9804    0.0000 H   0  0  0  0  0  0  0  0  0  0  0  0
    1.6987   -0.6563    0.0000 H   0  0  0  0  0  0  0  0  0  0  0  0
    1.4174    0.9391    0.0000 H   0  0  0  0  0  0  0  0  0  0  0  0
  1  2  1  0  0  0  0
  1  7  1  0  0  0  0
  1  8  1  0  0  0  0
  2  3  1  0  0  0  0
  2  4  1  0  0  0  0
  2 10  1  0  0  0  0
  3  5  1  0  0  0  0
  3 21  1  0  0  0  0
  3 22  1  0  0  0  0
  4  6  1  0  0  0  0
  4 19  1  0  0  0  0
  4 20  1  0  0  0  0
  5  9  1  0  0  0  0
  5 25  1  0  0  0  0
  5 26  1  0  0  0  0
  6  9  1  0  0  0  0
  6 23  1  0  0  0  0
  6 24  1  0  0  0  0
  7 11  1  0  0  0  0
  7 29  1  0  0  0  0
  7 30  1  0  0  0  0
  8 12  1  0  0  0  0
  8 27  1  0  0  0  0
  8 28  1  0  0  0  0
  9 31  1  0  0  0  0
  9 32  1  0  0  0  0
 10 14  2  0  0  0  0
 10 15  1  0  0  0  0
 11 13  1  0  0  0  0
 11 35  1  0  0  0  0
 11 36  1  0  0  0  0
 12 13  1  0  0  0  0
 12 33  1  0  0  0  0
 12 34  1  0  0  0  0
 13 37  1  0  0  0  0
 13 38  1  0  0  0  0
 14 16  1  0  0  0  0
 14 39  1  0  0  0  0
 15 17  2  0  0  0  0
 15 40  1  0  0  0  0
 16 18  2  0  0  0  0
 16 41  1  0  0  0  0
 17 18  1  0  0  0  0
 17 42  1  0  0  0  0
 18 43  1  0  0  0  0
M  END
> <PUBCHEM_COMPOUND_CID>
6468

> <PUBCHEM_COMPOUND_CANONICALIZED>
1

> <PUBCHEM_CACTVS_COMPLEXITY>
242

> <PUBCHEM_CACTVS_HBOND_ACCEPTOR>
1

> <PUBCHEM_CACTVS_HBOND_DONOR>
0

> <PUBCHEM_CACTVS_ROTATABLE_BOND>
2

> <PUBCHEM_CACTVS_SUBSKEYS>
AAADceB6AAAAAAAAAAAAAAAAAAAAAAAAAAA8YIAAAAAAAAABAAAAHAAAAAAADIjBGAQwAIMAAACAAiBCAACCAAAgAAAIiAAIBIgIICKAkRGEIAhggACIiAcQgMAOgAAAAAAAAAAAAAAAAAAAAAAAAAAAAA==

> <PUBCHEM_IUPAC_OPENEYE_NAME>
1-(1-phenylcyclohexyl)piperidine

> <PUBCHEM_IUPAC_CAS_NAME>
1-(1-phenylcyclohexyl)piperidine

> <PUBCHEM_IUPAC_NAME>
1-(1-phenylcyclohexyl)piperidine

> <PUBCHEM_IUPAC_SYSTEMATIC_NAME>
1-(1-phenylcyclohexyl)piperidine

> <PUBCHEM_IUPAC_TRADITIONAL_NAME>
1-(1-phenylcyclohexyl)piperidine

> <PUBCHEM_IUPAC_INCHI>
InChI=1S/C17H25N/c1-4-10-16(11-5-1)17(12-6-2-7-13-17)18-14-8-3-9-15-18/h1,4-5,10-11H,2-3,6-9,12-15H2

> <PUBCHEM_IUPAC_INCHIKEY>
JTJMJGYZQZDUJJ-UHFFFAOYSA-N

> <PUBCHEM_XLOGP3>
3.6

> <PUBCHEM_EXACT_MASS>
243.1987

> <PUBCHEM_MOLECULAR_FORMULA>
C17H25N

> <PUBCHEM_MOLECULAR_WEIGHT>
243.3871

> <PUBCHEM_OPENEYE_CAN_SMILES>
C1CCC(CC1)(C2=CC=CC=C2)N3CCCCC3

> <PUBCHEM_OPENEYE_ISO_SMILES>
C1CCC(CC1)(C2=CC=CC=C2)N3CCCCC3

> <PUBCHEM_CACTVS_TPSA>
3.2

> <PUBCHEM_MONOISOTOPIC_WEIGHT>
243.1987

> <PUBCHEM_TOTAL_CHARGE>
0

> <PUBCHEM_HEAVY_ATOM_COUNT>
18

> <PUBCHEM_ATOM_DEF_STEREO_COUNT>
0

> <PUBCHEM_ATOM_UDEF_STEREO_COUNT>
0

> <PUBCHEM_BOND_DEF_STEREO_COUNT>
0

> <PUBCHEM_BOND_UDEF_STEREO_COUNT>
0

> <PUBCHEM_ISOTOPIC_ATOM_COUNT>
0

> <PUBCHEM_COMPONENT_COUNT>
1

> <PUBCHEM_CACTVS_TAUTO_COUNT>
1

> <PUBCHEM_COORDINATE_TYPE>
1
5
255

> <PUBCHEM_BONDANNOTATIONS>
10  14  8
10  15  8
14  16  8
15  17  8
16  18  8
17  18  8

$$$$

