23244755
  -OEChem-07051213102D

 31 32  0     1  0  0  0  0  0999 V2000
    2.0280    1.8364    0.0000 Br  0  0  0  0  0  0  0  0  0  0  0  0
    4.2601    2.7024    0.0000 Cl  0  0  0  0  0  0  0  0  0  0  0  0
    3.2601   -2.7024    0.0000 O   0  0  0  0  0  0  0  0  0  0  0  0
    3.7601   -0.1636    0.0000 C   0  0  2  0  0  0  0  0  0  0  0  0
    3.7601    1.8364    0.0000 C   0  0  2  0  0  0  0  0  0  0  0  0
    2.8940    0.3364    0.0000 C   0  0  0  0  0  0  0  0  0  0  0  0
    4.6261    0.3364    0.0000 C   0  0  0  0  0  0  0  0  0  0  0  0
    2.8940    1.3364    0.0000 C   0  0  2  0  0  0  0  0  0  0  0  0
    4.6261    1.3364    0.0000 C   0  0  0  0  0  0  0  0  0  0  0  0
    3.7601   -1.1636    0.0000 C   0  0  0  0  0  0  0  0  0  0  0  0
    3.2601    2.7024    0.0000 C   0  0  0  0  0  0  0  0  0  0  0  0
    2.9511   -1.7514    0.0000 C   0  0  0  0  0  0  0  0  0  0  0  0
    4.5691   -1.7514    0.0000 C   0  0  0  0  0  0  0  0  0  0  0  0
    4.2601   -2.7024    0.0000 C   0  0  0  0  0  0  0  0  0  0  0  0
    2.0000   -1.4424    0.0000 C   0  0  0  0  0  0  0  0  0  0  0  0
    3.0240   -0.5886    0.0000 H   0  0  0  0  0  0  0  0  0  0  0  0
    2.2835    0.4441    0.0000 H   0  0  0  0  0  0  0  0  0  0  0  0
    2.6820   -0.2462    0.0000 H   0  0  0  0  0  0  0  0  0  0  0  0
    4.8382   -0.2462    0.0000 H   0  0  0  0  0  0  0  0  0  0  0  0
    5.2367    0.4441    0.0000 H   0  0  0  0  0  0  0  0  0  0  0  0
    2.3571    1.0264    0.0000 H   0  0  0  0  0  0  0  0  0  0  0  0
    5.2367    1.2288    0.0000 H   0  0  0  0  0  0  0  0  0  0  0  0
    4.8382    1.9190    0.0000 H   0  0  0  0  0  0  0  0  0  0  0  0
    3.7970    3.0124    0.0000 H   0  0  0  0  0  0  0  0  0  0  0  0
    2.9501    3.2394    0.0000 H   0  0  0  0  0  0  0  0  0  0  0  0
    2.7231    2.3924    0.0000 H   0  0  0  0  0  0  0  0  0  0  0  0
    5.1588   -1.5598    0.0000 H   0  0  0  0  0  0  0  0  0  0  0  0
    4.6245   -3.2040    0.0000 H   0  0  0  0  0  0  0  0  0  0  0  0
    2.1916   -0.8527    0.0000 H   0  0  0  0  0  0  0  0  0  0  0  0
    1.4103   -1.2508    0.0000 H   0  0  0  0  0  0  0  0  0  0  0  0
    1.8084   -2.0320    0.0000 H   0  0  0  0  0  0  0  0  0  0  0  0
  8  1  1  6  0  0  0
  5  2  1  1  0  0  0
  3 12  1  0  0  0  0
  3 14  1  0  0  0  0
  4  6  1  0  0  0  0
  4  7  1  0  0  0  0
  4 10  1  0  0  0  0
  4 16  1  1  0  0  0
  5  8  1  0  0  0  0
  5  9  1  0  0  0  0
  5 11  1  0  0  0  0
  6  8  1  0  0  0  0
  6 17  1  0  0  0  0
  6 18  1  0  0  0  0
  7  9  1  0  0  0  0
  7 19  1  0  0  0  0
  7 20  1  0  0  0  0
  8 21  1  0  0  0  0
  9 22  1  0  0  0  0
  9 23  1  0  0  0  0
 10 12  2  0  0  0  0
 10 13  1  0  0  0  0
 11 24  1  0  0  0  0
 11 25  1  0  0  0  0
 11 26  1  0  0  0  0
 12 15  1  0  0  0  0
 13 14  2  0  0  0  0
 13 27  1  0  0  0  0
 14 28  1  0  0  0  0
 15 29  1  0  0  0  0
 15 30  1  0  0  0  0
 15 31  1  0  0  0  0
M  END
> <PUBCHEM_COMPOUND_CID>
23244755

> <PUBCHEM_COMPOUND_CANONICALIZED>
1

> <PUBCHEM_CACTVS_COMPLEXITY>
236

> <PUBCHEM_CACTVS_HBOND_ACCEPTOR>
1

> <PUBCHEM_CACTVS_HBOND_DONOR>
0

> <PUBCHEM_CACTVS_ROTATABLE_BOND>
1

> <PUBCHEM_CACTVS_SUBSKEYS>
AAADceBwIAAEEAAAAAAAAAAAAAAAASAAAAAwAAAAAAAAAAABgAAAGgJAAAABzQagmAIyBIAABECIAqhSgAACCAAkIAAIiAEGCugMJjKFNRqCGSCkwBEIqYeIyOCOgAAAAAAAAACIAAAgAAEABAAAAAAAAA==

> <PUBCHEM_IUPAC_OPENEYE_NAME>
3-[(1S,3S,4S)-3-bromo-4-chloro-4-methyl-cyclohexyl]-2-methyl-furan

> <PUBCHEM_IUPAC_CAS_NAME>
3-[(1S,3S,4S)-3-bromo-4-chloro-4-methylcyclohexyl]-2-methylfuran

> <PUBCHEM_IUPAC_NAME>
3-[(1S,3S,4S)-3-bromo-4-chloro-4-methylcyclohexyl]-2-methylfuran

> <PUBCHEM_IUPAC_SYSTEMATIC_NAME>
3-[(1S,3S,4S)-3-bromanyl-4-chloranyl-4-methyl-cyclohexyl]-2-methyl-furan

> <PUBCHEM_IUPAC_TRADITIONAL_NAME>
3-[(1S,3S,4S)-3-bromo-4-chloro-4-methyl-cyclohexyl]-2-methyl-furan

> <PUBCHEM_IUPAC_INCHI>
InChI=1S/C12H16BrClO/c1-8-10(4-6-15-8)9-3-5-12(2,14)11(13)7-9/h4,6,9,11H,3,5,7H2,1-2H3/t9-,11-,12-/m0/s1

> <PUBCHEM_IUPAC_INCHIKEY>
PIJSECHHFPTCLU-DLOVCJGASA-N

> <PUBCHEM_XLOGP3_AA>
4

> <PUBCHEM_EXACT_MASS>
290.007305

> <PUBCHEM_MOLECULAR_FORMULA>
C12H16BrClO

> <PUBCHEM_MOLECULAR_WEIGHT>
291.61184

> <PUBCHEM_OPENEYE_CAN_SMILES>
CC1=C(C=CO1)C2CCC(C(C2)Br)(C)Cl

> <PUBCHEM_OPENEYE_ISO_SMILES>
CC1=C(C=CO1)[C@H]2CC[C@]([C@H](C2)Br)(C)Cl

> <PUBCHEM_CACTVS_TPSA>
13.1

> <PUBCHEM_MONOISOTOPIC_WEIGHT>
290.007305

> <PUBCHEM_TOTAL_CHARGE>
0

> <PUBCHEM_HEAVY_ATOM_COUNT>
15

> <PUBCHEM_ATOM_DEF_STEREO_COUNT>
3

> <PUBCHEM_ATOM_UDEF_STEREO_COUNT>
0

> <PUBCHEM_BOND_DEF_STEREO_COUNT>
0

> <PUBCHEM_BOND_UDEF_STEREO_COUNT>
0

> <PUBCHEM_ISOTOPIC_ATOM_COUNT>
0

> <PUBCHEM_COMPONENT_COUNT>
1

> <PUBCHEM_CACTVS_TAUTO_COUNT>
1

> <PUBCHEM_COORDINATE_TYPE>
1
5
255

> <PUBCHEM_BONDANNOTATIONS>
8  1  6
10  12  8
10  13  8
13  14  8
5  2  5
3  12  8
3  14  8
4  16  5

$$$$

