160142
  -OEChem-07051213042D

 43 45  0     0  0  0  0  0  0999 V2000
    4.6497    1.7620    0.0000 O   0  0  0  0  0  0  0  0  0  0  0  0
    2.8680    0.7516    0.0000 O   0  0  0  0  0  0  0  0  0  0  0  0
    8.1741    0.7343    0.0000 C   0  0  0  0  0  0  0  0  0  0  0  0
    8.1821    1.7759    0.0000 C   0  0  0  0  0  0  0  0  0  0  0  0
    7.2641    0.2274    0.0000 C   0  0  0  0  0  0  0  0  0  0  0  0
    7.2800    2.2967    0.0000 C   0  0  0  0  0  0  0  0  0  0  0  0
    6.3981    0.7274    0.0000 C   0  0  0  0  0  0  0  0  0  0  0  0
    6.3820    1.7690    0.0000 C   0  0  0  0  0  0  0  0  0  0  0  0
    9.1740    0.7227    0.0000 C   0  0  0  0  0  0  0  0  0  0  0  0
    8.6640   -0.1375    0.0000 C   0  0  0  0  0  0  0  0  0  0  0  0
    5.5320    0.2274    0.0000 C   0  0  0  0  0  0  0  0  0  0  0  0
    7.2641   -0.7726    0.0000 C   0  0  0  0  0  0  0  0  0  0  0  0
    5.5320   -0.7726    0.0000 C   0  0  0  0  0  0  0  0  0  0  0  0
    6.3981   -1.2726    0.0000 C   0  0  0  0  0  0  0  0  0  0  0  0
    4.6381    0.7621    0.0000 C   0  0  0  0  0  0  0  0  0  0  0  0
    4.6381   -1.3072    0.0000 C   0  0  0  0  0  0  0  0  0  0  0  0
    3.7320   -0.7934    0.0000 C   0  0  0  0  0  0  0  0  0  0  0  0
    3.7320    0.2483    0.0000 C   0  0  0  0  0  0  0  0  0  0  0  0
    2.8680   -1.2967    0.0000 C   0  0  0  0  0  0  0  0  0  0  0  0
    2.8718   -2.2967    0.0000 C   0  0  0  0  0  0  0  0  0  0  0  0
    2.0000   -0.8001    0.0000 C   0  0  0  0  0  0  0  0  0  0  0  0
    8.7922    1.6651    0.0000 H   0  0  0  0  0  0  0  0  0  0  0  0
    8.3957    2.3580    0.0000 H   0  0  0  0  0  0  0  0  0  0  0  0
    7.6774    2.7727    0.0000 H   0  0  0  0  0  0  0  0  0  0  0  0
    6.8791    2.7696    0.0000 H   0  0  0  0  0  0  0  0  0  0  0  0
    6.1640    2.3494    0.0000 H   0  0  0  0  0  0  0  0  0  0  0  0
    5.7729    1.6534    0.0000 H   0  0  0  0  0  0  0  0  0  0  0  0
    8.1236   -0.4412    0.0000 H   0  0  0  0  0  0  0  0  0  0  0  0
    8.9678   -0.6779    0.0000 H   0  0  0  0  0  0  0  0  0  0  0  0
    9.2045    0.1663    0.0000 H   0  0  0  0  0  0  0  0  0  0  0  0
    9.1669    0.1028    0.0000 H   0  0  0  0  0  0  0  0  0  0  0  0
    9.7940    0.7156    0.0000 H   0  0  0  0  0  0  0  0  0  0  0  0
    9.1812    1.3427    0.0000 H   0  0  0  0  0  0  0  0  0  0  0  0
    7.8010   -1.0826    0.0000 H   0  0  0  0  0  0  0  0  0  0  0  0
    6.3981   -1.8926    0.0000 H   0  0  0  0  0  0  0  0  0  0  0  0
    4.6453   -1.9272    0.0000 H   0  0  0  0  0  0  0  0  0  0  0  0
    2.3322   -1.6088    0.0000 H   0  0  0  0  0  0  0  0  0  0  0  0
    2.2518   -2.2991    0.0000 H   0  0  0  0  0  0  0  0  0  0  0  0
    2.8742   -2.9167    0.0000 H   0  0  0  0  0  0  0  0  0  0  0  0
    3.4918   -2.2943    0.0000 H   0  0  0  0  0  0  0  0  0  0  0  0
    2.3079   -0.2619    0.0000 H   0  0  0  0  0  0  0  0  0  0  0  0
    1.4619   -0.4921    0.0000 H   0  0  0  0  0  0  0  0  0  0  0  0
    1.6921   -1.3382    0.0000 H   0  0  0  0  0  0  0  0  0  0  0  0
  1 15  2  0  0  0  0
  2 18  2  0  0  0  0
  3  4  1  0  0  0  0
  3  5  1  0  0  0  0
  3  9  1  0  0  0  0
  3 10  1  0  0  0  0
  4  6  1  0  0  0  0
  4 22  1  0  0  0  0
  4 23  1  0  0  0  0
  5  7  2  0  0  0  0
  5 12  1  0  0  0  0
  6  8  1  0  0  0  0
  6 24  1  0  0  0  0
  6 25  1  0  0  0  0
  7  8  1  0  0  0  0
  7 11  1  0  0  0  0
  8 26  1  0  0  0  0
  8 27  1  0  0  0  0
  9 31  1  0  0  0  0
  9 32  1  0  0  0  0
  9 33  1  0  0  0  0
 10 28  1  0  0  0  0
 10 29  1  0  0  0  0
 10 30  1  0  0  0  0
 11 13  2  0  0  0  0
 11 15  1  0  0  0  0
 12 14  2  0  0  0  0
 12 34  1  0  0  0  0
 13 14  1  0  0  0  0
 13 16  1  0  0  0  0
 14 35  1  0  0  0  0
 15 18  1  0  0  0  0
 16 17  2  0  0  0  0
 16 36  1  0  0  0  0
 17 18  1  0  0  0  0
 17 19  1  0  0  0  0
 19 20  1  0  0  0  0
 19 21  1  0  0  0  0
 19 37  1  0  0  0  0
 20 38  1  0  0  0  0
 20 39  1  0  0  0  0
 20 40  1  0  0  0  0
 21 41  1  0  0  0  0
 21 42  1  0  0  0  0
 21 43  1  0  0  0  0
M  END
> <PUBCHEM_COMPOUND_CID>
160142

> <PUBCHEM_COMPOUND_CANONICALIZED>
1

> <PUBCHEM_CACTVS_COMPLEXITY>
498

> <PUBCHEM_CACTVS_HBOND_ACCEPTOR>
2

> <PUBCHEM_CACTVS_HBOND_DONOR>
0

> <PUBCHEM_CACTVS_ROTATABLE_BOND>
1

> <PUBCHEM_CACTVS_SUBSKEYS>
AAADceB4MAAAAAAAAAAAAAAAAAAAAAAAAAAwYIAAAAAAAADBAAAAGgAAAAAADwSAmAAyAIAAAACIAqBSAAACAAAkAAAIiAEAAMgIIDKAFRCAIQAggAAIiYcIiMCPwAACAAAQAACAAAQAACAAAAAAAAAAAA==

> <PUBCHEM_IUPAC_OPENEYE_NAME>
2-isopropyl-8,8-dimethyl-6,7-dihydro-5H-phenanthrene-3,4-dione

> <PUBCHEM_IUPAC_CAS_NAME>
8,8-dimethyl-2-propan-2-yl-6,7-dihydro-5H-phenanthrene-3,4-dione

> <PUBCHEM_IUPAC_NAME>
8,8-dimethyl-2-propan-2-yl-6,7-dihydro-5H-phenanthrene-3,4-dione

> <PUBCHEM_IUPAC_SYSTEMATIC_NAME>
8,8-dimethyl-2-propan-2-yl-6,7-dihydro-5H-phenanthrene-3,4-dione

> <PUBCHEM_IUPAC_TRADITIONAL_NAME>
2-isopropyl-8,8-dimethyl-6,7-dihydro-5H-phenanthrene-3,4-quinone

> <PUBCHEM_IUPAC_INCHI>
InChI=1S/C19H22O2/c1-11(2)14-10-12-7-8-15-13(6-5-9-19(15,3)4)16(12)18(21)17(14)20/h7-8,10-11H,5-6,9H2,1-4H3

> <PUBCHEM_IUPAC_INCHIKEY>
FEFAIBOZOKSLJR-UHFFFAOYSA-N

> <PUBCHEM_XLOGP3_AA>
4.9

> <PUBCHEM_EXACT_MASS>
282.16198

> <PUBCHEM_MOLECULAR_FORMULA>
C19H22O2

> <PUBCHEM_MOLECULAR_WEIGHT>
282.37678

> <PUBCHEM_OPENEYE_CAN_SMILES>
CC(C)C1=CC2=C(C3=C(C=C2)C(CCC3)(C)C)C(=O)C1=O

> <PUBCHEM_OPENEYE_ISO_SMILES>
CC(C)C1=CC2=C(C3=C(C=C2)C(CCC3)(C)C)C(=O)C1=O

> <PUBCHEM_CACTVS_TPSA>
34.1

> <PUBCHEM_MONOISOTOPIC_WEIGHT>
282.16198

> <PUBCHEM_TOTAL_CHARGE>
0

> <PUBCHEM_HEAVY_ATOM_COUNT>
21

> <PUBCHEM_ATOM_DEF_STEREO_COUNT>
0

> <PUBCHEM_ATOM_UDEF_STEREO_COUNT>
0

> <PUBCHEM_BOND_DEF_STEREO_COUNT>
0

> <PUBCHEM_BOND_UDEF_STEREO_COUNT>
0

> <PUBCHEM_ISOTOPIC_ATOM_COUNT>
0

> <PUBCHEM_COMPONENT_COUNT>
1

> <PUBCHEM_CACTVS_TAUTO_COUNT>
477

> <PUBCHEM_COORDINATE_TYPE>
1
5
255

> <PUBCHEM_BONDANNOTATIONS>
11  13  8
12  14  8
13  14  8
5  12  8
5  7  8
7  11  8

$$$$

