5281976
  -OEChem-07051213022D

 27 26  0     1  0  0  0  0  0999 V2000
    7.7331   -0.1415    0.0000 P   0  0  3  0  0  0  0  0  0  0  0  0
    9.4651   -0.1415    0.0000 P   0  0  0  0  0  0  0  0  0  0  0  0
    6.8671   -0.6415    0.0000 O   0  0  0  0  0  0  0  0  0  0  0  0
    8.5991    0.3585    0.0000 O   0  0  0  0  0  0  0  0  0  0  0  0
    7.2331    0.7245    0.0000 O   0  0  0  0  0  0  0  0  0  0  0  0
    2.5369   -0.1415    0.0000 O   0  0  0  0  0  0  0  0  0  0  0  0
    8.2331   -1.0075    0.0000 O   0  0  0  0  0  0  0  0  0  0  0  0
   10.3312   -0.6415    0.0000 O   0  0  0  0  0  0  0  0  0  0  0  0
    9.9651    0.7245    0.0000 O   0  0  0  0  0  0  0  0  0  0  0  0
    8.9651   -1.0075    0.0000 O   0  0  0  0  0  0  0  0  0  0  0  0
    6.0010   -0.1415    0.0000 C   0  0  0  0  0  0  0  0  0  0  0  0
    4.2690   -0.1415    0.0000 C   0  0  0  0  0  0  0  0  0  0  0  0
    5.1350   -0.6415    0.0000 C   0  0  0  0  0  0  0  0  0  0  0  0
    3.4030   -0.6415    0.0000 C   0  0  0  0  0  0  0  0  0  0  0  0
    4.2690    0.8585    0.0000 C   0  0  0  0  0  0  0  0  0  0  0  0
    6.3996    0.3335    0.0000 H   0  0  0  0  0  0  0  0  0  0  0  0
    5.6025    0.3335    0.0000 H   0  0  0  0  0  0  0  0  0  0  0  0
    5.1350   -1.2615    0.0000 H   0  0  0  0  0  0  0  0  0  0  0  0
    3.0044   -1.1164    0.0000 H   0  0  0  0  0  0  0  0  0  0  0  0
    3.8015   -1.1164    0.0000 H   0  0  0  0  0  0  0  0  0  0  0  0
    4.8890    0.8585    0.0000 H   0  0  0  0  0  0  0  0  0  0  0  0
    4.2690    1.4785    0.0000 H   0  0  0  0  0  0  0  0  0  0  0  0
    3.6490    0.8585    0.0000 H   0  0  0  0  0  0  0  0  0  0  0  0
    7.5431    1.2615    0.0000 H   0  0  0  0  0  0  0  0  0  0  0  0
    2.0000   -0.4515    0.0000 H   0  0  0  0  0  0  0  0  0  0  0  0
   10.8681   -0.3315    0.0000 H   0  0  0  0  0  0  0  0  0  0  0  0
    9.6551    1.2615    0.0000 H   0  0  0  0  0  0  0  0  0  0  0  0
  1  3  1  0  0  0  0
  1  4  1  0  0  0  0
  1  5  1  0  0  0  0
  1  7  2  0  0  0  0
  2  4  1  0  0  0  0
  2  8  1  0  0  0  0
  2  9  1  0  0  0  0
  2 10  2  0  0  0  0
  3 11  1  0  0  0  0
  5 24  1  0  0  0  0
  6 14  1  0  0  0  0
  6 25  1  0  0  0  0
  8 26  1  0  0  0  0
  9 27  1  0  0  0  0
 11 13  1  0  0  0  0
 11 16  1  0  0  0  0
 11 17  1  0  0  0  0
 12 13  2  0  0  0  0
 12 14  1  0  0  0  0
 12 15  1  0  0  0  0
 13 18  1  0  0  0  0
 14 19  1  0  0  0  0
 14 20  1  0  0  0  0
 15 21  1  0  0  0  0
 15 22  1  0  0  0  0
 15 23  1  0  0  0  0
M  END
> <PUBCHEM_COMPOUND_CID>
5281976

> <PUBCHEM_COMPOUND_CANONICALIZED>
1

> <PUBCHEM_CACTVS_COMPLEXITY>
317

> <PUBCHEM_CACTVS_HBOND_ACCEPTOR>
8

> <PUBCHEM_CACTVS_HBOND_DONOR>
4

> <PUBCHEM_CACTVS_ROTATABLE_BOND>
6

> <PUBCHEM_CACTVS_SUBSKEYS>
AAADccBgPAMAAAAAAAAAAAAAAAAAAAAAAAAAAAAAAAAAAAAAAAAAGgAACCAADACggAICAAAAAxCAQiBCAIAAAAAAAAAACAAAAAAAFAAAAQAAUAAAAAAAEAAAAAAAAAAAAAAAAAAAAAAAAAAAAAAAAAAAAA==

> <PUBCHEM_IUPAC_OPENEYE_NAME>
[(E)-4-hydroxy-3-methyl-but-2-enyl] phosphono hydrogen phosphate

> <PUBCHEM_IUPAC_CAS_NAME>
[(E)-4-hydroxy-3-methylbut-2-enyl] phosphono hydrogen phosphate

> <PUBCHEM_IUPAC_NAME>
[(E)-4-hydroxy-3-methylbut-2-enyl] phosphono hydrogen phosphate

> <PUBCHEM_IUPAC_SYSTEMATIC_NAME>
[(E)-3-methyl-4-oxidanyl-but-2-enyl] phosphono hydrogen phosphate

> <PUBCHEM_IUPAC_TRADITIONAL_NAME>
[(E)-4-hydroxy-3-methyl-but-2-enyl] phosphono hydrogen phosphate

> <PUBCHEM_IUPAC_INCHI>
InChI=1S/C5H12O8P2/c1-5(4-6)2-3-12-15(10,11)13-14(7,8)9/h2,6H,3-4H2,1H3,(H,10,11)(H2,7,8,9)/b5-2+

> <PUBCHEM_IUPAC_INCHIKEY>
MDSIZRKJVDMQOQ-GORDUTHDSA-N

> <PUBCHEM_XLOGP3_AA>
-2.4

> <PUBCHEM_EXACT_MASS>
262.000741

> <PUBCHEM_MOLECULAR_FORMULA>
C5H12O8P2

> <PUBCHEM_MOLECULAR_WEIGHT>
262.091504

> <PUBCHEM_OPENEYE_CAN_SMILES>
CC(=CCOP(=O)(O)OP(=O)(O)O)CO

> <PUBCHEM_OPENEYE_ISO_SMILES>
C/C(=C\COP(=O)(O)OP(=O)(O)O)/CO

> <PUBCHEM_CACTVS_TPSA>
134

> <PUBCHEM_MONOISOTOPIC_WEIGHT>
262.000741

> <PUBCHEM_TOTAL_CHARGE>
0

> <PUBCHEM_HEAVY_ATOM_COUNT>
15

> <PUBCHEM_ATOM_DEF_STEREO_COUNT>
0

> <PUBCHEM_ATOM_UDEF_STEREO_COUNT>
0

> <PUBCHEM_BOND_DEF_STEREO_COUNT>
1

> <PUBCHEM_BOND_UDEF_STEREO_COUNT>
0

> <PUBCHEM_ISOTOPIC_ATOM_COUNT>
0

> <PUBCHEM_COMPONENT_COUNT>
1

> <PUBCHEM_CACTVS_TAUTO_COUNT>
1

> <PUBCHEM_COORDINATE_TYPE>
1
5
255

$$$$

