   Color/Form
        Colorless crystals
   from [1]HSDB

   Odor
        Slight characteristic odor
   from [2]HSDB

   Melting Point
        144 deg C
   from [3]HSDB

   Dissociation Constants
        pKa1 = 1.56; pKa2 = 11.12
   from [4]HSDB

   Octanol/Water Partition Coefficient
        log Kow = 0.57 at 21 deg C
   from [5]HSDB

   Solubilities

     * At 20 deg C: dichloromethane 6.7X10+4 mg/L, isopropanol 2.3X10+4
       mg/L, toluene 6.9X10+2 mg/L
     * In water, 6.1X10+2 mg/L at 20 deg C

   from [6]HSDB

   Vapor Pressure
        4X10-7 mPa (3X10-12 mm Hg) at 20 deg C; 9X10-7 mPa (7X10-12 mm Hg)
   at 25 deg C
   from [7]HSDB

   Other Chemical/Physical Properties
        Henry's Law constant = 2.0X10-15 atm-cu m/mol at 20 deg C (est)
   from [8]HSDB

   Computed Properties
   Molecular Weight                  255.661 [g/mol]
   Molecular Formula                 C[9]H[10]ClN[5]O[2]
   XLogP3-AA                         0.8
   H-Bond Donor                      1
   H-Bond Acceptor                   4
   Rotatable Bond Count              3
   Tautomer Count                    2
   Exact Mass                        255.052302
   MonoIsotopic Mass                 255.052302
   Topological Polar Surface Area    86.3
   Heavy Atom Count                  17
   Formal Charge                     0
   Complexity                        319
   Isotope Atom Count                0
   Defined Atom Stereocenter Count   0
   Undefined Atom Stereocenter Count 0
   Defined Bond Stereocenter Count   0
   Undefined Bond Stereocenter Count 0
   Covalently-Bonded Unit Count      1
   Feature 3D Acceptor Count         3
   Feature 3D Donor Count            1
   Feature 3D Cation Count           1
   Feature 3D Ring Count             2
   Effective Rotor Count             4.6
   Conformer Sampling RMSD           0.6
   CID Conformer Count               [9]66

References

   1. http://toxnet.nlm.nih.gov/cgi-bin/sis/search/r?dbs+hsdb:@term+@rn+@rel+138261-41-3
   2. http://toxnet.nlm.nih.gov/cgi-bin/sis/search/r?dbs+hsdb:@term+@rn+@rel+138261-41-3
   3. http://toxnet.nlm.nih.gov/cgi-bin/sis/search/r?dbs+hsdb:@term+@rn+@rel+138261-41-3
   4. http://toxnet.nlm.nih.gov/cgi-bin/sis/search/r?dbs+hsdb:@term+@rn+@rel+138261-41-3
   5. http://toxnet.nlm.nih.gov/cgi-bin/sis/search/r?dbs+hsdb:@term+@rn+@rel+138261-41-3
   6. http://toxnet.nlm.nih.gov/cgi-bin/sis/search/r?dbs+hsdb:@term+@rn+@rel+138261-41-3
   7. http://toxnet.nlm.nih.gov/cgi-bin/sis/search/r?dbs+hsdb:@term+@rn+@rel+138261-41-3
   8. http://toxnet.nlm.nih.gov/cgi-bin/sis/search/r?dbs+hsdb:@term+@rn+@rel+138261-41-3
   9. http://pubchem.ncbi.nlm.nih.gov/vw3d/vw3d.cgi?cid=86418
