51090894
  -OEChem-06241223002D

 51 51  0     1  0  0  0  0  0999 V2000
    5.7111   -3.2448    0.0000 F   0  0  0  0  0  0  0  0  0  0  0  0
    4.9680   -3.9139    0.0000 F   0  0  0  0  0  0  0  0  0  0  0  0
    5.0691   -1.9847    0.0000 F   0  0  0  0  0  0  0  0  0  0  0  0
    5.0823   -0.9712    0.0000 O   0  0  0  0  0  0  0  0  0  0  0  0
    3.0000   -3.2146    0.0000 N   0  0  0  0  0  0  0  0  0  0  0  0
    4.0432    3.4920    0.0000 N   0  0  3  0  0  0  0  0  0  0  0  0
    2.1910   -2.6268    0.0000 N   0  0  0  0  0  0  0  0  0  0  0  0
    3.6810    0.0469    0.0000 N   0  0  0  0  0  0  0  0  0  0  0  0
    3.0000   -4.2146    0.0000 C   0  0  0  0  0  0  0  0  0  0  0  0
    3.8090   -2.6268    0.0000 C   0  0  0  0  0  0  0  0  0  0  0  0
    3.0000   -5.2146    0.0000 C   0  0  0  0  0  0  0  0  0  0  0  0
    2.0000   -4.2146    0.0000 C   0  0  0  0  0  0  0  0  0  0  0  0
    3.8660   -4.7146    0.0000 C   0  0  0  0  0  0  0  0  0  0  0  0
    4.4499    2.5784    0.0000 C   0  0  0  0  0  0  0  0  0  0  0  0
    4.6309    4.3010    0.0000 C   0  0  0  0  0  0  0  0  0  0  0  0
    3.8621    1.7694    0.0000 C   0  0  0  0  0  0  0  0  0  0  0  0
    3.5000   -1.6757    0.0000 C   0  0  0  0  0  0  0  0  0  0  0  0
    4.2688    0.8559    0.0000 C   0  0  0  0  0  0  0  0  0  0  0  0
    2.5000   -1.6757    0.0000 C   0  0  0  0  0  0  0  0  0  0  0  0
    4.0878   -0.8667    0.0000 C   0  0  0  0  0  0  0  0  0  0  0  0
    4.7601   -2.9358    0.0000 C   0  0  0  0  0  0  0  0  0  0  0  0
    3.0486    3.5965    0.0000 C   0  0  0  0  0  0  0  0  0  0  0  0
    4.2242    5.2146    0.0000 C   0  0  0  0  0  0  0  0  0  0  0  0
    5.6254    4.1965    0.0000 C   0  0  0  0  0  0  0  0  0  0  0  0
    2.3800   -5.2146    0.0000 H   0  0  0  0  0  0  0  0  0  0  0  0
    3.0000   -5.8346    0.0000 H   0  0  0  0  0  0  0  0  0  0  0  0
    3.6200   -5.2146    0.0000 H   0  0  0  0  0  0  0  0  0  0  0  0
    2.0000   -3.5946    0.0000 H   0  0  0  0  0  0  0  0  0  0  0  0
    1.3800   -4.2146    0.0000 H   0  0  0  0  0  0  0  0  0  0  0  0
    2.0000   -4.8346    0.0000 H   0  0  0  0  0  0  0  0  0  0  0  0
    3.5560   -5.2515    0.0000 H   0  0  0  0  0  0  0  0  0  0  0  0
    4.4030   -5.0245    0.0000 H   0  0  0  0  0  0  0  0  0  0  0  0
    4.1760   -4.1776    0.0000 H   0  0  0  0  0  0  0  0  0  0  0  0
    4.8806    2.1324    0.0000 H   0  0  0  0  0  0  0  0  0  0  0  0
    4.9639    2.9251    0.0000 H   0  0  0  0  0  0  0  0  0  0  0  0
    4.8831    3.7346    0.0000 H   0  0  0  0  0  0  0  0  0  0  0  0
    3.4314    2.2154    0.0000 H   0  0  0  0  0  0  0  0  0  0  0  0
    3.3481    1.4227    0.0000 H   0  0  0  0  0  0  0  0  0  0  0  0
    4.6995    0.4099    0.0000 H   0  0  0  0  0  0  0  0  0  0  0  0
    4.7828    1.2026    0.0000 H   0  0  0  0  0  0  0  0  0  0  0  0
    2.1356   -1.1741    0.0000 H   0  0  0  0  0  0  0  0  0  0  0  0
    3.0644    0.1117    0.0000 H   0  0  0  0  0  0  0  0  0  0  0  0
    3.1134    4.2131    0.0000 H   0  0  0  0  0  0  0  0  0  0  0  0
    2.4320    3.6613    0.0000 H   0  0  0  0  0  0  0  0  0  0  0  0
    2.9838    2.9799    0.0000 H   0  0  0  0  0  0  0  0  0  0  0  0
    5.5606    3.5799    0.0000 H   0  0  0  0  0  0  0  0  0  0  0  0
    4.7906    5.4667    0.0000 H   0  0  0  0  0  0  0  0  0  0  0  0
    3.9720    5.7809    0.0000 H   0  0  0  0  0  0  0  0  0  0  0  0
    3.6578    4.9624    0.0000 H   0  0  0  0  0  0  0  0  0  0  0  0
    6.2421    4.1317    0.0000 H   0  0  0  0  0  0  0  0  0  0  0  0
    5.6903    4.8131    0.0000 H   0  0  0  0  0  0  0  0  0  0  0  0
  1 21  1  0  0  0  0
  2 21  1  0  0  0  0
  3 21  1  0  0  0  0
  4 20  2  0  0  0  0
  5  7  1  0  0  0  0
  5  9  1  0  0  0  0
  5 10  1  0  0  0  0
  6 14  1  0  0  0  0
  6 15  1  0  0  0  0
  6 22  1  0  0  0  0
  7 19  2  0  0  0  0
  8 18  1  0  0  0  0
  8 20  1  0  0  0  0
  8 42  1  0  0  0  0
  9 11  1  0  0  0  0
  9 12  1  0  0  0  0
  9 13  1  0  0  0  0
 10 17  2  0  0  0  0
 10 21  1  0  0  0  0
 11 25  1  0  0  0  0
 11 26  1  0  0  0  0
 11 27  1  0  0  0  0
 12 28  1  0  0  0  0
 12 29  1  0  0  0  0
 12 30  1  0  0  0  0
 13 31  1  0  0  0  0
 13 32  1  0  0  0  0
 13 33  1  0  0  0  0
 14 16  1  0  0  0  0
 14 34  1  0  0  0  0
 14 35  1  0  0  0  0
 15 23  1  0  0  0  0
 15 24  1  0  0  0  0
 15 36  1  0  0  0  0
 16 18  1  0  0  0  0
 16 37  1  0  0  0  0
 16 38  1  0  0  0  0
 17 19  1  0  0  0  0
 17 20  1  0  0  0  0
 18 39  1  0  0  0  0
 18 40  1  0  0  0  0
 19 41  1  0  0  0  0
 22 43  1  0  0  0  0
 22 44  1  0  0  0  0
 22 45  1  0  0  0  0
 23 47  1  0  0  0  0
 23 48  1  0  0  0  0
 23 49  1  0  0  0  0
 24 46  1  0  0  0  0
 24 50  1  0  0  0  0
 24 51  1  0  0  0  0
M  END
> <PUBCHEM_COMPOUND_CID>
51090894

> <PUBCHEM_COMPOUND_CANONICALIZED>
1

> <PUBCHEM_CACTVS_COMPLEXITY>
421

> <PUBCHEM_CACTVS_HBOND_ACCEPTOR>
6

> <PUBCHEM_CACTVS_HBOND_DONOR>
1

> <PUBCHEM_CACTVS_ROTATABLE_BOND>
7

> <PUBCHEM_CACTVS_SUBSKEYS>
AAADceB7oYAAAAAAAAAAAAAAAAAAAWAAAAAAAAAAAAAAAAABgAAAHwAYAAAADKjBnhQugJPIAACqAxV3VACQBAAlgAAQGKEoRFgAIJhAwMAEhYhAHgDAQcAAAAAIAAAAAAAAAAAAAAAAAAAAAAAAAAAAAA==

> <PUBCHEM_IUPAC_OPENEYE_NAME>
1-tert-butyl-N-[3-[isopropyl(methyl)amino]propyl]-5-(trifluoromethyl)pyrazole-4-carboxamide

> <PUBCHEM_IUPAC_CAS_NAME>
1-tert-butyl-N-[3-[methyl(propan-2-yl)amino]propyl]-5-(trifluoromethyl)-4-pyrazolecarboxamide

> <PUBCHEM_IUPAC_NAME>
1-tert-butyl-N-[3-[methyl(propan-2-yl)amino]propyl]-5-(trifluoromethyl)pyrazole-4-carboxamide

> <PUBCHEM_IUPAC_SYSTEMATIC_NAME>
1-tert-butyl-N-[3-[methyl(propan-2-yl)amino]propyl]-5-(trifluoromethyl)pyrazole-4-carboxamide

> <PUBCHEM_IUPAC_TRADITIONAL_NAME>
1-tert-butyl-N-[3-[isopropyl(methyl)amino]propyl]-5-(trifluoromethyl)pyrazole-4-carboxamide

> <PUBCHEM_IUPAC_INCHI>
InChI=1S/C16H27F3N4O/c1-11(2)22(6)9-7-8-20-14(24)12-10-21-23(15(3,4)5)13(12)16(17,18)19/h10-11H,7-9H2,1-6H3,(H,20,24)

> <PUBCHEM_IUPAC_INCHIKEY>
KCEQHHUYPOPZOZ-UHFFFAOYSA-N

> <PUBCHEM_XLOGP3_AA>
2.5

> <PUBCHEM_EXACT_MASS>
348.213696

> <PUBCHEM_MOLECULAR_FORMULA>
C16H27F3N4O

> <PUBCHEM_MOLECULAR_WEIGHT>
348.40699

> <PUBCHEM_OPENEYE_CAN_SMILES>
CC(C)N(C)CCCNC(=O)C1=C(N(N=C1)C(C)(C)C)C(F)(F)F

> <PUBCHEM_OPENEYE_ISO_SMILES>
CC(C)N(C)CCCNC(=O)C1=C(N(N=C1)C(C)(C)C)C(F)(F)F

> <PUBCHEM_CACTVS_TPSA>
50.2

> <PUBCHEM_MONOISOTOPIC_WEIGHT>
348.213696

> <PUBCHEM_TOTAL_CHARGE>
0

> <PUBCHEM_HEAVY_ATOM_COUNT>
24

> <PUBCHEM_ATOM_DEF_STEREO_COUNT>
0

> <PUBCHEM_ATOM_UDEF_STEREO_COUNT>
0

> <PUBCHEM_BOND_DEF_STEREO_COUNT>
0

> <PUBCHEM_BOND_UDEF_STEREO_COUNT>
0

> <PUBCHEM_ISOTOPIC_ATOM_COUNT>
0

> <PUBCHEM_COMPONENT_COUNT>
1

> <PUBCHEM_CACTVS_TAUTO_COUNT>
2

> <PUBCHEM_COORDINATE_TYPE>
1
5
255

> <PUBCHEM_BONDANNOTATIONS>
10  17  8
17  19  8
5  10  8
5  7  8
7  19  8

$$$$

