   Color/Form
        Colorless plates
   from [1]HSDB

   Melting Point
        124-125 deg C
   from [2]HSDB

   Octanol/Water Partition Coefficient
        log Kow = -2.6 @ 25 deg C /Estimated/
   from [3]HSDB

   Solubilities

     * Sol in water, ethanol, chloroform and hot acetone
     * In water, 6X10+5 mg/L @ 25 deg C /Estimated/

   from [4]HSDB

   Spectral Properties
        Specific optical rotation: +5.3 deg (in ethanol) @ 26 deg C/D
   from [5]HSDB

   Vapor Pressure
        9.7X10-23 mm Hg @ 25 deg C /Estimated/
   from [6]HSDB

   Other Chemical/Physical Properties

     * Sublimes @ 136 deg C @ 0.01 mm hg; readily hydrolysed with alkali
     * Henry's Law constant = 6.9X10-21 atm-cu m/mol @ 25 deg C
       /Estimated/
     * Hydroxyl radical reaction rate constant = 1.7X10-10 cu cm/molec-sec
       @ 25 deg C /Estimated/

   from [7]HSDB

   Computed Properties
   Molecular Weight                  382.42812 [g/mol]
   Molecular Formula                 C[19]H[28]NO[7]^+
   XLogP3-AA                         -0.2
   H-Bond Donor                      3
   H-Bond Acceptor                   7
   Rotatable Bond Count              1
   Exact Mass                        382.186577
   MonoIsotopic Mass                 382.186577
   Topological Polar Surface Area    113
   Heavy Atom Count                  27
   Formal Charge                     1
   Complexity                        717
   Isotope Atom Count                0
   Defined Atom Stereocenter Count   4
   Undefined Atom Stereocenter Count 1
   Defined Bond Stereocenter Count   1
   Undefined Bond Stereocenter Count 0
   Covalently-Bonded Unit Count      1
   Feature 3D Acceptor Count         5
   Feature 3D Donor Count            3
   Feature 3D Cation Count           1
   Feature 3D Hydrophobe Count       1
   Feature 3D Ring Count             2
   Effective Rotor Count             2.8
   Conformer Sampling RMSD           0.6
   CID Conformer Count               [8]10

References

   1. http://toxnet.nlm.nih.gov/cgi-bin/sis/search/r?dbs+hsdb:@term+@rn+@rel+26782-43-4
   2. http://toxnet.nlm.nih.gov/cgi-bin/sis/search/r?dbs+hsdb:@term+@rn+@rel+26782-43-4
   3. http://toxnet.nlm.nih.gov/cgi-bin/sis/search/r?dbs+hsdb:@term+@rn+@rel+26782-43-4
   4. http://toxnet.nlm.nih.gov/cgi-bin/sis/search/r?dbs+hsdb:@term+@rn+@rel+26782-43-4
   5. http://toxnet.nlm.nih.gov/cgi-bin/sis/search/r?dbs+hsdb:@term+@rn+@rel+26782-43-4
   6. http://toxnet.nlm.nih.gov/cgi-bin/sis/search/r?dbs+hsdb:@term+@rn+@rel+26782-43-4
   7. http://toxnet.nlm.nih.gov/cgi-bin/sis/search/r?dbs+hsdb:@term+@rn+@rel+26782-43-4
   8. http://pubchem.ncbi.nlm.nih.gov/vw3d/vw3d.cgi?cid=53297431
