440375
  -OEChem-07051212492D

 80 83  0     1  0  0  0  0  0999 V2000
    2.5357   -3.2258    0.0000 O   0  0  0  0  0  0  0  0  0  0  0  0
    7.9288   -0.1735    0.0000 C   0  0  1  0  0  0  0  0  0  0  0  0
    5.2868   -1.6803    0.0000 C   0  0  2  0  0  0  0  0  0  0  0  0
    6.1968   -1.1735    0.0000 C   0  0  3  0  0  0  0  0  0  0  0  0
    7.9288   -1.1735    0.0000 C   0  0  2  0  0  0  0  0  0  0  0  0
    5.2787   -2.7219    0.0000 C   0  0  2  0  0  0  0  0  0  0  0  0
    8.8750    0.1313    0.0000 C   0  0  2  0  0  0  0  0  0  0  0  0
    7.0628   -1.6735    0.0000 C   0  0  0  0  0  0  0  0  0  0  0  0
    7.0628    0.3265    0.0000 C   0  0  0  0  0  0  0  0  0  0  0  0
    6.1968   -0.1735    0.0000 C   0  0  0  0  0  0  0  0  0  0  0  0
    4.3433   -3.2716    0.0000 C   0  0  0  0  0  0  0  0  0  0  0  0
    8.8750   -1.4782    0.0000 C   0  0  0  0  0  0  0  0  0  0  0  0
    9.4586   -0.6735    0.0000 C   0  0  0  0  0  0  0  0  0  0  0  0
    4.3599   -1.1162    0.0000 C   0  0  0  0  0  0  0  0  0  0  0  0
    6.1808   -3.2427    0.0000 C   0  0  0  0  0  0  0  0  0  0  0  0
    7.0789   -2.7150    0.0000 C   0  0  0  0  0  0  0  0  0  0  0  0
    3.4037   -2.7291    0.0000 C   0  0  2  0  0  0  0  0  0  0  0  0
    9.1857    1.0818    0.0000 C   0  0  1  0  0  0  0  0  0  0  0  0
    7.9288    0.8265    0.0000 C   0  0  0  0  0  0  0  0  0  0  0  0
    3.4120   -1.6442    0.0000 C   0  0  0  0  0  0  0  0  0  0  0  0
    5.2945   -0.6803    0.0000 C   0  0  0  0  0  0  0  0  0  0  0  0
    3.8467   -4.1396    0.0000 C   0  0  0  0  0  0  0  0  0  0  0  0
    4.8466   -4.1357    0.0000 C   0  0  0  0  0  0  0  0  0  0  0  0
   10.1642    1.2880    0.0000 C   0  0  0  0  0  0  0  0  0  0  0  0
    8.5179    1.8261    0.0000 C   0  0  0  0  0  0  0  0  0  0  0  0
   10.4749    2.2385    0.0000 C   0  0  0  0  0  0  0  0  0  0  0  0
   11.4534    2.4448    0.0000 C   0  0  0  0  0  0  0  0  0  0  0  0
   11.7640    3.3953    0.0000 C   0  0  0  0  0  0  0  0  0  0  0  0
   12.7425    3.6015    0.0000 C   0  0  0  0  0  0  0  0  0  0  0  0
   11.0962    4.1396    0.0000 C   0  0  0  0  0  0  0  0  0  0  0  0
    6.9329   -0.7485    0.0000 H   0  0  0  0  0  0  0  0  0  0  0  0
    8.0188   -2.0187    0.0000 H   0  0  0  0  0  0  0  0  0  0  0  0
    5.2820   -3.5719    0.0000 H   0  0  0  0  0  0  0  0  0  0  0  0
    9.7148    0.2632    0.0000 H   0  0  0  0  0  0  0  0  0  0  0  0
    7.4613    0.8015    0.0000 H   0  0  0  0  0  0  0  0  0  0  0  0
    6.6643    0.8015    0.0000 H   0  0  0  0  0  0  0  0  0  0  0  0
    5.9847    0.4092    0.0000 H   0  0  0  0  0  0  0  0  0  0  0  0
    5.5862   -0.2811    0.0000 H   0  0  0  0  0  0  0  0  0  0  0  0
    8.6240   -2.0451    0.0000 H   0  0  0  0  0  0  0  0  0  0  0  0
    9.4124   -1.7874    0.0000 H   0  0  0  0  0  0  0  0  0  0  0  0
    9.9195   -1.0882    0.0000 H   0  0  0  0  0  0  0  0  0  0  0  0
    9.9195   -0.2587    0.0000 H   0  0  0  0  0  0  0  0  0  0  0  0
    4.7681   -0.6496    0.0000 H   0  0  0  0  0  0  0  0  0  0  0  0
    3.9700   -0.6342    0.0000 H   0  0  0  0  0  0  0  0  0  0  0  0
    5.7835   -3.7187    0.0000 H   0  0  0  0  0  0  0  0  0  0  0  0
    6.5818   -3.7156    0.0000 H   0  0  0  0  0  0  0  0  0  0  0  0
    7.6193   -3.0187    0.0000 H   0  0  0  0  0  0  0  0  0  0  0  0
    3.4025   -3.3491    0.0000 H   0  0  0  0  0  0  0  0  0  0  0  0
    9.3783    1.6711    0.0000 H   0  0  0  0  0  0  0  0  0  0  0  0
    8.5488    0.8265    0.0000 H   0  0  0  0  0  0  0  0  0  0  0  0
    7.9288    1.4465    0.0000 H   0  0  0  0  0  0  0  0  0  0  0  0
    7.3088    0.8265    0.0000 H   0  0  0  0  0  0  0  0  0  0  0  0
    3.2075   -1.0589    0.0000 H   0  0  0  0  0  0  0  0  0  0  0  0
    2.8004   -1.7456    0.0000 H   0  0  0  0  0  0  0  0  0  0  0  0
    5.9145   -0.6851    0.0000 H   0  0  0  0  0  0  0  0  0  0  0  0
    5.2993   -0.0604    0.0000 H   0  0  0  0  0  0  0  0  0  0  0  0
    4.6745   -0.6756    0.0000 H   0  0  0  0  0  0  0  0  0  0  0  0
    3.3085   -3.8316    0.0000 H   0  0  0  0  0  0  0  0  0  0  0  0
    3.5387   -4.6777    0.0000 H   0  0  0  0  0  0  0  0  0  0  0  0
    4.3848   -4.4475    0.0000 H   0  0  0  0  0  0  0  0  0  0  0  0
    4.3109   -4.4478    0.0000 H   0  0  0  0  0  0  0  0  0  0  0  0
    5.1587   -4.6715    0.0000 H   0  0  0  0  0  0  0  0  0  0  0  0
    5.3824   -3.8236    0.0000 H   0  0  0  0  0  0  0  0  0  0  0  0
   10.1848    0.6684    0.0000 H   0  0  0  0  0  0  0  0  0  0  0  0
   10.7780    1.2007    0.0000 H   0  0  0  0  0  0  0  0  0  0  0  0
    8.9793    2.2402    0.0000 H   0  0  0  0  0  0  0  0  0  0  0  0
    8.1038    2.2876    0.0000 H   0  0  0  0  0  0  0  0  0  0  0  0
    8.0564    1.4120    0.0000 H   0  0  0  0  0  0  0  0  0  0  0  0
    2.0000   -2.9137    0.0000 H   0  0  0  0  0  0  0  0  0  0  0  0
   10.4543    2.8582    0.0000 H   0  0  0  0  0  0  0  0  0  0  0  0
    9.8611    2.3259    0.0000 H   0  0  0  0  0  0  0  0  0  0  0  0
   11.4739    1.8251    0.0000 H   0  0  0  0  0  0  0  0  0  0  0  0
   12.0672    2.3574    0.0000 H   0  0  0  0  0  0  0  0  0  0  0  0
   12.1781    2.9338    0.0000 H   0  0  0  0  0  0  0  0  0  0  0  0
   12.8704    2.9948    0.0000 H   0  0  0  0  0  0  0  0  0  0  0  0
   13.3492    3.7294    0.0000 H   0  0  0  0  0  0  0  0  0  0  0  0
   12.6147    4.2082    0.0000 H   0  0  0  0  0  0  0  0  0  0  0  0
   11.5577    4.5536    0.0000 H   0  0  0  0  0  0  0  0  0  0  0  0
   10.6821    4.6010    0.0000 H   0  0  0  0  0  0  0  0  0  0  0  0
   10.6347    3.7255    0.0000 H   0  0  0  0  0  0  0  0  0  0  0  0
 17  1  1  1  0  0  0
  1 69  1  0  0  0  0
  2  5  1  0  0  0  0
  2  7  1  0  0  0  0
  2  9  1  0  0  0  0
  2 19  1  1  0  0  0
  3  4  1  0  0  0  0
  3  6  1  0  0  0  0
  3 14  1  0  0  0  0
  3 21  1  1  0  0  0
  4  8  1  0  0  0  0
  4 10  1  0  0  0  0
  4 31  1  0  0  0  0
  5  8  1  0  0  0  0
  5 12  1  0  0  0  0
  5 32  1  6  0  0  0
  6 11  1  0  0  0  0
  6 15  1  0  0  0  0
  6 33  1  6  0  0  0
  7 13  1  0  0  0  0
  7 18  1  0  0  0  0
  7 34  1  6  0  0  0
  8 16  2  0  0  0  0
  9 10  1  0  0  0  0
  9 35  1  0  0  0  0
  9 36  1  0  0  0  0
 10 37  1  0  0  0  0
 10 38  1  0  0  0  0
 11 17  1  0  0  0  0
 11 22  1  0  0  0  0
 11 23  1  0  0  0  0
 12 13  1  0  0  0  0
 12 39  1  0  0  0  0
 12 40  1  0  0  0  0
 13 41  1  0  0  0  0
 13 42  1  0  0  0  0
 14 20  1  0  0  0  0
 14 43  1  0  0  0  0
 14 44  1  0  0  0  0
 15 16  1  0  0  0  0
 15 45  1  0  0  0  0
 15 46  1  0  0  0  0
 16 47  1  0  0  0  0
 17 20  1  0  0  0  0
 17 48  1  0  0  0  0
 18 24  1  0  0  0  0
 18 25  1  6  0  0  0
 18 49  1  0  0  0  0
 19 50  1  0  0  0  0
 19 51  1  0  0  0  0
 19 52  1  0  0  0  0
 20 53  1  0  0  0  0
 20 54  1  0  0  0  0
 21 55  1  0  0  0  0
 21 56  1  0  0  0  0
 21 57  1  0  0  0  0
 22 58  1  0  0  0  0
 22 59  1  0  0  0  0
 22 60  1  0  0  0  0
 23 61  1  0  0  0  0
 23 62  1  0  0  0  0
 23 63  1  0  0  0  0
 24 26  1  0  0  0  0
 24 64  1  0  0  0  0
 24 65  1  0  0  0  0
 25 66  1  0  0  0  0
 25 67  1  0  0  0  0
 25 68  1  0  0  0  0
 26 27  1  0  0  0  0
 26 70  1  0  0  0  0
 26 71  1  0  0  0  0
 27 28  1  0  0  0  0
 27 72  1  0  0  0  0
 27 73  1  0  0  0  0
 28 29  1  0  0  0  0
 28 30  1  0  0  0  0
 28 74  1  0  0  0  0
 29 75  1  0  0  0  0
 29 76  1  0  0  0  0
 29 77  1  0  0  0  0
 30 78  1  0  0  0  0
 30 79  1  0  0  0  0
 30 80  1  0  0  0  0
M  END
> <PUBCHEM_COMPOUND_CID>
440375

> <PUBCHEM_COMPOUND_CANONICALIZED>
1

> <PUBCHEM_CACTVS_COMPLEXITY>
659

> <PUBCHEM_CACTVS_HBOND_ACCEPTOR>
1

> <PUBCHEM_CACTVS_HBOND_DONOR>
1

> <PUBCHEM_CACTVS_ROTATABLE_BOND>
5

> <PUBCHEM_CACTVS_SUBSKEYS>
AAADcfB4IAAAAAAAAAAAAAAAAAAAAYAAAAAwYIAAAAAAAGCAAAAAGgAACAAADxSggAICAAAAAgCAAiBCAAAAAAAgAAAACAAAAAgAEAIAAQAAQAAEgAAIAAOAwPAPgAAAAAAAAADAAAYAADAAAQAACAAAAA==

> <PUBCHEM_IUPAC_OPENEYE_NAME>
(3S,5R,10R,13R,14R,17R)-17-[(1R)-1,5-dimethylhexyl]-4,4,10,13-tetramethyl-1,2,3,5,6,9,11,12,14,15,16,17-dodecahydrocyclopenta[a]phenanthren-3-ol

> <PUBCHEM_IUPAC_CAS_NAME>
(3S,5R,10R,13R,14R,17R)-4,4,10,13-tetramethyl-17-[(2R)-6-methylheptan-2-yl]-1,2,3,5,6,9,11,12,14,15,16,17-dodecahydrocyclopenta[a]phenanthren-3-ol

> <PUBCHEM_IUPAC_NAME>
(3S,5R,10R,13R,14R,17R)-4,4,10,13-tetramethyl-17-[(2R)-6-methylheptan-2-yl]-1,2,3,5,6,9,11,12,14,15,16,17-dodecahydrocyclopenta[a]phenanthren-3-ol

> <PUBCHEM_IUPAC_SYSTEMATIC_NAME>
(3S,5R,10R,13R,14R,17R)-4,4,10,13-tetramethyl-17-[(2R)-6-methylheptan-2-yl]-1,2,3,5,6,9,11,12,14,15,16,17-dodecahydrocyclopenta[a]phenanthren-3-ol

> <PUBCHEM_IUPAC_TRADITIONAL_NAME>
(3S,5R,10R,13R,14R,17R)-17-[(1R)-1,5-dimethylhexyl]-4,4,10,13-tetramethyl-1,2,3,5,6,9,11,12,14,15,16,17-dodecahydrocyclopenta[a]phenanthren-3-ol

> <PUBCHEM_IUPAC_INCHI>
InChI=1S/C29H50O/c1-19(2)9-8-10-20(3)22-12-13-23-21-11-14-25-27(4,5)26(30)16-18-29(25,7)24(21)15-17-28(22,23)6/h11,19-20,22-26,30H,8-10,12-18H2,1-7H3/t20-,22-,23+,24?,25+,26+,28-,29-/m1/s1

> <PUBCHEM_IUPAC_INCHIKEY>
UVNXFLZMQCAWCP-TURWDIKPSA-N

> <PUBCHEM_XLOGP3_AA>
9.1

> <PUBCHEM_EXACT_MASS>
414.386166

> <PUBCHEM_MOLECULAR_FORMULA>
C29H50O

> <PUBCHEM_MOLECULAR_WEIGHT>
414.7067

> <PUBCHEM_OPENEYE_CAN_SMILES>
CC(C)CCCC(C)C1CCC2C1(CCC3C2=CCC4C3(CCC(C4(C)C)O)C)C

> <PUBCHEM_OPENEYE_ISO_SMILES>
C[C@H](CCCC(C)C)[C@H]1CC[C@@H]2[C@@]1(CCC3C2=CC[C@@H]4[C@@]3(CC[C@@H](C4(C)C)O)C)C

> <PUBCHEM_CACTVS_TPSA>
20.2

> <PUBCHEM_MONOISOTOPIC_WEIGHT>
414.386166

> <PUBCHEM_TOTAL_CHARGE>
0

> <PUBCHEM_HEAVY_ATOM_COUNT>
30

> <PUBCHEM_ATOM_DEF_STEREO_COUNT>
7

> <PUBCHEM_ATOM_UDEF_STEREO_COUNT>
1

> <PUBCHEM_BOND_DEF_STEREO_COUNT>
0

> <PUBCHEM_BOND_UDEF_STEREO_COUNT>
0

> <PUBCHEM_ISOTOPIC_ATOM_COUNT>
0

> <PUBCHEM_COMPONENT_COUNT>
1

> <PUBCHEM_CACTVS_TAUTO_COUNT>
1

> <PUBCHEM_COORDINATE_TYPE>
1
5
255

> <PUBCHEM_BONDANNOTATIONS>
17  1  5
18  25  6
2  19  5
3  21  5
4  31  3
5  32  6
6  33  6
7  34  6

$$$$

