   Color/Form

     * Pale yellow oil
     * Yellow brown liquid or solid

   from [1]HSDB

   Melting Point
        45-50 deg C
   from [2]HSDB

   Density/Specific Gravity
        1.15 @ 25 deg C
   from [3]HSDB

   Octanol/Water Partition Coefficient
        log Kow = 6.0 @ 20 deg C
   from [4]HSDB

   Solubilities

     * In xylene 1000, cyclohexanone 1000, methanol 337 (all in g/kg at 25
       deg C)
     * Soluble in common organic solvents (chloroform, acetone, methanol).
     * In water, 1.41X10-2 mg/l @ 25 deg C.

   from [5]HSDB

   Spectral Properties
        Index of refraction: 1.5283 at 26 deg C/D
   from [6]HSDB

   Vapor Pressure
        5.48X10-6 mm Hg @ 20 deg C
   from [7]HSDB

   Other Chemical/Physical Properties

     * Yellow-brown solid /Technical fenpropathrin/
     * Stable except in alkaline solution.

   from [8]HSDB

   Computed Properties
   Molecular Weight                  349.42292 [g/mol]
   Molecular Formula                 C[22]H[23]NO[3]
   XLogP3                            5.7
   H-Bond Donor                      0
   H-Bond Acceptor                   4
   Rotatable Bond Count              6
   Exact Mass                        349.167794
   MonoIsotopic Mass                 349.167794
   Topological Polar Surface Area    59.3
   Heavy Atom Count                  26
   Formal Charge                     0
   Complexity                        553
   Isotope Atom Count                0
   Defined Atom Stereocenter Count   0
   Undefined Atom Stereocenter Count 1
   Defined Bond Stereocenter Count   0
   Undefined Bond Stereocenter Count 0
   Covalently-Bonded Unit Count      1
   Feature 3D Acceptor Count         3
   Feature 3D Hydrophobe Count       2
   Feature 3D Ring Count             2
   Effective Rotor Count             6.6
   Conformer Sampling RMSD           1
   CID Conformer Count               [9]307

References

   1. http://toxnet.nlm.nih.gov/cgi-bin/sis/search/r?dbs+hsdb:@term+@rn+@rel+64257-84-7
   2. http://toxnet.nlm.nih.gov/cgi-bin/sis/search/r?dbs+hsdb:@term+@rn+@rel+64257-84-7
   3. http://toxnet.nlm.nih.gov/cgi-bin/sis/search/r?dbs+hsdb:@term+@rn+@rel+64257-84-7
   4. http://toxnet.nlm.nih.gov/cgi-bin/sis/search/r?dbs+hsdb:@term+@rn+@rel+64257-84-7
   5. http://toxnet.nlm.nih.gov/cgi-bin/sis/search/r?dbs+hsdb:@term+@rn+@rel+64257-84-7
   6. http://toxnet.nlm.nih.gov/cgi-bin/sis/search/r?dbs+hsdb:@term+@rn+@rel+64257-84-7
   7. http://toxnet.nlm.nih.gov/cgi-bin/sis/search/r?dbs+hsdb:@term+@rn+@rel+64257-84-7
   8. http://toxnet.nlm.nih.gov/cgi-bin/sis/search/r?dbs+hsdb:@term+@rn+@rel+64257-84-7
   9. http://pubchem.ncbi.nlm.nih.gov/vw3d/vw3d.cgi?cid=47326
