11954037
  -OEChem-07051213052D

 87 90  0     1  0  0  0  0  0999 V2000
    3.9939   -2.6849    0.0000 O   0  0  0  0  0  0  0  0  0  0  0  0
    6.0611   -3.1014    0.0000 O   0  0  0  0  0  0  0  0  0  0  0  0
    4.7258   -0.0555    0.0000 O   0  0  0  0  0  0  0  0  0  0  0  0
    7.6596   -3.2016    0.0000 O   0  0  0  0  0  0  0  0  0  0  0  0
   10.3856   -1.7710    0.0000 O   0  0  0  0  0  0  0  0  0  0  0  0
   10.8586    0.1345    0.0000 O   0  0  0  0  0  0  0  0  0  0  0  0
    8.4863   -0.4641    0.0000 O   0  0  0  0  0  0  0  0  0  0  0  0
    9.2556    3.3015    0.0000 O   0  0  0  0  0  0  0  0  0  0  0  0
    7.5072   -0.7331    0.0000 O   0  0  0  0  0  0  0  0  0  0  0  0
    7.5072    3.3361    0.0000 O   0  0  0  0  0  0  0  0  0  0  0  0
    4.7936    0.9422    0.0000 O   0  0  0  0  0  0  0  0  0  0  0  0
    5.6916    1.3823    0.0000 N   0  0  0  0  0  0  0  0  0  0  0  0
    5.2989   -1.5461    0.0000 C   0  0  3  0  0  0  0  0  0  0  0  0
    4.3177   -1.7388    0.0000 C   0  0  3  0  0  0  0  0  0  0  0  0
    3.6602   -0.9853    0.0000 C   0  0  3  0  0  0  0  0  0  0  0  0
    6.1290   -2.1037    0.0000 C   0  0  3  0  0  0  0  0  0  0  0  0
    7.0270   -1.6637    0.0000 C   0  0  3  0  0  0  0  0  0  0  0  0
    3.7281    0.0124    0.0000 C   0  0  3  0  0  0  0  0  0  0  0  0
    5.4964   -0.5658    0.0000 C   0  0  0  0  0  0  0  0  0  0  0  0
    2.8980    0.5700    0.0000 C   0  0  3  0  0  0  0  0  0  0  0  0
    2.7125   -1.3044    0.0000 C   0  0  0  0  0  0  0  0  0  0  0  0
    7.8571   -2.2213    0.0000 C   0  0  3  0  0  0  0  0  0  0  0  0
    6.5869   -0.7657    0.0000 C   0  0  0  0  0  0  0  0  0  0  0  0
    2.0000    0.1300    0.0000 C   0  0  0  0  0  0  0  0  0  0  0  0
    2.9658    1.5677    0.0000 C   0  0  0  0  0  0  0  0  0  0  0  0
    8.8383   -2.0286    0.0000 C   0  0  0  0  0  0  0  0  0  0  0  0
   10.4535   -0.7733    0.0000 C   0  0  3  0  0  0  0  0  0  0  0  0
    9.6684   -2.5863    0.0000 C   0  0  0  0  0  0  0  0  0  0  0  0
    3.8638    2.0078    0.0000 C   0  0  0  0  0  0  0  0  0  0  0  0
    9.2556    0.3015    0.0000 C   0  0  0  0  0  0  0  0  0  0  0  0
    9.4648   -0.6703    0.0000 C   0  0  0  0  0  0  0  0  0  0  0  0
   10.1216    0.8015    0.0000 C   0  0  0  0  0  0  0  0  0  0  0  0
    8.3896    0.8015    0.0000 C   0  0  0  0  0  0  0  0  0  0  0  0
   11.4239   -1.0148    0.0000 C   0  0  0  0  0  0  0  0  0  0  0  0
   10.1216    1.8015    0.0000 C   0  0  0  0  0  0  0  0  0  0  0  0
    8.3896    1.8015    0.0000 C   0  0  0  0  0  0  0  0  0  0  0  0
    3.9317    3.0055    0.0000 C   0  0  0  0  0  0  0  0  0  0  0  0
    9.2556    2.3015    0.0000 C   0  0  0  0  0  0  0  0  0  0  0  0
    7.4956    0.2669    0.0000 C   0  0  0  0  0  0  0  0  0  0  0  0
    7.4956    2.3362    0.0000 C   0  0  0  0  0  0  0  0  0  0  0  0
    4.9294    2.9376    0.0000 C   0  0  0  0  0  0  0  0  0  0  0  0
    6.5896    1.8224    0.0000 C   0  0  0  0  0  0  0  0  0  0  0  0
   10.9876    2.3015    0.0000 C   0  0  0  0  0  0  0  0  0  0  0  0
    6.5896    0.7807    0.0000 C   0  0  0  0  0  0  0  0  0  0  0  0
    4.8615    1.9399    0.0000 C   0  0  0  0  0  0  0  0  0  0  0  0
    5.6828    3.5951    0.0000 C   0  0  0  0  0  0  0  0  0  0  0  0
    6.0850   -1.2228    0.0000 H   0  0  0  0  0  0  0  0  0  0  0  0
    3.4836   -1.9025    0.0000 H   0  0  0  0  0  0  0  0  0  0  0  0
    2.9871   -0.4662    0.0000 H   0  0  0  0  0  0  0  0  0  0  0  0
    5.3658   -2.4778    0.0000 H   0  0  0  0  0  0  0  0  0  0  0  0
    7.6674   -1.1048    0.0000 H   0  0  0  0  0  0  0  0  0  0  0  0
    4.0033    0.8166    0.0000 H   0  0  0  0  0  0  0  0  0  0  0  0
    6.1042   -0.6883    0.0000 H   0  0  0  0  0  0  0  0  0  0  0  0
    5.6189    0.0420    0.0000 H   0  0  0  0  0  0  0  0  0  0  0  0
    4.8887   -0.4433    0.0000 H   0  0  0  0  0  0  0  0  0  0  0  0
    2.1924    1.0440    0.0000 H   0  0  0  0  0  0  0  0  0  0  0  0
    2.5146   -0.7168    0.0000 H   0  0  0  0  0  0  0  0  0  0  0  0
    2.1249   -1.5022    0.0000 H   0  0  0  0  0  0  0  0  0  0  0  0
    2.9103   -1.8920    0.0000 H   0  0  0  0  0  0  0  0  0  0  0  0
    8.4566   -2.8238    0.0000 H   0  0  0  0  0  0  0  0  0  0  0  0
    7.1437   -0.4929    0.0000 H   0  0  0  0  0  0  0  0  0  0  0  0
    6.3141   -0.2090    0.0000 H   0  0  0  0  0  0  0  0  0  0  0  0
    6.0302   -1.0385    0.0000 H   0  0  0  0  0  0  0  0  0  0  0  0
    3.3855   -2.8043    0.0000 H   0  0  0  0  0  0  0  0  0  0  0  0
    5.5044   -3.3743    0.0000 H   0  0  0  0  0  0  0  0  0  0  0  0
    1.7272    0.6867    0.0000 H   0  0  0  0  0  0  0  0  0  0  0  0
    1.4433   -0.1429    0.0000 H   0  0  0  0  0  0  0  0  0  0  0  0
    2.2728   -0.4268    0.0000 H   0  0  0  0  0  0  0  0  0  0  0  0
    4.6837   -0.6740    0.0000 H   0  0  0  0  0  0  0  0  0  0  0  0
    2.4512    1.9135    0.0000 H   0  0  0  0  0  0  0  0  0  0  0  0
    8.9608   -1.4208    0.0000 H   0  0  0  0  0  0  0  0  0  0  0  0
    8.1247   -3.6115    0.0000 H   0  0  0  0  0  0  0  0  0  0  0  0
    9.7192   -3.2042    0.0000 H   0  0  0  0  0  0  0  0  0  0  0  0
    4.1367    1.4510    0.0000 H   0  0  0  0  0  0  0  0  0  0  0  0
   11.2743   -1.6164    0.0000 H   0  0  0  0  0  0  0  0  0  0  0  0
   12.0256   -1.1644    0.0000 H   0  0  0  0  0  0  0  0  0  0  0  0
   11.5736   -0.4131    0.0000 H   0  0  0  0  0  0  0  0  0  0  0  0
    3.5240    3.4726    0.0000 H   0  0  0  0  0  0  0  0  0  0  0  0
   11.2976    1.7646    0.0000 H   0  0  0  0  0  0  0  0  0  0  0  0
   11.5246    2.6115    0.0000 H   0  0  0  0  0  0  0  0  0  0  0  0
   10.6776    2.8385    0.0000 H   0  0  0  0  0  0  0  0  0  0  0  0
    6.0538    0.4687    0.0000 H   0  0  0  0  0  0  0  0  0  0  0  0
    5.6495    0.7637    0.0000 H   0  0  0  0  0  0  0  0  0  0  0  0
    6.0905    3.1279    0.0000 H   0  0  0  0  0  0  0  0  0  0  0  0
    6.1500    4.0027    0.0000 H   0  0  0  0  0  0  0  0  0  0  0  0
    5.2752    4.0622    0.0000 H   0  0  0  0  0  0  0  0  0  0  0  0
    9.7925    3.6115    0.0000 H   0  0  0  0  0  0  0  0  0  0  0  0
  1 14  1  0  0  0  0
  1 64  1  0  0  0  0
  2 16  1  0  0  0  0
  2 65  1  0  0  0  0
  3 18  1  0  0  0  0
  3 69  1  0  0  0  0
  4 22  1  0  0  0  0
  4 72  1  0  0  0  0
  5 27  1  0  0  0  0
  5 28  1  0  0  0  0
  6 27  1  0  0  0  0
  6 32  1  0  0  0  0
  7 31  2  0  0  0  0
  8 38  1  0  0  0  0
  8 87  1  0  0  0  0
  9 39  2  0  0  0  0
 10 40  2  0  0  0  0
 11 45  2  0  0  0  0
 12 42  1  0  0  0  0
 12 45  1  0  0  0  0
 12 83  1  0  0  0  0
 13 14  1  0  0  0  0
 13 16  1  0  0  0  0
 13 19  1  0  0  0  0
 13 47  1  0  0  0  0
 14 15  1  0  0  0  0
 14 48  1  0  0  0  0
 15 18  1  0  0  0  0
 15 21  1  0  0  0  0
 15 49  1  0  0  0  0
 16 17  1  0  0  0  0
 16 50  1  0  0  0  0
 17 22  1  0  0  0  0
 17 23  1  0  0  0  0
 17 51  1  0  0  0  0
 18 20  1  0  0  0  0
 18 52  1  0  0  0  0
 19 53  1  0  0  0  0
 19 54  1  0  0  0  0
 19 55  1  0  0  0  0
 20 24  1  0  0  0  0
 20 25  1  0  0  0  0
 20 56  1  0  0  0  0
 21 57  1  0  0  0  0
 21 58  1  0  0  0  0
 21 59  1  0  0  0  0
 22 26  1  0  0  0  0
 22 60  1  0  0  0  0
 23 61  1  0  0  0  0
 23 62  1  0  0  0  0
 23 63  1  0  0  0  0
 24 66  1  0  0  0  0
 24 67  1  0  0  0  0
 24 68  1  0  0  0  0
 25 29  2  0  0  0  0
 25 70  1  0  0  0  0
 26 28  2  0  0  0  0
 26 71  1  0  0  0  0
 27 31  1  0  0  0  0
 27 34  1  0  0  0  0
 28 73  1  0  0  0  0
 29 37  1  0  0  0  0
 29 74  1  0  0  0  0
 30 31  1  0  0  0  0
 30 32  1  0  0  0  0
 30 33  2  0  0  0  0
 32 35  2  0  0  0  0
 33 36  1  0  0  0  0
 33 39  1  0  0  0  0
 34 75  1  0  0  0  0
 34 76  1  0  0  0  0
 34 77  1  0  0  0  0
 35 38  1  0  0  0  0
 35 43  1  0  0  0  0
 36 38  2  0  0  0  0
 36 40  1  0  0  0  0
 37 41  2  0  0  0  0
 37 78  1  0  0  0  0
 39 44  1  0  0  0  0
 40 42  1  0  0  0  0
 41 45  1  0  0  0  0
 41 46  1  0  0  0  0
 42 44  2  0  0  0  0
 43 79  1  0  0  0  0
 43 80  1  0  0  0  0
 43 81  1  0  0  0  0
 44 82  1  0  0  0  0
 46 84  1  0  0  0  0
 46 85  1  0  0  0  0
 46 86  1  0  0  0  0
M  END
> <PUBCHEM_COMPOUND_CID>
11954037

> <PUBCHEM_COMPOUND_CANONICALIZED>
1

> <PUBCHEM_CACTVS_COMPLEXITY>
1350

> <PUBCHEM_CACTVS_HBOND_ACCEPTOR>
11

> <PUBCHEM_CACTVS_HBOND_DONOR>
6

> <PUBCHEM_CACTVS_ROTATABLE_BOND>
0

> <PUBCHEM_CACTVS_SUBSKEYS>
AAADcfB+PAAAAAAAAAAAAAAAAAAAASAAAAAwQAAAAAAAAEiBAAAAHgAQCAAADRyhmAICDoLABgCIAqVSUAKCCAAkIgAIiAHECMgcNzaGtT+meWCl5BWMucf77/zu4AADCAAYAADAAAYQADAAAAAAAAAAAA==

> <PUBCHEM_IUPAC_INCHI>
InChI=1S/C34H41NO11/c1-14-9-8-10-15(2)33(44)35-20-13-22(37)23-24(30(20)42)29(41)19(6)31-25(23)32(43)34(7,46-31)45-12-11-21(36)16(3)27(39)18(5)28(40)17(4)26(14)38/h8-14,16-18,21,26-28,36,38-41H,1-7H3,(H,35,44)/b9-8+,12-11+,15-10-

> <PUBCHEM_IUPAC_INCHIKEY>
VCKBLTRSSYIXLX-ONLQGICSSA-N

> <PUBCHEM_XLOGP3_AA>
3

> <PUBCHEM_EXACT_MASS>
639.267961

> <PUBCHEM_MOLECULAR_FORMULA>
C34H41NO11

> <PUBCHEM_MOLECULAR_WEIGHT>
639.68944

> <PUBCHEM_OPENEYE_CAN_SMILES>
CC1C=CC=C(C(=O)NC2=CC(=O)C3=C4C(=C(C(=C3C2=O)O)C)OC(C4=O)(OC=CC(C(C(C(C(C(C1O)C)O)C)O)C)O)C)C

> <PUBCHEM_OPENEYE_ISO_SMILES>
CC1/C=C/C=C(\C(=O)NC2=CC(=O)C3=C4C(=C(C(=C3C2=O)O)C)OC(C4=O)(O/C=C/C(C(C(C(C(C(C1O)C)O)C)O)C)O)C)/C

> <PUBCHEM_CACTVS_TPSA>
200

> <PUBCHEM_MONOISOTOPIC_WEIGHT>
639.267961

> <PUBCHEM_TOTAL_CHARGE>
0

> <PUBCHEM_HEAVY_ATOM_COUNT>
46

> <PUBCHEM_ATOM_DEF_STEREO_COUNT>
0

> <PUBCHEM_ATOM_UDEF_STEREO_COUNT>
9

> <PUBCHEM_BOND_DEF_STEREO_COUNT>
3

> <PUBCHEM_BOND_UDEF_STEREO_COUNT>
0

> <PUBCHEM_ISOTOPIC_ATOM_COUNT>
0

> <PUBCHEM_COMPONENT_COUNT>
1

> <PUBCHEM_CACTVS_TAUTO_COUNT>
339

> <PUBCHEM_COORDINATE_TYPE>
1
5
255

> <PUBCHEM_BONDANNOTATIONS>
13  47  3
14  48  3
15  49  3
16  50  3
17  51  3
18  52  3
20  56  3
22  60  3
27  34  3
30  32  8
30  33  8
32  35  8
33  36  8
35  38  8
36  38  8

$$$$

