5292
  -OEChem-06261200372D

 77 78  0     1  0  0  0  0  0999 V2000
    8.9282   -2.7277    0.0000 O   0  0  0  0  0  0  0  0  0  0  0  0
    8.9282   -5.7277    0.0000 O   0  0  0  0  0  0  0  0  0  0  0  0
   10.6766   -5.7623    0.0000 O   0  0  0  0  0  0  0  0  0  0  0  0
   10.6766   -1.6931    0.0000 O   0  0  0  0  0  0  0  0  0  0  0  0
   12.4583   -2.7036    0.0000 O   0  0  0  0  0  0  0  0  0  0  0  0
    6.3301   -0.2277    0.0000 C   0  0  3  0  0  0  0  0  0  0  0  0
    5.4641    0.2723    0.0000 C   0  0  3  0  0  0  0  0  0  0  0  0
    6.3301   -1.2277    0.0000 C   0  0  3  0  0  0  0  0  0  0  0  0
    5.4641    1.2723    0.0000 C   0  0  3  0  0  0  0  0  0  0  0  0
    7.1962   -1.7277    0.0000 C   0  0  0  0  0  0  0  0  0  0  0  0
    7.1962    0.2723    0.0000 C   0  0  0  0  0  0  0  0  0  0  0  0
    4.5981   -0.2277    0.0000 C   0  0  0  0  0  0  0  0  0  0  0  0
    5.4641   -1.7277    0.0000 C   0  0  0  0  0  0  0  0  0  0  0  0
    7.1962   -2.7277    0.0000 C   0  0  0  0  0  0  0  0  0  0  0  0
    6.3301    1.7723    0.0000 C   0  0  0  0  0  0  0  0  0  0  0  0
    4.5981    1.7723    0.0000 C   0  0  0  0  0  0  0  0  0  0  0  0
    8.0622   -3.2277    0.0000 C   0  0  0  0  0  0  0  0  0  0  0  0
    4.5981    2.7723    0.0000 C   0  0  0  0  0  0  0  0  0  0  0  0
    8.0622   -4.2277    0.0000 C   0  0  0  0  0  0  0  0  0  0  0  0
    8.9282   -4.7277    0.0000 C   0  0  0  0  0  0  0  0  0  0  0  0
    9.7942   -3.2277    0.0000 C   0  0  0  0  0  0  0  0  0  0  0  0
    9.7942   -4.2277    0.0000 C   0  0  0  0  0  0  0  0  0  0  0  0
    7.1962   -4.7277    0.0000 C   0  0  0  0  0  0  0  0  0  0  0  0
    3.7320    3.2723    0.0000 C   0  0  0  0  0  0  0  0  0  0  0  0
   10.6882   -2.6930    0.0000 C   0  0  0  0  0  0  0  0  0  0  0  0
   10.6882   -4.7624    0.0000 C   0  0  0  0  0  0  0  0  0  0  0  0
   11.5942   -3.2069    0.0000 C   0  0  0  0  0  0  0  0  0  0  0  0
    3.7320    4.2723    0.0000 C   0  0  0  0  0  0  0  0  0  0  0  0
   11.5942   -4.2485    0.0000 C   0  0  0  0  0  0  0  0  0  0  0  0
    2.8660    4.7723    0.0000 C   0  0  0  0  0  0  0  0  0  0  0  0
   11.5368   -6.2723    0.0000 C   0  0  0  0  0  0  0  0  0  0  0  0
    2.0000    4.2723    0.0000 C   0  0  0  0  0  0  0  0  0  0  0  0
    2.8660    5.7723    0.0000 C   0  0  0  0  0  0  0  0  0  0  0  0
   13.3263   -3.2002    0.0000 C   0  0  0  0  0  0  0  0  0  0  0  0
    2.0000    6.2723    0.0000 C   0  0  0  0  0  0  0  0  0  0  0  0
    7.0662   -0.6527    0.0000 H   0  0  0  0  0  0  0  0  0  0  0  0
    5.4641   -0.5777    0.0000 H   0  0  0  0  0  0  0  0  0  0  0  0
    5.5940   -0.8027    0.0000 H   0  0  0  0  0  0  0  0  0  0  0  0
    5.4641    2.1223    0.0000 H   0  0  0  0  0  0  0  0  0  0  0  0
    7.8067   -1.8354    0.0000 H   0  0  0  0  0  0  0  0  0  0  0  0
    7.4082   -1.1451    0.0000 H   0  0  0  0  0  0  0  0  0  0  0  0
    7.5062   -0.2646    0.0000 H   0  0  0  0  0  0  0  0  0  0  0  0
    7.7331    0.5823    0.0000 H   0  0  0  0  0  0  0  0  0  0  0  0
    6.8862    0.8092    0.0000 H   0  0  0  0  0  0  0  0  0  0  0  0
    4.2881    0.3092    0.0000 H   0  0  0  0  0  0  0  0  0  0  0  0
    4.0611   -0.5377    0.0000 H   0  0  0  0  0  0  0  0  0  0  0  0
    4.9081   -0.7646    0.0000 H   0  0  0  0  0  0  0  0  0  0  0  0
    5.1541   -1.1908    0.0000 H   0  0  0  0  0  0  0  0  0  0  0  0
    4.9272   -2.0377    0.0000 H   0  0  0  0  0  0  0  0  0  0  0  0
    5.7741   -2.2646    0.0000 H   0  0  0  0  0  0  0  0  0  0  0  0
    6.5856   -2.6200    0.0000 H   0  0  0  0  0  0  0  0  0  0  0  0
    6.9841   -3.3103    0.0000 H   0  0  0  0  0  0  0  0  0  0  0  0
    6.6401    1.2354    0.0000 H   0  0  0  0  0  0  0  0  0  0  0  0
    6.8671    2.0823    0.0000 H   0  0  0  0  0  0  0  0  0  0  0  0
    6.0201    2.3092    0.0000 H   0  0  0  0  0  0  0  0  0  0  0  0
    4.0611    1.4623    0.0000 H   0  0  0  0  0  0  0  0  0  0  0  0
    5.1350    3.0823    0.0000 H   0  0  0  0  0  0  0  0  0  0  0  0
    6.8862   -4.1908    0.0000 H   0  0  0  0  0  0  0  0  0  0  0  0
    6.6592   -5.0377    0.0000 H   0  0  0  0  0  0  0  0  0  0  0  0
    7.5062   -5.2646    0.0000 H   0  0  0  0  0  0  0  0  0  0  0  0
    3.1951    2.9623    0.0000 H   0  0  0  0  0  0  0  0  0  0  0  0
   12.1300   -4.5606    0.0000 H   0  0  0  0  0  0  0  0  0  0  0  0
    4.2690    4.5823    0.0000 H   0  0  0  0  0  0  0  0  0  0  0  0
   11.2099   -1.3769    0.0000 H   0  0  0  0  0  0  0  0  0  0  0  0
   11.2206   -6.8056    0.0000 H   0  0  0  0  0  0  0  0  0  0  0  0
   12.0701   -6.5885    0.0000 H   0  0  0  0  0  0  0  0  0  0  0  0
   11.8530   -5.7390    0.0000 H   0  0  0  0  0  0  0  0  0  0  0  0
    1.6900    4.8092    0.0000 H   0  0  0  0  0  0  0  0  0  0  0  0
    1.4631    3.9623    0.0000 H   0  0  0  0  0  0  0  0  0  0  0  0
    2.3100    3.7354    0.0000 H   0  0  0  0  0  0  0  0  0  0  0  0
    3.4030    6.0823    0.0000 H   0  0  0  0  0  0  0  0  0  0  0  0
   13.0183   -3.7384    0.0000 H   0  0  0  0  0  0  0  0  0  0  0  0
   13.8644   -3.5082    0.0000 H   0  0  0  0  0  0  0  0  0  0  0  0
   13.6342   -2.6621    0.0000 H   0  0  0  0  0  0  0  0  0  0  0  0
    2.3100    6.8092    0.0000 H   0  0  0  0  0  0  0  0  0  0  0  0
    1.4631    6.5823    0.0000 H   0  0  0  0  0  0  0  0  0  0  0  0
    1.6900    5.7354    0.0000 H   0  0  0  0  0  0  0  0  0  0  0  0
  1 17  1  0  0  0  0
  1 21  1  0  0  0  0
  2 20  2  0  0  0  0
  3 26  1  0  0  0  0
  3 31  1  0  0  0  0
  4 25  1  0  0  0  0
  4 64  1  0  0  0  0
  5 27  1  0  0  0  0
  5 34  1  0  0  0  0
  6  7  1  0  0  0  0
  6  8  1  0  0  0  0
  6 11  1  0  0  0  0
  6 36  1  0  0  0  0
  7  9  1  0  0  0  0
  7 12  1  0  0  0  0
  7 37  1  0  0  0  0
  8 10  1  0  0  0  0
  8 13  1  0  0  0  0
  8 38  1  0  0  0  0
  9 15  1  0  0  0  0
  9 16  1  0  0  0  0
  9 39  1  0  0  0  0
 10 14  1  0  0  0  0
 10 40  1  0  0  0  0
 10 41  1  0  0  0  0
 11 42  1  0  0  0  0
 11 43  1  0  0  0  0
 11 44  1  0  0  0  0
 12 45  1  0  0  0  0
 12 46  1  0  0  0  0
 12 47  1  0  0  0  0
 13 48  1  0  0  0  0
 13 49  1  0  0  0  0
 13 50  1  0  0  0  0
 14 17  1  0  0  0  0
 14 51  1  0  0  0  0
 14 52  1  0  0  0  0
 15 53  1  0  0  0  0
 15 54  1  0  0  0  0
 15 55  1  0  0  0  0
 16 18  2  3  0  0  0
 16 56  1  0  0  0  0
 17 19  2  0  0  0  0
 18 24  1  0  0  0  0
 18 57  1  0  0  0  0
 19 20  1  0  0  0  0
 19 23  1  0  0  0  0
 20 22  1  0  0  0  0
 21 22  2  0  0  0  0
 21 25  1  0  0  0  0
 22 26  1  0  0  0  0
 23 58  1  0  0  0  0
 23 59  1  0  0  0  0
 23 60  1  0  0  0  0
 24 28  2  3  0  0  0
 24 61  1  0  0  0  0
 25 27  2  0  0  0  0
 26 29  2  0  0  0  0
 27 29  1  0  0  0  0
 28 30  1  0  0  0  0
 28 63  1  0  0  0  0
 29 62  1  0  0  0  0
 30 32  1  0  0  0  0
 30 33  2  3  0  0  0
 31 65  1  0  0  0  0
 31 66  1  0  0  0  0
 31 67  1  0  0  0  0
 32 68  1  0  0  0  0
 32 69  1  0  0  0  0
 32 70  1  0  0  0  0
 33 35  1  0  0  0  0
 33 71  1  0  0  0  0
 34 72  1  0  0  0  0
 34 73  1  0  0  0  0
 34 74  1  0  0  0  0
 35 75  1  0  0  0  0
 35 76  1  0  0  0  0
 35 77  1  0  0  0  0
M  END
> <PUBCHEM_COMPOUND_CID>
5292

> <PUBCHEM_COMPOUND_CANONICALIZED>
1

> <PUBCHEM_CACTVS_COMPLEXITY>
823

> <PUBCHEM_CACTVS_HBOND_ACCEPTOR>
5

> <PUBCHEM_CACTVS_HBOND_DONOR>
1

> <PUBCHEM_CACTVS_ROTATABLE_BOND>
11

> <PUBCHEM_CACTVS_SUBSKEYS>
AAADcfB4OAAAAAAAAAAAAAAAAAAAAAAAAAAwQAAAAAAAAACBAAAAGgAACAAADQSAmAIyBoAABgCIAqBSAAACCAAkIAAIiAEGiMgNJzaGNRqCeWOl4BULuQfK7PzOoQABCAAIQABCAAIQABCAAAAAAAAAAA==

> <PUBCHEM_IUPAC_OPENEYE_NAME>
8-hydroxy-5,7-dimethoxy-3-methyl-2-(3,4,5,6,11-pentamethyltrideca-7,9,11-trienyl)chromen-4-one

> <PUBCHEM_IUPAC_CAS_NAME>
8-hydroxy-5,7-dimethoxy-3-methyl-2-(3,4,5,6,11-pentamethyltrideca-7,9,11-trienyl)-1-benzopyran-4-one

> <PUBCHEM_IUPAC_NAME>
8-hydroxy-5,7-dimethoxy-3-methyl-2-(3,4,5,6,11-pentamethyltrideca-7,9,11-trienyl)chromen-4-one

> <PUBCHEM_IUPAC_SYSTEMATIC_NAME>
5,7-dimethoxy-3-methyl-8-oxidanyl-2-(3,4,5,6,11-pentamethyltrideca-7,9,11-trienyl)chromen-4-one

> <PUBCHEM_IUPAC_TRADITIONAL_NAME>
8-hydroxy-5,7-dimethoxy-3-methyl-2-(3,4,5,6,11-pentamethyltrideca-7,9,11-trienyl)chromone

> <PUBCHEM_IUPAC_INCHI>
InChI=1S/C30H42O5/c1-10-18(2)13-11-12-14-19(3)21(5)22(6)20(4)15-16-24-23(7)28(31)27-25(33-8)17-26(34-9)29(32)30(27)35-24/h10-14,17,19-22,32H,15-16H2,1-9H3

> <PUBCHEM_IUPAC_INCHIKEY>
UDPIGEIYWVCFED-UHFFFAOYSA-N

> <PUBCHEM_XLOGP3_AA>
8.1

> <PUBCHEM_EXACT_MASS>
482.303224

> <PUBCHEM_MOLECULAR_FORMULA>
C30H42O5

> <PUBCHEM_MOLECULAR_WEIGHT>
482.65148

> <PUBCHEM_OPENEYE_CAN_SMILES>
CC=C(C)C=CC=CC(C)C(C)C(C)C(C)CCC1=C(C(=O)C2=C(O1)C(=C(C=C2OC)OC)O)C

> <PUBCHEM_OPENEYE_ISO_SMILES>
CC=C(C)C=CC=CC(C)C(C)C(C)C(C)CCC1=C(C(=O)C2=C(O1)C(=C(C=C2OC)OC)O)C

> <PUBCHEM_CACTVS_TPSA>
65

> <PUBCHEM_MONOISOTOPIC_WEIGHT>
482.303224

> <PUBCHEM_TOTAL_CHARGE>
0

> <PUBCHEM_HEAVY_ATOM_COUNT>
35

> <PUBCHEM_ATOM_DEF_STEREO_COUNT>
0

> <PUBCHEM_ATOM_UDEF_STEREO_COUNT>
4

> <PUBCHEM_BOND_DEF_STEREO_COUNT>
0

> <PUBCHEM_BOND_UDEF_STEREO_COUNT>
3

> <PUBCHEM_ISOTOPIC_ATOM_COUNT>
0

> <PUBCHEM_COMPONENT_COUNT>
1

> <PUBCHEM_CACTVS_TAUTO_COUNT>
15

> <PUBCHEM_COORDINATE_TYPE>
1
5
255

> <PUBCHEM_BONDANNOTATIONS>
1  17  8
1  21  8
16  18  1
17  19  8
19  20  8
20  22  8
21  22  8
21  25  8
22  26  8
24  28  1
25  27  8
26  29  8
27  29  8
30  33  1
6  36  3
7  37  3
8  38  3
9  39  3

$$$$

