   Color/Form

     * Colorless cyrstals
     * Large white flakes or white needles

   from [1]HSDB

   Boiling Point
        70 deg C at 60 mm Hg
   from [2]HSDB

   Melting Point
        33 DEG C
   from [3]HSDB

   Density/Specific Gravity
        1.227
   from [4]HSDB

   Dissociation Constants
        pKa= 5.94 @ 25 deg C
   from [5]HSDB

   Solubilities

     * Very sol in water, liq ammonia, methanol; sparingly sol in ether,
       benzene, carbon disulfide, chloroform
     * Soluble in alcohol, acids, and cold water

   from [6]HSDB

   Vapor Pressure
        53 mm Hg at 32 deg C
   from [7]HSDB

   Other Chemical/Physical Properties

     * VERY HYGROSCOPIC; ALKALINE REACTION; DECOMP BY HOT WATER; HEAT OF
       FORMATION (SOLID): -27.60 KCAL/MOL AT 18 DEG C & 1 ATM; (LIQ):
       -25.5 KCAL/MOL AT 18 DEG C & 1 ATM
     * REDUCING AGENT IN ALKALINE, OXIDIZING AGENT IN ACID MEDIUM
     * COLORLESS MONOCLINIC CRYSTALS; BP: DECOMP; SLIGHTLY SOL IN ALC; SOL
       IN ETHER /SULFATE/
     * Decomposes in hot water
     * Monoclinic columnar crystals; slowly decomp when moist; density:
       1.67 at 17 deg C; mp: about 151 deg C; pK of 0.2 molar aq soln 3.2;
       1 g sol in 1 ml H2O, 19 ml alc, 8 ml methanol; sol in glycerol,
       propylene glycol; insol in cold ether /Hydroxylamine hydrochloride/

   from [8]HSDB

   Computed Properties
   Molecular Weight                  33.02992 [g/mol]
   Molecular Formula                 H[3]NO
   XLogP3-AA                         -1.2
   H-Bond Donor                      2
   H-Bond Acceptor                   2
   Rotatable Bond Count              0
   Exact Mass                        33.021464
   MonoIsotopic Mass                 33.021464
   Topological Polar Surface Area    46.2
   Heavy Atom Count                  2
   Formal Charge                     0
   Complexity                        2
   Isotope Atom Count                0
   Defined Atom Stereocenter Count   0
   Undefined Atom Stereocenter Count 0
   Defined Bond Stereocenter Count   0
   Undefined Bond Stereocenter Count 0
   Covalently-Bonded Unit Count      1
   Effective Rotor Count             0
   Conformer Sampling RMSD           0.4
   CID Conformer Count               [9]1

References

   1. http://toxnet.nlm.nih.gov/cgi-bin/sis/search/r?dbs+hsdb:@term+@rn+@rel+7803-49-8
   2. http://toxnet.nlm.nih.gov/cgi-bin/sis/search/r?dbs+hsdb:@term+@rn+@rel+7803-49-8
   3. http://toxnet.nlm.nih.gov/cgi-bin/sis/search/r?dbs+hsdb:@term+@rn+@rel+7803-49-8
   4. http://toxnet.nlm.nih.gov/cgi-bin/sis/search/r?dbs+hsdb:@term+@rn+@rel+7803-49-8
   5. http://toxnet.nlm.nih.gov/cgi-bin/sis/search/r?dbs+hsdb:@term+@rn+@rel+7803-49-8
   6. http://toxnet.nlm.nih.gov/cgi-bin/sis/search/r?dbs+hsdb:@term+@rn+@rel+7803-49-8
   7. http://toxnet.nlm.nih.gov/cgi-bin/sis/search/r?dbs+hsdb:@term+@rn+@rel+7803-49-8
   8. http://toxnet.nlm.nih.gov/cgi-bin/sis/search/r?dbs+hsdb:@term+@rn+@rel+7803-49-8
   9. http://pubchem.ncbi.nlm.nih.gov/vw3d/vw3d.cgi?cid=787
