   Color/Form

     * WHITE TO OFF-WHITE CRYSTALLINE POWDER
     * Light-gray powder
     * White, yellowish, or light-gray powder.

   from [1]HSDB

   Odor

     * Slight odor.
     * Odorless

   from [2]HSDB

   Taste
        SLIGHTLY BITTER TASTE
   from [3]HSDB

   Boiling Point
        117 deg C at 17 mm Hg
   from [4]HSDB

   Melting Point
        71.5 deg C
   from [5]HSDB

   Density/Specific Gravity
        1.30
   from [6]HSDB

   Octanol/Water Partition Coefficient
        log Kow= 3.88
   from [7]HSDB

   Solubilities

     * Sol in alc (3.82 g/100 ml), ether (7.14 g/100 ml), acetone,
       benzene, chloroform, carbon disulfide
     * Soluble in aromatic
     * In water, 4.09 mg/L at 25 deg C

   from [8]HSDB

   Spectral Properties

     * SADTLER REFERENCE NUMBER: 1244 (IR, PRISM)
     * Intense mass spectral peaks: 116 m/z (100%), 88 m/z (49%), 44 m/z
       (43%), 148 m/z (40%)
     * Intense mass spectral peaks: 60 m/z, 296 m/z
     * IR: 15313 (Sadtler Research Laboratories IR Grating Collection)
     * NMR: 6686 (Sadtler Research Laboratories Spectral Collection)
     * MASS: NIST 14172 (NIST/EPA/MSDC Mass Spectral Database 1990
       version)
     * 1H NMR: SAD 6686 (Sadtler Research Laboratories Spectral
       Collection)

   from [9]HSDB

   Vapor Pressure
        8.7X10-4 mm Hg at 25 deg C (est)
   from [10]HSDB

   Other Chemical/Physical Properties

     * Wt/vol conversion: 12.10 mg/cu m = 1 ppm
     * Henry's Law constant = 8.3X10-5 atm cu m/mol at 25 deg C (est)
     * Hydroxyl radical reaction rate constant = 3.9X10-10 cu cm/molc sec
       at 25 deg C (est)

   from [11]HSDB

   Computed Properties
   Molecular Weight                  296.5392 [g/mol]
   Molecular Formula                 C[10]H[20]N[2]S[4]
   XLogP3                            3.9
   H-Bond Donor                      0
   H-Bond Acceptor                   4
   Rotatable Bond Count              7
   Exact Mass                        296.050933
   MonoIsotopic Mass                 296.050933
   Topological Polar Surface Area    121
   Heavy Atom Count                  16
   Formal Charge                     0
   Complexity                        201
   Isotope Atom Count                0
   Defined Atom Stereocenter Count   0
   Undefined Atom Stereocenter Count 0
   Defined Bond Stereocenter Count   0
   Undefined Bond Stereocenter Count 0
   Covalently-Bonded Unit Count      1
   Feature 3D Acceptor Count         2
   Effective Rotor Count             9
   Conformer Sampling RMSD           0.8
   CID Conformer Count               [12]186

References

   1. http://toxnet.nlm.nih.gov/cgi-bin/sis/search/r?dbs+hsdb:@term+@rn+@rel+97-77-8
   2. http://toxnet.nlm.nih.gov/cgi-bin/sis/search/r?dbs+hsdb:@term+@rn+@rel+97-77-8
   3. http://toxnet.nlm.nih.gov/cgi-bin/sis/search/r?dbs+hsdb:@term+@rn+@rel+97-77-8
   4. http://toxnet.nlm.nih.gov/cgi-bin/sis/search/r?dbs+hsdb:@term+@rn+@rel+97-77-8
   5. http://toxnet.nlm.nih.gov/cgi-bin/sis/search/r?dbs+hsdb:@term+@rn+@rel+97-77-8
   6. http://toxnet.nlm.nih.gov/cgi-bin/sis/search/r?dbs+hsdb:@term+@rn+@rel+97-77-8
   7. http://toxnet.nlm.nih.gov/cgi-bin/sis/search/r?dbs+hsdb:@term+@rn+@rel+97-77-8
   8. http://toxnet.nlm.nih.gov/cgi-bin/sis/search/r?dbs+hsdb:@term+@rn+@rel+97-77-8
   9. http://toxnet.nlm.nih.gov/cgi-bin/sis/search/r?dbs+hsdb:@term+@rn+@rel+97-77-8
  10. http://toxnet.nlm.nih.gov/cgi-bin/sis/search/r?dbs+hsdb:@term+@rn+@rel+97-77-8
  11. http://toxnet.nlm.nih.gov/cgi-bin/sis/search/r?dbs+hsdb:@term+@rn+@rel+97-77-8
  12. http://pubchem.ncbi.nlm.nih.gov/vw3d/vw3d.cgi?cid=3117
