100275
  -OEChem-07051212552D

 44 44  0     1  0  0  0  0  0999 V2000
    6.3301   -0.5950    0.0000 O   0  0  0  0  0  0  0  0  0  0  0  0
    4.5981   -2.5950    0.0000 O   0  0  0  0  0  0  0  0  0  0  0  0
    6.3301   -3.5950    0.0000 O   0  0  0  0  0  0  0  0  0  0  0  0
    8.0622   -0.5950    0.0000 O   0  0  0  0  0  0  0  0  0  0  0  0
    8.0622   -2.5950    0.0000 O   0  0  0  0  0  0  0  0  0  0  0  0
    4.5981    0.4050    0.0000 O   0  0  0  0  0  0  0  0  0  0  0  0
    7.1962    0.9050    0.0000 O   0  0  0  0  0  0  0  0  0  0  0  0
    2.8660    0.4050    0.0000 O   0  0  0  0  0  0  0  0  0  0  0  0
    9.7942    3.4050    0.0000 O   0  5  0  0  0  0  0  0  0  0  0  0
   10.6603    1.9050    0.0000 O   0  0  0  0  0  0  0  0  0  0  0  0
    2.0000    3.9050    0.0000 O   0  5  0  0  0  0  0  0  0  0  0  0
    3.7320    3.9050    0.0000 O   0  0  0  0  0  0  0  0  0  0  0  0
    9.7942    2.4050    0.0000 N   0  3  0  0  0  0  0  0  0  0  0  0
    2.8660    3.4050    0.0000 N   0  3  0  0  0  0  0  0  0  0  0  0
    5.4641   -2.0950    0.0000 C   0  0  1  0  0  0  0  0  0  0  0  0
    6.3301   -2.5950    0.0000 C   0  0  1  0  0  0  0  0  0  0  0  0
    5.4641   -1.0950    0.0000 C   0  0  1  0  0  0  0  0  0  0  0  0
    7.1962   -2.0950    0.0000 C   0  0  2  0  0  0  0  0  0  0  0  0
    7.1962   -1.0950    0.0000 C   0  0  1  0  0  0  0  0  0  0  0  0
    4.5981   -0.5950    0.0000 C   0  0  0  0  0  0  0  0  0  0  0  0
    8.0622    0.4050    0.0000 C   0  0  0  0  0  0  0  0  0  0  0  0
    8.9282    0.9050    0.0000 C   0  0  0  0  0  0  0  0  0  0  0  0
    3.7320    0.9050    0.0000 C   0  0  0  0  0  0  0  0  0  0  0  0
    3.7320    1.9050    0.0000 C   0  0  0  0  0  0  0  0  0  0  0  0
    8.9282    1.9050    0.0000 C   0  0  0  0  0  0  0  0  0  0  0  0
    2.8660    2.4050    0.0000 C   0  0  0  0  0  0  0  0  0  0  0  0
    5.4641   -2.7150    0.0000 H   0  0  0  0  0  0  0  0  0  0  0  0
    6.8671   -2.9050    0.0000 H   0  0  0  0  0  0  0  0  0  0  0  0
    5.4641   -0.4750    0.0000 H   0  0  0  0  0  0  0  0  0  0  0  0
    7.7331   -1.7850    0.0000 H   0  0  0  0  0  0  0  0  0  0  0  0
    7.7331   -1.4050    0.0000 H   0  0  0  0  0  0  0  0  0  0  0  0
    3.9875   -0.4873    0.0000 H   0  0  0  0  0  0  0  0  0  0  0  0
    4.3860   -1.1776    0.0000 H   0  0  0  0  0  0  0  0  0  0  0  0
    4.0611   -2.2850    0.0000 H   0  0  0  0  0  0  0  0  0  0  0  0
    5.7932   -3.9050    0.0000 H   0  0  0  0  0  0  0  0  0  0  0  0
    8.5991   -2.2850    0.0000 H   0  0  0  0  0  0  0  0  0  0  0  0
    9.1403    0.3224    0.0000 H   0  0  0  0  0  0  0  0  0  0  0  0
    9.5388    1.0127    0.0000 H   0  0  0  0  0  0  0  0  0  0  0  0
    4.3426    1.7973    0.0000 H   0  0  0  0  0  0  0  0  0  0  0  0
    3.9441    2.4876    0.0000 H   0  0  0  0  0  0  0  0  0  0  0  0
    8.7162    2.4876    0.0000 H   0  0  0  0  0  0  0  0  0  0  0  0
    8.3176    1.7973    0.0000 H   0  0  0  0  0  0  0  0  0  0  0  0
    2.2554    2.5127    0.0000 H   0  0  0  0  0  0  0  0  0  0  0  0
    2.6540    1.8224    0.0000 H   0  0  0  0  0  0  0  0  0  0  0  0
  1 17  1  0  0  0  0
  1 19  1  0  0  0  0
 15  2  1  6  0  0  0
  2 34  1  0  0  0  0
 16  3  1  1  0  0  0
  3 35  1  0  0  0  0
 19  4  1  1  0  0  0
  4 21  1  0  0  0  0
 18  5  1  6  0  0  0
  5 36  1  0  0  0  0
  6 20  1  0  0  0  0
  6 23  1  0  0  0  0
  7 21  2  0  0  0  0
  8 23  2  0  0  0  0
  9 13  1  0  0  0  0
 10 13  2  0  0  0  0
 11 14  1  0  0  0  0
 12 14  2  0  0  0  0
 13 25  1  0  0  0  0
 14 26  1  0  0  0  0
 15 16  1  0  0  0  0
 15 17  1  0  0  0  0
 15 27  1  0  0  0  0
 16 18  1  0  0  0  0
 16 28  1  0  0  0  0
 17 20  1  1  0  0  0
 17 29  1  0  0  0  0
 18 19  1  0  0  0  0
 18 30  1  0  0  0  0
 19 31  1  0  0  0  0
 20 32  1  0  0  0  0
 20 33  1  0  0  0  0
 21 22  1  0  0  0  0
 22 25  1  0  0  0  0
 22 37  1  0  0  0  0
 22 38  1  0  0  0  0
 23 24  1  0  0  0  0
 24 26  1  0  0  0  0
 24 39  1  0  0  0  0
 24 40  1  0  0  0  0
 25 41  1  0  0  0  0
 25 42  1  0  0  0  0
 26 43  1  0  0  0  0
 26 44  1  0  0  0  0
M  CHG  4   9  -1  11  -1  13   1  14   1
M  END
> <PUBCHEM_COMPOUND_CID>
100275

> <PUBCHEM_COMPOUND_CANONICALIZED>
1

> <PUBCHEM_CACTVS_COMPLEXITY>
529

> <PUBCHEM_CACTVS_HBOND_ACCEPTOR>
12

> <PUBCHEM_CACTVS_HBOND_DONOR>
3

> <PUBCHEM_CACTVS_ROTATABLE_BOND>
9

> <PUBCHEM_CACTVS_SUBSKEYS>
AAADceBzPAAAAAAAAAAAAAAAAAAAAAAAAAAkAAAAAAAAAAAAAAAAHgAECAAACBTxgAcACAAQRgAJAACQCwAAAAAAAAAgAAEAAAAREAoAAAAiQAAHAAAHAAHAYAwAAAAAAAAAAAAAAAAAAAAAAAAAAAAAAA==

> <PUBCHEM_IUPAC_OPENEYE_NAME>
[(2R,3S,4S,5R,6S)-3,4,5-trihydroxy-6-(3-nitropropanoyloxy)tetrahydropyran-2-yl]methyl 3-nitropropanoate

> <PUBCHEM_IUPAC_CAS_NAME>
3-nitropropanoic acid [(2R,3S,4S,5R,6S)-3,4,5-trihydroxy-6-(3-nitro-1-oxopropoxy)-2-oxanyl]methyl ester

> <PUBCHEM_IUPAC_NAME>
[(2R,3S,4S,5R,6S)-3,4,5-trihydroxy-6-(3-nitropropanoyloxy)oxan-2-yl]methyl 3-nitropropanoate

> <PUBCHEM_IUPAC_SYSTEMATIC_NAME>
[(2R,3S,4S,5R,6S)-6-(3-nitropropanoyloxy)-3,4,5-tris(oxidanyl)oxan-2-yl]methyl 3-nitropropanoate

> <PUBCHEM_IUPAC_TRADITIONAL_NAME>
3-nitropropionic acid [(2R,3S,4S,5R,6S)-3,4,5-trihydroxy-6-(3-nitropropanoyloxy)tetrahydropyran-2-yl]methyl ester

> <PUBCHEM_IUPAC_INCHI>
InChI=1S/C12H18N2O12/c15-7(1-3-13(20)21)24-5-6-9(17)10(18)11(19)12(25-6)26-8(16)2-4-14(22)23/h6,9-12,17-19H,1-5H2/t6-,9-,10+,11-,12+/m1/s1

> <PUBCHEM_IUPAC_INCHIKEY>
PUSAAHYGRLPDMQ-JPXBYFMYSA-N

> <PUBCHEM_XLOGP3_AA>
-2.5

> <PUBCHEM_EXACT_MASS>
382.085974

> <PUBCHEM_MOLECULAR_FORMULA>
C12H18N2O12

> <PUBCHEM_MOLECULAR_WEIGHT>
382.27752

> <PUBCHEM_OPENEYE_CAN_SMILES>
C(C[N+](=O)[O-])C(=O)OCC1C(C(C(C(O1)OC(=O)CC[N+](=O)[O-])O)O)O

> <PUBCHEM_OPENEYE_ISO_SMILES>
C(C[N+](=O)[O-])C(=O)OC[C@@H]1[C@H]([C@@H]([C@H]([C@@H](O1)OC(=O)CC[N+](=O)[O-])O)O)O

> <PUBCHEM_CACTVS_TPSA>
214

> <PUBCHEM_MONOISOTOPIC_WEIGHT>
382.085974

> <PUBCHEM_TOTAL_CHARGE>
0

> <PUBCHEM_HEAVY_ATOM_COUNT>
26

> <PUBCHEM_ATOM_DEF_STEREO_COUNT>
5

> <PUBCHEM_ATOM_UDEF_STEREO_COUNT>
0

> <PUBCHEM_BOND_DEF_STEREO_COUNT>
0

> <PUBCHEM_BOND_UDEF_STEREO_COUNT>
0

> <PUBCHEM_ISOTOPIC_ATOM_COUNT>
0

> <PUBCHEM_COMPONENT_COUNT>
1

> <PUBCHEM_CACTVS_TAUTO_COUNT>
4

> <PUBCHEM_COORDINATE_TYPE>
1
5
255

> <PUBCHEM_BONDANNOTATIONS>
17  20  5
15  2  6
16  3  5
19  4  5
18  5  6

$$$$

