1548885
  -OEChem-07051212462D

 42 44  0     1  0  0  0  0  0999 V2000
    9.7690    2.7706    0.0000 S   0  0  3  0  0  0  0  0  0  0  0  0
    2.0000   -0.8096    0.0000 F   0  0  0  0  0  0  0  0  0  0  0  0
    5.4978   -3.2596    0.0000 O   0  0  0  0  0  0  0  0  0  0  0  0
    4.2086   -2.1029    0.0000 O   0  0  0  0  0  0  0  0  0  0  0  0
   10.4368    2.0263    0.0000 O   0  0  0  0  0  0  0  0  0  0  0  0
    5.5443   -0.6143    0.0000 C   0  0  0  0  0  0  0  0  0  0  0  0
    4.5981   -0.3096    0.0000 C   0  0  0  0  0  0  0  0  0  0  0  0
    6.1279    0.1904    0.0000 C   0  0  0  0  0  0  0  0  0  0  0  0
    5.5443    0.9952    0.0000 C   0  0  0  0  0  0  0  0  0  0  0  0
    4.5981    0.6904    0.0000 C   0  0  0  0  0  0  0  0  0  0  0  0
    5.8550   -1.5648    0.0000 C   0  0  0  0  0  0  0  0  0  0  0  0
    5.8550    1.9457    0.0000 C   0  0  0  0  0  0  0  0  0  0  0  0
    3.7320   -0.8096    0.0000 C   0  0  0  0  0  0  0  0  0  0  0  0
    3.7320    1.1904    0.0000 C   0  0  0  0  0  0  0  0  0  0  0  0
    7.1279    0.1904    0.0000 C   0  0  0  0  0  0  0  0  0  0  0  0
    6.8335    2.1519    0.0000 C   0  0  0  0  0  0  0  0  0  0  0  0
    2.8660   -0.3096    0.0000 C   0  0  0  0  0  0  0  0  0  0  0  0
    2.8660    0.6904    0.0000 C   0  0  0  0  0  0  0  0  0  0  0  0
    5.1871   -2.3091    0.0000 C   0  0  0  0  0  0  0  0  0  0  0  0
    7.5013    1.4076    0.0000 C   0  0  0  0  0  0  0  0  0  0  0  0
    7.1441    3.1024    0.0000 C   0  0  0  0  0  0  0  0  0  0  0  0
    8.7905    2.5644    0.0000 C   0  0  0  0  0  0  0  0  0  0  0  0
    8.4798    1.6138    0.0000 C   0  0  0  0  0  0  0  0  0  0  0  0
    8.1226    3.3087    0.0000 C   0  0  0  0  0  0  0  0  0  0  0  0
   10.0796    3.7211    0.0000 C   0  0  0  0  0  0  0  0  0  0  0  0
    6.2375   -2.0527    0.0000 H   0  0  0  0  0  0  0  0  0  0  0  0
    6.4019   -1.2728    0.0000 H   0  0  0  0  0  0  0  0  0  0  0  0
    5.4409    2.4072    0.0000 H   0  0  0  0  0  0  0  0  0  0  0  0
    3.7320   -1.4296    0.0000 H   0  0  0  0  0  0  0  0  0  0  0  0
    3.7320    1.8104    0.0000 H   0  0  0  0  0  0  0  0  0  0  0  0
    7.1279   -0.4296    0.0000 H   0  0  0  0  0  0  0  0  0  0  0  0
    7.7479    0.1904    0.0000 H   0  0  0  0  0  0  0  0  0  0  0  0
    7.1279    0.8104    0.0000 H   0  0  0  0  0  0  0  0  0  0  0  0
    2.3291    1.0004    0.0000 H   0  0  0  0  0  0  0  0  0  0  0  0
    7.3087    0.8183    0.0000 H   0  0  0  0  0  0  0  0  0  0  0  0
    6.7301    3.5639    0.0000 H   0  0  0  0  0  0  0  0  0  0  0  0
    8.8939    1.1524    0.0000 H   0  0  0  0  0  0  0  0  0  0  0  0
    8.3152    3.8980    0.0000 H   0  0  0  0  0  0  0  0  0  0  0  0
    5.0837   -3.7211    0.0000 H   0  0  0  0  0  0  0  0  0  0  0  0
   10.6690    3.5285    0.0000 H   0  0  0  0  0  0  0  0  0  0  0  0
   10.2723    4.3104    0.0000 H   0  0  0  0  0  0  0  0  0  0  0  0
    9.4903    3.9137    0.0000 H   0  0  0  0  0  0  0  0  0  0  0  0
  1  5  2  0  0  0  0
  1 22  1  0  0  0  0
  1 25  1  0  0  0  0
  2 17  1  0  0  0  0
  3 19  1  0  0  0  0
  3 39  1  0  0  0  0
  4 19  2  0  0  0  0
  6  7  1  0  0  0  0
  6  8  2  0  0  0  0
  6 11  1  0  0  0  0
  7 10  2  0  0  0  0
  7 13  1  0  0  0  0
  8  9  1  0  0  0  0
  8 15  1  0  0  0  0
  9 10  1  0  0  0  0
  9 12  2  0  0  0  0
 10 14  1  0  0  0  0
 11 19  1  0  0  0  0
 11 26  1  0  0  0  0
 11 27  1  0  0  0  0
 12 16  1  0  0  0  0
 12 28  1  0  0  0  0
 13 17  2  0  0  0  0
 13 29  1  0  0  0  0
 14 18  2  0  0  0  0
 14 30  1  0  0  0  0
 15 31  1  0  0  0  0
 15 32  1  0  0  0  0
 15 33  1  0  0  0  0
 16 20  2  0  0  0  0
 16 21  1  0  0  0  0
 17 18  1  0  0  0  0
 18 34  1  0  0  0  0
 20 23  1  0  0  0  0
 20 35  1  0  0  0  0
 21 24  2  0  0  0  0
 21 36  1  0  0  0  0
 22 23  2  0  0  0  0
 22 24  1  0  0  0  0
 23 37  1  0  0  0  0
 24 38  1  0  0  0  0
 25 40  1  0  0  0  0
 25 41  1  0  0  0  0
 25 42  1  0  0  0  0
M  END
> <PUBCHEM_COMPOUND_CID>
1548885

> <PUBCHEM_COMPOUND_CANONICALIZED>
1

> <PUBCHEM_CACTVS_COMPLEXITY>
616

> <PUBCHEM_CACTVS_HBOND_ACCEPTOR>
5

> <PUBCHEM_CACTVS_HBOND_DONOR>
1

> <PUBCHEM_CACTVS_ROTATABLE_BOND>
4

> <PUBCHEM_CACTVS_SUBSKEYS>
AAADceB4MQBAAAAAAAAAAAAAAAAAAQAAAAAwYAAAAAAAAEABQAAAGwQACAAADACA2AiyCYAAAgqIAiDSCEBCAAAgCBAIiBkAAIgIIDKgERCAYAAkwAAIiAeIyLCOkAAAAAAQAAAgAAAAACAAAAAAAAAAAA==

> <PUBCHEM_IUPAC_OPENEYE_NAME>
2-[(3E)-6-fluoro-2-methyl-3-[(4-methylsulfinylphenyl)methylene]inden-1-yl]acetic acid

> <PUBCHEM_IUPAC_CAS_NAME>
2-[(3E)-6-fluoro-2-methyl-3-[(4-methylsulfinylphenyl)methylidene]-1-indenyl]acetic acid

> <PUBCHEM_IUPAC_NAME>
2-[(3E)-6-fluoro-2-methyl-3-[(4-methylsulfinylphenyl)methylidene]inden-1-yl]acetic acid

> <PUBCHEM_IUPAC_SYSTEMATIC_NAME>
2-[(3E)-6-fluoranyl-2-methyl-3-[(4-methylsulfinylphenyl)methylidene]inden-1-yl]ethanoic acid

> <PUBCHEM_IUPAC_TRADITIONAL_NAME>
2-[(3E)-6-fluoro-2-methyl-3-(4-methylsulfinylbenzylidene)inden-1-yl]acetic acid

> <PUBCHEM_IUPAC_INCHI>
InChI=1S/C20H17FO3S/c1-12-17(9-13-3-6-15(7-4-13)25(2)24)16-8-5-14(21)10-19(16)18(12)11-20(22)23/h3-10H,11H2,1-2H3,(H,22,23)/b17-9+

> <PUBCHEM_IUPAC_INCHIKEY>
MLKXDPUZXIRXEP-RQZCQDPDSA-N

> <PUBCHEM_XLOGP3>
3.4

> <PUBCHEM_EXACT_MASS>
356.088244

> <PUBCHEM_MOLECULAR_FORMULA>
C20H17FO3S

> <PUBCHEM_MOLECULAR_WEIGHT>
356.410583

> <PUBCHEM_OPENEYE_CAN_SMILES>
CC1=C(C2=C(C1=CC3=CC=C(C=C3)S(=O)C)C=CC(=C2)F)CC(=O)O

> <PUBCHEM_OPENEYE_ISO_SMILES>
CC\1=C(C2=C(/C1=C/C3=CC=C(C=C3)S(=O)C)C=CC(=C2)F)CC(=O)O

> <PUBCHEM_CACTVS_TPSA>
73.6

> <PUBCHEM_MONOISOTOPIC_WEIGHT>
356.088244

> <PUBCHEM_TOTAL_CHARGE>
0

> <PUBCHEM_HEAVY_ATOM_COUNT>
25

> <PUBCHEM_ATOM_DEF_STEREO_COUNT>
0

> <PUBCHEM_ATOM_UDEF_STEREO_COUNT>
1

> <PUBCHEM_BOND_DEF_STEREO_COUNT>
1

> <PUBCHEM_BOND_UDEF_STEREO_COUNT>
0

> <PUBCHEM_ISOTOPIC_ATOM_COUNT>
0

> <PUBCHEM_COMPONENT_COUNT>
1

> <PUBCHEM_CACTVS_TAUTO_COUNT>
1

> <PUBCHEM_COORDINATE_TYPE>
1
5
255

> <PUBCHEM_BONDANNOTATIONS>
1  25  3
10  14  8
13  17  8
14  18  8
16  20  8
16  21  8
17  18  8
20  23  8
21  24  8
22  23  8
22  24  8
7  10  8
7  13  8

$$$$

