9543301
  -OEChem-07051213112D

 19 19  0     1  0  0  0  0  0999 V2000
    2.5447   -0.5814    0.0000 Cl  0  0  0  0  0  0  0  0  0  0  0  0
    3.9602   -1.9814    0.0000 Cl  0  0  0  0  0  0  0  0  0  0  0  0
    5.0480    0.3665    0.0000 O   0  0  0  0  0  0  0  0  0  0  0  0
    6.8080    0.0877    0.0000 O   0  0  0  0  0  0  0  0  0  0  0  0
    2.1289    1.3749    0.0000 O   0  0  0  0  0  0  0  0  0  0  0  0
    3.8231    1.7350    0.0000 O   0  0  0  0  0  0  0  0  0  0  0  0
    4.2389   -0.2213    0.0000 C   0  0  3  0  0  0  0  0  0  0  0  0
    3.2879    0.0877    0.0000 C   0  0  3  0  0  0  0  0  0  0  0  0
    4.5480   -1.1723    0.0000 C   0  0  0  0  0  0  0  0  0  0  0  0
    5.5480   -1.1723    0.0000 C   0  0  0  0  0  0  0  0  0  0  0  0
    5.8570   -0.2213    0.0000 C   0  0  0  0  0  0  0  0  0  0  0  0
    6.1357   -1.9814    0.0000 C   0  0  0  0  0  0  0  0  0  0  0  0
    3.0800    1.0659    0.0000 C   0  0  0  0  0  0  0  0  0  0  0  0
    4.1419    0.3911    0.0000 H   0  0  0  0  0  0  0  0  0  0  0  0
    3.4168   -0.5187    0.0000 H   0  0  0  0  0  0  0  0  0  0  0  0
    5.6341   -2.3458    0.0000 H   0  0  0  0  0  0  0  0  0  0  0  0
    6.5002   -2.4829    0.0000 H   0  0  0  0  0  0  0  0  0  0  0  0
    6.6373   -1.6169    0.0000 H   0  0  0  0  0  0  0  0  0  0  0  0
    2.0000    1.9814    0.0000 H   0  0  0  0  0  0  0  0  0  0  0  0
  1  8  1  0  0  0  0
  2  9  1  0  0  0  0
  3  7  1  0  0  0  0
  3 11  1  0  0  0  0
  4 11  2  0  0  0  0
  5 13  1  0  0  0  0
  5 19  1  0  0  0  0
  6 13  2  0  0  0  0
  7  8  1  0  0  0  0
  7  9  1  0  0  0  0
  7 14  1  0  0  0  0
  8 13  1  0  0  0  0
  8 15  1  0  0  0  0
  9 10  2  0  0  0  0
 10 11  1  0  0  0  0
 10 12  1  0  0  0  0
 12 16  1  0  0  0  0
 12 17  1  0  0  0  0
 12 18  1  0  0  0  0
M  END
> <PUBCHEM_COMPOUND_CID>
9543301

> <PUBCHEM_COMPOUND_CANONICALIZED>
1

> <PUBCHEM_CACTVS_COMPLEXITY>
297

> <PUBCHEM_CACTVS_HBOND_ACCEPTOR>
4

> <PUBCHEM_CACTVS_HBOND_DONOR>
1

> <PUBCHEM_CACTVS_ROTATABLE_BOND>
2

> <PUBCHEM_CACTVS_SUBSKEYS>
AAADcYBgOAAGAAAAAAAAAAAAAAAAAQAAAAAAAAAAAAAAAAAAAAAAGgIACAAADBeggEICCAAABgCIAgDQCAAAAAAgAAAACAEAA0hABBQBIAACUAAFoAAIIQIAAAAAAAAAAAAAAAAAAAAAAAAAAAAAAAAAAA==

> <PUBCHEM_IUPAC_OPENEYE_NAME>
2-chloro-2-(3-chloro-4-methyl-5-oxo-2H-furan-2-yl)acetic acid

> <PUBCHEM_IUPAC_CAS_NAME>
2-chloro-2-(3-chloro-4-methyl-5-oxo-2H-furan-2-yl)acetic acid

> <PUBCHEM_IUPAC_NAME>
2-chloro-2-(3-chloro-4-methyl-5-oxo-2H-furan-2-yl)acetic acid

> <PUBCHEM_IUPAC_SYSTEMATIC_NAME>
2-chloranyl-2-(3-chloranyl-4-methyl-5-oxidanylidene-2H-furan-2-yl)ethanoic acid

> <PUBCHEM_IUPAC_TRADITIONAL_NAME>
2-chloro-2-(3-chloro-5-keto-4-methyl-2H-furan-2-yl)acetic acid

> <PUBCHEM_IUPAC_INCHI>
InChI=1S/C7H6Cl2O4/c1-2-3(8)5(13-7(2)12)4(9)6(10)11/h4-5H,1H3,(H,10,11)

> <PUBCHEM_IUPAC_INCHIKEY>
LQQCBKRSWIGKFK-UHFFFAOYSA-N

> <PUBCHEM_XLOGP3_AA>
1.2

> <PUBCHEM_EXACT_MASS>
223.964314

> <PUBCHEM_MOLECULAR_FORMULA>
C7H6Cl2O4

> <PUBCHEM_MOLECULAR_WEIGHT>
225.02614

> <PUBCHEM_OPENEYE_CAN_SMILES>
CC1=C(C(OC1=O)C(C(=O)O)Cl)Cl

> <PUBCHEM_OPENEYE_ISO_SMILES>
CC1=C(C(OC1=O)C(C(=O)O)Cl)Cl

> <PUBCHEM_CACTVS_TPSA>
63.6

> <PUBCHEM_MONOISOTOPIC_WEIGHT>
223.964314

> <PUBCHEM_TOTAL_CHARGE>
0

> <PUBCHEM_HEAVY_ATOM_COUNT>
13

> <PUBCHEM_ATOM_DEF_STEREO_COUNT>
0

> <PUBCHEM_ATOM_UDEF_STEREO_COUNT>
2

> <PUBCHEM_BOND_DEF_STEREO_COUNT>
0

> <PUBCHEM_BOND_UDEF_STEREO_COUNT>
0

> <PUBCHEM_ISOTOPIC_ATOM_COUNT>
0

> <PUBCHEM_COMPONENT_COUNT>
1

> <PUBCHEM_CACTVS_TAUTO_COUNT>
1

> <PUBCHEM_COORDINATE_TYPE>
1
5
255

> <PUBCHEM_BONDANNOTATIONS>
8  1  3
7  9  3

$$$$

