8286
  -OEChem-07051213122D

 55 54  0     0  0  0  0  0  0999 V2000
    3.5219    3.0000    0.0000 Cl  0  0  0  0  0  0  0  0  0  0  0  0
    5.2540    0.0000    0.0000 Cl  0  0  0  0  0  0  0  0  0  0  0  0
    0.0000    3.8100    0.0000 Cl  0  5  0  0  0  0  0  0  0  0  0  0
    6.1200    4.5000    0.0000 P   0  3  0  0  0  0  0  0  0  0  0  0
    6.9860    5.0000    0.0000 C   0  0  0  0  0  0  0  0  0  0  0  0
    5.6200    5.3660    0.0000 C   0  0  0  0  0  0  0  0  0  0  0  0
    6.6200    3.6340    0.0000 C   0  0  0  0  0  0  0  0  0  0  0  0
    5.2540    4.0000    0.0000 C   0  0  0  0  0  0  0  0  0  0  0  0
    6.9860    6.0000    0.0000 C   0  0  0  0  0  0  0  0  0  0  0  0
    4.6200    5.3660    0.0000 C   0  0  0  0  0  0  0  0  0  0  0  0
    7.6200    3.6340    0.0000 C   0  0  0  0  0  0  0  0  0  0  0  0
    5.2540    3.0000    0.0000 C   0  0  0  0  0  0  0  0  0  0  0  0
    7.8520    6.5000    0.0000 C   0  0  0  0  0  0  0  0  0  0  0  0
    4.1200    6.2320    0.0000 C   0  0  0  0  0  0  0  0  0  0  0  0
    8.1200    2.7680    0.0000 C   0  0  0  0  0  0  0  0  0  0  0  0
    4.3880    2.5000    0.0000 C   0  0  0  0  0  0  0  0  0  0  0  0
    6.1200    2.5000    0.0000 C   0  0  0  0  0  0  0  0  0  0  0  0
    7.8520    7.5000    0.0000 C   0  0  0  0  0  0  0  0  0  0  0  0
    3.1200    6.2320    0.0000 C   0  0  0  0  0  0  0  0  0  0  0  0
    9.1200    2.7680    0.0000 C   0  0  0  0  0  0  0  0  0  0  0  0
    4.3880    1.5000    0.0000 C   0  0  0  0  0  0  0  0  0  0  0  0
    6.1200    1.5000    0.0000 C   0  0  0  0  0  0  0  0  0  0  0  0
    5.2540    1.0000    0.0000 C   0  0  0  0  0  0  0  0  0  0  0  0
    7.1981    4.4174    0.0000 H   0  0  0  0  0  0  0  0  0  0  0  0
    7.5966    5.1077    0.0000 H   0  0  0  0  0  0  0  0  0  0  0  0
    6.2026    5.5781    0.0000 H   0  0  0  0  0  0  0  0  0  0  0  0
    5.5123    5.9766    0.0000 H   0  0  0  0  0  0  0  0  0  0  0  0
    6.0374    3.4219    0.0000 H   0  0  0  0  0  0  0  0  0  0  0  0
    6.7277    3.0234    0.0000 H   0  0  0  0  0  0  0  0  0  0  0  0
    5.0419    4.5826    0.0000 H   0  0  0  0  0  0  0  0  0  0  0  0
    4.6434    3.8923    0.0000 H   0  0  0  0  0  0  0  0  0  0  0  0
    6.7740    6.5826    0.0000 H   0  0  0  0  0  0  0  0  0  0  0  0
    6.3754    5.8923    0.0000 H   0  0  0  0  0  0  0  0  0  0  0  0
    4.0374    5.1540    0.0000 H   0  0  0  0  0  0  0  0  0  0  0  0
    4.7277    4.7554    0.0000 H   0  0  0  0  0  0  0  0  0  0  0  0
    8.2026    3.8460    0.0000 H   0  0  0  0  0  0  0  0  0  0  0  0
    7.5123    4.2446    0.0000 H   0  0  0  0  0  0  0  0  0  0  0  0
    8.0641    5.9174    0.0000 H   0  0  0  0  0  0  0  0  0  0  0  0
    8.4626    6.6077    0.0000 H   0  0  0  0  0  0  0  0  0  0  0  0
    4.7026    6.4441    0.0000 H   0  0  0  0  0  0  0  0  0  0  0  0
    4.0123    6.8426    0.0000 H   0  0  0  0  0  0  0  0  0  0  0  0
    7.5374    2.5559    0.0000 H   0  0  0  0  0  0  0  0  0  0  0  0
    8.2277    2.1574    0.0000 H   0  0  0  0  0  0  0  0  0  0  0  0
    6.6569    2.8100    0.0000 H   0  0  0  0  0  0  0  0  0  0  0  0
    8.4720    7.5000    0.0000 H   0  0  0  0  0  0  0  0  0  0  0  0
    7.8520    8.1200    0.0000 H   0  0  0  0  0  0  0  0  0  0  0  0
    7.2320    7.5000    0.0000 H   0  0  0  0  0  0  0  0  0  0  0  0
    3.1200    6.8520    0.0000 H   0  0  0  0  0  0  0  0  0  0  0  0
    2.5000    6.2320    0.0000 H   0  0  0  0  0  0  0  0  0  0  0  0
    3.1200    5.6120    0.0000 H   0  0  0  0  0  0  0  0  0  0  0  0
    9.1200    2.1479    0.0000 H   0  0  0  0  0  0  0  0  0  0  0  0
    9.7400    2.7680    0.0000 H   0  0  0  0  0  0  0  0  0  0  0  0
    9.1200    3.3880    0.0000 H   0  0  0  0  0  0  0  0  0  0  0  0
    3.8510    1.1900    0.0000 H   0  0  0  0  0  0  0  0  0  0  0  0
    6.6569    1.1900    0.0000 H   0  0  0  0  0  0  0  0  0  0  0  0
  1 16  1  0  0  0  0
  2 23  1  0  0  0  0
  4  5  1  0  0  0  0
  4  6  1  0  0  0  0
  4  7  1  0  0  0  0
  4  8  1  0  0  0  0
  5  9  1  0  0  0  0
  5 24  1  0  0  0  0
  5 25  1  0  0  0  0
  6 10  1  0  0  0  0
  6 26  1  0  0  0  0
  6 27  1  0  0  0  0
  7 11  1  0  0  0  0
  7 28  1  0  0  0  0
  7 29  1  0  0  0  0
  8 12  1  0  0  0  0
  8 30  1  0  0  0  0
  8 31  1  0  0  0  0
  9 13  1  0  0  0  0
  9 32  1  0  0  0  0
  9 33  1  0  0  0  0
 10 14  1  0  0  0  0
 10 34  1  0  0  0  0
 10 35  1  0  0  0  0
 11 15  1  0  0  0  0
 11 36  1  0  0  0  0
 11 37  1  0  0  0  0
 12 16  2  0  0  0  0
 12 17  1  0  0  0  0
 13 18  1  0  0  0  0
 13 38  1  0  0  0  0
 13 39  1  0  0  0  0
 14 19  1  0  0  0  0
 14 40  1  0  0  0  0
 14 41  1  0  0  0  0
 15 20  1  0  0  0  0
 15 42  1  0  0  0  0
 15 43  1  0  0  0  0
 16 21  1  0  0  0  0
 17 22  2  0  0  0  0
 17 44  1  0  0  0  0
 18 45  1  0  0  0  0
 18 46  1  0  0  0  0
 18 47  1  0  0  0  0
 19 48  1  0  0  0  0
 19 49  1  0  0  0  0
 19 50  1  0  0  0  0
 20 51  1  0  0  0  0
 20 52  1  0  0  0  0
 20 53  1  0  0  0  0
 21 23  2  0  0  0  0
 21 54  1  0  0  0  0
 22 23  1  0  0  0  0
 22 55  1  0  0  0  0
M  CHG  2   3  -1   4   1
M  END
> <PUBCHEM_COMPOUND_CID>
8286

> <PUBCHEM_COMPOUND_CANONICALIZED>
1

> <PUBCHEM_CACTVS_COMPLEXITY>
261

> <PUBCHEM_CACTVS_HBOND_ACCEPTOR>
1

> <PUBCHEM_CACTVS_HBOND_DONOR>
0

> <PUBCHEM_CACTVS_ROTATABLE_BOND>
11

> <PUBCHEM_CACTVS_SUBSKEYS>
AAADcfB4AAIGAAAAAAAAAAAAAAAAAAAAAAAwAAAAAAAAAAABAAAAGAoAAAAADAKIGCAyAIAAACCAAiBCAAACAAAgBQAIiAAAAogIICKBExCAIAAggAAIiAcAgAAOBAAAAACBAAAIAAAAAQIAAAAAAAAAAA==

> <PUBCHEM_IUPAC_OPENEYE_NAME>
tributyl-[(2,4-dichlorophenyl)methyl]phosphonium chloride

> <PUBCHEM_IUPAC_CAS_NAME>
tributyl-[(2,4-dichlorophenyl)methyl]phosphonium chloride

> <PUBCHEM_IUPAC_NAME>
tributyl-[(2,4-dichlorophenyl)methyl]phosphanium chloride

> <PUBCHEM_IUPAC_SYSTEMATIC_NAME>
tributyl-[(2,4-dichlorophenyl)methyl]phosphanium chloride

> <PUBCHEM_IUPAC_TRADITIONAL_NAME>
tributyl-(2,4-dichlorobenzyl)phosphonium chloride

> <PUBCHEM_IUPAC_INCHI>
InChI=1S/C19H32Cl2P.ClH/c1-4-7-12-22(13-8-5-2,14-9-6-3)16-17-10-11-18(20)15-19(17)21;/h10-11,15H,4-9,12-14,16H2,1-3H3;1H/q+1;/p-1

> <PUBCHEM_IUPAC_INCHIKEY>
IVHVNMLJNASKHW-UHFFFAOYSA-M

> <PUBCHEM_EXACT_MASS>
396.130721

> <PUBCHEM_MOLECULAR_FORMULA>
C19H32Cl3P

> <PUBCHEM_MOLECULAR_WEIGHT>
397.790142

> <PUBCHEM_OPENEYE_CAN_SMILES>
CCCC[P+](CCCC)(CCCC)CC1=C(C=C(C=C1)Cl)Cl.[Cl-]

> <PUBCHEM_OPENEYE_ISO_SMILES>
CCCC[P+](CCCC)(CCCC)CC1=C(C=C(C=C1)Cl)Cl.[Cl-]

> <PUBCHEM_CACTVS_TPSA>
0

> <PUBCHEM_MONOISOTOPIC_WEIGHT>
396.130721

> <PUBCHEM_TOTAL_CHARGE>
0

> <PUBCHEM_HEAVY_ATOM_COUNT>
23

> <PUBCHEM_ATOM_DEF_STEREO_COUNT>
0

> <PUBCHEM_ATOM_UDEF_STEREO_COUNT>
0

> <PUBCHEM_BOND_DEF_STEREO_COUNT>
0

> <PUBCHEM_BOND_UDEF_STEREO_COUNT>
0

> <PUBCHEM_ISOTOPIC_ATOM_COUNT>
0

> <PUBCHEM_COMPONENT_COUNT>
2

> <PUBCHEM_CACTVS_TAUTO_COUNT>
1

> <PUBCHEM_COORDINATE_TYPE>
1
5
255

> <PUBCHEM_BONDANNOTATIONS>
12  16  8
12  17  8
16  21  8
17  22  8
21  23  8
22  23  8

$$$$

