441679
  -OEChem-07051212552D

 80 84  0     1  0  0  0  0  0999 V2000
    6.5251    1.1511    0.0000 C   0  0  2  0  0  0  0  0  0  0  0  0
    6.5251    0.1511    0.0000 C   0  0  1  0  0  0  0  0  0  0  0  0
    7.4191    1.6858    0.0000 C   0  0  1  0  0  0  0  0  0  0  0  0
    8.3252    1.1719    0.0000 C   0  0  1  0  0  0  0  0  0  0  0  0
    5.6591   -0.3489    0.0000 C   0  0  2  0  0  0  0  0  0  0  0  0
    7.4191   -0.3835    0.0000 C   0  0  0  0  0  0  0  0  0  0  0  0
    9.0875    1.8727    0.0000 C   0  0  2  0  0  0  0  0  0  0  0  0
    8.3252    0.1303    0.0000 C   0  0  0  0  0  0  0  0  0  0  0  0
    7.6292    2.6997    0.0000 C   0  0  0  0  0  0  0  0  0  0  0  0
    5.6591    1.6511    0.0000 C   0  0  0  0  0  0  0  0  0  0  0  0
    4.7931    0.1511    0.0000 C   0  0  0  0  0  0  0  0  0  0  0  0
    3.8831   -0.3557    0.0000 C   0  0  2  0  0  0  0  0  0  0  0  0
    8.6582    2.8150    0.0000 C   0  0  0  0  0  0  0  0  0  0  0  0
    3.8751   -1.3973    0.0000 C   0  0  1  0  0  0  0  0  0  0  0  0
    5.6752   -1.3904    0.0000 C   0  0  0  0  0  0  0  0  0  0  0  0
    6.5251    2.1511    0.0000 C   0  0  0  0  0  0  0  0  0  0  0  0
    6.5251   -0.8489    0.0000 C   0  0  0  0  0  0  0  0  0  0  0  0
    4.7931    1.1511    0.0000 C   0  0  0  0  0  0  0  0  0  0  0  0
    9.1950    0.6786    0.0000 C   0  0  0  0  0  0  0  0  0  0  0  0
    4.7771   -1.9181    0.0000 C   0  0  0  0  0  0  0  0  0  0  0  0
    2.9396   -1.9470    0.0000 C   0  0  0  0  0  0  0  0  0  0  0  0
   10.0675    1.6740    0.0000 C   0  0  0  0  0  0  0  0  0  0  0  0
    2.9562    0.2084    0.0000 C   0  0  0  0  0  0  0  0  0  0  0  0
    3.8908    0.6442    0.0000 C   0  0  0  0  0  0  0  0  0  0  0  0
    2.0000   -1.4046    0.0000 C   0  0  0  0  0  0  0  0  0  0  0  0
    2.0084   -0.3196    0.0000 C   0  0  0  0  0  0  0  0  0  0  0  0
    2.4430   -2.8150    0.0000 C   0  0  0  0  0  0  0  0  0  0  0  0
    3.4430   -2.8111    0.0000 C   0  0  0  0  0  0  0  0  0  0  0  0
   10.7296    2.4234    0.0000 C   0  0  0  0  0  0  0  0  0  0  0  0
   10.3855    0.7259    0.0000 C   0  0  0  0  0  0  0  0  0  0  0  0
    6.7263    2.1783    0.0000 H   0  0  0  0  0  0  0  0  0  0  0  0
    6.3985   -0.7682    0.0000 H   0  0  0  0  0  0  0  0  0  0  0  0
    7.0145   -0.8533    0.0000 H   0  0  0  0  0  0  0  0  0  0  0  0
    7.8127   -0.8626    0.0000 H   0  0  0  0  0  0  0  0  0  0  0  0
    9.4733    2.3580    0.0000 H   0  0  0  0  0  0  0  0  0  0  0  0
    8.5342   -0.4534    0.0000 H   0  0  0  0  0  0  0  0  0  0  0  0
    8.9360    0.2364    0.0000 H   0  0  0  0  0  0  0  0  0  0  0  0
    7.6253    3.3197    0.0000 H   0  0  0  0  0  0  0  0  0  0  0  0
    7.0122    2.7610    0.0000 H   0  0  0  0  0  0  0  0  0  0  0  0
    6.0576    2.1261    0.0000 H   0  0  0  0  0  0  0  0  0  0  0  0
    5.2606    2.1261    0.0000 H   0  0  0  0  0  0  0  0  0  0  0  0
    9.2463    3.0113    0.0000 H   0  0  0  0  0  0  0  0  0  0  0  0
    8.5248    3.4205    0.0000 H   0  0  0  0  0  0  0  0  0  0  0  0
    3.8783   -2.2473    0.0000 H   0  0  0  0  0  0  0  0  0  0  0  0
    5.8932   -1.9708    0.0000 H   0  0  0  0  0  0  0  0  0  0  0  0
    6.2843   -1.2749    0.0000 H   0  0  0  0  0  0  0  0  0  0  0  0
    7.1451    2.1511    0.0000 H   0  0  0  0  0  0  0  0  0  0  0  0
    6.5251    2.7711    0.0000 H   0  0  0  0  0  0  0  0  0  0  0  0
    5.9051    2.1511    0.0000 H   0  0  0  0  0  0  0  0  0  0  0  0
    5.9051   -0.8489    0.0000 H   0  0  0  0  0  0  0  0  0  0  0  0
    6.5251   -1.4689    0.0000 H   0  0  0  0  0  0  0  0  0  0  0  0
    7.1451   -0.8489    0.0000 H   0  0  0  0  0  0  0  0  0  0  0  0
    4.2562    1.4611    0.0000 H   0  0  0  0  0  0  0  0  0  0  0  0
    8.8892    0.1393    0.0000 H   0  0  0  0  0  0  0  0  0  0  0  0
    9.7343    0.3728    0.0000 H   0  0  0  0  0  0  0  0  0  0  0  0
    9.5008    1.2179    0.0000 H   0  0  0  0  0  0  0  0  0  0  0  0
    4.3798   -2.3941    0.0000 H   0  0  0  0  0  0  0  0  0  0  0  0
    5.1781   -2.3910    0.0000 H   0  0  0  0  0  0  0  0  0  0  0  0
    9.6570    1.2094    0.0000 H   0  0  0  0  0  0  0  0  0  0  0  0
    3.3645    0.6750    0.0000 H   0  0  0  0  0  0  0  0  0  0  0  0
    2.5663    0.6904    0.0000 H   0  0  0  0  0  0  0  0  0  0  0  0
    4.5108    0.6395    0.0000 H   0  0  0  0  0  0  0  0  0  0  0  0
    3.8956    1.2642    0.0000 H   0  0  0  0  0  0  0  0  0  0  0  0
    3.2708    0.6490    0.0000 H   0  0  0  0  0  0  0  0  0  0  0  0
    1.3900   -1.2938    0.0000 H   0  0  0  0  0  0  0  0  0  0  0  0
    1.7864   -1.9866    0.0000 H   0  0  0  0  0  0  0  0  0  0  0  0
    1.8038    0.2657    0.0000 H   0  0  0  0  0  0  0  0  0  0  0  0
    1.3967   -0.4210    0.0000 H   0  0  0  0  0  0  0  0  0  0  0  0
    1.9048   -2.5071    0.0000 H   0  0  0  0  0  0  0  0  0  0  0  0
    2.1350   -3.3531    0.0000 H   0  0  0  0  0  0  0  0  0  0  0  0
    2.9811   -3.1229    0.0000 H   0  0  0  0  0  0  0  0  0  0  0  0
    2.9072   -3.1232    0.0000 H   0  0  0  0  0  0  0  0  0  0  0  0
    3.7550   -3.3469    0.0000 H   0  0  0  0  0  0  0  0  0  0  0  0
    3.9787   -2.4991    0.0000 H   0  0  0  0  0  0  0  0  0  0  0  0
   11.1943    2.0130    0.0000 H   0  0  0  0  0  0  0  0  0  0  0  0
   11.1401    2.8881    0.0000 H   0  0  0  0  0  0  0  0  0  0  0  0
   10.2650    2.8340    0.0000 H   0  0  0  0  0  0  0  0  0  0  0  0
    9.7977    0.5288    0.0000 H   0  0  0  0  0  0  0  0  0  0  0  0
   10.5827    0.1381    0.0000 H   0  0  0  0  0  0  0  0  0  0  0  0
   10.9733    0.9231    0.0000 H   0  0  0  0  0  0  0  0  0  0  0  0
  1  2  1  0  0  0  0
  1  3  1  0  0  0  0
  1 10  1  0  0  0  0
  1 16  1  6  0  0  0
  2  5  1  0  0  0  0
  2  6  1  0  0  0  0
  2 17  1  1  0  0  0
  3  4  1  0  0  0  0
  3  9  1  0  0  0  0
  3 31  1  1  0  0  0
  4  7  1  0  0  0  0
  4  8  1  0  0  0  0
  4 19  1  6  0  0  0
  5 11  1  0  0  0  0
  5 15  1  0  0  0  0
  5 32  1  6  0  0  0
  6  8  1  0  0  0  0
  6 33  1  0  0  0  0
  6 34  1  0  0  0  0
  7 13  1  0  0  0  0
  7 22  1  6  0  0  0
  7 35  1  0  0  0  0
  8 36  1  0  0  0  0
  8 37  1  0  0  0  0
  9 13  1  0  0  0  0
  9 38  1  0  0  0  0
  9 39  1  0  0  0  0
 10 18  1  0  0  0  0
 10 40  1  0  0  0  0
 10 41  1  0  0  0  0
 11 12  1  0  0  0  0
 11 18  2  0  0  0  0
 12 14  1  0  0  0  0
 12 23  1  0  0  0  0
 12 24  1  1  0  0  0
 13 42  1  0  0  0  0
 13 43  1  0  0  0  0
 14 20  1  0  0  0  0
 14 21  1  0  0  0  0
 14 44  1  6  0  0  0
 15 20  1  0  0  0  0
 15 45  1  0  0  0  0
 15 46  1  0  0  0  0
 16 47  1  0  0  0  0
 16 48  1  0  0  0  0
 16 49  1  0  0  0  0
 17 50  1  0  0  0  0
 17 51  1  0  0  0  0
 17 52  1  0  0  0  0
 18 53  1  0  0  0  0
 19 54  1  0  0  0  0
 19 55  1  0  0  0  0
 19 56  1  0  0  0  0
 20 57  1  0  0  0  0
 20 58  1  0  0  0  0
 21 25  1  0  0  0  0
 21 27  1  0  0  0  0
 21 28  1  0  0  0  0
 22 29  1  0  0  0  0
 22 30  1  0  0  0  0
 22 59  1  0  0  0  0
 23 26  1  0  0  0  0
 23 60  1  0  0  0  0
 23 61  1  0  0  0  0
 24 62  1  0  0  0  0
 24 63  1  0  0  0  0
 24 64  1  0  0  0  0
 25 26  1  0  0  0  0
 25 65  1  0  0  0  0
 25 66  1  0  0  0  0
 26 67  1  0  0  0  0
 26 68  1  0  0  0  0
 27 69  1  0  0  0  0
 27 70  1  0  0  0  0
 27 71  1  0  0  0  0
 28 72  1  0  0  0  0
 28 73  1  0  0  0  0
 28 74  1  0  0  0  0
 29 75  1  0  0  0  0
 29 76  1  0  0  0  0
 29 77  1  0  0  0  0
 30 78  1  0  0  0  0
 30 79  1  0  0  0  0
 30 80  1  0  0  0  0
M  END
> <PUBCHEM_COMPOUND_CID>
441679

> <PUBCHEM_COMPOUND_CANONICALIZED>
1

> <PUBCHEM_CACTVS_COMPLEXITY>
741

> <PUBCHEM_CACTVS_HBOND_ACCEPTOR>
0

> <PUBCHEM_CACTVS_HBOND_DONOR>
0

> <PUBCHEM_CACTVS_ROTATABLE_BOND>
1

> <PUBCHEM_CACTVS_SUBSKEYS>
AAADcfB4AAAAAAAAAAAAAAAAAAAAAYAAAAAwYMEAAAAAAGDAAAAAGAAAAAAADwCAAAACAAAAAACAAiBCAAAAAAAgAAAACAAAAAgAAAIAAQAAAAAAgAAIAAMAgMAPgAAAAAAAAACAAAQAACAAAQAACAAAAA==

> <PUBCHEM_IUPAC_OPENEYE_NAME>
(3R,3aR,5aR,5bR,7aS,11aS,13aS,13bR)-3-isopropyl-3a,5a,8,8,11a,13a-hexamethyl-1,2,3,4,5,5b,6,7,7a,9,10,11,13,13b-tetradecahydrocyclopenta[a]chrysene

> <PUBCHEM_IUPAC_CAS_NAME>
(3R,3aR,5aR,5bR,7aS,11aS,13aS,13bR)-3a,5a,8,8,11a,13a-hexamethyl-3-propan-2-yl-1,2,3,4,5,5b,6,7,7a,9,10,11,13,13b-tetradecahydrocyclopenta[a]chrysene

> <PUBCHEM_IUPAC_NAME>
(3R,3aR,5aR,5bR,7aS,11aS,13aS,13bR)-3a,5a,8,8,11a,13a-hexamethyl-3-propan-2-yl-1,2,3,4,5,5b,6,7,7a,9,10,11,13,13b-tetradecahydrocyclopenta[a]chrysene

> <PUBCHEM_IUPAC_SYSTEMATIC_NAME>
(3R,3aR,5aR,5bR,7aS,11aS,13aS,13bR)-3a,5a,8,8,11a,13a-hexamethyl-3-propan-2-yl-1,2,3,4,5,5b,6,7,7a,9,10,11,13,13b-tetradecahydrocyclopenta[a]chrysene

> <PUBCHEM_IUPAC_TRADITIONAL_NAME>
(3R,3aR,5aR,5bR,7aS,11aS,13aS,13bR)-3-isopropyl-3a,5a,8,8,11a,13a-hexamethyl-1,2,3,4,5,5b,6,7,7a,9,10,11,13,13b-tetradecahydrocyclopenta[a]chrysene

> <PUBCHEM_IUPAC_INCHI>
InChI=1S/C30H50/c1-20(2)21-10-13-25-28(21,6)18-19-29(7)23-11-12-24-26(3,4)15-9-16-27(24,5)22(23)14-17-30(25,29)8/h14,20-21,23-25H,9-13,15-19H2,1-8H3/t21-,23+,24+,25-,27-,28-,29-,30+/m1/s1

> <PUBCHEM_IUPAC_INCHIKEY>
ZHDRLFGZQZCZKX-BQOUFORSSA-N

> <PUBCHEM_XLOGP3_AA>
10.5

> <PUBCHEM_EXACT_MASS>
410.391252

> <PUBCHEM_MOLECULAR_FORMULA>
C30H50

> <PUBCHEM_MOLECULAR_WEIGHT>
410.718

> <PUBCHEM_OPENEYE_CAN_SMILES>
CC(C)C1CCC2C1(CCC3(C2(CC=C4C3CCC5C4(CCCC5(C)C)C)C)C)C

> <PUBCHEM_OPENEYE_ISO_SMILES>
CC(C)[C@H]1CC[C@@H]2[C@@]1(CC[C@]3([C@]2(CC=C4[C@@H]3CC[C@@H]5[C@@]4(CCCC5(C)C)C)C)C)C

> <PUBCHEM_CACTVS_TPSA>
0

> <PUBCHEM_MONOISOTOPIC_WEIGHT>
410.391252

> <PUBCHEM_TOTAL_CHARGE>
0

> <PUBCHEM_HEAVY_ATOM_COUNT>
30

> <PUBCHEM_ATOM_DEF_STEREO_COUNT>
8

> <PUBCHEM_ATOM_UDEF_STEREO_COUNT>
0

> <PUBCHEM_BOND_DEF_STEREO_COUNT>
0

> <PUBCHEM_BOND_UDEF_STEREO_COUNT>
0

> <PUBCHEM_ISOTOPIC_ATOM_COUNT>
0

> <PUBCHEM_COMPONENT_COUNT>
1

> <PUBCHEM_CACTVS_TAUTO_COUNT>
1

> <PUBCHEM_COORDINATE_TYPE>
1
5
255

> <PUBCHEM_BONDANNOTATIONS>
1  16  6
12  24  5
14  44  6
2  17  5
3  31  5
4  19  6
5  32  6
7  22  6

$$$$

