   Color/Form

     * Yellow to tan crystals
     * Yellow-tan, free-flowing granules
     * Crystals from isopropanol

   from [1]HSDB

   Odor
        Characteristic of vegetable oil
   from [2]HSDB

   Melting Point
        190 deg C
   from [3]HSDB

   Octanol/Water Partition Coefficient
        log Kow = 2.31
   from [4]HSDB

   Solubilities

     * In acetone 360, ethanol 72, 1,2-dichloroethane 170, methanol 230,
       isopropanol 12, xylene 94, chlorobenzene 390 (all in g/L at 20 deg
       C)
     * In water, 0.006 mg/L at 25 deg C

   from [5]HSDB

   Vapor Pressure
        2.03X10-8 mm Hg at 25 deg C
   from [6]HSDB

   Other Chemical/Physical Properties

     * Yellow to tan crystalline solid with characteristic vegetable odor.
       MP 189-191 deg C. Insoluble in water, slightly soluble in alcohols,
       and soluble in acetone, chorobenzene, and 1,2-dichloroethane. VP:
       2X10-8 mm Hg at 25 deg C. /Technical/
     * Henry's Law constant = 2.20X10-6 atm-cu m/mol at 25 deg C (est)
     * Hydroxyl radical reaction rate constant = 1.35X10-10 cu
       cm/molec-sec at 25 deg C (est)

   from [7]HSDB

   Computed Properties
   Molecular Weight                  494.475279 [g/mol]
   Molecular Formula                 C[25]H[24]F[6]N[4]
   XLogP3-AA                         6.4
   H-Bond Donor                      2
   H-Bond Acceptor                   8
   Rotatable Bond Count              6
   Tautomer Count                    3
   Exact Mass                        494.190516
   MonoIsotopic Mass                 494.190516
   Topological Polar Surface Area    48.8
   Heavy Atom Count                  35
   Formal Charge                     0
   Complexity                        763
   Isotope Atom Count                0
   Defined Atom Stereocenter Count   0
   Undefined Atom Stereocenter Count 0
   Defined Bond Stereocenter Count   2
   Undefined Bond Stereocenter Count 0
   Covalently-Bonded Unit Count      1
   Feature 3D Acceptor Count         1
   Feature 3D Donor Count            2
   Feature 3D Cation Count           1
   Feature 3D Hydrophobe Count       1
   Feature 3D Ring Count             3
   Effective Rotor Count             8.8
   Conformer Sampling RMSD           1
   CID Conformer Count               [8]12

References

   1. http://toxnet.nlm.nih.gov/cgi-bin/sis/search/r?dbs+hsdb:@term+@rn+@rel+67485-29-4
   2. http://toxnet.nlm.nih.gov/cgi-bin/sis/search/r?dbs+hsdb:@term+@rn+@rel+67485-29-4
   3. http://toxnet.nlm.nih.gov/cgi-bin/sis/search/r?dbs+hsdb:@term+@rn+@rel+67485-29-4
   4. http://toxnet.nlm.nih.gov/cgi-bin/sis/search/r?dbs+hsdb:@term+@rn+@rel+67485-29-4
   5. http://toxnet.nlm.nih.gov/cgi-bin/sis/search/r?dbs+hsdb:@term+@rn+@rel+67485-29-4
   6. http://toxnet.nlm.nih.gov/cgi-bin/sis/search/r?dbs+hsdb:@term+@rn+@rel+67485-29-4
   7. http://toxnet.nlm.nih.gov/cgi-bin/sis/search/r?dbs+hsdb:@term+@rn+@rel+67485-29-4
   8. http://pubchem.ncbi.nlm.nih.gov/vw3d/vw3d.cgi?cid=5281875
