   Color/Form
        Colorless or yellow liquid
   from [1]HSDB

   Odor
        Aromatic odor
   from [2]HSDB

   Boiling Point
        142 deg C at 20 mm Hg
   from [3]HSDB

   Corrosivity
        Noncorrosive
   from [4]HSDB

   Density/Specific Gravity
        0.9458 at 30 deg C/4 deg C
   from [5]HSDB

   Octanol/Water Partition Coefficient
        log Kow = 3.83
   from [6]HSDB

   Solubilities

     * Very soluble in acetone, benzene, methanol
     * Soluble in xylene
     * Miscible with acetone, benzene, isopropanol, methanol and xylene.
     * In water, 100 mg/L at 25 deg C
     * Miscible with kerosene, methylisobutyl ketone, 4-methylpentan-2-one

   from [7]HSDB

   Spectral Properties

     * Index of refraction: 1.4752 at 30 deg C/D
     * Intense mass spectral peaks: 57 m/z (100%), 128 m/z (76%), 72 m/z
       (71%), 41_ m/z (48%)

   from [8]HSDB

   Vapor Pressure
        8.85X10-2 mm Hg at 25 deg C
   from [9]HSDB

   Other Chemical/Physical Properties

     * VP: 9 Pa at 30 deg C /6.751X10-2 mm Hg/
     * Amber liquid. BP: 142 deg C at 21 mm Hg. Density: 0.9552 g/mL at 20
       deg C. log Kow = 9.6X10+3 at 25 deg C. VP: 8.9C10-3 mm Hg at 25 deg
       C. /Technical/
     * Henry's Law constant = 2.37X10-4 atm-cu m/mol at 25 deg C (est)
     * Hydroxyl radical reaction rate constant = 2.94X10-11 cu
       cm/molec-sec at 25 deg C (est)

   from [10]HSDB

   Computed Properties
   Molecular Weight                  203.34484 [g/mol]
   Molecular Formula                 C[10]H[21]NOS
   XLogP3                            3.8
   H-Bond Donor                      0
   H-Bond Acceptor                   2
   Rotatable Bond Count              7
   Exact Mass                        203.134385
   MonoIsotopic Mass                 203.134385
   Topological Polar Surface Area    45.6
   Heavy Atom Count                  13
   Formal Charge                     0
   Complexity                        139
   Isotope Atom Count                0
   Defined Atom Stereocenter Count   0
   Undefined Atom Stereocenter Count 0
   Defined Bond Stereocenter Count   0
   Undefined Bond Stereocenter Count 0
   Covalently-Bonded Unit Count      1
   Feature 3D Hydrophobe Count       2
   Effective Rotor Count             8
   Conformer Sampling RMSD           0.8
   CID Conformer Count               [11]308

References

   1. http://toxnet.nlm.nih.gov/cgi-bin/sis/search/r?dbs+hsdb:@term+@rn+@rel+1114-71-2
   2. http://toxnet.nlm.nih.gov/cgi-bin/sis/search/r?dbs+hsdb:@term+@rn+@rel+1114-71-2
   3. http://toxnet.nlm.nih.gov/cgi-bin/sis/search/r?dbs+hsdb:@term+@rn+@rel+1114-71-2
   4. http://toxnet.nlm.nih.gov/cgi-bin/sis/search/r?dbs+hsdb:@term+@rn+@rel+1114-71-2
   5. http://toxnet.nlm.nih.gov/cgi-bin/sis/search/r?dbs+hsdb:@term+@rn+@rel+1114-71-2
   6. http://toxnet.nlm.nih.gov/cgi-bin/sis/search/r?dbs+hsdb:@term+@rn+@rel+1114-71-2
   7. http://toxnet.nlm.nih.gov/cgi-bin/sis/search/r?dbs+hsdb:@term+@rn+@rel+1114-71-2
   8. http://toxnet.nlm.nih.gov/cgi-bin/sis/search/r?dbs+hsdb:@term+@rn+@rel+1114-71-2
   9. http://toxnet.nlm.nih.gov/cgi-bin/sis/search/r?dbs+hsdb:@term+@rn+@rel+1114-71-2
  10. http://toxnet.nlm.nih.gov/cgi-bin/sis/search/r?dbs+hsdb:@term+@rn+@rel+1114-71-2
  11. http://pubchem.ncbi.nlm.nih.gov/vw3d/vw3d.cgi?cid=14215
