47205630
  -OEChem-06241222592D

 32 33  0     0  0  0  0  0  0999 V2000
    3.7320    1.6012    0.0000 O   0  0  0  0  0  0  0  0  0  0  0  0
    8.0622    0.1012    0.0000 O   0  0  0  0  0  0  0  0  0  0  0  0
    6.3301    3.1012    0.0000 O   0  5  0  0  0  0  0  0  0  0  0  0
    4.5981    3.1012    0.0000 O   0  0  0  0  0  0  0  0  0  0  0  0
    7.1962   -1.3988    0.0000 N   0  0  0  0  0  0  0  0  0  0  0  0
    5.4641    2.6012    0.0000 N   0  3  0  0  0  0  0  0  0  0  0  0
    9.6448   -2.2352    0.0000 N   0  0  0  0  0  0  0  0  0  0  0  0
    9.1448   -3.1012    0.0000 N   0  0  0  0  0  0  0  0  0  0  0  0
    6.3301    0.1012    0.0000 C   0  0  0  0  0  0  0  0  0  0  0  0
    4.5981    1.1012    0.0000 C   0  0  0  0  0  0  0  0  0  0  0  0
    5.4641    1.6012    0.0000 C   0  0  0  0  0  0  0  0  0  0  0  0
    6.3301    1.1012    0.0000 C   0  0  0  0  0  0  0  0  0  0  0  0
    5.4641   -0.3988    0.0000 C   0  0  0  0  0  0  0  0  0  0  0  0
    4.5981    0.1012    0.0000 C   0  0  0  0  0  0  0  0  0  0  0  0
    7.1962   -0.3988    0.0000 C   0  0  0  0  0  0  0  0  0  0  0  0
    8.0622   -1.8988    0.0000 C   0  0  0  0  0  0  0  0  0  0  0  0
    2.8660    1.1012    0.0000 C   0  0  0  0  0  0  0  0  0  0  0  0
    8.9757   -1.4921    0.0000 C   0  0  0  0  0  0  0  0  0  0  0  0
    2.0000    1.6012    0.0000 C   0  0  0  0  0  0  0  0  0  0  0  0
    8.1667   -2.8933    0.0000 C   0  0  0  0  0  0  0  0  0  0  0  0
    6.8671    1.4112    0.0000 H   0  0  0  0  0  0  0  0  0  0  0  0
    5.4641   -1.0188    0.0000 H   0  0  0  0  0  0  0  0  0  0  0  0
    4.0611   -0.2088    0.0000 H   0  0  0  0  0  0  0  0  0  0  0  0
    6.6592   -1.7088    0.0000 H   0  0  0  0  0  0  0  0  0  0  0  0
    2.4675    0.6263    0.0000 H   0  0  0  0  0  0  0  0  0  0  0  0
    3.2646    0.6263    0.0000 H   0  0  0  0  0  0  0  0  0  0  0  0
    9.1046   -0.8856    0.0000 H   0  0  0  0  0  0  0  0  0  0  0  0
    2.3100    2.1382    0.0000 H   0  0  0  0  0  0  0  0  0  0  0  0
    1.4631    1.9112    0.0000 H   0  0  0  0  0  0  0  0  0  0  0  0
    1.6900    1.0643    0.0000 H   0  0  0  0  0  0  0  0  0  0  0  0
    7.7060   -3.3082    0.0000 H   0  0  0  0  0  0  0  0  0  0  0  0
   10.2615   -2.1704    0.0000 H   0  0  0  0  0  0  0  0  0  0  0  0
  1 10  1  0  0  0  0
  1 17  1  0  0  0  0
  2 15  2  0  0  0  0
  3  6  1  0  0  0  0
  4  6  2  0  0  0  0
  5 15  1  0  0  0  0
  5 16  1  0  0  0  0
  5 24  1  0  0  0  0
  6 11  1  0  0  0  0
  7  8  1  0  0  0  0
  7 18  1  0  0  0  0
  7 32  1  0  0  0  0
  8 20  2  0  0  0  0
  9 12  2  0  0  0  0
  9 13  1  0  0  0  0
  9 15  1  0  0  0  0
 10 11  2  0  0  0  0
 10 14  1  0  0  0  0
 11 12  1  0  0  0  0
 12 21  1  0  0  0  0
 13 14  2  0  0  0  0
 13 22  1  0  0  0  0
 14 23  1  0  0  0  0
 16 18  2  0  0  0  0
 16 20  1  0  0  0  0
 17 19  1  0  0  0  0
 17 25  1  0  0  0  0
 17 26  1  0  0  0  0
 18 27  1  0  0  0  0
 19 28  1  0  0  0  0
 19 29  1  0  0  0  0
 19 30  1  0  0  0  0
 20 31  1  0  0  0  0
M  CHG  2   3  -1   6   1
M  END
> <PUBCHEM_COMPOUND_CID>
47205630

> <PUBCHEM_COMPOUND_CANONICALIZED>
1

> <PUBCHEM_CACTVS_COMPLEXITY>
360

> <PUBCHEM_CACTVS_HBOND_ACCEPTOR>
5

> <PUBCHEM_CACTVS_HBOND_DONOR>
2

> <PUBCHEM_CACTVS_ROTATABLE_BOND>
4

> <PUBCHEM_CACTVS_SUBSKEYS>
AAADccBzuAAAAAAAAAAAAAAAAAAAAWAAAAAwAAAAAAAAAAABwAAAHgAcAAAADAzhmgY+xpLzRACrAjV3UwCSDAAlsgA4uaEnfNoOZrKE9duXvSjk3FGI6Yec3ALOIAAAQAAAEABAAACAAAAgAAAAAAAAAA==

> <PUBCHEM_IUPAC_OPENEYE_NAME>
4-ethoxy-3-nitro-N-(1H-pyrazol-4-yl)benzamide

> <PUBCHEM_IUPAC_CAS_NAME>
4-ethoxy-3-nitro-N-(1H-pyrazol-4-yl)benzamide

> <PUBCHEM_IUPAC_NAME>
4-ethoxy-3-nitro-N-(1H-pyrazol-4-yl)benzamide

> <PUBCHEM_IUPAC_SYSTEMATIC_NAME>
4-ethoxy-3-nitro-N-(1H-pyrazol-4-yl)benzamide

> <PUBCHEM_IUPAC_TRADITIONAL_NAME>
4-ethoxy-3-nitro-N-(1H-pyrazol-4-yl)benzamide

> <PUBCHEM_IUPAC_INCHI>
InChI=1S/C12H12N4O4/c1-2-20-11-4-3-8(5-10(11)16(18)19)12(17)15-9-6-13-14-7-9/h3-7H,2H2,1H3,(H,13,14)(H,15,17)

> <PUBCHEM_IUPAC_INCHIKEY>
GPYMDMITJBUBRM-UHFFFAOYSA-N

> <PUBCHEM_XLOGP3_AA>
1.2

> <PUBCHEM_EXACT_MASS>
276.085855

> <PUBCHEM_MOLECULAR_FORMULA>
C12H12N4O4

> <PUBCHEM_MOLECULAR_WEIGHT>
276.24808

> <PUBCHEM_OPENEYE_CAN_SMILES>
CCOC1=C(C=C(C=C1)C(=O)NC2=CNN=C2)[N+](=O)[O-]

> <PUBCHEM_OPENEYE_ISO_SMILES>
CCOC1=C(C=C(C=C1)C(=O)NC2=CNN=C2)[N+](=O)[O-]

> <PUBCHEM_CACTVS_TPSA>
113

> <PUBCHEM_MONOISOTOPIC_WEIGHT>
276.085855

> <PUBCHEM_TOTAL_CHARGE>
0

> <PUBCHEM_HEAVY_ATOM_COUNT>
20

> <PUBCHEM_ATOM_DEF_STEREO_COUNT>
0

> <PUBCHEM_ATOM_UDEF_STEREO_COUNT>
0

> <PUBCHEM_BOND_DEF_STEREO_COUNT>
0

> <PUBCHEM_BOND_UDEF_STEREO_COUNT>
0

> <PUBCHEM_ISOTOPIC_ATOM_COUNT>
0

> <PUBCHEM_COMPONENT_COUNT>
1

> <PUBCHEM_CACTVS_TAUTO_COUNT>
2

> <PUBCHEM_COORDINATE_TYPE>
1
5
255

> <PUBCHEM_BONDANNOTATIONS>
10  11  8
10  14  8
11  12  8
13  14  8
16  18  8
16  20  8
7  18  8
7  8  8
8  20  8
9  12  8
9  13  8

$$$$

