440774
  -OEChem-07051212502D

 24 23  0     1  0  0  0  0  0999 V2000
    3.4030   -1.5600    0.0000 P   0  0  0  0  0  0  0  0  0  0  0  0
    4.2690   -1.0600    0.0000 O   0  0  0  0  0  0  0  0  0  0  0  0
    5.1350   -2.5600    0.0000 O   0  0  0  0  0  0  0  0  0  0  0  0
    7.7331    1.9400    0.0000 O   0  0  0  0  0  0  0  0  0  0  0  0
    6.0010    1.9400    0.0000 O   0  0  0  0  0  0  0  0  0  0  0  0
    2.5369   -2.0600    0.0000 O   0  0  0  0  0  0  0  0  0  0  0  0
    2.9030   -0.6940    0.0000 O   0  0  0  0  0  0  0  0  0  0  0  0
    3.9030   -2.4260    0.0000 O   0  0  0  0  0  0  0  0  0  0  0  0
    6.8671   -1.5600    0.0000 N   0  0  0  0  0  0  0  0  0  0  0  0
    6.0010   -1.0600    0.0000 C   0  0  1  0  0  0  0  0  0  0  0  0
    6.0010   -0.0600    0.0000 C   0  0  0  0  0  0  0  0  0  0  0  0
    6.8671    0.4400    0.0000 C   0  0  0  0  0  0  0  0  0  0  0  0
    5.1350   -1.5600    0.0000 C   0  0  0  0  0  0  0  0  0  0  0  0
    6.8671    1.4400    0.0000 C   0  0  0  0  0  0  0  0  0  0  0  0
    6.5380   -0.7500    0.0000 H   0  0  0  0  0  0  0  0  0  0  0  0
    5.7890    0.5226    0.0000 H   0  0  0  0  0  0  0  0  0  0  0  0
    5.3905   -0.1677    0.0000 H   0  0  0  0  0  0  0  0  0  0  0  0
    7.0791   -0.1426    0.0000 H   0  0  0  0  0  0  0  0  0  0  0  0
    7.4776    0.5477    0.0000 H   0  0  0  0  0  0  0  0  0  0  0  0
    7.4040   -1.2500    0.0000 H   0  0  0  0  0  0  0  0  0  0  0  0
    6.8671   -2.1800    0.0000 H   0  0  0  0  0  0  0  0  0  0  0  0
    7.7331    2.5600    0.0000 H   0  0  0  0  0  0  0  0  0  0  0  0
    2.0000   -1.7500    0.0000 H   0  0  0  0  0  0  0  0  0  0  0  0
    3.2130   -0.1570    0.0000 H   0  0  0  0  0  0  0  0  0  0  0  0
  1  2  1  0  0  0  0
  1  6  1  0  0  0  0
  1  7  1  0  0  0  0
  1  8  2  0  0  0  0
  2 13  1  0  0  0  0
  3 13  2  0  0  0  0
  4 14  1  0  0  0  0
  4 22  1  0  0  0  0
  5 14  2  0  0  0  0
  6 23  1  0  0  0  0
  7 24  1  0  0  0  0
 10  9  1  6  0  0  0
  9 20  1  0  0  0  0
  9 21  1  0  0  0  0
 10 11  1  0  0  0  0
 10 13  1  0  0  0  0
 10 15  1  0  0  0  0
 11 12  1  0  0  0  0
 11 16  1  0  0  0  0
 11 17  1  0  0  0  0
 12 14  1  0  0  0  0
 12 18  1  0  0  0  0
 12 19  1  0  0  0  0
M  END
> <PUBCHEM_COMPOUND_CID>
440774

> <PUBCHEM_COMPOUND_CANONICALIZED>
1

> <PUBCHEM_CACTVS_COMPLEXITY>
271

> <PUBCHEM_CACTVS_HBOND_ACCEPTOR>
8

> <PUBCHEM_CACTVS_HBOND_DONOR>
4

> <PUBCHEM_CACTVS_ROTATABLE_BOND>
6

> <PUBCHEM_CACTVS_SUBSKEYS>
AAADccBiOAIAAAAAAAAAAAAAAAAAAAAAAAAAAAAAAAAAAAAAAAAAHgAQCCAACCjBgAQACABAAxAIQACQCIAAAAAAAAAAAIGAAAACABIAgAAAQAAEEAAAAACsJgAAAAAAAAAAAAAAAAAAAAAAAAAAAAAAAA==

> <PUBCHEM_IUPAC_OPENEYE_NAME>
(4S)-4-amino-5-oxo-5-phosphonooxy-pentanoic acid

> <PUBCHEM_IUPAC_CAS_NAME>
(4S)-4-amino-5-oxo-5-phosphonooxypentanoic acid

> <PUBCHEM_IUPAC_NAME>
(4S)-4-amino-5-oxo-5-phosphonooxypentanoic acid

> <PUBCHEM_IUPAC_SYSTEMATIC_NAME>
(4S)-4-azanyl-5-oxidanylidene-5-phosphonooxy-pentanoic acid

> <PUBCHEM_IUPAC_TRADITIONAL_NAME>
(4S)-4-amino-5-keto-5-phosphonooxy-valeric acid

> <PUBCHEM_IUPAC_INCHI>
InChI=1S/C5H10NO7P/c6-3(1-2-4(7)8)5(9)13-14(10,11)12/h3H,1-2,6H2,(H,7,8)(H2,10,11,12)/t3-/m0/s1

> <PUBCHEM_IUPAC_INCHIKEY>
YHMNHCAJNORJNE-VKHMYHEASA-N

> <PUBCHEM_XLOGP3_AA>
-4.8

> <PUBCHEM_EXACT_MASS>
227.019488

> <PUBCHEM_MOLECULAR_FORMULA>
C5H10NO7P

> <PUBCHEM_MOLECULAR_WEIGHT>
227.109162

> <PUBCHEM_OPENEYE_CAN_SMILES>
C(CC(=O)O)C(C(=O)OP(=O)(O)O)N

> <PUBCHEM_OPENEYE_ISO_SMILES>
C(CC(=O)O)[C@@H](C(=O)OP(=O)(O)O)N

> <PUBCHEM_CACTVS_TPSA>
147

> <PUBCHEM_MONOISOTOPIC_WEIGHT>
227.019488

> <PUBCHEM_TOTAL_CHARGE>
0

> <PUBCHEM_HEAVY_ATOM_COUNT>
14

> <PUBCHEM_ATOM_DEF_STEREO_COUNT>
1

> <PUBCHEM_ATOM_UDEF_STEREO_COUNT>
0

> <PUBCHEM_BOND_DEF_STEREO_COUNT>
0

> <PUBCHEM_BOND_UDEF_STEREO_COUNT>
0

> <PUBCHEM_ISOTOPIC_ATOM_COUNT>
0

> <PUBCHEM_COMPONENT_COUNT>
1

> <PUBCHEM_CACTVS_TAUTO_COUNT>
1

> <PUBCHEM_COORDINATE_TYPE>
1
5
255

> <PUBCHEM_BONDANNOTATIONS>
10  9  6

$$$$

