13467
  -OEChem-06261214302D

 42 42  0     0  0  0  0  0  0999 V2000
    5.1350    1.1550    0.0000 N   0  0  0  0  0  0  0  0  0  0  0  0
    4.2690   -1.3450    0.0000 N   0  0  0  0  0  0  0  0  0  0  0  0
    3.4030   -2.8450    0.0000 N   0  0  0  0  0  0  0  0  0  0  0  0
    2.5369   -1.3450    0.0000 N   0  0  0  0  0  0  0  0  0  0  0  0
    4.2690    1.6550    0.0000 C   0  0  0  0  0  0  0  0  0  0  0  0
    6.0010    1.6550    0.0000 C   0  0  0  0  0  0  0  0  0  0  0  0
    4.2690    2.6550    0.0000 C   0  0  0  0  0  0  0  0  0  0  0  0
    6.0010    2.6550    0.0000 C   0  0  0  0  0  0  0  0  0  0  0  0
    5.1350    3.1550    0.0000 C   0  0  0  0  0  0  0  0  0  0  0  0
    5.1350    0.1550    0.0000 C   0  0  0  0  0  0  0  0  0  0  0  0
    3.2690    1.6550    0.0000 C   0  0  0  0  0  0  0  0  0  0  0  0
    3.7690    0.7890    0.0000 C   0  0  0  0  0  0  0  0  0  0  0  0
    7.0010    1.6550    0.0000 C   0  0  0  0  0  0  0  0  0  0  0  0
    6.5010    0.7890    0.0000 C   0  0  0  0  0  0  0  0  0  0  0  0
    4.2690   -0.3450    0.0000 C   0  0  0  0  0  0  0  0  0  0  0  0
    3.4030   -1.8450    0.0000 C   0  0  0  0  0  0  0  0  0  0  0  0
    6.6116    2.5473    0.0000 H   0  0  0  0  0  0  0  0  0  0  0  0
    6.2131    3.2376    0.0000 H   0  0  0  0  0  0  0  0  0  0  0  0
    4.0569    3.2376    0.0000 H   0  0  0  0  0  0  0  0  0  0  0  0
    3.6584    2.5473    0.0000 H   0  0  0  0  0  0  0  0  0  0  0  0
    5.5335    3.6300    0.0000 H   0  0  0  0  0  0  0  0  0  0  0  0
    4.7365    3.6300    0.0000 H   0  0  0  0  0  0  0  0  0  0  0  0
    5.3471   -0.4276    0.0000 H   0  0  0  0  0  0  0  0  0  0  0  0
    5.7456    0.2627    0.0000 H   0  0  0  0  0  0  0  0  0  0  0  0
    3.2690    2.2750    0.0000 H   0  0  0  0  0  0  0  0  0  0  0  0
    2.6490    1.6550    0.0000 H   0  0  0  0  0  0  0  0  0  0  0  0
    5.9641    0.4790    0.0000 H   0  0  0  0  0  0  0  0  0  0  0  0
    6.8110    0.2520    0.0000 H   0  0  0  0  0  0  0  0  0  0  0  0
    7.0380    1.0990    0.0000 H   0  0  0  0  0  0  0  0  0  0  0  0
    7.0010    1.0350    0.0000 H   0  0  0  0  0  0  0  0  0  0  0  0
    7.6210    1.6550    0.0000 H   0  0  0  0  0  0  0  0  0  0  0  0
    7.0010    2.2750    0.0000 H   0  0  0  0  0  0  0  0  0  0  0  0
    3.2320    1.0990    0.0000 H   0  0  0  0  0  0  0  0  0  0  0  0
    3.4590    0.2520    0.0000 H   0  0  0  0  0  0  0  0  0  0  0  0
    4.3059    0.4790    0.0000 H   0  0  0  0  0  0  0  0  0  0  0  0
    3.2690    1.0350    0.0000 H   0  0  0  0  0  0  0  0  0  0  0  0
    4.0569    0.2376    0.0000 H   0  0  0  0  0  0  0  0  0  0  0  0
    3.6584   -0.4527    0.0000 H   0  0  0  0  0  0  0  0  0  0  0  0
    2.8660   -3.1550    0.0000 H   0  0  0  0  0  0  0  0  0  0  0  0
    3.9399   -3.1550    0.0000 H   0  0  0  0  0  0  0  0  0  0  0  0
    2.0000   -1.6550    0.0000 H   0  0  0  0  0  0  0  0  0  0  0  0
    2.5369   -0.7250    0.0000 H   0  0  0  0  0  0  0  0  0  0  0  0
  1  5  1  0  0  0  0
  1  6  1  0  0  0  0
  1 10  1  0  0  0  0
  2 15  1  0  0  0  0
  2 16  2  0  0  0  0
  3 16  1  0  0  0  0
  3 39  1  0  0  0  0
  3 40  1  0  0  0  0
  4 16  1  0  0  0  0
  4 41  1  0  0  0  0
  4 42  1  0  0  0  0
  5  7  1  0  0  0  0
  5 11  1  0  0  0  0
  5 12  1  0  0  0  0
  6  8  1  0  0  0  0
  6 13  1  0  0  0  0
  6 14  1  0  0  0  0
  7  9  1  0  0  0  0
  7 19  1  0  0  0  0
  7 20  1  0  0  0  0
  8  9  1  0  0  0  0
  8 17  1  0  0  0  0
  8 18  1  0  0  0  0
  9 21  1  0  0  0  0
  9 22  1  0  0  0  0
 10 15  1  0  0  0  0
 10 23  1  0  0  0  0
 10 24  1  0  0  0  0
 11 25  1  0  0  0  0
 11 26  1  0  0  0  0
 11 36  1  0  0  0  0
 12 33  1  0  0  0  0
 12 34  1  0  0  0  0
 12 35  1  0  0  0  0
 13 30  1  0  0  0  0
 13 31  1  0  0  0  0
 13 32  1  0  0  0  0
 14 27  1  0  0  0  0
 14 28  1  0  0  0  0
 14 29  1  0  0  0  0
 15 37  1  0  0  0  0
 15 38  1  0  0  0  0
M  END
> <PUBCHEM_COMPOUND_CID>
13467

> <PUBCHEM_COMPOUND_CANONICALIZED>
1

> <PUBCHEM_CACTVS_COMPLEXITY>
248

> <PUBCHEM_CACTVS_HBOND_ACCEPTOR>
2

> <PUBCHEM_CACTVS_HBOND_DONOR>
2

> <PUBCHEM_CACTVS_ROTATABLE_BOND>
3

> <PUBCHEM_CACTVS_SUBSKEYS>
AAADceBzgAAAAAAAAAAAAAAAAAAAAAAAAAAsAAAAAAAAAAAAAAAAHAAQAAAADIjBAAQDAANAAAAgAAAAJAAAAAEAAAAAAAAIAAAAQAIAgAAUAAAAAACAAAEQgEAMAAAAAAAAAAAAAAAAAAAAAAAAAAAAAA==

> <PUBCHEM_IUPAC_OPENEYE_NAME>
2-[2-(2,2,6,6-tetramethyl-1-piperidyl)ethyl]guanidine

> <PUBCHEM_IUPAC_CAS_NAME>
2-[2-(2,2,6,6-tetramethyl-1-piperidinyl)ethyl]guanidine

> <PUBCHEM_IUPAC_NAME>
2-[2-(2,2,6,6-tetramethylpiperidin-1-yl)ethyl]guanidine

> <PUBCHEM_IUPAC_SYSTEMATIC_NAME>
2-[2-(2,2,6,6-tetramethylpiperidin-1-yl)ethyl]guanidine

> <PUBCHEM_IUPAC_TRADITIONAL_NAME>
2-[2-(2,2,6,6-tetramethylpiperidino)ethyl]guanidine

> <PUBCHEM_IUPAC_INCHI>
InChI=1S/C12H26N4/c1-11(2)6-5-7-12(3,4)16(11)9-8-15-10(13)14/h5-9H2,1-4H3,(H4,13,14,15)

> <PUBCHEM_IUPAC_INCHIKEY>
JQLQLLNOAWROTF-UHFFFAOYSA-N

> <PUBCHEM_XLOGP3_AA>
0.8

> <PUBCHEM_EXACT_MASS>
226.215747

> <PUBCHEM_MOLECULAR_FORMULA>
C12H26N4

> <PUBCHEM_MOLECULAR_WEIGHT>
226.36164

> <PUBCHEM_OPENEYE_CAN_SMILES>
CC1(CCCC(N1CCN=C(N)N)(C)C)C

> <PUBCHEM_OPENEYE_ISO_SMILES>
CC1(CCCC(N1CCN=C(N)N)(C)C)C

> <PUBCHEM_CACTVS_TPSA>
67.6

> <PUBCHEM_MONOISOTOPIC_WEIGHT>
226.215747

> <PUBCHEM_TOTAL_CHARGE>
0

> <PUBCHEM_HEAVY_ATOM_COUNT>
16

> <PUBCHEM_ATOM_DEF_STEREO_COUNT>
0

> <PUBCHEM_ATOM_UDEF_STEREO_COUNT>
0

> <PUBCHEM_BOND_DEF_STEREO_COUNT>
0

> <PUBCHEM_BOND_UDEF_STEREO_COUNT>
0

> <PUBCHEM_ISOTOPIC_ATOM_COUNT>
0

> <PUBCHEM_COMPONENT_COUNT>
1

> <PUBCHEM_CACTVS_TAUTO_COUNT>
2

> <PUBCHEM_COORDINATE_TYPE>
1
5
255

$$$$

