5281283
  -OEChem-07051212552D

 66 68  0     1  0  0  0  0  0999 V2000
    7.8003   -3.1342    0.0000 O   0  0  0  0  0  0  0  0  0  0  0  0
    2.5381   -3.1584    0.0000 O   0  0  0  0  0  0  0  0  0  0  0  0
    4.3283   -4.9008    0.0000 O   0  0  0  0  0  0  0  0  0  0  0  0
    9.5921    1.9075    0.0000 O   0  0  0  0  0  0  0  0  0  0  0  0
    7.8600    1.9142    0.0000 O   0  0  0  0  0  0  0  0  0  0  0  0
   10.4677    4.4042    0.0000 N   0  0  0  0  0  0  0  0  0  0  0  0
    5.2022   -1.6342    0.0000 C   0  0  1  0  0  0  0  0  0  0  0  0
    5.2022   -2.6342    0.0000 C   0  0  2  0  0  0  0  0  0  0  0  0
    6.0682   -1.1342    0.0000 C   0  0  2  0  0  0  0  0  0  0  0  0
    6.9343   -1.6342    0.0000 C   0  0  1  0  0  0  0  0  0  0  0  0
    4.3083   -3.1689    0.0000 C   0  0  1  0  0  0  0  0  0  0  0  0
    6.0682   -3.1342    0.0000 C   0  0  0  0  0  0  0  0  0  0  0  0
    4.3083   -1.0996    0.0000 C   0  0  0  0  0  0  0  0  0  0  0  0
    6.9343   -2.6342    0.0000 C   0  0  2  0  0  0  0  0  0  0  0  0
    6.0522   -0.0927    0.0000 C   0  0  0  0  0  0  0  0  0  0  0  0
    7.8443   -1.1274    0.0000 C   0  0  2  0  0  0  0  0  0  0  0  0
    3.4022   -2.6550    0.0000 C   0  0  2  0  0  0  0  0  0  0  0  0
    3.4022   -1.6134    0.0000 C   0  0  0  0  0  0  0  0  0  0  0  0
    5.2022   -0.6342    0.0000 C   0  0  0  0  0  0  0  0  0  0  0  0
    6.9502    0.4350    0.0000 C   0  0  0  0  0  0  0  0  0  0  0  0
    7.8523   -0.0858    0.0000 C   0  0  0  0  0  0  0  0  0  0  0  0
    4.8183   -4.0291    0.0000 C   0  0  0  0  0  0  0  0  0  0  0  0
    3.8183   -4.0406    0.0000 C   0  0  0  0  0  0  0  0  0  0  0  0
    8.7045   -1.6374    0.0000 C   0  0  0  0  0  0  0  0  0  0  0  0
    8.7202    0.4109    0.0000 C   0  0  0  0  0  0  0  0  0  0  0  0
    8.7241    1.4109    0.0000 C   0  0  0  0  0  0  0  0  0  0  0  0
    9.5959    2.9075    0.0000 C   0  0  0  0  0  0  0  0  0  0  0  0
   10.4639    3.4042    0.0000 C   0  0  0  0  0  0  0  0  0  0  0  0
   11.3357    4.9008    0.0000 C   0  0  0  0  0  0  0  0  0  0  0  0
    5.2088   -3.4842    0.0000 H   0  0  0  0  0  0  0  0  0  0  0  0
    6.8011   -0.7036    0.0000 H   0  0  0  0  0  0  0  0  0  0  0  0
    7.6671   -2.0649    0.0000 H   0  0  0  0  0  0  0  0  0  0  0  0
    5.6697   -3.6092    0.0000 H   0  0  0  0  0  0  0  0  0  0  0  0
    6.4668   -3.6092    0.0000 H   0  0  0  0  0  0  0  0  0  0  0  0
    4.7129   -0.6298    0.0000 H   0  0  0  0  0  0  0  0  0  0  0  0
    3.9147   -0.6206    0.0000 H   0  0  0  0  0  0  0  0  0  0  0  0
    6.9343   -3.2542    0.0000 H   0  0  0  0  0  0  0  0  0  0  0  0
    5.8342    0.4877    0.0000 H   0  0  0  0  0  0  0  0  0  0  0  0
    5.4431   -0.2082    0.0000 H   0  0  0  0  0  0  0  0  0  0  0  0
    8.3842   -0.8226    0.0000 H   0  0  0  0  0  0  0  0  0  0  0  0
    2.8647   -2.3461    0.0000 H   0  0  0  0  0  0  0  0  0  0  0  0
    3.1932   -1.0297    0.0000 H   0  0  0  0  0  0  0  0  0  0  0  0
    2.7914   -1.7195    0.0000 H   0  0  0  0  0  0  0  0  0  0  0  0
    5.8222   -0.6342    0.0000 H   0  0  0  0  0  0  0  0  0  0  0  0
    5.2022   -0.0142    0.0000 H   0  0  0  0  0  0  0  0  0  0  0  0
    4.5822   -0.6342    0.0000 H   0  0  0  0  0  0  0  0  0  0  0  0
    7.3475    0.9110    0.0000 H   0  0  0  0  0  0  0  0  0  0  0  0
    6.5493    0.9079    0.0000 H   0  0  0  0  0  0  0  0  0  0  0  0
    4.2850   -4.3453    0.0000 H   0  0  0  0  0  0  0  0  0  0  0  0
    5.1344   -4.5624    0.0000 H   0  0  0  0  0  0  0  0  0  0  0  0
    5.3516   -3.7129    0.0000 H   0  0  0  0  0  0  0  0  0  0  0  0
    3.1984   -4.0478    0.0000 H   0  0  0  0  0  0  0  0  0  0  0  0
    8.3883   -2.1707    0.0000 H   0  0  0  0  0  0  0  0  0  0  0  0
    9.2378   -1.9536    0.0000 H   0  0  0  0  0  0  0  0  0  0  0  0
    9.0206   -1.1040    0.0000 H   0  0  0  0  0  0  0  0  0  0  0  0
    7.8003   -3.7542    0.0000 H   0  0  0  0  0  0  0  0  0  0  0  0
    2.0000   -2.8504    0.0000 H   0  0  0  0  0  0  0  0  0  0  0  0
    9.2560    0.0988    0.0000 H   0  0  0  0  0  0  0  0  0  0  0  0
    9.3861    3.4909    0.0000 H   0  0  0  0  0  0  0  0  0  0  0  0
    8.9849    2.8022    0.0000 H   0  0  0  0  0  0  0  0  0  0  0  0
   10.6737    2.8208    0.0000 H   0  0  0  0  0  0  0  0  0  0  0  0
   11.0748    3.5095    0.0000 H   0  0  0  0  0  0  0  0  0  0  0  0
    9.9320    4.7162    0.0000 H   0  0  0  0  0  0  0  0  0  0  0  0
   11.6436    4.3627    0.0000 H   0  0  0  0  0  0  0  0  0  0  0  0
   11.8738    5.2088    0.0000 H   0  0  0  0  0  0  0  0  0  0  0  0
   11.0277    5.4390    0.0000 H   0  0  0  0  0  0  0  0  0  0  0  0
 14  1  1  1  0  0  0
  1 56  1  0  0  0  0
 17  2  1  1  0  0  0
  2 57  1  0  0  0  0
  3 23  2  0  0  0  0
  4 26  1  0  0  0  0
  4 27  1  0  0  0  0
  5 26  2  0  0  0  0
  6 28  1  0  0  0  0
  6 29  1  0  0  0  0
  6 63  1  0  0  0  0
  7  8  1  0  0  0  0
  7  9  1  0  0  0  0
  7 13  1  0  0  0  0
  7 19  1  1  0  0  0
  8 11  1  0  0  0  0
  8 12  1  0  0  0  0
  8 30  1  6  0  0  0
  9 10  1  0  0  0  0
  9 15  1  0  0  0  0
  9 31  1  6  0  0  0
 10 14  1  0  0  0  0
 10 16  1  0  0  0  0
 10 32  1  1  0  0  0
 11 17  1  0  0  0  0
 11 22  1  6  0  0  0
 11 23  1  0  0  0  0
 12 14  1  0  0  0  0
 12 33  1  0  0  0  0
 12 34  1  0  0  0  0
 13 18  1  0  0  0  0
 13 35  1  0  0  0  0
 13 36  1  0  0  0  0
 14 37  1  0  0  0  0
 15 20  1  0  0  0  0
 15 38  1  0  0  0  0
 15 39  1  0  0  0  0
 16 21  1  0  0  0  0
 16 24  1  6  0  0  0
 16 40  1  0  0  0  0
 17 18  1  0  0  0  0
 17 41  1  0  0  0  0
 18 42  1  0  0  0  0
 18 43  1  0  0  0  0
 19 44  1  0  0  0  0
 19 45  1  0  0  0  0
 19 46  1  0  0  0  0
 20 21  1  0  0  0  0
 20 47  1  0  0  0  0
 20 48  1  0  0  0  0
 21 25  2  0  0  0  0
 22 49  1  0  0  0  0
 22 50  1  0  0  0  0
 22 51  1  0  0  0  0
 23 52  1  0  0  0  0
 24 53  1  0  0  0  0
 24 54  1  0  0  0  0
 24 55  1  0  0  0  0
 25 26  1  0  0  0  0
 25 58  1  0  0  0  0
 27 28  1  0  0  0  0
 27 59  1  0  0  0  0
 27 60  1  0  0  0  0
 28 61  1  0  0  0  0
 28 62  1  0  0  0  0
 29 64  1  0  0  0  0
 29 65  1  0  0  0  0
 29 66  1  0  0  0  0
M  END
> <PUBCHEM_COMPOUND_CID>
5281283

> <PUBCHEM_COMPOUND_CANONICALIZED>
1

> <PUBCHEM_CACTVS_COMPLEXITY>
664

> <PUBCHEM_CACTVS_HBOND_ACCEPTOR>
6

> <PUBCHEM_CACTVS_HBOND_DONOR>
3

> <PUBCHEM_CACTVS_ROTATABLE_BOND>
6

> <PUBCHEM_CACTVS_SUBSKEYS>
AAADcfB6OAAAAAAAAAAAAAAAAAAAAAAAAAAwYMAAAAAAAADAAAAAHgAQCAAADxThgAYCCALABgCIAijSiAAAAAAgAAAACIEIAEgCFBYAIQADUAAEsAAYIQOI7PTPgAAAAAAAAADAAAYAADAAAAAAAAAAAA==

> <PUBCHEM_IUPAC_OPENEYE_NAME>
2-(methylamino)ethyl (2E)-2-[(1R,4aS,4bR,7S,8R,8aR,10S,10aS)-8-formyl-7,10-dihydroxy-1,4b,8-trimethyl-3,4,4a,5,6,7,8a,9,10,10a-decahydro-1H-phenanthren-2-ylidene]acetate

> <PUBCHEM_IUPAC_CAS_NAME>
(2E)-2-[(1R,4aS,4bR,7S,8R,8aR,10S,10aS)-8-formyl-7,10-dihydroxy-1,4b,8-trimethyl-3,4,4a,5,6,7,8a,9,10,10a-decahydro-1H-phenanthren-2-ylidene]acetic acid 2-(methylamino)ethyl ester

> <PUBCHEM_IUPAC_NAME>
2-(methylamino)ethyl (2E)-2-[(1R,4aS,4bR,7S,8R,8aR,10S,10aS)-8-formyl-7,10-dihydroxy-1,4b,8-trimethyl-3,4,4a,5,6,7,8a,9,10,10a-decahydro-1H-phenanthren-2-ylidene]acetate

> <PUBCHEM_IUPAC_SYSTEMATIC_NAME>
2-(methylamino)ethyl (2E)-2-[(1R,4aS,4bR,7S,8R,8aR,10S,10aS)-8-methanoyl-1,4b,8-trimethyl-7,10-bis(oxidanyl)-3,4,4a,5,6,7,8a,9,10,10a-decahydro-1H-phenanthren-2-ylidene]ethanoate

> <PUBCHEM_IUPAC_TRADITIONAL_NAME>
(2E)-2-[(1R,4aS,4bR,7S,8R,8aR,10S,10aS)-8-formyl-7,10-dihydroxy-1,4b,8-trimethyl-3,4,4a,5,6,7,8a,9,10,10a-decahydro-1H-phenanthren-2-ylidene]acetic acid 2-(methylamino)ethyl ester

> <PUBCHEM_IUPAC_INCHI>
InChI=1S/C23H37NO5/c1-14-15(11-20(28)29-10-9-24-4)5-6-16-21(14)17(26)12-18-22(16,2)8-7-19(27)23(18,3)13-25/h11,13-14,16-19,21,24,26-27H,5-10,12H2,1-4H3/b15-11+/t14-,16-,17-,18+,19-,21-,22+,23+/m0/s1

> <PUBCHEM_IUPAC_INCHIKEY>
UYLBTGMINJIZAG-PQTOTZOPSA-N

> <PUBCHEM_XLOGP3_AA>
2.1

> <PUBCHEM_EXACT_MASS>
407.267173

> <PUBCHEM_MOLECULAR_FORMULA>
C23H37NO5

> <PUBCHEM_MOLECULAR_WEIGHT>
407.54358

> <PUBCHEM_OPENEYE_CAN_SMILES>
CC1C2C(CCC1=CC(=O)OCCNC)C3(CCC(C(C3CC2O)(C)C=O)O)C

> <PUBCHEM_OPENEYE_ISO_SMILES>
C[C@@H]\1[C@H]2[C@H](CC/C1=C\C(=O)OCCNC)[C@]3(CC[C@@H]([C@]([C@@H]3C[C@@H]2O)(C)C=O)O)C

> <PUBCHEM_CACTVS_TPSA>
95.9

> <PUBCHEM_MONOISOTOPIC_WEIGHT>
407.267173

> <PUBCHEM_TOTAL_CHARGE>
0

> <PUBCHEM_HEAVY_ATOM_COUNT>
29

> <PUBCHEM_ATOM_DEF_STEREO_COUNT>
8

> <PUBCHEM_ATOM_UDEF_STEREO_COUNT>
0

> <PUBCHEM_BOND_DEF_STEREO_COUNT>
1

> <PUBCHEM_BOND_UDEF_STEREO_COUNT>
0

> <PUBCHEM_ISOTOPIC_ATOM_COUNT>
0

> <PUBCHEM_COMPONENT_COUNT>
1

> <PUBCHEM_CACTVS_TAUTO_COUNT>
1

> <PUBCHEM_COORDINATE_TYPE>
1
5
255

> <PUBCHEM_BONDANNOTATIONS>
14  1  5
10  32  5
11  22  6
16  24  6
17  2  5
7  19  5
8  30  6
9  31  6

$$$$

