   Color/Form

     * Liquid
     * WATER WHITE TO AMBER

   from [1]HSDB

   Odor
        Faint, characteristic odor
   from [2]HSDB

   Boiling Point
        160 deg C @ 19 mm Hg
   from [3]HSDB

   Density/Specific Gravity
        0.996 @ 20 deg C/4 deg C
   from [4]HSDB

   Octanol/Water Partition Coefficient
        log Kow = 2.02
   from [5]HSDB

   Solubilities

     * Very soluble in benzene, ethyl ether, and ethanol.
     * Sparingly sol in petroleum ether
     * MISCIBLE WITH ETHANOL, 2-PROPANOL, COTTONSEED OIL, PROPYLENE GLYCOL
     * Solubility in water = >1000 mg/l at room temperature

   from [6]HSDB

   Spectral Properties

     * Index of refraction: 1.5212 @ 20 deg C/D
     * Intense mass spectral peaks: 119 m/z (100%), 190 m/z (46%), 91 m/z
       (41%), 191 m/z (17%)
     * IR: 2:942F (Aldrich Library of Infrared Spectra, Aldrich Chemical
       Co, Milwaukee, WI)
     * MS: NIST 7113 (NIST/EPA/MCDC Mass Spectral Database 1990 version)
     * NMR: 7:74C (Aldrich Library of Mass Spectra, Aldrich Chemical Co,
       Milwaukee, WI)

   from [7]HSDB

   Vapor Pressure
        0.0056 mm Hg at 20 deg C
   from [8]HSDB

   Other Chemical/Physical Properties
        Sensitive to strong acids and alkalies; Technical grade viscosity
   = 13.3 mPa s at 30 deg C and density = 0.996-0.998 at 24 deg C
   from [9]HSDB

   Computed Properties
   Molecular Weight                  191.26948 [g/mol]
   Molecular Formula                 C[12]H[17]NO
   XLogP3                            2
   H-Bond Donor                      0
   H-Bond Acceptor                   1
   Rotatable Bond Count              3
   Exact Mass                        191.131014
   MonoIsotopic Mass                 191.131014
   Topological Polar Surface Area    20.3
   Heavy Atom Count                  14
   Formal Charge                     0
   Complexity                        187
   Isotope Atom Count                0
   Defined Atom Stereocenter Count   0
   Undefined Atom Stereocenter Count 0
   Defined Bond Stereocenter Count   0
   Undefined Bond Stereocenter Count 0
   Covalently-Bonded Unit Count      1
   Feature 3D Acceptor Count         1
   Feature 3D Ring Count             1
   Effective Rotor Count             4
   Conformer Sampling RMSD           0.6
   CID Conformer Count               [10]16

References

   1. http://toxnet.nlm.nih.gov/cgi-bin/sis/search/r?dbs+hsdb:@term+@rn+@rel+134-62-3
   2. http://toxnet.nlm.nih.gov/cgi-bin/sis/search/r?dbs+hsdb:@term+@rn+@rel+134-62-3
   3. http://toxnet.nlm.nih.gov/cgi-bin/sis/search/r?dbs+hsdb:@term+@rn+@rel+134-62-3
   4. http://toxnet.nlm.nih.gov/cgi-bin/sis/search/r?dbs+hsdb:@term+@rn+@rel+134-62-3
   5. http://toxnet.nlm.nih.gov/cgi-bin/sis/search/r?dbs+hsdb:@term+@rn+@rel+134-62-3
   6. http://toxnet.nlm.nih.gov/cgi-bin/sis/search/r?dbs+hsdb:@term+@rn+@rel+134-62-3
   7. http://toxnet.nlm.nih.gov/cgi-bin/sis/search/r?dbs+hsdb:@term+@rn+@rel+134-62-3
   8. http://toxnet.nlm.nih.gov/cgi-bin/sis/search/r?dbs+hsdb:@term+@rn+@rel+134-62-3
   9. http://toxnet.nlm.nih.gov/cgi-bin/sis/search/r?dbs+hsdb:@term+@rn+@rel+134-62-3
  10. http://pubchem.ncbi.nlm.nih.gov/vw3d/vw3d.cgi?cid=4284
