9963391
  -OEChem-07051212502D

104103  0     0  0  0  0  0  0999 V2000
    8.9282   -5.0000    0.0000 C   0  0  0  0  0  0  0  0  0  0  0  0
   18.4545    0.5000    0.0000 C   0  0  0  0  0  0  0  0  0  0  0  0
    8.0622   -5.5000    0.0000 C   0  0  0  0  0  0  0  0  0  0  0  0
   19.3205    1.0000    0.0000 C   0  0  0  0  0  0  0  0  0  0  0  0
    9.7942   -5.5000    0.0000 C   0  0  0  0  0  0  0  0  0  0  0  0
   18.4545   -0.5000    0.0000 C   0  0  0  0  0  0  0  0  0  0  0  0
   11.5263   -5.5000    0.0000 C   0  0  0  0  0  0  0  0  0  0  0  0
   17.5885   -2.0000    0.0000 C   0  0  0  0  0  0  0  0  0  0  0  0
    6.3301   -5.5000    0.0000 C   0  0  0  0  0  0  0  0  0  0  0  0
   20.1865    2.5000    0.0000 C   0  0  0  0  0  0  0  0  0  0  0  0
    5.4641   -5.0000    0.0000 C   0  0  0  0  0  0  0  0  0  0  0  0
   20.1865    3.5000    0.0000 C   0  0  0  0  0  0  0  0  0  0  0  0
    7.1962   -5.0000    0.0000 C   0  0  0  0  0  0  0  0  0  0  0  0
   19.3205    2.0000    0.0000 C   0  0  0  0  0  0  0  0  0  0  0  0
   17.5885   -1.0000    0.0000 C   0  0  0  0  0  0  0  0  0  0  0  0
   10.6603   -5.0000    0.0000 C   0  0  0  0  0  0  0  0  0  0  0  0
   12.3923   -5.0000    0.0000 C   0  0  0  0  0  0  0  0  0  0  0  0
   16.7224   -2.5000    0.0000 C   0  0  0  0  0  0  0  0  0  0  0  0
    4.5981   -5.5000    0.0000 C   0  0  0  0  0  0  0  0  0  0  0  0
   21.0526    4.0000    0.0000 C   0  0  0  0  0  0  0  0  0  0  0  0
   19.3205   -1.0000    0.0000 C   0  0  0  0  0  0  0  0  0  0  0  0
    9.7942   -6.5000    0.0000 C   0  0  0  0  0  0  0  0  0  0  0  0
   13.2583   -5.5000    0.0000 C   0  0  0  0  0  0  0  0  0  0  0  0
   16.7224   -3.5000    0.0000 C   0  0  0  0  0  0  0  0  0  0  0  0
   21.0526    2.0000    0.0000 C   0  0  0  0  0  0  0  0  0  0  0  0
    6.3301   -6.5000    0.0000 C   0  0  0  0  0  0  0  0  0  0  0  0
   21.0526    5.0000    0.0000 C   0  0  0  0  0  0  0  0  0  0  0  0
    3.7320   -5.0000    0.0000 C   0  0  0  0  0  0  0  0  0  0  0  0
   15.8564   -4.0000    0.0000 C   0  0  0  0  0  0  0  0  0  0  0  0
   14.1244   -5.0000    0.0000 C   0  0  0  0  0  0  0  0  0  0  0  0
   13.2583   -6.5000    0.0000 C   0  0  0  0  0  0  0  0  0  0  0  0
   17.5885   -4.0000    0.0000 C   0  0  0  0  0  0  0  0  0  0  0  0
   21.9186    5.5000    0.0000 C   0  0  0  0  0  0  0  0  0  0  0  0
    2.8660   -5.5000    0.0000 C   0  0  0  0  0  0  0  0  0  0  0  0
   14.9904   -5.5000    0.0000 C   0  0  0  0  0  0  0  0  0  0  0  0
   15.8564   -5.0000    0.0000 C   0  0  0  0  0  0  0  0  0  0  0  0
   21.9186    6.5000    0.0000 C   0  0  0  0  0  0  0  0  0  0  0  0
   22.7846    5.0000    0.0000 C   0  0  0  0  0  0  0  0  0  0  0  0
    2.0000   -5.0000    0.0000 C   0  0  0  0  0  0  0  0  0  0  0  0
    2.8660   -6.5000    0.0000 C   0  0  0  0  0  0  0  0  0  0  0  0
    9.3267   -4.5250    0.0000 H   0  0  0  0  0  0  0  0  0  0  0  0
    8.5297   -4.5250    0.0000 H   0  0  0  0  0  0  0  0  0  0  0  0
   18.2424    1.0826    0.0000 H   0  0  0  0  0  0  0  0  0  0  0  0
   17.8439    0.3923    0.0000 H   0  0  0  0  0  0  0  0  0  0  0  0
   19.5326    0.4174    0.0000 H   0  0  0  0  0  0  0  0  0  0  0  0
   19.9311    1.1077    0.0000 H   0  0  0  0  0  0  0  0  0  0  0  0
    7.6636   -5.9750    0.0000 H   0  0  0  0  0  0  0  0  0  0  0  0
    8.4607   -5.9750    0.0000 H   0  0  0  0  0  0  0  0  0  0  0  0
   11.1278   -5.9750    0.0000 H   0  0  0  0  0  0  0  0  0  0  0  0
   11.9248   -5.9750    0.0000 H   0  0  0  0  0  0  0  0  0  0  0  0
   17.8005   -2.5826    0.0000 H   0  0  0  0  0  0  0  0  0  0  0  0
   18.1990   -1.8923    0.0000 H   0  0  0  0  0  0  0  0  0  0  0  0
   19.9745    4.0826    0.0000 H   0  0  0  0  0  0  0  0  0  0  0  0
   19.5760    3.3923    0.0000 H   0  0  0  0  0  0  0  0  0  0  0  0
    5.8626   -4.5250    0.0000 H   0  0  0  0  0  0  0  0  0  0  0  0
    5.0656   -4.5250    0.0000 H   0  0  0  0  0  0  0  0  0  0  0  0
    7.1962   -4.3800    0.0000 H   0  0  0  0  0  0  0  0  0  0  0  0
   18.7836    2.3100    0.0000 H   0  0  0  0  0  0  0  0  0  0  0  0
   10.6603   -4.3800    0.0000 H   0  0  0  0  0  0  0  0  0  0  0  0
   17.0515   -0.6900    0.0000 H   0  0  0  0  0  0  0  0  0  0  0  0
   12.7908   -4.5250    0.0000 H   0  0  0  0  0  0  0  0  0  0  0  0
   11.9938   -4.5250    0.0000 H   0  0  0  0  0  0  0  0  0  0  0  0
   16.5104   -1.9174    0.0000 H   0  0  0  0  0  0  0  0  0  0  0  0
   16.1119   -2.6077    0.0000 H   0  0  0  0  0  0  0  0  0  0  0  0
   21.2646    3.4174    0.0000 H   0  0  0  0  0  0  0  0  0  0  0  0
   21.6631    4.1077    0.0000 H   0  0  0  0  0  0  0  0  0  0  0  0
    4.1996   -5.9750    0.0000 H   0  0  0  0  0  0  0  0  0  0  0  0
    4.9966   -5.9750    0.0000 H   0  0  0  0  0  0  0  0  0  0  0  0
    9.1742   -6.5000    0.0000 H   0  0  0  0  0  0  0  0  0  0  0  0
   19.0105   -1.5369    0.0000 H   0  0  0  0  0  0  0  0  0  0  0  0
   19.8574   -1.3100    0.0000 H   0  0  0  0  0  0  0  0  0  0  0  0
   19.6305   -0.4631    0.0000 H   0  0  0  0  0  0  0  0  0  0  0  0
    9.7942   -7.1200    0.0000 H   0  0  0  0  0  0  0  0  0  0  0  0
   10.4142   -6.5000    0.0000 H   0  0  0  0  0  0  0  0  0  0  0  0
    5.7101   -6.5000    0.0000 H   0  0  0  0  0  0  0  0  0  0  0  0
    6.3301   -7.1200    0.0000 H   0  0  0  0  0  0  0  0  0  0  0  0
    6.9501   -6.5000    0.0000 H   0  0  0  0  0  0  0  0  0  0  0  0
   20.7426    1.4631    0.0000 H   0  0  0  0  0  0  0  0  0  0  0  0
   21.5895    1.6900    0.0000 H   0  0  0  0  0  0  0  0  0  0  0  0
   21.3626    2.5369    0.0000 H   0  0  0  0  0  0  0  0  0  0  0  0
   20.5156    5.3100    0.0000 H   0  0  0  0  0  0  0  0  0  0  0  0
    3.7320   -4.3800    0.0000 H   0  0  0  0  0  0  0  0  0  0  0  0
   15.3195   -3.6900    0.0000 H   0  0  0  0  0  0  0  0  0  0  0  0
   14.1244   -4.3800    0.0000 H   0  0  0  0  0  0  0  0  0  0  0  0
   17.2785   -4.5369    0.0000 H   0  0  0  0  0  0  0  0  0  0  0  0
   18.1254   -4.3100    0.0000 H   0  0  0  0  0  0  0  0  0  0  0  0
   17.8985   -3.4631    0.0000 H   0  0  0  0  0  0  0  0  0  0  0  0
   12.6383   -6.5000    0.0000 H   0  0  0  0  0  0  0  0  0  0  0  0
   13.2583   -7.1200    0.0000 H   0  0  0  0  0  0  0  0  0  0  0  0
   13.8783   -6.5000    0.0000 H   0  0  0  0  0  0  0  0  0  0  0  0
   14.9904   -6.1200    0.0000 H   0  0  0  0  0  0  0  0  0  0  0  0
   16.3933   -5.3100    0.0000 H   0  0  0  0  0  0  0  0  0  0  0  0
   22.5386    6.5000    0.0000 H   0  0  0  0  0  0  0  0  0  0  0  0
   21.9186    7.1200    0.0000 H   0  0  0  0  0  0  0  0  0  0  0  0
   21.2986    6.5000    0.0000 H   0  0  0  0  0  0  0  0  0  0  0  0
   22.4746    4.4631    0.0000 H   0  0  0  0  0  0  0  0  0  0  0  0
   23.3215    4.6900    0.0000 H   0  0  0  0  0  0  0  0  0  0  0  0
   23.0946    5.5369    0.0000 H   0  0  0  0  0  0  0  0  0  0  0  0
    2.3100   -4.4631    0.0000 H   0  0  0  0  0  0  0  0  0  0  0  0
    1.4631   -4.6900    0.0000 H   0  0  0  0  0  0  0  0  0  0  0  0
    1.6900   -5.5369    0.0000 H   0  0  0  0  0  0  0  0  0  0  0  0
    2.2460   -6.5000    0.0000 H   0  0  0  0  0  0  0  0  0  0  0  0
    2.8660   -7.1200    0.0000 H   0  0  0  0  0  0  0  0  0  0  0  0
    3.4860   -6.5000    0.0000 H   0  0  0  0  0  0  0  0  0  0  0  0
  1  3  1  0  0  0  0
  1  5  1  0  0  0  0
  1 41  1  0  0  0  0
  1 42  1  0  0  0  0
  2  4  1  0  0  0  0
  2  6  1  0  0  0  0
  2 43  1  0  0  0  0
  2 44  1  0  0  0  0
  3 13  1  0  0  0  0
  3 47  1  0  0  0  0
  3 48  1  0  0  0  0
  4 14  1  0  0  0  0
  4 45  1  0  0  0  0
  4 46  1  0  0  0  0
  5 16  2  0  0  0  0
  5 22  1  0  0  0  0
  6 15  2  0  0  0  0
  6 21  1  0  0  0  0
  7 16  1  0  0  0  0
  7 17  1  0  0  0  0
  7 49  1  0  0  0  0
  7 50  1  0  0  0  0
  8 15  1  0  0  0  0
  8 18  1  0  0  0  0
  8 51  1  0  0  0  0
  8 52  1  0  0  0  0
  9 11  1  0  0  0  0
  9 13  2  0  0  0  0
  9 26  1  0  0  0  0
 10 12  1  0  0  0  0
 10 14  2  0  0  0  0
 10 25  1  0  0  0  0
 11 19  1  0  0  0  0
 11 55  1  0  0  0  0
 11 56  1  0  0  0  0
 12 20  1  0  0  0  0
 12 53  1  0  0  0  0
 12 54  1  0  0  0  0
 13 57  1  0  0  0  0
 14 58  1  0  0  0  0
 15 60  1  0  0  0  0
 16 59  1  0  0  0  0
 17 23  1  0  0  0  0
 17 61  1  0  0  0  0
 17 62  1  0  0  0  0
 18 24  1  0  0  0  0
 18 63  1  0  0  0  0
 18 64  1  0  0  0  0
 19 28  1  0  0  0  0
 19 67  1  0  0  0  0
 19 68  1  0  0  0  0
 20 27  1  0  0  0  0
 20 65  1  0  0  0  0
 20 66  1  0  0  0  0
 21 70  1  0  0  0  0
 21 71  1  0  0  0  0
 21 72  1  0  0  0  0
 22 69  1  0  0  0  0
 22 73  1  0  0  0  0
 22 74  1  0  0  0  0
 23 30  2  0  0  0  0
 23 31  1  0  0  0  0
 24 29  2  0  0  0  0
 24 32  1  0  0  0  0
 25 78  1  0  0  0  0
 25 79  1  0  0  0  0
 25 80  1  0  0  0  0
 26 75  1  0  0  0  0
 26 76  1  0  0  0  0
 26 77  1  0  0  0  0
 27 33  2  0  0  0  0
 27 81  1  0  0  0  0
 28 34  2  0  0  0  0
 28 82  1  0  0  0  0
 29 36  1  0  0  0  0
 29 83  1  0  0  0  0
 30 35  1  0  0  0  0
 30 84  1  0  0  0  0
 31 88  1  0  0  0  0
 31 89  1  0  0  0  0
 31 90  1  0  0  0  0
 32 85  1  0  0  0  0
 32 86  1  0  0  0  0
 32 87  1  0  0  0  0
 33 37  1  0  0  0  0
 33 38  1  0  0  0  0
 34 39  1  0  0  0  0
 34 40  1  0  0  0  0
 35 36  2  0  0  0  0
 35 91  1  0  0  0  0
 36 92  1  0  0  0  0
 37 93  1  0  0  0  0
 37 94  1  0  0  0  0
 37 95  1  0  0  0  0
 38 96  1  0  0  0  0
 38 97  1  0  0  0  0
 38 98  1  0  0  0  0
 39 99  1  0  0  0  0
 39100  1  0  0  0  0
 39101  1  0  0  0  0
 40102  1  0  0  0  0
 40103  1  0  0  0  0
 40104  1  0  0  0  0
M  END
> <PUBCHEM_COMPOUND_CID>
9963391

> <PUBCHEM_COMPOUND_CANONICALIZED>
1

> <PUBCHEM_CACTVS_COMPLEXITY>
887

> <PUBCHEM_CACTVS_HBOND_ACCEPTOR>
0

> <PUBCHEM_CACTVS_HBOND_DONOR>
0

> <PUBCHEM_CACTVS_ROTATABLE_BOND>
20

> <PUBCHEM_CACTVS_SUBSKEYS>
AAADcfB8AAAAAAAAAAAAAAAAAAAAAAAAAAAAAAAAAAAAAAAAAAAAGAAAAAAADACAAAACAAAAAACAAiBCAAAAAAAgAAAICAAAAAgIAAIAAQAAAAAAgAAIgAIAAAAAAAAAAAAAAAAAAAAAAAAAAAAAAAAAAA==

> <PUBCHEM_IUPAC_OPENEYE_NAME>
(6E,10E,14E,16Z,18E,22E,26E)-2,6,10,14,19,23,27,31-octamethyldotriaconta-2,6,10,14,16,18,22,26,30-nonaene

> <PUBCHEM_IUPAC_CAS_NAME>
(6E,10E,14E,16Z,18E,22E,26E)-2,6,10,14,19,23,27,31-octamethyldotriaconta-2,6,10,14,16,18,22,26,30-nonaene

> <PUBCHEM_IUPAC_NAME>
(6E,10E,14E,16Z,18E,22E,26E)-2,6,10,14,19,23,27,31-octamethyldotriaconta-2,6,10,14,16,18,22,26,30-nonaene

> <PUBCHEM_IUPAC_SYSTEMATIC_NAME>
(6E,10E,14E,16Z,18E,22E,26E)-2,6,10,14,19,23,27,31-octamethyldotriaconta-2,6,10,14,16,18,22,26,30-nonaene

> <PUBCHEM_IUPAC_TRADITIONAL_NAME>
(6E,10E,14E,16Z,18E,22E,26E)-2,6,10,14,19,23,27,31-octamethyldotriaconta-2,6,10,14,16,18,22,26,30-nonaene

> <PUBCHEM_IUPAC_INCHI>
InChI=1S/C40H64/c1-33(2)19-13-23-37(7)27-17-31-39(9)29-15-25-35(5)21-11-12-22-36(6)26-16-30-40(10)32-18-28-38(8)24-14-20-34(3)4/h11-12,19-22,27-30H,13-18,23-26,31-32H2,1-10H3/b12-11-,35-21+,36-22+,37-27+,38-28+,39-29+,40-30+

> <PUBCHEM_IUPAC_INCHIKEY>
YVLPJIGOMTXXLP-BHLJUDRVSA-N

> <PUBCHEM_XLOGP3_AA>
15.3

> <PUBCHEM_EXACT_MASS>
544.500802

> <PUBCHEM_MOLECULAR_FORMULA>
C40H64

> <PUBCHEM_MOLECULAR_WEIGHT>
544.93616

> <PUBCHEM_OPENEYE_CAN_SMILES>
CC(=CCCC(=CCCC(=CCCC(=CC=CC=C(C)CCC=C(C)CCC=C(C)CCC=C(C)C)C)C)C)C

> <PUBCHEM_OPENEYE_ISO_SMILES>
CC(=CCC/C(=C/CC/C(=C/CC/C(=C/C=C\C=C(\CC/C=C(/CC/C=C(/CCC=C(C)C)\C)\C)/C)/C)/C)/C)C

> <PUBCHEM_CACTVS_TPSA>
0

> <PUBCHEM_MONOISOTOPIC_WEIGHT>
544.500802

> <PUBCHEM_TOTAL_CHARGE>
0

> <PUBCHEM_HEAVY_ATOM_COUNT>
40

> <PUBCHEM_ATOM_DEF_STEREO_COUNT>
0

> <PUBCHEM_ATOM_UDEF_STEREO_COUNT>
0

> <PUBCHEM_BOND_DEF_STEREO_COUNT>
7

> <PUBCHEM_BOND_UDEF_STEREO_COUNT>
0

> <PUBCHEM_ISOTOPIC_ATOM_COUNT>
0

> <PUBCHEM_COMPONENT_COUNT>
1

> <PUBCHEM_CACTVS_TAUTO_COUNT>
1

> <PUBCHEM_COORDINATE_TYPE>
1
5
255

$$$$

