583012
  -OEChem-06241222442D

 40 42  0     0  0  0  0  0  0999 V2000
    4.5981   -1.4715    0.0000 O   0  0  0  0  0  0  0  0  0  0  0  0
    2.8660   -1.4715    0.0000 N   0  0  0  0  0  0  0  0  0  0  0  0
    4.5981    0.5285    0.0000 N   0  0  0  0  0  0  0  0  0  0  0  0
    4.7026    1.5230    0.0000 N   0  0  0  0  0  0  0  0  0  0  0  0
    5.5116    0.1217    0.0000 N   0  0  0  0  0  0  0  0  0  0  0  0
    6.1808    0.8649    0.0000 N   0  0  0  0  0  0  0  0  0  0  0  0
    2.0000   -0.9715    0.0000 C   0  0  0  0  0  0  0  0  0  0  0  0
    2.8660   -2.4715    0.0000 C   0  0  0  0  0  0  0  0  0  0  0  0
    3.7320   -0.9715    0.0000 C   0  0  0  0  0  0  0  0  0  0  0  0
    3.7320    0.0285    0.0000 C   0  0  0  0  0  0  0  0  0  0  0  0
    2.0000    0.0285    0.0000 C   0  0  0  0  0  0  0  0  0  0  0  0
    2.0000   -2.9715    0.0000 C   0  0  0  0  0  0  0  0  0  0  0  0
    3.7320   -2.9715    0.0000 C   0  0  0  0  0  0  0  0  0  0  0  0
    5.6808    1.7309    0.0000 C   0  0  0  0  0  0  0  0  0  0  0  0
    2.0000   -3.9715    0.0000 C   0  0  0  0  0  0  0  0  0  0  0  0
    3.7320   -3.9715    0.0000 C   0  0  0  0  0  0  0  0  0  0  0  0
    6.0875    2.6444    0.0000 C   0  0  0  0  0  0  0  0  0  0  0  0
    2.8660   -4.4715    0.0000 C   0  0  0  0  0  0  0  0  0  0  0  0
    7.0820    2.7490    0.0000 C   0  0  0  0  0  0  0  0  0  0  0  0
    5.4997    3.4535    0.0000 C   0  0  0  0  0  0  0  0  0  0  0  0
    7.4888    3.6625    0.0000 C   0  0  0  0  0  0  0  0  0  0  0  0
    5.9064    4.3670    0.0000 C   0  0  0  0  0  0  0  0  0  0  0  0
    6.9010    4.4715    0.0000 C   0  0  0  0  0  0  0  0  0  0  0  0
    1.3894   -0.8639    0.0000 H   0  0  0  0  0  0  0  0  0  0  0  0
    1.7880   -1.5541    0.0000 H   0  0  0  0  0  0  0  0  0  0  0  0
    3.5200    0.6111    0.0000 H   0  0  0  0  0  0  0  0  0  0  0  0
    3.1215   -0.0792    0.0000 H   0  0  0  0  0  0  0  0  0  0  0  0
    2.6200    0.0285    0.0000 H   0  0  0  0  0  0  0  0  0  0  0  0
    2.0000    0.6485    0.0000 H   0  0  0  0  0  0  0  0  0  0  0  0
    1.3800    0.0285    0.0000 H   0  0  0  0  0  0  0  0  0  0  0  0
    1.4631   -2.6615    0.0000 H   0  0  0  0  0  0  0  0  0  0  0  0
    4.2690   -2.6615    0.0000 H   0  0  0  0  0  0  0  0  0  0  0  0
    1.4631   -4.2815    0.0000 H   0  0  0  0  0  0  0  0  0  0  0  0
    4.2690   -4.2815    0.0000 H   0  0  0  0  0  0  0  0  0  0  0  0
    2.8660   -5.0915    0.0000 H   0  0  0  0  0  0  0  0  0  0  0  0
    7.4464    2.2474    0.0000 H   0  0  0  0  0  0  0  0  0  0  0  0
    4.8831    3.3886    0.0000 H   0  0  0  0  0  0  0  0  0  0  0  0
    8.1054    3.7273    0.0000 H   0  0  0  0  0  0  0  0  0  0  0  0
    5.5420    4.8686    0.0000 H   0  0  0  0  0  0  0  0  0  0  0  0
    7.1531    5.0379    0.0000 H   0  0  0  0  0  0  0  0  0  0  0  0
  1  9  2  0  0  0  0
  2  7  1  0  0  0  0
  2  8  1  0  0  0  0
  2  9  1  0  0  0  0
  3  4  1  0  0  0  0
  3  5  1  0  0  0  0
  3 10  1  0  0  0  0
  4 14  2  0  0  0  0
  5  6  2  0  0  0  0
  6 14  1  0  0  0  0
  7 11  1  0  0  0  0
  7 24  1  0  0  0  0
  7 25  1  0  0  0  0
  8 12  2  0  0  0  0
  8 13  1  0  0  0  0
  9 10  1  0  0  0  0
 10 26  1  0  0  0  0
 10 27  1  0  0  0  0
 11 28  1  0  0  0  0
 11 29  1  0  0  0  0
 11 30  1  0  0  0  0
 12 15  1  0  0  0  0
 12 31  1  0  0  0  0
 13 16  2  0  0  0  0
 13 32  1  0  0  0  0
 14 17  1  0  0  0  0
 15 18  2  0  0  0  0
 15 33  1  0  0  0  0
 16 18  1  0  0  0  0
 16 34  1  0  0  0  0
 17 19  2  0  0  0  0
 17 20  1  0  0  0  0
 18 35  1  0  0  0  0
 19 21  1  0  0  0  0
 19 36  1  0  0  0  0
 20 22  2  0  0  0  0
 20 37  1  0  0  0  0
 21 23  2  0  0  0  0
 21 38  1  0  0  0  0
 22 23  1  0  0  0  0
 22 39  1  0  0  0  0
 23 40  1  0  0  0  0
M  END
> <PUBCHEM_COMPOUND_CID>
583012

> <PUBCHEM_COMPOUND_CANONICALIZED>
1

> <PUBCHEM_CACTVS_COMPLEXITY>
379

> <PUBCHEM_CACTVS_HBOND_ACCEPTOR>
4

> <PUBCHEM_CACTVS_HBOND_DONOR>
0

> <PUBCHEM_CACTVS_ROTATABLE_BOND>
5

> <PUBCHEM_CACTVS_SUBSKEYS>
AAADceB7oAAAAAAAAAAAAAAAAAAAAWAAAAAwYAAAAAAAAAAB0AAAHgAIAAAADAjBmwQz0IcAAACqAidycACSAAIhggAciCCoZJgIYKLAkZGUIAhgjgDIyAcQgAAOAAAAAAAAAAAAAAAAAAAAAAAAAAAAAA==

> <PUBCHEM_IUPAC_OPENEYE_NAME>
N-ethyl-N-phenyl-2-(5-phenyltetrazol-2-yl)acetamide

> <PUBCHEM_IUPAC_CAS_NAME>
N-ethyl-N-phenyl-2-(5-phenyl-2-tetrazolyl)acetamide

> <PUBCHEM_IUPAC_NAME>
N-ethyl-N-phenyl-2-(5-phenyltetrazol-2-yl)acetamide

> <PUBCHEM_IUPAC_SYSTEMATIC_NAME>
N-ethyl-N-phenyl-2-(5-phenyl-1,2,3,4-tetrazol-2-yl)ethanamide

> <PUBCHEM_IUPAC_TRADITIONAL_NAME>
N-ethyl-N-phenyl-2-(5-phenyltetrazol-2-yl)acetamide

> <PUBCHEM_IUPAC_INCHI>
InChI=1S/C17H17N5O/c1-2-21(15-11-7-4-8-12-15)16(23)13-22-19-17(18-20-22)14-9-5-3-6-10-14/h3-12H,2,13H2,1H3

> <PUBCHEM_IUPAC_INCHIKEY>
QEHCXNWMBYILPT-UHFFFAOYSA-N

> <PUBCHEM_XLOGP3_AA>
3.3

> <PUBCHEM_EXACT_MASS>
307.14331

> <PUBCHEM_MOLECULAR_FORMULA>
C17H17N5O

> <PUBCHEM_MOLECULAR_WEIGHT>
307.34978

> <PUBCHEM_OPENEYE_CAN_SMILES>
CCN(C1=CC=CC=C1)C(=O)CN2N=C(N=N2)C3=CC=CC=C3

> <PUBCHEM_OPENEYE_ISO_SMILES>
CCN(C1=CC=CC=C1)C(=O)CN2N=C(N=N2)C3=CC=CC=C3

> <PUBCHEM_CACTVS_TPSA>
63.9

> <PUBCHEM_MONOISOTOPIC_WEIGHT>
307.14331

> <PUBCHEM_TOTAL_CHARGE>
0

> <PUBCHEM_HEAVY_ATOM_COUNT>
23

> <PUBCHEM_ATOM_DEF_STEREO_COUNT>
0

> <PUBCHEM_ATOM_UDEF_STEREO_COUNT>
0

> <PUBCHEM_BOND_DEF_STEREO_COUNT>
0

> <PUBCHEM_BOND_UDEF_STEREO_COUNT>
0

> <PUBCHEM_ISOTOPIC_ATOM_COUNT>
0

> <PUBCHEM_COMPONENT_COUNT>
1

> <PUBCHEM_CACTVS_TAUTO_COUNT>
1

> <PUBCHEM_COORDINATE_TYPE>
1
5
255

> <PUBCHEM_BONDANNOTATIONS>
12  15  8
13  16  8
15  18  8
16  18  8
17  19  8
17  20  8
19  21  8
20  22  8
21  23  8
22  23  8
3  4  8
3  5  8
4  14  8
5  6  8
6  14  8
8  12  8
8  13  8

$$$$

