   Color/Form
        Colorless oily liquid
   from [1]HSDB

   Odor

     * Essentially odorless
     * Faint, onion-like odor

   from [2]HSDB

   Boiling Point
        About 188 deg C with decomposition
   from [3]HSDB

   Melting Point
        -27 deg C
   from [4]HSDB

   Corrosivity
        Corrosive
   from [5]HSDB

   Density/Specific Gravity
        1.3322 g/cu cm at 20 deg C/4 deg C
   from [6]HSDB

   Heat of Combustion
        11,970 J/g at constant pressure (25 deg C, CO@, H2), H2SO4
   (aqueous)
   from [7]HSDB

   Heat of Vaporization
        385 J/g at 25 deg C
   from [8]HSDB

   Octanol/Water Partition Coefficient
        log Kow = 0.16 (est)
   from [9]HSDB

   Solubilities

     * Sol in ether, dioxane, acetone, aromatic hydrocarbons.
     * Sparingly sol in carbon disulfide, aliphatic hydrocarbons.
     * Miscible in ethanol; soluble in ethyl ether, carbon tetrachloride
       and benzene; insoluble in carbon disulfide
     * Solubility in water 2.8 g/100 ml at 18 deg C. Hydrolysis is rapid
       at or above this temperature.
     * In water, 2,8X10+4 mg/L at 18 deg C

   from [10]HSDB

   Spectral Properties

     * MAX ABSORPTION (UNDILUTED): 265 NM; SADTLER REF NUMBER: 15332 (IR,
       PRISM)
     * Index of refraction: 1.3874 at 20 deg C/D
     * MASS: 2587 (NIST/EPA/MSDC Mass Spectral database, 1990 version)
     * UV: HBCP 265 undil
     * 1H NMR: 9164 (Sadtler Research Laboratories spectral collection)
     * IR: 15253 (Sadtler Research Laboratories IR Grating Collection)

   from [11]HSDB

   Surface Tension
        40.12 DYNES/CM AT 18 DEG C in contact with air
   from [12]HSDB

   Vapor Density
        4.35 (Air = 1)
   from [13]HSDB

   Vapor Pressure
        0.677 mm Hg at 25 deg C
   from [14]HSDB

   Other Chemical/Physical Properties

     * Heat of formation: 736 kJ/mol at 25 deg C (liquid)
     * VAPORIZES AT 50 DEG C
     * BP: 76 deg C at 15 mm Hg
     * SOLIDIFIES AT -27 DEG C
     * LIQUID-WATER INTERFACIAL TENSION: (EST) 20 DYNES/CM= 0.02 N/M AT 20
       DEG C
     * Hydrolysis reaction rate constant = 1.7X10-4/sec at 25 deg C and pH
       = 7 (half-life = 1.15 hours)
     * Decomposed by water to give sulfuric acid with evolution of heat.
     * Initial hydrolytic products are monomethyl sulfate and methanol.
     * Henry's Law constant = 4.0X10-6 atm-cu m/mol at 25 deg C (est)
     * Hydroxyl radical reaction rate constant = 5.0X10-13 cu cm/molec-sec
       at 25 deg C

   from [15]HSDB

   Computed Properties
   Molecular Weight                  126.13164 [g/mol]
   Molecular Formula                 C[2]H[6]O[4]S
   XLogP3-AA                         -0.3
   H-Bond Donor                      0
   H-Bond Acceptor                   4
   Rotatable Bond Count              2
   Exact Mass                        125.99868
   MonoIsotopic Mass                 125.99868
   Topological Polar Surface Area    61
   Heavy Atom Count                  7
   Formal Charge                     0
   Complexity                        107
   Isotope Atom Count                0
   Defined Atom Stereocenter Count   0
   Undefined Atom Stereocenter Count 0
   Defined Bond Stereocenter Count   0
   Undefined Bond Stereocenter Count 0
   Covalently-Bonded Unit Count      1
   Feature 3D Acceptor Count         2
   Effective Rotor Count             2
   Conformer Sampling RMSD           0.4
   CID Conformer Count               [16]6

References

   1. http://toxnet.nlm.nih.gov/cgi-bin/sis/search/r?dbs+hsdb:@term+@rn+@rel+77-78-1
   2. http://toxnet.nlm.nih.gov/cgi-bin/sis/search/r?dbs+hsdb:@term+@rn+@rel+77-78-1
   3. http://toxnet.nlm.nih.gov/cgi-bin/sis/search/r?dbs+hsdb:@term+@rn+@rel+77-78-1
   4. http://toxnet.nlm.nih.gov/cgi-bin/sis/search/r?dbs+hsdb:@term+@rn+@rel+77-78-1
   5. http://toxnet.nlm.nih.gov/cgi-bin/sis/search/r?dbs+hsdb:@term+@rn+@rel+77-78-1
   6. http://toxnet.nlm.nih.gov/cgi-bin/sis/search/r?dbs+hsdb:@term+@rn+@rel+77-78-1
   7. http://toxnet.nlm.nih.gov/cgi-bin/sis/search/r?dbs+hsdb:@term+@rn+@rel+77-78-1
   8. http://toxnet.nlm.nih.gov/cgi-bin/sis/search/r?dbs+hsdb:@term+@rn+@rel+77-78-1
   9. http://toxnet.nlm.nih.gov/cgi-bin/sis/search/r?dbs+hsdb:@term+@rn+@rel+77-78-1
  10. http://toxnet.nlm.nih.gov/cgi-bin/sis/search/r?dbs+hsdb:@term+@rn+@rel+77-78-1
  11. http://toxnet.nlm.nih.gov/cgi-bin/sis/search/r?dbs+hsdb:@term+@rn+@rel+77-78-1
  12. http://toxnet.nlm.nih.gov/cgi-bin/sis/search/r?dbs+hsdb:@term+@rn+@rel+77-78-1
  13. http://toxnet.nlm.nih.gov/cgi-bin/sis/search/r?dbs+hsdb:@term+@rn+@rel+77-78-1
  14. http://toxnet.nlm.nih.gov/cgi-bin/sis/search/r?dbs+hsdb:@term+@rn+@rel+77-78-1
  15. http://toxnet.nlm.nih.gov/cgi-bin/sis/search/r?dbs+hsdb:@term+@rn+@rel+77-78-1
  16. http://pubchem.ncbi.nlm.nih.gov/vw3d/vw3d.cgi?cid=6497
