   Melting Point
        198 deg C
   from [1]HSDB

   Octanol/Water Partition Coefficient
        log Kow = -0.27 @ 25 deg C /Estimated/
   from [2]HSDB

   Solubilities

     * Readily soluble in ethyl acetate and chloroform; less soluble in
       water, ethanol, acetone and benzene
     * In water, 8.6X10+4 mg/L @ 25 deg C /Estimated/

   from [3]HSDB

   Spectral Properties
        Specific optical rotation: -6.2 deg @ 15 dec C/D (in chloroform);
   max absorption: 215 nm (epsilon= 286)
   from [4]HSDB

   Vapor Pressure
        3X10-14 mm Hg @ 25 deg C /Estimated/
   from [5]HSDB

   Other Chemical/Physical Properties

     * Readily hydrolyzed with alkali
     * Henry's Law constant = 1.6X10-13 atm-cu m/mol @ 25 deg C
       /Estimated/
     * Hydroxyl radical reaction rate constant = 2.2X10-10 cu cm/molec-sec
       @ 25 deg C /Estimated/

   from [6]HSDB

   Computed Properties
   Molecular Weight                  365.42078 [g/mol]
   Molecular Formula                 C[19]H[27]NO[6]
   XLogP3-AA                         1.4
   H-Bond Donor                      1
   H-Bond Acceptor                   7
   Rotatable Bond Count              0
   Exact Mass                        365.183838
   MonoIsotopic Mass                 365.183838
   Topological Polar Surface Area    93.1
   Heavy Atom Count                  26
   Formal Charge                     0
   Complexity                        652
   Isotope Atom Count                0
   Defined Atom Stereocenter Count   3
   Undefined Atom Stereocenter Count 0
   Defined Bond Stereocenter Count   2
   Undefined Bond Stereocenter Count 0
   Covalently-Bonded Unit Count      1
   Feature 3D Acceptor Count         4
   Feature 3D Donor Count            1
   Feature 3D Cation Count           1
   Feature 3D Hydrophobe Count       1
   Effective Rotor Count             2
   Conformer Sampling RMSD           0.6
   CID Conformer Count               [7]1

References

   1. http://toxnet.nlm.nih.gov/cgi-bin/sis/search/r?dbs+hsdb:@term+@rn+@rel+2318-18-5
   2. http://toxnet.nlm.nih.gov/cgi-bin/sis/search/r?dbs+hsdb:@term+@rn+@rel+2318-18-5
   3. http://toxnet.nlm.nih.gov/cgi-bin/sis/search/r?dbs+hsdb:@term+@rn+@rel+2318-18-5
   4. http://toxnet.nlm.nih.gov/cgi-bin/sis/search/r?dbs+hsdb:@term+@rn+@rel+2318-18-5
   5. http://toxnet.nlm.nih.gov/cgi-bin/sis/search/r?dbs+hsdb:@term+@rn+@rel+2318-18-5
   6. http://toxnet.nlm.nih.gov/cgi-bin/sis/search/r?dbs+hsdb:@term+@rn+@rel+2318-18-5
   7. http://pubchem.ncbi.nlm.nih.gov/vw3d/vw3d.cgi?cid=5281752
