442687
  -OEChem-07051212592D

 63 69  0     1  0  0  0  0  0999 V2000
    9.7747    0.5106    0.0000 O   0  0  0  0  0  0  0  0  0  0  0  0
    5.3070    0.8708    0.0000 O   0  0  0  0  0  0  0  0  0  0  0  0
    7.8397   -2.3430    0.0000 O   0  0  0  0  0  0  0  0  0  0  0  0
    8.4741   -5.0588    0.0000 O   0  0  0  0  0  0  0  0  0  0  0  0
   11.4416   -2.7045    0.0000 O   0  0  0  0  0  0  0  0  0  0  0  0
    6.3631   -2.3436    0.0000 O   0  0  0  0  0  0  0  0  0  0  0  0
    2.8648   -1.8033    0.0000 O   0  0  0  0  0  0  0  0  0  0  0  0
    6.1364    5.1822    0.0000 O   0  0  0  0  0  0  0  0  0  0  0  0
    4.0369   -5.0048    0.0000 O   0  0  0  0  0  0  0  0  0  0  0  0
    7.4305    0.3525    0.0000 C   0  0  2  0  0  0  0  0  0  0  0  0
    7.9083    2.3011    0.0000 C   0  0  0  0  0  0  0  0  0  0  0  0
    7.1717    1.3185    0.0000 C   0  0  1  0  0  0  0  0  0  0  0  0
    8.9657   -0.8906    0.0000 C   0  0  0  0  0  0  0  0  0  0  0  0
    5.7258   -0.6921    0.0000 C   0  0  0  0  0  0  0  0  0  0  0  0
    9.8792   -0.4839    0.0000 C   0  0  0  0  0  0  0  0  0  0  0  0
    8.8408   -1.9247    0.0000 C   0  0  0  0  0  0  0  0  0  0  0  0
    9.6788   -2.5435    0.0000 C   0  0  0  0  0  0  0  0  0  0  0  0
    4.9487   -0.0628    0.0000 C   0  0  0  0  0  0  0  0  0  0  0  0
    6.9129    2.2844    0.0000 C   0  0  0  0  0  0  0  0  0  0  0  0
    9.5737   -3.6234    0.0000 C   0  0  0  0  0  0  0  0  0  0  0  0
    8.5825   -4.0647    0.0000 C   0  0  2  0  0  0  0  0  0  0  0  0
    7.7097   -3.4202    0.0000 C   0  0  1  0  0  0  0  0  0  0  0  0
   10.7312   -1.0831    0.0000 C   0  0  0  0  0  0  0  0  0  0  0  0
   10.6304   -2.1198    0.0000 C   0  0  0  0  0  0  0  0  0  0  0  0
    5.5788   -1.7233    0.0000 C   0  0  0  0  0  0  0  0  0  0  0  0
    3.9706   -0.4210    0.0000 C   0  0  0  0  0  0  0  0  0  0  0  0
    6.7915   -3.8163    0.0000 C   0  0  0  0  0  0  0  0  0  0  0  0
    5.9470    2.5432    0.0000 C   0  0  0  0  0  0  0  0  0  0  0  0
    7.6200    2.9915    0.0000 C   0  0  0  0  0  0  0  0  0  0  0  0
    4.6092   -2.1041    0.0000 C   0  0  0  0  0  0  0  0  0  0  0  0
    3.7997   -1.4486    0.0000 C   0  0  0  0  0  0  0  0  0  0  0  0
    5.6881    3.5091    0.0000 C   0  0  0  0  0  0  0  0  0  0  0  0
    7.3612    3.9574    0.0000 C   0  0  0  0  0  0  0  0  0  0  0  0
    6.6754   -4.8096    0.0000 C   0  0  0  0  0  0  0  0  0  0  0  0
    5.9893   -3.2192    0.0000 C   0  0  0  0  0  0  0  0  0  0  0  0
    6.3952    4.2162    0.0000 C   0  0  0  0  0  0  0  0  0  0  0  0
    5.7573   -5.2057    0.0000 C   0  0  0  0  0  0  0  0  0  0  0  0
    5.0711   -3.6154    0.0000 C   0  0  0  0  0  0  0  0  0  0  0  0
    4.9551   -4.6086    0.0000 C   0  0  0  0  0  0  0  0  0  0  0  0
    7.6505   -0.4685    0.0000 H   0  0  0  0  0  0  0  0  0  0  0  0
    7.5905    2.8334    0.0000 H   0  0  0  0  0  0  0  0  0  0  0  0
    8.5214    2.3930    0.0000 H   0  0  0  0  0  0  0  0  0  0  0  0
   10.1919   -3.5769    0.0000 H   0  0  0  0  0  0  0  0  0  0  0  0
    9.7252   -4.2246    0.0000 H   0  0  0  0  0  0  0  0  0  0  0  0
    8.0146   -4.3136    0.0000 H   0  0  0  0  0  0  0  0  0  0  0  0
    7.6389   -4.0361    0.0000 H   0  0  0  0  0  0  0  0  0  0  0  0
   11.2947   -0.8244    0.0000 H   0  0  0  0  0  0  0  0  0  0  0  0
    3.4933   -0.0253    0.0000 H   0  0  0  0  0  0  0  0  0  0  0  0
    5.5085    2.1048    0.0000 H   0  0  0  0  0  0  0  0  0  0  0  0
    8.2188    2.8310    0.0000 H   0  0  0  0  0  0  0  0  0  0  0  0
    4.5146   -2.7168    0.0000 H   0  0  0  0  0  0  0  0  0  0  0  0
    8.9743   -5.4251    0.0000 H   0  0  0  0  0  0  0  0  0  0  0  0
    5.0892    3.6696    0.0000 H   0  0  0  0  0  0  0  0  0  0  0  0
    7.7996    4.3958    0.0000 H   0  0  0  0  0  0  0  0  0  0  0  0
   12.0071   -2.4501    0.0000 H   0  0  0  0  0  0  0  0  0  0  0  0
    7.1728   -5.1798    0.0000 H   0  0  0  0  0  0  0  0  0  0  0  0
    6.0612   -2.6034    0.0000 H   0  0  0  0  0  0  0  0  0  0  0  0
    6.9393   -2.1147    0.0000 H   0  0  0  0  0  0  0  0  0  0  0  0
    5.6853   -5.8215    0.0000 H   0  0  0  0  0  0  0  0  0  0  0  0
    4.5738   -3.2452    0.0000 H   0  0  0  0  0  0  0  0  0  0  0  0
    2.3844   -1.4113    0.0000 H   0  0  0  0  0  0  0  0  0  0  0  0
    6.5748    5.6206    0.0000 H   0  0  0  0  0  0  0  0  0  0  0  0
    3.9650   -5.6206    0.0000 H   0  0  0  0  0  0  0  0  0  0  0  0
  1 12  1  0  0  0  0
  1 15  1  0  0  0  0
  2 12  1  0  0  0  0
  2 18  1  0  0  0  0
  3 16  1  0  0  0  0
  3 22  1  0  0  0  0
 21  4  1  1  0  0  0
  4 52  1  0  0  0  0
  5 24  1  0  0  0  0
  5 55  1  0  0  0  0
  6 25  1  0  0  0  0
  6 58  1  0  0  0  0
  7 31  1  0  0  0  0
  7 61  1  0  0  0  0
  8 36  1  0  0  0  0
  8 62  1  0  0  0  0
  9 39  1  0  0  0  0
  9 63  1  0  0  0  0
 10 11  1  0  0  0  0
 10 13  1  0  0  0  0
 10 14  1  0  0  0  0
 10 40  1  1  0  0  0
 11 12  1  0  0  0  0
 11 41  1  0  0  0  0
 11 42  1  0  0  0  0
 12 19  1  6  0  0  0
 13 15  2  0  0  0  0
 13 16  1  0  0  0  0
 14 18  1  0  0  0  0
 14 25  2  0  0  0  0
 15 23  1  0  0  0  0
 16 17  2  0  0  0  0
 17 20  1  0  0  0  0
 17 24  1  0  0  0  0
 18 26  2  0  0  0  0
 19 28  2  0  0  0  0
 19 29  1  0  0  0  0
 20 21  1  0  0  0  0
 20 43  1  0  0  0  0
 20 44  1  0  0  0  0
 21 22  1  0  0  0  0
 21 45  1  0  0  0  0
 22 27  1  1  0  0  0
 22 46  1  0  0  0  0
 23 24  2  0  0  0  0
 23 47  1  0  0  0  0
 25 30  1  0  0  0  0
 26 31  1  0  0  0  0
 26 48  1  0  0  0  0
 27 34  2  0  0  0  0
 27 35  1  0  0  0  0
 28 32  1  0  0  0  0
 28 49  1  0  0  0  0
 29 33  2  0  0  0  0
 29 50  1  0  0  0  0
 30 31  2  0  0  0  0
 30 51  1  0  0  0  0
 32 36  2  0  0  0  0
 32 53  1  0  0  0  0
 33 36  1  0  0  0  0
 33 54  1  0  0  0  0
 34 37  1  0  0  0  0
 34 56  1  0  0  0  0
 35 38  2  0  0  0  0
 35 57  1  0  0  0  0
 37 39  2  0  0  0  0
 37 59  1  0  0  0  0
 38 39  1  0  0  0  0
 38 60  1  0  0  0  0
M  END
> <PUBCHEM_COMPOUND_CID>
442687

> <PUBCHEM_COMPOUND_CANONICALIZED>
1

> <PUBCHEM_CACTVS_COMPLEXITY>
873

> <PUBCHEM_CACTVS_HBOND_ACCEPTOR>
9

> <PUBCHEM_CACTVS_HBOND_DONOR>
6

> <PUBCHEM_CACTVS_ROTATABLE_BOND>
2

> <PUBCHEM_CACTVS_SUBSKEYS>
AAADceB4PAAAAAAAAAAAAAAAAAAAAAAAAAA0aNGCAAASAACRVAAAGgAACAAADRSgmAIwDoAABgCAAiBCAAACCAAgIAAIiAAGCIgdNyKGMRqieCClwBUPuAfA4PwOoAACCAAIAABAAAQQABAAAAAAAAAAAA==

> <PUBCHEM_IUPAC_INCHI>
InChI=1S/C30H24O9/c31-16-5-1-14(2-6-16)28-23(36)11-19-21(34)12-25-27(29(19)37-28)20-13-30(39-25,15-3-7-17(32)8-4-15)38-24-10-18(33)9-22(35)26(20)24/h1-10,12,20,23,28,31-36H,11,13H2/t20-,23+,28+,30-/m0/s1

> <PUBCHEM_IUPAC_INCHIKEY>
BHGCRZWUKWPRDM-JAPFCTHZSA-N

> <PUBCHEM_XLOGP3_AA>
4.1

> <PUBCHEM_EXACT_MASS>
528.142032

> <PUBCHEM_MOLECULAR_FORMULA>
C30H24O9

> <PUBCHEM_MOLECULAR_WEIGHT>
528.50616

> <PUBCHEM_OPENEYE_CAN_SMILES>
C1C(C(OC2=C3C4CC(OC5=CC(=CC(=C45)O)O)(OC3=CC(=C21)O)C6=CC=C(C=C6)O)C7=CC=C(C=C7)O)O

> <PUBCHEM_OPENEYE_ISO_SMILES>
C1[C@H]([C@H](OC2=C3[C@H]4C[C@](OC5=CC(=CC(=C45)O)O)(OC3=CC(=C21)O)C6=CC=C(C=C6)O)C7=CC=C(C=C7)O)O

> <PUBCHEM_CACTVS_TPSA>
149

> <PUBCHEM_MONOISOTOPIC_WEIGHT>
528.142032

> <PUBCHEM_TOTAL_CHARGE>
0

> <PUBCHEM_HEAVY_ATOM_COUNT>
39

> <PUBCHEM_ATOM_DEF_STEREO_COUNT>
4

> <PUBCHEM_ATOM_UDEF_STEREO_COUNT>
0

> <PUBCHEM_BOND_DEF_STEREO_COUNT>
0

> <PUBCHEM_BOND_UDEF_STEREO_COUNT>
0

> <PUBCHEM_ISOTOPIC_ATOM_COUNT>
0

> <PUBCHEM_COMPONENT_COUNT>
1

> <PUBCHEM_CACTVS_TAUTO_COUNT>
72

> <PUBCHEM_COORDINATE_TYPE>
1
5
255

> <PUBCHEM_BONDANNOTATIONS>
10  40  5
12  19  6
13  15  8
13  16  8
14  18  8
14  25  8
15  23  8
16  17  8
17  24  8
18  26  8
19  28  8
19  29  8
22  27  5
23  24  8
25  30  8
26  31  8
27  34  8
27  35  8
28  32  8
29  33  8
30  31  8
32  36  8
33  36  8
34  37  8
35  38  8
37  39  8
38  39  8
21  4  5

$$$$

