5281829
  -OEChem-07051213002D

 93 96  0     1  0  0  0  0  0999 V2000
    4.8184   -0.4669    0.0000 O   0  0  0  0  0  0  0  0  0  0  0  0
    3.7320   -4.2236    0.0000 O   0  0  0  0  0  0  0  0  0  0  0  0
    7.5286   -5.1611    0.0000 O   0  0  0  0  0  0  0  0  0  0  0  0
    9.8177   -2.7100    0.0000 O   0  0  0  0  0  0  0  0  0  0  0  0
    8.0856    0.2900    0.0000 O   0  0  0  0  0  0  0  0  0  0  0  0
    8.9516   -4.2100    0.0000 O   0  0  0  0  0  0  0  0  0  0  0  0
    6.1056    0.6921    0.0000 O   0  0  0  0  0  0  0  0  0  0  0  0
    2.8660   -2.7236    0.0000 O   0  0  0  0  0  0  0  0  0  0  0  0
    9.8177    0.2900    0.0000 O   0  0  0  0  0  0  0  0  0  0  0  0
    8.0856    2.2900    0.0000 O   0  0  0  0  0  0  0  0  0  0  0  0
   10.6837    1.7900    0.0000 N   0  0  0  0  0  0  0  0  0  0  0  0
    6.3536   -2.7100    0.0000 C   0  0  0  0  0  0  0  0  0  0  0  0
    5.4875   -2.2100    0.0000 C   0  0  1  0  0  0  0  0  0  0  0  0
    8.0856   -2.7100    0.0000 C   0  0  1  0  0  0  0  0  0  0  0  0
    6.3536   -3.7100    0.0000 C   0  0  0  0  0  0  0  0  0  0  0  0
    4.6020   -2.7077    0.0000 C   0  0  0  0  0  0  0  0  0  0  0  0
    5.4875   -1.2100    0.0000 C   0  0  2  0  0  0  0  0  0  0  0  0
    4.5981   -3.7236    0.0000 C   0  0  1  0  0  0  0  0  0  0  0  0
    7.2196   -2.2100    0.0000 C   0  0  0  0  0  0  0  0  0  0  0  0
    7.2196   -4.2100    0.0000 C   0  0  2  0  0  0  0  0  0  0  0  0
    8.9516   -2.2100    0.0000 C   0  0  2  0  0  0  0  0  0  0  0  0
    5.4798   -4.2281    0.0000 C   0  0  0  0  0  0  0  0  0  0  0  0
    7.2196   -1.2100    0.0000 C   0  0  0  0  0  0  0  0  0  0  0  0
    8.0856   -3.7100    0.0000 C   0  0  0  0  0  0  0  0  0  0  0  0
    8.0856   -0.7100    0.0000 C   0  0  2  0  0  0  0  0  0  0  0  0
    8.9516   -1.2100    0.0000 C   0  0  0  0  0  0  0  0  0  0  0  0
    7.2196   -3.2100    0.0000 C   0  0  0  0  0  0  0  0  0  0  0  0
    6.3536   -1.7100    0.0000 C   0  0  0  0  0  0  0  0  0  0  0  0
    6.3536   -0.7100    0.0000 C   0  0  0  0  0  0  0  0  0  0  0  0
    8.9516   -3.2100    0.0000 C   0  0  0  0  0  0  0  0  0  0  0  0
    5.4875   -5.2280    0.0000 C   0  0  0  0  0  0  0  0  0  0  0  0
    5.1274    0.4842    0.0000 C   0  0  0  0  0  0  0  0  0  0  0  0
    2.8660   -3.7236    0.0000 C   0  0  0  0  0  0  0  0  0  0  0  0
    8.9516    0.7900    0.0000 C   0  0  0  0  0  0  0  0  0  0  0  0
    8.9516    1.7900    0.0000 C   0  0  1  0  0  0  0  0  0  0  0  0
    4.4583    1.2273    0.0000 C   0  0  0  0  0  0  0  0  0  0  0  0
    2.0000   -4.2236    0.0000 C   0  0  0  0  0  0  0  0  0  0  0  0
    9.8177    2.2900    0.0000 C   0  0  2  0  0  0  0  0  0  0  0  0
    9.8177    3.2900    0.0000 C   0  0  0  0  0  0  0  0  0  0  0  0
   11.5497    2.2900    0.0000 C   0  0  0  0  0  0  0  0  0  0  0  0
   10.6837    0.7900    0.0000 C   0  0  0  0  0  0  0  0  0  0  0  0
   10.6837    3.7900    0.0000 C   0  0  0  0  0  0  0  0  0  0  0  0
    8.9516    3.7900    0.0000 C   0  0  0  0  0  0  0  0  0  0  0  0
   10.6837    4.7900    0.0000 C   0  0  0  0  0  0  0  0  0  0  0  0
    8.9516    4.7900    0.0000 C   0  0  0  0  0  0  0  0  0  0  0  0
    9.8177    5.2900    0.0000 C   0  0  0  0  0  0  0  0  0  0  0  0
    4.7514   -1.7850    0.0000 H   0  0  0  0  0  0  0  0  0  0  0  0
    4.3952   -2.1232    0.0000 H   0  0  0  0  0  0  0  0  0  0  0  0
    3.9907   -2.8115    0.0000 H   0  0  0  0  0  0  0  0  0  0  0  0
    4.8811   -1.0811    0.0000 H   0  0  0  0  0  0  0  0  0  0  0  0
    4.0617   -3.4125    0.0000 H   0  0  0  0  0  0  0  0  0  0  0  0
    6.6090   -2.1024    0.0000 H   0  0  0  0  0  0  0  0  0  0  0  0
    7.0075   -2.7926    0.0000 H   0  0  0  0  0  0  0  0  0  0  0  0
    7.0280   -4.7997    0.0000 H   0  0  0  0  0  0  0  0  0  0  0  0
    9.4886   -1.9000    0.0000 H   0  0  0  0  0  0  0  0  0  0  0  0
    7.5487   -0.4000    0.0000 H   0  0  0  0  0  0  0  0  0  0  0  0
    9.5622   -1.3177    0.0000 H   0  0  0  0  0  0  0  0  0  0  0  0
    9.1637   -0.6274    0.0000 H   0  0  0  0  0  0  0  0  0  0  0  0
    6.9096   -3.7470    0.0000 H   0  0  0  0  0  0  0  0  0  0  0  0
    7.7565   -3.5200    0.0000 H   0  0  0  0  0  0  0  0  0  0  0  0
    7.5296   -2.6731    0.0000 H   0  0  0  0  0  0  0  0  0  0  0  0
    6.9736   -1.7100    0.0000 H   0  0  0  0  0  0  0  0  0  0  0  0
    6.3536   -1.0900    0.0000 H   0  0  0  0  0  0  0  0  0  0  0  0
    5.7336   -1.7100    0.0000 H   0  0  0  0  0  0  0  0  0  0  0  0
    6.3536   -0.0900    0.0000 H   0  0  0  0  0  0  0  0  0  0  0  0
    8.6416   -3.7470    0.0000 H   0  0  0  0  0  0  0  0  0  0  0  0
    9.4886   -3.5200    0.0000 H   0  0  0  0  0  0  0  0  0  0  0  0
    9.2616   -2.6731    0.0000 H   0  0  0  0  0  0  0  0  0  0  0  0
    4.8675   -5.2328    0.0000 H   0  0  0  0  0  0  0  0  0  0  0  0
    5.4922   -5.8480    0.0000 H   0  0  0  0  0  0  0  0  0  0  0  0
    6.1074   -5.2233    0.0000 H   0  0  0  0  0  0  0  0  0  0  0  0
    8.1351   -5.2900    0.0000 H   0  0  0  0  0  0  0  0  0  0  0  0
   10.3546   -2.4000    0.0000 H   0  0  0  0  0  0  0  0  0  0  0  0
    8.9516    2.4100    0.0000 H   0  0  0  0  0  0  0  0  0  0  0  0
    4.9191    1.6422    0.0000 H   0  0  0  0  0  0  0  0  0  0  0  0
    4.0434    1.6881    0.0000 H   0  0  0  0  0  0  0  0  0  0  0  0
    3.9976    0.8125    0.0000 H   0  0  0  0  0  0  0  0  0  0  0  0
    1.6900   -3.6866    0.0000 H   0  0  0  0  0  0  0  0  0  0  0  0
    1.4631   -4.5336    0.0000 H   0  0  0  0  0  0  0  0  0  0  0  0
    2.3100   -4.7605    0.0000 H   0  0  0  0  0  0  0  0  0  0  0  0
    9.8177    1.6700    0.0000 H   0  0  0  0  0  0  0  0  0  0  0  0
    8.0856    2.9100    0.0000 H   0  0  0  0  0  0  0  0  0  0  0  0
   11.8597    1.7530    0.0000 H   0  0  0  0  0  0  0  0  0  0  0  0
   12.0867    2.6000    0.0000 H   0  0  0  0  0  0  0  0  0  0  0  0
   11.2397    2.8269    0.0000 H   0  0  0  0  0  0  0  0  0  0  0  0
   10.0637    0.7900    0.0000 H   0  0  0  0  0  0  0  0  0  0  0  0
   10.6837    0.1700    0.0000 H   0  0  0  0  0  0  0  0  0  0  0  0
   11.3037    0.7900    0.0000 H   0  0  0  0  0  0  0  0  0  0  0  0
   11.2206    3.4800    0.0000 H   0  0  0  0  0  0  0  0  0  0  0  0
    8.4147    3.4800    0.0000 H   0  0  0  0  0  0  0  0  0  0  0  0
   11.2206    5.1000    0.0000 H   0  0  0  0  0  0  0  0  0  0  0  0
    8.4147    5.1000    0.0000 H   0  0  0  0  0  0  0  0  0  0  0  0
    9.8177    5.9100    0.0000 H   0  0  0  0  0  0  0  0  0  0  0  0
 17  1  1  1  0  0  0
  1 32  1  0  0  0  0
 18  2  1  1  0  0  0
  2 33  1  0  0  0  0
 20  3  1  6  0  0  0
  3 72  1  0  0  0  0
 21  4  1  6  0  0  0
  4 73  1  0  0  0  0
 25  5  1  1  0  0  0
  5 34  1  0  0  0  0
  6 24  2  0  0  0  0
  7 32  2  0  0  0  0
  8 33  2  0  0  0  0
  9 34  2  0  0  0  0
 35 10  1  6  0  0  0
 10 82  1  0  0  0  0
 38 11  1  6  0  0  0
 11 40  1  0  0  0  0
 11 41  1  0  0  0  0
 12 13  1  0  0  0  0
 12 15  1  0  0  0  0
 12 27  1  0  0  0  0
 12 28  1  0  0  0  0
 13 16  1  0  0  0  0
 13 17  1  0  0  0  0
 13 47  1  6  0  0  0
 14 19  1  0  0  0  0
 14 21  1  0  0  0  0
 14 24  1  0  0  0  0
 14 30  1  6  0  0  0
 15 20  1  0  0  0  0
 15 22  2  0  0  0  0
 16 18  1  0  0  0  0
 16 48  1  0  0  0  0
 16 49  1  0  0  0  0
 17 29  1  0  0  0  0
 17 50  1  0  0  0  0
 18 22  1  0  0  0  0
 18 51  1  0  0  0  0
 19 23  1  0  0  0  0
 19 52  1  0  0  0  0
 19 53  1  0  0  0  0
 20 24  1  0  0  0  0
 20 54  1  0  0  0  0
 21 26  1  0  0  0  0
 21 55  1  0  0  0  0
 22 31  1  0  0  0  0
 23 25  1  0  0  0  0
 23 29  2  0  0  0  0
 25 26  1  0  0  0  0
 25 56  1  0  0  0  0
 26 57  1  0  0  0  0
 26 58  1  0  0  0  0
 27 59  1  0  0  0  0
 27 60  1  0  0  0  0
 27 61  1  0  0  0  0
 28 62  1  0  0  0  0
 28 63  1  0  0  0  0
 28 64  1  0  0  0  0
 29 65  1  0  0  0  0
 30 66  1  0  0  0  0
 30 67  1  0  0  0  0
 30 68  1  0  0  0  0
 31 69  1  0  0  0  0
 31 70  1  0  0  0  0
 31 71  1  0  0  0  0
 32 36  1  0  0  0  0
 33 37  1  0  0  0  0
 34 35  1  0  0  0  0
 35 38  1  0  0  0  0
 35 74  1  0  0  0  0
 36 75  1  0  0  0  0
 36 76  1  0  0  0  0
 36 77  1  0  0  0  0
 37 78  1  0  0  0  0
 37 79  1  0  0  0  0
 37 80  1  0  0  0  0
 38 39  1  0  0  0  0
 38 81  1  0  0  0  0
 39 42  2  0  0  0  0
 39 43  1  0  0  0  0
 40 83  1  0  0  0  0
 40 84  1  0  0  0  0
 40 85  1  0  0  0  0
 41 86  1  0  0  0  0
 41 87  1  0  0  0  0
 41 88  1  0  0  0  0
 42 44  1  0  0  0  0
 42 89  1  0  0  0  0
 43 45  2  0  0  0  0
 43 90  1  0  0  0  0
 44 46  2  0  0  0  0
 44 91  1  0  0  0  0
 45 46  1  0  0  0  0
 45 92  1  0  0  0  0
 46 93  1  0  0  0  0
M  END
> <PUBCHEM_COMPOUND_CID>
5281829

> <PUBCHEM_COMPOUND_CANONICALIZED>
1

> <PUBCHEM_CACTVS_COMPLEXITY>
1260

> <PUBCHEM_CACTVS_HBOND_ACCEPTOR>
11

> <PUBCHEM_CACTVS_HBOND_DONOR>
3

> <PUBCHEM_CACTVS_ROTATABLE_BOND>
10

> <PUBCHEM_CACTVS_SUBSKEYS>
AAADcfB+PAAAAAAAAAAAAAAAAAAAAAAAAAAwYIAAAAAAAACBAAAAHgAACAAADzzhmAYyCIMABgCIAqDSCAKCAAAgAAAIiAFIBIgLND6AsRGGcAhn4AEbuAfY7OzPgAAAAAAAAABAAAAQABAAAAAAAAAAAA==

> <PUBCHEM_IUPAC_INCHI>
InChI=1S/C35H47NO10/c1-18-24(44-19(2)37)15-23-26(45-20(3)38)14-22-17-35(6,32(42)30(40)28(18)34(23,4)5)27(39)16-25(22)46-33(43)31(41)29(36(7)8)21-12-10-9-11-13-21/h9-14,23-27,29-31,39-41H,15-17H2,1-8H3/b22-14+/t23-,24-,25-,26-,27-,29-,30+,31+,35-/m0/s1

> <PUBCHEM_IUPAC_INCHIKEY>
KOTXAHKUCAQPQA-MCBQMXOVSA-N

> <PUBCHEM_XLOGP3_AA>
1.6

> <PUBCHEM_EXACT_MASS>
641.319997

> <PUBCHEM_MOLECULAR_FORMULA>
C35H47NO10

> <PUBCHEM_MOLECULAR_WEIGHT>
641.74838

> <PUBCHEM_OPENEYE_CAN_SMILES>
CC1=C2C(C(=O)C3(CC(=CC(C(C2(C)C)CC1OC(=O)C)OC(=O)C)C(CC3O)OC(=O)C(C(C4=CC=CC=C4)N(C)C)O)C)O

> <PUBCHEM_OPENEYE_ISO_SMILES>
CC1=C2[C@H](C(=O)[C@]3(C/C(=C\[C@@H]([C@@H](C2(C)C)C[C@@H]1OC(=O)C)OC(=O)C)/[C@H](C[C@@H]3O)OC(=O)[C@@H]([C@H](C4=CC=CC=C4)N(C)C)O)C)O

> <PUBCHEM_CACTVS_TPSA>
160

> <PUBCHEM_MONOISOTOPIC_WEIGHT>
641.319997

> <PUBCHEM_TOTAL_CHARGE>
0

> <PUBCHEM_HEAVY_ATOM_COUNT>
46

> <PUBCHEM_ATOM_DEF_STEREO_COUNT>
9

> <PUBCHEM_ATOM_UDEF_STEREO_COUNT>
0

> <PUBCHEM_BOND_DEF_STEREO_COUNT>
1

> <PUBCHEM_BOND_UDEF_STEREO_COUNT>
0

> <PUBCHEM_ISOTOPIC_ATOM_COUNT>
0

> <PUBCHEM_COMPONENT_COUNT>
1

> <PUBCHEM_CACTVS_TAUTO_COUNT>
1

> <PUBCHEM_COORDINATE_TYPE>
1
5
255

> <PUBCHEM_BONDANNOTATIONS>
17  1  5
35  10  6
38  11  6
13  47  6
14  30  6
18  2  5
20  3  6
39  42  8
39  43  8
21  4  6
42  44  8
43  45  8
44  46  8
45  46  8
25  5  5

$$$$

