   Color/Form

     * Crystals from methanol
     * Light cream-colored to light tan, crystalline powder

   from [1]HSDB

   Odor
        Mild mercaptan-like odor
   from [2]HSDB

   Boiling Point
        134 deg C
   from [3]HSDB

   Melting Point
        134-135 deg C
   from [4]HSDB

   Octanol/Water Partition Coefficient
        log Kow = 2.78
   from [5]HSDB

   Solubilities

     * Soluble in most organic solvents
     * Soluble in ethyl acetate and ethanol; slightly soluble in methanol
     * In water, 22 mg/L at 25 deg C

   from [6]HSDB

   Spectral Properties

     * Specific optical rotation = -33.5 deg (chloroform)
     * UV max: 238 nm (epsilon 20200)

   from [7]HSDB

   Vapor Pressure
        3.24X10-11 mm Hg at 25 deg C (est)
   from [8]HSDB

   Other Chemical/Physical Properties

     * Henry's Law constant = 1.14X10-10 atm-cu m/mol at 25 deg C (est)
     * Hydroxyl radical reaction rate constant = 1.13X10-10 cu
       cm/molec-sec at 25 deg C (est)

   from [9]HSDB

   Computed Properties
   Molecular Weight                  416.57348 [g/mol]
   Molecular Formula                 C[24]H[32]O[4]S
   XLogP3                            2.9
   H-Bond Donor                      0
   H-Bond Acceptor                   5
   Rotatable Bond Count              2
   Tautomer Count                    10
   Exact Mass                        416.202131
   MonoIsotopic Mass                 416.202131
   Topological Polar Surface Area    85.7
   Heavy Atom Count                  29
   Formal Charge                     0
   Complexity                        818
   Isotope Atom Count                0
   Defined Atom Stereocenter Count   7
   Undefined Atom Stereocenter Count 0
   Defined Bond Stereocenter Count   0
   Undefined Bond Stereocenter Count 0
   Covalently-Bonded Unit Count      1
   Feature 3D Acceptor Count         2
   Feature 3D Ring Count             5
   Effective Rotor Count             4.2
   Conformer Sampling RMSD           0.8
   CID Conformer Count               [10]1

References

   1. http://toxnet.nlm.nih.gov/cgi-bin/sis/search/r?dbs+hsdb:@term+@rn+@rel+52-01-7
   2. http://toxnet.nlm.nih.gov/cgi-bin/sis/search/r?dbs+hsdb:@term+@rn+@rel+52-01-7
   3. http://toxnet.nlm.nih.gov/cgi-bin/sis/search/r?dbs+hsdb:@term+@rn+@rel+52-01-7
   4. http://toxnet.nlm.nih.gov/cgi-bin/sis/search/r?dbs+hsdb:@term+@rn+@rel+52-01-7
   5. http://toxnet.nlm.nih.gov/cgi-bin/sis/search/r?dbs+hsdb:@term+@rn+@rel+52-01-7
   6. http://toxnet.nlm.nih.gov/cgi-bin/sis/search/r?dbs+hsdb:@term+@rn+@rel+52-01-7
   7. http://toxnet.nlm.nih.gov/cgi-bin/sis/search/r?dbs+hsdb:@term+@rn+@rel+52-01-7
   8. http://toxnet.nlm.nih.gov/cgi-bin/sis/search/r?dbs+hsdb:@term+@rn+@rel+52-01-7
   9. http://toxnet.nlm.nih.gov/cgi-bin/sis/search/r?dbs+hsdb:@term+@rn+@rel+52-01-7
  10. http://pubchem.ncbi.nlm.nih.gov/vw3d/vw3d.cgi?cid=5833
