440844
  -OEChem-07051212512D

 73 75  0     1  0  0  0  0  0999 V2000
   15.0067   -2.0431    0.0000 O   0  0  0  0  0  0  0  0  0  0  0  0
    9.7942   -5.0777    0.0000 O   0  0  0  0  0  0  0  0  0  0  0  0
    5.4641    1.4223    0.0000 O   0  0  0  0  0  0  0  0  0  0  0  0
    7.1962   -0.5777    0.0000 O   0  0  0  0  0  0  0  0  0  0  0  0
    3.7320   -1.5777    0.0000 O   0  0  0  0  0  0  0  0  0  0  0  0
    4.5981   -3.0777    0.0000 O   0  0  0  0  0  0  0  0  0  0  0  0
    2.8660    3.9223    0.0000 O   0  0  0  0  0  0  0  0  0  0  0  0
    2.0000    2.4223    0.0000 O   0  0  0  0  0  0  0  0  0  0  0  0
    5.4641    5.4223    0.0000 O   0  0  0  0  0  0  0  0  0  0  0  0
    6.3301    3.9223    0.0000 O   0  0  0  0  0  0  0  0  0  0  0  0
   13.2583   -3.0777    0.0000 N   0  0  0  0  0  0  0  0  0  0  0  0
   13.2583   -5.0777    0.0000 N   0  0  0  0  0  0  0  0  0  0  0  0
   10.6603   -3.5777    0.0000 N   0  0  0  0  0  0  0  0  0  0  0  0
   15.0183   -5.1124    0.0000 N   0  0  0  0  0  0  0  0  0  0  0  0
   15.9244   -3.5569    0.0000 N   0  0  0  0  0  0  0  0  0  0  0  0
    6.3301   -2.0777    0.0000 N   0  0  0  0  0  0  0  0  0  0  0  0
    3.7320    1.4223    0.0000 N   0  0  0  0  0  0  0  0  0  0  0  0
   16.7885   -5.1018    0.0000 N   0  0  0  0  0  0  0  0  0  0  0  0
   12.3923   -3.5777    0.0000 C   0  0  3  0  0  0  0  0  0  0  0  0
   12.3923   -4.5777    0.0000 C   0  0  0  0  0  0  0  0  0  0  0  0
   11.5263   -3.0777    0.0000 C   0  0  0  0  0  0  0  0  0  0  0  0
   14.1244   -3.5777    0.0000 C   0  0  0  0  0  0  0  0  0  0  0  0
   14.1244   -4.5777    0.0000 C   0  0  0  0  0  0  0  0  0  0  0  0
    9.7942   -3.0777    0.0000 C   0  0  0  0  0  0  0  0  0  0  0  0
   15.0183   -3.0430    0.0000 C   0  0  0  0  0  0  0  0  0  0  0  0
    5.4641   -0.5777    0.0000 C   0  0  0  0  0  0  0  0  0  0  0  0
    5.4641   -1.5777    0.0000 C   0  0  3  0  0  0  0  0  0  0  0  0
   15.9244   -4.5985    0.0000 C   0  0  0  0  0  0  0  0  0  0  0  0
   10.6603   -4.5777    0.0000 C   0  0  0  0  0  0  0  0  0  0  0  0
    4.5981   -0.0777    0.0000 C   0  0  0  0  0  0  0  0  0  0  0  0
    9.7942   -2.0777    0.0000 C   0  0  0  0  0  0  0  0  0  0  0  0
    8.9282   -3.5777    0.0000 C   0  0  0  0  0  0  0  0  0  0  0  0
    3.7320    2.4223    0.0000 C   0  0  3  0  0  0  0  0  0  0  0  0
    8.0622   -2.0777    0.0000 C   0  0  0  0  0  0  0  0  0  0  0  0
    4.5981    2.9223    0.0000 C   0  0  0  0  0  0  0  0  0  0  0  0
    8.9282   -1.5777    0.0000 C   0  0  0  0  0  0  0  0  0  0  0  0
    8.0622   -3.0777    0.0000 C   0  0  0  0  0  0  0  0  0  0  0  0
    4.5981    0.9223    0.0000 C   0  0  0  0  0  0  0  0  0  0  0  0
    7.1962   -1.5777    0.0000 C   0  0  0  0  0  0  0  0  0  0  0  0
    4.5981    3.9223    0.0000 C   0  0  0  0  0  0  0  0  0  0  0  0
    4.5981   -2.0777    0.0000 C   0  0  0  0  0  0  0  0  0  0  0  0
    2.8660    2.9223    0.0000 C   0  0  0  0  0  0  0  0  0  0  0  0
    5.4641    4.4223    0.0000 C   0  0  0  0  0  0  0  0  0  0  0  0
   12.3923   -2.7277    0.0000 H   0  0  0  0  0  0  0  0  0  0  0  0
   11.7817   -4.4700    0.0000 H   0  0  0  0  0  0  0  0  0  0  0  0
   12.1803   -5.1603    0.0000 H   0  0  0  0  0  0  0  0  0  0  0  0
   11.9248   -2.6027    0.0000 H   0  0  0  0  0  0  0  0  0  0  0  0
   11.1278   -2.6027    0.0000 H   0  0  0  0  0  0  0  0  0  0  0  0
   13.2583   -2.4577    0.0000 H   0  0  0  0  0  0  0  0  0  0  0  0
   13.2583   -5.6977    0.0000 H   0  0  0  0  0  0  0  0  0  0  0  0
   15.0111   -5.7323    0.0000 H   0  0  0  0  0  0  0  0  0  0  0  0
    6.0747   -0.6854    0.0000 H   0  0  0  0  0  0  0  0  0  0  0  0
    5.6762    0.0049    0.0000 H   0  0  0  0  0  0  0  0  0  0  0  0
    5.4641   -2.4277    0.0000 H   0  0  0  0  0  0  0  0  0  0  0  0
    3.9875    0.0300    0.0000 H   0  0  0  0  0  0  0  0  0  0  0  0
    4.3860   -0.6603    0.0000 H   0  0  0  0  0  0  0  0  0  0  0  0
   11.1972   -4.8877    0.0000 H   0  0  0  0  0  0  0  0  0  0  0  0
   10.3312   -1.7677    0.0000 H   0  0  0  0  0  0  0  0  0  0  0  0
    8.9282   -4.1977    0.0000 H   0  0  0  0  0  0  0  0  0  0  0  0
    4.4682    1.9973    0.0000 H   0  0  0  0  0  0  0  0  0  0  0  0
    4.8101    2.3397    0.0000 H   0  0  0  0  0  0  0  0  0  0  0  0
    5.2087    3.0300    0.0000 H   0  0  0  0  0  0  0  0  0  0  0  0
    6.3301   -2.6977    0.0000 H   0  0  0  0  0  0  0  0  0  0  0  0
    8.9282   -0.9577    0.0000 H   0  0  0  0  0  0  0  0  0  0  0  0
    7.5252   -3.3877    0.0000 H   0  0  0  0  0  0  0  0  0  0  0  0
    3.1951    1.1123    0.0000 H   0  0  0  0  0  0  0  0  0  0  0  0
    4.3860    4.5049    0.0000 H   0  0  0  0  0  0  0  0  0  0  0  0
    3.9875    3.8146    0.0000 H   0  0  0  0  0  0  0  0  0  0  0  0
   17.3266   -4.7939    0.0000 H   0  0  0  0  0  0  0  0  0  0  0  0
   16.7861   -5.7218    0.0000 H   0  0  0  0  0  0  0  0  0  0  0  0
    3.1951   -1.8877    0.0000 H   0  0  0  0  0  0  0  0  0  0  0  0
    2.3291    4.2323    0.0000 H   0  0  0  0  0  0  0  0  0  0  0  0
    6.0010    5.7323    0.0000 H   0  0  0  0  0  0  0  0  0  0  0  0
  1 25  2  0  0  0  0
  2 29  2  0  0  0  0
  3 38  2  0  0  0  0
  4 39  2  0  0  0  0
  5 41  1  0  0  0  0
  5 71  1  0  0  0  0
  6 41  2  0  0  0  0
  7 42  1  0  0  0  0
  7 72  1  0  0  0  0
  8 42  2  0  0  0  0
  9 43  1  0  0  0  0
  9 73  1  0  0  0  0
 10 43  2  0  0  0  0
 11 19  1  0  0  0  0
 11 22  1  0  0  0  0
 11 49  1  0  0  0  0
 12 20  1  0  0  0  0
 12 23  1  0  0  0  0
 12 50  1  0  0  0  0
 13 21  1  0  0  0  0
 13 24  1  0  0  0  0
 13 29  1  0  0  0  0
 14 23  1  0  0  0  0
 14 28  1  0  0  0  0
 14 51  1  0  0  0  0
 15 25  1  0  0  0  0
 15 28  2  0  0  0  0
 16 27  1  0  0  0  0
 16 39  1  0  0  0  0
 16 63  1  0  0  0  0
 17 33  1  0  0  0  0
 17 38  1  0  0  0  0
 17 66  1  0  0  0  0
 18 28  1  0  0  0  0
 18 69  1  0  0  0  0
 18 70  1  0  0  0  0
 19 20  1  0  0  0  0
 19 21  1  0  0  0  0
 19 44  1  0  0  0  0
 20 45  1  0  0  0  0
 20 46  1  0  0  0  0
 21 47  1  0  0  0  0
 21 48  1  0  0  0  0
 22 23  2  0  0  0  0
 22 25  1  0  0  0  0
 24 31  2  0  0  0  0
 24 32  1  0  0  0  0
 26 27  1  0  0  0  0
 26 30  1  0  0  0  0
 26 52  1  0  0  0  0
 26 53  1  0  0  0  0
 27 41  1  0  0  0  0
 27 54  1  0  0  0  0
 29 57  1  0  0  0  0
 30 38  1  0  0  0  0
 30 55  1  0  0  0  0
 30 56  1  0  0  0  0
 31 36  1  0  0  0  0
 31 58  1  0  0  0  0
 32 37  2  0  0  0  0
 32 59  1  0  0  0  0
 33 35  1  0  0  0  0
 33 42  1  0  0  0  0
 33 60  1  0  0  0  0
 34 36  2  0  0  0  0
 34 37  1  0  0  0  0
 34 39  1  0  0  0  0
 35 40  1  0  0  0  0
 35 61  1  0  0  0  0
 35 62  1  0  0  0  0
 36 64  1  0  0  0  0
 37 65  1  0  0  0  0
 40 43  1  0  0  0  0
 40 67  1  0  0  0  0
 40 68  1  0  0  0  0
M  END
> <PUBCHEM_COMPOUND_CID>
440844

> <PUBCHEM_COMPOUND_CANONICALIZED>
1

> <PUBCHEM_CACTVS_COMPLEXITY>
1200

> <PUBCHEM_CACTVS_HBOND_ACCEPTOR>
12

> <PUBCHEM_CACTVS_HBOND_DONOR>
9

> <PUBCHEM_CACTVS_ROTATABLE_BOND>
14

> <PUBCHEM_CACTVS_SUBSKEYS>
AAADceB7/AAAAAAAAAAAAAAAAAAAAAAAAAAwQIAAAAAAAACBAAAAHgAQCAAADCjBmAYxyIPAAgCoAiXS/ACCAAElAgAJiIGIZMiKYDLA1bGUYQhslgLYyce8vwKeCAAAAAAAAAAQAAAAAAAAAAAAAAAAAA==

> <PUBCHEM_IUPAC_OPENEYE_NAME>
2-[[4-[[4-[(2-amino-4-oxo-5,6,7,8-tetrahydro-1H-pteridin-6-yl)methyl-formyl-amino]benzoyl]amino]-4-carboxy-butanoyl]amino]pentanedioic acid

> <PUBCHEM_IUPAC_CAS_NAME>
2-[[4-[[[4-[(2-amino-4-oxo-5,6,7,8-tetrahydro-1H-pteridin-6-yl)methyl-formylamino]phenyl]-oxomethyl]amino]-4-carboxy-1-oxobutyl]amino]pentanedioic acid

> <PUBCHEM_IUPAC_NAME>
2-[[4-[[4-[(2-amino-4-oxo-5,6,7,8-tetrahydro-1H-pteridin-6-yl)methyl-formylamino]benzoyl]amino]-4-carboxybutanoyl]amino]pentanedioic acid

> <PUBCHEM_IUPAC_SYSTEMATIC_NAME>
2-[[4-[[4-[(2-azanyl-4-oxidanylidene-5,6,7,8-tetrahydro-1H-pteridin-6-yl)methyl-methanoyl-amino]phenyl]carbonylamino]-5-oxidanyl-5-oxidanylidene-pentanoyl]amino]pentanedioic acid

> <PUBCHEM_IUPAC_TRADITIONAL_NAME>
2-[[4-[[4-[(2-amino-4-keto-5,6,7,8-tetrahydro-1H-pteridin-6-yl)methyl-formyl-amino]benzoyl]amino]-4-carboxy-butanoyl]amino]glutaric acid

> <PUBCHEM_IUPAC_INCHI>
InChI=1S/C25H30N8O10/c26-25-31-20-19(22(39)32-25)28-13(9-27-20)10-33(11-34)14-3-1-12(2-4-14)21(38)30-16(24(42)43)5-7-17(35)29-15(23(40)41)6-8-18(36)37/h1-4,11,13,15-16,28H,5-10H2,(H,29,35)(H,30,38)(H,36,37)(H,40,41)(H,42,43)(H4,26,27,31,32,39)

> <PUBCHEM_IUPAC_INCHIKEY>
BHBZPCBOCZGPTF-UHFFFAOYSA-N

> <PUBCHEM_XLOGP3_AA>
-2

> <PUBCHEM_EXACT_MASS>
602.208489

> <PUBCHEM_MOLECULAR_FORMULA>
C25H30N8O10

> <PUBCHEM_MOLECULAR_WEIGHT>
602.5533

> <PUBCHEM_OPENEYE_CAN_SMILES>
C1C(NC2=C(N1)NC(=NC2=O)N)CN(C=O)C3=CC=C(C=C3)C(=O)NC(CCC(=O)NC(CCC(=O)O)C(=O)O)C(=O)O

> <PUBCHEM_OPENEYE_ISO_SMILES>
C1C(NC2=C(N1)NC(=NC2=O)N)CN(C=O)C3=CC=C(C=C3)C(=O)NC(CCC(=O)NC(CCC(=O)O)C(=O)O)C(=O)O

> <PUBCHEM_CACTVS_TPSA>
282

> <PUBCHEM_MONOISOTOPIC_WEIGHT>
602.208489

> <PUBCHEM_TOTAL_CHARGE>
0

> <PUBCHEM_HEAVY_ATOM_COUNT>
43

> <PUBCHEM_ATOM_DEF_STEREO_COUNT>
0

> <PUBCHEM_ATOM_UDEF_STEREO_COUNT>
3

> <PUBCHEM_BOND_DEF_STEREO_COUNT>
0

> <PUBCHEM_BOND_UDEF_STEREO_COUNT>
0

> <PUBCHEM_ISOTOPIC_ATOM_COUNT>
0

> <PUBCHEM_COMPONENT_COUNT>
1

> <PUBCHEM_CACTVS_TAUTO_COUNT>
68

> <PUBCHEM_COORDINATE_TYPE>
1
5
255

> <PUBCHEM_BONDANNOTATIONS>
14  23  8
14  28  8
15  25  8
15  28  8
19  44  3
22  23  8
22  25  8
24  31  8
24  32  8
27  54  3
31  36  8
32  37  8
33  60  3
34  36  8
34  37  8

$$$$

