   Color/Form
        Orthorhombic bipyramidal prisms, tablets from methanol, rhombic
   octahedra from ethanol
   from [1]HSDB

   Melting Point
        229-231 deg C
   from [2]HSDB

   Dissociation Constants
        pKa = 4.2
   from [3]HSDB

   Octanol/Water Partition Coefficient
        log Kow = 4.64 (est)
   from [4]HSDB

   Solubilities

     * Slightly soluble in water, alcohol, ether; quite soluble in hot
       alcohol, dilute acids
     * Soluble in chloroform, pyridine
     * In water, 6.76X10-2 mg/L at 25 deg C (est)

   from [5]HSDB

   Spectral Properties

     * UV max (methanol): 218, 260, 376 nm (log epsilon 4.27, 3.90, 4.02)
     * MASS: 1367 (National Bureau of Standards)
     * IR: 8281 (Sadtler Research Laboratories IR Grating Collection)
     * UV: 11453 (Sadtler Research Laboratories)

   from [6]HSDB

   Other Chemical/Physical Properties

     * Henry's Law constant = 2.46X10-9 atm-cu m/mol at 25 deg C (est)
     * Hydroxyl radical reaction rate constant = 2.03X10-10 cu
       cm/molec-sec at 25 deg C (est)
     * Slender needles, moderately soluble in water, alcohol
       /Hydrochloride dihydrate/

   from [7]HSDB

   Computed Properties
   Molecular Weight                  214.26306 [g/mol]
   Molecular Formula                 C[13]H[14]N[2]O
   XLogP3-AA                         1.2
   H-Bond Donor                      1
   H-Bond Acceptor                   3
   Rotatable Bond Count              1
   Tautomer Count                    5
   Exact Mass                        214.110613
   MonoIsotopic Mass                 214.110613
   Topological Polar Surface Area    33.6
   Heavy Atom Count                  16
   Formal Charge                     0
   Complexity                        504
   Isotope Atom Count                0
   Defined Atom Stereocenter Count   0
   Undefined Atom Stereocenter Count 0
   Defined Bond Stereocenter Count   0
   Undefined Bond Stereocenter Count 0
   Covalently-Bonded Unit Count      1
   Feature 3D Acceptor Count         2
   Feature 3D Donor Count            1
   Feature 3D Cation Count           1
   Feature 3D Ring Count             3
   Effective Rotor Count             1.6
   Conformer Sampling RMSD           0.6
   CID Conformer Count               [8]1

References

   1. http://toxnet.nlm.nih.gov/cgi-bin/sis/search/r?dbs+hsdb:@term+@rn+@rel+304-21-2
   2. http://toxnet.nlm.nih.gov/cgi-bin/sis/search/r?dbs+hsdb:@term+@rn+@rel+304-21-2
   3. http://toxnet.nlm.nih.gov/cgi-bin/sis/search/r?dbs+hsdb:@term+@rn+@rel+304-21-2
   4. http://toxnet.nlm.nih.gov/cgi-bin/sis/search/r?dbs+hsdb:@term+@rn+@rel+304-21-2
   5. http://toxnet.nlm.nih.gov/cgi-bin/sis/search/r?dbs+hsdb:@term+@rn+@rel+304-21-2
   6. http://toxnet.nlm.nih.gov/cgi-bin/sis/search/r?dbs+hsdb:@term+@rn+@rel+304-21-2
   7. http://toxnet.nlm.nih.gov/cgi-bin/sis/search/r?dbs+hsdb:@term+@rn+@rel+304-21-2
   8. http://pubchem.ncbi.nlm.nih.gov/vw3d/vw3d.cgi?cid=5280951
