   Color/Form
        COLORLESS CRYSTALS
   from [1]HSDB

   Melting Point
        62 DEG C
   from [2]HSDB

   Density/Specific Gravity
        1.33
   from [3]HSDB

   Solubilities
        SPARINGLY SOLUBLE IN WATER ... /&/ ORGANIC POLAR AND AROMATIC
   SOLVENTS
   from [4]HSDB

   Other Chemical/Physical Properties

     * UNDERGOES HYDROLYSIS WITH ALKALI TO PHENOL & ALKALI SULFONATE
     * OFF-WHITE OR PINKISH /COMMERCIAL GRADE/

   from [5]HSDB

   Computed Properties
   Molecular Weight                  268.71606 [g/mol]
   Molecular Formula                 C[12]H[9]ClO[3]S
   XLogP3                            3.7
   H-Bond Donor                      0
   H-Bond Acceptor                   3
   Rotatable Bond Count              3
   Exact Mass                        267.996093
   MonoIsotopic Mass                 267.996093
   Topological Polar Surface Area    51.8
   Heavy Atom Count                  17
   Formal Charge                     0
   Complexity                        322
   Isotope Atom Count                0
   Defined Atom Stereocenter Count   0
   Undefined Atom Stereocenter Count 0
   Defined Bond Stereocenter Count   0
   Undefined Bond Stereocenter Count 0
   Covalently-Bonded Unit Count      1
   Feature 3D Acceptor Count         2
   Feature 3D Ring Count             2
   Effective Rotor Count             3
   Conformer Sampling RMSD           0.6
   CID Conformer Count               [6]4

References

   1. http://toxnet.nlm.nih.gov/cgi-bin/sis/search/r?dbs+hsdb:@term+@rn+@rel+80-38-6
   2. http://toxnet.nlm.nih.gov/cgi-bin/sis/search/r?dbs+hsdb:@term+@rn+@rel+80-38-6
   3. http://toxnet.nlm.nih.gov/cgi-bin/sis/search/r?dbs+hsdb:@term+@rn+@rel+80-38-6
   4. http://toxnet.nlm.nih.gov/cgi-bin/sis/search/r?dbs+hsdb:@term+@rn+@rel+80-38-6
   5. http://toxnet.nlm.nih.gov/cgi-bin/sis/search/r?dbs+hsdb:@term+@rn+@rel+80-38-6
   6. http://pubchem.ncbi.nlm.nih.gov/vw3d/vw3d.cgi?cid=6636
