11497184
  -OEChem-07051213072D

 75 76  0     1  0  0  0  0  0999 V2000
    8.7320    1.8349    0.0000 P   0  0  0  0  0  0  0  0  0  0  0  0
    8.7320    0.8349    0.0000 O   0  0  0  0  0  0  0  0  0  0  0  0
    6.8660   -0.6651    0.0000 O   0  0  0  0  0  0  0  0  0  0  0  0
    7.8660   -3.6651    0.0000 O   0  0  0  0  0  0  0  0  0  0  0  0
    7.0000    2.5670    0.0000 O   0  0  0  0  0  0  0  0  0  0  0  0
    8.7320    2.8349    0.0000 O   0  0  0  0  0  0  0  0  0  0  0  0
    9.7320    1.8349    0.0000 O   0  0  0  0  0  0  0  0  0  0  0  0
    7.7320    1.8349    0.0000 O   0  0  0  0  0  0  0  0  0  0  0  0
    8.7320   -5.1651    0.0000 O   0  0  0  0  0  0  0  0  0  0  0  0
   10.3660    0.2010    0.0000 N   0  0  0  0  0  0  0  0  0  0  0  0
    4.0000    4.2990    0.0000 C   0  0  0  0  0  0  0  0  0  0  0  0
    3.5000    5.1651    0.0000 C   0  0  0  0  0  0  0  0  0  0  0  0
    3.5000    3.4330    0.0000 C   0  0  0  0  0  0  0  0  0  0  0  0
    7.8660   -0.6651    0.0000 C   0  0  2  0  0  0  0  0  0  0  0  0
    2.5000    5.1651    0.0000 C   0  0  0  0  0  0  0  0  0  0  0  0
    2.5000    3.4330    0.0000 C   0  0  0  0  0  0  0  0  0  0  0  0
    2.0000    4.2990    0.0000 C   0  0  0  0  0  0  0  0  0  0  0  0
    7.8660    0.3349    0.0000 C   0  0  1  0  0  0  0  0  0  0  0  0
    7.0000    0.8349    0.0000 C   0  0  0  0  0  0  0  0  0  0  0  0
    8.8660   -0.6651    0.0000 C   0  0  0  0  0  0  0  0  0  0  0  0
    7.8660   -1.6651    0.0000 C   0  0  0  0  0  0  0  0  0  0  0  0
    5.0000    4.2990    0.0000 C   0  0  0  0  0  0  0  0  0  0  0  0
    7.0000   -3.1651    0.0000 C   0  0  2  0  0  0  0  0  0  0  0  0
    6.5000    1.7010    0.0000 C   0  0  2  0  0  0  0  0  0  0  0  0
    6.1340   -3.6651    0.0000 C   0  0  1  0  0  0  0  0  0  0  0  0
    7.0000   -2.1651    0.0000 C   0  0  0  0  0  0  0  0  0  0  0  0
    9.3660    0.2010    0.0000 C   0  0  0  0  0  0  0  0  0  0  0  0
    5.2680   -3.1651    0.0000 C   0  0  0  0  0  0  0  0  0  0  0  0
    5.5000    3.4330    0.0000 C   0  0  0  0  0  0  0  0  0  0  0  0
    5.5000    1.7010    0.0000 C   0  0  0  0  0  0  0  0  0  0  0  0
    6.1340   -4.6651    0.0000 C   0  0  0  0  0  0  0  0  0  0  0  0
    5.0000    2.5670    0.0000 C   0  0  0  0  0  0  0  0  0  0  0  0
    4.4019   -3.6651    0.0000 C   0  0  0  0  0  0  0  0  0  0  0  0
    7.0000   -5.1651    0.0000 C   0  0  0  0  0  0  0  0  0  0  0  0
    7.8660   -4.6651    0.0000 C   0  0  0  0  0  0  0  0  0  0  0  0
    4.3100    3.7621    0.0000 H   0  0  0  0  0  0  0  0  0  0  0  0
    4.0826    5.3771    0.0000 H   0  0  0  0  0  0  0  0  0  0  0  0
    3.3923    5.7756    0.0000 H   0  0  0  0  0  0  0  0  0  0  0  0
    3.3923    2.8224    0.0000 H   0  0  0  0  0  0  0  0  0  0  0  0
    4.0826    3.2210    0.0000 H   0  0  0  0  0  0  0  0  0  0  0  0
    1.9174    3.2210    0.0000 H   0  0  0  0  0  0  0  0  0  0  0  0
    2.6077    2.8224    0.0000 H   0  0  0  0  0  0  0  0  0  0  0  0
    2.6077    5.7756    0.0000 H   0  0  0  0  0  0  0  0  0  0  0  0
    1.9174    5.3771    0.0000 H   0  0  0  0  0  0  0  0  0  0  0  0
    1.5250    4.6976    0.0000 H   0  0  0  0  0  0  0  0  0  0  0  0
    1.5250    3.9005    0.0000 H   0  0  0  0  0  0  0  0  0  0  0  0
    7.8660    0.9549    0.0000 H   0  0  0  0  0  0  0  0  0  0  0  0
    6.3894    0.7273    0.0000 H   0  0  0  0  0  0  0  0  0  0  0  0
    7.4384    1.2733    0.0000 H   0  0  0  0  0  0  0  0  0  0  0  0
    8.7584   -1.2756    0.0000 H   0  0  0  0  0  0  0  0  0  0  0  0
    9.4486   -0.8771    0.0000 H   0  0  0  0  0  0  0  0  0  0  0  0
    8.4030   -1.9751    0.0000 H   0  0  0  0  0  0  0  0  0  0  0  0
    5.3100    4.8360    0.0000 H   0  0  0  0  0  0  0  0  0  0  0  0
    7.5369   -2.8551    0.0000 H   0  0  0  0  0  0  0  0  0  0  0  0
    6.1900    2.2379    0.0000 H   0  0  0  0  0  0  0  0  0  0  0  0
    6.1340   -3.0451    0.0000 H   0  0  0  0  0  0  0  0  0  0  0  0
    6.4631   -1.8551    0.0000 H   0  0  0  0  0  0  0  0  0  0  0  0
    9.4737    0.8115    0.0000 H   0  0  0  0  0  0  0  0  0  0  0  0
    8.7834    0.4130    0.0000 H   0  0  0  0  0  0  0  0  0  0  0  0
    6.5560   -0.1281    0.0000 H   0  0  0  0  0  0  0  0  0  0  0  0
    5.6665   -2.6901    0.0000 H   0  0  0  0  0  0  0  0  0  0  0  0
    4.8694   -2.6901    0.0000 H   0  0  0  0  0  0  0  0  0  0  0  0
    6.1200    3.4330    0.0000 H   0  0  0  0  0  0  0  0  0  0  0  0
    5.1900    1.1640    0.0000 H   0  0  0  0  0  0  0  0  0  0  0  0
    5.5970   -4.9751    0.0000 H   0  0  0  0  0  0  0  0  0  0  0  0
    4.3800    2.5670    0.0000 H   0  0  0  0  0  0  0  0  0  0  0  0
    4.0919   -3.1281    0.0000 H   0  0  0  0  0  0  0  0  0  0  0  0
    3.8650   -3.9751    0.0000 H   0  0  0  0  0  0  0  0  0  0  0  0
    4.7119   -4.2020    0.0000 H   0  0  0  0  0  0  0  0  0  0  0  0
   10.6760   -0.3360    0.0000 H   0  0  0  0  0  0  0  0  0  0  0  0
   10.6760    0.7379    0.0000 H   0  0  0  0  0  0  0  0  0  0  0  0
    6.6900    3.1039    0.0000 H   0  0  0  0  0  0  0  0  0  0  0  0
    7.0000   -5.7851    0.0000 H   0  0  0  0  0  0  0  0  0  0  0  0
   10.0421    2.3719    0.0000 H   0  0  0  0  0  0  0  0  0  0  0  0
    9.2690    3.1449    0.0000 H   0  0  0  0  0  0  0  0  0  0  0  0
  1  2  1  0  0  0  0
  1  6  1  0  0  0  0
  1  7  1  0  0  0  0
  1  8  2  0  0  0  0
 18  2  1  1  0  0  0
 14  3  1  6  0  0  0
  3 60  1  0  0  0  0
  4 23  1  0  0  0  0
  4 35  1  0  0  0  0
 24  5  1  6  0  0  0
  5 72  1  0  0  0  0
  6 75  1  0  0  0  0
  7 74  1  0  0  0  0
  9 35  2  0  0  0  0
 10 27  1  0  0  0  0
 10 70  1  0  0  0  0
 10 71  1  0  0  0  0
 11 12  1  0  0  0  0
 11 13  1  0  0  0  0
 11 22  1  0  0  0  0
 11 36  1  0  0  0  0
 12 15  1  0  0  0  0
 12 37  1  0  0  0  0
 12 38  1  0  0  0  0
 13 16  1  0  0  0  0
 13 39  1  0  0  0  0
 13 40  1  0  0  0  0
 14 18  1  0  0  0  0
 14 20  1  0  0  0  0
 14 21  1  0  0  0  0
 15 17  1  0  0  0  0
 15 43  1  0  0  0  0
 15 44  1  0  0  0  0
 16 17  1  0  0  0  0
 16 41  1  0  0  0  0
 16 42  1  0  0  0  0
 17 45  1  0  0  0  0
 17 46  1  0  0  0  0
 18 19  1  0  0  0  0
 18 47  1  0  0  0  0
 19 24  1  0  0  0  0
 19 48  1  0  0  0  0
 19 49  1  0  0  0  0
 20 27  1  0  0  0  0
 20 50  1  0  0  0  0
 20 51  1  0  0  0  0
 21 26  2  0  0  0  0
 21 52  1  0  0  0  0
 22 29  2  0  0  0  0
 22 53  1  0  0  0  0
 23 25  1  0  0  0  0
 23 26  1  6  0  0  0
 23 54  1  0  0  0  0
 24 30  1  0  0  0  0
 24 55  1  0  0  0  0
 25 28  1  6  0  0  0
 25 31  1  0  0  0  0
 25 56  1  0  0  0  0
 26 57  1  0  0  0  0
 27 58  1  0  0  0  0
 27 59  1  0  0  0  0
 28 33  1  0  0  0  0
 28 61  1  0  0  0  0
 28 62  1  0  0  0  0
 29 32  1  0  0  0  0
 29 63  1  0  0  0  0
 30 32  2  0  0  0  0
 30 64  1  0  0  0  0
 31 34  2  0  0  0  0
 31 65  1  0  0  0  0
 32 66  1  0  0  0  0
 33 67  1  0  0  0  0
 33 68  1  0  0  0  0
 33 69  1  0  0  0  0
 34 35  1  0  0  0  0
 34 73  1  0  0  0  0
M  END
> <PUBCHEM_COMPOUND_CID>
11497184

> <PUBCHEM_COMPOUND_CANONICALIZED>
1

> <PUBCHEM_CACTVS_COMPLEXITY>
829

> <PUBCHEM_CACTVS_HBOND_ACCEPTOR>
9

> <PUBCHEM_CACTVS_HBOND_DONOR>
5

> <PUBCHEM_CACTVS_ROTATABLE_BOND>
13

> <PUBCHEM_CACTVS_SUBSKEYS>
AAADcfB6PAIAAAAAAAAAAAAAAAAAAAAAAAAwQAAAAAAAAAAAAAAAHgAQCCAADVThgAYCCABABxCIQCDSCIAAAAAgAAAICIAAAEgJFAIAoQACUAAH0AAJsYPwwAAOAAAAAAAAAAAAAAAAAAAAAAAAAAAAAA==

> <PUBCHEM_IUPAC_OPENEYE_NAME>
[(1R,3R,4Z,6Z)-1-[(E,1R)-1-(2-aminoethyl)-3-[(2S,3S)-3-ethyl-6-oxo-2,3-dihydropyran-2-yl]-1-hydroxy-allyl]-7-cyclohexyl-3-hydroxy-hepta-4,6-dienyl] dihydrogen phosphate

> <PUBCHEM_IUPAC_CAS_NAME>
[(1E,3R,4R,6R,7Z,9Z)-3-(2-aminoethyl)-10-cyclohexyl-1-[(2S,3S)-3-ethyl-6-oxo-2,3-dihydropyran-2-yl]-3,6-dihydroxydeca-1,7,9-trien-4-yl] dihydrogen phosphate

> <PUBCHEM_IUPAC_NAME>
[(1E,3R,4R,6R,7Z,9Z)-3-(2-aminoethyl)-10-cyclohexyl-1-[(2S,3S)-3-ethyl-6-oxo-2,3-dihydropyran-2-yl]-3,6-dihydroxydeca-1,7,9-trien-4-yl] dihydrogen phosphate

> <PUBCHEM_IUPAC_SYSTEMATIC_NAME>
[(1E,3R,4R,6R,7Z,9Z)-3-(2-azanylethyl)-10-cyclohexyl-1-[(2S,3S)-3-ethyl-6-oxidanylidene-2,3-dihydropyran-2-yl]-3,6-bis(oxidanyl)deca-1,7,9-trien-4-yl] dihydrogen phosphate

> <PUBCHEM_IUPAC_TRADITIONAL_NAME>
[(1R,3R,4Z,6Z)-1-[(E,1R)-1-(2-aminoethyl)-3-[(2S,3S)-3-ethyl-6-keto-2,3-dihydropyran-2-yl]-1-hydroxy-allyl]-7-cyclohexyl-3-hydroxy-hepta-4,6-dienyl] dihydrogen phosphate

> <PUBCHEM_IUPAC_INCHI>
InChI=1S/C25H40NO8P/c1-2-20-12-13-24(28)33-22(20)14-15-25(29,16-17-26)23(34-35(30,31)32)18-21(27)11-7-6-10-19-8-4-3-5-9-19/h6-7,10-15,19-23,27,29H,2-5,8-9,16-18,26H2,1H3,(H2,30,31,32)/b10-6-,11-7-,15-14+/t20-,21-,22-,23+,25-/m0/s1

> <PUBCHEM_IUPAC_INCHIKEY>
GAIPQMSJLNWRGC-MZAVDHTQSA-N

> <PUBCHEM_XLOGP3_AA>
-0.3

> <PUBCHEM_EXACT_MASS>
513.249154

> <PUBCHEM_MOLECULAR_FORMULA>
C25H40NO8P

> <PUBCHEM_MOLECULAR_WEIGHT>
513.560762

> <PUBCHEM_OPENEYE_CAN_SMILES>
CCC1C=CC(=O)OC1C=CC(CCN)(C(CC(C=CC=CC2CCCCC2)O)OP(=O)(O)O)O

> <PUBCHEM_OPENEYE_ISO_SMILES>
CC[C@H]1C=CC(=O)O[C@H]1/C=C/[C@](CCN)([C@@H](C[C@H](/C=C\C=C/C2CCCCC2)O)OP(=O)(O)O)O

> <PUBCHEM_CACTVS_TPSA>
160

> <PUBCHEM_MONOISOTOPIC_WEIGHT>
513.249154

> <PUBCHEM_TOTAL_CHARGE>
0

> <PUBCHEM_HEAVY_ATOM_COUNT>
35

> <PUBCHEM_ATOM_DEF_STEREO_COUNT>
5

> <PUBCHEM_ATOM_UDEF_STEREO_COUNT>
0

> <PUBCHEM_BOND_DEF_STEREO_COUNT>
3

> <PUBCHEM_BOND_UDEF_STEREO_COUNT>
0

> <PUBCHEM_ISOTOPIC_ATOM_COUNT>
0

> <PUBCHEM_COMPONENT_COUNT>
1

> <PUBCHEM_CACTVS_TAUTO_COUNT>
1

> <PUBCHEM_COORDINATE_TYPE>
1
5
255

> <PUBCHEM_BONDANNOTATIONS>
18  2  5
23  26  6
25  28  6
14  3  6
24  5  6

$$$$

