5282264
  -OEChem-07051213042D

 66 66  0     1  0  0  0  0  0999 V2000
    9.4139   -0.9531    0.0000 O   0  0  0  0  0  0  0  0  0  0  0  0
    8.9139   -4.1100    0.0000 O   0  0  0  0  0  0  0  0  0  0  0  0
    6.5474   -2.4010    0.0000 O   0  0  0  0  0  0  0  0  0  0  0  0
   10.8151    0.0649    0.0000 O   0  0  0  0  0  0  0  0  0  0  0  0
    2.9511   -2.1431    0.0000 O   0  0  0  0  0  0  0  0  0  0  0  0
    3.4863   -0.4958    0.0000 O   0  0  0  0  0  0  0  0  0  0  0  0
    4.8532   -2.7612    0.0000 O   0  0  0  0  0  0  0  0  0  0  0  0
   10.0016   -1.7622    0.0000 C   0  0  2  0  0  0  0  0  0  0  0  0
   10.5894   -0.9531    0.0000 C   0  0  0  0  0  0  0  0  0  0  0  0
    9.1926   -2.3499    0.0000 C   0  0  0  0  0  0  0  0  0  0  0  0
   10.8107   -2.3499    0.0000 C   0  0  0  0  0  0  0  0  0  0  0  0
    9.5016   -3.3010    0.0000 C   0  0  0  0  0  0  0  0  0  0  0  0
   10.5016   -3.3010    0.0000 C   0  0  0  0  0  0  0  0  0  0  0  0
   11.5840   -1.0577    0.0000 C   0  0  0  0  0  0  0  0  0  0  0  0
    8.2416   -2.0409    0.0000 C   0  0  0  0  0  0  0  0  0  0  0  0
   11.7650    0.6649    0.0000 C   0  0  0  0  0  0  0  0  0  0  0  0
   12.3528    1.4739    0.0000 C   0  0  0  0  0  0  0  0  0  0  0  0
   12.1717   -0.2487    0.0000 C   0  0  0  0  0  0  0  0  0  0  0  0
   11.9460    2.3874    0.0000 C   0  0  0  0  0  0  0  0  0  0  0  0
    8.0337   -1.0628    0.0000 C   0  0  0  0  0  0  0  0  0  0  0  0
    6.3395   -1.4229    0.0000 C   0  0  2  0  0  0  0  0  0  0  0  0
   12.5338    3.1965    0.0000 C   0  0  0  0  0  0  0  0  0  0  0  0
    9.8206   -0.0396    0.0000 C   0  0  0  0  0  0  0  0  0  0  0  0
    5.3884   -1.1139    0.0000 C   0  0  0  0  0  0  0  0  0  0  0  0
    7.0826   -0.7538    0.0000 C   0  0  0  0  0  0  0  0  0  0  0  0
    4.6453   -1.7830    0.0000 C   0  0  0  0  0  0  0  0  0  0  0  0
   12.1271    4.1100    0.0000 C   0  0  0  0  0  0  0  0  0  0  0  0
    9.2328    0.7694    0.0000 C   0  0  0  0  0  0  0  0  0  0  0  0
    3.6942   -1.4740    0.0000 C   0  0  0  0  0  0  0  0  0  0  0  0
    5.8042   -3.0702    0.0000 C   0  0  0  0  0  0  0  0  0  0  0  0
    6.0121   -4.0483    0.0000 C   0  0  0  0  0  0  0  0  0  0  0  0
    2.0000   -1.8341    0.0000 C   0  0  0  0  0  0  0  0  0  0  0  0
   10.7603   -0.3572    0.0000 H   0  0  0  0  0  0  0  0  0  0  0  0
   10.0322   -0.6814    0.0000 H   0  0  0  0  0  0  0  0  0  0  0  0
   11.4003   -2.1584    0.0000 H   0  0  0  0  0  0  0  0  0  0  0  0
   11.8361   -1.6241    0.0000 H   0  0  0  0  0  0  0  0  0  0  0  0
   10.8661   -3.8026    0.0000 H   0  0  0  0  0  0  0  0  0  0  0  0
    7.7808   -2.4558    0.0000 H   0  0  0  0  0  0  0  0  0  0  0  0
   11.3343    1.1109    0.0000 H   0  0  0  0  0  0  0  0  0  0  0  0
   11.2510    0.3182    0.0000 H   0  0  0  0  0  0  0  0  0  0  0  0
   12.7835    1.0279    0.0000 H   0  0  0  0  0  0  0  0  0  0  0  0
   12.8668    1.8206    0.0000 H   0  0  0  0  0  0  0  0  0  0  0  0
   12.7883   -0.3135    0.0000 H   0  0  0  0  0  0  0  0  0  0  0  0
   11.5154    2.8334    0.0000 H   0  0  0  0  0  0  0  0  0  0  0  0
   11.4320    2.0408    0.0000 H   0  0  0  0  0  0  0  0  0  0  0  0
    8.4944   -0.6479    0.0000 H   0  0  0  0  0  0  0  0  0  0  0  0
    6.9291   -1.6145    0.0000 H   0  0  0  0  0  0  0  0  0  0  0  0
   12.9645    2.7505    0.0000 H   0  0  0  0  0  0  0  0  0  0  0  0
   13.0478    3.5432    0.0000 H   0  0  0  0  0  0  0  0  0  0  0  0
    5.6795   -0.5664    0.0000 H   0  0  0  0  0  0  0  0  0  0  0  0
    4.8998   -0.7322    0.0000 H   0  0  0  0  0  0  0  0  0  0  0  0
    6.9537   -0.1473    0.0000 H   0  0  0  0  0  0  0  0  0  0  0  0
    4.3542   -2.3304    0.0000 H   0  0  0  0  0  0  0  0  0  0  0  0
    5.1338   -2.1647    0.0000 H   0  0  0  0  0  0  0  0  0  0  0  0
   12.6935    4.3622    0.0000 H   0  0  0  0  0  0  0  0  0  0  0  0
   11.8749    4.6764    0.0000 H   0  0  0  0  0  0  0  0  0  0  0  0
   11.5607    3.8578    0.0000 H   0  0  0  0  0  0  0  0  0  0  0  0
    9.7344    1.1338    0.0000 H   0  0  0  0  0  0  0  0  0  0  0  0
    8.8684    1.2710    0.0000 H   0  0  0  0  0  0  0  0  0  0  0  0
    8.7312    0.4050    0.0000 H   0  0  0  0  0  0  0  0  0  0  0  0
    5.4057   -4.1772    0.0000 H   0  0  0  0  0  0  0  0  0  0  0  0
    6.1410   -4.6548    0.0000 H   0  0  0  0  0  0  0  0  0  0  0  0
    6.6186   -3.9194    0.0000 H   0  0  0  0  0  0  0  0  0  0  0  0
    2.1916   -1.2444    0.0000 H   0  0  0  0  0  0  0  0  0  0  0  0
    1.4103   -1.6425    0.0000 H   0  0  0  0  0  0  0  0  0  0  0  0
    1.8084   -2.4238    0.0000 H   0  0  0  0  0  0  0  0  0  0  0  0
  8  1  1  1  0  0  0
  1 23  1  0  0  0  0
  2 12  2  0  0  0  0
 21  3  1  6  0  0  0
  3 30  1  0  0  0  0
  4 23  2  0  0  0  0
  5 29  1  0  0  0  0
  5 32  1  0  0  0  0
  6 29  2  0  0  0  0
  7 30  2  0  0  0  0
  8  9  1  0  0  0  0
  8 10  1  0  0  0  0
  8 11  1  0  0  0  0
  9 14  1  0  0  0  0
  9 33  1  0  0  0  0
  9 34  1  0  0  0  0
 10 12  1  0  0  0  0
 10 15  2  0  0  0  0
 11 13  2  0  0  0  0
 11 35  1  0  0  0  0
 12 13  1  0  0  0  0
 13 37  1  0  0  0  0
 14 18  2  0  0  0  0
 14 36  1  0  0  0  0
 15 20  1  0  0  0  0
 15 38  1  0  0  0  0
 16 17  1  0  0  0  0
 16 18  1  0  0  0  0
 16 39  1  0  0  0  0
 16 40  1  0  0  0  0
 17 19  1  0  0  0  0
 17 41  1  0  0  0  0
 17 42  1  0  0  0  0
 18 43  1  0  0  0  0
 19 22  1  0  0  0  0
 19 44  1  0  0  0  0
 19 45  1  0  0  0  0
 20 25  2  0  0  0  0
 20 46  1  0  0  0  0
 21 24  1  0  0  0  0
 21 25  1  0  0  0  0
 21 47  1  0  0  0  0
 22 27  1  0  0  0  0
 22 48  1  0  0  0  0
 22 49  1  0  0  0  0
 23 28  1  0  0  0  0
 24 26  1  0  0  0  0
 24 50  1  0  0  0  0
 24 51  1  0  0  0  0
 25 52  1  0  0  0  0
 26 29  1  0  0  0  0
 26 53  1  0  0  0  0
 26 54  1  0  0  0  0
 27 55  1  0  0  0  0
 27 56  1  0  0  0  0
 27 57  1  0  0  0  0
 28 58  1  0  0  0  0
 28 59  1  0  0  0  0
 28 60  1  0  0  0  0
 30 31  1  0  0  0  0
 31 61  1  0  0  0  0
 31 62  1  0  0  0  0
 31 63  1  0  0  0  0
 32 64  1  0  0  0  0
 32 65  1  0  0  0  0
 32 66  1  0  0  0  0
M  END
> <PUBCHEM_COMPOUND_CID>
5282264

> <PUBCHEM_COMPOUND_CANONICALIZED>
1

> <PUBCHEM_CACTVS_COMPLEXITY>
788

> <PUBCHEM_CACTVS_HBOND_ACCEPTOR>
7

> <PUBCHEM_CACTVS_HBOND_DONOR>
0

> <PUBCHEM_CACTVS_ROTATABLE_BOND>
16

> <PUBCHEM_CACTVS_SUBSKEYS>
AAADcfB4OAAAAAAAAAAAAAAAAAAAAQAAAAAAAAAAAAAAAAAAAAAAGgAAAAAADFSggAICCAAABACIAqDSCAAAAAAgAAAICAEAAEgIBBYAIQACEAAE4AAIoYPKAAAOAAAAAAAAAAAAAAAAAAAAAAAAAAAAAA==

> <PUBCHEM_IUPAC_OPENEYE_NAME>
methyl (Z,4R,7E)-4-acetoxy-7-[(2S)-2-acetoxy-2-[(Z)-oct-2-enyl]-5-oxo-cyclopent-3-en-1-ylidene]hept-5-enoate

> <PUBCHEM_IUPAC_CAS_NAME>
(Z,4R,7E)-4-acetyloxy-7-[(2S)-2-acetyloxy-2-[(Z)-oct-2-enyl]-5-oxo-1-cyclopent-3-enylidene]-5-heptenoic acid methyl ester

> <PUBCHEM_IUPAC_NAME>
methyl (Z,4R,7E)-4-acetyloxy-7-[(2S)-2-acetyloxy-2-[(Z)-oct-2-enyl]-5-oxocyclopent-3-en-1-ylidene]hept-5-enoate

> <PUBCHEM_IUPAC_SYSTEMATIC_NAME>
methyl (Z,4R,7E)-4-acetyloxy-7-[(2S)-2-acetyloxy-2-[(Z)-oct-2-enyl]-5-oxidanylidene-cyclopent-3-en-1-ylidene]hept-5-enoate

> <PUBCHEM_IUPAC_TRADITIONAL_NAME>
(Z,4R,7E)-4-acetoxy-7-[(2S)-2-acetoxy-5-keto-2-[(Z)-oct-2-enyl]cyclopent-3-en-1-ylidene]hept-5-enoic acid methyl ester

> <PUBCHEM_IUPAC_INCHI>
InChI=1S/C25H34O7/c1-5-6-7-8-9-10-17-25(32-20(3)27)18-16-23(28)22(25)13-11-12-21(31-19(2)26)14-15-24(29)30-4/h9-13,16,18,21H,5-8,14-15,17H2,1-4H3/b10-9-,12-11-,22-13-/t21-,25-/m0/s1

> <PUBCHEM_IUPAC_INCHIKEY>
QXSYLWTUKSQQCP-NTJQXXRSSA-N

> <PUBCHEM_XLOGP3_AA>
4.3

> <PUBCHEM_EXACT_MASS>
446.230453

> <PUBCHEM_MOLECULAR_FORMULA>
C25H34O7

> <PUBCHEM_MOLECULAR_WEIGHT>
446.53326

> <PUBCHEM_OPENEYE_CAN_SMILES>
CCCCCC=CCC1(C=CC(=O)C1=CC=CC(CCC(=O)OC)OC(=O)C)OC(=O)C

> <PUBCHEM_OPENEYE_ISO_SMILES>
CCCCC/C=C\C[C@@]\1(C=CC(=O)/C1=C/C=C\[C@@H](CCC(=O)OC)OC(=O)C)OC(=O)C

> <PUBCHEM_CACTVS_TPSA>
96

> <PUBCHEM_MONOISOTOPIC_WEIGHT>
446.230453

> <PUBCHEM_TOTAL_CHARGE>
0

> <PUBCHEM_HEAVY_ATOM_COUNT>
32

> <PUBCHEM_ATOM_DEF_STEREO_COUNT>
2

> <PUBCHEM_ATOM_UDEF_STEREO_COUNT>
0

> <PUBCHEM_BOND_DEF_STEREO_COUNT>
3

> <PUBCHEM_BOND_UDEF_STEREO_COUNT>
0

> <PUBCHEM_ISOTOPIC_ATOM_COUNT>
0

> <PUBCHEM_COMPONENT_COUNT>
1

> <PUBCHEM_CACTVS_TAUTO_COUNT>
1

> <PUBCHEM_COORDINATE_TYPE>
1
5
255

> <PUBCHEM_BONDANNOTATIONS>
8  1  5
21  3  6

$$$$

