443815
  -OEChem-07051213032D

 79 84  0     1  0  0  0  0  0999 V2000
    5.2829   -2.5014    0.0000 O   0  0  0  0  0  0  0  0  0  0  0  0
    2.5393   -3.7171    0.0000 O   0  0  0  0  0  0  0  0  0  0  0  0
    4.8361   -5.7020    0.0000 O   0  0  0  0  0  0  0  0  0  0  0  0
    6.6183   -3.6045    0.0000 O   0  0  0  0  0  0  0  0  0  0  0  0
    6.0297   -3.8312    0.0000 O   0  0  0  0  0  0  0  0  0  0  0  0
    4.2936    3.4247    0.0000 O   0  0  0  0  0  0  0  0  0  0  0  0
    6.1343   -1.3148    0.0000 O   0  0  0  0  0  0  0  0  0  0  0  0
    2.5514    0.3588    0.0000 O   0  0  0  0  0  0  0  0  0  0  0  0
    9.2274   -3.1657    0.0000 O   0  0  0  0  0  0  0  0  0  0  0  0
    3.3956    1.8903    0.0000 O   0  0  0  0  0  0  0  0  0  0  0  0
    6.8859    4.9347    0.0000 O   0  0  0  0  0  0  0  0  0  0  0  0
    5.1500    5.9280    0.0000 O   0  0  0  0  0  0  0  0  0  0  0  0
    4.2995   -2.6827    0.0000 C   0  0  1  0  0  0  0  0  0  0  0  0
    3.4014   -3.2104    0.0000 C   0  0  2  0  0  0  0  0  0  0  0  0
    3.3931   -4.2954    0.0000 C   0  0  0  0  0  0  0  0  0  0  0  0
    4.3327   -4.8379    0.0000 C   0  0  2  0  0  0  0  0  0  0  0  0
    5.2682   -4.2882    0.0000 C   0  0  0  0  0  0  0  0  0  0  0  0
    5.2514   -3.2033    0.0000 C   0  0  0  0  0  0  0  0  0  0  0  0
    4.2834   -1.6412    0.0000 C   0  0  0  0  0  0  0  0  0  0  0  0
    2.4994   -2.6896    0.0000 C   0  0  0  0  0  0  0  0  0  0  0  0
    3.4174   -1.1412    0.0000 C   0  0  0  0  0  0  0  0  0  0  0  0
    3.8361   -5.7058    0.0000 C   0  0  0  0  0  0  0  0  0  0  0  0
    6.2690   -2.6675    0.0000 C   0  0  2  0  0  0  0  0  0  0  0  0
    2.5074   -1.6480    0.0000 C   0  0  0  0  0  0  0  0  0  0  0  0
    5.1495   -1.1412    0.0000 C   0  0  0  0  0  0  0  0  0  0  0  0
    6.9059   -1.8965    0.0000 C   0  0  0  0  0  0  0  0  0  0  0  0
    3.4174   -0.1412    0.0000 C   0  0  0  0  0  0  0  0  0  0  0  0
    5.1495   -0.1412    0.0000 C   0  0  0  0  0  0  0  0  0  0  0  0
    4.2834    0.3588    0.0000 C   0  0  0  0  0  0  0  0  0  0  0  0
    7.8920   -2.0626    0.0000 C   0  0  0  0  0  0  0  0  0  0  0  0
    7.6044   -3.7706    0.0000 C   0  0  2  0  0  0  0  0  0  0  0  0
    8.2413   -2.9996    0.0000 C   0  0  1  0  0  0  0  0  0  0  0  0
    5.1616    2.9281    0.0000 C   0  0  1  0  0  0  0  0  0  0  0  0
    5.1654    1.9281    0.0000 C   0  0  0  0  0  0  0  0  0  0  0  0
    4.2674    1.4003    0.0000 C   0  0  0  0  0  0  0  0  0  0  0  0
    6.0256    3.4314    0.0000 C   0  0  0  0  0  0  0  0  0  0  0  0
    6.0595    0.3657    0.0000 C   0  0  0  0  0  0  0  0  0  0  0  0
    6.0218    4.4314    0.0000 C   0  0  2  0  0  0  0  0  0  0  0  0
    5.1538    4.9281    0.0000 C   0  0  1  0  0  0  0  0  0  0  0  0
    4.2898    4.4247    0.0000 C   0  0  1  0  0  0  0  0  0  0  0  0
    6.0675    1.4073    0.0000 C   0  0  0  0  0  0  0  0  0  0  0  0
    7.9537   -4.7076    0.0000 C   0  0  0  0  0  0  0  0  0  0  0  0
    3.4218    4.9214    0.0000 C   0  0  0  0  0  0  0  0  0  0  0  0
    2.7831   -4.1846    0.0000 H   0  0  0  0  0  0  0  0  0  0  0  0
    3.1795   -4.8775    0.0000 H   0  0  0  0  0  0  0  0  0  0  0  0
    5.4862   -4.8686    0.0000 H   0  0  0  0  0  0  0  0  0  0  0  0
    5.8773   -4.1727    0.0000 H   0  0  0  0  0  0  0  0  0  0  0  0
    1.9612   -2.9976    0.0000 H   0  0  0  0  0  0  0  0  0  0  0  0
    3.2979   -5.3979    0.0000 H   0  0  0  0  0  0  0  0  0  0  0  0
    3.5281   -6.2440    0.0000 H   0  0  0  0  0  0  0  0  0  0  0  0
    4.3742   -6.0138    0.0000 H   0  0  0  0  0  0  0  0  0  0  0  0
    6.0525   -2.0866    0.0000 H   0  0  0  0  0  0  0  0  0  0  0  0
    1.9741   -1.3318    0.0000 H   0  0  0  0  0  0  0  0  0  0  0  0
    2.0000   -3.4112    0.0000 H   0  0  0  0  0  0  0  0  0  0  0  0
    7.1135   -1.3123    0.0000 H   0  0  0  0  0  0  0  0  0  0  0  0
    6.3666   -1.5907    0.0000 H   0  0  0  0  0  0  0  0  0  0  0  0
    4.5281   -6.2401    0.0000 H   0  0  0  0  0  0  0  0  0  0  0  0
    8.5018   -1.9502    0.0000 H   0  0  0  0  0  0  0  0  0  0  0  0
    7.8872   -1.4426    0.0000 H   0  0  0  0  0  0  0  0  0  0  0  0
    7.2096   -4.2486    0.0000 H   0  0  0  0  0  0  0  0  0  0  0  0
    8.6361   -2.5216    0.0000 H   0  0  0  0  0  0  0  0  0  0  0  0
    5.8993    2.5059    0.0000 H   0  0  0  0  0  0  0  0  0  0  0  0
    6.2399    2.8496    0.0000 H   0  0  0  0  0  0  0  0  0  0  0  0
    6.6358    3.5414    0.0000 H   0  0  0  0  0  0  0  0  0  0  0  0
    6.5928    0.0495    0.0000 H   0  0  0  0  0  0  0  0  0  0  0  0
    6.0194    5.0514    0.0000 H   0  0  0  0  0  0  0  0  0  0  0  0
    5.6896    5.2401    0.0000 H   0  0  0  0  0  0  0  0  0  0  0  0
    3.7540    4.1127    0.0000 H   0  0  0  0  0  0  0  0  0  0  0  0
    6.6056    1.7152    0.0000 H   0  0  0  0  0  0  0  0  0  0  0  0
    7.3727   -4.9242    0.0000 H   0  0  0  0  0  0  0  0  0  0  0  0
    8.1702   -5.2886    0.0000 H   0  0  0  0  0  0  0  0  0  0  0  0
    8.5346   -4.4911    0.0000 H   0  0  0  0  0  0  0  0  0  0  0  0
    9.6223   -2.6876    0.0000 H   0  0  0  0  0  0  0  0  0  0  0  0
    3.7297    5.4595    0.0000 H   0  0  0  0  0  0  0  0  0  0  0  0
    2.8837    5.2293    0.0000 H   0  0  0  0  0  0  0  0  0  0  0  0
    3.1139    4.3833    0.0000 H   0  0  0  0  0  0  0  0  0  0  0  0
    2.8623    1.5741    0.0000 H   0  0  0  0  0  0  0  0  0  0  0  0
    7.4240    4.6268    0.0000 H   0  0  0  0  0  0  0  0  0  0  0  0
    5.6857    6.2401    0.0000 H   0  0  0  0  0  0  0  0  0  0  0  0
 13  1  1  6  0  0  0
 23  1  1  1  0  0  0
 14  2  1  6  0  0  0
  2 54  1  0  0  0  0
 16  3  1  6  0  0  0
  3 57  1  0  0  0  0
  4 23  1  0  0  0  0
  4 31  1  0  0  0  0
  5 18  2  0  0  0  0
  6 33  1  0  0  0  0
  6 40  1  0  0  0  0
  7 25  2  0  0  0  0
  8 27  2  0  0  0  0
 32  9  1  6  0  0  0
  9 73  1  0  0  0  0
 10 35  1  0  0  0  0
 10 77  1  0  0  0  0
 38 11  1  6  0  0  0
 11 78  1  0  0  0  0
 39 12  1  1  0  0  0
 12 79  1  0  0  0  0
 13 14  1  0  0  0  0
 13 18  1  0  0  0  0
 13 19  1  0  0  0  0
 14 15  1  0  0  0  0
 14 20  1  0  0  0  0
 15 16  1  0  0  0  0
 15 44  1  0  0  0  0
 15 45  1  0  0  0  0
 16 17  1  0  0  0  0
 16 22  1  0  0  0  0
 17 18  1  0  0  0  0
 17 46  1  0  0  0  0
 17 47  1  0  0  0  0
 19 21  2  0  0  0  0
 19 25  1  0  0  0  0
 20 24  2  0  0  0  0
 20 48  1  0  0  0  0
 21 24  1  0  0  0  0
 21 27  1  0  0  0  0
 22 49  1  0  0  0  0
 22 50  1  0  0  0  0
 22 51  1  0  0  0  0
 23 26  1  0  0  0  0
 23 52  1  0  0  0  0
 24 53  1  0  0  0  0
 25 28  1  0  0  0  0
 26 30  1  0  0  0  0
 26 55  1  0  0  0  0
 26 56  1  0  0  0  0
 27 29  1  0  0  0  0
 28 29  2  0  0  0  0
 28 37  1  0  0  0  0
 29 35  1  0  0  0  0
 30 32  1  0  0  0  0
 30 58  1  0  0  0  0
 30 59  1  0  0  0  0
 31 32  1  0  0  0  0
 31 42  1  6  0  0  0
 31 60  1  0  0  0  0
 32 61  1  0  0  0  0
 33 34  1  0  0  0  0
 33 36  1  0  0  0  0
 33 62  1  1  0  0  0
 34 35  2  0  0  0  0
 34 41  1  0  0  0  0
 36 38  1  0  0  0  0
 36 63  1  0  0  0  0
 36 64  1  0  0  0  0
 37 41  2  0  0  0  0
 37 65  1  0  0  0  0
 38 39  1  0  0  0  0
 38 66  1  0  0  0  0
 39 40  1  0  0  0  0
 39 67  1  0  0  0  0
 40 43  1  6  0  0  0
 40 68  1  0  0  0  0
 41 69  1  0  0  0  0
 42 70  1  0  0  0  0
 42 71  1  0  0  0  0
 42 72  1  0  0  0  0
 43 74  1  0  0  0  0
 43 75  1  0  0  0  0
 43 76  1  0  0  0  0
M  END
> <PUBCHEM_COMPOUND_CID>
443815

> <PUBCHEM_COMPOUND_CANONICALIZED>
1

> <PUBCHEM_CACTVS_COMPLEXITY>
1260

> <PUBCHEM_CACTVS_HBOND_ACCEPTOR>
12

> <PUBCHEM_CACTVS_HBOND_DONOR>
6

> <PUBCHEM_CACTVS_ROTATABLE_BOND>
3

> <PUBCHEM_CACTVS_SUBSKEYS>
AAADcfB4PAAAAAAAAAAAAAAAAAAAAAAAAAA0aIECAAAAAACBAAAAGgAACAAADFSwmAMyDoAABgCIAqBSAAICAAAkIAAIiAFECMgZNzaCNR6icUAl4BEPuYfL7PzOwAADAAAYAADCAAYQADCAAAAAAAAAAA==

> <PUBCHEM_IUPAC_OPENEYE_NAME>
(3R,4aR,12bS)-9-[(2R,4R,5S,6R)-4,5-dihydroxy-6-methyl-tetrahydropyran-2-yl]-3,4a,8-trihydroxy-12b-[(2S,5S,6S)-5-hydroxy-6-methyl-tetrahydropyran-2-yl]oxy-3-methyl-2,4-dihydrobenzo[a]anthracene-1,7,12-trione

> <PUBCHEM_IUPAC_CAS_NAME>
(3R,4aR,12bS)-9-[(2R,4R,5S,6R)-4,5-dihydroxy-6-methyl-2-oxanyl]-3,4a,8-trihydroxy-12b-[[(2S,5S,6S)-5-hydroxy-6-methyl-2-oxanyl]oxy]-3-methyl-2,4-dihydrobenzo[a]anthracene-1,7,12-trione

> <PUBCHEM_IUPAC_NAME>
(3R,4aR,12bS)-9-[(2R,4R,5S,6R)-4,5-dihydroxy-6-methyloxan-2-yl]-3,4a,8-trihydroxy-12b-[(2S,5S,6S)-5-hydroxy-6-methyloxan-2-yl]oxy-3-methyl-2,4-dihydrobenzo[a]anthracene-1,7,12-trione

> <PUBCHEM_IUPAC_SYSTEMATIC_NAME>
(3R,4aR,12bS)-3-methyl-9-[(2R,4R,5S,6R)-6-methyl-4,5-bis(oxidanyl)oxan-2-yl]-12b-[(2S,5S,6S)-6-methyl-5-oxidanyl-oxan-2-yl]oxy-3,4a,8-tris(oxidanyl)-2,4-dihydrobenzo[a]anthracene-1,7,12-trione

> <PUBCHEM_IUPAC_TRADITIONAL_NAME>
(3R,4aR,12bS)-9-[(2R,4R,5S,6R)-4,5-dihydroxy-6-methyl-tetrahydropyran-2-yl]-3,4a,8-trihydroxy-12b-[(2S,5S,6S)-5-hydroxy-6-methyl-tetrahydropyran-2-yl]oxy-3-methyl-2,4-dihydrobenz[a]anthracene-1,7,12-trione

> <PUBCHEM_IUPAC_INCHI>
InChI=1S/C31H36O12/c1-13-18(32)6-7-22(42-13)43-31-21(34)11-29(3,39)12-30(31,40)9-8-17-24(31)28(38)16-5-4-15(26(36)23(16)27(17)37)20-10-19(33)25(35)14(2)41-20/h4-5,8-9,13-14,18-20,22,25,32-33,35-36,39-40H,6-7,10-12H2,1-3H3/t13-,14+,18-,19+,20+,22-,25+,29-,30-,31-/m0/s1

> <PUBCHEM_IUPAC_INCHIKEY>
KTRHQPOPFOJYBM-RKMMAMRYSA-N

> <PUBCHEM_XLOGP3_AA>
-0.3

> <PUBCHEM_EXACT_MASS>
600.220677

> <PUBCHEM_MOLECULAR_FORMULA>
C31H36O12

> <PUBCHEM_MOLECULAR_WEIGHT>
600.61034

> <PUBCHEM_OPENEYE_CAN_SMILES>
CC1C(CCC(O1)OC23C(=O)CC(CC2(C=CC4=C3C(=O)C5=C(C4=O)C(=C(C=C5)C6CC(C(C(O6)C)O)O)O)O)(C)O)O

> <PUBCHEM_OPENEYE_ISO_SMILES>
C[C@H]1[C@H](CC[C@@H](O1)O[C@]23C(=O)C[C@](C[C@]2(C=CC4=C3C(=O)C5=C(C4=O)C(=C(C=C5)[C@H]6C[C@H]([C@@H]([C@H](O6)C)O)O)O)O)(C)O)O

> <PUBCHEM_CACTVS_TPSA>
200

> <PUBCHEM_MONOISOTOPIC_WEIGHT>
600.220677

> <PUBCHEM_TOTAL_CHARGE>
0

> <PUBCHEM_HEAVY_ATOM_COUNT>
43

> <PUBCHEM_ATOM_DEF_STEREO_COUNT>
10

> <PUBCHEM_ATOM_UDEF_STEREO_COUNT>
0

> <PUBCHEM_BOND_DEF_STEREO_COUNT>
0

> <PUBCHEM_BOND_UDEF_STEREO_COUNT>
0

> <PUBCHEM_ISOTOPIC_ATOM_COUNT>
0

> <PUBCHEM_COMPONENT_COUNT>
1

> <PUBCHEM_CACTVS_TAUTO_COUNT>
10

> <PUBCHEM_COORDINATE_TYPE>
1
5
255

> <PUBCHEM_BONDANNOTATIONS>
13  1  6
23  1  5
38  11  6
39  12  5
14  2  6
28  29  8
28  37  8
29  35  8
16  3  6
31  42  6
33  62  5
34  35  8
34  41  8
37  41  8
40  43  6
32  9  6

$$$$

