   Color/Form

     * WHITE CRYSTALS BECOMING RED ON EXPOSURE TO AIR
     * Colorless needles
     * RHOMBIC CRYSTALS FROM ALCOHOL
     * COLORLESS RHOMBIC NEEDLES
     * Dark oxidation products /are/ present in compound exposed to moist
       air.

   from [1]HSDB

   Boiling Point
        284-287 DEG C
   from [2]HSDB

   Melting Point
        62-63 deg C
   from [3]HSDB

   Density/Specific Gravity
        1.0096 g/cu m at 58 deg C
   from [4]HSDB

   Dissociation Constants

     * pKa = 4.98 at 25 deg C
     * pKa1 = 2.65; pKa2 = 4.88 at 25 deg C

   from [5]HSDB

   Octanol/Water Partition Coefficient
        log Kow = -0.33
   from [6]HSDB

   Solubilities

     * SOL IN WATER, METHANOL, ETHANOL, CHLOROFORM, ACETONE,
       DIMETHYLFORMAMIDE, METHYL ETHYL KETONE, DIOXANE; SLIGHTLY SOL IN
       ETHER, CARBON TETRACHLORIDE, ISOPROPANOL, DIBUTYL PHTHALATE. VERY
       SLIGHTLY SOL IN BENZENE, TOLUENE, XYLENE, BUTANOL.
     * In water, 2.38X10+5 mg/l at 20 deg

   from [7]HSDB

   Spectral Properties

     * INDEX OF REFRACTION: 1.6339 AT 58 DEG C/D
     * MAX ABSORPTION (CYCLOHEXANE): 240 NM (LOG E= 3.85) SHOULDER; 293 NM
       (LOG E= 3.42)
     * IR: 6522 (Sadtler Research Laboratories Prism Collection)
     * UV: 1813 (Sadtler Research Laboratories Spectral Collection)
     * NMR: 458 (Varian Associates NMR Spectra Catalogue)

   from [8]HSDB

   Vapor Pressure
        1 MM HG @ 99.8 DEG C
   from [9]HSDB

   Other Chemical/Physical Properties

     * DIPOLE MOMENT 1.79
     * Specific gravity = 1.07 at 58/4 deg C
     * Density = 1.139

   from [10]HSDB

   Computed Properties
   Molecular Weight                  108.14112 [g/mol]
   Molecular Formula                 C[6]H[8]N[2]
   XLogP3                            -0.3
   H-Bond Donor                      2
   H-Bond Acceptor                   2
   Rotatable Bond Count              0
   Exact Mass                        108.068748
   MonoIsotopic Mass                 108.068748
   Topological Polar Surface Area    52
   Heavy Atom Count                  8
   Formal Charge                     0
   Complexity                        64.9
   Isotope Atom Count                0
   Defined Atom Stereocenter Count   0
   Undefined Atom Stereocenter Count 0
   Defined Bond Stereocenter Count   0
   Undefined Bond Stereocenter Count 0
   Covalently-Bonded Unit Count      1
   Feature 3D Donor Count            2
   Feature 3D Cation Count           2
   Feature 3D Ring Count             1
   Effective Rotor Count             0
   Conformer Sampling RMSD           0.4
   CID Conformer Count               [11]1

References

   1. http://toxnet.nlm.nih.gov/cgi-bin/sis/search/r?dbs+hsdb:@term+@rn+@rel+108-45-2
   2. http://toxnet.nlm.nih.gov/cgi-bin/sis/search/r?dbs+hsdb:@term+@rn+@rel+108-45-2
   3. http://toxnet.nlm.nih.gov/cgi-bin/sis/search/r?dbs+hsdb:@term+@rn+@rel+108-45-2
   4. http://toxnet.nlm.nih.gov/cgi-bin/sis/search/r?dbs+hsdb:@term+@rn+@rel+108-45-2
   5. http://toxnet.nlm.nih.gov/cgi-bin/sis/search/r?dbs+hsdb:@term+@rn+@rel+108-45-2
   6. http://toxnet.nlm.nih.gov/cgi-bin/sis/search/r?dbs+hsdb:@term+@rn+@rel+108-45-2
   7. http://toxnet.nlm.nih.gov/cgi-bin/sis/search/r?dbs+hsdb:@term+@rn+@rel+108-45-2
   8. http://toxnet.nlm.nih.gov/cgi-bin/sis/search/r?dbs+hsdb:@term+@rn+@rel+108-45-2
   9. http://toxnet.nlm.nih.gov/cgi-bin/sis/search/r?dbs+hsdb:@term+@rn+@rel+108-45-2
  10. http://toxnet.nlm.nih.gov/cgi-bin/sis/search/r?dbs+hsdb:@term+@rn+@rel+108-45-2
  11. http://pubchem.ncbi.nlm.nih.gov/vw3d/vw3d.cgi?cid=7935
