11108083
  -OEChem-07051213152D

 43 42  0     1  0  0  0  0  0999 V2000
   12.9292   -1.5950    0.0000 O   0  0  0  0  0  0  0  0  0  0  0  0
    2.5369    1.4050    0.0000 O   0  0  0  0  0  0  0  0  0  0  0  0
   14.6613   -0.5950    0.0000 C   0  0  0  0  0  0  0  0  0  0  0  0
   13.7953   -0.0950    0.0000 C   0  0  0  0  0  0  0  0  0  0  0  0
   15.5273   -0.0950    0.0000 C   0  0  0  0  0  0  0  0  0  0  0  0
   12.9292   -0.5950    0.0000 C   0  0  1  0  0  0  0  0  0  0  0  0
   16.3933   -0.5950    0.0000 C   0  0  0  0  0  0  0  0  0  0  0  0
   17.2594   -0.0950    0.0000 C   0  0  0  0  0  0  0  0  0  0  0  0
   12.0632   -0.0950    0.0000 C   0  0  0  0  0  0  0  0  0  0  0  0
   11.1972   -0.5950    0.0000 C   0  0  0  0  0  0  0  0  0  0  0  0
   10.3312   -0.0950    0.0000 C   0  0  0  0  0  0  0  0  0  0  0  0
    4.2690    1.4050    0.0000 C   0  0  0  0  0  0  0  0  0  0  0  0
    5.1350    1.9050    0.0000 C   0  0  0  0  0  0  0  0  0  0  0  0
    3.4030    1.9050    0.0000 C   0  0  0  0  0  0  0  0  0  0  0  0
    9.4651   -0.5950    0.0000 C   0  0  0  0  0  0  0  0  0  0  0  0
    6.0010    1.4050    0.0000 C   0  0  0  0  0  0  0  0  0  0  0  0
    8.5991   -0.0950    0.0000 C   0  0  0  0  0  0  0  0  0  0  0  0
    6.8671    0.9050    0.0000 C   0  0  0  0  0  0  0  0  0  0  0  0
    7.7331    0.4050    0.0000 C   0  0  0  0  0  0  0  0  0  0  0  0
   14.2628   -1.0700    0.0000 H   0  0  0  0  0  0  0  0  0  0  0  0
   15.0598   -1.0700    0.0000 H   0  0  0  0  0  0  0  0  0  0  0  0
   14.1938    0.3799    0.0000 H   0  0  0  0  0  0  0  0  0  0  0  0
   13.3967    0.3799    0.0000 H   0  0  0  0  0  0  0  0  0  0  0  0
   15.9258    0.3799    0.0000 H   0  0  0  0  0  0  0  0  0  0  0  0
   15.1288    0.3799    0.0000 H   0  0  0  0  0  0  0  0  0  0  0  0
   12.3923   -0.9050    0.0000 H   0  0  0  0  0  0  0  0  0  0  0  0
   15.9948   -1.0700    0.0000 H   0  0  0  0  0  0  0  0  0  0  0  0
   16.7919   -1.0700    0.0000 H   0  0  0  0  0  0  0  0  0  0  0  0
   17.5694   -0.6319    0.0000 H   0  0  0  0  0  0  0  0  0  0  0  0
   17.7963    0.2150    0.0000 H   0  0  0  0  0  0  0  0  0  0  0  0
   16.9494    0.4419    0.0000 H   0  0  0  0  0  0  0  0  0  0  0  0
   12.0632    0.5250    0.0000 H   0  0  0  0  0  0  0  0  0  0  0  0
   13.4662   -1.9050    0.0000 H   0  0  0  0  0  0  0  0  0  0  0  0
   11.1972   -1.2150    0.0000 H   0  0  0  0  0  0  0  0  0  0  0  0
   10.3312    0.5250    0.0000 H   0  0  0  0  0  0  0  0  0  0  0  0
    3.8705    0.9301    0.0000 H   0  0  0  0  0  0  0  0  0  0  0  0
    4.6675    0.9301    0.0000 H   0  0  0  0  0  0  0  0  0  0  0  0
    5.5335    2.3800    0.0000 H   0  0  0  0  0  0  0  0  0  0  0  0
    4.7365    2.3800    0.0000 H   0  0  0  0  0  0  0  0  0  0  0  0
    3.8015    2.3800    0.0000 H   0  0  0  0  0  0  0  0  0  0  0  0
    3.0044    2.3800    0.0000 H   0  0  0  0  0  0  0  0  0  0  0  0
    9.4651   -1.2150    0.0000 H   0  0  0  0  0  0  0  0  0  0  0  0
    2.0000    1.7150    0.0000 H   0  0  0  0  0  0  0  0  0  0  0  0
  6  1  1  6  0  0  0
  1 33  1  0  0  0  0
  2 14  1  0  0  0  0
  2 43  1  0  0  0  0
  3  4  1  0  0  0  0
  3  5  1  0  0  0  0
  3 20  1  0  0  0  0
  3 21  1  0  0  0  0
  4  6  1  0  0  0  0
  4 22  1  0  0  0  0
  4 23  1  0  0  0  0
  5  7  1  0  0  0  0
  5 24  1  0  0  0  0
  5 25  1  0  0  0  0
  6  9  1  0  0  0  0
  6 26  1  0  0  0  0
  7  8  1  0  0  0  0
  7 27  1  0  0  0  0
  7 28  1  0  0  0  0
  8 29  1  0  0  0  0
  8 30  1  0  0  0  0
  8 31  1  0  0  0  0
  9 10  2  0  0  0  0
  9 32  1  0  0  0  0
 10 11  1  0  0  0  0
 10 34  1  0  0  0  0
 11 15  2  0  0  0  0
 11 35  1  0  0  0  0
 12 13  1  0  0  0  0
 12 14  1  0  0  0  0
 12 36  1  0  0  0  0
 12 37  1  0  0  0  0
 13 16  1  0  0  0  0
 13 38  1  0  0  0  0
 13 39  1  0  0  0  0
 14 40  1  0  0  0  0
 14 41  1  0  0  0  0
 15 17  1  0  0  0  0
 15 42  1  0  0  0  0
 16 18  3  0  0  0  0
 17 19  3  0  0  0  0
 18 19  1  0  0  0  0
M  END
> <PUBCHEM_COMPOUND_CID>
11108083

> <PUBCHEM_COMPOUND_CANONICALIZED>
1

> <PUBCHEM_CACTVS_COMPLEXITY>
392

> <PUBCHEM_CACTVS_HBOND_ACCEPTOR>
2

> <PUBCHEM_CACTVS_HBOND_DONOR>
2

> <PUBCHEM_CACTVS_ROTATABLE_BOND>
9

> <PUBCHEM_CACTVS_SUBSKEYS>
AAADceB4MAAAAAAAAAAAAAAAAAAAAAAAAAAAAAAAAAAAAAAAAAAAGgAACAAACBSggAICAAAAAgDAECBCAAgAAAAgAAAICAAAAAgIFAIAAQAAUAAEgAAIkAOAwAAAAAAAAAAAAAAAAAAAAAAAAAAAAAAAAA==

> <PUBCHEM_IUPAC_OPENEYE_NAME>
(8E,10E,12S)-heptadeca-8,10-dien-4,6-diyne-1,12-diol

> <PUBCHEM_IUPAC_CAS_NAME>
(8E,10E,12S)-heptadeca-8,10-dien-4,6-diyne-1,12-diol

> <PUBCHEM_IUPAC_NAME>
(8E,10E,12S)-heptadeca-8,10-dien-4,6-diyne-1,12-diol

> <PUBCHEM_IUPAC_SYSTEMATIC_NAME>
(8E,10E,12S)-heptadeca-8,10-dien-4,6-diyne-1,12-diol

> <PUBCHEM_IUPAC_TRADITIONAL_NAME>
(8E,10E,12S)-heptadeca-8,10-dien-4,6-diyne-1,12-diol

> <PUBCHEM_IUPAC_INCHI>
InChI=1S/C17H24O2/c1-2-3-11-14-17(19)15-12-9-7-5-4-6-8-10-13-16-18/h7,9,12,15,17-19H,2-3,10-11,13-14,16H2,1H3/b9-7+,15-12+/t17-/m0/s1

> <PUBCHEM_IUPAC_INCHIKEY>
UYZBGAFJAALREV-WHLLTAFYSA-N

> <PUBCHEM_XLOGP3_AA>
3.8

> <PUBCHEM_EXACT_MASS>
260.17763

> <PUBCHEM_MOLECULAR_FORMULA>
C17H24O2

> <PUBCHEM_MOLECULAR_WEIGHT>
260.37126

> <PUBCHEM_OPENEYE_CAN_SMILES>
CCCCCC(C=CC=CC#CC#CCCCO)O

> <PUBCHEM_OPENEYE_ISO_SMILES>
CCCCC[C@@H](/C=C/C=C/C#CC#CCCCO)O

> <PUBCHEM_CACTVS_TPSA>
40.5

> <PUBCHEM_MONOISOTOPIC_WEIGHT>
260.17763

> <PUBCHEM_TOTAL_CHARGE>
0

> <PUBCHEM_HEAVY_ATOM_COUNT>
19

> <PUBCHEM_ATOM_DEF_STEREO_COUNT>
1

> <PUBCHEM_ATOM_UDEF_STEREO_COUNT>
0

> <PUBCHEM_BOND_DEF_STEREO_COUNT>
2

> <PUBCHEM_BOND_UDEF_STEREO_COUNT>
0

> <PUBCHEM_ISOTOPIC_ATOM_COUNT>
0

> <PUBCHEM_COMPONENT_COUNT>
1

> <PUBCHEM_CACTVS_TAUTO_COUNT>
1

> <PUBCHEM_COORDINATE_TYPE>
1
5
255

> <PUBCHEM_BONDANNOTATIONS>
6  1  6

$$$$

