   Color/Form
        Colorless needles from dimethylformamide and water
   from [1]HSDB

   Melting Point
        183-184 deg C
   from [2]HSDB

   Octanol/Water Partition Coefficient
        log Kow = 3.96 /Estimated/
   from [3]HSDB

   Solubilities
        In water, 47 mg/L at 25 deg C /Estimated/
   from [4]HSDB

   Vapor Pressure
        2.9X10-14 mm Hg at 25 deg C /Estimated/
   from [5]HSDB

   Other Chemical/Physical Properties

     * Colorless prisms from ethanol, mp 193-194 deg C. Soluble in
       dimethylformamide; slightly soluble in ethanol; very slightly
       soluble in acetone, acetonitrile. Practically insoluble in water;
       insoluble in ether. /Hydrochloride/
     * White crystalline powder. Odorless. MW: 392.90. Very soluble in
       N,N-dimethylformamide. /Hydrochloride/
     * pKa = approx 5.9 (pyridine)
     * Henry's Law constant = 1.7X10-12 atm-cu m/mole at 25 deg C
     * Hydroxy radical rate constant = 5.9X10-11 cu cm/molec-sec at 25 deg
       C /Estimated/

   from [6]HSDB

   Computed Properties
   Molecular Weight                  356.4387 [g/mol]
   Molecular Formula                 C[19]H[20]N[2]O[3]S
   XLogP3-AA                         3.8
   H-Bond Donor                      1
   H-Bond Acceptor                   5
   Rotatable Bond Count              7
   Tautomer Count                    10
   Exact Mass                        356.119464
   MonoIsotopic Mass                 356.119464
   Topological Polar Surface Area    93.6
   Heavy Atom Count                  25
   Formal Charge                     0
   Complexity                        466
   Isotope Atom Count                0
   Defined Atom Stereocenter Count   0
   Undefined Atom Stereocenter Count 1
   Defined Bond Stereocenter Count   0
   Undefined Bond Stereocenter Count 0
   Covalently-Bonded Unit Count      1
   Feature 3D Acceptor Count         3
   Feature 3D Donor Count            1
   Feature 3D Hydrophobe Count       1
   Feature 3D Ring Count             3
   Effective Rotor Count             7.6
   Conformer Sampling RMSD           1
   CID Conformer Count               [7]293

References

   1. http://toxnet.nlm.nih.gov/cgi-bin/sis/search/r?dbs+hsdb:@term+@rn+@rel+111025-46-8
   2. http://toxnet.nlm.nih.gov/cgi-bin/sis/search/r?dbs+hsdb:@term+@rn+@rel+111025-46-8
   3. http://toxnet.nlm.nih.gov/cgi-bin/sis/search/r?dbs+hsdb:@term+@rn+@rel+111025-46-8
   4. http://toxnet.nlm.nih.gov/cgi-bin/sis/search/r?dbs+hsdb:@term+@rn+@rel+111025-46-8
   5. http://toxnet.nlm.nih.gov/cgi-bin/sis/search/r?dbs+hsdb:@term+@rn+@rel+111025-46-8
   6. http://toxnet.nlm.nih.gov/cgi-bin/sis/search/r?dbs+hsdb:@term+@rn+@rel+111025-46-8
   7. http://pubchem.ncbi.nlm.nih.gov/vw3d/vw3d.cgi?cid=4829
