5280520
  -OEChem-07051212472D

 30 32  0     0  0  0  0  0  0999 V2000
    6.3301    2.0427    0.0000 O   0  0  0  0  0  0  0  0  0  0  0  0
    6.3301   -0.9573    0.0000 O   0  0  0  0  0  0  0  0  0  0  0  0
    3.7320    1.5427    0.0000 O   0  0  0  0  0  0  0  0  0  0  0  0
    9.8602    2.0668    0.0000 O   0  0  0  0  0  0  0  0  0  0  0  0
    2.0000   -1.4573    0.0000 O   0  0  0  0  0  0  0  0  0  0  0  0
    5.4641    0.5427    0.0000 C   0  0  0  0  0  0  0  0  0  0  0  0
    7.1962    0.5427    0.0000 C   0  0  0  0  0  0  0  0  0  0  0  0
    4.5981    0.0427    0.0000 C   0  0  0  0  0  0  0  0  0  0  0  0
    6.3301    0.0427    0.0000 C   0  0  0  0  0  0  0  0  0  0  0  0
    7.1962    1.5427    0.0000 C   0  0  0  0  0  0  0  0  0  0  0  0
    5.4641    1.5427    0.0000 C   0  0  0  0  0  0  0  0  0  0  0  0
    8.0901    0.0080    0.0000 C   0  0  0  0  0  0  0  0  0  0  0  0
    3.7320    0.5427    0.0000 C   0  0  0  0  0  0  0  0  0  0  0  0
    8.0901    2.0773    0.0000 C   0  0  0  0  0  0  0  0  0  0  0  0
    4.5981   -0.9573    0.0000 C   0  0  0  0  0  0  0  0  0  0  0  0
    8.9962    1.5635    0.0000 C   0  0  0  0  0  0  0  0  0  0  0  0
    8.9962    0.5219    0.0000 C   0  0  0  0  0  0  0  0  0  0  0  0
    2.8660    0.0427    0.0000 C   0  0  0  0  0  0  0  0  0  0  0  0
    3.7320   -1.4573    0.0000 C   0  0  0  0  0  0  0  0  0  0  0  0
    2.8660   -0.9573    0.0000 C   0  0  0  0  0  0  0  0  0  0  0  0
    4.9272    1.8527    0.0000 H   0  0  0  0  0  0  0  0  0  0  0  0
    8.0829   -0.6120    0.0000 H   0  0  0  0  0  0  0  0  0  0  0  0
    5.1350   -1.2673    0.0000 H   0  0  0  0  0  0  0  0  0  0  0  0
    8.0829    2.6973    0.0000 H   0  0  0  0  0  0  0  0  0  0  0  0
    9.5319    0.2098    0.0000 H   0  0  0  0  0  0  0  0  0  0  0  0
    2.3291    0.3527    0.0000 H   0  0  0  0  0  0  0  0  0  0  0  0
    3.7320   -2.0773    0.0000 H   0  0  0  0  0  0  0  0  0  0  0  0
    3.1951    1.8527    0.0000 H   0  0  0  0  0  0  0  0  0  0  0  0
   10.3984    1.7589    0.0000 H   0  0  0  0  0  0  0  0  0  0  0  0
    2.0000   -2.0773    0.0000 H   0  0  0  0  0  0  0  0  0  0  0  0
  1 10  1  0  0  0  0
  1 11  1  0  0  0  0
  2  9  2  0  0  0  0
  3 13  1  0  0  0  0
  3 28  1  0  0  0  0
  4 16  1  0  0  0  0
  4 29  1  0  0  0  0
  5 20  1  0  0  0  0
  5 30  1  0  0  0  0
  6  8  1  0  0  0  0
  6  9  1  0  0  0  0
  6 11  2  0  0  0  0
  7  9  1  0  0  0  0
  7 10  2  0  0  0  0
  7 12  1  0  0  0  0
  8 13  2  0  0  0  0
  8 15  1  0  0  0  0
 10 14  1  0  0  0  0
 11 21  1  0  0  0  0
 12 17  2  0  0  0  0
 12 22  1  0  0  0  0
 13 18  1  0  0  0  0
 14 16  2  0  0  0  0
 14 24  1  0  0  0  0
 15 19  2  0  0  0  0
 15 23  1  0  0  0  0
 16 17  1  0  0  0  0
 17 25  1  0  0  0  0
 18 20  2  0  0  0  0
 18 26  1  0  0  0  0
 19 20  1  0  0  0  0
 19 27  1  0  0  0  0
M  END
> <PUBCHEM_COMPOUND_CID>
5280520

> <PUBCHEM_COMPOUND_CANONICALIZED>
1

> <PUBCHEM_CACTVS_COMPLEXITY>
419

> <PUBCHEM_CACTVS_HBOND_ACCEPTOR>
5

> <PUBCHEM_CACTVS_HBOND_DONOR>
3

> <PUBCHEM_CACTVS_ROTATABLE_BOND>
1

> <PUBCHEM_CACTVS_SUBSKEYS>
AAADccBwOAAAAAAAAAAAAAAAAAAAAAAAAAAwYIAAAAAAAACBQAAAGgAACAAADASgmAIwBoAABgCIAqBSAAACCAAkIAAIiAEGCMgMJzaGNRqAcWAl4BUIuYeK7PzOIAAACAAIAABAAAAQABAAAAAAAAAAAA==

> <PUBCHEM_IUPAC_OPENEYE_NAME>
3-(2,4-dihydroxyphenyl)-7-hydroxy-chromen-4-one

> <PUBCHEM_IUPAC_CAS_NAME>
3-(2,4-dihydroxyphenyl)-7-hydroxy-1-benzopyran-4-one

> <PUBCHEM_IUPAC_NAME>
3-(2,4-dihydroxyphenyl)-7-hydroxychromen-4-one

> <PUBCHEM_IUPAC_SYSTEMATIC_NAME>
3-[2,4-bis(oxidanyl)phenyl]-7-oxidanyl-chromen-4-one

> <PUBCHEM_IUPAC_TRADITIONAL_NAME>
3-(2,4-dihydroxyphenyl)-7-hydroxy-chromone

> <PUBCHEM_IUPAC_INCHI>
InChI=1S/C15H10O5/c16-8-1-3-10(13(18)5-8)12-7-20-14-6-9(17)2-4-11(14)15(12)19/h1-7,16-18H

> <PUBCHEM_IUPAC_INCHIKEY>
ZCTNPCRBEWXCGP-UHFFFAOYSA-N

> <PUBCHEM_XLOGP3_AA>
2.1

> <PUBCHEM_EXACT_MASS>
270.052823

> <PUBCHEM_MOLECULAR_FORMULA>
C15H10O5

> <PUBCHEM_MOLECULAR_WEIGHT>
270.2369

> <PUBCHEM_OPENEYE_CAN_SMILES>
C1=CC(=C(C=C1O)O)C2=COC3=C(C2=O)C=CC(=C3)O

> <PUBCHEM_OPENEYE_ISO_SMILES>
C1=CC(=C(C=C1O)O)C2=COC3=C(C2=O)C=CC(=C3)O

> <PUBCHEM_CACTVS_TPSA>
87

> <PUBCHEM_MONOISOTOPIC_WEIGHT>
270.052823

> <PUBCHEM_TOTAL_CHARGE>
0

> <PUBCHEM_HEAVY_ATOM_COUNT>
20

> <PUBCHEM_ATOM_DEF_STEREO_COUNT>
0

> <PUBCHEM_ATOM_UDEF_STEREO_COUNT>
0

> <PUBCHEM_BOND_DEF_STEREO_COUNT>
0

> <PUBCHEM_BOND_UDEF_STEREO_COUNT>
0

> <PUBCHEM_ISOTOPIC_ATOM_COUNT>
0

> <PUBCHEM_COMPONENT_COUNT>
1

> <PUBCHEM_CACTVS_TAUTO_COUNT>
45

> <PUBCHEM_COORDINATE_TYPE>
1
5
255

> <PUBCHEM_BONDANNOTATIONS>
1  10  8
1  11  8
10  14  8
12  17  8
13  18  8
14  16  8
15  19  8
16  17  8
18  20  8
19  20  8
6  11  8
6  9  8
7  10  8
7  12  8
7  9  8
8  13  8
8  15  8

$$$$

