3486
  -OEChem-06251223262D

 40 39  0     1  0  0  0  0  0999 V2000
    9.4651   -2.1085    0.0000 S   0  0  0  0  0  0  0  0  0  0  0  0
    8.9651   -2.9745    0.0000 O   0  0  0  0  0  0  0  0  0  0  0  0
    6.8671   -1.6085    0.0000 O   0  0  0  0  0  0  0  0  0  0  0  0
   10.3312   -0.6085    0.0000 O   0  0  0  0  0  0  0  0  0  0  0  0
   10.3312   -2.6085    0.0000 O   0  0  0  0  0  0  0  0  0  0  0  0
    9.9651   -1.2425    0.0000 O   0  0  0  0  0  0  0  0  0  0  0  0
    2.5369   -0.1085    0.0000 O   0  0  0  0  0  0  0  0  0  0  0  0
    3.4030   -1.6085    0.0000 O   0  0  0  0  0  0  0  0  0  0  0  0
   11.1972    2.8915    0.0000 O   0  0  0  0  0  0  0  0  0  0  0  0
    9.4651    2.8915    0.0000 O   0  0  0  0  0  0  0  0  0  0  0  0
    7.7331   -0.1085    0.0000 N   0  0  0  0  0  0  0  0  0  0  0  0
    9.4651    0.8915    0.0000 N   0  0  0  0  0  0  0  0  0  0  0  0
    4.2690    0.8915    0.0000 N   0  0  0  0  0  0  0  0  0  0  0  0
    8.5991   -0.6085    0.0000 C   0  0  3  0  0  0  0  0  0  0  0  0
    8.5991   -1.6085    0.0000 C   0  0  0  0  0  0  0  0  0  0  0  0
    6.0010   -0.1085    0.0000 C   0  0  0  0  0  0  0  0  0  0  0  0
    5.1350   -0.6085    0.0000 C   0  0  0  0  0  0  0  0  0  0  0  0
    6.8671   -0.6085    0.0000 C   0  0  0  0  0  0  0  0  0  0  0  0
    4.2690   -0.1085    0.0000 C   0  0  3  0  0  0  0  0  0  0  0  0
    9.4651   -0.1085    0.0000 C   0  0  0  0  0  0  0  0  0  0  0  0
    3.4030   -0.6085    0.0000 C   0  0  0  0  0  0  0  0  0  0  0  0
   10.3312    1.3915    0.0000 C   0  0  0  0  0  0  0  0  0  0  0  0
   10.3312    2.3915    0.0000 C   0  0  0  0  0  0  0  0  0  0  0  0
    8.5991    0.2415    0.0000 H   0  0  0  0  0  0  0  0  0  0  0  0
    7.9885   -1.5009    0.0000 H   0  0  0  0  0  0  0  0  0  0  0  0
    8.3871   -2.1911    0.0000 H   0  0  0  0  0  0  0  0  0  0  0  0
    6.3996    0.3664    0.0000 H   0  0  0  0  0  0  0  0  0  0  0  0
    5.6025    0.3664    0.0000 H   0  0  0  0  0  0  0  0  0  0  0  0
    4.7365   -1.0835    0.0000 H   0  0  0  0  0  0  0  0  0  0  0  0
    5.5335   -1.0835    0.0000 H   0  0  0  0  0  0  0  0  0  0  0  0
    7.7331    0.5115    0.0000 H   0  0  0  0  0  0  0  0  0  0  0  0
    5.0051    0.3165    0.0000 H   0  0  0  0  0  0  0  0  0  0  0  0
    8.9282    1.2015    0.0000 H   0  0  0  0  0  0  0  0  0  0  0  0
    3.7320    1.2015    0.0000 H   0  0  0  0  0  0  0  0  0  0  0  0
    4.8059    1.2015    0.0000 H   0  0  0  0  0  0  0  0  0  0  0  0
   10.5432    0.8089    0.0000 H   0  0  0  0  0  0  0  0  0  0  0  0
   10.9417    1.4991    0.0000 H   0  0  0  0  0  0  0  0  0  0  0  0
    9.2751   -3.5115    0.0000 H   0  0  0  0  0  0  0  0  0  0  0  0
    2.0000   -0.4185    0.0000 H   0  0  0  0  0  0  0  0  0  0  0  0
   11.1972    3.5115    0.0000 H   0  0  0  0  0  0  0  0  0  0  0  0
  1  2  1  0  0  0  0
  1  5  2  0  0  0  0
  1  6  2  0  0  0  0
  1 15  1  0  0  0  0
  2 38  1  0  0  0  0
  3 18  2  0  0  0  0
  4 20  2  0  0  0  0
  7 21  1  0  0  0  0
  7 39  1  0  0  0  0
  8 21  2  0  0  0  0
  9 23  1  0  0  0  0
  9 40  1  0  0  0  0
 10 23  2  0  0  0  0
 11 14  1  0  0  0  0
 11 18  1  0  0  0  0
 11 31  1  0  0  0  0
 12 20  1  0  0  0  0
 12 22  1  0  0  0  0
 12 33  1  0  0  0  0
 13 19  1  0  0  0  0
 13 34  1  0  0  0  0
 13 35  1  0  0  0  0
 14 15  1  0  0  0  0
 14 20  1  0  0  0  0
 14 24  1  0  0  0  0
 15 25  1  0  0  0  0
 15 26  1  0  0  0  0
 16 17  1  0  0  0  0
 16 18  1  0  0  0  0
 16 27  1  0  0  0  0
 16 28  1  0  0  0  0
 17 19  1  0  0  0  0
 17 29  1  0  0  0  0
 17 30  1  0  0  0  0
 19 21  1  0  0  0  0
 19 32  1  0  0  0  0
 22 23  1  0  0  0  0
 22 36  1  0  0  0  0
 22 37  1  0  0  0  0
M  END
> <PUBCHEM_COMPOUND_CID>
3486

> <PUBCHEM_COMPOUND_CANONICALIZED>
1

> <PUBCHEM_CACTVS_COMPLEXITY>
569

> <PUBCHEM_CACTVS_HBOND_ACCEPTOR>
10

> <PUBCHEM_CACTVS_HBOND_DONOR>
6

> <PUBCHEM_CACTVS_ROTATABLE_BOND>
10

> <PUBCHEM_CACTVS_SUBSKEYS>
AAADceBzPABAAAAAAAAAAAAAAAAAAAAAAAAAAAAAAAAAAAAAAAAAHgQQCAAACCjFwASACALAAoIIAAGQGHBAAAAAAAAAAIGIAAACQBIAgCAUQAAEFgCQAACcFwIAAAAAAAAAAAAAAAAAAAAAAAAAAAAAAA==

> <PUBCHEM_IUPAC_OPENEYE_NAME>
2-amino-5-[[2-(carboxymethylamino)-2-oxo-1-(sulfomethyl)ethyl]amino]-5-oxo-pentanoic acid

> <PUBCHEM_IUPAC_CAS_NAME>
2-amino-5-[[1-(carboxymethylamino)-1-oxo-3-sulfopropan-2-yl]amino]-5-oxopentanoic acid

> <PUBCHEM_IUPAC_NAME>
2-amino-5-[[1-(carboxymethylamino)-1-oxo-3-sulfopropan-2-yl]amino]-5-oxopentanoic acid

> <PUBCHEM_IUPAC_SYSTEMATIC_NAME>
2-azanyl-5-[[1-(2-hydroxy-2-oxoethylamino)-1-oxidanylidene-3-sulfo-propan-2-yl]amino]-5-oxidanylidene-pentanoic acid

> <PUBCHEM_IUPAC_TRADITIONAL_NAME>
2-amino-5-[[2-(carboxymethylamino)-2-keto-1-(sulfomethyl)ethyl]amino]-5-keto-valeric acid

> <PUBCHEM_IUPAC_INCHI>
InChI=1S/C10H17N3O9S/c11-5(10(18)19)1-2-7(14)13-6(4-23(20,21)22)9(17)12-3-8(15)16/h5-6H,1-4,11H2,(H,12,17)(H,13,14)(H,15,16)(H,18,19)(H,20,21,22)

> <PUBCHEM_IUPAC_INCHIKEY>
QGWRMTHFAZVWAM-UHFFFAOYSA-N

> <PUBCHEM_XLOGP3_AA>
-5.9

> <PUBCHEM_EXACT_MASS>
355.06855

> <PUBCHEM_MOLECULAR_FORMULA>
C10H17N3O9S

> <PUBCHEM_MOLECULAR_WEIGHT>
355.32168

> <PUBCHEM_OPENEYE_CAN_SMILES>
C(CC(=O)NC(CS(=O)(=O)O)C(=O)NCC(=O)O)C(C(=O)O)N

> <PUBCHEM_OPENEYE_ISO_SMILES>
C(CC(=O)NC(CS(=O)(=O)O)C(=O)NCC(=O)O)C(C(=O)O)N

> <PUBCHEM_CACTVS_TPSA>
222

> <PUBCHEM_MONOISOTOPIC_WEIGHT>
355.06855

> <PUBCHEM_TOTAL_CHARGE>
0

> <PUBCHEM_HEAVY_ATOM_COUNT>
23

> <PUBCHEM_ATOM_DEF_STEREO_COUNT>
0

> <PUBCHEM_ATOM_UDEF_STEREO_COUNT>
2

> <PUBCHEM_BOND_DEF_STEREO_COUNT>
0

> <PUBCHEM_BOND_UDEF_STEREO_COUNT>
0

> <PUBCHEM_ISOTOPIC_ATOM_COUNT>
0

> <PUBCHEM_COMPONENT_COUNT>
1

> <PUBCHEM_CACTVS_TAUTO_COUNT>
4

> <PUBCHEM_COORDINATE_TYPE>
1
5
255

> <PUBCHEM_BONDANNOTATIONS>
14  24  3
19  32  3

$$$$

