   Color/Form
        White crystals
   from [1]HSDB

   Boiling Point
        235 deg C
   from [2]HSDB

   Melting Point
        51.5 deg C
   from [3]HSDB

   Corrosivity
        Liquid anisidine will attack some forms of plastics, rubber, and
   coatings. /o-Anisidine/
   from [4]HSDB

   Octanol/Water Partition Coefficient
        log Kow= 1.74
   from [5]HSDB

   Solubilities
        Slightly soluble in water, chloroform. Soluble in ether, benzene,
   petroleum ether, and ethanol.
   from [6]HSDB

   Spectral Properties

     * IR: SADG 15482 (Sadtler Research Laboratories IR Grating
       Collection)
     * UV: SAD 15769 (Sadtler Research Laboratories Spectral Collection)
     * NMR: SAD 6399 (Sadtler Research Laboratories Spectral Collection)
     * 2:646B (Aldrich Library of Infrared Spectra, Aldrich Chemical Co,
       Milwaukee, WI)
     * NMR: 5:72B (Aldrich Library of Mass Spectra, Aldrich Chemical Co,
       Milwaukee, WI)
     * MS: NIST 71270 (National Institute of Spectral Technology)

   from [7]HSDB

   Computed Properties
   Molecular Weight                  137.17904 [g/mol]
   Molecular Formula                 C[8]H[11]NO
   XLogP3                            1.7
   H-Bond Donor                      1
   H-Bond Acceptor                   2
   Rotatable Bond Count              1
   Exact Mass                        137.084064
   MonoIsotopic Mass                 137.084064
   Topological Polar Surface Area    35.2
   Heavy Atom Count                  10
   Formal Charge                     0
   Complexity                        105
   Isotope Atom Count                0
   Defined Atom Stereocenter Count   0
   Undefined Atom Stereocenter Count 0
   Defined Bond Stereocenter Count   0
   Undefined Bond Stereocenter Count 0
   Covalently-Bonded Unit Count      1
   Feature 3D Acceptor Count         1
   Feature 3D Donor Count            1
   Feature 3D Cation Count           1
   Feature 3D Ring Count             1
   Effective Rotor Count             1
   Conformer Sampling RMSD           0.4
   CID Conformer Count               [8]3

References

   1. http://toxnet.nlm.nih.gov/cgi-bin/sis/search/r?dbs+hsdb:@term+@rn+@rel+120-71-8
   2. http://toxnet.nlm.nih.gov/cgi-bin/sis/search/r?dbs+hsdb:@term+@rn+@rel+120-71-8
   3. http://toxnet.nlm.nih.gov/cgi-bin/sis/search/r?dbs+hsdb:@term+@rn+@rel+120-71-8
   4. http://toxnet.nlm.nih.gov/cgi-bin/sis/search/r?dbs+hsdb:@term+@rn+@rel+120-71-8
   5. http://toxnet.nlm.nih.gov/cgi-bin/sis/search/r?dbs+hsdb:@term+@rn+@rel+120-71-8
   6. http://toxnet.nlm.nih.gov/cgi-bin/sis/search/r?dbs+hsdb:@term+@rn+@rel+120-71-8
   7. http://toxnet.nlm.nih.gov/cgi-bin/sis/search/r?dbs+hsdb:@term+@rn+@rel+120-71-8
   8. http://pubchem.ncbi.nlm.nih.gov/vw3d/vw3d.cgi?cid=8445
