   Color/Form

     * Dark green crystals or powder from chloroform-ethyl ether
     * Sol have a deep blue color /zinc-free dye/
     * Crystalline powder ... bronze-like luster /zinc salt/

   from [1]HSDB

   Odor
        Slight odor
   from [2]HSDB

   Melting Point
        100-110 deg C (decomposes)
   from [3]HSDB

   Octanol/Water Partition Coefficient
        log Kow = 5.85 (est)
   from [4]HSDB

   Solubilities

     * Soluble in ethanol, chloroform; slightly soluble in pyridine;
       insoluble in ethyl ether
     * Soluble in glacial acetic acid and glycerol; insoluble in xylene
       and oleic acid, in ethanol 2%, and in acetone 0.5%.
     * In water, 43,600 mg/L at 25 deg C.

   from [5]HSDB

   Spectral Properties

     * IR: 1372 (Coblentz Society Spectral Collection)
     * UV: 6-680 (Organic Electronic Spectral Data, Phillips et al, John
       Wiley & Sons, New York)

   from [6]HSDB

   Vapor Pressure
        1.30X10-7 mm Hg at 25 deg C (est)
   from [7]HSDB

   Other Chemical/Physical Properties

     * Dark green crystals or crystalline powder with bronze luster.
       Odorless; stable in air. Absorption max: 668, 609 nm. Soluble in
       water and chloroform; sparingly soluble in alcohol. Deep blue
       solution in water or alcohol. Forms double salts. /Trihydrate/
     * Water solutions are deep blue.
     * Henry's Law constant = 1.25X10-12 atm-cu m/mol at 25 deg C (est)
     * Hydroxyl radical reaction rate constant = 2.05X10-10 cu
       cm/molec-sec at 25 deg C (est)

   from [8]HSDB

   Computed Properties
   Molecular Weight                  319.85222 [g/mol]
   Molecular Formula                 C[16]H[18]ClN[3]S
   H-Bond Donor                      0
   H-Bond Acceptor                   4
   Rotatable Bond Count              1
   Exact Mass                        319.090996
   MonoIsotopic Mass                 319.090996
   Topological Polar Surface Area    43.9
   Heavy Atom Count                  21
   Formal Charge                     0
   Complexity                        483
   Isotope Atom Count                0
   Defined Atom Stereocenter Count   0
   Undefined Atom Stereocenter Count 0
   Defined Bond Stereocenter Count   0
   Undefined Bond Stereocenter Count 0
   Covalently-Bonded Unit Count      2

References

   1. http://toxnet.nlm.nih.gov/cgi-bin/sis/search/r?dbs+hsdb:@term+@rn+@rel+61-73-4
   2. http://toxnet.nlm.nih.gov/cgi-bin/sis/search/r?dbs+hsdb:@term+@rn+@rel+61-73-4
   3. http://toxnet.nlm.nih.gov/cgi-bin/sis/search/r?dbs+hsdb:@term+@rn+@rel+61-73-4
   4. http://toxnet.nlm.nih.gov/cgi-bin/sis/search/r?dbs+hsdb:@term+@rn+@rel+61-73-4
   5. http://toxnet.nlm.nih.gov/cgi-bin/sis/search/r?dbs+hsdb:@term+@rn+@rel+61-73-4
   6. http://toxnet.nlm.nih.gov/cgi-bin/sis/search/r?dbs+hsdb:@term+@rn+@rel+61-73-4
   7. http://toxnet.nlm.nih.gov/cgi-bin/sis/search/r?dbs+hsdb:@term+@rn+@rel+61-73-4
   8. http://toxnet.nlm.nih.gov/cgi-bin/sis/search/r?dbs+hsdb:@term+@rn+@rel+61-73-4
