   Color/Form
        Colorless volatile liquid
   from [1]HSDB

   Odor
        Mild, aromatic
   from [2]HSDB

   Boiling Point
        34 deg C
   from [3]HSDB

   Melting Point
        -145.9 deg C
   from [4]HSDB

   Critical Temperature and Pressure
        Critical temp: 412 deg F= 211.1 deg C= 484.3 deg K; critical
   pressure: 550 psia= 37.4 atm= 3.79 MN/sq m
   from [5]HSDB

   Density/Specific Gravity
        0.679 g/cu cm at 20 deg C
   from [6]HSDB

   Heat of Combustion
        -18,848 Btu/lb= -10,471 cal/g= -438.4x10+5 J/kg
   from [7]HSDB

   Heat of Vaporization
        6,901.8 gcal/gmole
   from [8]HSDB

   Octanol/Water Partition Coefficient
        log Kow = 2.42
   from [9]HSDB

   Solubilities

     * Miscible with ethanol, ethyl ether, acetone, benzene
     * Water solubility of 642 ppm at 25 deg C
     * Soluble in alcohol, ether and acetone

   from [10]HSDB

   Spectral Properties

     * Index of refraction: 1.4219 20 deg C/D
     * Max absorption (isooctane): 217.5 nm (log e = 4.28); 223.5 nm (log
       e = 4.33); 230 nm (log e = 4.16); Sadtler Reference Number: 688
       (IR, prism)
     * UV max = 237 nm
     * IR: 154 (Sadtler Research Laboratories IR Grating Collection)
     * UV: 5-38 (Organic Electronic Spectral Data, Phillips et al, John
       Wiley & Sons, New York)
     * MASS: 19035 (NIST/EPA/MCDC Mass Spectral Database 1990 version);
       1590 (Atlas of Mass Spectral Data, John Wiley & Sons, New York)

   from [11]HSDB

   Surface Tension
        16.9 dynes/cm= 0.0169 N/m @ 20 deg C (liquid)
   from [12]HSDB

   Vapor Density
        2.35 (Air = 1)
   from [13]HSDB

   Vapor Pressure
        550 mm Hg at 25 deg C
   from [14]HSDB

   Other Chemical/Physical Properties

     * 1 mg/L equivalent to 358 ppm and 1 ppm equivalent to 2.79 mg/cu m
       at 25 deg C, 760 mm Hg
     * Heat of fusion: 16.80 cal/g
     * Forms binary azeotropes with water, methanol, methylamine,
       acetonitrile, methyl formate, bromoethane, ethyl alcohol, methyl
       sulfide, acetone, propylene oxide, ethyl formate, isopropyl
       nitrate, methylal, ethyl ether, and n-pentane.
     * VP: 400 mm Hg at 15.4 deg C
     * Henry's Law constant = 7.7X10-2 atm-cu m/mol at 25 deg C (est)
     * Hydroxyl radical reaction rate constant = 1.01X10-10 cu-cm/molc sec
       @ 25 deg C
     * Ozone reaction rate constant = 1.43X10-17 cu cm/molecule-sec @ 25
       deg C

   from [15]HSDB

   Computed Properties
   Molecular Weight                  68.11702 [g/mol]
   Molecular Formula                 C[5]H[8]
   XLogP3-AA                         2.5
   H-Bond Donor                      0
   H-Bond Acceptor                   0
   Rotatable Bond Count              1
   Exact Mass                        68.0626
   MonoIsotopic Mass                 68.0626
   Topological Polar Surface Area    0
   Heavy Atom Count                  5
   Formal Charge                     0
   Complexity                        51.1
   Isotope Atom Count                0
   Defined Atom Stereocenter Count   0
   Undefined Atom Stereocenter Count 0
   Defined Bond Stereocenter Count   0
   Undefined Bond Stereocenter Count 0
   Covalently-Bonded Unit Count      1
   Feature 3D Hydrophobe Count       1
   Effective Rotor Count             1
   Conformer Sampling RMSD           0.4
   CID Conformer Count               [16]1

References

   1. http://toxnet.nlm.nih.gov/cgi-bin/sis/search/r?dbs+hsdb:@term+@rn+@rel+78-79-5
   2. http://toxnet.nlm.nih.gov/cgi-bin/sis/search/r?dbs+hsdb:@term+@rn+@rel+78-79-5
   3. http://toxnet.nlm.nih.gov/cgi-bin/sis/search/r?dbs+hsdb:@term+@rn+@rel+78-79-5
   4. http://toxnet.nlm.nih.gov/cgi-bin/sis/search/r?dbs+hsdb:@term+@rn+@rel+78-79-5
   5. http://toxnet.nlm.nih.gov/cgi-bin/sis/search/r?dbs+hsdb:@term+@rn+@rel+78-79-5
   6. http://toxnet.nlm.nih.gov/cgi-bin/sis/search/r?dbs+hsdb:@term+@rn+@rel+78-79-5
   7. http://toxnet.nlm.nih.gov/cgi-bin/sis/search/r?dbs+hsdb:@term+@rn+@rel+78-79-5
   8. http://toxnet.nlm.nih.gov/cgi-bin/sis/search/r?dbs+hsdb:@term+@rn+@rel+78-79-5
   9. http://toxnet.nlm.nih.gov/cgi-bin/sis/search/r?dbs+hsdb:@term+@rn+@rel+78-79-5
  10. http://toxnet.nlm.nih.gov/cgi-bin/sis/search/r?dbs+hsdb:@term+@rn+@rel+78-79-5
  11. http://toxnet.nlm.nih.gov/cgi-bin/sis/search/r?dbs+hsdb:@term+@rn+@rel+78-79-5
  12. http://toxnet.nlm.nih.gov/cgi-bin/sis/search/r?dbs+hsdb:@term+@rn+@rel+78-79-5
  13. http://toxnet.nlm.nih.gov/cgi-bin/sis/search/r?dbs+hsdb:@term+@rn+@rel+78-79-5
  14. http://toxnet.nlm.nih.gov/cgi-bin/sis/search/r?dbs+hsdb:@term+@rn+@rel+78-79-5
  15. http://toxnet.nlm.nih.gov/cgi-bin/sis/search/r?dbs+hsdb:@term+@rn+@rel+78-79-5
  16. http://pubchem.ncbi.nlm.nih.gov/vw3d/vw3d.cgi?cid=6557
