442642
  -OEChem-07051212582D

 27 27  0     1  0  0  0  0  0999 V2000
    6.2633    0.1759    0.0000 O   0  0  0  0  0  0  0  0  0  0  0  0
    2.8090   -0.4630    0.0000 N   0  0  3  0  0  0  0  0  0  0  0  0
    3.6180    0.1248    0.0000 C   0  0  2  0  0  0  0  0  0  0  0  0
    3.3090    1.0758    0.0000 C   0  0  0  0  0  0  0  0  0  0  0  0
    2.3090    1.0758    0.0000 C   0  0  0  0  0  0  0  0  0  0  0  0
    2.0000    0.1248    0.0000 C   0  0  0  0  0  0  0  0  0  0  0  0
    4.5691   -0.1843    0.0000 C   0  0  0  0  0  0  0  0  0  0  0  0
    5.3122    0.4849    0.0000 C   0  0  1  0  0  0  0  0  0  0  0  0
    2.8090   -1.4630    0.0000 C   0  0  0  0  0  0  0  0  0  0  0  0
    5.1043    1.4630    0.0000 C   0  0  0  0  0  0  0  0  0  0  0  0
    3.7150   -0.4876    0.0000 H   0  0  0  0  0  0  0  0  0  0  0  0
    3.9155    1.2047    0.0000 H   0  0  0  0  0  0  0  0  0  0  0  0
    3.2442    1.6924    0.0000 H   0  0  0  0  0  0  0  0  0  0  0  0
    2.3738    1.6924    0.0000 H   0  0  0  0  0  0  0  0  0  0  0  0
    1.7026    1.2047    0.0000 H   0  0  0  0  0  0  0  0  0  0  0  0
    1.4336    0.3769    0.0000 H   0  0  0  0  0  0  0  0  0  0  0  0
    1.6900   -0.4122    0.0000 H   0  0  0  0  0  0  0  0  0  0  0  0
    4.2780   -0.7317    0.0000 H   0  0  0  0  0  0  0  0  0  0  0  0
    5.0577   -0.5660    0.0000 H   0  0  0  0  0  0  0  0  0  0  0  0
    5.4411   -0.1216    0.0000 H   0  0  0  0  0  0  0  0  0  0  0  0
    2.1890   -1.4630    0.0000 H   0  0  0  0  0  0  0  0  0  0  0  0
    2.8090   -2.0830    0.0000 H   0  0  0  0  0  0  0  0  0  0  0  0
    3.4290   -1.4630    0.0000 H   0  0  0  0  0  0  0  0  0  0  0  0
    5.7108    1.5919    0.0000 H   0  0  0  0  0  0  0  0  0  0  0  0
    4.9754    2.0695    0.0000 H   0  0  0  0  0  0  0  0  0  0  0  0
    4.4979    1.3341    0.0000 H   0  0  0  0  0  0  0  0  0  0  0  0
    6.7240    0.5907    0.0000 H   0  0  0  0  0  0  0  0  0  0  0  0
  8  1  1  1  0  0  0
  1 27  1  0  0  0  0
  2  3  1  0  0  0  0
  2  6  1  0  0  0  0
  2  9  1  0  0  0  0
  3  4  1  0  0  0  0
  3  7  1  6  0  0  0
  3 11  1  0  0  0  0
  4  5  1  0  0  0  0
  4 12  1  0  0  0  0
  4 13  1  0  0  0  0
  5  6  1  0  0  0  0
  5 14  1  0  0  0  0
  5 15  1  0  0  0  0
  6 16  1  0  0  0  0
  6 17  1  0  0  0  0
  7  8  1  0  0  0  0
  7 18  1  0  0  0  0
  7 19  1  0  0  0  0
  8 10  1  0  0  0  0
  8 20  1  0  0  0  0
  9 21  1  0  0  0  0
  9 22  1  0  0  0  0
  9 23  1  0  0  0  0
 10 24  1  0  0  0  0
 10 25  1  0  0  0  0
 10 26  1  0  0  0  0
M  END
> <PUBCHEM_COMPOUND_CID>
442642

> <PUBCHEM_COMPOUND_CANONICALIZED>
1

> <PUBCHEM_CACTVS_COMPLEXITY>
105

> <PUBCHEM_CACTVS_HBOND_ACCEPTOR>
2

> <PUBCHEM_CACTVS_HBOND_DONOR>
1

> <PUBCHEM_CACTVS_ROTATABLE_BOND>
2

> <PUBCHEM_CACTVS_SUBSKEYS>
AAADceByIAAAAAAAAAAAAAAAAAAAAWAAAAAAAAAAAAAAAAAAAAAAHgAACAAACDzhgAYCAAMAAgAAAAAAAAAAAAAAAAAAAAAIAAAAEAIAgAAEQAAGAACAAAGQwAAAAAAAAAAAAAAAAAAAAAAAAAAAAAAAAA==

> <PUBCHEM_IUPAC_OPENEYE_NAME>
(2R)-1-[(2R)-1-methylpyrrolidin-2-yl]propan-2-ol

> <PUBCHEM_IUPAC_CAS_NAME>
(2R)-1-[(2R)-1-methyl-2-pyrrolidinyl]-2-propanol

> <PUBCHEM_IUPAC_NAME>
(2R)-1-[(2R)-1-methylpyrrolidin-2-yl]propan-2-ol

> <PUBCHEM_IUPAC_SYSTEMATIC_NAME>
(2R)-1-[(2R)-1-methylpyrrolidin-2-yl]propan-2-ol

> <PUBCHEM_IUPAC_TRADITIONAL_NAME>
(2R)-1-[(2R)-1-methylpyrrolidin-2-yl]propan-2-ol

> <PUBCHEM_IUPAC_INCHI>
InChI=1S/C8H17NO/c1-7(10)6-8-4-3-5-9(8)2/h7-8,10H,3-6H2,1-2H3/t7-,8-/m1/s1

> <PUBCHEM_IUPAC_INCHIKEY>
CWMYODFAUAJKIV-HTQZYQBOSA-N

> <PUBCHEM_XLOGP3_AA>
0.9

> <PUBCHEM_EXACT_MASS>
143.131014

> <PUBCHEM_MOLECULAR_FORMULA>
C8H17NO

> <PUBCHEM_MOLECULAR_WEIGHT>
143.22668

> <PUBCHEM_OPENEYE_CAN_SMILES>
CC(CC1CCCN1C)O

> <PUBCHEM_OPENEYE_ISO_SMILES>
C[C@H](C[C@H]1CCCN1C)O

> <PUBCHEM_CACTVS_TPSA>
23.5

> <PUBCHEM_MONOISOTOPIC_WEIGHT>
143.131014

> <PUBCHEM_TOTAL_CHARGE>
0

> <PUBCHEM_HEAVY_ATOM_COUNT>
10

> <PUBCHEM_ATOM_DEF_STEREO_COUNT>
2

> <PUBCHEM_ATOM_UDEF_STEREO_COUNT>
0

> <PUBCHEM_BOND_DEF_STEREO_COUNT>
0

> <PUBCHEM_BOND_UDEF_STEREO_COUNT>
0

> <PUBCHEM_ISOTOPIC_ATOM_COUNT>
0

> <PUBCHEM_COMPONENT_COUNT>
1

> <PUBCHEM_CACTVS_TAUTO_COUNT>
1

> <PUBCHEM_COORDINATE_TYPE>
1
5
255

> <PUBCHEM_BONDANNOTATIONS>
8  1  5
3  7  6

$$$$

