53024
  -OEChem-07051213042D

 53 54  0     1  0  0  0  0  0999 V2000
    7.0468   -1.5623    0.0000 S   0  0  0  0  0  0  0  0  0  0  0  0
    4.4487   -0.0623    0.0000 S   0  0  0  0  0  0  0  0  0  0  0  0
   11.4214   -0.9377    0.0000 S   0  0  0  0  0  0  0  0  0  0  0  0
   12.4193   -1.9397    0.0000 S   0  0  0  0  0  0  0  0  0  0  0  0
    6.1808    2.9376    0.0000 Na  0  3  0  0  0  0  0  0  0  0  0  0
   13.3248    2.4045    0.0000 Na  0  3  0  0  0  0  0  0  0  0  0  0
    8.9190   -2.0665    0.0000 O   0  0  0  0  0  0  0  0  0  0  0  0
    9.6267    0.6504    0.0000 O   0  0  0  0  0  0  0  0  0  0  0  0
    9.9175   -2.8006    0.0000 O   0  0  0  0  0  0  0  0  0  0  0  0
    6.1808    1.9376    0.0000 O   0  5  0  0  0  0  0  0  0  0  0  0
    7.9128    1.9376    0.0000 O   0  0  0  0  0  0  0  0  0  0  0  0
   14.3521   -1.4613    0.0000 O   0  0  0  0  0  0  0  0  0  0  0  0
   13.5816    1.4380    0.0000 O   0  5  0  0  0  0  0  0  0  0  0  0
   11.9077    0.9932    0.0000 O   0  0  0  0  0  0  0  0  0  0  0  0
    7.9128   -0.0623    0.0000 N   0  0  0  0  0  0  0  0  0  0  0  0
    9.9211   -1.0686    0.0000 N   0  0  0  0  0  0  0  0  0  0  0  0
    3.4782    1.4322    0.0000 N   0  0  0  0  0  0  0  0  0  0  0  0
    2.6691    0.0309    0.0000 N   0  0  0  0  0  0  0  0  0  0  0  0
    2.5000    1.6401    0.0000 N   0  0  0  0  0  0  0  0  0  0  0  0
    2.0000    0.7741    0.0000 N   0  0  0  0  0  0  0  0  0  0  0  0
   14.8039    0.2108    0.0000 N   0  0  0  0  0  0  0  0  0  0  0  0
    8.9211   -1.0665    0.0000 C   0  0  2  0  0  0  0  0  0  0  0  0
    7.9128   -1.0623    0.0000 C   0  0  1  0  0  0  0  0  0  0  0  0
    8.9211   -0.0582    0.0000 C   0  0  0  0  0  0  0  0  0  0  0  0
    7.0468    0.4377    0.0000 C   0  0  0  0  0  0  0  0  0  0  0  0
    6.1808   -0.0623    0.0000 C   0  0  0  0  0  0  0  0  0  0  0  0
    6.1808   -1.0623    0.0000 C   0  0  0  0  0  0  0  0  0  0  0  0
   10.4193   -1.9356    0.0000 C   0  0  0  0  0  0  0  0  0  0  0  0
    5.3147    0.4377    0.0000 C   0  0  0  0  0  0  0  0  0  0  0  0
    7.0468    1.4377    0.0000 C   0  0  0  0  0  0  0  0  0  0  0  0
    8.0520   -2.5647    0.0000 C   0  0  0  0  0  0  0  0  0  0  0  0
   11.4193   -1.9376    0.0000 C   0  0  0  0  0  0  0  0  0  0  0  0
   12.4214   -0.9397    0.0000 C   0  0  0  0  0  0  0  0  0  0  0  0
    3.5827    0.4377    0.0000 C   0  0  0  0  0  0  0  0  0  0  0  0
   13.1299   -0.2341    0.0000 C   0  0  0  0  0  0  0  0  0  0  0  0
   14.0953   -0.4949    0.0000 C   0  0  0  0  0  0  0  0  0  0  0  0
   12.8731    0.7324    0.0000 C   0  0  0  0  0  0  0  0  0  0  0  0
    4.2213    2.1013    0.0000 C   0  0  0  0  0  0  0  0  0  0  0  0
    8.1311   -1.8838    0.0000 H   0  0  0  0  0  0  0  0  0  0  0  0
   10.2322   -0.5322    0.0000 H   0  0  0  0  0  0  0  0  0  0  0  0
    5.5702   -0.9547    0.0000 H   0  0  0  0  0  0  0  0  0  0  0  0
    5.9687   -1.6450    0.0000 H   0  0  0  0  0  0  0  0  0  0  0  0
    5.7133    0.9126    0.0000 H   0  0  0  0  0  0  0  0  0  0  0  0
    4.9162    0.9126    0.0000 H   0  0  0  0  0  0  0  0  0  0  0  0
    7.7431   -2.0271    0.0000 H   0  0  0  0  0  0  0  0  0  0  0  0
    7.5144   -2.8736    0.0000 H   0  0  0  0  0  0  0  0  0  0  0  0
    8.3609   -3.1023    0.0000 H   0  0  0  0  0  0  0  0  0  0  0  0
   11.4172   -2.9376    0.0000 H   0  0  0  0  0  0  0  0  0  0  0  0
    4.6362    1.6406    0.0000 H   0  0  0  0  0  0  0  0  0  0  0  0
    4.6820    2.5162    0.0000 H   0  0  0  0  0  0  0  0  0  0  0  0
    3.8064    2.5620    0.0000 H   0  0  0  0  0  0  0  0  0  0  0  0
   15.4024    0.0491    0.0000 H   0  0  0  0  0  0  0  0  0  0  0  0
   14.6446    0.8100    0.0000 H   0  0  0  0  0  0  0  0  0  0  0  0
  1 23  1  0  0  0  0
  1 27  1  0  0  0  0
  2 29  1  0  0  0  0
  2 34  1  0  0  0  0
  3 32  1  0  0  0  0
  3 33  1  0  0  0  0
  4 32  1  0  0  0  0
  4 33  1  0  0  0  0
 22  7  1  6  0  0  0
  7 31  1  0  0  0  0
  8 24  2  0  0  0  0
  9 28  2  0  0  0  0
 10 30  1  0  0  0  0
 11 30  2  0  0  0  0
 12 36  2  0  0  0  0
 13 37  1  0  0  0  0
 14 37  2  0  0  0  0
 15 23  1  0  0  0  0
 15 24  1  0  0  0  0
 15 25  1  0  0  0  0
 16 22  1  0  0  0  0
 16 28  1  0  0  0  0
 16 40  1  0  0  0  0
 17 19  1  0  0  0  0
 17 34  1  0  0  0  0
 17 38  1  0  0  0  0
 18 20  1  0  0  0  0
 18 34  2  0  0  0  0
 19 20  2  0  0  0  0
 21 36  1  0  0  0  0
 21 52  1  0  0  0  0
 21 53  1  0  0  0  0
 22 23  1  0  0  0  0
 22 24  1  0  0  0  0
 23 39  1  6  0  0  0
 25 26  2  0  0  0  0
 25 30  1  0  0  0  0
 26 27  1  0  0  0  0
 26 29  1  0  0  0  0
 27 41  1  0  0  0  0
 27 42  1  0  0  0  0
 28 32  1  0  0  0  0
 29 43  1  0  0  0  0
 29 44  1  0  0  0  0
 31 45  1  0  0  0  0
 31 46  1  0  0  0  0
 31 47  1  0  0  0  0
 32 48  1  0  0  0  0
 33 35  2  0  0  0  0
 35 36  1  0  0  0  0
 35 37  1  0  0  0  0
 38 49  1  0  0  0  0
 38 50  1  0  0  0  0
 38 51  1  0  0  0  0
M  CHG  4   5   1   6   1  10  -1  13  -1
M  END
> <PUBCHEM_COMPOUND_CID>
53024

> <PUBCHEM_COMPOUND_CANONICALIZED>
1

> <PUBCHEM_CACTVS_COMPLEXITY>
1080

> <PUBCHEM_CACTVS_HBOND_ACCEPTOR>
15

> <PUBCHEM_CACTVS_HBOND_DONOR>
2

> <PUBCHEM_CACTVS_ROTATABLE_BOND>
7

> <PUBCHEM_CACTVS_SUBSKEYS>
AAADccB7vDBwAAAAAAAAAAAAAABYkWAAAAAgAAAAAAAQAAABgAAAHgQYAAAADAzFwAaDGAfIBAiqAgXQfAKAEQNAgJAFSAHIAEGCRAwoACQVEAACNgCwAQAAAAAAAAAAAAAAAAAAAAAAAAAAAAAAAAAAAA==

> <PUBCHEM_IUPAC_OPENEYE_NAME>
disodium (6R,7S)-7-[[4-(2-amino-1-carboxylato-2-oxo-ethylidene)-1,3-dithietane-2-carbonyl]amino]-7-methoxy-3-[(1-methyltetrazol-5-yl)sulfanylmethyl]-8-oxo-5-thia-1-azabicyclo[4.2.0]oct-2-ene-2-carboxylate

> <PUBCHEM_IUPAC_CAS_NAME>
disodium (6R,7S)-7-[[[4-(2-amino-1-carboxylato-2-oxoethylidene)-1,3-dithietan-2-yl]-oxomethyl]amino]-7-methoxy-3-[[(1-methyl-5-tetrazolyl)thio]methyl]-8-oxo-5-thia-1-azabicyclo[4.2.0]oct-2-ene-2-carboxylate

> <PUBCHEM_IUPAC_NAME>
disodium (6R,7S)-7-[[4-(2-amino-1-carboxylato-2-oxoethylidene)-1,3-dithietane-2-carbonyl]amino]-7-methoxy-3-[(1-methyltetrazol-5-yl)sulfanylmethyl]-8-oxo-5-thia-1-azabicyclo[4.2.0]oct-2-ene-2-carboxylate

> <PUBCHEM_IUPAC_SYSTEMATIC_NAME>
disodium (6R,7S)-7-[[4-[1-azanyl-3-oxidanidyl-1,3-bis(oxidanylidene)propan-2-ylidene]-1,3-dithietan-2-yl]carbonylamino]-7-methoxy-3-[(1-methyl-1,2,3,4-tetrazol-5-yl)sulfanylmethyl]-8-oxidanylidene-5-thia-1-azabicyclo[4.2.0]oct-2-ene-2-carboxylate

> <PUBCHEM_IUPAC_TRADITIONAL_NAME>
disodium (6R,7S)-7-[[4-(2-amino-1-carboxylato-2-keto-ethylidene)-1,3-dithietane-2-carbonyl]amino]-8-keto-7-methoxy-3-[[(1-methyltetrazol-5-yl)thio]methyl]-5-thia-1-azabicyclo[4.2.0]oct-2-ene-2-carboxylate

> <PUBCHEM_IUPAC_INCHI>
InChI=1S/C17H17N7O8S4.2Na/c1-23-16(20-21-22-23)34-4-5-3-33-15-17(32-2,14(31)24(15)7(5)11(29)30)19-9(26)13-35-12(36-13)6(8(18)25)10(27)28;;/h13,15H,3-4H2,1-2H3,(H2,18,25)(H,19,26)(H,27,28)(H,29,30);;/q;2*+1/p-2/t13?,15-,17+;;/m1../s1

> <PUBCHEM_IUPAC_INCHIKEY>
ZQQALMSFFARWPK-ZTQQJVKJSA-L

> <PUBCHEM_EXACT_MASS>
618.966033

> <PUBCHEM_MOLECULAR_FORMULA>
C17H15N7Na2O8S4

> <PUBCHEM_MOLECULAR_WEIGHT>
619.582639

> <PUBCHEM_OPENEYE_CAN_SMILES>
CN1C(=NN=N1)SCC2=C(N3C(C(C3=O)(NC(=O)C4SC(=C(C(=O)N)C(=O)[O-])S4)OC)SC2)C(=O)[O-].[Na+].[Na+]

> <PUBCHEM_OPENEYE_ISO_SMILES>
CN1C(=NN=N1)SCC2=C(N3[C@@H]([C@@](C3=O)(NC(=O)C4SC(=C(C(=O)N)C(=O)[O-])S4)OC)SC2)C(=O)[O-].[Na+].[Na+]

> <PUBCHEM_CACTVS_TPSA>
327

> <PUBCHEM_MONOISOTOPIC_WEIGHT>
618.966033

> <PUBCHEM_TOTAL_CHARGE>
0

> <PUBCHEM_HEAVY_ATOM_COUNT>
38

> <PUBCHEM_ATOM_DEF_STEREO_COUNT>
2

> <PUBCHEM_ATOM_UDEF_STEREO_COUNT>
0

> <PUBCHEM_BOND_DEF_STEREO_COUNT>
0

> <PUBCHEM_BOND_UDEF_STEREO_COUNT>
0

> <PUBCHEM_ISOTOPIC_ATOM_COUNT>
0

> <PUBCHEM_COMPONENT_COUNT>
3

> <PUBCHEM_CACTVS_TAUTO_COUNT>
4

> <PUBCHEM_COORDINATE_TYPE>
1
5
255

> <PUBCHEM_BONDANNOTATIONS>
17  19  8
17  34  8
18  20  8
18  34  8
19  20  8
23  39  6
22  7  6

$$$$

