198549
  -OEChem-07051212582D

 65 70  0     1  0  0  0  0  0999 V2000
    5.9199   -2.1067    0.0000 O   0  0  0  0  0  0  0  0  0  0  0  0
    8.6234    0.3304    0.0000 O   0  0  0  0  0  0  0  0  0  0  0  0
   10.3936    2.3892    0.0000 O   0  0  0  0  0  0  0  0  0  0  0  0
    4.4698    0.4155    0.0000 O   0  0  0  0  0  0  0  0  0  0  0  0
    4.9974    0.8651    0.0000 O   0  0  0  0  0  0  0  0  0  0  0  0
    6.8635    3.3650    0.0000 O   0  0  0  0  0  0  0  0  0  0  0  0
    8.6119    3.3996    0.0000 O   0  0  0  0  0  0  0  0  0  0  0  0
    3.2391    0.1469    0.0000 O   0  0  0  0  0  0  0  0  0  0  0  0
    2.6110   -3.3369    0.0000 O   0  0  0  0  0  0  0  0  0  0  0  0
    9.2164   -3.5674    0.0000 O   0  0  0  0  0  0  0  0  0  0  0  0
   10.5019   -2.0353    0.0000 O   0  0  0  0  0  0  0  0  0  0  0  0
   12.9936    0.8309    0.0000 O   0  0  0  0  0  0  0  0  0  0  0  0
   12.9859   -1.1691    0.0000 O   0  0  0  0  0  0  0  0  0  0  0  0
    6.2208   -0.4011    0.0000 C   0  0  1  0  0  0  0  0  0  0  0  0
    6.5627   -1.3407    0.0000 C   0  0  1  0  0  0  0  0  0  0  0  0
    6.8635    0.3650    0.0000 C   0  0  0  0  0  0  0  0  0  0  0  0
    7.7295    0.8650    0.0000 C   0  0  0  0  0  0  0  0  0  0  0  0
    5.2359   -0.2274    0.0000 C   0  0  0  0  0  0  0  0  0  0  0  0
    9.5295    0.8442    0.0000 C   0  0  1  0  0  0  0  0  0  0  0  0
    7.7295    1.8650    0.0000 C   0  0  0  0  0  0  0  0  0  0  0  0
    9.5295    1.8859    0.0000 C   0  0  2  0  0  0  0  0  0  0  0  0
    7.5475   -1.5143    0.0000 C   0  0  0  0  0  0  0  0  0  0  0  0
    4.5931   -0.9935    0.0000 C   0  0  0  0  0  0  0  0  0  0  0  0
    5.9974    0.8650    0.0000 C   0  0  0  0  0  0  0  0  0  0  0  0
    8.6234    2.3997    0.0000 C   0  0  0  0  0  0  0  0  0  0  0  0
    4.9352   -1.9332    0.0000 C   0  0  0  0  0  0  0  0  0  0  0  0
    6.8635    2.3650    0.0000 C   0  0  0  0  0  0  0  0  0  0  0  0
   10.3936    0.3409    0.0000 C   0  0  0  0  0  0  0  0  0  0  0  0
    5.9974    1.8650    0.0000 C   0  0  0  0  0  0  0  0  0  0  0  0
    3.5702   -0.7968    0.0000 C   0  0  0  0  0  0  0  0  0  0  0  0
    7.8895   -2.4540    0.0000 C   0  0  0  0  0  0  0  0  0  0  0  0
    8.1903   -0.7483    0.0000 C   0  0  0  0  0  0  0  0  0  0  0  0
    4.2780   -2.7413    0.0000 C   0  0  0  0  0  0  0  0  0  0  0  0
    2.8945   -1.5895    0.0000 C   0  0  0  0  0  0  0  0  0  0  0  0
   11.2615    0.8375    0.0000 C   0  0  0  0  0  0  0  0  0  0  0  0
   10.3897   -0.6591    0.0000 C   0  0  0  0  0  0  0  0  0  0  0  0
    3.2508   -2.5684    0.0000 C   0  0  0  0  0  0  0  0  0  0  0  0
    8.8743   -2.6277    0.0000 C   0  0  0  0  0  0  0  0  0  0  0  0
    9.1751   -0.9219    0.0000 C   0  0  0  0  0  0  0  0  0  0  0  0
    9.5171   -1.8616    0.0000 C   0  0  0  0  0  0  0  0  0  0  0  0
   12.1256    0.3342    0.0000 C   0  0  0  0  0  0  0  0  0  0  0  0
   11.2538   -1.1624    0.0000 C   0  0  0  0  0  0  0  0  0  0  0  0
   12.1218   -0.6658    0.0000 C   0  0  0  0  0  0  0  0  0  0  0  0
    7.0579   -0.5486    0.0000 H   0  0  0  0  0  0  0  0  0  0  0  0
    6.7748   -1.9233    0.0000 H   0  0  0  0  0  0  0  0  0  0  0  0
    9.5259    0.2242    0.0000 H   0  0  0  0  0  0  0  0  0  0  0  0
    9.5259    2.5058    0.0000 H   0  0  0  0  0  0  0  0  0  0  0  0
    5.4605    2.1750    0.0000 H   0  0  0  0  0  0  0  0  0  0  0  0
    7.4910   -2.9290    0.0000 H   0  0  0  0  0  0  0  0  0  0  0  0
    7.9782   -0.1657    0.0000 H   0  0  0  0  0  0  0  0  0  0  0  0
    4.4967   -3.3214    0.0000 H   0  0  0  0  0  0  0  0  0  0  0  0
   11.2639    1.4575    0.0000 H   0  0  0  0  0  0  0  0  0  0  0  0
    2.2844   -1.4795    0.0000 H   0  0  0  0  0  0  0  0  0  0  0  0
   10.3912    3.0092    0.0000 H   0  0  0  0  0  0  0  0  0  0  0  0
    9.8516   -0.9670    0.0000 H   0  0  0  0  0  0  0  0  0  0  0  0
    9.5736   -0.4470    0.0000 H   0  0  0  0  0  0  0  0  0  0  0  0
    4.6875    1.4021    0.0000 H   0  0  0  0  0  0  0  0  0  0  0  0
    6.3265    3.6750    0.0000 H   0  0  0  0  0  0  0  0  0  0  0  0
   11.2514   -1.7824    0.0000 H   0  0  0  0  0  0  0  0  0  0  0  0
    2.6298    0.2616    0.0000 H   0  0  0  0  0  0  0  0  0  0  0  0
    2.0000   -3.2316    0.0000 H   0  0  0  0  0  0  0  0  0  0  0  0
    9.8270   -3.6750    0.0000 H   0  0  0  0  0  0  0  0  0  0  0  0
   10.7140   -2.6179    0.0000 H   0  0  0  0  0  0  0  0  0  0  0  0
   13.5293    0.5188    0.0000 H   0  0  0  0  0  0  0  0  0  0  0  0
   12.9835   -1.7891    0.0000 H   0  0  0  0  0  0  0  0  0  0  0  0
  1 15  1  0  0  0  0
  1 26  1  0  0  0  0
  2 17  1  0  0  0  0
  2 19  1  0  0  0  0
 21  3  1  6  0  0  0
  3 54  1  0  0  0  0
  4 18  2  0  0  0  0
  5 24  1  0  0  0  0
  5 57  1  0  0  0  0
  6 27  1  0  0  0  0
  6 58  1  0  0  0  0
  7 25  2  0  0  0  0
  8 30  1  0  0  0  0
  8 60  1  0  0  0  0
  9 37  1  0  0  0  0
  9 61  1  0  0  0  0
 10 38  1  0  0  0  0
 10 62  1  0  0  0  0
 11 40  1  0  0  0  0
 11 63  1  0  0  0  0
 12 41  1  0  0  0  0
 12 64  1  0  0  0  0
 13 43  1  0  0  0  0
 13 65  1  0  0  0  0
 14 15  1  0  0  0  0
 14 16  1  0  0  0  0
 14 18  1  0  0  0  0
 14 44  1  1  0  0  0
 15 22  1  1  0  0  0
 15 45  1  0  0  0  0
 16 17  2  0  0  0  0
 16 24  1  0  0  0  0
 17 20  1  0  0  0  0
 18 23  1  0  0  0  0
 19 21  1  0  0  0  0
 19 28  1  1  0  0  0
 19 46  1  0  0  0  0
 20 25  1  0  0  0  0
 20 27  2  0  0  0  0
 21 25  1  0  0  0  0
 21 47  1  0  0  0  0
 22 31  2  0  0  0  0
 22 32  1  0  0  0  0
 23 26  1  0  0  0  0
 23 30  2  0  0  0  0
 24 29  2  0  0  0  0
 26 33  2  0  0  0  0
 27 29  1  0  0  0  0
 28 35  2  0  0  0  0
 28 36  1  0  0  0  0
 29 48  1  0  0  0  0
 30 34  1  0  0  0  0
 31 38  1  0  0  0  0
 31 49  1  0  0  0  0
 32 39  2  0  0  0  0
 32 50  1  0  0  0  0
 33 37  1  0  0  0  0
 33 51  1  0  0  0  0
 34 37  2  0  0  0  0
 34 53  1  0  0  0  0
 35 41  1  0  0  0  0
 35 52  1  0  0  0  0
 36 42  2  0  0  0  0
 36 55  1  0  0  0  0
 38 40  2  0  0  0  0
 39 40  1  0  0  0  0
 39 56  1  0  0  0  0
 41 43  2  0  0  0  0
 42 43  1  0  0  0  0
 42 59  1  0  0  0  0
M  END
> <PUBCHEM_COMPOUND_CID>
198549

> <PUBCHEM_COMPOUND_CANONICALIZED>
1

> <PUBCHEM_CACTVS_COMPLEXITY>
1040

> <PUBCHEM_CACTVS_HBOND_ACCEPTOR>
13

> <PUBCHEM_CACTVS_HBOND_DONOR>
9

> <PUBCHEM_CACTVS_ROTATABLE_BOND>
3

> <PUBCHEM_CACTVS_SUBSKEYS>
AAADceB4PAAAAAAAAAAAAAAAAAAAAAAAAAA0aMGCAAAAAACRVAAAGgAACAAADRSgmAIwBoAABgCIAqBSAAICCAAkIAAIiAFGiMgNNzaGNRqCeWGl4BULuQfK7PzOoAADCAAIQABAAAYQABCAAAAAAAAAAA==

> <PUBCHEM_IUPAC_OPENEYE_NAME>
(2R,3R)-2-(3,4-dihydroxyphenyl)-8-[(2S,3R)-2-(3,4-dihydroxyphenyl)-5,7-dihydroxy-4-oxo-chroman-3-yl]-3,5,7-trihydroxy-chroman-4-one

> <PUBCHEM_IUPAC_CAS_NAME>
(2R,3R)-2-(3,4-dihydroxyphenyl)-8-[(2S,3R)-2-(3,4-dihydroxyphenyl)-5,7-dihydroxy-4-oxo-3,4-dihydro-2H-1-benzopyran-3-yl]-3,5,7-trihydroxy-3,4-dihydro-2H-1-benzopyran-4-one

> <PUBCHEM_IUPAC_NAME>
(2R,3R)-2-(3,4-dihydroxyphenyl)-8-[(2S,3R)-2-(3,4-dihydroxyphenyl)-5,7-dihydroxy-4-oxo-2,3-dihydrochromen-3-yl]-3,5,7-trihydroxy-2,3-dihydrochromen-4-one

> <PUBCHEM_IUPAC_SYSTEMATIC_NAME>
(2R,3R)-2-[3,4-bis(oxidanyl)phenyl]-8-[(2S,3R)-2-[3,4-bis(oxidanyl)phenyl]-5,7-bis(oxidanyl)-4-oxidanylidene-2,3-dihydrochromen-3-yl]-3,5,7-tris(oxidanyl)-2,3-dihydrochromen-4-one

> <PUBCHEM_IUPAC_TRADITIONAL_NAME>
(2R,3R)-2-(3,4-dihydroxyphenyl)-8-[(2S,3R)-2-(3,4-dihydroxyphenyl)-5,7-dihydroxy-4-keto-chroman-3-yl]-3,5,7-trihydroxy-chroman-4-one

> <PUBCHEM_IUPAC_INCHI>
InChI=1S/C30H22O13/c31-12-7-17(36)21-20(8-12)42-28(10-1-3-13(32)15(34)5-10)24(25(21)39)22-18(37)9-19(38)23-26(40)27(41)29(43-30(22)23)11-2-4-14(33)16(35)6-11/h1-9,24,27-29,31-38,41H/t24-,27-,28+,29+/m0/s1

> <PUBCHEM_IUPAC_INCHIKEY>
UKRJEVDCOVVSAB-BENTYHEHSA-N

> <PUBCHEM_XLOGP3_AA>
3.3

> <PUBCHEM_EXACT_MASS>
590.106041

> <PUBCHEM_MOLECULAR_FORMULA>
C30H22O13

> <PUBCHEM_MOLECULAR_WEIGHT>
590.48788

> <PUBCHEM_OPENEYE_CAN_SMILES>
C1=CC(=C(C=C1C2C(C(=O)C3=C(C=C(C=C3O2)O)O)C4=C(C=C(C5=C4OC(C(C5=O)O)C6=CC(=C(C=C6)O)O)O)O)O)O

> <PUBCHEM_OPENEYE_ISO_SMILES>
C1=CC(=C(C=C1[C@@H]2[C@H](C(=O)C3=C(C=C(C=C3O2)O)O)C4=C(C=C(C5=C4O[C@@H]([C@H](C5=O)O)C6=CC(=C(C=C6)O)O)O)O)O)O

> <PUBCHEM_CACTVS_TPSA>
235

> <PUBCHEM_MONOISOTOPIC_WEIGHT>
590.106041

> <PUBCHEM_TOTAL_CHARGE>
0

> <PUBCHEM_HEAVY_ATOM_COUNT>
43

> <PUBCHEM_ATOM_DEF_STEREO_COUNT>
4

> <PUBCHEM_ATOM_UDEF_STEREO_COUNT>
0

> <PUBCHEM_BOND_DEF_STEREO_COUNT>
0

> <PUBCHEM_BOND_UDEF_STEREO_COUNT>
0

> <PUBCHEM_ISOTOPIC_ATOM_COUNT>
0

> <PUBCHEM_COMPONENT_COUNT>
1

> <PUBCHEM_CACTVS_TAUTO_COUNT>
986

> <PUBCHEM_COORDINATE_TYPE>
1
5
255

> <PUBCHEM_BONDANNOTATIONS>
14  44  5
15  22  5
16  17  8
16  24  8
17  20  8
19  28  5
20  27  8
22  31  8
22  32  8
23  26  8
23  30  8
24  29  8
26  33  8
27  29  8
28  35  8
28  36  8
21  3  6
30  34  8
31  38  8
32  39  8
33  37  8
34  37  8
35  41  8
36  42  8
38  40  8
39  40  8
41  43  8
42  43  8

$$$$

