62275
  -OEChem-07051213132D

 27 29  0     0  0  0  0  0  0999 V2000
    3.8936   -1.7117    0.0000 N   0  0  0  0  0  0  0  0  0  0  0  0
    3.8936   -0.1023    0.0000 N   0  0  0  0  0  0  0  0  0  0  0  0
    5.6898    1.1345    0.0000 N   0  0  0  0  0  0  0  0  0  0  0  0
    7.4819    0.0998    0.0000 N   0  0  0  0  0  0  0  0  0  0  0  0
    2.3100   -0.9070    0.0000 N   0  0  0  0  0  0  0  0  0  0  0  0
    4.8398   -1.4070    0.0000 C   0  0  0  0  0  0  0  0  0  0  0  0
    4.8398   -0.4070    0.0000 C   0  0  0  0  0  0  0  0  0  0  0  0
    5.7058    0.0930    0.0000 C   0  0  0  0  0  0  0  0  0  0  0  0
    6.5719   -0.4070    0.0000 C   0  0  0  0  0  0  0  0  0  0  0  0
    3.3100   -0.9070    0.0000 C   0  0  0  0  0  0  0  0  0  0  0  0
    5.7058   -1.9070    0.0000 C   0  0  0  0  0  0  0  0  0  0  0  0
    6.5719   -1.4070    0.0000 C   0  0  0  0  0  0  0  0  0  0  0  0
    3.5830   -2.6622    0.0000 C   0  0  0  0  0  0  0  0  0  0  0  0
    6.5878    1.6623    0.0000 C   0  0  0  0  0  0  0  0  0  0  0  0
    7.4899    1.1414    0.0000 C   0  0  0  0  0  0  0  0  0  0  0  0
    6.5840    2.6622    0.0000 C   0  0  0  0  0  0  0  0  0  0  0  0
    5.7058   -2.5270    0.0000 H   0  0  0  0  0  0  0  0  0  0  0  0
    7.1088   -1.7170    0.0000 H   0  0  0  0  0  0  0  0  0  0  0  0
    2.9936   -2.4696    0.0000 H   0  0  0  0  0  0  0  0  0  0  0  0
    3.3903   -3.2516    0.0000 H   0  0  0  0  0  0  0  0  0  0  0  0
    4.1723   -2.8549    0.0000 H   0  0  0  0  0  0  0  0  0  0  0  0
    8.0280    1.4494    0.0000 H   0  0  0  0  0  0  0  0  0  0  0  0
    2.0000   -0.3701    0.0000 H   0  0  0  0  0  0  0  0  0  0  0  0
    2.0000   -1.4439    0.0000 H   0  0  0  0  0  0  0  0  0  0  0  0
    7.2040    2.6646    0.0000 H   0  0  0  0  0  0  0  0  0  0  0  0
    6.5816    3.2822    0.0000 H   0  0  0  0  0  0  0  0  0  0  0  0
    5.9640    2.6599    0.0000 H   0  0  0  0  0  0  0  0  0  0  0  0
  1  6  1  0  0  0  0
  1 10  1  0  0  0  0
  1 13  1  0  0  0  0
  2  7  1  0  0  0  0
  2 10  2  0  0  0  0
  3  8  2  0  0  0  0
  3 14  1  0  0  0  0
  4  9  2  0  0  0  0
  4 15  1  0  0  0  0
  5 10  1  0  0  0  0
  5 23  1  0  0  0  0
  5 24  1  0  0  0  0
  6  7  2  0  0  0  0
  6 11  1  0  0  0  0
  7  8  1  0  0  0  0
  8  9  1  0  0  0  0
  9 12  1  0  0  0  0
 11 12  2  0  0  0  0
 11 17  1  0  0  0  0
 12 18  1  0  0  0  0
 13 19  1  0  0  0  0
 13 20  1  0  0  0  0
 13 21  1  0  0  0  0
 14 15  2  0  0  0  0
 14 16  1  0  0  0  0
 15 22  1  0  0  0  0
 16 25  1  0  0  0  0
 16 26  1  0  0  0  0
 16 27  1  0  0  0  0
M  END
> <PUBCHEM_COMPOUND_CID>
62275

> <PUBCHEM_COMPOUND_CANONICALIZED>
1

> <PUBCHEM_CACTVS_COMPLEXITY>
271

> <PUBCHEM_CACTVS_HBOND_ACCEPTOR>
4

> <PUBCHEM_CACTVS_HBOND_DONOR>
1

> <PUBCHEM_CACTVS_ROTATABLE_BOND>
0

> <PUBCHEM_CACTVS_SUBSKEYS>
AAADccBzgAAAAAAAAAAAAAAAAAAAAWAAAAA8QAAAAAAAAFix/gAAHAAQAAAACAjBFgQ/0LdMEACgATRnZACCgC0xEqAJ2CA4dJiIaOLA2dGUJAhogALIyCcQAAAAAACAAAQAACAAAQAACAAAQAAAAAAAAA==

> <PUBCHEM_IUPAC_OPENEYE_NAME>
3,8-dimethylimidazo[4,5-f]quinoxalin-2-amine

> <PUBCHEM_IUPAC_CAS_NAME>
3,8-dimethyl-2-imidazo[4,5-f]quinoxalinamine

> <PUBCHEM_IUPAC_NAME>
3,8-dimethylimidazo[4,5-f]quinoxalin-2-amine

> <PUBCHEM_IUPAC_SYSTEMATIC_NAME>
3,8-dimethylimidazo[4,5-f]quinoxalin-2-amine

> <PUBCHEM_IUPAC_TRADITIONAL_NAME>
(3,8-dimethylimidazo[4,5-f]quinoxalin-2-yl)amine

> <PUBCHEM_IUPAC_INCHI>
InChI=1S/C11H11N5/c1-6-5-13-7-3-4-8-10(9(7)14-6)15-11(12)16(8)2/h3-5H,1-2H3,(H2,12,15)

> <PUBCHEM_IUPAC_INCHIKEY>
DVCCCQNKIYNAKB-UHFFFAOYSA-N

> <PUBCHEM_XLOGP3>
1

> <PUBCHEM_EXACT_MASS>
213.101445

> <PUBCHEM_MOLECULAR_FORMULA>
C11H11N5

> <PUBCHEM_MOLECULAR_WEIGHT>
213.23854

> <PUBCHEM_OPENEYE_CAN_SMILES>
CC1=CN=C2C=CC3=C(C2=N1)N=C(N3C)N

> <PUBCHEM_OPENEYE_ISO_SMILES>
CC1=CN=C2C=CC3=C(C2=N1)N=C(N3C)N

> <PUBCHEM_CACTVS_TPSA>
69.6

> <PUBCHEM_MONOISOTOPIC_WEIGHT>
213.101445

> <PUBCHEM_TOTAL_CHARGE>
0

> <PUBCHEM_HEAVY_ATOM_COUNT>
16

> <PUBCHEM_ATOM_DEF_STEREO_COUNT>
0

> <PUBCHEM_ATOM_UDEF_STEREO_COUNT>
0

> <PUBCHEM_BOND_DEF_STEREO_COUNT>
0

> <PUBCHEM_BOND_UDEF_STEREO_COUNT>
0

> <PUBCHEM_ISOTOPIC_ATOM_COUNT>
0

> <PUBCHEM_COMPONENT_COUNT>
1

> <PUBCHEM_CACTVS_TAUTO_COUNT>
4

> <PUBCHEM_COORDINATE_TYPE>
1
5
255

> <PUBCHEM_BONDANNOTATIONS>
1  10  8
1  6  8
11  12  8
14  15  8
2  10  8
2  7  8
3  14  8
3  8  8
4  15  8
4  9  8
6  11  8
6  7  8
7  8  8
8  9  8
9  12  8

$$$$

