   Color/Form

     * Crystalline solid
     * COLORLESS
     * Crystals from n-hexane + benzene

   from [1]HSDB

   Odor
        ODORLESS SOLID
   from [2]HSDB

   Boiling Point
        Degrades before boiling
   from [3]HSDB

   Melting Point
        75-76 deg C
   from [4]HSDB

   Corrosivity

     * Liq concn may cause corrosion of tin plate & mild steel at the
       liq-air interface; aluminum, phenolic-lined cans or glass are
       recommended for storage
     * Corrosive

   from [5]HSDB

   Density/Specific Gravity
        1.403 g/cu cm at 25 deg C
   from [6]HSDB

   Octanol/Water Partition Coefficient
        log Kow = 3.41 /Estimated/
   from [7]HSDB

   Solubilities

     * At 25 deg C g/100 g solvent: benzene 32.7 g; n-butylbenzene 11.3 g;
       n-dodecane less than 0.1 g; n-hexane 0.14 g; isopropylbenzene less
       than 7.0 g; kerosene 0.39 g; toluene 25.7 g; 2,2,4-trimethylpentane
       more than 0.3 g; xylene 27.9 g; water 0.0011 g
     * In water, 1.1X10+1 mg/L at 25 deg C

   from [8]HSDB

   Spectral Properties
        Intense mass spectral peaks: 222 m/z (100%), 51 m/z (74%), 87 m/z
   (67%), 143 m/z (40%)
   from [9]HSDB

   Vapor Pressure
        3.8X10-7 mm Hg at 25 deg C
   from [10]HSDB

   Other Chemical/Physical Properties

     * Tan solid /Technical/
     * Hydrolyzed by alkali with liberation of the terminal chlorine.
       Hydrolysis under acidic conditions gives 3-chloroacrylic acid
     * Decomposition temperature: not available; technical material
       greater than 95% pure is pale brown with faint odor.
     * VP = 0.05 mPa at 25 deg C
     * Hydrolysis is very rapid in alkali with displacement of the
       terminal chlorine substituent. (50% loss at 25 deg C in 58 sec at
       pH 13)
     * Henry's Law constant: 1.17X10-8 atm cu m/mol at 25 deg C
       /Estimated/
     * Hydroxyl radical reaction rate constant = 5.5X10-11 cu
       cm/molecule-sec at 25 deg C /Estimated/
     * Ozone rate constant = 2.7X10-20 cu cm/molecule-second at 25 deg C
       /Estimated/

   from [11]HSDB

   Computed Properties
   Molecular Weight                  258.10066 [g/mol]
   Molecular Formula                 C[11]H[9]Cl[2]NO[2]
   XLogP3                            3.2
   H-Bond Donor                      1
   H-Bond Acceptor                   2
   Rotatable Bond Count              3
   Tautomer Count                    2
   Exact Mass                        257.001034
   MonoIsotopic Mass                 257.001034
   Topological Polar Surface Area    38.3
   Heavy Atom Count                  16
   Formal Charge                     0
   Complexity                        295
   Isotope Atom Count                0
   Defined Atom Stereocenter Count   0
   Undefined Atom Stereocenter Count 0
   Defined Bond Stereocenter Count   0
   Undefined Bond Stereocenter Count 0
   Covalently-Bonded Unit Count      1
   Feature 3D Acceptor Count         1
   Feature 3D Donor Count            1
   Feature 3D Ring Count             1
   Effective Rotor Count             4
   Conformer Sampling RMSD           0.6
   CID Conformer Count               [12]109

References

   1. http://toxnet.nlm.nih.gov/cgi-bin/sis/search/r?dbs+hsdb:@term+@rn+@rel+101-27-9
   2. http://toxnet.nlm.nih.gov/cgi-bin/sis/search/r?dbs+hsdb:@term+@rn+@rel+101-27-9
   3. http://toxnet.nlm.nih.gov/cgi-bin/sis/search/r?dbs+hsdb:@term+@rn+@rel+101-27-9
   4. http://toxnet.nlm.nih.gov/cgi-bin/sis/search/r?dbs+hsdb:@term+@rn+@rel+101-27-9
   5. http://toxnet.nlm.nih.gov/cgi-bin/sis/search/r?dbs+hsdb:@term+@rn+@rel+101-27-9
   6. http://toxnet.nlm.nih.gov/cgi-bin/sis/search/r?dbs+hsdb:@term+@rn+@rel+101-27-9
   7. http://toxnet.nlm.nih.gov/cgi-bin/sis/search/r?dbs+hsdb:@term+@rn+@rel+101-27-9
   8. http://toxnet.nlm.nih.gov/cgi-bin/sis/search/r?dbs+hsdb:@term+@rn+@rel+101-27-9
   9. http://toxnet.nlm.nih.gov/cgi-bin/sis/search/r?dbs+hsdb:@term+@rn+@rel+101-27-9
  10. http://toxnet.nlm.nih.gov/cgi-bin/sis/search/r?dbs+hsdb:@term+@rn+@rel+101-27-9
  11. http://toxnet.nlm.nih.gov/cgi-bin/sis/search/r?dbs+hsdb:@term+@rn+@rel+101-27-9
  12. http://pubchem.ncbi.nlm.nih.gov/vw3d/vw3d.cgi?cid=7551
