   Color/Form

     * Mobile liquid
     * Colorless, volatile liquid

   from [1]HSDB

   Odor

     * Amine odor
     * Characteristic strong odor

   from [2]HSDB

   Taste

     * Acrid, burning taste
     * Slightly burning taste

   from [3]HSDB

   Boiling Point
        200-203 deg C @ 760 mm Hg
   from [4]HSDB

   Density/Specific Gravity
        0.913 @ 25 deg C/4 deg C
   from [5]HSDB

   Dissociation Constants
        pKa = 10.13
   from [6]HSDB

   Octanol/Water Partition Coefficient
        log Kow= 1.76
   from [7]HSDB

   pH
        Aq soln are alkaline to litmus
   from [8]HSDB

   Solubilities

     * Sparingly sol in water (1:50)
     * SOL IN DIETHYL ETHER, ETHANOL
     * Slightly sol in water; sol in alc, ether; readily sol in acids.
     * Slightly soluble in water and ethyl ether; soluble in ethanol and
       chloroform.

   from [9]HSDB

   Spectral Properties

     * Index of refraction: 1.518 @ 26 deg C/D
     * MASS: 2-760 (Archives of Mass Spectral Data, John Wiley & Sons, New
       York)
     * IR: 2:673F (Aldrich Library of Infrared Spectra, Aldrich Chemical
       Co, Milwaukee, WI)
     * NMR: 5:104A (Aldrich Library of Mass Spectra, Aldrich Chemical Co,
       Milwaukee, WI)
     * MASS: 305 (National Bureau of Standards EPA-NIH Mass Spectra Data
       Base, NSRDS-NBS-63)
     * Intense mass spectral peaks: 44 m/z, 65 m/z, 91 m/z, 120 m/z, 135
       m/z

   from [10]HSDB

   Other Chemical/Physical Properties

     * Volatilizes slowly at room temp
     * Crystals; bitter taste; sinters at about 150 deg C; decomp around
       300 deg C; pH of 10% soln is about 4.6; More sol in water than
       amphetamine sulfate; slightly sol in alc; practically insol in
       benzene, chloroform, ether /Amphetamine phosphate/
     * Crystals; slightly bitter taste followed by sensation of numbness;
       mp above 300 deg C (decomp); soln of 1 g/10 ml water has pH 5-6; 1
       part dissolves in 8.8 parts water, 515 parts 95% alc /Amphetamine
       sulfate/
     * INSOL IN DIETHYL ETHER /AMPHETAMINE SULFATE/
     * UV: 1295 (Absorption Spectra in the UV and visible Regions,
       Academic Press, New York) /Amphetamine sulfate (d)/

   from [11]HSDB

   Computed Properties
   Molecular Weight                  135.20622 [g/mol]
   Molecular Formula                 C[9]H[13]N
   XLogP3                            1.8
   H-Bond Donor                      1
   H-Bond Acceptor                   1
   Rotatable Bond Count              2
   Exact Mass                        135.104799
   MonoIsotopic Mass                 135.104799
   Topological Polar Surface Area    26
   Heavy Atom Count                  10
   Formal Charge                     0
   Complexity                        84.7
   Isotope Atom Count                0
   Defined Atom Stereocenter Count   1
   Undefined Atom Stereocenter Count 0
   Defined Bond Stereocenter Count   0
   Undefined Bond Stereocenter Count 0
   Covalently-Bonded Unit Count      1
   Feature 3D Donor Count            1
   Feature 3D Cation Count           1
   Feature 3D Ring Count             1
   Effective Rotor Count             2
   Conformer Sampling RMSD           0.4
   CID Conformer Count               [12]8

References

   1. http://toxnet.nlm.nih.gov/cgi-bin/sis/search/r?dbs+hsdb:@term+@rn+@rel+300-62-9
   2. http://toxnet.nlm.nih.gov/cgi-bin/sis/search/r?dbs+hsdb:@term+@rn+@rel+300-62-9
   3. http://toxnet.nlm.nih.gov/cgi-bin/sis/search/r?dbs+hsdb:@term+@rn+@rel+300-62-9
   4. http://toxnet.nlm.nih.gov/cgi-bin/sis/search/r?dbs+hsdb:@term+@rn+@rel+300-62-9
   5. http://toxnet.nlm.nih.gov/cgi-bin/sis/search/r?dbs+hsdb:@term+@rn+@rel+300-62-9
   6. http://toxnet.nlm.nih.gov/cgi-bin/sis/search/r?dbs+hsdb:@term+@rn+@rel+300-62-9
   7. http://toxnet.nlm.nih.gov/cgi-bin/sis/search/r?dbs+hsdb:@term+@rn+@rel+300-62-9
   8. http://toxnet.nlm.nih.gov/cgi-bin/sis/search/r?dbs+hsdb:@term+@rn+@rel+300-62-9
   9. http://toxnet.nlm.nih.gov/cgi-bin/sis/search/r?dbs+hsdb:@term+@rn+@rel+300-62-9
  10. http://toxnet.nlm.nih.gov/cgi-bin/sis/search/r?dbs+hsdb:@term+@rn+@rel+300-62-9
  11. http://toxnet.nlm.nih.gov/cgi-bin/sis/search/r?dbs+hsdb:@term+@rn+@rel+300-62-9
  12. http://pubchem.ncbi.nlm.nih.gov/vw3d/vw3d.cgi?cid=5826
