   Color/Form

     * Crystals
     * WHITE TO FAINTLY YELLOWISH, AMORPHOUS OR MICRO-CRYSTALLINE POWDER

   from [1]HSDB

   Melting Point
        151.5 deg C
   from [2]HSDB

   Dissociation Constants
        pKa= 8.66
   from [3]HSDB

   Octanol/Water Partition Coefficient
        log Kow = 4.30
   from [4]HSDB

   Solubilities

     * In water, 1.4X10+1 mg/L @ 25 deg C
     * 16.7 mg/ml in alcohol at 25 deg C
     * Freely sol in chloroform, methanol, acetone, benzene, dil acids

   from [5]HSDB

   Spectral Properties

     * UV max (9:1 0.1M HCl:methanol): 247,221 nm (Epsilon: 13300, 15000)
     * Intense mass spectral peaks: 123 m/z, 189 m/z, 224 m/z, 237 m/z,
       375 m/z
     * MASS: 42411 (NIST/EPA/MSDC Mass Spectral Database, 1990 Version)
     * UV: 2315 (Absorption Spectra in the UV and Visible Region, Academic
       Press, NY)

   from [6]HSDB

   Vapor Pressure
        4.8X10-11 mm Hg @ 25 deg C /Estimated/
   from [7]HSDB

   Other Chemical/Physical Properties

     * Crystals; mp 226-227.5 deg C; sol in water at 300X10+1 mg/L
       /Hydrochloride/
     * Henry's Law constant = 2.3X10-14 atm-cu m/mol @ 25 deg C
       /Estimated/
     * Hydroxyl radical reaction rate constant = 1.2X10-10 cu cm/molec-sec
       @ 25 deg C /Estimated/

   from [8]HSDB

   Computed Properties
   Molecular Weight                  375.864223 [g/mol]
   Molecular Formula                 C[21]H[23]ClFNO[2]
   XLogP3                            3.2
   H-Bond Donor                      1
   H-Bond Acceptor                   4
   Rotatable Bond Count              6
   Tautomer Count                    2
   Exact Mass                        375.140135
   MonoIsotopic Mass                 375.140135
   Topological Polar Surface Area    40.5
   Heavy Atom Count                  26
   Formal Charge                     0
   Complexity                        451
   Isotope Atom Count                0
   Defined Atom Stereocenter Count   0
   Undefined Atom Stereocenter Count 0
   Defined Bond Stereocenter Count   0
   Undefined Bond Stereocenter Count 0
   Covalently-Bonded Unit Count      1
   Feature 3D Acceptor Count         2
   Feature 3D Donor Count            1
   Feature 3D Cation Count           1
   Feature 3D Ring Count             3
   Effective Rotor Count             7.2
   Conformer Sampling RMSD           0.8
   CID Conformer Count               [9]487

References

   1. http://toxnet.nlm.nih.gov/cgi-bin/sis/search/r?dbs+hsdb:@term+@rn+@rel+52-86-8
   2. http://toxnet.nlm.nih.gov/cgi-bin/sis/search/r?dbs+hsdb:@term+@rn+@rel+52-86-8
   3. http://toxnet.nlm.nih.gov/cgi-bin/sis/search/r?dbs+hsdb:@term+@rn+@rel+52-86-8
   4. http://toxnet.nlm.nih.gov/cgi-bin/sis/search/r?dbs+hsdb:@term+@rn+@rel+52-86-8
   5. http://toxnet.nlm.nih.gov/cgi-bin/sis/search/r?dbs+hsdb:@term+@rn+@rel+52-86-8
   6. http://toxnet.nlm.nih.gov/cgi-bin/sis/search/r?dbs+hsdb:@term+@rn+@rel+52-86-8
   7. http://toxnet.nlm.nih.gov/cgi-bin/sis/search/r?dbs+hsdb:@term+@rn+@rel+52-86-8
   8. http://toxnet.nlm.nih.gov/cgi-bin/sis/search/r?dbs+hsdb:@term+@rn+@rel+52-86-8
   9. http://pubchem.ncbi.nlm.nih.gov/vw3d/vw3d.cgi?cid=3559
