445884
  -OEChem-07051212582D

 36 38  0     1  0  0  0  0  0999 V2000
    2.0000   -3.2042    0.0000 O   0  0  0  0  0  0  0  0  0  0  0  0
    5.7523   -1.1132    0.0000 N   0  0  0  0  0  0  0  0  0  0  0  0
    2.7104   -1.5828    0.0000 N   0  0  0  0  0  0  0  0  0  0  0  0
    6.2699    0.8187    0.0000 C   0  0  2  0  0  0  0  0  0  0  0  0
    6.0111   -0.1473    0.0000 C   0  0  2  0  0  0  0  0  0  0  0  0
    5.5333    1.8013    0.0000 C   0  0  0  0  0  0  0  0  0  0  0  0
    3.6670    0.0109    0.0000 C   0  0  0  0  0  0  0  0  0  0  0  0
    8.1346    0.3710    0.0000 C   0  0  0  0  0  0  0  0  0  0  0  0
    4.4760   -1.3904    0.0000 C   0  0  0  0  0  0  0  0  0  0  0  0
    3.5624   -0.9837    0.0000 C   0  0  0  0  0  0  0  0  0  0  0  0
    7.7158   -1.1919    0.0000 C   0  0  0  0  0  0  0  0  0  0  0  0
    8.4930   -0.5626    0.0000 C   0  0  0  0  0  0  0  0  0  0  0  0
    5.0333    2.6673    0.0000 C   0  0  0  0  0  0  0  0  0  0  0  0
    4.6008   -2.4245    0.0000 C   0  0  0  0  0  0  0  0  0  0  0  0
    9.4589   -0.8214    0.0000 C   0  0  0  0  0  0  0  0  0  0  0  0
    3.7628   -3.0432    0.0000 C   0  0  0  0  0  0  0  0  0  0  0  0
    2.8113   -2.6196    0.0000 C   0  0  0  0  0  0  0  0  0  0  0  0
    4.0333    2.6673    0.0000 C   0  0  0  0  0  0  0  0  0  0  0  0
    6.4899    1.6397    0.0000 H   0  0  0  0  0  0  0  0  0  0  0  0
    3.5647    0.6224    0.0000 H   0  0  0  0  0  0  0  0  0  0  0  0
    3.0472   -0.0080    0.0000 H   0  0  0  0  0  0  0  0  0  0  0  0
    8.7461    0.4733    0.0000 H   0  0  0  0  0  0  0  0  0  0  0  0
    8.1562    0.9906    0.0000 H   0  0  0  0  0  0  0  0  0  0  0  0
    7.7564   -1.8106    0.0000 H   0  0  0  0  0  0  0  0  0  0  0  0
    6.1907   -1.5516    0.0000 H   0  0  0  0  0  0  0  0  0  0  0  0
    5.1534   -1.2736    0.0000 H   0  0  0  0  0  0  0  0  0  0  0  0
    5.3433    3.2042    0.0000 H   0  0  0  0  0  0  0  0  0  0  0  0
    5.1701   -2.6701    0.0000 H   0  0  0  0  0  0  0  0  0  0  0  0
    2.1469   -1.3241    0.0000 H   0  0  0  0  0  0  0  0  0  0  0  0
    9.2984   -1.4203    0.0000 H   0  0  0  0  0  0  0  0  0  0  0  0
   10.0578   -0.9819    0.0000 H   0  0  0  0  0  0  0  0  0  0  0  0
    9.6194   -0.2225    0.0000 H   0  0  0  0  0  0  0  0  0  0  0  0
    3.8300   -3.6596    0.0000 H   0  0  0  0  0  0  0  0  0  0  0  0
    4.0333    3.2873    0.0000 H   0  0  0  0  0  0  0  0  0  0  0  0
    3.4133    2.6673    0.0000 H   0  0  0  0  0  0  0  0  0  0  0  0
    4.0333    2.0473    0.0000 H   0  0  0  0  0  0  0  0  0  0  0  0
  1 17  2  0  0  0  0
  5  2  1  1  0  0  0
  2 25  1  0  0  0  0
  2 26  1  0  0  0  0
  3 10  1  0  0  0  0
  3 17  1  0  0  0  0
  3 29  1  0  0  0  0
  4  6  1  0  0  0  0
  4  7  1  0  0  0  0
  4  8  1  0  0  0  0
  4 19  1  6  0  0  0
  5  6  1  0  0  0  0
  5  9  1  0  0  0  0
  5 11  1  0  0  0  0
  6 13  2  0  0  0  0
  7 10  1  0  0  0  0
  7 20  1  0  0  0  0
  7 21  1  0  0  0  0
  8 12  1  0  0  0  0
  8 22  1  0  0  0  0
  8 23  1  0  0  0  0
  9 10  2  0  0  0  0
  9 14  1  0  0  0  0
 11 12  2  0  0  0  0
 11 24  1  0  0  0  0
 12 15  1  0  0  0  0
 13 18  1  0  0  0  0
 13 27  1  0  0  0  0
 14 16  2  0  0  0  0
 14 28  1  0  0  0  0
 15 30  1  0  0  0  0
 15 31  1  0  0  0  0
 15 32  1  0  0  0  0
 16 17  1  0  0  0  0
 16 33  1  0  0  0  0
 18 34  1  0  0  0  0
 18 35  1  0  0  0  0
 18 36  1  0  0  0  0
M  END
> <PUBCHEM_COMPOUND_CID>
445884

> <PUBCHEM_COMPOUND_CANONICALIZED>
1

> <PUBCHEM_CACTVS_COMPLEXITY>
551

> <PUBCHEM_CACTVS_HBOND_ACCEPTOR>
2

> <PUBCHEM_CACTVS_HBOND_DONOR>
2

> <PUBCHEM_CACTVS_ROTATABLE_BOND>
0

> <PUBCHEM_CACTVS_SUBSKEYS>
AAADceBzIAAAAAAAAAAAAAAAAAAAAAAAAAAgQIAAAAAQAACAAAAAHgAQAAAADYiBgAACAALAAACIAiVSUACAAAAgAAAICAAAAEgIAAIAgQAEAAAAlACIgYMQgMAOAAAAAAAAAAAAAAAAAAAAAAAAAAAAAA==

> <PUBCHEM_IUPAC_INCHI>
InChI=1S/C15H18N2O/c1-3-11-10-6-9(2)8-15(11,16)12-4-5-14(18)17-13(12)7-10/h3-5,8,10H,6-7,16H2,1-2H3,(H,17,18)/b11-3-/t10-,15+/m0/s1

> <PUBCHEM_IUPAC_INCHIKEY>
APLHEOBEIBHCHW-SEQYCRGISA-N

> <PUBCHEM_XLOGP3_AA>
0

> <PUBCHEM_EXACT_MASS>
242.141913

> <PUBCHEM_MOLECULAR_FORMULA>
C15H18N2O

> <PUBCHEM_MOLECULAR_WEIGHT>
242.31622

> <PUBCHEM_OPENEYE_CAN_SMILES>
CC=C1C2CC(=CC1(C3=C(C2)NC(=O)C=C3)N)C

> <PUBCHEM_OPENEYE_ISO_SMILES>
C/C=C\1/[C@H]2CC(=C[C@@]1(C3=C(C2)NC(=O)C=C3)N)C

> <PUBCHEM_CACTVS_TPSA>
55.1

> <PUBCHEM_MONOISOTOPIC_WEIGHT>
242.141913

> <PUBCHEM_TOTAL_CHARGE>
0

> <PUBCHEM_HEAVY_ATOM_COUNT>
18

> <PUBCHEM_ATOM_DEF_STEREO_COUNT>
2

> <PUBCHEM_ATOM_UDEF_STEREO_COUNT>
0

> <PUBCHEM_BOND_DEF_STEREO_COUNT>
1

> <PUBCHEM_BOND_UDEF_STEREO_COUNT>
0

> <PUBCHEM_ISOTOPIC_ATOM_COUNT>
0

> <PUBCHEM_COMPONENT_COUNT>
1

> <PUBCHEM_CACTVS_TAUTO_COUNT>
5

> <PUBCHEM_COORDINATE_TYPE>
1
5
255

> <PUBCHEM_BONDANNOTATIONS>
14  16  8
16  17  8
5  2  5
3  10  8
3  17  8
4  19  6
9  10  8
9  14  8

$$$$

