   Color/Form

     * Colorless, cubic or tetragonal crystals
     * White powder or colorless crystals [Note: Pesticide grade is often
       dyed blue].

   from [1]HSDB

   Odor
        Odorless
   from [2]HSDB

   Taste

     * SALTY
     * 5X10-3 moles/l in water (Taste detection)

   from [3]HSDB

   Boiling Point
        1704 deg C
   from [4]HSDB

   Melting Point
        993 deg C
   from [5]HSDB

   Density/Specific Gravity
        2.78
   from [6]HSDB

   pH
        7.4 (Freshly prepared saturated soln)
   from [7]HSDB

   Solubilities

     * Insoluble in alcohol
     * Solubility in water 4.0 g/100 ml water at 15 deg C. Solubility in
       water 4.3 g/100 ml water at 25 deg C. Solubility in water 5.0 g/100
       ml water at 100 deg C

   from [8]HSDB

   Spectral Properties
        INDEX OF REFRACTION: 1.336
   from [9]HSDB

   Other Chemical/Physical Properties

     * Aq soln have alkaline reaction caused by partial hydrolysis; aq
       soln etch glass
     * VP: 1 mm Hg at 1077 deg C
     * All alkali fluorides, with the exception of the lithium salt,
       absorb hydrogen fluoride to form acid fluorides of the type MHF2
       where M is the alkali metal.

   from [10]HSDB

   Computed Properties
   Molecular Weight                  41.988172 [g/mol]
   Molecular Formula                 FNa
   H-Bond Donor                      0
   H-Bond Acceptor                   1
   Rotatable Bond Count              0
   Exact Mass                        41.988173
   MonoIsotopic Mass                 41.988173
   Topological Polar Surface Area    0
   Heavy Atom Count                  2
   Formal Charge                     0
   Complexity                        2
   Isotope Atom Count                0
   Defined Atom Stereocenter Count   0
   Undefined Atom Stereocenter Count 0
   Defined Bond Stereocenter Count   0
   Undefined Bond Stereocenter Count 0
   Covalently-Bonded Unit Count      2

References

   1. http://toxnet.nlm.nih.gov/cgi-bin/sis/search/r?dbs+hsdb:@term+@rn+@rel+7681-49-4
   2. http://toxnet.nlm.nih.gov/cgi-bin/sis/search/r?dbs+hsdb:@term+@rn+@rel+7681-49-4
   3. http://toxnet.nlm.nih.gov/cgi-bin/sis/search/r?dbs+hsdb:@term+@rn+@rel+7681-49-4
   4. http://toxnet.nlm.nih.gov/cgi-bin/sis/search/r?dbs+hsdb:@term+@rn+@rel+7681-49-4
   5. http://toxnet.nlm.nih.gov/cgi-bin/sis/search/r?dbs+hsdb:@term+@rn+@rel+7681-49-4
   6. http://toxnet.nlm.nih.gov/cgi-bin/sis/search/r?dbs+hsdb:@term+@rn+@rel+7681-49-4
   7. http://toxnet.nlm.nih.gov/cgi-bin/sis/search/r?dbs+hsdb:@term+@rn+@rel+7681-49-4
   8. http://toxnet.nlm.nih.gov/cgi-bin/sis/search/r?dbs+hsdb:@term+@rn+@rel+7681-49-4
   9. http://toxnet.nlm.nih.gov/cgi-bin/sis/search/r?dbs+hsdb:@term+@rn+@rel+7681-49-4
  10. http://toxnet.nlm.nih.gov/cgi-bin/sis/search/r?dbs+hsdb:@term+@rn+@rel+7681-49-4
