17395366
  -OEChem-06241222492D

 42 45  0     1  0  0  0  0  0999 V2000
    5.6527   -0.7594    0.0000 O   0  0  0  0  0  0  0  0  0  0  0  0
    7.4323    0.3339    0.0000 N   0  0  3  0  0  0  0  0  0  0  0  0
    6.4617   -2.1606    0.0000 N   0  0  0  0  0  0  0  0  0  0  0  0
    5.4836   -2.3686    0.0000 N   0  0  0  0  0  0  0  0  0  0  0  0
    6.5662    0.8339    0.0000 C   0  0  0  0  0  0  0  0  0  0  0  0
    6.5662    1.8339    0.0000 C   0  0  0  0  0  0  0  0  0  0  0  0
    7.4323    2.3339    0.0000 C   0  0  0  0  0  0  0  0  0  0  0  0
    8.2983    1.8339    0.0000 C   0  0  0  0  0  0  0  0  0  0  0  0
    8.2983    0.8339    0.0000 C   0  0  0  0  0  0  0  0  0  0  0  0
    7.4323   -0.6661    0.0000 C   0  0  0  0  0  0  0  0  0  0  0  0
    9.1922    2.3686    0.0000 C   0  0  0  0  0  0  0  0  0  0  0  0
    9.1922    0.2992    0.0000 C   0  0  0  0  0  0  0  0  0  0  0  0
   10.0983    1.8547    0.0000 C   0  0  0  0  0  0  0  0  0  0  0  0
   10.0983    0.8131    0.0000 C   0  0  0  0  0  0  0  0  0  0  0  0
    6.5662   -1.1661    0.0000 C   0  0  0  0  0  0  0  0  0  0  0  0
   10.9624    2.3580    0.0000 C   0  0  0  0  0  0  0  0  0  0  0  0
    4.9836   -1.5025    0.0000 C   0  0  0  0  0  0  0  0  0  0  0  0
    3.9890   -1.3980    0.0000 C   0  0  0  0  0  0  0  0  0  0  0  0
    3.5823   -0.4844    0.0000 C   0  0  0  0  0  0  0  0  0  0  0  0
    3.4013   -2.2070    0.0000 C   0  0  0  0  0  0  0  0  0  0  0  0
    2.5878   -0.3799    0.0000 C   0  0  0  0  0  0  0  0  0  0  0  0
    2.4067   -2.1025    0.0000 C   0  0  0  0  0  0  0  0  0  0  0  0
    2.0000   -1.1889    0.0000 C   0  0  0  0  0  0  0  0  0  0  0  0
    5.9557    0.9415    0.0000 H   0  0  0  0  0  0  0  0  0  0  0  0
    6.3542    0.2513    0.0000 H   0  0  0  0  0  0  0  0  0  0  0  0
    6.3542    2.4165    0.0000 H   0  0  0  0  0  0  0  0  0  0  0  0
    5.9557    1.7262    0.0000 H   0  0  0  0  0  0  0  0  0  0  0  0
    7.8308    2.8088    0.0000 H   0  0  0  0  0  0  0  0  0  0  0  0
    7.0337    2.8088    0.0000 H   0  0  0  0  0  0  0  0  0  0  0  0
    7.6443   -1.2487    0.0000 H   0  0  0  0  0  0  0  0  0  0  0  0
    8.0428   -0.5585    0.0000 H   0  0  0  0  0  0  0  0  0  0  0  0
    9.1851    2.9885    0.0000 H   0  0  0  0  0  0  0  0  0  0  0  0
    9.1851   -0.3207    0.0000 H   0  0  0  0  0  0  0  0  0  0  0  0
   10.6340    0.5010    0.0000 H   0  0  0  0  0  0  0  0  0  0  0  0
   11.2745    1.8223    0.0000 H   0  0  0  0  0  0  0  0  0  0  0  0
   11.4981    2.6701    0.0000 H   0  0  0  0  0  0  0  0  0  0  0  0
   10.6503    2.8938    0.0000 H   0  0  0  0  0  0  0  0  0  0  0  0
    3.9467    0.0171    0.0000 H   0  0  0  0  0  0  0  0  0  0  0  0
    3.6534   -2.7734    0.0000 H   0  0  0  0  0  0  0  0  0  0  0  0
    2.3356    0.1865    0.0000 H   0  0  0  0  0  0  0  0  0  0  0  0
    2.0423   -2.6041    0.0000 H   0  0  0  0  0  0  0  0  0  0  0  0
    1.3834   -1.1241    0.0000 H   0  0  0  0  0  0  0  0  0  0  0  0
  1 15  1  0  0  0  0
  1 17  1  0  0  0  0
  2  5  1  0  0  0  0
  2  9  1  0  0  0  0
  2 10  1  0  0  0  0
  3  4  1  0  0  0  0
  3 15  2  0  0  0  0
  4 17  2  0  0  0  0
  5  6  1  0  0  0  0
  5 24  1  0  0  0  0
  5 25  1  0  0  0  0
  6  7  1  0  0  0  0
  6 26  1  0  0  0  0
  6 27  1  0  0  0  0
  7  8  1  0  0  0  0
  7 28  1  0  0  0  0
  7 29  1  0  0  0  0
  8  9  2  0  0  0  0
  8 11  1  0  0  0  0
  9 12  1  0  0  0  0
 10 15  1  0  0  0  0
 10 30  1  0  0  0  0
 10 31  1  0  0  0  0
 11 13  2  0  0  0  0
 11 32  1  0  0  0  0
 12 14  2  0  0  0  0
 12 33  1  0  0  0  0
 13 14  1  0  0  0  0
 13 16  1  0  0  0  0
 14 34  1  0  0  0  0
 16 35  1  0  0  0  0
 16 36  1  0  0  0  0
 16 37  1  0  0  0  0
 17 18  1  0  0  0  0
 18 19  2  0  0  0  0
 18 20  1  0  0  0  0
 19 21  1  0  0  0  0
 19 38  1  0  0  0  0
 20 22  2  0  0  0  0
 20 39  1  0  0  0  0
 21 23  2  0  0  0  0
 21 40  1  0  0  0  0
 22 23  1  0  0  0  0
 22 41  1  0  0  0  0
 23 42  1  0  0  0  0
M  END
> <PUBCHEM_COMPOUND_CID>
17395366

> <PUBCHEM_COMPOUND_CANONICALIZED>
1

> <PUBCHEM_CACTVS_COMPLEXITY>
385

> <PUBCHEM_CACTVS_HBOND_ACCEPTOR>
4

> <PUBCHEM_CACTVS_HBOND_DONOR>
0

> <PUBCHEM_CACTVS_ROTATABLE_BOND>
3

> <PUBCHEM_CACTVS_SUBSKEYS>
AAADceB7IAAAAAAAAAAAAAAAAAAAAWAAAAA8YIAAAAAAAACx0AAAHgAIAAAADAjBmgQywIMABECqAiVyUACSAAAtAgAaiCG4bNgKZrLAtbmfMQhkyAHY6YeYyOCOCAACAAACAAAQAAQAAAQAAAAAAAAAAA==

> <PUBCHEM_IUPAC_OPENEYE_NAME>
2-[(6-methyl-3,4-dihydro-2H-quinolin-1-yl)methyl]-5-phenyl-1,3,4-oxadiazole

> <PUBCHEM_IUPAC_CAS_NAME>
2-[(6-methyl-3,4-dihydro-2H-quinolin-1-yl)methyl]-5-phenyl-1,3,4-oxadiazole

> <PUBCHEM_IUPAC_NAME>
2-[(6-methyl-3,4-dihydro-2H-quinolin-1-yl)methyl]-5-phenyl-1,3,4-oxadiazole

> <PUBCHEM_IUPAC_SYSTEMATIC_NAME>
2-[(6-methyl-3,4-dihydro-2H-quinolin-1-yl)methyl]-5-phenyl-1,3,4-oxadiazole

> <PUBCHEM_IUPAC_TRADITIONAL_NAME>
2-[(6-methyl-3,4-dihydro-2H-quinolin-1-yl)methyl]-5-phenyl-1,3,4-oxadiazole

> <PUBCHEM_IUPAC_INCHI>
InChI=1S/C19H19N3O/c1-14-9-10-17-16(12-14)8-5-11-22(17)13-18-20-21-19(23-18)15-6-3-2-4-7-15/h2-4,6-7,9-10,12H,5,8,11,13H2,1H3

> <PUBCHEM_IUPAC_INCHIKEY>
RZMRUHNNCQNAIP-UHFFFAOYSA-N

> <PUBCHEM_XLOGP3_AA>
3.8

> <PUBCHEM_EXACT_MASS>
305.152812

> <PUBCHEM_MOLECULAR_FORMULA>
C19H19N3O

> <PUBCHEM_MOLECULAR_WEIGHT>
305.37366

> <PUBCHEM_OPENEYE_CAN_SMILES>
CC1=CC2=C(C=C1)N(CCC2)CC3=NN=C(O3)C4=CC=CC=C4

> <PUBCHEM_OPENEYE_ISO_SMILES>
CC1=CC2=C(C=C1)N(CCC2)CC3=NN=C(O3)C4=CC=CC=C4

> <PUBCHEM_CACTVS_TPSA>
42.2

> <PUBCHEM_MONOISOTOPIC_WEIGHT>
305.152812

> <PUBCHEM_TOTAL_CHARGE>
0

> <PUBCHEM_HEAVY_ATOM_COUNT>
23

> <PUBCHEM_ATOM_DEF_STEREO_COUNT>
0

> <PUBCHEM_ATOM_UDEF_STEREO_COUNT>
0

> <PUBCHEM_BOND_DEF_STEREO_COUNT>
0

> <PUBCHEM_BOND_UDEF_STEREO_COUNT>
0

> <PUBCHEM_ISOTOPIC_ATOM_COUNT>
0

> <PUBCHEM_COMPONENT_COUNT>
1

> <PUBCHEM_CACTVS_TAUTO_COUNT>
1

> <PUBCHEM_COORDINATE_TYPE>
1
5
255

> <PUBCHEM_BONDANNOTATIONS>
1  15  8
1  17  8
11  13  8
12  14  8
13  14  8
18  19  8
18  20  8
19  21  8
20  22  8
21  23  8
22  23  8
3  15  8
3  4  8
4  17  8
8  11  8
8  9  8
9  12  8

$$$$

