8746
  -OEChem-06261203032D

 18 16  0     0  0  0  0  0  0999 V2000
    3.9030    1.0369    0.0000 Hg  0  0  0  0  0  0  0  0  0  0  0  0
    4.7690    6.5369    0.0000 Na  0  3  0  0  0  0  0  0  0  0  0  0
    3.0369    0.5369    0.0000 O   0  0  0  0  0  0  0  0  0  0  0  0
    4.7690    5.5369    0.0000 O   0  5  0  0  0  0  0  0  0  0  0  0
    3.0369    5.5369    0.0000 O   0  0  0  0  0  0  0  0  0  0  0  0
    3.9030    4.0369    0.0000 C   0  0  0  0  0  0  0  0  0  0  0  0
    3.9030    2.0369    0.0000 C   0  0  0  0  0  0  0  0  0  0  0  0
    4.7690    3.5369    0.0000 C   0  0  0  0  0  0  0  0  0  0  0  0
    3.0369    3.5369    0.0000 C   0  0  0  0  0  0  0  0  0  0  0  0
    4.7690    2.5369    0.0000 C   0  0  0  0  0  0  0  0  0  0  0  0
    3.0369    2.5369    0.0000 C   0  0  0  0  0  0  0  0  0  0  0  0
    3.9030    5.0369    0.0000 C   0  0  0  0  0  0  0  0  0  0  0  0
    5.3059    3.8469    0.0000 H   0  0  0  0  0  0  0  0  0  0  0  0
    2.5000    3.8469    0.0000 H   0  0  0  0  0  0  0  0  0  0  0  0
    5.3059    2.2269    0.0000 H   0  0  0  0  0  0  0  0  0  0  0  0
    2.5000    2.2269    0.0000 H   0  0  0  0  0  0  0  0  0  0  0  0
    3.3469    0.0000    0.0000 H   0  0  0  0  0  0  0  0  0  0  0  0
    2.7269    1.0739    0.0000 H   0  0  0  0  0  0  0  0  0  0  0  0
  1  7  1  0  0  0  0
  3 17  1  0  0  0  0
  3 18  1  0  0  0  0
  4 12  1  0  0  0  0
  5 12  2  0  0  0  0
  6  8  2  0  0  0  0
  6  9  1  0  0  0  0
  6 12  1  0  0  0  0
  7 10  2  0  0  0  0
  7 11  1  0  0  0  0
  8 10  1  0  0  0  0
  8 13  1  0  0  0  0
  9 11  2  0  0  0  0
  9 14  1  0  0  0  0
 10 15  1  0  0  0  0
 11 16  1  0  0  0  0
M  CHG  2   2   1   4  -1
M  END
> <PUBCHEM_COMPOUND_CID>
8746

> <PUBCHEM_COMPOUND_CANONICALIZED>
1

> <PUBCHEM_CACTVS_COMPLEXITY>
124

> <PUBCHEM_CACTVS_HBOND_ACCEPTOR>
3

> <PUBCHEM_CACTVS_HBOND_DONOR>
1

> <PUBCHEM_CACTVS_ROTATABLE_BOND>
1

> <PUBCHEM_CACTVS_SUBSKEYS>
AAADcYBgMCAAAAAAAAAAAQAAAAAAAAAAAAAwAAAAAAAAAAABAAAAGgAACAAADACAmAAwCIAAAACIAiDSCAACAAAkAAAIiAEACMgIJjKAFRCAMQAkwAEIiYeIyCCOAAAAAAAAAAAAAAAAAAAAAAAAAAAAAA==

> <PUBCHEM_IUPAC_OPENEYE_NAME>
sodium (4-carboxylatophenyl)mercury hydrate

> <PUBCHEM_IUPAC_CAS_NAME>
sodium (4-carboxylatophenyl)mercury hydrate

> <PUBCHEM_IUPAC_NAME>
sodium (4-carboxylatophenyl)mercury hydrate

> <PUBCHEM_IUPAC_SYSTEMATIC_NAME>
sodium (4-carboxylatophenyl)mercury hydrate

> <PUBCHEM_IUPAC_TRADITIONAL_NAME>
sodium (4-carboxylatophenyl)mercury hydrate

> <PUBCHEM_IUPAC_INCHI>
InChI=1S/C7H5O2.Hg.Na.H2O/c8-7(9)6-4-2-1-3-5-6;;;/h2-5H,(H,8,9);;;1H2/q;;+1;/p-1

> <PUBCHEM_IUPAC_INCHIKEY>
BERBQUNVJGVZCX-UHFFFAOYSA-M

> <PUBCHEM_EXACT_MASS>
362.992106

> <PUBCHEM_MOLECULAR_FORMULA>
C7H6HgNaO3

> <PUBCHEM_MOLECULAR_WEIGHT>
361.700509

> <PUBCHEM_OPENEYE_CAN_SMILES>
C1=CC(=CC=C1C(=O)[O-])[Hg].O.[Na+]

> <PUBCHEM_OPENEYE_ISO_SMILES>
C1=CC(=CC=C1C(=O)[O-])[Hg].O.[Na+]

> <PUBCHEM_CACTVS_TPSA>
41.1

> <PUBCHEM_MONOISOTOPIC_WEIGHT>
362.992106

> <PUBCHEM_TOTAL_CHARGE>
0

> <PUBCHEM_HEAVY_ATOM_COUNT>
12

> <PUBCHEM_ATOM_DEF_STEREO_COUNT>
0

> <PUBCHEM_ATOM_UDEF_STEREO_COUNT>
0

> <PUBCHEM_BOND_DEF_STEREO_COUNT>
0

> <PUBCHEM_BOND_UDEF_STEREO_COUNT>
0

> <PUBCHEM_ISOTOPIC_ATOM_COUNT>
0

> <PUBCHEM_COMPONENT_COUNT>
3

> <PUBCHEM_CACTVS_TAUTO_COUNT>
1

> <PUBCHEM_NONSTANDARDBOND>
1  3  6

> <PUBCHEM_COORDINATE_TYPE>
1
5
255

> <PUBCHEM_BONDANNOTATIONS>
1  3  4
6  8  8
6  9  8
7  10  8
7  11  8
8  10  8
9  11  8

$$$$

