17396102
  -OEChem-06241222542D

 40 42  0     0  0  0  0  0  0999 V2000
    5.0322   -5.7578    0.0000 Cl  0  0  0  0  0  0  0  0  0  0  0  0
    5.8412   -1.1700    0.0000 S   0  0  0  0  0  0  0  0  0  0  0  0
    2.9499    0.4856    0.0000 O   0  0  0  0  0  0  0  0  0  0  0  0
    4.3511    1.5036    0.0000 N   0  0  0  0  0  0  0  0  0  0  0  0
    4.2232   -1.1700    0.0000 N   0  0  0  0  0  0  0  0  0  0  0  0
    2.5878    3.9307    0.0000 N   0  0  0  0  0  0  0  0  0  0  0  0
    3.7634    2.3126    0.0000 C   0  0  0  0  0  0  0  0  0  0  0  0
    4.1701    3.2262    0.0000 C   0  0  0  0  0  0  0  0  0  0  0  0
    3.5823    4.0352    0.0000 C   0  0  0  0  0  0  0  0  0  0  0  0
    3.9444    0.5901    0.0000 C   0  0  0  0  0  0  0  0  0  0  0  0
    5.3457    1.6082    0.0000 C   0  0  0  0  0  0  0  0  0  0  0  0
    4.5322   -0.2189    0.0000 C   0  0  0  0  0  0  0  0  0  0  0  0
    3.9890    4.9488    0.0000 C   0  0  0  0  0  0  0  0  0  0  0  0
    5.0322   -1.7578    0.0000 C   0  0  0  0  0  0  0  0  0  0  0  0
    5.0322   -2.7578    0.0000 C   0  0  0  0  0  0  0  0  0  0  0  0
    5.5322   -0.2189    0.0000 C   0  0  0  0  0  0  0  0  0  0  0  0
    3.4013    5.7578    0.0000 C   0  0  0  0  0  0  0  0  0  0  0  0
    4.1662   -3.2578    0.0000 C   0  0  0  0  0  0  0  0  0  0  0  0
    5.8982   -3.2578    0.0000 C   0  0  0  0  0  0  0  0  0  0  0  0
    2.0000    4.7397    0.0000 C   0  0  0  0  0  0  0  0  0  0  0  0
    2.4067    5.6532    0.0000 C   0  0  0  0  0  0  0  0  0  0  0  0
    4.1662   -4.2578    0.0000 C   0  0  0  0  0  0  0  0  0  0  0  0
    5.8982   -4.2578    0.0000 C   0  0  0  0  0  0  0  0  0  0  0  0
    5.0322   -4.7578    0.0000 C   0  0  0  0  0  0  0  0  0  0  0  0
    3.2494    2.6594    0.0000 H   0  0  0  0  0  0  0  0  0  0  0  0
    3.3327    1.8667    0.0000 H   0  0  0  0  0  0  0  0  0  0  0  0
    4.6841    2.8795    0.0000 H   0  0  0  0  0  0  0  0  0  0  0  0
    4.6008    3.6722    0.0000 H   0  0  0  0  0  0  0  0  0  0  0  0
    5.4105    0.9916    0.0000 H   0  0  0  0  0  0  0  0  0  0  0  0
    5.9623    1.6730    0.0000 H   0  0  0  0  0  0  0  0  0  0  0  0
    5.2809    2.2248    0.0000 H   0  0  0  0  0  0  0  0  0  0  0  0
    4.6056    5.0136    0.0000 H   0  0  0  0  0  0  0  0  0  0  0  0
    5.8966    0.2827    0.0000 H   0  0  0  0  0  0  0  0  0  0  0  0
    3.6534    6.3242    0.0000 H   0  0  0  0  0  0  0  0  0  0  0  0
    3.6292   -2.9478    0.0000 H   0  0  0  0  0  0  0  0  0  0  0  0
    6.4352   -2.9478    0.0000 H   0  0  0  0  0  0  0  0  0  0  0  0
    1.3834    4.6749    0.0000 H   0  0  0  0  0  0  0  0  0  0  0  0
    2.0423    6.1548    0.0000 H   0  0  0  0  0  0  0  0  0  0  0  0
    3.6292   -4.5678    0.0000 H   0  0  0  0  0  0  0  0  0  0  0  0
    6.4352   -4.5678    0.0000 H   0  0  0  0  0  0  0  0  0  0  0  0
  1 24  1  0  0  0  0
  2 14  1  0  0  0  0
  2 16  1  0  0  0  0
  3 10  2  0  0  0  0
  4  7  1  0  0  0  0
  4 10  1  0  0  0  0
  4 11  1  0  0  0  0
  5 12  1  0  0  0  0
  5 14  2  0  0  0  0
  6  9  1  0  0  0  0
  6 20  2  0  0  0  0
  7  8  1  0  0  0  0
  7 25  1  0  0  0  0
  7 26  1  0  0  0  0
  8  9  1  0  0  0  0
  8 27  1  0  0  0  0
  8 28  1  0  0  0  0
  9 13  2  0  0  0  0
 10 12  1  0  0  0  0
 11 29  1  0  0  0  0
 11 30  1  0  0  0  0
 11 31  1  0  0  0  0
 12 16  2  0  0  0  0
 13 17  1  0  0  0  0
 13 32  1  0  0  0  0
 14 15  1  0  0  0  0
 15 18  2  0  0  0  0
 15 19  1  0  0  0  0
 16 33  1  0  0  0  0
 17 21  2  0  0  0  0
 17 34  1  0  0  0  0
 18 22  1  0  0  0  0
 18 35  1  0  0  0  0
 19 23  2  0  0  0  0
 19 36  1  0  0  0  0
 20 21  1  0  0  0  0
 20 37  1  0  0  0  0
 21 38  1  0  0  0  0
 22 24  2  0  0  0  0
 22 39  1  0  0  0  0
 23 24  1  0  0  0  0
 23 40  1  0  0  0  0
M  END
> <PUBCHEM_COMPOUND_CID>
17396102

> <PUBCHEM_COMPOUND_CANONICALIZED>
1

> <PUBCHEM_CACTVS_COMPLEXITY>
417

> <PUBCHEM_CACTVS_HBOND_ACCEPTOR>
4

> <PUBCHEM_CACTVS_HBOND_DONOR>
0

> <PUBCHEM_CACTVS_ROTATABLE_BOND>
5

> <PUBCHEM_CACTVS_SUBSKEYS>
AAADceB7IABEAAAAAAAAAAAAAAAAAWAAAAA8QAAAAAAAAAAB8AAAHgYAAAAADArF3iS+gZMIEAisAzV3VACC8KB3DzgI2DW4ZtgIYOLh07GUIAhghgDoyIcQgAAOBAAAAAAAAAAIAAAAAAAAAAAAAAAAAA==

> <PUBCHEM_IUPAC_OPENEYE_NAME>
2-(4-chlorophenyl)-N-methyl-N-[2-(2-pyridyl)ethyl]thiazole-4-carboxamide

> <PUBCHEM_IUPAC_CAS_NAME>
2-(4-chlorophenyl)-N-methyl-N-[2-(2-pyridinyl)ethyl]-4-thiazolecarboxamide

> <PUBCHEM_IUPAC_NAME>
2-(4-chlorophenyl)-N-methyl-N-(2-pyridin-2-ylethyl)-1,3-thiazole-4-carboxamide

> <PUBCHEM_IUPAC_SYSTEMATIC_NAME>
2-(4-chlorophenyl)-N-methyl-N-(2-pyridin-2-ylethyl)-1,3-thiazole-4-carboxamide

> <PUBCHEM_IUPAC_TRADITIONAL_NAME>
2-(4-chlorophenyl)-N-methyl-N-[2-(2-pyridyl)ethyl]thiazole-4-carboxamide

> <PUBCHEM_IUPAC_INCHI>
InChI=1S/C18H16ClN3OS/c1-22(11-9-15-4-2-3-10-20-15)18(23)16-12-24-17(21-16)13-5-7-14(19)8-6-13/h2-8,10,12H,9,11H2,1H3

> <PUBCHEM_IUPAC_INCHIKEY>
ALDAEZZGJWFYRM-UHFFFAOYSA-N

> <PUBCHEM_XLOGP3_AA>
4

> <PUBCHEM_EXACT_MASS>
357.070261

> <PUBCHEM_MOLECULAR_FORMULA>
C18H16ClN3OS

> <PUBCHEM_MOLECULAR_WEIGHT>
357.85714

> <PUBCHEM_OPENEYE_CAN_SMILES>
CN(CCC1=CC=CC=N1)C(=O)C2=CSC(=N2)C3=CC=C(C=C3)Cl

> <PUBCHEM_OPENEYE_ISO_SMILES>
CN(CCC1=CC=CC=N1)C(=O)C2=CSC(=N2)C3=CC=C(C=C3)Cl

> <PUBCHEM_CACTVS_TPSA>
74.3

> <PUBCHEM_MONOISOTOPIC_WEIGHT>
357.070261

> <PUBCHEM_TOTAL_CHARGE>
0

> <PUBCHEM_HEAVY_ATOM_COUNT>
24

> <PUBCHEM_ATOM_DEF_STEREO_COUNT>
0

> <PUBCHEM_ATOM_UDEF_STEREO_COUNT>
0

> <PUBCHEM_BOND_DEF_STEREO_COUNT>
0

> <PUBCHEM_BOND_UDEF_STEREO_COUNT>
0

> <PUBCHEM_ISOTOPIC_ATOM_COUNT>
0

> <PUBCHEM_COMPONENT_COUNT>
1

> <PUBCHEM_CACTVS_TAUTO_COUNT>
2

> <PUBCHEM_COORDINATE_TYPE>
1
5
255

> <PUBCHEM_BONDANNOTATIONS>
12  16  8
13  17  8
15  18  8
15  19  8
17  21  8
18  22  8
19  23  8
2  14  8
2  16  8
20  21  8
22  24  8
23  24  8
5  12  8
5  14  8
6  20  8
6  9  8
9  13  8

$$$$

