   Color/Form
        White crystals
   from [1]HSDB

   Odor
        ANISE OIL ODOR
   from [2]HSDB

   Taste
        SWEET TASTE
   from [3]HSDB

   Boiling Point
        234 deg C
   from [4]HSDB

   Melting Point
        21.3 deg C
   from [5]HSDB

   Density/Specific Gravity
        0.9878 @ 20 DEG C/4 DEG C
   from [6]HSDB

   Solubilities

     * 1:8 IN 80% ALCOHOL; 1:1 IN 90% ETHANOL
     * ALMOST WATER INSOL; MISCIBLE WITH CHLOROFORM & ETHER
     * Water solubility = 1.110E-1 g/l @ 25 deg C

   from [7]HSDB

   Spectral Properties

     * SPECIFIC OPTICAL ROTATION: +0.08 DEG
     * SADTLER REFERENCE NUMBER: 1467 (IR, PRISM)
     * IR: 8156 (Sadtler Research Laboratories IR Grating Collection)
     * UV: 419 (Sadtler Research Laboratories Spectral Collection)
     * NMR: 258 (Varian Associates NMR Spectra Catalogue)
     * MASS: 857 (Atlas of Mass Spectral Data, John Wiley & Sons, New
       York)

   from [8]HSDB

   Vapor Pressure
        5.45 Pa @ 294 deg K
   from [9]HSDB

   Viscosity
        2.45X10-3 Pa.s
   from [10]HSDB

   Other Chemical/Physical Properties

     * MAX ABSORPTION (ISOOCTANE): 258 NM (LOG E= 4.25); MELTING POINT
       21.35 DEG C; BP: 234.5 DEG @ 763 MM HG /TRANS-ISOMER/
     * CRYSTALLINE MASS AT 20-21 DEG C, LIQUID ABOVE 23 DEG C
       /TRANS-ISOMER/
     * INDEX OF REFRACTION: 1.55455 @ 20 DEG C/D; MAX ABSORPTION
       (ETHANOL): 253 NM (E= 18,500); MELTING POINT -22.5 DEG C; BOILING
       POINT 79-79.5 DEG C @ 23 MM HG /CIS-ISOMER/
     * DISTILLATION RANGE: 234-237 DEG C
     * Liquid Molar Volume = 0.1507 cu m/kmol; Heat of Fusion @ Melting
       Point = 1.60E+7 J/kmol

   from [11]HSDB

   Computed Properties
   Molecular Weight                  148.20168 [g/mol]
   Molecular Formula                 C[10]H[12]O
   XLogP3                            3.3
   H-Bond Donor                      0
   H-Bond Acceptor                   1
   Rotatable Bond Count              2
   Exact Mass                        148.088815
   MonoIsotopic Mass                 148.088815
   Topological Polar Surface Area    9.2
   Heavy Atom Count                  11
   Formal Charge                     0
   Complexity                        121
   Isotope Atom Count                0
   Defined Atom Stereocenter Count   0
   Undefined Atom Stereocenter Count 0
   Defined Bond Stereocenter Count   1
   Undefined Bond Stereocenter Count 0
   Covalently-Bonded Unit Count      1
   Feature 3D Acceptor Count         1
   Feature 3D Hydrophobe Count       1
   Feature 3D Ring Count             1
   Effective Rotor Count             2
   Conformer Sampling RMSD           0.4
   CID Conformer Count               [12]2

References

   1. http://toxnet.nlm.nih.gov/cgi-bin/sis/search/r?dbs+hsdb:@term+@rn+@rel+104-46-1
   2. http://toxnet.nlm.nih.gov/cgi-bin/sis/search/r?dbs+hsdb:@term+@rn+@rel+104-46-1
   3. http://toxnet.nlm.nih.gov/cgi-bin/sis/search/r?dbs+hsdb:@term+@rn+@rel+104-46-1
   4. http://toxnet.nlm.nih.gov/cgi-bin/sis/search/r?dbs+hsdb:@term+@rn+@rel+104-46-1
   5. http://toxnet.nlm.nih.gov/cgi-bin/sis/search/r?dbs+hsdb:@term+@rn+@rel+104-46-1
   6. http://toxnet.nlm.nih.gov/cgi-bin/sis/search/r?dbs+hsdb:@term+@rn+@rel+104-46-1
   7. http://toxnet.nlm.nih.gov/cgi-bin/sis/search/r?dbs+hsdb:@term+@rn+@rel+104-46-1
   8. http://toxnet.nlm.nih.gov/cgi-bin/sis/search/r?dbs+hsdb:@term+@rn+@rel+104-46-1
   9. http://toxnet.nlm.nih.gov/cgi-bin/sis/search/r?dbs+hsdb:@term+@rn+@rel+104-46-1
  10. http://toxnet.nlm.nih.gov/cgi-bin/sis/search/r?dbs+hsdb:@term+@rn+@rel+104-46-1
  11. http://toxnet.nlm.nih.gov/cgi-bin/sis/search/r?dbs+hsdb:@term+@rn+@rel+104-46-1
  12. http://pubchem.ncbi.nlm.nih.gov/vw3d/vw3d.cgi?cid=637563
