4616
  -OEChem-07051212532D

 31 33  0     1  0  0  0  0  0999 V2000
    8.1647   -0.1360    0.0000 Cl  0  0  0  0  0  0  0  0  0  0  0  0
    2.3100   -1.1602    0.0000 O   0  0  0  0  0  0  0  0  0  0  0  0
    3.1204   -2.8430    0.0000 O   0  0  0  0  0  0  0  0  0  0  0  0
    4.7188   -2.2836    0.0000 N   0  0  0  0  0  0  0  0  0  0  0  0
    3.7439   -0.2592    0.0000 N   0  0  0  0  0  0  0  0  0  0  0  0
    5.5006   -0.6602    0.0000 C   0  0  0  0  0  0  0  0  0  0  0  0
    4.7188   -0.0367    0.0000 C   0  0  0  0  0  0  0  0  0  0  0  0
    5.5006   -1.6602    0.0000 C   0  0  0  0  0  0  0  0  0  0  0  0
    4.9413    0.9383    0.0000 C   0  0  0  0  0  0  0  0  0  0  0  0
    3.3100   -1.1602    0.0000 C   0  0  3  0  0  0  0  0  0  0  0  0
    6.3946   -0.1255    0.0000 C   0  0  0  0  0  0  0  0  0  0  0  0
    6.3946   -2.1948    0.0000 C   0  0  0  0  0  0  0  0  0  0  0  0
    3.7439   -2.0611    0.0000 C   0  0  0  0  0  0  0  0  0  0  0  0
    7.3006   -0.6393    0.0000 C   0  0  0  0  0  0  0  0  0  0  0  0
    7.3006   -1.6810    0.0000 C   0  0  0  0  0  0  0  0  0  0  0  0
    5.8969    1.2330    0.0000 C   0  0  0  0  0  0  0  0  0  0  0  0
    4.2083    1.6184    0.0000 C   0  0  0  0  0  0  0  0  0  0  0  0
    6.1194    2.2079    0.0000 C   0  0  0  0  0  0  0  0  0  0  0  0
    4.4308    2.5934    0.0000 C   0  0  0  0  0  0  0  0  0  0  0  0
    5.3864    2.8881    0.0000 C   0  0  0  0  0  0  0  0  0  0  0  0
    2.9801   -0.6352    0.0000 H   0  0  0  0  0  0  0  0  0  0  0  0
    4.8568   -2.8881    0.0000 H   0  0  0  0  0  0  0  0  0  0  0  0
    6.3874    0.4945    0.0000 H   0  0  0  0  0  0  0  0  0  0  0  0
    6.3874   -2.8148    0.0000 H   0  0  0  0  0  0  0  0  0  0  0  0
    7.8364   -1.9930    0.0000 H   0  0  0  0  0  0  0  0  0  0  0  0
    6.3514    0.8113    0.0000 H   0  0  0  0  0  0  0  0  0  0  0  0
    3.6158    1.4357    0.0000 H   0  0  0  0  0  0  0  0  0  0  0  0
    6.7119    2.3907    0.0000 H   0  0  0  0  0  0  0  0  0  0  0  0
    3.9763    3.0151    0.0000 H   0  0  0  0  0  0  0  0  0  0  0  0
    5.5243    3.4926    0.0000 H   0  0  0  0  0  0  0  0  0  0  0  0
    2.0000   -0.6232    0.0000 H   0  0  0  0  0  0  0  0  0  0  0  0
  1 14  1  0  0  0  0
  2 10  1  0  0  0  0
  2 31  1  0  0  0  0
  3 13  2  0  0  0  0
  4  8  1  0  0  0  0
  4 13  1  0  0  0  0
  4 22  1  0  0  0  0
  5  7  2  0  0  0  0
  5 10  1  0  0  0  0
  6  7  1  0  0  0  0
  6  8  2  0  0  0  0
  6 11  1  0  0  0  0
  7  9  1  0  0  0  0
  8 12  1  0  0  0  0
  9 16  2  0  0  0  0
  9 17  1  0  0  0  0
 10 13  1  0  0  0  0
 10 21  1  0  0  0  0
 11 14  2  0  0  0  0
 11 23  1  0  0  0  0
 12 15  2  0  0  0  0
 12 24  1  0  0  0  0
 14 15  1  0  0  0  0
 15 25  1  0  0  0  0
 16 18  1  0  0  0  0
 16 26  1  0  0  0  0
 17 19  2  0  0  0  0
 17 27  1  0  0  0  0
 18 20  2  0  0  0  0
 18 28  1  0  0  0  0
 19 20  1  0  0  0  0
 19 29  1  0  0  0  0
 20 30  1  0  0  0  0
M  END
> <PUBCHEM_COMPOUND_CID>
4616

> <PUBCHEM_COMPOUND_CANONICALIZED>
1

> <PUBCHEM_CACTVS_COMPLEXITY>
407

> <PUBCHEM_CACTVS_HBOND_ACCEPTOR>
3

> <PUBCHEM_CACTVS_HBOND_DONOR>
2

> <PUBCHEM_CACTVS_ROTATABLE_BOND>
1

> <PUBCHEM_CACTVS_SUBSKEYS>
AAADccBzMAAEAAAAAAAAAAAAAAAAAAAAAAAwYAAABAAAAAABQAAAHgIQCAAADArhmCYwwILAAgCoAyVyVAKCAAAhBwAIiADgZpgKcKLBk5GUIAhglADYyAcQgMAOAABAIAACAAAAAIBAAAQAAAAAAAAAAA==

> <PUBCHEM_IUPAC_OPENEYE_NAME>
7-chloro-3-hydroxy-5-phenyl-1,3-dihydro-1,4-benzodiazepin-2-one

> <PUBCHEM_IUPAC_CAS_NAME>
7-chloro-3-hydroxy-5-phenyl-1,3-dihydro-1,4-benzodiazepin-2-one

> <PUBCHEM_IUPAC_NAME>
7-chloro-3-hydroxy-5-phenyl-1,3-dihydro-1,4-benzodiazepin-2-one

> <PUBCHEM_IUPAC_SYSTEMATIC_NAME>
7-chloranyl-3-oxidanyl-5-phenyl-1,3-dihydro-1,4-benzodiazepin-2-one

> <PUBCHEM_IUPAC_TRADITIONAL_NAME>
7-chloro-3-hydroxy-5-phenyl-1,3-dihydro-1,4-benzodiazepin-2-one

> <PUBCHEM_IUPAC_INCHI>
InChI=1S/C15H11ClN2O2/c16-10-6-7-12-11(8-10)13(9-4-2-1-3-5-9)18-15(20)14(19)17-12/h1-8,15,20H,(H,17,19)

> <PUBCHEM_IUPAC_INCHIKEY>
ADIMAYPTOBDMTL-UHFFFAOYSA-N

> <PUBCHEM_XLOGP3>
2.2

> <PUBCHEM_EXACT_MASS>
286.050905

> <PUBCHEM_MOLECULAR_FORMULA>
C15H11ClN2O2

> <PUBCHEM_MOLECULAR_WEIGHT>
286.71304

> <PUBCHEM_OPENEYE_CAN_SMILES>
C1=CC=C(C=C1)C2=NC(C(=O)NC3=C2C=C(C=C3)Cl)O

> <PUBCHEM_OPENEYE_ISO_SMILES>
C1=CC=C(C=C1)C2=NC(C(=O)NC3=C2C=C(C=C3)Cl)O

> <PUBCHEM_CACTVS_TPSA>
61.7

> <PUBCHEM_MONOISOTOPIC_WEIGHT>
286.050905

> <PUBCHEM_TOTAL_CHARGE>
0

> <PUBCHEM_HEAVY_ATOM_COUNT>
20

> <PUBCHEM_ATOM_DEF_STEREO_COUNT>
0

> <PUBCHEM_ATOM_UDEF_STEREO_COUNT>
1

> <PUBCHEM_BOND_DEF_STEREO_COUNT>
0

> <PUBCHEM_BOND_UDEF_STEREO_COUNT>
0

> <PUBCHEM_ISOTOPIC_ATOM_COUNT>
0

> <PUBCHEM_COMPONENT_COUNT>
1

> <PUBCHEM_CACTVS_TAUTO_COUNT>
27

> <PUBCHEM_COORDINATE_TYPE>
1
5
255

> <PUBCHEM_BONDANNOTATIONS>
11  14  8
12  15  8
14  15  8
16  18  8
17  19  8
18  20  8
19  20  8
10  2  3
6  11  8
6  8  8
8  12  8
9  16  8
9  17  8

$$$$

