11353
  -OEChem-06261205342D

 25 27  0     0  0  0  0  0  0999 V2000
    4.6660    0.3419    0.0000 N   0  0  0  0  0  0  0  0  0  0  0  0
    6.4144    1.3765    0.0000 N   0  0  0  0  0  0  0  0  0  0  0  0
    5.5321   -1.1581    0.0000 C   0  0  0  0  0  0  0  0  0  0  0  0
    5.5321   -0.1581    0.0000 C   0  0  0  0  0  0  0  0  0  0  0  0
    3.8000   -1.1581    0.0000 C   0  0  0  0  0  0  0  0  0  0  0  0
    3.8000   -0.1581    0.0000 C   0  0  0  0  0  0  0  0  0  0  0  0
    4.6660   -1.6581    0.0000 C   0  0  0  0  0  0  0  0  0  0  0  0
    6.4260    0.3766    0.0000 C   0  0  0  0  0  0  0  0  0  0  0  0
    6.4260   -1.6927    0.0000 C   0  0  0  0  0  0  0  0  0  0  0  0
    2.9061   -1.6927    0.0000 C   0  0  0  0  0  0  0  0  0  0  0  0
    2.9061    0.3766    0.0000 C   0  0  0  0  0  0  0  0  0  0  0  0
    7.3321   -0.1372    0.0000 C   0  0  0  0  0  0  0  0  0  0  0  0
    7.3321   -1.1789    0.0000 C   0  0  0  0  0  0  0  0  0  0  0  0
    2.0000   -1.1789    0.0000 C   0  0  0  0  0  0  0  0  0  0  0  0
    2.0000   -0.1372    0.0000 C   0  0  0  0  0  0  0  0  0  0  0  0
    4.6660   -2.2781    0.0000 H   0  0  0  0  0  0  0  0  0  0  0  0
    6.4188   -2.3127    0.0000 H   0  0  0  0  0  0  0  0  0  0  0  0
    2.9132   -2.3127    0.0000 H   0  0  0  0  0  0  0  0  0  0  0  0
    2.9132    0.9966    0.0000 H   0  0  0  0  0  0  0  0  0  0  0  0
    7.8678    0.1748    0.0000 H   0  0  0  0  0  0  0  0  0  0  0  0
    7.8678   -1.4909    0.0000 H   0  0  0  0  0  0  0  0  0  0  0  0
    1.4643   -1.4909    0.0000 H   0  0  0  0  0  0  0  0  0  0  0  0
    1.4643    0.1748    0.0000 H   0  0  0  0  0  0  0  0  0  0  0  0
    6.9478    1.6927    0.0000 H   0  0  0  0  0  0  0  0  0  0  0  0
    5.8740    1.6803    0.0000 H   0  0  0  0  0  0  0  0  0  0  0  0
  1  4  2  0  0  0  0
  1  6  1  0  0  0  0
  2  8  1  0  0  0  0
  2 24  1  0  0  0  0
  2 25  1  0  0  0  0
  3  4  1  0  0  0  0
  3  7  2  0  0  0  0
  3  9  1  0  0  0  0
  4  8  1  0  0  0  0
  5  6  1  0  0  0  0
  5  7  1  0  0  0  0
  5 10  2  0  0  0  0
  6 11  2  0  0  0  0
  7 16  1  0  0  0  0
  8 12  2  0  0  0  0
  9 13  2  0  0  0  0
  9 17  1  0  0  0  0
 10 14  1  0  0  0  0
 10 18  1  0  0  0  0
 11 15  1  0  0  0  0
 11 19  1  0  0  0  0
 12 13  1  0  0  0  0
 12 20  1  0  0  0  0
 13 21  1  0  0  0  0
 14 15  2  0  0  0  0
 14 22  1  0  0  0  0
 15 23  1  0  0  0  0
M  END
> <PUBCHEM_COMPOUND_CID>
11353

> <PUBCHEM_COMPOUND_CANONICALIZED>
1

> <PUBCHEM_CACTVS_COMPLEXITY>
229

> <PUBCHEM_CACTVS_HBOND_ACCEPTOR>
2

> <PUBCHEM_CACTVS_HBOND_DONOR>
1

> <PUBCHEM_CACTVS_ROTATABLE_BOND>
0

> <PUBCHEM_CACTVS_SUBSKEYS>
AAADccBzAAAAAAAAAAAAAAAAAAAAAAAAAAA8YIAAAAAAAACx/AAAHAAQAAAADAiBHgAwwPJIEACgAyRiRACCgCAhEiAImCAwdJgIYOLAkZGUIAhgkADIyAcQgMAOAAAAQAACACAAAACAAAQAQAAAAAAAAA==

> <PUBCHEM_IUPAC_OPENEYE_NAME>
acridin-4-amine

> <PUBCHEM_IUPAC_CAS_NAME>
4-acridinamine

> <PUBCHEM_IUPAC_NAME>
acridin-4-amine

> <PUBCHEM_IUPAC_SYSTEMATIC_NAME>
acridin-4-amine

> <PUBCHEM_IUPAC_TRADITIONAL_NAME>
acridin-4-ylamine

> <PUBCHEM_IUPAC_INCHI>
InChI=1S/C13H10N2/c14-11-6-3-5-10-8-9-4-1-2-7-12(9)15-13(10)11/h1-8H,14H2

> <PUBCHEM_IUPAC_INCHIKEY>
QWAGALBSTFENEE-UHFFFAOYSA-N

> <PUBCHEM_XLOGP3>
3.3

> <PUBCHEM_EXACT_MASS>
194.084398

> <PUBCHEM_MOLECULAR_FORMULA>
C13H10N2

> <PUBCHEM_MOLECULAR_WEIGHT>
194.2319

> <PUBCHEM_OPENEYE_CAN_SMILES>
C1=CC=C2C(=C1)C=C3C=CC=C(C3=N2)N

> <PUBCHEM_OPENEYE_ISO_SMILES>
C1=CC=C2C(=C1)C=C3C=CC=C(C3=N2)N

> <PUBCHEM_CACTVS_TPSA>
38.9

> <PUBCHEM_MONOISOTOPIC_WEIGHT>
194.084398

> <PUBCHEM_TOTAL_CHARGE>
0

> <PUBCHEM_HEAVY_ATOM_COUNT>
15

> <PUBCHEM_ATOM_DEF_STEREO_COUNT>
0

> <PUBCHEM_ATOM_UDEF_STEREO_COUNT>
0

> <PUBCHEM_BOND_DEF_STEREO_COUNT>
0

> <PUBCHEM_BOND_UDEF_STEREO_COUNT>
0

> <PUBCHEM_ISOTOPIC_ATOM_COUNT>
0

> <PUBCHEM_COMPONENT_COUNT>
1

> <PUBCHEM_CACTVS_TAUTO_COUNT>
1

> <PUBCHEM_COORDINATE_TYPE>
1
5
255

> <PUBCHEM_BONDANNOTATIONS>
1  4  8
1  6  8
10  14  8
11  15  8
12  13  8
14  15  8
3  4  8
3  7  8
3  9  8
4  8  8
5  10  8
5  6  8
5  7  8
6  11  8
8  12  8
9  13  8

$$$$

