256418
  -OEChem-07051213062D

 52 54  0     0  0  0  0  0  0999 V2000
    8.0622    1.5670    0.0000 O   0  0  0  0  0  0  0  0  0  0  0  0
   11.5923    1.5911    0.0000 O   0  0  0  0  0  0  0  0  0  0  0  0
    3.7320   -1.9330    0.0000 O   0  0  0  0  0  0  0  0  0  0  0  0
   12.4641    0.0945    0.0000 O   0  0  0  0  0  0  0  0  0  0  0  0
    2.8660   -0.4330    0.0000 O   0  0  0  0  0  0  0  0  0  0  0  0
    7.1962    1.0670    0.0000 C   0  0  0  0  0  0  0  0  0  0  0  0
    7.1962    0.0670    0.0000 C   0  0  0  0  0  0  0  0  0  0  0  0
    8.0622   -0.4330    0.0000 C   0  0  0  0  0  0  0  0  0  0  0  0
    8.9282    0.0670    0.0000 C   0  0  0  0  0  0  0  0  0  0  0  0
    6.6962    1.9330    0.0000 C   0  0  0  0  0  0  0  0  0  0  0  0
    6.1962    1.0670    0.0000 C   0  0  0  0  0  0  0  0  0  0  0  0
    8.9282    1.0670    0.0000 C   0  0  0  0  0  0  0  0  0  0  0  0
    6.3301   -0.4330    0.0000 C   0  0  0  0  0  0  0  0  0  0  0  0
    8.0622   -1.4330    0.0000 C   0  0  0  0  0  0  0  0  0  0  0  0
    9.8222   -0.4677    0.0000 C   0  0  0  0  0  0  0  0  0  0  0  0
    9.8222    1.6016    0.0000 C   0  0  0  0  0  0  0  0  0  0  0  0
    8.9282   -1.9330    0.0000 C   0  0  0  0  0  0  0  0  0  0  0  0
    5.4641    0.0670    0.0000 C   0  0  0  0  0  0  0  0  0  0  0  0
    6.3301   -1.4330    0.0000 C   0  0  0  0  0  0  0  0  0  0  0  0
   10.7282    1.0878    0.0000 C   0  0  0  0  0  0  0  0  0  0  0  0
   10.7282    0.0462    0.0000 C   0  0  0  0  0  0  0  0  0  0  0  0
    4.5981   -0.4330    0.0000 C   0  0  0  0  0  0  0  0  0  0  0  0
    5.4641   -1.9330    0.0000 C   0  0  0  0  0  0  0  0  0  0  0  0
    4.5981   -1.4330    0.0000 C   0  0  0  0  0  0  0  0  0  0  0  0
   12.4602    1.0945    0.0000 C   0  0  0  0  0  0  0  0  0  0  0  0
    2.8660   -1.4330    0.0000 C   0  0  0  0  0  0  0  0  0  0  0  0
   13.3243    1.5978    0.0000 C   0  0  0  0  0  0  0  0  0  0  0  0
    2.0000   -1.9330    0.0000 C   0  0  0  0  0  0  0  0  0  0  0  0
    6.1962    1.6870    0.0000 H   0  0  0  0  0  0  0  0  0  0  0  0
    5.5762    1.0670    0.0000 H   0  0  0  0  0  0  0  0  0  0  0  0
    6.1962    0.4470    0.0000 H   0  0  0  0  0  0  0  0  0  0  0  0
    7.2331    2.2430    0.0000 H   0  0  0  0  0  0  0  0  0  0  0  0
    6.3862    2.4700    0.0000 H   0  0  0  0  0  0  0  0  0  0  0  0
    6.1592    1.6230    0.0000 H   0  0  0  0  0  0  0  0  0  0  0  0
    7.4516   -1.3254    0.0000 H   0  0  0  0  0  0  0  0  0  0  0  0
    7.8501   -2.0156    0.0000 H   0  0  0  0  0  0  0  0  0  0  0  0
    9.8150   -1.0876    0.0000 H   0  0  0  0  0  0  0  0  0  0  0  0
    9.8150    2.2216    0.0000 H   0  0  0  0  0  0  0  0  0  0  0  0
    8.6182   -2.4700    0.0000 H   0  0  0  0  0  0  0  0  0  0  0  0
    9.4651   -2.2430    0.0000 H   0  0  0  0  0  0  0  0  0  0  0  0
    9.2382   -1.3961    0.0000 H   0  0  0  0  0  0  0  0  0  0  0  0
    5.4641    0.6870    0.0000 H   0  0  0  0  0  0  0  0  0  0  0  0
    6.8671   -1.7430    0.0000 H   0  0  0  0  0  0  0  0  0  0  0  0
   11.2639   -0.2659    0.0000 H   0  0  0  0  0  0  0  0  0  0  0  0
    4.0611   -0.1230    0.0000 H   0  0  0  0  0  0  0  0  0  0  0  0
    5.4641   -2.5530    0.0000 H   0  0  0  0  0  0  0  0  0  0  0  0
   13.6364    1.0621    0.0000 H   0  0  0  0  0  0  0  0  0  0  0  0
   13.8601    1.9099    0.0000 H   0  0  0  0  0  0  0  0  0  0  0  0
   13.0123    2.1336    0.0000 H   0  0  0  0  0  0  0  0  0  0  0  0
    1.6900   -1.3961    0.0000 H   0  0  0  0  0  0  0  0  0  0  0  0
    1.4631   -2.2430    0.0000 H   0  0  0  0  0  0  0  0  0  0  0  0
    2.3100   -2.4700    0.0000 H   0  0  0  0  0  0  0  0  0  0  0  0
  1  6  1  0  0  0  0
  1 12  1  0  0  0  0
  2 20  1  0  0  0  0
  2 25  1  0  0  0  0
  3 24  1  0  0  0  0
  3 26  1  0  0  0  0
  4 25  2  0  0  0  0
  5 26  2  0  0  0  0
  6  7  1  0  0  0  0
  6 10  1  0  0  0  0
  6 11  1  0  0  0  0
  7  8  2  0  0  0  0
  7 13  1  0  0  0  0
  8  9  1  0  0  0  0
  8 14  1  0  0  0  0
  9 12  2  0  0  0  0
  9 15  1  0  0  0  0
 10 32  1  0  0  0  0
 10 33  1  0  0  0  0
 10 34  1  0  0  0  0
 11 29  1  0  0  0  0
 11 30  1  0  0  0  0
 11 31  1  0  0  0  0
 12 16  1  0  0  0  0
 13 18  2  0  0  0  0
 13 19  1  0  0  0  0
 14 17  1  0  0  0  0
 14 35  1  0  0  0  0
 14 36  1  0  0  0  0
 15 21  2  0  0  0  0
 15 37  1  0  0  0  0
 16 20  2  0  0  0  0
 16 38  1  0  0  0  0
 17 39  1  0  0  0  0
 17 40  1  0  0  0  0
 17 41  1  0  0  0  0
 18 22  1  0  0  0  0
 18 42  1  0  0  0  0
 19 23  2  0  0  0  0
 19 43  1  0  0  0  0
 20 21  1  0  0  0  0
 21 44  1  0  0  0  0
 22 24  2  0  0  0  0
 22 45  1  0  0  0  0
 23 24  1  0  0  0  0
 23 46  1  0  0  0  0
 25 27  1  0  0  0  0
 26 28  1  0  0  0  0
 27 47  1  0  0  0  0
 27 48  1  0  0  0  0
 27 49  1  0  0  0  0
 28 50  1  0  0  0  0
 28 51  1  0  0  0  0
 28 52  1  0  0  0  0
M  END
> <PUBCHEM_COMPOUND_CID>
256418

> <PUBCHEM_COMPOUND_CANONICALIZED>
1

> <PUBCHEM_CACTVS_COMPLEXITY>
627

> <PUBCHEM_CACTVS_HBOND_ACCEPTOR>
5

> <PUBCHEM_CACTVS_HBOND_DONOR>
0

> <PUBCHEM_CACTVS_ROTATABLE_BOND>
6

> <PUBCHEM_CACTVS_SUBSKEYS>
AAADceB4OAAAAAAAAAAAAAAAAAAAAAAAAAAwYIAAAAAAAACBQAAAGgAAAAAADESAmAAyDoAABACIAiDSCAACCAAgIAAIiAAGCIgMJyKEMRqCOiClwBUIqAeA4OwOIAAACAAIAABAAAAQABAAAAAAAAAAAA==

> <PUBCHEM_IUPAC_OPENEYE_NAME>
[4-(7-acetoxy-4-ethyl-2,2-dimethyl-chromen-3-yl)phenyl] acetate

> <PUBCHEM_IUPAC_CAS_NAME>
acetic acid [4-(7-acetyloxy-4-ethyl-2,2-dimethyl-1-benzopyran-3-yl)phenyl] ester

> <PUBCHEM_IUPAC_NAME>
[4-(7-acetyloxy-4-ethyl-2,2-dimethylchromen-3-yl)phenyl] acetate

> <PUBCHEM_IUPAC_SYSTEMATIC_NAME>
[4-(7-acetyloxy-4-ethyl-2,2-dimethyl-chromen-3-yl)phenyl] ethanoate

> <PUBCHEM_IUPAC_TRADITIONAL_NAME>
acetic acid [4-(7-acetoxy-4-ethyl-2,2-dimethyl-chromen-3-yl)phenyl] ester

> <PUBCHEM_IUPAC_INCHI>
InChI=1S/C23H24O5/c1-6-19-20-12-11-18(27-15(3)25)13-21(20)28-23(4,5)22(19)16-7-9-17(10-8-16)26-14(2)24/h7-13H,6H2,1-5H3

> <PUBCHEM_IUPAC_INCHIKEY>
MYPFOICOYSUJOZ-UHFFFAOYSA-N

> <PUBCHEM_XLOGP3_AA>
3.9

> <PUBCHEM_EXACT_MASS>
380.162374

> <PUBCHEM_MOLECULAR_FORMULA>
C23H24O5

> <PUBCHEM_MOLECULAR_WEIGHT>
380.43366

> <PUBCHEM_OPENEYE_CAN_SMILES>
CCC1=C(C(OC2=C1C=CC(=C2)OC(=O)C)(C)C)C3=CC=C(C=C3)OC(=O)C

> <PUBCHEM_OPENEYE_ISO_SMILES>
CCC1=C(C(OC2=C1C=CC(=C2)OC(=O)C)(C)C)C3=CC=C(C=C3)OC(=O)C

> <PUBCHEM_CACTVS_TPSA>
61.8

> <PUBCHEM_MONOISOTOPIC_WEIGHT>
380.162374

> <PUBCHEM_TOTAL_CHARGE>
0

> <PUBCHEM_HEAVY_ATOM_COUNT>
28

> <PUBCHEM_ATOM_DEF_STEREO_COUNT>
0

> <PUBCHEM_ATOM_UDEF_STEREO_COUNT>
0

> <PUBCHEM_BOND_DEF_STEREO_COUNT>
0

> <PUBCHEM_BOND_UDEF_STEREO_COUNT>
0

> <PUBCHEM_ISOTOPIC_ATOM_COUNT>
0

> <PUBCHEM_COMPONENT_COUNT>
1

> <PUBCHEM_CACTVS_TAUTO_COUNT>
1

> <PUBCHEM_COORDINATE_TYPE>
1
5
255

> <PUBCHEM_BONDANNOTATIONS>
12  16  8
13  18  8
13  19  8
15  21  8
16  20  8
18  22  8
19  23  8
20  21  8
22  24  8
23  24  8
9  12  8
9  15  8

$$$$

