   Color/Form
        BROWNISH-RED POWDER; IN WATER YELLOWISH-RED & IN ETHANOL ORANGE
   from [1]HSDB

   Odor
        ODORLESS
   from [2]HSDB

   Melting Point
        >360 deg C
   from [3]HSDB

   pH
        SOLN HAVE PH OF 8-9.5
   from [4]HSDB

   Solubilities

     * Sol in ethanol; very slightly sol in acetone; practically insol in
       ether
     * 1 G SOL IN ABOUT 30 ML WATER
     * 10 mg/ml in 2-methoxyethanol; 1.0 mg/ml in ethanol
     * In water= 1.16X10+5 mg/l at 25 deg C

   from [5]HSDB

   Spectral Properties

     * MAX ABSORPTION (WATER): 350 NM (LOG E= 4.5); 500 NM (LOG E= 4.7)
     * MAX ABSORPTION (PH 7.3): 488 NM (E= 595, 1%, 1 CM)
     * IR: 3891 (Coblentz Society Spectral Collection)
     * UV: 4-1071 (Organic Electronic Spectral Data, Phillips et al, John
       Wiley & Sons, New York)

   from [6]HSDB

   Other Chemical/Physical Properties
        Decomposes on exposure to acid fumes.
   from [7]HSDB

   Computed Properties
   Molecular Weight                  696.663219 [g/mol]
   Molecular Formula                 C[32]H[22]N[6]Na[2]O[6]S[2]
   H-Bond Donor                      2
   H-Bond Acceptor                   12
   Rotatable Bond Count              5
   Tautomer Count                    3
   Exact Mass                        696.083763
   MonoIsotopic Mass                 696.083763
   Topological Polar Surface Area    233
   Heavy Atom Count                  48
   Formal Charge                     0
   Complexity                        1180
   Isotope Atom Count                0
   Defined Atom Stereocenter Count   0
   Undefined Atom Stereocenter Count 0
   Defined Bond Stereocenter Count   0
   Undefined Bond Stereocenter Count 0
   Covalently-Bonded Unit Count      3

References

   1. http://toxnet.nlm.nih.gov/cgi-bin/sis/search/r?dbs+hsdb:@term+@rn+@rel+573-58-0
   2. http://toxnet.nlm.nih.gov/cgi-bin/sis/search/r?dbs+hsdb:@term+@rn+@rel+573-58-0
   3. http://toxnet.nlm.nih.gov/cgi-bin/sis/search/r?dbs+hsdb:@term+@rn+@rel+573-58-0
   4. http://toxnet.nlm.nih.gov/cgi-bin/sis/search/r?dbs+hsdb:@term+@rn+@rel+573-58-0
   5. http://toxnet.nlm.nih.gov/cgi-bin/sis/search/r?dbs+hsdb:@term+@rn+@rel+573-58-0
   6. http://toxnet.nlm.nih.gov/cgi-bin/sis/search/r?dbs+hsdb:@term+@rn+@rel+573-58-0
   7. http://toxnet.nlm.nih.gov/cgi-bin/sis/search/r?dbs+hsdb:@term+@rn+@rel+573-58-0
