24892794
  -OEChem-07051213082D

108107  0     1  0  0  0  0  0999 V2000
    5.1350   -7.1550    0.0000 S   0  0  0  0  0  0  0  0  0  0  0  0
   18.1254    8.3450    0.0000 S   0  0  0  0  0  0  0  0  0  0  0  0
    6.8671   -5.1550    0.0000 O   0  0  0  0  0  0  0  0  0  0  0  0
   15.5273    4.8450    0.0000 O   0  0  0  0  0  0  0  0  0  0  0  0
   14.6613    8.3450    0.0000 O   0  0  0  0  0  0  0  0  0  0  0  0
    7.7331   -8.6550    0.0000 O   0  0  0  0  0  0  0  0  0  0  0  0
   18.1254    9.3450    0.0000 O   0  0  0  0  0  0  0  0  0  0  0  0
    4.2690   -9.6550    0.0000 O   0  0  0  0  0  0  0  0  0  0  0  0
   18.9914   13.8450    0.0000 O   0  0  0  0  0  0  0  0  0  0  0  0
    2.5369  -12.6550    0.0000 O   0  0  0  0  0  0  0  0  0  0  0  0
   19.8574   12.3450    0.0000 O   0  0  0  0  0  0  0  0  0  0  0  0
    3.4030  -14.1550    0.0000 O   0  0  0  0  0  0  0  0  0  0  0  0
   12.0632    1.8450    0.0000 N   0  0  0  0  0  0  0  0  0  0  0  0
   10.3312   -2.1550    0.0000 N   0  0  0  0  0  0  0  0  0  0  0  0
   13.7953    4.8450    0.0000 N   0  0  0  0  0  0  0  0  0  0  0  0
    8.5991   -5.1550    0.0000 N   0  0  0  0  0  0  0  0  0  0  0  0
    6.0010   -9.6550    0.0000 N   0  0  0  0  0  0  0  0  0  0  0  0
   16.3933    9.3450    0.0000 N   0  0  0  0  0  0  0  0  0  0  0  0
   15.5273    6.8450    0.0000 N   0  0  0  0  0  0  0  0  0  0  0  0
    6.8671   -7.1550    0.0000 N   0  0  0  0  0  0  0  0  0  0  0  0
    5.1350  -13.1550    0.0000 N   0  0  0  0  0  0  0  0  0  0  0  0
   17.2594   12.8450    0.0000 N   0  0  0  0  0  0  0  0  0  0  0  0
   11.1972   -0.6550    0.0000 C   0  0  0  0  0  0  0  0  0  0  0  0
   11.1972    0.3450    0.0000 C   0  0  0  0  0  0  0  0  0  0  0  0
   12.0632    0.8450    0.0000 C   0  0  0  0  0  0  0  0  0  0  0  0
   10.3312   -1.1550    0.0000 C   0  0  0  0  0  0  0  0  0  0  0  0
   12.9292    2.3450    0.0000 C   0  0  0  0  0  0  0  0  0  0  0  0
    9.4651   -2.6550    0.0000 C   0  0  0  0  0  0  0  0  0  0  0  0
    9.4651   -3.6550    0.0000 C   0  0  0  0  0  0  0  0  0  0  0  0
   12.9292    3.3450    0.0000 C   0  0  0  0  0  0  0  0  0  0  0  0
   13.7953    3.8450    0.0000 C   0  0  0  0  0  0  0  0  0  0  0  0
    8.5991   -4.1550    0.0000 C   0  0  0  0  0  0  0  0  0  0  0  0
   16.3933    8.3450    0.0000 C   0  0  2  0  0  0  0  0  0  0  0  0
    6.0010   -8.6550    0.0000 C   0  0  2  0  0  0  0  0  0  0  0  0
    4.2690  -11.6550    0.0000 C   0  0  0  0  0  0  0  0  0  0  0  0
   18.1254   11.3450    0.0000 C   0  0  0  0  0  0  0  0  0  0  0  0
   17.2594   10.8450    0.0000 C   0  0  0  0  0  0  0  0  0  0  0  0
    5.1350  -11.1550    0.0000 C   0  0  0  0  0  0  0  0  0  0  0  0
    7.7331   -5.6550    0.0000 C   0  0  0  0  0  0  0  0  0  0  0  0
   14.6613    5.3450    0.0000 C   0  0  0  0  0  0  0  0  0  0  0  0
   14.6613    6.3450    0.0000 C   0  0  0  0  0  0  0  0  0  0  0  0
    7.7331   -6.6550    0.0000 C   0  0  0  0  0  0  0  0  0  0  0  0
    4.2690  -12.6550    0.0000 C   0  0  1  0  0  0  0  0  0  0  0  0
   18.1254   12.3450    0.0000 C   0  0  1  0  0  0  0  0  0  0  0  0
   15.5273    7.8450    0.0000 C   0  0  0  0  0  0  0  0  0  0  0  0
    6.8671   -8.1550    0.0000 C   0  0  0  0  0  0  0  0  0  0  0  0
   17.2594    9.8450    0.0000 C   0  0  0  0  0  0  0  0  0  0  0  0
    5.1350  -10.1550    0.0000 C   0  0  0  0  0  0  0  0  0  0  0  0
    5.1350   -8.1550    0.0000 C   0  0  0  0  0  0  0  0  0  0  0  0
   17.2594    7.8450    0.0000 C   0  0  0  0  0  0  0  0  0  0  0  0
    3.4030  -13.1550    0.0000 C   0  0  0  0  0  0  0  0  0  0  0  0
   18.9914   12.8450    0.0000 C   0  0  0  0  0  0  0  0  0  0  0  0
   11.4092   -1.2376    0.0000 H   0  0  0  0  0  0  0  0  0  0  0  0
   11.8078   -0.5473    0.0000 H   0  0  0  0  0  0  0  0  0  0  0  0
   10.9851    0.9276    0.0000 H   0  0  0  0  0  0  0  0  0  0  0  0
   10.5866    0.2373    0.0000 H   0  0  0  0  0  0  0  0  0  0  0  0
   10.1191   -0.5724    0.0000 H   0  0  0  0  0  0  0  0  0  0  0  0
    9.7206   -1.2627    0.0000 H   0  0  0  0  0  0  0  0  0  0  0  0
   12.2753    0.2624    0.0000 H   0  0  0  0  0  0  0  0  0  0  0  0
   12.6738    0.9527    0.0000 H   0  0  0  0  0  0  0  0  0  0  0  0
    9.2531   -2.0724    0.0000 H   0  0  0  0  0  0  0  0  0  0  0  0
    8.8546   -2.7627    0.0000 H   0  0  0  0  0  0  0  0  0  0  0  0
   13.1413    1.7624    0.0000 H   0  0  0  0  0  0  0  0  0  0  0  0
   13.5398    2.4527    0.0000 H   0  0  0  0  0  0  0  0  0  0  0  0
   11.5263    2.1550    0.0000 H   0  0  0  0  0  0  0  0  0  0  0  0
   10.8681   -2.4650    0.0000 H   0  0  0  0  0  0  0  0  0  0  0  0
    9.6772   -4.2376    0.0000 H   0  0  0  0  0  0  0  0  0  0  0  0
   10.0757   -3.5473    0.0000 H   0  0  0  0  0  0  0  0  0  0  0  0
   12.7172    3.9276    0.0000 H   0  0  0  0  0  0  0  0  0  0  0  0
   12.3187    3.2373    0.0000 H   0  0  0  0  0  0  0  0  0  0  0  0
    8.3871   -3.5724    0.0000 H   0  0  0  0  0  0  0  0  0  0  0  0
    7.9885   -4.2627    0.0000 H   0  0  0  0  0  0  0  0  0  0  0  0
   14.0073    3.2624    0.0000 H   0  0  0  0  0  0  0  0  0  0  0  0
   14.4058    3.9527    0.0000 H   0  0  0  0  0  0  0  0  0  0  0  0
    9.1360   -5.4650    0.0000 H   0  0  0  0  0  0  0  0  0  0  0  0
   13.2583    5.1550    0.0000 H   0  0  0  0  0  0  0  0  0  0  0  0
    5.4641   -8.9650    0.0000 H   0  0  0  0  0  0  0  0  0  0  0  0
   15.8564    8.6550    0.0000 H   0  0  0  0  0  0  0  0  0  0  0  0
   18.3374   10.7624    0.0000 H   0  0  0  0  0  0  0  0  0  0  0  0
   18.7360   11.4527    0.0000 H   0  0  0  0  0  0  0  0  0  0  0  0
    4.0569  -11.0724    0.0000 H   0  0  0  0  0  0  0  0  0  0  0  0
    3.6584  -11.7627    0.0000 H   0  0  0  0  0  0  0  0  0  0  0  0
   17.0473   11.4276    0.0000 H   0  0  0  0  0  0  0  0  0  0  0  0
   16.6488   10.7373    0.0000 H   0  0  0  0  0  0  0  0  0  0  0  0
    5.3471  -11.7376    0.0000 H   0  0  0  0  0  0  0  0  0  0  0  0
    5.7456  -11.0473    0.0000 H   0  0  0  0  0  0  0  0  0  0  0  0
   14.4492    6.9276    0.0000 H   0  0  0  0  0  0  0  0  0  0  0  0
   14.0507    6.2373    0.0000 H   0  0  0  0  0  0  0  0  0  0  0  0
    7.9451   -7.2376    0.0000 H   0  0  0  0  0  0  0  0  0  0  0  0
    8.3437   -6.5473    0.0000 H   0  0  0  0  0  0  0  0  0  0  0  0
   18.1254   12.9650    0.0000 H   0  0  0  0  0  0  0  0  0  0  0  0
    4.8059  -12.3450    0.0000 H   0  0  0  0  0  0  0  0  0  0  0  0
    6.5380   -9.9650    0.0000 H   0  0  0  0  0  0  0  0  0  0  0  0
   15.8564    9.6550    0.0000 H   0  0  0  0  0  0  0  0  0  0  0  0
   16.8608    7.3700    0.0000 H   0  0  0  0  0  0  0  0  0  0  0  0
   17.6579    7.3700    0.0000 H   0  0  0  0  0  0  0  0  0  0  0  0
    4.5244   -8.0473    0.0000 H   0  0  0  0  0  0  0  0  0  0  0  0
    4.9230   -8.7376    0.0000 H   0  0  0  0  0  0  0  0  0  0  0  0
    6.3301   -6.8450    0.0000 H   0  0  0  0  0  0  0  0  0  0  0  0
   16.0642    6.5350    0.0000 H   0  0  0  0  0  0  0  0  0  0  0  0
   17.2594   13.4650    0.0000 H   0  0  0  0  0  0  0  0  0  0  0  0
   16.7224   12.5350    0.0000 H   0  0  0  0  0  0  0  0  0  0  0  0
    5.6720  -12.8450    0.0000 H   0  0  0  0  0  0  0  0  0  0  0  0
    5.1350  -13.7750    0.0000 H   0  0  0  0  0  0  0  0  0  0  0  0
    4.5981   -6.8450    0.0000 H   0  0  0  0  0  0  0  0  0  0  0  0
   18.6623    8.0350    0.0000 H   0  0  0  0  0  0  0  0  0  0  0  0
   19.5283   14.1550    0.0000 H   0  0  0  0  0  0  0  0  0  0  0  0
    2.0000  -12.9650    0.0000 H   0  0  0  0  0  0  0  0  0  0  0  0
  1 49  1  0  0  0  0
  1105  1  0  0  0  0
  2 50  1  0  0  0  0
  2106  1  0  0  0  0
  3 39  2  0  0  0  0
  4 40  2  0  0  0  0
  5 45  2  0  0  0  0
  6 46  2  0  0  0  0
  7 47  2  0  0  0  0
  8 48  2  0  0  0  0
  9 52  1  0  0  0  0
  9107  1  0  0  0  0
 10 51  1  0  0  0  0
 10108  1  0  0  0  0
 11 52  2  0  0  0  0
 12 51  2  0  0  0  0
 13 25  1  0  0  0  0
 13 27  1  0  0  0  0
 13 65  1  0  0  0  0
 14 26  1  0  0  0  0
 14 28  1  0  0  0  0
 14 66  1  0  0  0  0
 15 31  1  0  0  0  0
 15 40  1  0  0  0  0
 15 76  1  0  0  0  0
 16 32  1  0  0  0  0
 16 39  1  0  0  0  0
 16 75  1  0  0  0  0
 34 17  1  1  0  0  0
 17 48  1  0  0  0  0
 17 93  1  0  0  0  0
 33 18  1  1  0  0  0
 18 47  1  0  0  0  0
 18 94  1  0  0  0  0
 19 41  1  0  0  0  0
 19 45  1  0  0  0  0
 19100  1  0  0  0  0
 20 42  1  0  0  0  0
 20 46  1  0  0  0  0
 20 99  1  0  0  0  0
 43 21  1  6  0  0  0
 21103  1  0  0  0  0
 21104  1  0  0  0  0
 44 22  1  6  0  0  0
 22101  1  0  0  0  0
 22102  1  0  0  0  0
 23 24  1  0  0  0  0
 23 26  1  0  0  0  0
 23 53  1  0  0  0  0
 23 54  1  0  0  0  0
 24 25  1  0  0  0  0
 24 55  1  0  0  0  0
 24 56  1  0  0  0  0
 25 59  1  0  0  0  0
 25 60  1  0  0  0  0
 26 57  1  0  0  0  0
 26 58  1  0  0  0  0
 27 30  1  0  0  0  0
 27 63  1  0  0  0  0
 27 64  1  0  0  0  0
 28 29  1  0  0  0  0
 28 61  1  0  0  0  0
 28 62  1  0  0  0  0
 29 32  1  0  0  0  0
 29 67  1  0  0  0  0
 29 68  1  0  0  0  0
 30 31  1  0  0  0  0
 30 69  1  0  0  0  0
 30 70  1  0  0  0  0
 31 73  1  0  0  0  0
 31 74  1  0  0  0  0
 32 71  1  0  0  0  0
 32 72  1  0  0  0  0
 33 45  1  0  0  0  0
 33 50  1  0  0  0  0
 33 78  1  0  0  0  0
 34 46  1  0  0  0  0
 34 49  1  0  0  0  0
 34 77  1  0  0  0  0
 35 38  1  0  0  0  0
 35 43  1  0  0  0  0
 35 81  1  0  0  0  0
 35 82  1  0  0  0  0
 36 37  1  0  0  0  0
 36 44  1  0  0  0  0
 36 79  1  0  0  0  0
 36 80  1  0  0  0  0
 37 47  1  0  0  0  0
 37 83  1  0  0  0  0
 37 84  1  0  0  0  0
 38 48  1  0  0  0  0
 38 85  1  0  0  0  0
 38 86  1  0  0  0  0
 39 42  1  0  0  0  0
 40 41  1  0  0  0  0
 41 87  1  0  0  0  0
 41 88  1  0  0  0  0
 42 89  1  0  0  0  0
 42 90  1  0  0  0  0
 43 51  1  0  0  0  0
 43 92  1  0  0  0  0
 44 52  1  0  0  0  0
 44 91  1  0  0  0  0
 49 97  1  0  0  0  0
 49 98  1  0  0  0  0
 50 95  1  0  0  0  0
 50 96  1  0  0  0  0
M  END
> <PUBCHEM_COMPOUND_CID>
24892794

> <PUBCHEM_COMPOUND_CANONICALIZED>
1

> <PUBCHEM_CACTVS_COMPLEXITY>
1070

> <PUBCHEM_CACTVS_HBOND_ACCEPTOR>
16

> <PUBCHEM_CACTVS_HBOND_DONOR>
14

> <PUBCHEM_CACTVS_ROTATABLE_BOND>
31

> <PUBCHEM_CACTVS_SUBSKEYS>
AAADcfB7/ABgAAAAAAAAAAAAAAAAAAAAAAAAAAAAAAAAAAAAAAAAHgQQCAAACCjFwASACALAAgQIAAGQGAAAAAAAAAAAAIGIAAACQBIAwCAUQAAEFgCAAACcFwIAAAAAAAAAAAAAAAAAAAAAAAAAAAAAAA==

> <PUBCHEM_IUPAC_OPENEYE_NAME>
(2S)-2-amino-5-[[(1R)-2-[[2-[3-[4-[3-[[2-[[(2R)-2-[[(4S)-4-amino-4-carboxy-butanoyl]amino]-3-sulfanyl-propanoyl]amino]acetyl]amino]propylamino]butylamino]propylamino]-2-oxo-ethyl]amino]-2-oxo-1-(sulfanylmethyl)ethyl]amino]-5-oxo-pentanoic acid

> <PUBCHEM_IUPAC_CAS_NAME>
(2S)-2-amino-5-[[(2R)-1-[[2-[3-[4-[3-[[2-[[(2R)-2-[[(4S)-4-amino-4-carboxy-1-oxobutyl]amino]-3-mercapto-1-oxopropyl]amino]-1-oxoethyl]amino]propylamino]butylamino]propylamino]-2-oxoethyl]amino]-3-mercapto-1-oxopropan-2-yl]amino]-5-oxopentanoic acid

> <PUBCHEM_IUPAC_NAME>
(2S)-2-amino-5-[[(2R)-1-[[2-[3-[4-[3-[[2-[[(2R)-2-[[(4S)-4-amino-4-carboxybutanoyl]amino]-3-sulfanylpropanoyl]amino]acetyl]amino]propylamino]butylamino]propylamino]-2-oxoethyl]amino]-1-oxo-3-sulfanylpropan-2-yl]amino]-5-oxopentanoic acid

> <PUBCHEM_IUPAC_SYSTEMATIC_NAME>
(2S)-2-azanyl-5-[[(2R)-1-[[2-[3-[4-[3-[2-[[(2R)-2-[[(4S)-4-azanyl-5-oxidanyl-5-oxidanylidene-pentanoyl]amino]-3-sulfanyl-propanoyl]amino]ethanoylamino]propylamino]butylamino]propylamino]-2-oxidanylidene-ethyl]amino]-1-oxidanylidene-3-sulfanyl-propan-2-yl]amino]-5-oxidanylidene-pentanoic acid

> <PUBCHEM_IUPAC_TRADITIONAL_NAME>
(2S)-2-amino-5-[[(1R)-2-[[2-[3-[4-[3-[[2-[[(2R)-2-[[(4S)-4-amino-4-carboxy-butanoyl]amino]-3-mercapto-propanoyl]amino]acetyl]amino]propylamino]butylamino]propylamino]-2-keto-ethyl]amino]-2-keto-1-(mercaptomethyl)ethyl]amino]-5-keto-valeric acid

> <PUBCHEM_IUPAC_INCHI>
InChI=1S/C30H56N10O10S2/c31-19(29(47)48)5-7-23(41)39-21(17-51)27(45)37-15-25(43)35-13-3-11-33-9-1-2-10-34-12-4-14-36-26(44)16-38-28(46)22(18-52)40-24(42)8-6-20(32)30(49)50/h19-22,33-34,51-52H,1-18,31-32H2,(H,35,43)(H,36,44)(H,37,45)(H,38,46)(H,39,41)(H,40,42)(H,47,48)(H,49,50)/t19-,20-,21-,22-/m0/s1

> <PUBCHEM_IUPAC_INCHIKEY>
DTLYCKOAJLQYOS-CMOCDZPBSA-N

> <PUBCHEM_XLOGP3_AA>
-9.1

> <PUBCHEM_EXACT_MASS>
780.36223

> <PUBCHEM_MOLECULAR_FORMULA>
C30H56N10O10S2

> <PUBCHEM_MOLECULAR_WEIGHT>
780.95664

> <PUBCHEM_OPENEYE_CAN_SMILES>
C(CCNCCCNC(=O)CNC(=O)C(CS)NC(=O)CCC(C(=O)O)N)CNCCCNC(=O)CNC(=O)C(CS)NC(=O)CCC(C(=O)O)N

> <PUBCHEM_OPENEYE_ISO_SMILES>
C(CCNCCCNC(=O)CNC(=O)[C@H](CS)NC(=O)CC[C@@H](C(=O)O)N)CNCCCNC(=O)CNC(=O)[C@H](CS)NC(=O)CC[C@@H](C(=O)O)N

> <PUBCHEM_CACTVS_TPSA>
327

> <PUBCHEM_MONOISOTOPIC_WEIGHT>
780.36223

> <PUBCHEM_TOTAL_CHARGE>
0

> <PUBCHEM_HEAVY_ATOM_COUNT>
52

> <PUBCHEM_ATOM_DEF_STEREO_COUNT>
4

> <PUBCHEM_ATOM_UDEF_STEREO_COUNT>
0

> <PUBCHEM_BOND_DEF_STEREO_COUNT>
0

> <PUBCHEM_BOND_UDEF_STEREO_COUNT>
0

> <PUBCHEM_ISOTOPIC_ATOM_COUNT>
0

> <PUBCHEM_COMPONENT_COUNT>
1

> <PUBCHEM_CACTVS_TAUTO_COUNT>
36

> <PUBCHEM_COORDINATE_TYPE>
1
5
255

> <PUBCHEM_BONDANNOTATIONS>
34  17  5
33  18  5
43  21  6
44  22  6

$$$$

