5281956
  -OEChem-07051213022D

 72 71  0     1  0  0  0  0  0999 V2000
    7.7331    1.7500    0.0000 S   0  0  0  0  0  0  0  0  0  0  0  0
    6.8671    4.2500    0.0000 O   0  0  0  0  0  0  0  0  0  0  0  0
    2.5369    2.7500    0.0000 O   0  0  0  0  0  0  0  0  0  0  0  0
    3.4030    4.2500    0.0000 O   0  0  0  0  0  0  0  0  0  0  0  0
    7.7331   -1.2500    0.0000 O   0  0  0  0  0  0  0  0  0  0  0  0
    8.5991    0.2500    0.0000 O   0  0  0  0  0  0  0  0  0  0  0  0
    6.8671   -1.7500    0.0000 O   0  0  0  0  0  0  0  0  0  0  0  0
   12.9292   -4.2500    0.0000 O   0  0  0  0  0  0  0  0  0  0  0  0
   13.7953   -2.7500    0.0000 O   0  0  0  0  0  0  0  0  0  0  0  0
    6.0010   -0.2500    0.0000 N   0  0  0  0  0  0  0  0  0  0  0  0
    6.8671    3.2500    0.0000 C   0  0  1  0  0  0  0  0  0  0  0  0
    6.0010    2.7500    0.0000 C   0  0  0  0  0  0  0  0  0  0  0  0
    7.7331    2.7500    0.0000 C   0  0  1  0  0  0  0  0  0  0  0  0
    5.1350    3.2500    0.0000 C   0  0  0  0  0  0  0  0  0  0  0  0
    4.2690    2.7500    0.0000 C   0  0  0  0  0  0  0  0  0  0  0  0
    8.5991    3.2500    0.0000 C   0  0  0  0  0  0  0  0  0  0  0  0
    6.8671    1.2500    0.0000 C   0  0  0  0  0  0  0  0  0  0  0  0
    6.8671    0.2500    0.0000 C   0  0  3  0  0  0  0  0  0  0  0  0
    9.4651    2.7500    0.0000 C   0  0  0  0  0  0  0  0  0  0  0  0
    3.4030    3.2500    0.0000 C   0  0  0  0  0  0  0  0  0  0  0  0
    7.7331   -0.2500    0.0000 C   0  0  0  0  0  0  0  0  0  0  0  0
   12.9292   -1.2500    0.0000 C   0  0  0  0  0  0  0  0  0  0  0  0
   12.0632   -1.7500    0.0000 C   0  0  0  0  0  0  0  0  0  0  0  0
   12.9292   -0.2500    0.0000 C   0  0  0  0  0  0  0  0  0  0  0  0
   10.3312    3.2500    0.0000 C   0  0  0  0  0  0  0  0  0  0  0  0
   12.0632   -2.7500    0.0000 C   0  0  0  0  0  0  0  0  0  0  0  0
    6.0010   -1.2500    0.0000 C   0  0  0  0  0  0  0  0  0  0  0  0
   13.7953    0.2500    0.0000 C   0  0  0  0  0  0  0  0  0  0  0  0
   11.1972    2.7500    0.0000 C   0  0  0  0  0  0  0  0  0  0  0  0
   13.7953    1.2500    0.0000 C   0  0  0  0  0  0  0  0  0  0  0  0
   12.9292    1.7500    0.0000 C   0  0  0  0  0  0  0  0  0  0  0  0
    5.1350   -1.7500    0.0000 C   0  0  0  0  0  0  0  0  0  0  0  0
   12.9292   -3.2500    0.0000 C   0  0  0  0  0  0  0  0  0  0  0  0
   12.0632    3.2500    0.0000 C   0  0  0  0  0  0  0  0  0  0  0  0
   12.9292    2.7500    0.0000 C   0  0  0  0  0  0  0  0  0  0  0  0
    6.3301    3.5600    0.0000 H   0  0  0  0  0  0  0  0  0  0  0  0
    5.6025    2.2750    0.0000 H   0  0  0  0  0  0  0  0  0  0  0  0
    6.3996    2.2750    0.0000 H   0  0  0  0  0  0  0  0  0  0  0  0
    8.2700    2.4400    0.0000 H   0  0  0  0  0  0  0  0  0  0  0  0
    5.5335    3.7250    0.0000 H   0  0  0  0  0  0  0  0  0  0  0  0
    4.7365    3.7250    0.0000 H   0  0  0  0  0  0  0  0  0  0  0  0
    3.8705    2.2750    0.0000 H   0  0  0  0  0  0  0  0  0  0  0  0
    4.6675    2.2750    0.0000 H   0  0  0  0  0  0  0  0  0  0  0  0
    8.5991    3.8700    0.0000 H   0  0  0  0  0  0  0  0  0  0  0  0
    6.6550    1.8326    0.0000 H   0  0  0  0  0  0  0  0  0  0  0  0
    6.2565    1.1423    0.0000 H   0  0  0  0  0  0  0  0  0  0  0  0
    6.1309    0.6750    0.0000 H   0  0  0  0  0  0  0  0  0  0  0  0
    6.3301    4.5600    0.0000 H   0  0  0  0  0  0  0  0  0  0  0  0
    9.4651    2.1300    0.0000 H   0  0  0  0  0  0  0  0  0  0  0  0
    5.4641    0.0600    0.0000 H   0  0  0  0  0  0  0  0  0  0  0  0
   13.1413   -1.8326    0.0000 H   0  0  0  0  0  0  0  0  0  0  0  0
   13.5398   -1.1423    0.0000 H   0  0  0  0  0  0  0  0  0  0  0  0
   11.8512   -1.1674    0.0000 H   0  0  0  0  0  0  0  0  0  0  0  0
   11.4526   -1.8577    0.0000 H   0  0  0  0  0  0  0  0  0  0  0  0
   12.7172    0.3326    0.0000 H   0  0  0  0  0  0  0  0  0  0  0  0
   12.3187   -0.3577    0.0000 H   0  0  0  0  0  0  0  0  0  0  0  0
   10.3312    3.8700    0.0000 H   0  0  0  0  0  0  0  0  0  0  0  0
   11.4526   -2.6423    0.0000 H   0  0  0  0  0  0  0  0  0  0  0  0
   11.8512   -3.3326    0.0000 H   0  0  0  0  0  0  0  0  0  0  0  0
   14.3322   -0.0600    0.0000 H   0  0  0  0  0  0  0  0  0  0  0  0
    2.0000    3.0600    0.0000 H   0  0  0  0  0  0  0  0  0  0  0  0
   11.1972    2.1300    0.0000 H   0  0  0  0  0  0  0  0  0  0  0  0
   14.3322    1.5600    0.0000 H   0  0  0  0  0  0  0  0  0  0  0  0
   12.3187    1.8577    0.0000 H   0  0  0  0  0  0  0  0  0  0  0  0
   12.7172    1.1674    0.0000 H   0  0  0  0  0  0  0  0  0  0  0  0
    4.8250   -1.2131    0.0000 H   0  0  0  0  0  0  0  0  0  0  0  0
    4.5981   -2.0600    0.0000 H   0  0  0  0  0  0  0  0  0  0  0  0
    5.4450   -2.2869    0.0000 H   0  0  0  0  0  0  0  0  0  0  0  0
    8.2700   -1.5600    0.0000 H   0  0  0  0  0  0  0  0  0  0  0  0
   12.0632    3.8700    0.0000 H   0  0  0  0  0  0  0  0  0  0  0  0
   13.4662    3.0600    0.0000 H   0  0  0  0  0  0  0  0  0  0  0  0
   13.4662   -4.5600    0.0000 H   0  0  0  0  0  0  0  0  0  0  0  0
  1 13  1  0  0  0  0
  1 17  1  0  0  0  0
 11  2  1  6  0  0  0
  2 48  1  0  0  0  0
  3 20  1  0  0  0  0
  3 61  1  0  0  0  0
  4 20  2  0  0  0  0
  5 21  1  0  0  0  0
  5 69  1  0  0  0  0
  6 21  2  0  0  0  0
  7 27  2  0  0  0  0
  8 33  1  0  0  0  0
  8 72  1  0  0  0  0
  9 33  2  0  0  0  0
 10 18  1  0  0  0  0
 10 27  1  0  0  0  0
 10 50  1  0  0  0  0
 11 12  1  0  0  0  0
 11 13  1  0  0  0  0
 11 36  1  0  0  0  0
 12 14  1  0  0  0  0
 12 37  1  0  0  0  0
 12 38  1  0  0  0  0
 13 16  1  1  0  0  0
 13 39  1  0  0  0  0
 14 15  1  0  0  0  0
 14 40  1  0  0  0  0
 14 41  1  0  0  0  0
 15 20  1  0  0  0  0
 15 42  1  0  0  0  0
 15 43  1  0  0  0  0
 16 19  2  0  0  0  0
 16 44  1  0  0  0  0
 17 18  1  0  0  0  0
 17 45  1  0  0  0  0
 17 46  1  0  0  0  0
 18 21  1  0  0  0  0
 18 47  1  0  0  0  0
 19 25  1  0  0  0  0
 19 49  1  0  0  0  0
 22 23  1  0  0  0  0
 22 24  1  0  0  0  0
 22 51  1  0  0  0  0
 22 52  1  0  0  0  0
 23 26  1  0  0  0  0
 23 53  1  0  0  0  0
 23 54  1  0  0  0  0
 24 28  1  0  0  0  0
 24 55  1  0  0  0  0
 24 56  1  0  0  0  0
 25 29  2  0  0  0  0
 25 57  1  0  0  0  0
 26 33  1  0  0  0  0
 26 58  1  0  0  0  0
 26 59  1  0  0  0  0
 27 32  1  0  0  0  0
 28 30  2  0  0  0  0
 28 60  1  0  0  0  0
 29 34  1  0  0  0  0
 29 62  1  0  0  0  0
 30 31  1  0  0  0  0
 30 63  1  0  0  0  0
 31 35  1  0  0  0  0
 31 64  1  0  0  0  0
 31 65  1  0  0  0  0
 32 66  1  0  0  0  0
 32 67  1  0  0  0  0
 32 68  1  0  0  0  0
 34 35  2  0  0  0  0
 34 70  1  0  0  0  0
 35 71  1  0  0  0  0
M  END
> <PUBCHEM_COMPOUND_CID>
5281956

> <PUBCHEM_COMPOUND_CANONICALIZED>
1

> <PUBCHEM_CACTVS_COMPLEXITY>
775

> <PUBCHEM_CACTVS_HBOND_ACCEPTOR>
9

> <PUBCHEM_CACTVS_HBOND_DONOR>
5

> <PUBCHEM_CACTVS_ROTATABLE_BOND>
20

> <PUBCHEM_CACTVS_SUBSKEYS>
AAADcfB6PABAAAAAAAAAAAAAAAAAAAAAAAAAAAAAAAAAAAAAAAAAHgQQCAAACDzlwAaCCALAAgiIACHSGAAAAAAgABAICIGIAAgKEBIgASAAQAAE1gC4gAOI7CTAAAAAAAAAAAAAAAAAAAAAAAAAAAAAAA==

> <PUBCHEM_IUPAC_OPENEYE_NAME>
(6Z,9Z,11E,13E,15R,16S)-15-(2-acetamido-2-carboxy-ethyl)sulfanyl-16-hydroxy-icosa-6,9,11,13-tetraenedioic acid

> <PUBCHEM_IUPAC_CAS_NAME>
(6Z,9Z,11E,13E,15R,16S)-15-[(2-acetamido-2-carboxyethyl)thio]-16-hydroxyeicosa-6,9,11,13-tetraenedioic acid

> <PUBCHEM_IUPAC_NAME>
(6Z,9Z,11E,13E,15R,16S)-15-(2-acetamido-2-carboxyethyl)sulfanyl-16-hydroxyicosa-6,9,11,13-tetraenedioic acid

> <PUBCHEM_IUPAC_SYSTEMATIC_NAME>
(6Z,9Z,11E,13E,15R,16S)-15-(2-acetamido-3-oxidanyl-3-oxidanylidene-propyl)sulfanyl-16-oxidanyl-icosa-6,9,11,13-tetraenedioic acid

> <PUBCHEM_IUPAC_TRADITIONAL_NAME>
(6Z,9Z,11E,13E,15R,16S)-15-[(2-acetamido-2-carboxy-ethyl)thio]-16-hydroxy-eicosa-6,9,11,13-tetraenedioic acid

> <PUBCHEM_IUPAC_INCHI>
InChI=1S/C25H37NO8S/c1-19(27)26-20(25(33)34)18-35-22(21(28)14-13-17-24(31)32)15-11-9-7-5-3-2-4-6-8-10-12-16-23(29)30/h3-7,9,11,15,20-22,28H,2,8,10,12-14,16-18H2,1H3,(H,26,27)(H,29,30)(H,31,32)(H,33,34)/b5-3-,6-4-,9-7+,15-11+/t20?,21-,22+/m0/s1

> <PUBCHEM_IUPAC_INCHIKEY>
CDLXVLKWNIXANF-KNJAQYGHSA-N

> <PUBCHEM_XLOGP3_AA>
2.8

> <PUBCHEM_EXACT_MASS>
511.223988

> <PUBCHEM_MOLECULAR_FORMULA>
C25H37NO8S

> <PUBCHEM_MOLECULAR_WEIGHT>
511.62818

> <PUBCHEM_OPENEYE_CAN_SMILES>
CC(=O)NC(CSC(C=CC=CC=CCC=CCCCCC(=O)O)C(CCCC(=O)O)O)C(=O)O

> <PUBCHEM_OPENEYE_ISO_SMILES>
CC(=O)NC(CS[C@H](/C=C/C=C/C=C\C/C=C\CCCCC(=O)O)[C@H](CCCC(=O)O)O)C(=O)O

> <PUBCHEM_CACTVS_TPSA>
187

> <PUBCHEM_MONOISOTOPIC_WEIGHT>
511.223988

> <PUBCHEM_TOTAL_CHARGE>
0

> <PUBCHEM_HEAVY_ATOM_COUNT>
35

> <PUBCHEM_ATOM_DEF_STEREO_COUNT>
2

> <PUBCHEM_ATOM_UDEF_STEREO_COUNT>
1

> <PUBCHEM_BOND_DEF_STEREO_COUNT>
4

> <PUBCHEM_BOND_UDEF_STEREO_COUNT>
0

> <PUBCHEM_ISOTOPIC_ATOM_COUNT>
0

> <PUBCHEM_COMPONENT_COUNT>
1

> <PUBCHEM_CACTVS_TAUTO_COUNT>
2

> <PUBCHEM_COORDINATE_TYPE>
1
5
255

> <PUBCHEM_BONDANNOTATIONS>
13  16  5
18  47  3
11  2  6

$$$$

