13317
  -OEChem-06261208532D

 46 47  0     1  0  0  0  0  0999 V2000
    3.2204    0.0000    0.0000 Cl  0  5  0  0  0  0  0  0  0  0  0  0
    2.9747    9.1370    0.0000 S   0  0  0  0  0  0  0  0  0  0  0  0
    0.0931    6.2764    0.0000 F   0  0  0  0  0  0  0  0  0  0  0  0
    5.2068    3.9463    0.0000 N   0  3  0  0  0  0  0  0  0  0  0  0
    3.4747    6.9463    0.0000 C   0  0  3  0  0  0  0  0  0  0  0  0
    3.4747    5.9463    0.0000 C   0  0  0  0  0  0  0  0  0  0  0  0
    4.3408    5.4463    0.0000 C   0  0  0  0  0  0  0  0  0  0  0  0
    4.3407    4.4463    0.0000 C   0  0  0  0  0  0  0  0  0  0  0  0
    4.3757    7.3802    0.0000 C   0  0  0  0  0  0  0  0  0  0  0  0
    2.5738    7.3802    0.0000 C   0  0  0  0  0  0  0  0  0  0  0  0
    4.5982    8.3551    0.0000 C   0  0  0  0  0  0  0  0  0  0  0  0
    2.3513    8.3552    0.0000 C   0  0  0  0  0  0  0  0  0  0  0  0
    3.9748    9.1370    0.0000 C   0  0  0  0  0  0  0  0  0  0  0  0
    5.1283    6.6600    0.0000 C   0  0  0  0  0  0  0  0  0  0  0  0
    1.8212    6.6600    0.0000 C   0  0  0  0  0  0  0  0  0  0  0  0
    6.0728    3.4463    0.0000 C   0  0  0  0  0  0  0  0  0  0  0  0
    4.7068    3.0803    0.0000 C   0  0  0  0  0  0  0  0  0  0  0  0
    5.5887    8.6775    0.0000 C   0  0  0  0  0  0  0  0  0  0  0  0
    1.3608    8.6775    0.0000 C   0  0  0  0  0  0  0  0  0  0  0  0
    6.1259    6.9594    0.0000 C   0  0  0  0  0  0  0  0  0  0  0  0
    0.8235    6.9594    0.0000 C   0  0  0  0  0  0  0  0  0  0  0  0
    6.3578    7.9749    0.0000 C   0  0  0  0  0  0  0  0  0  0  0  0
    0.5917    7.9749    0.0000 C   0  0  0  0  0  0  0  0  0  0  0  0
    3.9997    6.6165    0.0000 H   0  0  0  0  0  0  0  0  0  0  0  0
    2.8642    6.0540    0.0000 H   0  0  0  0  0  0  0  0  0  0  0  0
    3.2627    5.3637    0.0000 H   0  0  0  0  0  0  0  0  0  0  0  0
    4.9513    5.3387    0.0000 H   0  0  0  0  0  0  0  0  0  0  0  0
    4.5528    6.0289    0.0000 H   0  0  0  0  0  0  0  0  0  0  0  0
    3.7302    4.5540    0.0000 H   0  0  0  0  0  0  0  0  0  0  0  0
    4.1287    3.8637    0.0000 H   0  0  0  0  0  0  0  0  0  0  0  0
    5.5168    4.4832    0.0000 H   0  0  0  0  0  0  0  0  0  0  0  0
    4.5334    9.4060    0.0000 H   0  0  0  0  0  0  0  0  0  0  0  0
    3.8368    9.7414    0.0000 H   0  0  0  0  0  0  0  0  0  0  0  0
    4.9833    6.0572    0.0000 H   0  0  0  0  0  0  0  0  0  0  0  0
    1.9662    6.0572    0.0000 H   0  0  0  0  0  0  0  0  0  0  0  0
    5.7628    2.9094    0.0000 H   0  0  0  0  0  0  0  0  0  0  0  0
    4.1698    3.3903    0.0000 H   0  0  0  0  0  0  0  0  0  0  0  0
    4.3968    2.5434    0.0000 H   0  0  0  0  0  0  0  0  0  0  0  0
    5.2437    2.7703    0.0000 H   0  0  0  0  0  0  0  0  0  0  0  0
    6.6097    3.1363    0.0000 H   0  0  0  0  0  0  0  0  0  0  0  0
    6.3828    3.9832    0.0000 H   0  0  0  0  0  0  0  0  0  0  0  0
    5.7197    9.2835    0.0000 H   0  0  0  0  0  0  0  0  0  0  0  0
    1.2298    9.2835    0.0000 H   0  0  0  0  0  0  0  0  0  0  0  0
    6.5788    6.5359    0.0000 H   0  0  0  0  0  0  0  0  0  0  0  0
    6.9495    8.1599    0.0000 H   0  0  0  0  0  0  0  0  0  0  0  0
    0.0000    8.1600    0.0000 H   0  0  0  0  0  0  0  0  0  0  0  0
  2 12  1  0  0  0  0
  2 13  1  0  0  0  0
  3 21  1  0  0  0  0
  4  8  1  0  0  0  0
  4 16  1  0  0  0  0
  4 17  1  0  0  0  0
  4 31  1  0  0  0  0
  5  6  1  0  0  0  0
  5  9  1  0  0  0  0
  5 10  1  0  0  0  0
  5 24  1  0  0  0  0
  6  7  1  0  0  0  0
  6 25  1  0  0  0  0
  6 26  1  0  0  0  0
  7  8  1  0  0  0  0
  7 27  1  0  0  0  0
  7 28  1  0  0  0  0
  8 29  1  0  0  0  0
  8 30  1  0  0  0  0
  9 11  1  0  0  0  0
  9 14  2  0  0  0  0
 10 12  2  0  0  0  0
 10 15  1  0  0  0  0
 11 13  1  0  0  0  0
 11 18  2  0  0  0  0
 12 19  1  0  0  0  0
 13 32  1  0  0  0  0
 13 33  1  0  0  0  0
 14 20  1  0  0  0  0
 14 34  1  0  0  0  0
 15 21  2  0  0  0  0
 15 35  1  0  0  0  0
 16 36  1  0  0  0  0
 16 40  1  0  0  0  0
 16 41  1  0  0  0  0
 17 37  1  0  0  0  0
 17 38  1  0  0  0  0
 17 39  1  0  0  0  0
 18 22  1  0  0  0  0
 18 42  1  0  0  0  0
 19 23  2  0  0  0  0
 19 43  1  0  0  0  0
 20 22  2  0  0  0  0
 20 44  1  0  0  0  0
 21 23  1  0  0  0  0
 22 45  1  0  0  0  0
 23 46  1  0  0  0  0
M  CHG  2   1  -1   4   1
M  END
> <PUBCHEM_COMPOUND_CID>
13317

> <PUBCHEM_COMPOUND_CANONICALIZED>
1

> <PUBCHEM_CACTVS_COMPLEXITY>
348

> <PUBCHEM_CACTVS_HBOND_ACCEPTOR>
3

> <PUBCHEM_CACTVS_HBOND_DONOR>
1

> <PUBCHEM_CACTVS_ROTATABLE_BOND>
4

> <PUBCHEM_CACTVS_SUBSKEYS>
AAADceB6AQBEAAAAAAAAAAAAAAAAAAAAAAAwYAAABIAAAAABQAAAHQQQAAAADQDFWAyyAYPAAAiAAiBCAAACAAAgCBAIiJgIAIgIICKgkRCEIAAgkAAoiAcQgMAOgAAAAAAUAAAAAAAAACgAAAAAAAAAAA==

> <PUBCHEM_IUPAC_OPENEYE_NAME>
3-(2-fluoro-6,11-dihydrobenzo[c][1]benzothiepin-11-yl)propyl-dimethyl-ammonium chloride

> <PUBCHEM_IUPAC_CAS_NAME>
3-(2-fluoro-6,11-dihydrobenzo[c][1]benzothiepin-11-yl)propyl-dimethylammonium chloride

> <PUBCHEM_IUPAC_NAME>
3-(2-fluoro-6,11-dihydrobenzo[c][1]benzothiepin-11-yl)propyl-dimethylazanium chloride

> <PUBCHEM_IUPAC_SYSTEMATIC_NAME>
3-(2-fluoranyl-6,11-dihydrobenzo[c][1]benzothiepin-11-yl)propyl-dimethyl-azanium chloride

> <PUBCHEM_IUPAC_TRADITIONAL_NAME>
3-(2-fluoro-6,11-dihydrobenzo[c][1]benzothiepin-11-yl)propyl-dimethyl-ammonium chloride

> <PUBCHEM_IUPAC_INCHI>
InChI=1S/C19H22FNS.ClH/c1-21(2)11-5-8-17-16-7-4-3-6-14(16)13-22-19-10-9-15(20)12-18(17)19;/h3-4,6-7,9-10,12,17H,5,8,11,13H2,1-2H3;1H

> <PUBCHEM_IUPAC_INCHIKEY>
NUZHVTZQUNKCSZ-UHFFFAOYSA-N

> <PUBCHEM_EXACT_MASS>
351.122377

> <PUBCHEM_MOLECULAR_FORMULA>
C19H23ClFNS

> <PUBCHEM_MOLECULAR_WEIGHT>
351.909023

> <PUBCHEM_OPENEYE_CAN_SMILES>
C[NH+](C)CCCC1C2=CC=CC=C2CSC3=C1C=C(C=C3)F.[Cl-]

> <PUBCHEM_OPENEYE_ISO_SMILES>
C[NH+](C)CCCC1C2=CC=CC=C2CSC3=C1C=C(C=C3)F.[Cl-]

> <PUBCHEM_CACTVS_TPSA>
29.7

> <PUBCHEM_MONOISOTOPIC_WEIGHT>
351.122377

> <PUBCHEM_TOTAL_CHARGE>
0

> <PUBCHEM_HEAVY_ATOM_COUNT>
23

> <PUBCHEM_ATOM_DEF_STEREO_COUNT>
0

> <PUBCHEM_ATOM_UDEF_STEREO_COUNT>
1

> <PUBCHEM_BOND_DEF_STEREO_COUNT>
0

> <PUBCHEM_BOND_UDEF_STEREO_COUNT>
0

> <PUBCHEM_ISOTOPIC_ATOM_COUNT>
0

> <PUBCHEM_COMPONENT_COUNT>
2

> <PUBCHEM_CACTVS_TAUTO_COUNT>
1

> <PUBCHEM_COORDINATE_TYPE>
1
5
255

> <PUBCHEM_BONDANNOTATIONS>
10  12  8
10  15  8
11  18  8
12  19  8
14  20  8
15  21  8
18  22  8
19  23  8
20  22  8
21  23  8
5  6  3
9  11  8
9  14  8

$$$$

