   Color/Form

     * FLAT NEEDLES FROM ALCOHOL-ETHER; PRISMS FROM WATER
     * Colorless crystals

   from [1]HSDB

   Taste
        Sweet/bitter
   from [2]HSDB

   Melting Point
        220-222 DEG C, DECOMP
   from [3]HSDB

   Dissociation Constants
        PK1= 1.99; PK2= 10.60
   from [4]HSDB

   Octanol/Water Partition Coefficient
        Log P = -2.54
   from [5]HSDB

   Solubilities
        IN 100 ML OF WATER: 127 G @ 0 DEG C; 162 G @ 25 DEG C; 206.7 G @
   50 DEG C; 239 G @ 65 DEG C; IN 1.5 ML ABSOLUTE ALCOHOL: 1 G @ 19 DEG C;
   INSOL IN ETHER, BUTANOL, ISOPROPANOL
   from [6]HSDB

   Spectral Properties

     * SPECIFIC OPTICAL ROTATION: -80.9 DEG @ 20 DEG C/D (WATER, 1%);
       SADTLER REF NUMBER: 1905 (IR, PRISM)
     * SPECIFIC OPTICAL ROTATION: -85.0 @ 23.4 DEG C/D (WATER, 1%); -52.6
       @ 20 DEG C/D (0.50 N HYDROCHLORIC ACID, 0.58%); -93.9 DEG @ 20 DEG
       C/D (0.6 N POTASSIUM HYDROXIDE, 2.4%)
     * IR: 21030 (Sadtler Research Laboratories IR Grating Collection)
     * UV: 6-52 (Organic Electronic Spectral Data, Phillips et al, John
       Wiley & Sons, New York)
     * NMR: 7565 (Sadtler Research Laboratories Spectral Collection)
     * MASS: 4037 (National Bureau of Standards EPA-NIH Mass Spectra Data
       Base, NSRDS-NBS-63)

   from [7]HSDB

   Other Chemical/Physical Properties

     * MASS: 4037 (National Bureau of Standards EPA-NIH Mass Spectra Data
       Base, NSRDS-NBS-63) /Proline (d)/
     * MASS: 4037 (National Bureau of Standards EPA-NIH Mass Spectra Data
       Base, NSRDS-NBS-63) /Proline (dl)/

   from [8]HSDB

   Computed Properties
   Molecular Weight                  115.13046 [g/mol]
   Molecular Formula                 C[5]H[9]NO[2]
   XLogP3                            -2.5
   H-Bond Donor                      2
   H-Bond Acceptor                   3
   Rotatable Bond Count              1
   Exact Mass                        115.063329
   MonoIsotopic Mass                 115.063329
   Topological Polar Surface Area    49.3
   Heavy Atom Count                  8
   Formal Charge                     0
   Complexity                        103
   Isotope Atom Count                0
   Defined Atom Stereocenter Count   1
   Undefined Atom Stereocenter Count 0
   Defined Bond Stereocenter Count   0
   Undefined Bond Stereocenter Count 0
   Covalently-Bonded Unit Count      1
   Feature 3D Acceptor Count         2
   Feature 3D Donor Count            1
   Feature 3D Anion Count            1
   Feature 3D Cation Count           1
   Feature 3D Ring Count             1
   Effective Rotor Count             2
   Conformer Sampling RMSD           0.4
   CID Conformer Count               [9]4

References

   1. http://toxnet.nlm.nih.gov/cgi-bin/sis/search/r?dbs+hsdb:@term+@rn+@rel+147-85-3
   2. http://toxnet.nlm.nih.gov/cgi-bin/sis/search/r?dbs+hsdb:@term+@rn+@rel+147-85-3
   3. http://toxnet.nlm.nih.gov/cgi-bin/sis/search/r?dbs+hsdb:@term+@rn+@rel+147-85-3
   4. http://toxnet.nlm.nih.gov/cgi-bin/sis/search/r?dbs+hsdb:@term+@rn+@rel+147-85-3
   5. http://toxnet.nlm.nih.gov/cgi-bin/sis/search/r?dbs+hsdb:@term+@rn+@rel+147-85-3
   6. http://toxnet.nlm.nih.gov/cgi-bin/sis/search/r?dbs+hsdb:@term+@rn+@rel+147-85-3
   7. http://toxnet.nlm.nih.gov/cgi-bin/sis/search/r?dbs+hsdb:@term+@rn+@rel+147-85-3
   8. http://toxnet.nlm.nih.gov/cgi-bin/sis/search/r?dbs+hsdb:@term+@rn+@rel+147-85-3
   9. http://pubchem.ncbi.nlm.nih.gov/vw3d/vw3d.cgi?cid=145742
