   Color/Form

     * Yellowish liquid at ordinary temperature
     * Yellow liquid. [Note: A solid below 25 degrees F.]

   from [1]HSDB

   Odor

     * Weak aromatic
     * Weak, aromatic odor.

   from [2]HSDB

   Boiling Point
        222 deg C
   from [3]HSDB

   Melting Point
        -9.5 deg C (needles); -2.9 deg C (crystals)
   from [4]HSDB

   Density/Specific Gravity
        Sp gr: 1.1622 @ 19 deg C/15 deg C
   from [5]HSDB

   Heat of Combustion
        -11,290 Btu/lb= -6,272 cal/g= -262 x 10+5 J/kg
   from [6]HSDB

   Heat of Vaporization
        12,239.1 gcal/gmole
   from [7]HSDB

   Octanol/Water Partition Coefficient
        log Kow= 2.30
   from [8]HSDB

   Solubilities

     * Sol in alcohol, benzene, petroleum ether
     * SOL IN CHLOROFORM
     * Soluble in carbon tetrachloride; miscible in ethanol and ethyl
       ether
     * In water, 650 mg/L @ 30 deg C

   from [9]HSDB

   Spectral Properties

     * Index of refraction: 1.5472 @ 20 deg C/D
     * MAX ABSORPTION (ALCOHOL): 259 NM (LOG E = 3.72); SADTLER REFERENCE
       NUMBER: 4692 (IR, PRISM); 437 (IR, GRATING)
     * IR: 7426 (Coblentz Society Spectral Collection)
     * UV: 1292 (Sadtler Research Laboratories Spectral Collection)
     * NMR: 676 (Sadtler Research Laboratories Spectral Collection)
     * MASS: 72129 (NIST/EPA/MSDC Mass Spectral Database, 1990 version);
       86 (Aldermaston, Eight Peak Index of Mass Spectra, UK)

   from [10]HSDB

   Surface Tension
        In dynes/cm: 42.29, 41.76, and 40.50 @ 15, 19.5, 20, and 30 deg C
   respectively.
   from [11]HSDB

   Vapor Density
        4.73 (air = 1)
   from [12]HSDB

   Vapor Pressure
        0.188 mm Hg @ 25 deg C /Extrapolated/
   from [13]HSDB

   Other Chemical/Physical Properties

     * % IN SATURATED AIR: 0.21 @ 60 DEG C
     * Volatile with steam
     * Heat of fusion: 26.76 cal/g
     * Henry's Law constant = 1.25X10-5 atm-cu m/mole @ 25 deg C
     * Hydroxyl radical reaction rate constant = 0.7X10-12 cu
       cm/molecule-sec @ 25 deg C

   from [14]HSDB

   Computed Properties
   Molecular Weight                  137.13598 [g/mol]
   Molecular Formula                 C[7]H[7]NO[2]
   XLogP3                            2.3
   H-Bond Donor                      0
   H-Bond Acceptor                   2
   Rotatable Bond Count              0
   Exact Mass                        137.047678
   MonoIsotopic Mass                 137.047678
   Topological Polar Surface Area    45.8
   Heavy Atom Count                  10
   Formal Charge                     0
   Complexity                        130
   Isotope Atom Count                0
   Defined Atom Stereocenter Count   0
   Undefined Atom Stereocenter Count 0
   Defined Bond Stereocenter Count   0
   Undefined Bond Stereocenter Count 0
   Covalently-Bonded Unit Count      1
   Feature 3D Acceptor Count         2
   Feature 3D Anion Count            1
   Feature 3D Ring Count             1
   Effective Rotor Count             1
   Conformer Sampling RMSD           0.4
   CID Conformer Count               [15]1

References

   1. http://toxnet.nlm.nih.gov/cgi-bin/sis/search/r?dbs+hsdb:@term+@rn+@rel+88-72-2
   2. http://toxnet.nlm.nih.gov/cgi-bin/sis/search/r?dbs+hsdb:@term+@rn+@rel+88-72-2
   3. http://toxnet.nlm.nih.gov/cgi-bin/sis/search/r?dbs+hsdb:@term+@rn+@rel+88-72-2
   4. http://toxnet.nlm.nih.gov/cgi-bin/sis/search/r?dbs+hsdb:@term+@rn+@rel+88-72-2
   5. http://toxnet.nlm.nih.gov/cgi-bin/sis/search/r?dbs+hsdb:@term+@rn+@rel+88-72-2
   6. http://toxnet.nlm.nih.gov/cgi-bin/sis/search/r?dbs+hsdb:@term+@rn+@rel+88-72-2
   7. http://toxnet.nlm.nih.gov/cgi-bin/sis/search/r?dbs+hsdb:@term+@rn+@rel+88-72-2
   8. http://toxnet.nlm.nih.gov/cgi-bin/sis/search/r?dbs+hsdb:@term+@rn+@rel+88-72-2
   9. http://toxnet.nlm.nih.gov/cgi-bin/sis/search/r?dbs+hsdb:@term+@rn+@rel+88-72-2
  10. http://toxnet.nlm.nih.gov/cgi-bin/sis/search/r?dbs+hsdb:@term+@rn+@rel+88-72-2
  11. http://toxnet.nlm.nih.gov/cgi-bin/sis/search/r?dbs+hsdb:@term+@rn+@rel+88-72-2
  12. http://toxnet.nlm.nih.gov/cgi-bin/sis/search/r?dbs+hsdb:@term+@rn+@rel+88-72-2
  13. http://toxnet.nlm.nih.gov/cgi-bin/sis/search/r?dbs+hsdb:@term+@rn+@rel+88-72-2
  14. http://toxnet.nlm.nih.gov/cgi-bin/sis/search/r?dbs+hsdb:@term+@rn+@rel+88-72-2
  15. http://pubchem.ncbi.nlm.nih.gov/vw3d/vw3d.cgi?cid=6944
