   Color/Form
        Colorless, lustrous crystals
   from [1]HSDB

   Odor
        Floral odor
   from [2]HSDB

   Taste
        BITTERSWEET TASTE
   from [3]HSDB

   Boiling Point
        263 deg C @ 760 mm Hg
   from [4]HSDB

   Melting Point
        37 deg C
   from [5]HSDB

   Octanol/Water Partition Coefficient
        log Kow = 1.05
   from [6]HSDB

   Solubilities

     * Soluble in 500 parts water; freely soluble in alcohol, ether
     * Soluble in acetone
     * SOMEWHAT SOLUBLE IN PROPYLENE GLYCOL
     * Solubility in water: 3.5X10+3 mg/l

   from [7]HSDB

   Spectral Properties

     * MAX ABSORPTION (ALCOHOL): 275 NM (LOG E= 3.8); 310 NM (LOG E= 3.9);
       SADTLER REFERENCE NUMBER: 3885 (IR, PRISM)
     * UV: 6719 (Sadtler Research Laboratories Spectral Collection)
     * 1H NMR: SAD 6719 (Sadtler Research Laboratories Spectral
       Collection)
     * IR: SADG 10326 (Sadtler Research Laboratories IR Grating
       Collection)
     * MS: NIST 70331 (NIST/EPA/MCDC Mass Spectral Database 1990 version)

   from [8]HSDB

   Vapor Pressure
        1X10-2 mm Hg @ 25 deg C (extrapolated)
   from [9]HSDB

   Other Chemical/Physical Properties

     * CONGEALING POINT: 35 DEG C MIN; ASSAY: 99.0% MIN
     * Vapor presssure = 1 mm Hg @ 87 deg C

   from [10]HSDB

   Computed Properties
   Molecular Weight                  150.13144 [g/mol]
   Molecular Formula                 C[8]H[6]O[3]
   XLogP3                            1.1
   H-Bond Donor                      0
   H-Bond Acceptor                   3
   Rotatable Bond Count              1
   Exact Mass                        150.031694
   MonoIsotopic Mass                 150.031694
   Topological Polar Surface Area    35.5
   Heavy Atom Count                  11
   Formal Charge                     0
   Complexity                        157
   Isotope Atom Count                0
   Defined Atom Stereocenter Count   0
   Undefined Atom Stereocenter Count 0
   Defined Bond Stereocenter Count   0
   Undefined Bond Stereocenter Count 0
   Covalently-Bonded Unit Count      1
   Feature 3D Acceptor Count         3
   Feature 3D Ring Count             2
   Effective Rotor Count             1.6
   Conformer Sampling RMSD           0.4
   CID Conformer Count               [11]2

References

   1. http://toxnet.nlm.nih.gov/cgi-bin/sis/search/r?dbs+hsdb:@term+@rn+@rel+120-57-0
   2. http://toxnet.nlm.nih.gov/cgi-bin/sis/search/r?dbs+hsdb:@term+@rn+@rel+120-57-0
   3. http://toxnet.nlm.nih.gov/cgi-bin/sis/search/r?dbs+hsdb:@term+@rn+@rel+120-57-0
   4. http://toxnet.nlm.nih.gov/cgi-bin/sis/search/r?dbs+hsdb:@term+@rn+@rel+120-57-0
   5. http://toxnet.nlm.nih.gov/cgi-bin/sis/search/r?dbs+hsdb:@term+@rn+@rel+120-57-0
   6. http://toxnet.nlm.nih.gov/cgi-bin/sis/search/r?dbs+hsdb:@term+@rn+@rel+120-57-0
   7. http://toxnet.nlm.nih.gov/cgi-bin/sis/search/r?dbs+hsdb:@term+@rn+@rel+120-57-0
   8. http://toxnet.nlm.nih.gov/cgi-bin/sis/search/r?dbs+hsdb:@term+@rn+@rel+120-57-0
   9. http://toxnet.nlm.nih.gov/cgi-bin/sis/search/r?dbs+hsdb:@term+@rn+@rel+120-57-0
  10. http://toxnet.nlm.nih.gov/cgi-bin/sis/search/r?dbs+hsdb:@term+@rn+@rel+120-57-0
  11. http://pubchem.ncbi.nlm.nih.gov/vw3d/vw3d.cgi?cid=8438
