10172
  -OEChem-06261204212D

 33 36  0     1  0  0  0  0  0999 V2000
    3.6388    2.4800    0.0000 O   0  0  0  0  0  0  0  0  0  0  0  0
    2.0000    1.8108    0.0000 O   0  0  0  0  0  0  0  0  0  0  0  0
    6.4341   -0.4153    0.0000 N   0  0  3  0  0  0  0  0  0  0  0  0
    5.5332   -0.8492    0.0000 C   0  0  0  0  0  0  0  0  0  0  0  0
    7.0811   -1.1633    0.0000 C   0  0  0  0  0  0  0  0  0  0  0  0
    6.6567    0.5596    0.0000 C   0  0  0  0  0  0  0  0  0  0  0  0
    6.6055   -2.0304    0.0000 C   0  0  0  0  0  0  0  0  0  0  0  0
    5.6270   -1.8866    0.0000 C   0  0  0  0  0  0  0  0  0  0  0  0
    4.6322   -0.4153    0.0000 C   0  0  0  0  0  0  0  0  0  0  0  0
    6.0332    1.3414    0.0000 C   0  0  0  0  0  0  0  0  0  0  0  0
    4.4097    0.5596    0.0000 C   0  0  0  0  0  0  0  0  0  0  0  0
    5.0332    1.3414    0.0000 C   0  0  0  0  0  0  0  0  0  0  0  0
    3.3774    0.6990    0.0000 C   0  0  0  0  0  0  0  0  0  0  0  0
    4.6676    2.3168    0.0000 C   0  0  0  0  0  0  0  0  0  0  0  0
    4.7709   -2.4800    0.0000 C   0  0  0  0  0  0  0  0  0  0  0  0
    3.7626   -0.9888    0.0000 C   0  0  0  0  0  0  0  0  0  0  0  0
    3.8324   -2.0280    0.0000 C   0  0  0  0  0  0  0  0  0  0  0  0
    2.9894    1.6656    0.0000 C   0  0  0  0  0  0  0  0  0  0  0  0
    7.5856   -1.5237    0.0000 H   0  0  0  0  0  0  0  0  0  0  0  0
    7.4988   -0.7050    0.0000 H   0  0  0  0  0  0  0  0  0  0  0  0
    7.2153    0.2906    0.0000 H   0  0  0  0  0  0  0  0  0  0  0  0
    7.0432    1.0443    0.0000 H   0  0  0  0  0  0  0  0  0  0  0  0
    6.4434   -2.6288    0.0000 H   0  0  0  0  0  0  0  0  0  0  0  0
    7.1805   -2.2621    0.0000 H   0  0  0  0  0  0  0  0  0  0  0  0
    6.5918    1.6104    0.0000 H   0  0  0  0  0  0  0  0  0  0  0  0
    5.8952    1.9459    0.0000 H   0  0  0  0  0  0  0  0  0  0  0  0
    2.7710    0.5699    0.0000 H   0  0  0  0  0  0  0  0  0  0  0  0
    3.4008    0.0794    0.0000 H   0  0  0  0  0  0  0  0  0  0  0  0
    5.2768    2.4318    0.0000 H   0  0  0  0  0  0  0  0  0  0  0  0
    4.6585    2.9367    0.0000 H   0  0  0  0  0  0  0  0  0  0  0  0
    4.8196   -3.0981    0.0000 H   0  0  0  0  0  0  0  0  0  0  0  0
    3.2072   -0.7133    0.0000 H   0  0  0  0  0  0  0  0  0  0  0  0
    3.3188   -2.3753    0.0000 H   0  0  0  0  0  0  0  0  0  0  0  0
  1 14  1  0  0  0  0
  1 18  1  0  0  0  0
  2 18  2  0  0  0  0
  3  4  1  0  0  0  0
  3  5  1  0  0  0  0
  3  6  1  0  0  0  0
  4  8  2  0  0  0  0
  4  9  1  0  0  0  0
  5  7  1  0  0  0  0
  5 19  1  0  0  0  0
  5 20  1  0  0  0  0
  6 10  1  0  0  0  0
  6 21  1  0  0  0  0
  6 22  1  0  0  0  0
  7  8  1  0  0  0  0
  7 23  1  0  0  0  0
  7 24  1  0  0  0  0
  8 15  1  0  0  0  0
  9 11  1  0  0  0  0
  9 16  2  0  0  0  0
 10 12  1  0  0  0  0
 10 25  1  0  0  0  0
 10 26  1  0  0  0  0
 11 12  2  0  0  0  0
 11 13  1  0  0  0  0
 12 14  1  0  0  0  0
 13 18  1  0  0  0  0
 13 27  1  0  0  0  0
 13 28  1  0  0  0  0
 14 29  1  0  0  0  0
 14 30  1  0  0  0  0
 15 17  2  0  0  0  0
 15 31  1  0  0  0  0
 16 17  1  0  0  0  0
 16 32  1  0  0  0  0
 17 33  1  0  0  0  0
M  END
> <PUBCHEM_COMPOUND_CID>
10172

> <PUBCHEM_COMPOUND_CANONICALIZED>
1

> <PUBCHEM_CACTVS_COMPLEXITY>
415

> <PUBCHEM_CACTVS_HBOND_ACCEPTOR>
3

> <PUBCHEM_CACTVS_HBOND_DONOR>
0

> <PUBCHEM_CACTVS_ROTATABLE_BOND>
0

> <PUBCHEM_CACTVS_SUBSKEYS>
AAADccByMAAAAAAAAAAAAAAAAAAAAWAAAAAwQAAABAAAAFiBAAAAHgAAAAAADAjhmAYwyIMABACIAiTSSACCAAAhAAAIiAEIRIgIJDLAsZGGMAhkwADI6Ae42eOeAAACAAACAAAAAAQAAAQAAAAAAAAAAA==

> <PUBCHEM_IUPAC_INCHI>
InChI=1S/C15H15NO2/c17-14-8-13-11(9-18-14)5-7-16-6-4-10-2-1-3-12(13)15(10)16/h1-3H,4-9H2

> <PUBCHEM_IUPAC_INCHIKEY>
CXZASPBCKWVXBP-UHFFFAOYSA-N

> <PUBCHEM_XLOGP3_AA>
1.4

> <PUBCHEM_EXACT_MASS>
241.110279

> <PUBCHEM_MOLECULAR_FORMULA>
C15H15NO2

> <PUBCHEM_MOLECULAR_WEIGHT>
241.2851

> <PUBCHEM_OPENEYE_CAN_SMILES>
C1CN2CCC3=CC=CC(=C32)C4=C1COC(=O)C4

> <PUBCHEM_OPENEYE_ISO_SMILES>
C1CN2CCC3=CC=CC(=C32)C4=C1COC(=O)C4

> <PUBCHEM_CACTVS_TPSA>
29.5

> <PUBCHEM_MONOISOTOPIC_WEIGHT>
241.110279

> <PUBCHEM_TOTAL_CHARGE>
0

> <PUBCHEM_HEAVY_ATOM_COUNT>
18

> <PUBCHEM_ATOM_DEF_STEREO_COUNT>
0

> <PUBCHEM_ATOM_UDEF_STEREO_COUNT>
0

> <PUBCHEM_BOND_DEF_STEREO_COUNT>
0

> <PUBCHEM_BOND_UDEF_STEREO_COUNT>
0

> <PUBCHEM_ISOTOPIC_ATOM_COUNT>
0

> <PUBCHEM_COMPONENT_COUNT>
1

> <PUBCHEM_CACTVS_TAUTO_COUNT>
2

> <PUBCHEM_COORDINATE_TYPE>
1
5
255

> <PUBCHEM_BONDANNOTATIONS>
15  17  8
16  17  8
4  8  8
4  9  8
8  15  8
9  16  8

$$$$

