   Color/Form

     * Orthorhombic plates, tablets from ethyl acetate.
     * White, crystals or crystalline powder
     * White crystals from methanol or crystalline powder or prisms from
       ethyl acetate

   from [1]HSDB

   Odor
        Odorless
   from [2]HSDB

   Taste
        Bitter
   from [3]HSDB

   Boiling Point
        272-274 deg C at 12 mm Hg
   from [4]HSDB

   Melting Point
        173 deg C
   from [5]HSDB

   Density/Specific Gravity
        1.56 g/cu m at 25 deg C
   from [6]HSDB

   Dissociation Constants
        pKa = 7.95 [Avdeef A et al; J Med Chem 39: 4377-4381 (1996)]
   [7]PubMed Abstract
   from [8]HSDB

   Octanol/Water Partition Coefficient
        log Kow = 1.58 [Avdeef A et al; J Med Chem 39: 4377-4381 (1996)]
   [9]PubMed Abstract
   from [10]HSDB

   Solubilities

     * 1 g dissolves in: 1.5 mL chloroform; 31 mL alcohol; 100 mL ether;
       1,700 mL water
     * Sol in alkalies; slightly sol in ammonia or sodium carbonate
       solution
     * Very soluble in benzene
     * In water, 60 mg/L at 25 deg C

   from [11]HSDB

   Spectral Properties

     * Specific optical rotation: -166 deg @ 25 deg C/D (concn= 1.49% in
       methanol)
     * Intense mass spectral peaks: 162 m/z, 268 m/z, 310 m/z, 327 m/z,
       369 m/z

   from [12]HSDB

   Vapor Pressure
        7.59X10-10 mm Hg at 25 deg C
   from [13]HSDB

   Other Chemical/Physical Properties

     * pH of 0.01 molar solution 5.2 /Diacetylmorphine hydrochloride/
     * Monohydrate, fine crystals; mp 243-244 deg C; specific optical
       rotation: -156 deg @ 24 deg C/D (concn= 1.044); soluble in 2 parts
       water, 11 parts alcohol; insol in ether /Diacetylmorphine
       hydrochloride/
     * Fine crystals, mp 243-244 deg C. Specific optical rotation: -156
       deg at 24 deg C/D (concn = 1.044). Sol in 2 parts water, 11 parts
       alcohol. Insol in ether.
     * Needles, mp 242 deg C; Specific optical rotation: -197 deg at 20
       deg C/D (c= 0.896) /from methyl iodide/
     * Henry's Law constant = 6.15X10-13 atm-cu m/mol at 25 deg C (est)
     * Hydroxyl radical reaction rate constant = 2.30X10-10 cu
       cm/molec-sec at 25 deg C (est)

   from [14]HSDB

   Computed Properties
   Molecular Weight                  369.41102 [g/mol]
   Molecular Formula                 C[21]H[23]NO[5]
   XLogP3                            1.5
   H-Bond Donor                      0
   H-Bond Acceptor                   6
   Rotatable Bond Count              4
   Exact Mass                        369.157623
   MonoIsotopic Mass                 369.157623
   Topological Polar Surface Area    65.1
   Heavy Atom Count                  27
   Formal Charge                     0
   Complexity                        692
   Isotope Atom Count                0
   Defined Atom Stereocenter Count   5
   Undefined Atom Stereocenter Count 0
   Defined Bond Stereocenter Count   0
   Undefined Bond Stereocenter Count 0
   Covalently-Bonded Unit Count      1
   Feature 3D Acceptor Count         3
   Feature 3D Cation Count           1
   Feature 3D Ring Count             5
   Effective Rotor Count             5.2
   Conformer Sampling RMSD           0.8
   CID Conformer Count               [15]13

References

   1. http://toxnet.nlm.nih.gov/cgi-bin/sis/search/r?dbs+hsdb:@term+@rn+@rel+561-27-3
   2. http://toxnet.nlm.nih.gov/cgi-bin/sis/search/r?dbs+hsdb:@term+@rn+@rel+561-27-3
   3. http://toxnet.nlm.nih.gov/cgi-bin/sis/search/r?dbs+hsdb:@term+@rn+@rel+561-27-3
   4. http://toxnet.nlm.nih.gov/cgi-bin/sis/search/r?dbs+hsdb:@term+@rn+@rel+561-27-3
   5. http://toxnet.nlm.nih.gov/cgi-bin/sis/search/r?dbs+hsdb:@term+@rn+@rel+561-27-3
   6. http://toxnet.nlm.nih.gov/cgi-bin/sis/search/r?dbs+hsdb:@term+@rn+@rel+561-27-3
   7. http://www.ncbi.nlm.nih.gov/entrez/query.fcgi?cmd=Retrieve&db=pubmed&dopt=Abstract&list_uids=8893832
   8. http://toxnet.nlm.nih.gov/cgi-bin/sis/search/r?dbs+hsdb:@term+@rn+@rel+561-27-3
   9. http://www.ncbi.nlm.nih.gov/entrez/query.fcgi?cmd=Retrieve&db=pubmed&dopt=Abstract&list_uids=8893832
  10. http://toxnet.nlm.nih.gov/cgi-bin/sis/search/r?dbs+hsdb:@term+@rn+@rel+561-27-3
  11. http://toxnet.nlm.nih.gov/cgi-bin/sis/search/r?dbs+hsdb:@term+@rn+@rel+561-27-3
  12. http://toxnet.nlm.nih.gov/cgi-bin/sis/search/r?dbs+hsdb:@term+@rn+@rel+561-27-3
  13. http://toxnet.nlm.nih.gov/cgi-bin/sis/search/r?dbs+hsdb:@term+@rn+@rel+561-27-3
  14. http://toxnet.nlm.nih.gov/cgi-bin/sis/search/r?dbs+hsdb:@term+@rn+@rel+561-27-3
  15. http://pubchem.ncbi.nlm.nih.gov/vw3d/vw3d.cgi?cid=5462328
