12113
  -OEChem-06261206332D

 46 46  0     0  0  0  0  0  0999 V2000
    9.2191    5.5785    0.0000 Cl  0  0  0  0  0  0  0  0  0  0  0  0
    1.4860    2.1200    0.0000 O   0  0  0  0  0  0  0  0  0  0  0  0
    5.8162    9.6200    0.0000 O   0  0  0  0  0  0  0  0  0  0  0  0
    1.4860    6.1200    0.0000 N   0  0  0  0  0  0  0  0  0  0  0  0
    2.3521    7.6200    0.0000 N   0  0  0  0  0  0  0  0  0  0  0  0
    1.4860    5.1200    0.0000 C   0  0  0  0  0  0  0  0  0  0  0  0
    2.3521    6.6200    0.0000 C   0  0  0  0  0  0  0  0  0  0  0  0
    1.4860    3.1200    0.0000 C   0  0  0  0  0  0  0  0  0  0  0  0
    0.6200    4.6200    0.0000 C   0  0  0  0  0  0  0  0  0  0  0  0
    2.3521    4.6200    0.0000 C   0  0  0  0  0  0  0  0  0  0  0  0
    3.2181    8.1200    0.0000 C   0  0  0  0  0  0  0  0  0  0  0  0
    0.6200    3.6200    0.0000 C   0  0  0  0  0  0  0  0  0  0  0  0
    2.3521    3.6200    0.0000 C   0  0  0  0  0  0  0  0  0  0  0  0
    4.9501    9.1200    0.0000 C   0  0  0  0  0  0  0  0  0  0  0  0
    3.2181    9.1200    0.0000 C   0  0  0  0  0  0  0  0  0  0  0  0
    4.0841    7.6200    0.0000 C   0  0  0  0  0  0  0  0  0  0  0  0
    4.0841    9.6200    0.0000 C   0  0  0  0  0  0  0  0  0  0  0  0
    4.9501    8.1200    0.0000 C   0  0  0  0  0  0  0  0  0  0  0  0
    3.2181    6.1200    0.0000 C   0  0  0  0  0  0  0  0  0  0  0  0
    0.6200    1.6200    0.0000 C   0  0  0  0  0  0  0  0  0  0  0  0
    5.8162   10.6200    0.0000 C   0  0  0  0  0  0  0  0  0  0  0  0
    0.6200    0.6200    0.0000 C   0  0  0  0  0  0  0  0  0  0  0  0
    6.6822   11.1200    0.0000 C   0  0  0  0  0  0  0  0  0  0  0  0
    0.9491    6.4300    0.0000 H   0  0  0  0  0  0  0  0  0  0  0  0
    0.0831    4.9300    0.0000 H   0  0  0  0  0  0  0  0  0  0  0  0
    2.8890    4.9300    0.0000 H   0  0  0  0  0  0  0  0  0  0  0  0
    0.0831    3.3100    0.0000 H   0  0  0  0  0  0  0  0  0  0  0  0
    2.8890    3.3100    0.0000 H   0  0  0  0  0  0  0  0  0  0  0  0
    2.6811    9.4300    0.0000 H   0  0  0  0  0  0  0  0  0  0  0  0
    4.0841    7.0000    0.0000 H   0  0  0  0  0  0  0  0  0  0  0  0
    4.0841   10.2400    0.0000 H   0  0  0  0  0  0  0  0  0  0  0  0
    5.4871    7.8100    0.0000 H   0  0  0  0  0  0  0  0  0  0  0  0
    2.9081    5.5831    0.0000 H   0  0  0  0  0  0  0  0  0  0  0  0
    3.7550    5.8100    0.0000 H   0  0  0  0  0  0  0  0  0  0  0  0
    3.5281    6.6569    0.0000 H   0  0  0  0  0  0  0  0  0  0  0  0
    0.4079    2.2026    0.0000 H   0  0  0  0  0  0  0  0  0  0  0  0
    0.0094    1.5123    0.0000 H   0  0  0  0  0  0  0  0  0  0  0  0
    5.6041   11.2026    0.0000 H   0  0  0  0  0  0  0  0  0  0  0  0
    5.2056   10.5123    0.0000 H   0  0  0  0  0  0  0  0  0  0  0  0
    0.0000    0.6200    0.0000 H   0  0  0  0  0  0  0  0  0  0  0  0
    0.6200    0.0000    0.0000 H   0  0  0  0  0  0  0  0  0  0  0  0
    1.2400    0.6200    0.0000 H   0  0  0  0  0  0  0  0  0  0  0  0
    6.9922   10.5831    0.0000 H   0  0  0  0  0  0  0  0  0  0  0  0
    7.2191   11.4300    0.0000 H   0  0  0  0  0  0  0  0  0  0  0  0
    6.3722   11.6569    0.0000 H   0  0  0  0  0  0  0  0  0  0  0  0
   10.2191    5.5785    0.0000 H   0  0  0  0  0  0  0  0  0  0  0  0
  1 46  1  0  0  0  0
  2  8  1  0  0  0  0
  2 20  1  0  0  0  0
  3 14  1  0  0  0  0
  3 21  1  0  0  0  0
  4  6  1  0  0  0  0
  4  7  1  0  0  0  0
  4 24  1  0  0  0  0
  5  7  2  0  0  0  0
  5 11  1  0  0  0  0
  6  9  2  0  0  0  0
  6 10  1  0  0  0  0
  7 19  1  0  0  0  0
  8 12  2  0  0  0  0
  8 13  1  0  0  0  0
  9 12  1  0  0  0  0
  9 25  1  0  0  0  0
 10 13  2  0  0  0  0
 10 26  1  0  0  0  0
 11 15  2  0  0  0  0
 11 16  1  0  0  0  0
 12 27  1  0  0  0  0
 13 28  1  0  0  0  0
 14 17  2  0  0  0  0
 14 18  1  0  0  0  0
 15 17  1  0  0  0  0
 15 29  1  0  0  0  0
 16 18  2  0  0  0  0
 16 30  1  0  0  0  0
 17 31  1  0  0  0  0
 18 32  1  0  0  0  0
 19 33  1  0  0  0  0
 19 34  1  0  0  0  0
 19 35  1  0  0  0  0
 20 22  1  0  0  0  0
 20 36  1  0  0  0  0
 20 37  1  0  0  0  0
 21 23  1  0  0  0  0
 21 38  1  0  0  0  0
 21 39  1  0  0  0  0
 22 40  1  0  0  0  0
 22 41  1  0  0  0  0
 22 42  1  0  0  0  0
 23 43  1  0  0  0  0
 23 44  1  0  0  0  0
 23 45  1  0  0  0  0
M  END
> <PUBCHEM_COMPOUND_CID>
12113

> <PUBCHEM_COMPOUND_CANONICALIZED>
1

> <PUBCHEM_CACTVS_COMPLEXITY>
330

> <PUBCHEM_CACTVS_HBOND_ACCEPTOR>
3

> <PUBCHEM_CACTVS_HBOND_DONOR>
2

> <PUBCHEM_CACTVS_ROTATABLE_BOND>
7

> <PUBCHEM_CACTVS_SUBSKEYS>
AAADceB7MAAEAAAAAAAAAAAAAAAAAAAAAAAwYAAAAAAAAAABQAAAHgAQAAAACAyhkAIzxoLABACgACZiZACCCAEhIgAJiAAWbIgMJiLEuZuGOCjk0BHI6AewQAAAAEAAAAAAAAAAgAAAAAAAAAAAAAAAAA==

> <PUBCHEM_IUPAC_OPENEYE_NAME>
N,N'-bis(4-ethoxyphenyl)acetamidine hydrochloride

> <PUBCHEM_IUPAC_CAS_NAME>
N,N'-bis(4-ethoxyphenyl)ethanimidamide hydrochloride

> <PUBCHEM_IUPAC_NAME>
N,N'-bis(4-ethoxyphenyl)ethanimidamide hydrochloride

> <PUBCHEM_IUPAC_SYSTEMATIC_NAME>
N,N'-bis(4-ethoxyphenyl)ethanimidamide hydrochloride

> <PUBCHEM_IUPAC_TRADITIONAL_NAME>
N,N'-bis(p-phenetyl)acetamidine hydrochloride

> <PUBCHEM_IUPAC_INCHI>
InChI=1S/C18H22N2O2.ClH/c1-4-21-17-10-6-15(7-11-17)19-14(3)20-16-8-12-18(13-9-16)22-5-2;/h6-13H,4-5H2,1-3H3,(H,19,20);1H

> <PUBCHEM_IUPAC_INCHIKEY>
RRRKUSYYBYVFMC-UHFFFAOYSA-N

> <PUBCHEM_EXACT_MASS>
334.144806

> <PUBCHEM_MOLECULAR_FORMULA>
C18H23ClN2O2

> <PUBCHEM_MOLECULAR_WEIGHT>
334.84042

> <PUBCHEM_OPENEYE_CAN_SMILES>
CCOC1=CC=C(C=C1)NC(=NC2=CC=C(C=C2)OCC)C.Cl

> <PUBCHEM_OPENEYE_ISO_SMILES>
CCOC1=CC=C(C=C1)NC(=NC2=CC=C(C=C2)OCC)C.Cl

> <PUBCHEM_CACTVS_TPSA>
42.8

> <PUBCHEM_MONOISOTOPIC_WEIGHT>
334.144806

> <PUBCHEM_TOTAL_CHARGE>
0

> <PUBCHEM_HEAVY_ATOM_COUNT>
23

> <PUBCHEM_ATOM_DEF_STEREO_COUNT>
0

> <PUBCHEM_ATOM_UDEF_STEREO_COUNT>
0

> <PUBCHEM_BOND_DEF_STEREO_COUNT>
0

> <PUBCHEM_BOND_UDEF_STEREO_COUNT>
0

> <PUBCHEM_ISOTOPIC_ATOM_COUNT>
0

> <PUBCHEM_COMPONENT_COUNT>
2

> <PUBCHEM_CACTVS_TAUTO_COUNT>
2

> <PUBCHEM_COORDINATE_TYPE>
1
5
255

> <PUBCHEM_BONDANNOTATIONS>
10  13  8
11  15  8
11  16  8
14  17  8
14  18  8
15  17  8
16  18  8
6  10  8
6  9  8
8  12  8
8  13  8
9  12  8

$$$$

