17395705
  -OEChem-06241222512D

 37 39  0     0  0  0  0  0  0999 V2000
    3.5471    1.2068    0.0000 S   0  0  0  0  0  0  0  0  0  0  0  0
    3.6750   -1.4668    0.0000 O   0  0  0  0  0  0  0  0  0  0  0  0
    5.4439    2.9668    0.0000 N   0  0  0  0  0  0  0  0  0  0  0  0
    3.8258    2.9668    0.0000 N   0  0  0  0  0  0  0  0  0  0  0  0
    5.1349    2.0158    0.0000 N   0  0  0  0  0  0  0  0  0  0  0  0
    2.3660   -0.5158    0.0000 N   0  0  0  0  0  0  0  0  0  0  0  0
    4.6349    4.5546    0.0000 C   0  0  0  0  0  0  0  0  0  0  0  0
    4.6349    3.5546    0.0000 C   0  0  0  0  0  0  0  0  0  0  0  0
    3.7688    5.0546    0.0000 C   0  0  0  0  0  0  0  0  0  0  0  0
    5.5009    5.0546    0.0000 C   0  0  0  0  0  0  0  0  0  0  0  0
    4.1349    2.0158    0.0000 C   0  0  0  0  0  0  0  0  0  0  0  0
    3.9538    0.2932    0.0000 C   0  0  0  0  0  0  0  0  0  0  0  0
    2.8660   -2.0546    0.0000 C   0  0  0  0  0  0  0  0  0  0  0  0
    3.3660   -0.5158    0.0000 C   0  0  0  0  0  0  0  0  0  0  0  0
    2.8660   -3.0546    0.0000 C   0  0  0  0  0  0  0  0  0  0  0  0
    2.0570   -1.4668    0.0000 C   0  0  0  0  0  0  0  0  0  0  0  0
    2.0000   -3.5546    0.0000 C   0  0  0  0  0  0  0  0  0  0  0  0
    3.7320   -3.5546    0.0000 C   0  0  0  0  0  0  0  0  0  0  0  0
    2.0000   -4.5546    0.0000 C   0  0  0  0  0  0  0  0  0  0  0  0
    3.7320   -4.5546    0.0000 C   0  0  0  0  0  0  0  0  0  0  0  0
    2.8660   -5.0546    0.0000 C   0  0  0  0  0  0  0  0  0  0  0  0
    4.0979    4.2446    0.0000 H   0  0  0  0  0  0  0  0  0  0  0  0
    5.8109    4.5177    0.0000 H   0  0  0  0  0  0  0  0  0  0  0  0
    6.0378    5.3646    0.0000 H   0  0  0  0  0  0  0  0  0  0  0  0
    4.0788    5.5916    0.0000 H   0  0  0  0  0  0  0  0  0  0  0  0
    3.2319    5.3646    0.0000 H   0  0  0  0  0  0  0  0  0  0  0  0
    3.4588    4.5177    0.0000 H   0  0  0  0  0  0  0  0  0  0  0  0
    5.1909    5.5916    0.0000 H   0  0  0  0  0  0  0  0  0  0  0  0
    6.0335    3.1584    0.0000 H   0  0  0  0  0  0  0  0  0  0  0  0
    4.3845   -0.1528    0.0000 H   0  0  0  0  0  0  0  0  0  0  0  0
    4.4678    0.6399    0.0000 H   0  0  0  0  0  0  0  0  0  0  0  0
    1.4674   -1.6584    0.0000 H   0  0  0  0  0  0  0  0  0  0  0  0
    1.4631   -3.2446    0.0000 H   0  0  0  0  0  0  0  0  0  0  0  0
    4.2690   -3.2446    0.0000 H   0  0  0  0  0  0  0  0  0  0  0  0
    1.4631   -4.8646    0.0000 H   0  0  0  0  0  0  0  0  0  0  0  0
    4.2690   -4.8646    0.0000 H   0  0  0  0  0  0  0  0  0  0  0  0
    2.8660   -5.6746    0.0000 H   0  0  0  0  0  0  0  0  0  0  0  0
  1 11  1  0  0  0  0
  1 12  1  0  0  0  0
  2 13  1  0  0  0  0
  2 14  1  0  0  0  0
  3  5  1  0  0  0  0
  3  8  1  0  0  0  0
  3 29  1  0  0  0  0
  4  8  2  0  0  0  0
  4 11  1  0  0  0  0
  5 11  2  0  0  0  0
  6 14  2  0  0  0  0
  6 16  1  0  0  0  0
  7  8  1  0  0  0  0
  7  9  1  0  0  0  0
  7 10  1  0  0  0  0
  7 22  1  0  0  0  0
  9 25  1  0  0  0  0
  9 26  1  0  0  0  0
  9 27  1  0  0  0  0
 10 23  1  0  0  0  0
 10 24  1  0  0  0  0
 10 28  1  0  0  0  0
 12 14  1  0  0  0  0
 12 30  1  0  0  0  0
 12 31  1  0  0  0  0
 13 15  1  0  0  0  0
 13 16  2  0  0  0  0
 15 17  2  0  0  0  0
 15 18  1  0  0  0  0
 16 32  1  0  0  0  0
 17 19  1  0  0  0  0
 17 33  1  0  0  0  0
 18 20  2  0  0  0  0
 18 34  1  0  0  0  0
 19 21  2  0  0  0  0
 19 35  1  0  0  0  0
 20 21  1  0  0  0  0
 20 36  1  0  0  0  0
 21 37  1  0  0  0  0
M  END
> <PUBCHEM_COMPOUND_CID>
17395705

> <PUBCHEM_COMPOUND_CANONICALIZED>
1

> <PUBCHEM_CACTVS_COMPLEXITY>
325

> <PUBCHEM_CACTVS_HBOND_ACCEPTOR>
5

> <PUBCHEM_CACTVS_HBOND_DONOR>
1

> <PUBCHEM_CACTVS_ROTATABLE_BOND>
5

> <PUBCHEM_CACTVS_SUBSKEYS>
AAADceBzoABAAAAAAAAAAAAAAAAAAWLAAAAwAAAAAAAAAAAB8AAAHgQYAAAADQTF2wS/lJZrFEiqArN3dAQS2Cv/QLAd+AG7SMiOLjLAvTmPOQCk3gPY6YeYyKCOAAAAAAAAAAAAAAAAAAAAAAAAAAAAAA==

> <PUBCHEM_IUPAC_OPENEYE_NAME>
2-[(5-isopropyl-1H-1,2,4-triazol-3-yl)sulfanylmethyl]-5-phenyl-oxazole

> <PUBCHEM_IUPAC_CAS_NAME>
5-phenyl-2-[[(5-propan-2-yl-1H-1,2,4-triazol-3-yl)thio]methyl]oxazole

> <PUBCHEM_IUPAC_NAME>
5-phenyl-2-[(5-propan-2-yl-1H-1,2,4-triazol-3-yl)sulfanylmethyl]-1,3-oxazole

> <PUBCHEM_IUPAC_SYSTEMATIC_NAME>
5-phenyl-2-[(5-propan-2-yl-1H-1,2,4-triazol-3-yl)sulfanylmethyl]-1,3-oxazole

> <PUBCHEM_IUPAC_TRADITIONAL_NAME>
2-[[(5-isopropyl-1H-1,2,4-triazol-3-yl)thio]methyl]-5-phenyl-oxazole

> <PUBCHEM_IUPAC_INCHI>
InChI=1S/C15H16N4OS/c1-10(2)14-17-15(19-18-14)21-9-13-16-8-12(20-13)11-6-4-3-5-7-11/h3-8,10H,9H2,1-2H3,(H,17,18,19)

> <PUBCHEM_IUPAC_INCHIKEY>
OYHGXYBOSUFHLW-UHFFFAOYSA-N

> <PUBCHEM_XLOGP3_AA>
3.6

> <PUBCHEM_EXACT_MASS>
300.104482

> <PUBCHEM_MOLECULAR_FORMULA>
C15H16N4OS

> <PUBCHEM_MOLECULAR_WEIGHT>
300.37874

> <PUBCHEM_OPENEYE_CAN_SMILES>
CC(C)C1=NC(=NN1)SCC2=NC=C(O2)C3=CC=CC=C3

> <PUBCHEM_OPENEYE_ISO_SMILES>
CC(C)C1=NC(=NN1)SCC2=NC=C(O2)C3=CC=CC=C3

> <PUBCHEM_CACTVS_TPSA>
92.9

> <PUBCHEM_MONOISOTOPIC_WEIGHT>
300.104482

> <PUBCHEM_TOTAL_CHARGE>
0

> <PUBCHEM_HEAVY_ATOM_COUNT>
21

> <PUBCHEM_ATOM_DEF_STEREO_COUNT>
0

> <PUBCHEM_ATOM_UDEF_STEREO_COUNT>
0

> <PUBCHEM_BOND_DEF_STEREO_COUNT>
0

> <PUBCHEM_BOND_UDEF_STEREO_COUNT>
0

> <PUBCHEM_ISOTOPIC_ATOM_COUNT>
0

> <PUBCHEM_COMPONENT_COUNT>
1

> <PUBCHEM_CACTVS_TAUTO_COUNT>
5

> <PUBCHEM_COORDINATE_TYPE>
1
5
255

> <PUBCHEM_BONDANNOTATIONS>
13  16  8
15  17  8
15  18  8
17  19  8
18  20  8
19  21  8
2  13  8
2  14  8
20  21  8
3  5  8
3  8  8
4  11  8
4  8  8
5  11  8
6  14  8
6  16  8

$$$$

