   Color/Form
        Cyrstalline, white solid
   from [1]HSDB

   Odor
        Odorless
   from [2]HSDB

   Melting Point
        Converted to anhydride at 90 deg C
   from [3]HSDB

   Corrosivity
        Non-corrosive to metals
   from [4]HSDB

   Density/Specific Gravity
        1.431
   from [5]HSDB

   Dissociation Constants
        pKa1 = 3.40; pKa2 = 6.7
   from [6]HSDB

   Octanol/Water Partition Coefficient
        log Kow = 1.91 [Reinert KH, Rodgers JH JR; Bull Environ Contam
   Toxicol 32: 557-64 (1984)] [7]PubMed Abstract
   from [8]HSDB

   Solubilities

     * Solubility at 20 deg C, g/100 g: acetone 7.0, benzene 0.01, dioxane
       7.6, ether 0.1, isopropanol 1.7, methanol 28.0, water 10.0
     * In water 100,000 mg/L at 20 deg C

   from [9]HSDB

   Spectral Properties
        Intense mass spectral peaks: 68 m/z (100%), 100 m/z (79%), 69 m/z
   (42%), 41 m/z (32%)
   from [10]HSDB

   Vapor Pressure
        1.57X10-10 mm Hg at 24 deg C
   from [11]HSDB

   Other Chemical/Physical Properties

     * Melting point: 144 deg C /Monohydrate/
     * WHEN HEATED RAPIDLY MELTS AT ABOUT 144 C, DECOMPOSING INTO
       ANHYDRIDE AND WATER
     * Henry's Law constant = 3.8X10-16 atm cu-m/mole at 24 deg C
     * Hydroxyl radical reaction rate constant = 2.3X10-11 cu cm/molec-sec
       at 25 deg C (est)

   from [12]HSDB

   Computed Properties
   Molecular Weight                  230.125659 [g/mol]
   Molecular Formula                 C[8]H[8]Na[2]O[5]
   H-Bond Donor                      0
   H-Bond Acceptor                   5
   Rotatable Bond Count              0
   Exact Mass                        230.016712
   MonoIsotopic Mass                 230.016712
   Topological Polar Surface Area    89.5
   Heavy Atom Count                  15
   Formal Charge                     0
   Complexity                        224
   Isotope Atom Count                0
   Defined Atom Stereocenter Count   0
   Undefined Atom Stereocenter Count 4
   Defined Bond Stereocenter Count   0
   Undefined Bond Stereocenter Count 0
   Covalently-Bonded Unit Count      3

References

   1. http://toxnet.nlm.nih.gov/cgi-bin/sis/search/r?dbs+hsdb:@term+@rn+@rel+145-73-3
   2. http://toxnet.nlm.nih.gov/cgi-bin/sis/search/r?dbs+hsdb:@term+@rn+@rel+145-73-3
   3. http://toxnet.nlm.nih.gov/cgi-bin/sis/search/r?dbs+hsdb:@term+@rn+@rel+145-73-3
   4. http://toxnet.nlm.nih.gov/cgi-bin/sis/search/r?dbs+hsdb:@term+@rn+@rel+145-73-3
   5. http://toxnet.nlm.nih.gov/cgi-bin/sis/search/r?dbs+hsdb:@term+@rn+@rel+145-73-3
   6. http://toxnet.nlm.nih.gov/cgi-bin/sis/search/r?dbs+hsdb:@term+@rn+@rel+145-73-3
   7. http://www.ncbi.nlm.nih.gov/entrez/query.fcgi?cmd=Retrieve&db=pubmed&dopt=Abstract&list_uids=6733302
   8. http://toxnet.nlm.nih.gov/cgi-bin/sis/search/r?dbs+hsdb:@term+@rn+@rel+145-73-3
   9. http://toxnet.nlm.nih.gov/cgi-bin/sis/search/r?dbs+hsdb:@term+@rn+@rel+145-73-3
  10. http://toxnet.nlm.nih.gov/cgi-bin/sis/search/r?dbs+hsdb:@term+@rn+@rel+145-73-3
  11. http://toxnet.nlm.nih.gov/cgi-bin/sis/search/r?dbs+hsdb:@term+@rn+@rel+145-73-3
  12. http://toxnet.nlm.nih.gov/cgi-bin/sis/search/r?dbs+hsdb:@term+@rn+@rel+145-73-3
