6093196
  -OEChem-07051213062D

 49 49  0     0  0  0  0  0  0999 V2000
    2.8660    3.7363    0.0000 S   0  0  0  0  0  0  0  0  0  0  0  0
    5.4641   -3.7637    0.0000 S   0  0  0  0  0  0  0  0  0  0  0  0
    8.1282    3.7604    0.0000 S   0  0  0  0  0  0  0  0  0  0  0  0
    2.0000    5.2363    0.0000 Na  0  3  0  0  0  0  0  0  0  0  0  0
    4.5981   -5.2637    0.0000 Na  0  3  0  0  0  0  0  0  0  0  0  0
    8.9884    5.2637    0.0000 Na  0  3  0  0  0  0  0  0  0  0  0  0
    2.8660    1.7363    0.0000 O   0  0  0  0  0  0  0  0  0  0  0  0
    2.0000    4.2363    0.0000 O   0  5  0  0  0  0  0  0  0  0  0  0
    3.3660    4.6023    0.0000 O   0  0  0  0  0  0  0  0  0  0  0  0
    2.3660    2.8702    0.0000 O   0  0  0  0  0  0  0  0  0  0  0  0
    5.4641   -4.7637    0.0000 O   0  5  0  0  0  0  0  0  0  0  0  0
    4.4641   -3.7637    0.0000 O   0  0  0  0  0  0  0  0  0  0  0  0
    6.4641   -3.7637    0.0000 O   0  0  0  0  0  0  0  0  0  0  0  0
    8.9923    4.2638    0.0000 O   0  5  0  0  0  0  0  0  0  0  0  0
    8.6315    2.8963    0.0000 O   0  0  0  0  0  0  0  0  0  0  0  0
    7.6249    4.6245    0.0000 O   0  0  0  0  0  0  0  0  0  0  0  0
    5.4641    0.2363    0.0000 N   0  0  0  0  0  0  0  0  0  0  0  0
    4.5981    0.7363    0.0000 N   0  0  0  0  0  0  0  0  0  0  0  0
    5.4641    2.2363    0.0000 C   0  0  0  0  0  0  0  0  0  0  0  0
    5.4641    3.2363    0.0000 C   0  0  0  0  0  0  0  0  0  0  0  0
    6.3301   -1.2637    0.0000 C   0  0  0  0  0  0  0  0  0  0  0  0
    4.5981    1.7363    0.0000 C   0  0  0  0  0  0  0  0  0  0  0  0
    6.3301   -2.2637    0.0000 C   0  0  0  0  0  0  0  0  0  0  0  0
    5.4641   -0.7637    0.0000 C   0  0  0  0  0  0  0  0  0  0  0  0
    3.7320    3.2363    0.0000 C   0  0  0  0  0  0  0  0  0  0  0  0
    5.4641   -2.7637    0.0000 C   0  0  0  0  0  0  0  0  0  0  0  0
    4.5981    3.7363    0.0000 C   0  0  0  0  0  0  0  0  0  0  0  0
    6.3580    3.7709    0.0000 C   0  0  0  0  0  0  0  0  0  0  0  0
    3.7320    2.2363    0.0000 C   0  0  0  0  0  0  0  0  0  0  0  0
    6.3580    1.7016    0.0000 C   0  0  0  0  0  0  0  0  0  0  0  0
    7.2641    3.2571    0.0000 C   0  0  0  0  0  0  0  0  0  0  0  0
    4.5981   -1.2637    0.0000 C   0  0  0  0  0  0  0  0  0  0  0  0
    7.2641    2.2154    0.0000 C   0  0  0  0  0  0  0  0  0  0  0  0
    4.5981   -2.2637    0.0000 C   0  0  0  0  0  0  0  0  0  0  0  0
    7.2241   -0.7291    0.0000 C   0  0  0  0  0  0  0  0  0  0  0  0
    7.2241   -2.7984    0.0000 C   0  0  0  0  0  0  0  0  0  0  0  0
    8.1301   -1.2429    0.0000 C   0  0  0  0  0  0  0  0  0  0  0  0
    8.1301   -2.2846    0.0000 C   0  0  0  0  0  0  0  0  0  0  0  0
    4.5981    4.3563    0.0000 H   0  0  0  0  0  0  0  0  0  0  0  0
    6.3509    4.3909    0.0000 H   0  0  0  0  0  0  0  0  0  0  0  0
    6.3509    1.0816    0.0000 H   0  0  0  0  0  0  0  0  0  0  0  0
    4.0611   -0.9537    0.0000 H   0  0  0  0  0  0  0  0  0  0  0  0
    7.7998    1.9034    0.0000 H   0  0  0  0  0  0  0  0  0  0  0  0
    4.0611   -2.5737    0.0000 H   0  0  0  0  0  0  0  0  0  0  0  0
    6.0010    0.5463    0.0000 H   0  0  0  0  0  0  0  0  0  0  0  0
    7.2169   -0.1091    0.0000 H   0  0  0  0  0  0  0  0  0  0  0  0
    7.2169   -3.4184    0.0000 H   0  0  0  0  0  0  0  0  0  0  0  0
    8.6659   -0.9309    0.0000 H   0  0  0  0  0  0  0  0  0  0  0  0
    8.6659   -2.5966    0.0000 H   0  0  0  0  0  0  0  0  0  0  0  0
  1  8  1  0  0  0  0
  1  9  2  0  0  0  0
  1 10  2  0  0  0  0
  1 25  1  0  0  0  0
  2 11  1  0  0  0  0
  2 12  2  0  0  0  0
  2 13  2  0  0  0  0
  2 26  1  0  0  0  0
  3 14  1  0  0  0  0
  3 15  2  0  0  0  0
  3 16  2  0  0  0  0
  3 31  1  0  0  0  0
  7 29  2  0  0  0  0
 17 18  1  0  0  0  0
 17 24  1  0  0  0  0
 17 45  1  0  0  0  0
 18 22  2  0  0  0  0
 19 20  2  0  0  0  0
 19 22  1  0  0  0  0
 19 30  1  0  0  0  0
 20 27  1  0  0  0  0
 20 28  1  0  0  0  0
 21 23  1  0  0  0  0
 21 24  1  0  0  0  0
 21 35  2  0  0  0  0
 22 29  1  0  0  0  0
 23 26  1  0  0  0  0
 23 36  2  0  0  0  0
 24 32  2  0  0  0  0
 25 27  2  0  0  0  0
 25 29  1  0  0  0  0
 26 34  2  0  0  0  0
 27 39  1  0  0  0  0
 28 31  2  0  0  0  0
 28 40  1  0  0  0  0
 30 33  2  0  0  0  0
 30 41  1  0  0  0  0
 31 33  1  0  0  0  0
 32 34  1  0  0  0  0
 32 42  1  0  0  0  0
 33 43  1  0  0  0  0
 34 44  1  0  0  0  0
 35 37  1  0  0  0  0
 35 46  1  0  0  0  0
 36 38  1  0  0  0  0
 36 47  1  0  0  0  0
 37 38  2  0  0  0  0
 37 48  1  0  0  0  0
 38 49  1  0  0  0  0
M  CHG  6   4   1   5   1   6   1   8  -1  11  -1  14  -1
M  END
> <PUBCHEM_COMPOUND_CID>
6093196

> <PUBCHEM_COMPOUND_CANONICALIZED>
1

> <PUBCHEM_CACTVS_COMPLEXITY>
1200

> <PUBCHEM_CACTVS_HBOND_ACCEPTOR>
12

> <PUBCHEM_CACTVS_HBOND_DONOR>
1

> <PUBCHEM_CACTVS_ROTATABLE_BOND>
2

> <PUBCHEM_CACTVS_SUBSKEYS>
AAADccB7PDBgAAAAAAAAAAAAAAAAAAAAAAAwYMEAAAAAAADBVAAAHgQYAAAADAyB2AAwwcBiAAKoA6RyQHDSBEAgAgAYiBkgZNgIILKAlZGAIABgmAAIyYcYiICOkAQAwAAWAAAgCAGAACwAAAAAAAAAAA==

> <PUBCHEM_IUPAC_OPENEYE_NAME>
trisodium (4E)-3-oxo-4-[(4-sulfonato-1-naphthyl)hydrazono]naphthalene-2,7-disulfonate

> <PUBCHEM_IUPAC_CAS_NAME>
trisodium (4E)-3-oxo-4-[(4-sulfonato-1-naphthalenyl)hydrazinylidene]naphthalene-2,7-disulfonate

> <PUBCHEM_IUPAC_NAME>
trisodium (4E)-3-oxo-4-[(4-sulfonatonaphthalen-1-yl)hydrazinylidene]naphthalene-2,7-disulfonate

> <PUBCHEM_IUPAC_SYSTEMATIC_NAME>
trisodium (4E)-3-oxidanylidene-4-[(4-sulfonatonaphthalen-1-yl)hydrazinylidene]naphthalene-2,7-disulfonate

> <PUBCHEM_IUPAC_TRADITIONAL_NAME>
trisodium (4E)-3-keto-4-[(4-sulfonato-1-naphthyl)hydrazono]naphthalene-2,7-disulfonate

> <PUBCHEM_IUPAC_INCHI>
InChI=1S/C20H14N2O10S3.3Na/c23-20-18(35(30,31)32)10-11-9-12(33(24,25)26)5-6-13(11)19(20)22-21-16-7-8-17(34(27,28)29)15-4-2-1-3-14(15)16;;;/h1-10,21H,(H,24,25,26)(H,27,28,29)(H,30,31,32);;;/q;3*+1/p-3/b22-19+;;;

> <PUBCHEM_IUPAC_INCHIKEY>
VOBHRQFELWTZFS-DXVNCNPQSA-K

> <PUBCHEM_EXACT_MASS>
603.92689

> <PUBCHEM_MOLECULAR_FORMULA>
C20H11N2Na3O10S3

> <PUBCHEM_MOLECULAR_WEIGHT>
604.473048

> <PUBCHEM_OPENEYE_CAN_SMILES>
C1=CC=C2C(=C1)C(=CC=C2S(=O)(=O)[O-])NN=C3C4=C(C=C(C=C4)S(=O)(=O)[O-])C=C(C3=O)S(=O)(=O)[O-].[Na+].[Na+].[Na+]

> <PUBCHEM_OPENEYE_ISO_SMILES>
C1=CC=C2C(=C1)C(=CC=C2S(=O)(=O)[O-])N/N=C/3\C4=C(C=C(C=C4)S(=O)(=O)[O-])C=C(C3=O)S(=O)(=O)[O-].[Na+].[Na+].[Na+]

> <PUBCHEM_CACTVS_TPSA>
238

> <PUBCHEM_MONOISOTOPIC_WEIGHT>
603.92689

> <PUBCHEM_TOTAL_CHARGE>
0

> <PUBCHEM_HEAVY_ATOM_COUNT>
38

> <PUBCHEM_ATOM_DEF_STEREO_COUNT>
0

> <PUBCHEM_ATOM_UDEF_STEREO_COUNT>
0

> <PUBCHEM_BOND_DEF_STEREO_COUNT>
1

> <PUBCHEM_BOND_UDEF_STEREO_COUNT>
0

> <PUBCHEM_ISOTOPIC_ATOM_COUNT>
0

> <PUBCHEM_COMPONENT_COUNT>
4

> <PUBCHEM_CACTVS_TAUTO_COUNT>
3

> <PUBCHEM_COORDINATE_TYPE>
1
5
255

> <PUBCHEM_BONDANNOTATIONS>
19  20  8
19  30  8
20  28  8
21  23  8
21  24  8
21  35  8
23  26  8
23  36  8
24  32  8
26  34  8
28  31  8
30  33  8
31  33  8
32  34  8
35  37  8
36  38  8
37  38  8

$$$$

