11954103
  -OEChem-07051213062D

 60 63  0     1  0  0  0  0  0999 V2000
   12.3199    2.5635    0.0000 O   0  0  0  0  0  0  0  0  0  0  0  0
    2.5381   -2.6037    0.0000 O   0  0  0  0  0  0  0  0  0  0  0  0
   11.3414    2.3573    0.0000 N   0  0  0  0  0  0  0  0  0  0  0  0
    3.4022   -3.1070    0.0000 N   0  0  0  0  0  0  0  0  0  0  0  0
    8.7953   -0.0547    0.0000 C   0  0  1  0  0  0  0  0  0  0  0  0
    8.7953   -1.0547    0.0000 C   0  0  2  0  0  0  0  0  0  0  0  0
    7.9293   -1.5547    0.0000 C   0  0  1  0  0  0  0  0  0  0  0  0
    7.0632   -1.0547    0.0000 C   0  0  1  0  0  0  0  0  0  0  0  0
    9.7415    0.2501    0.0000 C   0  0  2  0  0  0  0  0  0  0  0  0
    7.9293    0.4453    0.0000 C   0  0  0  0  0  0  0  0  0  0  0  0
    6.1532   -1.5615    0.0000 C   0  0  2  0  0  0  0  0  0  0  0  0
    9.7415   -1.3594    0.0000 C   0  0  0  0  0  0  0  0  0  0  0  0
    7.0632   -0.0547    0.0000 C   0  0  0  0  0  0  0  0  0  0  0  0
   10.3251   -0.5547    0.0000 C   0  0  0  0  0  0  0  0  0  0  0  0
    7.9453   -2.5962    0.0000 C   0  0  0  0  0  0  0  0  0  0  0  0
    8.7953    0.9453    0.0000 C   0  0  0  0  0  0  0  0  0  0  0  0
    6.1452   -2.6031    0.0000 C   0  0  0  0  0  0  0  0  0  0  0  0
    7.0473   -3.1239    0.0000 C   0  0  0  0  0  0  0  0  0  0  0  0
   10.0522    1.2006    0.0000 C   0  0  1  0  0  0  0  0  0  0  0  0
    5.2264   -0.9974    0.0000 C   0  0  0  0  0  0  0  0  0  0  0  0
    6.1610   -0.5616    0.0000 C   0  0  0  0  0  0  0  0  0  0  0  0
    4.2785   -1.5254    0.0000 C   0  0  0  0  0  0  0  0  0  0  0  0
    5.2098   -3.1528    0.0000 C   0  0  0  0  0  0  0  0  0  0  0  0
    9.3843    1.9449    0.0000 C   0  0  0  0  0  0  0  0  0  0  0  0
   11.0307    1.4068    0.0000 C   0  0  0  0  0  0  0  0  0  0  0  0
    4.2702   -2.6104    0.0000 C   0  0  0  0  0  0  0  0  0  0  0  0
    8.8852   -1.8999    0.0000 H   0  0  0  0  0  0  0  0  0  0  0  0
    8.6686   -1.9740    0.0000 H   0  0  0  0  0  0  0  0  0  0  0  0
    7.7994   -0.6297    0.0000 H   0  0  0  0  0  0  0  0  0  0  0  0
   10.5812    0.3819    0.0000 H   0  0  0  0  0  0  0  0  0  0  0  0
    8.3278    0.9203    0.0000 H   0  0  0  0  0  0  0  0  0  0  0  0
    7.5308    0.9203    0.0000 H   0  0  0  0  0  0  0  0  0  0  0  0
    9.4905   -1.9263    0.0000 H   0  0  0  0  0  0  0  0  0  0  0  0
   10.2789   -1.6686    0.0000 H   0  0  0  0  0  0  0  0  0  0  0  0
    6.8512    0.5279    0.0000 H   0  0  0  0  0  0  0  0  0  0  0  0
    6.4527   -0.1623    0.0000 H   0  0  0  0  0  0  0  0  0  0  0  0
   10.7860   -0.9694    0.0000 H   0  0  0  0  0  0  0  0  0  0  0  0
   10.7860   -0.1400    0.0000 H   0  0  0  0  0  0  0  0  0  0  0  0
    8.1634   -3.1766    0.0000 H   0  0  0  0  0  0  0  0  0  0  0  0
    8.5545   -2.4807    0.0000 H   0  0  0  0  0  0  0  0  0  0  0  0
    9.4153    0.9453    0.0000 H   0  0  0  0  0  0  0  0  0  0  0  0
    8.7953    1.5653    0.0000 H   0  0  0  0  0  0  0  0  0  0  0  0
    8.1753    0.9453    0.0000 H   0  0  0  0  0  0  0  0  0  0  0  0
    6.6500   -3.5999    0.0000 H   0  0  0  0  0  0  0  0  0  0  0  0
    7.4483   -3.5968    0.0000 H   0  0  0  0  0  0  0  0  0  0  0  0
   10.2448    1.7899    0.0000 H   0  0  0  0  0  0  0  0  0  0  0  0
    5.6346   -0.5308    0.0000 H   0  0  0  0  0  0  0  0  0  0  0  0
    4.8365   -0.5154    0.0000 H   0  0  0  0  0  0  0  0  0  0  0  0
    6.7809   -0.5663    0.0000 H   0  0  0  0  0  0  0  0  0  0  0  0
    6.1657    0.0584    0.0000 H   0  0  0  0  0  0  0  0  0  0  0  0
    5.5410   -0.5568    0.0000 H   0  0  0  0  0  0  0  0  0  0  0  0
    4.0740   -0.9401    0.0000 H   0  0  0  0  0  0  0  0  0  0  0  0
    3.6669   -1.6268    0.0000 H   0  0  0  0  0  0  0  0  0  0  0  0
    5.2122   -3.7728    0.0000 H   0  0  0  0  0  0  0  0  0  0  0  0
    9.8458    2.3589    0.0000 H   0  0  0  0  0  0  0  0  0  0  0  0
    8.9703    2.4063    0.0000 H   0  0  0  0  0  0  0  0  0  0  0  0
    8.9229    1.5308    0.0000 H   0  0  0  0  0  0  0  0  0  0  0  0
   11.4448    0.9453    0.0000 H   0  0  0  0  0  0  0  0  0  0  0  0
   12.5125    3.1528    0.0000 H   0  0  0  0  0  0  0  0  0  0  0  0
    2.0000   -2.9116    0.0000 H   0  0  0  0  0  0  0  0  0  0  0  0
  1  3  1  0  0  0  0
  1 59  1  0  0  0  0
  2  4  1  0  0  0  0
  2 60  1  0  0  0  0
  3 25  2  0  0  0  0
  4 26  2  0  0  0  0
  5  6  1  0  0  0  0
  5  9  1  0  0  0  0
  5 10  1  0  0  0  0
  5 16  1  1  0  0  0
  6  7  1  0  0  0  0
  6 12  1  0  0  0  0
  6 27  1  6  0  0  0
  7  8  1  0  0  0  0
  7 15  1  0  0  0  0
  7 28  1  1  0  0  0
  8 11  1  0  0  0  0
  8 13  1  0  0  0  0
  8 29  1  6  0  0  0
  9 14  1  0  0  0  0
  9 19  1  0  0  0  0
  9 30  1  6  0  0  0
 10 13  1  0  0  0  0
 10 31  1  0  0  0  0
 10 32  1  0  0  0  0
 11 17  1  0  0  0  0
 11 20  1  0  0  0  0
 11 21  1  1  0  0  0
 12 14  1  0  0  0  0
 12 33  1  0  0  0  0
 12 34  1  0  0  0  0
 13 35  1  0  0  0  0
 13 36  1  0  0  0  0
 14 37  1  0  0  0  0
 14 38  1  0  0  0  0
 15 18  1  0  0  0  0
 15 39  1  0  0  0  0
 15 40  1  0  0  0  0
 16 41  1  0  0  0  0
 16 42  1  0  0  0  0
 16 43  1  0  0  0  0
 17 18  1  0  0  0  0
 17 23  2  0  0  0  0
 18 44  1  0  0  0  0
 18 45  1  0  0  0  0
 19 24  1  1  0  0  0
 19 25  1  0  0  0  0
 19 46  1  0  0  0  0
 20 22  1  0  0  0  0
 20 47  1  0  0  0  0
 20 48  1  0  0  0  0
 21 49  1  0  0  0  0
 21 50  1  0  0  0  0
 21 51  1  0  0  0  0
 22 26  1  0  0  0  0
 22 52  1  0  0  0  0
 22 53  1  0  0  0  0
 23 26  1  0  0  0  0
 23 54  1  0  0  0  0
 24 55  1  0  0  0  0
 24 56  1  0  0  0  0
 24 57  1  0  0  0  0
 25 58  1  0  0  0  0
M  END
> <PUBCHEM_COMPOUND_CID>
11954103

> <PUBCHEM_COMPOUND_CANONICALIZED>
1

> <PUBCHEM_CACTVS_COMPLEXITY>
655

> <PUBCHEM_CACTVS_HBOND_ACCEPTOR>
4

> <PUBCHEM_CACTVS_HBOND_DONOR>
2

> <PUBCHEM_CACTVS_ROTATABLE_BOND>
2

> <PUBCHEM_CACTVS_SUBSKEYS>
AAADcfB7MAAAAAAAAAAAAAAAAAAAAYAAAAAwYIAAAAAAAGDAAAAAHAAECAAADwjBAAQCAAAQAACgAzBjAAAAAAAgAAAACAAwABgAAAIAAQAAAAAAgAAIAAMAgMAPgAAAAAAAAACAAAQAACAAAQAACAAAAA==

> <PUBCHEM_IUPAC_OPENEYE_NAME>
(1E,2R)-2-[(3E,8S,9S,10R,13S,14S,17R)-3-hydroxyimino-10,13-dimethyl-1,2,6,7,8,9,11,12,14,15,16,17-dodecahydrocyclopenta[a]phenanthren-17-yl]propanal oxime

> <PUBCHEM_IUPAC_CAS_NAME>
(1E,2R)-2-[(3E,8S,9S,10R,13S,14S,17R)-3-hydroxyimino-10,13-dimethyl-1,2,6,7,8,9,11,12,14,15,16,17-dodecahydrocyclopenta[a]phenanthren-17-yl]propanal oxime

> <PUBCHEM_IUPAC_NAME>
(NE)-N-[(2R)-2-[(3E,8S,9S,10R,13S,14S,17R)-3-hydroxyimino-10,13-dimethyl-1,2,6,7,8,9,11,12,14,15,16,17-dodecahydrocyclopenta[a]phenanthren-17-yl]propylidene]hydroxylamine

> <PUBCHEM_IUPAC_SYSTEMATIC_NAME>
(NE)-N-[(2R)-2-[(3E,8S,9S,10R,13S,14S,17R)-3-hydroxyimino-10,13-dimethyl-1,2,6,7,8,9,11,12,14,15,16,17-dodecahydrocyclopenta[a]phenanthren-17-yl]propylidene]hydroxylamine

> <PUBCHEM_IUPAC_TRADITIONAL_NAME>
(1E,2R)-2-[(3E,8S,9S,10R,13S,14S,17R)-3-hydroximino-10,13-dimethyl-1,2,6,7,8,9,11,12,14,15,16,17-dodecahydrocyclopenta[a]phenanthren-17-yl]propionaldoxime

> <PUBCHEM_IUPAC_INCHI>
InChI=1S/C22H34N2O2/c1-14(13-23-25)18-6-7-19-17-5-4-15-12-16(24-26)8-10-21(15,2)20(17)9-11-22(18,19)3/h12-14,17-20,25-26H,4-11H2,1-3H3/b23-13+,24-16+/t14-,17-,18+,19-,20-,21-,22+/m0/s1

> <PUBCHEM_IUPAC_INCHIKEY>
LPFFRMGUWCHBIL-YMTOYBDESA-N

> <PUBCHEM_XLOGP3_AA>
5.3

> <PUBCHEM_EXACT_MASS>
358.262028

> <PUBCHEM_MOLECULAR_FORMULA>
C22H34N2O2

> <PUBCHEM_MOLECULAR_WEIGHT>
358.51756

> <PUBCHEM_OPENEYE_CAN_SMILES>
CC(C=NO)C1CCC2C1(CCC3C2CCC4=CC(=NO)CCC34C)C

> <PUBCHEM_OPENEYE_ISO_SMILES>
C[C@@H](/C=N/O)[C@H]1CC[C@@H]2[C@@]1(CC[C@H]3[C@H]2CCC4=C/C(=N/O)/CC[C@]34C)C

> <PUBCHEM_CACTVS_TPSA>
65.2

> <PUBCHEM_MONOISOTOPIC_WEIGHT>
358.262028

> <PUBCHEM_TOTAL_CHARGE>
0

> <PUBCHEM_HEAVY_ATOM_COUNT>
26

> <PUBCHEM_ATOM_DEF_STEREO_COUNT>
7

> <PUBCHEM_ATOM_UDEF_STEREO_COUNT>
0

> <PUBCHEM_BOND_DEF_STEREO_COUNT>
2

> <PUBCHEM_BOND_UDEF_STEREO_COUNT>
0

> <PUBCHEM_ISOTOPIC_ATOM_COUNT>
0

> <PUBCHEM_COMPONENT_COUNT>
1

> <PUBCHEM_CACTVS_TAUTO_COUNT>
9

> <PUBCHEM_COORDINATE_TYPE>
1
5
255

> <PUBCHEM_BONDANNOTATIONS>
11  21  5
19  24  5
5  16  5
6  27  6
7  28  5
8  29  6
9  30  6

$$$$

