24892795
  -OEChem-07051213082D

106106  0     1  0  0  0  0  0999 V2000
    4.5981   -0.2500    0.0000 S   0  0  0  0  0  0  0  0  0  0  0  0
    5.4641    0.2500    0.0000 S   0  0  0  0  0  0  0  0  0  0  0  0
    6.3301   -0.2500    0.0000 O   0  0  0  0  0  0  0  0  0  0  0  0
    7.1962    0.2500    0.0000 O   0  0  0  0  0  0  0  0  0  0  0  0
    4.5981    2.7500    0.0000 O   0  0  0  0  0  0  0  0  0  0  0  0
    3.7320   -2.7500    0.0000 O   0  0  0  0  0  0  0  0  0  0  0  0
    8.9282   -2.7500    0.0000 O   0  0  0  0  0  0  0  0  0  0  0  0
    9.7942    2.7500    0.0000 O   0  0  0  0  0  0  0  0  0  0  0  0
    3.7320    7.2500    0.0000 O   0  0  0  0  0  0  0  0  0  0  0  0
    2.8660   -7.2500    0.0000 O   0  0  0  0  0  0  0  0  0  0  0  0
    2.8660    5.7500    0.0000 O   0  0  0  0  0  0  0  0  0  0  0  0
    2.0000   -5.7500    0.0000 O   0  0  0  0  0  0  0  0  0  0  0  0
   13.2583   -1.2500    0.0000 N   0  0  0  0  0  0  0  0  0  0  0  0
   13.2583   -0.2500    0.0000 N   0  0  0  0  0  0  0  0  0  0  0  0
    9.7942   -1.2500    0.0000 N   0  0  0  0  0  0  0  0  0  0  0  0
   10.6603    1.2500    0.0000 N   0  0  0  0  0  0  0  0  0  0  0  0
    5.4641   -2.7500    0.0000 N   0  0  0  0  0  0  0  0  0  0  0  0
    6.3301    2.7500    0.0000 N   0  0  0  0  0  0  0  0  0  0  0  0
    7.1962   -1.7500    0.0000 N   0  0  0  0  0  0  0  0  0  0  0  0
    8.0622    1.7500    0.0000 N   0  0  0  0  0  0  0  0  0  0  0  0
    5.4641    6.2500    0.0000 N   0  0  0  0  0  0  0  0  0  0  0  0
    4.5981   -6.2500    0.0000 N   0  0  0  0  0  0  0  0  0  0  0  0
   14.9904   -1.2500    0.0000 C   0  0  0  0  0  0  0  0  0  0  0  0
   14.9904   -0.2500    0.0000 C   0  0  0  0  0  0  0  0  0  0  0  0
   14.1244   -1.7500    0.0000 C   0  0  0  0  0  0  0  0  0  0  0  0
   14.1244    0.2500    0.0000 C   0  0  0  0  0  0  0  0  0  0  0  0
   12.3923   -1.7500    0.0000 C   0  0  0  0  0  0  0  0  0  0  0  0
   12.3923    0.2500    0.0000 C   0  0  0  0  0  0  0  0  0  0  0  0
   11.5263   -1.2500    0.0000 C   0  0  0  0  0  0  0  0  0  0  0  0
   12.3923    1.2500    0.0000 C   0  0  0  0  0  0  0  0  0  0  0  0
   10.6603   -1.7500    0.0000 C   0  0  0  0  0  0  0  0  0  0  0  0
   11.5263    1.7500    0.0000 C   0  0  0  0  0  0  0  0  0  0  0  0
    5.4641   -1.7500    0.0000 C   0  0  1  0  0  0  0  0  0  0  0  0
    6.3301    1.7500    0.0000 C   0  0  1  0  0  0  0  0  0  0  0  0
    4.5981   -1.2500    0.0000 C   0  0  0  0  0  0  0  0  0  0  0  0
    5.4641    1.2500    0.0000 C   0  0  0  0  0  0  0  0  0  0  0  0
    5.4641    4.2500    0.0000 C   0  0  0  0  0  0  0  0  0  0  0  0
    4.5981   -4.2500    0.0000 C   0  0  0  0  0  0  0  0  0  0  0  0
    4.5981    4.7500    0.0000 C   0  0  0  0  0  0  0  0  0  0  0  0
    3.7320   -4.7500    0.0000 C   0  0  0  0  0  0  0  0  0  0  0  0
    6.3301   -1.2500    0.0000 C   0  0  0  0  0  0  0  0  0  0  0  0
    7.1962    1.2500    0.0000 C   0  0  0  0  0  0  0  0  0  0  0  0
    5.4641    3.2500    0.0000 C   0  0  0  0  0  0  0  0  0  0  0  0
    4.5981   -3.2500    0.0000 C   0  0  0  0  0  0  0  0  0  0  0  0
    4.5981    5.7500    0.0000 C   0  0  1  0  0  0  0  0  0  0  0  0
    3.7320   -5.7500    0.0000 C   0  0  1  0  0  0  0  0  0  0  0  0
    8.0622   -1.2500    0.0000 C   0  0  0  0  0  0  0  0  0  0  0  0
    8.9282    1.2500    0.0000 C   0  0  0  0  0  0  0  0  0  0  0  0
    8.9282   -1.7500    0.0000 C   0  0  0  0  0  0  0  0  0  0  0  0
    9.7942    1.7500    0.0000 C   0  0  0  0  0  0  0  0  0  0  0  0
    3.7320    6.2500    0.0000 C   0  0  0  0  0  0  0  0  0  0  0  0
    2.8660   -6.2500    0.0000 C   0  0  0  0  0  0  0  0  0  0  0  0
   15.2024   -1.8326    0.0000 H   0  0  0  0  0  0  0  0  0  0  0  0
   15.6010   -1.1423    0.0000 H   0  0  0  0  0  0  0  0  0  0  0  0
   15.6010   -0.3577    0.0000 H   0  0  0  0  0  0  0  0  0  0  0  0
   15.2024    0.3326    0.0000 H   0  0  0  0  0  0  0  0  0  0  0  0
   13.7258   -2.2250    0.0000 H   0  0  0  0  0  0  0  0  0  0  0  0
   14.5229   -2.2250    0.0000 H   0  0  0  0  0  0  0  0  0  0  0  0
   14.5229    0.7249    0.0000 H   0  0  0  0  0  0  0  0  0  0  0  0
   13.7258    0.7249    0.0000 H   0  0  0  0  0  0  0  0  0  0  0  0
   11.9938   -2.2250    0.0000 H   0  0  0  0  0  0  0  0  0  0  0  0
   12.7908   -2.2250    0.0000 H   0  0  0  0  0  0  0  0  0  0  0  0
   11.7817    0.3577    0.0000 H   0  0  0  0  0  0  0  0  0  0  0  0
   12.1803   -0.3326    0.0000 H   0  0  0  0  0  0  0  0  0  0  0  0
   13.7953   -0.9400    0.0000 H   0  0  0  0  0  0  0  0  0  0  0  0
   12.7215   -0.5601    0.0000 H   0  0  0  0  0  0  0  0  0  0  0  0
   11.9248   -0.7751    0.0000 H   0  0  0  0  0  0  0  0  0  0  0  0
   11.1278   -0.7751    0.0000 H   0  0  0  0  0  0  0  0  0  0  0  0
   13.0029    1.1423    0.0000 H   0  0  0  0  0  0  0  0  0  0  0  0
   12.6044    1.8326    0.0000 H   0  0  0  0  0  0  0  0  0  0  0  0
   10.2617   -2.2250    0.0000 H   0  0  0  0  0  0  0  0  0  0  0  0
   11.0588   -2.2250    0.0000 H   0  0  0  0  0  0  0  0  0  0  0  0
   11.9248    2.2250    0.0000 H   0  0  0  0  0  0  0  0  0  0  0  0
   11.1278    2.2250    0.0000 H   0  0  0  0  0  0  0  0  0  0  0  0
    6.0010   -2.0600    0.0000 H   0  0  0  0  0  0  0  0  0  0  0  0
    6.8671    2.0600    0.0000 H   0  0  0  0  0  0  0  0  0  0  0  0
    3.9875   -1.1423    0.0000 H   0  0  0  0  0  0  0  0  0  0  0  0
    4.3860   -1.8326    0.0000 H   0  0  0  0  0  0  0  0  0  0  0  0
    5.2520    1.8326    0.0000 H   0  0  0  0  0  0  0  0  0  0  0  0
    4.8535    1.1423    0.0000 H   0  0  0  0  0  0  0  0  0  0  0  0
    9.7942   -0.6300    0.0000 H   0  0  0  0  0  0  0  0  0  0  0  0
   10.6603    0.6300    0.0000 H   0  0  0  0  0  0  0  0  0  0  0  0
    6.0747    4.1423    0.0000 H   0  0  0  0  0  0  0  0  0  0  0  0
    5.6762    4.8326    0.0000 H   0  0  0  0  0  0  0  0  0  0  0  0
    4.8101   -4.8326    0.0000 H   0  0  0  0  0  0  0  0  0  0  0  0
    5.2087   -4.1423    0.0000 H   0  0  0  0  0  0  0  0  0  0  0  0
    3.9875    4.8577    0.0000 H   0  0  0  0  0  0  0  0  0  0  0  0
    4.3860    4.1674    0.0000 H   0  0  0  0  0  0  0  0  0  0  0  0
    3.5200   -4.1674    0.0000 H   0  0  0  0  0  0  0  0  0  0  0  0
    3.1215   -4.8577    0.0000 H   0  0  0  0  0  0  0  0  0  0  0  0
    6.0010   -3.0600    0.0000 H   0  0  0  0  0  0  0  0  0  0  0  0
    6.8671    3.0600    0.0000 H   0  0  0  0  0  0  0  0  0  0  0  0
    4.5981    6.3700    0.0000 H   0  0  0  0  0  0  0  0  0  0  0  0
    3.7320   -6.3700    0.0000 H   0  0  0  0  0  0  0  0  0  0  0  0
    8.4607   -0.7751    0.0000 H   0  0  0  0  0  0  0  0  0  0  0  0
    7.6636   -0.7751    0.0000 H   0  0  0  0  0  0  0  0  0  0  0  0
    8.5297    0.7751    0.0000 H   0  0  0  0  0  0  0  0  0  0  0  0
    9.3267    0.7751    0.0000 H   0  0  0  0  0  0  0  0  0  0  0  0
    7.1962   -2.3700    0.0000 H   0  0  0  0  0  0  0  0  0  0  0  0
    8.0622    2.3700    0.0000 H   0  0  0  0  0  0  0  0  0  0  0  0
    5.4641    6.8700    0.0000 H   0  0  0  0  0  0  0  0  0  0  0  0
    6.0010    5.9400    0.0000 H   0  0  0  0  0  0  0  0  0  0  0  0
    4.5981   -6.8700    0.0000 H   0  0  0  0  0  0  0  0  0  0  0  0
    5.1350   -5.9400    0.0000 H   0  0  0  0  0  0  0  0  0  0  0  0
    3.1951    7.5600    0.0000 H   0  0  0  0  0  0  0  0  0  0  0  0
    2.3291   -7.5600    0.0000 H   0  0  0  0  0  0  0  0  0  0  0  0
  1  2  1  0  0  0  0
  1 35  1  0  0  0  0
  2 36  1  0  0  0  0
  3 41  2  0  0  0  0
  4 42  2  0  0  0  0
  5 43  2  0  0  0  0
  6 44  2  0  0  0  0
  7 49  2  0  0  0  0
  8 50  2  0  0  0  0
  9 51  1  0  0  0  0
  9105  1  0  0  0  0
 10 52  1  0  0  0  0
 10106  1  0  0  0  0
 11 51  2  0  0  0  0
 12 52  2  0  0  0  0
 13 25  1  0  0  0  0
 13 27  1  0  0  0  0
 13 65  1  0  0  0  0
 14 26  1  0  0  0  0
 14 28  1  0  0  0  0
 14 66  1  0  0  0  0
 15 31  1  0  0  0  0
 15 49  1  0  0  0  0
 15 81  1  0  0  0  0
 16 32  1  0  0  0  0
 16 50  1  0  0  0  0
 16 82  1  0  0  0  0
 33 17  1  1  0  0  0
 17 44  1  0  0  0  0
 17 91  1  0  0  0  0
 34 18  1  6  0  0  0
 18 43  1  0  0  0  0
 18 92  1  0  0  0  0
 19 41  1  0  0  0  0
 19 47  1  0  0  0  0
 19 99  1  0  0  0  0
 20 42  1  0  0  0  0
 20 48  1  0  0  0  0
 20100  1  0  0  0  0
 45 21  1  1  0  0  0
 21101  1  0  0  0  0
 21102  1  0  0  0  0
 46 22  1  6  0  0  0
 22103  1  0  0  0  0
 22104  1  0  0  0  0
 23 24  1  0  0  0  0
 23 25  1  0  0  0  0
 23 53  1  0  0  0  0
 23 54  1  0  0  0  0
 24 26  1  0  0  0  0
 24 55  1  0  0  0  0
 24 56  1  0  0  0  0
 25 57  1  0  0  0  0
 25 58  1  0  0  0  0
 26 59  1  0  0  0  0
 26 60  1  0  0  0  0
 27 29  1  0  0  0  0
 27 61  1  0  0  0  0
 27 62  1  0  0  0  0
 28 30  1  0  0  0  0
 28 63  1  0  0  0  0
 28 64  1  0  0  0  0
 29 31  1  0  0  0  0
 29 67  1  0  0  0  0
 29 68  1  0  0  0  0
 30 32  1  0  0  0  0
 30 69  1  0  0  0  0
 30 70  1  0  0  0  0
 31 71  1  0  0  0  0
 31 72  1  0  0  0  0
 32 73  1  0  0  0  0
 32 74  1  0  0  0  0
 33 35  1  0  0  0  0
 33 41  1  0  0  0  0
 33 75  1  0  0  0  0
 34 36  1  0  0  0  0
 34 42  1  0  0  0  0
 34 76  1  0  0  0  0
 35 77  1  0  0  0  0
 35 78  1  0  0  0  0
 36 79  1  0  0  0  0
 36 80  1  0  0  0  0
 37 39  1  0  0  0  0
 37 43  1  0  0  0  0
 37 83  1  0  0  0  0
 37 84  1  0  0  0  0
 38 40  1  0  0  0  0
 38 44  1  0  0  0  0
 38 85  1  0  0  0  0
 38 86  1  0  0  0  0
 39 45  1  0  0  0  0
 39 87  1  0  0  0  0
 39 88  1  0  0  0  0
 40 46  1  0  0  0  0
 40 89  1  0  0  0  0
 40 90  1  0  0  0  0
 45 51  1  0  0  0  0
 45 93  1  0  0  0  0
 46 52  1  0  0  0  0
 46 94  1  0  0  0  0
 47 49  1  0  0  0  0
 47 95  1  0  0  0  0
 47 96  1  0  0  0  0
 48 50  1  0  0  0  0
 48 97  1  0  0  0  0
 48 98  1  0  0  0  0
M  END
> <PUBCHEM_COMPOUND_CID>
24892795

> <PUBCHEM_COMPOUND_CANONICALIZED>
1

> <PUBCHEM_CACTVS_COMPLEXITY>
1100

> <PUBCHEM_CACTVS_HBOND_ACCEPTOR>
16

> <PUBCHEM_CACTVS_HBOND_DONOR>
12

> <PUBCHEM_CACTVS_ROTATABLE_BOND>
10

> <PUBCHEM_CACTVS_SUBSKEYS>
AAADcfB7/ABgAAAAAAAAAAAAAAAAAAAAAAAAAAAAAAAAAAAAAAAAHgQQCAAACCjFwASACALAAgAIAAGQGAAAAAAAAAAAAIGIAAACQBIAwCAUQAAEFgCAAACcFwIAAAAAAAAAAAAAAAAAAAAAAAAAAAAAAA==

> <PUBCHEM_IUPAC_OPENEYE_NAME>
(2S)-2-amino-5-[[(4R,27R)-27-[[(4S)-4-amino-4-carboxy-butanoyl]amino]-5,8,23,26-tetraoxo-1,2-dithia-6,9,13,18,22,25-hexazacyclooctacos-4-yl]amino]-5-oxo-pentanoic acid

> <PUBCHEM_IUPAC_CAS_NAME>
(2S)-2-amino-5-[[(4R,27R)-27-[[(4S)-4-amino-4-carboxy-1-oxobutyl]amino]-5,8,23,26-tetraoxo-1,2-dithia-6,9,13,18,22,25-hexazacyclooctacos-4-yl]amino]-5-oxopentanoic acid

> <PUBCHEM_IUPAC_NAME>
(2S)-2-amino-5-[[(4R,27R)-27-[[(4S)-4-amino-4-carboxybutanoyl]amino]-5,8,23,26-tetraoxo-1,2-dithia-6,9,13,18,22,25-hexazacyclooctacos-4-yl]amino]-5-oxopentanoic acid

> <PUBCHEM_IUPAC_SYSTEMATIC_NAME>
(2S)-2-azanyl-5-[[(4R,27R)-27-[[(4S)-4-azanyl-5-oxidanyl-5-oxidanylidene-pentanoyl]amino]-5,8,23,26-tetrakis(oxidanylidene)-1,2-dithia-6,9,13,18,22,25-hexazacyclooctacos-4-yl]amino]-5-oxidanylidene-pentanoic acid

> <PUBCHEM_IUPAC_TRADITIONAL_NAME>
(2S)-2-amino-5-[[(4R,27R)-27-[[(4S)-4-amino-4-carboxy-butanoyl]amino]-5,8,23,26-tetraketo-1,2-dithia-6,9,13,18,22,25-hexazacyclooctacos-4-yl]amino]-5-keto-valeric acid

> <PUBCHEM_IUPAC_INCHI>
InChI=1S/C30H54N10O10S2/c31-19(29(47)48)5-7-23(41)39-21-17-51-52-18-22(40-24(42)8-6-20(32)30(49)50)28(46)38-16-26(44)36-14-4-12-34-10-2-1-9-33-11-3-13-35-25(43)15-37-27(21)45/h19-22,33-34H,1-18,31-32H2,(H,35,43)(H,36,44)(H,37,45)(H,38,46)(H,39,41)(H,40,42)(H,47,48)(H,49,50)/t19-,20-,21-,22-/m0/s1

> <PUBCHEM_IUPAC_INCHIKEY>
DPWWQTWIXQZMCE-CMOCDZPBSA-N

> <PUBCHEM_XLOGP3_AA>
-9.3

> <PUBCHEM_EXACT_MASS>
778.34658

> <PUBCHEM_MOLECULAR_FORMULA>
C30H54N10O10S2

> <PUBCHEM_MOLECULAR_WEIGHT>
778.94076

> <PUBCHEM_OPENEYE_CAN_SMILES>
C1CCNCCCNC(=O)CNC(=O)C(CSSCC(C(=O)NCC(=O)NCCCNC1)NC(=O)CCC(C(=O)O)N)NC(=O)CCC(C(=O)O)N

> <PUBCHEM_OPENEYE_ISO_SMILES>
C1CCNCCCNC(=O)CNC(=O)[C@H](CSSC[C@@H](C(=O)NCC(=O)NCCCNC1)NC(=O)CC[C@@H](C(=O)O)N)NC(=O)CC[C@@H](C(=O)O)N

> <PUBCHEM_CACTVS_TPSA>
376

> <PUBCHEM_MONOISOTOPIC_WEIGHT>
778.34658

> <PUBCHEM_TOTAL_CHARGE>
0

> <PUBCHEM_HEAVY_ATOM_COUNT>
52

> <PUBCHEM_ATOM_DEF_STEREO_COUNT>
4

> <PUBCHEM_ATOM_UDEF_STEREO_COUNT>
0

> <PUBCHEM_BOND_DEF_STEREO_COUNT>
0

> <PUBCHEM_BOND_UDEF_STEREO_COUNT>
0

> <PUBCHEM_ISOTOPIC_ATOM_COUNT>
0

> <PUBCHEM_COMPONENT_COUNT>
1

> <PUBCHEM_CACTVS_TAUTO_COUNT>
171

> <PUBCHEM_COORDINATE_TYPE>
1
5
255

> <PUBCHEM_BONDANNOTATIONS>
33  17  5
34  18  6
45  21  5
46  22  6

$$$$

