17396440
  -OEChem-06241222562D

 47 50  0     0  0  0  0  0  0999 V2000
   12.8497   -0.1525    0.0000 S   0  0  0  0  0  0  0  0  0  0  0  0
    4.6783    1.5753    0.0000 O   0  0  0  0  0  0  0  0  0  0  0  0
    9.7619    1.6366    0.0000 O   0  0  0  0  0  0  0  0  0  0  0  0
    8.2619    0.7705    0.0000 N   0  0  0  0  0  0  0  0  0  0  0  0
    4.6783   -0.0342    0.0000 N   0  0  0  0  0  0  0  0  0  0  0  0
    6.2619    0.7705    0.0000 C   0  0  0  0  0  0  0  0  0  0  0  0
    6.7619    1.6366    0.0000 C   0  0  0  0  0  0  0  0  0  0  0  0
    6.7619   -0.0955    0.0000 C   0  0  0  0  0  0  0  0  0  0  0  0
    7.7619    1.6366    0.0000 C   0  0  0  0  0  0  0  0  0  0  0  0
    7.7619   -0.0955    0.0000 C   0  0  0  0  0  0  0  0  0  0  0  0
    5.2619    0.7705    0.0000 C   0  0  0  0  0  0  0  0  0  0  0  0
    9.2619    0.7705    0.0000 C   0  0  0  0  0  0  0  0  0  0  0  0
    9.7619   -0.0955    0.0000 C   0  0  0  0  0  0  0  0  0  0  0  0
   10.7619   -0.0955    0.0000 C   0  0  0  0  0  0  0  0  0  0  0  0
    3.7320    1.2705    0.0000 C   0  0  0  0  0  0  0  0  0  0  0  0
    3.7320    0.2705    0.0000 C   0  0  0  0  0  0  0  0  0  0  0  0
   11.2619   -0.9615    0.0000 C   0  0  0  0  0  0  0  0  0  0  0  0
    2.8660    1.7705    0.0000 C   0  0  0  0  0  0  0  0  0  0  0  0
    2.8660   -0.2295    0.0000 C   0  0  0  0  0  0  0  0  0  0  0  0
   12.2619   -0.9615    0.0000 C   0  0  0  0  0  0  0  0  0  0  0  0
    2.0000    1.2705    0.0000 C   0  0  0  0  0  0  0  0  0  0  0  0
    2.0000    0.2705    0.0000 C   0  0  0  0  0  0  0  0  0  0  0  0
   12.8497   -1.7705    0.0000 C   0  0  0  0  0  0  0  0  0  0  0  0
   13.8007   -1.4615    0.0000 C   0  0  0  0  0  0  0  0  0  0  0  0
   13.8007   -0.4615    0.0000 C   0  0  0  0  0  0  0  0  0  0  0  0
    5.9519    1.3075    0.0000 H   0  0  0  0  0  0  0  0  0  0  0  0
    6.8695    2.2471    0.0000 H   0  0  0  0  0  0  0  0  0  0  0  0
    6.1793    1.8486    0.0000 H   0  0  0  0  0  0  0  0  0  0  0  0
    6.1793   -0.3075    0.0000 H   0  0  0  0  0  0  0  0  0  0  0  0
    6.8695   -0.7061    0.0000 H   0  0  0  0  0  0  0  0  0  0  0  0
    8.3445    1.8486    0.0000 H   0  0  0  0  0  0  0  0  0  0  0  0
    7.6542    2.2471    0.0000 H   0  0  0  0  0  0  0  0  0  0  0  0
    7.6542   -0.7061    0.0000 H   0  0  0  0  0  0  0  0  0  0  0  0
    8.3445   -0.3075    0.0000 H   0  0  0  0  0  0  0  0  0  0  0  0
    9.1793   -0.3075    0.0000 H   0  0  0  0  0  0  0  0  0  0  0  0
    9.8695   -0.7061    0.0000 H   0  0  0  0  0  0  0  0  0  0  0  0
   11.3445    0.1166    0.0000 H   0  0  0  0  0  0  0  0  0  0  0  0
   10.6542    0.5151    0.0000 H   0  0  0  0  0  0  0  0  0  0  0  0
   10.6793   -1.1736    0.0000 H   0  0  0  0  0  0  0  0  0  0  0  0
   11.3695   -1.5721    0.0000 H   0  0  0  0  0  0  0  0  0  0  0  0
    2.8660    2.3905    0.0000 H   0  0  0  0  0  0  0  0  0  0  0  0
    2.8660   -0.8495    0.0000 H   0  0  0  0  0  0  0  0  0  0  0  0
    1.4631    1.5805    0.0000 H   0  0  0  0  0  0  0  0  0  0  0  0
    1.4631   -0.0395    0.0000 H   0  0  0  0  0  0  0  0  0  0  0  0
   12.6581   -2.3602    0.0000 H   0  0  0  0  0  0  0  0  0  0  0  0
   14.3023   -1.8259    0.0000 H   0  0  0  0  0  0  0  0  0  0  0  0
   14.3023   -0.0971    0.0000 H   0  0  0  0  0  0  0  0  0  0  0  0
  1 20  1  0  0  0  0
  1 25  1  0  0  0  0
  2 11  1  0  0  0  0
  2 15  1  0  0  0  0
  3 12  2  0  0  0  0
  4  9  1  0  0  0  0
  4 10  1  0  0  0  0
  4 12  1  0  0  0  0
  5 11  2  0  0  0  0
  5 16  1  0  0  0  0
  6  7  1  0  0  0  0
  6  8  1  0  0  0  0
  6 11  1  0  0  0  0
  6 26  1  0  0  0  0
  7  9  1  0  0  0  0
  7 27  1  0  0  0  0
  7 28  1  0  0  0  0
  8 10  1  0  0  0  0
  8 29  1  0  0  0  0
  8 30  1  0  0  0  0
  9 31  1  0  0  0  0
  9 32  1  0  0  0  0
 10 33  1  0  0  0  0
 10 34  1  0  0  0  0
 12 13  1  0  0  0  0
 13 14  1  0  0  0  0
 13 35  1  0  0  0  0
 13 36  1  0  0  0  0
 14 17  1  0  0  0  0
 14 37  1  0  0  0  0
 14 38  1  0  0  0  0
 15 16  1  0  0  0  0
 15 18  2  0  0  0  0
 16 19  2  0  0  0  0
 17 20  1  0  0  0  0
 17 39  1  0  0  0  0
 17 40  1  0  0  0  0
 18 21  1  0  0  0  0
 18 41  1  0  0  0  0
 19 22  1  0  0  0  0
 19 42  1  0  0  0  0
 20 23  2  0  0  0  0
 21 22  2  0  0  0  0
 21 43  1  0  0  0  0
 22 44  1  0  0  0  0
 23 24  1  0  0  0  0
 23 45  1  0  0  0  0
 24 25  2  0  0  0  0
 24 46  1  0  0  0  0
 25 47  1  0  0  0  0
M  END
> <PUBCHEM_COMPOUND_CID>
17396440

> <PUBCHEM_COMPOUND_CANONICALIZED>
1

> <PUBCHEM_CACTVS_COMPLEXITY>
453

> <PUBCHEM_CACTVS_HBOND_ACCEPTOR>
4

> <PUBCHEM_CACTVS_HBOND_DONOR>
0

> <PUBCHEM_CACTVS_ROTATABLE_BOND>
5

> <PUBCHEM_CACTVS_SUBSKEYS>
AAADceB7MABAAAAAAAAAAAAAAAAAAWJAAAA8QAAAAAAAAFgB/AAAHgQAAAAADQzF1gSwx7MIFEisAaVyVASDiKAvajBImDm/bNgOJrLktbuPOSjkxhH46Ye8yICKAAAAAAAAEAAAAAAAAAAgAAAAAAAAAA==

> <PUBCHEM_IUPAC_OPENEYE_NAME>
1-[4-(1,3-benzoxazol-2-yl)-1-piperidyl]-4-(2-thienyl)butan-1-one

> <PUBCHEM_IUPAC_CAS_NAME>
1-[4-(1,3-benzoxazol-2-yl)-1-piperidinyl]-4-thiophen-2-yl-1-butanone

> <PUBCHEM_IUPAC_NAME>
1-[4-(1,3-benzoxazol-2-yl)piperidin-1-yl]-4-thiophen-2-ylbutan-1-one

> <PUBCHEM_IUPAC_SYSTEMATIC_NAME>
1-[4-(1,3-benzoxazol-2-yl)piperidin-1-yl]-4-thiophen-2-yl-butan-1-one

> <PUBCHEM_IUPAC_TRADITIONAL_NAME>
1-[4-(1,3-benzoxazol-2-yl)piperidino]-4-(2-thienyl)butan-1-one

> <PUBCHEM_IUPAC_INCHI>
InChI=1S/C20H22N2O2S/c23-19(9-3-5-16-6-4-14-25-16)22-12-10-15(11-13-22)20-21-17-7-1-2-8-18(17)24-20/h1-2,4,6-8,14-15H,3,5,9-13H2

> <PUBCHEM_IUPAC_INCHIKEY>
MDKLDZBFHNJRBK-UHFFFAOYSA-N

> <PUBCHEM_XLOGP3_AA>
3.8

> <PUBCHEM_EXACT_MASS>
354.140199

> <PUBCHEM_MOLECULAR_FORMULA>
C20H22N2O2S

> <PUBCHEM_MOLECULAR_WEIGHT>
354.46588

> <PUBCHEM_OPENEYE_CAN_SMILES>
C1CN(CCC1C2=NC3=CC=CC=C3O2)C(=O)CCCC4=CC=CS4

> <PUBCHEM_OPENEYE_ISO_SMILES>
C1CN(CCC1C2=NC3=CC=CC=C3O2)C(=O)CCCC4=CC=CS4

> <PUBCHEM_CACTVS_TPSA>
74.6

> <PUBCHEM_MONOISOTOPIC_WEIGHT>
354.140199

> <PUBCHEM_TOTAL_CHARGE>
0

> <PUBCHEM_HEAVY_ATOM_COUNT>
25

> <PUBCHEM_ATOM_DEF_STEREO_COUNT>
0

> <PUBCHEM_ATOM_UDEF_STEREO_COUNT>
0

> <PUBCHEM_BOND_DEF_STEREO_COUNT>
0

> <PUBCHEM_BOND_UDEF_STEREO_COUNT>
0

> <PUBCHEM_ISOTOPIC_ATOM_COUNT>
0

> <PUBCHEM_COMPONENT_COUNT>
1

> <PUBCHEM_CACTVS_TAUTO_COUNT>
1

> <PUBCHEM_COORDINATE_TYPE>
1
5
255

> <PUBCHEM_BONDANNOTATIONS>
1  20  8
1  25  8
15  16  8
15  18  8
16  19  8
18  21  8
19  22  8
2  11  8
2  15  8
20  23  8
21  22  8
23  24  8
24  25  8
5  11  8
5  16  8

$$$$

