3492
  -OEChem-06251223272D

 49 49  0     1  0  0  0  0  0999 V2000
    6.8671    2.8100    0.0000 S   0  0  0  0  0  0  0  0  0  0  0  0
    5.1350   -2.1900    0.0000 O   0  0  0  0  0  0  0  0  0  0  0  0
    2.5369   -0.6900    0.0000 O   0  0  0  0  0  0  0  0  0  0  0  0
    2.5369   -2.6900    0.0000 O   0  0  0  0  0  0  0  0  0  0  0  0
    6.0010   -0.6900    0.0000 O   0  0  0  0  0  0  0  0  0  0  0  0
    5.1350   -4.1900    0.0000 O   0  0  0  0  0  0  0  0  0  0  0  0
    6.0010    0.3100    0.0000 O   0  0  0  0  0  0  0  0  0  0  0  0
    3.4030    3.8100    0.0000 O   0  0  0  0  0  0  0  0  0  0  0  0
    5.1350    3.8100    0.0000 O   0  0  0  0  0  0  0  0  0  0  0  0
    8.5991    2.8100    0.0000 O   0  0  0  0  0  0  0  0  0  0  0  0
    4.2690    0.3100    0.0000 N   0  0  0  0  0  0  0  0  0  0  0  0
    4.2690    2.3100    0.0000 N   0  0  0  0  0  0  0  0  0  0  0  0
    7.7331    2.3100    0.0000 N   0  0  0  0  0  0  0  0  0  0  0  0
    4.2690   -0.6900    0.0000 C   0  0  3  0  0  0  0  0  0  0  0  0
    3.4030   -1.1900    0.0000 C   0  0  3  0  0  0  0  0  0  0  0  0
    3.4030   -2.1900    0.0000 C   0  0  3  0  0  0  0  0  0  0  0  0
    4.2690   -2.6900    0.0000 C   0  0  3  0  0  0  0  0  0  0  0  0
    5.1350   -1.1900    0.0000 C   0  0  3  0  0  0  0  0  0  0  0  0
    5.1350    1.8100    0.0000 C   0  0  3  0  0  0  0  0  0  0  0  0
    4.2690   -3.6900    0.0000 C   0  0  0  0  0  0  0  0  0  0  0  0
    6.0010    2.3100    0.0000 C   0  0  0  0  0  0  0  0  0  0  0  0
    5.1350    0.8100    0.0000 C   0  0  0  0  0  0  0  0  0  0  0  0
    5.5010    3.1760    0.0000 C   0  0  0  0  0  0  0  0  0  0  0  0
    6.5010    1.4440    0.0000 C   0  0  0  0  0  0  0  0  0  0  0  0
    4.2690    3.3100    0.0000 C   0  0  0  0  0  0  0  0  0  0  0  0
    3.4030    4.8100    0.0000 C   0  0  0  0  0  0  0  0  0  0  0  0
    4.8059   -0.3800    0.0000 H   0  0  0  0  0  0  0  0  0  0  0  0
    2.8660   -1.5000    0.0000 H   0  0  0  0  0  0  0  0  0  0  0  0
    3.4030   -2.8100    0.0000 H   0  0  0  0  0  0  0  0  0  0  0  0
    4.8059   -3.0000    0.0000 H   0  0  0  0  0  0  0  0  0  0  0  0
    5.1350   -0.5700    0.0000 H   0  0  0  0  0  0  0  0  0  0  0  0
    3.7320    0.6200    0.0000 H   0  0  0  0  0  0  0  0  0  0  0  0
    5.1350    2.4300    0.0000 H   0  0  0  0  0  0  0  0  0  0  0  0
    3.6584   -3.5823    0.0000 H   0  0  0  0  0  0  0  0  0  0  0  0
    4.0569   -4.2726    0.0000 H   0  0  0  0  0  0  0  0  0  0  0  0
    2.0000   -1.0000    0.0000 H   0  0  0  0  0  0  0  0  0  0  0  0
    2.5369   -3.3100    0.0000 H   0  0  0  0  0  0  0  0  0  0  0  0
    6.5380   -1.0000    0.0000 H   0  0  0  0  0  0  0  0  0  0  0  0
    6.0380    3.4860    0.0000 H   0  0  0  0  0  0  0  0  0  0  0  0
    5.1910    3.7130    0.0000 H   0  0  0  0  0  0  0  0  0  0  0  0
    4.9641    2.8660    0.0000 H   0  0  0  0  0  0  0  0  0  0  0  0
    5.9641    1.1340    0.0000 H   0  0  0  0  0  0  0  0  0  0  0  0
    6.8110    0.9070    0.0000 H   0  0  0  0  0  0  0  0  0  0  0  0
    7.0380    1.7540    0.0000 H   0  0  0  0  0  0  0  0  0  0  0  0
    3.7320    2.0000    0.0000 H   0  0  0  0  0  0  0  0  0  0  0  0
    5.1350   -4.8100    0.0000 H   0  0  0  0  0  0  0  0  0  0  0  0
    4.0230    4.8100    0.0000 H   0  0  0  0  0  0  0  0  0  0  0  0
    3.4030    5.4300    0.0000 H   0  0  0  0  0  0  0  0  0  0  0  0
    2.7830    4.8100    0.0000 H   0  0  0  0  0  0  0  0  0  0  0  0
  1 13  1  0  0  0  0
  1 21  1  0  0  0  0
  2 17  1  0  0  0  0
  2 18  1  0  0  0  0
  3 15  1  0  0  0  0
  3 36  1  0  0  0  0
  4 16  1  0  0  0  0
  4 37  1  0  0  0  0
  5 18  1  0  0  0  0
  5 38  1  0  0  0  0
  6 20  1  0  0  0  0
  6 46  1  0  0  0  0
  7 22  2  0  0  0  0
  8 25  1  0  0  0  0
  8 26  1  0  0  0  0
  9 25  2  0  0  0  0
 10 13  2  0  0  0  0
 11 14  1  0  0  0  0
 11 22  1  0  0  0  0
 11 32  1  0  0  0  0
 12 19  1  0  0  0  0
 12 25  1  0  0  0  0
 12 45  1  0  0  0  0
 14 15  1  0  0  0  0
 14 18  1  0  0  0  0
 14 27  1  0  0  0  0
 15 16  1  0  0  0  0
 15 28  1  0  0  0  0
 16 17  1  0  0  0  0
 16 29  1  0  0  0  0
 17 20  1  0  0  0  0
 17 30  1  0  0  0  0
 18 31  1  0  0  0  0
 19 21  1  0  0  0  0
 19 22  1  0  0  0  0
 19 33  1  0  0  0  0
 20 34  1  0  0  0  0
 20 35  1  0  0  0  0
 21 23  1  0  0  0  0
 21 24  1  0  0  0  0
 23 39  1  0  0  0  0
 23 40  1  0  0  0  0
 23 41  1  0  0  0  0
 24 42  1  0  0  0  0
 24 43  1  0  0  0  0
 24 44  1  0  0  0  0
 26 47  1  0  0  0  0
 26 48  1  0  0  0  0
 26 49  1  0  0  0  0
M  END
> <PUBCHEM_COMPOUND_CID>
3492

> <PUBCHEM_COMPOUND_CANONICALIZED>
1

> <PUBCHEM_CACTVS_COMPLEXITY>
521

> <PUBCHEM_CACTVS_HBOND_ACCEPTOR>
11

> <PUBCHEM_CACTVS_HBOND_DONOR>
6

> <PUBCHEM_CACTVS_ROTATABLE_BOND>
7

> <PUBCHEM_CACTVS_SUBSKEYS>
AAADceBzPABAAAAAAAAAAAAAAAAAAAAAAAAkAAAAAAAAAAAAAAAAHgQUSAAADDzxwAcCCALABgAJAAEQGAAAAAAAAAAAAIGIAAETUBIAgCAXQAAHFgCXAAHwcAcIAAAAAAAAAAAAAAAAAAAAAAAAAAAAAA==

> <PUBCHEM_IUPAC_OPENEYE_NAME>
methyl N-[2-methyl-2-nitrososulfanyl-1-[[2,4,5-trihydroxy-6-(hydroxymethyl)tetrahydropyran-3-yl]carbamoyl]propyl]carbamate

> <PUBCHEM_IUPAC_CAS_NAME>
N-[3-methyl-3-(nitrosothio)-1-oxo-1-[[2,4,5-trihydroxy-6-(hydroxymethyl)-3-oxanyl]amino]butan-2-yl]carbamic acid methyl ester

> <PUBCHEM_IUPAC_NAME>
methyl N-[3-methyl-3-nitrososulfanyl-1-oxo-1-[[2,4,5-trihydroxy-6-(hydroxymethyl)oxan-3-yl]amino]butan-2-yl]carbamate

> <PUBCHEM_IUPAC_SYSTEMATIC_NAME>
methyl N-[1-[[6-(hydroxymethyl)-2,4,5-tris(oxidanyl)oxan-3-yl]amino]-3-methyl-3-nitrososulfanyl-1-oxidanylidene-butan-2-yl]carbamate

> <PUBCHEM_IUPAC_TRADITIONAL_NAME>
N-[2-methyl-2-(nitrosothio)-1-[(2,4,5-trihydroxy-6-methylol-tetrahydropyran-3-yl)carbamoyl]propyl]carbamic acid methyl ester

> <PUBCHEM_IUPAC_INCHI>
InChI=1S/C13H23N3O9S/c1-13(2,26-16-23)9(15-12(22)24-3)10(20)14-6-8(19)7(18)5(4-17)25-11(6)21/h5-9,11,17-19,21H,4H2,1-3H3,(H,14,20)(H,15,22)

> <PUBCHEM_IUPAC_INCHIKEY>
UHRABXOULZIJOH-UHFFFAOYSA-N

> <PUBCHEM_XLOGP3_AA>
-2.2

> <PUBCHEM_EXACT_MASS>
397.1155

> <PUBCHEM_MOLECULAR_FORMULA>
C13H23N3O9S

> <PUBCHEM_MOLECULAR_WEIGHT>
397.40142

> <PUBCHEM_OPENEYE_CAN_SMILES>
CC(C)(C(C(=O)NC1C(C(C(OC1O)CO)O)O)NC(=O)OC)SN=O

> <PUBCHEM_OPENEYE_ISO_SMILES>
CC(C)(C(C(=O)NC1C(C(C(OC1O)CO)O)O)NC(=O)OC)SN=O

> <PUBCHEM_CACTVS_TPSA>
212

> <PUBCHEM_MONOISOTOPIC_WEIGHT>
397.1155

> <PUBCHEM_TOTAL_CHARGE>
0

> <PUBCHEM_HEAVY_ATOM_COUNT>
26

> <PUBCHEM_ATOM_DEF_STEREO_COUNT>
0

> <PUBCHEM_ATOM_UDEF_STEREO_COUNT>
6

> <PUBCHEM_BOND_DEF_STEREO_COUNT>
0

> <PUBCHEM_BOND_UDEF_STEREO_COUNT>
0

> <PUBCHEM_ISOTOPIC_ATOM_COUNT>
0

> <PUBCHEM_COMPONENT_COUNT>
1

> <PUBCHEM_CACTVS_TAUTO_COUNT>
4

> <PUBCHEM_COORDINATE_TYPE>
1
5
255

> <PUBCHEM_BONDANNOTATIONS>
14  11  3
17  20  3
19  21  3
15  3  3
16  4  3
18  5  3

$$$$

