442845
  -OEChem-07051212592D

 36 38  0     0  0  0  0  0  0999 V2000
    3.8611    0.8026    0.0000 O   0  0  0  0  0  0  0  0  0  0  0  0
    2.9380   -2.7852    0.0000 O   0  0  0  0  0  0  0  0  0  0  0  0
    4.6701   -3.7852    0.0000 O   0  0  0  0  0  0  0  0  0  0  0  0
    5.1701    1.7536    0.0000 N   0  0  0  0  0  0  0  0  0  0  0  0
    4.6701   -0.7852    0.0000 C   0  0  0  0  0  0  0  0  0  0  0  0
    4.6701    0.2148    0.0000 C   0  0  0  0  0  0  0  0  0  0  0  0
    3.8041   -1.2852    0.0000 C   0  0  0  0  0  0  0  0  0  0  0  0
    5.5361   -1.2852    0.0000 C   0  0  0  0  0  0  0  0  0  0  0  0
    3.8041   -2.2852    0.0000 C   0  0  0  0  0  0  0  0  0  0  0  0
    4.1701    1.7536    0.0000 C   0  0  0  0  0  0  0  0  0  0  0  0
    4.6701   -2.7852    0.0000 C   0  0  0  0  0  0  0  0  0  0  0  0
    3.5823    2.5626    0.0000 C   0  0  0  0  0  0  0  0  0  0  0  0
    5.5361   -2.2852    0.0000 C   0  0  0  0  0  0  0  0  0  0  0  0
    5.4791    0.8026    0.0000 C   0  0  0  0  0  0  0  0  0  0  0  0
    3.9890    3.4762    0.0000 C   0  0  0  0  0  0  0  0  0  0  0  0
    2.5878    2.4581    0.0000 C   0  0  0  0  0  0  0  0  0  0  0  0
    3.4013    4.2852    0.0000 C   0  0  0  0  0  0  0  0  0  0  0  0
    2.0000    3.2671    0.0000 C   0  0  0  0  0  0  0  0  0  0  0  0
    2.4067    4.1807    0.0000 C   0  0  0  0  0  0  0  0  0  0  0  0
    2.0720   -2.2852    0.0000 C   0  0  0  0  0  0  0  0  0  0  0  0
    5.5361   -4.2852    0.0000 C   0  0  0  0  0  0  0  0  0  0  0  0
    3.2671   -0.9752    0.0000 H   0  0  0  0  0  0  0  0  0  0  0  0
    6.0730   -0.9752    0.0000 H   0  0  0  0  0  0  0  0  0  0  0  0
    6.0730   -2.5952    0.0000 H   0  0  0  0  0  0  0  0  0  0  0  0
    6.0688    0.6110    0.0000 H   0  0  0  0  0  0  0  0  0  0  0  0
    4.6056    3.5410    0.0000 H   0  0  0  0  0  0  0  0  0  0  0  0
    2.3356    1.8917    0.0000 H   0  0  0  0  0  0  0  0  0  0  0  0
    3.6534    4.8516    0.0000 H   0  0  0  0  0  0  0  0  0  0  0  0
    1.3834    3.2023    0.0000 H   0  0  0  0  0  0  0  0  0  0  0  0
    2.0423    4.6823    0.0000 H   0  0  0  0  0  0  0  0  0  0  0  0
    2.3820   -1.7483    0.0000 H   0  0  0  0  0  0  0  0  0  0  0  0
    1.5351   -1.9752    0.0000 H   0  0  0  0  0  0  0  0  0  0  0  0
    1.7620   -2.8222    0.0000 H   0  0  0  0  0  0  0  0  0  0  0  0
    5.2261   -4.8222    0.0000 H   0  0  0  0  0  0  0  0  0  0  0  0
    6.0730   -4.5952    0.0000 H   0  0  0  0  0  0  0  0  0  0  0  0
    5.8461   -3.7483    0.0000 H   0  0  0  0  0  0  0  0  0  0  0  0
  1  6  1  0  0  0  0
  1 10  1  0  0  0  0
  2  9  1  0  0  0  0
  2 20  1  0  0  0  0
  3 11  1  0  0  0  0
  3 21  1  0  0  0  0
  4 10  2  0  0  0  0
  4 14  1  0  0  0  0
  5  6  1  0  0  0  0
  5  7  2  0  0  0  0
  5  8  1  0  0  0  0
  6 14  2  0  0  0  0
  7  9  1  0  0  0  0
  7 22  1  0  0  0  0
  8 13  2  0  0  0  0
  8 23  1  0  0  0  0
  9 11  2  0  0  0  0
 10 12  1  0  0  0  0
 11 13  1  0  0  0  0
 12 15  2  0  0  0  0
 12 16  1  0  0  0  0
 13 24  1  0  0  0  0
 14 25  1  0  0  0  0
 15 17  1  0  0  0  0
 15 26  1  0  0  0  0
 16 18  2  0  0  0  0
 16 27  1  0  0  0  0
 17 19  2  0  0  0  0
 17 28  1  0  0  0  0
 18 19  1  0  0  0  0
 18 29  1  0  0  0  0
 19 30  1  0  0  0  0
 20 31  1  0  0  0  0
 20 32  1  0  0  0  0
 20 33  1  0  0  0  0
 21 34  1  0  0  0  0
 21 35  1  0  0  0  0
 21 36  1  0  0  0  0
M  END
> <PUBCHEM_COMPOUND_CID>
442845

> <PUBCHEM_COMPOUND_CANONICALIZED>
1

> <PUBCHEM_CACTVS_COMPLEXITY>
319

> <PUBCHEM_CACTVS_HBOND_ACCEPTOR>
4

> <PUBCHEM_CACTVS_HBOND_DONOR>
0

> <PUBCHEM_CACTVS_ROTATABLE_BOND>
4

> <PUBCHEM_CACTVS_SUBSKEYS>
AAADccB6MAAAAAAAAAAAAAAAAAAAAWAAAAAwYAAAAAAAAAAB0AAAHgAAAAAADATBmgY+hpIIFECoArF3VASCiCA/YCAI2CGvzNgPJrLEtTuPOSrkxhHa6Yfa/L7OIAABAAAAQABAAAIAAACAAAAAAAAAAA==

> <PUBCHEM_IUPAC_OPENEYE_NAME>
5-(3,4-dimethoxyphenyl)-2-phenyl-oxazole

> <PUBCHEM_IUPAC_CAS_NAME>
5-(3,4-dimethoxyphenyl)-2-phenyloxazole

> <PUBCHEM_IUPAC_NAME>
5-(3,4-dimethoxyphenyl)-2-phenyl-1,3-oxazole

> <PUBCHEM_IUPAC_SYSTEMATIC_NAME>
5-(3,4-dimethoxyphenyl)-2-phenyl-1,3-oxazole

> <PUBCHEM_IUPAC_TRADITIONAL_NAME>
5-(3,4-dimethoxyphenyl)-2-phenyl-oxazole

> <PUBCHEM_IUPAC_INCHI>
InChI=1S/C17H15NO3/c1-19-14-9-8-13(10-15(14)20-2)16-11-18-17(21-16)12-6-4-3-5-7-12/h3-11H,1-2H3

> <PUBCHEM_IUPAC_INCHIKEY>
VABIMQUXFWWAPI-UHFFFAOYSA-N

> <PUBCHEM_XLOGP3>
4.6

> <PUBCHEM_EXACT_MASS>
281.105193

> <PUBCHEM_MOLECULAR_FORMULA>
C17H15NO3

> <PUBCHEM_MOLECULAR_WEIGHT>
281.3059

> <PUBCHEM_OPENEYE_CAN_SMILES>
COC1=C(C=C(C=C1)C2=CN=C(O2)C3=CC=CC=C3)OC

> <PUBCHEM_OPENEYE_ISO_SMILES>
COC1=C(C=C(C=C1)C2=CN=C(O2)C3=CC=CC=C3)OC

> <PUBCHEM_CACTVS_TPSA>
44.5

> <PUBCHEM_MONOISOTOPIC_WEIGHT>
281.105193

> <PUBCHEM_TOTAL_CHARGE>
0

> <PUBCHEM_HEAVY_ATOM_COUNT>
21

> <PUBCHEM_ATOM_DEF_STEREO_COUNT>
0

> <PUBCHEM_ATOM_UDEF_STEREO_COUNT>
0

> <PUBCHEM_BOND_DEF_STEREO_COUNT>
0

> <PUBCHEM_BOND_UDEF_STEREO_COUNT>
0

> <PUBCHEM_ISOTOPIC_ATOM_COUNT>
0

> <PUBCHEM_COMPONENT_COUNT>
1

> <PUBCHEM_CACTVS_TAUTO_COUNT>
1

> <PUBCHEM_COORDINATE_TYPE>
1
5
255

> <PUBCHEM_BONDANNOTATIONS>
1  10  8
1  6  8
11  13  8
12  15  8
12  16  8
15  17  8
16  18  8
17  19  8
18  19  8
4  10  8
4  14  8
5  7  8
5  8  8
6  14  8
7  9  8
8  13  8
9  11  8

$$$$

