5460331
  -OEChem-07051212492D

 54 53  0     1  0  0  0  0  0999 V2000
    6.8671    0.8100    0.0000 S   0  0  0  0  0  0  0  0  0  0  0  0
    6.0010    0.3100    0.0000 S   0  0  0  0  0  0  0  0  0  0  0  0
    3.4030    0.8100    0.0000 S   0  0  0  0  0  0  0  0  0  0  0  0
   17.2594    0.8100    0.0000 P   0  0  0  0  0  0  0  0  0  0  0  0
   16.3933    0.3100    0.0000 O   0  0  0  0  0  0  0  0  0  0  0  0
   12.9292   -0.6900    0.0000 O   0  0  0  0  0  0  0  0  0  0  0  0
   13.7953   -1.1900    0.0000 O   0  0  0  0  0  0  0  0  0  0  0  0
   15.5273   -1.1900    0.0000 O   0  0  0  0  0  0  0  0  0  0  0  0
   18.1254    1.3100    0.0000 O   0  0  0  0  0  0  0  0  0  0  0  0
   17.7594   -0.0560    0.0000 O   0  0  0  0  0  0  0  0  0  0  0  0
   16.7594    1.6760    0.0000 O   0  0  0  0  0  0  0  0  0  0  0  0
    2.5369    1.3100    0.0000 O   0  0  0  0  0  0  0  0  0  0  0  0
    2.9030   -0.0560    0.0000 O   0  0  0  0  0  0  0  0  0  0  0  0
    3.9030    1.6760    0.0000 O   0  0  0  0  0  0  0  0  0  0  0  0
   13.7953    0.8100    0.0000 N   0  0  0  0  0  0  0  0  0  0  0  0
   10.3312    0.8100    0.0000 C   0  0  0  0  0  0  0  0  0  0  0  0
   11.1972    0.3100    0.0000 C   0  0  0  0  0  0  0  0  0  0  0  0
    9.4651    0.3100    0.0000 C   0  0  0  0  0  0  0  0  0  0  0  0
   12.0632    0.8100    0.0000 C   0  0  0  0  0  0  0  0  0  0  0  0
   14.6613    0.3100    0.0000 C   0  0  1  0  0  0  0  0  0  0  0  0
   15.5273    0.8100    0.0000 C   0  0  1  0  0  0  0  0  0  0  0  0
    8.5991    0.8100    0.0000 C   0  0  0  0  0  0  0  0  0  0  0  0
   12.9292    0.3100    0.0000 C   0  0  0  0  0  0  0  0  0  0  0  0
    7.7331    0.3100    0.0000 C   0  0  0  0  0  0  0  0  0  0  0  0
   15.5273    1.8100    0.0000 C   0  0  0  0  0  0  0  0  0  0  0  0
   14.6613   -0.6900    0.0000 C   0  0  0  0  0  0  0  0  0  0  0  0
    5.1350    0.8100    0.0000 C   0  0  0  0  0  0  0  0  0  0  0  0
    4.2690    0.3100    0.0000 C   0  0  0  0  0  0  0  0  0  0  0  0
   10.7297    1.2850    0.0000 H   0  0  0  0  0  0  0  0  0  0  0  0
    9.9326    1.2850    0.0000 H   0  0  0  0  0  0  0  0  0  0  0  0
   10.7987   -0.1649    0.0000 H   0  0  0  0  0  0  0  0  0  0  0  0
   11.5957   -0.1649    0.0000 H   0  0  0  0  0  0  0  0  0  0  0  0
    9.0666   -0.1649    0.0000 H   0  0  0  0  0  0  0  0  0  0  0  0
    9.8637   -0.1649    0.0000 H   0  0  0  0  0  0  0  0  0  0  0  0
   12.4617    1.2850    0.0000 H   0  0  0  0  0  0  0  0  0  0  0  0
   11.6647    1.2850    0.0000 H   0  0  0  0  0  0  0  0  0  0  0  0
   14.1244    0.0000    0.0000 H   0  0  0  0  0  0  0  0  0  0  0  0
   15.5273    0.1900    0.0000 H   0  0  0  0  0  0  0  0  0  0  0  0
    8.9976    1.2850    0.0000 H   0  0  0  0  0  0  0  0  0  0  0  0
    8.2006    1.2850    0.0000 H   0  0  0  0  0  0  0  0  0  0  0  0
   13.7953    1.4300    0.0000 H   0  0  0  0  0  0  0  0  0  0  0  0
    7.3346   -0.1649    0.0000 H   0  0  0  0  0  0  0  0  0  0  0  0
    8.1316   -0.1649    0.0000 H   0  0  0  0  0  0  0  0  0  0  0  0
   16.1473    1.8100    0.0000 H   0  0  0  0  0  0  0  0  0  0  0  0
   15.5273    2.4300    0.0000 H   0  0  0  0  0  0  0  0  0  0  0  0
   14.9073    1.8100    0.0000 H   0  0  0  0  0  0  0  0  0  0  0  0
    5.5335    1.2850    0.0000 H   0  0  0  0  0  0  0  0  0  0  0  0
    4.7365    1.2850    0.0000 H   0  0  0  0  0  0  0  0  0  0  0  0
   13.7953   -1.8100    0.0000 H   0  0  0  0  0  0  0  0  0  0  0  0
    3.8705   -0.1649    0.0000 H   0  0  0  0  0  0  0  0  0  0  0  0
    4.6675   -0.1649    0.0000 H   0  0  0  0  0  0  0  0  0  0  0  0
   18.6623    1.0000    0.0000 H   0  0  0  0  0  0  0  0  0  0  0  0
   18.3794   -0.0560    0.0000 H   0  0  0  0  0  0  0  0  0  0  0  0
    2.0000    1.0000    0.0000 H   0  0  0  0  0  0  0  0  0  0  0  0
  1  2  1  0  0  0  0
  1 24  1  0  0  0  0
  2 27  1  0  0  0  0
  3 12  1  0  0  0  0
  3 13  2  0  0  0  0
  3 14  2  0  0  0  0
  3 28  1  0  0  0  0
  4  5  1  0  0  0  0
  4  9  1  0  0  0  0
  4 10  1  0  0  0  0
  4 11  2  0  0  0  0
 21  5  1  1  0  0  0
  6 23  2  0  0  0  0
  7 26  1  0  0  0  0
  7 49  1  0  0  0  0
  8 26  2  0  0  0  0
  9 52  1  0  0  0  0
 10 53  1  0  0  0  0
 12 54  1  0  0  0  0
 20 15  1  1  0  0  0
 15 23  1  0  0  0  0
 15 41  1  0  0  0  0
 16 17  1  0  0  0  0
 16 18  1  0  0  0  0
 16 29  1  0  0  0  0
 16 30  1  0  0  0  0
 17 19  1  0  0  0  0
 17 31  1  0  0  0  0
 17 32  1  0  0  0  0
 18 22  1  0  0  0  0
 18 33  1  0  0  0  0
 18 34  1  0  0  0  0
 19 23  1  0  0  0  0
 19 35  1  0  0  0  0
 19 36  1  0  0  0  0
 20 21  1  0  0  0  0
 20 26  1  0  0  0  0
 20 37  1  0  0  0  0
 21 25  1  0  0  0  0
 21 38  1  0  0  0  0
 22 24  1  0  0  0  0
 22 39  1  0  0  0  0
 22 40  1  0  0  0  0
 24 42  1  0  0  0  0
 24 43  1  0  0  0  0
 25 44  1  0  0  0  0
 25 45  1  0  0  0  0
 25 46  1  0  0  0  0
 27 28  1  0  0  0  0
 27 47  1  0  0  0  0
 27 48  1  0  0  0  0
 28 50  1  0  0  0  0
 28 51  1  0  0  0  0
M  END
> <PUBCHEM_COMPOUND_CID>
5460331

> <PUBCHEM_COMPOUND_CANONICALIZED>
1

> <PUBCHEM_CACTVS_COMPLEXITY>
633

> <PUBCHEM_CACTVS_HBOND_ACCEPTOR>
12

> <PUBCHEM_CACTVS_HBOND_DONOR>
5

> <PUBCHEM_CACTVS_ROTATABLE_BOND>
16

> <PUBCHEM_CACTVS_SUBSKEYS>
AAADceByPAJgAAAAAAAAAAAAAAAAAAAAAAAAAAAAAAAAAAAAAAAAHgQQCCAACDzlwAaCCALAA5IIQAGQGPBAAAAAAAAAAIGIAAACABYAgCAEQAAFNgCQAAEYiACAAAAAAAAAAAAAAAAAAAAAAAAAAAAAAA==

> <PUBCHEM_IUPAC_OPENEYE_NAME>
(2S,3R)-3-phosphonooxy-2-[7-(2-sulfoethyldisulfanyl)heptanoylamino]butanoic acid

> <PUBCHEM_IUPAC_CAS_NAME>
(2S,3R)-2-[[1-oxo-7-(2-sulfoethyldisulfanyl)heptyl]amino]-3-phosphonooxybutanoic acid

> <PUBCHEM_IUPAC_NAME>
(2S,3R)-3-phosphonooxy-2-[7-(2-sulfoethyldisulfanyl)heptanoylamino]butanoic acid

> <PUBCHEM_IUPAC_SYSTEMATIC_NAME>
(2S,3R)-3-phosphonooxy-2-[7-(2-sulfoethyldisulfanyl)heptanoylamino]butanoic acid

> <PUBCHEM_IUPAC_TRADITIONAL_NAME>
(2S,3R)-3-phosphonooxy-2-[7-(2-sulfoethyldisulfanyl)heptanoylamino]butyric acid

> <PUBCHEM_IUPAC_INCHI>
InChI=1S/C13H26NO10PS3/c1-10(24-25(18,19)20)12(13(16)17)14-11(15)6-4-2-3-5-7-26-27-8-9-28(21,22)23/h10,12H,2-9H2,1H3,(H,14,15)(H,16,17)(H2,18,19,20)(H,21,22,23)/t10-,12+/m1/s1

> <PUBCHEM_IUPAC_INCHIKEY>
OBGQLHXSMIBYLN-PWSUYJOCSA-N

> <PUBCHEM_XLOGP3_AA>
-1.1

> <PUBCHEM_EXACT_MASS>
483.045646

> <PUBCHEM_MOLECULAR_FORMULA>
C13H26NO10PS3

> <PUBCHEM_MOLECULAR_WEIGHT>
483.515002

> <PUBCHEM_OPENEYE_CAN_SMILES>
CC(C(C(=O)O)NC(=O)CCCCCCSSCCS(=O)(=O)O)OP(=O)(O)O

> <PUBCHEM_OPENEYE_ISO_SMILES>
C[C@H]([C@@H](C(=O)O)NC(=O)CCCCCCSSCCS(=O)(=O)O)OP(=O)(O)O

> <PUBCHEM_CACTVS_TPSA>
247

> <PUBCHEM_MONOISOTOPIC_WEIGHT>
483.045646

> <PUBCHEM_TOTAL_CHARGE>
0

> <PUBCHEM_HEAVY_ATOM_COUNT>
28

> <PUBCHEM_ATOM_DEF_STEREO_COUNT>
2

> <PUBCHEM_ATOM_UDEF_STEREO_COUNT>
0

> <PUBCHEM_BOND_DEF_STEREO_COUNT>
0

> <PUBCHEM_BOND_UDEF_STEREO_COUNT>
0

> <PUBCHEM_ISOTOPIC_ATOM_COUNT>
0

> <PUBCHEM_COMPONENT_COUNT>
1

> <PUBCHEM_CACTVS_TAUTO_COUNT>
2

> <PUBCHEM_COORDINATE_TYPE>
1
5
255

> <PUBCHEM_BONDANNOTATIONS>
20  15  5
21  5  5

$$$$

