5282064
  -OEChem-07051213022D

 38 38  0     0  0  0  0  0  0999 V2000
    5.4641    1.9050    0.0000 S   0  0  0  0  0  0  0  0  0  0  0  0
    3.7320    1.9050    0.0000 O   0  0  0  0  0  0  0  0  0  0  0  0
    2.8660    0.4050    0.0000 O   0  0  0  0  0  0  0  0  0  0  0  0
    2.8660   -5.5950    0.0000 O   0  0  0  0  0  0  0  0  0  0  0  0
    8.0622    4.4050    0.0000 O   0  0  0  0  0  0  0  0  0  0  0  0
    6.3301    4.4050    0.0000 N   0  0  0  0  0  0  0  0  0  0  0  0
    6.3301    3.4050    0.0000 C   0  0  0  0  0  0  0  0  0  0  0  0
    5.4641    2.9050    0.0000 C   0  0  0  0  0  0  0  0  0  0  0  0
    4.5981    0.4050    0.0000 C   0  0  0  0  0  0  0  0  0  0  0  0
    2.8660   -2.5950    0.0000 C   0  0  0  0  0  0  0  0  0  0  0  0
    4.5981    1.4050    0.0000 C   0  0  0  0  0  0  0  0  0  0  0  0
    3.7320   -0.0950    0.0000 C   0  0  0  0  0  0  0  0  0  0  0  0
    2.8660   -1.5950    0.0000 C   0  0  0  0  0  0  0  0  0  0  0  0
    3.7320   -1.0950    0.0000 C   0  0  0  0  0  0  0  0  0  0  0  0
    2.0000   -3.0950    0.0000 C   0  0  0  0  0  0  0  0  0  0  0  0
    3.7320   -3.0950    0.0000 C   0  0  0  0  0  0  0  0  0  0  0  0
    7.1962    4.9050    0.0000 C   0  0  0  0  0  0  0  0  0  0  0  0
    2.0000   -4.0950    0.0000 C   0  0  0  0  0  0  0  0  0  0  0  0
    3.7320   -4.0950    0.0000 C   0  0  0  0  0  0  0  0  0  0  0  0
    2.8660   -4.5950    0.0000 C   0  0  0  0  0  0  0  0  0  0  0  0
    7.1962    5.9050    0.0000 C   0  0  0  0  0  0  0  0  0  0  0  0
    6.5422    2.8224    0.0000 H   0  0  0  0  0  0  0  0  0  0  0  0
    6.9407    3.5127    0.0000 H   0  0  0  0  0  0  0  0  0  0  0  0
    5.2520    3.4876    0.0000 H   0  0  0  0  0  0  0  0  0  0  0  0
    4.8535    2.7973    0.0000 H   0  0  0  0  0  0  0  0  0  0  0  0
    4.8101   -0.1776    0.0000 H   0  0  0  0  0  0  0  0  0  0  0  0
    5.2087    0.5127    0.0000 H   0  0  0  0  0  0  0  0  0  0  0  0
    5.7932    4.7150    0.0000 H   0  0  0  0  0  0  0  0  0  0  0  0
    2.3291   -1.2850    0.0000 H   0  0  0  0  0  0  0  0  0  0  0  0
    4.2690   -1.4050    0.0000 H   0  0  0  0  0  0  0  0  0  0  0  0
    1.4631   -2.7850    0.0000 H   0  0  0  0  0  0  0  0  0  0  0  0
    4.2690   -2.7850    0.0000 H   0  0  0  0  0  0  0  0  0  0  0  0
    1.4631   -4.4050    0.0000 H   0  0  0  0  0  0  0  0  0  0  0  0
    4.2690   -4.4050    0.0000 H   0  0  0  0  0  0  0  0  0  0  0  0
    7.8162    5.9050    0.0000 H   0  0  0  0  0  0  0  0  0  0  0  0
    7.1962    6.5250    0.0000 H   0  0  0  0  0  0  0  0  0  0  0  0
    6.5762    5.9050    0.0000 H   0  0  0  0  0  0  0  0  0  0  0  0
    2.3291   -5.9050    0.0000 H   0  0  0  0  0  0  0  0  0  0  0  0
  1  8  1  0  0  0  0
  1 11  1  0  0  0  0
  2 11  2  0  0  0  0
  3 12  2  0  0  0  0
  4 20  1  0  0  0  0
  4 38  1  0  0  0  0
  5 17  2  0  0  0  0
  6  7  1  0  0  0  0
  6 17  1  0  0  0  0
  6 28  1  0  0  0  0
  7  8  1  0  0  0  0
  7 22  1  0  0  0  0
  7 23  1  0  0  0  0
  8 24  1  0  0  0  0
  8 25  1  0  0  0  0
  9 11  1  0  0  0  0
  9 12  1  0  0  0  0
  9 26  1  0  0  0  0
  9 27  1  0  0  0  0
 10 13  1  0  0  0  0
 10 15  2  0  0  0  0
 10 16  1  0  0  0  0
 12 14  1  0  0  0  0
 13 14  2  0  0  0  0
 13 29  1  0  0  0  0
 14 30  1  0  0  0  0
 15 18  1  0  0  0  0
 15 31  1  0  0  0  0
 16 19  2  0  0  0  0
 16 32  1  0  0  0  0
 17 21  1  0  0  0  0
 18 20  2  0  0  0  0
 18 33  1  0  0  0  0
 19 20  1  0  0  0  0
 19 34  1  0  0  0  0
 21 35  1  0  0  0  0
 21 36  1  0  0  0  0
 21 37  1  0  0  0  0
M  END
> <PUBCHEM_COMPOUND_CID>
5282064

> <PUBCHEM_COMPOUND_CANONICALIZED>
1

> <PUBCHEM_CACTVS_COMPLEXITY>
401

> <PUBCHEM_CACTVS_HBOND_ACCEPTOR>
5

> <PUBCHEM_CACTVS_HBOND_DONOR>
2

> <PUBCHEM_CACTVS_ROTATABLE_BOND>
8

> <PUBCHEM_CACTVS_SUBSKEYS>
AAADceByOABAAAAAAAAAAAAAAAAAAAAAAAAwAAAAAAAAAAABAAAAHgQQCAAADATF2ASyBoLAAgiIAqFSEAACAAAgIBAIiIEOCMgIJjKqERKAcAAk1hGomYeAwAAOIAAAAAAAAABAAAAAAAAAAAAAAAAAAA==

> <PUBCHEM_IUPAC_OPENEYE_NAME>
S-(2-acetamidoethyl) (E)-5-(4-hydroxyphenyl)-3-oxo-pent-4-enethioate

> <PUBCHEM_IUPAC_CAS_NAME>
(E)-5-(4-hydroxyphenyl)-3-oxo-4-pentenethioic acid S-(2-acetamidoethyl) ester

> <PUBCHEM_IUPAC_NAME>
S-(2-acetamidoethyl) (E)-5-(4-hydroxyphenyl)-3-oxopent-4-enethioate

> <PUBCHEM_IUPAC_SYSTEMATIC_NAME>
S-(2-acetamidoethyl) (E)-5-(4-hydroxyphenyl)-3-oxidanylidene-pent-4-enethioate

> <PUBCHEM_IUPAC_TRADITIONAL_NAME>
(E)-5-(4-hydroxyphenyl)-3-keto-pent-4-enethioic acid S-(2-acetamidoethyl) ester

> <PUBCHEM_IUPAC_INCHI>
InChI=1S/C15H17NO4S/c1-11(17)16-8-9-21-15(20)10-14(19)7-4-12-2-5-13(18)6-3-12/h2-7,18H,8-10H2,1H3,(H,16,17)/b7-4+

> <PUBCHEM_IUPAC_INCHIKEY>
LZTXIEWMBZRCDP-QPJJXVBHSA-N

> <PUBCHEM_XLOGP3_AA>
1.6

> <PUBCHEM_EXACT_MASS>
307.087829

> <PUBCHEM_MOLECULAR_FORMULA>
C15H17NO4S

> <PUBCHEM_MOLECULAR_WEIGHT>
307.36478

> <PUBCHEM_OPENEYE_CAN_SMILES>
CC(=O)NCCSC(=O)CC(=O)C=CC1=CC=C(C=C1)O

> <PUBCHEM_OPENEYE_ISO_SMILES>
CC(=O)NCCSC(=O)CC(=O)/C=C/C1=CC=C(C=C1)O

> <PUBCHEM_CACTVS_TPSA>
109

> <PUBCHEM_MONOISOTOPIC_WEIGHT>
307.087829

> <PUBCHEM_TOTAL_CHARGE>
0

> <PUBCHEM_HEAVY_ATOM_COUNT>
21

> <PUBCHEM_ATOM_DEF_STEREO_COUNT>
0

> <PUBCHEM_ATOM_UDEF_STEREO_COUNT>
0

> <PUBCHEM_BOND_DEF_STEREO_COUNT>
1

> <PUBCHEM_BOND_UDEF_STEREO_COUNT>
0

> <PUBCHEM_ISOTOPIC_ATOM_COUNT>
0

> <PUBCHEM_COMPONENT_COUNT>
1

> <PUBCHEM_CACTVS_TAUTO_COUNT>
28

> <PUBCHEM_COORDINATE_TYPE>
1
5
255

> <PUBCHEM_BONDANNOTATIONS>
10  15  8
10  16  8
15  18  8
16  19  8
18  20  8
19  20  8

$$$$

