   Color/Form

     * Pale yellow monoclinic crystals from water
     * Bright yellow powder
     * Bright yellow, crystalline powder.

   from [1]HSDB

   Odor

     * Faint ammonia; slightly pungent
     * Odorless
     * Slight ammonia-like odor.

   from [2]HSDB

   Taste
        Burning sweet taste
   from [3]HSDB

   Boiling Point
        332 deg C (calculated)
   from [4]HSDB

   Melting Point
        146 deg C
   from [5]HSDB

   Corrosivity
        Will attack some forms of plastics, coatings, and rubber.
   from [6]HSDB

   Density/Specific Gravity
        1.424 at 20 deg C/4 deg C
   from [7]HSDB

   Dissociation Constants
        pKa = 1.01
   from [8]HSDB

   Heat of Combustion
        -9,920 Btu/lb= -5,510 cal/g= -231x10+5 J/kg
   from [9]HSDB

   Heat of Vaporization
        17,220.2 GCAL/GMOL
   from [10]HSDB

   Octanol/Water Partition Coefficient
        log Kow = 1.39
   from [11]HSDB

   pH
        pH = 6.7
   from [12]HSDB

   Solubilities

     * Very soluble in methanol; soluble in ethanol, ether, acetone,
       chloroform, toluene; slightly soluble in benzene, deuterated DMSO
     * 1 g/45 mL boiling water; 1 g/25 mL alcohol; 1 g/30 mL ether
     * 0.08 g/100 g water at 18.5 deg C.
     * In water, 390 ppm at 20 deg C
     * In water, 724 mg/L at 25 deg C
     * In water, 600 mg/L at 25 deg C
     * In water, 728 mg/L at 30 deg C

   from [13]HSDB

   Spectral Properties

     * MAX ABSORPTION (95% ETHANOL): 374 NM (E= 151, 1%, 1 CM)
     * MAX ABSORPTION (ALCOHOL): 227 NM SHOULDER (LOG E= 3.86); 375 NM
       (LOG E= 4.19); SADTLER REFERENCE NUMBER: 8451 (IR, PRISM)
     * IR: 2257 (Coblentz Society Spectral Collection)
     * UV: 2243 (Sadtler Research Laboratories Spectral Collection)
     * 1H NMR: 9378 (Sadtler Research Laboratories Spectral Collection)
     * MASS: 3591 (NIST/EPA/MSDC Mass Spectral Database, 1990 version)

   from [14]HSDB

   Vapor Density
        4.77 (air= 1)
   from [15]HSDB

   Vapor Pressure
        3.2X10-6 mm Hg at 25 deg C
   from [16]HSDB

   Relative Evaporation Rate
        Evaporation rate (butyl acetate= 1): 22.6
   from [17]HSDB

   Other Chemical/Physical Properties

     * Vapor Pressure = 1 mm Hg @ 142.4 deg C
     * Ideal Gas Heat of Formation = 5.95X10+7 Joules/kmol
     * Liquid molar volume is 0.131 cu m/kmol (predicted)
     * Heat of fusion at melting point = 21.2 kJ/mol
     * Forms water soluble salts with mineral acids
     * Henry's Law constant = 1.26X10-9 atm-cu m/mol at 25 deg C
     * Hydroxyl radical reaction rate constant = 1.35X10-11 cu
       cm/molec-sec at 25 deg C (est)

   from [18]HSDB

   Computed Properties
   Molecular Weight                  138.12404 [g/mol]
   Molecular Formula                 C[6]H[6]N[2]O[2]
   XLogP3                            1.4
   H-Bond Donor                      1
   H-Bond Acceptor                   3
   Rotatable Bond Count              0
   Exact Mass                        138.042927
   MonoIsotopic Mass                 138.042927
   Topological Polar Surface Area    71.8
   Heavy Atom Count                  10
   Formal Charge                     0
   Complexity                        124
   Isotope Atom Count                0
   Defined Atom Stereocenter Count   0
   Undefined Atom Stereocenter Count 0
   Defined Bond Stereocenter Count   0
   Undefined Bond Stereocenter Count 0
   Covalently-Bonded Unit Count      1
   Feature 3D Acceptor Count         2
   Feature 3D Donor Count            1
   Feature 3D Anion Count            1
   Feature 3D Cation Count           1
   Feature 3D Ring Count             1
   Effective Rotor Count             1
   Conformer Sampling RMSD           0.4
   CID Conformer Count               [19]1

References

   1. http://toxnet.nlm.nih.gov/cgi-bin/sis/search/r?dbs+hsdb:@term+@rn+@rel+100-01-6
   2. http://toxnet.nlm.nih.gov/cgi-bin/sis/search/r?dbs+hsdb:@term+@rn+@rel+100-01-6
   3. http://toxnet.nlm.nih.gov/cgi-bin/sis/search/r?dbs+hsdb:@term+@rn+@rel+100-01-6
   4. http://toxnet.nlm.nih.gov/cgi-bin/sis/search/r?dbs+hsdb:@term+@rn+@rel+100-01-6
   5. http://toxnet.nlm.nih.gov/cgi-bin/sis/search/r?dbs+hsdb:@term+@rn+@rel+100-01-6
   6. http://toxnet.nlm.nih.gov/cgi-bin/sis/search/r?dbs+hsdb:@term+@rn+@rel+100-01-6
   7. http://toxnet.nlm.nih.gov/cgi-bin/sis/search/r?dbs+hsdb:@term+@rn+@rel+100-01-6
   8. http://toxnet.nlm.nih.gov/cgi-bin/sis/search/r?dbs+hsdb:@term+@rn+@rel+100-01-6
   9. http://toxnet.nlm.nih.gov/cgi-bin/sis/search/r?dbs+hsdb:@term+@rn+@rel+100-01-6
  10. http://toxnet.nlm.nih.gov/cgi-bin/sis/search/r?dbs+hsdb:@term+@rn+@rel+100-01-6
  11. http://toxnet.nlm.nih.gov/cgi-bin/sis/search/r?dbs+hsdb:@term+@rn+@rel+100-01-6
  12. http://toxnet.nlm.nih.gov/cgi-bin/sis/search/r?dbs+hsdb:@term+@rn+@rel+100-01-6
  13. http://toxnet.nlm.nih.gov/cgi-bin/sis/search/r?dbs+hsdb:@term+@rn+@rel+100-01-6
  14. http://toxnet.nlm.nih.gov/cgi-bin/sis/search/r?dbs+hsdb:@term+@rn+@rel+100-01-6
  15. http://toxnet.nlm.nih.gov/cgi-bin/sis/search/r?dbs+hsdb:@term+@rn+@rel+100-01-6
  16. http://toxnet.nlm.nih.gov/cgi-bin/sis/search/r?dbs+hsdb:@term+@rn+@rel+100-01-6
  17. http://toxnet.nlm.nih.gov/cgi-bin/sis/search/r?dbs+hsdb:@term+@rn+@rel+100-01-6
  18. http://toxnet.nlm.nih.gov/cgi-bin/sis/search/r?dbs+hsdb:@term+@rn+@rel+100-01-6
  19. http://pubchem.ncbi.nlm.nih.gov/vw3d/vw3d.cgi?cid=7475
