10799
  -OEChem-06261204582D

 41 40  0     0  0  0  0  0  0999 V2000
    4.0010    4.3100    0.0000 As  0  0  0  0  0  0  0  0  0  0  0  0
    4.0010    5.3100    0.0000 O   0  0  0  0  0  0  0  0  0  0  0  0
    5.0010    4.3100    0.0000 O   0  0  0  0  0  0  0  0  0  0  0  0
    4.0010    0.3100    0.0000 O   0  0  0  0  0  0  0  0  0  0  0  0
    3.0010    4.3100    0.0000 O   0  0  0  0  0  0  0  0  0  0  0  0
    1.4030    2.8100    0.0000 O   0  0  0  0  0  0  0  0  0  0  0  0
    2.2690    1.3100    0.0000 N   0  0  0  0  0  0  0  0  0  0  0  0
    2.7020    8.2400    0.0000 N   0  0  0  0  0  0  0  0  0  0  0  0
    4.0010    3.3100    0.0000 C   0  0  0  0  0  0  0  0  0  0  0  0
    3.1350    1.8100    0.0000 C   0  0  0  0  0  0  0  0  0  0  0  0
    3.1350    2.8100    0.0000 C   0  0  0  0  0  0  0  0  0  0  0  0
    4.8671    2.8100    0.0000 C   0  0  0  0  0  0  0  0  0  0  0  0
    4.0010    1.3100    0.0000 C   0  0  0  0  0  0  0  0  0  0  0  0
    4.8671    1.8100    0.0000 C   0  0  0  0  0  0  0  0  0  0  0  0
    3.5680    8.7400    0.0000 C   0  0  0  0  0  0  0  0  0  0  0  0
    1.8360    8.7400    0.0000 C   0  0  0  0  0  0  0  0  0  0  0  0
    4.4340    8.2400    0.0000 C   0  0  0  0  0  0  0  0  0  0  0  0
    0.9699    8.2400    0.0000 C   0  0  0  0  0  0  0  0  0  0  0  0
    1.4030    1.8100    0.0000 C   0  0  0  0  0  0  0  0  0  0  0  0
    0.5369    1.3100    0.0000 C   0  0  0  0  0  0  0  0  0  0  0  0
    2.5981    3.1200    0.0000 H   0  0  0  0  0  0  0  0  0  0  0  0
    5.4040    3.1200    0.0000 H   0  0  0  0  0  0  0  0  0  0  0  0
    5.4040    1.5000    0.0000 H   0  0  0  0  0  0  0  0  0  0  0  0
    2.2690    0.6900    0.0000 H   0  0  0  0  0  0  0  0  0  0  0  0
    2.2345    9.2150    0.0000 H   0  0  0  0  0  0  0  0  0  0  0  0
    1.4374    9.2150    0.0000 H   0  0  0  0  0  0  0  0  0  0  0  0
    3.9666    9.2150    0.0000 H   0  0  0  0  0  0  0  0  0  0  0  0
    3.1695    9.2150    0.0000 H   0  0  0  0  0  0  0  0  0  0  0  0
    2.7020    7.6200    0.0000 H   0  0  0  0  0  0  0  0  0  0  0  0
    4.1241    7.7031    0.0000 H   0  0  0  0  0  0  0  0  0  0  0  0
    4.9710    7.9300    0.0000 H   0  0  0  0  0  0  0  0  0  0  0  0
    0.6599    8.7769    0.0000 H   0  0  0  0  0  0  0  0  0  0  0  0
    0.4330    7.9300    0.0000 H   0  0  0  0  0  0  0  0  0  0  0  0
    1.2800    7.7031    0.0000 H   0  0  0  0  0  0  0  0  0  0  0  0
    4.7440    8.7769    0.0000 H   0  0  0  0  0  0  0  0  0  0  0  0
    4.5380    5.6200    0.0000 H   0  0  0  0  0  0  0  0  0  0  0  0
    5.3110    4.8469    0.0000 H   0  0  0  0  0  0  0  0  0  0  0  0
    4.5380    0.0000    0.0000 H   0  0  0  0  0  0  0  0  0  0  0  0
    0.2269    1.8469    0.0000 H   0  0  0  0  0  0  0  0  0  0  0  0
    0.0000    1.0000    0.0000 H   0  0  0  0  0  0  0  0  0  0  0  0
    0.8469    0.7731    0.0000 H   0  0  0  0  0  0  0  0  0  0  0  0
  1  2  1  0  0  0  0
  1  3  1  0  0  0  0
  1  5  2  0  0  0  0
  1  9  1  0  0  0  0
  2 36  1  0  0  0  0
  3 37  1  0  0  0  0
  4 13  1  0  0  0  0
  4 38  1  0  0  0  0
  6 19  2  0  0  0  0
  7 10  1  0  0  0  0
  7 19  1  0  0  0  0
  7 24  1  0  0  0  0
  8 15  1  0  0  0  0
  8 16  1  0  0  0  0
  8 29  1  0  0  0  0
  9 11  2  0  0  0  0
  9 12  1  0  0  0  0
 10 11  1  0  0  0  0
 10 13  2  0  0  0  0
 11 21  1  0  0  0  0
 12 14  2  0  0  0  0
 12 22  1  0  0  0  0
 13 14  1  0  0  0  0
 14 23  1  0  0  0  0
 15 17  1  0  0  0  0
 15 27  1  0  0  0  0
 15 28  1  0  0  0  0
 16 18  1  0  0  0  0
 16 25  1  0  0  0  0
 16 26  1  0  0  0  0
 17 30  1  0  0  0  0
 17 31  1  0  0  0  0
 17 35  1  0  0  0  0
 18 32  1  0  0  0  0
 18 33  1  0  0  0  0
 18 34  1  0  0  0  0
 19 20  1  0  0  0  0
 20 39  1  0  0  0  0
 20 40  1  0  0  0  0
 20 41  1  0  0  0  0
M  END
> <PUBCHEM_COMPOUND_CID>
10799

> <PUBCHEM_COMPOUND_CANONICALIZED>
1

> <PUBCHEM_CACTVS_COMPLEXITY>
300

> <PUBCHEM_CACTVS_HBOND_ACCEPTOR>
6

> <PUBCHEM_CACTVS_HBOND_DONOR>
5

> <PUBCHEM_CACTVS_ROTATABLE_BOND>
4

> <PUBCHEM_CACTVS_SUBSKEYS>
AAADceBzOAAAAAAAQAAAAAAAAAAAAAAAAAAwAAAAAAAAAAABAAAAHgEQCAAACAzBkAQyxoLAAgCIACVSUACCAAAhIgCIjIAPbIgKJiLSkZOEcBhk1BHY2AeQQAAAAAAAAAAAEAAAAAAAAAAgAAAAAAAAAA==

> <PUBCHEM_IUPAC_OPENEYE_NAME>
(3-acetamido-4-hydroxy-phenyl)arsonic acid; N-ethylethanamine

> <PUBCHEM_IUPAC_CAS_NAME>
(3-acetamido-4-hydroxyphenyl)arsonic acid; N-ethylethanamine

> <PUBCHEM_IUPAC_NAME>
(3-acetamido-4-hydroxyphenyl)arsonic acid; N-ethylethanamine

> <PUBCHEM_IUPAC_SYSTEMATIC_NAME>
(3-acetamido-4-oxidanyl-phenyl)arsonic acid; N-ethylethanamine

> <PUBCHEM_IUPAC_TRADITIONAL_NAME>
(3-acetamido-4-hydroxy-phenyl)arsonic acid; diethylamine

> <PUBCHEM_IUPAC_INCHI>
InChI=1S/C8H10AsNO5.C4H11N/c1-5(11)10-7-4-6(9(13,14)15)2-3-8(7)12;1-3-5-4-2/h2-4,12H,1H3,(H,10,11)(H2,13,14,15);5H,3-4H2,1-2H3

> <PUBCHEM_IUPAC_INCHIKEY>
STEOHWLXOZVVIU-UHFFFAOYSA-N

> <PUBCHEM_EXACT_MASS>
348.066643

> <PUBCHEM_MOLECULAR_FORMULA>
C12H21AsN2O5

> <PUBCHEM_MOLECULAR_WEIGHT>
348.22714

> <PUBCHEM_OPENEYE_CAN_SMILES>
CCNCC.CC(=O)NC1=C(C=CC(=C1)[As](=O)(O)O)O

> <PUBCHEM_OPENEYE_ISO_SMILES>
CCNCC.CC(=O)NC1=C(C=CC(=C1)[As](=O)(O)O)O

> <PUBCHEM_CACTVS_TPSA>
119

> <PUBCHEM_MONOISOTOPIC_WEIGHT>
348.066643

> <PUBCHEM_TOTAL_CHARGE>
0

> <PUBCHEM_HEAVY_ATOM_COUNT>
20

> <PUBCHEM_ATOM_DEF_STEREO_COUNT>
0

> <PUBCHEM_ATOM_UDEF_STEREO_COUNT>
0

> <PUBCHEM_BOND_DEF_STEREO_COUNT>
0

> <PUBCHEM_BOND_UDEF_STEREO_COUNT>
0

> <PUBCHEM_ISOTOPIC_ATOM_COUNT>
0

> <PUBCHEM_COMPONENT_COUNT>
2

> <PUBCHEM_CACTVS_TAUTO_COUNT>
10

> <PUBCHEM_COORDINATE_TYPE>
1
5
255

> <PUBCHEM_BONDANNOTATIONS>
10  11  8
10  13  8
12  14  8
13  14  8
9  11  8
9  12  8

$$$$

