17395266
  -OEChem-06241222492D

 33 34  0     0  0  0  0  0  0999 V2000
    7.1391    2.8184    0.0000 S   0  0  0  0  0  0  0  0  0  0  0  0
    2.8660   -1.7694    0.0000 O   0  0  0  0  0  0  0  0  0  0  0  0
    7.1962    0.7306    0.0000 O   0  0  0  0  0  0  0  0  0  0  0  0
    5.4641    0.7306    0.0000 N   0  0  0  0  0  0  0  0  0  0  0  0
    4.5981   -0.7694    0.0000 C   0  0  0  0  0  0  0  0  0  0  0  0
    4.5981   -1.7694    0.0000 C   0  0  0  0  0  0  0  0  0  0  0  0
    5.4641   -0.2694    0.0000 C   0  0  0  0  0  0  0  0  0  0  0  0
    3.7320   -2.2694    0.0000 C   0  0  0  0  0  0  0  0  0  0  0  0
    5.4641   -2.2694    0.0000 C   0  0  0  0  0  0  0  0  0  0  0  0
    3.7320   -3.2694    0.0000 C   0  0  0  0  0  0  0  0  0  0  0  0
    5.4641   -3.2694    0.0000 C   0  0  0  0  0  0  0  0  0  0  0  0
    6.3301    1.2306    0.0000 C   0  0  0  0  0  0  0  0  0  0  0  0
    4.5981   -3.7694    0.0000 C   0  0  0  0  0  0  0  0  0  0  0  0
    6.3301    2.2306    0.0000 C   0  0  0  0  0  0  0  0  0  0  0  0
    5.5211    2.8184    0.0000 C   0  0  0  0  0  0  0  0  0  0  0  0
    2.0000   -2.2694    0.0000 C   0  0  0  0  0  0  0  0  0  0  0  0
    5.8301    3.7694    0.0000 C   0  0  0  0  0  0  0  0  0  0  0  0
    6.8301    3.7694    0.0000 C   0  0  0  0  0  0  0  0  0  0  0  0
    4.3860   -0.1868    0.0000 H   0  0  0  0  0  0  0  0  0  0  0  0
    3.9875   -0.8771    0.0000 H   0  0  0  0  0  0  0  0  0  0  0  0
    5.6762   -0.8520    0.0000 H   0  0  0  0  0  0  0  0  0  0  0  0
    6.0747   -0.1618    0.0000 H   0  0  0  0  0  0  0  0  0  0  0  0
    6.0010   -1.9594    0.0000 H   0  0  0  0  0  0  0  0  0  0  0  0
    4.9272    1.0406    0.0000 H   0  0  0  0  0  0  0  0  0  0  0  0
    3.1951   -3.5794    0.0000 H   0  0  0  0  0  0  0  0  0  0  0  0
    6.0010   -3.5794    0.0000 H   0  0  0  0  0  0  0  0  0  0  0  0
    4.5981   -4.3894    0.0000 H   0  0  0  0  0  0  0  0  0  0  0  0
    4.9315    2.6268    0.0000 H   0  0  0  0  0  0  0  0  0  0  0  0
    5.4657    4.2710    0.0000 H   0  0  0  0  0  0  0  0  0  0  0  0
    1.6900   -1.7325    0.0000 H   0  0  0  0  0  0  0  0  0  0  0  0
    1.4631   -2.5794    0.0000 H   0  0  0  0  0  0  0  0  0  0  0  0
    2.3100   -2.8064    0.0000 H   0  0  0  0  0  0  0  0  0  0  0  0
    7.1946    4.2710    0.0000 H   0  0  0  0  0  0  0  0  0  0  0  0
  1 14  1  0  0  0  0
  1 18  1  0  0  0  0
  2  8  1  0  0  0  0
  2 16  1  0  0  0  0
  3 12  2  0  0  0  0
  4  7  1  0  0  0  0
  4 12  1  0  0  0  0
  4 24  1  0  0  0  0
  5  6  1  0  0  0  0
  5  7  1  0  0  0  0
  5 19  1  0  0  0  0
  5 20  1  0  0  0  0
  6  8  1  0  0  0  0
  6  9  2  0  0  0  0
  7 21  1  0  0  0  0
  7 22  1  0  0  0  0
  8 10  2  0  0  0  0
  9 11  1  0  0  0  0
  9 23  1  0  0  0  0
 10 13  1  0  0  0  0
 10 25  1  0  0  0  0
 11 13  2  0  0  0  0
 11 26  1  0  0  0  0
 12 14  1  0  0  0  0
 13 27  1  0  0  0  0
 14 15  2  0  0  0  0
 15 17  1  0  0  0  0
 15 28  1  0  0  0  0
 16 30  1  0  0  0  0
 16 31  1  0  0  0  0
 16 32  1  0  0  0  0
 17 18  2  0  0  0  0
 17 29  1  0  0  0  0
 18 33  1  0  0  0  0
M  END
> <PUBCHEM_COMPOUND_CID>
17395266

> <PUBCHEM_COMPOUND_CANONICALIZED>
1

> <PUBCHEM_CACTVS_COMPLEXITY>
273

> <PUBCHEM_CACTVS_HBOND_ACCEPTOR>
3

> <PUBCHEM_CACTVS_HBOND_DONOR>
1

> <PUBCHEM_CACTVS_ROTATABLE_BOND>
5

> <PUBCHEM_CACTVS_SUBSKEYS>
AAADccByMABAAAAAAAAAAAAAAAAAASAAAAAwAAAAAAAAAAABwAAAHgQQAAAADATF2AayB4LABAiMAiFSEACDCIAkKBBIiJkODMgMJjKktRuEMShk1hGoqYe4wKAOAAAAAAAIAAAAAAAAABAAAAAAAAAAAA==

> <PUBCHEM_IUPAC_OPENEYE_NAME>
N-[2-(2-methoxyphenyl)ethyl]thiophene-2-carboxamide

> <PUBCHEM_IUPAC_CAS_NAME>
N-[2-(2-methoxyphenyl)ethyl]-2-thiophenecarboxamide

> <PUBCHEM_IUPAC_NAME>
N-[2-(2-methoxyphenyl)ethyl]thiophene-2-carboxamide

> <PUBCHEM_IUPAC_SYSTEMATIC_NAME>
N-[2-(2-methoxyphenyl)ethyl]thiophene-2-carboxamide

> <PUBCHEM_IUPAC_TRADITIONAL_NAME>
N-[2-(2-methoxyphenyl)ethyl]thiophene-2-carboxamide

> <PUBCHEM_IUPAC_INCHI>
InChI=1S/C14H15NO2S/c1-17-12-6-3-2-5-11(12)8-9-15-14(16)13-7-4-10-18-13/h2-7,10H,8-9H2,1H3,(H,15,16)

> <PUBCHEM_IUPAC_INCHIKEY>
CCPGXJCGBULHDU-UHFFFAOYSA-N

> <PUBCHEM_XLOGP3_AA>
3.1

> <PUBCHEM_EXACT_MASS>
261.08235

> <PUBCHEM_MOLECULAR_FORMULA>
C14H15NO2S

> <PUBCHEM_MOLECULAR_WEIGHT>
261.3394

> <PUBCHEM_OPENEYE_CAN_SMILES>
COC1=CC=CC=C1CCNC(=O)C2=CC=CS2

> <PUBCHEM_OPENEYE_ISO_SMILES>
COC1=CC=CC=C1CCNC(=O)C2=CC=CS2

> <PUBCHEM_CACTVS_TPSA>
66.6

> <PUBCHEM_MONOISOTOPIC_WEIGHT>
261.08235

> <PUBCHEM_TOTAL_CHARGE>
0

> <PUBCHEM_HEAVY_ATOM_COUNT>
18

> <PUBCHEM_ATOM_DEF_STEREO_COUNT>
0

> <PUBCHEM_ATOM_UDEF_STEREO_COUNT>
0

> <PUBCHEM_BOND_DEF_STEREO_COUNT>
0

> <PUBCHEM_BOND_UDEF_STEREO_COUNT>
0

> <PUBCHEM_ISOTOPIC_ATOM_COUNT>
0

> <PUBCHEM_COMPONENT_COUNT>
1

> <PUBCHEM_CACTVS_TAUTO_COUNT>
2

> <PUBCHEM_COORDINATE_TYPE>
1
5
255

> <PUBCHEM_BONDANNOTATIONS>
1  14  8
1  18  8
10  13  8
11  13  8
14  15  8
15  17  8
17  18  8
6  8  8
6  9  8
8  10  8
9  11  8

$$$$

