   Color/Form

     * Yellowish liquid
     * Amber liquid

   from [1]HSDB

   Odor
        Mild, ester odor
   from [2]HSDB

   Boiling Point
        400 deg C @ 760 mm Hg; 130 deg C @ 0.1 mm Hg
   from [3]HSDB

   Corrosivity
        Corrosive to cast iron, mild steel, brass, and stainless steel.
   from [4]HSDB

   Density/Specific Gravity
        1.216 g/cu cm @ 15 deg C
   from [5]HSDB

   Octanol/Water Partition Coefficient
        log Kow = 0.00
   from [6]HSDB

   Solubilities

     * Totally miscible with acetone, alcohols, acetonitrile, chloroform,
       dichlorormethane, xylene; very slightly soluble (<10 g/kg) in
       diesel oil, kerosene
     * MISCIBLE WITH HEXYLENE GLYCOL
     * BARELY SOL IN MINERAL OILS
     * MISCIBLE WITH 4-HYDROXY-4-METHYLPENTAN-2-ONE
     * MISCIBLE WITH ISOPROPYL OXITOL, PHENTOXONE, ETHYL, ISOPROPYL &
       DIACETONE ALCOHOLS
     * Miscible with water [Shiu WY et al; Rev Environ Contam Toxicol 116:
       15-187 (1990)] [7]PubMed Abstract

   from [8]HSDB

   Spectral Properties

     * Index of refraction: 1.468 @ 23 deg C/D
     * Intense mass spectral peaks: 127 m/z (100%), 67 m/z (76%), 44 m/z
       (63%), 43 m/z (53%)

   from [9]HSDB

   Vapor Pressure
        21.3 mPa (1.60X10-4 mm Hg) @ 25 deg C
   from [10]HSDB

   Other Chemical/Physical Properties

     * AMBER LIQUID: BP 400 DEG C @ 760 MM HG; VAPOR PRESSURE 13 MPA @ 20
       DEG C; DENSITY 1.21 @ 20 DEG C/20 DEG C; SOLUBILITY: TOTALL
       MISCIBLE WITH WATER & ORGANIC SOLVENTS SUCH AS ACETONE, ETHANOL,
       4-HYDROXY-4-METHYLPENTAN-2-ONE, PROPAN-2-OL; LESS THAN 10 G/KG
       DIESEL OIL, KEROSENE /TECHNICAL GRADE/
     * Brown liquid /Commercial grade/
     * Mild ester odor /technical material containing 85% cis-isomer/
     * Henry's Law constant: 5.1X10-6 Pa cu m/mol (5.0X10-11 atm cu m/mol)
       @ 25 deg C
     * Subject to thermal decomposition
     * The commercial grade is brown and consists of 85% E-isomer
     * Dicrotophos is a mixture of the E- and Z-isomers in which the
       E-isomer is pesticidally active.

   from [11]HSDB

   Computed Properties
   Molecular Weight                  237.190102 [g/mol]
   Molecular Formula                 C[8]H[16]NO[5]P
   XLogP3                            0
   H-Bond Donor                      0
   H-Bond Acceptor                   5
   Rotatable Bond Count              5
   Exact Mass                        237.076609
   MonoIsotopic Mass                 237.076609
   Topological Polar Surface Area    65.1
   Heavy Atom Count                  15
   Formal Charge                     0
   Complexity                        291
   Isotope Atom Count                0
   Defined Atom Stereocenter Count   0
   Undefined Atom Stereocenter Count 0
   Defined Bond Stereocenter Count   1
   Undefined Bond Stereocenter Count 0
   Covalently-Bonded Unit Count      1
   Feature 3D Acceptor Count         2
   Effective Rotor Count             6
   Conformer Sampling RMSD           0.8
   CID Conformer Count               [12]52

References

   1. http://toxnet.nlm.nih.gov/cgi-bin/sis/search/r?dbs+hsdb:@term+@rn+@rel+141-66-2
   2. http://toxnet.nlm.nih.gov/cgi-bin/sis/search/r?dbs+hsdb:@term+@rn+@rel+141-66-2
   3. http://toxnet.nlm.nih.gov/cgi-bin/sis/search/r?dbs+hsdb:@term+@rn+@rel+141-66-2
   4. http://toxnet.nlm.nih.gov/cgi-bin/sis/search/r?dbs+hsdb:@term+@rn+@rel+141-66-2
   5. http://toxnet.nlm.nih.gov/cgi-bin/sis/search/r?dbs+hsdb:@term+@rn+@rel+141-66-2
   6. http://toxnet.nlm.nih.gov/cgi-bin/sis/search/r?dbs+hsdb:@term+@rn+@rel+141-66-2
   7. http://www.ncbi.nlm.nih.gov/entrez/query.fcgi?cmd=Retrieve&db=pubmed&dopt=Abstract&list_uids=2205893
   8. http://toxnet.nlm.nih.gov/cgi-bin/sis/search/r?dbs+hsdb:@term+@rn+@rel+141-66-2
   9. http://toxnet.nlm.nih.gov/cgi-bin/sis/search/r?dbs+hsdb:@term+@rn+@rel+141-66-2
  10. http://toxnet.nlm.nih.gov/cgi-bin/sis/search/r?dbs+hsdb:@term+@rn+@rel+141-66-2
  11. http://toxnet.nlm.nih.gov/cgi-bin/sis/search/r?dbs+hsdb:@term+@rn+@rel+141-66-2
  12. http://pubchem.ncbi.nlm.nih.gov/vw3d/vw3d.cgi?cid=5371560
