4847
  -OEChem-06261200222D

 53 56  0     0  0  0  0  0  0999 V2000
    2.0000    0.7327    0.0000 F   0  0  0  0  0  0  0  0  0  0  0  0
    5.4641   -2.2673    0.0000 O   0  0  0  0  0  0  0  0  0  0  0  0
   11.5263   -0.7673    0.0000 O   0  0  0  0  0  0  0  0  0  0  0  0
    8.0622    0.2327    0.0000 N   0  0  0  0  0  0  0  0  0  0  0  0
   12.3923    0.7327    0.0000 N   0  0  0  0  0  0  0  0  0  0  0  0
   11.5263    2.2327    0.0000 N   0  0  0  0  0  0  0  0  0  0  0  0
    6.3301   -0.7673    0.0000 C   0  0  0  0  0  0  0  0  0  0  0  0
    6.3301    0.2327    0.0000 C   0  0  0  0  0  0  0  0  0  0  0  0
    7.1962   -1.2673    0.0000 C   0  0  0  0  0  0  0  0  0  0  0  0
    7.1962    0.7327    0.0000 C   0  0  0  0  0  0  0  0  0  0  0  0
    8.0622   -0.7673    0.0000 C   0  0  0  0  0  0  0  0  0  0  0  0
    8.9282    0.7327    0.0000 C   0  0  0  0  0  0  0  0  0  0  0  0
    5.4641   -1.2673    0.0000 C   0  0  0  0  0  0  0  0  0  0  0  0
    9.7942    0.2327    0.0000 C   0  0  0  0  0  0  0  0  0  0  0  0
   10.6603    0.7327    0.0000 C   0  0  0  0  0  0  0  0  0  0  0  0
    4.5981   -0.7673    0.0000 C   0  0  0  0  0  0  0  0  0  0  0  0
   10.6603    1.7327    0.0000 C   0  0  0  0  0  0  0  0  0  0  0  0
   11.5263    0.2327    0.0000 C   0  0  0  0  0  0  0  0  0  0  0  0
    3.7320   -1.2673    0.0000 C   0  0  0  0  0  0  0  0  0  0  0  0
    4.5981    0.2327    0.0000 C   0  0  0  0  0  0  0  0  0  0  0  0
   12.3923    1.7327    0.0000 C   0  0  0  0  0  0  0  0  0  0  0  0
    9.7942    2.2327    0.0000 C   0  0  0  0  0  0  0  0  0  0  0  0
    2.8660   -0.7673    0.0000 C   0  0  0  0  0  0  0  0  0  0  0  0
    3.7320    0.7327    0.0000 C   0  0  0  0  0  0  0  0  0  0  0  0
   13.2862    0.1980    0.0000 C   0  0  0  0  0  0  0  0  0  0  0  0
    2.8660    0.2327    0.0000 C   0  0  0  0  0  0  0  0  0  0  0  0
   13.2862    2.2673    0.0000 C   0  0  0  0  0  0  0  0  0  0  0  0
   14.1923    0.7119    0.0000 C   0  0  0  0  0  0  0  0  0  0  0  0
   14.1923    1.7535    0.0000 C   0  0  0  0  0  0  0  0  0  0  0  0
    5.7932   -0.4573    0.0000 H   0  0  0  0  0  0  0  0  0  0  0  0
    6.7976   -1.7423    0.0000 H   0  0  0  0  0  0  0  0  0  0  0  0
    7.5947   -1.7423    0.0000 H   0  0  0  0  0  0  0  0  0  0  0  0
    6.1181    0.8153    0.0000 H   0  0  0  0  0  0  0  0  0  0  0  0
    5.7196    0.1250    0.0000 H   0  0  0  0  0  0  0  0  0  0  0  0
    8.2742   -1.3499    0.0000 H   0  0  0  0  0  0  0  0  0  0  0  0
    8.6728   -0.6597    0.0000 H   0  0  0  0  0  0  0  0  0  0  0  0
    7.5947    1.2076    0.0000 H   0  0  0  0  0  0  0  0  0  0  0  0
    6.7976    1.2076    0.0000 H   0  0  0  0  0  0  0  0  0  0  0  0
    9.3267    1.2076    0.0000 H   0  0  0  0  0  0  0  0  0  0  0  0
    8.5297    1.2076    0.0000 H   0  0  0  0  0  0  0  0  0  0  0  0
    9.3957   -0.2423    0.0000 H   0  0  0  0  0  0  0  0  0  0  0  0
   10.1928   -0.2423    0.0000 H   0  0  0  0  0  0  0  0  0  0  0  0
    3.7320   -1.8873    0.0000 H   0  0  0  0  0  0  0  0  0  0  0  0
    5.1350    0.5427    0.0000 H   0  0  0  0  0  0  0  0  0  0  0  0
   10.1042    2.7696    0.0000 H   0  0  0  0  0  0  0  0  0  0  0  0
    9.2573    2.5427    0.0000 H   0  0  0  0  0  0  0  0  0  0  0  0
    9.4842    1.6957    0.0000 H   0  0  0  0  0  0  0  0  0  0  0  0
    2.3291   -1.0773    0.0000 H   0  0  0  0  0  0  0  0  0  0  0  0
    3.7320    1.3527    0.0000 H   0  0  0  0  0  0  0  0  0  0  0  0
   13.2791   -0.4220    0.0000 H   0  0  0  0  0  0  0  0  0  0  0  0
   13.2791    2.8873    0.0000 H   0  0  0  0  0  0  0  0  0  0  0  0
   14.7281    0.3998    0.0000 H   0  0  0  0  0  0  0  0  0  0  0  0
   14.7281    2.0656    0.0000 H   0  0  0  0  0  0  0  0  0  0  0  0
  1 26  1  0  0  0  0
  2 13  2  0  0  0  0
  3 18  2  0  0  0  0
  4 10  1  0  0  0  0
  4 11  1  0  0  0  0
  4 12  1  0  0  0  0
  5 18  1  0  0  0  0
  5 21  1  0  0  0  0
  5 25  1  0  0  0  0
  6 17  1  0  0  0  0
  6 21  2  0  0  0  0
  7  8  1  0  0  0  0
  7  9  1  0  0  0  0
  7 13  1  0  0  0  0
  7 30  1  0  0  0  0
  8 10  1  0  0  0  0
  8 33  1  0  0  0  0
  8 34  1  0  0  0  0
  9 11  1  0  0  0  0
  9 31  1  0  0  0  0
  9 32  1  0  0  0  0
 10 37  1  0  0  0  0
 10 38  1  0  0  0  0
 11 35  1  0  0  0  0
 11 36  1  0  0  0  0
 12 14  1  0  0  0  0
 12 39  1  0  0  0  0
 12 40  1  0  0  0  0
 13 16  1  0  0  0  0
 14 15  1  0  0  0  0
 14 41  1  0  0  0  0
 14 42  1  0  0  0  0
 15 17  2  0  0  0  0
 15 18  1  0  0  0  0
 16 19  2  0  0  0  0
 16 20  1  0  0  0  0
 17 22  1  0  0  0  0
 19 23  1  0  0  0  0
 19 43  1  0  0  0  0
 20 24  2  0  0  0  0
 20 44  1  0  0  0  0
 21 27  1  0  0  0  0
 22 45  1  0  0  0  0
 22 46  1  0  0  0  0
 22 47  1  0  0  0  0
 23 26  2  0  0  0  0
 23 48  1  0  0  0  0
 24 26  1  0  0  0  0
 24 49  1  0  0  0  0
 25 28  2  0  0  0  0
 25 50  1  0  0  0  0
 27 29  2  0  0  0  0
 27 51  1  0  0  0  0
 28 29  1  0  0  0  0
 28 52  1  0  0  0  0
 29 53  1  0  0  0  0
M  END
> <PUBCHEM_COMPOUND_CID>
4847

> <PUBCHEM_COMPOUND_CANONICALIZED>
1

> <PUBCHEM_CACTVS_COMPLEXITY>
782

> <PUBCHEM_CACTVS_HBOND_ACCEPTOR>
5

> <PUBCHEM_CACTVS_HBOND_DONOR>
0

> <PUBCHEM_CACTVS_ROTATABLE_BOND>
5

> <PUBCHEM_CACTVS_SUBSKEYS>
AAADceB7MQAAAAAAAAAAAAAAAAAAAAAAAAA8QIEAAAAAAACBAAAAHwAAAAAADQzBmAwzAIMAAACoAqd2dACCAAEkAgAJiAEYANgIIDKAnRCEIQAghgCIiccciMCOAAAAAAAAAAAAAAAAAAAAAAAAAAAAAA==

> <PUBCHEM_IUPAC_OPENEYE_NAME>
3-[2-[4-(4-fluorobenzoyl)-1-piperidyl]ethyl]-2-methyl-pyrido[1,2-a]pyrimidin-4-one

> <PUBCHEM_IUPAC_CAS_NAME>
3-[2-[4-[(4-fluorophenyl)-oxomethyl]-1-piperidinyl]ethyl]-2-methyl-4-pyrido[1,2-a]pyrimidinone

> <PUBCHEM_IUPAC_NAME>
3-[2-[4-(4-fluorobenzoyl)piperidin-1-yl]ethyl]-2-methylpyrido[1,2-a]pyrimidin-4-one

> <PUBCHEM_IUPAC_SYSTEMATIC_NAME>
3-[2-[4-(4-fluorophenyl)carbonylpiperidin-1-yl]ethyl]-2-methyl-pyrido[1,2-a]pyrimidin-4-one

> <PUBCHEM_IUPAC_TRADITIONAL_NAME>
3-[2-[4-(4-fluorobenzoyl)piperidino]ethyl]-2-methyl-pyrido[1,2-a]pyrimidin-4-one

> <PUBCHEM_IUPAC_INCHI>
InChI=1S/C23H24FN3O2/c1-16-20(23(29)27-12-3-2-4-21(27)25-16)11-15-26-13-9-18(10-14-26)22(28)17-5-7-19(24)8-6-17/h2-8,12,18H,9-11,13-15H2,1H3

> <PUBCHEM_IUPAC_INCHIKEY>
HXCNRYXBZNHDNE-UHFFFAOYSA-N

> <PUBCHEM_XLOGP3>
2.6

> <PUBCHEM_EXACT_MASS>
393.185255

> <PUBCHEM_MOLECULAR_FORMULA>
C23H24FN3O2

> <PUBCHEM_MOLECULAR_WEIGHT>
393.453963

> <PUBCHEM_OPENEYE_CAN_SMILES>
CC1=C(C(=O)N2C=CC=CC2=N1)CCN3CCC(CC3)C(=O)C4=CC=C(C=C4)F

> <PUBCHEM_OPENEYE_ISO_SMILES>
CC1=C(C(=O)N2C=CC=CC2=N1)CCN3CCC(CC3)C(=O)C4=CC=C(C=C4)F

> <PUBCHEM_CACTVS_TPSA>
53

> <PUBCHEM_MONOISOTOPIC_WEIGHT>
393.185255

> <PUBCHEM_TOTAL_CHARGE>
0

> <PUBCHEM_HEAVY_ATOM_COUNT>
29

> <PUBCHEM_ATOM_DEF_STEREO_COUNT>
0

> <PUBCHEM_ATOM_UDEF_STEREO_COUNT>
0

> <PUBCHEM_BOND_DEF_STEREO_COUNT>
0

> <PUBCHEM_BOND_UDEF_STEREO_COUNT>
0

> <PUBCHEM_ISOTOPIC_ATOM_COUNT>
0

> <PUBCHEM_COMPONENT_COUNT>
1

> <PUBCHEM_CACTVS_TAUTO_COUNT>
2

> <PUBCHEM_COORDINATE_TYPE>
1
5
255

> <PUBCHEM_BONDANNOTATIONS>
15  17  8
15  18  8
16  19  8
16  20  8
19  23  8
20  24  8
21  27  8
23  26  8
24  26  8
25  28  8
27  29  8
28  29  8
5  18  8
5  21  8
5  25  8
6  17  8
6  21  8

$$$$

