11953927
  -OEChem-07051212562D

105113  0     1  0  0  0  0  0999 V2000
   12.8388    4.4062    0.0000 O   0  0  0  0  0  0  0  0  0  0  0  0
   10.9730    0.1706    0.0000 O   0  0  0  0  0  0  0  0  0  0  0  0
    9.2412    0.9007    0.0000 O   0  0  0  0  0  0  0  0  0  0  0  0
    5.3912    0.3072    0.0000 O   0  0  0  0  0  0  0  0  0  0  0  0
    2.7248   -3.3168    0.0000 O   0  0  0  0  0  0  0  0  0  0  0  0
    3.4007   -4.5592    0.0000 O   0  0  0  0  0  0  0  0  0  0  0  0
   10.0615    3.5825    0.0000 N   0  0  3  0  0  0  0  0  0  0  0  0
    9.4255    0.4071    0.0000 N   0  0  0  0  0  0  0  0  0  0  0  0
    4.0133   -3.9070    0.0000 N   0  0  3  0  0  0  0  0  0  0  0  0
    7.9311   -2.1447    0.0000 N   0  0  0  0  0  0  0  0  0  0  0  0
   10.6850    2.8006    0.0000 C   0  0  2  0  0  0  0  0  0  0  0  0
   10.4624    1.8257    0.0000 C   0  0  1  0  0  0  0  0  0  0  0  0
   12.2127    1.4049    0.0000 C   0  0  2  0  0  0  0  0  0  0  0  0
   11.6755    3.1230    0.0000 C   0  0  2  0  0  0  0  0  0  0  0  0
   11.2150    1.1055    0.0000 C   0  0  0  0  0  0  0  0  0  0  0  0
   12.4445    2.4204    0.0000 C   0  0  0  0  0  0  0  0  0  0  0  0
   11.7657    3.1147    0.0000 C   0  0  0  0  0  0  0  0  0  0  0  0
    9.5615    1.3918    0.0000 C   0  0  0  0  0  0  0  0  0  0  0  0
    9.0615    3.5825    0.0000 C   0  0  0  0  0  0  0  0  0  0  0  0
   11.8867    4.1004    0.0000 C   0  0  1  0  0  0  0  0  0  0  0  0
    8.6605    1.8257    0.0000 C   0  0  0  0  0  0  0  0  0  0  0  0
   10.2399    0.8508    0.0000 C   0  0  0  0  0  0  0  0  0  0  0  0
    8.4380    2.8006    0.0000 C   0  0  0  0  0  0  0  0  0  0  0  0
    7.9754    1.1054    0.0000 C   0  0  0  0  0  0  0  0  0  0  0  0
   11.1458    4.7721    0.0000 C   0  0  0  0  0  0  0  0  0  0  0  0
    8.4472    0.2304    0.0000 C   0  0  0  0  0  0  0  0  0  0  0  0
    6.9410    1.1514    0.0000 C   0  0  0  0  0  0  0  0  0  0  0  0
    7.9173   -0.6592    0.0000 C   0  0  0  0  0  0  0  0  0  0  0  0
    6.8821   -0.6371    0.0000 C   0  0  0  0  0  0  0  0  0  0  0  0
    6.3604   -1.4902    0.0000 C   0  0  1  0  0  0  0  0  0  0  0  0
    6.3906    0.2743    0.0000 C   0  0  0  0  0  0  0  0  0  0  0  0
    4.5641   -1.9233    0.0000 C   0  0  2  0  0  0  0  0  0  0  0  0
    5.3726   -1.3347    0.0000 C   0  0  0  0  0  0  0  0  0  0  0  0
    4.4087   -2.9112    0.0000 C   0  0  3  0  0  0  0  0  0  0  0  0
    4.9972   -3.7196    0.0000 C   0  0  1  0  0  0  0  0  0  0  0  0
   10.7505   -0.8043    0.0000 C   0  0  0  0  0  0  0  0  0  0  0  0
    6.9490   -2.2986    0.0000 C   0  0  0  0  0  0  0  0  0  0  0  0
    5.9851   -3.8751    0.0000 C   0  0  0  0  0  0  0  0  0  0  0  0
    3.6030   -2.2050    0.0000 C   0  0  0  0  0  0  0  0  0  0  0  0
    6.7935   -3.2865    0.0000 C   0  0  0  0  0  0  0  0  0  0  0  0
    3.3350   -3.1700    0.0000 C   0  0  0  0  0  0  0  0  0  0  0  0
    7.6809   -3.7346    0.0000 C   0  0  0  0  0  0  0  0  0  0  0  0
    3.6839   -3.6002    0.0000 C   0  0  0  0  0  0  0  0  0  0  0  0
    8.3825   -3.0304    0.0000 C   0  0  0  0  0  0  0  0  0  0  0  0
    4.2163   -4.8861    0.0000 C   0  0  0  0  0  0  0  0  0  0  0  0
    2.8908   -1.5029    0.0000 C   0  0  0  0  0  0  0  0  0  0  0  0
    7.9353   -4.7383    0.0000 C   0  0  0  0  0  0  0  0  0  0  0  0
    4.9199    1.1893    0.0000 C   0  0  0  0  0  0  0  0  0  0  0  0
    9.3872   -3.2811    0.0000 C   0  0  0  0  0  0  0  0  0  0  0  0
    3.1428   -0.5351    0.0000 C   0  0  0  0  0  0  0  0  0  0  0  0
    8.9339   -5.0122    0.0000 C   0  0  0  0  0  0  0  0  0  0  0  0
    9.6647   -4.2787    0.0000 C   0  0  0  0  0  0  0  0  0  0  0  0
    2.0000   -4.0058    0.0000 C   0  0  0  0  0  0  0  0  0  0  0  0
   10.8741    3.6293    0.0000 H   0  0  0  0  0  0  0  0  0  0  0  0
   12.4277    0.5825    0.0000 H   0  0  0  0  0  0  0  0  0  0  0  0
   12.4853    3.3813    0.0000 H   0  0  0  0  0  0  0  0  0  0  0  0
   10.7160    0.7376    0.0000 H   0  0  0  0  0  0  0  0  0  0  0  0
   11.4922    0.5509    0.0000 H   0  0  0  0  0  0  0  0  0  0  0  0
   13.0164    2.1810    0.0000 H   0  0  0  0  0  0  0  0  0  0  0  0
   12.7782    2.9429    0.0000 H   0  0  0  0  0  0  0  0  0  0  0  0
   12.3837    3.1650    0.0000 H   0  0  0  0  0  0  0  0  0  0  0  0
   11.8235    3.7320    0.0000 H   0  0  0  0  0  0  0  0  0  0  0  0
    9.1994    4.1869    0.0000 H   0  0  0  0  0  0  0  0  0  0  0  0
    8.5029    3.8515    0.0000 H   0  0  0  0  0  0  0  0  0  0  0  0
   12.3460    3.6840    0.0000 H   0  0  0  0  0  0  0  0  0  0  0  0
    8.0514    3.2854    0.0000 H   0  0  0  0  0  0  0  0  0  0  0  0
    7.8794    2.5316    0.0000 H   0  0  0  0  0  0  0  0  0  0  0  0
    9.8729   -0.0221    0.0000 H   0  0  0  0  0  0  0  0  0  0  0  0
   11.5623    5.2314    0.0000 H   0  0  0  0  0  0  0  0  0  0  0  0
   10.6865    5.1885    0.0000 H   0  0  0  0  0  0  0  0  0  0  0  0
   10.7294    4.3127    0.0000 H   0  0  0  0  0  0  0  0  0  0  0  0
   12.9698    5.0122    0.0000 H   0  0  0  0  0  0  0  0  0  0  0  0
    6.6530    1.7005    0.0000 H   0  0  0  0  0  0  0  0  0  0  0  0
    8.2179   -1.2014    0.0000 H   0  0  0  0  0  0  0  0  0  0  0  0
    6.0038   -0.7186    0.0000 H   0  0  0  0  0  0  0  0  0  0  0  0
    4.1890   -1.1606    0.0000 H   0  0  0  0  0  0  0  0  0  0  0  0
    5.6242   -0.7681    0.0000 H   0  0  0  0  0  0  0  0  0  0  0  0
    4.8904   -0.9450    0.0000 H   0  0  0  0  0  0  0  0  0  0  0  0
    3.8597   -2.6230    0.0000 H   0  0  0  0  0  0  0  0  0  0  0  0
    5.4975   -4.4068    0.0000 H   0  0  0  0  0  0  0  0  0  0  0  0
   10.1460   -0.6664    0.0000 H   0  0  0  0  0  0  0  0  0  0  0  0
   10.6125   -1.4088    0.0000 H   0  0  0  0  0  0  0  0  0  0  0  0
   11.3549   -0.9423    0.0000 H   0  0  0  0  0  0  0  0  0  0  0  0
    5.7335   -4.4417    0.0000 H   0  0  0  0  0  0  0  0  0  0  0  0
    6.4673   -4.2648    0.0000 H   0  0  0  0  0  0  0  0  0  0  0  0
    2.7784   -2.8969    0.0000 H   0  0  0  0  0  0  0  0  0  0  0  0
    2.9640   -3.6668    0.0000 H   0  0  0  0  0  0  0  0  0  0  0  0
    8.2130   -1.5925    0.0000 H   0  0  0  0  0  0  0  0  0  0  0  0
    3.6092   -5.0120    0.0000 H   0  0  0  0  0  0  0  0  0  0  0  0
    4.3421   -5.4932    0.0000 H   0  0  0  0  0  0  0  0  0  0  0  0
    4.8234   -4.7603    0.0000 H   0  0  0  0  0  0  0  0  0  0  0  0
    2.2931   -1.6676    0.0000 H   0  0  0  0  0  0  0  0  0  0  0  0
    7.4926   -5.1725    0.0000 H   0  0  0  0  0  0  0  0  0  0  0  0
    5.4668    1.4814    0.0000 H   0  0  0  0  0  0  0  0  0  0  0  0
    4.6278    1.7361    0.0000 H   0  0  0  0  0  0  0  0  0  0  0  0
    4.3731    0.8971    0.0000 H   0  0  0  0  0  0  0  0  0  0  0  0
    9.8196   -2.8368    0.0000 H   0  0  0  0  0  0  0  0  0  0  0  0
    3.7428   -0.6914    0.0000 H   0  0  0  0  0  0  0  0  0  0  0  0
    3.2990    0.0649    0.0000 H   0  0  0  0  0  0  0  0  0  0  0  0
    2.5428   -0.3789    0.0000 H   0  0  0  0  0  0  0  0  0  0  0  0
    9.0931   -5.6114    0.0000 H   0  0  0  0  0  0  0  0  0  0  0  0
   10.2645   -4.4357    0.0000 H   0  0  0  0  0  0  0  0  0  0  0  0
    1.5728   -3.5565    0.0000 H   0  0  0  0  0  0  0  0  0  0  0  0
    1.5506   -4.4330    0.0000 H   0  0  0  0  0  0  0  0  0  0  0  0
    2.4272   -4.4552    0.0000 H   0  0  0  0  0  0  0  0  0  0  0  0
 20  1  1  1  0  0  0
  1 72  1  0  0  0  0
  2 22  1  0  0  0  0
  2 36  1  0  0  0  0
  3 22  2  0  0  0  0
  4 31  1  0  0  0  0
  4 48  1  0  0  0  0
  5 43  1  0  0  0  0
  5 53  1  0  0  0  0
  6 43  2  0  0  0  0
  7 11  1  0  0  0  0
  7 17  1  0  0  0  0
  7 19  1  0  0  0  0
  8 18  1  0  0  0  0
  8 26  1  0  0  0  0
  8 68  1  0  0  0  0
  9 35  1  0  0  0  0
  9 41  1  0  0  0  0
  9 45  1  0  0  0  0
 10 37  1  0  0  0  0
 10 44  1  0  0  0  0
 10 88  1  0  0  0  0
 11 12  1  0  0  0  0
 11 14  1  0  0  0  0
 11 54  1  6  0  0  0
 12 15  1  0  0  0  0
 12 18  1  0  0  0  0
 12 22  1  6  0  0  0
 13 15  1  0  0  0  0
 13 16  1  0  0  0  0
 13 17  1  0  0  0  0
 13 55  1  6  0  0  0
 14 16  1  0  0  0  0
 14 20  1  0  0  0  0
 14 56  1  6  0  0  0
 15 57  1  0  0  0  0
 15 58  1  0  0  0  0
 16 59  1  0  0  0  0
 16 60  1  0  0  0  0
 17 61  1  0  0  0  0
 17 62  1  0  0  0  0
 18 21  2  0  0  0  0
 19 23  1  0  0  0  0
 19 63  1  0  0  0  0
 19 64  1  0  0  0  0
 20 25  1  0  0  0  0
 20 65  1  0  0  0  0
 21 23  1  0  0  0  0
 21 24  1  0  0  0  0
 23 66  1  0  0  0  0
 23 67  1  0  0  0  0
 24 26  1  0  0  0  0
 24 27  2  0  0  0  0
 25 69  1  0  0  0  0
 25 70  1  0  0  0  0
 25 71  1  0  0  0  0
 26 28  2  0  0  0  0
 27 31  1  0  0  0  0
 27 73  1  0  0  0  0
 28 29  1  0  0  0  0
 28 74  1  0  0  0  0
 29 30  1  0  0  0  0
 29 31  2  0  0  0  0
 30 33  1  0  0  0  0
 30 37  1  0  0  0  0
 30 75  1  1  0  0  0
 32 33  1  0  0  0  0
 32 34  1  0  0  0  0
 32 39  1  0  0  0  0
 32 76  1  1  0  0  0
 33 77  1  0  0  0  0
 33 78  1  0  0  0  0
 34 35  1  0  0  0  0
 34 43  1  0  0  0  0
 34 79  1  0  0  0  0
 35 38  1  0  0  0  0
 35 80  1  6  0  0  0
 36 81  1  0  0  0  0
 36 82  1  0  0  0  0
 36 83  1  0  0  0  0
 37 40  2  0  0  0  0
 38 40  1  0  0  0  0
 38 84  1  0  0  0  0
 38 85  1  0  0  0  0
 39 41  1  0  0  0  0
 39 46  2  0  0  0  0
 40 42  1  0  0  0  0
 41 86  1  0  0  0  0
 41 87  1  0  0  0  0
 42 44  1  0  0  0  0
 42 47  2  0  0  0  0
 44 49  2  0  0  0  0
 45 89  1  0  0  0  0
 45 90  1  0  0  0  0
 45 91  1  0  0  0  0
 46 50  1  0  0  0  0
 46 92  1  0  0  0  0
 47 51  1  0  0  0  0
 47 93  1  0  0  0  0
 48 94  1  0  0  0  0
 48 95  1  0  0  0  0
 48 96  1  0  0  0  0
 49 52  1  0  0  0  0
 49 97  1  0  0  0  0
 50 98  1  0  0  0  0
 50 99  1  0  0  0  0
 50100  1  0  0  0  0
 51 52  2  0  0  0  0
 51101  1  0  0  0  0
 52102  1  0  0  0  0
 53103  1  0  0  0  0
 53104  1  0  0  0  0
 53105  1  0  0  0  0
M  END
> <PUBCHEM_COMPOUND_CID>
11953927

> <PUBCHEM_COMPOUND_CANONICALIZED>
1

> <PUBCHEM_CACTVS_COMPLEXITY>
1440

> <PUBCHEM_CACTVS_HBOND_ACCEPTOR>
8

> <PUBCHEM_CACTVS_HBOND_DONOR>
3

> <PUBCHEM_CACTVS_ROTATABLE_BOND>
7

> <PUBCHEM_CACTVS_SUBSKEYS>
AAADcfB/uAAAAAAAAAAAAAAAAAAAAWLAAAA8ePECBYAYAFix/gAAHgAQCAAADzzhngYyzvPJlgCoAyTyTACCiCAhIiAImSE+bJgMNvrE9ZuEcChm0BHI6Ae4/f/PwEABQAAKAACQgAaAABQAAAAAAAAAAA==

> <PUBCHEM_IUPAC_INCHI>
InChI=1S/C43H52N4O6/c1-7-24-21-46(3)35-17-32-25-10-8-9-11-33(25)44-38(32)31(15-28(24)37(35)41(49)52-5)30-16-34-29(18-36(30)51-4)26-12-13-47-20-23-14-27(22(2)48)40(47)43(19-23,39(26)45-34)42(50)53-6/h7-11,16,18,22-23,27-28,31,35,37,40,44-45,48H,12-15,17,19-21H2,1-6H3/b24-7-/t22-,23+,27-,28+,31-,35-,37?,40+,43-/m1/s1

> <PUBCHEM_IUPAC_INCHIKEY>
UIEKMUULTFWIHX-JXLNMTOASA-N

> <PUBCHEM_XLOGP3_AA>
4.9

> <PUBCHEM_EXACT_MASS>
720.388685

> <PUBCHEM_MOLECULAR_FORMULA>
C43H52N4O6

> <PUBCHEM_MOLECULAR_WEIGHT>
720.89618

> <PUBCHEM_OPENEYE_CAN_SMILES>
CC=C1CN(C2CC3=C(C(CC1C2C(=O)OC)C4=C(C=C5C6=C(C7(CC8CC(C7N(C8)CC6)C(C)O)C(=O)OC)NC5=C4)OC)NC9=CC=CC=C39)C

> <PUBCHEM_OPENEYE_ISO_SMILES>
C/C=C\1/CN([C@@H]2CC3=C([C@H](C[C@@H]1C2C(=O)OC)C4=C(C=C5C6=C([C@@]7(C[C@@H]8C[C@@H]([C@@H]7N(C8)CC6)[C@@H](C)O)C(=O)OC)NC5=C4)OC)NC9=CC=CC=C39)C

> <PUBCHEM_CACTVS_TPSA>
120

> <PUBCHEM_MONOISOTOPIC_WEIGHT>
720.388685

> <PUBCHEM_TOTAL_CHARGE>
0

> <PUBCHEM_HEAVY_ATOM_COUNT>
53

> <PUBCHEM_ATOM_DEF_STEREO_COUNT>
8

> <PUBCHEM_ATOM_UDEF_STEREO_COUNT>
1

> <PUBCHEM_BOND_DEF_STEREO_COUNT>
1

> <PUBCHEM_BOND_UDEF_STEREO_COUNT>
0

> <PUBCHEM_ISOTOPIC_ATOM_COUNT>
0

> <PUBCHEM_COMPONENT_COUNT>
1

> <PUBCHEM_CACTVS_TAUTO_COUNT>
1

> <PUBCHEM_COORDINATE_TYPE>
1
5
255

> <PUBCHEM_BONDANNOTATIONS>
20  1  5
10  37  8
10  44  8
11  54  6
12  22  6
13  55  6
14  56  6
18  21  8
21  24  8
24  26  8
24  27  8
26  28  8
27  31  8
28  29  8
29  31  8
30  75  5
32  76  5
34  43  3
35  80  6
37  40  8
40  42  8
42  44  8
42  47  8
44  49  8
47  51  8
49  52  8
51  52  8
8  18  8
8  26  8

$$$$

