5280486
  -OEChem-07051212462D

 69 75  0     1  0  0  0  0  0999 V2000
    3.8076    1.3444    0.0000 O   0  0  0  0  0  0  0  0  0  0  0  0
    7.6812   -0.2434    0.0000 O   0  0  0  0  0  0  0  0  0  0  0  0
    9.3754   -0.6035    0.0000 O   0  0  0  0  0  0  0  0  0  0  0  0
    5.0332    2.5682    0.0000 O   0  0  0  0  0  0  0  0  0  0  0  0
    8.0970    1.7129    0.0000 O   0  0  0  0  0  0  0  0  0  0  0  0
    9.9991    2.3309    0.0000 O   0  0  0  0  0  0  0  0  0  0  0  0
   11.4854    0.9927    0.0000 O   0  0  0  0  0  0  0  0  0  0  0  0
   10.8617   -1.9418    0.0000 O   0  0  0  0  0  0  0  0  0  0  0  0
    6.1798   -0.8097    0.0000 N   0  0  3  0  0  0  0  0  0  0  0  0
    4.0899   -1.7652    0.0000 N   0  0  0  0  0  0  0  0  0  0  0  0
    6.4862    0.6318    0.0000 C   0  0  3  0  0  0  0  0  0  0  0  0
    5.9169   -0.0005    0.0000 C   0  0  2  0  0  0  0  0  0  0  0  0
    4.5153   -0.4559    0.0000 C   0  0  1  0  0  0  0  0  0  0  0  0
    4.5142    0.6368    0.0000 C   0  0  2  0  0  0  0  0  0  0  0  0
    6.7056   -2.4281    0.0000 C   0  0  1  0  0  0  0  0  0  0  0  0
    5.6105   -1.4420    0.0000 C   0  0  1  0  0  0  0  0  0  0  0  0
    5.0846    0.1764    0.0000 C   0  0  0  0  0  0  0  0  0  0  0  0
    5.8734   -2.2512    0.0000 C   0  0  0  0  0  0  0  0  0  0  0  0
    4.7782   -1.2651    0.0000 C   0  0  0  0  0  0  0  0  0  0  0  0
    7.0121   -0.9866    0.0000 C   0  0  1  0  0  0  0  0  0  0  0  0
    7.2750   -1.7958    0.0000 C   0  0  0  0  0  0  0  0  0  0  0  0
    3.6645   -0.4559    0.0000 C   0  0  0  0  0  0  0  0  0  0  0  0
    3.4016   -1.2651    0.0000 C   0  0  0  0  0  0  0  0  0  0  0  0
    8.2531   -2.0037    0.0000 C   0  0  0  0  0  0  0  0  0  0  0  0
    3.0952    0.1764    0.0000 C   0  0  0  0  0  0  0  0  0  0  0  0
    2.5693   -1.4420    0.0000 C   0  0  0  0  0  0  0  0  0  0  0  0
    8.6323    0.0656    0.0000 C   0  0  2  0  0  0  0  0  0  0  0  0
    4.0671    2.3101    0.0000 C   0  0  0  0  0  0  0  0  0  0  0  0
    2.2629   -0.0005    0.0000 C   0  0  0  0  0  0  0  0  0  0  0  0
    8.5621   -2.9547    0.0000 C   0  0  0  0  0  0  0  0  0  0  0  0
    2.0000   -0.8097    0.0000 C   0  0  0  0  0  0  0  0  0  0  0  0
    8.8402    1.0437    0.0000 C   0  0  1  0  0  0  0  0  0  0  0  0
    3.3605    3.0177    0.0000 C   0  0  0  0  0  0  0  0  0  0  0  0
    9.7912    1.3528    0.0000 C   0  0  2  0  0  0  0  0  0  0  0  0
   10.3264   -0.2945    0.0000 C   0  0  1  0  0  0  0  0  0  0  0  0
   10.5344    0.6836    0.0000 C   0  0  1  0  0  0  0  0  0  0  0  0
   11.0696   -0.9636    0.0000 C   0  0  0  0  0  0  0  0  0  0  0  0
    6.9092    1.0851    0.0000 H   0  0  0  0  0  0  0  0  0  0  0  0
    5.7347    0.8298    0.0000 H   0  0  0  0  0  0  0  0  0  0  0  0
    4.7523    1.2092    0.0000 H   0  0  0  0  0  0  0  0  0  0  0  0
    6.9683   -3.2365    0.0000 H   0  0  0  0  0  0  0  0  0  0  0  0
    5.0417   -2.0736    0.0000 H   0  0  0  0  0  0  0  0  0  0  0  0
    5.3169    0.7513    0.0000 H   0  0  0  0  0  0  0  0  0  0  0  0
    4.5588    0.5050    0.0000 H   0  0  0  0  0  0  0  0  0  0  0  0
    5.2594   -2.3374    0.0000 H   0  0  0  0  0  0  0  0  0  0  0  0
    5.8518   -2.8708    0.0000 H   0  0  0  0  0  0  0  0  0  0  0  0
    7.6185   -1.1155    0.0000 H   0  0  0  0  0  0  0  0  0  0  0  0
    8.8428   -1.8121    0.0000 H   0  0  0  0  0  0  0  0  0  0  0  0
    3.2868    0.7661    0.0000 H   0  0  0  0  0  0  0  0  0  0  0  0
    2.3777   -2.0316    0.0000 H   0  0  0  0  0  0  0  0  0  0  0  0
    8.5033   -0.5409    0.0000 H   0  0  0  0  0  0  0  0  0  0  0  0
    1.8481    0.4603    0.0000 H   0  0  0  0  0  0  0  0  0  0  0  0
    7.9725   -3.1463    0.0000 H   0  0  0  0  0  0  0  0  0  0  0  0
    8.7537   -3.5444    0.0000 H   0  0  0  0  0  0  0  0  0  0  0  0
    9.1518   -2.7632    0.0000 H   0  0  0  0  0  0  0  0  0  0  0  0
    1.3936   -0.9386    0.0000 H   0  0  0  0  0  0  0  0  0  0  0  0
    8.2505    0.8522    0.0000 H   0  0  0  0  0  0  0  0  0  0  0  0
    3.7992    3.4558    0.0000 H   0  0  0  0  0  0  0  0  0  0  0  0
    2.9224    3.4564    0.0000 H   0  0  0  0  0  0  0  0  0  0  0  0
    2.9217    2.5796    0.0000 H   0  0  0  0  0  0  0  0  0  0  0  0
   10.3809    1.5443    0.0000 H   0  0  0  0  0  0  0  0  0  0  0  0
   10.1975   -0.9010    0.0000 H   0  0  0  0  0  0  0  0  0  0  0  0
   10.9951    0.2688    0.0000 H   0  0  0  0  0  0  0  0  0  0  0  0
    8.2259    2.3193    0.0000 H   0  0  0  0  0  0  0  0  0  0  0  0
   11.6444   -1.1959    0.0000 H   0  0  0  0  0  0  0  0  0  0  0  0
   11.3981   -0.4379    0.0000 H   0  0  0  0  0  0  0  0  0  0  0  0
   10.5888    2.5225    0.0000 H   0  0  0  0  0  0  0  0  0  0  0  0
   11.9462    0.5778    0.0000 H   0  0  0  0  0  0  0  0  0  0  0  0
   11.3224   -2.3566    0.0000 H   0  0  0  0  0  0  0  0  0  0  0  0
  1 14  1  0  0  0  0
  1 28  1  0  0  0  0
 20  2  1  6  0  0  0
 27  2  1  1  0  0  0
  3 27  1  0  0  0  0
  3 35  1  0  0  0  0
  4 28  2  0  0  0  0
 32  5  1  6  0  0  0
  5 64  1  0  0  0  0
 34  6  1  1  0  0  0
  6 67  1  0  0  0  0
 36  7  1  6  0  0  0
  7 68  1  0  0  0  0
  8 37  1  0  0  0  0
  8 69  1  0  0  0  0
  9 12  1  0  0  0  0
  9 16  1  0  0  0  0
  9 20  1  0  0  0  0
 10 19  2  0  0  0  0
 10 23  1  0  0  0  0
 11 12  1  0  0  0  0
 11 14  1  0  0  0  0
 11 15  1  0  0  0  0
 11 38  1  0  0  0  0
 12 17  1  0  0  0  0
 12 39  1  6  0  0  0
 13 14  1  0  0  0  0
 13 17  1  0  0  0  0
 13 19  1  0  0  0  0
 13 22  1  6  0  0  0
 14 40  1  0  0  0  0
 15 18  1  0  0  0  0
 15 21  1  0  0  0  0
 15 41  1  1  0  0  0
 16 18  1  0  0  0  0
 16 19  1  0  0  0  0
 16 42  1  6  0  0  0
 17 43  1  0  0  0  0
 17 44  1  0  0  0  0
 18 45  1  0  0  0  0
 18 46  1  0  0  0  0
 20 21  1  0  0  0  0
 20 47  1  0  0  0  0
 21 24  2  0  0  0  0
 22 23  1  0  0  0  0
 22 25  2  0  0  0  0
 23 26  2  0  0  0  0
 24 30  1  0  0  0  0
 24 48  1  0  0  0  0
 25 29  1  0  0  0  0
 25 49  1  0  0  0  0
 26 31  1  0  0  0  0
 26 50  1  0  0  0  0
 27 32  1  0  0  0  0
 27 51  1  0  0  0  0
 28 33  1  0  0  0  0
 29 31  2  0  0  0  0
 29 52  1  0  0  0  0
 30 53  1  0  0  0  0
 30 54  1  0  0  0  0
 30 55  1  0  0  0  0
 31 56  1  0  0  0  0
 32 34  1  0  0  0  0
 32 57  1  0  0  0  0
 33 58  1  0  0  0  0
 33 59  1  0  0  0  0
 33 60  1  0  0  0  0
 34 36  1  0  0  0  0
 34 61  1  0  0  0  0
 35 36  1  0  0  0  0
 35 37  1  1  0  0  0
 35 62  1  0  0  0  0
 36 63  1  0  0  0  0
 37 65  1  0  0  0  0
 37 66  1  0  0  0  0
M  END
> <PUBCHEM_COMPOUND_CID>
5280486

> <PUBCHEM_COMPOUND_CANONICALIZED>
1

> <PUBCHEM_CACTVS_COMPLEXITY>
1030

> <PUBCHEM_CACTVS_HBOND_ACCEPTOR>
10

> <PUBCHEM_CACTVS_HBOND_DONOR>
4

> <PUBCHEM_CACTVS_ROTATABLE_BOND>
5

> <PUBCHEM_CACTVS_SUBSKEYS>
AAADcfB7PAAAAAAAAAAAAAAAAAAAAYIAAAA8WLFiRgAAAECBAAAAHgAACAAADzzxmAcyyIMABgCoAyTyTACCAAAgAgAIiAA4ZIgZNCKAsZGucABnwAGP6Afw8P8PgAAAAAACAAAAAAAAAAQAASEABQAAAA==

> <PUBCHEM_IUPAC_INCHI>
InChI=1S/C27H32N2O8/c1-3-12-13-8-16-23-27(14-6-4-5-7-15(14)28-23)9-17(19(13)24(27)35-11(2)31)29(16)25(12)37-26-22(34)21(33)20(32)18(10-30)36-26/h3-7,13,16-22,24-26,30,32-34H,8-10H2,1-2H3/b12-3+/t13-,16-,17-,18+,19?,20+,21-,22+,24+,25+,26-,27+/m0/s1

> <PUBCHEM_IUPAC_INCHIKEY>
OSJPGOJPRNTSHP-ICYIRATMSA-N

> <PUBCHEM_XLOGP3_AA>
-0.2

> <PUBCHEM_EXACT_MASS>
512.215866

> <PUBCHEM_MOLECULAR_FORMULA>
C27H32N2O8

> <PUBCHEM_MOLECULAR_WEIGHT>
512.55158

> <PUBCHEM_OPENEYE_CAN_SMILES>
CC=C1C2CC3C4=NC5=CC=CC=C5C46CC(C2C6OC(=O)C)N3C1OC7C(C(C(C(O7)CO)O)O)O

> <PUBCHEM_OPENEYE_ISO_SMILES>
C/C=C/1\[C@@H]2C[C@H]3C4=NC5=CC=CC=C5[C@]46C[C@@H](C2[C@H]6OC(=O)C)N3[C@@H]1O[C@H]7[C@@H]([C@H]([C@@H]([C@H](O7)CO)O)O)O

> <PUBCHEM_CACTVS_TPSA>
141

> <PUBCHEM_MONOISOTOPIC_WEIGHT>
512.215866

> <PUBCHEM_TOTAL_CHARGE>
0

> <PUBCHEM_HEAVY_ATOM_COUNT>
37

> <PUBCHEM_ATOM_DEF_STEREO_COUNT>
11

> <PUBCHEM_ATOM_UDEF_STEREO_COUNT>
1

> <PUBCHEM_BOND_DEF_STEREO_COUNT>
1

> <PUBCHEM_BOND_UDEF_STEREO_COUNT>
0

> <PUBCHEM_ISOTOPIC_ATOM_COUNT>
0

> <PUBCHEM_COMPONENT_COUNT>
1

> <PUBCHEM_CACTVS_TAUTO_COUNT>
1

> <PUBCHEM_COORDINATE_TYPE>
1
5
255

> <PUBCHEM_BONDANNOTATIONS>
11  14  3
12  39  6
13  22  6
15  41  5
16  42  6
20  2  6
27  2  5
22  23  8
22  25  8
23  26  8
25  29  8
26  31  8
29  31  8
35  37  5
32  5  6
34  6  5
36  7  6

$$$$

