5282260
  -OEChem-07051213042D

 55 55  0     1  0  0  0  0  0999 V2000
    7.4820   -3.4507    0.0000 O   0  0  0  0  0  0  0  0  0  0  0  0
   10.3299   -1.3816    0.0000 O   0  0  0  0  0  0  0  0  0  0  0  0
    8.5698    1.8971    0.0000 O   0  0  0  0  0  0  0  0  0  0  0  0
    2.5896    1.8107    0.0000 O   0  0  0  0  0  0  0  0  0  0  0  0
    2.0544    0.1634    0.0000 O   0  0  0  0  0  0  0  0  0  0  0  0
    7.7608   -1.6907    0.0000 C   0  0  2  0  0  0  0  0  0  0  0  0
    8.5698   -1.1029    0.0000 C   0  0  2  0  0  0  0  0  0  0  0  0
    8.0698   -2.6417    0.0000 C   0  0  2  0  0  0  0  0  0  0  0  0
    9.0698   -2.6417    0.0000 C   0  0  0  0  0  0  0  0  0  0  0  0
    9.3788   -1.6907    0.0000 C   0  0  0  0  0  0  0  0  0  0  0  0
    6.8097   -1.3816    0.0000 C   0  0  0  0  0  0  0  0  0  0  0  0
    8.5698   -0.1029    0.0000 C   0  0  0  0  0  0  0  0  0  0  0  0
    6.0666   -2.0508    0.0000 C   0  0  0  0  0  0  0  0  0  0  0  0
    9.4358    0.3971    0.0000 C   0  0  0  0  0  0  0  0  0  0  0  0
    9.4358    1.3971    0.0000 C   0  0  2  0  0  0  0  0  0  0  0  0
    5.1155   -1.7418    0.0000 C   0  0  0  0  0  0  0  0  0  0  0  0
    4.9076   -0.7636    0.0000 C   0  0  0  0  0  0  0  0  0  0  0  0
   10.3018    1.8971    0.0000 C   0  0  0  0  0  0  0  0  0  0  0  0
    3.9565   -0.4546    0.0000 C   0  0  0  0  0  0  0  0  0  0  0  0
   10.3018    2.8971    0.0000 C   0  0  0  0  0  0  0  0  0  0  0  0
    3.7486    0.5236    0.0000 C   0  0  0  0  0  0  0  0  0  0  0  0
   11.1679    3.3971    0.0000 C   0  0  0  0  0  0  0  0  0  0  0  0
    2.7976    0.8326    0.0000 C   0  0  0  0  0  0  0  0  0  0  0  0
   12.0339    2.8971    0.0000 C   0  0  0  0  0  0  0  0  0  0  0  0
   12.8999    3.3971    0.0000 C   0  0  0  0  0  0  0  0  0  0  0  0
    7.3224   -2.1291    0.0000 H   0  0  0  0  0  0  0  0  0  0  0  0
    9.1222   -0.8214    0.0000 H   0  0  0  0  0  0  0  0  0  0  0  0
    8.3512   -3.1941    0.0000 H   0  0  0  0  0  0  0  0  0  0  0  0
    9.0050   -3.2583    0.0000 H   0  0  0  0  0  0  0  0  0  0  0  0
    9.6762   -2.7706    0.0000 H   0  0  0  0  0  0  0  0  0  0  0  0
    7.1008   -0.8342    0.0000 H   0  0  0  0  0  0  0  0  0  0  0  0
    6.3211   -0.9999    0.0000 H   0  0  0  0  0  0  0  0  0  0  0  0
    8.0328    0.2071    0.0000 H   0  0  0  0  0  0  0  0  0  0  0  0
    6.1955   -2.6572    0.0000 H   0  0  0  0  0  0  0  0  0  0  0  0
    7.7342   -4.0171    0.0000 H   0  0  0  0  0  0  0  0  0  0  0  0
    9.9727    0.0871    0.0000 H   0  0  0  0  0  0  0  0  0  0  0  0
    8.8989    1.0871    0.0000 H   0  0  0  0  0  0  0  0  0  0  0  0
    4.6548   -2.1566    0.0000 H   0  0  0  0  0  0  0  0  0  0  0  0
    5.5272   -0.7420    0.0000 H   0  0  0  0  0  0  0  0  0  0  0  0
    4.9939   -0.1496    0.0000 H   0  0  0  0  0  0  0  0  0  0  0  0
   10.5139    1.3145    0.0000 H   0  0  0  0  0  0  0  0  0  0  0  0
   10.9124    2.0048    0.0000 H   0  0  0  0  0  0  0  0  0  0  0  0
    3.3369   -0.4762    0.0000 H   0  0  0  0  0  0  0  0  0  0  0  0
    3.8702   -1.0686    0.0000 H   0  0  0  0  0  0  0  0  0  0  0  0
    8.5698    2.5171    0.0000 H   0  0  0  0  0  0  0  0  0  0  0  0
    9.7649    3.2071    0.0000 H   0  0  0  0  0  0  0  0  0  0  0  0
    4.3682    0.5452    0.0000 H   0  0  0  0  0  0  0  0  0  0  0  0
    3.8349    1.1375    0.0000 H   0  0  0  0  0  0  0  0  0  0  0  0
   11.1679    4.0171    0.0000 H   0  0  0  0  0  0  0  0  0  0  0  0
   11.6354    2.4222    0.0000 H   0  0  0  0  0  0  0  0  0  0  0  0
   12.4324    2.4222    0.0000 H   0  0  0  0  0  0  0  0  0  0  0  0
   13.2099    2.8602    0.0000 H   0  0  0  0  0  0  0  0  0  0  0  0
   13.4368    3.7071    0.0000 H   0  0  0  0  0  0  0  0  0  0  0  0
   12.5899    3.9341    0.0000 H   0  0  0  0  0  0  0  0  0  0  0  0
    2.0000    2.0023    0.0000 H   0  0  0  0  0  0  0  0  0  0  0  0
  8  1  1  6  0  0  0
  1 35  1  0  0  0  0
  2 10  2  0  0  0  0
 15  3  1  1  0  0  0
  3 45  1  0  0  0  0
  4 23  1  0  0  0  0
  4 55  1  0  0  0  0
  5 23  2  0  0  0  0
  6  7  1  0  0  0  0
  6  8  1  0  0  0  0
  6 11  1  6  0  0  0
  6 26  1  0  0  0  0
  7 10  1  0  0  0  0
  7 12  1  1  0  0  0
  7 27  1  0  0  0  0
  8  9  1  0  0  0  0
  8 28  1  0  0  0  0
  9 10  1  0  0  0  0
  9 29  1  0  0  0  0
  9 30  1  0  0  0  0
 11 13  1  0  0  0  0
 11 31  1  0  0  0  0
 11 32  1  0  0  0  0
 12 14  2  0  0  0  0
 12 33  1  0  0  0  0
 13 16  2  0  0  0  0
 13 34  1  0  0  0  0
 14 15  1  0  0  0  0
 14 36  1  0  0  0  0
 15 18  1  0  0  0  0
 15 37  1  0  0  0  0
 16 17  1  0  0  0  0
 16 38  1  0  0  0  0
 17 19  1  0  0  0  0
 17 39  1  0  0  0  0
 17 40  1  0  0  0  0
 18 20  1  0  0  0  0
 18 41  1  0  0  0  0
 18 42  1  0  0  0  0
 19 21  1  0  0  0  0
 19 43  1  0  0  0  0
 19 44  1  0  0  0  0
 20 22  2  0  0  0  0
 20 46  1  0  0  0  0
 21 23  1  0  0  0  0
 21 47  1  0  0  0  0
 21 48  1  0  0  0  0
 22 24  1  0  0  0  0
 22 49  1  0  0  0  0
 24 25  1  0  0  0  0
 24 50  1  0  0  0  0
 24 51  1  0  0  0  0
 25 52  1  0  0  0  0
 25 53  1  0  0  0  0
 25 54  1  0  0  0  0
M  END
> <PUBCHEM_COMPOUND_CID>
5282260

> <PUBCHEM_COMPOUND_CANONICALIZED>
1

> <PUBCHEM_CACTVS_COMPLEXITY>
506

> <PUBCHEM_CACTVS_HBOND_ACCEPTOR>
5

> <PUBCHEM_CACTVS_HBOND_DONOR>
3

> <PUBCHEM_CACTVS_ROTATABLE_BOND>
11

> <PUBCHEM_CACTVS_SUBSKEYS>
AAADceB4OAAAAAAAAAAAAAAAAAAAAYAAAAAAAAAAAAAAAAAAAAAAGgAACAAADRSggAICCAAAAgCIAKDSCAAAAAAgAAAICAEAAAgAFBYAAQAAUAAE4AAIEAOKyKAOgAAAAAAAAAAAAAAAAAAAAIAADAAAAA==

> <PUBCHEM_IUPAC_OPENEYE_NAME>
(Z)-7-[(1R,2R,5S)-5-hydroxy-2-[(1E,3S,5Z)-3-hydroxyocta-1,5-dienyl]-3-oxo-cyclopentyl]hept-5-enoic acid

> <PUBCHEM_IUPAC_CAS_NAME>
(Z)-7-[(1R,2R,5S)-5-hydroxy-2-[(1E,3S,5Z)-3-hydroxyocta-1,5-dienyl]-3-oxocyclopentyl]-5-heptenoic acid

> <PUBCHEM_IUPAC_NAME>
(Z)-7-[(1R,2R,5S)-5-hydroxy-2-[(1E,3S,5Z)-3-hydroxyocta-1,5-dienyl]-3-oxocyclopentyl]hept-5-enoic acid

> <PUBCHEM_IUPAC_SYSTEMATIC_NAME>
(Z)-7-[(1R,2R,5S)-5-oxidanyl-3-oxidanylidene-2-[(1E,3S,5Z)-3-oxidanylocta-1,5-dienyl]cyclopentyl]hept-5-enoic acid

> <PUBCHEM_IUPAC_TRADITIONAL_NAME>
(Z)-7-[(1R,2R,5S)-5-hydroxy-2-[(1E,3S,5Z)-3-hydroxyocta-1,5-dienyl]-3-keto-cyclopentyl]hept-5-enoic acid

> <PUBCHEM_IUPAC_INCHI>
InChI=1S/C20H30O5/c1-2-3-6-9-15(21)12-13-17-16(18(22)14-19(17)23)10-7-4-5-8-11-20(24)25/h3-4,6-7,12-13,15-18,21-22H,2,5,8-11,14H2,1H3,(H,24,25)/b6-3-,7-4-,13-12+/t15-,16+,17+,18-/m0/s1

> <PUBCHEM_IUPAC_INCHIKEY>
ANOICLBSJIMQTA-WXGBOJPQSA-N

> <PUBCHEM_XLOGP3_AA>
2

> <PUBCHEM_EXACT_MASS>
350.209324

> <PUBCHEM_MOLECULAR_FORMULA>
C20H30O5

> <PUBCHEM_MOLECULAR_WEIGHT>
350.4492

> <PUBCHEM_OPENEYE_CAN_SMILES>
CCC=CCC(C=CC1C(C(CC1=O)O)CC=CCCCC(=O)O)O

> <PUBCHEM_OPENEYE_ISO_SMILES>
CC/C=C\C[C@@H](/C=C/[C@@H]1[C@H]([C@H](CC1=O)O)C/C=C\CCCC(=O)O)O

> <PUBCHEM_CACTVS_TPSA>
94.8

> <PUBCHEM_MONOISOTOPIC_WEIGHT>
350.209324

> <PUBCHEM_TOTAL_CHARGE>
0

> <PUBCHEM_HEAVY_ATOM_COUNT>
25

> <PUBCHEM_ATOM_DEF_STEREO_COUNT>
4

> <PUBCHEM_ATOM_UDEF_STEREO_COUNT>
0

> <PUBCHEM_BOND_DEF_STEREO_COUNT>
3

> <PUBCHEM_BOND_UDEF_STEREO_COUNT>
0

> <PUBCHEM_ISOTOPIC_ATOM_COUNT>
0

> <PUBCHEM_COMPONENT_COUNT>
1

> <PUBCHEM_CACTVS_TAUTO_COUNT>
5

> <PUBCHEM_COORDINATE_TYPE>
1
5
255

> <PUBCHEM_BONDANNOTATIONS>
8  1  6
15  3  5
6  11  6
7  12  5

$$$$

