17395470
  -OEChem-06241222502D

 45 47  0     0  0  0  0  0  0999 V2000
    3.7601   -2.9842    0.0000 O   0  0  0  0  0  0  0  0  0  0  0  0
    8.0902   -4.4842    0.0000 O   0  0  0  0  0  0  0  0  0  0  0  0
    4.2601    1.5546    0.0000 N   0  0  0  0  0  0  0  0  0  0  0  0
    3.2601    1.5546    0.0000 N   0  0  0  0  0  0  0  0  0  0  0  0
    4.6261   -1.4842    0.0000 N   0  0  0  0  0  0  0  0  0  0  0  0
    6.3582   -4.4842    0.0000 N   0  0  0  0  0  0  0  0  0  0  0  0
    3.7601    0.0158    0.0000 C   0  0  0  0  0  0  0  0  0  0  0  0
    4.5691    0.6035    0.0000 C   0  0  0  0  0  0  0  0  0  0  0  0
    2.9511    0.6035    0.0000 C   0  0  0  0  0  0  0  0  0  0  0  0
    4.8479    2.3636    0.0000 C   0  0  0  0  0  0  0  0  0  0  0  0
    3.7601   -0.9842    0.0000 C   0  0  0  0  0  0  0  0  0  0  0  0
    5.5202    0.2945    0.0000 C   0  0  0  0  0  0  0  0  0  0  0  0
    4.4411    3.2772    0.0000 C   0  0  0  0  0  0  0  0  0  0  0  0
    2.0000    0.2945    0.0000 C   0  0  0  0  0  0  0  0  0  0  0  0
    5.0289    4.0862    0.0000 C   0  0  0  0  0  0  0  0  0  0  0  0
    3.4466    3.3817    0.0000 C   0  0  0  0  0  0  0  0  0  0  0  0
    4.6261   -2.4842    0.0000 C   0  0  0  0  0  0  0  0  0  0  0  0
    5.4921   -2.9842    0.0000 C   0  0  0  0  0  0  0  0  0  0  0  0
    4.6222    4.9997    0.0000 C   0  0  0  0  0  0  0  0  0  0  0  0
    3.0399    4.2952    0.0000 C   0  0  0  0  0  0  0  0  0  0  0  0
    3.6276    5.1043    0.0000 C   0  0  0  0  0  0  0  0  0  0  0  0
    5.4921   -3.9842    0.0000 C   0  0  0  0  0  0  0  0  0  0  0  0
    6.3582   -2.4842    0.0000 C   0  0  0  0  0  0  0  0  0  0  0  0
    7.2242   -2.9842    0.0000 C   0  0  0  0  0  0  0  0  0  0  0  0
    7.2242   -3.9842    0.0000 C   0  0  0  0  0  0  0  0  0  0  0  0
    5.2786    1.9176    0.0000 H   0  0  0  0  0  0  0  0  0  0  0  0
    5.3619    2.7103    0.0000 H   0  0  0  0  0  0  0  0  0  0  0  0
    3.1495   -0.8766    0.0000 H   0  0  0  0  0  0  0  0  0  0  0  0
    3.5480   -1.5669    0.0000 H   0  0  0  0  0  0  0  0  0  0  0  0
    5.3286   -0.2951    0.0000 H   0  0  0  0  0  0  0  0  0  0  0  0
    6.1098    0.1029    0.0000 H   0  0  0  0  0  0  0  0  0  0  0  0
    5.7117    0.8842    0.0000 H   0  0  0  0  0  0  0  0  0  0  0  0
    1.8084    0.8842    0.0000 H   0  0  0  0  0  0  0  0  0  0  0  0
    1.4103    0.1029    0.0000 H   0  0  0  0  0  0  0  0  0  0  0  0
    2.1916   -0.2951    0.0000 H   0  0  0  0  0  0  0  0  0  0  0  0
    5.1630   -1.1742    0.0000 H   0  0  0  0  0  0  0  0  0  0  0  0
    5.6455    4.0214    0.0000 H   0  0  0  0  0  0  0  0  0  0  0  0
    3.0822    2.8801    0.0000 H   0  0  0  0  0  0  0  0  0  0  0  0
    4.9866    5.5013    0.0000 H   0  0  0  0  0  0  0  0  0  0  0  0
    2.4233    4.3600    0.0000 H   0  0  0  0  0  0  0  0  0  0  0  0
    3.3755    5.6706    0.0000 H   0  0  0  0  0  0  0  0  0  0  0  0
    4.9552   -4.2942    0.0000 H   0  0  0  0  0  0  0  0  0  0  0  0
    6.3582   -1.8642    0.0000 H   0  0  0  0  0  0  0  0  0  0  0  0
    6.3582   -5.1043    0.0000 H   0  0  0  0  0  0  0  0  0  0  0  0
    7.7611   -2.6742    0.0000 H   0  0  0  0  0  0  0  0  0  0  0  0
  1 17  2  0  0  0  0
  2 25  2  0  0  0  0
  3  4  1  0  0  0  0
  3  8  1  0  0  0  0
  3 10  1  0  0  0  0
  4  9  2  0  0  0  0
  5 11  1  0  0  0  0
  5 17  1  0  0  0  0
  5 36  1  0  0  0  0
  6 22  1  0  0  0  0
  6 25  1  0  0  0  0
  6 44  1  0  0  0  0
  7  8  2  0  0  0  0
  7  9  1  0  0  0  0
  7 11  1  0  0  0  0
  8 12  1  0  0  0  0
  9 14  1  0  0  0  0
 10 13  1  0  0  0  0
 10 26  1  0  0  0  0
 10 27  1  0  0  0  0
 11 28  1  0  0  0  0
 11 29  1  0  0  0  0
 12 30  1  0  0  0  0
 12 31  1  0  0  0  0
 12 32  1  0  0  0  0
 13 15  2  0  0  0  0
 13 16  1  0  0  0  0
 14 33  1  0  0  0  0
 14 34  1  0  0  0  0
 14 35  1  0  0  0  0
 15 19  1  0  0  0  0
 15 37  1  0  0  0  0
 16 20  2  0  0  0  0
 16 38  1  0  0  0  0
 17 18  1  0  0  0  0
 18 22  2  0  0  0  0
 18 23  1  0  0  0  0
 19 21  2  0  0  0  0
 19 39  1  0  0  0  0
 20 21  1  0  0  0  0
 20 40  1  0  0  0  0
 21 41  1  0  0  0  0
 22 42  1  0  0  0  0
 23 24  2  0  0  0  0
 23 43  1  0  0  0  0
 24 25  1  0  0  0  0
 24 45  1  0  0  0  0
M  END
> <PUBCHEM_COMPOUND_CID>
17395470

> <PUBCHEM_COMPOUND_CANONICALIZED>
1

> <PUBCHEM_CACTVS_COMPLEXITY>
566

> <PUBCHEM_CACTVS_HBOND_ACCEPTOR>
3

> <PUBCHEM_CACTVS_HBOND_DONOR>
2

> <PUBCHEM_CACTVS_ROTATABLE_BOND>
5

> <PUBCHEM_CACTVS_SUBSKEYS>
AAADceB7sAAAAAAAAAAAAAAAAAAAAWAAAAAwQAAAAAAAAAABwAAAHgAYAAAADAjBngQygJLIAACqAyV2VACSBAAhgAAY2KE4RNgIICLA0dGEpAhgngDIyccQgAAOAAAAAAAAAAAAAAAAAAAAAAAAAAAAAA==

> <PUBCHEM_IUPAC_OPENEYE_NAME>
N-[(1-benzyl-3,5-dimethyl-pyrazol-4-yl)methyl]-6-oxo-1H-pyridine-3-carboxamide

> <PUBCHEM_IUPAC_CAS_NAME>
N-[[3,5-dimethyl-1-(phenylmethyl)-4-pyrazolyl]methyl]-6-oxo-1H-pyridine-3-carboxamide

> <PUBCHEM_IUPAC_NAME>
N-[(1-benzyl-3,5-dimethylpyrazol-4-yl)methyl]-6-oxo-1H-pyridine-3-carboxamide

> <PUBCHEM_IUPAC_SYSTEMATIC_NAME>
N-[[3,5-dimethyl-1-(phenylmethyl)pyrazol-4-yl]methyl]-6-oxidanylidene-1H-pyridine-3-carboxamide

> <PUBCHEM_IUPAC_TRADITIONAL_NAME>
N-[(1-benzyl-3,5-dimethyl-pyrazol-4-yl)methyl]-6-keto-1H-pyridine-3-carboxamide

> <PUBCHEM_IUPAC_INCHI>
InChI=1S/C19H20N4O2/c1-13-17(11-21-19(25)16-8-9-18(24)20-10-16)14(2)23(22-13)12-15-6-4-3-5-7-15/h3-10H,11-12H2,1-2H3,(H,20,24)(H,21,25)

> <PUBCHEM_IUPAC_INCHIKEY>
AXPBHJCONGWHNS-UHFFFAOYSA-N

> <PUBCHEM_XLOGP3_AA>
1.4

> <PUBCHEM_EXACT_MASS>
336.158626

> <PUBCHEM_MOLECULAR_FORMULA>
C19H20N4O2

> <PUBCHEM_MOLECULAR_WEIGHT>
336.3877

> <PUBCHEM_OPENEYE_CAN_SMILES>
CC1=C(C(=NN1CC2=CC=CC=C2)C)CNC(=O)C3=CNC(=O)C=C3

> <PUBCHEM_OPENEYE_ISO_SMILES>
CC1=C(C(=NN1CC2=CC=CC=C2)C)CNC(=O)C3=CNC(=O)C=C3

> <PUBCHEM_CACTVS_TPSA>
76

> <PUBCHEM_MONOISOTOPIC_WEIGHT>
336.158626

> <PUBCHEM_TOTAL_CHARGE>
0

> <PUBCHEM_HEAVY_ATOM_COUNT>
25

> <PUBCHEM_ATOM_DEF_STEREO_COUNT>
0

> <PUBCHEM_ATOM_UDEF_STEREO_COUNT>
0

> <PUBCHEM_BOND_DEF_STEREO_COUNT>
0

> <PUBCHEM_BOND_UDEF_STEREO_COUNT>
0

> <PUBCHEM_ISOTOPIC_ATOM_COUNT>
0

> <PUBCHEM_COMPONENT_COUNT>
1

> <PUBCHEM_CACTVS_TAUTO_COUNT>
7

> <PUBCHEM_COORDINATE_TYPE>
1
5
255

> <PUBCHEM_BONDANNOTATIONS>
13  15  8
13  16  8
15  19  8
16  20  8
18  22  8
18  23  8
19  21  8
20  21  8
23  24  8
24  25  8
3  4  8
3  8  8
4  9  8
6  22  8
6  25  8
7  8  8
7  9  8

$$$$

