439974
  -OEChem-07051212482D

 18 19  0     0  0  0  0  0  0999 V2000
    3.7320    1.8100    0.0000 O   0  0  0  0  0  0  0  0  0  0  0  0
    2.0000   -1.1900    0.0000 O   0  0  0  0  0  0  0  0  0  0  0  0
    7.6279   -1.0560    0.0000 O   0  0  0  0  0  0  0  0  0  0  0  0
    7.6279    0.6760    0.0000 O   0  0  0  0  0  0  0  0  0  0  0  0
    5.5443    0.6147    0.0000 N   0  0  0  0  0  0  0  0  0  0  0  0
    3.7320   -1.1900    0.0000 N   0  0  0  0  0  0  0  0  0  0  0  0
    5.5443   -0.9947    0.0000 N   0  0  0  0  0  0  0  0  0  0  0  0
    2.8660    0.3100    0.0000 N   0  0  0  0  0  0  0  0  0  0  0  0
    4.5981    0.3100    0.0000 C   0  0  0  0  0  0  0  0  0  0  0  0
    4.5981   -0.6900    0.0000 C   0  0  0  0  0  0  0  0  0  0  0  0
    6.1279   -0.1900    0.0000 C   0  0  0  0  0  0  0  0  0  0  0  0
    3.7320    0.8100    0.0000 C   0  0  0  0  0  0  0  0  0  0  0  0
    2.8660   -0.6900    0.0000 C   0  0  0  0  0  0  0  0  0  0  0  0
    7.1279   -0.1900    0.0000 C   0  0  0  0  0  0  0  0  0  0  0  0
    5.7369    1.2040    0.0000 H   0  0  0  0  0  0  0  0  0  0  0  0
    3.7320   -1.8100    0.0000 H   0  0  0  0  0  0  0  0  0  0  0  0
    2.3291    0.6200    0.0000 H   0  0  0  0  0  0  0  0  0  0  0  0
    8.2479   -1.0560    0.0000 H   0  0  0  0  0  0  0  0  0  0  0  0
  1 12  2  0  0  0  0
  2 13  2  0  0  0  0
  3 14  1  0  0  0  0
  3 18  1  0  0  0  0
  4 14  2  0  0  0  0
  5  9  1  0  0  0  0
  5 11  1  0  0  0  0
  5 15  1  0  0  0  0
  6 10  1  0  0  0  0
  6 13  1  0  0  0  0
  6 16  1  0  0  0  0
  7 10  1  0  0  0  0
  7 11  2  0  0  0  0
  8 12  1  0  0  0  0
  8 13  1  0  0  0  0
  8 17  1  0  0  0  0
  9 10  2  0  0  0  0
  9 12  1  0  0  0  0
 11 14  1  0  0  0  0
M  END
> <PUBCHEM_COMPOUND_CID>
439974

> <PUBCHEM_COMPOUND_CANONICALIZED>
1

> <PUBCHEM_CACTVS_COMPLEXITY>
317

> <PUBCHEM_CACTVS_HBOND_ACCEPTOR>
5

> <PUBCHEM_CACTVS_HBOND_DONOR>
4

> <PUBCHEM_CACTVS_ROTATABLE_BOND>
1

> <PUBCHEM_CACTVS_SUBSKEYS>
AAADcYBjuAAAAAAAAAAAAAAAAAAAAWAAAAAsAAAAAAAAAFgBgAAADgAQCAAACAgBlwABuBbJkgCoAQfwfASAgC2HEKABEQGgVECCSAhASCAUAIgIBSLQAGAAAAAAAAAAAAAAAAAAAAAAAAAAAAAAAAAAAA==

> <PUBCHEM_IUPAC_OPENEYE_NAME>
2,6-dioxo-3,7-dihydropurine-8-carboxylic acid

> <PUBCHEM_IUPAC_CAS_NAME>
2,6-dioxo-3,7-dihydropurine-8-carboxylic acid

> <PUBCHEM_IUPAC_NAME>
2,6-dioxo-3,7-dihydropurine-8-carboxylic acid

> <PUBCHEM_IUPAC_SYSTEMATIC_NAME>
2,6-bis(oxidanylidene)-3,7-dihydropurine-8-carboxylic acid

> <PUBCHEM_IUPAC_TRADITIONAL_NAME>
2,6-diketo-3,7-dihydropurine-8-carboxylic acid

> <PUBCHEM_IUPAC_INCHI>
InChI=1S/C6H4N4O4/c11-4-1-2(9-6(14)10-4)8-3(7-1)5(12)13/h(H,12,13)(H3,7,8,9,10,11,14)

> <PUBCHEM_IUPAC_INCHIKEY>
VRZJGNXBSRQZGM-UHFFFAOYSA-N

> <PUBCHEM_XLOGP3_AA>
-0.9

> <PUBCHEM_EXACT_MASS>
196.023255

> <PUBCHEM_MOLECULAR_FORMULA>
C6H4N4O4

> <PUBCHEM_MOLECULAR_WEIGHT>
196.12036

> <PUBCHEM_OPENEYE_CAN_SMILES>
C12=C(NC(=O)NC1=O)N=C(N2)C(=O)O

> <PUBCHEM_OPENEYE_ISO_SMILES>
C12=C(NC(=O)NC1=O)N=C(N2)C(=O)O

> <PUBCHEM_CACTVS_TPSA>
124

> <PUBCHEM_MONOISOTOPIC_WEIGHT>
196.023255

> <PUBCHEM_TOTAL_CHARGE>
0

> <PUBCHEM_HEAVY_ATOM_COUNT>
14

> <PUBCHEM_ATOM_DEF_STEREO_COUNT>
0

> <PUBCHEM_ATOM_UDEF_STEREO_COUNT>
0

> <PUBCHEM_BOND_DEF_STEREO_COUNT>
0

> <PUBCHEM_BOND_UDEF_STEREO_COUNT>
0

> <PUBCHEM_ISOTOPIC_ATOM_COUNT>
0

> <PUBCHEM_COMPONENT_COUNT>
1

> <PUBCHEM_CACTVS_TAUTO_COUNT>
42

> <PUBCHEM_COORDINATE_TYPE>
1
5
255

> <PUBCHEM_BONDANNOTATIONS>
5  11  8
5  9  8
6  10  8
6  13  8
7  10  8
7  11  8
8  12  8
8  13  8
9  10  8
9  12  8

$$$$

