313
  -OEChem-07051212452D

  2  1  0     0  0  0  0  0  0999 V2000
    3.0000    0.0000    0.0000 Cl  0  0  0  0  0  0  0  0  0  0  0  0
    2.0000    0.0000    0.0000 H   0  0  0  0  0  0  0  0  0  0  0  0
  1  2  1  0  0  0  0
M  END
> <PUBCHEM_COMPOUND_CID>
313

> <PUBCHEM_COMPOUND_CANONICALIZED>
1

> <PUBCHEM_MOLECULAR_WEIGHT>
36.46094

> <PUBCHEM_MONOISOTOPIC_WEIGHT>
35.976678

> <PUBCHEM_EXACT_MASS>
35.976678

> <PUBCHEM_MOLECULAR_FORMULA>
ClH

> <PUBCHEM_IUPAC_INCHI>
InChI=1S/ClH/h1H

> <PUBCHEM_IUPAC_INCHIKEY>
VEXZGXHMUGYJMC-UHFFFAOYSA-N

> <PUBCHEM_XLOGP3_AA>
0.8

> <PUBCHEM_OPENEYE_CAN_SMILES>
Cl

> <PUBCHEM_OPENEYE_ISO_SMILES>
Cl

> <PUBCHEM_IUPAC_NAME>
chlorane

> <PUBCHEM_IUPAC_OPENEYE_NAME>
hydrogen chloride

> <PUBCHEM_IUPAC_CAS_NAME>
chlorane

> <PUBCHEM_IUPAC_TRADITIONAL_NAME>
hydrogen chloride

> <PUBCHEM_IUPAC_SYSTEMATIC_NAME>
chlorane

> <PUBCHEM_CACTVS_HBOND_DONOR>
1

> <PUBCHEM_CACTVS_HBOND_ACCEPTOR>
0

> <PUBCHEM_CACTVS_ROTATABLE_BOND>
0

> <PUBCHEM_CACTVS_COMPLEXITY>
0

> <PUBCHEM_CACTVS_TPSA>
0

> <PUBCHEM_CACTVS_SUBSKEYS>
AAADcQAAAAAEAAAAAAAAAAAAAAAAAAAAAAAAAAAAAAAAAAAAAAAAAAAAAAAAAAAAAAAAAAAAAAAAAAAAAAAAAAAAAAAAAAAAAAAAAAAAAAAAAAAAAAAAAAAAAAAAAAAAAAAAAAAAAAAAAAAAAAAAAAAAAA==

> <PUBCHEM_TOTAL_CHARGE>
0

> <PUBCHEM_HEAVY_ATOM_COUNT>
1

> <PUBCHEM_ATOM_DEF_STEREO_COUNT>
0

> <PUBCHEM_ATOM_UDEF_STEREO_COUNT>
0

> <PUBCHEM_BOND_DEF_STEREO_COUNT>
0

> <PUBCHEM_BOND_UDEF_STEREO_COUNT>
0

> <PUBCHEM_ISOTOPIC_ATOM_COUNT>
0

> <PUBCHEM_COMPONENT_COUNT>
1

> <PUBCHEM_CACTVS_TAUTO_COUNT>
1

> <PUBCHEM_COORDINATE_TYPE>
1
3

$$$$

