   Octanol/Water Partition Coefficient
        log Kow = 2.63 (est)
   from [1]HSDB

   Solubilities
        In water, 505 mg/L at 25 deg C (est)
   from [2]HSDB

   Vapor Pressure
        1.7X10-9 mm Hg at 25 deg C (est)
   from [3]HSDB

   Other Chemical/Physical Properties

     * Crystalline solid, mp 278 deg C /Methanesulfonate/
     * MW: 438.50. White to off-white powder that is freely soluble in
       water and propylene glycol, slightly soluble in ethanol, and
       slightly soluble in normal saline
     * Henry's Law constant = 1.34X10-14 atm-cu m/mol at 25 deg C (est)
     * Hydroxyl radical reaction rate constant = 2.26X10-14 cu
       cm/molec-sec at 25 deg C (est)

   from [4]HSDB

   Computed Properties
   Molecular Weight                  324.3737 [g/mol]
   Molecular Formula                 C[19]H[20]N[2]O[3]
   XLogP3                            3.4
   H-Bond Donor                      1
   H-Bond Acceptor                   4
   Rotatable Bond Count              3
   Tautomer Count                    6
   Exact Mass                        324.147393
   MonoIsotopic Mass                 324.147393
   Topological Polar Surface Area    62.4
   Heavy Atom Count                  24
   Formal Charge                     0
   Complexity                        535
   Isotope Atom Count                0
   Defined Atom Stereocenter Count   0
   Undefined Atom Stereocenter Count 2
   Defined Bond Stereocenter Count   0
   Undefined Bond Stereocenter Count 0
   Covalently-Bonded Unit Count      1
   Feature 3D Acceptor Count         2
   Feature 3D Donor Count            1
   Feature 3D Cation Count           2
   Feature 3D Ring Count             4
   Effective Rotor Count             4.2
   Conformer Sampling RMSD           0.8
   CID Conformer Count               [5]39

References

   1. http://toxnet.nlm.nih.gov/cgi-bin/sis/search/r?dbs+hsdb:@term+@rn+@rel+115956-12-2
   2. http://toxnet.nlm.nih.gov/cgi-bin/sis/search/r?dbs+hsdb:@term+@rn+@rel+115956-12-2
   3. http://toxnet.nlm.nih.gov/cgi-bin/sis/search/r?dbs+hsdb:@term+@rn+@rel+115956-12-2
   4. http://toxnet.nlm.nih.gov/cgi-bin/sis/search/r?dbs+hsdb:@term+@rn+@rel+115956-12-2
   5. http://pubchem.ncbi.nlm.nih.gov/vw3d/vw3d.cgi?cid=3148
