7132
  -OEChem-06261201482D

 55 55  0     0  0  0  0  0  0999 V2000
    7.2463    0.0000    0.0000 Br  0  5  0  0  0  0  0  0  0  0  0  0
   10.9292    3.6772    0.0000 N   0  3  0  0  0  0  0  0  0  0  0  0
    6.5991    3.1772    0.0000 C   0  0  0  0  0  0  0  0  0  0  0  0
    5.7331    3.6772    0.0000 C   0  0  0  0  0  0  0  0  0  0  0  0
    7.4651    3.6772    0.0000 C   0  0  0  0  0  0  0  0  0  0  0  0
    4.8671    3.1772    0.0000 C   0  0  0  0  0  0  0  0  0  0  0  0
    8.3312    3.1772    0.0000 C   0  0  0  0  0  0  0  0  0  0  0  0
    4.0010    3.6772    0.0000 C   0  0  0  0  0  0  0  0  0  0  0  0
    9.1972    3.6772    0.0000 C   0  0  0  0  0  0  0  0  0  0  0  0
    3.1350    3.1772    0.0000 C   0  0  0  0  0  0  0  0  0  0  0  0
   10.0632    3.1772    0.0000 C   0  0  0  0  0  0  0  0  0  0  0  0
    2.2690    3.6772    0.0000 C   0  0  0  0  0  0  0  0  0  0  0  0
    1.4030    3.1772    0.0000 C   0  0  0  0  0  0  0  0  0  0  0  0
   11.7953    3.1772    0.0000 C   0  0  0  0  0  0  0  0  0  0  0  0
   10.9292    4.6772    0.0000 C   0  0  0  0  0  0  0  0  0  0  0  0
   12.6613    3.6772    0.0000 C   0  0  0  0  0  0  0  0  0  0  0  0
    0.5369    3.6772    0.0000 C   0  0  0  0  0  0  0  0  0  0  0  0
   12.6613    4.6772    0.0000 C   0  0  0  0  0  0  0  0  0  0  0  0
   11.7953    5.1772    0.0000 C   0  0  0  0  0  0  0  0  0  0  0  0
   13.5552    3.1426    0.0000 C   0  0  0  0  0  0  0  0  0  0  0  0
   13.5552    5.2119    0.0000 C   0  0  0  0  0  0  0  0  0  0  0  0
   14.4613    3.6564    0.0000 C   0  0  0  0  0  0  0  0  0  0  0  0
   14.4613    4.6981    0.0000 C   0  0  0  0  0  0  0  0  0  0  0  0
    6.2006    2.7023    0.0000 H   0  0  0  0  0  0  0  0  0  0  0  0
    6.9976    2.7023    0.0000 H   0  0  0  0  0  0  0  0  0  0  0  0
    6.1316    4.1522    0.0000 H   0  0  0  0  0  0  0  0  0  0  0  0
    5.3346    4.1522    0.0000 H   0  0  0  0  0  0  0  0  0  0  0  0
    7.8637    4.1522    0.0000 H   0  0  0  0  0  0  0  0  0  0  0  0
    7.0666    4.1522    0.0000 H   0  0  0  0  0  0  0  0  0  0  0  0
    4.4685    2.7023    0.0000 H   0  0  0  0  0  0  0  0  0  0  0  0
    5.2656    2.7023    0.0000 H   0  0  0  0  0  0  0  0  0  0  0  0
    7.9326    2.7023    0.0000 H   0  0  0  0  0  0  0  0  0  0  0  0
    8.7297    2.7023    0.0000 H   0  0  0  0  0  0  0  0  0  0  0  0
    4.3996    4.1522    0.0000 H   0  0  0  0  0  0  0  0  0  0  0  0
    3.6025    4.1522    0.0000 H   0  0  0  0  0  0  0  0  0  0  0  0
    9.5957    4.1522    0.0000 H   0  0  0  0  0  0  0  0  0  0  0  0
    8.7987    4.1522    0.0000 H   0  0  0  0  0  0  0  0  0  0  0  0
    2.7365    2.7023    0.0000 H   0  0  0  0  0  0  0  0  0  0  0  0
    3.5335    2.7023    0.0000 H   0  0  0  0  0  0  0  0  0  0  0  0
    9.6647    2.7023    0.0000 H   0  0  0  0  0  0  0  0  0  0  0  0
   10.4617    2.7023    0.0000 H   0  0  0  0  0  0  0  0  0  0  0  0
    2.6675    4.1522    0.0000 H   0  0  0  0  0  0  0  0  0  0  0  0
    1.8705    4.1522    0.0000 H   0  0  0  0  0  0  0  0  0  0  0  0
    1.0044    2.7023    0.0000 H   0  0  0  0  0  0  0  0  0  0  0  0
    1.8015    2.7023    0.0000 H   0  0  0  0  0  0  0  0  0  0  0  0
   11.7953    2.5572    0.0000 H   0  0  0  0  0  0  0  0  0  0  0  0
   10.3923    4.9873    0.0000 H   0  0  0  0  0  0  0  0  0  0  0  0
    0.8469    4.2142    0.0000 H   0  0  0  0  0  0  0  0  0  0  0  0
    0.0000    3.9872    0.0000 H   0  0  0  0  0  0  0  0  0  0  0  0
    0.2269    3.1403    0.0000 H   0  0  0  0  0  0  0  0  0  0  0  0
   11.7953    5.7972    0.0000 H   0  0  0  0  0  0  0  0  0  0  0  0
   13.5481    2.5226    0.0000 H   0  0  0  0  0  0  0  0  0  0  0  0
   13.5481    5.8319    0.0000 H   0  0  0  0  0  0  0  0  0  0  0  0
   14.9970    3.3444    0.0000 H   0  0  0  0  0  0  0  0  0  0  0  0
   14.9970    5.0101    0.0000 H   0  0  0  0  0  0  0  0  0  0  0  0
  2 11  1  0  0  0  0
  2 14  2  0  0  0  0
  2 15  1  0  0  0  0
  3  4  1  0  0  0  0
  3  5  1  0  0  0  0
  3 24  1  0  0  0  0
  3 25  1  0  0  0  0
  4  6  1  0  0  0  0
  4 26  1  0  0  0  0
  4 27  1  0  0  0  0
  5  7  1  0  0  0  0
  5 28  1  0  0  0  0
  5 29  1  0  0  0  0
  6  8  1  0  0  0  0
  6 30  1  0  0  0  0
  6 31  1  0  0  0  0
  7  9  1  0  0  0  0
  7 32  1  0  0  0  0
  7 33  1  0  0  0  0
  8 10  1  0  0  0  0
  8 34  1  0  0  0  0
  8 35  1  0  0  0  0
  9 11  1  0  0  0  0
  9 36  1  0  0  0  0
  9 37  1  0  0  0  0
 10 12  1  0  0  0  0
 10 38  1  0  0  0  0
 10 39  1  0  0  0  0
 11 40  1  0  0  0  0
 11 41  1  0  0  0  0
 12 13  1  0  0  0  0
 12 42  1  0  0  0  0
 12 43  1  0  0  0  0
 13 17  1  0  0  0  0
 13 44  1  0  0  0  0
 13 45  1  0  0  0  0
 14 16  1  0  0  0  0
 14 46  1  0  0  0  0
 15 19  2  0  0  0  0
 15 47  1  0  0  0  0
 16 18  1  0  0  0  0
 16 20  2  0  0  0  0
 17 48  1  0  0  0  0
 17 49  1  0  0  0  0
 17 50  1  0  0  0  0
 18 19  1  0  0  0  0
 18 21  2  0  0  0  0
 19 51  1  0  0  0  0
 20 22  1  0  0  0  0
 20 52  1  0  0  0  0
 21 23  1  0  0  0  0
 21 53  1  0  0  0  0
 22 23  2  0  0  0  0
 22 54  1  0  0  0  0
 23 55  1  0  0  0  0
M  CHG  2   1  -1   2   1
M  END
> <PUBCHEM_COMPOUND_CID>
7132

> <PUBCHEM_COMPOUND_CANONICALIZED>
1

> <PUBCHEM_CACTVS_COMPLEXITY>
263

> <PUBCHEM_CACTVS_HBOND_ACCEPTOR>
1

> <PUBCHEM_CACTVS_HBOND_DONOR>
0

> <PUBCHEM_CACTVS_ROTATABLE_BOND>
11

> <PUBCHEM_CACTVS_SUBSKEYS>
AAADcfB6AAAAEAAAAAAAAAAAAAAAAAAAAAA8QAAAAAAAAACx8AAAHAAAAAAADADBGgQ+gNMMEACgAjBnRACCgCAxAiAI2CA4ZJgIIOLAkZGEIAhggADIyAcQgIAOgAAAAAAQAAAAAAAAACAAAAAAAAAAAA==

> <PUBCHEM_IUPAC_OPENEYE_NAME>
2-dodecylisoquinolin-2-ium bromide

> <PUBCHEM_IUPAC_CAS_NAME>
2-dodecylisoquinolin-2-ium bromide

> <PUBCHEM_IUPAC_NAME>
2-dodecylisoquinolin-2-ium bromide

> <PUBCHEM_IUPAC_SYSTEMATIC_NAME>
2-dodecylisoquinolin-2-ium bromide

> <PUBCHEM_IUPAC_TRADITIONAL_NAME>
2-laurylisoquinolin-2-ium bromide

> <PUBCHEM_IUPAC_INCHI>
InChI=1S/C21H32N.BrH/c1-2-3-4-5-6-7-8-9-10-13-17-22-18-16-20-14-11-12-15-21(20)19-22;/h11-12,14-16,18-19H,2-10,13,17H2,1H3;1H/q+1;/p-1

> <PUBCHEM_IUPAC_INCHIKEY>
MSJLMQTXVKCUCD-UHFFFAOYSA-M

> <PUBCHEM_EXACT_MASS>
377.171812

> <PUBCHEM_MOLECULAR_FORMULA>
C21H32BrN

> <PUBCHEM_MOLECULAR_WEIGHT>
378.38948

> <PUBCHEM_OPENEYE_CAN_SMILES>
CCCCCCCCCCCC[N+]1=CC2=CC=CC=C2C=C1.[Br-]

> <PUBCHEM_OPENEYE_ISO_SMILES>
CCCCCCCCCCCC[N+]1=CC2=CC=CC=C2C=C1.[Br-]

> <PUBCHEM_CACTVS_TPSA>
3.9

> <PUBCHEM_MONOISOTOPIC_WEIGHT>
377.171812

> <PUBCHEM_TOTAL_CHARGE>
0

> <PUBCHEM_HEAVY_ATOM_COUNT>
23

> <PUBCHEM_ATOM_DEF_STEREO_COUNT>
0

> <PUBCHEM_ATOM_UDEF_STEREO_COUNT>
0

> <PUBCHEM_BOND_DEF_STEREO_COUNT>
0

> <PUBCHEM_BOND_UDEF_STEREO_COUNT>
0

> <PUBCHEM_ISOTOPIC_ATOM_COUNT>
0

> <PUBCHEM_COMPONENT_COUNT>
2

> <PUBCHEM_CACTVS_TAUTO_COUNT>
1

> <PUBCHEM_COORDINATE_TYPE>
1
5
255

> <PUBCHEM_BONDANNOTATIONS>
14  16  8
15  19  8
16  18  8
16  20  8
18  19  8
18  21  8
2  14  8
2  15  8
20  22  8
21  23  8
22  23  8

$$$$

