854048
  -OEChem-06241222472D

 27 28  0     1  0  0  0  0  0999 V2000
    6.1808   -0.6394    0.0000 O   0  0  0  0  0  0  0  0  0  0  0  0
    4.4487   -0.6394    0.0000 O   0  0  0  0  0  0  0  0  0  0  0  0
    2.4612   -1.5243    0.0000 O   0  0  0  0  0  0  0  0  0  0  0  0
    4.2213    1.5243    0.0000 O   0  0  0  0  0  0  0  0  0  0  0  0
    3.5827   -0.1394    0.0000 N   0  0  0  0  0  0  0  0  0  0  0  0
    5.3147    0.8606    0.0000 C   0  0  0  0  0  0  0  0  0  0  0  0
    6.1808    1.3606    0.0000 C   0  0  0  0  0  0  0  0  0  0  0  0
    5.3147   -0.1394    0.0000 C   0  0  1  0  0  0  0  0  0  0  0  0
    7.0468    0.8606    0.0000 C   0  0  0  0  0  0  0  0  0  0  0  0
    7.0468   -0.1394    0.0000 C   0  0  0  0  0  0  0  0  0  0  0  0
    2.0000    0.1970    0.0000 C   0  0  0  0  0  0  0  0  0  0  0  0
    2.5000    1.0630    0.0000 C   0  0  0  0  0  0  0  0  0  0  0  0
    2.6691   -0.5461    0.0000 C   0  0  0  0  0  0  0  0  0  0  0  0
    3.4782    0.8551    0.0000 C   0  0  0  0  0  0  0  0  0  0  0  0
    5.1027    1.4432    0.0000 H   0  0  0  0  0  0  0  0  0  0  0  0
    4.7042    0.7530    0.0000 H   0  0  0  0  0  0  0  0  0  0  0  0
    6.5793    1.8356    0.0000 H   0  0  0  0  0  0  0  0  0  0  0  0
    5.7822    1.8356    0.0000 H   0  0  0  0  0  0  0  0  0  0  0  0
    5.3147   -0.7594    0.0000 H   0  0  0  0  0  0  0  0  0  0  0  0
    7.6574    0.7530    0.0000 H   0  0  0  0  0  0  0  0  0  0  0  0
    7.2588    1.4432    0.0000 H   0  0  0  0  0  0  0  0  0  0  0  0
    7.2588   -0.7220    0.0000 H   0  0  0  0  0  0  0  0  0  0  0  0
    7.6574   -0.0317    0.0000 H   0  0  0  0  0  0  0  0  0  0  0  0
    1.4984    0.5615    0.0000 H   0  0  0  0  0  0  0  0  0  0  0  0
    1.5851   -0.2637    0.0000 H   0  0  0  0  0  0  0  0  0  0  0  0
    2.6916    1.6527    0.0000 H   0  0  0  0  0  0  0  0  0  0  0  0
    1.9336    1.3152    0.0000 H   0  0  0  0  0  0  0  0  0  0  0  0
  1  8  1  0  0  0  0
  1 10  1  0  0  0  0
  2  5  1  0  0  0  0
  8  2  1  1  0  0  0
  3 13  2  0  0  0  0
  4 14  2  0  0  0  0
  5 13  1  0  0  0  0
  5 14  1  0  0  0  0
  6  7  1  0  0  0  0
  6  8  1  0  0  0  0
  6 15  1  0  0  0  0
  6 16  1  0  0  0  0
  7  9  1  0  0  0  0
  7 17  1  0  0  0  0
  7 18  1  0  0  0  0
  8 19  1  0  0  0  0
  9 10  1  0  0  0  0
  9 20  1  0  0  0  0
  9 21  1  0  0  0  0
 10 22  1  0  0  0  0
 10 23  1  0  0  0  0
 11 12  1  0  0  0  0
 11 13  1  0  0  0  0
 11 24  1  0  0  0  0
 11 25  1  0  0  0  0
 12 14  1  0  0  0  0
 12 26  1  0  0  0  0
 12 27  1  0  0  0  0
M  END
> <PUBCHEM_COMPOUND_CID>
854048

> <PUBCHEM_COMPOUND_CANONICALIZED>
1

> <PUBCHEM_CACTVS_COMPLEXITY>
237

> <PUBCHEM_CACTVS_HBOND_ACCEPTOR>
4

> <PUBCHEM_CACTVS_HBOND_DONOR>
0

> <PUBCHEM_CACTVS_ROTATABLE_BOND>
2

> <PUBCHEM_CACTVS_SUBSKEYS>
AAADccByOAAAAAAAAAAAAAAAAAAAAWAAAAAkAAAAAAAAAAAAAAAAHgAEAAAACACxgAMACAIQBAAIAAEQEAAAAAAAAAAgAAEAAAAQABIAgAAGAAAEBCCEAACFIAAAAAAAAAAAAAAAAAAAAAAAAAAAAAAAAA==

> <PUBCHEM_IUPAC_OPENEYE_NAME>
1-[(2S)-tetrahydropyran-2-yl]oxypyrrolidine-2,5-dione

> <PUBCHEM_IUPAC_CAS_NAME>
1-[[(2S)-2-oxanyl]oxy]pyrrolidine-2,5-dione

> <PUBCHEM_IUPAC_NAME>
1-[(2S)-oxan-2-yl]oxypyrrolidine-2,5-dione

> <PUBCHEM_IUPAC_SYSTEMATIC_NAME>
1-[(2S)-oxan-2-yl]oxypyrrolidine-2,5-dione

> <PUBCHEM_IUPAC_TRADITIONAL_NAME>
1-[(2S)-tetrahydropyran-2-yl]oxypyrrolidine-2,5-quinone

> <PUBCHEM_IUPAC_INCHI>
InChI=1S/C9H13NO4/c11-7-4-5-8(12)10(7)14-9-3-1-2-6-13-9/h9H,1-6H2/t9-/m0/s1

> <PUBCHEM_IUPAC_INCHIKEY>
SWKOIHXVIBJPFN-VIFPVBQESA-N

> <PUBCHEM_XLOGP3_AA>
0.1

> <PUBCHEM_EXACT_MASS>
199.084458

> <PUBCHEM_MOLECULAR_FORMULA>
C9H13NO4

> <PUBCHEM_MOLECULAR_WEIGHT>
199.20382

> <PUBCHEM_OPENEYE_CAN_SMILES>
C1CCOC(C1)ON2C(=O)CCC2=O

> <PUBCHEM_OPENEYE_ISO_SMILES>
C1CCO[C@H](C1)ON2C(=O)CCC2=O

> <PUBCHEM_CACTVS_TPSA>
55.8

> <PUBCHEM_MONOISOTOPIC_WEIGHT>
199.084458

> <PUBCHEM_TOTAL_CHARGE>
0

> <PUBCHEM_HEAVY_ATOM_COUNT>
14

> <PUBCHEM_ATOM_DEF_STEREO_COUNT>
1

> <PUBCHEM_ATOM_UDEF_STEREO_COUNT>
0

> <PUBCHEM_BOND_DEF_STEREO_COUNT>
0

> <PUBCHEM_BOND_UDEF_STEREO_COUNT>
0

> <PUBCHEM_ISOTOPIC_ATOM_COUNT>
0

> <PUBCHEM_COMPONENT_COUNT>
1

> <PUBCHEM_CACTVS_TAUTO_COUNT>
3

> <PUBCHEM_COORDINATE_TYPE>
1
5
255

> <PUBCHEM_BONDANNOTATIONS>
8  2  5

$$$$

