   Color/Form
        Colorless liquid
   from [1]HSDB

   Boiling Point
        173 deg C
   from [2]HSDB

   Melting Point
        -24.8 deg C
   from [3]HSDB

   Critical Temperature and Pressure
        Critical temperature: 415.3 deg C; Critical pressure: 4864 kPa
   from [4]HSDB

   Density/Specific Gravity
        1.2884 at 20 deg C/4 deg C
   from [5]HSDB

   Heat of Vaporization
        296.8 J/g
   from [6]HSDB

   Octanol/Water Partition Coefficient
        log Kow = 3.53
   from [7]HSDB

   Solubilities

     * Sol in ethanol, ether; very soluble in acetone
     * In water, 125 mg/L at 25 deg C

   from [8]HSDB

   Spectral Properties

     * Index of refraction: 1.5515 at 20 deg C/D
     * Intense mass spectral peaks: 146 m/z (100%), 148 m/z (64%), 111 m/z
       (37%), 75 m/z (22%)
     * IR: 5654 (Coblentz Society Spectral Collection)
     * UV: 1671 (Sadtler Research Laboratories Spectral Collection)
     * NMR: 8596 (Sadtler Research Laboratories Spectral Collection)
     * MASS: 818 (Atlas of Mass Spectral Data, John Wiley & Sons, New
       York)

   from [9]HSDB

   Surface Tension
        36.20 dynes/cm
   from [10]HSDB

   Vapor Pressure
        2.15 mm Hg at 25 deg C
   from [11]HSDB

   Viscosity
        1.044 mPa.s at 25 deg C
   from [12]HSDB

   Other Chemical/Physical Properties

     * Conversion factors: 1 mg/l= 166.3 ppm, 1 ppm= 6.01 mg/cu m at 25
       deg C and 760 mm Hg
     * Partition coefficients at 37 deg C for 1,3-dichlorobenzene into
       blood= 201; into oil= 27,100. [Sato A, Nakajima T; Scand J Work
       Environ Health 13: 81-93 (1987)] [13]PubMed Abstract
     * Dielectric constant = 5.02 at 293.2 K
     * Dipole moment: 1.72 D
     * Heat of Fusion: 85.98 J/g
     * Heat of Formation of Liquid: -145.73 J/g
     * Henry's Law constant = 2.83X10-3 atm-cu m/mol at 25 deg C
     * Hydroxyl radical reaction rate constant = 7.20X10-13 cu cm/molc-sec
       at 25 deg C

   from [14]HSDB

   Computed Properties
   Molecular Weight                  147.00196 [g/mol]
   Molecular Formula                 C[6]H[4]Cl[2]
   XLogP3                            3.5
   H-Bond Donor                      0
   H-Bond Acceptor                   0
   Rotatable Bond Count              0
   Exact Mass                        145.969005
   MonoIsotopic Mass                 145.969005
   Topological Polar Surface Area    0
   Heavy Atom Count                  8
   Formal Charge                     0
   Complexity                        64.9
   Isotope Atom Count                0
   Defined Atom Stereocenter Count   0
   Undefined Atom Stereocenter Count 0
   Defined Bond Stereocenter Count   0
   Undefined Bond Stereocenter Count 0
   Covalently-Bonded Unit Count      1
   Feature 3D Ring Count             1
   Effective Rotor Count             0
   Conformer Sampling RMSD           0.4
   CID Conformer Count               [15]1

References

   1. http://toxnet.nlm.nih.gov/cgi-bin/sis/search/r?dbs+hsdb:@term+@rn+@rel+541-73-1
   2. http://toxnet.nlm.nih.gov/cgi-bin/sis/search/r?dbs+hsdb:@term+@rn+@rel+541-73-1
   3. http://toxnet.nlm.nih.gov/cgi-bin/sis/search/r?dbs+hsdb:@term+@rn+@rel+541-73-1
   4. http://toxnet.nlm.nih.gov/cgi-bin/sis/search/r?dbs+hsdb:@term+@rn+@rel+541-73-1
   5. http://toxnet.nlm.nih.gov/cgi-bin/sis/search/r?dbs+hsdb:@term+@rn+@rel+541-73-1
   6. http://toxnet.nlm.nih.gov/cgi-bin/sis/search/r?dbs+hsdb:@term+@rn+@rel+541-73-1
   7. http://toxnet.nlm.nih.gov/cgi-bin/sis/search/r?dbs+hsdb:@term+@rn+@rel+541-73-1
   8. http://toxnet.nlm.nih.gov/cgi-bin/sis/search/r?dbs+hsdb:@term+@rn+@rel+541-73-1
   9. http://toxnet.nlm.nih.gov/cgi-bin/sis/search/r?dbs+hsdb:@term+@rn+@rel+541-73-1
  10. http://toxnet.nlm.nih.gov/cgi-bin/sis/search/r?dbs+hsdb:@term+@rn+@rel+541-73-1
  11. http://toxnet.nlm.nih.gov/cgi-bin/sis/search/r?dbs+hsdb:@term+@rn+@rel+541-73-1
  12. http://toxnet.nlm.nih.gov/cgi-bin/sis/search/r?dbs+hsdb:@term+@rn+@rel+541-73-1
  13. http://www.ncbi.nlm.nih.gov/entrez/query.fcgi?cmd=Retrieve&db=pubmed&dopt=Abstract&list_uids=3299685
  14. http://toxnet.nlm.nih.gov/cgi-bin/sis/search/r?dbs+hsdb:@term+@rn+@rel+541-73-1
  15. http://pubchem.ncbi.nlm.nih.gov/vw3d/vw3d.cgi?cid=10943
