   Color/Form
        Colorless to pale yellow liquid
   from [1]HSDB

   Boiling Point
        122-133 deg C at 0.001 mm Hg
   from [2]HSDB

   Corrosivity
        Non-corrosive
   from [3]HSDB

   Density/Specific Gravity
        1.52-1.55 at 20 deg C
   from [4]HSDB

   Octanol/Water Partition Coefficient
        log Kow= 6.15
   from [5]HSDB

   Solubilities

     * Solubility (20 deg C): 0.14 mg/l water; completely soluble in most
       common solvents.
     * Soluble in all organic solvents
     * In water, 0.44 mg/l @ 20 deg C [Bowman BT, Sans WW; J Environ Sci
       Health B18: 221-7 (1983)] [6]PubMed Abstract

   from [7]HSDB

   Spectral Properties
        Index of refraction: 1.5600 at 20 deg C/D
   from [8]HSDB

   Vapor Pressure
        4.6X10-5 mm Hg @ 30 deg C (6.1 mPa at 30 deg C)
   from [9]HSDB

   Other Chemical/Physical Properties
        Compatible with all pesticides except sulphur and organometallic
   compounds.
   from [10]HSDB

   Computed Properties
   Molecular Weight                  394.049242 [g/mol]
   Molecular Formula                 C[10]H[12]BrCl[2]O[3]PS
   XLogP3                            6.1
   H-Bond Donor                      0
   H-Bond Acceptor                   4
   Rotatable Bond Count              6
   Exact Mass                        391.880519
   MonoIsotopic Mass                 391.880519
   Topological Polar Surface Area    59.8
   Heavy Atom Count                  18
   Formal Charge                     0
   Complexity                        301
   Isotope Atom Count                0
   Defined Atom Stereocenter Count   0
   Undefined Atom Stereocenter Count 0
   Defined Bond Stereocenter Count   0
   Undefined Bond Stereocenter Count 0
   Covalently-Bonded Unit Count      1
   Feature 3D Hydrophobe Count       1
   Feature 3D Ring Count             1
   Effective Rotor Count             6
   Conformer Sampling RMSD           0.8
   CID Conformer Count               [11]23

References

   1. http://toxnet.nlm.nih.gov/cgi-bin/sis/search/r?dbs+hsdb:@term+@rn+@rel+4824-78-6
   2. http://toxnet.nlm.nih.gov/cgi-bin/sis/search/r?dbs+hsdb:@term+@rn+@rel+4824-78-6
   3. http://toxnet.nlm.nih.gov/cgi-bin/sis/search/r?dbs+hsdb:@term+@rn+@rel+4824-78-6
   4. http://toxnet.nlm.nih.gov/cgi-bin/sis/search/r?dbs+hsdb:@term+@rn+@rel+4824-78-6
   5. http://toxnet.nlm.nih.gov/cgi-bin/sis/search/r?dbs+hsdb:@term+@rn+@rel+4824-78-6
   6. http://www.ncbi.nlm.nih.gov/entrez/query.fcgi?cmd=Retrieve&db=pubmed&dopt=Abstract&list_uids=6853964
   7. http://toxnet.nlm.nih.gov/cgi-bin/sis/search/r?dbs+hsdb:@term+@rn+@rel+4824-78-6
   8. http://toxnet.nlm.nih.gov/cgi-bin/sis/search/r?dbs+hsdb:@term+@rn+@rel+4824-78-6
   9. http://toxnet.nlm.nih.gov/cgi-bin/sis/search/r?dbs+hsdb:@term+@rn+@rel+4824-78-6
  10. http://toxnet.nlm.nih.gov/cgi-bin/sis/search/r?dbs+hsdb:@term+@rn+@rel+4824-78-6
  11. http://pubchem.ncbi.nlm.nih.gov/vw3d/vw3d.cgi?cid=20965
