6892
  -OEChem-06261201342D

 19 19  0     0  0  0  0  0  0999 V2000
    5.5201    0.9143    0.0000 S   0  0  0  0  0  0  0  0  0  0  0  0
    2.0000    0.9143    0.0000 O   0  0  0  0  0  0  0  0  0  0  0  0
    3.7601    0.6356    0.0000 N   0  0  0  0  0  0  0  0  0  0  0  0
    4.2601    2.1744    0.0000 N   0  0  0  0  0  0  0  0  0  0  0  0
    2.8940   -1.8644    0.0000 N   0  0  0  0  0  0  0  0  0  0  0  0
    3.7601   -0.3644    0.0000 C   0  0  0  0  0  0  0  0  0  0  0  0
    2.9511    1.2234    0.0000 C   0  0  0  0  0  0  0  0  0  0  0  0
    2.8940   -0.8644    0.0000 C   0  0  0  0  0  0  0  0  0  0  0  0
    3.2601    2.1744    0.0000 C   0  0  0  0  0  0  0  0  0  0  0  0
    4.5691    1.2234    0.0000 C   0  0  0  0  0  0  0  0  0  0  0  0
    3.9721   -0.9470    0.0000 H   0  0  0  0  0  0  0  0  0  0  0  0
    4.3707   -0.2568    0.0000 H   0  0  0  0  0  0  0  0  0  0  0  0
    2.6820   -0.2818    0.0000 H   0  0  0  0  0  0  0  0  0  0  0  0
    2.2835   -0.9721    0.0000 H   0  0  0  0  0  0  0  0  0  0  0  0
    3.3249    2.7910    0.0000 H   0  0  0  0  0  0  0  0  0  0  0  0
    2.6536    2.3033    0.0000 H   0  0  0  0  0  0  0  0  0  0  0  0
    2.3571   -2.1744    0.0000 H   0  0  0  0  0  0  0  0  0  0  0  0
    3.4310   -2.1744    0.0000 H   0  0  0  0  0  0  0  0  0  0  0  0
    5.9809    1.3292    0.0000 H   0  0  0  0  0  0  0  0  0  0  0  0
  1 10  1  0  0  0  0
  1 19  1  0  0  0  0
  2  7  2  0  0  0  0
  3  6  1  0  0  0  0
  3  7  1  0  0  0  0
  3 10  1  0  0  0  0
  4  9  1  0  0  0  0
  4 10  2  0  0  0  0
  5  8  1  0  0  0  0
  5 17  1  0  0  0  0
  5 18  1  0  0  0  0
  6  8  1  0  0  0  0
  6 11  1  0  0  0  0
  6 12  1  0  0  0  0
  7  9  1  0  0  0  0
  8 13  1  0  0  0  0
  8 14  1  0  0  0  0
  9 15  1  0  0  0  0
  9 16  1  0  0  0  0
M  END
> <PUBCHEM_COMPOUND_CID>
6892

> <PUBCHEM_COMPOUND_CANONICALIZED>
1

> <PUBCHEM_CACTVS_COMPLEXITY>
180

> <PUBCHEM_CACTVS_HBOND_ACCEPTOR>
4

> <PUBCHEM_CACTVS_HBOND_DONOR>
2

> <PUBCHEM_CACTVS_ROTATABLE_BOND>
2

> <PUBCHEM_CACTVS_SUBSKEYS>
AAADccBjIABAAAAAAAAAAAAAAAAAAQAAAAAAAAAAAAAAAAAAAAAAHgQQAAAAAADBgAQBAANAAAQoAAEQNAAAEAEAAAABAICIAAAAQAAACAAQAAAAFgCAAAAAAAAAAAAAAAAAAAAAAAAAAAAAAAAAAAAAAA==

> <PUBCHEM_IUPAC_OPENEYE_NAME>
1-(2-aminoethyl)-2-sulfanyl-4H-imidazol-5-one

> <PUBCHEM_IUPAC_CAS_NAME>
1-(2-aminoethyl)-2-mercapto-4H-imidazol-5-one

> <PUBCHEM_IUPAC_NAME>
1-(2-aminoethyl)-2-sulfanyl-4H-imidazol-5-one

> <PUBCHEM_IUPAC_SYSTEMATIC_NAME>
1-(2-azanylethyl)-2-sulfanyl-4H-imidazol-5-one

> <PUBCHEM_IUPAC_TRADITIONAL_NAME>
3-(2-aminoethyl)-2-mercapto-2-imidazolin-4-one

> <PUBCHEM_IUPAC_INCHI>
InChI=1S/C5H9N3OS/c6-1-2-8-4(9)3-7-5(8)10/h1-3,6H2,(H,7,10)

> <PUBCHEM_IUPAC_INCHIKEY>
JMURGYQYYMJASX-UHFFFAOYSA-N

> <PUBCHEM_XLOGP3_AA>
-1

> <PUBCHEM_EXACT_MASS>
159.046633

> <PUBCHEM_MOLECULAR_FORMULA>
C5H9N3OS

> <PUBCHEM_MOLECULAR_WEIGHT>
159.20946

> <PUBCHEM_OPENEYE_CAN_SMILES>
C1C(=O)N(C(=N1)S)CCN

> <PUBCHEM_OPENEYE_ISO_SMILES>
C1C(=O)N(C(=N1)S)CCN

> <PUBCHEM_CACTVS_TPSA>
59.7

> <PUBCHEM_MONOISOTOPIC_WEIGHT>
159.046633

> <PUBCHEM_TOTAL_CHARGE>
0

> <PUBCHEM_HEAVY_ATOM_COUNT>
10

> <PUBCHEM_ATOM_DEF_STEREO_COUNT>
0

> <PUBCHEM_ATOM_UDEF_STEREO_COUNT>
0

> <PUBCHEM_BOND_DEF_STEREO_COUNT>
0

> <PUBCHEM_BOND_UDEF_STEREO_COUNT>
0

> <PUBCHEM_ISOTOPIC_ATOM_COUNT>
0

> <PUBCHEM_COMPONENT_COUNT>
1

> <PUBCHEM_CACTVS_TAUTO_COUNT>
2

> <PUBCHEM_COORDINATE_TYPE>
1
5
255

$$$$

