56928137
  -OEChem-07051213152D

 38 40  0     1  0  0  0  0  0999 V2000
    3.0233    2.6026    0.0000 O   0  0  0  0  0  0  0  0  0  0  0  0
    3.7044   -0.6588    0.0000 C   0  0  3  0  0  0  0  0  0  0  0  0
    4.5134   -0.0710    0.0000 C   0  0  1  0  0  0  0  0  0  0  0  0
    2.8954   -0.0710    0.0000 C   0  0  1  0  0  0  0  0  0  0  0  0
    4.0140   -1.6034    0.0000 C   0  0  0  0  0  0  0  0  0  0  0  0
    3.3948   -1.6034    0.0000 C   0  0  1  0  0  0  0  0  0  0  0  0
    5.0081   -1.6026    0.0000 C   0  0  0  0  0  0  0  0  0  0  0  0
    5.3161   -0.6574    0.0000 C   0  0  0  0  0  0  0  0  0  0  0  0
    2.0927   -0.6574    0.0000 C   0  0  0  0  0  0  0  0  0  0  0  0
    2.4007   -1.6026    0.0000 C   0  0  0  0  0  0  0  0  0  0  0  0
    3.2044    0.8800    0.0000 C   0  0  0  0  0  0  0  0  0  0  0  0
    4.2044    0.8800    0.0000 C   0  0  0  0  0  0  0  0  0  0  0  0
    3.9811   -2.4135    0.0000 C   0  0  0  0  0  0  0  0  0  0  0  0
    5.9592   -1.9116    0.0000 C   0  0  0  0  0  0  0  0  0  0  0  0
    5.0081   -2.6026    0.0000 C   0  0  0  0  0  0  0  0  0  0  0  0
    2.6166    1.6890    0.0000 C   0  0  0  0  0  0  0  0  0  0  0  0
    5.2017    0.4277    0.0000 H   0  0  0  0  0  0  0  0  0  0  0  0
    2.2071    0.4277    0.0000 H   0  0  0  0  0  0  0  0  0  0  0  0
    3.4078   -1.7336    0.0000 H   0  0  0  0  0  0  0  0  0  0  0  0
    4.0797   -2.2200    0.0000 H   0  0  0  0  0  0  0  0  0  0  0  0
    4.0073   -1.5078    0.0000 H   0  0  0  0  0  0  0  0  0  0  0  0
    5.8822   -0.9104    0.0000 H   0  0  0  0  0  0  0  0  0  0  0  0
    5.6272   -0.1211    0.0000 H   0  0  0  0  0  0  0  0  0  0  0  0
    1.7816   -0.1211    0.0000 H   0  0  0  0  0  0  0  0  0  0  0  0
    1.5266   -0.9104    0.0000 H   0  0  0  0  0  0  0  0  0  0  0  0
    1.7943   -1.7317    0.0000 H   0  0  0  0  0  0  0  0  0  0  0  0
    2.4653   -2.2192    0.0000 H   0  0  0  0  0  0  0  0  0  0  0  0
    4.5688    1.3816    0.0000 H   0  0  0  0  0  0  0  0  0  0  0  0
    3.4789   -2.7770    0.0000 H   0  0  0  0  0  0  0  0  0  0  0  0
    4.3447   -2.9157    0.0000 H   0  0  0  0  0  0  0  0  0  0  0  0
    4.4834   -2.0499    0.0000 H   0  0  0  0  0  0  0  0  0  0  0  0
    5.7676   -2.5013    0.0000 H   0  0  0  0  0  0  0  0  0  0  0  0
    6.5488   -2.1032    0.0000 H   0  0  0  0  0  0  0  0  0  0  0  0
    6.1508   -1.3220    0.0000 H   0  0  0  0  0  0  0  0  0  0  0  0
    4.3881   -2.6026    0.0000 H   0  0  0  0  0  0  0  0  0  0  0  0
    5.0081   -3.2226    0.0000 H   0  0  0  0  0  0  0  0  0  0  0  0
    5.6281   -2.6026    0.0000 H   0  0  0  0  0  0  0  0  0  0  0  0
    2.0000    1.6242    0.0000 H   0  0  0  0  0  0  0  0  0  0  0  0
  1 16  2  0  0  0  0
  2  3  1  0  0  0  0
  2  4  1  0  0  0  0
  2  5  1  0  0  0  0
  2  6  1  0  0  0  0
  3  8  1  0  0  0  0
  3 12  1  0  0  0  0
  3 17  1  1  0  0  0
  4  9  1  0  0  0  0
  4 11  1  0  0  0  0
  4 18  1  6  0  0  0
  5  7  1  0  0  0  0
  5 19  1  0  0  0  0
  5 20  1  0  0  0  0
  6 10  1  0  0  0  0
  6 13  1  6  0  0  0
  6 21  1  0  0  0  0
  7  8  1  0  0  0  0
  7 14  1  0  0  0  0
  7 15  1  0  0  0  0
  8 22  1  0  0  0  0
  8 23  1  0  0  0  0
  9 10  1  0  0  0  0
  9 24  1  0  0  0  0
  9 25  1  0  0  0  0
 10 26  1  0  0  0  0
 10 27  1  0  0  0  0
 11 12  2  0  0  0  0
 11 16  1  0  0  0  0
 12 28  1  0  0  0  0
 13 29  1  0  0  0  0
 13 30  1  0  0  0  0
 13 31  1  0  0  0  0
 14 32  1  0  0  0  0
 14 33  1  0  0  0  0
 14 34  1  0  0  0  0
 15 35  1  0  0  0  0
 15 36  1  0  0  0  0
 15 37  1  0  0  0  0
 16 38  1  0  0  0  0
M  END
> <PUBCHEM_COMPOUND_CID>
56928137

> <PUBCHEM_COMPOUND_CANONICALIZED>
1

> <PUBCHEM_CACTVS_COMPLEXITY>
366

> <PUBCHEM_CACTVS_HBOND_ACCEPTOR>
1

> <PUBCHEM_CACTVS_HBOND_DONOR>
0

> <PUBCHEM_CACTVS_ROTATABLE_BOND>
1

> <PUBCHEM_CACTVS_SUBSKEYS>
AAADceBwIAAAAAAAAAAAAAAAAAAAAYMEAAAAAAAAAAAQIAAAAAAAGgAAAAAADwCggAICAAAAAACIAihSgAAAAAAgAAAACAEAAEgAABIAAQAAAAAAgAAIAYMIiMCPgAAAAAAAAAAAAAAAAAAAAQAACAAAAA==

> <PUBCHEM_IUPAC_INCHI>
InChI=1S/C15H22O/c1-10-4-5-13-11(8-16)6-12-7-14(2,3)9-15(10,12)13/h6,8,10,12-13H,4-5,7,9H2,1-3H3/t10-,12-,13+,15?/m1/s1

> <PUBCHEM_IUPAC_INCHIKEY>
JWMGZDVPJPOYGL-HJIFLFLRSA-N

> <PUBCHEM_XLOGP3_AA>
4

> <PUBCHEM_EXACT_MASS>
218.167065

> <PUBCHEM_MOLECULAR_FORMULA>
C15H22O

> <PUBCHEM_MOLECULAR_WEIGHT>
218.33458

> <PUBCHEM_OPENEYE_CAN_SMILES>
CC1CCC2C13CC(CC3C=C2C=O)(C)C

> <PUBCHEM_OPENEYE_ISO_SMILES>
C[C@@H]1CC[C@@H]2C13CC(C[C@H]3C=C2C=O)(C)C

> <PUBCHEM_CACTVS_TPSA>
17.1

> <PUBCHEM_MONOISOTOPIC_WEIGHT>
218.167065

> <PUBCHEM_TOTAL_CHARGE>
0

> <PUBCHEM_HEAVY_ATOM_COUNT>
16

> <PUBCHEM_ATOM_DEF_STEREO_COUNT>
3

> <PUBCHEM_ATOM_UDEF_STEREO_COUNT>
1

> <PUBCHEM_BOND_DEF_STEREO_COUNT>
0

> <PUBCHEM_BOND_UDEF_STEREO_COUNT>
0

> <PUBCHEM_ISOTOPIC_ATOM_COUNT>
0

> <PUBCHEM_COMPONENT_COUNT>
1

> <PUBCHEM_CACTVS_TAUTO_COUNT>
1

> <PUBCHEM_COORDINATE_TYPE>
1
5
255

> <PUBCHEM_BONDANNOTATIONS>
2  5  3
3  17  5
4  18  6
6  13  6

$$$$

