11227154
  -OEChem-07051213082D

 70 74  0     1  0  0  0  0  0999 V2000
    5.4641    1.5950    0.0000 O   0  0  0  0  0  0  0  0  0  0  0  0
    4.5981    3.0950    0.0000 O   0  0  0  0  0  0  0  0  0  0  0  0
    4.5981   -0.9050    0.0000 O   0  0  0  0  0  0  0  0  0  0  0  0
    2.8660    0.0950    0.0000 O   0  0  0  0  0  0  0  0  0  0  0  0
    2.8660    2.0950    0.0000 O   0  0  0  0  0  0  0  0  0  0  0  0
    6.3301   -0.9050    0.0000 O   0  0  0  0  0  0  0  0  0  0  0  0
    6.3301    5.0950    0.0000 O   0  3  0  0  0  0  0  0  0  0  0  0
    8.0622   -0.9050    0.0000 O   0  0  0  0  0  0  0  0  0  0  0  0
    8.0785    2.0604    0.0000 O   0  0  0  0  0  0  0  0  0  0  0  0
    9.8602    5.1192    0.0000 O   0  0  0  0  0  0  0  0  0  0  0  0
    2.0000    6.5950    0.0000 O   0  0  0  0  0  0  0  0  0  0  0  0
    6.3301   -5.9050    0.0000 O   0  0  0  0  0  0  0  0  0  0  0  0
    8.0622   -6.9050    0.0000 O   0  0  0  0  0  0  0  0  0  0  0  0
    4.5981    0.0950    0.0000 C   0  0  1  0  0  0  0  0  0  0  0  0
    3.7320    0.5950    0.0000 C   0  0  1  0  0  0  0  0  0  0  0  0
    5.4641    0.5950    0.0000 C   0  0  1  0  0  0  0  0  0  0  0  0
    3.7320    1.5950    0.0000 C   0  0  2  0  0  0  0  0  0  0  0  0
    4.5981    2.0950    0.0000 C   0  0  1  0  0  0  0  0  0  0  0  0
    6.3301    0.0950    0.0000 C   0  0  0  0  0  0  0  0  0  0  0  0
    5.4641    3.5950    0.0000 C   0  0  0  0  0  0  0  0  0  0  0  0
    5.4641    4.5950    0.0000 C   0  0  0  0  0  0  0  0  0  0  0  0
    6.3301    3.0950    0.0000 C   0  0  0  0  0  0  0  0  0  0  0  0
    7.1962    3.5950    0.0000 C   0  0  0  0  0  0  0  0  0  0  0  0
    7.1962   -1.4050    0.0000 C   0  0  0  0  0  0  0  0  0  0  0  0
    7.1962    4.5950    0.0000 C   0  0  0  0  0  0  0  0  0  0  0  0
    4.5981    5.0950    0.0000 C   0  0  0  0  0  0  0  0  0  0  0  0
    8.0901    3.0603    0.0000 C   0  0  0  0  0  0  0  0  0  0  0  0
    8.0901    5.1297    0.0000 C   0  0  0  0  0  0  0  0  0  0  0  0
    7.1962   -2.4050    0.0000 C   0  0  0  0  0  0  0  0  0  0  0  0
    4.5981    6.0950    0.0000 C   0  0  0  0  0  0  0  0  0  0  0  0
    3.7320    4.5950    0.0000 C   0  0  0  0  0  0  0  0  0  0  0  0
    8.9962    3.5742    0.0000 C   0  0  0  0  0  0  0  0  0  0  0  0
    8.9962    4.6158    0.0000 C   0  0  0  0  0  0  0  0  0  0  0  0
    3.7320    6.5950    0.0000 C   0  0  0  0  0  0  0  0  0  0  0  0
    2.8660    5.0950    0.0000 C   0  0  0  0  0  0  0  0  0  0  0  0
    8.0622   -2.9050    0.0000 C   0  0  0  0  0  0  0  0  0  0  0  0
    2.8660    6.0950    0.0000 C   0  0  0  0  0  0  0  0  0  0  0  0
    8.0622   -3.9050    0.0000 C   0  0  0  0  0  0  0  0  0  0  0  0
    7.1962   -4.4050    0.0000 C   0  0  0  0  0  0  0  0  0  0  0  0
    8.9282   -4.4050    0.0000 C   0  0  0  0  0  0  0  0  0  0  0  0
    7.1962   -5.4050    0.0000 C   0  0  0  0  0  0  0  0  0  0  0  0
    8.9282   -5.4050    0.0000 C   0  0  0  0  0  0  0  0  0  0  0  0
    8.0622   -5.9050    0.0000 C   0  0  0  0  0  0  0  0  0  0  0  0
    5.1350   -0.2150    0.0000 H   0  0  0  0  0  0  0  0  0  0  0  0
    3.7320   -0.0250    0.0000 H   0  0  0  0  0  0  0  0  0  0  0  0
    6.0010    0.9050    0.0000 H   0  0  0  0  0  0  0  0  0  0  0  0
    3.7320    2.2150    0.0000 H   0  0  0  0  0  0  0  0  0  0  0  0
    4.0611    2.4050    0.0000 H   0  0  0  0  0  0  0  0  0  0  0  0
    6.9407   -0.0127    0.0000 H   0  0  0  0  0  0  0  0  0  0  0  0
    6.5422    0.6776    0.0000 H   0  0  0  0  0  0  0  0  0  0  0  0
    4.0611   -1.2150    0.0000 H   0  0  0  0  0  0  0  0  0  0  0  0
    2.8660   -0.5250    0.0000 H   0  0  0  0  0  0  0  0  0  0  0  0
    2.3291    1.7850    0.0000 H   0  0  0  0  0  0  0  0  0  0  0  0
    6.3301    2.4750    0.0000 H   0  0  0  0  0  0  0  0  0  0  0  0
    8.0829    5.7496    0.0000 H   0  0  0  0  0  0  0  0  0  0  0  0
    6.6592   -2.7150    0.0000 H   0  0  0  0  0  0  0  0  0  0  0  0
    5.1350    6.4050    0.0000 H   0  0  0  0  0  0  0  0  0  0  0  0
    3.7320    3.9750    0.0000 H   0  0  0  0  0  0  0  0  0  0  0  0
    9.5319    3.2621    0.0000 H   0  0  0  0  0  0  0  0  0  0  0  0
    3.7320    7.2150    0.0000 H   0  0  0  0  0  0  0  0  0  0  0  0
    2.3291    4.7850    0.0000 H   0  0  0  0  0  0  0  0  0  0  0  0
    8.5991   -2.5950    0.0000 H   0  0  0  0  0  0  0  0  0  0  0  0
    8.6118    1.7442    0.0000 H   0  0  0  0  0  0  0  0  0  0  0  0
   10.3984    4.8112    0.0000 H   0  0  0  0  0  0  0  0  0  0  0  0
    6.6592   -4.0950    0.0000 H   0  0  0  0  0  0  0  0  0  0  0  0
    9.4651   -4.0950    0.0000 H   0  0  0  0  0  0  0  0  0  0  0  0
    2.0000    7.2150    0.0000 H   0  0  0  0  0  0  0  0  0  0  0  0
    9.4651   -5.7150    0.0000 H   0  0  0  0  0  0  0  0  0  0  0  0
    6.3301   -6.5250    0.0000 H   0  0  0  0  0  0  0  0  0  0  0  0
    8.5991   -7.2150    0.0000 H   0  0  0  0  0  0  0  0  0  0  0  0
  1 16  1  0  0  0  0
  1 18  1  0  0  0  0
 18  2  1  6  0  0  0
  2 20  1  0  0  0  0
 14  3  1  1  0  0  0
  3 51  1  0  0  0  0
 15  4  1  6  0  0  0
  4 52  1  0  0  0  0
 17  5  1  1  0  0  0
  5 53  1  0  0  0  0
  6 19  1  0  0  0  0
  6 24  1  0  0  0  0
  7 21  2  0  0  0  0
  7 25  1  0  0  0  0
  8 24  2  0  0  0  0
  9 27  1  0  0  0  0
  9 63  1  0  0  0  0
 10 33  1  0  0  0  0
 10 64  1  0  0  0  0
 11 37  1  0  0  0  0
 11 67  1  0  0  0  0
 12 41  1  0  0  0  0
 12 69  1  0  0  0  0
 13 43  1  0  0  0  0
 13 70  1  0  0  0  0
 14 15  1  0  0  0  0
 14 16  1  0  0  0  0
 14 44  1  0  0  0  0
 15 17  1  0  0  0  0
 15 45  1  0  0  0  0
 16 19  1  6  0  0  0
 16 46  1  0  0  0  0
 17 18  1  0  0  0  0
 17 47  1  0  0  0  0
 18 48  1  0  0  0  0
 19 49  1  0  0  0  0
 19 50  1  0  0  0  0
 20 21  1  0  0  0  0
 20 22  2  0  0  0  0
 21 26  1  0  0  0  0
 22 23  1  0  0  0  0
 22 54  1  0  0  0  0
 23 25  1  0  0  0  0
 23 27  2  0  0  0  0
 24 29  1  0  0  0  0
 25 28  2  0  0  0  0
 26 30  2  0  0  0  0
 26 31  1  0  0  0  0
 27 32  1  0  0  0  0
 28 33  1  0  0  0  0
 28 55  1  0  0  0  0
 29 36  2  0  0  0  0
 29 56  1  0  0  0  0
 30 34  1  0  0  0  0
 30 57  1  0  0  0  0
 31 35  2  0  0  0  0
 31 58  1  0  0  0  0
 32 33  2  0  0  0  0
 32 59  1  0  0  0  0
 34 37  2  0  0  0  0
 34 60  1  0  0  0  0
 35 37  1  0  0  0  0
 35 61  1  0  0  0  0
 36 38  1  0  0  0  0
 36 62  1  0  0  0  0
 38 39  2  0  0  0  0
 38 40  1  0  0  0  0
 39 41  1  0  0  0  0
 39 65  1  0  0  0  0
 40 42  2  0  0  0  0
 40 66  1  0  0  0  0
 41 43  2  0  0  0  0
 42 43  1  0  0  0  0
 42 68  1  0  0  0  0
M  CHG  1   7   1
M  END
> <PUBCHEM_COMPOUND_CID>
11227154

> <PUBCHEM_COMPOUND_CANONICALIZED>
1

> <PUBCHEM_CACTVS_COMPLEXITY>
941

> <PUBCHEM_CACTVS_HBOND_ACCEPTOR>
12

> <PUBCHEM_CACTVS_HBOND_DONOR>
8

> <PUBCHEM_CACTVS_ROTATABLE_BOND>
8

> <PUBCHEM_CACTVS_SUBSKEYS>
AAADceB4PAAAAAAAAAAAAAAAAAAAAAAAAAA0aMECAAAAAACR9AAAGgAACAAADBSwmAMwDsAABkCIAqDSCAICCAAkIAAIiAFGiMgdNzaGNR6ieWOl4BUPuYfK7PzOIAABCAAIQABAAAIQABCAAAAAAAAAAA==

> <PUBCHEM_IUPAC_OPENEYE_NAME>
[(2R,3S,4S,5R,6S)-6-[5,7-dihydroxy-2-(4-hydroxyphenyl)chromenylium-3-yl]oxy-3,4,5-trihydroxy-tetrahydropyran-2-yl]methyl (E)-3-(3,4-dihydroxyphenyl)prop-2-enoate

> <PUBCHEM_IUPAC_CAS_NAME>
(E)-3-(3,4-dihydroxyphenyl)-2-propenoic acid [(2R,3S,4S,5R,6S)-6-[[5,7-dihydroxy-2-(4-hydroxyphenyl)-1-benzopyrylium-3-yl]oxy]-3,4,5-trihydroxy-2-oxanyl]methyl ester

> <PUBCHEM_IUPAC_NAME>
[(2R,3S,4S,5R,6S)-6-[5,7-dihydroxy-2-(4-hydroxyphenyl)chromenylium-3-yl]oxy-3,4,5-trihydroxyoxan-2-yl]methyl (E)-3-(3,4-dihydroxyphenyl)prop-2-enoate

> <PUBCHEM_IUPAC_SYSTEMATIC_NAME>
[(2R,3S,4S,5R,6S)-6-[2-(4-hydroxyphenyl)-5,7-bis(oxidanyl)chromenylium-3-yl]oxy-3,4,5-tris(oxidanyl)oxan-2-yl]methyl (E)-3-[3,4-bis(oxidanyl)phenyl]prop-2-enoate

> <PUBCHEM_IUPAC_TRADITIONAL_NAME>
(E)-3-(3,4-dihydroxyphenyl)acrylic acid [(2R,3S,4S,5R,6S)-6-[[5,7-dihydroxy-2-(4-hydroxyphenyl)-1-benzopyrylium-3-yl]oxy]-3,4,5-trihydroxy-tetrahydropyran-2-yl]methyl ester

> <PUBCHEM_IUPAC_INCHI>
InChI=1S/C30H26O13/c31-16-5-3-15(4-6-16)29-23(12-18-20(34)10-17(32)11-22(18)41-29)42-30-28(39)27(38)26(37)24(43-30)13-40-25(36)8-2-14-1-7-19(33)21(35)9-14/h1-12,24,26-28,30,37-39H,13H2,(H4-,31,32,33,34,35,36)/p+1/t24-,26-,27+,28-,30-/m1/s1

> <PUBCHEM_IUPAC_INCHIKEY>
OUWGZZOPFVOIFO-SHPGVJHPSA-O

> <PUBCHEM_EXACT_MASS>
595.145166

> <PUBCHEM_MOLECULAR_FORMULA>
C30H27O13+

> <PUBCHEM_MOLECULAR_WEIGHT>
595.52758

> <PUBCHEM_OPENEYE_CAN_SMILES>
C1=CC(=CC=C1C2=C(C=C3C(=CC(=CC3=[O+]2)O)O)OC4C(C(C(C(O4)COC(=O)C=CC5=CC(=C(C=C5)O)O)O)O)O)O

> <PUBCHEM_OPENEYE_ISO_SMILES>
C1=CC(=CC=C1C2=C(C=C3C(=CC(=CC3=[O+]2)O)O)O[C@H]4[C@@H]([C@H]([C@@H]([C@H](O4)COC(=O)/C=C/C5=CC(=C(C=C5)O)O)O)O)O)O

> <PUBCHEM_CACTVS_TPSA>
208

> <PUBCHEM_MONOISOTOPIC_WEIGHT>
595.145166

> <PUBCHEM_TOTAL_CHARGE>
1

> <PUBCHEM_HEAVY_ATOM_COUNT>
43

> <PUBCHEM_ATOM_DEF_STEREO_COUNT>
5

> <PUBCHEM_ATOM_UDEF_STEREO_COUNT>
0

> <PUBCHEM_BOND_DEF_STEREO_COUNT>
1

> <PUBCHEM_BOND_UDEF_STEREO_COUNT>
0

> <PUBCHEM_ISOTOPIC_ATOM_COUNT>
0

> <PUBCHEM_COMPONENT_COUNT>
1

> <PUBCHEM_CACTVS_TAUTO_COUNT>
848

> <PUBCHEM_COORDINATE_TYPE>
1
5
255

> <PUBCHEM_BONDANNOTATIONS>
16  19  6
18  2  6
20  21  8
20  22  8
22  23  8
23  25  8
23  27  8
25  28  8
26  30  8
26  31  8
27  32  8
28  33  8
14  3  5
30  34  8
31  35  8
32  33  8
34  37  8
35  37  8
38  39  8
38  40  8
39  41  8
15  4  6
40  42  8
41  43  8
42  43  8
17  5  5
7  21  8
7  25  8

$$$$

