   Color/Form

     * Light-yellow, fused solid
     * Crystals
     * White to light yellow flakes [Note: A liquid above 99 degrees F].

   from [1]HSDB

   Odor
        Odorless.
   from [2]HSDB

   Boiling Point
        196 DEG C @ 5 MM HG
   from [3]HSDB

   Melting Point
        37 deg C
   from [4]HSDB

   Density/Specific Gravity
        1.197 @ 70 deg C
   from [5]HSDB

   Solubilities
        Sol in acetone, benzene, kerosene, and nitrobenzene.
   from [6]HSDB

   Spectral Properties
        INDEX OF REFRACTION: 1.5906 @ 50 DEG C/D
   from [7]HSDB

   Vapor Pressure
        5.0X10-6 mm Hg @ 25 deg C
   from [8]HSDB

   Other Chemical/Physical Properties

     * VAPOR PRESSURE: 0.0075 MM HG @ 94 DEG C /TECHNICAL PRODUCT/
     * Specific gravity: 1.23 (solid at 25 deg C); 1.19 (Liquid at 50 deg
       C)
     * VAPOR PRESSURE: 0.001 MM HG @ 40 DEG C
     * Hydrolyzed by water.
     * Conversion factor: 1 ppm = 10.24 mg/cu m

   from [9]HSDB

   Computed Properties
   Molecular Weight                  250.2521 [g/mol]
   Molecular Formula                 C[15]H[10]N[2]O[2]
   XLogP3-AA                         5.4
   H-Bond Donor                      0
   H-Bond Acceptor                   4
   Rotatable Bond Count              4
   Exact Mass                        250.074228
   MonoIsotopic Mass                 250.074228
   Topological Polar Surface Area    58.9
   Heavy Atom Count                  19
   Formal Charge                     0
   Complexity                        332
   Isotope Atom Count                0
   Defined Atom Stereocenter Count   0
   Undefined Atom Stereocenter Count 0
   Defined Bond Stereocenter Count   0
   Undefined Bond Stereocenter Count 0
   Covalently-Bonded Unit Count      1
   Feature 3D Acceptor Count         2
   Feature 3D Ring Count             2
   Effective Rotor Count             4
   Conformer Sampling RMSD           0.6
   CID Conformer Count               [10]32

References

   1. http://toxnet.nlm.nih.gov/cgi-bin/sis/search/r?dbs+hsdb:@term+@rn+@rel+101-68-8
   2. http://toxnet.nlm.nih.gov/cgi-bin/sis/search/r?dbs+hsdb:@term+@rn+@rel+101-68-8
   3. http://toxnet.nlm.nih.gov/cgi-bin/sis/search/r?dbs+hsdb:@term+@rn+@rel+101-68-8
   4. http://toxnet.nlm.nih.gov/cgi-bin/sis/search/r?dbs+hsdb:@term+@rn+@rel+101-68-8
   5. http://toxnet.nlm.nih.gov/cgi-bin/sis/search/r?dbs+hsdb:@term+@rn+@rel+101-68-8
   6. http://toxnet.nlm.nih.gov/cgi-bin/sis/search/r?dbs+hsdb:@term+@rn+@rel+101-68-8
   7. http://toxnet.nlm.nih.gov/cgi-bin/sis/search/r?dbs+hsdb:@term+@rn+@rel+101-68-8
   8. http://toxnet.nlm.nih.gov/cgi-bin/sis/search/r?dbs+hsdb:@term+@rn+@rel+101-68-8
   9. http://toxnet.nlm.nih.gov/cgi-bin/sis/search/r?dbs+hsdb:@term+@rn+@rel+101-68-8
  10. http://pubchem.ncbi.nlm.nih.gov/vw3d/vw3d.cgi?cid=7570
