   Color/Form

     * Water-white to pale amber liq
     * COLORLESS TO VERY PALE, STRAW-YELLOW, OILY LIQ

   from [1]HSDB

   Odor

     * SWEET, PINE ODOR
     * PINE-LIKE AROMA

   from [2]HSDB

   Taste

     * SOMEWHAT SWEET, CITRUS FLAVOR
     * TERPENE TASTE

   from [3]HSDB

   Boiling Point
        185 deg C
   from [4]HSDB

   Density/Specific Gravity
        0.8623 at 20 deg C/4 deg C
   from [5]HSDB

   Octanol/Water Partition Coefficient
        log Kow = 4.47
   from [6]HSDB

   Solubilities

     * Miscible in ethanol, ether; soluble in benzene, carbon
       tetrachloride
     * Soluble in glycol
     * In water, 9.5 mg/L at 25 deg C

   from [7]HSDB

   Spectral Properties

     * SADTLER REF NUMBER: 1364 (IR, PRISM)
     * Index of refraction: 1.4883 at 20 deg C/D
     * IR: 15133 (Sadtler Research Laboratories IR Grating Collection)
     * NMR: 6566 (Sadtler Research Laboratories IR Grating Collection)
     * Raman: 1120 (Sadtler Research Laboratories Spectral Collection)
     * MASS: 57647 (Nist/EPA/MSDC Mass Spectral Database, 1990 version);
       710 (Atlas of Mass Spectral Data, John Wiley & Sons, New York)

   from [8]HSDB

   Vapor Pressure
        0.74 mm Hg at 25 deg C
   from [9]HSDB

   Other Chemical/Physical Properties

     * Bulk density: wt/gal 7.2 lb at 15.5 deg C
     * Henry's Law constant = 1.4X10-2 atm-cu m/mol at 25 deg C (est)
     * Hydroxyl radical reaction rate constant = 2.25X10-10 cu
       cm/molec-sec at 25 deg C
     * Ozone radical reaction rate constant = 7.3X10-16 cu cm/molecule-sec
       at 25 deg C; 1.0X10-14 cu cm/molecule-sec at 22 deg C

   from [10]HSDB

   Computed Properties
   Molecular Weight                  136.23404 [g/mol]
   Molecular Formula                 C[10]H[16]
   XLogP3-AA                         2.8
   H-Bond Donor                      0
   H-Bond Acceptor                   0
   Rotatable Bond Count              0
   Exact Mass                        136.125201
   MonoIsotopic Mass                 136.125201
   Topological Polar Surface Area    0
   Heavy Atom Count                  10
   Formal Charge                     0
   Complexity                        178
   Isotope Atom Count                0
   Defined Atom Stereocenter Count   0
   Undefined Atom Stereocenter Count 0
   Defined Bond Stereocenter Count   0
   Undefined Bond Stereocenter Count 0
   Covalently-Bonded Unit Count      1
   Feature 3D Hydrophobe Count       1
   Feature 3D Ring Count             1
   Effective Rotor Count             0.6
   Conformer Sampling RMSD           0.4
   CID Conformer Count               [11]1

References

   1. http://toxnet.nlm.nih.gov/cgi-bin/sis/search/r?dbs+hsdb:@term+@rn+@rel+586-62-9
   2. http://toxnet.nlm.nih.gov/cgi-bin/sis/search/r?dbs+hsdb:@term+@rn+@rel+586-62-9
   3. http://toxnet.nlm.nih.gov/cgi-bin/sis/search/r?dbs+hsdb:@term+@rn+@rel+586-62-9
   4. http://toxnet.nlm.nih.gov/cgi-bin/sis/search/r?dbs+hsdb:@term+@rn+@rel+586-62-9
   5. http://toxnet.nlm.nih.gov/cgi-bin/sis/search/r?dbs+hsdb:@term+@rn+@rel+586-62-9
   6. http://toxnet.nlm.nih.gov/cgi-bin/sis/search/r?dbs+hsdb:@term+@rn+@rel+586-62-9
   7. http://toxnet.nlm.nih.gov/cgi-bin/sis/search/r?dbs+hsdb:@term+@rn+@rel+586-62-9
   8. http://toxnet.nlm.nih.gov/cgi-bin/sis/search/r?dbs+hsdb:@term+@rn+@rel+586-62-9
   9. http://toxnet.nlm.nih.gov/cgi-bin/sis/search/r?dbs+hsdb:@term+@rn+@rel+586-62-9
  10. http://toxnet.nlm.nih.gov/cgi-bin/sis/search/r?dbs+hsdb:@term+@rn+@rel+586-62-9
  11. http://pubchem.ncbi.nlm.nih.gov/vw3d/vw3d.cgi?cid=11463
