175902
  -OEChem-07051212572D

 85 91  0     1  0  0  0  0  0999 V2000
    7.1982    0.9890    0.0000 O   0  0  0  0  0  0  0  0  0  0  0  0
    7.7312    3.4325    0.0000 O   0  0  0  0  0  0  0  0  0  0  0  0
    6.6738    3.4294    0.0000 O   0  0  0  0  0  0  0  0  0  0  0  0
    9.4311    3.8560    0.0000 O   0  0  0  0  0  0  0  0  0  0  0  0
    5.0588   -2.9156    0.0000 O   0  0  0  0  0  0  0  0  0  0  0  0
    3.3259   -3.9156    0.0000 O   0  0  0  0  0  0  0  0  0  0  0  0
    9.7975   -0.5117    0.0000 N   0  0  3  0  0  0  0  0  0  0  0  0
    2.8660    1.4892    0.0000 N   0  0  3  0  0  0  0  0  0  0  0  0
    8.9311   -0.0115    0.0000 C   0  0  1  0  0  0  0  0  0  0  0  0
    3.7325    0.9890    0.0000 C   0  0  2  0  0  0  0  0  0  0  0  0
    8.9311    0.9890    0.0000 C   0  0  0  0  0  0  0  0  0  0  0  0
    4.5989    1.4892    0.0000 C   0  0  0  0  0  0  0  0  0  0  0  0
   10.6640   -0.0115    0.0000 C   0  0  0  0  0  0  0  0  0  0  0  0
    9.7975    1.4892    0.0000 C   0  0  0  0  0  0  0  0  0  0  0  0
   10.6640    0.9890    0.0000 C   0  0  0  0  0  0  0  0  0  0  0  0
    2.8660    2.4897    0.0000 C   0  0  0  0  0  0  0  0  0  0  0  0
    4.5989    2.4897    0.0000 C   0  0  0  0  0  0  0  0  0  0  0  0
    8.5245   -0.9147    0.0000 C   0  0  0  0  0  0  0  0  0  0  0  0
    3.7325    2.9899    0.0000 C   0  0  0  0  0  0  0  0  0  0  0  0
    3.3259    0.0858    0.0000 C   0  0  0  0  0  0  0  0  0  0  0  0
    8.0646    1.4892    0.0000 C   0  0  0  0  0  0  0  0  0  0  0  0
    5.4653    0.9890    0.0000 C   0  0  0  0  0  0  0  0  0  0  0  0
    6.3318    1.4892    0.0000 C   0  0  0  0  0  0  0  0  0  0  0  0
    9.7975   -1.5117    0.0000 C   0  0  0  0  0  0  0  0  0  0  0  0
    9.7975    2.4897    0.0000 C   0  0  0  0  0  0  0  0  0  0  0  0
    5.4653    2.9899    0.0000 C   0  0  0  0  0  0  0  0  0  0  0  0
    2.0000    0.9892    0.0000 C   0  0  0  0  0  0  0  0  0  0  0  0
    7.6581   -1.4149    0.0000 C   0  0  0  0  0  0  0  0  0  0  0  0
    8.0646    2.4897    0.0000 C   0  0  0  0  0  0  0  0  0  0  0  0
    3.3259   -0.9147    0.0000 C   0  0  0  0  0  0  0  0  0  0  0  0
    6.3318    2.4897    0.0000 C   0  0  0  0  0  0  0  0  0  0  0  0
    8.9311    2.9899    0.0000 C   0  0  0  0  0  0  0  0  0  0  0  0
    4.1924   -1.4149    0.0000 C   0  0  0  0  0  0  0  0  0  0  0  0
    6.7917   -0.9147    0.0000 C   0  0  0  0  0  0  0  0  0  0  0  0
    7.6581   -2.4154    0.0000 C   0  0  0  0  0  0  0  0  0  0  0  0
    2.4595   -1.4149    0.0000 C   0  0  0  0  0  0  0  0  0  0  0  0
    4.1924   -2.4154    0.0000 C   0  0  0  0  0  0  0  0  0  0  0  0
    5.9252   -2.4154    0.0000 C   0  0  0  0  0  0  0  0  0  0  0  0
    5.9252   -1.4149    0.0000 C   0  0  0  0  0  0  0  0  0  0  0  0
    6.7917   -2.9156    0.0000 C   0  0  0  0  0  0  0  0  0  0  0  0
    2.4595   -2.4154    0.0000 C   0  0  0  0  0  0  0  0  0  0  0  0
    3.3259   -2.9156    0.0000 C   0  0  0  0  0  0  0  0  0  0  0  0
    7.9138    4.4156    0.0000 C   0  0  0  0  0  0  0  0  0  0  0  0
    6.0310    4.1954    0.0000 C   0  0  0  0  0  0  0  0  0  0  0  0
    2.4599   -4.4156    0.0000 C   0  0  0  0  0  0  0  0  0  0  0  0
    8.1000    0.1669    0.0000 H   0  0  0  0  0  0  0  0  0  0  0  0
    2.9235    0.7280    0.0000 H   0  0  0  0  0  0  0  0  0  0  0  0
   10.8760   -0.5941    0.0000 H   0  0  0  0  0  0  0  0  0  0  0  0
   11.2745    0.0962    0.0000 H   0  0  0  0  0  0  0  0  0  0  0  0
   11.2745    0.8813    0.0000 H   0  0  0  0  0  0  0  0  0  0  0  0
   10.8760    1.5716    0.0000 H   0  0  0  0  0  0  0  0  0  0  0  0
    2.6540    3.0723    0.0000 H   0  0  0  0  0  0  0  0  0  0  0  0
    2.2554    2.3820    0.0000 H   0  0  0  0  0  0  0  0  0  0  0  0
    8.6526   -1.5213    0.0000 H   0  0  0  0  0  0  0  0  0  0  0  0
    8.0646   -0.4989    0.0000 H   0  0  0  0  0  0  0  0  0  0  0  0
    4.1310    3.4649    0.0000 H   0  0  0  0  0  0  0  0  0  0  0  0
    3.3339    3.4649    0.0000 H   0  0  0  0  0  0  0  0  0  0  0  0
    2.8964    0.5329    0.0000 H   0  0  0  0  0  0  0  0  0  0  0  0
    3.9321   -0.0444    0.0000 H   0  0  0  0  0  0  0  0  0  0  0  0
    5.4653    0.3690    0.0000 H   0  0  0  0  0  0  0  0  0  0  0  0
    9.1775   -1.5117    0.0000 H   0  0  0  0  0  0  0  0  0  0  0  0
    9.7975   -2.1317    0.0000 H   0  0  0  0  0  0  0  0  0  0  0  0
   10.4175   -1.5117    0.0000 H   0  0  0  0  0  0  0  0  0  0  0  0
   10.3345    2.7997    0.0000 H   0  0  0  0  0  0  0  0  0  0  0  0
    5.4653    3.6099    0.0000 H   0  0  0  0  0  0  0  0  0  0  0  0
    1.6900    1.5262    0.0000 H   0  0  0  0  0  0  0  0  0  0  0  0
    1.4631    0.6792    0.0000 H   0  0  0  0  0  0  0  0  0  0  0  0
    2.3100    0.4523    0.0000 H   0  0  0  0  0  0  0  0  0  0  0  0
    4.7293   -1.1049    0.0000 H   0  0  0  0  0  0  0  0  0  0  0  0
    6.7917   -0.2947    0.0000 H   0  0  0  0  0  0  0  0  0  0  0  0
    8.1950   -2.7254    0.0000 H   0  0  0  0  0  0  0  0  0  0  0  0
    1.9225   -1.1049    0.0000 H   0  0  0  0  0  0  0  0  0  0  0  0
    5.3883   -1.1049    0.0000 H   0  0  0  0  0  0  0  0  0  0  0  0
    6.7917   -3.5356    0.0000 H   0  0  0  0  0  0  0  0  0  0  0  0
    1.9225   -2.7254    0.0000 H   0  0  0  0  0  0  0  0  0  0  0  0
   10.0511    3.8560    0.0000 H   0  0  0  0  0  0  0  0  0  0  0  0
    8.5234    4.3024    0.0000 H   0  0  0  0  0  0  0  0  0  0  0  0
    8.0270    5.0252    0.0000 H   0  0  0  0  0  0  0  0  0  0  0  0
    7.3042    4.5289    0.0000 H   0  0  0  0  0  0  0  0  0  0  0  0
    6.5060    4.5940    0.0000 H   0  0  0  0  0  0  0  0  0  0  0  0
    5.6325    4.6704    0.0000 H   0  0  0  0  0  0  0  0  0  0  0  0
    5.5561    3.7969    0.0000 H   0  0  0  0  0  0  0  0  0  0  0  0
    2.1499   -3.8787    0.0000 H   0  0  0  0  0  0  0  0  0  0  0  0
    1.9230   -4.7256    0.0000 H   0  0  0  0  0  0  0  0  0  0  0  0
    2.7699   -4.9526    0.0000 H   0  0  0  0  0  0  0  0  0  0  0  0
  1 21  1  0  0  0  0
  1 23  1  0  0  0  0
  2 29  1  0  0  0  0
  2 43  1  0  0  0  0
  3 31  1  0  0  0  0
  3 44  1  0  0  0  0
  4 32  1  0  0  0  0
  4 76  1  0  0  0  0
  5 37  1  0  0  0  0
  5 38  1  0  0  0  0
  6 42  1  0  0  0  0
  6 45  1  0  0  0  0
  7  9  1  0  0  0  0
  7 13  1  0  0  0  0
  7 24  1  0  0  0  0
  8 10  1  0  0  0  0
  8 16  1  0  0  0  0
  8 27  1  0  0  0  0
  9 11  1  0  0  0  0
  9 18  1  0  0  0  0
  9 46  1  1  0  0  0
 10 12  1  0  0  0  0
 10 20  1  0  0  0  0
 10 47  1  1  0  0  0
 11 14  1  0  0  0  0
 11 21  2  0  0  0  0
 12 17  1  0  0  0  0
 12 22  2  0  0  0  0
 13 15  1  0  0  0  0
 13 48  1  0  0  0  0
 13 49  1  0  0  0  0
 14 15  1  0  0  0  0
 14 25  2  0  0  0  0
 15 50  1  0  0  0  0
 15 51  1  0  0  0  0
 16 19  1  0  0  0  0
 16 52  1  0  0  0  0
 16 53  1  0  0  0  0
 17 19  1  0  0  0  0
 17 26  2  0  0  0  0
 18 28  1  0  0  0  0
 18 54  1  0  0  0  0
 18 55  1  0  0  0  0
 19 56  1  0  0  0  0
 19 57  1  0  0  0  0
 20 30  1  0  0  0  0
 20 58  1  0  0  0  0
 20 59  1  0  0  0  0
 21 29  1  0  0  0  0
 22 23  1  0  0  0  0
 22 60  1  0  0  0  0
 23 31  2  0  0  0  0
 24 61  1  0  0  0  0
 24 62  1  0  0  0  0
 24 63  1  0  0  0  0
 25 32  1  0  0  0  0
 25 64  1  0  0  0  0
 26 31  1  0  0  0  0
 26 65  1  0  0  0  0
 27 66  1  0  0  0  0
 27 67  1  0  0  0  0
 27 68  1  0  0  0  0
 28 34  2  0  0  0  0
 28 35  1  0  0  0  0
 29 32  2  0  0  0  0
 30 33  2  0  0  0  0
 30 36  1  0  0  0  0
 33 37  1  0  0  0  0
 33 69  1  0  0  0  0
 34 39  1  0  0  0  0
 34 70  1  0  0  0  0
 35 40  2  0  0  0  0
 35 71  1  0  0  0  0
 36 41  2  0  0  0  0
 36 72  1  0  0  0  0
 37 42  2  0  0  0  0
 38 39  2  0  0  0  0
 38 40  1  0  0  0  0
 39 73  1  0  0  0  0
 40 74  1  0  0  0  0
 41 42  1  0  0  0  0
 41 75  1  0  0  0  0
 43 77  1  0  0  0  0
 43 78  1  0  0  0  0
 43 79  1  0  0  0  0
 44 80  1  0  0  0  0
 44 81  1  0  0  0  0
 44 82  1  0  0  0  0
 45 83  1  0  0  0  0
 45 84  1  0  0  0  0
 45 85  1  0  0  0  0
M  END
> <PUBCHEM_COMPOUND_CID>
175902

> <PUBCHEM_COMPOUND_CANONICALIZED>
1

> <PUBCHEM_CACTVS_COMPLEXITY>
963

> <PUBCHEM_CACTVS_HBOND_ACCEPTOR>
8

> <PUBCHEM_CACTVS_HBOND_DONOR>
1

> <PUBCHEM_CACTVS_ROTATABLE_BOND>
3

> <PUBCHEM_CACTVS_SUBSKEYS>
AAADcfB/OAAAAAAAAAAAAAAAAAAAAAAAAAA8eMGCAAAAAACxVAAAHgAACAAADCzBmAYyBoMABgCAAiBCAACCCAAgIAAIiAAOjIgNJyKGsRuGeCvnwBWLuAew8P8OoAABCAAYQABAAAIQADCAAAAAAAAAAA==

> <PUBCHEM_IUPAC_INCHI>
InChI=1S/C37H40N2O6/c1-38-14-12-24-20-32(42-4)34-21-27(24)28(38)17-23-8-11-31(41-3)33(18-23)44-26-9-6-22(7-10-26)16-29-35-25(13-15-39(29)2)19-30(40)36(43-5)37(35)45-34/h6-11,18-21,28-29,40H,12-17H2,1-5H3/t28-,29+/m0/s1

> <PUBCHEM_IUPAC_INCHIKEY>
VXPVPAHQYCJDTP-URLMMPGGSA-N

> <PUBCHEM_XLOGP3_AA>
6.3

> <PUBCHEM_EXACT_MASS>
608.288637

> <PUBCHEM_MOLECULAR_FORMULA>
C37H40N2O6

> <PUBCHEM_MOLECULAR_WEIGHT>
608.7233

> <PUBCHEM_OPENEYE_CAN_SMILES>
CN1CCC2=CC(=C(C3=C2C1CC4=CC=C(C=C4)OC5=C(C=CC(=C5)CC6C7=CC(=C(C=C7CCN6C)OC)O3)OC)OC)O

> <PUBCHEM_OPENEYE_ISO_SMILES>
CN1CCC2=CC(=C(C3=C2[C@H]1CC4=CC=C(C=C4)OC5=C(C=CC(=C5)C[C@H]6C7=CC(=C(C=C7CCN6C)OC)O3)OC)OC)O

> <PUBCHEM_CACTVS_TPSA>
72.9

> <PUBCHEM_MONOISOTOPIC_WEIGHT>
608.288637

> <PUBCHEM_TOTAL_CHARGE>
0

> <PUBCHEM_HEAVY_ATOM_COUNT>
45

> <PUBCHEM_ATOM_DEF_STEREO_COUNT>
2

> <PUBCHEM_ATOM_UDEF_STEREO_COUNT>
0

> <PUBCHEM_BOND_DEF_STEREO_COUNT>
0

> <PUBCHEM_BOND_UDEF_STEREO_COUNT>
0

> <PUBCHEM_ISOTOPIC_ATOM_COUNT>
0

> <PUBCHEM_COMPONENT_COUNT>
1

> <PUBCHEM_CACTVS_TAUTO_COUNT>
9

> <PUBCHEM_COORDINATE_TYPE>
1
5
255

> <PUBCHEM_BONDANNOTATIONS>
10  47  5
11  14  8
11  21  8
12  17  8
12  22  8
14  25  8
17  26  8
21  29  8
22  23  8
23  31  8
25  32  8
26  31  8
28  34  8
28  35  8
29  32  8
30  33  8
30  36  8
33  37  8
34  39  8
35  40  8
36  41  8
37  42  8
38  39  8
38  40  8
41  42  8
9  46  5

$$$$

