53230
  -OEChem-07051213142D

 30 33  0     0  0  0  0  0  0999 V2000
    2.8549    2.9585    0.0000 O   0  5  0  0  0  0  0  0  0  0  0  0
    6.2730    3.0259    0.0000 O   0  5  0  0  0  0  0  0  0  0  0  0
    2.0000    1.4522    0.0000 O   0  0  0  0  0  0  0  0  0  0  0  0
    7.1866    1.5543    0.0000 O   0  0  0  0  0  0  0  0  0  0  0  0
    2.8623    1.9586    0.0000 N   0  3  0  0  0  0  0  0  0  0  0  0
    6.3050    2.0264    0.0000 N   0  3  0  0  0  0  0  0  0  0  0  0
    4.5993   -0.0267    0.0000 C   0  0  0  0  0  0  0  0  0  0  0  0
    4.5993   -1.0267    0.0000 C   0  0  0  0  0  0  0  0  0  0  0  0
    5.4932    0.5079    0.0000 C   0  0  0  0  0  0  0  0  0  0  0  0
    3.7332    0.4733    0.0000 C   0  0  0  0  0  0  0  0  0  0  0  0
    5.4932   -1.5614    0.0000 C   0  0  0  0  0  0  0  0  0  0  0  0
    3.7332   -1.5267    0.0000 C   0  0  0  0  0  0  0  0  0  0  0  0
    3.7320    1.4650    0.0000 C   0  0  0  0  0  0  0  0  0  0  0  0
    5.4554    1.4989    0.0000 C   0  0  0  0  0  0  0  0  0  0  0  0
    6.3993   -0.0059    0.0000 C   0  0  0  0  0  0  0  0  0  0  0  0
    2.8672   -0.0267    0.0000 C   0  0  0  0  0  0  0  0  0  0  0  0
    6.3993   -1.0475    0.0000 C   0  0  0  0  0  0  0  0  0  0  0  0
    2.8672   -1.0267    0.0000 C   0  0  0  0  0  0  0  0  0  0  0  0
    4.5841    1.9724    0.0000 C   0  0  0  0  0  0  0  0  0  0  0  0
    5.4554   -2.5524    0.0000 C   0  0  0  0  0  0  0  0  0  0  0  0
    3.7320   -2.5184    0.0000 C   0  0  0  0  0  0  0  0  0  0  0  0
    4.5841   -3.0259    0.0000 C   0  0  0  0  0  0  0  0  0  0  0  0
    6.9350    0.3062    0.0000 H   0  0  0  0  0  0  0  0  0  0  0  0
    2.3303    0.2833    0.0000 H   0  0  0  0  0  0  0  0  0  0  0  0
    6.9350   -1.3596    0.0000 H   0  0  0  0  0  0  0  0  0  0  0  0
    2.3303   -1.3367    0.0000 H   0  0  0  0  0  0  0  0  0  0  0  0
    4.5718    2.5923    0.0000 H   0  0  0  0  0  0  0  0  0  0  0  0
    5.9822   -2.8794    0.0000 H   0  0  0  0  0  0  0  0  0  0  0  0
    3.1928   -2.8244    0.0000 H   0  0  0  0  0  0  0  0  0  0  0  0
    4.5718   -3.6457    0.0000 H   0  0  0  0  0  0  0  0  0  0  0  0
  1  5  1  0  0  0  0
  2  6  1  0  0  0  0
  3  5  2  0  0  0  0
  4  6  2  0  0  0  0
  5 13  1  0  0  0  0
  6 14  1  0  0  0  0
  7  8  1  0  0  0  0
  7  9  2  0  0  0  0
  7 10  1  0  0  0  0
  8 11  2  0  0  0  0
  8 12  1  0  0  0  0
  9 14  1  0  0  0  0
  9 15  1  0  0  0  0
 10 13  2  0  0  0  0
 10 16  1  0  0  0  0
 11 17  1  0  0  0  0
 11 20  1  0  0  0  0
 12 18  1  0  0  0  0
 12 21  2  0  0  0  0
 13 19  1  0  0  0  0
 14 19  2  0  0  0  0
 15 17  2  0  0  0  0
 15 23  1  0  0  0  0
 16 18  2  0  0  0  0
 16 24  1  0  0  0  0
 17 25  1  0  0  0  0
 18 26  1  0  0  0  0
 19 27  1  0  0  0  0
 20 22  2  0  0  0  0
 20 28  1  0  0  0  0
 21 22  1  0  0  0  0
 21 29  1  0  0  0  0
 22 30  1  0  0  0  0
M  CHG  4   1  -1   2  -1   5   1   6   1
M  END
> <PUBCHEM_COMPOUND_CID>
53230

> <PUBCHEM_COMPOUND_CANONICALIZED>
1

> <PUBCHEM_CACTVS_COMPLEXITY>
446

> <PUBCHEM_CACTVS_HBOND_ACCEPTOR>
4

> <PUBCHEM_CACTVS_HBOND_DONOR>
0

> <PUBCHEM_CACTVS_ROTATABLE_BOND>
0

> <PUBCHEM_CACTVS_SUBSKEYS>
AAADccB7OAAAAAAAAAAAAAAAAAAAAAAAAAAwYMGAAAAAAADBVAAAHAAEAAAADAiBGAAwwMAQQACBAiRCQwCCAAAgAgAoiAAAZIoIICKA0dGAIABggAAIyAcQgMAOyAACQAQSAACQAASACCQAAAAAAAAAAA==

> <PUBCHEM_IUPAC_OPENEYE_NAME>
1,3-dinitropyrene

> <PUBCHEM_IUPAC_CAS_NAME>
1,3-dinitropyrene

> <PUBCHEM_IUPAC_NAME>
1,3-dinitropyrene

> <PUBCHEM_IUPAC_SYSTEMATIC_NAME>
1,3-dinitropyrene

> <PUBCHEM_IUPAC_TRADITIONAL_NAME>
1,3-dinitropyrene

> <PUBCHEM_IUPAC_INCHI>
InChI=1S/C16H8N2O4/c19-17(20)13-8-14(18(21)22)12-7-5-10-3-1-2-9-4-6-11(13)16(12)15(9)10/h1-8H

> <PUBCHEM_IUPAC_INCHIKEY>
KTNUVDBUEAQUON-UHFFFAOYSA-N

> <PUBCHEM_XLOGP3_AA>
4.7

> <PUBCHEM_EXACT_MASS>
292.048407

> <PUBCHEM_MOLECULAR_FORMULA>
C16H8N2O4

> <PUBCHEM_MOLECULAR_WEIGHT>
292.24572

> <PUBCHEM_OPENEYE_CAN_SMILES>
C1=CC2=C3C(=C1)C=CC4=C(C=C(C(=C43)C=C2)[N+](=O)[O-])[N+](=O)[O-]

> <PUBCHEM_OPENEYE_ISO_SMILES>
C1=CC2=C3C(=C1)C=CC4=C(C=C(C(=C43)C=C2)[N+](=O)[O-])[N+](=O)[O-]

> <PUBCHEM_CACTVS_TPSA>
91.6

> <PUBCHEM_MONOISOTOPIC_WEIGHT>
292.048407

> <PUBCHEM_TOTAL_CHARGE>
0

> <PUBCHEM_HEAVY_ATOM_COUNT>
22

> <PUBCHEM_ATOM_DEF_STEREO_COUNT>
0

> <PUBCHEM_ATOM_UDEF_STEREO_COUNT>
0

> <PUBCHEM_BOND_DEF_STEREO_COUNT>
0

> <PUBCHEM_BOND_UDEF_STEREO_COUNT>
0

> <PUBCHEM_ISOTOPIC_ATOM_COUNT>
0

> <PUBCHEM_COMPONENT_COUNT>
1

> <PUBCHEM_CACTVS_TAUTO_COUNT>
1

> <PUBCHEM_COORDINATE_TYPE>
1
5
255

> <PUBCHEM_BONDANNOTATIONS>
10  13  8
10  16  8
11  17  8
11  20  8
12  18  8
12  21  8
13  19  8
14  19  8
15  17  8
16  18  8
20  22  8
21  22  8
7  10  8
7  8  8
7  9  8
8  11  8
8  12  8
9  14  8
9  15  8

$$$$

