   Color/Form

     * White to pale yellow, crystalline powder
     * Leaves from alcohol
     * NEEDLE-LIKE CRYSTALS

   from [1]HSDB

   Taste
        Sweetish taste
   from [2]HSDB

   Boiling Point
        Sublimes
   from [3]HSDB

   Melting Point
        144-146 deg C
   from [4]HSDB

   Density/Specific Gravity
        1.412 at 20 deg C
   from [5]HSDB

   Dissociation Constants
        pKa = 2.14
   from [6]HSDB

   Octanol/Water Partition Coefficient
        log Kow = 1.21
   from [7]HSDB

   Solubilities

     * Freely soluble in alcohol, ether
     * Soluble in ethanol, ethyl ether, slightly soluble in
       trifluoroacetic acid, benzene, very soluble in chloroform, pyridine
     * In water, 3.5X10+3 mg/L at 25 deg C

   from [8]HSDB

   Spectral Properties

     * MAX ABSORPTION (ALCOHOL): 247 NM (LOG E= 3.83); 332 NM (LOG E=
       3.65); SADTLER REFERENCE NUMBER: 2703 (IR, PRISM); 330 (IR,
       GRATING); 729 (UV); 3159 (NMR)
     * MAX ABSORPTION (METHANOL): 335 NM (E= 320); 247 NM (E= 491); 217 NM
       (E= 2072)
     * IR: 330 (Sadtler Research Laboratories IR Grating Collection)
     * UV: 729 (Sadtler Research Laboratories Spectral Collection)
     * 1H NMR: 3159 (Sadtler Research Laboratories Spectral Collection)
     * MASS: 44606 (NIST/EPA/MSDC Mass Spectral database, 1990 version):
       1077 (National Bureau of Standards)

   from [9]HSDB

   Vapor Pressure
        2.8X10-4 mm Hg at 25 deg C (est)
   from [10]HSDB

   Other Chemical/Physical Properties

     * The solutions in alcohol or ether and particularly in glycerol
       exhibit an amethyst fluorescence
     * IR: 6776 (Coblentz Society spectral collection) /3-Aminobenzoic
       acid/
     * 1H NMR: 2822 (Sadtler Research Laboratories spectral collection)
       /3-Aminobenzoic acid/
     * MASS: 3476 (NIST/EPA/MSDC Mass Spectral database, 1990 version)
       /3-Aminobenzoic acid/
     * UV: 1802 (Sadtler Research Laboratories Spectral Collection)
       /3-Aminobenzoic acid/
     * Henry's Law constant = 3,8X10-11 atm-cu m/mol at 25 deg C (est)
     * Hydroxyl radical reaction rate constant = 4.0X10-11 cu cm/molec-sec
       at 25 deg C (est)
     * The solution in water is a weak acid. /from table/

   from [11]HSDB

   Computed Properties
   Molecular Weight                  137.13598 [g/mol]
   Molecular Formula                 C[7]H[7]NO[2]
   XLogP3                            1.2
   H-Bond Donor                      2
   H-Bond Acceptor                   3
   Rotatable Bond Count              1
   Tautomer Count                    4
   Exact Mass                        137.047678
   MonoIsotopic Mass                 137.047678
   Topological Polar Surface Area    63.3
   Heavy Atom Count                  10
   Formal Charge                     0
   Complexity                        136
   Isotope Atom Count                0
   Defined Atom Stereocenter Count   0
   Undefined Atom Stereocenter Count 0
   Defined Bond Stereocenter Count   0
   Undefined Bond Stereocenter Count 0
   Covalently-Bonded Unit Count      1
   Feature 3D Acceptor Count         2
   Feature 3D Donor Count            1
   Feature 3D Anion Count            1
   Feature 3D Cation Count           1
   Feature 3D Ring Count             1
   Effective Rotor Count             1
   Conformer Sampling RMSD           0.4
   CID Conformer Count               [12]3

References

   1. http://toxnet.nlm.nih.gov/cgi-bin/sis/search/r?dbs+hsdb:@term+@rn+@rel+118-92-3
   2. http://toxnet.nlm.nih.gov/cgi-bin/sis/search/r?dbs+hsdb:@term+@rn+@rel+118-92-3
   3. http://toxnet.nlm.nih.gov/cgi-bin/sis/search/r?dbs+hsdb:@term+@rn+@rel+118-92-3
   4. http://toxnet.nlm.nih.gov/cgi-bin/sis/search/r?dbs+hsdb:@term+@rn+@rel+118-92-3
   5. http://toxnet.nlm.nih.gov/cgi-bin/sis/search/r?dbs+hsdb:@term+@rn+@rel+118-92-3
   6. http://toxnet.nlm.nih.gov/cgi-bin/sis/search/r?dbs+hsdb:@term+@rn+@rel+118-92-3
   7. http://toxnet.nlm.nih.gov/cgi-bin/sis/search/r?dbs+hsdb:@term+@rn+@rel+118-92-3
   8. http://toxnet.nlm.nih.gov/cgi-bin/sis/search/r?dbs+hsdb:@term+@rn+@rel+118-92-3
   9. http://toxnet.nlm.nih.gov/cgi-bin/sis/search/r?dbs+hsdb:@term+@rn+@rel+118-92-3
  10. http://toxnet.nlm.nih.gov/cgi-bin/sis/search/r?dbs+hsdb:@term+@rn+@rel+118-92-3
  11. http://toxnet.nlm.nih.gov/cgi-bin/sis/search/r?dbs+hsdb:@term+@rn+@rel+118-92-3
  12. http://pubchem.ncbi.nlm.nih.gov/vw3d/vw3d.cgi?cid=227
