21700
  -OEChem-07051212542D

 73 76  0     1  0  0  0  0  0999 V2000
    5.0182   -0.1371    0.0000 Cl  0  0  0  0  0  0  0  0  0  0  0  0
    8.0319    1.3532    0.0000 O   0  0  0  0  0  0  0  0  0  0  0  0
    4.7950    0.5968    0.0000 O   0  0  0  0  0  0  0  0  0  0  0  0
    9.5576    1.9008    0.0000 O   0  0  0  0  0  0  0  0  0  0  0  0
   10.8722    1.1660    0.0000 O   0  0  0  0  0  0  0  0  0  0  0  0
    9.1931    2.6383    0.0000 O   0  0  0  0  0  0  0  0  0  0  0  0
    2.0000   -2.9555    0.0000 O   0  0  0  0  0  0  0  0  0  0  0  0
   11.8879   -0.2370    0.0000 O   0  0  0  0  0  0  0  0  0  0  0  0
    7.3931    0.0968    0.0000 C   0  0  1  0  0  0  0  0  0  0  0  0
    7.3931   -0.9032    0.0000 C   0  0  2  0  0  0  0  0  0  0  0  0
    6.5271   -1.4032    0.0000 C   0  0  1  0  0  0  0  0  0  0  0  0
    5.6610   -0.9032    0.0000 C   0  0  1  0  0  0  0  0  0  0  0  0
    8.3393    0.4016    0.0000 C   0  0  1  0  0  0  0  0  0  0  0  0
    8.3393   -1.2079    0.0000 C   0  0  0  0  0  0  0  0  0  0  0  0
    6.5271    0.5968    0.0000 C   0  0  0  0  0  0  0  0  0  0  0  0
    8.9229   -0.4032    0.0000 C   0  0  2  0  0  0  0  0  0  0  0  0
    5.6610    0.0968    0.0000 C   0  0  2  0  0  0  0  0  0  0  0  0
    4.7510   -1.4100    0.0000 C   0  0  1  0  0  0  0  0  0  0  0  0
    6.5431   -2.4447    0.0000 C   0  0  0  0  0  0  0  0  0  0  0  0
    7.3931    1.0968    0.0000 C   0  0  0  0  0  0  0  0  0  0  0  0
    5.6451   -2.9724    0.0000 C   0  0  0  0  0  0  0  0  0  0  0  0
    4.7430   -2.4516    0.0000 C   0  0  0  0  0  0  0  0  0  0  0  0
    9.1493    0.9879    0.0000 C   0  0  0  0  0  0  0  0  0  0  0  0
    9.9229   -0.4032    0.0000 C   0  0  0  0  0  0  0  0  0  0  0  0
    4.4163   -0.4677    0.0000 C   0  0  0  0  0  0  0  0  0  0  0  0
    3.8242   -0.8459    0.0000 C   0  0  0  0  0  0  0  0  0  0  0  0
    3.8076   -3.0014    0.0000 C   0  0  0  0  0  0  0  0  0  0  0  0
   10.0622    0.5796    0.0000 C   0  0  0  0  0  0  0  0  0  0  0  0
    2.8763   -1.3739    0.0000 C   0  0  0  0  0  0  0  0  0  0  0  0
    8.2415    2.3309    0.0000 C   0  0  0  0  0  0  0  0  0  0  0  0
    2.8680   -2.4588    0.0000 C   0  0  0  0  0  0  0  0  0  0  0  0
    7.4996    3.0014    0.0000 C   0  0  0  0  0  0  0  0  0  0  0  0
    6.5480    2.6940    0.0000 C   0  0  0  0  0  0  0  0  0  0  0  0
   11.7851    0.7577    0.0000 C   0  0  0  0  0  0  0  0  0  0  0  0
   12.5951    1.3441    0.0000 C   0  0  0  0  0  0  0  0  0  0  0  0
   13.5079    0.9358    0.0000 C   0  0  0  0  0  0  0  0  0  0  0  0
    7.4830   -1.7484    0.0000 H   0  0  0  0  0  0  0  0  0  0  0  0
    7.2664   -1.8225    0.0000 H   0  0  0  0  0  0  0  0  0  0  0  0
    8.0883   -1.7748    0.0000 H   0  0  0  0  0  0  0  0  0  0  0  0
    8.8767   -1.5171    0.0000 H   0  0  0  0  0  0  0  0  0  0  0  0
    6.9256    1.0718    0.0000 H   0  0  0  0  0  0  0  0  0  0  0  0
    6.1285    1.0718    0.0000 H   0  0  0  0  0  0  0  0  0  0  0  0
    9.2046   -0.9555    0.0000 H   0  0  0  0  0  0  0  0  0  0  0  0
    5.6610    0.7168    0.0000 H   0  0  0  0  0  0  0  0  0  0  0  0
    6.7612   -3.0251    0.0000 H   0  0  0  0  0  0  0  0  0  0  0  0
    7.1523   -2.3292    0.0000 H   0  0  0  0  0  0  0  0  0  0  0  0
    8.0131    1.0968    0.0000 H   0  0  0  0  0  0  0  0  0  0  0  0
    7.3931    1.7168    0.0000 H   0  0  0  0  0  0  0  0  0  0  0  0
    6.7731    1.0968    0.0000 H   0  0  0  0  0  0  0  0  0  0  0  0
    5.2478   -3.4484    0.0000 H   0  0  0  0  0  0  0  0  0  0  0  0
    6.0460   -3.4453    0.0000 H   0  0  0  0  0  0  0  0  0  0  0  0
    9.9229   -1.0232    0.0000 H   0  0  0  0  0  0  0  0  0  0  0  0
   10.5429   -0.4032    0.0000 H   0  0  0  0  0  0  0  0  0  0  0  0
    9.9229    0.2168    0.0000 H   0  0  0  0  0  0  0  0  0  0  0  0
    5.0005   -0.2602    0.0000 H   0  0  0  0  0  0  0  0  0  0  0  0
    4.2087    0.1165    0.0000 H   0  0  0  0  0  0  0  0  0  0  0  0
    3.8320   -0.6753    0.0000 H   0  0  0  0  0  0  0  0  0  0  0  0
    3.8361   -0.2261    0.0000 H   0  0  0  0  0  0  0  0  0  0  0  0
    4.7950    1.2168    0.0000 H   0  0  0  0  0  0  0  0  0  0  0  0
    3.8100   -3.6213    0.0000 H   0  0  0  0  0  0  0  0  0  0  0  0
    9.7146    0.0662    0.0000 H   0  0  0  0  0  0  0  0  0  0  0  0
   10.5074    0.1482    0.0000 H   0  0  0  0  0  0  0  0  0  0  0  0
    2.3430   -1.0577    0.0000 H   0  0  0  0  0  0  0  0  0  0  0  0
    7.9888    3.3822    0.0000 H   0  0  0  0  0  0  0  0  0  0  0  0
    7.2094    3.5493    0.0000 H   0  0  0  0  0  0  0  0  0  0  0  0
    6.3574    3.2840    0.0000 H   0  0  0  0  0  0  0  0  0  0  0  0
    5.9580    2.5034    0.0000 H   0  0  0  0  0  0  0  0  0  0  0  0
    6.7385    2.1040    0.0000 H   0  0  0  0  0  0  0  0  0  0  0  0
   12.9427    1.8575    0.0000 H   0  0  0  0  0  0  0  0  0  0  0  0
   12.1498    1.7755    0.0000 H   0  0  0  0  0  0  0  0  0  0  0  0
   13.2548    0.3698    0.0000 H   0  0  0  0  0  0  0  0  0  0  0  0
   14.0739    0.6826    0.0000 H   0  0  0  0  0  0  0  0  0  0  0  0
   13.7611    1.5017    0.0000 H   0  0  0  0  0  0  0  0  0  0  0  0
 12  1  1  6  0  0  0
 13  2  1  6  0  0  0
  2 30  1  0  0  0  0
 17  3  1  1  0  0  0
  3 59  1  0  0  0  0
  4 23  2  0  0  0  0
  5 28  1  0  0  0  0
  5 34  1  0  0  0  0
  6 30  2  0  0  0  0
  7 31  2  0  0  0  0
  8 34  2  0  0  0  0
  9 10  1  0  0  0  0
  9 13  1  0  0  0  0
  9 15  1  0  0  0  0
  9 20  1  1  0  0  0
 10 11  1  0  0  0  0
 10 14  1  0  0  0  0
 10 37  1  6  0  0  0
 11 12  1  0  0  0  0
 11 19  1  0  0  0  0
 11 38  1  1  0  0  0
 12 17  1  0  0  0  0
 12 18  1  0  0  0  0
 13 16  1  0  0  0  0
 13 23  1  0  0  0  0
 14 16  1  0  0  0  0
 14 39  1  0  0  0  0
 14 40  1  0  0  0  0
 15 17  1  0  0  0  0
 15 41  1  0  0  0  0
 15 42  1  0  0  0  0
 16 24  1  1  0  0  0
 16 43  1  0  0  0  0
 17 44  1  0  0  0  0
 18 22  1  0  0  0  0
 18 25  1  1  0  0  0
 18 26  1  0  0  0  0
 19 21  1  0  0  0  0
 19 45  1  0  0  0  0
 19 46  1  0  0  0  0
 20 47  1  0  0  0  0
 20 48  1  0  0  0  0
 20 49  1  0  0  0  0
 21 22  1  0  0  0  0
 21 50  1  0  0  0  0
 21 51  1  0  0  0  0
 22 27  2  0  0  0  0
 23 28  1  0  0  0  0
 24 52  1  0  0  0  0
 24 53  1  0  0  0  0
 24 54  1  0  0  0  0
 25 55  1  0  0  0  0
 25 56  1  0  0  0  0
 25 57  1  0  0  0  0
 26 29  2  0  0  0  0
 26 58  1  0  0  0  0
 27 31  1  0  0  0  0
 27 60  1  0  0  0  0
 28 61  1  0  0  0  0
 28 62  1  0  0  0  0
 29 31  1  0  0  0  0
 29 63  1  0  0  0  0
 30 32  1  0  0  0  0
 32 33  1  0  0  0  0
 32 64  1  0  0  0  0
 32 65  1  0  0  0  0
 33 66  1  0  0  0  0
 33 67  1  0  0  0  0
 33 68  1  0  0  0  0
 34 35  1  0  0  0  0
 35 36  1  0  0  0  0
 35 69  1  0  0  0  0
 35 70  1  0  0  0  0
 36 71  1  0  0  0  0
 36 72  1  0  0  0  0
 36 73  1  0  0  0  0
M  END
> <PUBCHEM_COMPOUND_CID>
21700

> <PUBCHEM_COMPOUND_CANONICALIZED>
1

> <PUBCHEM_CACTVS_COMPLEXITY>
1050

> <PUBCHEM_CACTVS_HBOND_ACCEPTOR>
7

> <PUBCHEM_CACTVS_HBOND_DONOR>
1

> <PUBCHEM_CACTVS_ROTATABLE_BOND>
8

> <PUBCHEM_CACTVS_SUBSKEYS>
AAADcfB4OAAEAAAAAAAAAAAAAAAAAYAAAAAwYIAAAAAAAGDAAAAAGgIACAAAD1aggAICCAAABgCIAqDSCAIAAAAgAAAICAFAA0gAEBIBAQQCQAAFgAAIAYPIzPDPgAAAAAAAAADIAAZAADIQAYAADAAAAA==

> <PUBCHEM_IUPAC_OPENEYE_NAME>
[2-[(8S,9R,10S,11S,13S,14S,16S,17R)-9-chloro-11-hydroxy-10,13,16-trimethyl-3-oxo-17-propanoyloxy-6,7,8,11,12,14,15,16-octahydrocyclopenta[a]phenanthren-17-yl]-2-oxo-ethyl] propanoate

> <PUBCHEM_IUPAC_CAS_NAME>
propanoic acid [2-[(8S,9R,10S,11S,13S,14S,16S,17R)-9-chloro-11-hydroxy-10,13,16-trimethyl-3-oxo-17-(1-oxopropoxy)-6,7,8,11,12,14,15,16-octahydrocyclopenta[a]phenanthren-17-yl]-2-oxoethyl] ester

> <PUBCHEM_IUPAC_NAME>
[2-[(8S,9R,10S,11S,13S,14S,16S,17R)-9-chloro-11-hydroxy-10,13,16-trimethyl-3-oxo-17-propanoyloxy-6,7,8,11,12,14,15,16-octahydrocyclopenta[a]phenanthren-17-yl]-2-oxoethyl] propanoate

> <PUBCHEM_IUPAC_SYSTEMATIC_NAME>
[2-[(8S,9R,10S,11S,13S,14S,16S,17R)-9-chloranyl-10,13,16-trimethyl-11-oxidanyl-3-oxidanylidene-17-propanoyloxy-6,7,8,11,12,14,15,16-octahydrocyclopenta[a]phenanthren-17-yl]-2-oxidanylidene-ethyl] propanoate

> <PUBCHEM_IUPAC_TRADITIONAL_NAME>
propionic acid [2-[(8S,9R,10S,11S,13S,14S,16S,17R)-9-chloro-11-hydroxy-3-keto-10,13,16-trimethyl-17-propionyloxy-6,7,8,11,12,14,15,16-octahydrocyclopenta[a]phenanthren-17-yl]-2-keto-ethyl] ester

> <PUBCHEM_IUPAC_INCHI>
InChI=1S/C28H37ClO7/c1-6-23(33)35-15-22(32)28(36-24(34)7-2)16(3)12-20-19-9-8-17-13-18(30)10-11-25(17,4)27(19,29)21(31)14-26(20,28)5/h10-11,13,16,19-21,31H,6-9,12,14-15H2,1-5H3/t16-,19-,20-,21-,25-,26-,27-,28-/m0/s1

> <PUBCHEM_IUPAC_INCHIKEY>
KUVIULQEHSCUHY-XYWKZLDCSA-N

> <PUBCHEM_XLOGP3>
3

> <PUBCHEM_EXACT_MASS>
520.222781

> <PUBCHEM_MOLECULAR_FORMULA>
C28H37ClO7

> <PUBCHEM_MOLECULAR_WEIGHT>
521.04218

> <PUBCHEM_OPENEYE_CAN_SMILES>
CCC(=O)OCC(=O)C1(C(CC2C1(CC(C3(C2CCC4=CC(=O)C=CC43C)Cl)O)C)C)OC(=O)CC

> <PUBCHEM_OPENEYE_ISO_SMILES>
CCC(=O)OCC(=O)[C@]1([C@H](C[C@@H]2[C@@]1(C[C@@H]([C@]3([C@H]2CCC4=CC(=O)C=C[C@@]43C)Cl)O)C)C)OC(=O)CC

> <PUBCHEM_CACTVS_TPSA>
107

> <PUBCHEM_MONOISOTOPIC_WEIGHT>
520.222781

> <PUBCHEM_TOTAL_CHARGE>
0

> <PUBCHEM_HEAVY_ATOM_COUNT>
36

> <PUBCHEM_ATOM_DEF_STEREO_COUNT>
8

> <PUBCHEM_ATOM_UDEF_STEREO_COUNT>
0

> <PUBCHEM_BOND_DEF_STEREO_COUNT>
0

> <PUBCHEM_BOND_UDEF_STEREO_COUNT>
0

> <PUBCHEM_ISOTOPIC_ATOM_COUNT>
0

> <PUBCHEM_COMPONENT_COUNT>
1

> <PUBCHEM_CACTVS_TAUTO_COUNT>
6

> <PUBCHEM_COORDINATE_TYPE>
1
5
255

> <PUBCHEM_BONDANNOTATIONS>
12  1  6
10  37  6
11  38  5
16  24  5
18  25  5
13  2  6
17  3  5
9  20  5

$$$$

