   Color/Form
        Yellow plates from petroleum ether
   from [1]HSDB

   Melting Point
        66.5 DEG C
   from [2]HSDB

   Density/Specific Gravity
        1.23
   from [3]HSDB

   Octanol/Water Partition Coefficient
        Log Kow= 3.13
   from [4]HSDB

   Solubilities

     * Slightly soluble in ethanol and chloroform; soluble in benzene
     * Water solubility = 35.10 mg/l @ 25 deg C
     * SOL IN ACETONE, ETHYLENE DICHLORIDE; SOMEWHAT SOL IN GASOLINE; 10%
       IN ETHANOL; 10% IN BENZENE

   from [5]HSDB

   Spectral Properties

     * SADTLER REFERENCE NUMBER: 390 (IR, PRISM); MAX ABSORPTION
       (ALCOHOL): 290 NM (LOG E= 3.88)
     * IR: 21687 (Sadtler Research Laboratories IR Grating Collection)
     * UV: 153 (Sadtler Research Laboratories Spectral Collection)
     * NMR: 10374 (Sadtler Research Laboratories Spectral Collection)
     * MASS: 161 (Aldermaston, Eight Peak Index of Mass Spectra, UK)

   from [6]HSDB

   Computed Properties
   Molecular Weight                  198.2206 [g/mol]
   Molecular Formula                 C[12]H[10]N[2]O
   XLogP3                            3.1
   H-Bond Donor                      0
   H-Bond Acceptor                   3
   Rotatable Bond Count              2
   Exact Mass                        198.079313
   MonoIsotopic Mass                 198.079313
   Topological Polar Surface Area    32.7
   Heavy Atom Count                  15
   Formal Charge                     0
   Complexity                        178
   Isotope Atom Count                0
   Defined Atom Stereocenter Count   0
   Undefined Atom Stereocenter Count 0
   Defined Bond Stereocenter Count   0
   Undefined Bond Stereocenter Count 0
   Covalently-Bonded Unit Count      1
   Feature 3D Ring Count             2
   Effective Rotor Count             3
   Conformer Sampling RMSD           0.6
   CID Conformer Count               [7]6

References

   1. http://toxnet.nlm.nih.gov/cgi-bin/sis/search/r?dbs+hsdb:@term+@rn+@rel+86-30-6
   2. http://toxnet.nlm.nih.gov/cgi-bin/sis/search/r?dbs+hsdb:@term+@rn+@rel+86-30-6
   3. http://toxnet.nlm.nih.gov/cgi-bin/sis/search/r?dbs+hsdb:@term+@rn+@rel+86-30-6
   4. http://toxnet.nlm.nih.gov/cgi-bin/sis/search/r?dbs+hsdb:@term+@rn+@rel+86-30-6
   5. http://toxnet.nlm.nih.gov/cgi-bin/sis/search/r?dbs+hsdb:@term+@rn+@rel+86-30-6
   6. http://toxnet.nlm.nih.gov/cgi-bin/sis/search/r?dbs+hsdb:@term+@rn+@rel+86-30-6
   7. http://pubchem.ncbi.nlm.nih.gov/vw3d/vw3d.cgi?cid=6838
