442855
  -OEChem-07051212592D

 36 37  0     1  0  0  0  0  0999 V2000
    2.5369    0.5000    0.0000 O   0  0  0  0  0  0  0  0  0  0  0  0
    5.1350   -1.0000    0.0000 O   0  0  0  0  0  0  0  0  0  0  0  0
    5.1350    2.0000    0.0000 N   0  0  3  0  0  0  0  0  0  0  0  0
    5.1350    1.0000    0.0000 C   0  0  1  0  0  0  0  0  0  0  0  0
    4.2690    0.5000    0.0000 C   0  0  2  0  0  0  0  0  0  0  0  0
    6.0812    0.6953    0.0000 C   0  0  0  0  0  0  0  0  0  0  0  0
    3.4030    1.0000    0.0000 C   0  0  2  0  0  0  0  0  0  0  0  0
    6.0812    2.3047    0.0000 C   0  0  0  0  0  0  0  0  0  0  0  0
    4.2690    2.5000    0.0000 C   0  0  0  0  0  0  0  0  0  0  0  0
    6.6648    1.5000    0.0000 C   0  0  0  0  0  0  0  0  0  0  0  0
    3.4030    2.0000    0.0000 C   0  0  0  0  0  0  0  0  0  0  0  0
    4.2690   -0.5000    0.0000 C   0  0  0  0  0  0  0  0  0  0  0  0
    3.4030   -1.0000    0.0000 C   0  0  0  0  0  0  0  0  0  0  0  0
    3.4030   -2.0000    0.0000 C   0  0  0  0  0  0  0  0  0  0  0  0
    2.5369   -2.5000    0.0000 C   0  0  0  0  0  0  0  0  0  0  0  0
    5.2250    0.1548    0.0000 H   0  0  0  0  0  0  0  0  0  0  0  0
    4.8059    0.1900    0.0000 H   0  0  0  0  0  0  0  0  0  0  0  0
    5.8302    0.1284    0.0000 H   0  0  0  0  0  0  0  0  0  0  0  0
    6.6186    0.3860    0.0000 H   0  0  0  0  0  0  0  0  0  0  0  0
    3.4030    0.3800    0.0000 H   0  0  0  0  0  0  0  0  0  0  0  0
    6.6186    2.6140    0.0000 H   0  0  0  0  0  0  0  0  0  0  0  0
    5.8302    2.8716    0.0000 H   0  0  0  0  0  0  0  0  0  0  0  0
    4.6675    2.9750    0.0000 H   0  0  0  0  0  0  0  0  0  0  0  0
    3.8705    2.9750    0.0000 H   0  0  0  0  0  0  0  0  0  0  0  0
    7.1257    1.0853    0.0000 H   0  0  0  0  0  0  0  0  0  0  0  0
    7.1257    1.9147    0.0000 H   0  0  0  0  0  0  0  0  0  0  0  0
    3.1909    2.5826    0.0000 H   0  0  0  0  0  0  0  0  0  0  0  0
    2.7924    1.8923    0.0000 H   0  0  0  0  0  0  0  0  0  0  0  0
    3.1909   -0.4174    0.0000 H   0  0  0  0  0  0  0  0  0  0  0  0
    2.7924   -1.1077    0.0000 H   0  0  0  0  0  0  0  0  0  0  0  0
    2.0000    0.8100    0.0000 H   0  0  0  0  0  0  0  0  0  0  0  0
    3.6150   -2.5826    0.0000 H   0  0  0  0  0  0  0  0  0  0  0  0
    4.0135   -1.8923    0.0000 H   0  0  0  0  0  0  0  0  0  0  0  0
    2.2269   -1.9631    0.0000 H   0  0  0  0  0  0  0  0  0  0  0  0
    2.0000   -2.8100    0.0000 H   0  0  0  0  0  0  0  0  0  0  0  0
    2.8469   -3.0369    0.0000 H   0  0  0  0  0  0  0  0  0  0  0  0
  7  1  1  1  0  0  0
  1 31  1  0  0  0  0
  2 12  2  0  0  0  0
  3  4  1  0  0  0  0
  3  8  1  0  0  0  0
  3  9  1  0  0  0  0
  4  5  1  0  0  0  0
  4  6  1  0  0  0  0
  4 16  1  1  0  0  0
  5  7  1  0  0  0  0
  5 12  1  1  0  0  0
  5 17  1  0  0  0  0
  6 10  1  0  0  0  0
  6 18  1  0  0  0  0
  6 19  1  0  0  0  0
  7 11  1  0  0  0  0
  7 20  1  0  0  0  0
  8 10  1  0  0  0  0
  8 21  1  0  0  0  0
  8 22  1  0  0  0  0
  9 11  1  0  0  0  0
  9 23  1  0  0  0  0
  9 24  1  0  0  0  0
 10 25  1  0  0  0  0
 10 26  1  0  0  0  0
 11 27  1  0  0  0  0
 11 28  1  0  0  0  0
 12 13  1  0  0  0  0
 13 14  1  0  0  0  0
 13 29  1  0  0  0  0
 13 30  1  0  0  0  0
 14 15  1  0  0  0  0
 14 32  1  0  0  0  0
 14 33  1  0  0  0  0
 15 34  1  0  0  0  0
 15 35  1  0  0  0  0
 15 36  1  0  0  0  0
M  END
> <PUBCHEM_COMPOUND_CID>
442855

> <PUBCHEM_COMPOUND_CANONICALIZED>
1

> <PUBCHEM_CACTVS_COMPLEXITY>
242

> <PUBCHEM_CACTVS_HBOND_ACCEPTOR>
3

> <PUBCHEM_CACTVS_HBOND_DONOR>
1

> <PUBCHEM_CACTVS_ROTATABLE_BOND>
3

> <PUBCHEM_CACTVS_SUBSKEYS>
AAADceByMAAAAAAAAAAAAAAAAAAAAWAAAAAsAAAAAAAAAFgAAAAAHgAACAAADTzhgAYCAAMAAgAIAIAQAAAAAAAAAAAAAAEIAAAAEB4AgAAEQAAGIACAAAGYyYAOAAAAAAAAAAAAAAAAAAAAAAAAAAAAAA==

> <PUBCHEM_IUPAC_OPENEYE_NAME>
1-[(7S,8R,8aR)-7-hydroxy-1,2,3,5,6,7,8,8a-octahydroindolizin-8-yl]butan-1-one

> <PUBCHEM_IUPAC_CAS_NAME>
1-[(7S,8R,8aR)-7-hydroxy-1,2,3,5,6,7,8,8a-octahydroindolizin-8-yl]-1-butanone

> <PUBCHEM_IUPAC_NAME>
1-[(7S,8R,8aR)-7-hydroxy-1,2,3,5,6,7,8,8a-octahydroindolizin-8-yl]butan-1-one

> <PUBCHEM_IUPAC_SYSTEMATIC_NAME>
1-[(7S,8R,8aR)-7-oxidanyl-1,2,3,5,6,7,8,8a-octahydroindolizin-8-yl]butan-1-one

> <PUBCHEM_IUPAC_TRADITIONAL_NAME>
1-[(7S,8R,8aR)-7-hydroxyindolizidin-8-yl]butan-1-one

> <PUBCHEM_IUPAC_INCHI>
InChI=1S/C12H21NO2/c1-2-4-10(14)12-9-5-3-7-13(9)8-6-11(12)15/h9,11-12,15H,2-8H2,1H3/t9-,11+,12+/m1/s1

> <PUBCHEM_IUPAC_INCHIKEY>
JWTAWEGUCCQPAM-USWWRNFRSA-N

> <PUBCHEM_XLOGP3_AA>
1.4

> <PUBCHEM_EXACT_MASS>
211.157229

> <PUBCHEM_MOLECULAR_FORMULA>
C12H21NO2

> <PUBCHEM_MOLECULAR_WEIGHT>
211.30064

> <PUBCHEM_OPENEYE_CAN_SMILES>
CCCC(=O)C1C2CCCN2CCC1O

> <PUBCHEM_OPENEYE_ISO_SMILES>
CCCC(=O)[C@@H]1[C@H]2CCCN2CC[C@@H]1O

> <PUBCHEM_CACTVS_TPSA>
40.5

> <PUBCHEM_MONOISOTOPIC_WEIGHT>
211.157229

> <PUBCHEM_TOTAL_CHARGE>
0

> <PUBCHEM_HEAVY_ATOM_COUNT>
15

> <PUBCHEM_ATOM_DEF_STEREO_COUNT>
3

> <PUBCHEM_ATOM_UDEF_STEREO_COUNT>
0

> <PUBCHEM_BOND_DEF_STEREO_COUNT>
0

> <PUBCHEM_BOND_UDEF_STEREO_COUNT>
0

> <PUBCHEM_ISOTOPIC_ATOM_COUNT>
0

> <PUBCHEM_COMPONENT_COUNT>
1

> <PUBCHEM_CACTVS_TAUTO_COUNT>
3

> <PUBCHEM_COORDINATE_TYPE>
1
5
255

> <PUBCHEM_BONDANNOTATIONS>
7  1  5
4  16  5
5  12  5

$$$$

