   Color/Form

     * Colorless liquid
     * Clear liquid at ambient temperature
     * Colorless liquid ...

   from [1]HSDB

   Odor

     * CHLOROFORM-LIKE ODOR; SWEETISH
     * Ethereal
     * ... Mild chloroform-like odor.

   from [2]HSDB

   Boiling Point
        74.0 deg C at 760 mm Hg
   from [3]HSDB

   Melting Point
        -30.1 deg C
   from [4]HSDB

   Corrosivity

     * Readily corrodes aluminum and aluminum alloys
     * Dry, uninhibited 1,1,1-trichloroethane is not very corrosive with
       iron or zinc; corrosion rate with iron is < 2.54 micrometers/yr and
       with zinc < 25.4 micrometers/yr. Addition of 7% water increases
       corrosion rates to 254 micrometers/yr for iron and > 254
       micrometers/yr for zinc. The presence of both water and ethanol
       increases iron or tin attack at reflux.
     * Extremely corrosive to aluminum. Dry 1,1,1-trichloroethane
       moderately corrodes iron and zinc.

   from [5]HSDB

   Critical Temperature and Pressure
        Critical temperature = 311.5 deg C; Critical pressure = 4.48 MPa
   from [6]HSDB

   Density/Specific Gravity
        1.3376 at 20 deg C/4 deg C
   from [7]HSDB

   Heat of Combustion
        4700 BTU/LB= 2600 CAL/G= 110X10+5 J/KG
   from [8]HSDB

   Heat of Vaporization
        32.50 kJ/mol at 25 deg C
   from [9]HSDB

   Octanol/Water Partition Coefficient
        log Kow = 2.49
   from [10]HSDB

   Solubilities

     * Soluble in acetone, benzene, methanol, carbon tetrachloride and
       ether
     * Soluble in all common organic solvents.
     * In water, 1,290 mg/L at 25 deg C

   from [11]HSDB

   Spectral Properties

     * Index of refraction: 1.4711 at 20 deg C/D
     * IR: 19461 (Sadtler Research Laboratories Prism Collection)
     * NMR: 9171 (Sadtler Research Laboratories Spectral Collection)
     * MASS: 618 (Atlas of Mass Spectral Data, John Wiley & Sons, New
       York)

   from [12]HSDB

   Surface Tension
        0.02518 N/m at 25 deg C
   from [13]HSDB

   Vapor Density
        4.63 (Air= 1)
   from [14]HSDB

   Vapor Pressure
        124 mm Hg at 25 deg C
   from [15]HSDB

   Relative Evaporation Rate
        12.8 (Butyl acetate= 1)
   from [16]HSDB

   Viscosity
        0.858 cP at 20 deg C
   from [17]HSDB

   Other Chemical/Physical Properties

     * PERCENT IN SATURATED AIR: 16.7 AT 25 DEG C.
     * LATENT HEAT OF VAPORIZATION: 100 BTU
     * Liquid-water interfacial tension: 45 dynes/cm (est)
     * Ratio of specific heats of vapor (gas): 1.104
     * Sat concn in air: 726 g/cu m at 20 deg C; 1,088 g/cu m at 30 deg C
     * Partition coefficients at 37 deg C for 1,1,1-trichloroethane into
       blood= 3.3; into oil= 356. [Sato A, Nakajima T; Scand J Work
       Environ Health 13: 81-93 (1987)] [18]PubMed Abstract
     * Dielectric constant: 7.53 at 20 deg C (liq) /from table/
     * Specific heat at 20 deg C: 1.004 J/g (liq); 0.782 J/g
     * Dipole moment: 1.78 debyes
     * Heat of capacity at 25 deg C: 144.3 J/mol K at 1 atm (liq); 93.3
       J/mol K at 1 atm (gas)
     * Chlorothene VG Solvent: Freezing Point -36.9 deg C; Boiling range
       at 760 mm Hg 72-88 deg C; Density 1.232 g/mL at 20 deg C; Specific
       gravity 1.327 at 20 deg C/20 deg C, 1.333 at 60 deg C/60 deg C,
       1.320 at 25 deg C/25 deg C; Heat of vaporization 7.8 kcal/mol at 20
       deg C, 7.5 kcal/mol at 50 deg C, 7.1 kcal/mol at 80 deg C
       (calculated); Dielectric constant at 24 deg C 10.0 at 10+3 cps, 7.0
       @ 10+5 cps
     * Henry's Law constant = 0.072 atm-cu m/mole at 25 deg C
     * Hydroxyl radical reaction rate constant = 9.43X10-15 cu
       cm/molecule-sec at 25 deg C
     * Ozone depletion potential (ODP) = 0.11

   from [19]HSDB

   Computed Properties
   Molecular Weight                  133.40422 [g/mol]
   Molecular Formula                 C[2]H[3]Cl[3]
   XLogP3-AA                         2.4
   H-Bond Donor                      0
   H-Bond Acceptor                   0
   Rotatable Bond Count              0
   Exact Mass                        131.930033
   MonoIsotopic Mass                 131.930033
   Topological Polar Surface Area    0
   Heavy Atom Count                  5
   Formal Charge                     0
   Complexity                        26.4
   Isotope Atom Count                0
   Defined Atom Stereocenter Count   0
   Undefined Atom Stereocenter Count 0
   Defined Bond Stereocenter Count   0
   Undefined Bond Stereocenter Count 0
   Covalently-Bonded Unit Count      1
   Effective Rotor Count             0
   Conformer Sampling RMSD           0.4
   CID Conformer Count               [20]1

References

   1. http://toxnet.nlm.nih.gov/cgi-bin/sis/search/r?dbs+hsdb:@term+@rn+@rel+71-55-6
   2. http://toxnet.nlm.nih.gov/cgi-bin/sis/search/r?dbs+hsdb:@term+@rn+@rel+71-55-6
   3. http://toxnet.nlm.nih.gov/cgi-bin/sis/search/r?dbs+hsdb:@term+@rn+@rel+71-55-6
   4. http://toxnet.nlm.nih.gov/cgi-bin/sis/search/r?dbs+hsdb:@term+@rn+@rel+71-55-6
   5. http://toxnet.nlm.nih.gov/cgi-bin/sis/search/r?dbs+hsdb:@term+@rn+@rel+71-55-6
   6. http://toxnet.nlm.nih.gov/cgi-bin/sis/search/r?dbs+hsdb:@term+@rn+@rel+71-55-6
   7. http://toxnet.nlm.nih.gov/cgi-bin/sis/search/r?dbs+hsdb:@term+@rn+@rel+71-55-6
   8. http://toxnet.nlm.nih.gov/cgi-bin/sis/search/r?dbs+hsdb:@term+@rn+@rel+71-55-6
   9. http://toxnet.nlm.nih.gov/cgi-bin/sis/search/r?dbs+hsdb:@term+@rn+@rel+71-55-6
  10. http://toxnet.nlm.nih.gov/cgi-bin/sis/search/r?dbs+hsdb:@term+@rn+@rel+71-55-6
  11. http://toxnet.nlm.nih.gov/cgi-bin/sis/search/r?dbs+hsdb:@term+@rn+@rel+71-55-6
  12. http://toxnet.nlm.nih.gov/cgi-bin/sis/search/r?dbs+hsdb:@term+@rn+@rel+71-55-6
  13. http://toxnet.nlm.nih.gov/cgi-bin/sis/search/r?dbs+hsdb:@term+@rn+@rel+71-55-6
  14. http://toxnet.nlm.nih.gov/cgi-bin/sis/search/r?dbs+hsdb:@term+@rn+@rel+71-55-6
  15. http://toxnet.nlm.nih.gov/cgi-bin/sis/search/r?dbs+hsdb:@term+@rn+@rel+71-55-6
  16. http://toxnet.nlm.nih.gov/cgi-bin/sis/search/r?dbs+hsdb:@term+@rn+@rel+71-55-6
  17. http://toxnet.nlm.nih.gov/cgi-bin/sis/search/r?dbs+hsdb:@term+@rn+@rel+71-55-6
  18. http://www.ncbi.nlm.nih.gov/entrez/query.fcgi?cmd=Retrieve&db=pubmed&dopt=Abstract&list_uids=3299685
  19. http://toxnet.nlm.nih.gov/cgi-bin/sis/search/r?dbs+hsdb:@term+@rn+@rel+71-55-6
  20. http://pubchem.ncbi.nlm.nih.gov/vw3d/vw3d.cgi?cid=6278
