5284
  -OEChem-06261200372D

 72 75  0     1  0  0  0  0  0999 V2000
   13.2673    3.9763    0.0000 O   0  0  0  0  0  0  0  0  0  0  0  0
    7.2194    1.4312    0.0000 O   0  0  0  0  0  0  0  0  0  0  0  0
    4.2677   -2.0994    0.0000 O   0  0  0  0  0  0  0  0  0  0  0  0
    2.6213   -1.5614    0.0000 O   0  0  0  0  0  0  0  0  0  0  0  0
   10.6153    2.4312    0.0000 C   0  0  3  0  0  0  0  0  0  0  0  0
    9.7492    1.9312    0.0000 C   0  0  3  0  0  0  0  0  0  0  0  0
   11.4813    1.9312    0.0000 C   0  0  3  0  0  0  0  0  0  0  0  0
    9.7492    0.9312    0.0000 C   0  0  3  0  0  0  0  0  0  0  0  0
   12.3913    2.4381    0.0000 C   0  0  0  0  0  0  0  0  0  0  0  0
   11.4813    0.9312    0.0000 C   0  0  0  0  0  0  0  0  0  0  0  0
   10.6153    0.4312    0.0000 C   0  0  0  0  0  0  0  0  0  0  0  0
   10.5992    3.4727    0.0000 C   0  0  0  0  0  0  0  0  0  0  0  0
    8.8030    2.2360    0.0000 C   0  0  0  0  0  0  0  0  0  0  0  0
    8.8030    0.6265    0.0000 C   0  0  0  0  0  0  0  0  0  0  0  0
    9.7492    2.9312    0.0000 C   0  0  0  0  0  0  0  0  0  0  0  0
   11.4972    4.0005    0.0000 C   0  0  0  0  0  0  0  0  0  0  0  0
    9.7492   -0.0688    0.0000 C   0  0  0  0  0  0  0  0  0  0  0  0
   12.3993    3.4797    0.0000 C   0  0  0  0  0  0  0  0  0  0  0  0
    8.2194    1.4312    0.0000 C   0  0  0  0  0  0  0  0  0  0  0  0
   13.3912    2.4265    0.0000 C   0  0  0  0  0  0  0  0  0  0  0  0
   12.8812    1.5663    0.0000 C   0  0  0  0  0  0  0  0  0  0  0  0
    8.4924   -0.3240    0.0000 C   0  0  0  0  0  0  0  0  0  0  0  0
    9.1602   -1.0683    0.0000 C   0  0  0  0  0  0  0  0  0  0  0  0
    7.5138   -0.5303    0.0000 C   0  0  0  0  0  0  0  0  0  0  0  0
    7.2032   -1.4808    0.0000 C   0  0  0  0  0  0  0  0  0  0  0  0
    6.2247   -1.6870    0.0000 C   0  0  0  0  0  0  0  0  0  0  0  0
    5.9140   -2.6375    0.0000 C   0  0  0  0  0  0  0  0  0  0  0  0
    6.5819   -3.3818    0.0000 C   0  0  0  0  0  0  0  0  0  0  0  0
    4.9355   -2.8437    0.0000 C   0  0  0  0  0  0  0  0  0  0  0  0
    4.6249   -3.7943    0.0000 C   0  0  0  0  0  0  0  0  0  0  0  0
    3.6464   -4.0005    0.0000 C   0  0  0  0  0  0  0  0  0  0  0  0
    3.2892   -2.3056    0.0000 C   0  0  0  0  0  0  0  0  0  0  0  0
    2.9785   -3.2562    0.0000 C   0  0  0  0  0  0  0  0  0  0  0  0
    2.0000   -3.4624    0.0000 C   0  0  0  0  0  0  0  0  0  0  0  0
    9.6593    2.7764    0.0000 H   0  0  0  0  0  0  0  0  0  0  0  0
   12.2141    1.5006    0.0000 H   0  0  0  0  0  0  0  0  0  0  0  0
   11.6933    0.3486    0.0000 H   0  0  0  0  0  0  0  0  0  0  0  0
   12.0919    1.0389    0.0000 H   0  0  0  0  0  0  0  0  0  0  0  0
   10.2167   -0.0437    0.0000 H   0  0  0  0  0  0  0  0  0  0  0  0
   11.0138   -0.0437    0.0000 H   0  0  0  0  0  0  0  0  0  0  0  0
   10.3812    4.0531    0.0000 H   0  0  0  0  0  0  0  0  0  0  0  0
    9.9901    3.3572    0.0000 H   0  0  0  0  0  0  0  0  0  0  0  0
    9.0541    2.8028    0.0000 H   0  0  0  0  0  0  0  0  0  0  0  0
    8.2656    2.5452    0.0000 H   0  0  0  0  0  0  0  0  0  0  0  0
   10.0592    3.4682    0.0000 H   0  0  0  0  0  0  0  0  0  0  0  0
    9.2123    3.2412    0.0000 H   0  0  0  0  0  0  0  0  0  0  0  0
    9.4392    2.3943    0.0000 H   0  0  0  0  0  0  0  0  0  0  0  0
   11.8946    4.4764    0.0000 H   0  0  0  0  0  0  0  0  0  0  0  0
   11.0963    4.4734    0.0000 H   0  0  0  0  0  0  0  0  0  0  0  0
    9.1292   -0.0688    0.0000 H   0  0  0  0  0  0  0  0  0  0  0  0
    9.7492   -0.6888    0.0000 H   0  0  0  0  0  0  0  0  0  0  0  0
   10.3692   -0.0688    0.0000 H   0  0  0  0  0  0  0  0  0  0  0  0
   13.3841    1.8065    0.0000 H   0  0  0  0  0  0  0  0  0  0  0  0
   14.0112    2.4193    0.0000 H   0  0  0  0  0  0  0  0  0  0  0  0
   13.3984    3.0464    0.0000 H   0  0  0  0  0  0  0  0  0  0  0  0
   12.3408    1.2625    0.0000 H   0  0  0  0  0  0  0  0  0  0  0  0
   13.1850    1.0258    0.0000 H   0  0  0  0  0  0  0  0  0  0  0  0
   13.4217    1.8701    0.0000 H   0  0  0  0  0  0  0  0  0  0  0  0
    8.6987   -1.4824    0.0000 H   0  0  0  0  0  0  0  0  0  0  0  0
    9.5743   -1.5298    0.0000 H   0  0  0  0  0  0  0  0  0  0  0  0
    9.6217   -0.6543    0.0000 H   0  0  0  0  0  0  0  0  0  0  0  0
    7.0998   -0.0688    0.0000 H   0  0  0  0  0  0  0  0  0  0  0  0
    7.6172   -1.9422    0.0000 H   0  0  0  0  0  0  0  0  0  0  0  0
    5.8106   -1.2255    0.0000 H   0  0  0  0  0  0  0  0  0  0  0  0
    6.1204   -3.7959    0.0000 H   0  0  0  0  0  0  0  0  0  0  0  0
    6.9959   -3.8433    0.0000 H   0  0  0  0  0  0  0  0  0  0  0  0
    7.0433   -2.9678    0.0000 H   0  0  0  0  0  0  0  0  0  0  0  0
    5.0389   -4.2557    0.0000 H   0  0  0  0  0  0  0  0  0  0  0  0
    3.4537   -4.5898    0.0000 H   0  0  0  0  0  0  0  0  0  0  0  0
    1.8721   -2.8557    0.0000 H   0  0  0  0  0  0  0  0  0  0  0  0
    1.3933   -3.5902    0.0000 H   0  0  0  0  0  0  0  0  0  0  0  0
    2.1279   -4.0691    0.0000 H   0  0  0  0  0  0  0  0  0  0  0  0
  1 18  2  0  0  0  0
  2 19  2  0  0  0  0
  3 29  1  0  0  0  0
  3 32  1  0  0  0  0
  4 32  2  0  0  0  0
  5  6  1  0  0  0  0
  5  7  1  0  0  0  0
  5 12  1  0  0  0  0
  5 15  1  0  0  0  0
  6  8  1  0  0  0  0
  6 13  1  0  0  0  0
  6 35  1  0  0  0  0
  7  9  1  0  0  0  0
  7 10  1  0  0  0  0
  7 36  1  0  0  0  0
  8 11  1  0  0  0  0
  8 14  1  0  0  0  0
  8 17  1  0  0  0  0
  9 18  1  0  0  0  0
  9 20  1  0  0  0  0
  9 21  1  0  0  0  0
 10 11  1  0  0  0  0
 10 37  1  0  0  0  0
 10 38  1  0  0  0  0
 11 39  1  0  0  0  0
 11 40  1  0  0  0  0
 12 16  1  0  0  0  0
 12 41  1  0  0  0  0
 12 42  1  0  0  0  0
 13 19  1  0  0  0  0
 13 43  1  0  0  0  0
 13 44  1  0  0  0  0
 14 19  1  0  0  0  0
 14 22  2  3  0  0  0
 15 45  1  0  0  0  0
 15 46  1  0  0  0  0
 15 47  1  0  0  0  0
 16 18  1  0  0  0  0
 16 48  1  0  0  0  0
 16 49  1  0  0  0  0
 17 50  1  0  0  0  0
 17 51  1  0  0  0  0
 17 52  1  0  0  0  0
 20 53  1  0  0  0  0
 20 54  1  0  0  0  0
 20 55  1  0  0  0  0
 21 56  1  0  0  0  0
 21 57  1  0  0  0  0
 21 58  1  0  0  0  0
 22 23  1  0  0  0  0
 22 24  1  0  0  0  0
 23 59  1  0  0  0  0
 23 60  1  0  0  0  0
 23 61  1  0  0  0  0
 24 25  2  3  0  0  0
 24 62  1  0  0  0  0
 25 26  1  0  0  0  0
 25 63  1  0  0  0  0
 26 27  2  3  0  0  0
 26 64  1  0  0  0  0
 27 28  1  0  0  0  0
 27 29  1  0  0  0  0
 28 65  1  0  0  0  0
 28 66  1  0  0  0  0
 28 67  1  0  0  0  0
 29 30  2  0  0  0  0
 30 31  1  0  0  0  0
 30 68  1  0  0  0  0
 31 33  2  0  0  0  0
 31 69  1  0  0  0  0
 32 33  1  0  0  0  0
 33 34  1  0  0  0  0
 34 70  1  0  0  0  0
 34 71  1  0  0  0  0
 34 72  1  0  0  0  0
M  END
> <PUBCHEM_COMPOUND_CID>
5284

> <PUBCHEM_COMPOUND_CANONICALIZED>
1

> <PUBCHEM_CACTVS_COMPLEXITY>
1110

> <PUBCHEM_CACTVS_HBOND_ACCEPTOR>
4

> <PUBCHEM_CACTVS_HBOND_DONOR>
0

> <PUBCHEM_CACTVS_ROTATABLE_BOND>
3

> <PUBCHEM_CACTVS_SUBSKEYS>
AAADcfB4OAAAAAAAAAAAAAAAAAAAAYAAAAAwYIAAAAAAAGDAAAAAGgAAAAAADwSAgAACCAAABACIAqDSCAAACAAgIAAICAEAAEgIBBIAIQACEAAAgAAIoYMIiMCPgAAAAAAAAACAAAQAACAAAAAACAAAAA==

> <PUBCHEM_IUPAC_OPENEYE_NAME>
3a,6,6,9a-tetramethyl-3-[1-methyl-5-(5-methyl-6-oxo-pyran-2-yl)hexa-2,4-dienylidene]-4,5,5a,8,9,9b-hexahydro-1H-cyclopenta[a]naphthalene-2,7-dione

> <PUBCHEM_IUPAC_CAS_NAME>
3a,6,6,9a-tetramethyl-3-[6-(5-methyl-6-oxo-2-pyranyl)hepta-3,5-dien-2-ylidene]-4,5,5a,8,9,9b-hexahydro-1H-cyclopenta[a]naphthalene-2,7-dione

> <PUBCHEM_IUPAC_NAME>
3a,6,6,9a-tetramethyl-3-[6-(5-methyl-6-oxopyran-2-yl)hepta-3,5-dien-2-ylidene]-4,5,5a,8,9,9b-hexahydro-1H-cyclopenta[a]naphthalene-2,7-dione

> <PUBCHEM_IUPAC_SYSTEMATIC_NAME>
3a,6,6,9a-tetramethyl-3-[6-(5-methyl-6-oxidanylidene-pyran-2-yl)hepta-3,5-dien-2-ylidene]-4,5,5a,8,9,9b-hexahydro-1H-cyclopenta[a]naphthalene-2,7-dione

> <PUBCHEM_IUPAC_TRADITIONAL_NAME>
3-[5-(6-keto-5-methyl-pyran-2-yl)-1-methyl-hexa-2,4-dienylidene]-3a,6,6,9a-tetramethyl-4,5,5a,8,9,9b-hexahydro-1H-benz[e]indene-2,7-quinone

> <PUBCHEM_IUPAC_INCHI>
InChI=1S/C30H38O4/c1-18(22-12-11-20(3)27(33)34-22)9-8-10-19(2)26-21(31)17-24-29(6)16-14-25(32)28(4,5)23(29)13-15-30(24,26)7/h8-12,23-24H,13-17H2,1-7H3

> <PUBCHEM_IUPAC_INCHIKEY>
CXOJYPVZDPNKAI-UHFFFAOYSA-N

> <PUBCHEM_XLOGP3_AA>
7

> <PUBCHEM_EXACT_MASS>
462.27701

> <PUBCHEM_MOLECULAR_FORMULA>
C30H38O4

> <PUBCHEM_MOLECULAR_WEIGHT>
462.62032

> <PUBCHEM_OPENEYE_CAN_SMILES>
CC1=CC=C(OC1=O)C(=CC=CC(=C2C(=O)CC3C2(CCC4C3(CCC(=O)C4(C)C)C)C)C)C

> <PUBCHEM_OPENEYE_ISO_SMILES>
CC1=CC=C(OC1=O)C(=CC=CC(=C2C(=O)CC3C2(CCC4C3(CCC(=O)C4(C)C)C)C)C)C

> <PUBCHEM_CACTVS_TPSA>
60.4

> <PUBCHEM_MONOISOTOPIC_WEIGHT>
462.27701

> <PUBCHEM_TOTAL_CHARGE>
0

> <PUBCHEM_HEAVY_ATOM_COUNT>
34

> <PUBCHEM_ATOM_DEF_STEREO_COUNT>
0

> <PUBCHEM_ATOM_UDEF_STEREO_COUNT>
4

> <PUBCHEM_BOND_DEF_STEREO_COUNT>
0

> <PUBCHEM_BOND_UDEF_STEREO_COUNT>
3

> <PUBCHEM_ISOTOPIC_ATOM_COUNT>
0

> <PUBCHEM_COMPONENT_COUNT>
1

> <PUBCHEM_CACTVS_TAUTO_COUNT>
10

> <PUBCHEM_COORDINATE_TYPE>
1
5
255

> <PUBCHEM_BONDANNOTATIONS>
14  22  1
24  25  1
26  27  1
29  30  8
3  29  8
3  32  8
30  31  8
31  33  8
32  33  8
5  15  3
6  35  3
7  36  3
8  17  3

$$$$

