   Color/Form
        Yellowish, reddish needles from acetic acid
   from [1]HSDB

   Boiling Point
        Sublimes
   from [2]HSDB

   Melting Point
        93 deg C
   from [3]HSDB

   Density/Specific Gravity
        1.2772 at 111 deg C
   from [4]HSDB

   Octanol/Water Partition Coefficient
        log Kow = 2.18 (est)
   from [5]HSDB

   Solubilities

     * Soluble in benzene, ethyl ether, ethanol, chloroform, carbon
       disulfide
     * In water, 145 mg/L at 25 deg C (est)

   from [6]HSDB

   Spectral Properties

     * IR: 3739 (Documentation of Molecular Spectroscopy Collection)
     * UV: 4-106 (Organic Electronic Spectral Data, Phillips et al, John
       Wiley & Sons, New York)
     * MASS: 7684 (NIST/EPA/MSDC Mass Spectral database, 1990 version);
       144 (Aldermaston, Eight Peak Index of Mass Spectra, UK)

   from [7]HSDB

   Vapor Pressure
        4.05X10-4 mm Hg at 25 deg C
   from [8]HSDB

   Other Chemical/Physical Properties

     * Conversion factor: mg/cu m = 7.45 ppm
     * Henry's Law constant = 9.26X10-8 atm-cu m/mol at 25 deg C (est)
     * Hydroxyl radical reaction rate constant = 1.75X10-13 cu
       cm/molec-sec at 25 deg C (est)

   from [9]HSDB

   Computed Properties
   Molecular Weight                  182.13354 [g/mol]
   Molecular Formula                 C[7]H[6]N[2]O[4]
   XLogP3-AA                         1.9
   H-Bond Donor                      0
   H-Bond Acceptor                   4
   Rotatable Bond Count              0
   Exact Mass                        182.032757
   MonoIsotopic Mass                 182.032757
   Topological Polar Surface Area    91.6
   Heavy Atom Count                  13
   Formal Charge                     0
   Complexity                        198
   Isotope Atom Count                0
   Defined Atom Stereocenter Count   0
   Undefined Atom Stereocenter Count 0
   Defined Bond Stereocenter Count   0
   Undefined Bond Stereocenter Count 0
   Covalently-Bonded Unit Count      1
   Feature 3D Acceptor Count         4
   Feature 3D Anion Count            2
   Feature 3D Ring Count             1
   Effective Rotor Count             2
   Conformer Sampling RMSD           0.6
   CID Conformer Count               [10]1

References

   1. http://toxnet.nlm.nih.gov/cgi-bin/sis/search/r?dbs+hsdb:@term+@rn+@rel+618-85-9
   2. http://toxnet.nlm.nih.gov/cgi-bin/sis/search/r?dbs+hsdb:@term+@rn+@rel+618-85-9
   3. http://toxnet.nlm.nih.gov/cgi-bin/sis/search/r?dbs+hsdb:@term+@rn+@rel+618-85-9
   4. http://toxnet.nlm.nih.gov/cgi-bin/sis/search/r?dbs+hsdb:@term+@rn+@rel+618-85-9
   5. http://toxnet.nlm.nih.gov/cgi-bin/sis/search/r?dbs+hsdb:@term+@rn+@rel+618-85-9
   6. http://toxnet.nlm.nih.gov/cgi-bin/sis/search/r?dbs+hsdb:@term+@rn+@rel+618-85-9
   7. http://toxnet.nlm.nih.gov/cgi-bin/sis/search/r?dbs+hsdb:@term+@rn+@rel+618-85-9
   8. http://toxnet.nlm.nih.gov/cgi-bin/sis/search/r?dbs+hsdb:@term+@rn+@rel+618-85-9
   9. http://toxnet.nlm.nih.gov/cgi-bin/sis/search/r?dbs+hsdb:@term+@rn+@rel+618-85-9
  10. http://pubchem.ncbi.nlm.nih.gov/vw3d/vw3d.cgi?cid=12067
