   Color/Form

     * PALE YELLOW LIQUID WHEN PURE
     * Reddish-brown liquid

   from [1]HSDB

   Odor
        MILD PERSISTENT ODOR
   from [2]HSDB

   Boiling Point
        95 DEG C AT 1 MM HG
   from [3]HSDB

   Melting Point
        19.9 deg C
   from [4]HSDB

   Density/Specific Gravity
        1.503 @ 25 deg C
   from [5]HSDB

   Dissociation Constants
        pKa = 2.77
   from [6]HSDB

   Octanol/Water Partition Coefficient
        log Kow = 3.37
   from [7]HSDB

   Solubilities

     * SOL IN ACETONE, ETHER, ETHANOL, XYLENE, CARBON TETRACHLORIDE
     * It is practically insoluble in water but soluble in many organic
       solvents.
     * Miscible with ethanol, methanol, aromatic hydrocarbons,
       acetonitrile, hexane, xylene.
     * In water, 117 mg/l @ 25 deg C

   from [8]HSDB

   Spectral Properties

     * INDEX OF REFRACTION: 1.5341 @ 20 DEG C/D
     * IR ABSORPTION PEAK @ 6.55 U; [UV ABSORPTION (ETHANOL): 288 NM (E=
       229, 1%, 1 CM]

   from [9]HSDB

   Vapor Pressure
        0.011 mm Hg @ 25 deg C
   from [10]HSDB

   Other Chemical/Physical Properties

     * REDDISH BROWN LIQUID /TECHNICAL PRODUCT/
     * Stable to elevated temperatures (up to 165 deg C) and to UV
       radiation. Hydrolyzed by strong acids.
     * Stable for 14 days at 55 deg C. After continuous exposure to
       sunlight for 7 days at 20 deg C, 5.5-7.5% decomposition. Hydrolysis
       half-lives of 12 days (pH 6, 45 deg C) and 103 days (pH 6, 25 deg
       C).

   from [11]HSDB

   Computed Properties
   Molecular Weight                  247.53 [g/mol]
   Molecular Formula                 C[5]H[5]Cl[3]N[2]OS
   XLogP3                            2.5
   H-Bond Donor                      0
   H-Bond Acceptor                   4
   Rotatable Bond Count              2
   Exact Mass                        245.918817
   MonoIsotopic Mass                 245.918817
   Topological Polar Surface Area    63.2
   Heavy Atom Count                  12
   Formal Charge                     0
   Complexity                        154
   Isotope Atom Count                0
   Defined Atom Stereocenter Count   0
   Undefined Atom Stereocenter Count 0
   Defined Bond Stereocenter Count   0
   Undefined Bond Stereocenter Count 0
   Covalently-Bonded Unit Count      1
   Feature 3D Cation Count           1
   Feature 3D Ring Count             1
   Effective Rotor Count             3
   Conformer Sampling RMSD           0.6
   CID Conformer Count               [12]12

References

   1. http://toxnet.nlm.nih.gov/cgi-bin/sis/search/r?dbs+hsdb:@term+@rn+@rel+2593-15-9
   2. http://toxnet.nlm.nih.gov/cgi-bin/sis/search/r?dbs+hsdb:@term+@rn+@rel+2593-15-9
   3. http://toxnet.nlm.nih.gov/cgi-bin/sis/search/r?dbs+hsdb:@term+@rn+@rel+2593-15-9
   4. http://toxnet.nlm.nih.gov/cgi-bin/sis/search/r?dbs+hsdb:@term+@rn+@rel+2593-15-9
   5. http://toxnet.nlm.nih.gov/cgi-bin/sis/search/r?dbs+hsdb:@term+@rn+@rel+2593-15-9
   6. http://toxnet.nlm.nih.gov/cgi-bin/sis/search/r?dbs+hsdb:@term+@rn+@rel+2593-15-9
   7. http://toxnet.nlm.nih.gov/cgi-bin/sis/search/r?dbs+hsdb:@term+@rn+@rel+2593-15-9
   8. http://toxnet.nlm.nih.gov/cgi-bin/sis/search/r?dbs+hsdb:@term+@rn+@rel+2593-15-9
   9. http://toxnet.nlm.nih.gov/cgi-bin/sis/search/r?dbs+hsdb:@term+@rn+@rel+2593-15-9
  10. http://toxnet.nlm.nih.gov/cgi-bin/sis/search/r?dbs+hsdb:@term+@rn+@rel+2593-15-9
  11. http://toxnet.nlm.nih.gov/cgi-bin/sis/search/r?dbs+hsdb:@term+@rn+@rel+2593-15-9
  12. http://pubchem.ncbi.nlm.nih.gov/vw3d/vw3d.cgi?cid=17432
