   Color/Form

     * OIL
     * COLORLESS TO PALE YELLOW LIQ

   from [1]HSDB

   Odor
        FAINT CHARACTERISTIC ODOR
   from [2]HSDB

   Taste
        FAINT CHARACTERISTIC TASTE
   from [3]HSDB

   Boiling Point
        148-150 DEG C @ 20 MM HG
   from [4]HSDB

   Density/Specific Gravity
        1.138-1.144 @ 20 DEG C
   from [5]HSDB

   Solubilities

     * INSOL IN WATER; SOL IN ALC, CHLOROFORM
     * MISCIBLE WITH ACETONE, ETHER

   from [6]HSDB

   Spectral Properties

     * INDEX OF REFRACTION: 1.500-1.505 @ 19.5-20.5 DEG C/D; MAX
       ABSORPTION (DEHYDRATED ETHANOL): 226 NM (A= 910, 1%, 1 CM); 280 NM
       (A= 87, 1%, 1 CM); 288 NM (A= 62, 1%, 1 CM)
     * Intense mass spectral peaks: 128 m/z, 169 m/z, 242 m/z

   from [7]HSDB

   Computed Properties
   Molecular Weight                  242.6987 [g/mol]
   Molecular Formula                 C[12]H[15]ClO[3]
   XLogP3                            3.3
   H-Bond Donor                      0
   H-Bond Acceptor                   3
   Rotatable Bond Count              5
   Exact Mass                        242.070972
   MonoIsotopic Mass                 242.070972
   Topological Polar Surface Area    35.5
   Heavy Atom Count                  16
   Formal Charge                     0
   Complexity                        232
   Isotope Atom Count                0
   Defined Atom Stereocenter Count   0
   Undefined Atom Stereocenter Count 0
   Defined Bond Stereocenter Count   0
   Undefined Bond Stereocenter Count 0
   Covalently-Bonded Unit Count      1
   Feature 3D Acceptor Count         2
   Feature 3D Hydrophobe Count       1
   Feature 3D Ring Count             1
   Effective Rotor Count             5
   Conformer Sampling RMSD           0.6
   CID Conformer Count               [8]84

References

   1. http://toxnet.nlm.nih.gov/cgi-bin/sis/search/r?dbs+hsdb:@term+@rn+@rel+637-07-0
   2. http://toxnet.nlm.nih.gov/cgi-bin/sis/search/r?dbs+hsdb:@term+@rn+@rel+637-07-0
   3. http://toxnet.nlm.nih.gov/cgi-bin/sis/search/r?dbs+hsdb:@term+@rn+@rel+637-07-0
   4. http://toxnet.nlm.nih.gov/cgi-bin/sis/search/r?dbs+hsdb:@term+@rn+@rel+637-07-0
   5. http://toxnet.nlm.nih.gov/cgi-bin/sis/search/r?dbs+hsdb:@term+@rn+@rel+637-07-0
   6. http://toxnet.nlm.nih.gov/cgi-bin/sis/search/r?dbs+hsdb:@term+@rn+@rel+637-07-0
   7. http://toxnet.nlm.nih.gov/cgi-bin/sis/search/r?dbs+hsdb:@term+@rn+@rel+637-07-0
   8. http://pubchem.ncbi.nlm.nih.gov/vw3d/vw3d.cgi?cid=2796
