11953909
  -OEChem-07051212552D

 86 90  0     1  0  0  0  0  0999 V2000
    5.1350   -0.2266    0.0000 O   0  0  0  0  0  0  0  0  0  0  0  0
    4.2690    1.2734    0.0000 O   0  0  0  0  0  0  0  0  0  0  0  0
    2.5369   -1.7266    0.0000 O   0  0  0  0  0  0  0  0  0  0  0  0
    4.2690   -2.7266    0.0000 O   0  0  0  0  0  0  0  0  0  0  0  0
    2.5369    0.2734    0.0000 O   0  0  0  0  0  0  0  0  0  0  0  0
    6.0010   -2.7266    0.0000 O   0  0  0  0  0  0  0  0  0  0  0  0
    4.2690    3.2734    0.0000 O   0  0  0  0  0  0  0  0  0  0  0  0
    9.8969    1.4074    0.0000 O   0  5  0  0  0  0  0  0  0  0  0  0
    9.8969    3.1395    0.0000 O   0  0  0  0  0  0  0  0  0  0  0  0
    7.7331   -2.7266    0.0000 O   0  0  0  0  0  0  0  0  0  0  0  0
    8.6988    8.5751    0.0000 O   0  0  0  0  0  0  0  0  0  0  0  0
    7.4096    7.4184    0.0000 O   0  0  0  0  0  0  0  0  0  0  0  0
   12.3486    5.8041    0.0000 O   0  0  0  0  0  0  0  0  0  0  0  0
   11.9914    7.4989    0.0000 O   0  0  0  0  0  0  0  0  0  0  0  0
    6.0010   -7.7266    0.0000 O   0  0  0  0  0  0  0  0  0  0  0  0
    7.7331   -8.7266    0.0000 O   0  0  0  0  0  0  0  0  0  0  0  0
    7.8133    3.0782    0.0000 N   0  3  0  0  0  0  0  0  0  0  0  0
   10.0344    7.0865    0.0000 N   0  0  0  0  0  0  0  0  0  0  0  0
    3.4030   -1.2266    0.0000 C   0  0  1  0  0  0  0  0  0  0  0  0
    4.2690   -1.7266    0.0000 C   0  0  1  0  0  0  0  0  0  0  0  0
    3.4030   -0.2266    0.0000 C   0  0  2  0  0  0  0  0  0  0  0  0
    5.1350   -1.2266    0.0000 C   0  0  1  0  0  0  0  0  0  0  0  0
    4.2690    0.2734    0.0000 C   0  0  1  0  0  0  0  0  0  0  0  0
    6.0010   -1.7266    0.0000 C   0  0  0  0  0  0  0  0  0  0  0  0
    8.3969    2.2734    0.0000 C   0  0  1  0  0  0  0  0  0  0  0  0
    7.8133    1.4687    0.0000 C   0  0  0  0  0  0  0  0  0  0  0  0
    6.8671    1.7734    0.0000 C   0  0  0  0  0  0  0  0  0  0  0  0
    6.8671    2.7734    0.0000 C   0  0  0  0  0  0  0  0  0  0  0  0
    5.1350    1.7734    0.0000 C   0  0  0  0  0  0  0  0  0  0  0  0
    6.0010    1.2734    0.0000 C   0  0  0  0  0  0  0  0  0  0  0  0
    6.0010    3.2734    0.0000 C   0  0  0  0  0  0  0  0  0  0  0  0
    5.1350    2.7734    0.0000 C   0  0  0  0  0  0  0  0  0  0  0  0
    8.1240    4.0287    0.0000 C   0  0  0  0  0  0  0  0  0  0  0  0
    9.3969    2.2734    0.0000 C   0  0  0  0  0  0  0  0  0  0  0  0
    9.1024    4.2349    0.0000 C   0  0  0  0  0  0  0  0  0  0  0  0
    9.4131    5.1854    0.0000 C   0  0  0  0  0  0  0  0  0  0  0  0
    8.7453    5.9297    0.0000 C   0  0  0  0  0  0  0  0  0  0  0  0
    9.0559    6.8803    0.0000 C   0  0  1  0  0  0  0  0  0  0  0  0
    6.8671   -3.2266    0.0000 C   0  0  0  0  0  0  0  0  0  0  0  0
   10.3916    5.3917    0.0000 C   0  0  0  0  0  0  0  0  0  0  0  0
   10.7023    6.3422    0.0000 C   0  0  0  0  0  0  0  0  0  0  0  0
    8.3881    7.6246    0.0000 C   0  0  0  0  0  0  0  0  0  0  0  0
    6.8671   -4.2265    0.0000 C   0  0  0  0  0  0  0  0  0  0  0  0
   11.6808    6.5484    0.0000 C   0  0  0  0  0  0  0  0  0  0  0  0
    7.7331   -4.7265    0.0000 C   0  0  0  0  0  0  0  0  0  0  0  0
    7.7331   -5.7265    0.0000 C   0  0  0  0  0  0  0  0  0  0  0  0
    6.8671   -6.2265    0.0000 C   0  0  0  0  0  0  0  0  0  0  0  0
    8.5991   -6.2265    0.0000 C   0  0  0  0  0  0  0  0  0  0  0  0
    6.8671   -7.2266    0.0000 C   0  0  0  0  0  0  0  0  0  0  0  0
    8.5991   -7.2266    0.0000 C   0  0  0  0  0  0  0  0  0  0  0  0
    7.7331   -7.7266    0.0000 C   0  0  0  0  0  0  0  0  0  0  0  0
    6.0010   -8.7266    0.0000 C   0  0  0  0  0  0  0  0  0  0  0  0
    3.4030   -1.8466    0.0000 H   0  0  0  0  0  0  0  0  0  0  0  0
    4.8059   -2.0366    0.0000 H   0  0  0  0  0  0  0  0  0  0  0  0
    3.4030    0.3934    0.0000 H   0  0  0  0  0  0  0  0  0  0  0  0
    5.6720   -0.9166    0.0000 H   0  0  0  0  0  0  0  0  0  0  0  0
    3.7320    0.5834    0.0000 H   0  0  0  0  0  0  0  0  0  0  0  0
    6.6116   -1.8342    0.0000 H   0  0  0  0  0  0  0  0  0  0  0  0
    6.2131   -1.1439    0.0000 H   0  0  0  0  0  0  0  0  0  0  0  0
    8.6786    2.8258    0.0000 H   0  0  0  0  0  0  0  0  0  0  0  0
    7.5622    0.9018    0.0000 H   0  0  0  0  0  0  0  0  0  0  0  0
    8.3507    1.1595    0.0000 H   0  0  0  0  0  0  0  0  0  0  0  0
    6.0010    0.6534    0.0000 H   0  0  0  0  0  0  0  0  0  0  0  0
    2.5369   -2.3466    0.0000 H   0  0  0  0  0  0  0  0  0  0  0  0
    3.7320   -3.0366    0.0000 H   0  0  0  0  0  0  0  0  0  0  0  0
    2.0000   -0.0366    0.0000 H   0  0  0  0  0  0  0  0  0  0  0  0
    6.0010    3.8934    0.0000 H   0  0  0  0  0  0  0  0  0  0  0  0
    7.7099    4.4902    0.0000 H   0  0  0  0  0  0  0  0  0  0  0  0
    9.5165    3.7734    0.0000 H   0  0  0  0  0  0  0  0  0  0  0  0
    8.1984    6.2218    0.0000 H   0  0  0  0  0  0  0  0  0  0  0  0
    8.3627    5.4418    0.0000 H   0  0  0  0  0  0  0  0  0  0  0  0
    9.2485    7.4696    0.0000 H   0  0  0  0  0  0  0  0  0  0  0  0
    4.2690    3.8934    0.0000 H   0  0  0  0  0  0  0  0  0  0  0  0
   10.8057    4.9302    0.0000 H   0  0  0  0  0  0  0  0  0  0  0  0
   10.2270    7.6758    0.0000 H   0  0  0  0  0  0  0  0  0  0  0  0
    6.3301   -4.5366    0.0000 H   0  0  0  0  0  0  0  0  0  0  0  0
    8.2700   -4.4166    0.0000 H   0  0  0  0  0  0  0  0  0  0  0  0
    8.2847    9.0366    0.0000 H   0  0  0  0  0  0  0  0  0  0  0  0
   12.9553    5.9319    0.0000 H   0  0  0  0  0  0  0  0  0  0  0  0
    6.3301   -5.9166    0.0000 H   0  0  0  0  0  0  0  0  0  0  0  0
    9.1360   -5.9166    0.0000 H   0  0  0  0  0  0  0  0  0  0  0  0
    9.1360   -7.5366    0.0000 H   0  0  0  0  0  0  0  0  0  0  0  0
    8.2700   -9.0366    0.0000 H   0  0  0  0  0  0  0  0  0  0  0  0
    5.3810   -8.7266    0.0000 H   0  0  0  0  0  0  0  0  0  0  0  0
    6.0010   -9.3466    0.0000 H   0  0  0  0  0  0  0  0  0  0  0  0
    6.6210   -8.7266    0.0000 H   0  0  0  0  0  0  0  0  0  0  0  0
  1 22  1  0  0  0  0
  1 23  1  0  0  0  0
 23  2  1  6  0  0  0
  2 29  1  0  0  0  0
 19  3  1  6  0  0  0
  3 64  1  0  0  0  0
 20  4  1  1  0  0  0
  4 65  1  0  0  0  0
 21  5  1  1  0  0  0
  5 66  1  0  0  0  0
  6 24  1  0  0  0  0
  6 39  1  0  0  0  0
  7 32  1  0  0  0  0
  7 73  1  0  0  0  0
  8 34  1  0  0  0  0
  9 34  2  0  0  0  0
 10 39  2  0  0  0  0
 11 42  1  0  0  0  0
 11 78  1  0  0  0  0
 12 42  2  0  0  0  0
 13 44  1  0  0  0  0
 13 79  1  0  0  0  0
 14 44  2  0  0  0  0
 15 49  1  0  0  0  0
 15 52  1  0  0  0  0
 16 51  1  0  0  0  0
 16 83  1  0  0  0  0
 17 25  1  0  0  0  0
 17 28  1  0  0  0  0
 17 33  2  0  0  0  0
 18 38  1  0  0  0  0
 18 41  1  0  0  0  0
 18 75  1  0  0  0  0
 19 20  1  0  0  0  0
 19 21  1  0  0  0  0
 19 53  1  0  0  0  0
 20 22  1  0  0  0  0
 20 54  1  0  0  0  0
 21 23  1  0  0  0  0
 21 55  1  0  0  0  0
 22 24  1  6  0  0  0
 22 56  1  0  0  0  0
 23 57  1  0  0  0  0
 24 58  1  0  0  0  0
 24 59  1  0  0  0  0
 25 26  1  0  0  0  0
 25 34  1  6  0  0  0
 25 60  1  0  0  0  0
 26 27  1  0  0  0  0
 26 61  1  0  0  0  0
 26 62  1  0  0  0  0
 27 28  1  0  0  0  0
 27 30  2  0  0  0  0
 28 31  2  0  0  0  0
 29 30  1  0  0  0  0
 29 32  2  0  0  0  0
 30 63  1  0  0  0  0
 31 32  1  0  0  0  0
 31 67  1  0  0  0  0
 33 35  1  0  0  0  0
 33 68  1  0  0  0  0
 35 36  2  0  0  0  0
 35 69  1  0  0  0  0
 36 37  1  0  0  0  0
 36 40  1  0  0  0  0
 37 38  1  0  0  0  0
 37 70  1  0  0  0  0
 37 71  1  0  0  0  0
 38 42  1  1  0  0  0
 38 72  1  0  0  0  0
 39 43  1  0  0  0  0
 40 41  2  0  0  0  0
 40 74  1  0  0  0  0
 41 44  1  0  0  0  0
 43 45  2  0  0  0  0
 43 76  1  0  0  0  0
 45 46  1  0  0  0  0
 45 77  1  0  0  0  0
 46 47  2  0  0  0  0
 46 48  1  0  0  0  0
 47 49  1  0  0  0  0
 47 80  1  0  0  0  0
 48 50  2  0  0  0  0
 48 81  1  0  0  0  0
 49 51  2  0  0  0  0
 50 51  1  0  0  0  0
 50 82  1  0  0  0  0
 52 84  1  0  0  0  0
 52 85  1  0  0  0  0
 52 86  1  0  0  0  0
M  CHG  2   8  -1  17   1
M  END
> <PUBCHEM_COMPOUND_CID>
11953909

> <PUBCHEM_COMPOUND_CANONICALIZED>
1

> <PUBCHEM_CACTVS_COMPLEXITY>
1470

> <PUBCHEM_CACTVS_HBOND_ACCEPTOR>
17

> <PUBCHEM_CACTVS_HBOND_DONOR>
8

> <PUBCHEM_CACTVS_ROTATABLE_BOND>
11

> <PUBCHEM_CACTVS_SUBSKEYS>
AAADcfB/PgAAAAAAAAAAAAAAAAAAAWAAAAA0YIEAAAAAAFgBQAAAHgAQCAAADDzxmAcyzoPABgCoAjTzTACCCAAhIgAIiIGe7NgfNjLGsbumeCvn0Bnf+Yf4+b+eIEABAgACQABAgAIEAASAAAAAAAAAAA==

> <PUBCHEM_IUPAC_OPENEYE_NAME>
(2S)-1-[(2E)-2-[(2S)-2,6-dicarboxy-2,3-dihydro-1H-pyridin-4-ylidene]ethylidene]-6-hydroxy-5-[(2S,3R,4S,5S,6R)-3,4,5-trihydroxy-6-[[(E)-3-(4-hydroxy-3-methoxy-phenyl)prop-2-enoyl]oxymethyl]tetrahydropyran-2-yl]oxy-indolin-1-ium-2-carboxylate

> <PUBCHEM_IUPAC_CAS_NAME>
(2S)-1-[(2E)-2-[(2S)-2,6-dicarboxy-2,3-dihydro-1H-pyridin-4-ylidene]ethylidene]-6-hydroxy-5-[[(2S,3R,4S,5S,6R)-3,4,5-trihydroxy-6-[[(E)-3-(4-hydroxy-3-methoxyphenyl)-1-oxoprop-2-enoxy]methyl]-2-oxanyl]oxy]-2,3-dihydroindol-1-ium-2-carboxylate

> <PUBCHEM_IUPAC_NAME>
(2S)-1-[(2E)-2-[(2S)-2,6-dicarboxy-2,3-dihydro-1H-pyridin-4-ylidene]ethylidene]-6-hydroxy-5-[(2S,3R,4S,5S,6R)-3,4,5-trihydroxy-6-[[(E)-3-(4-hydroxy-3-methoxyphenyl)prop-2-enoyl]oxymethyl]oxan-2-yl]oxy-2,3-dihydroindol-1-ium-2-carboxylate

> <PUBCHEM_IUPAC_SYSTEMATIC_NAME>
(2S)-1-[(2E)-2-[(2S)-2,6-dicarboxy-2,3-dihydro-1H-pyridin-4-ylidene]ethylidene]-5-[(2S,3R,4S,5S,6R)-6-[[(E)-3-(3-methoxy-4-oxidanyl-phenyl)prop-2-enoyl]oxymethyl]-3,4,5-tris(oxidanyl)oxan-2-yl]oxy-6-oxidanyl-2,3-dihydroindol-1-ium-2-carboxylate

> <PUBCHEM_IUPAC_TRADITIONAL_NAME>
(2S)-1-[(2E)-2-[(2S)-2,6-dicarboxy-2,3-dihydro-1H-pyridin-4-ylidene]ethylidene]-6-hydroxy-5-[(2S,3R,4S,5S,6R)-3,4,5-trihydroxy-6-[[(E)-3-(4-hydroxy-3-methoxy-phenyl)acryloyl]oxymethyl]tetrahydropyran-2-yl]oxy-indolin-1-ium-2-carboxylate

> <PUBCHEM_IUPAC_INCHI>
InChI=1S/C34H34N2O16/c1-49-24-10-15(2-4-22(24)37)3-5-27(39)50-14-26-28(40)29(41)30(42)34(52-26)51-25-12-17-11-21(33(47)48)36(20(17)13-23(25)38)7-6-16-8-18(31(43)44)35-19(9-16)32(45)46/h2-8,10,12-13,19,21,26,28-30,34,40-42H,9,11,14H2,1H3,(H5,37,38,39,43,44,45,46,47,48)/t19-,21-,26+,28+,29-,30+,34+/m0/s1

> <PUBCHEM_IUPAC_INCHIKEY>
BRMDRKOAVZEJCS-WPUGSIMNSA-N

> <PUBCHEM_XLOGP3_AA>
0.9

> <PUBCHEM_EXACT_MASS>
726.190833

> <PUBCHEM_MOLECULAR_FORMULA>
C34H34N2O16

> <PUBCHEM_MOLECULAR_WEIGHT>
726.63756

> <PUBCHEM_OPENEYE_CAN_SMILES>
COC1=C(C=CC(=C1)C=CC(=O)OCC2C(C(C(C(O2)OC3=C(C=C4C(=C3)CC([N+]4=CC=C5CC(NC(=C5)C(=O)O)C(=O)O)C(=O)[O-])O)O)O)O)O

> <PUBCHEM_OPENEYE_ISO_SMILES>
COC1=C(C=CC(=C1)/C=C/C(=O)OC[C@@H]2[C@H]([C@@H]([C@H]([C@@H](O2)OC3=C(C=C4C(=C3)C[C@H]([N+]4=C/C=C/5\C[C@H](NC(=C5)C(=O)O)C(=O)O)C(=O)[O-])O)O)O)O)O

> <PUBCHEM_CACTVS_TPSA>
285

> <PUBCHEM_MONOISOTOPIC_WEIGHT>
726.190833

> <PUBCHEM_TOTAL_CHARGE>
0

> <PUBCHEM_HEAVY_ATOM_COUNT>
52

> <PUBCHEM_ATOM_DEF_STEREO_COUNT>
7

> <PUBCHEM_ATOM_UDEF_STEREO_COUNT>
0

> <PUBCHEM_BOND_DEF_STEREO_COUNT>
2

> <PUBCHEM_BOND_UDEF_STEREO_COUNT>
0

> <PUBCHEM_ISOTOPIC_ATOM_COUNT>
0

> <PUBCHEM_COMPONENT_COUNT>
1

> <PUBCHEM_CACTVS_TAUTO_COUNT>
13

> <PUBCHEM_COORDINATE_TYPE>
1
5
255

> <PUBCHEM_BONDANNOTATIONS>
23  2  6
22  24  6
25  34  6
27  28  8
27  30  8
28  31  8
29  30  8
29  32  8
19  3  6
31  32  8
38  42  5
20  4  5
46  47  8
46  48  8
47  49  8
48  50  8
49  51  8
21  5  5
50  51  8

$$$$

