443405
  -OEChem-07051213022D

 51 54  0     1  0  0  0  0  0999 V2000
    9.1988   -3.6984    0.0000 O   0  0  0  0  0  0  0  0  0  0  0  0
    4.9354    0.7100    0.0000 N   0  0  3  0  0  0  0  0  0  0  0  0
    7.0589    0.1918    0.0000 C   0  0  1  0  0  0  0  0  0  0  0  0
    7.5367    2.1403    0.0000 C   0  0  2  0  0  0  0  0  0  0  0  0
    6.8001    1.1577    0.0000 C   0  0  1  0  0  0  0  0  0  0  0  0
    5.3542   -0.8529    0.0000 C   0  0  0  0  0  0  0  0  0  0  0  0
    9.4031    0.3499    0.0000 C   0  0  0  0  0  0  0  0  0  0  0  0
    8.5941   -1.0514    0.0000 C   0  0  0  0  0  0  0  0  0  0  0  0
    4.5771   -0.2236    0.0000 C   0  0  0  0  0  0  0  0  0  0  0  0
    9.5076   -0.6446    0.0000 C   0  0  0  0  0  0  0  0  0  0  0  0
    7.3178   -0.7742    0.0000 C   0  0  0  0  0  0  0  0  0  0  0  0
    8.0367    3.0063    0.0000 C   0  0  0  0  0  0  0  0  0  0  0  0
    4.3908    1.5487    0.0000 C   0  0  0  0  0  0  0  0  0  0  0  0
    8.4692   -2.0855    0.0000 C   0  0  0  0  0  0  0  0  0  0  0  0
   10.3597   -1.2438    0.0000 C   0  0  0  0  0  0  0  0  0  0  0  0
    3.3922    1.4964    0.0000 C   0  0  0  0  0  0  0  0  0  0  0  0
    9.3072   -2.7042    0.0000 C   0  0  0  0  0  0  0  0  0  0  0  0
   10.2588   -2.2806    0.0000 C   0  0  0  0  0  0  0  0  0  0  0  0
    2.8476    2.3350    0.0000 C   0  0  0  0  0  0  0  0  0  0  0  0
    1.8489    2.2827    0.0000 C   0  0  0  0  0  0  0  0  0  0  0  0
    3.3015    3.2260    0.0000 C   0  0  0  0  0  0  0  0  0  0  0  0
    1.3043    3.1214    0.0000 C   0  0  0  0  0  0  0  0  0  0  0  0
    2.7569    4.0647    0.0000 C   0  0  0  0  0  0  0  0  0  0  0  0
    1.7583    4.0124    0.0000 C   0  0  0  0  0  0  0  0  0  0  0  0
    7.0193    2.4819    0.0000 H   0  0  0  0  0  0  0  0  0  0  0  0
    6.5801    1.9787    0.0000 H   0  0  0  0  0  0  0  0  0  0  0  0
    5.7359   -1.3414    0.0000 H   0  0  0  0  0  0  0  0  0  0  0  0
    4.9120   -1.2874    0.0000 H   0  0  0  0  0  0  0  0  0  0  0  0
    9.5054    0.9614    0.0000 H   0  0  0  0  0  0  0  0  0  0  0  0
   10.0228    0.3310    0.0000 H   0  0  0  0  0  0  0  0  0  0  0  0
    4.2394   -0.7435    0.0000 H   0  0  0  0  0  0  0  0  0  0  0  0
    4.0247    0.0579    0.0000 H   0  0  0  0  0  0  0  0  0  0  0  0
    7.9166   -0.6137    0.0000 H   0  0  0  0  0  0  0  0  0  0  0  0
    7.4782   -1.3730    0.0000 H   0  0  0  0  0  0  0  0  0  0  0  0
    6.7189   -0.9346    0.0000 H   0  0  0  0  0  0  0  0  0  0  0  0
    7.4998    3.3163    0.0000 H   0  0  0  0  0  0  0  0  0  0  0  0
    8.3467    3.5433    0.0000 H   0  0  0  0  0  0  0  0  0  0  0  0
    8.5737    2.6963    0.0000 H   0  0  0  0  0  0  0  0  0  0  0  0
    4.2514    2.1528    0.0000 H   0  0  0  0  0  0  0  0  0  0  0  0
    4.9615    1.7910    0.0000 H   0  0  0  0  0  0  0  0  0  0  0  0
    7.9000   -2.3311    0.0000 H   0  0  0  0  0  0  0  0  0  0  0  0
   10.9231   -0.9851    0.0000 H   0  0  0  0  0  0  0  0  0  0  0  0
    3.5316    0.8922    0.0000 H   0  0  0  0  0  0  0  0  0  0  0  0
    2.8215    1.2541    0.0000 H   0  0  0  0  0  0  0  0  0  0  0  0
   10.7618   -2.6431    0.0000 H   0  0  0  0  0  0  0  0  0  0  0  0
    9.6990   -4.0647    0.0000 H   0  0  0  0  0  0  0  0  0  0  0  0
    1.5674    1.7303    0.0000 H   0  0  0  0  0  0  0  0  0  0  0  0
    3.9207    3.2585    0.0000 H   0  0  0  0  0  0  0  0  0  0  0  0
    0.6851    3.0889    0.0000 H   0  0  0  0  0  0  0  0  0  0  0  0
    3.0384    4.6171    0.0000 H   0  0  0  0  0  0  0  0  0  0  0  0
    1.4206    4.5324    0.0000 H   0  0  0  0  0  0  0  0  0  0  0  0
  1 17  1  0  0  0  0
  1 46  1  0  0  0  0
  2  5  1  0  0  0  0
  2  9  1  0  0  0  0
  2 13  1  0  0  0  0
  3  4  1  0  0  0  0
  3  6  1  0  0  0  0
  3  8  1  0  0  0  0
  3 11  1  1  0  0  0
  4  5  1  0  0  0  0
  4 12  1  6  0  0  0
  4 25  1  0  0  0  0
  5  7  1  0  0  0  0
  5 26  1  6  0  0  0
  6  9  1  0  0  0  0
  6 27  1  0  0  0  0
  6 28  1  0  0  0  0
  7 10  1  0  0  0  0
  7 29  1  0  0  0  0
  7 30  1  0  0  0  0
  8 10  2  0  0  0  0
  8 14  1  0  0  0  0
  9 31  1  0  0  0  0
  9 32  1  0  0  0  0
 10 15  1  0  0  0  0
 11 33  1  0  0  0  0
 11 34  1  0  0  0  0
 11 35  1  0  0  0  0
 12 36  1  0  0  0  0
 12 37  1  0  0  0  0
 12 38  1  0  0  0  0
 13 16  1  0  0  0  0
 13 39  1  0  0  0  0
 13 40  1  0  0  0  0
 14 17  2  0  0  0  0
 14 41  1  0  0  0  0
 15 18  2  0  0  0  0
 15 42  1  0  0  0  0
 16 19  1  0  0  0  0
 16 43  1  0  0  0  0
 16 44  1  0  0  0  0
 17 18  1  0  0  0  0
 18 45  1  0  0  0  0
 19 20  2  0  0  0  0
 19 21  1  0  0  0  0
 20 22  1  0  0  0  0
 20 47  1  0  0  0  0
 21 23  2  0  0  0  0
 21 48  1  0  0  0  0
 22 24  2  0  0  0  0
 22 49  1  0  0  0  0
 23 24  1  0  0  0  0
 23 50  1  0  0  0  0
 24 51  1  0  0  0  0
M  END
> <PUBCHEM_COMPOUND_CID>
443405

> <PUBCHEM_COMPOUND_CANONICALIZED>
1

> <PUBCHEM_CACTVS_COMPLEXITY>
432

> <PUBCHEM_CACTVS_HBOND_ACCEPTOR>
2

> <PUBCHEM_CACTVS_HBOND_DONOR>
1

> <PUBCHEM_CACTVS_ROTATABLE_BOND>
3

> <PUBCHEM_CACTVS_SUBSKEYS>
AAADceB6IAAAAAAAAAAAAAAAAAAAAAAAAAA8YMEAAAAWAADBQAAAHgAACAAADyzBmAQyBoMAAgCAAiBCAAACAAAgIAAIiAAOCIgIJiKCkROEcAAkwBGImAeQwPAPoAABAAAQAADQAAaAACQAAAAAAAAAAA==

> <PUBCHEM_IUPAC_INCHI>
InChI=1S/C22H27NO/c1-16-21-14-18-8-9-19(24)15-20(18)22(16,2)11-13-23(21)12-10-17-6-4-3-5-7-17/h3-9,15-16,21,24H,10-14H2,1-2H3/t16-,21+,22+/m0/s1

> <PUBCHEM_IUPAC_INCHIKEY>
ZQHYKVKNPWDQSL-KNXBSLHKSA-N

> <PUBCHEM_XLOGP3>
3.8

> <PUBCHEM_EXACT_MASS>
321.209264

> <PUBCHEM_MOLECULAR_FORMULA>
C22H27NO

> <PUBCHEM_MOLECULAR_WEIGHT>
321.45588

> <PUBCHEM_OPENEYE_CAN_SMILES>
CC1C2CC3=C(C1(CCN2CCC4=CC=CC=C4)C)C=C(C=C3)O

> <PUBCHEM_OPENEYE_ISO_SMILES>
C[C@H]1[C@H]2CC3=C([C@@]1(CCN2CCC4=CC=CC=C4)C)C=C(C=C3)O

> <PUBCHEM_CACTVS_TPSA>
23.5

> <PUBCHEM_MONOISOTOPIC_WEIGHT>
321.209264

> <PUBCHEM_TOTAL_CHARGE>
0

> <PUBCHEM_HEAVY_ATOM_COUNT>
24

> <PUBCHEM_ATOM_DEF_STEREO_COUNT>
3

> <PUBCHEM_ATOM_UDEF_STEREO_COUNT>
0

> <PUBCHEM_BOND_DEF_STEREO_COUNT>
0

> <PUBCHEM_BOND_UDEF_STEREO_COUNT>
0

> <PUBCHEM_ISOTOPIC_ATOM_COUNT>
0

> <PUBCHEM_COMPONENT_COUNT>
1

> <PUBCHEM_CACTVS_TAUTO_COUNT>
3

> <PUBCHEM_COORDINATE_TYPE>
1
5
255

> <PUBCHEM_BONDANNOTATIONS>
10  15  8
14  17  8
15  18  8
17  18  8
19  20  8
19  21  8
20  22  8
21  23  8
22  24  8
23  24  8
3  11  5
4  12  6
5  26  6
8  10  8
8  14  8

$$$$

