5282051
  -OEChem-07051213022D

 53 59  0     1  0  0  0  0  0999 V2000
    2.6058    1.3710    0.0000 O   0  0  0  0  0  0  0  0  0  0  0  0
    5.2044    0.8710    0.0000 O   0  0  0  0  0  0  0  0  0  0  0  0
    3.5294   -0.2168    0.0000 O   0  0  0  0  0  0  0  0  0  0  0  0
    6.0984    0.0922    0.0000 O   0  0  0  0  0  0  0  0  0  0  0  0
    6.9746    1.8679    0.0000 O   0  0  0  0  0  0  0  0  0  0  0  0
    6.3730   -2.0502    0.0000 O   0  0  0  0  0  0  0  0  0  0  0  0
    2.3038   -2.0502    0.0000 O   0  0  0  0  0  0  0  0  0  0  0  0
    7.0787    5.0324    0.0000 O   0  0  0  0  0  0  0  0  0  0  0  0
    7.9305    3.4374    0.0000 O   0  0  0  0  0  0  0  0  0  0  0  0
    6.4160   -3.8874    0.0000 O   0  0  0  0  0  0  0  0  0  0  0  0
    2.2607   -3.8874    0.0000 O   0  0  0  0  0  0  0  0  0  0  0  0
    3.2925   -5.7069    0.0000 O   0  0  0  0  0  0  0  0  0  0  0  0
    3.4723    0.8710    0.0000 C   0  0  3  0  0  0  0  0  0  0  0  0
    4.3384    0.3710    0.0000 C   0  0  3  0  0  0  0  0  0  0  0  0
    3.4723    1.8710    0.0000 C   0  0  3  0  0  0  0  0  0  0  0  0
    5.1474   -0.2168    0.0000 C   0  0  3  0  0  0  0  0  0  0  0  0
    4.3384    2.3710    0.0000 C   0  0  0  0  0  0  0  0  0  0  0  0
    5.2044    1.8710    0.0000 C   0  0  0  0  0  0  0  0  0  0  0  0
    4.8384   -1.1678    0.0000 C   0  0  0  0  0  0  0  0  0  0  0  0
    3.8384   -1.1678    0.0000 C   0  0  0  0  0  0  0  0  0  0  0  0
    4.3223    3.4125    0.0000 C   0  0  0  0  0  0  0  0  0  0  0  0
    6.1144    2.3778    0.0000 C   0  0  0  0  0  0  0  0  0  0  0  0
    5.3730   -2.0618    0.0000 C   0  0  0  0  0  0  0  0  0  0  0  0
    3.3037   -2.0618    0.0000 C   0  0  0  0  0  0  0  0  0  0  0  0
    5.2203    3.9403    0.0000 C   0  0  0  0  0  0  0  0  0  0  0  0
    6.1224    3.4194    0.0000 C   0  0  0  0  0  0  0  0  0  0  0  0
    4.8592   -2.9679    0.0000 C   0  0  0  0  0  0  0  0  0  0  0  0
    3.8176   -2.9679    0.0000 C   0  0  0  0  0  0  0  0  0  0  0  0
    5.2036    5.0251    0.0000 C   0  0  0  0  0  0  0  0  0  0  0  0
    7.0703    3.9474    0.0000 C   0  0  0  0  0  0  0  0  0  0  0  0
    5.4161   -3.8990    0.0000 C   0  0  0  0  0  0  0  0  0  0  0  0
    3.2606   -3.8990    0.0000 C   0  0  0  0  0  0  0  0  0  0  0  0
    6.1390    5.5748    0.0000 C   0  0  0  0  0  0  0  0  0  0  0  0
    3.7959   -4.8428    0.0000 C   0  0  0  0  0  0  0  0  0  0  0  0
    4.8809   -4.8428    0.0000 C   0  0  0  0  0  0  0  0  0  0  0  0
    6.1352    6.5748    0.0000 C   0  0  0  0  0  0  0  0  0  0  0  0
    3.7892   -6.5748    0.0000 C   0  0  0  0  0  0  0  0  0  0  0  0
    3.1624    0.3340    0.0000 H   0  0  0  0  0  0  0  0  0  0  0  0
    3.1624    2.4080    0.0000 H   0  0  0  0  0  0  0  0  0  0  0  0
    5.2444    0.3956    0.0000 H   0  0  0  0  0  0  0  0  0  0  0  0
    3.7818    3.7163    0.0000 H   0  0  0  0  0  0  0  0  0  0  0  0
    6.5592   -0.3226    0.0000 H   0  0  0  0  0  0  0  0  0  0  0  0
    4.6631    5.3289    0.0000 H   0  0  0  0  0  0  0  0  0  0  0  0
    7.5151    2.1716    0.0000 H   0  0  0  0  0  0  0  0  0  0  0  0
    6.6892   -2.5835    0.0000 H   0  0  0  0  0  0  0  0  0  0  0  0
    2.0000   -1.5097    0.0000 H   0  0  0  0  0  0  0  0  0  0  0  0
    5.1929   -5.3785    0.0000 H   0  0  0  0  0  0  0  0  0  0  0  0
    6.7552    6.5772    0.0000 H   0  0  0  0  0  0  0  0  0  0  0  0
    6.1328    7.1948    0.0000 H   0  0  0  0  0  0  0  0  0  0  0  0
    5.5152    6.5724    0.0000 H   0  0  0  0  0  0  0  0  0  0  0  0
    3.2511   -6.8828    0.0000 H   0  0  0  0  0  0  0  0  0  0  0  0
    4.0971   -7.1130    0.0000 H   0  0  0  0  0  0  0  0  0  0  0  0
    4.3273   -6.2669    0.0000 H   0  0  0  0  0  0  0  0  0  0  0  0
  1 13  1  0  0  0  0
  1 15  1  0  0  0  0
  2 14  1  0  0  0  0
  2 18  1  0  0  0  0
  3 14  1  0  0  0  0
  3 20  1  0  0  0  0
  4 16  1  0  0  0  0
  4 42  1  0  0  0  0
  5 22  1  0  0  0  0
  5 44  1  0  0  0  0
  6 23  1  0  0  0  0
  6 45  1  0  0  0  0
  7 24  1  0  0  0  0
  7 46  1  0  0  0  0
  8 30  1  0  0  0  0
  8 33  1  0  0  0  0
  9 30  2  0  0  0  0
 10 31  2  0  0  0  0
 11 32  2  0  0  0  0
 12 34  1  0  0  0  0
 12 37  1  0  0  0  0
 13 14  1  0  0  0  0
 13 15  1  0  0  0  0
 13 38  1  0  0  0  0
 14 16  1  0  0  0  0
 15 17  1  0  0  0  0
 15 39  1  0  0  0  0
 16 19  1  0  0  0  0
 16 40  1  0  0  0  0
 17 18  2  0  0  0  0
 17 21  1  0  0  0  0
 18 22  1  0  0  0  0
 19 20  1  0  0  0  0
 19 23  2  0  0  0  0
 20 24  2  0  0  0  0
 21 25  2  0  0  0  0
 21 41  1  0  0  0  0
 22 26  2  0  0  0  0
 23 27  1  0  0  0  0
 24 28  1  0  0  0  0
 25 26  1  0  0  0  0
 25 29  1  0  0  0  0
 26 30  1  0  0  0  0
 27 28  2  0  0  0  0
 27 31  1  0  0  0  0
 28 32  1  0  0  0  0
 29 33  2  0  0  0  0
 29 43  1  0  0  0  0
 31 35  1  0  0  0  0
 32 34  1  0  0  0  0
 33 36  1  0  0  0  0
 34 35  2  0  0  0  0
 35 47  1  0  0  0  0
 36 48  1  0  0  0  0
 36 49  1  0  0  0  0
 36 50  1  0  0  0  0
 37 51  1  0  0  0  0
 37 52  1  0  0  0  0
 37 53  1  0  0  0  0
M  END
> <PUBCHEM_COMPOUND_CID>
5282051

> <PUBCHEM_COMPOUND_CANONICALIZED>
1

> <PUBCHEM_CACTVS_COMPLEXITY>
1150

> <PUBCHEM_CACTVS_HBOND_ACCEPTOR>
12

> <PUBCHEM_CACTVS_HBOND_DONOR>
4

> <PUBCHEM_CACTVS_ROTATABLE_BOND>
1

> <PUBCHEM_CACTVS_SUBSKEYS>
AAADceB4PAAAAAAAAAAAAAAAEgAAASAAAAA0YIECBIAAAEiRQAAAGgAACAAADBSgmAIyDoAABgCIAqDSCAICCAAkIAAAiAFEiMgdNzaGNR6ieWOl4BUPuYfL7PzO4QADCAAYQADCAAYQADCAAAAAAAAAAA==

> <PUBCHEM_IUPAC_INCHI>
InChI=1S/C25H16O12/c1-6-3-7-4-8-19(17(29)11(7)24(32)34-6)36-25(23-20(8)35-23)22(31)14-16(28)12-9(26)5-10(33-2)15(27)13(12)18(30)21(14)37-25/h3-5,20,22-23,28-31H,1-2H3

> <PUBCHEM_IUPAC_INCHIKEY>
MRNNMFMPNANLHB-UHFFFAOYSA-N

> <PUBCHEM_XLOGP3_AA>
2.4

> <PUBCHEM_EXACT_MASS>
508.064176

> <PUBCHEM_MOLECULAR_FORMULA>
C25H16O12

> <PUBCHEM_MOLECULAR_WEIGHT>
508.38734

> <PUBCHEM_OPENEYE_CAN_SMILES>
CC1=CC2=CC3=C(C(=C2C(=O)O1)O)OC4(C5C3O5)C(C6=C(C7=C(C(=C6O4)O)C(=O)C(=CC7=O)OC)O)O

> <PUBCHEM_OPENEYE_ISO_SMILES>
CC1=CC2=CC3=C(C(=C2C(=O)O1)O)OC4(C5C3O5)C(C6=C(C7=C(C(=C6O4)O)C(=O)C(=CC7=O)OC)O)O

> <PUBCHEM_CACTVS_TPSA>
182

> <PUBCHEM_MONOISOTOPIC_WEIGHT>
508.064176

> <PUBCHEM_TOTAL_CHARGE>
0

> <PUBCHEM_HEAVY_ATOM_COUNT>
37

> <PUBCHEM_ATOM_DEF_STEREO_COUNT>
0

> <PUBCHEM_ATOM_UDEF_STEREO_COUNT>
4

> <PUBCHEM_BOND_DEF_STEREO_COUNT>
0

> <PUBCHEM_BOND_UDEF_STEREO_COUNT>
0

> <PUBCHEM_ISOTOPIC_ATOM_COUNT>
0

> <PUBCHEM_COMPONENT_COUNT>
1

> <PUBCHEM_CACTVS_TAUTO_COUNT>
270

> <PUBCHEM_COORDINATE_TYPE>
1
5
255

> <PUBCHEM_BONDANNOTATIONS>
13  1  3
15  1  3
17  18  8
17  21  8
18  22  8
19  20  8
19  23  8
14  2  3
20  24  8
21  25  8
22  26  8
23  27  8
24  28  8
25  26  8
25  29  8
26  30  8
27  28  8
29  33  8
16  4  3
8  30  8
8  33  8

$$$$

