   Color/Form

     * OFF-WHITE SOLID
     * WHITE CRYSTALS
     * NEEDLES
     * White powder

   from [1]HSDB

   Odor
        ODORLESS
   from [2]HSDB

   Melting Point
        155-156 DEG C
   from [3]HSDB

   Corrosivity
        NONCORROSIVE UNDER NORMAL USE CONDITIONS.
   from [4]HSDB

   Octanol/Water Partition Coefficient
        Log Kow = 3.43
   from [5]HSDB

   Solubilities

     * In water - 15 mg/l (25 deg C). In methanol, isopropanol 150,
       cyclohexanone, methyl ethyl ketone 200, dimethyl sulfoxide 330 (all
       in g/l). Moderately soluble in benzene, xylene, carbon
       tetrachloride. Sightly soluble in petroleum ether.
     * SOL IN MANY ALIPHATIC & AROMATIC SOLVENTS.

   from [6]HSDB

   Spectral Properties

     * Intense mass spectral peaks: 173 m/z (100%), 175 m/z (85%), 255 m/z
       (37%), 145 m/z (31%)
     * UV spectra of pronamide in ethanol solution... two bands located at
       280 and 207 nm.

   from [7]HSDB

   Vapor Pressure
        8.5X10-5 MM HG @ 25 DEG C
   from [8]HSDB

   Other Chemical/Physical Properties
        Decomposes above melting point; in solution for 28 days (pH 5-9,
   20 deg C) < 10% loss.
   from [9]HSDB

   Computed Properties
   Molecular Weight                  256.12784 [g/mol]
   Molecular Formula                 C[12]H[11]Cl[2]NO
   XLogP3-AA                         3.2
   H-Bond Donor                      1
   H-Bond Acceptor                   1
   Rotatable Bond Count              3
   Tautomer Count                    2
   Exact Mass                        255.021769
   MonoIsotopic Mass                 255.021769
   Topological Polar Surface Area    29.1
   Heavy Atom Count                  16
   Formal Charge                     0
   Complexity                        308
   Isotope Atom Count                0
   Defined Atom Stereocenter Count   0
   Undefined Atom Stereocenter Count 0
   Defined Bond Stereocenter Count   0
   Undefined Bond Stereocenter Count 0
   Covalently-Bonded Unit Count      1
   Feature 3D Acceptor Count         1
   Feature 3D Donor Count            1
   Feature 3D Hydrophobe Count       2
   Feature 3D Ring Count             1
   Effective Rotor Count             3
   Conformer Sampling RMSD           0.6
   CID Conformer Count               [10]9

References

   1. http://toxnet.nlm.nih.gov/cgi-bin/sis/search/r?dbs+hsdb:@term+@rn+@rel+23950-58-5
   2. http://toxnet.nlm.nih.gov/cgi-bin/sis/search/r?dbs+hsdb:@term+@rn+@rel+23950-58-5
   3. http://toxnet.nlm.nih.gov/cgi-bin/sis/search/r?dbs+hsdb:@term+@rn+@rel+23950-58-5
   4. http://toxnet.nlm.nih.gov/cgi-bin/sis/search/r?dbs+hsdb:@term+@rn+@rel+23950-58-5
   5. http://toxnet.nlm.nih.gov/cgi-bin/sis/search/r?dbs+hsdb:@term+@rn+@rel+23950-58-5
   6. http://toxnet.nlm.nih.gov/cgi-bin/sis/search/r?dbs+hsdb:@term+@rn+@rel+23950-58-5
   7. http://toxnet.nlm.nih.gov/cgi-bin/sis/search/r?dbs+hsdb:@term+@rn+@rel+23950-58-5
   8. http://toxnet.nlm.nih.gov/cgi-bin/sis/search/r?dbs+hsdb:@term+@rn+@rel+23950-58-5
   9. http://toxnet.nlm.nih.gov/cgi-bin/sis/search/r?dbs+hsdb:@term+@rn+@rel+23950-58-5
  10. http://pubchem.ncbi.nlm.nih.gov/vw3d/vw3d.cgi?cid=32154
