   Color/Form

     * NATURAL ANHYDRITE CRYSTALS ARE COLORLESS, RHOMBIC OR MONOCLINIC
     * NATURAL ANHYDRITE CRYSTALS ARE ORTHORHOMBIC, COLOR VARIES (WHITE
       WITH BLUE, GRAY OR REDDISH TINGE, OR BRICK RED)
     * INSOL ANHYDRITE HAS SAME CRYSTAL STRUCTURE AS MINERAL ANHYDRITE
     * SOL ANHYDRITE IS OBTAINED IN GRANULAR OR POWDER FORM
     * SOL ANHYDRITE CRYSTALS ARE COLORLESS, HEXAGONAL OR TRICLINIC
     * PURE ANHYDROUS CALCIUM SULFATE EXISTS IN FORM OF WHITE POWDER OR
       CRYSTALS
     * White powder or colorless, crystalline solid [Note: May have blue,
       gray, or reddish tinge].

   from [1]HSDB

   Odor

     * PURE ANHYDROUS CALCIUM SULFATE IS ODORLESS
     * Odorless.

   from [2]HSDB

   Melting Point
        1450 DEG C
   from [3]HSDB

   Density/Specific Gravity
        2.960
   from [4]HSDB

   Solubilities

     * PURE ANHYDROUS SLIGHTLY SOL IN WATER
     * 0.209 G/100 CC & 0.1619 G/100 CC WATER AT 30 & 100 DEG C; SOL IN
       AMMONIUM SALTS, SODIUM THIOSULFATE & GLYCERINE

   from [5]HSDB

   Spectral Properties
        INDEX OF REFRACTION: 1.569, 1.575, 1.613
   from [6]HSDB

   Other Chemical/Physical Properties

     * POSSESSES HIGH AFFINITY FOR WATER & WILL ABSORB 6.6% OF ITS WT OF
       WATER FORMING STABLE HEMIHYDRATE /SOL ANHYDRITE/
     * LOSES 1/2 H2O AT 163 DEG C /HALF-HYDRATE/
     * TASTELESS; SETS TO HARD MASS WHEN MIXED WITH WATER /HEMIHYDRATE/
     * NEITHER ANHYDROUS NOR DIHYDRATE FORMS CAN SET WITH WATER
     * WHITE POWDER /HALF-HYDRATE/
     * COLORLESS MONOCLINIC CRYSTALS /DIHYDRATE/
     * LUMPS OR POWDER /DIHYDRATE/
     * 0.3 G/100 CC H2O AT 20 DEG C; SOL IN ACIDS, AMMONIUM SALTS &
       GLYCERIN; SLIGHTLY SOL IN HOT WATER /HALF-HYDRATE/
     * VERY SOL IN GLYCEROL; PRACTICALLY INSOL IN MOST ORG SOLVENTS
       /DIHYDRATE/
     * SOL IN SODIUM THIOSULFATE; INDEX OF REFRACTION: 1.505, 1.548;
       DENSITY 2.61; MP ABOVE 200 DEG C WITH TRANSITION TO RHOMBIC
       CRYSTALS /SOL ANHYDRITE/
     * INDEX OF REFRACTION: 1.521, 1.523, 1.530; LOSES 1/2 H2O AT 128 DEG
       C & 2 H2O AT 163 DEG C /DIHYDRATE/
     * Solubility in water at 20 deg C, g/100 g solution: 0.21 /Dihydrate/
     * Solubility in water at 20 deg C, g/100 g solution: 0.67
       /Hemihydrate, alpha-form/
     * Solubility in water at 20 deg C, g/100 g solution: 0.88
       /Hemihydrate, beta-form/
     * Solubility in water at 20 deg C, g/100 g solution: 0.27 /Anhydrite/

   from [7]HSDB

   Computed Properties
   Molecular Weight                  136.1406 [g/mol]
   Molecular Formula                 CaO[4]S
   H-Bond Donor                      0
   H-Bond Acceptor                   4
   Rotatable Bond Count              0
   Exact Mass                        135.91432
   MonoIsotopic Mass                 135.91432
   Topological Polar Surface Area    88.6
   Heavy Atom Count                  6
   Formal Charge                     0
   Complexity                        62.2
   Isotope Atom Count                0
   Defined Atom Stereocenter Count   0
   Undefined Atom Stereocenter Count 0
   Defined Bond Stereocenter Count   0
   Undefined Bond Stereocenter Count 0
   Covalently-Bonded Unit Count      2

References

   1. http://toxnet.nlm.nih.gov/cgi-bin/sis/search/r?dbs+hsdb:@term+@rn+@rel+7778-18-9
   2. http://toxnet.nlm.nih.gov/cgi-bin/sis/search/r?dbs+hsdb:@term+@rn+@rel+7778-18-9
   3. http://toxnet.nlm.nih.gov/cgi-bin/sis/search/r?dbs+hsdb:@term+@rn+@rel+7778-18-9
   4. http://toxnet.nlm.nih.gov/cgi-bin/sis/search/r?dbs+hsdb:@term+@rn+@rel+7778-18-9
   5. http://toxnet.nlm.nih.gov/cgi-bin/sis/search/r?dbs+hsdb:@term+@rn+@rel+7778-18-9
   6. http://toxnet.nlm.nih.gov/cgi-bin/sis/search/r?dbs+hsdb:@term+@rn+@rel+7778-18-9
   7. http://toxnet.nlm.nih.gov/cgi-bin/sis/search/r?dbs+hsdb:@term+@rn+@rel+7778-18-9
