237867
  -OEChem-07051213072D

 56 59  0     1  0  0  0  0  0999 V2000
    9.1493    2.3120    0.0000 O   0  0  0  0  0  0  0  0  0  0  0  0
    4.7950    1.9209    0.0000 O   0  0  0  0  0  0  0  0  0  0  0  0
    2.0000   -1.6314    0.0000 O   0  0  0  0  0  0  0  0  0  0  0  0
    7.3931    1.4209    0.0000 C   0  0  1  0  0  0  0  0  0  0  0  0
    7.3931    0.4209    0.0000 C   0  0  2  0  0  0  0  0  0  0  0  0
    6.5271   -0.0791    0.0000 C   0  0  1  0  0  0  0  0  0  0  0  0
    5.6610    0.4209    0.0000 C   0  0  1  0  0  0  0  0  0  0  0  0
    8.3393    1.7256    0.0000 C   0  0  2  0  0  0  0  0  0  0  0  0
    4.7510   -0.0859    0.0000 C   0  0  2  0  0  0  0  0  0  0  0  0
    6.5271    1.9209    0.0000 C   0  0  0  0  0  0  0  0  0  0  0  0
    5.6610    1.4209    0.0000 C   0  0  2  0  0  0  0  0  0  0  0  0
    8.3393    0.1162    0.0000 C   0  0  0  0  0  0  0  0  0  0  0  0
    8.9229    0.9209    0.0000 C   0  0  0  0  0  0  0  0  0  0  0  0
    6.5431   -1.1206    0.0000 C   0  0  0  0  0  0  0  0  0  0  0  0
    4.7430   -1.1275    0.0000 C   0  0  0  0  0  0  0  0  0  0  0  0
    7.3931    2.4209    0.0000 C   0  0  0  0  0  0  0  0  0  0  0  0
    5.6451   -1.6483    0.0000 C   0  0  0  0  0  0  0  0  0  0  0  0
    3.8242    0.4782    0.0000 C   0  0  0  0  0  0  0  0  0  0  0  0
    8.0319    2.6772    0.0000 C   0  0  0  0  0  0  0  0  0  0  0  0
    4.7587    0.9140    0.0000 C   0  0  0  0  0  0  0  0  0  0  0  0
    3.8076   -1.6772    0.0000 C   0  0  0  0  0  0  0  0  0  0  0  0
    2.8763   -0.0498    0.0000 C   0  0  0  0  0  0  0  0  0  0  0  0
    2.8680   -1.1348    0.0000 C   0  0  0  0  0  0  0  0  0  0  0  0
    3.8114   -2.6772    0.0000 C   0  0  0  0  0  0  0  0  0  0  0  0
    7.4830   -0.4243    0.0000 H   0  0  0  0  0  0  0  0  0  0  0  0
    7.2664   -0.4984    0.0000 H   0  0  0  0  0  0  0  0  0  0  0  0
    6.3972    0.8459    0.0000 H   0  0  0  0  0  0  0  0  0  0  0  0
    6.9256    2.3959    0.0000 H   0  0  0  0  0  0  0  0  0  0  0  0
    6.1285    2.3959    0.0000 H   0  0  0  0  0  0  0  0  0  0  0  0
    5.6610    2.0409    0.0000 H   0  0  0  0  0  0  0  0  0  0  0  0
    8.0883   -0.4507    0.0000 H   0  0  0  0  0  0  0  0  0  0  0  0
    8.8767   -0.1930    0.0000 H   0  0  0  0  0  0  0  0  0  0  0  0
    9.3838    0.5062    0.0000 H   0  0  0  0  0  0  0  0  0  0  0  0
    9.3838    1.3356    0.0000 H   0  0  0  0  0  0  0  0  0  0  0  0
    6.7612   -1.7010    0.0000 H   0  0  0  0  0  0  0  0  0  0  0  0
    7.1523   -1.0051    0.0000 H   0  0  0  0  0  0  0  0  0  0  0  0
    8.0131    2.4209    0.0000 H   0  0  0  0  0  0  0  0  0  0  0  0
    7.3931    3.0409    0.0000 H   0  0  0  0  0  0  0  0  0  0  0  0
    6.7731    2.4209    0.0000 H   0  0  0  0  0  0  0  0  0  0  0  0
    5.2478   -2.1243    0.0000 H   0  0  0  0  0  0  0  0  0  0  0  0
    6.0460   -2.1212    0.0000 H   0  0  0  0  0  0  0  0  0  0  0  0
    4.2324    0.9448    0.0000 H   0  0  0  0  0  0  0  0  0  0  0  0
    3.4343    0.9602    0.0000 H   0  0  0  0  0  0  0  0  0  0  0  0
    8.6219    2.8678    0.0000 H   0  0  0  0  0  0  0  0  0  0  0  0
    7.8414    3.2672    0.0000 H   0  0  0  0  0  0  0  0  0  0  0  0
    7.4420    2.4867    0.0000 H   0  0  0  0  0  0  0  0  0  0  0  0
    5.3787    0.9093    0.0000 H   0  0  0  0  0  0  0  0  0  0  0  0
    4.7635    1.5340    0.0000 H   0  0  0  0  0  0  0  0  0  0  0  0
    4.1388    0.9188    0.0000 H   0  0  0  0  0  0  0  0  0  0  0  0
    9.7153    2.0589    0.0000 H   0  0  0  0  0  0  0  0  0  0  0  0
    2.6718    0.5355    0.0000 H   0  0  0  0  0  0  0  0  0  0  0  0
    2.2647   -0.1512    0.0000 H   0  0  0  0  0  0  0  0  0  0  0  0
    4.7950    2.5409    0.0000 H   0  0  0  0  0  0  0  0  0  0  0  0
    3.1914   -2.6796    0.0000 H   0  0  0  0  0  0  0  0  0  0  0  0
    3.8138   -3.2972    0.0000 H   0  0  0  0  0  0  0  0  0  0  0  0
    4.4314   -2.6748    0.0000 H   0  0  0  0  0  0  0  0  0  0  0  0
  8  1  1  1  0  0  0
  1 50  1  0  0  0  0
 11  2  1  1  0  0  0
  2 53  1  0  0  0  0
  3 23  2  0  0  0  0
  4  5  1  0  0  0  0
  4  8  1  0  0  0  0
  4 10  1  0  0  0  0
  4 16  1  1  0  0  0
  5  6  1  0  0  0  0
  5 12  1  0  0  0  0
  5 25  1  6  0  0  0
  6  7  1  0  0  0  0
  6 14  1  0  0  0  0
  6 26  1  1  0  0  0
  7  9  1  0  0  0  0
  7 11  1  0  0  0  0
  7 27  1  6  0  0  0
  8 13  1  0  0  0  0
  8 19  1  0  0  0  0
  9 15  1  0  0  0  0
  9 18  1  0  0  0  0
  9 20  1  1  0  0  0
 10 11  1  0  0  0  0
 10 28  1  0  0  0  0
 10 29  1  0  0  0  0
 11 30  1  0  0  0  0
 12 13  1  0  0  0  0
 12 31  1  0  0  0  0
 12 32  1  0  0  0  0
 13 33  1  0  0  0  0
 13 34  1  0  0  0  0
 14 17  1  0  0  0  0
 14 35  1  0  0  0  0
 14 36  1  0  0  0  0
 15 17  1  0  0  0  0
 15 21  2  0  0  0  0
 16 37  1  0  0  0  0
 16 38  1  0  0  0  0
 16 39  1  0  0  0  0
 17 40  1  0  0  0  0
 17 41  1  0  0  0  0
 18 22  1  0  0  0  0
 18 42  1  0  0  0  0
 18 43  1  0  0  0  0
 19 44  1  0  0  0  0
 19 45  1  0  0  0  0
 19 46  1  0  0  0  0
 20 47  1  0  0  0  0
 20 48  1  0  0  0  0
 20 49  1  0  0  0  0
 21 23  1  0  0  0  0
 21 24  1  0  0  0  0
 22 23  1  0  0  0  0
 22 51  1  0  0  0  0
 22 52  1  0  0  0  0
 24 54  1  0  0  0  0
 24 55  1  0  0  0  0
 24 56  1  0  0  0  0
M  END
> <PUBCHEM_COMPOUND_CID>
237867

> <PUBCHEM_COMPOUND_CANONICALIZED>
1

> <PUBCHEM_CACTVS_COMPLEXITY>
623

> <PUBCHEM_CACTVS_HBOND_ACCEPTOR>
3

> <PUBCHEM_CACTVS_HBOND_DONOR>
2

> <PUBCHEM_CACTVS_ROTATABLE_BOND>
0

> <PUBCHEM_CACTVS_SUBSKEYS>
AAADcfB4MAAAAAAAAAAAAAAAAAAAAYAAAAAwYIAAAAAAAGDAAAAAGgAACAAAD1SggAICAAAAAgCIAoBQAAAAAAAgAAAACAEAAEgAEBIAAAAAQAAEgAAIAQPIyPCPgAAAAAAAAADAAAYAADAAAYAADAAAAA==

> <PUBCHEM_IUPAC_OPENEYE_NAME>
(8S,9S,10R,11S,13S,14S,17S)-11,17-dihydroxy-4,10,13,17-tetramethyl-2,6,7,8,9,11,12,14,15,16-decahydro-1H-cyclopenta[a]phenanthren-3-one

> <PUBCHEM_IUPAC_CAS_NAME>
(8S,9S,10R,11S,13S,14S,17S)-11,17-dihydroxy-4,10,13,17-tetramethyl-2,6,7,8,9,11,12,14,15,16-decahydro-1H-cyclopenta[a]phenanthren-3-one

> <PUBCHEM_IUPAC_NAME>
(8S,9S,10R,11S,13S,14S,17S)-11,17-dihydroxy-4,10,13,17-tetramethyl-2,6,7,8,9,11,12,14,15,16-decahydro-1H-cyclopenta[a]phenanthren-3-one

> <PUBCHEM_IUPAC_SYSTEMATIC_NAME>
(8S,9S,10R,11S,13S,14S,17S)-4,10,13,17-tetramethyl-11,17-bis(oxidanyl)-2,6,7,8,9,11,12,14,15,16-decahydro-1H-cyclopenta[a]phenanthren-3-one

> <PUBCHEM_IUPAC_TRADITIONAL_NAME>
(8S,9S,10R,11S,13S,14S,17S)-11,17-dihydroxy-4,10,13,17-tetramethyl-2,6,7,8,9,11,12,14,15,16-decahydro-1H-cyclopenta[a]phenanthren-3-one

> <PUBCHEM_IUPAC_INCHI>
InChI=1S/C21H32O3/c1-12-14-6-5-13-15-7-10-21(4,24)20(15,3)11-17(23)18(13)19(14,2)9-8-16(12)22/h13,15,17-18,23-24H,5-11H2,1-4H3/t13-,15-,17-,18+,19-,20-,21-/m0/s1

> <PUBCHEM_IUPAC_INCHIKEY>
WGWIOQHCYQKREK-HWNNUFKUSA-N

> <PUBCHEM_XLOGP3_AA>
2.7

> <PUBCHEM_EXACT_MASS>
332.235145

> <PUBCHEM_MOLECULAR_FORMULA>
C21H32O3

> <PUBCHEM_MOLECULAR_WEIGHT>
332.47698

> <PUBCHEM_OPENEYE_CAN_SMILES>
CC1=C2CCC3C4CCC(C4(CC(C3C2(CCC1=O)C)O)C)(C)O

> <PUBCHEM_OPENEYE_ISO_SMILES>
CC1=C2CC[C@H]3[C@@H]4CC[C@]([C@]4(C[C@@H]([C@@H]3[C@]2(CCC1=O)C)O)C)(C)O

> <PUBCHEM_CACTVS_TPSA>
57.5

> <PUBCHEM_MONOISOTOPIC_WEIGHT>
332.235145

> <PUBCHEM_TOTAL_CHARGE>
0

> <PUBCHEM_HEAVY_ATOM_COUNT>
24

> <PUBCHEM_ATOM_DEF_STEREO_COUNT>
7

> <PUBCHEM_ATOM_UDEF_STEREO_COUNT>
0

> <PUBCHEM_BOND_DEF_STEREO_COUNT>
0

> <PUBCHEM_BOND_UDEF_STEREO_COUNT>
0

> <PUBCHEM_ISOTOPIC_ATOM_COUNT>
0

> <PUBCHEM_COMPONENT_COUNT>
1

> <PUBCHEM_CACTVS_TAUTO_COUNT>
5

> <PUBCHEM_COORDINATE_TYPE>
1
5
255

> <PUBCHEM_BONDANNOTATIONS>
8  1  5
11  2  5
4  16  5
5  25  6
6  26  5
7  27  6
9  20  5

$$$$

