440083
  -OEChem-07051212482D

 57 59  0     1  0  0  0  0  0999 V2000
    5.0474    0.5869    0.0000 P   0  0  3  0  0  0  0  0  0  0  0  0
    5.4104    2.2805    0.0000 P   0  0  3  0  0  0  0  0  0  0  0  0
    6.8070    6.4096    0.0000 P   0  0  0  0  0  0  0  0  0  0  0  0
    4.4026   -2.8663    0.0000 O   0  0  0  0  0  0  0  0  0  0  0  0
    6.7485   -3.9581    0.0000 O   0  0  0  0  0  0  0  0  0  0  0  0
    6.7523   -1.7826    0.0000 O   0  0  0  0  0  0  0  0  0  0  0  0
    5.3548   -0.3647    0.0000 O   0  0  0  0  0  0  0  0  0  0  0  0
    4.7400    1.5385    0.0000 O   0  0  0  0  0  0  0  0  0  0  0  0
    5.9990    0.8943    0.0000 O   0  0  0  0  0  0  0  0  0  0  0  0
    4.0958    0.2795    0.0000 O   0  0  0  0  0  0  0  0  0  0  0  0
    6.0809    3.0224    0.0000 O   0  0  0  0  0  0  0  0  0  0  0  0
    4.6685    2.9509    0.0000 O   0  0  0  0  0  0  0  0  0  0  0  0
    6.1524    1.6100    0.0000 O   0  0  0  0  0  0  0  0  0  0  0  0
    6.1365    5.6676    0.0000 O   0  0  0  0  0  0  0  0  0  0  0  0
    8.0921    5.2484    0.0000 O   0  0  0  0  0  0  0  0  0  0  0  0
    7.7291    3.5548    0.0000 O   0  0  0  0  0  0  0  0  0  0  0  0
    7.4774    7.1516    0.0000 O   0  0  0  0  0  0  0  0  0  0  0  0
    6.0650    7.0800    0.0000 O   0  0  0  0  0  0  0  0  0  0  0  0
    7.5489    5.7392    0.0000 O   0  0  0  0  0  0  0  0  0  0  0  0
    4.6783   -4.6268    0.0000 N   0  0  0  0  0  0  0  0  0  0  0  0
    4.6783   -6.2363    0.0000 N   0  0  0  0  0  0  0  0  0  0  0  0
    2.8660   -4.4316    0.0000 N   0  0  0  0  0  0  0  0  0  0  0  0
    2.0000   -5.9316    0.0000 N   0  0  0  0  0  0  0  0  0  0  0  0
    2.8660   -7.4316    0.0000 N   0  0  0  0  0  0  0  0  0  0  0  0
    5.9405   -3.3689    0.0000 C   0  0  2  0  0  0  0  0  0  0  0  0
    5.9422   -2.3690    0.0000 C   0  0  1  0  0  0  0  0  0  0  0  0
    4.9889   -3.6763    0.0000 C   0  0  1  0  0  0  0  0  0  0  0  0
    4.9917   -2.0583    0.0000 C   0  0  1  0  0  0  0  0  0  0  0  0
    4.6844   -1.1067    0.0000 C   0  0  0  0  0  0  0  0  0  0  0  0
    3.7320   -4.9316    0.0000 C   0  0  0  0  0  0  0  0  0  0  0  0
    5.2619   -5.4316    0.0000 C   0  0  0  0  0  0  0  0  0  0  0  0
    3.7320   -5.9316    0.0000 C   0  0  0  0  0  0  0  0  0  0  0  0
    2.8660   -6.4316    0.0000 C   0  0  0  0  0  0  0  0  0  0  0  0
    2.0000   -4.9316    0.0000 C   0  0  0  0  0  0  0  0  0  0  0  0
    5.7735    3.9740    0.0000 C   0  0  0  0  0  0  0  0  0  0  0  0
    6.4439    4.7160    0.0000 C   0  0  3  0  0  0  0  0  0  0  0  0
    7.4217    4.5064    0.0000 C   0  0  0  0  0  0  0  0  0  0  0  0
    6.4934   -3.0884    0.0000 H   0  0  0  0  0  0  0  0  0  0  0  0
    6.4942   -2.6514    0.0000 H   0  0  0  0  0  0  0  0  0  0  0  0
    5.4266   -4.1155    0.0000 H   0  0  0  0  0  0  0  0  0  0  0  0
    4.3795   -1.9602    0.0000 H   0  0  0  0  0  0  0  0  0  0  0  0
    4.3035   -0.6175    0.0000 H   0  0  0  0  0  0  0  0  0  0  0  0
    4.1364   -1.3968    0.0000 H   0  0  0  0  0  0  0  0  0  0  0  0
    7.3154   -3.7069    0.0000 H   0  0  0  0  0  0  0  0  0  0  0  0
    7.3182   -2.0357    0.0000 H   0  0  0  0  0  0  0  0  0  0  0  0
    5.8819   -5.4316    0.0000 H   0  0  0  0  0  0  0  0  0  0  0  0
    1.4631   -4.6216    0.0000 H   0  0  0  0  0  0  0  0  0  0  0  0
    2.3291   -7.7416    0.0000 H   0  0  0  0  0  0  0  0  0  0  0  0
    3.4030   -7.7416    0.0000 H   0  0  0  0  0  0  0  0  0  0  0  0
    6.4590    0.4786    0.0000 H   0  0  0  0  0  0  0  0  0  0  0  0
    5.3926    4.4633    0.0000 H   0  0  0  0  0  0  0  0  0  0  0  0
    5.2256    3.6839    0.0000 H   0  0  0  0  0  0  0  0  0  0  0  0
    5.8377    4.8460    0.0000 H   0  0  0  0  0  0  0  0  0  0  0  0
    4.0785    2.7603    0.0000 H   0  0  0  0  0  0  0  0  0  0  0  0
    8.6983    5.1184    0.0000 H   0  0  0  0  0  0  0  0  0  0  0  0
    5.4750    6.8894    0.0000 H   0  0  0  0  0  0  0  0  0  0  0  0
    7.2868    7.7416    0.0000 H   0  0  0  0  0  0  0  0  0  0  0  0
  1  7  1  0  0  0  0
  1  8  1  0  0  0  0
  1  9  1  0  0  0  0
  1 10  2  0  0  0  0
  2  8  1  0  0  0  0
  2 11  1  0  0  0  0
  2 12  1  0  0  0  0
  2 13  2  0  0  0  0
  3 14  1  0  0  0  0
  3 17  1  0  0  0  0
  3 18  1  0  0  0  0
  3 19  2  0  0  0  0
  4 27  1  0  0  0  0
  4 28  1  0  0  0  0
 25  5  1  1  0  0  0
  5 44  1  0  0  0  0
 26  6  1  1  0  0  0
  6 45  1  0  0  0  0
  7 29  1  0  0  0  0
  9 50  1  0  0  0  0
 11 35  1  0  0  0  0
 12 54  1  0  0  0  0
 14 36  1  0  0  0  0
 15 37  1  0  0  0  0
 15 55  1  0  0  0  0
 16 37  2  0  0  0  0
 17 57  1  0  0  0  0
 18 56  1  0  0  0  0
 27 20  1  6  0  0  0
 20 30  1  0  0  0  0
 20 31  1  0  0  0  0
 21 31  2  0  0  0  0
 21 32  1  0  0  0  0
 22 30  2  0  0  0  0
 22 34  1  0  0  0  0
 23 33  1  0  0  0  0
 23 34  2  0  0  0  0
 24 33  1  0  0  0  0
 24 48  1  0  0  0  0
 24 49  1  0  0  0  0
 25 26  1  0  0  0  0
 25 27  1  0  0  0  0
 25 38  1  0  0  0  0
 26 28  1  0  0  0  0
 26 39  1  0  0  0  0
 27 40  1  0  0  0  0
 28 29  1  6  0  0  0
 28 41  1  0  0  0  0
 29 42  1  0  0  0  0
 29 43  1  0  0  0  0
 30 32  1  0  0  0  0
 31 46  1  0  0  0  0
 32 33  2  0  0  0  0
 34 47  1  0  0  0  0
 35 36  1  0  0  0  0
 35 51  1  0  0  0  0
 35 52  1  0  0  0  0
 36 37  1  0  0  0  0
 36 53  1  0  0  0  0
M  END
> <PUBCHEM_COMPOUND_CID>
440083

> <PUBCHEM_COMPOUND_CANONICALIZED>
1

> <PUBCHEM_CACTVS_COMPLEXITY>
971

> <PUBCHEM_CACTVS_HBOND_ACCEPTOR>
20

> <PUBCHEM_CACTVS_HBOND_DONOR>
8

> <PUBCHEM_CACTVS_ROTATABLE_BOND>
12

> <PUBCHEM_CACTVS_SUBSKEYS>
AAADceBzvgMAAAAAAAAAAAAAAAAAAWJAAAAsAAAAAAAAAFgB+AAAHgAQCCAACBzhlwYF+L9MFxCoQQbxbIKAgC0REKABUCFoVBCDWAZAyEAeRAgPIALTACDwMAIAAAAAAAAAAAAAAAAAAAAAAAAAAAAAAA==

> <PUBCHEM_IUPAC_OPENEYE_NAME>
3-[[[(2R,3S,4R,5R)-5-(6-aminopurin-9-yl)-3,4-dihydroxy-tetrahydrofuran-2-yl]methoxy-hydroxy-phosphoryl]oxy-hydroxy-phosphoryl]oxy-2-phosphonooxy-propanoic acid

> <PUBCHEM_IUPAC_CAS_NAME>
3-[[[(2R,3S,4R,5R)-5-(6-aminopurin-9-yl)-3,4-dihydroxy-2-oxolanyl]methoxy-hydroxyphosphoryl]oxy-hydroxyphosphoryl]oxy-2-phosphonooxypropanoic acid

> <PUBCHEM_IUPAC_NAME>
3-[[[(2R,3S,4R,5R)-5-(6-aminopurin-9-yl)-3,4-dihydroxyoxolan-2-yl]methoxy-hydroxyphosphoryl]oxy-hydroxyphosphoryl]oxy-2-phosphonooxypropanoic acid

> <PUBCHEM_IUPAC_SYSTEMATIC_NAME>
3-[[[(2R,3S,4R,5R)-5-(6-aminopurin-9-yl)-3,4-bis(oxidanyl)oxolan-2-yl]methoxy-oxidanyl-phosphoryl]oxy-oxidanyl-phosphoryl]oxy-2-phosphonooxy-propanoic acid

> <PUBCHEM_IUPAC_TRADITIONAL_NAME>
3-[[[(2R,3S,4R,5R)-5-adenin-9-yl-3,4-dihydroxy-tetrahydrofuran-2-yl]methoxy-hydroxy-phosphoryl]oxy-hydroxy-phosphoryl]oxy-2-phosphonooxy-propionic acid

> <PUBCHEM_IUPAC_INCHI>
InChI=1S/C13H20N5O16P3/c14-10-7-11(16-3-15-10)18(4-17-7)12-9(20)8(19)5(32-12)1-30-36(26,27)34-37(28,29)31-2-6(13(21)22)33-35(23,24)25/h3-6,8-9,12,19-20H,1-2H2,(H,21,22)(H,26,27)(H,28,29)(H2,14,15,16)(H2,23,24,25)/t5-,6?,8-,9-,12-/m1/s1

> <PUBCHEM_IUPAC_INCHIKEY>
FNEVPPRBJBZTAF-MDSCUQPFSA-N

> <PUBCHEM_XLOGP3>
-6.2

> <PUBCHEM_EXACT_MASS>
595.011789

> <PUBCHEM_MOLECULAR_FORMULA>
C13H20N5O16P3

> <PUBCHEM_MOLECULAR_WEIGHT>
595.243086

> <PUBCHEM_OPENEYE_CAN_SMILES>
C1=NC2=C(C(=N1)N)N=CN2C3C(C(C(O3)COP(=O)(O)OP(=O)(O)OCC(C(=O)O)OP(=O)(O)O)O)O

> <PUBCHEM_OPENEYE_ISO_SMILES>
C1=NC2=C(C(=N1)N)N=CN2[C@H]3[C@@H]([C@@H]([C@H](O3)COP(=O)(O)OP(=O)(O)OCC(C(=O)O)OP(=O)(O)O)O)O

> <PUBCHEM_CACTVS_TPSA>
326

> <PUBCHEM_MONOISOTOPIC_WEIGHT>
595.011789

> <PUBCHEM_TOTAL_CHARGE>
0

> <PUBCHEM_HEAVY_ATOM_COUNT>
37

> <PUBCHEM_ATOM_DEF_STEREO_COUNT>
4

> <PUBCHEM_ATOM_UDEF_STEREO_COUNT>
1

> <PUBCHEM_BOND_DEF_STEREO_COUNT>
0

> <PUBCHEM_BOND_UDEF_STEREO_COUNT>
0

> <PUBCHEM_ISOTOPIC_ATOM_COUNT>
0

> <PUBCHEM_COMPONENT_COUNT>
1

> <PUBCHEM_CACTVS_TAUTO_COUNT>
3

> <PUBCHEM_COORDINATE_TYPE>
1
5
255

> <PUBCHEM_BONDANNOTATIONS>
27  20  6
20  30  8
20  31  8
21  31  8
21  32  8
22  30  8
22  34  8
23  33  8
23  34  8
28  29  6
30  32  8
32  33  8
36  35  3
25  5  5
26  6  5

$$$$

