442178
  -OEChem-07051212572D

 40 43  0     1  0  0  0  0  0999 V2000
    3.3202   -2.9409    0.0000 Cl  0  0  0  0  0  0  0  0  0  0  0  0
    5.7556   -1.6672    0.0000 O   0  0  0  0  0  0  0  0  0  0  0  0
    3.4151    1.1671    0.0000 O   0  0  0  0  0  0  0  0  0  0  0  0
    2.5022   -1.5754    0.0000 O   0  0  0  0  0  0  0  0  0  0  0  0
    7.6162   -0.5000    0.0000 O   0  0  0  0  0  0  0  0  0  0  0  0
    3.3202    2.9409    0.0000 O   0  0  0  0  0  0  0  0  0  0  0  0
    5.0181   -1.0000    0.0000 C   0  0  1  0  0  0  0  0  0  0  0  0
    4.1521   -0.5000    0.0000 C   0  0  2  0  0  0  0  0  0  0  0  0
    4.8089   -1.9718    0.0000 C   0  0  1  0  0  0  0  0  0  0  0  0
    5.8841   -0.5000    0.0000 C   0  0  1  0  0  0  0  0  0  0  0  0
    3.4151   -1.1671    0.0000 C   0  0  2  0  0  0  0  0  0  0  0  0
    3.8202   -2.0749    0.0000 C   0  0  2  0  0  0  0  0  0  0  0  0
    4.1521    0.5000    0.0000 C   0  0  2  0  0  0  0  0  0  0  0  0
    5.0181    1.0000    0.0000 C   0  0  1  0  0  0  0  0  0  0  0  0
    5.8841    0.5000    0.0000 C   0  0  0  0  0  0  0  0  0  0  0  0
    6.7502   -1.0000    0.0000 C   0  0  2  0  0  0  0  0  0  0  0  0
    2.7446   -0.4251    0.0000 C   0  0  0  0  0  0  0  0  0  0  0  0
    4.8089    1.9718    0.0000 C   0  0  0  0  0  0  0  0  0  0  0  0
    3.8202    2.0749    0.0000 C   0  0  0  0  0  0  0  0  0  0  0  0
    6.7502   -2.0000    0.0000 C   0  0  0  0  0  0  0  0  0  0  0  0
    5.4767    2.7161    0.0000 C   0  0  0  0  0  0  0  0  0  0  0  0
    3.3751   -0.1553    0.0000 H   0  0  0  0  0  0  0  0  0  0  0  0
    4.9841   -2.8036    0.0000 H   0  0  0  0  0  0  0  0  0  0  0  0
    6.6202   -0.0750    0.0000 H   0  0  0  0  0  0  0  0  0  0  0  0
    3.2010   -2.0427    0.0000 H   0  0  0  0  0  0  0  0  0  0  0  0
    3.3751    0.1553    0.0000 H   0  0  0  0  0  0  0  0  0  0  0  0
    5.7051    1.5005    0.0000 H   0  0  0  0  0  0  0  0  0  0  0  0
    6.4947    0.3923    0.0000 H   0  0  0  0  0  0  0  0  0  0  0  0
    6.0962    1.0826    0.0000 H   0  0  0  0  0  0  0  0  0  0  0  0
    6.7502   -0.3800    0.0000 H   0  0  0  0  0  0  0  0  0  0  0  0
    3.2047   -0.0094    0.0000 H   0  0  0  0  0  0  0  0  0  0  0  0
    2.3290    0.0349    0.0000 H   0  0  0  0  0  0  0  0  0  0  0  0
    2.2846   -0.8408    0.0000 H   0  0  0  0  0  0  0  0  0  0  0  0
    2.0000   -1.2118    0.0000 H   0  0  0  0  0  0  0  0  0  0  0  0
    6.1302   -2.0000    0.0000 H   0  0  0  0  0  0  0  0  0  0  0  0
    6.7502   -2.6200    0.0000 H   0  0  0  0  0  0  0  0  0  0  0  0
    7.3702   -2.0000    0.0000 H   0  0  0  0  0  0  0  0  0  0  0  0
    8.1531   -0.8100    0.0000 H   0  0  0  0  0  0  0  0  0  0  0  0
    6.0834    2.5883    0.0000 H   0  0  0  0  0  0  0  0  0  0  0  0
    5.2841    3.3054    0.0000 H   0  0  0  0  0  0  0  0  0  0  0  0
 12  1  1  1  0  0  0
  7  2  1  6  0  0  0
  2  9  1  0  0  0  0
  3 13  1  0  0  0  0
  3 19  1  0  0  0  0
 11  4  1  6  0  0  0
  4 34  1  0  0  0  0
 16  5  1  1  0  0  0
  5 38  1  0  0  0  0
  6 19  2  0  0  0  0
  7  8  1  0  0  0  0
  7  9  1  0  0  0  0
  7 10  1  0  0  0  0
  8 11  1  0  0  0  0
  8 13  1  0  0  0  0
  8 22  1  1  0  0  0
  9 12  1  0  0  0  0
  9 23  1  1  0  0  0
 10 15  1  0  0  0  0
 10 16  1  0  0  0  0
 10 24  1  6  0  0  0
 11 12  1  0  0  0  0
 11 17  1  0  0  0  0
 12 25  1  0  0  0  0
 13 14  1  0  0  0  0
 13 26  1  6  0  0  0
 14 15  1  0  0  0  0
 14 18  1  0  0  0  0
 14 27  1  1  0  0  0
 15 28  1  0  0  0  0
 15 29  1  0  0  0  0
 16 20  1  0  0  0  0
 16 30  1  0  0  0  0
 17 31  1  0  0  0  0
 17 32  1  0  0  0  0
 17 33  1  0  0  0  0
 18 19  1  0  0  0  0
 18 21  2  0  0  0  0
 20 35  1  0  0  0  0
 20 36  1  0  0  0  0
 20 37  1  0  0  0  0
 21 39  1  0  0  0  0
 21 40  1  0  0  0  0
M  END
> <PUBCHEM_COMPOUND_CID>
442178

> <PUBCHEM_COMPOUND_CANONICALIZED>
1

> <PUBCHEM_CACTVS_COMPLEXITY>
550

> <PUBCHEM_CACTVS_HBOND_ACCEPTOR>
5

> <PUBCHEM_CACTVS_HBOND_DONOR>
2

> <PUBCHEM_CACTVS_ROTATABLE_BOND>
1

> <PUBCHEM_CACTVS_SUBSKEYS>
AAADceBwOAAEAAAAAAAAAAAAEgAAAaIAAAA0QAAAAAAAAGiQAAAAGgIACAAADVeggEICCAAABgCIAgDSCAAAAAAgAAAAAAEAA0gAFBIBIQACQAAFwAAAIIHK6PyOgAAAAAAAAADAAAYQADAAAZSADIQAAA==

> <PUBCHEM_IUPAC_INCHI>
InChI=1S/C15H19ClO5/c1-5-7-4-8(6(2)17)15-10(9(7)20-13(5)18)14(3,19)11(16)12(15)21-15/h6-12,17,19H,1,4H2,2-3H3/t6-,7-,8-,9-,10-,11+,12+,14+,15-/m0/s1

> <PUBCHEM_IUPAC_INCHIKEY>
VTKBHHKUNBJMHE-HWXSHQRMSA-N

> <PUBCHEM_XLOGP3_AA>
0.6

> <PUBCHEM_EXACT_MASS>
314.092101

> <PUBCHEM_MOLECULAR_FORMULA>
C15H19ClO5

> <PUBCHEM_MOLECULAR_WEIGHT>
314.76136

> <PUBCHEM_OPENEYE_CAN_SMILES>
CC(C1CC2C(C3C14C(O4)C(C3(C)O)Cl)OC(=O)C2=C)O

> <PUBCHEM_OPENEYE_ISO_SMILES>
C[C@@H]([C@@H]1C[C@@H]2[C@@H]([C@@H]3[C@]14[C@H](O4)[C@H]([C@]3(C)O)Cl)OC(=O)C2=C)O

> <PUBCHEM_CACTVS_TPSA>
79.3

> <PUBCHEM_MONOISOTOPIC_WEIGHT>
314.092101

> <PUBCHEM_TOTAL_CHARGE>
0

> <PUBCHEM_HEAVY_ATOM_COUNT>
21

> <PUBCHEM_ATOM_DEF_STEREO_COUNT>
9

> <PUBCHEM_ATOM_UDEF_STEREO_COUNT>
0

> <PUBCHEM_BOND_DEF_STEREO_COUNT>
0

> <PUBCHEM_BOND_UDEF_STEREO_COUNT>
0

> <PUBCHEM_ISOTOPIC_ATOM_COUNT>
0

> <PUBCHEM_COMPONENT_COUNT>
1

> <PUBCHEM_CACTVS_TAUTO_COUNT>
1

> <PUBCHEM_COORDINATE_TYPE>
1
5
255

> <PUBCHEM_BONDANNOTATIONS>
12  1  5
10  24  6
13  26  6
14  27  5
7  2  6
11  4  6
16  5  5
8  22  5
9  23  5

$$$$

