440003
  -OEChem-07051212482D

 35 36  0     1  0  0  0  0  0999 V2000
    7.6138   -0.5562    0.0000 O   0  0  0  0  0  0  0  0  0  0  0  0
    6.3246   -1.7130    0.0000 O   0  0  0  0  0  0  0  0  0  0  0  0
    7.9244    0.3943    0.0000 O   0  0  0  0  0  0  0  0  0  0  0  0
    8.8564    3.2458    0.0000 O   0  0  0  0  0  0  0  0  0  0  0  0
    9.2136    1.5510    0.0000 O   0  0  0  0  0  0  0  0  0  0  0  0
    4.6783   -2.7844    0.0000 N   0  0  0  0  0  0  0  0  0  0  0  0
    6.2781    0.9324    0.0000 N   0  0  0  0  0  0  0  0  0  0  0  0
    4.9889   -0.2244    0.0000 C   0  0  0  0  0  0  0  0  0  0  0  0
    4.6783   -1.1749    0.0000 C   0  0  0  0  0  0  0  0  0  0  0  0
    5.9674   -0.0182    0.0000 C   0  0  2  0  0  0  0  0  0  0  0  0
    3.7320   -1.4796    0.0000 C   0  0  0  0  0  0  0  0  0  0  0  0
    3.7320   -2.4796    0.0000 C   0  0  0  0  0  0  0  0  0  0  0  0
    5.2619   -1.9796    0.0000 C   0  0  0  0  0  0  0  0  0  0  0  0
    2.8660   -0.9796    0.0000 C   0  0  0  0  0  0  0  0  0  0  0  0
    6.6353   -0.7625    0.0000 C   0  0  0  0  0  0  0  0  0  0  0  0
    2.8660   -2.9796    0.0000 C   0  0  0  0  0  0  0  0  0  0  0  0
    2.0000   -1.4796    0.0000 C   0  0  0  0  0  0  0  0  0  0  0  0
    7.2566    1.1386    0.0000 C   0  0  0  0  0  0  0  0  0  0  0  0
    2.0000   -2.4796    0.0000 C   0  0  0  0  0  0  0  0  0  0  0  0
    7.5673    2.0891    0.0000 C   0  0  0  0  0  0  0  0  0  0  0  0
    8.5458    2.2953    0.0000 C   0  0  0  0  0  0  0  0  0  0  0  0
    4.9684    0.3953    0.0000 H   0  0  0  0  0  0  0  0  0  0  0  0
    4.3751   -0.1370    0.0000 H   0  0  0  0  0  0  0  0  0  0  0  0
    5.5534    0.4433    0.0000 H   0  0  0  0  0  0  0  0  0  0  0  0
    5.8819   -1.9796    0.0000 H   0  0  0  0  0  0  0  0  0  0  0  0
    4.8709   -3.3737    0.0000 H   0  0  0  0  0  0  0  0  0  0  0  0
    5.8640    1.3938    0.0000 H   0  0  0  0  0  0  0  0  0  0  0  0
    2.8660   -0.3596    0.0000 H   0  0  0  0  0  0  0  0  0  0  0  0
    2.8660   -3.5996    0.0000 H   0  0  0  0  0  0  0  0  0  0  0  0
    1.4631   -1.1696    0.0000 H   0  0  0  0  0  0  0  0  0  0  0  0
    1.4631   -2.7896    0.0000 H   0  0  0  0  0  0  0  0  0  0  0  0
    7.5467    2.7088    0.0000 H   0  0  0  0  0  0  0  0  0  0  0  0
    6.9534    2.1764    0.0000 H   0  0  0  0  0  0  0  0  0  0  0  0
    8.0279   -1.0177    0.0000 H   0  0  0  0  0  0  0  0  0  0  0  0
    9.4631    3.3737    0.0000 H   0  0  0  0  0  0  0  0  0  0  0  0
  1 15  1  0  0  0  0
  1 34  1  0  0  0  0
  2 15  2  0  0  0  0
  3 18  2  0  0  0  0
  4 21  1  0  0  0  0
  4 35  1  0  0  0  0
  5 21  2  0  0  0  0
  6 12  1  0  0  0  0
  6 13  1  0  0  0  0
  6 26  1  0  0  0  0
 10  7  1  1  0  0  0
  7 18  1  0  0  0  0
  7 27  1  0  0  0  0
  8  9  1  0  0  0  0
  8 10  1  0  0  0  0
  8 22  1  0  0  0  0
  8 23  1  0  0  0  0
  9 11  1  0  0  0  0
  9 13  2  0  0  0  0
 10 15  1  0  0  0  0
 10 24  1  0  0  0  0
 11 12  1  0  0  0  0
 11 14  2  0  0  0  0
 12 16  2  0  0  0  0
 13 25  1  0  0  0  0
 14 17  1  0  0  0  0
 14 28  1  0  0  0  0
 16 19  1  0  0  0  0
 16 29  1  0  0  0  0
 17 19  2  0  0  0  0
 17 30  1  0  0  0  0
 18 20  1  0  0  0  0
 19 31  1  0  0  0  0
 20 21  1  0  0  0  0
 20 32  1  0  0  0  0
 20 33  1  0  0  0  0
M  END
> <PUBCHEM_COMPOUND_CID>
440003

> <PUBCHEM_COMPOUND_CANONICALIZED>
1

> <PUBCHEM_CACTVS_COMPLEXITY>
426

> <PUBCHEM_CACTVS_HBOND_ACCEPTOR>
5

> <PUBCHEM_CACTVS_HBOND_DONOR>
4

> <PUBCHEM_CACTVS_ROTATABLE_BOND>
6

> <PUBCHEM_CACTVS_SUBSKEYS>
AAADccBzOAAAAAAAAAAAAAAAAAAAAWAAAAAwAAAAAAAAAFgB8AAAHgAQCAAADCjBngQ8yPLJkgCoAzX3XACCgCAxAiAI2aG4ZJgKIP7IkbGEYAhmtgDYyAeY2fKOgAAAAAACAAAAAAAAAAQAAAAAAAAAAA==

> <PUBCHEM_IUPAC_OPENEYE_NAME>
(2R)-2-[(2-carboxyacetyl)amino]-3-(1H-indol-3-yl)propanoic acid

> <PUBCHEM_IUPAC_CAS_NAME>
(2R)-2-[(2-carboxy-1-oxoethyl)amino]-3-(1H-indol-3-yl)propanoic acid

> <PUBCHEM_IUPAC_NAME>
(2R)-2-[(2-carboxyacetyl)amino]-3-(1H-indol-3-yl)propanoic acid

> <PUBCHEM_IUPAC_SYSTEMATIC_NAME>
(2R)-3-(1H-indol-3-yl)-2-[(3-oxidanyl-3-oxidanylidene-propanoyl)amino]propanoic acid

> <PUBCHEM_IUPAC_TRADITIONAL_NAME>
(2R)-2-[(2-carboxyacetyl)amino]-3-(1H-indol-3-yl)propionic acid

> <PUBCHEM_IUPAC_INCHI>
InChI=1S/C14H14N2O5/c17-12(6-13(18)19)16-11(14(20)21)5-8-7-15-10-4-2-1-3-9(8)10/h1-4,7,11,15H,5-6H2,(H,16,17)(H,18,19)(H,20,21)/t11-/m1/s1

> <PUBCHEM_IUPAC_INCHIKEY>
OVEAWSPZRGBTSS-LLVKDONJSA-N

> <PUBCHEM_XLOGP3>
0.3

> <PUBCHEM_EXACT_MASS>
290.090272

> <PUBCHEM_MOLECULAR_FORMULA>
C14H14N2O5

> <PUBCHEM_MOLECULAR_WEIGHT>
290.27136

> <PUBCHEM_OPENEYE_CAN_SMILES>
C1=CC=C2C(=C1)C(=CN2)CC(C(=O)O)NC(=O)CC(=O)O

> <PUBCHEM_OPENEYE_ISO_SMILES>
C1=CC=C2C(=C1)C(=CN2)C[C@H](C(=O)O)NC(=O)CC(=O)O

> <PUBCHEM_CACTVS_TPSA>
120

> <PUBCHEM_MONOISOTOPIC_WEIGHT>
290.090272

> <PUBCHEM_TOTAL_CHARGE>
0

> <PUBCHEM_HEAVY_ATOM_COUNT>
21

> <PUBCHEM_ATOM_DEF_STEREO_COUNT>
1

> <PUBCHEM_ATOM_UDEF_STEREO_COUNT>
0

> <PUBCHEM_BOND_DEF_STEREO_COUNT>
0

> <PUBCHEM_BOND_UDEF_STEREO_COUNT>
0

> <PUBCHEM_ISOTOPIC_ATOM_COUNT>
0

> <PUBCHEM_COMPONENT_COUNT>
1

> <PUBCHEM_CACTVS_TAUTO_COUNT>
2

> <PUBCHEM_COORDINATE_TYPE>
1
5
255

> <PUBCHEM_BONDANNOTATIONS>
11  12  8
11  14  8
12  16  8
14  17  8
16  19  8
17  19  8
6  12  8
6  13  8
10  7  5
9  11  8
9  13  8

$$$$

