165581
  -OEChem-07051213102D

 32 32  0     0  0  0  0  0  0999 V2000
    4.2690    2.5280    0.0000 O   0  0  0  0  0  0  0  0  0  0  0  0
    2.5369    1.5280    0.0000 O   0  0  0  0  0  0  0  0  0  0  0  0
    6.8671   -1.9720    0.0000 N   0  3  0  0  0  0  0  0  0  0  0  0
    6.0010   -1.4720    0.0000 C   0  0  0  0  0  0  0  0  0  0  0  0
    6.0010   -0.4720    0.0000 C   0  0  0  0  0  0  0  0  0  0  0  0
    7.7331   -2.4720    0.0000 C   0  0  0  0  0  0  0  0  0  0  0  0
    6.3671   -2.8380    0.0000 C   0  0  0  0  0  0  0  0  0  0  0  0
    7.3671   -1.1060    0.0000 C   0  0  0  0  0  0  0  0  0  0  0  0
    5.1350    0.0280    0.0000 C   0  0  0  0  0  0  0  0  0  0  0  0
    5.1350    1.0280    0.0000 C   0  0  0  0  0  0  0  0  0  0  0  0
    4.2690   -0.4720    0.0000 C   0  0  0  0  0  0  0  0  0  0  0  0
    4.2690    1.5280    0.0000 C   0  0  0  0  0  0  0  0  0  0  0  0
    3.4030    0.0280    0.0000 C   0  0  0  0  0  0  0  0  0  0  0  0
    3.4030    1.0280    0.0000 C   0  0  0  0  0  0  0  0  0  0  0  0
    5.3905   -1.3643    0.0000 H   0  0  0  0  0  0  0  0  0  0  0  0
    5.7890   -2.0546    0.0000 H   0  0  0  0  0  0  0  0  0  0  0  0
    6.6116   -0.5796    0.0000 H   0  0  0  0  0  0  0  0  0  0  0  0
    6.2131    0.1106    0.0000 H   0  0  0  0  0  0  0  0  0  0  0  0
    7.4231   -3.0089    0.0000 H   0  0  0  0  0  0  0  0  0  0  0  0
    8.2700   -2.7820    0.0000 H   0  0  0  0  0  0  0  0  0  0  0  0
    8.0431   -1.9350    0.0000 H   0  0  0  0  0  0  0  0  0  0  0  0
    5.8301   -2.5280    0.0000 H   0  0  0  0  0  0  0  0  0  0  0  0
    6.0571   -3.3750    0.0000 H   0  0  0  0  0  0  0  0  0  0  0  0
    6.9040   -3.1480    0.0000 H   0  0  0  0  0  0  0  0  0  0  0  0
    7.9040   -1.4160    0.0000 H   0  0  0  0  0  0  0  0  0  0  0  0
    7.6771   -0.5690    0.0000 H   0  0  0  0  0  0  0  0  0  0  0  0
    6.8301   -0.7960    0.0000 H   0  0  0  0  0  0  0  0  0  0  0  0
    5.6720    1.3380    0.0000 H   0  0  0  0  0  0  0  0  0  0  0  0
    4.2690   -1.0920    0.0000 H   0  0  0  0  0  0  0  0  0  0  0  0
    2.8660   -0.2820    0.0000 H   0  0  0  0  0  0  0  0  0  0  0  0
    4.8059    2.8380    0.0000 H   0  0  0  0  0  0  0  0  0  0  0  0
    2.0000    1.2180    0.0000 H   0  0  0  0  0  0  0  0  0  0  0  0
  1 12  1  0  0  0  0
  1 31  1  0  0  0  0
  2 14  1  0  0  0  0
  2 32  1  0  0  0  0
  3  4  1  0  0  0  0
  3  6  1  0  0  0  0
  3  7  1  0  0  0  0
  3  8  1  0  0  0  0
  4  5  1  0  0  0  0
  4 15  1  0  0  0  0
  4 16  1  0  0  0  0
  5  9  1  0  0  0  0
  5 17  1  0  0  0  0
  5 18  1  0  0  0  0
  6 19  1  0  0  0  0
  6 20  1  0  0  0  0
  6 21  1  0  0  0  0
  7 22  1  0  0  0  0
  7 23  1  0  0  0  0
  7 24  1  0  0  0  0
  8 25  1  0  0  0  0
  8 26  1  0  0  0  0
  8 27  1  0  0  0  0
  9 10  2  0  0  0  0
  9 11  1  0  0  0  0
 10 12  1  0  0  0  0
 10 28  1  0  0  0  0
 11 13  2  0  0  0  0
 11 29  1  0  0  0  0
 12 14  2  0  0  0  0
 13 14  1  0  0  0  0
 13 30  1  0  0  0  0
M  CHG  1   3   1
M  END
> <PUBCHEM_COMPOUND_CID>
165581

> <PUBCHEM_COMPOUND_CANONICALIZED>
1

> <PUBCHEM_CACTVS_COMPLEXITY>
177

> <PUBCHEM_CACTVS_HBOND_ACCEPTOR>
2

> <PUBCHEM_CACTVS_HBOND_DONOR>
2

> <PUBCHEM_CACTVS_ROTATABLE_BOND>
3

> <PUBCHEM_CACTVS_SUBSKEYS>
AAADceByMAAAAAAAAAAAAAAAAAAAAAAAAAAwAAAAAAAAAAABAAAAHgAACAAADATBmAQyBoMAAgCAAiBCAAACAAAgIAAIiAAOiIgJJiKCkROEcAEkwBEJmAeQ0LIOIAABAAAAQABAAAIAAACAAAAAAAAAAA==

> <PUBCHEM_IUPAC_OPENEYE_NAME>
2-(3,4-dihydroxyphenyl)ethyl-trimethyl-ammonium

> <PUBCHEM_IUPAC_CAS_NAME>
2-(3,4-dihydroxyphenyl)ethyl-trimethylammonium

> <PUBCHEM_IUPAC_NAME>
2-(3,4-dihydroxyphenyl)ethyl-trimethylazanium

> <PUBCHEM_IUPAC_SYSTEMATIC_NAME>
2-[3,4-bis(oxidanyl)phenyl]ethyl-trimethyl-azanium

> <PUBCHEM_IUPAC_TRADITIONAL_NAME>
2-(3,4-dihydroxyphenyl)ethyl-trimethyl-ammonium

> <PUBCHEM_IUPAC_INCHI>
InChI=1S/C11H17NO2/c1-12(2,3)7-6-9-4-5-10(13)11(14)8-9/h4-5,8H,6-7H2,1-3H3,(H-,13,14)/p+1

> <PUBCHEM_IUPAC_INCHIKEY>
VDTBORSEFUUDTP-UHFFFAOYSA-O

> <PUBCHEM_XLOGP3>
0

> <PUBCHEM_EXACT_MASS>
196.133754

> <PUBCHEM_MOLECULAR_FORMULA>
C11H18NO2+

> <PUBCHEM_MOLECULAR_WEIGHT>
196.26612

> <PUBCHEM_OPENEYE_CAN_SMILES>
C[N+](C)(C)CCC1=CC(=C(C=C1)O)O

> <PUBCHEM_OPENEYE_ISO_SMILES>
C[N+](C)(C)CCC1=CC(=C(C=C1)O)O

> <PUBCHEM_CACTVS_TPSA>
40.5

> <PUBCHEM_MONOISOTOPIC_WEIGHT>
196.133754

> <PUBCHEM_TOTAL_CHARGE>
1

> <PUBCHEM_HEAVY_ATOM_COUNT>
14

> <PUBCHEM_ATOM_DEF_STEREO_COUNT>
0

> <PUBCHEM_ATOM_UDEF_STEREO_COUNT>
0

> <PUBCHEM_BOND_DEF_STEREO_COUNT>
0

> <PUBCHEM_BOND_UDEF_STEREO_COUNT>
0

> <PUBCHEM_ISOTOPIC_ATOM_COUNT>
0

> <PUBCHEM_COMPONENT_COUNT>
1

> <PUBCHEM_CACTVS_TAUTO_COUNT>
18

> <PUBCHEM_COORDINATE_TYPE>
1
5
255

> <PUBCHEM_BONDANNOTATIONS>
10  12  8
11  13  8
12  14  8
13  14  8
9  10  8
9  11  8

$$$$

