3771
  -OEChem-06251223392D

 83 88  0     1  0  0  0  0  0999 V2000
    5.0474   -0.1419    0.0000 P   0  0  3  0  0  0  0  0  0  0  0  0
    5.4104    1.5517    0.0000 P   0  0  3  0  0  0  0  0  0  0  0  0
    4.4026   -3.5950    0.0000 O   0  0  0  0  0  0  0  0  0  0  0  0
    7.4382    3.8810    0.0000 O   0  0  0  0  0  0  0  0  0  0  0  0
    6.7523   -2.5113    0.0000 O   0  0  0  0  0  0  0  0  0  0  0  0
    6.7485   -4.6869    0.0000 O   0  0  0  0  0  0  0  0  0  0  0  0
    5.3248    5.3741    0.0000 O   0  0  0  0  0  0  0  0  0  0  0  0
    7.2108    6.4586    0.0000 O   0  0  0  0  0  0  0  0  0  0  0  0
    5.3548   -1.0934    0.0000 O   0  0  0  0  0  0  0  0  0  0  0  0
    6.0809    2.2937    0.0000 O   0  0  0  0  0  0  0  0  0  0  0  0
    4.7400    0.8097    0.0000 O   0  0  0  0  0  0  0  0  0  0  0  0
    5.9990    0.1655    0.0000 O   0  0  0  0  0  0  0  0  0  0  0  0
    4.6685    2.2221    0.0000 O   0  0  0  0  0  0  0  0  0  0  0  0
    4.0958   -0.4492    0.0000 O   0  0  0  0  0  0  0  0  0  0  0  0
    6.1524    0.8813    0.0000 O   0  0  0  0  0  0  0  0  0  0  0  0
   12.1178    3.9239    0.0000 O   0  0  0  0  0  0  0  0  0  0  0  0
   12.4284    4.8744    0.0000 O   0  0  0  0  0  0  0  0  0  0  0  0
    4.6783   -5.3556    0.0000 N   0  0  0  0  0  0  0  0  0  0  0  0
    8.8251    5.0001    0.0000 N   0  3  0  0  0  0  0  0  0  0  0  0
    4.6783   -6.9650    0.0000 N   0  0  0  0  0  0  0  0  0  0  0  0
    2.8660   -5.1603    0.0000 N   0  0  0  0  0  0  0  0  0  0  0  0
    2.0000   -6.6603    0.0000 N   0  0  0  0  0  0  0  0  0  0  0  0
    2.8660   -8.1603    0.0000 N   0  0  0  0  0  0  0  0  0  0  0  0
   10.8286    2.7672    0.0000 N   0  0  0  0  0  0  0  0  0  0  0  0
   12.6926    8.4703    0.0000 N   0  0  0  0  0  0  0  0  0  0  0  0
    5.9422   -3.0977    0.0000 C   0  0  3  0  0  0  0  0  0  0  0  0
    5.9405   -4.0977    0.0000 C   0  0  3  0  0  0  0  0  0  0  0  0
    4.9917   -2.7870    0.0000 C   0  0  3  0  0  0  0  0  0  0  0  0
    4.9889   -4.4050    0.0000 C   0  0  3  0  0  0  0  0  0  0  0  0
    6.2377    4.9658    0.0000 C   0  0  3  0  0  0  0  0  0  0  0  0
    7.1046    5.4643    0.0000 C   0  0  3  0  0  0  0  0  0  0  0  0
    6.4439    3.9873    0.0000 C   0  0  3  0  0  0  0  0  0  0  0  0
    7.8466    4.7939    0.0000 C   0  0  3  0  0  0  0  0  0  0  0  0
    4.6844   -1.8354    0.0000 C   0  0  0  0  0  0  0  0  0  0  0  0
    5.7735    3.2453    0.0000 C   0  0  0  0  0  0  0  0  0  0  0  0
    3.7320   -5.6603    0.0000 C   0  0  0  0  0  0  0  0  0  0  0  0
    5.2619   -6.1603    0.0000 C   0  0  0  0  0  0  0  0  0  0  0  0
    9.4929    4.2558    0.0000 C   0  0  0  0  0  0  0  0  0  0  0  0
    9.1357    5.9506    0.0000 C   0  0  0  0  0  0  0  0  0  0  0  0
    3.7320   -6.6603    0.0000 C   0  0  0  0  0  0  0  0  0  0  0  0
   10.4714    4.4620    0.0000 C   0  0  0  0  0  0  0  0  0  0  0  0
   10.1142    6.1568    0.0000 C   0  0  0  0  0  0  0  0  0  0  0  0
   10.7821    5.4125    0.0000 C   0  0  0  0  0  0  0  0  0  0  0  0
    2.8660   -7.1603    0.0000 C   0  0  0  0  0  0  0  0  0  0  0  0
   11.1393    3.7177    0.0000 C   0  0  0  0  0  0  0  0  0  0  0  0
   11.7606    5.6188    0.0000 C   0  0  0  0  0  0  0  0  0  0  0  0
    2.0000   -5.6603    0.0000 C   0  0  0  0  0  0  0  0  0  0  0  0
   12.0713    6.5693    0.0000 C   0  0  0  0  0  0  0  0  0  0  0  0
   11.4034    7.3136    0.0000 C   0  0  0  0  0  0  0  0  0  0  0  0
   13.0498    6.7755    0.0000 C   0  0  0  0  0  0  0  0  0  0  0  0
   11.7141    8.2641    0.0000 C   0  0  0  0  0  0  0  0  0  0  0  0
   13.3604    7.7260    0.0000 C   0  0  0  0  0  0  0  0  0  0  0  0
    5.8463   -2.4852    0.0000 H   0  0  0  0  0  0  0  0  0  0  0  0
    5.8425   -4.7099    0.0000 H   0  0  0  0  0  0  0  0  0  0  0  0
    4.3795   -2.6890    0.0000 H   0  0  0  0  0  0  0  0  0  0  0  0
    5.4266   -4.8442    0.0000 H   0  0  0  0  0  0  0  0  0  0  0  0
    6.2063    5.5850    0.0000 H   0  0  0  0  0  0  0  0  0  0  0  0
    7.6838    5.6855    0.0000 H   0  0  0  0  0  0  0  0  0  0  0  0
    6.6651    3.4081    0.0000 H   0  0  0  0  0  0  0  0  0  0  0  0
    8.0081    5.3925    0.0000 H   0  0  0  0  0  0  0  0  0  0  0  0
    4.3035   -1.3462    0.0000 H   0  0  0  0  0  0  0  0  0  0  0  0
    4.1364   -2.1256    0.0000 H   0  0  0  0  0  0  0  0  0  0  0  0
    5.3926    3.7345    0.0000 H   0  0  0  0  0  0  0  0  0  0  0  0
    5.2256    2.9552    0.0000 H   0  0  0  0  0  0  0  0  0  0  0  0
    7.3182   -2.7645    0.0000 H   0  0  0  0  0  0  0  0  0  0  0  0
    7.3154   -4.4357    0.0000 H   0  0  0  0  0  0  0  0  0  0  0  0
    5.2611    5.9908    0.0000 H   0  0  0  0  0  0  0  0  0  0  0  0
    6.7099    6.8239    0.0000 H   0  0  0  0  0  0  0  0  0  0  0  0
    5.8819   -6.1603    0.0000 H   0  0  0  0  0  0  0  0  0  0  0  0
    9.3003    3.6665    0.0000 H   0  0  0  0  0  0  0  0  0  0  0  0
    8.7217    6.4121    0.0000 H   0  0  0  0  0  0  0  0  0  0  0  0
   10.3069    6.7462    0.0000 H   0  0  0  0  0  0  0  0  0  0  0  0
    1.4631   -5.3503    0.0000 H   0  0  0  0  0  0  0  0  0  0  0  0
    6.4590   -0.2501    0.0000 H   0  0  0  0  0  0  0  0  0  0  0  0
    4.0785    2.0316    0.0000 H   0  0  0  0  0  0  0  0  0  0  0  0
    2.3291   -8.4703    0.0000 H   0  0  0  0  0  0  0  0  0  0  0  0
    3.4030   -8.4703    0.0000 H   0  0  0  0  0  0  0  0  0  0  0  0
   11.2427    2.3057    0.0000 H   0  0  0  0  0  0  0  0  0  0  0  0
   10.2219    2.6393    0.0000 H   0  0  0  0  0  0  0  0  0  0  0  0
   10.7967    7.1857    0.0000 H   0  0  0  0  0  0  0  0  0  0  0  0
   13.4638    6.3140    0.0000 H   0  0  0  0  0  0  0  0  0  0  0  0
   11.3000    8.7256    0.0000 H   0  0  0  0  0  0  0  0  0  0  0  0
   13.9671    7.8539    0.0000 H   0  0  0  0  0  0  0  0  0  0  0  0
  1  9  1  0  0  0  0
  1 11  1  0  0  0  0
  1 12  1  0  0  0  0
  1 14  2  0  0  0  0
  2 10  1  0  0  0  0
  2 11  1  0  0  0  0
  2 13  1  0  0  0  0
  2 15  2  0  0  0  0
  3 28  1  0  0  0  0
  3 29  1  0  0  0  0
  4 32  1  0  0  0  0
  4 33  1  0  0  0  0
  5 26  1  0  0  0  0
  5 65  1  0  0  0  0
  6 27  1  0  0  0  0
  6 66  1  0  0  0  0
  7 30  1  0  0  0  0
  7 67  1  0  0  0  0
  8 31  1  0  0  0  0
  8 68  1  0  0  0  0
  9 34  1  0  0  0  0
 10 35  1  0  0  0  0
 12 74  1  0  0  0  0
 13 75  1  0  0  0  0
 16 45  2  0  0  0  0
 17 46  2  0  0  0  0
 18 29  1  0  0  0  0
 18 36  1  0  0  0  0
 18 37  1  0  0  0  0
 19 33  1  0  0  0  0
 19 38  2  0  0  0  0
 19 39  1  0  0  0  0
 20 37  2  0  0  0  0
 20 40  1  0  0  0  0
 21 36  2  0  0  0  0
 21 47  1  0  0  0  0
 22 44  1  0  0  0  0
 22 47  2  0  0  0  0
 23 44  1  0  0  0  0
 23 76  1  0  0  0  0
 23 77  1  0  0  0  0
 24 45  1  0  0  0  0
 24 78  1  0  0  0  0
 24 79  1  0  0  0  0
 25 51  2  0  0  0  0
 25 52  1  0  0  0  0
 26 27  1  0  0  0  0
 26 28  1  0  0  0  0
 26 53  1  0  0  0  0
 27 29  1  0  0  0  0
 27 54  1  0  0  0  0
 28 34  1  0  0  0  0
 28 55  1  0  0  0  0
 29 56  1  0  0  0  0
 30 31  1  0  0  0  0
 30 32  1  0  0  0  0
 30 57  1  0  0  0  0
 31 33  1  0  0  0  0
 31 58  1  0  0  0  0
 32 35  1  0  0  0  0
 32 59  1  0  0  0  0
 33 60  1  0  0  0  0
 34 61  1  0  0  0  0
 34 62  1  0  0  0  0
 35 63  1  0  0  0  0
 35 64  1  0  0  0  0
 36 40  1  0  0  0  0
 37 69  1  0  0  0  0
 38 41  1  0  0  0  0
 38 70  1  0  0  0  0
 39 42  2  0  0  0  0
 39 71  1  0  0  0  0
 40 44  2  0  0  0  0
 41 43  2  0  0  0  0
 41 45  1  0  0  0  0
 42 43  1  0  0  0  0
 42 72  1  0  0  0  0
 43 46  1  0  0  0  0
 46 48  1  0  0  0  0
 47 73  1  0  0  0  0
 48 49  2  0  0  0  0
 48 50  1  0  0  0  0
 49 51  1  0  0  0  0
 49 80  1  0  0  0  0
 50 52  2  0  0  0  0
 50 81  1  0  0  0  0
 51 82  1  0  0  0  0
 52 83  1  0  0  0  0
M  CHG  1  19   1
M  END
> <PUBCHEM_COMPOUND_CID>
3771

> <PUBCHEM_COMPOUND_CANONICALIZED>
1

> <PUBCHEM_CACTVS_COMPLEXITY>
1390

> <PUBCHEM_CACTVS_HBOND_ACCEPTOR>
20

> <PUBCHEM_CACTVS_HBOND_DONOR>
8

> <PUBCHEM_CACTVS_ROTATABLE_BOND>
13

> <PUBCHEM_CACTVS_SUBSKEYS>
AAADceB7/AMAAAAAAAAAAAAAAAAAAWJEgAAsWLAAAAAAAFgB/gAAHgAQCCAADBzhnwY98L9MFxCoQ7d3dICCgC01EqAJ2CE4dNiLeHrA3dGeZYhvgALbyef9uUKOgAAAAAAAAAAAAAAAAAAAAAAAAAAAAA==

> <PUBCHEM_IUPAC_OPENEYE_NAME>
[[5-(6-aminopurin-9-yl)-3,4-dihydroxy-tetrahydrofuran-2-yl]methoxy-hydroxy-phosphoryl] [5-[3-carbamoyl-4-(pyridine-4-carbonyl)pyridin-1-ium-1-yl]-3,4-dihydroxy-tetrahydrofuran-2-yl]methyl hydrogen phosphate

> <PUBCHEM_IUPAC_CAS_NAME>
[[5-(6-aminopurin-9-yl)-3,4-dihydroxy-2-oxolanyl]methoxy-hydroxyphosphoryl] [5-[3-carbamoyl-4-[oxo(pyridin-4-yl)methyl]-1-pyridin-1-iumyl]-3,4-dihydroxy-2-oxolanyl]methyl hydrogen phosphate

> <PUBCHEM_IUPAC_NAME>
[[5-(6-aminopurin-9-yl)-3,4-dihydroxyoxolan-2-yl]methoxy-hydroxyphosphoryl] [5-[3-carbamoyl-4-(pyridine-4-carbonyl)pyridin-1-ium-1-yl]-3,4-dihydroxyoxolan-2-yl]methyl hydrogen phosphate

> <PUBCHEM_IUPAC_SYSTEMATIC_NAME>
[[5-(3-aminocarbonyl-4-pyridin-4-ylcarbonyl-pyridin-1-ium-1-yl)-3,4-bis(oxidanyl)oxolan-2-yl]methoxy-oxidanyl-phosphoryl] [5-(6-aminopurin-9-yl)-3,4-bis(oxidanyl)oxolan-2-yl]methyl hydrogen phosphate

> <PUBCHEM_IUPAC_TRADITIONAL_NAME>
[(5-adenin-9-yl-3,4-dihydroxy-tetrahydrofuran-2-yl)methoxy-hydroxy-phosphoryl] [5-(3-carbamoyl-4-isonicotinoyl-pyridin-1-ium-1-yl)-3,4-dihydroxy-tetrahydrofuran-2-yl]methyl hydrogen phosphate

> <PUBCHEM_IUPAC_INCHI>
InChI=1S/C27H30N8O15P2/c28-23-17-25(32-10-31-23)35(11-33-17)27-22(40)20(38)16(49-27)9-47-52(44,45)50-51(42,43)46-8-15-19(37)21(39)26(48-15)34-6-3-13(14(7-34)24(29)41)18(36)12-1-4-30-5-2-12/h1-7,10-11,15-16,19-22,26-27,37-40H,8-9H2,(H5-,28,29,31,32,41,42,43,44,45)/p+1

> <PUBCHEM_IUPAC_INCHIKEY>
SURAWYIAXPVHGO-UHFFFAOYSA-O

> <PUBCHEM_XLOGP3>
-5.7

> <PUBCHEM_EXACT_MASS>
769.138411

> <PUBCHEM_MOLECULAR_FORMULA>
C27H31N8O15P2+

> <PUBCHEM_MOLECULAR_WEIGHT>
769.527164

> <PUBCHEM_OPENEYE_CAN_SMILES>
C1=CN=CC=C1C(=O)C2=C(C=[N+](C=C2)C3C(C(C(O3)COP(=O)(O)OP(=O)(O)OCC4C(C(C(O4)N5C=NC6=C5N=CN=C6N)O)O)O)O)C(=O)N

> <PUBCHEM_OPENEYE_ISO_SMILES>
C1=CN=CC=C1C(=O)C2=C(C=[N+](C=C2)C3C(C(C(O3)COP(=O)(O)OP(=O)(O)OCC4C(C(C(O4)N5C=NC6=C5N=CN=C6N)O)O)O)O)C(=O)N

> <PUBCHEM_CACTVS_TPSA>
348

> <PUBCHEM_MONOISOTOPIC_WEIGHT>
769.138411

> <PUBCHEM_TOTAL_CHARGE>
1

> <PUBCHEM_HEAVY_ATOM_COUNT>
52

> <PUBCHEM_ATOM_DEF_STEREO_COUNT>
0

> <PUBCHEM_ATOM_UDEF_STEREO_COUNT>
8

> <PUBCHEM_BOND_DEF_STEREO_COUNT>
0

> <PUBCHEM_BOND_UDEF_STEREO_COUNT>
0

> <PUBCHEM_ISOTOPIC_ATOM_COUNT>
0

> <PUBCHEM_COMPONENT_COUNT>
1

> <PUBCHEM_CACTVS_TAUTO_COUNT>
6

> <PUBCHEM_COORDINATE_TYPE>
1
5
255

> <PUBCHEM_BONDANNOTATIONS>
29  18  3
18  36  8
18  37  8
33  19  3
19  38  8
19  39  8
20  37  8
20  40  8
21  36  8
21  47  8
22  44  8
22  47  8
25  51  8
25  52  8
28  34  3
32  35  3
36  40  8
38  41  8
39  42  8
40  44  8
41  43  8
42  43  8
48  49  8
48  50  8
49  51  8
26  5  3
50  52  8
27  6  3
30  7  3
31  8  3

$$$$

