441764
  -OEChem-07051212562D

 57 61  0     1  0  0  0  0  0999 V2000
    6.8936    1.4311    0.0000 O   0  0  0  0  0  0  0  0  0  0  0  0
   11.3039    0.1264    0.0000 O   0  0  0  0  0  0  0  0  0  0  0  0
    7.2508   -1.8732    0.0000 O   0  0  0  0  0  0  0  0  0  0  0  0
    8.7058    2.6264    0.0000 O   0  0  0  0  0  0  0  0  0  0  0  0
    9.5719   -1.8736    0.0000 O   0  0  0  0  0  0  0  0  0  0  0  0
   11.3039   -2.8736    0.0000 O   0  0  0  0  0  0  0  0  0  0  0  0
    3.3100    2.3584    0.0000 O   0  0  0  0  0  0  0  0  0  0  0  0
   13.0523   -2.9082    0.0000 O   0  0  0  0  0  0  0  0  0  0  0  0
    2.3100    0.6264    0.0000 O   0  0  0  0  0  0  0  0  0  0  0  0
   14.8341    0.1505    0.0000 O   0  0  0  0  0  0  0  0  0  0  0  0
    6.8936   -0.1784    0.0000 C   0  0  1  0  0  0  0  0  0  0  0  0
    6.3100    0.6264    0.0000 C   0  0  2  0  0  0  0  0  0  0  0  0
    7.8398    0.1264    0.0000 C   0  0  0  0  0  0  0  0  0  0  0  0
    7.8398    1.1264    0.0000 C   0  0  0  0  0  0  0  0  0  0  0  0
    9.5719    0.1264    0.0000 C   0  0  0  0  0  0  0  0  0  0  0  0
    6.5830   -1.1289    0.0000 C   0  0  0  0  0  0  0  0  0  0  0  0
    8.7058   -0.3736    0.0000 C   0  0  0  0  0  0  0  0  0  0  0  0
   10.4379   -0.3736    0.0000 C   0  0  2  0  0  0  0  0  0  0  0  0
    5.3100    0.6264    0.0000 C   0  0  0  0  0  0  0  0  0  0  0  0
    8.7058    1.6264    0.0000 C   0  0  0  0  0  0  0  0  0  0  0  0
   10.4379   -1.3736    0.0000 C   0  0  2  0  0  0  0  0  0  0  0  0
    9.5719    1.1264    0.0000 C   0  0  0  0  0  0  0  0  0  0  0  0
    4.8100    1.4924    0.0000 C   0  0  0  0  0  0  0  0  0  0  0  0
   11.3039   -1.8736    0.0000 C   0  0  0  0  0  0  0  0  0  0  0  0
    4.8100   -0.2397    0.0000 C   0  0  0  0  0  0  0  0  0  0  0  0
   12.1700   -1.3736    0.0000 C   0  0  0  0  0  0  0  0  0  0  0  0
   12.1700   -0.3736    0.0000 C   0  0  0  0  0  0  0  0  0  0  0  0
    3.8100    1.4924    0.0000 C   0  0  0  0  0  0  0  0  0  0  0  0
    3.8100   -0.2397    0.0000 C   0  0  0  0  0  0  0  0  0  0  0  0
   13.0639   -1.9083    0.0000 C   0  0  0  0  0  0  0  0  0  0  0  0
    3.3100    0.6264    0.0000 C   0  0  0  0  0  0  0  0  0  0  0  0
   13.0639    0.1610    0.0000 C   0  0  0  0  0  0  0  0  0  0  0  0
   13.9700   -0.3528    0.0000 C   0  0  0  0  0  0  0  0  0  0  0  0
   13.9700   -1.3945    0.0000 C   0  0  0  0  0  0  0  0  0  0  0  0
    3.8100    3.2244    0.0000 C   0  0  0  0  0  0  0  0  0  0  0  0
    6.2811   -0.2746    0.0000 H   0  0  0  0  0  0  0  0  0  0  0  0
    6.0283    0.0741    0.0000 H   0  0  0  0  0  0  0  0  0  0  0  0
    6.0360   -0.8369    0.0000 H   0  0  0  0  0  0  0  0  0  0  0  0
    6.2004   -1.6168    0.0000 H   0  0  0  0  0  0  0  0  0  0  0  0
    8.7058   -0.9936    0.0000 H   0  0  0  0  0  0  0  0  0  0  0  0
   10.4379    0.2464    0.0000 H   0  0  0  0  0  0  0  0  0  0  0  0
   10.4379   -1.9936    0.0000 H   0  0  0  0  0  0  0  0  0  0  0  0
   10.1088    1.4364    0.0000 H   0  0  0  0  0  0  0  0  0  0  0  0
    5.1200    2.0293    0.0000 H   0  0  0  0  0  0  0  0  0  0  0  0
    5.1200   -0.7766    0.0000 H   0  0  0  0  0  0  0  0  0  0  0  0
    7.0582   -2.4625    0.0000 H   0  0  0  0  0  0  0  0  0  0  0  0
    3.5000   -0.7766    0.0000 H   0  0  0  0  0  0  0  0  0  0  0  0
    9.2428    2.9364    0.0000 H   0  0  0  0  0  0  0  0  0  0  0  0
    9.5719   -2.4936    0.0000 H   0  0  0  0  0  0  0  0  0  0  0  0
   13.0567    0.7810    0.0000 H   0  0  0  0  0  0  0  0  0  0  0  0
   14.5057   -1.7065    0.0000 H   0  0  0  0  0  0  0  0  0  0  0  0
   13.5856   -3.2244    0.0000 H   0  0  0  0  0  0  0  0  0  0  0  0
    2.0000    0.0894    0.0000 H   0  0  0  0  0  0  0  0  0  0  0  0
    4.3469    2.9144    0.0000 H   0  0  0  0  0  0  0  0  0  0  0  0
    4.1200    3.7614    0.0000 H   0  0  0  0  0  0  0  0  0  0  0  0
    3.2731    3.5344    0.0000 H   0  0  0  0  0  0  0  0  0  0  0  0
   15.3722   -0.1574    0.0000 H   0  0  0  0  0  0  0  0  0  0  0  0
  1 12  1  0  0  0  0
  1 14  1  0  0  0  0
  2 18  1  0  0  0  0
  2 27  1  0  0  0  0
  3 16  1  0  0  0  0
  3 46  1  0  0  0  0
  4 20  1  0  0  0  0
  4 48  1  0  0  0  0
 21  5  1  6  0  0  0
  5 49  1  0  0  0  0
  6 24  2  0  0  0  0
  7 28  1  0  0  0  0
  7 35  1  0  0  0  0
  8 30  1  0  0  0  0
  8 52  1  0  0  0  0
  9 31  1  0  0  0  0
  9 53  1  0  0  0  0
 10 33  1  0  0  0  0
 10 57  1  0  0  0  0
 11 12  1  0  0  0  0
 11 13  1  0  0  0  0
 11 16  1  1  0  0  0
 11 36  1  0  0  0  0
 12 19  1  6  0  0  0
 12 37  1  0  0  0  0
 13 14  2  0  0  0  0
 13 17  1  0  0  0  0
 14 20  1  0  0  0  0
 15 17  2  0  0  0  0
 18 15  1  1  0  0  0
 15 22  1  0  0  0  0
 16 38  1  0  0  0  0
 16 39  1  0  0  0  0
 17 40  1  0  0  0  0
 18 21  1  0  0  0  0
 18 41  1  0  0  0  0
 19 23  2  0  0  0  0
 19 25  1  0  0  0  0
 20 22  2  0  0  0  0
 21 24  1  0  0  0  0
 21 42  1  0  0  0  0
 22 43  1  0  0  0  0
 23 28  1  0  0  0  0
 23 44  1  0  0  0  0
 24 26  1  0  0  0  0
 25 29  2  0  0  0  0
 25 45  1  0  0  0  0
 26 27  1  0  0  0  0
 26 30  2  0  0  0  0
 27 32  2  0  0  0  0
 28 31  2  0  0  0  0
 29 31  1  0  0  0  0
 29 47  1  0  0  0  0
 30 34  1  0  0  0  0
 32 33  1  0  0  0  0
 32 50  1  0  0  0  0
 33 34  2  0  0  0  0
 34 51  1  0  0  0  0
 35 54  1  0  0  0  0
 35 55  1  0  0  0  0
 35 56  1  0  0  0  0
M  END
> <PUBCHEM_COMPOUND_CID>
441764

> <PUBCHEM_COMPOUND_CANONICALIZED>
1

> <PUBCHEM_CACTVS_COMPLEXITY>
765

> <PUBCHEM_CACTVS_HBOND_ACCEPTOR>
10

> <PUBCHEM_CACTVS_HBOND_DONOR>
6

> <PUBCHEM_CACTVS_ROTATABLE_BOND>
4

> <PUBCHEM_CACTVS_SUBSKEYS>
AAADceB4PAAAAAAAAAAAAAAAAAAAASAAAAA0YMEAAAAAAEiRUAAAGgAACAAADRSgmAIyBoAABgCIAqBSAAICCAAkIAAIiAFGiMgNNzaGNRqCeWOl4BULuQfI7PzOoAADCAAIQABAAAYQABCAAAAAAAAAAA==

> <PUBCHEM_IUPAC_OPENEYE_NAME>
(2R,3R)-3,5,7-trihydroxy-2-[(2R,3S)-7-hydroxy-2-(4-hydroxy-3-methoxy-phenyl)-3-(hydroxymethyl)-2,3-dihydrobenzofuran-5-yl]chroman-4-one

> <PUBCHEM_IUPAC_CAS_NAME>
(2R,3R)-3,5,7-trihydroxy-2-[(2R,3S)-7-hydroxy-2-(4-hydroxy-3-methoxyphenyl)-3-(hydroxymethyl)-2,3-dihydrobenzofuran-5-yl]-3,4-dihydro-2H-1-benzopyran-4-one

> <PUBCHEM_IUPAC_NAME>
(2R,3R)-3,5,7-trihydroxy-2-[(2R,3S)-7-hydroxy-2-(4-hydroxy-3-methoxyphenyl)-3-(hydroxymethyl)-2,3-dihydro-1-benzofuran-5-yl]-2,3-dihydrochromen-4-one

> <PUBCHEM_IUPAC_SYSTEMATIC_NAME>
(2R,3R)-2-[(2R,3S)-3-(hydroxymethyl)-2-(3-methoxy-4-oxidanyl-phenyl)-7-oxidanyl-2,3-dihydro-1-benzofuran-5-yl]-3,5,7-tris(oxidanyl)-2,3-dihydrochromen-4-one

> <PUBCHEM_IUPAC_TRADITIONAL_NAME>
(2R,3R)-3,5,7-trihydroxy-2-[(2R,3S)-7-hydroxy-2-(4-hydroxy-3-methoxy-phenyl)-3-methylol-coumaran-5-yl]chroman-4-one

> <PUBCHEM_IUPAC_INCHI>
InChI=1S/C25H22O10/c1-33-18-6-10(2-3-15(18)28)23-14(9-26)13-4-11(5-17(30)25(13)35-23)24-22(32)21(31)20-16(29)7-12(27)8-19(20)34-24/h2-8,14,22-24,26-30,32H,9H2,1H3/t14-,22+,23+,24-/m1/s1

> <PUBCHEM_IUPAC_INCHIKEY>
BMLIIPOXVWESJG-LMBCONBSSA-N

> <PUBCHEM_XLOGP3_AA>
2.1

> <PUBCHEM_EXACT_MASS>
482.121297

> <PUBCHEM_MOLECULAR_FORMULA>
C25H22O10

> <PUBCHEM_MOLECULAR_WEIGHT>
482.43618

> <PUBCHEM_OPENEYE_CAN_SMILES>
COC1=C(C=CC(=C1)C2C(C3=C(O2)C(=CC(=C3)C4C(C(=O)C5=C(C=C(C=C5O4)O)O)O)O)CO)O

> <PUBCHEM_OPENEYE_ISO_SMILES>
COC1=C(C=CC(=C1)[C@H]2[C@@H](C3=C(O2)C(=CC(=C3)[C@@H]4[C@H](C(=O)C5=C(C=C(C=C5O4)O)O)O)O)CO)O

> <PUBCHEM_CACTVS_TPSA>
166

> <PUBCHEM_MONOISOTOPIC_WEIGHT>
482.121297

> <PUBCHEM_TOTAL_CHARGE>
0

> <PUBCHEM_HEAVY_ATOM_COUNT>
35

> <PUBCHEM_ATOM_DEF_STEREO_COUNT>
4

> <PUBCHEM_ATOM_UDEF_STEREO_COUNT>
0

> <PUBCHEM_BOND_DEF_STEREO_COUNT>
0

> <PUBCHEM_BOND_UDEF_STEREO_COUNT>
0

> <PUBCHEM_ISOTOPIC_ATOM_COUNT>
0

> <PUBCHEM_COMPONENT_COUNT>
1

> <PUBCHEM_CACTVS_TAUTO_COUNT>
994

> <PUBCHEM_COORDINATE_TYPE>
1
5
255

> <PUBCHEM_BONDANNOTATIONS>
11  16  5
12  19  6
13  14  8
13  17  8
14  20  8
15  17  8
18  15  5
15  22  8
19  23  8
19  25  8
20  22  8
23  28  8
25  29  8
26  27  8
26  30  8
27  32  8
28  31  8
29  31  8
30  34  8
32  33  8
33  34  8
21  5  6

$$$$

