   Color/Form
        Colorless volatile liquid
   from [1]HSDB

   Odor
        Acrid odor
   from [2]HSDB

   Boiling Point
        80.7 deg C
   from [3]HSDB

   Melting Point
        less than -75 deg C
   from [4]HSDB

   Critical Temperature and Pressure
        Critical temperature: 505 deg F = 263 deg C = 536 K; critical
   pressure: 630 psia = 43 atm
   from [5]HSDB

   Density/Specific Gravity
        0.9535 g/cu cm at 20 deg C
   from [6]HSDB

   Heat of Combustion
        502.88 kcal/mol
   from [7]HSDB

   Heat of Vaporization
        8.25 kcal/mol
   from [8]HSDB

   Octanol/Water Partition Coefficient
        log Kow = 0.80
   from [9]HSDB

   Solubilities

     * Soluble in ethanol, ethyl ether, acetone, chloroform, benzene
     * Water in methyl acrylate at 20 deg C = 1.8 mL/100 g
     * In water, 4.94X10+4 mg/L at 25 deg C

   from [10]HSDB

   Spectral Properties

     * Index of refraction: 1.4040 at 20 deg C/D
     * IR: 4304 (Coblentz Society Spectral Collection)
     * 1H NMR: 64 (Varian Associates NMR Spectra Catalogue)
     * Raman: 100 (Sadtler Research Laboratories spectral collection)
     * MASS: 2719 (NIST/EPA/MSDC Mass Spectral Database, 1990 version)

   from [11]HSDB

   Surface Tension
        24.2 dynes/cm = 0.0242 N/m at 20 deg C
   from [12]HSDB

   Vapor Density
        2.97 (Air = 1)
   from [13]HSDB

   Vapor Pressure
        86.6 mm Hg at 25 deg C
   from [14]HSDB

   Viscosity
        0.482 cP at 70 deg F
   from [15]HSDB

   Other Chemical/Physical Properties

     * Easily polymerizes on standing; polymerization process speeded up
       by heat, light, and peroxides. If pure, the monomer can be stored
       below +10 deg C without incurring polymerization.
     * AT TEMPERATURES ABOVE 70 DEG C POLYMERIZATION MAY TAKE PLACE
     * Specific heat at -60 deg C= 0.444 Cal/g/deg C. Azeotropes: 9.5%
       water = BP 73 deg C; 49.0% methanol = BP 61 deg C
     * Transparent; elastic substance; practically no odor; little
       adhesive power; resists usual solvents /Polymer/
     * Liq-water interfacial tension: (est) 30 dynes/cm = 0.03 N/m at 20
       deg C; vapor specific gravity: 3.0; ratio of specific heat of
       vapor: 1.102; heat of polymerization: -392 btu/lb = -218 cal/g =
       -9.13x10+5 J/kg
     * Conversion factor: 3.51 mg/cu m is equiv to 1 ppm
     * Heat capacity: 161.5 J/mol-K at 1 atm
     * Ionization potential: 9.19 eV
     * Critical volume 265 cu m/mole
     * Saturation concn /in air/ 319 g/cu m at 20 deg C; 499 g/cu m at 30
       deg C
     * Liquid heat capacity = 0.449 Btu/lb-F at 70 deg F; Liquid thermal
       conductivity = 1.117 Btu-in/hr-sq ft-F at 70 deg F; Saturated vapor
       density = 0.02049 lb/cu ft at 70 deg F; Ideal gas heat capacity =
       0.251 Btu/lb-F at 75 deg F
     * Heat of evaporation: 385 J/g; specific heat: 2.01 J/g-K
     * React readily with electrophilic, free-radical, and nucleophilic
       agent /Acrylic acid & esters/
     * Readily polymerized; bulk density: 8.0 lb/gal
     * Boiling point: 70 deg C at 608 mm Hg; 60 deg C at 428 mm Hg; 50 deg
       C at 298 mm Hg; 40 deg C at 200 mm Hg; 20 deg C at 88 mm Hg; 10 deg
       C at 54 deg C; 5 deg C at 41.5 mm Hg; 0 deg C at 32 mm Hg; -5 deg C
       at 24.5 mm Hg; - 10 deg C at 18.5 mm Hg
     * VP: 65 Torr at 20 deg C
     * Henry's Law constant = 2.0X10-4 atm-cu m/mol at 25 deg C (est)
     * Hydroxyl radical reaction rate constant = 9.4X10-12 cu cm/molec-sec
       at 25 deg C (est)

   from [16]HSDB

   Computed Properties
   Molecular Weight                  86.08924 [g/mol]
   Molecular Formula                 C[4]H[6]O[2]
   XLogP3                            0.8
   H-Bond Donor                      0
   H-Bond Acceptor                   2
   Rotatable Bond Count              2
   Exact Mass                        86.036779
   MonoIsotopic Mass                 86.036779
   Topological Polar Surface Area    26.3
   Heavy Atom Count                  6
   Formal Charge                     0
   Complexity                        65.9
   Isotope Atom Count                0
   Defined Atom Stereocenter Count   0
   Undefined Atom Stereocenter Count 0
   Defined Bond Stereocenter Count   0
   Undefined Bond Stereocenter Count 0
   Covalently-Bonded Unit Count      1
   Feature 3D Acceptor Count         1
   Feature 3D Hydrophobe Count       1
   Effective Rotor Count             2
   Conformer Sampling RMSD           0.4
   CID Conformer Count               [17]3

References

   1. http://toxnet.nlm.nih.gov/cgi-bin/sis/search/r?dbs+hsdb:@term+@rn+@rel+96-33-3
   2. http://toxnet.nlm.nih.gov/cgi-bin/sis/search/r?dbs+hsdb:@term+@rn+@rel+96-33-3
   3. http://toxnet.nlm.nih.gov/cgi-bin/sis/search/r?dbs+hsdb:@term+@rn+@rel+96-33-3
   4. http://toxnet.nlm.nih.gov/cgi-bin/sis/search/r?dbs+hsdb:@term+@rn+@rel+96-33-3
   5. http://toxnet.nlm.nih.gov/cgi-bin/sis/search/r?dbs+hsdb:@term+@rn+@rel+96-33-3
   6. http://toxnet.nlm.nih.gov/cgi-bin/sis/search/r?dbs+hsdb:@term+@rn+@rel+96-33-3
   7. http://toxnet.nlm.nih.gov/cgi-bin/sis/search/r?dbs+hsdb:@term+@rn+@rel+96-33-3
   8. http://toxnet.nlm.nih.gov/cgi-bin/sis/search/r?dbs+hsdb:@term+@rn+@rel+96-33-3
   9. http://toxnet.nlm.nih.gov/cgi-bin/sis/search/r?dbs+hsdb:@term+@rn+@rel+96-33-3
  10. http://toxnet.nlm.nih.gov/cgi-bin/sis/search/r?dbs+hsdb:@term+@rn+@rel+96-33-3
  11. http://toxnet.nlm.nih.gov/cgi-bin/sis/search/r?dbs+hsdb:@term+@rn+@rel+96-33-3
  12. http://toxnet.nlm.nih.gov/cgi-bin/sis/search/r?dbs+hsdb:@term+@rn+@rel+96-33-3
  13. http://toxnet.nlm.nih.gov/cgi-bin/sis/search/r?dbs+hsdb:@term+@rn+@rel+96-33-3
  14. http://toxnet.nlm.nih.gov/cgi-bin/sis/search/r?dbs+hsdb:@term+@rn+@rel+96-33-3
  15. http://toxnet.nlm.nih.gov/cgi-bin/sis/search/r?dbs+hsdb:@term+@rn+@rel+96-33-3
  16. http://toxnet.nlm.nih.gov/cgi-bin/sis/search/r?dbs+hsdb:@term+@rn+@rel+96-33-3
  17. http://pubchem.ncbi.nlm.nih.gov/vw3d/vw3d.cgi?cid=7294
