197726
  -OEChem-07051212572D

 82 88  0     1  0  0  0  0  0999 V2000
    3.4030    2.0000    0.0000 O   0  0  0  0  0  0  0  0  0  0  0  0
    6.8671   -2.0000    0.0000 O   0  0  0  0  0  0  0  0  0  0  0  0
    2.5369    4.5000    0.0000 O   0  0  0  0  0  0  0  0  0  0  0  0
    7.7331   -4.5000    0.0000 O   0  0  0  0  0  0  0  0  0  0  0  0
    2.5369    2.5000    0.0000 O   0  0  0  0  0  0  0  0  0  0  0  0
    7.7331   -2.5000    0.0000 O   0  0  0  0  0  0  0  0  0  0  0  0
    6.8671    3.0000    0.0000 N   0  0  3  0  0  0  0  0  0  0  0  0
    3.4030   -3.0000    0.0000 N   0  0  3  0  0  0  0  0  0  0  0  0
    6.0010    2.5000    0.0000 C   0  0  1  0  0  0  0  0  0  0  0  0
    4.2690   -2.5000    0.0000 C   0  0  1  0  0  0  0  0  0  0  0  0
    5.1350   -3.0000    0.0000 C   0  0  0  0  0  0  0  0  0  0  0  0
    5.1350    3.0000    0.0000 C   0  0  0  0  0  0  0  0  0  0  0  0
    3.4030   -4.0000    0.0000 C   0  0  0  0  0  0  0  0  0  0  0  0
    6.8671    4.0000    0.0000 C   0  0  0  0  0  0  0  0  0  0  0  0
    4.2690   -4.5000    0.0000 C   0  0  0  0  0  0  0  0  0  0  0  0
    6.0010    4.5000    0.0000 C   0  0  0  0  0  0  0  0  0  0  0  0
    5.1350    4.0000    0.0000 C   0  0  0  0  0  0  0  0  0  0  0  0
    5.1350   -4.0000    0.0000 C   0  0  0  0  0  0  0  0  0  0  0  0
    3.4030   -2.0000    0.0000 C   0  0  0  0  0  0  0  0  0  0  0  0
    6.8671    2.0000    0.0000 C   0  0  0  0  0  0  0  0  0  0  0  0
    4.2690    2.5000    0.0000 C   0  0  0  0  0  0  0  0  0  0  0  0
    6.0010   -2.5000    0.0000 C   0  0  0  0  0  0  0  0  0  0  0  0
    6.8671    1.0000    0.0000 C   0  0  0  0  0  0  0  0  0  0  0  0
    3.4030   -1.0000    0.0000 C   0  0  0  0  0  0  0  0  0  0  0  0
    2.5370   -2.5000    0.0000 C   0  0  0  0  0  0  0  0  0  0  0  0
    7.7331    2.5000    0.0000 C   0  0  0  0  0  0  0  0  0  0  0  0
    4.2690    4.5000    0.0000 C   0  0  0  0  0  0  0  0  0  0  0  0
    6.0010   -4.5000    0.0000 C   0  0  0  0  0  0  0  0  0  0  0  0
    3.4030    3.0000    0.0000 C   0  0  0  0  0  0  0  0  0  0  0  0
    6.8671   -3.0000    0.0000 C   0  0  0  0  0  0  0  0  0  0  0  0
    3.4030    4.0000    0.0000 C   0  0  0  0  0  0  0  0  0  0  0  0
    6.8671   -4.0000    0.0000 C   0  0  0  0  0  0  0  0  0  0  0  0
    6.0010    0.5000    0.0000 C   0  0  0  0  0  0  0  0  0  0  0  0
    2.5369   -0.5000    0.0000 C   0  0  0  0  0  0  0  0  0  0  0  0
    7.7331    0.5000    0.0000 C   0  0  0  0  0  0  0  0  0  0  0  0
    4.2690   -0.5000    0.0000 C   0  0  0  0  0  0  0  0  0  0  0  0
    6.8671   -1.0000    0.0000 C   0  0  0  0  0  0  0  0  0  0  0  0
    3.4030    1.0000    0.0000 C   0  0  0  0  0  0  0  0  0  0  0  0
    2.5369    0.5000    0.0000 C   0  0  0  0  0  0  0  0  0  0  0  0
    6.0010   -0.5000    0.0000 C   0  0  0  0  0  0  0  0  0  0  0  0
    4.2690    0.5000    0.0000 C   0  0  0  0  0  0  0  0  0  0  0  0
    7.7331   -0.5000    0.0000 C   0  0  0  0  0  0  0  0  0  0  0  0
    7.7331   -5.5000    0.0000 C   0  0  0  0  0  0  0  0  0  0  0  0
    2.5369    5.5000    0.0000 C   0  0  0  0  0  0  0  0  0  0  0  0
    5.5760    1.7639    0.0000 H   0  0  0  0  0  0  0  0  0  0  0  0
    4.6940   -1.7639    0.0000 H   0  0  0  0  0  0  0  0  0  0  0  0
    7.4776    3.8923    0.0000 H   0  0  0  0  0  0  0  0  0  0  0  0
    7.0791    4.5826    0.0000 H   0  0  0  0  0  0  0  0  0  0  0  0
    2.7924   -3.8923    0.0000 H   0  0  0  0  0  0  0  0  0  0  0  0
    3.1909   -4.5826    0.0000 H   0  0  0  0  0  0  0  0  0  0  0  0
    6.3996    4.9749    0.0000 H   0  0  0  0  0  0  0  0  0  0  0  0
    5.6025    4.9749    0.0000 H   0  0  0  0  0  0  0  0  0  0  0  0
    3.8705   -4.9750    0.0000 H   0  0  0  0  0  0  0  0  0  0  0  0
    4.6675   -4.9750    0.0000 H   0  0  0  0  0  0  0  0  0  0  0  0
    2.7924   -1.8923    0.0000 H   0  0  0  0  0  0  0  0  0  0  0  0
    3.1909   -2.5826    0.0000 H   0  0  0  0  0  0  0  0  0  0  0  0
    7.4776    1.8923    0.0000 H   0  0  0  0  0  0  0  0  0  0  0  0
    7.0791    2.5826    0.0000 H   0  0  0  0  0  0  0  0  0  0  0  0
    2.8470   -1.9631    0.0000 H   0  0  0  0  0  0  0  0  0  0  0  0
    2.0000   -2.1900    0.0000 H   0  0  0  0  0  0  0  0  0  0  0  0
    2.2270   -3.0369    0.0000 H   0  0  0  0  0  0  0  0  0  0  0  0
    7.4231    1.9631    0.0000 H   0  0  0  0  0  0  0  0  0  0  0  0
    8.2700    2.1900    0.0000 H   0  0  0  0  0  0  0  0  0  0  0  0
    8.0431    3.0369    0.0000 H   0  0  0  0  0  0  0  0  0  0  0  0
    4.2690    5.1200    0.0000 H   0  0  0  0  0  0  0  0  0  0  0  0
    6.0010   -5.1200    0.0000 H   0  0  0  0  0  0  0  0  0  0  0  0
    5.4641    0.8100    0.0000 H   0  0  0  0  0  0  0  0  0  0  0  0
    2.0000   -0.8100    0.0000 H   0  0  0  0  0  0  0  0  0  0  0  0
    8.2700    0.8100    0.0000 H   0  0  0  0  0  0  0  0  0  0  0  0
    4.8059   -0.8100    0.0000 H   0  0  0  0  0  0  0  0  0  0  0  0
    5.4641   -0.8100    0.0000 H   0  0  0  0  0  0  0  0  0  0  0  0
    2.0000    0.8100    0.0000 H   0  0  0  0  0  0  0  0  0  0  0  0
    8.2700   -0.8100    0.0000 H   0  0  0  0  0  0  0  0  0  0  0  0
    4.8059    0.8100    0.0000 H   0  0  0  0  0  0  0  0  0  0  0  0
    2.0000    2.8100    0.0000 H   0  0  0  0  0  0  0  0  0  0  0  0
    8.2700   -2.8100    0.0000 H   0  0  0  0  0  0  0  0  0  0  0  0
    3.1569    5.5000    0.0000 H   0  0  0  0  0  0  0  0  0  0  0  0
    2.5369    6.1200    0.0000 H   0  0  0  0  0  0  0  0  0  0  0  0
    7.1131   -5.5000    0.0000 H   0  0  0  0  0  0  0  0  0  0  0  0
    7.7331   -6.1200    0.0000 H   0  0  0  0  0  0  0  0  0  0  0  0
    8.3531   -5.5000    0.0000 H   0  0  0  0  0  0  0  0  0  0  0  0
    1.9169    5.5000    0.0000 H   0  0  0  0  0  0  0  0  0  0  0  0
  1 21  1  0  0  0  0
  1 38  1  0  0  0  0
  2 22  1  0  0  0  0
  2 37  1  0  0  0  0
  3 31  1  0  0  0  0
  3 44  1  0  0  0  0
  4 32  1  0  0  0  0
  4 43  1  0  0  0  0
  5 29  1  0  0  0  0
  5 75  1  0  0  0  0
  6 30  1  0  0  0  0
  6 76  1  0  0  0  0
  7  9  1  0  0  0  0
  7 14  1  0  0  0  0
  7 26  1  0  0  0  0
  8 10  1  0  0  0  0
  8 13  1  0  0  0  0
  8 25  1  0  0  0  0
  9 12  1  0  0  0  0
  9 20  1  0  0  0  0
  9 45  1  1  0  0  0
 10 11  1  0  0  0  0
 10 19  1  0  0  0  0
 10 46  1  1  0  0  0
 11 18  1  0  0  0  0
 11 22  2  0  0  0  0
 12 17  1  0  0  0  0
 12 21  2  0  0  0  0
 13 15  1  0  0  0  0
 13 49  1  0  0  0  0
 13 50  1  0  0  0  0
 14 16  1  0  0  0  0
 14 47  1  0  0  0  0
 14 48  1  0  0  0  0
 15 18  1  0  0  0  0
 15 53  1  0  0  0  0
 15 54  1  0  0  0  0
 16 17  1  0  0  0  0
 16 51  1  0  0  0  0
 16 52  1  0  0  0  0
 17 27  2  0  0  0  0
 18 28  2  0  0  0  0
 19 24  1  0  0  0  0
 19 55  1  0  0  0  0
 19 56  1  0  0  0  0
 20 23  1  0  0  0  0
 20 57  1  0  0  0  0
 20 58  1  0  0  0  0
 21 29  1  0  0  0  0
 22 30  1  0  0  0  0
 23 33  2  0  0  0  0
 23 35  1  0  0  0  0
 24 34  2  0  0  0  0
 24 36  1  0  0  0  0
 25 59  1  0  0  0  0
 25 60  1  0  0  0  0
 25 61  1  0  0  0  0
 26 62  1  0  0  0  0
 26 63  1  0  0  0  0
 26 64  1  0  0  0  0
 27 31  1  0  0  0  0
 27 65  1  0  0  0  0
 28 32  1  0  0  0  0
 28 66  1  0  0  0  0
 29 31  2  0  0  0  0
 30 32  2  0  0  0  0
 33 40  1  0  0  0  0
 33 67  1  0  0  0  0
 34 39  1  0  0  0  0
 34 68  1  0  0  0  0
 35 42  2  0  0  0  0
 35 69  1  0  0  0  0
 36 41  2  0  0  0  0
 36 70  1  0  0  0  0
 37 40  2  0  0  0  0
 37 42  1  0  0  0  0
 38 39  2  0  0  0  0
 38 41  1  0  0  0  0
 39 72  1  0  0  0  0
 40 71  1  0  0  0  0
 41 74  1  0  0  0  0
 42 73  1  0  0  0  0
 43 79  1  0  0  0  0
 43 80  1  0  0  0  0
 43 81  1  0  0  0  0
 44 77  1  0  0  0  0
 44 78  1  0  0  0  0
 44 82  1  0  0  0  0
M  END
> <PUBCHEM_COMPOUND_CID>
197726

> <PUBCHEM_COMPOUND_CANONICALIZED>
1

> <PUBCHEM_CACTVS_COMPLEXITY>
866

> <PUBCHEM_CACTVS_HBOND_ACCEPTOR>
8

> <PUBCHEM_CACTVS_HBOND_DONOR>
2

> <PUBCHEM_CACTVS_ROTATABLE_BOND>
2

> <PUBCHEM_CACTVS_SUBSKEYS>
AAADcfB/OAAAAAAAAAAAAAAAAAAAAAAAAAA8eMGCAAAAAACxVAAAHgAACAAADCzBmAYyBoMABgCAAiBCAACCCAAgIAAIiAAOjIgNJyKGsRuGeCvnwBWLuAew8P8OoAABCAAYQABAAAIQADCAAAAAAAAAAA==

> <PUBCHEM_IUPAC_INCHI>
InChI=1S/C36H38N2O6/c1-37-15-13-23-19-29(41-3)33(39)35-31(23)27(37)17-21-5-9-26(10-6-21)44-36-32-24(20-30(42-4)34(36)40)14-16-38(2)28(32)18-22-7-11-25(43-35)12-8-22/h5-12,19-20,27-28,39-40H,13-18H2,1-4H3/t27-,28-/m1/s1

> <PUBCHEM_IUPAC_INCHIKEY>
XIOGHHPVBVXQIV-VSGBNLITSA-N

> <PUBCHEM_XLOGP3_AA>
6

> <PUBCHEM_EXACT_MASS>
594.272987

> <PUBCHEM_MOLECULAR_FORMULA>
C36H38N2O6

> <PUBCHEM_MOLECULAR_WEIGHT>
594.69672

> <PUBCHEM_OPENEYE_CAN_SMILES>
CN1CCC2=CC(=C(C3=C2C1CC4=CC=C(C=C4)OC5=C6C(CC7=CC=C(O3)C=C7)N(CCC6=CC(=C5O)OC)C)O)OC

> <PUBCHEM_OPENEYE_ISO_SMILES>
CN1CCC2=CC(=C(C3=C2[C@H]1CC4=CC=C(C=C4)OC5=C6[C@@H](CC7=CC=C(O3)C=C7)N(CCC6=CC(=C5O)OC)C)O)OC

> <PUBCHEM_CACTVS_TPSA>
83.9

> <PUBCHEM_MONOISOTOPIC_WEIGHT>
594.272987

> <PUBCHEM_TOTAL_CHARGE>
0

> <PUBCHEM_HEAVY_ATOM_COUNT>
44

> <PUBCHEM_ATOM_DEF_STEREO_COUNT>
2

> <PUBCHEM_ATOM_UDEF_STEREO_COUNT>
0

> <PUBCHEM_BOND_DEF_STEREO_COUNT>
0

> <PUBCHEM_BOND_UDEF_STEREO_COUNT>
0

> <PUBCHEM_ISOTOPIC_ATOM_COUNT>
0

> <PUBCHEM_COMPONENT_COUNT>
1

> <PUBCHEM_CACTVS_TAUTO_COUNT>
3

> <PUBCHEM_COORDINATE_TYPE>
1
5
255

> <PUBCHEM_BONDANNOTATIONS>
10  46  5
11  18  8
11  22  8
12  17  8
12  21  8
17  27  8
18  28  8
21  29  8
22  30  8
23  33  8
23  35  8
24  34  8
24  36  8
27  31  8
28  32  8
29  31  8
30  32  8
33  40  8
34  39  8
35  42  8
36  41  8
37  40  8
37  42  8
38  39  8
38  41  8
9  45  5

$$$$

