6443777
  -OEChem-07051212482D

133133  0     0  0  0  0  0  0999 V2000
    2.5369  -11.8450    0.0000 O   0  0  0  0  0  0  0  0  0  0  0  0
    6.0010  -14.8450    0.0000 O   0  0  0  0  0  0  0  0  0  0  0  0
    6.8671  -13.3450    0.0000 O   0  0  0  0  0  0  0  0  0  0  0  0
   11.1972    0.1550    0.0000 C   0  0  0  0  0  0  0  0  0  0  0  0
   12.9292    3.1550    0.0000 C   0  0  0  0  0  0  0  0  0  0  0  0
   11.1972    1.1550    0.0000 C   0  0  0  0  0  0  0  0  0  0  0  0
    9.4651   -2.8450    0.0000 C   0  0  0  0  0  0  0  0  0  0  0  0
   12.9292    4.1550    0.0000 C   0  0  0  0  0  0  0  0  0  0  0  0
    9.4651   -1.8450    0.0000 C   0  0  0  0  0  0  0  0  0  0  0  0
   14.6613    6.1550    0.0000 C   0  0  0  0  0  0  0  0  0  0  0  0
   12.0632    2.6550    0.0000 C   0  0  0  0  0  0  0  0  0  0  0  0
   10.3312   -0.3450    0.0000 C   0  0  0  0  0  0  0  0  0  0  0  0
   14.6613    7.1550    0.0000 C   0  0  0  0  0  0  0  0  0  0  0  0
   13.7953    5.6550    0.0000 C   0  0  0  0  0  0  0  0  0  0  0  0
    8.5991   -3.3450    0.0000 C   0  0  0  0  0  0  0  0  0  0  0  0
    7.7331   -4.8450    0.0000 C   0  0  0  0  0  0  0  0  0  0  0  0
    7.7331   -5.8450    0.0000 C   0  0  0  0  0  0  0  0  0  0  0  0
   12.0632    1.6550    0.0000 C   0  0  0  0  0  0  0  0  0  0  0  0
   10.3312   -1.3450    0.0000 C   0  0  0  0  0  0  0  0  0  0  0  0
   13.7953    4.6550    0.0000 C   0  0  0  0  0  0  0  0  0  0  0  0
   16.3933    9.1550    0.0000 C   0  0  0  0  0  0  0  0  0  0  0  0
   15.5273    8.6550    0.0000 C   0  0  0  0  0  0  0  0  0  0  0  0
    8.5991   -4.3450    0.0000 C   0  0  0  0  0  0  0  0  0  0  0  0
    6.8671   -6.3450    0.0000 C   0  0  0  0  0  0  0  0  0  0  0  0
   15.5273    7.6550    0.0000 C   0  0  0  0  0  0  0  0  0  0  0  0
   16.3933   10.1550    0.0000 C   0  0  0  0  0  0  0  0  0  0  0  0
    6.0010   -7.8450    0.0000 C   0  0  0  0  0  0  0  0  0  0  0  0
    6.0010   -8.8450    0.0000 C   0  0  0  0  0  0  0  0  0  0  0  0
    6.8671   -7.3450    0.0000 C   0  0  0  0  0  0  0  0  0  0  0  0
   11.1972    3.1550    0.0000 C   0  0  0  0  0  0  0  0  0  0  0  0
    9.4651    0.1550    0.0000 C   0  0  0  0  0  0  0  0  0  0  0  0
   12.9292    6.1550    0.0000 C   0  0  0  0  0  0  0  0  0  0  0  0
    7.7331   -2.8450    0.0000 C   0  0  0  0  0  0  0  0  0  0  0  0
   17.2594   10.6550    0.0000 C   0  0  0  0  0  0  0  0  0  0  0  0
   17.2594   11.6550    0.0000 C   0  0  0  0  0  0  0  0  0  0  0  0
    5.1350   -9.3450    0.0000 C   0  0  0  0  0  0  0  0  0  0  0  0
   18.1254   12.1550    0.0000 C   0  0  0  0  0  0  0  0  0  0  0  0
   14.6613    9.1550    0.0000 C   0  0  0  0  0  0  0  0  0  0  0  0
    6.0010   -5.8450    0.0000 C   0  0  0  0  0  0  0  0  0  0  0  0
   18.1254   13.1550    0.0000 C   0  0  0  0  0  0  0  0  0  0  0  0
    5.1350  -10.3450    0.0000 C   0  0  0  0  0  0  0  0  0  0  0  0
    4.2690  -10.8450    0.0000 C   0  0  0  0  0  0  0  0  0  0  0  0
   16.3933   12.1550    0.0000 C   0  0  0  0  0  0  0  0  0  0  0  0
    4.2690   -8.8450    0.0000 C   0  0  0  0  0  0  0  0  0  0  0  0
    4.2690  -11.8450    0.0000 C   0  0  0  0  0  0  0  0  0  0  0  0
   18.9914   13.6550    0.0000 C   0  0  0  0  0  0  0  0  0  0  0  0
   18.9914   14.6550    0.0000 C   0  0  0  0  0  0  0  0  0  0  0  0
    3.4030  -12.3450    0.0000 C   0  0  0  0  0  0  0  0  0  0  0  0
    5.1350  -12.3450    0.0000 C   0  0  0  0  0  0  0  0  0  0  0  0
    5.1350  -13.3450    0.0000 C   0  0  0  0  0  0  0  0  0  0  0  0
    3.4030  -13.3450    0.0000 C   0  0  0  0  0  0  0  0  0  0  0  0
   19.8574   15.1550    0.0000 C   0  0  0  0  0  0  0  0  0  0  0  0
   18.1254   15.1550    0.0000 C   0  0  0  0  0  0  0  0  0  0  0  0
    4.2690  -13.8450    0.0000 C   0  0  0  0  0  0  0  0  0  0  0  0
    6.0010  -13.8450    0.0000 C   0  0  0  0  0  0  0  0  0  0  0  0
   11.4092   -0.4276    0.0000 H   0  0  0  0  0  0  0  0  0  0  0  0
   11.8078    0.2627    0.0000 H   0  0  0  0  0  0  0  0  0  0  0  0
   13.1413    2.5724    0.0000 H   0  0  0  0  0  0  0  0  0  0  0  0
   13.5398    3.2627    0.0000 H   0  0  0  0  0  0  0  0  0  0  0  0
    9.6772   -3.4276    0.0000 H   0  0  0  0  0  0  0  0  0  0  0  0
   10.0757   -2.7373    0.0000 H   0  0  0  0  0  0  0  0  0  0  0  0
   10.9851    1.7376    0.0000 H   0  0  0  0  0  0  0  0  0  0  0  0
   10.5866    1.0473    0.0000 H   0  0  0  0  0  0  0  0  0  0  0  0
   12.7172    4.7376    0.0000 H   0  0  0  0  0  0  0  0  0  0  0  0
   12.3187    4.0473    0.0000 H   0  0  0  0  0  0  0  0  0  0  0  0
    9.2531   -1.2624    0.0000 H   0  0  0  0  0  0  0  0  0  0  0  0
    8.8546   -1.9527    0.0000 H   0  0  0  0  0  0  0  0  0  0  0  0
   14.8733    5.5724    0.0000 H   0  0  0  0  0  0  0  0  0  0  0  0
   15.2719    6.2627    0.0000 H   0  0  0  0  0  0  0  0  0  0  0  0
   14.4492    7.7376    0.0000 H   0  0  0  0  0  0  0  0  0  0  0  0
   14.0507    7.0473    0.0000 H   0  0  0  0  0  0  0  0  0  0  0  0
    7.5210   -4.2624    0.0000 H   0  0  0  0  0  0  0  0  0  0  0  0
    7.1225   -4.9527    0.0000 H   0  0  0  0  0  0  0  0  0  0  0  0
    7.9451   -6.4276    0.0000 H   0  0  0  0  0  0  0  0  0  0  0  0
    8.3437   -5.7373    0.0000 H   0  0  0  0  0  0  0  0  0  0  0  0
   12.6002    1.3450    0.0000 H   0  0  0  0  0  0  0  0  0  0  0  0
   10.8681   -1.6550    0.0000 H   0  0  0  0  0  0  0  0  0  0  0  0
   16.6054    8.5724    0.0000 H   0  0  0  0  0  0  0  0  0  0  0  0
   17.0039    9.2627    0.0000 H   0  0  0  0  0  0  0  0  0  0  0  0
   14.3322    4.3450    0.0000 H   0  0  0  0  0  0  0  0  0  0  0  0
    9.1360   -4.6550    0.0000 H   0  0  0  0  0  0  0  0  0  0  0  0
   16.0643    7.3450    0.0000 H   0  0  0  0  0  0  0  0  0  0  0  0
   16.1813   10.7376    0.0000 H   0  0  0  0  0  0  0  0  0  0  0  0
   15.7828   10.0473    0.0000 H   0  0  0  0  0  0  0  0  0  0  0  0
    5.7890   -7.2624    0.0000 H   0  0  0  0  0  0  0  0  0  0  0  0
    5.3905   -7.9527    0.0000 H   0  0  0  0  0  0  0  0  0  0  0  0
    6.2131   -9.4276    0.0000 H   0  0  0  0  0  0  0  0  0  0  0  0
    6.6116   -8.7373    0.0000 H   0  0  0  0  0  0  0  0  0  0  0  0
    7.4040   -7.6550    0.0000 H   0  0  0  0  0  0  0  0  0  0  0  0
   11.5072    3.6919    0.0000 H   0  0  0  0  0  0  0  0  0  0  0  0
   10.6603    3.4650    0.0000 H   0  0  0  0  0  0  0  0  0  0  0  0
   10.8872    2.6181    0.0000 H   0  0  0  0  0  0  0  0  0  0  0  0
    9.7751    0.6919    0.0000 H   0  0  0  0  0  0  0  0  0  0  0  0
    8.9282    0.4650    0.0000 H   0  0  0  0  0  0  0  0  0  0  0  0
    9.1551   -0.3819    0.0000 H   0  0  0  0  0  0  0  0  0  0  0  0
   13.2392    6.6919    0.0000 H   0  0  0  0  0  0  0  0  0  0  0  0
   12.3923    6.4650    0.0000 H   0  0  0  0  0  0  0  0  0  0  0  0
   12.6192    5.6181    0.0000 H   0  0  0  0  0  0  0  0  0  0  0  0
   17.7963   10.3450    0.0000 H   0  0  0  0  0  0  0  0  0  0  0  0
    8.0431   -2.3081    0.0000 H   0  0  0  0  0  0  0  0  0  0  0  0
    7.1962   -2.5350    0.0000 H   0  0  0  0  0  0  0  0  0  0  0  0
    7.4231   -3.3819    0.0000 H   0  0  0  0  0  0  0  0  0  0  0  0
   18.3374   11.5724    0.0000 H   0  0  0  0  0  0  0  0  0  0  0  0
   18.7360   12.2627    0.0000 H   0  0  0  0  0  0  0  0  0  0  0  0
   14.9713    9.6919    0.0000 H   0  0  0  0  0  0  0  0  0  0  0  0
   14.1244    9.4650    0.0000 H   0  0  0  0  0  0  0  0  0  0  0  0
   14.3513    8.6181    0.0000 H   0  0  0  0  0  0  0  0  0  0  0  0
    6.3110   -5.3081    0.0000 H   0  0  0  0  0  0  0  0  0  0  0  0
    5.4641   -5.5350    0.0000 H   0  0  0  0  0  0  0  0  0  0  0  0
    5.6910   -6.3819    0.0000 H   0  0  0  0  0  0  0  0  0  0  0  0
   17.9133   13.7376    0.0000 H   0  0  0  0  0  0  0  0  0  0  0  0
   17.5148   13.0473    0.0000 H   0  0  0  0  0  0  0  0  0  0  0  0
    5.6720  -10.6550    0.0000 H   0  0  0  0  0  0  0  0  0  0  0  0
    4.0569  -10.2624    0.0000 H   0  0  0  0  0  0  0  0  0  0  0  0
    3.6584  -10.9527    0.0000 H   0  0  0  0  0  0  0  0  0  0  0  0
   16.7033   12.6919    0.0000 H   0  0  0  0  0  0  0  0  0  0  0  0
   15.8564   12.4650    0.0000 H   0  0  0  0  0  0  0  0  0  0  0  0
   16.0833   11.6181    0.0000 H   0  0  0  0  0  0  0  0  0  0  0  0
    4.5790   -8.3081    0.0000 H   0  0  0  0  0  0  0  0  0  0  0  0
    3.7320   -8.5350    0.0000 H   0  0  0  0  0  0  0  0  0  0  0  0
    3.9590   -9.3819    0.0000 H   0  0  0  0  0  0  0  0  0  0  0  0
   19.5284   13.3450    0.0000 H   0  0  0  0  0  0  0  0  0  0  0  0
    5.6720  -12.0350    0.0000 H   0  0  0  0  0  0  0  0  0  0  0  0
    2.8660  -13.6550    0.0000 H   0  0  0  0  0  0  0  0  0  0  0  0
   20.1674   14.6181    0.0000 H   0  0  0  0  0  0  0  0  0  0  0  0
   20.3944   15.4650    0.0000 H   0  0  0  0  0  0  0  0  0  0  0  0
   19.5474   15.6919    0.0000 H   0  0  0  0  0  0  0  0  0  0  0  0
   18.4354   15.6919    0.0000 H   0  0  0  0  0  0  0  0  0  0  0  0
   17.5885   15.4650    0.0000 H   0  0  0  0  0  0  0  0  0  0  0  0
   17.8154   14.6181    0.0000 H   0  0  0  0  0  0  0  0  0  0  0  0
    4.2690  -14.4650    0.0000 H   0  0  0  0  0  0  0  0  0  0  0  0
    2.0000  -12.1550    0.0000 H   0  0  0  0  0  0  0  0  0  0  0  0
    6.5380  -15.1550    0.0000 H   0  0  0  0  0  0  0  0  0  0  0  0
  1 48  1  0  0  0  0
  1132  1  0  0  0  0
  2 55  1  0  0  0  0
  2133  1  0  0  0  0
  3 55  2  0  0  0  0
  4  6  1  0  0  0  0
  4 12  1  0  0  0  0
  4 56  1  0  0  0  0
  4 57  1  0  0  0  0
  5  8  1  0  0  0  0
  5 11  1  0  0  0  0
  5 58  1  0  0  0  0
  5 59  1  0  0  0  0
  6 18  1  0  0  0  0
  6 62  1  0  0  0  0
  6 63  1  0  0  0  0
  7  9  1  0  0  0  0
  7 15  1  0  0  0  0
  7 60  1  0  0  0  0
  7 61  1  0  0  0  0
  8 20  1  0  0  0  0
  8 64  1  0  0  0  0
  8 65  1  0  0  0  0
  9 19  1  0  0  0  0
  9 66  1  0  0  0  0
  9 67  1  0  0  0  0
 10 13  1  0  0  0  0
 10 14  1  0  0  0  0
 10 68  1  0  0  0  0
 10 69  1  0  0  0  0
 11 18  2  0  0  0  0
 11 30  1  0  0  0  0
 12 19  2  0  0  0  0
 12 31  1  0  0  0  0
 13 25  1  0  0  0  0
 13 70  1  0  0  0  0
 13 71  1  0  0  0  0
 14 20  2  0  0  0  0
 14 32  1  0  0  0  0
 15 23  2  0  0  0  0
 15 33  1  0  0  0  0
 16 17  1  0  0  0  0
 16 23  1  0  0  0  0
 16 72  1  0  0  0  0
 16 73  1  0  0  0  0
 17 24  1  0  0  0  0
 17 74  1  0  0  0  0
 17 75  1  0  0  0  0
 18 76  1  0  0  0  0
 19 77  1  0  0  0  0
 20 80  1  0  0  0  0
 21 22  1  0  0  0  0
 21 26  1  0  0  0  0
 21 78  1  0  0  0  0
 21 79  1  0  0  0  0
 22 25  2  0  0  0  0
 22 38  1  0  0  0  0
 23 81  1  0  0  0  0
 24 29  2  0  0  0  0
 24 39  1  0  0  0  0
 25 82  1  0  0  0  0
 26 34  1  0  0  0  0
 26 83  1  0  0  0  0
 26 84  1  0  0  0  0
 27 28  1  0  0  0  0
 27 29  1  0  0  0  0
 27 85  1  0  0  0  0
 27 86  1  0  0  0  0
 28 36  1  0  0  0  0
 28 87  1  0  0  0  0
 28 88  1  0  0  0  0
 29 89  1  0  0  0  0
 30 90  1  0  0  0  0
 30 91  1  0  0  0  0
 30 92  1  0  0  0  0
 31 93  1  0  0  0  0
 31 94  1  0  0  0  0
 31 95  1  0  0  0  0
 32 96  1  0  0  0  0
 32 97  1  0  0  0  0
 32 98  1  0  0  0  0
 33100  1  0  0  0  0
 33101  1  0  0  0  0
 33102  1  0  0  0  0
 34 35  2  0  0  0  0
 34 99  1  0  0  0  0
 35 37  1  0  0  0  0
 35 43  1  0  0  0  0
 36 41  2  0  0  0  0
 36 44  1  0  0  0  0
 37 40  1  0  0  0  0
 37103  1  0  0  0  0
 37104  1  0  0  0  0
 38105  1  0  0  0  0
 38106  1  0  0  0  0
 38107  1  0  0  0  0
 39108  1  0  0  0  0
 39109  1  0  0  0  0
 39110  1  0  0  0  0
 40 46  1  0  0  0  0
 40111  1  0  0  0  0
 40112  1  0  0  0  0
 41 42  1  0  0  0  0
 41113  1  0  0  0  0
 42 45  1  0  0  0  0
 42114  1  0  0  0  0
 42115  1  0  0  0  0
 43116  1  0  0  0  0
 43117  1  0  0  0  0
 43118  1  0  0  0  0
 44119  1  0  0  0  0
 44120  1  0  0  0  0
 44121  1  0  0  0  0
 45 48  2  0  0  0  0
 45 49  1  0  0  0  0
 46 47  2  0  0  0  0
 46122  1  0  0  0  0
 47 52  1  0  0  0  0
 47 53  1  0  0  0  0
 48 51  1  0  0  0  0
 49 50  2  0  0  0  0
 49123  1  0  0  0  0
 50 54  1  0  0  0  0
 50 55  1  0  0  0  0
 51 54  2  0  0  0  0
 51124  1  0  0  0  0
 52125  1  0  0  0  0
 52126  1  0  0  0  0
 52127  1  0  0  0  0
 53128  1  0  0  0  0
 53129  1  0  0  0  0
 53130  1  0  0  0  0
 54131  1  0  0  0  0
M  END
> <PUBCHEM_COMPOUND_CID>
6443777

> <PUBCHEM_COMPOUND_CANONICALIZED>
1

> <PUBCHEM_CACTVS_COMPLEXITY>
1400

> <PUBCHEM_CACTVS_HBOND_ACCEPTOR>
3

> <PUBCHEM_CACTVS_HBOND_DONOR>
2

> <PUBCHEM_CACTVS_ROTATABLE_BOND>
27

> <PUBCHEM_CACTVS_SUBSKEYS>
AAADcfB8MAAAAAAAAAAAAAAAAAAAAAAAAAAwAAAAAAAAAAABAAAAGgAACAAADASAmAAyDoAAAgCIAiDSCAACAAAkIAAIiAEGCMgIJjKCFRKAcQAkwBEImYeI7OTOIAACAAAIAABAAAQAABAAAAAAAAAAAA==

> <PUBCHEM_IUPAC_OPENEYE_NAME>
4-hydroxy-3-[(2E,6E,10E,14E,18E,22E,26E,30E)-3,7,11,15,19,23,27,31,35-nonamethylhexatriaconta-2,6,10,14,18,22,26,30,34-nonaenyl]benzoic acid

> <PUBCHEM_IUPAC_CAS_NAME>
4-hydroxy-3-[(2E,6E,10E,14E,18E,22E,26E,30E)-3,7,11,15,19,23,27,31,35-nonamethylhexatriaconta-2,6,10,14,18,22,26,30,34-nonaenyl]benzoic acid

> <PUBCHEM_IUPAC_NAME>
4-hydroxy-3-[(2E,6E,10E,14E,18E,22E,26E,30E)-3,7,11,15,19,23,27,31,35-nonamethylhexatriaconta-2,6,10,14,18,22,26,30,34-nonaenyl]benzoic acid

> <PUBCHEM_IUPAC_SYSTEMATIC_NAME>
3-[(2E,6E,10E,14E,18E,22E,26E,30E)-3,7,11,15,19,23,27,31,35-nonamethylhexatriaconta-2,6,10,14,18,22,26,30,34-nonaenyl]-4-oxidanyl-benzoic acid

> <PUBCHEM_IUPAC_TRADITIONAL_NAME>
4-hydroxy-3-[(2E,6E,10E,14E,18E,22E,26E,30E)-3,7,11,15,19,23,27,31,35-nonamethylhexatriaconta-2,6,10,14,18,22,26,30,34-nonaenyl]benzoic acid

> <PUBCHEM_IUPAC_INCHI>
InChI=1S/C52H78O3/c1-40(2)19-11-20-41(3)21-12-22-42(4)23-13-24-43(5)25-14-26-44(6)27-15-28-45(7)29-16-30-46(8)31-17-32-47(9)33-18-34-48(10)35-36-49-39-50(52(54)55)37-38-51(49)53/h19,21,23,25,27,29,31,33,35,37-39,53H,11-18,20,22,24,26,28,30,32,34,36H2,1-10H3,(H,54,55)/b41-21+,42-23+,43-25+,44-27+,45-29+,46-31+,47-33+,48-35+

> <PUBCHEM_IUPAC_INCHIKEY>
YKKKMRBEPIZPBH-XWEAJCOCSA-N

> <PUBCHEM_XLOGP3_AA>
17.9

> <PUBCHEM_EXACT_MASS>
750.595096

> <PUBCHEM_MOLECULAR_FORMULA>
C52H78O3

> <PUBCHEM_MOLECULAR_WEIGHT>
751.17392

> <PUBCHEM_OPENEYE_CAN_SMILES>
CC(=CCCC(=CCCC(=CCCC(=CCCC(=CCCC(=CCCC(=CCCC(=CCCC(=CCC1=C(C=CC(=C1)C(=O)O)O)C)C)C)C)C)C)C)C)C

> <PUBCHEM_OPENEYE_ISO_SMILES>
CC(=CCC/C(=C/CC/C(=C/CC/C(=C/CC/C(=C/CC/C(=C/CC/C(=C/CC/C(=C/CC/C(=C/CC1=C(C=CC(=C1)C(=O)O)O)/C)/C)/C)/C)/C)/C)/C)/C)C

> <PUBCHEM_CACTVS_TPSA>
57.5

> <PUBCHEM_MONOISOTOPIC_WEIGHT>
750.595096

> <PUBCHEM_TOTAL_CHARGE>
0

> <PUBCHEM_HEAVY_ATOM_COUNT>
55

> <PUBCHEM_ATOM_DEF_STEREO_COUNT>
0

> <PUBCHEM_ATOM_UDEF_STEREO_COUNT>
0

> <PUBCHEM_BOND_DEF_STEREO_COUNT>
8

> <PUBCHEM_BOND_UDEF_STEREO_COUNT>
0

> <PUBCHEM_ISOTOPIC_ATOM_COUNT>
0

> <PUBCHEM_COMPONENT_COUNT>
1

> <PUBCHEM_CACTVS_TAUTO_COUNT>
5

> <PUBCHEM_COORDINATE_TYPE>
1
5
255

> <PUBCHEM_BONDANNOTATIONS>
45  48  8
45  49  8
48  51  8
49  50  8
50  54  8
51  54  8

$$$$

