179090
  -OEChem-07051213002D

 53 54  0     0  0  0  0  0  0999 V2000
    6.3301   -0.9619    0.0000 O   0  0  0  0  0  0  0  0  0  0  0  0
    3.3125    1.5702    0.0000 O   0  0  0  0  0  0  0  0  0  0  0  0
    2.8660   -0.9619    0.0000 O   0  0  0  0  0  0  0  0  0  0  0  0
    6.5677    0.3854    0.0000 O   0  0  0  0  0  0  0  0  0  0  0  0
    4.5981   -3.9619    0.0000 O   0  0  0  0  0  0  0  0  0  0  0  0
    5.9662    3.7969    0.0000 O   0  0  0  0  0  0  0  0  0  0  0  0
    2.0000   -2.4619    0.0000 O   0  0  0  0  0  0  0  0  0  0  0  0
    7.8945    1.4988    0.0000 O   0  0  0  0  0  0  0  0  0  0  0  0
    4.5981    0.0381    0.0000 C   0  0  0  0  0  0  0  0  0  0  0  0
    4.5981   -0.9619    0.0000 C   0  0  0  0  0  0  0  0  0  0  0  0
    4.9401    0.9778    0.0000 C   0  0  0  0  0  0  0  0  0  0  0  0
    5.4641   -1.4619    0.0000 C   0  0  0  0  0  0  0  0  0  0  0  0
    4.2973    1.7439    0.0000 C   0  0  0  0  0  0  0  0  0  0  0  0
    3.7320   -1.4619    0.0000 C   0  0  0  0  0  0  0  0  0  0  0  0
    5.9249    1.1515    0.0000 C   0  0  0  0  0  0  0  0  0  0  0  0
    5.4641   -2.4619    0.0000 C   0  0  0  0  0  0  0  0  0  0  0  0
    4.6393    2.6836    0.0000 C   0  0  0  0  0  0  0  0  0  0  0  0
    3.7320   -2.4619    0.0000 C   0  0  0  0  0  0  0  0  0  0  0  0
    6.2669    2.0912    0.0000 C   0  0  0  0  0  0  0  0  0  0  0  0
    4.5981   -2.9619    0.0000 C   0  0  0  0  0  0  0  0  0  0  0  0
    5.6241    2.8572    0.0000 C   0  0  0  0  0  0  0  0  0  0  0  0
    3.9965    3.4496    0.0000 C   0  0  0  0  0  0  0  0  0  0  0  0
    6.3301   -2.9619    0.0000 C   0  0  0  0  0  0  0  0  0  0  0  0
    2.8660   -2.9619    0.0000 C   0  0  0  0  0  0  0  0  0  0  0  0
    7.2517    2.2648    0.0000 C   0  0  0  0  0  0  0  0  0  0  0  0
    2.8660   -3.9619    0.0000 C   0  0  0  0  0  0  0  0  0  0  0  0
    7.5938    3.2045    0.0000 C   0  0  0  0  0  0  0  0  0  0  0  0
    7.1962   -1.4619    0.0000 C   0  0  0  0  0  0  0  0  0  0  0  0
    2.6697    2.3363    0.0000 C   0  0  0  0  0  0  0  0  0  0  0  0
    4.1471    0.4636    0.0000 H   0  0  0  0  0  0  0  0  0  0  0  0
    5.2087   -0.0695    0.0000 H   0  0  0  0  0  0  0  0  0  0  0  0
    6.0201   -3.4988    0.0000 H   0  0  0  0  0  0  0  0  0  0  0  0
    6.8671   -3.2719    0.0000 H   0  0  0  0  0  0  0  0  0  0  0  0
    6.6401   -2.4249    0.0000 H   0  0  0  0  0  0  0  0  0  0  0  0
    4.4715    3.8481    0.0000 H   0  0  0  0  0  0  0  0  0  0  0  0
    3.5980    3.9246    0.0000 H   0  0  0  0  0  0  0  0  0  0  0  0
    3.5216    3.0511    0.0000 H   0  0  0  0  0  0  0  0  0  0  0  0
    2.8660   -0.3419    0.0000 H   0  0  0  0  0  0  0  0  0  0  0  0
    7.1783    0.4931    0.0000 H   0  0  0  0  0  0  0  0  0  0  0  0
    2.2460   -3.9619    0.0000 H   0  0  0  0  0  0  0  0  0  0  0  0
    2.8660   -4.5819    0.0000 H   0  0  0  0  0  0  0  0  0  0  0  0
    3.4860   -3.9619    0.0000 H   0  0  0  0  0  0  0  0  0  0  0  0
    8.1764    2.9925    0.0000 H   0  0  0  0  0  0  0  0  0  0  0  0
    7.8058    3.7871    0.0000 H   0  0  0  0  0  0  0  0  0  0  0  0
    7.0111    3.4166    0.0000 H   0  0  0  0  0  0  0  0  0  0  0  0
    5.1350   -4.2719    0.0000 H   0  0  0  0  0  0  0  0  0  0  0  0
    5.5676    4.2719    0.0000 H   0  0  0  0  0  0  0  0  0  0  0  0
    3.1447    2.7348    0.0000 H   0  0  0  0  0  0  0  0  0  0  0  0
    2.2712    2.8112    0.0000 H   0  0  0  0  0  0  0  0  0  0  0  0
    2.1948    1.9378    0.0000 H   0  0  0  0  0  0  0  0  0  0  0  0
    6.8862   -1.9988    0.0000 H   0  0  0  0  0  0  0  0  0  0  0  0
    7.7331   -1.7719    0.0000 H   0  0  0  0  0  0  0  0  0  0  0  0
    7.5062   -0.9249    0.0000 H   0  0  0  0  0  0  0  0  0  0  0  0
  1 12  1  0  0  0  0
  1 28  1  0  0  0  0
  2 13  1  0  0  0  0
  2 29  1  0  0  0  0
  3 14  1  0  0  0  0
  3 38  1  0  0  0  0
  4 15  1  0  0  0  0
  4 39  1  0  0  0  0
  5 20  1  0  0  0  0
  5 46  1  0  0  0  0
  6 21  1  0  0  0  0
  6 47  1  0  0  0  0
  7 24  2  0  0  0  0
  8 25  2  0  0  0  0
  9 10  1  0  0  0  0
  9 11  1  0  0  0  0
  9 30  1  0  0  0  0
  9 31  1  0  0  0  0
 10 12  1  0  0  0  0
 10 14  2  0  0  0  0
 11 13  1  0  0  0  0
 11 15  2  0  0  0  0
 12 16  2  0  0  0  0
 13 17  2  0  0  0  0
 14 18  1  0  0  0  0
 15 19  1  0  0  0  0
 16 20  1  0  0  0  0
 16 23  1  0  0  0  0
 17 21  1  0  0  0  0
 17 22  1  0  0  0  0
 18 20  2  0  0  0  0
 18 24  1  0  0  0  0
 19 21  2  0  0  0  0
 19 25  1  0  0  0  0
 22 35  1  0  0  0  0
 22 36  1  0  0  0  0
 22 37  1  0  0  0  0
 23 32  1  0  0  0  0
 23 33  1  0  0  0  0
 23 34  1  0  0  0  0
 24 26  1  0  0  0  0
 25 27  1  0  0  0  0
 26 40  1  0  0  0  0
 26 41  1  0  0  0  0
 26 42  1  0  0  0  0
 27 43  1  0  0  0  0
 27 44  1  0  0  0  0
 27 45  1  0  0  0  0
 28 51  1  0  0  0  0
 28 52  1  0  0  0  0
 28 53  1  0  0  0  0
 29 48  1  0  0  0  0
 29 49  1  0  0  0  0
 29 50  1  0  0  0  0
M  END
> <PUBCHEM_COMPOUND_CID>
179090

> <PUBCHEM_COMPOUND_CANONICALIZED>
1

> <PUBCHEM_CACTVS_COMPLEXITY>
545

> <PUBCHEM_CACTVS_HBOND_ACCEPTOR>
8

> <PUBCHEM_CACTVS_HBOND_DONOR>
4

> <PUBCHEM_CACTVS_ROTATABLE_BOND>
6

> <PUBCHEM_CACTVS_SUBSKEYS>
AAADceB4PAAAAAAAAAAAAAAAAAAAAAAAAAAwYAAAAAAAAAABQAAAGgAACAAADASAmAICBoAABgCIAoBQAAACCAAkIAAAiAEECMgMJzaGNBqAcWAl4BUIuQeI7OzOIAACCAAIAABAAAQQABAAAAAAAAAAAA==

> <PUBCHEM_IUPAC_OPENEYE_NAME>
1-[3-[(3-acetyl-2,4-dihydroxy-6-methoxy-5-methyl-phenyl)methyl]-2,6-dihydroxy-4-methoxy-5-methyl-phenyl]ethanone

> <PUBCHEM_IUPAC_CAS_NAME>
1-[3-[(3-acetyl-2,4-dihydroxy-6-methoxy-5-methylphenyl)methyl]-2,6-dihydroxy-4-methoxy-5-methylphenyl]ethanone

> <PUBCHEM_IUPAC_NAME>
1-[3-[(3-acetyl-2,4-dihydroxy-6-methoxy-5-methylphenyl)methyl]-2,6-dihydroxy-4-methoxy-5-methylphenyl]ethanone

> <PUBCHEM_IUPAC_SYSTEMATIC_NAME>
1-[3-[[5-ethanoyl-2-methoxy-3-methyl-4,6-bis(oxidanyl)phenyl]methyl]-4-methoxy-5-methyl-2,6-bis(oxidanyl)phenyl]ethanone

> <PUBCHEM_IUPAC_TRADITIONAL_NAME>
1-[3-(3-acetyl-2,4-dihydroxy-6-methoxy-5-methyl-benzyl)-2,6-dihydroxy-4-methoxy-5-methyl-phenyl]ethanone

> <PUBCHEM_IUPAC_INCHI>
InChI=1S/C21H24O8/c1-8-16(24)14(10(3)22)18(26)12(20(8)28-5)7-13-19(27)15(11(4)23)17(25)9(2)21(13)29-6/h24-27H,7H2,1-6H3

> <PUBCHEM_IUPAC_INCHIKEY>
JXSPGOIAWPYMGS-UHFFFAOYSA-N

> <PUBCHEM_XLOGP3_AA>
3.6

> <PUBCHEM_EXACT_MASS>
404.147118

> <PUBCHEM_MOLECULAR_FORMULA>
C21H24O8

> <PUBCHEM_MOLECULAR_WEIGHT>
404.41046

> <PUBCHEM_OPENEYE_CAN_SMILES>
CC1=C(C(=C(C(=C1O)C(=O)C)O)CC2=C(C(=C(C(=C2OC)C)O)C(=O)C)O)OC

> <PUBCHEM_OPENEYE_ISO_SMILES>
CC1=C(C(=C(C(=C1O)C(=O)C)O)CC2=C(C(=C(C(=C2OC)C)O)C(=O)C)O)OC

> <PUBCHEM_CACTVS_TPSA>
134

> <PUBCHEM_MONOISOTOPIC_WEIGHT>
404.147118

> <PUBCHEM_TOTAL_CHARGE>
0

> <PUBCHEM_HEAVY_ATOM_COUNT>
29

> <PUBCHEM_ATOM_DEF_STEREO_COUNT>
0

> <PUBCHEM_ATOM_UDEF_STEREO_COUNT>
0

> <PUBCHEM_BOND_DEF_STEREO_COUNT>
0

> <PUBCHEM_BOND_UDEF_STEREO_COUNT>
0

> <PUBCHEM_ISOTOPIC_ATOM_COUNT>
0

> <PUBCHEM_COMPONENT_COUNT>
1

> <PUBCHEM_CACTVS_TAUTO_COUNT>
253

> <PUBCHEM_COORDINATE_TYPE>
1
5
255

> <PUBCHEM_BONDANNOTATIONS>
10  12  8
10  14  8
11  13  8
11  15  8
12  16  8
13  17  8
14  18  8
15  19  8
16  20  8
17  21  8
18  20  8
19  21  8

$$$$

