3778
  -OEChem-06251223402D

 35 36  0     1  0  0  0  0  0999 V2000
    5.5202    0.1481    0.0000 O   0  0  0  0  0  0  0  0  0  0  0  0
    2.9511    0.4571    0.0000 N   0  0  3  0  0  0  0  0  0  0  0  0
    3.7601   -0.1307    0.0000 N   0  0  0  0  0  0  0  0  0  0  0  0
    4.2601    1.4081    0.0000 C   0  0  0  0  0  0  0  0  0  0  0  0
    4.8479    2.2172    0.0000 C   0  0  0  0  0  0  0  0  0  0  0  0
    3.2601    1.4081    0.0000 C   0  0  0  0  0  0  0  0  0  0  0  0
    4.5691    0.4571    0.0000 C   0  0  0  0  0  0  0  0  0  0  0  0
    4.4411    3.1307    0.0000 C   0  0  0  0  0  0  0  0  0  0  0  0
    5.8424    2.1126    0.0000 C   0  0  0  0  0  0  0  0  0  0  0  0
    3.7601   -1.1307    0.0000 C   0  0  0  0  0  0  0  0  0  0  0  0
    2.6723    2.2172    0.0000 C   0  0  0  0  0  0  0  0  0  0  0  0
    2.0000    0.1481    0.0000 C   0  0  0  0  0  0  0  0  0  0  0  0
    2.8940   -1.6307    0.0000 C   0  0  0  0  0  0  0  0  0  0  0  0
    4.6261   -1.6307    0.0000 C   0  0  0  0  0  0  0  0  0  0  0  0
    2.8940   -2.6307    0.0000 C   0  0  0  0  0  0  0  0  0  0  0  0
    4.6261   -2.6307    0.0000 C   0  0  0  0  0  0  0  0  0  0  0  0
    3.7601   -3.1307    0.0000 C   0  0  0  0  0  0  0  0  0  0  0  0
    5.2123    2.7188    0.0000 H   0  0  0  0  0  0  0  0  0  0  0  0
    5.0075    3.3829    0.0000 H   0  0  0  0  0  0  0  0  0  0  0  0
    4.1890    3.6971    0.0000 H   0  0  0  0  0  0  0  0  0  0  0  0
    3.8747    2.8785    0.0000 H   0  0  0  0  0  0  0  0  0  0  0  0
    5.7776    1.4960    0.0000 H   0  0  0  0  0  0  0  0  0  0  0  0
    6.4590    2.0478    0.0000 H   0  0  0  0  0  0  0  0  0  0  0  0
    5.9072    2.7292    0.0000 H   0  0  0  0  0  0  0  0  0  0  0  0
    3.1739    2.5816    0.0000 H   0  0  0  0  0  0  0  0  0  0  0  0
    2.3079    2.7188    0.0000 H   0  0  0  0  0  0  0  0  0  0  0  0
    2.1707    1.8527    0.0000 H   0  0  0  0  0  0  0  0  0  0  0  0
    1.8084    0.7377    0.0000 H   0  0  0  0  0  0  0  0  0  0  0  0
    1.4103   -0.0435    0.0000 H   0  0  0  0  0  0  0  0  0  0  0  0
    2.1916   -0.4416    0.0000 H   0  0  0  0  0  0  0  0  0  0  0  0
    2.3571   -1.3207    0.0000 H   0  0  0  0  0  0  0  0  0  0  0  0
    5.1630   -1.3207    0.0000 H   0  0  0  0  0  0  0  0  0  0  0  0
    2.3571   -2.9407    0.0000 H   0  0  0  0  0  0  0  0  0  0  0  0
    5.1630   -2.9407    0.0000 H   0  0  0  0  0  0  0  0  0  0  0  0
    3.7601   -3.7507    0.0000 H   0  0  0  0  0  0  0  0  0  0  0  0
  1  7  2  0  0  0  0
  2  3  1  0  0  0  0
  2  6  1  0  0  0  0
  2 12  1  0  0  0  0
  3  7  1  0  0  0  0
  3 10  1  0  0  0  0
  4  5  1  0  0  0  0
  4  6  2  0  0  0  0
  4  7  1  0  0  0  0
  5  8  1  0  0  0  0
  5  9  1  0  0  0  0
  5 18  1  0  0  0  0
  6 11  1  0  0  0  0
  8 19  1  0  0  0  0
  8 20  1  0  0  0  0
  8 21  1  0  0  0  0
  9 22  1  0  0  0  0
  9 23  1  0  0  0  0
  9 24  1  0  0  0  0
 10 13  2  0  0  0  0
 10 14  1  0  0  0  0
 11 25  1  0  0  0  0
 11 26  1  0  0  0  0
 11 27  1  0  0  0  0
 12 28  1  0  0  0  0
 12 29  1  0  0  0  0
 12 30  1  0  0  0  0
 13 15  1  0  0  0  0
 13 31  1  0  0  0  0
 14 16  2  0  0  0  0
 14 32  1  0  0  0  0
 15 17  2  0  0  0  0
 15 33  1  0  0  0  0
 16 17  1  0  0  0  0
 16 34  1  0  0  0  0
 17 35  1  0  0  0  0
M  END
> <PUBCHEM_COMPOUND_CID>
3778

> <PUBCHEM_COMPOUND_CANONICALIZED>
1

> <PUBCHEM_CACTVS_COMPLEXITY>
340

> <PUBCHEM_CACTVS_HBOND_ACCEPTOR>
2

> <PUBCHEM_CACTVS_HBOND_DONOR>
0

> <PUBCHEM_CACTVS_ROTATABLE_BOND>
2

> <PUBCHEM_CACTVS_SUBSKEYS>
AAADceBzIAAAAAAAAAAAAAAAAAAAAQAAAAAwAAAAAAAAAAABAAAAHgAIAAAADQiBkAQywIIAAACIAiVSUACCBAAhAgAaiAEIZMgIIDLAkZGEIAhghADIyUcQAAAIAAAAAAAAAAAAAAAAAAAAAAAAAAAAAA==

> <PUBCHEM_IUPAC_OPENEYE_NAME>
4-isopropyl-1,5-dimethyl-2-phenyl-pyrazol-3-one

> <PUBCHEM_IUPAC_CAS_NAME>
1,5-dimethyl-2-phenyl-4-propan-2-yl-3-pyrazolone

> <PUBCHEM_IUPAC_NAME>
1,5-dimethyl-2-phenyl-4-propan-2-ylpyrazol-3-one

> <PUBCHEM_IUPAC_SYSTEMATIC_NAME>
1,5-dimethyl-2-phenyl-4-propan-2-yl-pyrazol-3-one

> <PUBCHEM_IUPAC_TRADITIONAL_NAME>
4-isopropyl-1,5-dimethyl-2-phenyl-3-pyrazolin-3-one

> <PUBCHEM_IUPAC_INCHI>
InChI=1S/C14H18N2O/c1-10(2)13-11(3)15(4)16(14(13)17)12-8-6-5-7-9-12/h5-10H,1-4H3

> <PUBCHEM_IUPAC_INCHIKEY>
PXWLVJLKJGVOKE-UHFFFAOYSA-N

> <PUBCHEM_XLOGP3>
1.7

> <PUBCHEM_EXACT_MASS>
230.141913

> <PUBCHEM_MOLECULAR_FORMULA>
C14H18N2O

> <PUBCHEM_MOLECULAR_WEIGHT>
230.30552

> <PUBCHEM_OPENEYE_CAN_SMILES>
CC1=C(C(=O)N(N1C)C2=CC=CC=C2)C(C)C

> <PUBCHEM_OPENEYE_ISO_SMILES>
CC1=C(C(=O)N(N1C)C2=CC=CC=C2)C(C)C

> <PUBCHEM_CACTVS_TPSA>
23.6

> <PUBCHEM_MONOISOTOPIC_WEIGHT>
230.141913

> <PUBCHEM_TOTAL_CHARGE>
0

> <PUBCHEM_HEAVY_ATOM_COUNT>
17

> <PUBCHEM_ATOM_DEF_STEREO_COUNT>
0

> <PUBCHEM_ATOM_UDEF_STEREO_COUNT>
0

> <PUBCHEM_BOND_DEF_STEREO_COUNT>
0

> <PUBCHEM_BOND_UDEF_STEREO_COUNT>
0

> <PUBCHEM_ISOTOPIC_ATOM_COUNT>
0

> <PUBCHEM_COMPONENT_COUNT>
1

> <PUBCHEM_CACTVS_TAUTO_COUNT>
1

> <PUBCHEM_COORDINATE_TYPE>
1
5
255

> <PUBCHEM_BONDANNOTATIONS>
10  13  8
10  14  8
13  15  8
14  16  8
15  17  8
16  17  8
2  3  8
2  6  8
3  7  8
4  6  8
4  7  8

$$$$

