   Color/Form
        Orange needles from alcohol or by sublimation at 12 mm
   from [1]HSDB

   Odor
        Orange crystals
   from [2]HSDB

   Melting Point
        256-257 deg C
   from [3]HSDB

   Solubilities

     * Practically insoluble in water; soluble in alcohol, aqueous alkali
       hydroxide solutions (cherry red color), sodium carbonate and
       ammonia solutions.
     * Solubility @ 25 deg C (g/100 ml of satd solution): ether 0.140;
       chloroform 0.071; carbon tetrachloride 0.010; carbon bisulfide
       0.009; benzene 0.041
     * Practically insoluble in water; soluble in ethanol; moderately
       soluble in aqueous alkali solutions
     * Soluble in alcohol; insoluble in water

   from [4]HSDB

   Spectral Properties

     * Absorption max (ethanol): 222, 252, 265, 289, 437 nm (log E = 4.55,
       4.26, 4.27, 4.34, 4.10)
     * Maximum absorbance: 521 (309) nm in 0.1 N sodium hydroxide
     * MASS: 80649 (NIST/EPA/MSDC Mass Spectral Database, 1990 Version)
     * IR: 3:900F (The Aldrich Handbook of Organic Chemicals and
       Biochemicals, Aldrich Chemical Co., Inc., NY, NY; Aldrich Library
       of Infrared Spectra, Aldrich Chemical Co., Milwaukee, WI)

   from [5]HSDB

   Other Chemical/Physical Properties

     * Brick red monoclinic needles; mp: 207 deg C /3-Methyl ether/
     * Pale yellow needles; mp: 225 deg C /Trimethyl ether/

   from [6]HSDB

   Computed Properties
   Molecular Weight                  270.2369 [g/mol]
   Molecular Formula                 C[15]H[10]O[5]
   XLogP3-AA                         2.7
   H-Bond Donor                      3
   H-Bond Acceptor                   5
   Rotatable Bond Count              0
   Tautomer Count                    135
   Exact Mass                        270.052823
   MonoIsotopic Mass                 270.052823
   Topological Polar Surface Area    94.8
   Heavy Atom Count                  20
   Formal Charge                     0
   Complexity                        434
   Isotope Atom Count                0
   Defined Atom Stereocenter Count   0
   Undefined Atom Stereocenter Count 0
   Defined Bond Stereocenter Count   0
   Undefined Bond Stereocenter Count 0
   Covalently-Bonded Unit Count      1
   Feature 3D Acceptor Count         2
   Feature 3D Donor Count            3
   Feature 3D Ring Count             3
   Effective Rotor Count             0
   Conformer Sampling RMSD           0.6
   CID Conformer Count               [7]1

References

   1. http://toxnet.nlm.nih.gov/cgi-bin/sis/search/r?dbs+hsdb:@term+@rn+@rel+518-82-1
   2. http://toxnet.nlm.nih.gov/cgi-bin/sis/search/r?dbs+hsdb:@term+@rn+@rel+518-82-1
   3. http://toxnet.nlm.nih.gov/cgi-bin/sis/search/r?dbs+hsdb:@term+@rn+@rel+518-82-1
   4. http://toxnet.nlm.nih.gov/cgi-bin/sis/search/r?dbs+hsdb:@term+@rn+@rel+518-82-1
   5. http://toxnet.nlm.nih.gov/cgi-bin/sis/search/r?dbs+hsdb:@term+@rn+@rel+518-82-1
   6. http://toxnet.nlm.nih.gov/cgi-bin/sis/search/r?dbs+hsdb:@term+@rn+@rel+518-82-1
   7. http://pubchem.ncbi.nlm.nih.gov/vw3d/vw3d.cgi?cid=3220
