   Color/Form
        Colorless liquid
   from [1]HSDB

   Odor
        DISAGREEABLE, RANCID-CHEESE ODOR
   from [2]HSDB

   Taste
        ACID TASTE
   from [3]HSDB

   Boiling Point
        176.5 DEG C @ 760 MM HG
   from [4]HSDB

   Melting Point
        -29.3 deg C
   from [5]HSDB

   Density/Specific Gravity
        0.931 @ 20 DEG C/4 DEG C
   from [6]HSDB

   Dissociation Constants
        pKa = 4.77 @ 25 deg C
   from [7]HSDB

   Heat of Vaporization
        12,951.1 GCAL/GMOL
   from [8]HSDB

   Octanol/Water Partition Coefficient
        Log Kow = 1.16
   from [9]HSDB

   Solubilities

     * SOL IN 24 PARTS WATER; SOL IN ALCOHOL, ETHER, CHLOROFORM
     * In water, 4.07X10+4 mg/l at 20 deg C

   from [10]HSDB

   Spectral Properties

     * IR: 1835 (Sadtler Research Laboratories Prism Collection)
     * NMR: 16007 (Sadtler Research Laboratories Spectral Collection)
     * MASS: 276 (Atlas of Mass Spectral Data, John Wiley & Sons, New
       York)
     * Index of refraction = 1.4033 at 20 deg C/D

   from [11]HSDB

   Vapor Pressure
        0.44 mm Hg at 25 deg C
   from [12]HSDB

   Other Chemical/Physical Properties

     * FORMS HYDRATE WITH 30 PARTS WATER
     * VAPOR PRESSURE: 1 MM HG @ 34 DEG C
     * Henry's Law constant = 8.33X10-7 atm cu-m/mol @ 25 deg C

   from [13]HSDB

   Computed Properties
   Molecular Weight                  102.1317 [g/mol]
   Molecular Formula                 C[5]H[10]O[2]
   XLogP3                            1.2
   H-Bond Donor                      1
   H-Bond Acceptor                   2
   Rotatable Bond Count              2
   Exact Mass                        102.06808
   MonoIsotopic Mass                 102.06808
   Topological Polar Surface Area    37.3
   Heavy Atom Count                  7
   Formal Charge                     0
   Complexity                        66.5
   Isotope Atom Count                0
   Defined Atom Stereocenter Count   0
   Undefined Atom Stereocenter Count 0
   Defined Bond Stereocenter Count   0
   Undefined Bond Stereocenter Count 0
   Covalently-Bonded Unit Count      1
   Feature 3D Acceptor Count         2
   Feature 3D Anion Count            1
   Feature 3D Hydrophobe Count       1
   Effective Rotor Count             2
   Conformer Sampling RMSD           0.4
   CID Conformer Count               [14]3

References

   1. http://toxnet.nlm.nih.gov/cgi-bin/sis/search/r?dbs+hsdb:@term+@rn+@rel+503-74-2
   2. http://toxnet.nlm.nih.gov/cgi-bin/sis/search/r?dbs+hsdb:@term+@rn+@rel+503-74-2
   3. http://toxnet.nlm.nih.gov/cgi-bin/sis/search/r?dbs+hsdb:@term+@rn+@rel+503-74-2
   4. http://toxnet.nlm.nih.gov/cgi-bin/sis/search/r?dbs+hsdb:@term+@rn+@rel+503-74-2
   5. http://toxnet.nlm.nih.gov/cgi-bin/sis/search/r?dbs+hsdb:@term+@rn+@rel+503-74-2
   6. http://toxnet.nlm.nih.gov/cgi-bin/sis/search/r?dbs+hsdb:@term+@rn+@rel+503-74-2
   7. http://toxnet.nlm.nih.gov/cgi-bin/sis/search/r?dbs+hsdb:@term+@rn+@rel+503-74-2
   8. http://toxnet.nlm.nih.gov/cgi-bin/sis/search/r?dbs+hsdb:@term+@rn+@rel+503-74-2
   9. http://toxnet.nlm.nih.gov/cgi-bin/sis/search/r?dbs+hsdb:@term+@rn+@rel+503-74-2
  10. http://toxnet.nlm.nih.gov/cgi-bin/sis/search/r?dbs+hsdb:@term+@rn+@rel+503-74-2
  11. http://toxnet.nlm.nih.gov/cgi-bin/sis/search/r?dbs+hsdb:@term+@rn+@rel+503-74-2
  12. http://toxnet.nlm.nih.gov/cgi-bin/sis/search/r?dbs+hsdb:@term+@rn+@rel+503-74-2
  13. http://toxnet.nlm.nih.gov/cgi-bin/sis/search/r?dbs+hsdb:@term+@rn+@rel+503-74-2
  14. http://pubchem.ncbi.nlm.nih.gov/vw3d/vw3d.cgi?cid=10430
