253249
  -OEChem-07051213062D

 24 25  0     1  0  0  0  0  0999 V2000
    2.8660    2.5600    0.0000 O   0  0  0  0  0  0  0  0  0  0  0  0
    2.0000   -1.9400    0.0000 O   0  0  0  0  0  0  0  0  0  0  0  0
    3.7320   -1.9400    0.0000 O   0  0  0  0  0  0  0  0  0  0  0  0
    2.8660   -0.4400    0.0000 C   0  0  3  0  0  0  0  0  0  0  0  0
    2.0000    0.0600    0.0000 C   0  0  0  0  0  0  0  0  0  0  0  0
    3.7320    0.0600    0.0000 C   0  0  0  0  0  0  0  0  0  0  0  0
    2.0000    1.0600    0.0000 C   0  0  0  0  0  0  0  0  0  0  0  0
    3.7320    1.0600    0.0000 C   0  0  0  0  0  0  0  0  0  0  0  0
    2.8660    1.5600    0.0000 C   0  0  0  0  0  0  0  0  0  0  0  0
    4.6260   -0.4747    0.0000 C   0  0  0  0  0  0  0  0  0  0  0  0
    2.8660   -1.4400    0.0000 C   0  0  0  0  0  0  0  0  0  0  0  0
    4.6260    1.5947    0.0000 C   0  0  0  0  0  0  0  0  0  0  0  0
    5.5321    0.0392    0.0000 C   0  0  0  0  0  0  0  0  0  0  0  0
    5.5321    1.0808    0.0000 C   0  0  0  0  0  0  0  0  0  0  0  0
    3.4030   -0.7500    0.0000 H   0  0  0  0  0  0  0  0  0  0  0  0
    1.3894    0.1677    0.0000 H   0  0  0  0  0  0  0  0  0  0  0  0
    1.7880   -0.5226    0.0000 H   0  0  0  0  0  0  0  0  0  0  0  0
    1.7880    1.6426    0.0000 H   0  0  0  0  0  0  0  0  0  0  0  0
    1.3894    0.9523    0.0000 H   0  0  0  0  0  0  0  0  0  0  0  0
    4.6188   -1.0946    0.0000 H   0  0  0  0  0  0  0  0  0  0  0  0
    4.6188    2.2146    0.0000 H   0  0  0  0  0  0  0  0  0  0  0  0
    6.0678   -0.2729    0.0000 H   0  0  0  0  0  0  0  0  0  0  0  0
    6.0678    1.3929    0.0000 H   0  0  0  0  0  0  0  0  0  0  0  0
    2.0000   -2.5600    0.0000 H   0  0  0  0  0  0  0  0  0  0  0  0
  1  9  2  0  0  0  0
  2 11  1  0  0  0  0
  2 24  1  0  0  0  0
  3 11  2  0  0  0  0
  4  5  1  0  0  0  0
  4  6  1  0  0  0  0
  4 11  1  0  0  0  0
  4 15  1  0  0  0  0
  5  7  1  0  0  0  0
  5 16  1  0  0  0  0
  5 17  1  0  0  0  0
  6  8  1  0  0  0  0
  6 10  2  0  0  0  0
  7  9  1  0  0  0  0
  7 18  1  0  0  0  0
  7 19  1  0  0  0  0
  8  9  1  0  0  0  0
  8 12  2  0  0  0  0
 10 13  1  0  0  0  0
 10 20  1  0  0  0  0
 12 14  1  0  0  0  0
 12 21  1  0  0  0  0
 13 14  2  0  0  0  0
 13 22  1  0  0  0  0
 14 23  1  0  0  0  0
M  END
> <PUBCHEM_COMPOUND_CID>
253249

> <PUBCHEM_COMPOUND_CANONICALIZED>
1

> <PUBCHEM_CACTVS_COMPLEXITY>
259

> <PUBCHEM_CACTVS_HBOND_ACCEPTOR>
3

> <PUBCHEM_CACTVS_HBOND_DONOR>
1

> <PUBCHEM_CACTVS_ROTATABLE_BOND>
1

> <PUBCHEM_CACTVS_SUBSKEYS>
AAADccBwMAAAAAAAAAAAAAAAAAAAAAAAAAAwYAAAAAAAAADBAAAAGgAACAAADQSAmAAwCIAAAgCIAqDSCAACAAAkAAAIiAEAAMgIIDKAFRCAYQAkwAEIiYeIzuCugAAAAAAQAAAAAAQAACAAAAAAAAAAAA==

> <PUBCHEM_IUPAC_OPENEYE_NAME>
4-oxotetralin-1-carboxylic acid

> <PUBCHEM_IUPAC_CAS_NAME>
4-oxo-2,3-dihydro-1H-naphthalene-1-carboxylic acid

> <PUBCHEM_IUPAC_NAME>
4-oxo-2,3-dihydro-1H-naphthalene-1-carboxylic acid

> <PUBCHEM_IUPAC_SYSTEMATIC_NAME>
4-oxidanylidene-2,3-dihydro-1H-naphthalene-1-carboxylic acid

> <PUBCHEM_IUPAC_TRADITIONAL_NAME>
4-ketotetralin-1-carboxylic acid

> <PUBCHEM_IUPAC_INCHI>
InChI=1S/C11H10O3/c12-10-6-5-9(11(13)14)7-3-1-2-4-8(7)10/h1-4,9H,5-6H2,(H,13,14)

> <PUBCHEM_IUPAC_INCHIKEY>
KTWAOLHYZNAOLN-UHFFFAOYSA-N

> <PUBCHEM_XLOGP3_AA>
1.3

> <PUBCHEM_EXACT_MASS>
190.062994

> <PUBCHEM_MOLECULAR_FORMULA>
C11H10O3

> <PUBCHEM_MOLECULAR_WEIGHT>
190.1953

> <PUBCHEM_OPENEYE_CAN_SMILES>
C1CC(=O)C2=CC=CC=C2C1C(=O)O

> <PUBCHEM_OPENEYE_ISO_SMILES>
C1CC(=O)C2=CC=CC=C2C1C(=O)O

> <PUBCHEM_CACTVS_TPSA>
54.4

> <PUBCHEM_MONOISOTOPIC_WEIGHT>
190.062994

> <PUBCHEM_TOTAL_CHARGE>
0

> <PUBCHEM_HEAVY_ATOM_COUNT>
14

> <PUBCHEM_ATOM_DEF_STEREO_COUNT>
0

> <PUBCHEM_ATOM_UDEF_STEREO_COUNT>
1

> <PUBCHEM_BOND_DEF_STEREO_COUNT>
0

> <PUBCHEM_BOND_UDEF_STEREO_COUNT>
0

> <PUBCHEM_ISOTOPIC_ATOM_COUNT>
0

> <PUBCHEM_COMPONENT_COUNT>
1

> <PUBCHEM_CACTVS_TAUTO_COUNT>
2

> <PUBCHEM_COORDINATE_TYPE>
1
5
255

> <PUBCHEM_BONDANNOTATIONS>
10  13  8
12  14  8
13  14  8
4  11  3
6  10  8
6  8  8
8  12  8

$$$$

