24829009
  -OEChem-07051213092D

 92 99  0     1  0  0  0  0  0999 V2000
    7.2645    3.5692    0.0000 O   0  0  0  0  0  0  0  0  0  0  0  0
    7.2761   -3.5692    0.0000 O   0  0  0  0  0  0  0  0  0  0  0  0
    2.8641    4.0797    0.0000 O   0  0  0  0  0  0  0  0  0  0  0  0
   11.6765   -4.0797    0.0000 O   0  0  0  0  0  0  0  0  0  0  0  0
    4.6380    5.1039    0.0000 O   0  0  0  0  0  0  0  0  0  0  0  0
    9.9026   -5.1039    0.0000 O   0  0  0  0  0  0  0  0  0  0  0  0
    9.0462    2.5588    0.0000 O   0  0  0  0  0  0  0  0  0  0  0  0
    5.4943   -2.5588    0.0000 O   0  0  0  0  0  0  0  0  0  0  0  0
    9.4686   -1.0437    0.0000 N   0  0  3  0  0  0  0  0  0  0  0  0
    5.0720    1.0437    0.0000 N   0  0  3  0  0  0  0  0  0  0  0  0
    9.0245   -2.5346    0.0000 C   0  0  2  0  0  0  0  0  0  0  0  0
    5.5161    2.5346    0.0000 C   0  0  2  0  0  0  0  0  0  0  0  0
    9.8905   -2.0346    0.0000 C   0  0  1  0  0  0  0  0  0  0  0  0
    4.6501    2.0346    0.0000 C   0  0  1  0  0  0  0  0  0  0  0  0
    4.6501    1.0346    0.0000 C   0  0  2  0  0  0  0  0  0  0  0  0
    9.8905   -1.0346    0.0000 C   0  0  2  0  0  0  0  0  0  0  0  0
    8.8214   -2.1647    0.0000 C   0  0  0  0  0  0  0  0  0  0  0  0
    5.7192    2.1647    0.0000 C   0  0  0  0  0  0  0  0  0  0  0  0
    6.3821    2.0346    0.0000 C   0  0  0  0  0  0  0  0  0  0  0  0
    8.1584   -2.0346    0.0000 C   0  0  0  0  0  0  0  0  0  0  0  0
    9.0245   -0.5346    0.0000 C   0  0  0  0  0  0  0  0  0  0  0  0
    5.5161    0.5346    0.0000 C   0  0  0  0  0  0  0  0  0  0  0  0
    6.3821    1.0346    0.0000 C   0  0  0  0  0  0  0  0  0  0  0  0
    8.1584   -1.0346    0.0000 C   0  0  0  0  0  0  0  0  0  0  0  0
    9.0084   -3.5761    0.0000 C   0  0  0  0  0  0  0  0  0  0  0  0
    5.5322    3.5761    0.0000 C   0  0  0  0  0  0  0  0  0  0  0  0
    8.7378   -1.3691    0.0000 C   0  0  0  0  0  0  0  0  0  0  0  0
    5.8028    1.3691    0.0000 C   0  0  0  0  0  0  0  0  0  0  0  0
    3.7401    2.5415    0.0000 C   0  0  0  0  0  0  0  0  0  0  0  0
   10.8005   -2.5415    0.0000 C   0  0  0  0  0  0  0  0  0  0  0  0
    7.2761    0.5000    0.0000 C   0  0  0  0  0  0  0  0  0  0  0  0
    7.2645   -0.5000    0.0000 C   0  0  0  0  0  0  0  0  0  0  0  0
    7.2645   -2.5693    0.0000 C   0  0  0  0  0  0  0  0  0  0  0  0
    7.2761    2.5693    0.0000 C   0  0  0  0  0  0  0  0  0  0  0  0
    9.9064   -4.1039    0.0000 C   0  0  0  0  0  0  0  0  0  0  0  0
    4.6341    4.1039    0.0000 C   0  0  0  0  0  0  0  0  0  0  0  0
   10.8085   -3.5831    0.0000 C   0  0  0  0  0  0  0  0  0  0  0  0
    3.7320    3.5831    0.0000 C   0  0  0  0  0  0  0  0  0  0  0  0
    4.8641    0.0656    0.0000 C   0  0  0  0  0  0  0  0  0  0  0  0
    9.6765   -0.0656    0.0000 C   0  0  0  0  0  0  0  0  0  0  0  0
    8.1821    1.0138    0.0000 C   0  0  0  0  0  0  0  0  0  0  0  0
    6.3584   -1.0138    0.0000 C   0  0  0  0  0  0  0  0  0  0  0  0
    8.1821    2.0554    0.0000 C   0  0  0  0  0  0  0  0  0  0  0  0
    6.3584   -2.0554    0.0000 C   0  0  0  0  0  0  0  0  0  0  0  0
   12.5406   -3.5764    0.0000 C   0  0  0  0  0  0  0  0  0  0  0  0
    2.0000    3.5764    0.0000 C   0  0  0  0  0  0  0  0  0  0  0  0
    4.6264   -2.0621    0.0000 C   0  0  0  0  0  0  0  0  0  0  0  0
    9.9142    2.0621    0.0000 C   0  0  0  0  0  0  0  0  0  0  0  0
    3.9140    1.6096    0.0000 H   0  0  0  0  0  0  0  0  0  0  0  0
   10.6266   -1.6096    0.0000 H   0  0  0  0  0  0  0  0  0  0  0  0
    4.2251    0.2985    0.0000 H   0  0  0  0  0  0  0  0  0  0  0  0
   10.3155   -0.2985    0.0000 H   0  0  0  0  0  0  0  0  0  0  0  0
    8.2266   -1.9896    0.0000 H   0  0  0  0  0  0  0  0  0  0  0  0
    9.4130   -1.9795    0.0000 H   0  0  0  0  0  0  0  0  0  0  0  0
    6.3139    1.9896    0.0000 H   0  0  0  0  0  0  0  0  0  0  0  0
    5.1275    1.9795    0.0000 H   0  0  0  0  0  0  0  0  0  0  0  0
    5.1176    0.0597    0.0000 H   0  0  0  0  0  0  0  0  0  0  0  0
    5.9146    0.0597    0.0000 H   0  0  0  0  0  0  0  0  0  0  0  0
    9.4230   -0.0597    0.0000 H   0  0  0  0  0  0  0  0  0  0  0  0
    8.6259   -0.0597    0.0000 H   0  0  0  0  0  0  0  0  0  0  0  0
    6.1413    3.4606    0.0000 H   0  0  0  0  0  0  0  0  0  0  0  0
    5.7502    4.1565    0.0000 H   0  0  0  0  0  0  0  0  0  0  0  0
    8.3993   -3.4606    0.0000 H   0  0  0  0  0  0  0  0  0  0  0  0
    8.7904   -4.1565    0.0000 H   0  0  0  0  0  0  0  0  0  0  0  0
    8.5462   -0.7794    0.0000 H   0  0  0  0  0  0  0  0  0  0  0  0
    8.1313   -1.4980    0.0000 H   0  0  0  0  0  0  0  0  0  0  0  0
    5.9944    0.7794    0.0000 H   0  0  0  0  0  0  0  0  0  0  0  0
    6.4093    1.4980    0.0000 H   0  0  0  0  0  0  0  0  0  0  0  0
   11.3338   -2.2253    0.0000 H   0  0  0  0  0  0  0  0  0  0  0  0
    3.2068    2.2253    0.0000 H   0  0  0  0  0  0  0  0  0  0  0  0
    4.2576    0.1945    0.0000 H   0  0  0  0  0  0  0  0  0  0  0  0
    4.7352   -0.5409    0.0000 H   0  0  0  0  0  0  0  0  0  0  0  0
    5.4705   -0.0634    0.0000 H   0  0  0  0  0  0  0  0  0  0  0  0
   10.2829   -0.1945    0.0000 H   0  0  0  0  0  0  0  0  0  0  0  0
    9.8054    0.5409    0.0000 H   0  0  0  0  0  0  0  0  0  0  0  0
    9.0700    0.0634    0.0000 H   0  0  0  0  0  0  0  0  0  0  0  0
    8.7179    0.7017    0.0000 H   0  0  0  0  0  0  0  0  0  0  0  0
    5.8227   -0.7017    0.0000 H   0  0  0  0  0  0  0  0  0  0  0  0
    6.7428   -3.8854    0.0000 H   0  0  0  0  0  0  0  0  0  0  0  0
    7.7978    3.8854    0.0000 H   0  0  0  0  0  0  0  0  0  0  0  0
    1.6879    4.1121    0.0000 H   0  0  0  0  0  0  0  0  0  0  0  0
    1.4643    3.2643    0.0000 H   0  0  0  0  0  0  0  0  0  0  0  0
    2.3121    3.0407    0.0000 H   0  0  0  0  0  0  0  0  0  0  0  0
   12.8526   -4.1121    0.0000 H   0  0  0  0  0  0  0  0  0  0  0  0
   13.0763   -3.2643    0.0000 H   0  0  0  0  0  0  0  0  0  0  0  0
   12.2285   -3.0407    0.0000 H   0  0  0  0  0  0  0  0  0  0  0  0
    9.6062    1.5240    0.0000 H   0  0  0  0  0  0  0  0  0  0  0  0
   10.4523    1.7542    0.0000 H   0  0  0  0  0  0  0  0  0  0  0  0
   10.2221    2.6002    0.0000 H   0  0  0  0  0  0  0  0  0  0  0  0
    4.9343   -1.5240    0.0000 H   0  0  0  0  0  0  0  0  0  0  0  0
    4.0883   -1.7542    0.0000 H   0  0  0  0  0  0  0  0  0  0  0  0
    4.3185   -2.6002    0.0000 H   0  0  0  0  0  0  0  0  0  0  0  0
  1 34  1  0  0  0  0
  1 80  1  0  0  0  0
  2 33  1  0  0  0  0
  2 79  1  0  0  0  0
  3 38  1  0  0  0  0
  3 46  1  0  0  0  0
  4 37  1  0  0  0  0
  4 45  1  0  0  0  0
  5 36  2  0  0  0  0
  6 35  2  0  0  0  0
  7 43  1  0  0  0  0
  7 48  1  0  0  0  0
  8 44  1  0  0  0  0
  8 47  1  0  0  0  0
  9 16  1  0  0  0  0
  9 27  1  0  0  0  0
  9 40  1  0  0  0  0
 10 15  1  0  0  0  0
 10 28  1  0  0  0  0
 10 39  1  0  0  0  0
 11 13  1  0  0  0  0
 11 17  1  0  0  0  0
 11 20  1  0  0  0  0
 11 25  1  6  0  0  0
 12 14  1  0  0  0  0
 12 18  1  0  0  0  0
 12 19  1  0  0  0  0
 12 26  1  6  0  0  0
 13 16  1  0  0  0  0
 13 30  1  0  0  0  0
 13 50  1  6  0  0  0
 14 15  1  0  0  0  0
 14 29  1  0  0  0  0
 14 49  1  6  0  0  0
 15 22  1  0  0  0  0
 15 51  1  6  0  0  0
 16 21  1  0  0  0  0
 16 52  1  6  0  0  0
 17 27  1  0  0  0  0
 17 53  1  0  0  0  0
 17 54  1  0  0  0  0
 18 28  1  0  0  0  0
 18 55  1  0  0  0  0
 18 56  1  0  0  0  0
 19 23  2  0  0  0  0
 19 34  1  0  0  0  0
 20 24  2  0  0  0  0
 20 33  1  0  0  0  0
 21 24  1  0  0  0  0
 21 59  1  0  0  0  0
 21 60  1  0  0  0  0
 22 23  1  0  0  0  0
 22 57  1  0  0  0  0
 22 58  1  0  0  0  0
 23 31  1  0  0  0  0
 24 32  1  0  0  0  0
 25 35  1  0  0  0  0
 25 63  1  0  0  0  0
 25 64  1  0  0  0  0
 26 36  1  0  0  0  0
 26 61  1  0  0  0  0
 26 62  1  0  0  0  0
 27 65  1  0  0  0  0
 27 66  1  0  0  0  0
 28 67  1  0  0  0  0
 28 68  1  0  0  0  0
 29 38  2  0  0  0  0
 29 70  1  0  0  0  0
 30 37  2  0  0  0  0
 30 69  1  0  0  0  0
 31 32  1  0  0  0  0
 31 41  2  0  0  0  0
 32 42  2  0  0  0  0
 33 44  2  0  0  0  0
 34 43  2  0  0  0  0
 35 37  1  0  0  0  0
 36 38  1  0  0  0  0
 39 71  1  0  0  0  0
 39 72  1  0  0  0  0
 39 73  1  0  0  0  0
 40 74  1  0  0  0  0
 40 75  1  0  0  0  0
 40 76  1  0  0  0  0
 41 43  1  0  0  0  0
 41 77  1  0  0  0  0
 42 44  1  0  0  0  0
 42 78  1  0  0  0  0
 45 84  1  0  0  0  0
 45 85  1  0  0  0  0
 45 86  1  0  0  0  0
 46 81  1  0  0  0  0
 46 82  1  0  0  0  0
 46 83  1  0  0  0  0
 47 90  1  0  0  0  0
 47 91  1  0  0  0  0
 47 92  1  0  0  0  0
 48 87  1  0  0  0  0
 48 88  1  0  0  0  0
 48 89  1  0  0  0  0
M  END
> <PUBCHEM_COMPOUND_CID>
24829009

> <PUBCHEM_COMPOUND_CANONICALIZED>
1

> <PUBCHEM_CACTVS_COMPLEXITY>
1280

> <PUBCHEM_CACTVS_HBOND_ACCEPTOR>
10

> <PUBCHEM_CACTVS_HBOND_DONOR>
2

> <PUBCHEM_CACTVS_ROTATABLE_BOND>
5

> <PUBCHEM_CACTVS_SUBSKEYS>
AAADcfB/PAAAAAAAAAAAAAAAAAAAAAAAAAA8eMGCAAAWLADBQAAAHgAACAAADyzBmAYyBoMABgCIAqBSAAICCAAgIAAAiAFOiMgNJjKGsB+EcCMkwBGLuYeY3fPfoAADAAAYQADQAAaAADSAAAAAAAAAAA==

> <PUBCHEM_IUPAC_INCHI>
InChI=1S/C38H44N2O8/c1-39-9-7-37-17-27(41)29(45-3)15-23(37)25(39)11-21-19(13-31(47-5)35(43)33(21)37)20-14-32(48-6)36(44)34-22(20)12-26-24-16-30(46-4)28(42)18-38(24,34)8-10-40(26)2/h13-16,23-26,43-44H,7-12,17-18H2,1-6H3/t23-,24-,25+,26+,37-,38-/m1/s1

> <PUBCHEM_IUPAC_INCHIKEY>
AXVVWZONCVUAPP-QULPKBGFSA-N

> <PUBCHEM_XLOGP3_AA>
4

> <PUBCHEM_EXACT_MASS>
656.309766

> <PUBCHEM_MOLECULAR_FORMULA>
C38H44N2O8

> <PUBCHEM_MOLECULAR_WEIGHT>
656.76456

> <PUBCHEM_OPENEYE_CAN_SMILES>
CN1CCC23CC(=O)C(=CC2C1CC4=C3C(=C(C=C4C5=CC(=C(C6=C5CC7C8C6(CCN7C)CC(=O)C(=C8)OC)O)OC)OC)O)OC

> <PUBCHEM_OPENEYE_ISO_SMILES>
CN1CC[C@@]23CC(=O)C(=C[C@@H]2[C@@H]1CC4=C3C(=C(C=C4C5=CC(=C(C6=C5C[C@H]7[C@@H]8[C@@]6(CCN7C)CC(=O)C(=C8)OC)O)OC)OC)O)OC

> <PUBCHEM_CACTVS_TPSA>
118

> <PUBCHEM_MONOISOTOPIC_WEIGHT>
656.309766

> <PUBCHEM_TOTAL_CHARGE>
0

> <PUBCHEM_HEAVY_ATOM_COUNT>
48

> <PUBCHEM_ATOM_DEF_STEREO_COUNT>
6

> <PUBCHEM_ATOM_UDEF_STEREO_COUNT>
0

> <PUBCHEM_BOND_DEF_STEREO_COUNT>
0

> <PUBCHEM_BOND_UDEF_STEREO_COUNT>
0

> <PUBCHEM_ISOTOPIC_ATOM_COUNT>
0

> <PUBCHEM_COMPONENT_COUNT>
1

> <PUBCHEM_CACTVS_TAUTO_COUNT>
999

> <PUBCHEM_COORDINATE_TYPE>
1
5
255

> <PUBCHEM_BONDANNOTATIONS>
11  25  6
12  26  6
13  50  6
14  49  6
15  51  6
16  52  6
19  23  8
19  34  8
20  24  8
20  33  8
23  31  8
24  32  8
31  41  8
32  42  8
33  44  8
34  43  8
41  43  8
42  44  8

$$$$

