442940
  -OEChem-07051213002D

 42 45  0     1  0  0  0  0  0999 V2000
    7.0578   -1.5695    0.0000 O   0  0  0  0  0  0  0  0  0  0  0  0
    2.8520   -0.3627    0.0000 N   0  0  3  0  0  0  0  0  0  0  0  0
    7.7826    0.0584    0.0000 N   0  0  0  0  0  0  0  0  0  0  0  0
    5.5596    1.4397    0.0000 C   0  0  2  0  0  0  0  0  0  0  0  0
    5.3007    0.4737    0.0000 C   0  0  1  0  0  0  0  0  0  0  0  0
    3.7656   -0.7694    0.0000 C   0  0  2  0  0  0  0  0  0  0  0  0
    7.4242    0.9920    0.0000 C   0  0  1  0  0  0  0  0  0  0  0  0
    4.8229    2.4223    0.0000 C   0  0  0  0  0  0  0  0  0  0  0  0
    2.9566    0.6318    0.0000 C   0  0  0  0  0  0  0  0  0  0  0  0
    7.0054   -0.5709    0.0000 C   0  0  0  0  0  0  0  0  0  0  0  0
    3.8904   -1.8035    0.0000 C   0  0  0  0  0  0  0  0  0  0  0  0
    8.0672    1.8115    0.0000 C   0  0  0  0  0  0  0  0  0  0  0  0
    2.0000   -0.9619    0.0000 C   0  0  0  0  0  0  0  0  0  0  0  0
    8.8088   -0.1204    0.0000 C   0  0  0  0  0  0  0  0  0  0  0  0
    3.0525   -2.4223    0.0000 C   0  0  0  0  0  0  0  0  0  0  0  0
    9.0972    1.6565    0.0000 C   0  0  0  0  0  0  0  0  0  0  0  0
    2.1009   -1.9986    0.0000 C   0  0  0  0  0  0  0  0  0  0  0  0
    9.4705    0.6840    0.0000 C   0  0  0  0  0  0  0  0  0  0  0  0
    5.7796    2.2607    0.0000 H   0  0  0  0  0  0  0  0  0  0  0  0
    5.0807   -0.3473    0.0000 H   0  0  0  0  0  0  0  0  0  0  0  0
    4.5421   -1.1151    0.0000 H   0  0  0  0  0  0  0  0  0  0  0  0
    7.1196    1.7855    0.0000 H   0  0  0  0  0  0  0  0  0  0  0  0
    5.1408    2.9546    0.0000 H   0  0  0  0  0  0  0  0  0  0  0  0
    4.2098    2.5142    0.0000 H   0  0  0  0  0  0  0  0  0  0  0  0
    2.8543    1.2434    0.0000 H   0  0  0  0  0  0  0  0  0  0  0  0
    2.3368    0.6129    0.0000 H   0  0  0  0  0  0  0  0  0  0  0  0
    4.1679   -2.3580    0.0000 H   0  0  0  0  0  0  0  0  0  0  0  0
    4.4842   -1.6250    0.0000 H   0  0  0  0  0  0  0  0  0  0  0  0
    8.2630    2.3998    0.0000 H   0  0  0  0  0  0  0  0  0  0  0  0
    7.5211    2.1051    0.0000 H   0  0  0  0  0  0  0  0  0  0  0  0
    1.7354   -0.4012    0.0000 H   0  0  0  0  0  0  0  0  0  0  0  0
    1.4023   -1.1266    0.0000 H   0  0  0  0  0  0  0  0  0  0  0  0
    8.5994   -0.7040    0.0000 H   0  0  0  0  0  0  0  0  0  0  0  0
    9.3479   -0.4265    0.0000 H   0  0  0  0  0  0  0  0  0  0  0  0
    2.7071   -2.9372    0.0000 H   0  0  0  0  0  0  0  0  0  0  0  0
    3.5007   -2.8507    0.0000 H   0  0  0  0  0  0  0  0  0  0  0  0
    9.7055    1.7764    0.0000 H   0  0  0  0  0  0  0  0  0  0  0  0
    9.0832    2.2763    0.0000 H   0  0  0  0  0  0  0  0  0  0  0  0
    1.4826   -1.9522    0.0000 H   0  0  0  0  0  0  0  0  0  0  0  0
    1.9494   -2.5998    0.0000 H   0  0  0  0  0  0  0  0  0  0  0  0
    9.8748    0.2140    0.0000 H   0  0  0  0  0  0  0  0  0  0  0  0
   10.0028    1.0020    0.0000 H   0  0  0  0  0  0  0  0  0  0  0  0
  1 10  2  0  0  0  0
  2  6  1  0  0  0  0
  2  9  1  0  0  0  0
  2 13  1  0  0  0  0
  3  7  1  0  0  0  0
  3 10  1  0  0  0  0
  3 14  1  0  0  0  0
  4  7  1  0  0  0  0
  4  8  1  0  0  0  0
  4  9  1  0  0  0  0
  4 19  1  6  0  0  0
  5  6  1  0  0  0  0
  5  8  1  0  0  0  0
  5 10  1  0  0  0  0
  5 20  1  6  0  0  0
  6 11  1  0  0  0  0
  6 21  1  1  0  0  0
  7 12  1  0  0  0  0
  7 22  1  6  0  0  0
  8 23  1  0  0  0  0
  8 24  1  0  0  0  0
  9 25  1  0  0  0  0
  9 26  1  0  0  0  0
 11 15  1  0  0  0  0
 11 27  1  0  0  0  0
 11 28  1  0  0  0  0
 12 16  1  0  0  0  0
 12 29  1  0  0  0  0
 12 30  1  0  0  0  0
 13 17  1  0  0  0  0
 13 31  1  0  0  0  0
 13 32  1  0  0  0  0
 14 18  1  0  0  0  0
 14 33  1  0  0  0  0
 14 34  1  0  0  0  0
 15 17  1  0  0  0  0
 15 35  1  0  0  0  0
 15 36  1  0  0  0  0
 16 18  1  0  0  0  0
 16 37  1  0  0  0  0
 16 38  1  0  0  0  0
 17 39  1  0  0  0  0
 17 40  1  0  0  0  0
 18 41  1  0  0  0  0
 18 42  1  0  0  0  0
M  END
> <PUBCHEM_COMPOUND_CID>
442940

> <PUBCHEM_COMPOUND_CANONICALIZED>
1

> <PUBCHEM_CACTVS_COMPLEXITY>
356

> <PUBCHEM_CACTVS_HBOND_ACCEPTOR>
2

> <PUBCHEM_CACTVS_HBOND_DONOR>
0

> <PUBCHEM_CACTVS_ROTATABLE_BOND>
0

> <PUBCHEM_CACTVS_SUBSKEYS>
AAADceBzIAAAAAAAAAAAAAAAAAAAAAAAAAAsWLFgAAAWAACwAAAAHgAAAAAADSjBgAQAAAMAAAAIAAEQEAAAAAAAAAAAAAEIAAAAABoAwAAEAAAABgCAAAEYicCeAAAAAAAAAAAAAAAAAAAAAAAAAAAAAA==

> <PUBCHEM_IUPAC_INCHI>
InChI=1S/C15H24N2O/c18-15-12-9-11(13-5-2-4-8-17(13)15)10-16-7-3-1-6-14(12)16/h11-14H,1-10H2/t11-,12-,13-,14+/m1/s1

> <PUBCHEM_IUPAC_INCHIKEY>
YQMWQSMYVPLYDI-SYQHCUMBSA-N

> <PUBCHEM_XLOGP3_AA>
1.7

> <PUBCHEM_EXACT_MASS>
248.188863

> <PUBCHEM_MOLECULAR_FORMULA>
C15H24N2O

> <PUBCHEM_MOLECULAR_WEIGHT>
248.36386

> <PUBCHEM_OPENEYE_CAN_SMILES>
C1CCN2CC3CC(C2C1)C(=O)N4C3CCCC4

> <PUBCHEM_OPENEYE_ISO_SMILES>
C1CCN2C[C@H]3C[C@H]([C@@H]2C1)C(=O)N4[C@@H]3CCCC4

> <PUBCHEM_CACTVS_TPSA>
23.6

> <PUBCHEM_MONOISOTOPIC_WEIGHT>
248.188863

> <PUBCHEM_TOTAL_CHARGE>
0

> <PUBCHEM_HEAVY_ATOM_COUNT>
18

> <PUBCHEM_ATOM_DEF_STEREO_COUNT>
4

> <PUBCHEM_ATOM_UDEF_STEREO_COUNT>
0

> <PUBCHEM_BOND_DEF_STEREO_COUNT>
0

> <PUBCHEM_BOND_UDEF_STEREO_COUNT>
0

> <PUBCHEM_ISOTOPIC_ATOM_COUNT>
0

> <PUBCHEM_COMPONENT_COUNT>
1

> <PUBCHEM_CACTVS_TAUTO_COUNT>
1

> <PUBCHEM_COORDINATE_TYPE>
1
5
255

> <PUBCHEM_BONDANNOTATIONS>
4  19  6
5  20  6
6  21  5
7  22  6

$$$$

