442063
  -OEChem-07051212562D

 48 52  0     1  0  0  0  0  0999 V2000
    6.9203    1.4204    0.0000 O   0  0  0  0  0  0  0  0  0  0  0  0
    2.8249    1.2157    0.0000 O   0  0  0  0  0  0  0  0  0  0  0  0
    5.1877    3.4204    0.0000 O   0  0  0  0  0  0  0  0  0  0  0  0
    2.5357   -1.1247    0.0000 O   0  0  0  0  0  0  0  0  0  0  0  0
    2.9127    2.9711    0.0000 O   0  0  0  0  0  0  0  0  0  0  0  0
    5.2370   -2.7763    0.0000 O   0  0  0  0  0  0  0  0  0  0  0  0
    7.0442   -2.7165    0.0000 O   0  0  0  0  0  0  0  0  0  0  0  0
    5.1877    0.4204    0.0000 C   0  0  2  0  0  0  0  0  0  0  0  0
    4.3217    0.9204    0.0000 C   0  0  2  0  0  0  0  0  0  0  0  0
    6.0538    0.9204    0.0000 C   0  0  2  0  0  0  0  0  0  0  0  0
    4.3217    1.9204    0.0000 C   0  0  2  0  0  0  0  0  0  0  0  0
    6.0538    1.9204    0.0000 C   0  0  2  0  0  0  0  0  0  0  0  0
    5.1877    2.4204    0.0000 C   0  0  2  0  0  0  0  0  0  0  0  0
    3.4117    0.4136    0.0000 C   0  0  1  0  0  0  0  0  0  0  0  0
    5.2038   -0.6211    0.0000 C   0  0  0  0  0  0  0  0  0  0  0  0
    3.4037   -0.6280    0.0000 C   0  0  1  0  0  0  0  0  0  0  0  0
    6.0538   -0.0796    0.0000 C   0  0  0  0  0  0  0  0  0  0  0  0
    3.3387    2.0664    0.0000 C   0  0  0  0  0  0  0  0  0  0  0  0
    4.3217    2.9204    0.0000 C   0  0  0  0  0  0  0  0  0  0  0  0
    4.3058   -1.1488    0.0000 C   0  0  0  0  0  0  0  0  0  0  0  0
    6.1557   -1.1417    0.0000 C   0  0  0  0  0  0  0  0  0  0  0  0
    4.2974   -2.2338    0.0000 C   0  0  0  0  0  0  0  0  0  0  0  0
    6.1725   -2.2266    0.0000 C   0  0  0  0  0  0  0  0  0  0  0  0
    3.4294   -2.7304    0.0000 C   0  0  0  0  0  0  0  0  0  0  0  0
    3.4256   -3.7304    0.0000 C   0  0  0  0  0  0  0  0  0  0  0  0
    2.5654   -2.2271    0.0000 C   0  0  0  0  0  0  0  0  0  0  0  0
    4.3217    0.0704    0.0000 H   0  0  0  0  0  0  0  0  0  0  0  0
    6.3637    0.3835    0.0000 H   0  0  0  0  0  0  0  0  0  0  0  0
    6.3637    2.4574    0.0000 H   0  0  0  0  0  0  0  0  0  0  0  0
    4.6508    2.7304    0.0000 H   0  0  0  0  0  0  0  0  0  0  0  0
    2.6027    0.1527    0.0000 H   0  0  0  0  0  0  0  0  0  0  0  0
    3.4025   -1.2480    0.0000 H   0  0  0  0  0  0  0  0  0  0  0  0
    5.7438   -0.6165    0.0000 H   0  0  0  0  0  0  0  0  0  0  0  0
    6.5907   -0.3896    0.0000 H   0  0  0  0  0  0  0  0  0  0  0  0
    6.3638    0.4574    0.0000 H   0  0  0  0  0  0  0  0  0  0  0  0
    4.9417    2.9204    0.0000 H   0  0  0  0  0  0  0  0  0  0  0  0
    4.3217    3.5404    0.0000 H   0  0  0  0  0  0  0  0  0  0  0  0
    3.7017    2.9204    0.0000 H   0  0  0  0  0  0  0  0  0  0  0  0
    5.7247    3.7304    0.0000 H   0  0  0  0  0  0  0  0  0  0  0  0
    6.6866   -0.8214    0.0000 H   0  0  0  0  0  0  0  0  0  0  0  0
    2.0000   -0.8126    0.0000 H   0  0  0  0  0  0  0  0  0  0  0  0
    3.9652   -3.0425    0.0000 H   0  0  0  0  0  0  0  0  0  0  0  0
    2.8056   -3.7280    0.0000 H   0  0  0  0  0  0  0  0  0  0  0  0
    3.4232   -4.3504    0.0000 H   0  0  0  0  0  0  0  0  0  0  0  0
    4.0456   -3.7328    0.0000 H   0  0  0  0  0  0  0  0  0  0  0  0
    2.8774   -1.6914    0.0000 H   0  0  0  0  0  0  0  0  0  0  0  0
    2.0296   -1.9150    0.0000 H   0  0  0  0  0  0  0  0  0  0  0  0
    2.2533   -2.7628    0.0000 H   0  0  0  0  0  0  0  0  0  0  0  0
 10  1  1  6  0  0  0
 12  1  1  6  0  0  0
  2 14  1  0  0  0  0
  2 18  1  0  0  0  0
 13  3  1  1  0  0  0
  3 39  1  0  0  0  0
 16  4  1  1  0  0  0
  4 41  1  0  0  0  0
  5 18  2  0  0  0  0
  6 22  1  0  0  0  0
  6 23  1  0  0  0  0
  7 23  2  0  0  0  0
  8  9  1  0  0  0  0
  8 10  1  0  0  0  0
  8 15  1  0  0  0  0
  8 17  1  1  0  0  0
  9 11  1  0  0  0  0
  9 14  1  0  0  0  0
  9 27  1  6  0  0  0
 10 12  1  0  0  0  0
 10 28  1  0  0  0  0
 11 13  1  0  0  0  0
 11 18  1  0  0  0  0
 11 19  1  6  0  0  0
 12 13  1  0  0  0  0
 12 29  1  0  0  0  0
 13 30  1  0  0  0  0
 14 16  1  0  0  0  0
 14 31  1  6  0  0  0
 15 20  1  0  0  0  0
 15 21  2  0  0  0  0
 16 20  1  0  0  0  0
 16 32  1  0  0  0  0
 17 33  1  0  0  0  0
 17 34  1  0  0  0  0
 17 35  1  0  0  0  0
 19 36  1  0  0  0  0
 19 37  1  0  0  0  0
 19 38  1  0  0  0  0
 20 22  2  0  0  0  0
 21 23  1  0  0  0  0
 21 40  1  0  0  0  0
 22 24  1  0  0  0  0
 24 25  1  0  0  0  0
 24 26  1  0  0  0  0
 24 42  1  0  0  0  0
 25 43  1  0  0  0  0
 25 44  1  0  0  0  0
 25 45  1  0  0  0  0
 26 46  1  0  0  0  0
 26 47  1  0  0  0  0
 26 48  1  0  0  0  0
M  END
> <PUBCHEM_COMPOUND_CID>
442063

> <PUBCHEM_COMPOUND_CANONICALIZED>
1

> <PUBCHEM_CACTVS_COMPLEXITY>
811

> <PUBCHEM_CACTVS_HBOND_ACCEPTOR>
7

> <PUBCHEM_CACTVS_HBOND_DONOR>
2

> <PUBCHEM_CACTVS_ROTATABLE_BOND>
1

> <PUBCHEM_CACTVS_SUBSKEYS>
AAADceB4OAAAAAAAAAAAAAAAEgAAASAAAAAwYIAABIAAAEjAAAAAGgAACAAADxSggAICCAAABgCIAiDSCAAACAAgIAAACAEAAEgJFBYAIAACUAAF4AALsQPK7PzPgAAAAAAAAABAAAYQADCAAAAAAAAAAA==

> <PUBCHEM_IUPAC_INCHI>
InChI=1S/C19H22O7/c1-6(2)11-9-7(5-8(20)24-11)18(3)14-12(10(9)21)26-17(23)19(14,4)15(22)13-16(18)25-13/h5-6,10,12-16,21-22H,1-4H3/t10-,12-,13+,14-,15+,16+,18-,19-/m1/s1

> <PUBCHEM_IUPAC_INCHIKEY>
DGNOPGIIPQKNHD-PAFIYYKWSA-N

> <PUBCHEM_XLOGP3_AA>
-0.2

> <PUBCHEM_EXACT_MASS>
362.136553

> <PUBCHEM_MOLECULAR_FORMULA>
C19H22O7

> <PUBCHEM_MOLECULAR_WEIGHT>
362.37378

> <PUBCHEM_OPENEYE_CAN_SMILES>
CC(C)C1=C2C(C3C4C(C(C5C(C4(C2=CC(=O)O1)C)O5)O)(C(=O)O3)C)O

> <PUBCHEM_OPENEYE_ISO_SMILES>
CC(C)C1=C2[C@H]([C@@H]3[C@H]4[C@]([C@H]([C@H]5[C@@H]([C@@]4(C2=CC(=O)O1)C)O5)O)(C(=O)O3)C)O

> <PUBCHEM_CACTVS_TPSA>
106

> <PUBCHEM_MONOISOTOPIC_WEIGHT>
362.136553

> <PUBCHEM_TOTAL_CHARGE>
0

> <PUBCHEM_HEAVY_ATOM_COUNT>
26

> <PUBCHEM_ATOM_DEF_STEREO_COUNT>
8

> <PUBCHEM_ATOM_UDEF_STEREO_COUNT>
0

> <PUBCHEM_BOND_DEF_STEREO_COUNT>
0

> <PUBCHEM_BOND_UDEF_STEREO_COUNT>
0

> <PUBCHEM_ISOTOPIC_ATOM_COUNT>
0

> <PUBCHEM_COMPONENT_COUNT>
1

> <PUBCHEM_CACTVS_TAUTO_COUNT>
3

> <PUBCHEM_COORDINATE_TYPE>
1
5
255

> <PUBCHEM_BONDANNOTATIONS>
10  1  6
12  1  6
11  19  6
14  31  6
15  20  8
15  21  8
20  22  8
21  23  8
13  3  5
16  4  5
6  22  8
6  23  8
8  17  5
9  27  6

$$$$

