8883
  -OEChem-06261203122D

 24 23  0     0  0  0  0  0  0999 V2000
    2.5369   -1.2500    0.0000 O   0  0  0  0  0  0  0  0  0  0  0  0
    6.8671    1.2500    0.0000 O   0  0  0  0  0  0  0  0  0  0  0  0
    3.4030   -0.7500    0.0000 C   0  0  0  0  0  0  0  0  0  0  0  0
    6.0010    0.7500    0.0000 C   0  0  0  0  0  0  0  0  0  0  0  0
    2.9030    0.1160    0.0000 C   0  0  0  0  0  0  0  0  0  0  0  0
    3.9030   -1.6160    0.0000 C   0  0  0  0  0  0  0  0  0  0  0  0
    6.5010   -0.1160    0.0000 C   0  0  0  0  0  0  0  0  0  0  0  0
    5.5010    1.6160    0.0000 C   0  0  0  0  0  0  0  0  0  0  0  0
    5.1350    0.2500    0.0000 C   0  0  0  0  0  0  0  0  0  0  0  0
    4.2690   -0.2500    0.0000 C   0  0  0  0  0  0  0  0  0  0  0  0
    3.4399    0.4260    0.0000 H   0  0  0  0  0  0  0  0  0  0  0  0
    2.5930    0.6530    0.0000 H   0  0  0  0  0  0  0  0  0  0  0  0
    2.3660   -0.1940    0.0000 H   0  0  0  0  0  0  0  0  0  0  0  0
    3.3660   -1.9260    0.0000 H   0  0  0  0  0  0  0  0  0  0  0  0
    4.2130   -2.1530    0.0000 H   0  0  0  0  0  0  0  0  0  0  0  0
    4.4399   -1.3060    0.0000 H   0  0  0  0  0  0  0  0  0  0  0  0
    5.9641   -0.4260    0.0000 H   0  0  0  0  0  0  0  0  0  0  0  0
    6.8110   -0.6530    0.0000 H   0  0  0  0  0  0  0  0  0  0  0  0
    7.0380    0.1940    0.0000 H   0  0  0  0  0  0  0  0  0  0  0  0
    6.0380    1.9260    0.0000 H   0  0  0  0  0  0  0  0  0  0  0  0
    5.1910    2.1530    0.0000 H   0  0  0  0  0  0  0  0  0  0  0  0
    4.9641    1.3060    0.0000 H   0  0  0  0  0  0  0  0  0  0  0  0
    2.0000   -0.9400    0.0000 H   0  0  0  0  0  0  0  0  0  0  0  0
    7.4040    0.9400    0.0000 H   0  0  0  0  0  0  0  0  0  0  0  0
  1  3  1  0  0  0  0
  1 23  1  0  0  0  0
  2  4  1  0  0  0  0
  2 24  1  0  0  0  0
  3  5  1  0  0  0  0
  3  6  1  0  0  0  0
  3 10  1  0  0  0  0
  4  7  1  0  0  0  0
  4  8  1  0  0  0  0
  4  9  1  0  0  0  0
  5 11  1  0  0  0  0
  5 12  1  0  0  0  0
  5 13  1  0  0  0  0
  6 14  1  0  0  0  0
  6 15  1  0  0  0  0
  6 16  1  0  0  0  0
  7 17  1  0  0  0  0
  7 18  1  0  0  0  0
  7 19  1  0  0  0  0
  8 20  1  0  0  0  0
  8 21  1  0  0  0  0
  8 22  1  0  0  0  0
  9 10  3  0  0  0  0
M  END
> <PUBCHEM_COMPOUND_CID>
8883

> <PUBCHEM_COMPOUND_CANONICALIZED>
1

> <PUBCHEM_CACTVS_COMPLEXITY>
160

> <PUBCHEM_CACTVS_HBOND_ACCEPTOR>
2

> <PUBCHEM_CACTVS_HBOND_DONOR>
2

> <PUBCHEM_CACTVS_ROTATABLE_BOND>
2

> <PUBCHEM_CACTVS_SUBSKEYS>
AAADccBwMAAAAAAAAAAAAAAAAAAAAAAAAAAAAAAAAAAAAAAAAAAAGgAACAAADESAgAACAAAAAgBAEAAAAAgAAAAAAAAAAAAAAAAAAAAAAAAAAAAAAAAAAAAAAAAAAAAAAAAAAAAAAAAAAAAAAAAAAAAAAA==

> <PUBCHEM_IUPAC_OPENEYE_NAME>
2,5-dimethylhex-3-yne-2,5-diol

> <PUBCHEM_IUPAC_CAS_NAME>
2,5-dimethyl-3-hexyne-2,5-diol

> <PUBCHEM_IUPAC_NAME>
2,5-dimethylhex-3-yne-2,5-diol

> <PUBCHEM_IUPAC_SYSTEMATIC_NAME>
2,5-dimethylhex-3-yne-2,5-diol

> <PUBCHEM_IUPAC_TRADITIONAL_NAME>
2,5-dimethylhex-3-yne-2,5-diol

> <PUBCHEM_IUPAC_INCHI>
InChI=1S/C8H14O2/c1-7(2,9)5-6-8(3,4)10/h9-10H,1-4H3

> <PUBCHEM_IUPAC_INCHIKEY>
IHJUECRFYCQBMW-UHFFFAOYSA-N

> <PUBCHEM_XLOGP3_AA>
0.1

> <PUBCHEM_EXACT_MASS>
142.09938

> <PUBCHEM_MOLECULAR_FORMULA>
C8H14O2

> <PUBCHEM_MOLECULAR_WEIGHT>
142.19556

> <PUBCHEM_OPENEYE_CAN_SMILES>
CC(C)(C#CC(C)(C)O)O

> <PUBCHEM_OPENEYE_ISO_SMILES>
CC(C)(C#CC(C)(C)O)O

> <PUBCHEM_CACTVS_TPSA>
40.5

> <PUBCHEM_MONOISOTOPIC_WEIGHT>
142.09938

> <PUBCHEM_TOTAL_CHARGE>
0

> <PUBCHEM_HEAVY_ATOM_COUNT>
10

> <PUBCHEM_ATOM_DEF_STEREO_COUNT>
0

> <PUBCHEM_ATOM_UDEF_STEREO_COUNT>
0

> <PUBCHEM_BOND_DEF_STEREO_COUNT>
0

> <PUBCHEM_BOND_UDEF_STEREO_COUNT>
0

> <PUBCHEM_ISOTOPIC_ATOM_COUNT>
0

> <PUBCHEM_COMPONENT_COUNT>
1

> <PUBCHEM_CACTVS_TAUTO_COUNT>
1

> <PUBCHEM_COORDINATE_TYPE>
1
5
255

$$$$

