16486
  -OEChem-07051212542D

 14 14  0     1  0  0  0  0  0999 V2000
    3.4483   -1.3365    0.0000 O   0  0  0  0  0  0  0  0  0  0  0  0
    4.6730   -0.1118    0.0000 O   0  0  0  0  0  0  0  0  0  0  0  0
    3.0000    1.3365    0.0000 N   0  0  0  0  0  0  0  0  0  0  0  0
    3.0000    0.3365    0.0000 C   0  0  1  0  0  0  0  0  0  0  0  0
    2.0000    0.3365    0.0000 C   0  0  0  0  0  0  0  0  0  0  0  0
    2.0000    1.3365    0.0000 C   0  0  0  0  0  0  0  0  0  0  0  0
    3.7071   -0.3706    0.0000 C   0  0  0  0  0  0  0  0  0  0  0  0
    3.5728    0.5738    0.0000 H   0  0  0  0  0  0  0  0  0  0  0  0
    1.3800    0.3365    0.0000 H   0  0  0  0  0  0  0  0  0  0  0  0
    2.0000   -0.2835    0.0000 H   0  0  0  0  0  0  0  0  0  0  0  0
    2.0000    1.9565    0.0000 H   0  0  0  0  0  0  0  0  0  0  0  0
    1.3800    1.3365    0.0000 H   0  0  0  0  0  0  0  0  0  0  0  0
    3.4384    1.7749    0.0000 H   0  0  0  0  0  0  0  0  0  0  0  0
    3.8867   -1.7749    0.0000 H   0  0  0  0  0  0  0  0  0  0  0  0
  1  7  1  0  0  0  0
  1 14  1  0  0  0  0
  2  7  2  0  0  0  0
  3  4  1  0  0  0  0
  3  6  1  0  0  0  0
  3 13  1  0  0  0  0
  4  5  1  0  0  0  0
  4  7  1  6  0  0  0
  4  8  1  0  0  0  0
  5  6  1  0  0  0  0
  5  9  1  0  0  0  0
  5 10  1  0  0  0  0
  6 11  1  0  0  0  0
  6 12  1  0  0  0  0
M  END
> <PUBCHEM_COMPOUND_CID>
16486

> <PUBCHEM_COMPOUND_CANONICALIZED>
1

> <PUBCHEM_CACTVS_COMPLEXITY>
91.7

> <PUBCHEM_CACTVS_HBOND_ACCEPTOR>
3

> <PUBCHEM_CACTVS_HBOND_DONOR>
2

> <PUBCHEM_CACTVS_ROTATABLE_BOND>
1

> <PUBCHEM_CACTVS_SUBSKEYS>
AAADcYBiMAAAAAAAAAAAAAAAAABYAAAAAAAAAAAAAAAAAAAAAAAAHgAQCAAACCjBgAQACALAAgAIAACQCAAAAAAAAAAAAIGIAAACABAAgCAAQAAEEACQAAAkAAAAAAAAAAAAAAAAAAAAAAAAAAAAAAAAAA==

> <PUBCHEM_IUPAC_OPENEYE_NAME>
(2S)-azetidine-2-carboxylic acid

> <PUBCHEM_IUPAC_CAS_NAME>
(2S)-2-azetidinecarboxylic acid

> <PUBCHEM_IUPAC_NAME>
(2S)-azetidine-2-carboxylic acid

> <PUBCHEM_IUPAC_SYSTEMATIC_NAME>
(2S)-azetidine-2-carboxylic acid

> <PUBCHEM_IUPAC_TRADITIONAL_NAME>
(2S)-azetidine-2-carboxylic acid

> <PUBCHEM_IUPAC_INCHI>
InChI=1S/C4H7NO2/c6-4(7)3-1-2-5-3/h3,5H,1-2H2,(H,6,7)/t3-/m0/s1

> <PUBCHEM_IUPAC_INCHIKEY>
IADUEWIQBXOCDZ-VKHMYHEASA-N

> <PUBCHEM_XLOGP3>
-2.9

> <PUBCHEM_EXACT_MASS>
101.047678

> <PUBCHEM_MOLECULAR_FORMULA>
C4H7NO2

> <PUBCHEM_MOLECULAR_WEIGHT>
101.10388

> <PUBCHEM_OPENEYE_CAN_SMILES>
C1CNC1C(=O)O

> <PUBCHEM_OPENEYE_ISO_SMILES>
C1CN[C@@H]1C(=O)O

> <PUBCHEM_CACTVS_TPSA>
49.3

> <PUBCHEM_MONOISOTOPIC_WEIGHT>
101.047678

> <PUBCHEM_TOTAL_CHARGE>
0

> <PUBCHEM_HEAVY_ATOM_COUNT>
7

> <PUBCHEM_ATOM_DEF_STEREO_COUNT>
1

> <PUBCHEM_ATOM_UDEF_STEREO_COUNT>
0

> <PUBCHEM_BOND_DEF_STEREO_COUNT>
0

> <PUBCHEM_BOND_UDEF_STEREO_COUNT>
0

> <PUBCHEM_ISOTOPIC_ATOM_COUNT>
0

> <PUBCHEM_COMPONENT_COUNT>
1

> <PUBCHEM_CACTVS_TAUTO_COUNT>
1

> <PUBCHEM_COORDINATE_TYPE>
1
5
255

> <PUBCHEM_BONDANNOTATIONS>
4  7  6

$$$$

