   Color/Form

     * Crystals from ethanol
     * White to off-white crystalline powder

   from [1]HSDB

   Odor
        Faint odor
   from [2]HSDB

   Melting Point
        171-173 deg C
   from [3]HSDB

   Octanol/Water Partition Coefficient
        log Kow = 1.75
   from [4]HSDB

   Solubilities
        Practically insoluble in water and slightly soluble in alcohol
   from [5]HSDB

   Computed Properties
   Molecular Weight                  248.3208 [g/mol]
   Molecular Formula                 C[14]H[20]N[2]O[2]
   XLogP3                            1.8
   H-Bond Donor                      3
   H-Bond Acceptor                   3
   Rotatable Bond Count              6
   Exact Mass                        248.152478
   MonoIsotopic Mass                 248.152478
   Topological Polar Surface Area    57.3
   Heavy Atom Count                  18
   Formal Charge                     0
   Complexity                        248
   Isotope Atom Count                0
   Defined Atom Stereocenter Count   0
   Undefined Atom Stereocenter Count 1
   Defined Bond Stereocenter Count   0
   Undefined Bond Stereocenter Count 0
   Covalently-Bonded Unit Count      1
   Feature 3D Acceptor Count         2
   Feature 3D Donor Count            3
   Feature 3D Cation Count           2
   Feature 3D Hydrophobe Count       1
   Feature 3D Ring Count             2
   Effective Rotor Count             6
   Conformer Sampling RMSD           0.8
   CID Conformer Count               [6]147

References

   1. http://toxnet.nlm.nih.gov/cgi-bin/sis/search/r?dbs+hsdb:@term+@rn+@rel+13523-86-9
   2. http://toxnet.nlm.nih.gov/cgi-bin/sis/search/r?dbs+hsdb:@term+@rn+@rel+13523-86-9
   3. http://toxnet.nlm.nih.gov/cgi-bin/sis/search/r?dbs+hsdb:@term+@rn+@rel+13523-86-9
   4. http://toxnet.nlm.nih.gov/cgi-bin/sis/search/r?dbs+hsdb:@term+@rn+@rel+13523-86-9
   5. http://toxnet.nlm.nih.gov/cgi-bin/sis/search/r?dbs+hsdb:@term+@rn+@rel+13523-86-9
   6. http://pubchem.ncbi.nlm.nih.gov/vw3d/vw3d.cgi?cid=4828
