   Color/Form
        White to light tan powder
   from [1]HSDB

   Octanol/Water Partition Coefficient
        log Kow = 6.27 /Estimated/
   from [2]HSDB

   Solubilities

     * Freely soluble in methanol and ethanol; soluble in isopropanol.
     * In water, 1.1X10-4 mg/L @ 25 deg C /Estimated/

   from [3]HSDB

   Vapor Pressure
        1.1X10-27 mm Hg @ 25 deg C /Estimated/
   from [4]HSDB

   Other Chemical/Physical Properties

     * Henry's Law constant = 2.7X10-33 atm-cu m/mol @ 25 deg C
       /Estimated/
     * Hydroxyl radical reaction rate constant = 9.7X10-11 cu cm/molec-sec
       @ 25 deg C /Estimated/

   from [5]HSDB

   Computed Properties
   Molecular Weight                  720.94422 [g/mol]
   Molecular Formula                 C[37]H[48]N[6]O[5]S[2]
   XLogP3-AA                         6
   H-Bond Donor                      4
   H-Bond Acceptor                   9
   Rotatable Bond Count              18
   Tautomer Count                    16
   Exact Mass                        720.312761
   MonoIsotopic Mass                 720.312761
   Topological Polar Surface Area    202
   Heavy Atom Count                  50
   Formal Charge                     0
   Complexity                        1040
   Isotope Atom Count                0
   Defined Atom Stereocenter Count   4
   Undefined Atom Stereocenter Count 0
   Defined Bond Stereocenter Count   0
   Undefined Bond Stereocenter Count 0
   Covalently-Bonded Unit Count      1

References

   1. http://toxnet.nlm.nih.gov/cgi-bin/sis/search/r?dbs+hsdb:@term+@rn+@rel+155213-67-5
   2. http://toxnet.nlm.nih.gov/cgi-bin/sis/search/r?dbs+hsdb:@term+@rn+@rel+155213-67-5
   3. http://toxnet.nlm.nih.gov/cgi-bin/sis/search/r?dbs+hsdb:@term+@rn+@rel+155213-67-5
   4. http://toxnet.nlm.nih.gov/cgi-bin/sis/search/r?dbs+hsdb:@term+@rn+@rel+155213-67-5
   5. http://toxnet.nlm.nih.gov/cgi-bin/sis/search/r?dbs+hsdb:@term+@rn+@rel+155213-67-5
