5281464
  -OEChem-07051212572D

 51 54  0     1  0  0  0  0  0999 V2000
    5.9507   -4.0622    0.0000 O   0  0  0  0  0  0  0  0  0  0  0  0
    5.0673   -3.0530    0.0000 O   0  0  0  0  0  0  0  0  0  0  0  0
    3.7230   -2.2152    0.0000 O   0  0  0  0  0  0  0  0  0  0  0  0
    8.0559   -2.2954    0.0000 O   0  0  0  0  0  0  0  0  0  0  0  0
    4.5447    0.9502    0.0000 O   0  0  0  0  0  0  0  0  0  0  0  0
    2.0000   -1.7830    0.0000 O   0  0  0  0  0  0  0  0  0  0  0  0
    6.1053    1.7017    0.0000 O   0  0  0  0  0  0  0  0  0  0  0  0
    5.6146   -3.1262    0.0000 C   0  0  1  0  0  0  0  0  0  0  0  0
    5.4786   -2.1414    0.0000 C   0  0  2  0  0  0  0  0  0  0  0  0
    6.5929   -3.3028    0.0000 C   0  0  1  0  0  0  0  0  0  0  0  0
    6.3796   -1.7076    0.0000 C   0  0  1  0  0  0  0  0  0  0  0  0
    7.0647   -2.4279    0.0000 C   0  0  2  0  0  0  0  0  0  0  0  0
    4.5777   -1.7076    0.0000 C   0  0  2  0  0  0  0  0  0  0  0  0
    4.8512   -2.4802    0.0000 C   0  0  0  0  0  0  0  0  0  0  0  0
    4.3551   -0.7326    0.0000 C   0  0  1  0  0  0  0  0  0  0  0  0
    6.6021   -0.7326    0.0000 C   0  0  0  0  0  0  0  0  0  0  0  0
    4.9786    0.0492    0.0000 C   0  0  1  0  0  0  0  0  0  0  0  0
    5.9786    0.0492    0.0000 C   0  0  0  0  0  0  0  0  0  0  0  0
    3.3648   -0.6461    0.0000 C   0  0  0  0  0  0  0  0  0  0  0  0
    2.9749   -1.5605    0.0000 C   0  0  0  0  0  0  0  0  0  0  0  0
    7.5770   -0.5101    0.0000 C   0  0  0  0  0  0  0  0  0  0  0  0
    2.8504    0.2115    0.0000 C   0  0  0  0  0  0  0  0  0  0  0  0
    5.1081    1.7764    0.0000 C   0  0  0  0  0  0  0  0  0  0  0  0
    4.6742    2.6774    0.0000 C   0  0  0  0  0  0  0  0  0  0  0  0
    3.6770    2.7521    0.0000 C   0  0  0  0  0  0  0  0  0  0  0  0
    5.2375    3.5036    0.0000 C   0  0  0  0  0  0  0  0  0  0  0  0
    6.2347    3.4289    0.0000 C   0  0  0  0  0  0  0  0  0  0  0  0
    7.2952   -3.7816    0.0000 H   0  0  0  0  0  0  0  0  0  0  0  0
    7.1993   -1.4825    0.0000 H   0  0  0  0  0  0  0  0  0  0  0  0
    7.2707   -1.8431    0.0000 H   0  0  0  0  0  0  0  0  0  0  0  0
    4.6147   -2.5568    0.0000 H   0  0  0  0  0  0  0  0  0  0  0  0
    5.2517   -2.0069    0.0000 H   0  0  0  0  0  0  0  0  0  0  0  0
    4.3779   -2.0798    0.0000 H   0  0  0  0  0  0  0  0  0  0  0  0
    4.4508   -2.9536    0.0000 H   0  0  0  0  0  0  0  0  0  0  0  0
    4.0200    0.0485    0.0000 H   0  0  0  0  0  0  0  0  0  0  0  0
    4.3625    0.1186    0.0000 H   0  0  0  0  0  0  0  0  0  0  0  0
    6.5372    0.3182    0.0000 H   0  0  0  0  0  0  0  0  0  0  0  0
    5.8407    0.6536    0.0000 H   0  0  0  0  0  0  0  0  0  0  0  0
    4.4503   -3.1146    0.0000 H   0  0  0  0  0  0  0  0  0  0  0  0
    8.4343   -2.7865    0.0000 H   0  0  0  0  0  0  0  0  0  0  0  0
    7.9988   -0.9646    0.0000 H   0  0  0  0  0  0  0  0  0  0  0  0
    7.7598    0.0823    0.0000 H   0  0  0  0  0  0  0  0  0  0  0  0
    3.1514    0.7535    0.0000 H   0  0  0  0  0  0  0  0  0  0  0  0
    2.2305    0.2011    0.0000 H   0  0  0  0  0  0  0  0  0  0  0  0
    3.7233    3.3704    0.0000 H   0  0  0  0  0  0  0  0  0  0  0  0
    3.0587    2.7984    0.0000 H   0  0  0  0  0  0  0  0  0  0  0  0
    3.6306    2.1338    0.0000 H   0  0  0  0  0  0  0  0  0  0  0  0
    4.9685    4.0622    0.0000 H   0  0  0  0  0  0  0  0  0  0  0  0
    6.1884    2.8106    0.0000 H   0  0  0  0  0  0  0  0  0  0  0  0
    6.8530    3.3825    0.0000 H   0  0  0  0  0  0  0  0  0  0  0  0
    6.2810    4.0471    0.0000 H   0  0  0  0  0  0  0  0  0  0  0  0
  1  8  1  0  0  0  0
  1 10  1  0  0  0  0
  9  2  1  1  0  0  0
  2 39  1  0  0  0  0
  3 13  1  0  0  0  0
  3 20  1  0  0  0  0
 12  4  1  6  0  0  0
  4 40  1  0  0  0  0
 17  5  1  6  0  0  0
  5 23  1  0  0  0  0
  6 20  2  0  0  0  0
  7 23  2  0  0  0  0
  8  9  1  0  0  0  0
  8 10  1  0  0  0  0
  8 14  1  6  0  0  0
  9 11  1  0  0  0  0
  9 13  1  0  0  0  0
 10 12  1  0  0  0  0
 10 28  1  6  0  0  0
 11 12  1  0  0  0  0
 11 16  1  0  0  0  0
 11 29  1  1  0  0  0
 12 30  1  0  0  0  0
 13 15  1  0  0  0  0
 13 31  1  6  0  0  0
 14 32  1  0  0  0  0
 14 33  1  0  0  0  0
 14 34  1  0  0  0  0
 15 17  1  0  0  0  0
 15 19  1  0  0  0  0
 15 35  1  1  0  0  0
 16 18  1  0  0  0  0
 16 21  2  0  0  0  0
 17 18  1  0  0  0  0
 17 36  1  0  0  0  0
 18 37  1  0  0  0  0
 18 38  1  0  0  0  0
 19 20  1  0  0  0  0
 19 22  2  0  0  0  0
 21 41  1  0  0  0  0
 21 42  1  0  0  0  0
 22 43  1  0  0  0  0
 22 44  1  0  0  0  0
 23 24  1  0  0  0  0
 24 25  1  0  0  0  0
 24 26  2  0  0  0  0
 25 45  1  0  0  0  0
 25 46  1  0  0  0  0
 25 47  1  0  0  0  0
 26 27  1  0  0  0  0
 26 48  1  0  0  0  0
 27 49  1  0  0  0  0
 27 50  1  0  0  0  0
 27 51  1  0  0  0  0
M  END
> <PUBCHEM_COMPOUND_CID>
5281464

> <PUBCHEM_COMPOUND_CANONICALIZED>
1

> <PUBCHEM_CACTVS_COMPLEXITY>
798

> <PUBCHEM_CACTVS_HBOND_ACCEPTOR>
7

> <PUBCHEM_CACTVS_HBOND_DONOR>
2

> <PUBCHEM_CACTVS_ROTATABLE_BOND>
3

> <PUBCHEM_CACTVS_SUBSKEYS>
AAADceB4OAAAAAAAAAAAAAAAEgAAAaIAAAAkAAAABgAAAADQAAAAGgAACAAADVSggAICCAAABgCIAiDSCAAAAAAgAAAACAEAAEgBFBIAIQACUAAFwAADIYHK7PzOgAAAAAAAAAAAAAAAAAAAAYQADCAAAA==

> <PUBCHEM_IUPAC_INCHI>
InChI=1S/C20H24O7/c1-6-8(2)17(22)25-11-7-9(3)13-14(21)16-19(5,27-16)20(13,24)15-12(11)10(4)18(23)26-15/h6,11-16,21,24H,3-4,7H2,1-2,5H3/b8-6-/t11-,12-,13-,14+,15+,16-,19-,20-/m1/s1

> <PUBCHEM_IUPAC_INCHIKEY>
NFHWFFQENCGSQZ-VAGPNBDPSA-N

> <PUBCHEM_XLOGP3_AA>
0.6

> <PUBCHEM_EXACT_MASS>
376.152203

> <PUBCHEM_MOLECULAR_FORMULA>
C20H24O7

> <PUBCHEM_MOLECULAR_WEIGHT>
376.40036

> <PUBCHEM_OPENEYE_CAN_SMILES>
CC=C(C)C(=O)OC1CC(=C)C2C(C3C(C2(C4C1C(=C)C(=O)O4)O)(O3)C)O

> <PUBCHEM_OPENEYE_ISO_SMILES>
C/C=C(/C)\C(=O)O[C@@H]1CC(=C)[C@@H]2[C@@H]([C@@H]3[C@]([C@@]2([C@@H]4[C@@H]1C(=C)C(=O)O4)O)(O3)C)O

> <PUBCHEM_CACTVS_TPSA>
106

> <PUBCHEM_MONOISOTOPIC_WEIGHT>
376.152203

> <PUBCHEM_TOTAL_CHARGE>
0

> <PUBCHEM_HEAVY_ATOM_COUNT>
27

> <PUBCHEM_ATOM_DEF_STEREO_COUNT>
8

> <PUBCHEM_ATOM_UDEF_STEREO_COUNT>
0

> <PUBCHEM_BOND_DEF_STEREO_COUNT>
1

> <PUBCHEM_BOND_UDEF_STEREO_COUNT>
0

> <PUBCHEM_ISOTOPIC_ATOM_COUNT>
0

> <PUBCHEM_COMPONENT_COUNT>
1

> <PUBCHEM_CACTVS_TAUTO_COUNT>
1

> <PUBCHEM_COORDINATE_TYPE>
1
5
255

> <PUBCHEM_BONDANNOTATIONS>
10  28  6
11  29  5
13  31  6
15  35  5
9  2  5
12  4  6
17  5  6
8  14  6

$$$$

