23724765
  -OEChem-07051213082D

 19 19  0     1  0  0  0  0  0999 V2000
    2.8100    0.5000    0.0000 F   0  0  0  0  0  0  0  0  0  0  0  0
    3.6760    1.0000    0.0000 O   0  0  0  0  0  0  0  0  0  0  0  0
    2.3100   -0.3660    0.0000 O   0  0  0  0  0  0  0  0  0  0  0  0
    5.6760    1.0000    0.0000 O   0  0  0  0  0  0  0  0  0  0  0  0
    4.1760    1.8660    0.0000 O   0  0  0  0  0  0  0  0  0  0  0  0
    4.1760    0.1340    0.0000 C   0  0  1  0  0  0  0  0  0  0  0  0
    3.3100   -0.3660    0.0000 C   0  0  1  0  0  0  0  0  0  0  0  0
    5.0420   -0.3660    0.0000 C   0  0  0  0  0  0  0  0  0  0  0  0
    3.3100   -1.3660    0.0000 C   0  0  0  0  0  0  0  0  0  0  0  0
    4.6760    1.0000    0.0000 C   0  0  0  0  0  0  0  0  0  0  0  0
    5.0420   -1.3660    0.0000 C   0  0  0  0  0  0  0  0  0  0  0  0
    4.1760   -1.8660    0.0000 C   0  0  0  0  0  0  0  0  0  0  0  0
    5.5790   -0.0560    0.0000 H   0  0  0  0  0  0  0  0  0  0  0  0
    2.7731   -1.6760    0.0000 H   0  0  0  0  0  0  0  0  0  0  0  0
    5.5790   -1.6760    0.0000 H   0  0  0  0  0  0  0  0  0  0  0  0
    4.1760   -2.4860    0.0000 H   0  0  0  0  0  0  0  0  0  0  0  0
    3.1391    1.3101    0.0000 H   0  0  0  0  0  0  0  0  0  0  0  0
    2.0000   -0.9030    0.0000 H   0  0  0  0  0  0  0  0  0  0  0  0
    5.9860    1.5369    0.0000 H   0  0  0  0  0  0  0  0  0  0  0  0
  1  7  1  0  0  0  0
  6  2  1  6  0  0  0
  2 17  1  0  0  0  0
  7  3  1  6  0  0  0
  3 18  1  0  0  0  0
  4 10  1  0  0  0  0
  4 19  1  0  0  0  0
  5 10  2  0  0  0  0
  6  7  1  0  0  0  0
  6  8  1  0  0  0  0
  6 10  1  0  0  0  0
  7  9  1  0  0  0  0
  8 11  2  0  0  0  0
  8 13  1  0  0  0  0
  9 12  2  0  0  0  0
  9 14  1  0  0  0  0
 11 12  1  0  0  0  0
 11 15  1  0  0  0  0
 12 16  1  0  0  0  0
M  END
> <PUBCHEM_COMPOUND_CID>
23724765

> <PUBCHEM_COMPOUND_CANONICALIZED>
1

> <PUBCHEM_CACTVS_COMPLEXITY>
273

> <PUBCHEM_CACTVS_HBOND_ACCEPTOR>
5

> <PUBCHEM_CACTVS_HBOND_DONOR>
3

> <PUBCHEM_CACTVS_ROTATABLE_BOND>
1

> <PUBCHEM_CACTVS_SUBSKEYS>
AAADcYBgOQAAAAAAAAAAAAAAAAAAAAAAAAAgAAAAAAAAAAAAAAAAGwAACAAADESAgAAACAAAAgCIACDSCAIAAAAgAAAICAFAAAgJBBQAAQAAUAAF4AAJkAIAAAAIAAAAAAAAAAAAAAAAAAAAAAAAAAAAAA==

> <PUBCHEM_IUPAC_OPENEYE_NAME>
(1S,6R)-6-fluoro-1,6-dihydroxy-cyclohexa-2,4-diene-1-carboxylic acid

> <PUBCHEM_IUPAC_CAS_NAME>
(1S,6R)-6-fluoro-1,6-dihydroxy-1-cyclohexa-2,4-dienecarboxylic acid

> <PUBCHEM_IUPAC_NAME>
(1S,6R)-6-fluoro-1,6-dihydroxycyclohexa-2,4-diene-1-carboxylic acid

> <PUBCHEM_IUPAC_SYSTEMATIC_NAME>
(1S,6R)-6-fluoranyl-1,6-bis(oxidanyl)cyclohexa-2,4-diene-1-carboxylic acid

> <PUBCHEM_IUPAC_TRADITIONAL_NAME>
(1S,6R)-6-fluoro-1,6-dihydroxy-cyclohexa-2,4-diene-1-carboxylic acid

> <PUBCHEM_IUPAC_INCHI>
InChI=1S/C7H7FO4/c8-7(12)4-2-1-3-6(7,11)5(9)10/h1-4,11-12H,(H,9,10)/t6-,7-/m0/s1

> <PUBCHEM_IUPAC_INCHIKEY>
NFSYZVMLOFNIDD-BQBZGAKWSA-N

> <PUBCHEM_XLOGP3_AA>
0.3

> <PUBCHEM_EXACT_MASS>
174.032837

> <PUBCHEM_MOLECULAR_FORMULA>
C7H7FO4

> <PUBCHEM_MOLECULAR_WEIGHT>
174.126483

> <PUBCHEM_OPENEYE_CAN_SMILES>
C1=CC(C(C=C1)(O)F)(C(=O)O)O

> <PUBCHEM_OPENEYE_ISO_SMILES>
C1=C[C@@]([C@](C=C1)(O)F)(C(=O)O)O

> <PUBCHEM_CACTVS_TPSA>
77.8

> <PUBCHEM_MONOISOTOPIC_WEIGHT>
174.032837

> <PUBCHEM_TOTAL_CHARGE>
0

> <PUBCHEM_HEAVY_ATOM_COUNT>
12

> <PUBCHEM_ATOM_DEF_STEREO_COUNT>
2

> <PUBCHEM_ATOM_UDEF_STEREO_COUNT>
0

> <PUBCHEM_BOND_DEF_STEREO_COUNT>
0

> <PUBCHEM_BOND_UDEF_STEREO_COUNT>
0

> <PUBCHEM_ISOTOPIC_ATOM_COUNT>
0

> <PUBCHEM_COMPONENT_COUNT>
1

> <PUBCHEM_CACTVS_TAUTO_COUNT>
1

> <PUBCHEM_COORDINATE_TYPE>
1
5
255

> <PUBCHEM_BONDANNOTATIONS>
6  2  6
7  3  6

$$$$

