51090862
  -OEChem-06241223002D

 42 45  0     0  0  0  0  0  0999 V2000
    6.7619    2.5311    0.0000 O   0  0  0  0  0  0  0  0  0  0  0  0
    7.7619   -0.9330    0.0000 N   0  0  0  0  0  0  0  0  0  0  0  0
    9.2619   -0.0670    0.0000 N   0  0  0  0  0  0  0  0  0  0  0  0
    6.7619    0.7990    0.0000 N   0  0  0  0  0  0  0  0  0  0  0  0
    3.7320    2.1651    0.0000 N   0  0  0  0  0  0  0  0  0  0  0  0
    4.6783    0.8603    0.0000 N   0  0  0  0  0  0  0  0  0  0  0  0
    2.8660    0.6651    0.0000 N   0  0  0  0  0  0  0  0  0  0  0  0
    6.7619   -2.6651    0.0000 C   0  0  0  0  0  0  0  0  0  0  0  0
    6.2619   -1.7990    0.0000 C   0  0  0  0  0  0  0  0  0  0  0  0
    7.7619   -2.6651    0.0000 C   0  0  0  0  0  0  0  0  0  0  0  0
    6.7619   -0.9330    0.0000 C   0  0  0  0  0  0  0  0  0  0  0  0
    8.2619   -1.7990    0.0000 C   0  0  0  0  0  0  0  0  0  0  0  0
    8.2619   -0.0670    0.0000 C   0  0  0  0  0  0  0  0  0  0  0  0
    7.7619    0.7990    0.0000 C   0  0  0  0  0  0  0  0  0  0  0  0
    8.2619    1.6651    0.0000 C   0  0  0  0  0  0  0  0  0  0  0  0
    9.7619    0.7990    0.0000 C   0  0  0  0  0  0  0  0  0  0  0  0
    9.2619    1.6651    0.0000 C   0  0  0  0  0  0  0  0  0  0  0  0
    6.2619    1.6651    0.0000 C   0  0  0  0  0  0  0  0  0  0  0  0
    5.2619    1.6651    0.0000 C   0  0  0  0  0  0  0  0  0  0  0  0
    4.6783    2.4698    0.0000 C   0  0  0  0  0  0  0  0  0  0  0  0
    3.7320    1.1651    0.0000 C   0  0  0  0  0  0  0  0  0  0  0  0
    2.8660    2.6651    0.0000 C   0  0  0  0  0  0  0  0  0  0  0  0
    2.0000    2.1651    0.0000 C   0  0  0  0  0  0  0  0  0  0  0  0
    2.0000    1.1651    0.0000 C   0  0  0  0  0  0  0  0  0  0  0  0
    6.1793   -2.8771    0.0000 H   0  0  0  0  0  0  0  0  0  0  0  0
    6.8695   -3.2756    0.0000 H   0  0  0  0  0  0  0  0  0  0  0  0
    5.7869   -1.4005    0.0000 H   0  0  0  0  0  0  0  0  0  0  0  0
    5.7869   -2.1976    0.0000 H   0  0  0  0  0  0  0  0  0  0  0  0
    7.6542   -3.2756    0.0000 H   0  0  0  0  0  0  0  0  0  0  0  0
    8.3445   -2.8771    0.0000 H   0  0  0  0  0  0  0  0  0  0  0  0
    8.7368   -2.1976    0.0000 H   0  0  0  0  0  0  0  0  0  0  0  0
    8.7368   -1.4005    0.0000 H   0  0  0  0  0  0  0  0  0  0  0  0
    6.8695   -0.3224    0.0000 H   0  0  0  0  0  0  0  0  0  0  0  0
    6.1793   -0.7210    0.0000 H   0  0  0  0  0  0  0  0  0  0  0  0
    7.9519    2.2020    0.0000 H   0  0  0  0  0  0  0  0  0  0  0  0
    6.4519    0.2621    0.0000 H   0  0  0  0  0  0  0  0  0  0  0  0
   10.3819    0.7990    0.0000 H   0  0  0  0  0  0  0  0  0  0  0  0
    9.5719    2.2020    0.0000 H   0  0  0  0  0  0  0  0  0  0  0  0
    4.8709    3.0591    0.0000 H   0  0  0  0  0  0  0  0  0  0  0  0
    2.8660    3.2851    0.0000 H   0  0  0  0  0  0  0  0  0  0  0  0
    1.4631    2.4751    0.0000 H   0  0  0  0  0  0  0  0  0  0  0  0
    1.4631    0.8551    0.0000 H   0  0  0  0  0  0  0  0  0  0  0  0
  1 18  2  0  0  0  0
  2 11  1  0  0  0  0
  2 12  1  0  0  0  0
  2 13  1  0  0  0  0
  3 13  1  0  0  0  0
  3 16  2  0  0  0  0
  4 14  1  0  0  0  0
  4 18  1  0  0  0  0
  4 36  1  0  0  0  0
  5 20  1  0  0  0  0
  5 21  1  0  0  0  0
  5 22  1  0  0  0  0
  6 19  1  0  0  0  0
  6 21  2  0  0  0  0
  7 21  1  0  0  0  0
  7 24  2  0  0  0  0
  8  9  1  0  0  0  0
  8 10  1  0  0  0  0
  8 25  1  0  0  0  0
  8 26  1  0  0  0  0
  9 11  1  0  0  0  0
  9 27  1  0  0  0  0
  9 28  1  0  0  0  0
 10 12  1  0  0  0  0
 10 29  1  0  0  0  0
 10 30  1  0  0  0  0
 11 33  1  0  0  0  0
 11 34  1  0  0  0  0
 12 31  1  0  0  0  0
 12 32  1  0  0  0  0
 13 14  2  0  0  0  0
 14 15  1  0  0  0  0
 15 17  2  0  0  0  0
 15 35  1  0  0  0  0
 16 17  1  0  0  0  0
 16 37  1  0  0  0  0
 17 38  1  0  0  0  0
 18 19  1  0  0  0  0
 19 20  2  0  0  0  0
 20 39  1  0  0  0  0
 22 23  2  0  0  0  0
 22 40  1  0  0  0  0
 23 24  1  0  0  0  0
 23 41  1  0  0  0  0
 24 42  1  0  0  0  0
M  END
> <PUBCHEM_COMPOUND_CID>
51090862

> <PUBCHEM_COMPOUND_CANONICALIZED>
1

> <PUBCHEM_CACTVS_COMPLEXITY>
441

> <PUBCHEM_CACTVS_HBOND_ACCEPTOR>
5

> <PUBCHEM_CACTVS_HBOND_DONOR>
1

> <PUBCHEM_CACTVS_ROTATABLE_BOND>
3

> <PUBCHEM_CACTVS_SUBSKEYS>
AAADceB7oAAAAAAAAAAAAAAAAAAAAWAAAAAsWLAAAAAAAFgB+AAAHgAQAAAACAjBlgQ98JfMGACoATd3dACCgC03EqAJ2CG4dNiIaOrA2fGUJIholALIyOYQAAAAAAAAAAAAAAAAAAAAAAAAAAAAAAAAAA==

> <PUBCHEM_IUPAC_OPENEYE_NAME>
N-[2-(1-piperidyl)-3-pyridyl]imidazo[1,2-a]pyrimidine-2-carboxamide

> <PUBCHEM_IUPAC_CAS_NAME>
N-[2-(1-piperidinyl)-3-pyridinyl]-2-imidazo[1,2-a]pyrimidinecarboxamide

> <PUBCHEM_IUPAC_NAME>
N-(2-piperidin-1-ylpyridin-3-yl)imidazo[1,2-a]pyrimidine-2-carboxamide

> <PUBCHEM_IUPAC_SYSTEMATIC_NAME>
N-(2-piperidin-1-ylpyridin-3-yl)imidazo[1,2-a]pyrimidine-2-carboxamide

> <PUBCHEM_IUPAC_TRADITIONAL_NAME>
N-(2-piperidino-3-pyridyl)imidazo[1,2-a]pyrimidine-2-carboxamide

> <PUBCHEM_IUPAC_INCHI>
InChI=1S/C17H18N6O/c24-16(14-12-23-11-5-8-19-17(23)21-14)20-13-6-4-7-18-15(13)22-9-2-1-3-10-22/h4-8,11-12H,1-3,9-10H2,(H,20,24)

> <PUBCHEM_IUPAC_INCHIKEY>
AEPDWBMFXGLVPY-UHFFFAOYSA-N

> <PUBCHEM_XLOGP3_AA>
2.5

> <PUBCHEM_EXACT_MASS>
322.154209

> <PUBCHEM_MOLECULAR_FORMULA>
C17H18N6O

> <PUBCHEM_MOLECULAR_WEIGHT>
322.36442

> <PUBCHEM_OPENEYE_CAN_SMILES>
C1CCN(CC1)C2=C(C=CC=N2)NC(=O)C3=CN4C=CC=NC4=N3

> <PUBCHEM_OPENEYE_ISO_SMILES>
C1CCN(CC1)C2=C(C=CC=N2)NC(=O)C3=CN4C=CC=NC4=N3

> <PUBCHEM_CACTVS_TPSA>
75.4

> <PUBCHEM_MONOISOTOPIC_WEIGHT>
322.154209

> <PUBCHEM_TOTAL_CHARGE>
0

> <PUBCHEM_HEAVY_ATOM_COUNT>
24

> <PUBCHEM_ATOM_DEF_STEREO_COUNT>
0

> <PUBCHEM_ATOM_UDEF_STEREO_COUNT>
0

> <PUBCHEM_BOND_DEF_STEREO_COUNT>
0

> <PUBCHEM_BOND_UDEF_STEREO_COUNT>
0

> <PUBCHEM_ISOTOPIC_ATOM_COUNT>
0

> <PUBCHEM_COMPONENT_COUNT>
1

> <PUBCHEM_CACTVS_TAUTO_COUNT>
2

> <PUBCHEM_COORDINATE_TYPE>
1
5
255

> <PUBCHEM_BONDANNOTATIONS>
13  14  8
14  15  8
15  17  8
16  17  8
19  20  8
22  23  8
23  24  8
3  13  8
3  16  8
5  20  8
5  21  8
5  22  8
6  19  8
6  21  8
7  21  8
7  24  8

$$$$

