   Color/Form
        Cream colored needles from pyridine
   from [1]HSDB

   Melting Point
        >360 deg C
   from [2]HSDB

   Dissociation Constants
        pKa1 = 6.69 (phenol); pKa2 = 7.45 (phenol); pKa3 = 9.61(phenol);
   pKa4 = 11.50 (phenol) (est)
   from [3]HSDB

   Octanol/Water Partition Coefficient
        log Kow = -2.05 (est)
   from [4]HSDB

   Solubilities

     * Slightly soluble in alcohol; soluble in alkalies, in pyridine.
       Practically insoluble in ether
     * In water, 1.96X10+5 mg/L at 25 deg C (est)

   from [5]HSDB

   Spectral Properties
        UV max (ethanol): 366, 255 nm (log epsilon 3.93, 4.60)
   from [6]HSDB

   Vapor Pressure
        2.81X10-15 mm Hg at 25 deg C (est)
   from [7]HSDB

   Other Chemical/Physical Properties

     * Needles from acetic anhydride, mp 340 deg C /Tetraacetate/
     * mp: >300 deg C /Hydrate, technical grade/
     * Hydroxyl radical reaction rate constant = 1.48X10-11 cu
       cm/molec-sec at 25 deg C (est)

   from [8]HSDB

   Computed Properties
   Molecular Weight                  302.19264 [g/mol]
   Molecular Formula                 C[14]H[6]O[8]
   XLogP3-AA                         1.1
   H-Bond Donor                      4
   H-Bond Acceptor                   8
   Rotatable Bond Count              0
   Tautomer Count                    127
   Exact Mass                        302.006267
   MonoIsotopic Mass                 302.006267
   Topological Polar Surface Area    134
   Heavy Atom Count                  22
   Formal Charge                     0
   Complexity                        475
   Isotope Atom Count                0
   Defined Atom Stereocenter Count   0
   Undefined Atom Stereocenter Count 0
   Defined Bond Stereocenter Count   0
   Undefined Bond Stereocenter Count 0
   Covalently-Bonded Unit Count      1
   Feature 3D Acceptor Count         2
   Feature 3D Donor Count            4
   Feature 3D Ring Count             4
   Effective Rotor Count             0
   Conformer Sampling RMSD           0.6
   CID Conformer Count               [9]1

References

   1. http://toxnet.nlm.nih.gov/cgi-bin/sis/search/r?dbs+hsdb:@term+@rn+@rel+476-66-4
   2. http://toxnet.nlm.nih.gov/cgi-bin/sis/search/r?dbs+hsdb:@term+@rn+@rel+476-66-4
   3. http://toxnet.nlm.nih.gov/cgi-bin/sis/search/r?dbs+hsdb:@term+@rn+@rel+476-66-4
   4. http://toxnet.nlm.nih.gov/cgi-bin/sis/search/r?dbs+hsdb:@term+@rn+@rel+476-66-4
   5. http://toxnet.nlm.nih.gov/cgi-bin/sis/search/r?dbs+hsdb:@term+@rn+@rel+476-66-4
   6. http://toxnet.nlm.nih.gov/cgi-bin/sis/search/r?dbs+hsdb:@term+@rn+@rel+476-66-4
   7. http://toxnet.nlm.nih.gov/cgi-bin/sis/search/r?dbs+hsdb:@term+@rn+@rel+476-66-4
   8. http://toxnet.nlm.nih.gov/cgi-bin/sis/search/r?dbs+hsdb:@term+@rn+@rel+476-66-4
   9. http://pubchem.ncbi.nlm.nih.gov/vw3d/vw3d.cgi?cid=5281855
