72880
  -OEChem-07051212482D

 13 13  0     0  0  0  0  0  0999 V2000
    2.8090    0.0693    0.0000 S   0  0  0  0  0  0  0  0  0  0  0  0
    4.9849   -1.6082    0.0000 N   0  0  0  0  0  0  0  0  0  0  0  0
    3.6180    0.6571    0.0000 C   0  0  0  0  0  0  0  0  0  0  0  0
    4.5691    0.3481    0.0000 C   0  0  0  0  0  0  0  0  0  0  0  0
    3.3090    1.6082    0.0000 C   0  0  0  0  0  0  0  0  0  0  0  0
    2.3090    1.6082    0.0000 C   0  0  0  0  0  0  0  0  0  0  0  0
    2.0000    0.6571    0.0000 C   0  0  0  0  0  0  0  0  0  0  0  0
    4.7770   -0.6300    0.0000 C   0  0  0  0  0  0  0  0  0  0  0  0
    5.1887    0.3697    0.0000 H   0  0  0  0  0  0  0  0  0  0  0  0
    4.6554    0.9621    0.0000 H   0  0  0  0  0  0  0  0  0  0  0  0
    3.6734    2.1098    0.0000 H   0  0  0  0  0  0  0  0  0  0  0  0
    1.9446    2.1098    0.0000 H   0  0  0  0  0  0  0  0  0  0  0  0
    1.4103    0.4655    0.0000 H   0  0  0  0  0  0  0  0  0  0  0  0
  1  3  1  0  0  0  0
  1  7  1  0  0  0  0
  2  8  3  0  0  0  0
  3  4  1  0  0  0  0
  3  5  2  0  0  0  0
  4  8  1  0  0  0  0
  4  9  1  0  0  0  0
  4 10  1  0  0  0  0
  5  6  1  0  0  0  0
  5 11  1  0  0  0  0
  6  7  2  0  0  0  0
  6 12  1  0  0  0  0
  7 13  1  0  0  0  0
M  END
> <PUBCHEM_COMPOUND_CID>
72880

> <PUBCHEM_COMPOUND_CANONICALIZED>
1

> <PUBCHEM_CACTVS_COMPLEXITY>
113

> <PUBCHEM_CACTVS_HBOND_ACCEPTOR>
2

> <PUBCHEM_CACTVS_HBOND_DONOR>
0

> <PUBCHEM_CACTVS_ROTATABLE_BOND>
1

> <PUBCHEM_CACTVS_SUBSKEYS>
AAADcYBiAABAAAAAAAAAAAAAAAAAASAAAAAAAAAAAAAAAAABgAAAHAQAAAAACACFUACwAYAAAAiUBCBCAAADAIAgCBBIiBgAAIgIoCKgERCAAAAggAAoiA8AAAAAAAAAAAAAAAAAAAAAAAAAAAAAAAAAAA==

> <PUBCHEM_IUPAC_OPENEYE_NAME>
2-(2-thienyl)acetonitrile

> <PUBCHEM_IUPAC_CAS_NAME>
2-thiophen-2-ylacetonitrile

> <PUBCHEM_IUPAC_NAME>
2-thiophen-2-ylacetonitrile

> <PUBCHEM_IUPAC_SYSTEMATIC_NAME>
2-thiophen-2-ylethanenitrile

> <PUBCHEM_IUPAC_TRADITIONAL_NAME>
2-(2-thienyl)acetonitrile

> <PUBCHEM_IUPAC_INCHI>
InChI=1S/C6H5NS/c7-4-3-6-2-1-5-8-6/h1-2,5H,3H2

> <PUBCHEM_IUPAC_INCHIKEY>
CLSHQIDDCJTHAJ-UHFFFAOYSA-N

> <PUBCHEM_XLOGP3>
1.3

> <PUBCHEM_EXACT_MASS>
123.01427

> <PUBCHEM_MOLECULAR_FORMULA>
C6H5NS

> <PUBCHEM_MOLECULAR_WEIGHT>
123.1756

> <PUBCHEM_OPENEYE_CAN_SMILES>
C1=CSC(=C1)CC#N

> <PUBCHEM_OPENEYE_ISO_SMILES>
C1=CSC(=C1)CC#N

> <PUBCHEM_CACTVS_TPSA>
52

> <PUBCHEM_MONOISOTOPIC_WEIGHT>
123.01427

> <PUBCHEM_TOTAL_CHARGE>
0

> <PUBCHEM_HEAVY_ATOM_COUNT>
8

> <PUBCHEM_ATOM_DEF_STEREO_COUNT>
0

> <PUBCHEM_ATOM_UDEF_STEREO_COUNT>
0

> <PUBCHEM_BOND_DEF_STEREO_COUNT>
0

> <PUBCHEM_BOND_UDEF_STEREO_COUNT>
0

> <PUBCHEM_ISOTOPIC_ATOM_COUNT>
0

> <PUBCHEM_COMPONENT_COUNT>
1

> <PUBCHEM_CACTVS_TAUTO_COUNT>
1

> <PUBCHEM_COORDINATE_TYPE>
1
5
255

> <PUBCHEM_BONDANNOTATIONS>
1  3  8
1  7  8
3  5  8
5  6  8
6  7  8

$$$$

