17395370
  -OEChem-06241222492D

 40 41  0     1  0  0  0  0  0999 V2000
    4.5981   -0.8080    0.0000 O   0  0  0  0  0  0  0  0  0  0  0  0
    6.3301    0.1920    0.0000 O   0  0  0  0  0  0  0  0  0  0  0  0
    7.9128    2.5284    0.0000 O   0  0  0  0  0  0  0  0  0  0  0  0
    2.8660   -0.8080    0.0000 O   0  0  0  0  0  0  0  0  0  0  0  0
    5.4641    1.6920    0.0000 N   0  0  0  0  0  0  0  0  0  0  0  0
    7.2437    1.7853    0.0000 N   0  0  0  0  0  0  0  0  0  0  0  0
    4.5981    0.1920    0.0000 C   0  0  3  0  0  0  0  0  0  0  0  0
    3.7320    0.6920    0.0000 C   0  0  0  0  0  0  0  0  0  0  0  0
    5.4641    0.6920    0.0000 C   0  0  0  0  0  0  0  0  0  0  0  0
    3.7320    1.6920    0.0000 C   0  0  0  0  0  0  0  0  0  0  0  0
    3.7320   -2.3080    0.0000 C   0  0  0  0  0  0  0  0  0  0  0  0
    3.7320   -1.3080    0.0000 C   0  0  0  0  0  0  0  0  0  0  0  0
    2.8660   -2.8080    0.0000 C   0  0  0  0  0  0  0  0  0  0  0  0
    6.3301    2.1920    0.0000 C   0  0  0  0  0  0  0  0  0  0  0  0
    4.5981   -2.8080    0.0000 C   0  0  0  0  0  0  0  0  0  0  0  0
    2.8660   -3.8080    0.0000 C   0  0  0  0  0  0  0  0  0  0  0  0
    2.0000   -2.3080    0.0000 C   0  0  0  0  0  0  0  0  0  0  0  0
    6.4347    3.1865    0.0000 C   0  0  0  0  0  0  0  0  0  0  0  0
    4.5981   -3.8080    0.0000 C   0  0  0  0  0  0  0  0  0  0  0  0
    3.7320   -4.3080    0.0000 C   0  0  0  0  0  0  0  0  0  0  0  0
    7.4128    3.3944    0.0000 C   0  0  0  0  0  0  0  0  0  0  0  0
    7.8195    4.3080    0.0000 C   0  0  0  0  0  0  0  0  0  0  0  0
    5.1350   -0.1180    0.0000 H   0  0  0  0  0  0  0  0  0  0  0  0
    3.1215    0.7997    0.0000 H   0  0  0  0  0  0  0  0  0  0  0  0
    3.5200    0.1094    0.0000 H   0  0  0  0  0  0  0  0  0  0  0  0
    4.3520    1.6920    0.0000 H   0  0  0  0  0  0  0  0  0  0  0  0
    3.7320    2.3120    0.0000 H   0  0  0  0  0  0  0  0  0  0  0  0
    3.1120    1.6920    0.0000 H   0  0  0  0  0  0  0  0  0  0  0  0
    4.9272    2.0020    0.0000 H   0  0  0  0  0  0  0  0  0  0  0  0
    5.1350   -2.4980    0.0000 H   0  0  0  0  0  0  0  0  0  0  0  0
    2.3291   -4.1180    0.0000 H   0  0  0  0  0  0  0  0  0  0  0  0
    2.3100   -1.7710    0.0000 H   0  0  0  0  0  0  0  0  0  0  0  0
    1.4631   -1.9980    0.0000 H   0  0  0  0  0  0  0  0  0  0  0  0
    1.6900   -2.8449    0.0000 H   0  0  0  0  0  0  0  0  0  0  0  0
    5.9739    3.6014    0.0000 H   0  0  0  0  0  0  0  0  0  0  0  0
    5.1350   -4.1180    0.0000 H   0  0  0  0  0  0  0  0  0  0  0  0
    3.7320   -4.9280    0.0000 H   0  0  0  0  0  0  0  0  0  0  0  0
    8.3859    4.0558    0.0000 H   0  0  0  0  0  0  0  0  0  0  0  0
    8.0717    4.8744    0.0000 H   0  0  0  0  0  0  0  0  0  0  0  0
    7.2531    4.5602    0.0000 H   0  0  0  0  0  0  0  0  0  0  0  0
  1  7  1  0  0  0  0
  1 12  1  0  0  0  0
  2  9  2  0  0  0  0
  3  6  1  0  0  0  0
  3 21  1  0  0  0  0
  4 12  2  0  0  0  0
  5  9  1  0  0  0  0
  5 14  1  0  0  0  0
  5 29  1  0  0  0  0
  6 14  2  0  0  0  0
  7  8  1  0  0  0  0
  7  9  1  0  0  0  0
  7 23  1  0  0  0  0
  8 10  1  0  0  0  0
  8 24  1  0  0  0  0
  8 25  1  0  0  0  0
 10 26  1  0  0  0  0
 10 27  1  0  0  0  0
 10 28  1  0  0  0  0
 11 12  1  0  0  0  0
 11 13  1  0  0  0  0
 11 15  2  0  0  0  0
 13 16  2  0  0  0  0
 13 17  1  0  0  0  0
 14 18  1  0  0  0  0
 15 19  1  0  0  0  0
 15 30  1  0  0  0  0
 16 20  1  0  0  0  0
 16 31  1  0  0  0  0
 17 32  1  0  0  0  0
 17 33  1  0  0  0  0
 17 34  1  0  0  0  0
 18 21  2  0  0  0  0
 18 35  1  0  0  0  0
 19 20  2  0  0  0  0
 19 36  1  0  0  0  0
 20 37  1  0  0  0  0
 21 22  1  0  0  0  0
 22 38  1  0  0  0  0
 22 39  1  0  0  0  0
 22 40  1  0  0  0  0
M  END
> <PUBCHEM_COMPOUND_CID>
17395370

> <PUBCHEM_COMPOUND_CANONICALIZED>
1

> <PUBCHEM_CACTVS_COMPLEXITY>
402

> <PUBCHEM_CACTVS_HBOND_ACCEPTOR>
5

> <PUBCHEM_CACTVS_HBOND_DONOR>
1

> <PUBCHEM_CACTVS_ROTATABLE_BOND>
6

> <PUBCHEM_CACTVS_SUBSKEYS>
AAADceB7OAAAAAAAAAAAAAAAAAAAAWAAAAAwAAAAAAAAAAABwAAAHgAUAAAADBShmgIzvJLQBACpAqPyegKCAAAlIgApmCF2bNqKJjrAvZyHMYhm1QvY6ceIyKCOgAAAAAAQAAAAAAAAACAAAAAAAAAAAA==

> <PUBCHEM_IUPAC_OPENEYE_NAME>
1-[(5-methylisoxazol-3-yl)carbamoyl]propyl 2-methylbenzoate

> <PUBCHEM_IUPAC_CAS_NAME>
2-methylbenzoic acid [1-[(5-methyl-3-isoxazolyl)amino]-1-oxobutan-2-yl] ester

> <PUBCHEM_IUPAC_NAME>
[1-[(5-methyl-1,2-oxazol-3-yl)amino]-1-oxobutan-2-yl] 2-methylbenzoate

> <PUBCHEM_IUPAC_SYSTEMATIC_NAME>
[1-[(5-methyl-1,2-oxazol-3-yl)amino]-1-oxidanylidene-butan-2-yl] 2-methylbenzoate

> <PUBCHEM_IUPAC_TRADITIONAL_NAME>
2-methylbenzoic acid 1-[(5-methylisoxazol-3-yl)carbamoyl]propyl ester

> <PUBCHEM_IUPAC_INCHI>
InChI=1S/C16H18N2O4/c1-4-13(15(19)17-14-9-11(3)22-18-14)21-16(20)12-8-6-5-7-10(12)2/h5-9,13H,4H2,1-3H3,(H,17,18,19)

> <PUBCHEM_IUPAC_INCHIKEY>
IFGKYULXFUXOGE-UHFFFAOYSA-N

> <PUBCHEM_XLOGP3_AA>
3.2

> <PUBCHEM_EXACT_MASS>
302.126657

> <PUBCHEM_MOLECULAR_FORMULA>
C16H18N2O4

> <PUBCHEM_MOLECULAR_WEIGHT>
302.32512

> <PUBCHEM_OPENEYE_CAN_SMILES>
CCC(C(=O)NC1=NOC(=C1)C)OC(=O)C2=CC=CC=C2C

> <PUBCHEM_OPENEYE_ISO_SMILES>
CCC(C(=O)NC1=NOC(=C1)C)OC(=O)C2=CC=CC=C2C

> <PUBCHEM_CACTVS_TPSA>
81.4

> <PUBCHEM_MONOISOTOPIC_WEIGHT>
302.126657

> <PUBCHEM_TOTAL_CHARGE>
0

> <PUBCHEM_HEAVY_ATOM_COUNT>
22

> <PUBCHEM_ATOM_DEF_STEREO_COUNT>
0

> <PUBCHEM_ATOM_UDEF_STEREO_COUNT>
1

> <PUBCHEM_BOND_DEF_STEREO_COUNT>
0

> <PUBCHEM_BOND_UDEF_STEREO_COUNT>
0

> <PUBCHEM_ISOTOPIC_ATOM_COUNT>
0

> <PUBCHEM_COMPONENT_COUNT>
1

> <PUBCHEM_CACTVS_TAUTO_COUNT>
10

> <PUBCHEM_COORDINATE_TYPE>
1
5
255

> <PUBCHEM_BONDANNOTATIONS>
11  13  8
11  15  8
13  16  8
14  18  8
15  19  8
16  20  8
18  21  8
19  20  8
3  21  8
3  6  8
6  14  8
7  8  3

$$$$

