225289
  -OEChem-07051213062D

 48 51  0     1  0  0  0  0  0999 V2000
   11.7842    2.6505    0.0000 O   0  0  0  0  0  0  0  0  0  0  0  0
    5.1343   -1.6571    0.0000 O   0  0  0  0  0  0  0  0  0  0  0  0
    2.5381   -1.1471    0.0000 O   0  0  0  0  0  0  0  0  0  0  0  0
    3.3984   -2.6505    0.0000 O   0  0  0  0  0  0  0  0  0  0  0  0
   10.5273    0.3952    0.0000 C   0  0  2  0  0  0  0  0  0  0  0  0
   10.5273    1.3952    0.0000 C   0  0  2  0  0  0  0  0  0  0  0  0
    9.6613   -0.1048    0.0000 C   0  0  1  0  0  0  0  0  0  0  0  0
    8.7953    0.3952    0.0000 C   0  0  2  0  0  0  0  0  0  0  0  0
    9.6613    1.8952    0.0000 C   0  0  0  0  0  0  0  0  0  0  0  0
   11.4736    0.0905    0.0000 C   0  0  0  0  0  0  0  0  0  0  0  0
    8.7953    1.3952    0.0000 C   0  0  0  0  0  0  0  0  0  0  0  0
    9.6774   -1.1463    0.0000 C   0  0  0  0  0  0  0  0  0  0  0  0
   11.4736    1.6999    0.0000 C   0  0  0  0  0  0  0  0  0  0  0  0
   12.0572    0.8952    0.0000 C   0  0  0  0  0  0  0  0  0  0  0  0
   10.5273    2.3952    0.0000 C   0  0  0  0  0  0  0  0  0  0  0  0
    7.8853   -0.1116    0.0000 C   0  0  0  0  0  0  0  0  0  0  0  0
    8.7793   -1.6741    0.0000 C   0  0  0  0  0  0  0  0  0  0  0  0
    7.8773   -1.1533    0.0000 C   0  0  0  0  0  0  0  0  0  0  0  0
    6.9584    0.4524    0.0000 C   0  0  0  0  0  0  0  0  0  0  0  0
    6.9418   -1.7030    0.0000 C   0  0  0  0  0  0  0  0  0  0  0  0
    6.0106   -0.0755    0.0000 C   0  0  0  0  0  0  0  0  0  0  0  0
    6.0022   -1.1605    0.0000 C   0  0  0  0  0  0  0  0  0  0  0  0
    4.2702   -1.1538    0.0000 C   0  0  0  0  0  0  0  0  0  0  0  0
    3.4022   -1.6505    0.0000 C   0  0  0  0  0  0  0  0  0  0  0  0
   10.6173   -0.4500    0.0000 H   0  0  0  0  0  0  0  0  0  0  0  0
   10.4007   -0.5241    0.0000 H   0  0  0  0  0  0  0  0  0  0  0  0
    9.5314    0.8202    0.0000 H   0  0  0  0  0  0  0  0  0  0  0  0
   10.0598    2.3702    0.0000 H   0  0  0  0  0  0  0  0  0  0  0  0
    9.2628    2.3702    0.0000 H   0  0  0  0  0  0  0  0  0  0  0  0
   11.2225   -0.4764    0.0000 H   0  0  0  0  0  0  0  0  0  0  0  0
   12.0109   -0.2188    0.0000 H   0  0  0  0  0  0  0  0  0  0  0  0
    8.5832    1.9778    0.0000 H   0  0  0  0  0  0  0  0  0  0  0  0
    8.1847    1.2875    0.0000 H   0  0  0  0  0  0  0  0  0  0  0  0
    9.8954   -1.7267    0.0000 H   0  0  0  0  0  0  0  0  0  0  0  0
   10.2865   -1.0308    0.0000 H   0  0  0  0  0  0  0  0  0  0  0  0
   12.5180    0.4805    0.0000 H   0  0  0  0  0  0  0  0  0  0  0  0
   12.5180    1.3099    0.0000 H   0  0  0  0  0  0  0  0  0  0  0  0
   11.1473    2.3952    0.0000 H   0  0  0  0  0  0  0  0  0  0  0  0
   10.5273    3.0152    0.0000 H   0  0  0  0  0  0  0  0  0  0  0  0
    9.9073    2.3952    0.0000 H   0  0  0  0  0  0  0  0  0  0  0  0
    8.3820   -2.1500    0.0000 H   0  0  0  0  0  0  0  0  0  0  0  0
    9.1803   -2.1470    0.0000 H   0  0  0  0  0  0  0  0  0  0  0  0
    6.9704    1.0723    0.0000 H   0  0  0  0  0  0  0  0  0  0  0  0
    6.9442   -2.3230    0.0000 H   0  0  0  0  0  0  0  0  0  0  0  0
    5.4772    0.2407    0.0000 H   0  0  0  0  0  0  0  0  0  0  0  0
    4.6705   -0.6804    0.0000 H   0  0  0  0  0  0  0  0  0  0  0  0
    3.8735   -0.6773    0.0000 H   0  0  0  0  0  0  0  0  0  0  0  0
    2.0000   -1.4550    0.0000 H   0  0  0  0  0  0  0  0  0  0  0  0
  1 13  2  0  0  0  0
  2 22  1  0  0  0  0
  2 23  1  0  0  0  0
  3 24  1  0  0  0  0
  3 48  1  0  0  0  0
  4 24  2  0  0  0  0
  5  6  1  0  0  0  0
  5  7  1  0  0  0  0
  5 10  1  0  0  0  0
  5 25  1  6  0  0  0
  6  9  1  0  0  0  0
  6 13  1  0  0  0  0
  6 15  1  1  0  0  0
  7  8  1  0  0  0  0
  7 12  1  0  0  0  0
  7 26  1  1  0  0  0
  8 11  1  0  0  0  0
  8 16  1  0  0  0  0
  8 27  1  6  0  0  0
  9 11  1  0  0  0  0
  9 28  1  0  0  0  0
  9 29  1  0  0  0  0
 10 14  1  0  0  0  0
 10 30  1  0  0  0  0
 10 31  1  0  0  0  0
 11 32  1  0  0  0  0
 11 33  1  0  0  0  0
 12 17  1  0  0  0  0
 12 34  1  0  0  0  0
 12 35  1  0  0  0  0
 13 14  1  0  0  0  0
 14 36  1  0  0  0  0
 14 37  1  0  0  0  0
 15 38  1  0  0  0  0
 15 39  1  0  0  0  0
 15 40  1  0  0  0  0
 16 18  2  0  0  0  0
 16 19  1  0  0  0  0
 17 18  1  0  0  0  0
 17 41  1  0  0  0  0
 17 42  1  0  0  0  0
 18 20  1  0  0  0  0
 19 21  2  0  0  0  0
 19 43  1  0  0  0  0
 20 22  2  0  0  0  0
 20 44  1  0  0  0  0
 21 22  1  0  0  0  0
 21 45  1  0  0  0  0
 23 24  1  0  0  0  0
 23 46  1  0  0  0  0
 23 47  1  0  0  0  0
M  END
> <PUBCHEM_COMPOUND_CID>
225289

> <PUBCHEM_COMPOUND_CANONICALIZED>
1

> <PUBCHEM_CACTVS_COMPLEXITY>
530

> <PUBCHEM_CACTVS_HBOND_ACCEPTOR>
4

> <PUBCHEM_CACTVS_HBOND_DONOR>
1

> <PUBCHEM_CACTVS_ROTATABLE_BOND>
3

> <PUBCHEM_CACTVS_SUBSKEYS>
AAADceB4OAAAAAAAAAAAAAAAAAAAAYAAAAAwYMAAAAAAAGDBAAAAGgAACAAADwSgmAIyDoAABgCIAqDSCAICCAAgIAAIiAFGCIgNJjKEMR6COCCkwBELqAeIyPCPoAABAAAQAADAAAYAACAAAAAACAAAAA==

> <PUBCHEM_IUPAC_OPENEYE_NAME>
2-[[(8R,9S,13S,14S)-13-methyl-17-oxo-7,8,9,11,12,14,15,16-octahydro-6H-cyclopenta[a]phenanthren-3-yl]oxy]acetic acid

> <PUBCHEM_IUPAC_CAS_NAME>
2-[[(8R,9S,13S,14S)-13-methyl-17-oxo-7,8,9,11,12,14,15,16-octahydro-6H-cyclopenta[a]phenanthren-3-yl]oxy]acetic acid

> <PUBCHEM_IUPAC_NAME>
2-[[(8R,9S,13S,14S)-13-methyl-17-oxo-7,8,9,11,12,14,15,16-octahydro-6H-cyclopenta[a]phenanthren-3-yl]oxy]acetic acid

> <PUBCHEM_IUPAC_SYSTEMATIC_NAME>
2-[[(8R,9S,13S,14S)-13-methyl-17-oxidanylidene-7,8,9,11,12,14,15,16-octahydro-6H-cyclopenta[a]phenanthren-3-yl]oxy]ethanoic acid

> <PUBCHEM_IUPAC_TRADITIONAL_NAME>
2-[[(8R,9S,13S,14S)-17-keto-13-methyl-7,8,9,11,12,14,15,16-octahydro-6H-cyclopenta[a]phenanthren-3-yl]oxy]acetic acid

> <PUBCHEM_IUPAC_INCHI>
InChI=1S/C20H24O4/c1-20-9-8-15-14-5-3-13(24-11-19(22)23)10-12(14)2-4-16(15)17(20)6-7-18(20)21/h3,5,10,15-17H,2,4,6-9,11H2,1H3,(H,22,23)/t15-,16-,17+,20+/m1/s1

> <PUBCHEM_IUPAC_INCHIKEY>
XSDCLHQDGODZPZ-WWNBULGVSA-N

> <PUBCHEM_XLOGP3>
3.1

> <PUBCHEM_EXACT_MASS>
328.167459

> <PUBCHEM_MOLECULAR_FORMULA>
C20H24O4

> <PUBCHEM_MOLECULAR_WEIGHT>
328.40216

> <PUBCHEM_OPENEYE_CAN_SMILES>
CC12CCC3C(C1CCC2=O)CCC4=C3C=CC(=C4)OCC(=O)O

> <PUBCHEM_OPENEYE_ISO_SMILES>
C[C@]12CC[C@H]3[C@H]([C@@H]1CCC2=O)CCC4=C3C=CC(=C4)OCC(=O)O

> <PUBCHEM_CACTVS_TPSA>
63.6

> <PUBCHEM_MONOISOTOPIC_WEIGHT>
328.167459

> <PUBCHEM_TOTAL_CHARGE>
0

> <PUBCHEM_HEAVY_ATOM_COUNT>
24

> <PUBCHEM_ATOM_DEF_STEREO_COUNT>
4

> <PUBCHEM_ATOM_UDEF_STEREO_COUNT>
0

> <PUBCHEM_BOND_DEF_STEREO_COUNT>
0

> <PUBCHEM_BOND_UDEF_STEREO_COUNT>
0

> <PUBCHEM_ISOTOPIC_ATOM_COUNT>
0

> <PUBCHEM_COMPONENT_COUNT>
1

> <PUBCHEM_CACTVS_TAUTO_COUNT>
2

> <PUBCHEM_COORDINATE_TYPE>
1
5
255

> <PUBCHEM_BONDANNOTATIONS>
16  18  8
16  19  8
18  20  8
19  21  8
20  22  8
21  22  8
5  25  6
6  15  5
7  26  5
8  27  6

$$$$

