105008
  -OEChem-07051213042D

 65 70  0     1  0  0  0  0  0999 V2000
    7.0101    2.2052    0.0000 O   0  0  0  0  0  0  0  0  0  0  0  0
    4.2663    1.7613    0.0000 O   0  0  0  0  0  0  0  0  0  0  0  0
    5.2217    4.3814    0.0000 O   0  0  0  0  0  0  0  0  0  0  0  0
    2.5381    3.8529    0.0000 O   0  0  0  0  0  0  0  0  0  0  0  0
    7.6865   -2.1707    0.0000 N   0  0  0  0  0  0  0  0  0  0  0  0
    7.0101    0.2052    0.0000 C   0  0  2  0  0  0  0  0  0  0  0  0
    7.8761   -0.2948    0.0000 C   0  0  2  0  0  0  0  0  0  0  0  0
    8.7422    0.2052    0.0000 C   0  0  1  0  0  0  0  0  0  0  0  0
    7.0101    1.2052    0.0000 C   0  0  2  0  0  0  0  0  0  0  0  0
    6.1162   -0.3294    0.0000 C   0  0  0  0  0  0  0  0  0  0  0  0
    8.7422    1.2052    0.0000 C   0  0  0  0  0  0  0  0  0  0  0  0
    7.8761    1.7052    0.0000 C   0  0  0  0  0  0  0  0  0  0  0  0
    8.0853   -1.2666    0.0000 C   0  0  0  0  0  0  0  0  0  0  0  0
    9.4792   -0.4619    0.0000 C   0  0  0  0  0  0  0  0  0  0  0  0
    6.1162    1.7399    0.0000 C   0  0  0  0  0  0  0  0  0  0  0  0
    6.6682   -0.7345    0.0000 C   0  0  0  0  0  0  0  0  0  0  0  0
    7.2333   -1.0608    0.0000 C   0  0  0  0  0  0  0  0  0  0  0  0
    9.0741   -1.3696    0.0000 C   0  0  0  0  0  0  0  0  0  0  0  0
    5.2101    0.1844    0.0000 C   0  0  0  0  0  0  0  0  0  0  0  0
    5.2101    1.2260    0.0000 C   0  0  2  0  0  0  0  0  0  0  0  0
    9.2778   -2.3366    0.0000 C   0  0  0  0  0  0  0  0  0  0  0  0
    6.1412    2.8246    0.0000 C   0  0  0  0  0  0  0  0  0  0  0  0
    8.4220   -2.8307    0.0000 C   0  0  0  0  0  0  0  0  0  0  0  0
    4.2663    2.8463    0.0000 C   0  0  1  0  0  0  0  0  0  0  0  0
    5.2101    3.3815    0.0000 C   0  0  0  0  0  0  0  0  0  0  0  0
   10.1771   -2.8375    0.0000 C   0  0  0  0  0  0  0  0  0  0  0  0
    3.4022    3.3496    0.0000 C   0  0  0  0  0  0  0  0  0  0  0  0
    8.4062   -3.8599    0.0000 C   0  0  0  0  0  0  0  0  0  0  0  0
   10.1850   -3.8668    0.0000 C   0  0  0  0  0  0  0  0  0  0  0  0
    9.2936   -4.3814    0.0000 C   0  0  0  0  0  0  0  0  0  0  0  0
    2.8989    2.4855    0.0000 C   0  0  0  0  0  0  0  0  0  0  0  0
    3.9056    4.2137    0.0000 C   0  0  0  0  0  0  0  0  0  0  0  0
    9.5191    0.5499    0.0000 H   0  0  0  0  0  0  0  0  0  0  0  0
    5.7225   -0.8085    0.0000 H   0  0  0  0  0  0  0  0  0  0  0  0
    6.5208   -0.7992    0.0000 H   0  0  0  0  0  0  0  0  0  0  0  0
    9.3527    1.0976    0.0000 H   0  0  0  0  0  0  0  0  0  0  0  0
    8.9542    1.7878    0.0000 H   0  0  0  0  0  0  0  0  0  0  0  0
    8.2747    2.1802    0.0000 H   0  0  0  0  0  0  0  0  0  0  0  0
    7.4776    2.1802    0.0000 H   0  0  0  0  0  0  0  0  0  0  0  0
   10.0157   -0.7726    0.0000 H   0  0  0  0  0  0  0  0  0  0  0  0
    9.8446    0.0390    0.0000 H   0  0  0  0  0  0  0  0  0  0  0  0
    6.0855   -0.5225    0.0000 H   0  0  0  0  0  0  0  0  0  0  0  0
    6.4562   -1.3171    0.0000 H   0  0  0  0  0  0  0  0  0  0  0  0
    7.2508   -0.9465    0.0000 H   0  0  0  0  0  0  0  0  0  0  0  0
    6.7584   -0.6623    0.0000 H   0  0  0  0  0  0  0  0  0  0  0  0
    6.8348   -1.5357    0.0000 H   0  0  0  0  0  0  0  0  0  0  0  0
    7.7082   -1.4594    0.0000 H   0  0  0  0  0  0  0  0  0  0  0  0
    4.5992    0.2905    0.0000 H   0  0  0  0  0  0  0  0  0  0  0  0
    5.0010   -0.3993    0.0000 H   0  0  0  0  0  0  0  0  0  0  0  0
    4.4756    0.7982    0.0000 H   0  0  0  0  0  0  0  0  0  0  0  0
    7.0804   -2.3012    0.0000 H   0  0  0  0  0  0  0  0  0  0  0  0
    7.5470    2.5152    0.0000 H   0  0  0  0  0  0  0  0  0  0  0  0
    6.6841    3.1242    0.0000 H   0  0  0  0  0  0  0  0  0  0  0  0
    3.5294    2.4227    0.0000 H   0  0  0  0  0  0  0  0  0  0  0  0
   10.7104   -2.5213    0.0000 H   0  0  0  0  0  0  0  0  0  0  0  0
    7.8657   -4.1637    0.0000 H   0  0  0  0  0  0  0  0  0  0  0  0
   10.7232   -4.1747    0.0000 H   0  0  0  0  0  0  0  0  0  0  0  0
    9.2912   -5.0014    0.0000 H   0  0  0  0  0  0  0  0  0  0  0  0
    2.3632    2.7976    0.0000 H   0  0  0  0  0  0  0  0  0  0  0  0
    2.5868    1.9498    0.0000 H   0  0  0  0  0  0  0  0  0  0  0  0
    3.4346    2.1734    0.0000 H   0  0  0  0  0  0  0  0  0  0  0  0
    4.4413    3.9016    0.0000 H   0  0  0  0  0  0  0  0  0  0  0  0
    4.2176    4.7494    0.0000 H   0  0  0  0  0  0  0  0  0  0  0  0
    3.3698    4.5258    0.0000 H   0  0  0  0  0  0  0  0  0  0  0  0
    2.0000    3.5450    0.0000 H   0  0  0  0  0  0  0  0  0  0  0  0
  9  1  1  1  0  0  0
  1 52  1  0  0  0  0
  2 20  1  0  0  0  0
  2 24  1  0  0  0  0
  3 25  2  0  0  0  0
  4 27  1  0  0  0  0
  4 65  1  0  0  0  0
  5 13  1  0  0  0  0
  5 23  1  0  0  0  0
  5 51  1  0  0  0  0
  6  7  1  0  0  0  0
  6  9  1  0  0  0  0
  6 10  1  0  0  0  0
  6 16  1  6  0  0  0
  7  8  1  0  0  0  0
  7 13  1  0  0  0  0
  7 17  1  1  0  0  0
  8 11  1  0  0  0  0
  8 14  1  0  0  0  0
  8 33  1  6  0  0  0
  9 12  1  0  0  0  0
  9 15  1  0  0  0  0
 10 19  1  0  0  0  0
 10 34  1  0  0  0  0
 10 35  1  0  0  0  0
 11 12  1  0  0  0  0
 11 36  1  0  0  0  0
 11 37  1  0  0  0  0
 12 38  1  0  0  0  0
 12 39  1  0  0  0  0
 13 18  2  0  0  0  0
 14 18  1  0  0  0  0
 14 40  1  0  0  0  0
 14 41  1  0  0  0  0
 15 20  1  0  0  0  0
 15 22  2  0  0  0  0
 16 42  1  0  0  0  0
 16 43  1  0  0  0  0
 16 44  1  0  0  0  0
 17 45  1  0  0  0  0
 17 46  1  0  0  0  0
 17 47  1  0  0  0  0
 18 21  1  0  0  0  0
 19 20  1  0  0  0  0
 19 48  1  0  0  0  0
 19 49  1  0  0  0  0
 20 50  1  1  0  0  0
 21 23  1  0  0  0  0
 21 26  2  0  0  0  0
 22 25  1  0  0  0  0
 22 53  1  0  0  0  0
 23 28  2  0  0  0  0
 24 25  1  0  0  0  0
 24 27  1  0  0  0  0
 24 54  1  1  0  0  0
 26 29  1  0  0  0  0
 26 55  1  0  0  0  0
 27 31  1  0  0  0  0
 27 32  1  0  0  0  0
 28 30  1  0  0  0  0
 28 56  1  0  0  0  0
 29 30  2  0  0  0  0
 29 57  1  0  0  0  0
 30 58  1  0  0  0  0
 31 59  1  0  0  0  0
 31 60  1  0  0  0  0
 31 61  1  0  0  0  0
 32 62  1  0  0  0  0
 32 63  1  0  0  0  0
 32 64  1  0  0  0  0
M  END
> <PUBCHEM_COMPOUND_CID>
105008

> <PUBCHEM_COMPOUND_CANONICALIZED>
1

> <PUBCHEM_CACTVS_COMPLEXITY>
868

> <PUBCHEM_CACTVS_HBOND_ACCEPTOR>
4

> <PUBCHEM_CACTVS_HBOND_DONOR>
3

> <PUBCHEM_CACTVS_ROTATABLE_BOND>
1

> <PUBCHEM_CACTVS_SUBSKEYS>
AAADcfB6OAAAAAAAAAAAAAAAAAAAAeIAAAAwYMEAAAAWAHjB8AAAHgAQCAAAD1yhngIywPLJlgCoA6RyRAKCgCAhAiAImSFwZNgJJPbAsZWGcAhl8ADL+Qew4PwPgAAAAAACAADAAAYQADQAASAACQAAAA==

> <PUBCHEM_IUPAC_INCHI>
InChI=1S/C27H33NO4/c1-24(2,30)23-20(29)14-18-21(32-23)10-11-25(3)26(4)15(9-12-27(18,25)31)13-17-16-7-5-6-8-19(16)28-22(17)26/h5-8,14-15,21,23,28,30-31H,9-13H2,1-4H3/t15-,21-,23-,25+,26+,27+/m0/s1

> <PUBCHEM_IUPAC_INCHIKEY>
ACNHBCIZLNNLRS-UBGQALKQSA-N

> <PUBCHEM_XLOGP3_AA>
3.5

> <PUBCHEM_EXACT_MASS>
435.240959

> <PUBCHEM_MOLECULAR_FORMULA>
C27H33NO4

> <PUBCHEM_MOLECULAR_WEIGHT>
435.55522

> <PUBCHEM_OPENEYE_CAN_SMILES>
CC12CCC3C(=CC(=O)C(O3)C(C)(C)O)C1(CCC4C2(C5=C(C4)C6=CC=CC=C6N5)C)O

> <PUBCHEM_OPENEYE_ISO_SMILES>
C[C@]12CC[C@H]3C(=CC(=O)[C@H](O3)C(C)(C)O)[C@@]1(CC[C@@H]4[C@@]2(C5=C(C4)C6=CC=CC=C6N5)C)O

> <PUBCHEM_CACTVS_TPSA>
82.6

> <PUBCHEM_MONOISOTOPIC_WEIGHT>
435.240959

> <PUBCHEM_TOTAL_CHARGE>
0

> <PUBCHEM_HEAVY_ATOM_COUNT>
32

> <PUBCHEM_ATOM_DEF_STEREO_COUNT>
6

> <PUBCHEM_ATOM_UDEF_STEREO_COUNT>
0

> <PUBCHEM_BOND_DEF_STEREO_COUNT>
0

> <PUBCHEM_BOND_UDEF_STEREO_COUNT>
0

> <PUBCHEM_ISOTOPIC_ATOM_COUNT>
0

> <PUBCHEM_COMPONENT_COUNT>
1

> <PUBCHEM_CACTVS_TAUTO_COUNT>
2

> <PUBCHEM_COORDINATE_TYPE>
1
5
255

> <PUBCHEM_BONDANNOTATIONS>
9  1  5
13  18  8
18  21  8
20  50  5
21  23  8
21  26  8
23  28  8
24  54  5
26  29  8
28  30  8
29  30  8
5  13  8
5  23  8
6  16  6
7  17  5
8  33  6

$$$$

