   Color/Form
        Tan, crystalline powder.
   from [1]HSDB

   Melting Point
        194 DEG C
   from [2]HSDB

   Octanol/Water Partition Coefficient
        log Kow= 3.22 (estimated)
   from [3]HSDB

   Solubilities

     * INSOL IN WATER; SOL IN GLYCOLS, ALCOHOLS, FAT SOLVENTS
     * SOL IN ETHER & ACETIC ACID
     * 144 mg/l (at 25 deg C) (est)

   from [4]HSDB

   Spectral Properties

     * MAX ABSORPTION: 285 NM
     * IR: 6627 (Coblentz Society Spectral Collection)
     * UV: 4150 (Sadtler Research Laboratories Spectral Collection)
     * NMR: 9438 (Sadtler Research Laboratories Spectral Collection)

   from [5]HSDB

   Other Chemical/Physical Properties
        Needles crystallized from 50% alcohol or 50% acetic acid
   from [6]HSDB

   Computed Properties
   Molecular Weight                  223.26982 [g/mol]
   Molecular Formula                 C[15]H[13]NO
   XLogP3                            3.3
   H-Bond Donor                      1
   H-Bond Acceptor                   1
   Rotatable Bond Count              1
   Tautomer Count                    3
   Exact Mass                        223.099714
   MonoIsotopic Mass                 223.099714
   Topological Polar Surface Area    29.1
   Heavy Atom Count                  17
   Formal Charge                     0
   Complexity                        301
   Isotope Atom Count                0
   Defined Atom Stereocenter Count   0
   Undefined Atom Stereocenter Count 0
   Defined Bond Stereocenter Count   0
   Undefined Bond Stereocenter Count 0
   Covalently-Bonded Unit Count      1
   Feature 3D Acceptor Count         1
   Feature 3D Donor Count            1
   Feature 3D Ring Count             3
   Effective Rotor Count             2.2
   Conformer Sampling RMSD           0.6
   CID Conformer Count               [7]4

References

   1. http://toxnet.nlm.nih.gov/cgi-bin/sis/search/r?dbs+hsdb:@term+@rn+@rel+53-96-3
   2. http://toxnet.nlm.nih.gov/cgi-bin/sis/search/r?dbs+hsdb:@term+@rn+@rel+53-96-3
   3. http://toxnet.nlm.nih.gov/cgi-bin/sis/search/r?dbs+hsdb:@term+@rn+@rel+53-96-3
   4. http://toxnet.nlm.nih.gov/cgi-bin/sis/search/r?dbs+hsdb:@term+@rn+@rel+53-96-3
   5. http://toxnet.nlm.nih.gov/cgi-bin/sis/search/r?dbs+hsdb:@term+@rn+@rel+53-96-3
   6. http://toxnet.nlm.nih.gov/cgi-bin/sis/search/r?dbs+hsdb:@term+@rn+@rel+53-96-3
   7. http://pubchem.ncbi.nlm.nih.gov/vw3d/vw3d.cgi?cid=5897
