   Color/Form

     * COLORLESS, SLIGHTLY VISCOUS LIQUID
     * Colorless liquid.

   from [1]HSDB

   Boiling Point
        160 DEG C @ 760 MM HG
   from [2]HSDB

   Density/Specific Gravity
        SP GR: 1.115 @ 20 DEG C/4 DEG C
   from [3]HSDB

   Solubilities
        SOL IN WATER, ALCOHOL & ETHER
   from [4]HSDB

   Vapor Density
        2.15
   from [5]HSDB

   Vapor Pressure
        0.9 MM HG AT 25 DEG C
   from [6]HSDB

   Other Chemical/Physical Properties

     * BP: 167 DEG C @ 760 MM HG, DECOMP /DL-ISOMER/
     * INDEX OF REFRACTION: 1.4293 @ 16 DEG C/D; SPECIFIC OPTICAL ROTATION
       (UNDILUTED): +15 DEG/D /D-ISOMER/
     * SPECIFIC OPTICAL ROTATION (UNDILUTED): -8.6 DEG AT 18 DEG C/D
       /L-ISOMER/
     * BP: 56.5 DEG C @ 11 MM HG /D-ISOMER/; 56 DEG C @ 11 MM HG
       /L-ISOMER/
     * DENSITY: 1.117 @ 20 DEG C/4 DEG C /D-ISOMER/; 1.1050 @ 18 DEG C
       /L-ISOMER/
     * DENSITY: 1.1143 @ 25 DEG C/4 DEG C /DL-ISOMER/
     * SOL IN ACETONE, BENZENE, WATER, ALCOHOL, ETHER, /D-ISOMER;
       L-ISOMER/
     * IR: 15765 (Sadtler Research Laboratories Prism Collection)
       /Glycidol (D)/
     * MASS: 80 (Atlas of Mass Spectral Data, John Wiley & Sons, New York)
       /Glycidol (D)/
     * IR: 15765 (Sadtler Research Laboratories Prism Collection)
       /Glycidol (DL)/
     * MASS: 80 (Atlas of Mass Spectral Data, John Wiley & Sons, New York)
       /Glycidol (DL)/
     * MASS: 22 (National Bureau of Standards EPA-NIH Mass Spectra Data
       Base, NSRDS-NBS-63) /Glycidol (L)/

   from [7]HSDB

   Computed Properties
   Molecular Weight                  74.07854 [g/mol]
   Molecular Formula                 C[3]H[6]O[2]
   XLogP3                            -0.9
   H-Bond Donor                      1
   H-Bond Acceptor                   2
   Rotatable Bond Count              1
   Exact Mass                        74.036779
   MonoIsotopic Mass                 74.036779
   Topological Polar Surface Area    32.8
   Heavy Atom Count                  5
   Formal Charge                     0
   Complexity                        35.9
   Isotope Atom Count                0
   Defined Atom Stereocenter Count   0
   Undefined Atom Stereocenter Count 1
   Defined Bond Stereocenter Count   0
   Undefined Bond Stereocenter Count 0
   Covalently-Bonded Unit Count      1
   Feature 3D Acceptor Count         2
   Feature 3D Donor Count            1
   Effective Rotor Count             1.6
   Conformer Sampling RMSD           0.4
   CID Conformer Count               [8]6

References

   1. http://toxnet.nlm.nih.gov/cgi-bin/sis/search/r?dbs+hsdb:@term+@rn+@rel+556-52-5
   2. http://toxnet.nlm.nih.gov/cgi-bin/sis/search/r?dbs+hsdb:@term+@rn+@rel+556-52-5
   3. http://toxnet.nlm.nih.gov/cgi-bin/sis/search/r?dbs+hsdb:@term+@rn+@rel+556-52-5
   4. http://toxnet.nlm.nih.gov/cgi-bin/sis/search/r?dbs+hsdb:@term+@rn+@rel+556-52-5
   5. http://toxnet.nlm.nih.gov/cgi-bin/sis/search/r?dbs+hsdb:@term+@rn+@rel+556-52-5
   6. http://toxnet.nlm.nih.gov/cgi-bin/sis/search/r?dbs+hsdb:@term+@rn+@rel+556-52-5
   7. http://toxnet.nlm.nih.gov/cgi-bin/sis/search/r?dbs+hsdb:@term+@rn+@rel+556-52-5
   8. http://pubchem.ncbi.nlm.nih.gov/vw3d/vw3d.cgi?cid=11164
