439406
  -OEChem-07051212452D

 28 27  0     1  0  0  0  0  0999 V2000
    4.5981    0.0600    0.0000 O   0  0  0  0  0  0  0  0  0  0  0  0
    7.1962    2.5600    0.0000 O   0  0  0  0  0  0  0  0  0  0  0  0
    6.3301    4.0600    0.0000 O   0  0  0  0  0  0  0  0  0  0  0  0
    2.8660    0.0600    0.0000 O   0  0  0  0  0  0  0  0  0  0  0  0
    2.0000   -3.4400    0.0000 O   0  0  0  0  0  0  0  0  0  0  0  0
    3.7320   -3.4400    0.0000 O   0  0  0  0  0  0  0  0  0  0  0  0
    4.5981    3.0600    0.0000 N   0  0  0  0  0  0  0  0  0  0  0  0
    5.4641    1.5600    0.0000 C   0  0  0  0  0  0  0  0  0  0  0  0
    5.4641    2.5600    0.0000 C   0  0  1  0  0  0  0  0  0  0  0  0
    4.5981    1.0600    0.0000 C   0  0  0  0  0  0  0  0  0  0  0  0
    3.7320   -1.4400    0.0000 C   0  0  0  0  0  0  0  0  0  0  0  0
    6.3301    3.0600    0.0000 C   0  0  0  0  0  0  0  0  0  0  0  0
    3.7320   -0.4400    0.0000 C   0  0  0  0  0  0  0  0  0  0  0  0
    2.8660   -1.9400    0.0000 C   0  0  0  0  0  0  0  0  0  0  0  0
    2.8660   -2.9400    0.0000 C   0  0  0  0  0  0  0  0  0  0  0  0
    5.6762    0.9774    0.0000 H   0  0  0  0  0  0  0  0  0  0  0  0
    6.0747    1.6677    0.0000 H   0  0  0  0  0  0  0  0  0  0  0  0
    5.4641    3.1800    0.0000 H   0  0  0  0  0  0  0  0  0  0  0  0
    4.3860    1.6426    0.0000 H   0  0  0  0  0  0  0  0  0  0  0  0
    3.9875    0.9523    0.0000 H   0  0  0  0  0  0  0  0  0  0  0  0
    3.9441   -2.0226    0.0000 H   0  0  0  0  0  0  0  0  0  0  0  0
    4.3426   -1.3323    0.0000 H   0  0  0  0  0  0  0  0  0  0  0  0
    4.0611    2.7500    0.0000 H   0  0  0  0  0  0  0  0  0  0  0  0
    4.5981    3.6800    0.0000 H   0  0  0  0  0  0  0  0  0  0  0  0
    2.6540   -1.3574    0.0000 H   0  0  0  0  0  0  0  0  0  0  0  0
    2.2554   -2.0477    0.0000 H   0  0  0  0  0  0  0  0  0  0  0  0
    7.7331    2.8700    0.0000 H   0  0  0  0  0  0  0  0  0  0  0  0
    2.0000   -4.0600    0.0000 H   0  0  0  0  0  0  0  0  0  0  0  0
  1 10  1  0  0  0  0
  1 13  1  0  0  0  0
  2 12  1  0  0  0  0
  2 27  1  0  0  0  0
  3 12  2  0  0  0  0
  4 13  2  0  0  0  0
  5 15  1  0  0  0  0
  5 28  1  0  0  0  0
  6 15  2  0  0  0  0
  9  7  1  6  0  0  0
  7 23  1  0  0  0  0
  7 24  1  0  0  0  0
  8  9  1  0  0  0  0
  8 10  1  0  0  0  0
  8 16  1  0  0  0  0
  8 17  1  0  0  0  0
  9 12  1  0  0  0  0
  9 18  1  0  0  0  0
 10 19  1  0  0  0  0
 10 20  1  0  0  0  0
 11 13  1  0  0  0  0
 11 14  1  0  0  0  0
 11 21  1  0  0  0  0
 11 22  1  0  0  0  0
 14 15  1  0  0  0  0
 14 25  1  0  0  0  0
 14 26  1  0  0  0  0
M  END
> <PUBCHEM_COMPOUND_CID>
439406

> <PUBCHEM_COMPOUND_CANONICALIZED>
1

> <PUBCHEM_CACTVS_COMPLEXITY>
252

> <PUBCHEM_CACTVS_HBOND_ACCEPTOR>
7

> <PUBCHEM_CACTVS_HBOND_DONOR>
3

> <PUBCHEM_CACTVS_ROTATABLE_BOND>
8

> <PUBCHEM_CACTVS_SUBSKEYS>
AAADccByOAAAAAAAAAAAAAAAAAAAAAAAAAAAAAAAAAAAAAAAAAAAHgAQCAAACCjhgAYACABABgAIAACQCAAAAAAAAAAAAIGAAAACABAAAAACQAAGEAAAAABDAAAAAAAAAAAAAAAAAAAAAAAAAAAAAAAAAA==

> <PUBCHEM_IUPAC_OPENEYE_NAME>
(2S)-2-amino-4-(3-carboxypropanoyloxy)butanoic acid

> <PUBCHEM_IUPAC_CAS_NAME>
(2S)-2-amino-4-(3-carboxy-1-oxopropoxy)butanoic acid

> <PUBCHEM_IUPAC_NAME>
(2S)-2-amino-4-(3-carboxypropanoyloxy)butanoic acid

> <PUBCHEM_IUPAC_SYSTEMATIC_NAME>
(2S)-2-azanyl-4-(4-oxidanyl-4-oxidanylidene-butanoyl)oxy-butanoic acid

> <PUBCHEM_IUPAC_TRADITIONAL_NAME>
(2S)-2-amino-4-(3-carboxypropanoyloxy)butyric acid

> <PUBCHEM_IUPAC_INCHI>
InChI=1S/C8H13NO6/c9-5(8(13)14)3-4-15-7(12)2-1-6(10)11/h5H,1-4,9H2,(H,10,11)(H,13,14)/t5-/m0/s1

> <PUBCHEM_IUPAC_INCHIKEY>
GNISQJGXJIDKDJ-YFKPBYRVSA-N

> <PUBCHEM_XLOGP3_AA>
-3.7

> <PUBCHEM_EXACT_MASS>
219.074287

> <PUBCHEM_MOLECULAR_FORMULA>
C8H13NO6

> <PUBCHEM_MOLECULAR_WEIGHT>
219.19192

> <PUBCHEM_OPENEYE_CAN_SMILES>
C(COC(=O)CCC(=O)O)C(C(=O)O)N

> <PUBCHEM_OPENEYE_ISO_SMILES>
C(COC(=O)CCC(=O)O)[C@@H](C(=O)O)N

> <PUBCHEM_CACTVS_TPSA>
127

> <PUBCHEM_MONOISOTOPIC_WEIGHT>
219.074287

> <PUBCHEM_TOTAL_CHARGE>
0

> <PUBCHEM_HEAVY_ATOM_COUNT>
15

> <PUBCHEM_ATOM_DEF_STEREO_COUNT>
1

> <PUBCHEM_ATOM_UDEF_STEREO_COUNT>
0

> <PUBCHEM_BOND_DEF_STEREO_COUNT>
0

> <PUBCHEM_BOND_UDEF_STEREO_COUNT>
0

> <PUBCHEM_ISOTOPIC_ATOM_COUNT>
0

> <PUBCHEM_COMPONENT_COUNT>
1

> <PUBCHEM_CACTVS_TAUTO_COUNT>
1

> <PUBCHEM_COORDINATE_TYPE>
1
5
255

> <PUBCHEM_BONDANNOTATIONS>
9  7  6

$$$$

