   Color/Form

     * Colorless liquid
     * Colorless, oily liquid

   from [1]HSDB

   Odor
        Disagreeable odor.
   from [2]HSDB

   Boiling Point
        101.1 deg C
   from [3]HSDB

   Melting Point
        -28.5 deg C
   from [4]HSDB

   Critical Temperature and Pressure
        Critical temperature: 315 deg C, Critical pressure: 62.3 atm
   from [5]HSDB

   Density/Specific Gravity
        1.1371 g/cu cm at 20 deg C
   from [6]HSDB

   Dissociation Constants
        pKa = 10.21
   from [7]HSDB

   Heat of Combustion
        -708.4 kJ/mol at 25 deg C
   from [8]HSDB

   Heat of Vaporization
        38.27 kJ/mol at 25 deg C
   from [9]HSDB

   Octanol/Water Partition Coefficient
        low Kow = -0.35
   from [10]HSDB

   pH
        pH of 0.01M aqueous solution = 6.12
   from [11]HSDB

   Solubilities

     * Soluble in ethanol, ethyl ether, acetone, carbon tetrachloride, and
       alkali.
     * In water, 1.11X10+5 mg/L at 25 deg C

   from [12]HSDB

   Spectral Properties

     * Index of refraction = 1.3817 at 20 deg C/D
     * SADTLER REF NUMBER: 61 (IR, PRISM); MAX ABSORPTION (ALCOHOL): 260
       NM (LOG E= 1.59)
     * IR: 25 (Sadtler Research Laboratories IR Grating Collection)
     * UV: 29 (Sadtler Research Laboratories Spectral Collection)
     * 1H NMR: 9146 (Sadtler Research Laboratories Spectral Collection)
     * C-13 NMR: 155 (Stothers, Carbon-13 NMR Spectroscopy, Academic
       Press, New York)
     * MASS: 17 (Atlas of Mass Spectral Data, John Wiley & Sons, New
       York); 61904 (NIST/EPA/MSDC Mass Spectral Database, 1990 Version)

   from [13]HSDB

   Surface Tension
        37.19 dynes/cm at 20 deg C
   from [14]HSDB

   Vapor Density
        2.11 (Air= 1)
   from [15]HSDB

   Vapor Pressure
        3.58X10+1 mm Hg at 25 deg C /Extrapolated/
   from [16]HSDB

   Relative Evaporation Rate
        1.3 (Butyl acetate = 1)
   from [17]HSDB

   Viscosity
        0.614 cP at 25 deg C
   from [18]HSDB

   Other Chemical/Physical Properties

     * Bulk density = 8.5 lb/gal
     * Solubility of water in nitromethane: 2.09% at 25 deg C; coefficient
       of expansion 0.00115 cu m/deg C
     * Heat of formation (liq) at 25 deg C= -113.1 kJ/mol
     * Henry's Law constant = 2.86X10-5 atm-cu m/mol at 25 deg C [Gaffney
       JS et al; Environ Sci Technol 21: 519-23 (1987)] [19]PubMed
       Abstract
     * Hydroxyl radical reaction rate constant = 1.30X10-13 cu
       cm/molecule-sec at 25 deg C

   from [20]HSDB

   Computed Properties
   Molecular Weight                  61.04002 [g/mol]
   Molecular Formula                 CH[3]NO[2]
   XLogP3-AA                         0.1
   H-Bond Donor                      0
   H-Bond Acceptor                   2
   Rotatable Bond Count              0
   Tautomer Count                    2
   Exact Mass                        61.016378
   MonoIsotopic Mass                 61.016378
   Topological Polar Surface Area    45.8
   Heavy Atom Count                  4
   Formal Charge                     0
   Complexity                        27.5
   Isotope Atom Count                0
   Defined Atom Stereocenter Count   0
   Undefined Atom Stereocenter Count 0
   Defined Bond Stereocenter Count   0
   Undefined Bond Stereocenter Count 0
   Covalently-Bonded Unit Count      1
   Feature 3D Acceptor Count         2
   Feature 3D Anion Count            1
   Effective Rotor Count             0
   Conformer Sampling RMSD           0.4
   CID Conformer Count               [21]1

References

   1. http://toxnet.nlm.nih.gov/cgi-bin/sis/search/r?dbs+hsdb:@term+@rn+@rel+75-52-5
   2. http://toxnet.nlm.nih.gov/cgi-bin/sis/search/r?dbs+hsdb:@term+@rn+@rel+75-52-5
   3. http://toxnet.nlm.nih.gov/cgi-bin/sis/search/r?dbs+hsdb:@term+@rn+@rel+75-52-5
   4. http://toxnet.nlm.nih.gov/cgi-bin/sis/search/r?dbs+hsdb:@term+@rn+@rel+75-52-5
   5. http://toxnet.nlm.nih.gov/cgi-bin/sis/search/r?dbs+hsdb:@term+@rn+@rel+75-52-5
   6. http://toxnet.nlm.nih.gov/cgi-bin/sis/search/r?dbs+hsdb:@term+@rn+@rel+75-52-5
   7. http://toxnet.nlm.nih.gov/cgi-bin/sis/search/r?dbs+hsdb:@term+@rn+@rel+75-52-5
   8. http://toxnet.nlm.nih.gov/cgi-bin/sis/search/r?dbs+hsdb:@term+@rn+@rel+75-52-5
   9. http://toxnet.nlm.nih.gov/cgi-bin/sis/search/r?dbs+hsdb:@term+@rn+@rel+75-52-5
  10. http://toxnet.nlm.nih.gov/cgi-bin/sis/search/r?dbs+hsdb:@term+@rn+@rel+75-52-5
  11. http://toxnet.nlm.nih.gov/cgi-bin/sis/search/r?dbs+hsdb:@term+@rn+@rel+75-52-5
  12. http://toxnet.nlm.nih.gov/cgi-bin/sis/search/r?dbs+hsdb:@term+@rn+@rel+75-52-5
  13. http://toxnet.nlm.nih.gov/cgi-bin/sis/search/r?dbs+hsdb:@term+@rn+@rel+75-52-5
  14. http://toxnet.nlm.nih.gov/cgi-bin/sis/search/r?dbs+hsdb:@term+@rn+@rel+75-52-5
  15. http://toxnet.nlm.nih.gov/cgi-bin/sis/search/r?dbs+hsdb:@term+@rn+@rel+75-52-5
  16. http://toxnet.nlm.nih.gov/cgi-bin/sis/search/r?dbs+hsdb:@term+@rn+@rel+75-52-5
  17. http://toxnet.nlm.nih.gov/cgi-bin/sis/search/r?dbs+hsdb:@term+@rn+@rel+75-52-5
  18. http://toxnet.nlm.nih.gov/cgi-bin/sis/search/r?dbs+hsdb:@term+@rn+@rel+75-52-5
  19. http://www.ncbi.nlm.nih.gov/entrez/query.fcgi?cmd=Retrieve&db=pubmed&dopt=Abstract&list_uids=19994967
  20. http://toxnet.nlm.nih.gov/cgi-bin/sis/search/r?dbs+hsdb:@term+@rn+@rel+75-52-5
  21. http://pubchem.ncbi.nlm.nih.gov/vw3d/vw3d.cgi?cid=6375
