   Color/Form
        Oily liquid
   from [1]HSDB

   Dissociation Constants
        pKa = 4.24 (est)
   from [2]HSDB

   Octanol/Water Partition Coefficient
        log Kow = -0.58 (est)
   from [3]HSDB

   Solubilities

     * Very soluble in water, but also soluble in organic solvents,
       especially polar organic solvents.
     * In water, 6.0X10+4 mg/L at 25 deg C (est)

   from [4]HSDB

   Vapor Pressure
        1.7X10-3 mm Hg at 25 deg C (est)
   from [5]HSDB

   Other Chemical/Physical Properties

     * Hygroscopic crystals, mp 28 deg C /delta-Lactone/
     * Crystals from benzene + petroleum ether, mp 96-97 deg C. Specific
       optical rotation: -20 deg at 20 deg C/D (c = 2 in ethanol)
       /Benzhydrylamide/
     * Henry's Law constant = 2.27X10-12 atm-cu m/mol at 25 deg C (est)
     * Hydroxyl radical reaction rate constant = 1.24X10-11 cu
       cm/molec-sec at 25 deg C (est)

   from [6]HSDB

   Computed Properties
   Molecular Weight                  148.15708 [g/mol]
   Molecular Formula                 C[6]H[12]O[4]
   XLogP3-AA                         -1
   H-Bond Donor                      3
   H-Bond Acceptor                   4
   Rotatable Bond Count              4
   Exact Mass                        148.073559
   MonoIsotopic Mass                 148.073559
   Topological Polar Surface Area    77.8
   Heavy Atom Count                  10
   Formal Charge                     0
   Complexity                        123
   Isotope Atom Count                0
   Defined Atom Stereocenter Count   1
   Undefined Atom Stereocenter Count 0
   Defined Bond Stereocenter Count   0
   Undefined Bond Stereocenter Count 0
   Covalently-Bonded Unit Count      1
   Feature 3D Acceptor Count         4
   Feature 3D Donor Count            2
   Feature 3D Anion Count            1
   Effective Rotor Count             4
   Conformer Sampling RMSD           0.6
   CID Conformer Count               [7]37

References

   1. http://toxnet.nlm.nih.gov/cgi-bin/sis/search/r?dbs+hsdb:@term+@rn+@rel+150-97-0
   2. http://toxnet.nlm.nih.gov/cgi-bin/sis/search/r?dbs+hsdb:@term+@rn+@rel+150-97-0
   3. http://toxnet.nlm.nih.gov/cgi-bin/sis/search/r?dbs+hsdb:@term+@rn+@rel+150-97-0
   4. http://toxnet.nlm.nih.gov/cgi-bin/sis/search/r?dbs+hsdb:@term+@rn+@rel+150-97-0
   5. http://toxnet.nlm.nih.gov/cgi-bin/sis/search/r?dbs+hsdb:@term+@rn+@rel+150-97-0
   6. http://toxnet.nlm.nih.gov/cgi-bin/sis/search/r?dbs+hsdb:@term+@rn+@rel+150-97-0
   7. http://pubchem.ncbi.nlm.nih.gov/vw3d/vw3d.cgi?cid=439230
