   Color/Form

     * Yellow needles or monoclinic prisms
     * Yellow or orange crystals

   from [1]HSDB

   Odor
        SLIGHT ODOR
   from [2]HSDB

   Boiling Point
        300 deg C
   from [3]HSDB

   Melting Point
        71 deg C
   from [4]HSDB

   Corrosivity
        Liquid dinitrotoluene will attack some forms of plastics, rubber,
   and coatings.
   from [5]HSDB

   Density/Specific Gravity
        1.3208 g/ml @ 71 deg C
   from [6]HSDB

   Heat of Combustion
        -4614 CAL/G
   from [7]HSDB

   Heat of Vaporization
        93 CAL/G
   from [8]HSDB

   Octanol/Water Partition Coefficient
        log Kow= 1.98
   from [9]HSDB

   Solubilities

     * Soluble in ethanol and ethyl ether; very soluble in acetone
     * Ethanol, at 15 deg C, 30.46 g/l; diethyl ether, at 22 deg C, 94
       g/l; carbon disulfide, at 17 deg C, 21.9 g/l.
     * In water, 2.70X10+2 mg/l @ 22 deg C

   from [10]HSDB

   Spectral Properties

     * MAX ABSORPTION (5% ALCOHOL): 252 NM (LOG E= 4.15); SADTLER REF
       NUMBER: 175, 258, 9596 (IR, PRISM)
     * Index of refraction: 1.442
     * IR: 8017 (Sadtler Research Laboratories IR Grating Collection)
     * UV: 2550 (Sadtler Research Laboratories Spectral Collection)
     * NMR: 3229 (Sadtler Research Laboratories Spectral Collection)
     * MASS: 144 (Aldermaston, Eight Peak Index of Mass Spectra, UK)

   from [11]HSDB

   Vapor Density
        6.27 (Air= 1)
   from [12]HSDB

   Vapor Pressure
        1.47X10-4 mm Hg @ 22 deg C
   from [13]HSDB

   Other Chemical/Physical Properties

     * Heat of fusion: 26.40 cal/g
     * YELLOW TO RED SOLID OR YELLOW LIQUID; PHYSICAL STATE @ 15 DEG C AND
       1 ATM: SOLID

   from [14]HSDB

   Computed Properties
   Molecular Weight                  182.13354 [g/mol]
   Molecular Formula                 C[7]H[6]N[2]O[4]
   XLogP3                            2
   H-Bond Donor                      0
   H-Bond Acceptor                   4
   Rotatable Bond Count              0
   Exact Mass                        182.032757
   MonoIsotopic Mass                 182.032757
   Topological Polar Surface Area    91.6
   Heavy Atom Count                  13
   Formal Charge                     0
   Complexity                        220
   Isotope Atom Count                0
   Defined Atom Stereocenter Count   0
   Undefined Atom Stereocenter Count 0
   Defined Bond Stereocenter Count   0
   Undefined Bond Stereocenter Count 0
   Covalently-Bonded Unit Count      1
   Feature 3D Acceptor Count         4
   Feature 3D Anion Count            2
   Feature 3D Ring Count             1
   Effective Rotor Count             2
   Conformer Sampling RMSD           0.6
   CID Conformer Count               [15]1

References

   1. http://toxnet.nlm.nih.gov/cgi-bin/sis/search/r?dbs+hsdb:@term+@rn+@rel+121-14-2
   2. http://toxnet.nlm.nih.gov/cgi-bin/sis/search/r?dbs+hsdb:@term+@rn+@rel+121-14-2
   3. http://toxnet.nlm.nih.gov/cgi-bin/sis/search/r?dbs+hsdb:@term+@rn+@rel+121-14-2
   4. http://toxnet.nlm.nih.gov/cgi-bin/sis/search/r?dbs+hsdb:@term+@rn+@rel+121-14-2
   5. http://toxnet.nlm.nih.gov/cgi-bin/sis/search/r?dbs+hsdb:@term+@rn+@rel+121-14-2
   6. http://toxnet.nlm.nih.gov/cgi-bin/sis/search/r?dbs+hsdb:@term+@rn+@rel+121-14-2
   7. http://toxnet.nlm.nih.gov/cgi-bin/sis/search/r?dbs+hsdb:@term+@rn+@rel+121-14-2
   8. http://toxnet.nlm.nih.gov/cgi-bin/sis/search/r?dbs+hsdb:@term+@rn+@rel+121-14-2
   9. http://toxnet.nlm.nih.gov/cgi-bin/sis/search/r?dbs+hsdb:@term+@rn+@rel+121-14-2
  10. http://toxnet.nlm.nih.gov/cgi-bin/sis/search/r?dbs+hsdb:@term+@rn+@rel+121-14-2
  11. http://toxnet.nlm.nih.gov/cgi-bin/sis/search/r?dbs+hsdb:@term+@rn+@rel+121-14-2
  12. http://toxnet.nlm.nih.gov/cgi-bin/sis/search/r?dbs+hsdb:@term+@rn+@rel+121-14-2
  13. http://toxnet.nlm.nih.gov/cgi-bin/sis/search/r?dbs+hsdb:@term+@rn+@rel+121-14-2
  14. http://toxnet.nlm.nih.gov/cgi-bin/sis/search/r?dbs+hsdb:@term+@rn+@rel+121-14-2
  15. http://pubchem.ncbi.nlm.nih.gov/vw3d/vw3d.cgi?cid=8461
