23724633
  -OEChem-07051213082D

 63 62  0     1  0  0  0  0  0999 V2000
    3.4030    2.7500    0.0000 P   0  0  0  0  0  0  0  0  0  0  0  0
    4.2690    3.2500    0.0000 O   0  0  0  0  0  0  0  0  0  0  0  0
    6.0010    4.2500    0.0000 O   0  0  0  0  0  0  0  0  0  0  0  0
    2.5369    2.2500    0.0000 O   0  0  0  0  0  0  0  0  0  0  0  0
    2.9030    3.6160    0.0000 O   0  0  0  0  0  0  0  0  0  0  0  0
    3.9030    1.8840    0.0000 O   0  0  0  0  0  0  0  0  0  0  0  0
    8.5991   -4.2500    0.0000 O   0  0  0  0  0  0  0  0  0  0  0  0
    9.4651   -2.7500    0.0000 O   0  0  0  0  0  0  0  0  0  0  0  0
    5.1350    2.7500    0.0000 C   0  0  2  0  0  0  0  0  0  0  0  0
    6.0010    3.2500    0.0000 C   0  0  2  0  0  0  0  0  0  0  0  0
    5.1350    1.7500    0.0000 C   0  0  0  0  0  0  0  0  0  0  0  0
    6.8671    2.7500    0.0000 C   0  0  0  0  0  0  0  0  0  0  0  0
    6.0010    1.2500    0.0000 C   0  0  0  0  0  0  0  0  0  0  0  0
    7.7331    3.2500    0.0000 C   0  0  0  0  0  0  0  0  0  0  0  0
    8.5991    2.7500    0.0000 C   0  0  0  0  0  0  0  0  0  0  0  0
    6.0010    0.2500    0.0000 C   0  0  0  0  0  0  0  0  0  0  0  0
    9.4651    3.2500    0.0000 C   0  0  0  0  0  0  0  0  0  0  0  0
    6.8671   -0.2500    0.0000 C   0  0  0  0  0  0  0  0  0  0  0  0
   10.3312    2.7500    0.0000 C   0  0  0  0  0  0  0  0  0  0  0  0
    6.8671   -1.2500    0.0000 C   0  0  0  0  0  0  0  0  0  0  0  0
   11.1972    3.2500    0.0000 C   0  0  0  0  0  0  0  0  0  0  0  0
    7.7331   -1.7500    0.0000 C   0  0  0  0  0  0  0  0  0  0  0  0
   12.0632    2.7500    0.0000 C   0  0  0  0  0  0  0  0  0  0  0  0
    7.7331   -2.7500    0.0000 C   0  0  0  0  0  0  0  0  0  0  0  0
   12.9292    3.2500    0.0000 C   0  0  0  0  0  0  0  0  0  0  0  0
    8.5991   -3.2500    0.0000 C   0  0  0  0  0  0  0  0  0  0  0  0
    5.1350    3.3700    0.0000 H   0  0  0  0  0  0  0  0  0  0  0  0
    6.5380    3.5600    0.0000 H   0  0  0  0  0  0  0  0  0  0  0  0
    4.5244    1.8577    0.0000 H   0  0  0  0  0  0  0  0  0  0  0  0
    4.9230    1.1674    0.0000 H   0  0  0  0  0  0  0  0  0  0  0  0
    6.4685    2.2750    0.0000 H   0  0  0  0  0  0  0  0  0  0  0  0
    7.2656    2.2750    0.0000 H   0  0  0  0  0  0  0  0  0  0  0  0
    6.6116    1.1423    0.0000 H   0  0  0  0  0  0  0  0  0  0  0  0
    6.2131    1.8326    0.0000 H   0  0  0  0  0  0  0  0  0  0  0  0
    8.1316    3.7250    0.0000 H   0  0  0  0  0  0  0  0  0  0  0  0
    7.3346    3.7250    0.0000 H   0  0  0  0  0  0  0  0  0  0  0  0
    8.2006    2.2750    0.0000 H   0  0  0  0  0  0  0  0  0  0  0  0
    8.9976    2.2750    0.0000 H   0  0  0  0  0  0  0  0  0  0  0  0
    5.3905    0.3577    0.0000 H   0  0  0  0  0  0  0  0  0  0  0  0
    5.7890   -0.3326    0.0000 H   0  0  0  0  0  0  0  0  0  0  0  0
    9.8637    3.7250    0.0000 H   0  0  0  0  0  0  0  0  0  0  0  0
    9.0666    3.7250    0.0000 H   0  0  0  0  0  0  0  0  0  0  0  0
    7.4776   -0.3577    0.0000 H   0  0  0  0  0  0  0  0  0  0  0  0
    7.0791    0.3326    0.0000 H   0  0  0  0  0  0  0  0  0  0  0  0
    9.9326    2.2750    0.0000 H   0  0  0  0  0  0  0  0  0  0  0  0
   10.7297    2.2750    0.0000 H   0  0  0  0  0  0  0  0  0  0  0  0
    6.2565   -1.1423    0.0000 H   0  0  0  0  0  0  0  0  0  0  0  0
    6.6550   -1.8326    0.0000 H   0  0  0  0  0  0  0  0  0  0  0  0
   11.5957    3.7250    0.0000 H   0  0  0  0  0  0  0  0  0  0  0  0
   10.7987    3.7250    0.0000 H   0  0  0  0  0  0  0  0  0  0  0  0
    6.5380    4.5600    0.0000 H   0  0  0  0  0  0  0  0  0  0  0  0
    8.3437   -1.8577    0.0000 H   0  0  0  0  0  0  0  0  0  0  0  0
    7.9451   -1.1674    0.0000 H   0  0  0  0  0  0  0  0  0  0  0  0
   11.6647    2.2750    0.0000 H   0  0  0  0  0  0  0  0  0  0  0  0
   12.4617    2.2750    0.0000 H   0  0  0  0  0  0  0  0  0  0  0  0
    7.1225   -2.6423    0.0000 H   0  0  0  0  0  0  0  0  0  0  0  0
    7.5210   -3.3326    0.0000 H   0  0  0  0  0  0  0  0  0  0  0  0
   13.2392    2.7131    0.0000 H   0  0  0  0  0  0  0  0  0  0  0  0
   13.4662    3.5600    0.0000 H   0  0  0  0  0  0  0  0  0  0  0  0
   12.6192    3.7869    0.0000 H   0  0  0  0  0  0  0  0  0  0  0  0
    2.0000    2.5600    0.0000 H   0  0  0  0  0  0  0  0  0  0  0  0
    3.2130    4.1530    0.0000 H   0  0  0  0  0  0  0  0  0  0  0  0
    9.1360   -4.5600    0.0000 H   0  0  0  0  0  0  0  0  0  0  0  0
  1  2  1  0  0  0  0
  1  4  1  0  0  0  0
  1  5  1  0  0  0  0
  1  6  2  0  0  0  0
  9  2  1  6  0  0  0
 10  3  1  1  0  0  0
  3 51  1  0  0  0  0
  4 61  1  0  0  0  0
  5 62  1  0  0  0  0
  7 26  1  0  0  0  0
  7 63  1  0  0  0  0
  8 26  2  0  0  0  0
  9 10  1  0  0  0  0
  9 11  1  0  0  0  0
  9 27  1  0  0  0  0
 10 12  1  0  0  0  0
 10 28  1  0  0  0  0
 11 13  1  0  0  0  0
 11 29  1  0  0  0  0
 11 30  1  0  0  0  0
 12 14  1  0  0  0  0
 12 31  1  0  0  0  0
 12 32  1  0  0  0  0
 13 16  1  0  0  0  0
 13 33  1  0  0  0  0
 13 34  1  0  0  0  0
 14 15  1  0  0  0  0
 14 35  1  0  0  0  0
 14 36  1  0  0  0  0
 15 17  1  0  0  0  0
 15 37  1  0  0  0  0
 15 38  1  0  0  0  0
 16 18  1  0  0  0  0
 16 39  1  0  0  0  0
 16 40  1  0  0  0  0
 17 19  1  0  0  0  0
 17 41  1  0  0  0  0
 17 42  1  0  0  0  0
 18 20  1  0  0  0  0
 18 43  1  0  0  0  0
 18 44  1  0  0  0  0
 19 21  1  0  0  0  0
 19 45  1  0  0  0  0
 19 46  1  0  0  0  0
 20 22  1  0  0  0  0
 20 47  1  0  0  0  0
 20 48  1  0  0  0  0
 21 23  1  0  0  0  0
 21 49  1  0  0  0  0
 21 50  1  0  0  0  0
 22 24  1  0  0  0  0
 22 52  1  0  0  0  0
 22 53  1  0  0  0  0
 23 25  1  0  0  0  0
 23 54  1  0  0  0  0
 23 55  1  0  0  0  0
 24 26  1  0  0  0  0
 24 56  1  0  0  0  0
 24 57  1  0  0  0  0
 25 58  1  0  0  0  0
 25 59  1  0  0  0  0
 25 60  1  0  0  0  0
M  END
> <PUBCHEM_COMPOUND_CID>
23724633

> <PUBCHEM_COMPOUND_CANONICALIZED>
1

> <PUBCHEM_CACTVS_COMPLEXITY>
397

> <PUBCHEM_CACTVS_HBOND_ACCEPTOR>
7

> <PUBCHEM_CACTVS_HBOND_DONOR>
4

> <PUBCHEM_CACTVS_ROTATABLE_BOND>
18

> <PUBCHEM_CACTVS_SUBSKEYS>
AAADcfB4OAIAAAAAAAAAAAAAAAAAAAAAAAAAAAAAAAAAAAAAAAAAGgAACCAACBSggAICCAAAAxAIQACQCIAAAAAAAAAAAAEAAAABEBIAAAAAQAAEAAABAAGIyKCAAAAAAAAAAAAAAAAAAAAAAAAAAAAAAA==

> <PUBCHEM_IUPAC_OPENEYE_NAME>
(9S,10S)-10-hydroxy-9-phosphonooxy-octadecanoic acid

> <PUBCHEM_IUPAC_CAS_NAME>
(9S,10S)-10-hydroxy-9-phosphonooxyoctadecanoic acid

> <PUBCHEM_IUPAC_NAME>
(9S,10S)-10-hydroxy-9-phosphonooxyoctadecanoic acid

> <PUBCHEM_IUPAC_SYSTEMATIC_NAME>
(9S,10S)-10-oxidanyl-9-phosphonooxy-octadecanoic acid

> <PUBCHEM_IUPAC_TRADITIONAL_NAME>
(9S,10S)-10-hydroxy-9-phosphonooxy-stearic acid

> <PUBCHEM_IUPAC_INCHI>
InChI=1S/C18H37O7P/c1-2-3-4-5-7-10-13-16(19)17(25-26(22,23)24)14-11-8-6-9-12-15-18(20)21/h16-17,19H,2-15H2,1H3,(H,20,21)(H2,22,23,24)/t16-,17-/m0/s1

> <PUBCHEM_IUPAC_INCHIKEY>
UELBXEKQONEDKM-IRXDYDNUSA-N

> <PUBCHEM_XLOGP3_AA>
4

> <PUBCHEM_EXACT_MASS>
396.22769

> <PUBCHEM_MOLECULAR_FORMULA>
C18H37O7P

> <PUBCHEM_MOLECULAR_WEIGHT>
396.455942

> <PUBCHEM_OPENEYE_CAN_SMILES>
CCCCCCCCC(C(CCCCCCCC(=O)O)OP(=O)(O)O)O

> <PUBCHEM_OPENEYE_ISO_SMILES>
CCCCCCCC[C@@H]([C@H](CCCCCCCC(=O)O)OP(=O)(O)O)O

> <PUBCHEM_CACTVS_TPSA>
124

> <PUBCHEM_MONOISOTOPIC_WEIGHT>
396.22769

> <PUBCHEM_TOTAL_CHARGE>
0

> <PUBCHEM_HEAVY_ATOM_COUNT>
26

> <PUBCHEM_ATOM_DEF_STEREO_COUNT>
2

> <PUBCHEM_ATOM_UDEF_STEREO_COUNT>
0

> <PUBCHEM_BOND_DEF_STEREO_COUNT>
0

> <PUBCHEM_BOND_UDEF_STEREO_COUNT>
0

> <PUBCHEM_ISOTOPIC_ATOM_COUNT>
0

> <PUBCHEM_COMPONENT_COUNT>
1

> <PUBCHEM_CACTVS_TAUTO_COUNT>
1

> <PUBCHEM_COORDINATE_TYPE>
1
5
255

> <PUBCHEM_BONDANNOTATIONS>
9  2  6
10  3  5

$$$$

