51090947
  -OEChem-06241223012D

 49 52  0     1  0  0  0  0  0999 V2000
    2.0000    3.0981    0.0000 Cl  0  0  0  0  0  0  0  0  0  0  0  0
    5.5443    1.2933    0.0000 O   0  0  0  0  0  0  0  0  0  0  0  0
    7.6279    2.9641    0.0000 O   0  0  0  0  0  0  0  0  0  0  0  0
    9.1279   -1.3660    0.0000 N   0  0  0  0  0  0  0  0  0  0  0  0
    7.6279    1.2320    0.0000 N   0  0  0  0  0  0  0  0  0  0  0  0
    8.6279   -0.5000    0.0000 C   0  0  0  0  0  0  0  0  0  0  0  0
    7.6279   -0.5000    0.0000 C   0  0  0  0  0  0  0  0  0  0  0  0
    9.1279    0.3660    0.0000 C   0  0  0  0  0  0  0  0  0  0  0  0
    7.1279    0.3660    0.0000 C   0  0  0  0  0  0  0  0  0  0  0  0
    8.6279    1.2320    0.0000 C   0  0  0  0  0  0  0  0  0  0  0  0
    8.6279   -2.2320    0.0000 C   0  0  0  0  0  0  0  0  0  0  0  0
   10.1279   -1.3660    0.0000 C   0  0  0  0  0  0  0  0  0  0  0  0
    9.1279   -3.0981    0.0000 C   0  0  0  0  0  0  0  0  0  0  0  0
   10.6279   -2.2320    0.0000 C   0  0  0  0  0  0  0  0  0  0  0  0
   10.1279   -3.0981    0.0000 C   0  0  0  0  0  0  0  0  0  0  0  0
    7.1279    2.0981    0.0000 C   0  0  0  0  0  0  0  0  0  0  0  0
    6.1279    2.0981    0.0000 C   0  0  3  0  0  0  0  0  0  0  0  0
    5.5443    2.9028    0.0000 C   0  0  0  0  0  0  0  0  0  0  0  0
    4.5981    2.5981    0.0000 C   0  0  0  0  0  0  0  0  0  0  0  0
    4.5981    1.5981    0.0000 C   0  0  0  0  0  0  0  0  0  0  0  0
    3.7320    3.0981    0.0000 C   0  0  0  0  0  0  0  0  0  0  0  0
    3.7320    1.0981    0.0000 C   0  0  0  0  0  0  0  0  0  0  0  0
    2.8660    2.5981    0.0000 C   0  0  0  0  0  0  0  0  0  0  0  0
    2.8660    1.5981    0.0000 C   0  0  0  0  0  0  0  0  0  0  0  0
    9.2479   -0.5000    0.0000 H   0  0  0  0  0  0  0  0  0  0  0  0
    9.6028   -0.0325    0.0000 H   0  0  0  0  0  0  0  0  0  0  0  0
    9.6028    0.7646    0.0000 H   0  0  0  0  0  0  0  0  0  0  0  0
    7.0453   -0.7121    0.0000 H   0  0  0  0  0  0  0  0  0  0  0  0
    7.7356   -1.1106    0.0000 H   0  0  0  0  0  0  0  0  0  0  0  0
    9.2105    1.4441    0.0000 H   0  0  0  0  0  0  0  0  0  0  0  0
    8.5202    1.8426    0.0000 H   0  0  0  0  0  0  0  0  0  0  0  0
    6.6530    0.7646    0.0000 H   0  0  0  0  0  0  0  0  0  0  0  0
    6.6530   -0.0325    0.0000 H   0  0  0  0  0  0  0  0  0  0  0  0
   10.7105   -1.1540    0.0000 H   0  0  0  0  0  0  0  0  0  0  0  0
   10.0202   -0.7554    0.0000 H   0  0  0  0  0  0  0  0  0  0  0  0
    8.1530   -1.8335    0.0000 H   0  0  0  0  0  0  0  0  0  0  0  0
    8.1530   -2.6306    0.0000 H   0  0  0  0  0  0  0  0  0  0  0  0
   11.1029   -2.6306    0.0000 H   0  0  0  0  0  0  0  0  0  0  0  0
   11.1029   -1.8335    0.0000 H   0  0  0  0  0  0  0  0  0  0  0  0
    8.5453   -3.3101    0.0000 H   0  0  0  0  0  0  0  0  0  0  0  0
    9.2356   -3.7087    0.0000 H   0  0  0  0  0  0  0  0  0  0  0  0
   10.0202   -3.7087    0.0000 H   0  0  0  0  0  0  0  0  0  0  0  0
   10.7105   -3.3101    0.0000 H   0  0  0  0  0  0  0  0  0  0  0  0
    6.4096    1.5458    0.0000 H   0  0  0  0  0  0  0  0  0  0  0  0
    6.0817    3.2120    0.0000 H   0  0  0  0  0  0  0  0  0  0  0  0
    5.2933    3.4697    0.0000 H   0  0  0  0  0  0  0  0  0  0  0  0
    3.7320    3.7181    0.0000 H   0  0  0  0  0  0  0  0  0  0  0  0
    3.7320    0.4781    0.0000 H   0  0  0  0  0  0  0  0  0  0  0  0
    2.3291    1.2881    0.0000 H   0  0  0  0  0  0  0  0  0  0  0  0
  1 23  1  0  0  0  0
  2 17  1  0  0  0  0
  2 20  1  0  0  0  0
  3 16  2  0  0  0  0
  4  6  1  0  0  0  0
  4 11  1  0  0  0  0
  4 12  1  0  0  0  0
  5  9  1  0  0  0  0
  5 10  1  0  0  0  0
  5 16  1  0  0  0  0
  6  7  1  0  0  0  0
  6  8  1  0  0  0  0
  6 25  1  0  0  0  0
  7  9  1  0  0  0  0
  7 28  1  0  0  0  0
  7 29  1  0  0  0  0
  8 10  1  0  0  0  0
  8 26  1  0  0  0  0
  8 27  1  0  0  0  0
  9 32  1  0  0  0  0
  9 33  1  0  0  0  0
 10 30  1  0  0  0  0
 10 31  1  0  0  0  0
 11 13  1  0  0  0  0
 11 36  1  0  0  0  0
 11 37  1  0  0  0  0
 12 14  1  0  0  0  0
 12 34  1  0  0  0  0
 12 35  1  0  0  0  0
 13 15  1  0  0  0  0
 13 40  1  0  0  0  0
 13 41  1  0  0  0  0
 14 15  1  0  0  0  0
 14 38  1  0  0  0  0
 14 39  1  0  0  0  0
 15 42  1  0  0  0  0
 15 43  1  0  0  0  0
 16 17  1  0  0  0  0
 17 18  1  0  0  0  0
 17 44  1  0  0  0  0
 18 19  1  0  0  0  0
 18 45  1  0  0  0  0
 18 46  1  0  0  0  0
 19 20  2  0  0  0  0
 19 21  1  0  0  0  0
 20 22  1  0  0  0  0
 21 23  2  0  0  0  0
 21 47  1  0  0  0  0
 22 24  2  0  0  0  0
 22 48  1  0  0  0  0
 23 24  1  0  0  0  0
 24 49  1  0  0  0  0
M  END
> <PUBCHEM_COMPOUND_CID>
51090947

> <PUBCHEM_COMPOUND_CANONICALIZED>
1

> <PUBCHEM_CACTVS_COMPLEXITY>
447

> <PUBCHEM_CACTVS_HBOND_ACCEPTOR>
3

> <PUBCHEM_CACTVS_HBOND_DONOR>
0

> <PUBCHEM_CACTVS_ROTATABLE_BOND>
2

> <PUBCHEM_CACTVS_SUBSKEYS>
AAADceB7MAAEAAAAAAAAAAAAAAAAASAAAAA8WIAAAAAAAEgBAAAAHgIAAAAADD7hmCYwBoMABACIAiFSEAICCAAgJQAIiAFOCogOJjKF8x6HOCCkxhGYqAeY3KLOACAAIAAIAAAAQABAABAAAAAAAAAAAA==

> <PUBCHEM_IUPAC_OPENEYE_NAME>
(5-chloro-2,3-dihydrobenzofuran-2-yl)-[4-(1-piperidyl)-1-piperidyl]methanone

> <PUBCHEM_IUPAC_CAS_NAME>
(5-chloro-2,3-dihydrobenzofuran-2-yl)-[4-(1-piperidinyl)-1-piperidinyl]methanone

> <PUBCHEM_IUPAC_NAME>
(5-chloro-2,3-dihydro-1-benzofuran-2-yl)-(4-piperidin-1-ylpiperidin-1-yl)methanone

> <PUBCHEM_IUPAC_SYSTEMATIC_NAME>
(5-chloranyl-2,3-dihydro-1-benzofuran-2-yl)-(4-piperidin-1-ylpiperidin-1-yl)methanone

> <PUBCHEM_IUPAC_TRADITIONAL_NAME>
(5-chlorocoumaran-2-yl)-(4-piperidinopiperidino)methanone

> <PUBCHEM_IUPAC_INCHI>
InChI=1S/C19H25ClN2O2/c20-15-4-5-17-14(12-15)13-18(24-17)19(23)22-10-6-16(7-11-22)21-8-2-1-3-9-21/h4-5,12,16,18H,1-3,6-11,13H2

> <PUBCHEM_IUPAC_INCHIKEY>
WBMRZAZSBRYDFL-UHFFFAOYSA-N

> <PUBCHEM_XLOGP3>
3.5

> <PUBCHEM_EXACT_MASS>
348.160456

> <PUBCHEM_MOLECULAR_FORMULA>
C19H25ClN2O2

> <PUBCHEM_MOLECULAR_WEIGHT>
348.867

> <PUBCHEM_OPENEYE_CAN_SMILES>
C1CCN(CC1)C2CCN(CC2)C(=O)C3CC4=C(O3)C=CC(=C4)Cl

> <PUBCHEM_OPENEYE_ISO_SMILES>
C1CCN(CC1)C2CCN(CC2)C(=O)C3CC4=C(O3)C=CC(=C4)Cl

> <PUBCHEM_CACTVS_TPSA>
32.8

> <PUBCHEM_MONOISOTOPIC_WEIGHT>
348.160456

> <PUBCHEM_TOTAL_CHARGE>
0

> <PUBCHEM_HEAVY_ATOM_COUNT>
24

> <PUBCHEM_ATOM_DEF_STEREO_COUNT>
0

> <PUBCHEM_ATOM_UDEF_STEREO_COUNT>
1

> <PUBCHEM_BOND_DEF_STEREO_COUNT>
0

> <PUBCHEM_BOND_UDEF_STEREO_COUNT>
0

> <PUBCHEM_ISOTOPIC_ATOM_COUNT>
0

> <PUBCHEM_COMPONENT_COUNT>
1

> <PUBCHEM_CACTVS_TAUTO_COUNT>
1

> <PUBCHEM_COORDINATE_TYPE>
1
5
255

> <PUBCHEM_BONDANNOTATIONS>
17  16  3
19  20  8
19  21  8
20  22  8
21  23  8
22  24  8
23  24  8

$$$$

