442866
  -OEChem-07051213002D

 37 37  0     1  0  0  0  0  0999 V2000
    6.3671    1.9145    0.0000 O   0  0  0  0  0  0  0  0  0  0  0  0
    6.8671   -1.9515    0.0000 O   0  0  0  0  0  0  0  0  0  0  0  0
    8.3671    1.9145    0.0000 O   0  0  0  0  0  0  0  0  0  0  0  0
    8.5991   -0.9515    0.0000 O   0  0  0  0  0  0  0  0  0  0  0  0
    2.5369   -0.4515    0.0000 O   0  0  0  0  0  0  0  0  0  0  0  0
    3.4030    1.0485    0.0000 O   0  0  0  0  0  0  0  0  0  0  0  0
    5.1350   -0.9515    0.0000 N   0  0  0  0  0  0  0  0  0  0  0  0
    6.8671    1.0485    0.0000 C   0  0  1  0  0  0  0  0  0  0  0  0
    6.0010    0.5485    0.0000 C   0  0  0  0  0  0  0  0  0  0  0  0
    7.7331    0.5485    0.0000 C   0  0  0  0  0  0  0  0  0  0  0  0
    6.0010   -0.4515    0.0000 C   0  0  0  0  0  0  0  0  0  0  0  0
    7.3671    1.9145    0.0000 C   0  0  0  0  0  0  0  0  0  0  0  0
    6.8671   -0.9515    0.0000 C   0  0  0  0  0  0  0  0  0  0  0  0
    7.7331   -0.4515    0.0000 C   0  0  0  0  0  0  0  0  0  0  0  0
    4.2690   -0.4515    0.0000 C   0  0  0  0  0  0  0  0  0  0  0  0
    3.4030   -0.9515    0.0000 C   0  0  0  0  0  0  0  0  0  0  0  0
    4.2690    0.5485    0.0000 C   0  0  0  0  0  0  0  0  0  0  0  0
    7.7331   -2.4515    0.0000 C   0  0  0  0  0  0  0  0  0  0  0  0
    5.7890    1.1311    0.0000 H   0  0  0  0  0  0  0  0  0  0  0  0
    5.3905    0.4409    0.0000 H   0  0  0  0  0  0  0  0  0  0  0  0
    8.3437    0.4409    0.0000 H   0  0  0  0  0  0  0  0  0  0  0  0
    7.9451    1.1311    0.0000 H   0  0  0  0  0  0  0  0  0  0  0  0
    7.4747    2.5251    0.0000 H   0  0  0  0  0  0  0  0  0  0  0  0
    6.7844    2.1266    0.0000 H   0  0  0  0  0  0  0  0  0  0  0  0
    5.1350   -1.5715    0.0000 H   0  0  0  0  0  0  0  0  0  0  0  0
    4.2690   -1.0715    0.0000 H   0  0  0  0  0  0  0  0  0  0  0  0
    5.7471    1.9145    0.0000 H   0  0  0  0  0  0  0  0  0  0  0  0
    3.0044   -1.4264    0.0000 H   0  0  0  0  0  0  0  0  0  0  0  0
    3.8015   -1.4264    0.0000 H   0  0  0  0  0  0  0  0  0  0  0  0
    4.8796    0.4409    0.0000 H   0  0  0  0  0  0  0  0  0  0  0  0
    4.4810    1.1311    0.0000 H   0  0  0  0  0  0  0  0  0  0  0  0
    8.6771    2.4515    0.0000 H   0  0  0  0  0  0  0  0  0  0  0  0
    7.4231   -2.9884    0.0000 H   0  0  0  0  0  0  0  0  0  0  0  0
    8.2700   -2.7615    0.0000 H   0  0  0  0  0  0  0  0  0  0  0  0
    8.0431   -1.9145    0.0000 H   0  0  0  0  0  0  0  0  0  0  0  0
    2.0000   -0.7615    0.0000 H   0  0  0  0  0  0  0  0  0  0  0  0
    3.4030    1.6685    0.0000 H   0  0  0  0  0  0  0  0  0  0  0  0
  8  1  1  6  0  0  0
  1 27  1  0  0  0  0
  2 13  1  0  0  0  0
  2 18  1  0  0  0  0
  3 12  1  0  0  0  0
  3 32  1  0  0  0  0
  4 14  2  0  0  0  0
  5 16  1  0  0  0  0
  5 36  1  0  0  0  0
  6 17  1  0  0  0  0
  6 37  1  0  0  0  0
  7 11  1  0  0  0  0
  7 15  1  0  0  0  0
  7 25  1  0  0  0  0
  8  9  1  0  0  0  0
  8 10  1  0  0  0  0
  8 12  1  0  0  0  0
  9 11  1  0  0  0  0
  9 19  1  0  0  0  0
  9 20  1  0  0  0  0
 10 14  1  0  0  0  0
 10 21  1  0  0  0  0
 10 22  1  0  0  0  0
 11 13  2  0  0  0  0
 12 23  1  0  0  0  0
 12 24  1  0  0  0  0
 13 14  1  0  0  0  0
 15 16  1  0  0  0  0
 15 17  1  0  0  0  0
 15 26  1  0  0  0  0
 16 28  1  0  0  0  0
 16 29  1  0  0  0  0
 17 30  1  0  0  0  0
 17 31  1  0  0  0  0
 18 33  1  0  0  0  0
 18 34  1  0  0  0  0
 18 35  1  0  0  0  0
M  END
> <PUBCHEM_COMPOUND_CID>
442866

> <PUBCHEM_COMPOUND_CANONICALIZED>
1

> <PUBCHEM_CACTVS_COMPLEXITY>
338

> <PUBCHEM_CACTVS_HBOND_ACCEPTOR>
7

> <PUBCHEM_CACTVS_HBOND_DONOR>
5

> <PUBCHEM_CACTVS_ROTATABLE_BOND>
6

> <PUBCHEM_CACTVS_SUBSKEYS>
AAADceByOAAAAAAAAAAAAAAAAAAAAAAAAAAgAAAAAAAAAAAAAAAAHgAQCAAADGzhgAYCAALABgCIAIRQQAIACAAgIAAACIFIAEgDEBYAgAQEQAAH8ACZAUP6YQgOAAAAAAAAAAAAAAAAAAAAAAAAAAAAAA==

> <PUBCHEM_IUPAC_OPENEYE_NAME>
(5S)-5-hydroxy-3-[[2-hydroxy-1-(hydroxymethyl)ethyl]amino]-5-(hydroxymethyl)-2-methoxy-cyclohex-2-en-1-one

> <PUBCHEM_IUPAC_CAS_NAME>
(5S)-3-(1,3-dihydroxypropan-2-ylamino)-5-hydroxy-5-(hydroxymethyl)-2-methoxy-1-cyclohex-2-enone

> <PUBCHEM_IUPAC_NAME>
(5S)-3-(1,3-dihydroxypropan-2-ylamino)-5-hydroxy-5-(hydroxymethyl)-2-methoxycyclohex-2-en-1-one

> <PUBCHEM_IUPAC_SYSTEMATIC_NAME>
(5S)-3-[1,3-bis(oxidanyl)propan-2-ylamino]-5-(hydroxymethyl)-2-methoxy-5-oxidanyl-cyclohex-2-en-1-one

> <PUBCHEM_IUPAC_TRADITIONAL_NAME>
(5S)-5-hydroxy-3-[(2-hydroxy-1-methylol-ethyl)amino]-2-methoxy-5-methylol-cyclohex-2-en-1-one

> <PUBCHEM_IUPAC_INCHI>
InChI=1S/C11H19NO6/c1-18-10-8(12-7(4-13)5-14)2-11(17,6-15)3-9(10)16/h7,12-15,17H,2-6H2,1H3/t11-/m0/s1

> <PUBCHEM_IUPAC_INCHIKEY>
VVTDHOIRNPCGTH-NSHDSACASA-N

> <PUBCHEM_XLOGP3_AA>
-2.4

> <PUBCHEM_EXACT_MASS>
261.121237

> <PUBCHEM_MOLECULAR_FORMULA>
C11H19NO6

> <PUBCHEM_MOLECULAR_WEIGHT>
261.27166

> <PUBCHEM_OPENEYE_CAN_SMILES>
COC1=C(CC(CC1=O)(CO)O)NC(CO)CO

> <PUBCHEM_OPENEYE_ISO_SMILES>
COC1=C(C[C@](CC1=O)(CO)O)NC(CO)CO

> <PUBCHEM_CACTVS_TPSA>
119

> <PUBCHEM_MONOISOTOPIC_WEIGHT>
261.121237

> <PUBCHEM_TOTAL_CHARGE>
0

> <PUBCHEM_HEAVY_ATOM_COUNT>
18

> <PUBCHEM_ATOM_DEF_STEREO_COUNT>
1

> <PUBCHEM_ATOM_UDEF_STEREO_COUNT>
0

> <PUBCHEM_BOND_DEF_STEREO_COUNT>
0

> <PUBCHEM_BOND_UDEF_STEREO_COUNT>
0

> <PUBCHEM_ISOTOPIC_ATOM_COUNT>
0

> <PUBCHEM_COMPONENT_COUNT>
1

> <PUBCHEM_CACTVS_TAUTO_COUNT>
8

> <PUBCHEM_COORDINATE_TYPE>
1
5
255

> <PUBCHEM_BONDANNOTATIONS>
8  1  6

$$$$

