   Color/Form
        Crystals from water, pH = 8.5
   from [1]HSDB

   Dissociation Constants
        pKa1 = 5.27 (imine); pKa2 = 11.24 (alcohol) (est)
   from [2]HSDB

   Octanol/Water Partition Coefficient
        log Kow = -2.01 (est)
   from [3]HSDB

   Solubilities
        In water, 5.13X10+4 mg/L at 25 deg C (est)
   from [4]HSDB

   Spectral Properties

     * Specific optical rotation: +425.36 deg at 365 deg C; + 71.51 deg at
       25 deg C/D (c = 0.96 in methanol)
     * UV Max (ethanol): 234, 268 (epsilon 7810, 8560

   from [5]HSDB

   Vapor Pressure
        1.7X10-9 mm Hg at 25 deg C (est)
   from [6]HSDB

   Other Chemical/Physical Properties

     * Crystals from water-acetone, mp 287-292 deg C (dec). Specific
       optical rotation = +48 deg at 25 deg C/D; +257.9 deg at 365 deg C
       (c = 1.0 in deuterated water). UV max (water): 232, 268 nm (epsilon
       7960, 9360). /Hydrochloride/
     * White to off-white solid. MW: 299.66. Soluble in water, slightly
       soluble in methanol, and practically insoluble in ethanol and polar
       solvents. /Hydrochloride/
     * Henry's Law constant = 1.7X10-17 atm-cu m/mol at 25 deg C (est)
     * Hydroxyl radical reaction rate constant = 4.0X10-13 cu cm/molec-sec
       at 25 deg C (est)
     * Ozone reaction rate constant = 1.7X10-16 cu cm/molec-sec at 25 deg
       C (est)

   from [7]HSDB

   Computed Properties
   Molecular Weight                  263.198146 [g/mol]
   Molecular Formula                 C[9]H[11]F[2]N[3]O[4]
   XLogP3                            -1.5
   H-Bond Donor                      3
   H-Bond Acceptor                   6
   Rotatable Bond Count              2
   Tautomer Count                    3
   Exact Mass                        263.071762
   MonoIsotopic Mass                 263.071762
   Topological Polar Surface Area    108
   Heavy Atom Count                  18
   Formal Charge                     0
   Complexity                        426
   Isotope Atom Count                0
   Defined Atom Stereocenter Count   3
   Undefined Atom Stereocenter Count 0
   Defined Bond Stereocenter Count   0
   Undefined Bond Stereocenter Count 0
   Covalently-Bonded Unit Count      1
   Feature 3D Acceptor Count         4
   Feature 3D Donor Count            4
   Feature 3D Ring Count             2
   Effective Rotor Count             3
   Conformer Sampling RMSD           0.6
   CID Conformer Count               [8]12

References

   1. http://toxnet.nlm.nih.gov/cgi-bin/sis/search/r?dbs+hsdb:@term+@rn+@rel+95058-81-4
   2. http://toxnet.nlm.nih.gov/cgi-bin/sis/search/r?dbs+hsdb:@term+@rn+@rel+95058-81-4
   3. http://toxnet.nlm.nih.gov/cgi-bin/sis/search/r?dbs+hsdb:@term+@rn+@rel+95058-81-4
   4. http://toxnet.nlm.nih.gov/cgi-bin/sis/search/r?dbs+hsdb:@term+@rn+@rel+95058-81-4
   5. http://toxnet.nlm.nih.gov/cgi-bin/sis/search/r?dbs+hsdb:@term+@rn+@rel+95058-81-4
   6. http://toxnet.nlm.nih.gov/cgi-bin/sis/search/r?dbs+hsdb:@term+@rn+@rel+95058-81-4
   7. http://toxnet.nlm.nih.gov/cgi-bin/sis/search/r?dbs+hsdb:@term+@rn+@rel+95058-81-4
   8. http://pubchem.ncbi.nlm.nih.gov/vw3d/vw3d.cgi?cid=60750
