5489042
  -OEChem-07051213112D

 74 79  0     1  0  0  0  0  0999 V2000
    8.1006   -4.5630    0.0000 O   0  0  0  0  0  0  0  0  0  0  0  0
   13.1449   -0.9700    0.0000 O   0  0  0  0  0  0  0  0  0  0  0  0
   12.1022   -2.3530    0.0000 O   0  0  0  0  0  0  0  0  0  0  0  0
    8.1923   -0.0868    0.0000 N   0  0  0  0  0  0  0  0  0  0  0  0
    6.7126   -1.4362    0.0000 N   0  0  0  0  0  0  0  0  0  0  0  0
    6.6795    1.2628    0.0000 N   0  0  0  0  0  0  0  0  0  0  0  0
    5.2310   -0.0868    0.0000 N   0  0  0  0  0  0  0  0  0  0  0  0
    9.7067   -0.5470    0.0000 C   0  0  1  0  0  0  0  0  0  0  0  0
    9.7067    0.4395    0.0000 C   0  0  1  0  0  0  0  0  0  0  0  0
    8.7846   -0.8110    0.0000 C   0  0  0  0  0  0  0  0  0  0  0  0
   10.5052   -1.1490    0.0000 C   0  0  0  0  0  0  0  0  0  0  0  0
    8.7516    0.7034    0.0000 C   0  0  0  0  0  0  0  0  0  0  0  0
    8.4894   -1.7647    0.0000 C   0  0  0  0  0  0  0  0  0  0  0  0
   10.5025    1.0451    0.0000 C   0  0  0  0  0  0  0  0  0  0  0  0
    9.0390   -2.6116    0.0000 C   0  0  0  0  0  0  0  0  0  0  0  0
    7.5028   -2.0286    0.0000 C   0  0  0  0  0  0  0  0  0  0  0  0
    7.2058   -2.9821    0.0000 C   0  0  0  0  0  0  0  0  0  0  0  0
   11.4258   -0.7585    0.0000 C   0  0  0  0  0  0  0  0  0  0  0  0
    8.0299   -3.5656    0.0000 C   0  0  0  0  0  0  0  0  0  0  0  0
    8.4563    1.6242    0.0000 C   0  0  0  0  0  0  0  0  0  0  0  0
    6.2191   -2.9821    0.0000 C   0  0  0  0  0  0  0  0  0  0  0  0
    5.9222   -2.0616    0.0000 C   0  0  0  0  0  0  0  0  0  0  0  0
    7.5028    1.9211    0.0000 C   0  0  0  0  0  0  0  0  0  0  0  0
    7.1728    2.8416    0.0000 C   0  0  0  0  0  0  0  0  0  0  0  0
   12.2243   -1.3605    0.0000 C   0  0  0  0  0  0  0  0  0  0  0  0
    4.9686   -1.7647    0.0000 C   0  0  0  0  0  0  0  0  0  0  0  0
    5.8892    1.8881    0.0000 C   0  0  0  0  0  0  0  0  0  0  0  0
    5.6304   -3.7905    0.0000 C   0  0  0  0  0  0  0  0  0  0  0  0
    4.6717   -0.8440    0.0000 C   0  0  0  0  0  0  0  0  0  0  0  0
    6.1862    2.8416    0.0000 C   0  0  0  0  0  0  0  0  0  0  0  0
    3.7182   -0.5800    0.0000 C   0  0  0  0  0  0  0  0  0  0  0  0
    4.6717    0.6705    0.0000 C   0  0  0  0  0  0  0  0  0  0  0  0
    3.7182    0.4066    0.0000 C   0  0  0  0  0  0  0  0  0  0  0  0
    4.9356    1.6242    0.0000 C   0  0  0  0  0  0  0  0  0  0  0  0
    7.7483    3.6594    0.0000 C   0  0  0  0  0  0  0  0  0  0  0  0
    2.9223   -1.1855    0.0000 C   0  0  0  0  0  0  0  0  0  0  0  0
    2.9223    1.0121    0.0000 C   0  0  0  0  0  0  0  0  0  0  0  0
    5.5935    3.6470    0.0000 C   0  0  0  0  0  0  0  0  0  0  0  0
    2.0000   -0.7990    0.0000 C   0  0  0  0  0  0  0  0  0  0  0  0
    5.9946    4.5630    0.0000 C   0  0  0  0  0  0  0  0  0  0  0  0
   10.2616   -0.2704    0.0000 H   0  0  0  0  0  0  0  0  0  0  0  0
    9.5894    1.0483    0.0000 H   0  0  0  0  0  0  0  0  0  0  0  0
   10.0517   -1.5717    0.0000 H   0  0  0  0  0  0  0  0  0  0  0  0
   10.8428   -1.6691    0.0000 H   0  0  0  0  0  0  0  0  0  0  0  0
   10.8780    0.5517    0.0000 H   0  0  0  0  0  0  0  0  0  0  0  0
   10.9959    1.4206    0.0000 H   0  0  0  0  0  0  0  0  0  0  0  0
   10.1270    1.5385    0.0000 H   0  0  0  0  0  0  0  0  0  0  0  0
    9.4368   -3.0872    0.0000 H   0  0  0  0  0  0  0  0  0  0  0  0
    9.5377   -2.2433    0.0000 H   0  0  0  0  0  0  0  0  0  0  0  0
   11.8794   -0.3358    0.0000 H   0  0  0  0  0  0  0  0  0  0  0  0
   11.0883   -0.2384    0.0000 H   0  0  0  0  0  0  0  0  0  0  0  0
    8.8928    2.0644    0.0000 H   0  0  0  0  0  0  0  0  0  0  0  0
    4.5324   -2.2053    0.0000 H   0  0  0  0  0  0  0  0  0  0  0  0
    6.6811    0.6428    0.0000 H   0  0  0  0  0  0  0  0  0  0  0  0
    5.1292   -3.4255    0.0000 H   0  0  0  0  0  0  0  0  0  0  0  0
    5.2654   -4.2917    0.0000 H   0  0  0  0  0  0  0  0  0  0  0  0
    6.1316   -4.1555    0.0000 H   0  0  0  0  0  0  0  0  0  0  0  0
    4.4972    2.0625    0.0000 H   0  0  0  0  0  0  0  0  0  0  0  0
    5.8470   -0.1564    0.0000 H   0  0  0  0  0  0  0  0  0  0  0  0
    8.2553    3.3026    0.0000 H   0  0  0  0  0  0  0  0  0  0  0  0
    8.1051    4.1665    0.0000 H   0  0  0  0  0  0  0  0  0  0  0  0
    7.2412    4.0162    0.0000 H   0  0  0  0  0  0  0  0  0  0  0  0
    2.5870   -1.7070    0.0000 H   0  0  0  0  0  0  0  0  0  0  0  0
    3.3777   -1.6062    0.0000 H   0  0  0  0  0  0  0  0  0  0  0  0
    3.2978    1.5055    0.0000 H   0  0  0  0  0  0  0  0  0  0  0  0
    2.4289    1.3875    0.0000 H   0  0  0  0  0  0  0  0  0  0  0  0
    2.5469    0.5187    0.0000 H   0  0  0  0  0  0  0  0  0  0  0  0
    4.9773    3.5785    0.0000 H   0  0  0  0  0  0  0  0  0  0  0  0
   13.6400   -1.3432    0.0000 H   0  0  0  0  0  0  0  0  0  0  0  0
    2.2396   -0.2271    0.0000 H   0  0  0  0  0  0  0  0  0  0  0  0
    1.4282   -0.5593    0.0000 H   0  0  0  0  0  0  0  0  0  0  0  0
    1.7604   -1.3708    0.0000 H   0  0  0  0  0  0  0  0  0  0  0  0
    6.6108    4.6316    0.0000 H   0  0  0  0  0  0  0  0  0  0  0  0
    5.6271    5.0624    0.0000 H   0  0  0  0  0  0  0  0  0  0  0  0
  1 19  2  0  0  0  0
  2 25  1  0  0  0  0
  2 69  1  0  0  0  0
  3 25  2  0  0  0  0
  4 10  2  0  0  0  0
  4 12  1  0  0  0  0
  5 16  1  0  0  0  0
  5 22  2  0  0  0  0
  6 23  1  0  0  0  0
  6 27  1  0  0  0  0
  6 54  1  0  0  0  0
  7 29  1  0  0  0  0
  7 32  1  0  0  0  0
  7 59  1  0  0  0  0
  8  9  1  0  0  0  0
  8 10  1  0  0  0  0
  8 11  1  6  0  0  0
  8 41  1  0  0  0  0
  9 12  1  0  0  0  0
  9 14  1  1  0  0  0
  9 42  1  0  0  0  0
 10 13  1  0  0  0  0
 11 18  1  0  0  0  0
 11 43  1  0  0  0  0
 11 44  1  0  0  0  0
 12 20  2  0  0  0  0
 13 15  1  0  0  0  0
 13 16  2  0  0  0  0
 14 45  1  0  0  0  0
 14 46  1  0  0  0  0
 14 47  1  0  0  0  0
 15 19  1  0  0  0  0
 15 48  1  0  0  0  0
 15 49  1  0  0  0  0
 16 17  1  0  0  0  0
 17 19  1  0  0  0  0
 17 21  2  0  0  0  0
 18 25  1  0  0  0  0
 18 50  1  0  0  0  0
 18 51  1  0  0  0  0
 20 23  1  0  0  0  0
 20 52  1  0  0  0  0
 21 22  1  0  0  0  0
 21 28  1  0  0  0  0
 22 26  1  0  0  0  0
 23 24  2  0  0  0  0
 24 30  1  0  0  0  0
 24 35  1  0  0  0  0
 26 29  2  0  0  0  0
 26 53  1  0  0  0  0
 27 30  2  0  0  0  0
 27 34  1  0  0  0  0
 28 55  1  0  0  0  0
 28 56  1  0  0  0  0
 28 57  1  0  0  0  0
 29 31  1  0  0  0  0
 30 38  1  0  0  0  0
 31 33  2  0  0  0  0
 31 36  1  0  0  0  0
 32 33  1  0  0  0  0
 32 34  2  0  0  0  0
 33 37  1  0  0  0  0
 34 58  1  0  0  0  0
 35 60  1  0  0  0  0
 35 61  1  0  0  0  0
 35 62  1  0  0  0  0
 36 39  1  0  0  0  0
 36 63  1  0  0  0  0
 36 64  1  0  0  0  0
 37 65  1  0  0  0  0
 37 66  1  0  0  0  0
 37 67  1  0  0  0  0
 38 40  2  0  0  0  0
 38 68  1  0  0  0  0
 39 70  1  0  0  0  0
 39 71  1  0  0  0  0
 39 72  1  0  0  0  0
 40 73  1  0  0  0  0
 40 74  1  0  0  0  0
M  END
> <PUBCHEM_COMPOUND_CID>
5489042

> <PUBCHEM_COMPOUND_CANONICALIZED>
1

> <PUBCHEM_CACTVS_COMPLEXITY>
989

> <PUBCHEM_CACTVS_HBOND_ACCEPTOR>
5

> <PUBCHEM_CACTVS_HBOND_DONOR>
3

> <PUBCHEM_CACTVS_ROTATABLE_BOND>
5

> <PUBCHEM_CACTVS_SUBSKEYS>
AAADcfB/sAAAAAAAAAAAAAAAAAAAAeLFixAAAAAAAAAAAAAB/gAAHgAQCAAADQyBngAyyLLJkgCoA6TyTACCgCAlAiAImSEwZNgIIHrA1dGEZYhkkADIyUec2fOegAAAAAAAAAAAAAAAAAAAAQAAAQAAAA==

> <PUBCHEM_IUPAC_INCHI>
InChI=1S/C33H34N4O3/c1-7-19-15(3)23-12-25-17(5)21(9-10-30(39)40)32(36-25)22-11-29(38)31-18(6)26(37-33(22)31)14-28-20(8-2)16(4)24(35-28)13-27(19)34-23/h7,12-14,17,21,34-35H,1,8-11H2,2-6H3,(H,39,40)/t17-,21-/m0/s1

> <PUBCHEM_IUPAC_INCHIKEY>
RZECWDZMTHMQDD-UWJYYQICSA-N

> <PUBCHEM_XLOGP3_AA>
5.1

> <PUBCHEM_EXACT_MASS>
534.263091

> <PUBCHEM_MOLECULAR_FORMULA>
C33H34N4O3

> <PUBCHEM_MOLECULAR_WEIGHT>
534.64806

> <PUBCHEM_OPENEYE_CAN_SMILES>
CCC1=C2C=C3C(=C4C(=O)CC(=C5C(C(C(=N5)C=C6C(=C(C(=CC(=C1C)N2)N6)C=C)C)C)CCC(=O)O)C4=N3)C

> <PUBCHEM_OPENEYE_ISO_SMILES>
CCC1=C2C=C3C(=C4C(=O)CC(=C5[C@H]([C@@H](C(=N5)C=C6C(=C(C(=CC(=C1C)N2)N6)C=C)C)C)CCC(=O)O)C4=N3)C

> <PUBCHEM_CACTVS_TPSA>
112

> <PUBCHEM_MONOISOTOPIC_WEIGHT>
534.263091

> <PUBCHEM_TOTAL_CHARGE>
0

> <PUBCHEM_HEAVY_ATOM_COUNT>
40

> <PUBCHEM_ATOM_DEF_STEREO_COUNT>
2

> <PUBCHEM_ATOM_UDEF_STEREO_COUNT>
0

> <PUBCHEM_BOND_DEF_STEREO_COUNT>
0

> <PUBCHEM_BOND_UDEF_STEREO_COUNT>
0

> <PUBCHEM_ISOTOPIC_ATOM_COUNT>
0

> <PUBCHEM_COMPONENT_COUNT>
1

> <PUBCHEM_CACTVS_TAUTO_COUNT>
1001

> <PUBCHEM_COORDINATE_TYPE>
1
5
255

> <PUBCHEM_BONDANNOTATIONS>
10  13  8
12  20  8
13  16  8
20  23  8
22  26  8
23  24  8
24  30  8
26  29  8
27  30  8
27  34  8
29  31  8
31  33  8
32  33  8
32  34  8
4  10  8
4  12  8
5  16  8
5  22  8
6  23  8
6  27  8
7  29  8
7  32  8
8  11  6
9  14  5

$$$$

