8799
  -OEChem-07051213132D

 32 31  0     0  0  0  0  0  0999 V2000
    6.5380    0.0000    0.0000 Cl  0  0  0  0  0  0  0  0  0  0  0  0
    0.0000    2.4515    0.0000 Cl  0  0  0  0  0  0  0  0  0  0  0  0
    0.3660    3.8175    0.0000 Cl  0  0  0  0  0  0  0  0  0  0  0  0
    1.3660    2.0855    0.0000 Cl  0  0  0  0  0  0  0  0  0  0  0  0
    8.2700    4.0000    0.0000 O   0  0  0  0  0  0  0  0  0  0  0  0
    2.5981    2.9515    0.0000 O   0  0  0  0  0  0  0  0  0  0  0  0
    1.7320    4.4515    0.0000 O   0  0  0  0  0  0  0  0  0  0  0  0
    7.4040    5.5000    0.0000 N   0  0  0  0  0  0  0  0  0  0  0  0
    6.5380    4.0000    0.0000 N   0  0  0  0  0  0  0  0  0  0  0  0
    6.5380    3.0000    0.0000 C   0  0  0  0  0  0  0  0  0  0  0  0
    7.4040    4.5000    0.0000 C   0  0  0  0  0  0  0  0  0  0  0  0
    5.6720    2.5000    0.0000 C   0  0  0  0  0  0  0  0  0  0  0  0
    7.4040    2.5000    0.0000 C   0  0  0  0  0  0  0  0  0  0  0  0
    8.2700    6.0000    0.0000 C   0  0  0  0  0  0  0  0  0  0  0  0
    6.5380    6.0000    0.0000 C   0  0  0  0  0  0  0  0  0  0  0  0
    5.6720    1.5000    0.0000 C   0  0  0  0  0  0  0  0  0  0  0  0
    7.4040    1.5000    0.0000 C   0  0  0  0  0  0  0  0  0  0  0  0
    6.5380    1.0000    0.0000 C   0  0  0  0  0  0  0  0  0  0  0  0
    0.8660    2.9515    0.0000 C   0  0  0  0  0  0  0  0  0  0  0  0
    1.7320    3.4515    0.0000 C   0  0  0  0  0  0  0  0  0  0  0  0
    6.0010    4.3100    0.0000 H   0  0  0  0  0  0  0  0  0  0  0  0
    5.1350    2.8100    0.0000 H   0  0  0  0  0  0  0  0  0  0  0  0
    7.9409    2.8100    0.0000 H   0  0  0  0  0  0  0  0  0  0  0  0
    8.5800    5.4631    0.0000 H   0  0  0  0  0  0  0  0  0  0  0  0
    8.8070    6.3100    0.0000 H   0  0  0  0  0  0  0  0  0  0  0  0
    7.9600    6.5369    0.0000 H   0  0  0  0  0  0  0  0  0  0  0  0
    6.8480    6.5369    0.0000 H   0  0  0  0  0  0  0  0  0  0  0  0
    6.0010    6.3100    0.0000 H   0  0  0  0  0  0  0  0  0  0  0  0
    6.2280    5.4631    0.0000 H   0  0  0  0  0  0  0  0  0  0  0  0
    5.1350    1.1900    0.0000 H   0  0  0  0  0  0  0  0  0  0  0  0
    7.9409    1.1900    0.0000 H   0  0  0  0  0  0  0  0  0  0  0  0
    3.1350    3.2615    0.0000 H   0  0  0  0  0  0  0  0  0  0  0  0
  1 18  1  0  0  0  0
  2 19  1  0  0  0  0
  3 19  1  0  0  0  0
  4 19  1  0  0  0  0
  5 11  2  0  0  0  0
  6 20  1  0  0  0  0
  6 32  1  0  0  0  0
  7 20  2  0  0  0  0
  8 11  1  0  0  0  0
  8 14  1  0  0  0  0
  8 15  1  0  0  0  0
  9 10  1  0  0  0  0
  9 11  1  0  0  0  0
  9 21  1  0  0  0  0
 10 12  2  0  0  0  0
 10 13  1  0  0  0  0
 12 16  1  0  0  0  0
 12 22  1  0  0  0  0
 13 17  2  0  0  0  0
 13 23  1  0  0  0  0
 14 24  1  0  0  0  0
 14 25  1  0  0  0  0
 14 26  1  0  0  0  0
 15 27  1  0  0  0  0
 15 28  1  0  0  0  0
 15 29  1  0  0  0  0
 16 18  2  0  0  0  0
 16 30  1  0  0  0  0
 17 18  1  0  0  0  0
 17 31  1  0  0  0  0
 19 20  1  0  0  0  0
M  END
> <PUBCHEM_COMPOUND_CID>
8799

> <PUBCHEM_COMPOUND_CANONICALIZED>
1

> <PUBCHEM_CACTVS_COMPLEXITY>
260

> <PUBCHEM_CACTVS_HBOND_ACCEPTOR>
3

> <PUBCHEM_CACTVS_HBOND_DONOR>
2

> <PUBCHEM_CACTVS_ROTATABLE_BOND>
1

> <PUBCHEM_CACTVS_SUBSKEYS>
AAADccBzMAAHAAAAAAAAAAAAAAAAAAAAAAAwAAAAAAAAAAABAAAAHgIQCAAACAqBkKQzyIPAAgCIACTSWACCAAAhBwAIiAAIZ4jIICLBk5GEIAholgJIyCcQAAAAAABAAAAAAAAAAIAAAAAAAAAAAAAAAA==

> <PUBCHEM_IUPAC_OPENEYE_NAME>
3-(4-chlorophenyl)-1,1-dimethyl-urea; 2,2,2-trichloroacetic acid

> <PUBCHEM_IUPAC_CAS_NAME>
3-(4-chlorophenyl)-1,1-dimethylurea; 2,2,2-trichloroacetic acid

> <PUBCHEM_IUPAC_NAME>
3-(4-chlorophenyl)-1,1-dimethylurea; 2,2,2-trichloroacetic acid

> <PUBCHEM_IUPAC_SYSTEMATIC_NAME>
3-(4-chlorophenyl)-1,1-dimethyl-urea; 2,2,2-tris(chloranyl)ethanoic acid

> <PUBCHEM_IUPAC_TRADITIONAL_NAME>
3-(4-chlorophenyl)-1,1-dimethyl-urea; 2,2,2-trichloroacetic acid

> <PUBCHEM_IUPAC_INCHI>
InChI=1S/C9H11ClN2O.C2HCl3O2/c1-12(2)9(13)11-8-5-3-7(10)4-6-8;3-2(4,5)1(6)7/h3-6H,1-2H3,(H,11,13);(H,6,7)

> <PUBCHEM_IUPAC_INCHIKEY>
DUQGREMIROGTTD-UHFFFAOYSA-N

> <PUBCHEM_EXACT_MASS>
361.957253

> <PUBCHEM_MOLECULAR_FORMULA>
C11H12Cl4N2O3

> <PUBCHEM_MOLECULAR_WEIGHT>
362.03658

> <PUBCHEM_OPENEYE_CAN_SMILES>
CN(C)C(=O)NC1=CC=C(C=C1)Cl.C(=O)(C(Cl)(Cl)Cl)O

> <PUBCHEM_OPENEYE_ISO_SMILES>
CN(C)C(=O)NC1=CC=C(C=C1)Cl.C(=O)(C(Cl)(Cl)Cl)O

> <PUBCHEM_CACTVS_TPSA>
69.6

> <PUBCHEM_MONOISOTOPIC_WEIGHT>
359.960203

> <PUBCHEM_TOTAL_CHARGE>
0

> <PUBCHEM_HEAVY_ATOM_COUNT>
20

> <PUBCHEM_ATOM_DEF_STEREO_COUNT>
0

> <PUBCHEM_ATOM_UDEF_STEREO_COUNT>
0

> <PUBCHEM_BOND_DEF_STEREO_COUNT>
0

> <PUBCHEM_BOND_UDEF_STEREO_COUNT>
0

> <PUBCHEM_ISOTOPIC_ATOM_COUNT>
0

> <PUBCHEM_COMPONENT_COUNT>
2

> <PUBCHEM_CACTVS_TAUTO_COUNT>
2

> <PUBCHEM_COORDINATE_TYPE>
1
5
255

> <PUBCHEM_BONDANNOTATIONS>
10  12  8
10  13  8
12  16  8
13  17  8
16  18  8
17  18  8

$$$$

