   Color/Form
        Oily liquid with slightly yellow color
   from [1]HSDB

   Odor
        Characteristic amine-like
   from [2]HSDB

   Boiling Point
        150 deg C at 0.5 mm Hg
   from [3]HSDB

   Octanol/Water Partition Coefficient
        log Kow = 4.06 (est)
   from [4]HSDB

   Solubilities

     * Soluble in dilute acids
     * In water, 2,370 mg/L at 25 deg C (est)

   from [5]HSDB

   Spectral Properties
        Intense mass spectral peaks: 58 m/z, 72 m/z, 167 m/z, 247 m/z
   from [6]HSDB

   Vapor Pressure
        4.63X10-5 mm Hg at 25 deg C (est)
   from [7]HSDB

   Other Chemical/Physical Properties

     * pH of 2% aq soln about 5; mp: 132-134 deg C; crystals /Maleate/
     * ODORLESS; WHITE, CRYSTALLINE POWDER; 1 G SOL IN ABOUT 15 ML
       CHLOROFORM, ABOUT 5 ML WATER, ABOUT 15 ML ALC /MALEATE/
     * SOL IN BENZENE /MALEATE/
     * Henry's Law constant = 2.19X10-10 atm-cu m/mol at 25 deg C (est)
     * Hydroxyl radical reaction rate constant = 8.54X10-11 cu
       cm/molec-sec at 25 deg C (est)

   from [8]HSDB

   Computed Properties
   Molecular Weight                  319.23946 [g/mol]
   Molecular Formula                 C[16]H[19]BrN[2]
   XLogP3                            3.5
   H-Bond Donor                      0
   H-Bond Acceptor                   2
   Rotatable Bond Count              5
   Tautomer Count                    2
   Exact Mass                        318.073161
   MonoIsotopic Mass                 318.073161
   Topological Polar Surface Area    16.1
   Heavy Atom Count                  19
   Formal Charge                     0
   Complexity                        249
   Isotope Atom Count                0
   Defined Atom Stereocenter Count   0
   Undefined Atom Stereocenter Count 1
   Defined Bond Stereocenter Count   0
   Undefined Bond Stereocenter Count 0
   Covalently-Bonded Unit Count      1
   Feature 3D Acceptor Count         1
   Feature 3D Cation Count           1
   Feature 3D Hydrophobe Count       1
   Feature 3D Ring Count             2
   Effective Rotor Count             5
   Conformer Sampling RMSD           0.6
   CID Conformer Count               [9]54

References

   1. http://toxnet.nlm.nih.gov/cgi-bin/sis/search/r?dbs+hsdb:@term+@rn+@rel+86-22-6
   2. http://toxnet.nlm.nih.gov/cgi-bin/sis/search/r?dbs+hsdb:@term+@rn+@rel+86-22-6
   3. http://toxnet.nlm.nih.gov/cgi-bin/sis/search/r?dbs+hsdb:@term+@rn+@rel+86-22-6
   4. http://toxnet.nlm.nih.gov/cgi-bin/sis/search/r?dbs+hsdb:@term+@rn+@rel+86-22-6
   5. http://toxnet.nlm.nih.gov/cgi-bin/sis/search/r?dbs+hsdb:@term+@rn+@rel+86-22-6
   6. http://toxnet.nlm.nih.gov/cgi-bin/sis/search/r?dbs+hsdb:@term+@rn+@rel+86-22-6
   7. http://toxnet.nlm.nih.gov/cgi-bin/sis/search/r?dbs+hsdb:@term+@rn+@rel+86-22-6
   8. http://toxnet.nlm.nih.gov/cgi-bin/sis/search/r?dbs+hsdb:@term+@rn+@rel+86-22-6
   9. http://pubchem.ncbi.nlm.nih.gov/vw3d/vw3d.cgi?cid=6834
