13324
  -OEChem-06261208572D

 49 52  0     1  0  0  0  0  0999 V2000
    8.0319    1.9472    0.0000 O   0  0  0  0  0  0  0  0  0  0  0  0
    2.0000   -2.3614    0.0000 O   0  0  0  0  0  0  0  0  0  0  0  0
    7.3931    0.6909    0.0000 C   0  0  3  0  0  0  0  0  0  0  0  0
    7.3931   -0.3091    0.0000 C   0  0  3  0  0  0  0  0  0  0  0  0
    8.3393    0.9956    0.0000 C   0  0  3  0  0  0  0  0  0  0  0  0
    6.5271   -0.8091    0.0000 C   0  0  3  0  0  0  0  0  0  0  0  0
    8.3393   -0.6138    0.0000 C   0  0  0  0  0  0  0  0  0  0  0  0
    8.9229    0.1909    0.0000 C   0  0  0  0  0  0  0  0  0  0  0  0
    6.5271    1.1909    0.0000 C   0  0  0  0  0  0  0  0  0  0  0  0
    5.6610   -0.3091    0.0000 C   0  0  0  0  0  0  0  0  0  0  0  0
    7.3931    1.6909    0.0000 C   0  0  0  0  0  0  0  0  0  0  0  0
    6.5431   -1.8506    0.0000 C   0  0  0  0  0  0  0  0  0  0  0  0
    9.1493    1.5820    0.0000 C   0  0  0  0  0  0  0  0  0  0  0  0
    5.6610    0.6909    0.0000 C   0  0  0  0  0  0  0  0  0  0  0  0
    4.7510   -0.8159    0.0000 C   0  0  0  0  0  0  0  0  0  0  0  0
    5.6451   -2.3784    0.0000 C   0  0  0  0  0  0  0  0  0  0  0  0
    4.7430   -1.8575    0.0000 C   0  0  0  0  0  0  0  0  0  0  0  0
    3.8242   -0.2519    0.0000 C   0  0  0  0  0  0  0  0  0  0  0  0
   10.0622    1.1737    0.0000 C   0  0  0  0  0  0  0  0  0  0  0  0
    3.8076   -2.4073    0.0000 C   0  0  0  0  0  0  0  0  0  0  0  0
    2.8763   -0.7798    0.0000 C   0  0  0  0  0  0  0  0  0  0  0  0
    2.8680   -1.8648    0.0000 C   0  0  0  0  0  0  0  0  0  0  0  0
   10.8722    1.7601    0.0000 C   0  0  0  0  0  0  0  0  0  0  0  0
    7.4830   -1.1543    0.0000 H   0  0  0  0  0  0  0  0  0  0  0  0
    7.2664   -1.2284    0.0000 H   0  0  0  0  0  0  0  0  0  0  0  0
    8.0883   -1.1807    0.0000 H   0  0  0  0  0  0  0  0  0  0  0  0
    8.8767   -0.9230    0.0000 H   0  0  0  0  0  0  0  0  0  0  0  0
    9.3838   -0.2238    0.0000 H   0  0  0  0  0  0  0  0  0  0  0  0
    9.3838    0.6056    0.0000 H   0  0  0  0  0  0  0  0  0  0  0  0
    6.5271    1.8109    0.0000 H   0  0  0  0  0  0  0  0  0  0  0  0
    8.0131    1.6909    0.0000 H   0  0  0  0  0  0  0  0  0  0  0  0
    7.3931    2.3109    0.0000 H   0  0  0  0  0  0  0  0  0  0  0  0
    6.7731    1.6909    0.0000 H   0  0  0  0  0  0  0  0  0  0  0  0
    6.7612   -2.4310    0.0000 H   0  0  0  0  0  0  0  0  0  0  0  0
    7.1523   -1.7351    0.0000 H   0  0  0  0  0  0  0  0  0  0  0  0
    9.4969    2.0954    0.0000 H   0  0  0  0  0  0  0  0  0  0  0  0
    8.7041    2.0135    0.0000 H   0  0  0  0  0  0  0  0  0  0  0  0
    5.1241    1.0009    0.0000 H   0  0  0  0  0  0  0  0  0  0  0  0
    5.2478   -2.8543    0.0000 H   0  0  0  0  0  0  0  0  0  0  0  0
    6.0460   -2.8512    0.0000 H   0  0  0  0  0  0  0  0  0  0  0  0
    8.4476    2.4073    0.0000 H   0  0  0  0  0  0  0  0  0  0  0  0
    4.2324    0.2148    0.0000 H   0  0  0  0  0  0  0  0  0  0  0  0
    3.4343    0.2302    0.0000 H   0  0  0  0  0  0  0  0  0  0  0  0
   10.1259    0.5570    0.0000 H   0  0  0  0  0  0  0  0  0  0  0  0
    3.8100   -3.0273    0.0000 H   0  0  0  0  0  0  0  0  0  0  0  0
    2.6718   -0.1945    0.0000 H   0  0  0  0  0  0  0  0  0  0  0  0
    2.2647   -0.8812    0.0000 H   0  0  0  0  0  0  0  0  0  0  0  0
   11.4382    1.5069    0.0000 H   0  0  0  0  0  0  0  0  0  0  0  0
   10.8085    2.3768    0.0000 H   0  0  0  0  0  0  0  0  0  0  0  0
  1  5  1  0  0  0  0
  1 41  1  0  0  0  0
  2 22  2  0  0  0  0
  3  4  1  0  0  0  0
  3  5  1  0  0  0  0
  3  9  1  0  0  0  0
  3 11  1  0  0  0  0
  4  6  1  0  0  0  0
  4  7  1  0  0  0  0
  4 24  1  0  0  0  0
  5  8  1  0  0  0  0
  5 13  1  0  0  0  0
  6 10  1  0  0  0  0
  6 12  1  0  0  0  0
  6 25  1  0  0  0  0
  7  8  1  0  0  0  0
  7 26  1  0  0  0  0
  7 27  1  0  0  0  0
  8 28  1  0  0  0  0
  8 29  1  0  0  0  0
  9 14  2  0  0  0  0
  9 30  1  0  0  0  0
 10 14  1  0  0  0  0
 10 15  2  0  0  0  0
 11 31  1  0  0  0  0
 11 32  1  0  0  0  0
 11 33  1  0  0  0  0
 12 16  1  0  0  0  0
 12 34  1  0  0  0  0
 12 35  1  0  0  0  0
 13 19  1  0  0  0  0
 13 36  1  0  0  0  0
 13 37  1  0  0  0  0
 14 38  1  0  0  0  0
 15 17  1  0  0  0  0
 15 18  1  0  0  0  0
 16 17  1  0  0  0  0
 16 39  1  0  0  0  0
 16 40  1  0  0  0  0
 17 20  2  0  0  0  0
 18 21  1  0  0  0  0
 18 42  1  0  0  0  0
 18 43  1  0  0  0  0
 19 23  2  0  0  0  0
 19 44  1  0  0  0  0
 20 22  1  0  0  0  0
 20 45  1  0  0  0  0
 21 22  1  0  0  0  0
 21 46  1  0  0  0  0
 21 47  1  0  0  0  0
 23 48  1  0  0  0  0
 23 49  1  0  0  0  0
M  END
> <PUBCHEM_COMPOUND_CID>
13324

> <PUBCHEM_COMPOUND_CANONICALIZED>
1

> <PUBCHEM_CACTVS_COMPLEXITY>
665

> <PUBCHEM_CACTVS_HBOND_ACCEPTOR>
2

> <PUBCHEM_CACTVS_HBOND_DONOR>
1

> <PUBCHEM_CACTVS_ROTATABLE_BOND>
2

> <PUBCHEM_CACTVS_SUBSKEYS>
AAADceB4MAAAAAAAAAAAAAAAAAAAAYAAAAAgQIAAAAAAAECAAAAAGgAACAAAD0SAgAACAAAAAgCIAqBSAAAAAAAgAAAICAEAAEgIABIAAQAAQAAEwAAIgQOIyPCPgAAAAAAAAAAAAAAAAAAAAYAADAAAAA==

> <PUBCHEM_IUPAC_OPENEYE_NAME>
17-allyl-17-hydroxy-13-methyl-1,2,6,7,8,14,15,16-octahydrocyclopenta[a]phenanthren-3-one

> <PUBCHEM_IUPAC_CAS_NAME>
17-hydroxy-13-methyl-17-prop-2-enyl-1,2,6,7,8,14,15,16-octahydrocyclopenta[a]phenanthren-3-one

> <PUBCHEM_IUPAC_NAME>
17-hydroxy-13-methyl-17-prop-2-enyl-1,2,6,7,8,14,15,16-octahydrocyclopenta[a]phenanthren-3-one

> <PUBCHEM_IUPAC_SYSTEMATIC_NAME>
13-methyl-17-oxidanyl-17-prop-2-enyl-1,2,6,7,8,14,15,16-octahydrocyclopenta[a]phenanthren-3-one

> <PUBCHEM_IUPAC_TRADITIONAL_NAME>
17-allyl-17-hydroxy-13-methyl-1,2,6,7,8,14,15,16-octahydrocyclopenta[a]phenanthren-3-one

> <PUBCHEM_IUPAC_INCHI>
InChI=1S/C21H26O2/c1-3-10-21(23)12-9-19-18-6-4-14-13-15(22)5-7-16(14)17(18)8-11-20(19,21)2/h3,8,11,13,18-19,23H,1,4-7,9-10,12H2,2H3

> <PUBCHEM_IUPAC_INCHIKEY>
VWAUPFMBXBWEQY-UHFFFAOYSA-N

> <PUBCHEM_XLOGP3_AA>
2.8

> <PUBCHEM_EXACT_MASS>
310.19328

> <PUBCHEM_MOLECULAR_FORMULA>
C21H26O2

> <PUBCHEM_MOLECULAR_WEIGHT>
310.42994

> <PUBCHEM_OPENEYE_CAN_SMILES>
CC12C=CC3=C4CCC(=O)C=C4CCC3C1CCC2(CC=C)O

> <PUBCHEM_OPENEYE_ISO_SMILES>
CC12C=CC3=C4CCC(=O)C=C4CCC3C1CCC2(CC=C)O

> <PUBCHEM_CACTVS_TPSA>
37.3

> <PUBCHEM_MONOISOTOPIC_WEIGHT>
310.19328

> <PUBCHEM_TOTAL_CHARGE>
0

> <PUBCHEM_HEAVY_ATOM_COUNT>
23

> <PUBCHEM_ATOM_DEF_STEREO_COUNT>
0

> <PUBCHEM_ATOM_UDEF_STEREO_COUNT>
4

> <PUBCHEM_BOND_DEF_STEREO_COUNT>
0

> <PUBCHEM_BOND_UDEF_STEREO_COUNT>
0

> <PUBCHEM_ISOTOPIC_ATOM_COUNT>
0

> <PUBCHEM_COMPONENT_COUNT>
1

> <PUBCHEM_CACTVS_TAUTO_COUNT>
13

> <PUBCHEM_COORDINATE_TYPE>
1
5
255

> <PUBCHEM_BONDANNOTATIONS>
3  11  3
4  24  3
5  13  3
6  25  3

$$$$

