   Color/Form

     * TRANSPARENT CRYSTALS
     * HEXAGONAL BIPYRAMID CRYSTAL FROM DICHLOROMETHANE-N-PENTANE;
       CRYSTALS FROM DICHLOROETHANE

   from [1]HSDB

   Melting Point
        91-92 DEG C
   from [2]HSDB

   Solubilities
        SOL IN WATER, ETHYL ACETATE, ETHANOL, METHANOL & CHLOROFORM; INSOL
   IN N-HEXANE & N-PENTANE
   from [3]HSDB

   Spectral Properties
        SPECIFIC OPTICAL ROTATION: +58 DEG @ 25 DEG C/D (METHANOL, 1%);
   +56 DEG @ 24 DEG C (ETHANOL); MAX ABSORPTION (METHANOL): 220 NM;
   INFRA-RED CARBONYL BAND @ 1680 CM-1
   from [4]HSDB

   Other Chemical/Physical Properties
        SUSCEPTIBLE TO HYDROLYSIS TO FORM NIVALENOL
   from [5]HSDB

   Computed Properties
   Molecular Weight                  354.35178 [g/mol]
   Molecular Formula                 C[17]H[22]O[8]
   XLogP3-AA                         -1.1
   H-Bond Donor                      3
   H-Bond Acceptor                   8
   Rotatable Bond Count              3
   Tautomer Count                    8
   Exact Mass                        354.131468
   MonoIsotopic Mass                 354.131468
   Topological Polar Surface Area    126
   Heavy Atom Count                  25
   Formal Charge                     0
   Complexity                        688
   Isotope Atom Count                0
   Defined Atom Stereocenter Count   8
   Undefined Atom Stereocenter Count 0
   Defined Bond Stereocenter Count   0
   Undefined Bond Stereocenter Count 0
   Covalently-Bonded Unit Count      1
   Feature 3D Acceptor Count         7
   Feature 3D Donor Count            3
   Feature 3D Ring Count             2
   Effective Rotor Count             4.2
   Conformer Sampling RMSD           0.8
   CID Conformer Count               [6]2

References

   1. http://toxnet.nlm.nih.gov/cgi-bin/sis/search/r?dbs+hsdb:@term+@rn+@rel+23255-69-8
   2. http://toxnet.nlm.nih.gov/cgi-bin/sis/search/r?dbs+hsdb:@term+@rn+@rel+23255-69-8
   3. http://toxnet.nlm.nih.gov/cgi-bin/sis/search/r?dbs+hsdb:@term+@rn+@rel+23255-69-8
   4. http://toxnet.nlm.nih.gov/cgi-bin/sis/search/r?dbs+hsdb:@term+@rn+@rel+23255-69-8
   5. http://toxnet.nlm.nih.gov/cgi-bin/sis/search/r?dbs+hsdb:@term+@rn+@rel+23255-69-8
   6. http://pubchem.ncbi.nlm.nih.gov/vw3d/vw3d.cgi?cid=12309986
