8947
  -OEChem-06261203152D

 10  7  0     0  0  0  0  0  0999 V2000
    3.7320    0.0000    0.0000 As  0  0  0  0  0  0  0  0  0  0  0  0
    5.4641    0.0000    0.0000 Na  0  3  0  0  0  0  0  0  0  0  0  0
    2.0000    0.0000    0.0000 Na  0  3  0  0  0  0  0  0  0  0  0  0
    4.5981    0.5000    0.0000 O   0  5  0  0  0  0  0  0  0  0  0  0
    2.8660   -0.5000    0.0000 O   0  5  0  0  0  0  0  0  0  0  0  0
    4.2320   -0.8660    0.0000 O   0  0  0  0  0  0  0  0  0  0  0  0
    3.2320    0.8660    0.0000 C   0  0  0  0  0  0  0  0  0  0  0  0
    3.7690    1.1760    0.0000 H   0  0  0  0  0  0  0  0  0  0  0  0
    2.9220    1.4030    0.0000 H   0  0  0  0  0  0  0  0  0  0  0  0
    2.6951    0.5560    0.0000 H   0  0  0  0  0  0  0  0  0  0  0  0
  1  4  1  0  0  0  0
  1  5  1  0  0  0  0
  1  6  2  0  0  0  0
  1  7  1  0  0  0  0
  7  8  1  0  0  0  0
  7  9  1  0  0  0  0
  7 10  1  0  0  0  0
M  CHG  4   2   1   3   1   4  -1   5  -1
M  END
> <PUBCHEM_COMPOUND_CID>
8947

> <PUBCHEM_COMPOUND_CANONICALIZED>
1

> <PUBCHEM_CACTVS_COMPLEXITY>
49.8

> <PUBCHEM_CACTVS_HBOND_ACCEPTOR>
3

> <PUBCHEM_CACTVS_HBOND_DONOR>
0

> <PUBCHEM_CACTVS_ROTATABLE_BOND>
0

> <PUBCHEM_CACTVS_SUBSKEYS>
AAADcQAAMDAAAAAAQAAAAAAAAAAAAAAAAAAAAAAAAAAAAAAAAAAAEAEAAAAAAAAAAAACAAAAAAAAAAAAAAAAAAAAAAAAAAAAAAAAAAAAAAAAAAAAAAAAAAAAAAAAAAAAAAAAAAAAAAAAAAAAAAAAAAAAAA==

> <PUBCHEM_IUPAC_OPENEYE_NAME>
disodium methyl-dioxido-oxo-$l^{5}-arsane

> <PUBCHEM_IUPAC_CAS_NAME>
disodium methyl-dioxido-oxoarsorane

> <PUBCHEM_IUPAC_NAME>
disodium methyl-dioxido-oxo-$l^{5}-arsane

> <PUBCHEM_IUPAC_SYSTEMATIC_NAME>
disodium methyl-bis(oxidanidyl)-oxidanylidene-$l^{5}-arsane

> <PUBCHEM_IUPAC_TRADITIONAL_NAME>
disodium keto-methyl-dioxido-arsorane

> <PUBCHEM_IUPAC_INCHI>
InChI=1S/CH5AsO3.2Na/c1-2(3,4)5;;/h1H3,(H2,3,4,5);;/q;2*+1/p-2

> <PUBCHEM_IUPAC_INCHIKEY>
SDIXRDNYIMOKSG-UHFFFAOYSA-L

> <PUBCHEM_EXACT_MASS>
183.909354

> <PUBCHEM_MOLECULAR_FORMULA>
CH3AsNa2O3

> <PUBCHEM_MOLECULAR_WEIGHT>
183.933859

> <PUBCHEM_OPENEYE_CAN_SMILES>
C[As](=O)([O-])[O-].[Na+].[Na+]

> <PUBCHEM_OPENEYE_ISO_SMILES>
C[As](=O)([O-])[O-].[Na+].[Na+]

> <PUBCHEM_CACTVS_TPSA>
63.2

> <PUBCHEM_MONOISOTOPIC_WEIGHT>
183.909354

> <PUBCHEM_TOTAL_CHARGE>
0

> <PUBCHEM_HEAVY_ATOM_COUNT>
7

> <PUBCHEM_ATOM_DEF_STEREO_COUNT>
0

> <PUBCHEM_ATOM_UDEF_STEREO_COUNT>
0

> <PUBCHEM_BOND_DEF_STEREO_COUNT>
0

> <PUBCHEM_BOND_UDEF_STEREO_COUNT>
0

> <PUBCHEM_ISOTOPIC_ATOM_COUNT>
0

> <PUBCHEM_COMPONENT_COUNT>
3

> <PUBCHEM_CACTVS_TAUTO_COUNT>
1

> <PUBCHEM_COORDINATE_TYPE>
1
5
255

$$$$

