   Color/Form

     * Crystals from acetone and ether
     * WHITE TO OFF-WHITE CRYSTALLINE POWDER OR WAXY SOLID

   from [1]HSDB

   Odor
        CHARACTERISTIC ODOR
   from [2]HSDB

   Melting Point
        64 - 65 deg C
   from [3]HSDB

   Octanol/Water Partition Coefficient
        log Kow = 0.38
   from [4]HSDB

   Solubilities

     * Freely soluble in water
     * VERY SLIGHTLY SOL IN SOLVENT HEXANE
     * In water, 3.92X10+4 mg/L at 25 deg C (est)

   from [5]HSDB

   Spectral Properties

     * MASS: 35715 (NIST/EPA/MSDC Mass Spectral Database, 1990 version);
       4036 (National Bureau of Standards EPA-NIH Mass Spectra Data Base,
       NSRDS-NBS-63)
     * Intense mass spectral peaks: 55 m/z, 70 m/z, 113 m/z, 141 m/z

   from [6]HSDB

   Vapor Pressure
        5.43X10-7 mm Hg at 25 deg C (est)
   from [7]HSDB

   Other Chemical/Physical Properties

     * Henry's Law constant = 5.93X10-8 atm-cu m/mol at 25 deg C (est)
     * Hydroxyl radical reaction rate constant = 1.16X10-11 cu
       cm/molec-sec at 25 deg C (est)

   from [8]HSDB

   Computed Properties
   Molecular Weight                  141.16774 [g/mol]
   Molecular Formula                 C[7]H[11]NO[2]
   XLogP3                            0.4
   H-Bond Donor                      1
   H-Bond Acceptor                   2
   Rotatable Bond Count              1
   Tautomer Count                    5
   Exact Mass                        141.078979
   MonoIsotopic Mass                 141.078979
   Topological Polar Surface Area    46.2
   Heavy Atom Count                  10
   Formal Charge                     0
   Complexity                        188
   Isotope Atom Count                0
   Defined Atom Stereocenter Count   0
   Undefined Atom Stereocenter Count 1
   Defined Bond Stereocenter Count   0
   Undefined Bond Stereocenter Count 0
   Covalently-Bonded Unit Count      1
   Feature 3D Acceptor Count         2
   Feature 3D Donor Count            1
   Feature 3D Hydrophobe Count       1
   Feature 3D Ring Count             1
   Effective Rotor Count             1.6
   Conformer Sampling RMSD           0.4
   CID Conformer Count               [9]6

References

   1. http://toxnet.nlm.nih.gov/cgi-bin/sis/search/r?dbs+hsdb:@term+@rn+@rel+77-67-8
   2. http://toxnet.nlm.nih.gov/cgi-bin/sis/search/r?dbs+hsdb:@term+@rn+@rel+77-67-8
   3. http://toxnet.nlm.nih.gov/cgi-bin/sis/search/r?dbs+hsdb:@term+@rn+@rel+77-67-8
   4. http://toxnet.nlm.nih.gov/cgi-bin/sis/search/r?dbs+hsdb:@term+@rn+@rel+77-67-8
   5. http://toxnet.nlm.nih.gov/cgi-bin/sis/search/r?dbs+hsdb:@term+@rn+@rel+77-67-8
   6. http://toxnet.nlm.nih.gov/cgi-bin/sis/search/r?dbs+hsdb:@term+@rn+@rel+77-67-8
   7. http://toxnet.nlm.nih.gov/cgi-bin/sis/search/r?dbs+hsdb:@term+@rn+@rel+77-67-8
   8. http://toxnet.nlm.nih.gov/cgi-bin/sis/search/r?dbs+hsdb:@term+@rn+@rel+77-67-8
   9. http://pubchem.ncbi.nlm.nih.gov/vw3d/vw3d.cgi?cid=3291
