   Color/Form

     * CRYSTALS FROM ALCOHOL
     * WHITE TO PRACTICALLY WHITE, FINE, CRYSTALLINE POWDER
     * WHITE TO CREAMY WHITE CRYSTALLINE SOLID

   from [1]HSDB

   Odor
        ODORLESS, OR PRACTICALLY SO
   from [2]HSDB

   Taste
        TASTELESS
   from [3]HSDB

   Melting Point
        212-216 DEG C
   from [4]HSDB

   Octanol/Water Partition Coefficient
        Log Kow = 0.87
   from [5]HSDB

   Solubilities

     * VERY SLIGHTLY SOL IN WATER; SLIGHTLY SOL IN ALC, BENZENE,
       CHLOROFORM, ETHER
     * SLIGHTLY SOL IN ACETONE

   from [6]HSDB

   Spectral Properties

     * SADTLER REFERENCE NUMBER: 32139 (IR, PRISM)
     * IR: 9137 (Sadtler Research Laboratories IR Grating Collection)
     * UV: 13717 (Sadtler Research Laboratories Spectral Collection)
     * NMR: 17520 (Sadtler Research Laboratories Spectral Collection)
     * MASS: 4311 (National Bureau of Standards EPA-NIH Mass Spectra Data
       Base, NSRDS-NBS-63)

   from [7]HSDB

   Computed Properties
   Molecular Weight                  178.1879 [g/mol]
   Molecular Formula                 C[9]H[10]N[2]O[2]
   XLogP3                            0.9
   H-Bond Donor                      2
   H-Bond Acceptor                   2
   Rotatable Bond Count              2
   Tautomer Count                    5
   Exact Mass                        178.074228
   MonoIsotopic Mass                 178.074228
   Topological Polar Surface Area    72.2
   Heavy Atom Count                  13
   Formal Charge                     0
   Complexity                        198
   Isotope Atom Count                0
   Defined Atom Stereocenter Count   0
   Undefined Atom Stereocenter Count 0
   Defined Bond Stereocenter Count   0
   Undefined Bond Stereocenter Count 0
   Covalently-Bonded Unit Count      1
   Feature 3D Acceptor Count         2
   Feature 3D Donor Count            2
   Feature 3D Ring Count             1
   Effective Rotor Count             4
   Conformer Sampling RMSD           0.6
   CID Conformer Count               [8]12

References

   1. http://toxnet.nlm.nih.gov/cgi-bin/sis/search/r?dbs+hsdb:@term+@rn+@rel+63-98-9
   2. http://toxnet.nlm.nih.gov/cgi-bin/sis/search/r?dbs+hsdb:@term+@rn+@rel+63-98-9
   3. http://toxnet.nlm.nih.gov/cgi-bin/sis/search/r?dbs+hsdb:@term+@rn+@rel+63-98-9
   4. http://toxnet.nlm.nih.gov/cgi-bin/sis/search/r?dbs+hsdb:@term+@rn+@rel+63-98-9
   5. http://toxnet.nlm.nih.gov/cgi-bin/sis/search/r?dbs+hsdb:@term+@rn+@rel+63-98-9
   6. http://toxnet.nlm.nih.gov/cgi-bin/sis/search/r?dbs+hsdb:@term+@rn+@rel+63-98-9
   7. http://toxnet.nlm.nih.gov/cgi-bin/sis/search/r?dbs+hsdb:@term+@rn+@rel+63-98-9
   8. http://pubchem.ncbi.nlm.nih.gov/vw3d/vw3d.cgi?cid=4753
