   Color/Form

     * Pale yellow crystals
     * White crystalline solid
     * Light yellow silky needles from ethanol or acetone
     * Crystals
     * Pale yellow crystalline
     * Pale yellow microcrystalline powder

   from [1]HSDB

   Odor
        Odorless
   from [2]HSDB

   Melting Point
        138 deg C
   from [3]HSDB

   Corrosivity
        Noncorrosive
   from [4]HSDB

   Density/Specific Gravity
        Bulk density = 0.38 g/cu-cm at 20 deg C
   from [5]HSDB

   Dissociation Constants
        pKa = 3.40 @ 25 deg C
   from [6]HSDB

   Solubilities

     * Readily soluble in methanol, ethanol, acetone, acetic acid, ethyl
       acetate, benzene, oil; slightly soluble in aqueous alkalis with the
       formation of salts
     * Soluble in common organic solvents.
     * Soluble in dichloromethane and chloroform; sparingly soluble in
       acetone and ether; very sparingly soluble in ethanol and methanol.
     * In water, 100 mg/l @ 20 deg C.

   from [7]HSDB

   Spectral Properties

     * Absorption band at 325 nm in acetone soln
     * Intense mass spectral peaks: 173 m/z (100%), 374 m/z (19%), 165 m/z
       (19%), 174 m/z (18%)

   from [8]HSDB

   Vapor Pressure
        1X10-4 mPa at 25 deg C = 7.5X10-10 mm Hg at 25 deg C
   from [9]HSDB

   Computed Properties
   Molecular Weight                  374.8164 [g/mol]
   Molecular Formula                 C[23]H[15]ClO[3]
   XLogP3                            4.3
   H-Bond Donor                      0
   H-Bond Acceptor                   3
   Rotatable Bond Count              4
   Tautomer Count                    5
   Exact Mass                        374.070972
   MonoIsotopic Mass                 374.070972
   Topological Polar Surface Area    51.2
   Heavy Atom Count                  27
   Formal Charge                     0
   Complexity                        562
   Isotope Atom Count                0
   Defined Atom Stereocenter Count   0
   Undefined Atom Stereocenter Count 1
   Defined Bond Stereocenter Count   0
   Undefined Bond Stereocenter Count 0
   Covalently-Bonded Unit Count      1
   Feature 3D Acceptor Count         3
   Feature 3D Anion Count            1
   Feature 3D Ring Count             4
   Effective Rotor Count             4.2
   Conformer Sampling RMSD           0.8
   CID Conformer Count               [10]48

References

   1. http://toxnet.nlm.nih.gov/cgi-bin/sis/search/r?dbs+hsdb:@term+@rn+@rel+3691-35-8
   2. http://toxnet.nlm.nih.gov/cgi-bin/sis/search/r?dbs+hsdb:@term+@rn+@rel+3691-35-8
   3. http://toxnet.nlm.nih.gov/cgi-bin/sis/search/r?dbs+hsdb:@term+@rn+@rel+3691-35-8
   4. http://toxnet.nlm.nih.gov/cgi-bin/sis/search/r?dbs+hsdb:@term+@rn+@rel+3691-35-8
   5. http://toxnet.nlm.nih.gov/cgi-bin/sis/search/r?dbs+hsdb:@term+@rn+@rel+3691-35-8
   6. http://toxnet.nlm.nih.gov/cgi-bin/sis/search/r?dbs+hsdb:@term+@rn+@rel+3691-35-8
   7. http://toxnet.nlm.nih.gov/cgi-bin/sis/search/r?dbs+hsdb:@term+@rn+@rel+3691-35-8
   8. http://toxnet.nlm.nih.gov/cgi-bin/sis/search/r?dbs+hsdb:@term+@rn+@rel+3691-35-8
   9. http://toxnet.nlm.nih.gov/cgi-bin/sis/search/r?dbs+hsdb:@term+@rn+@rel+3691-35-8
  10. http://pubchem.ncbi.nlm.nih.gov/vw3d/vw3d.cgi?cid=19402
