   Color/Form
        YELLOW OIL
   from [1]HSDB

   Boiling Point
        154 DEG C @ 0.2 MM HG
   from [2]HSDB

   Melting Point
        47 deg C
   from [3]HSDB

   Spectral Properties
        MAX ABSORPTION: 237 NM, 261 NM (INFLECTION), 269 NM (INFLECTION),
   357 NM
   from [4]HSDB

   Vapor Pressure
        0.2 mm Hg at 154 deg C (est)
   from [5]HSDB

   Other Chemical/Physical Properties
        Solidifies on standing in the cold.
   from [6]HSDB

   Computed Properties
   Molecular Weight                  177.20314 [g/mol]
   Molecular Formula                 C[9]H[11]N[3]O
   XLogP3-AA                         1.1
   H-Bond Donor                      0
   H-Bond Acceptor                   4
   Rotatable Bond Count              1
   Exact Mass                        177.090212
   MonoIsotopic Mass                 177.090212
   Topological Polar Surface Area    45.6
   Heavy Atom Count                  13
   Formal Charge                     0
   Complexity                        186
   Isotope Atom Count                0
   Defined Atom Stereocenter Count   0
   Undefined Atom Stereocenter Count 1
   Defined Bond Stereocenter Count   0
   Undefined Bond Stereocenter Count 0
   Covalently-Bonded Unit Count      1
   Feature 3D Acceptor Count         1
   Feature 3D Ring Count             2
   Effective Rotor Count             3
   Conformer Sampling RMSD           0.6
   CID Conformer Count               [7]26

References

   1. http://toxnet.nlm.nih.gov/cgi-bin/sis/search/r?dbs+hsdb:@term+@rn+@rel+16543-55-8
   2. http://toxnet.nlm.nih.gov/cgi-bin/sis/search/r?dbs+hsdb:@term+@rn+@rel+16543-55-8
   3. http://toxnet.nlm.nih.gov/cgi-bin/sis/search/r?dbs+hsdb:@term+@rn+@rel+16543-55-8
   4. http://toxnet.nlm.nih.gov/cgi-bin/sis/search/r?dbs+hsdb:@term+@rn+@rel+16543-55-8
   5. http://toxnet.nlm.nih.gov/cgi-bin/sis/search/r?dbs+hsdb:@term+@rn+@rel+16543-55-8
   6. http://toxnet.nlm.nih.gov/cgi-bin/sis/search/r?dbs+hsdb:@term+@rn+@rel+16543-55-8
   7. http://pubchem.ncbi.nlm.nih.gov/vw3d/vw3d.cgi?cid=27919
