181538
  -OEChem-07051213032D

 48 53  0     1  0  0  0  0  0999 V2000
    4.5732    3.5673    0.0000 O   0  0  0  0  0  0  0  0  0  0  0  0
    3.1278    4.4167    0.0000 O   0  0  0  0  0  0  0  0  0  0  0  0
    5.5740   -3.5278    0.0000 O   0  0  0  0  0  0  0  0  0  0  0  0
    4.0684   -4.4125    0.0000 O   0  0  0  0  0  0  0  0  0  0  0  0
    6.3821    0.3368    0.0000 O   0  0  0  0  0  0  0  0  0  0  0  0
    4.6501    0.3368    0.0000 N   0  0  3  0  0  0  0  0  0  0  0  0
    4.6501    1.3368    0.0000 C   0  0  3  0  0  0  0  0  0  0  0  0
    3.7841    1.8368    0.0000 C   0  0  0  0  0  0  0  0  0  0  0  0
    3.7841   -0.1632    0.0000 C   0  0  0  0  0  0  0  0  0  0  0  0
    2.9180    1.3368    0.0000 C   0  0  0  0  0  0  0  0  0  0  0  0
    2.9180    0.3368    0.0000 C   0  0  0  0  0  0  0  0  0  0  0  0
    5.5161    1.8368    0.0000 C   0  0  0  0  0  0  0  0  0  0  0  0
    3.8001   -1.2047    0.0000 C   0  0  0  0  0  0  0  0  0  0  0  0
    3.8001    2.8783    0.0000 C   0  0  0  0  0  0  0  0  0  0  0  0
    5.5161   -0.1632    0.0000 C   0  0  0  0  0  0  0  0  0  0  0  0
    2.9021   -1.7324    0.0000 C   0  0  0  0  0  0  0  0  0  0  0  0
    2.0080   -0.1700    0.0000 C   0  0  0  0  0  0  0  0  0  0  0  0
    2.0080    1.8437    0.0000 C   0  0  0  0  0  0  0  0  0  0  0  0
    2.9021    3.4061    0.0000 C   0  0  0  0  0  0  0  0  0  0  0  0
    2.0000   -1.2116    0.0000 C   0  0  0  0  0  0  0  0  0  0  0  0
    2.0000    2.8853    0.0000 C   0  0  0  0  0  0  0  0  0  0  0  0
    4.7520   -1.7253    0.0000 C   0  0  0  0  0  0  0  0  0  0  0  0
    6.3821    1.3368    0.0000 C   0  0  0  0  0  0  0  0  0  0  0  0
    2.8937   -2.8174    0.0000 C   0  0  0  0  0  0  0  0  0  0  0  0
    4.7688   -2.8102    0.0000 C   0  0  0  0  0  0  0  0  0  0  0  0
    3.8334   -3.3599    0.0000 C   0  0  0  0  0  0  0  0  0  0  0  0
    4.1585    4.5161    0.0000 C   0  0  0  0  0  0  0  0  0  0  0  0
    7.2482    1.8368    0.0000 C   0  0  0  0  0  0  0  0  0  0  0  0
    5.1420   -4.5161    0.0000 C   0  0  0  0  0  0  0  0  0  0  0  0
    5.1870    1.0268    0.0000 H   0  0  0  0  0  0  0  0  0  0  0  0
    5.9146    2.3118    0.0000 H   0  0  0  0  0  0  0  0  0  0  0  0
    5.1176    2.3118    0.0000 H   0  0  0  0  0  0  0  0  0  0  0  0
    5.2061   -0.7001    0.0000 H   0  0  0  0  0  0  0  0  0  0  0  0
    6.0530   -0.4732    0.0000 H   0  0  0  0  0  0  0  0  0  0  0  0
    5.8261    0.3738    0.0000 H   0  0  0  0  0  0  0  0  0  0  0  0
    1.4747    0.1462    0.0000 H   0  0  0  0  0  0  0  0  0  0  0  0
    1.4747    1.5275    0.0000 H   0  0  0  0  0  0  0  0  0  0  0  0
    1.4619   -1.5195    0.0000 H   0  0  0  0  0  0  0  0  0  0  0  0
    1.4619    3.1932    0.0000 H   0  0  0  0  0  0  0  0  0  0  0  0
    5.2829   -1.4050    0.0000 H   0  0  0  0  0  0  0  0  0  0  0  0
    2.3556   -3.1253    0.0000 H   0  0  0  0  0  0  0  0  0  0  0  0
    4.7495    4.7033    0.0000 H   0  0  0  0  0  0  0  0  0  0  0  0
    4.0344    5.1235    0.0000 H   0  0  0  0  0  0  0  0  0  0  0  0
    7.5582    1.2999    0.0000 H   0  0  0  0  0  0  0  0  0  0  0  0
    7.7851    2.1468    0.0000 H   0  0  0  0  0  0  0  0  0  0  0  0
    6.9382    2.3738    0.0000 H   0  0  0  0  0  0  0  0  0  0  0  0
    5.0180   -5.1235    0.0000 H   0  0  0  0  0  0  0  0  0  0  0  0
    5.7331   -4.7033    0.0000 H   0  0  0  0  0  0  0  0  0  0  0  0
  1 14  1  0  0  0  0
  1 27  1  0  0  0  0
  2 19  1  0  0  0  0
  2 27  1  0  0  0  0
  3 25  1  0  0  0  0
  3 29  1  0  0  0  0
  4 26  1  0  0  0  0
  4 29  1  0  0  0  0
  5 23  2  0  0  0  0
  6  7  1  0  0  0  0
  6  9  1  0  0  0  0
  6 15  1  0  0  0  0
  7  8  1  0  0  0  0
  7 12  1  0  0  0  0
  7 30  1  0  0  0  0
  8 10  2  0  0  0  0
  8 14  1  0  0  0  0
  9 11  2  0  0  0  0
  9 13  1  0  0  0  0
 10 11  1  0  0  0  0
 10 18  1  0  0  0  0
 11 17  1  0  0  0  0
 12 23  1  0  0  0  0
 12 31  1  0  0  0  0
 12 32  1  0  0  0  0
 13 16  1  0  0  0  0
 13 22  2  0  0  0  0
 14 19  2  0  0  0  0
 15 33  1  0  0  0  0
 15 34  1  0  0  0  0
 15 35  1  0  0  0  0
 16 20  1  0  0  0  0
 16 24  2  0  0  0  0
 17 20  2  0  0  0  0
 17 36  1  0  0  0  0
 18 21  2  0  0  0  0
 18 37  1  0  0  0  0
 19 21  1  0  0  0  0
 20 38  1  0  0  0  0
 21 39  1  0  0  0  0
 22 25  1  0  0  0  0
 22 40  1  0  0  0  0
 23 28  1  0  0  0  0
 24 26  1  0  0  0  0
 24 41  1  0  0  0  0
 25 26  2  0  0  0  0
 27 42  1  0  0  0  0
 27 43  1  0  0  0  0
 28 44  1  0  0  0  0
 28 45  1  0  0  0  0
 28 46  1  0  0  0  0
 29 47  1  0  0  0  0
 29 48  1  0  0  0  0
M  END
> <PUBCHEM_COMPOUND_CID>
181538

> <PUBCHEM_COMPOUND_CANONICALIZED>
1

> <PUBCHEM_CACTVS_COMPLEXITY>
657

> <PUBCHEM_CACTVS_HBOND_ACCEPTOR>
6

> <PUBCHEM_CACTVS_HBOND_DONOR>
0

> <PUBCHEM_CACTVS_ROTATABLE_BOND>
2

> <PUBCHEM_CACTVS_SUBSKEYS>
AAADceB6OAAAAAAAAAAAAAAAAAAAASJAAAA8YMEAAAAAAEjxVAAAHgAAAAAADCzBmAcyzsMABACIAqRSQACCCAAhIAAIiAEOzIgdJjrEsZukMCpmwBHO6Ae43PPO4AADQAAaQADAAAaAADSAAAAAAAAAAA==

> <PUBCHEM_IUPAC_INCHI>
InChI=1S/C23H19NO5/c1-12(25)7-17-21-14(5-6-18-23(21)29-11-26-18)15-4-3-13-8-19-20(28-10-27-19)9-16(13)22(15)24(17)2/h3-6,8-9,17H,7,10-11H2,1-2H3

> <PUBCHEM_IUPAC_INCHIKEY>
ONEHMWWDDDSJBB-UHFFFAOYSA-N

> <PUBCHEM_XLOGP3_AA>
3.8

> <PUBCHEM_EXACT_MASS>
389.126323

> <PUBCHEM_MOLECULAR_FORMULA>
C23H19NO5

> <PUBCHEM_MOLECULAR_WEIGHT>
389.40066

> <PUBCHEM_OPENEYE_CAN_SMILES>
CC(=O)CC1C2=C(C=CC3=C2OCO3)C4=C(N1C)C5=CC6=C(C=C5C=C4)OCO6

> <PUBCHEM_OPENEYE_ISO_SMILES>
CC(=O)CC1C2=C(C=CC3=C2OCO3)C4=C(N1C)C5=CC6=C(C=C5C=C4)OCO6

> <PUBCHEM_CACTVS_TPSA>
57.2

> <PUBCHEM_MONOISOTOPIC_WEIGHT>
389.126323

> <PUBCHEM_TOTAL_CHARGE>
0

> <PUBCHEM_HEAVY_ATOM_COUNT>
29

> <PUBCHEM_ATOM_DEF_STEREO_COUNT>
0

> <PUBCHEM_ATOM_UDEF_STEREO_COUNT>
1

> <PUBCHEM_BOND_DEF_STEREO_COUNT>
0

> <PUBCHEM_BOND_UDEF_STEREO_COUNT>
0

> <PUBCHEM_ISOTOPIC_ATOM_COUNT>
0

> <PUBCHEM_COMPONENT_COUNT>
1

> <PUBCHEM_CACTVS_TAUTO_COUNT>
3

> <PUBCHEM_COORDINATE_TYPE>
1
5
255

> <PUBCHEM_BONDANNOTATIONS>
10  18  8
11  17  8
13  16  8
13  22  8
14  19  8
16  20  8
16  24  8
17  20  8
18  21  8
19  21  8
22  25  8
24  26  8
25  26  8
7  12  3
8  10  8
8  14  8
9  11  8
9  13  8

$$$$

