   Color/Form

     * White crystals from water
     * White crystals

   from [1]HSDB

   Taste
        Tasteless
   from [2]HSDB

   Melting Point
        176 deg C
   from [3]HSDB

   Octanol/Water Partition Coefficient
        log Kow = 1.84
   from [4]HSDB

   Solubilities

     * Slightly soluble in cold water, freely soluble in hot water or in
       alcohol.
     * Slightly soluble in water, ethyl ether, chloroform, very soluble in
       ethanol
     * In water, 670 mg/L at 25 deg C (est)

   from [5]HSDB

   Spectral Properties

     * MASS: 22925 (NIST/EPA/MSDC Mass Spectral Database, 1990 version)
     * IR: 3705 (Sadtler Research Laboratories IR grating collection)
     * UV: 10887 (Sadtler Research Laboratories spectral collection)

   from [6]HSDB

   Vapor Pressure
        9.1X10-12 mm Hg at 25 deg C (est)
   from [7]HSDB

   Other Chemical/Physical Properties

     * Henry's Law constant = 3.6X10-14 atm-cu m/mol at 25 deg C (est)
     * Hydroxyl radical reaction rate constant = 1.07X10-11 cu
       cm/molec-sec at 25 deg C (est)

   from [8]HSDB

   Computed Properties
   Molecular Weight                  246.26186 [g/mol]
   Molecular Formula                 C[13]H[14]N[2]O[3]
   XLogP3                            1.8
   H-Bond Donor                      1
   H-Bond Acceptor                   3
   Rotatable Bond Count              2
   Tautomer Count                    3
   Exact Mass                        246.100442
   MonoIsotopic Mass                 246.100442
   Topological Polar Surface Area    66.5
   Heavy Atom Count                  18
   Formal Charge                     0
   Complexity                        388
   Isotope Atom Count                0
   Defined Atom Stereocenter Count   0
   Undefined Atom Stereocenter Count 1
   Defined Bond Stereocenter Count   0
   Undefined Bond Stereocenter Count 0
   Covalently-Bonded Unit Count      1
   Feature 3D Acceptor Count         3
   Feature 3D Donor Count            1
   Feature 3D Hydrophobe Count       1
   Feature 3D Ring Count             2
   Effective Rotor Count             2.6
   Conformer Sampling RMSD           0.6
   CID Conformer Count               [9]13

References

   1. http://toxnet.nlm.nih.gov/cgi-bin/sis/search/r?dbs+hsdb:@term+@rn+@rel+115-38-8
   2. http://toxnet.nlm.nih.gov/cgi-bin/sis/search/r?dbs+hsdb:@term+@rn+@rel+115-38-8
   3. http://toxnet.nlm.nih.gov/cgi-bin/sis/search/r?dbs+hsdb:@term+@rn+@rel+115-38-8
   4. http://toxnet.nlm.nih.gov/cgi-bin/sis/search/r?dbs+hsdb:@term+@rn+@rel+115-38-8
   5. http://toxnet.nlm.nih.gov/cgi-bin/sis/search/r?dbs+hsdb:@term+@rn+@rel+115-38-8
   6. http://toxnet.nlm.nih.gov/cgi-bin/sis/search/r?dbs+hsdb:@term+@rn+@rel+115-38-8
   7. http://toxnet.nlm.nih.gov/cgi-bin/sis/search/r?dbs+hsdb:@term+@rn+@rel+115-38-8
   8. http://toxnet.nlm.nih.gov/cgi-bin/sis/search/r?dbs+hsdb:@term+@rn+@rel+115-38-8
   9. http://pubchem.ncbi.nlm.nih.gov/vw3d/vw3d.cgi?cid=8271
