   Color/Form
        Colorless to white crystals
   from [1]HSDB

   Melting Point
        53-54 deg C
   from [2]HSDB

   Corrosivity
        Non-corrosive
   from [3]HSDB

   Density/Specific Gravity
        1.23 at 20 deg C
   from [4]HSDB

   Octanol/Water Partition Coefficient
        log Kow = 4.30
   from [5]HSDB

   Solubilities

     * In ethanol 510, acetone 770, toluene 630, n-hexane 5.3, n-octanol
       130 (all in g/L, 25 deg C).
     * In water, 6.00 mg/L at 20 deg C [Shiu WY et al; Rev Environ Contam
       Toxicol 116: 15-187 (1990)] [6]PubMed Abstract

   from [7]HSDB

   Vapor Pressure
        6.5X10-9 mm Hg at 25 deg C /8.67X10-4 mPa/
   from [8]HSDB

   Other Chemical/Physical Properties

     * Freezing point = approximately 224 deg C
     * Henry's Law constant = 4.30X10-10 atm-cu m/mole at 25 deg C (est)
     * Hydroxyl radical reaction rate constant = 6.53X10-11 cu
       cm/molec-sec at 25 deg C (est)

   from [9]HSDB

   Computed Properties
   Molecular Weight                  301.33706 [g/mol]
   Molecular Formula                 C[17]H[19]NO[4]
   XLogP3                            4.3
   H-Bond Donor                      1
   H-Bond Acceptor                   4
   Rotatable Bond Count              8
   Tautomer Count                    2
   Exact Mass                        301.131408
   MonoIsotopic Mass                 301.131408
   Topological Polar Surface Area    56.8
   Heavy Atom Count                  22
   Formal Charge                     0
   Complexity                        310
   Isotope Atom Count                0
   Defined Atom Stereocenter Count   0
   Undefined Atom Stereocenter Count 0
   Defined Bond Stereocenter Count   0
   Undefined Bond Stereocenter Count 0
   Covalently-Bonded Unit Count      1
   Feature 3D Acceptor Count         3
   Feature 3D Donor Count            1
   Feature 3D Ring Count             2
   Effective Rotor Count             9
   Conformer Sampling RMSD           0.8
   CID Conformer Count               [10]227

References

   1. http://toxnet.nlm.nih.gov/cgi-bin/sis/search/r?dbs+hsdb:@term+@rn+@rel+72490-01-8
   2. http://toxnet.nlm.nih.gov/cgi-bin/sis/search/r?dbs+hsdb:@term+@rn+@rel+72490-01-8
   3. http://toxnet.nlm.nih.gov/cgi-bin/sis/search/r?dbs+hsdb:@term+@rn+@rel+72490-01-8
   4. http://toxnet.nlm.nih.gov/cgi-bin/sis/search/r?dbs+hsdb:@term+@rn+@rel+72490-01-8
   5. http://toxnet.nlm.nih.gov/cgi-bin/sis/search/r?dbs+hsdb:@term+@rn+@rel+72490-01-8
   6. http://www.ncbi.nlm.nih.gov/entrez/query.fcgi?cmd=Retrieve&db=pubmed&dopt=Abstract&list_uids=2205893
   7. http://toxnet.nlm.nih.gov/cgi-bin/sis/search/r?dbs+hsdb:@term+@rn+@rel+72490-01-8
   8. http://toxnet.nlm.nih.gov/cgi-bin/sis/search/r?dbs+hsdb:@term+@rn+@rel+72490-01-8
   9. http://toxnet.nlm.nih.gov/cgi-bin/sis/search/r?dbs+hsdb:@term+@rn+@rel+72490-01-8
  10. http://pubchem.ncbi.nlm.nih.gov/vw3d/vw3d.cgi?cid=51605
