46173904
  -OEChem-07051213102D

 33 36  0     1  0  0  0  0  0999 V2000
    6.1846    1.2491    0.0000 O   0  0  0  0  0  0  0  0  0  0  0  0
    2.8495    1.0820    0.0000 O   0  0  0  0  0  0  0  0  0  0  0  0
    4.3723   -1.8898    0.0000 C   0  0  2  0  0  0  0  0  0  0  0  0
    3.3836   -1.9929    0.0000 C   0  0  2  0  0  0  0  0  0  0  0  0
    4.5816   -0.9180    0.0000 C   0  0  1  0  0  0  0  0  0  0  0  0
    3.9673   -2.7981    0.0000 C   0  0  0  0  0  0  0  0  0  0  0  0
    2.9785   -1.0851    0.0000 C   0  0  0  0  0  0  0  0  0  0  0  0
    3.7155   -0.4180    0.0000 C   0  0  0  0  0  0  0  0  0  0  0  0
    5.4476   -0.4180    0.0000 C   0  0  0  0  0  0  0  0  0  0  0  0
    5.4476   -1.4180    0.0000 C   0  0  0  0  0  0  0  0  0  0  0  0
    3.7155    0.5820    0.0000 C   0  0  0  0  0  0  0  0  0  0  0  0
    2.0000   -0.8789    0.0000 C   0  0  0  0  0  0  0  0  0  0  0  0
    5.4476    0.5820    0.0000 C   0  0  0  0  0  0  0  0  0  0  0  0
    4.5816    1.0820    0.0000 C   0  0  0  0  0  0  0  0  0  0  0  0
    4.7908    2.0538    0.0000 C   0  0  0  0  0  0  0  0  0  0  0  0
    5.7795    2.1569    0.0000 C   0  0  0  0  0  0  0  0  0  0  0  0
    4.1229    2.7981    0.0000 C   0  0  0  0  0  0  0  0  0  0  0  0
    5.1803   -2.1538    0.0000 H   0  0  0  0  0  0  0  0  0  0  0  0
    2.6474   -2.4178    0.0000 H   0  0  0  0  0  0  0  0  0  0  0  0
    3.5362   -3.2437    0.0000 H   0  0  0  0  0  0  0  0  0  0  0  0
    4.4810   -3.1452    0.0000 H   0  0  0  0  0  0  0  0  0  0  0  0
    5.6596   -1.0006    0.0000 H   0  0  0  0  0  0  0  0  0  0  0  0
    6.0582   -0.3103    0.0000 H   0  0  0  0  0  0  0  0  0  0  0  0
    5.1376   -1.9549    0.0000 H   0  0  0  0  0  0  0  0  0  0  0  0
    5.9845   -1.7280    0.0000 H   0  0  0  0  0  0  0  0  0  0  0  0
    5.7576   -0.8811    0.0000 H   0  0  0  0  0  0  0  0  0  0  0  0
    2.1279   -0.2722    0.0000 H   0  0  0  0  0  0  0  0  0  0  0  0
    1.3933   -0.7510    0.0000 H   0  0  0  0  0  0  0  0  0  0  0  0
    1.8721   -1.4855    0.0000 H   0  0  0  0  0  0  0  0  0  0  0  0
    6.0895    2.6938    0.0000 H   0  0  0  0  0  0  0  0  0  0  0  0
    4.5844    3.2122    0.0000 H   0  0  0  0  0  0  0  0  0  0  0  0
    3.7088    3.2596    0.0000 H   0  0  0  0  0  0  0  0  0  0  0  0
    3.6614    2.3840    0.0000 H   0  0  0  0  0  0  0  0  0  0  0  0
  1 13  1  0  0  0  0
  1 16  1  0  0  0  0
  2 11  2  0  0  0  0
  3  4  1  0  0  0  0
  3  5  1  0  0  0  0
  3  6  1  0  0  0  0
  3 18  1  1  0  0  0
  4  6  1  0  0  0  0
  4  7  1  0  0  0  0
  4 19  1  1  0  0  0
  5  8  1  0  0  0  0
  5  9  1  0  0  0  0
  5 10  1  6  0  0  0
  6 20  1  0  0  0  0
  6 21  1  0  0  0  0
  7  8  2  0  0  0  0
  7 12  1  0  0  0  0
  8 11  1  0  0  0  0
  9 13  1  0  0  0  0
  9 22  1  0  0  0  0
  9 23  1  0  0  0  0
 10 24  1  0  0  0  0
 10 25  1  0  0  0  0
 10 26  1  0  0  0  0
 11 14  1  0  0  0  0
 12 27  1  0  0  0  0
 12 28  1  0  0  0  0
 12 29  1  0  0  0  0
 13 14  2  0  0  0  0
 14 15  1  0  0  0  0
 15 16  2  0  0  0  0
 15 17  1  0  0  0  0
 16 30  1  0  0  0  0
 17 31  1  0  0  0  0
 17 32  1  0  0  0  0
 17 33  1  0  0  0  0
M  END
> <PUBCHEM_COMPOUND_CID>
46173904

> <PUBCHEM_COMPOUND_CANONICALIZED>
1

> <PUBCHEM_CACTVS_COMPLEXITY>
450

> <PUBCHEM_CACTVS_HBOND_ACCEPTOR>
2

> <PUBCHEM_CACTVS_HBOND_DONOR>
0

> <PUBCHEM_CACTVS_ROTATABLE_BOND>
0

> <PUBCHEM_CACTVS_SUBSKEYS>
AAADceBwMAAAAAAAAAAAAAAAGAAAASIAAAAwQAAAAAAAAEgBgAAAGgAAAAAADwSgmAIiBIAABECIAohSgAACCAAkIAAAiAEECMgMJjaMNRqCGWCk4BEIqQeLzvDvgAAAAAAAAACAAAIAABAAAAAAAAAAAA==

> <PUBCHEM_IUPAC_INCHI>
InChI=1S/C15H16O2/c1-7-6-17-11-5-15(3)10-4-9(10)8(2)13(15)14(16)12(7)11/h6,9-10H,4-5H2,1-3H3/t9-,10-,15+/m1/s1

> <PUBCHEM_IUPAC_INCHIKEY>
JWUZQAFWZLAXJS-FCHSOHFDSA-N

> <PUBCHEM_XLOGP3_AA>
2.7

> <PUBCHEM_EXACT_MASS>
228.11503

> <PUBCHEM_MOLECULAR_FORMULA>
C15H16O2

> <PUBCHEM_MOLECULAR_WEIGHT>
228.28634

> <PUBCHEM_OPENEYE_CAN_SMILES>
CC1=COC2=C1C(=O)C3=C(C4CC4C3(C2)C)C

> <PUBCHEM_OPENEYE_ISO_SMILES>
CC1=COC2=C1C(=O)C3=C([C@H]4C[C@H]4[C@@]3(C2)C)C

> <PUBCHEM_CACTVS_TPSA>
30.2

> <PUBCHEM_MONOISOTOPIC_WEIGHT>
228.11503

> <PUBCHEM_TOTAL_CHARGE>
0

> <PUBCHEM_HEAVY_ATOM_COUNT>
17

> <PUBCHEM_ATOM_DEF_STEREO_COUNT>
3

> <PUBCHEM_ATOM_UDEF_STEREO_COUNT>
0

> <PUBCHEM_BOND_DEF_STEREO_COUNT>
0

> <PUBCHEM_BOND_UDEF_STEREO_COUNT>
0

> <PUBCHEM_ISOTOPIC_ATOM_COUNT>
0

> <PUBCHEM_COMPONENT_COUNT>
1

> <PUBCHEM_CACTVS_TAUTO_COUNT>
5

> <PUBCHEM_COORDINATE_TYPE>
1
5
255

> <PUBCHEM_BONDANNOTATIONS>
1  13  8
1  16  8
13  14  8
14  15  8
15  16  8
3  18  5
4  19  5
5  10  6

$$$$

