441404
  -OEChem-07051212542D

 70 74  0     1  0  0  0  0  0999 V2000
    8.6500    0.2110    0.0000 O   0  0  0  0  0  0  0  0  0  0  0  0
    2.0000   -4.0966    0.0000 O   0  0  0  0  0  0  0  0  0  0  0  0
   10.2963   -0.3271    0.0000 O   0  0  0  0  0  0  0  0  0  0  0  0
    7.3931   -2.0443    0.0000 C   0  0  2  0  0  0  0  0  0  0  0  0
    7.3931   -1.0443    0.0000 C   0  0  2  0  0  0  0  0  0  0  0  0
    6.5271   -2.5443    0.0000 C   0  0  1  0  0  0  0  0  0  0  0  0
    5.6610   -2.0443    0.0000 C   0  0  1  0  0  0  0  0  0  0  0  0
    4.7510   -2.5511    0.0000 C   0  0  2  0  0  0  0  0  0  0  0  0
    6.5271   -0.5443    0.0000 C   0  0  0  0  0  0  0  0  0  0  0  0
    5.6610   -1.0443    0.0000 C   0  0  0  0  0  0  0  0  0  0  0  0
    8.3393   -0.7396    0.0000 C   0  0  2  0  0  0  0  0  0  0  0  0
    8.3393   -2.3490    0.0000 C   0  0  0  0  0  0  0  0  0  0  0  0
    6.5431   -3.5858    0.0000 C   0  0  0  0  0  0  0  0  0  0  0  0
    8.9229   -1.5443    0.0000 C   0  0  0  0  0  0  0  0  0  0  0  0
    4.7430   -3.5927    0.0000 C   0  0  0  0  0  0  0  0  0  0  0  0
    7.3931   -0.0443    0.0000 C   0  0  0  0  0  0  0  0  0  0  0  0
    5.6451   -4.1136    0.0000 C   0  0  0  0  0  0  0  0  0  0  0  0
    3.8242   -1.9871    0.0000 C   0  0  0  0  0  0  0  0  0  0  0  0
    4.7587   -1.5512    0.0000 C   0  0  0  0  0  0  0  0  0  0  0  0
    2.8763   -2.5150    0.0000 C   0  0  0  0  0  0  0  0  0  0  0  0
    3.8076   -4.1425    0.0000 C   0  0  0  0  0  0  0  0  0  0  0  0
    2.8680   -3.6000    0.0000 C   0  0  0  0  0  0  0  0  0  0  0  0
    9.6285    0.4172    0.0000 C   0  0  0  0  0  0  0  0  0  0  0  0
    9.9391    1.3677    0.0000 C   0  0  0  0  0  0  0  0  0  0  0  0
   10.9176    1.5739    0.0000 C   0  0  0  0  0  0  0  0  0  0  0  0
   11.2283    2.5244    0.0000 C   0  0  0  0  0  0  0  0  0  0  0  0
   12.1799    2.8318    0.0000 C   0  0  0  0  0  0  0  0  0  0  0  0
   10.6419    3.3345    0.0000 C   0  0  0  0  0  0  0  0  0  0  0  0
   11.2311    4.1425    0.0000 C   0  0  0  0  0  0  0  0  0  0  0  0
   12.1816    3.8318    0.0000 C   0  0  0  0  0  0  0  0  0  0  0  0
    7.4830   -2.8895    0.0000 H   0  0  0  0  0  0  0  0  0  0  0  0
    7.2664   -2.9636    0.0000 H   0  0  0  0  0  0  0  0  0  0  0  0
    6.3972   -1.6193    0.0000 H   0  0  0  0  0  0  0  0  0  0  0  0
    6.9256   -0.0693    0.0000 H   0  0  0  0  0  0  0  0  0  0  0  0
    6.1285   -0.0693    0.0000 H   0  0  0  0  0  0  0  0  0  0  0  0
    5.4490   -0.4617    0.0000 H   0  0  0  0  0  0  0  0  0  0  0  0
    5.0504   -1.1520    0.0000 H   0  0  0  0  0  0  0  0  0  0  0  0
    7.9018   -0.3002    0.0000 H   0  0  0  0  0  0  0  0  0  0  0  0
    8.0883   -2.9159    0.0000 H   0  0  0  0  0  0  0  0  0  0  0  0
    8.8767   -2.6582    0.0000 H   0  0  0  0  0  0  0  0  0  0  0  0
    6.7612   -4.1662    0.0000 H   0  0  0  0  0  0  0  0  0  0  0  0
    7.1523   -3.4703    0.0000 H   0  0  0  0  0  0  0  0  0  0  0  0
    9.3838   -1.9590    0.0000 H   0  0  0  0  0  0  0  0  0  0  0  0
    9.3838   -1.1296    0.0000 H   0  0  0  0  0  0  0  0  0  0  0  0
    8.0131   -0.0443    0.0000 H   0  0  0  0  0  0  0  0  0  0  0  0
    7.3931    0.5757    0.0000 H   0  0  0  0  0  0  0  0  0  0  0  0
    6.7731   -0.0443    0.0000 H   0  0  0  0  0  0  0  0  0  0  0  0
    5.2478   -4.5895    0.0000 H   0  0  0  0  0  0  0  0  0  0  0  0
    6.0460   -4.5864    0.0000 H   0  0  0  0  0  0  0  0  0  0  0  0
    4.2324   -1.5204    0.0000 H   0  0  0  0  0  0  0  0  0  0  0  0
    3.4343   -1.5050    0.0000 H   0  0  0  0  0  0  0  0  0  0  0  0
    5.3787   -1.5560    0.0000 H   0  0  0  0  0  0  0  0  0  0  0  0
    4.7635   -0.9312    0.0000 H   0  0  0  0  0  0  0  0  0  0  0  0
    4.1388   -1.5464    0.0000 H   0  0  0  0  0  0  0  0  0  0  0  0
    2.6718   -1.9297    0.0000 H   0  0  0  0  0  0  0  0  0  0  0  0
    2.2647   -2.6164    0.0000 H   0  0  0  0  0  0  0  0  0  0  0  0
    3.8100   -4.7625    0.0000 H   0  0  0  0  0  0  0  0  0  0  0  0
    9.9186    1.9874    0.0000 H   0  0  0  0  0  0  0  0  0  0  0  0
    9.3253    1.4550    0.0000 H   0  0  0  0  0  0  0  0  0  0  0  0
   10.9382    0.9543    0.0000 H   0  0  0  0  0  0  0  0  0  0  0  0
   11.5315    1.4866    0.0000 H   0  0  0  0  0  0  0  0  0  0  0  0
   11.6659    2.0853    0.0000 H   0  0  0  0  0  0  0  0  0  0  0  0
   10.1819    3.7501    0.0000 H   0  0  0  0  0  0  0  0  0  0  0  0
   10.1805    2.9204    0.0000 H   0  0  0  0  0  0  0  0  0  0  0  0
   12.3077    2.2251    0.0000 H   0  0  0  0  0  0  0  0  0  0  0  0
   12.7966    2.8956    0.0000 H   0  0  0  0  0  0  0  0  0  0  0  0
   11.4843    4.7084    0.0000 H   0  0  0  0  0  0  0  0  0  0  0  0
   10.6947    4.4534    0.0000 H   0  0  0  0  0  0  0  0  0  0  0  0
   12.7981    3.7659    0.0000 H   0  0  0  0  0  0  0  0  0  0  0  0
   12.3116    4.4380    0.0000 H   0  0  0  0  0  0  0  0  0  0  0  0
 11  1  1  1  0  0  0
  1 23  1  0  0  0  0
  2 22  2  0  0  0  0
  3 23  2  0  0  0  0
  4  5  1  0  0  0  0
  4  6  1  0  0  0  0
  4 12  1  0  0  0  0
  4 31  1  6  0  0  0
  5  9  1  0  0  0  0
  5 11  1  0  0  0  0
  5 16  1  1  0  0  0
  6  7  1  0  0  0  0
  6 13  1  0  0  0  0
  6 32  1  1  0  0  0
  7  8  1  0  0  0  0
  7 10  1  0  0  0  0
  7 33  1  6  0  0  0
  8 15  1  0  0  0  0
  8 18  1  0  0  0  0
  8 19  1  1  0  0  0
  9 10  1  0  0  0  0
  9 34  1  0  0  0  0
  9 35  1  0  0  0  0
 10 36  1  0  0  0  0
 10 37  1  0  0  0  0
 11 14  1  0  0  0  0
 11 38  1  0  0  0  0
 12 14  1  0  0  0  0
 12 39  1  0  0  0  0
 12 40  1  0  0  0  0
 13 17  1  0  0  0  0
 13 41  1  0  0  0  0
 13 42  1  0  0  0  0
 14 43  1  0  0  0  0
 14 44  1  0  0  0  0
 15 17  1  0  0  0  0
 15 21  2  0  0  0  0
 16 45  1  0  0  0  0
 16 46  1  0  0  0  0
 16 47  1  0  0  0  0
 17 48  1  0  0  0  0
 17 49  1  0  0  0  0
 18 20  1  0  0  0  0
 18 50  1  0  0  0  0
 18 51  1  0  0  0  0
 19 52  1  0  0  0  0
 19 53  1  0  0  0  0
 19 54  1  0  0  0  0
 20 22  1  0  0  0  0
 20 55  1  0  0  0  0
 20 56  1  0  0  0  0
 21 22  1  0  0  0  0
 21 57  1  0  0  0  0
 23 24  1  0  0  0  0
 24 25  1  0  0  0  0
 24 58  1  0  0  0  0
 24 59  1  0  0  0  0
 25 26  1  0  0  0  0
 25 60  1  0  0  0  0
 25 61  1  0  0  0  0
 26 27  1  0  0  0  0
 26 28  1  0  0  0  0
 26 62  1  0  0  0  0
 27 30  1  0  0  0  0
 27 65  1  0  0  0  0
 27 66  1  0  0  0  0
 28 29  1  0  0  0  0
 28 63  1  0  0  0  0
 28 64  1  0  0  0  0
 29 30  1  0  0  0  0
 29 67  1  0  0  0  0
 29 68  1  0  0  0  0
 30 69  1  0  0  0  0
 30 70  1  0  0  0  0
M  END
> <PUBCHEM_COMPOUND_CID>
441404

> <PUBCHEM_COMPOUND_CANONICALIZED>
1

> <PUBCHEM_CACTVS_COMPLEXITY>
732

> <PUBCHEM_CACTVS_HBOND_ACCEPTOR>
3

> <PUBCHEM_CACTVS_HBOND_DONOR>
0

> <PUBCHEM_CACTVS_ROTATABLE_BOND>
5

> <PUBCHEM_CACTVS_SUBSKEYS>
AAADcfB4MAAAAAAAAAAAAAAAAAAAAYMAAAAwYIAAAAAAAGDAAAAAGgAAAAAADxSggAICCAAABACIAqDSCAAAAAAgAAAACAEAAEgAABIAAQACAAAEgAAIAQOIyPCPgAAAAAAAAACAAAQAACAAAIAADAAAAA==

> <PUBCHEM_IUPAC_OPENEYE_NAME>
[(8R,9S,10R,13S,14S,17S)-10,13-dimethyl-3-oxo-1,2,6,7,8,9,11,12,14,15,16,17-dodecahydrocyclopenta[a]phenanthren-17-yl] 3-cyclopentylpropanoate

> <PUBCHEM_IUPAC_CAS_NAME>
3-cyclopentylpropanoic acid [(8R,9S,10R,13S,14S,17S)-10,13-dimethyl-3-oxo-1,2,6,7,8,9,11,12,14,15,16,17-dodecahydrocyclopenta[a]phenanthren-17-yl] ester

> <PUBCHEM_IUPAC_NAME>
[(8R,9S,10R,13S,14S,17S)-10,13-dimethyl-3-oxo-1,2,6,7,8,9,11,12,14,15,16,17-dodecahydrocyclopenta[a]phenanthren-17-yl] 3-cyclopentylpropanoate

> <PUBCHEM_IUPAC_SYSTEMATIC_NAME>
[(8R,9S,10R,13S,14S,17S)-10,13-dimethyl-3-oxidanylidene-1,2,6,7,8,9,11,12,14,15,16,17-dodecahydrocyclopenta[a]phenanthren-17-yl] 3-cyclopentylpropanoate

> <PUBCHEM_IUPAC_TRADITIONAL_NAME>
3-cyclopentylpropionic acid [(8R,9S,10R,13S,14S,17S)-3-keto-10,13-dimethyl-1,2,6,7,8,9,11,12,14,15,16,17-dodecahydrocyclopenta[a]phenanthren-17-yl] ester

> <PUBCHEM_IUPAC_INCHI>
InChI=1S/C27H40O3/c1-26-15-13-20(28)17-19(26)8-9-21-22-10-11-24(27(22,2)16-14-23(21)26)30-25(29)12-7-18-5-3-4-6-18/h17-18,21-24H,3-16H2,1-2H3/t21-,22-,23-,24-,26-,27-/m0/s1

> <PUBCHEM_IUPAC_INCHIKEY>
HPFVBGJFAYZEBE-ZLQWOROUSA-N

> <PUBCHEM_XLOGP3>
6.4

> <PUBCHEM_EXACT_MASS>
412.297745

> <PUBCHEM_MOLECULAR_FORMULA>
C27H40O3

> <PUBCHEM_MOLECULAR_WEIGHT>
412.6047

> <PUBCHEM_OPENEYE_CAN_SMILES>
CC12CCC3C(C1CCC2OC(=O)CCC4CCCC4)CCC5=CC(=O)CCC35C

> <PUBCHEM_OPENEYE_ISO_SMILES>
C[C@]12CC[C@H]3[C@H]([C@@H]1CC[C@@H]2OC(=O)CCC4CCCC4)CCC5=CC(=O)CC[C@]35C

> <PUBCHEM_CACTVS_TPSA>
43.4

> <PUBCHEM_MONOISOTOPIC_WEIGHT>
412.297745

> <PUBCHEM_TOTAL_CHARGE>
0

> <PUBCHEM_HEAVY_ATOM_COUNT>
30

> <PUBCHEM_ATOM_DEF_STEREO_COUNT>
6

> <PUBCHEM_ATOM_UDEF_STEREO_COUNT>
0

> <PUBCHEM_BOND_DEF_STEREO_COUNT>
0

> <PUBCHEM_BOND_UDEF_STEREO_COUNT>
0

> <PUBCHEM_ISOTOPIC_ATOM_COUNT>
0

> <PUBCHEM_COMPONENT_COUNT>
1

> <PUBCHEM_CACTVS_TAUTO_COUNT>
5

> <PUBCHEM_COORDINATE_TYPE>
1
5
255

> <PUBCHEM_BONDANNOTATIONS>
11  1  5
4  31  6
5  16  5
6  32  5
7  33  6
8  19  5

$$$$

