12802
  -OEChem-06261207232D

 21 22  0     0  0  0  0  0  0999 V2000
    4.3211    1.9468    0.0000 O   0  0  0  0  0  0  0  0  0  0  0  0
    4.6783   -1.3575    0.0000 N   0  0  0  0  0  0  0  0  0  0  0  0
    3.7320   -0.0527    0.0000 C   0  0  0  0  0  0  0  0  0  0  0  0
    3.7320   -1.0528    0.0000 C   0  0  0  0  0  0  0  0  0  0  0  0
    4.6783    0.2520    0.0000 C   0  0  0  0  0  0  0  0  0  0  0  0
    5.2619   -0.5528    0.0000 C   0  0  0  0  0  0  0  0  0  0  0  0
    2.8660    0.4472    0.0000 C   0  0  0  0  0  0  0  0  0  0  0  0
    2.8660   -1.5528    0.0000 C   0  0  0  0  0  0  0  0  0  0  0  0
    4.9889    1.2025    0.0000 C   0  0  0  0  0  0  0  0  0  0  0  0
    2.0000   -0.0527    0.0000 C   0  0  0  0  0  0  0  0  0  0  0  0
    2.0000   -1.0528    0.0000 C   0  0  0  0  0  0  0  0  0  0  0  0
    5.9674    1.4087    0.0000 C   0  0  0  0  0  0  0  0  0  0  0  0
    4.8709   -1.9468    0.0000 H   0  0  0  0  0  0  0  0  0  0  0  0
    5.8819   -0.5528    0.0000 H   0  0  0  0  0  0  0  0  0  0  0  0
    2.8660    1.0672    0.0000 H   0  0  0  0  0  0  0  0  0  0  0  0
    2.8660   -2.1728    0.0000 H   0  0  0  0  0  0  0  0  0  0  0  0
    1.4631    0.2572    0.0000 H   0  0  0  0  0  0  0  0  0  0  0  0
    1.4631   -1.3627    0.0000 H   0  0  0  0  0  0  0  0  0  0  0  0
    6.0953    0.8020    0.0000 H   0  0  0  0  0  0  0  0  0  0  0  0
    6.5741    1.5366    0.0000 H   0  0  0  0  0  0  0  0  0  0  0  0
    5.8396    2.0154    0.0000 H   0  0  0  0  0  0  0  0  0  0  0  0
  1  9  2  0  0  0  0
  2  4  1  0  0  0  0
  2  6  1  0  0  0  0
  2 13  1  0  0  0  0
  3  4  1  0  0  0  0
  3  5  1  0  0  0  0
  3  7  2  0  0  0  0
  4  8  2  0  0  0  0
  5  6  2  0  0  0  0
  5  9  1  0  0  0  0
  6 14  1  0  0  0  0
  7 10  1  0  0  0  0
  7 15  1  0  0  0  0
  8 11  1  0  0  0  0
  8 16  1  0  0  0  0
  9 12  1  0  0  0  0
 10 11  2  0  0  0  0
 10 17  1  0  0  0  0
 11 18  1  0  0  0  0
 12 19  1  0  0  0  0
 12 20  1  0  0  0  0
 12 21  1  0  0  0  0
M  END
> <PUBCHEM_COMPOUND_CID>
12802

> <PUBCHEM_COMPOUND_CANONICALIZED>
1

> <PUBCHEM_CACTVS_COMPLEXITY>
190

> <PUBCHEM_CACTVS_HBOND_ACCEPTOR>
1

> <PUBCHEM_CACTVS_HBOND_DONOR>
1

> <PUBCHEM_CACTVS_ROTATABLE_BOND>
1

> <PUBCHEM_CACTVS_SUBSKEYS>
AAADccByIAAAAAAAAAAAAAAAAAAAAWAAAAAwAAAAAAAAAFgB8AAAHgAQAAAADAzBngQ+wPLJkACoA7R3RACCgCA1AiAI2aE4ZNgIIPrAlZGEIYhgkADIyccciMCOgAAAAAACAAAAAAAAAAQAAAAAAAAAAA==

> <PUBCHEM_IUPAC_OPENEYE_NAME>
1-(1H-indol-3-yl)ethanone

> <PUBCHEM_IUPAC_CAS_NAME>
1-(1H-indol-3-yl)ethanone

> <PUBCHEM_IUPAC_NAME>
1-(1H-indol-3-yl)ethanone

> <PUBCHEM_IUPAC_SYSTEMATIC_NAME>
1-(1H-indol-3-yl)ethanone

> <PUBCHEM_IUPAC_TRADITIONAL_NAME>
1-(1H-indol-3-yl)ethanone

> <PUBCHEM_IUPAC_INCHI>
InChI=1S/C10H9NO/c1-7(12)9-6-11-10-5-3-2-4-8(9)10/h2-6,11H,1H3

> <PUBCHEM_IUPAC_INCHIKEY>
VUIMBZIZZFSQEE-UHFFFAOYSA-N

> <PUBCHEM_XLOGP3>
2.1

> <PUBCHEM_EXACT_MASS>
159.068414

> <PUBCHEM_MOLECULAR_FORMULA>
C10H9NO

> <PUBCHEM_MOLECULAR_WEIGHT>
159.18456

> <PUBCHEM_OPENEYE_CAN_SMILES>
CC(=O)C1=CNC2=CC=CC=C21

> <PUBCHEM_OPENEYE_ISO_SMILES>
CC(=O)C1=CNC2=CC=CC=C21

> <PUBCHEM_CACTVS_TPSA>
32.9

> <PUBCHEM_MONOISOTOPIC_WEIGHT>
159.068414

> <PUBCHEM_TOTAL_CHARGE>
0

> <PUBCHEM_HEAVY_ATOM_COUNT>
12

> <PUBCHEM_ATOM_DEF_STEREO_COUNT>
0

> <PUBCHEM_ATOM_UDEF_STEREO_COUNT>
0

> <PUBCHEM_BOND_DEF_STEREO_COUNT>
0

> <PUBCHEM_BOND_UDEF_STEREO_COUNT>
0

> <PUBCHEM_ISOTOPIC_ATOM_COUNT>
0

> <PUBCHEM_COMPONENT_COUNT>
1

> <PUBCHEM_CACTVS_TAUTO_COUNT>
5

> <PUBCHEM_COORDINATE_TYPE>
1
5
255

> <PUBCHEM_BONDANNOTATIONS>
10  11  8
2  4  8
2  6  8
3  4  8
3  5  8
3  7  8
4  8  8
5  6  8
7  10  8
8  11  8

$$$$

