17395458
  -OEChem-06241222502D

 37 38  0     1  0  0  0  0  0999 V2000
    3.7320   -4.4625    0.0000 Cl  0  0  0  0  0  0  0  0  0  0  0  0
    2.0000   -1.4625    0.0000 F   0  0  0  0  0  0  0  0  0  0  0  0
    4.8255    3.2012    0.0000 O   0  0  0  0  0  0  0  0  0  0  0  0
    6.5856    0.1526    0.0000 O   0  0  0  0  0  0  0  0  0  0  0  0
    5.4641   -0.4625    0.0000 O   0  0  0  0  0  0  0  0  0  0  0  0
    7.0468    1.8739    0.0000 N   0  0  0  0  0  0  0  0  0  0  0  0
    5.4641    1.5375    0.0000 N   0  0  0  0  0  0  0  0  0  0  0  0
    3.7320   -0.4625    0.0000 N   0  0  0  0  0  0  0  0  0  0  0  0
    6.5468    2.7399    0.0000 C   0  0  3  0  0  0  0  0  0  0  0  0
    6.9535    3.6535    0.0000 C   0  0  0  0  0  0  0  0  0  0  0  0
    5.5686    2.5320    0.0000 C   0  0  0  0  0  0  0  0  0  0  0  0
    7.9480    3.7580    0.0000 C   0  0  0  0  0  0  0  0  0  0  0  0
    6.3657    4.4625    0.0000 C   0  0  0  0  0  0  0  0  0  0  0  0
    6.3776    1.1308    0.0000 C   0  0  0  0  0  0  0  0  0  0  0  0
    4.5981    1.0375    0.0000 C   0  0  0  0  0  0  0  0  0  0  0  0
    4.5981    0.0375    0.0000 C   0  0  0  0  0  0  0  0  0  0  0  0
    3.7320   -1.4625    0.0000 C   0  0  0  0  0  0  0  0  0  0  0  0
    2.8660   -1.9625    0.0000 C   0  0  0  0  0  0  0  0  0  0  0  0
    4.5981   -1.9625    0.0000 C   0  0  0  0  0  0  0  0  0  0  0  0
    2.8660   -2.9625    0.0000 C   0  0  0  0  0  0  0  0  0  0  0  0
    4.5981   -2.9625    0.0000 C   0  0  0  0  0  0  0  0  0  0  0  0
    3.7320   -3.4625    0.0000 C   0  0  0  0  0  0  0  0  0  0  0  0
    7.1659    2.7724    0.0000 H   0  0  0  0  0  0  0  0  0  0  0  0
    6.3369    3.5887    0.0000 H   0  0  0  0  0  0  0  0  0  0  0  0
    7.6634    1.8091    0.0000 H   0  0  0  0  0  0  0  0  0  0  0  0
    6.8673    4.8269    0.0000 H   0  0  0  0  0  0  0  0  0  0  0  0
    6.0013    4.9641    0.0000 H   0  0  0  0  0  0  0  0  0  0  0  0
    8.0128    3.1414    0.0000 H   0  0  0  0  0  0  0  0  0  0  0  0
    8.5646    3.8228    0.0000 H   0  0  0  0  0  0  0  0  0  0  0  0
    7.8832    4.3746    0.0000 H   0  0  0  0  0  0  0  0  0  0  0  0
    5.8641    4.0981    0.0000 H   0  0  0  0  0  0  0  0  0  0  0  0
    4.3860    1.6201    0.0000 H   0  0  0  0  0  0  0  0  0  0  0  0
    3.9875    0.9298    0.0000 H   0  0  0  0  0  0  0  0  0  0  0  0
    3.1951   -0.1525    0.0000 H   0  0  0  0  0  0  0  0  0  0  0  0
    5.1350   -1.6525    0.0000 H   0  0  0  0  0  0  0  0  0  0  0  0
    2.3291   -3.2725    0.0000 H   0  0  0  0  0  0  0  0  0  0  0  0
    5.1350   -3.2725    0.0000 H   0  0  0  0  0  0  0  0  0  0  0  0
  1 22  1  0  0  0  0
  2 18  1  0  0  0  0
  3 11  2  0  0  0  0
  4 14  2  0  0  0  0
  5 16  2  0  0  0  0
  6  9  1  0  0  0  0
  6 14  1  0  0  0  0
  6 25  1  0  0  0  0
  7 11  1  0  0  0  0
  7 14  1  0  0  0  0
  7 15  1  0  0  0  0
  8 16  1  0  0  0  0
  8 17  1  0  0  0  0
  8 34  1  0  0  0  0
  9 10  1  0  0  0  0
  9 11  1  0  0  0  0
  9 23  1  0  0  0  0
 10 12  1  0  0  0  0
 10 13  1  0  0  0  0
 10 24  1  0  0  0  0
 12 28  1  0  0  0  0
 12 29  1  0  0  0  0
 12 30  1  0  0  0  0
 13 26  1  0  0  0  0
 13 27  1  0  0  0  0
 13 31  1  0  0  0  0
 15 16  1  0  0  0  0
 15 32  1  0  0  0  0
 15 33  1  0  0  0  0
 17 18  2  0  0  0  0
 17 19  1  0  0  0  0
 18 20  1  0  0  0  0
 19 21  2  0  0  0  0
 19 35  1  0  0  0  0
 20 22  2  0  0  0  0
 20 36  1  0  0  0  0
 21 22  1  0  0  0  0
 21 37  1  0  0  0  0
M  END
> <PUBCHEM_COMPOUND_CID>
17395458

> <PUBCHEM_COMPOUND_CANONICALIZED>
1

> <PUBCHEM_CACTVS_COMPLEXITY>
474

> <PUBCHEM_CACTVS_HBOND_ACCEPTOR>
4

> <PUBCHEM_CACTVS_HBOND_DONOR>
2

> <PUBCHEM_CACTVS_ROTATABLE_BOND>
4

> <PUBCHEM_CACTVS_SUBSKEYS>
AAADccBzMQAEAAAAAAAAAAAAAAAAAWAAAAAwAAAAAAAAAAABAAAAHwIQAAAADSrBkCwzwIPAAACIACVSUACCAAAhBwAIiIGIZoiIYDLBk7GUIAholyLIyAcQAAAIAABAAAAAAAAAAIAAAAAAAAAAAAAAAA==

> <PUBCHEM_IUPAC_OPENEYE_NAME>
N-(4-chloro-2-fluoro-phenyl)-2-(4-isopropyl-2,5-dioxo-imidazolidin-1-yl)acetamide

> <PUBCHEM_IUPAC_CAS_NAME>
N-(4-chloro-2-fluorophenyl)-2-(2,5-dioxo-4-propan-2-yl-1-imidazolidinyl)acetamide

> <PUBCHEM_IUPAC_NAME>
N-(4-chloro-2-fluorophenyl)-2-(2,5-dioxo-4-propan-2-ylimidazolidin-1-yl)acetamide

> <PUBCHEM_IUPAC_SYSTEMATIC_NAME>
2-[2,5-bis(oxidanylidene)-4-propan-2-yl-imidazolidin-1-yl]-N-(4-chloranyl-2-fluoranyl-phenyl)ethanamide

> <PUBCHEM_IUPAC_TRADITIONAL_NAME>
N-(4-chloro-2-fluoro-phenyl)-2-(4-isopropyl-2,5-diketo-imidazolidin-1-yl)acetamide

> <PUBCHEM_IUPAC_INCHI>
InChI=1S/C14H15ClFN3O3/c1-7(2)12-13(21)19(14(22)18-12)6-11(20)17-10-4-3-8(15)5-9(10)16/h3-5,7,12H,6H2,1-2H3,(H,17,20)(H,18,22)

> <PUBCHEM_IUPAC_INCHIKEY>
NUWSBEPBAXVHOS-UHFFFAOYSA-N

> <PUBCHEM_XLOGP3_AA>
2.1

> <PUBCHEM_EXACT_MASS>
327.078597

> <PUBCHEM_MOLECULAR_FORMULA>
C14H15ClFN3O3

> <PUBCHEM_MOLECULAR_WEIGHT>
327.738603

> <PUBCHEM_OPENEYE_CAN_SMILES>
CC(C)C1C(=O)N(C(=O)N1)CC(=O)NC2=C(C=C(C=C2)Cl)F

> <PUBCHEM_OPENEYE_ISO_SMILES>
CC(C)C1C(=O)N(C(=O)N1)CC(=O)NC2=C(C=C(C=C2)Cl)F

> <PUBCHEM_CACTVS_TPSA>
78.5

> <PUBCHEM_MONOISOTOPIC_WEIGHT>
327.078597

> <PUBCHEM_TOTAL_CHARGE>
0

> <PUBCHEM_HEAVY_ATOM_COUNT>
22

> <PUBCHEM_ATOM_DEF_STEREO_COUNT>
0

> <PUBCHEM_ATOM_UDEF_STEREO_COUNT>
1

> <PUBCHEM_BOND_DEF_STEREO_COUNT>
0

> <PUBCHEM_BOND_UDEF_STEREO_COUNT>
0

> <PUBCHEM_ISOTOPIC_ATOM_COUNT>
0

> <PUBCHEM_COMPONENT_COUNT>
1

> <PUBCHEM_CACTVS_TAUTO_COUNT>
12

> <PUBCHEM_COORDINATE_TYPE>
1
5
255

> <PUBCHEM_BONDANNOTATIONS>
17  18  8
17  19  8
18  20  8
19  21  8
20  22  8
21  22  8
9  10  3

$$$$

