9637
  -OEChem-06261203532D

 21 21  0     0  0  0  0  0  0999 V2000
    3.3660    1.4330    0.0000 F   0  0  0  0  0  0  0  0  0  0  0  0
    5.7320    0.0670    0.0000 F   0  0  0  0  0  0  0  0  0  0  0  0
    2.0000    0.0670    0.0000 F   0  0  0  0  0  0  0  0  0  0  0  0
    2.5000    0.9330    0.0000 F   0  0  0  0  0  0  0  0  0  0  0  0
    5.2320    0.9330    0.0000 F   0  0  0  0  0  0  0  0  0  0  0  0
    2.5000   -1.7990    0.0000 F   0  0  0  0  0  0  0  0  0  0  0  0
    5.2320   -1.7990    0.0000 F   0  0  0  0  0  0  0  0  0  0  0  0
    5.7320   -0.9330    0.0000 F   0  0  0  0  0  0  0  0  0  0  0  0
    2.0000   -0.9330    0.0000 F   0  0  0  0  0  0  0  0  0  0  0  0
    3.3660   -2.2990    0.0000 F   0  0  0  0  0  0  0  0  0  0  0  0
    4.3660   -2.2990    0.0000 F   0  0  0  0  0  0  0  0  0  0  0  0
    4.8660    2.2990    0.0000 F   0  0  0  0  0  0  0  0  0  0  0  0
    3.8660    2.2990    0.0000 F   0  0  0  0  0  0  0  0  0  0  0  0
    5.3508    1.6067    0.0000 F   0  0  0  0  0  0  0  0  0  0  0  0
    3.8660    0.5670    0.0000 C   0  0  0  0  0  0  0  0  0  0  0  0
    3.0000    0.0670    0.0000 C   0  0  0  0  0  0  0  0  0  0  0  0
    4.7320    0.0670    0.0000 C   0  0  0  0  0  0  0  0  0  0  0  0
    3.0000   -0.9330    0.0000 C   0  0  0  0  0  0  0  0  0  0  0  0
    4.7320   -0.9330    0.0000 C   0  0  0  0  0  0  0  0  0  0  0  0
    3.8660   -1.4330    0.0000 C   0  0  0  0  0  0  0  0  0  0  0  0
    4.3660    1.4330    0.0000 C   0  0  0  0  0  0  0  0  0  0  0  0
  1 15  1  0  0  0  0
  2 17  1  0  0  0  0
  3 16  1  0  0  0  0
  4 16  1  0  0  0  0
  5 17  1  0  0  0  0
  6 18  1  0  0  0  0
  7 19  1  0  0  0  0
  8 19  1  0  0  0  0
  9 18  1  0  0  0  0
 10 20  1  0  0  0  0
 11 20  1  0  0  0  0
 12 21  1  0  0  0  0
 13 21  1  0  0  0  0
 14 21  1  0  0  0  0
 15 16  1  0  0  0  0
 15 17  1  0  0  0  0
 15 21  1  0  0  0  0
 16 18  1  0  0  0  0
 17 19  1  0  0  0  0
 18 20  1  0  0  0  0
 19 20  1  0  0  0  0
M  END
> <PUBCHEM_COMPOUND_CID>
9637

> <PUBCHEM_COMPOUND_CANONICALIZED>
1

> <PUBCHEM_CACTVS_COMPLEXITY>
411

> <PUBCHEM_CACTVS_HBOND_ACCEPTOR>
14

> <PUBCHEM_CACTVS_HBOND_DONOR>
0

> <PUBCHEM_CACTVS_ROTATABLE_BOND>
0

> <PUBCHEM_CACTVS_SUBSKEYS>
AAADcQBgAcAAAAAAAAAAAAAAAAAAAAAAAAAwAAAAAAAAAAAAAAAACQAAAAAADAAAABAAAAAAAAAAAAAAAAAAAAAAAAAAAAAAAAAAAAIAAAAAAAAAAAAAAAEAgAAOAAAAAAAAAAAAAAAAAAAAAAAAAAAAAA==

> <PUBCHEM_IUPAC_OPENEYE_NAME>
1,1,2,2,3,3,4,4,5,5,6-undecafluoro-6-(trifluoromethyl)cyclohexane

> <PUBCHEM_IUPAC_CAS_NAME>
1,1,2,2,3,3,4,4,5,5,6-undecafluoro-6-(trifluoromethyl)cyclohexane

> <PUBCHEM_IUPAC_NAME>
1,1,2,2,3,3,4,4,5,5,6-undecafluoro-6-(trifluoromethyl)cyclohexane

> <PUBCHEM_IUPAC_SYSTEMATIC_NAME>
1,1,2,2,3,3,4,4,5,5,6-undecakis(fluoranyl)-6-(trifluoromethyl)cyclohexane

> <PUBCHEM_IUPAC_TRADITIONAL_NAME>
1,1,2,2,3,3,4,4,5,5,6-undecafluoro-6-(trifluoromethyl)cyclohexane

> <PUBCHEM_IUPAC_INCHI>
InChI=1S/C7F14/c8-1(7(19,20)21)2(9,10)4(13,14)6(17,18)5(15,16)3(1,11)12

> <PUBCHEM_IUPAC_INCHIKEY>
QIROQPWSJUXOJC-UHFFFAOYSA-N

> <PUBCHEM_XLOGP3>
4.1

> <PUBCHEM_EXACT_MASS>
349.977645

> <PUBCHEM_MOLECULAR_FORMULA>
C7F14

> <PUBCHEM_MOLECULAR_WEIGHT>
350.052545

> <PUBCHEM_OPENEYE_CAN_SMILES>
C1(C(C(C(C(C1(F)F)(F)F)(F)F)(F)F)(F)F)(C(F)(F)F)F

> <PUBCHEM_OPENEYE_ISO_SMILES>
C1(C(C(C(C(C1(F)F)(F)F)(F)F)(F)F)(F)F)(C(F)(F)F)F

> <PUBCHEM_CACTVS_TPSA>
0

> <PUBCHEM_MONOISOTOPIC_WEIGHT>
349.977645

> <PUBCHEM_TOTAL_CHARGE>
0

> <PUBCHEM_HEAVY_ATOM_COUNT>
21

> <PUBCHEM_ATOM_DEF_STEREO_COUNT>
0

> <PUBCHEM_ATOM_UDEF_STEREO_COUNT>
0

> <PUBCHEM_BOND_DEF_STEREO_COUNT>
0

> <PUBCHEM_BOND_UDEF_STEREO_COUNT>
0

> <PUBCHEM_ISOTOPIC_ATOM_COUNT>
0

> <PUBCHEM_COMPONENT_COUNT>
1

> <PUBCHEM_CACTVS_TAUTO_COUNT>
1

> <PUBCHEM_COORDINATE_TYPE>
1
5
255

$$$$

