13771
  -OEChem-06241222402D

 38 41  0     0  0  0  0  0  0999 V2000
    6.3301    0.9999    0.0000 C   0  0  0  0  0  0  0  0  0  0  0  0
    7.2241    0.4652    0.0000 C   0  0  0  0  0  0  0  0  0  0  0  0
    6.3301    1.9999    0.0000 C   0  0  0  0  0  0  0  0  0  0  0  0
    4.5981    0.9999    0.0000 C   0  0  0  0  0  0  0  0  0  0  0  0
    5.4641    0.4999    0.0000 C   0  0  0  0  0  0  0  0  0  0  0  0
    7.2125   -0.5347    0.0000 C   0  0  0  0  0  0  0  0  0  0  0  0
    5.4641    2.4999    0.0000 C   0  0  0  0  0  0  0  0  0  0  0  0
    4.5981    1.9999    0.0000 C   0  0  0  0  0  0  0  0  0  0  0  0
    8.1301    0.9791    0.0000 C   0  0  0  0  0  0  0  0  0  0  0  0
    7.2241    2.5346    0.0000 C   0  0  0  0  0  0  0  0  0  0  0  0
    3.7320    0.4999    0.0000 C   0  0  0  0  0  0  0  0  0  0  0  0
    8.1301    2.0207    0.0000 C   0  0  0  0  0  0  0  0  0  0  0  0
    6.3408   -1.0246    0.0000 C   0  0  0  0  0  0  0  0  0  0  0  0
    8.0727   -1.0447    0.0000 C   0  0  0  0  0  0  0  0  0  0  0  0
    2.8660    0.9999    0.0000 C   0  0  0  0  0  0  0  0  0  0  0  0
    3.7320   -0.5001    0.0000 C   0  0  0  0  0  0  0  0  0  0  0  0
    6.3292   -2.0246    0.0000 C   0  0  0  0  0  0  0  0  0  0  0  0
    8.0611   -2.0446    0.0000 C   0  0  0  0  0  0  0  0  0  0  0  0
    2.0000    0.4999    0.0000 C   0  0  0  0  0  0  0  0  0  0  0  0
    2.8660   -1.0001    0.0000 C   0  0  0  0  0  0  0  0  0  0  0  0
    7.1894   -2.5346    0.0000 C   0  0  0  0  0  0  0  0  0  0  0  0
    2.0000   -0.5001    0.0000 C   0  0  0  0  0  0  0  0  0  0  0  0
    5.4641   -0.1201    0.0000 H   0  0  0  0  0  0  0  0  0  0  0  0
    5.4641    3.1199    0.0000 H   0  0  0  0  0  0  0  0  0  0  0  0
    4.0611    2.3099    0.0000 H   0  0  0  0  0  0  0  0  0  0  0  0
    8.6659    0.6670    0.0000 H   0  0  0  0  0  0  0  0  0  0  0  0
    7.2169    3.1545    0.0000 H   0  0  0  0  0  0  0  0  0  0  0  0
    8.6659    2.3328    0.0000 H   0  0  0  0  0  0  0  0  0  0  0  0
    5.8074   -0.7085    0.0000 H   0  0  0  0  0  0  0  0  0  0  0  0
    8.6132   -0.7409    0.0000 H   0  0  0  0  0  0  0  0  0  0  0  0
    2.8660    1.6199    0.0000 H   0  0  0  0  0  0  0  0  0  0  0  0
    4.2690   -0.8101    0.0000 H   0  0  0  0  0  0  0  0  0  0  0  0
    5.7887   -2.3284    0.0000 H   0  0  0  0  0  0  0  0  0  0  0  0
    8.5944   -2.3608    0.0000 H   0  0  0  0  0  0  0  0  0  0  0  0
    1.4631    0.8099    0.0000 H   0  0  0  0  0  0  0  0  0  0  0  0
    2.8660   -1.6201    0.0000 H   0  0  0  0  0  0  0  0  0  0  0  0
    7.1822   -3.1545    0.0000 H   0  0  0  0  0  0  0  0  0  0  0  0
    1.4631   -0.8101    0.0000 H   0  0  0  0  0  0  0  0  0  0  0  0
  1  2  1  0  0  0  0
  1  3  2  0  0  0  0
  1  5  1  0  0  0  0
  2  6  1  0  0  0  0
  2  9  2  0  0  0  0
  3  7  1  0  0  0  0
  3 10  1  0  0  0  0
  4  5  2  0  0  0  0
  4  8  1  0  0  0  0
  4 11  1  0  0  0  0
  5 23  1  0  0  0  0
  6 13  2  0  0  0  0
  6 14  1  0  0  0  0
  7  8  2  0  0  0  0
  7 24  1  0  0  0  0
  8 25  1  0  0  0  0
  9 12  1  0  0  0  0
  9 26  1  0  0  0  0
 10 12  2  0  0  0  0
 10 27  1  0  0  0  0
 11 15  2  0  0  0  0
 11 16  1  0  0  0  0
 12 28  1  0  0  0  0
 13 17  1  0  0  0  0
 13 29  1  0  0  0  0
 14 18  2  0  0  0  0
 14 30  1  0  0  0  0
 15 19  1  0  0  0  0
 15 31  1  0  0  0  0
 16 20  2  0  0  0  0
 16 32  1  0  0  0  0
 17 21  2  0  0  0  0
 17 33  1  0  0  0  0
 18 21  1  0  0  0  0
 18 34  1  0  0  0  0
 19 22  2  0  0  0  0
 19 35  1  0  0  0  0
 20 22  1  0  0  0  0
 20 36  1  0  0  0  0
 21 37  1  0  0  0  0
 22 38  1  0  0  0  0
M  END
> <PUBCHEM_COMPOUND_CID>
13771

> <PUBCHEM_COMPOUND_CANONICALIZED>
1

> <PUBCHEM_CACTVS_COMPLEXITY>
334

> <PUBCHEM_CACTVS_HBOND_ACCEPTOR>
0

> <PUBCHEM_CACTVS_HBOND_DONOR>
0

> <PUBCHEM_CACTVS_ROTATABLE_BOND>
2

> <PUBCHEM_CACTVS_SUBSKEYS>
AAADceB4AAAAAAAAAAAAAAAAAAAAAAAAAAAwYMGAAAAAAADBVAAAGAAAAAAADACAGAAwAMAAAACAAiBCAAACAAAgAAAIiAAAAIgIICKAERCAIAAggAAIiAcAgMAOwAACAAAQAACAAAQAACAAAAAAAAAAAA==

> <PUBCHEM_IUPAC_OPENEYE_NAME>
1,7-diphenylnaphthalene

> <PUBCHEM_IUPAC_CAS_NAME>
1,7-diphenylnaphthalene

> <PUBCHEM_IUPAC_NAME>
1,7-diphenylnaphthalene

> <PUBCHEM_IUPAC_SYSTEMATIC_NAME>
1,7-diphenylnaphthalene

> <PUBCHEM_IUPAC_TRADITIONAL_NAME>
1,7-diphenylnaphthalene

> <PUBCHEM_IUPAC_INCHI>
InChI=1S/C22H16/c1-3-8-17(9-4-1)20-15-14-19-12-7-13-21(22(19)16-20)18-10-5-2-6-11-18/h1-16H

> <PUBCHEM_IUPAC_INCHIKEY>
GQHLUGQTYDTQDG-UHFFFAOYSA-N

> <PUBCHEM_XLOGP3>
7

> <PUBCHEM_EXACT_MASS>
280.125201

> <PUBCHEM_MOLECULAR_FORMULA>
C22H16

> <PUBCHEM_MOLECULAR_WEIGHT>
280.36244

> <PUBCHEM_OPENEYE_CAN_SMILES>
C1=CC=C(C=C1)C2=CC3=C(C=CC=C3C4=CC=CC=C4)C=C2

> <PUBCHEM_OPENEYE_ISO_SMILES>
C1=CC=C(C=C1)C2=CC3=C(C=CC=C3C4=CC=CC=C4)C=C2

> <PUBCHEM_CACTVS_TPSA>
0

> <PUBCHEM_MONOISOTOPIC_WEIGHT>
280.125201

> <PUBCHEM_TOTAL_CHARGE>
0

> <PUBCHEM_HEAVY_ATOM_COUNT>
22

> <PUBCHEM_ATOM_DEF_STEREO_COUNT>
0

> <PUBCHEM_ATOM_UDEF_STEREO_COUNT>
0

> <PUBCHEM_BOND_DEF_STEREO_COUNT>
0

> <PUBCHEM_BOND_UDEF_STEREO_COUNT>
0

> <PUBCHEM_ISOTOPIC_ATOM_COUNT>
0

> <PUBCHEM_COMPONENT_COUNT>
1

> <PUBCHEM_CACTVS_TAUTO_COUNT>
1

> <PUBCHEM_COORDINATE_TYPE>
1
5
255

> <PUBCHEM_BONDANNOTATIONS>
1  2  8
1  3  8
1  5  8
10  12  8
11  15  8
11  16  8
13  17  8
14  18  8
15  19  8
16  20  8
17  21  8
18  21  8
19  22  8
2  9  8
20  22  8
3  10  8
3  7  8
4  5  8
4  8  8
6  13  8
6  14  8
7  8  8
9  12  8

$$$$

