6118
  -OEChem-06261201072D

  8  7  0     0  0  0  0  0  0999 V2000
    2.5369    0.5950    0.0000 S   0  0  0  0  0  0  0  0  0  0  0  0
    4.2690    0.5950    0.0000 N   0  0  0  0  0  0  0  0  0  0  0  0
    3.4030   -0.9050    0.0000 N   0  0  0  0  0  0  0  0  0  0  0  0
    3.4030    0.0950    0.0000 C   0  0  0  0  0  0  0  0  0  0  0  0
    4.8059    0.2850    0.0000 H   0  0  0  0  0  0  0  0  0  0  0  0
    4.2690    1.2150    0.0000 H   0  0  0  0  0  0  0  0  0  0  0  0
    2.0000    0.2850    0.0000 H   0  0  0  0  0  0  0  0  0  0  0  0
    2.8660   -1.2150    0.0000 H   0  0  0  0  0  0  0  0  0  0  0  0
  1  4  1  0  0  0  0
  1  7  1  0  0  0  0
  2  4  1  0  0  0  0
  2  5  1  0  0  0  0
  2  6  1  0  0  0  0
  3  4  2  0  0  0  0
  3  8  1  0  0  0  0
M  END
> <PUBCHEM_COMPOUND_CID>
6118

> <PUBCHEM_COMPOUND_CANONICALIZED>
1

> <PUBCHEM_CACTVS_COMPLEXITY>
33

> <PUBCHEM_CACTVS_HBOND_ACCEPTOR>
2

> <PUBCHEM_CACTVS_HBOND_DONOR>
3

> <PUBCHEM_CACTVS_ROTATABLE_BOND>
0

> <PUBCHEM_CACTVS_SUBSKEYS>
AAADcYADAABAAAAAAAAAAAAAAAAAAAAAAAAAAAAAAAAAAAAAAAAABAQQAAAAAAAAAAABAABAAAQgAAAAIAAAAgCAAAAAAAAAAAAAAAAAAAAAAAAAAAAAAAAAAAAAAAAAAAAAAAAAAAAAAAAAAAAAAAAAAA==

> <PUBCHEM_IUPAC_OPENEYE_NAME>
isothiourea

> <PUBCHEM_IUPAC_CAS_NAME>
carbamimidothioic acid

> <PUBCHEM_IUPAC_NAME>
carbamimidothioic acid

> <PUBCHEM_IUPAC_SYSTEMATIC_NAME>
carbamimidothioic acid

> <PUBCHEM_IUPAC_TRADITIONAL_NAME>
isothiourea

> <PUBCHEM_IUPAC_INCHI>
InChI=1S/CH4N2S/c2-1(3)4/h(H4,2,3,4)

> <PUBCHEM_IUPAC_INCHIKEY>
UMGDCJDMYOKAJW-UHFFFAOYSA-N

> <PUBCHEM_XLOGP3_AA>
-0.2

> <PUBCHEM_EXACT_MASS>
76.009519

> <PUBCHEM_MOLECULAR_FORMULA>
CH4N2S

> <PUBCHEM_MOLECULAR_WEIGHT>
76.12086

> <PUBCHEM_OPENEYE_CAN_SMILES>
C(=N)(N)S

> <PUBCHEM_OPENEYE_ISO_SMILES>
C(=N)(N)S

> <PUBCHEM_CACTVS_TPSA>
50.9

> <PUBCHEM_MONOISOTOPIC_WEIGHT>
76.009519

> <PUBCHEM_TOTAL_CHARGE>
0

> <PUBCHEM_HEAVY_ATOM_COUNT>
4

> <PUBCHEM_ATOM_DEF_STEREO_COUNT>
0

> <PUBCHEM_ATOM_UDEF_STEREO_COUNT>
0

> <PUBCHEM_BOND_DEF_STEREO_COUNT>
0

> <PUBCHEM_BOND_UDEF_STEREO_COUNT>
0

> <PUBCHEM_ISOTOPIC_ATOM_COUNT>
0

> <PUBCHEM_COMPONENT_COUNT>
1

> <PUBCHEM_CACTVS_TAUTO_COUNT>
2

> <PUBCHEM_COORDINATE_TYPE>
1
5
255

$$$$

