10691
  -OEChem-06261204502D

 25 23  0     1  0  0  0  0  0999 V2000
    0.0000    1.3100    0.0000 Na  0  3  0  0  0  0  0  0  0  0  0  0
    4.3301    2.8100    0.0000 O   0  0  0  0  0  0  0  0  0  0  0  0
    3.4641    0.3100    0.0000 O   0  0  0  0  0  0  0  0  0  0  0  0
    5.1962    0.3100    0.0000 O   0  0  0  0  0  0  0  0  0  0  0  0
    2.5981    2.8100    0.0000 O   0  0  0  0  0  0  0  0  0  0  0  0
    6.9282    1.3100    0.0000 O   0  0  0  0  0  0  0  0  0  0  0  0
    0.8660    1.8100    0.0000 O   0  5  0  0  0  0  0  0  0  0  0  0
    1.7321    0.3100    0.0000 O   0  0  0  0  0  0  0  0  0  0  0  0
    4.3301    1.8100    0.0000 C   0  0  3  0  0  0  0  0  0  0  0  0
    3.4641    1.3100    0.0000 C   0  0  3  0  0  0  0  0  0  0  0  0
    5.1962    1.3100    0.0000 C   0  0  3  0  0  0  0  0  0  0  0  0
    2.5981    1.8100    0.0000 C   0  0  3  0  0  0  0  0  0  0  0  0
    6.0622    1.8100    0.0000 C   0  0  0  0  0  0  0  0  0  0  0  0
    1.7321    1.3100    0.0000 C   0  0  0  0  0  0  0  0  0  0  0  0
    4.8671    2.1200    0.0000 H   0  0  0  0  0  0  0  0  0  0  0  0
    4.0010    1.0000    0.0000 H   0  0  0  0  0  0  0  0  0  0  0  0
    4.6592    1.0000    0.0000 H   0  0  0  0  0  0  0  0  0  0  0  0
    3.1350    2.1200    0.0000 H   0  0  0  0  0  0  0  0  0  0  0  0
    6.4607    2.2849    0.0000 H   0  0  0  0  0  0  0  0  0  0  0  0
    5.6636    2.2849    0.0000 H   0  0  0  0  0  0  0  0  0  0  0  0
    4.8671    3.1200    0.0000 H   0  0  0  0  0  0  0  0  0  0  0  0
    2.9272    0.0000    0.0000 H   0  0  0  0  0  0  0  0  0  0  0  0
    5.7331    0.0000    0.0000 H   0  0  0  0  0  0  0  0  0  0  0  0
    2.0611    3.1200    0.0000 H   0  0  0  0  0  0  0  0  0  0  0  0
    7.4651    1.6200    0.0000 H   0  0  0  0  0  0  0  0  0  0  0  0
  2  9  1  0  0  0  0
  2 21  1  0  0  0  0
  3 10  1  0  0  0  0
  3 22  1  0  0  0  0
  4 11  1  0  0  0  0
  4 23  1  0  0  0  0
  5 12  1  0  0  0  0
  5 24  1  0  0  0  0
  6 13  1  0  0  0  0
  6 25  1  0  0  0  0
  7 14  1  0  0  0  0
  8 14  2  0  0  0  0
  9 10  1  0  0  0  0
  9 11  1  0  0  0  0
  9 15  1  0  0  0  0
 10 12  1  0  0  0  0
 10 16  1  0  0  0  0
 11 13  1  0  0  0  0
 11 17  1  0  0  0  0
 12 14  1  0  0  0  0
 12 18  1  0  0  0  0
 13 19  1  0  0  0  0
 13 20  1  0  0  0  0
M  CHG  2   1   1   7  -1
M  END
> <PUBCHEM_COMPOUND_CID>
10691

> <PUBCHEM_COMPOUND_CANONICALIZED>
1

> <PUBCHEM_CACTVS_COMPLEXITY>
165

> <PUBCHEM_CACTVS_HBOND_ACCEPTOR>
7

> <PUBCHEM_CACTVS_HBOND_DONOR>
5

> <PUBCHEM_CACTVS_ROTATABLE_BOND>
4

> <PUBCHEM_CACTVS_SUBSKEYS>
AAADccBgOCAAAAAAAAAAAAAAAAAAAAAAAAAAAAAAAAAAAAAAAAAAGgAACAAACBSggAIACAAAAgAIAACQCAIAAAAAAAAAAAFAAAABEBYAAAAAQAAFIAABAAHKbARAAAAAAAAAAAAAAAAAAAAAAAAAAAAAAA==

> <PUBCHEM_IUPAC_OPENEYE_NAME>
sodium 2,3,4,5,6-pentahydroxyhexanoate

> <PUBCHEM_IUPAC_CAS_NAME>
sodium 2,3,4,5,6-pentahydroxyhexanoate

> <PUBCHEM_IUPAC_NAME>
sodium 2,3,4,5,6-pentahydroxyhexanoate

> <PUBCHEM_IUPAC_SYSTEMATIC_NAME>
sodium 2,3,4,5,6-pentakis(oxidanyl)hexanoate

> <PUBCHEM_IUPAC_TRADITIONAL_NAME>
sodium 2,3,4,5,6-pentahydroxyhexanoate

> <PUBCHEM_IUPAC_INCHI>
InChI=1S/C6H12O7.Na/c7-1-2(8)3(9)4(10)5(11)6(12)13;/h2-5,7-11H,1H2,(H,12,13);/q;+1/p-1

> <PUBCHEM_IUPAC_INCHIKEY>
UPMFZISCCZSDND-UHFFFAOYSA-M

> <PUBCHEM_EXACT_MASS>
218.040247

> <PUBCHEM_MOLECULAR_FORMULA>
C6H11NaO7

> <PUBCHEM_MOLECULAR_WEIGHT>
218.137109

> <PUBCHEM_OPENEYE_CAN_SMILES>
C(C(C(C(C(C(=O)[O-])O)O)O)O)O.[Na+]

> <PUBCHEM_OPENEYE_ISO_SMILES>
C(C(C(C(C(C(=O)[O-])O)O)O)O)O.[Na+]

> <PUBCHEM_CACTVS_TPSA>
141

> <PUBCHEM_MONOISOTOPIC_WEIGHT>
218.040247

> <PUBCHEM_TOTAL_CHARGE>
0

> <PUBCHEM_HEAVY_ATOM_COUNT>
14

> <PUBCHEM_ATOM_DEF_STEREO_COUNT>
0

> <PUBCHEM_ATOM_UDEF_STEREO_COUNT>
4

> <PUBCHEM_BOND_DEF_STEREO_COUNT>
0

> <PUBCHEM_BOND_UDEF_STEREO_COUNT>
0

> <PUBCHEM_ISOTOPIC_ATOM_COUNT>
0

> <PUBCHEM_COMPONENT_COUNT>
2

> <PUBCHEM_CACTVS_TAUTO_COUNT>
1

> <PUBCHEM_COORDINATE_TYPE>
1
5
255

> <PUBCHEM_BONDANNOTATIONS>
9  2  3
10  3  3
11  4  3
12  5  3

$$$$

