4849
  -OEChem-06261200222D

 43 45  0     0  0  0  0  0  0999 V2000
    5.7320    1.3560    0.0000 S   0  0  0  0  0  0  0  0  0  0  0  0
    4.0000    0.3560    0.0000 O   0  0  0  0  0  0  0  0  0  0  0  0
    5.7320    2.3560    0.0000 O   0  0  0  0  0  0  0  0  0  0  0  0
    4.8661    1.8560    0.0000 O   0  0  0  0  0  0  0  0  0  0  0  0
    7.4641   -2.6440    0.0000 O   0  0  0  0  0  0  0  0  0  0  0  0
    8.3301   -1.1440    0.0000 O   0  0  0  0  0  0  0  0  0  0  0  0
    4.0000   -1.6440    0.0000 N   0  0  0  0  0  0  0  0  0  0  0  0
    6.7320    1.3560    0.0000 N   0  0  0  0  0  0  0  0  0  0  0  0
    3.0864   -1.2373    0.0000 C   0  0  0  0  0  0  0  0  0  0  0  0
    3.8955   -2.6386    0.0000 C   0  0  0  0  0  0  0  0  0  0  0  0
    2.4173   -1.9804    0.0000 C   0  0  0  0  0  0  0  0  0  0  0  0
    2.9173   -2.8465    0.0000 C   0  0  0  0  0  0  0  0  0  0  0  0
    4.8660   -1.1440    0.0000 C   0  0  0  0  0  0  0  0  0  0  0  0
    4.8660   -0.1440    0.0000 C   0  0  0  0  0  0  0  0  0  0  0  0
    5.7320   -1.6440    0.0000 C   0  0  0  0  0  0  0  0  0  0  0  0
    5.7320    0.3560    0.0000 C   0  0  0  0  0  0  0  0  0  0  0  0
    6.5981   -1.1440    0.0000 C   0  0  0  0  0  0  0  0  0  0  0  0
    6.5981   -0.1440    0.0000 C   0  0  0  0  0  0  0  0  0  0  0  0
    7.4641   -1.6440    0.0000 C   0  0  0  0  0  0  0  0  0  0  0  0
    3.5000    1.2220    0.0000 C   0  0  0  0  0  0  0  0  0  0  0  0
    4.0000    2.0880    0.0000 C   0  0  0  0  0  0  0  0  0  0  0  0
    2.5000    1.2220    0.0000 C   0  0  0  0  0  0  0  0  0  0  0  0
    3.5000    2.9540    0.0000 C   0  0  0  0  0  0  0  0  0  0  0  0
    2.0000    2.0880    0.0000 C   0  0  0  0  0  0  0  0  0  0  0  0
    2.5000    2.9540    0.0000 C   0  0  0  0  0  0  0  0  0  0  0  0
    3.3964   -0.7004    0.0000 H   0  0  0  0  0  0  0  0  0  0  0  0
    2.5849   -0.8729    0.0000 H   0  0  0  0  0  0  0  0  0  0  0  0
    3.9603   -3.2552    0.0000 H   0  0  0  0  0  0  0  0  0  0  0  0
    4.5155   -2.6386    0.0000 H   0  0  0  0  0  0  0  0  0  0  0  0
    2.0025   -1.5197    0.0000 H   0  0  0  0  0  0  0  0  0  0  0  0
    1.9157   -2.3449    0.0000 H   0  0  0  0  0  0  0  0  0  0  0  0
    2.3509   -3.0986    0.0000 H   0  0  0  0  0  0  0  0  0  0  0  0
    3.1089   -3.4361    0.0000 H   0  0  0  0  0  0  0  0  0  0  0  0
    5.7320   -2.2640    0.0000 H   0  0  0  0  0  0  0  0  0  0  0  0
    7.1350    0.1660    0.0000 H   0  0  0  0  0  0  0  0  0  0  0  0
    7.0420    1.8929    0.0000 H   0  0  0  0  0  0  0  0  0  0  0  0
    7.0420    0.8190    0.0000 H   0  0  0  0  0  0  0  0  0  0  0  0
    4.6200    2.0880    0.0000 H   0  0  0  0  0  0  0  0  0  0  0  0
    2.1900    0.6851    0.0000 H   0  0  0  0  0  0  0  0  0  0  0  0
    3.8100    3.4910    0.0000 H   0  0  0  0  0  0  0  0  0  0  0  0
    1.3800    2.0880    0.0000 H   0  0  0  0  0  0  0  0  0  0  0  0
    8.0010   -2.9540    0.0000 H   0  0  0  0  0  0  0  0  0  0  0  0
    2.1900    3.4910    0.0000 H   0  0  0  0  0  0  0  0  0  0  0  0
  1  3  2  0  0  0  0
  1  4  2  0  0  0  0
  1  8  1  0  0  0  0
  1 16  1  0  0  0  0
  2 14  1  0  0  0  0
  2 20  1  0  0  0  0
  5 19  1  0  0  0  0
  5 42  1  0  0  0  0
  6 19  2  0  0  0  0
  7  9  1  0  0  0  0
  7 10  1  0  0  0  0
  7 13  1  0  0  0  0
  8 36  1  0  0  0  0
  8 37  1  0  0  0  0
  9 11  1  0  0  0  0
  9 26  1  0  0  0  0
  9 27  1  0  0  0  0
 10 12  1  0  0  0  0
 10 28  1  0  0  0  0
 10 29  1  0  0  0  0
 11 12  1  0  0  0  0
 11 30  1  0  0  0  0
 11 31  1  0  0  0  0
 12 32  1  0  0  0  0
 12 33  1  0  0  0  0
 13 14  2  0  0  0  0
 13 15  1  0  0  0  0
 14 16  1  0  0  0  0
 15 17  2  0  0  0  0
 15 34  1  0  0  0  0
 16 18  2  0  0  0  0
 17 18  1  0  0  0  0
 17 19  1  0  0  0  0
 18 35  1  0  0  0  0
 20 21  2  0  0  0  0
 20 22  1  0  0  0  0
 21 23  1  0  0  0  0
 21 38  1  0  0  0  0
 22 24  2  0  0  0  0
 22 39  1  0  0  0  0
 23 25  2  0  0  0  0
 23 40  1  0  0  0  0
 24 25  1  0  0  0  0
 24 41  1  0  0  0  0
 25 43  1  0  0  0  0
M  END
> <PUBCHEM_COMPOUND_CID>
4849

> <PUBCHEM_COMPOUND_CANONICALIZED>
1

> <PUBCHEM_CACTVS_COMPLEXITY>
564

> <PUBCHEM_CACTVS_HBOND_ACCEPTOR>
7

> <PUBCHEM_CACTVS_HBOND_DONOR>
2

> <PUBCHEM_CACTVS_ROTATABLE_BOND>
5

> <PUBCHEM_CACTVS_SUBSKEYS>
AAADceB7OABAAAAAAAAAAAAAAAAAAWAAAAAwYAAAAAAAAAABQAAAHgQQSAAADAzB2AQwz4MABgKIAiTSSHDCCBAlIgAIiBsPbMgOJjLEtZuHeSzkwBHY+Ye87CzOIAAAwCAAMABAAAGAQABgAAAAAAAAAA==

> <PUBCHEM_IUPAC_OPENEYE_NAME>
4-phenoxy-3-pyrrolidin-1-yl-5-sulfamoyl-benzoic acid

> <PUBCHEM_IUPAC_CAS_NAME>
4-phenoxy-3-(1-pyrrolidinyl)-5-sulfamoylbenzoic acid

> <PUBCHEM_IUPAC_NAME>
4-phenoxy-3-pyrrolidin-1-yl-5-sulfamoylbenzoic acid

> <PUBCHEM_IUPAC_SYSTEMATIC_NAME>
4-phenoxy-3-pyrrolidin-1-yl-5-sulfamoyl-benzoic acid

> <PUBCHEM_IUPAC_TRADITIONAL_NAME>
4-phenoxy-3-pyrrolidino-5-sulfamoyl-benzoic acid

> <PUBCHEM_IUPAC_INCHI>
InChI=1S/C17H18N2O5S/c18-25(22,23)15-11-12(17(20)21)10-14(19-8-4-5-9-19)16(15)24-13-6-2-1-3-7-13/h1-3,6-7,10-11H,4-5,8-9H2,(H,20,21)(H2,18,22,23)

> <PUBCHEM_IUPAC_INCHIKEY>
UJEWTUDSLQGTOA-UHFFFAOYSA-N

> <PUBCHEM_XLOGP3_AA>
2.2

> <PUBCHEM_EXACT_MASS>
362.093643

> <PUBCHEM_MOLECULAR_FORMULA>
C17H18N2O5S

> <PUBCHEM_MOLECULAR_WEIGHT>
362.40022

> <PUBCHEM_OPENEYE_CAN_SMILES>
C1CCN(C1)C2=C(C(=CC(=C2)C(=O)O)S(=O)(=O)N)OC3=CC=CC=C3

> <PUBCHEM_OPENEYE_ISO_SMILES>
C1CCN(C1)C2=C(C(=CC(=C2)C(=O)O)S(=O)(=O)N)OC3=CC=CC=C3

> <PUBCHEM_CACTVS_TPSA>
118

> <PUBCHEM_MONOISOTOPIC_WEIGHT>
362.093643

> <PUBCHEM_TOTAL_CHARGE>
0

> <PUBCHEM_HEAVY_ATOM_COUNT>
25

> <PUBCHEM_ATOM_DEF_STEREO_COUNT>
0

> <PUBCHEM_ATOM_UDEF_STEREO_COUNT>
0

> <PUBCHEM_BOND_DEF_STEREO_COUNT>
0

> <PUBCHEM_BOND_UDEF_STEREO_COUNT>
0

> <PUBCHEM_ISOTOPIC_ATOM_COUNT>
0

> <PUBCHEM_COMPONENT_COUNT>
1

> <PUBCHEM_CACTVS_TAUTO_COUNT>
1

> <PUBCHEM_COORDINATE_TYPE>
1
5
255

> <PUBCHEM_BONDANNOTATIONS>
13  14  8
13  15  8
14  16  8
15  17  8
16  18  8
17  18  8
20  21  8
20  22  8
21  23  8
22  24  8
23  25  8
24  25  8

$$$$

