51090920
  -OEChem-06241223002D

 46 47  0     1  0  0  0  0  0999 V2000
    3.0000    5.3432    0.0000 F   0  0  0  0  0  0  0  0  0  0  0  0
    2.0000    4.3432    0.0000 F   0  0  0  0  0  0  0  0  0  0  0  0
    4.0000    4.3432    0.0000 F   0  0  0  0  0  0  0  0  0  0  0  0
    6.1689   -1.0999    0.0000 O   0  0  0  0  0  0  0  0  0  0  0  0
    3.8660    2.8432    0.0000 N   0  0  3  0  0  0  0  0  0  0  0  0
    4.7676   -0.0818    0.0000 N   0  0  0  0  0  0  0  0  0  0  0  0
    4.0866   -3.3432    0.0000 N   0  0  0  0  0  0  0  0  0  0  0  0
    3.2776   -2.7554    0.0000 N   0  0  0  0  0  0  0  0  0  0  0  0
    4.9487    1.6408    0.0000 C   0  0  3  0  0  0  0  0  0  0  0  0
    5.4487    2.5068    0.0000 C   0  0  0  0  0  0  0  0  0  0  0  0
    3.9706    1.8487    0.0000 C   0  0  0  0  0  0  0  0  0  0  0  0
    4.7796    3.2499    0.0000 C   0  0  0  0  0  0  0  0  0  0  0  0
    5.3554    0.7272    0.0000 C   0  0  0  0  0  0  0  0  0  0  0  0
    3.0000    3.3432    0.0000 C   0  0  0  0  0  0  0  0  0  0  0  0
    3.0000    4.3432    0.0000 C   0  0  0  0  0  0  0  0  0  0  0  0
    4.0866   -4.3432    0.0000 C   0  0  0  0  0  0  0  0  0  0  0  0
    5.1744   -0.9953    0.0000 C   0  0  0  0  0  0  0  0  0  0  0  0
    4.5866   -1.8044    0.0000 C   0  0  0  0  0  0  0  0  0  0  0  0
    4.8956   -2.7554    0.0000 C   0  0  0  0  0  0  0  0  0  0  0  0
    4.0866   -5.3432    0.0000 C   0  0  0  0  0  0  0  0  0  0  0  0
    3.0866   -4.3432    0.0000 C   0  0  0  0  0  0  0  0  0  0  0  0
    5.0866   -4.3432    0.0000 C   0  0  0  0  0  0  0  0  0  0  0  0
    3.5866   -1.8044    0.0000 C   0  0  0  0  0  0  0  0  0  0  0  0
    4.5585    1.1589    0.0000 H   0  0  0  0  0  0  0  0  0  0  0  0
    5.9503    2.1424    0.0000 H   0  0  0  0  0  0  0  0  0  0  0  0
    5.8636    2.9675    0.0000 H   0  0  0  0  0  0  0  0  0  0  0  0
    3.3506    1.8487    0.0000 H   0  0  0  0  0  0  0  0  0  0  0  0
    3.9058    1.2321    0.0000 H   0  0  0  0  0  0  0  0  0  0  0  0
    5.2812    3.6144    0.0000 H   0  0  0  0  0  0  0  0  0  0  0  0
    4.4696    3.7869    0.0000 H   0  0  0  0  0  0  0  0  0  0  0  0
    5.7861    0.2812    0.0000 H   0  0  0  0  0  0  0  0  0  0  0  0
    5.8694    1.0739    0.0000 H   0  0  0  0  0  0  0  0  0  0  0  0
    2.3894    3.4509    0.0000 H   0  0  0  0  0  0  0  0  0  0  0  0
    2.7880    2.7606    0.0000 H   0  0  0  0  0  0  0  0  0  0  0  0
    4.1510   -0.0170    0.0000 H   0  0  0  0  0  0  0  0  0  0  0  0
    5.4853   -2.9470    0.0000 H   0  0  0  0  0  0  0  0  0  0  0  0
    5.0866   -4.9632    0.0000 H   0  0  0  0  0  0  0  0  0  0  0  0
    3.4666   -5.3432    0.0000 H   0  0  0  0  0  0  0  0  0  0  0  0
    4.0866   -5.9632    0.0000 H   0  0  0  0  0  0  0  0  0  0  0  0
    4.7066   -5.3432    0.0000 H   0  0  0  0  0  0  0  0  0  0  0  0
    3.0866   -3.7232    0.0000 H   0  0  0  0  0  0  0  0  0  0  0  0
    2.4666   -4.3432    0.0000 H   0  0  0  0  0  0  0  0  0  0  0  0
    3.0866   -4.9632    0.0000 H   0  0  0  0  0  0  0  0  0  0  0  0
    5.7066   -4.3432    0.0000 H   0  0  0  0  0  0  0  0  0  0  0  0
    5.0866   -3.7232    0.0000 H   0  0  0  0  0  0  0  0  0  0  0  0
    3.2222   -1.3028    0.0000 H   0  0  0  0  0  0  0  0  0  0  0  0
  1 15  1  0  0  0  0
  2 15  1  0  0  0  0
  3 15  1  0  0  0  0
  4 17  2  0  0  0  0
  5 11  1  0  0  0  0
  5 12  1  0  0  0  0
  5 14  1  0  0  0  0
  6 13  1  0  0  0  0
  6 17  1  0  0  0  0
  6 35  1  0  0  0  0
  7  8  1  0  0  0  0
  7 16  1  0  0  0  0
  7 19  1  0  0  0  0
  8 23  2  0  0  0  0
  9 10  1  0  0  0  0
  9 11  1  0  0  0  0
  9 13  1  0  0  0  0
  9 24  1  0  0  0  0
 10 12  1  0  0  0  0
 10 25  1  0  0  0  0
 10 26  1  0  0  0  0
 11 27  1  0  0  0  0
 11 28  1  0  0  0  0
 12 29  1  0  0  0  0
 12 30  1  0  0  0  0
 13 31  1  0  0  0  0
 13 32  1  0  0  0  0
 14 15  1  0  0  0  0
 14 33  1  0  0  0  0
 14 34  1  0  0  0  0
 16 20  1  0  0  0  0
 16 21  1  0  0  0  0
 16 22  1  0  0  0  0
 17 18  1  0  0  0  0
 18 19  2  0  0  0  0
 18 23  1  0  0  0  0
 19 36  1  0  0  0  0
 20 38  1  0  0  0  0
 20 39  1  0  0  0  0
 20 40  1  0  0  0  0
 21 41  1  0  0  0  0
 21 42  1  0  0  0  0
 21 43  1  0  0  0  0
 22 37  1  0  0  0  0
 22 44  1  0  0  0  0
 22 45  1  0  0  0  0
 23 46  1  0  0  0  0
M  END
> <PUBCHEM_COMPOUND_CID>
51090920

> <PUBCHEM_COMPOUND_CANONICALIZED>
1

> <PUBCHEM_CACTVS_COMPLEXITY>
422

> <PUBCHEM_CACTVS_HBOND_ACCEPTOR>
6

> <PUBCHEM_CACTVS_HBOND_DONOR>
1

> <PUBCHEM_CACTVS_ROTATABLE_BOND>
5

> <PUBCHEM_CACTVS_SUBSKEYS>
AAADceBzoYAAAAAAAAAAAAAAAAAAAWLAAAAAAAAAAAAAAAABgAAAHwAYAAAADYjBmhQugJPIAACqAhF3VACQBAAVgAAQEKEoRFAAAIhAwUAEhIgAHgDAAMAAAAAIAAAAAAAAAAAAAAAAAAAAAAAAAAAAAA==

> <PUBCHEM_IUPAC_OPENEYE_NAME>
1-tert-butyl-N-[[1-(2,2,2-trifluoroethyl)pyrrolidin-3-yl]methyl]pyrazole-4-carboxamide

> <PUBCHEM_IUPAC_CAS_NAME>
1-tert-butyl-N-[[1-(2,2,2-trifluoroethyl)-3-pyrrolidinyl]methyl]-4-pyrazolecarboxamide

> <PUBCHEM_IUPAC_NAME>
1-tert-butyl-N-[[1-(2,2,2-trifluoroethyl)pyrrolidin-3-yl]methyl]pyrazole-4-carboxamide

> <PUBCHEM_IUPAC_SYSTEMATIC_NAME>
1-tert-butyl-N-[[1-[2,2,2-tris(fluoranyl)ethyl]pyrrolidin-3-yl]methyl]pyrazole-4-carboxamide

> <PUBCHEM_IUPAC_TRADITIONAL_NAME>
1-tert-butyl-N-[[1-(2,2,2-trifluoroethyl)pyrrolidin-3-yl]methyl]pyrazole-4-carboxamide

> <PUBCHEM_IUPAC_INCHI>
InChI=1S/C15H23F3N4O/c1-14(2,3)22-9-12(7-20-22)13(23)19-6-11-4-5-21(8-11)10-15(16,17)18/h7,9,11H,4-6,8,10H2,1-3H3,(H,19,23)

> <PUBCHEM_IUPAC_INCHIKEY>
IMLJZJCENVRGKW-UHFFFAOYSA-N

> <PUBCHEM_XLOGP3_AA>
1.9

> <PUBCHEM_EXACT_MASS>
332.182396

> <PUBCHEM_MOLECULAR_FORMULA>
C15H23F3N4O

> <PUBCHEM_MOLECULAR_WEIGHT>
332.36453

> <PUBCHEM_OPENEYE_CAN_SMILES>
CC(C)(C)N1C=C(C=N1)C(=O)NCC2CCN(C2)CC(F)(F)F

> <PUBCHEM_OPENEYE_ISO_SMILES>
CC(C)(C)N1C=C(C=N1)C(=O)NCC2CCN(C2)CC(F)(F)F

> <PUBCHEM_CACTVS_TPSA>
50.2

> <PUBCHEM_MONOISOTOPIC_WEIGHT>
332.182396

> <PUBCHEM_TOTAL_CHARGE>
0

> <PUBCHEM_HEAVY_ATOM_COUNT>
23

> <PUBCHEM_ATOM_DEF_STEREO_COUNT>
0

> <PUBCHEM_ATOM_UDEF_STEREO_COUNT>
1

> <PUBCHEM_BOND_DEF_STEREO_COUNT>
0

> <PUBCHEM_BOND_UDEF_STEREO_COUNT>
0

> <PUBCHEM_ISOTOPIC_ATOM_COUNT>
0

> <PUBCHEM_COMPONENT_COUNT>
1

> <PUBCHEM_CACTVS_TAUTO_COUNT>
2

> <PUBCHEM_COORDINATE_TYPE>
1
5
255

> <PUBCHEM_BONDANNOTATIONS>
18  19  8
18  23  8
7  19  8
7  8  8
8  23  8
9  13  3

$$$$

