47205494
  -OEChem-06241222582D

 33 35  0     0  0  0  0  0  0999 V2000
    3.5878    0.1676    0.0000 S   0  0  0  0  0  0  0  0  0  0  0  0
    5.3831   -0.2196    0.0000 O   0  0  0  0  0  0  0  0  0  0  0  0
    7.8511    2.0186    0.0000 N   0  0  0  0  0  0  0  0  0  0  0  0
    4.8479    1.4277    0.0000 N   0  0  0  0  0  0  0  0  0  0  0  0
    3.0878    1.7064    0.0000 N   0  0  0  0  0  0  0  0  0  0  0  0
    7.3511    0.4798    0.0000 C   0  0  0  0  0  0  0  0  0  0  0  0
    6.5421    1.0676    0.0000 C   0  0  0  0  0  0  0  0  0  0  0  0
    7.3511   -0.5202    0.0000 C   0  0  0  0  0  0  0  0  0  0  0  0
    8.1601    1.0676    0.0000 C   0  0  0  0  0  0  0  0  0  0  0  0
    6.8511    2.0186    0.0000 C   0  0  0  0  0  0  0  0  0  0  0  0
    5.5910    0.7586    0.0000 C   0  0  0  0  0  0  0  0  0  0  0  0
    6.4850   -1.0202    0.0000 C   0  0  0  0  0  0  0  0  0  0  0  0
    8.2171   -1.0202    0.0000 C   0  0  0  0  0  0  0  0  0  0  0  0
    3.8968    1.1187    0.0000 C   0  0  0  0  0  0  0  0  0  0  0  0
    6.4850   -2.0202    0.0000 C   0  0  0  0  0  0  0  0  0  0  0  0
    8.2171   -2.0202    0.0000 C   0  0  0  0  0  0  0  0  0  0  0  0
    7.3511   -2.5202    0.0000 C   0  0  0  0  0  0  0  0  0  0  0  0
    2.5878    0.1676    0.0000 C   0  0  0  0  0  0  0  0  0  0  0  0
    2.2788    1.1187    0.0000 C   0  0  0  0  0  0  0  0  0  0  0  0
    2.0000   -0.6414    0.0000 C   0  0  0  0  0  0  0  0  0  0  0  0
    8.7498    0.8760    0.0000 H   0  0  0  0  0  0  0  0  0  0  0  0
    6.4866    2.5202    0.0000 H   0  0  0  0  0  0  0  0  0  0  0  0
    8.2155    2.5202    0.0000 H   0  0  0  0  0  0  0  0  0  0  0  0
    5.9481   -0.7102    0.0000 H   0  0  0  0  0  0  0  0  0  0  0  0
    8.7540   -0.7102    0.0000 H   0  0  0  0  0  0  0  0  0  0  0  0
    4.9768    2.0341    0.0000 H   0  0  0  0  0  0  0  0  0  0  0  0
    5.9481   -2.3302    0.0000 H   0  0  0  0  0  0  0  0  0  0  0  0
    8.7540   -2.3302    0.0000 H   0  0  0  0  0  0  0  0  0  0  0  0
    7.3511   -3.1402    0.0000 H   0  0  0  0  0  0  0  0  0  0  0  0
    1.6891    1.3103    0.0000 H   0  0  0  0  0  0  0  0  0  0  0  0
    1.4984   -0.2770    0.0000 H   0  0  0  0  0  0  0  0  0  0  0  0
    1.6356   -1.1430    0.0000 H   0  0  0  0  0  0  0  0  0  0  0  0
    2.5016   -1.0058    0.0000 H   0  0  0  0  0  0  0  0  0  0  0  0
  1 14  1  0  0  0  0
  1 18  1  0  0  0  0
  2 11  2  0  0  0  0
  3  9  1  0  0  0  0
  3 10  1  0  0  0  0
  3 23  1  0  0  0  0
  4 11  1  0  0  0  0
  4 14  1  0  0  0  0
  4 26  1  0  0  0  0
  5 14  2  0  0  0  0
  5 19  1  0  0  0  0
  6  7  1  0  0  0  0
  6  8  1  0  0  0  0
  6  9  2  0  0  0  0
  7 10  2  0  0  0  0
  7 11  1  0  0  0  0
  8 12  2  0  0  0  0
  8 13  1  0  0  0  0
  9 21  1  0  0  0  0
 10 22  1  0  0  0  0
 12 15  1  0  0  0  0
 12 24  1  0  0  0  0
 13 16  2  0  0  0  0
 13 25  1  0  0  0  0
 15 17  2  0  0  0  0
 15 27  1  0  0  0  0
 16 17  1  0  0  0  0
 16 28  1  0  0  0  0
 17 29  1  0  0  0  0
 18 19  2  0  0  0  0
 18 20  1  0  0  0  0
 19 30  1  0  0  0  0
 20 31  1  0  0  0  0
 20 32  1  0  0  0  0
 20 33  1  0  0  0  0
M  END
> <PUBCHEM_COMPOUND_CID>
47205494

> <PUBCHEM_COMPOUND_CANONICALIZED>
1

> <PUBCHEM_CACTVS_COMPLEXITY>
346

> <PUBCHEM_CACTVS_HBOND_ACCEPTOR>
3

> <PUBCHEM_CACTVS_HBOND_DONOR>
2

> <PUBCHEM_CACTVS_ROTATABLE_BOND>
3

> <PUBCHEM_CACTVS_SUBSKEYS>
AAADccBzIABAAAAAAAAAAAAAAAAAAWLAAAAwAAAAAAAAAAAB8AAAHgQQAAAADADB2gQ/kZLJkAisAjF3dACC8Kl1CDlJ2a0oRNiIIHrA3ZGEIYhogQLIyecciMCOgAAAAAAAAAAAAAAAAAAAAAAAAAAAAA==

> <PUBCHEM_IUPAC_OPENEYE_NAME>
N-(5-methylthiazol-2-yl)-4-phenyl-1H-pyrrole-3-carboxamide

> <PUBCHEM_IUPAC_CAS_NAME>
N-(5-methyl-2-thiazolyl)-4-phenyl-1H-pyrrole-3-carboxamide

> <PUBCHEM_IUPAC_NAME>
N-(5-methyl-1,3-thiazol-2-yl)-4-phenyl-1H-pyrrole-3-carboxamide

> <PUBCHEM_IUPAC_SYSTEMATIC_NAME>
N-(5-methyl-1,3-thiazol-2-yl)-4-phenyl-1H-pyrrole-3-carboxamide

> <PUBCHEM_IUPAC_TRADITIONAL_NAME>
N-(5-methylthiazol-2-yl)-4-phenyl-1H-pyrrole-3-carboxamide

> <PUBCHEM_IUPAC_INCHI>
InChI=1S/C15H13N3OS/c1-10-7-17-15(20-10)18-14(19)13-9-16-8-12(13)11-5-3-2-4-6-11/h2-9,16H,1H3,(H,17,18,19)

> <PUBCHEM_IUPAC_INCHIKEY>
XWIKLCOQQXKJMN-UHFFFAOYSA-N

> <PUBCHEM_XLOGP3_AA>
2.9

> <PUBCHEM_EXACT_MASS>
283.077933

> <PUBCHEM_MOLECULAR_FORMULA>
C15H13N3OS

> <PUBCHEM_MOLECULAR_WEIGHT>
283.34822

> <PUBCHEM_OPENEYE_CAN_SMILES>
CC1=CN=C(S1)NC(=O)C2=CNC=C2C3=CC=CC=C3

> <PUBCHEM_OPENEYE_ISO_SMILES>
CC1=CN=C(S1)NC(=O)C2=CNC=C2C3=CC=CC=C3

> <PUBCHEM_CACTVS_TPSA>
86

> <PUBCHEM_MONOISOTOPIC_WEIGHT>
283.077933

> <PUBCHEM_TOTAL_CHARGE>
0

> <PUBCHEM_HEAVY_ATOM_COUNT>
20

> <PUBCHEM_ATOM_DEF_STEREO_COUNT>
0

> <PUBCHEM_ATOM_UDEF_STEREO_COUNT>
0

> <PUBCHEM_BOND_DEF_STEREO_COUNT>
0

> <PUBCHEM_BOND_UDEF_STEREO_COUNT>
0

> <PUBCHEM_ISOTOPIC_ATOM_COUNT>
0

> <PUBCHEM_COMPONENT_COUNT>
1

> <PUBCHEM_CACTVS_TAUTO_COUNT>
8

> <PUBCHEM_COORDINATE_TYPE>
1
5
255

> <PUBCHEM_BONDANNOTATIONS>
1  14  8
1  18  8
12  15  8
13  16  8
15  17  8
16  17  8
18  19  8
3  10  8
3  9  8
5  14  8
5  19  8
6  7  8
6  9  8
7  10  8
8  12  8
8  13  8

$$$$

