17395536
  -OEChem-06241222502D

 53 56  0     1  0  0  0  0  0999 V2000
    6.3301    0.9827    0.0000 O   0  0  0  0  0  0  0  0  0  0  0  0
    6.3301   -1.0173    0.0000 N   0  0  0  0  0  0  0  0  0  0  0  0
    4.5981   -2.0173    0.0000 N   0  0  0  0  0  0  0  0  0  0  0  0
    8.0622    0.9827    0.0000 N   0  0  0  0  0  0  0  0  0  0  0  0
    8.0622    1.9827    0.0000 C   0  0  3  0  0  0  0  0  0  0  0  0
    7.1962    2.4827    0.0000 C   0  0  0  0  0  0  0  0  0  0  0  0
    7.1962    3.4827    0.0000 C   0  0  0  0  0  0  0  0  0  0  0  0
    8.9282    2.4827    0.0000 C   0  0  0  0  0  0  0  0  0  0  0  0
    5.4641   -0.5173    0.0000 C   0  0  0  0  0  0  0  0  0  0  0  0
    6.3301   -2.0173    0.0000 C   0  0  0  0  0  0  0  0  0  0  0  0
    8.0622    3.9827    0.0000 C   0  0  0  0  0  0  0  0  0  0  0  0
    5.4641   -2.5173    0.0000 C   0  0  0  0  0  0  0  0  0  0  0  0
    4.5981   -1.0173    0.0000 C   0  0  0  0  0  0  0  0  0  0  0  0
    8.9282    3.4827    0.0000 C   0  0  0  0  0  0  0  0  0  0  0  0
    7.1962   -0.5173    0.0000 C   0  0  0  0  0  0  0  0  0  0  0  0
    7.1962    0.4827    0.0000 C   0  0  0  0  0  0  0  0  0  0  0  0
    9.8222    1.9480    0.0000 C   0  0  0  0  0  0  0  0  0  0  0  0
    3.7320   -2.5173    0.0000 C   0  0  0  0  0  0  0  0  0  0  0  0
    9.8222    4.0173    0.0000 C   0  0  0  0  0  0  0  0  0  0  0  0
   10.7282    2.4618    0.0000 C   0  0  0  0  0  0  0  0  0  0  0  0
   10.7282    3.5035    0.0000 C   0  0  0  0  0  0  0  0  0  0  0  0
    2.8660   -2.0173    0.0000 C   0  0  0  0  0  0  0  0  0  0  0  0
    3.7320   -3.5173    0.0000 C   0  0  0  0  0  0  0  0  0  0  0  0
    2.0000   -2.5173    0.0000 C   0  0  0  0  0  0  0  0  0  0  0  0
    2.8660   -4.0173    0.0000 C   0  0  0  0  0  0  0  0  0  0  0  0
    2.0000   -3.5173    0.0000 C   0  0  0  0  0  0  0  0  0  0  0  0
    7.5252    1.6727    0.0000 H   0  0  0  0  0  0  0  0  0  0  0  0
    6.5856    2.5903    0.0000 H   0  0  0  0  0  0  0  0  0  0  0  0
    6.9841    1.9001    0.0000 H   0  0  0  0  0  0  0  0  0  0  0  0
    6.9841    4.0653    0.0000 H   0  0  0  0  0  0  0  0  0  0  0  0
    6.5856    3.3750    0.0000 H   0  0  0  0  0  0  0  0  0  0  0  0
    6.5422   -2.5999    0.0000 H   0  0  0  0  0  0  0  0  0  0  0  0
    6.9407   -1.9097    0.0000 H   0  0  0  0  0  0  0  0  0  0  0  0
    5.8626   -0.0424    0.0000 H   0  0  0  0  0  0  0  0  0  0  0  0
    5.0656   -0.0424    0.0000 H   0  0  0  0  0  0  0  0  0  0  0  0
    8.4607    4.4576    0.0000 H   0  0  0  0  0  0  0  0  0  0  0  0
    7.6636    4.4576    0.0000 H   0  0  0  0  0  0  0  0  0  0  0  0
    5.0656   -2.9923    0.0000 H   0  0  0  0  0  0  0  0  0  0  0  0
    4.3860   -0.4347    0.0000 H   0  0  0  0  0  0  0  0  0  0  0  0
    3.9875   -1.1250    0.0000 H   0  0  0  0  0  0  0  0  0  0  0  0
    5.8626   -2.9923    0.0000 H   0  0  0  0  0  0  0  0  0  0  0  0
    7.4082   -1.0999    0.0000 H   0  0  0  0  0  0  0  0  0  0  0  0
    7.8067   -0.4097    0.0000 H   0  0  0  0  0  0  0  0  0  0  0  0
    8.5991    0.6727    0.0000 H   0  0  0  0  0  0  0  0  0  0  0  0
    9.8150    1.3280    0.0000 H   0  0  0  0  0  0  0  0  0  0  0  0
    9.8150    4.6373    0.0000 H   0  0  0  0  0  0  0  0  0  0  0  0
   11.2639    2.1498    0.0000 H   0  0  0  0  0  0  0  0  0  0  0  0
   11.2639    3.8156    0.0000 H   0  0  0  0  0  0  0  0  0  0  0  0
    2.8660   -1.3973    0.0000 H   0  0  0  0  0  0  0  0  0  0  0  0
    4.2690   -3.8273    0.0000 H   0  0  0  0  0  0  0  0  0  0  0  0
    1.4631   -2.2073    0.0000 H   0  0  0  0  0  0  0  0  0  0  0  0
    2.8660   -4.6373    0.0000 H   0  0  0  0  0  0  0  0  0  0  0  0
    1.4631   -3.8273    0.0000 H   0  0  0  0  0  0  0  0  0  0  0  0
  1 16  2  0  0  0  0
  2  9  1  0  0  0  0
  2 10  1  0  0  0  0
  2 15  1  0  0  0  0
  3 12  1  0  0  0  0
  3 13  1  0  0  0  0
  3 18  1  0  0  0  0
  4  5  1  0  0  0  0
  4 16  1  0  0  0  0
  4 44  1  0  0  0  0
  5  6  1  0  0  0  0
  5  8  1  0  0  0  0
  5 27  1  0  0  0  0
  6  7  1  0  0  0  0
  6 28  1  0  0  0  0
  6 29  1  0  0  0  0
  7 11  1  0  0  0  0
  7 30  1  0  0  0  0
  7 31  1  0  0  0  0
  8 14  1  0  0  0  0
  8 17  2  0  0  0  0
  9 13  1  0  0  0  0
  9 34  1  0  0  0  0
  9 35  1  0  0  0  0
 10 12  1  0  0  0  0
 10 32  1  0  0  0  0
 10 33  1  0  0  0  0
 11 14  1  0  0  0  0
 11 36  1  0  0  0  0
 11 37  1  0  0  0  0
 12 38  1  0  0  0  0
 12 41  1  0  0  0  0
 13 39  1  0  0  0  0
 13 40  1  0  0  0  0
 14 19  2  0  0  0  0
 15 16  1  0  0  0  0
 15 42  1  0  0  0  0
 15 43  1  0  0  0  0
 17 20  1  0  0  0  0
 17 45  1  0  0  0  0
 18 22  2  0  0  0  0
 18 23  1  0  0  0  0
 19 21  1  0  0  0  0
 19 46  1  0  0  0  0
 20 21  2  0  0  0  0
 20 47  1  0  0  0  0
 21 48  1  0  0  0  0
 22 24  1  0  0  0  0
 22 49  1  0  0  0  0
 23 25  2  0  0  0  0
 23 50  1  0  0  0  0
 24 26  2  0  0  0  0
 24 51  1  0  0  0  0
 25 26  1  0  0  0  0
 25 52  1  0  0  0  0
 26 53  1  0  0  0  0
M  END
> <PUBCHEM_COMPOUND_CID>
17395536

> <PUBCHEM_COMPOUND_CANONICALIZED>
1

> <PUBCHEM_CACTVS_COMPLEXITY>
454

> <PUBCHEM_CACTVS_HBOND_ACCEPTOR>
3

> <PUBCHEM_CACTVS_HBOND_DONOR>
1

> <PUBCHEM_CACTVS_ROTATABLE_BOND>
4

> <PUBCHEM_CACTVS_SUBSKEYS>
AAADceB7IAAAAAAAAAAAAAAAAAAAAAAAAAA8YMEAAAAAAADBQAAAHgAQAAAADCjBmAQwwIPAAACIAiVSUACCAAAhAgAIiICIZIgIYCLAkbGUIAhglgDIyAcQgIAOgAAAAAAQAAAAAACAACQAAAAAAAAAAA==

> <PUBCHEM_IUPAC_OPENEYE_NAME>
2-(4-phenylpiperazin-1-yl)-N-tetralin-1-yl-acetamide

> <PUBCHEM_IUPAC_CAS_NAME>
2-(4-phenyl-1-piperazinyl)-N-(1,2,3,4-tetrahydronaphthalen-1-yl)acetamide

> <PUBCHEM_IUPAC_NAME>
2-(4-phenylpiperazin-1-yl)-N-(1,2,3,4-tetrahydronaphthalen-1-yl)acetamide

> <PUBCHEM_IUPAC_SYSTEMATIC_NAME>
2-(4-phenylpiperazin-1-yl)-N-(1,2,3,4-tetrahydronaphthalen-1-yl)ethanamide

> <PUBCHEM_IUPAC_TRADITIONAL_NAME>
2-(4-phenylpiperazino)-N-tetralin-1-yl-acetamide

> <PUBCHEM_IUPAC_INCHI>
InChI=1S/C22H27N3O/c26-22(23-21-12-6-8-18-7-4-5-11-20(18)21)17-24-13-15-25(16-14-24)19-9-2-1-3-10-19/h1-5,7,9-11,21H,6,8,12-17H2,(H,23,26)

> <PUBCHEM_IUPAC_INCHIKEY>
RCFUUWNAUAFQRG-UHFFFAOYSA-N

> <PUBCHEM_XLOGP3_AA>
3.5

> <PUBCHEM_EXACT_MASS>
349.215412

> <PUBCHEM_MOLECULAR_FORMULA>
C22H27N3O

> <PUBCHEM_MOLECULAR_WEIGHT>
349.46928

> <PUBCHEM_OPENEYE_CAN_SMILES>
C1CC(C2=CC=CC=C2C1)NC(=O)CN3CCN(CC3)C4=CC=CC=C4

> <PUBCHEM_OPENEYE_ISO_SMILES>
C1CC(C2=CC=CC=C2C1)NC(=O)CN3CCN(CC3)C4=CC=CC=C4

> <PUBCHEM_CACTVS_TPSA>
35.6

> <PUBCHEM_MONOISOTOPIC_WEIGHT>
349.215412

> <PUBCHEM_TOTAL_CHARGE>
0

> <PUBCHEM_HEAVY_ATOM_COUNT>
26

> <PUBCHEM_ATOM_DEF_STEREO_COUNT>
0

> <PUBCHEM_ATOM_UDEF_STEREO_COUNT>
1

> <PUBCHEM_BOND_DEF_STEREO_COUNT>
0

> <PUBCHEM_BOND_UDEF_STEREO_COUNT>
0

> <PUBCHEM_ISOTOPIC_ATOM_COUNT>
0

> <PUBCHEM_COMPONENT_COUNT>
1

> <PUBCHEM_CACTVS_TAUTO_COUNT>
2

> <PUBCHEM_COORDINATE_TYPE>
1
5
255

> <PUBCHEM_BONDANNOTATIONS>
14  19  8
17  20  8
18  22  8
18  23  8
19  21  8
20  21  8
22  24  8
23  25  8
24  26  8
25  26  8
5  4  3
8  14  8
8  17  8

$$$$

