17395866
  -OEChem-06241222522D

 48 50  0     1  0  0  0  0  0999 V2000
    7.9449    4.7299    0.0000 Cl  0  0  0  0  0  0  0  0  0  0  0  0
    5.2820   -2.5389    0.0000 O   0  0  0  0  0  0  0  0  0  0  0  0
    4.1942    0.8089    0.0000 O   0  0  0  0  0  0  0  0  0  0  0  0
    5.0032   -0.7789    0.0000 N   0  0  0  0  0  0  0  0  0  0  0  0
    3.3852   -0.7789    0.0000 N   0  0  0  0  0  0  0  0  0  0  0  0
    6.1622    0.5083    0.0000 N   0  0  3  0  0  0  0  0  0  0  0  0
    3.6942   -1.7299    0.0000 C   0  0  3  0  0  0  0  0  0  0  0  0
    2.7431   -2.0389    0.0000 C   0  0  0  0  0  0  0  0  0  0  0  0
    4.6942   -1.7299    0.0000 C   0  0  0  0  0  0  0  0  0  0  0  0
    3.6942   -2.7299    0.0000 C   0  0  0  0  0  0  0  0  0  0  0  0
    4.1942   -0.1911    0.0000 C   0  0  0  0  0  0  0  0  0  0  0  0
    5.9543   -0.4698    0.0000 C   0  0  0  0  0  0  0  0  0  0  0  0
    2.0000   -1.3698    0.0000 C   0  0  0  0  0  0  0  0  0  0  0  0
    2.8282   -3.2299    0.0000 C   0  0  0  0  0  0  0  0  0  0  0  0
    4.5602   -3.2299    0.0000 C   0  0  0  0  0  0  0  0  0  0  0  0
    7.1132    0.8173    0.0000 C   0  0  0  0  0  0  0  0  0  0  0  0
    5.4190    1.1774    0.0000 C   0  0  0  0  0  0  0  0  0  0  0  0
    2.8282   -4.2299    0.0000 C   0  0  0  0  0  0  0  0  0  0  0  0
    4.5602   -4.2299    0.0000 C   0  0  0  0  0  0  0  0  0  0  0  0
    7.3212    1.7955    0.0000 C   0  0  0  0  0  0  0  0  0  0  0  0
    3.6942   -4.7299    0.0000 C   0  0  0  0  0  0  0  0  0  0  0  0
    8.2722    2.1045    0.0000 C   0  0  0  0  0  0  0  0  0  0  0  0
    6.5780    2.4646    0.0000 C   0  0  0  0  0  0  0  0  0  0  0  0
    8.4801    3.0826    0.0000 C   0  0  0  0  0  0  0  0  0  0  0  0
    6.7859    3.4428    0.0000 C   0  0  0  0  0  0  0  0  0  0  0  0
    7.7370    3.7518    0.0000 C   0  0  0  0  0  0  0  0  0  0  0  0
    2.2546   -2.4206    0.0000 H   0  0  0  0  0  0  0  0  0  0  0  0
    3.0342   -2.5864    0.0000 H   0  0  0  0  0  0  0  0  0  0  0  0
    2.7955   -0.5873    0.0000 H   0  0  0  0  0  0  0  0  0  0  0  0
    6.0406   -1.0838    0.0000 H   0  0  0  0  0  0  0  0  0  0  0  0
    6.5739   -0.4915    0.0000 H   0  0  0  0  0  0  0  0  0  0  0  0
    2.4149   -0.9091    0.0000 H   0  0  0  0  0  0  0  0  0  0  0  0
    1.5392   -0.9549    0.0000 H   0  0  0  0  0  0  0  0  0  0  0  0
    1.5851   -1.8306    0.0000 H   0  0  0  0  0  0  0  0  0  0  0  0
    2.2912   -2.9199    0.0000 H   0  0  0  0  0  0  0  0  0  0  0  0
    5.0972   -2.9199    0.0000 H   0  0  0  0  0  0  0  0  0  0  0  0
    7.1995    0.2034    0.0000 H   0  0  0  0  0  0  0  0  0  0  0  0
    7.7329    0.7957    0.0000 H   0  0  0  0  0  0  0  0  0  0  0  0
    5.8339    1.6382    0.0000 H   0  0  0  0  0  0  0  0  0  0  0  0
    4.9583    1.5923    0.0000 H   0  0  0  0  0  0  0  0  0  0  0  0
    5.0042    0.7167    0.0000 H   0  0  0  0  0  0  0  0  0  0  0  0
    2.2912   -4.5399    0.0000 H   0  0  0  0  0  0  0  0  0  0  0  0
    5.0972   -4.5399    0.0000 H   0  0  0  0  0  0  0  0  0  0  0  0
    3.6942   -5.3499    0.0000 H   0  0  0  0  0  0  0  0  0  0  0  0
    8.7330    1.6896    0.0000 H   0  0  0  0  0  0  0  0  0  0  0  0
    5.9884    2.2730    0.0000 H   0  0  0  0  0  0  0  0  0  0  0  0
    9.0698    3.2742    0.0000 H   0  0  0  0  0  0  0  0  0  0  0  0
    6.3252    3.8576    0.0000 H   0  0  0  0  0  0  0  0  0  0  0  0
  1 26  1  0  0  0  0
  2  9  2  0  0  0  0
  3 11  2  0  0  0  0
  4  9  1  0  0  0  0
  4 11  1  0  0  0  0
  4 12  1  0  0  0  0
  5  7  1  0  0  0  0
  5 11  1  0  0  0  0
  5 29  1  0  0  0  0
  6 12  1  0  0  0  0
  6 16  1  0  0  0  0
  6 17  1  0  0  0  0
  7  8  1  0  0  0  0
  7  9  1  0  0  0  0
  7 10  1  0  0  0  0
  8 13  1  0  0  0  0
  8 27  1  0  0  0  0
  8 28  1  0  0  0  0
 10 14  2  0  0  0  0
 10 15  1  0  0  0  0
 12 30  1  0  0  0  0
 12 31  1  0  0  0  0
 13 32  1  0  0  0  0
 13 33  1  0  0  0  0
 13 34  1  0  0  0  0
 14 18  1  0  0  0  0
 14 35  1  0  0  0  0
 15 19  2  0  0  0  0
 15 36  1  0  0  0  0
 16 20  1  0  0  0  0
 16 37  1  0  0  0  0
 16 38  1  0  0  0  0
 17 39  1  0  0  0  0
 17 40  1  0  0  0  0
 17 41  1  0  0  0  0
 18 21  2  0  0  0  0
 18 42  1  0  0  0  0
 19 21  1  0  0  0  0
 19 43  1  0  0  0  0
 20 22  2  0  0  0  0
 20 23  1  0  0  0  0
 21 44  1  0  0  0  0
 22 24  1  0  0  0  0
 22 45  1  0  0  0  0
 23 25  2  0  0  0  0
 23 46  1  0  0  0  0
 24 26  2  0  0  0  0
 24 47  1  0  0  0  0
 25 26  1  0  0  0  0
 25 48  1  0  0  0  0
M  END
> <PUBCHEM_COMPOUND_CID>
17395866

> <PUBCHEM_COMPOUND_CANONICALIZED>
1

> <PUBCHEM_CACTVS_COMPLEXITY>
515

> <PUBCHEM_CACTVS_HBOND_ACCEPTOR>
3

> <PUBCHEM_CACTVS_HBOND_DONOR>
1

> <PUBCHEM_CACTVS_ROTATABLE_BOND>
6

> <PUBCHEM_CACTVS_SUBSKEYS>
AAADceB7MAAEAAAAAAAAAAAAAAAAAWAAAAAwYAAAAAAAAAABQAAAHgIQAAAADIrBmCQzAIPAAACIAiFSEACCAAAgBQAIiAGIBoiIYDKBlzGUIAholyIIiAcYiMCOhAAAAAAAAAAIAAAAAAAAAAAAAAAAAA==

> <PUBCHEM_IUPAC_OPENEYE_NAME>
3-[[(4-chlorophenyl)methyl-methyl-amino]methyl]-5-ethyl-5-phenyl-imidazolidine-2,4-dione

> <PUBCHEM_IUPAC_CAS_NAME>
3-[[(4-chlorophenyl)methyl-methylamino]methyl]-5-ethyl-5-phenylimidazolidine-2,4-dione

> <PUBCHEM_IUPAC_NAME>
3-[[(4-chlorophenyl)methyl-methylamino]methyl]-5-ethyl-5-phenylimidazolidine-2,4-dione

> <PUBCHEM_IUPAC_SYSTEMATIC_NAME>
3-[[(4-chlorophenyl)methyl-methyl-amino]methyl]-5-ethyl-5-phenyl-imidazolidine-2,4-dione

> <PUBCHEM_IUPAC_TRADITIONAL_NAME>
3-[[(4-chlorobenzyl)-methyl-amino]methyl]-5-ethyl-5-phenyl-hydantoin

> <PUBCHEM_IUPAC_INCHI>
InChI=1S/C20H22ClN3O2/c1-3-20(16-7-5-4-6-8-16)18(25)24(19(26)22-20)14-23(2)13-15-9-11-17(21)12-10-15/h4-12H,3,13-14H2,1-2H3,(H,22,26)

> <PUBCHEM_IUPAC_INCHIKEY>
WOAZBGPMUBUTOC-UHFFFAOYSA-N

> <PUBCHEM_XLOGP3_AA>
3.8

> <PUBCHEM_EXACT_MASS>
371.140055

> <PUBCHEM_MOLECULAR_FORMULA>
C20H22ClN3O2

> <PUBCHEM_MOLECULAR_WEIGHT>
371.86058

> <PUBCHEM_OPENEYE_CAN_SMILES>
CCC1(C(=O)N(C(=O)N1)CN(C)CC2=CC=C(C=C2)Cl)C3=CC=CC=C3

> <PUBCHEM_OPENEYE_ISO_SMILES>
CCC1(C(=O)N(C(=O)N1)CN(C)CC2=CC=C(C=C2)Cl)C3=CC=CC=C3

> <PUBCHEM_CACTVS_TPSA>
52.6

> <PUBCHEM_MONOISOTOPIC_WEIGHT>
371.140055

> <PUBCHEM_TOTAL_CHARGE>
0

> <PUBCHEM_HEAVY_ATOM_COUNT>
26

> <PUBCHEM_ATOM_DEF_STEREO_COUNT>
0

> <PUBCHEM_ATOM_UDEF_STEREO_COUNT>
1

> <PUBCHEM_BOND_DEF_STEREO_COUNT>
0

> <PUBCHEM_BOND_UDEF_STEREO_COUNT>
0

> <PUBCHEM_ISOTOPIC_ATOM_COUNT>
0

> <PUBCHEM_COMPONENT_COUNT>
1

> <PUBCHEM_CACTVS_TAUTO_COUNT>
2

> <PUBCHEM_COORDINATE_TYPE>
1
5
255

> <PUBCHEM_BONDANNOTATIONS>
10  14  8
10  15  8
14  18  8
15  19  8
18  21  8
19  21  8
20  22  8
20  23  8
22  24  8
23  25  8
24  26  8
25  26  8
7  8  3

$$$$

