11901
  -OEChem-06261206152D

 18 19  0     0  0  0  0  0  0999 V2000
    7.2579    1.2553    0.0000 O   0  0  0  0  0  0  0  0  0  0  0  0
    8.5309   -0.5000    0.0000 O   0  0  0  0  0  0  0  0  0  0  0  0
    2.5369   -0.0000    0.0000 O   0  0  0  0  0  0  0  0  0  0  0  0
    3.4030    1.5000    0.0000 O   0  5  0  0  0  0  0  0  0  0  0  0
    6.9473   -1.3047    0.0000 N   0  0  0  0  0  0  0  0  0  0  0  0
    3.4030    0.5000    0.0000 N   0  3  0  0  0  0  0  0  0  0  0  0
    6.0010    0.0000    0.0000 C   0  0  0  0  0  0  0  0  0  0  0  0
    6.0010   -1.0000    0.0000 C   0  0  0  0  0  0  0  0  0  0  0  0
    5.1350    0.5000    0.0000 C   0  0  0  0  0  0  0  0  0  0  0  0
    4.2690    0.0000    0.0000 C   0  0  0  0  0  0  0  0  0  0  0  0
    5.1350   -1.5000    0.0000 C   0  0  0  0  0  0  0  0  0  0  0  0
    6.9473    0.3047    0.0000 C   0  0  0  0  0  0  0  0  0  0  0  0
    4.2690   -1.0000    0.0000 C   0  0  0  0  0  0  0  0  0  0  0  0
    7.5309   -0.5000    0.0000 C   0  0  0  0  0  0  0  0  0  0  0  0
    5.1350    1.1200    0.0000 H   0  0  0  0  0  0  0  0  0  0  0  0
    5.1350   -2.1200    0.0000 H   0  0  0  0  0  0  0  0  0  0  0  0
    3.7321   -1.3100    0.0000 H   0  0  0  0  0  0  0  0  0  0  0  0
    2.0000    0.3100    0.0000 H   0  0  0  0  0  0  0  0  0  0  0  0
  1 12  2  0  0  0  0
  2 14  2  0  0  0  0
  3  6  1  0  0  0  0
  3 18  1  0  0  0  0
  4  6  1  0  0  0  0
  5  8  2  0  0  0  0
  5 14  1  0  0  0  0
  6 10  2  3  0  0  0
  7  8  1  0  0  0  0
  7  9  2  0  0  0  0
  7 12  1  0  0  0  0
  8 11  1  0  0  0  0
  9 10  1  0  0  0  0
  9 15  1  0  0  0  0
 10 13  1  0  0  0  0
 11 13  2  0  0  0  0
 11 16  1  0  0  0  0
 12 14  1  0  0  0  0
 13 17  1  0  0  0  0
M  CHG  2   4  -1   6   1
M  END
> <PUBCHEM_COMPOUND_CID>
11901

> <PUBCHEM_COMPOUND_CANONICALIZED>
1

> <PUBCHEM_CACTVS_COMPLEXITY>
468

> <PUBCHEM_CACTVS_HBOND_ACCEPTOR>
4

> <PUBCHEM_CACTVS_HBOND_DONOR>
1

> <PUBCHEM_CACTVS_ROTATABLE_BOND>
0

> <PUBCHEM_CACTVS_SUBSKEYS>
AAADcYBzOAAAAAAAAAAAAAAAAAAAAQAAAAAgAAAAAAAAAEAAAAAAHgAECAAADAyBgAAAAAIQQACoA6FyFAAAAAAgAAAICAGwAFgAABIAgAAAAAAAgAAIAYIYAAAAAAAAAAAAAAAAAAAAAAAAAAAAAAAAAA==

> <PUBCHEM_IUPAC_OPENEYE_NAME>
N-hydroxy-2,3-dioxo-indol-5-imine oxide

> <PUBCHEM_IUPAC_CAS_NAME>
N-hydroxy-2,3-dioxo-5-indolimine oxide

> <PUBCHEM_IUPAC_NAME>
N-hydroxy-2,3-dioxoindol-5-imine oxide

> <PUBCHEM_IUPAC_SYSTEMATIC_NAME>
N-oxidanyl-2,3-bis(oxidanylidene)indol-5-imine oxide

> <PUBCHEM_IUPAC_TRADITIONAL_NAME>
N-hydroxy-2,3-diketo-indol-5-imine oxide

> <PUBCHEM_IUPAC_INCHI>
InChI=1S/C8H4N2O4/c11-7-5-3-4(10(13)14)1-2-6(5)9-8(7)12/h1-3H,(H,13,14)

> <PUBCHEM_IUPAC_INCHIKEY>
PIAJUYLFZUTZQW-UHFFFAOYSA-N

> <PUBCHEM_XLOGP3_AA>
-0.6

> <PUBCHEM_EXACT_MASS>
192.017107

> <PUBCHEM_MOLECULAR_FORMULA>
C8H4N2O4

> <PUBCHEM_MOLECULAR_WEIGHT>
192.12836

> <PUBCHEM_OPENEYE_CAN_SMILES>
C1=CC2=NC(=O)C(=O)C2=CC1=[N+](O)[O-]

> <PUBCHEM_OPENEYE_ISO_SMILES>
C1=CC2=NC(=O)C(=O)C2=CC1=[N+](O)[O-]

> <PUBCHEM_CACTVS_TPSA>
95.5

> <PUBCHEM_MONOISOTOPIC_WEIGHT>
192.017107

> <PUBCHEM_TOTAL_CHARGE>
0

> <PUBCHEM_HEAVY_ATOM_COUNT>
14

> <PUBCHEM_ATOM_DEF_STEREO_COUNT>
0

> <PUBCHEM_ATOM_UDEF_STEREO_COUNT>
0

> <PUBCHEM_BOND_DEF_STEREO_COUNT>
0

> <PUBCHEM_BOND_UDEF_STEREO_COUNT>
1

> <PUBCHEM_ISOTOPIC_ATOM_COUNT>
0

> <PUBCHEM_COMPONENT_COUNT>
1

> <PUBCHEM_CACTVS_TAUTO_COUNT>
6

> <PUBCHEM_COORDINATE_TYPE>
1
5
255

> <PUBCHEM_BONDANNOTATIONS>
10  13  8
11  13  8
12  14  8
5  14  8
5  8  8
6  10  1
7  12  8
7  9  8
8  11  8
9  10  8

$$$$

