583187
  -OEChem-06241222442D

 47 47  0     1  0  0  0  0  0999 V2000
    3.1340    0.3170    0.0000 S   0  0  0  0  0  0  0  0  0  0  0  0
    4.8660    1.3170    0.0000 Si  0  0  0  0  0  0  0  0  0  0  0  0
    5.7321    1.8170    0.0000 Si  0  0  0  0  0  0  0  0  0  0  0  0
    4.0000    0.8170    0.0000 C   0  0  3  0  0  0  0  0  0  0  0  0
    4.3660    2.1830    0.0000 C   0  0  0  0  0  0  0  0  0  0  0  0
    5.3660    0.4510    0.0000 C   0  0  0  0  0  0  0  0  0  0  0  0
    6.5981    2.3170    0.0000 C   0  0  0  0  0  0  0  0  0  0  0  0
    5.2321    2.6830    0.0000 C   0  0  0  0  0  0  0  0  0  0  0  0
    6.2321    0.9510    0.0000 C   0  0  0  0  0  0  0  0  0  0  0  0
    4.5000   -0.0490    0.0000 C   0  0  0  0  0  0  0  0  0  0  0  0
    3.5000    1.6830    0.0000 C   0  0  0  0  0  0  0  0  0  0  0  0
    2.5000    1.6830    0.0000 C   0  0  0  0  0  0  0  0  0  0  0  0
    3.1340   -0.6830    0.0000 C   0  0  0  0  0  0  0  0  0  0  0  0
    2.0000    2.5490    0.0000 C   0  0  0  0  0  0  0  0  0  0  0  0
    4.0000   -1.1830    0.0000 C   0  0  0  0  0  0  0  0  0  0  0  0
    2.2679   -1.1830    0.0000 C   0  0  0  0  0  0  0  0  0  0  0  0
    4.0000   -2.1830    0.0000 C   0  0  0  0  0  0  0  0  0  0  0  0
    2.2679   -2.1830    0.0000 C   0  0  0  0  0  0  0  0  0  0  0  0
    3.1340   -2.6830    0.0000 C   0  0  0  0  0  0  0  0  0  0  0  0
    4.9030    2.4930    0.0000 H   0  0  0  0  0  0  0  0  0  0  0  0
    4.0560    2.7199    0.0000 H   0  0  0  0  0  0  0  0  0  0  0  0
    3.8291    1.8730    0.0000 H   0  0  0  0  0  0  0  0  0  0  0  0
    4.8291    0.1410    0.0000 H   0  0  0  0  0  0  0  0  0  0  0  0
    5.6760   -0.0860    0.0000 H   0  0  0  0  0  0  0  0  0  0  0  0
    5.9030    0.7610    0.0000 H   0  0  0  0  0  0  0  0  0  0  0  0
    6.9081    1.7801    0.0000 H   0  0  0  0  0  0  0  0  0  0  0  0
    7.1350    2.6270    0.0000 H   0  0  0  0  0  0  0  0  0  0  0  0
    6.2881    2.8539    0.0000 H   0  0  0  0  0  0  0  0  0  0  0  0
    5.7690    2.9930    0.0000 H   0  0  0  0  0  0  0  0  0  0  0  0
    4.9221    3.2199    0.0000 H   0  0  0  0  0  0  0  0  0  0  0  0
    4.6951    2.3730    0.0000 H   0  0  0  0  0  0  0  0  0  0  0  0
    5.6951    0.6410    0.0000 H   0  0  0  0  0  0  0  0  0  0  0  0
    6.5421    0.4140    0.0000 H   0  0  0  0  0  0  0  0  0  0  0  0
    6.7690    1.2610    0.0000 H   0  0  0  0  0  0  0  0  0  0  0  0
    3.9631   -0.3590    0.0000 H   0  0  0  0  0  0  0  0  0  0  0  0
    4.8100   -0.5860    0.0000 H   0  0  0  0  0  0  0  0  0  0  0  0
    5.0369    0.2610    0.0000 H   0  0  0  0  0  0  0  0  0  0  0  0
    3.8100    2.2199    0.0000 H   0  0  0  0  0  0  0  0  0  0  0  0
    2.1900    1.1461    0.0000 H   0  0  0  0  0  0  0  0  0  0  0  0
    2.5369    2.8590    0.0000 H   0  0  0  0  0  0  0  0  0  0  0  0
    1.6900    3.0860    0.0000 H   0  0  0  0  0  0  0  0  0  0  0  0
    1.4631    2.2390    0.0000 H   0  0  0  0  0  0  0  0  0  0  0  0
    4.5369   -0.8730    0.0000 H   0  0  0  0  0  0  0  0  0  0  0  0
    1.7310   -0.8730    0.0000 H   0  0  0  0  0  0  0  0  0  0  0  0
    4.5369   -2.4930    0.0000 H   0  0  0  0  0  0  0  0  0  0  0  0
    1.7310   -2.4930    0.0000 H   0  0  0  0  0  0  0  0  0  0  0  0
    3.1340   -3.3030    0.0000 H   0  0  0  0  0  0  0  0  0  0  0  0
  1  4  1  0  0  0  0
  1 13  1  0  0  0  0
  2  3  1  0  0  0  0
  2  4  1  0  0  0  0
  2  5  1  0  0  0  0
  2  6  1  0  0  0  0
  3  7  1  0  0  0  0
  3  8  1  0  0  0  0
  3  9  1  0  0  0  0
  4 10  1  0  0  0  0
  4 11  1  0  0  0  0
  5 20  1  0  0  0  0
  5 21  1  0  0  0  0
  5 22  1  0  0  0  0
  6 23  1  0  0  0  0
  6 24  1  0  0  0  0
  6 25  1  0  0  0  0
  7 26  1  0  0  0  0
  7 27  1  0  0  0  0
  7 28  1  0  0  0  0
  8 29  1  0  0  0  0
  8 30  1  0  0  0  0
  8 31  1  0  0  0  0
  9 32  1  0  0  0  0
  9 33  1  0  0  0  0
  9 34  1  0  0  0  0
 10 35  1  0  0  0  0
 10 36  1  0  0  0  0
 10 37  1  0  0  0  0
 11 12  2  3  0  0  0
 11 38  1  0  0  0  0
 12 14  1  0  0  0  0
 12 39  1  0  0  0  0
 13 15  2  0  0  0  0
 13 16  1  0  0  0  0
 14 40  1  0  0  0  0
 14 41  1  0  0  0  0
 14 42  1  0  0  0  0
 15 17  1  0  0  0  0
 15 43  1  0  0  0  0
 16 18  2  0  0  0  0
 16 44  1  0  0  0  0
 17 19  2  0  0  0  0
 17 45  1  0  0  0  0
 18 19  1  0  0  0  0
 18 46  1  0  0  0  0
 19 47  1  0  0  0  0
M  END
> <PUBCHEM_COMPOUND_CID>
583187

> <PUBCHEM_COMPOUND_CANONICALIZED>
1

> <PUBCHEM_CACTVS_COMPLEXITY>
311

> <PUBCHEM_CACTVS_HBOND_ACCEPTOR>
1

> <PUBCHEM_CACTVS_HBOND_DONOR>
0

> <PUBCHEM_CACTVS_ROTATABLE_BOND>
5

> <PUBCHEM_CACTVS_SUBSKEYS>
AAADceB4AAxAAAAAAAAAAAAAAAAAAAAAAAAwAAAAAAAAAAABAAAAGBQAAABACACAcAByAYAAAAmAACBCAAACAAAgCBAIiBgAAIgIICKgERCAIAAggAAoiAcAAAAAAAAAAAAAAAAAAAAAAAAAAAAAAAAAAA==

> <PUBCHEM_IUPAC_OPENEYE_NAME>
dimethyl-(1-methyl-1-phenylsulfanyl-but-2-enyl)-trimethylsilyl-silane

> <PUBCHEM_IUPAC_CAS_NAME>
dimethyl-[2-(phenylthio)pent-3-en-2-yl]-trimethylsilylsilane

> <PUBCHEM_IUPAC_NAME>
dimethyl-(2-phenylsulfanylpent-3-en-2-yl)-trimethylsilylsilane

> <PUBCHEM_IUPAC_SYSTEMATIC_NAME>
dimethyl-(2-phenylsulfanylpent-3-en-2-yl)-trimethylsilyl-silane

> <PUBCHEM_IUPAC_TRADITIONAL_NAME>
dimethyl-[1-methyl-1-(phenylthio)but-2-enyl]-trimethylsilyl-silane

> <PUBCHEM_IUPAC_INCHI>
InChI=1S/C16H28SSi2/c1-8-14-16(2,19(6,7)18(3,4)5)17-15-12-10-9-11-13-15/h8-14H,1-7H3

> <PUBCHEM_IUPAC_INCHIKEY>
GXWURXGBPLNTON-UHFFFAOYSA-N

> <PUBCHEM_EXACT_MASS>
308.145025

> <PUBCHEM_MOLECULAR_FORMULA>
C16H28SSi2

> <PUBCHEM_MOLECULAR_WEIGHT>
308.62952

> <PUBCHEM_OPENEYE_CAN_SMILES>
CC=CC(C)([Si](C)(C)[Si](C)(C)C)SC1=CC=CC=C1

> <PUBCHEM_OPENEYE_ISO_SMILES>
CC=CC(C)([Si](C)(C)[Si](C)(C)C)SC1=CC=CC=C1

> <PUBCHEM_CACTVS_TPSA>
25.3

> <PUBCHEM_MONOISOTOPIC_WEIGHT>
308.145025

> <PUBCHEM_TOTAL_CHARGE>
0

> <PUBCHEM_HEAVY_ATOM_COUNT>
19

> <PUBCHEM_ATOM_DEF_STEREO_COUNT>
0

> <PUBCHEM_ATOM_UDEF_STEREO_COUNT>
1

> <PUBCHEM_BOND_DEF_STEREO_COUNT>
0

> <PUBCHEM_BOND_UDEF_STEREO_COUNT>
1

> <PUBCHEM_ISOTOPIC_ATOM_COUNT>
0

> <PUBCHEM_COMPONENT_COUNT>
1

> <PUBCHEM_CACTVS_TAUTO_COUNT>
1

> <PUBCHEM_COORDINATE_TYPE>
1
5
255

> <PUBCHEM_BONDANNOTATIONS>
11  12  1
13  15  8
13  16  8
15  17  8
16  18  8
17  19  8
18  19  8
4  11  3

$$$$

