5219
  -OEChem-06261200352D

 22 23  0     0  0  0  0  0  0999 V2000
    3.0878    2.9571    0.0000 O   0  0  0  0  0  0  0  0  0  0  0  0
    3.5878   -1.5817    0.0000 O   0  0  0  0  0  0  0  0  0  0  0  0
    3.0878    0.9571    0.0000 N   0  0  0  0  0  0  0  0  0  0  0  0
    3.0878   -0.0429    0.0000 N   0  3  0  0  0  0  0  0  0  0  0  0
    3.8968   -0.6307    0.0000 N   0  5  0  0  0  0  0  0  0  0  0  0
    2.0000   -2.3907    0.0000 N   0  0  0  0  0  0  0  0  0  0  0  0
    3.9538    1.4571    0.0000 C   0  0  0  0  0  0  0  0  0  0  0  0
    2.2218    1.4571    0.0000 C   0  0  0  0  0  0  0  0  0  0  0  0
    3.9538    2.4571    0.0000 C   0  0  0  0  0  0  0  0  0  0  0  0
    2.2218    2.4571    0.0000 C   0  0  0  0  0  0  0  0  0  0  0  0
    2.2788   -0.6307    0.0000 C   0  0  0  0  0  0  0  0  0  0  0  0
    2.5878   -1.5817    0.0000 C   0  0  0  0  0  0  0  0  0  0  0  0
    4.1659    0.8745    0.0000 H   0  0  0  0  0  0  0  0  0  0  0  0
    4.5644    1.5648    0.0000 H   0  0  0  0  0  0  0  0  0  0  0  0
    1.6112    1.5648    0.0000 H   0  0  0  0  0  0  0  0  0  0  0  0
    2.0097    0.8745    0.0000 H   0  0  0  0  0  0  0  0  0  0  0  0
    4.5644    2.3495    0.0000 H   0  0  0  0  0  0  0  0  0  0  0  0
    4.1659    3.0397    0.0000 H   0  0  0  0  0  0  0  0  0  0  0  0
    2.0097    3.0397    0.0000 H   0  0  0  0  0  0  0  0  0  0  0  0
    1.6112    2.3495    0.0000 H   0  0  0  0  0  0  0  0  0  0  0  0
    1.6891   -0.4391    0.0000 H   0  0  0  0  0  0  0  0  0  0  0  0
    2.2522   -2.9571    0.0000 H   0  0  0  0  0  0  0  0  0  0  0  0
  1  9  1  0  0  0  0
  1 10  1  0  0  0  0
  2  5  1  0  0  0  0
  2 12  1  0  0  0  0
  3  4  1  0  0  0  0
  3  7  1  0  0  0  0
  3  8  1  0  0  0  0
  4  5  1  0  0  0  0
  4 11  2  0  0  0  0
  6 12  2  0  0  0  0
  6 22  1  0  0  0  0
  7  9  1  0  0  0  0
  7 13  1  0  0  0  0
  7 14  1  0  0  0  0
  8 10  1  0  0  0  0
  8 15  1  0  0  0  0
  8 16  1  0  0  0  0
  9 17  1  0  0  0  0
  9 18  1  0  0  0  0
 10 19  1  0  0  0  0
 10 20  1  0  0  0  0
 11 12  1  0  0  0  0
 11 21  1  0  0  0  0
M  CHG  2   4   1   5  -1
M  END
> <PUBCHEM_COMPOUND_CID>
5219

> <PUBCHEM_COMPOUND_CANONICALIZED>
1

> <PUBCHEM_CACTVS_COMPLEXITY>
222

> <PUBCHEM_CACTVS_HBOND_ACCEPTOR>
5

> <PUBCHEM_CACTVS_HBOND_DONOR>
1

> <PUBCHEM_CACTVS_ROTATABLE_BOND>
1

> <PUBCHEM_CACTVS_SUBSKEYS>
AAADccBjsAAAAAAAAAAAAAAAAAAAAQAAAAAsAAAAAAAAAAAAAAAAHgAcAAAAAADhgAYAAAJABAAgABAhAAQQAAAAAAAQAAAYAAACAAAAAAADAAAACACQAAAAAAAAAAAAAAAAAAAAAAAAAAAAAAAAAAAAAA==

> <PUBCHEM_IUPAC_OPENEYE_NAME>
3-morpholino-1-oxa-3-azonia-2-azanidacyclopent-3-en-5-imine

> <PUBCHEM_IUPAC_CAS_NAME>
3-(4-morpholinyl)-1-oxa-3-azonia-2-azanidacyclopent-3-en-5-imine

> <PUBCHEM_IUPAC_NAME>
3-morpholin-4-yl-1-oxa-3-azonia-2-azanidacyclopent-3-en-5-imine

> <PUBCHEM_IUPAC_SYSTEMATIC_NAME>
3-morpholin-4-yl-1-oxa-3-azonia-2-azanidacyclopent-3-en-5-imine

> <PUBCHEM_IUPAC_TRADITIONAL_NAME>
(3-morpholino-1-oxa-3-azonia-2-azanidacyclopent-3-en-5-ylidene)amine

> <PUBCHEM_IUPAC_INCHI>
InChI=1S/C6H10N4O2/c7-6-5-10(8-12-6)9-1-3-11-4-2-9/h5,7H,1-4H2

> <PUBCHEM_IUPAC_INCHIKEY>
FKDHHVKWGRFRTG-UHFFFAOYSA-N

> <PUBCHEM_XLOGP3_AA>
0.6

> <PUBCHEM_EXACT_MASS>
170.080376

> <PUBCHEM_MOLECULAR_FORMULA>
C6H10N4O2

> <PUBCHEM_MOLECULAR_WEIGHT>
170.1692

> <PUBCHEM_OPENEYE_CAN_SMILES>
C1COCCN1[N+]2=CC(=N)O[N-]2

> <PUBCHEM_OPENEYE_ISO_SMILES>
C1COCCN1[N+]2=CC(=N)O[N-]2

> <PUBCHEM_CACTVS_TPSA>
49.6

> <PUBCHEM_MONOISOTOPIC_WEIGHT>
170.080376

> <PUBCHEM_TOTAL_CHARGE>
0

> <PUBCHEM_HEAVY_ATOM_COUNT>
12

> <PUBCHEM_ATOM_DEF_STEREO_COUNT>
0

> <PUBCHEM_ATOM_UDEF_STEREO_COUNT>
0

> <PUBCHEM_BOND_DEF_STEREO_COUNT>
0

> <PUBCHEM_BOND_UDEF_STEREO_COUNT>
0

> <PUBCHEM_ISOTOPIC_ATOM_COUNT>
0

> <PUBCHEM_COMPONENT_COUNT>
1

> <PUBCHEM_CACTVS_TAUTO_COUNT>
1

> <PUBCHEM_COORDINATE_TYPE>
1
5
255

> <PUBCHEM_BONDANNOTATIONS>
11  12  8
2  12  8
2  5  8
4  11  8
4  5  8

$$$$

