17395299
  -OEChem-06241222492D

 63 66  0     1  0  0  0  0  0999 V2000
   11.5263   -0.0173    0.0000 S   0  0  0  0  0  0  0  0  0  0  0  0
    7.1962   -0.5173    0.0000 O   0  0  0  0  0  0  0  0  0  0  0  0
    5.4641   -1.5173    0.0000 O   0  0  0  0  0  0  0  0  0  0  0  0
   11.0263    0.8487    0.0000 O   0  0  0  0  0  0  0  0  0  0  0  0
   12.0263   -0.8834    0.0000 O   0  0  0  0  0  0  0  0  0  0  0  0
    8.0622    0.9827    0.0000 O   0  0  0  0  0  0  0  0  0  0  0  0
    4.5981   -0.0173    0.0000 N   0  0  0  0  0  0  0  0  0  0  0  0
   12.3923    0.4827    0.0000 N   0  0  3  0  0  0  0  0  0  0  0  0
    3.7320   -0.5173    0.0000 C   0  0  0  0  0  0  0  0  0  0  0  0
    2.8660   -0.0173    0.0000 C   0  0  0  0  0  0  0  0  0  0  0  0
    3.7320   -1.5173    0.0000 C   0  0  0  0  0  0  0  0  0  0  0  0
    2.0000   -0.5173    0.0000 C   0  0  0  0  0  0  0  0  0  0  0  0
    2.8660   -2.0173    0.0000 C   0  0  0  0  0  0  0  0  0  0  0  0
    2.0000   -1.5173    0.0000 C   0  0  0  0  0  0  0  0  0  0  0  0
   12.3923    1.4827    0.0000 C   0  0  0  0  0  0  0  0  0  0  0  0
   13.2583   -0.0173    0.0000 C   0  0  0  0  0  0  0  0  0  0  0  0
   13.2583    1.9827    0.0000 C   0  0  0  0  0  0  0  0  0  0  0  0
   14.1244    0.4827    0.0000 C   0  0  0  0  0  0  0  0  0  0  0  0
   14.1244    1.4827    0.0000 C   0  0  0  0  0  0  0  0  0  0  0  0
    5.4641   -0.5173    0.0000 C   0  0  0  0  0  0  0  0  0  0  0  0
    6.3301   -0.0173    0.0000 C   0  0  3  0  0  0  0  0  0  0  0  0
   10.6603   -0.5173    0.0000 C   0  0  0  0  0  0  0  0  0  0  0  0
   15.0183   -0.0520    0.0000 C   0  0  0  0  0  0  0  0  0  0  0  0
   15.0183    2.0173    0.0000 C   0  0  0  0  0  0  0  0  0  0  0  0
    6.3301    0.9827    0.0000 C   0  0  0  0  0  0  0  0  0  0  0  0
   15.9244    0.4619    0.0000 C   0  0  0  0  0  0  0  0  0  0  0  0
   15.9244    1.5035    0.0000 C   0  0  0  0  0  0  0  0  0  0  0  0
    9.7942   -0.0173    0.0000 C   0  0  0  0  0  0  0  0  0  0  0  0
   10.6603   -1.5173    0.0000 C   0  0  0  0  0  0  0  0  0  0  0  0
    8.9282   -0.5173    0.0000 C   0  0  0  0  0  0  0  0  0  0  0  0
    8.0622   -0.0173    0.0000 C   0  0  0  0  0  0  0  0  0  0  0  0
    9.7942   -2.0173    0.0000 C   0  0  0  0  0  0  0  0  0  0  0  0
    8.9282   -1.5173    0.0000 C   0  0  0  0  0  0  0  0  0  0  0  0
    3.7320    0.1027    0.0000 H   0  0  0  0  0  0  0  0  0  0  0  0
    3.9441   -2.0999    0.0000 H   0  0  0  0  0  0  0  0  0  0  0  0
    4.3426   -1.4097    0.0000 H   0  0  0  0  0  0  0  0  0  0  0  0
    3.2646    0.4576    0.0000 H   0  0  0  0  0  0  0  0  0  0  0  0
    2.4675    0.4576    0.0000 H   0  0  0  0  0  0  0  0  0  0  0  0
    2.4675   -2.4923    0.0000 H   0  0  0  0  0  0  0  0  0  0  0  0
    3.2646   -2.4923    0.0000 H   0  0  0  0  0  0  0  0  0  0  0  0
    1.7880    0.0653    0.0000 H   0  0  0  0  0  0  0  0  0  0  0  0
    1.3894   -0.6250    0.0000 H   0  0  0  0  0  0  0  0  0  0  0  0
    1.3894   -1.4097    0.0000 H   0  0  0  0  0  0  0  0  0  0  0  0
    1.7880   -2.0999    0.0000 H   0  0  0  0  0  0  0  0  0  0  0  0
    4.5981    0.6027    0.0000 H   0  0  0  0  0  0  0  0  0  0  0  0
   12.1803    2.0653    0.0000 H   0  0  0  0  0  0  0  0  0  0  0  0
   11.7817    1.3750    0.0000 H   0  0  0  0  0  0  0  0  0  0  0  0
   12.8598   -0.4923    0.0000 H   0  0  0  0  0  0  0  0  0  0  0  0
   13.6569   -0.4923    0.0000 H   0  0  0  0  0  0  0  0  0  0  0  0
   13.6569    2.4576    0.0000 H   0  0  0  0  0  0  0  0  0  0  0  0
   12.8598    2.4576    0.0000 H   0  0  0  0  0  0  0  0  0  0  0  0
    6.8671    0.2927    0.0000 H   0  0  0  0  0  0  0  0  0  0  0  0
   15.0111   -0.6720    0.0000 H   0  0  0  0  0  0  0  0  0  0  0  0
   15.0111    2.6373    0.0000 H   0  0  0  0  0  0  0  0  0  0  0  0
   16.4601    0.1498    0.0000 H   0  0  0  0  0  0  0  0  0  0  0  0
   16.4601    1.8156    0.0000 H   0  0  0  0  0  0  0  0  0  0  0  0
    6.9501    0.9827    0.0000 H   0  0  0  0  0  0  0  0  0  0  0  0
    6.3301    1.6027    0.0000 H   0  0  0  0  0  0  0  0  0  0  0  0
    5.7101    0.9827    0.0000 H   0  0  0  0  0  0  0  0  0  0  0  0
    9.7942    0.6027    0.0000 H   0  0  0  0  0  0  0  0  0  0  0  0
   11.1972   -1.8273    0.0000 H   0  0  0  0  0  0  0  0  0  0  0  0
    9.7942   -2.6373    0.0000 H   0  0  0  0  0  0  0  0  0  0  0  0
    8.3913   -1.8273    0.0000 H   0  0  0  0  0  0  0  0  0  0  0  0
  1  4  2  0  0  0  0
  1  5  2  0  0  0  0
  1  8  1  0  0  0  0
  1 22  1  0  0  0  0
  2 21  1  0  0  0  0
  2 31  1  0  0  0  0
  3 20  2  0  0  0  0
  6 31  2  0  0  0  0
  7  9  1  0  0  0  0
  7 20  1  0  0  0  0
  7 45  1  0  0  0  0
  8 15  1  0  0  0  0
  8 16  1  0  0  0  0
  9 10  1  0  0  0  0
  9 11  1  0  0  0  0
  9 34  1  0  0  0  0
 10 12  1  0  0  0  0
 10 37  1  0  0  0  0
 10 38  1  0  0  0  0
 11 13  1  0  0  0  0
 11 35  1  0  0  0  0
 11 36  1  0  0  0  0
 12 14  1  0  0  0  0
 12 41  1  0  0  0  0
 12 42  1  0  0  0  0
 13 14  1  0  0  0  0
 13 39  1  0  0  0  0
 13 40  1  0  0  0  0
 14 43  1  0  0  0  0
 14 44  1  0  0  0  0
 15 17  1  0  0  0  0
 15 46  1  0  0  0  0
 15 47  1  0  0  0  0
 16 18  1  0  0  0  0
 16 48  1  0  0  0  0
 16 49  1  0  0  0  0
 17 19  1  0  0  0  0
 17 50  1  0  0  0  0
 17 51  1  0  0  0  0
 18 19  1  0  0  0  0
 18 23  2  0  0  0  0
 19 24  2  0  0  0  0
 20 21  1  0  0  0  0
 21 25  1  0  0  0  0
 21 52  1  0  0  0  0
 22 28  1  0  0  0  0
 22 29  2  0  0  0  0
 23 26  1  0  0  0  0
 23 53  1  0  0  0  0
 24 27  1  0  0  0  0
 24 54  1  0  0  0  0
 25 57  1  0  0  0  0
 25 58  1  0  0  0  0
 25 59  1  0  0  0  0
 26 27  2  0  0  0  0
 26 55  1  0  0  0  0
 27 56  1  0  0  0  0
 28 30  2  0  0  0  0
 28 60  1  0  0  0  0
 29 32  1  0  0  0  0
 29 61  1  0  0  0  0
 30 31  1  0  0  0  0
 30 33  1  0  0  0  0
 32 33  2  0  0  0  0
 32 62  1  0  0  0  0
 33 63  1  0  0  0  0
M  END
> <PUBCHEM_COMPOUND_CID>
17395299

> <PUBCHEM_COMPOUND_CANONICALIZED>
1

> <PUBCHEM_CACTVS_COMPLEXITY>
789

> <PUBCHEM_CACTVS_HBOND_ACCEPTOR>
6

> <PUBCHEM_CACTVS_HBOND_DONOR>
1

> <PUBCHEM_CACTVS_ROTATABLE_BOND>
7

> <PUBCHEM_CACTVS_SUBSKEYS>
AAADceB7OABAAAAAAAAAAAAAAAAAAAAAAAA8YMEAAAAAAACxQAAAHgQQQAAADDzh2AYyCYLABAKIAiHSGHLCABAkAAAIiJlIDMgKJjKAtR2HMQhk1gGYqYeYyKCOgAAAgAAQAAAAAAEAACAAAAAAAAAAAA==

> <PUBCHEM_IUPAC_OPENEYE_NAME>
[2-(cyclohexylamino)-1-methyl-2-oxo-ethyl] 3-(3,4-dihydro-1H-isoquinolin-2-ylsulfonyl)benzoate

> <PUBCHEM_IUPAC_CAS_NAME>
3-(3,4-dihydro-1H-isoquinolin-2-ylsulfonyl)benzoic acid [1-(cyclohexylamino)-1-oxopropan-2-yl] ester

> <PUBCHEM_IUPAC_NAME>
[1-(cyclohexylamino)-1-oxopropan-2-yl] 3-(3,4-dihydro-1H-isoquinolin-2-ylsulfonyl)benzoate

> <PUBCHEM_IUPAC_SYSTEMATIC_NAME>
[1-(cyclohexylamino)-1-oxidanylidene-propan-2-yl] 3-(3,4-dihydro-1H-isoquinolin-2-ylsulfonyl)benzoate

> <PUBCHEM_IUPAC_TRADITIONAL_NAME>
3-(3,4-dihydro-1H-isoquinolin-2-ylsulfonyl)benzoic acid [2-(cyclohexylamino)-2-keto-1-methyl-ethyl] ester

> <PUBCHEM_IUPAC_INCHI>
InChI=1S/C25H30N2O5S/c1-18(24(28)26-22-11-3-2-4-12-22)32-25(29)20-10-7-13-23(16-20)33(30,31)27-15-14-19-8-5-6-9-21(19)17-27/h5-10,13,16,18,22H,2-4,11-12,14-15,17H2,1H3,(H,26,28)

> <PUBCHEM_IUPAC_INCHIKEY>
XCOMMCLYHSIGNM-UHFFFAOYSA-N

> <PUBCHEM_XLOGP3_AA>
4

> <PUBCHEM_EXACT_MASS>
470.187543

> <PUBCHEM_MOLECULAR_FORMULA>
C25H30N2O5S

> <PUBCHEM_MOLECULAR_WEIGHT>
470.5811

> <PUBCHEM_OPENEYE_CAN_SMILES>
CC(C(=O)NC1CCCCC1)OC(=O)C2=CC(=CC=C2)S(=O)(=O)N3CCC4=CC=CC=C4C3

> <PUBCHEM_OPENEYE_ISO_SMILES>
CC(C(=O)NC1CCCCC1)OC(=O)C2=CC(=CC=C2)S(=O)(=O)N3CCC4=CC=CC=C4C3

> <PUBCHEM_CACTVS_TPSA>
101

> <PUBCHEM_MONOISOTOPIC_WEIGHT>
470.187543

> <PUBCHEM_TOTAL_CHARGE>
0

> <PUBCHEM_HEAVY_ATOM_COUNT>
33

> <PUBCHEM_ATOM_DEF_STEREO_COUNT>
0

> <PUBCHEM_ATOM_UDEF_STEREO_COUNT>
1

> <PUBCHEM_BOND_DEF_STEREO_COUNT>
0

> <PUBCHEM_BOND_UDEF_STEREO_COUNT>
0

> <PUBCHEM_ISOTOPIC_ATOM_COUNT>
0

> <PUBCHEM_COMPONENT_COUNT>
1

> <PUBCHEM_CACTVS_TAUTO_COUNT>
2

> <PUBCHEM_COORDINATE_TYPE>
1
5
255

> <PUBCHEM_BONDANNOTATIONS>
18  19  8
18  23  8
19  24  8
21  25  3
22  28  8
22  29  8
23  26  8
24  27  8
26  27  8
28  30  8
29  32  8
30  33  8
32  33  8

$$$$

