10165
  -OEChem-06261204212D

 52 55  0     1  0  0  0  0  0999 V2000
    5.6083   -1.2318    0.0000 O   0  0  0  0  0  0  0  0  0  0  0  0
    2.8963    3.3452    0.0000 O   0  0  0  0  0  0  0  0  0  0  0  0
    5.6405   -3.3232    0.0000 O   0  0  0  0  0  0  0  0  0  0  0  0
    3.8372   -4.3830    0.0000 O   0  0  0  0  0  0  0  0  0  0  0  0
    4.6622    4.3830    0.0000 O   0  0  0  0  0  0  0  0  0  0  0  0
    2.9180    0.3137    0.0000 N   0  0  3  0  0  0  0  0  0  0  0  0
    3.7841   -0.1863    0.0000 C   0  0  3  0  0  0  0  0  0  0  0  0
    4.6501    0.3137    0.0000 C   0  0  0  0  0  0  0  0  0  0  0  0
    2.0080   -0.1931    0.0000 C   0  0  0  0  0  0  0  0  0  0  0  0
    3.8001   -1.2278    0.0000 C   0  0  0  0  0  0  0  0  0  0  0  0
    2.9180    1.3137    0.0000 C   0  0  0  0  0  0  0  0  0  0  0  0
    2.0000   -1.2347    0.0000 C   0  0  0  0  0  0  0  0  0  0  0  0
    2.9021   -1.7555    0.0000 C   0  0  0  0  0  0  0  0  0  0  0  0
    4.6501    1.3137    0.0000 C   0  0  0  0  0  0  0  0  0  0  0  0
    3.7841    1.8137    0.0000 C   0  0  0  0  0  0  0  0  0  0  0  0
    4.7520   -1.7484    0.0000 C   0  0  0  0  0  0  0  0  0  0  0  0
    2.8937   -2.8405    0.0000 C   0  0  0  0  0  0  0  0  0  0  0  0
    3.7680    2.8552    0.0000 C   0  0  0  0  0  0  0  0  0  0  0  0
    5.5601    1.8206    0.0000 C   0  0  0  0  0  0  0  0  0  0  0  0
    4.7688   -2.8333    0.0000 C   0  0  0  0  0  0  0  0  0  0  0  0
    3.8334   -3.3830    0.0000 C   0  0  0  0  0  0  0  0  0  0  0  0
    4.6660    3.3830    0.0000 C   0  0  0  0  0  0  0  0  0  0  0  0
    5.5681    2.8622    0.0000 C   0  0  0  0  0  0  0  0  0  0  0  0
    2.8847    4.3451    0.0000 C   0  0  0  0  0  0  0  0  0  0  0  0
    5.6521   -4.3232    0.0000 C   0  0  0  0  0  0  0  0  0  0  0  0
    2.9731   -4.8863    0.0000 C   0  0  0  0  0  0  0  0  0  0  0  0
    5.5263    4.8863    0.0000 C   0  0  0  0  0  0  0  0  0  0  0  0
    4.3234   -0.4921    0.0000 H   0  0  0  0  0  0  0  0  0  0  0  0
    4.8621   -0.2689    0.0000 H   0  0  0  0  0  0  0  0  0  0  0  0
    5.2607    0.4214    0.0000 H   0  0  0  0  0  0  0  0  0  0  0  0
    1.8035    0.3922    0.0000 H   0  0  0  0  0  0  0  0  0  0  0  0
    1.3964   -0.2945    0.0000 H   0  0  0  0  0  0  0  0  0  0  0  0
    2.7060    1.8963    0.0000 H   0  0  0  0  0  0  0  0  0  0  0  0
    2.3074    1.2061    0.0000 H   0  0  0  0  0  0  0  0  0  0  0  0
    1.3900   -1.1239    0.0000 H   0  0  0  0  0  0  0  0  0  0  0  0
    1.7864   -1.8168    0.0000 H   0  0  0  0  0  0  0  0  0  0  0  0
    2.3556   -3.1484    0.0000 H   0  0  0  0  0  0  0  0  0  0  0  0
    6.0934    1.5044    0.0000 H   0  0  0  0  0  0  0  0  0  0  0  0
    6.1062    3.1701    0.0000 H   0  0  0  0  0  0  0  0  0  0  0  0
    6.1511   -1.5314    0.0000 H   0  0  0  0  0  0  0  0  0  0  0  0
    3.5046    4.3523    0.0000 H   0  0  0  0  0  0  0  0  0  0  0  0
    2.8775    4.9651    0.0000 H   0  0  0  0  0  0  0  0  0  0  0  0
    2.2647    4.3380    0.0000 H   0  0  0  0  0  0  0  0  0  0  0  0
    5.0321   -4.3303    0.0000 H   0  0  0  0  0  0  0  0  0  0  0  0
    5.6592   -4.9431    0.0000 H   0  0  0  0  0  0  0  0  0  0  0  0
    6.2720   -4.3160    0.0000 H   0  0  0  0  0  0  0  0  0  0  0  0
    2.6610   -4.3506    0.0000 H   0  0  0  0  0  0  0  0  0  0  0  0
    2.4374   -5.1984    0.0000 H   0  0  0  0  0  0  0  0  0  0  0  0
    3.2852   -5.4221    0.0000 H   0  0  0  0  0  0  0  0  0  0  0  0
    5.8383    4.3506    0.0000 H   0  0  0  0  0  0  0  0  0  0  0  0
    6.0620    5.1984    0.0000 H   0  0  0  0  0  0  0  0  0  0  0  0
    5.2142    5.4220    0.0000 H   0  0  0  0  0  0  0  0  0  0  0  0
  1 16  1  0  0  0  0
  1 40  1  0  0  0  0
  2 18  1  0  0  0  0
  2 24  1  0  0  0  0
  3 20  1  0  0  0  0
  3 25  1  0  0  0  0
  4 21  1  0  0  0  0
  4 26  1  0  0  0  0
  5 22  1  0  0  0  0
  5 27  1  0  0  0  0
  6  7  1  0  0  0  0
  6  9  1  0  0  0  0
  6 11  1  0  0  0  0
  7  8  1  0  0  0  0
  7 10  1  0  0  0  0
  7 28  1  0  0  0  0
  8 14  1  0  0  0  0
  8 29  1  0  0  0  0
  8 30  1  0  0  0  0
  9 12  1  0  0  0  0
  9 31  1  0  0  0  0
  9 32  1  0  0  0  0
 10 13  1  0  0  0  0
 10 16  2  0  0  0  0
 11 15  1  0  0  0  0
 11 33  1  0  0  0  0
 11 34  1  0  0  0  0
 12 13  1  0  0  0  0
 12 35  1  0  0  0  0
 12 36  1  0  0  0  0
 13 17  2  0  0  0  0
 14 15  2  0  0  0  0
 14 19  1  0  0  0  0
 15 18  1  0  0  0  0
 16 20  1  0  0  0  0
 17 21  1  0  0  0  0
 17 37  1  0  0  0  0
 18 22  2  0  0  0  0
 19 23  2  0  0  0  0
 19 38  1  0  0  0  0
 20 21  2  0  0  0  0
 22 23  1  0  0  0  0
 23 39  1  0  0  0  0
 24 41  1  0  0  0  0
 24 42  1  0  0  0  0
 24 43  1  0  0  0  0
 25 44  1  0  0  0  0
 25 45  1  0  0  0  0
 25 46  1  0  0  0  0
 26 47  1  0  0  0  0
 26 48  1  0  0  0  0
 26 49  1  0  0  0  0
 27 50  1  0  0  0  0
 27 51  1  0  0  0  0
 27 52  1  0  0  0  0
M  END
> <PUBCHEM_COMPOUND_CID>
10165

> <PUBCHEM_COMPOUND_CANONICALIZED>
1

> <PUBCHEM_CACTVS_COMPLEXITY>
505

> <PUBCHEM_CACTVS_HBOND_ACCEPTOR>
6

> <PUBCHEM_CACTVS_HBOND_DONOR>
1

> <PUBCHEM_CACTVS_ROTATABLE_BOND>
4

> <PUBCHEM_CACTVS_SUBSKEYS>
AAADceB6OAAAAAAAAAAAAAAAAAAAAAAAAAA8eIEAAAAAAACxQAAAHgAACAAADCzBmAYyBoMABgCAAiBCAACCCAAgIAAIiAAOjIgNJyKGsRuEcCtnwBWLuAew8P8OoAABCAAYQABAAAIQADCAAAAAAAAAAA==

> <PUBCHEM_IUPAC_OPENEYE_NAME>
2,3,9,10-tetramethoxy-6,8,13,13a-tetrahydro-5H-isoquinolino[2,1-b]isoquinolin-1-ol

> <PUBCHEM_IUPAC_CAS_NAME>
2,3,9,10-tetramethoxy-6,8,13,13a-tetrahydro-5H-isoquinolino[2,1-b]isoquinolin-1-ol

> <PUBCHEM_IUPAC_NAME>
2,3,9,10-tetramethoxy-6,8,13,13a-tetrahydro-5H-isoquinolino[2,1-b]isoquinolin-1-ol

> <PUBCHEM_IUPAC_SYSTEMATIC_NAME>
2,3,9,10-tetramethoxy-6,8,13,13a-tetrahydro-5H-isoquinolino[2,1-b]isoquinolin-1-ol

> <PUBCHEM_IUPAC_TRADITIONAL_NAME>
2,3,9,10-tetramethoxy-6,8,13,13a-tetrahydro-5H-isoquinolin[2,1-b]isoquinolin-1-ol

> <PUBCHEM_IUPAC_INCHI>
InChI=1S/C21H25NO5/c1-24-16-6-5-12-9-15-18-13(10-17(25-2)21(27-4)19(18)23)7-8-22(15)11-14(12)20(16)26-3/h5-6,10,15,23H,7-9,11H2,1-4H3

> <PUBCHEM_IUPAC_INCHIKEY>
GSPIMPLJQOCBFY-UHFFFAOYSA-N

> <PUBCHEM_XLOGP3_AA>
2.9

> <PUBCHEM_EXACT_MASS>
371.173273

> <PUBCHEM_MOLECULAR_FORMULA>
C21H25NO5

> <PUBCHEM_MOLECULAR_WEIGHT>
371.4269

> <PUBCHEM_OPENEYE_CAN_SMILES>
COC1=C(C2=C(CC3C4=C(C(=C(C=C4CCN3C2)OC)OC)O)C=C1)OC

> <PUBCHEM_OPENEYE_ISO_SMILES>
COC1=C(C2=C(CC3C4=C(C(=C(C=C4CCN3C2)OC)OC)O)C=C1)OC

> <PUBCHEM_CACTVS_TPSA>
60.4

> <PUBCHEM_MONOISOTOPIC_WEIGHT>
371.173273

> <PUBCHEM_TOTAL_CHARGE>
0

> <PUBCHEM_HEAVY_ATOM_COUNT>
27

> <PUBCHEM_ATOM_DEF_STEREO_COUNT>
0

> <PUBCHEM_ATOM_UDEF_STEREO_COUNT>
1

> <PUBCHEM_BOND_DEF_STEREO_COUNT>
0

> <PUBCHEM_BOND_UDEF_STEREO_COUNT>
0

> <PUBCHEM_ISOTOPIC_ATOM_COUNT>
0

> <PUBCHEM_COMPONENT_COUNT>
1

> <PUBCHEM_CACTVS_TAUTO_COUNT>
9

> <PUBCHEM_COORDINATE_TYPE>
1
5
255

> <PUBCHEM_BONDANNOTATIONS>
10  13  8
10  16  8
13  17  8
14  15  8
14  19  8
15  18  8
16  20  8
17  21  8
18  22  8
19  23  8
20  21  8
22  23  8
7  8  3

$$$$

