586055
  -OEChem-06241222452D

 20 21  0     0  0  0  0  0  0999 V2000
    3.4030    0.4400    0.0000 S   0  0  0  0  0  0  0  0  0  0  0  0
    5.7988   -1.5600    0.0000 S   0  0  0  0  0  0  0  0  0  0  0  0
    2.4030    0.4400    0.0000 O   0  0  0  0  0  0  0  0  0  0  0  0
    4.4030    0.4400    0.0000 O   0  0  0  0  0  0  0  0  0  0  0  0
    3.4030    1.4400    0.0000 N   0  0  0  0  0  0  0  0  0  0  0  0
    5.2152   -0.7553    0.0000 N   0  0  0  0  0  0  0  0  0  0  0  0
    5.2152   -2.3647    0.0000 N   0  0  0  0  0  0  0  0  0  0  0  0
    2.5369    1.9400    0.0000 N   0  0  0  0  0  0  0  0  0  0  0  0
    3.4030   -0.5600    0.0000 C   0  0  0  0  0  0  0  0  0  0  0  0
    4.2690   -1.0600    0.0000 C   0  0  0  0  0  0  0  0  0  0  0  0
    4.2690   -2.0600    0.0000 C   0  0  0  0  0  0  0  0  0  0  0  0
    2.5369   -1.0600    0.0000 C   0  0  0  0  0  0  0  0  0  0  0  0
    3.4030   -2.5600    0.0000 C   0  0  0  0  0  0  0  0  0  0  0  0
    2.5369   -2.0600    0.0000 C   0  0  0  0  0  0  0  0  0  0  0  0
    2.0000   -0.7500    0.0000 H   0  0  0  0  0  0  0  0  0  0  0  0
    3.4030   -3.1800    0.0000 H   0  0  0  0  0  0  0  0  0  0  0  0
    2.0000   -2.3700    0.0000 H   0  0  0  0  0  0  0  0  0  0  0  0
    3.9399    1.7500    0.0000 H   0  0  0  0  0  0  0  0  0  0  0  0
    2.5369    2.5600    0.0000 H   0  0  0  0  0  0  0  0  0  0  0  0
    2.0000    1.6300    0.0000 H   0  0  0  0  0  0  0  0  0  0  0  0
  1  3  2  0  0  0  0
  1  4  2  0  0  0  0
  1  5  1  0  0  0  0
  1  9  1  0  0  0  0
  2  6  1  0  0  0  0
  2  7  1  0  0  0  0
  5  8  1  0  0  0  0
  5 18  1  0  0  0  0
  6 10  2  0  0  0  0
  7 11  2  0  0  0  0
  8 19  1  0  0  0  0
  8 20  1  0  0  0  0
  9 10  1  0  0  0  0
  9 12  2  0  0  0  0
 10 11  1  0  0  0  0
 11 13  1  0  0  0  0
 12 14  1  0  0  0  0
 12 15  1  0  0  0  0
 13 14  2  0  0  0  0
 13 16  1  0  0  0  0
 14 17  1  0  0  0  0
M  END
> <PUBCHEM_COMPOUND_CID>
586055

> <PUBCHEM_COMPOUND_CANONICALIZED>
1

> <PUBCHEM_CACTVS_COMPLEXITY>
301

> <PUBCHEM_CACTVS_HBOND_ACCEPTOR>
7

> <PUBCHEM_CACTVS_HBOND_DONOR>
2

> <PUBCHEM_CACTVS_ROTATABLE_BOND>
2

> <PUBCHEM_CACTVS_SUBSKEYS>
AAADcYBjsABgAAAAAAAAAAAAAAAAAWAAAAAwAAAAAAAAAFgB8AAAHAQYQAAACAiBVgAwwbACAAKgASRiQHDCABQgEgIImDwwdJgIYKKAkZGAIARggAAIyAcQAAAAAAAAACAAASAAAAAAQAACQAAAAAAAAA==

> <PUBCHEM_IUPAC_OPENEYE_NAME>
2,1,3-benzothiadiazole-4-sulfonohydrazide

> <PUBCHEM_IUPAC_CAS_NAME>
2,1,3-benzothiadiazole-4-sulfonohydrazide

> <PUBCHEM_IUPAC_NAME>
2,1,3-benzothiadiazole-4-sulfonohydrazide

> <PUBCHEM_IUPAC_SYSTEMATIC_NAME>
2,1,3-benzothiadiazole-4-sulfonohydrazide

> <PUBCHEM_IUPAC_TRADITIONAL_NAME>
piazthiole-4-sulfonohydrazide

> <PUBCHEM_IUPAC_INCHI>
InChI=1S/C6H6N4O2S2/c7-10-14(11,12)5-3-1-2-4-6(5)9-13-8-4/h1-3,10H,7H2

> <PUBCHEM_IUPAC_INCHIKEY>
ICYBHEXLGWSGEN-UHFFFAOYSA-N

> <PUBCHEM_XLOGP3_AA>
0

> <PUBCHEM_EXACT_MASS>
229.993217

> <PUBCHEM_MOLECULAR_FORMULA>
C6H6N4O2S2

> <PUBCHEM_MOLECULAR_WEIGHT>
230.26744

> <PUBCHEM_OPENEYE_CAN_SMILES>
C1=CC2=NSN=C2C(=C1)S(=O)(=O)NN

> <PUBCHEM_OPENEYE_ISO_SMILES>
C1=CC2=NSN=C2C(=C1)S(=O)(=O)NN

> <PUBCHEM_CACTVS_TPSA>
135

> <PUBCHEM_MONOISOTOPIC_WEIGHT>
229.993217

> <PUBCHEM_TOTAL_CHARGE>
0

> <PUBCHEM_HEAVY_ATOM_COUNT>
14

> <PUBCHEM_ATOM_DEF_STEREO_COUNT>
0

> <PUBCHEM_ATOM_UDEF_STEREO_COUNT>
0

> <PUBCHEM_BOND_DEF_STEREO_COUNT>
0

> <PUBCHEM_BOND_UDEF_STEREO_COUNT>
0

> <PUBCHEM_ISOTOPIC_ATOM_COUNT>
0

> <PUBCHEM_COMPONENT_COUNT>
1

> <PUBCHEM_CACTVS_TAUTO_COUNT>
1

> <PUBCHEM_COORDINATE_TYPE>
1
5
255

> <PUBCHEM_BONDANNOTATIONS>
10  11  8
11  13  8
12  14  8
13  14  8
2  6  8
2  7  8
6  10  8
7  11  8
9  10  8
9  12  8

$$$$

