582795
  -OEChem-06241222442D

 34 36  0     0  0  0  0  0  0999 V2000
    2.0000   -0.7673    0.0000 Cl  0  0  0  0  0  0  0  0  0  0  0  0
    5.4641   -0.7673    0.0000 S   0  0  0  0  0  0  0  0  0  0  0  0
    2.0000   -2.7673    0.0000 F   0  0  0  0  0  0  0  0  0  0  0  0
    6.3301   -0.2673    0.0000 O   0  0  0  0  0  0  0  0  0  0  0  0
    5.9641   -1.6334    0.0000 O   0  0  0  0  0  0  0  0  0  0  0  0
    4.9641    0.0987    0.0000 O   0  0  0  0  0  0  0  0  0  0  0  0
    8.0901    0.6980    0.0000 N   0  0  0  0  0  0  0  0  0  0  0  0
    7.1962    1.2327    0.0000 C   0  0  0  0  0  0  0  0  0  0  0  0
    7.1962    2.2327    0.0000 C   0  0  0  0  0  0  0  0  0  0  0  0
    6.3301    0.7327    0.0000 C   0  0  0  0  0  0  0  0  0  0  0  0
    4.5981   -1.2673    0.0000 C   0  0  0  0  0  0  0  0  0  0  0  0
    6.3301    2.7327    0.0000 C   0  0  0  0  0  0  0  0  0  0  0  0
    5.4641    1.2327    0.0000 C   0  0  0  0  0  0  0  0  0  0  0  0
    8.0901    2.7673    0.0000 C   0  0  0  0  0  0  0  0  0  0  0  0
    8.9962    1.2119    0.0000 C   0  0  0  0  0  0  0  0  0  0  0  0
    5.4641    2.2327    0.0000 C   0  0  0  0  0  0  0  0  0  0  0  0
    8.9962    2.2535    0.0000 C   0  0  0  0  0  0  0  0  0  0  0  0
    3.7320   -0.7673    0.0000 C   0  0  0  0  0  0  0  0  0  0  0  0
    4.5981   -2.2673    0.0000 C   0  0  0  0  0  0  0  0  0  0  0  0
    9.8602    0.7085    0.0000 C   0  0  0  0  0  0  0  0  0  0  0  0
    2.8660   -1.2673    0.0000 C   0  0  0  0  0  0  0  0  0  0  0  0
    3.7320   -2.7673    0.0000 C   0  0  0  0  0  0  0  0  0  0  0  0
    2.8660   -2.2673    0.0000 C   0  0  0  0  0  0  0  0  0  0  0  0
    6.3301    3.3527    0.0000 H   0  0  0  0  0  0  0  0  0  0  0  0
    4.9272    0.9227    0.0000 H   0  0  0  0  0  0  0  0  0  0  0  0
    8.0829    3.3873    0.0000 H   0  0  0  0  0  0  0  0  0  0  0  0
    4.9272    2.5427    0.0000 H   0  0  0  0  0  0  0  0  0  0  0  0
    9.5319    2.5656    0.0000 H   0  0  0  0  0  0  0  0  0  0  0  0
    3.7320   -0.1473    0.0000 H   0  0  0  0  0  0  0  0  0  0  0  0
    5.1350   -2.5773    0.0000 H   0  0  0  0  0  0  0  0  0  0  0  0
    3.7320   -3.3873    0.0000 H   0  0  0  0  0  0  0  0  0  0  0  0
    9.5482    0.1728    0.0000 H   0  0  0  0  0  0  0  0  0  0  0  0
   10.3960    0.3965    0.0000 H   0  0  0  0  0  0  0  0  0  0  0  0
   10.1723    1.2443    0.0000 H   0  0  0  0  0  0  0  0  0  0  0  0
  1 21  1  0  0  0  0
  2  4  1  0  0  0  0
  2  5  2  0  0  0  0
  2  6  2  0  0  0  0
  2 11  1  0  0  0  0
  3 23  1  0  0  0  0
  4 10  1  0  0  0  0
  7  8  1  0  0  0  0
  7 15  2  0  0  0  0
  8  9  2  0  0  0  0
  8 10  1  0  0  0  0
  9 12  1  0  0  0  0
  9 14  1  0  0  0  0
 10 13  2  0  0  0  0
 11 18  2  0  0  0  0
 11 19  1  0  0  0  0
 12 16  2  0  0  0  0
 12 24  1  0  0  0  0
 13 16  1  0  0  0  0
 13 25  1  0  0  0  0
 14 17  2  0  0  0  0
 14 26  1  0  0  0  0
 15 17  1  0  0  0  0
 15 20  1  0  0  0  0
 16 27  1  0  0  0  0
 17 28  1  0  0  0  0
 18 21  1  0  0  0  0
 18 29  1  0  0  0  0
 19 22  2  0  0  0  0
 19 30  1  0  0  0  0
 20 32  1  0  0  0  0
 20 33  1  0  0  0  0
 20 34  1  0  0  0  0
 21 23  2  0  0  0  0
 22 23  1  0  0  0  0
 22 31  1  0  0  0  0
M  END
> <PUBCHEM_COMPOUND_CID>
582795

> <PUBCHEM_COMPOUND_CANONICALIZED>
1

> <PUBCHEM_CACTVS_COMPLEXITY>
512

> <PUBCHEM_CACTVS_HBOND_ACCEPTOR>
5

> <PUBCHEM_CACTVS_HBOND_DONOR>
0

> <PUBCHEM_CACTVS_ROTATABLE_BOND>
3

> <PUBCHEM_CACTVS_SUBSKEYS>
AAADccB6MQBEAAAAAAAAAAAAAAAAAAAAAAA8YIAAAAAAAACx9AAAHwYAAAAADA6B3igyx/IIEAKgAyRiRHTCgGAhZyAImDg3bpgKJuLBk5OEMAhkwBHYyAeQwLAOAAABABACEAAAAAIAIAQgAAAAAAAAAA==

> <PUBCHEM_IUPAC_OPENEYE_NAME>
(2-methyl-8-quinolyl) 3-chloro-4-fluoro-benzenesulfonate

> <PUBCHEM_IUPAC_CAS_NAME>
3-chloro-4-fluorobenzenesulfonic acid (2-methyl-8-quinolinyl) ester

> <PUBCHEM_IUPAC_NAME>
(2-methylquinolin-8-yl) 3-chloro-4-fluorobenzenesulfonate

> <PUBCHEM_IUPAC_SYSTEMATIC_NAME>
(2-methylquinolin-8-yl) 3-chloranyl-4-fluoranyl-benzenesulfonate

> <PUBCHEM_IUPAC_TRADITIONAL_NAME>
3-chloro-4-fluoro-benzenesulfonic acid (2-methyl-8-quinolyl) ester

> <PUBCHEM_IUPAC_INCHI>
InChI=1S/C16H11ClFNO3S/c1-10-5-6-11-3-2-4-15(16(11)19-10)22-23(20,21)12-7-8-14(18)13(17)9-12/h2-9H,1H3

> <PUBCHEM_IUPAC_INCHIKEY>
YQRFPVVIDTYLSK-UHFFFAOYSA-N

> <PUBCHEM_XLOGP3_AA>
4.4

> <PUBCHEM_EXACT_MASS>
351.01322

> <PUBCHEM_MOLECULAR_FORMULA>
C16H11ClFNO3S

> <PUBCHEM_MOLECULAR_WEIGHT>
351.779843

> <PUBCHEM_OPENEYE_CAN_SMILES>
CC1=NC2=C(C=CC=C2OS(=O)(=O)C3=CC(=C(C=C3)F)Cl)C=C1

> <PUBCHEM_OPENEYE_ISO_SMILES>
CC1=NC2=C(C=CC=C2OS(=O)(=O)C3=CC(=C(C=C3)F)Cl)C=C1

> <PUBCHEM_CACTVS_TPSA>
64.6

> <PUBCHEM_MONOISOTOPIC_WEIGHT>
351.01322

> <PUBCHEM_TOTAL_CHARGE>
0

> <PUBCHEM_HEAVY_ATOM_COUNT>
23

> <PUBCHEM_ATOM_DEF_STEREO_COUNT>
0

> <PUBCHEM_ATOM_UDEF_STEREO_COUNT>
0

> <PUBCHEM_BOND_DEF_STEREO_COUNT>
0

> <PUBCHEM_BOND_UDEF_STEREO_COUNT>
0

> <PUBCHEM_ISOTOPIC_ATOM_COUNT>
0

> <PUBCHEM_COMPONENT_COUNT>
1

> <PUBCHEM_CACTVS_TAUTO_COUNT>
1

> <PUBCHEM_COORDINATE_TYPE>
1
5
255

> <PUBCHEM_BONDANNOTATIONS>
10  13  8
11  18  8
11  19  8
12  16  8
13  16  8
14  17  8
15  17  8
18  21  8
19  22  8
21  23  8
22  23  8
7  15  8
7  8  8
8  10  8
8  9  8
9  12  8
9  14  8

$$$$

