47205084
  -OEChem-06241222582D

 29 30  0     0  0  0  0  0  0999 V2000
    2.0000   -1.2694    0.0000 Cl  0  0  0  0  0  0  0  0  0  0  0  0
    3.7320   -4.2694    0.0000 Cl  0  0  0  0  0  0  0  0  0  0  0  0
    5.4641   -0.2694    0.0000 O   0  0  0  0  0  0  0  0  0  0  0  0
    4.5981    1.2306    0.0000 N   0  0  0  0  0  0  0  0  0  0  0  0
    4.6551    3.3184    0.0000 N   0  0  0  0  0  0  0  0  0  0  0  0
    4.9641    4.2694    0.0000 N   0  0  0  0  0  0  0  0  0  0  0  0
    3.7320   -0.2694    0.0000 C   0  0  0  0  0  0  0  0  0  0  0  0
    5.4641    1.7306    0.0000 C   0  0  0  0  0  0  0  0  0  0  0  0
    3.7320   -1.2694    0.0000 C   0  0  0  0  0  0  0  0  0  0  0  0
    4.5981    0.2306    0.0000 C   0  0  0  0  0  0  0  0  0  0  0  0
    5.4641    2.7306    0.0000 C   0  0  0  0  0  0  0  0  0  0  0  0
    2.8660   -1.7694    0.0000 C   0  0  0  0  0  0  0  0  0  0  0  0
    4.5981   -1.7694    0.0000 C   0  0  0  0  0  0  0  0  0  0  0  0
    6.2731    3.3184    0.0000 C   0  0  0  0  0  0  0  0  0  0  0  0
    2.8660   -2.7694    0.0000 C   0  0  0  0  0  0  0  0  0  0  0  0
    4.5981   -2.7694    0.0000 C   0  0  0  0  0  0  0  0  0  0  0  0
    3.7320   -3.2694    0.0000 C   0  0  0  0  0  0  0  0  0  0  0  0
    5.9641    4.2694    0.0000 C   0  0  0  0  0  0  0  0  0  0  0  0
    3.5200    0.3132    0.0000 H   0  0  0  0  0  0  0  0  0  0  0  0
    3.1215   -0.3771    0.0000 H   0  0  0  0  0  0  0  0  0  0  0  0
    5.6762    1.1480    0.0000 H   0  0  0  0  0  0  0  0  0  0  0  0
    6.0747    1.8382    0.0000 H   0  0  0  0  0  0  0  0  0  0  0  0
    4.0611    1.5406    0.0000 H   0  0  0  0  0  0  0  0  0  0  0  0
    5.1350   -1.4594    0.0000 H   0  0  0  0  0  0  0  0  0  0  0  0
    6.8628    3.1268    0.0000 H   0  0  0  0  0  0  0  0  0  0  0  0
    4.0654    3.1268    0.0000 H   0  0  0  0  0  0  0  0  0  0  0  0
    2.3291   -3.0794    0.0000 H   0  0  0  0  0  0  0  0  0  0  0  0
    5.1350   -3.0794    0.0000 H   0  0  0  0  0  0  0  0  0  0  0  0
    6.3285    4.7710    0.0000 H   0  0  0  0  0  0  0  0  0  0  0  0
  1 12  1  0  0  0  0
  2 17  1  0  0  0  0
  3 10  2  0  0  0  0
  4  8  1  0  0  0  0
  4 10  1  0  0  0  0
  4 23  1  0  0  0  0
  5  6  1  0  0  0  0
  5 11  1  0  0  0  0
  5 26  1  0  0  0  0
  6 18  2  0  0  0  0
  7  9  1  0  0  0  0
  7 10  1  0  0  0  0
  7 19  1  0  0  0  0
  7 20  1  0  0  0  0
  8 11  1  0  0  0  0
  8 21  1  0  0  0  0
  8 22  1  0  0  0  0
  9 12  2  0  0  0  0
  9 13  1  0  0  0  0
 11 14  2  0  0  0  0
 12 15  1  0  0  0  0
 13 16  2  0  0  0  0
 13 24  1  0  0  0  0
 14 18  1  0  0  0  0
 14 25  1  0  0  0  0
 15 17  2  0  0  0  0
 15 27  1  0  0  0  0
 16 17  1  0  0  0  0
 16 28  1  0  0  0  0
 18 29  1  0  0  0  0
M  END
> <PUBCHEM_COMPOUND_CID>
47205084

> <PUBCHEM_COMPOUND_CANONICALIZED>
1

> <PUBCHEM_CACTVS_COMPLEXITY>
291

> <PUBCHEM_CACTVS_HBOND_ACCEPTOR>
2

> <PUBCHEM_CACTVS_HBOND_DONOR>
2

> <PUBCHEM_CACTVS_ROTATABLE_BOND>
4

> <PUBCHEM_CACTVS_SUBSKEYS>
AAADccBzIAAGAAAAAAAAAAAAAAAAAWAAAAAwAAAAAAAAAAABwAAAHgIYAAAADArBniQ8gJLjAACqAzV3UACSBAAghwAYuaE4ZpgIYLKB19GUpAhgngCIyAcYiICOBAAAAACBAAAIAAAAAQIAAAAAAAAAAA==

> <PUBCHEM_IUPAC_OPENEYE_NAME>
2-(2,4-dichlorophenyl)-N-(1H-pyrazol-5-ylmethyl)acetamide

> <PUBCHEM_IUPAC_CAS_NAME>
2-(2,4-dichlorophenyl)-N-(1H-pyrazol-5-ylmethyl)acetamide

> <PUBCHEM_IUPAC_NAME>
2-(2,4-dichlorophenyl)-N-(1H-pyrazol-5-ylmethyl)acetamide

> <PUBCHEM_IUPAC_SYSTEMATIC_NAME>
2-(2,4-dichlorophenyl)-N-(1H-pyrazol-5-ylmethyl)ethanamide

> <PUBCHEM_IUPAC_TRADITIONAL_NAME>
2-(2,4-dichlorophenyl)-N-(1H-pyrazol-5-ylmethyl)acetamide

> <PUBCHEM_IUPAC_INCHI>
InChI=1S/C12H11Cl2N3O/c13-9-2-1-8(11(14)6-9)5-12(18)15-7-10-3-4-16-17-10/h1-4,6H,5,7H2,(H,15,18)(H,16,17)

> <PUBCHEM_IUPAC_INCHIKEY>
RITSOVIQMRWSFO-UHFFFAOYSA-N

> <PUBCHEM_XLOGP3_AA>
2.2

> <PUBCHEM_EXACT_MASS>
283.027917

> <PUBCHEM_MOLECULAR_FORMULA>
C12H11Cl2N3O

> <PUBCHEM_MOLECULAR_WEIGHT>
284.14124

> <PUBCHEM_OPENEYE_CAN_SMILES>
C1=CC(=C(C=C1Cl)Cl)CC(=O)NCC2=CC=NN2

> <PUBCHEM_OPENEYE_ISO_SMILES>
C1=CC(=C(C=C1Cl)Cl)CC(=O)NCC2=CC=NN2

> <PUBCHEM_CACTVS_TPSA>
57.8

> <PUBCHEM_MONOISOTOPIC_WEIGHT>
283.027917

> <PUBCHEM_TOTAL_CHARGE>
0

> <PUBCHEM_HEAVY_ATOM_COUNT>
18

> <PUBCHEM_ATOM_DEF_STEREO_COUNT>
0

> <PUBCHEM_ATOM_UDEF_STEREO_COUNT>
0

> <PUBCHEM_BOND_DEF_STEREO_COUNT>
0

> <PUBCHEM_BOND_UDEF_STEREO_COUNT>
0

> <PUBCHEM_ISOTOPIC_ATOM_COUNT>
0

> <PUBCHEM_COMPONENT_COUNT>
1

> <PUBCHEM_CACTVS_TAUTO_COUNT>
4

> <PUBCHEM_COORDINATE_TYPE>
1
5
255

> <PUBCHEM_BONDANNOTATIONS>
11  14  8
12  15  8
13  16  8
14  18  8
15  17  8
16  17  8
5  11  8
5  6  8
6  18  8
9  12  8
9  13  8

$$$$

