586099
  -OEChem-06241222452D

 48 52  0     1  0  0  0  0  0999 V2000
    2.6254    0.0305    0.0000 N   0  0  3  0  0  0  0  0  0  0  0  0
    5.7049    1.0311    0.0000 N   0  0  0  0  0  0  0  0  0  0  0  0
    4.1652    0.5308    0.0000 C   0  0  3  0  0  0  0  0  0  0  0  0
    3.5397   -0.1638    0.0000 C   0  0  3  0  0  0  0  0  0  0  0  0
    3.8286   -1.0528    0.0000 C   0  0  3  0  0  0  0  0  0  0  0  0
    5.0795    0.3365    0.0000 C   0  0  3  0  0  0  0  0  0  0  0  0
    3.7801    1.5664    0.0000 C   0  0  0  0  0  0  0  0  0  0  0  0
    4.7429   -1.2471    0.0000 C   0  0  0  0  0  0  0  0  0  0  0  0
    5.3683   -0.5525    0.0000 C   0  0  0  0  0  0  0  0  0  0  0  0
    2.3366    0.9195    0.0000 C   0  0  0  0  0  0  0  0  0  0  0  0
    3.2031   -1.7474    0.0000 C   0  0  0  0  0  0  0  0  0  0  0  0
    4.5018    2.1144    0.0000 C   0  0  0  0  0  0  0  0  0  0  0  0
    2.0000   -0.6641    0.0000 C   0  0  0  0  0  0  0  0  0  0  0  0
    4.1376   -2.0038    0.0000 C   0  0  0  0  0  0  0  0  0  0  0  0
    2.2888   -1.5531    0.0000 C   0  0  0  0  0  0  0  0  0  0  0  0
    5.4161    1.9201    0.0000 C   0  0  0  0  0  0  0  0  0  0  0  0
    4.2129    3.0034    0.0000 C   0  0  0  0  0  0  0  0  0  0  0  0
    3.4685   -2.7470    0.0000 C   0  0  0  0  0  0  0  0  0  0  0  0
    6.0415    2.6147    0.0000 C   0  0  0  0  0  0  0  0  0  0  0  0
    4.8384    3.6980    0.0000 C   0  0  0  0  0  0  0  0  0  0  0  0
    5.7527    3.5037    0.0000 C   0  0  0  0  0  0  0  0  0  0  0  0
    3.7775   -3.6980    0.0000 C   0  0  0  0  0  0  0  0  0  0  0  0
    3.1249   -0.6246    0.0000 H   0  0  0  0  0  0  0  0  0  0  0  0
    5.6859    0.2076    0.0000 H   0  0  0  0  0  0  0  0  0  0  0  0
    4.3564    1.7951    0.0000 H   0  0  0  0  0  0  0  0  0  0  0  0
    3.5389    2.1376    0.0000 H   0  0  0  0  0  0  0  0  0  0  0  0
    4.5106   -1.8220    0.0000 H   0  0  0  0  0  0  0  0  0  0  0  0
    5.2687   -1.5756    0.0000 H   0  0  0  0  0  0  0  0  0  0  0  0
    5.7500   -1.0410    0.0000 H   0  0  0  0  0  0  0  0  0  0  0  0
    5.9157   -0.2614    0.0000 H   0  0  0  0  0  0  0  0  0  0  0  0
    2.1034    1.4940    0.0000 H   0  0  0  0  0  0  0  0  0  0  0  0
    1.7542    0.7070    0.0000 H   0  0  0  0  0  0  0  0  0  0  0  0
    2.9709   -2.3222    0.0000 H   0  0  0  0  0  0  0  0  0  0  0  0
    3.7289   -2.0759    0.0000 H   0  0  0  0  0  0  0  0  0  0  0  0
    1.6183   -0.1755    0.0000 H   0  0  0  0  0  0  0  0  0  0  0  0
    1.4526   -0.9552    0.0000 H   0  0  0  0  0  0  0  0  0  0  0  0
    4.5193   -2.4924    0.0000 H   0  0  0  0  0  0  0  0  0  0  0  0
    4.6850   -1.7128    0.0000 H   0  0  0  0  0  0  0  0  0  0  0  0
    1.6749   -1.6393    0.0000 H   0  0  0  0  0  0  0  0  0  0  0  0
    2.2672   -2.1727    0.0000 H   0  0  0  0  0  0  0  0  0  0  0  0
    6.3114    0.9022    0.0000 H   0  0  0  0  0  0  0  0  0  0  0  0
    3.6065    3.1323    0.0000 H   0  0  0  0  0  0  0  0  0  0  0  0
    2.8620   -2.6181    0.0000 H   0  0  0  0  0  0  0  0  0  0  0  0
    6.6480    2.4858    0.0000 H   0  0  0  0  0  0  0  0  0  0  0  0
    4.6468    4.2877    0.0000 H   0  0  0  0  0  0  0  0  0  0  0  0
    6.1676    3.9644    0.0000 H   0  0  0  0  0  0  0  0  0  0  0  0
    3.3626   -4.1588    0.0000 H   0  0  0  0  0  0  0  0  0  0  0  0
    4.3839   -3.8269    0.0000 H   0  0  0  0  0  0  0  0  0  0  0  0
  1  4  1  0  0  0  0
  1 10  1  0  0  0  0
  1 13  1  0  0  0  0
  2  6  1  0  0  0  0
  2 16  1  0  0  0  0
  2 41  1  0  0  0  0
  3  4  1  0  0  0  0
  3  6  1  0  0  0  0
  3  7  1  0  0  0  0
  3 12  1  0  0  0  0
  4  5  1  0  0  0  0
  4 23  1  0  0  0  0
  5  8  1  0  0  0  0
  5 11  1  0  0  0  0
  5 14  1  0  0  0  0
  6  9  1  0  0  0  0
  6 24  1  0  0  0  0
  7 10  1  0  0  0  0
  7 25  1  0  0  0  0
  7 26  1  0  0  0  0
  8  9  1  0  0  0  0
  8 27  1  0  0  0  0
  8 28  1  0  0  0  0
  9 29  1  0  0  0  0
  9 30  1  0  0  0  0
 10 31  1  0  0  0  0
 10 32  1  0  0  0  0
 11 15  1  0  0  0  0
 11 33  1  0  0  0  0
 11 34  1  0  0  0  0
 12 16  1  0  0  0  0
 12 17  2  0  0  0  0
 13 15  1  0  0  0  0
 13 35  1  0  0  0  0
 13 36  1  0  0  0  0
 14 18  1  0  0  0  0
 14 37  1  0  0  0  0
 14 38  1  0  0  0  0
 15 39  1  0  0  0  0
 15 40  1  0  0  0  0
 16 19  2  0  0  0  0
 17 20  1  0  0  0  0
 17 42  1  0  0  0  0
 18 22  2  0  0  0  0
 18 43  1  0  0  0  0
 19 21  1  0  0  0  0
 19 44  1  0  0  0  0
 20 21  2  0  0  0  0
 20 45  1  0  0  0  0
 21 46  1  0  0  0  0
 22 47  1  0  0  0  0
 22 48  1  0  0  0  0
M  END
> <PUBCHEM_COMPOUND_CID>
586099

> <PUBCHEM_COMPOUND_CANONICALIZED>
1

> <PUBCHEM_CACTVS_COMPLEXITY>
474

> <PUBCHEM_CACTVS_HBOND_ACCEPTOR>
2

> <PUBCHEM_CACTVS_HBOND_DONOR>
1

> <PUBCHEM_CACTVS_ROTATABLE_BOND>
2

> <PUBCHEM_CACTVS_SUBSKEYS>
AAADceB7AAAAAAAAAAAAAAAAAAAAAWLAAAA8YIAAAAAAAFixAAAAHAAQAAAADijBGAQwwIPAAACAAiRCQACCAAAhAgAIiIAIZIgIICLA0ZGEIAhgkADIyAcQgMAPgAAAAAACAAAQAAQACAQAAAAAAAAAAA==

> <PUBCHEM_IUPAC_INCHI>
InChI=1S/C20H26N2/c1-2-9-19-10-5-13-22-14-12-20(18(19)22)15-6-3-4-7-16(15)21-17(20)8-11-19/h2-4,6-7,17-18,21H,1,5,8-14H2

> <PUBCHEM_IUPAC_INCHIKEY>
GALGWBDXUJBHQQ-UHFFFAOYSA-N

> <PUBCHEM_XLOGP3_AA>
4.2

> <PUBCHEM_EXACT_MASS>
294.209599

> <PUBCHEM_MOLECULAR_FORMULA>
C20H26N2

> <PUBCHEM_MOLECULAR_WEIGHT>
294.43384

> <PUBCHEM_OPENEYE_CAN_SMILES>
C=CCC12CCCN3C1C4(CC3)C(CC2)NC5=CC=CC=C45

> <PUBCHEM_OPENEYE_ISO_SMILES>
C=CCC12CCCN3C1C4(CC3)C(CC2)NC5=CC=CC=C45

> <PUBCHEM_CACTVS_TPSA>
15.3

> <PUBCHEM_MONOISOTOPIC_WEIGHT>
294.209599

> <PUBCHEM_TOTAL_CHARGE>
0

> <PUBCHEM_HEAVY_ATOM_COUNT>
22

> <PUBCHEM_ATOM_DEF_STEREO_COUNT>
0

> <PUBCHEM_ATOM_UDEF_STEREO_COUNT>
4

> <PUBCHEM_BOND_DEF_STEREO_COUNT>
0

> <PUBCHEM_BOND_UDEF_STEREO_COUNT>
0

> <PUBCHEM_ISOTOPIC_ATOM_COUNT>
0

> <PUBCHEM_COMPONENT_COUNT>
1

> <PUBCHEM_CACTVS_TAUTO_COUNT>
1

> <PUBCHEM_COORDINATE_TYPE>
1
5
255

> <PUBCHEM_BONDANNOTATIONS>
4  1  3
12  16  8
12  17  8
16  19  8
17  20  8
19  21  8
20  21  8
3  7  3
5  14  3
6  9  3

$$$$

