3550
  -OEChem-06251223302D

142147  0     1  0  0  0  0  0999 V2000
    2.0000    5.3909    0.0000 Na  0  3  0  0  0  0  0  0  0  0  0  0
    8.8198    0.6018    0.0000 O   0  0  0  0  0  0  0  0  0  0  0  0
    7.7320    0.6588    0.0000 O   0  0  0  0  0  0  0  0  0  0  0  0
   11.3587    1.1018    0.0000 O   0  0  0  0  0  0  0  0  0  0  0  0
   11.0497   -1.4673    0.0000 O   0  0  0  0  0  0  0  0  0  0  0  0
   14.0698    1.0716    0.0000 O   0  0  0  0  0  0  0  0  0  0  0  0
    6.2320   -1.9392    0.0000 O   0  0  0  0  0  0  0  0  0  0  0  0
    4.7320    2.3909    0.0000 O   0  0  0  0  0  0  0  0  0  0  0  0
   16.1576    1.0146    0.0000 O   0  0  0  0  0  0  0  0  0  0  0  0
   12.6969   -2.0025    0.0000 O   0  0  0  0  0  0  0  0  0  0  0  0
    3.2320   -0.2072    0.0000 O   0  0  0  0  0  0  0  0  0  0  0  0
    3.7320    3.3909    0.0000 O   0  0  0  0  0  0  0  0  0  0  0  0
   18.0236    0.5146    0.0000 O   0  0  0  0  0  0  0  0  0  0  0  0
   13.7262   -4.4398    0.0000 O   0  0  0  0  0  0  0  0  0  0  0  0
    2.0000    4.3909    0.0000 O   0  5  0  0  0  0  0  0  0  0  0  0
    3.7320    4.3909    0.0000 O   0  0  0  0  0  0  0  0  0  0  0  0
    8.2320   -0.2072    0.0000 C   0  0  3  0  0  0  0  0  0  0  0  0
    9.7709    0.2928    0.0000 C   0  0  3  0  0  0  0  0  0  0  0  0
    8.8198   -1.0162    0.0000 C   0  0  3  0  0  0  0  0  0  0  0  0
    9.7709   -0.7072    0.0000 C   0  0  0  0  0  0  0  0  0  0  0  0
   10.7709    0.2928    0.0000 C   0  0  3  0  0  0  0  0  0  0  0  0
    7.7320   -1.0732    0.0000 C   0  0  3  0  0  0  0  0  0  0  0  0
   11.3587   -0.5162    0.0000 C   0  0  3  0  0  0  0  0  0  0  0  0
    6.7320   -1.0732    0.0000 C   0  0  3  0  0  0  0  0  0  0  0  0
   12.3097    0.7928    0.0000 C   0  0  3  0  0  0  0  0  0  0  0  0
    6.7320    0.6588    0.0000 C   0  0  3  0  0  0  0  0  0  0  0  0
   12.3097   -0.2072    0.0000 C   0  0  0  0  0  0  0  0  0  0  0  0
    6.2320   -0.2072    0.0000 C   0  0  0  0  0  0  0  0  0  0  0  0
   10.0799    1.2439    0.0000 C   0  0  0  0  0  0  0  0  0  0  0  0
    9.1945   -1.9434    0.0000 C   0  0  0  0  0  0  0  0  0  0  0  0
   13.1188    1.3806    0.0000 C   0  0  3  0  0  0  0  0  0  0  0  0
    6.2320    1.5249    0.0000 C   0  0  0  0  0  0  0  0  0  0  0  0
    7.5584   -2.0580    0.0000 C   0  0  0  0  0  0  0  0  0  0  0  0
    5.2320    1.5249    0.0000 C   0  0  3  0  0  0  0  0  0  0  0  0
   13.1188    2.3806    0.0000 C   0  0  0  0  0  0  0  0  0  0  0  0
   14.6576    1.8806    0.0000 C   0  0  3  0  0  0  0  0  0  0  0  0
   14.0698    2.6896    0.0000 C   0  0  0  0  0  0  0  0  0  0  0  0
    4.7320    0.6588    0.0000 C   0  0  3  0  0  0  0  0  0  0  0  0
   15.6576    1.8806    0.0000 C   0  0  3  0  0  0  0  0  0  0  0  0
    3.7320    0.6588    0.0000 C   0  0  3  0  0  0  0  0  0  0  0  0
    3.2320    1.5249    0.0000 C   0  0  3  0  0  0  0  0  0  0  0  0
    3.7320    2.3909    0.0000 C   0  0  3  0  0  0  0  0  0  0  0  0
   16.1576    2.7466    0.0000 C   0  0  3  0  0  0  0  0  0  0  0  0
   11.7188   -2.2104    0.0000 C   0  0  3  0  0  0  0  0  0  0  0  0
   17.1576    2.7466    0.0000 C   0  0  0  0  0  0  0  0  0  0  0  0
    5.2320   -0.2072    0.0000 C   0  0  0  0  0  0  0  0  0  0  0  0
   17.6576    1.8806    0.0000 C   0  0  3  0  0  0  0  0  0  0  0  0
   17.1576    1.0146    0.0000 C   0  0  3  0  0  0  0  0  0  0  0  0
    2.8660    2.8909    0.0000 C   0  0  3  0  0  0  0  0  0  0  0  0
   11.4098   -3.1615    0.0000 C   0  0  0  0  0  0  0  0  0  0  0  0
    5.2320   -1.9392    0.0000 C   0  0  0  0  0  0  0  0  0  0  0  0
    2.2320    1.5249    0.0000 C   0  0  0  0  0  0  0  0  0  0  0  0
   15.6576    3.6126    0.0000 C   0  0  0  0  0  0  0  0  0  0  0  0
   12.0789   -3.9046    0.0000 C   0  0  0  0  0  0  0  0  0  0  0  0
   13.3661   -2.7456    0.0000 C   0  0  3  0  0  0  0  0  0  0  0  0
   13.0571   -3.6967    0.0000 C   0  0  3  0  0  0  0  0  0  0  0  0
   18.6576    1.8806    0.0000 C   0  0  0  0  0  0  0  0  0  0  0  0
   17.1576    0.0146    0.0000 C   0  0  0  0  0  0  0  0  0  0  0  0
    2.0000    2.3909    0.0000 C   0  0  0  0  0  0  0  0  0  0  0  0
    2.8660    3.8909    0.0000 C   0  0  0  0  0  0  0  0  0  0  0  0
    2.2320   -0.2072    0.0000 C   0  0  0  0  0  0  0  0  0  0  0  0
   14.3442   -2.5377    0.0000 C   0  0  0  0  0  0  0  0  0  0  0  0
   13.4172   -5.3909    0.0000 C   0  0  0  0  0  0  0  0  0  0  0  0
    8.2776   -1.3168    0.0000 H   0  0  0  0  0  0  0  0  0  0  0  0
    9.8998   -1.3136    0.0000 H   0  0  0  0  0  0  0  0  0  0  0  0
   10.3875   -0.6424    0.0000 H   0  0  0  0  0  0  0  0  0  0  0  0
   10.4894   -0.2596    0.0000 H   0  0  0  0  0  0  0  0  0  0  0  0
    8.3147   -1.2853    0.0000 H   0  0  0  0  0  0  0  0  0  0  0  0
   11.7971   -0.9546    0.0000 H   0  0  0  0  0  0  0  0  0  0  0  0
    6.1120   -1.0732    0.0000 H   0  0  0  0  0  0  0  0  0  0  0  0
   12.2127    1.4052    0.0000 H   0  0  0  0  0  0  0  0  0  0  0  0
    7.0420    1.1958    0.0000 H   0  0  0  0  0  0  0  0  0  0  0  0
   12.4386   -0.8136    0.0000 H   0  0  0  0  0  0  0  0  0  0  0  0
   12.9263   -0.1424    0.0000 H   0  0  0  0  0  0  0  0  0  0  0  0
    5.7571    0.1913    0.0000 H   0  0  0  0  0  0  0  0  0  0  0  0
    5.7571   -0.6057    0.0000 H   0  0  0  0  0  0  0  0  0  0  0  0
   10.6696    1.0523    0.0000 H   0  0  0  0  0  0  0  0  0  0  0  0
   10.2715    1.8335    0.0000 H   0  0  0  0  0  0  0  0  0  0  0  0
    9.4902    1.4355    0.0000 H   0  0  0  0  0  0  0  0  0  0  0  0
    8.6197   -2.1756    0.0000 H   0  0  0  0  0  0  0  0  0  0  0  0
    9.4268   -2.5182    0.0000 H   0  0  0  0  0  0  0  0  0  0  0  0
    9.7693   -1.7111    0.0000 H   0  0  0  0  0  0  0  0  0  0  0  0
   13.2157    0.7682    0.0000 H   0  0  0  0  0  0  0  0  0  0  0  0
    6.8147    1.7369    0.0000 H   0  0  0  0  0  0  0  0  0  0  0  0
    6.1244    2.1354    0.0000 H   0  0  0  0  0  0  0  0  0  0  0  0
    6.9478   -1.9504    0.0000 H   0  0  0  0  0  0  0  0  0  0  0  0
    7.4507   -2.6686    0.0000 H   0  0  0  0  0  0  0  0  0  0  0  0
    8.1690   -2.1657    0.0000 H   0  0  0  0  0  0  0  0  0  0  0  0
    5.5420    2.0618    0.0000 H   0  0  0  0  0  0  0  0  0  0  0  0
   12.9898    2.9870    0.0000 H   0  0  0  0  0  0  0  0  0  0  0  0
   12.5021    2.3158    0.0000 H   0  0  0  0  0  0  0  0  0  0  0  0
   14.9391    1.3282    0.0000 H   0  0  0  0  0  0  0  0  0  0  0  0
   14.6067    2.9996    0.0000 H   0  0  0  0  0  0  0  0  0  0  0  0
   13.8176    3.2560    0.0000 H   0  0  0  0  0  0  0  0  0  0  0  0
    5.3520    0.6588    0.0000 H   0  0  0  0  0  0  0  0  0  0  0  0
   15.3476    1.3437    0.0000 H   0  0  0  0  0  0  0  0  0  0  0  0
    3.1120    0.6588    0.0000 H   0  0  0  0  0  0  0  0  0  0  0  0
    2.9220    2.0618    0.0000 H   0  0  0  0  0  0  0  0  0  0  0  0
   16.4676    3.2836    0.0000 H   0  0  0  0  0  0  0  0  0  0  0  0
   11.1123   -2.3393    0.0000 H   0  0  0  0  0  0  0  0  0  0  0  0
   17.7402    2.9587    0.0000 H   0  0  0  0  0  0  0  0  0  0  0  0
   17.0499    3.3572    0.0000 H   0  0  0  0  0  0  0  0  0  0  0  0
    4.6951   -0.5172    0.0000 H   0  0  0  0  0  0  0  0  0  0  0  0
    5.5420   -0.7441    0.0000 H   0  0  0  0  0  0  0  0  0  0  0  0
    5.7690    0.1028    0.0000 H   0  0  0  0  0  0  0  0  0  0  0  0
   17.9676    1.3437    0.0000 H   0  0  0  0  0  0  0  0  0  0  0  0
    2.8660    2.2709    0.0000 H   0  0  0  0  0  0  0  0  0  0  0  0
   10.8623   -2.8704    0.0000 H   0  0  0  0  0  0  0  0  0  0  0  0
   11.0281   -3.6500    0.0000 H   0  0  0  0  0  0  0  0  0  0  0  0
    5.2320   -1.3192    0.0000 H   0  0  0  0  0  0  0  0  0  0  0  0
    4.6120   -1.9392    0.0000 H   0  0  0  0  0  0  0  0  0  0  0  0
    5.2320   -2.5592    0.0000 H   0  0  0  0  0  0  0  0  0  0  0  0
    2.2320    2.1449    0.0000 H   0  0  0  0  0  0  0  0  0  0  0  0
    1.6120    1.5249    0.0000 H   0  0  0  0  0  0  0  0  0  0  0  0
    2.2320    0.9049    0.0000 H   0  0  0  0  0  0  0  0  0  0  0  0
   16.1945    3.9226    0.0000 H   0  0  0  0  0  0  0  0  0  0  0  0
   15.3476    4.1496    0.0000 H   0  0  0  0  0  0  0  0  0  0  0  0
   15.1207    3.3026    0.0000 H   0  0  0  0  0  0  0  0  0  0  0  0
   11.5531   -4.2332    0.0000 H   0  0  0  0  0  0  0  0  0  0  0  0
   12.3112   -4.4795    0.0000 H   0  0  0  0  0  0  0  0  0  0  0  0
   13.5577   -2.1560    0.0000 H   0  0  0  0  0  0  0  0  0  0  0  0
   12.8655   -4.2864    0.0000 H   0  0  0  0  0  0  0  0  0  0  0  0
    4.2690    3.7009    0.0000 H   0  0  0  0  0  0  0  0  0  0  0  0
   18.6576    1.2606    0.0000 H   0  0  0  0  0  0  0  0  0  0  0  0
   19.2776    1.8806    0.0000 H   0  0  0  0  0  0  0  0  0  0  0  0
   18.6576    2.5006    0.0000 H   0  0  0  0  0  0  0  0  0  0  0  0
   16.5376    0.0146    0.0000 H   0  0  0  0  0  0  0  0  0  0  0  0
   17.1576   -0.6054    0.0000 H   0  0  0  0  0  0  0  0  0  0  0  0
   17.7776    0.0146    0.0000 H   0  0  0  0  0  0  0  0  0  0  0  0
    1.6900    2.9278    0.0000 H   0  0  0  0  0  0  0  0  0  0  0  0
    1.4631    2.0809    0.0000 H   0  0  0  0  0  0  0  0  0  0  0  0
    2.3100    1.8540    0.0000 H   0  0  0  0  0  0  0  0  0  0  0  0
   18.0236   -0.1054    0.0000 H   0  0  0  0  0  0  0  0  0  0  0  0
    2.2320    0.4128    0.0000 H   0  0  0  0  0  0  0  0  0  0  0  0
    1.6120   -0.2072    0.0000 H   0  0  0  0  0  0  0  0  0  0  0  0
    2.2320   -0.8272    0.0000 H   0  0  0  0  0  0  0  0  0  0  0  0
   14.4731   -3.1442    0.0000 H   0  0  0  0  0  0  0  0  0  0  0  0
   14.9507   -2.4088    0.0000 H   0  0  0  0  0  0  0  0  0  0  0  0
   14.2153   -1.9313    0.0000 H   0  0  0  0  0  0  0  0  0  0  0  0
   12.8275   -5.1993    0.0000 H   0  0  0  0  0  0  0  0  0  0  0  0
   13.2256   -5.9806    0.0000 H   0  0  0  0  0  0  0  0  0  0  0  0
   14.0068   -5.5825    0.0000 H   0  0  0  0  0  0  0  0  0  0  0  0
  2 17  1  0  0  0  0
  2 18  1  0  0  0  0
  3 17  1  0  0  0  0
  3 26  1  0  0  0  0
  4 21  1  0  0  0  0
  4 25  1  0  0  0  0
  5 23  1  0  0  0  0
  5 44  1  0  0  0  0
  6 31  1  0  0  0  0
  6 36  1  0  0  0  0
  7 24  1  0  0  0  0
  7 51  1  0  0  0  0
  8 34  1  0  0  0  0
  8 42  1  0  0  0  0
  9 39  1  0  0  0  0
  9 48  1  0  0  0  0
 10 44  1  0  0  0  0
 10 55  1  0  0  0  0
 11 40  1  0  0  0  0
 11 61  1  0  0  0  0
 12 42  1  0  0  0  0
 12123  1  0  0  0  0
 13 48  1  0  0  0  0
 13133  1  0  0  0  0
 14 56  1  0  0  0  0
 14 63  1  0  0  0  0
 15 60  1  0  0  0  0
 16 60  2  0  0  0  0
 17 19  1  0  0  0  0
 17 22  1  0  0  0  0
 18 20  1  0  0  0  0
 18 21  1  0  0  0  0
 18 29  1  0  0  0  0
 19 20  1  0  0  0  0
 19 30  1  0  0  0  0
 19 64  1  0  0  0  0
 20 65  1  0  0  0  0
 20 66  1  0  0  0  0
 21 23  1  0  0  0  0
 21 67  1  0  0  0  0
 22 24  1  0  0  0  0
 22 33  1  0  0  0  0
 22 68  1  0  0  0  0
 23 27  1  0  0  0  0
 23 69  1  0  0  0  0
 24 28  1  0  0  0  0
 24 70  1  0  0  0  0
 25 27  1  0  0  0  0
 25 31  1  0  0  0  0
 25 71  1  0  0  0  0
 26 28  1  0  0  0  0
 26 32  1  0  0  0  0
 26 72  1  0  0  0  0
 27 73  1  0  0  0  0
 27 74  1  0  0  0  0
 28 75  1  0  0  0  0
 28 76  1  0  0  0  0
 29 77  1  0  0  0  0
 29 78  1  0  0  0  0
 29 79  1  0  0  0  0
 30 80  1  0  0  0  0
 30 81  1  0  0  0  0
 30 82  1  0  0  0  0
 31 35  1  0  0  0  0
 31 83  1  0  0  0  0
 32 34  1  0  0  0  0
 32 84  1  0  0  0  0
 32 85  1  0  0  0  0
 33 86  1  0  0  0  0
 33 87  1  0  0  0  0
 33 88  1  0  0  0  0
 34 38  1  0  0  0  0
 34 89  1  0  0  0  0
 35 37  1  0  0  0  0
 35 90  1  0  0  0  0
 35 91  1  0  0  0  0
 36 37  1  0  0  0  0
 36 39  1  0  0  0  0
 36 92  1  0  0  0  0
 37 93  1  0  0  0  0
 37 94  1  0  0  0  0
 38 40  1  0  0  0  0
 38 46  1  0  0  0  0
 38 95  1  0  0  0  0
 39 43  1  0  0  0  0
 39 96  1  0  0  0  0
 40 41  1  0  0  0  0
 40 97  1  0  0  0  0
 41 42  1  0  0  0  0
 41 52  1  0  0  0  0
 41 98  1  0  0  0  0
 42 49  1  0  0  0  0
 43 45  1  0  0  0  0
 43 53  1  0  0  0  0
 43 99  1  0  0  0  0
 44 50  1  0  0  0  0
 44100  1  0  0  0  0
 45 47  1  0  0  0  0
 45101  1  0  0  0  0
 45102  1  0  0  0  0
 46103  1  0  0  0  0
 46104  1  0  0  0  0
 46105  1  0  0  0  0
 47 48  1  0  0  0  0
 47 57  1  0  0  0  0
 47106  1  0  0  0  0
 48 58  1  0  0  0  0
 49 59  1  0  0  0  0
 49 60  1  0  0  0  0
 49107  1  0  0  0  0
 50 54  1  0  0  0  0
 50108  1  0  0  0  0
 50109  1  0  0  0  0
 51110  1  0  0  0  0
 51111  1  0  0  0  0
 51112  1  0  0  0  0
 52113  1  0  0  0  0
 52114  1  0  0  0  0
 52115  1  0  0  0  0
 53116  1  0  0  0  0
 53117  1  0  0  0  0
 53118  1  0  0  0  0
 54 56  1  0  0  0  0
 54119  1  0  0  0  0
 54120  1  0  0  0  0
 55 56  1  0  0  0  0
 55 62  1  0  0  0  0
 55121  1  0  0  0  0
 56122  1  0  0  0  0
 57124  1  0  0  0  0
 57125  1  0  0  0  0
 57126  1  0  0  0  0
 58127  1  0  0  0  0
 58128  1  0  0  0  0
 58129  1  0  0  0  0
 59130  1  0  0  0  0
 59131  1  0  0  0  0
 59132  1  0  0  0  0
 61134  1  0  0  0  0
 61135  1  0  0  0  0
 61136  1  0  0  0  0
 62137  1  0  0  0  0
 62138  1  0  0  0  0
 62139  1  0  0  0  0
 63140  1  0  0  0  0
 63141  1  0  0  0  0
 63142  1  0  0  0  0
M  CHG  2   1   1  15  -1
M  END
> <PUBCHEM_COMPOUND_CID>
3550

> <PUBCHEM_COMPOUND_CANONICALIZED>
1

> <PUBCHEM_CACTVS_COMPLEXITY>
1540

> <PUBCHEM_CACTVS_HBOND_ACCEPTOR>
15

> <PUBCHEM_CACTVS_HBOND_DONOR>
2

> <PUBCHEM_CACTVS_ROTATABLE_BOND>
12

> <PUBCHEM_CACTVS_SUBSKEYS>
AAADcfB8PCAAAAAAAAAAAAAAAAAAASJEgAAkSJEgAAAAAAAAAAAAGgAACAAADVSwgAMCCAAABgAIAACQCAAAAAAAAAAAAAEAAAARABYAAAAiQAAFIAAGAAHI7PzOAAAAAAAAAAAAAAAAAAAAAAAAAAAAAA==

> <PUBCHEM_IUPAC_OPENEYE_NAME>
sodium 2-[2-hydroxy-6-[[2-[5-[5-(6-hydroxy-3,5,6-trimethyl-tetrahydropyran-2-yl)tetrahydrofuran-2-yl]-3-(5-methoxy-6-methyl-tetrahydropyran-2-yl)oxy-tetrahydrofuran-2-yl]-9-methoxy-2,4,10-trimethyl-1,6-dioxaspiro[4.5]decan-7-yl]methyl]-4-methoxy-3,5-dimethyl-tetrahydropyran-2-yl]propanoate

> <PUBCHEM_IUPAC_CAS_NAME>
sodium 2-[2-hydroxy-6-[[2-[5-[5-(6-hydroxy-3,5,6-trimethyl-2-oxanyl)-2-oxolanyl]-3-[(5-methoxy-6-methyl-2-oxanyl)oxy]-2-oxolanyl]-9-methoxy-2,4,10-trimethyl-1,6-dioxaspiro[4.5]decan-7-yl]methyl]-4-methoxy-3,5-dimethyl-2-oxanyl]propanoate

> <PUBCHEM_IUPAC_NAME>
sodium 2-[2-hydroxy-6-[[2-[5-[5-(6-hydroxy-3,5,6-trimethyloxan-2-yl)oxolan-2-yl]-3-(5-methoxy-6-methyloxan-2-yl)oxyoxolan-2-yl]-9-methoxy-2,4,10-trimethyl-1,6-dioxaspiro[4.5]decan-7-yl]methyl]-4-methoxy-3,5-dimethyloxan-2-yl]propanoate

> <PUBCHEM_IUPAC_SYSTEMATIC_NAME>
sodium 2-[4-methoxy-6-[[9-methoxy-2-[3-(5-methoxy-6-methyl-oxan-2-yl)oxy-5-[5-(3,5,6-trimethyl-6-oxidanyl-oxan-2-yl)oxolan-2-yl]oxolan-2-yl]-2,4,10-trimethyl-1,6-dioxaspiro[4.5]decan-7-yl]methyl]-3,5-dimethyl-2-oxidanyl-oxan-2-yl]propanoate

> <PUBCHEM_IUPAC_TRADITIONAL_NAME>
sodium 2-[2-hydroxy-6-[[2-[5-[5-(6-hydroxy-3,5,6-trimethyl-tetrahydropyran-2-yl)tetrahydrofuran-2-yl]-3-(5-methoxy-6-methyl-tetrahydropyran-2-yl)oxy-tetrahydrofuran-2-yl]-9-methoxy-2,4,10-trimethyl-1,6-dioxaspiro[4.5]decan-7-yl]methyl]-4-methoxy-3,5-dimethyl-tetrahydropyran-2-yl]propionate

> <PUBCHEM_IUPAC_INCHI>
InChI=1S/C47H80O15.Na/c1-23-18-24(2)45(10,50)61-40(23)34-15-14-33(56-34)37-21-38(57-39-17-16-32(52-11)30(8)55-39)42(58-37)44(9)22-25(3)47(62-44)27(5)36(53-12)20-31(59-47)19-35-26(4)41(54-13)28(6)46(51,60-35)29(7)43(48)49;/h23-42,50-51H,14-22H2,1-13H3,(H,48,49);/q;+1/p-1

> <PUBCHEM_IUPAC_INCHIKEY>
WOOHRFNBDIFSDV-UHFFFAOYSA-M

> <PUBCHEM_EXACT_MASS>
906.531666

> <PUBCHEM_MOLECULAR_FORMULA>
C47H79NaO15

> <PUBCHEM_MOLECULAR_WEIGHT>
907.110929

> <PUBCHEM_OPENEYE_CAN_SMILES>
CC1CC(C(OC1C2CCC(O2)C3CC(C(O3)C4(CC(C5(O4)C(C(CC(O5)CC6C(C(C(C(O6)(C(C)C(=O)[O-])O)C)OC)C)OC)C)C)C)OC7CCC(C(O7)C)OC)(C)O)C.[Na+]

> <PUBCHEM_OPENEYE_ISO_SMILES>
CC1CC(C(OC1C2CCC(O2)C3CC(C(O3)C4(CC(C5(O4)C(C(CC(O5)CC6C(C(C(C(O6)(C(C)C(=O)[O-])O)C)OC)C)OC)C)C)C)OC7CCC(C(O7)C)OC)(C)O)C.[Na+]

> <PUBCHEM_CACTVS_TPSA>
182

> <PUBCHEM_MONOISOTOPIC_WEIGHT>
906.531666

> <PUBCHEM_TOTAL_CHARGE>
0

> <PUBCHEM_HEAVY_ATOM_COUNT>
63

> <PUBCHEM_ATOM_DEF_STEREO_COUNT>
0

> <PUBCHEM_ATOM_UDEF_STEREO_COUNT>
24

> <PUBCHEM_BOND_DEF_STEREO_COUNT>
0

> <PUBCHEM_BOND_UDEF_STEREO_COUNT>
0

> <PUBCHEM_ISOTOPIC_ATOM_COUNT>
0

> <PUBCHEM_COMPONENT_COUNT>
2

> <PUBCHEM_CACTVS_TAUTO_COUNT>
1

> <PUBCHEM_NONSTANDARDBOND>
1  15  7

> <PUBCHEM_COORDINATE_TYPE>
1
5
255

> <PUBCHEM_BONDANNOTATIONS>
40  11  3
42  12  3
48  13  3
56  14  3
18  29  3
19  30  3
17  2  3
22  33  3
25  27  3
26  32  3
31  35  3
34  32  3
36  37  3
38  46  3
21  4  3
41  52  3
43  53  3
47  57  3
49  59  3
23  5  3
44  5  3
55  62  3
24  7  3
39  9  3

$$$$

