17396427
  -OEChem-06241222562D

 55 58  0     1  0  0  0  0  0999 V2000
    7.9128   -5.4182    0.0000 Cl  0  0  0  0  0  0  0  0  0  0  0  0
    6.1808   -0.4182    0.0000 O   0  0  0  0  0  0  0  0  0  0  0  0
    6.1808   -2.4182    0.0000 O   0  0  0  0  0  0  0  0  0  0  0  0
    5.3147    4.0818    0.0000 O   0  0  0  0  0  0  0  0  0  0  0  0
    3.4782   -4.9127    0.0000 N   0  0  0  0  0  0  0  0  0  0  0  0
    4.4487   -2.4182    0.0000 N   0  0  0  0  0  0  0  0  0  0  0  0
    2.6691   -3.5114    0.0000 N   0  0  0  0  0  0  0  0  0  0  0  0
    4.4487   -3.4182    0.0000 C   0  0  3  0  0  0  0  0  0  0  0  0
    3.5827   -3.9182    0.0000 C   0  0  0  0  0  0  0  0  0  0  0  0
    5.3147   -3.9182    0.0000 C   0  0  0  0  0  0  0  0  0  0  0  0
    5.3147   -4.9182    0.0000 C   0  0  0  0  0  0  0  0  0  0  0  0
    6.1808   -3.4182    0.0000 C   0  0  0  0  0  0  0  0  0  0  0  0
    2.5000   -5.1206    0.0000 C   0  0  0  0  0  0  0  0  0  0  0  0
    5.3147   -1.9182    0.0000 C   0  0  0  0  0  0  0  0  0  0  0  0
    4.2213   -5.5818    0.0000 C   0  0  0  0  0  0  0  0  0  0  0  0
    2.0000   -4.2546    0.0000 C   0  0  0  0  0  0  0  0  0  0  0  0
    5.3147   -0.9182    0.0000 C   0  0  0  0  0  0  0  0  0  0  0  0
    6.1808   -5.4182    0.0000 C   0  0  0  0  0  0  0  0  0  0  0  0
    7.0468   -3.9182    0.0000 C   0  0  0  0  0  0  0  0  0  0  0  0
    7.0468   -4.9182    0.0000 C   0  0  0  0  0  0  0  0  0  0  0  0
    6.1808    0.5818    0.0000 C   0  0  0  0  0  0  0  0  0  0  0  0
    6.1808    2.5818    0.0000 C   0  0  0  0  0  0  0  0  0  0  0  0
    7.0468    1.0818    0.0000 C   0  0  0  0  0  0  0  0  0  0  0  0
    5.3147    1.0818    0.0000 C   0  0  0  0  0  0  0  0  0  0  0  0
    7.0468    2.0818    0.0000 C   0  0  0  0  0  0  0  0  0  0  0  0
    5.3147    2.0818    0.0000 C   0  0  0  0  0  0  0  0  0  0  0  0
    6.1808    3.5818    0.0000 C   0  0  0  0  0  0  0  0  0  0  0  0
    7.0468    4.0818    0.0000 C   0  0  0  0  0  0  0  0  0  0  0  0
    7.9128    3.5818    0.0000 C   0  0  0  0  0  0  0  0  0  0  0  0
    7.0468    5.0818    0.0000 C   0  0  0  0  0  0  0  0  0  0  0  0
    8.7788    4.0818    0.0000 C   0  0  0  0  0  0  0  0  0  0  0  0
    7.9128    5.5818    0.0000 C   0  0  0  0  0  0  0  0  0  0  0  0
    8.7788    5.0818    0.0000 C   0  0  0  0  0  0  0  0  0  0  0  0
    3.9118   -3.1082    0.0000 H   0  0  0  0  0  0  0  0  0  0  0  0
    3.9118   -2.1082    0.0000 H   0  0  0  0  0  0  0  0  0  0  0  0
    4.7778   -5.2282    0.0000 H   0  0  0  0  0  0  0  0  0  0  0  0
    6.1808   -2.7982    0.0000 H   0  0  0  0  0  0  0  0  0  0  0  0
    2.2478   -5.6870    0.0000 H   0  0  0  0  0  0  0  0  0  0  0  0
    3.8064   -6.0426    0.0000 H   0  0  0  0  0  0  0  0  0  0  0  0
    4.6820   -5.9967    0.0000 H   0  0  0  0  0  0  0  0  0  0  0  0
    4.6362   -5.1211    0.0000 H   0  0  0  0  0  0  0  0  0  0  0  0
    1.3834   -4.1898    0.0000 H   0  0  0  0  0  0  0  0  0  0  0  0
    5.1027   -0.3356    0.0000 H   0  0  0  0  0  0  0  0  0  0  0  0
    4.7042   -1.0258    0.0000 H   0  0  0  0  0  0  0  0  0  0  0  0
    6.1808   -6.0382    0.0000 H   0  0  0  0  0  0  0  0  0  0  0  0
    7.5837   -3.6082    0.0000 H   0  0  0  0  0  0  0  0  0  0  0  0
    7.5837    0.7718    0.0000 H   0  0  0  0  0  0  0  0  0  0  0  0
    4.7778    0.7718    0.0000 H   0  0  0  0  0  0  0  0  0  0  0  0
    7.5837    2.3918    0.0000 H   0  0  0  0  0  0  0  0  0  0  0  0
    4.7778    2.3918    0.0000 H   0  0  0  0  0  0  0  0  0  0  0  0
    7.9128    2.9618    0.0000 H   0  0  0  0  0  0  0  0  0  0  0  0
    6.5098    5.3918    0.0000 H   0  0  0  0  0  0  0  0  0  0  0  0
    9.3158    3.7718    0.0000 H   0  0  0  0  0  0  0  0  0  0  0  0
    7.9128    6.2018    0.0000 H   0  0  0  0  0  0  0  0  0  0  0  0
    9.3158    5.3918    0.0000 H   0  0  0  0  0  0  0  0  0  0  0  0
  1 20  1  0  0  0  0
  2 17  1  0  0  0  0
  2 21  1  0  0  0  0
  3 14  2  0  0  0  0
  4 27  2  0  0  0  0
  5  9  1  0  0  0  0
  5 13  1  0  0  0  0
  5 15  1  0  0  0  0
  6  8  1  0  0  0  0
  6 14  1  0  0  0  0
  6 35  1  0  0  0  0
  7  9  2  0  0  0  0
  7 16  1  0  0  0  0
  8  9  1  0  0  0  0
  8 10  1  0  0  0  0
  8 34  1  0  0  0  0
 10 11  2  0  0  0  0
 10 12  1  0  0  0  0
 11 18  1  0  0  0  0
 11 36  1  0  0  0  0
 12 19  2  0  0  0  0
 12 37  1  0  0  0  0
 13 16  2  0  0  0  0
 13 38  1  0  0  0  0
 14 17  1  0  0  0  0
 15 39  1  0  0  0  0
 15 40  1  0  0  0  0
 15 41  1  0  0  0  0
 16 42  1  0  0  0  0
 17 43  1  0  0  0  0
 17 44  1  0  0  0  0
 18 20  2  0  0  0  0
 18 45  1  0  0  0  0
 19 20  1  0  0  0  0
 19 46  1  0  0  0  0
 21 23  2  0  0  0  0
 21 24  1  0  0  0  0
 22 25  2  0  0  0  0
 22 26  1  0  0  0  0
 22 27  1  0  0  0  0
 23 25  1  0  0  0  0
 23 47  1  0  0  0  0
 24 26  2  0  0  0  0
 24 48  1  0  0  0  0
 25 49  1  0  0  0  0
 26 50  1  0  0  0  0
 27 28  1  0  0  0  0
 28 29  2  0  0  0  0
 28 30  1  0  0  0  0
 29 31  1  0  0  0  0
 29 51  1  0  0  0  0
 30 32  2  0  0  0  0
 30 52  1  0  0  0  0
 31 33  2  0  0  0  0
 31 53  1  0  0  0  0
 32 33  1  0  0  0  0
 32 54  1  0  0  0  0
 33 55  1  0  0  0  0
M  END
> <PUBCHEM_COMPOUND_CID>
17396427

> <PUBCHEM_COMPOUND_CANONICALIZED>
1

> <PUBCHEM_CACTVS_COMPLEXITY>
641

> <PUBCHEM_CACTVS_HBOND_ACCEPTOR>
4

> <PUBCHEM_CACTVS_HBOND_DONOR>
1

> <PUBCHEM_CACTVS_ROTATABLE_BOND>
8

> <PUBCHEM_CACTVS_SUBSKEYS>
AAADceB7MAAEAAAAAAAAAAAAAAAAAWAAAAAwYMAAAAAAAAAB1AAAHgIQAAAADC7hmyY/lpfMFACoArN3dAKCiC01N6AJyIF+PsiObjKFvx+XOSjs1hOYqaeYzODOJAAAAAAAAABIAAAAAAAAAAAAAAAAAA==

> <PUBCHEM_IUPAC_OPENEYE_NAME>
2-(4-benzoylphenoxy)-N-[(4-chlorophenyl)-(1-methylimidazol-2-yl)methyl]acetamide

> <PUBCHEM_IUPAC_CAS_NAME>
2-(4-benzoylphenoxy)-N-[(4-chlorophenyl)-(1-methyl-2-imidazolyl)methyl]acetamide

> <PUBCHEM_IUPAC_NAME>
2-(4-benzoylphenoxy)-N-[(4-chlorophenyl)-(1-methylimidazol-2-yl)methyl]acetamide

> <PUBCHEM_IUPAC_SYSTEMATIC_NAME>
N-[(4-chlorophenyl)-(1-methylimidazol-2-yl)methyl]-2-[4-(phenylcarbonyl)phenoxy]ethanamide

> <PUBCHEM_IUPAC_TRADITIONAL_NAME>
2-(4-benzoylphenoxy)-N-[(4-chlorophenyl)-(1-methylimidazol-2-yl)methyl]acetamide

> <PUBCHEM_IUPAC_INCHI>
InChI=1S/C26H22ClN3O3/c1-30-16-15-28-26(30)24(18-7-11-21(27)12-8-18)29-23(31)17-33-22-13-9-20(10-14-22)25(32)19-5-3-2-4-6-19/h2-16,24H,17H2,1H3,(H,29,31)

> <PUBCHEM_IUPAC_INCHIKEY>
MWOZJIZQYHMGIV-UHFFFAOYSA-N

> <PUBCHEM_XLOGP3_AA>
4.5

> <PUBCHEM_EXACT_MASS>
459.134969

> <PUBCHEM_MOLECULAR_FORMULA>
C26H22ClN3O3

> <PUBCHEM_MOLECULAR_WEIGHT>
459.92418

> <PUBCHEM_OPENEYE_CAN_SMILES>
CN1C=CN=C1C(C2=CC=C(C=C2)Cl)NC(=O)COC3=CC=C(C=C3)C(=O)C4=CC=CC=C4

> <PUBCHEM_OPENEYE_ISO_SMILES>
CN1C=CN=C1C(C2=CC=C(C=C2)Cl)NC(=O)COC3=CC=C(C=C3)C(=O)C4=CC=CC=C4

> <PUBCHEM_CACTVS_TPSA>
73.2

> <PUBCHEM_MONOISOTOPIC_WEIGHT>
459.134969

> <PUBCHEM_TOTAL_CHARGE>
0

> <PUBCHEM_HEAVY_ATOM_COUNT>
33

> <PUBCHEM_ATOM_DEF_STEREO_COUNT>
0

> <PUBCHEM_ATOM_UDEF_STEREO_COUNT>
1

> <PUBCHEM_BOND_DEF_STEREO_COUNT>
0

> <PUBCHEM_BOND_UDEF_STEREO_COUNT>
0

> <PUBCHEM_ISOTOPIC_ATOM_COUNT>
0

> <PUBCHEM_COMPONENT_COUNT>
1

> <PUBCHEM_CACTVS_TAUTO_COUNT>
2

> <PUBCHEM_COORDINATE_TYPE>
1
5
255

> <PUBCHEM_BONDANNOTATIONS>
10  11  8
10  12  8
11  18  8
12  19  8
13  16  8
18  20  8
19  20  8
21  23  8
21  24  8
22  25  8
22  26  8
23  25  8
24  26  8
28  29  8
28  30  8
29  31  8
30  32  8
31  33  8
32  33  8
5  13  8
5  9  8
8  6  3
7  16  8
7  9  8

$$$$

