9403
  -OEChem-06261203402D

 65 69  0     1  0  0  0  0  0999 V2000
    9.1857    0.2110    0.0000 O   0  0  0  0  0  0  0  0  0  0  0  0
   10.8321   -0.3271    0.0000 O   0  0  0  0  0  0  0  0  0  0  0  0
    2.5357   -4.0966    0.0000 O   0  0  0  0  0  0  0  0  0  0  0  0
    7.9288   -1.0443    0.0000 C   0  0  1  0  0  0  0  0  0  0  0  0
    7.9288   -2.0443    0.0000 C   0  0  2  0  0  0  0  0  0  0  0  0
    7.0628   -2.5443    0.0000 C   0  0  1  0  0  0  0  0  0  0  0  0
    6.1968   -2.0443    0.0000 C   0  0  2  0  0  0  0  0  0  0  0  0
    8.8750   -0.7396    0.0000 C   0  0  2  0  0  0  0  0  0  0  0  0
    7.0628   -0.5443    0.0000 C   0  0  0  0  0  0  0  0  0  0  0  0
    8.8750   -2.3490    0.0000 C   0  0  0  0  0  0  0  0  0  0  0  0
    6.1968   -1.0443    0.0000 C   0  0  0  0  0  0  0  0  0  0  0  0
    9.4586   -1.5443    0.0000 C   0  0  0  0  0  0  0  0  0  0  0  0
    7.0789   -3.5858    0.0000 C   0  0  0  0  0  0  0  0  0  0  0  0
    7.9288   -0.0443    0.0000 C   0  0  0  0  0  0  0  0  0  0  0  0
    5.2868   -2.5511    0.0000 C   0  0  0  0  0  0  0  0  0  0  0  0
    6.1808   -4.1136    0.0000 C   0  0  0  0  0  0  0  0  0  0  0  0
    5.2787   -3.5927    0.0000 C   0  0  0  0  0  0  0  0  0  0  0  0
    4.3599   -1.9871    0.0000 C   0  0  0  0  0  0  0  0  0  0  0  0
    4.3433   -4.1425    0.0000 C   0  0  0  0  0  0  0  0  0  0  0  0
   10.1642    0.4172    0.0000 C   0  0  0  0  0  0  0  0  0  0  0  0
    3.4120   -2.5150    0.0000 C   0  0  0  0  0  0  0  0  0  0  0  0
    3.4037   -3.6000    0.0000 C   0  0  0  0  0  0  0  0  0  0  0  0
   10.4749    1.3677    0.0000 C   0  0  0  0  0  0  0  0  0  0  0  0
   11.7640    2.5244    0.0000 C   0  0  0  0  0  0  0  0  0  0  0  0
   11.4534    1.5739    0.0000 C   0  0  0  0  0  0  0  0  0  0  0  0
   12.7156    2.8318    0.0000 C   0  0  0  0  0  0  0  0  0  0  0  0
   11.1777    3.3345    0.0000 C   0  0  0  0  0  0  0  0  0  0  0  0
   12.7174    3.8318    0.0000 C   0  0  0  0  0  0  0  0  0  0  0  0
   11.7668    4.1425    0.0000 C   0  0  0  0  0  0  0  0  0  0  0  0
    8.0188   -2.8895    0.0000 H   0  0  0  0  0  0  0  0  0  0  0  0
    7.8022   -2.9636    0.0000 H   0  0  0  0  0  0  0  0  0  0  0  0
    6.9329   -1.6193    0.0000 H   0  0  0  0  0  0  0  0  0  0  0  0
    9.4875   -0.6434    0.0000 H   0  0  0  0  0  0  0  0  0  0  0  0
    7.4613   -0.0693    0.0000 H   0  0  0  0  0  0  0  0  0  0  0  0
    6.6643   -0.0693    0.0000 H   0  0  0  0  0  0  0  0  0  0  0  0
    8.6240   -2.9159    0.0000 H   0  0  0  0  0  0  0  0  0  0  0  0
    9.4124   -2.6582    0.0000 H   0  0  0  0  0  0  0  0  0  0  0  0
    5.9847   -0.4617    0.0000 H   0  0  0  0  0  0  0  0  0  0  0  0
    5.5862   -1.1520    0.0000 H   0  0  0  0  0  0  0  0  0  0  0  0
    9.9195   -1.9590    0.0000 H   0  0  0  0  0  0  0  0  0  0  0  0
    9.9195   -1.1296    0.0000 H   0  0  0  0  0  0  0  0  0  0  0  0
    7.2969   -4.1662    0.0000 H   0  0  0  0  0  0  0  0  0  0  0  0
    7.6880   -3.4703    0.0000 H   0  0  0  0  0  0  0  0  0  0  0  0
    8.5488   -0.0443    0.0000 H   0  0  0  0  0  0  0  0  0  0  0  0
    7.9288    0.5757    0.0000 H   0  0  0  0  0  0  0  0  0  0  0  0
    7.3088   -0.0443    0.0000 H   0  0  0  0  0  0  0  0  0  0  0  0
    5.7835   -4.5895    0.0000 H   0  0  0  0  0  0  0  0  0  0  0  0
    6.5818   -4.5864    0.0000 H   0  0  0  0  0  0  0  0  0  0  0  0
    4.3719   -1.3672    0.0000 H   0  0  0  0  0  0  0  0  0  0  0  0
    4.3457   -4.7625    0.0000 H   0  0  0  0  0  0  0  0  0  0  0  0
    2.8787   -2.1988    0.0000 H   0  0  0  0  0  0  0  0  0  0  0  0
   10.4543    1.9874    0.0000 H   0  0  0  0  0  0  0  0  0  0  0  0
    9.8611    1.4550    0.0000 H   0  0  0  0  0  0  0  0  0  0  0  0
   12.2017    2.0853    0.0000 H   0  0  0  0  0  0  0  0  0  0  0  0
   11.4739    0.9543    0.0000 H   0  0  0  0  0  0  0  0  0  0  0  0
   12.0672    1.4866    0.0000 H   0  0  0  0  0  0  0  0  0  0  0  0
   10.7176    3.7501    0.0000 H   0  0  0  0  0  0  0  0  0  0  0  0
   10.7162    2.9204    0.0000 H   0  0  0  0  0  0  0  0  0  0  0  0
   12.8435    2.2251    0.0000 H   0  0  0  0  0  0  0  0  0  0  0  0
   13.3323    2.8956    0.0000 H   0  0  0  0  0  0  0  0  0  0  0  0
   12.0200    4.7084    0.0000 H   0  0  0  0  0  0  0  0  0  0  0  0
   11.2304    4.4534    0.0000 H   0  0  0  0  0  0  0  0  0  0  0  0
   13.3338    3.7659    0.0000 H   0  0  0  0  0  0  0  0  0  0  0  0
   12.8473    4.4380    0.0000 H   0  0  0  0  0  0  0  0  0  0  0  0
    2.0000   -3.7846    0.0000 H   0  0  0  0  0  0  0  0  0  0  0  0
  8  1  1  1  0  0  0
  1 20  1  0  0  0  0
  2 20  2  0  0  0  0
  3 22  1  0  0  0  0
  3 65  1  0  0  0  0
  4  5  1  0  0  0  0
  4  8  1  0  0  0  0
  4  9  1  0  0  0  0
  4 14  1  1  0  0  0
  5  6  1  0  0  0  0
  5 10  1  0  0  0  0
  5 30  1  6  0  0  0
  6  7  1  0  0  0  0
  6 13  1  0  0  0  0
  6 31  1  1  0  0  0
  7 11  1  0  0  0  0
  7 15  1  0  0  0  0
  7 32  1  6  0  0  0
  8 12  1  0  0  0  0
  8 33  1  0  0  0  0
  9 11  1  0  0  0  0
  9 34  1  0  0  0  0
  9 35  1  0  0  0  0
 10 12  1  0  0  0  0
 10 36  1  0  0  0  0
 10 37  1  0  0  0  0
 11 38  1  0  0  0  0
 11 39  1  0  0  0  0
 12 40  1  0  0  0  0
 12 41  1  0  0  0  0
 13 16  1  0  0  0  0
 13 42  1  0  0  0  0
 13 43  1  0  0  0  0
 14 44  1  0  0  0  0
 14 45  1  0  0  0  0
 14 46  1  0  0  0  0
 15 17  2  0  0  0  0
 15 18  1  0  0  0  0
 16 17  1  0  0  0  0
 16 47  1  0  0  0  0
 16 48  1  0  0  0  0
 17 19  1  0  0  0  0
 18 21  2  0  0  0  0
 18 49  1  0  0  0  0
 19 22  2  0  0  0  0
 19 50  1  0  0  0  0
 20 23  1  0  0  0  0
 21 22  1  0  0  0  0
 21 51  1  0  0  0  0
 23 25  1  0  0  0  0
 23 52  1  0  0  0  0
 23 53  1  0  0  0  0
 24 25  1  0  0  0  0
 24 26  1  0  0  0  0
 24 27  1  0  0  0  0
 24 54  1  0  0  0  0
 25 55  1  0  0  0  0
 25 56  1  0  0  0  0
 26 28  1  0  0  0  0
 26 59  1  0  0  0  0
 26 60  1  0  0  0  0
 27 29  1  0  0  0  0
 27 57  1  0  0  0  0
 27 58  1  0  0  0  0
 28 29  1  0  0  0  0
 28 63  1  0  0  0  0
 28 64  1  0  0  0  0
 29 61  1  0  0  0  0
 29 62  1  0  0  0  0
M  END
> <PUBCHEM_COMPOUND_CID>
9403

> <PUBCHEM_COMPOUND_CANONICALIZED>
1

> <PUBCHEM_CACTVS_COMPLEXITY>
597

> <PUBCHEM_CACTVS_HBOND_ACCEPTOR>
3

> <PUBCHEM_CACTVS_HBOND_DONOR>
1

> <PUBCHEM_CACTVS_ROTATABLE_BOND>
5

> <PUBCHEM_CACTVS_SUBSKEYS>
AAADcfB4MAAAAAAAAAAAAAAAAAAAAYMAAAAwYMAAAAAAAGDBAAAAGgAACAAADxSgmAIyDoAABgCIAiDSCAACAAAgIAAIiAEGCIgIJjKCERKCcAAkwBEImAeIyPCPoAABAAAQAADAAAYAACAAAIAADAAAAA==

> <PUBCHEM_IUPAC_OPENEYE_NAME>
[(8R,9S,13S,14S,17S)-3-hydroxy-13-methyl-6,7,8,9,11,12,14,15,16,17-decahydrocyclopenta[a]phenanthren-17-yl] 3-cyclopentylpropanoate

> <PUBCHEM_IUPAC_CAS_NAME>
3-cyclopentylpropanoic acid [(8R,9S,13S,14S,17S)-3-hydroxy-13-methyl-6,7,8,9,11,12,14,15,16,17-decahydrocyclopenta[a]phenanthren-17-yl] ester

> <PUBCHEM_IUPAC_NAME>
[(8R,9S,13S,14S,17S)-3-hydroxy-13-methyl-6,7,8,9,11,12,14,15,16,17-decahydrocyclopenta[a]phenanthren-17-yl] 3-cyclopentylpropanoate

> <PUBCHEM_IUPAC_SYSTEMATIC_NAME>
[(8R,9S,13S,14S,17S)-13-methyl-3-oxidanyl-6,7,8,9,11,12,14,15,16,17-decahydrocyclopenta[a]phenanthren-17-yl] 3-cyclopentylpropanoate

> <PUBCHEM_IUPAC_TRADITIONAL_NAME>
3-cyclopentylpropionic acid [(8R,9S,13S,14S,17S)-3-hydroxy-13-methyl-6,7,8,9,11,12,14,15,16,17-decahydrocyclopenta[a]phenanthren-17-yl] ester

> <PUBCHEM_IUPAC_INCHI>
InChI=1S/C26H36O3/c1-26-15-14-21-20-10-8-19(27)16-18(20)7-9-22(21)23(26)11-12-24(26)29-25(28)13-6-17-4-2-3-5-17/h8,10,16-17,21-24,27H,2-7,9,11-15H2,1H3/t21-,22-,23+,24+,26+/m1/s1

> <PUBCHEM_IUPAC_INCHIKEY>
UOACKFBJUYNSLK-XRKIENNPSA-N

> <PUBCHEM_XLOGP3>
7.1

> <PUBCHEM_EXACT_MASS>
396.266445

> <PUBCHEM_MOLECULAR_FORMULA>
C26H36O3

> <PUBCHEM_MOLECULAR_WEIGHT>
396.56224

> <PUBCHEM_OPENEYE_CAN_SMILES>
CC12CCC3C(C1CCC2OC(=O)CCC4CCCC4)CCC5=C3C=CC(=C5)O

> <PUBCHEM_OPENEYE_ISO_SMILES>
C[C@]12CC[C@H]3[C@H]([C@@H]1CC[C@@H]2OC(=O)CCC4CCCC4)CCC5=C3C=CC(=C5)O

> <PUBCHEM_CACTVS_TPSA>
46.5

> <PUBCHEM_MONOISOTOPIC_WEIGHT>
396.266445

> <PUBCHEM_TOTAL_CHARGE>
0

> <PUBCHEM_HEAVY_ATOM_COUNT>
29

> <PUBCHEM_ATOM_DEF_STEREO_COUNT>
5

> <PUBCHEM_ATOM_UDEF_STEREO_COUNT>
0

> <PUBCHEM_BOND_DEF_STEREO_COUNT>
0

> <PUBCHEM_BOND_UDEF_STEREO_COUNT>
0

> <PUBCHEM_ISOTOPIC_ATOM_COUNT>
0

> <PUBCHEM_COMPONENT_COUNT>
1

> <PUBCHEM_CACTVS_TAUTO_COUNT>
9

> <PUBCHEM_COORDINATE_TYPE>
1
5
255

> <PUBCHEM_BONDANNOTATIONS>
8  1  5
15  17  8
15  18  8
17  19  8
18  21  8
19  22  8
21  22  8
4  14  5
5  30  6
6  31  5
7  32  6

$$$$

