7862
  -OEChem-06261202242D

  9  8  0     0  0  0  0  0  0999 V2000
    2.8660   -0.2500    0.0000 Hg  0  0  0  0  0  0  0  0  0  0  0  0
    2.0000    0.2500    0.0000 Cl  0  0  0  0  0  0  0  0  0  0  0  0
    3.7320    0.2500    0.0000 C   0  0  0  0  0  0  0  0  0  0  0  0
    4.5981   -0.2500    0.0000 C   0  0  0  0  0  0  0  0  0  0  0  0
    4.1306    0.7249    0.0000 H   0  0  0  0  0  0  0  0  0  0  0  0
    3.3335    0.7249    0.0000 H   0  0  0  0  0  0  0  0  0  0  0  0
    4.2881   -0.7869    0.0000 H   0  0  0  0  0  0  0  0  0  0  0  0
    5.1350   -0.5600    0.0000 H   0  0  0  0  0  0  0  0  0  0  0  0
    4.9081    0.2869    0.0000 H   0  0  0  0  0  0  0  0  0  0  0  0
  1  2  1  0  0  0  0
  1  3  1  0  0  0  0
  3  4  1  0  0  0  0
  3  5  1  0  0  0  0
  3  6  1  0  0  0  0
  4  7  1  0  0  0  0
  4  8  1  0  0  0  0
  4  9  1  0  0  0  0
M  END
> <PUBCHEM_COMPOUND_CID>
7862

> <PUBCHEM_COMPOUND_CANONICALIZED>
1

> <PUBCHEM_CACTVS_COMPLEXITY>
10

> <PUBCHEM_CACTVS_HBOND_ACCEPTOR>
0

> <PUBCHEM_CACTVS_HBOND_DONOR>
0

> <PUBCHEM_CACTVS_ROTATABLE_BOND>
0

> <PUBCHEM_CACTVS_SUBSKEYS>
AAADcYBAAAAEAAAAAAAAAQAAAAAAAAAAAAAAAAAAAAAAAAAAAAAAGAAAAAAAAACAAAACAAAAAAAAAAAAAAAAAAAAAAAAAAAAAAAAAAAAAAAAAAAAAAAAAAAAAAAAAAAAAAAAAAAAAAAAAAAAAAAAAAAAAA==

> <PUBCHEM_IUPAC_OPENEYE_NAME>
chloro(ethyl)mercury

> <PUBCHEM_IUPAC_CAS_NAME>
chloro(ethyl)mercury

> <PUBCHEM_IUPAC_NAME>
chloro(ethyl)mercury

> <PUBCHEM_IUPAC_SYSTEMATIC_NAME>
chloranyl(ethyl)mercury

> <PUBCHEM_IUPAC_TRADITIONAL_NAME>
chloro(ethyl)mercury

> <PUBCHEM_IUPAC_INCHI>
InChI=1S/C2H5.ClH.Hg/c1-2;;/h1H2,2H3;1H;/q;;+1/p-1

> <PUBCHEM_IUPAC_INCHIKEY>
QWUGXIXRFGEYBD-UHFFFAOYSA-M

> <PUBCHEM_EXACT_MASS>
265.978621

> <PUBCHEM_MOLECULAR_FORMULA>
C2H5ClHg

> <PUBCHEM_MOLECULAR_WEIGHT>
265.1041

> <PUBCHEM_OPENEYE_CAN_SMILES>
CC[Hg]Cl

> <PUBCHEM_OPENEYE_ISO_SMILES>
CC[Hg]Cl

> <PUBCHEM_CACTVS_TPSA>
0

> <PUBCHEM_MONOISOTOPIC_WEIGHT>
265.978621

> <PUBCHEM_TOTAL_CHARGE>
0

> <PUBCHEM_HEAVY_ATOM_COUNT>
4

> <PUBCHEM_ATOM_DEF_STEREO_COUNT>
0

> <PUBCHEM_ATOM_UDEF_STEREO_COUNT>
0

> <PUBCHEM_BOND_DEF_STEREO_COUNT>
0

> <PUBCHEM_BOND_UDEF_STEREO_COUNT>
0

> <PUBCHEM_ISOTOPIC_ATOM_COUNT>
0

> <PUBCHEM_COMPONENT_COUNT>
1

> <PUBCHEM_CACTVS_TAUTO_COUNT>
1

> <PUBCHEM_COORDINATE_TYPE>
1
5
255

$$$$

