13259
  -OEChem-06261208132D

 30 31  0     0  0  0  0  0  0999 V2000
    2.0000    0.2270    0.0000 Br  0  0  0  0  0  0  0  0  0  0  0  0
    7.8120    1.3947    0.0000 N   0  0  0  0  0  0  0  0  0  0  0  0
    5.5443   -1.5777    0.0000 N   0  0  0  0  0  0  0  0  0  0  0  0
    6.8335    1.1885    0.0000 C   0  0  0  0  0  0  0  0  0  0  0  0
    5.8550    0.9823    0.0000 C   0  0  0  0  0  0  0  0  0  0  0  0
    5.5443    0.0318    0.0000 C   0  0  0  0  0  0  0  0  0  0  0  0
    4.5981   -0.2730    0.0000 C   0  0  0  0  0  0  0  0  0  0  0  0
    6.6272    2.1670    0.0000 C   0  0  0  0  0  0  0  0  0  0  0  0
    7.0397    0.2100    0.0000 C   0  0  0  0  0  0  0  0  0  0  0  0
    4.5981   -1.2730    0.0000 C   0  0  0  0  0  0  0  0  0  0  0  0
    6.1279   -0.7730    0.0000 C   0  0  0  0  0  0  0  0  0  0  0  0
    3.7320    0.2270    0.0000 C   0  0  0  0  0  0  0  0  0  0  0  0
    3.7320   -1.7730    0.0000 C   0  0  0  0  0  0  0  0  0  0  0  0
    2.8660   -0.2730    0.0000 C   0  0  0  0  0  0  0  0  0  0  0  0
    2.8660   -1.2730    0.0000 C   0  0  0  0  0  0  0  0  0  0  0  0
    5.8344    1.6020    0.0000 H   0  0  0  0  0  0  0  0  0  0  0  0
    5.2411    1.0696    0.0000 H   0  0  0  0  0  0  0  0  0  0  0  0
    7.2339    2.2949    0.0000 H   0  0  0  0  0  0  0  0  0  0  0  0
    6.4994    2.7737    0.0000 H   0  0  0  0  0  0  0  0  0  0  0  0
    6.0206    2.0392    0.0000 H   0  0  0  0  0  0  0  0  0  0  0  0
    6.4330    0.0821    0.0000 H   0  0  0  0  0  0  0  0  0  0  0  0
    7.1675   -0.3967    0.0000 H   0  0  0  0  0  0  0  0  0  0  0  0
    7.6464    0.3379    0.0000 H   0  0  0  0  0  0  0  0  0  0  0  0
    6.7479   -0.7730    0.0000 H   0  0  0  0  0  0  0  0  0  0  0  0
    8.0046    1.9840    0.0000 H   0  0  0  0  0  0  0  0  0  0  0  0
    8.2260    0.9333    0.0000 H   0  0  0  0  0  0  0  0  0  0  0  0
    5.7369   -2.1670    0.0000 H   0  0  0  0  0  0  0  0  0  0  0  0
    3.7320    0.8470    0.0000 H   0  0  0  0  0  0  0  0  0  0  0  0
    3.7320   -2.3930    0.0000 H   0  0  0  0  0  0  0  0  0  0  0  0
    2.3291   -1.5830    0.0000 H   0  0  0  0  0  0  0  0  0  0  0  0
  1 14  1  0  0  0  0
  2  4  1  0  0  0  0
  2 25  1  0  0  0  0
  2 26  1  0  0  0  0
  3 10  1  0  0  0  0
  3 11  1  0  0  0  0
  3 27  1  0  0  0  0
  4  5  1  0  0  0  0
  4  8  1  0  0  0  0
  4  9  1  0  0  0  0
  5  6  1  0  0  0  0
  5 16  1  0  0  0  0
  5 17  1  0  0  0  0
  6  7  1  0  0  0  0
  6 11  2  0  0  0  0
  7 10  2  0  0  0  0
  7 12  1  0  0  0  0
  8 18  1  0  0  0  0
  8 19  1  0  0  0  0
  8 20  1  0  0  0  0
  9 21  1  0  0  0  0
  9 22  1  0  0  0  0
  9 23  1  0  0  0  0
 10 13  1  0  0  0  0
 11 24  1  0  0  0  0
 12 14  2  0  0  0  0
 12 28  1  0  0  0  0
 13 15  2  0  0  0  0
 13 29  1  0  0  0  0
 14 15  1  0  0  0  0
 15 30  1  0  0  0  0
M  END
> <PUBCHEM_COMPOUND_CID>
13259

> <PUBCHEM_COMPOUND_CANONICALIZED>
1

> <PUBCHEM_CACTVS_COMPLEXITY>
230

> <PUBCHEM_CACTVS_HBOND_ACCEPTOR>
1

> <PUBCHEM_CACTVS_HBOND_DONOR>
2

> <PUBCHEM_CACTVS_ROTATABLE_BOND>
2

> <PUBCHEM_CACTVS_SUBSKEYS>
AAADccBzAAAAEAAAAAAAAAAAAAAAAWAAAAAwAAAAAAAAAFgB8AAAHABQAAABrIjBHgQ+wPLJkACgAzRnRACCgCAxAiQI2aA4ZLgIIOLAkZGEIAhgkADIyhcQgMAOgAAgEAACAAAAAEAgAAQAAAAAAAAAAA==

> <PUBCHEM_IUPAC_OPENEYE_NAME>
1-(5-bromo-1H-indol-3-yl)-2-methyl-propan-2-amine

> <PUBCHEM_IUPAC_CAS_NAME>
1-(5-bromo-1H-indol-3-yl)-2-methyl-2-propanamine

> <PUBCHEM_IUPAC_NAME>
1-(5-bromo-1H-indol-3-yl)-2-methylpropan-2-amine

> <PUBCHEM_IUPAC_SYSTEMATIC_NAME>
1-(5-bromanyl-1H-indol-3-yl)-2-methyl-propan-2-amine

> <PUBCHEM_IUPAC_TRADITIONAL_NAME>
[2-(5-bromo-1H-indol-3-yl)-1,1-dimethyl-ethyl]amine

> <PUBCHEM_IUPAC_INCHI>
InChI=1S/C12H15BrN2/c1-12(2,14)6-8-7-15-11-4-3-9(13)5-10(8)11/h3-5,7,15H,6,14H2,1-2H3

> <PUBCHEM_IUPAC_INCHIKEY>
IMBZTQWJYSRGPS-UHFFFAOYSA-N

> <PUBCHEM_XLOGP3>
1.9

> <PUBCHEM_EXACT_MASS>
266.041861

> <PUBCHEM_MOLECULAR_FORMULA>
C12H15BrN2

> <PUBCHEM_MOLECULAR_WEIGHT>
267.1649

> <PUBCHEM_OPENEYE_CAN_SMILES>
CC(C)(CC1=CNC2=C1C=C(C=C2)Br)N

> <PUBCHEM_OPENEYE_ISO_SMILES>
CC(C)(CC1=CNC2=C1C=C(C=C2)Br)N

> <PUBCHEM_CACTVS_TPSA>
41.8

> <PUBCHEM_MONOISOTOPIC_WEIGHT>
266.041861

> <PUBCHEM_TOTAL_CHARGE>
0

> <PUBCHEM_HEAVY_ATOM_COUNT>
15

> <PUBCHEM_ATOM_DEF_STEREO_COUNT>
0

> <PUBCHEM_ATOM_UDEF_STEREO_COUNT>
0

> <PUBCHEM_BOND_DEF_STEREO_COUNT>
0

> <PUBCHEM_BOND_UDEF_STEREO_COUNT>
0

> <PUBCHEM_ISOTOPIC_ATOM_COUNT>
0

> <PUBCHEM_COMPONENT_COUNT>
1

> <PUBCHEM_CACTVS_TAUTO_COUNT>
1

> <PUBCHEM_COORDINATE_TYPE>
1
5
255

> <PUBCHEM_BONDANNOTATIONS>
10  13  8
12  14  8
13  15  8
14  15  8
3  10  8
3  11  8
6  11  8
6  7  8
7  10  8
7  12  8

$$$$

