854282
  -OEChem-06241222472D

 34 36  0     0  0  0  0  0  0999 V2000
    5.4641    1.4400    0.0000 O   0  0  0  0  0  0  0  0  0  0  0  0
    7.1962   -1.5600    0.0000 O   0  0  0  0  0  0  0  0  0  0  0  0
    5.4641   -1.5600    0.0000 O   0  0  0  0  0  0  0  0  0  0  0  0
    7.1962    1.4400    0.0000 N   0  0  0  0  0  0  0  0  0  0  0  0
    4.5981   -0.0600    0.0000 N   0  0  0  0  0  0  0  0  0  0  0  0
    2.8660    1.9400    0.0000 N   0  0  0  0  0  0  0  0  0  0  0  0
    8.0622   -0.0600    0.0000 C   0  0  0  0  0  0  0  0  0  0  0  0
    8.0622    0.9400    0.0000 C   0  0  0  0  0  0  0  0  0  0  0  0
    6.3301   -0.0600    0.0000 C   0  0  0  0  0  0  0  0  0  0  0  0
    7.1962   -0.5600    0.0000 C   0  0  0  0  0  0  0  0  0  0  0  0
    6.3301    0.9400    0.0000 C   0  0  0  0  0  0  0  0  0  0  0  0
    8.9561   -0.5947    0.0000 C   0  0  0  0  0  0  0  0  0  0  0  0
    8.9561    1.4747    0.0000 C   0  0  0  0  0  0  0  0  0  0  0  0
    5.4641   -0.5600    0.0000 C   0  0  0  0  0  0  0  0  0  0  0  0
    9.8622   -0.0808    0.0000 C   0  0  0  0  0  0  0  0  0  0  0  0
    9.8622    0.9608    0.0000 C   0  0  0  0  0  0  0  0  0  0  0  0
    3.7320   -0.5600    0.0000 C   0  0  0  0  0  0  0  0  0  0  0  0
    2.8660   -0.0600    0.0000 C   0  0  0  0  0  0  0  0  0  0  0  0
    3.7320   -1.5600    0.0000 C   0  0  0  0  0  0  0  0  0  0  0  0
    2.0000   -0.5600    0.0000 C   0  0  0  0  0  0  0  0  0  0  0  0
    2.8660   -2.0600    0.0000 C   0  0  0  0  0  0  0  0  0  0  0  0
    2.0000   -1.5600    0.0000 C   0  0  0  0  0  0  0  0  0  0  0  0
    2.8660    0.9400    0.0000 C   0  0  0  0  0  0  0  0  0  0  0  0
    7.1962    2.0600    0.0000 H   0  0  0  0  0  0  0  0  0  0  0  0
    8.9490   -1.2146    0.0000 H   0  0  0  0  0  0  0  0  0  0  0  0
    8.9490    2.0946    0.0000 H   0  0  0  0  0  0  0  0  0  0  0  0
   10.3979   -0.3929    0.0000 H   0  0  0  0  0  0  0  0  0  0  0  0
   10.3979    1.2729    0.0000 H   0  0  0  0  0  0  0  0  0  0  0  0
    4.5981    0.5600    0.0000 H   0  0  0  0  0  0  0  0  0  0  0  0
    4.2690   -1.8700    0.0000 H   0  0  0  0  0  0  0  0  0  0  0  0
    5.4641    2.0600    0.0000 H   0  0  0  0  0  0  0  0  0  0  0  0
    1.4631   -0.2500    0.0000 H   0  0  0  0  0  0  0  0  0  0  0  0
    2.8660   -2.6800    0.0000 H   0  0  0  0  0  0  0  0  0  0  0  0
    1.4631   -1.8700    0.0000 H   0  0  0  0  0  0  0  0  0  0  0  0
  1 11  1  0  0  0  0
  1 31  1  0  0  0  0
  2 10  2  0  0  0  0
  3 14  2  0  0  0  0
  4  8  1  0  0  0  0
  4 11  1  0  0  0  0
  4 24  1  0  0  0  0
  5 14  1  0  0  0  0
  5 17  1  0  0  0  0
  5 29  1  0  0  0  0
  6 23  3  0  0  0  0
  7  8  1  0  0  0  0
  7 10  1  0  0  0  0
  7 12  2  0  0  0  0
  8 13  2  0  0  0  0
  9 10  1  0  0  0  0
  9 11  2  0  0  0  0
  9 14  1  0  0  0  0
 12 15  1  0  0  0  0
 12 25  1  0  0  0  0
 13 16  1  0  0  0  0
 13 26  1  0  0  0  0
 15 16  2  0  0  0  0
 15 27  1  0  0  0  0
 16 28  1  0  0  0  0
 17 18  1  0  0  0  0
 17 19  2  0  0  0  0
 18 20  2  0  0  0  0
 18 23  1  0  0  0  0
 19 21  1  0  0  0  0
 19 30  1  0  0  0  0
 20 22  1  0  0  0  0
 20 32  1  0  0  0  0
 21 22  2  0  0  0  0
 21 33  1  0  0  0  0
 22 34  1  0  0  0  0
M  END
> <PUBCHEM_COMPOUND_CID>
854282

> <PUBCHEM_COMPOUND_CANONICALIZED>
1

> <PUBCHEM_CACTVS_COMPLEXITY>
589

> <PUBCHEM_CACTVS_HBOND_ACCEPTOR>
5

> <PUBCHEM_CACTVS_HBOND_DONOR>
3

> <PUBCHEM_CACTVS_ROTATABLE_BOND>
2

> <PUBCHEM_CACTVS_SUBSKEYS>
AAADccB7MAAAAAAAAAAAAAAAAAAAAAAAAAAwYIAAAAAAAACBQAAAHgAQCAAADAyBmAAwwILAAgCYBqVSUACiAAAlIgAIiAEAZMkIoDrIlZGEIYhglADIyc8YiYCeAAAAAAACAAAAAAAAAAQAAAAAAAAAAA==

> <PUBCHEM_IUPAC_OPENEYE_NAME>
N-(2-cyanophenyl)-2-hydroxy-4-oxo-1H-quinoline-3-carboxamide

> <PUBCHEM_IUPAC_CAS_NAME>
N-(2-cyanophenyl)-2-hydroxy-4-oxo-1H-quinoline-3-carboxamide

> <PUBCHEM_IUPAC_NAME>
N-(2-cyanophenyl)-2-hydroxy-4-oxo-1H-quinoline-3-carboxamide

> <PUBCHEM_IUPAC_SYSTEMATIC_NAME>
N-(2-cyanophenyl)-2-oxidanyl-4-oxidanylidene-1H-quinoline-3-carboxamide

> <PUBCHEM_IUPAC_TRADITIONAL_NAME>
N-(2-cyanophenyl)-2-hydroxy-4-keto-1H-quinoline-3-carboxamide

> <PUBCHEM_IUPAC_INCHI>
InChI=1S/C17H11N3O3/c18-9-10-5-1-3-7-12(10)19-16(22)14-15(21)11-6-2-4-8-13(11)20-17(14)23/h1-8H,(H,19,22)(H2,20,21,23)

> <PUBCHEM_IUPAC_INCHIKEY>
PNPUNQBQVXTIBW-UHFFFAOYSA-N

> <PUBCHEM_XLOGP3_AA>
3.3

> <PUBCHEM_EXACT_MASS>
305.080041

> <PUBCHEM_MOLECULAR_FORMULA>
C17H11N3O3

> <PUBCHEM_MOLECULAR_WEIGHT>
305.28754

> <PUBCHEM_OPENEYE_CAN_SMILES>
C1=CC=C(C(=C1)C#N)NC(=O)C2=C(NC3=CC=CC=C3C2=O)O

> <PUBCHEM_OPENEYE_ISO_SMILES>
C1=CC=C(C(=C1)C#N)NC(=O)C2=C(NC3=CC=CC=C3C2=O)O

> <PUBCHEM_CACTVS_TPSA>
102

> <PUBCHEM_MONOISOTOPIC_WEIGHT>
305.080041

> <PUBCHEM_TOTAL_CHARGE>
0

> <PUBCHEM_HEAVY_ATOM_COUNT>
23

> <PUBCHEM_ATOM_DEF_STEREO_COUNT>
0

> <PUBCHEM_ATOM_UDEF_STEREO_COUNT>
0

> <PUBCHEM_BOND_DEF_STEREO_COUNT>
0

> <PUBCHEM_BOND_UDEF_STEREO_COUNT>
0

> <PUBCHEM_ISOTOPIC_ATOM_COUNT>
0

> <PUBCHEM_COMPONENT_COUNT>
1

> <PUBCHEM_CACTVS_TAUTO_COUNT>
36

> <PUBCHEM_COORDINATE_TYPE>
1
5
255

> <PUBCHEM_BONDANNOTATIONS>
12  15  8
13  16  8
15  16  8
17  18  8
17  19  8
18  20  8
19  21  8
20  22  8
21  22  8
4  11  8
4  8  8
7  10  8
7  12  8
7  8  8
8  13  8
9  10  8
9  11  8

$$$$

