11452
  -OEChem-06261205412D

 24 23  0     1  0  0  0  0  0999 V2000
    4.5981    1.5950    0.0000 As  0  0  3  0  0  0  0  0  0  0  0  0
    6.0981    2.4610    0.0000 Na  0  3  0  0  0  0  0  0  0  0  0  0
    4.5981    2.5950    0.0000 O   0  0  0  0  0  0  0  0  0  0  0  0
    5.5981    1.5950    0.0000 O   0  5  0  0  0  0  0  0  0  0  0  0
    3.5981    1.5950    0.0000 O   0  0  0  0  0  0  0  0  0  0  0  0
    3.7321   -2.9050    0.0000 O   0  0  0  0  0  0  0  0  0  0  0  0
    2.8660   -1.4050    0.0000 N   0  0  0  0  0  0  0  0  0  0  0  0
    4.5981    0.5950    0.0000 C   0  0  0  0  0  0  0  0  0  0  0  0
    3.7321   -0.9050    0.0000 C   0  0  0  0  0  0  0  0  0  0  0  0
    3.7321    0.0950    0.0000 C   0  0  0  0  0  0  0  0  0  0  0  0
    5.4641    0.0950    0.0000 C   0  0  0  0  0  0  0  0  0  0  0  0
    4.5981   -1.4050    0.0000 C   0  0  0  0  0  0  0  0  0  0  0  0
    5.4641   -0.9050    0.0000 C   0  0  0  0  0  0  0  0  0  0  0  0
    2.8660   -2.4050    0.0000 C   0  0  0  0  0  0  0  0  0  0  0  0
    2.0000   -2.9050    0.0000 C   0  0  0  0  0  0  0  0  0  0  0  0
    3.1951    0.4050    0.0000 H   0  0  0  0  0  0  0  0  0  0  0  0
    6.0010    0.4050    0.0000 H   0  0  0  0  0  0  0  0  0  0  0  0
    4.5981   -2.0250    0.0000 H   0  0  0  0  0  0  0  0  0  0  0  0
    6.0010   -1.2150    0.0000 H   0  0  0  0  0  0  0  0  0  0  0  0
    2.3291   -1.0950    0.0000 H   0  0  0  0  0  0  0  0  0  0  0  0
    1.4631   -3.2150    0.0000 H   0  0  0  0  0  0  0  0  0  0  0  0
    2.3100   -3.4419    0.0000 H   0  0  0  0  0  0  0  0  0  0  0  0
    1.6900   -2.3681    0.0000 H   0  0  0  0  0  0  0  0  0  0  0  0
    5.1350    2.9050    0.0000 H   0  0  0  0  0  0  0  0  0  0  0  0
  1  3  1  0  0  0  0
  1  4  1  0  0  0  0
  1  5  2  0  0  0  0
  1  8  1  0  0  0  0
  3 24  1  0  0  0  0
  6 14  2  0  0  0  0
  7  9  1  0  0  0  0
  7 14  1  0  0  0  0
  7 20  1  0  0  0  0
  8 10  1  0  0  0  0
  8 11  2  0  0  0  0
  9 10  2  0  0  0  0
  9 12  1  0  0  0  0
 10 16  1  0  0  0  0
 11 13  1  0  0  0  0
 11 17  1  0  0  0  0
 12 13  2  0  0  0  0
 12 18  1  0  0  0  0
 13 19  1  0  0  0  0
 14 15  1  0  0  0  0
 15 21  1  0  0  0  0
 15 22  1  0  0  0  0
 15 23  1  0  0  0  0
M  CHG  2   2   1   4  -1
M  END
> <PUBCHEM_COMPOUND_CID>
11452

> <PUBCHEM_COMPOUND_CANONICALIZED>
1

> <PUBCHEM_CACTVS_COMPLEXITY>
260

> <PUBCHEM_CACTVS_HBOND_ACCEPTOR>
4

> <PUBCHEM_CACTVS_HBOND_DONOR>
2

> <PUBCHEM_CACTVS_ROTATABLE_BOND>
2

> <PUBCHEM_CACTVS_SUBSKEYS>
AAADccByOCAAAAAAQAAAAAAAAAAAAAAAAAAwAAAAAAAAAAABAAAAHgEQCAAACAiBkAAywILAAACIACVSUACCAAAhAgCIjAAAZIgIICLAkZGEIBhglADIyAcQAAAAAAAAAAAAAAAAAAAAAAAAAAAAAAAAAA==

> <PUBCHEM_IUPAC_OPENEYE_NAME>
sodium (3-acetamidophenyl)-hydroxy-arsinate

> <PUBCHEM_IUPAC_CAS_NAME>
sodium (3-acetamidophenyl)-hydroxyarsinate

> <PUBCHEM_IUPAC_NAME>
sodium (3-acetamidophenyl)-hydroxyarsinate

> <PUBCHEM_IUPAC_SYSTEMATIC_NAME>
sodium (3-acetamidophenyl)-oxidanyl-arsinate

> <PUBCHEM_IUPAC_TRADITIONAL_NAME>
sodium (3-acetamidophenyl)-hydroxy-arsinate

> <PUBCHEM_IUPAC_INCHI>
InChI=1S/C8H10AsNO4.Na/c1-6(11)10-8-4-2-3-7(5-8)9(12,13)14;/h2-5H,1H3,(H,10,11)(H2,12,13,14);/q;+1/p-1

> <PUBCHEM_IUPAC_INCHIKEY>
ZJJFOTCYYMAOMX-UHFFFAOYSA-M

> <PUBCHEM_EXACT_MASS>
280.964524

> <PUBCHEM_MOLECULAR_FORMULA>
C8H9AsNNaO4

> <PUBCHEM_MOLECULAR_WEIGHT>
281.072729

> <PUBCHEM_OPENEYE_CAN_SMILES>
CC(=O)NC1=CC(=CC=C1)[As](=O)(O)[O-].[Na+]

> <PUBCHEM_OPENEYE_ISO_SMILES>
CC(=O)NC1=CC(=CC=C1)[As](=O)(O)[O-].[Na+]

> <PUBCHEM_CACTVS_TPSA>
89.5

> <PUBCHEM_MONOISOTOPIC_WEIGHT>
280.964524

> <PUBCHEM_TOTAL_CHARGE>
0

> <PUBCHEM_HEAVY_ATOM_COUNT>
15

> <PUBCHEM_ATOM_DEF_STEREO_COUNT>
0

> <PUBCHEM_ATOM_UDEF_STEREO_COUNT>
0

> <PUBCHEM_BOND_DEF_STEREO_COUNT>
0

> <PUBCHEM_BOND_UDEF_STEREO_COUNT>
0

> <PUBCHEM_ISOTOPIC_ATOM_COUNT>
0

> <PUBCHEM_COMPONENT_COUNT>
2

> <PUBCHEM_CACTVS_TAUTO_COUNT>
2

> <PUBCHEM_COORDINATE_TYPE>
1
5
255

> <PUBCHEM_BONDANNOTATIONS>
11  13  8
12  13  8
8  10  8
8  11  8
9  10  8
9  12  8

$$$$

