14000
  -OEChem-06241222412D

 67 69  0     1  0  0  0  0  0999 V2000
    9.8349    1.4087    0.0000 O   0  0  0  0  0  0  0  0  0  0  0  0
    9.4778    3.1035    0.0000 O   0  0  0  0  0  0  0  0  0  0  0  0
   12.7239    4.6727    0.0000 O   0  0  0  0  0  0  0  0  0  0  0  0
   13.4383    1.2831    0.0000 O   0  0  0  0  0  0  0  0  0  0  0  0
   14.0596    3.1841    0.0000 O   0  0  0  0  0  0  0  0  0  0  0  0
    6.2781   -1.1110    0.0000 N   0  0  3  0  0  0  0  0  0  0  0  0
    4.6783   -4.8277    0.0000 N   0  0  0  0  0  0  0  0  0  0  0  0
    5.9674   -2.0615    0.0000 C   0  0  0  0  0  0  0  0  0  0  0  0
    7.2566   -0.9048    0.0000 C   0  0  0  0  0  0  0  0  0  0  0  0
    4.9889   -2.2677    0.0000 C   0  0  0  0  0  0  0  0  0  0  0  0
    7.5673    0.0458    0.0000 C   0  0  0  0  0  0  0  0  0  0  0  0
    4.6783   -3.2182    0.0000 C   0  0  0  0  0  0  0  0  0  0  0  0
    5.6103   -0.3667    0.0000 C   0  0  0  0  0  0  0  0  0  0  0  0
    8.5458    0.2520    0.0000 C   0  0  0  0  0  0  0  0  0  0  0  0
    3.7320   -3.5230    0.0000 C   0  0  0  0  0  0  0  0  0  0  0  0
    3.7320   -4.5230    0.0000 C   0  0  0  0  0  0  0  0  0  0  0  0
    5.2619   -4.0230    0.0000 C   0  0  0  0  0  0  0  0  0  0  0  0
    5.9209    0.5838    0.0000 C   0  0  0  0  0  0  0  0  0  0  0  0
    8.8564    1.2025    0.0000 C   0  0  0  0  0  0  0  0  0  0  0  0
    2.8660   -3.0230    0.0000 C   0  0  0  0  0  0  0  0  0  0  0  0
    2.8660   -5.0230    0.0000 C   0  0  0  0  0  0  0  0  0  0  0  0
    2.0000   -3.5230    0.0000 C   0  0  0  0  0  0  0  0  0  0  0  0
    2.0000   -4.5230    0.0000 C   0  0  0  0  0  0  0  0  0  0  0  0
   10.1456    2.3592    0.0000 C   0  0  0  0  0  0  0  0  0  0  0  0
   11.1241    2.5655    0.0000 C   0  0  0  0  0  0  0  0  0  0  0  0
   11.7920    1.8212    0.0000 C   0  0  0  0  0  0  0  0  0  0  0  0
   11.4348    3.5160    0.0000 C   0  0  0  0  0  0  0  0  0  0  0  0
   12.4133    3.7222    0.0000 C   0  0  0  0  0  0  0  0  0  0  0  0
   12.7705    2.0274    0.0000 C   0  0  0  0  0  0  0  0  0  0  0  0
   13.0811    2.9779    0.0000 C   0  0  0  0  0  0  0  0  0  0  0  0
   12.0561    5.4170    0.0000 C   0  0  0  0  0  0  0  0  0  0  0  0
   13.1276    0.3326    0.0000 C   0  0  0  0  0  0  0  0  0  0  0  0
   14.3703    4.1346    0.0000 C   0  0  0  0  0  0  0  0  0  0  0  0
    5.9880   -2.6812    0.0000 H   0  0  0  0  0  0  0  0  0  0  0  0
    6.5812   -2.1488    0.0000 H   0  0  0  0  0  0  0  0  0  0  0  0
    7.2772   -1.5244    0.0000 H   0  0  0  0  0  0  0  0  0  0  0  0
    7.8704   -0.9921    0.0000 H   0  0  0  0  0  0  0  0  0  0  0  0
    4.9684   -1.6481    0.0000 H   0  0  0  0  0  0  0  0  0  0  0  0
    4.3751   -2.1804    0.0000 H   0  0  0  0  0  0  0  0  0  0  0  0
    7.5467    0.6654    0.0000 H   0  0  0  0  0  0  0  0  0  0  0  0
    6.9534    0.1331    0.0000 H   0  0  0  0  0  0  0  0  0  0  0  0
    5.0633   -0.0747    0.0000 H   0  0  0  0  0  0  0  0  0  0  0  0
    5.2277   -0.8546    0.0000 H   0  0  0  0  0  0  0  0  0  0  0  0
    8.5663   -0.3677    0.0000 H   0  0  0  0  0  0  0  0  0  0  0  0
    9.1596    0.1646    0.0000 H   0  0  0  0  0  0  0  0  0  0  0  0
    5.8819   -4.0230    0.0000 H   0  0  0  0  0  0  0  0  0  0  0  0
    6.5102    0.3912    0.0000 H   0  0  0  0  0  0  0  0  0  0  0  0
    6.1135    1.1732    0.0000 H   0  0  0  0  0  0  0  0  0  0  0  0
    5.3316    0.7765    0.0000 H   0  0  0  0  0  0  0  0  0  0  0  0
    8.8359    1.8222    0.0000 H   0  0  0  0  0  0  0  0  0  0  0  0
    8.2426    1.2898    0.0000 H   0  0  0  0  0  0  0  0  0  0  0  0
    4.8709   -5.4170    0.0000 H   0  0  0  0  0  0  0  0  0  0  0  0
    2.8660   -2.4030    0.0000 H   0  0  0  0  0  0  0  0  0  0  0  0
    2.8660   -5.6430    0.0000 H   0  0  0  0  0  0  0  0  0  0  0  0
    1.4631   -3.2130    0.0000 H   0  0  0  0  0  0  0  0  0  0  0  0
    1.4631   -4.8330    0.0000 H   0  0  0  0  0  0  0  0  0  0  0  0
   11.5993    1.2318    0.0000 H   0  0  0  0  0  0  0  0  0  0  0  0
   11.0207    3.9774    0.0000 H   0  0  0  0  0  0  0  0  0  0  0  0
   12.5176    5.8311    0.0000 H   0  0  0  0  0  0  0  0  0  0  0  0
   11.6420    5.8785    0.0000 H   0  0  0  0  0  0  0  0  0  0  0  0
   11.5946    5.0030    0.0000 H   0  0  0  0  0  0  0  0  0  0  0  0
   12.5383    0.5252    0.0000 H   0  0  0  0  0  0  0  0  0  0  0  0
   12.9350   -0.2568    0.0000 H   0  0  0  0  0  0  0  0  0  0  0  0
   13.7170    0.1399    0.0000 H   0  0  0  0  0  0  0  0  0  0  0  0
   14.9596    3.9420    0.0000 H   0  0  0  0  0  0  0  0  0  0  0  0
   14.5629    4.7240    0.0000 H   0  0  0  0  0  0  0  0  0  0  0  0
   13.7810    4.3272    0.0000 H   0  0  0  0  0  0  0  0  0  0  0  0
  1 19  1  0  0  0  0
  1 24  1  0  0  0  0
  2 24  2  0  0  0  0
  3 28  1  0  0  0  0
  3 31  1  0  0  0  0
  4 29  1  0  0  0  0
  4 32  1  0  0  0  0
  5 30  1  0  0  0  0
  5 33  1  0  0  0  0
  6  8  1  0  0  0  0
  6  9  1  0  0  0  0
  6 13  1  0  0  0  0
  7 16  1  0  0  0  0
  7 17  1  0  0  0  0
  7 52  1  0  0  0  0
  8 10  1  0  0  0  0
  8 34  1  0  0  0  0
  8 35  1  0  0  0  0
  9 11  1  0  0  0  0
  9 36  1  0  0  0  0
  9 37  1  0  0  0  0
 10 12  1  0  0  0  0
 10 38  1  0  0  0  0
 10 39  1  0  0  0  0
 11 14  1  0  0  0  0
 11 40  1  0  0  0  0
 11 41  1  0  0  0  0
 12 15  1  0  0  0  0
 12 17  2  0  0  0  0
 13 18  1  0  0  0  0
 13 42  1  0  0  0  0
 13 43  1  0  0  0  0
 14 19  1  0  0  0  0
 14 44  1  0  0  0  0
 14 45  1  0  0  0  0
 15 16  1  0  0  0  0
 15 20  2  0  0  0  0
 16 21  2  0  0  0  0
 17 46  1  0  0  0  0
 18 47  1  0  0  0  0
 18 48  1  0  0  0  0
 18 49  1  0  0  0  0
 19 50  1  0  0  0  0
 19 51  1  0  0  0  0
 20 22  1  0  0  0  0
 20 53  1  0  0  0  0
 21 23  1  0  0  0  0
 21 54  1  0  0  0  0
 22 23  2  0  0  0  0
 22 55  1  0  0  0  0
 23 56  1  0  0  0  0
 24 25  1  0  0  0  0
 25 26  2  0  0  0  0
 25 27  1  0  0  0  0
 26 29  1  0  0  0  0
 26 57  1  0  0  0  0
 27 28  2  0  0  0  0
 27 58  1  0  0  0  0
 28 30  1  0  0  0  0
 29 30  2  0  0  0  0
 31 59  1  0  0  0  0
 31 60  1  0  0  0  0
 31 61  1  0  0  0  0
 32 62  1  0  0  0  0
 32 63  1  0  0  0  0
 32 64  1  0  0  0  0
 33 65  1  0  0  0  0
 33 66  1  0  0  0  0
 33 67  1  0  0  0  0
M  END
> <PUBCHEM_COMPOUND_CID>
14000

> <PUBCHEM_COMPOUND_CANONICALIZED>
1

> <PUBCHEM_CACTVS_COMPLEXITY>
563

> <PUBCHEM_CACTVS_HBOND_ACCEPTOR>
6

> <PUBCHEM_CACTVS_HBOND_DONOR>
1

> <PUBCHEM_CACTVS_ROTATABLE_BOND>
14

> <PUBCHEM_CACTVS_SUBSKEYS>
AAADcfB7OAAAAAAAAAAAAAAAAAAAAWAAAAAwYAAAAAAAAFgB9AAAHgAQAAAADAzhngY+zvPJlACoAzT3TACCiCA1IiAI2aE+7NgNJ/LEtZuGMSpl0BXK6Yf67PzOoAABCAACQABAAAIQAASAAAAAAAAAAA==

> <PUBCHEM_IUPAC_OPENEYE_NAME>
4-[ethyl-[2-(1H-indol-3-yl)ethyl]amino]butyl 3,4,5-trimethoxybenzoate

> <PUBCHEM_IUPAC_CAS_NAME>
3,4,5-trimethoxybenzoic acid 4-[ethyl-[2-(1H-indol-3-yl)ethyl]amino]butyl ester

> <PUBCHEM_IUPAC_NAME>
4-[ethyl-[2-(1H-indol-3-yl)ethyl]amino]butyl 3,4,5-trimethoxybenzoate

> <PUBCHEM_IUPAC_SYSTEMATIC_NAME>
4-[ethyl-[2-(1H-indol-3-yl)ethyl]amino]butyl 3,4,5-trimethoxybenzoate

> <PUBCHEM_IUPAC_TRADITIONAL_NAME>
3,4,5-trimethoxybenzoic acid 4-[ethyl-[2-(1H-indol-3-yl)ethyl]amino]butyl ester

> <PUBCHEM_IUPAC_INCHI>
InChI=1S/C26H34N2O5/c1-5-28(14-12-19-18-27-22-11-7-6-10-21(19)22)13-8-9-15-33-26(29)20-16-23(30-2)25(32-4)24(17-20)31-3/h6-7,10-11,16-18,27H,5,8-9,12-15H2,1-4H3

> <PUBCHEM_IUPAC_INCHIKEY>
VMXIQTHYNDPIGK-UHFFFAOYSA-N

> <PUBCHEM_XLOGP3_AA>
4.9

> <PUBCHEM_EXACT_MASS>
454.246772

> <PUBCHEM_MOLECULAR_FORMULA>
C26H34N2O5

> <PUBCHEM_MOLECULAR_WEIGHT>
454.55856

> <PUBCHEM_OPENEYE_CAN_SMILES>
CCN(CCCCOC(=O)C1=CC(=C(C(=C1)OC)OC)OC)CCC2=CNC3=CC=CC=C32

> <PUBCHEM_OPENEYE_ISO_SMILES>
CCN(CCCCOC(=O)C1=CC(=C(C(=C1)OC)OC)OC)CCC2=CNC3=CC=CC=C32

> <PUBCHEM_CACTVS_TPSA>
73

> <PUBCHEM_MONOISOTOPIC_WEIGHT>
454.246772

> <PUBCHEM_TOTAL_CHARGE>
0

> <PUBCHEM_HEAVY_ATOM_COUNT>
33

> <PUBCHEM_ATOM_DEF_STEREO_COUNT>
0

> <PUBCHEM_ATOM_UDEF_STEREO_COUNT>
0

> <PUBCHEM_BOND_DEF_STEREO_COUNT>
0

> <PUBCHEM_BOND_UDEF_STEREO_COUNT>
0

> <PUBCHEM_ISOTOPIC_ATOM_COUNT>
0

> <PUBCHEM_COMPONENT_COUNT>
1

> <PUBCHEM_CACTVS_TAUTO_COUNT>
1

> <PUBCHEM_COORDINATE_TYPE>
1
5
255

> <PUBCHEM_BONDANNOTATIONS>
12  15  8
12  17  8
15  16  8
15  20  8
16  21  8
20  22  8
21  23  8
22  23  8
25  26  8
25  27  8
26  29  8
27  28  8
28  30  8
29  30  8
7  16  8
7  17  8

$$$$

