13840
  -OEChem-06241222402D

 32 30  0     0  0  0  0  0  0999 V2000
    4.6171    0.0000    0.0000 Cl  0  5  0  0  0  0  0  0  0  0  0  0
    8.3312    3.5369    0.0000 S   0  0  0  0  0  0  0  0  0  0  0  0
    1.4030    3.5369    0.0000 S   0  0  0  0  0  0  0  0  0  0  0  0
    7.4651    4.0369    0.0000 O   0  0  0  0  0  0  0  0  0  0  0  0
    2.2690    3.0369    0.0000 O   0  0  0  0  0  0  0  0  0  0  0  0
    8.8312    4.4030    0.0000 O   0  0  0  0  0  0  0  0  0  0  0  0
    7.8312    2.6709    0.0000 O   0  0  0  0  0  0  0  0  0  0  0  0
    0.9030    2.6709    0.0000 O   0  0  0  0  0  0  0  0  0  0  0  0
    1.9030    4.4030    0.0000 O   0  0  0  0  0  0  0  0  0  0  0  0
    4.8671    3.5369    0.0000 N   0  3  0  0  0  0  0  0  0  0  0  0
    5.7331    4.0369    0.0000 C   0  0  0  0  0  0  0  0  0  0  0  0
    4.0010    3.0369    0.0000 C   0  0  0  0  0  0  0  0  0  0  0  0
    6.5991    3.5369    0.0000 C   0  0  0  0  0  0  0  0  0  0  0  0
    3.1350    3.5369    0.0000 C   0  0  0  0  0  0  0  0  0  0  0  0
    9.1972    3.0369    0.0000 C   0  0  0  0  0  0  0  0  0  0  0  0
    0.5369    4.0369    0.0000 C   0  0  0  0  0  0  0  0  0  0  0  0
    4.5571    4.0739    0.0000 H   0  0  0  0  0  0  0  0  0  0  0  0
    5.1771    3.0000    0.0000 H   0  0  0  0  0  0  0  0  0  0  0  0
    6.1316    4.5119    0.0000 H   0  0  0  0  0  0  0  0  0  0  0  0
    5.3346    4.5119    0.0000 H   0  0  0  0  0  0  0  0  0  0  0  0
    3.6025    2.5620    0.0000 H   0  0  0  0  0  0  0  0  0  0  0  0
    4.3996    2.5620    0.0000 H   0  0  0  0  0  0  0  0  0  0  0  0
    6.2006    3.0620    0.0000 H   0  0  0  0  0  0  0  0  0  0  0  0
    6.9976    3.0620    0.0000 H   0  0  0  0  0  0  0  0  0  0  0  0
    3.5335    4.0119    0.0000 H   0  0  0  0  0  0  0  0  0  0  0  0
    2.7365    4.0119    0.0000 H   0  0  0  0  0  0  0  0  0  0  0  0
    8.8872    2.5000    0.0000 H   0  0  0  0  0  0  0  0  0  0  0  0
    9.7341    2.7269    0.0000 H   0  0  0  0  0  0  0  0  0  0  0  0
    9.5072    3.5739    0.0000 H   0  0  0  0  0  0  0  0  0  0  0  0
    0.8469    4.5739    0.0000 H   0  0  0  0  0  0  0  0  0  0  0  0
    0.0000    4.3469    0.0000 H   0  0  0  0  0  0  0  0  0  0  0  0
    0.2269    3.5000    0.0000 H   0  0  0  0  0  0  0  0  0  0  0  0
  2  4  1  0  0  0  0
  2  6  2  0  0  0  0
  2  7  2  0  0  0  0
  2 15  1  0  0  0  0
  3  5  1  0  0  0  0
  3  8  2  0  0  0  0
  3  9  2  0  0  0  0
  3 16  1  0  0  0  0
  4 13  1  0  0  0  0
  5 14  1  0  0  0  0
 10 11  1  0  0  0  0
 10 12  1  0  0  0  0
 10 17  1  0  0  0  0
 10 18  1  0  0  0  0
 11 13  1  0  0  0  0
 11 19  1  0  0  0  0
 11 20  1  0  0  0  0
 12 14  1  0  0  0  0
 12 21  1  0  0  0  0
 12 22  1  0  0  0  0
 13 23  1  0  0  0  0
 13 24  1  0  0  0  0
 14 25  1  0  0  0  0
 14 26  1  0  0  0  0
 15 27  1  0  0  0  0
 15 28  1  0  0  0  0
 15 29  1  0  0  0  0
 16 30  1  0  0  0  0
 16 31  1  0  0  0  0
 16 32  1  0  0  0  0
M  CHG  2   1  -1  10   1
M  END
> <PUBCHEM_COMPOUND_CID>
13840

> <PUBCHEM_COMPOUND_CANONICALIZED>
1

> <PUBCHEM_CACTVS_COMPLEXITY>
312

> <PUBCHEM_CACTVS_HBOND_ACCEPTOR>
7

> <PUBCHEM_CACTVS_HBOND_DONOR>
1

> <PUBCHEM_CACTVS_ROTATABLE_BOND>
8

> <PUBCHEM_CACTVS_SUBSKEYS>
AAADceBiOABkAAAAAAAAAAAAAAAAAAAAAAAAAAAAAAAAAAAAAAAAHgQQAAAAAADhgAaCAALAAAIAAAAAAHAAAAAAAAAAAIAIAAACAAAAAAAAAAAAEACQAAAAAAAAAAAAAAAAAAAAAAAAAAAAAAAAAAAAAA==

> <PUBCHEM_IUPAC_OPENEYE_NAME>
bis(2-methylsulfonyloxyethyl)ammonium chloride

> <PUBCHEM_IUPAC_CAS_NAME>
bis(2-methylsulfonyloxyethyl)ammonium chloride

> <PUBCHEM_IUPAC_NAME>
bis(2-methylsulfonyloxyethyl)azanium chloride

> <PUBCHEM_IUPAC_SYSTEMATIC_NAME>
bis(2-methylsulfonyloxyethyl)azanium chloride

> <PUBCHEM_IUPAC_TRADITIONAL_NAME>
bis(2-methylsulfonyloxyethyl)ammonium chloride

> <PUBCHEM_IUPAC_INCHI>
InChI=1S/C6H15NO6S2.ClH/c1-14(8,9)12-5-3-7-4-6-13-15(2,10)11;/h7H,3-6H2,1-2H3;1H

> <PUBCHEM_IUPAC_INCHIKEY>
UPORJNYUHRVAQG-UHFFFAOYSA-N

> <PUBCHEM_EXACT_MASS>
297.010757

> <PUBCHEM_MOLECULAR_FORMULA>
C6H16ClNO6S2

> <PUBCHEM_MOLECULAR_WEIGHT>
297.77734

> <PUBCHEM_OPENEYE_CAN_SMILES>
CS(=O)(=O)OCC[NH2+]CCOS(=O)(=O)C.[Cl-]

> <PUBCHEM_OPENEYE_ISO_SMILES>
CS(=O)(=O)OCC[NH2+]CCOS(=O)(=O)C.[Cl-]

> <PUBCHEM_CACTVS_TPSA>
120

> <PUBCHEM_MONOISOTOPIC_WEIGHT>
297.010757

> <PUBCHEM_TOTAL_CHARGE>
0

> <PUBCHEM_HEAVY_ATOM_COUNT>
16

> <PUBCHEM_ATOM_DEF_STEREO_COUNT>
0

> <PUBCHEM_ATOM_UDEF_STEREO_COUNT>
0

> <PUBCHEM_BOND_DEF_STEREO_COUNT>
0

> <PUBCHEM_BOND_UDEF_STEREO_COUNT>
0

> <PUBCHEM_ISOTOPIC_ATOM_COUNT>
0

> <PUBCHEM_COMPONENT_COUNT>
2

> <PUBCHEM_CACTVS_TAUTO_COUNT>
1

> <PUBCHEM_COORDINATE_TYPE>
1
5
255

$$$$

