17395360
  -OEChem-06241222492D

 38 40  0     0  0  0  0  0  0999 V2000
    6.9100    0.4241    0.0000 S   0  0  0  0  0  0  0  0  0  0  0  0
    3.4945    1.2455    0.0000 S   0  0  0  0  0  0  0  0  0  0  0  0
    6.9380   -0.8546    0.0000 O   0  0  0  0  0  0  0  0  0  0  0  0
    5.0079   -0.1939    0.0000 O   0  0  0  0  0  0  0  0  0  0  0  0
    8.6701    0.1454    0.0000 N   0  0  0  0  0  0  0  0  0  0  0  0
    8.1701    1.6842    0.0000 N   0  0  0  0  0  0  0  0  0  0  0  0
    9.1701    1.6842    0.0000 N   0  0  0  0  0  0  0  0  0  0  0  0
    8.6701   -0.8546    0.0000 C   0  0  0  0  0  0  0  0  0  0  0  0
    7.8041   -1.3546    0.0000 C   0  0  0  0  0  0  0  0  0  0  0  0
    7.8611    0.7332    0.0000 C   0  0  0  0  0  0  0  0  0  0  0  0
    9.5361   -1.3546    0.0000 C   0  0  0  0  0  0  0  0  0  0  0  0
    6.1669    1.0933    0.0000 C   0  0  0  0  0  0  0  0  0  0  0  0
    4.4727    1.4534    0.0000 C   0  0  0  0  0  0  0  0  0  0  0  0
    5.2158    0.7842    0.0000 C   0  0  0  0  0  0  0  0  0  0  0  0
    9.4791    0.7332    0.0000 C   0  0  0  0  0  0  0  0  0  0  0  0
    7.8041   -2.3546    0.0000 C   0  0  0  0  0  0  0  0  0  0  0  0
    9.5361   -2.3546    0.0000 C   0  0  0  0  0  0  0  0  0  0  0  0
    2.9945    2.1115    0.0000 C   0  0  0  0  0  0  0  0  0  0  0  0
    4.5772    2.4479    0.0000 C   0  0  0  0  0  0  0  0  0  0  0  0
    8.6701   -2.8546    0.0000 C   0  0  0  0  0  0  0  0  0  0  0  0
    3.6636    2.8546    0.0000 C   0  0  0  0  0  0  0  0  0  0  0  0
    2.0000    2.2160    0.0000 C   0  0  0  0  0  0  0  0  0  0  0  0
    6.0720   -1.3546    0.0000 C   0  0  0  0  0  0  0  0  0  0  0  0
   10.0731   -1.0446    0.0000 H   0  0  0  0  0  0  0  0  0  0  0  0
    6.6554    1.4750    0.0000 H   0  0  0  0  0  0  0  0  0  0  0  0
    5.8758    1.6407    0.0000 H   0  0  0  0  0  0  0  0  0  0  0  0
   10.0688    0.5416    0.0000 H   0  0  0  0  0  0  0  0  0  0  0  0
    7.2671   -2.6646    0.0000 H   0  0  0  0  0  0  0  0  0  0  0  0
   10.0731   -2.6646    0.0000 H   0  0  0  0  0  0  0  0  0  0  0  0
    5.1141    2.7579    0.0000 H   0  0  0  0  0  0  0  0  0  0  0  0
    8.6701   -3.4746    0.0000 H   0  0  0  0  0  0  0  0  0  0  0  0
    3.5348    3.4611    0.0000 H   0  0  0  0  0  0  0  0  0  0  0  0
    2.0648    2.8326    0.0000 H   0  0  0  0  0  0  0  0  0  0  0  0
    1.3834    2.2808    0.0000 H   0  0  0  0  0  0  0  0  0  0  0  0
    1.9352    1.5994    0.0000 H   0  0  0  0  0  0  0  0  0  0  0  0
    5.7620   -0.8177    0.0000 H   0  0  0  0  0  0  0  0  0  0  0  0
    5.5351   -1.6646    0.0000 H   0  0  0  0  0  0  0  0  0  0  0  0
    6.3820   -1.8916    0.0000 H   0  0  0  0  0  0  0  0  0  0  0  0
  1 10  1  0  0  0  0
  1 12  1  0  0  0  0
  2 13  1  0  0  0  0
  2 18  1  0  0  0  0
  3  9  1  0  0  0  0
  3 23  1  0  0  0  0
  4 14  2  0  0  0  0
  5  8  1  0  0  0  0
  5 10  1  0  0  0  0
  5 15  1  0  0  0  0
  6  7  1  0  0  0  0
  6 10  2  0  0  0  0
  7 15  2  0  0  0  0
  8  9  1  0  0  0  0
  8 11  2  0  0  0  0
  9 16  2  0  0  0  0
 11 17  1  0  0  0  0
 11 24  1  0  0  0  0
 12 14  1  0  0  0  0
 12 25  1  0  0  0  0
 12 26  1  0  0  0  0
 13 14  1  0  0  0  0
 13 19  2  0  0  0  0
 15 27  1  0  0  0  0
 16 20  1  0  0  0  0
 16 28  1  0  0  0  0
 17 20  2  0  0  0  0
 17 29  1  0  0  0  0
 18 21  2  0  0  0  0
 18 22  1  0  0  0  0
 19 21  1  0  0  0  0
 19 30  1  0  0  0  0
 20 31  1  0  0  0  0
 21 32  1  0  0  0  0
 22 33  1  0  0  0  0
 22 34  1  0  0  0  0
 22 35  1  0  0  0  0
 23 36  1  0  0  0  0
 23 37  1  0  0  0  0
 23 38  1  0  0  0  0
M  END
> <PUBCHEM_COMPOUND_CID>
17395360

> <PUBCHEM_COMPOUND_CANONICALIZED>
1

> <PUBCHEM_CACTVS_COMPLEXITY>
413

> <PUBCHEM_CACTVS_HBOND_ACCEPTOR>
6

> <PUBCHEM_CACTVS_HBOND_DONOR>
0

> <PUBCHEM_CACTVS_ROTATABLE_BOND>
6

> <PUBCHEM_CACTVS_SUBSKEYS>
AAADccB7MABgAAAAAAAAAAAAAAAAAWJAAAAwAAAAAAAAAAAB8AAAHgQIAAAACAyF0Aa314cMFAiuAKRTZACTWKt1qpBNyBkPbMiOLjLkvZuFMShkwBN46aeYyAAAAAAAAAAAEAAAAAAAAAAgAAAAAAAAAA==

> <PUBCHEM_IUPAC_OPENEYE_NAME>
2-[[4-(2-methoxyphenyl)-1,2,4-triazol-3-yl]sulfanyl]-1-(5-methyl-2-thienyl)ethanone

> <PUBCHEM_IUPAC_CAS_NAME>
2-[[4-(2-methoxyphenyl)-1,2,4-triazol-3-yl]thio]-1-(5-methyl-2-thiophenyl)ethanone

> <PUBCHEM_IUPAC_NAME>
2-[[4-(2-methoxyphenyl)-1,2,4-triazol-3-yl]sulfanyl]-1-(5-methylthiophen-2-yl)ethanone

> <PUBCHEM_IUPAC_SYSTEMATIC_NAME>
2-[[4-(2-methoxyphenyl)-1,2,4-triazol-3-yl]sulfanyl]-1-(5-methylthiophen-2-yl)ethanone

> <PUBCHEM_IUPAC_TRADITIONAL_NAME>
2-[[4-(2-methoxyphenyl)-1,2,4-triazol-3-yl]thio]-1-(5-methyl-2-thienyl)ethanone

> <PUBCHEM_IUPAC_INCHI>
InChI=1S/C16H15N3O2S2/c1-11-7-8-15(23-11)13(20)9-22-16-18-17-10-19(16)12-5-3-4-6-14(12)21-2/h3-8,10H,9H2,1-2H3

> <PUBCHEM_IUPAC_INCHIKEY>
TXKKJHFFYBODMU-UHFFFAOYSA-N

> <PUBCHEM_XLOGP3_AA>
3.7

> <PUBCHEM_EXACT_MASS>
345.060569

> <PUBCHEM_MOLECULAR_FORMULA>
C16H15N3O2S2

> <PUBCHEM_MOLECULAR_WEIGHT>
345.4392

> <PUBCHEM_OPENEYE_CAN_SMILES>
CC1=CC=C(S1)C(=O)CSC2=NN=CN2C3=CC=CC=C3OC

> <PUBCHEM_OPENEYE_ISO_SMILES>
CC1=CC=C(S1)C(=O)CSC2=NN=CN2C3=CC=CC=C3OC

> <PUBCHEM_CACTVS_TPSA>
111

> <PUBCHEM_MONOISOTOPIC_WEIGHT>
345.060569

> <PUBCHEM_TOTAL_CHARGE>
0

> <PUBCHEM_HEAVY_ATOM_COUNT>
23

> <PUBCHEM_ATOM_DEF_STEREO_COUNT>
0

> <PUBCHEM_ATOM_UDEF_STEREO_COUNT>
0

> <PUBCHEM_BOND_DEF_STEREO_COUNT>
0

> <PUBCHEM_BOND_UDEF_STEREO_COUNT>
0

> <PUBCHEM_ISOTOPIC_ATOM_COUNT>
0

> <PUBCHEM_COMPONENT_COUNT>
1

> <PUBCHEM_CACTVS_TAUTO_COUNT>
7

> <PUBCHEM_COORDINATE_TYPE>
1
5
255

> <PUBCHEM_BONDANNOTATIONS>
11  17  8
13  19  8
16  20  8
17  20  8
18  21  8
19  21  8
2  13  8
2  18  8
5  10  8
5  15  8
6  10  8
6  7  8
7  15  8
8  11  8
8  9  8
9  16  8

$$$$

