4642
  -OEChem-06261200152D

 53 55  0     1  0  0  0  0  0999 V2000
    2.3100    0.2321    0.0000 O   0  0  0  0  0  0  0  0  0  0  0  0
    4.8100   -0.6340    0.0000 O   0  0  0  0  0  0  0  0  0  0  0  0
    4.8100    1.0981    0.0000 O   0  0  0  0  0  0  0  0  0  0  0  0
    7.3100   -1.5000    0.0000 N   0  0  0  0  0  0  0  0  0  0  0  0
    5.8100   -2.3660    0.0000 N   0  0  0  0  0  0  0  0  0  0  0  0
    3.3100   -0.7679    0.0000 C   0  0  0  0  0  0  0  0  0  0  0  0
    2.4440   -1.2680    0.0000 C   0  0  0  0  0  0  0  0  0  0  0  0
    4.1760   -1.2680    0.0000 C   0  0  0  0  0  0  0  0  0  0  0  0
    3.3100    0.2321    0.0000 C   0  0  3  0  0  0  0  0  0  0  0  0
    4.1760   -2.2680    0.0000 C   0  0  0  0  0  0  0  0  0  0  0  0
    2.4440   -2.2680    0.0000 C   0  0  0  0  0  0  0  0  0  0  0  0
    3.3100   -2.7680    0.0000 C   0  0  0  0  0  0  0  0  0  0  0  0
    3.3100    1.2320    0.0000 C   0  0  0  0  0  0  0  0  0  0  0  0
    4.3100    0.2321    0.0000 C   0  0  0  0  0  0  0  0  0  0  0  0
    4.1760    1.7320    0.0000 C   0  0  0  0  0  0  0  0  0  0  0  0
    2.4440    1.7320    0.0000 C   0  0  0  0  0  0  0  0  0  0  0  0
    5.8100   -0.6340    0.0000 C   0  0  0  0  0  0  0  0  0  0  0  0
    4.1760    2.7320    0.0000 C   0  0  0  0  0  0  0  0  0  0  0  0
    2.4440    2.7320    0.0000 C   0  0  0  0  0  0  0  0  0  0  0  0
    6.3100   -1.5000    0.0000 C   0  0  0  0  0  0  0  0  0  0  0  0
    7.8100   -2.3660    0.0000 C   0  0  0  0  0  0  0  0  0  0  0  0
    7.3100   -3.2320    0.0000 C   0  0  0  0  0  0  0  0  0  0  0  0
    3.3100    3.2320    0.0000 C   0  0  0  0  0  0  0  0  0  0  0  0
    6.3100   -3.2320    0.0000 C   0  0  0  0  0  0  0  0  0  0  0  0
    7.8100   -0.6340    0.0000 C   0  0  0  0  0  0  0  0  0  0  0  0
    3.8469   -0.4579    0.0000 H   0  0  0  0  0  0  0  0  0  0  0  0
    4.7866   -1.3756    0.0000 H   0  0  0  0  0  0  0  0  0  0  0  0
    4.3881   -0.6853    0.0000 H   0  0  0  0  0  0  0  0  0  0  0  0
    2.2319   -0.6853    0.0000 H   0  0  0  0  0  0  0  0  0  0  0  0
    1.8334   -1.3756    0.0000 H   0  0  0  0  0  0  0  0  0  0  0  0
    4.3881   -2.8506    0.0000 H   0  0  0  0  0  0  0  0  0  0  0  0
    4.7866   -2.1603    0.0000 H   0  0  0  0  0  0  0  0  0  0  0  0
    1.8334   -2.1603    0.0000 H   0  0  0  0  0  0  0  0  0  0  0  0
    2.2319   -2.8506    0.0000 H   0  0  0  0  0  0  0  0  0  0  0  0
    2.9115   -3.2429    0.0000 H   0  0  0  0  0  0  0  0  0  0  0  0
    3.7085   -3.2429    0.0000 H   0  0  0  0  0  0  0  0  0  0  0  0
    2.0000    0.7690    0.0000 H   0  0  0  0  0  0  0  0  0  0  0  0
    4.7130    1.4220    0.0000 H   0  0  0  0  0  0  0  0  0  0  0  0
    1.9070    1.4220    0.0000 H   0  0  0  0  0  0  0  0  0  0  0  0
    6.3926   -0.4219    0.0000 H   0  0  0  0  0  0  0  0  0  0  0  0
    5.7023   -0.0234    0.0000 H   0  0  0  0  0  0  0  0  0  0  0  0
    4.7130    3.0420    0.0000 H   0  0  0  0  0  0  0  0  0  0  0  0
    1.9070    3.0420    0.0000 H   0  0  0  0  0  0  0  0  0  0  0  0
    8.2850   -2.7646    0.0000 H   0  0  0  0  0  0  0  0  0  0  0  0
    8.2850   -1.9675    0.0000 H   0  0  0  0  0  0  0  0  0  0  0  0
    7.2023   -3.8426    0.0000 H   0  0  0  0  0  0  0  0  0  0  0  0
    7.8926   -3.4441    0.0000 H   0  0  0  0  0  0  0  0  0  0  0  0
    3.3100    3.8520    0.0000 H   0  0  0  0  0  0  0  0  0  0  0  0
    5.7274   -3.4441    0.0000 H   0  0  0  0  0  0  0  0  0  0  0  0
    6.4177   -3.8426    0.0000 H   0  0  0  0  0  0  0  0  0  0  0  0
    8.3469   -0.9440    0.0000 H   0  0  0  0  0  0  0  0  0  0  0  0
    8.1200   -0.0970    0.0000 H   0  0  0  0  0  0  0  0  0  0  0  0
    7.2731   -0.3240    0.0000 H   0  0  0  0  0  0  0  0  0  0  0  0
  1  9  1  0  0  0  0
  1 37  1  0  0  0  0
  2 14  1  0  0  0  0
  2 17  1  0  0  0  0
  3 14  2  0  0  0  0
  4 20  1  0  0  0  0
  4 21  1  0  0  0  0
  4 25  1  0  0  0  0
  5 20  2  0  0  0  0
  5 24  1  0  0  0  0
  6  7  1  0  0  0  0
  6  8  1  0  0  0  0
  6  9  1  0  0  0  0
  6 26  1  0  0  0  0
  7 11  1  0  0  0  0
  7 29  1  0  0  0  0
  7 30  1  0  0  0  0
  8 10  1  0  0  0  0
  8 27  1  0  0  0  0
  8 28  1  0  0  0  0
  9 13  1  0  0  0  0
  9 14  1  0  0  0  0
 10 12  1  0  0  0  0
 10 31  1  0  0  0  0
 10 32  1  0  0  0  0
 11 12  1  0  0  0  0
 11 33  1  0  0  0  0
 11 34  1  0  0  0  0
 12 35  1  0  0  0  0
 12 36  1  0  0  0  0
 13 15  2  0  0  0  0
 13 16  1  0  0  0  0
 15 18  1  0  0  0  0
 15 38  1  0  0  0  0
 16 19  2  0  0  0  0
 16 39  1  0  0  0  0
 17 20  1  0  0  0  0
 17 40  1  0  0  0  0
 17 41  1  0  0  0  0
 18 23  2  0  0  0  0
 18 42  1  0  0  0  0
 19 23  1  0  0  0  0
 19 43  1  0  0  0  0
 21 22  1  0  0  0  0
 21 44  1  0  0  0  0
 21 45  1  0  0  0  0
 22 24  1  0  0  0  0
 22 46  1  0  0  0  0
 22 47  1  0  0  0  0
 23 48  1  0  0  0  0
 24 49  1  0  0  0  0
 24 50  1  0  0  0  0
 25 51  1  0  0  0  0
 25 52  1  0  0  0  0
 25 53  1  0  0  0  0
M  END
> <PUBCHEM_COMPOUND_CID>
4642

> <PUBCHEM_COMPOUND_CANONICALIZED>
1

> <PUBCHEM_CACTVS_COMPLEXITY>
481

> <PUBCHEM_CACTVS_HBOND_ACCEPTOR>
4

> <PUBCHEM_CACTVS_HBOND_DONOR>
1

> <PUBCHEM_CACTVS_ROTATABLE_BOND>
6

> <PUBCHEM_CACTVS_SUBSKEYS>
AAADceB7MAAAAAAAAAAAAAAAAAAAAAAAAAAwYIAAAAAAAAABAAAAHgAACAAADUThmAYzCIMABgCoAiLyLAYCAAEgAAAJiAFYCIgLJjKAXRCHcAAkwAGbmAeIyOCOgAAAAAAAAAAAAAAAAAAAAAAAAAAAAA==

> <PUBCHEM_IUPAC_OPENEYE_NAME>
(1-methyl-5,6-dihydro-4H-pyrimidin-2-yl)methyl 2-cyclohexyl-2-hydroxy-2-phenyl-acetate

> <PUBCHEM_IUPAC_CAS_NAME>
2-cyclohexyl-2-hydroxy-2-phenylacetic acid (1-methyl-5,6-dihydro-4H-pyrimidin-2-yl)methyl ester

> <PUBCHEM_IUPAC_NAME>
(1-methyl-5,6-dihydro-4H-pyrimidin-2-yl)methyl 2-cyclohexyl-2-hydroxy-2-phenylacetate

> <PUBCHEM_IUPAC_SYSTEMATIC_NAME>
(1-methyl-5,6-dihydro-4H-pyrimidin-2-yl)methyl 2-cyclohexyl-2-oxidanyl-2-phenyl-ethanoate

> <PUBCHEM_IUPAC_TRADITIONAL_NAME>
2-cyclohexyl-2-hydroxy-2-phenyl-acetic acid (1-methyl-5,6-dihydro-4H-pyrimidin-2-yl)methyl ester

> <PUBCHEM_IUPAC_INCHI>
InChI=1S/C20H28N2O3/c1-22-14-8-13-21-18(22)15-25-19(23)20(24,16-9-4-2-5-10-16)17-11-6-3-7-12-17/h2,4-5,9-10,17,24H,3,6-8,11-15H2,1H3

> <PUBCHEM_IUPAC_INCHIKEY>
DUDKAZCAISNGQN-UHFFFAOYSA-N

> <PUBCHEM_XLOGP3_AA>
2.9

> <PUBCHEM_EXACT_MASS>
344.209993

> <PUBCHEM_MOLECULAR_FORMULA>
C20H28N2O3

> <PUBCHEM_MOLECULAR_WEIGHT>
344.44792

> <PUBCHEM_OPENEYE_CAN_SMILES>
CN1CCCN=C1COC(=O)C(C2CCCCC2)(C3=CC=CC=C3)O

> <PUBCHEM_OPENEYE_ISO_SMILES>
CN1CCCN=C1COC(=O)C(C2CCCCC2)(C3=CC=CC=C3)O

> <PUBCHEM_CACTVS_TPSA>
62.1

> <PUBCHEM_MONOISOTOPIC_WEIGHT>
344.209993

> <PUBCHEM_TOTAL_CHARGE>
0

> <PUBCHEM_HEAVY_ATOM_COUNT>
25

> <PUBCHEM_ATOM_DEF_STEREO_COUNT>
0

> <PUBCHEM_ATOM_UDEF_STEREO_COUNT>
1

> <PUBCHEM_BOND_DEF_STEREO_COUNT>
0

> <PUBCHEM_BOND_UDEF_STEREO_COUNT>
0

> <PUBCHEM_ISOTOPIC_ATOM_COUNT>
0

> <PUBCHEM_COMPONENT_COUNT>
1

> <PUBCHEM_CACTVS_TAUTO_COUNT>
1

> <PUBCHEM_COORDINATE_TYPE>
1
5
255

> <PUBCHEM_BONDANNOTATIONS>
9  1  3
13  15  8
13  16  8
15  18  8
16  19  8
18  23  8
19  23  8

$$$$

