51090873
  -OEChem-06241223002D

 44 45  0     0  0  0  0  0  0999 V2000
    3.7320   -1.1307    0.0000 S   0  0  0  0  0  0  0  0  0  0  0  0
    6.3301   -2.6307    0.0000 O   0  0  0  0  0  0  0  0  0  0  0  0
    9.4282    1.4081    0.0000 N   0  0  0  0  0  0  0  0  0  0  0  0
    8.1192    0.4571    0.0000 N   0  0  0  0  0  0  0  0  0  0  0  0
    7.1962   -1.1307    0.0000 N   0  0  0  0  0  0  0  0  0  0  0  0
    9.7372    0.4571    0.0000 N   0  0  0  0  0  0  0  0  0  0  0  0
    7.8404    2.2172    0.0000 C   0  0  0  0  0  0  0  0  0  0  0  0
    8.4282    1.4081    0.0000 C   0  0  0  0  0  0  0  0  0  0  0  0
    8.9282   -1.1307    0.0000 C   0  0  0  0  0  0  0  0  0  0  0  0
    8.9282   -0.1307    0.0000 C   0  0  0  0  0  0  0  0  0  0  0  0
    8.2472    3.1307    0.0000 C   0  0  0  0  0  0  0  0  0  0  0  0
    6.8459    2.1126    0.0000 C   0  0  0  0  0  0  0  0  0  0  0  0
    8.0622   -1.6307    0.0000 C   0  0  0  0  0  0  0  0  0  0  0  0
    5.4641   -1.1307    0.0000 C   0  0  0  0  0  0  0  0  0  0  0  0
    9.7942   -1.6307    0.0000 C   0  0  0  0  0  0  0  0  0  0  0  0
    8.0622   -2.6307    0.0000 C   0  0  0  0  0  0  0  0  0  0  0  0
    6.3301   -1.6307    0.0000 C   0  0  0  0  0  0  0  0  0  0  0  0
    4.5981   -1.6307    0.0000 C   0  0  0  0  0  0  0  0  0  0  0  0
    9.7942   -2.6307    0.0000 C   0  0  0  0  0  0  0  0  0  0  0  0
    8.9282   -3.1307    0.0000 C   0  0  0  0  0  0  0  0  0  0  0  0
    2.8660   -1.6307    0.0000 C   0  0  0  0  0  0  0  0  0  0  0  0
    2.0000   -1.1307    0.0000 C   0  0  0  0  0  0  0  0  0  0  0  0
    7.5882    1.6508    0.0000 H   0  0  0  0  0  0  0  0  0  0  0  0
    8.8136    2.8785    0.0000 H   0  0  0  0  0  0  0  0  0  0  0  0
    8.4993    3.6971    0.0000 H   0  0  0  0  0  0  0  0  0  0  0  0
    7.6808    3.3829    0.0000 H   0  0  0  0  0  0  0  0  0  0  0  0
    6.7811    2.7292    0.0000 H   0  0  0  0  0  0  0  0  0  0  0  0
    6.2293    2.0478    0.0000 H   0  0  0  0  0  0  0  0  0  0  0  0
    6.9107    1.4960    0.0000 H   0  0  0  0  0  0  0  0  0  0  0  0
    9.7926    1.9097    0.0000 H   0  0  0  0  0  0  0  0  0  0  0  0
    5.8626   -0.6558    0.0000 H   0  0  0  0  0  0  0  0  0  0  0  0
    5.0656   -0.6558    0.0000 H   0  0  0  0  0  0  0  0  0  0  0  0
    7.1962   -0.5107    0.0000 H   0  0  0  0  0  0  0  0  0  0  0  0
   10.3312   -1.3207    0.0000 H   0  0  0  0  0  0  0  0  0  0  0  0
    7.5252   -2.9407    0.0000 H   0  0  0  0  0  0  0  0  0  0  0  0
    4.1996   -2.1056    0.0000 H   0  0  0  0  0  0  0  0  0  0  0  0
    4.9966   -2.1056    0.0000 H   0  0  0  0  0  0  0  0  0  0  0  0
   10.3312   -2.9407    0.0000 H   0  0  0  0  0  0  0  0  0  0  0  0
    8.9282   -3.7507    0.0000 H   0  0  0  0  0  0  0  0  0  0  0  0
    2.4675   -2.1056    0.0000 H   0  0  0  0  0  0  0  0  0  0  0  0
    3.2646   -2.1056    0.0000 H   0  0  0  0  0  0  0  0  0  0  0  0
    2.3100   -0.5938    0.0000 H   0  0  0  0  0  0  0  0  0  0  0  0
    1.4631   -0.8207    0.0000 H   0  0  0  0  0  0  0  0  0  0  0  0
    1.6900   -1.6676    0.0000 H   0  0  0  0  0  0  0  0  0  0  0  0
  1 18  1  0  0  0  0
  1 21  1  0  0  0  0
  2 17  2  0  0  0  0
  3  6  1  0  0  0  0
  3  8  1  0  0  0  0
  3 30  1  0  0  0  0
  4  8  2  0  0  0  0
  4 10  1  0  0  0  0
  5 13  1  0  0  0  0
  5 17  1  0  0  0  0
  5 33  1  0  0  0  0
  6 10  2  0  0  0  0
  7  8  1  0  0  0  0
  7 11  1  0  0  0  0
  7 12  1  0  0  0  0
  7 23  1  0  0  0  0
  9 10  1  0  0  0  0
  9 13  1  0  0  0  0
  9 15  2  0  0  0  0
 11 24  1  0  0  0  0
 11 25  1  0  0  0  0
 11 26  1  0  0  0  0
 12 27  1  0  0  0  0
 12 28  1  0  0  0  0
 12 29  1  0  0  0  0
 13 16  2  0  0  0  0
 14 17  1  0  0  0  0
 14 18  1  0  0  0  0
 14 31  1  0  0  0  0
 14 32  1  0  0  0  0
 15 19  1  0  0  0  0
 15 34  1  0  0  0  0
 16 20  1  0  0  0  0
 16 35  1  0  0  0  0
 18 36  1  0  0  0  0
 18 37  1  0  0  0  0
 19 20  2  0  0  0  0
 19 38  1  0  0  0  0
 20 39  1  0  0  0  0
 21 22  1  0  0  0  0
 21 40  1  0  0  0  0
 21 41  1  0  0  0  0
 22 42  1  0  0  0  0
 22 43  1  0  0  0  0
 22 44  1  0  0  0  0
M  END
> <PUBCHEM_COMPOUND_CID>
51090873

> <PUBCHEM_COMPOUND_CANONICALIZED>
1

> <PUBCHEM_CACTVS_COMPLEXITY>
353

> <PUBCHEM_CACTVS_HBOND_ACCEPTOR>
4

> <PUBCHEM_CACTVS_HBOND_DONOR>
2

> <PUBCHEM_CACTVS_ROTATABLE_BOND>
7

> <PUBCHEM_CACTVS_SUBSKEYS>
AAADceB7oABAAAAAAAAAAAAAAAAAAWAAAAAwAAAAAAAAAAABwAAAHgQYAAAADQiF2wCz0IbrEAiqAidydACSgAuhArAdqCEwZJiIKKLg2ZGEIAhgnALoyAcQgAAOAAAAAAACAAAAAAAAAAQAAAAAAAAAAA==

> <PUBCHEM_IUPAC_OPENEYE_NAME>
3-ethylsulfanyl-N-[2-(5-isopropyl-1H-1,2,4-triazol-3-yl)phenyl]propanamide

> <PUBCHEM_IUPAC_CAS_NAME>
3-(ethylthio)-N-[2-(5-propan-2-yl-1H-1,2,4-triazol-3-yl)phenyl]propanamide

> <PUBCHEM_IUPAC_NAME>
3-ethylsulfanyl-N-[2-(5-propan-2-yl-1H-1,2,4-triazol-3-yl)phenyl]propanamide

> <PUBCHEM_IUPAC_SYSTEMATIC_NAME>
3-ethylsulfanyl-N-[2-(5-propan-2-yl-1H-1,2,4-triazol-3-yl)phenyl]propanamide

> <PUBCHEM_IUPAC_TRADITIONAL_NAME>
3-(ethylthio)-N-[2-(5-isopropyl-1H-1,2,4-triazol-3-yl)phenyl]propionamide

> <PUBCHEM_IUPAC_INCHI>
InChI=1S/C16H22N4OS/c1-4-22-10-9-14(21)17-13-8-6-5-7-12(13)16-18-15(11(2)3)19-20-16/h5-8,11H,4,9-10H2,1-3H3,(H,17,21)(H,18,19,20)

> <PUBCHEM_IUPAC_INCHIKEY>
VPWKSWPMSURZNV-UHFFFAOYSA-N

> <PUBCHEM_XLOGP3_AA>
2.9

> <PUBCHEM_EXACT_MASS>
318.151432

> <PUBCHEM_MOLECULAR_FORMULA>
C16H22N4OS

> <PUBCHEM_MOLECULAR_WEIGHT>
318.43708

> <PUBCHEM_OPENEYE_CAN_SMILES>
CCSCCC(=O)NC1=CC=CC=C1C2=NNC(=N2)C(C)C

> <PUBCHEM_OPENEYE_ISO_SMILES>
CCSCCC(=O)NC1=CC=CC=C1C2=NNC(=N2)C(C)C

> <PUBCHEM_CACTVS_TPSA>
96

> <PUBCHEM_MONOISOTOPIC_WEIGHT>
318.151432

> <PUBCHEM_TOTAL_CHARGE>
0

> <PUBCHEM_HEAVY_ATOM_COUNT>
22

> <PUBCHEM_ATOM_DEF_STEREO_COUNT>
0

> <PUBCHEM_ATOM_UDEF_STEREO_COUNT>
0

> <PUBCHEM_BOND_DEF_STEREO_COUNT>
0

> <PUBCHEM_BOND_UDEF_STEREO_COUNT>
0

> <PUBCHEM_ISOTOPIC_ATOM_COUNT>
0

> <PUBCHEM_COMPONENT_COUNT>
1

> <PUBCHEM_CACTVS_TAUTO_COUNT>
77

> <PUBCHEM_COORDINATE_TYPE>
1
5
255

> <PUBCHEM_BONDANNOTATIONS>
13  16  8
15  19  8
16  20  8
19  20  8
3  6  8
3  8  8
4  10  8
4  8  8
6  10  8
9  13  8
9  15  8

$$$$

