10998
  -OEChem-06261205132D

  9  6  0     0  0  0  0  0  0999 V2000
    4.5981    0.0600    0.0000 Co  0  2  0  0  0  0  0  0  0  0  0  0
    3.7320    0.5600    0.0000 O   0  5  0  0  0  0  0  0  0  0  0  0
    5.4641    0.5600    0.0000 O   0  5  0  0  0  0  0  0  0  0  0  0
    2.0000    0.5600    0.0000 O   0  0  0  0  0  0  0  0  0  0  0  0
    7.1962    0.5600    0.0000 O   0  0  0  0  0  0  0  0  0  0  0  0
    2.8660    0.0600    0.0000 C   0  0  0  0  0  0  0  0  0  0  0  0
    6.3301    0.0600    0.0000 C   0  0  0  0  0  0  0  0  0  0  0  0
    2.8660   -0.5600    0.0000 H   0  0  0  0  0  0  0  0  0  0  0  0
    6.3301   -0.5600    0.0000 H   0  0  0  0  0  0  0  0  0  0  0  0
  2  6  1  0  0  0  0
  3  7  1  0  0  0  0
  4  6  2  0  0  0  0
  5  7  2  0  0  0  0
  6  8  1  0  0  0  0
  7  9  1  0  0  0  0
M  CHG  3   1   2   2  -1   3  -1
M  END
> <PUBCHEM_COMPOUND_CID>
10998

> <PUBCHEM_COMPOUND_CANONICALIZED>
1

> <PUBCHEM_CACTVS_COMPLEXITY>
7.5

> <PUBCHEM_CACTVS_HBOND_ACCEPTOR>
4

> <PUBCHEM_CACTVS_HBOND_DONOR>
0

> <PUBCHEM_CACTVS_ROTATABLE_BOND>
0

> <PUBCHEM_CACTVS_SUBSKEYS>
AAADcQBAOAAAAAAQAAAAAAAAAAAAAAAAAAAAAAAAAAAAAAAAAAAAEgAAAAAAAAAAAAMACAAAAAAIAAAAiAAAAAAAAAAAAAAAAAAAAAAAAAAAAAAAAAAAAAAAAAAAAAAAAAAAAAAAAAAAAAAAAAAAAAAAAA==

> <PUBCHEM_IUPAC_OPENEYE_NAME>
cobaltous diformate

> <PUBCHEM_IUPAC_CAS_NAME>
cobalt(2+) diformate

> <PUBCHEM_IUPAC_NAME>
cobalt(2+) diformate

> <PUBCHEM_IUPAC_SYSTEMATIC_NAME>
cobalt(2+) dimethanoate

> <PUBCHEM_IUPAC_TRADITIONAL_NAME>
cobaltous diformate

> <PUBCHEM_IUPAC_INCHI>
InChI=1S/2CH2O2.Co/c2*2-1-3;/h2*1H,(H,2,3);/q;;+2/p-2

> <PUBCHEM_IUPAC_INCHIKEY>
PFQLIVQUKOIJJD-UHFFFAOYSA-L

> <PUBCHEM_EXACT_MASS>
148.928504

> <PUBCHEM_MOLECULAR_FORMULA>
C2H2CoO4

> <PUBCHEM_MOLECULAR_WEIGHT>
148.968075

> <PUBCHEM_OPENEYE_CAN_SMILES>
C(=O)[O-].C(=O)[O-].[Co+2]

> <PUBCHEM_OPENEYE_ISO_SMILES>
C(=O)[O-].C(=O)[O-].[Co+2]

> <PUBCHEM_CACTVS_TPSA>
80.3

> <PUBCHEM_MONOISOTOPIC_WEIGHT>
148.928504

> <PUBCHEM_TOTAL_CHARGE>
0

> <PUBCHEM_HEAVY_ATOM_COUNT>
7

> <PUBCHEM_ATOM_DEF_STEREO_COUNT>
0

> <PUBCHEM_ATOM_UDEF_STEREO_COUNT>
0

> <PUBCHEM_BOND_DEF_STEREO_COUNT>
0

> <PUBCHEM_BOND_UDEF_STEREO_COUNT>
0

> <PUBCHEM_ISOTOPIC_ATOM_COUNT>
0

> <PUBCHEM_COMPONENT_COUNT>
3

> <PUBCHEM_CACTVS_TAUTO_COUNT>
1

> <PUBCHEM_COORDINATE_TYPE>
1
5
255

$$$$

