11325
  -OEChem-06261205322D

 22 23  0     0  0  0  0  0  0999 V2000
    7.7619   -0.8660    0.0000 Br  0  0  0  0  0  0  0  0  0  0  0  0
    4.9889   -1.7552    0.0000 O   0  0  0  0  0  0  0  0  0  0  0  0
    4.9889    1.7552    0.0000 O   0  0  0  0  0  0  0  0  0  0  0  0
    5.2619    0.0000    0.0000 N   0  0  0  0  0  0  0  0  0  0  0  0
    3.7320    0.5000    0.0000 C   0  0  0  0  0  0  0  0  0  0  0  0
    3.7320   -0.5000    0.0000 C   0  0  0  0  0  0  0  0  0  0  0  0
    6.2619    0.0000    0.0000 C   0  0  0  0  0  0  0  0  0  0  0  0
    4.6783    0.8047    0.0000 C   0  0  0  0  0  0  0  0  0  0  0  0
    4.6783   -0.8047    0.0000 C   0  0  0  0  0  0  0  0  0  0  0  0
    2.8660    1.0000    0.0000 C   0  0  0  0  0  0  0  0  0  0  0  0
    2.8660   -1.0000    0.0000 C   0  0  0  0  0  0  0  0  0  0  0  0
    6.7619   -0.8660    0.0000 C   0  0  0  0  0  0  0  0  0  0  0  0
    2.0000   -0.5000    0.0000 C   0  0  0  0  0  0  0  0  0  0  0  0
    2.0000    0.5000    0.0000 C   0  0  0  0  0  0  0  0  0  0  0  0
    6.8445    0.2121    0.0000 H   0  0  0  0  0  0  0  0  0  0  0  0
    6.1542    0.6106    0.0000 H   0  0  0  0  0  0  0  0  0  0  0  0
    2.8660    1.6200    0.0000 H   0  0  0  0  0  0  0  0  0  0  0  0
    2.8660   -1.6200    0.0000 H   0  0  0  0  0  0  0  0  0  0  0  0
    6.1793   -1.0781    0.0000 H   0  0  0  0  0  0  0  0  0  0  0  0
    6.8695   -1.4766    0.0000 H   0  0  0  0  0  0  0  0  0  0  0  0
    1.4631    0.8100    0.0000 H   0  0  0  0  0  0  0  0  0  0  0  0
    1.4631   -0.8100    0.0000 H   0  0  0  0  0  0  0  0  0  0  0  0
  1 12  1  0  0  0  0
  2  9  2  0  0  0  0
  3  8  2  0  0  0  0
  4  7  1  0  0  0  0
  4  8  1  0  0  0  0
  4  9  1  0  0  0  0
  5  6  1  0  0  0  0
  5  8  1  0  0  0  0
  5 10  2  0  0  0  0
  6  9  1  0  0  0  0
  6 11  2  0  0  0  0
  7 12  1  0  0  0  0
  7 15  1  0  0  0  0
  7 16  1  0  0  0  0
 10 14  1  0  0  0  0
 10 17  1  0  0  0  0
 11 13  1  0  0  0  0
 11 18  1  0  0  0  0
 12 19  1  0  0  0  0
 12 20  1  0  0  0  0
 13 14  2  0  0  0  0
 13 22  1  0  0  0  0
 14 21  1  0  0  0  0
M  END
> <PUBCHEM_COMPOUND_CID>
11325

> <PUBCHEM_COMPOUND_CANONICALIZED>
1

> <PUBCHEM_CACTVS_COMPLEXITY>
243

> <PUBCHEM_CACTVS_HBOND_ACCEPTOR>
2

> <PUBCHEM_CACTVS_HBOND_DONOR>
0

> <PUBCHEM_CACTVS_ROTATABLE_BOND>
2

> <PUBCHEM_CACTVS_SUBSKEYS>
AAADccByMAAAEAAAAAAAAAAAAAAAAWAAAAAwAAAAAAAAAFgBAAAAHgBAAAABTADBmAQwAIMAAACIAiFSEACCAAAkAAAIiAEIBMgIIDKAlRGEIQhghiCIiYcdiICOgAAAAAAQAAAAAAAAACAAAAAAAAAAAA==

> <PUBCHEM_IUPAC_OPENEYE_NAME>
2-(2-bromoethyl)isoindoline-1,3-dione

> <PUBCHEM_IUPAC_CAS_NAME>
2-(2-bromoethyl)isoindole-1,3-dione

> <PUBCHEM_IUPAC_NAME>
2-(2-bromoethyl)isoindole-1,3-dione

> <PUBCHEM_IUPAC_SYSTEMATIC_NAME>
2-(2-bromoethyl)isoindole-1,3-dione

> <PUBCHEM_IUPAC_TRADITIONAL_NAME>
2-(2-bromoethyl)isoindoline-1,3-quinone

> <PUBCHEM_IUPAC_INCHI>
InChI=1S/C10H8BrNO2/c11-5-6-12-9(13)7-3-1-2-4-8(7)10(12)14/h1-4H,5-6H2

> <PUBCHEM_IUPAC_INCHIKEY>
CHZXTOCAICMPQR-UHFFFAOYSA-N

> <PUBCHEM_XLOGP3>
2.2

> <PUBCHEM_EXACT_MASS>
252.973841

> <PUBCHEM_MOLECULAR_FORMULA>
C10H8BrNO2

> <PUBCHEM_MOLECULAR_WEIGHT>
254.08002

> <PUBCHEM_OPENEYE_CAN_SMILES>
C1=CC=C2C(=C1)C(=O)N(C2=O)CCBr

> <PUBCHEM_OPENEYE_ISO_SMILES>
C1=CC=C2C(=C1)C(=O)N(C2=O)CCBr

> <PUBCHEM_CACTVS_TPSA>
37.4

> <PUBCHEM_MONOISOTOPIC_WEIGHT>
252.973841

> <PUBCHEM_TOTAL_CHARGE>
0

> <PUBCHEM_HEAVY_ATOM_COUNT>
14

> <PUBCHEM_ATOM_DEF_STEREO_COUNT>
0

> <PUBCHEM_ATOM_UDEF_STEREO_COUNT>
0

> <PUBCHEM_BOND_DEF_STEREO_COUNT>
0

> <PUBCHEM_BOND_UDEF_STEREO_COUNT>
0

> <PUBCHEM_ISOTOPIC_ATOM_COUNT>
0

> <PUBCHEM_COMPONENT_COUNT>
1

> <PUBCHEM_CACTVS_TAUTO_COUNT>
1

> <PUBCHEM_COORDINATE_TYPE>
1
5
255

> <PUBCHEM_BONDANNOTATIONS>
10  14  8
11  13  8
13  14  8
5  10  8
5  6  8
6  11  8

$$$$

