10561
  -OEChem-06261204412D

 11  9  0     0  0  0  0  0  0999 V2000
    0.5369    1.8100    0.0000 S   0  0  0  0  0  0  0  0  0  0  0  0
    1.4030    0.3100    0.0000 S   0  0  0  0  0  0  0  0  0  0  0  0
    2.2690    1.8100    0.0000 N   0  0  0  0  0  0  0  0  0  0  0  0
    1.4030    4.4300    0.0000 N   0  0  0  0  0  0  0  0  0  0  0  0
    1.4030    1.3100    0.0000 C   0  0  0  0  0  0  0  0  0  0  0  0
    0.0000    1.5000    0.0000 H   0  0  0  0  0  0  0  0  0  0  0  0
    0.8660    0.0000    0.0000 H   0  0  0  0  0  0  0  0  0  0  0  0
    2.8059    1.5000    0.0000 H   0  0  0  0  0  0  0  0  0  0  0  0
    1.9399    4.7400    0.0000 H   0  0  0  0  0  0  0  0  0  0  0  0
    0.8660    4.7400    0.0000 H   0  0  0  0  0  0  0  0  0  0  0  0
    1.4030    3.8100    0.0000 H   0  0  0  0  0  0  0  0  0  0  0  0
  1  5  1  0  0  0  0
  1  6  1  0  0  0  0
  2  5  1  0  0  0  0
  2  7  1  0  0  0  0
  3  5  2  0  0  0  0
  3  8  1  0  0  0  0
  4  9  1  0  0  0  0
  4 10  1  0  0  0  0
  4 11  1  0  0  0  0
M  END
> <PUBCHEM_COMPOUND_CID>
10561

> <PUBCHEM_COMPOUND_CANONICALIZED>
1

> <PUBCHEM_CACTVS_COMPLEXITY>
29

> <PUBCHEM_CACTVS_HBOND_ACCEPTOR>
4

> <PUBCHEM_CACTVS_HBOND_DONOR>
4

> <PUBCHEM_CACTVS_ROTATABLE_BOND>
0

> <PUBCHEM_CACTVS_SUBSKEYS>
AAADcYADAABgAAAAAAAAAAAAAAAAAAAAAAAAAAAAAAAAAAAAAAAABAQQAAAAAAAAAAAAAABAAAQgAAAAAAAAAgAAAAAAAAAAAAAAAAAAAAAAAAAAAAAAAAAAAAAAAAAAAAAAAAAAAAAAAAAAAAAAAAAAAA==

> <PUBCHEM_IUPAC_OPENEYE_NAME>
ammonia; iminomethanedithiol

> <PUBCHEM_IUPAC_CAS_NAME>
ammonia; iminomethanedithiol

> <PUBCHEM_IUPAC_NAME>
azane; iminomethanedithiol

> <PUBCHEM_IUPAC_SYSTEMATIC_NAME>
azane; azanylidenemethanedithiol

> <PUBCHEM_IUPAC_TRADITIONAL_NAME>
ammonia; iminomethanedithiol

> <PUBCHEM_IUPAC_INCHI>
InChI=1S/CH3NS2.H3N/c2-1(3)4;/h(H3,2,3,4);1H3

> <PUBCHEM_IUPAC_INCHIKEY>
DCYNAHFAQKMWDW-UHFFFAOYSA-N

> <PUBCHEM_EXACT_MASS>
109.99724

> <PUBCHEM_MOLECULAR_FORMULA>
CH6N2S2

> <PUBCHEM_MOLECULAR_WEIGHT>
110.20174

> <PUBCHEM_OPENEYE_CAN_SMILES>
C(=N)(S)S.N

> <PUBCHEM_OPENEYE_ISO_SMILES>
C(=N)(S)S.N

> <PUBCHEM_CACTVS_TPSA>
26.8

> <PUBCHEM_MONOISOTOPIC_WEIGHT>
109.99724

> <PUBCHEM_TOTAL_CHARGE>
0

> <PUBCHEM_HEAVY_ATOM_COUNT>
5

> <PUBCHEM_ATOM_DEF_STEREO_COUNT>
0

> <PUBCHEM_ATOM_UDEF_STEREO_COUNT>
0

> <PUBCHEM_BOND_DEF_STEREO_COUNT>
0

> <PUBCHEM_BOND_UDEF_STEREO_COUNT>
0

> <PUBCHEM_ISOTOPIC_ATOM_COUNT>
0

> <PUBCHEM_COMPONENT_COUNT>
2

> <PUBCHEM_CACTVS_TAUTO_COUNT>
2

> <PUBCHEM_COORDINATE_TYPE>
1
5
255

$$$$

