12800
  -OEChem-06261207232D

 32 34  0     0  0  0  0  0  0999 V2000
    3.6730    0.6801    0.0000 C   0  0  0  0  0  0  0  0  0  0  0  0
    4.5092   -0.7682    0.0000 C   0  0  0  0  0  0  0  0  0  0  0  0
    2.8368   -0.7682    0.0000 C   0  0  0  0  0  0  0  0  0  0  0  0
    2.9819   -1.2033    0.0000 C   0  0  0  0  0  0  0  0  0  0  0  0
    4.5092    0.1973    0.0000 C   0  0  0  0  0  0  0  0  0  0  0  0
    3.6730   -1.0710    0.0000 C   0  0  0  0  0  0  0  0  0  0  0  0
    2.8368    0.1973    0.0000 C   0  0  0  0  0  0  0  0  0  0  0  0
    3.8876   -1.6801    0.0000 C   0  0  0  0  0  0  0  0  0  0  0  0
    2.9819   -0.1580    0.0000 C   0  0  0  0  0  0  0  0  0  0  0  0
    2.0000   -1.2510    0.0000 C   0  0  0  0  0  0  0  0  0  0  0  0
    5.2163   -1.4753    0.0000 C   0  0  0  0  0  0  0  0  0  0  0  0
    3.6730    1.6801    0.0000 C   0  0  0  0  0  0  0  0  0  0  0  0
    2.8478   -1.8086    0.0000 H   0  0  0  0  0  0  0  0  0  0  0  0
    2.8912   -1.3858    0.0000 H   0  0  0  0  0  0  0  0  0  0  0  0
    5.1198    0.0897    0.0000 H   0  0  0  0  0  0  0  0  0  0  0  0
    4.7212    0.7799    0.0000 H   0  0  0  0  0  0  0  0  0  0  0  0
    3.5782   -2.2174    0.0000 H   0  0  0  0  0  0  0  0  0  0  0  0
    4.4127   -2.0097    0.0000 H   0  0  0  0  0  0  0  0  0  0  0  0
    2.6383    0.3580    0.0000 H   0  0  0  0  0  0  0  0  0  0  0  0
    2.3885   -0.3375    0.0000 H   0  0  0  0  0  0  0  0  0  0  0  0
    3.3030   -1.5685    0.0000 H   0  0  0  0  0  0  0  0  0  0  0  0
    4.0430   -1.5685    0.0000 H   0  0  0  0  0  0  0  0  0  0  0  0
    2.6247    0.7799    0.0000 H   0  0  0  0  0  0  0  0  0  0  0  0
    2.2262    0.0897    0.0000 H   0  0  0  0  0  0  0  0  0  0  0  0
    1.5188   -0.8601    0.0000 H   0  0  0  0  0  0  0  0  0  0  0  0
    1.8068   -1.8401    0.0000 H   0  0  0  0  0  0  0  0  0  0  0  0
    4.7779   -1.9137    0.0000 H   0  0  0  0  0  0  0  0  0  0  0  0
    5.6547   -1.9137    0.0000 H   0  0  0  0  0  0  0  0  0  0  0  0
    5.6547   -1.0369    0.0000 H   0  0  0  0  0  0  0  0  0  0  0  0
    4.2930    1.6801    0.0000 H   0  0  0  0  0  0  0  0  0  0  0  0
    3.6730    2.3001    0.0000 H   0  0  0  0  0  0  0  0  0  0  0  0
    3.0530    1.6801    0.0000 H   0  0  0  0  0  0  0  0  0  0  0  0
  1  5  1  0  0  0  0
  1  7  1  0  0  0  0
  1  9  1  0  0  0  0
  1 12  1  0  0  0  0
  2  5  1  0  0  0  0
  2  6  1  0  0  0  0
  2  8  1  0  0  0  0
  2 11  1  0  0  0  0
  3  6  1  0  0  0  0
  3  7  1  0  0  0  0
  3 10  1  0  0  0  0
  3 14  1  0  0  0  0
  4  8  1  0  0  0  0
  4  9  1  0  0  0  0
  4 10  1  0  0  0  0
  4 13  1  0  0  0  0
  5 15  1  0  0  0  0
  5 16  1  0  0  0  0
  6 21  1  0  0  0  0
  6 22  1  0  0  0  0
  7 23  1  0  0  0  0
  7 24  1  0  0  0  0
  8 17  1  0  0  0  0
  8 18  1  0  0  0  0
  9 19  1  0  0  0  0
  9 20  1  0  0  0  0
 10 25  1  0  0  0  0
 10 26  1  0  0  0  0
 11 27  1  0  0  0  0
 11 28  1  0  0  0  0
 11 29  1  0  0  0  0
 12 30  1  0  0  0  0
 12 31  1  0  0  0  0
 12 32  1  0  0  0  0
M  END
> <PUBCHEM_COMPOUND_CID>
12800

> <PUBCHEM_COMPOUND_CANONICALIZED>
1

> <PUBCHEM_CACTVS_COMPLEXITY>
182

> <PUBCHEM_CACTVS_HBOND_ACCEPTOR>
0

> <PUBCHEM_CACTVS_HBOND_DONOR>
0

> <PUBCHEM_CACTVS_ROTATABLE_BOND>
0

> <PUBCHEM_CACTVS_SUBSKEYS>
AAADceBwAAAAAAAAAAAAAAAAAAAAAAAAAAAwYMGAAAAAAAAAAAAAGAAAAAAADwCAAAACAAAAAAAAAAAAAAAAAAAAAAAAAAAAAAAAAAIAAAAAAAAAAAAAAAEAgMAPAAAAAAAAAAAAAAQAAAAAAAAAAAAAAA==

> <PUBCHEM_IUPAC_OPENEYE_NAME>
1,3-dimethyladamantane

> <PUBCHEM_IUPAC_CAS_NAME>
1,3-dimethyladamantane

> <PUBCHEM_IUPAC_NAME>
1,3-dimethyladamantane

> <PUBCHEM_IUPAC_SYSTEMATIC_NAME>
1,3-dimethyladamantane

> <PUBCHEM_IUPAC_TRADITIONAL_NAME>
1,3-dimethyladamantane

> <PUBCHEM_IUPAC_INCHI>
InChI=1S/C12H20/c1-11-4-9-3-10(5-11)7-12(2,6-9)8-11/h9-10H,3-8H2,1-2H3

> <PUBCHEM_IUPAC_INCHIKEY>
CWNOIUTVJRWADX-UHFFFAOYSA-N

> <PUBCHEM_XLOGP3_AA>
4.6

> <PUBCHEM_EXACT_MASS>
164.156501

> <PUBCHEM_MOLECULAR_FORMULA>
C12H20

> <PUBCHEM_MOLECULAR_WEIGHT>
164.2872

> <PUBCHEM_OPENEYE_CAN_SMILES>
CC12CC3CC(C1)CC(C3)(C2)C

> <PUBCHEM_OPENEYE_ISO_SMILES>
CC12CC3CC(C1)CC(C3)(C2)C

> <PUBCHEM_CACTVS_TPSA>
0

> <PUBCHEM_MONOISOTOPIC_WEIGHT>
164.156501

> <PUBCHEM_TOTAL_CHARGE>
0

> <PUBCHEM_HEAVY_ATOM_COUNT>
12

> <PUBCHEM_ATOM_DEF_STEREO_COUNT>
0

> <PUBCHEM_ATOM_UDEF_STEREO_COUNT>
0

> <PUBCHEM_BOND_DEF_STEREO_COUNT>
0

> <PUBCHEM_BOND_UDEF_STEREO_COUNT>
0

> <PUBCHEM_ISOTOPIC_ATOM_COUNT>
0

> <PUBCHEM_COMPONENT_COUNT>
1

> <PUBCHEM_CACTVS_TAUTO_COUNT>
1

> <PUBCHEM_COORDINATE_TYPE>
1
5
255

$$$$

