17396318
  -OEChem-06241222552D

 41 43  0     0  0  0  0  0  0999 V2000
    9.0327    2.7465    0.0000 S   0  0  0  0  0  0  0  0  0  0  0  0
    2.0000   -1.2480    0.0000 F   0  0  0  0  0  0  0  0  0  0  0  0
    8.0622    0.2520    0.0000 O   0  0  0  0  0  0  0  0  0  0  0  0
    7.1962    1.7520    0.0000 O   0  0  0  0  0  0  0  0  0  0  0  0
    5.4641   -3.2480    0.0000 N   0  0  0  0  0  0  0  0  0  0  0  0
   10.5109    2.0884    0.0000 N   0  0  0  0  0  0  0  0  0  0  0  0
    6.3301   -1.7480    0.0000 N   0  0  0  0  0  0  0  0  0  0  0  0
    8.0622   -1.7480    0.0000 N   0  0  0  0  0  0  0  0  0  0  0  0
    7.1962   -3.2480    0.0000 N   0  0  0  0  0  0  0  0  0  0  0  0
    8.9282   -3.2480    0.0000 N   0  0  0  0  0  0  0  0  0  0  0  0
    8.9282    1.7520    0.0000 C   0  0  0  0  0  0  0  0  0  0  0  0
    9.8418    1.3453    0.0000 C   0  0  0  0  0  0  0  0  0  0  0  0
    7.1962   -0.2480    0.0000 C   0  0  0  0  0  0  0  0  0  0  0  0
    7.1962   -1.2480    0.0000 C   0  0  0  0  0  0  0  0  0  0  0  0
    4.5981   -2.7480    0.0000 C   0  0  0  0  0  0  0  0  0  0  0  0
   10.0109    2.9544    0.0000 C   0  0  0  0  0  0  0  0  0  0  0  0
    8.0622    1.2520    0.0000 C   0  0  0  0  0  0  0  0  0  0  0  0
    6.3301   -2.7480    0.0000 C   0  0  0  0  0  0  0  0  0  0  0  0
   10.0497    0.3671    0.0000 C   0  0  0  0  0  0  0  0  0  0  0  0
    4.5981   -1.7480    0.0000 C   0  0  0  0  0  0  0  0  0  0  0  0
    3.7320   -3.2480    0.0000 C   0  0  0  0  0  0  0  0  0  0  0  0
   10.4176    3.8680    0.0000 C   0  0  0  0  0  0  0  0  0  0  0  0
    8.0622   -2.7480    0.0000 C   0  0  0  0  0  0  0  0  0  0  0  0
    3.7320   -1.2480    0.0000 C   0  0  0  0  0  0  0  0  0  0  0  0
    2.8660   -2.7480    0.0000 C   0  0  0  0  0  0  0  0  0  0  0  0
    2.8660   -1.7480    0.0000 C   0  0  0  0  0  0  0  0  0  0  0  0
    6.9841    0.3346    0.0000 H   0  0  0  0  0  0  0  0  0  0  0  0
    6.5856   -0.3557    0.0000 H   0  0  0  0  0  0  0  0  0  0  0  0
    5.4641   -3.8680    0.0000 H   0  0  0  0  0  0  0  0  0  0  0  0
    9.4432    0.2382    0.0000 H   0  0  0  0  0  0  0  0  0  0  0  0
   10.1786   -0.2393    0.0000 H   0  0  0  0  0  0  0  0  0  0  0  0
   10.6561    0.4960    0.0000 H   0  0  0  0  0  0  0  0  0  0  0  0
    5.1350   -1.4380    0.0000 H   0  0  0  0  0  0  0  0  0  0  0  0
    3.7320   -3.8680    0.0000 H   0  0  0  0  0  0  0  0  0  0  0  0
   10.9840    3.6158    0.0000 H   0  0  0  0  0  0  0  0  0  0  0  0
   10.6698    4.4344    0.0000 H   0  0  0  0  0  0  0  0  0  0  0  0
    9.8512    4.1202    0.0000 H   0  0  0  0  0  0  0  0  0  0  0  0
    3.7320   -0.6280    0.0000 H   0  0  0  0  0  0  0  0  0  0  0  0
    2.3291   -3.0580    0.0000 H   0  0  0  0  0  0  0  0  0  0  0  0
    9.4651   -2.9380    0.0000 H   0  0  0  0  0  0  0  0  0  0  0  0
    8.9282   -3.8680    0.0000 H   0  0  0  0  0  0  0  0  0  0  0  0
  1 11  1  0  0  0  0
  1 16  1  0  0  0  0
  2 26  1  0  0  0  0
  3 13  1  0  0  0  0
  3 17  1  0  0  0  0
  4 17  2  0  0  0  0
  5 15  1  0  0  0  0
  5 18  1  0  0  0  0
  5 29  1  0  0  0  0
  6 12  1  0  0  0  0
  6 16  2  0  0  0  0
  7 14  1  0  0  0  0
  7 18  2  0  0  0  0
  8 14  2  0  0  0  0
  8 23  1  0  0  0  0
  9 18  1  0  0  0  0
  9 23  2  0  0  0  0
 10 23  1  0  0  0  0
 10 40  1  0  0  0  0
 10 41  1  0  0  0  0
 11 12  2  0  0  0  0
 11 17  1  0  0  0  0
 12 19  1  0  0  0  0
 13 14  1  0  0  0  0
 13 27  1  0  0  0  0
 13 28  1  0  0  0  0
 15 20  2  0  0  0  0
 15 21  1  0  0  0  0
 16 22  1  0  0  0  0
 19 30  1  0  0  0  0
 19 31  1  0  0  0  0
 19 32  1  0  0  0  0
 20 24  1  0  0  0  0
 20 33  1  0  0  0  0
 21 25  2  0  0  0  0
 21 34  1  0  0  0  0
 22 35  1  0  0  0  0
 22 36  1  0  0  0  0
 22 37  1  0  0  0  0
 24 26  2  0  0  0  0
 24 38  1  0  0  0  0
 25 26  1  0  0  0  0
 25 39  1  0  0  0  0
M  END
> <PUBCHEM_COMPOUND_CID>
17396318

> <PUBCHEM_COMPOUND_CANONICALIZED>
1

> <PUBCHEM_CACTVS_COMPLEXITY>
482

> <PUBCHEM_CACTVS_HBOND_ACCEPTOR>
10

> <PUBCHEM_CACTVS_HBOND_DONOR>
2

> <PUBCHEM_CACTVS_ROTATABLE_BOND>
6

> <PUBCHEM_CACTVS_SUBSKEYS>
AAADccB7sQBAAAAAAAAAAAAAAAAAAWAAAAA8QAAAAAAAAAAB8AAAHwQQAAAACAih1woz2ZbIFAisASbybASC8KllCrgJmBUwbMiKLjrguZmHMYhukAL46WcQAAAAAAAAAAAAAAAAAAAAAAAAAAAAAAAAAA==

> <PUBCHEM_IUPAC_OPENEYE_NAME>
[4-amino-6-(4-fluoroanilino)-1,3,5-triazin-2-yl]methyl 2,4-dimethylthiazole-5-carboxylate

> <PUBCHEM_IUPAC_CAS_NAME>
2,4-dimethyl-5-thiazolecarboxylic acid [4-amino-6-(4-fluoroanilino)-1,3,5-triazin-2-yl]methyl ester

> <PUBCHEM_IUPAC_NAME>
[4-amino-6-(4-fluoroanilino)-1,3,5-triazin-2-yl]methyl 2,4-dimethyl-1,3-thiazole-5-carboxylate

> <PUBCHEM_IUPAC_SYSTEMATIC_NAME>
[4-azanyl-6-[(4-fluorophenyl)amino]-1,3,5-triazin-2-yl]methyl 2,4-dimethyl-1,3-thiazole-5-carboxylate

> <PUBCHEM_IUPAC_TRADITIONAL_NAME>
2,4-dimethylthiazole-5-carboxylic acid [4-amino-6-(4-fluoroanilino)-s-triazin-2-yl]methyl ester

> <PUBCHEM_IUPAC_INCHI>
InChI=1S/C16H15FN6O2S/c1-8-13(26-9(2)19-8)14(24)25-7-12-21-15(18)23-16(22-12)20-11-5-3-10(17)4-6-11/h3-6H,7H2,1-2H3,(H3,18,20,21,22,23)

> <PUBCHEM_IUPAC_INCHIKEY>
KGWNBTTUVASMOQ-UHFFFAOYSA-N

> <PUBCHEM_XLOGP3_AA>
3.1

> <PUBCHEM_EXACT_MASS>
374.096123

> <PUBCHEM_MOLECULAR_FORMULA>
C16H15FN6O2S

> <PUBCHEM_MOLECULAR_WEIGHT>
374.392703

> <PUBCHEM_OPENEYE_CAN_SMILES>
CC1=C(SC(=N1)C)C(=O)OCC2=NC(=NC(=N2)NC3=CC=C(C=C3)F)N

> <PUBCHEM_OPENEYE_ISO_SMILES>
CC1=C(SC(=N1)C)C(=O)OCC2=NC(=NC(=N2)NC3=CC=C(C=C3)F)N

> <PUBCHEM_CACTVS_TPSA>
144

> <PUBCHEM_MONOISOTOPIC_WEIGHT>
374.096123

> <PUBCHEM_TOTAL_CHARGE>
0

> <PUBCHEM_HEAVY_ATOM_COUNT>
26

> <PUBCHEM_ATOM_DEF_STEREO_COUNT>
0

> <PUBCHEM_ATOM_UDEF_STEREO_COUNT>
0

> <PUBCHEM_BOND_DEF_STEREO_COUNT>
0

> <PUBCHEM_BOND_UDEF_STEREO_COUNT>
0

> <PUBCHEM_ISOTOPIC_ATOM_COUNT>
0

> <PUBCHEM_COMPONENT_COUNT>
1

> <PUBCHEM_CACTVS_TAUTO_COUNT>
9

> <PUBCHEM_COORDINATE_TYPE>
1
5
255

> <PUBCHEM_BONDANNOTATIONS>
1  11  8
1  16  8
11  12  8
15  20  8
15  21  8
20  24  8
21  25  8
24  26  8
25  26  8
6  12  8
6  16  8
7  14  8
7  18  8
8  14  8
8  23  8
9  18  8
9  23  8

$$$$

