14381
  -OEChem-06241222432D

 63 62  0     0  0  0  0  0  0999 V2000
    8.9282    5.2500    0.0000 I   0  0  0  0  0  0  0  0  0  0  0  0
    3.7320   -3.7500    0.0000 I   0  0  0  0  0  0  0  0  0  0  0  0
   10.6603    2.2500    0.0000 I   0  0  0  0  0  0  0  0  0  0  0  0
    7.1962   -3.7500    0.0000 I   0  0  0  0  0  0  0  0  0  0  0  0
   12.3923    5.2500    0.0000 I   0  0  0  0  0  0  0  0  0  0  0  0
    5.4641   -6.7500    0.0000 I   0  0  0  0  0  0  0  0  0  0  0  0
    7.1962    0.2500    0.0000 Ca  0  2  0  0  0  0  0  0  0  0  0  0
    8.0622    0.7500    0.0000 O   0  5  0  0  0  0  0  0  0  0  0  0
    7.1962   -0.7500    0.0000 O   0  5  0  0  0  0  0  0  0  0  0  0
    7.1962    2.2500    0.0000 O   0  0  0  0  0  0  0  0  0  0  0  0
    5.4641   -0.7500    0.0000 O   0  0  0  0  0  0  0  0  0  0  0  0
   10.6603    6.2500    0.0000 N   0  0  0  0  0  0  0  0  0  0  0  0
    3.7320   -5.7500    0.0000 N   0  0  0  0  0  0  0  0  0  0  0  0
   11.5263    7.7500    0.0000 N   0  0  0  0  0  0  0  0  0  0  0  0
    2.8660   -7.2500    0.0000 N   0  0  0  0  0  0  0  0  0  0  0  0
    8.9282    3.2500    0.0000 C   0  0  0  0  0  0  0  0  0  0  0  0
    5.4641   -2.7500    0.0000 C   0  0  0  0  0  0  0  0  0  0  0  0
    9.7942    3.7500    0.0000 C   0  0  0  0  0  0  0  0  0  0  0  0
    5.4641   -3.7500    0.0000 C   0  0  0  0  0  0  0  0  0  0  0  0
    6.3301   -2.2500    0.0000 C   0  0  0  0  0  0  0  0  0  0  0  0
    8.9282    2.2500    0.0000 C   0  0  0  0  0  0  0  0  0  0  0  0
    9.7942    4.7500    0.0000 C   0  0  0  0  0  0  0  0  0  0  0  0
    4.5981   -4.2500    0.0000 C   0  0  0  0  0  0  0  0  0  0  0  0
   10.6603    3.2500    0.0000 C   0  0  0  0  0  0  0  0  0  0  0  0
    6.3301   -4.2500    0.0000 C   0  0  0  0  0  0  0  0  0  0  0  0
   10.6603    5.2500    0.0000 C   0  0  0  0  0  0  0  0  0  0  0  0
    4.5981   -5.2500    0.0000 C   0  0  0  0  0  0  0  0  0  0  0  0
   11.5263    3.7500    0.0000 C   0  0  0  0  0  0  0  0  0  0  0  0
    6.3301   -5.2500    0.0000 C   0  0  0  0  0  0  0  0  0  0  0  0
   11.5263    4.7500    0.0000 C   0  0  0  0  0  0  0  0  0  0  0  0
    5.4641   -5.7500    0.0000 C   0  0  0  0  0  0  0  0  0  0  0  0
    8.0622    1.7500    0.0000 C   0  0  0  0  0  0  0  0  0  0  0  0
    6.3301   -1.2500    0.0000 C   0  0  0  0  0  0  0  0  0  0  0  0
   11.5263    6.7500    0.0000 C   0  0  0  0  0  0  0  0  0  0  0  0
    3.7320   -6.7500    0.0000 C   0  0  0  0  0  0  0  0  0  0  0  0
   12.3923    8.2500    0.0000 C   0  0  0  0  0  0  0  0  0  0  0  0
   10.6603    8.2500    0.0000 C   0  0  0  0  0  0  0  0  0  0  0  0
    2.8660   -8.2500    0.0000 C   0  0  0  0  0  0  0  0  0  0  0  0
    2.0000   -6.7500    0.0000 C   0  0  0  0  0  0  0  0  0  0  0  0
    8.7162    3.8326    0.0000 H   0  0  0  0  0  0  0  0  0  0  0  0
    8.3176    3.1423    0.0000 H   0  0  0  0  0  0  0  0  0  0  0  0
    5.2520   -2.1674    0.0000 H   0  0  0  0  0  0  0  0  0  0  0  0
    4.8535   -2.8577    0.0000 H   0  0  0  0  0  0  0  0  0  0  0  0
    6.5422   -2.8326    0.0000 H   0  0  0  0  0  0  0  0  0  0  0  0
    6.9407   -2.1423    0.0000 H   0  0  0  0  0  0  0  0  0  0  0  0
    9.1403    1.6674    0.0000 H   0  0  0  0  0  0  0  0  0  0  0  0
    9.5388    2.3577    0.0000 H   0  0  0  0  0  0  0  0  0  0  0  0
   12.0632    3.4400    0.0000 H   0  0  0  0  0  0  0  0  0  0  0  0
    6.8671   -5.5600    0.0000 H   0  0  0  0  0  0  0  0  0  0  0  0
   12.0632    6.4400    0.0000 H   0  0  0  0  0  0  0  0  0  0  0  0
    4.2690   -7.0600    0.0000 H   0  0  0  0  0  0  0  0  0  0  0  0
    2.3100   -6.2131    0.0000 H   0  0  0  0  0  0  0  0  0  0  0  0
    1.4631   -6.4400    0.0000 H   0  0  0  0  0  0  0  0  0  0  0  0
    1.6900   -7.2869    0.0000 H   0  0  0  0  0  0  0  0  0  0  0  0
    2.2460   -8.2500    0.0000 H   0  0  0  0  0  0  0  0  0  0  0  0
    2.8660   -8.8700    0.0000 H   0  0  0  0  0  0  0  0  0  0  0  0
    3.4860   -8.2500    0.0000 H   0  0  0  0  0  0  0  0  0  0  0  0
   10.9703    8.7869    0.0000 H   0  0  0  0  0  0  0  0  0  0  0  0
   10.1233    8.5600    0.0000 H   0  0  0  0  0  0  0  0  0  0  0  0
   10.3503    7.7131    0.0000 H   0  0  0  0  0  0  0  0  0  0  0  0
   12.7023    7.7131    0.0000 H   0  0  0  0  0  0  0  0  0  0  0  0
   12.9292    8.5600    0.0000 H   0  0  0  0  0  0  0  0  0  0  0  0
   12.0823    8.7869    0.0000 H   0  0  0  0  0  0  0  0  0  0  0  0
  1 22  1  0  0  0  0
  2 23  1  0  0  0  0
  3 24  1  0  0  0  0
  4 25  1  0  0  0  0
  5 30  1  0  0  0  0
  6 31  1  0  0  0  0
  8 32  1  0  0  0  0
  9 33  1  0  0  0  0
 10 32  2  0  0  0  0
 11 33  2  0  0  0  0
 12 26  1  0  0  0  0
 12 34  2  0  0  0  0
 13 27  1  0  0  0  0
 13 35  2  0  0  0  0
 14 34  1  0  0  0  0
 14 36  1  0  0  0  0
 14 37  1  0  0  0  0
 15 35  1  0  0  0  0
 15 38  1  0  0  0  0
 15 39  1  0  0  0  0
 16 18  1  0  0  0  0
 16 21  1  0  0  0  0
 16 40  1  0  0  0  0
 16 41  1  0  0  0  0
 17 19  1  0  0  0  0
 17 20  1  0  0  0  0
 17 42  1  0  0  0  0
 17 43  1  0  0  0  0
 18 22  2  0  0  0  0
 18 24  1  0  0  0  0
 19 23  2  0  0  0  0
 19 25  1  0  0  0  0
 20 33  1  0  0  0  0
 20 44  1  0  0  0  0
 20 45  1  0  0  0  0
 21 32  1  0  0  0  0
 21 46  1  0  0  0  0
 21 47  1  0  0  0  0
 22 26  1  0  0  0  0
 23 27  1  0  0  0  0
 24 28  2  0  0  0  0
 25 29  2  0  0  0  0
 26 30  2  0  0  0  0
 27 31  2  0  0  0  0
 28 30  1  0  0  0  0
 28 48  1  0  0  0  0
 29 31  1  0  0  0  0
 29 49  1  0  0  0  0
 34 50  1  0  0  0  0
 35 51  1  0  0  0  0
 36 61  1  0  0  0  0
 36 62  1  0  0  0  0
 36 63  1  0  0  0  0
 37 58  1  0  0  0  0
 37 59  1  0  0  0  0
 37 60  1  0  0  0  0
 38 55  1  0  0  0  0
 38 56  1  0  0  0  0
 38 57  1  0  0  0  0
 39 52  1  0  0  0  0
 39 53  1  0  0  0  0
 39 54  1  0  0  0  0
M  CHG  3   7   2   8  -1   9  -1
M  END
> <PUBCHEM_COMPOUND_CID>
14381

> <PUBCHEM_COMPOUND_CANONICALIZED>
1

> <PUBCHEM_CACTVS_COMPLEXITY>
333

> <PUBCHEM_CACTVS_HBOND_ACCEPTOR>
6

> <PUBCHEM_CACTVS_HBOND_DONOR>
0

> <PUBCHEM_CACTVS_ROTATABLE_BOND>
8

> <PUBCHEM_CACTVS_SUBSKEYS>
AAADceB7uAAAA4gAAAAAAAAAAAAAAAAAAAAwYAAAAAAAAAABQAAAHgAgAAAADAiDmAQzyIMAAACoAiTTbACCAAEgAAABiAEIRIgIIDKAkJGAIABkgAAIyAeYyKCOAAAAQAAAAAAAAACAAAAAAAAAAAAAAA==

> <PUBCHEM_IUPAC_OPENEYE_NAME>
calcium 3-[3-(dimethylaminomethyleneamino)-2,4,6-triiodo-phenyl]propanoate

> <PUBCHEM_IUPAC_CAS_NAME>
calcium 3-[3-(dimethylaminomethylideneamino)-2,4,6-triiodophenyl]propanoate

> <PUBCHEM_IUPAC_NAME>
calcium 3-[3-(dimethylaminomethylideneamino)-2,4,6-triiodophenyl]propanoate

> <PUBCHEM_IUPAC_SYSTEMATIC_NAME>
calcium 3-[3-(dimethylaminomethylideneamino)-2,4,6-tris(iodanyl)phenyl]propanoate

> <PUBCHEM_IUPAC_TRADITIONAL_NAME>
calcium 3-[3-(dimethylaminomethyleneamino)-2,4,6-triiodo-phenyl]propionate

> <PUBCHEM_IUPAC_INCHI>
InChI=1S/2C12H13I3N2O2.Ca/c2*1-17(2)6-16-12-9(14)5-8(13)7(11(12)15)3-4-10(18)19;/h2*5-6H,3-4H2,1-2H3,(H,18,19);/q;;+2/p-2

> <PUBCHEM_IUPAC_INCHIKEY>
HVZGHKKROPCBDE-UHFFFAOYSA-L

> <PUBCHEM_EXACT_MASS>
1233.569184

> <PUBCHEM_MOLECULAR_FORMULA>
C24H24CaI6N4O4

> <PUBCHEM_MOLECULAR_WEIGHT>
1233.97658

> <PUBCHEM_OPENEYE_CAN_SMILES>
CN(C)C=NC1=C(C=C(C(=C1I)CCC(=O)[O-])I)I.CN(C)C=NC1=C(C=C(C(=C1I)CCC(=O)[O-])I)I.[Ca+2]

> <PUBCHEM_OPENEYE_ISO_SMILES>
CN(C)C=NC1=C(C=C(C(=C1I)CCC(=O)[O-])I)I.CN(C)C=NC1=C(C=C(C(=C1I)CCC(=O)[O-])I)I.[Ca+2]

> <PUBCHEM_CACTVS_TPSA>
112

> <PUBCHEM_MONOISOTOPIC_WEIGHT>
1233.569184

> <PUBCHEM_TOTAL_CHARGE>
0

> <PUBCHEM_HEAVY_ATOM_COUNT>
39

> <PUBCHEM_ATOM_DEF_STEREO_COUNT>
0

> <PUBCHEM_ATOM_UDEF_STEREO_COUNT>
0

> <PUBCHEM_BOND_DEF_STEREO_COUNT>
0

> <PUBCHEM_BOND_UDEF_STEREO_COUNT>
0

> <PUBCHEM_ISOTOPIC_ATOM_COUNT>
0

> <PUBCHEM_COMPONENT_COUNT>
3

> <PUBCHEM_CACTVS_TAUTO_COUNT>
1

> <PUBCHEM_COORDINATE_TYPE>
1
5
255

> <PUBCHEM_BONDANNOTATIONS>
18  22  8
18  24  8
19  23  8
19  25  8
22  26  8
23  27  8
24  28  8
25  29  8
26  30  8
27  31  8
28  30  8
29  31  8

$$$$

