14075
  -OEChem-06241222412D

 11 11  0     0  0  0  0  0  0999 V2000
    2.8090   -0.3649    0.0000 S   0  0  0  0  0  0  0  0  0  0  0  0
    3.6180    0.2229    0.0000 O   0  0  0  0  0  0  0  0  0  0  0  0
    2.0000    0.2229    0.0000 O   0  0  0  0  0  0  0  0  0  0  0  0
    2.2212   -1.1739    0.0000 O   0  0  0  0  0  0  0  0  0  0  0  0
    3.3968   -1.1739    0.0000 O   0  0  0  0  0  0  0  0  0  0  0  0
    3.3090    1.1739    0.0000 C   0  0  0  0  0  0  0  0  0  0  0  0
    2.3090    1.1739    0.0000 C   0  0  0  0  0  0  0  0  0  0  0  0
    3.9155    1.3028    0.0000 H   0  0  0  0  0  0  0  0  0  0  0  0
    3.2442    1.7905    0.0000 H   0  0  0  0  0  0  0  0  0  0  0  0
    2.3738    1.7905    0.0000 H   0  0  0  0  0  0  0  0  0  0  0  0
    1.7026    1.3028    0.0000 H   0  0  0  0  0  0  0  0  0  0  0  0
  1  2  1  0  0  0  0
  1  3  1  0  0  0  0
  1  4  2  0  0  0  0
  1  5  2  0  0  0  0
  2  6  1  0  0  0  0
  3  7  1  0  0  0  0
  6  7  1  0  0  0  0
  6  8  1  0  0  0  0
  6  9  1  0  0  0  0
  7 10  1  0  0  0  0
  7 11  1  0  0  0  0
M  END
> <PUBCHEM_COMPOUND_CID>
14075

> <PUBCHEM_COMPOUND_CANONICALIZED>
1

> <PUBCHEM_CACTVS_COMPLEXITY>
128

> <PUBCHEM_CACTVS_HBOND_ACCEPTOR>
4

> <PUBCHEM_CACTVS_HBOND_DONOR>
0

> <PUBCHEM_CACTVS_ROTATABLE_BOND>
0

> <PUBCHEM_CACTVS_SUBSKEYS>
AAADcYBAOABAAAAAAAAAAAAAAAAAASAAAAAAAAAAAAAAAAAAAAAAGgAAAAAAAACggAIAAAAAAAAAAAAAADAAAAAAAAAAAAAAAAABAAAAAAAAAAAAAAAAAAAAAAAAAAAAAAAAAAAAAAAAAAAAAAAAAAAAAA==

> <PUBCHEM_IUPAC_OPENEYE_NAME>
1,3,2-dioxathiolane 2,2-dioxide

> <PUBCHEM_IUPAC_CAS_NAME>
1,3,2-dioxathiolane 2,2-dioxide

> <PUBCHEM_IUPAC_NAME>
1,3,2-dioxathiolane 2,2-dioxide

> <PUBCHEM_IUPAC_SYSTEMATIC_NAME>
1,3,2-dioxathiolane 2,2-dioxide

> <PUBCHEM_IUPAC_TRADITIONAL_NAME>
1,3,2-dioxathiolane 2,2-dioxide

> <PUBCHEM_IUPAC_INCHI>
InChI=1S/C2H4O4S/c3-7(4)5-1-2-6-7/h1-2H2

> <PUBCHEM_IUPAC_INCHIKEY>
ZPFAVCIQZKRBGF-UHFFFAOYSA-N

> <PUBCHEM_XLOGP3_AA>
-0.5

> <PUBCHEM_EXACT_MASS>
123.98303

> <PUBCHEM_MOLECULAR_FORMULA>
C2H4O4S

> <PUBCHEM_MOLECULAR_WEIGHT>
124.11576

> <PUBCHEM_OPENEYE_CAN_SMILES>
C1COS(=O)(=O)O1

> <PUBCHEM_OPENEYE_ISO_SMILES>
C1COS(=O)(=O)O1

> <PUBCHEM_CACTVS_TPSA>
61

> <PUBCHEM_MONOISOTOPIC_WEIGHT>
123.98303

> <PUBCHEM_TOTAL_CHARGE>
0

> <PUBCHEM_HEAVY_ATOM_COUNT>
7

> <PUBCHEM_ATOM_DEF_STEREO_COUNT>
0

> <PUBCHEM_ATOM_UDEF_STEREO_COUNT>
0

> <PUBCHEM_BOND_DEF_STEREO_COUNT>
0

> <PUBCHEM_BOND_UDEF_STEREO_COUNT>
0

> <PUBCHEM_ISOTOPIC_ATOM_COUNT>
0

> <PUBCHEM_COMPONENT_COUNT>
1

> <PUBCHEM_CACTVS_TAUTO_COUNT>
1

> <PUBCHEM_COORDINATE_TYPE>
1
5
255

$$$$

