47205338
  -OEChem-06241222582D

 33 34  0     0  0  0  0  0  0999 V2000
    3.3660   -3.7694    0.0000 S   0  0  0  0  0  0  0  0  0  0  0  0
    5.4641    0.2694    0.0000 O   0  0  0  0  0  0  0  0  0  0  0  0
    2.0000   -0.7306    0.0000 O   0  0  0  0  0  0  0  0  0  0  0  0
    4.5981    1.7694    0.0000 N   0  0  0  0  0  0  0  0  0  0  0  0
    3.7320   -0.7306    0.0000 N   0  0  0  0  0  0  0  0  0  0  0  0
    4.5981    3.7694    0.0000 C   0  0  0  0  0  0  0  0  0  0  0  0
    3.7320    3.2694    0.0000 C   0  0  0  0  0  0  0  0  0  0  0  0
    5.4641    3.2694    0.0000 C   0  0  0  0  0  0  0  0  0  0  0  0
    3.7320    2.2694    0.0000 C   0  0  0  0  0  0  0  0  0  0  0  0
    5.4641    2.2694    0.0000 C   0  0  0  0  0  0  0  0  0  0  0  0
    4.5981    0.7694    0.0000 C   0  0  0  0  0  0  0  0  0  0  0  0
    3.7320    0.2694    0.0000 C   0  0  0  0  0  0  0  0  0  0  0  0
    2.8660   -1.2306    0.0000 C   0  0  0  0  0  0  0  0  0  0  0  0
    2.8660   -2.2306    0.0000 C   0  0  0  0  0  0  0  0  0  0  0  0
    2.0570   -2.8184    0.0000 C   0  0  0  0  0  0  0  0  0  0  0  0
    3.6750   -2.8184    0.0000 C   0  0  0  0  0  0  0  0  0  0  0  0
    2.3660   -3.7694    0.0000 C   0  0  0  0  0  0  0  0  0  0  0  0
    4.9966    4.2444    0.0000 H   0  0  0  0  0  0  0  0  0  0  0  0
    4.1996    4.2444    0.0000 H   0  0  0  0  0  0  0  0  0  0  0  0
    3.5200    3.8520    0.0000 H   0  0  0  0  0  0  0  0  0  0  0  0
    3.1215    3.1618    0.0000 H   0  0  0  0  0  0  0  0  0  0  0  0
    6.0747    3.1618    0.0000 H   0  0  0  0  0  0  0  0  0  0  0  0
    5.6762    3.8520    0.0000 H   0  0  0  0  0  0  0  0  0  0  0  0
    3.1215    2.3771    0.0000 H   0  0  0  0  0  0  0  0  0  0  0  0
    3.5200    1.6868    0.0000 H   0  0  0  0  0  0  0  0  0  0  0  0
    5.6762    1.6868    0.0000 H   0  0  0  0  0  0  0  0  0  0  0  0
    6.0747    2.3771    0.0000 H   0  0  0  0  0  0  0  0  0  0  0  0
    3.5200    0.8520    0.0000 H   0  0  0  0  0  0  0  0  0  0  0  0
    3.1215    0.1618    0.0000 H   0  0  0  0  0  0  0  0  0  0  0  0
    4.2690   -1.0406    0.0000 H   0  0  0  0  0  0  0  0  0  0  0  0
    1.4674   -2.6268    0.0000 H   0  0  0  0  0  0  0  0  0  0  0  0
    4.2647   -2.6268    0.0000 H   0  0  0  0  0  0  0  0  0  0  0  0
    2.0016   -4.2710    0.0000 H   0  0  0  0  0  0  0  0  0  0  0  0
  1 16  1  0  0  0  0
  1 17  1  0  0  0  0
  2 11  2  0  0  0  0
  3 13  2  0  0  0  0
  4  9  1  0  0  0  0
  4 10  1  0  0  0  0
  4 11  1  0  0  0  0
  5 12  1  0  0  0  0
  5 13  1  0  0  0  0
  5 30  1  0  0  0  0
  6  7  1  0  0  0  0
  6  8  1  0  0  0  0
  6 18  1  0  0  0  0
  6 19  1  0  0  0  0
  7  9  1  0  0  0  0
  7 20  1  0  0  0  0
  7 21  1  0  0  0  0
  8 10  1  0  0  0  0
  8 22  1  0  0  0  0
  8 23  1  0  0  0  0
  9 24  1  0  0  0  0
  9 25  1  0  0  0  0
 10 26  1  0  0  0  0
 10 27  1  0  0  0  0
 11 12  1  0  0  0  0
 12 28  1  0  0  0  0
 12 29  1  0  0  0  0
 13 14  1  0  0  0  0
 14 15  1  0  0  0  0
 14 16  2  0  0  0  0
 15 17  2  0  0  0  0
 15 31  1  0  0  0  0
 16 32  1  0  0  0  0
 17 33  1  0  0  0  0
M  END
> <PUBCHEM_COMPOUND_CID>
47205338

> <PUBCHEM_COMPOUND_CANONICALIZED>
1

> <PUBCHEM_CACTVS_COMPLEXITY>
290

> <PUBCHEM_CACTVS_HBOND_ACCEPTOR>
3

> <PUBCHEM_CACTVS_HBOND_DONOR>
1

> <PUBCHEM_CACTVS_ROTATABLE_BOND>
3

> <PUBCHEM_CACTVS_SUBSKEYS>
AAADceBzMABAAAAAAAAAAAAAAAAAASAAAAAsAAAAAAAAAAABgAAAHgQQAAAADADF2ASwAYPAAAiMAiFSEACDAIAkCBBIiJmIBMgIYBIghSEUAQhABgCgAYAQAAAIAAAAAAAAAAAAAAAAAAAAAAAAAAAAAA==

> <PUBCHEM_IUPAC_OPENEYE_NAME>
N-[2-oxo-2-(1-piperidyl)ethyl]thiophene-3-carboxamide

> <PUBCHEM_IUPAC_CAS_NAME>
N-[2-oxo-2-(1-piperidinyl)ethyl]-3-thiophenecarboxamide

> <PUBCHEM_IUPAC_NAME>
N-(2-oxo-2-piperidin-1-ylethyl)thiophene-3-carboxamide

> <PUBCHEM_IUPAC_SYSTEMATIC_NAME>
N-(2-oxidanylidene-2-piperidin-1-yl-ethyl)thiophene-3-carboxamide

> <PUBCHEM_IUPAC_TRADITIONAL_NAME>
N-(2-keto-2-piperidino-ethyl)thiophene-3-carboxamide

> <PUBCHEM_IUPAC_INCHI>
InChI=1S/C12H16N2O2S/c15-11(14-5-2-1-3-6-14)8-13-12(16)10-4-7-17-9-10/h4,7,9H,1-3,5-6,8H2,(H,13,16)

> <PUBCHEM_IUPAC_INCHIKEY>
HUFNNRLJYOIHJS-UHFFFAOYSA-N

> <PUBCHEM_XLOGP3_AA>
1.3

> <PUBCHEM_EXACT_MASS>
252.093249

> <PUBCHEM_MOLECULAR_FORMULA>
C12H16N2O2S

> <PUBCHEM_MOLECULAR_WEIGHT>
252.33264

> <PUBCHEM_OPENEYE_CAN_SMILES>
C1CCN(CC1)C(=O)CNC(=O)C2=CSC=C2

> <PUBCHEM_OPENEYE_ISO_SMILES>
C1CCN(CC1)C(=O)CNC(=O)C2=CSC=C2

> <PUBCHEM_CACTVS_TPSA>
77.6

> <PUBCHEM_MONOISOTOPIC_WEIGHT>
252.093249

> <PUBCHEM_TOTAL_CHARGE>
0

> <PUBCHEM_HEAVY_ATOM_COUNT>
17

> <PUBCHEM_ATOM_DEF_STEREO_COUNT>
0

> <PUBCHEM_ATOM_UDEF_STEREO_COUNT>
0

> <PUBCHEM_BOND_DEF_STEREO_COUNT>
0

> <PUBCHEM_BOND_UDEF_STEREO_COUNT>
0

> <PUBCHEM_ISOTOPIC_ATOM_COUNT>
0

> <PUBCHEM_COMPONENT_COUNT>
1

> <PUBCHEM_CACTVS_TAUTO_COUNT>
2

> <PUBCHEM_COORDINATE_TYPE>
1
5
255

> <PUBCHEM_BONDANNOTATIONS>
1  16  8
1  17  8
14  15  8
14  16  8
15  17  8

$$$$

