12258
  -OEChem-06261206432D

 13 12  0     0  0  0  0  0  0999 V2000
    2.0000    0.5950    0.0000 S   0  0  0  0  0  0  0  0  0  0  0  0
    3.7321    0.5950    0.0000 O   0  0  0  0  0  0  0  0  0  0  0  0
    2.8660   -0.9050    0.0000 N   0  0  0  0  0  0  0  0  0  0  0  0
    4.5981    0.0950    0.0000 C   0  0  0  0  0  0  0  0  0  0  0  0
    5.4641    0.5950    0.0000 C   0  0  0  0  0  0  0  0  0  0  0  0
    2.8660    0.0950    0.0000 C   0  0  0  0  0  0  0  0  0  0  0  0
    4.1995   -0.3799    0.0000 H   0  0  0  0  0  0  0  0  0  0  0  0
    4.9966   -0.3799    0.0000 H   0  0  0  0  0  0  0  0  0  0  0  0
    5.7741    0.0581    0.0000 H   0  0  0  0  0  0  0  0  0  0  0  0
    6.0010    0.9050    0.0000 H   0  0  0  0  0  0  0  0  0  0  0  0
    5.1541    1.1319    0.0000 H   0  0  0  0  0  0  0  0  0  0  0  0
    2.0000    1.2150    0.0000 H   0  0  0  0  0  0  0  0  0  0  0  0
    2.3291   -1.2150    0.0000 H   0  0  0  0  0  0  0  0  0  0  0  0
  1  6  1  0  0  0  0
  1 12  1  0  0  0  0
  2  4  1  0  0  0  0
  2  6  1  0  0  0  0
  3  6  2  0  0  0  0
  3 13  1  0  0  0  0
  4  5  1  0  0  0  0
  4  7  1  0  0  0  0
  4  8  1  0  0  0  0
  5  9  1  0  0  0  0
  5 10  1  0  0  0  0
  5 11  1  0  0  0  0
M  END
> <PUBCHEM_COMPOUND_CID>
12258

> <PUBCHEM_COMPOUND_CANONICALIZED>
1

> <PUBCHEM_CACTVS_COMPLEXITY>
54.8

> <PUBCHEM_CACTVS_HBOND_ACCEPTOR>
3

> <PUBCHEM_CACTVS_HBOND_DONOR>
2

> <PUBCHEM_CACTVS_ROTATABLE_BOND>
2

> <PUBCHEM_CACTVS_SUBSKEYS>
AAADcYBCIABAAAAAAAAAAAAAAAAAAAAAAAAAAAAAAAAAAAAAAAAAHgQQAAAAAACggAICAABABAQgAAAAAAAAAgAAAAAAAAAAAAAAAAAAAAAAAAAAAAAAAAAAAAAAAAAAAAAAAAAAAAAAAAAAAAAAAAAAAA==

> <PUBCHEM_IUPAC_OPENEYE_NAME>
ethoxymethanimidothioic acid

> <PUBCHEM_IUPAC_CAS_NAME>
ethoxymethanimidothioic acid

> <PUBCHEM_IUPAC_NAME>
ethoxymethanimidothioic acid

> <PUBCHEM_IUPAC_SYSTEMATIC_NAME>
ethoxymethanimidothioic acid

> <PUBCHEM_IUPAC_TRADITIONAL_NAME>
ethoxythioformimidic acid

> <PUBCHEM_IUPAC_INCHI>
InChI=1S/C3H7NOS/c1-2-5-3(4)6/h2H2,1H3,(H2,4,6)

> <PUBCHEM_IUPAC_INCHIKEY>
PWZUZQNZVZKCBI-UHFFFAOYSA-N

> <PUBCHEM_XLOGP3_AA>
1.2

> <PUBCHEM_EXACT_MASS>
105.024835

> <PUBCHEM_MOLECULAR_FORMULA>
C3H7NOS

> <PUBCHEM_MOLECULAR_WEIGHT>
105.15878

> <PUBCHEM_OPENEYE_CAN_SMILES>
CCOC(=N)S

> <PUBCHEM_OPENEYE_ISO_SMILES>
CCOC(=N)S

> <PUBCHEM_CACTVS_TPSA>
34.1

> <PUBCHEM_MONOISOTOPIC_WEIGHT>
105.024835

> <PUBCHEM_TOTAL_CHARGE>
0

> <PUBCHEM_HEAVY_ATOM_COUNT>
6

> <PUBCHEM_ATOM_DEF_STEREO_COUNT>
0

> <PUBCHEM_ATOM_UDEF_STEREO_COUNT>
0

> <PUBCHEM_BOND_DEF_STEREO_COUNT>
0

> <PUBCHEM_BOND_UDEF_STEREO_COUNT>
0

> <PUBCHEM_ISOTOPIC_ATOM_COUNT>
0

> <PUBCHEM_COMPONENT_COUNT>
1

> <PUBCHEM_CACTVS_TAUTO_COUNT>
2

> <PUBCHEM_COORDINATE_TYPE>
1
5
255

$$$$

