12627
  -OEChem-06261207102D

 85 90  0     1  0  0  0  0  0999 V2000
   11.7213   -1.3977    0.0000 O   0  0  0  0  0  0  0  0  0  0  0  0
    8.1716    0.6593    0.0000 O   0  0  0  0  0  0  0  0  0  0  0  0
    6.3282   -2.4500    0.0000 O   0  0  0  0  0  0  0  0  0  0  0  0
   12.9809    3.4756    0.0000 O   0  0  0  0  0  0  0  0  0  0  0  0
    5.4679   -0.9467    0.0000 O   0  0  0  0  0  0  0  0  0  0  0  0
   14.7415    3.7513    0.0000 O   0  0  0  0  0  0  0  0  0  0  0  0
    4.5923   -3.4434    0.0000 O   0  0  0  0  0  0  0  0  0  0  0  0
    2.8641   -2.4367    0.0000 O   0  0  0  0  0  0  0  0  0  0  0  0
    2.8718   -0.4367    0.0000 O   0  0  0  0  0  0  0  0  0  0  0  0
   11.7213   -0.3977    0.0000 C   0  0  1  0  0  0  0  0  0  0  0  0
   10.8552   -0.8977    0.0000 C   0  0  3  0  0  0  0  0  0  0  0  0
    9.9892   -0.3977    0.0000 C   0  0  3  0  0  0  0  0  0  0  0  0
   11.7213    0.6023    0.0000 C   0  0  2  0  0  0  0  0  0  0  0  0
    9.0792   -0.9046    0.0000 C   0  0  2  0  0  0  0  0  0  0  0  0
    9.0712   -1.9462    0.0000 C   0  0  2  0  0  0  0  0  0  0  0  0
    9.9892    0.6023    0.0000 C   0  0  0  0  0  0  0  0  0  0  0  0
   10.8552    1.1023    0.0000 C   0  0  0  0  0  0  0  0  0  0  0  0
   12.6675    0.9070    0.0000 C   0  0  2  0  0  0  0  0  0  0  0  0
   10.8713   -1.9392    0.0000 C   0  0  0  0  0  0  0  0  0  0  0  0
   12.6675   -0.7024    0.0000 C   0  0  0  0  0  0  0  0  0  0  0  0
    9.9732   -2.4670    0.0000 C   0  0  0  0  0  0  0  0  0  0  0  0
   13.2511    0.1023    0.0000 C   0  0  0  0  0  0  0  0  0  0  0  0
    8.1524   -0.3405    0.0000 C   0  0  1  0  0  0  0  0  0  0  0  0
    8.1358   -2.4959    0.0000 C   0  0  0  0  0  0  0  0  0  0  0  0
   11.7213    1.6023    0.0000 C   0  0  0  0  0  0  0  0  0  0  0  0
    9.0869    0.0954    0.0000 C   0  0  0  0  0  0  0  0  0  0  0  0
    7.2045   -0.8684    0.0000 C   0  0  0  0  0  0  0  0  0  0  0  0
    7.1961   -1.9534    0.0000 C   0  0  2  0  0  0  0  0  0  0  0  0
   12.9781    1.8575    0.0000 C   0  0  0  0  0  0  0  0  0  0  0  0
   12.3917    2.6676    0.0000 C   0  0  0  0  0  0  0  0  0  0  0  0
   13.9297    2.1649    0.0000 C   0  0  0  0  0  0  0  0  0  0  0  0
    5.4641   -1.9467    0.0000 C   0  0  1  0  0  0  0  0  0  0  0  0
   13.9315    3.1649    0.0000 C   0  0  0  0  0  0  0  0  0  0  0  0
    4.5961   -2.4434    0.0000 C   0  0  3  0  0  0  0  0  0  0  0  0
    3.7320   -1.9400    0.0000 C   0  0  3  0  0  0  0  0  0  0  0  0
    4.6038   -0.4434    0.0000 C   0  0  3  0  0  0  0  0  0  0  0  0
    3.7359   -0.9400    0.0000 C   0  0  2  0  0  0  0  0  0  0  0  0
    4.6077    0.5566    0.0000 C   0  0  0  0  0  0  0  0  0  0  0  0
    2.0000   -1.9334    0.0000 C   0  0  0  0  0  0  0  0  0  0  0  0
   11.3945   -1.2036    0.0000 H   0  0  0  0  0  0  0  0  0  0  0  0
   10.5261   -0.0877    0.0000 H   0  0  0  0  0  0  0  0  0  0  0  0
    9.0744   -2.7962    0.0000 H   0  0  0  0  0  0  0  0  0  0  0  0
    9.7772    1.1849    0.0000 H   0  0  0  0  0  0  0  0  0  0  0  0
    9.3786    0.4946    0.0000 H   0  0  0  0  0  0  0  0  0  0  0  0
   11.2538    1.5772    0.0000 H   0  0  0  0  0  0  0  0  0  0  0  0
   10.4567    1.5772    0.0000 H   0  0  0  0  0  0  0  0  0  0  0  0
   13.2800    1.0032    0.0000 H   0  0  0  0  0  0  0  0  0  0  0  0
   11.0893   -2.5196    0.0000 H   0  0  0  0  0  0  0  0  0  0  0  0
   11.4804   -1.8237    0.0000 H   0  0  0  0  0  0  0  0  0  0  0  0
   12.4164   -1.2694    0.0000 H   0  0  0  0  0  0  0  0  0  0  0  0
   13.2049   -1.0117    0.0000 H   0  0  0  0  0  0  0  0  0  0  0  0
    9.5759   -2.9430    0.0000 H   0  0  0  0  0  0  0  0  0  0  0  0
   10.3742   -2.9399    0.0000 H   0  0  0  0  0  0  0  0  0  0  0  0
   13.7120   -0.3124    0.0000 H   0  0  0  0  0  0  0  0  0  0  0  0
   13.7120    0.5170    0.0000 H   0  0  0  0  0  0  0  0  0  0  0  0
    8.6958   -0.0419    0.0000 H   0  0  0  0  0  0  0  0  0  0  0  0
    7.7384   -2.9719    0.0000 H   0  0  0  0  0  0  0  0  0  0  0  0
    8.5367   -2.9688    0.0000 H   0  0  0  0  0  0  0  0  0  0  0  0
   12.3413    1.6023    0.0000 H   0  0  0  0  0  0  0  0  0  0  0  0
   11.7213    2.2223    0.0000 H   0  0  0  0  0  0  0  0  0  0  0  0
   11.1013    1.6023    0.0000 H   0  0  0  0  0  0  0  0  0  0  0  0
    9.7069    0.0906    0.0000 H   0  0  0  0  0  0  0  0  0  0  0  0
    9.0917    0.7154    0.0000 H   0  0  0  0  0  0  0  0  0  0  0  0
    8.4669    0.1002    0.0000 H   0  0  0  0  0  0  0  0  0  0  0  0
    6.9999   -0.2831    0.0000 H   0  0  0  0  0  0  0  0  0  0  0  0
    6.5928   -0.9698    0.0000 H   0  0  0  0  0  0  0  0  0  0  0  0
    7.1949   -2.5734    0.0000 H   0  0  0  0  0  0  0  0  0  0  0  0
   12.2582   -1.7077    0.0000 H   0  0  0  0  0  0  0  0  0  0  0  0
    7.6408    0.9796    0.0000 H   0  0  0  0  0  0  0  0  0  0  0  0
   11.9317    3.0832    0.0000 H   0  0  0  0  0  0  0  0  0  0  0  0
   11.9303    2.2535    0.0000 H   0  0  0  0  0  0  0  0  0  0  0  0
   14.4307    1.7996    0.0000 H   0  0  0  0  0  0  0  0  0  0  0  0
    5.4617   -2.5667    0.0000 H   0  0  0  0  0  0  0  0  0  0  0  0
    5.1319   -2.7554    0.0000 H   0  0  0  0  0  0  0  0  0  0  0  0
    3.7296   -2.5600    0.0000 H   0  0  0  0  0  0  0  0  0  0  0  0
    5.1420   -0.1355    0.0000 H   0  0  0  0  0  0  0  0  0  0  0  0
    3.1978   -1.2480    0.0000 H   0  0  0  0  0  0  0  0  0  0  0  0
    4.0542   -3.7513    0.0000 H   0  0  0  0  0  0  0  0  0  0  0  0
    5.2277    0.5542    0.0000 H   0  0  0  0  0  0  0  0  0  0  0  0
    4.6101    1.1766    0.0000 H   0  0  0  0  0  0  0  0  0  0  0  0
    3.9877    0.5590    0.0000 H   0  0  0  0  0  0  0  0  0  0  0  0
    2.8742    0.1833    0.0000 H   0  0  0  0  0  0  0  0  0  0  0  0
    2.3121   -1.3976    0.0000 H   0  0  0  0  0  0  0  0  0  0  0  0
    1.4643   -1.6213    0.0000 H   0  0  0  0  0  0  0  0  0  0  0  0
    1.6879   -2.4691    0.0000 H   0  0  0  0  0  0  0  0  0  0  0  0
 10  1  1  1  0  0  0
  1 68  1  0  0  0  0
 23  2  1  1  0  0  0
  2 69  1  0  0  0  0
 28  3  1  1  0  0  0
 32  3  1  6  0  0  0
  4 30  1  0  0  0  0
  4 33  1  0  0  0  0
  5 32  1  0  0  0  0
  5 36  1  0  0  0  0
  6 33  2  0  0  0  0
  7 34  1  0  0  0  0
  7 78  1  0  0  0  0
  8 35  1  0  0  0  0
  8 39  1  0  0  0  0
 37  9  1  1  0  0  0
  9 82  1  0  0  0  0
 10 11  1  0  0  0  0
 10 13  1  0  0  0  0
 10 20  1  0  0  0  0
 11 12  1  0  0  0  0
 11 19  1  0  0  0  0
 11 40  1  0  0  0  0
 12 14  1  0  0  0  0
 12 16  1  0  0  0  0
 12 41  1  0  0  0  0
 13 17  1  0  0  0  0
 13 18  1  0  0  0  0
 13 25  1  1  0  0  0
 14 15  1  0  0  0  0
 14 23  1  0  0  0  0
 14 26  1  1  0  0  0
 15 21  1  0  0  0  0
 15 24  1  0  0  0  0
 15 42  1  1  0  0  0
 16 17  1  0  0  0  0
 16 43  1  0  0  0  0
 16 44  1  0  0  0  0
 17 45  1  0  0  0  0
 17 46  1  0  0  0  0
 18 22  1  0  0  0  0
 18 29  1  1  0  0  0
 18 47  1  0  0  0  0
 19 21  1  0  0  0  0
 19 48  1  0  0  0  0
 19 49  1  0  0  0  0
 20 22  1  0  0  0  0
 20 50  1  0  0  0  0
 20 51  1  0  0  0  0
 21 52  1  0  0  0  0
 21 53  1  0  0  0  0
 22 54  1  0  0  0  0
 22 55  1  0  0  0  0
 23 27  1  0  0  0  0
 23 56  1  0  0  0  0
 24 28  1  0  0  0  0
 24 57  1  0  0  0  0
 24 58  1  0  0  0  0
 25 59  1  0  0  0  0
 25 60  1  0  0  0  0
 25 61  1  0  0  0  0
 26 62  1  0  0  0  0
 26 63  1  0  0  0  0
 26 64  1  0  0  0  0
 27 28  1  0  0  0  0
 27 65  1  0  0  0  0
 27 66  1  0  0  0  0
 28 67  1  0  0  0  0
 29 30  1  0  0  0  0
 29 31  2  0  0  0  0
 30 70  1  0  0  0  0
 30 71  1  0  0  0  0
 31 33  1  0  0  0  0
 31 72  1  0  0  0  0
 32 34  1  0  0  0  0
 32 73  1  0  0  0  0
 34 35  1  0  0  0  0
 34 74  1  0  0  0  0
 35 37  1  0  0  0  0
 35 75  1  0  0  0  0
 36 37  1  0  0  0  0
 36 38  1  0  0  0  0
 36 76  1  0  0  0  0
 37 77  1  0  0  0  0
 38 79  1  0  0  0  0
 38 80  1  0  0  0  0
 38 81  1  0  0  0  0
 39 83  1  0  0  0  0
 39 84  1  0  0  0  0
 39 85  1  0  0  0  0
M  END
> <PUBCHEM_COMPOUND_CID>
12627

> <PUBCHEM_COMPOUND_CANONICALIZED>
1

> <PUBCHEM_CACTVS_COMPLEXITY>
1000

> <PUBCHEM_CACTVS_HBOND_ACCEPTOR>
9

> <PUBCHEM_CACTVS_HBOND_DONOR>
4

> <PUBCHEM_CACTVS_ROTATABLE_BOND>
4

> <PUBCHEM_CACTVS_SUBSKEYS>
AAADcfB4PAAAAAAAAAAAAAAAAAAAAYIAAAA0YMEAAAAAAGDAAAAAGgAACAAAD1SwgAMCCAAABgCIAiDSCAAAAAAgAAAACAAAAEgRFAIAIQAiUAAFgAAPIQPA4PwPgAAAAAAAAADAAAYQADAAAYAADAAAAA==

> <PUBCHEM_IUPAC_OPENEYE_NAME>
3-[(1R,3R,5R,10S,13R,14S,17R)-3-[(2S,5S)-3,5-dihydroxy-4-methoxy-6-methyl-tetrahydropyran-2-yl]oxy-1,14-dihydroxy-10,13-dimethyl-1,2,3,4,5,6,7,8,9,11,12,15,16,17-tetradecahydrocyclopenta[a]phenanthren-17-yl]-2H-furan-5-one

> <PUBCHEM_IUPAC_CAS_NAME>
3-[(1R,3R,5R,10S,13R,14S,17R)-3-[[(2S,5S)-3,5-dihydroxy-4-methoxy-6-methyl-2-oxanyl]oxy]-1,14-dihydroxy-10,13-dimethyl-1,2,3,4,5,6,7,8,9,11,12,15,16,17-tetradecahydrocyclopenta[a]phenanthren-17-yl]-2H-furan-5-one

> <PUBCHEM_IUPAC_NAME>
3-[(1R,3R,5R,10S,13R,14S,17R)-3-[(2S,5S)-3,5-dihydroxy-4-methoxy-6-methyloxan-2-yl]oxy-1,14-dihydroxy-10,13-dimethyl-1,2,3,4,5,6,7,8,9,11,12,15,16,17-tetradecahydrocyclopenta[a]phenanthren-17-yl]-2H-furan-5-one

> <PUBCHEM_IUPAC_SYSTEMATIC_NAME>
3-[(1R,3R,5R,10S,13R,14S,17R)-3-[(2S,5S)-4-methoxy-6-methyl-3,5-bis(oxidanyl)oxan-2-yl]oxy-10,13-dimethyl-1,14-bis(oxidanyl)-1,2,3,4,5,6,7,8,9,11,12,15,16,17-tetradecahydrocyclopenta[a]phenanthren-17-yl]-2H-furan-5-one

> <PUBCHEM_IUPAC_TRADITIONAL_NAME>
3-[(1R,3R,5R,10S,13R,14S,17R)-3-[(2S,5S)-3,5-dihydroxy-4-methoxy-6-methyl-tetrahydropyran-2-yl]oxy-1,14-dihydroxy-10,13-dimethyl-1,2,3,4,5,6,7,8,9,11,12,15,16,17-tetradecahydrocyclopenta[a]phenanthren-17-yl]-2H-furan-5-one

> <PUBCHEM_IUPAC_INCHI>
InChI=1S/C30H46O9/c1-15-24(33)26(36-4)25(34)27(38-15)39-18-12-17-5-6-21-20(29(17,3)22(31)13-18)7-9-28(2)19(8-10-30(21,28)35)16-11-23(32)37-14-16/h11,15,17-22,24-27,31,33-35H,5-10,12-14H2,1-4H3/t15?,17-,18-,19-,20?,21?,22-,24+,25?,26?,27-,28-,29+,30+/m1/s1

> <PUBCHEM_IUPAC_INCHIKEY>
DKYDBQQIQAPGMH-INCJDWOASA-N

> <PUBCHEM_XLOGP3>
1.1

> <PUBCHEM_EXACT_MASS>
550.314183

> <PUBCHEM_MOLECULAR_FORMULA>
C30H46O9

> <PUBCHEM_MOLECULAR_WEIGHT>
550.68084

> <PUBCHEM_OPENEYE_CAN_SMILES>
CC1C(C(C(C(O1)OC2CC3CCC4C(C3(C(C2)O)C)CCC5(C4(CCC5C6=CC(=O)OC6)O)C)O)OC)O

> <PUBCHEM_OPENEYE_ISO_SMILES>
CC1[C@@H](C(C([C@H](O1)O[C@@H]2C[C@H]3CCC4C([C@]3([C@@H](C2)O)C)CC[C@]5([C@@]4(CC[C@@H]5C6=CC(=O)OC6)O)C)O)OC)O

> <PUBCHEM_CACTVS_TPSA>
135

> <PUBCHEM_MONOISOTOPIC_WEIGHT>
550.314183

> <PUBCHEM_TOTAL_CHARGE>
0

> <PUBCHEM_HEAVY_ATOM_COUNT>
39

> <PUBCHEM_ATOM_DEF_STEREO_COUNT>
9

> <PUBCHEM_ATOM_UDEF_STEREO_COUNT>
5

> <PUBCHEM_BOND_DEF_STEREO_COUNT>
0

> <PUBCHEM_BOND_UDEF_STEREO_COUNT>
0

> <PUBCHEM_ISOTOPIC_ATOM_COUNT>
0

> <PUBCHEM_COMPONENT_COUNT>
1

> <PUBCHEM_CACTVS_TAUTO_COUNT>
1

> <PUBCHEM_COORDINATE_TYPE>
1
5
255

> <PUBCHEM_BONDANNOTATIONS>
10  1  5
11  19  3
12  16  3
13  25  5
14  26  5
15  42  5
18  29  5
23  2  5
28  3  5
32  3  6
36  38  3
34  7  3
35  8  3
37  9  5

$$$$

