854014
  -OEChem-06241222462D

 33 36  0     0  0  0  0  0  0999 V2000
    2.0000   -0.4585    0.0000 Br  0  0  0  0  0  0  0  0  0  0  0  0
    5.5301   -2.4827    0.0000 N   0  0  0  0  0  0  0  0  0  0  0  0
    7.9260   -1.4827    0.0000 N   0  0  0  0  0  0  0  0  0  0  0  0
    7.3424   -2.2874    0.0000 N   0  0  0  0  0  0  0  0  0  0  0  0
    5.5301   -0.4827    0.0000 C   0  0  0  0  0  0  0  0  0  0  0  0
    6.3961   -0.9827    0.0000 C   0  0  0  0  0  0  0  0  0  0  0  0
    4.6641   -0.9827    0.0000 C   0  0  0  0  0  0  0  0  0  0  0  0
    6.3961   -1.9827    0.0000 C   0  0  0  0  0  0  0  0  0  0  0  0
    7.3424   -0.6779    0.0000 C   0  0  0  0  0  0  0  0  0  0  0  0
    4.6641   -1.9827    0.0000 C   0  0  0  0  0  0  0  0  0  0  0  0
    5.5301    0.5173    0.0000 C   0  0  0  0  0  0  0  0  0  0  0  0
    3.7702   -0.4480    0.0000 C   0  0  0  0  0  0  0  0  0  0  0  0
    3.7702   -2.5173    0.0000 C   0  0  0  0  0  0  0  0  0  0  0  0
    7.6530    0.2726    0.0000 C   0  0  0  0  0  0  0  0  0  0  0  0
    6.3961    1.0173    0.0000 C   0  0  0  0  0  0  0  0  0  0  0  0
    4.6641    1.0173    0.0000 C   0  0  0  0  0  0  0  0  0  0  0  0
    2.8641   -0.9619    0.0000 C   0  0  0  0  0  0  0  0  0  0  0  0
    2.8641   -2.0035    0.0000 C   0  0  0  0  0  0  0  0  0  0  0  0
    6.3961    2.0173    0.0000 C   0  0  0  0  0  0  0  0  0  0  0  0
    4.6641    2.0173    0.0000 C   0  0  0  0  0  0  0  0  0  0  0  0
    5.5301    2.5173    0.0000 C   0  0  0  0  0  0  0  0  0  0  0  0
    3.7773    0.1720    0.0000 H   0  0  0  0  0  0  0  0  0  0  0  0
    8.5460   -1.4827    0.0000 H   0  0  0  0  0  0  0  0  0  0  0  0
    3.7773   -3.1373    0.0000 H   0  0  0  0  0  0  0  0  0  0  0  0
    8.2424    0.0800    0.0000 H   0  0  0  0  0  0  0  0  0  0  0  0
    7.8456    0.8619    0.0000 H   0  0  0  0  0  0  0  0  0  0  0  0
    7.0637    0.4652    0.0000 H   0  0  0  0  0  0  0  0  0  0  0  0
    6.9331    0.7073    0.0000 H   0  0  0  0  0  0  0  0  0  0  0  0
    4.1272    0.7073    0.0000 H   0  0  0  0  0  0  0  0  0  0  0  0
    2.3284   -2.3156    0.0000 H   0  0  0  0  0  0  0  0  0  0  0  0
    6.9331    2.3273    0.0000 H   0  0  0  0  0  0  0  0  0  0  0  0
    4.1272    2.3273    0.0000 H   0  0  0  0  0  0  0  0  0  0  0  0
    5.5301    3.1373    0.0000 H   0  0  0  0  0  0  0  0  0  0  0  0
  1 17  1  0  0  0  0
  2  8  1  0  0  0  0
  2 10  2  0  0  0  0
  3  4  1  0  0  0  0
  3  9  1  0  0  0  0
  3 23  1  0  0  0  0
  4  8  2  0  0  0  0
  5  6  1  0  0  0  0
  5  7  2  0  0  0  0
  5 11  1  0  0  0  0
  6  8  1  0  0  0  0
  6  9  2  0  0  0  0
  7 10  1  0  0  0  0
  7 12  1  0  0  0  0
  9 14  1  0  0  0  0
 10 13  1  0  0  0  0
 11 15  2  0  0  0  0
 11 16  1  0  0  0  0
 12 17  2  0  0  0  0
 12 22  1  0  0  0  0
 13 18  2  0  0  0  0
 13 24  1  0  0  0  0
 14 25  1  0  0  0  0
 14 26  1  0  0  0  0
 14 27  1  0  0  0  0
 15 19  1  0  0  0  0
 15 28  1  0  0  0  0
 16 20  2  0  0  0  0
 16 29  1  0  0  0  0
 17 18  1  0  0  0  0
 18 30  1  0  0  0  0
 19 21  2  0  0  0  0
 19 31  1  0  0  0  0
 20 21  1  0  0  0  0
 20 32  1  0  0  0  0
 21 33  1  0  0  0  0
M  END
> <PUBCHEM_COMPOUND_CID>
854014

> <PUBCHEM_COMPOUND_CANONICALIZED>
1

> <PUBCHEM_CACTVS_COMPLEXITY>
371

> <PUBCHEM_CACTVS_HBOND_ACCEPTOR>
2

> <PUBCHEM_CACTVS_HBOND_DONOR>
1

> <PUBCHEM_CACTVS_ROTATABLE_BOND>
1

> <PUBCHEM_CACTVS_SUBSKEYS>
AAADccB7AAAAEAAAAAAAAAAAAAAAAWAAAAA8YIAAAAAAAFix/gAAHABYAAABrAiBHwAz8P5rEACiAyZiZACShCshAqQduSAwZLiIKOLA2dGEpAhgmALIyjcQgMAOgAAgEAACAAAAAEAgAAQAAAAAAAAAAA==

> <PUBCHEM_IUPAC_OPENEYE_NAME>
6-bromo-3-methyl-4-phenyl-2H-pyrazolo[3,4-b]quinoline

> <PUBCHEM_IUPAC_CAS_NAME>
6-bromo-3-methyl-4-phenyl-2H-pyrazolo[3,4-b]quinoline

> <PUBCHEM_IUPAC_NAME>
6-bromo-3-methyl-4-phenyl-2H-pyrazolo[3,4-b]quinoline

> <PUBCHEM_IUPAC_SYSTEMATIC_NAME>
6-bromanyl-3-methyl-4-phenyl-2H-pyrazolo[3,4-b]quinoline

> <PUBCHEM_IUPAC_TRADITIONAL_NAME>
6-bromo-3-methyl-4-phenyl-2H-pyrazolo[3,4-b]quinoline

> <PUBCHEM_IUPAC_INCHI>
InChI=1S/C17H12BrN3/c1-10-15-16(11-5-3-2-4-6-11)13-9-12(18)7-8-14(13)19-17(15)21-20-10/h2-9H,1H3,(H,19,20,21)

> <PUBCHEM_IUPAC_INCHIKEY>
RVPUHWWCTUSTMZ-UHFFFAOYSA-N

> <PUBCHEM_XLOGP3_AA>
4.9

> <PUBCHEM_EXACT_MASS>
337.021459

> <PUBCHEM_MOLECULAR_FORMULA>
C17H12BrN3

> <PUBCHEM_MOLECULAR_WEIGHT>
338.20128

> <PUBCHEM_OPENEYE_CAN_SMILES>
CC1=C2C(=C3C=C(C=CC3=NC2=NN1)Br)C4=CC=CC=C4

> <PUBCHEM_OPENEYE_ISO_SMILES>
CC1=C2C(=C3C=C(C=CC3=NC2=NN1)Br)C4=CC=CC=C4

> <PUBCHEM_CACTVS_TPSA>
41.6

> <PUBCHEM_MONOISOTOPIC_WEIGHT>
337.021459

> <PUBCHEM_TOTAL_CHARGE>
0

> <PUBCHEM_HEAVY_ATOM_COUNT>
21

> <PUBCHEM_ATOM_DEF_STEREO_COUNT>
0

> <PUBCHEM_ATOM_UDEF_STEREO_COUNT>
0

> <PUBCHEM_BOND_DEF_STEREO_COUNT>
0

> <PUBCHEM_BOND_UDEF_STEREO_COUNT>
0

> <PUBCHEM_ISOTOPIC_ATOM_COUNT>
0

> <PUBCHEM_COMPONENT_COUNT>
1

> <PUBCHEM_CACTVS_TAUTO_COUNT>
3

> <PUBCHEM_COORDINATE_TYPE>
1
5
255

> <PUBCHEM_BONDANNOTATIONS>
10  13  8
11  15  8
11  16  8
12  17  8
13  18  8
15  19  8
16  20  8
17  18  8
19  21  8
2  10  8
2  8  8
20  21  8
3  4  8
3  9  8
4  8  8
5  6  8
5  7  8
6  8  8
6  9  8
7  10  8
7  12  8

$$$$

