17395392
  -OEChem-06241222492D

 41 43  0     1  0  0  0  0  0999 V2000
    2.0000   -4.1830    0.0000 Cl  0  0  0  0  0  0  0  0  0  0  0  0
    3.7320   -1.1830    0.0000 S   0  0  0  0  0  0  0  0  0  0  0  0
    2.8660    3.3170    0.0000 O   0  0  0  0  0  0  0  0  0  0  0  0
    2.7320   -1.1830    0.0000 O   0  0  0  0  0  0  0  0  0  0  0  0
    4.7320   -1.1830    0.0000 O   0  0  0  0  0  0  0  0  0  0  0  0
    3.7320    1.8170    0.0000 N   0  0  0  0  0  0  0  0  0  0  0  0
    3.7320   -0.1830    0.0000 N   0  0  0  0  0  0  0  0  0  0  0  0
    4.5981    3.3170    0.0000 C   0  0  3  0  0  0  0  0  0  0  0  0
    5.5981    3.3170    0.0000 C   0  0  3  0  0  0  0  0  0  0  0  0
    5.0981    4.1830    0.0000 C   0  0  0  0  0  0  0  0  0  0  0  0
    3.7320    2.8170    0.0000 C   0  0  0  0  0  0  0  0  0  0  0  0
    6.4641    2.8170    0.0000 C   0  0  0  0  0  0  0  0  0  0  0  0
    4.5981    1.3170    0.0000 C   0  0  0  0  0  0  0  0  0  0  0  0
    2.8660    1.3170    0.0000 C   0  0  0  0  0  0  0  0  0  0  0  0
    2.8660    0.3170    0.0000 C   0  0  0  0  0  0  0  0  0  0  0  0
    4.5981    0.3170    0.0000 C   0  0  0  0  0  0  0  0  0  0  0  0
    3.7320   -2.1830    0.0000 C   0  0  0  0  0  0  0  0  0  0  0  0
    2.8660   -2.6830    0.0000 C   0  0  0  0  0  0  0  0  0  0  0  0
    4.5981   -2.6830    0.0000 C   0  0  0  0  0  0  0  0  0  0  0  0
    2.8660   -3.6830    0.0000 C   0  0  0  0  0  0  0  0  0  0  0  0
    4.5981   -3.6830    0.0000 C   0  0  0  0  0  0  0  0  0  0  0  0
    3.7320   -4.1830    0.0000 C   0  0  0  0  0  0  0  0  0  0  0  0
    4.1597    3.7554    0.0000 H   0  0  0  0  0  0  0  0  0  0  0  0
    6.0365    3.7554    0.0000 H   0  0  0  0  0  0  0  0  0  0  0  0
    5.5730    4.5815    0.0000 H   0  0  0  0  0  0  0  0  0  0  0  0
    4.6231    4.5815    0.0000 H   0  0  0  0  0  0  0  0  0  0  0  0
    6.1541    2.2800    0.0000 H   0  0  0  0  0  0  0  0  0  0  0  0
    7.0010    2.5070    0.0000 H   0  0  0  0  0  0  0  0  0  0  0  0
    6.7741    3.3539    0.0000 H   0  0  0  0  0  0  0  0  0  0  0  0
    2.6540    1.8996    0.0000 H   0  0  0  0  0  0  0  0  0  0  0  0
    2.2554    1.2093    0.0000 H   0  0  0  0  0  0  0  0  0  0  0  0
    5.2087    1.2093    0.0000 H   0  0  0  0  0  0  0  0  0  0  0  0
    4.8101    1.8996    0.0000 H   0  0  0  0  0  0  0  0  0  0  0  0
    2.2554    0.4246    0.0000 H   0  0  0  0  0  0  0  0  0  0  0  0
    2.6540   -0.2656    0.0000 H   0  0  0  0  0  0  0  0  0  0  0  0
    4.8101   -0.2656    0.0000 H   0  0  0  0  0  0  0  0  0  0  0  0
    5.2087    0.4246    0.0000 H   0  0  0  0  0  0  0  0  0  0  0  0
    2.3291   -2.3730    0.0000 H   0  0  0  0  0  0  0  0  0  0  0  0
    5.1350   -2.3730    0.0000 H   0  0  0  0  0  0  0  0  0  0  0  0
    5.1350   -3.9930    0.0000 H   0  0  0  0  0  0  0  0  0  0  0  0
    3.7320   -4.8030    0.0000 H   0  0  0  0  0  0  0  0  0  0  0  0
  1 20  1  0  0  0  0
  2  4  2  0  0  0  0
  2  5  2  0  0  0  0
  2  7  1  0  0  0  0
  2 17  1  0  0  0  0
  3 11  2  0  0  0  0
  6 11  1  0  0  0  0
  6 13  1  0  0  0  0
  6 14  1  0  0  0  0
  7 15  1  0  0  0  0
  7 16  1  0  0  0  0
  8  9  1  0  0  0  0
  8 10  1  0  0  0  0
  8 11  1  0  0  0  0
  8 23  1  0  0  0  0
  9 10  1  0  0  0  0
  9 12  1  0  0  0  0
  9 24  1  0  0  0  0
 10 25  1  0  0  0  0
 10 26  1  0  0  0  0
 12 27  1  0  0  0  0
 12 28  1  0  0  0  0
 12 29  1  0  0  0  0
 13 16  1  0  0  0  0
 13 32  1  0  0  0  0
 13 33  1  0  0  0  0
 14 15  1  0  0  0  0
 14 30  1  0  0  0  0
 14 31  1  0  0  0  0
 15 34  1  0  0  0  0
 15 35  1  0  0  0  0
 16 36  1  0  0  0  0
 16 37  1  0  0  0  0
 17 18  2  0  0  0  0
 17 19  1  0  0  0  0
 18 20  1  0  0  0  0
 18 38  1  0  0  0  0
 19 21  2  0  0  0  0
 19 39  1  0  0  0  0
 20 22  2  0  0  0  0
 21 22  1  0  0  0  0
 21 40  1  0  0  0  0
 22 41  1  0  0  0  0
M  END
> <PUBCHEM_COMPOUND_CID>
17395392

> <PUBCHEM_COMPOUND_CANONICALIZED>
1

> <PUBCHEM_CACTVS_COMPLEXITY>
525

> <PUBCHEM_CACTVS_HBOND_ACCEPTOR>
4

> <PUBCHEM_CACTVS_HBOND_DONOR>
0

> <PUBCHEM_CACTVS_ROTATABLE_BOND>
3

> <PUBCHEM_CACTVS_SUBSKEYS>
AAADceBzMABEAAAAAAAAAAAAGAAAAAAAAAA8QAAAAAAAAAABAAAAHgYAQAAADQLB0CQyAYMAAAKIACFSEHBCABAgBQAIiBkIAogIYDKBkxCUIAAghgCIiAcYAAAIAAAAABAAAAAAAAAAIAAAAAAAAAAAAA==

> <PUBCHEM_IUPAC_OPENEYE_NAME>
[4-(3-chlorophenyl)sulfonylpiperazin-1-yl]-(2-methylcyclopropyl)methanone

> <PUBCHEM_IUPAC_CAS_NAME>
[4-(3-chlorophenyl)sulfonyl-1-piperazinyl]-(2-methylcyclopropyl)methanone

> <PUBCHEM_IUPAC_NAME>
[4-(3-chlorophenyl)sulfonylpiperazin-1-yl]-(2-methylcyclopropyl)methanone

> <PUBCHEM_IUPAC_SYSTEMATIC_NAME>
[4-(3-chlorophenyl)sulfonylpiperazin-1-yl]-(2-methylcyclopropyl)methanone

> <PUBCHEM_IUPAC_TRADITIONAL_NAME>
[4-(3-chlorophenyl)sulfonylpiperazino]-(2-methylcyclopropyl)methanone

> <PUBCHEM_IUPAC_INCHI>
InChI=1S/C15H19ClN2O3S/c1-11-9-14(11)15(19)17-5-7-18(8-6-17)22(20,21)13-4-2-3-12(16)10-13/h2-4,10-11,14H,5-9H2,1H3

> <PUBCHEM_IUPAC_INCHIKEY>
BNVZLGICBZZLCC-UHFFFAOYSA-N

> <PUBCHEM_XLOGP3_AA>
1.9

> <PUBCHEM_EXACT_MASS>
342.080491

> <PUBCHEM_MOLECULAR_FORMULA>
C15H19ClN2O3S

> <PUBCHEM_MOLECULAR_WEIGHT>
342.84096

> <PUBCHEM_OPENEYE_CAN_SMILES>
CC1CC1C(=O)N2CCN(CC2)S(=O)(=O)C3=CC(=CC=C3)Cl

> <PUBCHEM_OPENEYE_ISO_SMILES>
CC1CC1C(=O)N2CCN(CC2)S(=O)(=O)C3=CC(=CC=C3)Cl

> <PUBCHEM_CACTVS_TPSA>
66.1

> <PUBCHEM_MONOISOTOPIC_WEIGHT>
342.080491

> <PUBCHEM_TOTAL_CHARGE>
0

> <PUBCHEM_HEAVY_ATOM_COUNT>
22

> <PUBCHEM_ATOM_DEF_STEREO_COUNT>
0

> <PUBCHEM_ATOM_UDEF_STEREO_COUNT>
2

> <PUBCHEM_BOND_DEF_STEREO_COUNT>
0

> <PUBCHEM_BOND_UDEF_STEREO_COUNT>
0

> <PUBCHEM_ISOTOPIC_ATOM_COUNT>
0

> <PUBCHEM_COMPONENT_COUNT>
1

> <PUBCHEM_CACTVS_TAUTO_COUNT>
1

> <PUBCHEM_COORDINATE_TYPE>
1
5
255

> <PUBCHEM_BONDANNOTATIONS>
17  18  8
17  19  8
18  20  8
19  21  8
20  22  8
21  22  8
8  11  3
9  12  3

$$$$

