17396209
  -OEChem-06241222552D

 57 59  0     1  0  0  0  0  0999 V2000
    5.4641   -1.8693    0.0000 O   0  0  0  0  0  0  0  0  0  0  0  0
    5.4641    0.1307    0.0000 O   0  0  0  0  0  0  0  0  0  0  0  0
    4.5981    1.6307    0.0000 O   0  0  0  0  0  0  0  0  0  0  0  0
    3.7320   -1.8693    0.0000 N   0  0  0  0  0  0  0  0  0  0  0  0
    7.4128    2.8331    0.0000 N   0  0  0  0  0  0  0  0  0  0  0  0
    7.9128    1.9671    0.0000 N   0  0  0  0  0  0  0  0  0  0  0  0
    2.8660   -3.3693    0.0000 C   0  0  3  0  0  0  0  0  0  0  0  0
    3.7320   -2.8693    0.0000 C   0  0  3  0  0  0  0  0  0  0  0  0
    2.8660   -4.3693    0.0000 C   0  0  0  0  0  0  0  0  0  0  0  0
    4.5981   -3.3693    0.0000 C   0  0  0  0  0  0  0  0  0  0  0  0
    3.7320   -4.8693    0.0000 C   0  0  0  0  0  0  0  0  0  0  0  0
    4.5981   -4.3693    0.0000 C   0  0  0  0  0  0  0  0  0  0  0  0
    2.0000   -2.8693    0.0000 C   0  0  0  0  0  0  0  0  0  0  0  0
    4.5981   -1.3693    0.0000 C   0  0  0  0  0  0  0  0  0  0  0  0
    4.5981   -0.3693    0.0000 C   0  0  0  0  0  0  0  0  0  0  0  0
    6.3301    1.6307    0.0000 C   0  0  0  0  0  0  0  0  0  0  0  0
    6.4347    2.6252    0.0000 C   0  0  0  0  0  0  0  0  0  0  0  0
    5.4641    1.1307    0.0000 C   0  0  0  0  0  0  0  0  0  0  0  0
    7.2437    1.2240    0.0000 C   0  0  0  0  0  0  0  0  0  0  0  0
    7.8195    3.7467    0.0000 C   0  0  0  0  0  0  0  0  0  0  0  0
    5.6915    3.2944    0.0000 C   0  0  0  0  0  0  0  0  0  0  0  0
    8.8141    3.8512    0.0000 C   0  0  0  0  0  0  0  0  0  0  0  0
    7.4516    0.2458    0.0000 C   0  0  0  0  0  0  0  0  0  0  0  0
    9.4018    3.0422    0.0000 C   0  0  0  0  0  0  0  0  0  0  0  0
    9.2208    4.7648    0.0000 C   0  0  0  0  0  0  0  0  0  0  0  0
   10.3964    3.1467    0.0000 C   0  0  0  0  0  0  0  0  0  0  0  0
   10.2153    4.8693    0.0000 C   0  0  0  0  0  0  0  0  0  0  0  0
   10.8031    4.0603    0.0000 C   0  0  0  0  0  0  0  0  0  0  0  0
    2.8660   -2.7493    0.0000 H   0  0  0  0  0  0  0  0  0  0  0  0
    4.2690   -2.5593    0.0000 H   0  0  0  0  0  0  0  0  0  0  0  0
    2.2554   -4.2616    0.0000 H   0  0  0  0  0  0  0  0  0  0  0  0
    2.6540   -4.9519    0.0000 H   0  0  0  0  0  0  0  0  0  0  0  0
    5.2087   -3.4770    0.0000 H   0  0  0  0  0  0  0  0  0  0  0  0
    4.8101   -2.7867    0.0000 H   0  0  0  0  0  0  0  0  0  0  0  0
    3.3335   -5.3442    0.0000 H   0  0  0  0  0  0  0  0  0  0  0  0
    4.1306   -5.3442    0.0000 H   0  0  0  0  0  0  0  0  0  0  0  0
    4.8101   -4.9519    0.0000 H   0  0  0  0  0  0  0  0  0  0  0  0
    5.2087   -4.2616    0.0000 H   0  0  0  0  0  0  0  0  0  0  0  0
    2.3100   -2.3324    0.0000 H   0  0  0  0  0  0  0  0  0  0  0  0
    1.4631   -2.5593    0.0000 H   0  0  0  0  0  0  0  0  0  0  0  0
    1.6900   -3.4062    0.0000 H   0  0  0  0  0  0  0  0  0  0  0  0
    3.1951   -1.5593    0.0000 H   0  0  0  0  0  0  0  0  0  0  0  0
    4.3860    0.2133    0.0000 H   0  0  0  0  0  0  0  0  0  0  0  0
    3.9875   -0.4770    0.0000 H   0  0  0  0  0  0  0  0  0  0  0  0
    7.8628    4.3652    0.0000 H   0  0  0  0  0  0  0  0  0  0  0  0
    7.2180    3.8967    0.0000 H   0  0  0  0  0  0  0  0  0  0  0  0
    6.1064    3.7551    0.0000 H   0  0  0  0  0  0  0  0  0  0  0  0
    5.2308    3.7092    0.0000 H   0  0  0  0  0  0  0  0  0  0  0  0
    5.2766    2.8336    0.0000 H   0  0  0  0  0  0  0  0  0  0  0  0
    6.8451    0.1169    0.0000 H   0  0  0  0  0  0  0  0  0  0  0  0
    7.5805   -0.3606    0.0000 H   0  0  0  0  0  0  0  0  0  0  0  0
    8.0580    0.3747    0.0000 H   0  0  0  0  0  0  0  0  0  0  0  0
    9.1497    2.4758    0.0000 H   0  0  0  0  0  0  0  0  0  0  0  0
    8.8564    5.2664    0.0000 H   0  0  0  0  0  0  0  0  0  0  0  0
   10.7608    2.6451    0.0000 H   0  0  0  0  0  0  0  0  0  0  0  0
   10.4675    5.4357    0.0000 H   0  0  0  0  0  0  0  0  0  0  0  0
   11.4197    4.1251    0.0000 H   0  0  0  0  0  0  0  0  0  0  0  0
  1 14  2  0  0  0  0
  2 15  1  0  0  0  0
  2 18  1  0  0  0  0
  3 18  2  0  0  0  0
  4  8  1  0  0  0  0
  4 14  1  0  0  0  0
  4 42  1  0  0  0  0
  5  6  1  0  0  0  0
  5 17  1  0  0  0  0
  5 20  1  0  0  0  0
  6 19  2  0  0  0  0
  7  8  1  0  0  0  0
  7  9  1  0  0  0  0
  7 13  1  0  0  0  0
  7 29  1  0  0  0  0
  8 10  1  0  0  0  0
  8 30  1  0  0  0  0
  9 11  1  0  0  0  0
  9 31  1  0  0  0  0
  9 32  1  0  0  0  0
 10 12  1  0  0  0  0
 10 33  1  0  0  0  0
 10 34  1  0  0  0  0
 11 12  1  0  0  0  0
 11 35  1  0  0  0  0
 11 36  1  0  0  0  0
 12 37  1  0  0  0  0
 12 38  1  0  0  0  0
 13 39  1  0  0  0  0
 13 40  1  0  0  0  0
 13 41  1  0  0  0  0
 14 15  1  0  0  0  0
 15 43  1  0  0  0  0
 15 44  1  0  0  0  0
 16 17  2  0  0  0  0
 16 18  1  0  0  0  0
 16 19  1  0  0  0  0
 17 21  1  0  0  0  0
 19 23  1  0  0  0  0
 20 22  1  0  0  0  0
 20 45  1  0  0  0  0
 20 46  1  0  0  0  0
 21 47  1  0  0  0  0
 21 48  1  0  0  0  0
 21 49  1  0  0  0  0
 22 24  2  0  0  0  0
 22 25  1  0  0  0  0
 23 50  1  0  0  0  0
 23 51  1  0  0  0  0
 23 52  1  0  0  0  0
 24 26  1  0  0  0  0
 24 53  1  0  0  0  0
 25 27  2  0  0  0  0
 25 54  1  0  0  0  0
 26 28  2  0  0  0  0
 26 55  1  0  0  0  0
 27 28  1  0  0  0  0
 27 56  1  0  0  0  0
 28 57  1  0  0  0  0
M  END
> <PUBCHEM_COMPOUND_CID>
17396209

> <PUBCHEM_COMPOUND_CANONICALIZED>
1

> <PUBCHEM_CACTVS_COMPLEXITY>
535

> <PUBCHEM_CACTVS_HBOND_ACCEPTOR>
4

> <PUBCHEM_CACTVS_HBOND_DONOR>
1

> <PUBCHEM_CACTVS_ROTATABLE_BOND>
7

> <PUBCHEM_CACTVS_SUBSKEYS>
AAADceB7MAAAAAAAAAAAAAAAAAAAAWAAAAAwYAAAAAAAAAABwAAAHgAYAAAADSjhngYyiJLIBACqAyXyXAKSBAAlgAAY2KF4TNgKJjrA8d2HtYhmngDY6UcQgAAOAAAAAAAAAAAAAAAAAAQAAAAAAAAAAA==

> <PUBCHEM_IUPAC_OPENEYE_NAME>
[2-[(2-methylcyclohexyl)amino]-2-oxo-ethyl] 1-benzyl-3,5-dimethyl-pyrazole-4-carboxylate

> <PUBCHEM_IUPAC_CAS_NAME>
3,5-dimethyl-1-(phenylmethyl)-4-pyrazolecarboxylic acid [2-[(2-methylcyclohexyl)amino]-2-oxoethyl] ester

> <PUBCHEM_IUPAC_NAME>
[2-[(2-methylcyclohexyl)amino]-2-oxoethyl] 1-benzyl-3,5-dimethylpyrazole-4-carboxylate

> <PUBCHEM_IUPAC_SYSTEMATIC_NAME>
[2-[(2-methylcyclohexyl)amino]-2-oxidanylidene-ethyl] 3,5-dimethyl-1-(phenylmethyl)pyrazole-4-carboxylate

> <PUBCHEM_IUPAC_TRADITIONAL_NAME>
1-benzyl-3,5-dimethyl-pyrazole-4-carboxylic acid [2-keto-2-[(2-methylcyclohexyl)amino]ethyl] ester

> <PUBCHEM_IUPAC_INCHI>
InChI=1S/C22H29N3O3/c1-15-9-7-8-12-19(15)23-20(26)14-28-22(27)21-16(2)24-25(17(21)3)13-18-10-5-4-6-11-18/h4-6,10-11,15,19H,7-9,12-14H2,1-3H3,(H,23,26)

> <PUBCHEM_IUPAC_INCHIKEY>
DUHMCILLUVQVMC-UHFFFAOYSA-N

> <PUBCHEM_XLOGP3_AA>
4.1

> <PUBCHEM_EXACT_MASS>
383.220892

> <PUBCHEM_MOLECULAR_FORMULA>
C22H29N3O3

> <PUBCHEM_MOLECULAR_WEIGHT>
383.48396

> <PUBCHEM_OPENEYE_CAN_SMILES>
CC1CCCCC1NC(=O)COC(=O)C2=C(N(N=C2C)CC3=CC=CC=C3)C

> <PUBCHEM_OPENEYE_ISO_SMILES>
CC1CCCCC1NC(=O)COC(=O)C2=C(N(N=C2C)CC3=CC=CC=C3)C

> <PUBCHEM_CACTVS_TPSA>
73.2

> <PUBCHEM_MONOISOTOPIC_WEIGHT>
383.220892

> <PUBCHEM_TOTAL_CHARGE>
0

> <PUBCHEM_HEAVY_ATOM_COUNT>
28

> <PUBCHEM_ATOM_DEF_STEREO_COUNT>
0

> <PUBCHEM_ATOM_UDEF_STEREO_COUNT>
2

> <PUBCHEM_BOND_DEF_STEREO_COUNT>
0

> <PUBCHEM_BOND_UDEF_STEREO_COUNT>
0

> <PUBCHEM_ISOTOPIC_ATOM_COUNT>
0

> <PUBCHEM_COMPONENT_COUNT>
1

> <PUBCHEM_CACTVS_TAUTO_COUNT>
2

> <PUBCHEM_COORDINATE_TYPE>
1
5
255

> <PUBCHEM_BONDANNOTATIONS>
16  17  8
16  19  8
22  24  8
22  25  8
24  26  8
25  27  8
26  28  8
27  28  8
8  4  3
5  17  8
5  6  8
6  19  8
7  13  3

$$$$

