5947
  -OEChem-06261201002D

 85 82  0     0  0  0  0  0  0999 V2000
    4.9052   -0.7071    0.0000 Sn  0  0  0  0  0  0  0  0  0  0  0  0
    6.3195    0.7071    0.0000 Sn  0  0  0  0  0  0  0  0  0  0  0  0
    5.6123    0.0000    0.0000 O   0  0  0  0  0  0  0  0  0  0  0  0
    3.9176   -0.8635    0.0000 C   0  0  0  0  0  0  0  0  0  0  0  0
    4.7488   -1.6948    0.0000 C   0  0  0  0  0  0  0  0  0  0  0  0
    4.4512    0.1839    0.0000 C   0  0  0  0  0  0  0  0  0  0  0  0
    6.7734   -0.1839    0.0000 C   0  0  0  0  0  0  0  0  0  0  0  0
    7.3071    0.8635    0.0000 C   0  0  0  0  0  0  0  0  0  0  0  0
    6.4759    1.6948    0.0000 C   0  0  0  0  0  0  0  0  0  0  0  0
    3.5592   -1.7971    0.0000 C   0  0  0  0  0  0  0  0  0  0  0  0
    5.5260   -2.3241    0.0000 C   0  0  0  0  0  0  0  0  0  0  0  0
    3.4526    0.2362    0.0000 C   0  0  0  0  0  0  0  0  0  0  0  0
    7.7721   -0.2362    0.0000 C   0  0  0  0  0  0  0  0  0  0  0  0
    7.6655    1.7971    0.0000 C   0  0  0  0  0  0  0  0  0  0  0  0
    5.6987    2.3241    0.0000 C   0  0  0  0  0  0  0  0  0  0  0  0
    2.5715   -1.9536    0.0000 C   0  0  0  0  0  0  0  0  0  0  0  0
    5.3695   -3.3118    0.0000 C   0  0  0  0  0  0  0  0  0  0  0  0
    2.9986    1.1272    0.0000 C   0  0  0  0  0  0  0  0  0  0  0  0
    8.2261   -1.1272    0.0000 C   0  0  0  0  0  0  0  0  0  0  0  0
    8.6532    1.9536    0.0000 C   0  0  0  0  0  0  0  0  0  0  0  0
    5.8552    3.3118    0.0000 C   0  0  0  0  0  0  0  0  0  0  0  0
    2.2131   -2.8871    0.0000 C   0  0  0  0  0  0  0  0  0  0  0  0
    6.1467   -3.9411    0.0000 C   0  0  0  0  0  0  0  0  0  0  0  0
    2.0000    1.1796    0.0000 C   0  0  0  0  0  0  0  0  0  0  0  0
    9.2247   -1.1796    0.0000 C   0  0  0  0  0  0  0  0  0  0  0  0
    9.0116    2.8871    0.0000 C   0  0  0  0  0  0  0  0  0  0  0  0
    5.0780    3.9411    0.0000 C   0  0  0  0  0  0  0  0  0  0  0  0
    5.4577   -0.9886    0.0000 H   0  0  0  0  0  0  0  0  0  0  0  0
    5.7670    0.9886    0.0000 H   0  0  0  0  0  0  0  0  0  0  0  0
    5.1739    0.4384    0.0000 H   0  0  0  0  0  0  0  0  0  0  0  0
    6.0508   -0.4384    0.0000 H   0  0  0  0  0  0  0  0  0  0  0  0
    3.3089   -0.7452    0.0000 H   0  0  0  0  0  0  0  0  0  0  0  0
    3.9284   -0.2436    0.0000 H   0  0  0  0  0  0  0  0  0  0  0  0
    4.1626   -1.4929    0.0000 H   0  0  0  0  0  0  0  0  0  0  0  0
    4.4482   -2.2371    0.0000 H   0  0  0  0  0  0  0  0  0  0  0  0
    5.0442    0.3652    0.0000 H   0  0  0  0  0  0  0  0  0  0  0  0
    4.3757    0.7993    0.0000 H   0  0  0  0  0  0  0  0  0  0  0  0
    6.1805   -0.3652    0.0000 H   0  0  0  0  0  0  0  0  0  0  0  0
    6.8490   -0.7993    0.0000 H   0  0  0  0  0  0  0  0  0  0  0  0
    7.9158    0.7452    0.0000 H   0  0  0  0  0  0  0  0  0  0  0  0
    7.2963    0.2436    0.0000 H   0  0  0  0  0  0  0  0  0  0  0  0
    6.7765    2.2371    0.0000 H   0  0  0  0  0  0  0  0  0  0  0  0
    7.0621    1.4929    0.0000 H   0  0  0  0  0  0  0  0  0  0  0  0
    4.1678   -1.9154    0.0000 H   0  0  0  0  0  0  0  0  0  0  0  0
    3.5484   -2.4170    0.0000 H   0  0  0  0  0  0  0  0  0  0  0  0
    6.1122   -2.5260    0.0000 H   0  0  0  0  0  0  0  0  0  0  0  0
    5.8265   -1.7819    0.0000 H   0  0  0  0  0  0  0  0  0  0  0  0
    2.8597    0.0550    0.0000 H   0  0  0  0  0  0  0  0  0  0  0  0
    3.5282   -0.3791    0.0000 H   0  0  0  0  0  0  0  0  0  0  0  0
    7.6965    0.3791    0.0000 H   0  0  0  0  0  0  0  0  0  0  0  0
    8.3650   -0.0550    0.0000 H   0  0  0  0  0  0  0  0  0  0  0  0
    7.6763    2.4170    0.0000 H   0  0  0  0  0  0  0  0  0  0  0  0
    7.0569    1.9154    0.0000 H   0  0  0  0  0  0  0  0  0  0  0  0
    5.3982    1.7819    0.0000 H   0  0  0  0  0  0  0  0  0  0  0  0
    5.1125    2.5260    0.0000 H   0  0  0  0  0  0  0  0  0  0  0  0
    2.5823   -1.3337    0.0000 H   0  0  0  0  0  0  0  0  0  0  0  0
    1.9629   -1.8353    0.0000 H   0  0  0  0  0  0  0  0  0  0  0  0
    4.7833   -3.1100    0.0000 H   0  0  0  0  0  0  0  0  0  0  0  0
    5.0689   -3.8541    0.0000 H   0  0  0  0  0  0  0  0  0  0  0  0
    3.5915    1.3085    0.0000 H   0  0  0  0  0  0  0  0  0  0  0  0
    2.9231    1.7426    0.0000 H   0  0  0  0  0  0  0  0  0  0  0  0
    8.3016   -1.7426    0.0000 H   0  0  0  0  0  0  0  0  0  0  0  0
    7.6332   -1.3085    0.0000 H   0  0  0  0  0  0  0  0  0  0  0  0
    8.6424    1.3337    0.0000 H   0  0  0  0  0  0  0  0  0  0  0  0
    9.2618    1.8353    0.0000 H   0  0  0  0  0  0  0  0  0  0  0  0
    6.1558    3.8541    0.0000 H   0  0  0  0  0  0  0  0  0  0  0  0
    6.4414    3.1100    0.0000 H   0  0  0  0  0  0  0  0  0  0  0  0
    2.7919   -3.1093    0.0000 H   0  0  0  0  0  0  0  0  0  0  0  0
    1.9909   -3.4660    0.0000 H   0  0  0  0  0  0  0  0  0  0  0  0
    1.6343   -2.6649    0.0000 H   0  0  0  0  0  0  0  0  0  0  0  0
    6.5368   -3.4593    0.0000 H   0  0  0  0  0  0  0  0  0  0  0  0
    6.6285   -4.3313    0.0000 H   0  0  0  0  0  0  0  0  0  0  0  0
    5.7565   -4.4230    0.0000 H   0  0  0  0  0  0  0  0  0  0  0  0
    2.0324    1.7987    0.0000 H   0  0  0  0  0  0  0  0  0  0  0  0
    1.3808    1.2120    0.0000 H   0  0  0  0  0  0  0  0  0  0  0  0
    1.9676    0.5604    0.0000 H   0  0  0  0  0  0  0  0  0  0  0  0
    9.2571   -0.5604    0.0000 H   0  0  0  0  0  0  0  0  0  0  0  0
    9.8438   -1.2120    0.0000 H   0  0  0  0  0  0  0  0  0  0  0  0
    9.1922   -1.7987    0.0000 H   0  0  0  0  0  0  0  0  0  0  0  0
    9.5904    2.6649    0.0000 H   0  0  0  0  0  0  0  0  0  0  0  0
    9.2338    3.4660    0.0000 H   0  0  0  0  0  0  0  0  0  0  0  0
    8.4327    3.1093    0.0000 H   0  0  0  0  0  0  0  0  0  0  0  0
    4.6879    3.4593    0.0000 H   0  0  0  0  0  0  0  0  0  0  0  0
    4.5962    4.3313    0.0000 H   0  0  0  0  0  0  0  0  0  0  0  0
    5.4682    4.4230    0.0000 H   0  0  0  0  0  0  0  0  0  0  0  0
  1  4  1  0  0  0  0
  1  5  1  0  0  0  0
  1  6  1  0  0  0  0
  1 28  1  0  0  0  0
  2  7  1  0  0  0  0
  2  8  1  0  0  0  0
  2  9  1  0  0  0  0
  2 29  1  0  0  0  0
  3 30  1  0  0  0  0
  3 31  1  0  0  0  0
  4 10  1  0  0  0  0
  4 32  1  0  0  0  0
  4 33  1  0  0  0  0
  5 11  1  0  0  0  0
  5 34  1  0  0  0  0
  5 35  1  0  0  0  0
  6 12  1  0  0  0  0
  6 36  1  0  0  0  0
  6 37  1  0  0  0  0
  7 13  1  0  0  0  0
  7 38  1  0  0  0  0
  7 39  1  0  0  0  0
  8 14  1  0  0  0  0
  8 40  1  0  0  0  0
  8 41  1  0  0  0  0
  9 15  1  0  0  0  0
  9 42  1  0  0  0  0
  9 43  1  0  0  0  0
 10 16  1  0  0  0  0
 10 44  1  0  0  0  0
 10 45  1  0  0  0  0
 11 17  1  0  0  0  0
 11 46  1  0  0  0  0
 11 47  1  0  0  0  0
 12 18  1  0  0  0  0
 12 48  1  0  0  0  0
 12 49  1  0  0  0  0
 13 19  1  0  0  0  0
 13 50  1  0  0  0  0
 13 51  1  0  0  0  0
 14 20  1  0  0  0  0
 14 52  1  0  0  0  0
 14 53  1  0  0  0  0
 15 21  1  0  0  0  0
 15 54  1  0  0  0  0
 15 55  1  0  0  0  0
 16 22  1  0  0  0  0
 16 56  1  0  0  0  0
 16 57  1  0  0  0  0
 17 23  1  0  0  0  0
 17 58  1  0  0  0  0
 17 59  1  0  0  0  0
 18 24  1  0  0  0  0
 18 60  1  0  0  0  0
 18 61  1  0  0  0  0
 19 25  1  0  0  0  0
 19 62  1  0  0  0  0
 19 63  1  0  0  0  0
 20 26  1  0  0  0  0
 20 64  1  0  0  0  0
 20 65  1  0  0  0  0
 21 27  1  0  0  0  0
 21 66  1  0  0  0  0
 21 67  1  0  0  0  0
 22 68  1  0  0  0  0
 22 69  1  0  0  0  0
 22 70  1  0  0  0  0
 23 71  1  0  0  0  0
 23 72  1  0  0  0  0
 23 73  1  0  0  0  0
 24 74  1  0  0  0  0
 24 75  1  0  0  0  0
 24 76  1  0  0  0  0
 25 77  1  0  0  0  0
 25 78  1  0  0  0  0
 25 79  1  0  0  0  0
 26 80  1  0  0  0  0
 26 81  1  0  0  0  0
 26 82  1  0  0  0  0
 27 83  1  0  0  0  0
 27 84  1  0  0  0  0
 27 85  1  0  0  0  0
M  END
> <PUBCHEM_COMPOUND_CID>
5947

> <PUBCHEM_COMPOUND_CANONICALIZED>
1

> <PUBCHEM_CACTVS_COMPLEXITY>
174

> <PUBCHEM_CACTVS_HBOND_ACCEPTOR>
1

> <PUBCHEM_CACTVS_HBOND_DONOR>
1

> <PUBCHEM_CACTVS_ROTATABLE_BOND>
18

> <PUBCHEM_CACTVS_SUBSKEYS>
AAADcfB4IAAAAAAAAACAAAAAAAAAAAAAAAAAAAAAAAAAAAAAAAAAGAAACAAACACAAAACAAAAAAAAAAAAAAAAAAAAAAAAAAAAAAAAAAAAAAAAAAAAAAAAAAAAAAAAAAAAAAAAAAAAAAAAAAAAAAAAAAAAAA==

> <PUBCHEM_IUPAC_OPENEYE_NAME>
tributylstannane hydrate

> <PUBCHEM_IUPAC_CAS_NAME>
tributylstannane hydrate

> <PUBCHEM_IUPAC_NAME>
tributylstannane hydrate

> <PUBCHEM_IUPAC_SYSTEMATIC_NAME>
tributylstannane hydrate

> <PUBCHEM_IUPAC_TRADITIONAL_NAME>
tributylstannane hydrate

> <PUBCHEM_IUPAC_INCHI>
InChI=1S/6C4H9.H2O.2Sn.2H/c6*1-3-4-2;;;;;/h6*1,3-4H2,2H3;1H2;;;;

> <PUBCHEM_IUPAC_INCHIKEY>
NZQFYJHTWVEUPP-UHFFFAOYSA-N

> <PUBCHEM_EXACT_MASS>
600.252564

> <PUBCHEM_MOLECULAR_FORMULA>
C24H58OSn2

> <PUBCHEM_MOLECULAR_WEIGHT>
600.13672

> <PUBCHEM_OPENEYE_CAN_SMILES>
CCCC[SnH](CCCC)CCCC.CCCC[SnH](CCCC)CCCC.O

> <PUBCHEM_OPENEYE_ISO_SMILES>
CCCC[SnH](CCCC)CCCC.CCCC[SnH](CCCC)CCCC.O

> <PUBCHEM_CACTVS_TPSA>
1

> <PUBCHEM_MONOISOTOPIC_WEIGHT>
602.253156

> <PUBCHEM_TOTAL_CHARGE>
0

> <PUBCHEM_HEAVY_ATOM_COUNT>
27

> <PUBCHEM_ATOM_DEF_STEREO_COUNT>
0

> <PUBCHEM_ATOM_UDEF_STEREO_COUNT>
0

> <PUBCHEM_BOND_DEF_STEREO_COUNT>
0

> <PUBCHEM_BOND_UDEF_STEREO_COUNT>
0

> <PUBCHEM_ISOTOPIC_ATOM_COUNT>
0

> <PUBCHEM_COMPONENT_COUNT>
3

> <PUBCHEM_CACTVS_TAUTO_COUNT>
1

> <PUBCHEM_NONSTANDARDBOND>
1  3  6
2  3  6

> <PUBCHEM_COORDINATE_TYPE>
1
5
255

> <PUBCHEM_BONDANNOTATIONS>
1  3  4
2  3  4

$$$$

