12237
  -OEChem-06261206422D

 35 34  0     1  0  0  0  0  0999 V2000
    3.7320   -0.5490    0.0000 P   0  0  3  0  0  0  0  0  0  0  0  0
    5.4641   -0.5490    0.0000 P   0  0  0  0  0  0  0  0  0  0  0  0
    4.5981   -0.0490    0.0000 O   0  0  0  0  0  0  0  0  0  0  0  0
    3.2320    0.3170    0.0000 O   0  0  0  0  0  0  0  0  0  0  0  0
    6.3301   -1.0490    0.0000 O   0  0  0  0  0  0  0  0  0  0  0  0
    5.9641    0.3170    0.0000 O   0  0  0  0  0  0  0  0  0  0  0  0
    4.2320   -1.4151    0.0000 O   0  0  0  0  0  0  0  0  0  0  0  0
    4.9641   -1.4151    0.0000 O   0  0  0  0  0  0  0  0  0  0  0  0
    2.8660   -1.0490    0.0000 N   0  0  0  0  0  0  0  0  0  0  0  0
    2.0000   -0.5490    0.0000 C   0  0  0  0  0  0  0  0  0  0  0  0
    2.8660   -2.0490    0.0000 C   0  0  0  0  0  0  0  0  0  0  0  0
    7.1962   -0.5490    0.0000 C   0  0  0  0  0  0  0  0  0  0  0  0
    5.4641    1.1830    0.0000 C   0  0  0  0  0  0  0  0  0  0  0  0
    3.7320    1.1830    0.0000 C   0  0  0  0  0  0  0  0  0  0  0  0
    8.0622   -1.0490    0.0000 C   0  0  0  0  0  0  0  0  0  0  0  0
    5.9641    2.0490    0.0000 C   0  0  0  0  0  0  0  0  0  0  0  0
    2.3100   -0.0121    0.0000 H   0  0  0  0  0  0  0  0  0  0  0  0
    1.4631   -0.2390    0.0000 H   0  0  0  0  0  0  0  0  0  0  0  0
    1.6900   -1.0860    0.0000 H   0  0  0  0  0  0  0  0  0  0  0  0
    2.2460   -2.0490    0.0000 H   0  0  0  0  0  0  0  0  0  0  0  0
    2.8660   -2.6690    0.0000 H   0  0  0  0  0  0  0  0  0  0  0  0
    3.4860   -2.0490    0.0000 H   0  0  0  0  0  0  0  0  0  0  0  0
    7.5947   -0.0741    0.0000 H   0  0  0  0  0  0  0  0  0  0  0  0
    6.7976   -0.0741    0.0000 H   0  0  0  0  0  0  0  0  0  0  0  0
    4.9892    1.5815    0.0000 H   0  0  0  0  0  0  0  0  0  0  0  0
    4.9892    0.7845    0.0000 H   0  0  0  0  0  0  0  0  0  0  0  0
    4.2690    0.8730    0.0000 H   0  0  0  0  0  0  0  0  0  0  0  0
    4.0420    1.7200    0.0000 H   0  0  0  0  0  0  0  0  0  0  0  0
    3.1951    1.4930    0.0000 H   0  0  0  0  0  0  0  0  0  0  0  0
    7.7522   -1.5860    0.0000 H   0  0  0  0  0  0  0  0  0  0  0  0
    8.5991   -1.3590    0.0000 H   0  0  0  0  0  0  0  0  0  0  0  0
    8.3722   -0.5121    0.0000 H   0  0  0  0  0  0  0  0  0  0  0  0
    6.5010    1.7390    0.0000 H   0  0  0  0  0  0  0  0  0  0  0  0
    6.2741    2.5860    0.0000 H   0  0  0  0  0  0  0  0  0  0  0  0
    5.4272    2.3590    0.0000 H   0  0  0  0  0  0  0  0  0  0  0  0
  1  3  1  0  0  0  0
  1  4  1  0  0  0  0
  1  7  2  0  0  0  0
  1  9  1  0  0  0  0
  2  3  1  0  0  0  0
  2  5  1  0  0  0  0
  2  6  1  0  0  0  0
  2  8  2  0  0  0  0
  4 14  1  0  0  0  0
  5 12  1  0  0  0  0
  6 13  1  0  0  0  0
  9 10  1  0  0  0  0
  9 11  1  0  0  0  0
 10 17  1  0  0  0  0
 10 18  1  0  0  0  0
 10 19  1  0  0  0  0
 11 20  1  0  0  0  0
 11 21  1  0  0  0  0
 11 22  1  0  0  0  0
 12 15  1  0  0  0  0
 12 23  1  0  0  0  0
 12 24  1  0  0  0  0
 13 16  1  0  0  0  0
 13 25  1  0  0  0  0
 13 26  1  0  0  0  0
 14 27  1  0  0  0  0
 14 28  1  0  0  0  0
 14 29  1  0  0  0  0
 15 30  1  0  0  0  0
 15 31  1  0  0  0  0
 15 32  1  0  0  0  0
 16 33  1  0  0  0  0
 16 34  1  0  0  0  0
 16 35  1  0  0  0  0
M  END
> <PUBCHEM_COMPOUND_CID>
12237

> <PUBCHEM_COMPOUND_CANONICALIZED>
1

> <PUBCHEM_CACTVS_COMPLEXITY>
285

> <PUBCHEM_CACTVS_HBOND_ACCEPTOR>
7

> <PUBCHEM_CACTVS_HBOND_DONOR>
0

> <PUBCHEM_CACTVS_ROTATABLE_BOND>
8

> <PUBCHEM_CACTVS_SUBSKEYS>
AAADceBiOAMAAAAAAAAAAAAAAAAAAAAAAAAAAAAAAAAAAAAAAAAAHgAAgCAAAACggAYCAAIAARAAQAAAAIAAAAAAAAAAAAAIAAAAAAAAAAAAAAAAAAAAAAAAAAAAAAAAAAAAAAAAAAAAAAAAAAAAAAAAAA==

> <PUBCHEM_IUPAC_OPENEYE_NAME>
[dimethylamino(methoxy)phosphoryl] diethyl phosphate

> <PUBCHEM_IUPAC_CAS_NAME>
phosphoric acid [dimethylamino(methoxy)phosphoryl] diethyl ester

> <PUBCHEM_IUPAC_NAME>
[dimethylamino(methoxy)phosphoryl] diethyl phosphate

> <PUBCHEM_IUPAC_SYSTEMATIC_NAME>
[dimethylamino(methoxy)phosphoryl] diethyl phosphate

> <PUBCHEM_IUPAC_TRADITIONAL_NAME>
phosphoric acid [dimethylamino(methoxy)phosphoryl] diethyl ester

> <PUBCHEM_IUPAC_INCHI>
InChI=1S/C7H19NO6P2/c1-6-12-16(10,13-7-2)14-15(9,11-5)8(3)4/h6-7H2,1-5H3

> <PUBCHEM_IUPAC_INCHIKEY>
LYAAIYRUCCZFRB-UHFFFAOYSA-N

> <PUBCHEM_XLOGP3_AA>
-0.1

> <PUBCHEM_EXACT_MASS>
275.068761

> <PUBCHEM_MOLECULAR_FORMULA>
C7H19NO6P2

> <PUBCHEM_MOLECULAR_WEIGHT>
275.176384

> <PUBCHEM_OPENEYE_CAN_SMILES>
CCOP(=O)(OCC)OP(=O)(N(C)C)OC

> <PUBCHEM_OPENEYE_ISO_SMILES>
CCOP(=O)(OCC)OP(=O)(N(C)C)OC

> <PUBCHEM_CACTVS_TPSA>
74.3

> <PUBCHEM_MONOISOTOPIC_WEIGHT>
275.068761

> <PUBCHEM_TOTAL_CHARGE>
0

> <PUBCHEM_HEAVY_ATOM_COUNT>
16

> <PUBCHEM_ATOM_DEF_STEREO_COUNT>
0

> <PUBCHEM_ATOM_UDEF_STEREO_COUNT>
1

> <PUBCHEM_BOND_DEF_STEREO_COUNT>
0

> <PUBCHEM_BOND_UDEF_STEREO_COUNT>
0

> <PUBCHEM_ISOTOPIC_ATOM_COUNT>
0

> <PUBCHEM_COMPONENT_COUNT>
1

> <PUBCHEM_CACTVS_TAUTO_COUNT>
1

> <PUBCHEM_COORDINATE_TYPE>
1
5
255

> <PUBCHEM_BONDANNOTATIONS>
1  3  3

$$$$

