8267
  -OEChem-06261202422D

 36 37  0     1  0  0  0  0  0999 V2000
    2.5176   -2.2304    0.0000 S   0  0  0  0  0  0  0  0  0  0  0  0
    4.7083   -0.7468    0.0000 O   0  0  0  0  0  0  0  0  0  0  0  0
    3.0353   -0.2985    0.0000 O   0  0  0  0  0  0  0  0  0  0  0  0
    2.0000   -4.1622    0.0000 N   0  0  0  0  0  0  0  0  0  0  0  0
    6.6992    1.2191    0.0000 C   0  0  3  0  0  0  0  0  0  0  0  0
    6.2214    3.1677    0.0000 C   0  0  0  0  0  0  0  0  0  0  0  0
    6.9580    2.1851    0.0000 C   0  0  3  0  0  0  0  0  0  0  0  0
    4.9671    0.2191    0.0000 C   0  0  3  0  0  0  0  0  0  0  0  0
    8.5311    0.4603    0.0000 C   0  0  0  0  0  0  0  0  0  0  0  0
    4.4671    1.0852    0.0000 C   0  0  0  0  0  0  0  0  0  0  0  0
    8.7899    1.4262    0.0000 C   0  0  0  0  0  0  0  0  0  0  0  0
    6.4404    0.2532    0.0000 C   0  0  0  0  0  0  0  0  0  0  0  0
    6.3259    4.1622    0.0000 C   0  0  0  0  0  0  0  0  0  0  0  0
    5.3078    3.5744    0.0000 C   0  0  0  0  0  0  0  0  0  0  0  0
    3.7424   -1.0056    0.0000 C   0  0  0  0  0  0  0  0  0  0  0  0
    3.4836   -1.9715    0.0000 C   0  0  0  0  0  0  0  0  0  0  0  0
    2.2588   -3.1963    0.0000 C   0  0  0  0  0  0  0  0  0  0  0  0
    6.9652    1.5651    0.0000 H   0  0  0  0  0  0  0  0  0  0  0  0
    5.4590   -0.1583    0.0000 H   0  0  0  0  0  0  0  0  0  0  0  0
    8.3191   -0.1223    0.0000 H   0  0  0  0  0  0  0  0  0  0  0  0
    9.1224    0.2739    0.0000 H   0  0  0  0  0  0  0  0  0  0  0  0
    4.1965    1.6430    0.0000 H   0  0  0  0  0  0  0  0  0  0  0  0
    3.9194    0.7946    0.0000 H   0  0  0  0  0  0  0  0  0  0  0  0
    9.3812    1.2398    0.0000 H   0  0  0  0  0  0  0  0  0  0  0  0
    9.0020    2.0089    0.0000 H   0  0  0  0  0  0  0  0  0  0  0  0
    5.8415    0.4137    0.0000 H   0  0  0  0  0  0  0  0  0  0  0  0
    6.2799   -0.3457    0.0000 H   0  0  0  0  0  0  0  0  0  0  0  0
    7.0392    0.0927    0.0000 H   0  0  0  0  0  0  0  0  0  0  0  0
    6.9425    4.0974    0.0000 H   0  0  0  0  0  0  0  0  0  0  0  0
    6.3907    4.7788    0.0000 H   0  0  0  0  0  0  0  0  0  0  0  0
    5.7093    4.2270    0.0000 H   0  0  0  0  0  0  0  0  0  0  0  0
    5.5600    4.1408    0.0000 H   0  0  0  0  0  0  0  0  0  0  0  0
    4.7414    3.8266    0.0000 H   0  0  0  0  0  0  0  0  0  0  0  0
    5.0557    3.0080    0.0000 H   0  0  0  0  0  0  0  0  0  0  0  0
    3.5376   -2.5892    0.0000 H   0  0  0  0  0  0  0  0  0  0  0  0
    4.1012   -2.0256    0.0000 H   0  0  0  0  0  0  0  0  0  0  0  0
  1 16  1  0  0  0  0
  1 17  1  0  0  0  0
  2  8  1  0  0  0  0
  2 15  1  0  0  0  0
  3 15  2  0  0  0  0
  4 17  3  0  0  0  0
  5  6  1  0  0  0  0
  5  8  1  0  0  0  0
  5  9  1  0  0  0  0
  5 12  1  0  0  0  0
  6  7  1  0  0  0  0
  6 13  1  0  0  0  0
  6 14  1  0  0  0  0
  7 10  1  0  0  0  0
  7 11  1  0  0  0  0
  7 18  1  0  0  0  0
  8 10  1  0  0  0  0
  8 19  1  0  0  0  0
  9 11  1  0  0  0  0
  9 20  1  0  0  0  0
  9 21  1  0  0  0  0
 10 22  1  0  0  0  0
 10 23  1  0  0  0  0
 11 24  1  0  0  0  0
 11 25  1  0  0  0  0
 12 26  1  0  0  0  0
 12 27  1  0  0  0  0
 12 28  1  0  0  0  0
 13 29  1  0  0  0  0
 13 30  1  0  0  0  0
 13 31  1  0  0  0  0
 14 32  1  0  0  0  0
 14 33  1  0  0  0  0
 14 34  1  0  0  0  0
 15 16  1  0  0  0  0
 16 35  1  0  0  0  0
 16 36  1  0  0  0  0
M  END
> <PUBCHEM_COMPOUND_CID>
8267

> <PUBCHEM_COMPOUND_CANONICALIZED>
1

> <PUBCHEM_CACTVS_COMPLEXITY>
384

> <PUBCHEM_CACTVS_HBOND_ACCEPTOR>
4

> <PUBCHEM_CACTVS_HBOND_DONOR>
0

> <PUBCHEM_CACTVS_ROTATABLE_BOND>
4

> <PUBCHEM_CACTVS_SUBSKEYS>
AAADceByMABAAAAAAAAAAAAAAAAAAYMAAAAwAAAAAAAAAAAAAAAAHgQAAAAADxSkwAKCCAAABAgYAACQCAAAAAAAABAAAAAAAAAAAAIAAAACAAAEAAAAAAGAwPAPgAAAAAAAAACAAAIAABAAAYAADAAAAA==

> <PUBCHEM_IUPAC_OPENEYE_NAME>
(1,7,7-trimethylnorbornan-2-yl) 2-thiocyanatoacetate

> <PUBCHEM_IUPAC_CAS_NAME>
2-thiocyanatoacetic acid (4,7,7-trimethyl-3-bicyclo[2.2.1]heptanyl) ester

> <PUBCHEM_IUPAC_NAME>
(4,7,7-trimethyl-3-bicyclo[2.2.1]heptanyl) 2-thiocyanatoacetate

> <PUBCHEM_IUPAC_SYSTEMATIC_NAME>
(4,7,7-trimethyl-3-bicyclo[2.2.1]heptanyl) 2-thiocyanatoethanoate

> <PUBCHEM_IUPAC_TRADITIONAL_NAME>
2-thiocyanatoacetic acid 2-bornyl ester

> <PUBCHEM_IUPAC_INCHI>
InChI=1S/C13H19NO2S/c1-12(2)9-4-5-13(12,3)10(6-9)16-11(15)7-17-8-14/h9-10H,4-7H2,1-3H3

> <PUBCHEM_IUPAC_INCHIKEY>
IXEVGHXRXDBAOB-UHFFFAOYSA-N

> <PUBCHEM_XLOGP3>
4

> <PUBCHEM_EXACT_MASS>
253.11365

> <PUBCHEM_MOLECULAR_FORMULA>
C13H19NO2S

> <PUBCHEM_MOLECULAR_WEIGHT>
253.36046

> <PUBCHEM_OPENEYE_CAN_SMILES>
CC1(C2CCC1(C(C2)OC(=O)CSC#N)C)C

> <PUBCHEM_OPENEYE_ISO_SMILES>
CC1(C2CCC1(C(C2)OC(=O)CSC#N)C)C

> <PUBCHEM_CACTVS_TPSA>
75.4

> <PUBCHEM_MONOISOTOPIC_WEIGHT>
253.11365

> <PUBCHEM_TOTAL_CHARGE>
0

> <PUBCHEM_HEAVY_ATOM_COUNT>
17

> <PUBCHEM_ATOM_DEF_STEREO_COUNT>
0

> <PUBCHEM_ATOM_UDEF_STEREO_COUNT>
3

> <PUBCHEM_BOND_DEF_STEREO_COUNT>
0

> <PUBCHEM_BOND_UDEF_STEREO_COUNT>
0

> <PUBCHEM_ISOTOPIC_ATOM_COUNT>
0

> <PUBCHEM_COMPONENT_COUNT>
1

> <PUBCHEM_CACTVS_TAUTO_COUNT>
1

> <PUBCHEM_COORDINATE_TYPE>
1
5
255

> <PUBCHEM_BONDANNOTATIONS>
8  2  3
5  12  3
7  6  3

$$$$

