585202
  -OEChem-06241222452D

 46 48  0     1  0  0  0  0  0999 V2000
    5.7410   -0.8944    0.0000 S   0  0  0  0  0  0  0  0  0  0  0  0
    2.6723   -0.8944    0.0000 O   0  0  0  0  0  0  0  0  0  0  0  0
    3.5683    1.3716    0.0000 O   0  0  0  0  0  0  0  0  0  0  0  0
    2.6444    0.7026    0.0000 O   0  0  0  0  0  0  0  0  0  0  0  0
    7.6752    2.6056    0.0000 O   0  0  0  0  0  0  0  0  0  0  0  0
    4.2111   -1.3944    0.0000 N   0  0  3  0  0  0  0  0  0  0  0  0
    4.2111   -0.3944    0.0000 C   0  0  3  0  0  0  0  0  0  0  0  0
    3.2601   -1.7034    0.0000 C   0  0  3  0  0  0  0  0  0  0  0  0
    2.9511   -2.6545    0.0000 C   0  0  0  0  0  0  0  0  0  0  0  0
    5.1574   -0.0897    0.0000 C   0  0  0  0  0  0  0  0  0  0  0  0
    4.2111    0.6056    0.0000 C   0  0  3  0  0  0  0  0  0  0  0  0
    5.1574   -1.6992    0.0000 C   0  0  0  0  0  0  0  0  0  0  0  0
    3.2601   -0.0854    0.0000 C   0  0  0  0  0  0  0  0  0  0  0  0
    2.6420   -3.6056    0.0000 C   0  0  0  0  0  0  0  0  0  0  0  0
    2.0000   -2.3455    0.0000 C   0  0  0  0  0  0  0  0  0  0  0  0
    3.9021   -2.9635    0.0000 C   0  0  0  0  0  0  0  0  0  0  0  0
    5.0772    1.1056    0.0000 C   0  0  0  0  0  0  0  0  0  0  0  0
    5.9432    0.6056    0.0000 C   0  0  0  0  0  0  0  0  0  0  0  0
    5.0772    2.1056    0.0000 C   0  0  0  0  0  0  0  0  0  0  0  0
    6.8092    1.1056    0.0000 C   0  0  0  0  0  0  0  0  0  0  0  0
    5.9432    2.6056    0.0000 C   0  0  0  0  0  0  0  0  0  0  0  0
    6.8092    2.1056    0.0000 C   0  0  0  0  0  0  0  0  0  0  0  0
    7.6752    3.6056    0.0000 C   0  0  0  0  0  0  0  0  0  0  0  0
    2.4205   -1.8364    0.0000 H   0  0  0  0  0  0  0  0  0  0  0  0
    5.6947    0.2195    0.0000 H   0  0  0  0  0  0  0  0  0  0  0  0
    4.9063    0.4772    0.0000 H   0  0  0  0  0  0  0  0  0  0  0  0
    3.4124    0.3148    0.0000 H   0  0  0  0  0  0  0  0  0  0  0  0
    4.9063   -2.2661    0.0000 H   0  0  0  0  0  0  0  0  0  0  0  0
    5.6947   -2.0084    0.0000 H   0  0  0  0  0  0  0  0  0  0  0  0
    2.0524   -3.4140    0.0000 H   0  0  0  0  0  0  0  0  0  0  0  0
    2.4504   -4.1952    0.0000 H   0  0  0  0  0  0  0  0  0  0  0  0
    3.2317   -3.7972    0.0000 H   0  0  0  0  0  0  0  0  0  0  0  0
    2.1916   -1.7558    0.0000 H   0  0  0  0  0  0  0  0  0  0  0  0
    1.4103   -2.1539    0.0000 H   0  0  0  0  0  0  0  0  0  0  0  0
    1.8084   -2.9352    0.0000 H   0  0  0  0  0  0  0  0  0  0  0  0
    3.7105   -3.5532    0.0000 H   0  0  0  0  0  0  0  0  0  0  0  0
    4.4918   -3.1551    0.0000 H   0  0  0  0  0  0  0  0  0  0  0  0
    4.0937   -2.3739    0.0000 H   0  0  0  0  0  0  0  0  0  0  0  0
    3.7804    1.9542    0.0000 H   0  0  0  0  0  0  0  0  0  0  0  0
    5.9432   -0.0144    0.0000 H   0  0  0  0  0  0  0  0  0  0  0  0
    4.5402    2.4156    0.0000 H   0  0  0  0  0  0  0  0  0  0  0  0
    7.3461    0.7956    0.0000 H   0  0  0  0  0  0  0  0  0  0  0  0
    5.9432    3.2256    0.0000 H   0  0  0  0  0  0  0  0  0  0  0  0
    8.2952    3.6056    0.0000 H   0  0  0  0  0  0  0  0  0  0  0  0
    7.6752    4.2256    0.0000 H   0  0  0  0  0  0  0  0  0  0  0  0
    7.0552    3.6056    0.0000 H   0  0  0  0  0  0  0  0  0  0  0  0
  1 10  1  0  0  0  0
  1 12  1  0  0  0  0
  2  8  1  0  0  0  0
  2 13  1  0  0  0  0
  3 11  1  0  0  0  0
  3 39  1  0  0  0  0
  4 13  2  0  0  0  0
  5 22  1  0  0  0  0
  5 23  1  0  0  0  0
  6  7  1  0  0  0  0
  6  8  1  0  0  0  0
  6 12  1  0  0  0  0
  7 10  1  0  0  0  0
  7 11  1  0  0  0  0
  7 13  1  0  0  0  0
  8  9  1  0  0  0  0
  8 24  1  0  0  0  0
  9 14  1  0  0  0  0
  9 15  1  0  0  0  0
  9 16  1  0  0  0  0
 10 25  1  0  0  0  0
 10 26  1  0  0  0  0
 11 17  1  0  0  0  0
 11 27  1  0  0  0  0
 12 28  1  0  0  0  0
 12 29  1  0  0  0  0
 14 30  1  0  0  0  0
 14 31  1  0  0  0  0
 14 32  1  0  0  0  0
 15 33  1  0  0  0  0
 15 34  1  0  0  0  0
 15 35  1  0  0  0  0
 16 36  1  0  0  0  0
 16 37  1  0  0  0  0
 16 38  1  0  0  0  0
 17 18  2  0  0  0  0
 17 19  1  0  0  0  0
 18 20  1  0  0  0  0
 18 40  1  0  0  0  0
 19 21  2  0  0  0  0
 19 41  1  0  0  0  0
 20 22  2  0  0  0  0
 20 42  1  0  0  0  0
 21 22  1  0  0  0  0
 21 43  1  0  0  0  0
 23 44  1  0  0  0  0
 23 45  1  0  0  0  0
 23 46  1  0  0  0  0
M  END
> <PUBCHEM_COMPOUND_CID>
585202

> <PUBCHEM_COMPOUND_CANONICALIZED>
1

> <PUBCHEM_CACTVS_COMPLEXITY>
458

> <PUBCHEM_CACTVS_HBOND_ACCEPTOR>
6

> <PUBCHEM_CACTVS_HBOND_DONOR>
1

> <PUBCHEM_CACTVS_ROTATABLE_BOND>
4

> <PUBCHEM_CACTVS_SUBSKEYS>
AAADceB6OABAAAAAAAAAAAAAAAAAAWLAAAAwAAAAAAAWAAABAAAAHgQACAAADpzl2AayDoMABgiIAiDSCAACCABgIBAIiAGOCIgONjaksTuPcCAl4BGYuAeY6OyOIAAAAAAAAABAAAAAAAAAAAAAAAAAAA==

> <PUBCHEM_IUPAC_OPENEYE_NAME>
3-tert-butyl-7a-[hydroxy-(4-methoxyphenyl)methyl]-5,7-dihydro-3H-thiazolo[3,4-c]oxazol-1-one

> <PUBCHEM_IUPAC_CAS_NAME>
3-tert-butyl-7a-[hydroxy-(4-methoxyphenyl)methyl]-5,7-dihydro-3H-thiazolo[3,4-c]oxazol-1-one

> <PUBCHEM_IUPAC_NAME>
3-tert-butyl-7a-[hydroxy-(4-methoxyphenyl)methyl]-5,7-dihydro-3H-[1,3]thiazolo[3,4-c][1,3]oxazol-1-one

> <PUBCHEM_IUPAC_SYSTEMATIC_NAME>
3-tert-butyl-7a-[(4-methoxyphenyl)-oxidanyl-methyl]-5,7-dihydro-3H-[1,3]thiazolo[3,4-c][1,3]oxazol-1-one

> <PUBCHEM_IUPAC_TRADITIONAL_NAME>
3-tert-butyl-7a-[hydroxy-(4-methoxyphenyl)methyl]-5,7-dihydro-3H-thiazolo[3,4-c]oxazol-1-one

> <PUBCHEM_IUPAC_INCHI>
InChI=1S/C17H23NO4S/c1-16(2,3)14-18-10-23-9-17(18,15(20)22-14)13(19)11-5-7-12(21-4)8-6-11/h5-8,13-14,19H,9-10H2,1-4H3

> <PUBCHEM_IUPAC_INCHIKEY>
CBXFIBXOCXHHGF-UHFFFAOYSA-N

> <PUBCHEM_XLOGP3_AA>
3.6

> <PUBCHEM_EXACT_MASS>
337.134779

> <PUBCHEM_MOLECULAR_FORMULA>
C17H23NO4S

> <PUBCHEM_MOLECULAR_WEIGHT>
337.43382

> <PUBCHEM_OPENEYE_CAN_SMILES>
CC(C)(C)C1N2CSCC2(C(=O)O1)C(C3=CC=C(C=C3)OC)O

> <PUBCHEM_OPENEYE_ISO_SMILES>
CC(C)(C)C1N2CSCC2(C(=O)O1)C(C3=CC=C(C=C3)OC)O

> <PUBCHEM_CACTVS_TPSA>
84.3

> <PUBCHEM_MONOISOTOPIC_WEIGHT>
337.134779

> <PUBCHEM_TOTAL_CHARGE>
0

> <PUBCHEM_HEAVY_ATOM_COUNT>
23

> <PUBCHEM_ATOM_DEF_STEREO_COUNT>
0

> <PUBCHEM_ATOM_UDEF_STEREO_COUNT>
3

> <PUBCHEM_BOND_DEF_STEREO_COUNT>
0

> <PUBCHEM_BOND_UDEF_STEREO_COUNT>
0

> <PUBCHEM_ISOTOPIC_ATOM_COUNT>
0

> <PUBCHEM_COMPONENT_COUNT>
1

> <PUBCHEM_CACTVS_TAUTO_COUNT>
1

> <PUBCHEM_COORDINATE_TYPE>
1
5
255

> <PUBCHEM_BONDANNOTATIONS>
11  27  3
17  18  8
17  19  8
18  20  8
19  21  8
20  22  8
21  22  8
7  13  3
8  24  3

$$$$

