17395483
  -OEChem-06241222502D

 44 47  0     0  0  0  0  0  0999 V2000
    7.6279   -2.4374    0.0000 S   0  0  0  0  0  0  0  0  0  0  0  0
   11.5832    2.2953    0.0000 O   0  0  0  0  0  0  0  0  0  0  0  0
    4.5981   -1.0713    0.0000 N   0  0  0  0  0  0  0  0  0  0  0  0
    5.5443   -2.3761    0.0000 N   0  0  0  0  0  0  0  0  0  0  0  0
    9.2157   -1.6283    0.0000 N   0  0  0  0  0  0  0  0  0  0  0  0
   10.1667   -1.9374    0.0000 N   0  0  0  0  0  0  0  0  0  0  0  0
    9.2157   -3.2464    0.0000 N   0  0  0  0  0  0  0  0  0  0  0  0
   10.1667   -2.9374    0.0000 N   0  0  0  0  0  0  0  0  0  0  0  0
    4.5981   -2.0713    0.0000 C   0  0  0  0  0  0  0  0  0  0  0  0
    6.1279   -1.5713    0.0000 C   0  0  0  0  0  0  0  0  0  0  0  0
    5.5443   -0.7666    0.0000 C   0  0  0  0  0  0  0  0  0  0  0  0
    7.1279   -1.5713    0.0000 C   0  0  0  0  0  0  0  0  0  0  0  0
    3.7320   -0.5713    0.0000 C   0  0  0  0  0  0  0  0  0  0  0  0
    8.9067   -0.6773    0.0000 C   0  0  0  0  0  0  0  0  0  0  0  0
    2.8660   -1.0713    0.0000 C   0  0  0  0  0  0  0  0  0  0  0  0
    3.7320   -2.5713    0.0000 C   0  0  0  0  0  0  0  0  0  0  0  0
    9.5758    0.0659    0.0000 C   0  0  0  0  0  0  0  0  0  0  0  0
    2.8660   -2.0713    0.0000 C   0  0  0  0  0  0  0  0  0  0  0  0
    8.6279   -2.4374    0.0000 C   0  0  0  0  0  0  0  0  0  0  0  0
   10.5540   -0.1420    0.0000 C   0  0  0  0  0  0  0  0  0  0  0  0
    9.2668    1.0169    0.0000 C   0  0  0  0  0  0  0  0  0  0  0  0
    2.0000   -0.5713    0.0000 C   0  0  0  0  0  0  0  0  0  0  0  0
   11.2231    0.6011    0.0000 C   0  0  0  0  0  0  0  0  0  0  0  0
    9.9359    1.7601    0.0000 C   0  0  0  0  0  0  0  0  0  0  0  0
   10.9141    1.5522    0.0000 C   0  0  0  0  0  0  0  0  0  0  0  0
   11.2742    3.2464    0.0000 C   0  0  0  0  0  0  0  0  0  0  0  0
    5.7369   -0.1773    0.0000 H   0  0  0  0  0  0  0  0  0  0  0  0
    7.7105   -1.3593    0.0000 H   0  0  0  0  0  0  0  0  0  0  0  0
    7.0202   -0.9607    0.0000 H   0  0  0  0  0  0  0  0  0  0  0  0
    3.7320    0.0487    0.0000 H   0  0  0  0  0  0  0  0  0  0  0  0
    8.5250   -0.1887    0.0000 H   0  0  0  0  0  0  0  0  0  0  0  0
    8.3592   -0.9683    0.0000 H   0  0  0  0  0  0  0  0  0  0  0  0
    3.7320   -3.1913    0.0000 H   0  0  0  0  0  0  0  0  0  0  0  0
    2.3291   -2.3813    0.0000 H   0  0  0  0  0  0  0  0  0  0  0  0
   10.7455   -0.7317    0.0000 H   0  0  0  0  0  0  0  0  0  0  0  0
    8.6603    1.1458    0.0000 H   0  0  0  0  0  0  0  0  0  0  0  0
    2.3100   -0.0344    0.0000 H   0  0  0  0  0  0  0  0  0  0  0  0
    1.4631   -0.2613    0.0000 H   0  0  0  0  0  0  0  0  0  0  0  0
    1.6900   -1.1083    0.0000 H   0  0  0  0  0  0  0  0  0  0  0  0
   11.8295    0.4722    0.0000 H   0  0  0  0  0  0  0  0  0  0  0  0
    9.7443    2.3497    0.0000 H   0  0  0  0  0  0  0  0  0  0  0  0
   11.8638    3.4380    0.0000 H   0  0  0  0  0  0  0  0  0  0  0  0
   11.0826    3.8360    0.0000 H   0  0  0  0  0  0  0  0  0  0  0  0
   10.6845    3.0548    0.0000 H   0  0  0  0  0  0  0  0  0  0  0  0
  1 12  1  0  0  0  0
  1 19  1  0  0  0  0
  2 25  1  0  0  0  0
  2 26  1  0  0  0  0
  3  9  1  0  0  0  0
  3 11  1  0  0  0  0
  3 13  1  0  0  0  0
  4  9  2  0  0  0  0
  4 10  1  0  0  0  0
  5  6  1  0  0  0  0
  5 14  1  0  0  0  0
  5 19  1  0  0  0  0
  6  8  2  0  0  0  0
  7  8  1  0  0  0  0
  7 19  2  0  0  0  0
  9 16  1  0  0  0  0
 10 11  2  0  0  0  0
 10 12  1  0  0  0  0
 11 27  1  0  0  0  0
 12 28  1  0  0  0  0
 12 29  1  0  0  0  0
 13 15  2  0  0  0  0
 13 30  1  0  0  0  0
 14 17  1  0  0  0  0
 14 31  1  0  0  0  0
 14 32  1  0  0  0  0
 15 18  1  0  0  0  0
 15 22  1  0  0  0  0
 16 18  2  0  0  0  0
 16 33  1  0  0  0  0
 17 20  2  0  0  0  0
 17 21  1  0  0  0  0
 18 34  1  0  0  0  0
 20 23  1  0  0  0  0
 20 35  1  0  0  0  0
 21 24  2  0  0  0  0
 21 36  1  0  0  0  0
 22 37  1  0  0  0  0
 22 38  1  0  0  0  0
 22 39  1  0  0  0  0
 23 25  2  0  0  0  0
 23 40  1  0  0  0  0
 24 25  1  0  0  0  0
 24 41  1  0  0  0  0
 26 42  1  0  0  0  0
 26 43  1  0  0  0  0
 26 44  1  0  0  0  0
M  END
> <PUBCHEM_COMPOUND_CID>
17395483

> <PUBCHEM_COMPOUND_CANONICALIZED>
1

> <PUBCHEM_CACTVS_COMPLEXITY>
449

> <PUBCHEM_CACTVS_HBOND_ACCEPTOR>
6

> <PUBCHEM_CACTVS_HBOND_DONOR>
0

> <PUBCHEM_CACTVS_ROTATABLE_BOND>
6

> <PUBCHEM_CACTVS_SUBSKEYS>
AAADceB7oABAAAAAAAAAAAAAAAAAAWLAAAA8QAAAAAAAAFgB/AAAHgQIAAAADAzF3wa/tp8MHAiiAzZnZACCmC9xsrAd2CA+fJiMbuLkuZuUMChswBPI6CeQ0AIOIAAAAAAAAABAAAAAAAAAAAAAAAAAAA==

> <PUBCHEM_IUPAC_OPENEYE_NAME>
2-[[1-[(4-methoxyphenyl)methyl]tetrazol-5-yl]sulfanylmethyl]-6-methyl-imidazo[1,2-a]pyridine

> <PUBCHEM_IUPAC_CAS_NAME>
2-[[[1-[(4-methoxyphenyl)methyl]-5-tetrazolyl]thio]methyl]-6-methylimidazo[1,2-a]pyridine

> <PUBCHEM_IUPAC_NAME>
2-[[1-[(4-methoxyphenyl)methyl]tetrazol-5-yl]sulfanylmethyl]-6-methylimidazo[1,2-a]pyridine

> <PUBCHEM_IUPAC_SYSTEMATIC_NAME>
2-[[1-[(4-methoxyphenyl)methyl]-1,2,3,4-tetrazol-5-yl]sulfanylmethyl]-6-methyl-imidazo[1,2-a]pyridine

> <PUBCHEM_IUPAC_TRADITIONAL_NAME>
6-methyl-2-[[(1-p-anisyltetrazol-5-yl)thio]methyl]imidazo[1,2-a]pyridine

> <PUBCHEM_IUPAC_INCHI>
InChI=1S/C18H18N6OS/c1-13-3-8-17-19-15(11-23(17)9-13)12-26-18-20-21-22-24(18)10-14-4-6-16(25-2)7-5-14/h3-9,11H,10,12H2,1-2H3

> <PUBCHEM_IUPAC_INCHIKEY>
RHKMOWYEYLHCDK-UHFFFAOYSA-N

> <PUBCHEM_XLOGP3_AA>
3.7

> <PUBCHEM_EXACT_MASS>
366.12628

> <PUBCHEM_MOLECULAR_FORMULA>
C18H18N6OS

> <PUBCHEM_MOLECULAR_WEIGHT>
366.44012

> <PUBCHEM_OPENEYE_CAN_SMILES>
CC1=CN2C=C(N=C2C=C1)CSC3=NN=NN3CC4=CC=C(C=C4)OC

> <PUBCHEM_OPENEYE_ISO_SMILES>
CC1=CN2C=C(N=C2C=C1)CSC3=NN=NN3CC4=CC=C(C=C4)OC

> <PUBCHEM_CACTVS_TPSA>
95.4

> <PUBCHEM_MONOISOTOPIC_WEIGHT>
366.12628

> <PUBCHEM_TOTAL_CHARGE>
0

> <PUBCHEM_HEAVY_ATOM_COUNT>
26

> <PUBCHEM_ATOM_DEF_STEREO_COUNT>
0

> <PUBCHEM_ATOM_UDEF_STEREO_COUNT>
0

> <PUBCHEM_BOND_DEF_STEREO_COUNT>
0

> <PUBCHEM_BOND_UDEF_STEREO_COUNT>
0

> <PUBCHEM_ISOTOPIC_ATOM_COUNT>
0

> <PUBCHEM_COMPONENT_COUNT>
1

> <PUBCHEM_CACTVS_TAUTO_COUNT>
1

> <PUBCHEM_COORDINATE_TYPE>
1
5
255

> <PUBCHEM_BONDANNOTATIONS>
10  11  8
13  15  8
15  18  8
16  18  8
17  20  8
17  21  8
20  23  8
21  24  8
23  25  8
24  25  8
3  11  8
3  13  8
3  9  8
4  10  8
4  9  8
5  19  8
5  6  8
6  8  8
7  19  8
7  8  8
9  16  8

$$$$

