17395515
  -OEChem-06241222502D

 32 34  0     0  0  0  0  0  0999 V2000
    5.3511    0.1424    0.0000 S   0  0  0  0  0  0  0  0  0  0  0  0
    3.1191   -2.3965    0.0000 F   0  0  0  0  0  0  0  0  0  0  0  0
    6.5832   -4.3965    0.0000 F   0  0  0  0  0  0  0  0  0  0  0  0
    3.9890    3.5875    0.0000 O   0  0  0  0  0  0  0  0  0  0  0  0
    2.0000    3.3784    0.0000 O   0  0  0  0  0  0  0  0  0  0  0  0
    5.1646    1.9694    0.0000 O   0  0  0  0  0  0  0  0  0  0  0  0
    3.7634    0.9514    0.0000 N   0  0  0  0  0  0  0  0  0  0  0  0
    4.0421   -0.8087    0.0000 N   0  0  0  0  0  0  0  0  0  0  0  0
    3.4013    4.3965    0.0000 C   0  0  0  0  0  0  0  0  0  0  0  0
    4.8511   -2.3965    0.0000 C   0  0  0  0  0  0  0  0  0  0  0  0
    2.4067    4.2920    0.0000 C   0  0  0  0  0  0  0  0  0  0  0  0
    4.8511   -1.3965    0.0000 C   0  0  0  0  0  0  0  0  0  0  0  0
    3.5823    2.6739    0.0000 C   0  0  0  0  0  0  0  0  0  0  0  0
    4.3511    0.1424    0.0000 C   0  0  0  0  0  0  0  0  0  0  0  0
    4.1701    1.8649    0.0000 C   0  0  0  0  0  0  0  0  0  0  0  0
    3.9851   -2.8965    0.0000 C   0  0  0  0  0  0  0  0  0  0  0  0
    5.7172   -2.8965    0.0000 C   0  0  0  0  0  0  0  0  0  0  0  0
    2.5878    2.5694    0.0000 C   0  0  0  0  0  0  0  0  0  0  0  0
    5.6602   -0.8087    0.0000 C   0  0  0  0  0  0  0  0  0  0  0  0
    5.7172   -3.8965    0.0000 C   0  0  0  0  0  0  0  0  0  0  0  0
    3.9851   -3.8965    0.0000 C   0  0  0  0  0  0  0  0  0  0  0  0
    4.8511   -4.3965    0.0000 C   0  0  0  0  0  0  0  0  0  0  0  0
    3.9585    4.6683    0.0000 H   0  0  0  0  0  0  0  0  0  0  0  0
    3.2304    4.9925    0.0000 H   0  0  0  0  0  0  0  0  0  0  0  0
    2.4500    4.9104    0.0000 H   0  0  0  0  0  0  0  0  0  0  0  0
    1.8052    4.4420    0.0000 H   0  0  0  0  0  0  0  0  0  0  0  0
    3.1468    0.8866    0.0000 H   0  0  0  0  0  0  0  0  0  0  0  0
    6.2541   -2.5865    0.0000 H   0  0  0  0  0  0  0  0  0  0  0  0
    2.3356    2.0030    0.0000 H   0  0  0  0  0  0  0  0  0  0  0  0
    6.2498   -1.0003    0.0000 H   0  0  0  0  0  0  0  0  0  0  0  0
    3.4482   -4.2065    0.0000 H   0  0  0  0  0  0  0  0  0  0  0  0
    4.8511   -5.0165    0.0000 H   0  0  0  0  0  0  0  0  0  0  0  0
  1 14  1  0  0  0  0
  1 19  1  0  0  0  0
  2 16  1  0  0  0  0
  3 20  1  0  0  0  0
  4  9  1  0  0  0  0
  4 13  1  0  0  0  0
  5 11  1  0  0  0  0
  5 18  1  0  0  0  0
  6 15  2  0  0  0  0
  7 14  1  0  0  0  0
  7 15  1  0  0  0  0
  7 27  1  0  0  0  0
  8 12  1  0  0  0  0
  8 14  2  0  0  0  0
  9 11  1  0  0  0  0
  9 23  1  0  0  0  0
  9 24  1  0  0  0  0
 10 12  1  0  0  0  0
 10 16  2  0  0  0  0
 10 17  1  0  0  0  0
 11 25  1  0  0  0  0
 11 26  1  0  0  0  0
 12 19  2  0  0  0  0
 13 15  1  0  0  0  0
 13 18  2  0  0  0  0
 16 21  1  0  0  0  0
 17 20  2  0  0  0  0
 17 28  1  0  0  0  0
 18 29  1  0  0  0  0
 19 30  1  0  0  0  0
 20 22  1  0  0  0  0
 21 22  2  0  0  0  0
 21 31  1  0  0  0  0
 22 32  1  0  0  0  0
M  END
> <PUBCHEM_COMPOUND_CID>
17395515

> <PUBCHEM_COMPOUND_CANONICALIZED>
1

> <PUBCHEM_CACTVS_COMPLEXITY>
452

> <PUBCHEM_CACTVS_HBOND_ACCEPTOR>
7

> <PUBCHEM_CACTVS_HBOND_DONOR>
1

> <PUBCHEM_CACTVS_ROTATABLE_BOND>
3

> <PUBCHEM_CACTVS_SUBSKEYS>
AAADccBzMYBAAAAAAAAAAAAAAAAAAWAAAAAwQAAAAAAAAAABwAAAHwQQAAAADAyl3gqxkZLIFAisAyVydAKC+KlhKjkJiDRwJNiLIKKgmRWHIAhogQIaiKcQgIAOAAAAAAAAAAAAAAAAAAAAAAAAAAAAAA==

> <PUBCHEM_IUPAC_OPENEYE_NAME>
N-[4-(2,5-difluorophenyl)thiazol-2-yl]-2,3-dihydro-1,4-dioxine-5-carboxamide

> <PUBCHEM_IUPAC_CAS_NAME>
N-[4-(2,5-difluorophenyl)-2-thiazolyl]-2,3-dihydro-1,4-dioxin-5-carboxamide

> <PUBCHEM_IUPAC_NAME>
N-[4-(2,5-difluorophenyl)-1,3-thiazol-2-yl]-2,3-dihydro-1,4-dioxine-5-carboxamide

> <PUBCHEM_IUPAC_SYSTEMATIC_NAME>
N-[4-[2,5-bis(fluoranyl)phenyl]-1,3-thiazol-2-yl]-2,3-dihydro-1,4-dioxine-5-carboxamide

> <PUBCHEM_IUPAC_TRADITIONAL_NAME>
N-[4-(2,5-difluorophenyl)thiazol-2-yl]-2,3-dihydro-p-dioxin-5-carboxamide

> <PUBCHEM_IUPAC_INCHI>
InChI=1S/C14H10F2N2O3S/c15-8-1-2-10(16)9(5-8)11-7-22-14(17-11)18-13(19)12-6-20-3-4-21-12/h1-2,5-7H,3-4H2,(H,17,18,19)

> <PUBCHEM_IUPAC_INCHIKEY>
RZLHTFYINZKNLH-UHFFFAOYSA-N

> <PUBCHEM_XLOGP3_AA>
2.5

> <PUBCHEM_EXACT_MASS>
324.03802

> <PUBCHEM_MOLECULAR_FORMULA>
C14H10F2N2O3S

> <PUBCHEM_MOLECULAR_WEIGHT>
324.302606

> <PUBCHEM_OPENEYE_CAN_SMILES>
C1COC(=CO1)C(=O)NC2=NC(=CS2)C3=C(C=CC(=C3)F)F

> <PUBCHEM_OPENEYE_ISO_SMILES>
C1COC(=CO1)C(=O)NC2=NC(=CS2)C3=C(C=CC(=C3)F)F

> <PUBCHEM_CACTVS_TPSA>
88.7

> <PUBCHEM_MONOISOTOPIC_WEIGHT>
324.03802

> <PUBCHEM_TOTAL_CHARGE>
0

> <PUBCHEM_HEAVY_ATOM_COUNT>
22

> <PUBCHEM_ATOM_DEF_STEREO_COUNT>
0

> <PUBCHEM_ATOM_UDEF_STEREO_COUNT>
0

> <PUBCHEM_BOND_DEF_STEREO_COUNT>
0

> <PUBCHEM_BOND_UDEF_STEREO_COUNT>
0

> <PUBCHEM_ISOTOPIC_ATOM_COUNT>
0

> <PUBCHEM_COMPONENT_COUNT>
1

> <PUBCHEM_CACTVS_TAUTO_COUNT>
3

> <PUBCHEM_COORDINATE_TYPE>
1
5
255

> <PUBCHEM_BONDANNOTATIONS>
1  14  8
1  19  8
10  16  8
10  17  8
12  19  8
16  21  8
17  20  8
20  22  8
21  22  8
8  12  8
8  14  8

$$$$

