7906
  -OEChem-06261202262D

  5  4  0     0  0  0  0  0  0999 V2000
    2.0000    0.0000    0.0000 Hg  0  0  0  0  0  0  0  0  0  0  0  0
    3.0000    0.0000    0.0000 C   0  0  0  0  0  0  0  0  0  0  0  0
    3.0000   -0.6200    0.0000 H   0  0  0  0  0  0  0  0  0  0  0  0
    3.6200    0.0000    0.0000 H   0  0  0  0  0  0  0  0  0  0  0  0
    3.0000    0.6200    0.0000 H   0  0  0  0  0  0  0  0  0  0  0  0
  1  2  1  0  0  0  0
  2  3  1  0  0  0  0
  2  4  1  0  0  0  0
  2  5  1  0  0  0  0
M  END
> <PUBCHEM_COMPOUND_CID>
7906

> <PUBCHEM_COMPOUND_CANONICALIZED>
1

> <PUBCHEM_CACTVS_COMPLEXITY>
2

> <PUBCHEM_CACTVS_HBOND_ACCEPTOR>
0

> <PUBCHEM_CACTVS_HBOND_DONOR>
0

> <PUBCHEM_CACTVS_ROTATABLE_BOND>
0

> <PUBCHEM_CACTVS_SUBSKEYS>
AAADcQAAAAAAAAAAAAAAAQAAAAAAAAAAAAAAAAAAAAAAAAAAAAAAEAAAAAAAAAAAAAACAAAAAAAAAAAAAAAAAAAAAAAAAAAAAAAAAAAAAAAAAAAAAAAAAAAAAAAAAAAAAAAAAAAAAAAAAAAAAAAAAAAAAA==

> <PUBCHEM_IUPAC_OPENEYE_NAME>
methylmercury

> <PUBCHEM_IUPAC_CAS_NAME>
methylmercury

> <PUBCHEM_IUPAC_NAME>
methylmercury

> <PUBCHEM_IUPAC_SYSTEMATIC_NAME>
methylmercury

> <PUBCHEM_IUPAC_TRADITIONAL_NAME>
methylmercury

> <PUBCHEM_IUPAC_INCHI>
InChI=1S/CH3.Hg/h1H3;

> <PUBCHEM_IUPAC_INCHIKEY>
JJWSNOOGIUMOEE-UHFFFAOYSA-N

> <PUBCHEM_EXACT_MASS>
216.994118

> <PUBCHEM_MOLECULAR_FORMULA>
CH3Hg

> <PUBCHEM_MOLECULAR_WEIGHT>
215.62452

> <PUBCHEM_OPENEYE_CAN_SMILES>
C[Hg]

> <PUBCHEM_OPENEYE_ISO_SMILES>
C[Hg]

> <PUBCHEM_CACTVS_TPSA>
0

> <PUBCHEM_MONOISOTOPIC_WEIGHT>
216.994118

> <PUBCHEM_TOTAL_CHARGE>
0

> <PUBCHEM_HEAVY_ATOM_COUNT>
2

> <PUBCHEM_ATOM_DEF_STEREO_COUNT>
0

> <PUBCHEM_ATOM_UDEF_STEREO_COUNT>
0

> <PUBCHEM_BOND_DEF_STEREO_COUNT>
0

> <PUBCHEM_BOND_UDEF_STEREO_COUNT>
0

> <PUBCHEM_ISOTOPIC_ATOM_COUNT>
0

> <PUBCHEM_COMPONENT_COUNT>
1

> <PUBCHEM_CACTVS_TAUTO_COUNT>
1

> <PUBCHEM_COORDINATE_TYPE>
1
5
255

$$$$

