47205492
  -OEChem-06241222582D

 35 36  0     1  0  0  0  0  0999 V2000
    3.7320   -4.2694    0.0000 F   0  0  0  0  0  0  0  0  0  0  0  0
    3.7320    1.7306    0.0000 O   0  0  0  0  0  0  0  0  0  0  0  0
    5.4641    2.7306    0.0000 N   0  0  0  0  0  0  0  0  0  0  0  0
    4.5981    0.2306    0.0000 N   0  0  0  0  0  0  0  0  0  0  0  0
    4.9641    4.2694    0.0000 N   0  0  0  0  0  0  0  0  0  0  0  0
    5.4641    1.7306    0.0000 C   0  0  3  0  0  0  0  0  0  0  0  0
    4.5981    1.2306    0.0000 C   0  0  0  0  0  0  0  0  0  0  0  0
    3.7320   -0.2694    0.0000 C   0  0  0  0  0  0  0  0  0  0  0  0
    6.3301    1.2306    0.0000 C   0  0  0  0  0  0  0  0  0  0  0  0
    3.7320   -1.2694    0.0000 C   0  0  0  0  0  0  0  0  0  0  0  0
    6.2731    3.3184    0.0000 C   0  0  0  0  0  0  0  0  0  0  0  0
    2.8660   -1.7694    0.0000 C   0  0  0  0  0  0  0  0  0  0  0  0
    4.6551    3.3184    0.0000 C   0  0  0  0  0  0  0  0  0  0  0  0
    2.8660   -2.7694    0.0000 C   0  0  0  0  0  0  0  0  0  0  0  0
    4.5981   -1.7694    0.0000 C   0  0  0  0  0  0  0  0  0  0  0  0
    3.7320   -3.2694    0.0000 C   0  0  0  0  0  0  0  0  0  0  0  0
    4.5981   -2.7694    0.0000 C   0  0  0  0  0  0  0  0  0  0  0  0
    5.9641    4.2694    0.0000 C   0  0  0  0  0  0  0  0  0  0  0  0
    2.0000   -3.2694    0.0000 C   0  0  0  0  0  0  0  0  0  0  0  0
    6.0010    2.0406    0.0000 H   0  0  0  0  0  0  0  0  0  0  0  0
    3.5200    0.3132    0.0000 H   0  0  0  0  0  0  0  0  0  0  0  0
    3.1215   -0.3771    0.0000 H   0  0  0  0  0  0  0  0  0  0  0  0
    6.0201    0.6936    0.0000 H   0  0  0  0  0  0  0  0  0  0  0  0
    6.8671    0.9206    0.0000 H   0  0  0  0  0  0  0  0  0  0  0  0
    6.6401    1.7675    0.0000 H   0  0  0  0  0  0  0  0  0  0  0  0
    5.1350   -0.0794    0.0000 H   0  0  0  0  0  0  0  0  0  0  0  0
    6.8628    3.1268    0.0000 H   0  0  0  0  0  0  0  0  0  0  0  0
    2.3291   -1.4594    0.0000 H   0  0  0  0  0  0  0  0  0  0  0  0
    4.0654    3.1268    0.0000 H   0  0  0  0  0  0  0  0  0  0  0  0
    5.1350   -1.4594    0.0000 H   0  0  0  0  0  0  0  0  0  0  0  0
    5.1350   -3.0794    0.0000 H   0  0  0  0  0  0  0  0  0  0  0  0
    6.3285    4.7710    0.0000 H   0  0  0  0  0  0  0  0  0  0  0  0
    1.6900   -2.7325    0.0000 H   0  0  0  0  0  0  0  0  0  0  0  0
    1.4631   -3.5794    0.0000 H   0  0  0  0  0  0  0  0  0  0  0  0
    2.3100   -3.8064    0.0000 H   0  0  0  0  0  0  0  0  0  0  0  0
  1 16  1  0  0  0  0
  2  7  2  0  0  0  0
  3  6  1  0  0  0  0
  3 11  1  0  0  0  0
  3 13  1  0  0  0  0
  4  7  1  0  0  0  0
  4  8  1  0  0  0  0
  4 26  1  0  0  0  0
  5 13  2  0  0  0  0
  5 18  1  0  0  0  0
  6  7  1  0  0  0  0
  6  9  1  0  0  0  0
  6 20  1  0  0  0  0
  8 10  1  0  0  0  0
  8 21  1  0  0  0  0
  8 22  1  0  0  0  0
  9 23  1  0  0  0  0
  9 24  1  0  0  0  0
  9 25  1  0  0  0  0
 10 12  2  0  0  0  0
 10 15  1  0  0  0  0
 11 18  2  0  0  0  0
 11 27  1  0  0  0  0
 12 14  1  0  0  0  0
 12 28  1  0  0  0  0
 13 29  1  0  0  0  0
 14 16  2  0  0  0  0
 14 19  1  0  0  0  0
 15 17  2  0  0  0  0
 15 30  1  0  0  0  0
 16 17  1  0  0  0  0
 17 31  1  0  0  0  0
 18 32  1  0  0  0  0
 19 33  1  0  0  0  0
 19 34  1  0  0  0  0
 19 35  1  0  0  0  0
M  END
> <PUBCHEM_COMPOUND_CID>
47205492

> <PUBCHEM_COMPOUND_CANONICALIZED>
1

> <PUBCHEM_CACTVS_COMPLEXITY>
313

> <PUBCHEM_CACTVS_HBOND_ACCEPTOR>
3

> <PUBCHEM_CACTVS_HBOND_DONOR>
1

> <PUBCHEM_CACTVS_ROTATABLE_BOND>
4

> <PUBCHEM_CACTVS_SUBSKEYS>
AAADceBzIQAAAAAAAAAAAAAAAAAAAWAAAAAwAAAAAAAAAAABwAAAHwAQAAAADCjBmgw/kJfMEACoAjF3dACCgC0xEqAJyIGYNIiIaCKAmTGUIAholgKIiCcQgEAOAAACAAAAAAAAAAQAAAAAAAAAAAAAAA==

> <PUBCHEM_IUPAC_OPENEYE_NAME>
N-[(4-fluoro-3-methyl-phenyl)methyl]-2-imidazol-1-yl-propanamide

> <PUBCHEM_IUPAC_CAS_NAME>
N-[(4-fluoro-3-methylphenyl)methyl]-2-(1-imidazolyl)propanamide

> <PUBCHEM_IUPAC_NAME>
N-[(4-fluoro-3-methylphenyl)methyl]-2-imidazol-1-ylpropanamide

> <PUBCHEM_IUPAC_SYSTEMATIC_NAME>
N-[(4-fluoranyl-3-methyl-phenyl)methyl]-2-imidazol-1-yl-propanamide

> <PUBCHEM_IUPAC_TRADITIONAL_NAME>
N-(4-fluoro-3-methyl-benzyl)-2-imidazol-1-yl-propionamide

> <PUBCHEM_IUPAC_INCHI>
InChI=1S/C14H16FN3O/c1-10-7-12(3-4-13(10)15)8-17-14(19)11(2)18-6-5-16-9-18/h3-7,9,11H,8H2,1-2H3,(H,17,19)

> <PUBCHEM_IUPAC_INCHIKEY>
KCRDABUAGLANEP-UHFFFAOYSA-N

> <PUBCHEM_XLOGP3_AA>
1.8

> <PUBCHEM_EXACT_MASS>
261.12774

> <PUBCHEM_MOLECULAR_FORMULA>
C14H16FN3O

> <PUBCHEM_MOLECULAR_WEIGHT>
261.294743

> <PUBCHEM_OPENEYE_CAN_SMILES>
CC1=C(C=CC(=C1)CNC(=O)C(C)N2C=CN=C2)F

> <PUBCHEM_OPENEYE_ISO_SMILES>
CC1=C(C=CC(=C1)CNC(=O)C(C)N2C=CN=C2)F

> <PUBCHEM_CACTVS_TPSA>
46.9

> <PUBCHEM_MONOISOTOPIC_WEIGHT>
261.12774

> <PUBCHEM_TOTAL_CHARGE>
0

> <PUBCHEM_HEAVY_ATOM_COUNT>
19

> <PUBCHEM_ATOM_DEF_STEREO_COUNT>
0

> <PUBCHEM_ATOM_UDEF_STEREO_COUNT>
1

> <PUBCHEM_BOND_DEF_STEREO_COUNT>
0

> <PUBCHEM_BOND_UDEF_STEREO_COUNT>
0

> <PUBCHEM_ISOTOPIC_ATOM_COUNT>
0

> <PUBCHEM_COMPONENT_COUNT>
1

> <PUBCHEM_CACTVS_TAUTO_COUNT>
2

> <PUBCHEM_COORDINATE_TYPE>
1
5
255

> <PUBCHEM_BONDANNOTATIONS>
10  12  8
10  15  8
11  18  8
12  14  8
14  16  8
15  17  8
16  17  8
3  11  8
3  13  8
5  13  8
5  18  8
6  9  3

$$$$

