8240
  -OEChem-06261202412D

 45 47  0     1  0  0  0  0  0999 V2000
    4.9162    0.0000    0.0000 Br  0  0  0  0  0  0  0  0  0  0  0  0
    0.0000    4.1367    0.0000 O   0  0  0  0  0  0  0  0  0  0  0  0
    6.1803    4.4628    0.0000 O   0  0  0  0  0  0  0  0  0  0  0  0
    6.6286    6.1359    0.0000 O   0  0  0  0  0  0  0  0  0  0  0  0
    9.0780    3.6864    0.0000 O   0  0  0  0  0  0  0  0  0  0  0  0
    2.2547    7.0855    0.0000 N   0  0  0  0  0  0  0  0  0  0  0  0
    0.5004    5.0030    0.0000 C   0  0  2  0  0  0  0  0  0  0  0  0
    1.0004    4.1370    0.0000 C   0  0  1  0  0  0  0  0  0  0  0  0
    2.7325    5.1370    0.0000 C   0  0  2  0  0  0  0  0  0  0  0  0
    2.9913    6.1029    0.0000 C   0  0  2  0  0  0  0  0  0  0  0  0
    4.4372    4.0923    0.0000 C   0  0  0  0  0  0  0  0  0  0  0  0
    4.8560    5.6552    0.0000 C   0  0  0  0  0  0  0  0  0  0  0  0
    5.2143    4.7217    0.0000 C   0  0  0  0  0  0  0  0  0  0  0  0
    1.7547    7.9515    0.0000 C   0  0  0  0  0  0  0  0  0  0  0  0
    6.8874    5.1699    0.0000 C   0  0  0  0  0  0  0  0  0  0  0  0
    7.8533    4.9111    0.0000 C   0  0  3  0  0  0  0  0  0  0  0  0
    8.1121    3.9452    0.0000 C   0  0  0  0  0  0  0  0  0  0  0  0
    8.5604    5.6182    0.0000 C   0  0  0  0  0  0  0  0  0  0  0  0
    9.5263    5.3594    0.0000 C   0  0  0  0  0  0  0  0  0  0  0  0
    8.3016    6.5842    0.0000 C   0  0  0  0  0  0  0  0  0  0  0  0
   10.2334    6.0665    0.0000 C   0  0  0  0  0  0  0  0  0  0  0  0
    9.0087    7.2913    0.0000 C   0  0  0  0  0  0  0  0  0  0  0  0
    9.9746    7.0324    0.0000 C   0  0  0  0  0  0  0  0  0  0  0  0
    0.1904    5.5399    0.0000 H   0  0  0  0  0  0  0  0  0  0  0  0
    1.3104    3.6000    0.0000 H   0  0  0  0  0  0  0  0  0  0  0  0
    2.5125    4.3159    0.0000 H   0  0  0  0  0  0  0  0  0  0  0  0
    3.2113    6.9239    0.0000 H   0  0  0  0  0  0  0  0  0  0  0  0
    4.0555    3.6038    0.0000 H   0  0  0  0  0  0  0  0  0  0  0  0
    4.8794    3.6578    0.0000 H   0  0  0  0  0  0  0  0  0  0  0  0
    5.4675    5.7576    0.0000 H   0  0  0  0  0  0  0  0  0  0  0  0
    4.8776    6.2749    0.0000 H   0  0  0  0  0  0  0  0  0  0  0  0
    5.6292    5.1824    0.0000 H   0  0  0  0  0  0  0  0  0  0  0  0
    2.2916    8.2615    0.0000 H   0  0  0  0  0  0  0  0  0  0  0  0
    1.4447    8.4885    0.0000 H   0  0  0  0  0  0  0  0  0  0  0  0
    1.2178    7.6415    0.0000 H   0  0  0  0  0  0  0  0  0  0  0  0
    8.6743    4.6911    0.0000 H   0  0  0  0  0  0  0  0  0  0  0  0
    7.4945    3.8912    0.0000 H   0  0  0  0  0  0  0  0  0  0  0  0
    8.0581    3.3276    0.0000 H   0  0  0  0  0  0  0  0  0  0  0  0
    9.6868    4.7605    0.0000 H   0  0  0  0  0  0  0  0  0  0  0  0
    7.7027    6.7446    0.0000 H   0  0  0  0  0  0  0  0  0  0  0  0
    9.2385    3.0875    0.0000 H   0  0  0  0  0  0  0  0  0  0  0  0
   10.8323    5.9060    0.0000 H   0  0  0  0  0  0  0  0  0  0  0  0
    8.8482    7.8901    0.0000 H   0  0  0  0  0  0  0  0  0  0  0  0
   10.4130    7.4708    0.0000 H   0  0  0  0  0  0  0  0  0  0  0  0
    5.9162    0.0000    0.0000 H   0  0  0  0  0  0  0  0  0  0  0  0
  1 45  1  0  0  0  0
  7  2  1  1  0  0  0
  8  2  1  1  0  0  0
  3 13  1  0  0  0  0
  3 15  1  0  0  0  0
  4 15  2  0  0  0  0
  5 17  1  0  0  0  0
  5 41  1  0  0  0  0
  6  9  1  0  0  0  0
  6 10  1  0  0  0  0
  6 14  1  0  0  0  0
  7  8  1  0  0  0  0
  7 10  1  0  0  0  0
  7 24  1  0  0  0  0
  8  9  1  0  0  0  0
  8 25  1  0  0  0  0
  9 11  1  0  0  0  0
  9 26  1  6  0  0  0
 10 12  1  0  0  0  0
 10 27  1  6  0  0  0
 11 13  1  0  0  0  0
 11 28  1  0  0  0  0
 11 29  1  0  0  0  0
 12 13  1  0  0  0  0
 12 30  1  0  0  0  0
 12 31  1  0  0  0  0
 13 32  1  0  0  0  0
 14 33  1  0  0  0  0
 14 34  1  0  0  0  0
 14 35  1  0  0  0  0
 15 16  1  0  0  0  0
 16 17  1  0  0  0  0
 16 18  1  0  0  0  0
 16 36  1  0  0  0  0
 17 37  1  0  0  0  0
 17 38  1  0  0  0  0
 18 19  2  0  0  0  0
 18 20  1  0  0  0  0
 19 21  1  0  0  0  0
 19 39  1  0  0  0  0
 20 22  2  0  0  0  0
 20 40  1  0  0  0  0
 21 23  2  0  0  0  0
 21 42  1  0  0  0  0
 22 23  1  0  0  0  0
 22 43  1  0  0  0  0
 23 44  1  0  0  0  0
M  END
> <PUBCHEM_COMPOUND_CID>
8240

> <PUBCHEM_COMPOUND_CANONICALIZED>
1

> <PUBCHEM_CACTVS_COMPLEXITY>
418

> <PUBCHEM_CACTVS_HBOND_ACCEPTOR>
5

> <PUBCHEM_CACTVS_HBOND_DONOR>
1

> <PUBCHEM_CACTVS_ROTATABLE_BOND>
5

> <PUBCHEM_CACTVS_SUBSKEYS>
AAADceB6OAAAEAAAAAAAAAAAEgAAAWAAAAA8WIAABgAAAAABAAAAHgAACAAADTzhmAYyCIMABgCIAiDSCAACAAAgAAAIiAEIAIgKMDaAlRCHYAAn4AGYiAfY6OyOgAAAAAAAAAAAAAAAAAAAAAAAAAAAAA==

> <PUBCHEM_IUPAC_INCHI>
InChI=1S/C17H21NO4.BrH/c1-18-13-7-11(8-14(18)16-15(13)22-16)21-17(20)12(9-19)10-5-3-2-4-6-10;/h2-6,11-16,19H,7-9H2,1H3;1H/t11?,12?,13-,14-,15-,16+;/m0./s1

> <PUBCHEM_IUPAC_INCHIKEY>
WTGQALLALWYDJH-JHCWSWNASA-N

> <PUBCHEM_EXACT_MASS>
383.07322

> <PUBCHEM_MOLECULAR_FORMULA>
C17H22BrNO4

> <PUBCHEM_MOLECULAR_WEIGHT>
384.26488

> <PUBCHEM_OPENEYE_CAN_SMILES>
CN1C2CC(CC1C3C2O3)OC(=O)C(CO)C4=CC=CC=C4.Br

> <PUBCHEM_OPENEYE_ISO_SMILES>
CN1[C@H]2CC(C[C@H]1[C@H]3[C@@H]2O3)OC(=O)C(CO)C4=CC=CC=C4.Br

> <PUBCHEM_CACTVS_TPSA>
62.3

> <PUBCHEM_MONOISOTOPIC_WEIGHT>
383.07322

> <PUBCHEM_TOTAL_CHARGE>
0

> <PUBCHEM_HEAVY_ATOM_COUNT>
23

> <PUBCHEM_ATOM_DEF_STEREO_COUNT>
4

> <PUBCHEM_ATOM_UDEF_STEREO_COUNT>
1

> <PUBCHEM_BOND_DEF_STEREO_COUNT>
0

> <PUBCHEM_BOND_UDEF_STEREO_COUNT>
0

> <PUBCHEM_ISOTOPIC_ATOM_COUNT>
0

> <PUBCHEM_COMPONENT_COUNT>
2

> <PUBCHEM_CACTVS_TAUTO_COUNT>
1

> <PUBCHEM_COORDINATE_TYPE>
1
5
255

> <PUBCHEM_BONDANNOTATIONS>
10  27  6
16  36  3
18  19  8
18  20  8
19  21  8
7  2  5
8  2  5
20  22  8
21  23  8
22  23  8
9  26  6

$$$$

