4081
  -OEChem-06251223522D

 52 55  0     1  0  0  0  0  0999 V2000
    3.0000    2.5388    0.0000 S   0  0  0  0  0  0  0  0  0  0  0  0
    2.0000    2.5350    0.0000 O   0  0  0  0  0  0  0  0  0  0  0  0
    4.0000    2.5427    0.0000 O   0  0  0  0  0  0  0  0  0  0  0  0
    5.6719    1.0352    0.0000 N   0  0  3  0  0  0  0  0  0  0  0  0
    6.6599   -3.1549    0.0000 N   0  0  0  0  0  0  0  0  0  0  0  0
    2.9961    3.5388    0.0000 N   0  0  0  0  0  0  0  0  0  0  0  0
    4.7898   -0.5063    0.0000 C   0  0  3  0  0  0  0  0  0  0  0  0
    5.6558   -0.0063    0.0000 C   0  0  3  0  0  0  0  0  0  0  0  0
    3.8798    0.0006    0.0000 C   0  0  0  0  0  0  0  0  0  0  0  0
    3.8718    1.0422    0.0000 C   0  0  3  0  0  0  0  0  0  0  0  0
    4.7739    1.5630    0.0000 C   0  0  0  0  0  0  0  0  0  0  0  0
    6.5219   -0.5063    0.0000 C   0  0  0  0  0  0  0  0  0  0  0  0
    4.7898   -1.5063    0.0000 C   0  0  0  0  0  0  0  0  0  0  0  0
    5.6558   -2.0063    0.0000 C   0  0  0  0  0  0  0  0  0  0  0  0
    6.5219   -1.5063    0.0000 C   0  0  0  0  0  0  0  0  0  0  0  0
    3.0038    1.5388    0.0000 C   0  0  0  0  0  0  0  0  0  0  0  0
    5.6719   -3.0478    0.0000 C   0  0  0  0  0  0  0  0  0  0  0  0
    6.5437    1.5252    0.0000 C   0  0  0  0  0  0  0  0  0  0  0  0
    3.8798   -2.0131    0.0000 C   0  0  0  0  0  0  0  0  0  0  0  0
    7.1398   -2.2846    0.0000 C   0  0  0  0  0  0  0  0  0  0  0  0
    4.7739   -3.5755    0.0000 C   0  0  0  0  0  0  0  0  0  0  0  0
    3.8718   -3.0547    0.0000 C   0  0  0  0  0  0  0  0  0  0  0  0
    7.1212   -4.0422    0.0000 C   0  0  0  0  0  0  0  0  0  0  0  0
    2.1282    4.0355    0.0000 C   0  0  0  0  0  0  0  0  0  0  0  0
    3.8602    4.0422    0.0000 C   0  0  0  0  0  0  0  0  0  0  0  0
    4.2553   -0.8204    0.0000 H   0  0  0  0  0  0  0  0  0  0  0  0
    6.1952    0.2996    0.0000 H   0  0  0  0  0  0  0  0  0  0  0  0
    3.2682    0.1020    0.0000 H   0  0  0  0  0  0  0  0  0  0  0  0
    3.6753   -0.5847    0.0000 H   0  0  0  0  0  0  0  0  0  0  0  0
    3.3367    0.7291    0.0000 H   0  0  0  0  0  0  0  0  0  0  0  0
    5.1748    2.0359    0.0000 H   0  0  0  0  0  0  0  0  0  0  0  0
    4.3766    2.0390    0.0000 H   0  0  0  0  0  0  0  0  0  0  0  0
    7.1325   -0.6139    0.0000 H   0  0  0  0  0  0  0  0  0  0  0  0
    6.7339    0.0763    0.0000 H   0  0  0  0  0  0  0  0  0  0  0  0
    2.3929    1.6442    0.0000 H   0  0  0  0  0  0  0  0  0  0  0  0
    2.7940    0.9554    0.0000 H   0  0  0  0  0  0  0  0  0  0  0  0
    6.8474    0.9847    0.0000 H   0  0  0  0  0  0  0  0  0  0  0  0
    7.0841    1.8290    0.0000 H   0  0  0  0  0  0  0  0  0  0  0  0
    6.2399    2.0657    0.0000 H   0  0  0  0  0  0  0  0  0  0  0  0
    3.3465   -1.6969    0.0000 H   0  0  0  0  0  0  0  0  0  0  0  0
    7.7576   -2.2329    0.0000 H   0  0  0  0  0  0  0  0  0  0  0  0
    4.7763   -4.1955    0.0000 H   0  0  0  0  0  0  0  0  0  0  0  0
    3.3337   -3.3626    0.0000 H   0  0  0  0  0  0  0  0  0  0  0  0
    6.5711   -4.3282    0.0000 H   0  0  0  0  0  0  0  0  0  0  0  0
    7.4072   -4.5923    0.0000 H   0  0  0  0  0  0  0  0  0  0  0  0
    7.6713   -3.7562    0.0000 H   0  0  0  0  0  0  0  0  0  0  0  0
    4.1723    3.5064    0.0000 H   0  0  0  0  0  0  0  0  0  0  0  0
    2.4361    4.5736    0.0000 H   0  0  0  0  0  0  0  0  0  0  0  0
    1.5901    4.3434    0.0000 H   0  0  0  0  0  0  0  0  0  0  0  0
    1.8203    3.4974    0.0000 H   0  0  0  0  0  0  0  0  0  0  0  0
    4.3960    4.3542    0.0000 H   0  0  0  0  0  0  0  0  0  0  0  0
    3.5482    4.5779    0.0000 H   0  0  0  0  0  0  0  0  0  0  0  0
  1  2  2  0  0  0  0
  1  3  2  0  0  0  0
  1  6  1  0  0  0  0
  1 16  1  0  0  0  0
  4  8  1  0  0  0  0
  4 11  1  0  0  0  0
  4 18  1  0  0  0  0
  5 17  1  0  0  0  0
  5 20  1  0  0  0  0
  5 23  1  0  0  0  0
  6 24  1  0  0  0  0
  6 25  1  0  0  0  0
  7  8  1  0  0  0  0
  7  9  1  0  0  0  0
  7 13  1  0  0  0  0
  7 26  1  0  0  0  0
  8 12  1  0  0  0  0
  8 27  1  0  0  0  0
  9 10  1  0  0  0  0
  9 28  1  0  0  0  0
  9 29  1  0  0  0  0
 10 11  1  0  0  0  0
 10 16  1  0  0  0  0
 10 30  1  0  0  0  0
 11 31  1  0  0  0  0
 11 32  1  0  0  0  0
 12 15  1  0  0  0  0
 12 33  1  0  0  0  0
 12 34  1  0  0  0  0
 13 14  2  0  0  0  0
 13 19  1  0  0  0  0
 14 15  1  0  0  0  0
 14 17  1  0  0  0  0
 15 20  2  0  0  0  0
 16 35  1  0  0  0  0
 16 36  1  0  0  0  0
 17 21  2  0  0  0  0
 18 37  1  0  0  0  0
 18 38  1  0  0  0  0
 18 39  1  0  0  0  0
 19 22  2  0  0  0  0
 19 40  1  0  0  0  0
 20 41  1  0  0  0  0
 21 22  1  0  0  0  0
 21 42  1  0  0  0  0
 22 43  1  0  0  0  0
 23 44  1  0  0  0  0
 23 45  1  0  0  0  0
 23 46  1  0  0  0  0
 24 48  1  0  0  0  0
 24 49  1  0  0  0  0
 24 50  1  0  0  0  0
 25 47  1  0  0  0  0
 25 51  1  0  0  0  0
 25 52  1  0  0  0  0
M  END
> <PUBCHEM_COMPOUND_CID>
4081

> <PUBCHEM_COMPOUND_CANONICALIZED>
1

> <PUBCHEM_CACTVS_COMPLEXITY>
602

> <PUBCHEM_CACTVS_HBOND_ACCEPTOR>
4

> <PUBCHEM_CACTVS_HBOND_DONOR>
0

> <PUBCHEM_CACTVS_ROTATABLE_BOND>
3

> <PUBCHEM_CACTVS_SUBSKEYS>
AAADceB7MABAAAAAAAAAAAAAAAAAAWAAAAA8YIAAAAAAAFjx8AAAHAQAQAAADSjFXgS+wPMMEAKgAzRnRHDCgCAxAiAI2CA4ZJgIIOLAkZGEIAhggADIyAcQgMAOgAAAQAASAACQAASAACQAAAAAAAAAAA==

> <PUBCHEM_IUPAC_OPENEYE_NAME>
1-(4,7-dimethyl-6,6a,8,9,10,10a-hexahydroindolo[4,3-fg]quinoline-9-yl)-N,N-dimethyl-methanesulfonamide

> <PUBCHEM_IUPAC_CAS_NAME>
1-(4,7-dimethyl-6,6a,8,9,10,10a-hexahydroindolo[4,3-fg]quinoline-9-yl)-N,N-dimethylmethanesulfonamide

> <PUBCHEM_IUPAC_NAME>
1-(4,7-dimethyl-6,6a,8,9,10,10a-hexahydroindolo[4,3-fg]quinoline-9-yl)-N,N-dimethylmethanesulfonamide

> <PUBCHEM_IUPAC_SYSTEMATIC_NAME>
1-(4,7-dimethyl-6,6a,8,9,10,10a-hexahydroindolo[4,3-fg]quinoline-9-yl)-N,N-dimethyl-methanesulfonamide

> <PUBCHEM_IUPAC_TRADITIONAL_NAME>
1-(4,7-dimethyl-6,6a,8,9,10,10a-hexahydroindolo[4,3-fg]quinoline-9-yl)-N,N-dimethyl-methanesulfonamide

> <PUBCHEM_IUPAC_INCHI>
InChI=1S/C19H27N3O2S/c1-20(2)25(23,24)12-13-8-16-15-6-5-7-17-19(15)14(11-22(17)4)9-18(16)21(3)10-13/h5-7,11,13,16,18H,8-10,12H2,1-4H3

> <PUBCHEM_IUPAC_INCHIKEY>
WYCMFCPHWDZHMR-UHFFFAOYSA-N

> <PUBCHEM_XLOGP3_AA>
1.9

> <PUBCHEM_EXACT_MASS>
361.182398

> <PUBCHEM_MOLECULAR_FORMULA>
C19H27N3O2S

> <PUBCHEM_MOLECULAR_WEIGHT>
361.50158

> <PUBCHEM_OPENEYE_CAN_SMILES>
CN1CC(CC2C1CC3=CN(C4=CC=CC2=C34)C)CS(=O)(=O)N(C)C

> <PUBCHEM_OPENEYE_ISO_SMILES>
CN1CC(CC2C1CC3=CN(C4=CC=CC2=C34)C)CS(=O)(=O)N(C)C

> <PUBCHEM_CACTVS_TPSA>
53.9

> <PUBCHEM_MONOISOTOPIC_WEIGHT>
361.182398

> <PUBCHEM_TOTAL_CHARGE>
0

> <PUBCHEM_HEAVY_ATOM_COUNT>
25

> <PUBCHEM_ATOM_DEF_STEREO_COUNT>
0

> <PUBCHEM_ATOM_UDEF_STEREO_COUNT>
3

> <PUBCHEM_BOND_DEF_STEREO_COUNT>
0

> <PUBCHEM_BOND_UDEF_STEREO_COUNT>
0

> <PUBCHEM_ISOTOPIC_ATOM_COUNT>
0

> <PUBCHEM_COMPONENT_COUNT>
1

> <PUBCHEM_CACTVS_TAUTO_COUNT>
1

> <PUBCHEM_COORDINATE_TYPE>
1
5
255

> <PUBCHEM_BONDANNOTATIONS>
10  16  3
13  14  8
13  19  8
14  15  8
14  17  8
15  20  8
17  21  8
19  22  8
21  22  8
5  17  8
5  20  8
7  9  3
8  12  3

$$$$

