17395309
  -OEChem-06241222492D

 46 48  0     0  0  0  0  0  0999 V2000
    8.9282    0.4827    0.0000 S   0  0  0  0  0  0  0  0  0  0  0  0
    8.4282    1.3487    0.0000 O   0  0  0  0  0  0  0  0  0  0  0  0
    9.4282   -0.3834    0.0000 O   0  0  0  0  0  0  0  0  0  0  0  0
   12.4202    0.4480    0.0000 O   0  0  0  0  0  0  0  0  0  0  0  0
   12.4202    2.5173    0.0000 O   0  0  0  0  0  0  0  0  0  0  0  0
    5.4641   -2.5173    0.0000 O   0  0  0  0  0  0  0  0  0  0  0  0
    8.0622   -0.0173    0.0000 N   0  0  0  0  0  0  0  0  0  0  0  0
    6.3301   -1.0173    0.0000 N   0  0  0  0  0  0  0  0  0  0  0  0
    4.5981   -1.0173    0.0000 N   0  0  0  0  0  0  0  0  0  0  0  0
    7.1962    0.4827    0.0000 C   0  0  0  0  0  0  0  0  0  0  0  0
    8.0622   -1.0173    0.0000 C   0  0  0  0  0  0  0  0  0  0  0  0
    6.3301   -0.0173    0.0000 C   0  0  0  0  0  0  0  0  0  0  0  0
    7.1962   -1.5173    0.0000 C   0  0  0  0  0  0  0  0  0  0  0  0
    9.7942    0.9827    0.0000 C   0  0  0  0  0  0  0  0  0  0  0  0
    5.4641   -1.5173    0.0000 C   0  0  0  0  0  0  0  0  0  0  0  0
   10.6603    0.4827    0.0000 C   0  0  0  0  0  0  0  0  0  0  0  0
    9.7942    1.9827    0.0000 C   0  0  0  0  0  0  0  0  0  0  0  0
   11.5263    0.9827    0.0000 C   0  0  0  0  0  0  0  0  0  0  0  0
   11.5263    1.9827    0.0000 C   0  0  0  0  0  0  0  0  0  0  0  0
   10.6603    2.4827    0.0000 C   0  0  0  0  0  0  0  0  0  0  0  0
   13.3263    0.9619    0.0000 C   0  0  0  0  0  0  0  0  0  0  0  0
   13.3263    2.0035    0.0000 C   0  0  0  0  0  0  0  0  0  0  0  0
    3.7320   -1.5173    0.0000 C   0  0  0  0  0  0  0  0  0  0  0  0
    2.8660   -1.0173    0.0000 C   0  0  0  0  0  0  0  0  0  0  0  0
    2.0000   -1.5173    0.0000 C   0  0  0  0  0  0  0  0  0  0  0  0
    8.2742   -1.5999    0.0000 H   0  0  0  0  0  0  0  0  0  0  0  0
    8.6728   -0.9097    0.0000 H   0  0  0  0  0  0  0  0  0  0  0  0
    7.5947    0.9576    0.0000 H   0  0  0  0  0  0  0  0  0  0  0  0
    6.7976    0.9576    0.0000 H   0  0  0  0  0  0  0  0  0  0  0  0
    6.7976   -1.9923    0.0000 H   0  0  0  0  0  0  0  0  0  0  0  0
    7.5947   -1.9923    0.0000 H   0  0  0  0  0  0  0  0  0  0  0  0
    6.1181    0.5653    0.0000 H   0  0  0  0  0  0  0  0  0  0  0  0
    5.7196   -0.1250    0.0000 H   0  0  0  0  0  0  0  0  0  0  0  0
   10.6603   -0.1373    0.0000 H   0  0  0  0  0  0  0  0  0  0  0  0
    9.2573    2.2927    0.0000 H   0  0  0  0  0  0  0  0  0  0  0  0
   10.6603    3.1027    0.0000 H   0  0  0  0  0  0  0  0  0  0  0  0
    4.5981   -0.3973    0.0000 H   0  0  0  0  0  0  0  0  0  0  0  0
   13.5353    0.3782    0.0000 H   0  0  0  0  0  0  0  0  0  0  0  0
   13.9371    1.0680    0.0000 H   0  0  0  0  0  0  0  0  0  0  0  0
   13.9371    1.8974    0.0000 H   0  0  0  0  0  0  0  0  0  0  0  0
   13.5353    2.5872    0.0000 H   0  0  0  0  0  0  0  0  0  0  0  0
    3.3335   -1.9923    0.0000 H   0  0  0  0  0  0  0  0  0  0  0  0
    4.1306   -1.9923    0.0000 H   0  0  0  0  0  0  0  0  0  0  0  0
    2.8660   -0.3973    0.0000 H   0  0  0  0  0  0  0  0  0  0  0  0
    1.4631   -1.2073    0.0000 H   0  0  0  0  0  0  0  0  0  0  0  0
    2.0000   -2.1373    0.0000 H   0  0  0  0  0  0  0  0  0  0  0  0
  1  2  2  0  0  0  0
  1  3  2  0  0  0  0
  1  7  1  0  0  0  0
  1 14  1  0  0  0  0
  4 18  1  0  0  0  0
  4 21  1  0  0  0  0
  5 19  1  0  0  0  0
  5 22  1  0  0  0  0
  6 15  2  0  0  0  0
  7 10  1  0  0  0  0
  7 11  1  0  0  0  0
  8 12  1  0  0  0  0
  8 13  1  0  0  0  0
  8 15  1  0  0  0  0
  9 15  1  0  0  0  0
  9 23  1  0  0  0  0
  9 37  1  0  0  0  0
 10 12  1  0  0  0  0
 10 28  1  0  0  0  0
 10 29  1  0  0  0  0
 11 13  1  0  0  0  0
 11 26  1  0  0  0  0
 11 27  1  0  0  0  0
 12 32  1  0  0  0  0
 12 33  1  0  0  0  0
 13 30  1  0  0  0  0
 13 31  1  0  0  0  0
 14 16  2  0  0  0  0
 14 17  1  0  0  0  0
 16 18  1  0  0  0  0
 16 34  1  0  0  0  0
 17 20  2  0  0  0  0
 17 35  1  0  0  0  0
 18 19  2  0  0  0  0
 19 20  1  0  0  0  0
 20 36  1  0  0  0  0
 21 22  1  0  0  0  0
 21 38  1  0  0  0  0
 21 39  1  0  0  0  0
 22 40  1  0  0  0  0
 22 41  1  0  0  0  0
 23 24  1  0  0  0  0
 23 42  1  0  0  0  0
 23 43  1  0  0  0  0
 24 25  2  0  0  0  0
 24 44  1  0  0  0  0
 25 45  1  0  0  0  0
 25 46  1  0  0  0  0
M  END
> <PUBCHEM_COMPOUND_CID>
17395309

> <PUBCHEM_COMPOUND_CANONICALIZED>
1

> <PUBCHEM_CACTVS_COMPLEXITY>
583

> <PUBCHEM_CACTVS_HBOND_ACCEPTOR>
6

> <PUBCHEM_CACTVS_HBOND_DONOR>
1

> <PUBCHEM_CACTVS_ROTATABLE_BOND>
4

> <PUBCHEM_CACTVS_SUBSKEYS>
AAADceB7OABAAAAAAAAAAAAAAAAAAAAAAAA8SIAAAAAAAACRAAAAHgQQQAAACATh0AYxB4PABAKIACBCEHDCCBAgIAAIiJgOiIiNZiKEMRqSOCKs1hOKqAeAQAAAAIAABAAAQAABAAAIAACAAAAAAAAAAA==

> <PUBCHEM_IUPAC_OPENEYE_NAME>
N-allyl-4-(2,3-dihydro-1,4-benzodioxin-6-ylsulfonyl)piperazine-1-carboxamide

> <PUBCHEM_IUPAC_CAS_NAME>
4-(2,3-dihydro-1,4-benzodioxin-6-ylsulfonyl)-N-prop-2-enyl-1-piperazinecarboxamide

> <PUBCHEM_IUPAC_NAME>
4-(2,3-dihydro-1,4-benzodioxin-6-ylsulfonyl)-N-prop-2-enylpiperazine-1-carboxamide

> <PUBCHEM_IUPAC_SYSTEMATIC_NAME>
4-(2,3-dihydro-1,4-benzodioxin-6-ylsulfonyl)-N-prop-2-enyl-piperazine-1-carboxamide

> <PUBCHEM_IUPAC_TRADITIONAL_NAME>
N-allyl-4-(2,3-dihydro-1,4-benzodioxin-6-ylsulfonyl)piperazine-1-carboxamide

> <PUBCHEM_IUPAC_INCHI>
InChI=1S/C16H21N3O5S/c1-2-5-17-16(20)18-6-8-19(9-7-18)25(21,22)13-3-4-14-15(12-13)24-11-10-23-14/h2-4,12H,1,5-11H2,(H,17,20)

> <PUBCHEM_IUPAC_INCHIKEY>
JGWFWMFJTVMGGI-UHFFFAOYSA-N

> <PUBCHEM_XLOGP3_AA>
0.5

> <PUBCHEM_EXACT_MASS>
367.120192

> <PUBCHEM_MOLECULAR_FORMULA>
C16H21N3O5S

> <PUBCHEM_MOLECULAR_WEIGHT>
367.42004

> <PUBCHEM_OPENEYE_CAN_SMILES>
C=CCNC(=O)N1CCN(CC1)S(=O)(=O)C2=CC3=C(C=C2)OCCO3

> <PUBCHEM_OPENEYE_ISO_SMILES>
C=CCNC(=O)N1CCN(CC1)S(=O)(=O)C2=CC3=C(C=C2)OCCO3

> <PUBCHEM_CACTVS_TPSA>
96.6

> <PUBCHEM_MONOISOTOPIC_WEIGHT>
367.120192

> <PUBCHEM_TOTAL_CHARGE>
0

> <PUBCHEM_HEAVY_ATOM_COUNT>
25

> <PUBCHEM_ATOM_DEF_STEREO_COUNT>
0

> <PUBCHEM_ATOM_UDEF_STEREO_COUNT>
0

> <PUBCHEM_BOND_DEF_STEREO_COUNT>
0

> <PUBCHEM_BOND_UDEF_STEREO_COUNT>
0

> <PUBCHEM_ISOTOPIC_ATOM_COUNT>
0

> <PUBCHEM_COMPONENT_COUNT>
1

> <PUBCHEM_CACTVS_TAUTO_COUNT>
2

> <PUBCHEM_COORDINATE_TYPE>
1
5
255

> <PUBCHEM_BONDANNOTATIONS>
14  16  8
14  17  8
16  18  8
17  20  8
18  19  8
19  20  8

$$$$

