13309
  -OEChem-06261208492D

 46 47  0     1  0  0  0  0  0999 V2000
    3.2202    0.0000    0.0000 Cl  0  5  0  0  0  0  0  0  0  0  0  0
    2.9747    9.1388    0.0000 S   0  0  0  0  0  0  0  0  0  0  0  0
    1.7427    3.9482    0.0000 N   0  3  0  0  0  0  0  0  0  0  0  0
    3.4747    6.9482    0.0000 C   0  0  3  0  0  0  0  0  0  0  0  0
    3.4747    5.9482    0.0000 C   0  0  0  0  0  0  0  0  0  0  0  0
    2.6087    5.4482    0.0000 C   0  0  0  0  0  0  0  0  0  0  0  0
    2.6087    4.4482    0.0000 C   0  0  0  0  0  0  0  0  0  0  0  0
    4.3757    7.3821    0.0000 C   0  0  0  0  0  0  0  0  0  0  0  0
    2.5738    7.3821    0.0000 C   0  0  0  0  0  0  0  0  0  0  0  0
    4.5982    8.3570    0.0000 C   0  0  0  0  0  0  0  0  0  0  0  0
    2.3513    8.3570    0.0000 C   0  0  0  0  0  0  0  0  0  0  0  0
    3.9748    9.1388    0.0000 C   0  0  0  0  0  0  0  0  0  0  0  0
    5.1283    6.6619    0.0000 C   0  0  0  0  0  0  0  0  0  0  0  0
    1.8212    6.6619    0.0000 C   0  0  0  0  0  0  0  0  0  0  0  0
    0.8766    3.4482    0.0000 C   0  0  0  0  0  0  0  0  0  0  0  0
    2.2427    3.0822    0.0000 C   0  0  0  0  0  0  0  0  0  0  0  0
    5.5887    8.6793    0.0000 C   0  0  0  0  0  0  0  0  0  0  0  0
    1.3608    8.6794    0.0000 C   0  0  0  0  0  0  0  0  0  0  0  0
    6.1259    6.9612    0.0000 C   0  0  0  0  0  0  0  0  0  0  0  0
    0.8235    6.9613    0.0000 C   0  0  0  0  0  0  0  0  0  0  0  0
    6.3578    7.9768    0.0000 C   0  0  0  0  0  0  0  0  0  0  0  0
    0.5917    7.9768    0.0000 C   0  0  0  0  0  0  0  0  0  0  0  0
    3.9997    6.6183    0.0000 H   0  0  0  0  0  0  0  0  0  0  0  0
    3.6868    5.3656    0.0000 H   0  0  0  0  0  0  0  0  0  0  0  0
    4.0853    6.0559    0.0000 H   0  0  0  0  0  0  0  0  0  0  0  0
    2.3966    6.0308    0.0000 H   0  0  0  0  0  0  0  0  0  0  0  0
    1.9981    5.3406    0.0000 H   0  0  0  0  0  0  0  0  0  0  0  0
    2.8207    3.8656    0.0000 H   0  0  0  0  0  0  0  0  0  0  0  0
    3.2193    4.5559    0.0000 H   0  0  0  0  0  0  0  0  0  0  0  0
    1.4327    4.4852    0.0000 H   0  0  0  0  0  0  0  0  0  0  0  0
    4.5334    9.4078    0.0000 H   0  0  0  0  0  0  0  0  0  0  0  0
    3.8368    9.7433    0.0000 H   0  0  0  0  0  0  0  0  0  0  0  0
    4.9833    6.0591    0.0000 H   0  0  0  0  0  0  0  0  0  0  0  0
    1.9662    6.0591    0.0000 H   0  0  0  0  0  0  0  0  0  0  0  0
    0.5666    3.9852    0.0000 H   0  0  0  0  0  0  0  0  0  0  0  0
    1.7057    2.7722    0.0000 H   0  0  0  0  0  0  0  0  0  0  0  0
    2.5526    2.5452    0.0000 H   0  0  0  0  0  0  0  0  0  0  0  0
    2.7796    3.3922    0.0000 H   0  0  0  0  0  0  0  0  0  0  0  0
    0.3397    3.1382    0.0000 H   0  0  0  0  0  0  0  0  0  0  0  0
    1.1866    2.9113    0.0000 H   0  0  0  0  0  0  0  0  0  0  0  0
    5.7197    9.2854    0.0000 H   0  0  0  0  0  0  0  0  0  0  0  0
    1.2298    9.2854    0.0000 H   0  0  0  0  0  0  0  0  0  0  0  0
    6.5788    6.5378    0.0000 H   0  0  0  0  0  0  0  0  0  0  0  0
    0.3707    6.5378    0.0000 H   0  0  0  0  0  0  0  0  0  0  0  0
    6.9495    8.1618    0.0000 H   0  0  0  0  0  0  0  0  0  0  0  0
    0.0000    8.1618    0.0000 H   0  0  0  0  0  0  0  0  0  0  0  0
  2 11  1  0  0  0  0
  2 12  1  0  0  0  0
  3  7  1  0  0  0  0
  3 15  1  0  0  0  0
  3 16  1  0  0  0  0
  3 30  1  0  0  0  0
  4  5  1  0  0  0  0
  4  8  1  0  0  0  0
  4  9  1  0  0  0  0
  4 23  1  0  0  0  0
  5  6  1  0  0  0  0
  5 24  1  0  0  0  0
  5 25  1  0  0  0  0
  6  7  1  0  0  0  0
  6 26  1  0  0  0  0
  6 27  1  0  0  0  0
  7 28  1  0  0  0  0
  7 29  1  0  0  0  0
  8 10  1  0  0  0  0
  8 13  2  0  0  0  0
  9 11  1  0  0  0  0
  9 14  2  0  0  0  0
 10 12  1  0  0  0  0
 10 17  2  0  0  0  0
 11 18  2  0  0  0  0
 12 31  1  0  0  0  0
 12 32  1  0  0  0  0
 13 19  1  0  0  0  0
 13 33  1  0  0  0  0
 14 20  1  0  0  0  0
 14 34  1  0  0  0  0
 15 35  1  0  0  0  0
 15 39  1  0  0  0  0
 15 40  1  0  0  0  0
 16 36  1  0  0  0  0
 16 37  1  0  0  0  0
 16 38  1  0  0  0  0
 17 21  1  0  0  0  0
 17 41  1  0  0  0  0
 18 22  1  0  0  0  0
 18 42  1  0  0  0  0
 19 21  2  0  0  0  0
 19 43  1  0  0  0  0
 20 22  2  0  0  0  0
 20 44  1  0  0  0  0
 21 45  1  0  0  0  0
 22 46  1  0  0  0  0
M  CHG  2   1  -1   3   1
M  END
> <PUBCHEM_COMPOUND_CID>
13309

> <PUBCHEM_COMPOUND_CANONICALIZED>
1

> <PUBCHEM_CACTVS_COMPLEXITY>
317

> <PUBCHEM_CACTVS_HBOND_ACCEPTOR>
2

> <PUBCHEM_CACTVS_HBOND_DONOR>
1

> <PUBCHEM_CACTVS_ROTATABLE_BOND>
4

> <PUBCHEM_CACTVS_SUBSKEYS>
AAADceB6AABEAAAAAAAAAAAAAAAAAAAAAAAwYAAABIAAAAABQAAAHAQQAAAADQDFWASyAYPAAAiAAiBCAAACAAAgCBAIiJgIAIgIICKgkRCEIAAgkAAoiAcQgMAOgAAAAAAUAAAAAAAAACgAAAAAAAAAAA==

> <PUBCHEM_IUPAC_OPENEYE_NAME>
3-(6,11-dihydrobenzo[c][1]benzothiepin-11-yl)propyl-dimethyl-ammonium chloride

> <PUBCHEM_IUPAC_CAS_NAME>
3-(6,11-dihydrobenzo[c][1]benzothiepin-11-yl)propyl-dimethylammonium chloride

> <PUBCHEM_IUPAC_NAME>
3-(6,11-dihydrobenzo[c][1]benzothiepin-11-yl)propyl-dimethylazanium chloride

> <PUBCHEM_IUPAC_SYSTEMATIC_NAME>
3-(6,11-dihydrobenzo[c][1]benzothiepin-11-yl)propyl-dimethyl-azanium chloride

> <PUBCHEM_IUPAC_TRADITIONAL_NAME>
3-(6,11-dihydrobenzo[c][1]benzothiepin-11-yl)propyl-dimethyl-ammonium chloride

> <PUBCHEM_IUPAC_INCHI>
InChI=1S/C19H23NS.ClH/c1-20(2)13-7-11-17-16-9-4-3-8-15(16)14-21-19-12-6-5-10-18(17)19;/h3-6,8-10,12,17H,7,11,13-14H2,1-2H3;1H

> <PUBCHEM_IUPAC_INCHIKEY>
JUTSOXJHGGRSDY-UHFFFAOYSA-N

> <PUBCHEM_EXACT_MASS>
333.131798

> <PUBCHEM_MOLECULAR_FORMULA>
C19H24ClNS

> <PUBCHEM_MOLECULAR_WEIGHT>
333.91856

> <PUBCHEM_OPENEYE_CAN_SMILES>
C[NH+](C)CCCC1C2=CC=CC=C2CSC3=CC=CC=C13.[Cl-]

> <PUBCHEM_OPENEYE_ISO_SMILES>
C[NH+](C)CCCC1C2=CC=CC=C2CSC3=CC=CC=C13.[Cl-]

> <PUBCHEM_CACTVS_TPSA>
29.7

> <PUBCHEM_MONOISOTOPIC_WEIGHT>
333.131798

> <PUBCHEM_TOTAL_CHARGE>
0

> <PUBCHEM_HEAVY_ATOM_COUNT>
22

> <PUBCHEM_ATOM_DEF_STEREO_COUNT>
0

> <PUBCHEM_ATOM_UDEF_STEREO_COUNT>
1

> <PUBCHEM_BOND_DEF_STEREO_COUNT>
0

> <PUBCHEM_BOND_UDEF_STEREO_COUNT>
0

> <PUBCHEM_ISOTOPIC_ATOM_COUNT>
0

> <PUBCHEM_COMPONENT_COUNT>
2

> <PUBCHEM_CACTVS_TAUTO_COUNT>
1

> <PUBCHEM_COORDINATE_TYPE>
1
5
255

> <PUBCHEM_BONDANNOTATIONS>
10  17  8
11  18  8
13  19  8
14  20  8
17  21  8
18  22  8
19  21  8
20  22  8
4  5  3
8  10  8
8  13  8
9  11  8
9  14  8

$$$$

