6752
  -OEChem-06261201292D

 25 26  0     0  0  0  0  0  0999 V2000
    3.0000    1.5204    0.0000 S   0  0  0  0  0  0  0  0  0  0  0  0
    4.7484   -2.5142    0.0000 O   0  0  0  0  0  0  0  0  0  0  0  0
    3.0000    2.5204    0.0000 O   0  0  0  0  0  0  0  0  0  0  0  0
    2.0000    1.5204    0.0000 O   0  0  0  0  0  0  0  0  0  0  0  0
    4.0000    1.5204    0.0000 O   0  0  0  0  0  0  0  0  0  0  0  0
    3.0000   -2.4796    0.0000 N   0  0  0  0  0  0  0  0  0  0  0  0
    3.8660    0.0204    0.0000 C   0  0  0  0  0  0  0  0  0  0  0  0
    3.8660   -0.9796    0.0000 C   0  0  0  0  0  0  0  0  0  0  0  0
    3.0000    0.5204    0.0000 C   0  0  0  0  0  0  0  0  0  0  0  0
    3.0000   -1.4796    0.0000 C   0  0  0  0  0  0  0  0  0  0  0  0
    2.1340    0.0204    0.0000 C   0  0  0  0  0  0  0  0  0  0  0  0
    4.7600   -1.5143    0.0000 C   0  0  0  0  0  0  0  0  0  0  0  0
    4.7600    0.5551    0.0000 C   0  0  0  0  0  0  0  0  0  0  0  0
    2.1340   -0.9796    0.0000 C   0  0  0  0  0  0  0  0  0  0  0  0
    5.6660   -1.0004    0.0000 C   0  0  0  0  0  0  0  0  0  0  0  0
    5.6660    0.0412    0.0000 C   0  0  0  0  0  0  0  0  0  0  0  0
    1.5970    0.3304    0.0000 H   0  0  0  0  0  0  0  0  0  0  0  0
    4.7528    1.1750    0.0000 H   0  0  0  0  0  0  0  0  0  0  0  0
    1.5970   -1.2896    0.0000 H   0  0  0  0  0  0  0  0  0  0  0  0
    6.2018   -1.3125    0.0000 H   0  0  0  0  0  0  0  0  0  0  0  0
    6.2018    0.3533    0.0000 H   0  0  0  0  0  0  0  0  0  0  0  0
    2.4631   -2.7896    0.0000 H   0  0  0  0  0  0  0  0  0  0  0  0
    3.5369   -2.7896    0.0000 H   0  0  0  0  0  0  0  0  0  0  0  0
    5.2817   -2.8304    0.0000 H   0  0  0  0  0  0  0  0  0  0  0  0
    2.4631    2.8304    0.0000 H   0  0  0  0  0  0  0  0  0  0  0  0
  1  3  1  0  0  0  0
  1  4  2  0  0  0  0
  1  5  2  0  0  0  0
  1  9  1  0  0  0  0
  2 12  1  0  0  0  0
  2 24  1  0  0  0  0
  3 25  1  0  0  0  0
  6 10  1  0  0  0  0
  6 22  1  0  0  0  0
  6 23  1  0  0  0  0
  7  8  1  0  0  0  0
  7  9  2  0  0  0  0
  7 13  1  0  0  0  0
  8 10  2  0  0  0  0
  8 12  1  0  0  0  0
  9 11  1  0  0  0  0
 10 14  1  0  0  0  0
 11 14  2  0  0  0  0
 11 17  1  0  0  0  0
 12 15  2  0  0  0  0
 13 16  2  0  0  0  0
 13 18  1  0  0  0  0
 14 19  1  0  0  0  0
 15 16  1  0  0  0  0
 15 20  1  0  0  0  0
 16 21  1  0  0  0  0
M  END
> <PUBCHEM_COMPOUND_CID>
6752

> <PUBCHEM_COMPOUND_CANONICALIZED>
1

> <PUBCHEM_CACTVS_COMPLEXITY>
350

> <PUBCHEM_CACTVS_HBOND_ACCEPTOR>
5

> <PUBCHEM_CACTVS_HBOND_DONOR>
3

> <PUBCHEM_CACTVS_ROTATABLE_BOND>
1

> <PUBCHEM_CACTVS_SUBSKEYS>
AAADccByOABAAAAAAAAAAAAAAAAAAAAAAAAwYAAAAAAAAADBUAAAHgQQCAAADAyB2AAwx8BAAoKAAiRCQHDCAEAgIgAIiBgGbIgIJiKCkZOAcABm0BkI2AeQwLAOgAQBwAAeAAAACAOAADwAAAAAAAAAAA==

> <PUBCHEM_IUPAC_OPENEYE_NAME>
4-amino-5-hydroxy-naphthalene-1-sulfonic acid

> <PUBCHEM_IUPAC_CAS_NAME>
4-amino-5-hydroxy-1-naphthalenesulfonic acid

> <PUBCHEM_IUPAC_NAME>
4-amino-5-hydroxynaphthalene-1-sulfonic acid

> <PUBCHEM_IUPAC_SYSTEMATIC_NAME>
4-azanyl-5-oxidanyl-naphthalene-1-sulfonic acid

> <PUBCHEM_IUPAC_TRADITIONAL_NAME>
4-amino-5-hydroxy-naphthalene-1-sulfonic acid

> <PUBCHEM_IUPAC_INCHI>
InChI=1S/C10H9NO4S/c11-7-4-5-9(16(13,14)15)6-2-1-3-8(12)10(6)7/h1-5,12H,11H2,(H,13,14,15)

> <PUBCHEM_IUPAC_INCHIKEY>
LRDIEHDJWYRVPT-UHFFFAOYSA-N

> <PUBCHEM_XLOGP3_AA>
1.4

> <PUBCHEM_EXACT_MASS>
239.025229

> <PUBCHEM_MOLECULAR_FORMULA>
C10H9NO4S

> <PUBCHEM_MOLECULAR_WEIGHT>
239.24776

> <PUBCHEM_OPENEYE_CAN_SMILES>
C1=CC2=C(C=CC(=C2C(=C1)O)N)S(=O)(=O)O

> <PUBCHEM_OPENEYE_ISO_SMILES>
C1=CC2=C(C=CC(=C2C(=C1)O)N)S(=O)(=O)O

> <PUBCHEM_CACTVS_TPSA>
109

> <PUBCHEM_MONOISOTOPIC_WEIGHT>
239.025229

> <PUBCHEM_TOTAL_CHARGE>
0

> <PUBCHEM_HEAVY_ATOM_COUNT>
16

> <PUBCHEM_ATOM_DEF_STEREO_COUNT>
0

> <PUBCHEM_ATOM_UDEF_STEREO_COUNT>
0

> <PUBCHEM_BOND_DEF_STEREO_COUNT>
0

> <PUBCHEM_BOND_UDEF_STEREO_COUNT>
0

> <PUBCHEM_ISOTOPIC_ATOM_COUNT>
0

> <PUBCHEM_COMPONENT_COUNT>
1

> <PUBCHEM_CACTVS_TAUTO_COUNT>
14

> <PUBCHEM_COORDINATE_TYPE>
1
5
255

> <PUBCHEM_BONDANNOTATIONS>
10  14  8
11  14  8
12  15  8
13  16  8
15  16  8
7  13  8
7  8  8
7  9  8
8  10  8
8  12  8
9  11  8

$$$$

