12621
  -OEChem-06261207102D

 22 20  0     0  0  0  0  0  0999 V2000
    2.2690    1.3660    0.0000 F   0  0  0  0  0  0  0  0  0  0  0  0
    0.5369    0.3660    0.0000 F   0  0  0  0  0  0  0  0  0  0  0  0
    0.9030    1.7320    0.0000 F   0  0  0  0  0  0  0  0  0  0  0  0
    1.9030    0.0000    0.0000 F   0  0  0  0  0  0  0  0  0  0  0  0
    1.4030    5.1350    0.0000 N   0  3  0  0  0  0  0  0  0  0  0  0
    2.2690    5.6350    0.0000 C   0  0  0  0  0  0  0  0  0  0  0  0
    0.5369    4.6350    0.0000 C   0  0  0  0  0  0  0  0  0  0  0  0
    0.9030    6.0010    0.0000 C   0  0  0  0  0  0  0  0  0  0  0  0
    1.9030    4.2690    0.0000 C   0  0  0  0  0  0  0  0  0  0  0  0
    1.4030    0.8660    0.0000 B   0  5  0  0  0  0  0  0  0  0  0  0
    1.3660    3.9590    0.0000 H   0  0  0  0  0  0  0  0  0  0  0  0
    2.2130    3.7320    0.0000 H   0  0  0  0  0  0  0  0  0  0  0  0
    2.4399    4.5790    0.0000 H   0  0  0  0  0  0  0  0  0  0  0  0
    1.4399    6.3110    0.0000 H   0  0  0  0  0  0  0  0  0  0  0  0
    0.5930    6.5380    0.0000 H   0  0  0  0  0  0  0  0  0  0  0  0
    0.3660    5.6910    0.0000 H   0  0  0  0  0  0  0  0  0  0  0  0
    0.2269    5.1720    0.0000 H   0  0  0  0  0  0  0  0  0  0  0  0
    0.0000    4.3250    0.0000 H   0  0  0  0  0  0  0  0  0  0  0  0
    0.8469    4.0981    0.0000 H   0  0  0  0  0  0  0  0  0  0  0  0
    2.5790    5.0981    0.0000 H   0  0  0  0  0  0  0  0  0  0  0  0
    2.8059    5.9450    0.0000 H   0  0  0  0  0  0  0  0  0  0  0  0
    1.9590    6.1720    0.0000 H   0  0  0  0  0  0  0  0  0  0  0  0
  1 10  1  0  0  0  0
  2 10  1  0  0  0  0
  3 10  1  0  0  0  0
  4 10  1  0  0  0  0
  5  6  1  0  0  0  0
  5  7  1  0  0  0  0
  5  8  1  0  0  0  0
  5  9  1  0  0  0  0
  6 20  1  0  0  0  0
  6 21  1  0  0  0  0
  6 22  1  0  0  0  0
  7 17  1  0  0  0  0
  7 18  1  0  0  0  0
  7 19  1  0  0  0  0
  8 14  1  0  0  0  0
  8 15  1  0  0  0  0
  8 16  1  0  0  0  0
  9 11  1  0  0  0  0
  9 12  1  0  0  0  0
  9 13  1  0  0  0  0
M  CHG  2   5   1  10  -1
M  END
> <PUBCHEM_COMPOUND_CID>
12621

> <PUBCHEM_COMPOUND_CANONICALIZED>
1

> <PUBCHEM_CACTVS_COMPLEXITY>
38.2

> <PUBCHEM_CACTVS_HBOND_ACCEPTOR>
5

> <PUBCHEM_CACTVS_HBOND_DONOR>
0

> <PUBCHEM_CACTVS_ROTATABLE_BOND>
0

> <PUBCHEM_CACTVS_SUBSKEYS>
AAADccJiAcAAAAAAAAAAAAAAAAAAAAAAAAAAAAAAAAAAAAAAAAAEFAAAAAAAAAAAAAQCAAMAAAAAAAAAAAAAAAAAAAAAAAAIAAAAAAAAAAAAAAAAAAAAAAAAAAAAAAAAAAAAAAAAAAAAAAAAAAAAAAAAAA==

> <PUBCHEM_IUPAC_OPENEYE_NAME>
tetramethylammonium tetrafluoroborate

> <PUBCHEM_IUPAC_CAS_NAME>
tetramethylammonium tetrafluoroborate

> <PUBCHEM_IUPAC_NAME>
tetramethylazanium tetrafluoroborate

> <PUBCHEM_IUPAC_SYSTEMATIC_NAME>
tetramethylazanium tetrafluoroborate

> <PUBCHEM_IUPAC_TRADITIONAL_NAME>
tetramethylammonium tetrafluoroborate

> <PUBCHEM_IUPAC_INCHI>
InChI=1S/C4H12N.BF4/c1-5(2,3)4;2-1(3,4)5/h1-4H3;/q+1;-1

> <PUBCHEM_IUPAC_INCHIKEY>
XWFABLFRYCHILB-UHFFFAOYSA-N

> <PUBCHEM_EXACT_MASS>
161.099893

> <PUBCHEM_MOLECULAR_FORMULA>
C4H12BF4N

> <PUBCHEM_MOLECULAR_WEIGHT>
160.949393

> <PUBCHEM_OPENEYE_CAN_SMILES>
[B-](F)(F)(F)F.C[N+](C)(C)C

> <PUBCHEM_OPENEYE_ISO_SMILES>
[B-](F)(F)(F)F.C[N+](C)(C)C

> <PUBCHEM_CACTVS_TPSA>
0

> <PUBCHEM_MONOISOTOPIC_WEIGHT>
161.099893

> <PUBCHEM_TOTAL_CHARGE>
0

> <PUBCHEM_HEAVY_ATOM_COUNT>
10

> <PUBCHEM_ATOM_DEF_STEREO_COUNT>
0

> <PUBCHEM_ATOM_UDEF_STEREO_COUNT>
0

> <PUBCHEM_BOND_DEF_STEREO_COUNT>
0

> <PUBCHEM_BOND_UDEF_STEREO_COUNT>
0

> <PUBCHEM_ISOTOPIC_ATOM_COUNT>
0

> <PUBCHEM_COMPONENT_COUNT>
2

> <PUBCHEM_CACTVS_TAUTO_COUNT>
1

> <PUBCHEM_COORDINATE_TYPE>
1
5
255

$$$$

