13323
  -OEChem-06261208572D

 39 40  0     0  0  0  0  0  0999 V2000
    4.2690    1.0950    0.0000 O   0  0  0  0  0  0  0  0  0  0  0  0
    4.2690    2.0950    0.0000 N   0  0  0  0  0  0  0  0  0  0  0  0
    3.4030    3.5950    0.0000 N   0  0  0  0  0  0  0  0  0  0  0  0
    2.5369    2.0950    0.0000 N   0  0  0  0  0  0  0  0  0  0  0  0
    6.0010   -0.9050    0.0000 C   0  0  0  0  0  0  0  0  0  0  0  0
    5.1350   -0.4050    0.0000 C   0  0  0  0  0  0  0  0  0  0  0  0
    6.0010   -1.9050    0.0000 C   0  0  0  0  0  0  0  0  0  0  0  0
    6.8671   -0.4050    0.0000 C   0  0  0  0  0  0  0  0  0  0  0  0
    5.1350    0.5950    0.0000 C   0  0  0  0  0  0  0  0  0  0  0  0
    5.1350   -2.4050    0.0000 C   0  0  0  0  0  0  0  0  0  0  0  0
    6.8671    0.5950    0.0000 C   0  0  0  0  0  0  0  0  0  0  0  0
    6.8671   -2.4050    0.0000 C   0  0  0  0  0  0  0  0  0  0  0  0
    7.7331   -0.9050    0.0000 C   0  0  0  0  0  0  0  0  0  0  0  0
    7.7331    1.0950    0.0000 C   0  0  0  0  0  0  0  0  0  0  0  0
    5.1350   -3.4050    0.0000 C   0  0  0  0  0  0  0  0  0  0  0  0
    6.8671   -3.4050    0.0000 C   0  0  0  0  0  0  0  0  0  0  0  0
    8.5991   -0.4050    0.0000 C   0  0  0  0  0  0  0  0  0  0  0  0
    8.5991    0.5950    0.0000 C   0  0  0  0  0  0  0  0  0  0  0  0
    6.0010   -3.9050    0.0000 C   0  0  0  0  0  0  0  0  0  0  0  0
    3.4030    2.5950    0.0000 C   0  0  0  0  0  0  0  0  0  0  0  0
    5.4641   -1.2150    0.0000 H   0  0  0  0  0  0  0  0  0  0  0  0
    4.5244   -0.2973    0.0000 H   0  0  0  0  0  0  0  0  0  0  0  0
    4.9230   -0.9876    0.0000 H   0  0  0  0  0  0  0  0  0  0  0  0
    5.7456    0.4873    0.0000 H   0  0  0  0  0  0  0  0  0  0  0  0
    5.3471    1.1776    0.0000 H   0  0  0  0  0  0  0  0  0  0  0  0
    4.5981   -2.0950    0.0000 H   0  0  0  0  0  0  0  0  0  0  0  0
    6.3301    0.9050    0.0000 H   0  0  0  0  0  0  0  0  0  0  0  0
    7.4040   -2.0950    0.0000 H   0  0  0  0  0  0  0  0  0  0  0  0
    7.7331   -1.5250    0.0000 H   0  0  0  0  0  0  0  0  0  0  0  0
    7.7331    1.7150    0.0000 H   0  0  0  0  0  0  0  0  0  0  0  0
    4.5981   -3.7150    0.0000 H   0  0  0  0  0  0  0  0  0  0  0  0
    9.1360   -0.7150    0.0000 H   0  0  0  0  0  0  0  0  0  0  0  0
    7.4040   -3.7150    0.0000 H   0  0  0  0  0  0  0  0  0  0  0  0
    9.1360    0.9050    0.0000 H   0  0  0  0  0  0  0  0  0  0  0  0
    6.0010   -4.5250    0.0000 H   0  0  0  0  0  0  0  0  0  0  0  0
    2.8660    3.9050    0.0000 H   0  0  0  0  0  0  0  0  0  0  0  0
    3.9399    3.9050    0.0000 H   0  0  0  0  0  0  0  0  0  0  0  0
    2.0000    2.4050    0.0000 H   0  0  0  0  0  0  0  0  0  0  0  0
    2.5369    1.4750    0.0000 H   0  0  0  0  0  0  0  0  0  0  0  0
  1  2  1  0  0  0  0
  1  9  1  0  0  0  0
  2 20  2  0  0  0  0
  3 20  1  0  0  0  0
  3 36  1  0  0  0  0
  3 37  1  0  0  0  0
  4 20  1  0  0  0  0
  4 38  1  0  0  0  0
  4 39  1  0  0  0  0
  5  6  1  0  0  0  0
  5  7  1  0  0  0  0
  5  8  1  0  0  0  0
  5 21  1  0  0  0  0
  6  9  1  0  0  0  0
  6 22  1  0  0  0  0
  6 23  1  0  0  0  0
  7 10  2  0  0  0  0
  7 12  1  0  0  0  0
  8 11  2  0  0  0  0
  8 13  1  0  0  0  0
  9 24  1  0  0  0  0
  9 25  1  0  0  0  0
 10 15  1  0  0  0  0
 10 26  1  0  0  0  0
 11 14  1  0  0  0  0
 11 27  1  0  0  0  0
 12 16  2  0  0  0  0
 12 28  1  0  0  0  0
 13 17  2  0  0  0  0
 13 29  1  0  0  0  0
 14 18  2  0  0  0  0
 14 30  1  0  0  0  0
 15 19  2  0  0  0  0
 15 31  1  0  0  0  0
 16 19  1  0  0  0  0
 16 33  1  0  0  0  0
 17 18  1  0  0  0  0
 17 32  1  0  0  0  0
 18 34  1  0  0  0  0
 19 35  1  0  0  0  0
M  END
> <PUBCHEM_COMPOUND_CID>
13323

> <PUBCHEM_COMPOUND_CANONICALIZED>
1

> <PUBCHEM_CACTVS_COMPLEXITY>
272

> <PUBCHEM_CACTVS_HBOND_ACCEPTOR>
2

> <PUBCHEM_CACTVS_HBOND_DONOR>
2

> <PUBCHEM_CACTVS_ROTATABLE_BOND>
6

> <PUBCHEM_CACTVS_SUBSKEYS>
AAADceB7IAAAAAAAAAAAAAAAAAAAAAAAAAAwYAAAAAAAAAABQAAAHgAUAAAADQCgmAIxAIBQAACgAiBCIAACAAAgAAAIiAAAAIgIICKAERCAIAAkgAAIiAeAwOAOgAAAAAAAAAAAAAAAAAAAAAAAAAAAAA==

> <PUBCHEM_IUPAC_OPENEYE_NAME>
2-(3,3-diphenylpropoxy)guanidine

> <PUBCHEM_IUPAC_CAS_NAME>
2-(3,3-diphenylpropoxy)guanidine

> <PUBCHEM_IUPAC_NAME>
2-(3,3-diphenylpropoxy)guanidine

> <PUBCHEM_IUPAC_SYSTEMATIC_NAME>
2-(3,3-diphenylpropoxy)guanidine

> <PUBCHEM_IUPAC_TRADITIONAL_NAME>
2-(3,3-diphenylpropoxy)guanidine

> <PUBCHEM_IUPAC_INCHI>
InChI=1S/C16H19N3O/c17-16(18)19-20-12-11-15(13-7-3-1-4-8-13)14-9-5-2-6-10-14/h1-10,15H,11-12H2,(H4,17,18,19)

> <PUBCHEM_IUPAC_INCHIKEY>
UBLLHNIMLMMZKC-UHFFFAOYSA-N

> <PUBCHEM_XLOGP3_AA>
2.9

> <PUBCHEM_EXACT_MASS>
269.152812

> <PUBCHEM_MOLECULAR_FORMULA>
C16H19N3O

> <PUBCHEM_MOLECULAR_WEIGHT>
269.34156

> <PUBCHEM_OPENEYE_CAN_SMILES>
C1=CC=C(C=C1)C(CCON=C(N)N)C2=CC=CC=C2

> <PUBCHEM_OPENEYE_ISO_SMILES>
C1=CC=C(C=C1)C(CCON=C(N)N)C2=CC=CC=C2

> <PUBCHEM_CACTVS_TPSA>
73.6

> <PUBCHEM_MONOISOTOPIC_WEIGHT>
269.152812

> <PUBCHEM_TOTAL_CHARGE>
0

> <PUBCHEM_HEAVY_ATOM_COUNT>
20

> <PUBCHEM_ATOM_DEF_STEREO_COUNT>
0

> <PUBCHEM_ATOM_UDEF_STEREO_COUNT>
0

> <PUBCHEM_BOND_DEF_STEREO_COUNT>
0

> <PUBCHEM_BOND_UDEF_STEREO_COUNT>
0

> <PUBCHEM_ISOTOPIC_ATOM_COUNT>
0

> <PUBCHEM_COMPONENT_COUNT>
1

> <PUBCHEM_CACTVS_TAUTO_COUNT>
2

> <PUBCHEM_COORDINATE_TYPE>
1
5
255

> <PUBCHEM_BONDANNOTATIONS>
10  15  8
11  14  8
12  16  8
13  17  8
14  18  8
15  19  8
16  19  8
17  18  8
7  10  8
7  12  8
8  11  8
8  13  8

$$$$

