10548
  -OEChem-06261204402D

 38 37  0     0  0  0  0  0  0999 V2000
    5.4641   -0.3660    0.0000 S   0  0  0  0  0  0  0  0  0  0  0  0
    4.5981   -0.8660    0.0000 P   0  0  0  0  0  0  0  0  0  0  0  0
    3.7320   -1.3660    0.0000 O   0  0  0  0  0  0  0  0  0  0  0  0
    4.0981    0.0000    0.0000 O   0  0  0  0  0  0  0  0  0  0  0  0
    5.0981   -1.7320    0.0000 O   0  0  0  0  0  0  0  0  0  0  0  0
    8.0622   -0.8660    0.0000 N   0  3  0  0  0  0  0  0  0  0  0  0
    7.1962   -0.3660    0.0000 C   0  0  0  0  0  0  0  0  0  0  0  0
    8.9282   -1.3660    0.0000 C   0  0  0  0  0  0  0  0  0  0  0  0
    8.5622    0.0000    0.0000 C   0  0  0  0  0  0  0  0  0  0  0  0
    7.5622   -1.7320    0.0000 C   0  0  0  0  0  0  0  0  0  0  0  0
    6.3301   -0.8660    0.0000 C   0  0  0  0  0  0  0  0  0  0  0  0
    4.5981    0.8660    0.0000 C   0  0  0  0  0  0  0  0  0  0  0  0
    2.8660   -0.8660    0.0000 C   0  0  0  0  0  0  0  0  0  0  0  0
    2.0000   -1.3660    0.0000 C   0  0  0  0  0  0  0  0  0  0  0  0
    4.0981    1.7320    0.0000 C   0  0  0  0  0  0  0  0  0  0  0  0
    7.5947    0.1089    0.0000 H   0  0  0  0  0  0  0  0  0  0  0  0
    6.7976    0.1089    0.0000 H   0  0  0  0  0  0  0  0  0  0  0  0
    8.6182   -1.9030    0.0000 H   0  0  0  0  0  0  0  0  0  0  0  0
    9.4651   -1.6760    0.0000 H   0  0  0  0  0  0  0  0  0  0  0  0
    9.2382   -0.8291    0.0000 H   0  0  0  0  0  0  0  0  0  0  0  0
    9.0991   -0.3100    0.0000 H   0  0  0  0  0  0  0  0  0  0  0  0
    8.8722    0.5369    0.0000 H   0  0  0  0  0  0  0  0  0  0  0  0
    8.0252    0.3100    0.0000 H   0  0  0  0  0  0  0  0  0  0  0  0
    7.0252   -1.4220    0.0000 H   0  0  0  0  0  0  0  0  0  0  0  0
    7.2522   -2.2690    0.0000 H   0  0  0  0  0  0  0  0  0  0  0  0
    8.0991   -2.0420    0.0000 H   0  0  0  0  0  0  0  0  0  0  0  0
    5.9316   -1.3410    0.0000 H   0  0  0  0  0  0  0  0  0  0  0  0
    6.7287   -1.3410    0.0000 H   0  0  0  0  0  0  0  0  0  0  0  0
    5.0730    0.4675    0.0000 H   0  0  0  0  0  0  0  0  0  0  0  0
    5.0730    1.2646    0.0000 H   0  0  0  0  0  0  0  0  0  0  0  0
    3.2646   -0.3911    0.0000 H   0  0  0  0  0  0  0  0  0  0  0  0
    2.4675   -0.3911    0.0000 H   0  0  0  0  0  0  0  0  0  0  0  0
    1.6900   -0.8291    0.0000 H   0  0  0  0  0  0  0  0  0  0  0  0
    1.4631   -1.6760    0.0000 H   0  0  0  0  0  0  0  0  0  0  0  0
    2.3100   -1.9030    0.0000 H   0  0  0  0  0  0  0  0  0  0  0  0
    4.6350    2.0420    0.0000 H   0  0  0  0  0  0  0  0  0  0  0  0
    3.7881    2.2690    0.0000 H   0  0  0  0  0  0  0  0  0  0  0  0
    3.5611    1.4220    0.0000 H   0  0  0  0  0  0  0  0  0  0  0  0
  1  2  1  0  0  0  0
  1 11  1  0  0  0  0
  2  3  1  0  0  0  0
  2  4  1  0  0  0  0
  2  5  2  0  0  0  0
  3 13  1  0  0  0  0
  4 12  1  0  0  0  0
  6  7  1  0  0  0  0
  6  8  1  0  0  0  0
  6  9  1  0  0  0  0
  6 10  1  0  0  0  0
  7 11  1  0  0  0  0
  7 16  1  0  0  0  0
  7 17  1  0  0  0  0
  8 18  1  0  0  0  0
  8 19  1  0  0  0  0
  8 20  1  0  0  0  0
  9 21  1  0  0  0  0
  9 22  1  0  0  0  0
  9 23  1  0  0  0  0
 10 24  1  0  0  0  0
 10 25  1  0  0  0  0
 10 26  1  0  0  0  0
 11 27  1  0  0  0  0
 11 28  1  0  0  0  0
 12 15  1  0  0  0  0
 12 29  1  0  0  0  0
 12 30  1  0  0  0  0
 13 14  1  0  0  0  0
 13 31  1  0  0  0  0
 13 32  1  0  0  0  0
 14 33  1  0  0  0  0
 14 34  1  0  0  0  0
 14 35  1  0  0  0  0
 15 36  1  0  0  0  0
 15 37  1  0  0  0  0
 15 38  1  0  0  0  0
M  CHG  1   6   1
M  END
> <PUBCHEM_COMPOUND_CID>
10548

> <PUBCHEM_COMPOUND_CANONICALIZED>
1

> <PUBCHEM_CACTVS_COMPLEXITY>
208

> <PUBCHEM_CACTVS_HBOND_ACCEPTOR>
4

> <PUBCHEM_CACTVS_HBOND_DONOR>
0

> <PUBCHEM_CACTVS_ROTATABLE_BOND>
8

> <PUBCHEM_CACTVS_SUBSKEYS>
AAADceByMAJAAAAAAAAAAAAAAAAAAAAAAAAAAAAAAAAAAAAAAAAAHgQAACAAAADlwAaCAAMAARAAQAAAAIAAAAAAAAAAAAAIAAAAAAAAAAAAAAAAAAAAAAAAAAAAAAAAAAAAAAAAAAAAAAAAAAAAAAAAAA==

> <PUBCHEM_IUPAC_OPENEYE_NAME>
2-diethoxyphosphorylsulfanylethyl(trimethyl)ammonium

> <PUBCHEM_IUPAC_CAS_NAME>
2-(diethoxyphosphorylthio)ethyl-trimethylammonium

> <PUBCHEM_IUPAC_NAME>
2-diethoxyphosphorylsulfanylethyl(trimethyl)azanium

> <PUBCHEM_IUPAC_SYSTEMATIC_NAME>
2-diethoxyphosphorylsulfanylethyl(trimethyl)azanium

> <PUBCHEM_IUPAC_TRADITIONAL_NAME>
2-(diethoxyphosphorylthio)ethyl-trimethyl-ammonium

> <PUBCHEM_IUPAC_INCHI>
InChI=1S/C9H23NO3PS/c1-6-12-14(11,13-7-2)15-9-8-10(3,4)5/h6-9H2,1-5H3/q+1

> <PUBCHEM_IUPAC_INCHIKEY>
BJOLKYGKSZKIGU-UHFFFAOYSA-N

> <PUBCHEM_XLOGP3>
1

> <PUBCHEM_EXACT_MASS>
256.113626

> <PUBCHEM_MOLECULAR_FORMULA>
C9H23NO3PS+

> <PUBCHEM_MOLECULAR_WEIGHT>
256.322582

> <PUBCHEM_OPENEYE_CAN_SMILES>
CCOP(=O)(OCC)SCC[N+](C)(C)C

> <PUBCHEM_OPENEYE_ISO_SMILES>
CCOP(=O)(OCC)SCC[N+](C)(C)C

> <PUBCHEM_CACTVS_TPSA>
60.8

> <PUBCHEM_MONOISOTOPIC_WEIGHT>
256.113626

> <PUBCHEM_TOTAL_CHARGE>
1

> <PUBCHEM_HEAVY_ATOM_COUNT>
15

> <PUBCHEM_ATOM_DEF_STEREO_COUNT>
0

> <PUBCHEM_ATOM_UDEF_STEREO_COUNT>
0

> <PUBCHEM_BOND_DEF_STEREO_COUNT>
0

> <PUBCHEM_BOND_UDEF_STEREO_COUNT>
0

> <PUBCHEM_ISOTOPIC_ATOM_COUNT>
0

> <PUBCHEM_COMPONENT_COUNT>
1

> <PUBCHEM_CACTVS_TAUTO_COUNT>
1

> <PUBCHEM_COORDINATE_TYPE>
1
5
255

$$$$

