51090934
  -OEChem-06241223002D

 45 46  0     1  0  0  0  0  0999 V2000
   10.0829    3.9250    0.0000 F   0  0  0  0  0  0  0  0  0  0  0  0
   10.3041    2.5282    0.0000 F   0  0  0  0  0  0  0  0  0  0  0  0
    8.6861    3.7037    0.0000 F   0  0  0  0  0  0  0  0  0  0  0  0
    3.7320    0.5750    0.0000 O   0  0  0  0  0  0  0  0  0  0  0  0
    2.8660   -0.9250    0.0000 O   0  0  0  0  0  0  0  0  0  0  0  0
    2.8660   -2.9250    0.0000 O   0  0  0  0  0  0  0  0  0  0  0  0
    7.9128    2.4114    0.0000 N   0  0  3  0  0  0  0  0  0  0  0  0
    5.4641    0.5750    0.0000 N   0  0  0  0  0  0  0  0  0  0  0  0
    6.3301    2.0750    0.0000 C   0  0  3  0  0  0  0  0  0  0  0  0
    6.4347    3.0696    0.0000 C   0  0  0  0  0  0  0  0  0  0  0  0
    7.2437    1.6683    0.0000 C   0  0  0  0  0  0  0  0  0  0  0  0
    7.4128    3.2775    0.0000 C   0  0  0  0  0  0  0  0  0  0  0  0
    5.4641    1.5750    0.0000 C   0  0  0  0  0  0  0  0  0  0  0  0
    8.9073    2.3069    0.0000 C   0  0  0  0  0  0  0  0  0  0  0  0
    9.4951    3.1159    0.0000 C   0  0  0  0  0  0  0  0  0  0  0  0
    4.5981    0.0750    0.0000 C   0  0  0  0  0  0  0  0  0  0  0  0
    4.5981   -0.9250    0.0000 C   0  0  0  0  0  0  0  0  0  0  0  0
    3.7320   -1.4250    0.0000 C   0  0  0  0  0  0  0  0  0  0  0  0
    5.4641   -1.4250    0.0000 C   0  0  0  0  0  0  0  0  0  0  0  0
    3.7320   -2.4250    0.0000 C   0  0  0  0  0  0  0  0  0  0  0  0
    5.4641   -2.4250    0.0000 C   0  0  0  0  0  0  0  0  0  0  0  0
    4.5981   -2.9250    0.0000 C   0  0  0  0  0  0  0  0  0  0  0  0
    2.0000   -1.4250    0.0000 C   0  0  0  0  0  0  0  0  0  0  0  0
    2.8660   -3.9250    0.0000 C   0  0  0  0  0  0  0  0  0  0  0  0
    5.8102    2.4127    0.0000 H   0  0  0  0  0  0  0  0  0  0  0  0
    6.3698    3.6862    0.0000 H   0  0  0  0  0  0  0  0  0  0  0  0
    5.8147    3.0696    0.0000 H   0  0  0  0  0  0  0  0  0  0  0  0
    6.9337    1.1314    0.0000 H   0  0  0  0  0  0  0  0  0  0  0  0
    7.7453    1.3039    0.0000 H   0  0  0  0  0  0  0  0  0  0  0  0
    7.9792    3.5296    0.0000 H   0  0  0  0  0  0  0  0  0  0  0  0
    7.2212    3.8671    0.0000 H   0  0  0  0  0  0  0  0  0  0  0  0
    5.2520    2.1576    0.0000 H   0  0  0  0  0  0  0  0  0  0  0  0
    4.8535    1.4674    0.0000 H   0  0  0  0  0  0  0  0  0  0  0  0
    8.7364    1.7109    0.0000 H   0  0  0  0  0  0  0  0  0  0  0  0
    9.4646    2.0351    0.0000 H   0  0  0  0  0  0  0  0  0  0  0  0
    6.0010    0.2650    0.0000 H   0  0  0  0  0  0  0  0  0  0  0  0
    6.0010   -1.1150    0.0000 H   0  0  0  0  0  0  0  0  0  0  0  0
    6.0010   -2.7350    0.0000 H   0  0  0  0  0  0  0  0  0  0  0  0
    4.5981   -3.5450    0.0000 H   0  0  0  0  0  0  0  0  0  0  0  0
    1.6900   -0.8880    0.0000 H   0  0  0  0  0  0  0  0  0  0  0  0
    1.4631   -1.7350    0.0000 H   0  0  0  0  0  0  0  0  0  0  0  0
    2.3100   -1.9619    0.0000 H   0  0  0  0  0  0  0  0  0  0  0  0
    2.2460   -3.9250    0.0000 H   0  0  0  0  0  0  0  0  0  0  0  0
    2.8660   -4.5450    0.0000 H   0  0  0  0  0  0  0  0  0  0  0  0
    3.4860   -3.9250    0.0000 H   0  0  0  0  0  0  0  0  0  0  0  0
  1 15  1  0  0  0  0
  2 15  1  0  0  0  0
  3 15  1  0  0  0  0
  4 16  2  0  0  0  0
  5 18  1  0  0  0  0
  5 23  1  0  0  0  0
  6 20  1  0  0  0  0
  6 24  1  0  0  0  0
  7 11  1  0  0  0  0
  7 12  1  0  0  0  0
  7 14  1  0  0  0  0
  8 13  1  0  0  0  0
  8 16  1  0  0  0  0
  8 36  1  0  0  0  0
  9 10  1  0  0  0  0
  9 11  1  0  0  0  0
  9 13  1  0  0  0  0
  9 25  1  0  0  0  0
 10 12  1  0  0  0  0
 10 26  1  0  0  0  0
 10 27  1  0  0  0  0
 11 28  1  0  0  0  0
 11 29  1  0  0  0  0
 12 30  1  0  0  0  0
 12 31  1  0  0  0  0
 13 32  1  0  0  0  0
 13 33  1  0  0  0  0
 14 15  1  0  0  0  0
 14 34  1  0  0  0  0
 14 35  1  0  0  0  0
 16 17  1  0  0  0  0
 17 18  2  0  0  0  0
 17 19  1  0  0  0  0
 18 20  1  0  0  0  0
 19 21  2  0  0  0  0
 19 37  1  0  0  0  0
 20 22  2  0  0  0  0
 21 22  1  0  0  0  0
 21 38  1  0  0  0  0
 22 39  1  0  0  0  0
 23 40  1  0  0  0  0
 23 41  1  0  0  0  0
 23 42  1  0  0  0  0
 24 43  1  0  0  0  0
 24 44  1  0  0  0  0
 24 45  1  0  0  0  0
M  END
> <PUBCHEM_COMPOUND_CID>
51090934

> <PUBCHEM_COMPOUND_CANONICALIZED>
1

> <PUBCHEM_CACTVS_COMPLEXITY>
420

> <PUBCHEM_CACTVS_HBOND_ACCEPTOR>
7

> <PUBCHEM_CACTVS_HBOND_DONOR>
1

> <PUBCHEM_CACTVS_ROTATABLE_BOND>
6

> <PUBCHEM_CACTVS_SUBSKEYS>
AAADceB7MYAAAAAAAAAAAAAAAAAAAWAAAAAwAAAAAAAAAAABAAAAHwAQAAAADQTBmBYyBoPABACIAiFSEACCCAAkIAAIiIEOjMgNJjaE9RuEMWpm9hGKqYe6yDCOAAABAAAIQAAAAAIAABCAAAAAAAAAAA==

> <PUBCHEM_IUPAC_OPENEYE_NAME>
2,3-dimethoxy-N-[[1-(2,2,2-trifluoroethyl)pyrrolidin-3-yl]methyl]benzamide

> <PUBCHEM_IUPAC_CAS_NAME>
2,3-dimethoxy-N-[[1-(2,2,2-trifluoroethyl)-3-pyrrolidinyl]methyl]benzamide

> <PUBCHEM_IUPAC_NAME>
2,3-dimethoxy-N-[[1-(2,2,2-trifluoroethyl)pyrrolidin-3-yl]methyl]benzamide

> <PUBCHEM_IUPAC_SYSTEMATIC_NAME>
2,3-dimethoxy-N-[[1-[2,2,2-tris(fluoranyl)ethyl]pyrrolidin-3-yl]methyl]benzamide

> <PUBCHEM_IUPAC_TRADITIONAL_NAME>
2,3-dimethoxy-N-[[1-(2,2,2-trifluoroethyl)pyrrolidin-3-yl]methyl]benzamide

> <PUBCHEM_IUPAC_INCHI>
InChI=1S/C16H21F3N2O3/c1-23-13-5-3-4-12(14(13)24-2)15(22)20-8-11-6-7-21(9-11)10-16(17,18)19/h3-5,11H,6-10H2,1-2H3,(H,20,22)

> <PUBCHEM_IUPAC_INCHIKEY>
LZFCINGUSVPVNZ-UHFFFAOYSA-N

> <PUBCHEM_XLOGP3>
2.8

> <PUBCHEM_EXACT_MASS>
346.150427

> <PUBCHEM_MOLECULAR_FORMULA>
C16H21F3N2O3

> <PUBCHEM_MOLECULAR_WEIGHT>
346.34475

> <PUBCHEM_OPENEYE_CAN_SMILES>
COC1=CC=CC(=C1OC)C(=O)NCC2CCN(C2)CC(F)(F)F

> <PUBCHEM_OPENEYE_ISO_SMILES>
COC1=CC=CC(=C1OC)C(=O)NCC2CCN(C2)CC(F)(F)F

> <PUBCHEM_CACTVS_TPSA>
50.8

> <PUBCHEM_MONOISOTOPIC_WEIGHT>
346.150427

> <PUBCHEM_TOTAL_CHARGE>
0

> <PUBCHEM_HEAVY_ATOM_COUNT>
24

> <PUBCHEM_ATOM_DEF_STEREO_COUNT>
0

> <PUBCHEM_ATOM_UDEF_STEREO_COUNT>
1

> <PUBCHEM_BOND_DEF_STEREO_COUNT>
0

> <PUBCHEM_BOND_UDEF_STEREO_COUNT>
0

> <PUBCHEM_ISOTOPIC_ATOM_COUNT>
0

> <PUBCHEM_COMPONENT_COUNT>
1

> <PUBCHEM_CACTVS_TAUTO_COUNT>
2

> <PUBCHEM_COORDINATE_TYPE>
1
5
255

> <PUBCHEM_BONDANNOTATIONS>
17  18  8
17  19  8
18  20  8
19  21  8
20  22  8
21  22  8
9  13  3

$$$$

