10771
  -OEChem-06261204562D

 30 30  0     0  0  0  0  0  0999 V2000
    3.5010    0.0000    0.0000 Cl  0  0  0  0  0  0  0  0  0  0  0  0
    4.0010    5.1200    0.0000 N   0  0  0  0  0  0  0  0  0  0  0  0
    5.7331    6.1200    0.0000 N   0  0  0  0  0  0  0  0  0  0  0  0
    7.4651    3.1200    0.0000 N   0  0  0  0  0  0  0  0  0  0  0  0
    3.1350    4.6200    0.0000 N   0  0  0  0  0  0  0  0  0  0  0  0
    5.7331    5.1200    0.0000 C   0  0  0  0  0  0  0  0  0  0  0  0
    4.8671    4.6200    0.0000 C   0  0  0  0  0  0  0  0  0  0  0  0
    6.5991    3.6200    0.0000 C   0  0  0  0  0  0  0  0  0  0  0  0
    6.5991    4.6200    0.0000 C   0  0  0  0  0  0  0  0  0  0  0  0
    4.8671    3.6200    0.0000 C   0  0  0  0  0  0  0  0  0  0  0  0
    5.7331    3.1200    0.0000 C   0  0  0  0  0  0  0  0  0  0  0  0
    2.2690    5.1200    0.0000 C   0  0  0  0  0  0  0  0  0  0  0  0
    2.2690    6.1200    0.0000 C   0  0  0  0  0  0  0  0  0  0  0  0
    1.4030    4.6200    0.0000 C   0  0  0  0  0  0  0  0  0  0  0  0
    1.4030    6.6200    0.0000 C   0  0  0  0  0  0  0  0  0  0  0  0
    0.5369    5.1200    0.0000 C   0  0  0  0  0  0  0  0  0  0  0  0
    0.5369    6.1200    0.0000 C   0  0  0  0  0  0  0  0  0  0  0  0
    7.1360    4.9300    0.0000 H   0  0  0  0  0  0  0  0  0  0  0  0
    4.3301    3.3100    0.0000 H   0  0  0  0  0  0  0  0  0  0  0  0
    5.7331    2.5000    0.0000 H   0  0  0  0  0  0  0  0  0  0  0  0
    2.8059    6.4300    0.0000 H   0  0  0  0  0  0  0  0  0  0  0  0
    1.4030    4.0000    0.0000 H   0  0  0  0  0  0  0  0  0  0  0  0
    6.2700    6.4300    0.0000 H   0  0  0  0  0  0  0  0  0  0  0  0
    5.1962    6.4300    0.0000 H   0  0  0  0  0  0  0  0  0  0  0  0
    7.4651    2.5000    0.0000 H   0  0  0  0  0  0  0  0  0  0  0  0
    8.0021    3.4300    0.0000 H   0  0  0  0  0  0  0  0  0  0  0  0
    1.4030    7.2400    0.0000 H   0  0  0  0  0  0  0  0  0  0  0  0
    0.0000    4.8100    0.0000 H   0  0  0  0  0  0  0  0  0  0  0  0
    0.0000    6.4300    0.0000 H   0  0  0  0  0  0  0  0  0  0  0  0
    4.5010    0.0000    0.0000 H   0  0  0  0  0  0  0  0  0  0  0  0
  1 30  1  0  0  0  0
  2  5  2  0  0  0  0
  2  7  1  0  0  0  0
  3  6  1  0  0  0  0
  3 23  1  0  0  0  0
  3 24  1  0  0  0  0
  4  8  1  0  0  0  0
  4 25  1  0  0  0  0
  4 26  1  0  0  0  0
  5 12  1  0  0  0  0
  6  7  2  0  0  0  0
  6  9  1  0  0  0  0
  7 10  1  0  0  0  0
  8  9  2  0  0  0  0
  8 11  1  0  0  0  0
  9 18  1  0  0  0  0
 10 11  2  0  0  0  0
 10 19  1  0  0  0  0
 11 20  1  0  0  0  0
 12 13  2  0  0  0  0
 12 14  1  0  0  0  0
 13 15  1  0  0  0  0
 13 21  1  0  0  0  0
 14 16  2  0  0  0  0
 14 22  1  0  0  0  0
 15 17  2  0  0  0  0
 15 27  1  0  0  0  0
 16 17  1  0  0  0  0
 16 28  1  0  0  0  0
 17 29  1  0  0  0  0
M  END
> <PUBCHEM_COMPOUND_CID>
10771

> <PUBCHEM_COMPOUND_CANONICALIZED>
1

> <PUBCHEM_CACTVS_COMPLEXITY>
235

> <PUBCHEM_CACTVS_HBOND_ACCEPTOR>
4

> <PUBCHEM_CACTVS_HBOND_DONOR>
3

> <PUBCHEM_CACTVS_ROTATABLE_BOND>
2

> <PUBCHEM_CACTVS_SUBSKEYS>
AAADccBzgAAEAAAAAAAAAAAAAAAAAAAAAAAwYAAAAAAAAAABQAAAHAAYAAAACAiBEAAwwIBAAACCACRCQACCAAAgAgAIiAAAdIgIYCKA0dGAIABgkAAIyAcQAAAAAACAAAQAACAAAQAACAAAQAAAAAAAAA==

> <PUBCHEM_IUPAC_OPENEYE_NAME>
4-phenylazobenzene-1,3-diamine hydrochloride

> <PUBCHEM_IUPAC_CAS_NAME>
4-phenyldiazenylbenzene-1,3-diamine hydrochloride

> <PUBCHEM_IUPAC_NAME>
4-phenyldiazenylbenzene-1,3-diamine hydrochloride

> <PUBCHEM_IUPAC_SYSTEMATIC_NAME>
4-phenyldiazenylbenzene-1,3-diamine hydrochloride

> <PUBCHEM_IUPAC_TRADITIONAL_NAME>
(3-amino-4-phenylazo-phenyl)amine hydrochloride

> <PUBCHEM_IUPAC_INCHI>
InChI=1S/C12H12N4.ClH/c13-9-6-7-12(11(14)8-9)16-15-10-4-2-1-3-5-10;/h1-8H,13-14H2;1H

> <PUBCHEM_IUPAC_INCHIKEY>
MCTQNEBFZMBRSQ-UHFFFAOYSA-N

> <PUBCHEM_EXACT_MASS>
248.082874

> <PUBCHEM_MOLECULAR_FORMULA>
C12H13ClN4

> <PUBCHEM_MOLECULAR_WEIGHT>
248.71142

> <PUBCHEM_OPENEYE_CAN_SMILES>
C1=CC=C(C=C1)N=NC2=C(C=C(C=C2)N)N.Cl

> <PUBCHEM_OPENEYE_ISO_SMILES>
C1=CC=C(C=C1)N=NC2=C(C=C(C=C2)N)N.Cl

> <PUBCHEM_CACTVS_TPSA>
76.8

> <PUBCHEM_MONOISOTOPIC_WEIGHT>
248.082874

> <PUBCHEM_TOTAL_CHARGE>
0

> <PUBCHEM_HEAVY_ATOM_COUNT>
17

> <PUBCHEM_ATOM_DEF_STEREO_COUNT>
0

> <PUBCHEM_ATOM_UDEF_STEREO_COUNT>
0

> <PUBCHEM_BOND_DEF_STEREO_COUNT>
0

> <PUBCHEM_BOND_UDEF_STEREO_COUNT>
0

> <PUBCHEM_ISOTOPIC_ATOM_COUNT>
0

> <PUBCHEM_COMPONENT_COUNT>
2

> <PUBCHEM_CACTVS_TAUTO_COUNT>
12

> <PUBCHEM_COORDINATE_TYPE>
1
5
255

> <PUBCHEM_BONDANNOTATIONS>
10  11  8
12  13  8
12  14  8
13  15  8
14  16  8
15  17  8
16  17  8
6  7  8
6  9  8
7  10  8
8  11  8
8  9  8

$$$$

