4916
  -OEChem-06261200252D

 43 44  0     1  0  0  0  0  0999 V2000
    5.4641    1.1550    0.0000 O   0  0  0  0  0  0  0  0  0  0  0  0
    4.5981   -3.3450    0.0000 O   0  0  0  0  0  0  0  0  0  0  0  0
    8.1282   -2.3692    0.0000 O   0  0  0  0  0  0  0  0  0  0  0  0
    3.7320    2.1550    0.0000 N   0  0  0  0  0  0  0  0  0  0  0  0
    6.3580   -2.3797    0.0000 N   0  0  0  0  0  0  0  0  0  0  0  0
    3.7320    1.1550    0.0000 C   0  0  3  0  0  0  0  0  0  0  0  0
    4.5981    0.6550    0.0000 C   0  0  3  0  0  0  0  0  0  0  0  0
    2.8660    0.6550    0.0000 C   0  0  0  0  0  0  0  0  0  0  0  0
    4.5981   -0.3450    0.0000 C   0  0  0  0  0  0  0  0  0  0  0  0
    2.8660    2.6550    0.0000 C   0  0  0  0  0  0  0  0  0  0  0  0
    5.4641   -0.8450    0.0000 C   0  0  0  0  0  0  0  0  0  0  0  0
    2.0000    1.1550    0.0000 C   0  0  0  0  0  0  0  0  0  0  0  0
    3.7320   -0.8450    0.0000 C   0  0  0  0  0  0  0  0  0  0  0  0
    5.4641   -1.8450    0.0000 C   0  0  0  0  0  0  0  0  0  0  0  0
    2.8660    3.6550    0.0000 C   0  0  0  0  0  0  0  0  0  0  0  0
    2.0000    2.1550    0.0000 C   0  0  0  0  0  0  0  0  0  0  0  0
    4.5981   -2.3450    0.0000 C   0  0  0  0  0  0  0  0  0  0  0  0
    6.3580   -0.3103    0.0000 C   0  0  0  0  0  0  0  0  0  0  0  0
    3.7320   -1.8450    0.0000 C   0  0  0  0  0  0  0  0  0  0  0  0
    7.2641   -0.8242    0.0000 C   0  0  0  0  0  0  0  0  0  0  0  0
    7.2641   -1.8658    0.0000 C   0  0  0  0  0  0  0  0  0  0  0  0
    4.4682    1.5800    0.0000 H   0  0  0  0  0  0  0  0  0  0  0  0
    4.5981    1.5050    0.0000 H   0  0  0  0  0  0  0  0  0  0  0  0
    2.4675    0.1801    0.0000 H   0  0  0  0  0  0  0  0  0  0  0  0
    3.2646    0.1801    0.0000 H   0  0  0  0  0  0  0  0  0  0  0  0
    4.2690    2.4650    0.0000 H   0  0  0  0  0  0  0  0  0  0  0  0
    2.8660    2.0350    0.0000 H   0  0  0  0  0  0  0  0  0  0  0  0
    2.3100    1.6919    0.0000 H   0  0  0  0  0  0  0  0  0  0  0  0
    1.4631    1.4650    0.0000 H   0  0  0  0  0  0  0  0  0  0  0  0
    1.6900    0.6181    0.0000 H   0  0  0  0  0  0  0  0  0  0  0  0
    3.1951   -0.5350    0.0000 H   0  0  0  0  0  0  0  0  0  0  0  0
    3.4860    3.6550    0.0000 H   0  0  0  0  0  0  0  0  0  0  0  0
    2.8660    4.2750    0.0000 H   0  0  0  0  0  0  0  0  0  0  0  0
    2.2460    3.6550    0.0000 H   0  0  0  0  0  0  0  0  0  0  0  0
    1.6900    2.6919    0.0000 H   0  0  0  0  0  0  0  0  0  0  0  0
    1.4631    1.8450    0.0000 H   0  0  0  0  0  0  0  0  0  0  0  0
    2.3100    1.6181    0.0000 H   0  0  0  0  0  0  0  0  0  0  0  0
    5.4641    1.7750    0.0000 H   0  0  0  0  0  0  0  0  0  0  0  0
    6.3509    0.3096    0.0000 H   0  0  0  0  0  0  0  0  0  0  0  0
    3.1951   -2.1550    0.0000 H   0  0  0  0  0  0  0  0  0  0  0  0
    6.3509   -2.9996    0.0000 H   0  0  0  0  0  0  0  0  0  0  0  0
    7.7998   -0.5121    0.0000 H   0  0  0  0  0  0  0  0  0  0  0  0
    4.0611   -3.6550    0.0000 H   0  0  0  0  0  0  0  0  0  0  0  0
  1  7  1  0  0  0  0
  1 38  1  0  0  0  0
  2 17  1  0  0  0  0
  2 43  1  0  0  0  0
  3 21  2  0  0  0  0
  4  6  1  0  0  0  0
  4 10  1  0  0  0  0
  4 26  1  0  0  0  0
  5 14  1  0  0  0  0
  5 21  1  0  0  0  0
  5 41  1  0  0  0  0
  6  7  1  0  0  0  0
  6  8  1  0  0  0  0
  6 22  1  0  0  0  0
  7  9  1  0  0  0  0
  7 23  1  0  0  0  0
  8 12  1  0  0  0  0
  8 24  1  0  0  0  0
  8 25  1  0  0  0  0
  9 11  2  0  0  0  0
  9 13  1  0  0  0  0
 10 15  1  0  0  0  0
 10 16  1  0  0  0  0
 10 27  1  0  0  0  0
 11 14  1  0  0  0  0
 11 18  1  0  0  0  0
 12 28  1  0  0  0  0
 12 29  1  0  0  0  0
 12 30  1  0  0  0  0
 13 19  2  0  0  0  0
 13 31  1  0  0  0  0
 14 17  2  0  0  0  0
 15 32  1  0  0  0  0
 15 33  1  0  0  0  0
 15 34  1  0  0  0  0
 16 35  1  0  0  0  0
 16 36  1  0  0  0  0
 16 37  1  0  0  0  0
 17 19  1  0  0  0  0
 18 20  2  0  0  0  0
 18 39  1  0  0  0  0
 19 40  1  0  0  0  0
 20 21  1  0  0  0  0
 20 42  1  0  0  0  0
M  END
> <PUBCHEM_COMPOUND_CID>
4916

> <PUBCHEM_COMPOUND_CANONICALIZED>
1

> <PUBCHEM_CACTVS_COMPLEXITY>
397

> <PUBCHEM_CACTVS_HBOND_ACCEPTOR>
4

> <PUBCHEM_CACTVS_HBOND_DONOR>
4

> <PUBCHEM_CACTVS_ROTATABLE_BOND>
5

> <PUBCHEM_CACTVS_SUBSKEYS>
AAADceB7MAAAAAAAAAAAAAAAAAAAAAAAAAAwQAAAAAAAAACBAAAAHgAQCAAADDzhmAYyxoLAAgCIAiVSUACCAAAhIAAIiIAPTMgKNiLSkZOEcAhk1BHY2Yew4PQOoAABQAASEABAAAKAACQgAAAAAAAAAA==

> <PUBCHEM_IUPAC_OPENEYE_NAME>
8-hydroxy-5-[1-hydroxy-2-(isopropylamino)butyl]-1H-quinolin-2-one

> <PUBCHEM_IUPAC_CAS_NAME>
8-hydroxy-5-[1-hydroxy-2-(propan-2-ylamino)butyl]-1H-quinolin-2-one

> <PUBCHEM_IUPAC_NAME>
8-hydroxy-5-[1-hydroxy-2-(propan-2-ylamino)butyl]-1H-quinolin-2-one

> <PUBCHEM_IUPAC_SYSTEMATIC_NAME>
8-oxidanyl-5-[1-oxidanyl-2-(propan-2-ylamino)butyl]-1H-quinolin-2-one

> <PUBCHEM_IUPAC_TRADITIONAL_NAME>
8-hydroxy-5-[1-hydroxy-2-(isopropylamino)butyl]carbostyril

> <PUBCHEM_IUPAC_INCHI>
InChI=1S/C16H22N2O3/c1-4-12(17-9(2)3)16(21)11-5-7-13(19)15-10(11)6-8-14(20)18-15/h5-9,12,16-17,19,21H,4H2,1-3H3,(H,18,20)

> <PUBCHEM_IUPAC_INCHIKEY>
FKNXQNWAXFXVNW-UHFFFAOYSA-N

> <PUBCHEM_XLOGP3_AA>
1.5

> <PUBCHEM_EXACT_MASS>
290.163043

> <PUBCHEM_MOLECULAR_FORMULA>
C16H22N2O3

> <PUBCHEM_MOLECULAR_WEIGHT>
290.35748

> <PUBCHEM_OPENEYE_CAN_SMILES>
CCC(C(C1=C2C=CC(=O)NC2=C(C=C1)O)O)NC(C)C

> <PUBCHEM_OPENEYE_ISO_SMILES>
CCC(C(C1=C2C=CC(=O)NC2=C(C=C1)O)O)NC(C)C

> <PUBCHEM_CACTVS_TPSA>
81.6

> <PUBCHEM_MONOISOTOPIC_WEIGHT>
290.163043

> <PUBCHEM_TOTAL_CHARGE>
0

> <PUBCHEM_HEAVY_ATOM_COUNT>
21

> <PUBCHEM_ATOM_DEF_STEREO_COUNT>
0

> <PUBCHEM_ATOM_UDEF_STEREO_COUNT>
2

> <PUBCHEM_BOND_DEF_STEREO_COUNT>
0

> <PUBCHEM_BOND_UDEF_STEREO_COUNT>
0

> <PUBCHEM_ISOTOPIC_ATOM_COUNT>
0

> <PUBCHEM_COMPONENT_COUNT>
1

> <PUBCHEM_CACTVS_TAUTO_COUNT>
6

> <PUBCHEM_COORDINATE_TYPE>
1
5
255

> <PUBCHEM_BONDANNOTATIONS>
11  14  8
11  18  8
13  19  8
14  17  8
17  19  8
18  20  8
20  21  8
5  14  8
5  21  8
6  22  3
7  23  3
9  11  8
9  13  8

$$$$

