582715
  -OEChem-06241222432D

 63 64  0     1  0  0  0  0  0999 V2000
    5.5637    2.1530    0.0000 O   0  0  0  0  0  0  0  0  0  0  0  0
    7.2566   -1.0304    0.0000 O   0  0  0  0  0  0  0  0  0  0  0  0
    4.2746    0.9963    0.0000 O   0  0  0  0  0  0  0  0  0  0  0  0
    7.9244   -1.7747    0.0000 O   0  0  0  0  0  0  0  0  0  0  0  0
    5.6103   -0.4923    0.0000 N   0  0  0  0  0  0  0  0  0  0  0  0
    6.6353   -2.9314    0.0000 N   0  0  0  0  0  0  0  0  0  0  0  0
    4.6783   -4.9533    0.0000 N   0  0  0  0  0  0  0  0  0  0  0  0
    6.8994    0.6644    0.0000 C   0  0  0  0  0  0  0  0  0  0  0  0
    5.9209    0.4582    0.0000 C   0  0  3  0  0  0  0  0  0  0  0  0
    7.2101    1.6149    0.0000 C   0  0  0  0  0  0  0  0  0  0  0  0
    5.9674   -2.1871    0.0000 C   0  0  3  0  0  0  0  0  0  0  0  0
    4.9889   -2.3934    0.0000 C   0  0  0  0  0  0  0  0  0  0  0  0
    4.6783   -3.3439    0.0000 C   0  0  0  0  0  0  0  0  0  0  0  0
    6.2781   -1.2366    0.0000 C   0  0  0  0  0  0  0  0  0  0  0  0
    8.1886    1.8212    0.0000 C   0  0  0  0  0  0  0  0  0  0  0  0
    6.5422    2.3592    0.0000 C   0  0  0  0  0  0  0  0  0  0  0  0
    5.2531    1.2025    0.0000 C   0  0  0  0  0  0  0  0  0  0  0  0
    3.7320   -3.6486    0.0000 C   0  0  0  0  0  0  0  0  0  0  0  0
    3.7320   -4.6486    0.0000 C   0  0  0  0  0  0  0  0  0  0  0  0
    5.2619   -4.1486    0.0000 C   0  0  0  0  0  0  0  0  0  0  0  0
    2.8660   -3.1486    0.0000 C   0  0  0  0  0  0  0  0  0  0  0  0
    4.8959    2.8973    0.0000 C   0  0  0  0  0  0  0  0  0  0  0  0
    2.8660   -5.1486    0.0000 C   0  0  0  0  0  0  0  0  0  0  0  0
    7.6138   -2.7252    0.0000 C   0  0  0  0  0  0  0  0  0  0  0  0
    5.2066    3.8478    0.0000 C   0  0  0  0  0  0  0  0  0  0  0  0
    2.0000   -3.6486    0.0000 C   0  0  0  0  0  0  0  0  0  0  0  0
    2.0000   -4.6486    0.0000 C   0  0  0  0  0  0  0  0  0  0  0  0
    4.5387    4.5922    0.0000 C   0  0  0  0  0  0  0  0  0  0  0  0
    8.2816   -3.4695    0.0000 C   0  0  0  0  0  0  0  0  0  0  0  0
    4.8494    5.5427    0.0000 C   0  0  0  0  0  0  0  0  0  0  0  0
    6.9200    0.0448    0.0000 H   0  0  0  0  0  0  0  0  0  0  0  0
    7.5132    0.5771    0.0000 H   0  0  0  0  0  0  0  0  0  0  0  0
    6.3350   -0.0033    0.0000 H   0  0  0  0  0  0  0  0  0  0  0  0
    7.4027    2.2043    0.0000 H   0  0  0  0  0  0  0  0  0  0  0  0
    5.7748   -2.7765    0.0000 H   0  0  0  0  0  0  0  0  0  0  0  0
    4.9684   -1.7737    0.0000 H   0  0  0  0  0  0  0  0  0  0  0  0
    4.3751   -2.3060    0.0000 H   0  0  0  0  0  0  0  0  0  0  0  0
    5.0036   -0.6202    0.0000 H   0  0  0  0  0  0  0  0  0  0  0  0
    8.3164    1.2145    0.0000 H   0  0  0  0  0  0  0  0  0  0  0  0
    8.7953    1.9490    0.0000 H   0  0  0  0  0  0  0  0  0  0  0  0
    8.0607    2.4278    0.0000 H   0  0  0  0  0  0  0  0  0  0  0  0
    7.0037    2.7733    0.0000 H   0  0  0  0  0  0  0  0  0  0  0  0
    6.1282    2.8207    0.0000 H   0  0  0  0  0  0  0  0  0  0  0  0
    6.0808    1.9452    0.0000 H   0  0  0  0  0  0  0  0  0  0  0  0
    6.4427   -3.5208    0.0000 H   0  0  0  0  0  0  0  0  0  0  0  0
    5.8819   -4.1486    0.0000 H   0  0  0  0  0  0  0  0  0  0  0  0
    4.8709   -5.5427    0.0000 H   0  0  0  0  0  0  0  0  0  0  0  0
    2.8660   -2.5286    0.0000 H   0  0  0  0  0  0  0  0  0  0  0  0
    4.3490    3.1893    0.0000 H   0  0  0  0  0  0  0  0  0  0  0  0
    4.5133    2.4094    0.0000 H   0  0  0  0  0  0  0  0  0  0  0  0
    2.8660   -5.7686    0.0000 H   0  0  0  0  0  0  0  0  0  0  0  0
    5.7535    3.5558    0.0000 H   0  0  0  0  0  0  0  0  0  0  0  0
    5.5891    4.3358    0.0000 H   0  0  0  0  0  0  0  0  0  0  0  0
    1.4631   -3.3386    0.0000 H   0  0  0  0  0  0  0  0  0  0  0  0
    1.4631   -4.9586    0.0000 H   0  0  0  0  0  0  0  0  0  0  0  0
    3.9918    4.8842    0.0000 H   0  0  0  0  0  0  0  0  0  0  0  0
    4.1562    4.1042    0.0000 H   0  0  0  0  0  0  0  0  0  0  0  0
    7.8202   -3.8836    0.0000 H   0  0  0  0  0  0  0  0  0  0  0  0
    8.6957   -3.9310    0.0000 H   0  0  0  0  0  0  0  0  0  0  0  0
    8.7431   -3.0555    0.0000 H   0  0  0  0  0  0  0  0  0  0  0  0
    5.4387    5.3501    0.0000 H   0  0  0  0  0  0  0  0  0  0  0  0
    5.0420    6.1320    0.0000 H   0  0  0  0  0  0  0  0  0  0  0  0
    4.2600    5.7353    0.0000 H   0  0  0  0  0  0  0  0  0  0  0  0
  1 17  1  0  0  0  0
  1 22  1  0  0  0  0
  2 14  2  0  0  0  0
  3 17  2  0  0  0  0
  4 24  2  0  0  0  0
  5  9  1  0  0  0  0
  5 14  1  0  0  0  0
  5 38  1  0  0  0  0
  6 11  1  0  0  0  0
  6 24  1  0  0  0  0
  6 45  1  0  0  0  0
  7 19  1  0  0  0  0
  7 20  1  0  0  0  0
  7 47  1  0  0  0  0
  8  9  1  0  0  0  0
  8 10  1  0  0  0  0
  8 31  1  0  0  0  0
  8 32  1  0  0  0  0
  9 17  1  0  0  0  0
  9 33  1  0  0  0  0
 10 15  1  0  0  0  0
 10 16  1  0  0  0  0
 10 34  1  0  0  0  0
 11 12  1  0  0  0  0
 11 14  1  0  0  0  0
 11 35  1  0  0  0  0
 12 13  1  0  0  0  0
 12 36  1  0  0  0  0
 12 37  1  0  0  0  0
 13 18  1  0  0  0  0
 13 20  2  0  0  0  0
 15 39  1  0  0  0  0
 15 40  1  0  0  0  0
 15 41  1  0  0  0  0
 16 42  1  0  0  0  0
 16 43  1  0  0  0  0
 16 44  1  0  0  0  0
 18 19  1  0  0  0  0
 18 21  2  0  0  0  0
 19 23  2  0  0  0  0
 20 46  1  0  0  0  0
 21 26  1  0  0  0  0
 21 48  1  0  0  0  0
 22 25  1  0  0  0  0
 22 49  1  0  0  0  0
 22 50  1  0  0  0  0
 23 27  1  0  0  0  0
 23 51  1  0  0  0  0
 24 29  1  0  0  0  0
 25 28  1  0  0  0  0
 25 52  1  0  0  0  0
 25 53  1  0  0  0  0
 26 27  2  0  0  0  0
 26 54  1  0  0  0  0
 27 55  1  0  0  0  0
 28 30  1  0  0  0  0
 28 56  1  0  0  0  0
 28 57  1  0  0  0  0
 29 58  1  0  0  0  0
 29 59  1  0  0  0  0
 29 60  1  0  0  0  0
 30 61  1  0  0  0  0
 30 62  1  0  0  0  0
 30 63  1  0  0  0  0
M  END
> <PUBCHEM_COMPOUND_CID>
582715

> <PUBCHEM_COMPOUND_CANONICALIZED>
1

> <PUBCHEM_CACTVS_COMPLEXITY>
581

> <PUBCHEM_CACTVS_HBOND_ACCEPTOR>
4

> <PUBCHEM_CACTVS_HBOND_DONOR>
3

> <PUBCHEM_CACTVS_ROTATABLE_BOND>
12

> <PUBCHEM_CACTVS_SUBSKEYS>
AAADcfB7OAAAAAAAAAAAAAAAAAAAAWAAAAAwAAAAAAAAAFgB8AAAHgAQAAAADSjhngY+yPLJlACoAzX3XACCgCAxAiAI2aG4ZJgKYPLAkbGXIAhklgDYyAeYicCOgAAAAAACAAAAAAAAAAQAAAAAAAAAAA==

> <PUBCHEM_IUPAC_OPENEYE_NAME>
butyl 2-[[2-acetamido-3-(1H-indol-3-yl)propanoyl]amino]-4-methyl-pentanoate

> <PUBCHEM_IUPAC_CAS_NAME>
2-[[2-acetamido-3-(1H-indol-3-yl)-1-oxopropyl]amino]-4-methylpentanoic acid butyl ester

> <PUBCHEM_IUPAC_NAME>
butyl 2-[[2-acetamido-3-(1H-indol-3-yl)propanoyl]amino]-4-methylpentanoate

> <PUBCHEM_IUPAC_SYSTEMATIC_NAME>
butyl 2-[[2-acetamido-3-(1H-indol-3-yl)propanoyl]amino]-4-methyl-pentanoate

> <PUBCHEM_IUPAC_TRADITIONAL_NAME>
2-[[2-acetamido-3-(1H-indol-3-yl)propanoyl]amino]-4-methyl-valeric acid butyl ester

> <PUBCHEM_IUPAC_INCHI>
InChI=1S/C23H33N3O4/c1-5-6-11-30-23(29)21(12-15(2)3)26-22(28)20(25-16(4)27)13-17-14-24-19-10-8-7-9-18(17)19/h7-10,14-15,20-21,24H,5-6,11-13H2,1-4H3,(H,25,27)(H,26,28)

> <PUBCHEM_IUPAC_INCHIKEY>
HUNRTEOZDNFWOF-UHFFFAOYSA-N

> <PUBCHEM_XLOGP3>
3.3

> <PUBCHEM_EXACT_MASS>
415.247107

> <PUBCHEM_MOLECULAR_FORMULA>
C23H33N3O4

> <PUBCHEM_MOLECULAR_WEIGHT>
415.52582

> <PUBCHEM_OPENEYE_CAN_SMILES>
CCCCOC(=O)C(CC(C)C)NC(=O)C(CC1=CNC2=CC=CC=C21)NC(=O)C

> <PUBCHEM_OPENEYE_ISO_SMILES>
CCCCOC(=O)C(CC(C)C)NC(=O)C(CC1=CNC2=CC=CC=C21)NC(=O)C

> <PUBCHEM_CACTVS_TPSA>
100

> <PUBCHEM_MONOISOTOPIC_WEIGHT>
415.247107

> <PUBCHEM_TOTAL_CHARGE>
0

> <PUBCHEM_HEAVY_ATOM_COUNT>
30

> <PUBCHEM_ATOM_DEF_STEREO_COUNT>
0

> <PUBCHEM_ATOM_UDEF_STEREO_COUNT>
2

> <PUBCHEM_BOND_DEF_STEREO_COUNT>
0

> <PUBCHEM_BOND_UDEF_STEREO_COUNT>
0

> <PUBCHEM_ISOTOPIC_ATOM_COUNT>
0

> <PUBCHEM_COMPONENT_COUNT>
1

> <PUBCHEM_CACTVS_TAUTO_COUNT>
4

> <PUBCHEM_COORDINATE_TYPE>
1
5
255

> <PUBCHEM_BONDANNOTATIONS>
11  12  3
13  18  8
13  20  8
18  19  8
18  21  8
19  23  8
21  26  8
23  27  8
26  27  8
7  19  8
7  20  8
9  8  3

$$$$

