12451
  -OEChem-06261206572D

 82 85  0     1  0  0  0  0  0999 V2000
    4.5961   -3.6598    0.0000 O   0  0  0  0  0  0  0  0  0  0  0  0
    3.7359   -2.1564    0.0000 O   0  0  0  0  0  0  0  0  0  0  0  0
    9.9892   -0.6074    0.0000 C   0  0  3  0  0  0  0  0  0  0  0  0
    9.9892   -1.6074    0.0000 C   0  0  2  0  0  0  0  0  0  0  0  0
    9.1232   -2.1074    0.0000 C   0  0  3  0  0  0  0  0  0  0  0  0
    8.2572   -1.6074    0.0000 C   0  0  1  0  0  0  0  0  0  0  0  0
   10.9354   -0.3027    0.0000 C   0  0  2  0  0  0  0  0  0  0  0  0
    9.1232   -0.1074    0.0000 C   0  0  0  0  0  0  0  0  0  0  0  0
    7.3472   -2.1143    0.0000 C   0  0  3  0  0  0  0  0  0  0  0  0
   10.9354   -1.9122    0.0000 C   0  0  0  0  0  0  0  0  0  0  0  0
    8.2572   -0.6074    0.0000 C   0  0  0  0  0  0  0  0  0  0  0  0
   11.5190   -1.1074    0.0000 C   0  0  0  0  0  0  0  0  0  0  0  0
    9.1392   -3.1489    0.0000 C   0  0  0  0  0  0  0  0  0  0  0  0
   11.2461    0.6478    0.0000 C   0  0  3  0  0  0  0  0  0  0  0  0
    9.9892    0.3926    0.0000 C   0  0  0  0  0  0  0  0  0  0  0  0
    7.3391   -3.1559    0.0000 C   0  0  0  0  0  0  0  0  0  0  0  0
    6.4203   -1.5502    0.0000 C   0  0  0  0  0  0  0  0  0  0  0  0
    8.2412   -3.6767    0.0000 C   0  0  0  0  0  0  0  0  0  0  0  0
    7.3549   -1.1143    0.0000 C   0  0  0  0  0  0  0  0  0  0  0  0
    6.4037   -3.7056    0.0000 C   0  0  0  0  0  0  0  0  0  0  0  0
    5.4724   -2.0781    0.0000 C   0  0  0  0  0  0  0  0  0  0  0  0
   12.2246    0.8540    0.0000 C   0  0  0  0  0  0  0  0  0  0  0  0
    5.4641   -3.1631    0.0000 C   0  0  2  0  0  0  0  0  0  0  0  0
   10.5783    1.3921    0.0000 C   0  0  0  0  0  0  0  0  0  0  0  0
   12.5353    1.8046    0.0000 C   0  0  0  0  0  0  0  0  0  0  0  0
   13.5138    2.0108    0.0000 C   0  0  0  0  0  0  0  0  0  0  0  0
   13.8244    2.9613    0.0000 C   0  0  0  0  0  0  0  0  0  0  0  0
    3.7320   -3.1564    0.0000 C   0  0  0  0  0  0  0  0  0  0  0  0
   14.8029    3.1675    0.0000 C   0  0  0  0  0  0  0  0  0  0  0  0
   13.1566    3.7056    0.0000 C   0  0  0  0  0  0  0  0  0  0  0  0
    2.8641   -3.6531    0.0000 C   0  0  0  0  0  0  0  0  0  0  0  0
    2.0000   -3.1498    0.0000 C   0  0  0  0  0  0  0  0  0  0  0  0
   10.0792   -2.4527    0.0000 H   0  0  0  0  0  0  0  0  0  0  0  0
    9.8626   -2.5267    0.0000 H   0  0  0  0  0  0  0  0  0  0  0  0
    8.9933   -1.1824    0.0000 H   0  0  0  0  0  0  0  0  0  0  0  0
   11.5479   -0.2065    0.0000 H   0  0  0  0  0  0  0  0  0  0  0  0
    9.5217    0.3675    0.0000 H   0  0  0  0  0  0  0  0  0  0  0  0
    8.7247    0.3675    0.0000 H   0  0  0  0  0  0  0  0  0  0  0  0
   10.6844   -2.4791    0.0000 H   0  0  0  0  0  0  0  0  0  0  0  0
   11.4728   -2.2214    0.0000 H   0  0  0  0  0  0  0  0  0  0  0  0
    8.0451   -0.0248    0.0000 H   0  0  0  0  0  0  0  0  0  0  0  0
    7.6466   -0.7151    0.0000 H   0  0  0  0  0  0  0  0  0  0  0  0
   11.9799   -1.5222    0.0000 H   0  0  0  0  0  0  0  0  0  0  0  0
   11.9799   -0.6927    0.0000 H   0  0  0  0  0  0  0  0  0  0  0  0
    9.3573   -3.7293    0.0000 H   0  0  0  0  0  0  0  0  0  0  0  0
    9.7484   -3.0334    0.0000 H   0  0  0  0  0  0  0  0  0  0  0  0
   10.4144    0.4725    0.0000 H   0  0  0  0  0  0  0  0  0  0  0  0
   10.6092    0.3926    0.0000 H   0  0  0  0  0  0  0  0  0  0  0  0
    9.9892    1.0126    0.0000 H   0  0  0  0  0  0  0  0  0  0  0  0
    9.3692    0.3926    0.0000 H   0  0  0  0  0  0  0  0  0  0  0  0
    6.8285   -1.0835    0.0000 H   0  0  0  0  0  0  0  0  0  0  0  0
    6.0304   -1.0682    0.0000 H   0  0  0  0  0  0  0  0  0  0  0  0
    8.2436   -4.2967    0.0000 H   0  0  0  0  0  0  0  0  0  0  0  0
    7.9748   -1.1191    0.0000 H   0  0  0  0  0  0  0  0  0  0  0  0
    7.3596   -0.4943    0.0000 H   0  0  0  0  0  0  0  0  0  0  0  0
    6.7349   -1.1095    0.0000 H   0  0  0  0  0  0  0  0  0  0  0  0
    6.0064   -4.1816    0.0000 H   0  0  0  0  0  0  0  0  0  0  0  0
    6.8047   -4.1785    0.0000 H   0  0  0  0  0  0  0  0  0  0  0  0
    5.2679   -1.4929    0.0000 H   0  0  0  0  0  0  0  0  0  0  0  0
    4.8608   -2.1795    0.0000 H   0  0  0  0  0  0  0  0  0  0  0  0
   12.2452    0.2344    0.0000 H   0  0  0  0  0  0  0  0  0  0  0  0
   12.8384    0.7667    0.0000 H   0  0  0  0  0  0  0  0  0  0  0  0
    4.9289   -2.8500    0.0000 H   0  0  0  0  0  0  0  0  0  0  0  0
   11.0397    1.8062    0.0000 H   0  0  0  0  0  0  0  0  0  0  0  0
   10.1642    1.8536    0.0000 H   0  0  0  0  0  0  0  0  0  0  0  0
   10.1168    0.9781    0.0000 H   0  0  0  0  0  0  0  0  0  0  0  0
   12.5147    2.4242    0.0000 H   0  0  0  0  0  0  0  0  0  0  0  0
   11.9214    1.8919    0.0000 H   0  0  0  0  0  0  0  0  0  0  0  0
   13.5343    1.3911    0.0000 H   0  0  0  0  0  0  0  0  0  0  0  0
   14.1276    1.9234    0.0000 H   0  0  0  0  0  0  0  0  0  0  0  0
   14.0170    3.5506    0.0000 H   0  0  0  0  0  0  0  0  0  0  0  0
   14.9308    2.5608    0.0000 H   0  0  0  0  0  0  0  0  0  0  0  0
   15.4096    3.2954    0.0000 H   0  0  0  0  0  0  0  0  0  0  0  0
   14.6751    3.7742    0.0000 H   0  0  0  0  0  0  0  0  0  0  0  0
   13.6181    4.1197    0.0000 H   0  0  0  0  0  0  0  0  0  0  0  0
   12.7425    4.1671    0.0000 H   0  0  0  0  0  0  0  0  0  0  0  0
   12.6951    3.2915    0.0000 H   0  0  0  0  0  0  0  0  0  0  0  0
    2.4637   -4.1265    0.0000 H   0  0  0  0  0  0  0  0  0  0  0  0
    3.2608   -4.1296    0.0000 H   0  0  0  0  0  0  0  0  0  0  0  0
    2.3121   -2.6140    0.0000 H   0  0  0  0  0  0  0  0  0  0  0  0
    1.4643   -2.8377    0.0000 H   0  0  0  0  0  0  0  0  0  0  0  0
    1.6879   -3.6855    0.0000 H   0  0  0  0  0  0  0  0  0  0  0  0
 23  1  1  1  0  0  0
  1 28  1  0  0  0  0
  2 28  2  0  0  0  0
  3  4  1  0  0  0  0
  3  7  1  0  0  0  0
  3  8  1  0  0  0  0
  3 15  1  0  0  0  0
  4  5  1  0  0  0  0
  4 10  1  0  0  0  0
  4 33  1  6  0  0  0
  5  6  1  0  0  0  0
  5 13  1  0  0  0  0
  5 34  1  0  0  0  0
  6  9  1  0  0  0  0
  6 11  1  0  0  0  0
  6 35  1  6  0  0  0
  7 12  1  0  0  0  0
  7 14  1  1  0  0  0
  7 36  1  0  0  0  0
  8 11  1  0  0  0  0
  8 37  1  0  0  0  0
  8 38  1  0  0  0  0
  9 16  1  0  0  0  0
  9 17  1  0  0  0  0
  9 19  1  0  0  0  0
 10 12  1  0  0  0  0
 10 39  1  0  0  0  0
 10 40  1  0  0  0  0
 11 41  1  0  0  0  0
 11 42  1  0  0  0  0
 12 43  1  0  0  0  0
 12 44  1  0  0  0  0
 13 18  1  0  0  0  0
 13 45  1  0  0  0  0
 13 46  1  0  0  0  0
 14 22  1  0  0  0  0
 14 24  1  0  0  0  0
 14 47  1  0  0  0  0
 15 48  1  0  0  0  0
 15 49  1  0  0  0  0
 15 50  1  0  0  0  0
 16 18  2  0  0  0  0
 16 20  1  0  0  0  0
 17 21  1  0  0  0  0
 17 51  1  0  0  0  0
 17 52  1  0  0  0  0
 18 53  1  0  0  0  0
 19 54  1  0  0  0  0
 19 55  1  0  0  0  0
 19 56  1  0  0  0  0
 20 23  1  0  0  0  0
 20 57  1  0  0  0  0
 20 58  1  0  0  0  0
 21 23  1  0  0  0  0
 21 59  1  0  0  0  0
 21 60  1  0  0  0  0
 22 25  1  0  0  0  0
 22 61  1  0  0  0  0
 22 62  1  0  0  0  0
 23 63  1  0  0  0  0
 24 64  1  0  0  0  0
 24 65  1  0  0  0  0
 24 66  1  0  0  0  0
 25 26  1  0  0  0  0
 25 67  1  0  0  0  0
 25 68  1  0  0  0  0
 26 27  1  0  0  0  0
 26 69  1  0  0  0  0
 26 70  1  0  0  0  0
 27 29  1  0  0  0  0
 27 30  1  0  0  0  0
 27 71  1  0  0  0  0
 28 31  1  0  0  0  0
 29 72  1  0  0  0  0
 29 73  1  0  0  0  0
 29 74  1  0  0  0  0
 30 75  1  0  0  0  0
 30 76  1  0  0  0  0
 30 77  1  0  0  0  0
 31 32  1  0  0  0  0
 31 78  1  0  0  0  0
 31 79  1  0  0  0  0
 32 80  1  0  0  0  0
 32 81  1  0  0  0  0
 32 82  1  0  0  0  0
M  END
> <PUBCHEM_COMPOUND_CID>
12451

> <PUBCHEM_COMPOUND_CANONICALIZED>
1

> <PUBCHEM_CACTVS_COMPLEXITY>
708

> <PUBCHEM_CACTVS_HBOND_ACCEPTOR>
2

> <PUBCHEM_CACTVS_HBOND_DONOR>
0

> <PUBCHEM_CACTVS_ROTATABLE_BOND>
8

> <PUBCHEM_CACTVS_SUBSKEYS>
AAADcfB4MAAAAAAAAAAAAAAAAAAAAYAAAAAwYIAAAAAAAGCAAAAAGgAAAAAADxSggAICCAAABACIAiDSCAAAAAAgAAAACAEAAAgAAAIAAQACAAAEwAAIAAOAwPAPgAAAAAAAAADAAAQAACAAAQAACAAAAA==

> <PUBCHEM_IUPAC_OPENEYE_NAME>
[(3S,9S,14S,17R)-17-(1,5-dimethylhexyl)-10,13-dimethyl-2,3,4,7,8,9,11,12,14,15,16,17-dodecahydro-1H-cyclopenta[a]phenanthren-3-yl] propanoate

> <PUBCHEM_IUPAC_CAS_NAME>
propanoic acid [(3S,9S,14S,17R)-10,13-dimethyl-17-(6-methylheptan-2-yl)-2,3,4,7,8,9,11,12,14,15,16,17-dodecahydro-1H-cyclopenta[a]phenanthren-3-yl] ester

> <PUBCHEM_IUPAC_NAME>
[(3S,9S,14S,17R)-10,13-dimethyl-17-(6-methylheptan-2-yl)-2,3,4,7,8,9,11,12,14,15,16,17-dodecahydro-1H-cyclopenta[a]phenanthren-3-yl] propanoate

> <PUBCHEM_IUPAC_SYSTEMATIC_NAME>
[(3S,9S,14S,17R)-10,13-dimethyl-17-(6-methylheptan-2-yl)-2,3,4,7,8,9,11,12,14,15,16,17-dodecahydro-1H-cyclopenta[a]phenanthren-3-yl] propanoate

> <PUBCHEM_IUPAC_TRADITIONAL_NAME>
propionic acid [(3S,9S,14S,17R)-17-(1,5-dimethylhexyl)-10,13-dimethyl-2,3,4,7,8,9,11,12,14,15,16,17-dodecahydro-1H-cyclopenta[a]phenanthren-3-yl] ester

> <PUBCHEM_IUPAC_INCHI>
InChI=1S/C30H50O2/c1-7-28(31)32-23-15-17-29(5)22(19-23)11-12-24-26-14-13-25(21(4)10-8-9-20(2)3)30(26,6)18-16-27(24)29/h11,20-21,23-27H,7-10,12-19H2,1-6H3/t21?,23-,24?,25+,26-,27-,29?,30?/m0/s1

> <PUBCHEM_IUPAC_INCHIKEY>
CCORPVHYPHHRKB-AOZQTVIPSA-N

> <PUBCHEM_XLOGP3_AA>
9.6

> <PUBCHEM_EXACT_MASS>
442.381081

> <PUBCHEM_MOLECULAR_FORMULA>
C30H50O2

> <PUBCHEM_MOLECULAR_WEIGHT>
442.7168

> <PUBCHEM_OPENEYE_CAN_SMILES>
CCC(=O)OC1CCC2(C3CCC4(C(C3CC=C2C1)CCC4C(C)CCCC(C)C)C)C

> <PUBCHEM_OPENEYE_ISO_SMILES>
CCC(=O)O[C@H]1CCC2([C@H]3CCC4([C@H](C3CC=C2C1)CC[C@@H]4C(C)CCCC(C)C)C)C

> <PUBCHEM_CACTVS_TPSA>
26.3

> <PUBCHEM_MONOISOTOPIC_WEIGHT>
442.381081

> <PUBCHEM_TOTAL_CHARGE>
0

> <PUBCHEM_HEAVY_ATOM_COUNT>
32

> <PUBCHEM_ATOM_DEF_STEREO_COUNT>
4

> <PUBCHEM_ATOM_UDEF_STEREO_COUNT>
4

> <PUBCHEM_BOND_DEF_STEREO_COUNT>
0

> <PUBCHEM_BOND_UDEF_STEREO_COUNT>
0

> <PUBCHEM_ISOTOPIC_ATOM_COUNT>
0

> <PUBCHEM_COMPONENT_COUNT>
1

> <PUBCHEM_CACTVS_TAUTO_COUNT>
1

> <PUBCHEM_COORDINATE_TYPE>
1
5
255

> <PUBCHEM_BONDANNOTATIONS>
23  1  5
14  47  3
3  15  3
4  33  6
5  34  3
6  35  6
7  14  5
9  19  3

$$$$

