13179
  -OEChem-06261207512D

 19 18  0     0  0  0  0  0  0999 V2000
    6.8671    1.0950    0.0000 O   0  0  0  0  0  0  0  0  0  0  0  0
    4.2690   -1.4050    0.0000 O   0  0  0  0  0  0  0  0  0  0  0  0
    6.0010   -0.4050    0.0000 N   0  0  0  0  0  0  0  0  0  0  0  0
    3.4030    0.0950    0.0000 N   0  0  0  0  0  0  0  0  0  0  0  0
    2.5369   -0.4050    0.0000 N   0  0  0  0  0  0  0  0  0  0  0  0
    8.5991    0.0950    0.0000 N   0  3  0  0  0  0  0  0  0  0  0  0
    9.4651    0.5950    0.0000 N   0  0  0  0  0  0  0  0  0  0  0  0
    5.1350    0.0950    0.0000 C   0  0  0  0  0  0  0  0  0  0  0  0
    4.2690   -0.4050    0.0000 C   0  0  0  0  0  0  0  0  0  0  0  0
    6.8671    0.0950    0.0000 C   0  0  0  0  0  0  0  0  0  0  0  0
    7.7331   -0.4050    0.0000 C   0  0  0  0  0  0  0  0  0  0  0  0
    5.5335    0.5699    0.0000 H   0  0  0  0  0  0  0  0  0  0  0  0
    4.7365    0.5699    0.0000 H   0  0  0  0  0  0  0  0  0  0  0  0
    6.0010   -1.0250    0.0000 H   0  0  0  0  0  0  0  0  0  0  0  0
    3.4030    0.7150    0.0000 H   0  0  0  0  0  0  0  0  0  0  0  0
    7.7331   -1.0250    0.0000 H   0  0  0  0  0  0  0  0  0  0  0  0
    2.0000   -0.0950    0.0000 H   0  0  0  0  0  0  0  0  0  0  0  0
    2.5369   -1.0250    0.0000 H   0  0  0  0  0  0  0  0  0  0  0  0
    7.4040    1.4050    0.0000 H   0  0  0  0  0  0  0  0  0  0  0  0
  1 10  1  0  0  0  0
  1 19  1  0  0  0  0
  2  9  2  0  0  0  0
  3  8  1  0  0  0  0
  3 10  1  0  0  0  0
  3 14  1  0  0  0  0
  4  5  1  0  0  0  0
  4  9  1  0  0  0  0
  4 15  1  0  0  0  0
  5 17  1  0  0  0  0
  5 18  1  0  0  0  0
  6  7  3  0  0  0  0
  6 11  1  0  0  0  0
  8  9  1  0  0  0  0
  8 12  1  0  0  0  0
  8 13  1  0  0  0  0
 10 11  2  3  0  0  0
 11 16  1  0  0  0  0
M  CHG  1   6   1
M  END
> <PUBCHEM_COMPOUND_CID>
13179

> <PUBCHEM_COMPOUND_CANONICALIZED>
1

> <PUBCHEM_CACTVS_COMPLEXITY>
214

> <PUBCHEM_CACTVS_HBOND_ACCEPTOR>
5

> <PUBCHEM_CACTVS_HBOND_DONOR>
4

> <PUBCHEM_CACTVS_ROTATABLE_BOND>
3

> <PUBCHEM_CACTVS_SUBSKEYS>
AAADccBjsAAAAAAAAAAAAAAAAAAAAAAAAAAAAAAAAAAAAAAAAAAAHgAYCAAAAADBgAQAAALiAgCIAAEWUAAAAAAAAgISIICIAAEAQAAAACAQAAAAEAAAAAAAAAAAAAAAAAAAAAAAAAAAAAAAAAAAAAAAAA==

> <PUBCHEM_IUPAC_OPENEYE_NAME>
2-[(2-hydrazino-2-oxo-ethyl)amino]-2-hydroxy-ethenediazonium

> <PUBCHEM_IUPAC_CAS_NAME>
2-[(2-hydrazinyl-2-oxoethyl)amino]-2-hydroxyethenediazonium

> <PUBCHEM_IUPAC_NAME>
2-[(2-hydrazinyl-2-oxoethyl)amino]-2-hydroxyethenediazonium

> <PUBCHEM_IUPAC_SYSTEMATIC_NAME>
2-[(2-diazanyl-2-oxidanylidene-ethyl)amino]-2-oxidanyl-ethenediazonium

> <PUBCHEM_IUPAC_TRADITIONAL_NAME>
2-[(2-hydrazino-2-keto-ethyl)amino]-2-hydroxy-ethenediazonium

> <PUBCHEM_IUPAC_INCHI>
InChI=1S/C4H7N5O2/c5-8-2-3(10)7-1-4(11)9-6/h2,5-7,10H,1H2/p+1

> <PUBCHEM_IUPAC_INCHIKEY>
VLXTXCQIKDSICD-UHFFFAOYSA-O

> <PUBCHEM_XLOGP3_AA>
-0.4

> <PUBCHEM_EXACT_MASS>
158.0678

> <PUBCHEM_MOLECULAR_FORMULA>
C4H8N5O2+

> <PUBCHEM_MOLECULAR_WEIGHT>
158.13862

> <PUBCHEM_OPENEYE_CAN_SMILES>
C(C(=O)NN)NC(=C[N+]#N)O

> <PUBCHEM_OPENEYE_ISO_SMILES>
C(C(=O)NN)NC(=C[N+]#N)O

> <PUBCHEM_CACTVS_TPSA>
116

> <PUBCHEM_MONOISOTOPIC_WEIGHT>
158.0678

> <PUBCHEM_TOTAL_CHARGE>
1

> <PUBCHEM_HEAVY_ATOM_COUNT>
11

> <PUBCHEM_ATOM_DEF_STEREO_COUNT>
0

> <PUBCHEM_ATOM_UDEF_STEREO_COUNT>
0

> <PUBCHEM_BOND_DEF_STEREO_COUNT>
0

> <PUBCHEM_BOND_UDEF_STEREO_COUNT>
1

> <PUBCHEM_ISOTOPIC_ATOM_COUNT>
0

> <PUBCHEM_COMPONENT_COUNT>
1

> <PUBCHEM_CACTVS_TAUTO_COUNT>
6

> <PUBCHEM_COORDINATE_TYPE>
1
5
255

> <PUBCHEM_BONDANNOTATIONS>
10  11  1

$$$$

