13999
  -OEChem-06241222412D

 49 52  0     0  0  0  0  0  0999 V2000
    7.0444    1.8517    0.0000 Cl  0  0  0  0  0  0  0  0  0  0  0  0
    3.7554   -4.8758    0.0000 O   0  0  0  0  0  0  0  0  0  0  0  0
    2.0000   -0.8552    0.0000 O   0  0  0  0  0  0  0  0  0  0  0  0
    3.3104   -2.9260    0.0000 N   0  0  0  0  0  0  0  0  0  0  0  0
    3.5984   -0.2959    0.0000 N   0  0  0  0  0  0  0  0  0  0  0  0
    2.6235    1.7285    0.0000 N   0  0  0  0  0  0  0  0  0  0  0  0
    3.0879   -1.9510    0.0000 C   0  0  0  0  0  0  0  0  0  0  0  0
    2.5774   -3.6061    0.0000 C   0  0  0  0  0  0  0  0  0  0  0  0
    4.2660   -3.2207    0.0000 C   0  0  0  0  0  0  0  0  0  0  0  0
    3.8209   -1.2709    0.0000 C   0  0  0  0  0  0  0  0  0  0  0  0
    2.7999   -4.5811    0.0000 C   0  0  0  0  0  0  0  0  0  0  0  0
    4.4885   -4.1956    0.0000 C   0  0  0  0  0  0  0  0  0  0  0  0
    4.3802    0.3276    0.0000 C   0  0  0  0  0  0  0  0  0  0  0  0
    4.3802    1.3276    0.0000 C   0  0  0  0  0  0  0  0  0  0  0  0
    2.6235   -0.0734    0.0000 C   0  0  0  0  0  0  0  0  0  0  0  0
    2.1896    0.8276    0.0000 C   0  0  0  0  0  0  0  0  0  0  0  0
    3.5984    1.9510    0.0000 C   0  0  0  0  0  0  0  0  0  0  0  0
    5.2742   -0.2071    0.0000 C   0  0  0  0  0  0  0  0  0  0  0  0
    5.2742    1.8622    0.0000 C   0  0  0  0  0  0  0  0  0  0  0  0
    3.8209    2.9260    0.0000 C   0  0  0  0  0  0  0  0  0  0  0  0
    6.1803    0.3067    0.0000 C   0  0  0  0  0  0  0  0  0  0  0  0
    6.1803    1.3484    0.0000 C   0  0  0  0  0  0  0  0  0  0  0  0
    4.7765    3.2207    0.0000 C   0  0  0  0  0  0  0  0  0  0  0  0
    3.0879    3.6061    0.0000 C   0  0  0  0  0  0  0  0  0  0  0  0
    4.9990    4.1956    0.0000 C   0  0  0  0  0  0  0  0  0  0  0  0
    3.3104    4.5811    0.0000 C   0  0  0  0  0  0  0  0  0  0  0  0
    4.2660    4.8758    0.0000 C   0  0  0  0  0  0  0  0  0  0  0  0
    2.7515   -1.4302    0.0000 H   0  0  0  0  0  0  0  0  0  0  0  0
    2.5166   -2.1919    0.0000 H   0  0  0  0  0  0  0  0  0  0  0  0
    2.2410   -3.0853    0.0000 H   0  0  0  0  0  0  0  0  0  0  0  0
    2.0060   -3.8470    0.0000 H   0  0  0  0  0  0  0  0  0  0  0  0
    4.8852   -3.1898    0.0000 H   0  0  0  0  0  0  0  0  0  0  0  0
    4.3431   -2.6055    0.0000 H   0  0  0  0  0  0  0  0  0  0  0  0
    4.1573   -1.7917    0.0000 H   0  0  0  0  0  0  0  0  0  0  0  0
    4.3922   -1.0300    0.0000 H   0  0  0  0  0  0  0  0  0  0  0  0
    2.1806   -4.6120    0.0000 H   0  0  0  0  0  0  0  0  0  0  0  0
    2.7228   -5.1963    0.0000 H   0  0  0  0  0  0  0  0  0  0  0  0
    4.8249   -4.7165    0.0000 H   0  0  0  0  0  0  0  0  0  0  0  0
    5.0598   -3.9548    0.0000 H   0  0  0  0  0  0  0  0  0  0  0  0
    1.7049    1.2141    0.0000 H   0  0  0  0  0  0  0  0  0  0  0  0
    1.7049    0.4410    0.0000 H   0  0  0  0  0  0  0  0  0  0  0  0
    5.2670   -0.8271    0.0000 H   0  0  0  0  0  0  0  0  0  0  0  0
    5.2670    2.4822    0.0000 H   0  0  0  0  0  0  0  0  0  0  0  0
    6.7160   -0.0053    0.0000 H   0  0  0  0  0  0  0  0  0  0  0  0
    5.2310    2.7990    0.0000 H   0  0  0  0  0  0  0  0  0  0  0  0
    2.4954    3.4234    0.0000 H   0  0  0  0  0  0  0  0  0  0  0  0
    5.5915    4.3784    0.0000 H   0  0  0  0  0  0  0  0  0  0  0  0
    2.8559    5.0028    0.0000 H   0  0  0  0  0  0  0  0  0  0  0  0
    4.4039    5.4803    0.0000 H   0  0  0  0  0  0  0  0  0  0  0  0
  1 22  1  0  0  0  0
  2 11  1  0  0  0  0
  2 12  1  0  0  0  0
  3 15  2  0  0  0  0
  4  7  1  0  0  0  0
  4  8  1  0  0  0  0
  4  9  1  0  0  0  0
  5 10  1  0  0  0  0
  5 13  1  0  0  0  0
  5 15  1  0  0  0  0
  6 16  1  0  0  0  0
  6 17  2  0  0  0  0
  7 10  1  0  0  0  0
  7 28  1  0  0  0  0
  7 29  1  0  0  0  0
  8 11  1  0  0  0  0
  8 30  1  0  0  0  0
  8 31  1  0  0  0  0
  9 12  1  0  0  0  0
  9 32  1  0  0  0  0
  9 33  1  0  0  0  0
 10 34  1  0  0  0  0
 10 35  1  0  0  0  0
 11 36  1  0  0  0  0
 11 37  1  0  0  0  0
 12 38  1  0  0  0  0
 12 39  1  0  0  0  0
 13 14  2  0  0  0  0
 13 18  1  0  0  0  0
 14 17  1  0  0  0  0
 14 19  1  0  0  0  0
 15 16  1  0  0  0  0
 16 40  1  0  0  0  0
 16 41  1  0  0  0  0
 17 20  1  0  0  0  0
 18 21  2  0  0  0  0
 18 42  1  0  0  0  0
 19 22  2  0  0  0  0
 19 43  1  0  0  0  0
 20 23  2  0  0  0  0
 20 24  1  0  0  0  0
 21 22  1  0  0  0  0
 21 44  1  0  0  0  0
 23 25  1  0  0  0  0
 23 45  1  0  0  0  0
 24 26  2  0  0  0  0
 24 46  1  0  0  0  0
 25 27  2  0  0  0  0
 25 47  1  0  0  0  0
 26 27  1  0  0  0  0
 26 48  1  0  0  0  0
 27 49  1  0  0  0  0
M  END
> <PUBCHEM_COMPOUND_CID>
13999

> <PUBCHEM_COMPOUND_CANONICALIZED>
1

> <PUBCHEM_CACTVS_COMPLEXITY>
544

> <PUBCHEM_CACTVS_HBOND_ACCEPTOR>
4

> <PUBCHEM_CACTVS_HBOND_DONOR>
0

> <PUBCHEM_CACTVS_ROTATABLE_BOND>
4

> <PUBCHEM_CACTVS_SUBSKEYS>
AAADceB7MAAEAAAAAAAAAAAAAAAAAAAAAAA8YIAABAAAAAABQAAAHgIAAAAADArhmCYwwIMABACoAyVyVACCAAAhBwAIiACoZpgKYKLBk5GXIAhghgDYyAcQgMAOAABAIAACAAAAAIBAAAQAAAAAAAAAAA==

> <PUBCHEM_IUPAC_OPENEYE_NAME>
7-chloro-1-(2-morpholinoethyl)-5-phenyl-3H-1,4-benzodiazepin-2-one

> <PUBCHEM_IUPAC_CAS_NAME>
7-chloro-1-[2-(4-morpholinyl)ethyl]-5-phenyl-3H-1,4-benzodiazepin-2-one

> <PUBCHEM_IUPAC_NAME>
7-chloro-1-(2-morpholin-4-ylethyl)-5-phenyl-3H-1,4-benzodiazepin-2-one

> <PUBCHEM_IUPAC_SYSTEMATIC_NAME>
7-chloranyl-1-(2-morpholin-4-ylethyl)-5-phenyl-3H-1,4-benzodiazepin-2-one

> <PUBCHEM_IUPAC_TRADITIONAL_NAME>
7-chloro-1-(2-morpholinoethyl)-5-phenyl-3H-1,4-benzodiazepin-2-one

> <PUBCHEM_IUPAC_INCHI>
InChI=1S/C21H22ClN3O2/c22-17-6-7-19-18(14-17)21(16-4-2-1-3-5-16)23-15-20(26)25(19)9-8-24-10-12-27-13-11-24/h1-7,14H,8-13,15H2

> <PUBCHEM_IUPAC_INCHIKEY>
JAJMDCWDIQLCTN-UHFFFAOYSA-N

> <PUBCHEM_XLOGP3>
2.5

> <PUBCHEM_EXACT_MASS>
383.140055

> <PUBCHEM_MOLECULAR_FORMULA>
C21H22ClN3O2

> <PUBCHEM_MOLECULAR_WEIGHT>
383.87128

> <PUBCHEM_OPENEYE_CAN_SMILES>
C1COCCN1CCN2C(=O)CN=C(C3=C2C=CC(=C3)Cl)C4=CC=CC=C4

> <PUBCHEM_OPENEYE_ISO_SMILES>
C1COCCN1CCN2C(=O)CN=C(C3=C2C=CC(=C3)Cl)C4=CC=CC=C4

> <PUBCHEM_CACTVS_TPSA>
45.1

> <PUBCHEM_MONOISOTOPIC_WEIGHT>
383.140055

> <PUBCHEM_TOTAL_CHARGE>
0

> <PUBCHEM_HEAVY_ATOM_COUNT>
27

> <PUBCHEM_ATOM_DEF_STEREO_COUNT>
0

> <PUBCHEM_ATOM_UDEF_STEREO_COUNT>
0

> <PUBCHEM_BOND_DEF_STEREO_COUNT>
0

> <PUBCHEM_BOND_UDEF_STEREO_COUNT>
0

> <PUBCHEM_ISOTOPIC_ATOM_COUNT>
0

> <PUBCHEM_COMPONENT_COUNT>
1

> <PUBCHEM_CACTVS_TAUTO_COUNT>
2

> <PUBCHEM_COORDINATE_TYPE>
1
5
255

> <PUBCHEM_BONDANNOTATIONS>
13  14  8
13  18  8
14  19  8
18  21  8
19  22  8
20  23  8
20  24  8
21  22  8
23  25  8
24  26  8
25  27  8
26  27  8

$$$$

