17395368
  -OEChem-06241222492D

 41 44  0     0  0  0  0  0  0999 V2000
    6.2619   -0.0645    0.0000 S   0  0  0  0  0  0  0  0  0  0  0  0
    8.3497   -1.7396    0.0000 O   0  0  0  0  0  0  0  0  0  0  0  0
   11.1278   -1.2440    0.0000 O   0  0  0  0  0  0  0  0  0  0  0  0
    4.6783    0.7402    0.0000 N   0  0  0  0  0  0  0  0  0  0  0  0
    4.6783   -0.8692    0.0000 N   0  0  0  0  0  0  0  0  0  0  0  0
    8.3497   -0.1215    0.0000 N   0  0  0  0  0  0  0  0  0  0  0  0
    9.3007   -1.4305    0.0000 N   0  0  0  0  0  0  0  0  0  0  0  0
    3.7320    0.4355    0.0000 C   0  0  0  0  0  0  0  0  0  0  0  0
    3.7320   -0.5645    0.0000 C   0  0  0  0  0  0  0  0  0  0  0  0
    5.2619   -0.0645    0.0000 C   0  0  0  0  0  0  0  0  0  0  0  0
    2.8660    0.9355    0.0000 C   0  0  0  0  0  0  0  0  0  0  0  0
    4.9889    1.6907    0.0000 C   0  0  0  0  0  0  0  0  0  0  0  0
    2.8660   -1.0645    0.0000 C   0  0  0  0  0  0  0  0  0  0  0  0
    6.7619   -0.9305    0.0000 C   0  0  0  0  0  0  0  0  0  0  0  0
    2.0000    0.4355    0.0000 C   0  0  0  0  0  0  0  0  0  0  0  0
    2.0000   -0.5645    0.0000 C   0  0  0  0  0  0  0  0  0  0  0  0
   10.1097    0.1572    0.0000 C   0  0  0  0  0  0  0  0  0  0  0  0
    7.7619   -0.9305    0.0000 C   0  0  0  0  0  0  0  0  0  0  0  0
    9.3007   -0.4305    0.0000 C   0  0  0  0  0  0  0  0  0  0  0  0
   11.0233   -0.2495    0.0000 C   0  0  0  0  0  0  0  0  0  0  0  0
   10.0052    1.1518    0.0000 C   0  0  0  0  0  0  0  0  0  0  0  0
   11.8323    0.3383    0.0000 C   0  0  0  0  0  0  0  0  0  0  0  0
   10.8142    1.7396    0.0000 C   0  0  0  0  0  0  0  0  0  0  0  0
   11.7278    1.3328    0.0000 C   0  0  0  0  0  0  0  0  0  0  0  0
   12.0414   -1.6508    0.0000 C   0  0  0  0  0  0  0  0  0  0  0  0
    2.8660    1.5555    0.0000 H   0  0  0  0  0  0  0  0  0  0  0  0
    5.5783    1.4981    0.0000 H   0  0  0  0  0  0  0  0  0  0  0  0
    5.1815    2.2801    0.0000 H   0  0  0  0  0  0  0  0  0  0  0  0
    4.3996    1.8834    0.0000 H   0  0  0  0  0  0  0  0  0  0  0  0
    2.8660   -1.6845    0.0000 H   0  0  0  0  0  0  0  0  0  0  0  0
    6.1793   -1.1426    0.0000 H   0  0  0  0  0  0  0  0  0  0  0  0
    6.8695   -1.5411    0.0000 H   0  0  0  0  0  0  0  0  0  0  0  0
    1.4631    0.7455    0.0000 H   0  0  0  0  0  0  0  0  0  0  0  0
    1.4631   -0.8745    0.0000 H   0  0  0  0  0  0  0  0  0  0  0  0
    9.4388    1.4040    0.0000 H   0  0  0  0  0  0  0  0  0  0  0  0
   12.3987    0.0861    0.0000 H   0  0  0  0  0  0  0  0  0  0  0  0
   10.7494    2.3562    0.0000 H   0  0  0  0  0  0  0  0  0  0  0  0
   12.2294    1.6972    0.0000 H   0  0  0  0  0  0  0  0  0  0  0  0
   11.7892   -2.2172    0.0000 H   0  0  0  0  0  0  0  0  0  0  0  0
   12.6078   -1.9029    0.0000 H   0  0  0  0  0  0  0  0  0  0  0  0
   12.2935   -1.0844    0.0000 H   0  0  0  0  0  0  0  0  0  0  0  0
  1 10  1  0  0  0  0
  1 14  1  0  0  0  0
  2  7  1  0  0  0  0
  2 18  1  0  0  0  0
  3 20  1  0  0  0  0
  3 25  1  0  0  0  0
  4  8  1  0  0  0  0
  4 10  1  0  0  0  0
  4 12  1  0  0  0  0
  5  9  1  0  0  0  0
  5 10  2  0  0  0  0
  6 18  2  0  0  0  0
  6 19  1  0  0  0  0
  7 19  2  0  0  0  0
  8  9  1  0  0  0  0
  8 11  2  0  0  0  0
  9 13  2  0  0  0  0
 11 15  1  0  0  0  0
 11 26  1  0  0  0  0
 12 27  1  0  0  0  0
 12 28  1  0  0  0  0
 12 29  1  0  0  0  0
 13 16  1  0  0  0  0
 13 30  1  0  0  0  0
 14 18  1  0  0  0  0
 14 31  1  0  0  0  0
 14 32  1  0  0  0  0
 15 16  2  0  0  0  0
 15 33  1  0  0  0  0
 16 34  1  0  0  0  0
 17 19  1  0  0  0  0
 17 20  1  0  0  0  0
 17 21  2  0  0  0  0
 20 22  2  0  0  0  0
 21 23  1  0  0  0  0
 21 35  1  0  0  0  0
 22 24  1  0  0  0  0
 22 36  1  0  0  0  0
 23 24  2  0  0  0  0
 23 37  1  0  0  0  0
 24 38  1  0  0  0  0
 25 39  1  0  0  0  0
 25 40  1  0  0  0  0
 25 41  1  0  0  0  0
M  END
> <PUBCHEM_COMPOUND_CID>
17395368

> <PUBCHEM_COMPOUND_CANONICALIZED>
1

> <PUBCHEM_CACTVS_COMPLEXITY>
443

> <PUBCHEM_CACTVS_HBOND_ACCEPTOR>
6

> <PUBCHEM_CACTVS_HBOND_DONOR>
0

> <PUBCHEM_CACTVS_ROTATABLE_BOND>
5

> <PUBCHEM_CACTVS_SUBSKEYS>
AAADceB7sABAAAAAAAAAAAAAAAAAAWLAAAAwYAAAAAAAAFgB/AAAHgQEAAAADAyF3waz1rccFAipAydydgCC2C1hMrAp2CA+fJiMbqLEuZuUMChuxRPI6CeQwCAOAAAAAAAIACAAAAAAABAAQAAAAAAAAA==

> <PUBCHEM_IUPAC_OPENEYE_NAME>
3-(2-methoxyphenyl)-5-[(1-methylbenzimidazol-2-yl)sulfanylmethyl]-1,2,4-oxadiazole

> <PUBCHEM_IUPAC_CAS_NAME>
3-(2-methoxyphenyl)-5-[[(1-methyl-2-benzimidazolyl)thio]methyl]-1,2,4-oxadiazole

> <PUBCHEM_IUPAC_NAME>
3-(2-methoxyphenyl)-5-[(1-methylbenzimidazol-2-yl)sulfanylmethyl]-1,2,4-oxadiazole

> <PUBCHEM_IUPAC_SYSTEMATIC_NAME>
3-(2-methoxyphenyl)-5-[(1-methylbenzimidazol-2-yl)sulfanylmethyl]-1,2,4-oxadiazole

> <PUBCHEM_IUPAC_TRADITIONAL_NAME>
3-(2-methoxyphenyl)-5-[[(1-methylbenzimidazol-2-yl)thio]methyl]-1,2,4-oxadiazole

> <PUBCHEM_IUPAC_INCHI>
InChI=1S/C18H16N4O2S/c1-22-14-9-5-4-8-13(14)19-18(22)25-11-16-20-17(21-24-16)12-7-3-6-10-15(12)23-2/h3-10H,11H2,1-2H3

> <PUBCHEM_IUPAC_INCHIKEY>
IQUIQBWDJSGHAV-UHFFFAOYSA-N

> <PUBCHEM_XLOGP3_AA>
3.7

> <PUBCHEM_EXACT_MASS>
352.099397

> <PUBCHEM_MOLECULAR_FORMULA>
C18H16N4O2S

> <PUBCHEM_MOLECULAR_WEIGHT>
352.41024

> <PUBCHEM_OPENEYE_CAN_SMILES>
CN1C2=CC=CC=C2N=C1SCC3=NC(=NO3)C4=CC=CC=C4OC

> <PUBCHEM_OPENEYE_ISO_SMILES>
CN1C2=CC=CC=C2N=C1SCC3=NC(=NO3)C4=CC=CC=C4OC

> <PUBCHEM_CACTVS_TPSA>
91.3

> <PUBCHEM_MONOISOTOPIC_WEIGHT>
352.099397

> <PUBCHEM_TOTAL_CHARGE>
0

> <PUBCHEM_HEAVY_ATOM_COUNT>
25

> <PUBCHEM_ATOM_DEF_STEREO_COUNT>
0

> <PUBCHEM_ATOM_UDEF_STEREO_COUNT>
0

> <PUBCHEM_BOND_DEF_STEREO_COUNT>
0

> <PUBCHEM_BOND_UDEF_STEREO_COUNT>
0

> <PUBCHEM_ISOTOPIC_ATOM_COUNT>
0

> <PUBCHEM_COMPONENT_COUNT>
1

> <PUBCHEM_CACTVS_TAUTO_COUNT>
1

> <PUBCHEM_COORDINATE_TYPE>
1
5
255

> <PUBCHEM_BONDANNOTATIONS>
11  15  8
13  16  8
15  16  8
17  20  8
17  21  8
2  18  8
2  7  8
20  22  8
21  23  8
22  24  8
23  24  8
4  10  8
4  8  8
5  10  8
5  9  8
6  18  8
6  19  8
7  19  8
8  11  8
8  9  8
9  13  8

$$$$

