582915
  -OEChem-06241222442D

 46 47  0     1  0  0  0  0  0999 V2000
    2.5526    1.5127    0.0000 O   0  0  0  0  0  0  0  0  0  0  0  0
    4.9483    0.3901    0.0000 O   0  0  0  0  0  0  0  0  0  0  0  0
    3.7281    3.1307    0.0000 O   0  0  0  0  0  0  0  0  0  0  0  0
    4.7673   -1.3325    0.0000 O   0  0  0  0  0  0  0  0  0  0  0  0
    5.3104    3.8352    0.0000 O   0  0  0  0  0  0  0  0  0  0  0  0
    3.6750   -1.2655    0.0000 N   0  0  0  0  0  0  0  0  0  0  0  0
    2.8660   -1.8533    0.0000 N   0  0  0  0  0  0  0  0  0  0  0  0
    2.0570   -1.2655    0.0000 N   0  0  0  0  0  0  0  0  0  0  0  0
    3.5471    1.4081    0.0000 C   0  0  3  0  0  0  0  0  0  0  0  0
    3.9538    0.4946    0.0000 C   0  0  3  0  0  0  0  0  0  0  0  0
    4.1349    2.2172    0.0000 C   0  0  3  0  0  0  0  0  0  0  0  0
    3.3660   -0.3144    0.0000 C   0  0  0  0  0  0  0  0  0  0  0  0
    5.1294    2.1126    0.0000 C   0  0  0  0  0  0  0  0  0  0  0  0
    2.3660   -0.3144    0.0000 C   0  0  0  0  0  0  0  0  0  0  0  0
    2.1458    2.4262    0.0000 C   0  0  0  0  0  0  0  0  0  0  0  0
    5.3551   -0.5235    0.0000 C   0  0  0  0  0  0  0  0  0  0  0  0
    4.3159    3.9397    0.0000 C   0  0  0  0  0  0  0  0  0  0  0  0
    2.8660   -2.8533    0.0000 C   0  0  0  0  0  0  0  0  0  0  0  0
    6.3496   -0.6280    0.0000 C   0  0  0  0  0  0  0  0  0  0  0  0
    3.9092    4.8533    0.0000 C   0  0  0  0  0  0  0  0  0  0  0  0
    2.0000   -3.3533    0.0000 C   0  0  0  0  0  0  0  0  0  0  0  0
    3.7320   -3.3533    0.0000 C   0  0  0  0  0  0  0  0  0  0  0  0
    2.0000   -4.3533    0.0000 C   0  0  0  0  0  0  0  0  0  0  0  0
    3.7320   -4.3533    0.0000 C   0  0  0  0  0  0  0  0  0  0  0  0
    2.8660   -4.8533    0.0000 C   0  0  0  0  0  0  0  0  0  0  0  0
    3.0475    0.7205    0.0000 H   0  0  0  0  0  0  0  0  0  0  0  0
    4.2995   -0.2819    0.0000 H   0  0  0  0  0  0  0  0  0  0  0  0
    3.2895    2.3060    0.0000 H   0  0  0  0  0  0  0  0  0  0  0  0
    5.0646    1.4960    0.0000 H   0  0  0  0  0  0  0  0  0  0  0  0
    5.7460    2.0478    0.0000 H   0  0  0  0  0  0  0  0  0  0  0  0
    5.1942    2.7292    0.0000 H   0  0  0  0  0  0  0  0  0  0  0  0
    2.0016    0.1872    0.0000 H   0  0  0  0  0  0  0  0  0  0  0  0
    2.7122    2.6784    0.0000 H   0  0  0  0  0  0  0  0  0  0  0  0
    1.8936    2.9926    0.0000 H   0  0  0  0  0  0  0  0  0  0  0  0
    1.5794    2.1740    0.0000 H   0  0  0  0  0  0  0  0  0  0  0  0
    6.2848   -1.2446    0.0000 H   0  0  0  0  0  0  0  0  0  0  0  0
    6.9662   -0.6928    0.0000 H   0  0  0  0  0  0  0  0  0  0  0  0
    6.4144   -0.0114    0.0000 H   0  0  0  0  0  0  0  0  0  0  0  0
    1.4631   -3.0433    0.0000 H   0  0  0  0  0  0  0  0  0  0  0  0
    4.2690   -3.0433    0.0000 H   0  0  0  0  0  0  0  0  0  0  0  0
    4.4756    5.1054    0.0000 H   0  0  0  0  0  0  0  0  0  0  0  0
    3.6570    5.4197    0.0000 H   0  0  0  0  0  0  0  0  0  0  0  0
    3.3428    4.6011    0.0000 H   0  0  0  0  0  0  0  0  0  0  0  0
    1.4631   -4.6633    0.0000 H   0  0  0  0  0  0  0  0  0  0  0  0
    4.2690   -4.6633    0.0000 H   0  0  0  0  0  0  0  0  0  0  0  0
    2.8660   -5.4733    0.0000 H   0  0  0  0  0  0  0  0  0  0  0  0
  1  9  1  0  0  0  0
  1 15  1  0  0  0  0
  2 10  1  0  0  0  0
  2 16  1  0  0  0  0
  3 11  1  0  0  0  0
  3 17  1  0  0  0  0
  4 16  2  0  0  0  0
  5 17  2  0  0  0  0
  6  7  1  0  0  0  0
  6 12  2  0  0  0  0
  7  8  1  0  0  0  0
  7 18  1  0  0  0  0
  8 14  2  0  0  0  0
  9 10  1  0  0  0  0
  9 11  1  0  0  0  0
  9 26  1  0  0  0  0
 10 12  1  0  0  0  0
 10 27  1  0  0  0  0
 11 13  1  0  0  0  0
 11 28  1  0  0  0  0
 12 14  1  0  0  0  0
 13 29  1  0  0  0  0
 13 30  1  0  0  0  0
 13 31  1  0  0  0  0
 14 32  1  0  0  0  0
 15 33  1  0  0  0  0
 15 34  1  0  0  0  0
 15 35  1  0  0  0  0
 16 19  1  0  0  0  0
 17 20  1  0  0  0  0
 18 21  2  0  0  0  0
 18 22  1  0  0  0  0
 19 36  1  0  0  0  0
 19 37  1  0  0  0  0
 19 38  1  0  0  0  0
 20 41  1  0  0  0  0
 20 42  1  0  0  0  0
 20 43  1  0  0  0  0
 21 23  1  0  0  0  0
 21 39  1  0  0  0  0
 22 24  2  0  0  0  0
 22 40  1  0  0  0  0
 23 25  2  0  0  0  0
 23 44  1  0  0  0  0
 24 25  1  0  0  0  0
 24 45  1  0  0  0  0
 25 46  1  0  0  0  0
M  END
> <PUBCHEM_COMPOUND_CID>
582915

> <PUBCHEM_COMPOUND_CANONICALIZED>
1

> <PUBCHEM_CACTVS_COMPLEXITY>
456

> <PUBCHEM_CACTVS_HBOND_ACCEPTOR>
7

> <PUBCHEM_CACTVS_HBOND_DONOR>
0

> <PUBCHEM_CACTVS_ROTATABLE_BOND>
9

> <PUBCHEM_CACTVS_SUBSKEYS>
AAADceB7OAAAAAAAAAAAAAAAAAAAAWAAAAAwAAAAAAAAAAABwAAAHgAIAAAACBzhlgY+yJAABACqATT3SASSBAQgkgAYmAAwfIgLZCKAsZmDIABnyAEK6AewEAAAAAAAAAAAAAAAAAAAAAAAAAAAAAAAAA==

> <PUBCHEM_IUPAC_OPENEYE_NAME>
[3-acetoxy-2-methoxy-1-methyl-3-(2-phenyltriazol-4-yl)propyl] acetate

> <PUBCHEM_IUPAC_CAS_NAME>
acetic acid [4-acetyloxy-3-methoxy-4-(2-phenyl-4-triazolyl)butan-2-yl] ester

> <PUBCHEM_IUPAC_NAME>
[4-acetyloxy-3-methoxy-4-(2-phenyltriazol-4-yl)butan-2-yl] acetate

> <PUBCHEM_IUPAC_SYSTEMATIC_NAME>
[4-acetyloxy-3-methoxy-4-(2-phenyl-1,2,3-triazol-4-yl)butan-2-yl] ethanoate

> <PUBCHEM_IUPAC_TRADITIONAL_NAME>
acetic acid [3-acetoxy-2-methoxy-1-methyl-3-(2-phenyltriazol-4-yl)propyl] ester

> <PUBCHEM_IUPAC_INCHI>
InChI=1S/C17H21N3O5/c1-11(24-12(2)21)16(23-4)17(25-13(3)22)15-10-18-20(19-15)14-8-6-5-7-9-14/h5-11,16-17H,1-4H3

> <PUBCHEM_IUPAC_INCHIKEY>
JLQAEDZLXXAABT-UHFFFAOYSA-N

> <PUBCHEM_XLOGP3_AA>
1.9

> <PUBCHEM_EXACT_MASS>
347.148121

> <PUBCHEM_MOLECULAR_FORMULA>
C17H21N3O5

> <PUBCHEM_MOLECULAR_WEIGHT>
347.36574

> <PUBCHEM_OPENEYE_CAN_SMILES>
CC(C(C(C1=NN(N=C1)C2=CC=CC=C2)OC(=O)C)OC)OC(=O)C

> <PUBCHEM_OPENEYE_ISO_SMILES>
CC(C(C(C1=NN(N=C1)C2=CC=CC=C2)OC(=O)C)OC)OC(=O)C

> <PUBCHEM_CACTVS_TPSA>
92.5

> <PUBCHEM_MONOISOTOPIC_WEIGHT>
347.148121

> <PUBCHEM_TOTAL_CHARGE>
0

> <PUBCHEM_HEAVY_ATOM_COUNT>
25

> <PUBCHEM_ATOM_DEF_STEREO_COUNT>
0

> <PUBCHEM_ATOM_UDEF_STEREO_COUNT>
3

> <PUBCHEM_BOND_DEF_STEREO_COUNT>
0

> <PUBCHEM_BOND_UDEF_STEREO_COUNT>
0

> <PUBCHEM_ISOTOPIC_ATOM_COUNT>
0

> <PUBCHEM_COMPONENT_COUNT>
1

> <PUBCHEM_CACTVS_TAUTO_COUNT>
1

> <PUBCHEM_COORDINATE_TYPE>
1
5
255

> <PUBCHEM_BONDANNOTATIONS>
10  27  3
11  28  3
12  14  8
18  21  8
18  22  8
21  23  8
22  24  8
23  25  8
24  25  8
6  12  8
6  7  8
7  8  8
8  14  8
9  26  3

$$$$

