583275
  -OEChem-06241222452D

 33 33  0     1  0  0  0  0  0999 V2000
    6.0010   -2.1550    0.0000 O   0  0  0  0  0  0  0  0  0  0  0  0
    4.2690   -3.1550    0.0000 O   0  0  0  0  0  0  0  0  0  0  0  0
    2.5369   -2.1550    0.0000 O   0  0  0  0  0  0  0  0  0  0  0  0
    6.8671   -0.6550    0.0000 O   0  0  0  0  0  0  0  0  0  0  0  0
    2.5369    2.8450    0.0000 O   0  0  0  0  0  0  0  0  0  0  0  0
    4.2690    2.8450    0.0000 O   0  0  0  0  0  0  0  0  0  0  0  0
    4.2690   -0.1550    0.0000 N   0  0  3  0  0  0  0  0  0  0  0  0
    5.1350   -0.6550    0.0000 C   0  0  3  0  0  0  0  0  0  0  0  0
    5.1350   -1.6550    0.0000 C   0  0  3  0  0  0  0  0  0  0  0  0
    4.2690   -2.1550    0.0000 C   0  0  3  0  0  0  0  0  0  0  0  0
    3.4030   -1.6550    0.0000 C   0  0  3  0  0  0  0  0  0  0  0  0
    3.4030   -0.6550    0.0000 C   0  0  0  0  0  0  0  0  0  0  0  0
    4.2690    0.8450    0.0000 C   0  0  0  0  0  0  0  0  0  0  0  0
    6.0010   -0.1550    0.0000 C   0  0  0  0  0  0  0  0  0  0  0  0
    3.4030    1.3450    0.0000 C   0  0  0  0  0  0  0  0  0  0  0  0
    3.4030    2.3450    0.0000 C   0  0  0  0  0  0  0  0  0  0  0  0
    5.1350    0.1950    0.0000 H   0  0  0  0  0  0  0  0  0  0  0  0
    5.1350   -2.5050    0.0000 H   0  0  0  0  0  0  0  0  0  0  0  0
    5.0051   -2.5800    0.0000 H   0  0  0  0  0  0  0  0  0  0  0  0
    3.4030   -2.5050    0.0000 H   0  0  0  0  0  0  0  0  0  0  0  0
    3.1909   -0.0724    0.0000 H   0  0  0  0  0  0  0  0  0  0  0  0
    2.7924   -0.7627    0.0000 H   0  0  0  0  0  0  0  0  0  0  0  0
    4.8796    0.7373    0.0000 H   0  0  0  0  0  0  0  0  0  0  0  0
    4.4810    1.4276    0.0000 H   0  0  0  0  0  0  0  0  0  0  0  0
    6.3996    0.3199    0.0000 H   0  0  0  0  0  0  0  0  0  0  0  0
    5.6025    0.3199    0.0000 H   0  0  0  0  0  0  0  0  0  0  0  0
    2.7924    1.4527    0.0000 H   0  0  0  0  0  0  0  0  0  0  0  0
    3.1909    0.7624    0.0000 H   0  0  0  0  0  0  0  0  0  0  0  0
    6.0010   -2.7750    0.0000 H   0  0  0  0  0  0  0  0  0  0  0  0
    3.7320   -3.4650    0.0000 H   0  0  0  0  0  0  0  0  0  0  0  0
    2.0000   -1.8450    0.0000 H   0  0  0  0  0  0  0  0  0  0  0  0
    7.4040   -0.3450    0.0000 H   0  0  0  0  0  0  0  0  0  0  0  0
    2.5369    3.4650    0.0000 H   0  0  0  0  0  0  0  0  0  0  0  0
  1  9  1  0  0  0  0
  1 29  1  0  0  0  0
  2 10  1  0  0  0  0
  2 30  1  0  0  0  0
  3 11  1  0  0  0  0
  3 31  1  0  0  0  0
  4 14  1  0  0  0  0
  4 32  1  0  0  0  0
  5 16  1  0  0  0  0
  5 33  1  0  0  0  0
  6 16  2  0  0  0  0
  7  8  1  0  0  0  0
  7 12  1  0  0  0  0
  7 13  1  0  0  0  0
  8  9  1  0  0  0  0
  8 14  1  0  0  0  0
  8 17  1  0  0  0  0
  9 10  1  0  0  0  0
  9 18  1  0  0  0  0
 10 11  1  0  0  0  0
 10 19  1  0  0  0  0
 11 12  1  0  0  0  0
 11 20  1  0  0  0  0
 12 21  1  0  0  0  0
 12 22  1  0  0  0  0
 13 15  1  0  0  0  0
 13 23  1  0  0  0  0
 13 24  1  0  0  0  0
 14 25  1  0  0  0  0
 14 26  1  0  0  0  0
 15 16  1  0  0  0  0
 15 27  1  0  0  0  0
 15 28  1  0  0  0  0
M  END
> <PUBCHEM_COMPOUND_CID>
583275

> <PUBCHEM_COMPOUND_CANONICALIZED>
1

> <PUBCHEM_CACTVS_COMPLEXITY>
248

> <PUBCHEM_CACTVS_HBOND_ACCEPTOR>
7

> <PUBCHEM_CACTVS_HBOND_DONOR>
5

> <PUBCHEM_CACTVS_ROTATABLE_BOND>
4

> <PUBCHEM_CACTVS_SUBSKEYS>
AAADceByOAAAAAAAAAAAAAAAAAAAAAAAAAAsAAAAAAAAAAAAAAAAHgAACAAACDzhgAYACAMAAgAIAACQCAAAAAAAAAAAAAEIAAADEAoAgAAEQAAHAACRAAHwYAQAAAAAAAAAAAAAAAAAAAAAAAAAAAAAAA==

> <PUBCHEM_IUPAC_OPENEYE_NAME>
3-[3,4,5-trihydroxy-2-(hydroxymethyl)-1-piperidyl]propanoic acid

> <PUBCHEM_IUPAC_CAS_NAME>
3-[3,4,5-trihydroxy-2-(hydroxymethyl)-1-piperidinyl]propanoic acid

> <PUBCHEM_IUPAC_NAME>
3-[3,4,5-trihydroxy-2-(hydroxymethyl)piperidin-1-yl]propanoic acid

> <PUBCHEM_IUPAC_SYSTEMATIC_NAME>
3-[2-(hydroxymethyl)-3,4,5-tris(oxidanyl)piperidin-1-yl]propanoic acid

> <PUBCHEM_IUPAC_TRADITIONAL_NAME>
3-(3,4,5-trihydroxy-2-methylol-piperidino)propionic acid

> <PUBCHEM_IUPAC_INCHI>
InChI=1S/C9H17NO6/c11-4-5-8(15)9(16)6(12)3-10(5)2-1-7(13)14/h5-6,8-9,11-12,15-16H,1-4H2,(H,13,14)

> <PUBCHEM_IUPAC_INCHIKEY>
PCGAKBVRSMMXCR-UHFFFAOYSA-N

> <PUBCHEM_XLOGP3_AA>
-4.7

> <PUBCHEM_EXACT_MASS>
235.105587

> <PUBCHEM_MOLECULAR_FORMULA>
C9H17NO6

> <PUBCHEM_MOLECULAR_WEIGHT>
235.23438

> <PUBCHEM_OPENEYE_CAN_SMILES>
C1C(C(C(C(N1CCC(=O)O)CO)O)O)O

> <PUBCHEM_OPENEYE_ISO_SMILES>
C1C(C(C(C(N1CCC(=O)O)CO)O)O)O

> <PUBCHEM_CACTVS_TPSA>
122

> <PUBCHEM_MONOISOTOPIC_WEIGHT>
235.105587

> <PUBCHEM_TOTAL_CHARGE>
0

> <PUBCHEM_HEAVY_ATOM_COUNT>
16

> <PUBCHEM_ATOM_DEF_STEREO_COUNT>
0

> <PUBCHEM_ATOM_UDEF_STEREO_COUNT>
4

> <PUBCHEM_BOND_DEF_STEREO_COUNT>
0

> <PUBCHEM_BOND_UDEF_STEREO_COUNT>
0

> <PUBCHEM_ISOTOPIC_ATOM_COUNT>
0

> <PUBCHEM_COMPONENT_COUNT>
1

> <PUBCHEM_CACTVS_TAUTO_COUNT>
1

> <PUBCHEM_COORDINATE_TYPE>
1
5
255

> <PUBCHEM_BONDANNOTATIONS>
10  19  3
11  20  3
8  17  3
9  18  3

$$$$

