9116
  -OEChem-06261203252D

 44 50  0     0  0  0  0  0  0999 V2000
    5.6098   -1.0391    0.0000 C   0  0  0  0  0  0  0  0  0  0  0  0
    4.7438   -0.5391    0.0000 C   0  0  0  0  0  0  0  0  0  0  0  0
    6.4758   -0.5391    0.0000 C   0  0  0  0  0  0  0  0  0  0  0  0
    4.7438    0.4609    0.0000 C   0  0  0  0  0  0  0  0  0  0  0  0
    6.4758    0.4609    0.0000 C   0  0  0  0  0  0  0  0  0  0  0  0
    5.6098    0.9609    0.0000 C   0  0  0  0  0  0  0  0  0  0  0  0
    3.8498   -1.0737    0.0000 C   0  0  0  0  0  0  0  0  0  0  0  0
    5.5938   -2.0806    0.0000 C   0  0  0  0  0  0  0  0  0  0  0  0
    7.3858   -1.0459    0.0000 C   0  0  0  0  0  0  0  0  0  0  0  0
    3.8498    0.9956    0.0000 C   0  0  0  0  0  0  0  0  0  0  0  0
    2.9438    0.4818    0.0000 C   0  0  0  0  0  0  0  0  0  0  0  0
    7.3939   -2.0875    0.0000 C   0  0  0  0  0  0  0  0  0  0  0  0
    2.9438   -0.5599    0.0000 C   0  0  0  0  0  0  0  0  0  0  0  0
    6.4918   -2.6083    0.0000 C   0  0  0  0  0  0  0  0  0  0  0  0
    3.8877   -2.0647    0.0000 C   0  0  0  0  0  0  0  0  0  0  0  0
    4.7590   -2.5382    0.0000 C   0  0  0  0  0  0  0  0  0  0  0  0
    5.5938    2.0024    0.0000 C   0  0  0  0  0  0  0  0  0  0  0  0
    7.3858    0.9678    0.0000 C   0  0  0  0  0  0  0  0  0  0  0  0
    3.8749    2.0803    0.0000 C   0  0  0  0  0  0  0  0  0  0  0  0
    8.3127   -0.4818    0.0000 C   0  0  0  0  0  0  0  0  0  0  0  0
    8.3293   -2.6372    0.0000 C   0  0  0  0  0  0  0  0  0  0  0  0
    2.0000    1.0170    0.0000 C   0  0  0  0  0  0  0  0  0  0  0  0
    7.3939    2.0094    0.0000 C   0  0  0  0  0  0  0  0  0  0  0  0
    6.4918    2.5302    0.0000 C   0  0  0  0  0  0  0  0  0  0  0  0
    9.2606   -1.0098    0.0000 C   0  0  0  0  0  0  0  0  0  0  0  0
    2.9438    2.6372    0.0000 C   0  0  0  0  0  0  0  0  0  0  0  0
    9.2689   -2.0947    0.0000 C   0  0  0  0  0  0  0  0  0  0  0  0
    2.0000    2.1020    0.0000 C   0  0  0  0  0  0  0  0  0  0  0  0
    6.4894   -3.2283    0.0000 H   0  0  0  0  0  0  0  0  0  0  0  0
    2.4080   -0.8719    0.0000 H   0  0  0  0  0  0  0  0  0  0  0  0
    3.3609   -2.3917    0.0000 H   0  0  0  0  0  0  0  0  0  0  0  0
    4.7602   -3.1582    0.0000 H   0  0  0  0  0  0  0  0  0  0  0  0
    5.0533    2.3062    0.0000 H   0  0  0  0  0  0  0  0  0  0  0  0
    7.9192    0.6516    0.0000 H   0  0  0  0  0  0  0  0  0  0  0  0
    4.4178    2.3799    0.0000 H   0  0  0  0  0  0  0  0  0  0  0  0
    8.3007    0.1381    0.0000 H   0  0  0  0  0  0  0  0  0  0  0  0
    1.4643    0.7049    0.0000 H   0  0  0  0  0  0  0  0  0  0  0  0
    8.3269   -3.2572    0.0000 H   0  0  0  0  0  0  0  0  0  0  0  0
    6.4894    3.1502    0.0000 H   0  0  0  0  0  0  0  0  0  0  0  0
    7.9320    2.3173    0.0000 H   0  0  0  0  0  0  0  0  0  0  0  0
    2.9510    3.2572    0.0000 H   0  0  0  0  0  0  0  0  0  0  0  0
    9.7939   -0.6936    0.0000 H   0  0  0  0  0  0  0  0  0  0  0  0
    9.8071   -2.4027    0.0000 H   0  0  0  0  0  0  0  0  0  0  0  0
    1.4643    2.4141    0.0000 H   0  0  0  0  0  0  0  0  0  0  0  0
  1  2  1  0  0  0  0
  1  3  2  0  0  0  0
  1  8  1  0  0  0  0
  2  4  2  0  0  0  0
  2  7  1  0  0  0  0
  3  5  1  0  0  0  0
  3  9  1  0  0  0  0
  4  6  1  0  0  0  0
  4 10  1  0  0  0  0
  5  6  1  0  0  0  0
  5 18  2  0  0  0  0
  6 17  2  0  0  0  0
  7 13  2  0  0  0  0
  7 15  1  0  0  0  0
  8 14  2  0  0  0  0
  8 16  1  0  0  0  0
  9 12  1  0  0  0  0
  9 20  2  0  0  0  0
 10 11  1  0  0  0  0
 10 19  2  0  0  0  0
 11 13  1  0  0  0  0
 11 22  2  0  0  0  0
 12 14  1  0  0  0  0
 12 21  2  0  0  0  0
 13 30  1  0  0  0  0
 14 29  1  0  0  0  0
 15 16  2  0  0  0  0
 15 31  1  0  0  0  0
 16 32  1  0  0  0  0
 17 24  1  0  0  0  0
 17 33  1  0  0  0  0
 18 23  1  0  0  0  0
 18 34  1  0  0  0  0
 19 26  1  0  0  0  0
 19 35  1  0  0  0  0
 20 25  1  0  0  0  0
 20 36  1  0  0  0  0
 21 27  1  0  0  0  0
 21 38  1  0  0  0  0
 22 28  1  0  0  0  0
 22 37  1  0  0  0  0
 23 24  2  0  0  0  0
 23 40  1  0  0  0  0
 24 39  1  0  0  0  0
 25 27  2  0  0  0  0
 25 42  1  0  0  0  0
 26 28  2  0  0  0  0
 26 41  1  0  0  0  0
 27 43  1  0  0  0  0
 28 44  1  0  0  0  0
M  END
> <PUBCHEM_COMPOUND_CID>
9116

> <PUBCHEM_COMPOUND_CANONICALIZED>
1

> <PUBCHEM_CACTVS_COMPLEXITY>
541

> <PUBCHEM_CACTVS_HBOND_ACCEPTOR>
0

> <PUBCHEM_CACTVS_HBOND_DONOR>
0

> <PUBCHEM_CACTVS_ROTATABLE_BOND>
0

> <PUBCHEM_CACTVS_SUBSKEYS>
AAADceB4AAAAAAAAAAAAAAAAAAAAAAAAAAAwYMGDAAAAAADBVAAAGAAAAAAADACAGAAwAMAAAACAAiBCAAACAAAgAAAIiAAAAIgIICKAERCAIAAggAAIiAcAgMAOwAACAAAQAACAAAQAACAAAAAAAAAAAA==

> <PUBCHEM_IUPAC_INCHI>
InChI=1S/C28H16/c1-3-9-21-17(7-1)15-19-13-14-20-16-18-8-2-4-10-22(18)28-24-12-6-5-11-23(24)27(21)25(19)26(20)28/h1-16H

> <PUBCHEM_IUPAC_INCHIKEY>
YCBYJTZVAGWAGC-UHFFFAOYSA-N

> <PUBCHEM_XLOGP3_AA>
8.5

> <PUBCHEM_EXACT_MASS>
352.125201

> <PUBCHEM_MOLECULAR_FORMULA>
C28H16

> <PUBCHEM_MOLECULAR_WEIGHT>
352.42664

> <PUBCHEM_OPENEYE_CAN_SMILES>
C1=CC=C2C(=C1)C=C3C=CC4=CC5=CC=CC=C5C6=C4C3=C2C7=CC=CC=C76

> <PUBCHEM_OPENEYE_ISO_SMILES>
C1=CC=C2C(=C1)C=C3C=CC4=CC5=CC=CC=C5C6=C4C3=C2C7=CC=CC=C76

> <PUBCHEM_CACTVS_TPSA>
0

> <PUBCHEM_MONOISOTOPIC_WEIGHT>
352.125201

> <PUBCHEM_TOTAL_CHARGE>
0

> <PUBCHEM_HEAVY_ATOM_COUNT>
28

> <PUBCHEM_ATOM_DEF_STEREO_COUNT>
0

> <PUBCHEM_ATOM_UDEF_STEREO_COUNT>
0

> <PUBCHEM_BOND_DEF_STEREO_COUNT>
0

> <PUBCHEM_BOND_UDEF_STEREO_COUNT>
0

> <PUBCHEM_ISOTOPIC_ATOM_COUNT>
0

> <PUBCHEM_COMPONENT_COUNT>
1

> <PUBCHEM_CACTVS_TAUTO_COUNT>
1

> <PUBCHEM_COORDINATE_TYPE>
1
5
255

> <PUBCHEM_BONDANNOTATIONS>
1  2  8
1  3  8
1  8  8
10  11  8
10  19  8
11  13  8
11  22  8
12  14  8
12  21  8
15  16  8
17  24  8
18  23  8
19  26  8
2  4  8
2  7  8
20  25  8
21  27  8
22  28  8
23  24  8
25  27  8
26  28  8
3  5  8
3  9  8
4  10  8
4  6  8
5  18  8
5  6  8
6  17  8
7  13  8
7  15  8
8  14  8
8  16  8
9  12  8
9  20  8

$$$$

