13257
  -OEChem-06261208112D

 27 29  0     0  0  0  0  0  0999 V2000
    3.8000    0.2327    0.0000 C   0  0  0  0  0  0  0  0  0  0  0  0
    3.8000   -0.7673    0.0000 C   0  0  0  0  0  0  0  0  0  0  0  0
    4.6660    0.7327    0.0000 C   0  0  0  0  0  0  0  0  0  0  0  0
    5.5321    0.2327    0.0000 C   0  0  0  0  0  0  0  0  0  0  0  0
    2.9061   -1.3020    0.0000 C   0  0  0  0  0  0  0  0  0  0  0  0
    4.6660   -1.2673    0.0000 C   0  0  0  0  0  0  0  0  0  0  0  0
    5.5321   -0.7673    0.0000 C   0  0  0  0  0  0  0  0  0  0  0  0
    2.9061    0.7673    0.0000 C   0  0  0  0  0  0  0  0  0  0  0  0
    4.6500    1.7742    0.0000 C   0  0  0  0  0  0  0  0  0  0  0  0
    2.0000   -0.7881    0.0000 C   0  0  0  0  0  0  0  0  0  0  0  0
    6.4421    0.7395    0.0000 C   0  0  0  0  0  0  0  0  0  0  0  0
    2.0000    0.2535    0.0000 C   0  0  0  0  0  0  0  0  0  0  0  0
    2.9176   -2.3019    0.0000 C   0  0  0  0  0  0  0  0  0  0  0  0
    5.5480    2.3019    0.0000 C   0  0  0  0  0  0  0  0  0  0  0  0
    6.4501    1.7811    0.0000 C   0  0  0  0  0  0  0  0  0  0  0  0
    4.6660   -1.8873    0.0000 H   0  0  0  0  0  0  0  0  0  0  0  0
    6.0690   -1.0773    0.0000 H   0  0  0  0  0  0  0  0  0  0  0  0
    2.9132    1.3873    0.0000 H   0  0  0  0  0  0  0  0  0  0  0  0
    4.1095    2.0779    0.0000 H   0  0  0  0  0  0  0  0  0  0  0  0
    1.4643   -1.1002    0.0000 H   0  0  0  0  0  0  0  0  0  0  0  0
    6.9754    0.4233    0.0000 H   0  0  0  0  0  0  0  0  0  0  0  0
    1.4643    0.5655    0.0000 H   0  0  0  0  0  0  0  0  0  0  0  0
    2.2977   -2.3091    0.0000 H   0  0  0  0  0  0  0  0  0  0  0  0
    2.9248   -2.9219    0.0000 H   0  0  0  0  0  0  0  0  0  0  0  0
    3.5376   -2.2948    0.0000 H   0  0  0  0  0  0  0  0  0  0  0  0
    5.5456    2.9219    0.0000 H   0  0  0  0  0  0  0  0  0  0  0  0
    6.9882    2.0890    0.0000 H   0  0  0  0  0  0  0  0  0  0  0  0
  1  2  1  0  0  0  0
  1  3  1  0  0  0  0
  1  8  2  0  0  0  0
  2  5  2  0  0  0  0
  2  6  1  0  0  0  0
  3  4  1  0  0  0  0
  3  9  2  0  0  0  0
  4  7  1  0  0  0  0
  4 11  2  0  0  0  0
  5 10  1  0  0  0  0
  5 13  1  0  0  0  0
  6  7  2  0  0  0  0
  6 16  1  0  0  0  0
  7 17  1  0  0  0  0
  8 12  1  0  0  0  0
  8 18  1  0  0  0  0
  9 14  1  0  0  0  0
  9 19  1  0  0  0  0
 10 12  2  0  0  0  0
 10 20  1  0  0  0  0
 11 15  1  0  0  0  0
 11 21  1  0  0  0  0
 12 22  1  0  0  0  0
 13 23  1  0  0  0  0
 13 24  1  0  0  0  0
 13 25  1  0  0  0  0
 14 15  2  0  0  0  0
 14 26  1  0  0  0  0
 15 27  1  0  0  0  0
M  END
> <PUBCHEM_COMPOUND_CID>
13257

> <PUBCHEM_COMPOUND_CANONICALIZED>
1

> <PUBCHEM_CACTVS_COMPLEXITY>
220

> <PUBCHEM_CACTVS_HBOND_ACCEPTOR>
0

> <PUBCHEM_CACTVS_HBOND_DONOR>
0

> <PUBCHEM_CACTVS_ROTATABLE_BOND>
0

> <PUBCHEM_CACTVS_SUBSKEYS>
AAADccBwAAAAAAAAAAAAAAAAAAAAAAAAAAAwYMAAAAAAAADBVAAAGAAAAAAADACAGAAyAMAAAACAAiBCAAACAAAgAAAIiAAAAIgIICKAERCAIAAggAAIiAcAgMAOwAACAAAQAACAAAQAACAAAAAAAAAAAA==

> <PUBCHEM_IUPAC_OPENEYE_NAME>
1-methylphenanthrene

> <PUBCHEM_IUPAC_CAS_NAME>
1-methylphenanthrene

> <PUBCHEM_IUPAC_NAME>
1-methylphenanthrene

> <PUBCHEM_IUPAC_SYSTEMATIC_NAME>
1-methylphenanthrene

> <PUBCHEM_IUPAC_TRADITIONAL_NAME>
1-methylphenanthrene

> <PUBCHEM_IUPAC_INCHI>
InChI=1S/C15H12/c1-11-5-4-8-15-13(11)10-9-12-6-2-3-7-14(12)15/h2-10H,1H3

> <PUBCHEM_IUPAC_INCHIKEY>
DOWJXOHBNXRUOD-UHFFFAOYSA-N

> <PUBCHEM_XLOGP3>
5.1

> <PUBCHEM_EXACT_MASS>
192.0939

> <PUBCHEM_MOLECULAR_FORMULA>
C15H12

> <PUBCHEM_MOLECULAR_WEIGHT>
192.25578

> <PUBCHEM_OPENEYE_CAN_SMILES>
CC1=CC=CC2=C1C=CC3=CC=CC=C32

> <PUBCHEM_OPENEYE_ISO_SMILES>
CC1=CC=CC2=C1C=CC3=CC=CC=C32

> <PUBCHEM_CACTVS_TPSA>
0

> <PUBCHEM_MONOISOTOPIC_WEIGHT>
192.0939

> <PUBCHEM_TOTAL_CHARGE>
0

> <PUBCHEM_HEAVY_ATOM_COUNT>
15

> <PUBCHEM_ATOM_DEF_STEREO_COUNT>
0

> <PUBCHEM_ATOM_UDEF_STEREO_COUNT>
0

> <PUBCHEM_BOND_DEF_STEREO_COUNT>
0

> <PUBCHEM_BOND_UDEF_STEREO_COUNT>
0

> <PUBCHEM_ISOTOPIC_ATOM_COUNT>
0

> <PUBCHEM_COMPONENT_COUNT>
1

> <PUBCHEM_CACTVS_TAUTO_COUNT>
1

> <PUBCHEM_COORDINATE_TYPE>
1
5
255

> <PUBCHEM_BONDANNOTATIONS>
1  2  8
1  3  8
1  8  8
10  12  8
11  15  8
14  15  8
2  5  8
2  6  8
3  4  8
3  9  8
4  11  8
4  7  8
5  10  8
6  7  8
8  12  8
9  14  8

$$$$

