51090874
  -OEChem-06241223002D

 48 50  0     0  0  0  0  0  0999 V2000
   10.4487    0.9704    0.0000 O   0  0  0  0  0  0  0  0  0  0  0  0
    6.5000   -0.7321    0.0000 O   0  0  0  0  0  0  0  0  0  0  0  0
    8.0000    0.1340    0.0000 N   0  0  0  0  0  0  0  0  0  0  0  0
   10.2796   -0.6388    0.0000 N   0  0  0  0  0  0  0  0  0  0  0  0
    9.4706    0.7625    0.0000 N   0  0  0  0  0  0  0  0  0  0  0  0
    5.0000    1.8660    0.0000 N   0  0  0  0  0  0  0  0  0  0  0  0
    8.5000   -0.7321    0.0000 C   0  0  0  0  0  0  0  0  0  0  0  0
    7.6340   -1.2320    0.0000 C   0  0  0  0  0  0  0  0  0  0  0  0
    9.3660   -1.2320    0.0000 C   0  0  0  0  0  0  0  0  0  0  0  0
    9.3660   -2.2320    0.0000 C   0  0  0  0  0  0  0  0  0  0  0  0
    7.6340   -2.2320    0.0000 C   0  0  0  0  0  0  0  0  0  0  0  0
    8.5000   -2.7320    0.0000 C   0  0  0  0  0  0  0  0  0  0  0  0
    9.3660   -0.2321    0.0000 C   0  0  0  0  0  0  0  0  0  0  0  0
    7.0000    0.1340    0.0000 C   0  0  0  0  0  0  0  0  0  0  0  0
    6.5000    1.0000    0.0000 C   0  0  0  0  0  0  0  0  0  0  0  0
   10.9487    0.1044    0.0000 C   0  0  0  0  0  0  0  0  0  0  0  0
    5.5000    1.0000    0.0000 C   0  0  0  0  0  0  0  0  0  0  0  0
   11.9432   -0.0002    0.0000 C   0  0  0  0  0  0  0  0  0  0  0  0
    4.0000    1.8660    0.0000 C   0  0  0  0  0  0  0  0  0  0  0  0
    3.5000    2.7320    0.0000 C   0  0  0  0  0  0  0  0  0  0  0  0
    3.5000    1.0000    0.0000 C   0  0  0  0  0  0  0  0  0  0  0  0
    2.5000    2.7320    0.0000 C   0  0  0  0  0  0  0  0  0  0  0  0
    2.5000    1.0000    0.0000 C   0  0  0  0  0  0  0  0  0  0  0  0
    2.0000    1.8660    0.0000 C   0  0  0  0  0  0  0  0  0  0  0  0
    9.9766   -1.3397    0.0000 H   0  0  0  0  0  0  0  0  0  0  0  0
    9.5781   -0.6494    0.0000 H   0  0  0  0  0  0  0  0  0  0  0  0
    7.4219   -0.6494    0.0000 H   0  0  0  0  0  0  0  0  0  0  0  0
    7.0234   -1.3397    0.0000 H   0  0  0  0  0  0  0  0  0  0  0  0
    9.5781   -2.8147    0.0000 H   0  0  0  0  0  0  0  0  0  0  0  0
    9.9766   -2.1244    0.0000 H   0  0  0  0  0  0  0  0  0  0  0  0
    7.0234   -2.1244    0.0000 H   0  0  0  0  0  0  0  0  0  0  0  0
    7.4219   -2.8147    0.0000 H   0  0  0  0  0  0  0  0  0  0  0  0
    8.1015   -3.2070    0.0000 H   0  0  0  0  0  0  0  0  0  0  0  0
    8.8985   -3.2070    0.0000 H   0  0  0  0  0  0  0  0  0  0  0  0
    8.0000    0.7540    0.0000 H   0  0  0  0  0  0  0  0  0  0  0  0
    7.0826    1.2120    0.0000 H   0  0  0  0  0  0  0  0  0  0  0  0
    6.3923    1.6106    0.0000 H   0  0  0  0  0  0  0  0  0  0  0  0
    4.9174    0.7879    0.0000 H   0  0  0  0  0  0  0  0  0  0  0  0
    5.6077    0.3894    0.0000 H   0  0  0  0  0  0  0  0  0  0  0  0
   11.8784   -0.6168    0.0000 H   0  0  0  0  0  0  0  0  0  0  0  0
   12.5598   -0.0650    0.0000 H   0  0  0  0  0  0  0  0  0  0  0  0
   12.0080    0.6164    0.0000 H   0  0  0  0  0  0  0  0  0  0  0  0
    5.3100    2.4030    0.0000 H   0  0  0  0  0  0  0  0  0  0  0  0
    3.8100    3.2690    0.0000 H   0  0  0  0  0  0  0  0  0  0  0  0
    3.8100    0.4631    0.0000 H   0  0  0  0  0  0  0  0  0  0  0  0
    2.1900    3.2690    0.0000 H   0  0  0  0  0  0  0  0  0  0  0  0
    2.1900    0.4631    0.0000 H   0  0  0  0  0  0  0  0  0  0  0  0
    1.3800    1.8660    0.0000 H   0  0  0  0  0  0  0  0  0  0  0  0
  1  5  1  0  0  0  0
  1 16  1  0  0  0  0
  2 14  2  0  0  0  0
  3  7  1  0  0  0  0
  3 14  1  0  0  0  0
  3 35  1  0  0  0  0
  4 13  1  0  0  0  0
  4 16  2  0  0  0  0
  5 13  2  0  0  0  0
  6 17  1  0  0  0  0
  6 19  1  0  0  0  0
  6 43  1  0  0  0  0
  7  8  1  0  0  0  0
  7  9  1  0  0  0  0
  7 13  1  0  0  0  0
  8 11  1  0  0  0  0
  8 27  1  0  0  0  0
  8 28  1  0  0  0  0
  9 10  1  0  0  0  0
  9 25  1  0  0  0  0
  9 26  1  0  0  0  0
 10 12  1  0  0  0  0
 10 29  1  0  0  0  0
 10 30  1  0  0  0  0
 11 12  1  0  0  0  0
 11 31  1  0  0  0  0
 11 32  1  0  0  0  0
 12 33  1  0  0  0  0
 12 34  1  0  0  0  0
 14 15  1  0  0  0  0
 15 17  1  0  0  0  0
 15 36  1  0  0  0  0
 15 37  1  0  0  0  0
 16 18  1  0  0  0  0
 17 38  1  0  0  0  0
 17 39  1  0  0  0  0
 18 40  1  0  0  0  0
 18 41  1  0  0  0  0
 18 42  1  0  0  0  0
 19 20  2  0  0  0  0
 19 21  1  0  0  0  0
 20 22  1  0  0  0  0
 20 44  1  0  0  0  0
 21 23  2  0  0  0  0
 21 45  1  0  0  0  0
 22 24  2  0  0  0  0
 22 46  1  0  0  0  0
 23 24  1  0  0  0  0
 23 47  1  0  0  0  0
 24 48  1  0  0  0  0
M  END
> <PUBCHEM_COMPOUND_CID>
51090874

> <PUBCHEM_COMPOUND_CANONICALIZED>
1

> <PUBCHEM_CACTVS_COMPLEXITY>
406

> <PUBCHEM_CACTVS_HBOND_ACCEPTOR>
5

> <PUBCHEM_CACTVS_HBOND_DONOR>
2

> <PUBCHEM_CACTVS_ROTATABLE_BOND>
6

> <PUBCHEM_CACTVS_SUBSKEYS>
AAADceB7sAAAAAAAAAAAAAAAAAAAAWAAAAAwYAAAAAAAAAABwAAAHgAUAAAADIjBkwQz0IbYEACpACdydgCCgAkhAqApiIE4ZIiIaCrA2ZGUIAhglQLIyAcQgAAOAAAAAAAAAAAAAAAAAAAAAAAAAAAAAA==

> <PUBCHEM_IUPAC_OPENEYE_NAME>
3-anilino-N-[1-(5-methyl-1,2,4-oxadiazol-3-yl)cyclohexyl]propanamide

> <PUBCHEM_IUPAC_CAS_NAME>
3-anilino-N-[1-(5-methyl-1,2,4-oxadiazol-3-yl)cyclohexyl]propanamide

> <PUBCHEM_IUPAC_NAME>
3-anilino-N-[1-(5-methyl-1,2,4-oxadiazol-3-yl)cyclohexyl]propanamide

> <PUBCHEM_IUPAC_SYSTEMATIC_NAME>
N-[1-(5-methyl-1,2,4-oxadiazol-3-yl)cyclohexyl]-3-phenylazanyl-propanamide

> <PUBCHEM_IUPAC_TRADITIONAL_NAME>
3-anilino-N-[1-(5-methyl-1,2,4-oxadiazol-3-yl)cyclohexyl]propionamide

> <PUBCHEM_IUPAC_INCHI>
InChI=1S/C18H24N4O2/c1-14-20-17(22-24-14)18(11-6-3-7-12-18)21-16(23)10-13-19-15-8-4-2-5-9-15/h2,4-5,8-9,19H,3,6-7,10-13H2,1H3,(H,21,23)

> <PUBCHEM_IUPAC_INCHIKEY>
AGVRAXHEQXBFAW-UHFFFAOYSA-N

> <PUBCHEM_XLOGP3_AA>
3.5

> <PUBCHEM_EXACT_MASS>
328.189926

> <PUBCHEM_MOLECULAR_FORMULA>
C18H24N4O2

> <PUBCHEM_MOLECULAR_WEIGHT>
328.40876

> <PUBCHEM_OPENEYE_CAN_SMILES>
CC1=NC(=NO1)C2(CCCCC2)NC(=O)CCNC3=CC=CC=C3

> <PUBCHEM_OPENEYE_ISO_SMILES>
CC1=NC(=NO1)C2(CCCCC2)NC(=O)CCNC3=CC=CC=C3

> <PUBCHEM_CACTVS_TPSA>
80

> <PUBCHEM_MONOISOTOPIC_WEIGHT>
328.189926

> <PUBCHEM_TOTAL_CHARGE>
0

> <PUBCHEM_HEAVY_ATOM_COUNT>
24

> <PUBCHEM_ATOM_DEF_STEREO_COUNT>
0

> <PUBCHEM_ATOM_UDEF_STEREO_COUNT>
0

> <PUBCHEM_BOND_DEF_STEREO_COUNT>
0

> <PUBCHEM_BOND_UDEF_STEREO_COUNT>
0

> <PUBCHEM_ISOTOPIC_ATOM_COUNT>
0

> <PUBCHEM_COMPONENT_COUNT>
1

> <PUBCHEM_CACTVS_TAUTO_COUNT>
2

> <PUBCHEM_COORDINATE_TYPE>
1
5
255

> <PUBCHEM_BONDANNOTATIONS>
1  16  8
1  5  8
19  20  8
19  21  8
20  22  8
21  23  8
22  24  8
23  24  8
4  13  8
4  16  8
5  13  8

$$$$

