6314
  -OEChem-06261201142D

 41 40  0     0  0  0  0  0  0999 V2000
    8.2700    3.5785    0.0000 Cl  0  0  0  0  0  0  0  0  0  0  0  0
    4.0010    3.6200    0.0000 O   0  0  0  0  0  0  0  0  0  0  0  0
    4.0010    5.6200    0.0000 N   0  0  0  0  0  0  0  0  0  0  0  0
    2.2690    3.6200    0.0000 N   0  0  0  0  0  0  0  0  0  0  0  0
    3.1350    5.1200    0.0000 C   0  0  0  0  0  0  0  0  0  0  0  0
    4.0010    6.6200    0.0000 C   0  0  0  0  0  0  0  0  0  0  0  0
    4.8671    5.1200    0.0000 C   0  0  0  0  0  0  0  0  0  0  0  0
    2.2690    2.6200    0.0000 C   0  0  0  0  0  0  0  0  0  0  0  0
    3.1350    4.1200    0.0000 C   0  0  0  0  0  0  0  0  0  0  0  0
    1.4030    2.1200    0.0000 C   0  0  0  0  0  0  0  0  0  0  0  0
    3.1350    2.1200    0.0000 C   0  0  0  0  0  0  0  0  0  0  0  0
    4.8671    7.1200    0.0000 C   0  0  0  0  0  0  0  0  0  0  0  0
    5.7331    5.6200    0.0000 C   0  0  0  0  0  0  0  0  0  0  0  0
    1.4030    1.1200    0.0000 C   0  0  0  0  0  0  0  0  0  0  0  0
    3.1350    1.1200    0.0000 C   0  0  0  0  0  0  0  0  0  0  0  0
    0.5369    2.6200    0.0000 C   0  0  0  0  0  0  0  0  0  0  0  0
    4.0010    2.6200    0.0000 C   0  0  0  0  0  0  0  0  0  0  0  0
    2.2690    0.6200    0.0000 C   0  0  0  0  0  0  0  0  0  0  0  0
    2.9230    5.7026    0.0000 H   0  0  0  0  0  0  0  0  0  0  0  0
    2.5244    5.0123    0.0000 H   0  0  0  0  0  0  0  0  0  0  0  0
    3.7890    7.2026    0.0000 H   0  0  0  0  0  0  0  0  0  0  0  0
    3.3905    6.5123    0.0000 H   0  0  0  0  0  0  0  0  0  0  0  0
    4.4685    4.6450    0.0000 H   0  0  0  0  0  0  0  0  0  0  0  0
    5.2656    4.6450    0.0000 H   0  0  0  0  0  0  0  0  0  0  0  0
    1.7320    3.9300    0.0000 H   0  0  0  0  0  0  0  0  0  0  0  0
    6.0431    5.0831    0.0000 H   0  0  0  0  0  0  0  0  0  0  0  0
    5.1771    6.5831    0.0000 H   0  0  0  0  0  0  0  0  0  0  0  0
    5.4040    7.4300    0.0000 H   0  0  0  0  0  0  0  0  0  0  0  0
    4.5571    7.6569    0.0000 H   0  0  0  0  0  0  0  0  0  0  0  0
    6.2700    5.9300    0.0000 H   0  0  0  0  0  0  0  0  0  0  0  0
    5.4231    6.1569    0.0000 H   0  0  0  0  0  0  0  0  0  0  0  0
    0.8660    0.8100    0.0000 H   0  0  0  0  0  0  0  0  0  0  0  0
    3.6720    0.8100    0.0000 H   0  0  0  0  0  0  0  0  0  0  0  0
    0.8469    3.1569    0.0000 H   0  0  0  0  0  0  0  0  0  0  0  0
    0.0000    2.9300    0.0000 H   0  0  0  0  0  0  0  0  0  0  0  0
    0.2269    2.0831    0.0000 H   0  0  0  0  0  0  0  0  0  0  0  0
    4.3110    2.0831    0.0000 H   0  0  0  0  0  0  0  0  0  0  0  0
    4.5380    2.9300    0.0000 H   0  0  0  0  0  0  0  0  0  0  0  0
    3.6910    3.1569    0.0000 H   0  0  0  0  0  0  0  0  0  0  0  0
    2.2690    0.0000    0.0000 H   0  0  0  0  0  0  0  0  0  0  0  0
    9.2700    3.5785    0.0000 H   0  0  0  0  0  0  0  0  0  0  0  0
  1 41  1  0  0  0  0
  2  9  2  0  0  0  0
  3  5  1  0  0  0  0
  3  6  1  0  0  0  0
  3  7  1  0  0  0  0
  4  8  1  0  0  0  0
  4  9  1  0  0  0  0
  4 25  1  0  0  0  0
  5  9  1  0  0  0  0
  5 19  1  0  0  0  0
  5 20  1  0  0  0  0
  6 12  1  0  0  0  0
  6 21  1  0  0  0  0
  6 22  1  0  0  0  0
  7 13  1  0  0  0  0
  7 23  1  0  0  0  0
  7 24  1  0  0  0  0
  8 10  2  0  0  0  0
  8 11  1  0  0  0  0
 10 14  1  0  0  0  0
 10 16  1  0  0  0  0
 11 15  2  0  0  0  0
 11 17  1  0  0  0  0
 12 27  1  0  0  0  0
 12 28  1  0  0  0  0
 12 29  1  0  0  0  0
 13 26  1  0  0  0  0
 13 30  1  0  0  0  0
 13 31  1  0  0  0  0
 14 18  2  0  0  0  0
 14 32  1  0  0  0  0
 15 18  1  0  0  0  0
 15 33  1  0  0  0  0
 16 34  1  0  0  0  0
 16 35  1  0  0  0  0
 16 36  1  0  0  0  0
 17 37  1  0  0  0  0
 17 38  1  0  0  0  0
 17 39  1  0  0  0  0
 18 40  1  0  0  0  0
M  END
> <PUBCHEM_COMPOUND_CID>
6314

> <PUBCHEM_COMPOUND_CANONICALIZED>
1

> <PUBCHEM_CACTVS_COMPLEXITY>
228

> <PUBCHEM_CACTVS_HBOND_ACCEPTOR>
2

> <PUBCHEM_CACTVS_HBOND_DONOR>
2

> <PUBCHEM_CACTVS_ROTATABLE_BOND>
5

> <PUBCHEM_CACTVS_SUBSKEYS>
AAADceBzIAAEAAAAAAAAAAAAAAAAAAAAAAAwAAAAAAAAAAABAAAAHgAQAAAADAjBmAQywIPAAACIAiVSUACCAAAhAAAIiACIRIgIYCLAkbGUIAhglADIyAcQgEAOAAACAAACAAAAAAQAAAQAAAAAAAAAAA==

> <PUBCHEM_IUPAC_OPENEYE_NAME>
2-(diethylamino)-N-(2,6-dimethylphenyl)acetamide hydrochloride

> <PUBCHEM_IUPAC_CAS_NAME>
2-(diethylamino)-N-(2,6-dimethylphenyl)acetamide hydrochloride

> <PUBCHEM_IUPAC_NAME>
2-(diethylamino)-N-(2,6-dimethylphenyl)acetamide hydrochloride

> <PUBCHEM_IUPAC_SYSTEMATIC_NAME>
2-(diethylamino)-N-(2,6-dimethylphenyl)ethanamide hydrochloride

> <PUBCHEM_IUPAC_TRADITIONAL_NAME>
2-(diethylamino)-N-(2,6-dimethylphenyl)acetamide hydrochloride

> <PUBCHEM_IUPAC_INCHI>
InChI=1S/C14H22N2O.ClH/c1-5-16(6-2)10-13(17)15-14-11(3)8-7-9-12(14)4;/h7-9H,5-6,10H2,1-4H3,(H,15,17);1H

> <PUBCHEM_IUPAC_INCHIKEY>
IYBQHJMYDGVZRY-UHFFFAOYSA-N

> <PUBCHEM_EXACT_MASS>
270.149891

> <PUBCHEM_MOLECULAR_FORMULA>
C14H23ClN2O

> <PUBCHEM_MOLECULAR_WEIGHT>
270.79822

> <PUBCHEM_OPENEYE_CAN_SMILES>
CCN(CC)CC(=O)NC1=C(C=CC=C1C)C.Cl

> <PUBCHEM_OPENEYE_ISO_SMILES>
CCN(CC)CC(=O)NC1=C(C=CC=C1C)C.Cl

> <PUBCHEM_CACTVS_TPSA>
32.3

> <PUBCHEM_MONOISOTOPIC_WEIGHT>
270.149891

> <PUBCHEM_TOTAL_CHARGE>
0

> <PUBCHEM_HEAVY_ATOM_COUNT>
18

> <PUBCHEM_ATOM_DEF_STEREO_COUNT>
0

> <PUBCHEM_ATOM_UDEF_STEREO_COUNT>
0

> <PUBCHEM_BOND_DEF_STEREO_COUNT>
0

> <PUBCHEM_BOND_UDEF_STEREO_COUNT>
0

> <PUBCHEM_ISOTOPIC_ATOM_COUNT>
0

> <PUBCHEM_COMPONENT_COUNT>
2

> <PUBCHEM_CACTVS_TAUTO_COUNT>
3

> <PUBCHEM_COORDINATE_TYPE>
1
5
255

> <PUBCHEM_BONDANNOTATIONS>
10  14  8
11  15  8
14  18  8
15  18  8
8  10  8
8  11  8

$$$$

