17395474
  -OEChem-06241222502D

 37 37  0     1  0  0  0  0  0999 V2000
    6.8747    1.9804    0.0000 O   0  0  0  0  0  0  0  0  0  0  0  0
   10.9250   -0.9623    0.0000 O   0  5  0  0  0  0  0  0  0  0  0  0
    9.5237   -1.9804    0.0000 O   0  0  0  0  0  0  0  0  0  0  0  0
    6.3395    0.3331    0.0000 N   0  0  0  0  0  0  0  0  0  0  0  0
    8.8427    1.2810    0.0000 N   0  0  0  0  0  0  0  0  0  0  0  0
    9.9305   -1.0668    0.0000 N   0  3  0  0  0  0  0  0  0  0  0  0
    4.6453   -0.0270    0.0000 C   0  0  0  0  0  0  0  0  0  0  0  0
    3.6942    0.2820    0.0000 C   0  0  0  0  0  0  0  0  0  0  0  0
    5.3884    0.6421    0.0000 C   0  0  3  0  0  0  0  0  0  0  0  0
    2.9511   -0.3871    0.0000 C   0  0  0  0  0  0  0  0  0  0  0  0
    5.1805    1.6203    0.0000 C   0  0  0  0  0  0  0  0  0  0  0  0
    2.0000   -0.0781    0.0000 C   0  0  0  0  0  0  0  0  0  0  0  0
    3.1590   -1.3653    0.0000 C   0  0  0  0  0  0  0  0  0  0  0  0
    7.0826    1.0022    0.0000 C   0  0  0  0  0  0  0  0  0  0  0  0
    8.0337    0.6932    0.0000 C   0  0  0  0  0  0  0  0  0  0  0  0
    8.3427   -0.2578    0.0000 C   0  0  0  0  0  0  0  0  0  0  0  0
    9.3427   -0.2578    0.0000 C   0  0  0  0  0  0  0  0  0  0  0  0
    9.6517    0.6932    0.0000 C   0  0  0  0  0  0  0  0  0  0  0  0
    4.3542   -0.5744    0.0000 H   0  0  0  0  0  0  0  0  0  0  0  0
    5.1338   -0.4087    0.0000 H   0  0  0  0  0  0  0  0  0  0  0  0
    3.9853    0.8294    0.0000 H   0  0  0  0  0  0  0  0  0  0  0  0
    3.2056    0.6637    0.0000 H   0  0  0  0  0  0  0  0  0  0  0  0
    5.5173    0.0357    0.0000 H   0  0  0  0  0  0  0  0  0  0  0  0
    2.4903   -0.8020    0.0000 H   0  0  0  0  0  0  0  0  0  0  0  0
    5.7869    1.7492    0.0000 H   0  0  0  0  0  0  0  0  0  0  0  0
    5.0516    2.2267    0.0000 H   0  0  0  0  0  0  0  0  0  0  0  0
    4.5740    1.4914    0.0000 H   0  0  0  0  0  0  0  0  0  0  0  0
    2.5525   -1.4942    0.0000 H   0  0  0  0  0  0  0  0  0  0  0  0
    2.1916    0.5116    0.0000 H   0  0  0  0  0  0  0  0  0  0  0  0
    1.4103    0.1135    0.0000 H   0  0  0  0  0  0  0  0  0  0  0  0
    1.8084   -0.6678    0.0000 H   0  0  0  0  0  0  0  0  0  0  0  0
    3.2879   -1.9717    0.0000 H   0  0  0  0  0  0  0  0  0  0  0  0
    3.7654   -1.2364    0.0000 H   0  0  0  0  0  0  0  0  0  0  0  0
    6.4684   -0.2733    0.0000 H   0  0  0  0  0  0  0  0  0  0  0  0
    7.9782   -0.7594    0.0000 H   0  0  0  0  0  0  0  0  0  0  0  0
    8.8427    1.9010    0.0000 H   0  0  0  0  0  0  0  0  0  0  0  0
   10.2413    0.8848    0.0000 H   0  0  0  0  0  0  0  0  0  0  0  0
  1 14  2  0  0  0  0
  2  6  1  0  0  0  0
  3  6  2  0  0  0  0
  4  9  1  0  0  0  0
  4 14  1  0  0  0  0
  4 34  1  0  0  0  0
  5 15  1  0  0  0  0
  5 18  1  0  0  0  0
  5 36  1  0  0  0  0
  6 17  1  0  0  0  0
  7  8  1  0  0  0  0
  7  9  1  0  0  0  0
  7 19  1  0  0  0  0
  7 20  1  0  0  0  0
  8 10  1  0  0  0  0
  8 21  1  0  0  0  0
  8 22  1  0  0  0  0
  9 11  1  0  0  0  0
  9 23  1  0  0  0  0
 10 12  1  0  0  0  0
 10 13  1  0  0  0  0
 10 24  1  0  0  0  0
 11 25  1  0  0  0  0
 11 26  1  0  0  0  0
 11 27  1  0  0  0  0
 12 29  1  0  0  0  0
 12 30  1  0  0  0  0
 12 31  1  0  0  0  0
 13 28  1  0  0  0  0
 13 32  1  0  0  0  0
 13 33  1  0  0  0  0
 14 15  1  0  0  0  0
 15 16  2  0  0  0  0
 16 17  1  0  0  0  0
 16 35  1  0  0  0  0
 17 18  2  0  0  0  0
 18 37  1  0  0  0  0
M  CHG  2   2  -1   6   1
M  END
> <PUBCHEM_COMPOUND_CID>
17395474

> <PUBCHEM_COMPOUND_CANONICALIZED>
1

> <PUBCHEM_CACTVS_COMPLEXITY>
301

> <PUBCHEM_CACTVS_HBOND_ACCEPTOR>
3

> <PUBCHEM_CACTVS_HBOND_DONOR>
2

> <PUBCHEM_CACTVS_ROTATABLE_BOND>
5

> <PUBCHEM_CACTVS_SUBSKEYS>
AAADceBzMAAAAAAAAAAAAAAAAAAAAWAAAAAAAAAAAAAAAAABgAAAHgAUAAAADSjBlgQ+wJLZ0ACpATV3VwCCgCA3EiAg2aG4dNoIYPLA1fGUBQhgloDIyYccAQAMAAAAAAAAAAAAAAAAAAAAAAAAAAAAAA==

> <PUBCHEM_IUPAC_OPENEYE_NAME>
N-(1,4-dimethylpentyl)-4-nitro-1H-pyrrole-2-carboxamide

> <PUBCHEM_IUPAC_CAS_NAME>
N-(5-methylhexan-2-yl)-4-nitro-1H-pyrrole-2-carboxamide

> <PUBCHEM_IUPAC_NAME>
N-(5-methylhexan-2-yl)-4-nitro-1H-pyrrole-2-carboxamide

> <PUBCHEM_IUPAC_SYSTEMATIC_NAME>
N-(5-methylhexan-2-yl)-4-nitro-1H-pyrrole-2-carboxamide

> <PUBCHEM_IUPAC_TRADITIONAL_NAME>
N-(1,4-dimethylpentyl)-4-nitro-1H-pyrrole-2-carboxamide

> <PUBCHEM_IUPAC_INCHI>
InChI=1S/C12H19N3O3/c1-8(2)4-5-9(3)14-12(16)11-6-10(7-13-11)15(17)18/h6-9,13H,4-5H2,1-3H3,(H,14,16)

> <PUBCHEM_IUPAC_INCHIKEY>
WOOMTWAQLAQZKM-UHFFFAOYSA-N

> <PUBCHEM_XLOGP3_AA>
2.6

> <PUBCHEM_EXACT_MASS>
253.142641

> <PUBCHEM_MOLECULAR_FORMULA>
C12H19N3O3

> <PUBCHEM_MOLECULAR_WEIGHT>
253.29756

> <PUBCHEM_OPENEYE_CAN_SMILES>
CC(C)CCC(C)NC(=O)C1=CC(=CN1)[N+](=O)[O-]

> <PUBCHEM_OPENEYE_ISO_SMILES>
CC(C)CCC(C)NC(=O)C1=CC(=CN1)[N+](=O)[O-]

> <PUBCHEM_CACTVS_TPSA>
90.7

> <PUBCHEM_MONOISOTOPIC_WEIGHT>
253.142641

> <PUBCHEM_TOTAL_CHARGE>
0

> <PUBCHEM_HEAVY_ATOM_COUNT>
18

> <PUBCHEM_ATOM_DEF_STEREO_COUNT>
0

> <PUBCHEM_ATOM_UDEF_STEREO_COUNT>
1

> <PUBCHEM_BOND_DEF_STEREO_COUNT>
0

> <PUBCHEM_BOND_UDEF_STEREO_COUNT>
0

> <PUBCHEM_ISOTOPIC_ATOM_COUNT>
0

> <PUBCHEM_COMPONENT_COUNT>
1

> <PUBCHEM_CACTVS_TAUTO_COUNT>
7

> <PUBCHEM_COORDINATE_TYPE>
1
5
255

> <PUBCHEM_BONDANNOTATIONS>
15  16  8
16  17  8
17  18  8
5  15  8
5  18  8
9  11  3

$$$$

