3602
  -OEChem-06251223322D

 56 58  0     1  0  0  0  0  0999 V2000
    3.3100    0.2321    0.0000 Si  0  0  3  0  0  0  0  0  0  0  0  0
    2.3100    0.2321    0.0000 O   0  0  0  0  0  0  0  0  0  0  0  0
    6.3100   -1.5000    0.0000 N   0  0  0  0  0  0  0  0  0  0  0  0
    3.3100   -0.7679    0.0000 C   0  0  0  0  0  0  0  0  0  0  0  0
    2.4440   -1.2680    0.0000 C   0  0  0  0  0  0  0  0  0  0  0  0
    4.1760   -1.2680    0.0000 C   0  0  0  0  0  0  0  0  0  0  0  0
    4.3100    0.2321    0.0000 C   0  0  0  0  0  0  0  0  0  0  0  0
    2.4440   -2.2680    0.0000 C   0  0  0  0  0  0  0  0  0  0  0  0
    4.1760   -2.2680    0.0000 C   0  0  0  0  0  0  0  0  0  0  0  0
    3.3100   -2.7680    0.0000 C   0  0  0  0  0  0  0  0  0  0  0  0
    4.8100   -0.6340    0.0000 C   0  0  0  0  0  0  0  0  0  0  0  0
    3.3100    1.2320    0.0000 C   0  0  0  0  0  0  0  0  0  0  0  0
    5.8100   -0.6340    0.0000 C   0  0  0  0  0  0  0  0  0  0  0  0
    5.8100   -2.3660    0.0000 C   0  0  0  0  0  0  0  0  0  0  0  0
    7.3100   -1.5000    0.0000 C   0  0  0  0  0  0  0  0  0  0  0  0
    6.3100   -3.2320    0.0000 C   0  0  0  0  0  0  0  0  0  0  0  0
    7.8100   -2.3660    0.0000 C   0  0  0  0  0  0  0  0  0  0  0  0
    7.3100   -3.2320    0.0000 C   0  0  0  0  0  0  0  0  0  0  0  0
    4.1760    1.7320    0.0000 C   0  0  0  0  0  0  0  0  0  0  0  0
    2.4440    1.7320    0.0000 C   0  0  0  0  0  0  0  0  0  0  0  0
    4.1760    2.7320    0.0000 C   0  0  0  0  0  0  0  0  0  0  0  0
    2.4440    2.7320    0.0000 C   0  0  0  0  0  0  0  0  0  0  0  0
    3.3100    3.2320    0.0000 C   0  0  0  0  0  0  0  0  0  0  0  0
    3.8469   -0.4579    0.0000 H   0  0  0  0  0  0  0  0  0  0  0  0
    2.2319   -0.6853    0.0000 H   0  0  0  0  0  0  0  0  0  0  0  0
    1.8334   -1.3756    0.0000 H   0  0  0  0  0  0  0  0  0  0  0  0
    4.7866   -1.3756    0.0000 H   0  0  0  0  0  0  0  0  0  0  0  0
    4.3881   -0.6853    0.0000 H   0  0  0  0  0  0  0  0  0  0  0  0
    4.8926    0.4441    0.0000 H   0  0  0  0  0  0  0  0  0  0  0  0
    4.2023    0.8426    0.0000 H   0  0  0  0  0  0  0  0  0  0  0  0
    1.8334   -2.1603    0.0000 H   0  0  0  0  0  0  0  0  0  0  0  0
    2.2319   -2.8506    0.0000 H   0  0  0  0  0  0  0  0  0  0  0  0
    4.3881   -2.8506    0.0000 H   0  0  0  0  0  0  0  0  0  0  0  0
    4.7866   -2.1603    0.0000 H   0  0  0  0  0  0  0  0  0  0  0  0
    2.9115   -3.2429    0.0000 H   0  0  0  0  0  0  0  0  0  0  0  0
    3.7085   -3.2429    0.0000 H   0  0  0  0  0  0  0  0  0  0  0  0
    4.2274   -0.8460    0.0000 H   0  0  0  0  0  0  0  0  0  0  0  0
    4.9177   -1.2446    0.0000 H   0  0  0  0  0  0  0  0  0  0  0  0
    6.3926   -0.4219    0.0000 H   0  0  0  0  0  0  0  0  0  0  0  0
    5.7023   -0.0234    0.0000 H   0  0  0  0  0  0  0  0  0  0  0  0
    2.0000    0.7690    0.0000 H   0  0  0  0  0  0  0  0  0  0  0  0
    5.3350   -1.9675    0.0000 H   0  0  0  0  0  0  0  0  0  0  0  0
    5.3350   -2.7646    0.0000 H   0  0  0  0  0  0  0  0  0  0  0  0
    7.8926   -1.2880    0.0000 H   0  0  0  0  0  0  0  0  0  0  0  0
    7.2023   -0.8894    0.0000 H   0  0  0  0  0  0  0  0  0  0  0  0
    5.7274   -3.4441    0.0000 H   0  0  0  0  0  0  0  0  0  0  0  0
    6.4177   -3.8426    0.0000 H   0  0  0  0  0  0  0  0  0  0  0  0
    8.2850   -2.7646    0.0000 H   0  0  0  0  0  0  0  0  0  0  0  0
    8.2850   -1.9675    0.0000 H   0  0  0  0  0  0  0  0  0  0  0  0
    7.2023   -3.8426    0.0000 H   0  0  0  0  0  0  0  0  0  0  0  0
    7.8926   -3.4441    0.0000 H   0  0  0  0  0  0  0  0  0  0  0  0
    4.7130    1.4220    0.0000 H   0  0  0  0  0  0  0  0  0  0  0  0
    1.9070    1.4220    0.0000 H   0  0  0  0  0  0  0  0  0  0  0  0
    4.7130    3.0420    0.0000 H   0  0  0  0  0  0  0  0  0  0  0  0
    1.9070    3.0420    0.0000 H   0  0  0  0  0  0  0  0  0  0  0  0
    3.3100    3.8520    0.0000 H   0  0  0  0  0  0  0  0  0  0  0  0
  1  2  1  0  0  0  0
  1  4  1  0  0  0  0
  1  7  1  0  0  0  0
  1 12  1  0  0  0  0
  2 41  1  0  0  0  0
  3 13  1  0  0  0  0
  3 14  1  0  0  0  0
  3 15  1  0  0  0  0
  4  5  1  0  0  0  0
  4  6  1  0  0  0  0
  4 24  1  0  0  0  0
  5  8  1  0  0  0  0
  5 25  1  0  0  0  0
  5 26  1  0  0  0  0
  6  9  1  0  0  0  0
  6 27  1  0  0  0  0
  6 28  1  0  0  0  0
  7 11  1  0  0  0  0
  7 29  1  0  0  0  0
  7 30  1  0  0  0  0
  8 10  1  0  0  0  0
  8 31  1  0  0  0  0
  8 32  1  0  0  0  0
  9 10  1  0  0  0  0
  9 33  1  0  0  0  0
  9 34  1  0  0  0  0
 10 35  1  0  0  0  0
 10 36  1  0  0  0  0
 11 13  1  0  0  0  0
 11 37  1  0  0  0  0
 11 38  1  0  0  0  0
 12 19  2  0  0  0  0
 12 20  1  0  0  0  0
 13 39  1  0  0  0  0
 13 40  1  0  0  0  0
 14 16  1  0  0  0  0
 14 42  1  0  0  0  0
 14 43  1  0  0  0  0
 15 17  1  0  0  0  0
 15 44  1  0  0  0  0
 15 45  1  0  0  0  0
 16 18  1  0  0  0  0
 16 46  1  0  0  0  0
 16 47  1  0  0  0  0
 17 18  1  0  0  0  0
 17 48  1  0  0  0  0
 17 49  1  0  0  0  0
 18 50  1  0  0  0  0
 18 51  1  0  0  0  0
 19 21  1  0  0  0  0
 19 52  1  0  0  0  0
 20 22  2  0  0  0  0
 20 53  1  0  0  0  0
 21 23  2  0  0  0  0
 21 54  1  0  0  0  0
 22 23  1  0  0  0  0
 22 55  1  0  0  0  0
 23 56  1  0  0  0  0
M  END
> <PUBCHEM_COMPOUND_CID>
3602

> <PUBCHEM_COMPOUND_CANONICALIZED>
1

> <PUBCHEM_CACTVS_COMPLEXITY>
333

> <PUBCHEM_CACTVS_HBOND_ACCEPTOR>
2

> <PUBCHEM_CACTVS_HBOND_DONOR>
1

> <PUBCHEM_CACTVS_ROTATABLE_BOND>
6

> <PUBCHEM_CACTVS_SUBSKEYS>
AAADcfB6IAgAAAAAAAAAAAAAAAAAAAAAAAA8YIAAAAAAAAABAAAAHBAACEAACADBMARwAIMAAAGAACBCAAACAAAgAAAIiAAIAIgIICKAkRCEIAAggACIiAcQAAAAAAAAAAAAAAAAAAAAAAAAAAAAAAAAAA==

> <PUBCHEM_IUPAC_OPENEYE_NAME>
cyclohexyl-hydroxy-phenyl-[3-(1-piperidyl)propyl]silane

> <PUBCHEM_IUPAC_CAS_NAME>
cyclohexyl-hydroxy-phenyl-[3-(1-piperidinyl)propyl]silane

> <PUBCHEM_IUPAC_NAME>
cyclohexyl-hydroxy-phenyl-(3-piperidin-1-ylpropyl)silane

> <PUBCHEM_IUPAC_SYSTEMATIC_NAME>
cyclohexyl-oxidanyl-phenyl-(3-piperidin-1-ylpropyl)silane

> <PUBCHEM_IUPAC_TRADITIONAL_NAME>
cyclohexyl-hydroxy-phenyl-(3-piperidinopropyl)silane

> <PUBCHEM_IUPAC_INCHI>
InChI=1S/C20H33NOSi/c22-23(19-11-4-1-5-12-19,20-13-6-2-7-14-20)18-10-17-21-15-8-3-9-16-21/h1,4-5,11-12,20,22H,2-3,6-10,13-18H2

> <PUBCHEM_IUPAC_INCHIKEY>
QTBCATBNRIYMPB-UHFFFAOYSA-N

> <PUBCHEM_EXACT_MASS>
331.233141

> <PUBCHEM_MOLECULAR_FORMULA>
C20H33NOSi

> <PUBCHEM_MOLECULAR_WEIGHT>
331.56762

> <PUBCHEM_OPENEYE_CAN_SMILES>
C1CCC(CC1)[Si](CCCN2CCCCC2)(C3=CC=CC=C3)O

> <PUBCHEM_OPENEYE_ISO_SMILES>
C1CCC(CC1)[Si](CCCN2CCCCC2)(C3=CC=CC=C3)O

> <PUBCHEM_CACTVS_TPSA>
23.5

> <PUBCHEM_MONOISOTOPIC_WEIGHT>
331.233141

> <PUBCHEM_TOTAL_CHARGE>
0

> <PUBCHEM_HEAVY_ATOM_COUNT>
23

> <PUBCHEM_ATOM_DEF_STEREO_COUNT>
0

> <PUBCHEM_ATOM_UDEF_STEREO_COUNT>
1

> <PUBCHEM_BOND_DEF_STEREO_COUNT>
0

> <PUBCHEM_BOND_UDEF_STEREO_COUNT>
0

> <PUBCHEM_ISOTOPIC_ATOM_COUNT>
0

> <PUBCHEM_COMPONENT_COUNT>
1

> <PUBCHEM_CACTVS_TAUTO_COUNT>
1

> <PUBCHEM_COORDINATE_TYPE>
1
5
255

> <PUBCHEM_BONDANNOTATIONS>
1  2  3
12  19  8
12  20  8
19  21  8
20  22  8
21  23  8
22  23  8

$$$$

