9854
  -OEChem-06261204082D

 22 21  0     0  0  0  0  0  0999 V2000
    2.0000   -0.6550    0.0000 F   0  0  0  0  0  0  0  0  0  0  0  0
    5.4641   -0.6550    0.0000 C   0  0  0  0  0  0  0  0  0  0  0  0
    4.5981   -0.1550    0.0000 C   0  0  0  0  0  0  0  0  0  0  0  0
    6.3301   -0.1550    0.0000 C   0  0  0  0  0  0  0  0  0  0  0  0
    3.7320   -0.6550    0.0000 C   0  0  0  0  0  0  0  0  0  0  0  0
    7.1962   -0.6550    0.0000 C   0  0  0  0  0  0  0  0  0  0  0  0
    2.8660   -0.1550    0.0000 C   0  0  0  0  0  0  0  0  0  0  0  0
    8.0622   -0.1550    0.0000 C   0  0  0  0  0  0  0  0  0  0  0  0
    8.9282    0.3450    0.0000 C   0  0  0  0  0  0  0  0  0  0  0  0
    5.0656   -1.1300    0.0000 H   0  0  0  0  0  0  0  0  0  0  0  0
    5.8626   -1.1300    0.0000 H   0  0  0  0  0  0  0  0  0  0  0  0
    4.9966    0.3199    0.0000 H   0  0  0  0  0  0  0  0  0  0  0  0
    4.1996    0.3199    0.0000 H   0  0  0  0  0  0  0  0  0  0  0  0
    6.7287    0.3199    0.0000 H   0  0  0  0  0  0  0  0  0  0  0  0
    5.9316    0.3199    0.0000 H   0  0  0  0  0  0  0  0  0  0  0  0
    3.3335   -1.1300    0.0000 H   0  0  0  0  0  0  0  0  0  0  0  0
    4.1306   -1.1300    0.0000 H   0  0  0  0  0  0  0  0  0  0  0  0
    6.7976   -1.1300    0.0000 H   0  0  0  0  0  0  0  0  0  0  0  0
    7.5947   -1.1300    0.0000 H   0  0  0  0  0  0  0  0  0  0  0  0
    3.2646    0.3199    0.0000 H   0  0  0  0  0  0  0  0  0  0  0  0
    2.4675    0.3199    0.0000 H   0  0  0  0  0  0  0  0  0  0  0  0
    9.4651    0.6550    0.0000 H   0  0  0  0  0  0  0  0  0  0  0  0
  1  7  1  0  0  0  0
  2  3  1  0  0  0  0
  2  4  1  0  0  0  0
  2 10  1  0  0  0  0
  2 11  1  0  0  0  0
  3  5  1  0  0  0  0
  3 12  1  0  0  0  0
  3 13  1  0  0  0  0
  4  6  1  0  0  0  0
  4 14  1  0  0  0  0
  4 15  1  0  0  0  0
  5  7  1  0  0  0  0
  5 16  1  0  0  0  0
  5 17  1  0  0  0  0
  6  8  1  0  0  0  0
  6 18  1  0  0  0  0
  6 19  1  0  0  0  0
  7 20  1  0  0  0  0
  7 21  1  0  0  0  0
  8  9  3  0  0  0  0
  9 22  1  0  0  0  0
M  END
> <PUBCHEM_COMPOUND_CID>
9854

> <PUBCHEM_COMPOUND_CANONICALIZED>
1

> <PUBCHEM_CACTVS_COMPLEXITY>
88

> <PUBCHEM_CACTVS_HBOND_ACCEPTOR>
1

> <PUBCHEM_CACTVS_HBOND_DONOR>
0

> <PUBCHEM_CACTVS_ROTATABLE_BOND>
5

> <PUBCHEM_CACTVS_SUBSKEYS>
AAADccBwAQAAAAAAAAAAAAAAAAAAAAAAAAAAAAAAAAAAAAAAAAAAGQAAAAAACACAAAAAAAAAAABAGAAAAAgAAAAAAAAAAAAAAAAAAAIAAAAAAAAAAAAAAAEAgAAAAAAAAAAAAAAAAAAAAAAAAAAAAAAAAA==

> <PUBCHEM_IUPAC_OPENEYE_NAME>
8-fluorooct-1-yne

> <PUBCHEM_IUPAC_CAS_NAME>
8-fluoro-1-octyne

> <PUBCHEM_IUPAC_NAME>
8-fluorooct-1-yne

> <PUBCHEM_IUPAC_SYSTEMATIC_NAME>
8-fluoranyloct-1-yne

> <PUBCHEM_IUPAC_TRADITIONAL_NAME>
8-fluorooct-1-yne

> <PUBCHEM_IUPAC_INCHI>
InChI=1S/C8H13F/c1-2-3-4-5-6-7-8-9/h1H,3-8H2

> <PUBCHEM_IUPAC_INCHIKEY>
ZNVKRVWGRGBKGK-UHFFFAOYSA-N

> <PUBCHEM_XLOGP3_AA>
2.9

> <PUBCHEM_EXACT_MASS>
128.100129

> <PUBCHEM_MOLECULAR_FORMULA>
C8H13F

> <PUBCHEM_MOLECULAR_WEIGHT>
128.187223

> <PUBCHEM_OPENEYE_CAN_SMILES>
C#CCCCCCCF

> <PUBCHEM_OPENEYE_ISO_SMILES>
C#CCCCCCCF

> <PUBCHEM_CACTVS_TPSA>
0

> <PUBCHEM_MONOISOTOPIC_WEIGHT>
128.100129

> <PUBCHEM_TOTAL_CHARGE>
0

> <PUBCHEM_HEAVY_ATOM_COUNT>
9

> <PUBCHEM_ATOM_DEF_STEREO_COUNT>
0

> <PUBCHEM_ATOM_UDEF_STEREO_COUNT>
0

> <PUBCHEM_BOND_DEF_STEREO_COUNT>
0

> <PUBCHEM_BOND_UDEF_STEREO_COUNT>
0

> <PUBCHEM_ISOTOPIC_ATOM_COUNT>
0

> <PUBCHEM_COMPONENT_COUNT>
1

> <PUBCHEM_CACTVS_TAUTO_COUNT>
1

> <PUBCHEM_COORDINATE_TYPE>
1
5
255

$$$$

