9202
  -OEChem-06261203302D

 28 31  0     0  0  0  0  0  0999 V2000
    4.5124    1.1166    0.0000 N   0  0  0  0  0  0  0  0  0  0  0  0
    5.0091   -0.4167    0.0000 C   0  0  0  0  0  0  0  0  0  0  0  0
    5.3181    0.5344    0.0000 C   0  0  0  0  0  0  0  0  0  0  0  0
    4.0150   -0.4141    0.0000 C   0  0  0  0  0  0  0  0  0  0  0  0
    3.7086    0.5316    0.0000 C   0  0  0  0  0  0  0  0  0  0  0  0
    5.6782   -1.1598    0.0000 C   0  0  0  0  0  0  0  0  0  0  0  0
    6.6564   -0.9519    0.0000 C   0  0  0  0  0  0  0  0  0  0  0  0
    6.9654   -0.0008    0.0000 C   0  0  0  0  0  0  0  0  0  0  0  0
    6.2962    0.7423    0.0000 C   0  0  0  0  0  0  0  0  0  0  0  0
    3.3334   -1.1936    0.0000 C   0  0  0  0  0  0  0  0  0  0  0  0
    2.6994    0.7634    0.0000 C   0  0  0  0  0  0  0  0  0  0  0  0
    7.3413   -1.7366    0.0000 C   0  0  0  0  0  0  0  0  0  0  0  0
    7.9808    0.2314    0.0000 C   0  0  0  0  0  0  0  0  0  0  0  0
    2.3191   -0.9852    0.0000 C   0  0  0  0  0  0  0  0  0  0  0  0
    2.0000   -0.0002    0.0000 C   0  0  0  0  0  0  0  0  0  0  0  0
    8.3618   -1.5279    0.0000 C   0  0  0  0  0  0  0  0  0  0  0  0
    8.6837   -0.5373    0.0000 C   0  0  0  0  0  0  0  0  0  0  0  0
    4.5113    1.7366    0.0000 H   0  0  0  0  0  0  0  0  0  0  0  0
    5.4866   -1.7494    0.0000 H   0  0  0  0  0  0  0  0  0  0  0  0
    6.4878    1.3320    0.0000 H   0  0  0  0  0  0  0  0  0  0  0  0
    3.5313   -1.7811    0.0000 H   0  0  0  0  0  0  0  0  0  0  0  0
    2.5152    1.3554    0.0000 H   0  0  0  0  0  0  0  0  0  0  0  0
    7.1429   -2.3240    0.0000 H   0  0  0  0  0  0  0  0  0  0  0  0
    8.1655    0.8233    0.0000 H   0  0  0  0  0  0  0  0  0  0  0  0
    1.9056   -1.4472    0.0000 H   0  0  0  0  0  0  0  0  0  0  0  0
    1.3942    0.1316    0.0000 H   0  0  0  0  0  0  0  0  0  0  0  0
    8.7749   -1.9903    0.0000 H   0  0  0  0  0  0  0  0  0  0  0  0
    9.2897   -0.4060    0.0000 H   0  0  0  0  0  0  0  0  0  0  0  0
  1  3  1  0  0  0  0
  1  5  1  0  0  0  0
  1 18  1  0  0  0  0
  2  3  1  0  0  0  0
  2  4  1  0  0  0  0
  2  6  2  0  0  0  0
  3  9  2  0  0  0  0
  4  5  1  0  0  0  0
  4 10  2  0  0  0  0
  5 11  2  0  0  0  0
  6  7  1  0  0  0  0
  6 19  1  0  0  0  0
  7  8  1  0  0  0  0
  7 12  2  0  0  0  0
  8  9  1  0  0  0  0
  8 13  2  0  0  0  0
  9 20  1  0  0  0  0
 10 14  1  0  0  0  0
 10 21  1  0  0  0  0
 11 15  1  0  0  0  0
 11 22  1  0  0  0  0
 12 16  1  0  0  0  0
 12 23  1  0  0  0  0
 13 17  1  0  0  0  0
 13 24  1  0  0  0  0
 14 15  2  0  0  0  0
 14 25  1  0  0  0  0
 15 26  1  0  0  0  0
 16 17  2  0  0  0  0
 16 27  1  0  0  0  0
 17 28  1  0  0  0  0
M  END
> <PUBCHEM_COMPOUND_CID>
9202

> <PUBCHEM_COMPOUND_CANONICALIZED>
1

> <PUBCHEM_CACTVS_COMPLEXITY>
287

> <PUBCHEM_CACTVS_HBOND_ACCEPTOR>
0

> <PUBCHEM_CACTVS_HBOND_DONOR>
1

> <PUBCHEM_CACTVS_ROTATABLE_BOND>
0

> <PUBCHEM_CACTVS_SUBSKEYS>
AAADccB6AAAAAAAAAAAAAAAAAAAAAWAAAAAwYMAAAAAAAFjB/AAAHAAQAAAADAiBHgAwwPLJkACgAyRiRACCgCAhAiAImSAwZJgIIOLAkZGEIAhgkADIyAcQgMAOyAACQAASAACQAASAACQAAAAAAAAAAA==

> <PUBCHEM_IUPAC_OPENEYE_NAME>
5H-benzo[b]carbazole

> <PUBCHEM_IUPAC_CAS_NAME>
5H-benzo[b]carbazole

> <PUBCHEM_IUPAC_NAME>
5H-benzo[b]carbazole

> <PUBCHEM_IUPAC_SYSTEMATIC_NAME>
5H-benzo[b]carbazole

> <PUBCHEM_IUPAC_TRADITIONAL_NAME>
5H-benzo[b]carbazole

> <PUBCHEM_IUPAC_INCHI>
InChI=1S/C16H11N/c1-2-6-12-10-16-14(9-11(12)5-1)13-7-3-4-8-15(13)17-16/h1-10,17H

> <PUBCHEM_IUPAC_INCHIKEY>
ROEOVWIEALGNLM-UHFFFAOYSA-N

> <PUBCHEM_XLOGP3_AA>
4.3

> <PUBCHEM_EXACT_MASS>
217.089149

> <PUBCHEM_MOLECULAR_FORMULA>
C16H11N

> <PUBCHEM_MOLECULAR_WEIGHT>
217.26524

> <PUBCHEM_OPENEYE_CAN_SMILES>
C1=CC=C2C=C3C(=CC2=C1)C4=CC=CC=C4N3

> <PUBCHEM_OPENEYE_ISO_SMILES>
C1=CC=C2C=C3C(=CC2=C1)C4=CC=CC=C4N3

> <PUBCHEM_CACTVS_TPSA>
15.8

> <PUBCHEM_MONOISOTOPIC_WEIGHT>
217.089149

> <PUBCHEM_TOTAL_CHARGE>
0

> <PUBCHEM_HEAVY_ATOM_COUNT>
17

> <PUBCHEM_ATOM_DEF_STEREO_COUNT>
0

> <PUBCHEM_ATOM_UDEF_STEREO_COUNT>
0

> <PUBCHEM_BOND_DEF_STEREO_COUNT>
0

> <PUBCHEM_BOND_UDEF_STEREO_COUNT>
0

> <PUBCHEM_ISOTOPIC_ATOM_COUNT>
0

> <PUBCHEM_COMPONENT_COUNT>
1

> <PUBCHEM_CACTVS_TAUTO_COUNT>
1

> <PUBCHEM_COORDINATE_TYPE>
1
5
255

> <PUBCHEM_BONDANNOTATIONS>
1  3  8
1  5  8
10  14  8
11  15  8
12  16  8
13  17  8
14  15  8
16  17  8
2  3  8
2  4  8
2  6  8
3  9  8
4  10  8
4  5  8
5  11  8
6  7  8
7  12  8
7  8  8
8  13  8
8  9  8

$$$$

