51090927
  -OEChem-06241223002D

 42 43  0     1  0  0  0  0  0999 V2000
   10.0829    3.9250    0.0000 F   0  0  0  0  0  0  0  0  0  0  0  0
   10.3041    2.5282    0.0000 F   0  0  0  0  0  0  0  0  0  0  0  0
    8.6861    3.7037    0.0000 F   0  0  0  0  0  0  0  0  0  0  0  0
    3.7320    0.5750    0.0000 O   0  0  0  0  0  0  0  0  0  0  0  0
    2.8660   -3.9250    0.0000 O   0  5  0  0  0  0  0  0  0  0  0  0
    2.0000   -2.4250    0.0000 O   0  0  0  0  0  0  0  0  0  0  0  0
    7.9128    2.4114    0.0000 N   0  0  3  0  0  0  0  0  0  0  0  0
    5.4641    0.5750    0.0000 N   0  0  0  0  0  0  0  0  0  0  0  0
    2.8660   -2.9250    0.0000 N   0  3  0  0  0  0  0  0  0  0  0  0
    6.3301    2.0750    0.0000 C   0  0  3  0  0  0  0  0  0  0  0  0
    6.4347    3.0696    0.0000 C   0  0  0  0  0  0  0  0  0  0  0  0
    7.2437    1.6683    0.0000 C   0  0  0  0  0  0  0  0  0  0  0  0
    7.4128    3.2775    0.0000 C   0  0  0  0  0  0  0  0  0  0  0  0
    5.4641    1.5750    0.0000 C   0  0  0  0  0  0  0  0  0  0  0  0
    8.9073    2.3069    0.0000 C   0  0  0  0  0  0  0  0  0  0  0  0
    9.4951    3.1159    0.0000 C   0  0  0  0  0  0  0  0  0  0  0  0
    4.5981    0.0750    0.0000 C   0  0  0  0  0  0  0  0  0  0  0  0
    4.5981   -0.9250    0.0000 C   0  0  0  0  0  0  0  0  0  0  0  0
    3.7320   -1.4250    0.0000 C   0  0  0  0  0  0  0  0  0  0  0  0
    5.4641   -1.4250    0.0000 C   0  0  0  0  0  0  0  0  0  0  0  0
    3.7320   -2.4250    0.0000 C   0  0  0  0  0  0  0  0  0  0  0  0
    2.8660   -0.9250    0.0000 C   0  0  0  0  0  0  0  0  0  0  0  0
    5.4641   -2.4250    0.0000 C   0  0  0  0  0  0  0  0  0  0  0  0
    4.5981   -2.9250    0.0000 C   0  0  0  0  0  0  0  0  0  0  0  0
    5.8102    2.4127    0.0000 H   0  0  0  0  0  0  0  0  0  0  0  0
    6.3698    3.6862    0.0000 H   0  0  0  0  0  0  0  0  0  0  0  0
    5.8147    3.0696    0.0000 H   0  0  0  0  0  0  0  0  0  0  0  0
    6.9337    1.1314    0.0000 H   0  0  0  0  0  0  0  0  0  0  0  0
    7.7453    1.3039    0.0000 H   0  0  0  0  0  0  0  0  0  0  0  0
    7.9792    3.5296    0.0000 H   0  0  0  0  0  0  0  0  0  0  0  0
    7.2212    3.8671    0.0000 H   0  0  0  0  0  0  0  0  0  0  0  0
    5.2520    2.1576    0.0000 H   0  0  0  0  0  0  0  0  0  0  0  0
    4.8535    1.4674    0.0000 H   0  0  0  0  0  0  0  0  0  0  0  0
    8.7364    1.7109    0.0000 H   0  0  0  0  0  0  0  0  0  0  0  0
    9.4646    2.0351    0.0000 H   0  0  0  0  0  0  0  0  0  0  0  0
    6.0010    0.2650    0.0000 H   0  0  0  0  0  0  0  0  0  0  0  0
    6.0010   -1.1150    0.0000 H   0  0  0  0  0  0  0  0  0  0  0  0
    3.1760   -0.3880    0.0000 H   0  0  0  0  0  0  0  0  0  0  0  0
    2.3291   -0.6150    0.0000 H   0  0  0  0  0  0  0  0  0  0  0  0
    2.5560   -1.4619    0.0000 H   0  0  0  0  0  0  0  0  0  0  0  0
    6.0010   -2.7350    0.0000 H   0  0  0  0  0  0  0  0  0  0  0  0
    4.5981   -3.5450    0.0000 H   0  0  0  0  0  0  0  0  0  0  0  0
  1 16  1  0  0  0  0
  2 16  1  0  0  0  0
  3 16  1  0  0  0  0
  4 17  2  0  0  0  0
  5  9  1  0  0  0  0
  6  9  2  0  0  0  0
  7 12  1  0  0  0  0
  7 13  1  0  0  0  0
  7 15  1  0  0  0  0
  8 14  1  0  0  0  0
  8 17  1  0  0  0  0
  8 36  1  0  0  0  0
  9 21  1  0  0  0  0
 10 11  1  0  0  0  0
 10 12  1  0  0  0  0
 10 14  1  0  0  0  0
 10 25  1  0  0  0  0
 11 13  1  0  0  0  0
 11 26  1  0  0  0  0
 11 27  1  0  0  0  0
 12 28  1  0  0  0  0
 12 29  1  0  0  0  0
 13 30  1  0  0  0  0
 13 31  1  0  0  0  0
 14 32  1  0  0  0  0
 14 33  1  0  0  0  0
 15 16  1  0  0  0  0
 15 34  1  0  0  0  0
 15 35  1  0  0  0  0
 17 18  1  0  0  0  0
 18 19  2  0  0  0  0
 18 20  1  0  0  0  0
 19 21  1  0  0  0  0
 19 22  1  0  0  0  0
 20 23  2  0  0  0  0
 20 37  1  0  0  0  0
 21 24  2  0  0  0  0
 22 38  1  0  0  0  0
 22 39  1  0  0  0  0
 22 40  1  0  0  0  0
 23 24  1  0  0  0  0
 23 41  1  0  0  0  0
 24 42  1  0  0  0  0
M  CHG  2   5  -1   9   1
M  END
> <PUBCHEM_COMPOUND_CID>
51090927

> <PUBCHEM_COMPOUND_CANONICALIZED>
1

> <PUBCHEM_CACTVS_COMPLEXITY>
467

> <PUBCHEM_CACTVS_HBOND_ACCEPTOR>
7

> <PUBCHEM_CACTVS_HBOND_DONOR>
1

> <PUBCHEM_CACTVS_ROTATABLE_BOND>
4

> <PUBCHEM_CACTVS_SUBSKEYS>
AAADceBzMYAAAAAAAAAAAAAAAAAAAWAAAAAwAAAAAAAAAAABAAAAHwAUAAAADQjBmBQywIPQQACJAiVSUwCCAAAkAgAoiIEIZMoIIDKA1ZGEIQhglgCIyYcciICOgAAAQAASAAAAAACAACQAAAAAAAAAAA==

> <PUBCHEM_IUPAC_OPENEYE_NAME>
2-methyl-3-nitro-N-[[1-(2,2,2-trifluoroethyl)pyrrolidin-3-yl]methyl]benzamide

> <PUBCHEM_IUPAC_CAS_NAME>
2-methyl-3-nitro-N-[[1-(2,2,2-trifluoroethyl)-3-pyrrolidinyl]methyl]benzamide

> <PUBCHEM_IUPAC_NAME>
2-methyl-3-nitro-N-[[1-(2,2,2-trifluoroethyl)pyrrolidin-3-yl]methyl]benzamide

> <PUBCHEM_IUPAC_SYSTEMATIC_NAME>
2-methyl-3-nitro-N-[[1-[2,2,2-tris(fluoranyl)ethyl]pyrrolidin-3-yl]methyl]benzamide

> <PUBCHEM_IUPAC_TRADITIONAL_NAME>
2-methyl-3-nitro-N-[[1-(2,2,2-trifluoroethyl)pyrrolidin-3-yl]methyl]benzamide

> <PUBCHEM_IUPAC_INCHI>
InChI=1S/C15H18F3N3O3/c1-10-12(3-2-4-13(10)21(23)24)14(22)19-7-11-5-6-20(8-11)9-15(16,17)18/h2-4,11H,5-9H2,1H3,(H,19,22)

> <PUBCHEM_IUPAC_INCHIKEY>
GQBHZNJAKYTMQC-UHFFFAOYSA-N

> <PUBCHEM_XLOGP3_AA>
2.9

> <PUBCHEM_EXACT_MASS>
345.130026

> <PUBCHEM_MOLECULAR_FORMULA>
C15H18F3N3O3

> <PUBCHEM_MOLECULAR_WEIGHT>
345.31693

> <PUBCHEM_OPENEYE_CAN_SMILES>
CC1=C(C=CC=C1[N+](=O)[O-])C(=O)NCC2CCN(C2)CC(F)(F)F

> <PUBCHEM_OPENEYE_ISO_SMILES>
CC1=C(C=CC=C1[N+](=O)[O-])C(=O)NCC2CCN(C2)CC(F)(F)F

> <PUBCHEM_CACTVS_TPSA>
78.2

> <PUBCHEM_MONOISOTOPIC_WEIGHT>
345.130026

> <PUBCHEM_TOTAL_CHARGE>
0

> <PUBCHEM_HEAVY_ATOM_COUNT>
24

> <PUBCHEM_ATOM_DEF_STEREO_COUNT>
0

> <PUBCHEM_ATOM_UDEF_STEREO_COUNT>
1

> <PUBCHEM_BOND_DEF_STEREO_COUNT>
0

> <PUBCHEM_BOND_UDEF_STEREO_COUNT>
0

> <PUBCHEM_ISOTOPIC_ATOM_COUNT>
0

> <PUBCHEM_COMPONENT_COUNT>
1

> <PUBCHEM_CACTVS_TAUTO_COUNT>
2

> <PUBCHEM_COORDINATE_TYPE>
1
5
255

> <PUBCHEM_BONDANNOTATIONS>
10  14  3
18  19  8
18  20  8
19  21  8
20  23  8
21  24  8
23  24  8

$$$$

