17396340
  -OEChem-06241222562D

 46 48  0     0  0  0  0  0  0999 V2000
    5.3147    2.7694    0.0000 S   0  0  0  0  0  0  0  0  0  0  0  0
    2.8660   -5.0670    0.0000 O   0  0  0  0  0  0  0  0  0  0  0  0
    6.8038    3.8445    0.0000 O   0  0  0  0  0  0  0  0  0  0  0  0
    2.8660    0.9330    0.0000 N   0  0  0  0  0  0  0  0  0  0  0  0
    2.8660   -1.0670    0.0000 N   0  0  0  0  0  0  0  0  0  0  0  0
    3.8366    3.4275    0.0000 N   0  0  0  0  0  0  0  0  0  0  0  0
    5.2215    4.5489    0.0000 N   0  0  0  0  0  0  0  0  0  0  0  0
    3.7320    0.4330    0.0000 C   0  0  0  0  0  0  0  0  0  0  0  0
    2.0000    0.4330    0.0000 C   0  0  0  0  0  0  0  0  0  0  0  0
    2.0000   -0.5670    0.0000 C   0  0  0  0  0  0  0  0  0  0  0  0
    3.7320   -0.5670    0.0000 C   0  0  0  0  0  0  0  0  0  0  0  0
    2.8660    1.9330    0.0000 C   0  0  0  0  0  0  0  0  0  0  0  0
    2.8660   -2.0670    0.0000 C   0  0  0  0  0  0  0  0  0  0  0  0
    3.7320    2.4330    0.0000 C   0  0  0  0  0  0  0  0  0  0  0  0
    2.0000   -2.5670    0.0000 C   0  0  0  0  0  0  0  0  0  0  0  0
    3.7320   -2.5670    0.0000 C   0  0  0  0  0  0  0  0  0  0  0  0
    4.6456    2.0262    0.0000 C   0  0  0  0  0  0  0  0  0  0  0  0
    2.0000   -3.5670    0.0000 C   0  0  0  0  0  0  0  0  0  0  0  0
    3.7320   -3.5670    0.0000 C   0  0  0  0  0  0  0  0  0  0  0  0
    2.8660   -4.0670    0.0000 C   0  0  0  0  0  0  0  0  0  0  0  0
    4.8147    3.6354    0.0000 C   0  0  0  0  0  0  0  0  0  0  0  0
    2.0000   -5.5670    0.0000 C   0  0  0  0  0  0  0  0  0  0  0  0
    6.2160    4.6535    0.0000 C   0  0  0  0  0  0  0  0  0  0  0  0
    6.6227    5.5670    0.0000 C   0  0  0  0  0  0  0  0  0  0  0  0
    1.7880    1.0156    0.0000 H   0  0  0  0  0  0  0  0  0  0  0  0
    1.3894    0.3253    0.0000 H   0  0  0  0  0  0  0  0  0  0  0  0
    4.3426    0.3253    0.0000 H   0  0  0  0  0  0  0  0  0  0  0  0
    3.9441    1.0156    0.0000 H   0  0  0  0  0  0  0  0  0  0  0  0
    1.3894   -0.4594    0.0000 H   0  0  0  0  0  0  0  0  0  0  0  0
    1.7880   -1.1496    0.0000 H   0  0  0  0  0  0  0  0  0  0  0  0
    3.9441   -1.1496    0.0000 H   0  0  0  0  0  0  0  0  0  0  0  0
    4.3426   -0.4594    0.0000 H   0  0  0  0  0  0  0  0  0  0  0  0
    2.6540    2.5156    0.0000 H   0  0  0  0  0  0  0  0  0  0  0  0
    2.2554    1.8253    0.0000 H   0  0  0  0  0  0  0  0  0  0  0  0
    1.4631   -2.2570    0.0000 H   0  0  0  0  0  0  0  0  0  0  0  0
    4.2690   -2.2570    0.0000 H   0  0  0  0  0  0  0  0  0  0  0  0
    4.7745    1.4198    0.0000 H   0  0  0  0  0  0  0  0  0  0  0  0
    1.4631   -3.8770    0.0000 H   0  0  0  0  0  0  0  0  0  0  0  0
    4.2690   -3.8770    0.0000 H   0  0  0  0  0  0  0  0  0  0  0  0
    4.8570    5.0505    0.0000 H   0  0  0  0  0  0  0  0  0  0  0  0
    1.6900   -5.0301    0.0000 H   0  0  0  0  0  0  0  0  0  0  0  0
    1.4631   -5.8770    0.0000 H   0  0  0  0  0  0  0  0  0  0  0  0
    2.3100   -6.1040    0.0000 H   0  0  0  0  0  0  0  0  0  0  0  0
    7.1891    5.3148    0.0000 H   0  0  0  0  0  0  0  0  0  0  0  0
    6.8749    6.1334    0.0000 H   0  0  0  0  0  0  0  0  0  0  0  0
    6.0563    5.8192    0.0000 H   0  0  0  0  0  0  0  0  0  0  0  0
  1 17  1  0  0  0  0
  1 21  1  0  0  0  0
  2 20  1  0  0  0  0
  2 22  1  0  0  0  0
  3 23  2  0  0  0  0
  4  8  1  0  0  0  0
  4  9  1  0  0  0  0
  4 12  1  0  0  0  0
  5 10  1  0  0  0  0
  5 11  1  0  0  0  0
  5 13  1  0  0  0  0
  6 14  1  0  0  0  0
  6 21  2  0  0  0  0
  7 21  1  0  0  0  0
  7 23  1  0  0  0  0
  7 40  1  0  0  0  0
  8 11  1  0  0  0  0
  8 27  1  0  0  0  0
  8 28  1  0  0  0  0
  9 10  1  0  0  0  0
  9 25  1  0  0  0  0
  9 26  1  0  0  0  0
 10 29  1  0  0  0  0
 10 30  1  0  0  0  0
 11 31  1  0  0  0  0
 11 32  1  0  0  0  0
 12 14  1  0  0  0  0
 12 33  1  0  0  0  0
 12 34  1  0  0  0  0
 13 15  2  0  0  0  0
 13 16  1  0  0  0  0
 14 17  2  0  0  0  0
 15 18  1  0  0  0  0
 15 35  1  0  0  0  0
 16 19  2  0  0  0  0
 16 36  1  0  0  0  0
 17 37  1  0  0  0  0
 18 20  2  0  0  0  0
 18 38  1  0  0  0  0
 19 20  1  0  0  0  0
 19 39  1  0  0  0  0
 22 41  1  0  0  0  0
 22 42  1  0  0  0  0
 22 43  1  0  0  0  0
 23 24  1  0  0  0  0
 24 44  1  0  0  0  0
 24 45  1  0  0  0  0
 24 46  1  0  0  0  0
M  END
> <PUBCHEM_COMPOUND_CID>
17396340

> <PUBCHEM_COMPOUND_CANONICALIZED>
1

> <PUBCHEM_CACTVS_COMPLEXITY>
409

> <PUBCHEM_CACTVS_HBOND_ACCEPTOR>
6

> <PUBCHEM_CACTVS_HBOND_DONOR>
1

> <PUBCHEM_CACTVS_ROTATABLE_BOND>
5

> <PUBCHEM_CACTVS_SUBSKEYS>
AAADceB7sABAAAAAAAAAAAAAAAAAAWAAAAA8QAAAAAAAAAABwAAAHgQQAAAACAzF1gaz15PIFAisASVydACC+KlhKjkJiBQebIiMZiLkuZuUMChs0RPI6CewQAAAAEAAAAAAAAAAgAAAAAAAAAAAAAAAAA==

> <PUBCHEM_IUPAC_OPENEYE_NAME>
N-[4-[[4-(4-methoxyphenyl)piperazin-1-yl]methyl]thiazol-2-yl]acetamide

> <PUBCHEM_IUPAC_CAS_NAME>
N-[4-[[4-(4-methoxyphenyl)-1-piperazinyl]methyl]-2-thiazolyl]acetamide

> <PUBCHEM_IUPAC_NAME>
N-[4-[[4-(4-methoxyphenyl)piperazin-1-yl]methyl]-1,3-thiazol-2-yl]acetamide

> <PUBCHEM_IUPAC_SYSTEMATIC_NAME>
N-[4-[[4-(4-methoxyphenyl)piperazin-1-yl]methyl]-1,3-thiazol-2-yl]ethanamide

> <PUBCHEM_IUPAC_TRADITIONAL_NAME>
N-[4-[[4-(4-methoxyphenyl)piperazino]methyl]thiazol-2-yl]acetamide

> <PUBCHEM_IUPAC_INCHI>
InChI=1S/C17H22N4O2S/c1-13(22)18-17-19-14(12-24-17)11-20-7-9-21(10-8-20)15-3-5-16(23-2)6-4-15/h3-6,12H,7-11H2,1-2H3,(H,18,19,22)

> <PUBCHEM_IUPAC_INCHIKEY>
POLFKFOOCIMGCV-UHFFFAOYSA-N

> <PUBCHEM_XLOGP3_AA>
1.9

> <PUBCHEM_EXACT_MASS>
346.146347

> <PUBCHEM_MOLECULAR_FORMULA>
C17H22N4O2S

> <PUBCHEM_MOLECULAR_WEIGHT>
346.44718

> <PUBCHEM_OPENEYE_CAN_SMILES>
CC(=O)NC1=NC(=CS1)CN2CCN(CC2)C3=CC=C(C=C3)OC

> <PUBCHEM_OPENEYE_ISO_SMILES>
CC(=O)NC1=NC(=CS1)CN2CCN(CC2)C3=CC=C(C=C3)OC

> <PUBCHEM_CACTVS_TPSA>
85.9

> <PUBCHEM_MONOISOTOPIC_WEIGHT>
346.146347

> <PUBCHEM_TOTAL_CHARGE>
0

> <PUBCHEM_HEAVY_ATOM_COUNT>
24

> <PUBCHEM_ATOM_DEF_STEREO_COUNT>
0

> <PUBCHEM_ATOM_UDEF_STEREO_COUNT>
0

> <PUBCHEM_BOND_DEF_STEREO_COUNT>
0

> <PUBCHEM_BOND_UDEF_STEREO_COUNT>
0

> <PUBCHEM_ISOTOPIC_ATOM_COUNT>
0

> <PUBCHEM_COMPONENT_COUNT>
1

> <PUBCHEM_CACTVS_TAUTO_COUNT>
5

> <PUBCHEM_COORDINATE_TYPE>
1
5
255

> <PUBCHEM_BONDANNOTATIONS>
1  17  8
1  21  8
13  15  8
13  16  8
14  17  8
15  18  8
16  19  8
18  20  8
19  20  8
6  14  8
6  21  8

$$$$

