17396600
  -OEChem-06241222572D

 39 41  0     1  0  0  0  0  0999 V2000
    5.3781    0.8539    0.0000 S   0  0  0  0  0  0  0  0  0  0  0  0
    3.3090    0.1816    0.0000 S   0  0  0  0  0  0  0  0  0  0  0  0
    7.3461    0.1545    0.0000 O   0  0  0  0  0  0  0  0  0  0  0  0
    7.7619   -1.8018    0.0000 O   0  0  0  0  0  0  0  0  0  0  0  0
    9.1774   -3.2018    0.0000 O   0  0  0  0  0  0  0  0  0  0  0  0
    7.8813    1.8018    0.0000 O   0  0  0  0  0  0  0  0  0  0  0  0
    9.4561   -1.4417    0.0000 N   0  0  0  0  0  0  0  0  0  0  0  0
   10.7651   -2.3927    0.0000 N   0  0  0  0  0  0  0  0  0  0  0  0
    4.8781    2.3927    0.0000 N   0  0  0  0  0  0  0  0  0  0  0  0
   10.2651   -0.8539    0.0000 C   0  0  0  0  0  0  0  0  0  0  0  0
   11.0742   -1.4417    0.0000 C   0  0  0  0  0  0  0  0  0  0  0  0
    8.2972   -0.1545    0.0000 C   0  0  3  0  0  0  0  0  0  0  0  0
    8.5051   -1.1327    0.0000 C   0  0  0  0  0  0  0  0  0  0  0  0
    9.7651   -2.3927    0.0000 C   0  0  0  0  0  0  0  0  0  0  0  0
    9.0403    0.5146    0.0000 C   0  0  0  0  0  0  0  0  0  0  0  0
    6.1871    1.4417    0.0000 C   0  0  0  0  0  0  0  0  0  0  0  0
    7.1382    1.1327    0.0000 C   0  0  0  0  0  0  0  0  0  0  0  0
    5.8781    2.3927    0.0000 C   0  0  0  0  0  0  0  0  0  0  0  0
    4.5691    1.4417    0.0000 C   0  0  0  0  0  0  0  0  0  0  0  0
    3.6180    1.1327    0.0000 C   0  0  0  0  0  0  0  0  0  0  0  0
    6.4659    3.2018    0.0000 C   0  0  0  0  0  0  0  0  0  0  0  0
    2.8090    1.7204    0.0000 C   0  0  0  0  0  0  0  0  0  0  0  0
    2.0000    1.1327    0.0000 C   0  0  0  0  0  0  0  0  0  0  0  0
    2.3090    0.1816    0.0000 C   0  0  0  0  0  0  0  0  0  0  0  0
   10.6800   -0.3931    0.0000 H   0  0  0  0  0  0  0  0  0  0  0  0
    9.8503   -0.3931    0.0000 H   0  0  0  0  0  0  0  0  0  0  0  0
   11.6405   -1.6938    0.0000 H   0  0  0  0  0  0  0  0  0  0  0  0
   11.3842   -0.9047    0.0000 H   0  0  0  0  0  0  0  0  0  0  0  0
    7.8364   -0.5694    0.0000 H   0  0  0  0  0  0  0  0  0  0  0  0
   11.1296   -2.8943    0.0000 H   0  0  0  0  0  0  0  0  0  0  0  0
    9.4552    0.0539    0.0000 H   0  0  0  0  0  0  0  0  0  0  0  0
    9.5010    0.9295    0.0000 H   0  0  0  0  0  0  0  0  0  0  0  0
    8.6254    0.9754    0.0000 H   0  0  0  0  0  0  0  0  0  0  0  0
    6.9675    2.8373    0.0000 H   0  0  0  0  0  0  0  0  0  0  0  0
    6.8303    3.7033    0.0000 H   0  0  0  0  0  0  0  0  0  0  0  0
    5.9643    3.5662    0.0000 H   0  0  0  0  0  0  0  0  0  0  0  0
    2.8090    2.3404    0.0000 H   0  0  0  0  0  0  0  0  0  0  0  0
    1.4103    1.3242    0.0000 H   0  0  0  0  0  0  0  0  0  0  0  0
    1.9446   -0.3200    0.0000 H   0  0  0  0  0  0  0  0  0  0  0  0
  1 16  1  0  0  0  0
  1 19  1  0  0  0  0
  2 20  1  0  0  0  0
  2 24  1  0  0  0  0
  3 12  1  0  0  0  0
  3 17  1  0  0  0  0
  4 13  2  0  0  0  0
  5 14  2  0  0  0  0
  6 17  2  0  0  0  0
  7 10  1  0  0  0  0
  7 13  1  0  0  0  0
  7 14  1  0  0  0  0
  8 11  1  0  0  0  0
  8 14  1  0  0  0  0
  8 30  1  0  0  0  0
  9 18  1  0  0  0  0
  9 19  2  0  0  0  0
 10 11  1  0  0  0  0
 10 25  1  0  0  0  0
 10 26  1  0  0  0  0
 11 27  1  0  0  0  0
 11 28  1  0  0  0  0
 12 13  1  0  0  0  0
 12 15  1  0  0  0  0
 12 29  1  0  0  0  0
 15 31  1  0  0  0  0
 15 32  1  0  0  0  0
 15 33  1  0  0  0  0
 16 17  1  0  0  0  0
 16 18  2  0  0  0  0
 18 21  1  0  0  0  0
 19 20  1  0  0  0  0
 20 22  2  0  0  0  0
 21 34  1  0  0  0  0
 21 35  1  0  0  0  0
 21 36  1  0  0  0  0
 22 23  1  0  0  0  0
 22 37  1  0  0  0  0
 23 24  2  0  0  0  0
 23 38  1  0  0  0  0
 24 39  1  0  0  0  0
M  END
> <PUBCHEM_COMPOUND_CID>
17396600

> <PUBCHEM_COMPOUND_CANONICALIZED>
1

> <PUBCHEM_CACTVS_COMPLEXITY>
533

> <PUBCHEM_CACTVS_HBOND_ACCEPTOR>
7

> <PUBCHEM_CACTVS_HBOND_DONOR>
1

> <PUBCHEM_CACTVS_ROTATABLE_BOND>
5

> <PUBCHEM_CACTVS_SUBSKEYS>
AAADccBzOABgAAAAAAAAAAAAAAAAAWLEgAAAAAAAAAAAAAAB4AAAHgQQAAAACBzl1gaziZPIFAisASXyXAKD8KBlCDhImL14TNiKZrrgsR2XEYhulyL4qUYQAAAAAAAAAAAAAAAAAAAAAAAAAAAAAAAAAA==

> <PUBCHEM_IUPAC_OPENEYE_NAME>
[1-methyl-2-oxo-2-(2-oxoimidazolidin-1-yl)ethyl] 4-methyl-2-(2-thienyl)thiazole-5-carboxylate

> <PUBCHEM_IUPAC_CAS_NAME>
4-methyl-2-thiophen-2-yl-5-thiazolecarboxylic acid [1-oxo-1-(2-oxo-1-imidazolidinyl)propan-2-yl] ester

> <PUBCHEM_IUPAC_NAME>
[1-oxo-1-(2-oxoimidazolidin-1-yl)propan-2-yl] 4-methyl-2-thiophen-2-yl-1,3-thiazole-5-carboxylate

> <PUBCHEM_IUPAC_SYSTEMATIC_NAME>
[1-oxidanylidene-1-(2-oxidanylideneimidazolidin-1-yl)propan-2-yl] 4-methyl-2-thiophen-2-yl-1,3-thiazole-5-carboxylate

> <PUBCHEM_IUPAC_TRADITIONAL_NAME>
4-methyl-2-(2-thienyl)thiazole-5-carboxylic acid [2-keto-2-(2-ketoimidazolidin-1-yl)-1-methyl-ethyl] ester

> <PUBCHEM_IUPAC_INCHI>
InChI=1S/C15H15N3O4S2/c1-8-11(24-12(17-8)10-4-3-7-23-10)14(20)22-9(2)13(19)18-6-5-16-15(18)21/h3-4,7,9H,5-6H2,1-2H3,(H,16,21)

> <PUBCHEM_IUPAC_INCHIKEY>
FIPGEBIMAALMTO-UHFFFAOYSA-N

> <PUBCHEM_XLOGP3_AA>
2.2

> <PUBCHEM_EXACT_MASS>
365.050398

> <PUBCHEM_MOLECULAR_FORMULA>
C15H15N3O4S2

> <PUBCHEM_MOLECULAR_WEIGHT>
365.4273

> <PUBCHEM_OPENEYE_CAN_SMILES>
CC1=C(SC(=N1)C2=CC=CS2)C(=O)OC(C)C(=O)N3CCNC3=O

> <PUBCHEM_OPENEYE_ISO_SMILES>
CC1=C(SC(=N1)C2=CC=CS2)C(=O)OC(C)C(=O)N3CCNC3=O

> <PUBCHEM_CACTVS_TPSA>
145

> <PUBCHEM_MONOISOTOPIC_WEIGHT>
365.050398

> <PUBCHEM_TOTAL_CHARGE>
0

> <PUBCHEM_HEAVY_ATOM_COUNT>
24

> <PUBCHEM_ATOM_DEF_STEREO_COUNT>
0

> <PUBCHEM_ATOM_UDEF_STEREO_COUNT>
1

> <PUBCHEM_BOND_DEF_STEREO_COUNT>
0

> <PUBCHEM_BOND_UDEF_STEREO_COUNT>
0

> <PUBCHEM_ISOTOPIC_ATOM_COUNT>
0

> <PUBCHEM_COMPONENT_COUNT>
1

> <PUBCHEM_CACTVS_TAUTO_COUNT>
2

> <PUBCHEM_COORDINATE_TYPE>
1
5
255

> <PUBCHEM_BONDANNOTATIONS>
1  16  8
1  19  8
12  15  3
16  18  8
2  20  8
2  24  8
20  22  8
22  23  8
23  24  8
9  18  8
9  19  8

$$$$

