10077
  -OEChem-06261204172D

 40 44  0     1  0  0  0  0  0999 V2000
    5.9422    0.2295    0.0000 O   0  0  0  0  0  0  0  0  0  0  0  0
    6.9727    2.1667    0.0000 O   0  0  0  0  0  0  0  0  0  0  0  0
    5.6636   -2.3132    0.0000 O   0  0  0  0  0  0  0  0  0  0  0  0
    2.9945    0.9983    0.0000 N   0  0  3  0  0  0  0  0  0  0  0  0
    4.5497    1.0367    0.0000 C   0  0  1  0  0  0  0  0  0  0  0  0
    3.8066    1.7058    0.0000 C   0  0  2  0  0  0  0  0  0  0  0  0
    2.8555    1.3968    0.0000 C   0  0  2  0  0  0  0  0  0  0  0  0
    5.5386    1.1380    0.0000 C   0  0  2  0  0  0  0  0  0  0  0  0
    4.2607    0.7292    0.0000 C   0  0  0  0  0  0  0  0  0  0  0  0
    4.3418    0.0585    0.0000 C   0  0  0  0  0  0  0  0  0  0  0  0
    4.3467    2.8146    0.0000 C   0  0  0  0  0  0  0  0  0  0  0  0
    2.6476    0.4186    0.0000 C   0  0  0  0  0  0  0  0  0  0  0  0
    3.5298    0.4038    0.0000 C   0  0  0  0  0  0  0  0  0  0  0  0
    3.3907   -0.2505    0.0000 C   0  0  0  0  0  0  0  0  0  0  0  0
    5.3768    2.9202    0.0000 C   0  0  0  0  0  0  0  0  0  0  0  0
    5.9767    2.0762    0.0000 C   0  0  0  0  0  0  0  0  0  0  0  0
    5.1265   -0.6264    0.0000 C   0  0  0  0  0  0  0  0  0  0  0  0
    2.0000    0.8938    0.0000 C   0  0  0  0  0  0  0  0  0  0  0  0
    3.1585   -1.2659    0.0000 C   0  0  0  0  0  0  0  0  0  0  0  0
    4.9178   -1.6470    0.0000 C   0  0  0  0  0  0  0  0  0  0  0  0
    3.9272   -1.9688    0.0000 C   0  0  0  0  0  0  0  0  0  0  0  0
    3.9729    2.4883    0.0000 H   0  0  0  0  0  0  0  0  0  0  0  0
    2.0730    1.5631    0.0000 H   0  0  0  0  0  0  0  0  0  0  0  0
    6.3386    1.1305    0.0000 H   0  0  0  0  0  0  0  0  0  0  0  0
    4.2779    0.1094    0.0000 H   0  0  0  0  0  0  0  0  0  0  0  0
    3.9016    1.2347    0.0000 H   0  0  0  0  0  0  0  0  0  0  0  0
    4.3981    3.4325    0.0000 H   0  0  0  0  0  0  0  0  0  0  0  0
    3.7489    2.9789    0.0000 H   0  0  0  0  0  0  0  0  0  0  0  0
    2.0727    0.6509    0.0000 H   0  0  0  0  0  0  0  0  0  0  0  0
    2.3191   -0.1071    0.0000 H   0  0  0  0  0  0  0  0  0  0  0  0
    3.0282    0.0394    0.0000 H   0  0  0  0  0  0  0  0  0  0  0  0
    3.8398   -0.1331    0.0000 H   0  0  0  0  0  0  0  0  0  0  0  0
    5.9361    3.1876    0.0000 H   0  0  0  0  0  0  0  0  0  0  0  0
    5.2090    3.5170    0.0000 H   0  0  0  0  0  0  0  0  0  0  0  0
    1.9352    1.5104    0.0000 H   0  0  0  0  0  0  0  0  0  0  0  0
    1.3834    0.8290    0.0000 H   0  0  0  0  0  0  0  0  0  0  0  0
    2.0648    0.2772    0.0000 H   0  0  0  0  0  0  0  0  0  0  0  0
    2.5667   -1.4507    0.0000 H   0  0  0  0  0  0  0  0  0  0  0  0
    3.7959   -2.5748    0.0000 H   0  0  0  0  0  0  0  0  0  0  0  0
    5.5370   -2.9202    0.0000 H   0  0  0  0  0  0  0  0  0  0  0  0
  1  8  1  0  0  0  0
  1 17  1  0  0  0  0
  2 16  2  0  0  0  0
  3 20  1  0  0  0  0
  3 40  1  0  0  0  0
  4  7  1  0  0  0  0
  4 13  1  0  0  0  0
  4 18  1  0  0  0  0
  5  6  1  0  0  0  0
  5  8  1  0  0  0  0
  5  9  1  0  0  0  0
  5 10  1  0  0  0  0
  6  7  1  0  0  0  0
  6 11  1  0  0  0  0
  6 22  1  0  0  0  0
  7 12  1  0  0  0  0
  7 23  1  0  0  0  0
  8 16  1  0  0  0  0
  8 24  1  0  0  0  0
  9 13  1  0  0  0  0
  9 25  1  0  0  0  0
  9 26  1  0  0  0  0
 10 14  2  0  0  0  0
 10 17  1  0  0  0  0
 11 15  1  0  0  0  0
 11 27  1  0  0  0  0
 11 28  1  0  0  0  0
 12 14  1  0  0  0  0
 12 29  1  0  0  0  0
 12 30  1  0  0  0  0
 13 31  1  0  0  0  0
 13 32  1  0  0  0  0
 14 19  1  0  0  0  0
 15 16  1  0  0  0  0
 15 33  1  0  0  0  0
 15 34  1  0  0  0  0
 17 20  2  0  0  0  0
 18 35  1  0  0  0  0
 18 36  1  0  0  0  0
 18 37  1  0  0  0  0
 19 21  2  0  0  0  0
 19 38  1  0  0  0  0
 20 21  1  0  0  0  0
 21 39  1  0  0  0  0
M  END
> <PUBCHEM_COMPOUND_CID>
10077

> <PUBCHEM_COMPOUND_CANONICALIZED>
1

> <PUBCHEM_CACTVS_COMPLEXITY>
494

> <PUBCHEM_CACTVS_HBOND_ACCEPTOR>
4

> <PUBCHEM_CACTVS_HBOND_DONOR>
1

> <PUBCHEM_CACTVS_ROTATABLE_BOND>
0

> <PUBCHEM_CACTVS_SUBSKEYS>
AAADceB6MAAAAAAAAAAAAAAAAAAAASAAAAA8YMEAAAAWAEjxAAAAHgAACAAADzzhmAYyBoMABgCIAqBSAAICCAAgIAAIiAFOiIgNJjKGsR+GeCOkwBGLuAe4/fffoAABAAAYQADQAAaAADSAAAAAAAAAAA==

> <PUBCHEM_IUPAC_OPENEYE_NAME>
(4S,4aR,7aR,12bS)-9-hydroxy-3-methyl-1,2,4,4a,5,6,7a,13-octahydro-4,12-methanobenzofuro[3,2-e]isoquinoline-7-one

> <PUBCHEM_IUPAC_CAS_NAME>
(4S,4aR,7aR,12bS)-9-hydroxy-3-methyl-1,2,4,4a,5,6,7a,13-octahydro-4,12-methanobenzofuro[3,2-e]isoquinoline-7-one

> <PUBCHEM_IUPAC_NAME>
(4S,4aR,7aR,12bS)-9-hydroxy-3-methyl-1,2,4,4a,5,6,7a,13-octahydro-4,12-methanobenzofuro[3,2-e]isoquinoline-7-one

> <PUBCHEM_IUPAC_SYSTEMATIC_NAME>
(4S,4aR,7aR,12bS)-3-methyl-9-oxidanyl-1,2,4,4a,5,6,7a,13-octahydro-4,12-methanobenzofuro[3,2-e]isoquinoline-7-one

> <PUBCHEM_IUPAC_TRADITIONAL_NAME>
(4S,4aR,7aR,12bS)-9-hydroxy-3-methyl-1,2,4,4a,5,6,7a,13-octahydro-4,12-methanobenzofuro[3,2-e]isoquinoline-7-one

> <PUBCHEM_IUPAC_INCHI>
InChI=1S/C17H19NO3/c1-18-7-6-17-10-3-5-13(20)16(17)21-15-12(19)4-2-9(14(15)17)8-11(10)18/h2,4,10-11,16,19H,3,5-8H2,1H3/t10-,11-,16-,17-/m0/s1

> <PUBCHEM_IUPAC_INCHIKEY>
WVLOADHCBXTIJK-BHWMQLMCSA-N

> <PUBCHEM_XLOGP3_AA>
1.8

> <PUBCHEM_EXACT_MASS>
285.136493

> <PUBCHEM_MOLECULAR_FORMULA>
C17H19NO3

> <PUBCHEM_MOLECULAR_WEIGHT>
285.33766

> <PUBCHEM_OPENEYE_CAN_SMILES>
CN1CCC23C4C1CC5=C2C(=C(C=C5)O)OC3C(=O)CC4

> <PUBCHEM_OPENEYE_ISO_SMILES>
CN1CC[C@]23[C@@H]4[C@@H]1CC5=C2C(=C(C=C5)O)O[C@H]3C(=O)CC4

> <PUBCHEM_CACTVS_TPSA>
49.8

> <PUBCHEM_MONOISOTOPIC_WEIGHT>
285.136493

> <PUBCHEM_TOTAL_CHARGE>
0

> <PUBCHEM_HEAVY_ATOM_COUNT>
21

> <PUBCHEM_ATOM_DEF_STEREO_COUNT>
4

> <PUBCHEM_ATOM_UDEF_STEREO_COUNT>
0

> <PUBCHEM_BOND_DEF_STEREO_COUNT>
0

> <PUBCHEM_BOND_UDEF_STEREO_COUNT>
0

> <PUBCHEM_ISOTOPIC_ATOM_COUNT>
0

> <PUBCHEM_COMPONENT_COUNT>
1

> <PUBCHEM_CACTVS_TAUTO_COUNT>
9

> <PUBCHEM_COORDINATE_TYPE>
1
5
255

> <PUBCHEM_BONDANNOTATIONS>
10  14  8
10  17  8
14  19  8
17  20  8
19  21  8
20  21  8
5  9  3
6  22  3
7  23  3
8  24  3

$$$$

