47205462
  -OEChem-06241222582D

 38 39  0     0  0  0  0  0  0999 V2000
    2.8660   -3.3170    0.0000 S   0  0  0  0  0  0  0  0  0  0  0  0
    2.3660   -4.1830    0.0000 O   0  0  0  0  0  0  0  0  0  0  0  0
    3.3660   -4.1830    0.0000 O   0  0  0  0  0  0  0  0  0  0  0  0
    4.5981   -0.3170    0.0000 O   0  0  0  0  0  0  0  0  0  0  0  0
    7.1962    3.1830    0.0000 O   0  0  0  0  0  0  0  0  0  0  0  0
    2.8660   -1.3170    0.0000 N   0  0  0  0  0  0  0  0  0  0  0  0
    3.7320    1.1830    0.0000 N   0  0  0  0  0  0  0  0  0  0  0  0
    2.0000   -2.8170    0.0000 C   0  0  0  0  0  0  0  0  0  0  0  0
    3.7320   -2.8170    0.0000 C   0  0  0  0  0  0  0  0  0  0  0  0
    2.0000   -1.8170    0.0000 C   0  0  0  0  0  0  0  0  0  0  0  0
    3.7320   -1.8170    0.0000 C   0  0  0  0  0  0  0  0  0  0  0  0
    2.8660   -0.3170    0.0000 C   0  0  0  0  0  0  0  0  0  0  0  0
    3.7320    0.1830    0.0000 C   0  0  0  0  0  0  0  0  0  0  0  0
    4.5981    1.6830    0.0000 C   0  0  0  0  0  0  0  0  0  0  0  0
    5.4641    1.1830    0.0000 C   0  0  0  0  0  0  0  0  0  0  0  0
    4.5981    2.6830    0.0000 C   0  0  0  0  0  0  0  0  0  0  0  0
    6.3301    1.6830    0.0000 C   0  0  0  0  0  0  0  0  0  0  0  0
    5.4641    3.1830    0.0000 C   0  0  0  0  0  0  0  0  0  0  0  0
    6.3301    2.6830    0.0000 C   0  0  0  0  0  0  0  0  0  0  0  0
    7.1962    4.1830    0.0000 C   0  0  0  0  0  0  0  0  0  0  0  0
    3.9441   -3.3996    0.0000 H   0  0  0  0  0  0  0  0  0  0  0  0
    4.3426   -2.7093    0.0000 H   0  0  0  0  0  0  0  0  0  0  0  0
    1.3894   -2.7093    0.0000 H   0  0  0  0  0  0  0  0  0  0  0  0
    1.7880   -3.3996    0.0000 H   0  0  0  0  0  0  0  0  0  0  0  0
    4.3426   -1.9246    0.0000 H   0  0  0  0  0  0  0  0  0  0  0  0
    3.9441   -1.2344    0.0000 H   0  0  0  0  0  0  0  0  0  0  0  0
    1.7880   -1.2344    0.0000 H   0  0  0  0  0  0  0  0  0  0  0  0
    1.3894   -1.9246    0.0000 H   0  0  0  0  0  0  0  0  0  0  0  0
    2.6540    0.2656    0.0000 H   0  0  0  0  0  0  0  0  0  0  0  0
    2.2554   -0.4246    0.0000 H   0  0  0  0  0  0  0  0  0  0  0  0
    3.1951    1.4930    0.0000 H   0  0  0  0  0  0  0  0  0  0  0  0
    5.4641    0.5630    0.0000 H   0  0  0  0  0  0  0  0  0  0  0  0
    4.0611    2.9930    0.0000 H   0  0  0  0  0  0  0  0  0  0  0  0
    6.8671    1.3730    0.0000 H   0  0  0  0  0  0  0  0  0  0  0  0
    5.4641    3.8030    0.0000 H   0  0  0  0  0  0  0  0  0  0  0  0
    7.8162    4.1830    0.0000 H   0  0  0  0  0  0  0  0  0  0  0  0
    7.1962    4.8030    0.0000 H   0  0  0  0  0  0  0  0  0  0  0  0
    6.5762    4.1830    0.0000 H   0  0  0  0  0  0  0  0  0  0  0  0
  1  2  2  0  0  0  0
  1  3  2  0  0  0  0
  1  8  1  0  0  0  0
  1  9  1  0  0  0  0
  4 13  2  0  0  0  0
  5 19  1  0  0  0  0
  5 20  1  0  0  0  0
  6 10  1  0  0  0  0
  6 11  1  0  0  0  0
  6 12  1  0  0  0  0
  7 13  1  0  0  0  0
  7 14  1  0  0  0  0
  7 31  1  0  0  0  0
  8 10  1  0  0  0  0
  8 23  1  0  0  0  0
  8 24  1  0  0  0  0
  9 11  1  0  0  0  0
  9 21  1  0  0  0  0
  9 22  1  0  0  0  0
 10 27  1  0  0  0  0
 10 28  1  0  0  0  0
 11 25  1  0  0  0  0
 11 26  1  0  0  0  0
 12 13  1  0  0  0  0
 12 29  1  0  0  0  0
 12 30  1  0  0  0  0
 14 15  2  0  0  0  0
 14 16  1  0  0  0  0
 15 17  1  0  0  0  0
 15 32  1  0  0  0  0
 16 18  2  0  0  0  0
 16 33  1  0  0  0  0
 17 19  2  0  0  0  0
 17 34  1  0  0  0  0
 18 19  1  0  0  0  0
 18 35  1  0  0  0  0
 20 36  1  0  0  0  0
 20 37  1  0  0  0  0
 20 38  1  0  0  0  0
M  END
> <PUBCHEM_COMPOUND_CID>
47205462

> <PUBCHEM_COMPOUND_CANONICALIZED>
1

> <PUBCHEM_CACTVS_COMPLEXITY>
410

> <PUBCHEM_CACTVS_HBOND_ACCEPTOR>
5

> <PUBCHEM_CACTVS_HBOND_DONOR>
1

> <PUBCHEM_CACTVS_ROTATABLE_BOND>
4

> <PUBCHEM_CACTVS_SUBSKEYS>
AAADceBzOABAAAAAAAAAAAAAAAAAAAAAAAA8QAAAAAAAAAABAAAAHgQQAAAACAzF0AayxoPABAqIACVSUHDCCAAhIhAIiACObIgMZiLEsbuUMChk1BHo6AewQAAAAEAAAAAAAAAAgAAAAAAAAAAAAAAAAA==

> <PUBCHEM_IUPAC_OPENEYE_NAME>
2-(1,1-dioxo-1,4-thiazinan-4-yl)-N-(4-methoxyphenyl)acetamide

> <PUBCHEM_IUPAC_CAS_NAME>
2-(1,1-dioxo-1,4-thiazinan-4-yl)-N-(4-methoxyphenyl)acetamide

> <PUBCHEM_IUPAC_NAME>
2-(1,1-dioxo-1,4-thiazinan-4-yl)-N-(4-methoxyphenyl)acetamide

> <PUBCHEM_IUPAC_SYSTEMATIC_NAME>
2-[1,1-bis(oxidanylidene)-1,4-thiazinan-4-yl]-N-(4-methoxyphenyl)ethanamide

> <PUBCHEM_IUPAC_TRADITIONAL_NAME>
2-(1,1-diketo-1,4-thiazinan-4-yl)-N-(4-methoxyphenyl)acetamide

> <PUBCHEM_IUPAC_INCHI>
InChI=1S/C13H18N2O4S/c1-19-12-4-2-11(3-5-12)14-13(16)10-15-6-8-20(17,18)9-7-15/h2-5H,6-10H2,1H3,(H,14,16)

> <PUBCHEM_IUPAC_INCHIKEY>
MRIPYZQHSQMDET-UHFFFAOYSA-N

> <PUBCHEM_XLOGP3>
0.8

> <PUBCHEM_EXACT_MASS>
298.098728

> <PUBCHEM_MOLECULAR_FORMULA>
C13H18N2O4S

> <PUBCHEM_MOLECULAR_WEIGHT>
298.35802

> <PUBCHEM_OPENEYE_CAN_SMILES>
COC1=CC=C(C=C1)NC(=O)CN2CCS(=O)(=O)CC2

> <PUBCHEM_OPENEYE_ISO_SMILES>
COC1=CC=C(C=C1)NC(=O)CN2CCS(=O)(=O)CC2

> <PUBCHEM_CACTVS_TPSA>
84.1

> <PUBCHEM_MONOISOTOPIC_WEIGHT>
298.098728

> <PUBCHEM_TOTAL_CHARGE>
0

> <PUBCHEM_HEAVY_ATOM_COUNT>
20

> <PUBCHEM_ATOM_DEF_STEREO_COUNT>
0

> <PUBCHEM_ATOM_UDEF_STEREO_COUNT>
0

> <PUBCHEM_BOND_DEF_STEREO_COUNT>
0

> <PUBCHEM_BOND_UDEF_STEREO_COUNT>
0

> <PUBCHEM_ISOTOPIC_ATOM_COUNT>
0

> <PUBCHEM_COMPONENT_COUNT>
1

> <PUBCHEM_CACTVS_TAUTO_COUNT>
3

> <PUBCHEM_COORDINATE_TYPE>
1
5
255

> <PUBCHEM_BONDANNOTATIONS>
14  15  8
14  16  8
15  17  8
16  18  8
17  19  8
18  19  8

$$$$

