13194
  -OEChem-06261207522D

 56 54  0     0  0  0  0  0  0999 V2000
    0.0000    1.0000    0.0000 Na  0  3  0  0  0  0  0  0  0  0  0  0
    0.8660    1.5000    0.0000 O   0  5  0  0  0  0  0  0  0  0  0  0
    1.7321    0.0000    0.0000 O   0  0  0  0  0  0  0  0  0  0  0  0
    9.5263    1.5000    0.0000 C   0  0  0  0  0  0  0  0  0  0  0  0
    8.6603    1.0000    0.0000 C   0  0  0  0  0  0  0  0  0  0  0  0
   10.3923    1.0000    0.0000 C   0  0  0  0  0  0  0  0  0  0  0  0
    7.7942    1.5000    0.0000 C   0  0  0  0  0  0  0  0  0  0  0  0
   11.2583    1.5000    0.0000 C   0  0  0  0  0  0  0  0  0  0  0  0
    6.9282    1.0000    0.0000 C   0  0  0  0  0  0  0  0  0  0  0  0
   12.1244    1.0000    0.0000 C   0  0  0  0  0  0  0  0  0  0  0  0
    6.0622    1.5000    0.0000 C   0  0  0  0  0  0  0  0  0  0  0  0
   12.9904    1.5000    0.0000 C   0  0  0  0  0  0  0  0  0  0  0  0
    5.1962    1.0000    0.0000 C   0  0  0  0  0  0  0  0  0  0  0  0
   13.8564    1.0000    0.0000 C   0  0  0  0  0  0  0  0  0  0  0  0
    4.3301    1.5000    0.0000 C   0  0  0  0  0  0  0  0  0  0  0  0
   14.7224    1.5000    0.0000 C   0  0  0  0  0  0  0  0  0  0  0  0
    3.4641    1.0000    0.0000 C   0  0  0  0  0  0  0  0  0  0  0  0
   15.5885    1.0000    0.0000 C   0  0  0  0  0  0  0  0  0  0  0  0
    2.5981    1.5000    0.0000 C   0  0  0  0  0  0  0  0  0  0  0  0
   16.4545    1.5000    0.0000 C   0  0  0  0  0  0  0  0  0  0  0  0
    1.7321    1.0000    0.0000 C   0  0  0  0  0  0  0  0  0  0  0  0
    9.1278    1.9749    0.0000 H   0  0  0  0  0  0  0  0  0  0  0  0
    9.9248    1.9749    0.0000 H   0  0  0  0  0  0  0  0  0  0  0  0
    8.2617    0.5251    0.0000 H   0  0  0  0  0  0  0  0  0  0  0  0
    9.0588    0.5251    0.0000 H   0  0  0  0  0  0  0  0  0  0  0  0
   10.7908    0.5251    0.0000 H   0  0  0  0  0  0  0  0  0  0  0  0
    9.9938    0.5251    0.0000 H   0  0  0  0  0  0  0  0  0  0  0  0
    8.1928    1.9749    0.0000 H   0  0  0  0  0  0  0  0  0  0  0  0
    7.3957    1.9749    0.0000 H   0  0  0  0  0  0  0  0  0  0  0  0
   10.8598    1.9749    0.0000 H   0  0  0  0  0  0  0  0  0  0  0  0
   11.6569    1.9749    0.0000 H   0  0  0  0  0  0  0  0  0  0  0  0
    6.5297    0.5251    0.0000 H   0  0  0  0  0  0  0  0  0  0  0  0
    7.3267    0.5251    0.0000 H   0  0  0  0  0  0  0  0  0  0  0  0
   12.5229    0.5251    0.0000 H   0  0  0  0  0  0  0  0  0  0  0  0
   11.7258    0.5251    0.0000 H   0  0  0  0  0  0  0  0  0  0  0  0
    6.4607    1.9749    0.0000 H   0  0  0  0  0  0  0  0  0  0  0  0
    5.6636    1.9749    0.0000 H   0  0  0  0  0  0  0  0  0  0  0  0
   13.3889    1.9749    0.0000 H   0  0  0  0  0  0  0  0  0  0  0  0
   12.5919    1.9749    0.0000 H   0  0  0  0  0  0  0  0  0  0  0  0
    5.5947    0.5251    0.0000 H   0  0  0  0  0  0  0  0  0  0  0  0
    4.7976    0.5251    0.0000 H   0  0  0  0  0  0  0  0  0  0  0  0
   14.2549    0.5251    0.0000 H   0  0  0  0  0  0  0  0  0  0  0  0
   13.4579    0.5251    0.0000 H   0  0  0  0  0  0  0  0  0  0  0  0
    4.7287    1.9749    0.0000 H   0  0  0  0  0  0  0  0  0  0  0  0
    3.9316    1.9749    0.0000 H   0  0  0  0  0  0  0  0  0  0  0  0
   15.1210    1.9749    0.0000 H   0  0  0  0  0  0  0  0  0  0  0  0
   14.3239    1.9749    0.0000 H   0  0  0  0  0  0  0  0  0  0  0  0
    3.8626    0.5251    0.0000 H   0  0  0  0  0  0  0  0  0  0  0  0
    3.0656    0.5251    0.0000 H   0  0  0  0  0  0  0  0  0  0  0  0
   15.1899    0.5251    0.0000 H   0  0  0  0  0  0  0  0  0  0  0  0
   15.9870    0.5251    0.0000 H   0  0  0  0  0  0  0  0  0  0  0  0
    2.1995    1.9749    0.0000 H   0  0  0  0  0  0  0  0  0  0  0  0
    2.9966    1.9749    0.0000 H   0  0  0  0  0  0  0  0  0  0  0  0
   16.7645    0.9631    0.0000 H   0  0  0  0  0  0  0  0  0  0  0  0
   16.9914    1.8100    0.0000 H   0  0  0  0  0  0  0  0  0  0  0  0
   16.1445    2.0369    0.0000 H   0  0  0  0  0  0  0  0  0  0  0  0
  2 21  1  0  0  0  0
  3 21  2  0  0  0  0
  4  5  1  0  0  0  0
  4  6  1  0  0  0  0
  4 22  1  0  0  0  0
  4 23  1  0  0  0  0
  5  7  1  0  0  0  0
  5 24  1  0  0  0  0
  5 25  1  0  0  0  0
  6  8  1  0  0  0  0
  6 26  1  0  0  0  0
  6 27  1  0  0  0  0
  7  9  1  0  0  0  0
  7 28  1  0  0  0  0
  7 29  1  0  0  0  0
  8 10  1  0  0  0  0
  8 30  1  0  0  0  0
  8 31  1  0  0  0  0
  9 11  1  0  0  0  0
  9 32  1  0  0  0  0
  9 33  1  0  0  0  0
 10 12  1  0  0  0  0
 10 34  1  0  0  0  0
 10 35  1  0  0  0  0
 11 13  1  0  0  0  0
 11 36  1  0  0  0  0
 11 37  1  0  0  0  0
 12 14  1  0  0  0  0
 12 38  1  0  0  0  0
 12 39  1  0  0  0  0
 13 15  1  0  0  0  0
 13 40  1  0  0  0  0
 13 41  1  0  0  0  0
 14 16  1  0  0  0  0
 14 42  1  0  0  0  0
 14 43  1  0  0  0  0
 15 17  1  0  0  0  0
 15 44  1  0  0  0  0
 15 45  1  0  0  0  0
 16 18  1  0  0  0  0
 16 46  1  0  0  0  0
 16 47  1  0  0  0  0
 17 19  1  0  0  0  0
 17 48  1  0  0  0  0
 17 49  1  0  0  0  0
 18 20  1  0  0  0  0
 18 50  1  0  0  0  0
 18 51  1  0  0  0  0
 19 21  1  0  0  0  0
 19 52  1  0  0  0  0
 19 53  1  0  0  0  0
 20 54  1  0  0  0  0
 20 55  1  0  0  0  0
 20 56  1  0  0  0  0
M  CHG  2   1   1   2  -1
M  END
> <PUBCHEM_COMPOUND_CID>
13194

> <PUBCHEM_COMPOUND_CANONICALIZED>
1

> <PUBCHEM_CACTVS_COMPLEXITY>
196

> <PUBCHEM_CACTVS_HBOND_ACCEPTOR>
2

> <PUBCHEM_CACTVS_HBOND_DONOR>
0

> <PUBCHEM_CACTVS_ROTATABLE_BOND>
15

> <PUBCHEM_CACTVS_SUBSKEYS>
AAADcfB4MCAAAAAAAAAAAAAAAAAAAAAAAAAAAAAAAAAAAAAAAAAAGgAAAAAACACAgAACCAAAAAAIAACQCAAAAAAAAAAAAAEAAAAAABIAAAAAAAAEAAAAAAGIyKCAAAAAAAAAAAAAAAAAAAAAAAAAAAAAAA==

> <PUBCHEM_IUPAC_OPENEYE_NAME>
sodium octadecanoate

> <PUBCHEM_IUPAC_CAS_NAME>
sodium octadecanoate

> <PUBCHEM_IUPAC_NAME>
sodium octadecanoate

> <PUBCHEM_IUPAC_SYSTEMATIC_NAME>
sodium octadecanoate

> <PUBCHEM_IUPAC_TRADITIONAL_NAME>
sodium stearate

> <PUBCHEM_IUPAC_INCHI>
InChI=1S/C18H36O2.Na/c1-2-3-4-5-6-7-8-9-10-11-12-13-14-15-16-17-18(19)20;/h2-17H2,1H3,(H,19,20);/q;+1/p-1

> <PUBCHEM_IUPAC_INCHIKEY>
RYYKJJJTJZKILX-UHFFFAOYSA-M

> <PUBCHEM_EXACT_MASS>
306.253475

> <PUBCHEM_MOLECULAR_FORMULA>
C18H35NaO2

> <PUBCHEM_MOLECULAR_WEIGHT>
306.459069

> <PUBCHEM_OPENEYE_CAN_SMILES>
CCCCCCCCCCCCCCCCCC(=O)[O-].[Na+]

> <PUBCHEM_OPENEYE_ISO_SMILES>
CCCCCCCCCCCCCCCCCC(=O)[O-].[Na+]

> <PUBCHEM_CACTVS_TPSA>
40.1

> <PUBCHEM_MONOISOTOPIC_WEIGHT>
306.253475

> <PUBCHEM_TOTAL_CHARGE>
0

> <PUBCHEM_HEAVY_ATOM_COUNT>
21

> <PUBCHEM_ATOM_DEF_STEREO_COUNT>
0

> <PUBCHEM_ATOM_UDEF_STEREO_COUNT>
0

> <PUBCHEM_BOND_DEF_STEREO_COUNT>
0

> <PUBCHEM_BOND_UDEF_STEREO_COUNT>
0

> <PUBCHEM_ISOTOPIC_ATOM_COUNT>
0

> <PUBCHEM_COMPONENT_COUNT>
2

> <PUBCHEM_CACTVS_TAUTO_COUNT>
1

> <PUBCHEM_COORDINATE_TYPE>
1
5
255

$$$$

