17396482
  -OEChem-06241222562D

 37 38  0     0  0  0  0  0  0999 V2000
    7.3007    3.6433    0.0000 S   0  0  0  0  0  0  0  0  0  0  0  0
    4.5981    1.1488    0.0000 O   0  0  0  0  0  0  0  0  0  0  0  0
    6.3301    1.1488    0.0000 N   0  0  0  0  0  0  0  0  0  0  0  0
    2.0000   -1.3512    0.0000 N   0  0  0  0  0  0  0  0  0  0  0  0
    6.3301    2.1488    0.0000 C   0  0  0  0  0  0  0  0  0  0  0  0
    7.1962    2.6488    0.0000 C   0  0  0  0  0  0  0  0  0  0  0  0
    8.1097    2.2420    0.0000 C   0  0  0  0  0  0  0  0  0  0  0  0
    8.7788    2.9852    0.0000 C   0  0  0  0  0  0  0  0  0  0  0  0
    5.4641    0.6488    0.0000 C   0  0  0  0  0  0  0  0  0  0  0  0
    7.1962    0.6488    0.0000 C   0  0  0  0  0  0  0  0  0  0  0  0
    8.3176    1.2639    0.0000 C   0  0  0  0  0  0  0  0  0  0  0  0
    8.2788    3.8512    0.0000 C   0  0  0  0  0  0  0  0  0  0  0  0
    5.4641   -0.3512    0.0000 C   0  0  0  0  0  0  0  0  0  0  0  0
    4.5981   -1.8512    0.0000 C   0  0  0  0  0  0  0  0  0  0  0  0
    4.5981   -0.8512    0.0000 C   0  0  0  0  0  0  0  0  0  0  0  0
    3.7320   -2.3512    0.0000 C   0  0  0  0  0  0  0  0  0  0  0  0
    5.4641   -2.3512    0.0000 C   0  0  0  0  0  0  0  0  0  0  0  0
    3.7320   -3.3512    0.0000 C   0  0  0  0  0  0  0  0  0  0  0  0
    5.4641   -3.3512    0.0000 C   0  0  0  0  0  0  0  0  0  0  0  0
    4.5981   -3.8512    0.0000 C   0  0  0  0  0  0  0  0  0  0  0  0
    2.8660   -1.8512    0.0000 C   0  0  0  0  0  0  0  0  0  0  0  0
    6.1181    2.7314    0.0000 H   0  0  0  0  0  0  0  0  0  0  0  0
    5.7196    2.0411    0.0000 H   0  0  0  0  0  0  0  0  0  0  0  0
    9.3954    2.9204    0.0000 H   0  0  0  0  0  0  0  0  0  0  0  0
    6.8862    0.1118    0.0000 H   0  0  0  0  0  0  0  0  0  0  0  0
    7.7331    0.3388    0.0000 H   0  0  0  0  0  0  0  0  0  0  0  0
    7.5062    1.1857    0.0000 H   0  0  0  0  0  0  0  0  0  0  0  0
    7.7112    1.1350    0.0000 H   0  0  0  0  0  0  0  0  0  0  0  0
    8.4465    0.6574    0.0000 H   0  0  0  0  0  0  0  0  0  0  0  0
    8.9241    1.3928    0.0000 H   0  0  0  0  0  0  0  0  0  0  0  0
    8.5310    4.4176    0.0000 H   0  0  0  0  0  0  0  0  0  0  0  0
    6.0010   -0.6612    0.0000 H   0  0  0  0  0  0  0  0  0  0  0  0
    4.0611   -0.5412    0.0000 H   0  0  0  0  0  0  0  0  0  0  0  0
    6.0010   -2.0412    0.0000 H   0  0  0  0  0  0  0  0  0  0  0  0
    3.1951   -3.6612    0.0000 H   0  0  0  0  0  0  0  0  0  0  0  0
    6.0010   -3.6612    0.0000 H   0  0  0  0  0  0  0  0  0  0  0  0
    4.5981   -4.4712    0.0000 H   0  0  0  0  0  0  0  0  0  0  0  0
  1  6  1  0  0  0  0
  1 12  1  0  0  0  0
  2  9  2  0  0  0  0
  3  5  1  0  0  0  0
  3  9  1  0  0  0  0
  3 10  1  0  0  0  0
  4 21  3  0  0  0  0
  5  6  1  0  0  0  0
  5 22  1  0  0  0  0
  5 23  1  0  0  0  0
  6  7  2  0  0  0  0
  7  8  1  0  0  0  0
  7 11  1  0  0  0  0
  8 12  2  0  0  0  0
  8 24  1  0  0  0  0
  9 13  1  0  0  0  0
 10 25  1  0  0  0  0
 10 26  1  0  0  0  0
 10 27  1  0  0  0  0
 11 28  1  0  0  0  0
 11 29  1  0  0  0  0
 11 30  1  0  0  0  0
 12 31  1  0  0  0  0
 13 15  2  0  0  0  0
 13 32  1  0  0  0  0
 14 15  1  0  0  0  0
 14 16  1  0  0  0  0
 14 17  2  0  0  0  0
 15 33  1  0  0  0  0
 16 18  2  0  0  0  0
 16 21  1  0  0  0  0
 17 19  1  0  0  0  0
 17 34  1  0  0  0  0
 18 20  1  0  0  0  0
 18 35  1  0  0  0  0
 19 20  2  0  0  0  0
 19 36  1  0  0  0  0
 20 37  1  0  0  0  0
M  END
> <PUBCHEM_COMPOUND_CID>
17396482

> <PUBCHEM_COMPOUND_CANONICALIZED>
1

> <PUBCHEM_CACTVS_COMPLEXITY>
439

> <PUBCHEM_CACTVS_HBOND_ACCEPTOR>
3

> <PUBCHEM_CACTVS_HBOND_DONOR>
0

> <PUBCHEM_CACTVS_ROTATABLE_BOND>
4

> <PUBCHEM_CACTVS_SUBSKEYS>
AAADceB7IABAAAAAAAAAAAAAAAAAASAAAAAwAAAAAAAAAAABwAAAHgQAAAAADADF2ASyAYMAAAicBiFSEACjAIAgCBBIiBgIBMgIoCKgkRGEIAhghgCoiY8QgIAOgAAAAAAQAAAAAAAAACAAAAAAAAAAAA==

> <PUBCHEM_IUPAC_OPENEYE_NAME>
(E)-3-(2-cyanophenyl)-N-methyl-N-[(3-methyl-2-thienyl)methyl]prop-2-enamide

> <PUBCHEM_IUPAC_CAS_NAME>
(E)-3-(2-cyanophenyl)-N-methyl-N-[(3-methyl-2-thiophenyl)methyl]-2-propenamide

> <PUBCHEM_IUPAC_NAME>
(E)-3-(2-cyanophenyl)-N-methyl-N-[(3-methylthiophen-2-yl)methyl]prop-2-enamide

> <PUBCHEM_IUPAC_SYSTEMATIC_NAME>
(E)-3-(2-cyanophenyl)-N-methyl-N-[(3-methylthiophen-2-yl)methyl]prop-2-enamide

> <PUBCHEM_IUPAC_TRADITIONAL_NAME>
(E)-3-(2-cyanophenyl)-N-methyl-N-[(3-methyl-2-thienyl)methyl]acrylamide

> <PUBCHEM_IUPAC_INCHI>
InChI=1S/C17H16N2OS/c1-13-9-10-21-16(13)12-19(2)17(20)8-7-14-5-3-4-6-15(14)11-18/h3-10H,12H2,1-2H3/b8-7+

> <PUBCHEM_IUPAC_INCHIKEY>
FGJRIELZBZQFSL-BQYQJAHWSA-N

> <PUBCHEM_XLOGP3_AA>
3.1

> <PUBCHEM_EXACT_MASS>
296.098334

> <PUBCHEM_MOLECULAR_FORMULA>
C17H16N2OS

> <PUBCHEM_MOLECULAR_WEIGHT>
296.38674

> <PUBCHEM_OPENEYE_CAN_SMILES>
CC1=C(SC=C1)CN(C)C(=O)C=CC2=CC=CC=C2C#N

> <PUBCHEM_OPENEYE_ISO_SMILES>
CC1=C(SC=C1)CN(C)C(=O)/C=C/C2=CC=CC=C2C#N

> <PUBCHEM_CACTVS_TPSA>
72.3

> <PUBCHEM_MONOISOTOPIC_WEIGHT>
296.098334

> <PUBCHEM_TOTAL_CHARGE>
0

> <PUBCHEM_HEAVY_ATOM_COUNT>
21

> <PUBCHEM_ATOM_DEF_STEREO_COUNT>
0

> <PUBCHEM_ATOM_UDEF_STEREO_COUNT>
0

> <PUBCHEM_BOND_DEF_STEREO_COUNT>
1

> <PUBCHEM_BOND_UDEF_STEREO_COUNT>
0

> <PUBCHEM_ISOTOPIC_ATOM_COUNT>
0

> <PUBCHEM_COMPONENT_COUNT>
1

> <PUBCHEM_CACTVS_TAUTO_COUNT>
1

> <PUBCHEM_COORDINATE_TYPE>
1
5
255

> <PUBCHEM_BONDANNOTATIONS>
1  12  8
1  6  8
14  16  8
14  17  8
16  18  8
17  19  8
18  20  8
19  20  8
6  7  8
7  8  8
8  12  8

$$$$

