17395932
  -OEChem-06241222532D

 32 35  0     0  0  0  0  0  0999 V2000
    3.3080   -0.7903    0.0000 S   0  0  0  0  0  0  0  0  0  0  0  0
    4.1701    3.5208    0.0000 F   0  0  0  0  0  0  0  0  0  0  0  0
   10.0186   -2.1268    0.0000 O   0  0  0  0  0  0  0  0  0  0  0  0
    8.4350   -1.3220    0.0000 N   0  0  0  0  0  0  0  0  0  0  0  0
    8.4350   -2.9315    0.0000 N   0  0  0  0  0  0  0  0  0  0  0  0
    4.7861   -0.1322    0.0000 N   0  0  0  0  0  0  0  0  0  0  0  0
    7.4888   -1.6268    0.0000 C   0  0  0  0  0  0  0  0  0  0  0  0
    7.4888   -2.6268    0.0000 C   0  0  0  0  0  0  0  0  0  0  0  0
    5.7567   -1.6268    0.0000 C   0  0  0  0  0  0  0  0  0  0  0  0
    6.6227   -1.1268    0.0000 C   0  0  0  0  0  0  0  0  0  0  0  0
    4.8907   -1.1268    0.0000 C   0  0  0  0  0  0  0  0  0  0  0  0
    6.6227   -3.1268    0.0000 C   0  0  0  0  0  0  0  0  0  0  0  0
    5.7567   -2.6268    0.0000 C   0  0  0  0  0  0  0  0  0  0  0  0
    9.0186   -2.1268    0.0000 C   0  0  0  0  0  0  0  0  0  0  0  0
    3.8080    0.0757    0.0000 C   0  0  0  0  0  0  0  0  0  0  0  0
    3.9771   -1.5335    0.0000 C   0  0  0  0  0  0  0  0  0  0  0  0
    3.4013    0.9892    0.0000 C   0  0  0  0  0  0  0  0  0  0  0  0
    3.9890    1.7982    0.0000 C   0  0  0  0  0  0  0  0  0  0  0  0
    2.4067    1.0938    0.0000 C   0  0  0  0  0  0  0  0  0  0  0  0
    3.5823    2.7118    0.0000 C   0  0  0  0  0  0  0  0  0  0  0  0
    2.0000    2.0073    0.0000 C   0  0  0  0  0  0  0  0  0  0  0  0
    2.5878    2.8163    0.0000 C   0  0  0  0  0  0  0  0  0  0  0  0
    6.6227   -0.5068    0.0000 H   0  0  0  0  0  0  0  0  0  0  0  0
    6.6227   -3.7468    0.0000 H   0  0  0  0  0  0  0  0  0  0  0  0
    5.2198   -2.9368    0.0000 H   0  0  0  0  0  0  0  0  0  0  0  0
    8.6276   -0.7327    0.0000 H   0  0  0  0  0  0  0  0  0  0  0  0
    8.6276   -3.5208    0.0000 H   0  0  0  0  0  0  0  0  0  0  0  0
    3.8482   -2.1399    0.0000 H   0  0  0  0  0  0  0  0  0  0  0  0
    4.6056    1.7334    0.0000 H   0  0  0  0  0  0  0  0  0  0  0  0
    2.0423    0.5922    0.0000 H   0  0  0  0  0  0  0  0  0  0  0  0
    1.3834    2.0721    0.0000 H   0  0  0  0  0  0  0  0  0  0  0  0
    2.3356    3.3827    0.0000 H   0  0  0  0  0  0  0  0  0  0  0  0
  1 15  1  0  0  0  0
  1 16  1  0  0  0  0
  2 20  1  0  0  0  0
  3 14  2  0  0  0  0
  4  7  1  0  0  0  0
  4 14  1  0  0  0  0
  4 26  1  0  0  0  0
  5  8  1  0  0  0  0
  5 14  1  0  0  0  0
  5 27  1  0  0  0  0
  6 11  1  0  0  0  0
  6 15  2  0  0  0  0
  7  8  2  0  0  0  0
  7 10  1  0  0  0  0
  8 12  1  0  0  0  0
  9 10  2  0  0  0  0
  9 11  1  0  0  0  0
  9 13  1  0  0  0  0
 10 23  1  0  0  0  0
 11 16  2  0  0  0  0
 12 13  2  0  0  0  0
 12 24  1  0  0  0  0
 13 25  1  0  0  0  0
 15 17  1  0  0  0  0
 16 28  1  0  0  0  0
 17 18  2  0  0  0  0
 17 19  1  0  0  0  0
 18 20  1  0  0  0  0
 18 29  1  0  0  0  0
 19 21  2  0  0  0  0
 19 30  1  0  0  0  0
 20 22  2  0  0  0  0
 21 22  1  0  0  0  0
 21 31  1  0  0  0  0
 22 32  1  0  0  0  0
M  END
> <PUBCHEM_COMPOUND_CID>
17395932

> <PUBCHEM_COMPOUND_CANONICALIZED>
1

> <PUBCHEM_CACTVS_COMPLEXITY>
438

> <PUBCHEM_CACTVS_HBOND_ACCEPTOR>
4

> <PUBCHEM_CACTVS_HBOND_DONOR>
2

> <PUBCHEM_CACTVS_ROTATABLE_BOND>
2

> <PUBCHEM_CACTVS_SUBSKEYS>
AAADccB7IQBAAAAAAAAAAAAAAAAAAWLAAAAwYAAAAAAAAFgB0AAAHwQQAAAADAiFXgixwZLIEAisAyRiVACC8KBhCjgIiDQwdJiIYKLgkZGUIAholALoyCcQgIAOCAAAQAAAACAQAACAAAAAQAAAAAAAAA==

> <PUBCHEM_IUPAC_OPENEYE_NAME>
5-[2-(3-fluorophenyl)thiazol-4-yl]-1,3-dihydrobenzimidazol-2-one

> <PUBCHEM_IUPAC_CAS_NAME>
5-[2-(3-fluorophenyl)-4-thiazolyl]-1,3-dihydrobenzimidazol-2-one

> <PUBCHEM_IUPAC_NAME>
5-[2-(3-fluorophenyl)-1,3-thiazol-4-yl]-1,3-dihydrobenzimidazol-2-one

> <PUBCHEM_IUPAC_SYSTEMATIC_NAME>
5-[2-(3-fluorophenyl)-1,3-thiazol-4-yl]-1,3-dihydrobenzimidazol-2-one

> <PUBCHEM_IUPAC_TRADITIONAL_NAME>
5-[2-(3-fluorophenyl)thiazol-4-yl]-1,3-dihydrobenzimidazol-2-one

> <PUBCHEM_IUPAC_INCHI>
InChI=1S/C16H10FN3OS/c17-11-3-1-2-10(6-11)15-18-14(8-22-15)9-4-5-12-13(7-9)20-16(21)19-12/h1-8H,(H2,19,20,21)

> <PUBCHEM_IUPAC_INCHIKEY>
AEWFLNXWRUCNTQ-UHFFFAOYSA-N

> <PUBCHEM_XLOGP3_AA>
3

> <PUBCHEM_EXACT_MASS>
311.052861

> <PUBCHEM_MOLECULAR_FORMULA>
C16H10FN3OS

> <PUBCHEM_MOLECULAR_WEIGHT>
311.333503

> <PUBCHEM_OPENEYE_CAN_SMILES>
C1=CC(=CC(=C1)F)C2=NC(=CS2)C3=CC4=C(C=C3)NC(=O)N4

> <PUBCHEM_OPENEYE_ISO_SMILES>
C1=CC(=CC(=C1)F)C2=NC(=CS2)C3=CC4=C(C=C3)NC(=O)N4

> <PUBCHEM_CACTVS_TPSA>
82.3

> <PUBCHEM_MONOISOTOPIC_WEIGHT>
311.052861

> <PUBCHEM_TOTAL_CHARGE>
0

> <PUBCHEM_HEAVY_ATOM_COUNT>
22

> <PUBCHEM_ATOM_DEF_STEREO_COUNT>
0

> <PUBCHEM_ATOM_UDEF_STEREO_COUNT>
0

> <PUBCHEM_BOND_DEF_STEREO_COUNT>
0

> <PUBCHEM_BOND_UDEF_STEREO_COUNT>
0

> <PUBCHEM_ISOTOPIC_ATOM_COUNT>
0

> <PUBCHEM_COMPONENT_COUNT>
1

> <PUBCHEM_CACTVS_TAUTO_COUNT>
3

> <PUBCHEM_COORDINATE_TYPE>
1
5
255

> <PUBCHEM_BONDANNOTATIONS>
1  15  8
1  16  8
11  16  8
12  13  8
17  18  8
17  19  8
18  20  8
19  21  8
20  22  8
21  22  8
4  14  8
4  7  8
5  14  8
5  8  8
6  11  8
6  15  8
7  10  8
7  8  8
8  12  8
9  10  8
9  13  8

$$$$

