17396296
  -OEChem-06241222552D

 35 37  0     0  0  0  0  0  0999 V2000
    5.4641    1.7500    0.0000 Cl  0  0  0  0  0  0  0  0  0  0  0  0
    2.0000    1.7500    0.0000 F   0  0  0  0  0  0  0  0  0  0  0  0
   11.6065   -1.5547    0.0000 O   0  0  0  0  0  0  0  0  0  0  0  0
    5.4641   -0.2500    0.0000 O   0  0  0  0  0  0  0  0  0  0  0  0
    7.1962   -1.2500    0.0000 O   0  0  0  0  0  0  0  0  0  0  0  0
    8.0622    0.2500    0.0000 N   0  0  0  0  0  0  0  0  0  0  0  0
   11.6065    0.0547    0.0000 N   0  0  0  0  0  0  0  0  0  0  0  0
   10.6603   -0.2500    0.0000 C   0  0  0  0  0  0  0  0  0  0  0  0
    8.9282   -0.2500    0.0000 C   0  0  0  0  0  0  0  0  0  0  0  0
   10.6603   -1.2500    0.0000 C   0  0  0  0  0  0  0  0  0  0  0  0
    9.7942    0.2500    0.0000 C   0  0  0  0  0  0  0  0  0  0  0  0
    8.9282   -1.2500    0.0000 C   0  0  0  0  0  0  0  0  0  0  0  0
    9.7942   -1.7500    0.0000 C   0  0  0  0  0  0  0  0  0  0  0  0
   12.1901   -0.7500    0.0000 C   0  0  0  0  0  0  0  0  0  0  0  0
    7.1962   -0.2500    0.0000 C   0  0  0  0  0  0  0  0  0  0  0  0
    6.3301    0.2500    0.0000 C   0  0  0  0  0  0  0  0  0  0  0  0
    4.5981    0.2500    0.0000 C   0  0  0  0  0  0  0  0  0  0  0  0
   13.1901   -0.7500    0.0000 C   0  0  0  0  0  0  0  0  0  0  0  0
    4.5981    1.2500    0.0000 C   0  0  0  0  0  0  0  0  0  0  0  0
    3.7320   -0.2500    0.0000 C   0  0  0  0  0  0  0  0  0  0  0  0
    3.7320    1.7500    0.0000 C   0  0  0  0  0  0  0  0  0  0  0  0
    2.8660    0.2500    0.0000 C   0  0  0  0  0  0  0  0  0  0  0  0
    2.8660    1.2500    0.0000 C   0  0  0  0  0  0  0  0  0  0  0  0
    9.7942    0.8700    0.0000 H   0  0  0  0  0  0  0  0  0  0  0  0
    8.3913   -1.5600    0.0000 H   0  0  0  0  0  0  0  0  0  0  0  0
    9.7942   -2.3700    0.0000 H   0  0  0  0  0  0  0  0  0  0  0  0
    8.0622    0.8700    0.0000 H   0  0  0  0  0  0  0  0  0  0  0  0
    6.7287    0.7249    0.0000 H   0  0  0  0  0  0  0  0  0  0  0  0
    5.9316    0.7249    0.0000 H   0  0  0  0  0  0  0  0  0  0  0  0
   13.1901   -1.3700    0.0000 H   0  0  0  0  0  0  0  0  0  0  0  0
   13.8101   -0.7500    0.0000 H   0  0  0  0  0  0  0  0  0  0  0  0
   13.1901   -0.1300    0.0000 H   0  0  0  0  0  0  0  0  0  0  0  0
    3.7320   -0.8700    0.0000 H   0  0  0  0  0  0  0  0  0  0  0  0
    3.7320    2.3700    0.0000 H   0  0  0  0  0  0  0  0  0  0  0  0
    2.3291   -0.0600    0.0000 H   0  0  0  0  0  0  0  0  0  0  0  0
  1 19  1  0  0  0  0
  2 23  1  0  0  0  0
  3 10  1  0  0  0  0
  3 14  1  0  0  0  0
  4 16  1  0  0  0  0
  4 17  1  0  0  0  0
  5 15  2  0  0  0  0
  6  9  1  0  0  0  0
  6 15  1  0  0  0  0
  6 27  1  0  0  0  0
  7  8  1  0  0  0  0
  7 14  2  0  0  0  0
  8 10  2  0  0  0  0
  8 11  1  0  0  0  0
  9 11  2  0  0  0  0
  9 12  1  0  0  0  0
 10 13  1  0  0  0  0
 11 24  1  0  0  0  0
 12 13  2  0  0  0  0
 12 25  1  0  0  0  0
 13 26  1  0  0  0  0
 14 18  1  0  0  0  0
 15 16  1  0  0  0  0
 16 28  1  0  0  0  0
 16 29  1  0  0  0  0
 17 19  2  0  0  0  0
 17 20  1  0  0  0  0
 18 30  1  0  0  0  0
 18 31  1  0  0  0  0
 18 32  1  0  0  0  0
 19 21  1  0  0  0  0
 20 22  2  0  0  0  0
 20 33  1  0  0  0  0
 21 23  2  0  0  0  0
 21 34  1  0  0  0  0
 22 23  1  0  0  0  0
 22 35  1  0  0  0  0
M  END
> <PUBCHEM_COMPOUND_CID>
17396296

> <PUBCHEM_COMPOUND_CANONICALIZED>
1

> <PUBCHEM_CACTVS_COMPLEXITY>
428

> <PUBCHEM_CACTVS_HBOND_ACCEPTOR>
5

> <PUBCHEM_CACTVS_HBOND_DONOR>
1

> <PUBCHEM_CACTVS_ROTATABLE_BOND>
4

> <PUBCHEM_CACTVS_SUBSKEYS>
AAADccB7MQAEAAAAAAAAAAAAAAAAAWAAAAAwYAAAAAAAAFgB9AAAHwIQAAAACA6hlioyxrLIFECoAaVyVAaCiCAvZ2AImCH3b9gOJrPF9/+PPSjk1BHY6Ye8SAAAAEAAAAQAGAAAgAAACAAwAAAAAAAAAA==

> <PUBCHEM_IUPAC_OPENEYE_NAME>
2-(2-chloro-4-fluoro-phenoxy)-N-(2-methyl-1,3-benzoxazol-5-yl)acetamide

> <PUBCHEM_IUPAC_CAS_NAME>
2-(2-chloro-4-fluorophenoxy)-N-(2-methyl-1,3-benzoxazol-5-yl)acetamide

> <PUBCHEM_IUPAC_NAME>
2-(2-chloro-4-fluorophenoxy)-N-(2-methyl-1,3-benzoxazol-5-yl)acetamide

> <PUBCHEM_IUPAC_SYSTEMATIC_NAME>
2-(2-chloranyl-4-fluoranyl-phenoxy)-N-(2-methyl-1,3-benzoxazol-5-yl)ethanamide

> <PUBCHEM_IUPAC_TRADITIONAL_NAME>
2-(2-chloro-4-fluoro-phenoxy)-N-(2-methyl-1,3-benzoxazol-5-yl)acetamide

> <PUBCHEM_IUPAC_INCHI>
InChI=1S/C16H12ClFN2O3/c1-9-19-13-7-11(3-5-15(13)23-9)20-16(21)8-22-14-4-2-10(18)6-12(14)17/h2-7H,8H2,1H3,(H,20,21)

> <PUBCHEM_IUPAC_INCHIKEY>
ONZPDKHHFOKSPJ-UHFFFAOYSA-N

> <PUBCHEM_XLOGP3_AA>
3.8

> <PUBCHEM_EXACT_MASS>
334.052048

> <PUBCHEM_MOLECULAR_FORMULA>
C16H12ClFN2O3

> <PUBCHEM_MOLECULAR_WEIGHT>
334.729483

> <PUBCHEM_OPENEYE_CAN_SMILES>
CC1=NC2=C(O1)C=CC(=C2)NC(=O)COC3=C(C=C(C=C3)F)Cl

> <PUBCHEM_OPENEYE_ISO_SMILES>
CC1=NC2=C(O1)C=CC(=C2)NC(=O)COC3=C(C=C(C=C3)F)Cl

> <PUBCHEM_CACTVS_TPSA>
64.4

> <PUBCHEM_MONOISOTOPIC_WEIGHT>
334.052048

> <PUBCHEM_TOTAL_CHARGE>
0

> <PUBCHEM_HEAVY_ATOM_COUNT>
23

> <PUBCHEM_ATOM_DEF_STEREO_COUNT>
0

> <PUBCHEM_ATOM_UDEF_STEREO_COUNT>
0

> <PUBCHEM_BOND_DEF_STEREO_COUNT>
0

> <PUBCHEM_BOND_UDEF_STEREO_COUNT>
0

> <PUBCHEM_ISOTOPIC_ATOM_COUNT>
0

> <PUBCHEM_COMPONENT_COUNT>
1

> <PUBCHEM_CACTVS_TAUTO_COUNT>
3

> <PUBCHEM_COORDINATE_TYPE>
1
5
255

> <PUBCHEM_BONDANNOTATIONS>
10  13  8
12  13  8
17  19  8
17  20  8
19  21  8
20  22  8
21  23  8
22  23  8
3  10  8
3  14  8
7  14  8
7  8  8
8  10  8
8  11  8
9  11  8
9  12  8

$$$$

