11338
  -OEChem-06261205332D

 66 64  0     1  0  0  0  0  0999 V2000
    8.3312    8.1200    0.0000 S   0  0  0  0  0  0  0  0  0  0  0  0
   10.0632    8.1200    0.0000 Na  0  3  0  0  0  0  0  0  0  0  0  0
    5.7331    7.6200    0.0000 O   0  0  0  0  0  0  0  0  0  0  0  0
    6.5991    5.1200    0.0000 O   0  0  0  0  0  0  0  0  0  0  0  0
    6.5991    9.1200    0.0000 O   0  0  0  0  0  0  0  0  0  0  0  0
    5.7331    6.6200    0.0000 O   0  0  0  0  0  0  0  0  0  0  0  0
    9.1972    8.6200    0.0000 O   0  5  0  0  0  0  0  0  0  0  0  0
    8.8312    7.2540    0.0000 O   0  0  0  0  0  0  0  0  0  0  0  0
    7.8312    8.9860    0.0000 O   0  0  0  0  0  0  0  0  0  0  0  0
    4.0010    7.6200    0.0000 C   0  0  3  0  0  0  0  0  0  0  0  0
    5.7331    3.6200    0.0000 C   0  0  3  0  0  0  0  0  0  0  0  0
    3.1350    8.1200    0.0000 C   0  0  0  0  0  0  0  0  0  0  0  0
    4.8671    3.1200    0.0000 C   0  0  0  0  0  0  0  0  0  0  0  0
    4.0010    6.6200    0.0000 C   0  0  0  0  0  0  0  0  0  0  0  0
    6.5991    3.1200    0.0000 C   0  0  0  0  0  0  0  0  0  0  0  0
    2.2690    7.6200    0.0000 C   0  0  0  0  0  0  0  0  0  0  0  0
    4.8671    8.1200    0.0000 C   0  0  0  0  0  0  0  0  0  0  0  0
    4.8671    2.1200    0.0000 C   0  0  0  0  0  0  0  0  0  0  0  0
    5.7331    4.6200    0.0000 C   0  0  0  0  0  0  0  0  0  0  0  0
    1.4030    8.1200    0.0000 C   0  0  0  0  0  0  0  0  0  0  0  0
    4.0010    1.6200    0.0000 C   0  0  0  0  0  0  0  0  0  0  0  0
    3.1350    6.1200    0.0000 C   0  0  0  0  0  0  0  0  0  0  0  0
    7.4651    7.6200    0.0000 C   0  0  3  0  0  0  0  0  0  0  0  0
    6.5991    2.1200    0.0000 C   0  0  0  0  0  0  0  0  0  0  0  0
    7.4651    6.6200    0.0000 C   0  0  0  0  0  0  0  0  0  0  0  0
    6.5991    8.1200    0.0000 C   0  0  0  0  0  0  0  0  0  0  0  0
    6.5991    6.1200    0.0000 C   0  0  0  0  0  0  0  0  0  0  0  0
    0.5369    7.6200    0.0000 C   0  0  0  0  0  0  0  0  0  0  0  0
    4.0010    0.6200    0.0000 C   0  0  0  0  0  0  0  0  0  0  0  0
    4.0010    8.2400    0.0000 H   0  0  0  0  0  0  0  0  0  0  0  0
    5.1962    3.9300    0.0000 H   0  0  0  0  0  0  0  0  0  0  0  0
    3.5335    8.5950    0.0000 H   0  0  0  0  0  0  0  0  0  0  0  0
    2.7365    8.5950    0.0000 H   0  0  0  0  0  0  0  0  0  0  0  0
    4.6550    3.7026    0.0000 H   0  0  0  0  0  0  0  0  0  0  0  0
    4.2565    3.0123    0.0000 H   0  0  0  0  0  0  0  0  0  0  0  0
    4.2131    6.0374    0.0000 H   0  0  0  0  0  0  0  0  0  0  0  0
    4.6116    6.7277    0.0000 H   0  0  0  0  0  0  0  0  0  0  0  0
    7.2097    3.0123    0.0000 H   0  0  0  0  0  0  0  0  0  0  0  0
    6.8112    3.7026    0.0000 H   0  0  0  0  0  0  0  0  0  0  0  0
    1.8705    7.1451    0.0000 H   0  0  0  0  0  0  0  0  0  0  0  0
    2.6675    7.1451    0.0000 H   0  0  0  0  0  0  0  0  0  0  0  0
    5.2656    8.5950    0.0000 H   0  0  0  0  0  0  0  0  0  0  0  0
    4.4685    8.5950    0.0000 H   0  0  0  0  0  0  0  0  0  0  0  0
    5.0791    1.5374    0.0000 H   0  0  0  0  0  0  0  0  0  0  0  0
    5.4776    2.2277    0.0000 H   0  0  0  0  0  0  0  0  0  0  0  0
    5.5210    5.2026    0.0000 H   0  0  0  0  0  0  0  0  0  0  0  0
    5.1225    4.5123    0.0000 H   0  0  0  0  0  0  0  0  0  0  0  0
    1.8015    8.5950    0.0000 H   0  0  0  0  0  0  0  0  0  0  0  0
    1.0044    8.5950    0.0000 H   0  0  0  0  0  0  0  0  0  0  0  0
    3.7890    2.2026    0.0000 H   0  0  0  0  0  0  0  0  0  0  0  0
    3.3905    1.5123    0.0000 H   0  0  0  0  0  0  0  0  0  0  0  0
    8.0021    7.3100    0.0000 H   0  0  0  0  0  0  0  0  0  0  0  0
    2.8250    6.6569    0.0000 H   0  0  0  0  0  0  0  0  0  0  0  0
    2.5981    5.8100    0.0000 H   0  0  0  0  0  0  0  0  0  0  0  0
    3.4450    5.5831    0.0000 H   0  0  0  0  0  0  0  0  0  0  0  0
    5.9791    2.1200    0.0000 H   0  0  0  0  0  0  0  0  0  0  0  0
    6.5991    1.5000    0.0000 H   0  0  0  0  0  0  0  0  0  0  0  0
    7.2191    2.1200    0.0000 H   0  0  0  0  0  0  0  0  0  0  0  0
    7.6772    6.0374    0.0000 H   0  0  0  0  0  0  0  0  0  0  0  0
    8.0757    6.7277    0.0000 H   0  0  0  0  0  0  0  0  0  0  0  0
    0.2269    8.1569    0.0000 H   0  0  0  0  0  0  0  0  0  0  0  0
    0.0000    7.3100    0.0000 H   0  0  0  0  0  0  0  0  0  0  0  0
    0.8469    7.0831    0.0000 H   0  0  0  0  0  0  0  0  0  0  0  0
    3.3810    0.6200    0.0000 H   0  0  0  0  0  0  0  0  0  0  0  0
    4.0010    0.0000    0.0000 H   0  0  0  0  0  0  0  0  0  0  0  0
    4.6210    0.6200    0.0000 H   0  0  0  0  0  0  0  0  0  0  0  0
  1  7  1  0  0  0  0
  1  8  2  0  0  0  0
  1  9  2  0  0  0  0
  1 23  1  0  0  0  0
  3 17  1  0  0  0  0
  3 26  1  0  0  0  0
  4 19  1  0  0  0  0
  4 27  1  0  0  0  0
  5 26  2  0  0  0  0
  6 27  2  0  0  0  0
 10 12  1  0  0  0  0
 10 14  1  0  0  0  0
 10 17  1  0  0  0  0
 10 30  1  0  0  0  0
 11 13  1  0  0  0  0
 11 15  1  0  0  0  0
 11 19  1  0  0  0  0
 11 31  1  0  0  0  0
 12 16  1  0  0  0  0
 12 32  1  0  0  0  0
 12 33  1  0  0  0  0
 13 18  1  0  0  0  0
 13 34  1  0  0  0  0
 13 35  1  0  0  0  0
 14 22  1  0  0  0  0
 14 36  1  0  0  0  0
 14 37  1  0  0  0  0
 15 24  1  0  0  0  0
 15 38  1  0  0  0  0
 15 39  1  0  0  0  0
 16 20  1  0  0  0  0
 16 40  1  0  0  0  0
 16 41  1  0  0  0  0
 17 42  1  0  0  0  0
 17 43  1  0  0  0  0
 18 21  1  0  0  0  0
 18 44  1  0  0  0  0
 18 45  1  0  0  0  0
 19 46  1  0  0  0  0
 19 47  1  0  0  0  0
 20 28  1  0  0  0  0
 20 48  1  0  0  0  0
 20 49  1  0  0  0  0
 21 29  1  0  0  0  0
 21 50  1  0  0  0  0
 21 51  1  0  0  0  0
 22 53  1  0  0  0  0
 22 54  1  0  0  0  0
 22 55  1  0  0  0  0
 23 25  1  0  0  0  0
 23 26  1  0  0  0  0
 23 52  1  0  0  0  0
 24 56  1  0  0  0  0
 24 57  1  0  0  0  0
 24 58  1  0  0  0  0
 25 27  1  0  0  0  0
 25 59  1  0  0  0  0
 25 60  1  0  0  0  0
 28 61  1  0  0  0  0
 28 62  1  0  0  0  0
 28 63  1  0  0  0  0
 29 64  1  0  0  0  0
 29 65  1  0  0  0  0
 29 66  1  0  0  0  0
M  CHG  2   2   1   7  -1
M  END
> <PUBCHEM_COMPOUND_CID>
11338

> <PUBCHEM_COMPOUND_CANONICALIZED>
1

> <PUBCHEM_CACTVS_COMPLEXITY>
526

> <PUBCHEM_CACTVS_HBOND_ACCEPTOR>
7

> <PUBCHEM_CACTVS_HBOND_DONOR>
0

> <PUBCHEM_CACTVS_ROTATABLE_BOND>
17

> <PUBCHEM_CACTVS_SUBSKEYS>
AAADcfB4OCBAAAAAAAAAAAAAAAAAAAAAAAAAAAAAAAAAAAAAAAAAGgQAAAAADQCkwAKCCAAABAIIAACQCHBAAAAAAAAAAAEAAAAAABIAAAACAAAEAAAAAAHDwAAOAAAAAAAAAAAAAAAAAAAAAAAAAAAAAA==

> <PUBCHEM_IUPAC_OPENEYE_NAME>
sodium 1,4-bis(2-ethylhexoxy)-1,4-dioxo-butane-2-sulfonate

> <PUBCHEM_IUPAC_CAS_NAME>
sodium 1,4-bis(2-ethylhexoxy)-1,4-dioxo-2-butanesulfonate

> <PUBCHEM_IUPAC_NAME>
sodium 1,4-bis(2-ethylhexoxy)-1,4-dioxobutane-2-sulfonate

> <PUBCHEM_IUPAC_SYSTEMATIC_NAME>
sodium 1,4-bis(2-ethylhexoxy)-1,4-bis(oxidanylidene)butane-2-sulfonate

> <PUBCHEM_IUPAC_TRADITIONAL_NAME>
sodium 1,4-bis(2-ethylhexoxy)-1,4-diketo-butane-2-sulfonate

> <PUBCHEM_IUPAC_INCHI>
InChI=1S/C20H38O7S.Na/c1-5-9-11-16(7-3)14-26-19(21)13-18(28(23,24)25)20(22)27-15-17(8-4)12-10-6-2;/h16-18H,5-15H2,1-4H3,(H,23,24,25);/q;+1/p-1

> <PUBCHEM_IUPAC_INCHIKEY>
APSBXTVYXVQYAB-UHFFFAOYSA-M

> <PUBCHEM_EXACT_MASS>
444.215769

> <PUBCHEM_MOLECULAR_FORMULA>
C20H37NaO7S

> <PUBCHEM_MOLECULAR_WEIGHT>
444.558349

> <PUBCHEM_OPENEYE_CAN_SMILES>
CCCCC(CC)COC(=O)CC(C(=O)OCC(CC)CCCC)S(=O)(=O)[O-].[Na+]

> <PUBCHEM_OPENEYE_ISO_SMILES>
CCCCC(CC)COC(=O)CC(C(=O)OCC(CC)CCCC)S(=O)(=O)[O-].[Na+]

> <PUBCHEM_CACTVS_TPSA>
118

> <PUBCHEM_MONOISOTOPIC_WEIGHT>
444.215769

> <PUBCHEM_TOTAL_CHARGE>
0

> <PUBCHEM_HEAVY_ATOM_COUNT>
29

> <PUBCHEM_ATOM_DEF_STEREO_COUNT>
0

> <PUBCHEM_ATOM_UDEF_STEREO_COUNT>
3

> <PUBCHEM_BOND_DEF_STEREO_COUNT>
0

> <PUBCHEM_BOND_UDEF_STEREO_COUNT>
0

> <PUBCHEM_ISOTOPIC_ATOM_COUNT>
0

> <PUBCHEM_COMPONENT_COUNT>
2

> <PUBCHEM_CACTVS_TAUTO_COUNT>
1

> <PUBCHEM_COORDINATE_TYPE>
1
5
255

> <PUBCHEM_BONDANNOTATIONS>
10  17  3
11  19  3
23  25  3

$$$$

