9162
  -OEChem-06261203282D

 36 40  0     0  0  0  0  0  0999 V2000
    5.6591   -1.0391    0.0000 C   0  0  0  0  0  0  0  0  0  0  0  0
    6.5251   -0.5391    0.0000 C   0  0  0  0  0  0  0  0  0  0  0  0
    4.7931   -0.5391    0.0000 C   0  0  0  0  0  0  0  0  0  0  0  0
    6.5251    0.4609    0.0000 C   0  0  0  0  0  0  0  0  0  0  0  0
    7.4191    0.9956    0.0000 C   0  0  0  0  0  0  0  0  0  0  0  0
    3.8831   -1.0459    0.0000 C   0  0  0  0  0  0  0  0  0  0  0  0
    5.6591    0.9609    0.0000 C   0  0  0  0  0  0  0  0  0  0  0  0
    4.7931    0.4609    0.0000 C   0  0  0  0  0  0  0  0  0  0  0  0
    8.3252    0.4818    0.0000 C   0  0  0  0  0  0  0  0  0  0  0  0
    3.8751   -2.0875    0.0000 C   0  0  0  0  0  0  0  0  0  0  0  0
    7.4191   -1.0737    0.0000 C   0  0  0  0  0  0  0  0  0  0  0  0
    5.6752   -2.0806    0.0000 C   0  0  0  0  0  0  0  0  0  0  0  0
    8.3252   -0.5599    0.0000 C   0  0  0  0  0  0  0  0  0  0  0  0
    4.7771   -2.6083    0.0000 C   0  0  0  0  0  0  0  0  0  0  0  0
    7.3940    2.0803    0.0000 C   0  0  0  0  0  0  0  0  0  0  0  0
    2.9562   -0.4818    0.0000 C   0  0  0  0  0  0  0  0  0  0  0  0
    9.2689    1.0170    0.0000 C   0  0  0  0  0  0  0  0  0  0  0  0
    2.9396   -2.6372    0.0000 C   0  0  0  0  0  0  0  0  0  0  0  0
    2.0084   -1.0098    0.0000 C   0  0  0  0  0  0  0  0  0  0  0  0
    8.3252    2.6372    0.0000 C   0  0  0  0  0  0  0  0  0  0  0  0
    2.0000   -2.0947    0.0000 C   0  0  0  0  0  0  0  0  0  0  0  0
    9.2689    2.1020    0.0000 C   0  0  0  0  0  0  0  0  0  0  0  0
    5.6591    1.5809    0.0000 H   0  0  0  0  0  0  0  0  0  0  0  0
    4.2562    0.7709    0.0000 H   0  0  0  0  0  0  0  0  0  0  0  0
    7.4119   -1.6937    0.0000 H   0  0  0  0  0  0  0  0  0  0  0  0
    6.2157   -2.3843    0.0000 H   0  0  0  0  0  0  0  0  0  0  0  0
    8.8609   -0.8719    0.0000 H   0  0  0  0  0  0  0  0  0  0  0  0
    4.7795   -3.2283    0.0000 H   0  0  0  0  0  0  0  0  0  0  0  0
    6.8512    2.3799    0.0000 H   0  0  0  0  0  0  0  0  0  0  0  0
    2.9682    0.1381    0.0000 H   0  0  0  0  0  0  0  0  0  0  0  0
    9.8047    0.7049    0.0000 H   0  0  0  0  0  0  0  0  0  0  0  0
    2.9420   -3.2572    0.0000 H   0  0  0  0  0  0  0  0  0  0  0  0
    8.3180    3.2572    0.0000 H   0  0  0  0  0  0  0  0  0  0  0  0
    1.4750   -0.6936    0.0000 H   0  0  0  0  0  0  0  0  0  0  0  0
    9.8047    2.4141    0.0000 H   0  0  0  0  0  0  0  0  0  0  0  0
    1.4619   -2.4027    0.0000 H   0  0  0  0  0  0  0  0  0  0  0  0
  1  2  1  0  0  0  0
  1  3  2  0  0  0  0
  1 12  1  0  0  0  0
  2  4  2  0  0  0  0
  2 11  1  0  0  0  0
  3  6  1  0  0  0  0
  3  8  1  0  0  0  0
  4  5  1  0  0  0  0
  4  7  1  0  0  0  0
  5  9  1  0  0  0  0
  5 15  2  0  0  0  0
  6 10  1  0  0  0  0
  6 16  2  0  0  0  0
  7  8  2  0  0  0  0
  7 23  1  0  0  0  0
  8 24  1  0  0  0  0
  9 13  1  0  0  0  0
  9 17  2  0  0  0  0
 10 14  1  0  0  0  0
 10 18  2  0  0  0  0
 11 13  2  0  0  0  0
 11 25  1  0  0  0  0
 12 14  2  0  0  0  0
 12 26  1  0  0  0  0
 13 27  1  0  0  0  0
 14 28  1  0  0  0  0
 15 20  1  0  0  0  0
 15 29  1  0  0  0  0
 16 19  1  0  0  0  0
 16 30  1  0  0  0  0
 17 22  1  0  0  0  0
 17 31  1  0  0  0  0
 18 21  1  0  0  0  0
 18 32  1  0  0  0  0
 19 21  2  0  0  0  0
 19 34  1  0  0  0  0
 20 22  2  0  0  0  0
 20 33  1  0  0  0  0
 21 36  1  0  0  0  0
 22 35  1  0  0  0  0
M  END
> <PUBCHEM_COMPOUND_CID>
9162

> <PUBCHEM_COMPOUND_CANONICALIZED>
1

> <PUBCHEM_CACTVS_COMPLEXITY>
361

> <PUBCHEM_CACTVS_HBOND_ACCEPTOR>
0

> <PUBCHEM_CACTVS_HBOND_DONOR>
0

> <PUBCHEM_CACTVS_ROTATABLE_BOND>
0

> <PUBCHEM_CACTVS_SUBSKEYS>
AAADccB4AAAAAAAAAAAAAAAAAAAAAAAAAAAwYMGDAAAAAADBVAAAGAAAAAAADACAGAAwAMAAAACAAiBCAAACAAAgAAAIiAAAAIgIICKAERCAIAAggAAIiAcAgMAOwAACAAAQAACAAAQAACAAAAAAAAAAAA==

> <PUBCHEM_IUPAC_OPENEYE_NAME>
picene

> <PUBCHEM_IUPAC_CAS_NAME>
picene

> <PUBCHEM_IUPAC_NAME>
picene

> <PUBCHEM_IUPAC_SYSTEMATIC_NAME>
picene

> <PUBCHEM_IUPAC_TRADITIONAL_NAME>
picene

> <PUBCHEM_IUPAC_INCHI>
InChI=1S/C22H14/c1-3-7-17-15(5-1)9-11-21-19(17)13-14-20-18-8-4-2-6-16(18)10-12-22(20)21/h1-14H

> <PUBCHEM_IUPAC_INCHIKEY>
GBROPGWFBFCKAG-UHFFFAOYSA-N

> <PUBCHEM_XLOGP3>
7

> <PUBCHEM_EXACT_MASS>
278.10955

> <PUBCHEM_MOLECULAR_FORMULA>
C22H14

> <PUBCHEM_MOLECULAR_WEIGHT>
278.34656

> <PUBCHEM_OPENEYE_CAN_SMILES>
C1=CC=C2C(=C1)C=CC3=C2C=CC4=C3C=CC5=CC=CC=C54

> <PUBCHEM_OPENEYE_ISO_SMILES>
C1=CC=C2C(=C1)C=CC3=C2C=CC4=C3C=CC5=CC=CC=C54

> <PUBCHEM_CACTVS_TPSA>
0

> <PUBCHEM_MONOISOTOPIC_WEIGHT>
278.10955

> <PUBCHEM_TOTAL_CHARGE>
0

> <PUBCHEM_HEAVY_ATOM_COUNT>
22

> <PUBCHEM_ATOM_DEF_STEREO_COUNT>
0

> <PUBCHEM_ATOM_UDEF_STEREO_COUNT>
0

> <PUBCHEM_BOND_DEF_STEREO_COUNT>
0

> <PUBCHEM_BOND_UDEF_STEREO_COUNT>
0

> <PUBCHEM_ISOTOPIC_ATOM_COUNT>
0

> <PUBCHEM_COMPONENT_COUNT>
1

> <PUBCHEM_CACTVS_TAUTO_COUNT>
1

> <PUBCHEM_COORDINATE_TYPE>
1
5
255

> <PUBCHEM_BONDANNOTATIONS>
1  12  8
1  2  8
1  3  8
10  14  8
10  18  8
11  13  8
12  14  8
15  20  8
16  19  8
17  22  8
18  21  8
19  21  8
2  11  8
2  4  8
20  22  8
3  6  8
3  8  8
4  5  8
4  7  8
5  15  8
5  9  8
6  10  8
6  16  8
7  8  8
9  13  8
9  17  8

$$$$

