7847006
  -OEChem-06241222482D

 47 49  0     0  0  0  0  0  0999 V2000
    4.6783    3.3358    0.0000 S   0  0  0  0  0  0  0  0  0  0  0  0
    8.2619    0.7990    0.0000 O   0  0  0  0  0  0  0  0  0  0  0  0
   12.2619   -0.9330    0.0000 O   0  0  0  0  0  0  0  0  0  0  0  0
   11.2619   -2.6651    0.0000 O   0  0  0  0  0  0  0  0  0  0  0  0
    8.2619    2.5311    0.0000 O   0  0  0  0  0  0  0  0  0  0  0  0
    4.6783    1.7264    0.0000 N   0  0  0  0  0  0  0  0  0  0  0  0
    9.7619   -0.0670    0.0000 C   0  0  0  0  0  0  0  0  0  0  0  0
    6.2619    2.5311    0.0000 C   0  0  0  0  0  0  0  0  0  0  0  0
    9.2619   -0.9330    0.0000 C   0  0  0  0  0  0  0  0  0  0  0  0
    6.7619    1.6651    0.0000 C   0  0  0  0  0  0  0  0  0  0  0  0
    9.2619    0.7990    0.0000 C   0  0  0  0  0  0  0  0  0  0  0  0
    5.2619    2.5311    0.0000 C   0  0  0  0  0  0  0  0  0  0  0  0
   10.7619   -0.0670    0.0000 C   0  0  0  0  0  0  0  0  0  0  0  0
    9.7619   -1.7990    0.0000 C   0  0  0  0  0  0  0  0  0  0  0  0
   11.2619   -0.9330    0.0000 C   0  0  0  0  0  0  0  0  0  0  0  0
   10.7619   -1.7990    0.0000 C   0  0  0  0  0  0  0  0  0  0  0  0
    7.7619    1.6651    0.0000 C   0  0  0  0  0  0  0  0  0  0  0  0
    3.7320    3.0311    0.0000 C   0  0  0  0  0  0  0  0  0  0  0  0
    3.7320    2.0311    0.0000 C   0  0  0  0  0  0  0  0  0  0  0  0
    8.2619   -0.9330    0.0000 C   0  0  0  0  0  0  0  0  0  0  0  0
    2.8660    3.5311    0.0000 C   0  0  0  0  0  0  0  0  0  0  0  0
    2.8660    1.5311    0.0000 C   0  0  0  0  0  0  0  0  0  0  0  0
    2.0000    3.0311    0.0000 C   0  0  0  0  0  0  0  0  0  0  0  0
    2.0000    2.0311    0.0000 C   0  0  0  0  0  0  0  0  0  0  0  0
   12.7619   -0.0670    0.0000 C   0  0  0  0  0  0  0  0  0  0  0  0
   10.7619   -3.5311    0.0000 C   0  0  0  0  0  0  0  0  0  0  0  0
    6.8445    2.7431    0.0000 H   0  0  0  0  0  0  0  0  0  0  0  0
    6.1542    3.1417    0.0000 H   0  0  0  0  0  0  0  0  0  0  0  0
    6.1793    1.4530    0.0000 H   0  0  0  0  0  0  0  0  0  0  0  0
    6.8695    1.0545    0.0000 H   0  0  0  0  0  0  0  0  0  0  0  0
    9.8445    1.0111    0.0000 H   0  0  0  0  0  0  0  0  0  0  0  0
    9.1542    1.4096    0.0000 H   0  0  0  0  0  0  0  0  0  0  0  0
   11.0719    0.4699    0.0000 H   0  0  0  0  0  0  0  0  0  0  0  0
    9.4519   -2.3360    0.0000 H   0  0  0  0  0  0  0  0  0  0  0  0
    8.2619   -0.3130    0.0000 H   0  0  0  0  0  0  0  0  0  0  0  0
    7.6419   -0.9330    0.0000 H   0  0  0  0  0  0  0  0  0  0  0  0
    8.2619   -1.5530    0.0000 H   0  0  0  0  0  0  0  0  0  0  0  0
    2.8660    4.1511    0.0000 H   0  0  0  0  0  0  0  0  0  0  0  0
    2.8660    0.9111    0.0000 H   0  0  0  0  0  0  0  0  0  0  0  0
    1.4631    3.3411    0.0000 H   0  0  0  0  0  0  0  0  0  0  0  0
    1.4631    1.7211    0.0000 H   0  0  0  0  0  0  0  0  0  0  0  0
   13.2988   -0.3770    0.0000 H   0  0  0  0  0  0  0  0  0  0  0  0
   13.0719    0.4699    0.0000 H   0  0  0  0  0  0  0  0  0  0  0  0
   12.2249    0.2430    0.0000 H   0  0  0  0  0  0  0  0  0  0  0  0
   10.2249   -3.2211    0.0000 H   0  0  0  0  0  0  0  0  0  0  0  0
   10.4519   -4.0680    0.0000 H   0  0  0  0  0  0  0  0  0  0  0  0
   11.2988   -3.8411    0.0000 H   0  0  0  0  0  0  0  0  0  0  0  0
  1 12  1  0  0  0  0
  1 18  1  0  0  0  0
  2 11  1  0  0  0  0
  2 17  1  0  0  0  0
  3 15  1  0  0  0  0
  3 25  1  0  0  0  0
  4 16  1  0  0  0  0
  4 26  1  0  0  0  0
  5 17  2  0  0  0  0
  6 12  2  0  0  0  0
  6 19  1  0  0  0  0
  7  9  1  0  0  0  0
  7 11  1  0  0  0  0
  7 13  2  0  0  0  0
  8 10  1  0  0  0  0
  8 12  1  0  0  0  0
  8 27  1  0  0  0  0
  8 28  1  0  0  0  0
  9 14  2  0  0  0  0
  9 20  1  0  0  0  0
 10 17  1  0  0  0  0
 10 29  1  0  0  0  0
 10 30  1  0  0  0  0
 11 31  1  0  0  0  0
 11 32  1  0  0  0  0
 13 15  1  0  0  0  0
 13 33  1  0  0  0  0
 14 16  1  0  0  0  0
 14 34  1  0  0  0  0
 15 16  2  0  0  0  0
 18 19  1  0  0  0  0
 18 21  2  0  0  0  0
 19 22  2  0  0  0  0
 20 35  1  0  0  0  0
 20 36  1  0  0  0  0
 20 37  1  0  0  0  0
 21 23  1  0  0  0  0
 21 38  1  0  0  0  0
 22 24  1  0  0  0  0
 22 39  1  0  0  0  0
 23 24  2  0  0  0  0
 23 40  1  0  0  0  0
 24 41  1  0  0  0  0
 25 42  1  0  0  0  0
 25 43  1  0  0  0  0
 25 44  1  0  0  0  0
 26 45  1  0  0  0  0
 26 46  1  0  0  0  0
 26 47  1  0  0  0  0
M  END
> <PUBCHEM_COMPOUND_CID>
7847006

> <PUBCHEM_COMPOUND_CANONICALIZED>
1

> <PUBCHEM_CACTVS_COMPLEXITY>
463

> <PUBCHEM_CACTVS_HBOND_ACCEPTOR>
6

> <PUBCHEM_CACTVS_HBOND_DONOR>
0

> <PUBCHEM_CACTVS_ROTATABLE_BOND>
8

> <PUBCHEM_CACTVS_SUBSKEYS>
AAADceB6OABAAAAAAAAAAAAAAAAAAWAAAAAwYAAAAAAAAFgB9AAAHgQAAAAADAyh3gIyz7IIFAisAyTyTACD+KBhKjhImD027JgNJrLksZuGMCpkwBHq6Af04LwOoAABAAAQQQBAAAIAACCCAAAAAAAAAA==

> <PUBCHEM_IUPAC_OPENEYE_NAME>
(4,5-dimethoxy-2-methyl-phenyl)methyl 3-(1,3-benzothiazol-2-yl)propanoate

> <PUBCHEM_IUPAC_CAS_NAME>
3-(1,3-benzothiazol-2-yl)propanoic acid (4,5-dimethoxy-2-methylphenyl)methyl ester

> <PUBCHEM_IUPAC_NAME>
(4,5-dimethoxy-2-methylphenyl)methyl 3-(1,3-benzothiazol-2-yl)propanoate

> <PUBCHEM_IUPAC_SYSTEMATIC_NAME>
(4,5-dimethoxy-2-methyl-phenyl)methyl 3-(1,3-benzothiazol-2-yl)propanoate

> <PUBCHEM_IUPAC_TRADITIONAL_NAME>
3-(1,3-benzothiazol-2-yl)propionic acid (4,5-dimethoxy-2-methyl-benzyl) ester

> <PUBCHEM_IUPAC_INCHI>
InChI=1S/C20H21NO4S/c1-13-10-16(23-2)17(24-3)11-14(13)12-25-20(22)9-8-19-21-15-6-4-5-7-18(15)26-19/h4-7,10-11H,8-9,12H2,1-3H3

> <PUBCHEM_IUPAC_INCHIKEY>
KENLEZGJWCSWDZ-UHFFFAOYSA-N

> <PUBCHEM_XLOGP3_AA>
4.3

> <PUBCHEM_EXACT_MASS>
371.119129

> <PUBCHEM_MOLECULAR_FORMULA>
C20H21NO4S

> <PUBCHEM_MOLECULAR_WEIGHT>
371.45004

> <PUBCHEM_OPENEYE_CAN_SMILES>
CC1=CC(=C(C=C1COC(=O)CCC2=NC3=CC=CC=C3S2)OC)OC

> <PUBCHEM_OPENEYE_ISO_SMILES>
CC1=CC(=C(C=C1COC(=O)CCC2=NC3=CC=CC=C3S2)OC)OC

> <PUBCHEM_CACTVS_TPSA>
85.9

> <PUBCHEM_MONOISOTOPIC_WEIGHT>
371.119129

> <PUBCHEM_TOTAL_CHARGE>
0

> <PUBCHEM_HEAVY_ATOM_COUNT>
26

> <PUBCHEM_ATOM_DEF_STEREO_COUNT>
0

> <PUBCHEM_ATOM_UDEF_STEREO_COUNT>
0

> <PUBCHEM_BOND_DEF_STEREO_COUNT>
0

> <PUBCHEM_BOND_UDEF_STEREO_COUNT>
0

> <PUBCHEM_ISOTOPIC_ATOM_COUNT>
0

> <PUBCHEM_COMPONENT_COUNT>
1

> <PUBCHEM_CACTVS_TAUTO_COUNT>
2

> <PUBCHEM_COORDINATE_TYPE>
1
5
255

> <PUBCHEM_BONDANNOTATIONS>
1  12  8
1  18  8
13  15  8
14  16  8
15  16  8
18  19  8
18  21  8
19  22  8
21  23  8
22  24  8
23  24  8
6  12  8
6  19  8
7  13  8
7  9  8
9  14  8

$$$$

