17396172
  -OEChem-06241222552D

 45 48  0     1  0  0  0  0  0999 V2000
    4.2506    0.5452    0.0000 S   0  0  0  0  0  0  0  0  0  0  0  0
    3.0779   -1.0749    0.0000 O   0  0  0  0  0  0  0  0  0  0  0  0
    4.4809   -2.0905    0.0000 N   0  0  0  0  0  0  0  0  0  0  0  0
    4.5274    2.2998    0.0000 N   0  0  0  0  0  0  0  0  0  0  0  0
    6.1391    2.3012    0.0000 N   0  0  0  0  0  0  0  0  0  0  0  0
    5.0274    3.8387    0.0000 N   0  0  0  0  0  0  0  0  0  0  0  0
    5.8311    1.3561    0.0000 N   0  0  0  0  0  0  0  0  0  0  0  0
    5.8839   -3.1062    0.0000 C   0  0  3  0  0  0  0  0  0  0  0  0
    4.3028   -3.8134    0.0000 C   0  0  3  0  0  0  0  0  0  0  0  0
    5.2975   -3.9162    0.0000 C   0  0  0  0  0  0  0  0  0  0  0  0
    3.8945   -2.9006    0.0000 C   0  0  0  0  0  0  0  0  0  0  0  0
    5.4756   -2.1933    0.0000 C   0  0  0  0  0  0  0  0  0  0  0  0
    6.8786   -3.2090    0.0000 C   0  0  0  0  0  0  0  0  0  0  0  0
    3.7164   -4.6234    0.0000 C   0  0  0  0  0  0  0  0  0  0  0  0
    4.0726   -1.1777    0.0000 C   0  0  0  0  0  0  0  0  0  0  0  0
    4.6589   -0.3676    0.0000 C   0  0  0  0  0  0  0  0  0  0  0  0
    4.8370    1.3552    0.0000 C   0  0  0  0  0  0  0  0  0  0  0  0
    3.7183    2.8876    0.0000 C   0  0  0  0  0  0  0  0  0  0  0  0
    5.3364    2.8876    0.0000 C   0  0  0  0  0  0  0  0  0  0  0  0
    4.0274    3.8387    0.0000 C   0  0  0  0  0  0  0  0  0  0  0  0
    2.7029    2.6554    0.0000 C   0  0  0  0  0  0  0  0  0  0  0  0
    3.3424    4.6234    0.0000 C   0  0  0  0  0  0  0  0  0  0  0  0
    2.0000    3.4241    0.0000 C   0  0  0  0  0  0  0  0  0  0  0  0
    2.3219    4.4147    0.0000 C   0  0  0  0  0  0  0  0  0  0  0  0
    6.1370   -3.6721    0.0000 H   0  0  0  0  0  0  0  0  0  0  0  0
    3.6861   -3.7496    0.0000 H   0  0  0  0  0  0  0  0  0  0  0  0
    5.1276   -4.5125    0.0000 H   0  0  0  0  0  0  0  0  0  0  0  0
    5.8552   -4.1870    0.0000 H   0  0  0  0  0  0  0  0  0  0  0  0
    6.0769   -2.0423    0.0000 H   0  0  0  0  0  0  0  0  0  0  0  0
    5.4312   -1.5749    0.0000 H   0  0  0  0  0  0  0  0  0  0  0  0
    3.4630   -2.4553    0.0000 H   0  0  0  0  0  0  0  0  0  0  0  0
    3.3811   -3.2481    0.0000 H   0  0  0  0  0  0  0  0  0  0  0  0
    6.8148   -3.8257    0.0000 H   0  0  0  0  0  0  0  0  0  0  0  0
    3.2142   -4.2599    0.0000 H   0  0  0  0  0  0  0  0  0  0  0  0
    3.3528   -5.1256    0.0000 H   0  0  0  0  0  0  0  0  0  0  0  0
    4.2186   -4.9870    0.0000 H   0  0  0  0  0  0  0  0  0  0  0  0
    7.4953   -3.2727    0.0000 H   0  0  0  0  0  0  0  0  0  0  0  0
    6.9423   -2.5923    0.0000 H   0  0  0  0  0  0  0  0  0  0  0  0
    5.0904   -0.8129    0.0000 H   0  0  0  0  0  0  0  0  0  0  0  0
    5.1723   -0.0201    0.0000 H   0  0  0  0  0  0  0  0  0  0  0  0
    6.7291    2.4918    0.0000 H   0  0  0  0  0  0  0  0  0  0  0  0
    2.5182    2.0636    0.0000 H   0  0  0  0  0  0  0  0  0  0  0  0
    3.5408    5.2108    0.0000 H   0  0  0  0  0  0  0  0  0  0  0  0
    1.3940    3.2928    0.0000 H   0  0  0  0  0  0  0  0  0  0  0  0
    1.9088    4.8771    0.0000 H   0  0  0  0  0  0  0  0  0  0  0  0
  1 16  1  0  0  0  0
  1 17  1  0  0  0  0
  2 15  2  0  0  0  0
  3 11  1  0  0  0  0
  3 12  1  0  0  0  0
  3 15  1  0  0  0  0
  4 17  1  0  0  0  0
  4 18  1  0  0  0  0
  4 19  1  0  0  0  0
  5  7  1  0  0  0  0
  5 19  1  0  0  0  0
  5 41  1  0  0  0  0
  6 19  2  0  0  0  0
  6 20  1  0  0  0  0
  7 17  2  0  0  0  0
  8 10  1  0  0  0  0
  8 12  1  0  0  0  0
  8 13  1  0  0  0  0
  8 25  1  0  0  0  0
  9 10  1  0  0  0  0
  9 11  1  0  0  0  0
  9 14  1  0  0  0  0
  9 26  1  0  0  0  0
 10 27  1  0  0  0  0
 10 28  1  0  0  0  0
 11 31  1  0  0  0  0
 11 32  1  0  0  0  0
 12 29  1  0  0  0  0
 12 30  1  0  0  0  0
 13 33  1  0  0  0  0
 13 37  1  0  0  0  0
 13 38  1  0  0  0  0
 14 34  1  0  0  0  0
 14 35  1  0  0  0  0
 14 36  1  0  0  0  0
 15 16  1  0  0  0  0
 16 39  1  0  0  0  0
 16 40  1  0  0  0  0
 18 20  1  0  0  0  0
 18 21  2  0  0  0  0
 20 22  2  0  0  0  0
 21 23  1  0  0  0  0
 21 42  1  0  0  0  0
 22 24  1  0  0  0  0
 22 43  1  0  0  0  0
 23 24  2  0  0  0  0
 23 44  1  0  0  0  0
 24 45  1  0  0  0  0
M  END
> <PUBCHEM_COMPOUND_CID>
17396172

> <PUBCHEM_COMPOUND_CANONICALIZED>
1

> <PUBCHEM_CACTVS_COMPLEXITY>
468

> <PUBCHEM_CACTVS_HBOND_ACCEPTOR>
4

> <PUBCHEM_CACTVS_HBOND_DONOR>
1

> <PUBCHEM_CACTVS_ROTATABLE_BOND>
3

> <PUBCHEM_CACTVS_SUBSKEYS>
AAADceB7oABAAAAAAAAAAAAAAAAAAWLAAAA8QAAAAAAWAFgB/AAAHgQYAAAADQjF1gSz0LdvGAiqASVydACS0C/hErANuCA4dJiIaKLAmZGUIAhohgLIyCcQAAAMAAAAAAAAACAAAAAAAAAAQAAAAAAAAA==

> <PUBCHEM_IUPAC_OPENEYE_NAME>
1-(3,5-dimethyl-1-piperidyl)-2-(3H-[1,2,4]triazolo[4,3-a]benzimidazol-1-ylsulfanyl)ethanone

> <PUBCHEM_IUPAC_CAS_NAME>
1-(3,5-dimethyl-1-piperidinyl)-2-(3H-[1,2,4]triazolo[4,3-a]benzimidazol-1-ylthio)ethanone

> <PUBCHEM_IUPAC_NAME>
1-(3,5-dimethylpiperidin-1-yl)-2-(3H-[1,2,4]triazolo[4,3-a]benzimidazol-1-ylsulfanyl)ethanone

> <PUBCHEM_IUPAC_SYSTEMATIC_NAME>
1-(3,5-dimethylpiperidin-1-yl)-2-(3H-[1,2,4]triazolo[4,3-a]benzimidazol-1-ylsulfanyl)ethanone

> <PUBCHEM_IUPAC_TRADITIONAL_NAME>
1-(3,5-dimethylpiperidino)-2-(3H-[1,2,4]triazolo[4,3-a]benzimidazol-1-ylthio)ethanone

> <PUBCHEM_IUPAC_INCHI>
InChI=1S/C17H21N5OS/c1-11-7-12(2)9-21(8-11)15(23)10-24-17-20-19-16-18-13-5-3-4-6-14(13)22(16)17/h3-6,11-12H,7-10H2,1-2H3,(H,18,19)

> <PUBCHEM_IUPAC_INCHIKEY>
WXCUXKFUFWXGCA-UHFFFAOYSA-N

> <PUBCHEM_XLOGP3_AA>
3.6

> <PUBCHEM_EXACT_MASS>
343.146681

> <PUBCHEM_MOLECULAR_FORMULA>
C17H21N5OS

> <PUBCHEM_MOLECULAR_WEIGHT>
343.44654

> <PUBCHEM_OPENEYE_CAN_SMILES>
CC1CC(CN(C1)C(=O)CSC2=NNC3=NC4=CC=CC=C4N32)C

> <PUBCHEM_OPENEYE_ISO_SMILES>
CC1CC(CN(C1)C(=O)CSC2=NNC3=NC4=CC=CC=C4N32)C

> <PUBCHEM_CACTVS_TPSA>
91.6

> <PUBCHEM_MONOISOTOPIC_WEIGHT>
343.146681

> <PUBCHEM_TOTAL_CHARGE>
0

> <PUBCHEM_HEAVY_ATOM_COUNT>
24

> <PUBCHEM_ATOM_DEF_STEREO_COUNT>
0

> <PUBCHEM_ATOM_UDEF_STEREO_COUNT>
2

> <PUBCHEM_BOND_DEF_STEREO_COUNT>
0

> <PUBCHEM_BOND_UDEF_STEREO_COUNT>
0

> <PUBCHEM_ISOTOPIC_ATOM_COUNT>
0

> <PUBCHEM_COMPONENT_COUNT>
1

> <PUBCHEM_CACTVS_TAUTO_COUNT>
2

> <PUBCHEM_COORDINATE_TYPE>
1
5
255

> <PUBCHEM_BONDANNOTATIONS>
18  20  8
18  21  8
20  22  8
21  23  8
22  24  8
23  24  8
4  17  8
4  18  8
4  19  8
5  19  8
5  7  8
6  19  8
6  20  8
7  17  8
8  13  3
9  14  3

$$$$

