9131
  -OEChem-06261203262D

 34 39  0     0  0  0  0  0  0999 V2000
    4.6153   -0.7379    0.0000 C   0  0  0  0  0  0  0  0  0  0  0  0
    3.7493   -0.2379    0.0000 C   0  0  0  0  0  0  0  0  0  0  0  0
    5.4814   -0.2379    0.0000 C   0  0  0  0  0  0  0  0  0  0  0  0
    4.6314   -1.7794    0.0000 C   0  0  0  0  0  0  0  0  0  0  0  0
    3.7493    0.7621    0.0000 C   0  0  0  0  0  0  0  0  0  0  0  0
    6.0993   -1.0162    0.0000 C   0  0  0  0  0  0  0  0  0  0  0  0
    5.6194   -1.8865    0.0000 C   0  0  0  0  0  0  0  0  0  0  0  0
    2.8393   -0.7447    0.0000 C   0  0  0  0  0  0  0  0  0  0  0  0
    4.6153    1.2621    0.0000 C   0  0  0  0  0  0  0  0  0  0  0  0
    5.4814    0.7621    0.0000 C   0  0  0  0  0  0  0  0  0  0  0  0
    2.8911    1.2591    0.0000 C   0  0  0  0  0  0  0  0  0  0  0  0
    3.7334   -2.3071    0.0000 C   0  0  0  0  0  0  0  0  0  0  0  0
    2.8313   -1.7863    0.0000 C   0  0  0  0  0  0  0  0  0  0  0  0
    2.0000   -0.2165    0.0000 C   0  0  0  0  0  0  0  0  0  0  0  0
    2.0256    0.7749    0.0000 C   0  0  0  0  0  0  0  0  0  0  0  0
    7.1338   -0.9799    0.0000 C   0  0  0  0  0  0  0  0  0  0  0  0
    4.6252    2.2734    0.0000 C   0  0  0  0  0  0  0  0  0  0  0  0
    6.1408   -2.7808    0.0000 C   0  0  0  0  0  0  0  0  0  0  0  0
    2.8776    2.2702    0.0000 C   0  0  0  0  0  0  0  0  0  0  0  0
    3.7505    2.7808    0.0000 C   0  0  0  0  0  0  0  0  0  0  0  0
    7.6758   -1.8619    0.0000 C   0  0  0  0  0  0  0  0  0  0  0  0
    7.1760   -2.7684    0.0000 C   0  0  0  0  0  0  0  0  0  0  0  0
    6.0183    1.0721    0.0000 H   0  0  0  0  0  0  0  0  0  0  0  0
    3.7358   -2.9271    0.0000 H   0  0  0  0  0  0  0  0  0  0  0  0
    2.2932   -2.0942    0.0000 H   0  0  0  0  0  0  0  0  0  0  0  0
    1.4534   -0.5091    0.0000 H   0  0  0  0  0  0  0  0  0  0  0  0
    1.4949    1.0954    0.0000 H   0  0  0  0  0  0  0  0  0  0  0  0
    7.4269   -0.4335    0.0000 H   0  0  0  0  0  0  0  0  0  0  0  0
    5.1640    2.5802    0.0000 H   0  0  0  0  0  0  0  0  0  0  0  0
    5.8352   -3.3202    0.0000 H   0  0  0  0  0  0  0  0  0  0  0  0
    2.3378    2.5751    0.0000 H   0  0  0  0  0  0  0  0  0  0  0  0
    3.7494    3.4008    0.0000 H   0  0  0  0  0  0  0  0  0  0  0  0
    8.2956   -1.8473    0.0000 H   0  0  0  0  0  0  0  0  0  0  0  0
    7.4944   -3.3003    0.0000 H   0  0  0  0  0  0  0  0  0  0  0  0
  1  2  1  0  0  0  0
  1  3  1  0  0  0  0
  1  4  2  0  0  0  0
  2  5  1  0  0  0  0
  2  8  2  0  0  0  0
  3  6  1  0  0  0  0
  3 10  2  0  0  0  0
  4  7  1  0  0  0  0
  4 12  1  0  0  0  0
  5  9  1  0  0  0  0
  5 11  2  0  0  0  0
  6  7  1  0  0  0  0
  6 16  2  0  0  0  0
  7 18  2  0  0  0  0
  8 13  1  0  0  0  0
  8 14  1  0  0  0  0
  9 10  1  0  0  0  0
  9 17  2  0  0  0  0
 10 23  1  0  0  0  0
 11 15  1  0  0  0  0
 11 19  1  0  0  0  0
 12 13  2  0  0  0  0
 12 24  1  0  0  0  0
 13 25  1  0  0  0  0
 14 15  2  0  0  0  0
 14 26  1  0  0  0  0
 15 27  1  0  0  0  0
 16 21  1  0  0  0  0
 16 28  1  0  0  0  0
 17 20  1  0  0  0  0
 17 29  1  0  0  0  0
 18 22  1  0  0  0  0
 18 30  1  0  0  0  0
 19 20  2  0  0  0  0
 19 31  1  0  0  0  0
 20 32  1  0  0  0  0
 21 22  2  0  0  0  0
 21 33  1  0  0  0  0
 22 34  1  0  0  0  0
M  END
> <PUBCHEM_COMPOUND_CID>
9131

> <PUBCHEM_COMPOUND_CANONICALIZED>
1

> <PUBCHEM_CACTVS_COMPLEXITY>
453

> <PUBCHEM_CACTVS_HBOND_ACCEPTOR>
0

> <PUBCHEM_CACTVS_HBOND_DONOR>
0

> <PUBCHEM_CACTVS_ROTATABLE_BOND>
0

> <PUBCHEM_CACTVS_SUBSKEYS>
AAADccB4AAAAAAAAAAAAAAAAAAAAAYAAAAAwYMGDAAAAAGDBVAAAGAAAAAAADACAGAAwAMAAAACAAiBCAAACAAAgAAAIiAAAAIgIICKAERCAIAAggAAIiAcAgMAOwAACAAAQAACAAAQAACAAAQAACAAAAA==

> <PUBCHEM_IUPAC_INCHI>
InChI=1S/C22H12/c1-2-7-17-16(6-1)18-11-10-14-9-8-13-4-3-5-15-12-19(17)22(18)21(14)20(13)15/h1-12H

> <PUBCHEM_IUPAC_INCHIKEY>
SXQBHARYMNFBPS-UHFFFAOYSA-N

> <PUBCHEM_XLOGP3>
7

> <PUBCHEM_EXACT_MASS>
276.0939

> <PUBCHEM_MOLECULAR_FORMULA>
C22H12

> <PUBCHEM_MOLECULAR_WEIGHT>
276.33068

> <PUBCHEM_OPENEYE_CAN_SMILES>
C1=CC=C2C(=C1)C3=C4C2=CC5=CC=CC6=C5C4=C(C=C6)C=C3

> <PUBCHEM_OPENEYE_ISO_SMILES>
C1=CC=C2C(=C1)C3=C4C2=CC5=CC=CC6=C5C4=C(C=C6)C=C3

> <PUBCHEM_CACTVS_TPSA>
0

> <PUBCHEM_MONOISOTOPIC_WEIGHT>
276.0939

> <PUBCHEM_TOTAL_CHARGE>
0

> <PUBCHEM_HEAVY_ATOM_COUNT>
22

> <PUBCHEM_ATOM_DEF_STEREO_COUNT>
0

> <PUBCHEM_ATOM_UDEF_STEREO_COUNT>
0

> <PUBCHEM_BOND_DEF_STEREO_COUNT>
0

> <PUBCHEM_BOND_UDEF_STEREO_COUNT>
0

> <PUBCHEM_ISOTOPIC_ATOM_COUNT>
0

> <PUBCHEM_COMPONENT_COUNT>
1

> <PUBCHEM_CACTVS_TAUTO_COUNT>
1

> <PUBCHEM_COORDINATE_TYPE>
1
5
255

> <PUBCHEM_BONDANNOTATIONS>
1  2  8
1  3  8
1  4  8
11  15  8
11  19  8
12  13  8
14  15  8
16  21  8
17  20  8
18  22  8
19  20  8
2  5  8
2  8  8
21  22  8
3  10  8
4  12  8
5  11  8
5  9  8
6  16  8
6  7  8
7  18  8
8  13  8
8  14  8
9  10  8
9  17  8

$$$$

