7223
  -OEChem-06261201552D

 69 69  0     0  0  0  0  0  0999 V2000
    2.5369   -2.8293    0.0000 O   0  0  0  0  0  0  0  0  0  0  0  0
    3.4030   -0.3293    0.0000 N   0  0  0  0  0  0  0  0  0  0  0  0
    3.9030    1.2095    0.0000 N   0  0  0  0  0  0  0  0  0  0  0  0
    9.2946    1.3388    0.0000 C   0  0  0  0  0  0  0  0  0  0  0  0
   10.2456    1.0298    0.0000 C   0  0  0  0  0  0  0  0  0  0  0  0
    8.5514    0.6696    0.0000 C   0  0  0  0  0  0  0  0  0  0  0  0
   10.9888    1.6989    0.0000 C   0  0  0  0  0  0  0  0  0  0  0  0
    7.6004    0.9787    0.0000 C   0  0  0  0  0  0  0  0  0  0  0  0
   11.9398    1.3899    0.0000 C   0  0  0  0  0  0  0  0  0  0  0  0
    6.8572    0.3095    0.0000 C   0  0  0  0  0  0  0  0  0  0  0  0
   12.6830    2.0590    0.0000 C   0  0  0  0  0  0  0  0  0  0  0  0
    5.9062    0.6186    0.0000 C   0  0  0  0  0  0  0  0  0  0  0  0
   13.6340    1.7500    0.0000 C   0  0  0  0  0  0  0  0  0  0  0  0
    5.1630   -0.0506    0.0000 C   0  0  0  0  0  0  0  0  0  0  0  0
   14.3772    2.4191    0.0000 C   0  0  0  0  0  0  0  0  0  0  0  0
    4.2120    0.2584    0.0000 C   0  0  0  0  0  0  0  0  0  0  0  0
   15.3282    2.1101    0.0000 C   0  0  0  0  0  0  0  0  0  0  0  0
    2.5939    0.2584    0.0000 C   0  0  0  0  0  0  0  0  0  0  0  0
   16.0714    2.7792    0.0000 C   0  0  0  0  0  0  0  0  0  0  0  0
    2.9030    1.2095    0.0000 C   0  0  0  0  0  0  0  0  0  0  0  0
    3.4030   -1.3294    0.0000 C   0  0  0  0  0  0  0  0  0  0  0  0
   17.0224    2.4702    0.0000 C   0  0  0  0  0  0  0  0  0  0  0  0
   17.7656    3.1394    0.0000 C   0  0  0  0  0  0  0  0  0  0  0  0
    2.5369   -1.8294    0.0000 C   0  0  0  0  0  0  0  0  0  0  0  0
   18.7166    2.8303    0.0000 C   0  0  0  0  0  0  0  0  0  0  0  0
    9.9546    0.4823    0.0000 H   0  0  0  0  0  0  0  0  0  0  0  0
   10.7342    0.6481    0.0000 H   0  0  0  0  0  0  0  0  0  0  0  0
    9.5857    1.8862    0.0000 H   0  0  0  0  0  0  0  0  0  0  0  0
    8.8060    1.7205    0.0000 H   0  0  0  0  0  0  0  0  0  0  0  0
    8.2604    0.1222    0.0000 H   0  0  0  0  0  0  0  0  0  0  0  0
    9.0400    0.2879    0.0000 H   0  0  0  0  0  0  0  0  0  0  0  0
   11.2799    2.2463    0.0000 H   0  0  0  0  0  0  0  0  0  0  0  0
   10.5002    2.0806    0.0000 H   0  0  0  0  0  0  0  0  0  0  0  0
    7.8914    1.5261    0.0000 H   0  0  0  0  0  0  0  0  0  0  0  0
    7.1118    1.3604    0.0000 H   0  0  0  0  0  0  0  0  0  0  0  0
   11.6488    0.8424    0.0000 H   0  0  0  0  0  0  0  0  0  0  0  0
   12.4284    1.0082    0.0000 H   0  0  0  0  0  0  0  0  0  0  0  0
    6.5662   -0.2379    0.0000 H   0  0  0  0  0  0  0  0  0  0  0  0
    7.3458   -0.0722    0.0000 H   0  0  0  0  0  0  0  0  0  0  0  0
   12.9741    2.6064    0.0000 H   0  0  0  0  0  0  0  0  0  0  0  0
   12.1944    2.4407    0.0000 H   0  0  0  0  0  0  0  0  0  0  0  0
    6.1973    1.1660    0.0000 H   0  0  0  0  0  0  0  0  0  0  0  0
    5.4176    1.0003    0.0000 H   0  0  0  0  0  0  0  0  0  0  0  0
   13.3430    1.2026    0.0000 H   0  0  0  0  0  0  0  0  0  0  0  0
   14.1226    1.3683    0.0000 H   0  0  0  0  0  0  0  0  0  0  0  0
    4.8720   -0.5980    0.0000 H   0  0  0  0  0  0  0  0  0  0  0  0
    5.6516   -0.4323    0.0000 H   0  0  0  0  0  0  0  0  0  0  0  0
   14.6683    2.9665    0.0000 H   0  0  0  0  0  0  0  0  0  0  0  0
   13.8886    2.8008    0.0000 H   0  0  0  0  0  0  0  0  0  0  0  0
   15.0372    1.5627    0.0000 H   0  0  0  0  0  0  0  0  0  0  0  0
   15.8168    1.7284    0.0000 H   0  0  0  0  0  0  0  0  0  0  0  0
    2.0276    0.5106    0.0000 H   0  0  0  0  0  0  0  0  0  0  0  0
    2.2839   -0.2785    0.0000 H   0  0  0  0  0  0  0  0  0  0  0  0
   16.3625    3.3267    0.0000 H   0  0  0  0  0  0  0  0  0  0  0  0
   15.5828    3.1609    0.0000 H   0  0  0  0  0  0  0  0  0  0  0  0
    2.9678    1.8261    0.0000 H   0  0  0  0  0  0  0  0  0  0  0  0
    2.2965    1.3384    0.0000 H   0  0  0  0  0  0  0  0  0  0  0  0
    3.6150   -1.9120    0.0000 H   0  0  0  0  0  0  0  0  0  0  0  0
    4.0135   -1.2217    0.0000 H   0  0  0  0  0  0  0  0  0  0  0  0
   16.7314    1.9228    0.0000 H   0  0  0  0  0  0  0  0  0  0  0  0
   17.5110    2.0885    0.0000 H   0  0  0  0  0  0  0  0  0  0  0  0
   18.0567    3.6868    0.0000 H   0  0  0  0  0  0  0  0  0  0  0  0
   17.2770    3.5211    0.0000 H   0  0  0  0  0  0  0  0  0  0  0  0
    2.3249   -1.2467    0.0000 H   0  0  0  0  0  0  0  0  0  0  0  0
    1.9264   -1.9370    0.0000 H   0  0  0  0  0  0  0  0  0  0  0  0
   18.5251    2.2407    0.0000 H   0  0  0  0  0  0  0  0  0  0  0  0
   19.3063    2.6387    0.0000 H   0  0  0  0  0  0  0  0  0  0  0  0
   18.9082    3.4200    0.0000 H   0  0  0  0  0  0  0  0  0  0  0  0
    2.0000   -3.1394    0.0000 H   0  0  0  0  0  0  0  0  0  0  0  0
  1 24  1  0  0  0  0
  1 69  1  0  0  0  0
  2 16  1  0  0  0  0
  2 18  1  0  0  0  0
  2 21  1  0  0  0  0
  3 16  2  0  0  0  0
  3 20  1  0  0  0  0
  4  5  1  0  0  0  0
  4  6  1  0  0  0  0
  4 28  1  0  0  0  0
  4 29  1  0  0  0  0
  5  7  1  0  0  0  0
  5 26  1  0  0  0  0
  5 27  1  0  0  0  0
  6  8  1  0  0  0  0
  6 30  1  0  0  0  0
  6 31  1  0  0  0  0
  7  9  1  0  0  0  0
  7 32  1  0  0  0  0
  7 33  1  0  0  0  0
  8 10  1  0  0  0  0
  8 34  1  0  0  0  0
  8 35  1  0  0  0  0
  9 11  1  0  0  0  0
  9 36  1  0  0  0  0
  9 37  1  0  0  0  0
 10 12  1  0  0  0  0
 10 38  1  0  0  0  0
 10 39  1  0  0  0  0
 11 13  1  0  0  0  0
 11 40  1  0  0  0  0
 11 41  1  0  0  0  0
 12 14  1  0  0  0  0
 12 42  1  0  0  0  0
 12 43  1  0  0  0  0
 13 15  1  0  0  0  0
 13 44  1  0  0  0  0
 13 45  1  0  0  0  0
 14 16  1  0  0  0  0
 14 46  1  0  0  0  0
 14 47  1  0  0  0  0
 15 17  1  0  0  0  0
 15 48  1  0  0  0  0
 15 49  1  0  0  0  0
 17 19  1  0  0  0  0
 17 50  1  0  0  0  0
 17 51  1  0  0  0  0
 18 20  1  0  0  0  0
 18 52  1  0  0  0  0
 18 53  1  0  0  0  0
 19 22  1  0  0  0  0
 19 54  1  0  0  0  0
 19 55  1  0  0  0  0
 20 56  1  0  0  0  0
 20 57  1  0  0  0  0
 21 24  1  0  0  0  0
 21 58  1  0  0  0  0
 21 59  1  0  0  0  0
 22 23  1  0  0  0  0
 22 60  1  0  0  0  0
 22 61  1  0  0  0  0
 23 25  1  0  0  0  0
 23 62  1  0  0  0  0
 23 63  1  0  0  0  0
 24 64  1  0  0  0  0
 24 65  1  0  0  0  0
 25 66  1  0  0  0  0
 25 67  1  0  0  0  0
 25 68  1  0  0  0  0
M  END
> <PUBCHEM_COMPOUND_CID>
7223

> <PUBCHEM_COMPOUND_CANONICALIZED>
1

> <PUBCHEM_CACTVS_COMPLEXITY>
317

> <PUBCHEM_CACTVS_HBOND_ACCEPTOR>
2

> <PUBCHEM_CACTVS_HBOND_DONOR>
1

> <PUBCHEM_CACTVS_ROTATABLE_BOND>
18

> <PUBCHEM_CACTVS_SUBSKEYS>
AAADcfB7IAAAAAAAAAAAAAAAAAAAAQAAAAAAAAAAAAAAAAAAAAAAHgAACAAACADhgAYDAAMAAgAgAAIgJAAAAAEAAAABAAA4AAACUAIAiAAUAAAAAACQAAEQgIAAAAAAAAAAAAAAAAAAAAAAAAAAAAAAAA==

> <PUBCHEM_IUPAC_OPENEYE_NAME>
2-(2-heptadecyl-4,5-dihydroimidazol-1-yl)ethanol

> <PUBCHEM_IUPAC_CAS_NAME>
2-(2-heptadecyl-4,5-dihydroimidazol-1-yl)ethanol

> <PUBCHEM_IUPAC_NAME>
2-(2-heptadecyl-4,5-dihydroimidazol-1-yl)ethanol

> <PUBCHEM_IUPAC_SYSTEMATIC_NAME>
2-(2-heptadecyl-4,5-dihydroimidazol-1-yl)ethanol

> <PUBCHEM_IUPAC_TRADITIONAL_NAME>
2-(2-heptadecyl-2-imidazolin-1-yl)ethanol

> <PUBCHEM_IUPAC_INCHI>
InChI=1S/C22H44N2O/c1-2-3-4-5-6-7-8-9-10-11-12-13-14-15-16-17-22-23-18-19-24(22)20-21-25/h25H,2-21H2,1H3

> <PUBCHEM_IUPAC_INCHIKEY>
QJEBJKXTNSYBGE-UHFFFAOYSA-N

> <PUBCHEM_XLOGP3_AA>
7.1

> <PUBCHEM_EXACT_MASS>
352.345364

> <PUBCHEM_MOLECULAR_FORMULA>
C22H44N2O

> <PUBCHEM_MOLECULAR_WEIGHT>
352.59756

> <PUBCHEM_OPENEYE_CAN_SMILES>
CCCCCCCCCCCCCCCCCC1=NCCN1CCO

> <PUBCHEM_OPENEYE_ISO_SMILES>
CCCCCCCCCCCCCCCCCC1=NCCN1CCO

> <PUBCHEM_CACTVS_TPSA>
35.8

> <PUBCHEM_MONOISOTOPIC_WEIGHT>
352.345364

> <PUBCHEM_TOTAL_CHARGE>
0

> <PUBCHEM_HEAVY_ATOM_COUNT>
25

> <PUBCHEM_ATOM_DEF_STEREO_COUNT>
0

> <PUBCHEM_ATOM_UDEF_STEREO_COUNT>
0

> <PUBCHEM_BOND_DEF_STEREO_COUNT>
0

> <PUBCHEM_BOND_UDEF_STEREO_COUNT>
0

> <PUBCHEM_ISOTOPIC_ATOM_COUNT>
0

> <PUBCHEM_COMPONENT_COUNT>
1

> <PUBCHEM_CACTVS_TAUTO_COUNT>
1

> <PUBCHEM_COORDINATE_TYPE>
1
5
255

$$$$

