3618
  -OEChem-06251223322D

 47 50  0     1  0  0  0  0  0999 V2000
    7.1962    0.0950    0.0000 S   0  0  0  0  0  0  0  0  0  0  0  0
    7.6962   -0.7710    0.0000 O   0  0  0  0  0  0  0  0  0  0  0  0
    6.6962    0.9610    0.0000 O   0  0  0  0  0  0  0  0  0  0  0  0
    7.1962    3.0950    0.0000 O   0  0  0  0  0  0  0  0  0  0  0  0
    6.3301    1.5950    0.0000 O   0  0  0  0  0  0  0  0  0  0  0  0
    8.0622    0.5950    0.0000 N   0  0  3  0  0  0  0  0  0  0  0  0
    8.0622    1.5950    0.0000 C   0  0  3  0  0  0  0  0  0  0  0  0
    8.9282    2.0950    0.0000 C   0  0  0  0  0  0  0  0  0  0  0  0
    8.9282    0.0950    0.0000 C   0  0  0  0  0  0  0  0  0  0  0  0
    9.7942    1.5950    0.0000 C   0  0  0  0  0  0  0  0  0  0  0  0
    9.7942    0.5950    0.0000 C   0  0  0  0  0  0  0  0  0  0  0  0
    7.1962    2.0950    0.0000 C   0  0  0  0  0  0  0  0  0  0  0  0
    6.3301   -0.4050    0.0000 C   0  0  0  0  0  0  0  0  0  0  0  0
   10.6882    2.1297    0.0000 C   0  0  0  0  0  0  0  0  0  0  0  0
   10.6882    0.0603    0.0000 C   0  0  0  0  0  0  0  0  0  0  0  0
   11.5942    1.6158    0.0000 C   0  0  0  0  0  0  0  0  0  0  0  0
   11.5942    0.5742    0.0000 C   0  0  0  0  0  0  0  0  0  0  0  0
    5.4641    0.0950    0.0000 C   0  0  0  0  0  0  0  0  0  0  0  0
    6.3301   -1.4050    0.0000 C   0  0  0  0  0  0  0  0  0  0  0  0
    4.5981   -1.4050    0.0000 C   0  0  0  0  0  0  0  0  0  0  0  0
    4.5981   -0.4050    0.0000 C   0  0  0  0  0  0  0  0  0  0  0  0
    5.4641   -1.9050    0.0000 C   0  0  0  0  0  0  0  0  0  0  0  0
    3.7320   -1.9050    0.0000 C   0  0  0  0  0  0  0  0  0  0  0  0
    2.8660   -1.4050    0.0000 C   0  0  0  0  0  0  0  0  0  0  0  0
    3.7320   -2.9050    0.0000 C   0  0  0  0  0  0  0  0  0  0  0  0
    2.0000   -1.9050    0.0000 C   0  0  0  0  0  0  0  0  0  0  0  0
    2.8660   -3.4050    0.0000 C   0  0  0  0  0  0  0  0  0  0  0  0
    2.0000   -2.9050    0.0000 C   0  0  0  0  0  0  0  0  0  0  0  0
    7.5252    1.2850    0.0000 H   0  0  0  0  0  0  0  0  0  0  0  0
    9.3267    2.5700    0.0000 H   0  0  0  0  0  0  0  0  0  0  0  0
    8.5297    2.5700    0.0000 H   0  0  0  0  0  0  0  0  0  0  0  0
    8.5297   -0.3799    0.0000 H   0  0  0  0  0  0  0  0  0  0  0  0
    9.3267   -0.3799    0.0000 H   0  0  0  0  0  0  0  0  0  0  0  0
   10.6810    2.7496    0.0000 H   0  0  0  0  0  0  0  0  0  0  0  0
   10.6810   -0.5596    0.0000 H   0  0  0  0  0  0  0  0  0  0  0  0
   12.1300    1.9279    0.0000 H   0  0  0  0  0  0  0  0  0  0  0  0
   12.1300    0.2621    0.0000 H   0  0  0  0  0  0  0  0  0  0  0  0
    5.4641    0.7150    0.0000 H   0  0  0  0  0  0  0  0  0  0  0  0
    6.8671   -1.7150    0.0000 H   0  0  0  0  0  0  0  0  0  0  0  0
    4.0611   -0.0950    0.0000 H   0  0  0  0  0  0  0  0  0  0  0  0
    5.4641   -2.5250    0.0000 H   0  0  0  0  0  0  0  0  0  0  0  0
    6.6592    3.4050    0.0000 H   0  0  0  0  0  0  0  0  0  0  0  0
    2.8660   -0.7850    0.0000 H   0  0  0  0  0  0  0  0  0  0  0  0
    4.2690   -3.2150    0.0000 H   0  0  0  0  0  0  0  0  0  0  0  0
    1.4631   -1.5950    0.0000 H   0  0  0  0  0  0  0  0  0  0  0  0
    2.8660   -4.0250    0.0000 H   0  0  0  0  0  0  0  0  0  0  0  0
    1.4631   -3.2150    0.0000 H   0  0  0  0  0  0  0  0  0  0  0  0
  1  2  2  0  0  0  0
  1  3  2  0  0  0  0
  1  6  1  0  0  0  0
  1 13  1  0  0  0  0
  4 12  1  0  0  0  0
  4 42  1  0  0  0  0
  5 12  2  0  0  0  0
  6  7  1  0  0  0  0
  6  9  1  0  0  0  0
  7  8  1  0  0  0  0
  7 12  1  0  0  0  0
  7 29  1  0  0  0  0
  8 10  1  0  0  0  0
  8 30  1  0  0  0  0
  8 31  1  0  0  0  0
  9 11  1  0  0  0  0
  9 32  1  0  0  0  0
  9 33  1  0  0  0  0
 10 11  1  0  0  0  0
 10 14  2  0  0  0  0
 11 15  2  0  0  0  0
 13 18  2  0  0  0  0
 13 19  1  0  0  0  0
 14 16  1  0  0  0  0
 14 34  1  0  0  0  0
 15 17  1  0  0  0  0
 15 35  1  0  0  0  0
 16 17  2  0  0  0  0
 16 36  1  0  0  0  0
 17 37  1  0  0  0  0
 18 21  1  0  0  0  0
 18 38  1  0  0  0  0
 19 22  2  0  0  0  0
 19 39  1  0  0  0  0
 20 21  2  0  0  0  0
 20 22  1  0  0  0  0
 20 23  1  0  0  0  0
 21 40  1  0  0  0  0
 22 41  1  0  0  0  0
 23 24  2  0  0  0  0
 23 25  1  0  0  0  0
 24 26  1  0  0  0  0
 24 43  1  0  0  0  0
 25 27  2  0  0  0  0
 25 44  1  0  0  0  0
 26 28  2  0  0  0  0
 26 45  1  0  0  0  0
 27 28  1  0  0  0  0
 27 46  1  0  0  0  0
 28 47  1  0  0  0  0
M  END
> <PUBCHEM_COMPOUND_CID>
3618

> <PUBCHEM_COMPOUND_CANONICALIZED>
1

> <PUBCHEM_CACTVS_COMPLEXITY>
644

> <PUBCHEM_CACTVS_HBOND_ACCEPTOR>
5

> <PUBCHEM_CACTVS_HBOND_DONOR>
1

> <PUBCHEM_CACTVS_ROTATABLE_BOND>
4

> <PUBCHEM_CACTVS_SUBSKEYS>
AAADceB6OABAAAAAAAAAAAAAAAAAAAAAAAA8YMEAAAAAAACxUAAAHgQASAAADCjB2AQwCYIAAgKIAiDSCHDCABAgAAAIiBmIBIgKIDKAkTGEYAhkgACYiAeYyPCOkAAAAAAQAAAgAAAAACAAAAAAAAAAAA==

> <PUBCHEM_IUPAC_OPENEYE_NAME>
2-(4-phenylphenyl)sulfonyl-3,4-dihydro-1H-isoquinoline-3-carboxylic acid

> <PUBCHEM_IUPAC_CAS_NAME>
2-(4-phenylphenyl)sulfonyl-3,4-dihydro-1H-isoquinoline-3-carboxylic acid

> <PUBCHEM_IUPAC_NAME>
2-(4-phenylphenyl)sulfonyl-3,4-dihydro-1H-isoquinoline-3-carboxylic acid

> <PUBCHEM_IUPAC_SYSTEMATIC_NAME>
2-(4-phenylphenyl)sulfonyl-3,4-dihydro-1H-isoquinoline-3-carboxylic acid

> <PUBCHEM_IUPAC_TRADITIONAL_NAME>
2-(4-phenylphenyl)sulfonyl-3,4-dihydro-1H-isoquinoline-3-carboxylic acid

> <PUBCHEM_IUPAC_INCHI>
InChI=1S/C22H19NO4S/c24-22(25)21-14-18-8-4-5-9-19(18)15-23(21)28(26,27)20-12-10-17(11-13-20)16-6-2-1-3-7-16/h1-13,21H,14-15H2,(H,24,25)

> <PUBCHEM_IUPAC_INCHIKEY>
BNVMUDXGABBWGP-UHFFFAOYSA-N

> <PUBCHEM_XLOGP3_AA>
3.9

> <PUBCHEM_EXACT_MASS>
393.103479

> <PUBCHEM_MOLECULAR_FORMULA>
C22H19NO4S

> <PUBCHEM_MOLECULAR_WEIGHT>
393.45556

> <PUBCHEM_OPENEYE_CAN_SMILES>
C1C(N(CC2=CC=CC=C21)S(=O)(=O)C3=CC=C(C=C3)C4=CC=CC=C4)C(=O)O

> <PUBCHEM_OPENEYE_ISO_SMILES>
C1C(N(CC2=CC=CC=C21)S(=O)(=O)C3=CC=C(C=C3)C4=CC=CC=C4)C(=O)O

> <PUBCHEM_CACTVS_TPSA>
83.1

> <PUBCHEM_MONOISOTOPIC_WEIGHT>
393.103479

> <PUBCHEM_TOTAL_CHARGE>
0

> <PUBCHEM_HEAVY_ATOM_COUNT>
28

> <PUBCHEM_ATOM_DEF_STEREO_COUNT>
0

> <PUBCHEM_ATOM_UDEF_STEREO_COUNT>
1

> <PUBCHEM_BOND_DEF_STEREO_COUNT>
0

> <PUBCHEM_BOND_UDEF_STEREO_COUNT>
0

> <PUBCHEM_ISOTOPIC_ATOM_COUNT>
0

> <PUBCHEM_COMPONENT_COUNT>
1

> <PUBCHEM_CACTVS_TAUTO_COUNT>
1

> <PUBCHEM_COORDINATE_TYPE>
1
5
255

> <PUBCHEM_BONDANNOTATIONS>
10  11  8
10  14  8
11  15  8
13  18  8
13  19  8
14  16  8
15  17  8
16  17  8
18  21  8
19  22  8
20  21  8
20  22  8
23  24  8
23  25  8
24  26  8
25  27  8
26  28  8
27  28  8
7  12  3

$$$$

