14367
  -OEChem-06241222432D

 37 36  0     0  0  0  0  0  0999 V2000
    0.0000    4.3665    0.0000 Cl  0  5  0  0  0  0  0  0  0  0  0  0
    3.8521    3.0000    0.0000 O   0  0  0  0  0  0  0  0  0  0  0  0
    0.3879    3.0000    0.0000 O   0  0  0  0  0  0  0  0  0  0  0  0
    2.1200    0.0000    0.0000 O   0  0  0  0  0  0  0  0  0  0  0  0
    2.9860    1.5000    0.0000 N   0  0  0  0  0  0  0  0  0  0  0  0
    1.2540    1.5000    0.0000 N   0  0  0  0  0  0  0  0  0  0  0  0
    1.6200    7.3301    0.0000 N   0  3  0  0  0  0  0  0  0  0  0  0
    2.1200    3.0000    0.0000 C   0  0  0  0  0  0  0  0  0  0  0  0
    1.6200    3.8660    0.0000 C   0  0  0  0  0  0  0  0  0  0  0  0
    2.6200    3.8660    0.0000 C   0  0  0  0  0  0  0  0  0  0  0  0
    2.9860    2.5000    0.0000 C   0  0  0  0  0  0  0  0  0  0  0  0
    1.2540    2.5000    0.0000 C   0  0  0  0  0  0  0  0  0  0  0  0
    0.6200    3.8660    0.0000 C   0  0  0  0  0  0  0  0  0  0  0  0
    2.1200    1.0000    0.0000 C   0  0  0  0  0  0  0  0  0  0  0  0
    2.1200    4.7321    0.0000 C   0  0  0  0  0  0  0  0  0  0  0  0
    1.1200    6.4641    0.0000 C   0  0  0  0  0  0  0  0  0  0  0  0
    1.6200    5.5981    0.0000 C   0  0  0  0  0  0  0  0  0  0  0  0
    2.1200    8.1962    0.0000 C   0  0  0  0  0  0  0  0  0  0  0  0
    0.7540    7.8301    0.0000 C   0  0  0  0  0  0  0  0  0  0  0  0
    2.2026    4.0781    0.0000 H   0  0  0  0  0  0  0  0  0  0  0  0
    1.5123    4.4766    0.0000 H   0  0  0  0  0  0  0  0  0  0  0  0
    3.0949    3.4675    0.0000 H   0  0  0  0  0  0  0  0  0  0  0  0
    3.0949    4.2646    0.0000 H   0  0  0  0  0  0  0  0  0  0  0  0
    0.6200    4.4860    0.0000 H   0  0  0  0  0  0  0  0  0  0  0  0
    0.0000    3.8660    0.0000 H   0  0  0  0  0  0  0  0  0  0  0  0
    0.6200    3.2460    0.0000 H   0  0  0  0  0  0  0  0  0  0  0  0
    3.5230    1.1900    0.0000 H   0  0  0  0  0  0  0  0  0  0  0  0
    0.7170    1.1900    0.0000 H   0  0  0  0  0  0  0  0  0  0  0  0
    2.1569    7.0201    0.0000 H   0  0  0  0  0  0  0  0  0  0  0  0
    0.6451    6.8626    0.0000 H   0  0  0  0  0  0  0  0  0  0  0  0
    0.6451    6.0656    0.0000 H   0  0  0  0  0  0  0  0  0  0  0  0
    2.6569    7.8862    0.0000 H   0  0  0  0  0  0  0  0  0  0  0  0
    2.4300    8.7331    0.0000 H   0  0  0  0  0  0  0  0  0  0  0  0
    1.5831    8.5062    0.0000 H   0  0  0  0  0  0  0  0  0  0  0  0
    1.0640    8.3671    0.0000 H   0  0  0  0  0  0  0  0  0  0  0  0
    0.2170    8.1401    0.0000 H   0  0  0  0  0  0  0  0  0  0  0  0
    0.4440    7.2932    0.0000 H   0  0  0  0  0  0  0  0  0  0  0  0
  2 11  2  0  0  0  0
  3 12  2  0  0  0  0
  4 14  2  0  0  0  0
  5 11  1  0  0  0  0
  5 14  1  0  0  0  0
  5 27  1  0  0  0  0
  6 12  1  0  0  0  0
  6 14  1  0  0  0  0
  6 28  1  0  0  0  0
  7 16  1  0  0  0  0
  7 18  1  0  0  0  0
  7 19  1  0  0  0  0
  7 29  1  0  0  0  0
  8  9  1  0  0  0  0
  8 10  1  0  0  0  0
  8 11  1  0  0  0  0
  8 12  1  0  0  0  0
  9 13  1  0  0  0  0
  9 20  1  0  0  0  0
  9 21  1  0  0  0  0
 10 15  1  0  0  0  0
 10 22  1  0  0  0  0
 10 23  1  0  0  0  0
 13 24  1  0  0  0  0
 13 25  1  0  0  0  0
 13 26  1  0  0  0  0
 15 17  3  0  0  0  0
 16 17  1  0  0  0  0
 16 30  1  0  0  0  0
 16 31  1  0  0  0  0
 18 32  1  0  0  0  0
 18 33  1  0  0  0  0
 18 34  1  0  0  0  0
 19 35  1  0  0  0  0
 19 36  1  0  0  0  0
 19 37  1  0  0  0  0
M  CHG  2   1  -1   7   1
M  END
> <PUBCHEM_COMPOUND_CID>
14367

> <PUBCHEM_COMPOUND_CANONICALIZED>
1

> <PUBCHEM_CACTVS_COMPLEXITY>
422

> <PUBCHEM_CACTVS_HBOND_ACCEPTOR>
4

> <PUBCHEM_CACTVS_HBOND_DONOR>
3

> <PUBCHEM_CACTVS_ROTATABLE_BOND>
3

> <PUBCHEM_CACTVS_SUBSKEYS>
AAADceBzMAAEAAAAAAAAAAAAAAAAAAAAAAAsAAAAAAAAAAAAAAAAHgAQAAAADgDBgAQDAAPAAABIEAEQEAgAAAAAAAAAAIEIAACAABoIwAAEAAAIBSIAAAAAAAALAAAAAAAAAAAAAAAAAAAAAAAAAAAAAA==

> <PUBCHEM_IUPAC_OPENEYE_NAME>
4-(5-ethyl-2,4,6-trioxo-hexahydropyrimidin-5-yl)but-2-ynyl-dimethyl-ammonium chloride

> <PUBCHEM_IUPAC_CAS_NAME>
4-(5-ethyl-2,4,6-trioxo-1,3-diazinan-5-yl)but-2-ynyl-dimethylammonium chloride

> <PUBCHEM_IUPAC_NAME>
4-(5-ethyl-2,4,6-trioxo-1,3-diazinan-5-yl)but-2-ynyl-dimethylazanium chloride

> <PUBCHEM_IUPAC_SYSTEMATIC_NAME>
4-[5-ethyl-2,4,6-tris(oxidanylidene)-1,3-diazinan-5-yl]but-2-ynyl-dimethyl-azanium chloride

> <PUBCHEM_IUPAC_TRADITIONAL_NAME>
4-(5-ethyl-2,4,6-triketo-hexahydropyrimidin-5-yl)but-2-ynyl-dimethyl-ammonium chloride

> <PUBCHEM_IUPAC_INCHI>
InChI=1S/C12H17N3O3.ClH/c1-4-12(7-5-6-8-15(2)3)9(16)13-11(18)14-10(12)17;/h4,7-8H2,1-3H3,(H2,13,14,16,17,18);1H

> <PUBCHEM_IUPAC_INCHIKEY>
RCCOQPQDWPVWJE-UHFFFAOYSA-N

> <PUBCHEM_EXACT_MASS>
287.103669

> <PUBCHEM_MOLECULAR_FORMULA>
C12H18ClN3O3

> <PUBCHEM_MOLECULAR_WEIGHT>
287.74262

> <PUBCHEM_OPENEYE_CAN_SMILES>
CCC1(C(=O)NC(=O)NC1=O)CC#CC[NH+](C)C.[Cl-]

> <PUBCHEM_OPENEYE_ISO_SMILES>
CCC1(C(=O)NC(=O)NC1=O)CC#CC[NH+](C)C.[Cl-]

> <PUBCHEM_CACTVS_TPSA>
79.7

> <PUBCHEM_MONOISOTOPIC_WEIGHT>
287.103669

> <PUBCHEM_TOTAL_CHARGE>
0

> <PUBCHEM_HEAVY_ATOM_COUNT>
19

> <PUBCHEM_ATOM_DEF_STEREO_COUNT>
0

> <PUBCHEM_ATOM_UDEF_STEREO_COUNT>
0

> <PUBCHEM_BOND_DEF_STEREO_COUNT>
0

> <PUBCHEM_BOND_UDEF_STEREO_COUNT>
0

> <PUBCHEM_ISOTOPIC_ATOM_COUNT>
0

> <PUBCHEM_COMPONENT_COUNT>
2

> <PUBCHEM_CACTVS_TAUTO_COUNT>
5

> <PUBCHEM_COORDINATE_TYPE>
1
5
255

$$$$

