3377
  -OEChem-06251223222D

 58 61  0     0  0  0  0  0  0999 V2000
    8.0000   -5.7631    0.0000 F   0  0  0  0  0  0  0  0  0  0  0  0
    2.0000   -2.2990    0.0000 F   0  0  0  0  0  0  0  0  0  0  0  0
    6.5000   -1.4330    0.0000 N   0  3  0  0  0  0  0  0  0  0  0  0
    6.5000    0.5670    0.0000 N   0  3  0  0  0  0  0  0  0  0  0  0
    5.6340   -0.9330    0.0000 C   0  0  0  0  0  0  0  0  0  0  0  0
    7.3660   -0.9330    0.0000 C   0  0  0  0  0  0  0  0  0  0  0  0
    7.3660    0.0670    0.0000 C   0  0  0  0  0  0  0  0  0  0  0  0
    5.6340    0.0670    0.0000 C   0  0  0  0  0  0  0  0  0  0  0  0
    6.0000   -2.2990    0.0000 C   0  0  0  0  0  0  0  0  0  0  0  0
    7.0000    1.4330    0.0000 C   0  0  0  0  0  0  0  0  0  0  0  0
    5.0000   -2.2990    0.0000 C   0  0  0  0  0  0  0  0  0  0  0  0
    6.5000   -3.1651    0.0000 C   0  0  0  0  0  0  0  0  0  0  0  0
    6.5000    2.2990    0.0000 C   0  0  0  0  0  0  0  0  0  0  0  0
    6.0000   -4.0311    0.0000 C   0  0  0  0  0  0  0  0  0  0  0  0
    4.5000   -1.4330    0.0000 C   0  0  0  0  0  0  0  0  0  0  0  0
    7.5000   -3.1651    0.0000 C   0  0  0  0  0  0  0  0  0  0  0  0
    4.5000   -3.1651    0.0000 C   0  0  0  0  0  0  0  0  0  0  0  0
    7.0000    3.1651    0.0000 C   0  0  0  0  0  0  0  0  0  0  0  0
    6.5000   -4.8971    0.0000 C   0  0  0  0  0  0  0  0  0  0  0  0
    3.5000   -1.4330    0.0000 C   0  0  0  0  0  0  0  0  0  0  0  0
    8.0000   -4.0311    0.0000 C   0  0  0  0  0  0  0  0  0  0  0  0
    3.5000   -3.1651    0.0000 C   0  0  0  0  0  0  0  0  0  0  0  0
    3.0000   -2.2990    0.0000 C   0  0  0  0  0  0  0  0  0  0  0  0
    7.5000   -4.8971    0.0000 C   0  0  0  0  0  0  0  0  0  0  0  0
    6.5000    4.0311    0.0000 C   0  0  0  0  0  0  0  0  0  0  0  0
    5.5000    4.0311    0.0000 C   0  0  0  0  0  0  0  0  0  0  0  0
    7.0000    4.8971    0.0000 C   0  0  0  0  0  0  0  0  0  0  0  0
    5.0000    4.8971    0.0000 C   0  0  0  0  0  0  0  0  0  0  0  0
    6.5000    5.7631    0.0000 C   0  0  0  0  0  0  0  0  0  0  0  0
    5.5000    5.7631    0.0000 C   0  0  0  0  0  0  0  0  0  0  0  0
    6.8100   -1.9700    0.0000 H   0  0  0  0  0  0  0  0  0  0  0  0
    6.1900    1.1039    0.0000 H   0  0  0  0  0  0  0  0  0  0  0  0
    5.0234   -0.8254    0.0000 H   0  0  0  0  0  0  0  0  0  0  0  0
    5.4219   -1.5156    0.0000 H   0  0  0  0  0  0  0  0  0  0  0  0
    7.5781   -1.5156    0.0000 H   0  0  0  0  0  0  0  0  0  0  0  0
    7.9766   -0.8254    0.0000 H   0  0  0  0  0  0  0  0  0  0  0  0
    5.4219    0.6496    0.0000 H   0  0  0  0  0  0  0  0  0  0  0  0
    5.0234   -0.0407    0.0000 H   0  0  0  0  0  0  0  0  0  0  0  0
    7.9766   -0.0407    0.0000 H   0  0  0  0  0  0  0  0  0  0  0  0
    7.5781    0.6496    0.0000 H   0  0  0  0  0  0  0  0  0  0  0  0
    6.6200   -2.2990    0.0000 H   0  0  0  0  0  0  0  0  0  0  0  0
    7.4750    1.0345    0.0000 H   0  0  0  0  0  0  0  0  0  0  0  0
    7.4750    1.8315    0.0000 H   0  0  0  0  0  0  0  0  0  0  0  0
    5.8800    2.2990    0.0000 H   0  0  0  0  0  0  0  0  0  0  0  0
    4.8100   -0.8961    0.0000 H   0  0  0  0  0  0  0  0  0  0  0  0
    5.3800   -4.0311    0.0000 H   0  0  0  0  0  0  0  0  0  0  0  0
    4.8100   -3.7020    0.0000 H   0  0  0  0  0  0  0  0  0  0  0  0
    7.8100   -2.6281    0.0000 H   0  0  0  0  0  0  0  0  0  0  0  0
    7.6200    3.1651    0.0000 H   0  0  0  0  0  0  0  0  0  0  0  0
    3.1900   -0.8961    0.0000 H   0  0  0  0  0  0  0  0  0  0  0  0
    6.1900   -5.4340    0.0000 H   0  0  0  0  0  0  0  0  0  0  0  0
    3.1900   -3.7020    0.0000 H   0  0  0  0  0  0  0  0  0  0  0  0
    8.6200   -4.0311    0.0000 H   0  0  0  0  0  0  0  0  0  0  0  0
    5.1900    3.4942    0.0000 H   0  0  0  0  0  0  0  0  0  0  0  0
    7.6200    4.8971    0.0000 H   0  0  0  0  0  0  0  0  0  0  0  0
    4.3800    4.8971    0.0000 H   0  0  0  0  0  0  0  0  0  0  0  0
    6.8100    6.3001    0.0000 H   0  0  0  0  0  0  0  0  0  0  0  0
    5.1900    6.3001    0.0000 H   0  0  0  0  0  0  0  0  0  0  0  0
  1 24  1  0  0  0  0
  2 23  1  0  0  0  0
  3  5  1  0  0  0  0
  3  6  1  0  0  0  0
  3  9  1  0  0  0  0
  3 31  1  0  0  0  0
  4  7  1  0  0  0  0
  4  8  1  0  0  0  0
  4 10  1  0  0  0  0
  4 32  1  0  0  0  0
  5  8  1  0  0  0  0
  5 33  1  0  0  0  0
  5 34  1  0  0  0  0
  6  7  1  0  0  0  0
  6 35  1  0  0  0  0
  6 36  1  0  0  0  0
  7 39  1  0  0  0  0
  7 40  1  0  0  0  0
  8 37  1  0  0  0  0
  8 38  1  0  0  0  0
  9 11  1  0  0  0  0
  9 12  1  0  0  0  0
  9 41  1  0  0  0  0
 10 13  1  0  0  0  0
 10 42  1  0  0  0  0
 10 43  1  0  0  0  0
 11 15  2  0  0  0  0
 11 17  1  0  0  0  0
 12 14  2  0  0  0  0
 12 16  1  0  0  0  0
 13 18  2  3  0  0  0
 13 44  1  0  0  0  0
 14 19  1  0  0  0  0
 14 46  1  0  0  0  0
 15 20  1  0  0  0  0
 15 45  1  0  0  0  0
 16 21  2  0  0  0  0
 16 48  1  0  0  0  0
 17 22  2  0  0  0  0
 17 47  1  0  0  0  0
 18 25  1  0  0  0  0
 18 49  1  0  0  0  0
 19 24  2  0  0  0  0
 19 51  1  0  0  0  0
 20 23  2  0  0  0  0
 20 50  1  0  0  0  0
 21 24  1  0  0  0  0
 21 53  1  0  0  0  0
 22 23  1  0  0  0  0
 22 52  1  0  0  0  0
 25 26  2  0  0  0  0
 25 27  1  0  0  0  0
 26 28  1  0  0  0  0
 26 54  1  0  0  0  0
 27 29  2  0  0  0  0
 27 55  1  0  0  0  0
 28 30  2  0  0  0  0
 28 56  1  0  0  0  0
 29 30  1  0  0  0  0
 29 57  1  0  0  0  0
 30 58  1  0  0  0  0
M  CHG  2   3   1   4   1
M  END
> <PUBCHEM_COMPOUND_CID>
3377

> <PUBCHEM_COMPOUND_CANONICALIZED>
1

> <PUBCHEM_CACTVS_COMPLEXITY>
487

> <PUBCHEM_CACTVS_HBOND_ACCEPTOR>
2

> <PUBCHEM_CACTVS_HBOND_DONOR>
2

> <PUBCHEM_CACTVS_ROTATABLE_BOND>
6

> <PUBCHEM_CACTVS_SUBSKEYS>
AAADceB7AYAAAAAAAAAAAAAAAAAAAAAAAAA8YMEAAAAAAAABUAAAHQAQAAAADCjBGAwwAIPAAACAAiBCAACCAAAgAAAIiIAIBIgIYCKAkRGUIAhgkACIiAcQgMAOAAAAAAAAAAAAAAAAAAAAAAAAAAAAAA==

> <PUBCHEM_IUPAC_OPENEYE_NAME>
1-[bis(4-fluorophenyl)methyl]-4-cinnamyl-piperazine-1,4-diium

> <PUBCHEM_IUPAC_CAS_NAME>
1-[bis(4-fluorophenyl)methyl]-4-(3-phenylprop-2-enyl)piperazine-1,4-diium

> <PUBCHEM_IUPAC_NAME>
1-[bis(4-fluorophenyl)methyl]-4-(3-phenylprop-2-enyl)piperazine-1,4-diium

> <PUBCHEM_IUPAC_SYSTEMATIC_NAME>
1-[bis(4-fluorophenyl)methyl]-4-(3-phenylprop-2-enyl)piperazine-1,4-diium

> <PUBCHEM_IUPAC_TRADITIONAL_NAME>
1-[bis(4-fluorophenyl)methyl]-4-cinnamyl-piperazine-1,4-diium

> <PUBCHEM_IUPAC_INCHI>
InChI=1S/C26H26F2N2/c27-24-12-8-22(9-13-24)26(23-10-14-25(28)15-11-23)30-19-17-29(18-20-30)16-4-7-21-5-2-1-3-6-21/h1-15,26H,16-20H2/p+2

> <PUBCHEM_IUPAC_INCHIKEY>
SMANXXCATUTDDT-UHFFFAOYSA-P

> <PUBCHEM_XLOGP3>
6

> <PUBCHEM_EXACT_MASS>
406.222055

> <PUBCHEM_MOLECULAR_FORMULA>
C26H28F2N2+2

> <PUBCHEM_MOLECULAR_WEIGHT>
406.510726

> <PUBCHEM_OPENEYE_CAN_SMILES>
C1C[NH+](CC[NH+]1CC=CC2=CC=CC=C2)C(C3=CC=C(C=C3)F)C4=CC=C(C=C4)F

> <PUBCHEM_OPENEYE_ISO_SMILES>
C1C[NH+](CC[NH+]1CC=CC2=CC=CC=C2)C(C3=CC=C(C=C3)F)C4=CC=C(C=C4)F

> <PUBCHEM_CACTVS_TPSA>
8.9

> <PUBCHEM_MONOISOTOPIC_WEIGHT>
406.222055

> <PUBCHEM_TOTAL_CHARGE>
2

> <PUBCHEM_HEAVY_ATOM_COUNT>
30

> <PUBCHEM_ATOM_DEF_STEREO_COUNT>
0

> <PUBCHEM_ATOM_UDEF_STEREO_COUNT>
0

> <PUBCHEM_BOND_DEF_STEREO_COUNT>
0

> <PUBCHEM_BOND_UDEF_STEREO_COUNT>
1

> <PUBCHEM_ISOTOPIC_ATOM_COUNT>
0

> <PUBCHEM_COMPONENT_COUNT>
1

> <PUBCHEM_CACTVS_TAUTO_COUNT>
1

> <PUBCHEM_COORDINATE_TYPE>
1
5
255

> <PUBCHEM_BONDANNOTATIONS>
11  15  8
11  17  8
12  14  8
12  16  8
13  18  1
14  19  8
15  20  8
16  21  8
17  22  8
19  24  8
20  23  8
21  24  8
22  23  8
25  26  8
25  27  8
26  28  8
27  29  8
28  30  8
29  30  8

$$$$

