17395672
  -OEChem-06241222512D

 47 50  0     1  0  0  0  0  0999 V2000
    5.4641    3.2327    0.0000 S   0  0  0  0  0  0  0  0  0  0  0  0
    3.7320    0.2327    0.0000 O   0  0  0  0  0  0  0  0  0  0  0  0
    5.4641    0.2327    0.0000 N   0  0  0  0  0  0  0  0  0  0  0  0
    5.4641    1.2327    0.0000 C   0  0  3  0  0  0  0  0  0  0  0  0
    4.5981    1.7327    0.0000 C   0  0  0  0  0  0  0  0  0  0  0  0
    6.3301    1.7327    0.0000 C   0  0  0  0  0  0  0  0  0  0  0  0
    4.5981    2.7327    0.0000 C   0  0  0  0  0  0  0  0  0  0  0  0
    4.5981   -1.2673    0.0000 C   0  0  0  0  0  0  0  0  0  0  0  0
    6.3301    2.7327    0.0000 C   0  0  0  0  0  0  0  0  0  0  0  0
    4.5981   -0.2673    0.0000 C   0  0  0  0  0  0  0  0  0  0  0  0
    7.2241    1.1980    0.0000 C   0  0  0  0  0  0  0  0  0  0  0  0
    3.7320   -1.7673    0.0000 C   0  0  0  0  0  0  0  0  0  0  0  0
    5.4641   -1.7673    0.0000 C   0  0  0  0  0  0  0  0  0  0  0  0
    7.2241    3.2673    0.0000 C   0  0  0  0  0  0  0  0  0  0  0  0
    8.1301    1.7118    0.0000 C   0  0  0  0  0  0  0  0  0  0  0  0
    8.1301    2.7535    0.0000 C   0  0  0  0  0  0  0  0  0  0  0  0
    2.8660   -1.2673    0.0000 C   0  0  0  0  0  0  0  0  0  0  0  0
    5.4641   -2.7673    0.0000 C   0  0  0  0  0  0  0  0  0  0  0  0
    3.7320   -2.7673    0.0000 C   0  0  0  0  0  0  0  0  0  0  0  0
    6.3301   -1.2673    0.0000 C   0  0  0  0  0  0  0  0  0  0  0  0
    6.3301   -3.2673    0.0000 C   0  0  0  0  0  0  0  0  0  0  0  0
    2.0000   -1.7673    0.0000 C   0  0  0  0  0  0  0  0  0  0  0  0
    2.8660   -3.2673    0.0000 C   0  0  0  0  0  0  0  0  0  0  0  0
    7.1962   -1.7673    0.0000 C   0  0  0  0  0  0  0  0  0  0  0  0
    2.0000   -2.7673    0.0000 C   0  0  0  0  0  0  0  0  0  0  0  0
    7.1962   -2.7673    0.0000 C   0  0  0  0  0  0  0  0  0  0  0  0
    6.0010    0.9227    0.0000 H   0  0  0  0  0  0  0  0  0  0  0  0
    3.9875    1.8403    0.0000 H   0  0  0  0  0  0  0  0  0  0  0  0
    4.3860    1.1501    0.0000 H   0  0  0  0  0  0  0  0  0  0  0  0
    4.3860    3.3153    0.0000 H   0  0  0  0  0  0  0  0  0  0  0  0
    3.9875    2.6250    0.0000 H   0  0  0  0  0  0  0  0  0  0  0  0
    6.0010   -0.0773    0.0000 H   0  0  0  0  0  0  0  0  0  0  0  0
    5.1350   -0.9573    0.0000 H   0  0  0  0  0  0  0  0  0  0  0  0
    7.2169    0.5780    0.0000 H   0  0  0  0  0  0  0  0  0  0  0  0
    7.2169    3.8873    0.0000 H   0  0  0  0  0  0  0  0  0  0  0  0
    8.6659    1.3998    0.0000 H   0  0  0  0  0  0  0  0  0  0  0  0
    8.6659    3.0656    0.0000 H   0  0  0  0  0  0  0  0  0  0  0  0
    2.8660   -0.6473    0.0000 H   0  0  0  0  0  0  0  0  0  0  0  0
    4.9272   -3.0773    0.0000 H   0  0  0  0  0  0  0  0  0  0  0  0
    4.2690   -3.0773    0.0000 H   0  0  0  0  0  0  0  0  0  0  0  0
    6.3301   -0.6473    0.0000 H   0  0  0  0  0  0  0  0  0  0  0  0
    1.4631   -1.4573    0.0000 H   0  0  0  0  0  0  0  0  0  0  0  0
    6.3301   -3.8873    0.0000 H   0  0  0  0  0  0  0  0  0  0  0  0
    2.8660   -3.8873    0.0000 H   0  0  0  0  0  0  0  0  0  0  0  0
    7.7331   -1.4573    0.0000 H   0  0  0  0  0  0  0  0  0  0  0  0
    7.7331   -3.0773    0.0000 H   0  0  0  0  0  0  0  0  0  0  0  0
    1.4631   -3.0773    0.0000 H   0  0  0  0  0  0  0  0  0  0  0  0
  1  7  1  0  0  0  0
  1  9  1  0  0  0  0
  2 10  2  0  0  0  0
  3  4  1  0  0  0  0
  3 10  1  0  0  0  0
  3 32  1  0  0  0  0
  4  5  1  0  0  0  0
  4  6  1  0  0  0  0
  4 27  1  0  0  0  0
  5  7  1  0  0  0  0
  5 28  1  0  0  0  0
  5 29  1  0  0  0  0
  6  9  1  0  0  0  0
  6 11  2  0  0  0  0
  7 30  1  0  0  0  0
  7 31  1  0  0  0  0
  8 10  1  0  0  0  0
  8 12  1  0  0  0  0
  8 13  1  0  0  0  0
  8 33  1  0  0  0  0
  9 14  2  0  0  0  0
 11 15  1  0  0  0  0
 11 34  1  0  0  0  0
 12 17  2  0  0  0  0
 12 19  1  0  0  0  0
 13 18  2  0  0  0  0
 13 20  1  0  0  0  0
 14 16  1  0  0  0  0
 14 35  1  0  0  0  0
 15 16  2  0  0  0  0
 15 36  1  0  0  0  0
 16 37  1  0  0  0  0
 17 22  1  0  0  0  0
 17 38  1  0  0  0  0
 18 21  1  0  0  0  0
 18 39  1  0  0  0  0
 19 23  2  0  0  0  0
 19 40  1  0  0  0  0
 20 24  2  0  0  0  0
 20 41  1  0  0  0  0
 21 26  2  0  0  0  0
 21 43  1  0  0  0  0
 22 25  2  0  0  0  0
 22 42  1  0  0  0  0
 23 25  1  0  0  0  0
 23 44  1  0  0  0  0
 24 26  1  0  0  0  0
 24 45  1  0  0  0  0
 25 47  1  0  0  0  0
 26 46  1  0  0  0  0
M  END
> <PUBCHEM_COMPOUND_CID>
17395672

> <PUBCHEM_COMPOUND_CANONICALIZED>
1

> <PUBCHEM_CACTVS_COMPLEXITY>
437

> <PUBCHEM_CACTVS_HBOND_ACCEPTOR>
2

> <PUBCHEM_CACTVS_HBOND_DONOR>
1

> <PUBCHEM_CACTVS_ROTATABLE_BOND>
4

> <PUBCHEM_CACTVS_SUBSKEYS>
AAADceB6IABAAAAAAAAAAAAAAAAAAAAAAAA0YMEAAAAAAACRUAAAHgQQAAAADSjF2ASwAYLAAAiIAiFSEACCAAAgCBAIiJkIBIgIIDKglRGEIAhglgCoiAcYiMCOgAAAAAAEAAAAAAAAAAgAAAAAAAAAAA==

> <PUBCHEM_IUPAC_OPENEYE_NAME>
2,2-diphenyl-N-thiochroman-4-yl-acetamide

> <PUBCHEM_IUPAC_CAS_NAME>
N-(3,4-dihydro-2H-1-benzothiopyran-4-yl)-2,2-diphenylacetamide

> <PUBCHEM_IUPAC_NAME>
N-(3,4-dihydro-2H-thiochromen-4-yl)-2,2-diphenylacetamide

> <PUBCHEM_IUPAC_SYSTEMATIC_NAME>
N-(3,4-dihydro-2H-thiochromen-4-yl)-2,2-diphenyl-ethanamide

> <PUBCHEM_IUPAC_TRADITIONAL_NAME>
2,2-diphenyl-N-thiochroman-4-yl-acetamide

> <PUBCHEM_IUPAC_INCHI>
InChI=1S/C23H21NOS/c25-23(24-20-15-16-26-21-14-8-7-13-19(20)21)22(17-9-3-1-4-10-17)18-11-5-2-6-12-18/h1-14,20,22H,15-16H2,(H,24,25)

> <PUBCHEM_IUPAC_INCHIKEY>
NLSFVQNNUOSGJE-UHFFFAOYSA-N

> <PUBCHEM_XLOGP3_AA>
5

> <PUBCHEM_EXACT_MASS>
359.134385

> <PUBCHEM_MOLECULAR_FORMULA>
C23H21NOS

> <PUBCHEM_MOLECULAR_WEIGHT>
359.48394

> <PUBCHEM_OPENEYE_CAN_SMILES>
C1CSC2=CC=CC=C2C1NC(=O)C(C3=CC=CC=C3)C4=CC=CC=C4

> <PUBCHEM_OPENEYE_ISO_SMILES>
C1CSC2=CC=CC=C2C1NC(=O)C(C3=CC=CC=C3)C4=CC=CC=C4

> <PUBCHEM_CACTVS_TPSA>
54.4

> <PUBCHEM_MONOISOTOPIC_WEIGHT>
359.134385

> <PUBCHEM_TOTAL_CHARGE>
0

> <PUBCHEM_HEAVY_ATOM_COUNT>
26

> <PUBCHEM_ATOM_DEF_STEREO_COUNT>
0

> <PUBCHEM_ATOM_UDEF_STEREO_COUNT>
1

> <PUBCHEM_BOND_DEF_STEREO_COUNT>
0

> <PUBCHEM_BOND_UDEF_STEREO_COUNT>
0

> <PUBCHEM_ISOTOPIC_ATOM_COUNT>
0

> <PUBCHEM_COMPONENT_COUNT>
1

> <PUBCHEM_CACTVS_TAUTO_COUNT>
2

> <PUBCHEM_COORDINATE_TYPE>
1
5
255

> <PUBCHEM_BONDANNOTATIONS>
11  15  8
12  17  8
12  19  8
13  18  8
13  20  8
14  16  8
15  16  8
17  22  8
18  21  8
19  23  8
20  24  8
21  26  8
22  25  8
23  25  8
24  26  8
4  3  3
6  11  8
6  9  8
9  14  8

$$$$

