4815
  -OEChem-06261200212D

 40 44  0     1  0  0  0  0  0999 V2000
    3.1420   -3.3280    0.0000 O   0  0  0  0  0  0  0  0  0  0  0  0
    3.3984   -0.7710    0.0000 O   0  0  0  0  0  0  0  0  0  0  0  0
    6.1291   -2.5394    0.0000 O   0  0  0  0  0  0  0  0  0  0  0  0
    8.8415   -0.6824    0.0000 O   0  0  0  0  0  0  0  0  0  0  0  0
    2.0000   -1.8340    0.0000 O   0  0  0  0  0  0  0  0  0  0  0  0
    5.2729    2.7911    0.0000 O   0  0  0  0  0  0  0  0  0  0  0  0
    9.0826   -2.5144    0.0000 O   0  0  0  0  0  0  0  0  0  0  0  0
    4.3020   -1.7259    0.0000 C   0  0  3  0  0  0  0  0  0  0  0  0
    3.6387   -2.4664    0.0000 C   0  0  3  0  0  0  0  0  0  0  0  0
    5.2155   -2.1327    0.0000 C   0  0  3  0  0  0  0  0  0  0  0  0
    4.1365   -3.3269    0.0000 C   0  0  3  0  0  0  0  0  0  0  0  0
    4.4065   -0.7314    0.0000 C   0  0  3  0  0  0  0  0  0  0  0  0
    5.1090   -3.1210    0.0000 C   0  0  0  0  0  0  0  0  0  0  0  0
    6.7507   -0.8895    0.0000 C   0  0  3  0  0  0  0  0  0  0  0  0
    7.0095    0.0764    0.0000 C   0  0  3  0  0  0  0  0  0  0  0  0
    6.2729    1.0590    0.0000 C   0  0  3  0  0  0  0  0  0  0  0  0
    2.9901   -1.6936    0.0000 C   0  0  0  0  0  0  0  0  0  0  0  0
    4.1974   -2.7205    0.0000 C   0  0  0  0  0  0  0  0  0  0  0  0
    8.5826   -1.6484    0.0000 C   0  0  0  0  0  0  0  0  0  0  0  0
    5.7729    1.9250    0.0000 C   0  0  0  0  0  0  0  0  0  0  0  0
    6.6389    2.4250    0.0000 C   0  0  0  0  0  0  0  0  0  0  0  0
    4.9069    1.4250    0.0000 C   0  0  0  0  0  0  0  0  0  0  0  0
    4.2014   -3.9435    0.0000 H   0  0  0  0  0  0  0  0  0  0  0  0
    4.3016   -0.1204    0.0000 H   0  0  0  0  0  0  0  0  0  0  0  0
    5.1730   -3.7377    0.0000 H   0  0  0  0  0  0  0  0  0  0  0  0
    5.7290   -3.1223    0.0000 H   0  0  0  0  0  0  0  0  0  0  0  0
    7.2212   -0.4857    0.0000 H   0  0  0  0  0  0  0  0  0  0  0  0
    7.3897    0.5661    0.0000 H   0  0  0  0  0  0  0  0  0  0  0  0
    6.7903    1.4006    0.0000 H   0  0  0  0  0  0  0  0  0  0  0  0
    3.5808   -2.6557    0.0000 H   0  0  0  0  0  0  0  0  0  0  0  0
    4.1326   -3.3371    0.0000 H   0  0  0  0  0  0  0  0  0  0  0  0
    4.8141   -2.7853    0.0000 H   0  0  0  0  0  0  0  0  0  0  0  0
    6.1939   -3.1560    0.0000 H   0  0  0  0  0  0  0  0  0  0  0  0
    6.9489    1.8881    0.0000 H   0  0  0  0  0  0  0  0  0  0  0  0
    7.1758    2.7350    0.0000 H   0  0  0  0  0  0  0  0  0  0  0  0
    6.3289    2.9620    0.0000 H   0  0  0  0  0  0  0  0  0  0  0  0
    4.5969    1.9620    0.0000 H   0  0  0  0  0  0  0  0  0  0  0  0
    4.3699    1.1150    0.0000 H   0  0  0  0  0  0  0  0  0  0  0  0
    5.2169    0.8881    0.0000 H   0  0  0  0  0  0  0  0  0  0  0  0
    5.5829    3.3280    0.0000 H   0  0  0  0  0  0  0  0  0  0  0  0
  1  9  1  0  0  0  0
  1 11  1  0  0  0  0
  2 12  1  0  0  0  0
  2 17  1  0  0  0  0
  3 10  1  0  0  0  0
  3 33  1  0  0  0  0
  4 15  1  0  0  0  0
  4 19  1  0  0  0  0
  5 17  2  0  0  0  0
  6 20  1  0  0  0  0
  6 40  1  0  0  0  0
  7 19  2  0  0  0  0
  8  9  1  0  0  0  0
  8 10  1  0  0  0  0
  8 12  1  0  0  0  0
  8 18  1  0  0  0  0
  9 11  1  0  0  0  0
  9 17  1  0  0  0  0
 10 13  1  0  0  0  0
 10 14  1  0  0  0  0
 11 13  1  0  0  0  0
 11 23  1  0  0  0  0
 12 15  1  0  0  0  0
 12 24  1  0  0  0  0
 13 25  1  0  0  0  0
 13 26  1  0  0  0  0
 14 16  1  0  0  0  0
 14 19  1  0  0  0  0
 14 27  1  0  0  0  0
 15 16  1  0  0  0  0
 15 28  1  0  0  0  0
 16 20  1  0  0  0  0
 16 29  1  0  0  0  0
 18 30  1  0  0  0  0
 18 31  1  0  0  0  0
 18 32  1  0  0  0  0
 20 21  1  0  0  0  0
 20 22  1  0  0  0  0
 21 34  1  0  0  0  0
 21 35  1  0  0  0  0
 21 36  1  0  0  0  0
 22 37  1  0  0  0  0
 22 38  1  0  0  0  0
 22 39  1  0  0  0  0
M  END
> <PUBCHEM_COMPOUND_CID>
4815

> <PUBCHEM_COMPOUND_CANONICALIZED>
1

> <PUBCHEM_CACTVS_COMPLEXITY>
644

> <PUBCHEM_CACTVS_HBOND_ACCEPTOR>
7

> <PUBCHEM_CACTVS_HBOND_DONOR>
2

> <PUBCHEM_CACTVS_ROTATABLE_BOND>
1

> <PUBCHEM_CACTVS_SUBSKEYS>
AAADceBwOAAAAAAAAAAAAAAAEgAAAaJEAAA0QAAABIASAGgAAAAAGgAACAAAD1SggAICCAAABgAIAACQCAIAAAAAAAAAAAFAAAABABYAAAQCQAAFIAACAAHK7PzPgAAAAAAAAADCAAYQADCAAYQADAAAAA==

> <PUBCHEM_IUPAC_INCHI>
InChI=1S/C15H18O7/c1-12(2,18)6-7-10(16)20-8(6)9-13(3)14(7,19)4-5-15(13,22-5)11(17)21-9/h5-9,18-19H,4H2,1-3H3

> <PUBCHEM_IUPAC_INCHIKEY>
RYEFFICCPKWYML-UHFFFAOYSA-N

> <PUBCHEM_XLOGP3_AA>
-0.8

> <PUBCHEM_EXACT_MASS>
310.105253

> <PUBCHEM_MOLECULAR_FORMULA>
C15H18O7

> <PUBCHEM_MOLECULAR_WEIGHT>
310.29922

> <PUBCHEM_OPENEYE_CAN_SMILES>
CC12C3C4C(C(C1(CC5C2(O5)C(=O)O3)O)C(=O)O4)C(C)(C)O

> <PUBCHEM_OPENEYE_ISO_SMILES>
CC12C3C4C(C(C1(CC5C2(O5)C(=O)O3)O)C(=O)O4)C(C)(C)O

> <PUBCHEM_CACTVS_TPSA>
106

> <PUBCHEM_MONOISOTOPIC_WEIGHT>
310.105253

> <PUBCHEM_TOTAL_CHARGE>
0

> <PUBCHEM_HEAVY_ATOM_COUNT>
22

> <PUBCHEM_ATOM_DEF_STEREO_COUNT>
0

> <PUBCHEM_ATOM_UDEF_STEREO_COUNT>
8

> <PUBCHEM_BOND_DEF_STEREO_COUNT>
0

> <PUBCHEM_BOND_UDEF_STEREO_COUNT>
0

> <PUBCHEM_ISOTOPIC_ATOM_COUNT>
0

> <PUBCHEM_COMPONENT_COUNT>
1

> <PUBCHEM_CACTVS_TAUTO_COUNT>
1

> <PUBCHEM_COORDINATE_TYPE>
1
5
255

> <PUBCHEM_BONDANNOTATIONS>
11  13  3
14  19  3
16  20  3
12  2  3
10  3  3
15  4  3
8  18  3
9  17  3

$$$$

