7605
  -OEChem-06261202122D

 61 60  0     0  0  0  0  0  0999 V2000
    2.5000    1.0000    0.0000 Cl  0  0  0  0  0  0  0  0  0  0  0  0
    4.2320    0.0000    0.0000 Cl  0  0  0  0  0  0  0  0  0  0  0  0
    0.0000    6.8100    0.0000 Cl  0  5  0  0  0  0  0  0  0  0  0  0
    5.0981    4.5000    0.0000 N   0  3  0  0  0  0  0  0  0  0  0  0
    5.9641    5.0000    0.0000 C   0  0  0  0  0  0  0  0  0  0  0  0
    5.9641    6.0000    0.0000 C   0  0  0  0  0  0  0  0  0  0  0  0
    4.2320    4.0000    0.0000 C   0  0  0  0  0  0  0  0  0  0  0  0
    6.8301    6.5000    0.0000 C   0  0  0  0  0  0  0  0  0  0  0  0
    4.5981    5.3660    0.0000 C   0  0  0  0  0  0  0  0  0  0  0  0
    5.5981    3.6340    0.0000 C   0  0  0  0  0  0  0  0  0  0  0  0
    6.8301    7.5000    0.0000 C   0  0  0  0  0  0  0  0  0  0  0  0
    7.6962    8.0000    0.0000 C   0  0  0  0  0  0  0  0  0  0  0  0
    7.6962    9.0000    0.0000 C   0  0  0  0  0  0  0  0  0  0  0  0
    4.2320    3.0000    0.0000 C   0  0  0  0  0  0  0  0  0  0  0  0
    8.5622    9.5000    0.0000 C   0  0  0  0  0  0  0  0  0  0  0  0
    8.5622   10.5000    0.0000 C   0  0  0  0  0  0  0  0  0  0  0  0
    9.4282   11.0000    0.0000 C   0  0  0  0  0  0  0  0  0  0  0  0
    3.3660    2.5000    0.0000 C   0  0  0  0  0  0  0  0  0  0  0  0
    5.0981    2.5000    0.0000 C   0  0  0  0  0  0  0  0  0  0  0  0
    9.4282   12.0000    0.0000 C   0  0  0  0  0  0  0  0  0  0  0  0
   10.2942   12.5000    0.0000 C   0  0  0  0  0  0  0  0  0  0  0  0
    3.3660    1.5000    0.0000 C   0  0  0  0  0  0  0  0  0  0  0  0
    5.0981    1.5000    0.0000 C   0  0  0  0  0  0  0  0  0  0  0  0
    4.2320    1.0000    0.0000 C   0  0  0  0  0  0  0  0  0  0  0  0
   10.2942   13.5000    0.0000 C   0  0  0  0  0  0  0  0  0  0  0  0
    6.1762    4.4174    0.0000 H   0  0  0  0  0  0  0  0  0  0  0  0
    6.5747    5.1077    0.0000 H   0  0  0  0  0  0  0  0  0  0  0  0
    5.7520    6.5826    0.0000 H   0  0  0  0  0  0  0  0  0  0  0  0
    5.3535    5.8923    0.0000 H   0  0  0  0  0  0  0  0  0  0  0  0
    4.0200    4.5826    0.0000 H   0  0  0  0  0  0  0  0  0  0  0  0
    3.6215    3.8923    0.0000 H   0  0  0  0  0  0  0  0  0  0  0  0
    7.0422    5.9174    0.0000 H   0  0  0  0  0  0  0  0  0  0  0  0
    7.4407    6.6077    0.0000 H   0  0  0  0  0  0  0  0  0  0  0  0
    5.1350    5.6760    0.0000 H   0  0  0  0  0  0  0  0  0  0  0  0
    4.2881    5.9030    0.0000 H   0  0  0  0  0  0  0  0  0  0  0  0
    4.0611    5.0560    0.0000 H   0  0  0  0  0  0  0  0  0  0  0  0
    5.0611    3.3240    0.0000 H   0  0  0  0  0  0  0  0  0  0  0  0
    5.9081    3.0970    0.0000 H   0  0  0  0  0  0  0  0  0  0  0  0
    6.1350    3.9440    0.0000 H   0  0  0  0  0  0  0  0  0  0  0  0
    6.6181    8.0826    0.0000 H   0  0  0  0  0  0  0  0  0  0  0  0
    6.2196    7.3923    0.0000 H   0  0  0  0  0  0  0  0  0  0  0  0
    7.9082    7.4174    0.0000 H   0  0  0  0  0  0  0  0  0  0  0  0
    8.3067    8.1077    0.0000 H   0  0  0  0  0  0  0  0  0  0  0  0
    7.4841    9.5826    0.0000 H   0  0  0  0  0  0  0  0  0  0  0  0
    7.0856    8.8923    0.0000 H   0  0  0  0  0  0  0  0  0  0  0  0
    8.7742    8.9174    0.0000 H   0  0  0  0  0  0  0  0  0  0  0  0
    9.1728    9.6077    0.0000 H   0  0  0  0  0  0  0  0  0  0  0  0
    8.3501   11.0826    0.0000 H   0  0  0  0  0  0  0  0  0  0  0  0
    7.9516   10.3923    0.0000 H   0  0  0  0  0  0  0  0  0  0  0  0
    9.6403   10.4174    0.0000 H   0  0  0  0  0  0  0  0  0  0  0  0
   10.0388   11.1077    0.0000 H   0  0  0  0  0  0  0  0  0  0  0  0
    2.8291    2.8100    0.0000 H   0  0  0  0  0  0  0  0  0  0  0  0
    5.6350    2.8100    0.0000 H   0  0  0  0  0  0  0  0  0  0  0  0
    9.2162   12.5826    0.0000 H   0  0  0  0  0  0  0  0  0  0  0  0
    8.8176   11.8923    0.0000 H   0  0  0  0  0  0  0  0  0  0  0  0
   10.5063   11.9174    0.0000 H   0  0  0  0  0  0  0  0  0  0  0  0
   10.9048   12.6077    0.0000 H   0  0  0  0  0  0  0  0  0  0  0  0
    5.6350    1.1900    0.0000 H   0  0  0  0  0  0  0  0  0  0  0  0
   10.9142   13.5000    0.0000 H   0  0  0  0  0  0  0  0  0  0  0  0
   10.2942   14.1200    0.0000 H   0  0  0  0  0  0  0  0  0  0  0  0
    9.6742   13.5000    0.0000 H   0  0  0  0  0  0  0  0  0  0  0  0
  1 22  1  0  0  0  0
  2 24  1  0  0  0  0
  4  5  1  0  0  0  0
  4  7  1  0  0  0  0
  4  9  1  0  0  0  0
  4 10  1  0  0  0  0
  5  6  1  0  0  0  0
  5 26  1  0  0  0  0
  5 27  1  0  0  0  0
  6  8  1  0  0  0  0
  6 28  1  0  0  0  0
  6 29  1  0  0  0  0
  7 14  1  0  0  0  0
  7 30  1  0  0  0  0
  7 31  1  0  0  0  0
  8 11  1  0  0  0  0
  8 32  1  0  0  0  0
  8 33  1  0  0  0  0
  9 34  1  0  0  0  0
  9 35  1  0  0  0  0
  9 36  1  0  0  0  0
 10 37  1  0  0  0  0
 10 38  1  0  0  0  0
 10 39  1  0  0  0  0
 11 12  1  0  0  0  0
 11 40  1  0  0  0  0
 11 41  1  0  0  0  0
 12 13  1  0  0  0  0
 12 42  1  0  0  0  0
 12 43  1  0  0  0  0
 13 15  1  0  0  0  0
 13 44  1  0  0  0  0
 13 45  1  0  0  0  0
 14 18  2  0  0  0  0
 14 19  1  0  0  0  0
 15 16  1  0  0  0  0
 15 46  1  0  0  0  0
 15 47  1  0  0  0  0
 16 17  1  0  0  0  0
 16 48  1  0  0  0  0
 16 49  1  0  0  0  0
 17 20  1  0  0  0  0
 17 50  1  0  0  0  0
 17 51  1  0  0  0  0
 18 22  1  0  0  0  0
 18 52  1  0  0  0  0
 19 23  2  0  0  0  0
 19 53  1  0  0  0  0
 20 21  1  0  0  0  0
 20 54  1  0  0  0  0
 20 55  1  0  0  0  0
 21 25  1  0  0  0  0
 21 56  1  0  0  0  0
 21 57  1  0  0  0  0
 22 24  2  0  0  0  0
 23 24  1  0  0  0  0
 23 58  1  0  0  0  0
 25 59  1  0  0  0  0
 25 60  1  0  0  0  0
 25 61  1  0  0  0  0
M  CHG  2   3  -1   4   1
M  END
> <PUBCHEM_COMPOUND_CID>
7605

> <PUBCHEM_COMPOUND_CANONICALIZED>
1

> <PUBCHEM_CACTVS_COMPLEXITY>
306

> <PUBCHEM_CACTVS_HBOND_ACCEPTOR>
1

> <PUBCHEM_CACTVS_HBOND_DONOR>
0

> <PUBCHEM_CACTVS_ROTATABLE_BOND>
13

> <PUBCHEM_CACTVS_SUBSKEYS>
AAADcfB6AAAGAAAAAAAAAAAAAAAAAAAAAAAwAAAAAAAAAAABAAAAHAIAAAAADALBGCQyAIMAAACAAiBCAACCAAAgBQAIikAIBogIICKBkxGEIAhggACIiAcQgIAOBAAAIAAAAAQIAABAAAAACAAAAAAAAA==

> <PUBCHEM_IUPAC_OPENEYE_NAME>
(3,4-dichlorophenyl)methyl-dodecyl-dimethyl-ammonium chloride

> <PUBCHEM_IUPAC_CAS_NAME>
(3,4-dichlorophenyl)methyl-dodecyl-dimethylammonium chloride

> <PUBCHEM_IUPAC_NAME>
(3,4-dichlorophenyl)methyl-dodecyl-dimethylazanium chloride

> <PUBCHEM_IUPAC_SYSTEMATIC_NAME>
(3,4-dichlorophenyl)methyl-dodecyl-dimethyl-azanium chloride

> <PUBCHEM_IUPAC_TRADITIONAL_NAME>
(3,4-dichlorobenzyl)-lauryl-dimethyl-ammonium chloride

> <PUBCHEM_IUPAC_INCHI>
InChI=1S/C21H36Cl2N.ClH/c1-4-5-6-7-8-9-10-11-12-13-16-24(2,3)18-19-14-15-20(22)21(23)17-19;/h14-15,17H,4-13,16,18H2,1-3H3;1H/q+1;/p-1

> <PUBCHEM_IUPAC_INCHIKEY>
YWMSPYAVKFABPD-UHFFFAOYSA-M

> <PUBCHEM_EXACT_MASS>
407.191333

> <PUBCHEM_MOLECULAR_FORMULA>
C21H36Cl3N

> <PUBCHEM_MOLECULAR_WEIGHT>
408.87624

> <PUBCHEM_OPENEYE_CAN_SMILES>
CCCCCCCCCCCC[N+](C)(C)CC1=CC(=C(C=C1)Cl)Cl.[Cl-]

> <PUBCHEM_OPENEYE_ISO_SMILES>
CCCCCCCCCCCC[N+](C)(C)CC1=CC(=C(C=C1)Cl)Cl.[Cl-]

> <PUBCHEM_CACTVS_TPSA>
0

> <PUBCHEM_MONOISOTOPIC_WEIGHT>
407.191333

> <PUBCHEM_TOTAL_CHARGE>
0

> <PUBCHEM_HEAVY_ATOM_COUNT>
25

> <PUBCHEM_ATOM_DEF_STEREO_COUNT>
0

> <PUBCHEM_ATOM_UDEF_STEREO_COUNT>
0

> <PUBCHEM_BOND_DEF_STEREO_COUNT>
0

> <PUBCHEM_BOND_UDEF_STEREO_COUNT>
0

> <PUBCHEM_ISOTOPIC_ATOM_COUNT>
0

> <PUBCHEM_COMPONENT_COUNT>
2

> <PUBCHEM_CACTVS_TAUTO_COUNT>
1

> <PUBCHEM_COORDINATE_TYPE>
1
5
255

> <PUBCHEM_BONDANNOTATIONS>
14  18  8
14  19  8
18  22  8
19  23  8
22  24  8
23  24  8

$$$$

