47205502
  -OEChem-06241222592D

 33 35  0     1  0  0  0  0  0999 V2000
    8.8590   -1.4060    0.0000 S   0  0  0  0  0  0  0  0  0  0  0  0
    5.3147    1.3988    0.0000 O   0  0  0  0  0  0  0  0  0  0  0  0
    6.1808   -0.1012    0.0000 N   0  0  0  0  0  0  0  0  0  0  0  0
    3.5827    0.3988    0.0000 N   0  0  0  0  0  0  0  0  0  0  0  0
    2.0000    0.7352    0.0000 N   0  0  0  0  0  0  0  0  0  0  0  0
    6.1808   -1.1012    0.0000 C   0  0  0  0  0  0  0  0  0  0  0  0
    7.0468    0.3988    0.0000 C   0  0  0  0  0  0  0  0  0  0  0  0
    7.0468   -1.6012    0.0000 C   0  0  0  0  0  0  0  0  0  0  0  0
    7.9128   -0.1012    0.0000 C   0  0  0  0  0  0  0  0  0  0  0  0
    7.9128   -1.1012    0.0000 C   0  0  0  0  0  0  0  0  0  0  0  0
    4.4487   -0.1012    0.0000 C   0  0  3  0  0  0  0  0  0  0  0  0
    5.3147    0.3988    0.0000 C   0  0  0  0  0  0  0  0  0  0  0  0
    8.8590    0.2035    0.0000 C   0  0  0  0  0  0  0  0  0  0  0  0
    4.4487   -1.1012    0.0000 C   0  0  0  0  0  0  0  0  0  0  0  0
    9.4426   -0.6012    0.0000 C   0  0  0  0  0  0  0  0  0  0  0  0
    3.4782    1.3933    0.0000 C   0  0  0  0  0  0  0  0  0  0  0  0
    2.6691   -0.0080    0.0000 C   0  0  0  0  0  0  0  0  0  0  0  0
    2.5000    1.6012    0.0000 C   0  0  0  0  0  0  0  0  0  0  0  0
    5.5702   -0.9936    0.0000 H   0  0  0  0  0  0  0  0  0  0  0  0
    5.9687   -1.6838    0.0000 H   0  0  0  0  0  0  0  0  0  0  0  0
    7.4453    0.8737    0.0000 H   0  0  0  0  0  0  0  0  0  0  0  0
    6.6482    0.8737    0.0000 H   0  0  0  0  0  0  0  0  0  0  0  0
    6.6482   -2.0762    0.0000 H   0  0  0  0  0  0  0  0  0  0  0  0
    7.4453   -2.0762    0.0000 H   0  0  0  0  0  0  0  0  0  0  0  0
    3.9118   -0.4112    0.0000 H   0  0  0  0  0  0  0  0  0  0  0  0
    9.0516    0.7928    0.0000 H   0  0  0  0  0  0  0  0  0  0  0  0
    3.8287   -1.1012    0.0000 H   0  0  0  0  0  0  0  0  0  0  0  0
    4.4487   -1.7212    0.0000 H   0  0  0  0  0  0  0  0  0  0  0  0
    5.0687   -1.1012    0.0000 H   0  0  0  0  0  0  0  0  0  0  0  0
   10.0626   -0.6012    0.0000 H   0  0  0  0  0  0  0  0  0  0  0  0
    3.9389    1.8082    0.0000 H   0  0  0  0  0  0  0  0  0  0  0  0
    2.5402   -0.6144    0.0000 H   0  0  0  0  0  0  0  0  0  0  0  0
    2.2478    2.1676    0.0000 H   0  0  0  0  0  0  0  0  0  0  0  0
  1 10  1  0  0  0  0
  1 15  1  0  0  0  0
  2 12  2  0  0  0  0
  3  6  1  0  0  0  0
  3  7  1  0  0  0  0
  3 12  1  0  0  0  0
  4 11  1  0  0  0  0
  4 16  1  0  0  0  0
  4 17  1  0  0  0  0
  5 17  2  0  0  0  0
  5 18  1  0  0  0  0
  6  8  1  0  0  0  0
  6 19  1  0  0  0  0
  6 20  1  0  0  0  0
  7  9  1  0  0  0  0
  7 21  1  0  0  0  0
  7 22  1  0  0  0  0
  8 10  1  0  0  0  0
  8 23  1  0  0  0  0
  8 24  1  0  0  0  0
  9 10  2  0  0  0  0
  9 13  1  0  0  0  0
 11 12  1  0  0  0  0
 11 14  1  0  0  0  0
 11 25  1  0  0  0  0
 13 15  2  0  0  0  0
 13 26  1  0  0  0  0
 14 27  1  0  0  0  0
 14 28  1  0  0  0  0
 14 29  1  0  0  0  0
 15 30  1  0  0  0  0
 16 18  2  0  0  0  0
 16 31  1  0  0  0  0
 17 32  1  0  0  0  0
 18 33  1  0  0  0  0
M  END
> <PUBCHEM_COMPOUND_CID>
47205502

> <PUBCHEM_COMPOUND_CANONICALIZED>
1

> <PUBCHEM_CACTVS_COMPLEXITY>
325

> <PUBCHEM_CACTVS_HBOND_ACCEPTOR>
3

> <PUBCHEM_CACTVS_HBOND_DONOR>
0

> <PUBCHEM_CACTVS_ROTATABLE_BOND>
2

> <PUBCHEM_CACTVS_SUBSKEYS>
AAADccBzIABAAAAAAAAAAAAAAAAAAWJAAAAsAAAAAAAAAFgB4AAAHgQAAAAADCjF2gS/kZcMEAisAjF3dACDgK0xGrBJyBmYNIiIaCKgmTGUAAhohgKoiCcQAAAOAAAAAAAAAAAAAAAAAAAAAAAAAAAAAA==

> <PUBCHEM_IUPAC_OPENEYE_NAME>
1-(6,7-dihydro-4H-thieno[3,2-c]pyridin-5-yl)-2-imidazol-1-yl-propan-1-one

> <PUBCHEM_IUPAC_CAS_NAME>
1-(6,7-dihydro-4H-thieno[3,2-c]pyridin-5-yl)-2-(1-imidazolyl)-1-propanone

> <PUBCHEM_IUPAC_NAME>
1-(6,7-dihydro-4H-thieno[3,2-c]pyridin-5-yl)-2-imidazol-1-ylpropan-1-one

> <PUBCHEM_IUPAC_SYSTEMATIC_NAME>
1-(6,7-dihydro-4H-thieno[3,2-c]pyridin-5-yl)-2-imidazol-1-yl-propan-1-one

> <PUBCHEM_IUPAC_TRADITIONAL_NAME>
1-(6,7-dihydro-4H-thieno[3,2-c]pyridin-5-yl)-2-imidazol-1-yl-propan-1-one

> <PUBCHEM_IUPAC_INCHI>
InChI=1S/C13H15N3OS/c1-10(16-6-4-14-9-16)13(17)15-5-2-12-11(8-15)3-7-18-12/h3-4,6-7,9-10H,2,5,8H2,1H3

> <PUBCHEM_IUPAC_INCHIKEY>
LUYZFSAJHBATHN-UHFFFAOYSA-N

> <PUBCHEM_XLOGP3_AA>
1.3

> <PUBCHEM_EXACT_MASS>
261.093583

> <PUBCHEM_MOLECULAR_FORMULA>
C13H15N3OS

> <PUBCHEM_MOLECULAR_WEIGHT>
261.3427

> <PUBCHEM_OPENEYE_CAN_SMILES>
CC(C(=O)N1CCC2=C(C1)C=CS2)N3C=CN=C3

> <PUBCHEM_OPENEYE_ISO_SMILES>
CC(C(=O)N1CCC2=C(C1)C=CS2)N3C=CN=C3

> <PUBCHEM_CACTVS_TPSA>
66.4

> <PUBCHEM_MONOISOTOPIC_WEIGHT>
261.093583

> <PUBCHEM_TOTAL_CHARGE>
0

> <PUBCHEM_HEAVY_ATOM_COUNT>
18

> <PUBCHEM_ATOM_DEF_STEREO_COUNT>
0

> <PUBCHEM_ATOM_UDEF_STEREO_COUNT>
1

> <PUBCHEM_BOND_DEF_STEREO_COUNT>
0

> <PUBCHEM_BOND_UDEF_STEREO_COUNT>
0

> <PUBCHEM_ISOTOPIC_ATOM_COUNT>
0

> <PUBCHEM_COMPONENT_COUNT>
1

> <PUBCHEM_CACTVS_TAUTO_COUNT>
1

> <PUBCHEM_COORDINATE_TYPE>
1
5
255

> <PUBCHEM_BONDANNOTATIONS>
1  10  8
1  15  8
11  14  3
13  15  8
16  18  8
4  16  8
4  17  8
5  17  8
5  18  8
9  10  8
9  13  8

$$$$

