12622
  -OEChem-06261207102D

 28 26  0     0  0  0  0  0  0999 V2000
    2.9945   -0.2500    0.0000 Sn  0  0  0  0  0  0  0  0  0  0  0  0
    3.8605    0.2500    0.0000 Sn  0  0  0  0  0  0  0  0  0  0  0  0
    2.0000   -0.1455    0.0000 C   0  0  0  0  0  0  0  0  0  0  0  0
    2.5878   -1.1635    0.0000 C   0  0  0  0  0  0  0  0  0  0  0  0
    2.7866    0.7281    0.0000 C   0  0  0  0  0  0  0  0  0  0  0  0
    4.8551    0.1455    0.0000 C   0  0  0  0  0  0  0  0  0  0  0  0
    4.2673    1.1635    0.0000 C   0  0  0  0  0  0  0  0  0  0  0  0
    4.0685   -0.7281    0.0000 C   0  0  0  0  0  0  0  0  0  0  0  0
    3.4553   -0.6649    0.0000 H   0  0  0  0  0  0  0  0  0  0  0  0
    3.3998    0.6649    0.0000 H   0  0  0  0  0  0  0  0  0  0  0  0
    1.9352   -0.7621    0.0000 H   0  0  0  0  0  0  0  0  0  0  0  0
    1.3834   -0.0807    0.0000 H   0  0  0  0  0  0  0  0  0  0  0  0
    2.0648    0.4711    0.0000 H   0  0  0  0  0  0  0  0  0  0  0  0
    3.1542   -1.4157    0.0000 H   0  0  0  0  0  0  0  0  0  0  0  0
    2.3356   -1.7299    0.0000 H   0  0  0  0  0  0  0  0  0  0  0  0
    2.0214   -0.9114    0.0000 H   0  0  0  0  0  0  0  0  0  0  0  0
    2.1802    0.5992    0.0000 H   0  0  0  0  0  0  0  0  0  0  0  0
    2.6577    1.3346    0.0000 H   0  0  0  0  0  0  0  0  0  0  0  0
    3.3931    0.8571    0.0000 H   0  0  0  0  0  0  0  0  0  0  0  0
    4.7903   -0.4711    0.0000 H   0  0  0  0  0  0  0  0  0  0  0  0
    5.4717    0.0807    0.0000 H   0  0  0  0  0  0  0  0  0  0  0  0
    4.9199    0.7621    0.0000 H   0  0  0  0  0  0  0  0  0  0  0  0
    3.7009    1.4157    0.0000 H   0  0  0  0  0  0  0  0  0  0  0  0
    4.5195    1.7299    0.0000 H   0  0  0  0  0  0  0  0  0  0  0  0
    4.8337    0.9114    0.0000 H   0  0  0  0  0  0  0  0  0  0  0  0
    4.6749   -0.5992    0.0000 H   0  0  0  0  0  0  0  0  0  0  0  0
    4.1974   -1.3346    0.0000 H   0  0  0  0  0  0  0  0  0  0  0  0
    3.4620   -0.8571    0.0000 H   0  0  0  0  0  0  0  0  0  0  0  0
  1  3  1  0  0  0  0
  1  4  1  0  0  0  0
  1  5  1  0  0  0  0
  1  9  1  0  0  0  0
  2  6  1  0  0  0  0
  2  7  1  0  0  0  0
  2  8  1  0  0  0  0
  2 10  1  0  0  0  0
  3 11  1  0  0  0  0
  3 12  1  0  0  0  0
  3 13  1  0  0  0  0
  4 14  1  0  0  0  0
  4 15  1  0  0  0  0
  4 16  1  0  0  0  0
  5 17  1  0  0  0  0
  5 18  1  0  0  0  0
  5 19  1  0  0  0  0
  6 20  1  0  0  0  0
  6 21  1  0  0  0  0
  6 22  1  0  0  0  0
  7 23  1  0  0  0  0
  7 24  1  0  0  0  0
  7 25  1  0  0  0  0
  8 26  1  0  0  0  0
  8 27  1  0  0  0  0
  8 28  1  0  0  0  0
M  END
> <PUBCHEM_COMPOUND_CID>
12622

> <PUBCHEM_COMPOUND_CANONICALIZED>
1

> <PUBCHEM_CACTVS_COMPLEXITY>
22

> <PUBCHEM_CACTVS_HBOND_ACCEPTOR>
0

> <PUBCHEM_CACTVS_HBOND_DONOR>
0

> <PUBCHEM_CACTVS_ROTATABLE_BOND>
0

> <PUBCHEM_CACTVS_SUBSKEYS>
AAADceBgAAAAAAAAAACAAAAAAAAAAAAAAAAAAAAAAAAAAAAAAAAAEAAAAAAAAAAAAAACAAAAAAAAAAAAAAAAAAAAAAAAAAAAAAAAAAAAAAAAAAAAAAAAAAAAAAAAAAAAAAAAAAAAAAAAAAAAAAAAAAAAAA==

> <PUBCHEM_IUPAC_OPENEYE_NAME>
trimethylstannane

> <PUBCHEM_IUPAC_CAS_NAME>
trimethylstannane

> <PUBCHEM_IUPAC_NAME>
trimethylstannane

> <PUBCHEM_IUPAC_SYSTEMATIC_NAME>
trimethylstannane

> <PUBCHEM_IUPAC_TRADITIONAL_NAME>
trimethylstannane

> <PUBCHEM_IUPAC_INCHI>
InChI=1S/6CH3.2Sn.2H/h6*1H3;;;;

> <PUBCHEM_IUPAC_INCHIKEY>
BPVWXLYMNPJBRC-UHFFFAOYSA-N

> <PUBCHEM_EXACT_MASS>
329.960298

> <PUBCHEM_MOLECULAR_FORMULA>
C6H20Sn2

> <PUBCHEM_MOLECULAR_WEIGHT>
329.643

> <PUBCHEM_OPENEYE_CAN_SMILES>
C[SnH](C)C.C[SnH](C)C

> <PUBCHEM_OPENEYE_ISO_SMILES>
C[SnH](C)C.C[SnH](C)C

> <PUBCHEM_CACTVS_TPSA>
0

> <PUBCHEM_MONOISOTOPIC_WEIGHT>
331.96089

> <PUBCHEM_TOTAL_CHARGE>
0

> <PUBCHEM_HEAVY_ATOM_COUNT>
8

> <PUBCHEM_ATOM_DEF_STEREO_COUNT>
0

> <PUBCHEM_ATOM_UDEF_STEREO_COUNT>
0

> <PUBCHEM_BOND_DEF_STEREO_COUNT>
0

> <PUBCHEM_BOND_UDEF_STEREO_COUNT>
0

> <PUBCHEM_ISOTOPIC_ATOM_COUNT>
0

> <PUBCHEM_COMPONENT_COUNT>
2

> <PUBCHEM_CACTVS_TAUTO_COUNT>
1

> <PUBCHEM_NONSTANDARDBOND>
1  2  6

> <PUBCHEM_COORDINATE_TYPE>
1
5
255

> <PUBCHEM_BONDANNOTATIONS>
1  2  4

$$$$

