51090871
  -OEChem-06241223002D

 48 50  0     0  0  0  0  0  0999 V2000
    4.4487   -1.6307    0.0000 O   0  0  0  0  0  0  0  0  0  0  0  0
    6.1808   -2.6307    0.0000 O   0  0  0  0  0  0  0  0  0  0  0  0
    7.0468   -1.1307    0.0000 N   0  0  0  0  0  0  0  0  0  0  0  0
    9.2788    1.4081    0.0000 N   0  0  0  0  0  0  0  0  0  0  0  0
    7.9698    0.4571    0.0000 N   0  0  0  0  0  0  0  0  0  0  0  0
    9.5878    0.4571    0.0000 N   0  0  0  0  0  0  0  0  0  0  0  0
    3.5827   -1.1307    0.0000 C   0  0  0  0  0  0  0  0  0  0  0  0
    3.4782   -0.1362    0.0000 C   0  0  0  0  0  0  0  0  0  0  0  0
    2.6691   -1.5374    0.0000 C   0  0  0  0  0  0  0  0  0  0  0  0
    2.5000    0.0717    0.0000 C   0  0  0  0  0  0  0  0  0  0  0  0
    2.0000   -0.7943    0.0000 C   0  0  0  0  0  0  0  0  0  0  0  0
    5.3147   -1.1307    0.0000 C   0  0  0  0  0  0  0  0  0  0  0  0
    6.1808   -1.6307    0.0000 C   0  0  0  0  0  0  0  0  0  0  0  0
    7.6910    2.2172    0.0000 C   0  0  0  0  0  0  0  0  0  0  0  0
    7.9128   -1.6307    0.0000 C   0  0  0  0  0  0  0  0  0  0  0  0
    8.7788   -1.1307    0.0000 C   0  0  0  0  0  0  0  0  0  0  0  0
    8.2788    1.4081    0.0000 C   0  0  0  0  0  0  0  0  0  0  0  0
    8.7788   -0.1307    0.0000 C   0  0  0  0  0  0  0  0  0  0  0  0
    8.0978    3.1307    0.0000 C   0  0  0  0  0  0  0  0  0  0  0  0
    6.6965    2.1126    0.0000 C   0  0  0  0  0  0  0  0  0  0  0  0
    7.9128   -2.6307    0.0000 C   0  0  0  0  0  0  0  0  0  0  0  0
    9.6448   -1.6307    0.0000 C   0  0  0  0  0  0  0  0  0  0  0  0
    8.7788   -3.1307    0.0000 C   0  0  0  0  0  0  0  0  0  0  0  0
    9.6448   -2.6307    0.0000 C   0  0  0  0  0  0  0  0  0  0  0  0
    4.1026   -0.7930    0.0000 H   0  0  0  0  0  0  0  0  0  0  0  0
    4.0982   -0.1362    0.0000 H   0  0  0  0  0  0  0  0  0  0  0  0
    3.5430    0.4804    0.0000 H   0  0  0  0  0  0  0  0  0  0  0  0
    2.1675   -1.9019    0.0000 H   0  0  0  0  0  0  0  0  0  0  0  0
    2.9791   -2.0744    0.0000 H   0  0  0  0  0  0  0  0  0  0  0  0
    2.6916    0.6614    0.0000 H   0  0  0  0  0  0  0  0  0  0  0  0
    1.9336    0.3239    0.0000 H   0  0  0  0  0  0  0  0  0  0  0  0
    1.4984   -0.4299    0.0000 H   0  0  0  0  0  0  0  0  0  0  0  0
    1.5851   -1.2550    0.0000 H   0  0  0  0  0  0  0  0  0  0  0  0
    5.7133   -0.6558    0.0000 H   0  0  0  0  0  0  0  0  0  0  0  0
    4.9162   -0.6558    0.0000 H   0  0  0  0  0  0  0  0  0  0  0  0
    7.3266    2.7188    0.0000 H   0  0  0  0  0  0  0  0  0  0  0  0
    7.0468   -0.5107    0.0000 H   0  0  0  0  0  0  0  0  0  0  0  0
    8.6642    2.8785    0.0000 H   0  0  0  0  0  0  0  0  0  0  0  0
    8.3500    3.6971    0.0000 H   0  0  0  0  0  0  0  0  0  0  0  0
    7.5314    3.3829    0.0000 H   0  0  0  0  0  0  0  0  0  0  0  0
    6.6317    2.7292    0.0000 H   0  0  0  0  0  0  0  0  0  0  0  0
    6.0799    2.0478    0.0000 H   0  0  0  0  0  0  0  0  0  0  0  0
    6.7613    1.4960    0.0000 H   0  0  0  0  0  0  0  0  0  0  0  0
    9.6433    1.9097    0.0000 H   0  0  0  0  0  0  0  0  0  0  0  0
    7.3759   -2.9407    0.0000 H   0  0  0  0  0  0  0  0  0  0  0  0
   10.1818   -1.3207    0.0000 H   0  0  0  0  0  0  0  0  0  0  0  0
    8.7788   -3.7507    0.0000 H   0  0  0  0  0  0  0  0  0  0  0  0
   10.1818   -2.9407    0.0000 H   0  0  0  0  0  0  0  0  0  0  0  0
  1  7  1  0  0  0  0
  1 12  1  0  0  0  0
  2 13  2  0  0  0  0
  3 13  1  0  0  0  0
  3 15  1  0  0  0  0
  3 37  1  0  0  0  0
  4  6  1  0  0  0  0
  4 17  1  0  0  0  0
  4 44  1  0  0  0  0
  5 17  2  0  0  0  0
  5 18  1  0  0  0  0
  6 18  2  0  0  0  0
  7  8  1  0  0  0  0
  7  9  1  0  0  0  0
  7 25  1  0  0  0  0
  8 10  1  0  0  0  0
  8 26  1  0  0  0  0
  8 27  1  0  0  0  0
  9 11  1  0  0  0  0
  9 28  1  0  0  0  0
  9 29  1  0  0  0  0
 10 11  1  0  0  0  0
 10 30  1  0  0  0  0
 10 31  1  0  0  0  0
 11 32  1  0  0  0  0
 11 33  1  0  0  0  0
 12 13  1  0  0  0  0
 12 34  1  0  0  0  0
 12 35  1  0  0  0  0
 14 17  1  0  0  0  0
 14 19  1  0  0  0  0
 14 20  1  0  0  0  0
 14 36  1  0  0  0  0
 15 16  1  0  0  0  0
 15 21  2  0  0  0  0
 16 18  1  0  0  0  0
 16 22  2  0  0  0  0
 19 38  1  0  0  0  0
 19 39  1  0  0  0  0
 19 40  1  0  0  0  0
 20 41  1  0  0  0  0
 20 42  1  0  0  0  0
 20 43  1  0  0  0  0
 21 23  1  0  0  0  0
 21 45  1  0  0  0  0
 22 24  1  0  0  0  0
 22 46  1  0  0  0  0
 23 24  2  0  0  0  0
 23 47  1  0  0  0  0
 24 48  1  0  0  0  0
M  END
> <PUBCHEM_COMPOUND_CID>
51090871

> <PUBCHEM_COMPOUND_CANONICALIZED>
1

> <PUBCHEM_CACTVS_COMPLEXITY>
412

> <PUBCHEM_CACTVS_HBOND_ACCEPTOR>
4

> <PUBCHEM_CACTVS_HBOND_DONOR>
2

> <PUBCHEM_CACTVS_ROTATABLE_BOND>
6

> <PUBCHEM_CACTVS_SUBSKEYS>
AAADceB7sAAAAAAAAAAAAAAAAAAAAeIAAAAwAAAAAAAAAAABwAAAHgAYAAAADRyhmwIz0IbrFACqAidydAKSgAuhAqAdqCBwZJiKKKLA2ZWHIAhknALYyAeQgAAOAAAAAAACAAAAAAAAAAQAAAAAAAAAAA==

> <PUBCHEM_IUPAC_OPENEYE_NAME>
2-(cyclopentoxy)-N-[2-(5-isopropyl-1H-1,2,4-triazol-3-yl)phenyl]acetamide

> <PUBCHEM_IUPAC_CAS_NAME>
2-cyclopentyloxy-N-[2-(5-propan-2-yl-1H-1,2,4-triazol-3-yl)phenyl]acetamide

> <PUBCHEM_IUPAC_NAME>
2-cyclopentyloxy-N-[2-(5-propan-2-yl-1H-1,2,4-triazol-3-yl)phenyl]acetamide

> <PUBCHEM_IUPAC_SYSTEMATIC_NAME>
2-cyclopentyloxy-N-[2-(5-propan-2-yl-1H-1,2,4-triazol-3-yl)phenyl]ethanamide

> <PUBCHEM_IUPAC_TRADITIONAL_NAME>
2-(cyclopentoxy)-N-[2-(5-isopropyl-1H-1,2,4-triazol-3-yl)phenyl]acetamide

> <PUBCHEM_IUPAC_INCHI>
InChI=1S/C18H24N4O2/c1-12(2)17-20-18(22-21-17)14-9-5-6-10-15(14)19-16(23)11-24-13-7-3-4-8-13/h5-6,9-10,12-13H,3-4,7-8,11H2,1-2H3,(H,19,23)(H,20,21,22)

> <PUBCHEM_IUPAC_INCHIKEY>
PYZONQJHNBKBGW-UHFFFAOYSA-N

> <PUBCHEM_XLOGP3_AA>
3.1

> <PUBCHEM_EXACT_MASS>
328.189926

> <PUBCHEM_MOLECULAR_FORMULA>
C18H24N4O2

> <PUBCHEM_MOLECULAR_WEIGHT>
328.40876

> <PUBCHEM_OPENEYE_CAN_SMILES>
CC(C)C1=NC(=NN1)C2=CC=CC=C2NC(=O)COC3CCCC3

> <PUBCHEM_OPENEYE_ISO_SMILES>
CC(C)C1=NC(=NN1)C2=CC=CC=C2NC(=O)COC3CCCC3

> <PUBCHEM_CACTVS_TPSA>
79.9

> <PUBCHEM_MONOISOTOPIC_WEIGHT>
328.189926

> <PUBCHEM_TOTAL_CHARGE>
0

> <PUBCHEM_HEAVY_ATOM_COUNT>
24

> <PUBCHEM_ATOM_DEF_STEREO_COUNT>
0

> <PUBCHEM_ATOM_UDEF_STEREO_COUNT>
0

> <PUBCHEM_BOND_DEF_STEREO_COUNT>
0

> <PUBCHEM_BOND_UDEF_STEREO_COUNT>
0

> <PUBCHEM_ISOTOPIC_ATOM_COUNT>
0

> <PUBCHEM_COMPONENT_COUNT>
1

> <PUBCHEM_CACTVS_TAUTO_COUNT>
77

> <PUBCHEM_COORDINATE_TYPE>
1
5
255

> <PUBCHEM_BONDANNOTATIONS>
15  16  8
15  21  8
16  22  8
21  23  8
22  24  8
23  24  8
4  17  8
4  6  8
5  17  8
5  18  8
6  18  8

$$$$

