17395508
  -OEChem-06241222502D

 33 35  0     0  0  0  0  0  0999 V2000
    2.0000   -3.3434    0.0000 Cl  0  0  0  0  0  0  0  0  0  0  0  0
    7.8469    2.5354    0.0000 S   0  0  0  0  0  0  0  0  0  0  0  0
    5.5443   -3.1481    0.0000 O   0  0  0  0  0  0  0  0  0  0  0  0
    7.1279   -2.3434    0.0000 O   0  0  0  0  0  0  0  0  0  0  0  0
    6.4763    1.3129    0.0000 O   0  0  0  0  0  0  0  0  0  0  0  0
    5.5443   -1.5386    0.0000 N   0  0  0  0  0  0  0  0  0  0  0  0
    8.1226    0.7748    0.0000 N   0  0  0  0  0  0  0  0  0  0  0  0
    9.3849    2.0327    0.0000 N   0  0  0  0  0  0  0  0  0  0  0  0
    5.8550   -0.5881    0.0000 C   0  0  0  0  0  0  0  0  0  0  0  0
    4.5981   -1.8434    0.0000 C   0  0  0  0  0  0  0  0  0  0  0  0
    6.8335   -0.3819    0.0000 C   0  0  0  0  0  0  0  0  0  0  0  0
    4.5981   -2.8434    0.0000 C   0  0  0  0  0  0  0  0  0  0  0  0
    6.1279   -2.3434    0.0000 C   0  0  0  0  0  0  0  0  0  0  0  0
    7.1441    0.5686    0.0000 C   0  0  0  0  0  0  0  0  0  0  0  0
    3.7320   -1.3434    0.0000 C   0  0  0  0  0  0  0  0  0  0  0  0
    3.7320   -3.3434    0.0000 C   0  0  0  0  0  0  0  0  0  0  0  0
    8.4333    1.7254    0.0000 C   0  0  0  0  0  0  0  0  0  0  0  0
    8.4361    3.3434    0.0000 C   0  0  0  0  0  0  0  0  0  0  0  0
    9.3866    3.0327    0.0000 C   0  0  0  0  0  0  0  0  0  0  0  0
    2.8660   -1.8434    0.0000 C   0  0  0  0  0  0  0  0  0  0  0  0
    2.8660   -2.8434    0.0000 C   0  0  0  0  0  0  0  0  0  0  0  0
    5.8344    0.0315    0.0000 H   0  0  0  0  0  0  0  0  0  0  0  0
    5.2411   -0.5008    0.0000 H   0  0  0  0  0  0  0  0  0  0  0  0
    6.8540   -1.0016    0.0000 H   0  0  0  0  0  0  0  0  0  0  0  0
    7.4473   -0.4693    0.0000 H   0  0  0  0  0  0  0  0  0  0  0  0
    3.7320   -0.7234    0.0000 H   0  0  0  0  0  0  0  0  0  0  0  0
    3.7320   -3.9634    0.0000 H   0  0  0  0  0  0  0  0  0  0  0  0
    8.5367    0.3134    0.0000 H   0  0  0  0  0  0  0  0  0  0  0  0
    8.6892    3.9093    0.0000 H   0  0  0  0  0  0  0  0  0  0  0  0
    7.8997    3.6543    0.0000 H   0  0  0  0  0  0  0  0  0  0  0  0
   10.0031    2.9668    0.0000 H   0  0  0  0  0  0  0  0  0  0  0  0
    9.5166    3.6390    0.0000 H   0  0  0  0  0  0  0  0  0  0  0  0
    2.3291   -1.5334    0.0000 H   0  0  0  0  0  0  0  0  0  0  0  0
  1 21  1  0  0  0  0
  2 17  1  0  0  0  0
  2 18  1  0  0  0  0
  3 12  1  0  0  0  0
  3 13  1  0  0  0  0
  4 13  2  0  0  0  0
  5 14  2  0  0  0  0
  6  9  1  0  0  0  0
  6 10  1  0  0  0  0
  6 13  1  0  0  0  0
  7 14  1  0  0  0  0
  7 17  1  0  0  0  0
  7 28  1  0  0  0  0
  8 17  2  0  0  0  0
  8 19  1  0  0  0  0
  9 11  1  0  0  0  0
  9 22  1  0  0  0  0
  9 23  1  0  0  0  0
 10 12  2  0  0  0  0
 10 15  1  0  0  0  0
 11 14  1  0  0  0  0
 11 24  1  0  0  0  0
 11 25  1  0  0  0  0
 12 16  1  0  0  0  0
 15 20  2  0  0  0  0
 15 26  1  0  0  0  0
 16 21  2  0  0  0  0
 16 27  1  0  0  0  0
 18 19  1  0  0  0  0
 18 29  1  0  0  0  0
 18 30  1  0  0  0  0
 19 31  1  0  0  0  0
 19 32  1  0  0  0  0
 20 21  1  0  0  0  0
 20 33  1  0  0  0  0
M  END
> <PUBCHEM_COMPOUND_CID>
17395508

> <PUBCHEM_COMPOUND_CANONICALIZED>
1

> <PUBCHEM_CACTVS_COMPLEXITY>
474

> <PUBCHEM_CACTVS_HBOND_ACCEPTOR>
5

> <PUBCHEM_CACTVS_HBOND_DONOR>
1

> <PUBCHEM_CACTVS_ROTATABLE_BOND>
4

> <PUBCHEM_CACTVS_SUBSKEYS>
AAADccBzMABEAAAAAAAAAAAAAAAAAWIAAAAwAAAAAAAAAFgBAAAAHgYQAAAACA7F0CSxzoPABAioACVSfACCGAFhJxAJiAEPbogOJirF+5uNMihk1hHY6AeQQAAAAABAAQAAEAAAAIACAAAgAAAAAAAAAA==

> <PUBCHEM_IUPAC_OPENEYE_NAME>
3-(6-chloro-2-oxo-1,3-benzoxazol-3-yl)-N-(4,5-dihydrothiazol-2-yl)propanamide

> <PUBCHEM_IUPAC_CAS_NAME>
3-(6-chloro-2-oxo-1,3-benzoxazol-3-yl)-N-(4,5-dihydrothiazol-2-yl)propanamide

> <PUBCHEM_IUPAC_NAME>
3-(6-chloro-2-oxo-1,3-benzoxazol-3-yl)-N-(4,5-dihydro-1,3-thiazol-2-yl)propanamide

> <PUBCHEM_IUPAC_SYSTEMATIC_NAME>
3-(6-chloranyl-2-oxidanylidene-1,3-benzoxazol-3-yl)-N-(4,5-dihydro-1,3-thiazol-2-yl)propanamide

> <PUBCHEM_IUPAC_TRADITIONAL_NAME>
3-(6-chloro-2-keto-1,3-benzoxazol-3-yl)-N-(2-thiazolin-2-yl)propionamide

> <PUBCHEM_IUPAC_INCHI>
InChI=1S/C13H12ClN3O3S/c14-8-1-2-9-10(7-8)20-13(19)17(9)5-3-11(18)16-12-15-4-6-21-12/h1-2,7H,3-6H2,(H,15,16,18)

> <PUBCHEM_IUPAC_INCHIKEY>
SCEXSGCWURRWMW-UHFFFAOYSA-N

> <PUBCHEM_XLOGP3_AA>
1.6

> <PUBCHEM_EXACT_MASS>
325.02879

> <PUBCHEM_MOLECULAR_FORMULA>
C13H12ClN3O3S

> <PUBCHEM_MOLECULAR_WEIGHT>
325.77068

> <PUBCHEM_OPENEYE_CAN_SMILES>
C1CSC(=N1)NC(=O)CCN2C3=C(C=C(C=C3)Cl)OC2=O

> <PUBCHEM_OPENEYE_ISO_SMILES>
C1CSC(=N1)NC(=O)CCN2C3=C(C=C(C=C3)Cl)OC2=O

> <PUBCHEM_CACTVS_TPSA>
96.3

> <PUBCHEM_MONOISOTOPIC_WEIGHT>
325.02879

> <PUBCHEM_TOTAL_CHARGE>
0

> <PUBCHEM_HEAVY_ATOM_COUNT>
21

> <PUBCHEM_ATOM_DEF_STEREO_COUNT>
0

> <PUBCHEM_ATOM_UDEF_STEREO_COUNT>
0

> <PUBCHEM_BOND_DEF_STEREO_COUNT>
0

> <PUBCHEM_BOND_UDEF_STEREO_COUNT>
0

> <PUBCHEM_ISOTOPIC_ATOM_COUNT>
0

> <PUBCHEM_COMPONENT_COUNT>
1

> <PUBCHEM_CACTVS_TAUTO_COUNT>
3

> <PUBCHEM_COORDINATE_TYPE>
1
5
255

> <PUBCHEM_BONDANNOTATIONS>
10  12  8
10  15  8
12  16  8
15  20  8
16  21  8
20  21  8
3  12  8
3  13  8
6  10  8
6  13  8

$$$$

