17396350
  -OEChem-06241222562D

 45 46  0     0  0  0  0  0  0999 V2000
    2.8660    0.0000    0.0000 O   0  0  0  0  0  0  0  0  0  0  0  0
    6.3301    1.0000    0.0000 O   0  0  0  0  0  0  0  0  0  0  0  0
    4.5981    0.0000    0.0000 N   0  0  0  0  0  0  0  0  0  0  0  0
    5.4641    2.5000    0.0000 N   0  0  0  0  0  0  0  0  0  0  0  0
    3.7320   -1.5000    0.0000 C   0  0  0  0  0  0  0  0  0  0  0  0
    2.8660   -2.0000    0.0000 C   0  0  0  0  0  0  0  0  0  0  0  0
    4.5981    1.0000    0.0000 C   0  0  0  0  0  0  0  0  0  0  0  0
    3.7320   -0.5000    0.0000 C   0  0  0  0  0  0  0  0  0  0  0  0
    3.7320   -3.5000    0.0000 C   0  0  0  0  0  0  0  0  0  0  0  0
    2.8660   -3.0000    0.0000 C   0  0  0  0  0  0  0  0  0  0  0  0
    4.5981   -2.0000    0.0000 C   0  0  0  0  0  0  0  0  0  0  0  0
    4.5981   -3.0000    0.0000 C   0  0  0  0  0  0  0  0  0  0  0  0
    5.4641    1.5000    0.0000 C   0  0  0  0  0  0  0  0  0  0  0  0
    5.4641   -0.5000    0.0000 C   0  0  0  0  0  0  0  0  0  0  0  0
    2.0000   -1.5000    0.0000 C   0  0  0  0  0  0  0  0  0  0  0  0
    6.3301    3.0000    0.0000 C   0  0  0  0  0  0  0  0  0  0  0  0
    3.7320   -4.5000    0.0000 C   0  0  0  0  0  0  0  0  0  0  0  0
    7.1962    2.5000    0.0000 C   0  0  0  0  0  0  0  0  0  0  0  0
    6.3301    4.0000    0.0000 C   0  0  0  0  0  0  0  0  0  0  0  0
    8.0622    4.0000    0.0000 C   0  0  0  0  0  0  0  0  0  0  0  0
    8.0622    3.0000    0.0000 C   0  0  0  0  0  0  0  0  0  0  0  0
    7.1962    4.5000    0.0000 C   0  0  0  0  0  0  0  0  0  0  0  0
    8.9282    4.5000    0.0000 C   0  0  0  0  0  0  0  0  0  0  0  0
    4.3860    1.5826    0.0000 H   0  0  0  0  0  0  0  0  0  0  0  0
    3.9875    0.8923    0.0000 H   0  0  0  0  0  0  0  0  0  0  0  0
    2.3291   -3.3100    0.0000 H   0  0  0  0  0  0  0  0  0  0  0  0
    5.1350   -1.6900    0.0000 H   0  0  0  0  0  0  0  0  0  0  0  0
    5.1350   -3.3100    0.0000 H   0  0  0  0  0  0  0  0  0  0  0  0
    5.1541   -1.0369    0.0000 H   0  0  0  0  0  0  0  0  0  0  0  0
    6.0010   -0.8100    0.0000 H   0  0  0  0  0  0  0  0  0  0  0  0
    5.7741    0.0369    0.0000 H   0  0  0  0  0  0  0  0  0  0  0  0
    2.3100   -0.9631    0.0000 H   0  0  0  0  0  0  0  0  0  0  0  0
    1.4631   -1.1900    0.0000 H   0  0  0  0  0  0  0  0  0  0  0  0
    1.6900   -2.0369    0.0000 H   0  0  0  0  0  0  0  0  0  0  0  0
    4.9272    2.8100    0.0000 H   0  0  0  0  0  0  0  0  0  0  0  0
    3.1120   -4.5000    0.0000 H   0  0  0  0  0  0  0  0  0  0  0  0
    3.7320   -5.1200    0.0000 H   0  0  0  0  0  0  0  0  0  0  0  0
    4.3520   -4.5000    0.0000 H   0  0  0  0  0  0  0  0  0  0  0  0
    7.1962    1.8800    0.0000 H   0  0  0  0  0  0  0  0  0  0  0  0
    5.7932    4.3100    0.0000 H   0  0  0  0  0  0  0  0  0  0  0  0
    8.5991    2.6900    0.0000 H   0  0  0  0  0  0  0  0  0  0  0  0
    7.1962    5.1200    0.0000 H   0  0  0  0  0  0  0  0  0  0  0  0
    9.2382    3.9631    0.0000 H   0  0  0  0  0  0  0  0  0  0  0  0
    9.4651    4.8100    0.0000 H   0  0  0  0  0  0  0  0  0  0  0  0
    8.6182    5.0369    0.0000 H   0  0  0  0  0  0  0  0  0  0  0  0
  1  8  2  0  0  0  0
  2 13  2  0  0  0  0
  3  7  1  0  0  0  0
  3  8  1  0  0  0  0
  3 14  1  0  0  0  0
  4 13  1  0  0  0  0
  4 16  1  0  0  0  0
  4 35  1  0  0  0  0
  5  6  2  0  0  0  0
  5  8  1  0  0  0  0
  5 11  1  0  0  0  0
  6 10  1  0  0  0  0
  6 15  1  0  0  0  0
  7 13  1  0  0  0  0
  7 24  1  0  0  0  0
  7 25  1  0  0  0  0
  9 10  2  0  0  0  0
  9 12  1  0  0  0  0
  9 17  1  0  0  0  0
 10 26  1  0  0  0  0
 11 12  2  0  0  0  0
 11 27  1  0  0  0  0
 12 28  1  0  0  0  0
 14 29  1  0  0  0  0
 14 30  1  0  0  0  0
 14 31  1  0  0  0  0
 15 32  1  0  0  0  0
 15 33  1  0  0  0  0
 15 34  1  0  0  0  0
 16 18  2  0  0  0  0
 16 19  1  0  0  0  0
 17 36  1  0  0  0  0
 17 37  1  0  0  0  0
 17 38  1  0  0  0  0
 18 21  1  0  0  0  0
 18 39  1  0  0  0  0
 19 22  2  0  0  0  0
 19 40  1  0  0  0  0
 20 21  2  0  0  0  0
 20 22  1  0  0  0  0
 20 23  1  0  0  0  0
 21 41  1  0  0  0  0
 22 42  1  0  0  0  0
 23 43  1  0  0  0  0
 23 44  1  0  0  0  0
 23 45  1  0  0  0  0
M  END
> <PUBCHEM_COMPOUND_CID>
17396350

> <PUBCHEM_COMPOUND_CANONICALIZED>
1

> <PUBCHEM_CACTVS_COMPLEXITY>
416

> <PUBCHEM_CACTVS_HBOND_ACCEPTOR>
2

> <PUBCHEM_CACTVS_HBOND_DONOR>
1

> <PUBCHEM_CACTVS_ROTATABLE_BOND>
4

> <PUBCHEM_CACTVS_SUBSKEYS>
AAADceB7MAAAAAAAAAAAAAAAAAAAAAAAAAAwYAAAAAAAAAABQAAAHgAQAAAADAjBmAQywIPAAACIAiVSUACCAAAlAgAIiAGIZMgIYDLAlbGUIQhglgDIyYcYiMCOyAACAAAQAACQAAQAACAAAAAAAAAAAA==

> <PUBCHEM_IUPAC_OPENEYE_NAME>
N,2,4-trimethyl-N-[2-(4-methylanilino)-2-oxo-ethyl]benzamide

> <PUBCHEM_IUPAC_CAS_NAME>
N,2,4-trimethyl-N-[2-(4-methylanilino)-2-oxoethyl]benzamide

> <PUBCHEM_IUPAC_NAME>
N,2,4-trimethyl-N-[2-(4-methylanilino)-2-oxoethyl]benzamide

> <PUBCHEM_IUPAC_SYSTEMATIC_NAME>
N,2,4-trimethyl-N-[2-[(4-methylphenyl)amino]-2-oxidanylidene-ethyl]benzamide

> <PUBCHEM_IUPAC_TRADITIONAL_NAME>
N-[2-keto-2-(p-toluidino)ethyl]-N,2,4-trimethyl-benzamide

> <PUBCHEM_IUPAC_INCHI>
InChI=1S/C19H22N2O2/c1-13-5-8-16(9-6-13)20-18(22)12-21(4)19(23)17-10-7-14(2)11-15(17)3/h5-11H,12H2,1-4H3,(H,20,22)

> <PUBCHEM_IUPAC_INCHIKEY>
ZGWAZOCKTIGMJO-UHFFFAOYSA-N

> <PUBCHEM_XLOGP3_AA>
3.4

> <PUBCHEM_EXACT_MASS>
310.168128

> <PUBCHEM_MOLECULAR_FORMULA>
C19H22N2O2

> <PUBCHEM_MOLECULAR_WEIGHT>
310.39018

> <PUBCHEM_OPENEYE_CAN_SMILES>
CC1=CC=C(C=C1)NC(=O)CN(C)C(=O)C2=C(C=C(C=C2)C)C

> <PUBCHEM_OPENEYE_ISO_SMILES>
CC1=CC=C(C=C1)NC(=O)CN(C)C(=O)C2=C(C=C(C=C2)C)C

> <PUBCHEM_CACTVS_TPSA>
49.4

> <PUBCHEM_MONOISOTOPIC_WEIGHT>
310.168128

> <PUBCHEM_TOTAL_CHARGE>
0

> <PUBCHEM_HEAVY_ATOM_COUNT>
23

> <PUBCHEM_ATOM_DEF_STEREO_COUNT>
0

> <PUBCHEM_ATOM_UDEF_STEREO_COUNT>
0

> <PUBCHEM_BOND_DEF_STEREO_COUNT>
0

> <PUBCHEM_BOND_UDEF_STEREO_COUNT>
0

> <PUBCHEM_ISOTOPIC_ATOM_COUNT>
0

> <PUBCHEM_COMPONENT_COUNT>
1

> <PUBCHEM_CACTVS_TAUTO_COUNT>
9

> <PUBCHEM_COORDINATE_TYPE>
1
5
255

> <PUBCHEM_BONDANNOTATIONS>
11  12  8
16  18  8
16  19  8
18  21  8
19  22  8
20  21  8
20  22  8
5  11  8
5  6  8
6  10  8
9  10  8
9  12  8

$$$$

