586287
  -OEChem-06241222462D

 32 34  0     0  0  0  0  0  0999 V2000
    2.0000   -2.8357    0.0000 S   0  0  0  0  0  0  0  0  0  0  0  0
    4.5411    0.7521    0.0000 O   0  0  0  0  0  0  0  0  0  0  0  0
    2.8090    0.7521    0.0000 O   0  0  0  0  0  0  0  0  0  0  0  0
    5.4071    2.2521    0.0000 C   0  0  0  0  0  0  0  0  0  0  0  0
    5.4071    3.2521    0.0000 C   0  0  0  0  0  0  0  0  0  0  0  0
    4.5411    1.7521    0.0000 C   0  0  0  0  0  0  0  0  0  0  0  0
    4.5411    3.7521    0.0000 C   0  0  0  0  0  0  0  0  0  0  0  0
    6.3010    1.7174    0.0000 C   0  0  0  0  0  0  0  0  0  0  0  0
    6.3010    3.7868    0.0000 C   0  0  0  0  0  0  0  0  0  0  0  0
    3.6750    2.2521    0.0000 C   0  0  0  0  0  0  0  0  0  0  0  0
    3.6750    3.2521    0.0000 C   0  0  0  0  0  0  0  0  0  0  0  0
    7.2071    2.2313    0.0000 C   0  0  0  0  0  0  0  0  0  0  0  0
    7.2071    3.2729    0.0000 C   0  0  0  0  0  0  0  0  0  0  0  0
    3.6750    0.2521    0.0000 C   0  0  0  0  0  0  0  0  0  0  0  0
    2.8090   -2.2479    0.0000 C   0  0  0  0  0  0  0  0  0  0  0  0
    3.6750   -0.7479    0.0000 C   0  0  0  0  0  0  0  0  0  0  0  0
    2.8090   -1.2479    0.0000 C   0  0  0  0  0  0  0  0  0  0  0  0
    3.6180   -2.8357    0.0000 C   0  0  0  0  0  0  0  0  0  0  0  0
    3.3090   -3.7868    0.0000 C   0  0  0  0  0  0  0  0  0  0  0  0
    2.3090   -3.7868    0.0000 C   0  0  0  0  0  0  0  0  0  0  0  0
    4.5411    4.3721    0.0000 H   0  0  0  0  0  0  0  0  0  0  0  0
    6.2939    1.0975    0.0000 H   0  0  0  0  0  0  0  0  0  0  0  0
    6.2939    4.4067    0.0000 H   0  0  0  0  0  0  0  0  0  0  0  0
    3.1381    1.9421    0.0000 H   0  0  0  0  0  0  0  0  0  0  0  0
    3.1381    3.5621    0.0000 H   0  0  0  0  0  0  0  0  0  0  0  0
    7.7428    1.9192    0.0000 H   0  0  0  0  0  0  0  0  0  0  0  0
    7.7428    3.5850    0.0000 H   0  0  0  0  0  0  0  0  0  0  0  0
    2.2721   -0.9379    0.0000 H   0  0  0  0  0  0  0  0  0  0  0  0
    4.2120   -1.0579    0.0000 H   0  0  0  0  0  0  0  0  0  0  0  0
    4.2077   -2.6441    0.0000 H   0  0  0  0  0  0  0  0  0  0  0  0
    3.6734   -4.2883    0.0000 H   0  0  0  0  0  0  0  0  0  0  0  0
    1.9446   -4.2883    0.0000 H   0  0  0  0  0  0  0  0  0  0  0  0
  1 15  1  0  0  0  0
  1 20  1  0  0  0  0
  2  6  1  0  0  0  0
  2 14  1  0  0  0  0
  3 14  2  0  0  0  0
  4  5  1  0  0  0  0
  4  6  1  0  0  0  0
  4  8  2  0  0  0  0
  5  7  1  0  0  0  0
  5  9  2  0  0  0  0
  6 10  2  0  0  0  0
  7 11  2  0  0  0  0
  7 21  1  0  0  0  0
  8 12  1  0  0  0  0
  8 22  1  0  0  0  0
  9 13  1  0  0  0  0
  9 23  1  0  0  0  0
 10 11  1  0  0  0  0
 10 24  1  0  0  0  0
 11 25  1  0  0  0  0
 12 13  2  0  0  0  0
 12 26  1  0  0  0  0
 13 27  1  0  0  0  0
 14 16  1  0  0  0  0
 15 17  1  0  0  0  0
 15 18  2  0  0  0  0
 16 17  2  3  0  0  0
 16 29  1  0  0  0  0
 17 28  1  0  0  0  0
 18 19  1  0  0  0  0
 18 30  1  0  0  0  0
 19 20  2  0  0  0  0
 19 31  1  0  0  0  0
 20 32  1  0  0  0  0
M  END
> <PUBCHEM_COMPOUND_CID>
586287

> <PUBCHEM_COMPOUND_CANONICALIZED>
1

> <PUBCHEM_CACTVS_COMPLEXITY>
366

> <PUBCHEM_CACTVS_HBOND_ACCEPTOR>
3

> <PUBCHEM_CACTVS_HBOND_DONOR>
0

> <PUBCHEM_CACTVS_ROTATABLE_BOND>
4

> <PUBCHEM_CACTVS_SUBSKEYS>
AAADccB4MABAAAAAAAAAAAAAAAAAASAAAAAwYAAAAAAAAADB1AAAGgQAAAAADASE2ACwD8AABAiMAiDSCAADCIAgKBBIiBgGCMgMJiKkMRqCOiCkwBEoqYeAwLAOgAABAAAYAAAAAAIAADAAAAAAAAAAAA==

> <PUBCHEM_IUPAC_OPENEYE_NAME>
1-naphthyl 3-(2-thienyl)prop-2-enoate

> <PUBCHEM_IUPAC_CAS_NAME>
3-thiophen-2-yl-2-propenoic acid 1-naphthalenyl ester

> <PUBCHEM_IUPAC_NAME>
naphthalen-1-yl 3-thiophen-2-ylprop-2-enoate

> <PUBCHEM_IUPAC_SYSTEMATIC_NAME>
naphthalen-1-yl 3-thiophen-2-ylprop-2-enoate

> <PUBCHEM_IUPAC_TRADITIONAL_NAME>
3-(2-thienyl)acrylic acid 1-naphthyl ester

> <PUBCHEM_IUPAC_INCHI>
InChI=1S/C17H12O2S/c18-17(11-10-14-7-4-12-20-14)19-16-9-3-6-13-5-1-2-8-15(13)16/h1-12H

> <PUBCHEM_IUPAC_INCHIKEY>
GRLRKIRXODEUKV-UHFFFAOYSA-N

> <PUBCHEM_XLOGP3>
4.6

> <PUBCHEM_EXACT_MASS>
280.055801

> <PUBCHEM_MOLECULAR_FORMULA>
C17H12O2S

> <PUBCHEM_MOLECULAR_WEIGHT>
280.34098

> <PUBCHEM_OPENEYE_CAN_SMILES>
C1=CC=C2C(=C1)C=CC=C2OC(=O)C=CC3=CC=CS3

> <PUBCHEM_OPENEYE_ISO_SMILES>
C1=CC=C2C(=C1)C=CC=C2OC(=O)C=CC3=CC=CS3

> <PUBCHEM_CACTVS_TPSA>
54.5

> <PUBCHEM_MONOISOTOPIC_WEIGHT>
280.055801

> <PUBCHEM_TOTAL_CHARGE>
0

> <PUBCHEM_HEAVY_ATOM_COUNT>
20

> <PUBCHEM_ATOM_DEF_STEREO_COUNT>
0

> <PUBCHEM_ATOM_UDEF_STEREO_COUNT>
0

> <PUBCHEM_BOND_DEF_STEREO_COUNT>
0

> <PUBCHEM_BOND_UDEF_STEREO_COUNT>
1

> <PUBCHEM_ISOTOPIC_ATOM_COUNT>
0

> <PUBCHEM_COMPONENT_COUNT>
1

> <PUBCHEM_CACTVS_TAUTO_COUNT>
1

> <PUBCHEM_COORDINATE_TYPE>
1
5
255

> <PUBCHEM_BONDANNOTATIONS>
1  15  8
1  20  8
10  11  8
12  13  8
15  18  8
16  17  1
18  19  8
19  20  8
4  5  8
4  6  8
4  8  8
5  7  8
5  9  8
6  10  8
7  11  8
8  12  8
9  13  8

$$$$

