13704
  -OEChem-06241222402D

 23 23  0     0  0  0  0  0  0999 V2000
    2.0000   -1.5670    0.0000 Cl  0  0  0  0  0  0  0  0  0  0  0  0
    2.3660   -0.2010    0.0000 Cl  0  0  0  0  0  0  0  0  0  0  0  0
    3.3660   -1.9330    0.0000 Cl  0  0  0  0  0  0  0  0  0  0  0  0
    6.3301   -1.0670    0.0000 O   0  0  0  0  0  0  0  0  0  0  0  0
    3.7320    0.4330    0.0000 N   0  0  0  0  0  0  0  0  0  0  0  0
    4.5981   -1.0670    0.0000 N   0  0  0  0  0  0  0  0  0  0  0  0
    5.4641    0.4330    0.0000 N   0  0  0  0  0  0  0  0  0  0  0  0
    3.7320   -0.5670    0.0000 C   0  0  0  0  0  0  0  0  0  0  0  0
    4.5981    0.9330    0.0000 C   0  0  0  0  0  0  0  0  0  0  0  0
    5.4641   -0.5670    0.0000 C   0  0  0  0  0  0  0  0  0  0  0  0
    2.8660   -1.0670    0.0000 C   0  0  0  0  0  0  0  0  0  0  0  0
    4.5981    1.9330    0.0000 C   0  0  0  0  0  0  0  0  0  0  0  0
    7.1962   -0.5670    0.0000 C   0  0  0  0  0  0  0  0  0  0  0  0
    8.0622   -1.0670    0.0000 C   0  0  0  0  0  0  0  0  0  0  0  0
    8.9282   -0.5670    0.0000 C   0  0  0  0  0  0  0  0  0  0  0  0
    5.2181    1.9330    0.0000 H   0  0  0  0  0  0  0  0  0  0  0  0
    4.5981    2.5530    0.0000 H   0  0  0  0  0  0  0  0  0  0  0  0
    3.9781    1.9330    0.0000 H   0  0  0  0  0  0  0  0  0  0  0  0
    7.5947   -0.0920    0.0000 H   0  0  0  0  0  0  0  0  0  0  0  0
    6.7976   -0.0920    0.0000 H   0  0  0  0  0  0  0  0  0  0  0  0
    8.0622   -1.6870    0.0000 H   0  0  0  0  0  0  0  0  0  0  0  0
    9.4651   -0.8770    0.0000 H   0  0  0  0  0  0  0  0  0  0  0  0
    8.9282    0.0530    0.0000 H   0  0  0  0  0  0  0  0  0  0  0  0
  1 11  1  0  0  0  0
  2 11  1  0  0  0  0
  3 11  1  0  0  0  0
  4 10  1  0  0  0  0
  4 13  1  0  0  0  0
  5  8  1  0  0  0  0
  5  9  2  0  0  0  0
  6  8  2  0  0  0  0
  6 10  1  0  0  0  0
  7  9  1  0  0  0  0
  7 10  2  0  0  0  0
  8 11  1  0  0  0  0
  9 12  1  0  0  0  0
 12 16  1  0  0  0  0
 12 17  1  0  0  0  0
 12 18  1  0  0  0  0
 13 14  1  0  0  0  0
 13 19  1  0  0  0  0
 13 20  1  0  0  0  0
 14 15  2  0  0  0  0
 14 21  1  0  0  0  0
 15 22  1  0  0  0  0
 15 23  1  0  0  0  0
M  END
> <PUBCHEM_COMPOUND_CID>
13704

> <PUBCHEM_COMPOUND_CANONICALIZED>
1

> <PUBCHEM_CACTVS_COMPLEXITY>
222

> <PUBCHEM_CACTVS_HBOND_ACCEPTOR>
4

> <PUBCHEM_CACTVS_HBOND_DONOR>
0

> <PUBCHEM_CACTVS_ROTATABLE_BOND>
3

> <PUBCHEM_CACTVS_SUBSKEYS>
AAADccBzIAAGAAAAAAAAAAAAAAAAAAAAAAAsAAAAAAAAAAABgAAAHgIAAAAACAKhg4IDEAYIFACgACJiJAAAgAkAAKAJAAAQAACADAAAKQBIAAAIAAKAIAAAAAAAAAAAAAAAAAAAAAAAAAAAAAAAAAAAAA==

> <PUBCHEM_IUPAC_OPENEYE_NAME>
2-allyloxy-4-methyl-6-(trichloromethyl)-1,3,5-triazine

> <PUBCHEM_IUPAC_CAS_NAME>
2-methyl-4-prop-2-enoxy-6-(trichloromethyl)-1,3,5-triazine

> <PUBCHEM_IUPAC_NAME>
2-methyl-4-prop-2-enoxy-6-(trichloromethyl)-1,3,5-triazine

> <PUBCHEM_IUPAC_SYSTEMATIC_NAME>
2-methyl-4-prop-2-enoxy-6-(trichloromethyl)-1,3,5-triazine

> <PUBCHEM_IUPAC_TRADITIONAL_NAME>
2-allyloxy-4-methyl-6-(trichloromethyl)-s-triazine

> <PUBCHEM_IUPAC_INCHI>
InChI=1S/C8H8Cl3N3O/c1-3-4-15-7-13-5(2)12-6(14-7)8(9,10)11/h3H,1,4H2,2H3

> <PUBCHEM_IUPAC_INCHIKEY>
AGYIHXFXJNFDKH-UHFFFAOYSA-N

> <PUBCHEM_XLOGP3_AA>
3

> <PUBCHEM_EXACT_MASS>
266.973295

> <PUBCHEM_MOLECULAR_FORMULA>
C8H8Cl3N3O

> <PUBCHEM_MOLECULAR_WEIGHT>
268.52762

> <PUBCHEM_OPENEYE_CAN_SMILES>
CC1=NC(=NC(=N1)OCC=C)C(Cl)(Cl)Cl

> <PUBCHEM_OPENEYE_ISO_SMILES>
CC1=NC(=NC(=N1)OCC=C)C(Cl)(Cl)Cl

> <PUBCHEM_CACTVS_TPSA>
47.9

> <PUBCHEM_MONOISOTOPIC_WEIGHT>
266.973295

> <PUBCHEM_TOTAL_CHARGE>
0

> <PUBCHEM_HEAVY_ATOM_COUNT>
15

> <PUBCHEM_ATOM_DEF_STEREO_COUNT>
0

> <PUBCHEM_ATOM_UDEF_STEREO_COUNT>
0

> <PUBCHEM_BOND_DEF_STEREO_COUNT>
0

> <PUBCHEM_BOND_UDEF_STEREO_COUNT>
0

> <PUBCHEM_ISOTOPIC_ATOM_COUNT>
0

> <PUBCHEM_COMPONENT_COUNT>
1

> <PUBCHEM_CACTVS_TAUTO_COUNT>
1

> <PUBCHEM_COORDINATE_TYPE>
1
5
255

> <PUBCHEM_BONDANNOTATIONS>
5  8  8
5  9  8
6  10  8
6  8  8
7  10  8
7  9  8

$$$$

