11382
  -OEChem-06261205362D

 34 35  0     0  0  0  0  0  0999 V2000
    4.5981    5.0000    0.0000 O   0  0  0  0  0  0  0  0  0  0  0  0
    2.8660   -5.0000    0.0000 O   0  0  0  0  0  0  0  0  0  0  0  0
    2.8660    1.0000    0.0000 N   0  3  0  0  0  0  0  0  0  0  0  0
    4.5981   -1.0000    0.0000 N   0  3  0  0  0  0  0  0  0  0  0  0
    2.8660   -2.0000    0.0000 C   0  0  0  0  0  0  0  0  0  0  0  0
    4.5981    2.0000    0.0000 C   0  0  0  0  0  0  0  0  0  0  0  0
    2.8660   -1.0000    0.0000 C   0  0  0  0  0  0  0  0  0  0  0  0
    4.5981    1.0000    0.0000 C   0  0  0  0  0  0  0  0  0  0  0  0
    3.7320   -0.5000    0.0000 C   0  0  0  0  0  0  0  0  0  0  0  0
    3.7320    0.5000    0.0000 C   0  0  0  0  0  0  0  0  0  0  0  0
    5.4641    2.5000    0.0000 C   0  0  0  0  0  0  0  0  0  0  0  0
    2.0000   -2.5000    0.0000 C   0  0  0  0  0  0  0  0  0  0  0  0
    3.7320    2.5000    0.0000 C   0  0  0  0  0  0  0  0  0  0  0  0
    3.7320   -2.5000    0.0000 C   0  0  0  0  0  0  0  0  0  0  0  0
    2.0000   -3.5000    0.0000 C   0  0  0  0  0  0  0  0  0  0  0  0
    5.4641    3.5000    0.0000 C   0  0  0  0  0  0  0  0  0  0  0  0
    3.7320   -3.5000    0.0000 C   0  0  0  0  0  0  0  0  0  0  0  0
    3.7320    3.5000    0.0000 C   0  0  0  0  0  0  0  0  0  0  0  0
    2.8660   -4.0000    0.0000 C   0  0  0  0  0  0  0  0  0  0  0  0
    4.5981    4.0000    0.0000 C   0  0  0  0  0  0  0  0  0  0  0  0
    2.0000    1.5000    0.0000 C   0  5  0  0  0  0  0  0  0  0  0  0
    5.4641   -1.5000    0.0000 C   0  5  0  0  0  0  0  0  0  0  0  0
    2.3291   -0.6900    0.0000 H   0  0  0  0  0  0  0  0  0  0  0  0
    5.1350    0.6900    0.0000 H   0  0  0  0  0  0  0  0  0  0  0  0
    1.4631   -2.1900    0.0000 H   0  0  0  0  0  0  0  0  0  0  0  0
    6.0010    2.1900    0.0000 H   0  0  0  0  0  0  0  0  0  0  0  0
    4.2690   -2.1900    0.0000 H   0  0  0  0  0  0  0  0  0  0  0  0
    3.1951    2.1900    0.0000 H   0  0  0  0  0  0  0  0  0  0  0  0
    1.4631   -3.8100    0.0000 H   0  0  0  0  0  0  0  0  0  0  0  0
    6.0010    3.8100    0.0000 H   0  0  0  0  0  0  0  0  0  0  0  0
    4.2690   -3.8100    0.0000 H   0  0  0  0  0  0  0  0  0  0  0  0
    3.1951    3.8100    0.0000 H   0  0  0  0  0  0  0  0  0  0  0  0
    2.3291   -5.3100    0.0000 H   0  0  0  0  0  0  0  0  0  0  0  0
    5.1350    5.3100    0.0000 H   0  0  0  0  0  0  0  0  0  0  0  0
  1 20  1  0  0  0  0
  1 34  1  0  0  0  0
  2 19  1  0  0  0  0
  2 33  1  0  0  0  0
  3 10  1  0  0  0  0
  3 21  3  0  0  0  0
  4  9  1  0  0  0  0
  4 22  3  0  0  0  0
  5  7  1  0  0  0  0
  5 12  2  0  0  0  0
  5 14  1  0  0  0  0
  6  8  1  0  0  0  0
  6 11  2  0  0  0  0
  6 13  1  0  0  0  0
  7  9  2  3  0  0  0
  7 23  1  0  0  0  0
  8 10  2  3  0  0  0
  8 24  1  0  0  0  0
  9 10  1  0  0  0  0
 11 16  1  0  0  0  0
 11 26  1  0  0  0  0
 12 15  1  0  0  0  0
 12 25  1  0  0  0  0
 13 18  2  0  0  0  0
 13 28  1  0  0  0  0
 14 17  2  0  0  0  0
 14 27  1  0  0  0  0
 15 19  2  0  0  0  0
 15 29  1  0  0  0  0
 16 20  2  0  0  0  0
 16 30  1  0  0  0  0
 17 19  1  0  0  0  0
 17 31  1  0  0  0  0
 18 20  1  0  0  0  0
 18 32  1  0  0  0  0
M  CHG  4   3   1   4   1  21  -1  22  -1
M  END
> <PUBCHEM_COMPOUND_CID>
11382

> <PUBCHEM_COMPOUND_CANONICALIZED>
1

> <PUBCHEM_CACTVS_COMPLEXITY>
480

> <PUBCHEM_CACTVS_HBOND_ACCEPTOR>
4

> <PUBCHEM_CACTVS_HBOND_DONOR>
2

> <PUBCHEM_CACTVS_ROTATABLE_BOND>
3

> <PUBCHEM_CACTVS_SUBSKEYS>
AAADccB7MAAAAAAAAAAAAAAAAAAAAAAAAAAwYAAAAAAAAAABQAAAHgAACAAADAyBmAAwBoIAAgCQAiRCQACCAAAgIgAIiAAGCIgIZiKCERKAcAAkwBEImAeAwAAOIAAAAAAAAABAAAAAAAAAAAAAAAAAAA==

> <PUBCHEM_IUPAC_OPENEYE_NAME>
4-[4-(4-hydroxyphenyl)-2,3-diisocyano-buta-1,3-dienyl]phenol

> <PUBCHEM_IUPAC_CAS_NAME>
4-[4-(4-hydroxyphenyl)-2,3-diisocyanobuta-1,3-dienyl]phenol

> <PUBCHEM_IUPAC_NAME>
4-[4-(4-hydroxyphenyl)-2,3-diisocyanobuta-1,3-dienyl]phenol

> <PUBCHEM_IUPAC_SYSTEMATIC_NAME>
4-[4-(4-hydroxyphenyl)-2,3-diisocyano-buta-1,3-dienyl]phenol

> <PUBCHEM_IUPAC_TRADITIONAL_NAME>
4-[4-(4-hydroxyphenyl)-2,3-diisocyano-buta-1,3-dienyl]phenol

> <PUBCHEM_IUPAC_INCHI>
InChI=1S/C18H12N2O2/c1-19-17(11-13-3-7-15(21)8-4-13)18(20-2)12-14-5-9-16(22)10-6-14/h3-12,21-22H

> <PUBCHEM_IUPAC_INCHIKEY>
YBMVKDUTYAGKEW-UHFFFAOYSA-N

> <PUBCHEM_XLOGP3_AA>
3.1

> <PUBCHEM_EXACT_MASS>
288.089878

> <PUBCHEM_MOLECULAR_FORMULA>
C18H12N2O2

> <PUBCHEM_MOLECULAR_WEIGHT>
288.30008

> <PUBCHEM_OPENEYE_CAN_SMILES>
[C-]#[N+]C(=CC1=CC=C(C=C1)O)C(=CC2=CC=C(C=C2)O)[N+]#[C-]

> <PUBCHEM_OPENEYE_ISO_SMILES>
[C-]#[N+]C(=CC1=CC=C(C=C1)O)C(=CC2=CC=C(C=C2)O)[N+]#[C-]

> <PUBCHEM_CACTVS_TPSA>
49.2

> <PUBCHEM_MONOISOTOPIC_WEIGHT>
288.089878

> <PUBCHEM_TOTAL_CHARGE>
0

> <PUBCHEM_HEAVY_ATOM_COUNT>
22

> <PUBCHEM_ATOM_DEF_STEREO_COUNT>
0

> <PUBCHEM_ATOM_UDEF_STEREO_COUNT>
0

> <PUBCHEM_BOND_DEF_STEREO_COUNT>
0

> <PUBCHEM_BOND_UDEF_STEREO_COUNT>
2

> <PUBCHEM_ISOTOPIC_ATOM_COUNT>
0

> <PUBCHEM_COMPONENT_COUNT>
1

> <PUBCHEM_CACTVS_TAUTO_COUNT>
3

> <PUBCHEM_COORDINATE_TYPE>
1
5
255

> <PUBCHEM_BONDANNOTATIONS>
11  16  8
12  15  8
13  18  8
14  17  8
15  19  8
16  20  8
17  19  8
18  20  8
5  12  8
5  14  8
6  11  8
6  13  8
7  9  1
8  10  1

$$$$

