5644
  -OEChem-06261200472D

 41 42  0     1  0  0  0  0  0999 V2000
    6.8909   -2.4172    0.0000 P   0  0  3  0  0  0  0  0  0  0  0  0
    8.4732   -3.1217    0.0000 P   0  0  3  0  0  0  0  0  0  0  0  0
   10.0555   -3.8262    0.0000 P   0  0  3  0  0  0  0  0  0  0  0  0
    5.0298    0.0474    0.0000 O   0  0  0  0  0  0  0  0  0  0  0  0
    3.1330   -1.7127    0.0000 O   0  0  0  0  0  0  0  0  0  0  0  0
    2.4608    0.3564    0.0000 O   0  0  0  0  0  0  0  0  0  0  0  0
    6.3031   -1.6082    0.0000 O   0  0  0  0  0  0  0  0  0  0  0  0
    2.4888    1.6352    0.0000 O   0  0  0  0  0  0  0  0  0  0  0  0
    7.4787   -3.2262    0.0000 O   0  0  0  0  0  0  0  0  0  0  0  0
    7.6999   -1.8294    0.0000 O   0  5  0  0  0  0  0  0  0  0  0  0
    6.0819   -3.0050    0.0000 O   0  0  0  0  0  0  0  0  0  0  0  0
    4.2208    4.6352    0.0000 O   0  0  0  0  0  0  0  0  0  0  0  0
    9.4677   -3.0171    0.0000 O   0  0  0  0  0  0  0  0  0  0  0  0
    8.5778   -4.1162    0.0000 O   0  5  0  0  0  0  0  0  0  0  0  0
    8.3687   -2.1271    0.0000 O   0  0  0  0  0  0  0  0  0  0  0  0
   10.6433   -4.6352    0.0000 O   0  0  0  0  0  0  0  0  0  0  0  0
   10.8645   -3.2384    0.0000 O   0  5  0  0  0  0  0  0  0  0  0  0
    9.2465   -4.4139    0.0000 O   0  0  0  0  0  0  0  0  0  0  0  0
    4.2208    1.6352    0.0000 N   0  0  0  0  0  0  0  0  0  0  0  0
    3.3548    3.1352    0.0000 N   0  0  0  0  0  0  0  0  0  0  0  0
    3.7208   -0.9037    0.0000 C   0  0  3  0  0  0  0  0  0  0  0  0
    3.4118    0.0474    0.0000 C   0  0  3  0  0  0  0  0  0  0  0  0
    4.7208   -0.9037    0.0000 C   0  0  3  0  0  0  0  0  0  0  0  0
    4.2208    0.6352    0.0000 C   0  0  3  0  0  0  0  0  0  0  0  0
    5.3086   -1.7127    0.0000 C   0  0  0  0  0  0  0  0  0  0  0  0
    3.3548    2.1352    0.0000 C   0  0  0  0  0  0  0  0  0  0  0  0
    5.0868    2.1352    0.0000 C   0  0  0  0  0  0  0  0  0  0  0  0
    5.0868    3.1352    0.0000 C   0  0  0  0  0  0  0  0  0  0  0  0
    4.2208    3.6352    0.0000 C   0  0  0  0  0  0  0  0  0  0  0  0
    2.8813   -0.7707    0.0000 H   0  0  0  0  0  0  0  0  0  0  0  0
    2.8108   -0.5537    0.0000 H   0  0  0  0  0  0  0  0  0  0  0  0
    5.5604   -0.7707    0.0000 H   0  0  0  0  0  0  0  0  0  0  0  0
    3.4635    1.0211    0.0000 H   0  0  0  0  0  0  0  0  0  0  0  0
    4.7514   -1.9845    0.0000 H   0  0  0  0  0  0  0  0  0  0  0  0
    5.4795   -2.3087    0.0000 H   0  0  0  0  0  0  0  0  0  0  0  0
    3.3852   -2.2791    0.0000 H   0  0  0  0  0  0  0  0  0  0  0  0
    2.0000   -0.0585    0.0000 H   0  0  0  0  0  0  0  0  0  0  0  0
    5.6238    1.8252    0.0000 H   0  0  0  0  0  0  0  0  0  0  0  0
    2.8179    3.4452    0.0000 H   0  0  0  0  0  0  0  0  0  0  0  0
    5.6238    3.4452    0.0000 H   0  0  0  0  0  0  0  0  0  0  0  0
   11.2599   -4.5704    0.0000 H   0  0  0  0  0  0  0  0  0  0  0  0
  1  7  1  0  0  0  0
  1  9  1  0  0  0  0
  1 10  1  0  0  0  0
  1 11  2  0  0  0  0
  2  9  1  0  0  0  0
  2 13  1  0  0  0  0
  2 14  1  0  0  0  0
  2 15  2  0  0  0  0
  3 13  1  0  0  0  0
  3 16  1  0  0  0  0
  3 17  1  0  0  0  0
  3 18  2  0  0  0  0
  4 23  1  0  0  0  0
  4 24  1  0  0  0  0
  5 21  1  0  0  0  0
  5 36  1  0  0  0  0
  6 22  1  0  0  0  0
  6 37  1  0  0  0  0
  7 25  1  0  0  0  0
  8 26  2  0  0  0  0
 12 29  2  0  0  0  0
 16 41  1  0  0  0  0
 19 24  1  0  0  0  0
 19 26  1  0  0  0  0
 19 27  1  0  0  0  0
 20 26  1  0  0  0  0
 20 29  1  0  0  0  0
 20 39  1  0  0  0  0
 21 22  1  0  0  0  0
 21 23  1  0  0  0  0
 21 30  1  0  0  0  0
 22 24  1  0  0  0  0
 22 31  1  0  0  0  0
 23 25  1  0  0  0  0
 23 32  1  0  0  0  0
 24 33  1  0  0  0  0
 25 34  1  0  0  0  0
 25 35  1  0  0  0  0
 27 28  2  0  0  0  0
 27 38  1  0  0  0  0
 28 29  1  0  0  0  0
 28 40  1  0  0  0  0
M  CHG  3  10  -1  14  -1  17  -1
M  END
> <PUBCHEM_COMPOUND_CID>
5644

> <PUBCHEM_COMPOUND_CANONICALIZED>
1

> <PUBCHEM_CACTVS_COMPLEXITY>
820

> <PUBCHEM_CACTVS_HBOND_ACCEPTOR>
15

> <PUBCHEM_CACTVS_HBOND_DONOR>
4

> <PUBCHEM_CACTVS_ROTATABLE_BOND>
8

> <PUBCHEM_CACTVS_SUBSKEYS>
AAADccBzPAMAAAAAAAAAAAAAAAAAASAAAAAgAAAAAAAAAAAAAAAAHgAQCCAACBThgAYBAAPABxCIQCFWUICAAAAAAgAIAAAIAECDEAIAgAAOQAAPFyITAMDwMAIAAAAAAAAAAAAAAAAAAAAAAAAAAAAAAA==

> <PUBCHEM_IUPAC_OPENEYE_NAME>
[[[5-(2,4-dioxopyrimidin-1-yl)-3,4-dihydroxy-tetrahydrofuran-2-yl]methoxy-oxido-phosphoryl]oxy-oxido-phosphoryl] hydrogen phosphate

> <PUBCHEM_IUPAC_CAS_NAME>
[[[5-(2,4-dioxo-1-pyrimidinyl)-3,4-dihydroxy-2-oxolanyl]methoxy-oxidophosphoryl]oxy-oxidophosphoryl] hydrogen phosphate

> <PUBCHEM_IUPAC_NAME>
[[[5-(2,4-dioxopyrimidin-1-yl)-3,4-dihydroxyoxolan-2-yl]methoxy-oxidophosphoryl]oxy-oxidophosphoryl] hydrogen phosphate

> <PUBCHEM_IUPAC_SYSTEMATIC_NAME>
[[[5-[2,4-bis(oxidanylidene)pyrimidin-1-yl]-3,4-bis(oxidanyl)oxolan-2-yl]methoxy-oxidanidyl-phosphoryl]oxy-oxidanidyl-phosphoryl] hydrogen phosphate

> <PUBCHEM_IUPAC_TRADITIONAL_NAME>
[[[5-(2,4-diketopyrimidin-1-yl)-3,4-dihydroxy-tetrahydrofuran-2-yl]methoxy-oxido-phosphoryl]oxy-oxido-phosphoryl] hydrogen phosphate

> <PUBCHEM_IUPAC_INCHI>
InChI=1S/C9H15N2O15P3/c12-5-1-2-11(9(15)10-5)8-7(14)6(13)4(24-8)3-23-28(19,20)26-29(21,22)25-27(16,17)18/h1-2,4,6-8,13-14H,3H2,(H,19,20)(H,21,22)(H,10,12,15)(H2,16,17,18)/p-3

> <PUBCHEM_IUPAC_INCHIKEY>
PGAVKCOVUIYSFO-UHFFFAOYSA-K

> <PUBCHEM_XLOGP3>
-6.1

> <PUBCHEM_EXACT_MASS>
480.945053

> <PUBCHEM_MOLECULAR_FORMULA>
C9H12N2O15P3-3

> <PUBCHEM_MOLECULAR_WEIGHT>
481.117266

> <PUBCHEM_OPENEYE_CAN_SMILES>
C1=CN(C(=O)NC1=O)C2C(C(C(O2)COP(=O)([O-])OP(=O)([O-])OP(=O)(O)[O-])O)O

> <PUBCHEM_OPENEYE_ISO_SMILES>
C1=CN(C(=O)NC1=O)C2C(C(C(O2)COP(=O)([O-])OP(=O)([O-])OP(=O)(O)[O-])O)O

> <PUBCHEM_CACTVS_TPSA>
267

> <PUBCHEM_MONOISOTOPIC_WEIGHT>
480.945053

> <PUBCHEM_TOTAL_CHARGE>
-3

> <PUBCHEM_HEAVY_ATOM_COUNT>
29

> <PUBCHEM_ATOM_DEF_STEREO_COUNT>
0

> <PUBCHEM_ATOM_UDEF_STEREO_COUNT>
4

> <PUBCHEM_BOND_DEF_STEREO_COUNT>
0

> <PUBCHEM_BOND_UDEF_STEREO_COUNT>
0

> <PUBCHEM_ISOTOPIC_ATOM_COUNT>
0

> <PUBCHEM_COMPONENT_COUNT>
1

> <PUBCHEM_CACTVS_TAUTO_COUNT>
3

> <PUBCHEM_COORDINATE_TYPE>
1
5
255

> <PUBCHEM_BONDANNOTATIONS>
19  26  8
19  27  8
20  26  8
20  29  8
21  30  3
22  31  3
23  32  3
24  33  3
27  28  8
28  29  8

$$$$

