9539
  -OEChem-06261203482D

 35 31  0     0  0  0  0  0  0999 V2000
    3.9340    0.0000    0.0000 Cl  0  0  0  0  0  0  0  0  0  0  0  0
    3.9340    2.5000    0.0000 Cl  0  0  0  0  0  0  0  0  0  0  0  0
    3.9340    5.0000    0.0000 Cl  0  0  0  0  0  0  0  0  0  0  0  0
    4.8671    8.1200    0.0000 N   0  0  0  0  0  0  0  0  0  0  0  0
    0.5369    8.6200    0.0000 N   0  0  0  0  0  0  0  0  0  0  0  0
    8.3312    8.1200    0.0000 N   0  0  0  0  0  0  0  0  0  0  0  0
    3.1350    8.1200    0.0000 C   0  0  0  0  0  0  0  0  0  0  0  0
    4.0010    8.6200    0.0000 C   0  0  0  0  0  0  0  0  0  0  0  0
    2.2690    8.6200    0.0000 C   0  0  0  0  0  0  0  0  0  0  0  0
    5.7331    8.6200    0.0000 C   0  0  0  0  0  0  0  0  0  0  0  0
    6.5991    8.1200    0.0000 C   0  0  0  0  0  0  0  0  0  0  0  0
    1.4030    8.1200    0.0000 C   0  0  0  0  0  0  0  0  0  0  0  0
    7.4651    8.6200    0.0000 C   0  0  0  0  0  0  0  0  0  0  0  0
    2.7365    7.6450    0.0000 H   0  0  0  0  0  0  0  0  0  0  0  0
    3.5335    7.6450    0.0000 H   0  0  0  0  0  0  0  0  0  0  0  0
    4.3996    9.0950    0.0000 H   0  0  0  0  0  0  0  0  0  0  0  0
    3.6025    9.0950    0.0000 H   0  0  0  0  0  0  0  0  0  0  0  0
    2.6675    9.0950    0.0000 H   0  0  0  0  0  0  0  0  0  0  0  0
    1.8705    9.0950    0.0000 H   0  0  0  0  0  0  0  0  0  0  0  0
    6.1316    9.0950    0.0000 H   0  0  0  0  0  0  0  0  0  0  0  0
    5.3346    9.0950    0.0000 H   0  0  0  0  0  0  0  0  0  0  0  0
    4.8671    7.5000    0.0000 H   0  0  0  0  0  0  0  0  0  0  0  0
    6.2006    7.6450    0.0000 H   0  0  0  0  0  0  0  0  0  0  0  0
    6.9976    7.6450    0.0000 H   0  0  0  0  0  0  0  0  0  0  0  0
    1.0044    7.6450    0.0000 H   0  0  0  0  0  0  0  0  0  0  0  0
    1.8015    7.6450    0.0000 H   0  0  0  0  0  0  0  0  0  0  0  0
    7.8637    9.0950    0.0000 H   0  0  0  0  0  0  0  0  0  0  0  0
    7.0666    9.0950    0.0000 H   0  0  0  0  0  0  0  0  0  0  0  0
    0.0000    8.3100    0.0000 H   0  0  0  0  0  0  0  0  0  0  0  0
    0.5369    9.2400    0.0000 H   0  0  0  0  0  0  0  0  0  0  0  0
    8.8681    8.4300    0.0000 H   0  0  0  0  0  0  0  0  0  0  0  0
    8.3312    7.5000    0.0000 H   0  0  0  0  0  0  0  0  0  0  0  0
    4.9340    0.0000    0.0000 H   0  0  0  0  0  0  0  0  0  0  0  0
    4.9340    2.5000    0.0000 H   0  0  0  0  0  0  0  0  0  0  0  0
    4.9340    5.0000    0.0000 H   0  0  0  0  0  0  0  0  0  0  0  0
  1 33  1  0  0  0  0
  2 34  1  0  0  0  0
  3 35  1  0  0  0  0
  4  8  1  0  0  0  0
  4 10  1  0  0  0  0
  4 22  1  0  0  0  0
  5 12  1  0  0  0  0
  5 29  1  0  0  0  0
  5 30  1  0  0  0  0
  6 13  1  0  0  0  0
  6 31  1  0  0  0  0
  6 32  1  0  0  0  0
  7  8  1  0  0  0  0
  7  9  1  0  0  0  0
  7 14  1  0  0  0  0
  7 15  1  0  0  0  0
  8 16  1  0  0  0  0
  8 17  1  0  0  0  0
  9 12  1  0  0  0  0
  9 18  1  0  0  0  0
  9 19  1  0  0  0  0
 10 11  1  0  0  0  0
 10 20  1  0  0  0  0
 10 21  1  0  0  0  0
 11 13  1  0  0  0  0
 11 23  1  0  0  0  0
 11 24  1  0  0  0  0
 12 25  1  0  0  0  0
 12 26  1  0  0  0  0
 13 27  1  0  0  0  0
 13 28  1  0  0  0  0
M  END
> <PUBCHEM_COMPOUND_CID>
9539

> <PUBCHEM_COMPOUND_CANONICALIZED>
1

> <PUBCHEM_CACTVS_COMPLEXITY>
56.8

> <PUBCHEM_CACTVS_HBOND_ACCEPTOR>
3

> <PUBCHEM_CACTVS_HBOND_DONOR>
6

> <PUBCHEM_CACTVS_ROTATABLE_BOND>
7

> <PUBCHEM_CACTVS_SUBSKEYS>
AAADceBjAAAGAAAAAAAAAAAAAAAAAAAAAAAAAAAAAAAAAAAAAAAAHAAQAAAACADBAAQAAALAAAAAAAAAAAAAAAAAAAAAAIAIAAAAAAAAwAAEAAAAEACAAAAAAAAAAAAAAAAAAAAAAAAAAAAAAAAAAAAAAA==

> <PUBCHEM_IUPAC_OPENEYE_NAME>
N'-(3-aminopropyl)butane-1,4-diamine trihydrochloride

> <PUBCHEM_IUPAC_CAS_NAME>
N'-(3-aminopropyl)butane-1,4-diamine trihydrochloride

> <PUBCHEM_IUPAC_NAME>
N'-(3-aminopropyl)butane-1,4-diamine trihydrochloride

> <PUBCHEM_IUPAC_SYSTEMATIC_NAME>
N'-(3-azanylpropyl)butane-1,4-diamine trihydrochloride

> <PUBCHEM_IUPAC_TRADITIONAL_NAME>
4-aminobutyl(3-aminopropyl)amine trihydrochloride

> <PUBCHEM_IUPAC_INCHI>
InChI=1S/C7H19N3.3ClH/c8-4-1-2-6-10-7-3-5-9;;;/h10H,1-9H2;3*1H

> <PUBCHEM_IUPAC_INCHIKEY>
LCNBIHVSOPXFMR-UHFFFAOYSA-N

> <PUBCHEM_EXACT_MASS>
253.087931

> <PUBCHEM_MOLECULAR_FORMULA>
C7H22Cl3N3

> <PUBCHEM_MOLECULAR_WEIGHT>
254.62868

> <PUBCHEM_OPENEYE_CAN_SMILES>
C(CCNCCCN)CN.Cl.Cl.Cl

> <PUBCHEM_OPENEYE_ISO_SMILES>
C(CCNCCCN)CN.Cl.Cl.Cl

> <PUBCHEM_CACTVS_TPSA>
64.1

> <PUBCHEM_MONOISOTOPIC_WEIGHT>
253.087931

> <PUBCHEM_TOTAL_CHARGE>
0

> <PUBCHEM_HEAVY_ATOM_COUNT>
13

> <PUBCHEM_ATOM_DEF_STEREO_COUNT>
0

> <PUBCHEM_ATOM_UDEF_STEREO_COUNT>
0

> <PUBCHEM_BOND_DEF_STEREO_COUNT>
0

> <PUBCHEM_BOND_UDEF_STEREO_COUNT>
0

> <PUBCHEM_ISOTOPIC_ATOM_COUNT>
0

> <PUBCHEM_COMPONENT_COUNT>
4

> <PUBCHEM_CACTVS_TAUTO_COUNT>
1

> <PUBCHEM_COORDINATE_TYPE>
1
5
255

$$$$

