11323
  -OEChem-06261205322D

 49 52  0     0  0  0  0  0  0999 V2000
    5.5972   -0.0426    0.0000 O   0  0  0  0  0  0  0  0  0  0  0  0
    6.4632   -0.5426    0.0000 C   0  0  0  0  0  0  0  0  0  0  0  0
    4.9544    0.7235    0.0000 C   0  0  0  0  0  0  0  0  0  0  0  0
    6.4632   -1.5426    0.0000 C   0  0  0  0  0  0  0  0  0  0  0  0
    7.3293   -0.0426    0.0000 C   0  0  0  0  0  0  0  0  0  0  0  0
    3.9696    0.5498    0.0000 C   0  0  0  0  0  0  0  0  0  0  0  0
    5.2964    1.6632    0.0000 C   0  0  0  0  0  0  0  0  0  0  0  0
    4.6537    2.4292    0.0000 C   0  0  0  0  0  0  0  0  0  0  0  0
    3.3268    1.3159    0.0000 C   0  0  0  0  0  0  0  0  0  0  0  0
    8.1953   -0.5426    0.0000 C   0  0  0  0  0  0  0  0  0  0  0  0
    5.5972   -2.0426    0.0000 C   0  0  0  0  0  0  0  0  0  0  0  0
    6.2812    1.8368    0.0000 C   0  0  0  0  0  0  0  0  0  0  0  0
    3.6276   -0.3899    0.0000 C   0  0  0  0  0  0  0  0  0  0  0  0
    7.3293    0.9574    0.0000 C   0  0  0  0  0  0  0  0  0  0  0  0
    7.3293   -2.0426    0.0000 C   0  0  0  0  0  0  0  0  0  0  0  0
    5.5972   -3.0426    0.0000 C   0  0  0  0  0  0  0  0  0  0  0  0
    9.0613   -0.0426    0.0000 C   0  0  0  0  0  0  0  0  0  0  0  0
    2.3420    1.1422    0.0000 C   0  0  0  0  0  0  0  0  0  0  0  0
    4.9957    3.3689    0.0000 C   0  0  0  0  0  0  0  0  0  0  0  0
    7.3293   -3.0426    0.0000 C   0  0  0  0  0  0  0  0  0  0  0  0
    8.1953    1.4574    0.0000 C   0  0  0  0  0  0  0  0  0  0  0  0
    2.6428   -0.5635    0.0000 C   0  0  0  0  0  0  0  0  0  0  0  0
    6.6233    2.7765    0.0000 C   0  0  0  0  0  0  0  0  0  0  0  0
    6.4632   -3.5426    0.0000 C   0  0  0  0  0  0  0  0  0  0  0  0
    9.0613    0.9574    0.0000 C   0  0  0  0  0  0  0  0  0  0  0  0
    2.0000    0.2025    0.0000 C   0  0  0  0  0  0  0  0  0  0  0  0
    5.9805    3.5426    0.0000 C   0  0  0  0  0  0  0  0  0  0  0  0
    6.4632    0.0774    0.0000 H   0  0  0  0  0  0  0  0  0  0  0  0
    5.5650    0.8311    0.0000 H   0  0  0  0  0  0  0  0  0  0  0  0
    4.0431    2.3216    0.0000 H   0  0  0  0  0  0  0  0  0  0  0  0
    3.5389    1.8985    0.0000 H   0  0  0  0  0  0  0  0  0  0  0  0
    8.1953   -1.1626    0.0000 H   0  0  0  0  0  0  0  0  0  0  0  0
    5.0603   -1.7326    0.0000 H   0  0  0  0  0  0  0  0  0  0  0  0
    6.6798    1.3619    0.0000 H   0  0  0  0  0  0  0  0  0  0  0  0
    4.0261   -0.8648    0.0000 H   0  0  0  0  0  0  0  0  0  0  0  0
    6.7923    1.2674    0.0000 H   0  0  0  0  0  0  0  0  0  0  0  0
    7.8662   -1.7326    0.0000 H   0  0  0  0  0  0  0  0  0  0  0  0
    5.0603   -3.3526    0.0000 H   0  0  0  0  0  0  0  0  0  0  0  0
    9.5982   -0.3526    0.0000 H   0  0  0  0  0  0  0  0  0  0  0  0
    1.9435    1.6172    0.0000 H   0  0  0  0  0  0  0  0  0  0  0  0
    4.5972    3.8439    0.0000 H   0  0  0  0  0  0  0  0  0  0  0  0
    7.8662   -3.3526    0.0000 H   0  0  0  0  0  0  0  0  0  0  0  0
    8.1953    2.0774    0.0000 H   0  0  0  0  0  0  0  0  0  0  0  0
    2.4307   -1.1461    0.0000 H   0  0  0  0  0  0  0  0  0  0  0  0
    7.2338    2.8842    0.0000 H   0  0  0  0  0  0  0  0  0  0  0  0
    6.4632   -4.1626    0.0000 H   0  0  0  0  0  0  0  0  0  0  0  0
    9.5982    1.2674    0.0000 H   0  0  0  0  0  0  0  0  0  0  0  0
    1.3894    0.0949    0.0000 H   0  0  0  0  0  0  0  0  0  0  0  0
    6.1925    4.1252    0.0000 H   0  0  0  0  0  0  0  0  0  0  0  0
  1  2  1  0  0  0  0
  1  3  1  0  0  0  0
  2  4  1  0  0  0  0
  2  5  1  0  0  0  0
  2 28  1  0  0  0  0
  3  6  1  0  0  0  0
  3  7  1  0  0  0  0
  3 29  1  0  0  0  0
  4 11  2  0  0  0  0
  4 15  1  0  0  0  0
  5 10  2  0  0  0  0
  5 14  1  0  0  0  0
  6  9  2  0  0  0  0
  6 13  1  0  0  0  0
  7  8  2  0  0  0  0
  7 12  1  0  0  0  0
  8 19  1  0  0  0  0
  8 30  1  0  0  0  0
  9 18  1  0  0  0  0
  9 31  1  0  0  0  0
 10 17  1  0  0  0  0
 10 32  1  0  0  0  0
 11 16  1  0  0  0  0
 11 33  1  0  0  0  0
 12 23  2  0  0  0  0
 12 34  1  0  0  0  0
 13 22  2  0  0  0  0
 13 35  1  0  0  0  0
 14 21  2  0  0  0  0
 14 36  1  0  0  0  0
 15 20  2  0  0  0  0
 15 37  1  0  0  0  0
 16 24  2  0  0  0  0
 16 38  1  0  0  0  0
 17 25  2  0  0  0  0
 17 39  1  0  0  0  0
 18 26  2  0  0  0  0
 18 40  1  0  0  0  0
 19 27  2  0  0  0  0
 19 41  1  0  0  0  0
 20 24  1  0  0  0  0
 20 42  1  0  0  0  0
 21 25  1  0  0  0  0
 21 43  1  0  0  0  0
 22 26  1  0  0  0  0
 22 44  1  0  0  0  0
 23 27  1  0  0  0  0
 23 45  1  0  0  0  0
 24 46  1  0  0  0  0
 25 47  1  0  0  0  0
 26 48  1  0  0  0  0
 27 49  1  0  0  0  0
M  END
> <PUBCHEM_COMPOUND_CID>
11323

> <PUBCHEM_COMPOUND_CANONICALIZED>
1

> <PUBCHEM_CACTVS_COMPLEXITY>
320

> <PUBCHEM_CACTVS_HBOND_ACCEPTOR>
1

> <PUBCHEM_CACTVS_HBOND_DONOR>
0

> <PUBCHEM_CACTVS_ROTATABLE_BOND>
6

> <PUBCHEM_CACTVS_SUBSKEYS>
AAADceB4IAAAAAAAAAAAAAAAAAAAAAAAAAAwYMGAAAAAAAABVAAAGgAAAAAADBSgmAIwAIAABACAAiBCAAACAAAgAAAIiAAACIgIJiKAMRiCMAAkwAEIqAeAwOAOAAAAAAAAAAAAAAAAAAAAAAAAAAAAAA==

> <PUBCHEM_IUPAC_OPENEYE_NAME>
[benzhydryloxy(phenyl)methyl]benzene

> <PUBCHEM_IUPAC_CAS_NAME>
[(diphenylmethyl)oxy-phenylmethyl]benzene

> <PUBCHEM_IUPAC_NAME>
[benzhydryloxy(phenyl)methyl]benzene

> <PUBCHEM_IUPAC_SYSTEMATIC_NAME>
[(diphenylmethyl)oxy-phenyl-methyl]benzene

> <PUBCHEM_IUPAC_TRADITIONAL_NAME>
[benzhydryloxy(phenyl)methyl]benzene

> <PUBCHEM_IUPAC_INCHI>
InChI=1S/C26H22O/c1-5-13-21(14-6-1)25(22-15-7-2-8-16-22)27-26(23-17-9-3-10-18-23)24-19-11-4-12-20-24/h1-20,25-26H

> <PUBCHEM_IUPAC_INCHIKEY>
PVQATPQSBYNMGE-UHFFFAOYSA-N

> <PUBCHEM_XLOGP3_AA>
6.5

> <PUBCHEM_EXACT_MASS>
350.167065

> <PUBCHEM_MOLECULAR_FORMULA>
C26H22O

> <PUBCHEM_MOLECULAR_WEIGHT>
350.45228

> <PUBCHEM_OPENEYE_CAN_SMILES>
C1=CC=C(C=C1)C(C2=CC=CC=C2)OC(C3=CC=CC=C3)C4=CC=CC=C4

> <PUBCHEM_OPENEYE_ISO_SMILES>
C1=CC=C(C=C1)C(C2=CC=CC=C2)OC(C3=CC=CC=C3)C4=CC=CC=C4

> <PUBCHEM_CACTVS_TPSA>
9.2

> <PUBCHEM_MONOISOTOPIC_WEIGHT>
350.167065

> <PUBCHEM_TOTAL_CHARGE>
0

> <PUBCHEM_HEAVY_ATOM_COUNT>
27

> <PUBCHEM_ATOM_DEF_STEREO_COUNT>
0

> <PUBCHEM_ATOM_UDEF_STEREO_COUNT>
0

> <PUBCHEM_BOND_DEF_STEREO_COUNT>
0

> <PUBCHEM_BOND_UDEF_STEREO_COUNT>
0

> <PUBCHEM_ISOTOPIC_ATOM_COUNT>
0

> <PUBCHEM_COMPONENT_COUNT>
1

> <PUBCHEM_CACTVS_TAUTO_COUNT>
1

> <PUBCHEM_COORDINATE_TYPE>
1
5
255

> <PUBCHEM_BONDANNOTATIONS>
10  17  8
11  16  8
12  23  8
13  22  8
14  21  8
15  20  8
16  24  8
17  25  8
18  26  8
19  27  8
20  24  8
21  25  8
22  26  8
23  27  8
4  11  8
4  15  8
5  10  8
5  14  8
6  13  8
6  9  8
7  12  8
7  8  8
8  19  8
9  18  8

$$$$

