11522
  -OEChem-06261205472D

 12 12  0     0  0  0  0  0  0999 V2000
    2.8660    2.0000    0.0000 I   0  0  0  0  0  0  0  0  0  0  0  0
    2.8660   -2.0000    0.0000 Br  0  0  0  0  0  0  0  0  0  0  0  0
    2.8660    1.0000    0.0000 C   0  0  0  0  0  0  0  0  0  0  0  0
    2.0000    0.5000    0.0000 C   0  0  0  0  0  0  0  0  0  0  0  0
    3.7320    0.5000    0.0000 C   0  0  0  0  0  0  0  0  0  0  0  0
    2.0000   -0.5000    0.0000 C   0  0  0  0  0  0  0  0  0  0  0  0
    3.7320   -0.5000    0.0000 C   0  0  0  0  0  0  0  0  0  0  0  0
    2.8660   -1.0000    0.0000 C   0  0  0  0  0  0  0  0  0  0  0  0
    1.4631    0.8100    0.0000 H   0  0  0  0  0  0  0  0  0  0  0  0
    4.2690    0.8100    0.0000 H   0  0  0  0  0  0  0  0  0  0  0  0
    1.4631   -0.8100    0.0000 H   0  0  0  0  0  0  0  0  0  0  0  0
    4.2690   -0.8100    0.0000 H   0  0  0  0  0  0  0  0  0  0  0  0
  1  3  1  0  0  0  0
  2  8  1  0  0  0  0
  3  4  2  0  0  0  0
  3  5  1  0  0  0  0
  4  6  1  0  0  0  0
  4  9  1  0  0  0  0
  5  7  2  0  0  0  0
  5 10  1  0  0  0  0
  6  8  2  0  0  0  0
  6 11  1  0  0  0  0
  7  8  1  0  0  0  0
  7 12  1  0  0  0  0
M  END
> <PUBCHEM_COMPOUND_CID>
11522

> <PUBCHEM_COMPOUND_CANONICALIZED>
1

> <PUBCHEM_CACTVS_COMPLEXITY>
66.9

> <PUBCHEM_CACTVS_HBOND_ACCEPTOR>
0

> <PUBCHEM_CACTVS_HBOND_DONOR>
0

> <PUBCHEM_CACTVS_ROTATABLE_BOND>
0

> <PUBCHEM_CACTVS_SUBSKEYS>
AAADcYBgAAAAEgAAAAAAAAAAAAAAAAAAAAAwAAAAAAAAAAABAAAAGABgAAABqACCEAAwAIAAAACAACBCAAACAAAgAAQIiAAAAKgIICKAERCAIAAggAAIihcAAAAAAAAAAAAAAAAAAAAAAAAAAAAAAAAAAA==

> <PUBCHEM_IUPAC_OPENEYE_NAME>
1-bromo-4-iodo-benzene

> <PUBCHEM_IUPAC_CAS_NAME>
1-bromo-4-iodobenzene

> <PUBCHEM_IUPAC_NAME>
1-bromo-4-iodobenzene

> <PUBCHEM_IUPAC_SYSTEMATIC_NAME>
1-bromanyl-4-iodanyl-benzene

> <PUBCHEM_IUPAC_TRADITIONAL_NAME>
1-bromo-4-iodo-benzene

> <PUBCHEM_IUPAC_INCHI>
InChI=1S/C6H4BrI/c7-5-1-3-6(8)4-2-5/h1-4H

> <PUBCHEM_IUPAC_INCHIKEY>
UCCUXODGPMAHRL-UHFFFAOYSA-N

> <PUBCHEM_XLOGP3>
4

> <PUBCHEM_EXACT_MASS>
281.85411

> <PUBCHEM_MOLECULAR_FORMULA>
C6H4BrI

> <PUBCHEM_MOLECULAR_WEIGHT>
282.90443

> <PUBCHEM_OPENEYE_CAN_SMILES>
C1=CC(=CC=C1Br)I

> <PUBCHEM_OPENEYE_ISO_SMILES>
C1=CC(=CC=C1Br)I

> <PUBCHEM_CACTVS_TPSA>
0

> <PUBCHEM_MONOISOTOPIC_WEIGHT>
281.85411

> <PUBCHEM_TOTAL_CHARGE>
0

> <PUBCHEM_HEAVY_ATOM_COUNT>
8

> <PUBCHEM_ATOM_DEF_STEREO_COUNT>
0

> <PUBCHEM_ATOM_UDEF_STEREO_COUNT>
0

> <PUBCHEM_BOND_DEF_STEREO_COUNT>
0

> <PUBCHEM_BOND_UDEF_STEREO_COUNT>
0

> <PUBCHEM_ISOTOPIC_ATOM_COUNT>
0

> <PUBCHEM_COMPONENT_COUNT>
1

> <PUBCHEM_CACTVS_TAUTO_COUNT>
1

> <PUBCHEM_COORDINATE_TYPE>
1
5
255

> <PUBCHEM_BONDANNOTATIONS>
3  4  8
3  5  8
4  6  8
5  7  8
6  8  8
7  8  8

$$$$

