13817
  -OEChem-06241222402D

 76 81  0     0  0  0  0  0  0999 V2000
   15.0583   -5.0000    0.0000 S   0  0  0  0  0  0  0  0  0  0  0  0
    4.6660    5.0000    0.0000 S   0  0  0  0  0  0  0  0  0  0  0  0
   15.0583   -6.0000    0.0000 O   0  0  0  0  0  0  0  0  0  0  0  0
    4.6660    6.0000    0.0000 O   0  0  0  0  0  0  0  0  0  0  0  0
   14.0583   -5.0000    0.0000 O   0  0  0  0  0  0  0  0  0  0  0  0
   16.0583   -5.0000    0.0000 O   0  0  0  0  0  0  0  0  0  0  0  0
    5.6660    5.0000    0.0000 O   0  0  0  0  0  0  0  0  0  0  0  0
    3.6660    5.0000    0.0000 O   0  0  0  0  0  0  0  0  0  0  0  0
   15.0583   -1.0000    0.0000 N   0  0  0  0  0  0  0  0  0  0  0  0
    4.6660    1.0000    0.0000 N   0  0  0  0  0  0  0  0  0  0  0  0
   13.3263   -2.0000    0.0000 N   0  0  0  0  0  0  0  0  0  0  0  0
    6.3981    2.0000    0.0000 N   0  0  0  0  0  0  0  0  0  0  0  0
   12.4603   -2.5000    0.0000 N   0  0  0  0  0  0  0  0  0  0  0  0
    6.3981    1.0000    0.0000 N   0  0  0  0  0  0  0  0  0  0  0  0
    3.8000    3.5000    0.0000 C   0  0  0  0  0  0  0  0  0  0  0  0
   15.9244   -3.5000    0.0000 C   0  0  0  0  0  0  0  0  0  0  0  0
    3.8000    2.5000    0.0000 C   0  0  0  0  0  0  0  0  0  0  0  0
   15.9244   -2.5000    0.0000 C   0  0  0  0  0  0  0  0  0  0  0  0
   15.0583   -4.0000    0.0000 C   0  0  0  0  0  0  0  0  0  0  0  0
    4.6660    4.0000    0.0000 C   0  0  0  0  0  0  0  0  0  0  0  0
   15.0583   -2.0000    0.0000 C   0  0  0  0  0  0  0  0  0  0  0  0
    4.6660    2.0000    0.0000 C   0  0  0  0  0  0  0  0  0  0  0  0
    5.5321    2.5000    0.0000 C   0  0  0  0  0  0  0  0  0  0  0  0
   14.1923   -2.5000    0.0000 C   0  0  0  0  0  0  0  0  0  0  0  0
   14.1923   -3.5000    0.0000 C   0  0  0  0  0  0  0  0  0  0  0  0
    5.5321    3.5000    0.0000 C   0  0  0  0  0  0  0  0  0  0  0  0
    8.9962   -0.5000    0.0000 C   0  0  0  0  0  0  0  0  0  0  0  0
    9.8622   -1.0000    0.0000 C   0  0  0  0  0  0  0  0  0  0  0  0
   16.8183   -4.0347    0.0000 C   0  0  0  0  0  0  0  0  0  0  0  0
    2.9061    4.0347    0.0000 C   0  0  0  0  0  0  0  0  0  0  0  0
   16.8183   -1.9653    0.0000 C   0  0  0  0  0  0  0  0  0  0  0  0
    2.9061    1.9653    0.0000 C   0  0  0  0  0  0  0  0  0  0  0  0
   11.5942   -1.0000    0.0000 C   0  0  0  0  0  0  0  0  0  0  0  0
    7.2641   -0.5000    0.0000 C   0  0  0  0  0  0  0  0  0  0  0  0
   10.7282   -0.5000    0.0000 C   0  0  0  0  0  0  0  0  0  0  0  0
    8.1301   -1.0000    0.0000 C   0  0  0  0  0  0  0  0  0  0  0  0
    7.2641    0.5000    0.0000 C   0  0  0  0  0  0  0  0  0  0  0  0
   11.5942   -2.0000    0.0000 C   0  0  0  0  0  0  0  0  0  0  0  0
    2.0000    3.5208    0.0000 C   0  0  0  0  0  0  0  0  0  0  0  0
   17.7244   -3.5208    0.0000 C   0  0  0  0  0  0  0  0  0  0  0  0
    2.0000    2.4792    0.0000 C   0  0  0  0  0  0  0  0  0  0  0  0
   17.7244   -2.4792    0.0000 C   0  0  0  0  0  0  0  0  0  0  0  0
    9.8622   -2.0000    0.0000 C   0  0  0  0  0  0  0  0  0  0  0  0
    8.9962    0.5000    0.0000 C   0  0  0  0  0  0  0  0  0  0  0  0
   10.7282   -2.5000    0.0000 C   0  0  0  0  0  0  0  0  0  0  0  0
    8.1301    1.0000    0.0000 C   0  0  0  0  0  0  0  0  0  0  0  0
   12.4603   -0.5000    0.0000 C   0  0  0  0  0  0  0  0  0  0  0  0
    6.3981   -1.0000    0.0000 C   0  0  0  0  0  0  0  0  0  0  0  0
   13.6554   -3.8100    0.0000 H   0  0  0  0  0  0  0  0  0  0  0  0
    6.0690    3.8100    0.0000 H   0  0  0  0  0  0  0  0  0  0  0  0
   16.8111   -4.6546    0.0000 H   0  0  0  0  0  0  0  0  0  0  0  0
    2.9132    4.6546    0.0000 H   0  0  0  0  0  0  0  0  0  0  0  0
   16.8111   -1.3454    0.0000 H   0  0  0  0  0  0  0  0  0  0  0  0
    2.9132    1.3454    0.0000 H   0  0  0  0  0  0  0  0  0  0  0  0
   10.7282    0.1200    0.0000 H   0  0  0  0  0  0  0  0  0  0  0  0
    8.1301   -1.6200    0.0000 H   0  0  0  0  0  0  0  0  0  0  0  0
   18.2601   -3.8329    0.0000 H   0  0  0  0  0  0  0  0  0  0  0  0
    1.4643    3.8329    0.0000 H   0  0  0  0  0  0  0  0  0  0  0  0
   18.2601   -2.1671    0.0000 H   0  0  0  0  0  0  0  0  0  0  0  0
    1.4643    2.1671    0.0000 H   0  0  0  0  0  0  0  0  0  0  0  0
    9.3252   -2.3100    0.0000 H   0  0  0  0  0  0  0  0  0  0  0  0
    9.5331    0.8100    0.0000 H   0  0  0  0  0  0  0  0  0  0  0  0
    8.1301    1.6200    0.0000 H   0  0  0  0  0  0  0  0  0  0  0  0
   10.7282   -3.1200    0.0000 H   0  0  0  0  0  0  0  0  0  0  0  0
   14.5214   -0.6900    0.0000 H   0  0  0  0  0  0  0  0  0  0  0  0
   15.5953   -0.6900    0.0000 H   0  0  0  0  0  0  0  0  0  0  0  0
    4.1291    0.6900    0.0000 H   0  0  0  0  0  0  0  0  0  0  0  0
    5.2030    0.6900    0.0000 H   0  0  0  0  0  0  0  0  0  0  0  0
    6.0881   -0.4631    0.0000 H   0  0  0  0  0  0  0  0  0  0  0  0
    5.8612   -1.3100    0.0000 H   0  0  0  0  0  0  0  0  0  0  0  0
    6.7081   -1.5369    0.0000 H   0  0  0  0  0  0  0  0  0  0  0  0
   12.7703   -1.0369    0.0000 H   0  0  0  0  0  0  0  0  0  0  0  0
   12.9972   -0.1900    0.0000 H   0  0  0  0  0  0  0  0  0  0  0  0
   12.1503    0.0369    0.0000 H   0  0  0  0  0  0  0  0  0  0  0  0
   14.5214   -6.3100    0.0000 H   0  0  0  0  0  0  0  0  0  0  0  0
    5.2030    6.3100    0.0000 H   0  0  0  0  0  0  0  0  0  0  0  0
  1  3  1  0  0  0  0
  1  5  2  0  0  0  0
  1  6  2  0  0  0  0
  1 19  1  0  0  0  0
  2  4  1  0  0  0  0
  2  7  2  0  0  0  0
  2  8  2  0  0  0  0
  2 20  1  0  0  0  0
  3 75  1  0  0  0  0
  4 76  1  0  0  0  0
  9 21  1  0  0  0  0
  9 65  1  0  0  0  0
  9 66  1  0  0  0  0
 10 22  1  0  0  0  0
 10 67  1  0  0  0  0
 10 68  1  0  0  0  0
 11 13  2  0  0  0  0
 11 24  1  0  0  0  0
 12 14  2  0  0  0  0
 12 23  1  0  0  0  0
 13 38  1  0  0  0  0
 14 37  1  0  0  0  0
 15 17  1  0  0  0  0
 15 20  1  0  0  0  0
 15 30  2  0  0  0  0
 16 18  1  0  0  0  0
 16 19  1  0  0  0  0
 16 29  2  0  0  0  0
 17 22  1  0  0  0  0
 17 32  2  0  0  0  0
 18 21  1  0  0  0  0
 18 31  2  0  0  0  0
 19 25  2  0  0  0  0
 20 26  2  0  0  0  0
 21 24  2  0  0  0  0
 22 23  2  0  0  0  0
 23 26  1  0  0  0  0
 24 25  1  0  0  0  0
 25 49  1  0  0  0  0
 26 50  1  0  0  0  0
 27 28  1  0  0  0  0
 27 36  2  0  0  0  0
 27 44  1  0  0  0  0
 28 35  2  0  0  0  0
 28 43  1  0  0  0  0
 29 40  1  0  0  0  0
 29 51  1  0  0  0  0
 30 39  1  0  0  0  0
 30 52  1  0  0  0  0
 31 42  1  0  0  0  0
 31 53  1  0  0  0  0
 32 41  1  0  0  0  0
 32 54  1  0  0  0  0
 33 35  1  0  0  0  0
 33 38  2  0  0  0  0
 33 47  1  0  0  0  0
 34 36  1  0  0  0  0
 34 37  2  0  0  0  0
 34 48  1  0  0  0  0
 35 55  1  0  0  0  0
 36 56  1  0  0  0  0
 37 46  1  0  0  0  0
 38 45  1  0  0  0  0
 39 41  2  0  0  0  0
 39 58  1  0  0  0  0
 40 42  2  0  0  0  0
 40 57  1  0  0  0  0
 41 60  1  0  0  0  0
 42 59  1  0  0  0  0
 43 45  2  0  0  0  0
 43 61  1  0  0  0  0
 44 46  2  0  0  0  0
 44 62  1  0  0  0  0
 45 64  1  0  0  0  0
 46 63  1  0  0  0  0
 47 72  1  0  0  0  0
 47 73  1  0  0  0  0
 47 74  1  0  0  0  0
 48 69  1  0  0  0  0
 48 70  1  0  0  0  0
 48 71  1  0  0  0  0
M  END
> <PUBCHEM_COMPOUND_CID>
13817

> <PUBCHEM_COMPOUND_CANONICALIZED>
1

> <PUBCHEM_CACTVS_COMPLEXITY>
1280

> <PUBCHEM_CACTVS_HBOND_ACCEPTOR>
12

> <PUBCHEM_CACTVS_HBOND_DONOR>
4

> <PUBCHEM_CACTVS_ROTATABLE_BOND>
7

> <PUBCHEM_CACTVS_SUBSKEYS>
AAADceB/uABgAAAAAAAAAAAAAAAAAAAAAAAwYMGDAAAAAADBVAAAHAQYCAAADAiBWAAywcBAAIKCAiRCQHDCAEAgAgAIiBgAdIgIYCKAkZGAIARggAAIyAcQgMAOiAQCwCAWACAQCAWAQCwAQAAAAAAAAA==

> <PUBCHEM_IUPAC_OPENEYE_NAME>
4-amino-3-[4-[4-[(1-amino-4-sulfo-2-naphthyl)azo]-3-methyl-phenyl]-2-methyl-phenyl]azo-naphthalene-1-sulfonic acid

> <PUBCHEM_IUPAC_CAS_NAME>
4-amino-3-[4-[4-[(1-amino-4-sulfo-2-naphthalenyl)azo]-3-methylphenyl]-2-methylphenyl]azo-1-naphthalenesulfonic acid

> <PUBCHEM_IUPAC_NAME>
4-amino-3-[[4-[4-[(1-amino-4-sulfonaphthalen-2-yl)diazenyl]-3-methylphenyl]-2-methylphenyl]diazenyl]naphthalene-1-sulfonic acid

> <PUBCHEM_IUPAC_SYSTEMATIC_NAME>
4-azanyl-3-[[4-[4-[(1-azanyl-4-sulfo-naphthalen-2-yl)diazenyl]-3-methyl-phenyl]-2-methyl-phenyl]diazenyl]naphthalene-1-sulfonic acid

> <PUBCHEM_IUPAC_TRADITIONAL_NAME>
4-amino-3-[4-[4-[(1-amino-4-sulfo-2-naphthyl)azo]-3-methyl-phenyl]-2-methyl-phenyl]azo-naphthalene-1-sulfonic acid

> <PUBCHEM_IUPAC_INCHI>
InChI=1S/C34H28N6O6S2/c1-19-15-21(11-13-27(19)37-39-29-17-31(47(41,42)43)23-7-3-5-9-25(23)33(29)35)22-12-14-28(20(2)16-22)38-40-30-18-32(48(44,45)46)24-8-4-6-10-26(24)34(30)36/h3-18H,35-36H2,1-2H3,(H,41,42,43)(H,44,45,46)

> <PUBCHEM_IUPAC_INCHIKEY>
PYPYDHUIORYEHW-UHFFFAOYSA-N

> <PUBCHEM_XLOGP3_AA>
6.5

> <PUBCHEM_EXACT_MASS>
680.151175

> <PUBCHEM_MOLECULAR_FORMULA>
C34H28N6O6S2

> <PUBCHEM_MOLECULAR_WEIGHT>
680.75272

> <PUBCHEM_OPENEYE_CAN_SMILES>
CC1=C(C=CC(=C1)C2=CC(=C(C=C2)N=NC3=C(C4=CC=CC=C4C(=C3)S(=O)(=O)O)N)C)N=NC5=C(C6=CC=CC=C6C(=C5)S(=O)(=O)O)N

> <PUBCHEM_OPENEYE_ISO_SMILES>
CC1=C(C=CC(=C1)C2=CC(=C(C=C2)N=NC3=C(C4=CC=CC=C4C(=C3)S(=O)(=O)O)N)C)N=NC5=C(C6=CC=CC=C6C(=C5)S(=O)(=O)O)N

> <PUBCHEM_CACTVS_TPSA>
227

> <PUBCHEM_MONOISOTOPIC_WEIGHT>
680.151175

> <PUBCHEM_TOTAL_CHARGE>
0

> <PUBCHEM_HEAVY_ATOM_COUNT>
48

> <PUBCHEM_ATOM_DEF_STEREO_COUNT>
0

> <PUBCHEM_ATOM_UDEF_STEREO_COUNT>
0

> <PUBCHEM_BOND_DEF_STEREO_COUNT>
0

> <PUBCHEM_BOND_UDEF_STEREO_COUNT>
0

> <PUBCHEM_ISOTOPIC_ATOM_COUNT>
0

> <PUBCHEM_COMPONENT_COUNT>
1

> <PUBCHEM_CACTVS_TAUTO_COUNT>
3

> <PUBCHEM_COORDINATE_TYPE>
1
5
255

> <PUBCHEM_BONDANNOTATIONS>
15  17  8
15  20  8
15  30  8
16  18  8
16  19  8
16  29  8
17  22  8
17  32  8
18  21  8
18  31  8
19  25  8
20  26  8
21  24  8
22  23  8
23  26  8
24  25  8
27  36  8
27  44  8
28  35  8
28  43  8
29  40  8
30  39  8
31  42  8
32  41  8
33  35  8
33  38  8
34  36  8
34  37  8
37  46  8
38  45  8
39  41  8
40  42  8
43  45  8
44  46  8

$$$$

