5849
  -OEChem-06261200552D

 79 78  0     1  0  0  0  0  0999 V2000
    2.2690    4.2368    0.0000 O   0  0  0  0  0  0  0  0  0  0  0  0
   10.7536    0.3100    0.0000 O   0  0  0  0  0  0  0  0  0  0  0  0
    3.1350    6.7368    0.0000 O   0  0  0  0  0  0  0  0  0  0  0  0
   11.6196    2.8100    0.0000 O   0  0  0  0  0  0  0  0  0  0  0  0
    9.0215    1.3100    0.0000 O   0  0  0  0  0  0  0  0  0  0  0  0
    0.5369    5.2368    0.0000 O   0  0  0  0  0  0  0  0  0  0  0  0
    9.8875    2.8100    0.0000 O   0  0  0  0  0  0  0  0  0  0  0  0
    1.4030    6.7368    0.0000 O   0  0  0  0  0  0  0  0  0  0  0  0
   13.3516    1.8100    0.0000 O   0  5  0  0  0  0  0  0  0  0  0  0
    4.8671    5.7368    0.0000 O   0  5  0  0  0  0  0  0  0  0  0  0
   12.4856    0.3100    0.0000 O   0  0  0  0  0  0  0  0  0  0  0  0
    4.0010    4.2368    0.0000 O   0  0  0  0  0  0  0  0  0  0  0  0
   13.5937    8.8181    0.0000 N   0  3  0  0  0  0  0  0  0  0  0  0
    8.8468    6.7046    0.0000 N   0  3  0  0  0  0  0  0  0  0  0  0
   14.4027    9.4058    0.0000 C   0  0  0  0  0  0  0  0  0  0  0  0
   12.7847    9.4058    0.0000 C   0  0  0  0  0  0  0  0  0  0  0  0
    8.9513    7.6991    0.0000 C   0  0  0  0  0  0  0  0  0  0  0  0
    7.8686    6.4967    0.0000 C   0  0  0  0  0  0  0  0  0  0  0  0
    9.8413    6.6001    0.0000 C   0  0  0  0  0  0  0  0  0  0  0  0
   13.0059    8.0090    0.0000 C   0  0  0  0  0  0  0  0  0  0  0  0
   13.0937   10.3569    0.0000 C   0  0  0  0  0  0  0  0  0  0  0  0
    8.0378    8.1059    0.0000 C   0  0  0  0  0  0  0  0  0  0  0  0
    7.3686    7.3627    0.0000 C   0  0  0  0  0  0  0  0  0  0  0  0
   14.0937   10.3569    0.0000 C   0  0  0  0  0  0  0  0  0  0  0  0
   12.0114    8.1136    0.0000 C   0  0  0  0  0  0  0  0  0  0  0  0
   10.4291    7.4091    0.0000 C   0  0  0  0  0  0  0  0  0  0  0  0
   11.4236    7.3046    0.0000 C   0  0  0  0  0  0  0  0  0  0  0  0
    9.0547    5.7264    0.0000 C   0  0  0  0  0  0  0  0  0  0  0  0
   14.1815    8.0090    0.0000 C   0  0  0  0  0  0  0  0  0  0  0  0
   10.7536    1.3100    0.0000 C   0  0  2  0  0  0  0  0  0  0  0  0
    2.2690    5.2368    0.0000 C   0  0  2  0  0  0  0  0  0  0  0  0
   11.6196    1.8100    0.0000 C   0  0  2  0  0  0  0  0  0  0  0  0
    3.1350    5.7368    0.0000 C   0  0  2  0  0  0  0  0  0  0  0  0
    1.4030    5.7368    0.0000 C   0  0  0  0  0  0  0  0  0  0  0  0
    9.8875    1.8100    0.0000 C   0  0  0  0  0  0  0  0  0  0  0  0
    4.0010    5.2368    0.0000 C   0  0  0  0  0  0  0  0  0  0  0  0
   12.4856    1.3100    0.0000 C   0  0  0  0  0  0  0  0  0  0  0  0
   14.7127    8.8689    0.0000 H   0  0  0  0  0  0  0  0  0  0  0  0
   14.9691    9.6580    0.0000 H   0  0  0  0  0  0  0  0  0  0  0  0
   12.2183    9.6580    0.0000 H   0  0  0  0  0  0  0  0  0  0  0  0
   12.4747    8.8689    0.0000 H   0  0  0  0  0  0  0  0  0  0  0  0
    9.5578    7.5702    0.0000 H   0  0  0  0  0  0  0  0  0  0  0  0
    9.1429    8.2888    0.0000 H   0  0  0  0  0  0  0  0  0  0  0  0
    7.3022    6.2445    0.0000 H   0  0  0  0  0  0  0  0  0  0  0  0
    8.0602    5.9070    0.0000 H   0  0  0  0  0  0  0  0  0  0  0  0
   12.8350    7.4131    0.0000 H   0  0  0  0  0  0  0  0  0  0  0  0
   13.5632    7.7373    0.0000 H   0  0  0  0  0  0  0  0  0  0  0  0
    9.6704    6.0041    0.0000 H   0  0  0  0  0  0  0  0  0  0  0  0
   10.3986    6.3283    0.0000 H   0  0  0  0  0  0  0  0  0  0  0  0
    6.9538    7.8235    0.0000 H   0  0  0  0  0  0  0  0  0  0  0  0
    6.8671    6.9983    0.0000 H   0  0  0  0  0  0  0  0  0  0  0  0
    8.3478    8.6428    0.0000 H   0  0  0  0  0  0  0  0  0  0  0  0
    7.5362    8.4703    0.0000 H   0  0  0  0  0  0  0  0  0  0  0  0
   13.1585   10.9735    0.0000 H   0  0  0  0  0  0  0  0  0  0  0  0
   12.4873   10.4858    0.0000 H   0  0  0  0  0  0  0  0  0  0  0  0
   14.7002   10.4858    0.0000 H   0  0  0  0  0  0  0  0  0  0  0  0
   14.0289   10.9735    0.0000 H   0  0  0  0  0  0  0  0  0  0  0  0
   10.6000    8.0051    0.0000 H   0  0  0  0  0  0  0  0  0  0  0  0
    9.8719    7.6809    0.0000 H   0  0  0  0  0  0  0  0  0  0  0  0
   12.1823    8.7096    0.0000 H   0  0  0  0  0  0  0  0  0  0  0  0
   11.4542    8.3854    0.0000 H   0  0  0  0  0  0  0  0  0  0  0  0
   11.2527    6.7086    0.0000 H   0  0  0  0  0  0  0  0  0  0  0  0
   11.9809    7.0328    0.0000 H   0  0  0  0  0  0  0  0  0  0  0  0
    8.4483    5.5976    0.0000 H   0  0  0  0  0  0  0  0  0  0  0  0
    9.1836    5.1200    0.0000 H   0  0  0  0  0  0  0  0  0  0  0  0
    9.6612    5.8554    0.0000 H   0  0  0  0  0  0  0  0  0  0  0  0
   13.6799    7.6446    0.0000 H   0  0  0  0  0  0  0  0  0  0  0  0
   14.5459    7.5075    0.0000 H   0  0  0  0  0  0  0  0  0  0  0  0
   14.6831    8.3735    0.0000 H   0  0  0  0  0  0  0  0  0  0  0  0
    2.8059    4.9268    0.0000 H   0  0  0  0  0  0  0  0  0  0  0  0
   10.2166    1.0000    0.0000 H   0  0  0  0  0  0  0  0  0  0  0  0
   12.1565    2.1200    0.0000 H   0  0  0  0  0  0  0  0  0  0  0  0
    3.6720    6.0468    0.0000 H   0  0  0  0  0  0  0  0  0  0  0  0
   10.2166    0.0000    0.0000 H   0  0  0  0  0  0  0  0  0  0  0  0
    1.7320    3.9268    0.0000 H   0  0  0  0  0  0  0  0  0  0  0  0
   12.1565    3.1200    0.0000 H   0  0  0  0  0  0  0  0  0  0  0  0
    3.6720    7.0468    0.0000 H   0  0  0  0  0  0  0  0  0  0  0  0
    0.0000    5.5468    0.0000 H   0  0  0  0  0  0  0  0  0  0  0  0
    8.4846    1.6200    0.0000 H   0  0  0  0  0  0  0  0  0  0  0  0
 31  1  1  1  0  0  0
  1 75  1  0  0  0  0
 30  2  1  1  0  0  0
  2 74  1  0  0  0  0
 33  3  1  1  0  0  0
  3 77  1  0  0  0  0
 32  4  1  1  0  0  0
  4 76  1  0  0  0  0
  5 35  1  0  0  0  0
  5 79  1  0  0  0  0
  6 34  1  0  0  0  0
  6 78  1  0  0  0  0
  7 35  2  0  0  0  0
  8 34  2  0  0  0  0
  9 37  1  0  0  0  0
 10 36  1  0  0  0  0
 11 37  2  0  0  0  0
 12 36  2  0  0  0  0
 13 15  1  0  0  0  0
 13 16  1  0  0  0  0
 13 20  1  0  0  0  0
 13 29  1  0  0  0  0
 14 17  1  0  0  0  0
 14 18  1  0  0  0  0
 14 19  1  0  0  0  0
 14 28  1  0  0  0  0
 15 24  1  0  0  0  0
 15 38  1  0  0  0  0
 15 39  1  0  0  0  0
 16 21  1  0  0  0  0
 16 40  1  0  0  0  0
 16 41  1  0  0  0  0
 17 22  1  0  0  0  0
 17 42  1  0  0  0  0
 17 43  1  0  0  0  0
 18 23  1  0  0  0  0
 18 44  1  0  0  0  0
 18 45  1  0  0  0  0
 19 26  1  0  0  0  0
 19 48  1  0  0  0  0
 19 49  1  0  0  0  0
 20 25  1  0  0  0  0
 20 46  1  0  0  0  0
 20 47  1  0  0  0  0
 21 24  1  0  0  0  0
 21 54  1  0  0  0  0
 21 55  1  0  0  0  0
 22 23  1  0  0  0  0
 22 52  1  0  0  0  0
 22 53  1  0  0  0  0
 23 50  1  0  0  0  0
 23 51  1  0  0  0  0
 24 56  1  0  0  0  0
 24 57  1  0  0  0  0
 25 27  1  0  0  0  0
 25 60  1  0  0  0  0
 25 61  1  0  0  0  0
 26 27  1  0  0  0  0
 26 58  1  0  0  0  0
 26 59  1  0  0  0  0
 27 62  1  0  0  0  0
 27 63  1  0  0  0  0
 28 64  1  0  0  0  0
 28 65  1  0  0  0  0
 28 66  1  0  0  0  0
 29 67  1  0  0  0  0
 29 68  1  0  0  0  0
 29 69  1  0  0  0  0
 30 32  1  0  0  0  0
 30 35  1  0  0  0  0
 30 71  1  0  0  0  0
 31 33  1  0  0  0  0
 31 34  1  0  0  0  0
 31 70  1  0  0  0  0
 32 37  1  0  0  0  0
 32 72  1  0  0  0  0
 33 36  1  0  0  0  0
 33 73  1  0  0  0  0
M  CHG  4   9  -1  10  -1  13   1  14   1
M  END
> <PUBCHEM_COMPOUND_CID>
5849

> <PUBCHEM_COMPOUND_CANONICALIZED>
1

> <PUBCHEM_CACTVS_COMPLEXITY>
347

> <PUBCHEM_CACTVS_HBOND_ACCEPTOR>
12

> <PUBCHEM_CACTVS_HBOND_DONOR>
6

> <PUBCHEM_CACTVS_ROTATABLE_BOND>
10

> <PUBCHEM_CACTVS_SUBSKEYS>
AAADcfB7PAAAAAAAAAAAAAAAAAAAAWLAAAAAAAAAAAAAAAAAAAAAHgAACAAACBThgAYCCAMAAgAIAACQCAIAAAAAAAAAAAFIAAABEBYAgAAEQAAFIACBAABTAAAAAAAAAAAAAAAAAAAAAAAAAAAAAAAAAA==

> <PUBCHEM_IUPAC_OPENEYE_NAME>
1-methyl-1-[5-(1-methylpyrrolidin-1-ium-1-yl)pentyl]pyrrolidin-1-ium; (2R,3R)-2,3,4-trihydroxy-4-oxo-butanoate

> <PUBCHEM_IUPAC_CAS_NAME>
1-methyl-1-[5-(1-methyl-1-pyrrolidin-1-iumyl)pentyl]pyrrolidin-1-ium; (2R,3R)-2,3,4-trihydroxy-4-oxobutanoate

> <PUBCHEM_IUPAC_NAME>
1-methyl-1-[5-(1-methylpyrrolidin-1-ium-1-yl)pentyl]pyrrolidin-1-ium; (2R,3R)-2,3,4-trihydroxy-4-oxobutanoate

> <PUBCHEM_IUPAC_SYSTEMATIC_NAME>
1-methyl-1-[5-(1-methylpyrrolidin-1-ium-1-yl)pentyl]pyrrolidin-1-ium; (2R,3R)-2,3,4-tris(oxidanyl)-4-oxidanylidene-butanoate

> <PUBCHEM_IUPAC_TRADITIONAL_NAME>
1-methyl-1-[5-(1-methylpyrrolidin-1-ium-1-yl)pentyl]pyrrolidin-1-ium; (2R,3R)-2,3,4-trihydroxy-4-keto-butyrate

> <PUBCHEM_IUPAC_INCHI>
InChI=1S/C15H32N2.2C4H6O6/c1-16(12-6-7-13-16)10-4-3-5-11-17(2)14-8-9-15-17;2*5-1(3(7)8)2(6)4(9)10/h3-15H2,1-2H3;2*1-2,5-6H,(H,7,8)(H,9,10)/q+2;;/p-2/t;2*1-,2-/m.11/s1

> <PUBCHEM_IUPAC_INCHIKEY>
HSMKTIKKPMTUQH-WBPXWQEISA-L

> <PUBCHEM_EXACT_MASS>
538.273775

> <PUBCHEM_MOLECULAR_FORMULA>
C23H42N2O12

> <PUBCHEM_MOLECULAR_WEIGHT>
538.58578

> <PUBCHEM_OPENEYE_CAN_SMILES>
C[N+]1(CCCC1)CCCCC[N+]2(CCCC2)C.C(C(C(=O)[O-])O)(C(=O)O)O.C(C(C(=O)[O-])O)(C(=O)O)O

> <PUBCHEM_OPENEYE_ISO_SMILES>
C[N+]1(CCCC1)CCCCC[N+]2(CCCC2)C.[C@@H]([C@H](C(=O)[O-])O)(C(=O)O)O.[C@@H]([C@H](C(=O)[O-])O)(C(=O)O)O

> <PUBCHEM_CACTVS_TPSA>
236

> <PUBCHEM_MONOISOTOPIC_WEIGHT>
538.273775

> <PUBCHEM_TOTAL_CHARGE>
0

> <PUBCHEM_HEAVY_ATOM_COUNT>
37

> <PUBCHEM_ATOM_DEF_STEREO_COUNT>
4

> <PUBCHEM_ATOM_UDEF_STEREO_COUNT>
0

> <PUBCHEM_BOND_DEF_STEREO_COUNT>
0

> <PUBCHEM_BOND_UDEF_STEREO_COUNT>
0

> <PUBCHEM_ISOTOPIC_ATOM_COUNT>
0

> <PUBCHEM_COMPONENT_COUNT>
3

> <PUBCHEM_CACTVS_TAUTO_COUNT>
1

> <PUBCHEM_COORDINATE_TYPE>
1
5
255

> <PUBCHEM_BONDANNOTATIONS>
31  1  5
30  2  5
33  3  5
32  4  5

$$$$

