5674
  -OEChem-06261200482D

 73 75  0     1  0  0  0  0  0999 V2000
    3.6603   -0.9931    0.0000 O   0  0  0  0  0  0  0  0  0  0  0  0
    3.2758   -2.5854    0.0000 O   0  0  0  0  0  0  0  0  0  0  0  0
    6.5319   -4.9511    0.0000 O   0  0  0  0  0  0  0  0  0  0  0  0
    9.2701   -2.8638    0.0000 O   0  0  0  0  0  0  0  0  0  0  0  0
    5.3722    4.8514    0.0000 O   0  0  0  0  0  0  0  0  0  0  0  0
   12.9853    0.7822    0.0000 O   0  0  0  0  0  0  0  0  0  0  0  0
   12.5383   -2.0388    0.0000 O   0  0  0  0  0  0  0  0  0  0  0  0
    5.6783   -3.5530    0.0000 N   0  0  0  0  0  0  0  0  0  0  0  0
    9.0770   -3.8883    0.0000 N   0  0  0  0  0  0  0  0  0  0  0  0
    6.9294    4.3430    0.0000 N   0  0  0  0  0  0  0  0  0  0  0  0
    3.5001    0.1635    0.0000 C   0  0  3  0  0  0  0  0  0  0  0  0
    2.5001    0.1634    0.0000 C   0  0  0  0  0  0  0  0  0  0  0  0
    3.6600    1.3202    0.0000 C   0  0  3  0  0  0  0  0  0  0  0  0
    2.0002   -0.7027    0.0000 C   0  0  0  0  0  0  0  0  0  0  0  0
    2.0000    1.0294    0.0000 C   0  0  0  0  0  0  0  0  0  0  0  0
    2.6975    1.5915    0.0000 C   0  0  0  0  0  0  0  0  0  0  0  0
    4.1278    2.3900    0.0000 C   0  0  0  0  0  0  0  0  0  0  0  0
    4.8693   -2.9652    0.0000 C   0  0  0  0  0  0  0  0  0  0  0  0
    6.4873   -2.9652    0.0000 C   0  0  0  0  0  0  0  0  0  0  0  0
    6.1783   -2.0142    0.0000 C   0  0  0  0  0  0  0  0  0  0  0  0
    4.1284   -2.0628    0.0000 C   0  0  0  0  0  0  0  0  0  0  0  0
    5.1783   -2.0142    0.0000 C   0  0  0  0  0  0  0  0  0  0  0  0
    4.8684    3.2927    0.0000 C   0  0  0  0  0  0  0  0  0  0  0  0
    6.7655   -3.9788    0.0000 C   0  0  0  0  0  0  0  0  0  0  0  0
    7.9275   -4.0934    0.0000 C   0  0  0  0  0  0  0  0  0  0  0  0
    5.8263    3.9604    0.0000 C   0  0  0  0  0  0  0  0  0  0  0  0
   10.1276   -3.3789    0.0000 C   0  0  0  0  0  0  0  0  0  0  0  0
    8.3188   -3.1728    0.0000 C   0  0  0  0  0  0  0  0  0  0  0  0
   11.0005   -2.6034    0.0000 C   0  0  0  0  0  0  0  0  0  0  0  0
   11.9692   -0.5027    0.0000 C   0  0  0  0  0  0  0  0  0  0  0  0
   11.9922    0.6647    0.0000 C   0  0  3  0  0  0  0  0  0  0  0  0
   11.6302   -1.6200    0.0000 C   0  0  0  0  0  0  0  0  0  0  0  0
    8.0951    4.4118    0.0000 C   0  0  0  0  0  0  0  0  0  0  0  0
   11.6974    1.7945    0.0000 C   0  0  0  0  0  0  0  0  0  0  0  0
   11.1070    2.8019    0.0000 C   0  0  0  0  0  0  0  0  0  0  0  0
    9.2356    4.1616    0.0000 C   0  0  0  0  0  0  0  0  0  0  0  0
   10.2653    3.6112    0.0000 C   0  0  0  0  0  0  0  0  0  0  0  0
   11.8923    3.4210    0.0000 C   0  0  0  0  0  0  0  0  0  0  0  0
    3.0929   -0.3040    0.0000 H   0  0  0  0  0  0  0  0  0  0  0  0
    2.8102   -0.3735    0.0000 H   0  0  0  0  0  0  0  0  0  0  0  0
    3.1411    0.9807    0.0000 H   0  0  0  0  0  0  0  0  0  0  0  0
    2.5369    1.3394    0.0000 H   0  0  0  0  0  0  0  0  0  0  0  0
    1.6899    1.5663    0.0000 H   0  0  0  0  0  0  0  0  0  0  0  0
    1.4633   -0.3928    0.0000 H   0  0  0  0  0  0  0  0  0  0  0  0
    1.6903   -1.2397    0.0000 H   0  0  0  0  0  0  0  0  0  0  0  0
    2.5372   -1.0126    0.0000 H   0  0  0  0  0  0  0  0  0  0  0  0
    1.4631    0.7193    0.0000 H   0  0  0  0  0  0  0  0  0  0  0  0
    2.8657    2.1882    0.0000 H   0  0  0  0  0  0  0  0  0  0  0  0
    2.1007    1.7597    0.0000 H   0  0  0  0  0  0  0  0  0  0  0  0
    2.5292    0.9948    0.0000 H   0  0  0  0  0  0  0  0  0  0  0  0
    3.5991    2.7139    0.0000 H   0  0  0  0  0  0  0  0  0  0  0  0
    6.7973   -3.5021    0.0000 H   0  0  0  0  0  0  0  0  0  0  0  0
    7.0537   -2.7130    0.0000 H   0  0  0  0  0  0  0  0  0  0  0  0
    6.7847   -1.8852    0.0000 H   0  0  0  0  0  0  0  0  0  0  0  0
    6.1135   -1.3976    0.0000 H   0  0  0  0  0  0  0  0  0  0  0  0
    4.8139   -1.5126    0.0000 H   0  0  0  0  0  0  0  0  0  0  0  0
    4.4475    3.7479    0.0000 H   0  0  0  0  0  0  0  0  0  0  0  0
    7.9000   -2.7156    0.0000 H   0  0  0  0  0  0  0  0  0  0  0  0
   11.1805   -3.1967    0.0000 H   0  0  0  0  0  0  0  0  0  0  0  0
   10.5291   -2.2007    0.0000 H   0  0  0  0  0  0  0  0  0  0  0  0
   12.4326   -0.9146    0.0000 H   0  0  0  0  0  0  0  0  0  0  0  0
   11.3568   -0.4057    0.0000 H   0  0  0  0  0  0  0  0  0  0  0  0
    6.8085    4.9511    0.0000 H   0  0  0  0  0  0  0  0  0  0  0  0
   12.4516    0.2483    0.0000 H   0  0  0  0  0  0  0  0  0  0  0  0
    8.4692    4.9062    0.0000 H   0  0  0  0  0  0  0  0  0  0  0  0
    8.0464    3.7937    0.0000 H   0  0  0  0  0  0  0  0  0  0  0  0
   12.2702    2.0318    0.0000 H   0  0  0  0  0  0  0  0  0  0  0  0
    9.4502    4.7433    0.0000 H   0  0  0  0  0  0  0  0  0  0  0  0
   10.6298    4.1128    0.0000 H   0  0  0  0  0  0  0  0  0  0  0  0
   12.2762    2.9341    0.0000 H   0  0  0  0  0  0  0  0  0  0  0  0
   12.3793    3.8048    0.0000 H   0  0  0  0  0  0  0  0  0  0  0  0
   11.5085    3.9079    0.0000 H   0  0  0  0  0  0  0  0  0  0  0  0
   13.2300    1.3518    0.0000 H   0  0  0  0  0  0  0  0  0  0  0  0
  1 11  1  0  0  0  0
  1 21  1  0  0  0  0
  2 21  2  0  0  0  0
  3 24  2  0  0  0  0
  4 27  1  0  0  0  0
  4 28  1  0  0  0  0
  5 26  2  0  0  0  0
  6 31  1  0  0  0  0
  6 73  1  0  0  0  0
  7 32  2  0  0  0  0
  8 18  1  0  0  0  0
  8 19  1  0  0  0  0
  8 24  1  0  0  0  0
  9 25  1  0  0  0  0
  9 27  2  0  0  0  0
 10 26  1  0  0  0  0
 10 33  1  0  0  0  0
 10 63  1  0  0  0  0
 11 12  1  0  0  0  0
 11 13  1  0  0  0  0
 11 39  1  0  0  0  0
 12 14  1  0  0  0  0
 12 15  1  0  0  0  0
 12 40  1  0  0  0  0
 13 16  1  0  0  0  0
 13 17  1  0  0  0  0
 13 41  1  0  0  0  0
 14 44  1  0  0  0  0
 14 45  1  0  0  0  0
 14 46  1  0  0  0  0
 15 42  1  0  0  0  0
 15 43  1  0  0  0  0
 15 47  1  0  0  0  0
 16 48  1  0  0  0  0
 16 49  1  0  0  0  0
 16 50  1  0  0  0  0
 17 23  2  3  0  0  0
 17 51  1  0  0  0  0
 18 21  1  0  0  0  0
 18 22  2  0  0  0  0
 19 20  1  0  0  0  0
 19 52  1  0  0  0  0
 19 53  1  0  0  0  0
 20 22  1  0  0  0  0
 20 54  1  0  0  0  0
 20 55  1  0  0  0  0
 22 56  1  0  0  0  0
 23 26  1  0  0  0  0
 23 57  1  0  0  0  0
 24 25  1  0  0  0  0
 25 28  2  0  0  0  0
 27 29  1  0  0  0  0
 28 58  1  0  0  0  0
 29 32  1  0  0  0  0
 29 59  1  0  0  0  0
 29 60  1  0  0  0  0
 30 31  1  0  0  0  0
 30 32  1  0  0  0  0
 30 61  1  0  0  0  0
 30 62  1  0  0  0  0
 31 34  1  0  0  0  0
 31 64  1  0  0  0  0
 33 36  1  0  0  0  0
 33 65  1  0  0  0  0
 33 66  1  0  0  0  0
 34 35  2  3  0  0  0
 34 67  1  0  0  0  0
 35 37  1  0  0  0  0
 35 38  1  0  0  0  0
 36 37  2  3  0  0  0
 36 68  1  0  0  0  0
 37 69  1  0  0  0  0
 38 70  1  0  0  0  0
 38 71  1  0  0  0  0
 38 72  1  0  0  0  0
M  END
> <PUBCHEM_COMPOUND_CID>
5674

> <PUBCHEM_COMPOUND_CANONICALIZED>
1

> <PUBCHEM_CACTVS_COMPLEXITY>
1030

> <PUBCHEM_CACTVS_HBOND_ACCEPTOR>
8

> <PUBCHEM_CACTVS_HBOND_DONOR>
2

> <PUBCHEM_CACTVS_ROTATABLE_BOND>
1

> <PUBCHEM_CACTVS_SUBSKEYS>
AAADcfB7OAAAAAAAAAAAAAAAAAAAAWIAAAAAAAAAAAAAAAABgAAAHgAQCAAADRzhlgYijBPIFkCoA63y3ASAiCAvYiAICIG9JEgOVB4MoSAfWGiG9gCYsYOYfA5MAAAAAAAAAAAAAAAAAAAAAAAAAAAAAA==

> <PUBCHEM_IUPAC_INCHI>
InChI=1S/C28H35N3O7/c1-17(2)26-19(4)9-10-24(34)29-11-5-7-18(3)13-20(32)14-21(33)15-25-30-22(16-37-25)27(35)31-12-6-8-23(31)28(36)38-26/h5,7-10,13,16-17,19-20,26,32H,6,11-12,14-15H2,1-4H3,(H,29,34)

> <PUBCHEM_IUPAC_INCHIKEY>
DAIKHDNSXMZDCU-UHFFFAOYSA-N

> <PUBCHEM_XLOGP3_AA>
2.5

> <PUBCHEM_EXACT_MASS>
525.2475

> <PUBCHEM_MOLECULAR_FORMULA>
C28H35N3O7

> <PUBCHEM_MOLECULAR_WEIGHT>
525.5934

> <PUBCHEM_OPENEYE_CAN_SMILES>
CC1C=CC(=O)NCC=CC(=CC(CC(=O)CC2=NC(=CO2)C(=O)N3CCC=C3C(=O)OC1C(C)C)O)C

> <PUBCHEM_OPENEYE_ISO_SMILES>
CC1C=CC(=O)NCC=CC(=CC(CC(=O)CC2=NC(=CO2)C(=O)N3CCC=C3C(=O)OC1C(C)C)O)C

> <PUBCHEM_CACTVS_TPSA>
139

> <PUBCHEM_MONOISOTOPIC_WEIGHT>
525.2475

> <PUBCHEM_TOTAL_CHARGE>
0

> <PUBCHEM_HEAVY_ATOM_COUNT>
38

> <PUBCHEM_ATOM_DEF_STEREO_COUNT>
0

> <PUBCHEM_ATOM_UDEF_STEREO_COUNT>
3

> <PUBCHEM_BOND_DEF_STEREO_COUNT>
0

> <PUBCHEM_BOND_UDEF_STEREO_COUNT>
3

> <PUBCHEM_ISOTOPIC_ATOM_COUNT>
0

> <PUBCHEM_COMPONENT_COUNT>
1

> <PUBCHEM_CACTVS_TAUTO_COUNT>
10

> <PUBCHEM_COORDINATE_TYPE>
1
5
255

> <PUBCHEM_BONDANNOTATIONS>
11  12  3
13  16  3
17  23  1
25  28  8
34  35  1
36  37  1
4  27  8
4  28  8
31  6  3
9  25  8
9  27  8

$$$$

