17395509
  -OEChem-06241222502D

 37 39  0     0  0  0  0  0  0999 V2000
    8.7788   -1.9161    0.0000 O   0  0  0  0  0  0  0  0  0  0  0  0
    2.6691   -0.5093    0.0000 O   0  0  0  0  0  0  0  0  0  0  0  0
    6.1808    0.5839    0.0000 O   0  0  0  0  0  0  0  0  0  0  0  0
    7.9128   -0.4161    0.0000 N   0  0  0  0  0  0  0  0  0  0  0  0
    8.7788    1.0839    0.0000 N   0  0  0  0  0  0  0  0  0  0  0  0
    5.3147   -0.9161    0.0000 N   0  0  0  0  0  0  0  0  0  0  0  0
    9.6448   -0.4161    0.0000 C   0  0  0  0  0  0  0  0  0  0  0  0
    9.6448    0.5839    0.0000 C   0  0  0  0  0  0  0  0  0  0  0  0
    7.0468   -0.9161    0.0000 C   0  0  0  0  0  0  0  0  0  0  0  0
    8.7788   -0.9161    0.0000 C   0  0  0  0  0  0  0  0  0  0  0  0
   10.5388    1.1186    0.0000 C   0  0  0  0  0  0  0  0  0  0  0  0
    7.9128    0.5839    0.0000 C   0  0  0  0  0  0  0  0  0  0  0  0
   10.5388   -0.9507    0.0000 C   0  0  0  0  0  0  0  0  0  0  0  0
    6.1808   -0.4161    0.0000 C   0  0  0  0  0  0  0  0  0  0  0  0
   11.4449    0.6047    0.0000 C   0  0  0  0  0  0  0  0  0  0  0  0
    4.4487   -0.4161    0.0000 C   0  0  0  0  0  0  0  0  0  0  0  0
   11.4449   -0.4369    0.0000 C   0  0  0  0  0  0  0  0  0  0  0  0
   10.5272    2.1185    0.0000 C   0  0  0  0  0  0  0  0  0  0  0  0
    3.5827   -0.9161    0.0000 C   0  0  0  0  0  0  0  0  0  0  0  0
    3.4782   -1.9106    0.0000 C   0  0  0  0  0  0  0  0  0  0  0  0
    2.5000   -2.1185    0.0000 C   0  0  0  0  0  0  0  0  0  0  0  0
    2.0000   -1.2525    0.0000 C   0  0  0  0  0  0  0  0  0  0  0  0
    6.6482   -1.3910    0.0000 H   0  0  0  0  0  0  0  0  0  0  0  0
    7.4453   -1.3910    0.0000 H   0  0  0  0  0  0  0  0  0  0  0  0
    7.3759    0.8939    0.0000 H   0  0  0  0  0  0  0  0  0  0  0  0
   10.5316   -1.5707    0.0000 H   0  0  0  0  0  0  0  0  0  0  0  0
    4.8472    0.0589    0.0000 H   0  0  0  0  0  0  0  0  0  0  0  0
    4.0502    0.0589    0.0000 H   0  0  0  0  0  0  0  0  0  0  0  0
   11.9806    0.9168    0.0000 H   0  0  0  0  0  0  0  0  0  0  0  0
    5.3147   -1.5361    0.0000 H   0  0  0  0  0  0  0  0  0  0  0  0
   11.9806   -0.7490    0.0000 H   0  0  0  0  0  0  0  0  0  0  0  0
   11.1472    2.1257    0.0000 H   0  0  0  0  0  0  0  0  0  0  0  0
   10.5201    2.7385    0.0000 H   0  0  0  0  0  0  0  0  0  0  0  0
    9.9073    2.1113    0.0000 H   0  0  0  0  0  0  0  0  0  0  0  0
    3.9389   -2.3255    0.0000 H   0  0  0  0  0  0  0  0  0  0  0  0
    2.2478   -2.6849    0.0000 H   0  0  0  0  0  0  0  0  0  0  0  0
    1.3834   -1.1877    0.0000 H   0  0  0  0  0  0  0  0  0  0  0  0
  1 10  2  0  0  0  0
  2 19  1  0  0  0  0
  2 22  1  0  0  0  0
  3 14  2  0  0  0  0
  4  9  1  0  0  0  0
  4 10  1  0  0  0  0
  4 12  1  0  0  0  0
  5  8  1  0  0  0  0
  5 12  2  0  0  0  0
  6 14  1  0  0  0  0
  6 16  1  0  0  0  0
  6 30  1  0  0  0  0
  7  8  1  0  0  0  0
  7 10  1  0  0  0  0
  7 13  2  0  0  0  0
  8 11  2  0  0  0  0
  9 14  1  0  0  0  0
  9 23  1  0  0  0  0
  9 24  1  0  0  0  0
 11 15  1  0  0  0  0
 11 18  1  0  0  0  0
 12 25  1  0  0  0  0
 13 17  1  0  0  0  0
 13 26  1  0  0  0  0
 15 17  2  0  0  0  0
 15 29  1  0  0  0  0
 16 19  1  0  0  0  0
 16 27  1  0  0  0  0
 16 28  1  0  0  0  0
 17 31  1  0  0  0  0
 18 32  1  0  0  0  0
 18 33  1  0  0  0  0
 18 34  1  0  0  0  0
 19 20  2  0  0  0  0
 20 21  1  0  0  0  0
 20 35  1  0  0  0  0
 21 22  2  0  0  0  0
 21 36  1  0  0  0  0
 22 37  1  0  0  0  0
M  END
> <PUBCHEM_COMPOUND_CID>
17395509

> <PUBCHEM_COMPOUND_CANONICALIZED>
1

> <PUBCHEM_CACTVS_COMPLEXITY>
466

> <PUBCHEM_CACTVS_HBOND_ACCEPTOR>
4

> <PUBCHEM_CACTVS_HBOND_DONOR>
1

> <PUBCHEM_CACTVS_ROTATABLE_BOND>
4

> <PUBCHEM_CACTVS_SUBSKEYS>
AAADccB7MAAAAAAAAAAAAAAAAAAAASAAAAAwQAAAAAAAAACBwAAAHgAQAAAADAzhmAYzxIPABECoAq1T9ACCCAEkIAAJiIGOTMgOZjqE/buXOajk1hGY6ceYmUKOAAACAAACAAAAAAQAAAQAAAAAAAAAAA==

> <PUBCHEM_IUPAC_OPENEYE_NAME>
N-(2-furylmethyl)-2-(8-methyl-4-oxo-quinazolin-3-yl)acetamide

> <PUBCHEM_IUPAC_CAS_NAME>
N-(2-furanylmethyl)-2-(8-methyl-4-oxo-3-quinazolinyl)acetamide

> <PUBCHEM_IUPAC_NAME>
N-(furan-2-ylmethyl)-2-(8-methyl-4-oxoquinazolin-3-yl)acetamide

> <PUBCHEM_IUPAC_SYSTEMATIC_NAME>
N-(furan-2-ylmethyl)-2-(8-methyl-4-oxidanylidene-quinazolin-3-yl)ethanamide

> <PUBCHEM_IUPAC_TRADITIONAL_NAME>
N-(2-furfuryl)-2-(4-keto-8-methyl-quinazolin-3-yl)acetamide

> <PUBCHEM_IUPAC_INCHI>
InChI=1S/C16H15N3O3/c1-11-4-2-6-13-15(11)18-10-19(16(13)21)9-14(20)17-8-12-5-3-7-22-12/h2-7,10H,8-9H2,1H3,(H,17,20)

> <PUBCHEM_IUPAC_INCHIKEY>
TXDMUTHHNBABMQ-UHFFFAOYSA-N

> <PUBCHEM_XLOGP3_AA>
1.2

> <PUBCHEM_EXACT_MASS>
297.111341

> <PUBCHEM_MOLECULAR_FORMULA>
C16H15N3O3

> <PUBCHEM_MOLECULAR_WEIGHT>
297.3086

> <PUBCHEM_OPENEYE_CAN_SMILES>
CC1=CC=CC2=C1N=CN(C2=O)CC(=O)NCC3=CC=CO3

> <PUBCHEM_OPENEYE_ISO_SMILES>
CC1=CC=CC2=C1N=CN(C2=O)CC(=O)NCC3=CC=CO3

> <PUBCHEM_CACTVS_TPSA>
74.9

> <PUBCHEM_MONOISOTOPIC_WEIGHT>
297.111341

> <PUBCHEM_TOTAL_CHARGE>
0

> <PUBCHEM_HEAVY_ATOM_COUNT>
22

> <PUBCHEM_ATOM_DEF_STEREO_COUNT>
0

> <PUBCHEM_ATOM_UDEF_STEREO_COUNT>
0

> <PUBCHEM_BOND_DEF_STEREO_COUNT>
0

> <PUBCHEM_BOND_UDEF_STEREO_COUNT>
0

> <PUBCHEM_ISOTOPIC_ATOM_COUNT>
0

> <PUBCHEM_COMPONENT_COUNT>
1

> <PUBCHEM_CACTVS_TAUTO_COUNT>
2

> <PUBCHEM_COORDINATE_TYPE>
1
5
255

> <PUBCHEM_BONDANNOTATIONS>
11  15  8
13  17  8
15  17  8
19  20  8
2  19  8
2  22  8
20  21  8
21  22  8
4  10  8
4  12  8
5  12  8
5  8  8
7  10  8
7  13  8
7  8  8
8  11  8

$$$$

