11706
  -OEChem-06261206012D

 70 67  0     0  0  0  0  0  0999 V2000
    6.7821    0.0000    0.0000 I   0  5  0  0  0  0  0  0  0  0  0  0
    6.7821    2.5000    0.0000 I   0  5  0  0  0  0  0  0  0  0  0  0
    2.2690    6.7690    0.0000 N   0  3  0  0  0  0  0  0  0  0  0  0
   11.7953    7.2690    0.0000 N   0  3  0  0  0  0  0  0  0  0  0  0
    3.1350    7.2690    0.0000 C   0  0  0  0  0  0  0  0  0  0  0  0
   10.9292    6.7690    0.0000 C   0  0  0  0  0  0  0  0  0  0  0  0
    4.0010    6.7690    0.0000 C   0  0  0  0  0  0  0  0  0  0  0  0
   10.0632    7.2690    0.0000 C   0  0  0  0  0  0  0  0  0  0  0  0
    1.4030    6.2690    0.0000 C   0  0  0  0  0  0  0  0  0  0  0  0
    1.7690    7.6350    0.0000 C   0  0  0  0  0  0  0  0  0  0  0  0
   12.6613    7.7690    0.0000 C   0  0  0  0  0  0  0  0  0  0  0  0
   12.2953    6.4030    0.0000 C   0  0  0  0  0  0  0  0  0  0  0  0
    4.8671    7.2690    0.0000 C   0  0  0  0  0  0  0  0  0  0  0  0
    9.1972    6.7690    0.0000 C   0  0  0  0  0  0  0  0  0  0  0  0
    2.7690    5.9030    0.0000 C   0  0  0  0  0  0  0  0  0  0  0  0
   11.2953    8.1350    0.0000 C   0  0  0  0  0  0  0  0  0  0  0  0
    5.7331    6.7690    0.0000 C   0  0  0  0  0  0  0  0  0  0  0  0
    8.3312    7.2690    0.0000 C   0  0  0  0  0  0  0  0  0  0  0  0
    6.5991    7.2690    0.0000 C   0  0  0  0  0  0  0  0  0  0  0  0
    7.4651    6.7690    0.0000 C   0  0  0  0  0  0  0  0  0  0  0  0
    0.5369    6.7690    0.0000 C   0  0  0  0  0  0  0  0  0  0  0  0
    2.2690    8.5010    0.0000 C   0  0  0  0  0  0  0  0  0  0  0  0
   13.5273    7.2690    0.0000 C   0  0  0  0  0  0  0  0  0  0  0  0
   11.7953    5.5369    0.0000 C   0  0  0  0  0  0  0  0  0  0  0  0
   10.5307    6.2940    0.0000 H   0  0  0  0  0  0  0  0  0  0  0  0
   11.3278    6.2940    0.0000 H   0  0  0  0  0  0  0  0  0  0  0  0
    3.5335    7.7439    0.0000 H   0  0  0  0  0  0  0  0  0  0  0  0
    2.7365    7.7439    0.0000 H   0  0  0  0  0  0  0  0  0  0  0  0
   10.4617    7.7439    0.0000 H   0  0  0  0  0  0  0  0  0  0  0  0
    9.6647    7.7439    0.0000 H   0  0  0  0  0  0  0  0  0  0  0  0
    3.6025    6.2940    0.0000 H   0  0  0  0  0  0  0  0  0  0  0  0
    4.3996    6.2940    0.0000 H   0  0  0  0  0  0  0  0  0  0  0  0
   12.7702    6.0044    0.0000 H   0  0  0  0  0  0  0  0  0  0  0  0
   12.7702    6.8015    0.0000 H   0  0  0  0  0  0  0  0  0  0  0  0
   13.0598    8.2439    0.0000 H   0  0  0  0  0  0  0  0  0  0  0  0
   12.2628    8.2439    0.0000 H   0  0  0  0  0  0  0  0  0  0  0  0
    1.2940    8.0335    0.0000 H   0  0  0  0  0  0  0  0  0  0  0  0
    1.2940    7.2365    0.0000 H   0  0  0  0  0  0  0  0  0  0  0  0
    1.0044    5.7940    0.0000 H   0  0  0  0  0  0  0  0  0  0  0  0
    1.8015    5.7940    0.0000 H   0  0  0  0  0  0  0  0  0  0  0  0
    5.2656    7.7439    0.0000 H   0  0  0  0  0  0  0  0  0  0  0  0
    4.4685    7.7439    0.0000 H   0  0  0  0  0  0  0  0  0  0  0  0
    8.7987    6.2940    0.0000 H   0  0  0  0  0  0  0  0  0  0  0  0
    9.5957    6.2940    0.0000 H   0  0  0  0  0  0  0  0  0  0  0  0
    2.2320    5.5930    0.0000 H   0  0  0  0  0  0  0  0  0  0  0  0
    3.0790    5.3660    0.0000 H   0  0  0  0  0  0  0  0  0  0  0  0
    3.3059    6.2130    0.0000 H   0  0  0  0  0  0  0  0  0  0  0  0
   11.8322    8.4450    0.0000 H   0  0  0  0  0  0  0  0  0  0  0  0
   10.9853    8.6720    0.0000 H   0  0  0  0  0  0  0  0  0  0  0  0
   10.7583    7.8250    0.0000 H   0  0  0  0  0  0  0  0  0  0  0  0
    5.3346    6.2940    0.0000 H   0  0  0  0  0  0  0  0  0  0  0  0
    6.1316    6.2940    0.0000 H   0  0  0  0  0  0  0  0  0  0  0  0
    8.7297    7.7439    0.0000 H   0  0  0  0  0  0  0  0  0  0  0  0
    7.9326    7.7439    0.0000 H   0  0  0  0  0  0  0  0  0  0  0  0
    6.9976    7.7439    0.0000 H   0  0  0  0  0  0  0  0  0  0  0  0
    6.2006    7.7439    0.0000 H   0  0  0  0  0  0  0  0  0  0  0  0
    7.0666    6.2940    0.0000 H   0  0  0  0  0  0  0  0  0  0  0  0
    7.8637    6.2940    0.0000 H   0  0  0  0  0  0  0  0  0  0  0  0
   11.2583    5.8469    0.0000 H   0  0  0  0  0  0  0  0  0  0  0  0
   11.4853    5.0000    0.0000 H   0  0  0  0  0  0  0  0  0  0  0  0
   12.3322    5.2269    0.0000 H   0  0  0  0  0  0  0  0  0  0  0  0
   13.2173    6.7320    0.0000 H   0  0  0  0  0  0  0  0  0  0  0  0
   14.0643    6.9590    0.0000 H   0  0  0  0  0  0  0  0  0  0  0  0
   13.8373    7.8059    0.0000 H   0  0  0  0  0  0  0  0  0  0  0  0
    2.8059    8.1910    0.0000 H   0  0  0  0  0  0  0  0  0  0  0  0
    2.5790    9.0380    0.0000 H   0  0  0  0  0  0  0  0  0  0  0  0
    1.7320    8.8110    0.0000 H   0  0  0  0  0  0  0  0  0  0  0  0
    0.8469    7.3059    0.0000 H   0  0  0  0  0  0  0  0  0  0  0  0
    0.0000    7.0790    0.0000 H   0  0  0  0  0  0  0  0  0  0  0  0
    0.2269    6.2320    0.0000 H   0  0  0  0  0  0  0  0  0  0  0  0
  3  5  1  0  0  0  0
  3  9  1  0  0  0  0
  3 10  1  0  0  0  0
  3 15  1  0  0  0  0
  4  6  1  0  0  0  0
  4 11  1  0  0  0  0
  4 12  1  0  0  0  0
  4 16  1  0  0  0  0
  5  7  1  0  0  0  0
  5 27  1  0  0  0  0
  5 28  1  0  0  0  0
  6  8  1  0  0  0  0
  6 25  1  0  0  0  0
  6 26  1  0  0  0  0
  7 13  1  0  0  0  0
  7 31  1  0  0  0  0
  7 32  1  0  0  0  0
  8 14  1  0  0  0  0
  8 29  1  0  0  0  0
  8 30  1  0  0  0  0
  9 21  1  0  0  0  0
  9 39  1  0  0  0  0
  9 40  1  0  0  0  0
 10 22  1  0  0  0  0
 10 37  1  0  0  0  0
 10 38  1  0  0  0  0
 11 23  1  0  0  0  0
 11 35  1  0  0  0  0
 11 36  1  0  0  0  0
 12 24  1  0  0  0  0
 12 33  1  0  0  0  0
 12 34  1  0  0  0  0
 13 17  1  0  0  0  0
 13 41  1  0  0  0  0
 13 42  1  0  0  0  0
 14 18  1  0  0  0  0
 14 43  1  0  0  0  0
 14 44  1  0  0  0  0
 15 45  1  0  0  0  0
 15 46  1  0  0  0  0
 15 47  1  0  0  0  0
 16 48  1  0  0  0  0
 16 49  1  0  0  0  0
 16 50  1  0  0  0  0
 17 19  1  0  0  0  0
 17 51  1  0  0  0  0
 17 52  1  0  0  0  0
 18 20  1  0  0  0  0
 18 53  1  0  0  0  0
 18 54  1  0  0  0  0
 19 20  1  0  0  0  0
 19 55  1  0  0  0  0
 19 56  1  0  0  0  0
 20 57  1  0  0  0  0
 20 58  1  0  0  0  0
 21 68  1  0  0  0  0
 21 69  1  0  0  0  0
 21 70  1  0  0  0  0
 22 65  1  0  0  0  0
 22 66  1  0  0  0  0
 22 67  1  0  0  0  0
 23 62  1  0  0  0  0
 23 63  1  0  0  0  0
 23 64  1  0  0  0  0
 24 59  1  0  0  0  0
 24 60  1  0  0  0  0
 24 61  1  0  0  0  0
M  CHG  4   1  -1   2  -1   3   1   4   1
M  END
> <PUBCHEM_COMPOUND_CID>
11706

> <PUBCHEM_COMPOUND_CANONICALIZED>
1

> <PUBCHEM_CACTVS_COMPLEXITY>
216

> <PUBCHEM_CACTVS_HBOND_ACCEPTOR>
2

> <PUBCHEM_CACTVS_HBOND_DONOR>
0

> <PUBCHEM_CACTVS_ROTATABLE_BOND>
15

> <PUBCHEM_CACTVS_SUBSKEYS>
AAADcfB7AAAAAwAAAAAAAAAAAAAAAAAAAAAAAAAAAAAAAAAAAAAAHAAAAAAACADBAAQCAAMAAAAAAAAAAAAAAAAAAAAAAAAIAAAAAAIAgAAEAAAAAACAAAEQgIAAAAAAAAAAAAAAAAAAAAAAAAAAAAAAAA==

> <PUBCHEM_IUPAC_OPENEYE_NAME>
10-[diethyl(methyl)ammonio]decyl-diethyl-methyl-ammonium diiodide

> <PUBCHEM_IUPAC_CAS_NAME>
10-[diethyl(methyl)ammonio]decyl-diethyl-methylammonium diiodide

> <PUBCHEM_IUPAC_NAME>
10-[diethyl(methyl)azaniumyl]decyl-diethyl-methylazanium diiodide

> <PUBCHEM_IUPAC_SYSTEMATIC_NAME>
10-[diethyl(methyl)azaniumyl]decyl-diethyl-methyl-azanium diiodide

> <PUBCHEM_IUPAC_TRADITIONAL_NAME>
10-[diethyl(methyl)ammonio]decyl-diethyl-methyl-ammonium diiodide

> <PUBCHEM_IUPAC_INCHI>
InChI=1S/C20H46N2.2HI/c1-7-21(5,8-2)19-17-15-13-11-12-14-16-18-20-22(6,9-3)10-4;;/h7-20H2,1-6H3;2*1H/q+2;;/p-2

> <PUBCHEM_IUPAC_INCHIKEY>
CDQVEDUZPNUWGY-UHFFFAOYSA-L

> <PUBCHEM_EXACT_MASS>
568.175045

> <PUBCHEM_MOLECULAR_FORMULA>
C20H46I2N2

> <PUBCHEM_MOLECULAR_WEIGHT>
568.40158

> <PUBCHEM_OPENEYE_CAN_SMILES>
CC[N+](C)(CC)CCCCCCCCCC[N+](C)(CC)CC.[I-].[I-]

> <PUBCHEM_OPENEYE_ISO_SMILES>
CC[N+](C)(CC)CCCCCCCCCC[N+](C)(CC)CC.[I-].[I-]

> <PUBCHEM_CACTVS_TPSA>
0

> <PUBCHEM_MONOISOTOPIC_WEIGHT>
568.175045

> <PUBCHEM_TOTAL_CHARGE>
0

> <PUBCHEM_HEAVY_ATOM_COUNT>
24

> <PUBCHEM_ATOM_DEF_STEREO_COUNT>
0

> <PUBCHEM_ATOM_UDEF_STEREO_COUNT>
0

> <PUBCHEM_BOND_DEF_STEREO_COUNT>
0

> <PUBCHEM_BOND_UDEF_STEREO_COUNT>
0

> <PUBCHEM_ISOTOPIC_ATOM_COUNT>
0

> <PUBCHEM_COMPONENT_COUNT>
3

> <PUBCHEM_CACTVS_TAUTO_COUNT>
1

> <PUBCHEM_COORDINATE_TYPE>
1
5
255

$$$$

