5912
  -OEChem-06261200582D

 50 50  0     0  0  0  0  0  0999 V2000
    4.3671    0.0000    0.0000 Cl  0  0  0  0  0  0  0  0  0  0  0  0
    4.8671    5.1200    0.0000 S   0  0  0  0  0  0  0  0  0  0  0  0
    8.3312    6.1200    0.0000 O   0  0  0  0  0  0  0  0  0  0  0  0
    1.4030    5.1200    0.0000 N   0  0  0  0  0  0  0  0  0  0  0  0
    6.5991    6.1200    0.0000 N   0  0  0  0  0  0  0  0  0  0  0  0
    3.1350    5.1200    0.0000 C   0  0  0  0  0  0  0  0  0  0  0  0
    2.2690    4.6200    0.0000 C   0  0  0  0  0  0  0  0  0  0  0  0
    4.0010    4.6200    0.0000 C   0  0  0  0  0  0  0  0  0  0  0  0
    0.5369    4.6200    0.0000 C   0  0  0  0  0  0  0  0  0  0  0  0
    1.4030    6.1200    0.0000 C   0  0  0  0  0  0  0  0  0  0  0  0
    5.7331    4.6200    0.0000 C   0  0  0  0  0  0  0  0  0  0  0  0
    6.5991    5.1200    0.0000 C   0  0  0  0  0  0  0  0  0  0  0  0
    5.7331    3.6200    0.0000 C   0  0  0  0  0  0  0  0  0  0  0  0
    7.4651    4.6200    0.0000 C   0  0  0  0  0  0  0  0  0  0  0  0
    6.5991    3.1200    0.0000 C   0  0  0  0  0  0  0  0  0  0  0  0
    7.4651    3.6200    0.0000 C   0  0  0  0  0  0  0  0  0  0  0  0
    7.4651    6.6200    0.0000 C   0  0  0  0  0  0  0  0  0  0  0  0
    7.4651    7.6200    0.0000 C   0  0  0  0  0  0  0  0  0  0  0  0
    8.3312    9.1200    0.0000 C   0  0  0  0  0  0  0  0  0  0  0  0
    8.3312    8.1200    0.0000 C   0  0  0  0  0  0  0  0  0  0  0  0
    9.1972    9.6200    0.0000 C   0  0  0  0  0  0  0  0  0  0  0  0
    7.4651    9.6200    0.0000 C   0  0  0  0  0  0  0  0  0  0  0  0
    9.1972   10.6200    0.0000 C   0  0  0  0  0  0  0  0  0  0  0  0
    7.4651   10.6200    0.0000 C   0  0  0  0  0  0  0  0  0  0  0  0
    8.3312   11.1200    0.0000 C   0  0  0  0  0  0  0  0  0  0  0  0
    3.5335    5.5950    0.0000 H   0  0  0  0  0  0  0  0  0  0  0  0
    2.7365    5.5950    0.0000 H   0  0  0  0  0  0  0  0  0  0  0  0
    1.8705    4.1450    0.0000 H   0  0  0  0  0  0  0  0  0  0  0  0
    2.6675    4.1450    0.0000 H   0  0  0  0  0  0  0  0  0  0  0  0
    3.6025    4.1450    0.0000 H   0  0  0  0  0  0  0  0  0  0  0  0
    4.3996    4.1450    0.0000 H   0  0  0  0  0  0  0  0  0  0  0  0
    0.2269    5.1569    0.0000 H   0  0  0  0  0  0  0  0  0  0  0  0
    2.0230    6.1200    0.0000 H   0  0  0  0  0  0  0  0  0  0  0  0
    1.4030    6.7400    0.0000 H   0  0  0  0  0  0  0  0  0  0  0  0
    0.7830    6.1200    0.0000 H   0  0  0  0  0  0  0  0  0  0  0  0
    0.0000    4.3100    0.0000 H   0  0  0  0  0  0  0  0  0  0  0  0
    0.8469    4.0831    0.0000 H   0  0  0  0  0  0  0  0  0  0  0  0
    5.1962    3.3100    0.0000 H   0  0  0  0  0  0  0  0  0  0  0  0
    8.0021    4.9300    0.0000 H   0  0  0  0  0  0  0  0  0  0  0  0
    6.0622    6.4300    0.0000 H   0  0  0  0  0  0  0  0  0  0  0  0
    6.5991    2.5000    0.0000 H   0  0  0  0  0  0  0  0  0  0  0  0
    8.0021    3.3100    0.0000 H   0  0  0  0  0  0  0  0  0  0  0  0
    6.9282    7.9300    0.0000 H   0  0  0  0  0  0  0  0  0  0  0  0
    8.8681    7.8100    0.0000 H   0  0  0  0  0  0  0  0  0  0  0  0
    9.7341    9.3100    0.0000 H   0  0  0  0  0  0  0  0  0  0  0  0
    6.9282    9.3100    0.0000 H   0  0  0  0  0  0  0  0  0  0  0  0
    9.7341   10.9300    0.0000 H   0  0  0  0  0  0  0  0  0  0  0  0
    6.9282   10.9300    0.0000 H   0  0  0  0  0  0  0  0  0  0  0  0
    8.3312   11.7400    0.0000 H   0  0  0  0  0  0  0  0  0  0  0  0
    5.3671    0.0000    0.0000 H   0  0  0  0  0  0  0  0  0  0  0  0
  1 50  1  0  0  0  0
  2  8  1  0  0  0  0
  2 11  1  0  0  0  0
  3 17  2  0  0  0  0
  4  7  1  0  0  0  0
  4  9  1  0  0  0  0
  4 10  1  0  0  0  0
  5 12  1  0  0  0  0
  5 17  1  0  0  0  0
  5 40  1  0  0  0  0
  6  7  1  0  0  0  0
  6  8  1  0  0  0  0
  6 26  1  0  0  0  0
  6 27  1  0  0  0  0
  7 28  1  0  0  0  0
  7 29  1  0  0  0  0
  8 30  1  0  0  0  0
  8 31  1  0  0  0  0
  9 32  1  0  0  0  0
  9 36  1  0  0  0  0
  9 37  1  0  0  0  0
 10 33  1  0  0  0  0
 10 34  1  0  0  0  0
 10 35  1  0  0  0  0
 11 12  1  0  0  0  0
 11 13  2  0  0  0  0
 12 14  2  0  0  0  0
 13 15  1  0  0  0  0
 13 38  1  0  0  0  0
 14 16  1  0  0  0  0
 14 39  1  0  0  0  0
 15 16  2  0  0  0  0
 15 41  1  0  0  0  0
 16 42  1  0  0  0  0
 17 18  1  0  0  0  0
 18 20  2  3  0  0  0
 18 43  1  0  0  0  0
 19 20  1  0  0  0  0
 19 21  2  0  0  0  0
 19 22  1  0  0  0  0
 20 44  1  0  0  0  0
 21 23  1  0  0  0  0
 21 45  1  0  0  0  0
 22 24  2  0  0  0  0
 22 46  1  0  0  0  0
 23 25  2  0  0  0  0
 23 47  1  0  0  0  0
 24 25  1  0  0  0  0
 24 48  1  0  0  0  0
 25 49  1  0  0  0  0
M  END
> <PUBCHEM_COMPOUND_CID>
5912

> <PUBCHEM_COMPOUND_CANONICALIZED>
1

> <PUBCHEM_CACTVS_COMPLEXITY>
391

> <PUBCHEM_CACTVS_HBOND_ACCEPTOR>
3

> <PUBCHEM_CACTVS_HBOND_DONOR>
2

> <PUBCHEM_CACTVS_ROTATABLE_BOND>
8

> <PUBCHEM_CACTVS_SUBSKEYS>
AAADceB7IABEAAAAAAAAAAAAAAAAAAAAAAAwYAAAAAAAAAABQAAAHgQQAAAADAjF2ASywYPAAAiIAiVSUACCAAAhChAIiBwIZMgIICLgkZGEIAhglADoyYcQgAAOAAAAAAAAAQAAAAAAAAACAAAAAAAAAA==

> <PUBCHEM_IUPAC_OPENEYE_NAME>
N-[2-[3-(dimethylamino)propylsulfanyl]phenyl]-3-phenyl-prop-2-enamide hydrochloride

> <PUBCHEM_IUPAC_CAS_NAME>
N-[2-[3-(dimethylamino)propylthio]phenyl]-3-phenyl-2-propenamide hydrochloride

> <PUBCHEM_IUPAC_NAME>
N-[2-[3-(dimethylamino)propylsulfanyl]phenyl]-3-phenylprop-2-enamide hydrochloride

> <PUBCHEM_IUPAC_SYSTEMATIC_NAME>
N-[2-[3-(dimethylamino)propylsulfanyl]phenyl]-3-phenyl-prop-2-enamide hydrochloride

> <PUBCHEM_IUPAC_TRADITIONAL_NAME>
N-[2-[3-(dimethylamino)propylthio]phenyl]-3-phenyl-acrylamide hydrochloride

> <PUBCHEM_IUPAC_INCHI>
InChI=1S/C20H24N2OS.ClH/c1-22(2)15-8-16-24-19-12-7-6-11-18(19)21-20(23)14-13-17-9-4-3-5-10-17;/h3-7,9-14H,8,15-16H2,1-2H3,(H,21,23);1H

> <PUBCHEM_IUPAC_INCHIKEY>
LXGJPDKYMJJWRB-UHFFFAOYSA-N

> <PUBCHEM_EXACT_MASS>
376.137612

> <PUBCHEM_MOLECULAR_FORMULA>
C20H25ClN2OS

> <PUBCHEM_MOLECULAR_WEIGHT>
376.9433

> <PUBCHEM_OPENEYE_CAN_SMILES>
CN(C)CCCSC1=CC=CC=C1NC(=O)C=CC2=CC=CC=C2.Cl

> <PUBCHEM_OPENEYE_ISO_SMILES>
CN(C)CCCSC1=CC=CC=C1NC(=O)C=CC2=CC=CC=C2.Cl

> <PUBCHEM_CACTVS_TPSA>
57.6

> <PUBCHEM_MONOISOTOPIC_WEIGHT>
376.137612

> <PUBCHEM_TOTAL_CHARGE>
0

> <PUBCHEM_HEAVY_ATOM_COUNT>
25

> <PUBCHEM_ATOM_DEF_STEREO_COUNT>
0

> <PUBCHEM_ATOM_UDEF_STEREO_COUNT>
0

> <PUBCHEM_BOND_DEF_STEREO_COUNT>
0

> <PUBCHEM_BOND_UDEF_STEREO_COUNT>
1

> <PUBCHEM_ISOTOPIC_ATOM_COUNT>
0

> <PUBCHEM_COMPONENT_COUNT>
2

> <PUBCHEM_CACTVS_TAUTO_COUNT>
2

> <PUBCHEM_COORDINATE_TYPE>
1
5
255

> <PUBCHEM_BONDANNOTATIONS>
11  12  8
11  13  8
12  14  8
13  15  8
14  16  8
15  16  8
18  20  1
19  21  8
19  22  8
21  23  8
22  24  8
23  25  8
24  25  8

$$$$

