11944
  -OEChem-06261206192D

 19 20  0     0  0  0  0  0  0999 V2000
    2.0000   -1.2673    0.0000 N   0  0  0  0  0  0  0  0  0  0  0  0
    5.4641   -0.2673    0.0000 C   0  0  0  0  0  0  0  0  0  0  0  0
    5.4641    0.7327    0.0000 C   0  0  0  0  0  0  0  0  0  0  0  0
    4.5981   -0.7673    0.0000 C   0  0  0  0  0  0  0  0  0  0  0  0
    4.5981    1.2327    0.0000 C   0  0  0  0  0  0  0  0  0  0  0  0
    6.3580   -0.8020    0.0000 C   0  0  0  0  0  0  0  0  0  0  0  0
    6.3580    1.2673    0.0000 C   0  0  0  0  0  0  0  0  0  0  0  0
    3.7320   -0.2673    0.0000 C   0  0  0  0  0  0  0  0  0  0  0  0
    3.7320    0.7327    0.0000 C   0  0  0  0  0  0  0  0  0  0  0  0
    7.2641   -0.2881    0.0000 C   0  0  0  0  0  0  0  0  0  0  0  0
    7.2641    0.7535    0.0000 C   0  0  0  0  0  0  0  0  0  0  0  0
    2.8660   -0.7673    0.0000 C   0  0  0  0  0  0  0  0  0  0  0  0
    4.5981   -1.3873    0.0000 H   0  0  0  0  0  0  0  0  0  0  0  0
    4.5981    1.8527    0.0000 H   0  0  0  0  0  0  0  0  0  0  0  0
    6.3509   -1.4220    0.0000 H   0  0  0  0  0  0  0  0  0  0  0  0
    6.3509    1.8873    0.0000 H   0  0  0  0  0  0  0  0  0  0  0  0
    3.1951    1.0427    0.0000 H   0  0  0  0  0  0  0  0  0  0  0  0
    7.7998   -0.6002    0.0000 H   0  0  0  0  0  0  0  0  0  0  0  0
    7.7998    1.0656    0.0000 H   0  0  0  0  0  0  0  0  0  0  0  0
  1 12  3  0  0  0  0
  2  3  1  0  0  0  0
  2  4  1  0  0  0  0
  2  6  2  0  0  0  0
  3  5  1  0  0  0  0
  3  7  2  0  0  0  0
  4  8  2  0  0  0  0
  4 13  1  0  0  0  0
  5  9  2  0  0  0  0
  5 14  1  0  0  0  0
  6 10  1  0  0  0  0
  6 15  1  0  0  0  0
  7 11  1  0  0  0  0
  7 16  1  0  0  0  0
  8  9  1  0  0  0  0
  8 12  1  0  0  0  0
  9 17  1  0  0  0  0
 10 11  2  0  0  0  0
 10 18  1  0  0  0  0
 11 19  1  0  0  0  0
M  END
> <PUBCHEM_COMPOUND_CID>
11944

> <PUBCHEM_COMPOUND_CANONICALIZED>
1

> <PUBCHEM_CACTVS_COMPLEXITY>
200

> <PUBCHEM_CACTVS_HBOND_ACCEPTOR>
1

> <PUBCHEM_CACTVS_HBOND_DONOR>
0

> <PUBCHEM_CACTVS_ROTATABLE_BOND>
0

> <PUBCHEM_CACTVS_SUBSKEYS>
AAADcYByAAAAAAAAAAAAAAAAAAAAAAAAAAAwYAAAAAAAAADBUAAAHAAAAAAADACBGAAwAMAAAACQBiBCAAAiAAAgAAAIiAAAAIgIoCKAERCAIAAggAAIiA8AgMAOwAACAAAQAACAAAQAACAAAAAAAAAAAA==

> <PUBCHEM_IUPAC_OPENEYE_NAME>
naphthalene-2-carbonitrile

> <PUBCHEM_IUPAC_CAS_NAME>
2-naphthalenecarbonitrile

> <PUBCHEM_IUPAC_NAME>
naphthalene-2-carbonitrile

> <PUBCHEM_IUPAC_SYSTEMATIC_NAME>
naphthalene-2-carbonitrile

> <PUBCHEM_IUPAC_TRADITIONAL_NAME>
naphthalene-2-carbonitrile

> <PUBCHEM_IUPAC_INCHI>
InChI=1S/C11H7N/c12-8-9-5-6-10-3-1-2-4-11(10)7-9/h1-7H

> <PUBCHEM_IUPAC_INCHIKEY>
AZKDTTQQTKDXLH-UHFFFAOYSA-N

> <PUBCHEM_XLOGP3>
3.2

> <PUBCHEM_EXACT_MASS>
153.057849

> <PUBCHEM_MOLECULAR_FORMULA>
C11H7N

> <PUBCHEM_MOLECULAR_WEIGHT>
153.17998

> <PUBCHEM_OPENEYE_CAN_SMILES>
C1=CC=C2C=C(C=CC2=C1)C#N

> <PUBCHEM_OPENEYE_ISO_SMILES>
C1=CC=C2C=C(C=CC2=C1)C#N

> <PUBCHEM_CACTVS_TPSA>
23.8

> <PUBCHEM_MONOISOTOPIC_WEIGHT>
153.057849

> <PUBCHEM_TOTAL_CHARGE>
0

> <PUBCHEM_HEAVY_ATOM_COUNT>
12

> <PUBCHEM_ATOM_DEF_STEREO_COUNT>
0

> <PUBCHEM_ATOM_UDEF_STEREO_COUNT>
0

> <PUBCHEM_BOND_DEF_STEREO_COUNT>
0

> <PUBCHEM_BOND_UDEF_STEREO_COUNT>
0

> <PUBCHEM_ISOTOPIC_ATOM_COUNT>
0

> <PUBCHEM_COMPONENT_COUNT>
1

> <PUBCHEM_CACTVS_TAUTO_COUNT>
1

> <PUBCHEM_COORDINATE_TYPE>
1
5
255

> <PUBCHEM_BONDANNOTATIONS>
10  11  8
2  3  8
2  4  8
2  6  8
3  5  8
3  7  8
4  8  8
5  9  8
6  10  8
7  11  8
8  9  8

$$$$

