47205498
  -OEChem-06241222592D

 37 38  0     0  0  0  0  0  0999 V2000
    3.5704   -1.3092    0.0000 S   0  0  0  0  0  0  0  0  0  0  0  0
    6.2160    0.0975    0.0000 O   0  0  0  0  0  0  0  0  0  0  0  0
    4.3794    0.0920    0.0000 N   0  0  0  0  0  0  0  0  0  0  0  0
    5.3500   -1.4025    0.0000 N   0  0  0  0  0  0  0  0  0  0  0  0
    8.8141   -1.4025    0.0000 N   0  0  0  0  0  0  0  0  0  0  0  0
   10.5461   -1.4025    0.0000 N   0  0  0  0  0  0  0  0  0  0  0  0
    9.6801    0.0975    0.0000 N   0  0  0  0  0  0  0  0  0  0  0  0
    2.9945    1.2135    0.0000 C   0  0  0  0  0  0  0  0  0  0  0  0
    3.4013    0.2999    0.0000 C   0  0  0  0  0  0  0  0  0  0  0  0
    2.0000    1.3180    0.0000 C   0  0  0  0  0  0  0  0  0  0  0  0
    3.5823    2.0225    0.0000 C   0  0  0  0  0  0  0  0  0  0  0  0
    7.0820   -1.4025    0.0000 C   0  0  0  0  0  0  0  0  0  0  0  0
    7.9480   -0.9025    0.0000 C   0  0  0  0  0  0  0  0  0  0  0  0
    4.4839   -0.9025    0.0000 C   0  0  0  0  0  0  0  0  0  0  0  0
    2.9013   -0.5661    0.0000 C   0  0  0  0  0  0  0  0  0  0  0  0
    6.2160   -0.9025    0.0000 C   0  0  0  0  0  0  0  0  0  0  0  0
    9.6801   -0.9025    0.0000 C   0  0  0  0  0  0  0  0  0  0  0  0
   11.4121   -0.9025    0.0000 C   0  0  0  0  0  0  0  0  0  0  0  0
   10.5461    0.5975    0.0000 C   0  0  0  0  0  0  0  0  0  0  0  0
   11.4121    0.0975    0.0000 C   0  0  0  0  0  0  0  0  0  0  0  0
    3.6111    1.1487    0.0000 H   0  0  0  0  0  0  0  0  0  0  0  0
    4.0839    1.6581    0.0000 H   0  0  0  0  0  0  0  0  0  0  0  0
    3.9467    2.5241    0.0000 H   0  0  0  0  0  0  0  0  0  0  0  0
    2.0648    1.9346    0.0000 H   0  0  0  0  0  0  0  0  0  0  0  0
    1.3834    1.3828    0.0000 H   0  0  0  0  0  0  0  0  0  0  0  0
    1.9352    0.7014    0.0000 H   0  0  0  0  0  0  0  0  0  0  0  0
    3.0807    2.3869    0.0000 H   0  0  0  0  0  0  0  0  0  0  0  0
    6.6835   -1.8774    0.0000 H   0  0  0  0  0  0  0  0  0  0  0  0
    7.4805   -1.8774    0.0000 H   0  0  0  0  0  0  0  0  0  0  0  0
    8.3466   -0.4276    0.0000 H   0  0  0  0  0  0  0  0  0  0  0  0
    7.5495   -0.4276    0.0000 H   0  0  0  0  0  0  0  0  0  0  0  0
    2.2846   -0.6309    0.0000 H   0  0  0  0  0  0  0  0  0  0  0  0
    5.3500   -2.0225    0.0000 H   0  0  0  0  0  0  0  0  0  0  0  0
    8.8141   -2.0225    0.0000 H   0  0  0  0  0  0  0  0  0  0  0  0
   11.9491   -1.2125    0.0000 H   0  0  0  0  0  0  0  0  0  0  0  0
   10.5461    1.2175    0.0000 H   0  0  0  0  0  0  0  0  0  0  0  0
   11.9491    0.4075    0.0000 H   0  0  0  0  0  0  0  0  0  0  0  0
  1 14  1  0  0  0  0
  1 15  1  0  0  0  0
  2 16  2  0  0  0  0
  3  9  1  0  0  0  0
  3 14  2  0  0  0  0
  4 14  1  0  0  0  0
  4 16  1  0  0  0  0
  4 33  1  0  0  0  0
  5 13  1  0  0  0  0
  5 17  1  0  0  0  0
  5 34  1  0  0  0  0
  6 17  1  0  0  0  0
  6 18  2  0  0  0  0
  7 17  2  0  0  0  0
  7 19  1  0  0  0  0
  8  9  1  0  0  0  0
  8 10  1  0  0  0  0
  8 11  1  0  0  0  0
  8 21  1  0  0  0  0
  9 15  2  0  0  0  0
 10 24  1  0  0  0  0
 10 25  1  0  0  0  0
 10 26  1  0  0  0  0
 11 22  1  0  0  0  0
 11 23  1  0  0  0  0
 11 27  1  0  0  0  0
 12 13  1  0  0  0  0
 12 16  1  0  0  0  0
 12 28  1  0  0  0  0
 12 29  1  0  0  0  0
 13 30  1  0  0  0  0
 13 31  1  0  0  0  0
 15 32  1  0  0  0  0
 18 20  1  0  0  0  0
 18 35  1  0  0  0  0
 19 20  2  0  0  0  0
 19 36  1  0  0  0  0
 20 37  1  0  0  0  0
M  END
> <PUBCHEM_COMPOUND_CID>
47205498

> <PUBCHEM_COMPOUND_CANONICALIZED>
1

> <PUBCHEM_CACTVS_COMPLEXITY>
309

> <PUBCHEM_CACTVS_HBOND_ACCEPTOR>
6

> <PUBCHEM_CACTVS_HBOND_DONOR>
2

> <PUBCHEM_CACTVS_ROTATABLE_BOND>
6

> <PUBCHEM_CACTVS_SUBSKEYS>
AAADceBzoABAAAAAAAAAAAAAAAAAAWAAAAAsAAAAAAAAAAAB4AAAHgQQAAAADQjF1gS/kZbIEAisATV3dACA8KlxCrkJULU4ZBiAKIhgSUAEBAgIEQJAACAAAAAIAAAAAAAAAAAAAAAAAAAAAAAAAAAAAA==

> <PUBCHEM_IUPAC_OPENEYE_NAME>
N-(4-isopropylthiazol-2-yl)-3-(pyrimidin-2-ylamino)propanamide

> <PUBCHEM_IUPAC_CAS_NAME>
N-(4-propan-2-yl-2-thiazolyl)-3-(2-pyrimidinylamino)propanamide

> <PUBCHEM_IUPAC_NAME>
N-(4-propan-2-yl-1,3-thiazol-2-yl)-3-(pyrimidin-2-ylamino)propanamide

> <PUBCHEM_IUPAC_SYSTEMATIC_NAME>
N-(4-propan-2-yl-1,3-thiazol-2-yl)-3-(pyrimidin-2-ylamino)propanamide

> <PUBCHEM_IUPAC_TRADITIONAL_NAME>
N-(4-isopropylthiazol-2-yl)-3-(2-pyrimidylamino)propionamide

> <PUBCHEM_IUPAC_INCHI>
InChI=1S/C13H17N5OS/c1-9(2)10-8-20-13(17-10)18-11(19)4-7-16-12-14-5-3-6-15-12/h3,5-6,8-9H,4,7H2,1-2H3,(H,14,15,16)(H,17,18,19)

> <PUBCHEM_IUPAC_INCHIKEY>
PZEBUSJBRWDZEM-UHFFFAOYSA-N

> <PUBCHEM_XLOGP3_AA>
2.4

> <PUBCHEM_EXACT_MASS>
291.115381

> <PUBCHEM_MOLECULAR_FORMULA>
C13H17N5OS

> <PUBCHEM_MOLECULAR_WEIGHT>
291.37198

> <PUBCHEM_OPENEYE_CAN_SMILES>
CC(C)C1=CSC(=N1)NC(=O)CCNC2=NC=CC=N2

> <PUBCHEM_OPENEYE_ISO_SMILES>
CC(C)C1=CSC(=N1)NC(=O)CCNC2=NC=CC=N2

> <PUBCHEM_CACTVS_TPSA>
108

> <PUBCHEM_MONOISOTOPIC_WEIGHT>
291.115381

> <PUBCHEM_TOTAL_CHARGE>
0

> <PUBCHEM_HEAVY_ATOM_COUNT>
20

> <PUBCHEM_ATOM_DEF_STEREO_COUNT>
0

> <PUBCHEM_ATOM_UDEF_STEREO_COUNT>
0

> <PUBCHEM_BOND_DEF_STEREO_COUNT>
0

> <PUBCHEM_BOND_UDEF_STEREO_COUNT>
0

> <PUBCHEM_ISOTOPIC_ATOM_COUNT>
0

> <PUBCHEM_COMPONENT_COUNT>
1

> <PUBCHEM_CACTVS_TAUTO_COUNT>
10

> <PUBCHEM_COORDINATE_TYPE>
1
5
255

> <PUBCHEM_BONDANNOTATIONS>
1  14  8
1  15  8
18  20  8
19  20  8
3  14  8
3  9  8
6  17  8
6  18  8
7  17  8
7  19  8
9  15  8

$$$$

