8981
  -OEChem-06261203172D

 28 29  0     0  0  0  0  0  0999 V2000
    3.8660   -1.1900    0.0000 N   0  0  0  0  0  0  0  0  0  0  0  0
    3.0000   -0.6900    0.0000 C   0  0  0  0  0  0  0  0  0  0  0  0
    3.0000    0.3100    0.0000 C   0  0  0  0  0  0  0  0  0  0  0  0
    4.7320   -0.6900    0.0000 C   0  0  0  0  0  0  0  0  0  0  0  0
    3.8660    0.8100    0.0000 C   0  0  0  0  0  0  0  0  0  0  0  0
    4.7320    0.3100    0.0000 C   0  0  0  0  0  0  0  0  0  0  0  0
    2.0000   -0.6900    0.0000 C   0  0  0  0  0  0  0  0  0  0  0  0
    2.5000   -1.5560    0.0000 C   0  0  0  0  0  0  0  0  0  0  0  0
    5.6260   -1.2247    0.0000 C   0  0  0  0  0  0  0  0  0  0  0  0
    3.8660    1.8100    0.0000 C   0  0  0  0  0  0  0  0  0  0  0  0
    5.6260    0.8447    0.0000 C   0  0  0  0  0  0  0  0  0  0  0  0
    6.5321   -0.7108    0.0000 C   0  0  0  0  0  0  0  0  0  0  0  0
    6.5321    0.3308    0.0000 C   0  0  0  0  0  0  0  0  0  0  0  0
    3.8660   -1.8100    0.0000 H   0  0  0  0  0  0  0  0  0  0  0  0
    2.4631    0.6200    0.0000 H   0  0  0  0  0  0  0  0  0  0  0  0
    2.0000   -0.0700    0.0000 H   0  0  0  0  0  0  0  0  0  0  0  0
    1.3800   -0.6900    0.0000 H   0  0  0  0  0  0  0  0  0  0  0  0
    2.0000   -1.3100    0.0000 H   0  0  0  0  0  0  0  0  0  0  0  0
    1.9631   -1.2460    0.0000 H   0  0  0  0  0  0  0  0  0  0  0  0
    2.1900   -2.0930    0.0000 H   0  0  0  0  0  0  0  0  0  0  0  0
    3.0369   -1.8660    0.0000 H   0  0  0  0  0  0  0  0  0  0  0  0
    5.6188   -1.8446    0.0000 H   0  0  0  0  0  0  0  0  0  0  0  0
    4.4860    1.8100    0.0000 H   0  0  0  0  0  0  0  0  0  0  0  0
    3.8660    2.4300    0.0000 H   0  0  0  0  0  0  0  0  0  0  0  0
    3.2460    1.8100    0.0000 H   0  0  0  0  0  0  0  0  0  0  0  0
    5.6188    1.4646    0.0000 H   0  0  0  0  0  0  0  0  0  0  0  0
    7.0678   -1.0229    0.0000 H   0  0  0  0  0  0  0  0  0  0  0  0
    7.0678    0.6429    0.0000 H   0  0  0  0  0  0  0  0  0  0  0  0
  1  2  1  0  0  0  0
  1  4  1  0  0  0  0
  1 14  1  0  0  0  0
  2  3  1  0  0  0  0
  2  7  1  0  0  0  0
  2  8  1  0  0  0  0
  3  5  2  0  0  0  0
  3 15  1  0  0  0  0
  4  6  1  0  0  0  0
  4  9  2  0  0  0  0
  5  6  1  0  0  0  0
  5 10  1  0  0  0  0
  6 11  2  0  0  0  0
  7 16  1  0  0  0  0
  7 17  1  0  0  0  0
  7 18  1  0  0  0  0
  8 19  1  0  0  0  0
  8 20  1  0  0  0  0
  8 21  1  0  0  0  0
  9 12  1  0  0  0  0
  9 22  1  0  0  0  0
 10 23  1  0  0  0  0
 10 24  1  0  0  0  0
 10 25  1  0  0  0  0
 11 13  1  0  0  0  0
 11 26  1  0  0  0  0
 12 13  2  0  0  0  0
 12 27  1  0  0  0  0
 13 28  1  0  0  0  0
M  END
> <PUBCHEM_COMPOUND_CID>
8981

> <PUBCHEM_COMPOUND_CANONICALIZED>
1

> <PUBCHEM_CACTVS_COMPLEXITY>
227

> <PUBCHEM_CACTVS_HBOND_ACCEPTOR>
1

> <PUBCHEM_CACTVS_HBOND_DONOR>
1

> <PUBCHEM_CACTVS_ROTATABLE_BOND>
0

> <PUBCHEM_CACTVS_SUBSKEYS>
AAADccByAAAAAAAAAAAAAAAAAAAAAAAAAAAwQAAAAAAAAACBAAAAHAAQAAAADIiBGAAywILAAACAAiRCQACCAAAhAgAIiAAAZIgIICLAkZGEIAhgkADIyAcQgIAOAAAAAAACAAAAAAAAAAQAAAAAAAAAAA==

> <PUBCHEM_IUPAC_OPENEYE_NAME>
2,2,4-trimethyl-1H-quinoline

> <PUBCHEM_IUPAC_CAS_NAME>
2,2,4-trimethyl-1H-quinoline

> <PUBCHEM_IUPAC_NAME>
2,2,4-trimethyl-1H-quinoline

> <PUBCHEM_IUPAC_SYSTEMATIC_NAME>
2,2,4-trimethyl-1H-quinoline

> <PUBCHEM_IUPAC_TRADITIONAL_NAME>
2,2,4-trimethyl-1H-quinoline

> <PUBCHEM_IUPAC_INCHI>
InChI=1S/C12H15N/c1-9-8-12(2,3)13-11-7-5-4-6-10(9)11/h4-8,13H,1-3H3

> <PUBCHEM_IUPAC_INCHIKEY>
ZNRLMGFXSPUZNR-UHFFFAOYSA-N

> <PUBCHEM_XLOGP3_AA>
2.8

> <PUBCHEM_EXACT_MASS>
173.120449

> <PUBCHEM_MOLECULAR_FORMULA>
C12H15N

> <PUBCHEM_MOLECULAR_WEIGHT>
173.2542

> <PUBCHEM_OPENEYE_CAN_SMILES>
CC1=CC(NC2=CC=CC=C12)(C)C

> <PUBCHEM_OPENEYE_ISO_SMILES>
CC1=CC(NC2=CC=CC=C12)(C)C

> <PUBCHEM_CACTVS_TPSA>
12

> <PUBCHEM_MONOISOTOPIC_WEIGHT>
173.120449

> <PUBCHEM_TOTAL_CHARGE>
0

> <PUBCHEM_HEAVY_ATOM_COUNT>
13

> <PUBCHEM_ATOM_DEF_STEREO_COUNT>
0

> <PUBCHEM_ATOM_UDEF_STEREO_COUNT>
0

> <PUBCHEM_BOND_DEF_STEREO_COUNT>
0

> <PUBCHEM_BOND_UDEF_STEREO_COUNT>
0

> <PUBCHEM_ISOTOPIC_ATOM_COUNT>
0

> <PUBCHEM_COMPONENT_COUNT>
1

> <PUBCHEM_CACTVS_TAUTO_COUNT>
1

> <PUBCHEM_COORDINATE_TYPE>
1
5
255

> <PUBCHEM_BONDANNOTATIONS>
11  13  8
12  13  8
4  6  8
4  9  8
6  11  8
9  12  8

$$$$

