5080
  -OEChem-06261200302D

 23 24  0     0  0  0  0  0  0999 V2000
    2.0000   -1.8906    0.0000 O   0  0  0  0  0  0  0  0  0  0  0  0
    2.6235    0.6932    0.0000 N   0  0  0  0  0  0  0  0  0  0  0  0
    3.5984   -1.3313    0.0000 N   0  0  0  0  0  0  0  0  0  0  0  0
    4.3802    0.2922    0.0000 C   0  0  0  0  0  0  0  0  0  0  0  0
    3.5984    0.9157    0.0000 C   0  0  0  0  0  0  0  0  0  0  0  0
    4.3802   -0.7078    0.0000 C   0  0  0  0  0  0  0  0  0  0  0  0
    2.1896   -0.2078    0.0000 C   0  0  0  0  0  0  0  0  0  0  0  0
    5.2742    0.8269    0.0000 C   0  0  0  0  0  0  0  0  0  0  0  0
    3.8209    1.8906    0.0000 C   0  0  0  0  0  0  0  0  0  0  0  0
    5.2742   -1.2425    0.0000 C   0  0  0  0  0  0  0  0  0  0  0  0
    2.6235   -1.1088    0.0000 C   0  0  0  0  0  0  0  0  0  0  0  0
    6.1803    0.3130    0.0000 C   0  0  0  0  0  0  0  0  0  0  0  0
    6.1803   -0.7286    0.0000 C   0  0  0  0  0  0  0  0  0  0  0  0
    1.7049    0.1788    0.0000 H   0  0  0  0  0  0  0  0  0  0  0  0
    1.7049   -0.5944    0.0000 H   0  0  0  0  0  0  0  0  0  0  0  0
    2.2369    1.1779    0.0000 H   0  0  0  0  0  0  0  0  0  0  0  0
    5.2670    1.4468    0.0000 H   0  0  0  0  0  0  0  0  0  0  0  0
    4.4254    1.7526    0.0000 H   0  0  0  0  0  0  0  0  0  0  0  0
    3.9589    2.4951    0.0000 H   0  0  0  0  0  0  0  0  0  0  0  0
    3.2165    2.0286    0.0000 H   0  0  0  0  0  0  0  0  0  0  0  0
    5.2670   -1.8624    0.0000 H   0  0  0  0  0  0  0  0  0  0  0  0
    6.7160    0.6251    0.0000 H   0  0  0  0  0  0  0  0  0  0  0  0
    6.7160   -1.0407    0.0000 H   0  0  0  0  0  0  0  0  0  0  0  0
  1 11  2  0  0  0  0
  2  5  1  0  0  0  0
  2  7  1  0  0  0  0
  2 16  1  0  0  0  0
  3  6  2  0  0  0  0
  3 11  1  0  0  0  0
  4  5  2  0  0  0  0
  4  6  1  0  0  0  0
  4  8  1  0  0  0  0
  5  9  1  0  0  0  0
  6 10  1  0  0  0  0
  7 11  1  0  0  0  0
  7 14  1  0  0  0  0
  7 15  1  0  0  0  0
  8 12  2  0  0  0  0
  8 17  1  0  0  0  0
  9 18  1  0  0  0  0
  9 19  1  0  0  0  0
  9 20  1  0  0  0  0
 10 13  2  0  0  0  0
 10 21  1  0  0  0  0
 12 13  1  0  0  0  0
 12 22  1  0  0  0  0
 13 23  1  0  0  0  0
M  END
> <PUBCHEM_COMPOUND_CID>
5080

> <PUBCHEM_COMPOUND_CANONICALIZED>
1

> <PUBCHEM_CACTVS_COMPLEXITY>
372

> <PUBCHEM_CACTVS_HBOND_ACCEPTOR>
2

> <PUBCHEM_CACTVS_HBOND_DONOR>
1

> <PUBCHEM_CACTVS_ROTATABLE_BOND>
0

> <PUBCHEM_CACTVS_SUBSKEYS>
AAADccBzIAAAAAAAAAAAAAAAAAAAAAAAAAAgAAAABAAAAAAAAAAAHgAQAAAADAjBgAQCAALAAACoAyVyVAAAAAAgAAAICIC4ABgIQAAAASAQAAAAkACIgAIAAAAAAAAAAAAAAAAAAAAAAAAAAAAAAAAAAA==

> <PUBCHEM_IUPAC_OPENEYE_NAME>
5-methyl-3,4-dihydro-1,4-benzodiazepin-2-one

> <PUBCHEM_IUPAC_CAS_NAME>
5-methyl-3,4-dihydro-1,4-benzodiazepin-2-one

> <PUBCHEM_IUPAC_NAME>
5-methyl-3,4-dihydro-1,4-benzodiazepin-2-one

> <PUBCHEM_IUPAC_SYSTEMATIC_NAME>
5-methyl-3,4-dihydro-1,4-benzodiazepin-2-one

> <PUBCHEM_IUPAC_TRADITIONAL_NAME>
5-methyl-3,4-dihydro-1,4-benzodiazepin-2-one

> <PUBCHEM_IUPAC_INCHI>
InChI=1S/C10H10N2O/c1-7-8-4-2-3-5-9(8)12-10(13)6-11-7/h2-5,11H,6H2,1H3

> <PUBCHEM_IUPAC_INCHIKEY>
XPZKIHINSXLYFI-UHFFFAOYSA-N

> <PUBCHEM_XLOGP3_AA>
1.3

> <PUBCHEM_EXACT_MASS>
174.079313

> <PUBCHEM_MOLECULAR_FORMULA>
C10H10N2O

> <PUBCHEM_MOLECULAR_WEIGHT>
174.1992

> <PUBCHEM_OPENEYE_CAN_SMILES>
CC1=C2C=CC=CC2=NC(=O)CN1

> <PUBCHEM_OPENEYE_ISO_SMILES>
CC1=C2C=CC=CC2=NC(=O)CN1

> <PUBCHEM_CACTVS_TPSA>
41.5

> <PUBCHEM_MONOISOTOPIC_WEIGHT>
174.079313

> <PUBCHEM_TOTAL_CHARGE>
0

> <PUBCHEM_HEAVY_ATOM_COUNT>
13

> <PUBCHEM_ATOM_DEF_STEREO_COUNT>
0

> <PUBCHEM_ATOM_UDEF_STEREO_COUNT>
0

> <PUBCHEM_BOND_DEF_STEREO_COUNT>
0

> <PUBCHEM_BOND_UDEF_STEREO_COUNT>
0

> <PUBCHEM_ISOTOPIC_ATOM_COUNT>
0

> <PUBCHEM_COMPONENT_COUNT>
1

> <PUBCHEM_CACTVS_TAUTO_COUNT>
17

> <PUBCHEM_COORDINATE_TYPE>
1
5
255

> <PUBCHEM_BONDANNOTATIONS>
10  13  8
12  13  8
4  6  8
4  8  8
6  10  8
8  12  8

$$$$

