8994
  -OEChem-06261203182D

 44 45  0     0  0  0  0  0  0999 V2000
    9.7942    2.5600    0.0000 Cl  0  0  0  0  0  0  0  0  0  0  0  0
    8.0622    5.5600    0.0000 Cl  0  0  0  0  0  0  0  0  0  0  0  0
    3.7320    1.0600    0.0000 O   0  0  0  0  0  0  0  0  0  0  0  0
    4.5981   -0.4400    0.0000 O   0  0  0  0  0  0  0  0  0  0  0  0
    2.0000   -4.9400    0.0000 O   0  0  0  0  0  0  0  0  0  0  0  0
    3.7320   -4.9400    0.0000 O   0  0  0  0  0  0  0  0  0  0  0  0
    7.1962    3.0600    0.0000 N   0  0  0  0  0  0  0  0  0  0  0  0
    2.8660   -0.4400    0.0000 N   0  0  0  0  0  0  0  0  0  0  0  0
    7.1962    4.0600    0.0000 C   0  0  0  0  0  0  0  0  0  0  0  0
    8.0622    2.5600    0.0000 C   0  0  0  0  0  0  0  0  0  0  0  0
    6.3301    2.5600    0.0000 C   0  0  0  0  0  0  0  0  0  0  0  0
    5.4641    3.0600    0.0000 C   0  0  0  0  0  0  0  0  0  0  0  0
    6.3301    1.5600    0.0000 C   0  0  0  0  0  0  0  0  0  0  0  0
    8.9282    3.0600    0.0000 C   0  0  0  0  0  0  0  0  0  0  0  0
    8.0622    4.5600    0.0000 C   0  0  0  0  0  0  0  0  0  0  0  0
    4.5981    2.5600    0.0000 C   0  0  0  0  0  0  0  0  0  0  0  0
    5.4641    1.0600    0.0000 C   0  0  0  0  0  0  0  0  0  0  0  0
    4.5981    1.5600    0.0000 C   0  0  0  0  0  0  0  0  0  0  0  0
    2.8660   -1.4400    0.0000 C   0  0  0  0  0  0  0  0  0  0  0  0
    3.7320    0.0600    0.0000 C   0  0  0  0  0  0  0  0  0  0  0  0
    2.0000   -1.9400    0.0000 C   0  0  0  0  0  0  0  0  0  0  0  0
    3.7320   -1.9400    0.0000 C   0  0  0  0  0  0  0  0  0  0  0  0
    2.8660   -3.4400    0.0000 C   0  0  0  0  0  0  0  0  0  0  0  0
    2.0000   -2.9400    0.0000 C   0  0  0  0  0  0  0  0  0  0  0  0
    3.7320   -2.9400    0.0000 C   0  0  0  0  0  0  0  0  0  0  0  0
    2.8660   -4.4400    0.0000 C   0  0  0  0  0  0  0  0  0  0  0  0
    6.9841    4.6426    0.0000 H   0  0  0  0  0  0  0  0  0  0  0  0
    6.5856    3.9523    0.0000 H   0  0  0  0  0  0  0  0  0  0  0  0
    7.6636    2.0850    0.0000 H   0  0  0  0  0  0  0  0  0  0  0  0
    8.4607    2.0850    0.0000 H   0  0  0  0  0  0  0  0  0  0  0  0
    5.4641    3.6800    0.0000 H   0  0  0  0  0  0  0  0  0  0  0  0
    6.8671    1.2500    0.0000 H   0  0  0  0  0  0  0  0  0  0  0  0
    9.3267    3.5350    0.0000 H   0  0  0  0  0  0  0  0  0  0  0  0
    8.5297    3.5350    0.0000 H   0  0  0  0  0  0  0  0  0  0  0  0
    8.2742    3.9774    0.0000 H   0  0  0  0  0  0  0  0  0  0  0  0
    8.6728    4.6677    0.0000 H   0  0  0  0  0  0  0  0  0  0  0  0
    4.0611    2.8700    0.0000 H   0  0  0  0  0  0  0  0  0  0  0  0
    5.4641    0.4400    0.0000 H   0  0  0  0  0  0  0  0  0  0  0  0
    2.3291   -0.1300    0.0000 H   0  0  0  0  0  0  0  0  0  0  0  0
    1.4631   -1.6300    0.0000 H   0  0  0  0  0  0  0  0  0  0  0  0
    4.2690   -1.6300    0.0000 H   0  0  0  0  0  0  0  0  0  0  0  0
    1.4631   -3.2500    0.0000 H   0  0  0  0  0  0  0  0  0  0  0  0
    4.2690   -3.2500    0.0000 H   0  0  0  0  0  0  0  0  0  0  0  0
    2.0000   -5.5600    0.0000 H   0  0  0  0  0  0  0  0  0  0  0  0
  1 14  1  0  0  0  0
  2 15  1  0  0  0  0
  3 18  1  0  0  0  0
  3 20  1  0  0  0  0
  4 20  2  0  0  0  0
  5 26  1  0  0  0  0
  5 44  1  0  0  0  0
  6 26  2  0  0  0  0
  7  9  1  0  0  0  0
  7 10  1  0  0  0  0
  7 11  1  0  0  0  0
  8 19  1  0  0  0  0
  8 20  1  0  0  0  0
  8 39  1  0  0  0  0
  9 15  1  0  0  0  0
  9 27  1  0  0  0  0
  9 28  1  0  0  0  0
 10 14  1  0  0  0  0
 10 29  1  0  0  0  0
 10 30  1  0  0  0  0
 11 12  2  0  0  0  0
 11 13  1  0  0  0  0
 12 16  1  0  0  0  0
 12 31  1  0  0  0  0
 13 17  2  0  0  0  0
 13 32  1  0  0  0  0
 14 33  1  0  0  0  0
 14 34  1  0  0  0  0
 15 35  1  0  0  0  0
 15 36  1  0  0  0  0
 16 18  2  0  0  0  0
 16 37  1  0  0  0  0
 17 18  1  0  0  0  0
 17 38  1  0  0  0  0
 19 21  2  0  0  0  0
 19 22  1  0  0  0  0
 21 24  1  0  0  0  0
 21 40  1  0  0  0  0
 22 25  2  0  0  0  0
 22 41  1  0  0  0  0
 23 24  2  0  0  0  0
 23 25  1  0  0  0  0
 23 26  1  0  0  0  0
 24 42  1  0  0  0  0
 25 43  1  0  0  0  0
M  END
> <PUBCHEM_COMPOUND_CID>
8994

> <PUBCHEM_COMPOUND_CANONICALIZED>
1

> <PUBCHEM_CACTVS_COMPLEXITY>
445

> <PUBCHEM_CACTVS_HBOND_ACCEPTOR>
5

> <PUBCHEM_CACTVS_HBOND_DONOR>
2

> <PUBCHEM_CACTVS_ROTATABLE_BOND>
9

> <PUBCHEM_CACTVS_SUBSKEYS>
AAADceB7OAAGAAAAAAAAAAAAAAAAAAAAAAAwYAAAAAAAAAABQAAAHgIQCAAADA/BmEQwzoPABgCIAiTSWACCCAAlIgAIiAEObMkMJjLEtZvMcyhk1BHI+Ye42SOeCEAAAAAAAAAQgAAAAAAAAAAAAAAAAA==

> <PUBCHEM_IUPAC_OPENEYE_NAME>
4-[[4-[bis(2-chloroethyl)amino]phenoxy]carbonylamino]benzoic acid

> <PUBCHEM_IUPAC_CAS_NAME>
4-[[[4-[bis(2-chloroethyl)amino]phenoxy]-oxomethyl]amino]benzoic acid

> <PUBCHEM_IUPAC_NAME>
4-[[4-[bis(2-chloroethyl)amino]phenoxy]carbonylamino]benzoic acid

> <PUBCHEM_IUPAC_SYSTEMATIC_NAME>
4-[[4-[bis(2-chloroethyl)amino]phenoxy]carbonylamino]benzoic acid

> <PUBCHEM_IUPAC_TRADITIONAL_NAME>
4-[[4-[bis(2-chloroethyl)amino]phenoxy]carbonylamino]benzoic acid

> <PUBCHEM_IUPAC_INCHI>
InChI=1S/C18H18Cl2N2O4/c19-9-11-22(12-10-20)15-5-7-16(8-6-15)26-18(25)21-14-3-1-13(2-4-14)17(23)24/h1-8H,9-12H2,(H,21,25)(H,23,24)

> <PUBCHEM_IUPAC_INCHIKEY>
CNLVZUPSGAAHAO-UHFFFAOYSA-N

> <PUBCHEM_XLOGP3_AA>
3.9

> <PUBCHEM_EXACT_MASS>
396.064362

> <PUBCHEM_MOLECULAR_FORMULA>
C18H18Cl2N2O4

> <PUBCHEM_MOLECULAR_WEIGHT>
397.25252

> <PUBCHEM_OPENEYE_CAN_SMILES>
C1=CC(=CC=C1C(=O)O)NC(=O)OC2=CC=C(C=C2)N(CCCl)CCCl

> <PUBCHEM_OPENEYE_ISO_SMILES>
C1=CC(=CC=C1C(=O)O)NC(=O)OC2=CC=C(C=C2)N(CCCl)CCCl

> <PUBCHEM_CACTVS_TPSA>
78.9

> <PUBCHEM_MONOISOTOPIC_WEIGHT>
396.064362

> <PUBCHEM_TOTAL_CHARGE>
0

> <PUBCHEM_HEAVY_ATOM_COUNT>
26

> <PUBCHEM_ATOM_DEF_STEREO_COUNT>
0

> <PUBCHEM_ATOM_UDEF_STEREO_COUNT>
0

> <PUBCHEM_BOND_DEF_STEREO_COUNT>
0

> <PUBCHEM_BOND_UDEF_STEREO_COUNT>
0

> <PUBCHEM_ISOTOPIC_ATOM_COUNT>
0

> <PUBCHEM_COMPONENT_COUNT>
1

> <PUBCHEM_CACTVS_TAUTO_COUNT>
4

> <PUBCHEM_COORDINATE_TYPE>
1
5
255

> <PUBCHEM_BONDANNOTATIONS>
11  12  8
11  13  8
12  16  8
13  17  8
16  18  8
17  18  8
19  21  8
19  22  8
21  24  8
22  25  8
23  24  8
23  25  8

$$$$

