3622
  -OEChem-06251223332D

 45 47  0     1  0  0  0  0  0999 V2000
    4.2690    0.1103    0.0000 O   0  0  0  0  0  0  0  0  0  0  0  0
    5.1350   -1.3897    0.0000 O   0  0  0  0  0  0  0  0  0  0  0  0
    2.5369   -0.8897    0.0000 O   0  0  0  0  0  0  0  0  0  0  0  0
    7.1059    3.3952    0.0000 N   0  3  0  0  0  0  0  0  0  0  0  0
    7.8425    2.4126    0.0000 C   0  0  3  0  0  0  0  0  0  0  0  0
    7.5837    1.4467    0.0000 C   0  0  3  0  0  0  0  0  0  0  0  0
    9.6745    1.6538    0.0000 C   0  0  0  0  0  0  0  0  0  0  0  0
    9.4157    0.6879    0.0000 C   0  0  0  0  0  0  0  0  0  0  0  0
    5.2395    1.6048    0.0000 C   0  0  0  0  0  0  0  0  0  0  0  0
    6.0486    0.2035    0.0000 C   0  0  0  0  0  0  0  0  0  0  0  0
    5.1350    0.6103    0.0000 C   0  0  0  0  0  0  0  0  0  0  0  0
    7.2104    4.3897    0.0000 C   0  0  0  0  0  0  0  0  0  0  0  0
    6.1924    3.8020    0.0000 C   0  0  0  0  0  0  0  0  0  0  0  0
    4.2690   -0.8897    0.0000 C   0  0  0  0  0  0  0  0  0  0  0  0
    3.4030   -1.3897    0.0000 C   0  0  3  0  0  0  0  0  0  0  0  0
    3.4030   -2.3897    0.0000 C   0  0  0  0  0  0  0  0  0  0  0  0
    2.5369   -2.8897    0.0000 C   0  0  0  0  0  0  0  0  0  0  0  0
    4.2690   -2.8897    0.0000 C   0  0  0  0  0  0  0  0  0  0  0  0
    2.5369   -3.8897    0.0000 C   0  0  0  0  0  0  0  0  0  0  0  0
    4.2690   -3.8897    0.0000 C   0  0  0  0  0  0  0  0  0  0  0  0
    3.4030   -4.3897    0.0000 C   0  0  0  0  0  0  0  0  0  0  0  0
    7.6727    0.8331    0.0000 H   0  0  0  0  0  0  0  0  0  0  0  0
    7.8141    1.7932    0.0000 H   0  0  0  0  0  0  0  0  0  0  0  0
    9.2036    0.1052    0.0000 H   0  0  0  0  0  0  0  0  0  0  0  0
   10.0070    0.5014    0.0000 H   0  0  0  0  0  0  0  0  0  0  0  0
   10.2658    1.4673    0.0000 H   0  0  0  0  0  0  0  0  0  0  0  0
    9.8865    2.2364    0.0000 H   0  0  0  0  0  0  0  0  0  0  0  0
    5.7109   -0.3164    0.0000 H   0  0  0  0  0  0  0  0  0  0  0  0
    6.5093   -0.2113    0.0000 H   0  0  0  0  0  0  0  0  0  0  0  0
    5.1373    2.2163    0.0000 H   0  0  0  0  0  0  0  0  0  0  0  0
    4.6198    1.5859    0.0000 H   0  0  0  0  0  0  0  0  0  0  0  0
    4.6150    0.9479    0.0000 H   0  0  0  0  0  0  0  0  0  0  0  0
    7.8270    4.3249    0.0000 H   0  0  0  0  0  0  0  0  0  0  0  0
    6.4445    4.3684    0.0000 H   0  0  0  0  0  0  0  0  0  0  0  0
    7.2752    5.0063    0.0000 H   0  0  0  0  0  0  0  0  0  0  0  0
    6.5938    4.4545    0.0000 H   0  0  0  0  0  0  0  0  0  0  0  0
    5.6260    4.0541    0.0000 H   0  0  0  0  0  0  0  0  0  0  0  0
    5.9402    3.2356    0.0000 H   0  0  0  0  0  0  0  0  0  0  0  0
    3.4030   -0.7697    0.0000 H   0  0  0  0  0  0  0  0  0  0  0  0
    2.0000   -1.1997    0.0000 H   0  0  0  0  0  0  0  0  0  0  0  0
    2.0000   -2.5797    0.0000 H   0  0  0  0  0  0  0  0  0  0  0  0
    4.8059   -2.5797    0.0000 H   0  0  0  0  0  0  0  0  0  0  0  0
    2.0000   -4.1997    0.0000 H   0  0  0  0  0  0  0  0  0  0  0  0
    4.8059   -4.1997    0.0000 H   0  0  0  0  0  0  0  0  0  0  0  0
    3.4030   -5.0097    0.0000 H   0  0  0  0  0  0  0  0  0  0  0  0
  1 11  1  0  0  0  0
  1 14  1  0  0  0  0
  2 14  2  0  0  0  0
  3 15  1  0  0  0  0
  3 40  1  0  0  0  0
  4  5  1  0  0  0  0
  4  6  1  0  0  0  0
  4 12  1  0  0  0  0
  4 13  1  0  0  0  0
  5  7  1  0  0  0  0
  5  9  1  0  0  0  0
  5 23  1  0  0  0  0
  6  8  1  0  0  0  0
  6 10  1  0  0  0  0
  6 22  1  0  0  0  0
  7  8  1  0  0  0  0
  7 26  1  0  0  0  0
  7 27  1  0  0  0  0
  8 24  1  0  0  0  0
  8 25  1  0  0  0  0
  9 11  1  0  0  0  0
  9 30  1  0  0  0  0
  9 31  1  0  0  0  0
 10 11  1  0  0  0  0
 10 28  1  0  0  0  0
 10 29  1  0  0  0  0
 11 32  1  0  0  0  0
 12 33  1  0  0  0  0
 12 35  1  0  0  0  0
 12 36  1  0  0  0  0
 13 34  1  0  0  0  0
 13 37  1  0  0  0  0
 13 38  1  0  0  0  0
 14 15  1  0  0  0  0
 15 16  1  0  0  0  0
 15 39  1  0  0  0  0
 16 17  2  0  0  0  0
 16 18  1  0  0  0  0
 17 19  1  0  0  0  0
 17 41  1  0  0  0  0
 18 20  2  0  0  0  0
 18 42  1  0  0  0  0
 19 21  2  0  0  0  0
 19 43  1  0  0  0  0
 20 21  1  0  0  0  0
 20 44  1  0  0  0  0
 21 45  1  0  0  0  0
M  CHG  1   4   1
M  END
> <PUBCHEM_COMPOUND_CID>
3622

> <PUBCHEM_COMPOUND_CANONICALIZED>
1

> <PUBCHEM_CACTVS_COMPLEXITY>
374

> <PUBCHEM_CACTVS_HBOND_ACCEPTOR>
3

> <PUBCHEM_CACTVS_HBOND_DONOR>
1

> <PUBCHEM_CACTVS_ROTATABLE_BOND>
4

> <PUBCHEM_CACTVS_SUBSKEYS>
AAADceB6MAAAAAAAAAAAAAAAAAAAAWAAAAA8QAAABgAAAAABAAAAHgAACAAADDzhmAYyCIMABgCIAiDSCAICAAAgAAAIiAFICIgJNjKAlRCGcAAmwAGLmAeYyKCOAAAAAAAAAAAAAAAAAAAAAAAAAAAAAA==

> <PUBCHEM_IUPAC_OPENEYE_NAME>
(8,8-dimethyl-8-azoniabicyclo[3.2.1]octan-3-yl) 2-hydroxy-2-phenyl-acetate

> <PUBCHEM_IUPAC_CAS_NAME>
2-hydroxy-2-phenylacetic acid (8,8-dimethyl-8-azoniabicyclo[3.2.1]octan-3-yl) ester

> <PUBCHEM_IUPAC_NAME>
(8,8-dimethyl-8-azoniabicyclo[3.2.1]octan-3-yl) 2-hydroxy-2-phenylacetate

> <PUBCHEM_IUPAC_SYSTEMATIC_NAME>
(8,8-dimethyl-8-azoniabicyclo[3.2.1]octan-3-yl) 2-oxidanyl-2-phenyl-ethanoate

> <PUBCHEM_IUPAC_TRADITIONAL_NAME>
2-hydroxy-2-phenyl-acetic acid (8,8-dimethyl-8-azoniabicyclo[3.2.1]octan-3-yl) ester

> <PUBCHEM_IUPAC_INCHI>
InChI=1S/C17H24NO3/c1-18(2)13-8-9-14(18)11-15(10-13)21-17(20)16(19)12-6-4-3-5-7-12/h3-7,13-16,19H,8-11H2,1-2H3/q+1

> <PUBCHEM_IUPAC_INCHIKEY>
WKWOJBUWWZTUQV-UHFFFAOYSA-N

> <PUBCHEM_XLOGP3_AA>
2.4

> <PUBCHEM_EXACT_MASS>
290.175619

> <PUBCHEM_MOLECULAR_FORMULA>
C17H24NO3+

> <PUBCHEM_MOLECULAR_WEIGHT>
290.37736

> <PUBCHEM_OPENEYE_CAN_SMILES>
C[N+]1(C2CCC1CC(C2)OC(=O)C(C3=CC=CC=C3)O)C

> <PUBCHEM_OPENEYE_ISO_SMILES>
C[N+]1(C2CCC1CC(C2)OC(=O)C(C3=CC=CC=C3)O)C

> <PUBCHEM_CACTVS_TPSA>
46.5

> <PUBCHEM_MONOISOTOPIC_WEIGHT>
290.175619

> <PUBCHEM_TOTAL_CHARGE>
1

> <PUBCHEM_HEAVY_ATOM_COUNT>
21

> <PUBCHEM_ATOM_DEF_STEREO_COUNT>
0

> <PUBCHEM_ATOM_UDEF_STEREO_COUNT>
3

> <PUBCHEM_BOND_DEF_STEREO_COUNT>
0

> <PUBCHEM_BOND_UDEF_STEREO_COUNT>
0

> <PUBCHEM_ISOTOPIC_ATOM_COUNT>
0

> <PUBCHEM_COMPONENT_COUNT>
1

> <PUBCHEM_CACTVS_TAUTO_COUNT>
1

> <PUBCHEM_COORDINATE_TYPE>
1
5
255

> <PUBCHEM_BONDANNOTATIONS>
16  17  8
16  18  8
17  19  8
18  20  8
19  21  8
20  21  8
15  3  3
5  7  3
6  8  3

$$$$

