9283
  -OEChem-06261203342D

 39 41  0     0  0  0  0  0  0999 V2000
    9.5385    3.8784    0.0000 Cl  0  5  0  0  0  0  0  0  0  0  0  0
    3.2867    3.6200    0.0000 N   0  3  0  0  0  0  0  0  0  0  0  0
    4.0957    4.2078    0.0000 N   0  0  0  0  0  0  0  0  0  0  0  0
    2.4777    4.2078    0.0000 N   0  0  0  0  0  0  0  0  0  0  0  0
    3.7867    5.1588    0.0000 N   0  0  0  0  0  0  0  0  0  0  0  0
    3.2867    2.6200    0.0000 C   0  0  0  0  0  0  0  0  0  0  0  0
    5.0468    3.8988    0.0000 C   0  0  0  0  0  0  0  0  0  0  0  0
    2.7867    5.1588    0.0000 C   0  0  0  0  0  0  0  0  0  0  0  0
    2.1989    5.9679    0.0000 C   0  0  0  0  0  0  0  0  0  0  0  0
    2.4207    2.1200    0.0000 C   0  0  0  0  0  0  0  0  0  0  0  0
    4.1527    2.1200    0.0000 C   0  0  0  0  0  0  0  0  0  0  0  0
    5.2547    2.9206    0.0000 C   0  0  0  0  0  0  0  0  0  0  0  0
    5.7899    4.5679    0.0000 C   0  0  0  0  0  0  0  0  0  0  0  0
    2.6056    6.8814    0.0000 C   0  0  0  0  0  0  0  0  0  0  0  0
    1.2044    5.8633    0.0000 C   0  0  0  0  0  0  0  0  0  0  0  0
    2.4207    1.1200    0.0000 C   0  0  0  0  0  0  0  0  0  0  0  0
    4.1527    1.1200    0.0000 C   0  0  0  0  0  0  0  0  0  0  0  0
    6.2057    2.6116    0.0000 C   0  0  0  0  0  0  0  0  0  0  0  0
    6.7410    4.2589    0.0000 C   0  0  0  0  0  0  0  0  0  0  0  0
    3.2867    0.6200    0.0000 C   0  0  0  0  0  0  0  0  0  0  0  0
    6.9489    3.2807    0.0000 C   0  0  0  0  0  0  0  0  0  0  0  0
    2.0179    7.6904    0.0000 C   0  0  0  0  0  0  0  0  0  0  0  0
    0.6166    6.6724    0.0000 C   0  0  0  0  0  0  0  0  0  0  0  0
    1.0233    7.5859    0.0000 C   0  0  0  0  0  0  0  0  0  0  0  0
    1.8837    2.4300    0.0000 H   0  0  0  0  0  0  0  0  0  0  0  0
    4.6897    2.4300    0.0000 H   0  0  0  0  0  0  0  0  0  0  0  0
    4.7939    2.5058    0.0000 H   0  0  0  0  0  0  0  0  0  0  0  0
    5.6610    5.1743    0.0000 H   0  0  0  0  0  0  0  0  0  0  0  0
    3.2222    6.9462    0.0000 H   0  0  0  0  0  0  0  0  0  0  0  0
    0.9522    5.2969    0.0000 H   0  0  0  0  0  0  0  0  0  0  0  0
    1.8837    0.8100    0.0000 H   0  0  0  0  0  0  0  0  0  0  0  0
    4.6897    0.8100    0.0000 H   0  0  0  0  0  0  0  0  0  0  0  0
    6.3346    2.0052    0.0000 H   0  0  0  0  0  0  0  0  0  0  0  0
    7.2017    4.6737    0.0000 H   0  0  0  0  0  0  0  0  0  0  0  0
    3.2867    0.0000    0.0000 H   0  0  0  0  0  0  0  0  0  0  0  0
    7.5385    3.0891    0.0000 H   0  0  0  0  0  0  0  0  0  0  0  0
    2.2700    8.2568    0.0000 H   0  0  0  0  0  0  0  0  0  0  0  0
    0.0000    6.6075    0.0000 H   0  0  0  0  0  0  0  0  0  0  0  0
    0.6589    8.0875    0.0000 H   0  0  0  0  0  0  0  0  0  0  0  0
  2  3  1  0  0  0  0
  2  4  2  0  0  0  0
  2  6  1  0  0  0  0
  3  5  1  0  0  0  0
  3  7  1  0  0  0  0
  4  8  1  0  0  0  0
  5  8  2  0  0  0  0
  6 10  2  0  0  0  0
  6 11  1  0  0  0  0
  7 12  2  0  0  0  0
  7 13  1  0  0  0  0
  8  9  1  0  0  0  0
  9 14  2  0  0  0  0
  9 15  1  0  0  0  0
 10 16  1  0  0  0  0
 10 25  1  0  0  0  0
 11 17  2  0  0  0  0
 11 26  1  0  0  0  0
 12 18  1  0  0  0  0
 12 27  1  0  0  0  0
 13 19  2  0  0  0  0
 13 28  1  0  0  0  0
 14 22  1  0  0  0  0
 14 29  1  0  0  0  0
 15 23  2  0  0  0  0
 15 30  1  0  0  0  0
 16 20  2  0  0  0  0
 16 31  1  0  0  0  0
 17 20  1  0  0  0  0
 17 32  1  0  0  0  0
 18 21  2  0  0  0  0
 18 33  1  0  0  0  0
 19 21  1  0  0  0  0
 19 34  1  0  0  0  0
 20 35  1  0  0  0  0
 21 36  1  0  0  0  0
 22 24  2  0  0  0  0
 22 37  1  0  0  0  0
 23 24  1  0  0  0  0
 23 38  1  0  0  0  0
 24 39  1  0  0  0  0
M  CHG  2   1  -1   2   1
M  END
> <PUBCHEM_COMPOUND_CID>
9283

> <PUBCHEM_COMPOUND_CANONICALIZED>
1

> <PUBCHEM_CACTVS_COMPLEXITY>
330

> <PUBCHEM_CACTVS_HBOND_ACCEPTOR>
3

> <PUBCHEM_CACTVS_HBOND_DONOR>
0

> <PUBCHEM_CACTVS_ROTATABLE_BOND>
3

> <PUBCHEM_CACTVS_SUBSKEYS>
AAADccB7gAAEAAAAAAAAAAAAAAAAAWAAAAAwYMAAAAAAAAAB1AAAHAAIAAAADAiBGwAx0IQAAACiAiZiYACSBAIgAgAciCAgZJgIIKKAkZGAIABgiAAIyAcQgAAOAAAAAAAAAAAAAAAAAAAAAAAAAAAAAA==

> <PUBCHEM_IUPAC_OPENEYE_NAME>
2,3,5-triphenyltetrazol-2-ium chloride

> <PUBCHEM_IUPAC_CAS_NAME>
2,3,5-triphenyltetrazol-2-ium chloride

> <PUBCHEM_IUPAC_NAME>
2,3,5-triphenyltetrazol-2-ium chloride

> <PUBCHEM_IUPAC_SYSTEMATIC_NAME>
2,3,5-triphenyl-1,2,3,4-tetrazol-2-ium chloride

> <PUBCHEM_IUPAC_TRADITIONAL_NAME>
2,3,5-triphenyltetrazol-2-ium chloride

> <PUBCHEM_IUPAC_INCHI>
InChI=1S/C19H15N4.ClH/c1-4-10-16(11-5-1)19-20-22(17-12-6-2-7-13-17)23(21-19)18-14-8-3-9-15-18;/h1-15H;1H/q+1;/p-1

> <PUBCHEM_IUPAC_INCHIKEY>
PKDBCJSWQUOKDO-UHFFFAOYSA-M

> <PUBCHEM_EXACT_MASS>
334.098524

> <PUBCHEM_MOLECULAR_FORMULA>
C19H15ClN4

> <PUBCHEM_MOLECULAR_WEIGHT>
334.8022

> <PUBCHEM_OPENEYE_CAN_SMILES>
C1=CC=C(C=C1)C2=NN([N+](=N2)C3=CC=CC=C3)C4=CC=CC=C4.[Cl-]

> <PUBCHEM_OPENEYE_ISO_SMILES>
C1=CC=C(C=C1)C2=NN([N+](=N2)C3=CC=CC=C3)C4=CC=CC=C4.[Cl-]

> <PUBCHEM_CACTVS_TPSA>
34.6

> <PUBCHEM_MONOISOTOPIC_WEIGHT>
334.098524

> <PUBCHEM_TOTAL_CHARGE>
0

> <PUBCHEM_HEAVY_ATOM_COUNT>
24

> <PUBCHEM_ATOM_DEF_STEREO_COUNT>
0

> <PUBCHEM_ATOM_UDEF_STEREO_COUNT>
0

> <PUBCHEM_BOND_DEF_STEREO_COUNT>
0

> <PUBCHEM_BOND_UDEF_STEREO_COUNT>
0

> <PUBCHEM_ISOTOPIC_ATOM_COUNT>
0

> <PUBCHEM_COMPONENT_COUNT>
2

> <PUBCHEM_CACTVS_TAUTO_COUNT>
1

> <PUBCHEM_COORDINATE_TYPE>
1
5
255

> <PUBCHEM_BONDANNOTATIONS>
10  16  8
11  17  8
12  18  8
13  19  8
14  22  8
15  23  8
16  20  8
17  20  8
18  21  8
19  21  8
2  3  8
2  4  8
22  24  8
23  24  8
3  5  8
4  8  8
5  8  8
6  10  8
6  11  8
7  12  8
7  13  8
9  14  8
9  15  8

$$$$

