585231
  -OEChem-06241222452D

 45 48  0     0  0  0  0  0  0999 V2000
    4.5390    0.5789    0.0000 O   0  0  0  0  0  0  0  0  0  0  0  0
    3.6730    2.0789    0.0000 O   0  0  0  0  0  0  0  0  0  0  0  0
    3.6730   -0.9211    0.0000 C   0  0  0  0  0  0  0  0  0  0  0  0
    4.5092   -2.3694    0.0000 C   0  0  0  0  0  0  0  0  0  0  0  0
    2.8368   -2.3694    0.0000 C   0  0  0  0  0  0  0  0  0  0  0  0
    2.9819   -2.8045    0.0000 C   0  0  0  0  0  0  0  0  0  0  0  0
    4.5092   -1.4039    0.0000 C   0  0  0  0  0  0  0  0  0  0  0  0
    2.8368   -1.4039    0.0000 C   0  0  0  0  0  0  0  0  0  0  0  0
    2.9819   -1.7592    0.0000 C   0  0  0  0  0  0  0  0  0  0  0  0
    3.6730   -2.6722    0.0000 C   0  0  0  0  0  0  0  0  0  0  0  0
    3.8876   -3.2813    0.0000 C   0  0  0  0  0  0  0  0  0  0  0  0
    2.0000   -2.8522    0.0000 C   0  0  0  0  0  0  0  0  0  0  0  0
    3.6730    0.0789    0.0000 C   0  0  0  0  0  0  0  0  0  0  0  0
    5.4050    2.0789    0.0000 C   0  0  0  0  0  0  0  0  0  0  0  0
    4.5390    1.5789    0.0000 C   0  0  0  0  0  0  0  0  0  0  0  0
    6.3186    1.6722    0.0000 C   0  0  0  0  0  0  0  0  0  0  0  0
    5.5096    3.0734    0.0000 C   0  0  0  0  0  0  0  0  0  0  0  0
    6.9877    2.4153    0.0000 C   0  0  0  0  0  0  0  0  0  0  0  0
    6.4877    3.2813    0.0000 C   0  0  0  0  0  0  0  0  0  0  0  0
    5.1016   -2.5522    0.0000 H   0  0  0  0  0  0  0  0  0  0  0  0
    2.8912   -2.9870    0.0000 H   0  0  0  0  0  0  0  0  0  0  0  0
    2.8478   -3.4098    0.0000 H   0  0  0  0  0  0  0  0  0  0  0  0
    5.1198   -1.5116    0.0000 H   0  0  0  0  0  0  0  0  0  0  0  0
    2.6383   -1.2432    0.0000 H   0  0  0  0  0  0  0  0  0  0  0  0
    2.3885   -1.9388    0.0000 H   0  0  0  0  0  0  0  0  0  0  0  0
    2.6247   -0.8213    0.0000 H   0  0  0  0  0  0  0  0  0  0  0  0
    2.2262   -1.5116    0.0000 H   0  0  0  0  0  0  0  0  0  0  0  0
    4.7212   -0.8213    0.0000 H   0  0  0  0  0  0  0  0  0  0  0  0
    3.3030   -3.1697    0.0000 H   0  0  0  0  0  0  0  0  0  0  0  0
    3.5782   -3.8186    0.0000 H   0  0  0  0  0  0  0  0  0  0  0  0
    4.4127   -3.6109    0.0000 H   0  0  0  0  0  0  0  0  0  0  0  0
    1.5188   -2.4613    0.0000 H   0  0  0  0  0  0  0  0  0  0  0  0
    1.8068   -3.4413    0.0000 H   0  0  0  0  0  0  0  0  0  0  0  0
    4.0430   -3.1697    0.0000 H   0  0  0  0  0  0  0  0  0  0  0  0
    3.4609    0.6615    0.0000 H   0  0  0  0  0  0  0  0  0  0  0  0
    3.0624   -0.0288    0.0000 H   0  0  0  0  0  0  0  0  0  0  0  0
    5.4375    1.4597    0.0000 H   0  0  0  0  0  0  0  0  0  0  0  0
    6.0086    1.1352    0.0000 H   0  0  0  0  0  0  0  0  0  0  0  0
    6.8202    1.3077    0.0000 H   0  0  0  0  0  0  0  0  0  0  0  0
    5.4448    3.6900    0.0000 H   0  0  0  0  0  0  0  0  0  0  0  0
    4.8896    3.0734    0.0000 H   0  0  0  0  0  0  0  0  0  0  0  0
    7.0541    3.5335    0.0000 H   0  0  0  0  0  0  0  0  0  0  0  0
    6.2961    3.8710    0.0000 H   0  0  0  0  0  0  0  0  0  0  0  0
    7.4026    1.9546    0.0000 H   0  0  0  0  0  0  0  0  0  0  0  0
    7.4893    2.7797    0.0000 H   0  0  0  0  0  0  0  0  0  0  0  0
  1 13  1  0  0  0  0
  1 15  1  0  0  0  0
  2 15  2  0  0  0  0
  3  7  1  0  0  0  0
  3  8  1  0  0  0  0
  3  9  1  0  0  0  0
  3 13  1  0  0  0  0
  4  7  1  0  0  0  0
  4 10  1  0  0  0  0
  4 11  1  0  0  0  0
  4 20  1  0  0  0  0
  5  8  1  0  0  0  0
  5 10  1  0  0  0  0
  5 12  1  0  0  0  0
  5 21  1  0  0  0  0
  6  9  1  0  0  0  0
  6 11  1  0  0  0  0
  6 12  1  0  0  0  0
  6 22  1  0  0  0  0
  7 23  1  0  0  0  0
  7 28  1  0  0  0  0
  8 26  1  0  0  0  0
  8 27  1  0  0  0  0
  9 24  1  0  0  0  0
  9 25  1  0  0  0  0
 10 29  1  0  0  0  0
 10 34  1  0  0  0  0
 11 30  1  0  0  0  0
 11 31  1  0  0  0  0
 12 32  1  0  0  0  0
 12 33  1  0  0  0  0
 13 35  1  0  0  0  0
 13 36  1  0  0  0  0
 14 15  1  0  0  0  0
 14 16  1  0  0  0  0
 14 17  1  0  0  0  0
 14 37  1  0  0  0  0
 16 18  1  0  0  0  0
 16 38  1  0  0  0  0
 16 39  1  0  0  0  0
 17 19  1  0  0  0  0
 17 40  1  0  0  0  0
 17 41  1  0  0  0  0
 18 19  1  0  0  0  0
 18 44  1  0  0  0  0
 18 45  1  0  0  0  0
 19 42  1  0  0  0  0
 19 43  1  0  0  0  0
M  END
> <PUBCHEM_COMPOUND_CID>
585231

> <PUBCHEM_COMPOUND_CANONICALIZED>
1

> <PUBCHEM_CACTVS_COMPLEXITY>
326

> <PUBCHEM_CACTVS_HBOND_ACCEPTOR>
2

> <PUBCHEM_CACTVS_HBOND_DONOR>
0

> <PUBCHEM_CACTVS_ROTATABLE_BOND>
4

> <PUBCHEM_CACTVS_SUBSKEYS>
AAADceB4MAAAAAAAAAAAAAAAAAAAAYAAAAAwYMGAAAAAAAAAAAAAGgAAAAAADwCggAIACAAABAAIAACQCAAAAAAAAAAAAAEAAAAAABIAAAACAAAEAAAAAAGIyOAPAAAAAAAAAAAAAAQAAAAAAAAAAAAAAA==

> <PUBCHEM_IUPAC_OPENEYE_NAME>
1-adamantylmethyl cyclopentanecarboxylate

> <PUBCHEM_IUPAC_CAS_NAME>
cyclopentanecarboxylic acid 1-adamantylmethyl ester

> <PUBCHEM_IUPAC_NAME>
1-adamantylmethyl cyclopentanecarboxylate

> <PUBCHEM_IUPAC_SYSTEMATIC_NAME>
1-adamantylmethyl cyclopentanecarboxylate

> <PUBCHEM_IUPAC_TRADITIONAL_NAME>
cyclopentanecarboxylic acid 1-adamantylmethyl ester

> <PUBCHEM_IUPAC_INCHI>
InChI=1S/C17H26O2/c18-16(15-3-1-2-4-15)19-11-17-8-12-5-13(9-17)7-14(6-12)10-17/h12-15H,1-11H2

> <PUBCHEM_IUPAC_INCHIKEY>
DMTYPQBNIZDEED-UHFFFAOYSA-N

> <PUBCHEM_XLOGP3_AA>
4.6

> <PUBCHEM_EXACT_MASS>
262.19328

> <PUBCHEM_MOLECULAR_FORMULA>
C17H26O2

> <PUBCHEM_MOLECULAR_WEIGHT>
262.38714

> <PUBCHEM_OPENEYE_CAN_SMILES>
C1CCC(C1)C(=O)OCC23CC4CC(C2)CC(C4)C3

> <PUBCHEM_OPENEYE_ISO_SMILES>
C1CCC(C1)C(=O)OCC23CC4CC(C2)CC(C4)C3

> <PUBCHEM_CACTVS_TPSA>
26.3

> <PUBCHEM_MONOISOTOPIC_WEIGHT>
262.19328

> <PUBCHEM_TOTAL_CHARGE>
0

> <PUBCHEM_HEAVY_ATOM_COUNT>
19

> <PUBCHEM_ATOM_DEF_STEREO_COUNT>
0

> <PUBCHEM_ATOM_UDEF_STEREO_COUNT>
0

> <PUBCHEM_BOND_DEF_STEREO_COUNT>
0

> <PUBCHEM_BOND_UDEF_STEREO_COUNT>
0

> <PUBCHEM_ISOTOPIC_ATOM_COUNT>
0

> <PUBCHEM_COMPONENT_COUNT>
1

> <PUBCHEM_CACTVS_TAUTO_COUNT>
1

> <PUBCHEM_COORDINATE_TYPE>
1
5
255

$$$$

