9326
  -OEChem-06261203372D

 93 99  0     1  0  0  0  0  0999 V2000
    8.2565   -0.9129    0.0000 O   0  0  0  0  0  0  0  0  0  0  0  0
    6.1234   -2.1372    0.0000 O   0  0  0  0  0  0  0  0  0  0  0  0
    4.9163    1.6800    0.0000 O   0  0  0  0  0  0  0  0  0  0  0  0
    8.6327    1.4285    0.0000 O   0  0  0  0  0  0  0  0  0  0  0  0
    7.0415    2.9919    0.0000 O   0  0  0  0  0  0  0  0  0  0  0  0
    9.0456   -0.4717    0.0000 O   0  0  0  0  0  0  0  0  0  0  0  0
    9.0339    2.1380    0.0000 O   0  0  0  0  0  0  0  0  0  0  0  0
    3.1654   -0.5901    0.0000 O   0  0  0  0  0  0  0  0  0  0  0  0
    4.0503   -2.5551    0.0000 O   0  0  0  0  0  0  0  0  0  0  0  0
    7.0001   -2.1052    0.0000 O   0  0  0  0  0  0  0  0  0  0  0  0
    9.8605    0.2068    0.0000 O   0  0  0  0  0  0  0  0  0  0  0  0
    3.7210   -0.1490    0.0000 N   0  0  3  0  0  0  0  0  0  0  0  0
    5.6676    0.2462    0.0000 C   0  0  1  0  0  0  0  0  0  0  0  0
    5.6676   -0.6213    0.0000 C   0  0  3  0  0  0  0  0  0  0  0  0
    6.3459    0.7872    0.0000 C   0  0  3  0  0  0  0  0  0  0  0  0
    4.6657    0.1402    0.0000 C   0  0  3  0  0  0  0  0  0  0  0  0
    7.1918   -0.9692    0.0000 C   0  0  3  0  0  0  0  0  0  0  0  0
    7.1918    0.5941    0.0000 C   0  0  3  0  0  0  0  0  0  0  0  0
    7.5682   -0.1876    0.0000 C   0  0  1  0  0  0  0  0  0  0  0  0
    6.3459   -1.1623    0.0000 C   0  0  3  0  0  0  0  0  0  0  0  0
    4.9163   -1.0551    0.0000 C   0  0  3  0  0  0  0  0  0  0  0  0
    4.9163    0.6800    0.0000 C   0  0  3  0  0  0  0  0  0  0  0  0
    6.2682    1.6512    0.0000 C   0  0  0  0  0  0  0  0  0  0  0  0
    7.0659    1.9922    0.0000 C   0  0  2  0  0  0  0  0  0  0  0  0
    7.6367    1.3389    0.0000 C   0  0  2  0  0  0  0  0  0  0  0  0
    8.2131    0.0824    0.0000 C   0  0  2  0  0  0  0  0  0  0  0  0
    3.7210   -0.9009    0.0000 C   0  0  0  0  0  0  0  0  0  0  0  0
    4.1649   -0.6213    0.0000 C   0  0  3  0  0  0  0  0  0  0  0  0
    8.2131    1.5669    0.0000 C   0  0  3  0  0  0  0  0  0  0  0  0
    4.1649    0.2462    0.0000 C   0  0  0  0  0  0  0  0  0  0  0  0
    4.9163   -2.0551    0.0000 C   0  0  0  0  0  0  0  0  0  0  0  0
    2.9170    0.4457    0.0000 C   0  0  0  0  0  0  0  0  0  0  0  0
    7.9725   -1.8718    0.0000 C   0  0  0  0  0  0  0  0  0  0  0  0
    6.8565   -2.8174    0.0000 C   0  0  0  0  0  0  0  0  0  0  0  0
    2.0000    0.0468    0.0000 C   0  0  0  0  0  0  0  0  0  0  0  0
    4.0503    2.1800    0.0000 C   0  0  0  0  0  0  0  0  0  0  0  0
    9.5993    1.1721    0.0000 C   0  0  0  0  0  0  0  0  0  0  0  0
    8.9498    3.1345    0.0000 C   0  0  0  0  0  0  0  0  0  0  0  0
    8.6608   -2.5971    0.0000 C   0  0  0  0  0  0  0  0  0  0  0  0
    4.0503   -3.5551    0.0000 C   0  0  0  0  0  0  0  0  0  0  0  0
   10.3046    1.8810    0.0000 C   0  0  0  0  0  0  0  0  0  0  0  0
   10.0434    2.8463    0.0000 C   0  0  0  0  0  0  0  0  0  0  0  0
   11.2712    1.6246    0.0000 C   0  0  0  0  0  0  0  0  0  0  0  0
   10.7487    3.5551    0.0000 C   0  0  0  0  0  0  0  0  0  0  0  0
   11.9765    2.3334    0.0000 C   0  0  0  0  0  0  0  0  0  0  0  0
   11.7153    3.2987    0.0000 C   0  0  0  0  0  0  0  0  0  0  0  0
    5.6213   -1.2396    0.0000 H   0  0  0  0  0  0  0  0  0  0  0  0
    5.7758    1.0308    0.0000 H   0  0  0  0  0  0  0  0  0  0  0  0
    4.5417    0.7477    0.0000 H   0  0  0  0  0  0  0  0  0  0  0  0
    7.5783   -1.4539    0.0000 H   0  0  0  0  0  0  0  0  0  0  0  0
    7.8111    0.5663    0.0000 H   0  0  0  0  0  0  0  0  0  0  0  0
    5.7607   -1.3670    0.0000 H   0  0  0  0  0  0  0  0  0  0  0  0
    5.4532    0.9900    0.0000 H   0  0  0  0  0  0  0  0  0  0  0  0
    5.6598    1.5314    0.0000 H   0  0  0  0  0  0  0  0  0  0  0  0
    6.0854    2.2437    0.0000 H   0  0  0  0  0  0  0  0  0  0  0  0
    7.8676    1.9143    0.0000 H   0  0  0  0  0  0  0  0  0  0  0  0
    8.7596    0.3751    0.0000 H   0  0  0  0  0  0  0  0  0  0  0  0
    3.6680   -1.5186    0.0000 H   0  0  0  0  0  0  0  0  0  0  0  0
    3.1015   -0.8744    0.0000 H   0  0  0  0  0  0  0  0  0  0  0  0
    3.9951   -1.2176    0.0000 H   0  0  0  0  0  0  0  0  0  0  0  0
    8.1349    2.1819    0.0000 H   0  0  0  0  0  0  0  0  0  0  0  0
    3.5544    0.1386    0.0000 H   0  0  0  0  0  0  0  0  0  0  0  0
    3.9529    0.8288    0.0000 H   0  0  0  0  0  0  0  0  0  0  0  0
    5.5269   -1.9475    0.0000 H   0  0  0  0  0  0  0  0  0  0  0  0
    5.1283   -2.6377    0.0000 H   0  0  0  0  0  0  0  0  0  0  0  0
    3.3666    0.8725    0.0000 H   0  0  0  0  0  0  0  0  0  0  0  0
    2.5747    0.9626    0.0000 H   0  0  0  0  0  0  0  0  0  0  0  0
    7.5707    3.3150    0.0000 H   0  0  0  0  0  0  0  0  0  0  0  0
    9.0062   -1.0904    0.0000 H   0  0  0  0  0  0  0  0  0  0  0  0
    2.8388   -1.1171    0.0000 H   0  0  0  0  0  0  0  0  0  0  0  0
    6.4347   -3.2719    0.0000 H   0  0  0  0  0  0  0  0  0  0  0  0
    7.3109   -3.2391    0.0000 H   0  0  0  0  0  0  0  0  0  0  0  0
    7.2782   -2.3629    0.0000 H   0  0  0  0  0  0  0  0  0  0  0  0
    1.7527    0.6153    0.0000 H   0  0  0  0  0  0  0  0  0  0  0  0
    1.4315   -0.2006    0.0000 H   0  0  0  0  0  0  0  0  0  0  0  0
    2.2473   -0.5218    0.0000 H   0  0  0  0  0  0  0  0  0  0  0  0
    3.7403    1.6431    0.0000 H   0  0  0  0  0  0  0  0  0  0  0  0
    3.5133    2.4900    0.0000 H   0  0  0  0  0  0  0  0  0  0  0  0
    4.3602    2.7170    0.0000 H   0  0  0  0  0  0  0  0  0  0  0  0
    8.3320    3.0823    0.0000 H   0  0  0  0  0  0  0  0  0  0  0  0
    8.8976    3.7523    0.0000 H   0  0  0  0  0  0  0  0  0  0  0  0
    9.5676    3.1866    0.0000 H   0  0  0  0  0  0  0  0  0  0  0  0
    8.2111   -3.0239    0.0000 H   0  0  0  0  0  0  0  0  0  0  0  0
    9.0876   -3.0469    0.0000 H   0  0  0  0  0  0  0  0  0  0  0  0
    9.1105   -2.1704    0.0000 H   0  0  0  0  0  0  0  0  0  0  0  0
    3.4303   -3.5551    0.0000 H   0  0  0  0  0  0  0  0  0  0  0  0
    4.0503   -4.1751    0.0000 H   0  0  0  0  0  0  0  0  0  0  0  0
    4.6703   -3.5551    0.0000 H   0  0  0  0  0  0  0  0  0  0  0  0
    9.4441    3.0052    0.0000 H   0  0  0  0  0  0  0  0  0  0  0  0
   11.4331    1.0261    0.0000 H   0  0  0  0  0  0  0  0  0  0  0  0
   10.5868    4.1536    0.0000 H   0  0  0  0  0  0  0  0  0  0  0  0
   12.5758    2.1745    0.0000 H   0  0  0  0  0  0  0  0  0  0  0  0
   12.1526    3.7382    0.0000 H   0  0  0  0  0  0  0  0  0  0  0  0
 19  1  1  1  0  0  0
  1 33  1  0  0  0  0
  2 20  1  0  0  0  0
  2 34  1  0  0  0  0
  3 22  1  0  0  0  0
  3 36  1  0  0  0  0
 25  4  1  6  0  0  0
  4 37  1  0  0  0  0
 24  5  1  1  0  0  0
  5 68  1  0  0  0  0
 26  6  1  6  0  0  0
  6 69  1  0  0  0  0
  7 29  1  0  0  0  0
  7 38  1  0  0  0  0
  8 28  1  0  0  0  0
  8 70  1  0  0  0  0
  9 31  1  0  0  0  0
  9 40  1  0  0  0  0
 10 33  2  0  0  0  0
 11 37  2  0  0  0  0
 12 16  1  0  0  0  0
 12 27  1  0  0  0  0
 12 32  1  0  0  0  0
 13 14  1  0  0  0  0
 13 15  1  0  0  0  0
 13 16  1  0  0  0  0
 13 22  1  1  0  0  0
 14 20  1  0  0  0  0
 14 21  1  0  0  0  0
 14 47  1  0  0  0  0
 15 18  1  0  0  0  0
 15 23  1  0  0  0  0
 15 48  1  0  0  0  0
 16 17  1  0  0  0  0
 16 49  1  0  0  0  0
 17 19  1  0  0  0  0
 17 20  1  0  0  0  0
 17 50  1  0  0  0  0
 18 19  1  0  0  0  0
 18 25  1  0  0  0  0
 18 51  1  0  0  0  0
 19 26  1  0  0  0  0
 20 52  1  0  0  0  0
 21 27  1  0  0  0  0
 21 28  1  0  0  0  0
 21 31  1  0  0  0  0
 22 30  1  0  0  0  0
 22 53  1  0  0  0  0
 23 24  1  0  0  0  0
 23 54  1  0  0  0  0
 23 55  1  0  0  0  0
 24 25  1  0  0  0  0
 24 29  1  0  0  0  0
 25 56  1  0  0  0  0
 26 29  1  0  0  0  0
 26 57  1  0  0  0  0
 27 58  1  0  0  0  0
 27 59  1  0  0  0  0
 28 30  1  0  0  0  0
 28 60  1  0  0  0  0
 29 61  1  0  0  0  0
 30 62  1  0  0  0  0
 30 63  1  0  0  0  0
 31 64  1  0  0  0  0
 31 65  1  0  0  0  0
 32 35  1  0  0  0  0
 32 66  1  0  0  0  0
 32 67  1  0  0  0  0
 33 39  1  0  0  0  0
 34 71  1  0  0  0  0
 34 72  1  0  0  0  0
 34 73  1  0  0  0  0
 35 74  1  0  0  0  0
 35 75  1  0  0  0  0
 35 76  1  0  0  0  0
 36 77  1  0  0  0  0
 36 78  1  0  0  0  0
 36 79  1  0  0  0  0
 37 41  1  0  0  0  0
 38 80  1  0  0  0  0
 38 81  1  0  0  0  0
 38 82  1  0  0  0  0
 39 83  1  0  0  0  0
 39 84  1  0  0  0  0
 39 85  1  0  0  0  0
 40 86  1  0  0  0  0
 40 87  1  0  0  0  0
 40 88  1  0  0  0  0
 41 42  2  0  0  0  0
 41 43  1  0  0  0  0
 42 44  1  0  0  0  0
 42 89  1  0  0  0  0
 43 45  2  0  0  0  0
 43 90  1  0  0  0  0
 44 46  2  0  0  0  0
 44 91  1  0  0  0  0
 45 46  1  0  0  0  0
 45 92  1  0  0  0  0
 46 93  1  0  0  0  0
M  END
> <PUBCHEM_COMPOUND_CID>
9326

> <PUBCHEM_COMPOUND_CANONICALIZED>
1

> <PUBCHEM_CACTVS_COMPLEXITY>
1210

> <PUBCHEM_CACTVS_HBOND_ACCEPTOR>
12

> <PUBCHEM_CACTVS_HBOND_DONOR>
3

> <PUBCHEM_CACTVS_ROTATABLE_BOND>
11

> <PUBCHEM_CACTVS_SUBSKEYS>
AAADcfB+PAAAAAAAAAAAAAAAAAAAAYMAAAA8YMGCB4gWAGABAAAAHgAACAAAD3zhmAYyCIMABgCIAiDSCAACAAAkAAAIiAEICMgJNjKAtRiGcQAnwAGLqYf4+P+PgAAAAAAAAADSAAaUADSAAaEADSAAAA==

> <PUBCHEM_IUPAC_INCHI>
InChI=1S/C34H47NO11/c1-7-35-15-31(16-41-3)20(37)13-21(42-4)33-19-14-32(40)28(45-30(39)18-11-9-8-10-12-18)22(19)34(46-17(2)36,27(38)29(32)44-6)23(26(33)35)24(43-5)25(31)33/h8-12,19-29,37-38,40H,7,13-16H2,1-6H3/t19?,20?,21?,22?,23?,24?,25?,26?,27-,28+,29?,31?,32+,33-,34+/m0/s1

> <PUBCHEM_IUPAC_INCHIKEY>
XFSBVAOIAHNAPC-ZLGWUEJCSA-N

> <PUBCHEM_XLOGP3_AA>
0.3

> <PUBCHEM_EXACT_MASS>
645.314911

> <PUBCHEM_MOLECULAR_FORMULA>
C34H47NO11

> <PUBCHEM_MOLECULAR_WEIGHT>
645.73708

> <PUBCHEM_OPENEYE_CAN_SMILES>
CCN1CC2(C(CC(C34C2C(C(C31)C5(C6C4CC(C6OC(=O)C7=CC=CC=C7)(C(C5O)OC)O)OC(=O)C)OC)OC)O)COC

> <PUBCHEM_OPENEYE_ISO_SMILES>
CCN1CC2(C(CC([C@@]34C2C(C(C31)[C@]5([C@H](C([C@]6(CC4C5[C@H]6OC(=O)C7=CC=CC=C7)O)OC)O)OC(=O)C)OC)OC)O)COC

> <PUBCHEM_CACTVS_TPSA>
153

> <PUBCHEM_MONOISOTOPIC_WEIGHT>
645.314911

> <PUBCHEM_TOTAL_CHARGE>
0

> <PUBCHEM_HEAVY_ATOM_COUNT>
46

> <PUBCHEM_ATOM_DEF_STEREO_COUNT>
5

> <PUBCHEM_ATOM_UDEF_STEREO_COUNT>
10

> <PUBCHEM_BOND_DEF_STEREO_COUNT>
0

> <PUBCHEM_BOND_UDEF_STEREO_COUNT>
0

> <PUBCHEM_ISOTOPIC_ATOM_COUNT>
0

> <PUBCHEM_COMPONENT_COUNT>
1

> <PUBCHEM_CACTVS_TAUTO_COUNT>
1

> <PUBCHEM_COORDINATE_TYPE>
1
5
255

> <PUBCHEM_BONDANNOTATIONS>
19  1  5
16  12  3
13  22  5
15  23  3
17  19  3
18  19  3
20  2  3
21  31  3
22  3  3
25  4  6
41  42  8
41  43  8
42  44  8
43  45  8
44  46  8
45  46  8
24  5  5
26  6  6
29  7  3
28  8  3

$$$$

