47205558
  -OEChem-06241222592D

 35 36  0     0  0  0  0  0  0999 V2000
    2.8660   -3.1739    0.0000 O   0  0  0  0  0  0  0  0  0  0  0  0
    4.5981   -2.1739    0.0000 O   0  0  0  0  0  0  0  0  0  0  0  0
    3.7320    2.3261    0.0000 N   0  0  0  0  0  0  0  0  0  0  0  0
    4.5411    2.9139    0.0000 N   0  0  0  0  0  0  0  0  0  0  0  0
    2.8660   -2.1739    0.0000 N   0  0  0  0  0  0  0  0  0  0  0  0
    2.9230    2.9139    0.0000 C   0  0  0  0  0  0  0  0  0  0  0  0
    3.2320    3.8649    0.0000 C   0  0  0  0  0  0  0  0  0  0  0  0
    4.2320    3.8649    0.0000 C   0  0  0  0  0  0  0  0  0  0  0  0
    3.7320    1.3261    0.0000 C   0  0  0  0  0  0  0  0  0  0  0  0
    4.8198    4.6739    0.0000 C   0  0  0  0  0  0  0  0  0  0  0  0
    2.8660    0.8261    0.0000 C   0  0  0  0  0  0  0  0  0  0  0  0
    4.5981    0.8261    0.0000 C   0  0  0  0  0  0  0  0  0  0  0  0
    3.7320   -0.6739    0.0000 C   0  0  0  0  0  0  0  0  0  0  0  0
    2.8660   -0.1739    0.0000 C   0  0  0  0  0  0  0  0  0  0  0  0
    4.5981   -0.1739    0.0000 C   0  0  0  0  0  0  0  0  0  0  0  0
    3.7320   -1.6739    0.0000 C   0  0  0  0  0  0  0  0  0  0  0  0
    2.0000   -3.6739    0.0000 C   0  0  0  0  0  0  0  0  0  0  0  0
    2.0000   -4.6739    0.0000 C   0  0  0  0  0  0  0  0  0  0  0  0
    2.3566    3.1660    0.0000 H   0  0  0  0  0  0  0  0  0  0  0  0
    2.6130    2.3769    0.0000 H   0  0  0  0  0  0  0  0  0  0  0  0
    3.2969    4.4815    0.0000 H   0  0  0  0  0  0  0  0  0  0  0  0
    2.6256    3.9938    0.0000 H   0  0  0  0  0  0  0  0  0  0  0  0
    5.3214    4.3095    0.0000 H   0  0  0  0  0  0  0  0  0  0  0  0
    5.1843    5.1755    0.0000 H   0  0  0  0  0  0  0  0  0  0  0  0
    4.3182    5.0384    0.0000 H   0  0  0  0  0  0  0  0  0  0  0  0
    2.3291    1.1361    0.0000 H   0  0  0  0  0  0  0  0  0  0  0  0
    5.1350    1.1361    0.0000 H   0  0  0  0  0  0  0  0  0  0  0  0
    2.3291   -0.4839    0.0000 H   0  0  0  0  0  0  0  0  0  0  0  0
    5.1350   -0.4839    0.0000 H   0  0  0  0  0  0  0  0  0  0  0  0
    2.3291   -1.8639    0.0000 H   0  0  0  0  0  0  0  0  0  0  0  0
    1.7880   -3.0913    0.0000 H   0  0  0  0  0  0  0  0  0  0  0  0
    1.3894   -3.7816    0.0000 H   0  0  0  0  0  0  0  0  0  0  0  0
    1.3800   -4.6739    0.0000 H   0  0  0  0  0  0  0  0  0  0  0  0
    2.0000   -5.2939    0.0000 H   0  0  0  0  0  0  0  0  0  0  0  0
    2.6200   -4.6739    0.0000 H   0  0  0  0  0  0  0  0  0  0  0  0
  1  5  1  0  0  0  0
  1 17  1  0  0  0  0
  2 16  2  0  0  0  0
  3  4  1  0  0  0  0
  3  6  1  0  0  0  0
  3  9  1  0  0  0  0
  4  8  2  0  0  0  0
  5 16  1  0  0  0  0
  5 30  1  0  0  0  0
  6  7  1  0  0  0  0
  6 19  1  0  0  0  0
  6 20  1  0  0  0  0
  7  8  1  0  0  0  0
  7 21  1  0  0  0  0
  7 22  1  0  0  0  0
  8 10  1  0  0  0  0
  9 11  2  0  0  0  0
  9 12  1  0  0  0  0
 10 23  1  0  0  0  0
 10 24  1  0  0  0  0
 10 25  1  0  0  0  0
 11 14  1  0  0  0  0
 11 26  1  0  0  0  0
 12 15  2  0  0  0  0
 12 27  1  0  0  0  0
 13 14  2  0  0  0  0
 13 15  1  0  0  0  0
 13 16  1  0  0  0  0
 14 28  1  0  0  0  0
 15 29  1  0  0  0  0
 17 18  1  0  0  0  0
 17 31  1  0  0  0  0
 17 32  1  0  0  0  0
 18 33  1  0  0  0  0
 18 34  1  0  0  0  0
 18 35  1  0  0  0  0
M  END
> <PUBCHEM_COMPOUND_CID>
47205558

> <PUBCHEM_COMPOUND_CANONICALIZED>
1

> <PUBCHEM_CACTVS_COMPLEXITY>
322

> <PUBCHEM_CACTVS_HBOND_ACCEPTOR>
4

> <PUBCHEM_CACTVS_HBOND_DONOR>
1

> <PUBCHEM_CACTVS_ROTATABLE_BOND>
4

> <PUBCHEM_CACTVS_SUBSKEYS>
AAADceBzMAAAAAAAAAAAAAAAAAAAAQAAAAAwAAAAAAAAAAABAAAAHgAcAAAADAjhmAYywIJQAACoAyVyUACSBAAlAgA4iAE4ZMgIIDLAlZGEIQhgiADIyYcYiQCeCAAAAAAAAAAQAAAAAAAAAAAAAAAAAA==

> <PUBCHEM_IUPAC_OPENEYE_NAME>
N-ethoxy-4-(5-methyl-3,4-dihydropyrazol-2-yl)benzamide

> <PUBCHEM_IUPAC_CAS_NAME>
N-ethoxy-4-(5-methyl-3,4-dihydropyrazol-2-yl)benzamide

> <PUBCHEM_IUPAC_NAME>
N-ethoxy-4-(5-methyl-3,4-dihydropyrazol-2-yl)benzamide

> <PUBCHEM_IUPAC_SYSTEMATIC_NAME>
N-ethoxy-4-(5-methyl-3,4-dihydropyrazol-2-yl)benzamide

> <PUBCHEM_IUPAC_TRADITIONAL_NAME>
N-ethoxy-4-(3-methyl-2-pyrazolin-1-yl)benzamide

> <PUBCHEM_IUPAC_INCHI>
InChI=1S/C13H17N3O2/c1-3-18-15-13(17)11-4-6-12(7-5-11)16-9-8-10(2)14-16/h4-7H,3,8-9H2,1-2H3,(H,15,17)

> <PUBCHEM_IUPAC_INCHIKEY>
UCMLMICYEYUTLZ-UHFFFAOYSA-N

> <PUBCHEM_XLOGP3_AA>
1.5

> <PUBCHEM_EXACT_MASS>
247.132077

> <PUBCHEM_MOLECULAR_FORMULA>
C13H17N3O2

> <PUBCHEM_MOLECULAR_WEIGHT>
247.29298

> <PUBCHEM_OPENEYE_CAN_SMILES>
CCONC(=O)C1=CC=C(C=C1)N2CCC(=N2)C

> <PUBCHEM_OPENEYE_ISO_SMILES>
CCONC(=O)C1=CC=C(C=C1)N2CCC(=N2)C

> <PUBCHEM_CACTVS_TPSA>
53.9

> <PUBCHEM_MONOISOTOPIC_WEIGHT>
247.132077

> <PUBCHEM_TOTAL_CHARGE>
0

> <PUBCHEM_HEAVY_ATOM_COUNT>
18

> <PUBCHEM_ATOM_DEF_STEREO_COUNT>
0

> <PUBCHEM_ATOM_UDEF_STEREO_COUNT>
0

> <PUBCHEM_BOND_DEF_STEREO_COUNT>
0

> <PUBCHEM_BOND_UDEF_STEREO_COUNT>
0

> <PUBCHEM_ISOTOPIC_ATOM_COUNT>
0

> <PUBCHEM_COMPONENT_COUNT>
1

> <PUBCHEM_CACTVS_TAUTO_COUNT>
2

> <PUBCHEM_COORDINATE_TYPE>
1
5
255

> <PUBCHEM_BONDANNOTATIONS>
11  14  8
12  15  8
13  14  8
13  15  8
9  11  8
9  12  8

$$$$

