47205459
  -OEChem-06241222582D

 33 34  0     0  0  0  0  0  0999 V2000
    6.3582    2.0086    0.0000 O   0  0  0  0  0  0  0  0  0  0  0  0
    2.0000   -2.7702    0.0000 O   0  0  0  0  0  0  0  0  0  0  0  0
    2.0000   -0.7702    0.0000 O   0  0  0  0  0  0  0  0  0  0  0  0
    4.5981    1.7298    0.0000 N   0  0  0  0  0  0  0  0  0  0  0  0
    5.0981    3.2686    0.0000 N   0  0  0  0  0  0  0  0  0  0  0  0
    2.8660   -2.2702    0.0000 N   0  0  0  0  0  0  0  0  0  0  0  0
    3.7891    2.3176    0.0000 C   0  0  0  0  0  0  0  0  0  0  0  0
    4.0981    3.2686    0.0000 C   0  0  0  0  0  0  0  0  0  0  0  0
    4.5981    0.7298    0.0000 C   0  0  0  0  0  0  0  0  0  0  0  0
    5.4071    2.3176    0.0000 C   0  0  0  0  0  0  0  0  0  0  0  0
    3.7320    0.2298    0.0000 C   0  0  0  0  0  0  0  0  0  0  0  0
    5.4641    0.2298    0.0000 C   0  0  0  0  0  0  0  0  0  0  0  0
    3.7320   -0.7702    0.0000 C   0  0  0  0  0  0  0  0  0  0  0  0
    5.4641   -0.7702    0.0000 C   0  0  0  0  0  0  0  0  0  0  0  0
    4.5981   -1.2702    0.0000 C   0  0  0  0  0  0  0  0  0  0  0  0
    2.8660   -1.2702    0.0000 C   0  0  0  0  0  0  0  0  0  0  0  0
    3.7320   -2.7702    0.0000 C   0  0  0  0  0  0  0  0  0  0  0  0
    2.0000   -3.7702    0.0000 C   0  0  0  0  0  0  0  0  0  0  0  0
    3.2227    2.5698    0.0000 H   0  0  0  0  0  0  0  0  0  0  0  0
    3.4791    1.7806    0.0000 H   0  0  0  0  0  0  0  0  0  0  0  0
    4.1629    3.8852    0.0000 H   0  0  0  0  0  0  0  0  0  0  0  0
    3.4916    3.3975    0.0000 H   0  0  0  0  0  0  0  0  0  0  0  0
    5.4625    3.7702    0.0000 H   0  0  0  0  0  0  0  0  0  0  0  0
    3.1951    0.5398    0.0000 H   0  0  0  0  0  0  0  0  0  0  0  0
    6.0010    0.5398    0.0000 H   0  0  0  0  0  0  0  0  0  0  0  0
    6.0010   -1.0802    0.0000 H   0  0  0  0  0  0  0  0  0  0  0  0
    4.5981   -1.8902    0.0000 H   0  0  0  0  0  0  0  0  0  0  0  0
    3.4220   -3.3072    0.0000 H   0  0  0  0  0  0  0  0  0  0  0  0
    4.2690   -3.0802    0.0000 H   0  0  0  0  0  0  0  0  0  0  0  0
    4.0420   -2.2333    0.0000 H   0  0  0  0  0  0  0  0  0  0  0  0
    1.3800   -3.7702    0.0000 H   0  0  0  0  0  0  0  0  0  0  0  0
    2.0000   -4.3902    0.0000 H   0  0  0  0  0  0  0  0  0  0  0  0
    2.6200   -3.7702    0.0000 H   0  0  0  0  0  0  0  0  0  0  0  0
  1 10  2  0  0  0  0
  2  6  1  0  0  0  0
  2 18  1  0  0  0  0
  3 16  2  0  0  0  0
  4  7  1  0  0  0  0
  4  9  1  0  0  0  0
  4 10  1  0  0  0  0
  5  8  1  0  0  0  0
  5 10  1  0  0  0  0
  5 23  1  0  0  0  0
  6 16  1  0  0  0  0
  6 17  1  0  0  0  0
  7  8  1  0  0  0  0
  7 19  1  0  0  0  0
  7 20  1  0  0  0  0
  8 21  1  0  0  0  0
  8 22  1  0  0  0  0
  9 11  1  0  0  0  0
  9 12  2  0  0  0  0
 11 13  2  0  0  0  0
 11 24  1  0  0  0  0
 12 14  1  0  0  0  0
 12 25  1  0  0  0  0
 13 15  1  0  0  0  0
 13 16  1  0  0  0  0
 14 15  2  0  0  0  0
 14 26  1  0  0  0  0
 15 27  1  0  0  0  0
 17 28  1  0  0  0  0
 17 29  1  0  0  0  0
 17 30  1  0  0  0  0
 18 31  1  0  0  0  0
 18 32  1  0  0  0  0
 18 33  1  0  0  0  0
M  END
> <PUBCHEM_COMPOUND_CID>
47205459

> <PUBCHEM_COMPOUND_CANONICALIZED>
1

> <PUBCHEM_CACTVS_COMPLEXITY>
335

> <PUBCHEM_CACTVS_HBOND_ACCEPTOR>
3

> <PUBCHEM_CACTVS_HBOND_DONOR>
1

> <PUBCHEM_CACTVS_ROTATABLE_BOND>
3

> <PUBCHEM_CACTVS_SUBSKEYS>
AAADccBzMAAAAAAAAAAAAAAAAAAAAWAAAAAwAAAAAAAAAAABAAAAHgAUAAAADAjBmAYzwIPQAACIAiVSUACCAAAlAgAoiIEIZMiIYDLAlZGUIQholgLIyacciACOAAAAQAAAAAAAAACAAAAAAAAAAAAAAA==

> <PUBCHEM_IUPAC_OPENEYE_NAME>
N-methoxy-N-methyl-3-(2-oxoimidazolidin-1-yl)benzamide

> <PUBCHEM_IUPAC_CAS_NAME>
N-methoxy-N-methyl-3-(2-oxo-1-imidazolidinyl)benzamide

> <PUBCHEM_IUPAC_NAME>
N-methoxy-N-methyl-3-(2-oxoimidazolidin-1-yl)benzamide

> <PUBCHEM_IUPAC_SYSTEMATIC_NAME>
N-methoxy-N-methyl-3-(2-oxidanylideneimidazolidin-1-yl)benzamide

> <PUBCHEM_IUPAC_TRADITIONAL_NAME>
3-(2-ketoimidazolidin-1-yl)-N-methoxy-N-methyl-benzamide

> <PUBCHEM_IUPAC_INCHI>
InChI=1S/C12H15N3O3/c1-14(18-2)11(16)9-4-3-5-10(8-9)15-7-6-13-12(15)17/h3-5,8H,6-7H2,1-2H3,(H,13,17)

> <PUBCHEM_IUPAC_INCHIKEY>
LZEKDRSGXKQWRZ-UHFFFAOYSA-N

> <PUBCHEM_XLOGP3_AA>
0.4

> <PUBCHEM_EXACT_MASS>
249.111341

> <PUBCHEM_MOLECULAR_FORMULA>
C12H15N3O3

> <PUBCHEM_MOLECULAR_WEIGHT>
249.2658

> <PUBCHEM_OPENEYE_CAN_SMILES>
CN(C(=O)C1=CC(=CC=C1)N2CCNC2=O)OC

> <PUBCHEM_OPENEYE_ISO_SMILES>
CN(C(=O)C1=CC(=CC=C1)N2CCNC2=O)OC

> <PUBCHEM_CACTVS_TPSA>
61.9

> <PUBCHEM_MONOISOTOPIC_WEIGHT>
249.111341

> <PUBCHEM_TOTAL_CHARGE>
0

> <PUBCHEM_HEAVY_ATOM_COUNT>
18

> <PUBCHEM_ATOM_DEF_STEREO_COUNT>
0

> <PUBCHEM_ATOM_UDEF_STEREO_COUNT>
0

> <PUBCHEM_BOND_DEF_STEREO_COUNT>
0

> <PUBCHEM_BOND_UDEF_STEREO_COUNT>
0

> <PUBCHEM_ISOTOPIC_ATOM_COUNT>
0

> <PUBCHEM_COMPONENT_COUNT>
1

> <PUBCHEM_CACTVS_TAUTO_COUNT>
2

> <PUBCHEM_COORDINATE_TYPE>
1
5
255

> <PUBCHEM_BONDANNOTATIONS>
11  13  8
12  14  8
13  15  8
14  15  8
9  11  8
9  12  8

$$$$

