5837
  -OEChem-06261200552D

 38 39  0     1  0  0  0  0  0999 V2000
    3.0000   -1.8170    0.0000 Si  0  0  0  0  0  0  0  0  0  0  0  0
    5.7169    0.3567    0.0000 O   0  0  0  0  0  0  0  0  0  0  0  0
    2.1340   -0.3170    0.0000 O   0  0  0  0  0  0  0  0  0  0  0  0
    3.8660    2.6830    0.0000 O   0  0  0  0  0  0  0  0  0  0  0  0
    4.7320    1.1830    0.0000 N   0  0  0  0  0  0  0  0  0  0  0  0
    3.0000    1.1830    0.0000 N   0  0  0  0  0  0  0  0  0  0  0  0
    3.8660   -0.3170    0.0000 C   0  0  0  0  0  0  0  0  0  0  0  0
    4.7320   -0.8170    0.0000 C   0  0  3  0  0  0  0  0  0  0  0  0
    3.0000   -0.8170    0.0000 C   0  0  0  0  0  0  0  0  0  0  0  0
    3.8660   -2.3170    0.0000 C   0  0  0  0  0  0  0  0  0  0  0  0
    4.7320   -1.8170    0.0000 C   0  0  0  0  0  0  0  0  0  0  0  0
    5.7169   -0.9906    0.0000 C   0  0  0  0  0  0  0  0  0  0  0  0
    2.5000   -2.6830    0.0000 C   0  0  0  0  0  0  0  0  0  0  0  0
    2.0000   -1.8170    0.0000 C   0  0  0  0  0  0  0  0  0  0  0  0
    3.0000    0.1830    0.0000 C   0  0  0  0  0  0  0  0  0  0  0  0
    4.7320    0.1830    0.0000 C   0  0  0  0  0  0  0  0  0  0  0  0
    6.0589   -1.9303    0.0000 C   0  0  0  0  0  0  0  0  0  0  0  0
    3.8660    1.6830    0.0000 C   0  0  0  0  0  0  0  0  0  0  0  0
    4.9441   -0.2344    0.0000 H   0  0  0  0  0  0  0  0  0  0  0  0
    2.7880   -0.2344    0.0000 H   0  0  0  0  0  0  0  0  0  0  0  0
    2.3894   -0.9246    0.0000 H   0  0  0  0  0  0  0  0  0  0  0  0
    3.4675   -2.7919    0.0000 H   0  0  0  0  0  0  0  0  0  0  0  0
    4.2646   -2.7919    0.0000 H   0  0  0  0  0  0  0  0  0  0  0  0
    4.9441   -2.3996    0.0000 H   0  0  0  0  0  0  0  0  0  0  0  0
    5.3426   -1.7093    0.0000 H   0  0  0  0  0  0  0  0  0  0  0  0
    6.3274   -0.8830    0.0000 H   0  0  0  0  0  0  0  0  0  0  0  0
    5.7169   -0.3706    0.0000 H   0  0  0  0  0  0  0  0  0  0  0  0
    2.0000   -1.1970    0.0000 H   0  0  0  0  0  0  0  0  0  0  0  0
    1.3800   -1.8170    0.0000 H   0  0  0  0  0  0  0  0  0  0  0  0
    2.0000   -2.4370    0.0000 H   0  0  0  0  0  0  0  0  0  0  0  0
    1.9631   -2.3730    0.0000 H   0  0  0  0  0  0  0  0  0  0  0  0
    2.1900   -3.2200    0.0000 H   0  0  0  0  0  0  0  0  0  0  0  0
    3.0369   -2.9930    0.0000 H   0  0  0  0  0  0  0  0  0  0  0  0
    5.4763   -2.1424    0.0000 H   0  0  0  0  0  0  0  0  0  0  0  0
    6.2709   -2.5129    0.0000 H   0  0  0  0  0  0  0  0  0  0  0  0
    6.6415   -1.7183    0.0000 H   0  0  0  0  0  0  0  0  0  0  0  0
    2.4631    1.4930    0.0000 H   0  0  0  0  0  0  0  0  0  0  0  0
    5.2690    1.4930    0.0000 H   0  0  0  0  0  0  0  0  0  0  0  0
  1  9  1  0  0  0  0
  1 10  1  0  0  0  0
  1 13  1  0  0  0  0
  1 14  1  0  0  0  0
  2 16  2  0  0  0  0
  3 15  2  0  0  0  0
  4 18  2  0  0  0  0
  5 16  1  0  0  0  0
  5 18  1  0  0  0  0
  5 38  1  0  0  0  0
  6 15  1  0  0  0  0
  6 18  1  0  0  0  0
  6 37  1  0  0  0  0
  7  8  1  0  0  0  0
  7  9  1  0  0  0  0
  7 15  1  0  0  0  0
  7 16  1  0  0  0  0
  8 11  1  0  0  0  0
  8 12  1  0  0  0  0
  8 19  1  0  0  0  0
  9 20  1  0  0  0  0
  9 21  1  0  0  0  0
 10 11  1  0  0  0  0
 10 22  1  0  0  0  0
 10 23  1  0  0  0  0
 11 24  1  0  0  0  0
 11 25  1  0  0  0  0
 12 17  1  0  0  0  0
 12 26  1  0  0  0  0
 12 27  1  0  0  0  0
 13 31  1  0  0  0  0
 13 32  1  0  0  0  0
 13 33  1  0  0  0  0
 14 28  1  0  0  0  0
 14 29  1  0  0  0  0
 14 30  1  0  0  0  0
 17 34  1  0  0  0  0
 17 35  1  0  0  0  0
 17 36  1  0  0  0  0
M  END
> <PUBCHEM_COMPOUND_CID>
5837

> <PUBCHEM_COMPOUND_CANONICALIZED>
1

> <PUBCHEM_CACTVS_COMPLEXITY>
400

> <PUBCHEM_CACTVS_HBOND_ACCEPTOR>
3

> <PUBCHEM_CACTVS_HBOND_DONOR>
2

> <PUBCHEM_CACTVS_ROTATABLE_BOND>
1

> <PUBCHEM_CACTVS_SUBSKEYS>
AAADceBzMAgAAAAAAAAAAAAAAAAAAAAAAAAsSAAAAAAAAAAAAAAAHhAQAAAADwCBoABDAALAAAEIAAEQEAAAAAAAAAAAAAEAAACAABoIwAAEAAAIBSIAAAAYAAAPgAAAAAAAAAAAAAAAAAAAAAAAAAAAAA==

> <PUBCHEM_IUPAC_OPENEYE_NAME>
11-ethyl-8,8-dimethyl-2,4-diaza-8-silaspiro[5.5]undecane-1,3,5-trione

> <PUBCHEM_IUPAC_CAS_NAME>
11-ethyl-8,8-dimethyl-2,4-diaza-8-silaspiro[5.5]undecane-1,3,5-trione

> <PUBCHEM_IUPAC_NAME>
11-ethyl-8,8-dimethyl-2,4-diaza-8-silaspiro[5.5]undecane-1,3,5-trione

> <PUBCHEM_IUPAC_SYSTEMATIC_NAME>
11-ethyl-8,8-dimethyl-2,4-diaza-8-silaspiro[5.5]undecane-1,3,5-trione

> <PUBCHEM_IUPAC_TRADITIONAL_NAME>
11-ethyl-8,8-dimethyl-2,4-diaza-8-silaspiro[5.5]undecane-1,3,5-trione

> <PUBCHEM_IUPAC_INCHI>
InChI=1S/C12H20N2O3Si/c1-4-8-5-6-18(2,3)7-12(8)9(15)13-11(17)14-10(12)16/h8H,4-7H2,1-3H3,(H2,13,14,15,16,17)

> <PUBCHEM_IUPAC_INCHIKEY>
XPCKHMSVEPMTSS-UHFFFAOYSA-N

> <PUBCHEM_EXACT_MASS>
268.124319

> <PUBCHEM_MOLECULAR_FORMULA>
C12H20N2O3Si

> <PUBCHEM_MOLECULAR_WEIGHT>
268.3843

> <PUBCHEM_OPENEYE_CAN_SMILES>
CCC1CC[Si](CC12C(=O)NC(=O)NC2=O)(C)C

> <PUBCHEM_OPENEYE_ISO_SMILES>
CCC1CC[Si](CC12C(=O)NC(=O)NC2=O)(C)C

> <PUBCHEM_CACTVS_TPSA>
75.3

> <PUBCHEM_MONOISOTOPIC_WEIGHT>
268.124319

> <PUBCHEM_TOTAL_CHARGE>
0

> <PUBCHEM_HEAVY_ATOM_COUNT>
18

> <PUBCHEM_ATOM_DEF_STEREO_COUNT>
0

> <PUBCHEM_ATOM_UDEF_STEREO_COUNT>
1

> <PUBCHEM_BOND_DEF_STEREO_COUNT>
0

> <PUBCHEM_BOND_UDEF_STEREO_COUNT>
0

> <PUBCHEM_ISOTOPIC_ATOM_COUNT>
0

> <PUBCHEM_COMPONENT_COUNT>
1

> <PUBCHEM_CACTVS_TAUTO_COUNT>
5

> <PUBCHEM_COORDINATE_TYPE>
1
5
255

> <PUBCHEM_BONDANNOTATIONS>
8  12  3

$$$$

