582706
  -OEChem-06241222432D

 23 24  0     0  0  0  0  0  0999 V2000
    3.8209   -1.9132    0.0000 O   0  0  0  0  0  0  0  0  0  0  0  0
    2.0000    1.8680    0.0000 O   0  0  0  0  0  0  0  0  0  0  0  0
    3.5984    1.3087    0.0000 N   0  0  0  0  0  0  0  0  0  0  0  0
    4.3802   -0.3148    0.0000 C   0  0  0  0  0  0  0  0  0  0  0  0
    4.3802    0.6852    0.0000 C   0  0  0  0  0  0  0  0  0  0  0  0
    3.5984   -0.9383    0.0000 C   0  0  0  0  0  0  0  0  0  0  0  0
    2.6235   -0.7157    0.0000 C   0  0  0  0  0  0  0  0  0  0  0  0
    5.2742   -0.8494    0.0000 C   0  0  0  0  0  0  0  0  0  0  0  0
    5.2742    1.2199    0.0000 C   0  0  0  0  0  0  0  0  0  0  0  0
    2.1896    0.1852    0.0000 C   0  0  0  0  0  0  0  0  0  0  0  0
    2.6235    1.0862    0.0000 C   0  0  0  0  0  0  0  0  0  0  0  0
    6.1803   -0.3356    0.0000 C   0  0  0  0  0  0  0  0  0  0  0  0
    6.1803    0.7061    0.0000 C   0  0  0  0  0  0  0  0  0  0  0  0
    2.0000   -1.4976    0.0000 C   0  0  0  0  0  0  0  0  0  0  0  0
    3.7364    1.9132    0.0000 H   0  0  0  0  0  0  0  0  0  0  0  0
    5.2670   -1.4694    0.0000 H   0  0  0  0  0  0  0  0  0  0  0  0
    5.2670    1.8399    0.0000 H   0  0  0  0  0  0  0  0  0  0  0  0
    1.5696    0.1852    0.0000 H   0  0  0  0  0  0  0  0  0  0  0  0
    6.7160   -0.6476    0.0000 H   0  0  0  0  0  0  0  0  0  0  0  0
    1.5153   -1.1110    0.0000 H   0  0  0  0  0  0  0  0  0  0  0  0
    1.6134   -1.9823    0.0000 H   0  0  0  0  0  0  0  0  0  0  0  0
    2.4847   -1.8841    0.0000 H   0  0  0  0  0  0  0  0  0  0  0  0
    6.7160    1.0181    0.0000 H   0  0  0  0  0  0  0  0  0  0  0  0
  1  6  2  0  0  0  0
  2 11  2  0  0  0  0
  3  5  1  0  0  0  0
  3 11  1  0  0  0  0
  3 15  1  0  0  0  0
  4  5  1  0  0  0  0
  4  6  1  0  0  0  0
  4  8  2  0  0  0  0
  5  9  2  0  0  0  0
  6  7  1  0  0  0  0
  7 10  2  0  0  0  0
  7 14  1  0  0  0  0
  8 12  1  0  0  0  0
  8 16  1  0  0  0  0
  9 13  1  0  0  0  0
  9 17  1  0  0  0  0
 10 11  1  0  0  0  0
 10 18  1  0  0  0  0
 12 13  2  0  0  0  0
 12 19  1  0  0  0  0
 13 23  1  0  0  0  0
 14 20  1  0  0  0  0
 14 21  1  0  0  0  0
 14 22  1  0  0  0  0
M  END
> <PUBCHEM_COMPOUND_CID>
582706

> <PUBCHEM_COMPOUND_CANONICALIZED>
1

> <PUBCHEM_CACTVS_COMPLEXITY>
306

> <PUBCHEM_CACTVS_HBOND_ACCEPTOR>
2

> <PUBCHEM_CACTVS_HBOND_DONOR>
1

> <PUBCHEM_CACTVS_ROTATABLE_BOND>
0

> <PUBCHEM_CACTVS_SUBSKEYS>
AAADccByMAAAAAAAAAAAAAAAAAAAAAAAAAAwAAAABAAAAAABAAAAHgAQAAAADAyBmAAywILAAACIAqVSUACCAAAlAgAIiAEAZMgIIDrAlZGEIYhglADIyccYiICOAAAAAAACAAAAAAAAAAQAAAAAAAAAAA==

> <PUBCHEM_IUPAC_OPENEYE_NAME>
4-methyl-1H-1-benzazepine-2,5-dione

> <PUBCHEM_IUPAC_CAS_NAME>
4-methyl-1H-1-benzazepine-2,5-dione

> <PUBCHEM_IUPAC_NAME>
4-methyl-1H-1-benzazepine-2,5-dione

> <PUBCHEM_IUPAC_SYSTEMATIC_NAME>
4-methyl-1H-1-benzazepine-2,5-dione

> <PUBCHEM_IUPAC_TRADITIONAL_NAME>
4-methyl-1H-1-benzazepine-2,5-quinone

> <PUBCHEM_IUPAC_INCHI>
InChI=1S/C11H9NO2/c1-7-6-10(13)12-9-5-3-2-4-8(9)11(7)14/h2-6H,1H3,(H,12,13)

> <PUBCHEM_IUPAC_INCHIKEY>
SJARJWKVXMIEKU-UHFFFAOYSA-N

> <PUBCHEM_XLOGP3_AA>
1.2

> <PUBCHEM_EXACT_MASS>
187.063329

> <PUBCHEM_MOLECULAR_FORMULA>
C11H9NO2

> <PUBCHEM_MOLECULAR_WEIGHT>
187.19466

> <PUBCHEM_OPENEYE_CAN_SMILES>
CC1=CC(=O)NC2=CC=CC=C2C1=O

> <PUBCHEM_OPENEYE_ISO_SMILES>
CC1=CC(=O)NC2=CC=CC=C2C1=O

> <PUBCHEM_CACTVS_TPSA>
46.2

> <PUBCHEM_MONOISOTOPIC_WEIGHT>
187.063329

> <PUBCHEM_TOTAL_CHARGE>
0

> <PUBCHEM_HEAVY_ATOM_COUNT>
14

> <PUBCHEM_ATOM_DEF_STEREO_COUNT>
0

> <PUBCHEM_ATOM_UDEF_STEREO_COUNT>
0

> <PUBCHEM_BOND_DEF_STEREO_COUNT>
0

> <PUBCHEM_BOND_UDEF_STEREO_COUNT>
0

> <PUBCHEM_ISOTOPIC_ATOM_COUNT>
0

> <PUBCHEM_COMPONENT_COUNT>
1

> <PUBCHEM_CACTVS_TAUTO_COUNT>
6

> <PUBCHEM_COORDINATE_TYPE>
1
5
255

> <PUBCHEM_BONDANNOTATIONS>
10  11  8
12  13  8
3  11  8
3  5  8
4  5  8
4  6  8
4  8  8
5  9  8
6  7  8
7  10  8
8  12  8
9  13  8

$$$$

