8231
  -OEChem-06261202402D

 50 50  0     1  0  0  0  0  0999 V2000
    3.1350    0.0000    0.0000 Cl  0  0  0  0  0  0  0  0  0  0  0  0
    0.9699   11.1200    0.0000 O   0  0  0  0  0  0  0  0  0  0  0  0
    5.3001   10.6200    0.0000 O   0  0  0  0  0  0  0  0  0  0  0  0
    1.8360    9.6200    0.0000 O   0  0  0  0  0  0  0  0  0  0  0  0
    4.4340   12.1200    0.0000 O   0  0  0  0  0  0  0  0  0  0  0  0
    1.4030    6.0000    0.0000 N   0  0  0  0  0  0  0  0  0  0  0  0
    4.0010    5.5000    0.0000 N   0  0  0  0  0  0  0  0  0  0  0  0
    3.1350    4.0000    0.0000 C   0  0  3  0  0  0  0  0  0  0  0  0
    2.2690    4.5000    0.0000 C   0  0  0  0  0  0  0  0  0  0  0  0
    2.2690    5.5000    0.0000 C   0  0  0  0  0  0  0  0  0  0  0  0
    3.1350    3.0000    0.0000 C   0  0  0  0  0  0  0  0  0  0  0  0
    4.0010    4.5000    0.0000 C   0  0  0  0  0  0  0  0  0  0  0  0
    2.2690    2.5000    0.0000 C   0  0  0  0  0  0  0  0  0  0  0  0
    4.0010    2.5000    0.0000 C   0  0  0  0  0  0  0  0  0  0  0  0
    4.8671    4.0000    0.0000 C   0  0  0  0  0  0  0  0  0  0  0  0
    1.4030    7.0000    0.0000 C   0  0  0  0  0  0  0  0  0  0  0  0
    0.5369    5.5000    0.0000 C   0  0  0  0  0  0  0  0  0  0  0  0
    2.2690    1.5000    0.0000 C   0  0  0  0  0  0  0  0  0  0  0  0
    4.0010    1.5000    0.0000 C   0  0  0  0  0  0  0  0  0  0  0  0
    5.7331    4.5000    0.0000 C   0  0  0  0  0  0  0  0  0  0  0  0
    3.1350    1.0000    0.0000 C   0  0  0  0  0  0  0  0  0  0  0  0
    4.8671    6.0000    0.0000 C   0  0  0  0  0  0  0  0  0  0  0  0
    5.7331    5.5000    0.0000 C   0  0  0  0  0  0  0  0  0  0  0  0
    3.5680   10.6200    0.0000 C   0  0  0  0  0  0  0  0  0  0  0  0
    2.7020   11.1200    0.0000 C   0  0  0  0  0  0  0  0  0  0  0  0
    1.8360   10.6200    0.0000 C   0  0  0  0  0  0  0  0  0  0  0  0
    4.4340   11.1200    0.0000 C   0  0  0  0  0  0  0  0  0  0  0  0
    3.1350    4.6200    0.0000 H   0  0  0  0  0  0  0  0  0  0  0  0
    1.6584    4.6077    0.0000 H   0  0  0  0  0  0  0  0  0  0  0  0
    2.0569    3.9174    0.0000 H   0  0  0  0  0  0  0  0  0  0  0  0
    2.8796    5.3923    0.0000 H   0  0  0  0  0  0  0  0  0  0  0  0
    2.4810    6.0826    0.0000 H   0  0  0  0  0  0  0  0  0  0  0  0
    1.7320    2.8100    0.0000 H   0  0  0  0  0  0  0  0  0  0  0  0
    4.5380    2.8100    0.0000 H   0  0  0  0  0  0  0  0  0  0  0  0
    4.8671    3.3800    0.0000 H   0  0  0  0  0  0  0  0  0  0  0  0
    2.0230    7.0000    0.0000 H   0  0  0  0  0  0  0  0  0  0  0  0
    1.4030    7.6200    0.0000 H   0  0  0  0  0  0  0  0  0  0  0  0
    0.2269    6.0369    0.0000 H   0  0  0  0  0  0  0  0  0  0  0  0
    0.0000    5.1900    0.0000 H   0  0  0  0  0  0  0  0  0  0  0  0
    0.8469    4.9631    0.0000 H   0  0  0  0  0  0  0  0  0  0  0  0
    0.7830    7.0000    0.0000 H   0  0  0  0  0  0  0  0  0  0  0  0
    1.7320    1.1900    0.0000 H   0  0  0  0  0  0  0  0  0  0  0  0
    4.5380    1.1900    0.0000 H   0  0  0  0  0  0  0  0  0  0  0  0
    6.2700    4.1900    0.0000 H   0  0  0  0  0  0  0  0  0  0  0  0
    4.8671    6.6200    0.0000 H   0  0  0  0  0  0  0  0  0  0  0  0
    6.2700    5.8100    0.0000 H   0  0  0  0  0  0  0  0  0  0  0  0
    3.5680   10.0000    0.0000 H   0  0  0  0  0  0  0  0  0  0  0  0
    2.7020   11.7400    0.0000 H   0  0  0  0  0  0  0  0  0  0  0  0
    0.4330   10.8100    0.0000 H   0  0  0  0  0  0  0  0  0  0  0  0
    5.8370   10.9300    0.0000 H   0  0  0  0  0  0  0  0  0  0  0  0
  1 21  1  0  0  0  0
  2 26  1  0  0  0  0
  2 49  1  0  0  0  0
  3 27  1  0  0  0  0
  3 50  1  0  0  0  0
  4 26  2  0  0  0  0
  5 27  2  0  0  0  0
  6 10  1  0  0  0  0
  6 16  1  0  0  0  0
  6 17  1  0  0  0  0
  7 12  1  0  0  0  0
  7 22  2  0  0  0  0
  8  9  1  0  0  0  0
  8 11  1  0  0  0  0
  8 12  1  0  0  0  0
  8 28  1  0  0  0  0
  9 10  1  0  0  0  0
  9 29  1  0  0  0  0
  9 30  1  0  0  0  0
 10 31  1  0  0  0  0
 10 32  1  0  0  0  0
 11 13  2  0  0  0  0
 11 14  1  0  0  0  0
 12 15  2  0  0  0  0
 13 18  1  0  0  0  0
 13 33  1  0  0  0  0
 14 19  2  0  0  0  0
 14 34  1  0  0  0  0
 15 20  1  0  0  0  0
 15 35  1  0  0  0  0
 16 36  1  0  0  0  0
 16 37  1  0  0  0  0
 16 41  1  0  0  0  0
 17 38  1  0  0  0  0
 17 39  1  0  0  0  0
 17 40  1  0  0  0  0
 18 21  2  0  0  0  0
 18 42  1  0  0  0  0
 19 21  1  0  0  0  0
 19 43  1  0  0  0  0
 20 23  2  0  0  0  0
 20 44  1  0  0  0  0
 22 23  1  0  0  0  0
 22 45  1  0  0  0  0
 23 46  1  0  0  0  0
 24 25  2  3  0  0  0
 24 27  1  0  0  0  0
 24 47  1  0  0  0  0
 25 26  1  0  0  0  0
 25 48  1  0  0  0  0
M  END
> <PUBCHEM_COMPOUND_CID>
8231

> <PUBCHEM_COMPOUND_CANONICALIZED>
1

> <PUBCHEM_CACTVS_COMPLEXITY>
368

> <PUBCHEM_CACTVS_HBOND_ACCEPTOR>
6

> <PUBCHEM_CACTVS_HBOND_DONOR>
2

> <PUBCHEM_CACTVS_ROTATABLE_BOND>
7

> <PUBCHEM_CACTVS_SUBSKEYS>
AAADceB7OAAEAAAAAAAAAAAAAAAAAAAAAAA8QAAAAAAAAAABwAAAHgIACAAADQrBniQ+iJMIEgCoAzT3TACCgCAxByAI2CA4ZtgIJOLBk5GEMAhggADI2YcQgMAOhAAAAAAAAAAIAAAAAAAAAAAAAAAAAA==

> <PUBCHEM_IUPAC_OPENEYE_NAME>
but-2-enedioic acid; 3-(4-chlorophenyl)-N,N-dimethyl-3-(2-pyridyl)propan-1-amine

> <PUBCHEM_IUPAC_CAS_NAME>
but-2-enedioic acid; 3-(4-chlorophenyl)-N,N-dimethyl-3-(2-pyridinyl)-1-propanamine

> <PUBCHEM_IUPAC_NAME>
but-2-enedioic acid; 3-(4-chlorophenyl)-N,N-dimethyl-3-pyridin-2-ylpropan-1-amine

> <PUBCHEM_IUPAC_SYSTEMATIC_NAME>
but-2-enedioic acid; 3-(4-chlorophenyl)-N,N-dimethyl-3-pyridin-2-yl-propan-1-amine

> <PUBCHEM_IUPAC_TRADITIONAL_NAME>
but-2-enedioic acid; [3-(4-chlorophenyl)-3-(2-pyridyl)propyl]-dimethyl-amine

> <PUBCHEM_IUPAC_INCHI>
InChI=1S/C16H19ClN2.C4H4O4/c1-19(2)12-10-15(16-5-3-4-11-18-16)13-6-8-14(17)9-7-13;5-3(6)1-2-4(7)8/h3-9,11,15H,10,12H2,1-2H3;1-2H,(H,5,6)(H,7,8)

> <PUBCHEM_IUPAC_INCHIKEY>
DBAKFASWICGISY-UHFFFAOYSA-N

> <PUBCHEM_EXACT_MASS>
390.134635

> <PUBCHEM_MOLECULAR_FORMULA>
C20H23ClN2O4

> <PUBCHEM_MOLECULAR_WEIGHT>
390.86062

> <PUBCHEM_OPENEYE_CAN_SMILES>
CN(C)CCC(C1=CC=C(C=C1)Cl)C2=CC=CC=N2.C(=CC(=O)O)C(=O)O

> <PUBCHEM_OPENEYE_ISO_SMILES>
CN(C)CCC(C1=CC=C(C=C1)Cl)C2=CC=CC=N2.C(=CC(=O)O)C(=O)O

> <PUBCHEM_CACTVS_TPSA>
90.7

> <PUBCHEM_MONOISOTOPIC_WEIGHT>
390.134635

> <PUBCHEM_TOTAL_CHARGE>
0

> <PUBCHEM_HEAVY_ATOM_COUNT>
27

> <PUBCHEM_ATOM_DEF_STEREO_COUNT>
0

> <PUBCHEM_ATOM_UDEF_STEREO_COUNT>
1

> <PUBCHEM_BOND_DEF_STEREO_COUNT>
0

> <PUBCHEM_BOND_UDEF_STEREO_COUNT>
1

> <PUBCHEM_ISOTOPIC_ATOM_COUNT>
0

> <PUBCHEM_COMPONENT_COUNT>
2

> <PUBCHEM_CACTVS_TAUTO_COUNT>
2

> <PUBCHEM_COORDINATE_TYPE>
1
5
255

> <PUBCHEM_BONDANNOTATIONS>
11  13  8
11  14  8
12  15  8
13  18  8
14  19  8
15  20  8
18  21  8
19  21  8
20  23  8
22  23  8
24  25  1
7  12  8
7  22  8
8  9  3

$$$$

