10497
  -OEChem-06261204362D

 65 69  0     1  0  0  0  0  0999 V2000
    7.9288   -1.6474    0.0000 O   0  0  0  0  0  0  0  0  0  0  0  0
    5.2710   -3.1958    0.0000 O   0  0  0  0  0  0  0  0  0  0  0  0
    5.6968    1.2187    0.0000 O   0  0  0  0  0  0  0  0  0  0  0  0
    3.7320    0.1882    0.0000 O   0  0  0  0  0  0  0  0  0  0  0  0
    4.9597    0.7881    0.0000 O   0  0  0  0  0  0  0  0  0  0  0  0
    2.5357   -2.6997    0.0000 O   0  0  0  0  0  0  0  0  0  0  0  0
    9.1885    3.2259    0.0000 O   0  0  0  0  0  0  0  0  0  0  0  0
   10.9491    3.5016    0.0000 O   0  0  0  0  0  0  0  0  0  0  0  0
    6.1968   -0.6474    0.0000 C   0  0  3  0  0  0  0  0  0  0  0  0
    7.0628   -1.1474    0.0000 C   0  0  3  0  0  0  0  0  0  0  0  0
    7.9288   -0.6474    0.0000 C   0  0  1  0  0  0  0  0  0  0  0  0
    7.9288    0.3526    0.0000 C   0  0  2  0  0  0  0  0  0  0  0  0
    5.2868   -1.1542    0.0000 C   0  0  2  0  0  0  0  0  0  0  0  0
    5.2787   -2.1958    0.0000 C   0  0  1  0  0  0  0  0  0  0  0  0
    6.1968    0.3526    0.0000 C   0  0  1  0  0  0  0  0  0  0  0  0
    7.0628    0.8526    0.0000 C   0  0  0  0  0  0  0  0  0  0  0  0
    8.8750    0.6574    0.0000 C   0  0  2  0  0  0  0  0  0  0  0  0
    7.0789   -2.1889    0.0000 C   0  0  0  0  0  0  0  0  0  0  0  0
    8.8750   -0.9521    0.0000 C   0  0  0  0  0  0  0  0  0  0  0  0
    6.1808   -2.7166    0.0000 C   0  0  0  0  0  0  0  0  0  0  0  0
    4.3599   -0.5901    0.0000 C   0  0  1  0  0  0  0  0  0  0  0  0
    9.4586   -0.1474    0.0000 C   0  0  0  0  0  0  0  0  0  0  0  0
    4.3433   -2.7455    0.0000 C   0  0  0  0  0  0  0  0  0  0  0  0
    5.2945   -0.1542    0.0000 C   0  0  0  0  0  0  0  0  0  0  0  0
    7.9288    1.3526    0.0000 C   0  0  0  0  0  0  0  0  0  0  0  0
    3.4120   -1.1181    0.0000 C   0  0  0  0  0  0  0  0  0  0  0  0
    3.4037   -2.2030    0.0000 C   0  0  2  0  0  0  0  0  0  0  0  0
    9.1857    1.6079    0.0000 C   0  0  0  0  0  0  0  0  0  0  0  0
    8.5993    2.4179    0.0000 C   0  0  0  0  0  0  0  0  0  0  0  0
   10.1373    1.9152    0.0000 C   0  0  0  0  0  0  0  0  0  0  0  0
   10.1390    2.9152    0.0000 C   0  0  0  0  0  0  0  0  0  0  0  0
    6.9329   -0.2224    0.0000 H   0  0  0  0  0  0  0  0  0  0  0  0
    7.8022   -1.5667    0.0000 H   0  0  0  0  0  0  0  0  0  0  0  0
    5.5979    0.1922    0.0000 H   0  0  0  0  0  0  0  0  0  0  0  0
    7.4613    1.3276    0.0000 H   0  0  0  0  0  0  0  0  0  0  0  0
    6.6643    1.3276    0.0000 H   0  0  0  0  0  0  0  0  0  0  0  0
    9.4875    0.7536    0.0000 H   0  0  0  0  0  0  0  0  0  0  0  0
    7.2969   -2.7693    0.0000 H   0  0  0  0  0  0  0  0  0  0  0  0
    7.6880   -2.0734    0.0000 H   0  0  0  0  0  0  0  0  0  0  0  0
    8.6240   -1.5190    0.0000 H   0  0  0  0  0  0  0  0  0  0  0  0
    9.4124   -1.2613    0.0000 H   0  0  0  0  0  0  0  0  0  0  0  0
    5.7835   -3.1926    0.0000 H   0  0  0  0  0  0  0  0  0  0  0  0
    6.5818   -3.1895    0.0000 H   0  0  0  0  0  0  0  0  0  0  0  0
    4.7684   -0.1237    0.0000 H   0  0  0  0  0  0  0  0  0  0  0  0
    9.9195   -0.5621    0.0000 H   0  0  0  0  0  0  0  0  0  0  0  0
    9.9195    0.2674    0.0000 H   0  0  0  0  0  0  0  0  0  0  0  0
    3.9460   -3.2215    0.0000 H   0  0  0  0  0  0  0  0  0  0  0  0
    4.7443   -3.2184    0.0000 H   0  0  0  0  0  0  0  0  0  0  0  0
    5.8619   -0.4042    0.0000 H   0  0  0  0  0  0  0  0  0  0  0  0
    4.6831   -0.2572    0.0000 H   0  0  0  0  0  0  0  0  0  0  0  0
    8.5488    1.3526    0.0000 H   0  0  0  0  0  0  0  0  0  0  0  0
    7.9288    1.9726    0.0000 H   0  0  0  0  0  0  0  0  0  0  0  0
    7.3088    1.3526    0.0000 H   0  0  0  0  0  0  0  0  0  0  0  0
    3.2075   -0.5328    0.0000 H   0  0  0  0  0  0  0  0  0  0  0  0
    2.8004   -1.2195    0.0000 H   0  0  0  0  0  0  0  0  0  0  0  0
    3.4025   -2.8230    0.0000 H   0  0  0  0  0  0  0  0  0  0  0  0
    8.4658   -1.9574    0.0000 H   0  0  0  0  0  0  0  0  0  0  0  0
    4.7317   -3.5016    0.0000 H   0  0  0  0  0  0  0  0  0  0  0  0
    6.0068    1.7556    0.0000 H   0  0  0  0  0  0  0  0  0  0  0  0
    3.1195    0.0923    0.0000 H   0  0  0  0  0  0  0  0  0  0  0  0
    8.1393    2.8336    0.0000 H   0  0  0  0  0  0  0  0  0  0  0  0
    8.1378    2.0038    0.0000 H   0  0  0  0  0  0  0  0  0  0  0  0
    4.3500    0.9004    0.0000 H   0  0  0  0  0  0  0  0  0  0  0  0
   10.6383    1.5500    0.0000 H   0  0  0  0  0  0  0  0  0  0  0  0
    2.0000   -2.3876    0.0000 H   0  0  0  0  0  0  0  0  0  0  0  0
 11  1  1  1  0  0  0
  1 57  1  0  0  0  0
 14  2  1  1  0  0  0
  2 58  1  0  0  0  0
 15  3  1  6  0  0  0
  3 59  1  0  0  0  0
 21  4  1  1  0  0  0
  4 60  1  0  0  0  0
  5 24  1  0  0  0  0
  5 63  1  0  0  0  0
 27  6  1  1  0  0  0
  6 65  1  0  0  0  0
  7 29  1  0  0  0  0
  7 31  1  0  0  0  0
  8 31  2  0  0  0  0
  9 10  1  0  0  0  0
  9 13  1  0  0  0  0
  9 15  1  0  0  0  0
  9 32  1  0  0  0  0
 10 11  1  0  0  0  0
 10 18  1  0  0  0  0
 10 33  1  0  0  0  0
 11 12  1  0  0  0  0
 11 19  1  0  0  0  0
 12 16  1  0  0  0  0
 12 17  1  0  0  0  0
 12 25  1  1  0  0  0
 13 14  1  0  0  0  0
 13 21  1  0  0  0  0
 13 24  1  1  0  0  0
 14 20  1  0  0  0  0
 14 23  1  0  0  0  0
 15 16  1  0  0  0  0
 15 34  1  0  0  0  0
 16 35  1  0  0  0  0
 16 36  1  0  0  0  0
 17 22  1  0  0  0  0
 17 28  1  1  0  0  0
 17 37  1  0  0  0  0
 18 20  1  0  0  0  0
 18 38  1  0  0  0  0
 18 39  1  0  0  0  0
 19 22  1  0  0  0  0
 19 40  1  0  0  0  0
 19 41  1  0  0  0  0
 20 42  1  0  0  0  0
 20 43  1  0  0  0  0
 21 26  1  0  0  0  0
 21 44  1  0  0  0  0
 22 45  1  0  0  0  0
 22 46  1  0  0  0  0
 23 27  1  0  0  0  0
 23 47  1  0  0  0  0
 23 48  1  0  0  0  0
 24 49  1  0  0  0  0
 24 50  1  0  0  0  0
 25 51  1  0  0  0  0
 25 52  1  0  0  0  0
 25 53  1  0  0  0  0
 26 27  1  0  0  0  0
 26 54  1  0  0  0  0
 26 55  1  0  0  0  0
 27 56  1  0  0  0  0
 28 29  1  0  0  0  0
 28 30  2  0  0  0  0
 29 61  1  0  0  0  0
 29 62  1  0  0  0  0
 30 31  1  0  0  0  0
 30 64  1  0  0  0  0
M  END
> <PUBCHEM_COMPOUND_CID>
10497

> <PUBCHEM_COMPOUND_CANONICALIZED>
1

> <PUBCHEM_CACTVS_COMPLEXITY>
813

> <PUBCHEM_CACTVS_HBOND_ACCEPTOR>
8

> <PUBCHEM_CACTVS_HBOND_DONOR>
6

> <PUBCHEM_CACTVS_ROTATABLE_BOND>
2

> <PUBCHEM_CACTVS_SUBSKEYS>
AAADcfB4PAAAAAAAAAAAAAAAAAAAAYIAAAAwYMAAAAAAAGDAAAAAGgAACAAAD1SggAICCAAABgCIAiDSCAAAAAAgAAAACAAAAEgAFAIAIQACUAAFgAAIIQPA4PwPgAAAAAAAAADCAAYQADAAAYAADAAAAA==

> <PUBCHEM_IUPAC_OPENEYE_NAME>
3-[(1R,3S,5S,10R,11R,13R,14S,17R)-1,3,5,11,14-pentahydroxy-10-(hydroxymethyl)-13-methyl-2,3,4,6,7,8,9,11,12,15,16,17-dodecahydro-1H-cyclopenta[a]phenanthren-17-yl]-2H-furan-5-one

> <PUBCHEM_IUPAC_CAS_NAME>
3-[(1R,3S,5S,10R,11R,13R,14S,17R)-1,3,5,11,14-pentahydroxy-10-(hydroxymethyl)-13-methyl-2,3,4,6,7,8,9,11,12,15,16,17-dodecahydro-1H-cyclopenta[a]phenanthren-17-yl]-2H-furan-5-one

> <PUBCHEM_IUPAC_NAME>
3-[(1R,3S,5S,10R,11R,13R,14S,17R)-1,3,5,11,14-pentahydroxy-10-(hydroxymethyl)-13-methyl-2,3,4,6,7,8,9,11,12,15,16,17-dodecahydro-1H-cyclopenta[a]phenanthren-17-yl]-2H-furan-5-one

> <PUBCHEM_IUPAC_SYSTEMATIC_NAME>
3-[(1R,3S,5S,10R,11R,13R,14S,17R)-10-(hydroxymethyl)-13-methyl-1,3,5,11,14-pentakis(oxidanyl)-2,3,4,6,7,8,9,11,12,15,16,17-dodecahydro-1H-cyclopenta[a]phenanthren-17-yl]-2H-furan-5-one

> <PUBCHEM_IUPAC_TRADITIONAL_NAME>
3-[(1R,3S,5S,10R,11R,13R,14S,17R)-1,3,5,11,14-pentahydroxy-13-methyl-10-methylol-2,3,4,6,7,8,9,11,12,15,16,17-dodecahydro-1H-cyclopenta[a]phenanthren-17-yl]-2H-furan-5-one

> <PUBCHEM_IUPAC_INCHI>
InChI=1S/C23H34O8/c1-20-9-16(26)19-15(23(20,30)5-3-14(20)12-6-18(28)31-10-12)2-4-21(29)8-13(25)7-17(27)22(19,21)11-24/h6,13-17,19,24-27,29-30H,2-5,7-11H2,1H3/t13-,14+,15?,16+,17+,19?,20+,21-,22+,23-/m0/s1

> <PUBCHEM_IUPAC_INCHIKEY>
BXSABLKMKAINIU-YOHVOCTESA-N

> <PUBCHEM_XLOGP3>
0

> <PUBCHEM_EXACT_MASS>
438.225368

> <PUBCHEM_MOLECULAR_FORMULA>
C23H34O8

> <PUBCHEM_MOLECULAR_WEIGHT>
438.51126

> <PUBCHEM_OPENEYE_CAN_SMILES>
CC12CC(C3C(C1(CCC2C4=CC(=O)OC4)O)CCC5(C3(C(CC(C5)O)O)CO)O)O

> <PUBCHEM_OPENEYE_ISO_SMILES>
C[C@]12C[C@H](C3C([C@]1(CC[C@@H]2C4=CC(=O)OC4)O)CC[C@]5([C@@]3([C@@H](C[C@@H](C5)O)O)CO)O)O

> <PUBCHEM_CACTVS_TPSA>
148

> <PUBCHEM_MONOISOTOPIC_WEIGHT>
438.225368

> <PUBCHEM_TOTAL_CHARGE>
0

> <PUBCHEM_HEAVY_ATOM_COUNT>
31

> <PUBCHEM_ATOM_DEF_STEREO_COUNT>
8

> <PUBCHEM_ATOM_UDEF_STEREO_COUNT>
2

> <PUBCHEM_BOND_DEF_STEREO_COUNT>
0

> <PUBCHEM_BOND_UDEF_STEREO_COUNT>
0

> <PUBCHEM_ISOTOPIC_ATOM_COUNT>
0

> <PUBCHEM_COMPONENT_COUNT>
1

> <PUBCHEM_CACTVS_TAUTO_COUNT>
1

> <PUBCHEM_COORDINATE_TYPE>
1
5
255

> <PUBCHEM_BONDANNOTATIONS>
11  1  5
10  33  3
12  25  5
13  24  5
17  28  5
14  2  5
15  3  6
21  4  5
27  6  5
9  32  3

$$$$

