5675
  -OEChem-06261200482D

 57 58  0     0  0  0  0  0  0999 V2000
    5.4641   -2.5600    0.0000 O   0  0  0  0  0  0  0  0  0  0  0  0
    7.1962    0.4400    0.0000 O   0  0  0  0  0  0  0  0  0  0  0  0
    3.7320    0.4400    0.0000 O   0  0  0  0  0  0  0  0  0  0  0  0
    4.5981    1.9400    0.0000 O   0  0  0  0  0  0  0  0  0  0  0  0
    8.9282    3.4400    0.0000 O   0  0  0  0  0  0  0  0  0  0  0  0
    4.5981   -1.0600    0.0000 C   0  0  0  0  0  0  0  0  0  0  0  0
    6.3301   -1.0600    0.0000 C   0  0  0  0  0  0  0  0  0  0  0  0
    5.4641   -1.5600    0.0000 C   0  0  0  0  0  0  0  0  0  0  0  0
    5.4641    0.4400    0.0000 C   0  0  0  0  0  0  0  0  0  0  0  0
    6.3301   -0.0600    0.0000 C   0  0  0  0  0  0  0  0  0  0  0  0
    4.5981   -0.0600    0.0000 C   0  0  0  0  0  0  0  0  0  0  0  0
    3.7320   -1.5600    0.0000 C   0  0  0  0  0  0  0  0  0  0  0  0
    7.1962   -1.5600    0.0000 C   0  0  0  0  0  0  0  0  0  0  0  0
    5.4641    1.4400    0.0000 C   0  0  0  0  0  0  0  0  0  0  0  0
    3.7320   -2.5600    0.0000 C   0  0  0  0  0  0  0  0  0  0  0  0
    7.1962   -2.5600    0.0000 C   0  0  0  0  0  0  0  0  0  0  0  0
    6.3301    1.9400    0.0000 C   0  0  0  0  0  0  0  0  0  0  0  0
    2.8660   -3.0600    0.0000 C   0  0  0  0  0  0  0  0  0  0  0  0
    8.0622   -3.0600    0.0000 C   0  0  0  0  0  0  0  0  0  0  0  0
    4.5981   -3.0600    0.0000 C   0  0  0  0  0  0  0  0  0  0  0  0
    7.1962    1.4400    0.0000 C   0  0  0  0  0  0  0  0  0  0  0  0
    6.3301    2.9400    0.0000 C   0  0  0  0  0  0  0  0  0  0  0  0
    2.8660   -4.0600    0.0000 C   0  0  0  0  0  0  0  0  0  0  0  0
    2.0000   -2.5600    0.0000 C   0  0  0  0  0  0  0  0  0  0  0  0
    8.0622   -4.0600    0.0000 C   0  0  0  0  0  0  0  0  0  0  0  0
    8.9282   -2.5600    0.0000 C   0  0  0  0  0  0  0  0  0  0  0  0
    8.0622    1.9400    0.0000 C   0  0  0  0  0  0  0  0  0  0  0  0
    7.1962    3.4400    0.0000 C   0  0  0  0  0  0  0  0  0  0  0  0
    8.0622    2.9400    0.0000 C   0  0  0  0  0  0  0  0  0  0  0  0
    3.5200   -0.9774    0.0000 H   0  0  0  0  0  0  0  0  0  0  0  0
    3.1215   -1.6677    0.0000 H   0  0  0  0  0  0  0  0  0  0  0  0
    7.8067   -1.6677    0.0000 H   0  0  0  0  0  0  0  0  0  0  0  0
    7.4082   -0.9774    0.0000 H   0  0  0  0  0  0  0  0  0  0  0  0
    4.2690   -2.8700    0.0000 H   0  0  0  0  0  0  0  0  0  0  0  0
    6.6592   -2.8700    0.0000 H   0  0  0  0  0  0  0  0  0  0  0  0
    7.7331    0.1300    0.0000 H   0  0  0  0  0  0  0  0  0  0  0  0
    3.1951    0.1300    0.0000 H   0  0  0  0  0  0  0  0  0  0  0  0
    4.2881   -2.5231    0.0000 H   0  0  0  0  0  0  0  0  0  0  0  0
    4.0611   -3.3700    0.0000 H   0  0  0  0  0  0  0  0  0  0  0  0
    4.9081   -3.5969    0.0000 H   0  0  0  0  0  0  0  0  0  0  0  0
    7.1962    0.8200    0.0000 H   0  0  0  0  0  0  0  0  0  0  0  0
    5.7932    3.2500    0.0000 H   0  0  0  0  0  0  0  0  0  0  0  0
    2.2460   -4.0600    0.0000 H   0  0  0  0  0  0  0  0  0  0  0  0
    2.8660   -4.6800    0.0000 H   0  0  0  0  0  0  0  0  0  0  0  0
    3.4860   -4.0600    0.0000 H   0  0  0  0  0  0  0  0  0  0  0  0
    2.3100   -2.0231    0.0000 H   0  0  0  0  0  0  0  0  0  0  0  0
    1.4631   -2.2500    0.0000 H   0  0  0  0  0  0  0  0  0  0  0  0
    1.6900   -3.0969    0.0000 H   0  0  0  0  0  0  0  0  0  0  0  0
    9.2382   -3.0969    0.0000 H   0  0  0  0  0  0  0  0  0  0  0  0
    9.4651   -2.2500    0.0000 H   0  0  0  0  0  0  0  0  0  0  0  0
    7.4422   -4.0600    0.0000 H   0  0  0  0  0  0  0  0  0  0  0  0
    8.0622   -4.6800    0.0000 H   0  0  0  0  0  0  0  0  0  0  0  0
    8.6822   -4.0600    0.0000 H   0  0  0  0  0  0  0  0  0  0  0  0
    8.6182   -2.0231    0.0000 H   0  0  0  0  0  0  0  0  0  0  0  0
    8.5991    1.6300    0.0000 H   0  0  0  0  0  0  0  0  0  0  0  0
    7.1962    4.0600    0.0000 H   0  0  0  0  0  0  0  0  0  0  0  0
    8.9282    4.0600    0.0000 H   0  0  0  0  0  0  0  0  0  0  0  0
  1  8  1  0  0  0  0
  1 20  1  0  0  0  0
  2 10  1  0  0  0  0
  2 36  1  0  0  0  0
  3 11  1  0  0  0  0
  3 37  1  0  0  0  0
  4 14  2  0  0  0  0
  5 29  1  0  0  0  0
  5 57  1  0  0  0  0
  6  8  2  0  0  0  0
  6 11  1  0  0  0  0
  6 12  1  0  0  0  0
  7  8  1  0  0  0  0
  7 10  2  0  0  0  0
  7 13  1  0  0  0  0
  9 10  1  0  0  0  0
  9 11  2  0  0  0  0
  9 14  1  0  0  0  0
 12 15  1  0  0  0  0
 12 30  1  0  0  0  0
 12 31  1  0  0  0  0
 13 16  1  0  0  0  0
 13 32  1  0  0  0  0
 13 33  1  0  0  0  0
 14 17  1  0  0  0  0
 15 18  2  0  0  0  0
 15 34  1  0  0  0  0
 16 19  2  0  0  0  0
 16 35  1  0  0  0  0
 17 21  2  0  0  0  0
 17 22  1  0  0  0  0
 18 23  1  0  0  0  0
 18 24  1  0  0  0  0
 19 25  1  0  0  0  0
 19 26  1  0  0  0  0
 20 38  1  0  0  0  0
 20 39  1  0  0  0  0
 20 40  1  0  0  0  0
 21 27  1  0  0  0  0
 21 41  1  0  0  0  0
 22 28  2  0  0  0  0
 22 42  1  0  0  0  0
 23 43  1  0  0  0  0
 23 44  1  0  0  0  0
 23 45  1  0  0  0  0
 24 46  1  0  0  0  0
 24 47  1  0  0  0  0
 24 48  1  0  0  0  0
 25 51  1  0  0  0  0
 25 52  1  0  0  0  0
 25 53  1  0  0  0  0
 26 49  1  0  0  0  0
 26 50  1  0  0  0  0
 26 54  1  0  0  0  0
 27 29  2  0  0  0  0
 27 55  1  0  0  0  0
 28 29  1  0  0  0  0
 28 56  1  0  0  0  0
M  END
> <PUBCHEM_COMPOUND_CID>
5675

> <PUBCHEM_COMPOUND_CANONICALIZED>
1

> <PUBCHEM_CACTVS_COMPLEXITY>
560

> <PUBCHEM_CACTVS_HBOND_ACCEPTOR>
5

> <PUBCHEM_CACTVS_HBOND_DONOR>
3

> <PUBCHEM_CACTVS_ROTATABLE_BOND>
7

> <PUBCHEM_CACTVS_SUBSKEYS>
AAADceB4OAAAAAAAAAAAAAAAAAAAAAAAAAAwYAAAAAAAAAABQAAAGgAACAAADASAmAIyBoAABgCIAqBSAAACCAAkIAAIiAEGCMgMJzaGNRqAcWAl4BUIuYeI7OzOIAACCAAIAABAAAQQABAAAAAAAAAAAA==

> <PUBCHEM_IUPAC_OPENEYE_NAME>
[2,6-dihydroxy-4-methoxy-3,5-bis(3-methylbut-2-enyl)phenyl]-(4-hydroxyphenyl)methanone

> <PUBCHEM_IUPAC_CAS_NAME>
[2,6-dihydroxy-4-methoxy-3,5-bis(3-methylbut-2-enyl)phenyl]-(4-hydroxyphenyl)methanone

> <PUBCHEM_IUPAC_NAME>
[2,6-dihydroxy-4-methoxy-3,5-bis(3-methylbut-2-enyl)phenyl]-(4-hydroxyphenyl)methanone

> <PUBCHEM_IUPAC_SYSTEMATIC_NAME>
(4-hydroxyphenyl)-[4-methoxy-3,5-bis(3-methylbut-2-enyl)-2,6-bis(oxidanyl)phenyl]methanone

> <PUBCHEM_IUPAC_TRADITIONAL_NAME>
[2,6-dihydroxy-4-methoxy-3,5-bis(3-methylbut-2-enyl)phenyl]-(4-hydroxyphenyl)methanone

> <PUBCHEM_IUPAC_INCHI>
InChI=1S/C24H28O5/c1-14(2)6-12-18-22(27)20(21(26)16-8-10-17(25)11-9-16)23(28)19(24(18)29-5)13-7-15(3)4/h6-11,25,27-28H,12-13H2,1-5H3

> <PUBCHEM_IUPAC_INCHIKEY>
FKLXSDINWGPHEI-UHFFFAOYSA-N

> <PUBCHEM_XLOGP3_AA>
6.6

> <PUBCHEM_EXACT_MASS>
396.193674

> <PUBCHEM_MOLECULAR_FORMULA>
C24H28O5

> <PUBCHEM_MOLECULAR_WEIGHT>
396.47612

> <PUBCHEM_OPENEYE_CAN_SMILES>
CC(=CCC1=C(C(=C(C(=C1OC)CC=C(C)C)O)C(=O)C2=CC=C(C=C2)O)O)C

> <PUBCHEM_OPENEYE_ISO_SMILES>
CC(=CCC1=C(C(=C(C(=C1OC)CC=C(C)C)O)C(=O)C2=CC=C(C=C2)O)O)C

> <PUBCHEM_CACTVS_TPSA>
87

> <PUBCHEM_MONOISOTOPIC_WEIGHT>
396.193674

> <PUBCHEM_TOTAL_CHARGE>
0

> <PUBCHEM_HEAVY_ATOM_COUNT>
29

> <PUBCHEM_ATOM_DEF_STEREO_COUNT>
0

> <PUBCHEM_ATOM_UDEF_STEREO_COUNT>
0

> <PUBCHEM_BOND_DEF_STEREO_COUNT>
0

> <PUBCHEM_BOND_UDEF_STEREO_COUNT>
0

> <PUBCHEM_ISOTOPIC_ATOM_COUNT>
0

> <PUBCHEM_COMPONENT_COUNT>
1

> <PUBCHEM_CACTVS_TAUTO_COUNT>
26

> <PUBCHEM_COORDINATE_TYPE>
1
5
255

> <PUBCHEM_BONDANNOTATIONS>
17  21  8
17  22  8
21  27  8
22  28  8
27  29  8
28  29  8
6  11  8
6  8  8
7  10  8
7  8  8
9  10  8
9  11  8

$$$$

