14318
  -OEChem-06241222432D

 19 20  0     0  0  0  0  0  0999 V2000
    5.8550   -1.5747    0.0000 O   0  0  0  0  0  0  0  0  0  0  0  0
    7.1279    0.1806    0.0000 O   0  0  0  0  0  0  0  0  0  0  0  0
    5.5443    0.9853    0.0000 N   0  0  0  0  0  0  0  0  0  0  0  0
    4.5981    0.6806    0.0000 C   0  0  0  0  0  0  0  0  0  0  0  0
    4.5981   -0.3194    0.0000 C   0  0  0  0  0  0  0  0  0  0  0  0
    3.7320    1.1806    0.0000 C   0  0  0  0  0  0  0  0  0  0  0  0
    2.8660    0.6806    0.0000 C   0  0  0  0  0  0  0  0  0  0  0  0
    3.7320   -0.8194    0.0000 C   0  0  0  0  0  0  0  0  0  0  0  0
    5.5443   -0.6241    0.0000 C   0  0  0  0  0  0  0  0  0  0  0  0
    2.8660   -0.3194    0.0000 C   0  0  0  0  0  0  0  0  0  0  0  0
    6.1279    0.1806    0.0000 C   0  0  0  0  0  0  0  0  0  0  0  0
    2.0000    1.1806    0.0000 C   0  0  0  0  0  0  0  0  0  0  0  0
    3.7320    1.8006    0.0000 H   0  0  0  0  0  0  0  0  0  0  0  0
    5.7369    1.5747    0.0000 H   0  0  0  0  0  0  0  0  0  0  0  0
    3.7320   -1.4394    0.0000 H   0  0  0  0  0  0  0  0  0  0  0  0
    2.3291   -0.6294    0.0000 H   0  0  0  0  0  0  0  0  0  0  0  0
    2.3100    1.7175    0.0000 H   0  0  0  0  0  0  0  0  0  0  0  0
    1.4631    1.4906    0.0000 H   0  0  0  0  0  0  0  0  0  0  0  0
    1.6900    0.6437    0.0000 H   0  0  0  0  0  0  0  0  0  0  0  0
  1  9  2  0  0  0  0
  2 11  2  0  0  0  0
  3  4  1  0  0  0  0
  3 11  1  0  0  0  0
  3 14  1  0  0  0  0
  4  5  2  0  0  0  0
  4  6  1  0  0  0  0
  5  8  1  0  0  0  0
  5  9  1  0  0  0  0
  6  7  2  0  0  0  0
  6 13  1  0  0  0  0
  7 10  1  0  0  0  0
  7 12  1  0  0  0  0
  8 10  2  0  0  0  0
  8 15  1  0  0  0  0
  9 11  1  0  0  0  0
 10 16  1  0  0  0  0
 12 17  1  0  0  0  0
 12 18  1  0  0  0  0
 12 19  1  0  0  0  0
M  END
> <PUBCHEM_COMPOUND_CID>
14318

> <PUBCHEM_COMPOUND_CANONICALIZED>
1

> <PUBCHEM_CACTVS_COMPLEXITY>
237

> <PUBCHEM_CACTVS_HBOND_ACCEPTOR>
2

> <PUBCHEM_CACTVS_HBOND_DONOR>
1

> <PUBCHEM_CACTVS_ROTATABLE_BOND>
0

> <PUBCHEM_CACTVS_SUBSKEYS>
AAADcYByMAAAAAAAAAAAAAAAAAAAAWAAAAAwAAAAAAAAAFgBAAAAHgAQAAAADAyBmAAywILAAACIAqVSUACCAAAlAgAIiAGAZMgIIDrAlbGEIYhglADIyccciMCOQAAAQAACAACAAACAAAQAAAAAAAAAAA==

> <PUBCHEM_IUPAC_OPENEYE_NAME>
6-methylindoline-2,3-dione

> <PUBCHEM_IUPAC_CAS_NAME>
6-methyl-1H-indole-2,3-dione

> <PUBCHEM_IUPAC_NAME>
6-methyl-1H-indole-2,3-dione

> <PUBCHEM_IUPAC_SYSTEMATIC_NAME>
6-methyl-1H-indole-2,3-dione

> <PUBCHEM_IUPAC_TRADITIONAL_NAME>
6-methylisatin

> <PUBCHEM_IUPAC_INCHI>
InChI=1S/C9H7NO2/c1-5-2-3-6-7(4-5)10-9(12)8(6)11/h2-4H,1H3,(H,10,11,12)

> <PUBCHEM_IUPAC_INCHIKEY>
VFJUMJDSHGVFAH-UHFFFAOYSA-N

> <PUBCHEM_XLOGP3>
1.2

> <PUBCHEM_EXACT_MASS>
161.047678

> <PUBCHEM_MOLECULAR_FORMULA>
C9H7NO2

> <PUBCHEM_MOLECULAR_WEIGHT>
161.15738

> <PUBCHEM_OPENEYE_CAN_SMILES>
CC1=CC2=C(C=C1)C(=O)C(=O)N2

> <PUBCHEM_OPENEYE_ISO_SMILES>
CC1=CC2=C(C=C1)C(=O)C(=O)N2

> <PUBCHEM_CACTVS_TPSA>
46.2

> <PUBCHEM_MONOISOTOPIC_WEIGHT>
161.047678

> <PUBCHEM_TOTAL_CHARGE>
0

> <PUBCHEM_HEAVY_ATOM_COUNT>
12

> <PUBCHEM_ATOM_DEF_STEREO_COUNT>
0

> <PUBCHEM_ATOM_UDEF_STEREO_COUNT>
0

> <PUBCHEM_BOND_DEF_STEREO_COUNT>
0

> <PUBCHEM_BOND_UDEF_STEREO_COUNT>
0

> <PUBCHEM_ISOTOPIC_ATOM_COUNT>
0

> <PUBCHEM_COMPONENT_COUNT>
1

> <PUBCHEM_CACTVS_TAUTO_COUNT>
17

> <PUBCHEM_COORDINATE_TYPE>
1
5
255

> <PUBCHEM_BONDANNOTATIONS>
4  5  8
4  6  8
5  8  8
6  7  8
7  10  8
8  10  8

$$$$

