17395575
  -OEChem-06241222512D

 41 43  0     1  0  0  0  0  0999 V2000
    5.4641   -0.2500    0.0000 S   0  0  0  0  0  0  0  0  0  0  0  0
    7.2764   -3.0547    0.0000 S   0  0  0  0  0  0  0  0  0  0  0  0
    2.0000    2.7500    0.0000 O   0  0  0  0  0  0  0  0  0  0  0  0
    5.4641    1.7500    0.0000 O   0  0  0  0  0  0  0  0  0  0  0  0
    3.7320    1.7500    0.0000 N   0  0  0  0  0  0  0  0  0  0  0  0
    4.5981   -1.7500    0.0000 N   0  0  0  0  0  0  0  0  0  0  0  0
    5.4641   -3.2500    0.0000 N   0  0  0  0  0  0  0  0  0  0  0  0
    2.8660    1.2500    0.0000 C   0  0  0  0  0  0  0  0  0  0  0  0
    3.7320    2.7500    0.0000 C   0  0  0  0  0  0  0  0  0  0  0  0
    2.0000    1.7500    0.0000 C   0  0  0  0  0  0  0  0  0  0  0  0
    2.8660    3.2500    0.0000 C   0  0  0  0  0  0  0  0  0  0  0  0
    4.5981    1.2500    0.0000 C   0  0  0  0  0  0  0  0  0  0  0  0
    4.5981    0.2500    0.0000 C   0  0  3  0  0  0  0  0  0  0  0  0
    3.7320   -0.2500    0.0000 C   0  0  0  0  0  0  0  0  0  0  0  0
    6.3301   -1.7500    0.0000 C   0  0  0  0  0  0  0  0  0  0  0  0
    5.4641   -1.2500    0.0000 C   0  0  0  0  0  0  0  0  0  0  0  0
    7.8600   -2.2500    0.0000 C   0  0  0  0  0  0  0  0  0  0  0  0
    7.2764   -1.4453    0.0000 C   0  0  0  0  0  0  0  0  0  0  0  0
    6.3301   -2.7500    0.0000 C   0  0  0  0  0  0  0  0  0  0  0  0
    8.8600   -2.2500    0.0000 C   0  0  0  0  0  0  0  0  0  0  0  0
    9.3600   -3.1160    0.0000 C   0  0  0  0  0  0  0  0  0  0  0  0
    4.5981   -2.7500    0.0000 C   0  0  0  0  0  0  0  0  0  0  0  0
    4.3426    2.6423    0.0000 H   0  0  0  0  0  0  0  0  0  0  0  0
    3.9441    3.3326    0.0000 H   0  0  0  0  0  0  0  0  0  0  0  0
    2.4675    0.7751    0.0000 H   0  0  0  0  0  0  0  0  0  0  0  0
    3.2646    0.7751    0.0000 H   0  0  0  0  0  0  0  0  0  0  0  0
    3.2646    3.7250    0.0000 H   0  0  0  0  0  0  0  0  0  0  0  0
    2.4675    3.7250    0.0000 H   0  0  0  0  0  0  0  0  0  0  0  0
    1.3894    1.8577    0.0000 H   0  0  0  0  0  0  0  0  0  0  0  0
    1.7880    1.1674    0.0000 H   0  0  0  0  0  0  0  0  0  0  0  0
    4.5981   -0.3700    0.0000 H   0  0  0  0  0  0  0  0  0  0  0  0
    3.4220    0.2869    0.0000 H   0  0  0  0  0  0  0  0  0  0  0  0
    3.1951   -0.5600    0.0000 H   0  0  0  0  0  0  0  0  0  0  0  0
    4.0420   -0.7869    0.0000 H   0  0  0  0  0  0  0  0  0  0  0  0
    7.4690   -0.8559    0.0000 H   0  0  0  0  0  0  0  0  0  0  0  0
    9.4426   -2.0380    0.0000 H   0  0  0  0  0  0  0  0  0  0  0  0
    8.7523   -1.6394    0.0000 H   0  0  0  0  0  0  0  0  0  0  0  0
    8.8230   -3.4260    0.0000 H   0  0  0  0  0  0  0  0  0  0  0  0
    9.6700   -3.6530    0.0000 H   0  0  0  0  0  0  0  0  0  0  0  0
    9.8969   -2.8060    0.0000 H   0  0  0  0  0  0  0  0  0  0  0  0
    4.0611   -3.0600    0.0000 H   0  0  0  0  0  0  0  0  0  0  0  0
  1 13  1  0  0  0  0
  1 16  1  0  0  0  0
  2 17  1  0  0  0  0
  2 19  1  0  0  0  0
  3 10  1  0  0  0  0
  3 11  1  0  0  0  0
  4 12  2  0  0  0  0
  5  8  1  0  0  0  0
  5  9  1  0  0  0  0
  5 12  1  0  0  0  0
  6 16  2  0  0  0  0
  6 22  1  0  0  0  0
  7 19  1  0  0  0  0
  7 22  2  0  0  0  0
  8 10  1  0  0  0  0
  8 25  1  0  0  0  0
  8 26  1  0  0  0  0
  9 11  1  0  0  0  0
  9 23  1  0  0  0  0
  9 24  1  0  0  0  0
 10 29  1  0  0  0  0
 10 30  1  0  0  0  0
 11 27  1  0  0  0  0
 11 28  1  0  0  0  0
 12 13  1  0  0  0  0
 13 14  1  0  0  0  0
 13 31  1  0  0  0  0
 14 32  1  0  0  0  0
 14 33  1  0  0  0  0
 14 34  1  0  0  0  0
 15 16  1  0  0  0  0
 15 18  1  0  0  0  0
 15 19  2  0  0  0  0
 17 18  2  0  0  0  0
 17 20  1  0  0  0  0
 18 35  1  0  0  0  0
 20 21  1  0  0  0  0
 20 36  1  0  0  0  0
 20 37  1  0  0  0  0
 21 38  1  0  0  0  0
 21 39  1  0  0  0  0
 21 40  1  0  0  0  0
 22 41  1  0  0  0  0
M  END
> <PUBCHEM_COMPOUND_CID>
17395575

> <PUBCHEM_COMPOUND_CANONICALIZED>
1

> <PUBCHEM_CACTVS_COMPLEXITY>
393

> <PUBCHEM_CACTVS_HBOND_ACCEPTOR>
6

> <PUBCHEM_CACTVS_HBOND_DONOR>
0

> <PUBCHEM_CACTVS_ROTATABLE_BOND>
4

> <PUBCHEM_CACTVS_SUBSKEYS>
AAADceBzMABgAAAAAAAAAAAAAAAAASAAAAAsWAAAAAAAAFgB+AAAHgQAAAAADADl2ga3kdcIFAisAiFzdACD0KlxCLhB2DkoRJiKKKLg2dGHBAxohgL4yCcQAAAMAAAAAAAAAAAAAAAAAAAAAAAAAAAAAA==

> <PUBCHEM_IUPAC_OPENEYE_NAME>
2-(6-ethylthieno[2,3-d]pyrimidin-4-yl)sulfanyl-1-morpholino-propan-1-one

> <PUBCHEM_IUPAC_CAS_NAME>
2-[(6-ethyl-4-thieno[2,3-d]pyrimidinyl)thio]-1-(4-morpholinyl)-1-propanone

> <PUBCHEM_IUPAC_NAME>
2-(6-ethylthieno[2,3-d]pyrimidin-4-yl)sulfanyl-1-morpholin-4-ylpropan-1-one

> <PUBCHEM_IUPAC_SYSTEMATIC_NAME>
2-(6-ethylthieno[2,3-d]pyrimidin-4-yl)sulfanyl-1-morpholin-4-yl-propan-1-one

> <PUBCHEM_IUPAC_TRADITIONAL_NAME>
2-[(6-ethylthieno[2,3-d]pyrimidin-4-yl)thio]-1-morpholino-propan-1-one

> <PUBCHEM_IUPAC_INCHI>
InChI=1S/C15H19N3O2S2/c1-3-11-8-12-13(16-9-17-14(12)22-11)21-10(2)15(19)18-4-6-20-7-5-18/h8-10H,3-7H2,1-2H3

> <PUBCHEM_IUPAC_INCHIKEY>
ZRVJYCXNRMHUGQ-UHFFFAOYSA-N

> <PUBCHEM_XLOGP3_AA>
2.8

> <PUBCHEM_EXACT_MASS>
337.091869

> <PUBCHEM_MOLECULAR_FORMULA>
C15H19N3O2S2

> <PUBCHEM_MOLECULAR_WEIGHT>
337.46026

> <PUBCHEM_OPENEYE_CAN_SMILES>
CCC1=CC2=C(S1)N=CN=C2SC(C)C(=O)N3CCOCC3

> <PUBCHEM_OPENEYE_ISO_SMILES>
CCC1=CC2=C(S1)N=CN=C2SC(C)C(=O)N3CCOCC3

> <PUBCHEM_CACTVS_TPSA>
109

> <PUBCHEM_MONOISOTOPIC_WEIGHT>
337.091869

> <PUBCHEM_TOTAL_CHARGE>
0

> <PUBCHEM_HEAVY_ATOM_COUNT>
22

> <PUBCHEM_ATOM_DEF_STEREO_COUNT>
0

> <PUBCHEM_ATOM_UDEF_STEREO_COUNT>
1

> <PUBCHEM_BOND_DEF_STEREO_COUNT>
0

> <PUBCHEM_BOND_UDEF_STEREO_COUNT>
0

> <PUBCHEM_ISOTOPIC_ATOM_COUNT>
0

> <PUBCHEM_COMPONENT_COUNT>
1

> <PUBCHEM_CACTVS_TAUTO_COUNT>
1

> <PUBCHEM_COORDINATE_TYPE>
1
5
255

> <PUBCHEM_BONDANNOTATIONS>
13  14  3
15  16  8
15  18  8
15  19  8
17  18  8
2  17  8
2  19  8
6  16  8
6  22  8
7  19  8
7  22  8

$$$$

