9778
  -OEChem-06261204032D

 23 22  0     0  0  0  0  0  0999 V2000
    4.9641    0.9330    0.0000 F   0  0  0  0  0  0  0  0  0  0  0  0
    5.9641   -0.7990    0.0000 F   0  0  0  0  0  0  0  0  0  0  0  0
    5.8301    1.4330    0.0000 F   0  0  0  0  0  0  0  0  0  0  0  0
    6.8301   -0.2990    0.0000 F   0  0  0  0  0  0  0  0  0  0  0  0
    4.0981    0.4330    0.0000 F   0  0  0  0  0  0  0  0  0  0  0  0
    5.0981   -1.2990    0.0000 F   0  0  0  0  0  0  0  0  0  0  0  0
    7.6962    0.2010    0.0000 F   0  0  0  0  0  0  0  0  0  0  0  0
    6.6962    1.9330    0.0000 F   0  0  0  0  0  0  0  0  0  0  0  0
    3.2320   -0.0670    0.0000 F   0  0  0  0  0  0  0  0  0  0  0  0
    4.2320   -1.7990    0.0000 F   0  0  0  0  0  0  0  0  0  0  0  0
    8.9282    2.0670    0.0000 F   0  0  0  0  0  0  0  0  0  0  0  0
    8.5622    0.7010    0.0000 F   0  0  0  0  0  0  0  0  0  0  0  0
    7.5622    2.4330    0.0000 F   0  0  0  0  0  0  0  0  0  0  0  0
    2.0000   -0.9330    0.0000 F   0  0  0  0  0  0  0  0  0  0  0  0
    2.8660   -2.4330    0.0000 F   0  0  0  0  0  0  0  0  0  0  0  0
    5.4641    0.0670    0.0000 C   0  0  0  0  0  0  0  0  0  0  0  0
    6.3301    0.5670    0.0000 C   0  0  0  0  0  0  0  0  0  0  0  0
    4.5981   -0.4330    0.0000 C   0  0  0  0  0  0  0  0  0  0  0  0
    7.1962    1.0670    0.0000 C   0  0  0  0  0  0  0  0  0  0  0  0
    3.7320   -0.9330    0.0000 C   0  0  0  0  0  0  0  0  0  0  0  0
    8.0622    1.5670    0.0000 C   0  0  0  0  0  0  0  0  0  0  0  0
    2.8660   -1.4330    0.0000 C   0  0  0  0  0  0  0  0  0  0  0  0
    2.8660   -0.8130    0.0000 H   0  0  0  0  0  0  0  0  0  0  0  0
  1 16  1  0  0  0  0
  2 16  1  0  0  0  0
  3 17  1  0  0  0  0
  4 17  1  0  0  0  0
  5 18  1  0  0  0  0
  6 18  1  0  0  0  0
  7 19  1  0  0  0  0
  8 19  1  0  0  0  0
  9 20  1  0  0  0  0
 10 20  1  0  0  0  0
 11 21  1  0  0  0  0
 12 21  1  0  0  0  0
 13 21  1  0  0  0  0
 14 22  1  0  0  0  0
 15 22  1  0  0  0  0
 16 17  1  0  0  0  0
 16 18  1  0  0  0  0
 17 19  1  0  0  0  0
 18 20  1  0  0  0  0
 19 21  1  0  0  0  0
 20 22  1  0  0  0  0
 22 23  1  0  0  0  0
M  END
> <PUBCHEM_COMPOUND_CID>
9778

> <PUBCHEM_COMPOUND_CANONICALIZED>
1

> <PUBCHEM_CACTVS_COMPLEXITY>
401

> <PUBCHEM_CACTVS_HBOND_ACCEPTOR>
15

> <PUBCHEM_CACTVS_HBOND_DONOR>
0

> <PUBCHEM_CACTVS_ROTATABLE_BOND>
5

> <PUBCHEM_CACTVS_SUBSKEYS>
AAADcQBgAcAAAAAAAAAAAAAAAAAAAAAAAAAAAAAAAAAAAAAAAAAAGQAAAAAACACAABAAAAAAAAAAAAAAAAAAAAAAAAAAAAAAAAAAAAIAAAAAAAAAAAAAAAEAgAAAAAAAAAAAAAAAAAAAAAAAAAAAAAAAAA==

> <PUBCHEM_IUPAC_OPENEYE_NAME>
1,1,1,2,2,3,3,4,4,5,5,6,6,7,7-pentadecafluoroheptane

> <PUBCHEM_IUPAC_CAS_NAME>
1,1,1,2,2,3,3,4,4,5,5,6,6,7,7-pentadecafluoroheptane

> <PUBCHEM_IUPAC_NAME>
1,1,1,2,2,3,3,4,4,5,5,6,6,7,7-pentadecafluoroheptane

> <PUBCHEM_IUPAC_SYSTEMATIC_NAME>
1,1,1,2,2,3,3,4,4,5,5,6,6,7,7-pentadecakis(fluoranyl)heptane

> <PUBCHEM_IUPAC_TRADITIONAL_NAME>
1,1,1,2,2,3,3,4,4,5,5,6,6,7,7-pentadecafluoroheptane

> <PUBCHEM_IUPAC_INCHI>
InChI=1S/C7HF15/c8-1(9)2(10,11)3(12,13)4(14,15)5(16,17)6(18,19)7(20,21)22/h1H

> <PUBCHEM_IUPAC_INCHIKEY>
HBZVXKDQRIQMCW-UHFFFAOYSA-N

> <PUBCHEM_XLOGP3_AA>
5.5

> <PUBCHEM_EXACT_MASS>
369.983873

> <PUBCHEM_MOLECULAR_FORMULA>
C7HF15

> <PUBCHEM_MOLECULAR_WEIGHT>
370.058888

> <PUBCHEM_OPENEYE_CAN_SMILES>
C(C(C(C(C(C(C(F)(F)F)(F)F)(F)F)(F)F)(F)F)(F)F)(F)F

> <PUBCHEM_OPENEYE_ISO_SMILES>
C(C(C(C(C(C(C(F)(F)F)(F)F)(F)F)(F)F)(F)F)(F)F)(F)F

> <PUBCHEM_CACTVS_TPSA>
0

> <PUBCHEM_MONOISOTOPIC_WEIGHT>
369.983873

> <PUBCHEM_TOTAL_CHARGE>
0

> <PUBCHEM_HEAVY_ATOM_COUNT>
22

> <PUBCHEM_ATOM_DEF_STEREO_COUNT>
0

> <PUBCHEM_ATOM_UDEF_STEREO_COUNT>
0

> <PUBCHEM_BOND_DEF_STEREO_COUNT>
0

> <PUBCHEM_BOND_UDEF_STEREO_COUNT>
0

> <PUBCHEM_ISOTOPIC_ATOM_COUNT>
0

> <PUBCHEM_COMPONENT_COUNT>
1

> <PUBCHEM_CACTVS_TAUTO_COUNT>
1

> <PUBCHEM_COORDINATE_TYPE>
1
5
255

$$$$

