12881
  -OEChem-06261207292D

 35 37  0     1  0  0  0  0  0999 V2000
    7.8492   -0.1280    0.0000 O   0  0  0  0  0  0  0  0  0  0  0  0
    4.2788    1.7601    0.0000 O   0  0  0  0  0  0  0  0  0  0  0  0
    6.3479   -1.0878    0.0000 O   0  0  0  0  0  0  0  0  0  0  0  0
    4.5878   -0.8090    0.0000 N   0  0  0  0  0  0  0  0  0  0  0  0
    5.5388    0.5000    0.0000 N   0  0  0  0  0  0  0  0  0  0  0  0
    4.0000    0.0000    0.0000 C   0  0  0  0  0  0  0  0  0  0  0  0
    3.5000   -0.8660    0.0000 C   0  0  0  0  0  0  0  0  0  0  0  0
    3.5000    0.8660    0.0000 C   0  0  0  0  0  0  0  0  0  0  0  0
    4.5878    0.8090    0.0000 C   0  0  0  0  0  0  0  0  0  0  0  0
    2.5000   -0.8660    0.0000 C   0  0  0  0  0  0  0  0  0  0  0  0
    2.5000    0.8660    0.0000 C   0  0  0  0  0  0  0  0  0  0  0  0
    2.0000    0.0000    0.0000 C   0  0  0  0  0  0  0  0  0  0  0  0
    6.3479    1.0878    0.0000 C   0  0  0  0  0  0  0  0  0  0  0  0
    5.5388   -0.5000    0.0000 C   0  0  0  0  0  0  0  0  0  0  0  0
    7.2614    0.6810    0.0000 C   0  0  3  0  0  0  0  0  0  0  0  0
    8.2559    0.7856    0.0000 C   0  0  0  0  0  0  0  0  0  0  0  0
    4.2788   -1.7601    0.0000 C   0  0  0  0  0  0  0  0  0  0  0  0
    4.0826    1.0781    0.0000 H   0  0  0  0  0  0  0  0  0  0  0  0
    3.3923    1.4766    0.0000 H   0  0  0  0  0  0  0  0  0  0  0  0
    3.3923   -1.4766    0.0000 H   0  0  0  0  0  0  0  0  0  0  0  0
    4.0826   -1.0781    0.0000 H   0  0  0  0  0  0  0  0  0  0  0  0
    1.9174   -1.0781    0.0000 H   0  0  0  0  0  0  0  0  0  0  0  0
    2.6077    1.4766    0.0000 H   0  0  0  0  0  0  0  0  0  0  0  0
    1.9174    1.0781    0.0000 H   0  0  0  0  0  0  0  0  0  0  0  0
    2.6077   -1.4766    0.0000 H   0  0  0  0  0  0  0  0  0  0  0  0
    1.5250    0.3985    0.0000 H   0  0  0  0  0  0  0  0  0  0  0  0
    1.5250   -0.3985    0.0000 H   0  0  0  0  0  0  0  0  0  0  0  0
    6.6946    1.6018    0.0000 H   0  0  0  0  0  0  0  0  0  0  0  0
    5.9019    1.5185    0.0000 H   0  0  0  0  0  0  0  0  0  0  0  0
    6.8712    0.1992    0.0000 H   0  0  0  0  0  0  0  0  0  0  0  0
    8.8575    0.6356    0.0000 H   0  0  0  0  0  0  0  0  0  0  0  0
    8.2992    1.4041    0.0000 H   0  0  0  0  0  0  0  0  0  0  0  0
    3.6891   -1.5685    0.0000 H   0  0  0  0  0  0  0  0  0  0  0  0
    4.0872   -2.3497    0.0000 H   0  0  0  0  0  0  0  0  0  0  0  0
    4.8684   -1.9517    0.0000 H   0  0  0  0  0  0  0  0  0  0  0  0
  1 15  1  0  0  0  0
  1 16  1  0  0  0  0
  2  9  2  0  0  0  0
  3 14  2  0  0  0  0
  4  6  1  0  0  0  0
  4 14  1  0  0  0  0
  4 17  1  0  0  0  0
  5  9  1  0  0  0  0
  5 13  1  0  0  0  0
  5 14  1  0  0  0  0
  6  7  1  0  0  0  0
  6  8  1  0  0  0  0
  6  9  1  0  0  0  0
  7 10  1  0  0  0  0
  7 20  1  0  0  0  0
  7 21  1  0  0  0  0
  8 11  1  0  0  0  0
  8 18  1  0  0  0  0
  8 19  1  0  0  0  0
 10 12  1  0  0  0  0
 10 22  1  0  0  0  0
 10 25  1  0  0  0  0
 11 12  1  0  0  0  0
 11 23  1  0  0  0  0
 11 24  1  0  0  0  0
 12 26  1  0  0  0  0
 12 27  1  0  0  0  0
 13 15  1  0  0  0  0
 13 28  1  0  0  0  0
 13 29  1  0  0  0  0
 15 16  1  0  0  0  0
 15 30  1  0  0  0  0
 16 31  1  0  0  0  0
 16 32  1  0  0  0  0
 17 33  1  0  0  0  0
 17 34  1  0  0  0  0
 17 35  1  0  0  0  0
M  END
> <PUBCHEM_COMPOUND_CID>
12881

> <PUBCHEM_COMPOUND_CANONICALIZED>
1

> <PUBCHEM_CACTVS_COMPLEXITY>
363

> <PUBCHEM_CACTVS_HBOND_ACCEPTOR>
3

> <PUBCHEM_CACTVS_HBOND_DONOR>
0

> <PUBCHEM_CACTVS_ROTATABLE_BOND>
2

> <PUBCHEM_CACTVS_SUBSKEYS>
AAADceBzMAAAAAAAAAAAAAAAEgAAAWAAAAAwAAAAAAAAAAAAAAAAHgAAAAAADJzhgAYDAAMABAAIAAEQEAAAAAAAAAAAAAGIAACCQBIAgCAVAAAKByKQAAEYiACOAAAAAAAAAAAAAAAAAAAAAAAAAAAAAA==

> <PUBCHEM_IUPAC_OPENEYE_NAME>
1-methyl-3-(oxiran-2-ylmethyl)-1,3-diazaspiro[4.5]decane-2,4-dione

> <PUBCHEM_IUPAC_CAS_NAME>
1-methyl-3-(2-oxiranylmethyl)-1,3-diazaspiro[4.5]decane-2,4-dione

> <PUBCHEM_IUPAC_NAME>
1-methyl-3-(oxiran-2-ylmethyl)-1,3-diazaspiro[4.5]decane-2,4-dione

> <PUBCHEM_IUPAC_SYSTEMATIC_NAME>
1-methyl-3-(oxiran-2-ylmethyl)-1,3-diazaspiro[4.5]decane-2,4-dione

> <PUBCHEM_IUPAC_TRADITIONAL_NAME>
3-glycidyl-1-methyl-1,3-diazaspiro[4.5]decane-2,4-quinone

> <PUBCHEM_IUPAC_INCHI>
InChI=1S/C12H18N2O3/c1-13-11(16)14(7-9-8-17-9)10(15)12(13)5-3-2-4-6-12/h9H,2-8H2,1H3

> <PUBCHEM_IUPAC_INCHIKEY>
IJMYTDWUOOSCAS-UHFFFAOYSA-N

> <PUBCHEM_XLOGP3_AA>
0.6

> <PUBCHEM_EXACT_MASS>
238.131742

> <PUBCHEM_MOLECULAR_FORMULA>
C12H18N2O3

> <PUBCHEM_MOLECULAR_WEIGHT>
238.28292

> <PUBCHEM_OPENEYE_CAN_SMILES>
CN1C(=O)N(C(=O)C12CCCCC2)CC3CO3

> <PUBCHEM_OPENEYE_ISO_SMILES>
CN1C(=O)N(C(=O)C12CCCCC2)CC3CO3

> <PUBCHEM_CACTVS_TPSA>
53.2

> <PUBCHEM_MONOISOTOPIC_WEIGHT>
238.131742

> <PUBCHEM_TOTAL_CHARGE>
0

> <PUBCHEM_HEAVY_ATOM_COUNT>
17

> <PUBCHEM_ATOM_DEF_STEREO_COUNT>
0

> <PUBCHEM_ATOM_UDEF_STEREO_COUNT>
1

> <PUBCHEM_BOND_DEF_STEREO_COUNT>
0

> <PUBCHEM_BOND_UDEF_STEREO_COUNT>
0

> <PUBCHEM_ISOTOPIC_ATOM_COUNT>
0

> <PUBCHEM_COMPONENT_COUNT>
1

> <PUBCHEM_CACTVS_TAUTO_COUNT>
1

> <PUBCHEM_COORDINATE_TYPE>
1
5
255

> <PUBCHEM_BONDANNOTATIONS>
15  13  3

$$$$

