8596
  -OEChem-06261202562D

 22 23  0     0  0  0  0  0  0999 V2000
    2.0000   -2.0173    0.0000 N   0  0  0  0  0  0  0  0  0  0  0  0
    4.5981    0.4827    0.0000 C   0  0  0  0  0  0  0  0  0  0  0  0
    3.7320   -0.0173    0.0000 C   0  0  0  0  0  0  0  0  0  0  0  0
    4.5981    1.4827    0.0000 C   0  0  0  0  0  0  0  0  0  0  0  0
    5.4920   -0.0520    0.0000 C   0  0  0  0  0  0  0  0  0  0  0  0
    2.8660    0.4827    0.0000 C   0  0  0  0  0  0  0  0  0  0  0  0
    3.7320    1.9827    0.0000 C   0  0  0  0  0  0  0  0  0  0  0  0
    3.7320   -1.0173    0.0000 C   0  0  0  0  0  0  0  0  0  0  0  0
    5.4920    2.0173    0.0000 C   0  0  0  0  0  0  0  0  0  0  0  0
    2.8660    1.4827    0.0000 C   0  0  0  0  0  0  0  0  0  0  0  0
    6.3981    0.4619    0.0000 C   0  0  0  0  0  0  0  0  0  0  0  0
    6.3981    1.5035    0.0000 C   0  0  0  0  0  0  0  0  0  0  0  0
    2.8660   -1.5173    0.0000 C   0  0  0  0  0  0  0  0  0  0  0  0
    5.4848   -0.6720    0.0000 H   0  0  0  0  0  0  0  0  0  0  0  0
    2.3291    0.1727    0.0000 H   0  0  0  0  0  0  0  0  0  0  0  0
    3.7320    2.6027    0.0000 H   0  0  0  0  0  0  0  0  0  0  0  0
    3.9441   -1.5999    0.0000 H   0  0  0  0  0  0  0  0  0  0  0  0
    4.3426   -0.9097    0.0000 H   0  0  0  0  0  0  0  0  0  0  0  0
    5.4848    2.6373    0.0000 H   0  0  0  0  0  0  0  0  0  0  0  0
    2.3291    1.7927    0.0000 H   0  0  0  0  0  0  0  0  0  0  0  0
    6.9338    0.1498    0.0000 H   0  0  0  0  0  0  0  0  0  0  0  0
    6.9338    1.8156    0.0000 H   0  0  0  0  0  0  0  0  0  0  0  0
  1 13  3  0  0  0  0
  2  3  1  0  0  0  0
  2  4  1  0  0  0  0
  2  5  2  0  0  0  0
  3  6  2  0  0  0  0
  3  8  1  0  0  0  0
  4  7  1  0  0  0  0
  4  9  2  0  0  0  0
  5 11  1  0  0  0  0
  5 14  1  0  0  0  0
  6 10  1  0  0  0  0
  6 15  1  0  0  0  0
  7 10  2  0  0  0  0
  7 16  1  0  0  0  0
  8 13  1  0  0  0  0
  8 17  1  0  0  0  0
  8 18  1  0  0  0  0
  9 12  1  0  0  0  0
  9 19  1  0  0  0  0
 10 20  1  0  0  0  0
 11 12  2  0  0  0  0
 11 21  1  0  0  0  0
 12 22  1  0  0  0  0
M  END
> <PUBCHEM_COMPOUND_CID>
8596

> <PUBCHEM_COMPOUND_CANONICALIZED>
1

> <PUBCHEM_CACTVS_COMPLEXITY>
212

> <PUBCHEM_CACTVS_HBOND_ACCEPTOR>
1

> <PUBCHEM_CACTVS_HBOND_DONOR>
0

> <PUBCHEM_CACTVS_ROTATABLE_BOND>
1

> <PUBCHEM_CACTVS_SUBSKEYS>
AAADccByAAAAAAAAAAAAAAAAAAAAAAAAAAAwYAAAAAAAAADBUAAAHAAAAAAADACBGAAwAMAAAACQBiBCAAACAAAgAAAIiAAAAIgIoCKAERCAIAAggAAIiA8AgMAOgAACAAAQAAAAAAQAACAAAAAAAAAAAA==

> <PUBCHEM_IUPAC_OPENEYE_NAME>
2-(1-naphthyl)acetonitrile

> <PUBCHEM_IUPAC_CAS_NAME>
2-(1-naphthalenyl)acetonitrile

> <PUBCHEM_IUPAC_NAME>
2-naphthalen-1-ylacetonitrile

> <PUBCHEM_IUPAC_SYSTEMATIC_NAME>
2-naphthalen-1-ylethanenitrile

> <PUBCHEM_IUPAC_TRADITIONAL_NAME>
2-(1-naphthyl)acetonitrile

> <PUBCHEM_IUPAC_INCHI>
InChI=1S/C12H9N/c13-9-8-11-6-3-5-10-4-1-2-7-12(10)11/h1-7H,8H2

> <PUBCHEM_IUPAC_INCHIKEY>
OQRMWUNUKVUHQO-UHFFFAOYSA-N

> <PUBCHEM_XLOGP3>
2.9

> <PUBCHEM_EXACT_MASS>
167.073499

> <PUBCHEM_MOLECULAR_FORMULA>
C12H9N

> <PUBCHEM_MOLECULAR_WEIGHT>
167.20656

> <PUBCHEM_OPENEYE_CAN_SMILES>
C1=CC=C2C(=C1)C=CC=C2CC#N

> <PUBCHEM_OPENEYE_ISO_SMILES>
C1=CC=C2C(=C1)C=CC=C2CC#N

> <PUBCHEM_CACTVS_TPSA>
23.8

> <PUBCHEM_MONOISOTOPIC_WEIGHT>
167.073499

> <PUBCHEM_TOTAL_CHARGE>
0

> <PUBCHEM_HEAVY_ATOM_COUNT>
13

> <PUBCHEM_ATOM_DEF_STEREO_COUNT>
0

> <PUBCHEM_ATOM_UDEF_STEREO_COUNT>
0

> <PUBCHEM_BOND_DEF_STEREO_COUNT>
0

> <PUBCHEM_BOND_UDEF_STEREO_COUNT>
0

> <PUBCHEM_ISOTOPIC_ATOM_COUNT>
0

> <PUBCHEM_COMPONENT_COUNT>
1

> <PUBCHEM_CACTVS_TAUTO_COUNT>
1

> <PUBCHEM_COORDINATE_TYPE>
1
5
255

> <PUBCHEM_BONDANNOTATIONS>
11  12  8
2  3  8
2  4  8
2  5  8
3  6  8
4  7  8
4  9  8
5  11  8
6  10  8
7  10  8
9  12  8

$$$$

