11982
  -OEChem-06261206212D

 21 21  0     0  0  0  0  0  0999 V2000
    4.7770   -0.3210    0.0000 O   0  0  0  0  0  0  0  0  0  0  0  0
    2.8090    0.3784    0.0000 O   0  0  0  0  0  0  0  0  0  0  0  0
    5.3122    1.3263    0.0000 O   0  0  0  0  0  0  0  0  0  0  0  0
    5.9360   -1.6082    0.0000 C   0  0  0  0  0  0  0  0  0  0  0  0
    5.7281   -0.6300    0.0000 C   0  0  0  0  0  0  0  0  0  0  0  0
    6.8870   -1.9172    0.0000 C   0  0  0  0  0  0  0  0  0  0  0  0
    3.6180    0.9661    0.0000 C   0  0  0  0  0  0  0  0  0  0  0  0
    4.5691    0.6571    0.0000 C   0  0  0  0  0  0  0  0  0  0  0  0
    3.3090    1.9172    0.0000 C   0  0  0  0  0  0  0  0  0  0  0  0
    2.3090    1.9172    0.0000 C   0  0  0  0  0  0  0  0  0  0  0  0
    2.0000    0.9661    0.0000 C   0  0  0  0  0  0  0  0  0  0  0  0
    5.3164   -1.6298    0.0000 H   0  0  0  0  0  0  0  0  0  0  0  0
    5.8497   -2.2222    0.0000 H   0  0  0  0  0  0  0  0  0  0  0  0
    6.3477   -0.6084    0.0000 H   0  0  0  0  0  0  0  0  0  0  0  0
    5.8144   -0.0161    0.0000 H   0  0  0  0  0  0  0  0  0  0  0  0
    6.6954   -2.5069    0.0000 H   0  0  0  0  0  0  0  0  0  0  0  0
    7.4767   -2.1088    0.0000 H   0  0  0  0  0  0  0  0  0  0  0  0
    7.0786   -1.3276    0.0000 H   0  0  0  0  0  0  0  0  0  0  0  0
    3.6734    2.4188    0.0000 H   0  0  0  0  0  0  0  0  0  0  0  0
    1.9446    2.4188    0.0000 H   0  0  0  0  0  0  0  0  0  0  0  0
    1.4103    0.7746    0.0000 H   0  0  0  0  0  0  0  0  0  0  0  0
  1  5  1  0  0  0  0
  1  8  1  0  0  0  0
  2  7  1  0  0  0  0
  2 11  1  0  0  0  0
  3  8  2  0  0  0  0
  4  5  1  0  0  0  0
  4  6  1  0  0  0  0
  4 12  1  0  0  0  0
  4 13  1  0  0  0  0
  5 14  1  0  0  0  0
  5 15  1  0  0  0  0
  6 16  1  0  0  0  0
  6 17  1  0  0  0  0
  6 18  1  0  0  0  0
  7  8  1  0  0  0  0
  7  9  2  0  0  0  0
  9 10  1  0  0  0  0
  9 19  1  0  0  0  0
 10 11  2  0  0  0  0
 10 20  1  0  0  0  0
 11 21  1  0  0  0  0
M  END
> <PUBCHEM_COMPOUND_CID>
11982

> <PUBCHEM_COMPOUND_CANONICALIZED>
1

> <PUBCHEM_CACTVS_COMPLEXITY>
133

> <PUBCHEM_CACTVS_HBOND_ACCEPTOR>
3

> <PUBCHEM_CACTVS_HBOND_DONOR>
0

> <PUBCHEM_CACTVS_ROTATABLE_BOND>
4

> <PUBCHEM_CACTVS_SUBSKEYS>
AAADccBwMAAAAAAAAAAAAAAAAAAAASAAAAAAAAAAAAAAAAABgAAAGgAAAAAACASgkAIyDIAABECIAKjSiAICCAAkIAAIiAFGCMgNJjKENR6CGSCkwBEKqYaIJggAAAAAAAAAAAAAAAAAAAAAAAAAAAAAAA==

> <PUBCHEM_IUPAC_OPENEYE_NAME>
propyl furan-2-carboxylate

> <PUBCHEM_IUPAC_CAS_NAME>
2-furancarboxylic acid propyl ester

> <PUBCHEM_IUPAC_NAME>
propyl furan-2-carboxylate

> <PUBCHEM_IUPAC_SYSTEMATIC_NAME>
propyl furan-2-carboxylate

> <PUBCHEM_IUPAC_TRADITIONAL_NAME>
furan-2-carboxylic acid propyl ester

> <PUBCHEM_IUPAC_INCHI>
InChI=1S/C8H10O3/c1-2-5-11-8(9)7-4-3-6-10-7/h3-4,6H,2,5H2,1H3

> <PUBCHEM_IUPAC_INCHIKEY>
HSCVIIISAAEVQT-UHFFFAOYSA-N

> <PUBCHEM_XLOGP3>
2

> <PUBCHEM_EXACT_MASS>
154.062994

> <PUBCHEM_MOLECULAR_FORMULA>
C8H10O3

> <PUBCHEM_MOLECULAR_WEIGHT>
154.1632

> <PUBCHEM_OPENEYE_CAN_SMILES>
CCCOC(=O)C1=CC=CO1

> <PUBCHEM_OPENEYE_ISO_SMILES>
CCCOC(=O)C1=CC=CO1

> <PUBCHEM_CACTVS_TPSA>
39.4

> <PUBCHEM_MONOISOTOPIC_WEIGHT>
154.062994

> <PUBCHEM_TOTAL_CHARGE>
0

> <PUBCHEM_HEAVY_ATOM_COUNT>
11

> <PUBCHEM_ATOM_DEF_STEREO_COUNT>
0

> <PUBCHEM_ATOM_UDEF_STEREO_COUNT>
0

> <PUBCHEM_BOND_DEF_STEREO_COUNT>
0

> <PUBCHEM_BOND_UDEF_STEREO_COUNT>
0

> <PUBCHEM_ISOTOPIC_ATOM_COUNT>
0

> <PUBCHEM_COMPONENT_COUNT>
1

> <PUBCHEM_CACTVS_TAUTO_COUNT>
1

> <PUBCHEM_COORDINATE_TYPE>
1
5
255

> <PUBCHEM_BONDANNOTATIONS>
10  11  8
2  11  8
2  7  8
7  9  8
9  10  8

$$$$

