17395555
  -OEChem-06241222512D

 53 56  0     1  0  0  0  0  0999 V2000
    4.9866    6.5694    0.0000 F   0  0  0  0  0  0  0  0  0  0  0  0
    3.2285   -3.9816    0.0000 O   0  0  0  0  0  0  0  0  0  0  0  0
    4.8465   -3.9816    0.0000 O   0  0  0  0  0  0  0  0  0  0  0  0
    4.5100    0.5053    0.0000 O   0  0  0  0  0  0  0  0  0  0  0  0
    3.0134   -0.3665    0.0000 N   0  0  0  0  0  0  0  0  0  0  0  0
    3.5033    2.2335    0.0000 N   0  0  0  0  0  0  0  0  0  0  0  0
    4.0375   -4.5694    0.0000 C   0  0  0  0  0  0  0  0  0  0  0  0
    4.9035   -5.0694    0.0000 C   0  0  0  0  0  0  0  0  0  0  0  0
    3.1715   -5.0694    0.0000 C   0  0  0  0  0  0  0  0  0  0  0  0
    4.9035   -6.0694    0.0000 C   0  0  0  0  0  0  0  0  0  0  0  0
    3.1715   -6.0694    0.0000 C   0  0  0  0  0  0  0  0  0  0  0  0
    4.0375   -6.5694    0.0000 C   0  0  0  0  0  0  0  0  0  0  0  0
    3.5375   -3.0306    0.0000 C   0  0  0  0  0  0  0  0  0  0  0  0
    4.5375   -3.0306    0.0000 C   0  0  0  0  0  0  0  0  0  0  0  0
    3.0028   -2.1366    0.0000 C   0  0  0  0  0  0  0  0  0  0  0  0
    5.0722   -2.1366    0.0000 C   0  0  0  0  0  0  0  0  0  0  0  0
    3.5167   -1.2306    0.0000 C   0  0  0  0  0  0  0  0  0  0  0  0
    4.5583   -1.2306    0.0000 C   0  0  0  0  0  0  0  0  0  0  0  0
    3.0000    3.0976    0.0000 C   0  0  3  0  0  0  0  0  0  0  0  0
    3.5100    0.5015    0.0000 C   0  0  0  0  0  0  0  0  0  0  0  0
    3.0067    1.3656    0.0000 C   0  0  0  0  0  0  0  0  0  0  0  0
    3.4966    3.9656    0.0000 C   0  0  0  0  0  0  0  0  0  0  0  0
    2.0000    3.0938    0.0000 C   0  0  0  0  0  0  0  0  0  0  0  0
    4.4966    3.9694    0.0000 C   0  0  0  0  0  0  0  0  0  0  0  0
    2.9933    4.8296    0.0000 C   0  0  0  0  0  0  0  0  0  0  0  0
    4.9933    4.8374    0.0000 C   0  0  0  0  0  0  0  0  0  0  0  0
    3.4900    5.6976    0.0000 C   0  0  0  0  0  0  0  0  0  0  0  0
    4.4900    5.7015    0.0000 C   0  0  0  0  0  0  0  0  0  0  0  0
    2.9594   -4.4868    0.0000 H   0  0  0  0  0  0  0  0  0  0  0  0
    2.5609   -5.1771    0.0000 H   0  0  0  0  0  0  0  0  0  0  0  0
    5.5141   -5.1771    0.0000 H   0  0  0  0  0  0  0  0  0  0  0  0
    5.1156   -4.4868    0.0000 H   0  0  0  0  0  0  0  0  0  0  0  0
    5.1156   -6.6520    0.0000 H   0  0  0  0  0  0  0  0  0  0  0  0
    5.5141   -5.9617    0.0000 H   0  0  0  0  0  0  0  0  0  0  0  0
    2.5609   -5.9617    0.0000 H   0  0  0  0  0  0  0  0  0  0  0  0
    2.9594   -6.6520    0.0000 H   0  0  0  0  0  0  0  0  0  0  0  0
    3.6390   -7.0444    0.0000 H   0  0  0  0  0  0  0  0  0  0  0  0
    4.4360   -7.0444    0.0000 H   0  0  0  0  0  0  0  0  0  0  0  0
    2.3829   -2.1438    0.0000 H   0  0  0  0  0  0  0  0  0  0  0  0
    5.6921   -2.1438    0.0000 H   0  0  0  0  0  0  0  0  0  0  0  0
    4.8704   -0.6948    0.0000 H   0  0  0  0  0  0  0  0  0  0  0  0
    2.3934   -0.3688    0.0000 H   0  0  0  0  0  0  0  0  0  0  0  0
    3.6200    3.1000    0.0000 H   0  0  0  0  0  0  0  0  0  0  0  0
    2.5302    1.7623    0.0000 H   0  0  0  0  0  0  0  0  0  0  0  0
    2.5333    0.9652    0.0000 H   0  0  0  0  0  0  0  0  0  0  0  0
    4.1233    2.2359    0.0000 H   0  0  0  0  0  0  0  0  0  0  0  0
    1.9976    3.7138    0.0000 H   0  0  0  0  0  0  0  0  0  0  0  0
    1.3800    3.0914    0.0000 H   0  0  0  0  0  0  0  0  0  0  0  0
    2.0024    2.4738    0.0000 H   0  0  0  0  0  0  0  0  0  0  0  0
    4.8087    3.4337    0.0000 H   0  0  0  0  0  0  0  0  0  0  0  0
    2.3733    4.8273    0.0000 H   0  0  0  0  0  0  0  0  0  0  0  0
    5.6133    4.8398    0.0000 H   0  0  0  0  0  0  0  0  0  0  0  0
    3.1779    6.2333    0.0000 H   0  0  0  0  0  0  0  0  0  0  0  0
  1 28  1  0  0  0  0
  2  7  1  0  0  0  0
  2 13  1  0  0  0  0
  3  7  1  0  0  0  0
  3 14  1  0  0  0  0
  4 20  2  0  0  0  0
  5 17  1  0  0  0  0
  5 20  1  0  0  0  0
  5 42  1  0  0  0  0
  6 19  1  0  0  0  0
  6 21  1  0  0  0  0
  6 46  1  0  0  0  0
  7  8  1  0  0  0  0
  7  9  1  0  0  0  0
  8 10  1  0  0  0  0
  8 31  1  0  0  0  0
  8 32  1  0  0  0  0
  9 11  1  0  0  0  0
  9 29  1  0  0  0  0
  9 30  1  0  0  0  0
 10 12  1  0  0  0  0
 10 33  1  0  0  0  0
 10 34  1  0  0  0  0
 11 12  1  0  0  0  0
 11 35  1  0  0  0  0
 11 36  1  0  0  0  0
 12 37  1  0  0  0  0
 12 38  1  0  0  0  0
 13 14  2  0  0  0  0
 13 15  1  0  0  0  0
 14 16  1  0  0  0  0
 15 17  2  0  0  0  0
 15 39  1  0  0  0  0
 16 18  2  0  0  0  0
 16 40  1  0  0  0  0
 17 18  1  0  0  0  0
 18 41  1  0  0  0  0
 19 22  1  0  0  0  0
 19 23  1  0  0  0  0
 19 43  1  0  0  0  0
 20 21  1  0  0  0  0
 21 44  1  0  0  0  0
 21 45  1  0  0  0  0
 22 24  2  0  0  0  0
 22 25  1  0  0  0  0
 23 47  1  0  0  0  0
 23 48  1  0  0  0  0
 23 49  1  0  0  0  0
 24 26  1  0  0  0  0
 24 50  1  0  0  0  0
 25 27  2  0  0  0  0
 25 51  1  0  0  0  0
 26 28  2  0  0  0  0
 26 52  1  0  0  0  0
 27 28  1  0  0  0  0
 27 53  1  0  0  0  0
M  END
> <PUBCHEM_COMPOUND_CID>
17395555

> <PUBCHEM_COMPOUND_CANONICALIZED>
1

> <PUBCHEM_CACTVS_COMPLEXITY>
532

> <PUBCHEM_CACTVS_HBOND_ACCEPTOR>
5

> <PUBCHEM_CACTVS_HBOND_DONOR>
2

> <PUBCHEM_CACTVS_ROTATABLE_BOND>
5

> <PUBCHEM_CACTVS_SUBSKEYS>
AAADceB7MQAAAAAAAAAAAAAAAAAAASAAAAAwYMAAAAAAAEgBQAAAHwAQAAAADCzBmAwyzoLABACIAiVSUACCCAAhIgAIiICO7IgdZiLEsbu2OCrm1BnO6Aew0IMOAEAAAgAAQAAAgAAEAACAAAAAAAAAAA==

> <PUBCHEM_IUPAC_OPENEYE_NAME>
2-[1-(4-fluorophenyl)ethylamino]-N-spiro[1,3-benzodioxole-2,1'-cyclohexane]-5-yl-acetamide

> <PUBCHEM_IUPAC_CAS_NAME>
2-[1-(4-fluorophenyl)ethylamino]-N-(5-spiro[1,3-benzodioxole-2,1'-cyclohexane]yl)acetamide

> <PUBCHEM_IUPAC_NAME>
2-[1-(4-fluorophenyl)ethylamino]-N-spiro[1,3-benzodioxole-2,1'-cyclohexane]-5-ylacetamide

> <PUBCHEM_IUPAC_SYSTEMATIC_NAME>
2-[1-(4-fluorophenyl)ethylamino]-N-spiro[1,3-benzodioxole-2,1'-cyclohexane]-5-yl-ethanamide

> <PUBCHEM_IUPAC_TRADITIONAL_NAME>
2-[1-(4-fluorophenyl)ethylamino]-N-spiro[1,3-benzodioxole-2,1'-cyclohexane]-5-yl-acetamide

> <PUBCHEM_IUPAC_INCHI>
InChI=1S/C22H25FN2O3/c1-15(16-5-7-17(23)8-6-16)24-14-21(26)25-18-9-10-19-20(13-18)28-22(27-19)11-3-2-4-12-22/h5-10,13,15,24H,2-4,11-12,14H2,1H3,(H,25,26)

> <PUBCHEM_IUPAC_INCHIKEY>
IXLCCPCCHPSHAW-UHFFFAOYSA-N

> <PUBCHEM_XLOGP3_AA>
4.1

> <PUBCHEM_EXACT_MASS>
384.184921

> <PUBCHEM_MOLECULAR_FORMULA>
C22H25FN2O3

> <PUBCHEM_MOLECULAR_WEIGHT>
384.443903

> <PUBCHEM_OPENEYE_CAN_SMILES>
CC(C1=CC=C(C=C1)F)NCC(=O)NC2=CC3=C(C=C2)OC4(O3)CCCCC4

> <PUBCHEM_OPENEYE_ISO_SMILES>
CC(C1=CC=C(C=C1)F)NCC(=O)NC2=CC3=C(C=C2)OC4(O3)CCCCC4

> <PUBCHEM_CACTVS_TPSA>
59.6

> <PUBCHEM_MONOISOTOPIC_WEIGHT>
384.184921

> <PUBCHEM_TOTAL_CHARGE>
0

> <PUBCHEM_HEAVY_ATOM_COUNT>
28

> <PUBCHEM_ATOM_DEF_STEREO_COUNT>
0

> <PUBCHEM_ATOM_UDEF_STEREO_COUNT>
1

> <PUBCHEM_BOND_DEF_STEREO_COUNT>
0

> <PUBCHEM_BOND_UDEF_STEREO_COUNT>
0

> <PUBCHEM_ISOTOPIC_ATOM_COUNT>
0

> <PUBCHEM_COMPONENT_COUNT>
1

> <PUBCHEM_CACTVS_TAUTO_COUNT>
3

> <PUBCHEM_COORDINATE_TYPE>
1
5
255

> <PUBCHEM_BONDANNOTATIONS>
13  14  8
13  15  8
14  16  8
15  17  8
16  18  8
17  18  8
19  23  3
22  24  8
22  25  8
24  26  8
25  27  8
26  28  8
27  28  8

$$$$

