14162
  -OEChem-06241222422D

 44 45  0     0  0  0  0  0  0999 V2000
    4.3067    0.0000    0.0000 Cl  0  5  0  0  0  0  0  0  0  0  0  0
    4.0490    2.5000    0.0000 O   0  0  0  0  0  0  0  0  0  0  0  0
    7.6368    5.0411    0.0000 N   0  3  0  0  0  0  0  0  0  0  0  0
    3.0980    2.8090    0.0000 N   0  0  0  0  0  0  0  0  0  0  0  0
    6.7708    5.5411    0.0000 C   0  0  0  0  0  0  0  0  0  0  0  0
    8.5028    5.5411    0.0000 C   0  0  0  0  0  0  0  0  0  0  0  0
    6.7708    6.5411    0.0000 C   0  0  0  0  0  0  0  0  0  0  0  0
    8.5028    6.5411    0.0000 C   0  0  0  0  0  0  0  0  0  0  0  0
    7.1368    4.1750    0.0000 C   0  0  0  0  0  0  0  0  0  0  0  0
    7.6368    7.0411    0.0000 C   0  0  0  0  0  0  0  0  0  0  0  0
    6.1368    4.1750    0.0000 C   0  0  0  0  0  0  0  0  0  0  0  0
    5.6368    3.3090    0.0000 C   0  0  0  0  0  0  0  0  0  0  0  0
    4.6368    3.3090    0.0000 C   0  0  0  0  0  0  0  0  0  0  0  0
    4.0490    4.1180    0.0000 C   0  0  0  0  0  0  0  0  0  0  0  0
    3.0980    3.8090    0.0000 C   0  0  0  0  0  0  0  0  0  0  0  0
    2.2890    4.3968    0.0000 C   0  0  0  0  0  0  0  0  0  0  0  0
    2.3935    5.3913    0.0000 C   0  0  0  0  0  0  0  0  0  0  0  0
    1.3754    3.9901    0.0000 C   0  0  0  0  0  0  0  0  0  0  0  0
    1.5845    5.9791    0.0000 C   0  0  0  0  0  0  0  0  0  0  0  0
    0.5664    4.5778    0.0000 C   0  0  0  0  0  0  0  0  0  0  0  0
    0.6709    5.5724    0.0000 C   0  0  0  0  0  0  0  0  0  0  0  0
    7.9468    4.5041    0.0000 H   0  0  0  0  0  0  0  0  0  0  0  0
    8.7149    4.9585    0.0000 H   0  0  0  0  0  0  0  0  0  0  0  0
    9.1134    5.6487    0.0000 H   0  0  0  0  0  0  0  0  0  0  0  0
    6.1602    5.6487    0.0000 H   0  0  0  0  0  0  0  0  0  0  0  0
    6.5587    4.9585    0.0000 H   0  0  0  0  0  0  0  0  0  0  0  0
    9.1134    6.4334    0.0000 H   0  0  0  0  0  0  0  0  0  0  0  0
    8.7149    7.1237    0.0000 H   0  0  0  0  0  0  0  0  0  0  0  0
    6.5587    7.1237    0.0000 H   0  0  0  0  0  0  0  0  0  0  0  0
    6.1602    6.4334    0.0000 H   0  0  0  0  0  0  0  0  0  0  0  0
    7.0292    3.5645    0.0000 H   0  0  0  0  0  0  0  0  0  0  0  0
    7.7194    3.9630    0.0000 H   0  0  0  0  0  0  0  0  0  0  0  0
    8.0354    7.5160    0.0000 H   0  0  0  0  0  0  0  0  0  0  0  0
    7.2383    7.5160    0.0000 H   0  0  0  0  0  0  0  0  0  0  0  0
    6.2445    4.7856    0.0000 H   0  0  0  0  0  0  0  0  0  0  0  0
    5.5542    4.3871    0.0000 H   0  0  0  0  0  0  0  0  0  0  0  0
    5.5292    2.6984    0.0000 H   0  0  0  0  0  0  0  0  0  0  0  0
    6.2194    3.0970    0.0000 H   0  0  0  0  0  0  0  0  0  0  0  0
    4.2406    4.7077    0.0000 H   0  0  0  0  0  0  0  0  0  0  0  0
    2.9599    5.6435    0.0000 H   0  0  0  0  0  0  0  0  0  0  0  0
    1.3106    3.3735    0.0000 H   0  0  0  0  0  0  0  0  0  0  0  0
    1.6493    6.5957    0.0000 H   0  0  0  0  0  0  0  0  0  0  0  0
    0.0000    4.3257    0.0000 H   0  0  0  0  0  0  0  0  0  0  0  0
    0.1693    5.9368    0.0000 H   0  0  0  0  0  0  0  0  0  0  0  0
  2  4  1  0  0  0  0
  2 13  1  0  0  0  0
  3  5  1  0  0  0  0
  3  6  1  0  0  0  0
  3  9  1  0  0  0  0
  3 22  1  0  0  0  0
  4 15  2  0  0  0  0
  5  7  1  0  0  0  0
  5 25  1  0  0  0  0
  5 26  1  0  0  0  0
  6  8  1  0  0  0  0
  6 23  1  0  0  0  0
  6 24  1  0  0  0  0
  7 10  1  0  0  0  0
  7 29  1  0  0  0  0
  7 30  1  0  0  0  0
  8 10  1  0  0  0  0
  8 27  1  0  0  0  0
  8 28  1  0  0  0  0
  9 11  1  0  0  0  0
  9 31  1  0  0  0  0
  9 32  1  0  0  0  0
 10 33  1  0  0  0  0
 10 34  1  0  0  0  0
 11 12  1  0  0  0  0
 11 35  1  0  0  0  0
 11 36  1  0  0  0  0
 12 13  1  0  0  0  0
 12 37  1  0  0  0  0
 12 38  1  0  0  0  0
 13 14  2  0  0  0  0
 14 15  1  0  0  0  0
 14 39  1  0  0  0  0
 15 16  1  0  0  0  0
 16 17  2  0  0  0  0
 16 18  1  0  0  0  0
 17 19  1  0  0  0  0
 17 40  1  0  0  0  0
 18 20  2  0  0  0  0
 18 41  1  0  0  0  0
 19 21  2  0  0  0  0
 19 42  1  0  0  0  0
 20 21  1  0  0  0  0
 20 43  1  0  0  0  0
 21 44  1  0  0  0  0
M  CHG  2   1  -1   3   1
M  END
> <PUBCHEM_COMPOUND_CID>
14162

> <PUBCHEM_COMPOUND_CANONICALIZED>
1

> <PUBCHEM_CACTVS_COMPLEXITY>
272

> <PUBCHEM_CACTVS_HBOND_ACCEPTOR>
3

> <PUBCHEM_CACTVS_HBOND_DONOR>
1

> <PUBCHEM_CACTVS_ROTATABLE_BOND>
5

> <PUBCHEM_CACTVS_SUBSKEYS>
AAADceB7IAAEAAAAAAAAAAAAAAAAAWAAAAA8QAAAAAAAAAABwAAAHgAUAAAADAzBngQwhJPQAACpA6RyQgCCAAAkIgAomKE+bNoIJrqAkZOEMYBmkBiIyUe8yOCOAAAAAAAAAAAAAAAAAAAAAAAAAAAAAA==

> <PUBCHEM_IUPAC_OPENEYE_NAME>
3-phenyl-5-(3-piperidin-1-ium-1-ylpropyl)isoxazole chloride

> <PUBCHEM_IUPAC_CAS_NAME>
3-phenyl-5-[3-(1-piperidin-1-iumyl)propyl]isoxazole chloride

> <PUBCHEM_IUPAC_NAME>
3-phenyl-5-(3-piperidin-1-ium-1-ylpropyl)-1,2-oxazole chloride

> <PUBCHEM_IUPAC_SYSTEMATIC_NAME>
3-phenyl-5-(3-piperidin-1-ium-1-ylpropyl)-1,2-oxazole chloride

> <PUBCHEM_IUPAC_TRADITIONAL_NAME>
3-phenyl-5-(3-piperidin-1-ium-1-ylpropyl)isoxazole chloride

> <PUBCHEM_IUPAC_INCHI>
InChI=1S/C17H22N2O.ClH/c1-3-8-15(9-4-1)17-14-16(20-18-17)10-7-13-19-11-5-2-6-12-19;/h1,3-4,8-9,14H,2,5-7,10-13H2;1H

> <PUBCHEM_IUPAC_INCHIKEY>
MLRHTHUQODBLDB-UHFFFAOYSA-N

> <PUBCHEM_EXACT_MASS>
306.149891

> <PUBCHEM_MOLECULAR_FORMULA>
C17H23ClN2O

> <PUBCHEM_MOLECULAR_WEIGHT>
306.83032

> <PUBCHEM_OPENEYE_CAN_SMILES>
C1CC[NH+](CC1)CCCC2=CC(=NO2)C3=CC=CC=C3.[Cl-]

> <PUBCHEM_OPENEYE_ISO_SMILES>
C1CC[NH+](CC1)CCCC2=CC(=NO2)C3=CC=CC=C3.[Cl-]

> <PUBCHEM_CACTVS_TPSA>
30.5

> <PUBCHEM_MONOISOTOPIC_WEIGHT>
306.149891

> <PUBCHEM_TOTAL_CHARGE>
0

> <PUBCHEM_HEAVY_ATOM_COUNT>
21

> <PUBCHEM_ATOM_DEF_STEREO_COUNT>
0

> <PUBCHEM_ATOM_UDEF_STEREO_COUNT>
0

> <PUBCHEM_BOND_DEF_STEREO_COUNT>
0

> <PUBCHEM_BOND_UDEF_STEREO_COUNT>
0

> <PUBCHEM_ISOTOPIC_ATOM_COUNT>
0

> <PUBCHEM_COMPONENT_COUNT>
2

> <PUBCHEM_CACTVS_TAUTO_COUNT>
1

> <PUBCHEM_COORDINATE_TYPE>
1
5
255

> <PUBCHEM_BONDANNOTATIONS>
13  14  8
14  15  8
16  17  8
16  18  8
17  19  8
18  20  8
19  21  8
2  13  8
2  4  8
20  21  8
4  15  8

$$$$

