17395840
  -OEChem-06241222522D

 34 35  0     0  0  0  0  0  0999 V2000
    8.2619   -0.8660    0.0000 S   0  0  0  0  0  0  0  0  0  0  0  0
    4.6783    1.6708    0.0000 S   0  0  0  0  0  0  0  0  0  0  0  0
    6.2619   -0.8660    0.0000 O   0  0  0  0  0  0  0  0  0  0  0  0
    6.2619    0.8660    0.0000 N   0  0  0  0  0  0  0  0  0  0  0  0
    4.6783    0.0613    0.0000 N   0  0  0  0  0  0  0  0  0  0  0  0
    9.2619   -0.8660    0.0000 C   0  0  0  0  0  0  0  0  0  0  0  0
   10.2619   -0.8660    0.0000 C   0  0  0  0  0  0  0  0  0  0  0  0
    9.2619   -1.8660    0.0000 C   0  0  0  0  0  0  0  0  0  0  0  0
    9.2619    0.1340    0.0000 C   0  0  0  0  0  0  0  0  0  0  0  0
    7.7619    0.0000    0.0000 C   0  0  0  0  0  0  0  0  0  0  0  0
    6.7619    0.0000    0.0000 C   0  0  0  0  0  0  0  0  0  0  0  0
    5.2619    0.8660    0.0000 C   0  0  0  0  0  0  0  0  0  0  0  0
    3.7320    1.3660    0.0000 C   0  0  0  0  0  0  0  0  0  0  0  0
    3.7320    0.3660    0.0000 C   0  0  0  0  0  0  0  0  0  0  0  0
    2.8660    1.8660    0.0000 C   0  0  0  0  0  0  0  0  0  0  0  0
    2.8660   -0.1340    0.0000 C   0  0  0  0  0  0  0  0  0  0  0  0
    2.0000    1.3660    0.0000 C   0  0  0  0  0  0  0  0  0  0  0  0
    2.0000    0.3660    0.0000 C   0  0  0  0  0  0  0  0  0  0  0  0
    9.8819    0.1340    0.0000 H   0  0  0  0  0  0  0  0  0  0  0  0
    9.2619    0.7540    0.0000 H   0  0  0  0  0  0  0  0  0  0  0  0
    8.6419   -1.8660    0.0000 H   0  0  0  0  0  0  0  0  0  0  0  0
    9.2619   -2.4860    0.0000 H   0  0  0  0  0  0  0  0  0  0  0  0
    9.8819   -1.8660    0.0000 H   0  0  0  0  0  0  0  0  0  0  0  0
   10.2619   -1.4860    0.0000 H   0  0  0  0  0  0  0  0  0  0  0  0
   10.8819   -0.8660    0.0000 H   0  0  0  0  0  0  0  0  0  0  0  0
   10.2619   -0.2460    0.0000 H   0  0  0  0  0  0  0  0  0  0  0  0
    8.6419    0.1340    0.0000 H   0  0  0  0  0  0  0  0  0  0  0  0
    8.3445    0.2121    0.0000 H   0  0  0  0  0  0  0  0  0  0  0  0
    7.6542    0.6106    0.0000 H   0  0  0  0  0  0  0  0  0  0  0  0
    6.5719    1.4030    0.0000 H   0  0  0  0  0  0  0  0  0  0  0  0
    2.8660    2.4860    0.0000 H   0  0  0  0  0  0  0  0  0  0  0  0
    2.8660   -0.7540    0.0000 H   0  0  0  0  0  0  0  0  0  0  0  0
    1.4631    1.6760    0.0000 H   0  0  0  0  0  0  0  0  0  0  0  0
    1.4631    0.0560    0.0000 H   0  0  0  0  0  0  0  0  0  0  0  0
  1  6  1  0  0  0  0
  1 10  1  0  0  0  0
  2 12  1  0  0  0  0
  2 13  1  0  0  0  0
  3 11  2  0  0  0  0
  4 11  1  0  0  0  0
  4 12  1  0  0  0  0
  4 30  1  0  0  0  0
  5 12  2  0  0  0  0
  5 14  1  0  0  0  0
  6  7  1  0  0  0  0
  6  8  1  0  0  0  0
  6  9  1  0  0  0  0
  7 24  1  0  0  0  0
  7 25  1  0  0  0  0
  7 26  1  0  0  0  0
  8 21  1  0  0  0  0
  8 22  1  0  0  0  0
  8 23  1  0  0  0  0
  9 19  1  0  0  0  0
  9 20  1  0  0  0  0
  9 27  1  0  0  0  0
 10 11  1  0  0  0  0
 10 28  1  0  0  0  0
 10 29  1  0  0  0  0
 13 14  1  0  0  0  0
 13 15  2  0  0  0  0
 14 16  2  0  0  0  0
 15 17  1  0  0  0  0
 15 31  1  0  0  0  0
 16 18  1  0  0  0  0
 16 32  1  0  0  0  0
 17 18  2  0  0  0  0
 17 33  1  0  0  0  0
 18 34  1  0  0  0  0
M  END
> <PUBCHEM_COMPOUND_CID>
17395840

> <PUBCHEM_COMPOUND_CANONICALIZED>
1

> <PUBCHEM_CACTVS_COMPLEXITY>
304

> <PUBCHEM_CACTVS_HBOND_ACCEPTOR>
4

> <PUBCHEM_CACTVS_HBOND_DONOR>
1

> <PUBCHEM_CACTVS_ROTATABLE_BOND>
4

> <PUBCHEM_CACTVS_SUBSKEYS>
AAADceBzIABgAAAAAAAAAAAAAAAAAWAAAAAwAAAAAAAAAFgB8AAAHgQQAAAADAiF1gCz0bLIEAisASVydACD8KlhCjlJmDwwZJiIIKLgmZGEIAhokQJoyCcQAAAAAAAAAAAAAQAAAAAAAAACAAAAAAAAAA==

> <PUBCHEM_IUPAC_OPENEYE_NAME>
N-(1,3-benzothiazol-2-yl)-2-tert-butylsulfanyl-acetamide

> <PUBCHEM_IUPAC_CAS_NAME>
N-(1,3-benzothiazol-2-yl)-2-(tert-butylthio)acetamide

> <PUBCHEM_IUPAC_NAME>
N-(1,3-benzothiazol-2-yl)-2-tert-butylsulfanylacetamide

> <PUBCHEM_IUPAC_SYSTEMATIC_NAME>
N-(1,3-benzothiazol-2-yl)-2-tert-butylsulfanyl-ethanamide

> <PUBCHEM_IUPAC_TRADITIONAL_NAME>
N-(1,3-benzothiazol-2-yl)-2-(tert-butylthio)acetamide

> <PUBCHEM_IUPAC_INCHI>
InChI=1S/C13H16N2OS2/c1-13(2,3)17-8-11(16)15-12-14-9-6-4-5-7-10(9)18-12/h4-7H,8H2,1-3H3,(H,14,15,16)

> <PUBCHEM_IUPAC_INCHIKEY>
FAKKUGQCXCUFGG-UHFFFAOYSA-N

> <PUBCHEM_XLOGP3_AA>
3.6

> <PUBCHEM_EXACT_MASS>
280.070405

> <PUBCHEM_MOLECULAR_FORMULA>
C13H16N2OS2

> <PUBCHEM_MOLECULAR_WEIGHT>
280.40894

> <PUBCHEM_OPENEYE_CAN_SMILES>
CC(C)(C)SCC(=O)NC1=NC2=CC=CC=C2S1

> <PUBCHEM_OPENEYE_ISO_SMILES>
CC(C)(C)SCC(=O)NC1=NC2=CC=CC=C2S1

> <PUBCHEM_CACTVS_TPSA>
95.5

> <PUBCHEM_MONOISOTOPIC_WEIGHT>
280.070405

> <PUBCHEM_TOTAL_CHARGE>
0

> <PUBCHEM_HEAVY_ATOM_COUNT>
18

> <PUBCHEM_ATOM_DEF_STEREO_COUNT>
0

> <PUBCHEM_ATOM_UDEF_STEREO_COUNT>
0

> <PUBCHEM_BOND_DEF_STEREO_COUNT>
0

> <PUBCHEM_BOND_UDEF_STEREO_COUNT>
0

> <PUBCHEM_ISOTOPIC_ATOM_COUNT>
0

> <PUBCHEM_COMPONENT_COUNT>
1

> <PUBCHEM_CACTVS_TAUTO_COUNT>
5

> <PUBCHEM_COORDINATE_TYPE>
1
5
255

> <PUBCHEM_BONDANNOTATIONS>
13  14  8
13  15  8
14  16  8
15  17  8
16  18  8
17  18  8
2  12  8
2  13  8
5  12  8
5  14  8

$$$$

