4262
  -OEChem-06261200002D

 47 47  0     1  0  0  0  0  0999 V2000
    6.8609    1.1481    0.0000 O   0  0  0  0  0  0  0  0  0  0  0  0
    3.7040    1.6481    0.0000 O   0  0  0  0  0  0  0  0  0  0  0  0
    4.7830    4.6307    0.0000 O   0  0  0  0  0  0  0  0  0  0  0  0
    5.4641    1.3693    0.0000 N   0  0  0  0  0  0  0  0  0  0  0  0
    6.2731    1.9571    0.0000 C   0  0  3  0  0  0  0  0  0  0  0  0
    5.4641    0.3693    0.0000 C   0  0  0  0  0  0  0  0  0  0  0  0
    5.9641    2.9081    0.0000 C   0  0  0  0  0  0  0  0  0  0  0  0
    4.5981   -0.1307    0.0000 C   0  0  0  0  0  0  0  0  0  0  0  0
    4.5981   -1.1307    0.0000 C   0  0  0  0  0  0  0  0  0  0  0  0
    4.9641    2.9081    0.0000 C   0  0  0  0  0  0  0  0  0  0  0  0
    4.6551    1.9571    0.0000 C   0  0  0  0  0  0  0  0  0  0  0  0
    3.7320   -1.6307    0.0000 C   0  0  0  0  0  0  0  0  0  0  0  0
    7.2242    2.2661    0.0000 C   0  0  0  0  0  0  0  0  0  0  0  0
    3.7320   -2.6307    0.0000 C   0  0  0  0  0  0  0  0  0  0  0  0
    6.5519    3.7172    0.0000 C   0  0  0  0  0  0  0  0  0  0  0  0
    2.8660   -3.1307    0.0000 C   0  0  0  0  0  0  0  0  0  0  0  0
    4.3763    3.7172    0.0000 C   0  0  0  0  0  0  0  0  0  0  0  0
    2.8660   -4.1307    0.0000 C   0  0  0  0  0  0  0  0  0  0  0  0
    3.3818    3.6126    0.0000 C   0  0  0  0  0  0  0  0  0  0  0  0
    2.0000   -4.6307    0.0000 C   0  0  0  0  0  0  0  0  0  0  0  0
    5.6762   -0.2133    0.0000 H   0  0  0  0  0  0  0  0  0  0  0  0
    6.0747    0.4770    0.0000 H   0  0  0  0  0  0  0  0  0  0  0  0
    4.3860    0.4519    0.0000 H   0  0  0  0  0  0  0  0  0  0  0  0
    3.9875   -0.2384    0.0000 H   0  0  0  0  0  0  0  0  0  0  0  0
    4.8101   -1.7133    0.0000 H   0  0  0  0  0  0  0  0  0  0  0  0
    5.2087   -1.0230    0.0000 H   0  0  0  0  0  0  0  0  0  0  0  0
    3.5200   -1.0481    0.0000 H   0  0  0  0  0  0  0  0  0  0  0  0
    3.1215   -1.7384    0.0000 H   0  0  0  0  0  0  0  0  0  0  0  0
    7.4158    1.6764    0.0000 H   0  0  0  0  0  0  0  0  0  0  0  0
    7.8138    2.4577    0.0000 H   0  0  0  0  0  0  0  0  0  0  0  0
    7.0326    2.8558    0.0000 H   0  0  0  0  0  0  0  0  0  0  0  0
    3.9441   -3.2133    0.0000 H   0  0  0  0  0  0  0  0  0  0  0  0
    4.3426   -2.5230    0.0000 H   0  0  0  0  0  0  0  0  0  0  0  0
    7.0535    3.3527    0.0000 H   0  0  0  0  0  0  0  0  0  0  0  0
    6.9163    4.2188    0.0000 H   0  0  0  0  0  0  0  0  0  0  0  0
    6.0503    4.0816    0.0000 H   0  0  0  0  0  0  0  0  0  0  0  0
    2.6540   -2.5481    0.0000 H   0  0  0  0  0  0  0  0  0  0  0  0
    2.2554   -3.2384    0.0000 H   0  0  0  0  0  0  0  0  0  0  0  0
    7.4775    1.2129    0.0000 H   0  0  0  0  0  0  0  0  0  0  0  0
    3.0781   -4.7133    0.0000 H   0  0  0  0  0  0  0  0  0  0  0  0
    3.4766   -4.0230    0.0000 H   0  0  0  0  0  0  0  0  0  0  0  0
    3.3170    4.2292    0.0000 H   0  0  0  0  0  0  0  0  0  0  0  0
    2.7652    3.5478    0.0000 H   0  0  0  0  0  0  0  0  0  0  0  0
    3.4466    2.9960    0.0000 H   0  0  0  0  0  0  0  0  0  0  0  0
    1.6900   -4.0938    0.0000 H   0  0  0  0  0  0  0  0  0  0  0  0
    1.4631   -4.9407    0.0000 H   0  0  0  0  0  0  0  0  0  0  0  0
    2.3100   -5.1676    0.0000 H   0  0  0  0  0  0  0  0  0  0  0  0
  1  5  1  0  0  0  0
  1 39  1  0  0  0  0
  2 11  2  0  0  0  0
  3 17  2  0  0  0  0
  4  5  1  0  0  0  0
  4  6  1  0  0  0  0
  4 11  1  0  0  0  0
  5  7  1  0  0  0  0
  5 13  1  0  0  0  0
  6  8  1  0  0  0  0
  6 21  1  0  0  0  0
  6 22  1  0  0  0  0
  7 10  2  0  0  0  0
  7 15  1  0  0  0  0
  8  9  1  0  0  0  0
  8 23  1  0  0  0  0
  8 24  1  0  0  0  0
  9 12  1  0  0  0  0
  9 25  1  0  0  0  0
  9 26  1  0  0  0  0
 10 11  1  0  0  0  0
 10 17  1  0  0  0  0
 12 14  1  0  0  0  0
 12 27  1  0  0  0  0
 12 28  1  0  0  0  0
 13 29  1  0  0  0  0
 13 30  1  0  0  0  0
 13 31  1  0  0  0  0
 14 16  1  0  0  0  0
 14 32  1  0  0  0  0
 14 33  1  0  0  0  0
 15 34  1  0  0  0  0
 15 35  1  0  0  0  0
 15 36  1  0  0  0  0
 16 18  1  0  0  0  0
 16 37  1  0  0  0  0
 16 38  1  0  0  0  0
 17 19  1  0  0  0  0
 18 20  1  0  0  0  0
 18 40  1  0  0  0  0
 18 41  1  0  0  0  0
 19 42  1  0  0  0  0
 19 43  1  0  0  0  0
 19 44  1  0  0  0  0
 20 45  1  0  0  0  0
 20 46  1  0  0  0  0
 20 47  1  0  0  0  0
M  END
> <PUBCHEM_COMPOUND_CID>
4262

> <PUBCHEM_COMPOUND_CANONICALIZED>
1

> <PUBCHEM_CACTVS_COMPLEXITY>
414

> <PUBCHEM_CACTVS_HBOND_ACCEPTOR>
3

> <PUBCHEM_CACTVS_HBOND_DONOR>
1

> <PUBCHEM_CACTVS_ROTATABLE_BOND>
8

> <PUBCHEM_CACTVS_SUBSKEYS>
AAADceB6MAAAAAAAAAAAAAAAAAAAAQAAAAAAAAAAAAAAAAAAAAAAHgAACAAADAzBgAQCAAMAAgCIAoFQEACAAAAgAAAACAEIAEgABBoIgAAEUAAABgCIEQMQgIAAAAAAAAAAAAAAAAAAAAAAAAAAAAAAAA==

> <PUBCHEM_IUPAC_OPENEYE_NAME>
3-acetyl-5-hydroxy-4,5-dimethyl-1-octyl-pyrrol-2-one

> <PUBCHEM_IUPAC_CAS_NAME>
3-acetyl-5-hydroxy-4,5-dimethyl-1-octyl-2-pyrrolone

> <PUBCHEM_IUPAC_NAME>
3-acetyl-5-hydroxy-4,5-dimethyl-1-octylpyrrol-2-one

> <PUBCHEM_IUPAC_SYSTEMATIC_NAME>
3-ethanoyl-4,5-dimethyl-1-octyl-5-oxidanyl-pyrrol-2-one

> <PUBCHEM_IUPAC_TRADITIONAL_NAME>
3-acetyl-5-hydroxy-4,5-dimethyl-1-octyl-3-pyrrolin-2-one

> <PUBCHEM_IUPAC_INCHI>
InChI=1S/C16H27NO3/c1-5-6-7-8-9-10-11-17-15(19)14(13(3)18)12(2)16(17,4)20/h20H,5-11H2,1-4H3

> <PUBCHEM_IUPAC_INCHIKEY>
IWFCPVZRZLDTPI-UHFFFAOYSA-N

> <PUBCHEM_XLOGP3_AA>
2.7

> <PUBCHEM_EXACT_MASS>
281.199094

> <PUBCHEM_MOLECULAR_FORMULA>
C16H27NO3

> <PUBCHEM_MOLECULAR_WEIGHT>
281.39048

> <PUBCHEM_OPENEYE_CAN_SMILES>
CCCCCCCCN1C(=O)C(=C(C1(C)O)C)C(=O)C

> <PUBCHEM_OPENEYE_ISO_SMILES>
CCCCCCCCN1C(=O)C(=C(C1(C)O)C)C(=O)C

> <PUBCHEM_CACTVS_TPSA>
57.6

> <PUBCHEM_MONOISOTOPIC_WEIGHT>
281.199094

> <PUBCHEM_TOTAL_CHARGE>
0

> <PUBCHEM_HEAVY_ATOM_COUNT>
20

> <PUBCHEM_ATOM_DEF_STEREO_COUNT>
0

> <PUBCHEM_ATOM_UDEF_STEREO_COUNT>
1

> <PUBCHEM_BOND_DEF_STEREO_COUNT>
0

> <PUBCHEM_BOND_UDEF_STEREO_COUNT>
0

> <PUBCHEM_ISOTOPIC_ATOM_COUNT>
0

> <PUBCHEM_COMPONENT_COUNT>
1

> <PUBCHEM_CACTVS_TAUTO_COUNT>
7

> <PUBCHEM_COORDINATE_TYPE>
1
5
255

> <PUBCHEM_BONDANNOTATIONS>
5  1  3

$$$$

