8223
  -OEChem-06261202402D

 78 85  0     1  0  0  0  0  0999 V2000
    4.3933    0.5772    0.0000 O   0  0  0  0  0  0  0  0  0  0  0  0
    3.3710    1.1549    0.0000 O   0  0  0  0  0  0  0  0  0  0  0  0
    4.5851    4.5499    0.0000 O   0  0  0  0  0  0  0  0  0  0  0  0
    6.8554    1.3442    0.0000 O   0  0  0  0  0  0  0  0  0  0  0  0
    5.3743   -1.6248    0.0000 O   0  0  0  0  0  0  0  0  0  0  0  0
    3.5724    3.1448    0.0000 N   0  0  0  0  0  0  0  0  0  0  0  0
    5.1950    1.9754    0.0000 N   0  0  0  0  0  0  0  0  0  0  0  0
    6.2345   -0.1215    0.0000 N   0  0  0  0  0  0  0  0  0  0  0  0
    8.9064   -1.6251    0.0000 N   0  0  3  0  0  0  0  0  0  0  0  0
    9.8945   -5.8153    0.0000 N   0  0  0  0  0  0  0  0  0  0  0  0
    3.4717    2.1498    0.0000 C   0  0  2  0  0  0  0  0  0  0  0  0
    4.2830    1.5652    0.0000 C   0  0  2  0  0  0  0  0  0  0  0  0
    2.4996    1.9419    0.0000 C   0  0  0  0  0  0  0  0  0  0  0  0
    5.2956    2.9704    0.0000 C   0  0  2  0  0  0  0  0  0  0  0  0
    2.6617    3.5432    0.0000 C   0  0  0  0  0  0  0  0  0  0  0  0
    2.0000    2.8013    0.0000 C   0  0  0  0  0  0  0  0  0  0  0  0
    5.3666    0.3751    0.0000 C   0  0  1  0  0  0  0  0  0  0  0  0
    4.4844    3.5550    0.0000 C   0  0  0  0  0  0  0  0  0  0  0  0
    5.8610    1.2375    0.0000 C   0  0  0  0  0  0  0  0  0  0  0  0
    6.2076    3.3806    0.0000 C   0  0  0  0  0  0  0  0  0  0  0  0
    5.1624   -0.6038    0.0000 C   0  0  0  0  0  0  0  0  0  0  0  0
    7.1063   -1.6182    0.0000 C   0  0  1  0  0  0  0  0  0  0  0  0
    8.8904   -2.6666    0.0000 C   0  0  1  0  0  0  0  0  0  0  0  0
    6.2384   -1.1215    0.0000 C   0  0  0  0  0  0  0  0  0  0  0  0
    6.3083    4.3755    0.0000 C   0  0  0  0  0  0  0  0  0  0  0  0
    8.0084   -1.0974    0.0000 C   0  0  0  0  0  0  0  0  0  0  0  0
    8.0244   -3.1666    0.0000 C   0  0  0  0  0  0  0  0  0  0  0  0
    9.7564   -3.1666    0.0000 C   0  0  0  0  0  0  0  0  0  0  0  0
    7.1144   -2.6598    0.0000 C   0  0  0  0  0  0  0  0  0  0  0  0
    8.0244   -4.1666    0.0000 C   0  0  0  0  0  0  0  0  0  0  0  0
    9.7564   -4.1666    0.0000 C   0  0  0  0  0  0  0  0  0  0  0  0
    8.8904   -4.6666    0.0000 C   0  0  0  0  0  0  0  0  0  0  0  0
    9.7782   -1.1352    0.0000 C   0  0  0  0  0  0  0  0  0  0  0  0
    5.4970    4.9602    0.0000 C   0  0  0  0  0  0  0  0  0  0  0  0
    7.2203    4.7858    0.0000 C   0  0  0  0  0  0  0  0  0  0  0  0
    8.9064   -5.7081    0.0000 C   0  0  0  0  0  0  0  0  0  0  0  0
   10.3743   -4.9450    0.0000 C   0  0  0  0  0  0  0  0  0  0  0  0
    7.1144   -4.6735    0.0000 C   0  0  0  0  0  0  0  0  0  0  0  0
    8.0084   -6.2359    0.0000 C   0  0  0  0  0  0  0  0  0  0  0  0
    5.5977    5.9551    0.0000 C   0  0  0  0  0  0  0  0  0  0  0  0
    7.3210    5.7807    0.0000 C   0  0  0  0  0  0  0  0  0  0  0  0
    7.1063   -5.7151    0.0000 C   0  0  0  0  0  0  0  0  0  0  0  0
    6.5097    6.3654    0.0000 C   0  0  0  0  0  0  0  0  0  0  0  0
    3.2971    1.3180    0.0000 H   0  0  0  0  0  0  0  0  0  0  0  0
    1.9338    1.6884    0.0000 H   0  0  0  0  0  0  0  0  0  0  0  0
    2.6923    1.3526    0.0000 H   0  0  0  0  0  0  0  0  0  0  0  0
    5.7986    2.6079    0.0000 H   0  0  0  0  0  0  0  0  0  0  0  0
    2.9685    4.0820    0.0000 H   0  0  0  0  0  0  0  0  0  0  0  0
    2.1582    3.9050    0.0000 H   0  0  0  0  0  0  0  0  0  0  0  0
    1.5832    3.2604    0.0000 H   0  0  0  0  0  0  0  0  0  0  0  0
    1.4997    2.4351    0.0000 H   0  0  0  0  0  0  0  0  0  0  0  0
    6.3599    2.7796    0.0000 H   0  0  0  0  0  0  0  0  0  0  0  0
    6.8259    3.4262    0.0000 H   0  0  0  0  0  0  0  0  0  0  0  0
    3.3086    0.5381    0.0000 H   0  0  0  0  0  0  0  0  0  0  0  0
    6.7703    0.1906    0.0000 H   0  0  0  0  0  0  0  0  0  0  0  0
    4.5555   -0.4772    0.0000 H   0  0  0  0  0  0  0  0  0  0  0  0
    5.0359   -1.2107    0.0000 H   0  0  0  0  0  0  0  0  0  0  0  0
    5.7694   -0.7304    0.0000 H   0  0  0  0  0  0  0  0  0  0  0  0
    6.5712   -1.9313    0.0000 H   0  0  0  0  0  0  0  0  0  0  0  0
    9.6298   -2.2473    0.0000 H   0  0  0  0  0  0  0  0  0  0  0  0
    8.4094   -0.6245    0.0000 H   0  0  0  0  0  0  0  0  0  0  0  0
    7.6111   -0.6214    0.0000 H   0  0  0  0  0  0  0  0  0  0  0  0
   10.3670   -3.2743    0.0000 H   0  0  0  0  0  0  0  0  0  0  0  0
    9.9685   -2.5840    0.0000 H   0  0  0  0  0  0  0  0  0  0  0  0
    6.5810   -2.9760    0.0000 H   0  0  0  0  0  0  0  0  0  0  0  0
   10.0820   -1.6756    0.0000 H   0  0  0  0  0  0  0  0  0  0  0  0
   10.3187   -0.8314    0.0000 H   0  0  0  0  0  0  0  0  0  0  0  0
    9.4744   -0.5947    0.0000 H   0  0  0  0  0  0  0  0  0  0  0  0
    4.9316    4.7058    0.0000 H   0  0  0  0  0  0  0  0  0  0  0  0
    7.7233    4.4233    0.0000 H   0  0  0  0  0  0  0  0  0  0  0  0
   10.9922   -4.8932    0.0000 H   0  0  0  0  0  0  0  0  0  0  0  0
    6.5810   -4.3573    0.0000 H   0  0  0  0  0  0  0  0  0  0  0  0
   10.1805   -6.3654    0.0000 H   0  0  0  0  0  0  0  0  0  0  0  0
    8.0108   -6.8559    0.0000 H   0  0  0  0  0  0  0  0  0  0  0  0
    5.0947    6.3176    0.0000 H   0  0  0  0  0  0  0  0  0  0  0  0
    7.8864    6.0350    0.0000 H   0  0  0  0  0  0  0  0  0  0  0  0
    6.5682   -6.0230    0.0000 H   0  0  0  0  0  0  0  0  0  0  0  0
    6.5721    6.9822    0.0000 H   0  0  0  0  0  0  0  0  0  0  0  0
  1 12  1  0  0  0  0
  1 17  1  0  0  0  0
 12  2  1  6  0  0  0
  2 54  1  0  0  0  0
  3 18  2  0  0  0  0
  4 19  2  0  0  0  0
  5 24  2  0  0  0  0
  6 11  1  0  0  0  0
  6 15  1  0  0  0  0
  6 18  1  0  0  0  0
  7 12  1  0  0  0  0
  7 14  1  0  0  0  0
  7 19  1  0  0  0  0
 17  8  1  6  0  0  0
  8 24  1  0  0  0  0
  8 55  1  0  0  0  0
  9 23  1  0  0  0  0
  9 26  1  0  0  0  0
  9 33  1  0  0  0  0
 10 36  1  0  0  0  0
 10 37  1  0  0  0  0
 10 73  1  0  0  0  0
 11 12  1  0  0  0  0
 11 13  1  0  0  0  0
 11 44  1  1  0  0  0
 13 16  1  0  0  0  0
 13 45  1  0  0  0  0
 13 46  1  0  0  0  0
 14 18  1  0  0  0  0
 14 20  1  6  0  0  0
 14 47  1  0  0  0  0
 15 16  1  0  0  0  0
 15 48  1  0  0  0  0
 15 49  1  0  0  0  0
 16 50  1  0  0  0  0
 16 51  1  0  0  0  0
 17 19  1  0  0  0  0
 17 21  1  0  0  0  0
 20 25  1  0  0  0  0
 20 52  1  0  0  0  0
 20 53  1  0  0  0  0
 21 56  1  0  0  0  0
 21 57  1  0  0  0  0
 21 58  1  0  0  0  0
 22 24  1  1  0  0  0
 22 26  1  0  0  0  0
 22 29  1  0  0  0  0
 22 59  1  0  0  0  0
 23 27  1  0  0  0  0
 23 28  1  0  0  0  0
 23 60  1  1  0  0  0
 25 34  2  0  0  0  0
 25 35  1  0  0  0  0
 26 61  1  0  0  0  0
 26 62  1  0  0  0  0
 27 29  2  0  0  0  0
 27 30  1  0  0  0  0
 28 31  1  0  0  0  0
 28 63  1  0  0  0  0
 28 64  1  0  0  0  0
 29 65  1  0  0  0  0
 30 32  2  0  0  0  0
 30 38  1  0  0  0  0
 31 32  1  0  0  0  0
 31 37  2  0  0  0  0
 32 36  1  0  0  0  0
 33 66  1  0  0  0  0
 33 67  1  0  0  0  0
 33 68  1  0  0  0  0
 34 40  1  0  0  0  0
 34 69  1  0  0  0  0
 35 41  2  0  0  0  0
 35 70  1  0  0  0  0
 36 39  2  0  0  0  0
 37 71  1  0  0  0  0
 38 42  2  0  0  0  0
 38 72  1  0  0  0  0
 39 42  1  0  0  0  0
 39 74  1  0  0  0  0
 40 43  2  0  0  0  0
 40 75  1  0  0  0  0
 41 43  1  0  0  0  0
 41 76  1  0  0  0  0
 42 77  1  0  0  0  0
 43 78  1  0  0  0  0
M  END
> <PUBCHEM_COMPOUND_CID>
8223

> <PUBCHEM_COMPOUND_CANONICALIZED>
1

> <PUBCHEM_CACTVS_COMPLEXITY>
1220

> <PUBCHEM_CACTVS_HBOND_ACCEPTOR>
6

> <PUBCHEM_CACTVS_HBOND_DONOR>
3

> <PUBCHEM_CACTVS_ROTATABLE_BOND>
4

> <PUBCHEM_CACTVS_SUBSKEYS>
AAADcfB/uAAAAAAAAAAAAAAAAAAAAWLFgAA8YMECAAAAAFjB9AAAHgAQCAAADSzBngQ+yPPJlgCoAzV3VAKCgCAxAiAI2aH4ZJkaYPrA0bWfYAhklgDcyAeYmMKOgAAAQAASAAAQAASAACQAAAAAAAAAAA==

> <PUBCHEM_IUPAC_INCHI>
InChI=1S/C33H35N5O5/c1-32(35-29(39)21-15-23-22-10-6-11-24-28(22)20(17-34-24)16-25(23)36(2)18-21)31(41)38-26(14-19-8-4-3-5-9-19)30(40)37-13-7-12-27(37)33(38,42)43-32/h3-6,8-11,15,17,21,25-27,34,42H,7,12-14,16,18H2,1-2H3,(H,35,39)/t21-,25-,26+,27+,32-,33+/m1/s1

> <PUBCHEM_IUPAC_INCHIKEY>
XCGSFFUVFURLIX-VFGNJEKYSA-N

> <PUBCHEM_XLOGP3_AA>
2

> <PUBCHEM_EXACT_MASS>
581.263819

> <PUBCHEM_MOLECULAR_FORMULA>
C33H35N5O5

> <PUBCHEM_MOLECULAR_WEIGHT>
581.6615

> <PUBCHEM_OPENEYE_CAN_SMILES>
CC1(C(=O)N2C(C(=O)N3CCCC3C2(O1)O)CC4=CC=CC=C4)NC(=O)C5CN(C6CC7=CNC8=CC=CC(=C78)C6=C5)C

> <PUBCHEM_OPENEYE_ISO_SMILES>
C[C@@]1(C(=O)N2[C@H](C(=O)N3CCC[C@H]3[C@@]2(O1)O)CC4=CC=CC=C4)NC(=O)[C@H]5CN([C@@H]6CC7=CNC8=CC=CC(=C78)C6=C5)C

> <PUBCHEM_CACTVS_TPSA>
118

> <PUBCHEM_MONOISOTOPIC_WEIGHT>
581.263819

> <PUBCHEM_TOTAL_CHARGE>
0

> <PUBCHEM_HEAVY_ATOM_COUNT>
43

> <PUBCHEM_ATOM_DEF_STEREO_COUNT>
6

> <PUBCHEM_ATOM_UDEF_STEREO_COUNT>
0

> <PUBCHEM_BOND_DEF_STEREO_COUNT>
0

> <PUBCHEM_BOND_UDEF_STEREO_COUNT>
0

> <PUBCHEM_ISOTOPIC_ATOM_COUNT>
0

> <PUBCHEM_COMPONENT_COUNT>
1

> <PUBCHEM_CACTVS_TAUTO_COUNT>
8

> <PUBCHEM_COORDINATE_TYPE>
1
5
255

> <PUBCHEM_BONDANNOTATIONS>
10  36  8
10  37  8
11  44  5
14  20  6
12  2  6
22  24  5
23  60  5
25  34  8
25  35  8
30  32  8
30  38  8
31  32  8
31  37  8
32  36  8
34  40  8
35  41  8
36  39  8
38  42  8
39  42  8
40  43  8
41  43  8
17  8  6

$$$$

