11277
  -OEChem-06261205282D

 23 24  0     0  0  0  0  0  0999 V2000
    3.4030   -0.3623    0.0000 S   0  0  0  0  0  0  0  0  0  0  0  0
    5.1350   -1.3623    0.0000 O   0  0  0  0  0  0  0  0  0  0  0  0
    2.5369   -0.8623    0.0000 O   0  0  0  0  0  0  0  0  0  0  0  0
    2.9030    0.5037    0.0000 O   0  0  0  0  0  0  0  0  0  0  0  0
    3.9030   -1.2284    0.0000 O   0  0  0  0  0  0  0  0  0  0  0  0
    6.0010    0.1377    0.0000 C   0  0  0  0  0  0  0  0  0  0  0  0
    6.0010    1.1377    0.0000 C   0  0  0  0  0  0  0  0  0  0  0  0
    4.2690    0.1377    0.0000 C   0  0  0  0  0  0  0  0  0  0  0  0
    5.1350   -0.3623    0.0000 C   0  0  0  0  0  0  0  0  0  0  0  0
    5.1350    1.6377    0.0000 C   0  0  0  0  0  0  0  0  0  0  0  0
    4.2690    1.1377    0.0000 C   0  0  0  0  0  0  0  0  0  0  0  0
    6.8950   -0.3970    0.0000 C   0  0  0  0  0  0  0  0  0  0  0  0
    6.8950    1.6723    0.0000 C   0  0  0  0  0  0  0  0  0  0  0  0
    7.8010    0.1169    0.0000 C   0  0  0  0  0  0  0  0  0  0  0  0
    7.8010    1.1585    0.0000 C   0  0  0  0  0  0  0  0  0  0  0  0
    5.1350    2.2577    0.0000 H   0  0  0  0  0  0  0  0  0  0  0  0
    3.7320    1.4477    0.0000 H   0  0  0  0  0  0  0  0  0  0  0  0
    6.8878   -1.0170    0.0000 H   0  0  0  0  0  0  0  0  0  0  0  0
    6.8878    2.2923    0.0000 H   0  0  0  0  0  0  0  0  0  0  0  0
    8.3368   -0.1952    0.0000 H   0  0  0  0  0  0  0  0  0  0  0  0
    8.3368    1.4706    0.0000 H   0  0  0  0  0  0  0  0  0  0  0  0
    5.6720   -1.6723    0.0000 H   0  0  0  0  0  0  0  0  0  0  0  0
    2.0000   -0.5523    0.0000 H   0  0  0  0  0  0  0  0  0  0  0  0
  1  3  1  0  0  0  0
  1  4  2  0  0  0  0
  1  5  2  0  0  0  0
  1  8  1  0  0  0  0
  2  9  1  0  0  0  0
  2 22  1  0  0  0  0
  3 23  1  0  0  0  0
  6  7  1  0  0  0  0
  6  9  1  0  0  0  0
  6 12  2  0  0  0  0
  7 10  1  0  0  0  0
  7 13  2  0  0  0  0
  8  9  2  0  0  0  0
  8 11  1  0  0  0  0
 10 11  2  0  0  0  0
 10 16  1  0  0  0  0
 11 17  1  0  0  0  0
 12 14  1  0  0  0  0
 12 18  1  0  0  0  0
 13 15  1  0  0  0  0
 13 19  1  0  0  0  0
 14 15  2  0  0  0  0
 14 20  1  0  0  0  0
 15 21  1  0  0  0  0
M  END
> <PUBCHEM_COMPOUND_CID>
11277

> <PUBCHEM_COMPOUND_CANONICALIZED>
1

> <PUBCHEM_CACTVS_COMPLEXITY>
319

> <PUBCHEM_CACTVS_HBOND_ACCEPTOR>
4

> <PUBCHEM_CACTVS_HBOND_DONOR>
2

> <PUBCHEM_CACTVS_ROTATABLE_BOND>
1

> <PUBCHEM_CACTVS_SUBSKEYS>
AAADccBwOABAAAAAAAAAAAAAAAAAAAAAAAAwYAAAAAAAAADBUAAAGgQACAAADASA2AAwB8AAAoKAAiBCAHBCAEAgIAAIiBoECIgIJiKCERKAcAAkwBEImAeAwLAOkAABgAAYIAAgAAMAADBAAAAAAAAAAA==

> <PUBCHEM_IUPAC_OPENEYE_NAME>
1-hydroxynaphthalene-2-sulfonic acid

> <PUBCHEM_IUPAC_CAS_NAME>
1-hydroxy-2-naphthalenesulfonic acid

> <PUBCHEM_IUPAC_NAME>
1-hydroxynaphthalene-2-sulfonic acid

> <PUBCHEM_IUPAC_SYSTEMATIC_NAME>
1-oxidanylnaphthalene-2-sulfonic acid

> <PUBCHEM_IUPAC_TRADITIONAL_NAME>
1-hydroxynaphthalene-2-sulfonic acid

> <PUBCHEM_IUPAC_INCHI>
InChI=1S/C10H8O4S/c11-10-8-4-2-1-3-7(8)5-6-9(10)15(12,13)14/h1-6,11H,(H,12,13,14)

> <PUBCHEM_IUPAC_INCHIKEY>
PWJNDVAKQLOWRZ-UHFFFAOYSA-N

> <PUBCHEM_XLOGP3_AA>
2.1

> <PUBCHEM_EXACT_MASS>
224.01433

> <PUBCHEM_MOLECULAR_FORMULA>
C10H8O4S

> <PUBCHEM_MOLECULAR_WEIGHT>
224.23312

> <PUBCHEM_OPENEYE_CAN_SMILES>
C1=CC=C2C(=C1)C=CC(=C2O)S(=O)(=O)O

> <PUBCHEM_OPENEYE_ISO_SMILES>
C1=CC=C2C(=C1)C=CC(=C2O)S(=O)(=O)O

> <PUBCHEM_CACTVS_TPSA>
83

> <PUBCHEM_MONOISOTOPIC_WEIGHT>
224.01433

> <PUBCHEM_TOTAL_CHARGE>
0

> <PUBCHEM_HEAVY_ATOM_COUNT>
15

> <PUBCHEM_ATOM_DEF_STEREO_COUNT>
0

> <PUBCHEM_ATOM_UDEF_STEREO_COUNT>
0

> <PUBCHEM_BOND_DEF_STEREO_COUNT>
0

> <PUBCHEM_BOND_UDEF_STEREO_COUNT>
0

> <PUBCHEM_ISOTOPIC_ATOM_COUNT>
0

> <PUBCHEM_COMPONENT_COUNT>
1

> <PUBCHEM_CACTVS_TAUTO_COUNT>
2

> <PUBCHEM_COORDINATE_TYPE>
1
5
255

> <PUBCHEM_BONDANNOTATIONS>
10  11  8
12  14  8
13  15  8
14  15  8
6  12  8
6  7  8
6  9  8
7  10  8
7  13  8
8  11  8
8  9  8

$$$$

