10578
  -OEChem-06261204422D

 51 53  0     0  0  0  0  0  0999 V2000
    5.2002    0.0000    0.0000 I   0  5  0  0  0  0  0  0  0  0  0  0
    7.8937    5.2831    0.0000 S   0  0  0  0  0  0  0  0  0  0  0  0
    3.2152    7.9843    0.0000 S   0  0  0  0  0  0  0  0  0  0  0  0
    9.2875    6.0879    0.0000 N   0  3  0  0  0  0  0  0  0  0  0  0
    3.2152    9.5937    0.0000 N   0  0  0  0  0  0  0  0  0  0  0  0
    9.4967    5.1161    0.0000 C   0  0  0  0  0  0  0  0  0  0  0  0
    2.2690    9.2890    0.0000 C   0  0  0  0  0  0  0  0  0  0  0  0
    9.9554    6.8322    0.0000 C   0  0  0  0  0  0  0  0  0  0  0  0
    8.2988    6.1909    0.0000 C   0  0  0  0  0  0  0  0  0  0  0  0
    3.5259   10.5443    0.0000 C   0  0  0  0  0  0  0  0  0  0  0  0
    3.7988    8.7890    0.0000 C   0  0  0  0  0  0  0  0  0  0  0  0
    8.6307    4.6161    0.0000 C   0  0  0  0  0  0  0  0  0  0  0  0
    2.2690    8.2890    0.0000 C   0  0  0  0  0  0  0  0  0  0  0  0
   10.3628    4.6161    0.0000 C   0  0  0  0  0  0  0  0  0  0  0  0
    1.4030    9.7890    0.0000 C   0  0  0  0  0  0  0  0  0  0  0  0
    8.6307    3.6160    0.0000 C   0  0  0  0  0  0  0  0  0  0  0  0
    1.4030    7.7890    0.0000 C   0  0  0  0  0  0  0  0  0  0  0  0
    9.6447    7.7827    0.0000 C   0  0  0  0  0  0  0  0  0  0  0  0
    4.5044   10.7505    0.0000 C   0  0  0  0  0  0  0  0  0  0  0  0
    7.7988    7.0570    0.0000 C   0  0  0  0  0  0  0  0  0  0  0  0
    4.7988    8.7890    0.0000 C   0  0  0  0  0  0  0  0  0  0  0  0
   10.3628    3.6160    0.0000 C   0  0  0  0  0  0  0  0  0  0  0  0
    0.5369    9.2890    0.0000 C   0  0  0  0  0  0  0  0  0  0  0  0
    9.4967    3.1160    0.0000 C   0  0  0  0  0  0  0  0  0  0  0  0
    0.5369    8.2890    0.0000 C   0  0  0  0  0  0  0  0  0  0  0  0
    6.7988    7.0570    0.0000 C   0  0  0  0  0  0  0  0  0  0  0  0
    5.2988    7.9230    0.0000 C   0  0  0  0  0  0  0  0  0  0  0  0
    6.2988    7.9230    0.0000 C   0  0  0  0  0  0  0  0  0  0  0  0
   10.3379    6.3443    0.0000 H   0  0  0  0  0  0  0  0  0  0  0  0
   10.5023    7.1242    0.0000 H   0  0  0  0  0  0  0  0  0  0  0  0
    3.5053   11.1639    0.0000 H   0  0  0  0  0  0  0  0  0  0  0  0
    2.9120   10.6316    0.0000 H   0  0  0  0  0  0  0  0  0  0  0  0
   10.8997    4.9260    0.0000 H   0  0  0  0  0  0  0  0  0  0  0  0
    1.4030   10.4090    0.0000 H   0  0  0  0  0  0  0  0  0  0  0  0
    8.0938    3.3060    0.0000 H   0  0  0  0  0  0  0  0  0  0  0  0
    1.4030    7.1690    0.0000 H   0  0  0  0  0  0  0  0  0  0  0  0
   10.2340    7.9753    0.0000 H   0  0  0  0  0  0  0  0  0  0  0  0
    9.4521    8.3720    0.0000 H   0  0  0  0  0  0  0  0  0  0  0  0
    9.0554    7.5901    0.0000 H   0  0  0  0  0  0  0  0  0  0  0  0
    4.6322   10.1438    0.0000 H   0  0  0  0  0  0  0  0  0  0  0  0
    5.1110   10.8783    0.0000 H   0  0  0  0  0  0  0  0  0  0  0  0
    4.3765   11.3571    0.0000 H   0  0  0  0  0  0  0  0  0  0  0  0
    8.1088    7.5939    0.0000 H   0  0  0  0  0  0  0  0  0  0  0  0
    5.1088    9.3259    0.0000 H   0  0  0  0  0  0  0  0  0  0  0  0
   10.8997    3.3060    0.0000 H   0  0  0  0  0  0  0  0  0  0  0  0
    0.0000    9.5990    0.0000 H   0  0  0  0  0  0  0  0  0  0  0  0
    9.4967    2.4960    0.0000 H   0  0  0  0  0  0  0  0  0  0  0  0
    0.0000    7.9790    0.0000 H   0  0  0  0  0  0  0  0  0  0  0  0
    6.4888    6.5200    0.0000 H   0  0  0  0  0  0  0  0  0  0  0  0
    4.9888    7.3860    0.0000 H   0  0  0  0  0  0  0  0  0  0  0  0
    6.6088    8.4599    0.0000 H   0  0  0  0  0  0  0  0  0  0  0  0
  2  9  1  0  0  0  0
  2 12  1  0  0  0  0
  3 11  1  0  0  0  0
  3 13  1  0  0  0  0
  4  6  1  0  0  0  0
  4  8  1  0  0  0  0
  4  9  2  0  0  0  0
  5  7  1  0  0  0  0
  5 10  1  0  0  0  0
  5 11  1  0  0  0  0
  6 12  1  0  0  0  0
  6 14  2  0  0  0  0
  7 13  1  0  0  0  0
  7 15  2  0  0  0  0
  8 18  1  0  0  0  0
  8 29  1  0  0  0  0
  8 30  1  0  0  0  0
  9 20  1  0  0  0  0
 10 19  1  0  0  0  0
 10 31  1  0  0  0  0
 10 32  1  0  0  0  0
 11 21  2  3  0  0  0
 12 16  2  0  0  0  0
 13 17  2  0  0  0  0
 14 22  1  0  0  0  0
 14 33  1  0  0  0  0
 15 23  1  0  0  0  0
 15 34  1  0  0  0  0
 16 24  1  0  0  0  0
 16 35  1  0  0  0  0
 17 25  1  0  0  0  0
 17 36  1  0  0  0  0
 18 37  1  0  0  0  0
 18 38  1  0  0  0  0
 18 39  1  0  0  0  0
 19 40  1  0  0  0  0
 19 41  1  0  0  0  0
 19 42  1  0  0  0  0
 20 26  2  3  0  0  0
 20 43  1  0  0  0  0
 21 27  1  0  0  0  0
 21 44  1  0  0  0  0
 22 24  2  0  0  0  0
 22 45  1  0  0  0  0
 23 25  2  0  0  0  0
 23 46  1  0  0  0  0
 24 47  1  0  0  0  0
 25 48  1  0  0  0  0
 26 28  1  0  0  0  0
 26 49  1  0  0  0  0
 27 28  2  3  0  0  0
 27 50  1  0  0  0  0
 28 51  1  0  0  0  0
M  CHG  2   1  -1   4   1
M  END
> <PUBCHEM_COMPOUND_CID>
10578

> <PUBCHEM_COMPOUND_CANONICALIZED>
1

> <PUBCHEM_CACTVS_COMPLEXITY>
537

> <PUBCHEM_CACTVS_HBOND_ACCEPTOR>
4

> <PUBCHEM_CACTVS_HBOND_DONOR>
0

> <PUBCHEM_CACTVS_ROTATABLE_BOND>
5

> <PUBCHEM_CACTVS_SUBSKEYS>
AAADceB7AABgAgAAAAAAAAAAAAAAAWLAAAAwYAAAAAAAAFgB9AAAHAQAAAAACAjBVgQywbMMEAikASRiRACD8KBhCjhI2Dw4ZJgIIKLgkZGEIAhggADoyAcQAAAAAAAAAAAAAQAAAAAAAAACAAAAAAAAAA==

> <PUBCHEM_IUPAC_OPENEYE_NAME>
3-ethyl-2-[5-(3-ethyl-1,3-benzothiazol-3-ium-2-yl)penta-2,4-dienylidene]-1,3-benzothiazole iodide

> <PUBCHEM_IUPAC_CAS_NAME>
3-ethyl-2-[5-(3-ethyl-1,3-benzothiazol-3-ium-2-yl)penta-2,4-dienylidene]-1,3-benzothiazole iodide

> <PUBCHEM_IUPAC_NAME>
3-ethyl-2-[5-(3-ethyl-1,3-benzothiazol-3-ium-2-yl)penta-2,4-dienylidene]-1,3-benzothiazole iodide

> <PUBCHEM_IUPAC_SYSTEMATIC_NAME>
3-ethyl-2-[5-(3-ethyl-1,3-benzothiazol-3-ium-2-yl)penta-2,4-dienylidene]-1,3-benzothiazole iodide

> <PUBCHEM_IUPAC_TRADITIONAL_NAME>
3-ethyl-2-[5-(3-ethyl-1,3-benzothiazol-3-ium-2-yl)penta-2,4-dienylidene]-1,3-benzothiazole iodide

> <PUBCHEM_IUPAC_INCHI>
InChI=1S/C23H23N2S2.HI/c1-3-24-18-12-8-10-14-20(18)26-22(24)16-6-5-7-17-23-25(4-2)19-13-9-11-15-21(19)27-23;/h5-17H,3-4H2,1-2H3;1H/q+1;/p-1

> <PUBCHEM_IUPAC_INCHIKEY>
MNQDKWZEUULFPX-UHFFFAOYSA-M

> <PUBCHEM_EXACT_MASS>
518.034739

> <PUBCHEM_MOLECULAR_FORMULA>
C23H23IN2S2

> <PUBCHEM_MOLECULAR_WEIGHT>
518.47659

> <PUBCHEM_OPENEYE_CAN_SMILES>
CCN1C2=CC=CC=C2SC1=CC=CC=CC3=[N+](C4=CC=CC=C4S3)CC.[I-]

> <PUBCHEM_OPENEYE_ISO_SMILES>
CCN1C2=CC=CC=C2SC1=CC=CC=CC3=[N+](C4=CC=CC=C4S3)CC.[I-]

> <PUBCHEM_CACTVS_TPSA>
60.7

> <PUBCHEM_MONOISOTOPIC_WEIGHT>
518.034739

> <PUBCHEM_TOTAL_CHARGE>
0

> <PUBCHEM_HEAVY_ATOM_COUNT>
28

> <PUBCHEM_ATOM_DEF_STEREO_COUNT>
0

> <PUBCHEM_ATOM_UDEF_STEREO_COUNT>
0

> <PUBCHEM_BOND_DEF_STEREO_COUNT>
0

> <PUBCHEM_BOND_UDEF_STEREO_COUNT>
3

> <PUBCHEM_ISOTOPIC_ATOM_COUNT>
0

> <PUBCHEM_COMPONENT_COUNT>
2

> <PUBCHEM_CACTVS_TAUTO_COUNT>
1

> <PUBCHEM_COORDINATE_TYPE>
1
5
255

> <PUBCHEM_BONDANNOTATIONS>
11  21  1
12  16  8
13  17  8
14  22  8
15  23  8
16  24  8
17  25  8
2  12  8
2  9  8
20  26  1
22  24  8
23  25  8
27  28  1
4  6  8
4  9  8
6  12  8
6  14  8
7  13  8
7  15  8

$$$$

