4808
  -OEChem-06261200212D

103107  0     1  0  0  0  0  0999 V2000
    8.5589    5.8352    0.0000 S   0  0  0  0  0  0  0  0  0  0  0  0
    8.3994    2.3508    0.0000 O   0  0  0  0  0  0  0  0  0  0  0  0
    3.8759   -6.3865    0.0000 O   0  0  0  0  0  0  0  0  0  0  0  0
    5.1988   -3.2927    0.0000 O   0  0  0  0  0  0  0  0  0  0  0  0
   12.0575    2.8755    0.0000 O   0  0  0  0  0  0  0  0  0  0  0  0
    8.5705    4.8353    0.0000 O   0  0  0  0  0  0  0  0  0  0  0  0
    8.5474    6.8352    0.0000 O   0  0  0  0  0  0  0  0  0  0  0  0
    7.5590    5.8237    0.0000 O   0  0  0  0  0  0  0  0  0  0  0  0
    9.5589    5.8468    0.0000 O   0  0  0  0  0  0  0  0  0  0  0  0
    6.6790    1.3308    0.0000 C   0  0  3  0  0  0  0  0  0  0  0  0
    6.0016    0.1072    0.0000 C   0  0  3  0  0  0  0  0  0  0  0  0
    9.2293    0.3767    0.0000 C   0  0  0  0  0  0  0  0  0  0  0  0
    7.5392    1.8408    0.0000 C   0  0  3  0  0  0  0  0  0  0  0  0
    9.4769    1.3456    0.0000 C   0  0  3  0  0  0  0  0  0  0  0  0
    6.9704   -0.1404    0.0000 C   0  0  0  0  0  0  0  0  0  0  0  0
    5.8991    3.1539    0.0000 C   0  0  0  0  0  0  0  0  0  0  0  0
    6.7593    3.6639    0.0000 C   0  0  0  0  0  0  0  0  0  0  0  0
    5.5116   -0.7645    0.0000 C   0  0  0  0  0  0  0  0  0  0  0  0
   10.3371    1.8555    0.0000 C   0  0  0  0  0  0  0  0  0  0  0  0
    5.0016    0.0957    0.0000 C   0  0  0  0  0  0  0  0  0  0  0  0
   10.1011   -0.1133    0.0000 C   0  0  0  0  0  0  0  0  0  0  0  0
    9.2409   -0.6232    0.0000 C   0  0  0  0  0  0  0  0  0  0  0  0
    6.0216   -1.6247    0.0000 C   0  0  0  0  0  0  0  0  0  0  0  0
    5.5517   -4.2284    0.0000 C   0  0  3  0  0  0  0  0  0  0  0  0
    4.6577   -4.7630    0.0000 C   0  0  3  0  0  0  0  0  0  0  0  0
    5.5316   -2.4964    0.0000 C   0  0  0  0  0  0  0  0  0  0  0  0
   10.3256    2.8555    0.0000 C   0  0  0  0  0  0  0  0  0  0  0  0
    6.0416   -3.3566    0.0000 C   0  0  0  0  0  0  0  0  0  0  0  0
    6.4577   -4.7422    0.0000 C   0  0  3  0  0  0  0  0  0  0  0  0
    4.6577   -5.7630    0.0000 C   0  0  3  0  0  0  0  0  0  0  0  0
    3.8759   -4.1396    0.0000 C   0  0  0  0  0  0  0  0  0  0  0  0
    6.4577   -5.7839    0.0000 C   0  0  0  0  0  0  0  0  0  0  0  0
    5.5517   -6.2977    0.0000 C   0  0  0  0  0  0  0  0  0  0  0  0
    4.4841   -3.7782    0.0000 C   0  0  0  0  0  0  0  0  0  0  0  0
    2.9010   -4.3621    0.0000 C   0  0  0  0  0  0  0  0  0  0  0  0
   11.1858    3.3654    0.0000 C   0  0  0  0  0  0  0  0  0  0  0  0
    9.4538    3.3454    0.0000 C   0  0  0  0  0  0  0  0  0  0  0  0
    2.9010   -6.1640    0.0000 C   0  0  0  0  0  0  0  0  0  0  0  0
    7.3218   -4.2389    0.0000 C   0  0  0  0  0  0  0  0  0  0  0  0
    2.4671   -5.2630    0.0000 C   0  0  0  0  0  0  0  0  0  0  0  0
    9.4422    4.3454    0.0000 C   0  0  0  0  0  0  0  0  0  0  0  0
   11.1742    4.3654    0.0000 C   0  0  0  0  0  0  0  0  0  0  0  0
    2.0000   -6.5979    0.0000 C   0  0  0  0  0  0  0  0  0  0  0  0
    2.6785   -7.1389    0.0000 C   0  0  0  0  0  0  0  0  0  0  0  0
   10.3024    4.8553    0.0000 C   0  0  0  0  0  0  0  0  0  0  0  0
    7.1072    1.7793    0.0000 H   0  0  0  0  0  0  0  0  0  0  0  0
    9.9732    0.9738    0.0000 H   0  0  0  0  0  0  0  0  0  0  0  0
    6.8110   -0.7396    0.0000 H   0  0  0  0  0  0  0  0  0  0  0  0
    7.5680   -0.3056    0.0000 H   0  0  0  0  0  0  0  0  0  0  0  0
    5.6065    3.7005    0.0000 H   0  0  0  0  0  0  0  0  0  0  0  0
    5.3402    2.8854    0.0000 H   0  0  0  0  0  0  0  0  0  0  0  0
    7.3181    3.9324    0.0000 H   0  0  0  0  0  0  0  0  0  0  0  0
    6.4667    4.2105    0.0000 H   0  0  0  0  0  0  0  0  0  0  0  0
    5.0321   -0.3715    0.0000 H   0  0  0  0  0  0  0  0  0  0  0  0
    5.0413   -1.1685    0.0000 H   0  0  0  0  0  0  0  0  0  0  0  0
   10.5559    1.2754    0.0000 H   0  0  0  0  0  0  0  0  0  0  0  0
   10.9464    1.9702    0.0000 H   0  0  0  0  0  0  0  0  0  0  0  0
    4.9945    0.7156    0.0000 H   0  0  0  0  0  0  0  0  0  0  0  0
    4.3817    0.0885    0.0000 H   0  0  0  0  0  0  0  0  0  0  0  0
    5.0088   -0.5243    0.0000 H   0  0  0  0  0  0  0  0  0  0  0  0
    8.6209   -0.6304    0.0000 H   0  0  0  0  0  0  0  0  0  0  0  0
    9.2480   -1.2432    0.0000 H   0  0  0  0  0  0  0  0  0  0  0  0
    9.8608   -0.6161    0.0000 H   0  0  0  0  0  0  0  0  0  0  0  0
    9.7973   -0.6537    0.0000 H   0  0  0  0  0  0  0  0  0  0  0  0
   10.6415   -0.4170    0.0000 H   0  0  0  0  0  0  0  0  0  0  0  0
   10.4048    0.4272    0.0000 H   0  0  0  0  0  0  0  0  0  0  0  0
    6.5011   -2.0177    0.0000 H   0  0  0  0  0  0  0  0  0  0  0  0
    6.4919   -1.2207    0.0000 H   0  0  0  0  0  0  0  0  0  0  0  0
    8.3922    2.9707    0.0000 H   0  0  0  0  0  0  0  0  0  0  0  0
    5.0521   -2.1034    0.0000 H   0  0  0  0  0  0  0  0  0  0  0  0
    5.0613   -2.9004    0.0000 H   0  0  0  0  0  0  0  0  0  0  0  0
    6.5211   -3.7496    0.0000 H   0  0  0  0  0  0  0  0  0  0  0  0
    6.5119   -2.9526    0.0000 H   0  0  0  0  0  0  0  0  0  0  0  0
    6.9953   -5.0512    0.0000 H   0  0  0  0  0  0  0  0  0  0  0  0
    4.6993   -6.3816    0.0000 H   0  0  0  0  0  0  0  0  0  0  0  0
    4.3606   -3.7530    0.0000 H   0  0  0  0  0  0  0  0  0  0  0  0
    3.6069   -3.5810    0.0000 H   0  0  0  0  0  0  0  0  0  0  0  0
    6.6668   -6.3675    0.0000 H   0  0  0  0  0  0  0  0  0  0  0  0
    7.0686   -5.6778    0.0000 H   0  0  0  0  0  0  0  0  0  0  0  0
    5.1471   -6.7675    0.0000 H   0  0  0  0  0  0  0  0  0  0  0  0
    5.9453   -6.7767    0.0000 H   0  0  0  0  0  0  0  0  0  0  0  0
    5.0947   -3.6706    0.0000 H   0  0  0  0  0  0  0  0  0  0  0  0
    4.3764   -3.1676    0.0000 H   0  0  0  0  0  0  0  0  0  0  0  0
    3.8735   -3.8859    0.0000 H   0  0  0  0  0  0  0  0  0  0  0  0
    2.9010   -3.7421    0.0000 H   0  0  0  0  0  0  0  0  0  0  0  0
    2.2965   -4.2241    0.0000 H   0  0  0  0  0  0  0  0  0  0  0  0
    7.6339   -4.7746    0.0000 H   0  0  0  0  0  0  0  0  0  0  0  0
    7.8576   -3.9268    0.0000 H   0  0  0  0  0  0  0  0  0  0  0  0
    7.0098   -3.7032    0.0000 H   0  0  0  0  0  0  0  0  0  0  0  0
    8.9205    3.0292    0.0000 H   0  0  0  0  0  0  0  0  0  0  0  0
    4.7194   -2.8996    0.0000 H   0  0  0  0  0  0  0  0  0  0  0  0
    1.9824   -4.8765    0.0000 H   0  0  0  0  0  0  0  0  0  0  0  0
    1.9824   -5.6496    0.0000 H   0  0  0  0  0  0  0  0  0  0  0  0
   11.7075    4.6816    0.0000 H   0  0  0  0  0  0  0  0  0  0  0  0
    1.7310   -6.0393    0.0000 H   0  0  0  0  0  0  0  0  0  0  0  0
    1.4414   -6.8669    0.0000 H   0  0  0  0  0  0  0  0  0  0  0  0
    2.2690   -7.1565    0.0000 H   0  0  0  0  0  0  0  0  0  0  0  0
    2.0740   -7.0010    0.0000 H   0  0  0  0  0  0  0  0  0  0  0  0
    2.5405   -7.7434    0.0000 H   0  0  0  0  0  0  0  0  0  0  0  0
    3.2829   -7.2769    0.0000 H   0  0  0  0  0  0  0  0  0  0  0  0
   10.2953    5.4753    0.0000 H   0  0  0  0  0  0  0  0  0  0  0  0
   12.5908    3.1917    0.0000 H   0  0  0  0  0  0  0  0  0  0  0  0
    8.0069    7.1389    0.0000 H   0  0  0  0  0  0  0  0  0  0  0  0
  1  6  1  0  0  0  0
  1  7  1  0  0  0  0
  1  8  2  0  0  0  0
  1  9  2  0  0  0  0
  2 13  1  0  0  0  0
  2 69  1  0  0  0  0
  3 30  1  0  0  0  0
  3 38  1  0  0  0  0
  4 24  1  0  0  0  0
  4 91  1  0  0  0  0
  5 36  1  0  0  0  0
  5102  1  0  0  0  0
  6 41  1  0  0  0  0
  7103  1  0  0  0  0
 10 11  1  0  0  0  0
 10 12  1  0  0  0  0
 10 16  1  0  0  0  0
 10 46  1  0  0  0  0
 11 15  1  0  0  0  0
 11 18  1  0  0  0  0
 11 20  1  0  0  0  0
 12 14  1  0  0  0  0
 12 21  1  0  0  0  0
 12 22  1  0  0  0  0
 13 14  1  0  0  0  0
 13 15  1  0  0  0  0
 13 17  1  0  0  0  0
 14 19  1  0  0  0  0
 14 47  1  0  0  0  0
 15 48  1  0  0  0  0
 15 49  1  0  0  0  0
 16 17  1  0  0  0  0
 16 50  1  0  0  0  0
 16 51  1  0  0  0  0
 17 52  1  0  0  0  0
 17 53  1  0  0  0  0
 18 23  1  0  0  0  0
 18 54  1  0  0  0  0
 18 55  1  0  0  0  0
 19 27  1  0  0  0  0
 19 56  1  0  0  0  0
 19 57  1  0  0  0  0
 20 58  1  0  0  0  0
 20 59  1  0  0  0  0
 20 60  1  0  0  0  0
 21 64  1  0  0  0  0
 21 65  1  0  0  0  0
 21 66  1  0  0  0  0
 22 61  1  0  0  0  0
 22 62  1  0  0  0  0
 22 63  1  0  0  0  0
 23 26  1  0  0  0  0
 23 67  1  0  0  0  0
 23 68  1  0  0  0  0
 24 25  1  0  0  0  0
 24 28  1  0  0  0  0
 24 29  1  0  0  0  0
 25 30  1  0  0  0  0
 25 31  1  0  0  0  0
 25 34  1  0  0  0  0
 26 28  1  0  0  0  0
 26 70  1  0  0  0  0
 26 71  1  0  0  0  0
 27 36  2  0  0  0  0
 27 37  1  0  0  0  0
 28 72  1  0  0  0  0
 28 73  1  0  0  0  0
 29 32  1  0  0  0  0
 29 39  1  0  0  0  0
 29 74  1  0  0  0  0
 30 33  1  0  0  0  0
 30 75  1  0  0  0  0
 31 35  1  0  0  0  0
 31 76  1  0  0  0  0
 31 77  1  0  0  0  0
 32 33  1  0  0  0  0
 32 78  1  0  0  0  0
 32 79  1  0  0  0  0
 33 80  1  0  0  0  0
 33 81  1  0  0  0  0
 34 82  1  0  0  0  0
 34 83  1  0  0  0  0
 34 84  1  0  0  0  0
 35 40  1  0  0  0  0
 35 85  1  0  0  0  0
 35 86  1  0  0  0  0
 36 42  1  0  0  0  0
 37 41  2  0  0  0  0
 37 90  1  0  0  0  0
 38 40  1  0  0  0  0
 38 43  1  0  0  0  0
 38 44  1  0  0  0  0
 39 87  1  0  0  0  0
 39 88  1  0  0  0  0
 39 89  1  0  0  0  0
 40 92  1  0  0  0  0
 40 93  1  0  0  0  0
 41 45  1  0  0  0  0
 42 45  2  0  0  0  0
 42 94  1  0  0  0  0
 43 95  1  0  0  0  0
 43 96  1  0  0  0  0
 43 97  1  0  0  0  0
 44 98  1  0  0  0  0
 44 99  1  0  0  0  0
 44100  1  0  0  0  0
 45101  1  0  0  0  0
M  END
> <PUBCHEM_COMPOUND_CID>
4808

> <PUBCHEM_COMPOUND_CANONICALIZED>
1

> <PUBCHEM_CACTVS_COMPLEXITY>
1170

> <PUBCHEM_CACTVS_HBOND_ACCEPTOR>
8

> <PUBCHEM_CACTVS_HBOND_DONOR>
4

> <PUBCHEM_CACTVS_ROTATABLE_BOND>
9

> <PUBCHEM_CACTVS_SUBSKEYS>
AAADcfB8PABAAAAAAAAAAAAAAAAAAAAAAAAwYMGDBIAAAAABAAAAGgAACAAAD1SgmAIyBoAABoCAAiBCADACAAAgIAAIiAAGCIgIJiKCERKCcAAlwBEImAfA4PwPgQABAAAIAADCAAYQADAAAAAAAAAAAA==

> <PUBCHEM_IUPAC_OPENEYE_NAME>
[4-hydroxy-3-[[4-hydroxy-2-[4-(6-hydroxy-2,2,5a,7-tetramethyl-4,5,7,8,9,9a-hexahydro-3H-benzo[b]oxepin-6-yl)butyl]-2,6,6-trimethyl-5-bicyclo[2.2.2]octanyl]methyl]phenyl] hydrogen sulfate

> <PUBCHEM_IUPAC_CAS_NAME>
sulfuric acid [4-hydroxy-3-[[4-hydroxy-2-[4-(6-hydroxy-2,2,5a,7-tetramethyl-4,5,7,8,9,9a-hexahydro-3H-benzo[b]oxepin-6-yl)butyl]-2,6,6-trimethyl-5-bicyclo[2.2.2]octanyl]methyl]phenyl] ester

> <PUBCHEM_IUPAC_NAME>
[4-hydroxy-3-[[4-hydroxy-2-[4-(6-hydroxy-2,2,5a,7-tetramethyl-4,5,7,8,9,9a-hexahydro-3H-benzo[b]oxepin-6-yl)butyl]-2,6,6-trimethyl-5-bicyclo[2.2.2]octanyl]methyl]phenyl] hydrogen sulfate

> <PUBCHEM_IUPAC_SYSTEMATIC_NAME>
[3-[[2-[4-(2,2,5a,7-tetramethyl-6-oxidanyl-4,5,7,8,9,9a-hexahydro-3H-benzo[b]oxepin-6-yl)butyl]-2,6,6-trimethyl-4-oxidanyl-5-bicyclo[2.2.2]octanyl]methyl]-4-oxidanyl-phenyl] hydrogen sulfate

> <PUBCHEM_IUPAC_TRADITIONAL_NAME>
sulfuric acid [4-hydroxy-3-[[4-hydroxy-2-[4-(6-hydroxy-2,2,5a,7-tetramethyl-4,5,7,8,9,9a-hexahydro-3H-benzo[b]oxepin-6-yl)butyl]-2,6,6-trimethyl-5-bicyclo[2.2.2]octanyl]methyl]phenyl] ester

> <PUBCHEM_IUPAC_INCHI>
InChI=1S/C36H58O8S/c1-24-11-14-30-34(7,18-10-16-31(2,3)43-30)36(24,39)19-9-8-17-33(6)23-35(38)20-15-28(33)32(4,5)29(35)22-25-21-26(12-13-27(25)37)44-45(40,41)42/h12-13,21,24,28-30,37-39H,8-11,14-20,22-23H2,1-7H3,(H,40,41,42)

> <PUBCHEM_IUPAC_INCHIKEY>
RSZXGUYTGKOPQK-UHFFFAOYSA-N

> <PUBCHEM_XLOGP3_AA>
7.4

> <PUBCHEM_EXACT_MASS>
650.38524

> <PUBCHEM_MOLECULAR_FORMULA>
C36H58O8S

> <PUBCHEM_MOLECULAR_WEIGHT>
650.90592

> <PUBCHEM_OPENEYE_CAN_SMILES>
CC1CCC2C(C1(CCCCC3(CC4(CCC3C(C4CC5=C(C=CC(=C5)OS(=O)(=O)O)O)(C)C)O)C)O)(CCCC(O2)(C)C)C

> <PUBCHEM_OPENEYE_ISO_SMILES>
CC1CCC2C(C1(CCCCC3(CC4(CCC3C(C4CC5=C(C=CC(=C5)OS(=O)(=O)O)O)(C)C)O)C)O)(CCCC(O2)(C)C)C

> <PUBCHEM_CACTVS_TPSA>
142

> <PUBCHEM_MONOISOTOPIC_WEIGHT>
650.38524

> <PUBCHEM_TOTAL_CHARGE>
0

> <PUBCHEM_HEAVY_ATOM_COUNT>
45

> <PUBCHEM_ATOM_DEF_STEREO_COUNT>
0

> <PUBCHEM_ATOM_UDEF_STEREO_COUNT>
8

> <PUBCHEM_BOND_DEF_STEREO_COUNT>
0

> <PUBCHEM_BOND_UDEF_STEREO_COUNT>
0

> <PUBCHEM_ISOTOPIC_ATOM_COUNT>
0

> <PUBCHEM_COMPONENT_COUNT>
1

> <PUBCHEM_CACTVS_TAUTO_COUNT>
3

> <PUBCHEM_COORDINATE_TYPE>
1
5
255

> <PUBCHEM_BONDANNOTATIONS>
10  16  3
11  20  3
14  19  3
13  2  3
25  34  3
27  36  8
27  37  8
29  39  3
30  33  3
36  42  8
37  41  8
24  4  3
41  45  8
42  45  8

$$$$

