11802
  -OEChem-06261206082D

 23 24  0     0  0  0  0  0  0999 V2000
    4.5981   -2.0950    0.0000 O   0  0  0  0  0  0  0  0  0  0  0  0
    3.7320    2.4050    0.0000 O   0  5  0  0  0  0  0  0  0  0  0  0
    5.4641    2.4050    0.0000 O   0  0  0  0  0  0  0  0  0  0  0  0
    2.0000   -0.5950    0.0000 O   0  5  0  0  0  0  0  0  0  0  0  0
    2.8660   -2.0950    0.0000 O   0  0  0  0  0  0  0  0  0  0  0  0
    4.5981    1.9050    0.0000 N   0  3  0  0  0  0  0  0  0  0  0  0
    2.8660   -1.0950    0.0000 N   0  3  0  0  0  0  0  0  0  0  0  0
    5.4641    0.4050    0.0000 C   0  0  0  0  0  0  0  0  0  0  0  0
    5.4641   -0.5950    0.0000 C   0  0  0  0  0  0  0  0  0  0  0  0
    4.5981    0.9050    0.0000 C   0  0  0  0  0  0  0  0  0  0  0  0
    4.5981   -1.0950    0.0000 C   0  0  0  0  0  0  0  0  0  0  0  0
    3.7320   -0.5950    0.0000 C   0  0  0  0  0  0  0  0  0  0  0  0
    3.7320    0.4050    0.0000 C   0  0  0  0  0  0  0  0  0  0  0  0
    6.3580    0.9397    0.0000 C   0  0  0  0  0  0  0  0  0  0  0  0
    6.3580   -1.1297    0.0000 C   0  0  0  0  0  0  0  0  0  0  0  0
    7.2641    0.4258    0.0000 C   0  0  0  0  0  0  0  0  0  0  0  0
    7.2641   -0.6158    0.0000 C   0  0  0  0  0  0  0  0  0  0  0  0
    3.1951    0.7150    0.0000 H   0  0  0  0  0  0  0  0  0  0  0  0
    6.3509    1.5596    0.0000 H   0  0  0  0  0  0  0  0  0  0  0  0
    6.3509   -1.7496    0.0000 H   0  0  0  0  0  0  0  0  0  0  0  0
    7.7998    0.7379    0.0000 H   0  0  0  0  0  0  0  0  0  0  0  0
    7.7998   -0.9279    0.0000 H   0  0  0  0  0  0  0  0  0  0  0  0
    5.1350   -2.4050    0.0000 H   0  0  0  0  0  0  0  0  0  0  0  0
  1 11  1  0  0  0  0
  1 23  1  0  0  0  0
  2  6  1  0  0  0  0
  3  6  2  0  0  0  0
  4  7  1  0  0  0  0
  5  7  2  0  0  0  0
  6 10  1  0  0  0  0
  7 12  1  0  0  0  0
  8  9  1  0  0  0  0
  8 10  1  0  0  0  0
  8 14  2  0  0  0  0
  9 11  1  0  0  0  0
  9 15  2  0  0  0  0
 10 13  2  0  0  0  0
 11 12  2  0  0  0  0
 12 13  1  0  0  0  0
 13 18  1  0  0  0  0
 14 16  1  0  0  0  0
 14 19  1  0  0  0  0
 15 17  1  0  0  0  0
 15 20  1  0  0  0  0
 16 17  2  0  0  0  0
 16 21  1  0  0  0  0
 17 22  1  0  0  0  0
M  CHG  4   2  -1   4  -1   6   1   7   1
M  END
> <PUBCHEM_COMPOUND_CID>
11802

> <PUBCHEM_COMPOUND_CANONICALIZED>
1

> <PUBCHEM_CACTVS_COMPLEXITY>
324

> <PUBCHEM_CACTVS_HBOND_ACCEPTOR>
5

> <PUBCHEM_CACTVS_HBOND_DONOR>
1

> <PUBCHEM_CACTVS_ROTATABLE_BOND>
0

> <PUBCHEM_CACTVS_SUBSKEYS>
AAADcYBzOAAAAAAAAAAAAAAAAAAAAAAAAAAwYAAAAAAAAADBUAAAHgAECAAADAyBmAAwxsAQQgCBAiRCQwCCAAAgIgAoiAAFbIoKJiKS0dOAcABkwFEI2AewwLAOiEABQAQaEAAQgAKACDQgAAAAAAAAAA==

> <PUBCHEM_IUPAC_OPENEYE_NAME>
2,4-dinitronaphthalen-1-ol

> <PUBCHEM_IUPAC_CAS_NAME>
2,4-dinitro-1-naphthalenol

> <PUBCHEM_IUPAC_NAME>
2,4-dinitronaphthalen-1-ol

> <PUBCHEM_IUPAC_SYSTEMATIC_NAME>
2,4-dinitronaphthalen-1-ol

> <PUBCHEM_IUPAC_TRADITIONAL_NAME>
2,4-dinitro-1-naphthol

> <PUBCHEM_IUPAC_INCHI>
InChI=1S/C10H6N2O5/c13-10-7-4-2-1-3-6(7)8(11(14)15)5-9(10)12(16)17/h1-5,13H

> <PUBCHEM_IUPAC_INCHIKEY>
FFRBMBIXVSCUFS-UHFFFAOYSA-N

> <PUBCHEM_XLOGP3>
3.7

> <PUBCHEM_EXACT_MASS>
234.027671

> <PUBCHEM_MOLECULAR_FORMULA>
C10H6N2O5

> <PUBCHEM_MOLECULAR_WEIGHT>
234.16504

> <PUBCHEM_OPENEYE_CAN_SMILES>
C1=CC=C2C(=C1)C(=CC(=C2O)[N+](=O)[O-])[N+](=O)[O-]

> <PUBCHEM_OPENEYE_ISO_SMILES>
C1=CC=C2C(=C1)C(=CC(=C2O)[N+](=O)[O-])[N+](=O)[O-]

> <PUBCHEM_CACTVS_TPSA>
112

> <PUBCHEM_MONOISOTOPIC_WEIGHT>
234.027671

> <PUBCHEM_TOTAL_CHARGE>
0

> <PUBCHEM_HEAVY_ATOM_COUNT>
17

> <PUBCHEM_ATOM_DEF_STEREO_COUNT>
0

> <PUBCHEM_ATOM_UDEF_STEREO_COUNT>
0

> <PUBCHEM_BOND_DEF_STEREO_COUNT>
0

> <PUBCHEM_BOND_UDEF_STEREO_COUNT>
0

> <PUBCHEM_ISOTOPIC_ATOM_COUNT>
0

> <PUBCHEM_COMPONENT_COUNT>
1

> <PUBCHEM_CACTVS_TAUTO_COUNT>
3

> <PUBCHEM_COORDINATE_TYPE>
1
5
255

> <PUBCHEM_BONDANNOTATIONS>
10  13  8
11  12  8
12  13  8
14  16  8
15  17  8
16  17  8
8  10  8
8  14  8
8  9  8
9  11  8
9  15  8

$$$$

