4889
  -OEChem-06261200242D

 66 67  0     1  0  0  0  0  0999 V2000
    3.7320    1.0371    0.0000 O   0  0  0  0  0  0  0  0  0  0  0  0
    2.0000    4.0371    0.0000 O   0  0  0  0  0  0  0  0  0  0  0  0
    5.4573   -0.9973    0.0000 O   0  0  0  0  0  0  0  0  0  0  0  0
    2.0000    1.0371    0.0000 O   0  0  0  0  0  0  0  0  0  0  0  0
    6.3060   -2.5072    0.0000 O   0  0  0  0  0  0  0  0  0  0  0  0
    8.8865   -4.0372    0.0000 O   0  0  0  0  0  0  0  0  0  0  0  0
    7.1546   -4.0172    0.0000 O   0  0  0  0  0  0  0  0  0  0  0  0
    4.5981    2.5371    0.0000 C   0  0  3  0  0  0  0  0  0  0  0  0
    5.4920    2.0025    0.0000 C   0  0  3  0  0  0  0  0  0  0  0  0
    3.7320    2.0371    0.0000 C   0  0  3  0  0  0  0  0  0  0  0  0
    6.3981    2.5163    0.0000 C   0  0  3  0  0  0  0  0  0  0  0  0
    5.4804    1.0025    0.0000 C   0  0  0  0  0  0  0  0  0  0  0  0
    4.5981    3.5371    0.0000 C   0  0  0  0  0  0  0  0  0  0  0  0
    2.8660    2.5371    0.0000 C   0  0  0  0  0  0  0  0  0  0  0  0
    2.8660    3.5371    0.0000 C   0  0  3  0  0  0  0  0  0  0  0  0
    6.3981    3.5580    0.0000 C   0  0  0  0  0  0  0  0  0  0  0  0
    6.3406    0.4926    0.0000 C   0  0  0  0  0  0  0  0  0  0  0  0
    3.7320    4.0371    0.0000 C   0  0  0  0  0  0  0  0  0  0  0  0
    5.4920    4.0718    0.0000 C   0  0  0  0  0  0  0  0  0  0  0  0
    7.2622    2.0130    0.0000 C   0  0  0  0  0  0  0  0  0  0  0  0
    6.3291   -0.5074    0.0000 C   0  0  3  0  0  0  0  0  0  0  0  0
    7.1893   -1.0174    0.0000 C   0  0  0  0  0  0  0  0  0  0  0  0
    2.8660    0.5371    0.0000 C   0  0  0  0  0  0  0  0  0  0  0  0
    7.1777   -2.0173    0.0000 C   0  0  3  0  0  0  0  0  0  0  0  0
    2.8660   -0.4629    0.0000 C   0  0  3  0  0  0  0  0  0  0  0  0
    8.0379   -2.5273    0.0000 C   0  0  0  0  0  0  0  0  0  0  0  0
    2.0000   -0.9629    0.0000 C   0  0  0  0  0  0  0  0  0  0  0  0
    3.7320   -0.9629    0.0000 C   0  0  0  0  0  0  0  0  0  0  0  0
    2.0000   -1.9629    0.0000 C   0  0  0  0  0  0  0  0  0  0  0  0
    8.0263   -3.5272    0.0000 C   0  0  0  0  0  0  0  0  0  0  0  0
    4.5915    1.6872    0.0000 H   0  0  0  0  0  0  0  0  0  0  0  0
    6.2240    1.5704    0.0000 H   0  0  0  0  0  0  0  0  0  0  0  0
    4.4682    1.6121    0.0000 H   0  0  0  0  0  0  0  0  0  0  0  0
    7.1350    2.9399    0.0000 H   0  0  0  0  0  0  0  0  0  0  0  0
    4.8712    1.1173    0.0000 H   0  0  0  0  0  0  0  0  0  0  0  0
    5.2617    0.4224    0.0000 H   0  0  0  0  0  0  0  0  0  0  0  0
    2.2554    2.6448    0.0000 H   0  0  0  0  0  0  0  0  0  0  0  0
    2.6540    1.9545    0.0000 H   0  0  0  0  0  0  0  0  0  0  0  0
    2.8660    4.3871    0.0000 H   0  0  0  0  0  0  0  0  0  0  0  0
    6.9338    3.8700    0.0000 H   0  0  0  0  0  0  0  0  0  0  0  0
    6.9499    0.3778    0.0000 H   0  0  0  0  0  0  0  0  0  0  0  0
    6.5594    1.0727    0.0000 H   0  0  0  0  0  0  0  0  0  0  0  0
    3.7320    4.6571    0.0000 H   0  0  0  0  0  0  0  0  0  0  0  0
    5.4848    4.6918    0.0000 H   0  0  0  0  0  0  0  0  0  0  0  0
    6.9501    1.4772    0.0000 H   0  0  0  0  0  0  0  0  0  0  0  0
    7.7979    1.7009    0.0000 H   0  0  0  0  0  0  0  0  0  0  0  0
    7.5742    2.5487    0.0000 H   0  0  0  0  0  0  0  0  0  0  0  0
    5.5979   -0.0739    0.0000 H   0  0  0  0  0  0  0  0  0  0  0  0
    7.7986   -1.1321    0.0000 H   0  0  0  0  0  0  0  0  0  0  0  0
    7.4080   -0.4372    0.0000 H   0  0  0  0  0  0  0  0  0  0  0  0
    2.0000    4.6571    0.0000 H   0  0  0  0  0  0  0  0  0  0  0  0
    6.4465   -1.5838    0.0000 H   0  0  0  0  0  0  0  0  0  0  0  0
    2.8660   -1.3129    0.0000 H   0  0  0  0  0  0  0  0  0  0  0  0
    5.4502   -1.6173    0.0000 H   0  0  0  0  0  0  0  0  0  0  0  0
    8.6472   -2.6420    0.0000 H   0  0  0  0  0  0  0  0  0  0  0  0
    8.2567   -1.9472    0.0000 H   0  0  0  0  0  0  0  0  0  0  0  0
    1.7880   -0.3803    0.0000 H   0  0  0  0  0  0  0  0  0  0  0  0
    1.3894   -1.0705    0.0000 H   0  0  0  0  0  0  0  0  0  0  0  0
    3.4220   -1.4998    0.0000 H   0  0  0  0  0  0  0  0  0  0  0  0
    4.2690   -1.2729    0.0000 H   0  0  0  0  0  0  0  0  0  0  0  0
    4.0420   -0.4259    0.0000 H   0  0  0  0  0  0  0  0  0  0  0  0
    6.2988   -3.1272    0.0000 H   0  0  0  0  0  0  0  0  0  0  0  0
    1.3800   -1.9629    0.0000 H   0  0  0  0  0  0  0  0  0  0  0  0
    2.0000   -2.5829    0.0000 H   0  0  0  0  0  0  0  0  0  0  0  0
    2.6200   -1.9629    0.0000 H   0  0  0  0  0  0  0  0  0  0  0  0
    8.8793   -4.6571    0.0000 H   0  0  0  0  0  0  0  0  0  0  0  0
  1 10  1  0  0  0  0
  1 23  1  0  0  0  0
  2 15  1  0  0  0  0
  2 51  1  0  0  0  0
  3 21  1  0  0  0  0
  3 54  1  0  0  0  0
  4 23  2  0  0  0  0
  5 24  1  0  0  0  0
  5 62  1  0  0  0  0
  6 30  1  0  0  0  0
  6 66  1  0  0  0  0
  7 30  2  0  0  0  0
  8  9  1  0  0  0  0
  8 10  1  0  0  0  0
  8 13  1  0  0  0  0
  8 31  1  0  0  0  0
  9 11  1  0  0  0  0
  9 12  1  0  0  0  0
  9 32  1  0  0  0  0
 10 14  1  0  0  0  0
 10 33  1  0  0  0  0
 11 16  1  0  0  0  0
 11 20  1  0  0  0  0
 11 34  1  0  0  0  0
 12 17  1  0  0  0  0
 12 35  1  0  0  0  0
 12 36  1  0  0  0  0
 13 18  2  0  0  0  0
 13 19  1  0  0  0  0
 14 15  1  0  0  0  0
 14 37  1  0  0  0  0
 14 38  1  0  0  0  0
 15 18  1  0  0  0  0
 15 39  1  0  0  0  0
 16 19  2  0  0  0  0
 16 40  1  0  0  0  0
 17 21  1  0  0  0  0
 17 41  1  0  0  0  0
 17 42  1  0  0  0  0
 18 43  1  0  0  0  0
 19 44  1  0  0  0  0
 20 45  1  0  0  0  0
 20 46  1  0  0  0  0
 20 47  1  0  0  0  0
 21 22  1  0  0  0  0
 21 48  1  0  0  0  0
 22 24  1  0  0  0  0
 22 49  1  0  0  0  0
 22 50  1  0  0  0  0
 23 25  1  0  0  0  0
 24 26  1  0  0  0  0
 24 52  1  0  0  0  0
 25 27  1  0  0  0  0
 25 28  1  0  0  0  0
 25 53  1  0  0  0  0
 26 30  1  0  0  0  0
 26 55  1  0  0  0  0
 26 56  1  0  0  0  0
 27 29  1  0  0  0  0
 27 57  1  0  0  0  0
 27 58  1  0  0  0  0
 28 59  1  0  0  0  0
 28 60  1  0  0  0  0
 28 61  1  0  0  0  0
 29 63  1  0  0  0  0
 29 64  1  0  0  0  0
 29 65  1  0  0  0  0
M  END
> <PUBCHEM_COMPOUND_CID>
4889

> <PUBCHEM_COMPOUND_CANONICALIZED>
1

> <PUBCHEM_CACTVS_COMPLEXITY>
656

> <PUBCHEM_CACTVS_HBOND_ACCEPTOR>
7

> <PUBCHEM_CACTVS_HBOND_DONOR>
4

> <PUBCHEM_CACTVS_ROTATABLE_BOND>
11

> <PUBCHEM_CACTVS_SUBSKEYS>
AAADcfB4OAAAAAAAAAAAAAAAAAAAAAAAAAAgQAAAAAAAAACAAAAAGgAACAAADRSggAICCAAABgCIAiDSCAAAAAAgAAAICAEAAAgIFBYAAQACUAAF4AAIkAOI7PTOgAAAAAAAAAAAAAAAAAAAAAAAAAAAAA==

> <PUBCHEM_IUPAC_OPENEYE_NAME>
3,5-dihydroxy-7-[6-hydroxy-2-methyl-8-(2-methylbutanoyloxy)-1,2,6,7,8,8a-hexahydronaphthalen-1-yl]heptanoic acid

> <PUBCHEM_IUPAC_CAS_NAME>
3,5-dihydroxy-7-[6-hydroxy-2-methyl-8-(2-methyl-1-oxobutoxy)-1,2,6,7,8,8a-hexahydronaphthalen-1-yl]heptanoic acid

> <PUBCHEM_IUPAC_NAME>
3,5-dihydroxy-7-[6-hydroxy-2-methyl-8-(2-methylbutanoyloxy)-1,2,6,7,8,8a-hexahydronaphthalen-1-yl]heptanoic acid

> <PUBCHEM_IUPAC_SYSTEMATIC_NAME>
7-[2-methyl-8-(2-methylbutanoyloxy)-6-oxidanyl-1,2,6,7,8,8a-hexahydronaphthalen-1-yl]-3,5-bis(oxidanyl)heptanoic acid

> <PUBCHEM_IUPAC_TRADITIONAL_NAME>
3,5-dihydroxy-7-[6-hydroxy-2-methyl-8-(2-methylbutanoyloxy)-1,2,6,7,8,8a-hexahydronaphthalen-1-yl]enanthic acid

> <PUBCHEM_IUPAC_INCHI>
InChI=1S/C23H36O7/c1-4-13(2)23(29)30-20-11-17(25)9-15-6-5-14(3)19(22(15)20)8-7-16(24)10-18(26)12-21(27)28/h5-6,9,13-14,16-20,22,24-26H,4,7-8,10-12H2,1-3H3,(H,27,28)

> <PUBCHEM_IUPAC_INCHIKEY>
TUZYXOIXSAXUGO-UHFFFAOYSA-N

> <PUBCHEM_XLOGP3>
1.6

> <PUBCHEM_EXACT_MASS>
424.246103

> <PUBCHEM_MOLECULAR_FORMULA>
C23H36O7

> <PUBCHEM_MOLECULAR_WEIGHT>
424.52774

> <PUBCHEM_OPENEYE_CAN_SMILES>
CCC(C)C(=O)OC1CC(C=C2C1C(C(C=C2)C)CCC(CC(CC(=O)O)O)O)O

> <PUBCHEM_OPENEYE_ISO_SMILES>
CCC(C)C(=O)OC1CC(C=C2C1C(C(C=C2)C)CCC(CC(CC(=O)O)O)O)O

> <PUBCHEM_CACTVS_TPSA>
124

> <PUBCHEM_MONOISOTOPIC_WEIGHT>
424.246103

> <PUBCHEM_TOTAL_CHARGE>
0

> <PUBCHEM_HEAVY_ATOM_COUNT>
30

> <PUBCHEM_ATOM_DEF_STEREO_COUNT>
0

> <PUBCHEM_ATOM_UDEF_STEREO_COUNT>
8

> <PUBCHEM_BOND_DEF_STEREO_COUNT>
0

> <PUBCHEM_BOND_UDEF_STEREO_COUNT>
0

> <PUBCHEM_ISOTOPIC_ATOM_COUNT>
0

> <PUBCHEM_COMPONENT_COUNT>
1

> <PUBCHEM_CACTVS_TAUTO_COUNT>
1

> <PUBCHEM_COORDINATE_TYPE>
1
5
255

> <PUBCHEM_BONDANNOTATIONS>
10  33  3
11  34  3
15  39  3
21  48  3
24  52  3
25  53  3
8  31  3
9  32  3

$$$$

