13937
  -OEChem-06241222412D

 40 41  0     1  0  0  0  0  0999 V2000
    9.7942   -0.3623    0.0000 O   0  0  0  0  0  0  0  0  0  0  0  0
    9.7942    1.6377    0.0000 O   0  0  0  0  0  0  0  0  0  0  0  0
    8.0622   -1.3623    0.0000 O   0  0  0  0  0  0  0  0  0  0  0  0
    2.8660   -0.3623    0.0000 O   0  0  0  0  0  0  0  0  0  0  0  0
    6.3301   -0.3623    0.0000 N   0  0  0  0  0  0  0  0  0  0  0  0
    8.9282    0.1377    0.0000 C   0  0  3  0  0  0  0  0  0  0  0  0
    8.0622   -0.3623    0.0000 C   0  0  3  0  0  0  0  0  0  0  0  0
    7.1962    0.1377    0.0000 C   0  0  0  0  0  0  0  0  0  0  0  0
    8.9282    1.1377    0.0000 C   0  0  0  0  0  0  0  0  0  0  0  0
    5.4641    0.1377    0.0000 C   0  0  0  0  0  0  0  0  0  0  0  0
   10.6603    0.1377    0.0000 C   0  0  0  0  0  0  0  0  0  0  0  0
   10.6603    1.1377    0.0000 C   0  0  0  0  0  0  0  0  0  0  0  0
    4.5981   -0.3623    0.0000 C   0  0  0  0  0  0  0  0  0  0  0  0
    3.7320    0.1377    0.0000 C   0  0  0  0  0  0  0  0  0  0  0  0
   11.5542   -0.3970    0.0000 C   0  0  0  0  0  0  0  0  0  0  0  0
   11.5542    1.6723    0.0000 C   0  0  0  0  0  0  0  0  0  0  0  0
   12.4603    0.1169    0.0000 C   0  0  0  0  0  0  0  0  0  0  0  0
   12.4603    1.1585    0.0000 C   0  0  0  0  0  0  0  0  0  0  0  0
    2.0000    0.1377    0.0000 C   0  0  0  0  0  0  0  0  0  0  0  0
    8.9282   -0.4823    0.0000 H   0  0  0  0  0  0  0  0  0  0  0  0
    7.5252   -0.6723    0.0000 H   0  0  0  0  0  0  0  0  0  0  0  0
    7.5947    0.6126    0.0000 H   0  0  0  0  0  0  0  0  0  0  0  0
    6.7976    0.6126    0.0000 H   0  0  0  0  0  0  0  0  0  0  0  0
    8.7162    1.7203    0.0000 H   0  0  0  0  0  0  0  0  0  0  0  0
    8.3176    1.0300    0.0000 H   0  0  0  0  0  0  0  0  0  0  0  0
    6.3301   -0.9823    0.0000 H   0  0  0  0  0  0  0  0  0  0  0  0
    5.8626    0.6126    0.0000 H   0  0  0  0  0  0  0  0  0  0  0  0
    5.0656    0.6126    0.0000 H   0  0  0  0  0  0  0  0  0  0  0  0
    4.1996   -0.8373    0.0000 H   0  0  0  0  0  0  0  0  0  0  0  0
    4.9966   -0.8373    0.0000 H   0  0  0  0  0  0  0  0  0  0  0  0
    7.5252   -1.6723    0.0000 H   0  0  0  0  0  0  0  0  0  0  0  0
    4.1306    0.6126    0.0000 H   0  0  0  0  0  0  0  0  0  0  0  0
    3.3335    0.6126    0.0000 H   0  0  0  0  0  0  0  0  0  0  0  0
   11.5470   -1.0170    0.0000 H   0  0  0  0  0  0  0  0  0  0  0  0
   11.5470    2.2923    0.0000 H   0  0  0  0  0  0  0  0  0  0  0  0
   12.9960   -0.1952    0.0000 H   0  0  0  0  0  0  0  0  0  0  0  0
   12.9960    1.4706    0.0000 H   0  0  0  0  0  0  0  0  0  0  0  0
    2.3100    0.6746    0.0000 H   0  0  0  0  0  0  0  0  0  0  0  0
    1.4631    0.4477    0.0000 H   0  0  0  0  0  0  0  0  0  0  0  0
    1.6900   -0.3993    0.0000 H   0  0  0  0  0  0  0  0  0  0  0  0
  1  6  1  0  0  0  0
  1 11  1  0  0  0  0
  2  9  1  0  0  0  0
  2 12  1  0  0  0  0
  3  7  1  0  0  0  0
  3 31  1  0  0  0  0
  4 14  1  0  0  0  0
  4 19  1  0  0  0  0
  5  8  1  0  0  0  0
  5 10  1  0  0  0  0
  5 26  1  0  0  0  0
  6  7  1  0  0  0  0
  6  9  1  0  0  0  0
  6 20  1  0  0  0  0
  7  8  1  0  0  0  0
  7 21  1  0  0  0  0
  8 22  1  0  0  0  0
  8 23  1  0  0  0  0
  9 24  1  0  0  0  0
  9 25  1  0  0  0  0
 10 13  1  0  0  0  0
 10 27  1  0  0  0  0
 10 28  1  0  0  0  0
 11 12  1  0  0  0  0
 11 15  2  0  0  0  0
 12 16  2  0  0  0  0
 13 14  1  0  0  0  0
 13 29  1  0  0  0  0
 13 30  1  0  0  0  0
 14 32  1  0  0  0  0
 14 33  1  0  0  0  0
 15 17  1  0  0  0  0
 15 34  1  0  0  0  0
 16 18  1  0  0  0  0
 16 35  1  0  0  0  0
 17 18  2  0  0  0  0
 17 36  1  0  0  0  0
 18 37  1  0  0  0  0
 19 38  1  0  0  0  0
 19 39  1  0  0  0  0
 19 40  1  0  0  0  0
M  END
> <PUBCHEM_COMPOUND_CID>
13937

> <PUBCHEM_COMPOUND_CANONICALIZED>
1

> <PUBCHEM_CACTVS_COMPLEXITY>
252

> <PUBCHEM_CACTVS_HBOND_ACCEPTOR>
5

> <PUBCHEM_CACTVS_HBOND_DONOR>
2

> <PUBCHEM_CACTVS_ROTATABLE_BOND>
7

> <PUBCHEM_CACTVS_SUBSKEYS>
AAADceByOAAAAAAAAAAAAAAAAAAAAAAAAAA0QAAAAAAAAACRAAAAHgAQCAAACBThkAYyBoLABgCAACBCAAACCAAgIAAIiIAOiIgPNiKEsRqGeCKn0BGbqAegQAAAAAAAAAAAQAAAAAAAAACAAAAAAAAAAA==

> <PUBCHEM_IUPAC_OPENEYE_NAME>
1-(2,3-dihydro-1,4-benzodioxin-3-yl)-2-(3-methoxypropylamino)ethanol

> <PUBCHEM_IUPAC_CAS_NAME>
1-(2,3-dihydro-1,4-benzodioxin-3-yl)-2-(3-methoxypropylamino)ethanol

> <PUBCHEM_IUPAC_NAME>
1-(2,3-dihydro-1,4-benzodioxin-3-yl)-2-(3-methoxypropylamino)ethanol

> <PUBCHEM_IUPAC_SYSTEMATIC_NAME>
1-(2,3-dihydro-1,4-benzodioxin-3-yl)-2-(3-methoxypropylamino)ethanol

> <PUBCHEM_IUPAC_TRADITIONAL_NAME>
1-(2,3-dihydro-1,4-benzodioxin-3-yl)-2-(3-methoxypropylamino)ethanol

> <PUBCHEM_IUPAC_INCHI>
InChI=1S/C14H21NO4/c1-17-8-4-7-15-9-11(16)14-10-18-12-5-2-3-6-13(12)19-14/h2-3,5-6,11,14-16H,4,7-10H2,1H3

> <PUBCHEM_IUPAC_INCHIKEY>
LBKOWSLAHIUMHT-UHFFFAOYSA-N

> <PUBCHEM_XLOGP3_AA>
0.9

> <PUBCHEM_EXACT_MASS>
267.147058

> <PUBCHEM_MOLECULAR_FORMULA>
C14H21NO4

> <PUBCHEM_MOLECULAR_WEIGHT>
267.32084

> <PUBCHEM_OPENEYE_CAN_SMILES>
COCCCNCC(C1COC2=CC=CC=C2O1)O

> <PUBCHEM_OPENEYE_ISO_SMILES>
COCCCNCC(C1COC2=CC=CC=C2O1)O

> <PUBCHEM_CACTVS_TPSA>
60

> <PUBCHEM_MONOISOTOPIC_WEIGHT>
267.147058

> <PUBCHEM_TOTAL_CHARGE>
0

> <PUBCHEM_HEAVY_ATOM_COUNT>
19

> <PUBCHEM_ATOM_DEF_STEREO_COUNT>
0

> <PUBCHEM_ATOM_UDEF_STEREO_COUNT>
2

> <PUBCHEM_BOND_DEF_STEREO_COUNT>
0

> <PUBCHEM_BOND_UDEF_STEREO_COUNT>
0

> <PUBCHEM_ISOTOPIC_ATOM_COUNT>
0

> <PUBCHEM_COMPONENT_COUNT>
1

> <PUBCHEM_CACTVS_TAUTO_COUNT>
1

> <PUBCHEM_COORDINATE_TYPE>
1
5
255

> <PUBCHEM_BONDANNOTATIONS>
11  12  8
11  15  8
12  16  8
15  17  8
16  18  8
17  18  8
7  3  3
6  9  3

$$$$

