9793
  -OEChem-06261204042D

 56 59  0     1  0  0  0  0  0999 V2000
    5.0182    0.0452    0.0000 F   0  0  0  0  0  0  0  0  0  0  0  0
    4.7950    0.7792    0.0000 O   0  0  0  0  0  0  0  0  0  0  0  0
    7.9821    2.2787    0.0000 O   0  0  0  0  0  0  0  0  0  0  0  0
    9.9391    2.6912    0.0000 O   0  0  0  0  0  0  0  0  0  0  0  0
    2.0000   -2.7732    0.0000 O   0  0  0  0  0  0  0  0  0  0  0  0
    7.3931    0.2792    0.0000 C   0  0  3  0  0  0  0  0  0  0  0  0
    7.3931   -0.7208    0.0000 C   0  0  3  0  0  0  0  0  0  0  0  0
    6.5271   -1.2208    0.0000 C   0  0  3  0  0  0  0  0  0  0  0  0
    5.6610   -0.7208    0.0000 C   0  0  1  0  0  0  0  0  0  0  0  0
    8.3393    0.5839    0.0000 C   0  0  3  0  0  0  0  0  0  0  0  0
    8.3393   -1.0256    0.0000 C   0  0  0  0  0  0  0  0  0  0  0  0
    6.5271    0.7792    0.0000 C   0  0  0  0  0  0  0  0  0  0  0  0
    8.9229   -0.2208    0.0000 C   0  0  1  0  0  0  0  0  0  0  0  0
    5.6610    0.2792    0.0000 C   0  0  3  0  0  0  0  0  0  0  0  0
    4.7510   -1.2277    0.0000 C   0  0  3  0  0  0  0  0  0  0  0  0
    6.5431   -2.2624    0.0000 C   0  0  0  0  0  0  0  0  0  0  0  0
    7.3931    1.2792    0.0000 C   0  0  0  0  0  0  0  0  0  0  0  0
    5.6451   -2.7901    0.0000 C   0  0  0  0  0  0  0  0  0  0  0  0
    4.7430   -2.2693    0.0000 C   0  0  0  0  0  0  0  0  0  0  0  0
    8.6500    1.5344    0.0000 C   0  0  0  0  0  0  0  0  0  0  0  0
    9.9229   -0.2208    0.0000 C   0  0  0  0  0  0  0  0  0  0  0  0
    4.4163   -0.2854    0.0000 C   0  0  0  0  0  0  0  0  0  0  0  0
    3.8242   -0.6636    0.0000 C   0  0  0  0  0  0  0  0  0  0  0  0
    3.8076   -2.8190    0.0000 C   0  0  0  0  0  0  0  0  0  0  0  0
    9.6285    1.7406    0.0000 C   0  0  0  0  0  0  0  0  0  0  0  0
    2.8763   -1.1916    0.0000 C   0  0  0  0  0  0  0  0  0  0  0  0
    2.8680   -2.2765    0.0000 C   0  0  0  0  0  0  0  0  0  0  0  0
    7.4830   -1.5661    0.0000 H   0  0  0  0  0  0  0  0  0  0  0  0
    7.2664   -1.6402    0.0000 H   0  0  0  0  0  0  0  0  0  0  0  0
    7.7396    1.1862    0.0000 H   0  0  0  0  0  0  0  0  0  0  0  0
    8.0883   -1.5925    0.0000 H   0  0  0  0  0  0  0  0  0  0  0  0
    8.8767   -1.3348    0.0000 H   0  0  0  0  0  0  0  0  0  0  0  0
    6.9256    1.2541    0.0000 H   0  0  0  0  0  0  0  0  0  0  0  0
    6.1285    1.2541    0.0000 H   0  0  0  0  0  0  0  0  0  0  0  0
    9.2046   -0.7731    0.0000 H   0  0  0  0  0  0  0  0  0  0  0  0
    5.6610    1.1292    0.0000 H   0  0  0  0  0  0  0  0  0  0  0  0
    6.7612   -2.8427    0.0000 H   0  0  0  0  0  0  0  0  0  0  0  0
    7.1523   -2.1468    0.0000 H   0  0  0  0  0  0  0  0  0  0  0  0
    8.0131    1.2792    0.0000 H   0  0  0  0  0  0  0  0  0  0  0  0
    7.3931    1.8992    0.0000 H   0  0  0  0  0  0  0  0  0  0  0  0
    6.7731    1.2792    0.0000 H   0  0  0  0  0  0  0  0  0  0  0  0
    5.2478   -3.2661    0.0000 H   0  0  0  0  0  0  0  0  0  0  0  0
    6.0460   -3.2630    0.0000 H   0  0  0  0  0  0  0  0  0  0  0  0
    9.9229   -0.8408    0.0000 H   0  0  0  0  0  0  0  0  0  0  0  0
   10.5429   -0.2208    0.0000 H   0  0  0  0  0  0  0  0  0  0  0  0
    9.9229    0.3992    0.0000 H   0  0  0  0  0  0  0  0  0  0  0  0
    5.0005   -0.0778    0.0000 H   0  0  0  0  0  0  0  0  0  0  0  0
    4.2087    0.2988    0.0000 H   0  0  0  0  0  0  0  0  0  0  0  0
    3.8320   -0.4929    0.0000 H   0  0  0  0  0  0  0  0  0  0  0  0
    3.8361   -0.0437    0.0000 H   0  0  0  0  0  0  0  0  0  0  0  0
    4.7950    1.3992    0.0000 H   0  0  0  0  0  0  0  0  0  0  0  0
    3.8100   -3.4390    0.0000 H   0  0  0  0  0  0  0  0  0  0  0  0
    9.6490    1.1210    0.0000 H   0  0  0  0  0  0  0  0  0  0  0  0
   10.2423    1.6533    0.0000 H   0  0  0  0  0  0  0  0  0  0  0  0
    2.3430   -0.8754    0.0000 H   0  0  0  0  0  0  0  0  0  0  0  0
   10.5458    2.8190    0.0000 H   0  0  0  0  0  0  0  0  0  0  0  0
  9  1  1  6  0  0  0
  2 14  1  0  0  0  0
  2 51  1  0  0  0  0
  3 20  2  0  0  0  0
  4 25  1  0  0  0  0
  4 56  1  0  0  0  0
  5 27  2  0  0  0  0
  6  7  1  0  0  0  0
  6 10  1  0  0  0  0
  6 12  1  0  0  0  0
  6 17  1  0  0  0  0
  7  8  1  0  0  0  0
  7 11  1  0  0  0  0
  7 28  1  0  0  0  0
  8  9  1  0  0  0  0
  8 16  1  0  0  0  0
  8 29  1  0  0  0  0
  9 14  1  0  0  0  0
  9 15  1  0  0  0  0
 10 13  1  0  0  0  0
 10 20  1  0  0  0  0
 10 30  1  0  0  0  0
 11 13  1  0  0  0  0
 11 31  1  0  0  0  0
 11 32  1  0  0  0  0
 12 14  1  0  0  0  0
 12 33  1  0  0  0  0
 12 34  1  0  0  0  0
 13 21  1  6  0  0  0
 13 35  1  0  0  0  0
 14 36  1  0  0  0  0
 15 19  1  0  0  0  0
 15 22  1  0  0  0  0
 15 23  1  0  0  0  0
 16 18  1  0  0  0  0
 16 37  1  0  0  0  0
 16 38  1  0  0  0  0
 17 39  1  0  0  0  0
 17 40  1  0  0  0  0
 17 41  1  0  0  0  0
 18 19  1  0  0  0  0
 18 42  1  0  0  0  0
 18 43  1  0  0  0  0
 19 24  2  0  0  0  0
 20 25  1  0  0  0  0
 21 44  1  0  0  0  0
 21 45  1  0  0  0  0
 21 46  1  0  0  0  0
 22 47  1  0  0  0  0
 22 48  1  0  0  0  0
 22 49  1  0  0  0  0
 23 26  2  0  0  0  0
 23 50  1  0  0  0  0
 24 27  1  0  0  0  0
 24 52  1  0  0  0  0
 25 53  1  0  0  0  0
 25 54  1  0  0  0  0
 26 27  1  0  0  0  0
 26 55  1  0  0  0  0
M  END
> <PUBCHEM_COMPOUND_CID>
9793

> <PUBCHEM_COMPOUND_CANONICALIZED>
1

> <PUBCHEM_CACTVS_COMPLEXITY>
757

> <PUBCHEM_CACTVS_HBOND_ACCEPTOR>
5

> <PUBCHEM_CACTVS_HBOND_DONOR>
2

> <PUBCHEM_CACTVS_ROTATABLE_BOND>
2

> <PUBCHEM_CACTVS_SUBSKEYS>
AAADceB4OQAAAAAAAAAAAAAAAAAAAYAAAAAwYIAAAAAAAGDAAAAAGwAACAAADxSggAICAAAAAgCIAqBSAAIAAAAgAAAICAFAAEgAEBIAAQAAQAAEgAAIAYOIzPDPgAAAAAAAAADAAAYAADAAAQAACAAAAA==

> <PUBCHEM_IUPAC_OPENEYE_NAME>
(9R,16R)-9-fluoro-11-hydroxy-17-(2-hydroxyacetyl)-10,13,16-trimethyl-7,8,11,12,14,15,16,17-octahydro-6H-cyclopenta[a]phenanthren-3-one

> <PUBCHEM_IUPAC_CAS_NAME>
(9R,16R)-9-fluoro-11-hydroxy-17-(2-hydroxy-1-oxoethyl)-10,13,16-trimethyl-7,8,11,12,14,15,16,17-octahydro-6H-cyclopenta[a]phenanthren-3-one

> <PUBCHEM_IUPAC_NAME>
(9R,16R)-9-fluoro-11-hydroxy-17-(2-hydroxyacetyl)-10,13,16-trimethyl-7,8,11,12,14,15,16,17-octahydro-6H-cyclopenta[a]phenanthren-3-one

> <PUBCHEM_IUPAC_SYSTEMATIC_NAME>
(9R,16R)-9-fluoranyl-10,13,16-trimethyl-11-oxidanyl-17-(2-oxidanylethanoyl)-7,8,11,12,14,15,16,17-octahydro-6H-cyclopenta[a]phenanthren-3-one

> <PUBCHEM_IUPAC_TRADITIONAL_NAME>
(9R,16R)-9-fluoro-17-glycoloyl-11-hydroxy-10,13,16-trimethyl-7,8,11,12,14,15,16,17-octahydro-6H-cyclopenta[a]phenanthren-3-one

> <PUBCHEM_IUPAC_INCHI>
InChI=1S/C22H29FO4/c1-12-8-16-15-5-4-13-9-14(25)6-7-21(13,3)22(15,23)18(27)10-20(16,2)19(12)17(26)11-24/h6-7,9,12,15-16,18-19,24,27H,4-5,8,10-11H2,1-3H3/t12-,15?,16?,18?,19?,20?,21?,22+/m1/s1

> <PUBCHEM_IUPAC_INCHIKEY>
VWVSBHGCDBMOOT-OKPPOTDYSA-N

> <PUBCHEM_XLOGP3>
2.3

> <PUBCHEM_EXACT_MASS>
376.204988

> <PUBCHEM_MOLECULAR_FORMULA>
C22H29FO4

> <PUBCHEM_MOLECULAR_WEIGHT>
376.461663

> <PUBCHEM_OPENEYE_CAN_SMILES>
CC1CC2C3CCC4=CC(=O)C=CC4(C3(C(CC2(C1C(=O)CO)C)O)F)C

> <PUBCHEM_OPENEYE_ISO_SMILES>
C[C@@H]1CC2C3CCC4=CC(=O)C=CC4([C@]3(C(CC2(C1C(=O)CO)C)O)F)C

> <PUBCHEM_CACTVS_TPSA>
74.6

> <PUBCHEM_MONOISOTOPIC_WEIGHT>
376.204988

> <PUBCHEM_TOTAL_CHARGE>
0

> <PUBCHEM_HEAVY_ATOM_COUNT>
27

> <PUBCHEM_ATOM_DEF_STEREO_COUNT>
2

> <PUBCHEM_ATOM_UDEF_STEREO_COUNT>
6

> <PUBCHEM_BOND_DEF_STEREO_COUNT>
0

> <PUBCHEM_BOND_UDEF_STEREO_COUNT>
0

> <PUBCHEM_ISOTOPIC_ATOM_COUNT>
0

> <PUBCHEM_COMPONENT_COUNT>
1

> <PUBCHEM_CACTVS_TAUTO_COUNT>
12

> <PUBCHEM_COORDINATE_TYPE>
1
5
255

> <PUBCHEM_BONDANNOTATIONS>
9  1  6
10  30  3
13  21  6
14  36  3
15  22  3
6  17  3
7  28  3
8  29  3

$$$$

