4927
  -OEChem-06261200252D

 40 42  0     1  0  0  0  0  0999 V2000
    4.6660   -2.4827    0.0000 S   0  0  0  0  0  0  0  0  0  0  0  0
    4.6660   -0.4827    0.0000 N   0  0  0  0  0  0  0  0  0  0  0  0
    5.5321    2.0173    0.0000 N   0  0  0  0  0  0  0  0  0  0  0  0
    5.5321    1.0173    0.0000 C   0  0  3  0  0  0  0  0  0  0  0  0
    4.6660    0.5173    0.0000 C   0  0  0  0  0  0  0  0  0  0  0  0
    5.5321   -0.9827    0.0000 C   0  0  0  0  0  0  0  0  0  0  0  0
    3.8000   -0.9827    0.0000 C   0  0  0  0  0  0  0  0  0  0  0  0
    6.3981    0.5173    0.0000 C   0  0  0  0  0  0  0  0  0  0  0  0
    5.5321   -1.9827    0.0000 C   0  0  0  0  0  0  0  0  0  0  0  0
    3.8000   -1.9827    0.0000 C   0  0  0  0  0  0  0  0  0  0  0  0
    6.3981    2.5173    0.0000 C   0  0  0  0  0  0  0  0  0  0  0  0
    4.6660    2.5173    0.0000 C   0  0  0  0  0  0  0  0  0  0  0  0
    6.4260   -0.4480    0.0000 C   0  0  0  0  0  0  0  0  0  0  0  0
    2.9061   -0.4480    0.0000 C   0  0  0  0  0  0  0  0  0  0  0  0
    6.4260   -2.5173    0.0000 C   0  0  0  0  0  0  0  0  0  0  0  0
    2.9061   -2.5173    0.0000 C   0  0  0  0  0  0  0  0  0  0  0  0
    7.3321   -0.9619    0.0000 C   0  0  0  0  0  0  0  0  0  0  0  0
    2.0000   -0.9619    0.0000 C   0  0  0  0  0  0  0  0  0  0  0  0
    7.3321   -2.0035    0.0000 C   0  0  0  0  0  0  0  0  0  0  0  0
    2.0000   -2.0035    0.0000 C   0  0  0  0  0  0  0  0  0  0  0  0
    6.0690    1.3273    0.0000 H   0  0  0  0  0  0  0  0  0  0  0  0
    4.4540    1.0999    0.0000 H   0  0  0  0  0  0  0  0  0  0  0  0
    4.0555    0.4097    0.0000 H   0  0  0  0  0  0  0  0  0  0  0  0
    6.0881   -0.0196    0.0000 H   0  0  0  0  0  0  0  0  0  0  0  0
    6.9350    0.2073    0.0000 H   0  0  0  0  0  0  0  0  0  0  0  0
    6.7081    1.0543    0.0000 H   0  0  0  0  0  0  0  0  0  0  0  0
    6.7081    1.9804    0.0000 H   0  0  0  0  0  0  0  0  0  0  0  0
    6.9350    2.8273    0.0000 H   0  0  0  0  0  0  0  0  0  0  0  0
    6.0881    3.0543    0.0000 H   0  0  0  0  0  0  0  0  0  0  0  0
    4.9760    3.0543    0.0000 H   0  0  0  0  0  0  0  0  0  0  0  0
    4.1291    2.8273    0.0000 H   0  0  0  0  0  0  0  0  0  0  0  0
    4.3560    1.9804    0.0000 H   0  0  0  0  0  0  0  0  0  0  0  0
    2.9132    0.1720    0.0000 H   0  0  0  0  0  0  0  0  0  0  0  0
    6.4188    0.1720    0.0000 H   0  0  0  0  0  0  0  0  0  0  0  0
    2.9132   -3.1373    0.0000 H   0  0  0  0  0  0  0  0  0  0  0  0
    6.4188   -3.1373    0.0000 H   0  0  0  0  0  0  0  0  0  0  0  0
    7.8678   -0.6498    0.0000 H   0  0  0  0  0  0  0  0  0  0  0  0
    1.4643   -0.6498    0.0000 H   0  0  0  0  0  0  0  0  0  0  0  0
    1.4643   -2.3156    0.0000 H   0  0  0  0  0  0  0  0  0  0  0  0
    7.8678   -2.3156    0.0000 H   0  0  0  0  0  0  0  0  0  0  0  0
  1  9  1  0  0  0  0
  1 10  1  0  0  0  0
  2  5  1  0  0  0  0
  2  6  1  0  0  0  0
  2  7  1  0  0  0  0
  3  4  1  0  0  0  0
  3 11  1  0  0  0  0
  3 12  1  0  0  0  0
  4  5  1  0  0  0  0
  4  8  1  0  0  0  0
  4 21  1  0  0  0  0
  5 22  1  0  0  0  0
  5 23  1  0  0  0  0
  6  9  1  0  0  0  0
  6 13  2  0  0  0  0
  7 10  1  0  0  0  0
  7 14  2  0  0  0  0
  8 24  1  0  0  0  0
  8 25  1  0  0  0  0
  8 26  1  0  0  0  0
  9 15  2  0  0  0  0
 10 16  2  0  0  0  0
 11 27  1  0  0  0  0
 11 28  1  0  0  0  0
 11 29  1  0  0  0  0
 12 30  1  0  0  0  0
 12 31  1  0  0  0  0
 12 32  1  0  0  0  0
 13 17  1  0  0  0  0
 13 34  1  0  0  0  0
 14 18  1  0  0  0  0
 14 33  1  0  0  0  0
 15 19  1  0  0  0  0
 15 36  1  0  0  0  0
 16 20  1  0  0  0  0
 16 35  1  0  0  0  0
 17 19  2  0  0  0  0
 17 37  1  0  0  0  0
 18 20  2  0  0  0  0
 18 38  1  0  0  0  0
 19 40  1  0  0  0  0
 20 39  1  0  0  0  0
M  END
> <PUBCHEM_COMPOUND_CID>
4927

> <PUBCHEM_COMPOUND_CANONICALIZED>
1

> <PUBCHEM_CACTVS_COMPLEXITY>
298

> <PUBCHEM_CACTVS_HBOND_ACCEPTOR>
3

> <PUBCHEM_CACTVS_HBOND_DONOR>
0

> <PUBCHEM_CACTVS_ROTATABLE_BOND>
3

> <PUBCHEM_CACTVS_SUBSKEYS>
AAADceB7AABAAAAAAAAAAAAAAAAAAAAAAAA8YIAAAAAAAACxQAAAHAQAAAAACCjBUAQywYMAAAiAACRCQACCAAAhChAIiBwIZIgIYGLgkZGUIAhggADoyAcQAAAAAAAAAAAAAQAAAAAAAAACAAAAAAAAAA==

> <PUBCHEM_IUPAC_OPENEYE_NAME>
N,N-dimethyl-1-phenothiazin-10-yl-propan-2-amine

> <PUBCHEM_IUPAC_CAS_NAME>
N,N-dimethyl-1-(10-phenothiazinyl)-2-propanamine

> <PUBCHEM_IUPAC_NAME>
N,N-dimethyl-1-phenothiazin-10-ylpropan-2-amine

> <PUBCHEM_IUPAC_SYSTEMATIC_NAME>
N,N-dimethyl-1-phenothiazin-10-yl-propan-2-amine

> <PUBCHEM_IUPAC_TRADITIONAL_NAME>
dimethyl-(1-methyl-2-phenothiazin-10-yl-ethyl)amine

> <PUBCHEM_IUPAC_INCHI>
InChI=1S/C17H20N2S/c1-13(18(2)3)12-19-14-8-4-6-10-16(14)20-17-11-7-5-9-15(17)19/h4-11,13H,12H2,1-3H3

> <PUBCHEM_IUPAC_INCHIKEY>
PWWVAXIEGOYWEE-UHFFFAOYSA-N

> <PUBCHEM_XLOGP3>
4.8

> <PUBCHEM_EXACT_MASS>
284.13472

> <PUBCHEM_MOLECULAR_FORMULA>
C17H20N2S

> <PUBCHEM_MOLECULAR_WEIGHT>
284.4191

> <PUBCHEM_OPENEYE_CAN_SMILES>
CC(CN1C2=CC=CC=C2SC3=CC=CC=C31)N(C)C

> <PUBCHEM_OPENEYE_ISO_SMILES>
CC(CN1C2=CC=CC=C2SC3=CC=CC=C31)N(C)C

> <PUBCHEM_CACTVS_TPSA>
31.8

> <PUBCHEM_MONOISOTOPIC_WEIGHT>
284.13472

> <PUBCHEM_TOTAL_CHARGE>
0

> <PUBCHEM_HEAVY_ATOM_COUNT>
20

> <PUBCHEM_ATOM_DEF_STEREO_COUNT>
0

> <PUBCHEM_ATOM_UDEF_STEREO_COUNT>
1

> <PUBCHEM_BOND_DEF_STEREO_COUNT>
0

> <PUBCHEM_BOND_UDEF_STEREO_COUNT>
0

> <PUBCHEM_ISOTOPIC_ATOM_COUNT>
0

> <PUBCHEM_COMPONENT_COUNT>
1

> <PUBCHEM_CACTVS_TAUTO_COUNT>
1

> <PUBCHEM_COORDINATE_TYPE>
1
5
255

> <PUBCHEM_BONDANNOTATIONS>
10  16  8
13  17  8
14  18  8
15  19  8
16  20  8
17  19  8
18  20  8
4  8  3
6  13  8
6  9  8
7  10  8
7  14  8
9  15  8

$$$$

