5721
  -OEChem-06261200502D

 43 43  0     1  0  0  0  0  0999 V2000
    6.0010   -0.6900    0.0000 O   0  0  0  0  0  0  0  0  0  0  0  0
    5.1350    1.8100    0.0000 O   0  0  0  0  0  0  0  0  0  0  0  0
    4.2690   -0.6900    0.0000 O   0  0  0  0  0  0  0  0  0  0  0  0
    2.5369    0.3100    0.0000 O   0  0  0  0  0  0  0  0  0  0  0  0
    8.5991    1.8100    0.0000 O   0  0  0  0  0  0  0  0  0  0  0  0
    7.7331   -2.6900    0.0000 O   0  0  0  0  0  0  0  0  0  0  0  0
    6.0010   -2.6900    0.0000 O   0  0  0  0  0  0  0  0  0  0  0  0
    6.8671    1.8100    0.0000 N   0  0  0  0  0  0  0  0  0  0  0  0
    8.5991    0.8100    0.0000 N   0  0  0  0  0  0  0  0  0  0  0  0
   10.3312    0.8100    0.0000 N   0  0  0  0  0  0  0  0  0  0  0  0
    9.4651   -0.6900    0.0000 N   0  0  0  0  0  0  0  0  0  0  0  0
    6.0010    0.3100    0.0000 C   0  0  3  0  0  0  0  0  0  0  0  0
    6.8671    0.8100    0.0000 C   0  0  3  0  0  0  0  0  0  0  0  0
    5.1350    0.8100    0.0000 C   0  0  3  0  0  0  0  0  0  0  0  0
    7.7331    0.3100    0.0000 C   0  0  3  0  0  0  0  0  0  0  0  0
    4.2690    0.3100    0.0000 C   0  0  3  0  0  0  0  0  0  0  0  0
    7.7331   -0.6900    0.0000 C   0  0  0  0  0  0  0  0  0  0  0  0
    6.8671   -1.1900    0.0000 C   0  0  0  0  0  0  0  0  0  0  0  0
    3.4030    0.8100    0.0000 C   0  0  0  0  0  0  0  0  0  0  0  0
    7.7331    2.3100    0.0000 C   0  0  0  0  0  0  0  0  0  0  0  0
    6.8671   -2.1900    0.0000 C   0  0  0  0  0  0  0  0  0  0  0  0
    9.4651    0.3100    0.0000 C   0  0  0  0  0  0  0  0  0  0  0  0
    7.7331    3.3100    0.0000 C   0  0  0  0  0  0  0  0  0  0  0  0
    5.4641    0.0000    0.0000 H   0  0  0  0  0  0  0  0  0  0  0  0
    6.3301    1.1200    0.0000 H   0  0  0  0  0  0  0  0  0  0  0  0
    5.6720    1.1200    0.0000 H   0  0  0  0  0  0  0  0  0  0  0  0
    7.7331    0.9300    0.0000 H   0  0  0  0  0  0  0  0  0  0  0  0
    4.8059    0.0000    0.0000 H   0  0  0  0  0  0  0  0  0  0  0  0
    6.3301    2.1200    0.0000 H   0  0  0  0  0  0  0  0  0  0  0  0
    8.2700   -1.0000    0.0000 H   0  0  0  0  0  0  0  0  0  0  0  0
    3.8015    1.2850    0.0000 H   0  0  0  0  0  0  0  0  0  0  0  0
    3.0044    1.2850    0.0000 H   0  0  0  0  0  0  0  0  0  0  0  0
    4.5981    2.1200    0.0000 H   0  0  0  0  0  0  0  0  0  0  0  0
    3.7320   -1.0000    0.0000 H   0  0  0  0  0  0  0  0  0  0  0  0
    8.3531    3.3100    0.0000 H   0  0  0  0  0  0  0  0  0  0  0  0
    7.7331    3.9300    0.0000 H   0  0  0  0  0  0  0  0  0  0  0  0
    7.1131    3.3100    0.0000 H   0  0  0  0  0  0  0  0  0  0  0  0
    2.0000    0.6200    0.0000 H   0  0  0  0  0  0  0  0  0  0  0  0
   10.8681    0.5000    0.0000 H   0  0  0  0  0  0  0  0  0  0  0  0
   10.3312    1.4300    0.0000 H   0  0  0  0  0  0  0  0  0  0  0  0
   10.0021   -1.0000    0.0000 H   0  0  0  0  0  0  0  0  0  0  0  0
    8.9282   -1.0000    0.0000 H   0  0  0  0  0  0  0  0  0  0  0  0
    7.7331   -3.3100    0.0000 H   0  0  0  0  0  0  0  0  0  0  0  0
  1 12  1  0  0  0  0
  1 18  1  0  0  0  0
  2 14  1  0  0  0  0
  2 33  1  0  0  0  0
  3 16  1  0  0  0  0
  3 34  1  0  0  0  0
  4 19  1  0  0  0  0
  4 38  1  0  0  0  0
  5 20  2  0  0  0  0
  6 21  1  0  0  0  0
  6 43  1  0  0  0  0
  7 21  2  0  0  0  0
  8 13  1  0  0  0  0
  8 20  1  0  0  0  0
  8 29  1  0  0  0  0
  9 15  1  0  0  0  0
  9 22  2  0  0  0  0
 10 22  1  0  0  0  0
 10 39  1  0  0  0  0
 10 40  1  0  0  0  0
 11 22  1  0  0  0  0
 11 41  1  0  0  0  0
 11 42  1  0  0  0  0
 12 13  1  0  0  0  0
 12 14  1  0  0  0  0
 12 24  1  0  0  0  0
 13 15  1  0  0  0  0
 13 25  1  0  0  0  0
 14 16  1  0  0  0  0
 14 26  1  0  0  0  0
 15 17  1  0  0  0  0
 15 27  1  0  0  0  0
 16 19  1  0  0  0  0
 16 28  1  0  0  0  0
 17 18  2  0  0  0  0
 17 30  1  0  0  0  0
 18 21  1  0  0  0  0
 19 31  1  0  0  0  0
 19 32  1  0  0  0  0
 20 23  1  0  0  0  0
 23 35  1  0  0  0  0
 23 36  1  0  0  0  0
 23 37  1  0  0  0  0
M  END
> <PUBCHEM_COMPOUND_CID>
5721

> <PUBCHEM_COMPOUND_CANONICALIZED>
1

> <PUBCHEM_CACTVS_COMPLEXITY>
518

> <PUBCHEM_CACTVS_HBOND_ACCEPTOR>
8

> <PUBCHEM_CACTVS_HBOND_DONOR>
7

> <PUBCHEM_CACTVS_ROTATABLE_BOND>
6

> <PUBCHEM_CACTVS_SUBSKEYS>
AAADceBzuAAAAAAAAAAAAAAAAAAAAAAAAAAgAAAAAAAAAAAAAAAAHgAQCAAACDzhgAYDCALABgCoACHSPAKACAEgIAAACIBIAEgDVAIAgAQXUAAHlgCbEYPw0CMAAAAAAAAAAAAAAAAAAAAAAAAAAAAAAA==

> <PUBCHEM_IUPAC_OPENEYE_NAME>
3-acetamido-4-guanidino-2-(1,2,3-trihydroxypropyl)-3,4-dihydro-2H-pyran-6-carboxylic acid

> <PUBCHEM_IUPAC_CAS_NAME>
3-acetamido-4-(diaminomethylideneamino)-2-(1,2,3-trihydroxypropyl)-3,4-dihydro-2H-pyran-6-carboxylic acid

> <PUBCHEM_IUPAC_NAME>
3-acetamido-4-(diaminomethylideneamino)-2-(1,2,3-trihydroxypropyl)-3,4-dihydro-2H-pyran-6-carboxylic acid

> <PUBCHEM_IUPAC_SYSTEMATIC_NAME>
3-acetamido-4-[bis(azanyl)methylideneamino]-2-[1,2,3-tris(oxidanyl)propyl]-3,4-dihydro-2H-pyran-6-carboxylic acid

> <PUBCHEM_IUPAC_TRADITIONAL_NAME>
3-acetamido-4-guanidino-2-(1,2,3-trihydroxypropyl)-3,4-dihydro-2H-pyran-6-carboxylic acid

> <PUBCHEM_IUPAC_INCHI>
InChI=1S/C12H20N4O7/c1-4(18)15-8-5(16-12(13)14)2-7(11(21)22)23-10(8)9(20)6(19)3-17/h2,5-6,8-10,17,19-20H,3H2,1H3,(H,15,18)(H,21,22)(H4,13,14,16)

> <PUBCHEM_IUPAC_INCHIKEY>
ARAIBEBZBOPLMB-UHFFFAOYSA-N

> <PUBCHEM_XLOGP3_AA>
-3.2

> <PUBCHEM_EXACT_MASS>
332.133199

> <PUBCHEM_MOLECULAR_FORMULA>
C12H20N4O7

> <PUBCHEM_MOLECULAR_WEIGHT>
332.3098

> <PUBCHEM_OPENEYE_CAN_SMILES>
CC(=O)NC1C(C=C(OC1C(C(CO)O)O)C(=O)O)N=C(N)N

> <PUBCHEM_OPENEYE_ISO_SMILES>
CC(=O)NC1C(C=C(OC1C(C(CO)O)O)C(=O)O)N=C(N)N

> <PUBCHEM_CACTVS_TPSA>
201

> <PUBCHEM_MONOISOTOPIC_WEIGHT>
332.133199

> <PUBCHEM_TOTAL_CHARGE>
0

> <PUBCHEM_HEAVY_ATOM_COUNT>
23

> <PUBCHEM_ATOM_DEF_STEREO_COUNT>
0

> <PUBCHEM_ATOM_UDEF_STEREO_COUNT>
5

> <PUBCHEM_BOND_DEF_STEREO_COUNT>
0

> <PUBCHEM_BOND_UDEF_STEREO_COUNT>
0

> <PUBCHEM_ISOTOPIC_ATOM_COUNT>
0

> <PUBCHEM_COMPONENT_COUNT>
1

> <PUBCHEM_CACTVS_TAUTO_COUNT>
4

> <PUBCHEM_COORDINATE_TYPE>
1
5
255

> <PUBCHEM_BONDANNOTATIONS>
12  1  3
14  2  3
16  3  3
13  8  3
15  9  3

$$$$

