47205045
  -OEChem-06241222572D

 36 37  0     0  0  0  0  0  0999 V2000
    2.8660   -1.6012    0.0000 O   0  0  0  0  0  0  0  0  0  0  0  0
    3.7320    1.8988    0.0000 O   0  0  0  0  0  0  0  0  0  0  0  0
    5.4641    1.8988    0.0000 N   0  0  0  0  0  0  0  0  0  0  0  0
    7.2437    2.9920    0.0000 N   0  0  0  0  0  0  0  0  0  0  0  0
    7.9128    3.7352    0.0000 N   0  0  0  0  0  0  0  0  0  0  0  0
    3.7320   -0.1012    0.0000 C   0  0  0  0  0  0  0  0  0  0  0  0
    4.5981    0.3988    0.0000 C   0  0  0  0  0  0  0  0  0  0  0  0
    3.7320   -1.1012    0.0000 C   0  0  0  0  0  0  0  0  0  0  0  0
    4.5981    1.3988    0.0000 C   0  0  0  0  0  0  0  0  0  0  0  0
    5.4641    2.8988    0.0000 C   0  0  0  0  0  0  0  0  0  0  0  0
    6.3301    3.3988    0.0000 C   0  0  0  0  0  0  0  0  0  0  0  0
    2.8660   -2.6012    0.0000 C   0  0  0  0  0  0  0  0  0  0  0  0
    6.4347    4.3933    0.0000 C   0  0  0  0  0  0  0  0  0  0  0  0
    2.0000   -3.1012    0.0000 C   0  0  0  0  0  0  0  0  0  0  0  0
    3.7320   -3.1012    0.0000 C   0  0  0  0  0  0  0  0  0  0  0  0
    7.4128    4.6012    0.0000 C   0  0  0  0  0  0  0  0  0  0  0  0
    2.0000   -4.1012    0.0000 C   0  0  0  0  0  0  0  0  0  0  0  0
    3.7320   -4.1012    0.0000 C   0  0  0  0  0  0  0  0  0  0  0  0
    2.8660   -4.6012    0.0000 C   0  0  0  0  0  0  0  0  0  0  0  0
    3.5200    0.4814    0.0000 H   0  0  0  0  0  0  0  0  0  0  0  0
    3.1215   -0.2089    0.0000 H   0  0  0  0  0  0  0  0  0  0  0  0
    4.8101   -0.1838    0.0000 H   0  0  0  0  0  0  0  0  0  0  0  0
    5.2087    0.5064    0.0000 H   0  0  0  0  0  0  0  0  0  0  0  0
    3.9441   -1.6838    0.0000 H   0  0  0  0  0  0  0  0  0  0  0  0
    4.3426   -0.9936    0.0000 H   0  0  0  0  0  0  0  0  0  0  0  0
    5.2520    3.4814    0.0000 H   0  0  0  0  0  0  0  0  0  0  0  0
    4.8535    2.7911    0.0000 H   0  0  0  0  0  0  0  0  0  0  0  0
    6.0010    1.5888    0.0000 H   0  0  0  0  0  0  0  0  0  0  0  0
    5.9739    4.8082    0.0000 H   0  0  0  0  0  0  0  0  0  0  0  0
    7.3726    2.3856    0.0000 H   0  0  0  0  0  0  0  0  0  0  0  0
    1.4631   -2.7912    0.0000 H   0  0  0  0  0  0  0  0  0  0  0  0
    4.2690   -2.7912    0.0000 H   0  0  0  0  0  0  0  0  0  0  0  0
    7.6650    5.1676    0.0000 H   0  0  0  0  0  0  0  0  0  0  0  0
    1.4631   -4.4112    0.0000 H   0  0  0  0  0  0  0  0  0  0  0  0
    4.2690   -4.4112    0.0000 H   0  0  0  0  0  0  0  0  0  0  0  0
    2.8660   -5.2212    0.0000 H   0  0  0  0  0  0  0  0  0  0  0  0
  1  8  1  0  0  0  0
  1 12  1  0  0  0  0
  2  9  2  0  0  0  0
  3  9  1  0  0  0  0
  3 10  1  0  0  0  0
  3 28  1  0  0  0  0
  4  5  1  0  0  0  0
  4 11  1  0  0  0  0
  4 30  1  0  0  0  0
  5 16  2  0  0  0  0
  6  7  1  0  0  0  0
  6  8  1  0  0  0  0
  6 20  1  0  0  0  0
  6 21  1  0  0  0  0
  7  9  1  0  0  0  0
  7 22  1  0  0  0  0
  7 23  1  0  0  0  0
  8 24  1  0  0  0  0
  8 25  1  0  0  0  0
 10 11  1  0  0  0  0
 10 26  1  0  0  0  0
 10 27  1  0  0  0  0
 11 13  2  0  0  0  0
 12 14  2  0  0  0  0
 12 15  1  0  0  0  0
 13 16  1  0  0  0  0
 13 29  1  0  0  0  0
 14 17  1  0  0  0  0
 14 31  1  0  0  0  0
 15 18  2  0  0  0  0
 15 32  1  0  0  0  0
 16 33  1  0  0  0  0
 17 19  2  0  0  0  0
 17 34  1  0  0  0  0
 18 19  1  0  0  0  0
 18 35  1  0  0  0  0
 19 36  1  0  0  0  0
M  END
> <PUBCHEM_COMPOUND_CID>
47205045

> <PUBCHEM_COMPOUND_CANONICALIZED>
1

> <PUBCHEM_CACTVS_COMPLEXITY>
267

> <PUBCHEM_CACTVS_HBOND_ACCEPTOR>
3

> <PUBCHEM_CACTVS_HBOND_DONOR>
2

> <PUBCHEM_CACTVS_ROTATABLE_BOND>
7

> <PUBCHEM_CACTVS_SUBSKEYS>
AAADceBzMAAAAAAAAAAAAAAAAAAAAWAAAAAwAAAAAAAAAAABwAAAHgAYAAAACAzhlgY8hpLjBACqATV3UACSDAAgogAYuaE+bJgMZrKE8duWvCjk3hGI6AeiQAAAAAAAAAAAAAAAAAAAAAAAAAAAAAAAAA==

> <PUBCHEM_IUPAC_OPENEYE_NAME>
4-phenoxy-N-(1H-pyrazol-5-ylmethyl)butanamide

> <PUBCHEM_IUPAC_CAS_NAME>
4-phenoxy-N-(1H-pyrazol-5-ylmethyl)butanamide

> <PUBCHEM_IUPAC_NAME>
4-phenoxy-N-(1H-pyrazol-5-ylmethyl)butanamide

> <PUBCHEM_IUPAC_SYSTEMATIC_NAME>
4-phenoxy-N-(1H-pyrazol-5-ylmethyl)butanamide

> <PUBCHEM_IUPAC_TRADITIONAL_NAME>
4-phenoxy-N-(1H-pyrazol-5-ylmethyl)butyramide

> <PUBCHEM_IUPAC_INCHI>
InChI=1S/C14H17N3O2/c18-14(15-11-12-8-9-16-17-12)7-4-10-19-13-5-2-1-3-6-13/h1-3,5-6,8-9H,4,7,10-11H2,(H,15,18)(H,16,17)

> <PUBCHEM_IUPAC_INCHIKEY>
URFTXRMZCPTYDM-UHFFFAOYSA-N

> <PUBCHEM_XLOGP3_AA>
1.3

> <PUBCHEM_EXACT_MASS>
259.132077

> <PUBCHEM_MOLECULAR_FORMULA>
C14H17N3O2

> <PUBCHEM_MOLECULAR_WEIGHT>
259.30368

> <PUBCHEM_OPENEYE_CAN_SMILES>
C1=CC=C(C=C1)OCCCC(=O)NCC2=CC=NN2

> <PUBCHEM_OPENEYE_ISO_SMILES>
C1=CC=C(C=C1)OCCCC(=O)NCC2=CC=NN2

> <PUBCHEM_CACTVS_TPSA>
67

> <PUBCHEM_MONOISOTOPIC_WEIGHT>
259.132077

> <PUBCHEM_TOTAL_CHARGE>
0

> <PUBCHEM_HEAVY_ATOM_COUNT>
19

> <PUBCHEM_ATOM_DEF_STEREO_COUNT>
0

> <PUBCHEM_ATOM_UDEF_STEREO_COUNT>
0

> <PUBCHEM_BOND_DEF_STEREO_COUNT>
0

> <PUBCHEM_BOND_UDEF_STEREO_COUNT>
0

> <PUBCHEM_ISOTOPIC_ATOM_COUNT>
0

> <PUBCHEM_COMPONENT_COUNT>
1

> <PUBCHEM_CACTVS_TAUTO_COUNT>
4

> <PUBCHEM_COORDINATE_TYPE>
1
5
255

> <PUBCHEM_BONDANNOTATIONS>
11  13  8
12  14  8
12  15  8
13  16  8
14  17  8
15  18  8
17  19  8
18  19  8
4  11  8
4  5  8
5  16  8

$$$$

