17395338
  -OEChem-06241222492D

 43 45  0     0  0  0  0  0  0999 V2000
    3.4782   -4.3933    0.0000 S   0  0  0  0  0  0  0  0  0  0  0  0
    3.5827    1.6012    0.0000 O   0  0  0  0  0  0  0  0  0  0  0  0
    5.3147   -3.3988    0.0000 O   0  0  0  0  0  0  0  0  0  0  0  0
    4.4487   -1.8988    0.0000 N   0  0  0  0  0  0  0  0  0  0  0  0
    5.3147    1.6012    0.0000 N   0  0  0  0  0  0  0  0  0  0  0  0
    4.4487    0.1012    0.0000 C   0  0  0  0  0  0  0  0  0  0  0  0
    3.5827   -0.3988    0.0000 C   0  0  0  0  0  0  0  0  0  0  0  0
    5.3147   -0.3988    0.0000 C   0  0  0  0  0  0  0  0  0  0  0  0
    3.5827   -1.3988    0.0000 C   0  0  0  0  0  0  0  0  0  0  0  0
    5.3147   -1.3988    0.0000 C   0  0  0  0  0  0  0  0  0  0  0  0
    4.4487    1.1012    0.0000 C   0  0  0  0  0  0  0  0  0  0  0  0
    4.4487   -2.8988    0.0000 C   0  0  0  0  0  0  0  0  0  0  0  0
    3.5827   -3.3988    0.0000 C   0  0  0  0  0  0  0  0  0  0  0  0
    2.6691   -2.9920    0.0000 C   0  0  0  0  0  0  0  0  0  0  0  0
    5.3147    2.6012    0.0000 C   0  0  0  0  0  0  0  0  0  0  0  0
    2.0000   -3.7352    0.0000 C   0  0  0  0  0  0  0  0  0  0  0  0
    2.4612   -2.0139    0.0000 C   0  0  0  0  0  0  0  0  0  0  0  0
    2.5000   -4.6012    0.0000 C   0  0  0  0  0  0  0  0  0  0  0  0
    6.1808    3.1012    0.0000 C   0  0  0  0  0  0  0  0  0  0  0  0
    4.4487    3.1012    0.0000 C   0  0  0  0  0  0  0  0  0  0  0  0
    6.1808    4.1012    0.0000 C   0  0  0  0  0  0  0  0  0  0  0  0
    4.4487    4.1012    0.0000 C   0  0  0  0  0  0  0  0  0  0  0  0
    5.3147    4.6012    0.0000 C   0  0  0  0  0  0  0  0  0  0  0  0
    3.9118    0.4112    0.0000 H   0  0  0  0  0  0  0  0  0  0  0  0
    5.9253   -0.5064    0.0000 H   0  0  0  0  0  0  0  0  0  0  0  0
    5.5268    0.1838    0.0000 H   0  0  0  0  0  0  0  0  0  0  0  0
    3.3706    0.1838    0.0000 H   0  0  0  0  0  0  0  0  0  0  0  0
    2.9721   -0.5064    0.0000 H   0  0  0  0  0  0  0  0  0  0  0  0
    5.5268   -1.9814    0.0000 H   0  0  0  0  0  0  0  0  0  0  0  0
    5.9253   -1.2911    0.0000 H   0  0  0  0  0  0  0  0  0  0  0  0
    2.9721   -1.2911    0.0000 H   0  0  0  0  0  0  0  0  0  0  0  0
    3.3706   -1.9814    0.0000 H   0  0  0  0  0  0  0  0  0  0  0  0
    5.8517    1.2912    0.0000 H   0  0  0  0  0  0  0  0  0  0  0  0
    1.3834   -3.6704    0.0000 H   0  0  0  0  0  0  0  0  0  0  0  0
    3.0677   -1.8850    0.0000 H   0  0  0  0  0  0  0  0  0  0  0  0
    2.3323   -1.4074    0.0000 H   0  0  0  0  0  0  0  0  0  0  0  0
    1.8548   -2.1428    0.0000 H   0  0  0  0  0  0  0  0  0  0  0  0
    2.2478   -5.1676    0.0000 H   0  0  0  0  0  0  0  0  0  0  0  0
    6.7177    2.7912    0.0000 H   0  0  0  0  0  0  0  0  0  0  0  0
    3.9118    2.7912    0.0000 H   0  0  0  0  0  0  0  0  0  0  0  0
    6.7177    4.4112    0.0000 H   0  0  0  0  0  0  0  0  0  0  0  0
    3.9118    4.4112    0.0000 H   0  0  0  0  0  0  0  0  0  0  0  0
    5.3147    5.2212    0.0000 H   0  0  0  0  0  0  0  0  0  0  0  0
  1 13  1  0  0  0  0
  1 18  1  0  0  0  0
  2 11  2  0  0  0  0
  3 12  2  0  0  0  0
  4  9  1  0  0  0  0
  4 10  1  0  0  0  0
  4 12  1  0  0  0  0
  5 11  1  0  0  0  0
  5 15  1  0  0  0  0
  5 33  1  0  0  0  0
  6  7  1  0  0  0  0
  6  8  1  0  0  0  0
  6 11  1  0  0  0  0
  6 24  1  0  0  0  0
  7  9  1  0  0  0  0
  7 27  1  0  0  0  0
  7 28  1  0  0  0  0
  8 10  1  0  0  0  0
  8 25  1  0  0  0  0
  8 26  1  0  0  0  0
  9 31  1  0  0  0  0
  9 32  1  0  0  0  0
 10 29  1  0  0  0  0
 10 30  1  0  0  0  0
 12 13  1  0  0  0  0
 13 14  2  0  0  0  0
 14 16  1  0  0  0  0
 14 17  1  0  0  0  0
 15 19  2  0  0  0  0
 15 20  1  0  0  0  0
 16 18  2  0  0  0  0
 16 34  1  0  0  0  0
 17 35  1  0  0  0  0
 17 36  1  0  0  0  0
 17 37  1  0  0  0  0
 18 38  1  0  0  0  0
 19 21  1  0  0  0  0
 19 39  1  0  0  0  0
 20 22  2  0  0  0  0
 20 40  1  0  0  0  0
 21 23  2  0  0  0  0
 21 41  1  0  0  0  0
 22 23  1  0  0  0  0
 22 42  1  0  0  0  0
 23 43  1  0  0  0  0
M  END
> <PUBCHEM_COMPOUND_CID>
17395338

> <PUBCHEM_COMPOUND_CANONICALIZED>
1

> <PUBCHEM_CACTVS_COMPLEXITY>
429

> <PUBCHEM_CACTVS_HBOND_ACCEPTOR>
3

> <PUBCHEM_CACTVS_HBOND_DONOR>
1

> <PUBCHEM_CACTVS_ROTATABLE_BOND>
3

> <PUBCHEM_CACTVS_SUBSKEYS>
AAADceB7MABAAAAAAAAAAAAAAAAAASAAAAA8QAAAAAAAAAABwAAAHgQQAAAADQjF2ASywYPAAAiMAiVSUACDAIAlChBIiBkIZMgIIDLglZGEIQhglgDoyQccAAAKAAAAAAAAAAAAAAAAAAAAAAAAAAAAAA==

> <PUBCHEM_IUPAC_OPENEYE_NAME>
1-(3-methylthiophene-2-carbonyl)-N-phenyl-piperidine-4-carboxamide

> <PUBCHEM_IUPAC_CAS_NAME>
1-[(3-methyl-2-thiophenyl)-oxomethyl]-N-phenyl-4-piperidinecarboxamide

> <PUBCHEM_IUPAC_NAME>
1-(3-methylthiophene-2-carbonyl)-N-phenylpiperidine-4-carboxamide

> <PUBCHEM_IUPAC_SYSTEMATIC_NAME>
1-(3-methylthiophen-2-yl)carbonyl-N-phenyl-piperidine-4-carboxamide

> <PUBCHEM_IUPAC_TRADITIONAL_NAME>
1-(3-methylthiophene-2-carbonyl)-N-phenyl-isonipecotamide

> <PUBCHEM_IUPAC_INCHI>
InChI=1S/C18H20N2O2S/c1-13-9-12-23-16(13)18(22)20-10-7-14(8-11-20)17(21)19-15-5-3-2-4-6-15/h2-6,9,12,14H,7-8,10-11H2,1H3,(H,19,21)

> <PUBCHEM_IUPAC_INCHIKEY>
JQFQWGNMHCFCIZ-UHFFFAOYSA-N

> <PUBCHEM_XLOGP3_AA>
3.1

> <PUBCHEM_EXACT_MASS>
328.124549

> <PUBCHEM_MOLECULAR_FORMULA>
C18H20N2O2S

> <PUBCHEM_MOLECULAR_WEIGHT>
328.4286

> <PUBCHEM_OPENEYE_CAN_SMILES>
CC1=C(SC=C1)C(=O)N2CCC(CC2)C(=O)NC3=CC=CC=C3

> <PUBCHEM_OPENEYE_ISO_SMILES>
CC1=C(SC=C1)C(=O)N2CCC(CC2)C(=O)NC3=CC=CC=C3

> <PUBCHEM_CACTVS_TPSA>
77.6

> <PUBCHEM_MONOISOTOPIC_WEIGHT>
328.124549

> <PUBCHEM_TOTAL_CHARGE>
0

> <PUBCHEM_HEAVY_ATOM_COUNT>
23

> <PUBCHEM_ATOM_DEF_STEREO_COUNT>
0

> <PUBCHEM_ATOM_UDEF_STEREO_COUNT>
0

> <PUBCHEM_BOND_DEF_STEREO_COUNT>
0

> <PUBCHEM_BOND_UDEF_STEREO_COUNT>
0

> <PUBCHEM_ISOTOPIC_ATOM_COUNT>
0

> <PUBCHEM_COMPONENT_COUNT>
1

> <PUBCHEM_CACTVS_TAUTO_COUNT>
3

> <PUBCHEM_COORDINATE_TYPE>
1
5
255

> <PUBCHEM_BONDANNOTATIONS>
1  13  8
1  18  8
13  14  8
14  16  8
15  19  8
15  20  8
16  18  8
19  21  8
20  22  8
21  23  8
22  23  8

$$$$

