582867
  -OEChem-06241222442D

 46 45  0     0  0  0  0  0  0999 V2000
    2.8660   -0.2500    0.0000 Si  0  0  0  0  0  0  0  0  0  0  0  0
    7.1962    0.2500    0.0000 Si  0  0  0  0  0  0  0  0  0  0  0  0
    3.7320   -0.7500    0.0000 O   0  0  0  0  0  0  0  0  0  0  0  0
    6.3301    0.7500    0.0000 O   0  0  0  0  0  0  0  0  0  0  0  0
    4.5981   -0.2500    0.0000 C   0  0  0  0  0  0  0  0  0  0  0  0
    5.4641    0.2500    0.0000 C   0  0  0  0  0  0  0  0  0  0  0  0
    4.0981    0.6160    0.0000 C   0  0  0  0  0  0  0  0  0  0  0  0
    5.0981   -1.1160    0.0000 C   0  0  0  0  0  0  0  0  0  0  0  0
    5.9641   -0.6160    0.0000 C   0  0  0  0  0  0  0  0  0  0  0  0
    4.9641    1.1160    0.0000 C   0  0  0  0  0  0  0  0  0  0  0  0
    2.0000    0.2500    0.0000 C   0  0  0  0  0  0  0  0  0  0  0  0
    2.3660   -1.1160    0.0000 C   0  0  0  0  0  0  0  0  0  0  0  0
    3.3660    0.6160    0.0000 C   0  0  0  0  0  0  0  0  0  0  0  0
    8.0622   -0.2500    0.0000 C   0  0  0  0  0  0  0  0  0  0  0  0
    7.6962    1.1160    0.0000 C   0  0  0  0  0  0  0  0  0  0  0  0
    6.6962   -0.6160    0.0000 C   0  0  0  0  0  0  0  0  0  0  0  0
    4.6350    0.9260    0.0000 H   0  0  0  0  0  0  0  0  0  0  0  0
    3.7881    1.1530    0.0000 H   0  0  0  0  0  0  0  0  0  0  0  0
    3.5611    0.3060    0.0000 H   0  0  0  0  0  0  0  0  0  0  0  0
    4.5611   -1.4260    0.0000 H   0  0  0  0  0  0  0  0  0  0  0  0
    5.4081   -1.6530    0.0000 H   0  0  0  0  0  0  0  0  0  0  0  0
    5.6350   -0.8060    0.0000 H   0  0  0  0  0  0  0  0  0  0  0  0
    5.4272   -0.9260    0.0000 H   0  0  0  0  0  0  0  0  0  0  0  0
    6.2741   -1.1530    0.0000 H   0  0  0  0  0  0  0  0  0  0  0  0
    6.5010   -0.3060    0.0000 H   0  0  0  0  0  0  0  0  0  0  0  0
    5.5010    1.4260    0.0000 H   0  0  0  0  0  0  0  0  0  0  0  0
    4.6541    1.6530    0.0000 H   0  0  0  0  0  0  0  0  0  0  0  0
    4.4272    0.8060    0.0000 H   0  0  0  0  0  0  0  0  0  0  0  0
    8.2331    0.8060    0.0000 H   0  0  0  0  0  0  0  0  0  0  0  0
    8.0062    1.6530    0.0000 H   0  0  0  0  0  0  0  0  0  0  0  0
    7.1592    1.4260    0.0000 H   0  0  0  0  0  0  0  0  0  0  0  0
    7.7522   -0.7869    0.0000 H   0  0  0  0  0  0  0  0  0  0  0  0
    8.5991   -0.5600    0.0000 H   0  0  0  0  0  0  0  0  0  0  0  0
    8.3722    0.2869    0.0000 H   0  0  0  0  0  0  0  0  0  0  0  0
    3.9030    0.3060    0.0000 H   0  0  0  0  0  0  0  0  0  0  0  0
    3.6760    1.1530    0.0000 H   0  0  0  0  0  0  0  0  0  0  0  0
    2.8291    0.9260    0.0000 H   0  0  0  0  0  0  0  0  0  0  0  0
    1.8291   -0.8060    0.0000 H   0  0  0  0  0  0  0  0  0  0  0  0
    2.0560   -1.6530    0.0000 H   0  0  0  0  0  0  0  0  0  0  0  0
    2.9030   -1.4260    0.0000 H   0  0  0  0  0  0  0  0  0  0  0  0
    2.3100    0.7869    0.0000 H   0  0  0  0  0  0  0  0  0  0  0  0
    1.4631    0.5600    0.0000 H   0  0  0  0  0  0  0  0  0  0  0  0
    1.6900   -0.2869    0.0000 H   0  0  0  0  0  0  0  0  0  0  0  0
    6.1592   -0.3060    0.0000 H   0  0  0  0  0  0  0  0  0  0  0  0
    6.3862   -1.1530    0.0000 H   0  0  0  0  0  0  0  0  0  0  0  0
    7.2331   -0.9260    0.0000 H   0  0  0  0  0  0  0  0  0  0  0  0
  1  3  1  0  0  0  0
  1 11  1  0  0  0  0
  1 12  1  0  0  0  0
  1 13  1  0  0  0  0
  2  4  1  0  0  0  0
  2 14  1  0  0  0  0
  2 15  1  0  0  0  0
  2 16  1  0  0  0  0
  3  5  1  0  0  0  0
  4  6  1  0  0  0  0
  5  6  1  0  0  0  0
  5  7  1  0  0  0  0
  5  8  1  0  0  0  0
  6  9  1  0  0  0  0
  6 10  1  0  0  0  0
  7 17  1  0  0  0  0
  7 18  1  0  0  0  0
  7 19  1  0  0  0  0
  8 20  1  0  0  0  0
  8 21  1  0  0  0  0
  8 22  1  0  0  0  0
  9 23  1  0  0  0  0
  9 24  1  0  0  0  0
  9 25  1  0  0  0  0
 10 26  1  0  0  0  0
 10 27  1  0  0  0  0
 10 28  1  0  0  0  0
 11 41  1  0  0  0  0
 11 42  1  0  0  0  0
 11 43  1  0  0  0  0
 12 38  1  0  0  0  0
 12 39  1  0  0  0  0
 12 40  1  0  0  0  0
 13 35  1  0  0  0  0
 13 36  1  0  0  0  0
 13 37  1  0  0  0  0
 14 32  1  0  0  0  0
 14 33  1  0  0  0  0
 14 34  1  0  0  0  0
 15 29  1  0  0  0  0
 15 30  1  0  0  0  0
 15 31  1  0  0  0  0
 16 44  1  0  0  0  0
 16 45  1  0  0  0  0
 16 46  1  0  0  0  0
M  END
> <PUBCHEM_COMPOUND_CID>
582867

> <PUBCHEM_COMPOUND_CANONICALIZED>
1

> <PUBCHEM_CACTVS_COMPLEXITY>
208

> <PUBCHEM_CACTVS_HBOND_ACCEPTOR>
2

> <PUBCHEM_CACTVS_HBOND_DONOR>
0

> <PUBCHEM_CACTVS_ROTATABLE_BOND>
5

> <PUBCHEM_CACTVS_SUBSKEYS>
AAADceBwMAwAAAAAAAAAAAAAAAAAAAAAAAAAAAAAAAAAAAAAAAAAGhAAAEAADESAgABCAAAAAAEAAAAAAAAAAAAAAAAAAAAAAAABAAAAAAAAAAAAAAAAAAAAAAAIgAAAAAAAAAAAAAAAAAAAAAAAAAAAAA==

> <PUBCHEM_IUPAC_OPENEYE_NAME>
trimethyl-(1,1,2-trimethyl-2-trimethylsilyloxy-propoxy)silane

> <PUBCHEM_IUPAC_CAS_NAME>
(2,3-dimethyl-3-trimethylsilyloxybutan-2-yl)oxy-trimethylsilane

> <PUBCHEM_IUPAC_NAME>
(2,3-dimethyl-3-trimethylsilyloxybutan-2-yl)oxy-trimethylsilane

> <PUBCHEM_IUPAC_SYSTEMATIC_NAME>
(2,3-dimethyl-3-trimethylsilyloxy-butan-2-yl)oxy-trimethyl-silane

> <PUBCHEM_IUPAC_TRADITIONAL_NAME>
trimethyl-(1,1,2-trimethyl-2-trimethylsilyloxy-propoxy)silane

> <PUBCHEM_IUPAC_INCHI>
InChI=1S/C12H30O2Si2/c1-11(2,13-15(5,6)7)12(3,4)14-16(8,9)10/h1-10H3

> <PUBCHEM_IUPAC_INCHIKEY>
CCLNFALQCLEMAL-UHFFFAOYSA-N

> <PUBCHEM_EXACT_MASS>
262.178433

> <PUBCHEM_MOLECULAR_FORMULA>
C12H30O2Si2

> <PUBCHEM_MOLECULAR_WEIGHT>
262.5364

> <PUBCHEM_OPENEYE_CAN_SMILES>
CC(C)(C(C)(C)O[Si](C)(C)C)O[Si](C)(C)C

> <PUBCHEM_OPENEYE_ISO_SMILES>
CC(C)(C(C)(C)O[Si](C)(C)C)O[Si](C)(C)C

> <PUBCHEM_CACTVS_TPSA>
18.5

> <PUBCHEM_MONOISOTOPIC_WEIGHT>
262.178433

> <PUBCHEM_TOTAL_CHARGE>
0

> <PUBCHEM_HEAVY_ATOM_COUNT>
16

> <PUBCHEM_ATOM_DEF_STEREO_COUNT>
0

> <PUBCHEM_ATOM_UDEF_STEREO_COUNT>
0

> <PUBCHEM_BOND_DEF_STEREO_COUNT>
0

> <PUBCHEM_BOND_UDEF_STEREO_COUNT>
0

> <PUBCHEM_ISOTOPIC_ATOM_COUNT>
0

> <PUBCHEM_COMPONENT_COUNT>
1

> <PUBCHEM_CACTVS_TAUTO_COUNT>
1

> <PUBCHEM_COORDINATE_TYPE>
1
5
255

$$$$

