17395813
  -OEChem-06241222522D

 41 42  0     1  0  0  0  0  0999 V2000
    4.5981   -0.4239    0.0000 O   0  0  0  0  0  0  0  0  0  0  0  0
    2.8660   -1.4239    0.0000 O   0  0  0  0  0  0  0  0  0  0  0  0
    4.5981    1.5761    0.0000 O   0  0  0  0  0  0  0  0  0  0  0  0
    5.8301    4.1149    0.0000 O   0  0  0  0  0  0  0  0  0  0  0  0
    3.7320   -4.9239    0.0000 O   0  0  0  0  0  0  0  0  0  0  0  0
    6.3301    1.5761    0.0000 N   0  0  0  0  0  0  0  0  0  0  0  0
    5.5211    3.1639    0.0000 N   0  0  0  0  0  0  0  0  0  0  0  0
    5.4641    0.0761    0.0000 C   0  0  3  0  0  0  0  0  0  0  0  0
    4.5981   -1.4239    0.0000 C   0  0  0  0  0  0  0  0  0  0  0  0
    5.4641    1.0761    0.0000 C   0  0  0  0  0  0  0  0  0  0  0  0
    3.7320   -1.9239    0.0000 C   0  0  0  0  0  0  0  0  0  0  0  0
    6.3301   -0.4239    0.0000 C   0  0  0  0  0  0  0  0  0  0  0  0
    4.5981   -3.4239    0.0000 C   0  0  0  0  0  0  0  0  0  0  0  0
    5.4641   -1.9239    0.0000 C   0  0  0  0  0  0  0  0  0  0  0  0
    3.7320   -2.9239    0.0000 C   0  0  0  0  0  0  0  0  0  0  0  0
    5.4641   -2.9239    0.0000 C   0  0  0  0  0  0  0  0  0  0  0  0
    6.3301    2.5761    0.0000 C   0  0  0  0  0  0  0  0  0  0  0  0
    4.5981   -4.4239    0.0000 C   0  0  0  0  0  0  0  0  0  0  0  0
    7.1391    3.1639    0.0000 C   0  0  0  0  0  0  0  0  0  0  0  0
    6.8301    4.1149    0.0000 C   0  0  0  0  0  0  0  0  0  0  0  0
    5.4641   -4.9239    0.0000 C   0  0  0  0  0  0  0  0  0  0  0  0
    7.4179    4.9239    0.0000 C   0  0  0  0  0  0  0  0  0  0  0  0
    2.0000   -1.9239    0.0000 C   0  0  0  0  0  0  0  0  0  0  0  0
    5.4641   -0.5439    0.0000 H   0  0  0  0  0  0  0  0  0  0  0  0
    6.0201   -0.9609    0.0000 H   0  0  0  0  0  0  0  0  0  0  0  0
    6.8671   -0.7339    0.0000 H   0  0  0  0  0  0  0  0  0  0  0  0
    6.6401    0.1130    0.0000 H   0  0  0  0  0  0  0  0  0  0  0  0
    6.0010   -1.6139    0.0000 H   0  0  0  0  0  0  0  0  0  0  0  0
    3.1951   -3.2339    0.0000 H   0  0  0  0  0  0  0  0  0  0  0  0
    6.0010   -3.2339    0.0000 H   0  0  0  0  0  0  0  0  0  0  0  0
    6.8671    1.2661    0.0000 H   0  0  0  0  0  0  0  0  0  0  0  0
    7.7288    2.9723    0.0000 H   0  0  0  0  0  0  0  0  0  0  0  0
    5.1541   -5.4609    0.0000 H   0  0  0  0  0  0  0  0  0  0  0  0
    6.0010   -5.2339    0.0000 H   0  0  0  0  0  0  0  0  0  0  0  0
    5.7741   -4.3870    0.0000 H   0  0  0  0  0  0  0  0  0  0  0  0
    7.9195    4.5595    0.0000 H   0  0  0  0  0  0  0  0  0  0  0  0
    7.7823    5.4255    0.0000 H   0  0  0  0  0  0  0  0  0  0  0  0
    6.9163    5.2884    0.0000 H   0  0  0  0  0  0  0  0  0  0  0  0
    1.6900   -1.3870    0.0000 H   0  0  0  0  0  0  0  0  0  0  0  0
    1.4631   -2.2339    0.0000 H   0  0  0  0  0  0  0  0  0  0  0  0
    2.3100   -2.4609    0.0000 H   0  0  0  0  0  0  0  0  0  0  0  0
  1  8  1  0  0  0  0
  1  9  1  0  0  0  0
  2 11  1  0  0  0  0
  2 23  1  0  0  0  0
  3 10  2  0  0  0  0
  4  7  1  0  0  0  0
  4 20  1  0  0  0  0
  5 18  2  0  0  0  0
  6 10  1  0  0  0  0
  6 17  1  0  0  0  0
  6 31  1  0  0  0  0
  7 17  2  0  0  0  0
  8 10  1  0  0  0  0
  8 12  1  0  0  0  0
  8 24  1  0  0  0  0
  9 11  2  0  0  0  0
  9 14  1  0  0  0  0
 11 15  1  0  0  0  0
 12 25  1  0  0  0  0
 12 26  1  0  0  0  0
 12 27  1  0  0  0  0
 13 15  2  0  0  0  0
 13 16  1  0  0  0  0
 13 18  1  0  0  0  0
 14 16  2  0  0  0  0
 14 28  1  0  0  0  0
 15 29  1  0  0  0  0
 16 30  1  0  0  0  0
 17 19  1  0  0  0  0
 18 21  1  0  0  0  0
 19 20  2  0  0  0  0
 19 32  1  0  0  0  0
 20 22  1  0  0  0  0
 21 33  1  0  0  0  0
 21 34  1  0  0  0  0
 21 35  1  0  0  0  0
 22 36  1  0  0  0  0
 22 37  1  0  0  0  0
 22 38  1  0  0  0  0
 23 39  1  0  0  0  0
 23 40  1  0  0  0  0
 23 41  1  0  0  0  0
M  END
> <PUBCHEM_COMPOUND_CID>
17395813

> <PUBCHEM_COMPOUND_CANONICALIZED>
1

> <PUBCHEM_CACTVS_COMPLEXITY>
431

> <PUBCHEM_CACTVS_HBOND_ACCEPTOR>
6

> <PUBCHEM_CACTVS_HBOND_DONOR>
1

> <PUBCHEM_CACTVS_ROTATABLE_BOND>
6

> <PUBCHEM_CACTVS_SUBSKEYS>
AAADceB7OAAAAAAAAAAAAAAAAAAAAWAAAAAwAAAAAAAAAAABwAAAHgAUAAAADBShmgIztpLQBACpAqNycgKCCAAlIgApmCF27NqPJjrEvZ6HOarm1Rva6ceKzLDOIAABAAAAQABAAAIAAACAAAAAAAAAAA==

> <PUBCHEM_IUPAC_OPENEYE_NAME>
2-(4-acetyl-2-methoxy-phenoxy)-N-(5-methylisoxazol-3-yl)propanamide

> <PUBCHEM_IUPAC_CAS_NAME>
2-(4-acetyl-2-methoxyphenoxy)-N-(5-methyl-3-isoxazolyl)propanamide

> <PUBCHEM_IUPAC_NAME>
2-(4-acetyl-2-methoxyphenoxy)-N-(5-methyl-1,2-oxazol-3-yl)propanamide

> <PUBCHEM_IUPAC_SYSTEMATIC_NAME>
2-(4-ethanoyl-2-methoxy-phenoxy)-N-(5-methyl-1,2-oxazol-3-yl)propanamide

> <PUBCHEM_IUPAC_TRADITIONAL_NAME>
2-(4-acetyl-2-methoxy-phenoxy)-N-(5-methylisoxazol-3-yl)propionamide

> <PUBCHEM_IUPAC_INCHI>
InChI=1S/C16H18N2O5/c1-9-7-15(18-23-9)17-16(20)11(3)22-13-6-5-12(10(2)19)8-14(13)21-4/h5-8,11H,1-4H3,(H,17,18,20)

> <PUBCHEM_IUPAC_INCHIKEY>
CYENJSSPBWATLQ-UHFFFAOYSA-N

> <PUBCHEM_XLOGP3_AA>
2

> <PUBCHEM_EXACT_MASS>
318.121572

> <PUBCHEM_MOLECULAR_FORMULA>
C16H18N2O5

> <PUBCHEM_MOLECULAR_WEIGHT>
318.32452

> <PUBCHEM_OPENEYE_CAN_SMILES>
CC1=CC(=NO1)NC(=O)C(C)OC2=C(C=C(C=C2)C(=O)C)OC

> <PUBCHEM_OPENEYE_ISO_SMILES>
CC1=CC(=NO1)NC(=O)C(C)OC2=C(C=C(C=C2)C(=O)C)OC

> <PUBCHEM_CACTVS_TPSA>
90.7

> <PUBCHEM_MONOISOTOPIC_WEIGHT>
318.121572

> <PUBCHEM_TOTAL_CHARGE>
0

> <PUBCHEM_HEAVY_ATOM_COUNT>
23

> <PUBCHEM_ATOM_DEF_STEREO_COUNT>
0

> <PUBCHEM_ATOM_UDEF_STEREO_COUNT>
1

> <PUBCHEM_BOND_DEF_STEREO_COUNT>
0

> <PUBCHEM_BOND_UDEF_STEREO_COUNT>
0

> <PUBCHEM_ISOTOPIC_ATOM_COUNT>
0

> <PUBCHEM_COMPONENT_COUNT>
1

> <PUBCHEM_CACTVS_TAUTO_COUNT>
20

> <PUBCHEM_COORDINATE_TYPE>
1
5
255

> <PUBCHEM_BONDANNOTATIONS>
11  15  8
13  15  8
13  16  8
14  16  8
17  19  8
19  20  8
4  20  8
4  7  8
7  17  8
8  12  3
9  11  8
9  14  8

$$$$

