854336
  -OEChem-06241222482D

 30 31  0     1  0  0  0  0  0999 V2000
    5.0780    0.9563    0.0000 S   0  0  0  0  0  0  0  0  0  0  0  0
    3.5879    3.6299    0.0000 O   0  0  0  0  0  0  0  0  0  0  0  0
    2.1867    2.6118    0.0000 O   0  0  0  0  0  0  0  0  0  0  0  0
    4.2690   -3.6315    0.0000 O   0  0  0  0  0  0  0  0  0  0  0  0
    2.5369   -2.6315    0.0000 O   0  0  0  0  0  0  0  0  0  0  0  0
    3.4600    0.9563    0.0000 N   0  0  0  0  0  0  0  0  0  0  0  0
    4.2690    0.3685    0.0000 C   0  0  2  0  0  0  0  0  0  0  0  0
    3.7690    1.9073    0.0000 C   0  0  1  0  0  0  0  0  0  0  0  0
    4.7690    1.9073    0.0000 C   0  0  0  0  0  0  0  0  0  0  0  0
    4.2690   -0.6315    0.0000 C   0  0  0  0  0  0  0  0  0  0  0  0
    3.1812    2.7164    0.0000 C   0  0  0  0  0  0  0  0  0  0  0  0
    3.4030   -1.1315    0.0000 C   0  0  0  0  0  0  0  0  0  0  0  0
    5.1350   -1.1315    0.0000 C   0  0  0  0  0  0  0  0  0  0  0  0
    3.4030   -2.1315    0.0000 C   0  0  0  0  0  0  0  0  0  0  0  0
    5.1350   -2.1315    0.0000 C   0  0  0  0  0  0  0  0  0  0  0  0
    4.2690   -2.6315    0.0000 C   0  0  0  0  0  0  0  0  0  0  0  0
    5.1350   -4.1315    0.0000 C   0  0  0  0  0  0  0  0  0  0  0  0
    4.8214    0.0870    0.0000 H   0  0  0  0  0  0  0  0  0  0  0  0
    3.1566    1.8104    0.0000 H   0  0  0  0  0  0  0  0  0  0  0  0
    5.3754    2.0362    0.0000 H   0  0  0  0  0  0  0  0  0  0  0  0
    4.7042    2.5240    0.0000 H   0  0  0  0  0  0  0  0  0  0  0  0
    2.8703    0.7647    0.0000 H   0  0  0  0  0  0  0  0  0  0  0  0
    2.8660   -0.8215    0.0000 H   0  0  0  0  0  0  0  0  0  0  0  0
    5.6720   -0.8215    0.0000 H   0  0  0  0  0  0  0  0  0  0  0  0
    5.6720   -2.4415    0.0000 H   0  0  0  0  0  0  0  0  0  0  0  0
    3.2235    4.1315    0.0000 H   0  0  0  0  0  0  0  0  0  0  0  0
    2.0000   -2.3215    0.0000 H   0  0  0  0  0  0  0  0  0  0  0  0
    4.8250   -4.6684    0.0000 H   0  0  0  0  0  0  0  0  0  0  0  0
    5.6720   -4.4415    0.0000 H   0  0  0  0  0  0  0  0  0  0  0  0
    5.4450   -3.5946    0.0000 H   0  0  0  0  0  0  0  0  0  0  0  0
  1  7  1  0  0  0  0
  1  9  1  0  0  0  0
  2 11  1  0  0  0  0
  2 26  1  0  0  0  0
  3 11  2  0  0  0  0
  4 16  1  0  0  0  0
  4 17  1  0  0  0  0
  5 14  1  0  0  0  0
  5 27  1  0  0  0  0
  6  7  1  0  0  0  0
  6  8  1  0  0  0  0
  6 22  1  0  0  0  0
  7 10  1  1  0  0  0
  7 18  1  0  0  0  0
  8  9  1  0  0  0  0
  8 11  1  6  0  0  0
  8 19  1  0  0  0  0
  9 20  1  0  0  0  0
  9 21  1  0  0  0  0
 10 12  2  0  0  0  0
 10 13  1  0  0  0  0
 12 14  1  0  0  0  0
 12 23  1  0  0  0  0
 13 15  2  0  0  0  0
 13 24  1  0  0  0  0
 14 16  2  0  0  0  0
 15 16  1  0  0  0  0
 15 25  1  0  0  0  0
 17 28  1  0  0  0  0
 17 29  1  0  0  0  0
 17 30  1  0  0  0  0
M  END
> <PUBCHEM_COMPOUND_CID>
854336

> <PUBCHEM_COMPOUND_CANONICALIZED>
1

> <PUBCHEM_CACTVS_COMPLEXITY>
289

> <PUBCHEM_CACTVS_HBOND_ACCEPTOR>
6

> <PUBCHEM_CACTVS_HBOND_DONOR>
3

> <PUBCHEM_CACTVS_ROTATABLE_BOND>
3

> <PUBCHEM_CACTVS_SUBSKEYS>
AAADccByOABAAAAAAAAAAAAAAAAAAWAAAAAwAAAAAAAAAAABAAAAHgQQCAAADCzF2AayDoLABgiIAiDSCACCCABgIBAIiIGOjIgPJiKmsTuEcCtk0BG7uAew0BIOIAABAAAAQABAAAIAAACAAAAAAAAAAA==

> <PUBCHEM_IUPAC_OPENEYE_NAME>
(2S,4R)-2-(3-hydroxy-4-methoxy-phenyl)thiazolidine-4-carboxylic acid

> <PUBCHEM_IUPAC_CAS_NAME>
(2S,4R)-2-(3-hydroxy-4-methoxyphenyl)-4-thiazolidinecarboxylic acid

> <PUBCHEM_IUPAC_NAME>
(2S,4R)-2-(3-hydroxy-4-methoxyphenyl)-1,3-thiazolidine-4-carboxylic acid

> <PUBCHEM_IUPAC_SYSTEMATIC_NAME>
(2S,4R)-2-(4-methoxy-3-oxidanyl-phenyl)-1,3-thiazolidine-4-carboxylic acid

> <PUBCHEM_IUPAC_TRADITIONAL_NAME>
(2S,4R)-2-(3-hydroxy-4-methoxy-phenyl)thiazolidine-4-carboxylic acid

> <PUBCHEM_IUPAC_INCHI>
InChI=1S/C11H13NO4S/c1-16-9-3-2-6(4-8(9)13)10-12-7(5-17-10)11(14)15/h2-4,7,10,12-13H,5H2,1H3,(H,14,15)/t7-,10-/m0/s1

> <PUBCHEM_IUPAC_INCHIKEY>
DJCRXBNKTDNEAY-XVKPBYJWSA-N

> <PUBCHEM_XLOGP3_AA>
-1.2

> <PUBCHEM_EXACT_MASS>
255.056529

> <PUBCHEM_MOLECULAR_FORMULA>
C11H13NO4S

> <PUBCHEM_MOLECULAR_WEIGHT>
255.29022

> <PUBCHEM_OPENEYE_CAN_SMILES>
COC1=C(C=C(C=C1)C2NC(CS2)C(=O)O)O

> <PUBCHEM_OPENEYE_ISO_SMILES>
COC1=C(C=C(C=C1)[C@H]2N[C@@H](CS2)C(=O)O)O

> <PUBCHEM_CACTVS_TPSA>
104

> <PUBCHEM_MONOISOTOPIC_WEIGHT>
255.056529

> <PUBCHEM_TOTAL_CHARGE>
0

> <PUBCHEM_HEAVY_ATOM_COUNT>
17

> <PUBCHEM_ATOM_DEF_STEREO_COUNT>
2

> <PUBCHEM_ATOM_UDEF_STEREO_COUNT>
0

> <PUBCHEM_BOND_DEF_STEREO_COUNT>
0

> <PUBCHEM_BOND_UDEF_STEREO_COUNT>
0

> <PUBCHEM_ISOTOPIC_ATOM_COUNT>
0

> <PUBCHEM_COMPONENT_COUNT>
1

> <PUBCHEM_CACTVS_TAUTO_COUNT>
3

> <PUBCHEM_COORDINATE_TYPE>
1
5
255

> <PUBCHEM_BONDANNOTATIONS>
10  12  8
10  13  8
12  14  8
13  15  8
14  16  8
15  16  8
7  10  5
8  11  6

$$$$

