583057
  -OEChem-06241222442D

 20 22  0     1  0  0  0  0  0999 V2000
    2.0000    1.2969    0.0000 O   0  0  0  0  0  0  0  0  0  0  0  0
    5.1722   -1.2329    0.0000 O   0  0  0  0  0  0  0  0  0  0  0  0
    2.5885   -0.6094    0.0000 C   0  0  3  0  0  0  0  0  0  0  0  0
    4.6129    0.3655    0.0000 C   0  0  3  0  0  0  0  0  0  0  0  0
    3.9894    1.1474    0.0000 C   0  0  3  0  0  0  0  0  0  0  0  0
    3.4894   -1.0433    0.0000 C   0  0  3  0  0  0  0  0  0  0  0  0
    2.7818    0.6734    0.0000 C   0  0  0  0  0  0  0  0  0  0  0  0
    4.3904   -0.6094    0.0000 C   0  0  0  0  0  0  0  0  0  0  0  0
    2.3660    0.3655    0.0000 C   0  0  0  0  0  0  0  0  0  0  0  0
    5.0747   -0.5177    0.0000 C   0  0  0  0  0  0  0  0  0  0  0  0
    2.9894    1.1474    0.0000 C   0  0  0  0  0  0  0  0  0  0  0  0
    4.4533   -1.2969    0.0000 C   0  0  0  0  0  0  0  0  0  0  0  0
    2.1037   -0.9960    0.0000 H   0  0  0  0  0  0  0  0  0  0  0  0
    5.1324    0.7040    0.0000 H   0  0  0  0  0  0  0  0  0  0  0  0
    4.2585    1.7060    0.0000 H   0  0  0  0  0  0  0  0  0  0  0  0
    3.2751   -1.6250    0.0000 H   0  0  0  0  0  0  0  0  0  0  0  0
    5.6918   -0.5770    0.0000 H   0  0  0  0  0  0  0  0  0  0  0  0
    1.7615    0.5035    0.0000 H   0  0  0  0  0  0  0  0  0  0  0  0
    4.6484   -1.8854    0.0000 H   0  0  0  0  0  0  0  0  0  0  0  0
    2.7204    1.7060    0.0000 H   0  0  0  0  0  0  0  0  0  0  0  0
  1  7  2  0  0  0  0
  2  8  2  0  0  0  0
  3  6  1  0  0  0  0
  3  7  1  0  0  0  0
  3  9  1  0  0  0  0
  3 13  1  0  0  0  0
  4  5  1  0  0  0  0
  4  8  1  0  0  0  0
  4 10  1  0  0  0  0
  4 14  1  0  0  0  0
  5  7  1  0  0  0  0
  5 11  1  0  0  0  0
  5 15  1  0  0  0  0
  6  8  1  0  0  0  0
  6 12  1  0  0  0  0
  6 16  1  0  0  0  0
  9 11  2  0  0  0  0
  9 18  1  0  0  0  0
 10 12  2  0  0  0  0
 10 17  1  0  0  0  0
 11 20  1  0  0  0  0
 12 19  1  0  0  0  0
M  END
> <PUBCHEM_COMPOUND_CID>
583057

> <PUBCHEM_COMPOUND_CANONICALIZED>
1

> <PUBCHEM_CACTVS_COMPLEXITY>
276

> <PUBCHEM_CACTVS_HBOND_ACCEPTOR>
2

> <PUBCHEM_CACTVS_HBOND_DONOR>
0

> <PUBCHEM_CACTVS_ROTATABLE_BOND>
0

> <PUBCHEM_CACTVS_SUBSKEYS>
AAADccBwMAAAAAAAAAAAAAAAAAAAAQIAAAAwAAAABAgAAAAAAAAAGgAAAAAADQSAgAAAAAAAAACIAKBSAAAAAAAgAAAICAEAAAgAABIAAQAAAAAAgAAIAAMJiMCOgAAAAAAAAACAAAQAACAAAAAAAAAAAA==

> <PUBCHEM_IUPAC_INCHI>
InChI=1S/C10H8O2/c11-9-5-1-2-6(9)8-4-3-7(5)10(8)12/h1-8H

> <PUBCHEM_IUPAC_INCHIKEY>
PAVIIQXVNURCKC-UHFFFAOYSA-N

> <PUBCHEM_XLOGP3_AA>
0.6

> <PUBCHEM_EXACT_MASS>
160.052429

> <PUBCHEM_MOLECULAR_FORMULA>
C10H8O2

> <PUBCHEM_MOLECULAR_WEIGHT>
160.16932

> <PUBCHEM_OPENEYE_CAN_SMILES>
C1=CC2C3C=CC(C1C2=O)C3=O

> <PUBCHEM_OPENEYE_ISO_SMILES>
C1=CC2C3C=CC(C1C2=O)C3=O

> <PUBCHEM_CACTVS_TPSA>
34.1

> <PUBCHEM_MONOISOTOPIC_WEIGHT>
160.052429

> <PUBCHEM_TOTAL_CHARGE>
0

> <PUBCHEM_HEAVY_ATOM_COUNT>
12

> <PUBCHEM_ATOM_DEF_STEREO_COUNT>
0

> <PUBCHEM_ATOM_UDEF_STEREO_COUNT>
4

> <PUBCHEM_BOND_DEF_STEREO_COUNT>
0

> <PUBCHEM_BOND_UDEF_STEREO_COUNT>
0

> <PUBCHEM_ISOTOPIC_ATOM_COUNT>
0

> <PUBCHEM_COMPONENT_COUNT>
1

> <PUBCHEM_CACTVS_TAUTO_COUNT>
1

> <PUBCHEM_COORDINATE_TYPE>
1
5
255

> <PUBCHEM_BONDANNOTATIONS>
3  9  3
4  10  3
5  7  3
6  8  3

$$$$

