6615
  -OEChem-06261201252D

112113  0     1  0  0  0  0  0999 V2000
   13.2583    0.2500    0.0000 N   0  3  0  0  0  0  0  0  0  0  0  0
    7.1962   -0.2500    0.0000 N   0  3  0  0  0  0  0  0  0  0  0  0
   16.7224    0.2500    0.0000 C   0  0  3  0  0  0  0  0  0  0  0  0
    3.7320   -0.2500    0.0000 C   0  0  3  0  0  0  0  0  0  0  0  0
    2.8660   -0.7500    0.0000 C   0  0  0  0  0  0  0  0  0  0  0  0
   17.5885    0.7500    0.0000 C   0  0  0  0  0  0  0  0  0  0  0  0
   16.7224   -0.7500    0.0000 C   0  0  3  0  0  0  0  0  0  0  0  0
    3.7320    0.7500    0.0000 C   0  0  3  0  0  0  0  0  0  0  0  0
    2.0000   -0.2500    0.0000 C   0  0  0  0  0  0  0  0  0  0  0  0
   18.4545    0.2500    0.0000 C   0  0  0  0  0  0  0  0  0  0  0  0
    4.5981   -0.7500    0.0000 C   0  0  0  0  0  0  0  0  0  0  0  0
   15.8564    0.7500    0.0000 C   0  0  0  0  0  0  0  0  0  0  0  0
   17.5885   -1.2500    0.0000 C   0  0  0  0  0  0  0  0  0  0  0  0
    2.8660    1.2500    0.0000 C   0  0  0  0  0  0  0  0  0  0  0  0
   18.4545   -0.7500    0.0000 C   0  0  0  0  0  0  0  0  0  0  0  0
    2.0000    0.7500    0.0000 C   0  0  0  0  0  0  0  0  0  0  0  0
    5.4641   -0.2500    0.0000 C   0  0  0  0  0  0  0  0  0  0  0  0
   14.9904    0.2500    0.0000 C   0  0  0  0  0  0  0  0  0  0  0  0
   14.1244    0.7500    0.0000 C   0  0  3  0  0  0  0  0  0  0  0  0
    6.3301   -0.7500    0.0000 C   0  0  3  0  0  0  0  0  0  0  0  0
    2.3660   -1.6160    0.0000 C   0  0  0  0  0  0  0  0  0  0  0  0
    3.3660   -1.6160    0.0000 C   0  0  0  0  0  0  0  0  0  0  0  0
   18.0885    1.6160    0.0000 C   0  0  0  0  0  0  0  0  0  0  0  0
   17.0885    1.6160    0.0000 C   0  0  0  0  0  0  0  0  0  0  0  0
   15.8564   -1.2500    0.0000 C   0  0  0  0  0  0  0  0  0  0  0  0
    4.5981    1.2500    0.0000 C   0  0  0  0  0  0  0  0  0  0  0  0
   12.3923   -0.2500    0.0000 C   0  0  0  0  0  0  0  0  0  0  0  0
    8.0622    0.2500    0.0000 C   0  0  0  0  0  0  0  0  0  0  0  0
    6.3301   -1.7500    0.0000 C   0  0  0  0  0  0  0  0  0  0  0  0
   14.1244    1.7500    0.0000 C   0  0  0  0  0  0  0  0  0  0  0  0
    6.6962    0.6160    0.0000 C   0  0  0  0  0  0  0  0  0  0  0  0
    7.6962   -1.1160    0.0000 C   0  0  0  0  0  0  0  0  0  0  0  0
   12.7583    1.1160    0.0000 C   0  0  0  0  0  0  0  0  0  0  0  0
   13.7583   -0.6160    0.0000 C   0  0  0  0  0  0  0  0  0  0  0  0
   11.5263    0.2500    0.0000 C   0  0  0  0  0  0  0  0  0  0  0  0
    8.9282   -0.2500    0.0000 C   0  0  0  0  0  0  0  0  0  0  0  0
   10.6603   -0.2500    0.0000 C   0  0  0  0  0  0  0  0  0  0  0  0
    9.7942    0.2500    0.0000 C   0  0  0  0  0  0  0  0  0  0  0  0
   15.9863   -0.1750    0.0000 H   0  0  0  0  0  0  0  0  0  0  0  0
    3.7320   -1.1000    0.0000 H   0  0  0  0  0  0  0  0  0  0  0  0
   15.9863   -0.3250    0.0000 H   0  0  0  0  0  0  0  0  0  0  0  0
    3.7320    1.6000    0.0000 H   0  0  0  0  0  0  0  0  0  0  0  0
   19.0651    0.1423    0.0000 H   0  0  0  0  0  0  0  0  0  0  0  0
   18.6665    0.8326    0.0000 H   0  0  0  0  0  0  0  0  0  0  0  0
    1.3894   -0.1423    0.0000 H   0  0  0  0  0  0  0  0  0  0  0  0
    1.7880   -0.8326    0.0000 H   0  0  0  0  0  0  0  0  0  0  0  0
   16.2549    1.2250    0.0000 H   0  0  0  0  0  0  0  0  0  0  0  0
   15.4579    1.2250    0.0000 H   0  0  0  0  0  0  0  0  0  0  0  0
    4.1996   -1.2250    0.0000 H   0  0  0  0  0  0  0  0  0  0  0  0
    4.9966   -1.2250    0.0000 H   0  0  0  0  0  0  0  0  0  0  0  0
    3.2646    1.7250    0.0000 H   0  0  0  0  0  0  0  0  0  0  0  0
    2.4675    1.7250    0.0000 H   0  0  0  0  0  0  0  0  0  0  0  0
   17.1899   -1.7250    0.0000 H   0  0  0  0  0  0  0  0  0  0  0  0
   17.9870   -1.7250    0.0000 H   0  0  0  0  0  0  0  0  0  0  0  0
    1.7880    1.3326    0.0000 H   0  0  0  0  0  0  0  0  0  0  0  0
    1.3894    0.6423    0.0000 H   0  0  0  0  0  0  0  0  0  0  0  0
   18.6665   -1.3326    0.0000 H   0  0  0  0  0  0  0  0  0  0  0  0
   19.0651   -0.6423    0.0000 H   0  0  0  0  0  0  0  0  0  0  0  0
    5.8626    0.2249    0.0000 H   0  0  0  0  0  0  0  0  0  0  0  0
    5.0656    0.2249    0.0000 H   0  0  0  0  0  0  0  0  0  0  0  0
   14.5919   -0.2249    0.0000 H   0  0  0  0  0  0  0  0  0  0  0  0
   15.3889   -0.2249    0.0000 H   0  0  0  0  0  0  0  0  0  0  0  0
    7.0662   -1.1750    0.0000 H   0  0  0  0  0  0  0  0  0  0  0  0
   13.3882    1.1750    0.0000 H   0  0  0  0  0  0  0  0  0  0  0  0
   17.6254    1.9260    0.0000 H   0  0  0  0  0  0  0  0  0  0  0  0
   16.7785    2.1530    0.0000 H   0  0  0  0  0  0  0  0  0  0  0  0
   16.5515    1.3060    0.0000 H   0  0  0  0  0  0  0  0  0  0  0  0
   18.6254    1.3060    0.0000 H   0  0  0  0  0  0  0  0  0  0  0  0
   18.3985    2.1530    0.0000 H   0  0  0  0  0  0  0  0  0  0  0  0
   17.5515    1.9260    0.0000 H   0  0  0  0  0  0  0  0  0  0  0  0
    2.8291   -1.9260    0.0000 H   0  0  0  0  0  0  0  0  0  0  0  0
    3.6760   -2.1530    0.0000 H   0  0  0  0  0  0  0  0  0  0  0  0
    3.9030   -1.3060    0.0000 H   0  0  0  0  0  0  0  0  0  0  0  0
    1.8291   -1.3060    0.0000 H   0  0  0  0  0  0  0  0  0  0  0  0
    2.0560   -2.1530    0.0000 H   0  0  0  0  0  0  0  0  0  0  0  0
    2.9030   -1.9260    0.0000 H   0  0  0  0  0  0  0  0  0  0  0  0
    4.9081    0.7131    0.0000 H   0  0  0  0  0  0  0  0  0  0  0  0
    5.1350    1.5600    0.0000 H   0  0  0  0  0  0  0  0  0  0  0  0
   15.5464   -0.7131    0.0000 H   0  0  0  0  0  0  0  0  0  0  0  0
   15.3195   -1.5600    0.0000 H   0  0  0  0  0  0  0  0  0  0  0  0
   16.1664   -1.7869    0.0000 H   0  0  0  0  0  0  0  0  0  0  0  0
    4.2881    1.7869    0.0000 H   0  0  0  0  0  0  0  0  0  0  0  0
    8.4607    0.7249    0.0000 H   0  0  0  0  0  0  0  0  0  0  0  0
    7.6636    0.7249    0.0000 H   0  0  0  0  0  0  0  0  0  0  0  0
   11.9938   -0.7249    0.0000 H   0  0  0  0  0  0  0  0  0  0  0  0
   12.7908   -0.7249    0.0000 H   0  0  0  0  0  0  0  0  0  0  0  0
    5.7101   -1.7500    0.0000 H   0  0  0  0  0  0  0  0  0  0  0  0
    6.3301   -2.3700    0.0000 H   0  0  0  0  0  0  0  0  0  0  0  0
    6.9501   -1.7500    0.0000 H   0  0  0  0  0  0  0  0  0  0  0  0
   14.7444    1.7500    0.0000 H   0  0  0  0  0  0  0  0  0  0  0  0
   14.1244    2.3700    0.0000 H   0  0  0  0  0  0  0  0  0  0  0  0
   13.5044    1.7500    0.0000 H   0  0  0  0  0  0  0  0  0  0  0  0
    7.1592   -1.4260    0.0000 H   0  0  0  0  0  0  0  0  0  0  0  0
   13.2953    1.4260    0.0000 H   0  0  0  0  0  0  0  0  0  0  0  0
   12.4483    1.6530    0.0000 H   0  0  0  0  0  0  0  0  0  0  0  0
   12.2214    0.8060    0.0000 H   0  0  0  0  0  0  0  0  0  0  0  0
    7.2331    0.9260    0.0000 H   0  0  0  0  0  0  0  0  0  0  0  0
    6.3862    1.1530    0.0000 H   0  0  0  0  0  0  0  0  0  0  0  0
    6.1592    0.3060    0.0000 H   0  0  0  0  0  0  0  0  0  0  0  0
    8.0062   -1.6530    0.0000 H   0  0  0  0  0  0  0  0  0  0  0  0
   13.2214   -0.9260    0.0000 H   0  0  0  0  0  0  0  0  0  0  0  0
   14.0683   -1.1530    0.0000 H   0  0  0  0  0  0  0  0  0  0  0  0
   14.2953   -0.3060    0.0000 H   0  0  0  0  0  0  0  0  0  0  0  0
    8.2331   -0.8060    0.0000 H   0  0  0  0  0  0  0  0  0  0  0  0
   11.9248    0.7249    0.0000 H   0  0  0  0  0  0  0  0  0  0  0  0
   11.1278    0.7249    0.0000 H   0  0  0  0  0  0  0  0  0  0  0  0
    8.5297   -0.7249    0.0000 H   0  0  0  0  0  0  0  0  0  0  0  0
    9.3267   -0.7249    0.0000 H   0  0  0  0  0  0  0  0  0  0  0  0
   10.2617   -0.7249    0.0000 H   0  0  0  0  0  0  0  0  0  0  0  0
   11.0588   -0.7249    0.0000 H   0  0  0  0  0  0  0  0  0  0  0  0
   10.1928    0.7249    0.0000 H   0  0  0  0  0  0  0  0  0  0  0  0
    9.3957    0.7249    0.0000 H   0  0  0  0  0  0  0  0  0  0  0  0
  1 19  1  0  0  0  0
  1 27  1  0  0  0  0
  1 33  1  0  0  0  0
  1 34  1  0  0  0  0
  2 20  1  0  0  0  0
  2 28  1  0  0  0  0
  2 31  1  0  0  0  0
  2 32  1  0  0  0  0
  3  6  1  0  0  0  0
  3  7  1  0  0  0  0
  3 12  1  0  0  0  0
  3 39  1  0  0  0  0
  4  5  1  0  0  0  0
  4  8  1  0  0  0  0
  4 11  1  0  0  0  0
  4 40  1  0  0  0  0
  5  9  1  0  0  0  0
  5 21  1  0  0  0  0
  5 22  1  0  0  0  0
  6 10  1  0  0  0  0
  6 23  1  0  0  0  0
  6 24  1  0  0  0  0
  7 13  1  0  0  0  0
  7 25  1  0  0  0  0
  7 41  1  0  0  0  0
  8 14  1  0  0  0  0
  8 26  1  0  0  0  0
  8 42  1  0  0  0  0
  9 16  1  0  0  0  0
  9 45  1  0  0  0  0
  9 46  1  0  0  0  0
 10 15  1  0  0  0  0
 10 43  1  0  0  0  0
 10 44  1  0  0  0  0
 11 17  1  0  0  0  0
 11 49  1  0  0  0  0
 11 50  1  0  0  0  0
 12 18  1  0  0  0  0
 12 47  1  0  0  0  0
 12 48  1  0  0  0  0
 13 15  1  0  0  0  0
 13 53  1  0  0  0  0
 13 54  1  0  0  0  0
 14 16  1  0  0  0  0
 14 51  1  0  0  0  0
 14 52  1  0  0  0  0
 15 57  1  0  0  0  0
 15 58  1  0  0  0  0
 16 55  1  0  0  0  0
 16 56  1  0  0  0  0
 17 20  1  0  0  0  0
 17 59  1  0  0  0  0
 17 60  1  0  0  0  0
 18 19  1  0  0  0  0
 18 61  1  0  0  0  0
 18 62  1  0  0  0  0
 19 30  1  0  0  0  0
 19 64  1  0  0  0  0
 20 29  1  0  0  0  0
 20 63  1  0  0  0  0
 21 74  1  0  0  0  0
 21 75  1  0  0  0  0
 21 76  1  0  0  0  0
 22 71  1  0  0  0  0
 22 72  1  0  0  0  0
 22 73  1  0  0  0  0
 23 68  1  0  0  0  0
 23 69  1  0  0  0  0
 23 70  1  0  0  0  0
 24 65  1  0  0  0  0
 24 66  1  0  0  0  0
 24 67  1  0  0  0  0
 25 79  1  0  0  0  0
 25 80  1  0  0  0  0
 25 81  1  0  0  0  0
 26 77  1  0  0  0  0
 26 78  1  0  0  0  0
 26 82  1  0  0  0  0
 27 35  1  0  0  0  0
 27 85  1  0  0  0  0
 27 86  1  0  0  0  0
 28 36  1  0  0  0  0
 28 83  1  0  0  0  0
 28 84  1  0  0  0  0
 29 87  1  0  0  0  0
 29 88  1  0  0  0  0
 29 89  1  0  0  0  0
 30 90  1  0  0  0  0
 30 91  1  0  0  0  0
 30 92  1  0  0  0  0
 31 97  1  0  0  0  0
 31 98  1  0  0  0  0
 31 99  1  0  0  0  0
 32 93  1  0  0  0  0
 32100  1  0  0  0  0
 32104  1  0  0  0  0
 33 94  1  0  0  0  0
 33 95  1  0  0  0  0
 33 96  1  0  0  0  0
 34101  1  0  0  0  0
 34102  1  0  0  0  0
 34103  1  0  0  0  0
 35 37  1  0  0  0  0
 35105  1  0  0  0  0
 35106  1  0  0  0  0
 36 38  1  0  0  0  0
 36107  1  0  0  0  0
 36108  1  0  0  0  0
 37 38  1  0  0  0  0
 37109  1  0  0  0  0
 37110  1  0  0  0  0
 38111  1  0  0  0  0
 38112  1  0  0  0  0
M  CHG  2   1   1   2   1
M  END
> <PUBCHEM_COMPOUND_CID>
6615

> <PUBCHEM_COMPOUND_CANONICALIZED>
1

> <PUBCHEM_CACTVS_COMPLEXITY>
617

> <PUBCHEM_CACTVS_HBOND_ACCEPTOR>
0

> <PUBCHEM_CACTVS_HBOND_DONOR>
0

> <PUBCHEM_CACTVS_ROTATABLE_BOND>
15

> <PUBCHEM_CACTVS_SUBSKEYS>
AAADcfB/AAAAAAAAAAAAAAAAAAAAAAAAAAAwYAAAAAAAAAAAAAAAHAAAAAAADyjBAAQCAAMAAAAAAAAAAAAAAAAAAAAAAAAIAAAAAAIAgAAEAAAAAACAAAEQgMAPgAAAAAAAAAAAAAQAACAAAAAAAAAAAA==

> <PUBCHEM_IUPAC_OPENEYE_NAME>
6-[dimethyl-[1-methyl-3-(2,2,6-trimethylcyclohexyl)propyl]ammonio]hexyl-dimethyl-[1-methyl-3-(2,2,6-trimethylcyclohexyl)propyl]ammonium

> <PUBCHEM_IUPAC_CAS_NAME>
6-[dimethyl-[4-(2,2,6-trimethylcyclohexyl)butan-2-yl]ammonio]hexyl-dimethyl-[4-(2,2,6-trimethylcyclohexyl)butan-2-yl]ammonium

> <PUBCHEM_IUPAC_NAME>
6-[dimethyl-[4-(2,2,6-trimethylcyclohexyl)butan-2-yl]azaniumyl]hexyl-dimethyl-[4-(2,2,6-trimethylcyclohexyl)butan-2-yl]azanium

> <PUBCHEM_IUPAC_SYSTEMATIC_NAME>
6-[dimethyl-[4-(2,2,6-trimethylcyclohexyl)butan-2-yl]azaniumyl]hexyl-dimethyl-[4-(2,2,6-trimethylcyclohexyl)butan-2-yl]azanium

> <PUBCHEM_IUPAC_TRADITIONAL_NAME>
6-[dimethyl-[1-methyl-3-(2,2,6-trimethylcyclohexyl)propyl]ammonio]hexyl-dimethyl-[1-methyl-3-(2,2,6-trimethylcyclohexyl)propyl]ammonium

> <PUBCHEM_IUPAC_INCHI>
InChI=1S/C36H74N2/c1-29-19-17-25-35(5,6)33(29)23-21-31(3)37(9,10)27-15-13-14-16-28-38(11,12)32(4)22-24-34-30(2)20-18-26-36(34,7)8/h29-34H,13-28H2,1-12H3/q+2

> <PUBCHEM_IUPAC_INCHIKEY>
YECRYLBCIYSJSO-UHFFFAOYSA-N

> <PUBCHEM_XLOGP3_AA>
11.3

> <PUBCHEM_EXACT_MASS>
534.5852

> <PUBCHEM_MOLECULAR_FORMULA>
C36H74N2+2

> <PUBCHEM_MOLECULAR_WEIGHT>
534.98616

> <PUBCHEM_OPENEYE_CAN_SMILES>
CC1CCCC(C1CCC(C)[N+](C)(C)CCCCCC[N+](C)(C)C(C)CCC2C(CCCC2(C)C)C)(C)C

> <PUBCHEM_OPENEYE_ISO_SMILES>
CC1CCCC(C1CCC(C)[N+](C)(C)CCCCCC[N+](C)(C)C(C)CCC2C(CCCC2(C)C)C)(C)C

> <PUBCHEM_CACTVS_TPSA>
0

> <PUBCHEM_MONOISOTOPIC_WEIGHT>
534.5852

> <PUBCHEM_TOTAL_CHARGE>
2

> <PUBCHEM_HEAVY_ATOM_COUNT>
38

> <PUBCHEM_ATOM_DEF_STEREO_COUNT>
0

> <PUBCHEM_ATOM_UDEF_STEREO_COUNT>
6

> <PUBCHEM_BOND_DEF_STEREO_COUNT>
0

> <PUBCHEM_BOND_UDEF_STEREO_COUNT>
0

> <PUBCHEM_ISOTOPIC_ATOM_COUNT>
0

> <PUBCHEM_COMPONENT_COUNT>
1

> <PUBCHEM_CACTVS_TAUTO_COUNT>
1

> <PUBCHEM_COORDINATE_TYPE>
1
5
255

> <PUBCHEM_BONDANNOTATIONS>
19  64  3
20  63  3
3  39  3
4  40  3
7  41  3
8  42  3

$$$$

