13797
  -OEChem-06241222402D

 59 59  0     0  0  0  0  0  0999 V2000
    8.8717    5.1588    0.0000 O   0  0  0  0  0  0  0  0  0  0  0  0
    2.7690    3.9892    0.0000 O   0  0  0  0  0  0  0  0  0  0  0  0
    4.0010    4.8552    0.0000 O   0  5  0  0  0  0  0  0  0  0  0  0
    3.1350    6.3552    0.0000 O   0  0  0  0  0  0  0  0  0  0  0  0
    0.2690    6.5872    0.0000 O   0  0  0  0  0  0  0  0  0  0  0  0
    0.5369    2.8552    0.0000 O   0  0  0  0  0  0  0  0  0  0  0  0
    0.2690    4.8552    0.0000 O   0  0  0  0  0  0  0  0  0  0  0  0
    2.2690    2.8552    0.0000 O   0  0  0  0  0  0  0  0  0  0  0  0
    7.1028    7.6904    0.0000 N   0  3  0  0  0  0  0  0  0  0  0  0
    9.1807    4.2078    0.0000 N   0  0  0  0  0  0  0  0  0  0  0  0
    7.6906    6.8814    0.0000 C   0  0  0  0  0  0  0  0  0  0  0  0
    6.5150    8.4994    0.0000 C   0  0  0  0  0  0  0  0  0  0  0  0
    7.9118    8.2782    0.0000 C   0  0  0  0  0  0  0  0  0  0  0  0
    7.2839    5.9679    0.0000 C   0  0  0  0  0  0  0  0  0  0  0  0
    6.9218    9.4130    0.0000 C   0  0  0  0  0  0  0  0  0  0  0  0
    8.8254    7.8715    0.0000 C   0  0  0  0  0  0  0  0  0  0  0  0
    7.8717    5.1588    0.0000 C   0  0  0  0  0  0  0  0  0  0  0  0
    7.5626    4.2078    0.0000 C   0  0  0  0  0  0  0  0  0  0  0  0
    8.3717    3.6200    0.0000 C   0  0  0  0  0  0  0  0  0  0  0  0
    2.2690    4.8552    0.0000 C   0  0  0  0  0  0  0  0  0  0  0  0
    8.3717    2.6200    0.0000 C   0  0  0  0  0  0  0  0  0  0  0  0
    1.4030    4.3552    0.0000 C   0  0  0  0  0  0  0  0  0  0  0  0
    1.7690    5.7212    0.0000 C   0  0  0  0  0  0  0  0  0  0  0  0
    3.1350    5.3552    0.0000 C   0  0  0  0  0  0  0  0  0  0  0  0
    7.5056    2.1200    0.0000 C   0  0  0  0  0  0  0  0  0  0  0  0
    9.2377    2.1200    0.0000 C   0  0  0  0  0  0  0  0  0  0  0  0
    1.4030    3.3552    0.0000 C   0  0  0  0  0  0  0  0  0  0  0  0
    0.7690    5.7212    0.0000 C   0  0  0  0  0  0  0  0  0  0  0  0
    7.5056    1.1200    0.0000 C   0  0  0  0  0  0  0  0  0  0  0  0
    9.2377    1.1200    0.0000 C   0  0  0  0  0  0  0  0  0  0  0  0
    8.3717    0.6200    0.0000 C   0  0  0  0  0  0  0  0  0  0  0  0
    6.6012    7.3260    0.0000 H   0  0  0  0  0  0  0  0  0  0  0  0
    8.2046    6.5347    0.0000 H   0  0  0  0  0  0  0  0  0  0  0  0
    8.1213    7.3274    0.0000 H   0  0  0  0  0  0  0  0  0  0  0  0
    8.2585    8.7922    0.0000 H   0  0  0  0  0  0  0  0  0  0  0  0
    7.4658    8.7089    0.0000 H   0  0  0  0  0  0  0  0  0  0  0  0
    6.0010    8.8461    0.0000 H   0  0  0  0  0  0  0  0  0  0  0  0
    6.0844    8.0534    0.0000 H   0  0  0  0  0  0  0  0  0  0  0  0
    6.7699    6.3146    0.0000 H   0  0  0  0  0  0  0  0  0  0  0  0
    6.8532    5.5219    0.0000 H   0  0  0  0  0  0  0  0  0  0  0  0
    8.5732    7.3051    0.0000 H   0  0  0  0  0  0  0  0  0  0  0  0
    7.4882    9.1608    0.0000 H   0  0  0  0  0  0  0  0  0  0  0  0
    7.1740    9.9794    0.0000 H   0  0  0  0  0  0  0  0  0  0  0  0
    6.3554    9.6652    0.0000 H   0  0  0  0  0  0  0  0  0  0  0  0
    9.3918    7.6193    0.0000 H   0  0  0  0  0  0  0  0  0  0  0  0
    9.0776    8.4379    0.0000 H   0  0  0  0  0  0  0  0  0  0  0  0
    6.9730    4.0162    0.0000 H   0  0  0  0  0  0  0  0  0  0  0  0
    2.3516    5.9333    0.0000 H   0  0  0  0  0  0  0  0  0  0  0  0
    1.6613    6.3318    0.0000 H   0  0  0  0  0  0  0  0  0  0  0  0
    1.1909    4.9378    0.0000 H   0  0  0  0  0  0  0  0  0  0  0  0
    0.7924    4.2475    0.0000 H   0  0  0  0  0  0  0  0  0  0  0  0
    6.9687    2.4300    0.0000 H   0  0  0  0  0  0  0  0  0  0  0  0
    9.7746    2.4300    0.0000 H   0  0  0  0  0  0  0  0  0  0  0  0
    2.4590    3.4522    0.0000 H   0  0  0  0  0  0  0  0  0  0  0  0
    6.9687    0.8100    0.0000 H   0  0  0  0  0  0  0  0  0  0  0  0
    9.7746    0.8100    0.0000 H   0  0  0  0  0  0  0  0  0  0  0  0
    8.3717    0.0000    0.0000 H   0  0  0  0  0  0  0  0  0  0  0  0
    0.5790    7.1242    0.0000 H   0  0  0  0  0  0  0  0  0  0  0  0
    0.0000    3.1652    0.0000 H   0  0  0  0  0  0  0  0  0  0  0  0
  1 10  1  0  0  0  0
  1 17  1  0  0  0  0
  2 20  1  0  0  0  0
  2 54  1  0  0  0  0
  3 24  1  0  0  0  0
  4 24  2  0  0  0  0
  5 28  1  0  0  0  0
  5 58  1  0  0  0  0
  6 27  1  0  0  0  0
  6 59  1  0  0  0  0
  7 28  2  0  0  0  0
  8 27  2  0  0  0  0
  9 11  1  0  0  0  0
  9 12  1  0  0  0  0
  9 13  1  0  0  0  0
  9 32  1  0  0  0  0
 10 19  2  0  0  0  0
 11 14  1  0  0  0  0
 11 33  1  0  0  0  0
 11 34  1  0  0  0  0
 12 15  1  0  0  0  0
 12 37  1  0  0  0  0
 12 38  1  0  0  0  0
 13 16  1  0  0  0  0
 13 35  1  0  0  0  0
 13 36  1  0  0  0  0
 14 17  1  0  0  0  0
 14 39  1  0  0  0  0
 14 40  1  0  0  0  0
 15 42  1  0  0  0  0
 15 43  1  0  0  0  0
 15 44  1  0  0  0  0
 16 41  1  0  0  0  0
 16 45  1  0  0  0  0
 16 46  1  0  0  0  0
 17 18  2  0  0  0  0
 18 19  1  0  0  0  0
 18 47  1  0  0  0  0
 19 21  1  0  0  0  0
 20 22  1  0  0  0  0
 20 23  1  0  0  0  0
 20 24  1  0  0  0  0
 21 25  2  0  0  0  0
 21 26  1  0  0  0  0
 22 27  1  0  0  0  0
 22 50  1  0  0  0  0
 22 51  1  0  0  0  0
 23 28  1  0  0  0  0
 23 48  1  0  0  0  0
 23 49  1  0  0  0  0
 25 29  1  0  0  0  0
 25 52  1  0  0  0  0
 26 30  2  0  0  0  0
 26 53  1  0  0  0  0
 29 31  2  0  0  0  0
 29 55  1  0  0  0  0
 30 31  1  0  0  0  0
 30 56  1  0  0  0  0
 31 57  1  0  0  0  0
M  CHG  2   3  -1   9   1
M  END
> <PUBCHEM_COMPOUND_CID>
13797

> <PUBCHEM_COMPOUND_CANONICALIZED>
1

> <PUBCHEM_CACTVS_COMPLEXITY>
446

> <PUBCHEM_CACTVS_HBOND_ACCEPTOR>
9

> <PUBCHEM_CACTVS_HBOND_DONOR>
4

> <PUBCHEM_CACTVS_ROTATABLE_BOND>
10

> <PUBCHEM_CACTVS_SUBSKEYS>
AAADceB7PAAAAAAAAAAAAAAAAAAAAWAAAAAwAAAAAAAAAAABwAAAHgAUCAAADEzBngQyjJPQAgCpA6TySgKCAAAkIgAomKF+bNoJJr6AkZOEcYBnsBiJyUfb7uCOAAAAAAAAAAAAAAAAAAAAAAAAAAAAAA==

> <PUBCHEM_IUPAC_OPENEYE_NAME>
2-(carboxymethyl)-2,4-dihydroxy-4-oxo-butanoate; diethyl-[2-(3-phenylisoxazol-5-yl)ethyl]ammonium

> <PUBCHEM_IUPAC_CAS_NAME>
2-(carboxymethyl)-2,4-dihydroxy-4-oxobutanoate; diethyl-[2-(3-phenyl-5-isoxazolyl)ethyl]ammonium

> <PUBCHEM_IUPAC_NAME>
2-(carboxymethyl)-2,4-dihydroxy-4-oxobutanoate; diethyl-[2-(3-phenyl-1,2-oxazol-5-yl)ethyl]azanium

> <PUBCHEM_IUPAC_SYSTEMATIC_NAME>
diethyl-[2-(3-phenyl-1,2-oxazol-5-yl)ethyl]azanium; 2-(2-hydroxy-2-oxoethyl)-2,4-bis(oxidanyl)-4-oxidanylidene-butanoate

> <PUBCHEM_IUPAC_TRADITIONAL_NAME>
2-(carboxymethyl)-2,4-dihydroxy-4-keto-butyrate; diethyl-[2-(3-phenylisoxazol-5-yl)ethyl]ammonium

> <PUBCHEM_IUPAC_INCHI>
InChI=1S/C15H20N2O.C6H8O7/c1-3-17(4-2)11-10-14-12-15(16-18-14)13-8-6-5-7-9-13;7-3(8)1-6(13,5(11)12)2-4(9)10/h5-9,12H,3-4,10-11H2,1-2H3;13H,1-2H2,(H,7,8)(H,9,10)(H,11,12)

> <PUBCHEM_IUPAC_INCHIKEY>
IONVJVZOGJBIOM-UHFFFAOYSA-N

> <PUBCHEM_EXACT_MASS>
436.184566

> <PUBCHEM_MOLECULAR_FORMULA>
C21H28N2O8

> <PUBCHEM_MOLECULAR_WEIGHT>
436.45562

> <PUBCHEM_OPENEYE_CAN_SMILES>
CC[NH+](CC)CCC1=CC(=NO1)C2=CC=CC=C2.C(C(=O)O)C(CC(=O)O)(C(=O)[O-])O

> <PUBCHEM_OPENEYE_ISO_SMILES>
CC[NH+](CC)CCC1=CC(=NO1)C2=CC=CC=C2.C(C(=O)O)C(CC(=O)O)(C(=O)[O-])O

> <PUBCHEM_CACTVS_TPSA>
165

> <PUBCHEM_MONOISOTOPIC_WEIGHT>
436.184566

> <PUBCHEM_TOTAL_CHARGE>
0

> <PUBCHEM_HEAVY_ATOM_COUNT>
31

> <PUBCHEM_ATOM_DEF_STEREO_COUNT>
0

> <PUBCHEM_ATOM_UDEF_STEREO_COUNT>
0

> <PUBCHEM_BOND_DEF_STEREO_COUNT>
0

> <PUBCHEM_BOND_UDEF_STEREO_COUNT>
0

> <PUBCHEM_ISOTOPIC_ATOM_COUNT>
0

> <PUBCHEM_COMPONENT_COUNT>
2

> <PUBCHEM_CACTVS_TAUTO_COUNT>
1

> <PUBCHEM_COORDINATE_TYPE>
1
5
255

> <PUBCHEM_BONDANNOTATIONS>
1  10  8
1  17  8
10  19  8
17  18  8
18  19  8
21  25  8
21  26  8
25  29  8
26  30  8
29  31  8
30  31  8

$$$$

