5498
  -OEChem-06261200422D

 49 50  0     1  0  0  0  0  0999 V2000
    3.7320    0.1488    0.0000 O   0  0  0  0  0  0  0  0  0  0  0  0
    7.4128    2.8512    0.0000 O   0  0  0  0  0  0  0  0  0  0  0  0
    6.5468    4.3512    0.0000 O   0  0  0  0  0  0  0  0  0  0  0  0
    2.8660    1.6488    0.0000 O   0  0  0  0  0  0  0  0  0  0  0  0
    4.7026    2.6433    0.0000 C   0  0  0  0  0  0  0  0  0  0  0  0
    5.6808    2.8512    0.0000 C   0  0  3  0  0  0  0  0  0  0  0  0
    4.5981    1.6488    0.0000 C   0  0  3  0  0  0  0  0  0  0  0  0
    6.1808    1.9852    0.0000 C   0  0  0  0  0  0  0  0  0  0  0  0
    5.5116    1.2421    0.0000 C   0  0  0  0  0  0  0  0  0  0  0  0
    3.7081    2.7478    0.0000 C   0  0  0  0  0  0  0  0  0  0  0  0
    4.4947    3.6214    0.0000 C   0  0  0  0  0  0  0  0  0  0  0  0
    5.4728    3.8294    0.0000 C   0  0  0  0  0  0  0  0  0  0  0  0
    6.5468    3.3512    0.0000 C   0  0  0  0  0  0  0  0  0  0  0  0
    3.7320    1.1488    0.0000 C   0  0  0  0  0  0  0  0  0  0  0  0
    2.8660   -0.3512    0.0000 C   0  0  3  0  0  0  0  0  0  0  0  0
    2.8660   -1.3512    0.0000 C   0  0  0  0  0  0  0  0  0  0  0  0
    2.0000    0.1488    0.0000 C   0  0  0  0  0  0  0  0  0  0  0  0
    2.0000   -1.8512    0.0000 C   0  0  0  0  0  0  0  0  0  0  0  0
    3.7320   -1.8512    0.0000 C   0  0  0  0  0  0  0  0  0  0  0  0
    2.0000   -2.8512    0.0000 C   0  0  0  0  0  0  0  0  0  0  0  0
    3.7320   -2.8512    0.0000 C   0  0  0  0  0  0  0  0  0  0  0  0
    2.8660   -3.3512    0.0000 C   0  0  0  0  0  0  0  0  0  0  0  0
    2.8660   -4.3512    0.0000 C   0  0  0  0  0  0  0  0  0  0  0  0
    4.0781    1.9865    0.0000 H   0  0  0  0  0  0  0  0  0  0  0  0
    6.5956    1.5244    0.0000 H   0  0  0  0  0  0  0  0  0  0  0  0
    6.6823    2.3496    0.0000 H   0  0  0  0  0  0  0  0  0  0  0  0
    5.2016    0.7051    0.0000 H   0  0  0  0  0  0  0  0  0  0  0  0
    6.0132    0.8776    0.0000 H   0  0  0  0  0  0  0  0  0  0  0  0
    3.7729    3.3644    0.0000 H   0  0  0  0  0  0  0  0  0  0  0  0
    3.0915    2.8126    0.0000 H   0  0  0  0  0  0  0  0  0  0  0  0
    3.6433    2.1312    0.0000 H   0  0  0  0  0  0  0  0  0  0  0  0
    5.1011    3.7504    0.0000 H   0  0  0  0  0  0  0  0  0  0  0  0
    4.3658    4.2279    0.0000 H   0  0  0  0  0  0  0  0  0  0  0  0
    3.8882    3.4926    0.0000 H   0  0  0  0  0  0  0  0  0  0  0  0
    6.0793    3.9583    0.0000 H   0  0  0  0  0  0  0  0  0  0  0  0
    5.3439    4.4358    0.0000 H   0  0  0  0  0  0  0  0  0  0  0  0
    4.8664    3.7005    0.0000 H   0  0  0  0  0  0  0  0  0  0  0  0
    7.9497    3.1612    0.0000 H   0  0  0  0  0  0  0  0  0  0  0  0
    2.8660    0.2688    0.0000 H   0  0  0  0  0  0  0  0  0  0  0  0
    2.3100    0.6857    0.0000 H   0  0  0  0  0  0  0  0  0  0  0  0
    1.4631    0.4588    0.0000 H   0  0  0  0  0  0  0  0  0  0  0  0
    1.6900   -0.3882    0.0000 H   0  0  0  0  0  0  0  0  0  0  0  0
    1.4631   -1.5412    0.0000 H   0  0  0  0  0  0  0  0  0  0  0  0
    4.2690   -1.5412    0.0000 H   0  0  0  0  0  0  0  0  0  0  0  0
    1.4631   -3.1612    0.0000 H   0  0  0  0  0  0  0  0  0  0  0  0
    4.2690   -3.1612    0.0000 H   0  0  0  0  0  0  0  0  0  0  0  0
    2.2460   -4.3512    0.0000 H   0  0  0  0  0  0  0  0  0  0  0  0
    2.8660   -4.9712    0.0000 H   0  0  0  0  0  0  0  0  0  0  0  0
    3.4860   -4.3512    0.0000 H   0  0  0  0  0  0  0  0  0  0  0  0
  1 14  1  0  0  0  0
  1 15  1  0  0  0  0
  2 13  1  0  0  0  0
  2 38  1  0  0  0  0
  3 13  2  0  0  0  0
  4 14  2  0  0  0  0
  5  6  1  0  0  0  0
  5  7  1  0  0  0  0
  5 10  1  0  0  0  0
  5 11  1  0  0  0  0
  6  8  1  0  0  0  0
  6 12  1  0  0  0  0
  6 13  1  0  0  0  0
  7  9  1  0  0  0  0
  7 14  1  0  0  0  0
  7 24  1  0  0  0  0
  8  9  1  0  0  0  0
  8 25  1  0  0  0  0
  8 26  1  0  0  0  0
  9 27  1  0  0  0  0
  9 28  1  0  0  0  0
 10 29  1  0  0  0  0
 10 30  1  0  0  0  0
 10 31  1  0  0  0  0
 11 32  1  0  0  0  0
 11 33  1  0  0  0  0
 11 34  1  0  0  0  0
 12 35  1  0  0  0  0
 12 36  1  0  0  0  0
 12 37  1  0  0  0  0
 15 16  1  0  0  0  0
 15 17  1  0  0  0  0
 15 39  1  0  0  0  0
 16 18  2  0  0  0  0
 16 19  1  0  0  0  0
 17 40  1  0  0  0  0
 17 41  1  0  0  0  0
 17 42  1  0  0  0  0
 18 20  1  0  0  0  0
 18 43  1  0  0  0  0
 19 21  2  0  0  0  0
 19 44  1  0  0  0  0
 20 22  2  0  0  0  0
 20 45  1  0  0  0  0
 21 22  1  0  0  0  0
 21 46  1  0  0  0  0
 22 23  1  0  0  0  0
 23 47  1  0  0  0  0
 23 48  1  0  0  0  0
 23 49  1  0  0  0  0
M  END
> <PUBCHEM_COMPOUND_CID>
5498

> <PUBCHEM_COMPOUND_CANONICALIZED>
1

> <PUBCHEM_CACTVS_COMPLEXITY>
462

> <PUBCHEM_CACTVS_HBOND_ACCEPTOR>
4

> <PUBCHEM_CACTVS_HBOND_DONOR>
1

> <PUBCHEM_CACTVS_ROTATABLE_BOND>
5

> <PUBCHEM_CACTVS_SUBSKEYS>
AAADceB4OAAAAAAAAAAAAAAAAAAAAYAAAAAwAAAAAAAAAAABAAAAGgAACAAADxSgmAIyCIAABgCIAiDSCAACAAAgAAAIiAEACIgIJjKAMRiCcAAkwAEIqAeI7viPwAAAAAAAAACAAAAAAAAAAQAACAAAAA==

> <PUBCHEM_IUPAC_OPENEYE_NAME>
1,2,2-trimethyl-3-[1-(p-tolyl)ethoxycarbonyl]cyclopentanecarboxylic acid

> <PUBCHEM_IUPAC_CAS_NAME>
1,2,2-trimethyl-3-[1-(4-methylphenyl)ethoxy-oxomethyl]-1-cyclopentanecarboxylic acid

> <PUBCHEM_IUPAC_NAME>
1,2,2-trimethyl-3-[1-(4-methylphenyl)ethoxycarbonyl]cyclopentane-1-carboxylic acid

> <PUBCHEM_IUPAC_SYSTEMATIC_NAME>
1,2,2-trimethyl-3-[1-(4-methylphenyl)ethoxycarbonyl]cyclopentane-1-carboxylic acid

> <PUBCHEM_IUPAC_TRADITIONAL_NAME>
1,2,2-trimethyl-3-[1-(p-tolyl)ethoxycarbonyl]cyclopentanecarboxylic acid

> <PUBCHEM_IUPAC_INCHI>
InChI=1S/C19H26O4/c1-12-6-8-14(9-7-12)13(2)23-16(20)15-10-11-19(5,17(21)22)18(15,3)4/h6-9,13,15H,10-11H2,1-5H3,(H,21,22)

> <PUBCHEM_IUPAC_INCHIKEY>
TTYRLXBSVQQISE-UHFFFAOYSA-N

> <PUBCHEM_XLOGP3_AA>
3.9

> <PUBCHEM_EXACT_MASS>
318.183109

> <PUBCHEM_MOLECULAR_FORMULA>
C19H26O4

> <PUBCHEM_MOLECULAR_WEIGHT>
318.40734

> <PUBCHEM_OPENEYE_CAN_SMILES>
CC1=CC=C(C=C1)C(C)OC(=O)C2CCC(C2(C)C)(C)C(=O)O

> <PUBCHEM_OPENEYE_ISO_SMILES>
CC1=CC=C(C=C1)C(C)OC(=O)C2CCC(C2(C)C)(C)C(=O)O

> <PUBCHEM_CACTVS_TPSA>
63.6

> <PUBCHEM_MONOISOTOPIC_WEIGHT>
318.183109

> <PUBCHEM_TOTAL_CHARGE>
0

> <PUBCHEM_HEAVY_ATOM_COUNT>
23

> <PUBCHEM_ATOM_DEF_STEREO_COUNT>
0

> <PUBCHEM_ATOM_UDEF_STEREO_COUNT>
3

> <PUBCHEM_BOND_DEF_STEREO_COUNT>
0

> <PUBCHEM_BOND_UDEF_STEREO_COUNT>
0

> <PUBCHEM_ISOTOPIC_ATOM_COUNT>
0

> <PUBCHEM_COMPONENT_COUNT>
1

> <PUBCHEM_CACTVS_TAUTO_COUNT>
1

> <PUBCHEM_COORDINATE_TYPE>
1
5
255

> <PUBCHEM_BONDANNOTATIONS>
15  17  3
16  18  8
16  19  8
18  20  8
19  21  8
20  22  8
21  22  8
6  12  3
7  14  3

$$$$

