6109
  -OEChem-06261201072D

 35 31  0     0  0  0  0  0  0999 V2000
    3.4052    1.9684    0.0000 Ca  0  2  0  0  0  0  0  0  0  0  0  0
    2.0000    1.2011    0.0000 Na  0  3  0  0  0  0  0  0  0  0  0  0
    3.9648    3.4685    0.0000 Na  0  3  0  0  0  0  0  0  0  0  0  0
    2.9898    1.0588    0.0000 O   0  5  0  0  0  0  0  0  0  0  0  0
    4.2465    2.5090    0.0000 O   0  5  0  0  0  0  0  0  0  0  0  0
    5.5282    3.4685    0.0000 O   0  0  0  0  0  0  0  0  0  0  0  0
    2.2225   -0.3465    0.0000 O   0  0  0  0  0  0  0  0  0  0  0  0
    5.6125   -3.4685    0.0000 O   0  5  0  0  0  0  0  0  0  0  0  0
    8.8545    2.2718    0.0000 O   0  5  0  0  0  0  0  0  0  0  0  0
    6.4785   -1.9685    0.0000 O   0  0  0  0  0  0  0  0  0  0  0  0
    7.2465    2.9155    0.0000 O   0  0  0  0  0  0  0  0  0  0  0  0
    6.5032    1.0588    0.0000 N   0  0  0  0  0  0  0  0  0  0  0  0
    4.7465   -0.9685    0.0000 N   0  0  0  0  0  0  0  0  0  0  0  0
    6.3608    0.0689    0.0000 C   0  0  0  0  0  0  0  0  0  0  0  0
    5.7060   -0.6868    0.0000 C   0  0  0  0  0  0  0  0  0  0  0  0
    3.7870   -0.6868    0.0000 C   0  0  0  0  0  0  0  0  0  0  0  0
    6.0877    1.9684    0.0000 C   0  0  0  0  0  0  0  0  0  0  0  0
    4.7465   -1.9685    0.0000 C   0  0  0  0  0  0  0  0  0  0  0  0
    7.4930    1.2011    0.0000 C   0  0  0  0  0  0  0  0  0  0  0  0
    5.2465    2.5090    0.0000 C   0  0  0  0  0  0  0  0  0  0  0  0
    3.1321    0.0689    0.0000 C   0  0  0  0  0  0  0  0  0  0  0  0
    7.8646    2.1294    0.0000 C   0  0  0  0  0  0  0  0  0  0  0  0
    5.6125   -2.4685    0.0000 C   0  0  0  0  0  0  0  0  0  0  0  0
    5.6765   -1.3061    0.0000 H   0  0  0  0  0  0  0  0  0  0  0  0
    5.3708   -0.1652    0.0000 H   0  0  0  0  0  0  0  0  0  0  0  0
    6.6708   -0.4680    0.0000 H   0  0  0  0  0  0  0  0  0  0  0  0
    5.7969    0.3265    0.0000 H   0  0  0  0  0  0  0  0  0  0  0  0
    6.7049    2.0273    0.0000 H   0  0  0  0  0  0  0  0  0  0  0  0
    5.6192    1.5624    0.0000 H   0  0  0  0  0  0  0  0  0  0  0  0
    3.2114   -0.9172    0.0000 H   0  0  0  0  0  0  0  0  0  0  0  0
    4.1222   -0.1652    0.0000 H   0  0  0  0  0  0  0  0  0  0  0  0
    7.4733    0.5814    0.0000 H   0  0  0  0  0  0  0  0  0  0  0  0
    8.0998    1.0741    0.0000 H   0  0  0  0  0  0  0  0  0  0  0  0
    4.1359   -1.8609    0.0000 H   0  0  0  0  0  0  0  0  0  0  0  0
    4.5344   -2.5511    0.0000 H   0  0  0  0  0  0  0  0  0  0  0  0
  4 21  1  0  0  0  0
  5 20  1  0  0  0  0
  6 20  2  0  0  0  0
  7 21  2  0  0  0  0
  8 23  1  0  0  0  0
  9 22  1  0  0  0  0
 10 23  2  0  0  0  0
 11 22  2  0  0  0  0
 12 14  1  0  0  0  0
 12 17  1  0  0  0  0
 12 19  1  0  0  0  0
 13 15  1  0  0  0  0
 13 16  1  0  0  0  0
 13 18  1  0  0  0  0
 14 15  1  0  0  0  0
 14 26  1  0  0  0  0
 14 27  1  0  0  0  0
 15 24  1  0  0  0  0
 15 25  1  0  0  0  0
 16 21  1  0  0  0  0
 16 30  1  0  0  0  0
 16 31  1  0  0  0  0
 17 20  1  0  0  0  0
 17 28  1  0  0  0  0
 17 29  1  0  0  0  0
 18 23  1  0  0  0  0
 18 34  1  0  0  0  0
 18 35  1  0  0  0  0
 19 22  1  0  0  0  0
 19 32  1  0  0  0  0
 19 33  1  0  0  0  0
M  CHG  7   1   2   2   1   3   1   4  -1   5  -1   8  -1   9  -1
M  END
> <PUBCHEM_COMPOUND_CID>
6109

> <PUBCHEM_COMPOUND_CANONICALIZED>
1

> <PUBCHEM_CACTVS_COMPLEXITY>
342

> <PUBCHEM_CACTVS_HBOND_ACCEPTOR>
10

> <PUBCHEM_CACTVS_HBOND_DONOR>
0

> <PUBCHEM_CACTVS_ROTATABLE_BOND>
2

> <PUBCHEM_CACTVS_SUBSKEYS>
AAADccBzPDAAAAgAAAAAAAAAAAAAAAAAAAAAAAAAAAAAAAAAAAAAHgAAAAAAAADBgAQACAMAAAAIAACQCAAAAAAAAAAAAACIAAACQAAAACAQAAAAAACQAAAAAAAAAAAAAAAAAAAAAAAAAAAAAAAAAAAAAA==

> <PUBCHEM_IUPAC_OPENEYE_NAME>
calcium disodium 2-[2-[bis(carboxylatomethyl)amino]ethyl-(carboxylatomethyl)amino]acetate

> <PUBCHEM_IUPAC_CAS_NAME>
calcium disodium 2-[2-[bis(carboxylatomethyl)amino]ethyl-(carboxylatomethyl)amino]acetate

> <PUBCHEM_IUPAC_NAME>
calcium disodium 2-[2-[bis(carboxylatomethyl)amino]ethyl-(carboxylatomethyl)amino]acetate

> <PUBCHEM_IUPAC_SYSTEMATIC_NAME>
calcium disodium 2-[2-[bis(2-oxidanidyl-2-oxidanylidene-ethyl)amino]ethyl-(2-oxidanidyl-2-oxidanylidene-ethyl)amino]ethanoate

> <PUBCHEM_IUPAC_TRADITIONAL_NAME>
calcium disodium 2-[2-[bis(carboxylatomethyl)amino]ethyl-(carboxylatomethyl)amino]acetate

> <PUBCHEM_IUPAC_INCHI>
InChI=1S/C10H16N2O8.Ca.2Na/c13-7(14)3-11(4-8(15)16)1-2-12(5-9(17)18)6-10(19)20;;;/h1-6H2,(H,13,14)(H,15,16)(H,17,18)(H,19,20);;;/q;+2;2*+1/p-4

> <PUBCHEM_IUPAC_INCHIKEY>
SHWNNYZBHZIQQV-UHFFFAOYSA-J

> <PUBCHEM_EXACT_MASS>
374.001495

> <PUBCHEM_MOLECULAR_FORMULA>
C10H12CaN2Na2O8

> <PUBCHEM_MOLECULAR_WEIGHT>
374.268419

> <PUBCHEM_OPENEYE_CAN_SMILES>
C(CN(CC(=O)[O-])CC(=O)[O-])N(CC(=O)[O-])CC(=O)[O-].[Na+].[Na+].[Ca+2]

> <PUBCHEM_OPENEYE_ISO_SMILES>
C(CN(CC(=O)[O-])CC(=O)[O-])N(CC(=O)[O-])CC(=O)[O-].[Na+].[Na+].[Ca+2]

> <PUBCHEM_CACTVS_TPSA>
167

> <PUBCHEM_MONOISOTOPIC_WEIGHT>
374.001495

> <PUBCHEM_TOTAL_CHARGE>
0

> <PUBCHEM_HEAVY_ATOM_COUNT>
23

> <PUBCHEM_ATOM_DEF_STEREO_COUNT>
0

> <PUBCHEM_ATOM_UDEF_STEREO_COUNT>
0

> <PUBCHEM_BOND_DEF_STEREO_COUNT>
0

> <PUBCHEM_BOND_UDEF_STEREO_COUNT>
0

> <PUBCHEM_ISOTOPIC_ATOM_COUNT>
0

> <PUBCHEM_COMPONENT_COUNT>
4

> <PUBCHEM_CACTVS_TAUTO_COUNT>
3

> <PUBCHEM_NONSTANDARDBOND>
1  4  6
1  5  6

> <PUBCHEM_COORDINATE_TYPE>
1
5
255

$$$$

