4404
  -OEChem-06261200062D

 47 50  0     1  0  0  0  0  0999 V2000
    7.6726   -3.3352    0.0000 O   0  0  0  0  0  0  0  0  0  0  0  0
    6.4164   -5.5975    0.0000 O   0  0  0  0  0  0  0  0  0  0  0  0
    9.3972   -4.5133    0.0000 O   0  0  0  0  0  0  0  0  0  0  0  0
    2.8660    2.7274    0.0000 O   0  0  0  0  0  0  0  0  0  0  0  0
    2.8660    0.7274    0.0000 O   0  0  0  0  0  0  0  0  0  0  0  0
    6.4103   -2.0773    0.0000 N   0  0  0  0  0  0  0  0  0  0  0  0
    6.4103   -0.4679    0.0000 N   0  0  0  0  0  0  0  0  0  0  0  0
    4.5981   -2.2726    0.0000 N   0  0  0  0  0  0  0  0  0  0  0  0
    3.7320   -0.7726    0.0000 N   0  0  0  0  0  0  0  0  0  0  0  0
    4.5981    0.7274    0.0000 N   0  0  0  0  0  0  0  0  0  0  0  0
    6.7210   -3.0278    0.0000 C   0  0  3  0  0  0  0  0  0  0  0  0
    6.7238   -4.6459    0.0000 C   0  0  3  0  0  0  0  0  0  0  0  0
    6.1346   -3.8379    0.0000 C   0  0  0  0  0  0  0  0  0  0  0  0
    7.6743   -4.3352    0.0000 C   0  0  3  0  0  0  0  0  0  0  0  0
    8.4843   -4.9216    0.0000 C   0  0  0  0  0  0  0  0  0  0  0  0
    5.4641   -1.7726    0.0000 C   0  0  0  0  0  0  0  0  0  0  0  0
    6.9939   -1.2726    0.0000 C   0  0  0  0  0  0  0  0  0  0  0  0
    5.4641   -0.7726    0.0000 C   0  0  0  0  0  0  0  0  0  0  0  0
    4.5981   -0.2726    0.0000 C   0  0  0  0  0  0  0  0  0  0  0  0
    3.7320   -1.7726    0.0000 C   0  0  0  0  0  0  0  0  0  0  0  0
    3.7320    1.2274    0.0000 C   0  0  0  0  0  0  0  0  0  0  0  0
    3.7320    2.2274    0.0000 C   0  0  0  0  0  0  0  0  0  0  0  0
    2.8660    3.7274    0.0000 C   0  0  0  0  0  0  0  0  0  0  0  0
    2.0000    4.2274    0.0000 C   0  0  0  0  0  0  0  0  0  0  0  0
    3.7320    4.2274    0.0000 C   0  0  0  0  0  0  0  0  0  0  0  0
    2.0000    5.2274    0.0000 C   0  0  0  0  0  0  0  0  0  0  0  0
    3.7320    5.2274    0.0000 C   0  0  0  0  0  0  0  0  0  0  0  0
    2.8660    5.7274    0.0000 C   0  0  0  0  0  0  0  0  0  0  0  0
    6.1085   -2.9319    0.0000 H   0  0  0  0  0  0  0  0  0  0  0  0
    6.1116   -4.7439    0.0000 H   0  0  0  0  0  0  0  0  0  0  0  0
    5.6731   -3.4238    0.0000 H   0  0  0  0  0  0  0  0  0  0  0  0
    5.6746   -4.2535    0.0000 H   0  0  0  0  0  0  0  0  0  0  0  0
    8.2262   -4.0528    0.0000 H   0  0  0  0  0  0  0  0  0  0  0  0
    8.0391   -5.3530    0.0000 H   0  0  0  0  0  0  0  0  0  0  0  0
    8.8319   -5.4350    0.0000 H   0  0  0  0  0  0  0  0  0  0  0  0
    5.8102   -5.7274    0.0000 H   0  0  0  0  0  0  0  0  0  0  0  0
    7.6139   -1.2726    0.0000 H   0  0  0  0  0  0  0  0  0  0  0  0
    9.8994   -4.8768    0.0000 H   0  0  0  0  0  0  0  0  0  0  0  0
    3.1951   -2.0826    0.0000 H   0  0  0  0  0  0  0  0  0  0  0  0
    5.1350    1.0374    0.0000 H   0  0  0  0  0  0  0  0  0  0  0  0
    4.3426    2.1197    0.0000 H   0  0  0  0  0  0  0  0  0  0  0  0
    3.9441    2.8100    0.0000 H   0  0  0  0  0  0  0  0  0  0  0  0
    1.4631    3.9174    0.0000 H   0  0  0  0  0  0  0  0  0  0  0  0
    4.2690    3.9174    0.0000 H   0  0  0  0  0  0  0  0  0  0  0  0
    1.4631    5.5374    0.0000 H   0  0  0  0  0  0  0  0  0  0  0  0
    4.2690    5.5374    0.0000 H   0  0  0  0  0  0  0  0  0  0  0  0
    2.8660    6.3474    0.0000 H   0  0  0  0  0  0  0  0  0  0  0  0
  1 11  1  0  0  0  0
  1 14  1  0  0  0  0
  2 12  1  0  0  0  0
  2 36  1  0  0  0  0
  3 15  1  0  0  0  0
  3 38  1  0  0  0  0
  4 22  1  0  0  0  0
  4 23  1  0  0  0  0
  5 21  2  0  0  0  0
  6 11  1  0  0  0  0
  6 16  1  0  0  0  0
  6 17  1  0  0  0  0
  7 17  2  0  0  0  0
  7 18  1  0  0  0  0
  8 16  2  0  0  0  0
  8 20  1  0  0  0  0
  9 19  1  0  0  0  0
  9 20  2  0  0  0  0
 10 19  1  0  0  0  0
 10 21  1  0  0  0  0
 10 40  1  0  0  0  0
 11 13  1  0  0  0  0
 11 29  1  0  0  0  0
 12 13  1  0  0  0  0
 12 14  1  0  0  0  0
 12 30  1  0  0  0  0
 13 31  1  0  0  0  0
 13 32  1  0  0  0  0
 14 15  1  0  0  0  0
 14 33  1  0  0  0  0
 15 34  1  0  0  0  0
 15 35  1  0  0  0  0
 16 18  1  0  0  0  0
 17 37  1  0  0  0  0
 18 19  2  0  0  0  0
 20 39  1  0  0  0  0
 21 22  1  0  0  0  0
 22 41  1  0  0  0  0
 22 42  1  0  0  0  0
 23 24  2  0  0  0  0
 23 25  1  0  0  0  0
 24 26  1  0  0  0  0
 24 43  1  0  0  0  0
 25 27  2  0  0  0  0
 25 44  1  0  0  0  0
 26 28  2  0  0  0  0
 26 45  1  0  0  0  0
 27 28  1  0  0  0  0
 27 46  1  0  0  0  0
 28 47  1  0  0  0  0
M  END
> <PUBCHEM_COMPOUND_CID>
4404

> <PUBCHEM_COMPOUND_CANONICALIZED>
1

> <PUBCHEM_CACTVS_COMPLEXITY>
535

> <PUBCHEM_CACTVS_HBOND_ACCEPTOR>
8

> <PUBCHEM_CACTVS_HBOND_DONOR>
3

> <PUBCHEM_CACTVS_ROTATABLE_BOND>
6

> <PUBCHEM_CACTVS_SUBSKEYS>
AAADceB7uAAAAAAAAAAAAAAAAAAAAWJAAAA8QAAAAAAAAFgB/AAAHgAQCAAACBzhlwY19r/MFgCoASdzdAKCiC0xMKAJ2CBuXJiPfiLE+V6ffCiv1RPbqCewcAIAAAAAAAAAAAAAAAAAAAAAAAAAAAAAAA==

> <PUBCHEM_IUPAC_OPENEYE_NAME>
N-[9-[4-hydroxy-5-(hydroxymethyl)tetrahydrofuran-2-yl]purin-6-yl]-2-phenoxy-acetamide

> <PUBCHEM_IUPAC_CAS_NAME>
N-[9-[4-hydroxy-5-(hydroxymethyl)-2-oxolanyl]-6-purinyl]-2-phenoxyacetamide

> <PUBCHEM_IUPAC_NAME>
N-[9-[4-hydroxy-5-(hydroxymethyl)oxolan-2-yl]purin-6-yl]-2-phenoxyacetamide

> <PUBCHEM_IUPAC_SYSTEMATIC_NAME>
N-[9-[5-(hydroxymethyl)-4-oxidanyl-oxolan-2-yl]purin-6-yl]-2-phenoxy-ethanamide

> <PUBCHEM_IUPAC_TRADITIONAL_NAME>
N-[9-(4-hydroxy-5-methylol-tetrahydrofuran-2-yl)purin-6-yl]-2-phenoxy-acetamide

> <PUBCHEM_IUPAC_INCHI>
InChI=1S/C18H19N5O5/c24-7-13-12(25)6-15(28-13)23-10-21-16-17(19-9-20-18(16)23)22-14(26)8-27-11-4-2-1-3-5-11/h1-5,9-10,12-13,15,24-25H,6-8H2,(H,19,20,22,26)

> <PUBCHEM_IUPAC_INCHIKEY>
HWSKJANFAKYDDL-UHFFFAOYSA-N

> <PUBCHEM_XLOGP3>
0.3

> <PUBCHEM_EXACT_MASS>
385.138619

> <PUBCHEM_MOLECULAR_FORMULA>
C18H19N5O5

> <PUBCHEM_MOLECULAR_WEIGHT>
385.37396

> <PUBCHEM_OPENEYE_CAN_SMILES>
C1C(C(OC1N2C=NC3=C2N=CN=C3NC(=O)COC4=CC=CC=C4)CO)O

> <PUBCHEM_OPENEYE_ISO_SMILES>
C1C(C(OC1N2C=NC3=C2N=CN=C3NC(=O)COC4=CC=CC=C4)CO)O

> <PUBCHEM_CACTVS_TPSA>
132

> <PUBCHEM_MONOISOTOPIC_WEIGHT>
385.138619

> <PUBCHEM_TOTAL_CHARGE>
0

> <PUBCHEM_HEAVY_ATOM_COUNT>
28

> <PUBCHEM_ATOM_DEF_STEREO_COUNT>
0

> <PUBCHEM_ATOM_UDEF_STEREO_COUNT>
3

> <PUBCHEM_BOND_DEF_STEREO_COUNT>
0

> <PUBCHEM_BOND_UDEF_STEREO_COUNT>
0

> <PUBCHEM_ISOTOPIC_ATOM_COUNT>
0

> <PUBCHEM_COMPONENT_COUNT>
1

> <PUBCHEM_CACTVS_TAUTO_COUNT>
7

> <PUBCHEM_COORDINATE_TYPE>
1
5
255

> <PUBCHEM_BONDANNOTATIONS>
14  15  3
16  18  8
18  19  8
12  2  3
23  24  8
23  25  8
24  26  8
25  27  8
26  28  8
27  28  8
11  6  3
6  16  8
6  17  8
7  17  8
7  18  8
8  16  8
8  20  8
9  19  8
9  20  8

$$$$

