582791
  -OEChem-06241222442D

 33 34  0     1  0  0  0  0  0999 V2000
    7.2566    1.7669    0.0000 S   0  0  0  0  0  0  0  0  0  0  0  0
    7.6138    0.0721    0.0000 O   0  0  0  0  0  0  0  0  0  0  0  0
    7.0504    2.7454    0.0000 O   0  0  0  0  0  0  0  0  0  0  0  0
    7.4628    0.7884    0.0000 O   0  0  0  0  0  0  0  0  0  0  0  0
    6.3246   -1.0847    0.0000 O   0  0  0  0  0  0  0  0  0  0  0  0
    6.2781    1.5607    0.0000 N   0  0  0  0  0  0  0  0  0  0  0  0
    4.6783   -2.1561    0.0000 N   0  0  0  0  0  0  0  0  0  0  0  0
    4.9889    0.4039    0.0000 C   0  0  0  0  0  0  0  0  0  0  0  0
    5.9674    0.6101    0.0000 C   0  0  3  0  0  0  0  0  0  0  0  0
    4.6783   -0.5466    0.0000 C   0  0  0  0  0  0  0  0  0  0  0  0
    3.7320   -0.8513    0.0000 C   0  0  0  0  0  0  0  0  0  0  0  0
    3.7320   -1.8513    0.0000 C   0  0  0  0  0  0  0  0  0  0  0  0
    5.2619   -1.3513    0.0000 C   0  0  0  0  0  0  0  0  0  0  0  0
    6.6353   -0.1342    0.0000 C   0  0  0  0  0  0  0  0  0  0  0  0
    2.8660   -0.3513    0.0000 C   0  0  0  0  0  0  0  0  0  0  0  0
    2.8660   -2.3513    0.0000 C   0  0  0  0  0  0  0  0  0  0  0  0
    2.0000   -0.8513    0.0000 C   0  0  0  0  0  0  0  0  0  0  0  0
    2.0000   -1.8513    0.0000 C   0  0  0  0  0  0  0  0  0  0  0  0
    8.2351    1.9731    0.0000 C   0  0  0  0  0  0  0  0  0  0  0  0
    4.9684    1.0236    0.0000 H   0  0  0  0  0  0  0  0  0  0  0  0
    4.3751    0.4913    0.0000 H   0  0  0  0  0  0  0  0  0  0  0  0
    5.5534    1.0716    0.0000 H   0  0  0  0  0  0  0  0  0  0  0  0
    5.8640    2.0221    0.0000 H   0  0  0  0  0  0  0  0  0  0  0  0
    5.8819   -1.3513    0.0000 H   0  0  0  0  0  0  0  0  0  0  0  0
    4.8709   -2.7454    0.0000 H   0  0  0  0  0  0  0  0  0  0  0  0
    2.8660    0.2687    0.0000 H   0  0  0  0  0  0  0  0  0  0  0  0
    2.8660   -2.9713    0.0000 H   0  0  0  0  0  0  0  0  0  0  0  0
    1.4631   -0.5413    0.0000 H   0  0  0  0  0  0  0  0  0  0  0  0
    8.3630    1.3664    0.0000 H   0  0  0  0  0  0  0  0  0  0  0  0
    8.8418    2.1010    0.0000 H   0  0  0  0  0  0  0  0  0  0  0  0
    8.1073    2.5798    0.0000 H   0  0  0  0  0  0  0  0  0  0  0  0
    1.4631   -2.1613    0.0000 H   0  0  0  0  0  0  0  0  0  0  0  0
    8.0279   -0.3894    0.0000 H   0  0  0  0  0  0  0  0  0  0  0  0
  1  3  2  0  0  0  0
  1  4  2  0  0  0  0
  1  6  1  0  0  0  0
  1 19  1  0  0  0  0
  2 14  1  0  0  0  0
  2 33  1  0  0  0  0
  5 14  2  0  0  0  0
  6  9  1  0  0  0  0
  6 23  1  0  0  0  0
  7 12  1  0  0  0  0
  7 13  1  0  0  0  0
  7 25  1  0  0  0  0
  8  9  1  0  0  0  0
  8 10  1  0  0  0  0
  8 20  1  0  0  0  0
  8 21  1  0  0  0  0
  9 14  1  0  0  0  0
  9 22  1  0  0  0  0
 10 11  1  0  0  0  0
 10 13  2  0  0  0  0
 11 12  1  0  0  0  0
 11 15  2  0  0  0  0
 12 16  2  0  0  0  0
 13 24  1  0  0  0  0
 15 17  1  0  0  0  0
 15 26  1  0  0  0  0
 16 18  1  0  0  0  0
 16 27  1  0  0  0  0
 17 18  2  0  0  0  0
 17 28  1  0  0  0  0
 18 32  1  0  0  0  0
 19 29  1  0  0  0  0
 19 30  1  0  0  0  0
 19 31  1  0  0  0  0
M  END
> <PUBCHEM_COMPOUND_CID>
582791

> <PUBCHEM_COMPOUND_CANONICALIZED>
1

> <PUBCHEM_CACTVS_COMPLEXITY>
432

> <PUBCHEM_CACTVS_HBOND_ACCEPTOR>
5

> <PUBCHEM_CACTVS_HBOND_DONOR>
3

> <PUBCHEM_CACTVS_ROTATABLE_BOND>
5

> <PUBCHEM_CACTVS_SUBSKEYS>
AAADccBzOABAAAAAAAAAAAAAAAAAAWAAAAAwAAAAAAAAAFgB8AAAHgQQSAAADCjBngS+yPLJkgKoAzT3THCCgCAxAiAI2aG4ZJgKIPLAkZGEYAhkkADIyAeY2fKOgAAAAAACAAAAAAAAAAQAAAAAAAAAAA==

> <PUBCHEM_IUPAC_OPENEYE_NAME>
3-(1H-indol-3-yl)-2-(methanesulfonamido)propanoic acid

> <PUBCHEM_IUPAC_CAS_NAME>
3-(1H-indol-3-yl)-2-(methanesulfonamido)propanoic acid

> <PUBCHEM_IUPAC_NAME>
3-(1H-indol-3-yl)-2-(methanesulfonamido)propanoic acid

> <PUBCHEM_IUPAC_SYSTEMATIC_NAME>
3-(1H-indol-3-yl)-2-(methylsulfonylamino)propanoic acid

> <PUBCHEM_IUPAC_TRADITIONAL_NAME>
3-(1H-indol-3-yl)-2-(methanesulfonamido)propionic acid

> <PUBCHEM_IUPAC_INCHI>
InChI=1S/C12H14N2O4S/c1-19(17,18)14-11(12(15)16)6-8-7-13-10-5-3-2-4-9(8)10/h2-5,7,11,13-14H,6H2,1H3,(H,15,16)

> <PUBCHEM_IUPAC_INCHIKEY>
QVUHJFKDUNYLJQ-UHFFFAOYSA-N

> <PUBCHEM_XLOGP3>
0.4

> <PUBCHEM_EXACT_MASS>
282.067428

> <PUBCHEM_MOLECULAR_FORMULA>
C12H14N2O4S

> <PUBCHEM_MOLECULAR_WEIGHT>
282.31556

> <PUBCHEM_OPENEYE_CAN_SMILES>
CS(=O)(=O)NC(CC1=CNC2=CC=CC=C21)C(=O)O

> <PUBCHEM_OPENEYE_ISO_SMILES>
CS(=O)(=O)NC(CC1=CNC2=CC=CC=C21)C(=O)O

> <PUBCHEM_CACTVS_TPSA>
108

> <PUBCHEM_MONOISOTOPIC_WEIGHT>
282.067428

> <PUBCHEM_TOTAL_CHARGE>
0

> <PUBCHEM_HEAVY_ATOM_COUNT>
19

> <PUBCHEM_ATOM_DEF_STEREO_COUNT>
0

> <PUBCHEM_ATOM_UDEF_STEREO_COUNT>
1

> <PUBCHEM_BOND_DEF_STEREO_COUNT>
0

> <PUBCHEM_BOND_UDEF_STEREO_COUNT>
0

> <PUBCHEM_ISOTOPIC_ATOM_COUNT>
0

> <PUBCHEM_COMPONENT_COUNT>
1

> <PUBCHEM_CACTVS_TAUTO_COUNT>
1

> <PUBCHEM_COORDINATE_TYPE>
1
5
255

> <PUBCHEM_BONDANNOTATIONS>
10  11  8
10  13  8
11  12  8
11  15  8
12  16  8
15  17  8
16  18  8
17  18  8
7  12  8
7  13  8
9  8  3

$$$$

