854327
  -OEChem-06241222472D

 42 44  0     1  0  0  0  0  0999 V2000
    4.2690   -0.3147    0.0000 O   0  0  0  0  0  0  0  0  0  0  0  0
    7.7991   -0.3388    0.0000 O   0  0  0  0  0  0  0  0  0  0  0  0
    2.5369   -0.3147    0.0000 O   0  0  0  0  0  0  0  0  0  0  0  0
    7.7146   -4.3691    0.0000 O   0  0  0  0  0  0  0  0  0  0  0  0
    8.5979   -2.8792    0.0000 O   0  0  0  0  0  0  0  0  0  0  0  0
    6.8776   -1.8593    0.0000 N   0  0  0  0  0  0  0  0  0  0  0  0
    6.0290   -0.3494    0.0000 C   0  0  0  0  0  0  0  0  0  0  0  0
    5.1350    0.1853    0.0000 C   0  0  0  0  0  0  0  0  0  0  0  0
    5.1350    1.1853    0.0000 C   0  0  0  0  0  0  0  0  0  0  0  0
    6.0174   -1.3493    0.0000 C   0  0  0  0  0  0  0  0  0  0  0  0
    4.2690    1.6853    0.0000 C   0  0  0  0  0  0  0  0  0  0  0  0
    6.8660   -2.8592    0.0000 C   0  0  2  0  0  0  0  0  0  0  0  0
    6.9350    0.1645    0.0000 C   0  0  0  0  0  0  0  0  0  0  0  0
    6.0290    1.7200    0.0000 C   0  0  0  0  0  0  0  0  0  0  0  0
    4.2690    2.6853    0.0000 C   0  0  0  0  0  0  0  0  0  0  0  0
    6.9350    1.2061    0.0000 C   0  0  0  0  0  0  0  0  0  0  0  0
    3.4030    1.1853    0.0000 C   0  0  0  0  0  0  0  0  0  0  0  0
    3.4030    0.1853    0.0000 C   0  0  0  0  0  0  0  0  0  0  0  0
    5.9943   -3.3492    0.0000 C   0  0  0  0  0  0  0  0  0  0  0  0
    3.4030    3.1853    0.0000 C   0  0  0  0  0  0  0  0  0  0  0  0
    5.1350    3.1853    0.0000 C   0  0  0  0  0  0  0  0  0  0  0  0
    7.7262   -3.3692    0.0000 C   0  0  0  0  0  0  0  0  0  0  0  0
    3.4030    4.1853    0.0000 C   0  0  0  0  0  0  0  0  0  0  0  0
    5.1350    4.1853    0.0000 C   0  0  0  0  0  0  0  0  0  0  0  0
    4.2690    4.6853    0.0000 C   0  0  0  0  0  0  0  0  0  0  0  0
    5.4081   -1.2346    0.0000 H   0  0  0  0  0  0  0  0  0  0  0  0
    5.7986   -1.9294    0.0000 H   0  0  0  0  0  0  0  0  0  0  0  0
    7.4181   -1.5555    0.0000 H   0  0  0  0  0  0  0  0  0  0  0  0
    6.3327   -2.5430    0.0000 H   0  0  0  0  0  0  0  0  0  0  0  0
    6.0218    2.3399    0.0000 H   0  0  0  0  0  0  0  0  0  0  0  0
    7.4708    1.5182    0.0000 H   0  0  0  0  0  0  0  0  0  0  0  0
    2.8660    1.4953    0.0000 H   0  0  0  0  0  0  0  0  0  0  0  0
    5.6905   -2.8087    0.0000 H   0  0  0  0  0  0  0  0  0  0  0  0
    5.4538   -3.6529    0.0000 H   0  0  0  0  0  0  0  0  0  0  0  0
    6.2980   -3.8896    0.0000 H   0  0  0  0  0  0  0  0  0  0  0  0
    2.8660    2.8753    0.0000 H   0  0  0  0  0  0  0  0  0  0  0  0
    5.6719    2.8753    0.0000 H   0  0  0  0  0  0  0  0  0  0  0  0
    2.8660    4.4953    0.0000 H   0  0  0  0  0  0  0  0  0  0  0  0
    5.6719    4.4953    0.0000 H   0  0  0  0  0  0  0  0  0  0  0  0
    4.2690    5.3053    0.0000 H   0  0  0  0  0  0  0  0  0  0  0  0
    2.0000   -0.0047    0.0000 H   0  0  0  0  0  0  0  0  0  0  0  0
    8.2480   -4.6853    0.0000 H   0  0  0  0  0  0  0  0  0  0  0  0
  1  8  1  0  0  0  0
  1 18  1  0  0  0  0
  2 13  2  0  0  0  0
  3 18  1  0  0  0  0
  3 41  1  0  0  0  0
  4 22  1  0  0  0  0
  4 42  1  0  0  0  0
  5 22  2  0  0  0  0
  6 10  1  0  0  0  0
  6 12  1  0  0  0  0
  6 28  1  0  0  0  0
  7  8  2  0  0  0  0
  7 10  1  0  0  0  0
  7 13  1  0  0  0  0
  8  9  1  0  0  0  0
  9 11  2  0  0  0  0
  9 14  1  0  0  0  0
 10 26  1  0  0  0  0
 10 27  1  0  0  0  0
 11 15  1  0  0  0  0
 11 17  1  0  0  0  0
 12 19  1  0  0  0  0
 12 22  1  0  0  0  0
 12 29  1  0  0  0  0
 13 16  1  0  0  0  0
 14 16  2  0  0  0  0
 14 30  1  0  0  0  0
 15 20  2  0  0  0  0
 15 21  1  0  0  0  0
 16 31  1  0  0  0  0
 17 18  2  0  0  0  0
 17 32  1  0  0  0  0
 19 33  1  0  0  0  0
 19 34  1  0  0  0  0
 19 35  1  0  0  0  0
 20 23  1  0  0  0  0
 20 36  1  0  0  0  0
 21 24  2  0  0  0  0
 21 37  1  0  0  0  0
 23 25  2  0  0  0  0
 23 38  1  0  0  0  0
 24 25  1  0  0  0  0
 24 39  1  0  0  0  0
 25 40  1  0  0  0  0
M  END
> <PUBCHEM_COMPOUND_CID>
854327

> <PUBCHEM_COMPOUND_CANONICALIZED>
1

> <PUBCHEM_CACTVS_COMPLEXITY>
707

> <PUBCHEM_CACTVS_HBOND_ACCEPTOR>
6

> <PUBCHEM_CACTVS_HBOND_DONOR>
3

> <PUBCHEM_CACTVS_ROTATABLE_BOND>
5

> <PUBCHEM_CACTVS_SUBSKEYS>
AAADceB6OAAAAAAAAAAAAAAAAAAAAAAAAAAwQIAAAAAAAACBAAAAHgAQCAAADCzBmAQyCILABgCIAqDSCACCCAAgIAAIiIGIAMgaJCqAsTCEcAAg0ACcqYcAgIAOAAAAAAAAAAAAAAAAAAAAAAAAAAAAAA==

> <PUBCHEM_IUPAC_OPENEYE_NAME>
(2R)-2-[(2-hydroxy-7-oxo-4-phenyl-chromen-8-yl)methylamino]propanoic acid

> <PUBCHEM_IUPAC_CAS_NAME>
(2R)-2-[(2-hydroxy-7-oxo-4-phenyl-1-benzopyran-8-yl)methylamino]propanoic acid

> <PUBCHEM_IUPAC_NAME>
(2R)-2-[(2-hydroxy-7-oxo-4-phenylchromen-8-yl)methylamino]propanoic acid

> <PUBCHEM_IUPAC_SYSTEMATIC_NAME>
(2R)-2-[(2-oxidanyl-7-oxidanylidene-4-phenyl-chromen-8-yl)methylamino]propanoic acid

> <PUBCHEM_IUPAC_TRADITIONAL_NAME>
(2R)-2-[(2-hydroxy-7-keto-4-phenyl-chromen-8-yl)methylamino]propionic acid

> <PUBCHEM_IUPAC_INCHI>
InChI=1S/C19H17NO5/c1-11(19(23)24)20-10-15-16(21)8-7-13-14(9-17(22)25-18(13)15)12-5-3-2-4-6-12/h2-9,11,20,22H,10H2,1H3,(H,23,24)/t11-/m1/s1

> <PUBCHEM_IUPAC_INCHIKEY>
WOLGOLBWIZXZIO-LLVKDONJSA-N

> <PUBCHEM_XLOGP3_AA>
-0.4

> <PUBCHEM_EXACT_MASS>
339.110673

> <PUBCHEM_MOLECULAR_FORMULA>
C19H17NO5

> <PUBCHEM_MOLECULAR_WEIGHT>
339.34198

> <PUBCHEM_OPENEYE_CAN_SMILES>
CC(C(=O)O)NCC1=C2C(=C(C=C(O2)O)C3=CC=CC=C3)C=CC1=O

> <PUBCHEM_OPENEYE_ISO_SMILES>
C[C@H](C(=O)O)NCC1=C2C(=C(C=C(O2)O)C3=CC=CC=C3)C=CC1=O

> <PUBCHEM_CACTVS_TPSA>
95.9

> <PUBCHEM_MONOISOTOPIC_WEIGHT>
339.110673

> <PUBCHEM_TOTAL_CHARGE>
0

> <PUBCHEM_HEAVY_ATOM_COUNT>
25

> <PUBCHEM_ATOM_DEF_STEREO_COUNT>
1

> <PUBCHEM_ATOM_UDEF_STEREO_COUNT>
0

> <PUBCHEM_BOND_DEF_STEREO_COUNT>
0

> <PUBCHEM_BOND_UDEF_STEREO_COUNT>
0

> <PUBCHEM_ISOTOPIC_ATOM_COUNT>
0

> <PUBCHEM_COMPONENT_COUNT>
1

> <PUBCHEM_CACTVS_TAUTO_COUNT>
1

> <PUBCHEM_COORDINATE_TYPE>
1
5
255

> <PUBCHEM_BONDANNOTATIONS>
1  18  8
1  8  8
11  17  8
12  19  3
13  16  8
14  16  8
15  20  8
15  21  8
17  18  8
20  23  8
21  24  8
23  25  8
24  25  8
7  13  8
7  8  8
9  11  8
9  14  8

$$$$

