47205625
  -OEChem-06241222592D

 27 28  0     0  0  0  0  0  0999 V2000
    2.8660    0.9798    0.0000 O   0  0  0  0  0  0  0  0  0  0  0  0
    4.5981    0.9798    0.0000 N   0  0  0  0  0  0  0  0  0  0  0  0
    5.0981    3.5186    0.0000 N   0  0  0  0  0  0  0  0  0  0  0  0
    4.0981    3.5186    0.0000 N   0  0  0  0  0  0  0  0  0  0  0  0
    4.5981    1.9798    0.0000 C   0  0  0  0  0  0  0  0  0  0  0  0
    2.8660   -2.0202    0.0000 C   0  0  0  0  0  0  0  0  0  0  0  0
    2.8660   -1.0202    0.0000 C   0  0  0  0  0  0  0  0  0  0  0  0
    5.4071    2.5676    0.0000 C   0  0  0  0  0  0  0  0  0  0  0  0
    2.0000   -2.5202    0.0000 C   0  0  0  0  0  0  0  0  0  0  0  0
    3.7320   -2.5202    0.0000 C   0  0  0  0  0  0  0  0  0  0  0  0
    3.7320    0.4798    0.0000 C   0  0  0  0  0  0  0  0  0  0  0  0
    3.7320   -0.5202    0.0000 C   0  0  0  0  0  0  0  0  0  0  0  0
    3.7891    2.5676    0.0000 C   0  0  0  0  0  0  0  0  0  0  0  0
    2.0000   -3.5202    0.0000 C   0  0  0  0  0  0  0  0  0  0  0  0
    3.7320   -3.5202    0.0000 C   0  0  0  0  0  0  0  0  0  0  0  0
    2.8660   -4.0202    0.0000 C   0  0  0  0  0  0  0  0  0  0  0  0
    5.1350    0.6698    0.0000 H   0  0  0  0  0  0  0  0  0  0  0  0
    2.3291   -0.7102    0.0000 H   0  0  0  0  0  0  0  0  0  0  0  0
    5.9967    2.3760    0.0000 H   0  0  0  0  0  0  0  0  0  0  0  0
    1.4631   -2.2102    0.0000 H   0  0  0  0  0  0  0  0  0  0  0  0
    4.2690   -2.2102    0.0000 H   0  0  0  0  0  0  0  0  0  0  0  0
    4.2690   -0.8302    0.0000 H   0  0  0  0  0  0  0  0  0  0  0  0
    3.1994    2.3760    0.0000 H   0  0  0  0  0  0  0  0  0  0  0  0
    1.4631   -3.8302    0.0000 H   0  0  0  0  0  0  0  0  0  0  0  0
    4.2690   -3.8302    0.0000 H   0  0  0  0  0  0  0  0  0  0  0  0
    5.4625    4.0202    0.0000 H   0  0  0  0  0  0  0  0  0  0  0  0
    2.8660   -4.6402    0.0000 H   0  0  0  0  0  0  0  0  0  0  0  0
  1 11  2  0  0  0  0
  2  5  1  0  0  0  0
  2 11  1  0  0  0  0
  2 17  1  0  0  0  0
  3  4  1  0  0  0  0
  3  8  1  0  0  0  0
  3 26  1  0  0  0  0
  4 13  2  0  0  0  0
  5  8  2  0  0  0  0
  5 13  1  0  0  0  0
  6  7  1  0  0  0  0
  6  9  2  0  0  0  0
  6 10  1  0  0  0  0
  7 12  2  3  0  0  0
  7 18  1  0  0  0  0
  8 19  1  0  0  0  0
  9 14  1  0  0  0  0
  9 20  1  0  0  0  0
 10 15  2  0  0  0  0
 10 21  1  0  0  0  0
 11 12  1  0  0  0  0
 12 22  1  0  0  0  0
 13 23  1  0  0  0  0
 14 16  2  0  0  0  0
 14 24  1  0  0  0  0
 15 16  1  0  0  0  0
 15 25  1  0  0  0  0
 16 27  1  0  0  0  0
M  END
> <PUBCHEM_COMPOUND_CID>
47205625

> <PUBCHEM_COMPOUND_CANONICALIZED>
1

> <PUBCHEM_CACTVS_COMPLEXITY>
259

> <PUBCHEM_CACTVS_HBOND_ACCEPTOR>
2

> <PUBCHEM_CACTVS_HBOND_DONOR>
2

> <PUBCHEM_CACTVS_ROTATABLE_BOND>
3

> <PUBCHEM_CACTVS_SUBSKEYS>
AAADccBzIAAAAAAAAAAAAAAAAAAAAWAAAAAwAAAAAAAAAAABwAAAHgAYAAAADAjBmgQ8wJLjAACqAjV3UACSBAAhkgAYuaAgdNgIYKKAUVCQpAAgnACIiYcAgAAOAAAAAAAAAAAAAAAAAAAAAAAAAAAAAA==

> <PUBCHEM_IUPAC_OPENEYE_NAME>
3-phenyl-N-(1H-pyrazol-4-yl)prop-2-enamide

> <PUBCHEM_IUPAC_CAS_NAME>
3-phenyl-N-(1H-pyrazol-4-yl)-2-propenamide

> <PUBCHEM_IUPAC_NAME>
3-phenyl-N-(1H-pyrazol-4-yl)prop-2-enamide

> <PUBCHEM_IUPAC_SYSTEMATIC_NAME>
3-phenyl-N-(1H-pyrazol-4-yl)prop-2-enamide

> <PUBCHEM_IUPAC_TRADITIONAL_NAME>
3-phenyl-N-(1H-pyrazol-4-yl)acrylamide

> <PUBCHEM_IUPAC_INCHI>
InChI=1S/C12H11N3O/c16-12(15-11-8-13-14-9-11)7-6-10-4-2-1-3-5-10/h1-9H,(H,13,14)(H,15,16)

> <PUBCHEM_IUPAC_INCHIKEY>
QNFXRBIPNWGUHF-UHFFFAOYSA-N

> <PUBCHEM_XLOGP3>
1.7

> <PUBCHEM_EXACT_MASS>
213.090212

> <PUBCHEM_MOLECULAR_FORMULA>
C12H11N3O

> <PUBCHEM_MOLECULAR_WEIGHT>
213.23524

> <PUBCHEM_OPENEYE_CAN_SMILES>
C1=CC=C(C=C1)C=CC(=O)NC2=CNN=C2

> <PUBCHEM_OPENEYE_ISO_SMILES>
C1=CC=C(C=C1)C=CC(=O)NC2=CNN=C2

> <PUBCHEM_CACTVS_TPSA>
57.8

> <PUBCHEM_MONOISOTOPIC_WEIGHT>
213.090212

> <PUBCHEM_TOTAL_CHARGE>
0

> <PUBCHEM_HEAVY_ATOM_COUNT>
16

> <PUBCHEM_ATOM_DEF_STEREO_COUNT>
0

> <PUBCHEM_ATOM_UDEF_STEREO_COUNT>
0

> <PUBCHEM_BOND_DEF_STEREO_COUNT>
0

> <PUBCHEM_BOND_UDEF_STEREO_COUNT>
1

> <PUBCHEM_ISOTOPIC_ATOM_COUNT>
0

> <PUBCHEM_COMPONENT_COUNT>
1

> <PUBCHEM_CACTVS_TAUTO_COUNT>
4

> <PUBCHEM_COORDINATE_TYPE>
1
5
255

> <PUBCHEM_BONDANNOTATIONS>
10  15  8
14  16  8
15  16  8
3  4  8
3  8  8
4  13  8
5  13  8
5  8  8
6  10  8
6  9  8
7  12  1
9  14  8

$$$$

