13092
  -OEChem-06261207452D

 32 35  0     0  0  0  0  0  0999 V2000
    2.5381   -1.5012    0.0000 N   0  0  0  0  0  0  0  0  0  0  0  0
    6.0682    0.5230    0.0000 C   0  0  0  0  0  0  0  0  0  0  0  0
    6.9343    0.0230    0.0000 C   0  0  0  0  0  0  0  0  0  0  0  0
    5.2022    0.0230    0.0000 C   0  0  0  0  0  0  0  0  0  0  0  0
    7.8443    0.5298    0.0000 C   0  0  0  0  0  0  0  0  0  0  0  0
    5.2022   -0.9770    0.0000 C   0  0  0  0  0  0  0  0  0  0  0  0
    7.8523    1.5714    0.0000 C   0  0  0  0  0  0  0  0  0  0  0  0
    6.9343   -0.9770    0.0000 C   0  0  0  0  0  0  0  0  0  0  0  0
    6.0522    1.5645    0.0000 C   0  0  0  0  0  0  0  0  0  0  0  0
    6.0682   -1.4770    0.0000 C   0  0  0  0  0  0  0  0  0  0  0  0
    6.9502    2.0922    0.0000 C   0  0  0  0  0  0  0  0  0  0  0  0
    4.3083    0.5576    0.0000 C   0  0  0  0  0  0  0  0  0  0  0  0
    4.3083   -1.5117    0.0000 C   0  0  0  0  0  0  0  0  0  0  0  0
    8.7711   -0.0342    0.0000 C   0  0  0  0  0  0  0  0  0  0  0  0
    8.7877    2.1212    0.0000 C   0  0  0  0  0  0  0  0  0  0  0  0
    3.4022   -0.9978    0.0000 C   0  0  0  0  0  0  0  0  0  0  0  0
    3.4022    0.0438    0.0000 C   0  0  0  0  0  0  0  0  0  0  0  0
    9.7190    0.4937    0.0000 C   0  0  0  0  0  0  0  0  0  0  0  0
    9.7274    1.5787    0.0000 C   0  0  0  0  0  0  0  0  0  0  0  0
    7.4712   -1.2870    0.0000 H   0  0  0  0  0  0  0  0  0  0  0  0
    5.5117    1.8683    0.0000 H   0  0  0  0  0  0  0  0  0  0  0  0
    6.0682   -2.0970    0.0000 H   0  0  0  0  0  0  0  0  0  0  0  0
    6.9478    2.7122    0.0000 H   0  0  0  0  0  0  0  0  0  0  0  0
    4.3154    1.1776    0.0000 H   0  0  0  0  0  0  0  0  0  0  0  0
    4.3154   -2.1316    0.0000 H   0  0  0  0  0  0  0  0  0  0  0  0
    8.7592   -0.6541    0.0000 H   0  0  0  0  0  0  0  0  0  0  0  0
    8.7853    2.7412    0.0000 H   0  0  0  0  0  0  0  0  0  0  0  0
    2.8665    0.3559    0.0000 H   0  0  0  0  0  0  0  0  0  0  0  0
   10.2523    0.1775    0.0000 H   0  0  0  0  0  0  0  0  0  0  0  0
   10.2655    1.8866    0.0000 H   0  0  0  0  0  0  0  0  0  0  0  0
    2.0000   -1.1932    0.0000 H   0  0  0  0  0  0  0  0  0  0  0  0
    2.5405   -2.1212    0.0000 H   0  0  0  0  0  0  0  0  0  0  0  0
  1 16  1  0  0  0  0
  1 31  1  0  0  0  0
  1 32  1  0  0  0  0
  2  3  2  0  0  0  0
  2  4  1  0  0  0  0
  2  9  1  0  0  0  0
  3  5  1  0  0  0  0
  3  8  1  0  0  0  0
  4  6  2  0  0  0  0
  4 12  1  0  0  0  0
  5  7  1  0  0  0  0
  5 14  2  0  0  0  0
  6 10  1  0  0  0  0
  6 13  1  0  0  0  0
  7 11  1  0  0  0  0
  7 15  2  0  0  0  0
  8 10  2  0  0  0  0
  8 20  1  0  0  0  0
  9 11  2  0  0  0  0
  9 21  1  0  0  0  0
 10 22  1  0  0  0  0
 11 23  1  0  0  0  0
 12 17  2  0  0  0  0
 12 24  1  0  0  0  0
 13 16  2  0  0  0  0
 13 25  1  0  0  0  0
 14 18  1  0  0  0  0
 14 26  1  0  0  0  0
 15 19  1  0  0  0  0
 15 27  1  0  0  0  0
 16 17  1  0  0  0  0
 17 28  1  0  0  0  0
 18 19  2  0  0  0  0
 18 29  1  0  0  0  0
 19 30  1  0  0  0  0
M  END
> <PUBCHEM_COMPOUND_CID>
13092

> <PUBCHEM_COMPOUND_CANONICALIZED>
1

> <PUBCHEM_CACTVS_COMPLEXITY>
326

> <PUBCHEM_CACTVS_HBOND_ACCEPTOR>
1

> <PUBCHEM_CACTVS_HBOND_DONOR>
1

> <PUBCHEM_CACTVS_ROTATABLE_BOND>
0

> <PUBCHEM_CACTVS_SUBSKEYS>
AAADccB6AAAAAAAAAAAAAAAAAAAAAAAAAAAwYMGAAAAAAADBVAAAHAAQAAAADAiBGAAwwMBAAACAAiRCQACCAAAgAgAIiAAAZIgIICKAkZGAIABgkAAIyAcQgMAOyAACQAAQAACQAASAACAAAAAAAAAAAA==

> <PUBCHEM_IUPAC_OPENEYE_NAME>
chrysen-2-amine

> <PUBCHEM_IUPAC_CAS_NAME>
2-chrysenamine

> <PUBCHEM_IUPAC_NAME>
chrysen-2-amine

> <PUBCHEM_IUPAC_SYSTEMATIC_NAME>
chrysen-2-amine

> <PUBCHEM_IUPAC_TRADITIONAL_NAME>
chrysen-2-ylamine

> <PUBCHEM_IUPAC_INCHI>
InChI=1S/C18H13N/c19-14-7-10-16-13(11-14)6-9-17-15-4-2-1-3-12(15)5-8-18(16)17/h1-11H,19H2

> <PUBCHEM_IUPAC_INCHIKEY>
KSDIHKMNSYWRFB-UHFFFAOYSA-N

> <PUBCHEM_XLOGP3>
4.8

> <PUBCHEM_EXACT_MASS>
243.104799

> <PUBCHEM_MOLECULAR_FORMULA>
C18H13N

> <PUBCHEM_MOLECULAR_WEIGHT>
243.30252

> <PUBCHEM_OPENEYE_CAN_SMILES>
C1=CC=C2C(=C1)C=CC3=C2C=CC4=C3C=CC(=C4)N

> <PUBCHEM_OPENEYE_ISO_SMILES>
C1=CC=C2C(=C1)C=CC3=C2C=CC4=C3C=CC(=C4)N

> <PUBCHEM_CACTVS_TPSA>
26

> <PUBCHEM_MONOISOTOPIC_WEIGHT>
243.104799

> <PUBCHEM_TOTAL_CHARGE>
0

> <PUBCHEM_HEAVY_ATOM_COUNT>
19

> <PUBCHEM_ATOM_DEF_STEREO_COUNT>
0

> <PUBCHEM_ATOM_UDEF_STEREO_COUNT>
0

> <PUBCHEM_BOND_DEF_STEREO_COUNT>
0

> <PUBCHEM_BOND_UDEF_STEREO_COUNT>
0

> <PUBCHEM_ISOTOPIC_ATOM_COUNT>
0

> <PUBCHEM_COMPONENT_COUNT>
1

> <PUBCHEM_CACTVS_TAUTO_COUNT>
1

> <PUBCHEM_COORDINATE_TYPE>
1
5
255

> <PUBCHEM_BONDANNOTATIONS>
12  17  8
13  16  8
14  18  8
15  19  8
16  17  8
18  19  8
2  3  8
2  4  8
2  9  8
3  5  8
3  8  8
4  12  8
4  6  8
5  14  8
5  7  8
6  10  8
6  13  8
7  11  8
7  15  8
8  10  8
9  11  8

$$$$

