11383
  -OEChem-06261205362D

 26 26  0     0  0  0  0  0  0999 V2000
    3.7320   -0.2500    0.0000 O   0  0  0  0  0  0  0  0  0  0  0  0
    7.1962    0.7500    0.0000 O   0  0  0  0  0  0  0  0  0  0  0  0
    5.4641    0.7500    0.0000 N   0  0  0  0  0  0  0  0  0  0  0  0
    5.4641   -0.2500    0.0000 C   0  0  0  0  0  0  0  0  0  0  0  0
    4.5981   -0.7500    0.0000 C   0  0  0  0  0  0  0  0  0  0  0  0
    6.3301   -0.7500    0.0000 C   0  0  0  0  0  0  0  0  0  0  0  0
    4.5981   -1.7500    0.0000 C   0  0  0  0  0  0  0  0  0  0  0  0
    2.8660   -0.7500    0.0000 C   0  0  0  0  0  0  0  0  0  0  0  0
    6.3301   -1.7500    0.0000 C   0  0  0  0  0  0  0  0  0  0  0  0
    5.4641   -2.2500    0.0000 C   0  0  0  0  0  0  0  0  0  0  0  0
    2.0000   -0.2500    0.0000 C   0  0  0  0  0  0  0  0  0  0  0  0
    6.3301    1.2500    0.0000 C   0  0  0  0  0  0  0  0  0  0  0  0
    6.3301    2.2500    0.0000 C   0  0  0  0  0  0  0  0  0  0  0  0
    6.8671   -0.4400    0.0000 H   0  0  0  0  0  0  0  0  0  0  0  0
    4.0611   -2.0600    0.0000 H   0  0  0  0  0  0  0  0  0  0  0  0
    2.4675   -1.2250    0.0000 H   0  0  0  0  0  0  0  0  0  0  0  0
    3.2646   -1.2250    0.0000 H   0  0  0  0  0  0  0  0  0  0  0  0
    4.9272    1.0600    0.0000 H   0  0  0  0  0  0  0  0  0  0  0  0
    6.8671   -2.0600    0.0000 H   0  0  0  0  0  0  0  0  0  0  0  0
    5.4641   -2.8700    0.0000 H   0  0  0  0  0  0  0  0  0  0  0  0
    2.3100    0.2869    0.0000 H   0  0  0  0  0  0  0  0  0  0  0  0
    1.4631    0.0600    0.0000 H   0  0  0  0  0  0  0  0  0  0  0  0
    1.6900   -0.7869    0.0000 H   0  0  0  0  0  0  0  0  0  0  0  0
    6.9501    2.2500    0.0000 H   0  0  0  0  0  0  0  0  0  0  0  0
    6.3301    2.8700    0.0000 H   0  0  0  0  0  0  0  0  0  0  0  0
    5.7101    2.2500    0.0000 H   0  0  0  0  0  0  0  0  0  0  0  0
  1  5  1  0  0  0  0
  1  8  1  0  0  0  0
  2 12  2  0  0  0  0
  3  4  1  0  0  0  0
  3 12  1  0  0  0  0
  3 18  1  0  0  0  0
  4  5  1  0  0  0  0
  4  6  2  0  0  0  0
  5  7  2  0  0  0  0
  6  9  1  0  0  0  0
  6 14  1  0  0  0  0
  7 10  1  0  0  0  0
  7 15  1  0  0  0  0
  8 11  1  0  0  0  0
  8 16  1  0  0  0  0
  8 17  1  0  0  0  0
  9 10  2  0  0  0  0
  9 19  1  0  0  0  0
 10 20  1  0  0  0  0
 11 21  1  0  0  0  0
 11 22  1  0  0  0  0
 11 23  1  0  0  0  0
 12 13  1  0  0  0  0
 13 24  1  0  0  0  0
 13 25  1  0  0  0  0
 13 26  1  0  0  0  0
M  END
> <PUBCHEM_COMPOUND_CID>
11383

> <PUBCHEM_COMPOUND_CANONICALIZED>
1

> <PUBCHEM_CACTVS_COMPLEXITY>
170

> <PUBCHEM_CACTVS_HBOND_ACCEPTOR>
2

> <PUBCHEM_CACTVS_HBOND_DONOR>
1

> <PUBCHEM_CACTVS_ROTATABLE_BOND>
3

> <PUBCHEM_CACTVS_SUBSKEYS>
AAADccByMAAAAAAAAAAAAAAAAAAAAAAAAAAwAAAAAAAAAAABAAAAHgAQAAAACAyhkAIyxoLABACIACVSUACCCAAhIgAIiAAHbIgOJiLEsZuHOCjk1BHY6AeQQAAAAAAAAAAAEAAAAAAAAAAgAAAAAAAAAA==

> <PUBCHEM_IUPAC_OPENEYE_NAME>
N-(2-ethoxyphenyl)acetamide

> <PUBCHEM_IUPAC_CAS_NAME>
N-(2-ethoxyphenyl)acetamide

> <PUBCHEM_IUPAC_NAME>
N-(2-ethoxyphenyl)acetamide

> <PUBCHEM_IUPAC_SYSTEMATIC_NAME>
N-(2-ethoxyphenyl)ethanamide

> <PUBCHEM_IUPAC_TRADITIONAL_NAME>
N-o-phenetylacetamide

> <PUBCHEM_IUPAC_INCHI>
InChI=1S/C10H13NO2/c1-3-13-10-7-5-4-6-9(10)11-8(2)12/h4-7H,3H2,1-2H3,(H,11,12)

> <PUBCHEM_IUPAC_INCHIKEY>
SQRTWLGWCOJOTO-UHFFFAOYSA-N

> <PUBCHEM_XLOGP3>
1.5

> <PUBCHEM_EXACT_MASS>
179.094629

> <PUBCHEM_MOLECULAR_FORMULA>
C10H13NO2

> <PUBCHEM_MOLECULAR_WEIGHT>
179.21572

> <PUBCHEM_OPENEYE_CAN_SMILES>
CCOC1=CC=CC=C1NC(=O)C

> <PUBCHEM_OPENEYE_ISO_SMILES>
CCOC1=CC=CC=C1NC(=O)C

> <PUBCHEM_CACTVS_TPSA>
38.3

> <PUBCHEM_MONOISOTOPIC_WEIGHT>
179.094629

> <PUBCHEM_TOTAL_CHARGE>
0

> <PUBCHEM_HEAVY_ATOM_COUNT>
13

> <PUBCHEM_ATOM_DEF_STEREO_COUNT>
0

> <PUBCHEM_ATOM_UDEF_STEREO_COUNT>
0

> <PUBCHEM_BOND_DEF_STEREO_COUNT>
0

> <PUBCHEM_BOND_UDEF_STEREO_COUNT>
0

> <PUBCHEM_ISOTOPIC_ATOM_COUNT>
0

> <PUBCHEM_COMPONENT_COUNT>
1

> <PUBCHEM_CACTVS_TAUTO_COUNT>
3

> <PUBCHEM_COORDINATE_TYPE>
1
5
255

> <PUBCHEM_BONDANNOTATIONS>
4  5  8
4  6  8
5  7  8
6  9  8
7  10  8
9  10  8

$$$$

