13528
  -OEChem-06241222392D

 11 10  0     0  0  0  0  0  0999 V2000
    4.5981   -0.2500    0.0000 Cl  0  0  0  0  0  0  0  0  0  0  0  0
    3.7320    1.2500    0.0000 O   0  0  0  0  0  0  0  0  0  0  0  0
    2.8660   -0.2500    0.0000 C   0  0  0  0  0  0  0  0  0  0  0  0
    2.0000    0.2500    0.0000 C   0  0  0  0  0  0  0  0  0  0  0  0
    3.7320    0.2500    0.0000 C   0  0  0  0  0  0  0  0  0  0  0  0
    2.8660   -1.2500    0.0000 C   0  0  0  0  0  0  0  0  0  0  0  0
    2.3100    0.7869    0.0000 H   0  0  0  0  0  0  0  0  0  0  0  0
    1.4631    0.5600    0.0000 H   0  0  0  0  0  0  0  0  0  0  0  0
    1.6900   -0.2869    0.0000 H   0  0  0  0  0  0  0  0  0  0  0  0
    2.3291   -1.5600    0.0000 H   0  0  0  0  0  0  0  0  0  0  0  0
    3.4030   -1.5600    0.0000 H   0  0  0  0  0  0  0  0  0  0  0  0
  1  5  1  0  0  0  0
  2  5  2  0  0  0  0
  3  4  1  0  0  0  0
  3  5  1  0  0  0  0
  3  6  2  0  0  0  0
  4  7  1  0  0  0  0
  4  8  1  0  0  0  0
  4  9  1  0  0  0  0
  6 10  1  0  0  0  0
  6 11  1  0  0  0  0
M  END
> <PUBCHEM_COMPOUND_CID>
13528

> <PUBCHEM_COMPOUND_CANONICALIZED>
1

> <PUBCHEM_CACTVS_COMPLEXITY>
85.5

> <PUBCHEM_CACTVS_HBOND_ACCEPTOR>
1

> <PUBCHEM_CACTVS_HBOND_DONOR>
0

> <PUBCHEM_CACTVS_ROTATABLE_BOND>
1

> <PUBCHEM_CACTVS_SUBSKEYS>
AAADcYBgIAAEAAAAAAAAAAAAAAAAAAAAAAAAAAAAAAAAAAAAAAAAGgIAAAAADAKAgAACAAAAAACIAkBaAAAAAAAAAAAAAAEAAkAAAAAAAQAAAAAAAAAAAIAAAAAAAAAAAAAAAAAAAAAAAAAAAAAAAAAAAA==

> <PUBCHEM_IUPAC_OPENEYE_NAME>
2-methylprop-2-enoyl chloride

> <PUBCHEM_IUPAC_CAS_NAME>
2-methyl-2-propenoyl chloride

> <PUBCHEM_IUPAC_NAME>
2-methylprop-2-enoyl chloride

> <PUBCHEM_IUPAC_SYSTEMATIC_NAME>
2-methylprop-2-enoyl chloride

> <PUBCHEM_IUPAC_TRADITIONAL_NAME>
2-methylacryloyl chloride

> <PUBCHEM_IUPAC_INCHI>
InChI=1S/C4H5ClO/c1-3(2)4(5)6/h1H2,2H3

> <PUBCHEM_IUPAC_INCHIKEY>
VHRYZQNGTZXDNX-UHFFFAOYSA-N

> <PUBCHEM_XLOGP3_AA>
1.7

> <PUBCHEM_EXACT_MASS>
104.002892

> <PUBCHEM_MOLECULAR_FORMULA>
C4H5ClO

> <PUBCHEM_MOLECULAR_WEIGHT>
104.5349

> <PUBCHEM_OPENEYE_CAN_SMILES>
CC(=C)C(=O)Cl

> <PUBCHEM_OPENEYE_ISO_SMILES>
CC(=C)C(=O)Cl

> <PUBCHEM_CACTVS_TPSA>
17.1

> <PUBCHEM_MONOISOTOPIC_WEIGHT>
104.002892

> <PUBCHEM_TOTAL_CHARGE>
0

> <PUBCHEM_HEAVY_ATOM_COUNT>
6

> <PUBCHEM_ATOM_DEF_STEREO_COUNT>
0

> <PUBCHEM_ATOM_UDEF_STEREO_COUNT>
0

> <PUBCHEM_BOND_DEF_STEREO_COUNT>
0

> <PUBCHEM_BOND_UDEF_STEREO_COUNT>
0

> <PUBCHEM_ISOTOPIC_ATOM_COUNT>
0

> <PUBCHEM_COMPONENT_COUNT>
1

> <PUBCHEM_CACTVS_TAUTO_COUNT>
1

> <PUBCHEM_COORDINATE_TYPE>
1
5
255

$$$$

