854346
  -OEChem-06241222482D

 47 49  0     1  0  0  0  0  0999 V2000
    5.4641   -3.3100    0.0000 F   0  0  0  0  0  0  0  0  0  0  0  0
    7.2125   -0.3446    0.0000 O   0  0  0  0  0  0  0  0  0  0  0  0
    2.8660    1.1900    0.0000 O   0  0  0  0  0  0  0  0  0  0  0  0
    3.7321   -0.3100    0.0000 O   0  0  0  0  0  0  0  0  0  0  0  0
    5.4641    2.6900    0.0000 N   0  0  0  0  0  0  0  0  0  0  0  0
    8.1301    2.2108    0.0000 C   0  0  0  0  0  0  0  0  0  0  0  0
    7.2241    2.7247    0.0000 C   0  0  0  0  0  0  0  0  0  0  0  0
    8.1301    1.1692    0.0000 C   0  0  0  0  0  0  0  0  0  0  0  0
    6.3301    2.1900    0.0000 C   0  0  0  0  0  0  0  0  0  0  0  0
    6.3301    1.1900    0.0000 C   0  0  0  0  0  0  0  0  0  0  0  0
    5.4641    0.6900    0.0000 C   0  0  1  0  0  0  0  0  0  0  0  0
    7.2241    0.6553    0.0000 C   0  0  0  0  0  0  0  0  0  0  0  0
    9.1301    2.2147    0.0000 C   0  0  0  0  0  0  0  0  0  0  0  0
    8.6268    3.0788    0.0000 C   0  0  0  0  0  0  0  0  0  0  0  0
    4.5981    1.1900    0.0000 C   0  0  0  0  0  0  0  0  0  0  0  0
    4.5981    2.1900    0.0000 C   0  0  0  0  0  0  0  0  0  0  0  0
    5.4641   -0.3100    0.0000 C   0  0  0  0  0  0  0  0  0  0  0  0
    3.7321    2.6900    0.0000 C   0  0  0  0  0  0  0  0  0  0  0  0
    3.7321    0.6900    0.0000 C   0  0  0  0  0  0  0  0  0  0  0  0
    6.3301   -0.8100    0.0000 C   0  0  0  0  0  0  0  0  0  0  0  0
    4.5981   -0.8100    0.0000 C   0  0  0  0  0  0  0  0  0  0  0  0
    6.3301   -1.8100    0.0000 C   0  0  0  0  0  0  0  0  0  0  0  0
    4.5981   -1.8100    0.0000 C   0  0  0  0  0  0  0  0  0  0  0  0
    5.4641   -2.3100    0.0000 C   0  0  0  0  0  0  0  0  0  0  0  0
    2.0000    0.6900    0.0000 C   0  0  0  0  0  0  0  0  0  0  0  0
    7.6177    3.2037    0.0000 H   0  0  0  0  0  0  0  0  0  0  0  0
    6.8195    3.1944    0.0000 H   0  0  0  0  0  0  0  0  0  0  0  0
    8.3392    0.5855    0.0000 H   0  0  0  0  0  0  0  0  0  0  0  0
    8.7410    1.2753    0.0000 H   0  0  0  0  0  0  0  0  0  0  0  0
    4.9272    0.3800    0.0000 H   0  0  0  0  0  0  0  0  0  0  0  0
    9.1325    1.5947    0.0000 H   0  0  0  0  0  0  0  0  0  0  0  0
    9.7501    2.2171    0.0000 H   0  0  0  0  0  0  0  0  0  0  0  0
    9.1277    2.8347    0.0000 H   0  0  0  0  0  0  0  0  0  0  0  0
    9.1649    2.7708    0.0000 H   0  0  0  0  0  0  0  0  0  0  0  0
    8.9347    3.6169    0.0000 H   0  0  0  0  0  0  0  0  0  0  0  0
    8.0887    3.3867    0.0000 H   0  0  0  0  0  0  0  0  0  0  0  0
    5.4641    3.3100    0.0000 H   0  0  0  0  0  0  0  0  0  0  0  0
    4.0421    3.2269    0.0000 H   0  0  0  0  0  0  0  0  0  0  0  0
    3.4221    2.1531    0.0000 H   0  0  0  0  0  0  0  0  0  0  0  0
    3.1951    3.0000    0.0000 H   0  0  0  0  0  0  0  0  0  0  0  0
    6.8671   -0.5000    0.0000 H   0  0  0  0  0  0  0  0  0  0  0  0
    4.0611   -0.5000    0.0000 H   0  0  0  0  0  0  0  0  0  0  0  0
    6.8671   -2.1200    0.0000 H   0  0  0  0  0  0  0  0  0  0  0  0
    4.0611   -2.1200    0.0000 H   0  0  0  0  0  0  0  0  0  0  0  0
    2.3100    0.1531    0.0000 H   0  0  0  0  0  0  0  0  0  0  0  0
    1.6900    1.2269    0.0000 H   0  0  0  0  0  0  0  0  0  0  0  0
    1.4631    0.3800    0.0000 H   0  0  0  0  0  0  0  0  0  0  0  0
  1 24  1  0  0  0  0
  2 12  2  0  0  0  0
  3 19  1  0  0  0  0
  3 25  1  0  0  0  0
  4 19  2  0  0  0  0
  5  9  1  0  0  0  0
  5 16  1  0  0  0  0
  5 37  1  0  0  0  0
  6  7  1  0  0  0  0
  6  8  1  0  0  0  0
  6 13  1  0  0  0  0
  6 14  1  0  0  0  0
  7  9  1  0  0  0  0
  7 26  1  0  0  0  0
  7 27  1  0  0  0  0
  8 12  1  0  0  0  0
  8 28  1  0  0  0  0
  8 29  1  0  0  0  0
  9 10  2  0  0  0  0
 10 11  1  0  0  0  0
 10 12  1  0  0  0  0
 11 15  1  0  0  0  0
 11 17  1  6  0  0  0
 11 30  1  0  0  0  0
 13 31  1  0  0  0  0
 13 32  1  0  0  0  0
 13 33  1  0  0  0  0
 14 34  1  0  0  0  0
 14 35  1  0  0  0  0
 14 36  1  0  0  0  0
 15 16  2  0  0  0  0
 15 19  1  0  0  0  0
 16 18  1  0  0  0  0
 17 20  2  0  0  0  0
 17 21  1  0  0  0  0
 18 38  1  0  0  0  0
 18 39  1  0  0  0  0
 18 40  1  0  0  0  0
 20 22  1  0  0  0  0
 20 41  1  0  0  0  0
 21 23  2  0  0  0  0
 21 42  1  0  0  0  0
 22 24  2  0  0  0  0
 22 43  1  0  0  0  0
 23 24  1  0  0  0  0
 23 44  1  0  0  0  0
 25 45  1  0  0  0  0
 25 46  1  0  0  0  0
 25 47  1  0  0  0  0
M  END
> <PUBCHEM_COMPOUND_CID>
854346

> <PUBCHEM_COMPOUND_CANONICALIZED>
1

> <PUBCHEM_CACTVS_COMPLEXITY>
654

> <PUBCHEM_CACTVS_HBOND_ACCEPTOR>
5

> <PUBCHEM_CACTVS_HBOND_DONOR>
1

> <PUBCHEM_CACTVS_ROTATABLE_BOND>
3

> <PUBCHEM_CACTVS_SUBSKEYS>
AAADceB6MQAAAAAAAAAAAAAAAAAAAAAAAAAwQIAAAAAAAACBAAAAHwAQAAAADwyBmAoyCILABACIAqTSSAACAAAgAAAIiAEAAMgIJDKAsRCEMAAkkACIqUeYz+CvgAAAAAAAAAAAAAAAAAAAAAAAAAAAAA==

> <PUBCHEM_IUPAC_OPENEYE_NAME>
methyl (4S)-4-(4-fluorophenyl)-2,7,7-trimethyl-5-oxo-1,4,6,8-tetrahydroquinoline-3-carboxylate

> <PUBCHEM_IUPAC_CAS_NAME>
(4S)-4-(4-fluorophenyl)-2,7,7-trimethyl-5-oxo-1,4,6,8-tetrahydroquinoline-3-carboxylic acid methyl ester

> <PUBCHEM_IUPAC_NAME>
methyl (4S)-4-(4-fluorophenyl)-2,7,7-trimethyl-5-oxo-1,4,6,8-tetrahydroquinoline-3-carboxylate

> <PUBCHEM_IUPAC_SYSTEMATIC_NAME>
methyl (4S)-4-(4-fluorophenyl)-2,7,7-trimethyl-5-oxidanylidene-1,4,6,8-tetrahydroquinoline-3-carboxylate

> <PUBCHEM_IUPAC_TRADITIONAL_NAME>
(4S)-4-(4-fluorophenyl)-5-keto-2,7,7-trimethyl-1,4,6,8-tetrahydroquinoline-3-carboxylic acid methyl ester

> <PUBCHEM_IUPAC_INCHI>
InChI=1S/C20H22FNO3/c1-11-16(19(24)25-4)17(12-5-7-13(21)8-6-12)18-14(22-11)9-20(2,3)10-15(18)23/h5-8,17,22H,9-10H2,1-4H3/t17-/m1/s1

> <PUBCHEM_IUPAC_INCHIKEY>
WQILEHOWELHMKE-QGZVFWFLSA-N

> <PUBCHEM_XLOGP3_AA>
3.4

> <PUBCHEM_EXACT_MASS>
343.158372

> <PUBCHEM_MOLECULAR_FORMULA>
C20H22FNO3

> <PUBCHEM_MOLECULAR_WEIGHT>
343.391983

> <PUBCHEM_OPENEYE_CAN_SMILES>
CC1=C(C(C2=C(N1)CC(CC2=O)(C)C)C3=CC=C(C=C3)F)C(=O)OC

> <PUBCHEM_OPENEYE_ISO_SMILES>
CC1=C([C@H](C2=C(N1)CC(CC2=O)(C)C)C3=CC=C(C=C3)F)C(=O)OC

> <PUBCHEM_CACTVS_TPSA>
55.4

> <PUBCHEM_MONOISOTOPIC_WEIGHT>
343.158372

> <PUBCHEM_TOTAL_CHARGE>
0

> <PUBCHEM_HEAVY_ATOM_COUNT>
25

> <PUBCHEM_ATOM_DEF_STEREO_COUNT>
1

> <PUBCHEM_ATOM_UDEF_STEREO_COUNT>
0

> <PUBCHEM_BOND_DEF_STEREO_COUNT>
0

> <PUBCHEM_BOND_UDEF_STEREO_COUNT>
0

> <PUBCHEM_ISOTOPIC_ATOM_COUNT>
0

> <PUBCHEM_COMPONENT_COUNT>
1

> <PUBCHEM_CACTVS_TAUTO_COUNT>
13

> <PUBCHEM_COORDINATE_TYPE>
1
5
255

> <PUBCHEM_BONDANNOTATIONS>
11  17  6
17  20  8
17  21  8
20  22  8
21  23  8
22  24  8
23  24  8

$$$$

