5021
  -OEChem-06261200282D

 40 43  0     1  0  0  0  0  0999 V2000
    4.6497    1.7484    0.0000 O   0  0  0  0  0  0  0  0  0  0  0  0
    2.8680    0.7380    0.0000 O   0  0  0  0  0  0  0  0  0  0  0  0
    8.1223   -1.2831    0.0000 N   0  0  3  0  0  0  0  0  0  0  0  0
    7.2641   -0.7862    0.0000 C   0  0  3  0  0  0  0  0  0  0  0  0
    7.2641    0.2138    0.0000 C   0  0  0  0  0  0  0  0  0  0  0  0
    6.3981   -1.2862    0.0000 C   0  0  0  0  0  0  0  0  0  0  0  0
    8.1741    0.7207    0.0000 C   0  0  0  0  0  0  0  0  0  0  0  0
    8.9878   -0.7989    0.0000 C   0  0  0  0  0  0  0  0  0  0  0  0
    9.0134    0.1924    0.0000 C   0  0  0  0  0  0  0  0  0  0  0  0
    6.3981    0.7138    0.0000 C   0  0  0  0  0  0  0  0  0  0  0  0
    5.5320   -0.7862    0.0000 C   0  0  0  0  0  0  0  0  0  0  0  0
    5.5320    0.2138    0.0000 C   0  0  0  0  0  0  0  0  0  0  0  0
    8.1149   -2.2831    0.0000 C   0  0  0  0  0  0  0  0  0  0  0  0
    8.1821    1.7623    0.0000 C   0  0  0  0  0  0  0  0  0  0  0  0
    6.3820    1.7553    0.0000 C   0  0  0  0  0  0  0  0  0  0  0  0
    4.6381   -1.3208    0.0000 C   0  0  0  0  0  0  0  0  0  0  0  0
    4.6381    0.7485    0.0000 C   0  0  0  0  0  0  0  0  0  0  0  0
    7.2800    2.2831    0.0000 C   0  0  0  0  0  0  0  0  0  0  0  0
    3.7320    0.2346    0.0000 C   0  0  0  0  0  0  0  0  0  0  0  0
    3.7320   -0.8070    0.0000 C   0  0  0  0  0  0  0  0  0  0  0  0
    2.0000    0.2413    0.0000 C   0  0  0  0  0  0  0  0  0  0  0  0
    7.2637   -1.4062    0.0000 H   0  0  0  0  0  0  0  0  0  0  0  0
    5.9995   -1.7611    0.0000 H   0  0  0  0  0  0  0  0  0  0  0  0
    6.7966   -1.7611    0.0000 H   0  0  0  0  0  0  0  0  0  0  0  0
    9.1895   -1.3852    0.0000 H   0  0  0  0  0  0  0  0  0  0  0  0
    9.6006   -0.7046    0.0000 H   0  0  0  0  0  0  0  0  0  0  0  0
    9.6205    0.0665    0.0000 H   0  0  0  0  0  0  0  0  0  0  0  0
    9.2452    0.7675    0.0000 H   0  0  0  0  0  0  0  0  0  0  0  0
    7.4949   -2.2785    0.0000 H   0  0  0  0  0  0  0  0  0  0  0  0
    8.1103   -2.9031    0.0000 H   0  0  0  0  0  0  0  0  0  0  0  0
    8.7349   -2.2877    0.0000 H   0  0  0  0  0  0  0  0  0  0  0  0
    8.7203    2.0702    0.0000 H   0  0  0  0  0  0  0  0  0  0  0  0
    5.8415    2.0591    0.0000 H   0  0  0  0  0  0  0  0  0  0  0  0
    4.6453   -1.9408    0.0000 H   0  0  0  0  0  0  0  0  0  0  0  0
    7.2777    2.9031    0.0000 H   0  0  0  0  0  0  0  0  0  0  0  0
    3.1963   -1.1191    0.0000 H   0  0  0  0  0  0  0  0  0  0  0  0
    4.1164    2.0646    0.0000 H   0  0  0  0  0  0  0  0  0  0  0  0
    1.6921    0.7794    0.0000 H   0  0  0  0  0  0  0  0  0  0  0  0
    1.4619   -0.0666    0.0000 H   0  0  0  0  0  0  0  0  0  0  0  0
    2.3079   -0.2968    0.0000 H   0  0  0  0  0  0  0  0  0  0  0  0
  1 17  1  0  0  0  0
  1 37  1  0  0  0  0
  2 19  1  0  0  0  0
  2 21  1  0  0  0  0
  3  4  1  0  0  0  0
  3  8  1  0  0  0  0
  3 13  1  0  0  0  0
  4  5  1  0  0  0  0
  4  6  1  0  0  0  0
  4 22  1  0  0  0  0
  5  7  2  0  0  0  0
  5 10  1  0  0  0  0
  6 11  1  0  0  0  0
  6 23  1  0  0  0  0
  6 24  1  0  0  0  0
  7  9  1  0  0  0  0
  7 14  1  0  0  0  0
  8  9  1  0  0  0  0
  8 25  1  0  0  0  0
  8 26  1  0  0  0  0
  9 27  1  0  0  0  0
  9 28  1  0  0  0  0
 10 12  1  0  0  0  0
 10 15  2  0  0  0  0
 11 12  2  0  0  0  0
 11 16  1  0  0  0  0
 12 17  1  0  0  0  0
 13 29  1  0  0  0  0
 13 30  1  0  0  0  0
 13 31  1  0  0  0  0
 14 18  2  0  0  0  0
 14 32  1  0  0  0  0
 15 18  1  0  0  0  0
 15 33  1  0  0  0  0
 16 20  2  0  0  0  0
 16 34  1  0  0  0  0
 17 19  2  0  0  0  0
 18 35  1  0  0  0  0
 19 20  1  0  0  0  0
 20 36  1  0  0  0  0
 21 38  1  0  0  0  0
 21 39  1  0  0  0  0
 21 40  1  0  0  0  0
M  END
> <PUBCHEM_COMPOUND_CID>
5021

> <PUBCHEM_COMPOUND_CANONICALIZED>
1

> <PUBCHEM_CACTVS_COMPLEXITY>
387

> <PUBCHEM_CACTVS_HBOND_ACCEPTOR>
3

> <PUBCHEM_CACTVS_HBOND_DONOR>
1

> <PUBCHEM_CACTVS_ROTATABLE_BOND>
1

> <PUBCHEM_CACTVS_SUBSKEYS>
AAADceB6MAAAAAAAAAAAAAAAAAAAAAAAAAA8YMEAAAAAAADxQAAAHgAACAAADCzBmAYyBoMABgCAAiBCAACCCAAgIAAIiAAOjIgNJiKGsRuEcCtkwBGLuAeQ0PMOoAADAAAYQADQAAaAADSAAAAAAAAAAA==

> <PUBCHEM_IUPAC_OPENEYE_NAME>
13-methoxy-7-methyl-5,6,6a,7-tetrahydro-4H-dibenzo[de,g]quinoline-14-ol

> <PUBCHEM_IUPAC_CAS_NAME>
13-methoxy-7-methyl-5,6,6a,7-tetrahydro-4H-dibenzo[de,g]quinoline-14-ol

> <PUBCHEM_IUPAC_NAME>
13-methoxy-7-methyl-5,6,6a,7-tetrahydro-4H-dibenzo[de,g]quinoline-14-ol

> <PUBCHEM_IUPAC_SYSTEMATIC_NAME>
13-methoxy-7-methyl-5,6,6a,7-tetrahydro-4H-dibenzo[de,g]quinoline-14-ol

> <PUBCHEM_IUPAC_TRADITIONAL_NAME>
13-methoxy-7-methyl-5,6,6a,7-tetrahydro-4H-dibenzo[de,g]quinoline-14-ol

> <PUBCHEM_IUPAC_INCHI>
InChI=1S/C18H19NO2/c1-19-9-8-11-4-3-5-13-16(11)14(19)10-12-6-7-15(21-2)18(20)17(12)13/h3-7,14,20H,8-10H2,1-2H3

> <PUBCHEM_IUPAC_INCHIKEY>
DZUOQMBJJSBONO-UHFFFAOYSA-N

> <PUBCHEM_XLOGP3>
2.6

> <PUBCHEM_EXACT_MASS>
281.141579

> <PUBCHEM_MOLECULAR_FORMULA>
C18H19NO2

> <PUBCHEM_MOLECULAR_WEIGHT>
281.34896

> <PUBCHEM_OPENEYE_CAN_SMILES>
CN1CCC2=CC=CC3=C2C1CC4=C3C(=C(C=C4)OC)O

> <PUBCHEM_OPENEYE_ISO_SMILES>
CN1CCC2=CC=CC3=C2C1CC4=C3C(=C(C=C4)OC)O

> <PUBCHEM_CACTVS_TPSA>
32.7

> <PUBCHEM_MONOISOTOPIC_WEIGHT>
281.141579

> <PUBCHEM_TOTAL_CHARGE>
0

> <PUBCHEM_HEAVY_ATOM_COUNT>
21

> <PUBCHEM_ATOM_DEF_STEREO_COUNT>
0

> <PUBCHEM_ATOM_UDEF_STEREO_COUNT>
1

> <PUBCHEM_BOND_DEF_STEREO_COUNT>
0

> <PUBCHEM_BOND_UDEF_STEREO_COUNT>
0

> <PUBCHEM_ISOTOPIC_ATOM_COUNT>
0

> <PUBCHEM_COMPONENT_COUNT>
1

> <PUBCHEM_CACTVS_TAUTO_COUNT>
9

> <PUBCHEM_COORDINATE_TYPE>
1
5
255

> <PUBCHEM_BONDANNOTATIONS>
10  15  8
11  12  8
11  16  8
12  17  8
14  18  8
15  18  8
16  20  8
17  19  8
19  20  8
4  6  3
5  10  8
5  7  8
7  14  8

$$$$

