3850
  -OEChem-06251223432D

126129  0     1  0  0  0  0  0999 V2000
    8.7472   -2.9379    0.0000 O   0  0  0  0  0  0  0  0  0  0  0  0
    7.5201   -4.3907    0.0000 O   0  0  0  0  0  0  0  0  0  0  0  0
    6.3724   -3.7040    0.0000 O   0  0  0  0  0  0  0  0  0  0  0  0
    8.7472   -1.9379    0.0000 O   0  0  0  0  0  0  0  0  0  0  0  0
    8.6813   -0.7059    0.0000 O   0  0  0  0  0  0  0  0  0  0  0  0
    9.4585    4.1769    0.0000 O   0  0  0  0  0  0  0  0  0  0  0  0
   11.1221   -3.7039    0.0000 O   0  0  0  0  0  0  0  0  0  0  0  0
    7.5791    4.8609    0.0000 O   0  0  0  0  0  0  0  0  0  0  0  0
    5.4243   -4.5287    0.0000 O   0  0  0  0  0  0  0  0  0  0  0  0
   12.2113   -2.9379    0.0000 O   0  0  0  0  0  0  0  0  0  0  0  0
    5.9733   -0.1322    0.0000 O   0  0  0  0  0  0  0  0  0  0  0  0
   10.5047   -1.8910    0.0000 O   0  0  0  0  0  0  0  0  0  0  0  0
    4.5833   -0.0719    0.0000 O   0  0  0  0  0  0  0  0  0  0  0  0
   11.3452   -1.4379    0.0000 N   0  0  0  0  0  0  0  0  0  0  0  0
    7.8811   -2.4379    0.0000 C   0  0  3  0  0  0  0  0  0  0  0  0
    9.6249   -3.4537    0.0000 C   0  0  3  0  0  0  0  0  0  0  0  0
    7.8694   -3.4537    0.0000 C   0  0  3  0  0  0  0  0  0  0  0  0
    8.7472   -3.9650    0.0000 C   0  0  0  0  0  0  0  0  0  0  0  0
    9.6132   -2.4379    0.0000 C   0  0  3  0  0  0  0  0  0  0  0  0
    7.0151   -2.9379    0.0000 C   0  0  3  0  0  0  0  0  0  0  0  0
    6.1491   -2.4379    0.0000 C   0  0  0  0  0  0  0  0  0  0  0  0
    5.1832   -2.6968    0.0000 C   0  0  3  0  0  0  0  0  0  0  0  0
    9.9742   -4.3907    0.0000 C   0  0  0  0  0  0  0  0  0  0  0  0
   10.4792   -2.9379    0.0000 C   0  0  0  0  0  0  0  0  0  0  0  0
    8.1001    1.9065    0.0000 C   0  0  3  0  0  0  0  0  0  0  0  0
    8.8661    2.5493    0.0000 C   0  0  0  0  0  0  0  0  0  0  0  0
    7.1604    2.2485    0.0000 C   0  0  0  0  0  0  0  0  0  0  0  0
    8.6925    3.5341    0.0000 C   0  0  3  0  0  0  0  0  0  0  0  0
    7.7528    3.8761    0.0000 C   0  0  3  0  0  0  0  0  0  0  0  0
   10.4792   -0.9379    0.0000 C   0  0  3  0  0  0  0  0  0  0  0  0
    4.9243   -3.6627    0.0000 C   0  0  3  0  0  0  0  0  0  0  0  0
    6.9867    3.2333    0.0000 C   0  0  0  0  0  0  0  0  0  0  0  0
   11.3452   -2.4379    0.0000 C   0  0  0  0  0  0  0  0  0  0  0  0
    7.6813   -0.7059    0.0000 C   0  0  3  0  0  0  0  0  0  0  0  0
   10.4792    0.0621    0.0000 C   0  0  0  0  0  0  0  0  0  0  0  0
   12.2113   -0.9379    0.0000 C   0  0  0  0  0  0  0  0  0  0  0  0
    7.1813   -1.5719    0.0000 C   0  0  3  0  0  0  0  0  0  0  0  0
    8.2737    0.9217    0.0000 C   0  0  0  0  0  0  0  0  0  0  0  0
    4.4760   -1.9896    0.0000 C   0  0  0  0  0  0  0  0  0  0  0  0
   11.3452    0.5621    0.0000 C   0  0  0  0  0  0  0  0  0  0  0  0
   12.2113    0.0621    0.0000 C   0  0  0  0  0  0  0  0  0  0  0  0
    7.5077    0.2789    0.0000 C   0  0  0  0  0  0  0  0  0  0  0  0
    3.9584   -3.4039    0.0000 C   0  0  0  0  0  0  0  0  0  0  0  0
    6.3153   -1.0719    0.0000 C   0  0  3  0  0  0  0  0  0  0  0  0
    9.6132   -1.4379    0.0000 C   0  0  0  0  0  0  0  0  0  0  0  0
    8.1570   -5.1617    0.0000 C   0  0  0  0  0  0  0  0  0  0  0  0
    5.4493   -1.5719    0.0000 C   0  0  0  0  0  0  0  0  0  0  0  0
    6.7143   -4.6437    0.0000 C   0  0  0  0  0  0  0  0  0  0  0  0
    3.7172   -1.5719    0.0000 C   0  0  3  0  0  0  0  0  0  0  0  0
    6.6953   -2.6142    0.0000 C   0  0  0  0  0  0  0  0  0  0  0  0
    3.4584   -2.5378    0.0000 C   0  0  0  0  0  0  0  0  0  0  0  0
    6.5680    0.6209    0.0000 C   0  0  0  0  0  0  0  0  0  0  0  0
    4.5833   -1.0719    0.0000 C   0  0  0  0  0  0  0  0  0  0  0  0
    3.3496   -4.1972    0.0000 C   0  0  0  0  0  0  0  0  0  0  0  0
    2.9239   -0.9632    0.0000 C   0  0  0  0  0  0  0  0  0  0  0  0
    9.2849    5.1617    0.0000 C   0  0  0  0  0  0  0  0  0  0  0  0
    2.0000   -1.3458    0.0000 C   0  0  0  0  0  0  0  0  0  0  0  0
    7.8811   -1.5879    0.0000 H   0  0  0  0  0  0  0  0  0  0  0  0
   10.4606   -3.2980    0.0000 H   0  0  0  0  0  0  0  0  0  0  0  0
    7.0338   -3.2980    0.0000 H   0  0  0  0  0  0  0  0  0  0  0  0
    8.3480   -4.4394    0.0000 H   0  0  0  0  0  0  0  0  0  0  0  0
    9.1463   -4.4394    0.0000 H   0  0  0  0  0  0  0  0  0  0  0  0
    7.5615   -3.5890    0.0000 H   0  0  0  0  0  0  0  0  0  0  0  0
    6.5875   -1.9995    0.0000 H   0  0  0  0  0  0  0  0  0  0  0  0
    5.8391   -1.9010    0.0000 H   0  0  0  0  0  0  0  0  0  0  0  0
    5.4032   -1.8757    0.0000 H   0  0  0  0  0  0  0  0  0  0  0  0
    9.3932   -4.6073    0.0000 H   0  0  0  0  0  0  0  0  0  0  0  0
   10.1907   -4.9717    0.0000 H   0  0  0  0  0  0  0  0  0  0  0  0
   10.5551   -4.1742    0.0000 H   0  0  0  0  0  0  0  0  0  0  0  0
    8.8988    1.6158    0.0000 H   0  0  0  0  0  0  0  0  0  0  0  0
    9.1761    2.0124    0.0000 H   0  0  0  0  0  0  0  0  0  0  0  0
    9.4487    2.7614    0.0000 H   0  0  0  0  0  0  0  0  0  0  0  0
    6.5404    2.2485    0.0000 H   0  0  0  0  0  0  0  0  0  0  0  0
    7.0527    1.6380    0.0000 H   0  0  0  0  0  0  0  0  0  0  0  0
    8.5449    4.3712    0.0000 H   0  0  0  0  0  0  0  0  0  0  0  0
    6.9540    4.1668    0.0000 H   0  0  0  0  0  0  0  0  0  0  0  0
   11.2153   -0.5129    0.0000 H   0  0  0  0  0  0  0  0  0  0  0  0
    4.4069   -4.3370    0.0000 H   0  0  0  0  0  0  0  0  0  0  0  0
    6.6767    3.7703    0.0000 H   0  0  0  0  0  0  0  0  0  0  0  0
    6.4041    3.0213    0.0000 H   0  0  0  0  0  0  0  0  0  0  0  0
    8.7472   -1.3179    0.0000 H   0  0  0  0  0  0  0  0  0  0  0  0
    8.2277   -0.0548    0.0000 H   0  0  0  0  0  0  0  0  0  0  0  0
   10.2672    0.6447    0.0000 H   0  0  0  0  0  0  0  0  0  0  0  0
    9.8686   -0.0456    0.0000 H   0  0  0  0  0  0  0  0  0  0  0  0
   12.4233   -1.5206    0.0000 H   0  0  0  0  0  0  0  0  0  0  0  0
   12.8218   -0.8303    0.0000 H   0  0  0  0  0  0  0  0  0  0  0  0
    7.9353   -1.9644    0.0000 H   0  0  0  0  0  0  0  0  0  0  0  0
    8.8563    0.7097    0.0000 H   0  0  0  0  0  0  0  0  0  0  0  0
    4.9145   -1.5512    0.0000 H   0  0  0  0  0  0  0  0  0  0  0  0
    4.0376   -1.5512    0.0000 H   0  0  0  0  0  0  0  0  0  0  0  0
    4.0376   -2.4281    0.0000 H   0  0  0  0  0  0  0  0  0  0  0  0
   11.7438    1.0370    0.0000 H   0  0  0  0  0  0  0  0  0  0  0  0
   10.9467    1.0370    0.0000 H   0  0  0  0  0  0  0  0  0  0  0  0
   12.8218   -0.0456    0.0000 H   0  0  0  0  0  0  0  0  0  0  0  0
   12.4233    0.6447    0.0000 H   0  0  0  0  0  0  0  0  0  0  0  0
    6.9664   -0.5255    0.0000 H   0  0  0  0  0  0  0  0  0  0  0  0
    7.6790   -5.5566    0.0000 H   0  0  0  0  0  0  0  0  0  0  0  0
    8.5519   -5.6397    0.0000 H   0  0  0  0  0  0  0  0  0  0  0  0
    8.6350   -4.7668    0.0000 H   0  0  0  0  0  0  0  0  0  0  0  0
    5.0508   -2.0469    0.0000 H   0  0  0  0  0  0  0  0  0  0  0  0
    5.8478   -2.0469    0.0000 H   0  0  0  0  0  0  0  0  0  0  0  0
    6.1317   -4.8557    0.0000 H   0  0  0  0  0  0  0  0  0  0  0  0
    6.9264   -5.2263    0.0000 H   0  0  0  0  0  0  0  0  0  0  0  0
    7.2970   -4.4316    0.0000 H   0  0  0  0  0  0  0  0  0  0  0  0
    2.9123   -1.8451    0.0000 H   0  0  0  0  0  0  0  0  0  0  0  0
    6.1334   -2.3522    0.0000 H   0  0  0  0  0  0  0  0  0  0  0  0
    6.4333   -3.1761    0.0000 H   0  0  0  0  0  0  0  0  0  0  0  0
    7.2572   -2.8762    0.0000 H   0  0  0  0  0  0  0  0  0  0  0  0
    2.8437   -2.6188    0.0000 H   0  0  0  0  0  0  0  0  0  0  0  0
    6.7800    1.2035    0.0000 H   0  0  0  0  0  0  0  0  0  0  0  0
    5.9854    0.8330    0.0000 H   0  0  0  0  0  0  0  0  0  0  0  0
    6.3559    0.0383    0.0000 H   0  0  0  0  0  0  0  0  0  0  0  0
    6.9965    5.0730    0.0000 H   0  0  0  0  0  0  0  0  0  0  0  0
    5.1143   -5.0656    0.0000 H   0  0  0  0  0  0  0  0  0  0  0  0
    2.8578   -3.8198    0.0000 H   0  0  0  0  0  0  0  0  0  0  0  0
    2.9722   -4.6891    0.0000 H   0  0  0  0  0  0  0  0  0  0  0  0
    3.8415   -4.5746    0.0000 H   0  0  0  0  0  0  0  0  0  0  0  0
    3.3810   -0.5443    0.0000 H   0  0  0  0  0  0  0  0  0  0  0  0
    2.5908   -0.4403    0.0000 H   0  0  0  0  0  0  0  0  0  0  0  0
    9.8955    5.2694    0.0000 H   0  0  0  0  0  0  0  0  0  0  0  0
    9.1772    5.7723    0.0000 H   0  0  0  0  0  0  0  0  0  0  0  0
    8.6743    5.0540    0.0000 H   0  0  0  0  0  0  0  0  0  0  0  0
    5.3627   -0.0246    0.0000 H   0  0  0  0  0  0  0  0  0  0  0  0
    1.7627   -0.7730    0.0000 H   0  0  0  0  0  0  0  0  0  0  0  0
    1.4272   -1.5831    0.0000 H   0  0  0  0  0  0  0  0  0  0  0  0
    2.2373   -1.9186    0.0000 H   0  0  0  0  0  0  0  0  0  0  0  0
  1 15  1  0  0  0  0
  1 19  1  0  0  0  0
  2 17  1  0  0  0  0
  2 46  1  0  0  0  0
  3 20  1  0  0  0  0
  3 48  1  0  0  0  0
  4 19  1  0  0  0  0
  4 81  1  0  0  0  0
  5 34  1  0  0  0  0
  5 45  1  0  0  0  0
  6 28  1  0  0  0  0
  6 56  1  0  0  0  0
  7 24  2  0  0  0  0
  8 29  1  0  0  0  0
  8113  1  0  0  0  0
  9 31  1  0  0  0  0
  9114  1  0  0  0  0
 10 33  2  0  0  0  0
 11 44  1  0  0  0  0
 11123  1  0  0  0  0
 12 45  2  0  0  0  0
 13 53  2  0  0  0  0
 14 30  1  0  0  0  0
 14 33  1  0  0  0  0
 14 36  1  0  0  0  0
 15 17  1  0  0  0  0
 15 20  1  0  0  0  0
 15 58  1  0  0  0  0
 16 18  1  0  0  0  0
 16 19  1  0  0  0  0
 16 23  1  0  0  0  0
 16 59  1  0  0  0  0
 17 18  1  0  0  0  0
 17 60  1  0  0  0  0
 18 61  1  0  0  0  0
 18 62  1  0  0  0  0
 19 24  1  0  0  0  0
 20 21  1  0  0  0  0
 20 63  1  0  0  0  0
 21 22  1  0  0  0  0
 21 64  1  0  0  0  0
 21 65  1  0  0  0  0
 22 31  1  0  0  0  0
 22 39  1  0  0  0  0
 22 66  1  0  0  0  0
 23 67  1  0  0  0  0
 23 68  1  0  0  0  0
 23 69  1  0  0  0  0
 24 33  1  0  0  0  0
 25 26  1  0  0  0  0
 25 27  1  0  0  0  0
 25 38  1  0  0  0  0
 25 70  1  0  0  0  0
 26 28  1  0  0  0  0
 26 71  1  0  0  0  0
 26 72  1  0  0  0  0
 27 32  1  0  0  0  0
 27 73  1  0  0  0  0
 27 74  1  0  0  0  0
 28 29  1  0  0  0  0
 28 75  1  0  0  0  0
 29 32  1  0  0  0  0
 29 76  1  0  0  0  0
 30 35  1  0  0  0  0
 30 45  1  0  0  0  0
 30 77  1  0  0  0  0
 31 43  1  0  0  0  0
 31 78  1  0  0  0  0
 32 79  1  0  0  0  0
 32 80  1  0  0  0  0
 34 37  1  0  0  0  0
 34 42  1  0  0  0  0
 34 82  1  0  0  0  0
 35 40  1  0  0  0  0
 35 83  1  0  0  0  0
 35 84  1  0  0  0  0
 36 41  1  0  0  0  0
 36 85  1  0  0  0  0
 36 86  1  0  0  0  0
 37 44  1  0  0  0  0
 37 50  1  0  0  0  0
 37 87  1  0  0  0  0
 38 42  2  3  0  0  0
 38 88  1  0  0  0  0
 39 89  1  0  0  0  0
 39 90  1  0  0  0  0
 39 91  1  0  0  0  0
 40 41  1  0  0  0  0
 40 92  1  0  0  0  0
 40 93  1  0  0  0  0
 41 94  1  0  0  0  0
 41 95  1  0  0  0  0
 42 52  1  0  0  0  0
 43 51  2  3  0  0  0
 43 54  1  0  0  0  0
 44 47  1  0  0  0  0
 44 96  1  0  0  0  0
 46 97  1  0  0  0  0
 46 98  1  0  0  0  0
 46 99  1  0  0  0  0
 47 53  1  0  0  0  0
 47100  1  0  0  0  0
 47101  1  0  0  0  0
 48102  1  0  0  0  0
 48103  1  0  0  0  0
 48104  1  0  0  0  0
 49 51  1  0  0  0  0
 49 53  1  0  0  0  0
 49 55  1  0  0  0  0
 49105  1  0  0  0  0
 50106  1  0  0  0  0
 50107  1  0  0  0  0
 50108  1  0  0  0  0
 51109  1  0  0  0  0
 52110  1  0  0  0  0
 52111  1  0  0  0  0
 52112  1  0  0  0  0
 54115  1  0  0  0  0
 54116  1  0  0  0  0
 54117  1  0  0  0  0
 55 57  1  0  0  0  0
 55118  1  0  0  0  0
 55119  1  0  0  0  0
 56120  1  0  0  0  0
 56121  1  0  0  0  0
 56122  1  0  0  0  0
 57124  1  0  0  0  0
 57125  1  0  0  0  0
 57126  1  0  0  0  0
M  END
> <PUBCHEM_COMPOUND_CID>
3850

> <PUBCHEM_COMPOUND_CANONICALIZED>
1

> <PUBCHEM_CACTVS_COMPLEXITY>
1470

> <PUBCHEM_CACTVS_HBOND_ACCEPTOR>
13

> <PUBCHEM_CACTVS_HBOND_DONOR>
4

> <PUBCHEM_CACTVS_ROTATABLE_BOND>
6

> <PUBCHEM_CACTVS_SUBSKEYS>
AAADcfB+PAAAAAAAAAAAAAAAAAAAAAAAAAA8SIAAAAAAAAAAAAAAHgAACAAADTzhgAYCCAMABgCIAqHSGAIAAAAgAAAACAHIAAgTFBYAoSQHUAAHpgCfMAPY7PzOAAAAAAAAAABAAAIAAACAAAAAAAAAAA==

> <PUBCHEM_IUPAC_INCHI>
InChI=1S/C43H69NO13/c1-10-29-18-23(2)37(48)24(3)19-35(54-8)39-36(55-9)20-26(5)43(52,57-39)40(49)41(50)44-16-12-11-13-30(44)42(51)56-38(27(6)32(46)22-33(29)47)25(4)17-28-14-15-31(45)34(21-28)53-7/h17-18,24,26-32,34-39,45-46,48,52H,10-16,19-22H2,1-9H3

> <PUBCHEM_IUPAC_INCHIKEY>
NOQNPBXNHMZMTC-UHFFFAOYSA-N

> <PUBCHEM_XLOGP3>
1.4

> <PUBCHEM_EXACT_MASS>
807.476891

> <PUBCHEM_MOLECULAR_FORMULA>
C43H69NO13

> <PUBCHEM_MOLECULAR_WEIGHT>
808.00686

> <PUBCHEM_OPENEYE_CAN_SMILES>
CCC1C=C(C(C(CC(C2C(CC(C(O2)(C(=O)C(=O)N3CCCCC3C(=O)OC(C(C(CC1=O)O)C)C(=CC4CCC(C(C4)OC)O)C)O)C)OC)OC)C)O)C

> <PUBCHEM_OPENEYE_ISO_SMILES>
CCC1C=C(C(C(CC(C2C(CC(C(O2)(C(=O)C(=O)N3CCCCC3C(=O)OC(C(C(CC1=O)O)C)C(=CC4CCC(C(C4)OC)O)C)O)C)OC)OC)C)O)C

> <PUBCHEM_CACTVS_TPSA>
199

> <PUBCHEM_MONOISOTOPIC_WEIGHT>
807.476891

> <PUBCHEM_TOTAL_CHARGE>
0

> <PUBCHEM_HEAVY_ATOM_COUNT>
57

> <PUBCHEM_ATOM_DEF_STEREO_COUNT>
0

> <PUBCHEM_ATOM_UDEF_STEREO_COUNT>
15

> <PUBCHEM_BOND_DEF_STEREO_COUNT>
0

> <PUBCHEM_BOND_UDEF_STEREO_COUNT>
2

> <PUBCHEM_ISOTOPIC_ATOM_COUNT>
0

> <PUBCHEM_COMPONENT_COUNT>
1

> <PUBCHEM_CACTVS_TAUTO_COUNT>
5

> <PUBCHEM_COORDINATE_TYPE>
1
5
255

> <PUBCHEM_BONDANNOTATIONS>
15  58  3
16  59  3
17  60  3
20  63  3
22  66  3
25  70  3
28  75  3
29  76  3
30  77  3
31  78  3
34  82  3
37  87  3
38  42  1
19  4  3
43  51  1
44  96  3
49  105  3

$$$$

