583258
  -OEChem-06241222452D

 24 25  0     0  0  0  0  0  0999 V2000
    3.0000   -0.3343    0.0000 S   0  0  0  0  0  0  0  0  0  0  0  0
    2.0000   -0.3343    0.0000 O   0  0  0  0  0  0  0  0  0  0  0  0
    2.5000   -1.2003    0.0000 O   0  0  0  0  0  0  0  0  0  0  0  0
    3.0000    0.6657    0.0000 N   0  0  0  0  0  0  0  0  0  0  0  0
    3.8660   -0.8343    0.0000 C   0  0  0  0  0  0  0  0  0  0  0  0
    4.7320   -0.3343    0.0000 C   0  0  0  0  0  0  0  0  0  0  0  0
    4.7320    0.6657    0.0000 C   0  0  0  0  0  0  0  0  0  0  0  0
    3.8660    1.1657    0.0000 C   0  0  0  0  0  0  0  0  0  0  0  0
    5.6260   -0.8690    0.0000 C   0  0  0  0  0  0  0  0  0  0  0  0
    5.6260    1.2003    0.0000 C   0  0  0  0  0  0  0  0  0  0  0  0
    6.5321   -0.3551    0.0000 C   0  0  0  0  0  0  0  0  0  0  0  0
    6.5321    0.6865    0.0000 C   0  0  0  0  0  0  0  0  0  0  0  0
    7.3962   -0.8585    0.0000 C   0  0  0  0  0  0  0  0  0  0  0  0
    3.4675   -1.3093    0.0000 H   0  0  0  0  0  0  0  0  0  0  0  0
    4.2646   -1.3093    0.0000 H   0  0  0  0  0  0  0  0  0  0  0  0
    4.2646    1.6406    0.0000 H   0  0  0  0  0  0  0  0  0  0  0  0
    3.4675    1.6406    0.0000 H   0  0  0  0  0  0  0  0  0  0  0  0
    2.4631    0.9757    0.0000 H   0  0  0  0  0  0  0  0  0  0  0  0
    5.6188   -1.4889    0.0000 H   0  0  0  0  0  0  0  0  0  0  0  0
    5.6188    1.8203    0.0000 H   0  0  0  0  0  0  0  0  0  0  0  0
    7.0678    0.9986    0.0000 H   0  0  0  0  0  0  0  0  0  0  0  0
    7.0841   -1.3942    0.0000 H   0  0  0  0  0  0  0  0  0  0  0  0
    7.9319   -1.1705    0.0000 H   0  0  0  0  0  0  0  0  0  0  0  0
    7.7082   -0.3227    0.0000 H   0  0  0  0  0  0  0  0  0  0  0  0
  1  2  2  0  0  0  0
  1  3  2  0  0  0  0
  1  4  1  0  0  0  0
  1  5  1  0  0  0  0
  4  8  1  0  0  0  0
  4 18  1  0  0  0  0
  5  6  1  0  0  0  0
  5 14  1  0  0  0  0
  5 15  1  0  0  0  0
  6  7  2  0  0  0  0
  6  9  1  0  0  0  0
  7  8  1  0  0  0  0
  7 10  1  0  0  0  0
  8 16  1  0  0  0  0
  8 17  1  0  0  0  0
  9 11  2  0  0  0  0
  9 19  1  0  0  0  0
 10 12  2  0  0  0  0
 10 20  1  0  0  0  0
 11 12  1  0  0  0  0
 11 13  1  0  0  0  0
 12 21  1  0  0  0  0
 13 22  1  0  0  0  0
 13 23  1  0  0  0  0
 13 24  1  0  0  0  0
M  END
> <PUBCHEM_COMPOUND_CID>
583258

> <PUBCHEM_COMPOUND_CANONICALIZED>
1

> <PUBCHEM_CACTVS_COMPLEXITY>
281

> <PUBCHEM_CACTVS_HBOND_ACCEPTOR>
3

> <PUBCHEM_CACTVS_HBOND_DONOR>
1

> <PUBCHEM_CACTVS_ROTATABLE_BOND>
0

> <PUBCHEM_CACTVS_SUBSKEYS>
AAADccByMABAAAAAAAAAAAAAAAAAAAAAAAA8QAAAAAAAAACxAAAAHAQQQAAADADFWASyAIBAAAKAAiBCAHDCAAAgAAAIiIAABIgIICKAkRGAIABggAAIiAcQgMAOwAACAAAQAACAAAQAACAAAAAAAAAAAA==

> <PUBCHEM_IUPAC_OPENEYE_NAME>
7-methyl-3,4-dihydro-1H-2$l^{6},3-benzothiazine 2,2-dioxide

> <PUBCHEM_IUPAC_CAS_NAME>
7-methyl-3,4-dihydro-1H-2$l^{6},3-benzothiazine 2,2-dioxide

> <PUBCHEM_IUPAC_NAME>
7-methyl-3,4-dihydro-1H-2$l^{6},3-benzothiazine 2,2-dioxide

> <PUBCHEM_IUPAC_SYSTEMATIC_NAME>
7-methyl-3,4-dihydro-1H-2$l^{6},3-benzothiazine 2,2-dioxide

> <PUBCHEM_IUPAC_TRADITIONAL_NAME>
7-methyl-3,4-dihydro-1H-2$l^{6},3-benzothiazine 2,2-dioxide

> <PUBCHEM_IUPAC_INCHI>
InChI=1S/C9H11NO2S/c1-7-2-3-8-5-10-13(11,12)6-9(8)4-7/h2-4,10H,5-6H2,1H3

> <PUBCHEM_IUPAC_INCHIKEY>
FSMMKUMEBUEAEJ-UHFFFAOYSA-N

> <PUBCHEM_XLOGP3_AA>
0.8

> <PUBCHEM_EXACT_MASS>
197.05105

> <PUBCHEM_MOLECULAR_FORMULA>
C9H11NO2S

> <PUBCHEM_MOLECULAR_WEIGHT>
197.25414

> <PUBCHEM_OPENEYE_CAN_SMILES>
CC1=CC2=C(CNS(=O)(=O)C2)C=C1

> <PUBCHEM_OPENEYE_ISO_SMILES>
CC1=CC2=C(CNS(=O)(=O)C2)C=C1

> <PUBCHEM_CACTVS_TPSA>
54.6

> <PUBCHEM_MONOISOTOPIC_WEIGHT>
197.05105

> <PUBCHEM_TOTAL_CHARGE>
0

> <PUBCHEM_HEAVY_ATOM_COUNT>
13

> <PUBCHEM_ATOM_DEF_STEREO_COUNT>
0

> <PUBCHEM_ATOM_UDEF_STEREO_COUNT>
0

> <PUBCHEM_BOND_DEF_STEREO_COUNT>
0

> <PUBCHEM_BOND_UDEF_STEREO_COUNT>
0

> <PUBCHEM_ISOTOPIC_ATOM_COUNT>
0

> <PUBCHEM_COMPONENT_COUNT>
1

> <PUBCHEM_CACTVS_TAUTO_COUNT>
1

> <PUBCHEM_COORDINATE_TYPE>
1
5
255

> <PUBCHEM_BONDANNOTATIONS>
10  12  8
11  12  8
6  7  8
6  9  8
7  10  8
9  11  8

$$$$

