6960
  -OEChem-06261201372D

 93 93  0     0  0  0  0  0  0999 V2000
   12.3923    2.2500    0.0000 O   0  0  0  0  0  0  0  0  0  0  0  0
    8.9282    0.2500    0.0000 O   0  0  0  0  0  0  0  0  0  0  0  0
   13.2583   -2.2500    0.0000 O   0  0  0  0  0  0  0  0  0  0  0  0
   10.6603    2.2500    0.0000 O   0  0  0  0  0  0  0  0  0  0  0  0
    9.7942    1.7500    0.0000 O   0  0  0  0  0  0  0  0  0  0  0  0
   14.1244   -0.7500    0.0000 O   0  0  0  0  0  0  0  0  0  0  0  0
   14.1244    5.2500    0.0000 C   0  0  0  0  0  0  0  0  0  0  0  0
    5.4641    0.2500    0.0000 C   0  0  0  0  0  0  0  0  0  0  0  0
   14.9904   -5.2500    0.0000 C   0  0  0  0  0  0  0  0  0  0  0  0
   14.1244    6.2500    0.0000 C   0  0  0  0  0  0  0  0  0  0  0  0
    4.5981    0.7500    0.0000 C   0  0  0  0  0  0  0  0  0  0  0  0
   15.8564   -5.7500    0.0000 C   0  0  0  0  0  0  0  0  0  0  0  0
   13.2583    4.7500    0.0000 C   0  0  0  0  0  0  0  0  0  0  0  0
    6.3301    0.7500    0.0000 C   0  0  0  0  0  0  0  0  0  0  0  0
   14.9904   -4.2500    0.0000 C   0  0  0  0  0  0  0  0  0  0  0  0
   14.9904    6.7500    0.0000 C   0  0  0  0  0  0  0  0  0  0  0  0
    3.7320    0.2500    0.0000 C   0  0  0  0  0  0  0  0  0  0  0  0
   15.8564   -6.7500    0.0000 C   0  0  0  0  0  0  0  0  0  0  0  0
   13.2583    3.7500    0.0000 C   0  0  0  0  0  0  0  0  0  0  0  0
    7.1962    0.2500    0.0000 C   0  0  0  0  0  0  0  0  0  0  0  0
   14.1244   -3.7500    0.0000 C   0  0  0  0  0  0  0  0  0  0  0  0
   14.9904    7.7500    0.0000 C   0  0  0  0  0  0  0  0  0  0  0  0
    2.8660    0.7500    0.0000 C   0  0  0  0  0  0  0  0  0  0  0  0
   16.7224   -7.2500    0.0000 C   0  0  0  0  0  0  0  0  0  0  0  0
   12.3923    3.2500    0.0000 C   0  0  0  0  0  0  0  0  0  0  0  0
    8.0622    0.7500    0.0000 C   0  0  0  0  0  0  0  0  0  0  0  0
   14.1244   -2.7500    0.0000 C   0  0  0  0  0  0  0  0  0  0  0  0
   15.8564    8.2500    0.0000 C   0  0  0  0  0  0  0  0  0  0  0  0
    2.0000    0.2500    0.0000 C   0  0  0  0  0  0  0  0  0  0  0  0
   16.7224   -8.2500    0.0000 C   0  0  0  0  0  0  0  0  0  0  0  0
   11.5263    0.7500    0.0000 C   0  0  0  0  0  0  0  0  0  0  0  0
   10.6603    0.2500    0.0000 C   0  0  0  0  0  0  0  0  0  0  0  0
   11.5263    1.7500    0.0000 C   0  0  0  0  0  0  0  0  0  0  0  0
   12.3923   -0.7500    0.0000 C   0  0  0  0  0  0  0  0  0  0  0  0
    9.7942    0.7500    0.0000 C   0  0  0  0  0  0  0  0  0  0  0  0
   12.3923    0.2500    0.0000 C   0  0  0  0  0  0  0  0  0  0  0  0
   13.2583   -1.2500    0.0000 C   0  0  0  0  0  0  0  0  0  0  0  0
   10.6603   -0.7500    0.0000 C   0  0  0  0  0  0  0  0  0  0  0  0
   11.5263   -1.2500    0.0000 C   0  0  0  0  0  0  0  0  0  0  0  0
   14.3364    4.6674    0.0000 H   0  0  0  0  0  0  0  0  0  0  0  0
   14.7349    5.3577    0.0000 H   0  0  0  0  0  0  0  0  0  0  0  0
    5.0656   -0.2249    0.0000 H   0  0  0  0  0  0  0  0  0  0  0  0
    5.8626   -0.2249    0.0000 H   0  0  0  0  0  0  0  0  0  0  0  0
   14.3798   -5.1423    0.0000 H   0  0  0  0  0  0  0  0  0  0  0  0
   14.7783   -5.8326    0.0000 H   0  0  0  0  0  0  0  0  0  0  0  0
   13.9123    6.8326    0.0000 H   0  0  0  0  0  0  0  0  0  0  0  0
   13.5138    6.1423    0.0000 H   0  0  0  0  0  0  0  0  0  0  0  0
    4.9966    1.2250    0.0000 H   0  0  0  0  0  0  0  0  0  0  0  0
    4.1996    1.2250    0.0000 H   0  0  0  0  0  0  0  0  0  0  0  0
   16.4670   -5.8577    0.0000 H   0  0  0  0  0  0  0  0  0  0  0  0
   16.0685   -5.1674    0.0000 H   0  0  0  0  0  0  0  0  0  0  0  0
   13.0463    5.3326    0.0000 H   0  0  0  0  0  0  0  0  0  0  0  0
   12.6477    4.6423    0.0000 H   0  0  0  0  0  0  0  0  0  0  0  0
    6.7287    1.2250    0.0000 H   0  0  0  0  0  0  0  0  0  0  0  0
    5.9316    1.2250    0.0000 H   0  0  0  0  0  0  0  0  0  0  0  0
   15.6010   -4.3577    0.0000 H   0  0  0  0  0  0  0  0  0  0  0  0
   15.2024   -3.6674    0.0000 H   0  0  0  0  0  0  0  0  0  0  0  0
   15.2024    6.1674    0.0000 H   0  0  0  0  0  0  0  0  0  0  0  0
   15.6010    6.8577    0.0000 H   0  0  0  0  0  0  0  0  0  0  0  0
    3.3335   -0.2249    0.0000 H   0  0  0  0  0  0  0  0  0  0  0  0
    4.1306   -0.2249    0.0000 H   0  0  0  0  0  0  0  0  0  0  0  0
   15.2458   -6.6423    0.0000 H   0  0  0  0  0  0  0  0  0  0  0  0
   15.6444   -7.3326    0.0000 H   0  0  0  0  0  0  0  0  0  0  0  0
   13.4704    3.1674    0.0000 H   0  0  0  0  0  0  0  0  0  0  0  0
   13.8689    3.8577    0.0000 H   0  0  0  0  0  0  0  0  0  0  0  0
    6.7976   -0.2249    0.0000 H   0  0  0  0  0  0  0  0  0  0  0  0
    7.5947   -0.2249    0.0000 H   0  0  0  0  0  0  0  0  0  0  0  0
   13.5138   -3.6423    0.0000 H   0  0  0  0  0  0  0  0  0  0  0  0
   13.9123   -4.3326    0.0000 H   0  0  0  0  0  0  0  0  0  0  0  0
   14.7783    8.3326    0.0000 H   0  0  0  0  0  0  0  0  0  0  0  0
   14.3798    7.6423    0.0000 H   0  0  0  0  0  0  0  0  0  0  0  0
    3.2646    1.2250    0.0000 H   0  0  0  0  0  0  0  0  0  0  0  0
    2.4675    1.2250    0.0000 H   0  0  0  0  0  0  0  0  0  0  0  0
   17.3330   -7.3577    0.0000 H   0  0  0  0  0  0  0  0  0  0  0  0
   16.9345   -6.6674    0.0000 H   0  0  0  0  0  0  0  0  0  0  0  0
   12.1803    3.8326    0.0000 H   0  0  0  0  0  0  0  0  0  0  0  0
   11.7817    3.1423    0.0000 H   0  0  0  0  0  0  0  0  0  0  0  0
    8.4607    1.2250    0.0000 H   0  0  0  0  0  0  0  0  0  0  0  0
    7.6636    1.2250    0.0000 H   0  0  0  0  0  0  0  0  0  0  0  0
   14.7349   -2.8577    0.0000 H   0  0  0  0  0  0  0  0  0  0  0  0
   14.3364   -2.1674    0.0000 H   0  0  0  0  0  0  0  0  0  0  0  0
   16.1664    7.7131    0.0000 H   0  0  0  0  0  0  0  0  0  0  0  0
   16.3933    8.5600    0.0000 H   0  0  0  0  0  0  0  0  0  0  0  0
   15.5464    8.7869    0.0000 H   0  0  0  0  0  0  0  0  0  0  0  0
    1.6900    0.7869    0.0000 H   0  0  0  0  0  0  0  0  0  0  0  0
    1.4631   -0.0600    0.0000 H   0  0  0  0  0  0  0  0  0  0  0  0
    2.3100   -0.2869    0.0000 H   0  0  0  0  0  0  0  0  0  0  0  0
   16.1024   -8.2500    0.0000 H   0  0  0  0  0  0  0  0  0  0  0  0
   16.7224   -8.8700    0.0000 H   0  0  0  0  0  0  0  0  0  0  0  0
   17.3424   -8.2500    0.0000 H   0  0  0  0  0  0  0  0  0  0  0  0
   12.9292    0.5600    0.0000 H   0  0  0  0  0  0  0  0  0  0  0  0
   10.1233   -1.0600    0.0000 H   0  0  0  0  0  0  0  0  0  0  0  0
   11.5263   -1.8700    0.0000 H   0  0  0  0  0  0  0  0  0  0  0  0
  1 25  1  0  0  0  0
  1 33  1  0  0  0  0
  2 26  1  0  0  0  0
  2 35  1  0  0  0  0
  3 27  1  0  0  0  0
  3 37  1  0  0  0  0
  4 33  2  0  0  0  0
  5 35  2  0  0  0  0
  6 37  2  0  0  0  0
  7 10  1  0  0  0  0
  7 13  1  0  0  0  0
  7 40  1  0  0  0  0
  7 41  1  0  0  0  0
  8 11  1  0  0  0  0
  8 14  1  0  0  0  0
  8 42  1  0  0  0  0
  8 43  1  0  0  0  0
  9 12  1  0  0  0  0
  9 15  1  0  0  0  0
  9 44  1  0  0  0  0
  9 45  1  0  0  0  0
 10 16  1  0  0  0  0
 10 46  1  0  0  0  0
 10 47  1  0  0  0  0
 11 17  1  0  0  0  0
 11 48  1  0  0  0  0
 11 49  1  0  0  0  0
 12 18  1  0  0  0  0
 12 50  1  0  0  0  0
 12 51  1  0  0  0  0
 13 19  1  0  0  0  0
 13 52  1  0  0  0  0
 13 53  1  0  0  0  0
 14 20  1  0  0  0  0
 14 54  1  0  0  0  0
 14 55  1  0  0  0  0
 15 21  1  0  0  0  0
 15 56  1  0  0  0  0
 15 57  1  0  0  0  0
 16 22  1  0  0  0  0
 16 58  1  0  0  0  0
 16 59  1  0  0  0  0
 17 23  1  0  0  0  0
 17 60  1  0  0  0  0
 17 61  1  0  0  0  0
 18 24  1  0  0  0  0
 18 62  1  0  0  0  0
 18 63  1  0  0  0  0
 19 25  1  0  0  0  0
 19 64  1  0  0  0  0
 19 65  1  0  0  0  0
 20 26  1  0  0  0  0
 20 66  1  0  0  0  0
 20 67  1  0  0  0  0
 21 27  1  0  0  0  0
 21 68  1  0  0  0  0
 21 69  1  0  0  0  0
 22 28  1  0  0  0  0
 22 70  1  0  0  0  0
 22 71  1  0  0  0  0
 23 29  1  0  0  0  0
 23 72  1  0  0  0  0
 23 73  1  0  0  0  0
 24 30  1  0  0  0  0
 24 74  1  0  0  0  0
 24 75  1  0  0  0  0
 25 76  1  0  0  0  0
 25 77  1  0  0  0  0
 26 78  1  0  0  0  0
 26 79  1  0  0  0  0
 27 80  1  0  0  0  0
 27 81  1  0  0  0  0
 28 82  1  0  0  0  0
 28 83  1  0  0  0  0
 28 84  1  0  0  0  0
 29 85  1  0  0  0  0
 29 86  1  0  0  0  0
 29 87  1  0  0  0  0
 30 88  1  0  0  0  0
 30 89  1  0  0  0  0
 30 90  1  0  0  0  0
 31 32  2  0  0  0  0
 31 33  1  0  0  0  0
 31 36  1  0  0  0  0
 32 35  1  0  0  0  0
 32 38  1  0  0  0  0
 34 36  2  0  0  0  0
 34 37  1  0  0  0  0
 34 39  1  0  0  0  0
 36 91  1  0  0  0  0
 38 39  2  0  0  0  0
 38 92  1  0  0  0  0
 39 93  1  0  0  0  0
M  END
> <PUBCHEM_COMPOUND_CID>
6960

> <PUBCHEM_COMPOUND_CANONICALIZED>
1

> <PUBCHEM_CACTVS_COMPLEXITY>
634

> <PUBCHEM_CACTVS_HBOND_ACCEPTOR>
6

> <PUBCHEM_CACTVS_HBOND_DONOR>
0

> <PUBCHEM_CACTVS_ROTATABLE_BOND>
27

> <PUBCHEM_CACTVS_SUBSKEYS>
AAADcfB8OAAAAAAAAAAAAAAAAAAAAAAAAAAwAAAAAAAAAAABAAAAGgAAAAAADACgmAIyCIAABACIAiDSCAACAAAkAAAIiAEACMgIJjKANRiCMQAkwAEIqYfL7viOwAACAAAQAACAAAQAACAAAAAAAAAAAA==

> <PUBCHEM_IUPAC_OPENEYE_NAME>
trioctyl benzene-1,2,4-tricarboxylate

> <PUBCHEM_IUPAC_CAS_NAME>
benzene-1,2,4-tricarboxylic acid trioctyl ester

> <PUBCHEM_IUPAC_NAME>
trioctyl benzene-1,2,4-tricarboxylate

> <PUBCHEM_IUPAC_SYSTEMATIC_NAME>
trioctyl benzene-1,2,4-tricarboxylate

> <PUBCHEM_IUPAC_TRADITIONAL_NAME>
benzene-1,2,4-tricarboxylic acid trioctyl ester

> <PUBCHEM_IUPAC_INCHI>
InChI=1S/C33H54O6/c1-4-7-10-13-16-19-24-37-31(34)28-22-23-29(32(35)38-25-20-17-14-11-8-5-2)30(27-28)33(36)39-26-21-18-15-12-9-6-3/h22-23,27H,4-21,24-26H2,1-3H3

> <PUBCHEM_IUPAC_INCHIKEY>
JNXDCMUUZNIWPQ-UHFFFAOYSA-N

> <PUBCHEM_XLOGP3_AA>
11.7

> <PUBCHEM_EXACT_MASS>
546.392039

> <PUBCHEM_MOLECULAR_FORMULA>
C33H54O6

> <PUBCHEM_MOLECULAR_WEIGHT>
546.77826

> <PUBCHEM_OPENEYE_CAN_SMILES>
CCCCCCCCOC(=O)C1=CC(=C(C=C1)C(=O)OCCCCCCCC)C(=O)OCCCCCCCC

> <PUBCHEM_OPENEYE_ISO_SMILES>
CCCCCCCCOC(=O)C1=CC(=C(C=C1)C(=O)OCCCCCCCC)C(=O)OCCCCCCCC

> <PUBCHEM_CACTVS_TPSA>
78.9

> <PUBCHEM_MONOISOTOPIC_WEIGHT>
546.392039

> <PUBCHEM_TOTAL_CHARGE>
0

> <PUBCHEM_HEAVY_ATOM_COUNT>
39

> <PUBCHEM_ATOM_DEF_STEREO_COUNT>
0

> <PUBCHEM_ATOM_UDEF_STEREO_COUNT>
0

> <PUBCHEM_BOND_DEF_STEREO_COUNT>
0

> <PUBCHEM_BOND_UDEF_STEREO_COUNT>
0

> <PUBCHEM_ISOTOPIC_ATOM_COUNT>
0

> <PUBCHEM_COMPONENT_COUNT>
1

> <PUBCHEM_CACTVS_TAUTO_COUNT>
1

> <PUBCHEM_COORDINATE_TYPE>
1
5
255

> <PUBCHEM_BONDANNOTATIONS>
31  32  8
31  36  8
32  38  8
34  36  8
34  39  8
38  39  8

$$$$

