3652
  -OEChem-06251223342D

 49 50  0     1  0  0  0  0  0999 V2000
    9.8602    4.6618    0.0000 Cl  0  0  0  0  0  0  0  0  0  0  0  0
    2.8660   -4.3623    0.0000 O   0  0  0  0  0  0  0  0  0  0  0  0
    3.7320   -1.8623    0.0000 N   0  0  3  0  0  0  0  0  0  0  0  0
    6.3301    1.6377    0.0000 N   0  0  0  0  0  0  0  0  0  0  0  0
    6.3301    4.6377    0.0000 N   0  0  0  0  0  0  0  0  0  0  0  0
    5.4641    0.1377    0.0000 C   0  0  0  0  0  0  0  0  0  0  0  0
    4.5981   -0.3623    0.0000 C   0  0  0  0  0  0  0  0  0  0  0  0
    5.4641    1.1377    0.0000 C   0  0  3  0  0  0  0  0  0  0  0  0
    4.5981   -1.3623    0.0000 C   0  0  0  0  0  0  0  0  0  0  0  0
    3.7320   -2.8623    0.0000 C   0  0  0  0  0  0  0  0  0  0  0  0
    4.5981    1.6377    0.0000 C   0  0  0  0  0  0  0  0  0  0  0  0
    2.8660   -1.3623    0.0000 C   0  0  0  0  0  0  0  0  0  0  0  0
    6.3301    2.6377    0.0000 C   0  0  0  0  0  0  0  0  0  0  0  0
    2.8660   -3.3623    0.0000 C   0  0  0  0  0  0  0  0  0  0  0  0
    2.0000   -1.8623    0.0000 C   0  0  0  0  0  0  0  0  0  0  0  0
    7.1962    3.1377    0.0000 C   0  0  0  0  0  0  0  0  0  0  0  0
    5.4641    3.1377    0.0000 C   0  0  0  0  0  0  0  0  0  0  0  0
    7.1962    4.1377    0.0000 C   0  0  0  0  0  0  0  0  0  0  0  0
    8.0901    2.6030    0.0000 C   0  0  0  0  0  0  0  0  0  0  0  0
    5.4641    4.1377    0.0000 C   0  0  0  0  0  0  0  0  0  0  0  0
    8.0901    4.6723    0.0000 C   0  0  0  0  0  0  0  0  0  0  0  0
    8.9962    3.1168    0.0000 C   0  0  0  0  0  0  0  0  0  0  0  0
    8.9962    4.1585    0.0000 C   0  0  0  0  0  0  0  0  0  0  0  0
    5.6762   -0.4449    0.0000 H   0  0  0  0  0  0  0  0  0  0  0  0
    6.0747    0.2453    0.0000 H   0  0  0  0  0  0  0  0  0  0  0  0
    4.3860    0.2203    0.0000 H   0  0  0  0  0  0  0  0  0  0  0  0
    3.9875   -0.4700    0.0000 H   0  0  0  0  0  0  0  0  0  0  0  0
    5.4641    1.9877    0.0000 H   0  0  0  0  0  0  0  0  0  0  0  0
    4.8101   -1.9449    0.0000 H   0  0  0  0  0  0  0  0  0  0  0  0
    5.2087   -1.2547    0.0000 H   0  0  0  0  0  0  0  0  0  0  0  0
    6.8671    1.3277    0.0000 H   0  0  0  0  0  0  0  0  0  0  0  0
    3.9441   -3.4449    0.0000 H   0  0  0  0  0  0  0  0  0  0  0  0
    4.3426   -2.7547    0.0000 H   0  0  0  0  0  0  0  0  0  0  0  0
    4.9081    2.1746    0.0000 H   0  0  0  0  0  0  0  0  0  0  0  0
    4.0611    1.9477    0.0000 H   0  0  0  0  0  0  0  0  0  0  0  0
    4.2881    1.1007    0.0000 H   0  0  0  0  0  0  0  0  0  0  0  0
    3.2646   -0.8874    0.0000 H   0  0  0  0  0  0  0  0  0  0  0  0
    2.4675   -0.8874    0.0000 H   0  0  0  0  0  0  0  0  0  0  0  0
    2.6540   -2.7797    0.0000 H   0  0  0  0  0  0  0  0  0  0  0  0
    2.2554   -3.4700    0.0000 H   0  0  0  0  0  0  0  0  0  0  0  0
    1.6900   -1.3254    0.0000 H   0  0  0  0  0  0  0  0  0  0  0  0
    1.4631   -2.1723    0.0000 H   0  0  0  0  0  0  0  0  0  0  0  0
    2.3100   -2.3993    0.0000 H   0  0  0  0  0  0  0  0  0  0  0  0
    4.9272    2.8277    0.0000 H   0  0  0  0  0  0  0  0  0  0  0  0
    8.0829    1.9830    0.0000 H   0  0  0  0  0  0  0  0  0  0  0  0
    4.9272    4.4477    0.0000 H   0  0  0  0  0  0  0  0  0  0  0  0
    8.0829    5.2923    0.0000 H   0  0  0  0  0  0  0  0  0  0  0  0
    9.5319    2.8048    0.0000 H   0  0  0  0  0  0  0  0  0  0  0  0
    2.3291   -4.6723    0.0000 H   0  0  0  0  0  0  0  0  0  0  0  0
  1 23  1  0  0  0  0
  2 14  1  0  0  0  0
  2 49  1  0  0  0  0
  3  9  1  0  0  0  0
  3 10  1  0  0  0  0
  3 12  1  0  0  0  0
  4  8  1  0  0  0  0
  4 13  1  0  0  0  0
  4 31  1  0  0  0  0
  5 18  2  0  0  0  0
  5 20  1  0  0  0  0
  6  7  1  0  0  0  0
  6  8  1  0  0  0  0
  6 24  1  0  0  0  0
  6 25  1  0  0  0  0
  7  9  1  0  0  0  0
  7 26  1  0  0  0  0
  7 27  1  0  0  0  0
  8 11  1  0  0  0  0
  8 28  1  0  0  0  0
  9 29  1  0  0  0  0
  9 30  1  0  0  0  0
 10 14  1  0  0  0  0
 10 32  1  0  0  0  0
 10 33  1  0  0  0  0
 11 34  1  0  0  0  0
 11 35  1  0  0  0  0
 11 36  1  0  0  0  0
 12 15  1  0  0  0  0
 12 37  1  0  0  0  0
 12 38  1  0  0  0  0
 13 16  2  0  0  0  0
 13 17  1  0  0  0  0
 14 39  1  0  0  0  0
 14 40  1  0  0  0  0
 15 41  1  0  0  0  0
 15 42  1  0  0  0  0
 15 43  1  0  0  0  0
 16 18  1  0  0  0  0
 16 19  1  0  0  0  0
 17 20  2  0  0  0  0
 17 44  1  0  0  0  0
 18 21  1  0  0  0  0
 19 22  2  0  0  0  0
 19 45  1  0  0  0  0
 20 46  1  0  0  0  0
 21 23  2  0  0  0  0
 21 47  1  0  0  0  0
 22 23  1  0  0  0  0
 22 48  1  0  0  0  0
M  END
> <PUBCHEM_COMPOUND_CID>
3652

> <PUBCHEM_COMPOUND_CANONICALIZED>
1

> <PUBCHEM_CACTVS_COMPLEXITY>
331

> <PUBCHEM_CACTVS_HBOND_ACCEPTOR>
4

> <PUBCHEM_CACTVS_HBOND_DONOR>
2

> <PUBCHEM_CACTVS_ROTATABLE_BOND>
9

> <PUBCHEM_CACTVS_SUBSKEYS>
AAADceB7IAAEAAAAAAAAAAAAAAAAAAAAAAA8QAAAAAAAAACx8AAAHgIQCAAADCrhniY+wPPIEgCgAzRnRACCgCAxByAI2KA4ZpgKMOLB09GEJAhgkADYyAcQgIAOBAAAAAICAAAIAAAABAQAAAAAAAAAAA==

> <PUBCHEM_IUPAC_OPENEYE_NAME>
2-[4-[(7-chloro-4-quinolyl)amino]pentyl-ethyl-amino]ethanol

> <PUBCHEM_IUPAC_CAS_NAME>
2-[4-[(7-chloro-4-quinolinyl)amino]pentyl-ethylamino]ethanol

> <PUBCHEM_IUPAC_NAME>
2-[4-[(7-chloroquinolin-4-yl)amino]pentyl-ethylamino]ethanol

> <PUBCHEM_IUPAC_SYSTEMATIC_NAME>
2-[4-[(7-chloranylquinolin-4-yl)amino]pentyl-ethyl-amino]ethanol

> <PUBCHEM_IUPAC_TRADITIONAL_NAME>
2-[4-[(7-chloro-4-quinolyl)amino]pentyl-ethyl-amino]ethanol

> <PUBCHEM_IUPAC_INCHI>
InChI=1S/C18H26ClN3O/c1-3-22(11-12-23)10-4-5-14(2)21-17-8-9-20-18-13-15(19)6-7-16(17)18/h6-9,13-14,23H,3-5,10-12H2,1-2H3,(H,20,21)

> <PUBCHEM_IUPAC_INCHIKEY>
XXSMGPRMXLTPCZ-UHFFFAOYSA-N

> <PUBCHEM_XLOGP3>
3.6

> <PUBCHEM_EXACT_MASS>
335.17644

> <PUBCHEM_MOLECULAR_FORMULA>
C18H26ClN3O

> <PUBCHEM_MOLECULAR_WEIGHT>
335.87154

> <PUBCHEM_OPENEYE_CAN_SMILES>
CCN(CCCC(C)NC1=C2C=CC(=CC2=NC=C1)Cl)CCO

> <PUBCHEM_OPENEYE_ISO_SMILES>
CCN(CCCC(C)NC1=C2C=CC(=CC2=NC=C1)Cl)CCO

> <PUBCHEM_CACTVS_TPSA>
48.4

> <PUBCHEM_MONOISOTOPIC_WEIGHT>
335.17644

> <PUBCHEM_TOTAL_CHARGE>
0

> <PUBCHEM_HEAVY_ATOM_COUNT>
23

> <PUBCHEM_ATOM_DEF_STEREO_COUNT>
0

> <PUBCHEM_ATOM_UDEF_STEREO_COUNT>
1

> <PUBCHEM_BOND_DEF_STEREO_COUNT>
0

> <PUBCHEM_BOND_UDEF_STEREO_COUNT>
0

> <PUBCHEM_ISOTOPIC_ATOM_COUNT>
0

> <PUBCHEM_COMPONENT_COUNT>
1

> <PUBCHEM_CACTVS_TAUTO_COUNT>
3

> <PUBCHEM_COORDINATE_TYPE>
1
5
255

> <PUBCHEM_BONDANNOTATIONS>
13  16  8
13  17  8
16  18  8
16  19  8
17  20  8
18  21  8
19  22  8
21  23  8
22  23  8
5  18  8
5  20  8
8  28  3

$$$$

