13638
  -OEChem-06241222392D

 18 19  0     0  0  0  0  0  0999 V2000
    4.6783    0.4266    0.0000 S   0  0  0  0  0  0  0  0  0  0  0  0
    5.4883    1.0130    0.0000 O   0  0  0  0  0  0  0  0  0  0  0  0
    4.3709    1.3782    0.0000 O   0  0  0  0  0  0  0  0  0  0  0  0
    5.2619   -0.3782    0.0000 N   0  0  0  0  0  0  0  0  0  0  0  0
    3.7320    0.1218    0.0000 C   0  0  0  0  0  0  0  0  0  0  0  0
    3.7320   -0.8782    0.0000 C   0  0  0  0  0  0  0  0  0  0  0  0
    4.6783   -1.1829    0.0000 C   0  0  0  0  0  0  0  0  0  0  0  0
    2.8660    0.6218    0.0000 C   0  0  0  0  0  0  0  0  0  0  0  0
    2.8660   -1.3782    0.0000 C   0  0  0  0  0  0  0  0  0  0  0  0
    2.0000    0.1218    0.0000 C   0  0  0  0  0  0  0  0  0  0  0  0
    2.0000   -0.8782    0.0000 C   0  0  0  0  0  0  0  0  0  0  0  0
    4.4272   -1.7498    0.0000 H   0  0  0  0  0  0  0  0  0  0  0  0
    5.2156   -1.4921    0.0000 H   0  0  0  0  0  0  0  0  0  0  0  0
    5.8819   -0.3782    0.0000 H   0  0  0  0  0  0  0  0  0  0  0  0
    2.8660    1.2418    0.0000 H   0  0  0  0  0  0  0  0  0  0  0  0
    2.8660   -1.9982    0.0000 H   0  0  0  0  0  0  0  0  0  0  0  0
    1.4631    0.4318    0.0000 H   0  0  0  0  0  0  0  0  0  0  0  0
    1.4631   -1.1882    0.0000 H   0  0  0  0  0  0  0  0  0  0  0  0
  1  2  2  0  0  0  0
  1  3  2  0  0  0  0
  1  4  1  0  0  0  0
  1  5  1  0  0  0  0
  4  7  1  0  0  0  0
  4 14  1  0  0  0  0
  5  6  1  0  0  0  0
  5  8  2  0  0  0  0
  6  7  1  0  0  0  0
  6  9  2  0  0  0  0
  7 12  1  0  0  0  0
  7 13  1  0  0  0  0
  8 10  1  0  0  0  0
  8 15  1  0  0  0  0
  9 11  1  0  0  0  0
  9 16  1  0  0  0  0
 10 11  2  0  0  0  0
 10 17  1  0  0  0  0
 11 18  1  0  0  0  0
M  END
> <PUBCHEM_COMPOUND_CID>
13638

> <PUBCHEM_COMPOUND_CANONICALIZED>
1

> <PUBCHEM_CACTVS_COMPLEXITY>
242

> <PUBCHEM_CACTVS_HBOND_ACCEPTOR>
3

> <PUBCHEM_CACTVS_HBOND_DONOR>
1

> <PUBCHEM_CACTVS_ROTATABLE_BOND>
0

> <PUBCHEM_CACTVS_SUBSKEYS>
AAADcYBiMABAAAAAAAAAAAAAAAAAAWAAAAAwAAAAAAAAAFgBAAAAHAQQQAAADADBWAQwAYBAAAKAAiBCAHDCABAgAAAIiJgABIgIICKAkRGAIABggAAIiAcQgAAOAAAAAAAEAAAAAAAAAAgAAAAAAAAAAA==

> <PUBCHEM_IUPAC_OPENEYE_NAME>
2,3-dihydro-1,2-benzothiazole 1,1-dioxide

> <PUBCHEM_IUPAC_CAS_NAME>
2,3-dihydro-1,2-benzothiazole 1,1-dioxide

> <PUBCHEM_IUPAC_NAME>
2,3-dihydro-1,2-benzothiazole 1,1-dioxide

> <PUBCHEM_IUPAC_SYSTEMATIC_NAME>
2,3-dihydro-1,2-benzothiazole 1,1-dioxide

> <PUBCHEM_IUPAC_TRADITIONAL_NAME>
2,3-dihydro-1,2-benzothiazole 1,1-dioxide

> <PUBCHEM_IUPAC_INCHI>
InChI=1S/C7H7NO2S/c9-11(10)7-4-2-1-3-6(7)5-8-11/h1-4,8H,5H2

> <PUBCHEM_IUPAC_INCHIKEY>
GVYVHZKTSVDMNT-UHFFFAOYSA-N

> <PUBCHEM_XLOGP3_AA>
0.5

> <PUBCHEM_EXACT_MASS>
169.019749

> <PUBCHEM_MOLECULAR_FORMULA>
C7H7NO2S

> <PUBCHEM_MOLECULAR_WEIGHT>
169.20098

> <PUBCHEM_OPENEYE_CAN_SMILES>
C1C2=CC=CC=C2S(=O)(=O)N1

> <PUBCHEM_OPENEYE_ISO_SMILES>
C1C2=CC=CC=C2S(=O)(=O)N1

> <PUBCHEM_CACTVS_TPSA>
54.6

> <PUBCHEM_MONOISOTOPIC_WEIGHT>
169.019749

> <PUBCHEM_TOTAL_CHARGE>
0

> <PUBCHEM_HEAVY_ATOM_COUNT>
11

> <PUBCHEM_ATOM_DEF_STEREO_COUNT>
0

> <PUBCHEM_ATOM_UDEF_STEREO_COUNT>
0

> <PUBCHEM_BOND_DEF_STEREO_COUNT>
0

> <PUBCHEM_BOND_UDEF_STEREO_COUNT>
0

> <PUBCHEM_ISOTOPIC_ATOM_COUNT>
0

> <PUBCHEM_COMPONENT_COUNT>
1

> <PUBCHEM_CACTVS_TAUTO_COUNT>
1

> <PUBCHEM_COORDINATE_TYPE>
1
5
255

> <PUBCHEM_BONDANNOTATIONS>
10  11  8
5  6  8
5  8  8
6  9  8
8  10  8
9  11  8

$$$$

