6520
  -OEChem-06261201222D

 81 80  0     0  0  0  0  0  0999 V2000
    6.3301    0.0000    0.0000 Si  0  0  0  0  0  0  0  0  0  0  0  0
    7.1962    0.5000    0.0000 O   0  0  0  0  0  0  0  0  0  0  0  0
    5.4641   -0.5000    0.0000 O   0  0  0  0  0  0  0  0  0  0  0  0
    5.8301    0.8660    0.0000 O   0  0  0  0  0  0  0  0  0  0  0  0
    6.8301   -0.8660    0.0000 O   0  0  0  0  0  0  0  0  0  0  0  0
    6.8301   -2.5981    0.0000 C   0  0  0  0  0  0  0  0  0  0  0  0
    5.8301    2.5981    0.0000 C   0  0  0  0  0  0  0  0  0  0  0  0
    3.7320   -0.5000    0.0000 C   0  0  0  0  0  0  0  0  0  0  0  0
    8.9282    0.5000    0.0000 C   0  0  0  0  0  0  0  0  0  0  0  0
    6.3301   -1.7320    0.0000 C   0  0  0  0  0  0  0  0  0  0  0  0
    6.3301    1.7320    0.0000 C   0  0  0  0  0  0  0  0  0  0  0  0
    4.5981    0.0000    0.0000 C   0  0  0  0  0  0  0  0  0  0  0  0
    8.0622    0.0000    0.0000 C   0  0  0  0  0  0  0  0  0  0  0  0
    6.3301   -3.4641    0.0000 C   0  0  0  0  0  0  0  0  0  0  0  0
    7.8301   -2.5981    0.0000 C   0  0  0  0  0  0  0  0  0  0  0  0
    6.3301    3.4641    0.0000 C   0  0  0  0  0  0  0  0  0  0  0  0
    4.8301    2.5981    0.0000 C   0  0  0  0  0  0  0  0  0  0  0  0
    2.8660    0.0000    0.0000 C   0  0  0  0  0  0  0  0  0  0  0  0
    3.7320   -1.5000    0.0000 C   0  0  0  0  0  0  0  0  0  0  0  0
    9.7942    0.0000    0.0000 C   0  0  0  0  0  0  0  0  0  0  0  0
    8.9282    1.5000    0.0000 C   0  0  0  0  0  0  0  0  0  0  0  0
    9.7942    2.0000    0.0000 C   0  0  0  0  0  0  0  0  0  0  0  0
   10.6603    0.5000    0.0000 C   0  0  0  0  0  0  0  0  0  0  0  0
    2.8660   -2.0000    0.0000 C   0  0  0  0  0  0  0  0  0  0  0  0
    2.0000   -0.5000    0.0000 C   0  0  0  0  0  0  0  0  0  0  0  0
    4.3301    3.4641    0.0000 C   0  0  0  0  0  0  0  0  0  0  0  0
    5.8301    4.3301    0.0000 C   0  0  0  0  0  0  0  0  0  0  0  0
    8.3301   -3.4641    0.0000 C   0  0  0  0  0  0  0  0  0  0  0  0
    6.8301   -4.3301    0.0000 C   0  0  0  0  0  0  0  0  0  0  0  0
    7.1401   -2.0611    0.0000 H   0  0  0  0  0  0  0  0  0  0  0  0
    5.5201    2.0611    0.0000 H   0  0  0  0  0  0  0  0  0  0  0  0
    3.7320    0.1200    0.0000 H   0  0  0  0  0  0  0  0  0  0  0  0
    9.4651    0.8100    0.0000 H   0  0  0  0  0  0  0  0  0  0  0  0
    6.8051    1.3335    0.0000 H   0  0  0  0  0  0  0  0  0  0  0  0
    6.8051    2.1306    0.0000 H   0  0  0  0  0  0  0  0  0  0  0  0
    5.8552   -1.3335    0.0000 H   0  0  0  0  0  0  0  0  0  0  0  0
    5.8552   -2.1306    0.0000 H   0  0  0  0  0  0  0  0  0  0  0  0
    4.9966    0.4749    0.0000 H   0  0  0  0  0  0  0  0  0  0  0  0
    4.1996    0.4749    0.0000 H   0  0  0  0  0  0  0  0  0  0  0  0
    7.6636   -0.4749    0.0000 H   0  0  0  0  0  0  0  0  0  0  0  0
    8.4607   -0.4749    0.0000 H   0  0  0  0  0  0  0  0  0  0  0  0
    5.8552   -3.0656    0.0000 H   0  0  0  0  0  0  0  0  0  0  0  0
    5.8552   -3.8626    0.0000 H   0  0  0  0  0  0  0  0  0  0  0  0
    8.4127   -2.3860    0.0000 H   0  0  0  0  0  0  0  0  0  0  0  0
    7.7225   -1.9875    0.0000 H   0  0  0  0  0  0  0  0  0  0  0  0
    6.8051    3.0656    0.0000 H   0  0  0  0  0  0  0  0  0  0  0  0
    6.8051    3.8626    0.0000 H   0  0  0  0  0  0  0  0  0  0  0  0
    4.2475    2.3860    0.0000 H   0  0  0  0  0  0  0  0  0  0  0  0
    4.9378    1.9875    0.0000 H   0  0  0  0  0  0  0  0  0  0  0  0
    3.2646    0.4749    0.0000 H   0  0  0  0  0  0  0  0  0  0  0  0
    2.4675    0.4749    0.0000 H   0  0  0  0  0  0  0  0  0  0  0  0
    3.9441   -2.0826    0.0000 H   0  0  0  0  0  0  0  0  0  0  0  0
    4.3426   -1.3923    0.0000 H   0  0  0  0  0  0  0  0  0  0  0  0
    9.3957   -0.4749    0.0000 H   0  0  0  0  0  0  0  0  0  0  0  0
   10.1928   -0.4749    0.0000 H   0  0  0  0  0  0  0  0  0  0  0  0
    8.7162    2.0826    0.0000 H   0  0  0  0  0  0  0  0  0  0  0  0
    8.3176    1.3923    0.0000 H   0  0  0  0  0  0  0  0  0  0  0  0
    4.8671    3.7741    0.0000 H   0  0  0  0  0  0  0  0  0  0  0  0
    4.0201    4.0010    0.0000 H   0  0  0  0  0  0  0  0  0  0  0  0
    3.7932    3.1541    0.0000 H   0  0  0  0  0  0  0  0  0  0  0  0
    6.3671    4.6401    0.0000 H   0  0  0  0  0  0  0  0  0  0  0  0
    5.5201    4.8671    0.0000 H   0  0  0  0  0  0  0  0  0  0  0  0
    5.2932    4.0201    0.0000 H   0  0  0  0  0  0  0  0  0  0  0  0
    7.7932   -3.7741    0.0000 H   0  0  0  0  0  0  0  0  0  0  0  0
    8.6401   -4.0010    0.0000 H   0  0  0  0  0  0  0  0  0  0  0  0
    8.8671   -3.1541    0.0000 H   0  0  0  0  0  0  0  0  0  0  0  0
    6.2932   -4.6401    0.0000 H   0  0  0  0  0  0  0  0  0  0  0  0
    7.1401   -4.8671    0.0000 H   0  0  0  0  0  0  0  0  0  0  0  0
    7.3671   -4.0201    0.0000 H   0  0  0  0  0  0  0  0  0  0  0  0
    1.6900    0.0369    0.0000 H   0  0  0  0  0  0  0  0  0  0  0  0
    1.4631   -0.8100    0.0000 H   0  0  0  0  0  0  0  0  0  0  0  0
    2.3100   -1.0369    0.0000 H   0  0  0  0  0  0  0  0  0  0  0  0
    2.5560   -1.4631    0.0000 H   0  0  0  0  0  0  0  0  0  0  0  0
    2.3291   -2.3100    0.0000 H   0  0  0  0  0  0  0  0  0  0  0  0
    3.1760   -2.5369    0.0000 H   0  0  0  0  0  0  0  0  0  0  0  0
   10.9703   -0.0369    0.0000 H   0  0  0  0  0  0  0  0  0  0  0  0
   11.1972    0.8100    0.0000 H   0  0  0  0  0  0  0  0  0  0  0  0
   10.3503    1.0369    0.0000 H   0  0  0  0  0  0  0  0  0  0  0  0
   10.1042    1.4631    0.0000 H   0  0  0  0  0  0  0  0  0  0  0  0
   10.3312    2.3100    0.0000 H   0  0  0  0  0  0  0  0  0  0  0  0
    9.4842    2.5369    0.0000 H   0  0  0  0  0  0  0  0  0  0  0  0
  1  2  1  0  0  0  0
  1  3  1  0  0  0  0
  1  4  1  0  0  0  0
  1  5  1  0  0  0  0
  2 13  1  0  0  0  0
  3 12  1  0  0  0  0
  4 11  1  0  0  0  0
  5 10  1  0  0  0  0
  6 10  1  0  0  0  0
  6 14  1  0  0  0  0
  6 15  1  0  0  0  0
  6 30  1  0  0  0  0
  7 11  1  0  0  0  0
  7 16  1  0  0  0  0
  7 17  1  0  0  0  0
  7 31  1  0  0  0  0
  8 12  1  0  0  0  0
  8 18  1  0  0  0  0
  8 19  1  0  0  0  0
  8 32  1  0  0  0  0
  9 13  1  0  0  0  0
  9 20  1  0  0  0  0
  9 21  1  0  0  0  0
  9 33  1  0  0  0  0
 10 36  1  0  0  0  0
 10 37  1  0  0  0  0
 11 34  1  0  0  0  0
 11 35  1  0  0  0  0
 12 38  1  0  0  0  0
 12 39  1  0  0  0  0
 13 40  1  0  0  0  0
 13 41  1  0  0  0  0
 14 29  1  0  0  0  0
 14 42  1  0  0  0  0
 14 43  1  0  0  0  0
 15 28  1  0  0  0  0
 15 44  1  0  0  0  0
 15 45  1  0  0  0  0
 16 27  1  0  0  0  0
 16 46  1  0  0  0  0
 16 47  1  0  0  0  0
 17 26  1  0  0  0  0
 17 48  1  0  0  0  0
 17 49  1  0  0  0  0
 18 25  1  0  0  0  0
 18 50  1  0  0  0  0
 18 51  1  0  0  0  0
 19 24  1  0  0  0  0
 19 52  1  0  0  0  0
 19 53  1  0  0  0  0
 20 23  1  0  0  0  0
 20 54  1  0  0  0  0
 20 55  1  0  0  0  0
 21 22  1  0  0  0  0
 21 56  1  0  0  0  0
 21 57  1  0  0  0  0
 22 79  1  0  0  0  0
 22 80  1  0  0  0  0
 22 81  1  0  0  0  0
 23 76  1  0  0  0  0
 23 77  1  0  0  0  0
 23 78  1  0  0  0  0
 24 73  1  0  0  0  0
 24 74  1  0  0  0  0
 24 75  1  0  0  0  0
 25 70  1  0  0  0  0
 25 71  1  0  0  0  0
 25 72  1  0  0  0  0
 26 58  1  0  0  0  0
 26 59  1  0  0  0  0
 26 60  1  0  0  0  0
 27 61  1  0  0  0  0
 27 62  1  0  0  0  0
 27 63  1  0  0  0  0
 28 64  1  0  0  0  0
 28 65  1  0  0  0  0
 28 66  1  0  0  0  0
 29 67  1  0  0  0  0
 29 68  1  0  0  0  0
 29 69  1  0  0  0  0
M  END
> <PUBCHEM_COMPOUND_CID>
6520

> <PUBCHEM_COMPOUND_CANONICALIZED>
1

> <PUBCHEM_CACTVS_COMPLEXITY>
281

> <PUBCHEM_CACTVS_HBOND_ACCEPTOR>
4

> <PUBCHEM_CACTVS_HBOND_DONOR>
0

> <PUBCHEM_CACTVS_ROTATABLE_BOND>
20

> <PUBCHEM_CACTVS_SUBSKEYS>
AAADcfB4OAgAAAAAAAAAAAAAAAAAAAAAAAAAAAAAAAAAAAAAAAAAGgAAAEAADQCggAICAAAAAAAAAAAAAAAAAAAAAAAAAAAAAAAAAAIAAAAAAAAEAAAAAAAAAAAKAAAAAAAAAAAAAAAAAAAAAAAAAAAAAA==

> <PUBCHEM_IUPAC_OPENEYE_NAME>
tetrakis(2-ethylbutyl) silicate

> <PUBCHEM_IUPAC_CAS_NAME>
tetrakis(2-ethylbutyl) silicate

> <PUBCHEM_IUPAC_NAME>
tetrakis(2-ethylbutyl) silicate

> <PUBCHEM_IUPAC_SYSTEMATIC_NAME>
tetrakis(2-ethylbutyl) silicate

> <PUBCHEM_IUPAC_TRADITIONAL_NAME>
tetrakis(2-ethylbutyl) orthosilicate

> <PUBCHEM_IUPAC_INCHI>
InChI=1S/C24H52O4Si/c1-9-21(10-2)17-25-29(26-18-22(11-3)12-4,27-19-23(13-5)14-6)28-20-24(15-7)16-8/h21-24H,9-20H2,1-8H3

> <PUBCHEM_IUPAC_INCHIKEY>
SWQWONXMUXCEDF-UHFFFAOYSA-N

> <PUBCHEM_EXACT_MASS>
432.363487

> <PUBCHEM_MOLECULAR_FORMULA>
C24H52O4Si

> <PUBCHEM_MOLECULAR_WEIGHT>
432.75278

> <PUBCHEM_OPENEYE_CAN_SMILES>
CCC(CC)CO[Si](OCC(CC)CC)(OCC(CC)CC)OCC(CC)CC

> <PUBCHEM_OPENEYE_ISO_SMILES>
CCC(CC)CO[Si](OCC(CC)CC)(OCC(CC)CC)OCC(CC)CC

> <PUBCHEM_CACTVS_TPSA>
36.9

> <PUBCHEM_MONOISOTOPIC_WEIGHT>
432.363487

> <PUBCHEM_TOTAL_CHARGE>
0

> <PUBCHEM_HEAVY_ATOM_COUNT>
29

> <PUBCHEM_ATOM_DEF_STEREO_COUNT>
0

> <PUBCHEM_ATOM_UDEF_STEREO_COUNT>
0

> <PUBCHEM_BOND_DEF_STEREO_COUNT>
0

> <PUBCHEM_BOND_UDEF_STEREO_COUNT>
0

> <PUBCHEM_ISOTOPIC_ATOM_COUNT>
0

> <PUBCHEM_COMPONENT_COUNT>
1

> <PUBCHEM_CACTVS_TAUTO_COUNT>
1

> <PUBCHEM_COORDINATE_TYPE>
1
5
255

$$$$

