17396523
  -OEChem-06241222572D

 47 49  0     0  0  0  0  0  0999 V2000
    5.1409    0.2340    0.0000 S   0  0  0  0  0  0  0  0  0  0  0  0
    2.1233    1.7660    0.0000 F   0  0  0  0  0  0  0  0  0  0  0  0
    2.0000    0.3572    0.0000 F   0  0  0  0  0  0  0  0  0  0  0  0
    3.5321    1.6428    0.0000 F   0  0  0  0  0  0  0  0  0  0  0  0
    4.6409    1.1000    0.0000 O   0  0  0  0  0  0  0  0  0  0  0  0
    5.6409   -0.6321    0.0000 O   0  0  0  0  0  0  0  0  0  0  0  0
   14.7474    0.5387    0.0000 O   0  0  0  0  0  0  0  0  0  0  0  0
   14.7474   -1.0708    0.0000 O   0  0  0  0  0  0  0  0  0  0  0  0
    8.6050   -0.7660    0.0000 O   0  0  0  0  0  0  0  0  0  0  0  0
   11.2031    1.7340    0.0000 O   0  0  0  0  0  0  0  0  0  0  0  0
    6.0069    0.7340    0.0000 N   0  0  0  0  0  0  0  0  0  0  0  0
    9.4710    0.7340    0.0000 N   0  0  0  0  0  0  0  0  0  0  0  0
   10.3370    0.2340    0.0000 N   0  0  0  0  0  0  0  0  0  0  0  0
    4.2749   -0.2660    0.0000 C   0  0  0  0  0  0  0  0  0  0  0  0
    6.8729    0.2340    0.0000 C   0  0  0  0  0  0  0  0  0  0  0  0
    3.4088    0.2340    0.0000 C   0  0  0  0  0  0  0  0  0  0  0  0
    7.7390    0.7340    0.0000 C   0  0  0  0  0  0  0  0  0  0  0  0
    4.2749   -1.2660    0.0000 C   0  0  0  0  0  0  0  0  0  0  0  0
    2.5428   -0.2660    0.0000 C   0  0  0  0  0  0  0  0  0  0  0  0
    2.7660    1.0000    0.0000 C   0  0  0  0  0  0  0  0  0  0  0  0
    8.6050    0.2340    0.0000 C   0  0  0  0  0  0  0  0  0  0  0  0
    3.4088   -1.7660    0.0000 C   0  0  0  0  0  0  0  0  0  0  0  0
    2.5428   -1.2660    0.0000 C   0  0  0  0  0  0  0  0  0  0  0  0
   13.8011    0.2340    0.0000 C   0  0  0  0  0  0  0  0  0  0  0  0
   12.0691    0.2340    0.0000 C   0  0  0  0  0  0  0  0  0  0  0  0
   13.8011   -0.7660    0.0000 C   0  0  0  0  0  0  0  0  0  0  0  0
   12.9351    0.7340    0.0000 C   0  0  0  0  0  0  0  0  0  0  0  0
   12.0691   -0.7660    0.0000 C   0  0  0  0  0  0  0  0  0  0  0  0
   12.9351   -1.2660    0.0000 C   0  0  0  0  0  0  0  0  0  0  0  0
   11.2031    0.7340    0.0000 C   0  0  0  0  0  0  0  0  0  0  0  0
   15.3310   -0.2660    0.0000 C   0  0  0  0  0  0  0  0  0  0  0  0
    6.4744   -0.2410    0.0000 H   0  0  0  0  0  0  0  0  0  0  0  0
    7.2715   -0.2410    0.0000 H   0  0  0  0  0  0  0  0  0  0  0  0
    6.0069    1.3540    0.0000 H   0  0  0  0  0  0  0  0  0  0  0  0
    8.1375    1.2089    0.0000 H   0  0  0  0  0  0  0  0  0  0  0  0
    7.3404    1.2089    0.0000 H   0  0  0  0  0  0  0  0  0  0  0  0
    4.8118   -1.5760    0.0000 H   0  0  0  0  0  0  0  0  0  0  0  0
    2.0059    0.0440    0.0000 H   0  0  0  0  0  0  0  0  0  0  0  0
    3.4088   -2.3860    0.0000 H   0  0  0  0  0  0  0  0  0  0  0  0
    2.0059   -1.5760    0.0000 H   0  0  0  0  0  0  0  0  0  0  0  0
   12.9351    1.3540    0.0000 H   0  0  0  0  0  0  0  0  0  0  0  0
   11.5322   -1.0760    0.0000 H   0  0  0  0  0  0  0  0  0  0  0  0
   12.9351   -1.8860    0.0000 H   0  0  0  0  0  0  0  0  0  0  0  0
    9.4710    1.3540    0.0000 H   0  0  0  0  0  0  0  0  0  0  0  0
   15.7918   -0.6808    0.0000 H   0  0  0  0  0  0  0  0  0  0  0  0
   15.7918    0.1487    0.0000 H   0  0  0  0  0  0  0  0  0  0  0  0
   10.3370   -0.3860    0.0000 H   0  0  0  0  0  0  0  0  0  0  0  0
  1  5  2  0  0  0  0
  1  6  2  0  0  0  0
  1 11  1  0  0  0  0
  1 14  1  0  0  0  0
  2 20  1  0  0  0  0
  3 20  1  0  0  0  0
  4 20  1  0  0  0  0
  7 24  1  0  0  0  0
  7 31  1  0  0  0  0
  8 26  1  0  0  0  0
  8 31  1  0  0  0  0
  9 21  2  0  0  0  0
 10 30  2  0  0  0  0
 11 15  1  0  0  0  0
 11 34  1  0  0  0  0
 12 13  1  0  0  0  0
 12 21  1  0  0  0  0
 12 44  1  0  0  0  0
 13 30  1  0  0  0  0
 13 47  1  0  0  0  0
 14 16  1  0  0  0  0
 14 18  2  0  0  0  0
 15 17  1  0  0  0  0
 15 32  1  0  0  0  0
 15 33  1  0  0  0  0
 16 19  2  0  0  0  0
 16 20  1  0  0  0  0
 17 21  1  0  0  0  0
 17 35  1  0  0  0  0
 17 36  1  0  0  0  0
 18 22  1  0  0  0  0
 18 37  1  0  0  0  0
 19 23  1  0  0  0  0
 19 38  1  0  0  0  0
 22 23  2  0  0  0  0
 22 39  1  0  0  0  0
 23 40  1  0  0  0  0
 24 26  2  0  0  0  0
 24 27  1  0  0  0  0
 25 27  2  0  0  0  0
 25 28  1  0  0  0  0
 25 30  1  0  0  0  0
 26 29  1  0  0  0  0
 27 41  1  0  0  0  0
 28 29  2  0  0  0  0
 28 42  1  0  0  0  0
 29 43  1  0  0  0  0
 31 45  1  0  0  0  0
 31 46  1  0  0  0  0
M  END
> <PUBCHEM_COMPOUND_CID>
17396523

> <PUBCHEM_COMPOUND_CANONICALIZED>
1

> <PUBCHEM_CACTVS_COMPLEXITY>
758

> <PUBCHEM_CACTVS_HBOND_ACCEPTOR>
10

> <PUBCHEM_CACTVS_HBOND_DONOR>
3

> <PUBCHEM_CACTVS_ROTATABLE_BOND>
6

> <PUBCHEM_CACTVS_SUBSKEYS>
AAADceB7OYBAAAAAAAAAAAAAAAAAASAAAAAwYAAAAAAAAEgBQAAAHwQYQAAADATB2BcwD4BiBAKIAiFSEHDCCBAkIAIaqJkGjMgdJjqE9RugMSJk0BEOqYe63BDOIAABAAAEQABAAAIAAAiAAAAAAAAAAA==

> <PUBCHEM_IUPAC_OPENEYE_NAME>
N-[3-[2-(1,3-benzodioxole-5-carbonyl)hydrazino]-3-oxo-propyl]-2-(trifluoromethyl)benzenesulfonamide

> <PUBCHEM_IUPAC_CAS_NAME>
N-[3-[[1,3-benzodioxol-5-yl(oxo)methyl]hydrazo]-3-oxopropyl]-2-(trifluoromethyl)benzenesulfonamide

> <PUBCHEM_IUPAC_NAME>
N-[3-[2-(1,3-benzodioxole-5-carbonyl)hydrazinyl]-3-oxopropyl]-2-(trifluoromethyl)benzenesulfonamide

> <PUBCHEM_IUPAC_SYSTEMATIC_NAME>
N-[3-[2-(1,3-benzodioxol-5-ylcarbonyl)hydrazinyl]-3-oxidanylidene-propyl]-2-(trifluoromethyl)benzenesulfonamide

> <PUBCHEM_IUPAC_TRADITIONAL_NAME>
N-[3-keto-3-(N'-piperonyloylhydrazino)propyl]-2-(trifluoromethyl)benzenesulfonamide

> <PUBCHEM_IUPAC_INCHI>
InChI=1S/C18H16F3N3O6S/c19-18(20,21)12-3-1-2-4-15(12)31(27,28)22-8-7-16(25)23-24-17(26)11-5-6-13-14(9-11)30-10-29-13/h1-6,9,22H,7-8,10H2,(H,23,25)(H,24,26)

> <PUBCHEM_IUPAC_INCHIKEY>
POFCAWMLOYXKCG-UHFFFAOYSA-N

> <PUBCHEM_XLOGP3_AA>
2

> <PUBCHEM_EXACT_MASS>
459.071191

> <PUBCHEM_MOLECULAR_FORMULA>
C18H16F3N3O6S

> <PUBCHEM_MOLECULAR_WEIGHT>
459.39635

> <PUBCHEM_OPENEYE_CAN_SMILES>
C1OC2=C(O1)C=C(C=C2)C(=O)NNC(=O)CCNS(=O)(=O)C3=CC=CC=C3C(F)(F)F

> <PUBCHEM_OPENEYE_ISO_SMILES>
C1OC2=C(O1)C=C(C=C2)C(=O)NNC(=O)CCNS(=O)(=O)C3=CC=CC=C3C(F)(F)F

> <PUBCHEM_CACTVS_TPSA>
131

> <PUBCHEM_MONOISOTOPIC_WEIGHT>
459.071191

> <PUBCHEM_TOTAL_CHARGE>
0

> <PUBCHEM_HEAVY_ATOM_COUNT>
31

> <PUBCHEM_ATOM_DEF_STEREO_COUNT>
0

> <PUBCHEM_ATOM_UDEF_STEREO_COUNT>
0

> <PUBCHEM_BOND_DEF_STEREO_COUNT>
0

> <PUBCHEM_BOND_UDEF_STEREO_COUNT>
0

> <PUBCHEM_ISOTOPIC_ATOM_COUNT>
0

> <PUBCHEM_COMPONENT_COUNT>
1

> <PUBCHEM_CACTVS_TAUTO_COUNT>
4

> <PUBCHEM_COORDINATE_TYPE>
1
5
255

> <PUBCHEM_BONDANNOTATIONS>
14  16  8
14  18  8
16  19  8
18  22  8
19  23  8
22  23  8
24  26  8
24  27  8
25  27  8
25  28  8
26  29  8
28  29  8

$$$$

