11018
  -OEChem-06261205142D

 51 53  0     1  0  0  0  0  0999 V2000
    4.8100   -0.7087    0.0000 O   0  0  0  0  0  0  0  0  0  0  0  0
    2.3100    0.1574    0.0000 O   0  0  0  0  0  0  0  0  0  0  0  0
    4.8100    1.0234    0.0000 O   0  0  0  0  0  0  0  0  0  0  0  0
    7.3045   -1.6792    0.0000 N   0  3  0  0  0  0  0  0  0  0  0  0
    6.3100   -1.5747    0.0000 C   0  0  3  0  0  0  0  0  0  0  0  0
    7.5124   -2.6574    0.0000 C   0  0  0  0  0  0  0  0  0  0  0  0
    5.9033   -2.4882    0.0000 C   0  0  0  0  0  0  0  0  0  0  0  0
    6.6464   -3.1574    0.0000 C   0  0  0  0  0  0  0  0  0  0  0  0
    8.2827   -1.4713    0.0000 C   0  0  0  0  0  0  0  0  0  0  0  0
    7.4090   -0.6847    0.0000 C   0  0  0  0  0  0  0  0  0  0  0  0
    5.8100   -0.7087    0.0000 C   0  0  0  0  0  0  0  0  0  0  0  0
    4.3100    0.1574    0.0000 C   0  0  0  0  0  0  0  0  0  0  0  0
    3.3100    0.1574    0.0000 C   0  0  0  0  0  0  0  0  0  0  0  0
    3.3100   -0.8426    0.0000 C   0  0  0  0  0  0  0  0  0  0  0  0
    3.3100    1.1574    0.0000 C   0  0  0  0  0  0  0  0  0  0  0  0
    4.1760    1.6574    0.0000 C   0  0  0  0  0  0  0  0  0  0  0  0
    2.4440   -1.3426    0.0000 C   0  0  0  0  0  0  0  0  0  0  0  0
    2.4440    1.6574    0.0000 C   0  0  0  0  0  0  0  0  0  0  0  0
    4.1760   -1.3426    0.0000 C   0  0  0  0  0  0  0  0  0  0  0  0
    4.1760    2.6574    0.0000 C   0  0  0  0  0  0  0  0  0  0  0  0
    2.4440   -2.3426    0.0000 C   0  0  0  0  0  0  0  0  0  0  0  0
    2.4440    2.6574    0.0000 C   0  0  0  0  0  0  0  0  0  0  0  0
    4.1760   -2.3426    0.0000 C   0  0  0  0  0  0  0  0  0  0  0  0
    3.3100    3.1574    0.0000 C   0  0  0  0  0  0  0  0  0  0  0  0
    3.3100   -2.8426    0.0000 C   0  0  0  0  0  0  0  0  0  0  0  0
    6.6477   -1.0547    0.0000 H   0  0  0  0  0  0  0  0  0  0  0  0
    7.7646   -3.2238    0.0000 H   0  0  0  0  0  0  0  0  0  0  0  0
    8.1021   -2.4658    0.0000 H   0  0  0  0  0  0  0  0  0  0  0  0
    5.3663   -2.1782    0.0000 H   0  0  0  0  0  0  0  0  0  0  0  0
    5.5388   -2.9898    0.0000 H   0  0  0  0  0  0  0  0  0  0  0  0
    6.1857   -3.5722    0.0000 H   0  0  0  0  0  0  0  0  0  0  0  0
    7.0108   -3.6590    0.0000 H   0  0  0  0  0  0  0  0  0  0  0  0
    8.4116   -2.0778    0.0000 H   0  0  0  0  0  0  0  0  0  0  0  0
    8.0256   -0.7495    0.0000 H   0  0  0  0  0  0  0  0  0  0  0  0
    8.8891   -1.3424    0.0000 H   0  0  0  0  0  0  0  0  0  0  0  0
    8.1538   -0.8649    0.0000 H   0  0  0  0  0  0  0  0  0  0  0  0
    7.4739   -0.0681    0.0000 H   0  0  0  0  0  0  0  0  0  0  0  0
    6.7924   -0.6199    0.0000 H   0  0  0  0  0  0  0  0  0  0  0  0
    6.3926   -0.4966    0.0000 H   0  0  0  0  0  0  0  0  0  0  0  0
    5.7023   -0.0981    0.0000 H   0  0  0  0  0  0  0  0  0  0  0  0
    2.0000    0.6943    0.0000 H   0  0  0  0  0  0  0  0  0  0  0  0
    4.7130    1.3474    0.0000 H   0  0  0  0  0  0  0  0  0  0  0  0
    1.9070   -1.0326    0.0000 H   0  0  0  0  0  0  0  0  0  0  0  0
    1.9070    1.3474    0.0000 H   0  0  0  0  0  0  0  0  0  0  0  0
    4.7130   -1.0326    0.0000 H   0  0  0  0  0  0  0  0  0  0  0  0
    4.7130    2.9674    0.0000 H   0  0  0  0  0  0  0  0  0  0  0  0
    1.9070   -2.6526    0.0000 H   0  0  0  0  0  0  0  0  0  0  0  0
    1.9070    2.9674    0.0000 H   0  0  0  0  0  0  0  0  0  0  0  0
    4.7130   -2.6526    0.0000 H   0  0  0  0  0  0  0  0  0  0  0  0
    3.3100    3.7774    0.0000 H   0  0  0  0  0  0  0  0  0  0  0  0
    3.3100   -3.4626    0.0000 H   0  0  0  0  0  0  0  0  0  0  0  0
  1 11  1  0  0  0  0
  1 12  1  0  0  0  0
  2 13  1  0  0  0  0
  2 41  1  0  0  0  0
  3 12  2  0  0  0  0
  4  5  1  0  0  0  0
  4  6  1  0  0  0  0
  4  9  1  0  0  0  0
  4 10  1  0  0  0  0
  5  7  1  0  0  0  0
  5 11  1  0  0  0  0
  5 26  1  0  0  0  0
  6  8  1  0  0  0  0
  6 27  1  0  0  0  0
  6 28  1  0  0  0  0
  7  8  1  0  0  0  0
  7 29  1  0  0  0  0
  7 30  1  0  0  0  0
  8 31  1  0  0  0  0
  8 32  1  0  0  0  0
  9 33  1  0  0  0  0
  9 35  1  0  0  0  0
  9 36  1  0  0  0  0
 10 34  1  0  0  0  0
 10 37  1  0  0  0  0
 10 38  1  0  0  0  0
 11 39  1  0  0  0  0
 11 40  1  0  0  0  0
 12 13  1  0  0  0  0
 13 14  1  0  0  0  0
 13 15  1  0  0  0  0
 14 17  2  0  0  0  0
 14 19  1  0  0  0  0
 15 16  2  0  0  0  0
 15 18  1  0  0  0  0
 16 20  1  0  0  0  0
 16 42  1  0  0  0  0
 17 21  1  0  0  0  0
 17 43  1  0  0  0  0
 18 22  2  0  0  0  0
 18 44  1  0  0  0  0
 19 23  2  0  0  0  0
 19 45  1  0  0  0  0
 20 24  2  0  0  0  0
 20 46  1  0  0  0  0
 21 25  2  0  0  0  0
 21 47  1  0  0  0  0
 22 24  1  0  0  0  0
 22 48  1  0  0  0  0
 23 25  1  0  0  0  0
 23 49  1  0  0  0  0
 24 50  1  0  0  0  0
 25 51  1  0  0  0  0
M  CHG  1   4   1
M  END
> <PUBCHEM_COMPOUND_CID>
11018

> <PUBCHEM_COMPOUND_CANONICALIZED>
1

> <PUBCHEM_CACTVS_COMPLEXITY>
432

> <PUBCHEM_CACTVS_HBOND_ACCEPTOR>
3

> <PUBCHEM_CACTVS_HBOND_DONOR>
1

> <PUBCHEM_CACTVS_ROTATABLE_BOND>
6

> <PUBCHEM_CACTVS_SUBSKEYS>
AAADceB6MAAAAAAAAAAAAAAAAAAAAWAAAAAwYAAAAAAAAAABQAAAHgAACAAADGzhmAYyCIMABgCIAiDSCAICAAAgAAAIiAFICIgLJjKAlRCHcAAkwAGbmAeY2OKOgAAAAAAAAAAAAAAAAAAAAAAAAAAAAA==

> <PUBCHEM_IUPAC_OPENEYE_NAME>
(1,1-dimethylpyrrolidin-1-ium-2-yl)methyl 2-hydroxy-2,2-diphenyl-acetate

> <PUBCHEM_IUPAC_CAS_NAME>
2-hydroxy-2,2-diphenylacetic acid (1,1-dimethyl-2-pyrrolidin-1-iumyl)methyl ester

> <PUBCHEM_IUPAC_NAME>
(1,1-dimethylpyrrolidin-1-ium-2-yl)methyl 2-hydroxy-2,2-diphenylacetate

> <PUBCHEM_IUPAC_SYSTEMATIC_NAME>
(1,1-dimethylpyrrolidin-1-ium-2-yl)methyl 2-oxidanyl-2,2-diphenyl-ethanoate

> <PUBCHEM_IUPAC_TRADITIONAL_NAME>
2-hydroxy-2,2-diphenyl-acetic acid (1,1-dimethylpyrrolidin-1-ium-2-yl)methyl ester

> <PUBCHEM_IUPAC_INCHI>
InChI=1S/C21H26NO3/c1-22(2)15-9-14-19(22)16-25-20(23)21(24,17-10-5-3-6-11-17)18-12-7-4-8-13-18/h3-8,10-13,19,24H,9,14-16H2,1-2H3/q+1

> <PUBCHEM_IUPAC_INCHIKEY>
CQRKVVAGMJJJSR-UHFFFAOYSA-N

> <PUBCHEM_XLOGP3_AA>
3.2

> <PUBCHEM_EXACT_MASS>
340.191269

> <PUBCHEM_MOLECULAR_FORMULA>
C21H26NO3+

> <PUBCHEM_MOLECULAR_WEIGHT>
340.43604

> <PUBCHEM_OPENEYE_CAN_SMILES>
C[N+]1(CCCC1COC(=O)C(C2=CC=CC=C2)(C3=CC=CC=C3)O)C

> <PUBCHEM_OPENEYE_ISO_SMILES>
C[N+]1(CCCC1COC(=O)C(C2=CC=CC=C2)(C3=CC=CC=C3)O)C

> <PUBCHEM_CACTVS_TPSA>
46.5

> <PUBCHEM_MONOISOTOPIC_WEIGHT>
340.191269

> <PUBCHEM_TOTAL_CHARGE>
1

> <PUBCHEM_HEAVY_ATOM_COUNT>
25

> <PUBCHEM_ATOM_DEF_STEREO_COUNT>
0

> <PUBCHEM_ATOM_UDEF_STEREO_COUNT>
1

> <PUBCHEM_BOND_DEF_STEREO_COUNT>
0

> <PUBCHEM_BOND_UDEF_STEREO_COUNT>
0

> <PUBCHEM_ISOTOPIC_ATOM_COUNT>
0

> <PUBCHEM_COMPONENT_COUNT>
1

> <PUBCHEM_CACTVS_TAUTO_COUNT>
1

> <PUBCHEM_COORDINATE_TYPE>
1
5
255

> <PUBCHEM_BONDANNOTATIONS>
14  17  8
14  19  8
15  16  8
15  18  8
16  20  8
17  21  8
18  22  8
19  23  8
20  24  8
21  25  8
22  24  8
23  25  8
5  11  3

$$$$

