4633
  -OEChem-06261200152D

 50 50  0     0  0  0  0  0  0999 V2000
    6.0010   -1.7500    0.0000 O   0  0  0  0  0  0  0  0  0  0  0  0
    4.2690    2.2500    0.0000 O   0  0  0  0  0  0  0  0  0  0  0  0
    6.8671   -0.2500    0.0000 O   0  0  0  0  0  0  0  0  0  0  0  0
    7.7331   -3.7500    0.0000 N   0  0  0  0  0  0  0  0  0  0  0  0
    2.5369    1.2500    0.0000 N   0  0  0  0  0  0  0  0  0  0  0  0
    6.8671   -3.2500    0.0000 C   0  0  0  0  0  0  0  0  0  0  0  0
    7.7331   -4.7500    0.0000 C   0  0  0  0  0  0  0  0  0  0  0  0
    8.5991   -3.2500    0.0000 C   0  0  0  0  0  0  0  0  0  0  0  0
    6.8671   -2.2500    0.0000 C   0  0  0  0  0  0  0  0  0  0  0  0
    9.4651   -3.7500    0.0000 C   0  0  0  0  0  0  0  0  0  0  0  0
    8.5991   -5.2500    0.0000 C   0  0  0  0  0  0  0  0  0  0  0  0
    5.1350    3.7500    0.0000 C   0  0  0  0  0  0  0  0  0  0  0  0
    5.1350    2.7500    0.0000 C   0  0  0  0  0  0  0  0  0  0  0  0
    6.0010    4.2500    0.0000 C   0  0  0  0  0  0  0  0  0  0  0  0
    4.2690    1.2500    0.0000 C   0  0  0  0  0  0  0  0  0  0  0  0
    5.1350   -0.2500    0.0000 C   0  0  0  0  0  0  0  0  0  0  0  0
    6.0010   -0.7500    0.0000 C   0  0  0  0  0  0  0  0  0  0  0  0
    5.1350    0.7500    0.0000 C   0  0  0  0  0  0  0  0  0  0  0  0
    3.4030    0.7500    0.0000 C   0  0  0  0  0  0  0  0  0  0  0  0
    6.0010    5.2500    0.0000 C   0  0  0  0  0  0  0  0  0  0  0  0
    4.2690   -0.7500    0.0000 C   0  0  0  0  0  0  0  0  0  0  0  0
    3.4030   -0.2500    0.0000 C   0  0  0  0  0  0  0  0  0  0  0  0
    6.2565   -3.1423    0.0000 H   0  0  0  0  0  0  0  0  0  0  0  0
    6.6550   -3.8326    0.0000 H   0  0  0  0  0  0  0  0  0  0  0  0
    7.1225   -4.6423    0.0000 H   0  0  0  0  0  0  0  0  0  0  0  0
    7.5210   -5.3326    0.0000 H   0  0  0  0  0  0  0  0  0  0  0  0
    8.9976   -2.7750    0.0000 H   0  0  0  0  0  0  0  0  0  0  0  0
    8.2006   -2.7750    0.0000 H   0  0  0  0  0  0  0  0  0  0  0  0
    7.4776   -2.3577    0.0000 H   0  0  0  0  0  0  0  0  0  0  0  0
    7.0791   -1.6674    0.0000 H   0  0  0  0  0  0  0  0  0  0  0  0
    8.2891   -5.7869    0.0000 H   0  0  0  0  0  0  0  0  0  0  0  0
    9.1360   -5.5600    0.0000 H   0  0  0  0  0  0  0  0  0  0  0  0
    8.9091   -4.7131    0.0000 H   0  0  0  0  0  0  0  0  0  0  0  0
    9.1551   -4.2869    0.0000 H   0  0  0  0  0  0  0  0  0  0  0  0
   10.0021   -4.0600    0.0000 H   0  0  0  0  0  0  0  0  0  0  0  0
    9.7751   -3.2131    0.0000 H   0  0  0  0  0  0  0  0  0  0  0  0
    4.9230    4.3326    0.0000 H   0  0  0  0  0  0  0  0  0  0  0  0
    4.5244    3.6423    0.0000 H   0  0  0  0  0  0  0  0  0  0  0  0
    5.3471    2.1674    0.0000 H   0  0  0  0  0  0  0  0  0  0  0  0
    5.7456    2.8577    0.0000 H   0  0  0  0  0  0  0  0  0  0  0  0
    6.2131    3.6674    0.0000 H   0  0  0  0  0  0  0  0  0  0  0  0
    6.6116    4.3577    0.0000 H   0  0  0  0  0  0  0  0  0  0  0  0
    5.6720    1.0600    0.0000 H   0  0  0  0  0  0  0  0  0  0  0  0
    6.6210    5.2500    0.0000 H   0  0  0  0  0  0  0  0  0  0  0  0
    6.0010    5.8700    0.0000 H   0  0  0  0  0  0  0  0  0  0  0  0
    5.3810    5.2500    0.0000 H   0  0  0  0  0  0  0  0  0  0  0  0
    4.2690   -1.3700    0.0000 H   0  0  0  0  0  0  0  0  0  0  0  0
    2.8660   -0.5600    0.0000 H   0  0  0  0  0  0  0  0  0  0  0  0
    2.0000    0.9400    0.0000 H   0  0  0  0  0  0  0  0  0  0  0  0
    2.5369    1.8700    0.0000 H   0  0  0  0  0  0  0  0  0  0  0  0
  1  9  1  0  0  0  0
  1 17  1  0  0  0  0
  2 13  1  0  0  0  0
  2 15  1  0  0  0  0
  3 17  2  0  0  0  0
  4  6  1  0  0  0  0
  4  7  1  0  0  0  0
  4  8  1  0  0  0  0
  5 19  1  0  0  0  0
  5 49  1  0  0  0  0
  5 50  1  0  0  0  0
  6  9  1  0  0  0  0
  6 23  1  0  0  0  0
  6 24  1  0  0  0  0
  7 11  1  0  0  0  0
  7 25  1  0  0  0  0
  7 26  1  0  0  0  0
  8 10  1  0  0  0  0
  8 27  1  0  0  0  0
  8 28  1  0  0  0  0
  9 29  1  0  0  0  0
  9 30  1  0  0  0  0
 10 34  1  0  0  0  0
 10 35  1  0  0  0  0
 10 36  1  0  0  0  0
 11 31  1  0  0  0  0
 11 32  1  0  0  0  0
 11 33  1  0  0  0  0
 12 13  1  0  0  0  0
 12 14  1  0  0  0  0
 12 37  1  0  0  0  0
 12 38  1  0  0  0  0
 13 39  1  0  0  0  0
 13 40  1  0  0  0  0
 14 20  1  0  0  0  0
 14 41  1  0  0  0  0
 14 42  1  0  0  0  0
 15 18  1  0  0  0  0
 15 19  2  0  0  0  0
 16 17  1  0  0  0  0
 16 18  2  0  0  0  0
 16 21  1  0  0  0  0
 18 43  1  0  0  0  0
 19 22  1  0  0  0  0
 20 44  1  0  0  0  0
 20 45  1  0  0  0  0
 20 46  1  0  0  0  0
 21 22  2  0  0  0  0
 21 47  1  0  0  0  0
 22 48  1  0  0  0  0
M  END
> <PUBCHEM_COMPOUND_CID>
4633

> <PUBCHEM_COMPOUND_CANONICALIZED>
1

> <PUBCHEM_CACTVS_COMPLEXITY>
308

> <PUBCHEM_CACTVS_HBOND_ACCEPTOR>
5

> <PUBCHEM_CACTVS_HBOND_DONOR>
1

> <PUBCHEM_CACTVS_ROTATABLE_BOND>
11

> <PUBCHEM_CACTVS_SUBSKEYS>
AAADceB7MAAAAAAAAAAAAAAAAAAAAAAAAAAwAAAAAAAAAAABAAAAHgAQAAAADAzhmAYyzoNABACIAiTSSACCCAAkIgAIiAEPbMgOJjKEtZuDOSDk0BGY6Yfa2TGeCAABAAAAEAAQAAIAAAAgAAAAAAAAAA==

> <PUBCHEM_IUPAC_OPENEYE_NAME>
2-(diethylamino)ethyl 4-amino-3-butoxy-benzoate

> <PUBCHEM_IUPAC_CAS_NAME>
4-amino-3-butoxybenzoic acid 2-(diethylamino)ethyl ester

> <PUBCHEM_IUPAC_NAME>
2-(diethylamino)ethyl 4-amino-3-butoxybenzoate

> <PUBCHEM_IUPAC_SYSTEMATIC_NAME>
2-(diethylamino)ethyl 4-azanyl-3-butoxy-benzoate

> <PUBCHEM_IUPAC_TRADITIONAL_NAME>
4-amino-3-butoxy-benzoic acid 2-(diethylamino)ethyl ester

> <PUBCHEM_IUPAC_INCHI>
InChI=1S/C17H28N2O3/c1-4-7-11-21-16-13-14(8-9-15(16)18)17(20)22-12-10-19(5-2)6-3/h8-9,13H,4-7,10-12,18H2,1-3H3

> <PUBCHEM_IUPAC_INCHIKEY>
CMHHMUWAYWTMGS-UHFFFAOYSA-N

> <PUBCHEM_XLOGP3_AA>
3.1

> <PUBCHEM_EXACT_MASS>
308.209993

> <PUBCHEM_MOLECULAR_FORMULA>
C17H28N2O3

> <PUBCHEM_MOLECULAR_WEIGHT>
308.41582

> <PUBCHEM_OPENEYE_CAN_SMILES>
CCCCOC1=C(C=CC(=C1)C(=O)OCCN(CC)CC)N

> <PUBCHEM_OPENEYE_ISO_SMILES>
CCCCOC1=C(C=CC(=C1)C(=O)OCCN(CC)CC)N

> <PUBCHEM_CACTVS_TPSA>
64.8

> <PUBCHEM_MONOISOTOPIC_WEIGHT>
308.209993

> <PUBCHEM_TOTAL_CHARGE>
0

> <PUBCHEM_HEAVY_ATOM_COUNT>
22

> <PUBCHEM_ATOM_DEF_STEREO_COUNT>
0

> <PUBCHEM_ATOM_UDEF_STEREO_COUNT>
0

> <PUBCHEM_BOND_DEF_STEREO_COUNT>
0

> <PUBCHEM_BOND_UDEF_STEREO_COUNT>
0

> <PUBCHEM_ISOTOPIC_ATOM_COUNT>
0

> <PUBCHEM_COMPONENT_COUNT>
1

> <PUBCHEM_CACTVS_TAUTO_COUNT>
3

> <PUBCHEM_COORDINATE_TYPE>
1
5
255

> <PUBCHEM_BONDANNOTATIONS>
15  18  8
15  19  8
16  18  8
16  21  8
19  22  8
21  22  8

$$$$

