14132
  -OEChem-06241222422D

 31 32  0     0  0  0  0  0  0999 V2000
    3.3795    0.0000    0.0000 Cl  0  5  0  0  0  0  0  0  0  0  0  0
    3.2018    4.1748    0.0000 N   0  3  0  0  0  0  0  0  0  0  0  0
    3.2018    6.1748    0.0000 N   0  0  0  0  0  0  0  0  0  0  0  0
    4.9502    7.2094    0.0000 N   0  0  0  0  0  0  0  0  0  0  0  0
    6.7319    4.1506    0.0000 N   0  0  0  0  0  0  0  0  0  0  0  0
    4.0678    4.6748    0.0000 C   0  0  0  0  0  0  0  0  0  0  0  0
    2.3358    4.6748    0.0000 C   0  0  0  0  0  0  0  0  0  0  0  0
    4.0678    5.6748    0.0000 C   0  0  0  0  0  0  0  0  0  0  0  0
    2.3358    5.6748    0.0000 C   0  0  0  0  0  0  0  0  0  0  0  0
    4.9617    4.1401    0.0000 C   0  0  0  0  0  0  0  0  0  0  0  0
    4.9617    6.2094    0.0000 C   0  0  0  0  0  0  0  0  0  0  0  0
    3.2018    3.1748    0.0000 C   0  0  0  0  0  0  0  0  0  0  0  0
    5.8678    4.6540    0.0000 C   0  0  0  0  0  0  0  0  0  0  0  0
    1.4418    4.1401    0.0000 C   0  0  0  0  0  0  0  0  0  0  0  0
    5.8678    5.6956    0.0000 C   0  0  0  0  0  0  0  0  0  0  0  0
    1.4418    6.2094    0.0000 C   0  0  0  0  0  0  0  0  0  0  0  0
    0.5357    4.6540    0.0000 C   0  0  0  0  0  0  0  0  0  0  0  0
    0.5357    5.6956    0.0000 C   0  0  0  0  0  0  0  0  0  0  0  0
    4.9546    3.5202    0.0000 H   0  0  0  0  0  0  0  0  0  0  0  0
    2.5818    3.1748    0.0000 H   0  0  0  0  0  0  0  0  0  0  0  0
    3.2018    2.5548    0.0000 H   0  0  0  0  0  0  0  0  0  0  0  0
    3.8218    3.1748    0.0000 H   0  0  0  0  0  0  0  0  0  0  0  0
    1.4490    3.5202    0.0000 H   0  0  0  0  0  0  0  0  0  0  0  0
    6.4035    6.0077    0.0000 H   0  0  0  0  0  0  0  0  0  0  0  0
    1.4490    6.8294    0.0000 H   0  0  0  0  0  0  0  0  0  0  0  0
    0.0000    4.3419    0.0000 H   0  0  0  0  0  0  0  0  0  0  0  0
    0.0000    6.0077    0.0000 H   0  0  0  0  0  0  0  0  0  0  0  0
    5.4835    7.5256    0.0000 H   0  0  0  0  0  0  0  0  0  0  0  0
    4.4097    7.5131    0.0000 H   0  0  0  0  0  0  0  0  0  0  0  0
    7.2700    4.4586    0.0000 H   0  0  0  0  0  0  0  0  0  0  0  0
    6.7295    3.5306    0.0000 H   0  0  0  0  0  0  0  0  0  0  0  0
  2  6  2  0  0  0  0
  2  7  1  0  0  0  0
  2 12  1  0  0  0  0
  3  8  2  0  0  0  0
  3  9  1  0  0  0  0
  4 11  1  0  0  0  0
  4 28  1  0  0  0  0
  4 29  1  0  0  0  0
  5 13  1  0  0  0  0
  5 30  1  0  0  0  0
  5 31  1  0  0  0  0
  6  8  1  0  0  0  0
  6 10  1  0  0  0  0
  7  9  1  0  0  0  0
  7 14  2  0  0  0  0
  8 11  1  0  0  0  0
  9 16  2  0  0  0  0
 10 13  2  0  0  0  0
 10 19  1  0  0  0  0
 11 15  2  0  0  0  0
 12 20  1  0  0  0  0
 12 21  1  0  0  0  0
 12 22  1  0  0  0  0
 13 15  1  0  0  0  0
 14 17  1  0  0  0  0
 14 23  1  0  0  0  0
 15 24  1  0  0  0  0
 16 18  1  0  0  0  0
 16 25  1  0  0  0  0
 17 18  2  0  0  0  0
 17 26  1  0  0  0  0
 18 27  1  0  0  0  0
M  CHG  2   1  -1   2   1
M  END
> <PUBCHEM_COMPOUND_CID>
14132

> <PUBCHEM_COMPOUND_CANONICALIZED>
1

> <PUBCHEM_CACTVS_COMPLEXITY>
283

> <PUBCHEM_CACTVS_HBOND_ACCEPTOR>
4

> <PUBCHEM_CACTVS_HBOND_DONOR>
2

> <PUBCHEM_CACTVS_ROTATABLE_BOND>
0

> <PUBCHEM_CACTVS_SUBSKEYS>
AAADccBzgAAEAAAAAAAAAAAAAAAAAAAAAAA8YIAAAAAAAACx/AAAHAAQAAAACAiBFgQywLNMEACgASRiRACCgCQhEiAI2CA4dJgIYOLA0dGUJAhgkADIyAcQAAAAAACAAAQAACAAAQAACAAAQAAAAAAAAA==

> <PUBCHEM_IUPAC_OPENEYE_NAME>
5-methylphenazin-5-ium-1,3-diamine chloride

> <PUBCHEM_IUPAC_CAS_NAME>
5-methylphenazin-5-ium-1,3-diamine chloride

> <PUBCHEM_IUPAC_NAME>
5-methylphenazin-5-ium-1,3-diamine chloride

> <PUBCHEM_IUPAC_SYSTEMATIC_NAME>
5-methylphenazin-5-ium-1,3-diamine chloride

> <PUBCHEM_IUPAC_TRADITIONAL_NAME>
(3-amino-5-methyl-phenazin-5-ium-1-yl)amine chloride

> <PUBCHEM_IUPAC_INCHI>
InChI=1S/C13H12N4.ClH/c1-17-11-5-3-2-4-10(11)16-13-9(15)6-8(14)7-12(13)17;/h2-7H,1H3,(H3,14,15);1H

> <PUBCHEM_IUPAC_INCHIKEY>
ULNMZMBBJRBGLM-UHFFFAOYSA-N

> <PUBCHEM_EXACT_MASS>
260.082874

> <PUBCHEM_MOLECULAR_FORMULA>
C13H13ClN4

> <PUBCHEM_MOLECULAR_WEIGHT>
260.72212

> <PUBCHEM_OPENEYE_CAN_SMILES>
C[N+]1=C2C=C(C=C(C2=NC3=CC=CC=C31)N)N.[Cl-]

> <PUBCHEM_OPENEYE_ISO_SMILES>
C[N+]1=C2C=C(C=C(C2=NC3=CC=CC=C31)N)N.[Cl-]

> <PUBCHEM_CACTVS_TPSA>
68.8

> <PUBCHEM_MONOISOTOPIC_WEIGHT>
260.082874

> <PUBCHEM_TOTAL_CHARGE>
0

> <PUBCHEM_HEAVY_ATOM_COUNT>
18

> <PUBCHEM_ATOM_DEF_STEREO_COUNT>
0

> <PUBCHEM_ATOM_UDEF_STEREO_COUNT>
0

> <PUBCHEM_BOND_DEF_STEREO_COUNT>
0

> <PUBCHEM_BOND_UDEF_STEREO_COUNT>
0

> <PUBCHEM_ISOTOPIC_ATOM_COUNT>
0

> <PUBCHEM_COMPONENT_COUNT>
2

> <PUBCHEM_CACTVS_TAUTO_COUNT>
15

> <PUBCHEM_COORDINATE_TYPE>
1
5
255

> <PUBCHEM_BONDANNOTATIONS>
10  13  8
11  15  8
13  15  8
14  17  8
16  18  8
17  18  8
2  6  8
2  7  8
3  8  8
3  9  8
6  10  8
6  8  8
7  14  8
7  9  8
8  11  8
9  16  8

$$$$

