13277
  -OEChem-06261208242D

 31 33  0     0  0  0  0  0  0999 V2000
    6.0682    0.8221    0.0000 N   0  3  0  0  0  0  0  0  0  0  0  0
    9.5984   -1.2021    0.0000 N   0  0  0  0  0  0  0  0  0  0  0  0
    2.5381   -1.2021    0.0000 N   0  0  0  0  0  0  0  0  0  0  0  0
    6.9343    0.3221    0.0000 C   0  0  0  0  0  0  0  0  0  0  0  0
    5.2022    0.3221    0.0000 C   0  0  0  0  0  0  0  0  0  0  0  0
    6.9343   -0.6779    0.0000 C   0  0  0  0  0  0  0  0  0  0  0  0
    5.2022   -0.6779    0.0000 C   0  0  0  0  0  0  0  0  0  0  0  0
    6.0682   -1.1779    0.0000 C   0  0  0  0  0  0  0  0  0  0  0  0
    7.8282    0.8567    0.0000 C   0  0  0  0  0  0  0  0  0  0  0  0
    4.3083    0.8567    0.0000 C   0  0  0  0  0  0  0  0  0  0  0  0
    7.8282   -1.2126    0.0000 C   0  0  0  0  0  0  0  0  0  0  0  0
    4.3083   -1.2126    0.0000 C   0  0  0  0  0  0  0  0  0  0  0  0
    6.0682    1.8221    0.0000 C   0  0  0  0  0  0  0  0  0  0  0  0
    8.7343   -0.6987    0.0000 C   0  0  0  0  0  0  0  0  0  0  0  0
    3.4022   -0.6987    0.0000 C   0  0  0  0  0  0  0  0  0  0  0  0
    8.7343    0.3429    0.0000 C   0  0  0  0  0  0  0  0  0  0  0  0
    3.4022    0.3429    0.0000 C   0  0  0  0  0  0  0  0  0  0  0  0
    6.0682   -1.7979    0.0000 H   0  0  0  0  0  0  0  0  0  0  0  0
    7.8210    1.4767    0.0000 H   0  0  0  0  0  0  0  0  0  0  0  0
    4.3154    1.4767    0.0000 H   0  0  0  0  0  0  0  0  0  0  0  0
    7.8210   -1.8326    0.0000 H   0  0  0  0  0  0  0  0  0  0  0  0
    4.3154   -1.8326    0.0000 H   0  0  0  0  0  0  0  0  0  0  0  0
    6.6882    1.8221    0.0000 H   0  0  0  0  0  0  0  0  0  0  0  0
    6.0682    2.4421    0.0000 H   0  0  0  0  0  0  0  0  0  0  0  0
    5.4482    1.8221    0.0000 H   0  0  0  0  0  0  0  0  0  0  0  0
    9.2700    0.6550    0.0000 H   0  0  0  0  0  0  0  0  0  0  0  0
    2.8665    0.6550    0.0000 H   0  0  0  0  0  0  0  0  0  0  0  0
   10.1365   -0.8941    0.0000 H   0  0  0  0  0  0  0  0  0  0  0  0
    9.5960   -1.8221    0.0000 H   0  0  0  0  0  0  0  0  0  0  0  0
    2.0000   -0.8941    0.0000 H   0  0  0  0  0  0  0  0  0  0  0  0
    2.5405   -1.8221    0.0000 H   0  0  0  0  0  0  0  0  0  0  0  0
  1  4  2  0  0  0  0
  1  5  1  0  0  0  0
  1 13  1  0  0  0  0
  2 14  1  0  0  0  0
  2 28  1  0  0  0  0
  2 29  1  0  0  0  0
  3 15  1  0  0  0  0
  3 30  1  0  0  0  0
  3 31  1  0  0  0  0
  4  6  1  0  0  0  0
  4  9  1  0  0  0  0
  5  7  2  0  0  0  0
  5 10  1  0  0  0  0
  6  8  2  0  0  0  0
  6 11  1  0  0  0  0
  7  8  1  0  0  0  0
  7 12  1  0  0  0  0
  8 18  1  0  0  0  0
  9 16  2  0  0  0  0
  9 19  1  0  0  0  0
 10 17  2  0  0  0  0
 10 20  1  0  0  0  0
 11 14  2  0  0  0  0
 11 21  1  0  0  0  0
 12 15  2  0  0  0  0
 12 22  1  0  0  0  0
 13 23  1  0  0  0  0
 13 24  1  0  0  0  0
 13 25  1  0  0  0  0
 14 16  1  0  0  0  0
 15 17  1  0  0  0  0
 16 26  1  0  0  0  0
 17 27  1  0  0  0  0
M  CHG  1   1   1
M  END
> <PUBCHEM_COMPOUND_CID>
13277

> <PUBCHEM_COMPOUND_CANONICALIZED>
1

> <PUBCHEM_CACTVS_COMPLEXITY>
255

> <PUBCHEM_CACTVS_HBOND_ACCEPTOR>
2

> <PUBCHEM_CACTVS_HBOND_DONOR>
2

> <PUBCHEM_CACTVS_ROTATABLE_BOND>
0

> <PUBCHEM_CACTVS_SUBSKEYS>
AAADccBzAAAAAAAAAAAAAAAAAAAAAAAAAAA8YIAAAAAAAACx/AAAHAAQAAAADAiBHgQywPNMEACgAyRiRACCgCAhAiAI2CA4ZJgIIOLAkZGEIAhgkADIyAcQgMAOAACAQAACAAAAAQCAAAQAAAAAAAAAAA==

> <PUBCHEM_IUPAC_OPENEYE_NAME>
10-methylacridin-10-ium-2,7-diamine

> <PUBCHEM_IUPAC_CAS_NAME>
10-methylacridin-10-ium-2,7-diamine

> <PUBCHEM_IUPAC_NAME>
10-methylacridin-10-ium-2,7-diamine

> <PUBCHEM_IUPAC_SYSTEMATIC_NAME>
10-methylacridin-10-ium-2,7-diamine

> <PUBCHEM_IUPAC_TRADITIONAL_NAME>
(7-amino-10-methyl-acridin-10-ium-2-yl)amine

> <PUBCHEM_IUPAC_INCHI>
InChI=1S/C14H14N3/c1-17-13-4-2-11(15)7-9(13)6-10-8-12(16)3-5-14(10)17/h2-8H,15-16H2,1H3/q+1

> <PUBCHEM_IUPAC_INCHIKEY>
SCFXGYSVOJJFDZ-UHFFFAOYSA-N

> <PUBCHEM_XLOGP3_AA>
2.3

> <PUBCHEM_EXACT_MASS>
224.118772

> <PUBCHEM_MOLECULAR_FORMULA>
C14H14N3+

> <PUBCHEM_MOLECULAR_WEIGHT>
224.28106

> <PUBCHEM_OPENEYE_CAN_SMILES>
C[N+]1=C2C=CC(=CC2=CC3=C1C=CC(=C3)N)N

> <PUBCHEM_OPENEYE_ISO_SMILES>
C[N+]1=C2C=CC(=CC2=CC3=C1C=CC(=C3)N)N

> <PUBCHEM_CACTVS_TPSA>
55.9

> <PUBCHEM_MONOISOTOPIC_WEIGHT>
224.118772

> <PUBCHEM_TOTAL_CHARGE>
1

> <PUBCHEM_HEAVY_ATOM_COUNT>
17

> <PUBCHEM_ATOM_DEF_STEREO_COUNT>
0

> <PUBCHEM_ATOM_UDEF_STEREO_COUNT>
0

> <PUBCHEM_BOND_DEF_STEREO_COUNT>
0

> <PUBCHEM_BOND_UDEF_STEREO_COUNT>
0

> <PUBCHEM_ISOTOPIC_ATOM_COUNT>
0

> <PUBCHEM_COMPONENT_COUNT>
1

> <PUBCHEM_CACTVS_TAUTO_COUNT>
1

> <PUBCHEM_COORDINATE_TYPE>
1
5
255

> <PUBCHEM_BONDANNOTATIONS>
1  4  8
1  5  8
10  17  8
11  14  8
12  15  8
14  16  8
15  17  8
4  6  8
4  9  8
5  10  8
5  7  8
6  11  8
6  8  8
7  12  8
7  8  8
9  16  8

$$$$

