17395982
  -OEChem-06241222532D

 46 48  0     1  0  0  0  0  0999 V2000
    2.0000   -0.2593    0.0000 O   0  0  0  0  0  0  0  0  0  0  0  0
    5.5202   -0.2593    0.0000 O   0  0  0  0  0  0  0  0  0  0  0  0
    5.4921    3.0194    0.0000 O   0  0  0  0  0  0  0  0  0  0  0  0
    2.3940   -6.0194    0.0000 O   0  5  0  0  0  0  0  0  0  0  0  0
    4.1261   -6.0194    0.0000 O   0  0  0  0  0  0  0  0  0  0  0  0
    3.7601    0.0194    0.0000 N   0  0  0  0  0  0  0  0  0  0  0  0
    4.2601   -1.5194    0.0000 N   0  0  0  0  0  0  0  0  0  0  0  0
    3.2601   -5.5194    0.0000 N   0  3  0  0  0  0  0  0  0  0  0  0
    3.2601   -1.5194    0.0000 C   0  0  3  0  0  0  0  0  0  0  0  0
    2.9511   -0.5684    0.0000 C   0  0  0  0  0  0  0  0  0  0  0  0
    3.2601   -2.5194    0.0000 C   0  0  0  0  0  0  0  0  0  0  0  0
    2.3090   -1.8284    0.0000 C   0  0  0  0  0  0  0  0  0  0  0  0
    3.7601    1.0194    0.0000 C   0  0  0  0  0  0  0  0  0  0  0  0
    4.5691   -0.5684    0.0000 C   0  0  0  0  0  0  0  0  0  0  0  0
    4.6261    1.5194    0.0000 C   0  0  0  0  0  0  0  0  0  0  0  0
    2.3940   -3.0194    0.0000 C   0  0  0  0  0  0  0  0  0  0  0  0
    4.1261   -3.0194    0.0000 C   0  0  0  0  0  0  0  0  0  0  0  0
    4.6261    2.5194    0.0000 C   0  0  0  0  0  0  0  0  0  0  0  0
    2.3940   -4.0194    0.0000 C   0  0  0  0  0  0  0  0  0  0  0  0
    4.1261   -4.0194    0.0000 C   0  0  0  0  0  0  0  0  0  0  0  0
    3.2601   -4.5194    0.0000 C   0  0  0  0  0  0  0  0  0  0  0  0
    5.4921    4.0194    0.0000 C   0  0  0  0  0  0  0  0  0  0  0  0
    6.3582    4.5194    0.0000 C   0  0  0  0  0  0  0  0  0  0  0  0
    4.6261    4.5194    0.0000 C   0  0  0  0  0  0  0  0  0  0  0  0
    6.3582    5.5194    0.0000 C   0  0  0  0  0  0  0  0  0  0  0  0
    4.6261    5.5194    0.0000 C   0  0  0  0  0  0  0  0  0  0  0  0
    5.4921    6.0194    0.0000 C   0  0  0  0  0  0  0  0  0  0  0  0
    4.6245   -2.0210    0.0000 H   0  0  0  0  0  0  0  0  0  0  0  0
    2.1174   -1.2388    0.0000 H   0  0  0  0  0  0  0  0  0  0  0  0
    1.7194   -2.0200    0.0000 H   0  0  0  0  0  0  0  0  0  0  0  0
    2.5006   -2.4181    0.0000 H   0  0  0  0  0  0  0  0  0  0  0  0
    3.5480    1.6020    0.0000 H   0  0  0  0  0  0  0  0  0  0  0  0
    3.1495    0.9118    0.0000 H   0  0  0  0  0  0  0  0  0  0  0  0
    4.8382    0.9368    0.0000 H   0  0  0  0  0  0  0  0  0  0  0  0
    5.2367    1.6271    0.0000 H   0  0  0  0  0  0  0  0  0  0  0  0
    1.8571   -2.7094    0.0000 H   0  0  0  0  0  0  0  0  0  0  0  0
    4.6630   -2.7094    0.0000 H   0  0  0  0  0  0  0  0  0  0  0  0
    4.4140    3.1020    0.0000 H   0  0  0  0  0  0  0  0  0  0  0  0
    4.0155    2.4118    0.0000 H   0  0  0  0  0  0  0  0  0  0  0  0
    1.8571   -4.3294    0.0000 H   0  0  0  0  0  0  0  0  0  0  0  0
    4.6630   -4.3294    0.0000 H   0  0  0  0  0  0  0  0  0  0  0  0
    6.8951    4.2094    0.0000 H   0  0  0  0  0  0  0  0  0  0  0  0
    4.0892    4.2094    0.0000 H   0  0  0  0  0  0  0  0  0  0  0  0
    6.8951    5.8294    0.0000 H   0  0  0  0  0  0  0  0  0  0  0  0
    4.0892    5.8294    0.0000 H   0  0  0  0  0  0  0  0  0  0  0  0
    5.4921    6.6394    0.0000 H   0  0  0  0  0  0  0  0  0  0  0  0
  1 10  2  0  0  0  0
  2 14  2  0  0  0  0
  3 18  1  0  0  0  0
  3 22  1  0  0  0  0
  4  8  1  0  0  0  0
  5  8  2  0  0  0  0
  6 10  1  0  0  0  0
  6 13  1  0  0  0  0
  6 14  1  0  0  0  0
  7  9  1  0  0  0  0
  7 14  1  0  0  0  0
  7 28  1  0  0  0  0
  8 21  1  0  0  0  0
  9 10  1  0  0  0  0
  9 11  1  0  0  0  0
  9 12  1  0  0  0  0
 11 16  2  0  0  0  0
 11 17  1  0  0  0  0
 12 29  1  0  0  0  0
 12 30  1  0  0  0  0
 12 31  1  0  0  0  0
 13 15  1  0  0  0  0
 13 32  1  0  0  0  0
 13 33  1  0  0  0  0
 15 18  1  0  0  0  0
 15 34  1  0  0  0  0
 15 35  1  0  0  0  0
 16 19  1  0  0  0  0
 16 36  1  0  0  0  0
 17 20  2  0  0  0  0
 17 37  1  0  0  0  0
 18 38  1  0  0  0  0
 18 39  1  0  0  0  0
 19 21  2  0  0  0  0
 19 40  1  0  0  0  0
 20 21  1  0  0  0  0
 20 41  1  0  0  0  0
 22 23  2  0  0  0  0
 22 24  1  0  0  0  0
 23 25  1  0  0  0  0
 23 42  1  0  0  0  0
 24 26  2  0  0  0  0
 24 43  1  0  0  0  0
 25 27  2  0  0  0  0
 25 44  1  0  0  0  0
 26 27  1  0  0  0  0
 26 45  1  0  0  0  0
 27 46  1  0  0  0  0
M  CHG  2   4  -1   8   1
M  END
> <PUBCHEM_COMPOUND_CID>
17395982

> <PUBCHEM_COMPOUND_CANONICALIZED>
1

> <PUBCHEM_CACTVS_COMPLEXITY>
564

> <PUBCHEM_CACTVS_HBOND_ACCEPTOR>
5

> <PUBCHEM_CACTVS_HBOND_DONOR>
1

> <PUBCHEM_CACTVS_ROTATABLE_BOND>
6

> <PUBCHEM_CACTVS_SUBSKEYS>
AAADceB7OAAAAAAAAAAAAAAAAAAAAWAAAAAwYAAAAAAAAAABQAAAHgAUAAAADIzhmAYzxoPQRACJAiVSUwCCCAAgIgAoiAGObIqMZjKEtbuWOCju1zOI6AeYyMCOiAAAAAAAAAAQAAAAAAAAAAAAAAAAAA==

> <PUBCHEM_IUPAC_OPENEYE_NAME>
5-methyl-5-(4-nitrophenyl)-3-(3-phenoxypropyl)imidazolidine-2,4-dione

> <PUBCHEM_IUPAC_CAS_NAME>
5-methyl-5-(4-nitrophenyl)-3-(3-phenoxypropyl)imidazolidine-2,4-dione

> <PUBCHEM_IUPAC_NAME>
5-methyl-5-(4-nitrophenyl)-3-(3-phenoxypropyl)imidazolidine-2,4-dione

> <PUBCHEM_IUPAC_SYSTEMATIC_NAME>
5-methyl-5-(4-nitrophenyl)-3-(3-phenoxypropyl)imidazolidine-2,4-dione

> <PUBCHEM_IUPAC_TRADITIONAL_NAME>
5-methyl-5-(4-nitrophenyl)-3-(3-phenoxypropyl)hydantoin

> <PUBCHEM_IUPAC_INCHI>
InChI=1S/C19H19N3O5/c1-19(14-8-10-15(11-9-14)22(25)26)17(23)21(18(24)20-19)12-5-13-27-16-6-3-2-4-7-16/h2-4,6-11H,5,12-13H2,1H3,(H,20,24)

> <PUBCHEM_IUPAC_INCHIKEY>
FHVCZDLPEOBECZ-UHFFFAOYSA-N

> <PUBCHEM_XLOGP3_AA>
2.9

> <PUBCHEM_EXACT_MASS>
369.132471

> <PUBCHEM_MOLECULAR_FORMULA>
C19H19N3O5

> <PUBCHEM_MOLECULAR_WEIGHT>
369.37126

> <PUBCHEM_OPENEYE_CAN_SMILES>
CC1(C(=O)N(C(=O)N1)CCCOC2=CC=CC=C2)C3=CC=C(C=C3)[N+](=O)[O-]

> <PUBCHEM_OPENEYE_ISO_SMILES>
CC1(C(=O)N(C(=O)N1)CCCOC2=CC=CC=C2)C3=CC=C(C=C3)[N+](=O)[O-]

> <PUBCHEM_CACTVS_TPSA>
105

> <PUBCHEM_MONOISOTOPIC_WEIGHT>
369.132471

> <PUBCHEM_TOTAL_CHARGE>
0

> <PUBCHEM_HEAVY_ATOM_COUNT>
27

> <PUBCHEM_ATOM_DEF_STEREO_COUNT>
0

> <PUBCHEM_ATOM_UDEF_STEREO_COUNT>
1

> <PUBCHEM_BOND_DEF_STEREO_COUNT>
0

> <PUBCHEM_BOND_UDEF_STEREO_COUNT>
0

> <PUBCHEM_ISOTOPIC_ATOM_COUNT>
0

> <PUBCHEM_COMPONENT_COUNT>
1

> <PUBCHEM_CACTVS_TAUTO_COUNT>
2

> <PUBCHEM_COORDINATE_TYPE>
1
5
255

> <PUBCHEM_BONDANNOTATIONS>
11  16  8
11  17  8
16  19  8
17  20  8
19  21  8
20  21  8
22  23  8
22  24  8
23  25  8
24  26  8
25  27  8
26  27  8
9  12  3

$$$$

