8775
  -OEChem-06261203052D

 30 31  0     0  0  0  0  0  0999 V2000
    6.0010    0.5000    0.0000 As  0  0  0  0  0  0  0  0  0  0  0  0
    6.0010   -0.5000    0.0000 As  0  0  0  0  0  0  0  0  0  0  0  0
    2.5369    2.5000    0.0000 O   0  0  0  0  0  0  0  0  0  0  0  0
    9.4651   -2.5000    0.0000 O   0  0  0  0  0  0  0  0  0  0  0  0
    4.2690    3.5000    0.0000 N   0  0  0  0  0  0  0  0  0  0  0  0
    7.7331   -3.5000    0.0000 N   0  0  0  0  0  0  0  0  0  0  0  0
    5.1350    1.0000    0.0000 C   0  0  0  0  0  0  0  0  0  0  0  0
    6.8671   -1.0000    0.0000 C   0  0  0  0  0  0  0  0  0  0  0  0
    4.2690    2.5000    0.0000 C   0  0  0  0  0  0  0  0  0  0  0  0
    7.7331   -2.5000    0.0000 C   0  0  0  0  0  0  0  0  0  0  0  0
    6.8671   -2.0000    0.0000 C   0  0  0  0  0  0  0  0  0  0  0  0
    5.1350    2.0000    0.0000 C   0  0  0  0  0  0  0  0  0  0  0  0
    3.4030    2.0000    0.0000 C   0  0  0  0  0  0  0  0  0  0  0  0
    8.5991   -2.0000    0.0000 C   0  0  0  0  0  0  0  0  0  0  0  0
    7.7331   -0.5000    0.0000 C   0  0  0  0  0  0  0  0  0  0  0  0
    4.2690    0.5000    0.0000 C   0  0  0  0  0  0  0  0  0  0  0  0
    3.4030    1.0000    0.0000 C   0  0  0  0  0  0  0  0  0  0  0  0
    8.5991   -1.0000    0.0000 C   0  0  0  0  0  0  0  0  0  0  0  0
    5.6720    2.3100    0.0000 H   0  0  0  0  0  0  0  0  0  0  0  0
    6.3301   -2.3100    0.0000 H   0  0  0  0  0  0  0  0  0  0  0  0
    4.2690   -0.1200    0.0000 H   0  0  0  0  0  0  0  0  0  0  0  0
    7.7331    0.1200    0.0000 H   0  0  0  0  0  0  0  0  0  0  0  0
    2.8660    0.6900    0.0000 H   0  0  0  0  0  0  0  0  0  0  0  0
    9.1360   -0.6900    0.0000 H   0  0  0  0  0  0  0  0  0  0  0  0
    4.8059    3.8100    0.0000 H   0  0  0  0  0  0  0  0  0  0  0  0
    3.7320    3.8100    0.0000 H   0  0  0  0  0  0  0  0  0  0  0  0
    7.1962   -3.8100    0.0000 H   0  0  0  0  0  0  0  0  0  0  0  0
    8.2700   -3.8100    0.0000 H   0  0  0  0  0  0  0  0  0  0  0  0
   10.0021   -2.1900    0.0000 H   0  0  0  0  0  0  0  0  0  0  0  0
    2.0000    2.1900    0.0000 H   0  0  0  0  0  0  0  0  0  0  0  0
  1  2  2  0  0  0  0
  1  7  1  0  0  0  0
  2  8  1  0  0  0  0
  3 13  1  0  0  0  0
  3 30  1  0  0  0  0
  4 14  1  0  0  0  0
  4 29  1  0  0  0  0
  5  9  1  0  0  0  0
  5 25  1  0  0  0  0
  5 26  1  0  0  0  0
  6 10  1  0  0  0  0
  6 27  1  0  0  0  0
  6 28  1  0  0  0  0
  7 12  2  0  0  0  0
  7 16  1  0  0  0  0
  8 11  2  0  0  0  0
  8 15  1  0  0  0  0
  9 12  1  0  0  0  0
  9 13  2  0  0  0  0
 10 11  1  0  0  0  0
 10 14  2  0  0  0  0
 11 20  1  0  0  0  0
 12 19  1  0  0  0  0
 13 17  1  0  0  0  0
 14 18  1  0  0  0  0
 15 18  2  0  0  0  0
 15 22  1  0  0  0  0
 16 17  2  0  0  0  0
 16 21  1  0  0  0  0
 17 23  1  0  0  0  0
 18 24  1  0  0  0  0
M  END
> <PUBCHEM_COMPOUND_CID>
8775

> <PUBCHEM_COMPOUND_CANONICALIZED>
1

> <PUBCHEM_CACTVS_COMPLEXITY>
276

> <PUBCHEM_CACTVS_HBOND_ACCEPTOR>
4

> <PUBCHEM_CACTVS_HBOND_DONOR>
4

> <PUBCHEM_CACTVS_ROTATABLE_BOND>
2

> <PUBCHEM_CACTVS_SUBSKEYS>
AAADccBzMAAAAAAAQAAAAAAAAAAAAAAAAAAwYAAAAAAAAAABQAAAHgEQCAACCAyBkAAwxoBAAgCAACRCQACCAAAgIgAIjAAHbIgKJiKSkZOAcABk0BEI2AeQQAAAAAAAAAAAEAAAAAAAAAAgAAAAAAAAAA==

> <PUBCHEM_IUPAC_OPENEYE_NAME>
2-amino-4-(3-amino-4-hydroxy-phenyl)arsanylidenearsanyl-phenol

> <PUBCHEM_IUPAC_CAS_NAME>
2-amino-4-(3-amino-4-hydroxyphenyl)arsinylidenearsinylphenol

> <PUBCHEM_IUPAC_NAME>
2-amino-4-(3-amino-4-hydroxyphenyl)arsanylidenearsanylphenol

> <PUBCHEM_IUPAC_SYSTEMATIC_NAME>
2-azanyl-4-(3-azanyl-4-oxidanyl-phenyl)arsanylidenearsanyl-phenol

> <PUBCHEM_IUPAC_TRADITIONAL_NAME>
2-amino-4-(3-amino-4-hydroxy-phenyl)arsinylidenearsinyl-phenol

> <PUBCHEM_IUPAC_INCHI>
InChI=1S/C12H12As2N2O2/c15-9-5-7(1-3-11(9)17)13-14-8-2-4-12(18)10(16)6-8/h1-6,17-18H,15-16H2

> <PUBCHEM_IUPAC_INCHIKEY>
ZCZNGRXPMRPERV-UHFFFAOYSA-N

> <PUBCHEM_EXACT_MASS>
365.933071

> <PUBCHEM_MOLECULAR_FORMULA>
C12H12As2N2O2

> <PUBCHEM_MOLECULAR_WEIGHT>
366.07908

> <PUBCHEM_OPENEYE_CAN_SMILES>
C1=CC(=C(C=C1[As]=[As]C2=CC(=C(C=C2)O)N)N)O

> <PUBCHEM_OPENEYE_ISO_SMILES>
C1=CC(=C(C=C1[As]=[As]C2=CC(=C(C=C2)O)N)N)O

> <PUBCHEM_CACTVS_TPSA>
92.5

> <PUBCHEM_MONOISOTOPIC_WEIGHT>
365.933071

> <PUBCHEM_TOTAL_CHARGE>
0

> <PUBCHEM_HEAVY_ATOM_COUNT>
18

> <PUBCHEM_ATOM_DEF_STEREO_COUNT>
0

> <PUBCHEM_ATOM_UDEF_STEREO_COUNT>
0

> <PUBCHEM_BOND_DEF_STEREO_COUNT>
0

> <PUBCHEM_BOND_UDEF_STEREO_COUNT>
0

> <PUBCHEM_ISOTOPIC_ATOM_COUNT>
0

> <PUBCHEM_COMPONENT_COUNT>
1

> <PUBCHEM_CACTVS_TAUTO_COUNT>
9

> <PUBCHEM_COORDINATE_TYPE>
1
5
255

> <PUBCHEM_BONDANNOTATIONS>
10  11  8
10  14  8
13  17  8
14  18  8
15  18  8
16  17  8
7  12  8
7  16  8
8  11  8
8  15  8
9  12  8
9  13  8

$$$$

