10214
  -OEChem-06261204222D

 46 48  0     1  0  0  0  0  0999 V2000
    3.1684    3.9897    0.0000 S   0  0  0  0  0  0  0  0  0  0  0  0
    7.7038    1.9862    0.0000 P   0  0  0  0  0  0  0  0  0  0  0  0
    4.4535    2.8285    0.0000 P   0  0  3  0  0  0  0  0  0  0  0  0
    5.4569   -0.0922    0.0000 O   0  0  0  0  0  0  0  0  0  0  0  0
    7.8066    0.9915    0.0000 O   0  0  0  0  0  0  0  0  0  0  0  0
    7.8028   -1.1841    0.0000 O   0  0  0  0  0  0  0  0  0  0  0  0
    4.7609    1.8770    0.0000 O   0  0  0  0  0  0  0  0  0  0  0  0
    7.6010    2.9809    0.0000 O   0  0  0  0  0  0  0  0  0  0  0  0
    8.6985    2.0890    0.0000 O   0  0  0  0  0  0  0  0  0  0  0  0
    6.7091    1.8834    0.0000 O   0  0  0  0  0  0  0  0  0  0  0  0
    4.1461    3.7801    0.0000 O   0  0  0  0  0  0  0  0  0  0  0  0
    3.5019    2.5212    0.0000 O   0  0  0  0  0  0  0  0  0  0  0  0
    5.4051    3.1359    0.0000 O   0  0  0  0  0  0  0  0  0  0  0  0
    2.1906    4.1993    0.0000 O   0  0  0  0  0  0  0  0  0  0  0  0
    3.3780    4.9675    0.0000 O   0  0  0  0  0  0  0  0  0  0  0  0
    2.9588    3.0120    0.0000 O   0  0  0  0  0  0  0  0  0  0  0  0
    5.7326   -1.8528    0.0000 N   0  0  0  0  0  0  0  0  0  0  0  0
    5.7326   -3.4623    0.0000 N   0  0  0  0  0  0  0  0  0  0  0  0
    3.9203   -1.6575    0.0000 N   0  0  0  0  0  0  0  0  0  0  0  0
    3.0543   -3.1575    0.0000 N   0  0  0  0  0  0  0  0  0  0  0  0
    3.9203   -4.6575    0.0000 N   0  0  0  0  0  0  0  0  0  0  0  0
    6.9966    0.4051    0.0000 C   0  0  1  0  0  0  0  0  0  0  0  0
    6.9948   -0.5949    0.0000 C   0  0  2  0  0  0  0  0  0  0  0  0
    6.0460    0.7158    0.0000 C   0  0  1  0  0  0  0  0  0  0  0  0
    6.0432   -0.9023    0.0000 C   0  0  1  0  0  0  0  0  0  0  0  0
    5.7387    1.6674    0.0000 C   0  0  0  0  0  0  0  0  0  0  0  0
    4.7864   -2.1575    0.0000 C   0  0  0  0  0  0  0  0  0  0  0  0
    6.3162   -2.6575    0.0000 C   0  0  0  0  0  0  0  0  0  0  0  0
    4.7864   -3.1575    0.0000 C   0  0  0  0  0  0  0  0  0  0  0  0
    3.9203   -3.6575    0.0000 C   0  0  0  0  0  0  0  0  0  0  0  0
    3.0543   -2.1575    0.0000 C   0  0  0  0  0  0  0  0  0  0  0  0
    7.5485    0.1227    0.0000 H   0  0  0  0  0  0  0  0  0  0  0  0
    6.8968   -1.2071    0.0000 H   0  0  0  0  0  0  0  0  0  0  0  0
    5.4338    0.8138    0.0000 H   0  0  0  0  0  0  0  0  0  0  0  0
    5.4307   -0.9982    0.0000 H   0  0  0  0  0  0  0  0  0  0  0  0
    6.3528    1.7526    0.0000 H   0  0  0  0  0  0  0  0  0  0  0  0
    5.7614    2.2869    0.0000 H   0  0  0  0  0  0  0  0  0  0  0  0
    8.3697   -0.9329    0.0000 H   0  0  0  0  0  0  0  0  0  0  0  0
    6.9362   -2.6575    0.0000 H   0  0  0  0  0  0  0  0  0  0  0  0
    9.0620    1.5868    0.0000 H   0  0  0  0  0  0  0  0  0  0  0  0
    8.1032    3.3444    0.0000 H   0  0  0  0  0  0  0  0  0  0  0  0
    2.5174   -1.8475    0.0000 H   0  0  0  0  0  0  0  0  0  0  0  0
    3.3834   -4.9675    0.0000 H   0  0  0  0  0  0  0  0  0  0  0  0
    4.4573   -4.9675    0.0000 H   0  0  0  0  0  0  0  0  0  0  0  0
    3.3720    1.9150    0.0000 H   0  0  0  0  0  0  0  0  0  0  0  0
    2.0000    4.7893    0.0000 H   0  0  0  0  0  0  0  0  0  0  0  0
  1 11  1  0  0  0  0
  1 14  1  0  0  0  0
  1 15  2  0  0  0  0
  1 16  2  0  0  0  0
  2  5  1  0  0  0  0
  2  8  1  0  0  0  0
  2  9  1  0  0  0  0
  2 10  2  0  0  0  0
  3  7  1  0  0  0  0
  3 11  1  0  0  0  0
  3 12  1  0  0  0  0
  3 13  2  0  0  0  0
  4 24  1  0  0  0  0
  4 25  1  0  0  0  0
 22  5  1  1  0  0  0
 23  6  1  1  0  0  0
  6 38  1  0  0  0  0
  7 26  1  0  0  0  0
  8 41  1  0  0  0  0
  9 40  1  0  0  0  0
 12 45  1  0  0  0  0
 14 46  1  0  0  0  0
 25 17  1  6  0  0  0
 17 27  1  0  0  0  0
 17 28  1  0  0  0  0
 18 28  2  0  0  0  0
 18 29  1  0  0  0  0
 19 27  1  0  0  0  0
 19 31  2  0  0  0  0
 20 30  2  0  0  0  0
 20 31  1  0  0  0  0
 21 30  1  0  0  0  0
 21 43  1  0  0  0  0
 21 44  1  0  0  0  0
 22 23  1  0  0  0  0
 22 24  1  0  0  0  0
 22 32  1  0  0  0  0
 23 25  1  0  0  0  0
 23 33  1  0  0  0  0
 24 26  1  6  0  0  0
 24 34  1  0  0  0  0
 25 35  1  0  0  0  0
 26 36  1  0  0  0  0
 26 37  1  0  0  0  0
 27 29  2  0  0  0  0
 28 39  1  0  0  0  0
 29 30  1  0  0  0  0
 31 42  1  0  0  0  0
M  END
> <PUBCHEM_COMPOUND_CID>
10214

> <PUBCHEM_COMPOUND_CANONICALIZED>
1

> <PUBCHEM_CACTVS_COMPLEXITY>
852

> <PUBCHEM_CACTVS_HBOND_ACCEPTOR>
17

> <PUBCHEM_CACTVS_HBOND_DONOR>
6

> <PUBCHEM_CACTVS_ROTATABLE_BOND>
8

> <PUBCHEM_CACTVS_SUBSKEYS>
AAADccBzvANAAAAAAAAAAAAAAAAAAWJAAAAsAAAAAAAAAFgB+AAAHgAQCCAACBzhlwYF8L9MF5CgQQZhZLCAgC0REKABUCAoVBCDWAJAyEAeRAgPAALTACDwMAIAAAAAAAAAAAAAAAAAAAAAAAAAAAAAAA==

> <PUBCHEM_IUPAC_OPENEYE_NAME>
[(2R,3S,4R,5R)-5-(6-aminopurin-9-yl)-4-hydroxy-3-phosphonooxy-tetrahydrofuran-2-yl]methyl sulfo hydrogen phosphate

> <PUBCHEM_IUPAC_CAS_NAME>
[(2R,3S,4R,5R)-5-(6-aminopurin-9-yl)-4-hydroxy-3-phosphonooxy-2-oxolanyl]methyl sulfo hydrogen phosphate

> <PUBCHEM_IUPAC_NAME>
[(2R,3S,4R,5R)-5-(6-aminopurin-9-yl)-4-hydroxy-3-phosphonooxyoxolan-2-yl]methyl sulfo hydrogen phosphate

> <PUBCHEM_IUPAC_SYSTEMATIC_NAME>
[(2R,3S,4R,5R)-5-(6-aminopurin-9-yl)-4-oxidanyl-3-phosphonooxy-oxolan-2-yl]methyl sulfo hydrogen phosphate

> <PUBCHEM_IUPAC_TRADITIONAL_NAME>
[(2R,3S,4R,5R)-5-adenin-9-yl-4-hydroxy-3-phosphonooxy-tetrahydrofuran-2-yl]methyl sulfo hydrogen phosphate

> <PUBCHEM_IUPAC_INCHI>
InChI=1S/C10H15N5O13P2S/c11-8-5-9(13-2-12-8)15(3-14-5)10-6(16)7(27-29(17,18)19)4(26-10)1-25-30(20,21)28-31(22,23)24/h2-4,6-7,10,16H,1H2,(H,20,21)(H2,11,12,13)(H2,17,18,19)(H,22,23,24)/t4-,6-,7-,10-/m1/s1

> <PUBCHEM_IUPAC_INCHIKEY>
GACDQMDRPRGCTN-KQYNXXCUSA-N

> <PUBCHEM_XLOGP3>
-5

> <PUBCHEM_EXACT_MASS>
506.98623

> <PUBCHEM_MOLECULAR_FORMULA>
C10H15N5O13P2S

> <PUBCHEM_MOLECULAR_WEIGHT>
507.264324

> <PUBCHEM_OPENEYE_CAN_SMILES>
C1=NC2=C(C(=N1)N)N=CN2C3C(C(C(O3)COP(=O)(O)OS(=O)(=O)O)OP(=O)(O)O)O

> <PUBCHEM_OPENEYE_ISO_SMILES>
C1=NC2=C(C(=N1)N)N=CN2[C@H]3[C@@H]([C@@H]([C@H](O3)COP(=O)(O)OS(=O)(=O)O)OP(=O)(O)O)O

> <PUBCHEM_CACTVS_TPSA>
284

> <PUBCHEM_MONOISOTOPIC_WEIGHT>
506.98623

> <PUBCHEM_TOTAL_CHARGE>
0

> <PUBCHEM_HEAVY_ATOM_COUNT>
31

> <PUBCHEM_ATOM_DEF_STEREO_COUNT>
4

> <PUBCHEM_ATOM_UDEF_STEREO_COUNT>
0

> <PUBCHEM_BOND_DEF_STEREO_COUNT>
0

> <PUBCHEM_BOND_UDEF_STEREO_COUNT>
0

> <PUBCHEM_ISOTOPIC_ATOM_COUNT>
0

> <PUBCHEM_COMPONENT_COUNT>
1

> <PUBCHEM_CACTVS_TAUTO_COUNT>
3

> <PUBCHEM_COORDINATE_TYPE>
1
5
255

> <PUBCHEM_BONDANNOTATIONS>
25  17  6
17  27  8
17  28  8
18  28  8
18  29  8
19  27  8
19  31  8
20  30  8
20  31  8
24  26  6
27  29  8
29  30  8
22  5  5
23  6  5

$$$$

