17395757
  -OEChem-06241222522D

 45 48  0     1  0  0  0  0  0999 V2000
    7.1962    2.1356    0.0000 O   0  0  0  0  0  0  0  0  0  0  0  0
    6.2731    2.7234    0.0000 O   0  0  0  0  0  0  0  0  0  0  0  0
    2.8660   -0.3644    0.0000 O   0  0  0  0  0  0  0  0  0  0  0  0
    4.5981   -3.3644    0.0000 O   0  0  0  0  0  0  0  0  0  0  0  0
    2.8660   -2.3644    0.0000 O   0  0  0  0  0  0  0  0  0  0  0  0
    6.3301    0.6356    0.0000 N   0  0  0  0  0  0  0  0  0  0  0  0
    7.1962   -0.8644    0.0000 N   0  0  0  0  0  0  0  0  0  0  0  0
    6.3301   -0.3644    0.0000 C   0  0  3  0  0  0  0  0  0  0  0  0
    5.4641   -0.8644    0.0000 C   0  0  0  0  0  0  0  0  0  0  0  0
    5.4641    1.1356    0.0000 C   0  0  0  0  0  0  0  0  0  0  0  0
    8.0622   -0.3644    0.0000 C   0  0  0  0  0  0  0  0  0  0  0  0
    7.1962    1.1356    0.0000 C   0  0  0  0  0  0  0  0  0  0  0  0
    8.0622    0.6356    0.0000 C   0  0  0  0  0  0  0  0  0  0  0  0
    4.5981   -0.3644    0.0000 C   0  0  0  0  0  0  0  0  0  0  0  0
    5.4641   -1.8644    0.0000 C   0  0  0  0  0  0  0  0  0  0  0  0
    5.4641    2.1356    0.0000 C   0  0  0  0  0  0  0  0  0  0  0  0
    8.9561   -0.8991    0.0000 C   0  0  0  0  0  0  0  0  0  0  0  0
    8.9561    1.1702    0.0000 C   0  0  0  0  0  0  0  0  0  0  0  0
    3.7320   -0.8644    0.0000 C   0  0  0  0  0  0  0  0  0  0  0  0
    4.5981   -2.3644    0.0000 C   0  0  0  0  0  0  0  0  0  0  0  0
    9.8622   -0.3852    0.0000 C   0  0  0  0  0  0  0  0  0  0  0  0
    9.8622    0.6564    0.0000 C   0  0  0  0  0  0  0  0  0  0  0  0
    3.7320   -1.8644    0.0000 C   0  0  0  0  0  0  0  0  0  0  0  0
    4.6551    2.7234    0.0000 C   0  0  0  0  0  0  0  0  0  0  0  0
    4.9641    3.6744    0.0000 C   0  0  0  0  0  0  0  0  0  0  0  0
    5.9641    3.6744    0.0000 C   0  0  0  0  0  0  0  0  0  0  0  0
    2.0000   -0.8644    0.0000 C   0  0  0  0  0  0  0  0  0  0  0  0
    5.7932   -0.0544    0.0000 H   0  0  0  0  0  0  0  0  0  0  0  0
    7.1962   -1.4844    0.0000 H   0  0  0  0  0  0  0  0  0  0  0  0
    4.8535    1.2432    0.0000 H   0  0  0  0  0  0  0  0  0  0  0  0
    5.2520    0.5530    0.0000 H   0  0  0  0  0  0  0  0  0  0  0  0
    4.5981    0.2556    0.0000 H   0  0  0  0  0  0  0  0  0  0  0  0
    6.0010   -2.1744    0.0000 H   0  0  0  0  0  0  0  0  0  0  0  0
    8.9490   -1.5190    0.0000 H   0  0  0  0  0  0  0  0  0  0  0  0
    8.9490    1.7902    0.0000 H   0  0  0  0  0  0  0  0  0  0  0  0
   10.3979   -0.6973    0.0000 H   0  0  0  0  0  0  0  0  0  0  0  0
   10.3979    0.9685    0.0000 H   0  0  0  0  0  0  0  0  0  0  0  0
    4.0654    2.5318    0.0000 H   0  0  0  0  0  0  0  0  0  0  0  0
    4.5997    4.1760    0.0000 H   0  0  0  0  0  0  0  0  0  0  0  0
    6.3285    4.1760    0.0000 H   0  0  0  0  0  0  0  0  0  0  0  0
    5.1350   -3.6744    0.0000 H   0  0  0  0  0  0  0  0  0  0  0  0
    2.8660   -2.9844    0.0000 H   0  0  0  0  0  0  0  0  0  0  0  0
    1.6900   -0.3275    0.0000 H   0  0  0  0  0  0  0  0  0  0  0  0
    1.4631   -1.1744    0.0000 H   0  0  0  0  0  0  0  0  0  0  0  0
    2.3100   -1.4014    0.0000 H   0  0  0  0  0  0  0  0  0  0  0  0
  1 12  2  0  0  0  0
  2 16  1  0  0  0  0
  2 26  1  0  0  0  0
  3 19  1  0  0  0  0
  3 27  1  0  0  0  0
  4 20  1  0  0  0  0
  4 41  1  0  0  0  0
  5 23  1  0  0  0  0
  5 42  1  0  0  0  0
  6  8  1  0  0  0  0
  6 10  1  0  0  0  0
  6 12  1  0  0  0  0
  7  8  1  0  0  0  0
  7 11  1  0  0  0  0
  7 29  1  0  0  0  0
  8  9  1  0  0  0  0
  8 28  1  0  0  0  0
  9 14  1  0  0  0  0
  9 15  2  0  0  0  0
 10 16  1  0  0  0  0
 10 30  1  0  0  0  0
 10 31  1  0  0  0  0
 11 13  1  0  0  0  0
 11 17  2  0  0  0  0
 12 13  1  0  0  0  0
 13 18  2  0  0  0  0
 14 19  2  0  0  0  0
 14 32  1  0  0  0  0
 15 20  1  0  0  0  0
 15 33  1  0  0  0  0
 16 24  2  0  0  0  0
 17 21  1  0  0  0  0
 17 34  1  0  0  0  0
 18 22  1  0  0  0  0
 18 35  1  0  0  0  0
 19 23  1  0  0  0  0
 20 23  2  0  0  0  0
 21 22  2  0  0  0  0
 21 36  1  0  0  0  0
 22 37  1  0  0  0  0
 24 25  1  0  0  0  0
 24 38  1  0  0  0  0
 25 26  2  0  0  0  0
 25 39  1  0  0  0  0
 26 40  1  0  0  0  0
 27 43  1  0  0  0  0
 27 44  1  0  0  0  0
 27 45  1  0  0  0  0
M  END
> <PUBCHEM_COMPOUND_CID>
17395757

> <PUBCHEM_COMPOUND_CANONICALIZED>
1

> <PUBCHEM_CACTVS_COMPLEXITY>
533

> <PUBCHEM_CACTVS_HBOND_ACCEPTOR>
6

> <PUBCHEM_CACTVS_HBOND_DONOR>
3

> <PUBCHEM_CACTVS_ROTATABLE_BOND>
4

> <PUBCHEM_CACTVS_SUBSKEYS>
AAADceB7OAAAAAAAAAAAAAAAAAAAASAAAAA8YIAAAAAAAACx0AAAHgAQCAAADAzhmAYzxoPABkCIAq1S0ACCCAAlIgAIiIGO7MiPJzrG9buHeavt1xfb+ee4+R6OIAABCAACQABAAAIQAASAAAAAAAAAAA==

> <PUBCHEM_IUPAC_OPENEYE_NAME>
2-(3,4-dihydroxy-5-methoxy-phenyl)-3-(2-furylmethyl)-1,2-dihydroquinazolin-4-one

> <PUBCHEM_IUPAC_CAS_NAME>
2-(3,4-dihydroxy-5-methoxyphenyl)-3-(2-furanylmethyl)-1,2-dihydroquinazolin-4-one

> <PUBCHEM_IUPAC_NAME>
2-(3,4-dihydroxy-5-methoxyphenyl)-3-(furan-2-ylmethyl)-1,2-dihydroquinazolin-4-one

> <PUBCHEM_IUPAC_SYSTEMATIC_NAME>
3-(furan-2-ylmethyl)-2-[3-methoxy-4,5-bis(oxidanyl)phenyl]-1,2-dihydroquinazolin-4-one

> <PUBCHEM_IUPAC_TRADITIONAL_NAME>
2-(3,4-dihydroxy-5-methoxy-phenyl)-3-(2-furfuryl)-1,2-dihydroquinazolin-4-one

> <PUBCHEM_IUPAC_INCHI>
InChI=1S/C20H18N2O5/c1-26-17-10-12(9-16(23)18(17)24)19-21-15-7-3-2-6-14(15)20(25)22(19)11-13-5-4-8-27-13/h2-10,19,21,23-24H,11H2,1H3

> <PUBCHEM_IUPAC_INCHIKEY>
WNXDATNDVBXMKN-UHFFFAOYSA-N

> <PUBCHEM_XLOGP3_AA>
2.6

> <PUBCHEM_EXACT_MASS>
366.121572

> <PUBCHEM_MOLECULAR_FORMULA>
C20H18N2O5

> <PUBCHEM_MOLECULAR_WEIGHT>
366.36732

> <PUBCHEM_OPENEYE_CAN_SMILES>
COC1=CC(=CC(=C1O)O)C2NC3=CC=CC=C3C(=O)N2CC4=CC=CO4

> <PUBCHEM_OPENEYE_ISO_SMILES>
COC1=CC(=CC(=C1O)O)C2NC3=CC=CC=C3C(=O)N2CC4=CC=CO4

> <PUBCHEM_CACTVS_TPSA>
95.2

> <PUBCHEM_MONOISOTOPIC_WEIGHT>
366.121572

> <PUBCHEM_TOTAL_CHARGE>
0

> <PUBCHEM_HEAVY_ATOM_COUNT>
27

> <PUBCHEM_ATOM_DEF_STEREO_COUNT>
0

> <PUBCHEM_ATOM_UDEF_STEREO_COUNT>
1

> <PUBCHEM_BOND_DEF_STEREO_COUNT>
0

> <PUBCHEM_BOND_UDEF_STEREO_COUNT>
0

> <PUBCHEM_ISOTOPIC_ATOM_COUNT>
0

> <PUBCHEM_COMPONENT_COUNT>
1

> <PUBCHEM_CACTVS_TAUTO_COUNT>
40

> <PUBCHEM_COORDINATE_TYPE>
1
5
255

> <PUBCHEM_BONDANNOTATIONS>
11  13  8
11  17  8
13  18  8
14  19  8
15  20  8
16  24  8
17  21  8
18  22  8
19  23  8
2  16  8
2  26  8
20  23  8
21  22  8
24  25  8
25  26  8
8  9  3
9  14  8
9  15  8

$$$$

