13126
  -OEChem-06261207472D

 68 71  0     1  0  0  0  0  0999 V2000
    7.9821    1.2890    0.0000 O   0  0  0  0  0  0  0  0  0  0  0  0
    9.9391    1.7014    0.0000 O   0  0  0  0  0  0  0  0  0  0  0  0
    2.0000   -3.7629    0.0000 O   0  0  0  0  0  0  0  0  0  0  0  0
   11.5855    1.1634    0.0000 O   0  0  0  0  0  0  0  0  0  0  0  0
    7.3931   -1.7105    0.0000 C   0  0  3  0  0  0  0  0  0  0  0  0
    7.3931   -0.7105    0.0000 C   0  0  3  0  0  0  0  0  0  0  0  0
    6.5271   -2.2105    0.0000 C   0  0  3  0  0  0  0  0  0  0  0  0
    5.6610   -1.7105    0.0000 C   0  0  3  0  0  0  0  0  0  0  0  0
    4.7510   -2.2174    0.0000 C   0  0  3  0  0  0  0  0  0  0  0  0
    8.3393   -0.4058    0.0000 C   0  0  3  0  0  0  0  0  0  0  0  0
    6.5271   -0.2105    0.0000 C   0  0  0  0  0  0  0  0  0  0  0  0
    5.6610   -0.7105    0.0000 C   0  0  0  0  0  0  0  0  0  0  0  0
    8.3393   -2.0153    0.0000 C   0  0  0  0  0  0  0  0  0  0  0  0
    8.9229   -1.2105    0.0000 C   0  0  0  0  0  0  0  0  0  0  0  0
    6.5431   -3.2520    0.0000 C   0  0  0  0  0  0  0  0  0  0  0  0
    7.3931    0.2895    0.0000 C   0  0  0  0  0  0  0  0  0  0  0  0
    4.7430   -3.2590    0.0000 C   0  0  0  0  0  0  0  0  0  0  0  0
    5.6451   -3.7798    0.0000 C   0  0  0  0  0  0  0  0  0  0  0  0
    3.8242   -1.6533    0.0000 C   0  0  0  0  0  0  0  0  0  0  0  0
    4.7587   -1.2174    0.0000 C   0  0  0  0  0  0  0  0  0  0  0  0
    8.6500    0.5447    0.0000 C   0  0  0  0  0  0  0  0  0  0  0  0
    2.8763   -2.1812    0.0000 C   0  0  0  0  0  0  0  0  0  0  0  0
    3.8076   -3.8087    0.0000 C   0  0  0  0  0  0  0  0  0  0  0  0
    2.8680   -3.2662    0.0000 C   0  0  0  0  0  0  0  0  0  0  0  0
    9.6285    0.7509    0.0000 C   0  0  0  0  0  0  0  0  0  0  0  0
   10.9176    1.9077    0.0000 C   0  0  0  0  0  0  0  0  0  0  0  0
   11.2283    2.8582    0.0000 C   0  0  0  0  0  0  0  0  0  0  0  0
   11.5390    3.8087    0.0000 C   0  0  0  0  0  0  0  0  0  0  0  0
   12.1788    2.5475    0.0000 C   0  0  0  0  0  0  0  0  0  0  0  0
   10.2778    3.1688    0.0000 C   0  0  0  0  0  0  0  0  0  0  0  0
    7.4830   -2.5558    0.0000 H   0  0  0  0  0  0  0  0  0  0  0  0
    7.2664   -2.6298    0.0000 H   0  0  0  0  0  0  0  0  0  0  0  0
    6.3972   -1.2855    0.0000 H   0  0  0  0  0  0  0  0  0  0  0  0
    7.7396    0.1965    0.0000 H   0  0  0  0  0  0  0  0  0  0  0  0
    6.9256    0.2644    0.0000 H   0  0  0  0  0  0  0  0  0  0  0  0
    6.1285    0.2644    0.0000 H   0  0  0  0  0  0  0  0  0  0  0  0
    5.4490   -0.1279    0.0000 H   0  0  0  0  0  0  0  0  0  0  0  0
    5.0504   -0.8182    0.0000 H   0  0  0  0  0  0  0  0  0  0  0  0
    8.0883   -2.5822    0.0000 H   0  0  0  0  0  0  0  0  0  0  0  0
    8.8767   -2.3245    0.0000 H   0  0  0  0  0  0  0  0  0  0  0  0
    9.3838   -1.6253    0.0000 H   0  0  0  0  0  0  0  0  0  0  0  0
    9.3838   -0.7958    0.0000 H   0  0  0  0  0  0  0  0  0  0  0  0
    6.7612   -3.8324    0.0000 H   0  0  0  0  0  0  0  0  0  0  0  0
    7.1523   -3.1366    0.0000 H   0  0  0  0  0  0  0  0  0  0  0  0
    8.0131    0.2895    0.0000 H   0  0  0  0  0  0  0  0  0  0  0  0
    7.3931    0.9095    0.0000 H   0  0  0  0  0  0  0  0  0  0  0  0
    6.7731    0.2895    0.0000 H   0  0  0  0  0  0  0  0  0  0  0  0
    5.2478   -4.2558    0.0000 H   0  0  0  0  0  0  0  0  0  0  0  0
    6.0460   -4.2527    0.0000 H   0  0  0  0  0  0  0  0  0  0  0  0
    4.2324   -1.1866    0.0000 H   0  0  0  0  0  0  0  0  0  0  0  0
    3.4343   -1.1713    0.0000 H   0  0  0  0  0  0  0  0  0  0  0  0
    5.3787   -1.2222    0.0000 H   0  0  0  0  0  0  0  0  0  0  0  0
    4.7635   -0.5974    0.0000 H   0  0  0  0  0  0  0  0  0  0  0  0
    4.1388   -1.2126    0.0000 H   0  0  0  0  0  0  0  0  0  0  0  0
    2.6718   -1.5960    0.0000 H   0  0  0  0  0  0  0  0  0  0  0  0
    2.2647   -2.2826    0.0000 H   0  0  0  0  0  0  0  0  0  0  0  0
    3.8100   -4.4287    0.0000 H   0  0  0  0  0  0  0  0  0  0  0  0
    9.6490    0.1313    0.0000 H   0  0  0  0  0  0  0  0  0  0  0  0
   10.2423    0.6636    0.0000 H   0  0  0  0  0  0  0  0  0  0  0  0
   10.4704    3.7582    0.0000 H   0  0  0  0  0  0  0  0  0  0  0  0
    9.6885    3.3615    0.0000 H   0  0  0  0  0  0  0  0  0  0  0  0
   10.0852    2.5795    0.0000 H   0  0  0  0  0  0  0  0  0  0  0  0
   12.1283    3.6161    0.0000 H   0  0  0  0  0  0  0  0  0  0  0  0
   11.7316    4.3980    0.0000 H   0  0  0  0  0  0  0  0  0  0  0  0
   10.9496    4.0013    0.0000 H   0  0  0  0  0  0  0  0  0  0  0  0
   11.9862    1.9582    0.0000 H   0  0  0  0  0  0  0  0  0  0  0  0
   12.7681    2.3549    0.0000 H   0  0  0  0  0  0  0  0  0  0  0  0
   12.3714    3.1368    0.0000 H   0  0  0  0  0  0  0  0  0  0  0  0
  1 21  2  0  0  0  0
  2 25  1  0  0  0  0
  2 26  1  0  0  0  0
  3 24  2  0  0  0  0
  4 26  2  0  0  0  0
  5  6  1  0  0  0  0
  5  7  1  0  0  0  0
  5 13  1  0  0  0  0
  5 31  1  0  0  0  0
  6 10  1  0  0  0  0
  6 11  1  0  0  0  0
  6 16  1  0  0  0  0
  7  8  1  0  0  0  0
  7 15  1  0  0  0  0
  7 32  1  0  0  0  0
  8  9  1  0  0  0  0
  8 12  1  0  0  0  0
  8 33  1  0  0  0  0
  9 17  1  0  0  0  0
  9 19  1  0  0  0  0
  9 20  1  0  0  0  0
 10 14  1  0  0  0  0
 10 21  1  0  0  0  0
 10 34  1  0  0  0  0
 11 12  1  0  0  0  0
 11 35  1  0  0  0  0
 11 36  1  0  0  0  0
 12 37  1  0  0  0  0
 12 38  1  0  0  0  0
 13 14  1  0  0  0  0
 13 39  1  0  0  0  0
 13 40  1  0  0  0  0
 14 41  1  0  0  0  0
 14 42  1  0  0  0  0
 15 18  1  0  0  0  0
 15 43  1  0  0  0  0
 15 44  1  0  0  0  0
 16 45  1  0  0  0  0
 16 46  1  0  0  0  0
 16 47  1  0  0  0  0
 17 18  1  0  0  0  0
 17 23  2  0  0  0  0
 18 48  1  0  0  0  0
 18 49  1  0  0  0  0
 19 22  1  0  0  0  0
 19 50  1  0  0  0  0
 19 51  1  0  0  0  0
 20 52  1  0  0  0  0
 20 53  1  0  0  0  0
 20 54  1  0  0  0  0
 21 25  1  0  0  0  0
 22 24  1  0  0  0  0
 22 55  1  0  0  0  0
 22 56  1  0  0  0  0
 23 24  1  0  0  0  0
 23 57  1  0  0  0  0
 25 58  1  0  0  0  0
 25 59  1  0  0  0  0
 26 27  1  0  0  0  0
 27 28  1  0  0  0  0
 27 29  1  0  0  0  0
 27 30  1  0  0  0  0
 28 63  1  0  0  0  0
 28 64  1  0  0  0  0
 28 65  1  0  0  0  0
 29 66  1  0  0  0  0
 29 67  1  0  0  0  0
 29 68  1  0  0  0  0
 30 60  1  0  0  0  0
 30 61  1  0  0  0  0
 30 62  1  0  0  0  0
M  END
> <PUBCHEM_COMPOUND_CID>
13126

> <PUBCHEM_COMPOUND_CANONICALIZED>
1

> <PUBCHEM_CACTVS_COMPLEXITY>
787

> <PUBCHEM_CACTVS_HBOND_ACCEPTOR>
4

> <PUBCHEM_CACTVS_HBOND_DONOR>
0

> <PUBCHEM_CACTVS_ROTATABLE_BOND>
5

> <PUBCHEM_CACTVS_SUBSKEYS>
AAADcfB4OAAAAAAAAAAAAAAAAAAAAYAAAAAwYIAAAAAAAGDAAAAAGgAAAAAADwSggAICCAAABACIAqDSCAIAAAAgAAAACAFAAEgAABIAAQQCAAAEgAAIAQOIyPCPgAAAAAAAAACAAAQAACAAAQAACAAAAA==

> <PUBCHEM_IUPAC_OPENEYE_NAME>
[2-(10,13-dimethyl-3-oxo-1,2,6,7,8,9,11,12,14,15,16,17-dodecahydrocyclopenta[a]phenanthren-17-yl)-2-oxo-ethyl] 2,2-dimethylpropanoate

> <PUBCHEM_IUPAC_CAS_NAME>
2,2-dimethylpropanoic acid [2-(10,13-dimethyl-3-oxo-1,2,6,7,8,9,11,12,14,15,16,17-dodecahydrocyclopenta[a]phenanthren-17-yl)-2-oxoethyl] ester

> <PUBCHEM_IUPAC_NAME>
[2-(10,13-dimethyl-3-oxo-1,2,6,7,8,9,11,12,14,15,16,17-dodecahydrocyclopenta[a]phenanthren-17-yl)-2-oxoethyl] 2,2-dimethylpropanoate

> <PUBCHEM_IUPAC_SYSTEMATIC_NAME>
[2-(10,13-dimethyl-3-oxidanylidene-1,2,6,7,8,9,11,12,14,15,16,17-dodecahydrocyclopenta[a]phenanthren-17-yl)-2-oxidanylidene-ethyl] 2,2-dimethylpropanoate

> <PUBCHEM_IUPAC_TRADITIONAL_NAME>
2,2-dimethylpropionic acid [2-keto-2-(3-keto-10,13-dimethyl-1,2,6,7,8,9,11,12,14,15,16,17-dodecahydrocyclopenta[a]phenanthren-17-yl)ethyl] ester

> <PUBCHEM_IUPAC_INCHI>
InChI=1S/C26H38O4/c1-24(2,3)23(29)30-15-22(28)21-9-8-19-18-7-6-16-14-17(27)10-12-25(16,4)20(18)11-13-26(19,21)5/h14,18-21H,6-13,15H2,1-5H3

> <PUBCHEM_IUPAC_INCHIKEY>
VVOIQBFMTVCINR-UHFFFAOYSA-N

> <PUBCHEM_XLOGP3>
4.5

> <PUBCHEM_EXACT_MASS>
414.27701

> <PUBCHEM_MOLECULAR_FORMULA>
C26H38O4

> <PUBCHEM_MOLECULAR_WEIGHT>
414.57752

> <PUBCHEM_OPENEYE_CAN_SMILES>
CC12CCC3C(C1CCC2C(=O)COC(=O)C(C)(C)C)CCC4=CC(=O)CCC34C

> <PUBCHEM_OPENEYE_ISO_SMILES>
CC12CCC3C(C1CCC2C(=O)COC(=O)C(C)(C)C)CCC4=CC(=O)CCC34C

> <PUBCHEM_CACTVS_TPSA>
60.4

> <PUBCHEM_MONOISOTOPIC_WEIGHT>
414.27701

> <PUBCHEM_TOTAL_CHARGE>
0

> <PUBCHEM_HEAVY_ATOM_COUNT>
30

> <PUBCHEM_ATOM_DEF_STEREO_COUNT>
0

> <PUBCHEM_ATOM_UDEF_STEREO_COUNT>
6

> <PUBCHEM_BOND_DEF_STEREO_COUNT>
0

> <PUBCHEM_BOND_UDEF_STEREO_COUNT>
0

> <PUBCHEM_ISOTOPIC_ATOM_COUNT>
0

> <PUBCHEM_COMPONENT_COUNT>
1

> <PUBCHEM_CACTVS_TAUTO_COUNT>
15

> <PUBCHEM_COORDINATE_TYPE>
1
5
255

> <PUBCHEM_BONDANNOTATIONS>
10  34  3
5  31  3
6  16  3
7  32  3
8  33  3
9  20  3

$$$$

