47205536
  -OEChem-06241222592D

 30 31  0     0  0  0  0  0  0999 V2000
    2.0000   -3.6830    0.0000 Br  0  0  0  0  0  0  0  0  0  0  0  0
    4.5981    2.8170    0.0000 O   0  0  0  0  0  0  0  0  0  0  0  0
    5.4641   -0.6830    0.0000 O   0  0  0  0  0  0  0  0  0  0  0  0
    5.4641    1.3170    0.0000 N   0  0  0  0  0  0  0  0  0  0  0  0
    3.7320   -0.6830    0.0000 N   0  0  0  0  0  0  0  0  0  0  0  0
    6.3301    2.8170    0.0000 C   0  0  0  0  0  0  0  0  0  0  0  0
    7.3301    2.8170    0.0000 C   0  0  0  0  0  0  0  0  0  0  0  0
    6.8301    3.6830    0.0000 C   0  0  0  0  0  0  0  0  0  0  0  0
    5.4641    2.3170    0.0000 C   0  0  0  0  0  0  0  0  0  0  0  0
    4.5981    0.8170    0.0000 C   0  0  0  0  0  0  0  0  0  0  0  0
    4.5981   -0.1830    0.0000 C   0  0  0  0  0  0  0  0  0  0  0  0
    3.7320   -1.6830    0.0000 C   0  0  0  0  0  0  0  0  0  0  0  0
    2.8660   -2.1830    0.0000 C   0  0  0  0  0  0  0  0  0  0  0  0
    4.5981   -2.1830    0.0000 C   0  0  0  0  0  0  0  0  0  0  0  0
    2.8660   -3.1830    0.0000 C   0  0  0  0  0  0  0  0  0  0  0  0
    4.5981   -3.1830    0.0000 C   0  0  0  0  0  0  0  0  0  0  0  0
    3.7320   -3.6830    0.0000 C   0  0  0  0  0  0  0  0  0  0  0  0
    6.4906    2.2181    0.0000 H   0  0  0  0  0  0  0  0  0  0  0  0
    7.4378    2.2064    0.0000 H   0  0  0  0  0  0  0  0  0  0  0  0
    7.9127    3.0290    0.0000 H   0  0  0  0  0  0  0  0  0  0  0  0
    7.3051    4.0815    0.0000 H   0  0  0  0  0  0  0  0  0  0  0  0
    6.3552    4.0815    0.0000 H   0  0  0  0  0  0  0  0  0  0  0  0
    6.0010    1.0070    0.0000 H   0  0  0  0  0  0  0  0  0  0  0  0
    4.3860    1.3996    0.0000 H   0  0  0  0  0  0  0  0  0  0  0  0
    3.9875    0.7093    0.0000 H   0  0  0  0  0  0  0  0  0  0  0  0
    3.1951   -0.3730    0.0000 H   0  0  0  0  0  0  0  0  0  0  0  0
    2.3291   -1.8730    0.0000 H   0  0  0  0  0  0  0  0  0  0  0  0
    5.1350   -1.8730    0.0000 H   0  0  0  0  0  0  0  0  0  0  0  0
    5.1350   -3.4930    0.0000 H   0  0  0  0  0  0  0  0  0  0  0  0
    3.7320   -4.3030    0.0000 H   0  0  0  0  0  0  0  0  0  0  0  0
  1 15  1  0  0  0  0
  2  9  2  0  0  0  0
  3 11  2  0  0  0  0
  4  9  1  0  0  0  0
  4 10  1  0  0  0  0
  4 23  1  0  0  0  0
  5 11  1  0  0  0  0
  5 12  1  0  0  0  0
  5 26  1  0  0  0  0
  6  7  1  0  0  0  0
  6  8  1  0  0  0  0
  6  9  1  0  0  0  0
  6 18  1  0  0  0  0
  7  8  1  0  0  0  0
  7 19  1  0  0  0  0
  7 20  1  0  0  0  0
  8 21  1  0  0  0  0
  8 22  1  0  0  0  0
 10 11  1  0  0  0  0
 10 24  1  0  0  0  0
 10 25  1  0  0  0  0
 12 13  2  0  0  0  0
 12 14  1  0  0  0  0
 13 15  1  0  0  0  0
 13 27  1  0  0  0  0
 14 16  2  0  0  0  0
 14 28  1  0  0  0  0
 15 17  2  0  0  0  0
 16 17  1  0  0  0  0
 16 29  1  0  0  0  0
 17 30  1  0  0  0  0
M  END
> <PUBCHEM_COMPOUND_CID>
47205536

> <PUBCHEM_COMPOUND_CANONICALIZED>
1

> <PUBCHEM_CACTVS_COMPLEXITY>
305

> <PUBCHEM_CACTVS_HBOND_ACCEPTOR>
2

> <PUBCHEM_CACTVS_HBOND_DONOR>
2

> <PUBCHEM_CACTVS_ROTATABLE_BOND>
4

> <PUBCHEM_CACTVS_SUBSKEYS>
AAADccBzMAAAEAAAAAAAAAAAGAAAAAAAAAAwAAAAAAAAAAABAAAAHgBQAAABrQjBkAQwwILAAACIACVSUACCAAAhAgQIiIGIZKgIYDLAkbGUIAhglgDIyhcQAAAAAAAAAAEAAAAAAAAAAgAAAAAAAAAAAA==

> <PUBCHEM_IUPAC_OPENEYE_NAME>
N-[2-(3-bromoanilino)-2-oxo-ethyl]cyclopropanecarboxamide

> <PUBCHEM_IUPAC_CAS_NAME>
N-[2-(3-bromoanilino)-2-oxoethyl]cyclopropanecarboxamide

> <PUBCHEM_IUPAC_NAME>
N-[2-(3-bromoanilino)-2-oxoethyl]cyclopropanecarboxamide

> <PUBCHEM_IUPAC_SYSTEMATIC_NAME>
N-[2-[(3-bromophenyl)amino]-2-oxidanylidene-ethyl]cyclopropanecarboxamide

> <PUBCHEM_IUPAC_TRADITIONAL_NAME>
N-[2-(3-bromoanilino)-2-keto-ethyl]cyclopropanecarboxamide

> <PUBCHEM_IUPAC_INCHI>
InChI=1S/C12H13BrN2O2/c13-9-2-1-3-10(6-9)15-11(16)7-14-12(17)8-4-5-8/h1-3,6,8H,4-5,7H2,(H,14,17)(H,15,16)

> <PUBCHEM_IUPAC_INCHIKEY>
JHPQJNWMHGCDJJ-UHFFFAOYSA-N

> <PUBCHEM_XLOGP3>
1.1

> <PUBCHEM_EXACT_MASS>
296.01604

> <PUBCHEM_MOLECULAR_FORMULA>
C12H13BrN2O2

> <PUBCHEM_MOLECULAR_WEIGHT>
297.14782

> <PUBCHEM_OPENEYE_CAN_SMILES>
C1CC1C(=O)NCC(=O)NC2=CC(=CC=C2)Br

> <PUBCHEM_OPENEYE_ISO_SMILES>
C1CC1C(=O)NCC(=O)NC2=CC(=CC=C2)Br

> <PUBCHEM_CACTVS_TPSA>
58.2

> <PUBCHEM_MONOISOTOPIC_WEIGHT>
296.01604

> <PUBCHEM_TOTAL_CHARGE>
0

> <PUBCHEM_HEAVY_ATOM_COUNT>
17

> <PUBCHEM_ATOM_DEF_STEREO_COUNT>
0

> <PUBCHEM_ATOM_UDEF_STEREO_COUNT>
0

> <PUBCHEM_BOND_DEF_STEREO_COUNT>
0

> <PUBCHEM_BOND_UDEF_STEREO_COUNT>
0

> <PUBCHEM_ISOTOPIC_ATOM_COUNT>
0

> <PUBCHEM_COMPONENT_COUNT>
1

> <PUBCHEM_CACTVS_TAUTO_COUNT>
6

> <PUBCHEM_COORDINATE_TYPE>
1
5
255

> <PUBCHEM_BONDANNOTATIONS>
12  13  8
12  14  8
13  15  8
14  16  8
15  17  8
16  17  8

$$$$

