9641
  -OEChem-06261203542D

 18 17  0     0  0  0  0  0  0999 V2000
    4.6350    0.5490    0.0000 F   0  0  0  0  0  0  0  0  0  0  0  0
    5.6350   -1.1830    0.0000 F   0  0  0  0  0  0  0  0  0  0  0  0
    5.5010    1.0490    0.0000 F   0  0  0  0  0  0  0  0  0  0  0  0
    6.5010   -0.6830    0.0000 F   0  0  0  0  0  0  0  0  0  0  0  0
    3.7690    0.0490    0.0000 F   0  0  0  0  0  0  0  0  0  0  0  0
    4.7690   -1.6830    0.0000 F   0  0  0  0  0  0  0  0  0  0  0  0
    7.7331    0.1830    0.0000 F   0  0  0  0  0  0  0  0  0  0  0  0
    6.8671    1.6830    0.0000 F   0  0  0  0  0  0  0  0  0  0  0  0
    2.5369   -0.8170    0.0000 O   0  0  0  0  0  0  0  0  0  0  0  0
    5.1350   -0.3170    0.0000 C   0  0  0  0  0  0  0  0  0  0  0  0
    6.0010    0.1830    0.0000 C   0  0  0  0  0  0  0  0  0  0  0  0
    4.2690   -0.8170    0.0000 C   0  0  0  0  0  0  0  0  0  0  0  0
    3.4030   -1.3170    0.0000 C   0  0  0  0  0  0  0  0  0  0  0  0
    6.8671    0.6830    0.0000 C   0  0  0  0  0  0  0  0  0  0  0  0
    3.0044   -1.7919    0.0000 H   0  0  0  0  0  0  0  0  0  0  0  0
    3.8015   -1.7919    0.0000 H   0  0  0  0  0  0  0  0  0  0  0  0
    6.3301    0.9930    0.0000 H   0  0  0  0  0  0  0  0  0  0  0  0
    2.0000   -1.1270    0.0000 H   0  0  0  0  0  0  0  0  0  0  0  0
  1 10  1  0  0  0  0
  2 10  1  0  0  0  0
  3 11  1  0  0  0  0
  4 11  1  0  0  0  0
  5 12  1  0  0  0  0
  6 12  1  0  0  0  0
  7 14  1  0  0  0  0
  8 14  1  0  0  0  0
  9 13  1  0  0  0  0
  9 18  1  0  0  0  0
 10 11  1  0  0  0  0
 10 12  1  0  0  0  0
 11 14  1  0  0  0  0
 12 13  1  0  0  0  0
 13 15  1  0  0  0  0
 13 16  1  0  0  0  0
 14 17  1  0  0  0  0
M  END
> <PUBCHEM_COMPOUND_CID>
9641

> <PUBCHEM_COMPOUND_CANONICALIZED>
1

> <PUBCHEM_CACTVS_COMPLEXITY>
200

> <PUBCHEM_CACTVS_HBOND_ACCEPTOR>
9

> <PUBCHEM_CACTVS_HBOND_DONOR>
1

> <PUBCHEM_CACTVS_ROTATABLE_BOND>
4

> <PUBCHEM_CACTVS_SUBSKEYS>
AAADcYBgIcAAAAAAAAAAAAAAAAAAAAAAAAAAAAAAAAAAAAAAAAAAGwAACAAACACggBIAAAAAAgAAAAAAAAAAAAAAAAAAAAAAAAAAEAIAAAAAQAAEAAAAAACAAAAAAAAAAAAAAAAAAAAAAAAAAAAAAAAAAA==

> <PUBCHEM_IUPAC_OPENEYE_NAME>
2,2,3,3,4,4,5,5-octafluoropentan-1-ol

> <PUBCHEM_IUPAC_CAS_NAME>
2,2,3,3,4,4,5,5-octafluoro-1-pentanol

> <PUBCHEM_IUPAC_NAME>
2,2,3,3,4,4,5,5-octafluoropentan-1-ol

> <PUBCHEM_IUPAC_SYSTEMATIC_NAME>
2,2,3,3,4,4,5,5-octakis(fluoranyl)pentan-1-ol

> <PUBCHEM_IUPAC_TRADITIONAL_NAME>
2,2,3,3,4,4,5,5-octafluoropentan-1-ol

> <PUBCHEM_IUPAC_INCHI>
InChI=1S/C5H4F8O/c6-2(7)4(10,11)5(12,13)3(8,9)1-14/h2,14H,1H2

> <PUBCHEM_IUPAC_INCHIKEY>
JUGSKHLZINSXPQ-UHFFFAOYSA-N

> <PUBCHEM_XLOGP3>
2.4

> <PUBCHEM_EXACT_MASS>
232.013441

> <PUBCHEM_MOLECULAR_FORMULA>
C5H4F8O

> <PUBCHEM_MOLECULAR_WEIGHT>
232.071886

> <PUBCHEM_OPENEYE_CAN_SMILES>
C(C(C(C(C(F)F)(F)F)(F)F)(F)F)O

> <PUBCHEM_OPENEYE_ISO_SMILES>
C(C(C(C(C(F)F)(F)F)(F)F)(F)F)O

> <PUBCHEM_CACTVS_TPSA>
20.2

> <PUBCHEM_MONOISOTOPIC_WEIGHT>
232.013441

> <PUBCHEM_TOTAL_CHARGE>
0

> <PUBCHEM_HEAVY_ATOM_COUNT>
14

> <PUBCHEM_ATOM_DEF_STEREO_COUNT>
0

> <PUBCHEM_ATOM_UDEF_STEREO_COUNT>
0

> <PUBCHEM_BOND_DEF_STEREO_COUNT>
0

> <PUBCHEM_BOND_UDEF_STEREO_COUNT>
0

> <PUBCHEM_ISOTOPIC_ATOM_COUNT>
0

> <PUBCHEM_COMPONENT_COUNT>
1

> <PUBCHEM_CACTVS_TAUTO_COUNT>
1

> <PUBCHEM_COORDINATE_TYPE>
1
5
255

$$$$

