51090922
  -OEChem-06241223002D

 47 48  0     1  0  0  0  0  0999 V2000
    5.7384    5.8375    0.0000 F   0  0  0  0  0  0  0  0  0  0  0  0
    7.0587    5.3307    0.0000 F   0  0  0  0  0  0  0  0  0  0  0  0
    5.2316    4.5172    0.0000 F   0  0  0  0  0  0  0  0  0  0  0  0
    3.7320   -2.3375    0.0000 O   0  0  0  0  0  0  0  0  0  0  0  0
    5.4641   -1.3375    0.0000 O   0  0  0  0  0  0  0  0  0  0  0  0
    5.9641    3.2014    0.0000 N   0  0  3  0  0  0  0  0  0  0  0  0
    4.5981    0.1625    0.0000 N   0  0  0  0  0  0  0  0  0  0  0  0
    5.4641    1.6625    0.0000 C   0  0  3  0  0  0  0  0  0  0  0  0
    4.6551    2.2503    0.0000 C   0  0  0  0  0  0  0  0  0  0  0  0
    6.2731    2.2503    0.0000 C   0  0  0  0  0  0  0  0  0  0  0  0
    4.9641    3.2014    0.0000 C   0  0  0  0  0  0  0  0  0  0  0  0
    5.4641    0.6625    0.0000 C   0  0  0  0  0  0  0  0  0  0  0  0
    6.5519    4.0104    0.0000 C   0  0  0  0  0  0  0  0  0  0  0  0
    6.1452    4.9239    0.0000 C   0  0  0  0  0  0  0  0  0  0  0  0
    4.5981   -0.8375    0.0000 C   0  0  0  0  0  0  0  0  0  0  0  0
    3.7320   -1.3375    0.0000 C   0  0  3  0  0  0  0  0  0  0  0  0
    2.8660   -0.8375    0.0000 C   0  0  0  0  0  0  0  0  0  0  0  0
    2.8660   -2.8375    0.0000 C   0  0  0  0  0  0  0  0  0  0  0  0
    2.8660   -3.8375    0.0000 C   0  0  0  0  0  0  0  0  0  0  0  0
    2.0000   -4.3375    0.0000 C   0  0  0  0  0  0  0  0  0  0  0  0
    3.7320   -4.3375    0.0000 C   0  0  0  0  0  0  0  0  0  0  0  0
    2.0000   -5.3375    0.0000 C   0  0  0  0  0  0  0  0  0  0  0  0
    3.7320   -5.3375    0.0000 C   0  0  0  0  0  0  0  0  0  0  0  0
    2.8660   -5.8375    0.0000 C   0  0  0  0  0  0  0  0  0  0  0  0
    6.0165    1.3811    0.0000 H   0  0  0  0  0  0  0  0  0  0  0  0
    4.0887    2.5025    0.0000 H   0  0  0  0  0  0  0  0  0  0  0  0
    4.3451    1.7134    0.0000 H   0  0  0  0  0  0  0  0  0  0  0  0
    6.5831    1.7134    0.0000 H   0  0  0  0  0  0  0  0  0  0  0  0
    6.8395    2.5025    0.0000 H   0  0  0  0  0  0  0  0  0  0  0  0
    5.0289    3.8180    0.0000 H   0  0  0  0  0  0  0  0  0  0  0  0
    4.3576    3.3303    0.0000 H   0  0  0  0  0  0  0  0  0  0  0  0
    5.6762    0.0799    0.0000 H   0  0  0  0  0  0  0  0  0  0  0  0
    6.0747    0.7702    0.0000 H   0  0  0  0  0  0  0  0  0  0  0  0
    6.9826    3.5644    0.0000 H   0  0  0  0  0  0  0  0  0  0  0  0
    7.0659    4.3571    0.0000 H   0  0  0  0  0  0  0  0  0  0  0  0
    4.0611    0.4725    0.0000 H   0  0  0  0  0  0  0  0  0  0  0  0
    4.2690   -1.6475    0.0000 H   0  0  0  0  0  0  0  0  0  0  0  0
    3.1760   -0.3005    0.0000 H   0  0  0  0  0  0  0  0  0  0  0  0
    2.3291   -0.5275    0.0000 H   0  0  0  0  0  0  0  0  0  0  0  0
    2.5560   -1.3744    0.0000 H   0  0  0  0  0  0  0  0  0  0  0  0
    2.6540   -2.2549    0.0000 H   0  0  0  0  0  0  0  0  0  0  0  0
    2.2554   -2.9451    0.0000 H   0  0  0  0  0  0  0  0  0  0  0  0
    1.4631   -4.0275    0.0000 H   0  0  0  0  0  0  0  0  0  0  0  0
    4.2690   -4.0275    0.0000 H   0  0  0  0  0  0  0  0  0  0  0  0
    1.4631   -5.6475    0.0000 H   0  0  0  0  0  0  0  0  0  0  0  0
    4.2690   -5.6475    0.0000 H   0  0  0  0  0  0  0  0  0  0  0  0
    2.8660   -6.4575    0.0000 H   0  0  0  0  0  0  0  0  0  0  0  0
  1 14  1  0  0  0  0
  2 14  1  0  0  0  0
  3 14  1  0  0  0  0
  4 16  1  0  0  0  0
  4 18  1  0  0  0  0
  5 15  2  0  0  0  0
  6 10  1  0  0  0  0
  6 11  1  0  0  0  0
  6 13  1  0  0  0  0
  7 12  1  0  0  0  0
  7 15  1  0  0  0  0
  7 36  1  0  0  0  0
  8  9  1  0  0  0  0
  8 10  1  0  0  0  0
  8 12  1  0  0  0  0
  8 25  1  0  0  0  0
  9 11  1  0  0  0  0
  9 26  1  0  0  0  0
  9 27  1  0  0  0  0
 10 28  1  0  0  0  0
 10 29  1  0  0  0  0
 11 30  1  0  0  0  0
 11 31  1  0  0  0  0
 12 32  1  0  0  0  0
 12 33  1  0  0  0  0
 13 14  1  0  0  0  0
 13 34  1  0  0  0  0
 13 35  1  0  0  0  0
 15 16  1  0  0  0  0
 16 17  1  0  0  0  0
 16 37  1  0  0  0  0
 17 38  1  0  0  0  0
 17 39  1  0  0  0  0
 17 40  1  0  0  0  0
 18 19  1  0  0  0  0
 18 41  1  0  0  0  0
 18 42  1  0  0  0  0
 19 20  2  0  0  0  0
 19 21  1  0  0  0  0
 20 22  1  0  0  0  0
 20 43  1  0  0  0  0
 21 23  2  0  0  0  0
 21 44  1  0  0  0  0
 22 24  2  0  0  0  0
 22 45  1  0  0  0  0
 23 24  1  0  0  0  0
 23 46  1  0  0  0  0
 24 47  1  0  0  0  0
M  END
> <PUBCHEM_COMPOUND_CID>
51090922

> <PUBCHEM_COMPOUND_CANONICALIZED>
1

> <PUBCHEM_CACTVS_COMPLEXITY>
398

> <PUBCHEM_CACTVS_HBOND_ACCEPTOR>
6

> <PUBCHEM_CACTVS_HBOND_DONOR>
1

> <PUBCHEM_CACTVS_ROTATABLE_BOND>
7

> <PUBCHEM_CACTVS_SUBSKEYS>
AAADceB7MYAAAAAAAAAAAAAAAAAAAWAAAAAwAAAAAAAAAAABAAAAHwAQAAAADRThmBYyAIPABACIAiFSEAICAAAgAAAIiIFICIgKJiKA8RyHMAAk1gGYqAeAwCAOAAAAAAAAAAAAAAAAAAAAAAAAAAAAAA==

> <PUBCHEM_IUPAC_OPENEYE_NAME>
2-benzyloxy-N-[[1-(2,2,2-trifluoroethyl)pyrrolidin-3-yl]methyl]propanamide

> <PUBCHEM_IUPAC_CAS_NAME>
2-phenylmethoxy-N-[[1-(2,2,2-trifluoroethyl)-3-pyrrolidinyl]methyl]propanamide

> <PUBCHEM_IUPAC_NAME>
2-phenylmethoxy-N-[[1-(2,2,2-trifluoroethyl)pyrrolidin-3-yl]methyl]propanamide

> <PUBCHEM_IUPAC_SYSTEMATIC_NAME>
2-phenylmethoxy-N-[[1-[2,2,2-tris(fluoranyl)ethyl]pyrrolidin-3-yl]methyl]propanamide

> <PUBCHEM_IUPAC_TRADITIONAL_NAME>
2-benzoxy-N-[[1-(2,2,2-trifluoroethyl)pyrrolidin-3-yl]methyl]propionamide

> <PUBCHEM_IUPAC_INCHI>
InChI=1S/C17H23F3N2O2/c1-13(24-11-14-5-3-2-4-6-14)16(23)21-9-15-7-8-22(10-15)12-17(18,19)20/h2-6,13,15H,7-12H2,1H3,(H,21,23)

> <PUBCHEM_IUPAC_INCHIKEY>
OQSHELQHIFTVBJ-UHFFFAOYSA-N

> <PUBCHEM_XLOGP3_AA>
2.9

> <PUBCHEM_EXACT_MASS>
344.171163

> <PUBCHEM_MOLECULAR_FORMULA>
C17H23F3N2O2

> <PUBCHEM_MOLECULAR_WEIGHT>
344.37193

> <PUBCHEM_OPENEYE_CAN_SMILES>
CC(C(=O)NCC1CCN(C1)CC(F)(F)F)OCC2=CC=CC=C2

> <PUBCHEM_OPENEYE_ISO_SMILES>
CC(C(=O)NCC1CCN(C1)CC(F)(F)F)OCC2=CC=CC=C2

> <PUBCHEM_CACTVS_TPSA>
41.6

> <PUBCHEM_MONOISOTOPIC_WEIGHT>
344.171163

> <PUBCHEM_TOTAL_CHARGE>
0

> <PUBCHEM_HEAVY_ATOM_COUNT>
24

> <PUBCHEM_ATOM_DEF_STEREO_COUNT>
0

> <PUBCHEM_ATOM_UDEF_STEREO_COUNT>
2

> <PUBCHEM_BOND_DEF_STEREO_COUNT>
0

> <PUBCHEM_BOND_UDEF_STEREO_COUNT>
0

> <PUBCHEM_ISOTOPIC_ATOM_COUNT>
0

> <PUBCHEM_COMPONENT_COUNT>
1

> <PUBCHEM_CACTVS_TAUTO_COUNT>
2

> <PUBCHEM_COORDINATE_TYPE>
1
5
255

> <PUBCHEM_BONDANNOTATIONS>
16  17  3
19  20  8
19  21  8
20  22  8
21  23  8
22  24  8
23  24  8
8  12  3

$$$$

