4726
  -OEChem-06261200192D

 43 44  0     1  0  0  0  0  0999 V2000
    7.1962   -0.7091    0.0000 S   0  0  0  0  0  0  0  0  0  0  0  0
   10.5020   -0.9984    0.0000 S   0  0  0  0  0  0  0  0  0  0  0  0
   11.1418    2.3487    0.0000 F   0  0  0  0  0  0  0  0  0  0  0  0
    9.7335    2.2201    0.0000 F   0  0  0  0  0  0  0  0  0  0  0  0
   11.2705    0.9404    0.0000 F   0  0  0  0  0  0  0  0  0  0  0  0
    6.6962   -1.5751    0.0000 O   0  0  0  0  0  0  0  0  0  0  0  0
    7.6962   -1.5751    0.0000 O   0  0  0  0  0  0  0  0  0  0  0  0
    9.7335   -1.6383    0.0000 O   0  0  0  0  0  0  0  0  0  0  0  0
   11.2705   -0.3586    0.0000 O   0  0  0  0  0  0  0  0  0  0  0  0
    6.3301   -0.2091    0.0000 N   0  0  0  0  0  0  0  0  0  0  0  0
    7.1962    1.2909    0.0000 N   0  0  0  0  0  0  0  0  0  0  0  0
   11.1418   -1.7670    0.0000 N   0  0  0  0  0  0  0  0  0  0  0  0
    6.3301    0.7909    0.0000 C   0  0  3  0  0  0  0  0  0  0  0  0
    5.4641    1.2909    0.0000 C   0  0  0  0  0  0  0  0  0  0  0  0
    8.0622   -0.2091    0.0000 C   0  0  0  0  0  0  0  0  0  0  0  0
    8.0622    0.7909    0.0000 C   0  0  0  0  0  0  0  0  0  0  0  0
    4.5981    0.7909    0.0000 C   0  0  0  0  0  0  0  0  0  0  0  0
    3.7320    1.2909    0.0000 C   0  0  0  0  0  0  0  0  0  0  0  0
    8.9561   -0.7438    0.0000 C   0  0  0  0  0  0  0  0  0  0  0  0
    8.9561    1.3256    0.0000 C   0  0  0  0  0  0  0  0  0  0  0  0
    9.8622   -0.2299    0.0000 C   0  0  0  0  0  0  0  0  0  0  0  0
    9.8622    0.8117    0.0000 C   0  0  0  0  0  0  0  0  0  0  0  0
    2.8660    0.7909    0.0000 C   0  0  0  0  0  0  0  0  0  0  0  0
   10.5020    1.5802    0.0000 C   0  0  0  0  0  0  0  0  0  0  0  0
    2.0000    1.2909    0.0000 C   0  0  0  0  0  0  0  0  0  0  0  0
    5.5940    0.3659    0.0000 H   0  0  0  0  0  0  0  0  0  0  0  0
    5.8626    1.7658    0.0000 H   0  0  0  0  0  0  0  0  0  0  0  0
    5.0656    1.7658    0.0000 H   0  0  0  0  0  0  0  0  0  0  0  0
    5.7932   -0.5191    0.0000 H   0  0  0  0  0  0  0  0  0  0  0  0
    7.1962    1.9109    0.0000 H   0  0  0  0  0  0  0  0  0  0  0  0
    4.1996    0.3159    0.0000 H   0  0  0  0  0  0  0  0  0  0  0  0
    4.9966    0.3159    0.0000 H   0  0  0  0  0  0  0  0  0  0  0  0
    4.1306    1.7658    0.0000 H   0  0  0  0  0  0  0  0  0  0  0  0
    3.3335    1.7658    0.0000 H   0  0  0  0  0  0  0  0  0  0  0  0
    8.9490   -1.3637    0.0000 H   0  0  0  0  0  0  0  0  0  0  0  0
    8.9490    1.9455    0.0000 H   0  0  0  0  0  0  0  0  0  0  0  0
    2.4675    0.3159    0.0000 H   0  0  0  0  0  0  0  0  0  0  0  0
    3.2646    0.3159    0.0000 H   0  0  0  0  0  0  0  0  0  0  0  0
    2.3100    1.8278    0.0000 H   0  0  0  0  0  0  0  0  0  0  0  0
    1.4631    1.6009    0.0000 H   0  0  0  0  0  0  0  0  0  0  0  0
    1.6900    0.7540    0.0000 H   0  0  0  0  0  0  0  0  0  0  0  0
   10.9276   -2.3487    0.0000 H   0  0  0  0  0  0  0  0  0  0  0  0
   11.7528   -1.6616    0.0000 H   0  0  0  0  0  0  0  0  0  0  0  0
  1  6  2  0  0  0  0
  1  7  2  0  0  0  0
  1 10  1  0  0  0  0
  1 15  1  0  0  0  0
  2  8  2  0  0  0  0
  2  9  2  0  0  0  0
  2 12  1  0  0  0  0
  2 21  1  0  0  0  0
  3 24  1  0  0  0  0
  4 24  1  0  0  0  0
  5 24  1  0  0  0  0
 10 13  1  0  0  0  0
 10 29  1  0  0  0  0
 11 13  1  0  0  0  0
 11 16  1  0  0  0  0
 11 30  1  0  0  0  0
 12 42  1  0  0  0  0
 12 43  1  0  0  0  0
 13 14  1  0  0  0  0
 13 26  1  0  0  0  0
 14 17  1  0  0  0  0
 14 27  1  0  0  0  0
 14 28  1  0  0  0  0
 15 16  2  0  0  0  0
 15 19  1  0  0  0  0
 16 20  1  0  0  0  0
 17 18  1  0  0  0  0
 17 31  1  0  0  0  0
 17 32  1  0  0  0  0
 18 23  1  0  0  0  0
 18 33  1  0  0  0  0
 18 34  1  0  0  0  0
 19 21  2  0  0  0  0
 19 35  1  0  0  0  0
 20 22  2  0  0  0  0
 20 36  1  0  0  0  0
 21 22  1  0  0  0  0
 22 24  1  0  0  0  0
 23 25  1  0  0  0  0
 23 37  1  0  0  0  0
 23 38  1  0  0  0  0
 25 39  1  0  0  0  0
 25 40  1  0  0  0  0
 25 41  1  0  0  0  0
M  END
> <PUBCHEM_COMPOUND_CID>
4726

> <PUBCHEM_COMPOUND_CANONICALIZED>
1

> <PUBCHEM_CACTVS_COMPLEXITY>
670

> <PUBCHEM_CACTVS_HBOND_ACCEPTOR>
10

> <PUBCHEM_CACTVS_HBOND_DONOR>
3

> <PUBCHEM_CACTVS_ROTATABLE_BOND>
5

> <PUBCHEM_CACTVS_SUBSKEYS>
AAADceBzOYBgAAAAAAAAAAAAAAAAAAAAAAA8QAAAAAAAAACxAAAAHQQQQAAADAjBWBQzwYLAAAKAAiRCQHDCABAhAgAAiJwIZIiIICLAkJGEIAhgkALIyCcQgAAOEAQAQEAEAQAgCACAgAgCAAAAAAAAAA==

> <PUBCHEM_IUPAC_OPENEYE_NAME>
1,1-dioxo-3-pentyl-6-(trifluoromethyl)-3,4-dihydro-2H-1$l^{6},2,4-benzothiadiazine-7-sulfonamide

> <PUBCHEM_IUPAC_CAS_NAME>
1,1-dioxo-3-pentyl-6-(trifluoromethyl)-3,4-dihydro-2H-1$l^{6},2,4-benzothiadiazine-7-sulfonamide

> <PUBCHEM_IUPAC_NAME>
1,1-dioxo-3-pentyl-6-(trifluoromethyl)-3,4-dihydro-2H-1$l^{6},2,4-benzothiadiazine-7-sulfonamide

> <PUBCHEM_IUPAC_SYSTEMATIC_NAME>
1,1-bis(oxidanylidene)-3-pentyl-6-(trifluoromethyl)-3,4-dihydro-2H-1$l^{6},2,4-benzothiadiazine-7-sulfonamide

> <PUBCHEM_IUPAC_TRADITIONAL_NAME>
3-amyl-1,1-diketo-6-(trifluoromethyl)-3,4-dihydro-2H-1$l^{6},2,4-benzothiadiazine-7-sulfonamide

> <PUBCHEM_IUPAC_INCHI>
InChI=1S/C13H18F3N3O4S2/c1-2-3-4-5-12-18-9-6-8(13(14,15)16)10(24(17,20)21)7-11(9)25(22,23)19-12/h6-7,12,18-19H,2-5H2,1H3,(H2,17,20,21)

> <PUBCHEM_IUPAC_INCHIKEY>
AKHXXQAIVSMYIS-UHFFFAOYSA-N

> <PUBCHEM_XLOGP3>
2.7

> <PUBCHEM_EXACT_MASS>
401.069083

> <PUBCHEM_MOLECULAR_FORMULA>
C13H18F3N3O4S2

> <PUBCHEM_MOLECULAR_WEIGHT>
401.42493

> <PUBCHEM_OPENEYE_CAN_SMILES>
CCCCCC1NC2=C(C=C(C(=C2)C(F)(F)F)S(=O)(=O)N)S(=O)(=O)N1

> <PUBCHEM_OPENEYE_ISO_SMILES>
CCCCCC1NC2=C(C=C(C(=C2)C(F)(F)F)S(=O)(=O)N)S(=O)(=O)N1

> <PUBCHEM_CACTVS_TPSA>
135

> <PUBCHEM_MONOISOTOPIC_WEIGHT>
401.069083

> <PUBCHEM_TOTAL_CHARGE>
0

> <PUBCHEM_HEAVY_ATOM_COUNT>
25

> <PUBCHEM_ATOM_DEF_STEREO_COUNT>
0

> <PUBCHEM_ATOM_UDEF_STEREO_COUNT>
1

> <PUBCHEM_BOND_DEF_STEREO_COUNT>
0

> <PUBCHEM_BOND_UDEF_STEREO_COUNT>
0

> <PUBCHEM_ISOTOPIC_ATOM_COUNT>
0

> <PUBCHEM_COMPONENT_COUNT>
1

> <PUBCHEM_CACTVS_TAUTO_COUNT>
1

> <PUBCHEM_COORDINATE_TYPE>
1
5
255

> <PUBCHEM_BONDANNOTATIONS>
13  26  3
15  16  8
15  19  8
16  20  8
19  21  8
20  22  8
21  22  8

$$$$

