17396165
  -OEChem-06241222552D

 47 49  0     0  0  0  0  0  0999 V2000
    5.9641    2.5036    0.0000 O   0  0  0  0  0  0  0  0  0  0  0  0
    6.3301   -3.5352    0.0000 O   0  0  0  0  0  0  0  0  0  0  0  0
    2.8660   -3.5352    0.0000 O   0  0  0  0  0  0  0  0  0  0  0  0
    4.5981   -4.5352    0.0000 O   0  0  0  0  0  0  0  0  0  0  0  0
    6.3301   -0.5352    0.0000 O   0  0  0  0  0  0  0  0  0  0  0  0
    4.5981   -0.5352    0.0000 N   0  0  0  0  0  0  0  0  0  0  0  0
    4.6551    1.5526    0.0000 N   0  0  0  0  0  0  0  0  0  0  0  0
    4.5981   -1.5352    0.0000 C   0  0  0  0  0  0  0  0  0  0  0  0
    5.4641    0.9648    0.0000 C   0  0  0  0  0  0  0  0  0  0  0  0
    6.2731    1.5526    0.0000 C   0  0  0  0  0  0  0  0  0  0  0  0
    3.7320   -2.0352    0.0000 C   0  0  0  0  0  0  0  0  0  0  0  0
    5.4641   -2.0352    0.0000 C   0  0  0  0  0  0  0  0  0  0  0  0
    5.4641   -3.0352    0.0000 C   0  0  0  0  0  0  0  0  0  0  0  0
    3.7320   -3.0352    0.0000 C   0  0  0  0  0  0  0  0  0  0  0  0
    4.5981   -3.5352    0.0000 C   0  0  0  0  0  0  0  0  0  0  0  0
    4.9641    2.5036    0.0000 C   0  0  0  0  0  0  0  0  0  0  0  0
    5.4641   -0.0352    0.0000 C   0  0  0  0  0  0  0  0  0  0  0  0
    4.3763    3.3126    0.0000 C   0  0  0  0  0  0  0  0  0  0  0  0
    7.2242    1.2436    0.0000 C   0  0  0  0  0  0  0  0  0  0  0  0
    4.7830    4.2262    0.0000 C   0  0  0  0  0  0  0  0  0  0  0  0
    3.3818    3.2081    0.0000 C   0  0  0  0  0  0  0  0  0  0  0  0
    4.1953    5.0352    0.0000 C   0  0  0  0  0  0  0  0  0  0  0  0
    2.7940    4.0171    0.0000 C   0  0  0  0  0  0  0  0  0  0  0  0
    3.2008    4.9307    0.0000 C   0  0  0  0  0  0  0  0  0  0  0  0
    7.1962   -3.0352    0.0000 C   0  0  0  0  0  0  0  0  0  0  0  0
    2.0000   -3.0352    0.0000 C   0  0  0  0  0  0  0  0  0  0  0  0
    3.7320   -5.0352    0.0000 C   0  0  0  0  0  0  0  0  0  0  0  0
    3.1951   -1.7252    0.0000 H   0  0  0  0  0  0  0  0  0  0  0  0
    6.0010   -1.7252    0.0000 H   0  0  0  0  0  0  0  0  0  0  0  0
    4.0611   -0.2252    0.0000 H   0  0  0  0  0  0  0  0  0  0  0  0
    7.0326    0.6539    0.0000 H   0  0  0  0  0  0  0  0  0  0  0  0
    7.8138    1.0520    0.0000 H   0  0  0  0  0  0  0  0  0  0  0  0
    7.4158    1.8332    0.0000 H   0  0  0  0  0  0  0  0  0  0  0  0
    5.3997    4.2910    0.0000 H   0  0  0  0  0  0  0  0  0  0  0  0
    3.1296    2.6417    0.0000 H   0  0  0  0  0  0  0  0  0  0  0  0
    4.4474    5.6016    0.0000 H   0  0  0  0  0  0  0  0  0  0  0  0
    2.1774    3.9523    0.0000 H   0  0  0  0  0  0  0  0  0  0  0  0
    2.8363    5.4323    0.0000 H   0  0  0  0  0  0  0  0  0  0  0  0
    7.5062   -3.5722    0.0000 H   0  0  0  0  0  0  0  0  0  0  0  0
    7.7331   -2.7252    0.0000 H   0  0  0  0  0  0  0  0  0  0  0  0
    6.8862   -2.4983    0.0000 H   0  0  0  0  0  0  0  0  0  0  0  0
    2.3100   -2.4983    0.0000 H   0  0  0  0  0  0  0  0  0  0  0  0
    1.4631   -2.7252    0.0000 H   0  0  0  0  0  0  0  0  0  0  0  0
    1.6900   -3.5722    0.0000 H   0  0  0  0  0  0  0  0  0  0  0  0
    3.4220   -4.4983    0.0000 H   0  0  0  0  0  0  0  0  0  0  0  0
    3.1951   -5.3452    0.0000 H   0  0  0  0  0  0  0  0  0  0  0  0
    4.0420   -5.5722    0.0000 H   0  0  0  0  0  0  0  0  0  0  0  0
  1 10  1  0  0  0  0
  1 16  1  0  0  0  0
  2 13  1  0  0  0  0
  2 25  1  0  0  0  0
  3 14  1  0  0  0  0
  3 26  1  0  0  0  0
  4 15  1  0  0  0  0
  4 27  1  0  0  0  0
  5 17  2  0  0  0  0
  6  8  1  0  0  0  0
  6 17  1  0  0  0  0
  6 30  1  0  0  0  0
  7  9  1  0  0  0  0
  7 16  2  0  0  0  0
  8 11  2  0  0  0  0
  8 12  1  0  0  0  0
  9 10  2  0  0  0  0
  9 17  1  0  0  0  0
 10 19  1  0  0  0  0
 11 14  1  0  0  0  0
 11 28  1  0  0  0  0
 12 13  2  0  0  0  0
 12 29  1  0  0  0  0
 13 15  1  0  0  0  0
 14 15  2  0  0  0  0
 16 18  1  0  0  0  0
 18 20  2  0  0  0  0
 18 21  1  0  0  0  0
 19 31  1  0  0  0  0
 19 32  1  0  0  0  0
 19 33  1  0  0  0  0
 20 22  1  0  0  0  0
 20 34  1  0  0  0  0
 21 23  2  0  0  0  0
 21 35  1  0  0  0  0
 22 24  2  0  0  0  0
 22 36  1  0  0  0  0
 23 24  1  0  0  0  0
 23 37  1  0  0  0  0
 24 38  1  0  0  0  0
 25 39  1  0  0  0  0
 25 40  1  0  0  0  0
 25 41  1  0  0  0  0
 26 42  1  0  0  0  0
 26 43  1  0  0  0  0
 26 44  1  0  0  0  0
 27 45  1  0  0  0  0
 27 46  1  0  0  0  0
 27 47  1  0  0  0  0
M  END
> <PUBCHEM_COMPOUND_CID>
17396165

> <PUBCHEM_COMPOUND_CANONICALIZED>
1

> <PUBCHEM_CACTVS_COMPLEXITY>
471

> <PUBCHEM_CACTVS_HBOND_ACCEPTOR>
6

> <PUBCHEM_CACTVS_HBOND_DONOR>
1

> <PUBCHEM_CACTVS_ROTATABLE_BOND>
6

> <PUBCHEM_CACTVS_SUBSKEYS>
AAADceB7OAAAAAAAAAAAAAAAAAAAAWAAAAAwYAAAAAAAAAAB0AAAHgAQAAAADAyBngIyxpLIFECoA6VyVASCiCAvYiAImCGn7NgPZ77MtbufOWrn9B3a6Ye4+C+OAEAACgAAQAAAgAAUAACAAAAAAAAAAA==

> <PUBCHEM_IUPAC_OPENEYE_NAME>
5-methyl-2-phenyl-N-(3,4,5-trimethoxyphenyl)oxazole-4-carboxamide

> <PUBCHEM_IUPAC_CAS_NAME>
5-methyl-2-phenyl-N-(3,4,5-trimethoxyphenyl)-4-oxazolecarboxamide

> <PUBCHEM_IUPAC_NAME>
5-methyl-2-phenyl-N-(3,4,5-trimethoxyphenyl)-1,3-oxazole-4-carboxamide

> <PUBCHEM_IUPAC_SYSTEMATIC_NAME>
5-methyl-2-phenyl-N-(3,4,5-trimethoxyphenyl)-1,3-oxazole-4-carboxamide

> <PUBCHEM_IUPAC_TRADITIONAL_NAME>
5-methyl-2-phenyl-N-(3,4,5-trimethoxyphenyl)oxazole-4-carboxamide

> <PUBCHEM_IUPAC_INCHI>
InChI=1S/C20H20N2O5/c1-12-17(22-20(27-12)13-8-6-5-7-9-13)19(23)21-14-10-15(24-2)18(26-4)16(11-14)25-3/h5-11H,1-4H3,(H,21,23)

> <PUBCHEM_IUPAC_INCHIKEY>
LCMRFVRCYDQDQT-UHFFFAOYSA-N

> <PUBCHEM_XLOGP3_AA>
3.5

> <PUBCHEM_EXACT_MASS>
368.137222

> <PUBCHEM_MOLECULAR_FORMULA>
C20H20N2O5

> <PUBCHEM_MOLECULAR_WEIGHT>
368.3832

> <PUBCHEM_OPENEYE_CAN_SMILES>
CC1=C(N=C(O1)C2=CC=CC=C2)C(=O)NC3=CC(=C(C(=C3)OC)OC)OC

> <PUBCHEM_OPENEYE_ISO_SMILES>
CC1=C(N=C(O1)C2=CC=CC=C2)C(=O)NC3=CC(=C(C(=C3)OC)OC)OC

> <PUBCHEM_CACTVS_TPSA>
82.8

> <PUBCHEM_MONOISOTOPIC_WEIGHT>
368.137222

> <PUBCHEM_TOTAL_CHARGE>
0

> <PUBCHEM_HEAVY_ATOM_COUNT>
27

> <PUBCHEM_ATOM_DEF_STEREO_COUNT>
0

> <PUBCHEM_ATOM_UDEF_STEREO_COUNT>
0

> <PUBCHEM_BOND_DEF_STEREO_COUNT>
0

> <PUBCHEM_BOND_UDEF_STEREO_COUNT>
0

> <PUBCHEM_ISOTOPIC_ATOM_COUNT>
0

> <PUBCHEM_COMPONENT_COUNT>
1

> <PUBCHEM_CACTVS_TAUTO_COUNT>
2

> <PUBCHEM_COORDINATE_TYPE>
1
5
255

> <PUBCHEM_BONDANNOTATIONS>
1  10  8
1  16  8
11  14  8
12  13  8
13  15  8
14  15  8
18  20  8
18  21  8
20  22  8
21  23  8
22  24  8
23  24  8
7  16  8
7  9  8
8  11  8
8  12  8
9  10  8

$$$$

