5218
  -OEChem-06261200352D

 71 72  0     1  0  0  0  0  0999 V2000
    3.8660    1.3298    0.0000 O   0  0  0  0  0  0  0  0  0  0  0  0
    5.5913   -0.7047    0.0000 O   0  0  0  0  0  0  0  0  0  0  0  0
    2.1340    1.3298    0.0000 O   0  0  0  0  0  0  0  0  0  0  0  0
    6.4399   -2.2146    0.0000 O   0  0  0  0  0  0  0  0  0  0  0  0
    9.0205   -3.7445    0.0000 O   0  0  0  0  0  0  0  0  0  0  0  0
    7.2886   -3.7245    0.0000 O   0  0  0  0  0  0  0  0  0  0  0  0
    4.7320    2.8298    0.0000 C   0  0  3  0  0  0  0  0  0  0  0  0
    5.6260    2.2952    0.0000 C   0  0  3  0  0  0  0  0  0  0  0  0
    3.8660    2.3298    0.0000 C   0  0  3  0  0  0  0  0  0  0  0  0
    6.5321    2.8090    0.0000 C   0  0  3  0  0  0  0  0  0  0  0  0
    4.7320    3.8298    0.0000 C   0  0  0  0  0  0  0  0  0  0  0  0
    5.6144    1.2952    0.0000 C   0  0  0  0  0  0  0  0  0  0  0  0
    3.0000    2.8298    0.0000 C   0  0  0  0  0  0  0  0  0  0  0  0
    3.0000    3.8298    0.0000 C   0  0  3  0  0  0  0  0  0  0  0  0
    3.8660    4.3298    0.0000 C   0  0  0  0  0  0  0  0  0  0  0  0
    6.5321    3.8506    0.0000 C   0  0  0  0  0  0  0  0  0  0  0  0
    5.6260    4.3645    0.0000 C   0  0  0  0  0  0  0  0  0  0  0  0
    6.4746    0.7852    0.0000 C   0  0  0  0  0  0  0  0  0  0  0  0
    7.3962    2.3057    0.0000 C   0  0  0  0  0  0  0  0  0  0  0  0
    2.1340    4.3298    0.0000 C   0  0  0  0  0  0  0  0  0  0  0  0
    6.4630   -0.2147    0.0000 C   0  0  3  0  0  0  0  0  0  0  0  0
    3.0000    0.8298    0.0000 C   0  0  0  0  0  0  0  0  0  0  0  0
    7.3232   -0.7247    0.0000 C   0  0  0  0  0  0  0  0  0  0  0  0
    3.0000   -0.1702    0.0000 C   0  0  0  0  0  0  0  0  0  0  0  0
    7.3117   -1.7246    0.0000 C   0  0  3  0  0  0  0  0  0  0  0  0
    3.0000   -1.1702    0.0000 C   0  0  0  0  0  0  0  0  0  0  0  0
    2.0000   -0.1702    0.0000 C   0  0  0  0  0  0  0  0  0  0  0  0
    4.0000   -0.1702    0.0000 C   0  0  0  0  0  0  0  0  0  0  0  0
    8.1719   -2.2346    0.0000 C   0  0  0  0  0  0  0  0  0  0  0  0
    2.1340   -1.6702    0.0000 C   0  0  0  0  0  0  0  0  0  0  0  0
    8.1603   -3.2345    0.0000 C   0  0  0  0  0  0  0  0  0  0  0  0
    4.7255    1.9798    0.0000 H   0  0  0  0  0  0  0  0  0  0  0  0
    6.3580    1.8631    0.0000 H   0  0  0  0  0  0  0  0  0  0  0  0
    4.6022    1.9048    0.0000 H   0  0  0  0  0  0  0  0  0  0  0  0
    6.5271    1.9590    0.0000 H   0  0  0  0  0  0  0  0  0  0  0  0
    5.0051    1.4099    0.0000 H   0  0  0  0  0  0  0  0  0  0  0  0
    5.3956    0.7151    0.0000 H   0  0  0  0  0  0  0  0  0  0  0  0
    2.3894    2.9375    0.0000 H   0  0  0  0  0  0  0  0  0  0  0  0
    2.7880    2.2472    0.0000 H   0  0  0  0  0  0  0  0  0  0  0  0
    3.0000    4.6798    0.0000 H   0  0  0  0  0  0  0  0  0  0  0  0
    3.8660    4.9498    0.0000 H   0  0  0  0  0  0  0  0  0  0  0  0
    7.0678    4.1627    0.0000 H   0  0  0  0  0  0  0  0  0  0  0  0
    5.6188    4.9844    0.0000 H   0  0  0  0  0  0  0  0  0  0  0  0
    7.0839    0.6705    0.0000 H   0  0  0  0  0  0  0  0  0  0  0  0
    6.6934    1.3654    0.0000 H   0  0  0  0  0  0  0  0  0  0  0  0
    7.0841    1.7699    0.0000 H   0  0  0  0  0  0  0  0  0  0  0  0
    7.9319    1.9936    0.0000 H   0  0  0  0  0  0  0  0  0  0  0  0
    7.7082    2.8414    0.0000 H   0  0  0  0  0  0  0  0  0  0  0  0
    2.4440    4.8667    0.0000 H   0  0  0  0  0  0  0  0  0  0  0  0
    1.5970    4.6398    0.0000 H   0  0  0  0  0  0  0  0  0  0  0  0
    1.8240    3.7929    0.0000 H   0  0  0  0  0  0  0  0  0  0  0  0
    5.7319    0.2188    0.0000 H   0  0  0  0  0  0  0  0  0  0  0  0
    7.9325   -0.8394    0.0000 H   0  0  0  0  0  0  0  0  0  0  0  0
    7.5420   -0.1446    0.0000 H   0  0  0  0  0  0  0  0  0  0  0  0
    7.3018   -2.5746    0.0000 H   0  0  0  0  0  0  0  0  0  0  0  0
    3.2120   -1.7528    0.0000 H   0  0  0  0  0  0  0  0  0  0  0  0
    3.6106   -1.0625    0.0000 H   0  0  0  0  0  0  0  0  0  0  0  0
    5.5841   -1.3246    0.0000 H   0  0  0  0  0  0  0  0  0  0  0  0
    4.0000   -0.7902    0.0000 H   0  0  0  0  0  0  0  0  0  0  0  0
    2.0000    0.4498    0.0000 H   0  0  0  0  0  0  0  0  0  0  0  0
    1.3800   -0.1702    0.0000 H   0  0  0  0  0  0  0  0  0  0  0  0
    2.0000   -0.7902    0.0000 H   0  0  0  0  0  0  0  0  0  0  0  0
    4.6200   -0.1702    0.0000 H   0  0  0  0  0  0  0  0  0  0  0  0
    4.0000    0.4498    0.0000 H   0  0  0  0  0  0  0  0  0  0  0  0
    8.7812   -2.3493    0.0000 H   0  0  0  0  0  0  0  0  0  0  0  0
    8.3906   -1.6545    0.0000 H   0  0  0  0  0  0  0  0  0  0  0  0
    1.8240   -1.1333    0.0000 H   0  0  0  0  0  0  0  0  0  0  0  0
    1.5970   -1.9802    0.0000 H   0  0  0  0  0  0  0  0  0  0  0  0
    2.4440   -2.2071    0.0000 H   0  0  0  0  0  0  0  0  0  0  0  0
    6.4328   -2.8345    0.0000 H   0  0  0  0  0  0  0  0  0  0  0  0
    9.0133   -4.3645    0.0000 H   0  0  0  0  0  0  0  0  0  0  0  0
  1  9  1  0  0  0  0
  1 22  1  0  0  0  0
  2 21  1  0  0  0  0
  2 58  1  0  0  0  0
  3 22  2  0  0  0  0
  4 25  1  0  0  0  0
  4 70  1  0  0  0  0
  5 31  1  0  0  0  0
  5 71  1  0  0  0  0
  6 31  2  0  0  0  0
  7  8  1  0  0  0  0
  7  9  1  0  0  0  0
  7 11  1  0  0  0  0
  7 32  1  0  0  0  0
  8 10  1  0  0  0  0
  8 12  1  0  0  0  0
  8 33  1  0  0  0  0
  9 13  1  0  0  0  0
  9 34  1  0  0  0  0
 10 16  1  0  0  0  0
 10 19  1  0  0  0  0
 10 35  1  0  0  0  0
 11 15  2  0  0  0  0
 11 17  1  0  0  0  0
 12 18  1  0  0  0  0
 12 36  1  0  0  0  0
 12 37  1  0  0  0  0
 13 14  1  0  0  0  0
 13 38  1  0  0  0  0
 13 39  1  0  0  0  0
 14 15  1  0  0  0  0
 14 20  1  0  0  0  0
 14 40  1  0  0  0  0
 15 41  1  0  0  0  0
 16 17  2  0  0  0  0
 16 42  1  0  0  0  0
 17 43  1  0  0  0  0
 18 21  1  0  0  0  0
 18 44  1  0  0  0  0
 18 45  1  0  0  0  0
 19 46  1  0  0  0  0
 19 47  1  0  0  0  0
 19 48  1  0  0  0  0
 20 49  1  0  0  0  0
 20 50  1  0  0  0  0
 20 51  1  0  0  0  0
 21 23  1  0  0  0  0
 21 52  1  0  0  0  0
 22 24  1  0  0  0  0
 23 25  1  0  0  0  0
 23 53  1  0  0  0  0
 23 54  1  0  0  0  0
 24 26  1  0  0  0  0
 24 27  1  0  0  0  0
 24 28  1  0  0  0  0
 25 29  1  0  0  0  0
 25 55  1  0  0  0  0
 26 30  1  0  0  0  0
 26 56  1  0  0  0  0
 26 57  1  0  0  0  0
 27 60  1  0  0  0  0
 27 61  1  0  0  0  0
 27 62  1  0  0  0  0
 28 59  1  0  0  0  0
 28 63  1  0  0  0  0
 28 64  1  0  0  0  0
 29 31  1  0  0  0  0
 29 65  1  0  0  0  0
 29 66  1  0  0  0  0
 30 67  1  0  0  0  0
 30 68  1  0  0  0  0
 30 69  1  0  0  0  0
M  END
> <PUBCHEM_COMPOUND_CID>
5218

> <PUBCHEM_COMPOUND_CANONICALIZED>
1

> <PUBCHEM_CACTVS_COMPLEXITY>
694

> <PUBCHEM_CACTVS_HBOND_ACCEPTOR>
6

> <PUBCHEM_CACTVS_HBOND_DONOR>
3

> <PUBCHEM_CACTVS_ROTATABLE_BOND>
11

> <PUBCHEM_CACTVS_SUBSKEYS>
AAADcfB4OAAAAAAAAAAAAAAAAAAAAAAAAAAgQAAAAAAAAACAAAAAGgAACAAADxSggAICCAAABgCIAiDSCAAAAAAgAAAICAEAAAgIEBYAAQACQAAF4AAIgAOI7PTPgAAAAAAAAAAAAAAAAAAAAAAAAAAAAA==

> <PUBCHEM_IUPAC_OPENEYE_NAME>
7-[8-(2,2-dimethylbutanoyloxy)-2,6-dimethyl-1,2,6,7,8,8a-hexahydronaphthalen-1-yl]-3,5-dihydroxy-heptanoic acid

> <PUBCHEM_IUPAC_CAS_NAME>
7-[8-(2,2-dimethyl-1-oxobutoxy)-2,6-dimethyl-1,2,6,7,8,8a-hexahydronaphthalen-1-yl]-3,5-dihydroxyheptanoic acid

> <PUBCHEM_IUPAC_NAME>
7-[8-(2,2-dimethylbutanoyloxy)-2,6-dimethyl-1,2,6,7,8,8a-hexahydronaphthalen-1-yl]-3,5-dihydroxyheptanoic acid

> <PUBCHEM_IUPAC_SYSTEMATIC_NAME>
7-[8-(2,2-dimethylbutanoyloxy)-2,6-dimethyl-1,2,6,7,8,8a-hexahydronaphthalen-1-yl]-3,5-bis(oxidanyl)heptanoic acid

> <PUBCHEM_IUPAC_TRADITIONAL_NAME>
7-[8-(2,2-dimethylbutanoyloxy)-2,6-dimethyl-1,2,6,7,8,8a-hexahydronaphthalen-1-yl]-3,5-dihydroxy-enanthic acid

> <PUBCHEM_IUPAC_INCHI>
InChI=1S/C25H40O6/c1-6-25(4,5)24(30)31-21-12-15(2)11-17-8-7-16(3)20(23(17)21)10-9-18(26)13-19(27)14-22(28)29/h7-8,11,15-16,18-21,23,26-27H,6,9-10,12-14H2,1-5H3,(H,28,29)

> <PUBCHEM_IUPAC_INCHIKEY>
XWLXKKNPFMNSFA-UHFFFAOYSA-N

> <PUBCHEM_XLOGP3>
3.9

> <PUBCHEM_EXACT_MASS>
436.282489

> <PUBCHEM_MOLECULAR_FORMULA>
C25H40O6

> <PUBCHEM_MOLECULAR_WEIGHT>
436.5815

> <PUBCHEM_OPENEYE_CAN_SMILES>
CCC(C)(C)C(=O)OC1CC(C=C2C1C(C(C=C2)C)CCC(CC(CC(=O)O)O)O)C

> <PUBCHEM_OPENEYE_ISO_SMILES>
CCC(C)(C)C(=O)OC1CC(C=C2C1C(C(C=C2)C)CCC(CC(CC(=O)O)O)O)C

> <PUBCHEM_CACTVS_TPSA>
104

> <PUBCHEM_MONOISOTOPIC_WEIGHT>
436.282489

> <PUBCHEM_TOTAL_CHARGE>
0

> <PUBCHEM_HEAVY_ATOM_COUNT>
31

> <PUBCHEM_ATOM_DEF_STEREO_COUNT>
0

> <PUBCHEM_ATOM_UDEF_STEREO_COUNT>
7

> <PUBCHEM_BOND_DEF_STEREO_COUNT>
0

> <PUBCHEM_BOND_UDEF_STEREO_COUNT>
0

> <PUBCHEM_ISOTOPIC_ATOM_COUNT>
0

> <PUBCHEM_COMPONENT_COUNT>
1

> <PUBCHEM_CACTVS_TAUTO_COUNT>
1

> <PUBCHEM_COORDINATE_TYPE>
1
5
255

> <PUBCHEM_BONDANNOTATIONS>
10  35  3
14  40  3
21  52  3
25  55  3
7  32  3
8  33  3
9  34  3

$$$$

