586278
  -OEChem-06241222462D

 40 41  0     0  0  0  0  0  0999 V2000
    5.1350    0.6550    0.0000 S   0  0  0  0  0  0  0  0  0  0  0  0
    7.7331    4.1550    0.0000 O   0  0  0  0  0  0  0  0  0  0  0  0
    3.4030   -0.3450    0.0000 O   0  0  0  0  0  0  0  0  0  0  0  0
    2.5369   -3.8450    0.0000 O   0  0  0  0  0  0  0  0  0  0  0  0
    4.2690   -4.8450    0.0000 O   0  0  0  0  0  0  0  0  0  0  0  0
    6.8671    0.6550    0.0000 N   0  0  0  0  0  0  0  0  0  0  0  0
    4.2690    3.1550    0.0000 N   0  0  0  0  0  0  0  0  0  0  0  0
    6.8671    2.6550    0.0000 C   0  0  0  0  0  0  0  0  0  0  0  0
    6.0010    2.1550    0.0000 C   0  0  0  0  0  0  0  0  0  0  0  0
    6.0010    1.1550    0.0000 C   0  0  0  0  0  0  0  0  0  0  0  0
    7.7331    2.1550    0.0000 C   0  0  0  0  0  0  0  0  0  0  0  0
    6.8671    3.6550    0.0000 C   0  0  0  0  0  0  0  0  0  0  0  0
    7.7331    1.1550    0.0000 C   0  0  0  0  0  0  0  0  0  0  0  0
    5.1350   -0.3450    0.0000 C   0  0  0  0  0  0  0  0  0  0  0  0
    4.2690   -1.8450    0.0000 C   0  0  0  0  0  0  0  0  0  0  0  0
    4.2690   -0.8450    0.0000 C   0  0  0  0  0  0  0  0  0  0  0  0
    8.5991    0.6550    0.0000 C   0  0  0  0  0  0  0  0  0  0  0  0
    3.4030   -2.3450    0.0000 C   0  0  0  0  0  0  0  0  0  0  0  0
    5.1350   -2.3450    0.0000 C   0  0  0  0  0  0  0  0  0  0  0  0
    3.4030   -3.3450    0.0000 C   0  0  0  0  0  0  0  0  0  0  0  0
    5.1350   -3.3450    0.0000 C   0  0  0  0  0  0  0  0  0  0  0  0
    4.2690   -3.8450    0.0000 C   0  0  0  0  0  0  0  0  0  0  0  0
    5.1350    2.6550    0.0000 C   0  0  0  0  0  0  0  0  0  0  0  0
    7.7331    5.1550    0.0000 C   0  0  0  0  0  0  0  0  0  0  0  0
    8.2700    2.4650    0.0000 H   0  0  0  0  0  0  0  0  0  0  0  0
    6.6550    4.2376    0.0000 H   0  0  0  0  0  0  0  0  0  0  0  0
    6.2565    3.5473    0.0000 H   0  0  0  0  0  0  0  0  0  0  0  0
    5.3471   -0.9276    0.0000 H   0  0  0  0  0  0  0  0  0  0  0  0
    5.7456   -0.2373    0.0000 H   0  0  0  0  0  0  0  0  0  0  0  0
    8.2891    0.1181    0.0000 H   0  0  0  0  0  0  0  0  0  0  0  0
    9.1360    0.3450    0.0000 H   0  0  0  0  0  0  0  0  0  0  0  0
    8.9091    1.1919    0.0000 H   0  0  0  0  0  0  0  0  0  0  0  0
    2.8660   -2.0350    0.0000 H   0  0  0  0  0  0  0  0  0  0  0  0
    5.6720   -2.0350    0.0000 H   0  0  0  0  0  0  0  0  0  0  0  0
    5.6720   -3.6550    0.0000 H   0  0  0  0  0  0  0  0  0  0  0  0
    8.3531    5.1550    0.0000 H   0  0  0  0  0  0  0  0  0  0  0  0
    7.7331    5.7750    0.0000 H   0  0  0  0  0  0  0  0  0  0  0  0
    7.1131    5.1550    0.0000 H   0  0  0  0  0  0  0  0  0  0  0  0
    2.0000   -3.5350    0.0000 H   0  0  0  0  0  0  0  0  0  0  0  0
    4.8059   -5.1550    0.0000 H   0  0  0  0  0  0  0  0  0  0  0  0
  1 10  1  0  0  0  0
  1 14  1  0  0  0  0
  2 12  1  0  0  0  0
  2 24  1  0  0  0  0
  3 16  2  0  0  0  0
  4 20  1  0  0  0  0
  4 39  1  0  0  0  0
  5 22  1  0  0  0  0
  5 40  1  0  0  0  0
  6 10  2  0  0  0  0
  6 13  1  0  0  0  0
  7 23  3  0  0  0  0
  8  9  2  0  0  0  0
  8 11  1  0  0  0  0
  8 12  1  0  0  0  0
  9 10  1  0  0  0  0
  9 23  1  0  0  0  0
 11 13  2  0  0  0  0
 11 25  1  0  0  0  0
 12 26  1  0  0  0  0
 12 27  1  0  0  0  0
 13 17  1  0  0  0  0
 14 16  1  0  0  0  0
 14 28  1  0  0  0  0
 14 29  1  0  0  0  0
 15 16  1  0  0  0  0
 15 18  2  0  0  0  0
 15 19  1  0  0  0  0
 17 30  1  0  0  0  0
 17 31  1  0  0  0  0
 17 32  1  0  0  0  0
 18 20  1  0  0  0  0
 18 33  1  0  0  0  0
 19 21  2  0  0  0  0
 19 34  1  0  0  0  0
 20 22  2  0  0  0  0
 21 22  1  0  0  0  0
 21 35  1  0  0  0  0
 24 36  1  0  0  0  0
 24 37  1  0  0  0  0
 24 38  1  0  0  0  0
M  END
> <PUBCHEM_COMPOUND_CID>
586278

> <PUBCHEM_COMPOUND_CANONICALIZED>
1

> <PUBCHEM_CACTVS_COMPLEXITY>
481

> <PUBCHEM_CACTVS_HBOND_ACCEPTOR>
7

> <PUBCHEM_CACTVS_HBOND_DONOR>
2

> <PUBCHEM_CACTVS_ROTATABLE_BOND>
6

> <PUBCHEM_CACTVS_SUBSKEYS>
AAADceB7OABAAAAAAAAAAAAAAAAAAAAAAAA8QAAAAAAAAAABwAAAHgQACAAADAyl3gKyh5IIFgi4B6RyRACi0CBlKjAImDE27NgJpnLitZuEcQlkwBHp+Y+6zLDOoAABAAAAQABAAAIAAACAAAAAAAAAAA==

> <PUBCHEM_IUPAC_OPENEYE_NAME>
2-[2-(3,4-dihydroxyphenyl)-2-oxo-ethyl]sulfanyl-4-(methoxymethyl)-6-methyl-pyridine-3-carbonitrile

> <PUBCHEM_IUPAC_CAS_NAME>
2-[[2-(3,4-dihydroxyphenyl)-2-oxoethyl]thio]-4-(methoxymethyl)-6-methyl-3-pyridinecarbonitrile

> <PUBCHEM_IUPAC_NAME>
2-[2-(3,4-dihydroxyphenyl)-2-oxoethyl]sulfanyl-4-(methoxymethyl)-6-methylpyridine-3-carbonitrile

> <PUBCHEM_IUPAC_SYSTEMATIC_NAME>
2-[2-[3,4-bis(oxidanyl)phenyl]-2-oxidanylidene-ethyl]sulfanyl-4-(methoxymethyl)-6-methyl-pyridine-3-carbonitrile

> <PUBCHEM_IUPAC_TRADITIONAL_NAME>
2-[[2-(3,4-dihydroxyphenyl)-2-keto-ethyl]thio]-4-(methoxymethyl)-6-methyl-nicotinonitrile

> <PUBCHEM_IUPAC_INCHI>
InChI=1S/C17H16N2O4S/c1-10-5-12(8-23-2)13(7-18)17(19-10)24-9-16(22)11-3-4-14(20)15(21)6-11/h3-6,20-21H,8-9H2,1-2H3

> <PUBCHEM_IUPAC_INCHIKEY>
MSOUCVXDWWIFTI-UHFFFAOYSA-N

> <PUBCHEM_XLOGP3_AA>
2.2

> <PUBCHEM_EXACT_MASS>
344.083078

> <PUBCHEM_MOLECULAR_FORMULA>
C17H16N2O4S

> <PUBCHEM_MOLECULAR_WEIGHT>
344.38494

> <PUBCHEM_OPENEYE_CAN_SMILES>
CC1=NC(=C(C(=C1)COC)C#N)SCC(=O)C2=CC(=C(C=C2)O)O

> <PUBCHEM_OPENEYE_ISO_SMILES>
CC1=NC(=C(C(=C1)COC)C#N)SCC(=O)C2=CC(=C(C=C2)O)O

> <PUBCHEM_CACTVS_TPSA>
129

> <PUBCHEM_MONOISOTOPIC_WEIGHT>
344.083078

> <PUBCHEM_TOTAL_CHARGE>
0

> <PUBCHEM_HEAVY_ATOM_COUNT>
24

> <PUBCHEM_ATOM_DEF_STEREO_COUNT>
0

> <PUBCHEM_ATOM_UDEF_STEREO_COUNT>
0

> <PUBCHEM_BOND_DEF_STEREO_COUNT>
0

> <PUBCHEM_BOND_UDEF_STEREO_COUNT>
0

> <PUBCHEM_ISOTOPIC_ATOM_COUNT>
0

> <PUBCHEM_COMPONENT_COUNT>
1

> <PUBCHEM_CACTVS_TAUTO_COUNT>
22

> <PUBCHEM_COORDINATE_TYPE>
1
5
255

> <PUBCHEM_BONDANNOTATIONS>
11  13  8
15  18  8
15  19  8
18  20  8
19  21  8
20  22  8
21  22  8
6  10  8
6  13  8
8  11  8
8  9  8
9  10  8

$$$$

