11743
  -OEChem-06261206042D

 26 26  0     0  0  0  0  0  0999 V2000
    3.0000    1.2500    0.0000 S   0  0  0  0  0  0  0  0  0  0  0  0
    4.0000    1.2500    0.0000 O   0  0  0  0  0  0  0  0  0  0  0  0
    2.0000    1.2500    0.0000 O   0  0  0  0  0  0  0  0  0  0  0  0
    3.0000    2.2500    0.0000 N   0  0  0  0  0  0  0  0  0  0  0  0
    3.0000    0.2500    0.0000 C   0  0  0  0  0  0  0  0  0  0  0  0
    2.1340   -0.2500    0.0000 C   0  0  0  0  0  0  0  0  0  0  0  0
    3.8660   -0.2500    0.0000 C   0  0  0  0  0  0  0  0  0  0  0  0
    3.0000   -1.7500    0.0000 C   0  0  0  0  0  0  0  0  0  0  0  0
    2.1340   -1.2500    0.0000 C   0  0  0  0  0  0  0  0  0  0  0  0
    3.8660   -1.2500    0.0000 C   0  0  0  0  0  0  0  0  0  0  0  0
    3.8660    2.7500    0.0000 C   0  0  0  0  0  0  0  0  0  0  0  0
    2.1340    2.7500    0.0000 C   0  0  0  0  0  0  0  0  0  0  0  0
    3.0000   -2.7500    0.0000 C   0  0  0  0  0  0  0  0  0  0  0  0
    1.5970    0.0600    0.0000 H   0  0  0  0  0  0  0  0  0  0  0  0
    4.4030    0.0600    0.0000 H   0  0  0  0  0  0  0  0  0  0  0  0
    4.1760    2.2131    0.0000 H   0  0  0  0  0  0  0  0  0  0  0  0
    4.4030    3.0600    0.0000 H   0  0  0  0  0  0  0  0  0  0  0  0
    3.5560    3.2869    0.0000 H   0  0  0  0  0  0  0  0  0  0  0  0
    2.4440    3.2869    0.0000 H   0  0  0  0  0  0  0  0  0  0  0  0
    1.5970    3.0600    0.0000 H   0  0  0  0  0  0  0  0  0  0  0  0
    1.8240    2.2131    0.0000 H   0  0  0  0  0  0  0  0  0  0  0  0
    1.5970   -1.5600    0.0000 H   0  0  0  0  0  0  0  0  0  0  0  0
    4.4030   -1.5600    0.0000 H   0  0  0  0  0  0  0  0  0  0  0  0
    2.3800   -2.7500    0.0000 H   0  0  0  0  0  0  0  0  0  0  0  0
    3.0000   -3.3700    0.0000 H   0  0  0  0  0  0  0  0  0  0  0  0
    3.6200   -2.7500    0.0000 H   0  0  0  0  0  0  0  0  0  0  0  0
  1  2  2  0  0  0  0
  1  3  2  0  0  0  0
  1  4  1  0  0  0  0
  1  5  1  0  0  0  0
  4 11  1  0  0  0  0
  4 12  1  0  0  0  0
  5  6  2  0  0  0  0
  5  7  1  0  0  0  0
  6  9  1  0  0  0  0
  6 14  1  0  0  0  0
  7 10  2  0  0  0  0
  7 15  1  0  0  0  0
  8  9  2  0  0  0  0
  8 10  1  0  0  0  0
  8 13  1  0  0  0  0
  9 22  1  0  0  0  0
 10 23  1  0  0  0  0
 11 16  1  0  0  0  0
 11 17  1  0  0  0  0
 11 18  1  0  0  0  0
 12 19  1  0  0  0  0
 12 20  1  0  0  0  0
 12 21  1  0  0  0  0
 13 24  1  0  0  0  0
 13 25  1  0  0  0  0
 13 26  1  0  0  0  0
M  END
> <PUBCHEM_COMPOUND_CID>
11743

> <PUBCHEM_COMPOUND_CANONICALIZED>
1

> <PUBCHEM_CACTVS_COMPLEXITY>
245

> <PUBCHEM_CACTVS_HBOND_ACCEPTOR>
3

> <PUBCHEM_CACTVS_HBOND_DONOR>
0

> <PUBCHEM_CACTVS_ROTATABLE_BOND>
2

> <PUBCHEM_CACTVS_SUBSKEYS>
AAADccByMABAAAAAAAAAAAAAAAAAAAAAAAAwAAAAAAAAAAABAAAAHAQAQAAADACAWAQyAYIAAAKAAiBCAHBCABAgAAAIiBgIAIgIICKAERCAIAAggAAIiAcAgAAOEAAAAAAAAAAgAAAAAAAAAAAAAAAAAA==

> <PUBCHEM_IUPAC_OPENEYE_NAME>
N,N,4-trimethylbenzenesulfonamide

> <PUBCHEM_IUPAC_CAS_NAME>
N,N,4-trimethylbenzenesulfonamide

> <PUBCHEM_IUPAC_NAME>
N,N,4-trimethylbenzenesulfonamide

> <PUBCHEM_IUPAC_SYSTEMATIC_NAME>
N,N,4-trimethylbenzenesulfonamide

> <PUBCHEM_IUPAC_TRADITIONAL_NAME>
N,N,4-trimethylbenzenesulfonamide

> <PUBCHEM_IUPAC_INCHI>
InChI=1S/C9H13NO2S/c1-8-4-6-9(7-5-8)13(11,12)10(2)3/h4-7H,1-3H3

> <PUBCHEM_IUPAC_INCHIKEY>
WZKOKGOAHBIPCI-UHFFFAOYSA-N

> <PUBCHEM_XLOGP3>
2.9

> <PUBCHEM_EXACT_MASS>
199.0667

> <PUBCHEM_MOLECULAR_FORMULA>
C9H13NO2S

> <PUBCHEM_MOLECULAR_WEIGHT>
199.27002

> <PUBCHEM_OPENEYE_CAN_SMILES>
CC1=CC=C(C=C1)S(=O)(=O)N(C)C

> <PUBCHEM_OPENEYE_ISO_SMILES>
CC1=CC=C(C=C1)S(=O)(=O)N(C)C

> <PUBCHEM_CACTVS_TPSA>
45.8

> <PUBCHEM_MONOISOTOPIC_WEIGHT>
199.0667

> <PUBCHEM_TOTAL_CHARGE>
0

> <PUBCHEM_HEAVY_ATOM_COUNT>
13

> <PUBCHEM_ATOM_DEF_STEREO_COUNT>
0

> <PUBCHEM_ATOM_UDEF_STEREO_COUNT>
0

> <PUBCHEM_BOND_DEF_STEREO_COUNT>
0

> <PUBCHEM_BOND_UDEF_STEREO_COUNT>
0

> <PUBCHEM_ISOTOPIC_ATOM_COUNT>
0

> <PUBCHEM_COMPONENT_COUNT>
1

> <PUBCHEM_CACTVS_TAUTO_COUNT>
1

> <PUBCHEM_COORDINATE_TYPE>
1
5
255

> <PUBCHEM_BONDANNOTATIONS>
5  6  8
5  7  8
6  9  8
7  10  8
8  10  8
8  9  8

$$$$

