47205758
  -OEChem-06241223002D

 27 28  0     0  0  0  0  0  0999 V2000
    3.6180   -2.8881    0.0000 S   0  0  0  0  0  0  0  0  0  0  0  0
    5.0724    0.4900    0.0000 O   0  0  0  0  0  0  0  0  0  0  0  0
    3.6711    1.5080    0.0000 N   0  0  0  0  0  0  0  0  0  0  0  0
    4.7589    3.8559    0.0000 N   0  0  0  0  0  0  0  0  0  0  0  0
    5.5679    3.2681    0.0000 N   0  0  0  0  0  0  0  0  0  0  0  0
    3.3090   -1.9371    0.0000 C   0  0  0  0  0  0  0  0  0  0  0  0
    2.8090   -3.4759    0.0000 C   0  0  0  0  0  0  0  0  0  0  0  0
    2.3090   -1.9371    0.0000 C   0  0  0  0  0  0  0  0  0  0  0  0
    2.0000   -2.8881    0.0000 C   0  0  0  0  0  0  0  0  0  0  0  0
    4.2589    2.3171    0.0000 C   0  0  0  0  0  0  0  0  0  0  0  0
    3.8968   -1.1280    0.0000 C   0  0  0  0  0  0  0  0  0  0  0  0
    3.4901   -0.2145    0.0000 C   0  0  0  0  0  0  0  0  0  0  0  0
    2.8090   -4.4759    0.0000 C   0  0  0  0  0  0  0  0  0  0  0  0
    4.0778    0.5945    0.0000 C   0  0  0  0  0  0  0  0  0  0  0  0
    3.9499    3.2681    0.0000 C   0  0  0  0  0  0  0  0  0  0  0  0
    5.2589    2.3171    0.0000 C   0  0  0  0  0  0  0  0  0  0  0  0
    1.9446   -1.4355    0.0000 H   0  0  0  0  0  0  0  0  0  0  0  0
    1.4103   -3.0797    0.0000 H   0  0  0  0  0  0  0  0  0  0  0  0
    4.5134   -1.1929    0.0000 H   0  0  0  0  0  0  0  0  0  0  0  0
    3.0545    1.5729    0.0000 H   0  0  0  0  0  0  0  0  0  0  0  0
    2.8735   -0.1497    0.0000 H   0  0  0  0  0  0  0  0  0  0  0  0
    2.1890   -4.4759    0.0000 H   0  0  0  0  0  0  0  0  0  0  0  0
    2.8090   -5.0959    0.0000 H   0  0  0  0  0  0  0  0  0  0  0  0
    3.4290   -4.4759    0.0000 H   0  0  0  0  0  0  0  0  0  0  0  0
    3.3602    3.4597    0.0000 H   0  0  0  0  0  0  0  0  0  0  0  0
    5.6233    1.8155    0.0000 H   0  0  0  0  0  0  0  0  0  0  0  0
    4.7589    4.4759    0.0000 H   0  0  0  0  0  0  0  0  0  0  0  0
  1  6  1  0  0  0  0
  1  7  1  0  0  0  0
  2 14  2  0  0  0  0
  3 10  1  0  0  0  0
  3 14  1  0  0  0  0
  3 20  1  0  0  0  0
  4  5  1  0  0  0  0
  4 15  1  0  0  0  0
  4 27  1  0  0  0  0
  5 16  2  0  0  0  0
  6  8  2  0  0  0  0
  6 11  1  0  0  0  0
  7  9  2  0  0  0  0
  7 13  1  0  0  0  0
  8  9  1  0  0  0  0
  8 17  1  0  0  0  0
  9 18  1  0  0  0  0
 10 15  2  0  0  0  0
 10 16  1  0  0  0  0
 11 12  2  3  0  0  0
 11 19  1  0  0  0  0
 12 14  1  0  0  0  0
 12 21  1  0  0  0  0
 13 22  1  0  0  0  0
 13 23  1  0  0  0  0
 13 24  1  0  0  0  0
 15 25  1  0  0  0  0
 16 26  1  0  0  0  0
M  END
> <PUBCHEM_COMPOUND_CID>
47205758

> <PUBCHEM_COMPOUND_CANONICALIZED>
1

> <PUBCHEM_CACTVS_COMPLEXITY>
282

> <PUBCHEM_CACTVS_HBOND_ACCEPTOR>
3

> <PUBCHEM_CACTVS_HBOND_DONOR>
2

> <PUBCHEM_CACTVS_ROTATABLE_BOND>
3

> <PUBCHEM_CACTVS_SUBSKEYS>
AAADccBzIABAAAAAAAAAAAAAAAAAAWJAAAAAAAAAAAAAAAAB4AAAHgQYAAAACAjB0gQ+wZLjAAiuADV3UACTBIAhmhBYubggdNgIYKKgUVCQhAAgnACoiYcAAAAAAAAAAAAAAAAAAAAAAAAAAAAAAAAAAA==

> <PUBCHEM_IUPAC_OPENEYE_NAME>
3-(5-methyl-2-thienyl)-N-(1H-pyrazol-4-yl)prop-2-enamide

> <PUBCHEM_IUPAC_CAS_NAME>
3-(5-methyl-2-thiophenyl)-N-(1H-pyrazol-4-yl)-2-propenamide

> <PUBCHEM_IUPAC_NAME>
3-(5-methylthiophen-2-yl)-N-(1H-pyrazol-4-yl)prop-2-enamide

> <PUBCHEM_IUPAC_SYSTEMATIC_NAME>
3-(5-methylthiophen-2-yl)-N-(1H-pyrazol-4-yl)prop-2-enamide

> <PUBCHEM_IUPAC_TRADITIONAL_NAME>
3-(5-methyl-2-thienyl)-N-(1H-pyrazol-4-yl)acrylamide

> <PUBCHEM_IUPAC_INCHI>
InChI=1S/C11H11N3OS/c1-8-2-3-10(16-8)4-5-11(15)14-9-6-12-13-7-9/h2-7H,1H3,(H,12,13)(H,14,15)

> <PUBCHEM_IUPAC_INCHIKEY>
WFRLYSJAHXMNQC-UHFFFAOYSA-N

> <PUBCHEM_XLOGP3_AA>
1.6

> <PUBCHEM_EXACT_MASS>
233.062283

> <PUBCHEM_MOLECULAR_FORMULA>
C11H11N3OS

> <PUBCHEM_MOLECULAR_WEIGHT>
233.28954

> <PUBCHEM_OPENEYE_CAN_SMILES>
CC1=CC=C(S1)C=CC(=O)NC2=CNN=C2

> <PUBCHEM_OPENEYE_ISO_SMILES>
CC1=CC=C(S1)C=CC(=O)NC2=CNN=C2

> <PUBCHEM_CACTVS_TPSA>
86

> <PUBCHEM_MONOISOTOPIC_WEIGHT>
233.062283

> <PUBCHEM_TOTAL_CHARGE>
0

> <PUBCHEM_HEAVY_ATOM_COUNT>
16

> <PUBCHEM_ATOM_DEF_STEREO_COUNT>
0

> <PUBCHEM_ATOM_UDEF_STEREO_COUNT>
0

> <PUBCHEM_BOND_DEF_STEREO_COUNT>
0

> <PUBCHEM_BOND_UDEF_STEREO_COUNT>
1

> <PUBCHEM_ISOTOPIC_ATOM_COUNT>
0

> <PUBCHEM_COMPONENT_COUNT>
1

> <PUBCHEM_CACTVS_TAUTO_COUNT>
4

> <PUBCHEM_COORDINATE_TYPE>
1
5
255

> <PUBCHEM_BONDANNOTATIONS>
1  6  8
1  7  8
10  15  8
10  16  8
11  12  1
4  15  8
4  5  8
5  16  8
6  8  8
7  9  8
8  9  8

$$$$

