47205016
  -OEChem-06241222572D

 37 38  0     0  0  0  0  0  0999 V2000
    2.8660    0.2953    0.0000 O   0  0  0  0  0  0  0  0  0  0  0  0
    2.8660   -3.7047    0.0000 O   0  0  0  0  0  0  0  0  0  0  0  0
    2.8660    2.2953    0.0000 O   0  0  0  0  0  0  0  0  0  0  0  0
    4.5981    2.2953    0.0000 N   0  0  0  0  0  0  0  0  0  0  0  0
    5.5686    4.7898    0.0000 N   0  0  0  0  0  0  0  0  0  0  0  0
    6.5468    4.9977    0.0000 N   0  0  0  0  0  0  0  0  0  0  0  0
    4.5981    3.2953    0.0000 C   0  0  0  0  0  0  0  0  0  0  0  0
    5.4641    3.7953    0.0000 C   0  0  0  0  0  0  0  0  0  0  0  0
    3.7320    0.7953    0.0000 C   0  0  0  0  0  0  0  0  0  0  0  0
    2.8660   -0.7047    0.0000 C   0  0  0  0  0  0  0  0  0  0  0  0
    3.7320    1.7953    0.0000 C   0  0  0  0  0  0  0  0  0  0  0  0
    2.8660   -2.7047    0.0000 C   0  0  0  0  0  0  0  0  0  0  0  0
    6.3776    3.3886    0.0000 C   0  0  0  0  0  0  0  0  0  0  0  0
    2.0000   -1.2047    0.0000 C   0  0  0  0  0  0  0  0  0  0  0  0
    3.7320   -1.2047    0.0000 C   0  0  0  0  0  0  0  0  0  0  0  0
    2.0000   -2.2047    0.0000 C   0  0  0  0  0  0  0  0  0  0  0  0
    3.7320   -2.2047    0.0000 C   0  0  0  0  0  0  0  0  0  0  0  0
    7.0468    4.1317    0.0000 C   0  0  0  0  0  0  0  0  0  0  0  0
    2.0000   -4.2047    0.0000 C   0  0  0  0  0  0  0  0  0  0  0  0
    2.0000   -5.2047    0.0000 C   0  0  0  0  0  0  0  0  0  0  0  0
    4.3860    3.8779    0.0000 H   0  0  0  0  0  0  0  0  0  0  0  0
    3.9875    3.1876    0.0000 H   0  0  0  0  0  0  0  0  0  0  0  0
    5.1350    1.9853    0.0000 H   0  0  0  0  0  0  0  0  0  0  0  0
    3.9441    0.2127    0.0000 H   0  0  0  0  0  0  0  0  0  0  0  0
    4.3426    0.9030    0.0000 H   0  0  0  0  0  0  0  0  0  0  0  0
    6.5066    2.7821    0.0000 H   0  0  0  0  0  0  0  0  0  0  0  0
    1.4631   -0.8947    0.0000 H   0  0  0  0  0  0  0  0  0  0  0  0
    4.2690   -0.8947    0.0000 H   0  0  0  0  0  0  0  0  0  0  0  0
    5.1079    5.2047    0.0000 H   0  0  0  0  0  0  0  0  0  0  0  0
    1.4631   -2.5147    0.0000 H   0  0  0  0  0  0  0  0  0  0  0  0
    4.2690   -2.5147    0.0000 H   0  0  0  0  0  0  0  0  0  0  0  0
    7.6634    4.0669    0.0000 H   0  0  0  0  0  0  0  0  0  0  0  0
    1.7880   -3.6221    0.0000 H   0  0  0  0  0  0  0  0  0  0  0  0
    1.3894   -4.3124    0.0000 H   0  0  0  0  0  0  0  0  0  0  0  0
    1.3800   -5.2047    0.0000 H   0  0  0  0  0  0  0  0  0  0  0  0
    2.0000   -5.8247    0.0000 H   0  0  0  0  0  0  0  0  0  0  0  0
    2.6200   -5.2047    0.0000 H   0  0  0  0  0  0  0  0  0  0  0  0
  1  9  1  0  0  0  0
  1 10  1  0  0  0  0
  2 12  1  0  0  0  0
  2 19  1  0  0  0  0
  3 11  2  0  0  0  0
  4  7  1  0  0  0  0
  4 11  1  0  0  0  0
  4 23  1  0  0  0  0
  5  6  1  0  0  0  0
  5  8  1  0  0  0  0
  5 29  1  0  0  0  0
  6 18  2  0  0  0  0
  7  8  1  0  0  0  0
  7 21  1  0  0  0  0
  7 22  1  0  0  0  0
  8 13  2  0  0  0  0
  9 11  1  0  0  0  0
  9 24  1  0  0  0  0
  9 25  1  0  0  0  0
 10 14  2  0  0  0  0
 10 15  1  0  0  0  0
 12 16  2  0  0  0  0
 12 17  1  0  0  0  0
 13 18  1  0  0  0  0
 13 26  1  0  0  0  0
 14 16  1  0  0  0  0
 14 27  1  0  0  0  0
 15 17  2  0  0  0  0
 15 28  1  0  0  0  0
 16 30  1  0  0  0  0
 17 31  1  0  0  0  0
 18 32  1  0  0  0  0
 19 20  1  0  0  0  0
 19 33  1  0  0  0  0
 19 34  1  0  0  0  0
 20 35  1  0  0  0  0
 20 36  1  0  0  0  0
 20 37  1  0  0  0  0
M  END
> <PUBCHEM_COMPOUND_CID>
47205016

> <PUBCHEM_COMPOUND_CANONICALIZED>
1

> <PUBCHEM_CACTVS_COMPLEXITY>
293

> <PUBCHEM_CACTVS_HBOND_ACCEPTOR>
4

> <PUBCHEM_CACTVS_HBOND_DONOR>
2

> <PUBCHEM_CACTVS_ROTATABLE_BOND>
7

> <PUBCHEM_CACTVS_SUBSKEYS>
AAADceBzMAAAAAAAAAAAAAAAAAAAAWAAAAAwAAAAAAAAAAABwAAAHgAYAAAACAzhlgY+hpLjBACqATV3UAKSDAAgogAYuaB+bJgOZqKE8d+XvCjk3hGY6AfAQAAAAQAAAAAAAAACAAAAAAAAAAAAAAAAAA==

> <PUBCHEM_IUPAC_OPENEYE_NAME>
2-(4-ethoxyphenoxy)-N-(1H-pyrazol-5-ylmethyl)acetamide

> <PUBCHEM_IUPAC_CAS_NAME>
2-(4-ethoxyphenoxy)-N-(1H-pyrazol-5-ylmethyl)acetamide

> <PUBCHEM_IUPAC_NAME>
2-(4-ethoxyphenoxy)-N-(1H-pyrazol-5-ylmethyl)acetamide

> <PUBCHEM_IUPAC_SYSTEMATIC_NAME>
2-(4-ethoxyphenoxy)-N-(1H-pyrazol-5-ylmethyl)ethanamide

> <PUBCHEM_IUPAC_TRADITIONAL_NAME>
2-(4-ethoxyphenoxy)-N-(1H-pyrazol-5-ylmethyl)acetamide

> <PUBCHEM_IUPAC_INCHI>
InChI=1S/C14H17N3O3/c1-2-19-12-3-5-13(6-4-12)20-10-14(18)15-9-11-7-8-16-17-11/h3-8H,2,9-10H2,1H3,(H,15,18)(H,16,17)

> <PUBCHEM_IUPAC_INCHIKEY>
OYPYNIIWQBNCRP-UHFFFAOYSA-N

> <PUBCHEM_XLOGP3_AA>
1.4

> <PUBCHEM_EXACT_MASS>
275.126991

> <PUBCHEM_MOLECULAR_FORMULA>
C14H17N3O3

> <PUBCHEM_MOLECULAR_WEIGHT>
275.30308

> <PUBCHEM_OPENEYE_CAN_SMILES>
CCOC1=CC=C(C=C1)OCC(=O)NCC2=CC=NN2

> <PUBCHEM_OPENEYE_ISO_SMILES>
CCOC1=CC=C(C=C1)OCC(=O)NCC2=CC=NN2

> <PUBCHEM_CACTVS_TPSA>
76.2

> <PUBCHEM_MONOISOTOPIC_WEIGHT>
275.126991

> <PUBCHEM_TOTAL_CHARGE>
0

> <PUBCHEM_HEAVY_ATOM_COUNT>
20

> <PUBCHEM_ATOM_DEF_STEREO_COUNT>
0

> <PUBCHEM_ATOM_UDEF_STEREO_COUNT>
0

> <PUBCHEM_BOND_DEF_STEREO_COUNT>
0

> <PUBCHEM_BOND_UDEF_STEREO_COUNT>
0

> <PUBCHEM_ISOTOPIC_ATOM_COUNT>
0

> <PUBCHEM_COMPONENT_COUNT>
1

> <PUBCHEM_CACTVS_TAUTO_COUNT>
4

> <PUBCHEM_COORDINATE_TYPE>
1
5
255

> <PUBCHEM_BONDANNOTATIONS>
10  14  8
10  15  8
12  16  8
12  17  8
13  18  8
14  16  8
15  17  8
5  6  8
5  8  8
6  18  8
8  13  8

$$$$

