13900
  -OEChem-06241222402D

 27 28  0     1  0  0  0  0  0999 V2000
    2.8660    2.6867    0.0000 Cl  0  0  0  0  0  0  0  0  0  0  0  0
    4.6783    1.4915    0.0000 N   0  0  0  0  0  0  0  0  0  0  0  0
    6.2781   -2.2253    0.0000 N   0  0  0  0  0  0  0  0  0  0  0  0
    4.9889   -1.0685    0.0000 C   0  0  0  0  0  0  0  0  0  0  0  0
    4.6783   -0.1180    0.0000 C   0  0  0  0  0  0  0  0  0  0  0  0
    5.9674   -1.2747    0.0000 C   0  0  3  0  0  0  0  0  0  0  0  0
    3.7320    0.1867    0.0000 C   0  0  0  0  0  0  0  0  0  0  0  0
    3.7320    1.1867    0.0000 C   0  0  0  0  0  0  0  0  0  0  0  0
    5.2619    0.6867    0.0000 C   0  0  0  0  0  0  0  0  0  0  0  0
    6.6353   -0.5304    0.0000 C   0  0  0  0  0  0  0  0  0  0  0  0
    2.8660   -0.3133    0.0000 C   0  0  0  0  0  0  0  0  0  0  0  0
    2.8660    1.6867    0.0000 C   0  0  0  0  0  0  0  0  0  0  0  0
    2.0000    0.1867    0.0000 C   0  0  0  0  0  0  0  0  0  0  0  0
    2.0000    1.1867    0.0000 C   0  0  0  0  0  0  0  0  0  0  0  0
    4.3751   -1.1559    0.0000 H   0  0  0  0  0  0  0  0  0  0  0  0
    4.9684   -1.6882    0.0000 H   0  0  0  0  0  0  0  0  0  0  0  0
    5.3998   -1.9074    0.0000 H   0  0  0  0  0  0  0  0  0  0  0  0
    5.8819    0.6867    0.0000 H   0  0  0  0  0  0  0  0  0  0  0  0
    4.8709    2.0808    0.0000 H   0  0  0  0  0  0  0  0  0  0  0  0
    7.0968   -0.9445    0.0000 H   0  0  0  0  0  0  0  0  0  0  0  0
    7.0494   -0.0690    0.0000 H   0  0  0  0  0  0  0  0  0  0  0  0
    6.1738   -0.1164    0.0000 H   0  0  0  0  0  0  0  0  0  0  0  0
    2.8660   -0.9333    0.0000 H   0  0  0  0  0  0  0  0  0  0  0  0
    6.8848   -2.3531    0.0000 H   0  0  0  0  0  0  0  0  0  0  0  0
    5.8640   -2.6867    0.0000 H   0  0  0  0  0  0  0  0  0  0  0  0
    1.4631   -0.1233    0.0000 H   0  0  0  0  0  0  0  0  0  0  0  0
    1.4631    1.4967    0.0000 H   0  0  0  0  0  0  0  0  0  0  0  0
  1 12  1  0  0  0  0
  2  8  1  0  0  0  0
  2  9  1  0  0  0  0
  2 19  1  0  0  0  0
  3  6  1  0  0  0  0
  3 24  1  0  0  0  0
  3 25  1  0  0  0  0
  4  5  1  0  0  0  0
  4  6  1  0  0  0  0
  4 15  1  0  0  0  0
  4 16  1  0  0  0  0
  5  7  1  0  0  0  0
  5  9  2  0  0  0  0
  6 10  1  0  0  0  0
  6 17  1  0  0  0  0
  7  8  2  0  0  0  0
  7 11  1  0  0  0  0
  8 12  1  0  0  0  0
  9 18  1  0  0  0  0
 10 20  1  0  0  0  0
 10 21  1  0  0  0  0
 10 22  1  0  0  0  0
 11 13  2  0  0  0  0
 11 23  1  0  0  0  0
 12 14  2  0  0  0  0
 13 14  1  0  0  0  0
 13 26  1  0  0  0  0
 14 27  1  0  0  0  0
M  END
> <PUBCHEM_COMPOUND_CID>
13900

> <PUBCHEM_COMPOUND_CANONICALIZED>
1

> <PUBCHEM_CACTVS_COMPLEXITY>
198

> <PUBCHEM_CACTVS_HBOND_ACCEPTOR>
1

> <PUBCHEM_CACTVS_HBOND_DONOR>
2

> <PUBCHEM_CACTVS_ROTATABLE_BOND>
2

> <PUBCHEM_CACTVS_SUBSKEYS>
AAADccBzAAAEAAAAAAAAAAAAAAAAAWAAAAAwAAAAAAAAAFgB8AAAHAIQAAAADCrBHiQ+wPLJkACgAzRnRACCgCAxBSAI2aAoRpgIIOLBk5HEIAhgkADIyAcQgMAOgAAAIAACABAAAABAAAQAIAAAAAAAAA==

> <PUBCHEM_IUPAC_OPENEYE_NAME>
1-(7-chloro-1H-indol-3-yl)propan-2-amine

> <PUBCHEM_IUPAC_CAS_NAME>
1-(7-chloro-1H-indol-3-yl)-2-propanamine

> <PUBCHEM_IUPAC_NAME>
1-(7-chloro-1H-indol-3-yl)propan-2-amine

> <PUBCHEM_IUPAC_SYSTEMATIC_NAME>
1-(7-chloranyl-1H-indol-3-yl)propan-2-amine

> <PUBCHEM_IUPAC_TRADITIONAL_NAME>
[2-(7-chloro-1H-indol-3-yl)-1-methyl-ethyl]amine

> <PUBCHEM_IUPAC_INCHI>
InChI=1S/C11H13ClN2/c1-7(13)5-8-6-14-11-9(8)3-2-4-10(11)12/h2-4,6-7,14H,5,13H2,1H3

> <PUBCHEM_IUPAC_INCHIKEY>
OHEYTFPYHFDAJQ-UHFFFAOYSA-N

> <PUBCHEM_XLOGP3_AA>
2.4

> <PUBCHEM_EXACT_MASS>
208.076726

> <PUBCHEM_MOLECULAR_FORMULA>
C11H13ClN2

> <PUBCHEM_MOLECULAR_WEIGHT>
208.68732

> <PUBCHEM_OPENEYE_CAN_SMILES>
CC(CC1=CNC2=C1C=CC=C2Cl)N

> <PUBCHEM_OPENEYE_ISO_SMILES>
CC(CC1=CNC2=C1C=CC=C2Cl)N

> <PUBCHEM_CACTVS_TPSA>
41.8

> <PUBCHEM_MONOISOTOPIC_WEIGHT>
208.076726

> <PUBCHEM_TOTAL_CHARGE>
0

> <PUBCHEM_HEAVY_ATOM_COUNT>
14

> <PUBCHEM_ATOM_DEF_STEREO_COUNT>
0

> <PUBCHEM_ATOM_UDEF_STEREO_COUNT>
1

> <PUBCHEM_BOND_DEF_STEREO_COUNT>
0

> <PUBCHEM_BOND_UDEF_STEREO_COUNT>
0

> <PUBCHEM_ISOTOPIC_ATOM_COUNT>
0

> <PUBCHEM_COMPONENT_COUNT>
1

> <PUBCHEM_CACTVS_TAUTO_COUNT>
1

> <PUBCHEM_COORDINATE_TYPE>
1
5
255

> <PUBCHEM_BONDANNOTATIONS>
11  13  8
12  14  8
13  14  8
2  8  8
2  9  8
5  7  8
5  9  8
6  17  3
7  11  8
7  8  8
8  12  8

$$$$

