10783
  -OEChem-06261204572D

 17 17  0     0  0  0  0  0  0999 V2000
    5.7281   -1.6781    0.0000 Cl  0  0  0  0  0  0  0  0  0  0  0  0
    2.8090   -0.6697    0.0000 S   0  0  0  0  0  0  0  0  0  0  0  0
    2.3090    0.8691    0.0000 N   0  0  0  0  0  0  0  0  0  0  0  0
    4.5691   -0.3910    0.0000 C   0  0  0  0  0  0  0  0  0  0  0  0
    3.6180   -0.0819    0.0000 C   0  0  0  0  0  0  0  0  0  0  0  0
    3.3090    0.8691    0.0000 C   0  0  0  0  0  0  0  0  0  0  0  0
    4.7770   -1.3691    0.0000 C   0  0  0  0  0  0  0  0  0  0  0  0
    3.8968    1.6781    0.0000 C   0  0  0  0  0  0  0  0  0  0  0  0
    2.0000   -0.0819    0.0000 C   0  0  0  0  0  0  0  0  0  0  0  0
    5.1887   -0.3693    0.0000 H   0  0  0  0  0  0  0  0  0  0  0  0
    4.6554    0.2230    0.0000 H   0  0  0  0  0  0  0  0  0  0  0  0
    4.1574   -1.3908    0.0000 H   0  0  0  0  0  0  0  0  0  0  0  0
    4.6907   -1.9831    0.0000 H   0  0  0  0  0  0  0  0  0  0  0  0
    4.3984    1.3137    0.0000 H   0  0  0  0  0  0  0  0  0  0  0  0
    4.2612    2.1797    0.0000 H   0  0  0  0  0  0  0  0  0  0  0  0
    3.3952    2.0426    0.0000 H   0  0  0  0  0  0  0  0  0  0  0  0
    1.4103   -0.2735    0.0000 H   0  0  0  0  0  0  0  0  0  0  0  0
  1  7  1  0  0  0  0
  2  5  1  0  0  0  0
  2  9  1  0  0  0  0
  3  6  1  0  0  0  0
  3  9  2  0  0  0  0
  4  5  1  0  0  0  0
  4  7  1  0  0  0  0
  4 10  1  0  0  0  0
  4 11  1  0  0  0  0
  5  6  2  0  0  0  0
  6  8  1  0  0  0  0
  7 12  1  0  0  0  0
  7 13  1  0  0  0  0
  8 14  1  0  0  0  0
  8 15  1  0  0  0  0
  8 16  1  0  0  0  0
  9 17  1  0  0  0  0
M  END
> <PUBCHEM_COMPOUND_CID>
10783

> <PUBCHEM_COMPOUND_CANONICALIZED>
1

> <PUBCHEM_CACTVS_COMPLEXITY>
89.1

> <PUBCHEM_CACTVS_HBOND_ACCEPTOR>
2

> <PUBCHEM_CACTVS_HBOND_DONOR>
0

> <PUBCHEM_CACTVS_ROTATABLE_BOND>
2

> <PUBCHEM_CACTVS_SUBSKEYS>
AAADccBiAABEAAAAAAAAAAAAAAAAAWAAAAAAAAAAAAAAAAABgAAAHAYAAAAACAuBVkSGgRIIEAikAQRhRAAA8KBxCDgAWBQ4QggAIAJhgAAEAAAgAABISAIAAAAAAAAAAAAAAAAAAAAAAAAAAAAAAAAAAA==

> <PUBCHEM_IUPAC_OPENEYE_NAME>
5-(2-chloroethyl)-4-methyl-thiazole

> <PUBCHEM_IUPAC_CAS_NAME>
5-(2-chloroethyl)-4-methylthiazole

> <PUBCHEM_IUPAC_NAME>
5-(2-chloroethyl)-4-methyl-1,3-thiazole

> <PUBCHEM_IUPAC_SYSTEMATIC_NAME>
5-(2-chloroethyl)-4-methyl-1,3-thiazole

> <PUBCHEM_IUPAC_TRADITIONAL_NAME>
5-(2-chloroethyl)-4-methyl-thiazole

> <PUBCHEM_IUPAC_INCHI>
InChI=1S/C6H8ClNS/c1-5-6(2-3-7)9-4-8-5/h4H,2-3H2,1H3

> <PUBCHEM_IUPAC_INCHIKEY>
PCLITLDOTJTVDJ-UHFFFAOYSA-N

> <PUBCHEM_XLOGP3>
2.1

> <PUBCHEM_EXACT_MASS>
161.006598

> <PUBCHEM_MOLECULAR_FORMULA>
C6H8ClNS

> <PUBCHEM_MOLECULAR_WEIGHT>
161.65242

> <PUBCHEM_OPENEYE_CAN_SMILES>
CC1=C(SC=N1)CCCl

> <PUBCHEM_OPENEYE_ISO_SMILES>
CC1=C(SC=N1)CCCl

> <PUBCHEM_CACTVS_TPSA>
41.1

> <PUBCHEM_MONOISOTOPIC_WEIGHT>
161.006598

> <PUBCHEM_TOTAL_CHARGE>
0

> <PUBCHEM_HEAVY_ATOM_COUNT>
9

> <PUBCHEM_ATOM_DEF_STEREO_COUNT>
0

> <PUBCHEM_ATOM_UDEF_STEREO_COUNT>
0

> <PUBCHEM_BOND_DEF_STEREO_COUNT>
0

> <PUBCHEM_BOND_UDEF_STEREO_COUNT>
0

> <PUBCHEM_ISOTOPIC_ATOM_COUNT>
0

> <PUBCHEM_COMPONENT_COUNT>
1

> <PUBCHEM_CACTVS_TAUTO_COUNT>
1

> <PUBCHEM_COORDINATE_TYPE>
1
5
255

> <PUBCHEM_BONDANNOTATIONS>
2  5  8
2  9  8
3  6  8
3  9  8
5  6  8

$$$$

