8318
  -OEChem-06261202442D

 72 80  0     0  0  0  0  0  0999 V2000
    5.5350    3.5461    0.0000 O   0  0  0  0  0  0  0  0  0  0  0  0
    8.9519    5.6257    0.0000 O   0  0  0  0  0  0  0  0  0  0  0  0
    4.6660    2.0000    0.0000 O   0  0  0  0  0  0  0  0  0  0  0  0
    4.6660   -2.0000    0.0000 O   0  0  0  0  0  0  0  0  0  0  0  0
    5.5350   -3.5461    0.0000 O   0  0  0  0  0  0  0  0  0  0  0  0
    8.9519   -5.6257    0.0000 O   0  0  0  0  0  0  0  0  0  0  0  0
    6.4144    2.0346    0.0000 N   0  0  0  0  0  0  0  0  0  0  0  0
    6.4144   -2.0346    0.0000 N   0  0  0  0  0  0  0  0  0  0  0  0
    5.5321    0.5000    0.0000 C   0  0  0  0  0  0  0  0  0  0  0  0
    5.5321   -0.5000    0.0000 C   0  0  0  0  0  0  0  0  0  0  0  0
    7.2666    3.5862    0.0000 C   0  0  0  0  0  0  0  0  0  0  0  0
    6.4260    1.0347    0.0000 C   0  0  0  0  0  0  0  0  0  0  0  0
    6.4260   -1.0347    0.0000 C   0  0  0  0  0  0  0  0  0  0  0  0
    8.1208    4.1061    0.0000 C   0  0  0  0  0  0  0  0  0  0  0  0
    3.8000    0.5000    0.0000 C   0  0  0  0  0  0  0  0  0  0  0  0
    3.8000   -0.5000    0.0000 C   0  0  0  0  0  0  0  0  0  0  0  0
    4.6660    1.0000    0.0000 C   0  0  0  0  0  0  0  0  0  0  0  0
    7.2746    2.5446    0.0000 C   0  0  0  0  0  0  0  0  0  0  0  0
    4.6660   -1.0000    0.0000 C   0  0  0  0  0  0  0  0  0  0  0  0
    6.3661    5.0657    0.0000 C   0  0  0  0  0  0  0  0  0  0  0  0
    6.3892    4.0660    0.0000 C   0  0  0  0  0  0  0  0  0  0  0  0
    7.2203    5.5856    0.0000 C   0  0  0  0  0  0  0  0  0  0  0  0
    7.2666   -3.5862    0.0000 C   0  0  0  0  0  0  0  0  0  0  0  0
    8.0977    5.1058    0.0000 C   0  0  0  0  0  0  0  0  0  0  0  0
    7.2746   -2.5446    0.0000 C   0  0  0  0  0  0  0  0  0  0  0  0
    8.1208   -4.1061    0.0000 C   0  0  0  0  0  0  0  0  0  0  0  0
    7.3321    0.5208    0.0000 C   0  0  0  0  0  0  0  0  0  0  0  0
    7.3321   -0.5208    0.0000 C   0  0  0  0  0  0  0  0  0  0  0  0
    6.3661   -5.0657    0.0000 C   0  0  0  0  0  0  0  0  0  0  0  0
    7.2203   -5.5856    0.0000 C   0  0  0  0  0  0  0  0  0  0  0  0
    6.3892   -4.0660    0.0000 C   0  0  0  0  0  0  0  0  0  0  0  0
    9.0423    3.6204    0.0000 C   0  0  0  0  0  0  0  0  0  0  0  0
    8.1846    2.0377    0.0000 C   0  0  0  0  0  0  0  0  0  0  0  0
    8.0977   -5.1058    0.0000 C   0  0  0  0  0  0  0  0  0  0  0  0
    2.9061    1.0347    0.0000 C   0  0  0  0  0  0  0  0  0  0  0  0
    2.9061   -1.0347    0.0000 C   0  0  0  0  0  0  0  0  0  0  0  0
    9.0744    2.5793    0.0000 C   0  0  0  0  0  0  0  0  0  0  0  0
    5.4446    5.5514    0.0000 C   0  0  0  0  0  0  0  0  0  0  0  0
    7.2123    6.6272    0.0000 C   0  0  0  0  0  0  0  0  0  0  0  0
    8.1846   -2.0377    0.0000 C   0  0  0  0  0  0  0  0  0  0  0  0
    9.0423   -3.6204    0.0000 C   0  0  0  0  0  0  0  0  0  0  0  0
    9.0744   -2.5793    0.0000 C   0  0  0  0  0  0  0  0  0  0  0  0
    2.0000    0.5208    0.0000 C   0  0  0  0  0  0  0  0  0  0  0  0
    2.0000   -0.5208    0.0000 C   0  0  0  0  0  0  0  0  0  0  0  0
    5.4446   -5.5514    0.0000 C   0  0  0  0  0  0  0  0  0  0  0  0
    7.2123   -6.6272    0.0000 C   0  0  0  0  0  0  0  0  0  0  0  0
    5.4125    6.5925    0.0000 C   0  0  0  0  0  0  0  0  0  0  0  0
    6.3023    7.1341    0.0000 C   0  0  0  0  0  0  0  0  0  0  0  0
    5.4125   -6.5925    0.0000 C   0  0  0  0  0  0  0  0  0  0  0  0
    6.3023   -7.1341    0.0000 C   0  0  0  0  0  0  0  0  0  0  0  0
    7.8678    0.8329    0.0000 H   0  0  0  0  0  0  0  0  0  0  0  0
    7.8678   -0.8329    0.0000 H   0  0  0  0  0  0  0  0  0  0  0  0
    9.5682    3.9488    0.0000 H   0  0  0  0  0  0  0  0  0  0  0  0
    8.1966    1.4178    0.0000 H   0  0  0  0  0  0  0  0  0  0  0  0
    2.9132    1.6546    0.0000 H   0  0  0  0  0  0  0  0  0  0  0  0
    2.9132   -1.6546    0.0000 H   0  0  0  0  0  0  0  0  0  0  0  0
    9.6195    2.2839    0.0000 H   0  0  0  0  0  0  0  0  0  0  0  0
    4.9188    5.2230    0.0000 H   0  0  0  0  0  0  0  0  0  0  0  0
    7.7456    6.9434    0.0000 H   0  0  0  0  0  0  0  0  0  0  0  0
    8.1966   -1.4178    0.0000 H   0  0  0  0  0  0  0  0  0  0  0  0
    9.5682   -3.9488    0.0000 H   0  0  0  0  0  0  0  0  0  0  0  0
    9.6195   -2.2839    0.0000 H   0  0  0  0  0  0  0  0  0  0  0  0
    1.4643    0.8329    0.0000 H   0  0  0  0  0  0  0  0  0  0  0  0
    1.4643   -0.8329    0.0000 H   0  0  0  0  0  0  0  0  0  0  0  0
    4.9188   -5.2230    0.0000 H   0  0  0  0  0  0  0  0  0  0  0  0
    7.7456   -6.9434    0.0000 H   0  0  0  0  0  0  0  0  0  0  0  0
    4.8674    6.8880    0.0000 H   0  0  0  0  0  0  0  0  0  0  0  0
    6.2904    7.7540    0.0000 H   0  0  0  0  0  0  0  0  0  0  0  0
    4.9910    3.8436    0.0000 H   0  0  0  0  0  0  0  0  0  0  0  0
    4.8674   -6.8880    0.0000 H   0  0  0  0  0  0  0  0  0  0  0  0
    6.2904   -7.7540    0.0000 H   0  0  0  0  0  0  0  0  0  0  0  0
    8.9376    6.2455    0.0000 H   0  0  0  0  0  0  0  0  0  0  0  0
  1 21  1  0  0  0  0
  1 69  1  0  0  0  0
  2 24  1  0  0  0  0
  2 72  1  0  0  0  0
  3 17  2  0  0  0  0
  4 19  2  0  0  0  0
  5 31  2  0  0  0  0
  6 34  2  0  0  0  0
  7 12  2  0  0  0  0
  7 18  1  0  0  0  0
  8 13  2  0  0  0  0
  8 25  1  0  0  0  0
  9 10  2  0  0  0  0
  9 12  1  0  0  0  0
  9 17  1  0  0  0  0
 10 13  1  0  0  0  0
 10 19  1  0  0  0  0
 11 14  1  0  0  0  0
 11 18  1  0  0  0  0
 11 21  2  0  0  0  0
 12 27  1  0  0  0  0
 13 28  1  0  0  0  0
 14 24  2  0  0  0  0
 14 32  1  0  0  0  0
 15 16  1  0  0  0  0
 15 17  1  0  0  0  0
 15 35  2  0  0  0  0
 16 19  1  0  0  0  0
 16 36  2  0  0  0  0
 18 33  2  0  0  0  0
 20 21  1  0  0  0  0
 20 22  1  0  0  0  0
 20 38  2  0  0  0  0
 22 24  1  0  0  0  0
 22 39  2  0  0  0  0
 23 25  1  0  0  0  0
 23 26  2  0  0  0  0
 23 31  1  0  0  0  0
 25 40  2  0  0  0  0
 26 34  1  0  0  0  0
 26 41  1  0  0  0  0
 27 28  2  0  0  0  0
 27 51  1  0  0  0  0
 28 52  1  0  0  0  0
 29 30  1  0  0  0  0
 29 31  1  0  0  0  0
 29 45  2  0  0  0  0
 30 34  1  0  0  0  0
 30 46  2  0  0  0  0
 32 37  2  0  0  0  0
 32 53  1  0  0  0  0
 33 37  1  0  0  0  0
 33 54  1  0  0  0  0
 35 43  1  0  0  0  0
 35 55  1  0  0  0  0
 36 44  1  0  0  0  0
 36 56  1  0  0  0  0
 37 57  1  0  0  0  0
 38 47  1  0  0  0  0
 38 58  1  0  0  0  0
 39 48  1  0  0  0  0
 39 59  1  0  0  0  0
 40 42  1  0  0  0  0
 40 60  1  0  0  0  0
 41 42  2  0  0  0  0
 41 61  1  0  0  0  0
 42 62  1  0  0  0  0
 43 44  2  0  0  0  0
 43 63  1  0  0  0  0
 44 64  1  0  0  0  0
 45 49  1  0  0  0  0
 45 65  1  0  0  0  0
 46 50  1  0  0  0  0
 46 66  1  0  0  0  0
 47 48  2  0  0  0  0
 47 67  1  0  0  0  0
 48 68  1  0  0  0  0
 49 50  2  0  0  0  0
 49 70  1  0  0  0  0
 50 71  1  0  0  0  0
M  END
> <PUBCHEM_COMPOUND_CID>
8318

> <PUBCHEM_COMPOUND_CANONICALIZED>
1

> <PUBCHEM_CACTVS_COMPLEXITY>
1590

> <PUBCHEM_CACTVS_HBOND_ACCEPTOR>
8

> <PUBCHEM_CACTVS_HBOND_DONOR>
2

> <PUBCHEM_CACTVS_ROTATABLE_BOND>
2

> <PUBCHEM_CACTVS_SUBSKEYS>
AAADceB/OAAAAAAAAAAAAAAAAAAAAAAAAAAwYMGDAAAAAADBVAAAHgAACAAADAyBmAAwxsIAAgCoA6RyRACCAAAkIgAIiAE0bNgIJjqClZOAcYBmwBkI2cf9yPCOwQADQAAaAACCAAaAADQAAAAAAAAAAA==

> <PUBCHEM_IUPAC_OPENEYE_NAME>
1-[(9,10-dihydroxy-1-anthryl)imino]-4-[(9,10-dioxo-1-anthryl)imino]anthracene-9,10-dione

> <PUBCHEM_IUPAC_CAS_NAME>
1-[(9,10-dihydroxy-1-anthracenyl)imino]-4-[(9,10-dioxo-1-anthracenyl)imino]anthracene-9,10-dione

> <PUBCHEM_IUPAC_NAME>
1-(9,10-dihydroxyanthracen-1-yl)imino-4-(9,10-dioxoanthracen-1-yl)iminoanthracene-9,10-dione

> <PUBCHEM_IUPAC_SYSTEMATIC_NAME>
1-[9,10-bis(oxidanyl)anthracen-1-yl]imino-4-[9,10-bis(oxidanylidene)anthracen-1-yl]imino-anthracene-9,10-dione

> <PUBCHEM_IUPAC_TRADITIONAL_NAME>
1-[(9,10-dihydroxy-1-anthryl)imino]-4-[(9,10-diketo-1-anthryl)imino]-9,10-anthraquinone

> <PUBCHEM_IUPAC_INCHI>
InChI=1S/C42H22N2O6/c45-37-21-9-1-3-11-23(21)39(47)33-27(37)15-7-17-29(33)43-31-19-20-32(36-35(31)41(49)25-13-5-6-14-26(25)42(36)50)44-30-18-8-16-28-34(30)40(48)24-12-4-2-10-22(24)38(28)46/h1-20,45,47H

> <PUBCHEM_IUPAC_INCHIKEY>
BCYDANNFWFLBDP-UHFFFAOYSA-N

> <PUBCHEM_XLOGP3_AA>
7.8

> <PUBCHEM_EXACT_MASS>
650.147786

> <PUBCHEM_MOLECULAR_FORMULA>
C42H22N2O6

> <PUBCHEM_MOLECULAR_WEIGHT>
650.63388

> <PUBCHEM_OPENEYE_CAN_SMILES>
C1=CC=C2C(=C1)C(=C3C=CC=C(C3=C2O)N=C4C=CC(=NC5=CC=CC6=C5C(=O)C7=CC=CC=C7C6=O)C8=C4C(=O)C9=CC=CC=C9C8=O)O

> <PUBCHEM_OPENEYE_ISO_SMILES>
C1=CC=C2C(=C1)C(=C3C=CC=C(C3=C2O)N=C4C=CC(=NC5=CC=CC6=C5C(=O)C7=CC=CC=C7C6=O)C8=C4C(=O)C9=CC=CC=C9C8=O)O

> <PUBCHEM_CACTVS_TPSA>
134

> <PUBCHEM_MONOISOTOPIC_WEIGHT>
650.147786

> <PUBCHEM_TOTAL_CHARGE>
0

> <PUBCHEM_HEAVY_ATOM_COUNT>
50

> <PUBCHEM_ATOM_DEF_STEREO_COUNT>
0

> <PUBCHEM_ATOM_UDEF_STEREO_COUNT>
0

> <PUBCHEM_BOND_DEF_STEREO_COUNT>
0

> <PUBCHEM_BOND_UDEF_STEREO_COUNT>
0

> <PUBCHEM_ISOTOPIC_ATOM_COUNT>
0

> <PUBCHEM_COMPONENT_COUNT>
1

> <PUBCHEM_CACTVS_TAUTO_COUNT>
20

> <PUBCHEM_COORDINATE_TYPE>
1
5
255

> <PUBCHEM_BONDANNOTATIONS>
10  13  8
10  19  8
11  14  8
11  18  8
11  21  8
12  27  8
13  28  8
14  24  8
14  32  8
15  16  8
15  17  8
15  35  8
16  19  8
16  36  8
18  33  8
20  21  8
20  22  8
20  38  8
22  24  8
22  39  8
23  25  8
23  26  8
25  40  8
26  41  8
27  28  8
29  30  8
29  45  8
30  46  8
32  37  8
33  37  8
35  43  8
36  44  8
38  47  8
39  48  8
40  42  8
41  42  8
43  44  8
45  49  8
46  50  8
47  48  8
49  50  8
9  12  8
9  17  8

$$$$

