4905
  -OEChem-06261200242D

 51 53  0     1  0  0  0  0  0999 V2000
    6.5468    1.5276    0.0000 N   0  3  0  0  0  0  0  0  0  0  0  0
    5.5686    1.3197    0.0000 C   0  0  3  0  0  0  0  0  0  0  0  0
    7.0468    0.6616    0.0000 C   0  0  0  0  0  0  0  0  0  0  0  0
    6.3776   -0.0816    0.0000 C   0  0  0  0  0  0  0  0  0  0  0  0
    5.4641    0.3251    0.0000 C   0  0  0  0  0  0  0  0  0  0  0  0
    7.4128    2.0276    0.0000 C   0  0  0  0  0  0  0  0  0  0  0  0
    6.3389    2.5057    0.0000 C   0  0  0  0  0  0  0  0  0  0  0  0
    4.8255    1.9888    0.0000 C   0  0  0  0  0  0  0  0  0  0  0  0
    4.5981   -0.1749    0.0000 C   0  0  0  0  0  0  0  0  0  0  0  0
    7.0820    3.1749    0.0000 C   0  0  0  0  0  0  0  0  0  0  0  0
    8.2788    1.5276    0.0000 C   0  0  0  0  0  0  0  0  0  0  0  0
    4.5981   -1.1749    0.0000 C   0  0  0  0  0  0  0  0  0  0  0  0
    3.7320    0.3251    0.0000 C   0  0  0  0  0  0  0  0  0  0  0  0
    3.7320    1.3251    0.0000 C   0  0  0  0  0  0  0  0  0  0  0  0
    3.7320   -1.6749    0.0000 C   0  0  0  0  0  0  0  0  0  0  0  0
    2.8660   -0.1749    0.0000 C   0  0  0  0  0  0  0  0  0  0  0  0
    5.4641   -1.6749    0.0000 C   0  0  0  0  0  0  0  0  0  0  0  0
    2.8660    1.8251    0.0000 C   0  0  0  0  0  0  0  0  0  0  0  0
    3.7320   -2.6749    0.0000 C   0  0  0  0  0  0  0  0  0  0  0  0
    2.0000    0.3251    0.0000 C   0  0  0  0  0  0  0  0  0  0  0  0
    5.4641   -2.6749    0.0000 C   0  0  0  0  0  0  0  0  0  0  0  0
    4.5981   -3.1749    0.0000 C   0  0  0  0  0  0  0  0  0  0  0  0
    2.0000    1.3251    0.0000 C   0  0  0  0  0  0  0  0  0  0  0  0
    5.7291    1.9185    0.0000 H   0  0  0  0  0  0  0  0  0  0  0  0
    7.4616    0.2008    0.0000 H   0  0  0  0  0  0  0  0  0  0  0  0
    7.5484    1.0260    0.0000 H   0  0  0  0  0  0  0  0  0  0  0  0
    6.0677   -0.6185    0.0000 H   0  0  0  0  0  0  0  0  0  0  0  0
    6.8792   -0.4460    0.0000 H   0  0  0  0  0  0  0  0  0  0  0  0
    7.8113    2.5025    0.0000 H   0  0  0  0  0  0  0  0  0  0  0  0
    7.0143    2.5025    0.0000 H   0  0  0  0  0  0  0  0  0  0  0  0
    6.0103    3.0315    0.0000 H   0  0  0  0  0  0  0  0  0  0  0  0
    5.7640    2.2735    0.0000 H   0  0  0  0  0  0  0  0  0  0  0  0
    5.2404    2.4496    0.0000 H   0  0  0  0  0  0  0  0  0  0  0  0
    4.3647    2.4037    0.0000 H   0  0  0  0  0  0  0  0  0  0  0  0
    4.4106    1.5280    0.0000 H   0  0  0  0  0  0  0  0  0  0  0  0
    7.9688    0.9906    0.0000 H   0  0  0  0  0  0  0  0  0  0  0  0
    8.8158    1.2176    0.0000 H   0  0  0  0  0  0  0  0  0  0  0  0
    7.4969    2.7141    0.0000 H   0  0  0  0  0  0  0  0  0  0  0  0
    7.5428    3.5897    0.0000 H   0  0  0  0  0  0  0  0  0  0  0  0
    6.6672    3.6356    0.0000 H   0  0  0  0  0  0  0  0  0  0  0  0
    8.5888    2.0645    0.0000 H   0  0  0  0  0  0  0  0  0  0  0  0
    4.2690    1.6351    0.0000 H   0  0  0  0  0  0  0  0  0  0  0  0
    3.1951   -1.3649    0.0000 H   0  0  0  0  0  0  0  0  0  0  0  0
    2.8660   -0.7949    0.0000 H   0  0  0  0  0  0  0  0  0  0  0  0
    6.0010   -1.3649    0.0000 H   0  0  0  0  0  0  0  0  0  0  0  0
    3.1951   -2.9849    0.0000 H   0  0  0  0  0  0  0  0  0  0  0  0
    2.8660    2.4451    0.0000 H   0  0  0  0  0  0  0  0  0  0  0  0
    6.0010   -2.9849    0.0000 H   0  0  0  0  0  0  0  0  0  0  0  0
    1.4631    0.0151    0.0000 H   0  0  0  0  0  0  0  0  0  0  0  0
    4.5981   -3.7949    0.0000 H   0  0  0  0  0  0  0  0  0  0  0  0
    1.4631    1.6351    0.0000 H   0  0  0  0  0  0  0  0  0  0  0  0
  1  2  1  0  0  0  0
  1  3  1  0  0  0  0
  1  6  1  0  0  0  0
  1  7  1  0  0  0  0
  2  5  1  0  0  0  0
  2  8  1  0  0  0  0
  2 24  1  0  0  0  0
  3  4  1  0  0  0  0
  3 25  1  0  0  0  0
  3 26  1  0  0  0  0
  4  5  1  0  0  0  0
  4 27  1  0  0  0  0
  4 28  1  0  0  0  0
  5  9  2  0  0  0  0
  6 11  1  0  0  0  0
  6 29  1  0  0  0  0
  6 30  1  0  0  0  0
  7 10  1  0  0  0  0
  7 31  1  0  0  0  0
  7 32  1  0  0  0  0
  8 33  1  0  0  0  0
  8 34  1  0  0  0  0
  8 35  1  0  0  0  0
  9 12  1  0  0  0  0
  9 13  1  0  0  0  0
 10 38  1  0  0  0  0
 10 39  1  0  0  0  0
 10 40  1  0  0  0  0
 11 36  1  0  0  0  0
 11 37  1  0  0  0  0
 11 41  1  0  0  0  0
 12 15  2  0  0  0  0
 12 17  1  0  0  0  0
 13 14  2  0  0  0  0
 13 16  1  0  0  0  0
 14 18  1  0  0  0  0
 14 42  1  0  0  0  0
 15 19  1  0  0  0  0
 15 43  1  0  0  0  0
 16 20  2  0  0  0  0
 16 44  1  0  0  0  0
 17 21  2  0  0  0  0
 17 45  1  0  0  0  0
 18 23  2  0  0  0  0
 18 47  1  0  0  0  0
 19 22  2  0  0  0  0
 19 46  1  0  0  0  0
 20 23  1  0  0  0  0
 20 49  1  0  0  0  0
 21 22  1  0  0  0  0
 21 48  1  0  0  0  0
 22 50  1  0  0  0  0
 23 51  1  0  0  0  0
M  CHG  1   1   1
M  END
> <PUBCHEM_COMPOUND_CID>
4905

> <PUBCHEM_COMPOUND_CANONICALIZED>
1

> <PUBCHEM_CACTVS_COMPLEXITY>
386

> <PUBCHEM_CACTVS_HBOND_ACCEPTOR>
0

> <PUBCHEM_CACTVS_HBOND_DONOR>
0

> <PUBCHEM_CACTVS_ROTATABLE_BOND>
4

> <PUBCHEM_CACTVS_SUBSKEYS>
AAADceB6AAAAAAAAAAAAAAAAAAAAAWAAAAAwYAAAAAAAAAABQAAAHAAAAAAADCjBGAQyAIMAAACAAiBCAACCAAAgAAAIiAAIAIgIICKAkRCEIAAggACIiAcQgMAOAAAAAAAAAAAAAAAAAAAAAAAAAAAAAA==

> <PUBCHEM_IUPAC_OPENEYE_NAME>
3-benzhydrylidene-1,1-diethyl-2-methyl-pyrrolidin-1-ium

> <PUBCHEM_IUPAC_CAS_NAME>
3-(diphenylmethylene)-1,1-diethyl-2-methylpyrrolidin-1-ium

> <PUBCHEM_IUPAC_NAME>
3-benzhydrylidene-1,1-diethyl-2-methylpyrrolidin-1-ium

> <PUBCHEM_IUPAC_SYSTEMATIC_NAME>
3-(diphenylmethylidene)-1,1-diethyl-2-methyl-pyrrolidin-1-ium

> <PUBCHEM_IUPAC_TRADITIONAL_NAME>
3-benzhydrylidene-1,1-diethyl-2-methyl-pyrrolidin-1-ium

> <PUBCHEM_IUPAC_INCHI>
InChI=1S/C22H28N/c1-4-23(5-2)17-16-21(18(23)3)22(19-12-8-6-9-13-19)20-14-10-7-11-15-20/h6-15,18H,4-5,16-17H2,1-3H3/q+1

> <PUBCHEM_IUPAC_INCHIKEY>
ZYEPZINLLPPBMI-UHFFFAOYSA-N

> <PUBCHEM_XLOGP3_AA>
5.1

> <PUBCHEM_EXACT_MASS>
306.222175

> <PUBCHEM_MOLECULAR_FORMULA>
C22H28N+

> <PUBCHEM_MOLECULAR_WEIGHT>
306.46442

> <PUBCHEM_OPENEYE_CAN_SMILES>
CC[N+]1(CCC(=C(C2=CC=CC=C2)C3=CC=CC=C3)C1C)CC

> <PUBCHEM_OPENEYE_ISO_SMILES>
CC[N+]1(CCC(=C(C2=CC=CC=C2)C3=CC=CC=C3)C1C)CC

> <PUBCHEM_CACTVS_TPSA>
0

> <PUBCHEM_MONOISOTOPIC_WEIGHT>
306.222175

> <PUBCHEM_TOTAL_CHARGE>
1

> <PUBCHEM_HEAVY_ATOM_COUNT>
23

> <PUBCHEM_ATOM_DEF_STEREO_COUNT>
0

> <PUBCHEM_ATOM_UDEF_STEREO_COUNT>
1

> <PUBCHEM_BOND_DEF_STEREO_COUNT>
0

> <PUBCHEM_BOND_UDEF_STEREO_COUNT>
0

> <PUBCHEM_ISOTOPIC_ATOM_COUNT>
0

> <PUBCHEM_COMPONENT_COUNT>
1

> <PUBCHEM_CACTVS_TAUTO_COUNT>
1

> <PUBCHEM_COORDINATE_TYPE>
1
5
255

> <PUBCHEM_BONDANNOTATIONS>
12  15  8
12  17  8
13  14  8
13  16  8
14  18  8
15  19  8
16  20  8
17  21  8
18  23  8
19  22  8
2  8  3
20  23  8
21  22  8

$$$$

