17396278
  -OEChem-06241222552D

 38 41  0     0  0  0  0  0  0999 V2000
   11.4571   -2.1559    0.0000 O   0  0  0  0  0  0  0  0  0  0  0  0
    7.0468   -1.8512    0.0000 O   0  0  0  0  0  0  0  0  0  0  0  0
    7.9128   -0.3512    0.0000 N   0  0  0  0  0  0  0  0  0  0  0  0
    3.5827    1.1488    0.0000 N   0  0  0  0  0  0  0  0  0  0  0  0
   11.4571   -0.5465    0.0000 N   0  0  0  0  0  0  0  0  0  0  0  0
    3.4782    2.1433    0.0000 N   0  0  0  0  0  0  0  0  0  0  0  0
    8.7788   -0.8512    0.0000 C   0  0  0  0  0  0  0  0  0  0  0  0
   10.5109   -0.8512    0.0000 C   0  0  0  0  0  0  0  0  0  0  0  0
   10.5109   -1.8512    0.0000 C   0  0  0  0  0  0  0  0  0  0  0  0
    9.6448   -0.3512    0.0000 C   0  0  0  0  0  0  0  0  0  0  0  0
    6.1808   -0.3512    0.0000 C   0  0  0  0  0  0  0  0  0  0  0  0
    4.4487    0.6488    0.0000 C   0  0  0  0  0  0  0  0  0  0  0  0
    8.7788   -1.8512    0.0000 C   0  0  0  0  0  0  0  0  0  0  0  0
    9.6448   -2.3512    0.0000 C   0  0  0  0  0  0  0  0  0  0  0  0
    7.0468   -0.8512    0.0000 C   0  0  0  0  0  0  0  0  0  0  0  0
    5.3147   -0.8512    0.0000 C   0  0  0  0  0  0  0  0  0  0  0  0
    6.1808    0.6488    0.0000 C   0  0  0  0  0  0  0  0  0  0  0  0
    4.4487   -0.3512    0.0000 C   0  0  0  0  0  0  0  0  0  0  0  0
    5.3147    1.1488    0.0000 C   0  0  0  0  0  0  0  0  0  0  0  0
   12.0407   -1.3512    0.0000 C   0  0  0  0  0  0  0  0  0  0  0  0
    2.6691    0.7420    0.0000 C   0  0  0  0  0  0  0  0  0  0  0  0
   13.0407   -1.3512    0.0000 C   0  0  0  0  0  0  0  0  0  0  0  0
    2.0000    1.4852    0.0000 C   0  0  0  0  0  0  0  0  0  0  0  0
    2.5000    2.3512    0.0000 C   0  0  0  0  0  0  0  0  0  0  0  0
    9.6448    0.2688    0.0000 H   0  0  0  0  0  0  0  0  0  0  0  0
    8.2419   -2.1612    0.0000 H   0  0  0  0  0  0  0  0  0  0  0  0
    9.6448   -2.9712    0.0000 H   0  0  0  0  0  0  0  0  0  0  0  0
    7.9128    0.2688    0.0000 H   0  0  0  0  0  0  0  0  0  0  0  0
    5.3147   -1.4712    0.0000 H   0  0  0  0  0  0  0  0  0  0  0  0
    6.7177    0.9588    0.0000 H   0  0  0  0  0  0  0  0  0  0  0  0
    3.9118   -0.6612    0.0000 H   0  0  0  0  0  0  0  0  0  0  0  0
    5.3147    1.7688    0.0000 H   0  0  0  0  0  0  0  0  0  0  0  0
    2.5402    0.1356    0.0000 H   0  0  0  0  0  0  0  0  0  0  0  0
   13.0407   -1.9712    0.0000 H   0  0  0  0  0  0  0  0  0  0  0  0
   13.6607   -1.3512    0.0000 H   0  0  0  0  0  0  0  0  0  0  0  0
   13.0407   -0.7312    0.0000 H   0  0  0  0  0  0  0  0  0  0  0  0
    1.3834    1.4204    0.0000 H   0  0  0  0  0  0  0  0  0  0  0  0
    2.2478    2.9176    0.0000 H   0  0  0  0  0  0  0  0  0  0  0  0
  1  9  1  0  0  0  0
  1 20  1  0  0  0  0
  2 15  2  0  0  0  0
  3  7  1  0  0  0  0
  3 15  1  0  0  0  0
  3 28  1  0  0  0  0
  4  6  1  0  0  0  0
  4 12  1  0  0  0  0
  4 21  1  0  0  0  0
  5  8  1  0  0  0  0
  5 20  2  0  0  0  0
  6 24  2  0  0  0  0
  7 10  2  0  0  0  0
  7 13  1  0  0  0  0
  8  9  2  0  0  0  0
  8 10  1  0  0  0  0
  9 14  1  0  0  0  0
 10 25  1  0  0  0  0
 11 15  1  0  0  0  0
 11 16  2  0  0  0  0
 11 17  1  0  0  0  0
 12 18  2  0  0  0  0
 12 19  1  0  0  0  0
 13 14  2  0  0  0  0
 13 26  1  0  0  0  0
 14 27  1  0  0  0  0
 16 18  1  0  0  0  0
 16 29  1  0  0  0  0
 17 19  2  0  0  0  0
 17 30  1  0  0  0  0
 18 31  1  0  0  0  0
 19 32  1  0  0  0  0
 20 22  1  0  0  0  0
 21 23  2  0  0  0  0
 21 33  1  0  0  0  0
 22 34  1  0  0  0  0
 22 35  1  0  0  0  0
 22 36  1  0  0  0  0
 23 24  1  0  0  0  0
 23 37  1  0  0  0  0
 24 38  1  0  0  0  0
M  END
> <PUBCHEM_COMPOUND_CID>
17396278

> <PUBCHEM_COMPOUND_CANONICALIZED>
1

> <PUBCHEM_CACTVS_COMPLEXITY>
452

> <PUBCHEM_CACTVS_HBOND_ACCEPTOR>
4

> <PUBCHEM_CACTVS_HBOND_DONOR>
1

> <PUBCHEM_CACTVS_ROTATABLE_BOND>
3

> <PUBCHEM_CACTVS_SUBSKEYS>
AAADccB7sAAAAAAAAAAAAAAAAAAAAWLAAAAwYAAAAAAAAFgB/AAAHgAYAAAADAzBngQ+xrLIFECqA7V3VASSjCA/4iAYmCG/bNgOJvLE9fuPvSjk3BHY6Ye8yQCeCEAAAAQAEAAQgAAACAAgAAAAAAAAAA==

> <PUBCHEM_IUPAC_OPENEYE_NAME>
N-(2-methyl-1,3-benzoxazol-5-yl)-4-pyrazol-1-yl-benzamide

> <PUBCHEM_IUPAC_CAS_NAME>
N-(2-methyl-1,3-benzoxazol-5-yl)-4-(1-pyrazolyl)benzamide

> <PUBCHEM_IUPAC_NAME>
N-(2-methyl-1,3-benzoxazol-5-yl)-4-pyrazol-1-ylbenzamide

> <PUBCHEM_IUPAC_SYSTEMATIC_NAME>
N-(2-methyl-1,3-benzoxazol-5-yl)-4-pyrazol-1-yl-benzamide

> <PUBCHEM_IUPAC_TRADITIONAL_NAME>
N-(2-methyl-1,3-benzoxazol-5-yl)-4-pyrazol-1-yl-benzamide

> <PUBCHEM_IUPAC_INCHI>
InChI=1S/C18H14N4O2/c1-12-20-16-11-14(5-8-17(16)24-12)21-18(23)13-3-6-15(7-4-13)22-10-2-9-19-22/h2-11H,1H3,(H,21,23)

> <PUBCHEM_IUPAC_INCHIKEY>
ZAQKNUHCSFATOV-UHFFFAOYSA-N

> <PUBCHEM_XLOGP3_AA>
3

> <PUBCHEM_EXACT_MASS>
318.111676

> <PUBCHEM_MOLECULAR_FORMULA>
C18H14N4O2

> <PUBCHEM_MOLECULAR_WEIGHT>
318.32936

> <PUBCHEM_OPENEYE_CAN_SMILES>
CC1=NC2=C(O1)C=CC(=C2)NC(=O)C3=CC=C(C=C3)N4C=CC=N4

> <PUBCHEM_OPENEYE_ISO_SMILES>
CC1=NC2=C(O1)C=CC(=C2)NC(=O)C3=CC=C(C=C3)N4C=CC=N4

> <PUBCHEM_CACTVS_TPSA>
73

> <PUBCHEM_MONOISOTOPIC_WEIGHT>
318.111676

> <PUBCHEM_TOTAL_CHARGE>
0

> <PUBCHEM_HEAVY_ATOM_COUNT>
24

> <PUBCHEM_ATOM_DEF_STEREO_COUNT>
0

> <PUBCHEM_ATOM_UDEF_STEREO_COUNT>
0

> <PUBCHEM_BOND_DEF_STEREO_COUNT>
0

> <PUBCHEM_BOND_UDEF_STEREO_COUNT>
0

> <PUBCHEM_ISOTOPIC_ATOM_COUNT>
0

> <PUBCHEM_COMPONENT_COUNT>
1

> <PUBCHEM_CACTVS_TAUTO_COUNT>
2

> <PUBCHEM_COORDINATE_TYPE>
1
5
255

> <PUBCHEM_BONDANNOTATIONS>
1  20  8
1  9  8
11  16  8
11  17  8
12  18  8
12  19  8
13  14  8
16  18  8
17  19  8
21  23  8
23  24  8
4  21  8
4  6  8
5  20  8
5  8  8
6  24  8
7  10  8
7  13  8
8  10  8
8  9  8
9  14  8

$$$$

