10933
  -OEChem-06261205082D

 12 11  0     0  0  0  0  0  0999 V2000
    3.4030   -0.9050    0.0000 S   0  0  0  0  0  0  0  0  0  0  0  0
    6.0010    0.5950    0.0000 S   0  0  0  0  0  0  0  0  0  0  0  0
    4.2690    0.5950    0.0000 N   0  0  0  0  0  0  0  0  0  0  0  0
    2.5369    0.5950    0.0000 N   0  0  0  0  0  0  0  0  0  0  0  0
    5.1350   -0.9050    0.0000 N   0  0  0  0  0  0  0  0  0  0  0  0
    3.4030    0.0950    0.0000 C   0  0  0  0  0  0  0  0  0  0  0  0
    5.1350    0.0950    0.0000 C   0  0  0  0  0  0  0  0  0  0  0  0
    2.0000    0.2850    0.0000 H   0  0  0  0  0  0  0  0  0  0  0  0
    2.5369    1.2150    0.0000 H   0  0  0  0  0  0  0  0  0  0  0  0
    2.8660   -1.2150    0.0000 H   0  0  0  0  0  0  0  0  0  0  0  0
    6.0010    1.2150    0.0000 H   0  0  0  0  0  0  0  0  0  0  0  0
    5.6719   -1.2150    0.0000 H   0  0  0  0  0  0  0  0  0  0  0  0
  1  6  1  0  0  0  0
  1 10  1  0  0  0  0
  2  7  1  0  0  0  0
  2 11  1  0  0  0  0
  3  6  2  3  0  0  0
  3  7  1  0  0  0  0
  4  6  1  0  0  0  0
  4  8  1  0  0  0  0
  4  9  1  0  0  0  0
  5  7  2  0  0  0  0
  5 12  1  0  0  0  0
M  END
> <PUBCHEM_COMPOUND_CID>
10933

> <PUBCHEM_COMPOUND_CANONICALIZED>
1

> <PUBCHEM_CACTVS_COMPLEXITY>
108

> <PUBCHEM_CACTVS_HBOND_ACCEPTOR>
3

> <PUBCHEM_CACTVS_HBOND_DONOR>
4

> <PUBCHEM_CACTVS_ROTATABLE_BOND>
1

> <PUBCHEM_CACTVS_SUBSKEYS>
AAADcYBDAABgAAAAAAAAAAAAAAAAAAAAAAAAAAAAAAAAAAAAAAAABAQQAAAAAAAAAAABAAJAAAQgAAAAJAAAEgGAAAAAAAAAAAAAAAAAAAAAAAAAAAAAAAAAAAAAAAAAAAAAAAAAAAAAAAAAAAAAAAAAAA==

> <PUBCHEM_IUPAC_OPENEYE_NAME>
1-[amino(sulfanyl)methylene]isothiourea

> <PUBCHEM_IUPAC_CAS_NAME>
N-[amino(mercapto)methylidene]carbamimidothioic acid

> <PUBCHEM_IUPAC_NAME>
N-[amino(sulfanyl)methylidene]carbamimidothioic acid

> <PUBCHEM_IUPAC_SYSTEMATIC_NAME>
N-[azanyl(sulfanyl)methylidene]carbamimidothioic acid

> <PUBCHEM_IUPAC_TRADITIONAL_NAME>
1-[amino(mercapto)methylene]isothiourea

> <PUBCHEM_IUPAC_INCHI>
InChI=1S/C2H5N3S2/c3-1(6)5-2(4)7/h(H5,3,4,5,6,7)

> <PUBCHEM_IUPAC_INCHIKEY>
JIRRNZWTWJGJCT-UHFFFAOYSA-N

> <PUBCHEM_XLOGP3_AA>
0.5

> <PUBCHEM_EXACT_MASS>
134.992489

> <PUBCHEM_MOLECULAR_FORMULA>
C2H5N3S2

> <PUBCHEM_MOLECULAR_WEIGHT>
135.2112

> <PUBCHEM_OPENEYE_CAN_SMILES>
C(=NC(=N)S)(N)S

> <PUBCHEM_OPENEYE_ISO_SMILES>
C(=NC(=N)S)(N)S

> <PUBCHEM_CACTVS_TPSA>
64.2

> <PUBCHEM_MONOISOTOPIC_WEIGHT>
134.992489

> <PUBCHEM_TOTAL_CHARGE>
0

> <PUBCHEM_HEAVY_ATOM_COUNT>
7

> <PUBCHEM_ATOM_DEF_STEREO_COUNT>
0

> <PUBCHEM_ATOM_UDEF_STEREO_COUNT>
0

> <PUBCHEM_BOND_DEF_STEREO_COUNT>
0

> <PUBCHEM_BOND_UDEF_STEREO_COUNT>
1

> <PUBCHEM_ISOTOPIC_ATOM_COUNT>
0

> <PUBCHEM_COMPONENT_COUNT>
1

> <PUBCHEM_CACTVS_TAUTO_COUNT>
5

> <PUBCHEM_COORDINATE_TYPE>
1
5
255

> <PUBCHEM_BONDANNOTATIONS>
3  6  1

$$$$

