17395580
  -OEChem-06241222512D

 39 41  0     1  0  0  0  0  0999 V2000
    3.7320    0.5285    0.0000 S   0  0  0  0  0  0  0  0  0  0  0  0
    2.8660   -4.9715    0.0000 F   0  0  0  0  0  0  0  0  0  0  0  0
    2.0000   -0.4715    0.0000 O   0  0  0  0  0  0  0  0  0  0  0  0
    4.7026    2.0230    0.0000 N   0  0  0  0  0  0  0  0  0  0  0  0
    5.5116    0.6217    0.0000 N   0  0  0  0  0  0  0  0  0  0  0  0
    6.1808    1.3649    0.0000 N   0  0  0  0  0  0  0  0  0  0  0  0
    5.9064    4.8670    0.0000 N   0  0  0  0  0  0  0  0  0  0  0  0
    3.7320   -0.4715    0.0000 C   0  0  3  0  0  0  0  0  0  0  0  0
    4.5981    1.0285    0.0000 C   0  0  0  0  0  0  0  0  0  0  0  0
    5.6808    2.2309    0.0000 C   0  0  0  0  0  0  0  0  0  0  0  0
    2.8660   -0.9715    0.0000 C   0  0  0  0  0  0  0  0  0  0  0  0
    4.5981   -0.9715    0.0000 C   0  0  0  0  0  0  0  0  0  0  0  0
    2.8660   -1.9715    0.0000 C   0  0  0  0  0  0  0  0  0  0  0  0
    6.0875    3.1444    0.0000 C   0  0  0  0  0  0  0  0  0  0  0  0
    3.9595    2.6921    0.0000 C   0  0  0  0  0  0  0  0  0  0  0  0
    2.0000   -2.4715    0.0000 C   0  0  0  0  0  0  0  0  0  0  0  0
    3.7320   -2.4715    0.0000 C   0  0  0  0  0  0  0  0  0  0  0  0
    7.0820    3.2490    0.0000 C   0  0  0  0  0  0  0  0  0  0  0  0
    5.4997    3.9535    0.0000 C   0  0  0  0  0  0  0  0  0  0  0  0
    2.0000   -3.4715    0.0000 C   0  0  0  0  0  0  0  0  0  0  0  0
    3.7320   -3.4715    0.0000 C   0  0  0  0  0  0  0  0  0  0  0  0
    2.8660   -3.9715    0.0000 C   0  0  0  0  0  0  0  0  0  0  0  0
    7.4888    4.1625    0.0000 C   0  0  0  0  0  0  0  0  0  0  0  0
    6.9010    4.9715    0.0000 C   0  0  0  0  0  0  0  0  0  0  0  0
    4.2690   -0.1615    0.0000 H   0  0  0  0  0  0  0  0  0  0  0  0
    4.2881   -1.5085    0.0000 H   0  0  0  0  0  0  0  0  0  0  0  0
    5.1350   -1.2815    0.0000 H   0  0  0  0  0  0  0  0  0  0  0  0
    4.9081   -0.4346    0.0000 H   0  0  0  0  0  0  0  0  0  0  0  0
    4.3743    3.1529    0.0000 H   0  0  0  0  0  0  0  0  0  0  0  0
    3.4987    3.1070    0.0000 H   0  0  0  0  0  0  0  0  0  0  0  0
    3.5446    2.2314    0.0000 H   0  0  0  0  0  0  0  0  0  0  0  0
    1.4631   -2.1615    0.0000 H   0  0  0  0  0  0  0  0  0  0  0  0
    4.2690   -2.1615    0.0000 H   0  0  0  0  0  0  0  0  0  0  0  0
    7.4464    2.7474    0.0000 H   0  0  0  0  0  0  0  0  0  0  0  0
    4.8831    3.8886    0.0000 H   0  0  0  0  0  0  0  0  0  0  0  0
    1.4631   -3.7815    0.0000 H   0  0  0  0  0  0  0  0  0  0  0  0
    4.2690   -3.7815    0.0000 H   0  0  0  0  0  0  0  0  0  0  0  0
    8.1054    4.2273    0.0000 H   0  0  0  0  0  0  0  0  0  0  0  0
    7.1531    5.5379    0.0000 H   0  0  0  0  0  0  0  0  0  0  0  0
  1  8  1  0  0  0  0
  1  9  1  0  0  0  0
  2 22  1  0  0  0  0
  3 11  2  0  0  0  0
  4  9  1  0  0  0  0
  4 10  1  0  0  0  0
  4 15  1  0  0  0  0
  5  6  1  0  0  0  0
  5  9  2  0  0  0  0
  6 10  2  0  0  0  0
  7 19  1  0  0  0  0
  7 24  2  0  0  0  0
  8 11  1  0  0  0  0
  8 12  1  0  0  0  0
  8 25  1  0  0  0  0
 10 14  1  0  0  0  0
 11 13  1  0  0  0  0
 12 26  1  0  0  0  0
 12 27  1  0  0  0  0
 12 28  1  0  0  0  0
 13 16  2  0  0  0  0
 13 17  1  0  0  0  0
 14 18  1  0  0  0  0
 14 19  2  0  0  0  0
 15 29  1  0  0  0  0
 15 30  1  0  0  0  0
 15 31  1  0  0  0  0
 16 20  1  0  0  0  0
 16 32  1  0  0  0  0
 17 21  2  0  0  0  0
 17 33  1  0  0  0  0
 18 23  2  0  0  0  0
 18 34  1  0  0  0  0
 19 35  1  0  0  0  0
 20 22  2  0  0  0  0
 20 36  1  0  0  0  0
 21 22  1  0  0  0  0
 21 37  1  0  0  0  0
 23 24  1  0  0  0  0
 23 38  1  0  0  0  0
 24 39  1  0  0  0  0
M  END
> <PUBCHEM_COMPOUND_CID>
17395580

> <PUBCHEM_COMPOUND_CANONICALIZED>
1

> <PUBCHEM_CACTVS_COMPLEXITY>
433

> <PUBCHEM_CACTVS_HBOND_ACCEPTOR>
6

> <PUBCHEM_CACTVS_HBOND_DONOR>
0

> <PUBCHEM_CACTVS_ROTATABLE_BOND>
5

> <PUBCHEM_CACTVS_SUBSKEYS>
AAADccB7oQBAAAAAAAAAAAAAAAAAAWAAAAA8QAAAAAAAAAAB8AAAHwQIAAAADATF2wy/kJcMEAiqArJ3ZACS0Ct1ArAd2CE4ZNiIKPLg3ZGEIQhgiALIyYcYiICOAAAAAAAAAAAAAAAAAAAAAAAAAAAAAA==

> <PUBCHEM_IUPAC_OPENEYE_NAME>
1-(4-fluorophenyl)-2-[[4-methyl-5-(3-pyridyl)-1,2,4-triazol-3-yl]sulfanyl]propan-1-one

> <PUBCHEM_IUPAC_CAS_NAME>
1-(4-fluorophenyl)-2-[[4-methyl-5-(3-pyridinyl)-1,2,4-triazol-3-yl]thio]-1-propanone

> <PUBCHEM_IUPAC_NAME>
1-(4-fluorophenyl)-2-[(4-methyl-5-pyridin-3-yl-1,2,4-triazol-3-yl)sulfanyl]propan-1-one

> <PUBCHEM_IUPAC_SYSTEMATIC_NAME>
1-(4-fluorophenyl)-2-[(4-methyl-5-pyridin-3-yl-1,2,4-triazol-3-yl)sulfanyl]propan-1-one

> <PUBCHEM_IUPAC_TRADITIONAL_NAME>
1-(4-fluorophenyl)-2-[[4-methyl-5-(3-pyridyl)-1,2,4-triazol-3-yl]thio]propan-1-one

> <PUBCHEM_IUPAC_INCHI>
InChI=1S/C17H15FN4OS/c1-11(15(23)12-5-7-14(18)8-6-12)24-17-21-20-16(22(17)2)13-4-3-9-19-10-13/h3-11H,1-2H3

> <PUBCHEM_IUPAC_INCHIKEY>
YWNXWVNDLDNVTP-UHFFFAOYSA-N

> <PUBCHEM_XLOGP3_AA>
2.8

> <PUBCHEM_EXACT_MASS>
342.09506

> <PUBCHEM_MOLECULAR_FORMULA>
C17H15FN4OS

> <PUBCHEM_MOLECULAR_WEIGHT>
342.390603

> <PUBCHEM_OPENEYE_CAN_SMILES>
CC(C(=O)C1=CC=C(C=C1)F)SC2=NN=C(N2C)C3=CN=CC=C3

> <PUBCHEM_OPENEYE_ISO_SMILES>
CC(C(=O)C1=CC=C(C=C1)F)SC2=NN=C(N2C)C3=CN=CC=C3

> <PUBCHEM_CACTVS_TPSA>
86

> <PUBCHEM_MONOISOTOPIC_WEIGHT>
342.09506

> <PUBCHEM_TOTAL_CHARGE>
0

> <PUBCHEM_HEAVY_ATOM_COUNT>
24

> <PUBCHEM_ATOM_DEF_STEREO_COUNT>
0

> <PUBCHEM_ATOM_UDEF_STEREO_COUNT>
1

> <PUBCHEM_BOND_DEF_STEREO_COUNT>
0

> <PUBCHEM_BOND_UDEF_STEREO_COUNT>
0

> <PUBCHEM_ISOTOPIC_ATOM_COUNT>
0

> <PUBCHEM_COMPONENT_COUNT>
1

> <PUBCHEM_CACTVS_TAUTO_COUNT>
2

> <PUBCHEM_COORDINATE_TYPE>
1
5
255

> <PUBCHEM_BONDANNOTATIONS>
13  16  8
13  17  8
14  18  8
14  19  8
16  20  8
17  21  8
18  23  8
20  22  8
21  22  8
23  24  8
4  10  8
4  9  8
5  6  8
5  9  8
6  10  8
7  19  8
7  24  8
8  12  3

$$$$

