51090916
  -OEChem-06241223002D

 53 55  0     1  0  0  0  0  0999 V2000
    7.1391   -0.0194    0.0000 O   0  0  0  0  0  0  0  0  0  0  0  0
    4.5691    1.7594    0.0000 O   0  0  0  0  0  0  0  0  0  0  0  0
    5.4071   -1.0194    0.0000 O   0  0  0  0  0  0  0  0  0  0  0  0
    2.8090    1.4806    0.0000 N   0  0  0  0  0  0  0  0  0  0  0  0
    4.5411    0.4806    0.0000 N   0  0  0  0  0  0  0  0  0  0  0  0
    8.0052    0.4806    0.0000 C   0  0  0  0  0  0  0  0  0  0  0  0
    8.8712   -0.0194    0.0000 C   0  0  0  0  0  0  0  0  0  0  0  0
    8.0052    1.4806    0.0000 C   0  0  0  0  0  0  0  0  0  0  0  0
    9.7372    0.4806    0.0000 C   0  0  0  0  0  0  0  0  0  0  0  0
    8.8712    1.9806    0.0000 C   0  0  0  0  0  0  0  0  0  0  0  0
    9.7372    1.4806    0.0000 C   0  0  0  0  0  0  0  0  0  0  0  0
    2.8090    0.4806    0.0000 C   0  0  0  0  0  0  0  0  0  0  0  0
    2.0000    2.0684    0.0000 C   0  0  0  0  0  0  0  0  0  0  0  0
    3.6750   -0.0194    0.0000 C   0  0  3  0  0  0  0  0  0  0  0  0
    2.3090    3.0194    0.0000 C   0  0  0  0  0  0  0  0  0  0  0  0
    3.3090    3.0194    0.0000 C   0  0  0  0  0  0  0  0  0  0  0  0
    3.6180    2.0684    0.0000 C   0  0  0  0  0  0  0  0  0  0  0  0
    6.2731    0.4806    0.0000 C   0  0  0  0  0  0  0  0  0  0  0  0
    3.6750   -1.0194    0.0000 C   0  0  0  0  0  0  0  0  0  0  0  0
    5.4071   -0.0194    0.0000 C   0  0  0  0  0  0  0  0  0  0  0  0
    2.8090   -1.5194    0.0000 C   0  0  0  0  0  0  0  0  0  0  0  0
    4.5411   -1.5194    0.0000 C   0  0  0  0  0  0  0  0  0  0  0  0
    2.8090   -2.5194    0.0000 C   0  0  0  0  0  0  0  0  0  0  0  0
    4.5411   -2.5194    0.0000 C   0  0  0  0  0  0  0  0  0  0  0  0
    3.6750   -3.0194    0.0000 C   0  0  0  0  0  0  0  0  0  0  0  0
    8.0052   -0.1394    0.0000 H   0  0  0  0  0  0  0  0  0  0  0  0
    8.4727   -0.4944    0.0000 H   0  0  0  0  0  0  0  0  0  0  0  0
    9.2697   -0.4944    0.0000 H   0  0  0  0  0  0  0  0  0  0  0  0
    7.7931    2.0632    0.0000 H   0  0  0  0  0  0  0  0  0  0  0  0
    7.3946    1.3729    0.0000 H   0  0  0  0  0  0  0  0  0  0  0  0
    9.9493   -0.1020    0.0000 H   0  0  0  0  0  0  0  0  0  0  0  0
   10.3478    0.5882    0.0000 H   0  0  0  0  0  0  0  0  0  0  0  0
    9.2697    2.4555    0.0000 H   0  0  0  0  0  0  0  0  0  0  0  0
    8.4727    2.4555    0.0000 H   0  0  0  0  0  0  0  0  0  0  0  0
   10.3478    1.3729    0.0000 H   0  0  0  0  0  0  0  0  0  0  0  0
    9.9493    2.0632    0.0000 H   0  0  0  0  0  0  0  0  0  0  0  0
    2.1984    0.5882    0.0000 H   0  0  0  0  0  0  0  0  0  0  0  0
    2.5970   -0.1020    0.0000 H   0  0  0  0  0  0  0  0  0  0  0  0
    1.4336    2.3205    0.0000 H   0  0  0  0  0  0  0  0  0  0  0  0
    1.6900    1.5314    0.0000 H   0  0  0  0  0  0  0  0  0  0  0  0
    4.2120   -0.3294    0.0000 H   0  0  0  0  0  0  0  0  0  0  0  0
    2.3738    3.6360    0.0000 H   0  0  0  0  0  0  0  0  0  0  0  0
    1.7026    3.1483    0.0000 H   0  0  0  0  0  0  0  0  0  0  0  0
    3.9155    3.1483    0.0000 H   0  0  0  0  0  0  0  0  0  0  0  0
    3.2442    3.6360    0.0000 H   0  0  0  0  0  0  0  0  0  0  0  0
    6.6716    0.9555    0.0000 H   0  0  0  0  0  0  0  0  0  0  0  0
    5.8746    0.9555    0.0000 H   0  0  0  0  0  0  0  0  0  0  0  0
    4.5411    1.1006    0.0000 H   0  0  0  0  0  0  0  0  0  0  0  0
    2.2721   -1.2094    0.0000 H   0  0  0  0  0  0  0  0  0  0  0  0
    5.0780   -1.2094    0.0000 H   0  0  0  0  0  0  0  0  0  0  0  0
    2.2721   -2.8294    0.0000 H   0  0  0  0  0  0  0  0  0  0  0  0
    5.0780   -2.8294    0.0000 H   0  0  0  0  0  0  0  0  0  0  0  0
    3.6750   -3.6394    0.0000 H   0  0  0  0  0  0  0  0  0  0  0  0
  1  6  1  0  0  0  0
  1 18  1  0  0  0  0
  2 17  2  0  0  0  0
  3 20  2  0  0  0  0
  4 12  1  0  0  0  0
  4 13  1  0  0  0  0
  4 17  1  0  0  0  0
  5 14  1  0  0  0  0
  5 20  1  0  0  0  0
  5 48  1  0  0  0  0
  6  7  1  0  0  0  0
  6  8  1  0  0  0  0
  6 26  1  0  0  0  0
  7  9  1  0  0  0  0
  7 27  1  0  0  0  0
  7 28  1  0  0  0  0
  8 10  1  0  0  0  0
  8 29  1  0  0  0  0
  8 30  1  0  0  0  0
  9 11  1  0  0  0  0
  9 31  1  0  0  0  0
  9 32  1  0  0  0  0
 10 11  1  0  0  0  0
 10 33  1  0  0  0  0
 10 34  1  0  0  0  0
 11 35  1  0  0  0  0
 11 36  1  0  0  0  0
 12 14  1  0  0  0  0
 12 37  1  0  0  0  0
 12 38  1  0  0  0  0
 13 15  1  0  0  0  0
 13 39  1  0  0  0  0
 13 40  1  0  0  0  0
 14 19  1  0  0  0  0
 14 41  1  0  0  0  0
 15 16  1  0  0  0  0
 15 42  1  0  0  0  0
 15 43  1  0  0  0  0
 16 17  1  0  0  0  0
 16 44  1  0  0  0  0
 16 45  1  0  0  0  0
 18 20  1  0  0  0  0
 18 46  1  0  0  0  0
 18 47  1  0  0  0  0
 19 21  2  0  0  0  0
 19 22  1  0  0  0  0
 21 23  1  0  0  0  0
 21 49  1  0  0  0  0
 22 24  2  0  0  0  0
 22 50  1  0  0  0  0
 23 25  2  0  0  0  0
 23 51  1  0  0  0  0
 24 25  1  0  0  0  0
 24 52  1  0  0  0  0
 25 53  1  0  0  0  0
M  END
> <PUBCHEM_COMPOUND_CID>
51090916

> <PUBCHEM_COMPOUND_CANONICALIZED>
1

> <PUBCHEM_CACTVS_COMPLEXITY>
442

> <PUBCHEM_CACTVS_HBOND_ACCEPTOR>
3

> <PUBCHEM_CACTVS_HBOND_DONOR>
1

> <PUBCHEM_CACTVS_ROTATABLE_BOND>
7

> <PUBCHEM_CACTVS_SUBSKEYS>
AAADceB7MAAAAAAAAAAAAAAAAAAAAWAAAAAwYAAAAAAAAAABAAAAHgAQAAAADDzhmAYwAIPABACIAiFSEAKCAAAgAAAIiIFIBIgKYDKAkRWXIAhklgCYiAeUwIAOAAAAAAAAAAAAAAAAAAAAAAAAAAAAAA==

> <PUBCHEM_IUPAC_OPENEYE_NAME>
2-(cyclohexoxy)-N-[2-(2-oxopyrrolidin-1-yl)-1-phenyl-ethyl]acetamide

> <PUBCHEM_IUPAC_CAS_NAME>
2-cyclohexyloxy-N-[2-(2-oxo-1-pyrrolidinyl)-1-phenylethyl]acetamide

> <PUBCHEM_IUPAC_NAME>
2-cyclohexyloxy-N-[2-(2-oxopyrrolidin-1-yl)-1-phenylethyl]acetamide

> <PUBCHEM_IUPAC_SYSTEMATIC_NAME>
2-cyclohexyloxy-N-[2-(2-oxidanylidenepyrrolidin-1-yl)-1-phenyl-ethyl]ethanamide

> <PUBCHEM_IUPAC_TRADITIONAL_NAME>
2-(cyclohexoxy)-N-[2-(2-ketopyrrolidino)-1-phenyl-ethyl]acetamide

> <PUBCHEM_IUPAC_INCHI>
InChI=1S/C20H28N2O3/c23-19(15-25-17-10-5-2-6-11-17)21-18(16-8-3-1-4-9-16)14-22-13-7-12-20(22)24/h1,3-4,8-9,17-18H,2,5-7,10-15H2,(H,21,23)

> <PUBCHEM_IUPAC_INCHIKEY>
ZXYZTSLCGBDKPJ-UHFFFAOYSA-N

> <PUBCHEM_XLOGP3_AA>
2.3

> <PUBCHEM_EXACT_MASS>
344.209993

> <PUBCHEM_MOLECULAR_FORMULA>
C20H28N2O3

> <PUBCHEM_MOLECULAR_WEIGHT>
344.44792

> <PUBCHEM_OPENEYE_CAN_SMILES>
C1CCC(CC1)OCC(=O)NC(CN2CCCC2=O)C3=CC=CC=C3

> <PUBCHEM_OPENEYE_ISO_SMILES>
C1CCC(CC1)OCC(=O)NC(CN2CCCC2=O)C3=CC=CC=C3

> <PUBCHEM_CACTVS_TPSA>
58.6

> <PUBCHEM_MONOISOTOPIC_WEIGHT>
344.209993

> <PUBCHEM_TOTAL_CHARGE>
0

> <PUBCHEM_HEAVY_ATOM_COUNT>
25

> <PUBCHEM_ATOM_DEF_STEREO_COUNT>
0

> <PUBCHEM_ATOM_UDEF_STEREO_COUNT>
1

> <PUBCHEM_BOND_DEF_STEREO_COUNT>
0

> <PUBCHEM_BOND_UDEF_STEREO_COUNT>
0

> <PUBCHEM_ISOTOPIC_ATOM_COUNT>
0

> <PUBCHEM_COMPONENT_COUNT>
1

> <PUBCHEM_CACTVS_TAUTO_COUNT>
4

> <PUBCHEM_COORDINATE_TYPE>
1
5
255

> <PUBCHEM_BONDANNOTATIONS>
14  12  3
19  21  8
19  22  8
21  23  8
22  24  8
23  25  8
24  25  8

$$$$

