582712
  -OEChem-06241222432D

 41 43  0     1  0  0  0  0  0999 V2000
    4.5981    0.2327    0.0000 S   0  0  0  0  0  0  0  0  0  0  0  0
    6.3301    0.2327    0.0000 N   0  0  0  0  0  0  0  0  0  0  0  0
    5.4641   -1.2673    0.0000 N   0  0  0  0  0  0  0  0  0  0  0  0
    6.3301    1.2327    0.0000 C   0  0  3  0  0  0  0  0  0  0  0  0
    5.4641    1.7327    0.0000 C   0  0  0  0  0  0  0  0  0  0  0  0
    5.4641    2.7327    0.0000 C   0  0  0  0  0  0  0  0  0  0  0  0
    6.3301    3.2327    0.0000 C   0  0  0  0  0  0  0  0  0  0  0  0
    7.1962    1.7327    0.0000 C   0  0  0  0  0  0  0  0  0  0  0  0
    7.1962    2.7327    0.0000 C   0  0  0  0  0  0  0  0  0  0  0  0
    8.0901    1.1980    0.0000 C   0  0  0  0  0  0  0  0  0  0  0  0
    8.0901    3.2673    0.0000 C   0  0  0  0  0  0  0  0  0  0  0  0
    8.9962    1.7119    0.0000 C   0  0  0  0  0  0  0  0  0  0  0  0
    8.9962    2.7535    0.0000 C   0  0  0  0  0  0  0  0  0  0  0  0
    5.4641   -0.2673    0.0000 C   0  0  0  0  0  0  0  0  0  0  0  0
    4.5981   -1.7673    0.0000 C   0  0  0  0  0  0  0  0  0  0  0  0
    3.7321   -1.2673    0.0000 C   0  0  0  0  0  0  0  0  0  0  0  0
    4.5981   -2.7673    0.0000 C   0  0  0  0  0  0  0  0  0  0  0  0
    2.8660   -2.7673    0.0000 C   0  0  0  0  0  0  0  0  0  0  0  0
    2.8660   -1.7673    0.0000 C   0  0  0  0  0  0  0  0  0  0  0  0
    3.7321   -3.2673    0.0000 C   0  0  0  0  0  0  0  0  0  0  0  0
    2.0000   -3.2673    0.0000 C   0  0  0  0  0  0  0  0  0  0  0  0
    6.8671    0.9227    0.0000 H   0  0  0  0  0  0  0  0  0  0  0  0
    4.8535    1.8403    0.0000 H   0  0  0  0  0  0  0  0  0  0  0  0
    5.2520    1.1501    0.0000 H   0  0  0  0  0  0  0  0  0  0  0  0
    5.2520    3.3153    0.0000 H   0  0  0  0  0  0  0  0  0  0  0  0
    4.8535    2.6250    0.0000 H   0  0  0  0  0  0  0  0  0  0  0  0
    6.7287    3.7076    0.0000 H   0  0  0  0  0  0  0  0  0  0  0  0
    5.9316    3.7076    0.0000 H   0  0  0  0  0  0  0  0  0  0  0  0
    8.0829    0.5780    0.0000 H   0  0  0  0  0  0  0  0  0  0  0  0
    8.0829    3.8873    0.0000 H   0  0  0  0  0  0  0  0  0  0  0  0
    9.5319    1.3998    0.0000 H   0  0  0  0  0  0  0  0  0  0  0  0
    9.5319    3.0656    0.0000 H   0  0  0  0  0  0  0  0  0  0  0  0
    6.0010   -1.5773    0.0000 H   0  0  0  0  0  0  0  0  0  0  0  0
    3.7321   -0.6473    0.0000 H   0  0  0  0  0  0  0  0  0  0  0  0
    5.1350   -3.0773    0.0000 H   0  0  0  0  0  0  0  0  0  0  0  0
    4.0611   -0.0773    0.0000 H   0  0  0  0  0  0  0  0  0  0  0  0
    2.3291   -1.4573    0.0000 H   0  0  0  0  0  0  0  0  0  0  0  0
    3.7321   -3.8873    0.0000 H   0  0  0  0  0  0  0  0  0  0  0  0
    1.6900   -2.7304    0.0000 H   0  0  0  0  0  0  0  0  0  0  0  0
    1.4631   -3.5773    0.0000 H   0  0  0  0  0  0  0  0  0  0  0  0
    2.3100   -3.8043    0.0000 H   0  0  0  0  0  0  0  0  0  0  0  0
  1 14  1  0  0  0  0
  1 36  1  0  0  0  0
  2  4  1  0  0  0  0
  2 14  2  0  0  0  0
  3 14  1  0  0  0  0
  3 15  1  0  0  0  0
  3 33  1  0  0  0  0
  4  5  1  0  0  0  0
  4  8  1  0  0  0  0
  4 22  1  0  0  0  0
  5  6  1  0  0  0  0
  5 23  1  0  0  0  0
  5 24  1  0  0  0  0
  6  7  1  0  0  0  0
  6 25  1  0  0  0  0
  6 26  1  0  0  0  0
  7  9  1  0  0  0  0
  7 27  1  0  0  0  0
  7 28  1  0  0  0  0
  8  9  1  0  0  0  0
  8 10  2  0  0  0  0
  9 11  2  0  0  0  0
 10 12  1  0  0  0  0
 10 29  1  0  0  0  0
 11 13  1  0  0  0  0
 11 30  1  0  0  0  0
 12 13  2  0  0  0  0
 12 31  1  0  0  0  0
 13 32  1  0  0  0  0
 15 16  2  0  0  0  0
 15 17  1  0  0  0  0
 16 19  1  0  0  0  0
 16 34  1  0  0  0  0
 17 20  2  0  0  0  0
 17 35  1  0  0  0  0
 18 19  2  0  0  0  0
 18 20  1  0  0  0  0
 18 21  1  0  0  0  0
 19 37  1  0  0  0  0
 20 38  1  0  0  0  0
 21 39  1  0  0  0  0
 21 40  1  0  0  0  0
 21 41  1  0  0  0  0
M  END
> <PUBCHEM_COMPOUND_CID>
582712

> <PUBCHEM_COMPOUND_CANONICALIZED>
1

> <PUBCHEM_CACTVS_COMPLEXITY>
360

> <PUBCHEM_CACTVS_HBOND_ACCEPTOR>
2

> <PUBCHEM_CACTVS_HBOND_DONOR>
2

> <PUBCHEM_CACTVS_ROTATABLE_BOND>
3

> <PUBCHEM_CACTVS_SUBSKEYS>
AAADceB7AABAAAAAAAAAAAAAAAAAAAAAAAAwYMAAAAAAAADBQAAAHAQQAAAADCjBGAQzwILAAASgAiRCZACCEAEhAgAJiAAAZIgIICLAmZGEIAhgkABIyAcQgIAOiAAAAAAQAAAQAACAACQAAAAAAAAAAA==

> <PUBCHEM_IUPAC_OPENEYE_NAME>
1-(p-tolyl)-3-tetralin-1-yl-isothiourea

> <PUBCHEM_IUPAC_CAS_NAME>
N-(4-methylphenyl)-N'-(1,2,3,4-tetrahydronaphthalen-1-yl)carbamimidothioic acid

> <PUBCHEM_IUPAC_NAME>
N-(4-methylphenyl)-N'-(1,2,3,4-tetrahydronaphthalen-1-yl)carbamimidothioic acid

> <PUBCHEM_IUPAC_SYSTEMATIC_NAME>
N-(4-methylphenyl)-N'-(1,2,3,4-tetrahydronaphthalen-1-yl)carbamimidothioic acid

> <PUBCHEM_IUPAC_TRADITIONAL_NAME>
1-(p-tolyl)-3-tetralin-1-yl-isothiourea

> <PUBCHEM_IUPAC_INCHI>
InChI=1S/C18H20N2S/c1-13-9-11-15(12-10-13)19-18(21)20-17-8-4-6-14-5-2-3-7-16(14)17/h2-3,5,7,9-12,17H,4,6,8H2,1H3,(H2,19,20,21)

> <PUBCHEM_IUPAC_INCHIKEY>
JGSQMWULEWGEOU-UHFFFAOYSA-N

> <PUBCHEM_XLOGP3_AA>
4.6

> <PUBCHEM_EXACT_MASS>
296.13472

> <PUBCHEM_MOLECULAR_FORMULA>
C18H20N2S

> <PUBCHEM_MOLECULAR_WEIGHT>
296.4298

> <PUBCHEM_OPENEYE_CAN_SMILES>
CC1=CC=C(C=C1)NC(=NC2CCCC3=CC=CC=C23)S

> <PUBCHEM_OPENEYE_ISO_SMILES>
CC1=CC=C(C=C1)NC(=NC2CCCC3=CC=CC=C23)S

> <PUBCHEM_CACTVS_TPSA>
25.4

> <PUBCHEM_MONOISOTOPIC_WEIGHT>
296.13472

> <PUBCHEM_TOTAL_CHARGE>
0

> <PUBCHEM_HEAVY_ATOM_COUNT>
21

> <PUBCHEM_ATOM_DEF_STEREO_COUNT>
0

> <PUBCHEM_ATOM_UDEF_STEREO_COUNT>
1

> <PUBCHEM_BOND_DEF_STEREO_COUNT>
0

> <PUBCHEM_BOND_UDEF_STEREO_COUNT>
0

> <PUBCHEM_ISOTOPIC_ATOM_COUNT>
0

> <PUBCHEM_COMPONENT_COUNT>
1

> <PUBCHEM_CACTVS_TAUTO_COUNT>
3

> <PUBCHEM_COORDINATE_TYPE>
1
5
255

> <PUBCHEM_BONDANNOTATIONS>
10  12  8
11  13  8
12  13  8
15  16  8
15  17  8
16  19  8
17  20  8
18  19  8
18  20  8
4  2  3
8  10  8
8  9  8
9  11  8

$$$$

