3834
  -OEChem-06251223422D

125127  0     1  0  0  0  0  0999 V2000
   11.5263    1.2500    0.0000 O   0  0  0  0  0  0  0  0  0  0  0  0
    8.9282    1.7500    0.0000 O   0  0  0  0  0  0  0  0  0  0  0  0
    8.0622    3.2500    0.0000 O   0  0  0  0  0  0  0  0  0  0  0  0
   10.6603   -0.2500    0.0000 O   0  0  0  0  0  0  0  0  0  0  0  0
    9.7942    4.2500    0.0000 O   0  0  0  0  0  0  0  0  0  0  0  0
   12.8923   -2.1160    0.0000 O   0  0  0  0  0  0  0  0  0  0  0  0
   11.5263   -2.7500    0.0000 O   0  0  0  0  0  0  0  0  0  0  0  0
    6.3301    4.2500    0.0000 O   0  0  0  0  0  0  0  0  0  0  0  0
    4.5981    2.2499    0.0000 O   0  0  0  0  0  0  0  0  0  0  0  0
    5.1084   -0.7726    0.0000 O   0  0  0  0  0  0  0  0  0  0  0  0
    7.7730   -0.1650    0.0000 O   0  0  0  0  0  0  0  0  0  0  0  0
    3.7320    4.7500    0.0000 O   0  0  0  0  0  0  0  0  0  0  0  0
    9.7942   -2.7500    0.0000 O   0  0  0  0  0  0  0  0  0  0  0  0
    5.4641    4.7500    0.0000 O   0  0  0  0  0  0  0  0  0  0  0  0
   11.5263    3.2500    0.0000 N   0  0  0  0  0  0  0  0  0  0  0  0
   10.6603    2.7500    0.0000 C   0  0  3  0  0  0  0  0  0  0  0  0
   10.6603    1.7500    0.0000 C   0  0  3  0  0  0  0  0  0  0  0  0
    9.7942    3.2500    0.0000 C   0  0  3  0  0  0  0  0  0  0  0  0
    9.7942    1.2500    0.0000 C   0  0  3  0  0  0  0  0  0  0  0  0
    8.9282    2.7500    0.0000 C   0  0  3  0  0  0  0  0  0  0  0  0
    7.1962    2.7500    0.0000 C   0  0  3  0  0  0  0  0  0  0  0  0
   12.3923   -1.2500    0.0000 C   0  0  3  0  0  0  0  0  0  0  0  0
   11.5263    0.2500    0.0000 C   0  0  3  0  0  0  0  0  0  0  0  0
    7.1962    1.7500    0.0000 C   0  0  3  0  0  0  0  0  0  0  0  0
   12.3923   -0.2500    0.0000 C   0  0  0  0  0  0  0  0  0  0  0  0
   11.5263   -1.7500    0.0000 C   0  0  3  0  0  0  0  0  0  0  0  0
   10.6603   -1.2500    0.0000 C   0  0  3  0  0  0  0  0  0  0  0  0
    6.3301    3.2500    0.0000 C   0  0  3  0  0  0  0  0  0  0  0  0
    6.5567    0.9004    0.0000 C   0  0  0  0  0  0  0  0  0  0  0  0
    9.7942    0.2500    0.0000 C   0  0  0  0  0  0  0  0  0  0  0  0
    5.5567    0.9004    0.0000 C   0  0  3  0  0  0  0  0  0  0  0  0
    8.1696    1.5210    0.0000 C   0  0  0  0  0  0  0  0  0  0  0  0
   13.3923   -1.2500    0.0000 C   0  0  0  0  0  0  0  0  0  0  0  0
    5.4641    2.7500    0.0000 C   0  0  3  0  0  0  0  0  0  0  0  0
   12.3923    2.7500    0.0000 C   0  0  0  0  0  0  0  0  0  0  0  0
   11.5263    4.2500    0.0000 C   0  0  0  0  0  0  0  0  0  0  0  0
    9.7942   -1.7500    0.0000 C   0  0  0  0  0  0  0  0  0  0  0  0
    4.8496    0.1933    0.0000 C   0  0  3  0  0  0  0  0  0  0  0  0
    4.5981    3.2500    0.0000 C   0  0  0  0  0  0  0  0  0  0  0  0
    4.5652    1.0309    0.0000 C   0  0  0  0  0  0  0  0  0  0  0  0
    8.4580    0.5635    0.0000 C   0  0  0  0  0  0  0  0  0  0  0  0
   10.6603   -3.2500    0.0000 C   0  0  0  0  0  0  0  0  0  0  0  0
    3.8837    0.4521    0.0000 C   0  0  0  0  0  0  0  0  0  0  0  0
    7.1962    4.7500    0.0000 C   0  0  0  0  0  0  0  0  0  0  0  0
    4.5981    4.2500    0.0000 C   0  0  0  0  0  0  0  0  0  0  0  0
   10.6603   -4.2500    0.0000 C   0  0  0  0  0  0  0  0  0  0  0  0
    9.7942   -4.7500    0.0000 C   0  0  0  0  0  0  0  0  0  0  0  0
    3.3837    1.3182    0.0000 C   0  0  0  0  0  0  0  0  0  0  0  0
    2.8660    4.2500    0.0000 C   0  0  3  0  0  0  0  0  0  0  0  0
    9.7942   -5.7500    0.0000 C   0  0  0  0  0  0  0  0  0  0  0  0
    8.9282   -4.2500    0.0000 C   0  0  0  0  0  0  0  0  0  0  0  0
    2.8660    3.2500    0.0000 C   0  0  0  0  0  0  0  0  0  0  0  0
    2.4177    1.5770    0.0000 C   0  0  0  0  0  0  0  0  0  0  0  0
    2.0000    4.7500    0.0000 C   0  0  0  0  0  0  0  0  0  0  0  0
    2.1589    2.5429    0.0000 C   0  0  0  0  0  0  0  0  0  0  0  0
    2.0000    5.7500    0.0000 C   0  0  0  0  0  0  0  0  0  0  0  0
   11.3964    2.3250    0.0000 H   0  0  0  0  0  0  0  0  0  0  0  0
   11.3964    2.1750    0.0000 H   0  0  0  0  0  0  0  0  0  0  0  0
    9.0581    3.6750    0.0000 H   0  0  0  0  0  0  0  0  0  0  0  0
    9.0581    0.8250    0.0000 H   0  0  0  0  0  0  0  0  0  0  0  0
    8.9282    3.6000    0.0000 H   0  0  0  0  0  0  0  0  0  0  0  0
    7.9323    2.3250    0.0000 H   0  0  0  0  0  0  0  0  0  0  0  0
   12.2624    0.6750    0.0000 H   0  0  0  0  0  0  0  0  0  0  0  0
    7.4854    0.9507    0.0000 H   0  0  0  0  0  0  0  0  0  0  0  0
   13.0029   -0.3577    0.0000 H   0  0  0  0  0  0  0  0  0  0  0  0
   12.6044    0.3326    0.0000 H   0  0  0  0  0  0  0  0  0  0  0  0
   12.2624   -2.1750    0.0000 H   0  0  0  0  0  0  0  0  0  0  0  0
    9.9241   -0.8250    0.0000 H   0  0  0  0  0  0  0  0  0  0  0  0
    7.0662    3.6750    0.0000 H   0  0  0  0  0  0  0  0  0  0  0  0
    6.4244    0.2947    0.0000 H   0  0  0  0  0  0  0  0  0  0  0  0
    7.1202    0.6419    0.0000 H   0  0  0  0  0  0  0  0  0  0  0  0
    9.1742    0.2500    0.0000 H   0  0  0  0  0  0  0  0  0  0  0  0
    9.7942   -0.3700    0.0000 H   0  0  0  0  0  0  0  0  0  0  0  0
   10.4142    0.2500    0.0000 H   0  0  0  0  0  0  0  0  0  0  0  0
    5.6123    1.7486    0.0000 H   0  0  0  0  0  0  0  0  0  0  0  0
    8.7853    1.5940    0.0000 H   0  0  0  0  0  0  0  0  0  0  0  0
    8.2046    2.1400    0.0000 H   0  0  0  0  0  0  0  0  0  0  0  0
   13.3923   -1.8700    0.0000 H   0  0  0  0  0  0  0  0  0  0  0  0
   14.0123   -1.2500    0.0000 H   0  0  0  0  0  0  0  0  0  0  0  0
   13.3923   -0.6300    0.0000 H   0  0  0  0  0  0  0  0  0  0  0  0
    5.8891    2.0139    0.0000 H   0  0  0  0  0  0  0  0  0  0  0  0
   10.3312    4.5600    0.0000 H   0  0  0  0  0  0  0  0  0  0  0  0
   12.0823    2.2131    0.0000 H   0  0  0  0  0  0  0  0  0  0  0  0
   12.1463    4.2500    0.0000 H   0  0  0  0  0  0  0  0  0  0  0  0
   11.5263    4.8700    0.0000 H   0  0  0  0  0  0  0  0  0  0  0  0
   12.9292    2.4400    0.0000 H   0  0  0  0  0  0  0  0  0  0  0  0
   12.7023    3.2869    0.0000 H   0  0  0  0  0  0  0  0  0  0  0  0
   10.9063    4.2500    0.0000 H   0  0  0  0  0  0  0  0  0  0  0  0
    9.4842   -1.2131    0.0000 H   0  0  0  0  0  0  0  0  0  0  0  0
    9.2573   -2.0600    0.0000 H   0  0  0  0  0  0  0  0  0  0  0  0
   10.1042   -2.2869    0.0000 H   0  0  0  0  0  0  0  0  0  0  0  0
   13.5123   -2.1160    0.0000 H   0  0  0  0  0  0  0  0  0  0  0  0
    5.6706   -0.0267    0.0000 H   0  0  0  0  0  0  0  0  0  0  0  0
    3.9875    3.3577    0.0000 H   0  0  0  0  0  0  0  0  0  0  0  0
    4.3860    2.6674    0.0000 H   0  0  0  0  0  0  0  0  0  0  0  0
    4.6462    1.6456    0.0000 H   0  0  0  0  0  0  0  0  0  0  0  0
    3.9506    1.1119    0.0000 H   0  0  0  0  0  0  0  0  0  0  0  0
    4.4843    0.4162    0.0000 H   0  0  0  0  0  0  0  0  0  0  0  0
    9.0615    0.4216    0.0000 H   0  0  0  0  0  0  0  0  0  0  0  0
    4.0612    2.5597    0.0000 H   0  0  0  0  0  0  0  0  0  0  0  0
    3.5062   -0.0398    0.0000 H   0  0  0  0  0  0  0  0  0  0  0  0
    7.5062    4.2131    0.0000 H   0  0  0  0  0  0  0  0  0  0  0  0
    7.7331    5.0600    0.0000 H   0  0  0  0  0  0  0  0  0  0  0  0
    6.8862    5.2869    0.0000 H   0  0  0  0  0  0  0  0  0  0  0  0
   10.8723   -4.8326    0.0000 H   0  0  0  0  0  0  0  0  0  0  0  0
   11.2708   -4.1423    0.0000 H   0  0  0  0  0  0  0  0  0  0  0  0
    4.6700   -1.2110    0.0000 H   0  0  0  0  0  0  0  0  0  0  0  0
    9.2573   -5.0600    0.0000 H   0  0  0  0  0  0  0  0  0  0  0  0
    3.7611    1.8100    0.0000 H   0  0  0  0  0  0  0  0  0  0  0  0
    2.8660    5.1000    0.0000 H   0  0  0  0  0  0  0  0  0  0  0  0
    9.1742   -5.7500    0.0000 H   0  0  0  0  0  0  0  0  0  0  0  0
    9.7942   -6.3700    0.0000 H   0  0  0  0  0  0  0  0  0  0  0  0
   10.4142   -5.7500    0.0000 H   0  0  0  0  0  0  0  0  0  0  0  0
    9.2382   -3.7131    0.0000 H   0  0  0  0  0  0  0  0  0  0  0  0
    8.3913   -3.9400    0.0000 H   0  0  0  0  0  0  0  0  0  0  0  0
    8.6182   -4.7869    0.0000 H   0  0  0  0  0  0  0  0  0  0  0  0
    3.1760    2.7131    0.0000 H   0  0  0  0  0  0  0  0  0  0  0  0
    3.4649    3.4105    0.0000 H   0  0  0  0  0  0  0  0  0  0  0  0
    1.9793    1.1386    0.0000 H   0  0  0  0  0  0  0  0  0  0  0  0
    1.3894    4.8577    0.0000 H   0  0  0  0  0  0  0  0  0  0  0  0
    1.7880    4.1674    0.0000 H   0  0  0  0  0  0  0  0  0  0  0  0
    1.5600    2.7034    0.0000 H   0  0  0  0  0  0  0  0  0  0  0  0
    2.6200    5.7500    0.0000 H   0  0  0  0  0  0  0  0  0  0  0  0
    2.0000    6.3700    0.0000 H   0  0  0  0  0  0  0  0  0  0  0  0
    1.3800    5.7500    0.0000 H   0  0  0  0  0  0  0  0  0  0  0  0
  1 17  1  0  0  0  0
  1 23  1  0  0  0  0
  2 19  1  0  0  0  0
  2 20  1  0  0  0  0
  3 20  1  0  0  0  0
  3 21  1  0  0  0  0
  4 23  1  0  0  0  0
  4 27  1  0  0  0  0
  5 18  1  0  0  0  0
  5 82  1  0  0  0  0
  6 22  1  0  0  0  0
  6 92  1  0  0  0  0
  7 26  1  0  0  0  0
  7 42  1  0  0  0  0
  8 28  1  0  0  0  0
  8 44  1  0  0  0  0
  9 34  1  0  0  0  0
  9100  1  0  0  0  0
 10 38  1  0  0  0  0
 10107  1  0  0  0  0
 11 41  2  0  0  0  0
 12 45  1  0  0  0  0
 12 49  1  0  0  0  0
 13 42  2  0  0  0  0
 14 45  2  0  0  0  0
 15 16  1  0  0  0  0
 15 35  1  0  0  0  0
 15 36  1  0  0  0  0
 16 17  1  0  0  0  0
 16 18  1  0  0  0  0
 16 57  1  0  0  0  0
 17 19  1  0  0  0  0
 17 58  1  0  0  0  0
 18 20  1  0  0  0  0
 18 59  1  0  0  0  0
 19 30  1  0  0  0  0
 19 60  1  0  0  0  0
 20 61  1  0  0  0  0
 21 24  1  0  0  0  0
 21 28  1  0  0  0  0
 21 62  1  0  0  0  0
 22 25  1  0  0  0  0
 22 26  1  0  0  0  0
 22 33  1  0  0  0  0
 23 25  1  0  0  0  0
 23 63  1  0  0  0  0
 24 29  1  0  0  0  0
 24 32  1  0  0  0  0
 24 64  1  0  0  0  0
 25 65  1  0  0  0  0
 25 66  1  0  0  0  0
 26 27  1  0  0  0  0
 26 67  1  0  0  0  0
 27 37  1  0  0  0  0
 27 68  1  0  0  0  0
 28 34  1  0  0  0  0
 28 69  1  0  0  0  0
 29 31  1  0  0  0  0
 29 70  1  0  0  0  0
 29 71  1  0  0  0  0
 30 72  1  0  0  0  0
 30 73  1  0  0  0  0
 30 74  1  0  0  0  0
 31 38  1  0  0  0  0
 31 40  1  0  0  0  0
 31 75  1  0  0  0  0
 32 41  1  0  0  0  0
 32 76  1  0  0  0  0
 32 77  1  0  0  0  0
 33 78  1  0  0  0  0
 33 79  1  0  0  0  0
 33 80  1  0  0  0  0
 34 39  1  0  0  0  0
 34 81  1  0  0  0  0
 35 83  1  0  0  0  0
 35 86  1  0  0  0  0
 35 87  1  0  0  0  0
 36 84  1  0  0  0  0
 36 85  1  0  0  0  0
 36 88  1  0  0  0  0
 37 89  1  0  0  0  0
 37 90  1  0  0  0  0
 37 91  1  0  0  0  0
 38 43  1  0  0  0  0
 38 93  1  0  0  0  0
 39 45  1  0  0  0  0
 39 94  1  0  0  0  0
 39 95  1  0  0  0  0
 40 96  1  0  0  0  0
 40 97  1  0  0  0  0
 40 98  1  0  0  0  0
 41 99  1  0  0  0  0
 42 46  1  0  0  0  0
 43 48  2  3  0  0  0
 43101  1  0  0  0  0
 44102  1  0  0  0  0
 44103  1  0  0  0  0
 44104  1  0  0  0  0
 46 47  1  0  0  0  0
 46105  1  0  0  0  0
 46106  1  0  0  0  0
 47 50  1  0  0  0  0
 47 51  1  0  0  0  0
 47108  1  0  0  0  0
 48 53  1  0  0  0  0
 48109  1  0  0  0  0
 49 52  1  0  0  0  0
 49 54  1  0  0  0  0
 49110  1  0  0  0  0
 50111  1  0  0  0  0
 50112  1  0  0  0  0
 50113  1  0  0  0  0
 51114  1  0  0  0  0
 51115  1  0  0  0  0
 51116  1  0  0  0  0
 52 55  1  0  0  0  0
 52117  1  0  0  0  0
 52118  1  0  0  0  0
 53 55  2  3  0  0  0
 53119  1  0  0  0  0
 54 56  1  0  0  0  0
 54120  1  0  0  0  0
 54121  1  0  0  0  0
 55122  1  0  0  0  0
 56123  1  0  0  0  0
 56124  1  0  0  0  0
 56125  1  0  0  0  0
M  END
> <PUBCHEM_COMPOUND_CID>
3834

> <PUBCHEM_COMPOUND_CANONICALIZED>
1

> <PUBCHEM_CACTVS_COMPLEXITY>
1290

> <PUBCHEM_CACTVS_HBOND_ACCEPTOR>
15

> <PUBCHEM_CACTVS_HBOND_DONOR>
4

> <PUBCHEM_CACTVS_ROTATABLE_BOND>
13

> <PUBCHEM_CACTVS_SUBSKEYS>
AAADcfB+PAAAAAAAAAAAAAAAAAAAAAAAAAAkSAAAAAAAAAAAAAAAHgAACAAADXzxgAcCCAMABgCIACjSiAAAAAAgAAAICAEIAAgbFBYAgQAnUAAH4AAfkAPK7PzOAAAAAAAAAAAAAAAAAAAAAAAAAAAAAA==

> <PUBCHEM_IUPAC_OPENEYE_NAME>
[6-[4-(dimethylamino)-6-[[16-ethyl-4,10-dihydroxy-5-methoxy-9-methyl-2-oxo-7-(2-oxoethyl)-1-oxacyclohexadeca-11,13-dien-6-yl]oxy]-5-hydroxy-2-methyl-tetrahydropyran-3-yl]oxy-4-hydroxy-2,4-dimethyl-tetrahydropyran-3-yl] 3-methylbutanoate

> <PUBCHEM_IUPAC_CAS_NAME>
3-methylbutanoic acid [6-[[4-(dimethylamino)-6-[[16-ethyl-4,10-dihydroxy-5-methoxy-9-methyl-2-oxo-7-(2-oxoethyl)-1-oxacyclohexadeca-11,13-dien-6-yl]oxy]-5-hydroxy-2-methyl-3-oxanyl]oxy]-4-hydroxy-2,4-dimethyl-3-oxanyl] ester

> <PUBCHEM_IUPAC_NAME>
[6-[4-(dimethylamino)-6-[[16-ethyl-4,10-dihydroxy-5-methoxy-9-methyl-2-oxo-7-(2-oxoethyl)-1-oxacyclohexadeca-11,13-dien-6-yl]oxy]-5-hydroxy-2-methyloxan-3-yl]oxy-4-hydroxy-2,4-dimethyloxan-3-yl] 3-methylbutanoate

> <PUBCHEM_IUPAC_SYSTEMATIC_NAME>
[6-[4-(dimethylamino)-6-[[16-ethyl-5-methoxy-9-methyl-4,10-bis(oxidanyl)-2-oxidanylidene-7-(2-oxidanylideneethyl)-1-oxacyclohexadeca-11,13-dien-6-yl]oxy]-2-methyl-5-oxidanyl-oxan-3-yl]oxy-2,4-dimethyl-4-oxidanyl-oxan-3-yl] 3-methylbutanoate

> <PUBCHEM_IUPAC_TRADITIONAL_NAME>
3-methylbutyric acid [6-[4-(dimethylamino)-6-[[16-ethyl-4,10-dihydroxy-2-keto-7-(2-ketoethyl)-5-methoxy-9-methyl-1-oxacyclohexadeca-11,13-dien-6-yl]oxy]-5-hydroxy-2-methyl-tetrahydropyran-3-yl]oxy-4-hydroxy-2,4-dimethyl-tetrahydropyran-3-yl] ester

> <PUBCHEM_IUPAC_INCHI>
InChI=1S/C41H69NO14/c1-11-28-15-13-12-14-16-29(44)24(4)20-27(17-18-43)37(38(50-10)30(45)21-32(47)53-28)56-40-35(48)34(42(8)9)36(25(5)52-40)55-33-22-41(7,49)39(26(6)51-33)54-31(46)19-23(2)3/h12-14,16,18,23-30,33-40,44-45,48-49H,11,15,17,19-22H2,1-10H3

> <PUBCHEM_IUPAC_INCHIKEY>
RENNOCGRUQECRK-UHFFFAOYSA-N

> <PUBCHEM_XLOGP3_AA>
2.9

> <PUBCHEM_EXACT_MASS>
799.471806

> <PUBCHEM_MOLECULAR_FORMULA>
C41H69NO14

> <PUBCHEM_MOLECULAR_WEIGHT>
799.98486

> <PUBCHEM_OPENEYE_CAN_SMILES>
CCC1CC=CC=CC(C(CC(C(C(C(CC(=O)O1)O)OC)OC2C(C(C(C(O2)C)OC3CC(C(C(O3)C)OC(=O)CC(C)C)(C)O)N(C)C)O)CC=O)C)O

> <PUBCHEM_OPENEYE_ISO_SMILES>
CCC1CC=CC=CC(C(CC(C(C(C(CC(=O)O1)O)OC)OC2C(C(C(C(O2)C)OC3CC(C(C(O3)C)OC(=O)CC(C)C)(C)O)N(C)C)O)CC=O)C)O

> <PUBCHEM_CACTVS_TPSA>
200

> <PUBCHEM_MONOISOTOPIC_WEIGHT>
799.471806

> <PUBCHEM_TOTAL_CHARGE>
0

> <PUBCHEM_HEAVY_ATOM_COUNT>
56

> <PUBCHEM_ATOM_DEF_STEREO_COUNT>
0

> <PUBCHEM_ATOM_UDEF_STEREO_COUNT>
16

> <PUBCHEM_BOND_DEF_STEREO_COUNT>
0

> <PUBCHEM_BOND_UDEF_STEREO_COUNT>
2

> <PUBCHEM_ISOTOPIC_ATOM_COUNT>
0

> <PUBCHEM_COMPONENT_COUNT>
1

> <PUBCHEM_CACTVS_TAUTO_COUNT>
4

> <PUBCHEM_COORDINATE_TYPE>
1
5
255

> <PUBCHEM_BONDANNOTATIONS>
16  57  3
17  58  3
18  59  3
19  60  3
20  61  3
21  62  3
22  33  3
23  63  3
24  64  3
26  67  3
27  68  3
28  69  3
31  75  3
34  81  3
38  93  3
43  48  1
49  110  3
53  55  1

$$$$

