854076
  -OEChem-06241222472D

 41 43  0     1  0  0  0  0  0999 V2000
    9.2468    1.7298    0.0000 O   0  0  0  0  0  0  0  0  0  0  0  0
    2.9789   -2.9036    0.0000 O   0  0  0  0  0  0  0  0  0  0  0  0
    9.6265    0.0399    0.0000 O   0  0  0  0  0  0  0  0  0  0  0  0
    8.3780   -1.1672    0.0000 N   0  0  0  0  0  0  0  0  0  0  0  0
    5.8507   -0.0430    0.0000 N   0  0  0  0  0  0  0  0  0  0  0  0
    7.6751   -0.3985    0.0000 C   0  0  1  0  0  0  0  0  0  0  0  0
    6.6597   -0.6308    0.0000 C   0  0  0  0  0  0  0  0  0  0  0  0
    6.3507   -1.5818    0.0000 C   0  0  0  0  0  0  0  0  0  0  0  0
    7.0356   -2.3666    0.0000 C   0  0  0  0  0  0  0  0  0  0  0  0
    8.0562   -2.1579    0.0000 C   0  0  0  0  0  0  0  0  0  0  0  0
    5.3507   -1.5818    0.0000 C   0  0  0  0  0  0  0  0  0  0  0  0
    7.9731    0.5560    0.0000 C   0  0  0  0  0  0  0  0  0  0  0  0
    5.0417   -0.6308    0.0000 C   0  0  0  0  0  0  0  0  0  0  0  0
    4.6657   -2.3666    0.0000 C   0  0  0  0  0  0  0  0  0  0  0  0
    4.0263   -0.3985    0.0000 C   0  0  0  0  0  0  0  0  0  0  0  0
    8.9488    0.7752    0.0000 C   0  0  0  0  0  0  0  0  0  0  0  0
    3.6452   -2.1579    0.0000 C   0  0  0  0  0  0  0  0  0  0  0  0
    3.3233   -1.1672    0.0000 C   0  0  0  0  0  0  0  0  0  0  0  0
   10.2225    1.9490    0.0000 C   0  0  0  0  0  0  0  0  0  0  0  0
    2.0000   -2.6994    0.0000 C   0  0  0  0  0  0  0  0  0  0  0  0
   10.5205    2.9036    0.0000 C   0  0  0  0  0  0  0  0  0  0  0  0
    8.2803   -0.2638    0.0000 H   0  0  0  0  0  0  0  0  0  0  0  0
    6.5057   -2.6883    0.0000 H   0  0  0  0  0  0  0  0  0  0  0  0
    7.2620   -2.9438    0.0000 H   0  0  0  0  0  0  0  0  0  0  0  0
    8.0746   -2.7776    0.0000 H   0  0  0  0  0  0  0  0  0  0  0  0
    8.6699   -2.2457    0.0000 H   0  0  0  0  0  0  0  0  0  0  0  0
    8.9840   -1.0360    0.0000 H   0  0  0  0  0  0  0  0  0  0  0  0
    5.8507    0.5770    0.0000 H   0  0  0  0  0  0  0  0  0  0  0  0
    7.9443    1.1754    0.0000 H   0  0  0  0  0  0  0  0  0  0  0  0
    7.3582    0.6352    0.0000 H   0  0  0  0  0  0  0  0  0  0  0  0
    4.8641   -2.9540    0.0000 H   0  0  0  0  0  0  0  0  0  0  0  0
    3.8415    0.1933    0.0000 H   0  0  0  0  0  0  0  0  0  0  0  0
    2.7174   -1.0360    0.0000 H   0  0  0  0  0  0  0  0  0  0  0  0
   10.2513    1.3297    0.0000 H   0  0  0  0  0  0  0  0  0  0  0  0
   10.8374    1.8698    0.0000 H   0  0  0  0  0  0  0  0  0  0  0  0
    2.1266   -2.0925    0.0000 H   0  0  0  0  0  0  0  0  0  0  0  0
    1.3931   -2.5729    0.0000 H   0  0  0  0  0  0  0  0  0  0  0  0
    1.8734   -3.3064    0.0000 H   0  0  0  0  0  0  0  0  0  0  0  0
   11.1123    2.7188    0.0000 H   0  0  0  0  0  0  0  0  0  0  0  0
   10.7052    3.4954    0.0000 H   0  0  0  0  0  0  0  0  0  0  0  0
    9.9286    3.0883    0.0000 H   0  0  0  0  0  0  0  0  0  0  0  0
  1 16  1  0  0  0  0
  1 19  1  0  0  0  0
  2 17  1  0  0  0  0
  2 20  1  0  0  0  0
  3 16  2  0  0  0  0
  4  6  1  0  0  0  0
  4 10  1  0  0  0  0
  4 27  1  0  0  0  0
  5  7  1  0  0  0  0
  5 13  1  0  0  0  0
  5 28  1  0  0  0  0
  6  7  1  0  0  0  0
  6 12  1  1  0  0  0
  6 22  1  0  0  0  0
  7  8  2  0  0  0  0
  8  9  1  0  0  0  0
  8 11  1  0  0  0  0
  9 10  1  0  0  0  0
  9 23  1  0  0  0  0
  9 24  1  0  0  0  0
 10 25  1  0  0  0  0
 10 26  1  0  0  0  0
 11 13  2  0  0  0  0
 11 14  1  0  0  0  0
 12 16  1  0  0  0  0
 12 29  1  0  0  0  0
 12 30  1  0  0  0  0
 13 15  1  0  0  0  0
 14 17  2  0  0  0  0
 14 31  1  0  0  0  0
 15 18  2  0  0  0  0
 15 32  1  0  0  0  0
 17 18  1  0  0  0  0
 18 33  1  0  0  0  0
 19 21  1  0  0  0  0
 19 34  1  0  0  0  0
 19 35  1  0  0  0  0
 20 36  1  0  0  0  0
 20 37  1  0  0  0  0
 20 38  1  0  0  0  0
 21 39  1  0  0  0  0
 21 40  1  0  0  0  0
 21 41  1  0  0  0  0
M  END
> <PUBCHEM_COMPOUND_CID>
854076

> <PUBCHEM_COMPOUND_CANONICALIZED>
1

> <PUBCHEM_CACTVS_COMPLEXITY>
377

> <PUBCHEM_CACTVS_HBOND_ACCEPTOR>
4

> <PUBCHEM_CACTVS_HBOND_DONOR>
2

> <PUBCHEM_CACTVS_ROTATABLE_BOND>
5

> <PUBCHEM_CACTVS_SUBSKEYS>
AAADceB7MAAAAAAAAAAAAAAAAAAAAWAAAAA8QAAAAAAAAFgB8AAAHgAQAAAADCzhngYyzvLJlACoAyTyTACCiCAhIiAImaE+bJgMZvrEsZuWMChm0BHI6Ae82POOgEABAAACAAAAgAIAAAQAAAAAAAAAAA==

> <PUBCHEM_IUPAC_OPENEYE_NAME>
ethyl 2-[(1R)-6-methoxy-2,3,4,9-tetrahydro-1H-pyrido[3,4-b]indol-1-yl]acetate

> <PUBCHEM_IUPAC_CAS_NAME>
2-[(1R)-6-methoxy-2,3,4,9-tetrahydro-1H-pyrido[3,4-b]indol-1-yl]acetic acid ethyl ester

> <PUBCHEM_IUPAC_NAME>
ethyl 2-[(1R)-6-methoxy-2,3,4,9-tetrahydro-1H-pyrido[3,4-b]indol-1-yl]acetate

> <PUBCHEM_IUPAC_SYSTEMATIC_NAME>
ethyl 2-[(1R)-6-methoxy-2,3,4,9-tetrahydro-1H-pyrido[3,4-b]indol-1-yl]ethanoate

> <PUBCHEM_IUPAC_TRADITIONAL_NAME>
2-[(1R)-6-methoxy-2,3,4,9-tetrahydro-1H-$b-carbolin-1-yl]acetic acid ethyl ester

> <PUBCHEM_IUPAC_INCHI>
InChI=1S/C16H20N2O3/c1-3-21-15(19)9-14-16-11(6-7-17-14)12-8-10(20-2)4-5-13(12)18-16/h4-5,8,14,17-18H,3,6-7,9H2,1-2H3/t14-/m1/s1

> <PUBCHEM_IUPAC_INCHIKEY>
KFMXFWYHHQZOJN-CQSZACIVSA-N

> <PUBCHEM_XLOGP3_AA>
1.7

> <PUBCHEM_EXACT_MASS>
288.147393

> <PUBCHEM_MOLECULAR_FORMULA>
C16H20N2O3

> <PUBCHEM_MOLECULAR_WEIGHT>
288.3416

> <PUBCHEM_OPENEYE_CAN_SMILES>
CCOC(=O)CC1C2=C(CCN1)C3=C(N2)C=CC(=C3)OC

> <PUBCHEM_OPENEYE_ISO_SMILES>
CCOC(=O)C[C@@H]1C2=C(CCN1)C3=C(N2)C=CC(=C3)OC

> <PUBCHEM_CACTVS_TPSA>
63.4

> <PUBCHEM_MONOISOTOPIC_WEIGHT>
288.147393

> <PUBCHEM_TOTAL_CHARGE>
0

> <PUBCHEM_HEAVY_ATOM_COUNT>
21

> <PUBCHEM_ATOM_DEF_STEREO_COUNT>
1

> <PUBCHEM_ATOM_UDEF_STEREO_COUNT>
0

> <PUBCHEM_BOND_DEF_STEREO_COUNT>
0

> <PUBCHEM_BOND_UDEF_STEREO_COUNT>
0

> <PUBCHEM_ISOTOPIC_ATOM_COUNT>
0

> <PUBCHEM_COMPONENT_COUNT>
1

> <PUBCHEM_CACTVS_TAUTO_COUNT>
1

> <PUBCHEM_COORDINATE_TYPE>
1
5
255

> <PUBCHEM_BONDANNOTATIONS>
11  13  8
11  14  8
13  15  8
14  17  8
15  18  8
17  18  8
5  13  8
5  7  8
6  12  5
7  8  8
8  11  8

$$$$

