11236
  -OEChem-06261205252D

 12 10  0     0  0  0  0  0  0999 V2000
    1.3360    0.0000    0.0000 Cl  0  0  0  0  0  0  0  0  0  0  0  0
    2.2690    4.6200    0.0000 O   0  0  0  0  0  0  0  0  0  0  0  0
    1.4030    3.1200    0.0000 N   0  0  0  0  0  0  0  0  0  0  0  0
    0.5369    3.6200    0.0000 N   0  0  0  0  0  0  0  0  0  0  0  0
    3.1350    3.1200    0.0000 N   0  0  0  0  0  0  0  0  0  0  0  0
    2.2690    3.6200    0.0000 C   0  0  0  0  0  0  0  0  0  0  0  0
    1.4030    2.5000    0.0000 H   0  0  0  0  0  0  0  0  0  0  0  0
    0.0000    3.3100    0.0000 H   0  0  0  0  0  0  0  0  0  0  0  0
    0.5369    4.2400    0.0000 H   0  0  0  0  0  0  0  0  0  0  0  0
    3.6720    3.4300    0.0000 H   0  0  0  0  0  0  0  0  0  0  0  0
    3.1350    2.5000    0.0000 H   0  0  0  0  0  0  0  0  0  0  0  0
    2.3360    0.0000    0.0000 H   0  0  0  0  0  0  0  0  0  0  0  0
  1 12  1  0  0  0  0
  2  6  2  0  0  0  0
  3  4  1  0  0  0  0
  3  6  1  0  0  0  0
  3  7  1  0  0  0  0
  4  8  1  0  0  0  0
  4  9  1  0  0  0  0
  5  6  1  0  0  0  0
  5 10  1  0  0  0  0
  5 11  1  0  0  0  0
M  END
> <PUBCHEM_COMPOUND_CID>
11236

> <PUBCHEM_COMPOUND_CANONICALIZED>
1

> <PUBCHEM_CACTVS_COMPLEXITY>
42.2

> <PUBCHEM_CACTVS_HBOND_ACCEPTOR>
2

> <PUBCHEM_CACTVS_HBOND_DONOR>
4

> <PUBCHEM_CACTVS_ROTATABLE_BOND>
0

> <PUBCHEM_CACTVS_SUBSKEYS>
AAADcYADIAAEAAAAAAAAAAAAAAAAAAAAAAAAAAAAAAAAAAAAAAAABgAYAAAAAAAAAAABAABiAAAIAAAAEAAAAAAAAAIGIAAAAAAAAAAAAAAAAAAQAAAAAAAAAAAAAAAAAAAAAAAAAAAAAAAAAAAAAAAAAA==

> <PUBCHEM_IUPAC_OPENEYE_NAME>
aminourea hydrochloride

> <PUBCHEM_IUPAC_CAS_NAME>
aminourea hydrochloride

> <PUBCHEM_IUPAC_NAME>
aminourea hydrochloride

> <PUBCHEM_IUPAC_SYSTEMATIC_NAME>
1-azanylurea hydrochloride

> <PUBCHEM_IUPAC_TRADITIONAL_NAME>
aminourea hydrochloride

> <PUBCHEM_IUPAC_INCHI>
InChI=1S/CH5N3O.ClH/c2-1(5)4-3;/h3H2,(H3,2,4,5);1H

> <PUBCHEM_IUPAC_INCHIKEY>
XHQYBDSXTDXSHY-UHFFFAOYSA-N

> <PUBCHEM_EXACT_MASS>
111.01994

> <PUBCHEM_MOLECULAR_FORMULA>
CH6ClN3O

> <PUBCHEM_MOLECULAR_WEIGHT>
111.53084

> <PUBCHEM_OPENEYE_CAN_SMILES>
C(=O)(N)NN.Cl

> <PUBCHEM_OPENEYE_ISO_SMILES>
C(=O)(N)NN.Cl

> <PUBCHEM_CACTVS_TPSA>
81.1

> <PUBCHEM_MONOISOTOPIC_WEIGHT>
111.01994

> <PUBCHEM_TOTAL_CHARGE>
0

> <PUBCHEM_HEAVY_ATOM_COUNT>
6

> <PUBCHEM_ATOM_DEF_STEREO_COUNT>
0

> <PUBCHEM_ATOM_UDEF_STEREO_COUNT>
0

> <PUBCHEM_BOND_DEF_STEREO_COUNT>
0

> <PUBCHEM_BOND_UDEF_STEREO_COUNT>
0

> <PUBCHEM_ISOTOPIC_ATOM_COUNT>
0

> <PUBCHEM_COMPONENT_COUNT>
2

> <PUBCHEM_CACTVS_TAUTO_COUNT>
3

> <PUBCHEM_COORDINATE_TYPE>
1
5
255

$$$$

