11770
  -OEChem-06261206052D

 15 15  0     0  0  0  0  0  0999 V2000
    2.0000    0.4400    0.0000 F   0  0  0  0  0  0  0  0  0  0  0  0
    5.4641    0.4400    0.0000 F   0  0  0  0  0  0  0  0  0  0  0  0
    5.4641   -1.5600    0.0000 F   0  0  0  0  0  0  0  0  0  0  0  0
    2.0000   -1.5600    0.0000 F   0  0  0  0  0  0  0  0  0  0  0  0
    3.7320   -2.5600    0.0000 F   0  0  0  0  0  0  0  0  0  0  0  0
    4.5981    1.9400    0.0000 O   0  0  0  0  0  0  0  0  0  0  0  0
    2.8660    1.9400    0.0000 O   0  0  0  0  0  0  0  0  0  0  0  0
    3.7320    0.4400    0.0000 C   0  0  0  0  0  0  0  0  0  0  0  0
    2.8660   -0.0600    0.0000 C   0  0  0  0  0  0  0  0  0  0  0  0
    4.5981   -0.0600    0.0000 C   0  0  0  0  0  0  0  0  0  0  0  0
    4.5981   -1.0600    0.0000 C   0  0  0  0  0  0  0  0  0  0  0  0
    2.8660   -1.0600    0.0000 C   0  0  0  0  0  0  0  0  0  0  0  0
    3.7320   -1.5600    0.0000 C   0  0  0  0  0  0  0  0  0  0  0  0
    3.7320    1.4400    0.0000 C   0  0  0  0  0  0  0  0  0  0  0  0
    4.5981    2.5600    0.0000 H   0  0  0  0  0  0  0  0  0  0  0  0
  1  9  1  0  0  0  0
  2 10  1  0  0  0  0
  3 11  1  0  0  0  0
  4 12  1  0  0  0  0
  5 13  1  0  0  0  0
  6 14  1  0  0  0  0
  6 15  1  0  0  0  0
  7 14  2  0  0  0  0
  8  9  2  0  0  0  0
  8 10  1  0  0  0  0
  8 14  1  0  0  0  0
  9 12  1  0  0  0  0
 10 11  2  0  0  0  0
 11 13  1  0  0  0  0
 12 13  2  0  0  0  0
M  END
> <PUBCHEM_COMPOUND_CID>
11770

> <PUBCHEM_COMPOUND_CANONICALIZED>
1

> <PUBCHEM_CACTVS_COMPLEXITY>
220

> <PUBCHEM_CACTVS_HBOND_ACCEPTOR>
7

> <PUBCHEM_CACTVS_HBOND_DONOR>
1

> <PUBCHEM_CACTVS_ROTATABLE_BOND>
1

> <PUBCHEM_CACTVS_SUBSKEYS>
AAADcQBgMcAAAAAAAAAAAAAAAAAAAAAAAAAwAAAAAAAAAAABAAAACwAACAAADAAAmAgACIAAAgCIAgDQCAACAAAkAAAAiAEACMgIJjKAFBCAcQAkwAEImQeIyCCOAAAAAAAAAAAAAAAAAAAAAAAAAAAAAA==

> <PUBCHEM_IUPAC_OPENEYE_NAME>
2,3,4,5,6-pentafluorobenzoic acid

> <PUBCHEM_IUPAC_CAS_NAME>
2,3,4,5,6-pentafluorobenzoic acid

> <PUBCHEM_IUPAC_NAME>
2,3,4,5,6-pentafluorobenzoic acid

> <PUBCHEM_IUPAC_SYSTEMATIC_NAME>
2,3,4,5,6-pentakis(fluoranyl)benzoic acid

> <PUBCHEM_IUPAC_TRADITIONAL_NAME>
2,3,4,5,6-pentafluorobenzoic acid

> <PUBCHEM_IUPAC_INCHI>
InChI=1S/C7HF5O2/c8-2-1(7(13)14)3(9)5(11)6(12)4(2)10/h(H,13,14)

> <PUBCHEM_IUPAC_INCHIKEY>
YZERDTREOUSUHF-UHFFFAOYSA-N

> <PUBCHEM_XLOGP3_AA>
2

> <PUBCHEM_EXACT_MASS>
211.98967

> <PUBCHEM_MOLECULAR_FORMULA>
C7HF5O2

> <PUBCHEM_MOLECULAR_WEIGHT>
212.073656

> <PUBCHEM_OPENEYE_CAN_SMILES>
C1(=C(C(=C(C(=C1F)F)F)F)F)C(=O)O

> <PUBCHEM_OPENEYE_ISO_SMILES>
C1(=C(C(=C(C(=C1F)F)F)F)F)C(=O)O

> <PUBCHEM_CACTVS_TPSA>
37.3

> <PUBCHEM_MONOISOTOPIC_WEIGHT>
211.98967

> <PUBCHEM_TOTAL_CHARGE>
0

> <PUBCHEM_HEAVY_ATOM_COUNT>
14

> <PUBCHEM_ATOM_DEF_STEREO_COUNT>
0

> <PUBCHEM_ATOM_UDEF_STEREO_COUNT>
0

> <PUBCHEM_BOND_DEF_STEREO_COUNT>
0

> <PUBCHEM_BOND_UDEF_STEREO_COUNT>
0

> <PUBCHEM_ISOTOPIC_ATOM_COUNT>
0

> <PUBCHEM_COMPONENT_COUNT>
1

> <PUBCHEM_CACTVS_TAUTO_COUNT>
1

> <PUBCHEM_COORDINATE_TYPE>
1
5
255

> <PUBCHEM_BONDANNOTATIONS>
10  11  8
11  13  8
12  13  8
8  10  8
8  9  8
9  12  8

$$$$

