17396302
  -OEChem-06241222552D

 24 25  0     0  0  0  0  0  0999 V2000
    3.7891    1.6639    0.0000 S   0  0  0  0  0  0  0  0  0  0  0  0
    5.4641   -3.4239    0.0000 F   0  0  0  0  0  0  0  0  0  0  0  0
    2.0000   -3.4239    0.0000 F   0  0  0  0  0  0  0  0  0  0  0  0
    2.8660    0.0761    0.0000 O   0  0  0  0  0  0  0  0  0  0  0  0
    4.5981    0.0761    0.0000 N   0  0  0  0  0  0  0  0  0  0  0  0
    5.4071    1.6639    0.0000 N   0  0  0  0  0  0  0  0  0  0  0  0
    5.0981    2.6149    0.0000 N   0  0  0  0  0  0  0  0  0  0  0  0
    3.7320   -1.4239    0.0000 C   0  0  0  0  0  0  0  0  0  0  0  0
    3.7320   -0.4239    0.0000 C   0  0  0  0  0  0  0  0  0  0  0  0
    2.8660   -1.9239    0.0000 C   0  0  0  0  0  0  0  0  0  0  0  0
    4.5981   -1.9239    0.0000 C   0  0  0  0  0  0  0  0  0  0  0  0
    4.5981    1.0761    0.0000 C   0  0  0  0  0  0  0  0  0  0  0  0
    4.5981   -2.9239    0.0000 C   0  0  0  0  0  0  0  0  0  0  0  0
    2.8660   -2.9239    0.0000 C   0  0  0  0  0  0  0  0  0  0  0  0
    3.7320   -3.4239    0.0000 C   0  0  0  0  0  0  0  0  0  0  0  0
    4.0981    2.6149    0.0000 C   0  0  0  0  0  0  0  0  0  0  0  0
    3.5103    3.4239    0.0000 C   0  0  0  0  0  0  0  0  0  0  0  0
    2.3291   -1.6139    0.0000 H   0  0  0  0  0  0  0  0  0  0  0  0
    5.1350   -1.6139    0.0000 H   0  0  0  0  0  0  0  0  0  0  0  0
    5.1350   -0.2339    0.0000 H   0  0  0  0  0  0  0  0  0  0  0  0
    3.7320   -4.0439    0.0000 H   0  0  0  0  0  0  0  0  0  0  0  0
    4.0119    3.7884    0.0000 H   0  0  0  0  0  0  0  0  0  0  0  0
    3.1459    3.9255    0.0000 H   0  0  0  0  0  0  0  0  0  0  0  0
    3.0087    3.0595    0.0000 H   0  0  0  0  0  0  0  0  0  0  0  0
  1 12  1  0  0  0  0
  1 16  1  0  0  0  0
  2 13  1  0  0  0  0
  3 14  1  0  0  0  0
  4  9  2  0  0  0  0
  5  9  1  0  0  0  0
  5 12  1  0  0  0  0
  5 20  1  0  0  0  0
  6  7  1  0  0  0  0
  6 12  2  0  0  0  0
  7 16  2  0  0  0  0
  8  9  1  0  0  0  0
  8 10  2  0  0  0  0
  8 11  1  0  0  0  0
 10 14  1  0  0  0  0
 10 18  1  0  0  0  0
 11 13  2  0  0  0  0
 11 19  1  0  0  0  0
 13 15  1  0  0  0  0
 14 15  2  0  0  0  0
 15 21  1  0  0  0  0
 16 17  1  0  0  0  0
 17 22  1  0  0  0  0
 17 23  1  0  0  0  0
 17 24  1  0  0  0  0
M  END
> <PUBCHEM_COMPOUND_CID>
17396302

> <PUBCHEM_COMPOUND_CANONICALIZED>
1

> <PUBCHEM_CACTVS_COMPLEXITY>
285

> <PUBCHEM_CACTVS_HBOND_ACCEPTOR>
6

> <PUBCHEM_CACTVS_HBOND_DONOR>
1

> <PUBCHEM_CACTVS_ROTATABLE_BOND>
2

> <PUBCHEM_CACTVS_SUBSKEYS>
AAADcYBzIYBAAAAAAAAAAAAAAAAAAWAAAAAwAAAAAAAAAAABwAAAHwQYAAAADACB2ggzEILAAAiuAiFyMACSAIJkABkViAEQBMiIIDKAnRGEIQhwiQIIiYcYiACOAAAAAAAAAAAAAAAAAAAAAAAAAAAAAA==

> <PUBCHEM_IUPAC_OPENEYE_NAME>
3,5-difluoro-N-(5-methyl-1,3,4-thiadiazol-2-yl)benzamide

> <PUBCHEM_IUPAC_CAS_NAME>
3,5-difluoro-N-(5-methyl-1,3,4-thiadiazol-2-yl)benzamide

> <PUBCHEM_IUPAC_NAME>
3,5-difluoro-N-(5-methyl-1,3,4-thiadiazol-2-yl)benzamide

> <PUBCHEM_IUPAC_SYSTEMATIC_NAME>
3,5-bis(fluoranyl)-N-(5-methyl-1,3,4-thiadiazol-2-yl)benzamide

> <PUBCHEM_IUPAC_TRADITIONAL_NAME>
3,5-difluoro-N-(5-methyl-1,3,4-thiadiazol-2-yl)benzamide

> <PUBCHEM_IUPAC_INCHI>
InChI=1S/C10H7F2N3OS/c1-5-14-15-10(17-5)13-9(16)6-2-7(11)4-8(12)3-6/h2-4H,1H3,(H,13,15,16)

> <PUBCHEM_IUPAC_INCHIKEY>
VPRHHJHWXGEIJI-UHFFFAOYSA-N

> <PUBCHEM_XLOGP3_AA>
2.1

> <PUBCHEM_EXACT_MASS>
255.027789

> <PUBCHEM_MOLECULAR_FORMULA>
C10H7F2N3OS

> <PUBCHEM_MOLECULAR_WEIGHT>
255.243886

> <PUBCHEM_OPENEYE_CAN_SMILES>
CC1=NN=C(S1)NC(=O)C2=CC(=CC(=C2)F)F

> <PUBCHEM_OPENEYE_ISO_SMILES>
CC1=NN=C(S1)NC(=O)C2=CC(=CC(=C2)F)F

> <PUBCHEM_CACTVS_TPSA>
83.1

> <PUBCHEM_MONOISOTOPIC_WEIGHT>
255.027789

> <PUBCHEM_TOTAL_CHARGE>
0

> <PUBCHEM_HEAVY_ATOM_COUNT>
17

> <PUBCHEM_ATOM_DEF_STEREO_COUNT>
0

> <PUBCHEM_ATOM_UDEF_STEREO_COUNT>
0

> <PUBCHEM_BOND_DEF_STEREO_COUNT>
0

> <PUBCHEM_BOND_UDEF_STEREO_COUNT>
0

> <PUBCHEM_ISOTOPIC_ATOM_COUNT>
0

> <PUBCHEM_COMPONENT_COUNT>
1

> <PUBCHEM_CACTVS_TAUTO_COUNT>
3

> <PUBCHEM_COORDINATE_TYPE>
1
5
255

> <PUBCHEM_BONDANNOTATIONS>
1  12  8
1  16  8
10  14  8
11  13  8
13  15  8
14  15  8
6  12  8
6  7  8
7  16  8
8  10  8
8  11  8

$$$$

