10308
  -OEChem-06261204272D

 28 30  0     0  0  0  0  0  0999 V2000
    4.8830   -0.7853    0.0000 N   0  0  0  0  0  0  0  0  0  0  0  0
    5.3830    1.4053    0.0000 C   0  0  0  0  0  0  0  0  0  0  0  0
    4.3830    1.4053    0.0000 C   0  0  0  0  0  0  0  0  0  0  0  0
    6.0065    0.6235    0.0000 C   0  0  0  0  0  0  0  0  0  0  0  0
    3.7595    0.6235    0.0000 C   0  0  0  0  0  0  0  0  0  0  0  0
    3.9820   -0.3514    0.0000 C   0  0  0  0  0  0  0  0  0  0  0  0
    5.7840   -0.3514    0.0000 C   0  0  0  0  0  0  0  0  0  0  0  0
    6.9970    0.9458    0.0000 C   0  0  0  0  0  0  0  0  0  0  0  0
    2.7690    0.9458    0.0000 C   0  0  0  0  0  0  0  0  0  0  0  0
    6.5365   -1.0716    0.0000 C   0  0  0  0  0  0  0  0  0  0  0  0
    3.2295   -1.0716    0.0000 C   0  0  0  0  0  0  0  0  0  0  0  0
    2.0000    0.2433    0.0000 C   0  0  0  0  0  0  0  0  0  0  0  0
    7.7660    0.2432    0.0000 C   0  0  0  0  0  0  0  0  0  0  0  0
    7.5342   -0.7723    0.0000 C   0  0  0  0  0  0  0  0  0  0  0  0
    2.2318   -0.7723    0.0000 C   0  0  0  0  0  0  0  0  0  0  0  0
    5.9416    1.6743    0.0000 H   0  0  0  0  0  0  0  0  0  0  0  0
    5.2450    2.0098    0.0000 H   0  0  0  0  0  0  0  0  0  0  0  0
    4.5210    2.0098    0.0000 H   0  0  0  0  0  0  0  0  0  0  0  0
    3.8244    1.6743    0.0000 H   0  0  0  0  0  0  0  0  0  0  0  0
    4.8830   -1.4053    0.0000 H   0  0  0  0  0  0  0  0  0  0  0  0
    7.1280    1.5518    0.0000 H   0  0  0  0  0  0  0  0  0  0  0  0
    2.6380    1.5518    0.0000 H   0  0  0  0  0  0  0  0  0  0  0  0
    6.3916   -1.6744    0.0000 H   0  0  0  0  0  0  0  0  0  0  0  0
    3.3744   -1.6744    0.0000 H   0  0  0  0  0  0  0  0  0  0  0  0
    8.3578    0.4282    0.0000 H   0  0  0  0  0  0  0  0  0  0  0  0
    1.4083    0.4283    0.0000 H   0  0  0  0  0  0  0  0  0  0  0  0
    7.9871   -1.1958    0.0000 H   0  0  0  0  0  0  0  0  0  0  0  0
    1.7789   -1.1957    0.0000 H   0  0  0  0  0  0  0  0  0  0  0  0
  1  6  1  0  0  0  0
  1  7  1  0  0  0  0
  1 20  1  0  0  0  0
  2  3  1  0  0  0  0
  2  4  1  0  0  0  0
  2 16  1  0  0  0  0
  2 17  1  0  0  0  0
  3  5  1  0  0  0  0
  3 18  1  0  0  0  0
  3 19  1  0  0  0  0
  4  7  1  0  0  0  0
  4  8  2  0  0  0  0
  5  6  1  0  0  0  0
  5  9  2  0  0  0  0
  6 11  2  0  0  0  0
  7 10  2  0  0  0  0
  8 13  1  0  0  0  0
  8 21  1  0  0  0  0
  9 12  1  0  0  0  0
  9 22  1  0  0  0  0
 10 14  1  0  0  0  0
 10 23  1  0  0  0  0
 11 15  1  0  0  0  0
 11 24  1  0  0  0  0
 12 15  2  0  0  0  0
 12 26  1  0  0  0  0
 13 14  2  0  0  0  0
 13 25  1  0  0  0  0
 14 27  1  0  0  0  0
 15 28  1  0  0  0  0
M  END
> <PUBCHEM_COMPOUND_CID>
10308

> <PUBCHEM_COMPOUND_CANONICALIZED>
1

> <PUBCHEM_CACTVS_COMPLEXITY>
191

> <PUBCHEM_CACTVS_HBOND_ACCEPTOR>
1

> <PUBCHEM_CACTVS_HBOND_DONOR>
1

> <PUBCHEM_CACTVS_ROTATABLE_BOND>
0

> <PUBCHEM_CACTVS_SUBSKEYS>
AAADccByAAAAAAAAAAAAAAAAAAAAAAAAAAAwYAAABYAAAAABQAAAHAAQAAAADAiBGAAwwILAAACAAiRCQACCAAAhAgAIiAAAZIgIIGLAkZGEIAhgkADIyAcQgMAOAAAAAAACAAAAAAAAAAQAAAAAAAAAAA==

> <PUBCHEM_IUPAC_OPENEYE_NAME>
6,11-dihydro-5H-benzo[b][1]benzazepine

> <PUBCHEM_IUPAC_CAS_NAME>
6,11-dihydro-5H-benzo[b][1]benzazepine

> <PUBCHEM_IUPAC_NAME>
6,11-dihydro-5H-benzo[b][1]benzazepine

> <PUBCHEM_IUPAC_SYSTEMATIC_NAME>
6,11-dihydro-5H-benzo[b][1]benzazepine

> <PUBCHEM_IUPAC_TRADITIONAL_NAME>
6,11-dihydro-5H-benzo[b][1]benzazepine

> <PUBCHEM_IUPAC_INCHI>
InChI=1S/C14H13N/c1-3-7-13-11(5-1)9-10-12-6-2-4-8-14(12)15-13/h1-8,15H,9-10H2

> <PUBCHEM_IUPAC_INCHIKEY>
ZSMRRZONCYIFNB-UHFFFAOYSA-N

> <PUBCHEM_XLOGP3_AA>
3.8

> <PUBCHEM_EXACT_MASS>
195.104799

> <PUBCHEM_MOLECULAR_FORMULA>
C14H13N

> <PUBCHEM_MOLECULAR_WEIGHT>
195.25972

> <PUBCHEM_OPENEYE_CAN_SMILES>
C1CC2=CC=CC=C2NC3=CC=CC=C31

> <PUBCHEM_OPENEYE_ISO_SMILES>
C1CC2=CC=CC=C2NC3=CC=CC=C31

> <PUBCHEM_CACTVS_TPSA>
12

> <PUBCHEM_MONOISOTOPIC_WEIGHT>
195.104799

> <PUBCHEM_TOTAL_CHARGE>
0

> <PUBCHEM_HEAVY_ATOM_COUNT>
15

> <PUBCHEM_ATOM_DEF_STEREO_COUNT>
0

> <PUBCHEM_ATOM_UDEF_STEREO_COUNT>
0

> <PUBCHEM_BOND_DEF_STEREO_COUNT>
0

> <PUBCHEM_BOND_UDEF_STEREO_COUNT>
0

> <PUBCHEM_ISOTOPIC_ATOM_COUNT>
0

> <PUBCHEM_COMPONENT_COUNT>
1

> <PUBCHEM_CACTVS_TAUTO_COUNT>
1

> <PUBCHEM_COORDINATE_TYPE>
1
5
255

> <PUBCHEM_BONDANNOTATIONS>
10  14  8
11  15  8
12  15  8
13  14  8
4  7  8
4  8  8
5  6  8
5  9  8
6  11  8
7  10  8
8  13  8
9  12  8

$$$$

