854058
  -OEChem-06241222472D

 31 33  0     1  0  0  0  0  0999 V2000
    5.5202   -0.6565    0.0000 S   0  0  0  0  0  0  0  0  0  0  0  0
    2.0000   -0.6565    0.0000 O   0  0  0  0  0  0  0  0  0  0  0  0
    3.7601   -0.9353    0.0000 N   0  0  0  0  0  0  0  0  0  0  0  0
    4.2601    0.6036    0.0000 N   0  0  0  0  0  0  0  0  0  0  0  0
    4.0572    2.5340    0.0000 N   0  0  0  0  0  0  0  0  0  0  0  0
    3.2482    3.9353    0.0000 N   0  0  0  0  0  0  0  0  0  0  0  0
    3.2601    0.6036    0.0000 C   0  0  2  0  0  0  0  0  0  0  0  0
    2.6723    1.4126    0.0000 C   0  0  0  0  0  0  0  0  0  0  0  0
    2.9511   -0.3475    0.0000 C   0  0  0  0  0  0  0  0  0  0  0  0
    4.5691   -0.3475    0.0000 C   0  0  0  0  0  0  0  0  0  0  0  0
    3.0790    2.3261    0.0000 C   0  0  0  0  0  0  0  0  0  0  0  0
    3.7601   -1.9353    0.0000 C   0  0  0  0  0  0  0  0  0  0  0  0
    2.5790    3.1921    0.0000 C   0  0  0  0  0  0  0  0  0  0  0  0
    2.8940   -2.4353    0.0000 C   0  0  0  0  0  0  0  0  0  0  0  0
    4.6261   -2.4353    0.0000 C   0  0  0  0  0  0  0  0  0  0  0  0
    4.1617    3.5286    0.0000 C   0  0  0  0  0  0  0  0  0  0  0  0
    2.8940   -3.4353    0.0000 C   0  0  0  0  0  0  0  0  0  0  0  0
    4.6261   -3.4353    0.0000 C   0  0  0  0  0  0  0  0  0  0  0  0
    3.7601   -3.9353    0.0000 C   0  0  0  0  0  0  0  0  0  0  0  0
    3.5416    1.1560    0.0000 H   0  0  0  0  0  0  0  0  0  0  0  0
    2.1583    1.7593    0.0000 H   0  0  0  0  0  0  0  0  0  0  0  0
    2.2416    0.9666    0.0000 H   0  0  0  0  0  0  0  0  0  0  0  0
    4.6245    1.1052    0.0000 H   0  0  0  0  0  0  0  0  0  0  0  0
    4.5179    2.1192    0.0000 H   0  0  0  0  0  0  0  0  0  0  0  0
    1.9624    3.2569    0.0000 H   0  0  0  0  0  0  0  0  0  0  0  0
    2.3571   -2.1253    0.0000 H   0  0  0  0  0  0  0  0  0  0  0  0
    5.1630   -2.1253    0.0000 H   0  0  0  0  0  0  0  0  0  0  0  0
    4.6986    3.8386    0.0000 H   0  0  0  0  0  0  0  0  0  0  0  0
    2.3571   -3.7453    0.0000 H   0  0  0  0  0  0  0  0  0  0  0  0
    5.1630   -3.7453    0.0000 H   0  0  0  0  0  0  0  0  0  0  0  0
    3.7601   -4.5553    0.0000 H   0  0  0  0  0  0  0  0  0  0  0  0
  1 10  2  0  0  0  0
  2  9  2  0  0  0  0
  3  9  1  0  0  0  0
  3 10  1  0  0  0  0
  3 12  1  0  0  0  0
  4  7  1  0  0  0  0
  4 10  1  0  0  0  0
  4 23  1  0  0  0  0
  5 11  1  0  0  0  0
  5 16  1  0  0  0  0
  5 24  1  0  0  0  0
  6 13  1  0  0  0  0
  6 16  2  0  0  0  0
  7  8  1  1  0  0  0
  7  9  1  0  0  0  0
  7 20  1  0  0  0  0
  8 11  1  0  0  0  0
  8 21  1  0  0  0  0
  8 22  1  0  0  0  0
 11 13  2  0  0  0  0
 12 14  2  0  0  0  0
 12 15  1  0  0  0  0
 13 25  1  0  0  0  0
 14 17  1  0  0  0  0
 14 26  1  0  0  0  0
 15 18  2  0  0  0  0
 15 27  1  0  0  0  0
 16 28  1  0  0  0  0
 17 19  2  0  0  0  0
 17 29  1  0  0  0  0
 18 19  1  0  0  0  0
 18 30  1  0  0  0  0
 19 31  1  0  0  0  0
M  END
> <PUBCHEM_COMPOUND_CID>
854058

> <PUBCHEM_COMPOUND_CANONICALIZED>
1

> <PUBCHEM_CACTVS_COMPLEXITY>
370

> <PUBCHEM_CACTVS_HBOND_ACCEPTOR>
3

> <PUBCHEM_CACTVS_HBOND_DONOR>
2

> <PUBCHEM_CACTVS_ROTATABLE_BOND>
3

> <PUBCHEM_CACTVS_SUBSKEYS>
AAADccBzoABAAAAAAAAAAAAAAAAAAWLAAAAwAAAAAAAAAAABwAAAHgQQAAAACCjBlgQ90JfJkACsATV3dACCgC2xEqkJ2YG4dIiIaDLA2bGUIAholQLIyCccAQAAAAAAAAAAAAAAAAAAAAAAAAAAAAAAAA==

> <PUBCHEM_IUPAC_OPENEYE_NAME>
(5R)-5-(1H-imidazol-5-ylmethyl)-3-phenyl-2-thioxo-imidazolidin-4-one

> <PUBCHEM_IUPAC_CAS_NAME>
(5R)-5-(1H-imidazol-5-ylmethyl)-3-phenyl-2-sulfanylidene-4-imidazolidinone

> <PUBCHEM_IUPAC_NAME>
(5R)-5-(1H-imidazol-5-ylmethyl)-3-phenyl-2-sulfanylideneimidazolidin-4-one

> <PUBCHEM_IUPAC_SYSTEMATIC_NAME>
(5R)-5-(1H-imidazol-5-ylmethyl)-3-phenyl-2-sulfanylidene-imidazolidin-4-one

> <PUBCHEM_IUPAC_TRADITIONAL_NAME>
(5R)-5-(1H-imidazol-5-ylmethyl)-3-phenyl-2-thioxo-4-imidazolidinone

> <PUBCHEM_IUPAC_INCHI>
InChI=1S/C13H12N4OS/c18-12-11(6-9-7-14-8-15-9)16-13(19)17(12)10-4-2-1-3-5-10/h1-5,7-8,11H,6H2,(H,14,15)(H,16,19)/t11-/m1/s1

> <PUBCHEM_IUPAC_INCHIKEY>
BANMZNRKVSFJBK-LLVKDONJSA-N

> <PUBCHEM_XLOGP3_AA>
1.5

> <PUBCHEM_EXACT_MASS>
272.073182

> <PUBCHEM_MOLECULAR_FORMULA>
C13H12N4OS

> <PUBCHEM_MOLECULAR_WEIGHT>
272.32558

> <PUBCHEM_OPENEYE_CAN_SMILES>
C1=CC=C(C=C1)N2C(=O)C(NC2=S)CC3=CN=CN3

> <PUBCHEM_OPENEYE_ISO_SMILES>
C1=CC=C(C=C1)N2C(=O)[C@H](NC2=S)CC3=CN=CN3

> <PUBCHEM_CACTVS_TPSA>
93.1

> <PUBCHEM_MONOISOTOPIC_WEIGHT>
272.073182

> <PUBCHEM_TOTAL_CHARGE>
0

> <PUBCHEM_HEAVY_ATOM_COUNT>
19

> <PUBCHEM_ATOM_DEF_STEREO_COUNT>
1

> <PUBCHEM_ATOM_UDEF_STEREO_COUNT>
0

> <PUBCHEM_BOND_DEF_STEREO_COUNT>
0

> <PUBCHEM_BOND_UDEF_STEREO_COUNT>
0

> <PUBCHEM_ISOTOPIC_ATOM_COUNT>
0

> <PUBCHEM_COMPONENT_COUNT>
1

> <PUBCHEM_CACTVS_TAUTO_COUNT>
8

> <PUBCHEM_COORDINATE_TYPE>
1
5
255

> <PUBCHEM_BONDANNOTATIONS>
11  13  8
12  14  8
12  15  8
14  17  8
15  18  8
17  19  8
18  19  8
5  11  8
5  16  8
6  13  8
6  16  8
7  8  5

$$$$

