8776
  -OEChem-06261203052D

 22 22  0     0  0  0  0  0  0999 V2000
    4.5032   -0.6133    0.0000 S   0  0  0  0  0  0  0  0  0  0  0  0
    6.7985    1.3127    0.0000 O   0  0  0  0  0  0  0  0  0  0  0  0
    2.0000    0.3346    0.0000 O   0  5  0  0  0  0  0  0  0  0  0  0
    2.5352   -1.3127    0.0000 O   0  0  0  0  0  0  0  0  0  0  0  0
    7.9575    0.0255    0.0000 N   0  0  0  0  0  0  0  0  0  0  0  0
    6.2633   -0.3346    0.0000 N   0  0  0  0  0  0  0  0  0  0  0  0
    5.0032    0.9255    0.0000 N   0  0  0  0  0  0  0  0  0  0  0  0
    2.7431   -0.3346    0.0000 N   0  3  0  0  0  0  0  0  0  0  0  0
    8.7006    0.6947    0.0000 C   0  0  0  0  0  0  0  0  0  0  0  0
    5.3122   -0.0255    0.0000 C   0  0  0  0  0  0  0  0  0  0  0  0
    7.0064    0.3346    0.0000 C   0  0  0  0  0  0  0  0  0  0  0  0
    9.6517    0.3857    0.0000 C   0  0  0  0  0  0  0  0  0  0  0  0
    3.6942   -0.0255    0.0000 C   0  0  0  0  0  0  0  0  0  0  0  0
    4.0032    0.9255    0.0000 C   0  0  0  0  0  0  0  0  0  0  0  0
    8.9917    1.2421    0.0000 H   0  0  0  0  0  0  0  0  0  0  0  0
    8.2121    1.0764    0.0000 H   0  0  0  0  0  0  0  0  0  0  0  0
    8.0864   -0.5809    0.0000 H   0  0  0  0  0  0  0  0  0  0  0  0
    6.3922   -0.9410    0.0000 H   0  0  0  0  0  0  0  0  0  0  0  0
    9.4601   -0.2040    0.0000 H   0  0  0  0  0  0  0  0  0  0  0  0
   10.2413    0.1941    0.0000 H   0  0  0  0  0  0  0  0  0  0  0  0
    9.8433    0.9753    0.0000 H   0  0  0  0  0  0  0  0  0  0  0  0
    3.6388    1.4271    0.0000 H   0  0  0  0  0  0  0  0  0  0  0  0
  1 10  1  0  0  0  0
  1 13  1  0  0  0  0
  2 11  2  0  0  0  0
  3  8  1  0  0  0  0
  4  8  2  0  0  0  0
  5  9  1  0  0  0  0
  5 11  1  0  0  0  0
  5 17  1  0  0  0  0
  6 10  1  0  0  0  0
  6 11  1  0  0  0  0
  6 18  1  0  0  0  0
  7 10  2  0  0  0  0
  7 14  1  0  0  0  0
  8 13  1  0  0  0  0
  9 12  1  0  0  0  0
  9 15  1  0  0  0  0
  9 16  1  0  0  0  0
 12 19  1  0  0  0  0
 12 20  1  0  0  0  0
 12 21  1  0  0  0  0
 13 14  2  0  0  0  0
 14 22  1  0  0  0  0
M  CHG  2   3  -1   8   1
M  END
> <PUBCHEM_COMPOUND_CID>
8776

> <PUBCHEM_COMPOUND_CANONICALIZED>
1

> <PUBCHEM_CACTVS_COMPLEXITY>
232

> <PUBCHEM_CACTVS_HBOND_ACCEPTOR>
5

> <PUBCHEM_CACTVS_HBOND_DONOR>
2

> <PUBCHEM_CACTVS_ROTATABLE_BOND>
2

> <PUBCHEM_CACTVS_SUBSKEYS>
AAADccBjsABAAAAAAAAAAAAAAAAAAWAAAAAAAAAAAAAAAAABgAAAHgQUAAAAAADBQgQvkRLYUAitABAndwAA8KlRGjlhQIwIMAKAQAAAAAAQAAAIF4IAACAAAAAAAAAAAAAAAAAAAAAAAAAAAAAAAAAAAA==

> <PUBCHEM_IUPAC_OPENEYE_NAME>
1-ethyl-3-(5-nitrothiazol-2-yl)urea

> <PUBCHEM_IUPAC_CAS_NAME>
1-ethyl-3-(5-nitro-2-thiazolyl)urea

> <PUBCHEM_IUPAC_NAME>
1-ethyl-3-(5-nitro-1,3-thiazol-2-yl)urea

> <PUBCHEM_IUPAC_SYSTEMATIC_NAME>
1-ethyl-3-(5-nitro-1,3-thiazol-2-yl)urea

> <PUBCHEM_IUPAC_TRADITIONAL_NAME>
1-ethyl-3-(5-nitrothiazol-2-yl)urea

> <PUBCHEM_IUPAC_INCHI>
InChI=1S/C6H8N4O3S/c1-2-7-5(11)9-6-8-3-4(14-6)10(12)13/h3H,2H2,1H3,(H2,7,8,9,11)

> <PUBCHEM_IUPAC_INCHIKEY>
FQSUTLQHSDLLAN-UHFFFAOYSA-N

> <PUBCHEM_XLOGP3>
1.5

> <PUBCHEM_EXACT_MASS>
216.031711

> <PUBCHEM_MOLECULAR_FORMULA>
C6H8N4O3S

> <PUBCHEM_MOLECULAR_WEIGHT>
216.21772

> <PUBCHEM_OPENEYE_CAN_SMILES>
CCNC(=O)NC1=NC=C(S1)[N+](=O)[O-]

> <PUBCHEM_OPENEYE_ISO_SMILES>
CCNC(=O)NC1=NC=C(S1)[N+](=O)[O-]

> <PUBCHEM_CACTVS_TPSA>
128

> <PUBCHEM_MONOISOTOPIC_WEIGHT>
216.031711

> <PUBCHEM_TOTAL_CHARGE>
0

> <PUBCHEM_HEAVY_ATOM_COUNT>
14

> <PUBCHEM_ATOM_DEF_STEREO_COUNT>
0

> <PUBCHEM_ATOM_UDEF_STEREO_COUNT>
0

> <PUBCHEM_BOND_DEF_STEREO_COUNT>
0

> <PUBCHEM_BOND_UDEF_STEREO_COUNT>
0

> <PUBCHEM_ISOTOPIC_ATOM_COUNT>
0

> <PUBCHEM_COMPONENT_COUNT>
1

> <PUBCHEM_CACTVS_TAUTO_COUNT>
5

> <PUBCHEM_COORDINATE_TYPE>
1
5
255

> <PUBCHEM_BONDANNOTATIONS>
1  10  8
1  13  8
13  14  8
7  10  8
7  14  8

$$$$

