5621
  -OEChem-06261200472D

 76 80  0     1  0  0  0  0  0999 V2000
    2.8641   -4.8590    0.0000 O   0  0  0  0  0  0  0  0  0  0  0  0
   14.9958    1.4603    0.0000 O   0  0  0  0  0  0  0  0  0  0  0  0
   14.2699    4.9048    0.0000 O   0  0  0  0  0  0  0  0  0  0  0  0
    9.5141   -0.5514    0.0000 N   0  0  0  0  0  0  0  0  0  0  0  0
   14.3601    3.1251    0.0000 N   0  0  0  0  0  0  0  0  0  0  0  0
    8.2572   -1.8066    0.0000 C   0  0  3  0  0  0  0  0  0  0  0  0
    8.2572   -2.8066    0.0000 C   0  0  3  0  0  0  0  0  0  0  0  0
    7.3912   -3.3066    0.0000 C   0  0  3  0  0  0  0  0  0  0  0  0
    9.2034   -1.5019    0.0000 C   0  0  3  0  0  0  0  0  0  0  0  0
    6.5251   -2.8066    0.0000 C   0  0  3  0  0  0  0  0  0  0  0  0
    7.3912   -1.3066    0.0000 C   0  0  0  0  0  0  0  0  0  0  0  0
    9.2034   -3.1114    0.0000 C   0  0  0  0  0  0  0  0  0  0  0  0
    9.7870   -2.3066    0.0000 C   0  0  0  0  0  0  0  0  0  0  0  0
    6.5251   -1.8066    0.0000 C   0  0  0  0  0  0  0  0  0  0  0  0
    7.4072   -4.3481    0.0000 C   0  0  0  0  0  0  0  0  0  0  0  0
    8.2572   -0.8066    0.0000 C   0  0  0  0  0  0  0  0  0  0  0  0
    5.6151   -3.3135    0.0000 C   0  0  0  0  0  0  0  0  0  0  0  0
    6.5092   -4.8759    0.0000 C   0  0  0  0  0  0  0  0  0  0  0  0
    5.6071   -4.3551    0.0000 C   0  0  0  0  0  0  0  0  0  0  0  0
   10.4926   -0.3452    0.0000 C   0  0  0  0  0  0  0  0  0  0  0  0
    4.6883   -2.7494    0.0000 C   0  0  0  0  0  0  0  0  0  0  0  0
    4.6717   -4.9048    0.0000 C   0  0  0  0  0  0  0  0  0  0  0  0
   10.8032    0.6054    0.0000 C   0  0  0  0  0  0  0  0  0  0  0  0
    3.7404   -3.2773    0.0000 C   0  0  0  0  0  0  0  0  0  0  0  0
    3.7320   -4.3623    0.0000 C   0  0  0  0  0  0  0  0  0  0  0  0
   11.7817    0.8116    0.0000 C   0  0  0  0  0  0  0  0  0  0  0  0
   12.0924    1.7621    0.0000 C   0  0  0  0  0  0  0  0  0  0  0  0
   13.0709    1.9683    0.0000 C   0  0  0  0  0  0  0  0  0  0  0  0
    2.0000   -4.3556    0.0000 C   0  0  0  0  0  0  0  0  0  0  0  0
   13.3816    2.9188    0.0000 C   0  0  0  0  0  0  0  0  0  0  0  0
   15.1021    2.4546    0.0000 C   0  0  0  0  0  0  0  0  0  0  0  0
   14.7684    4.0379    0.0000 C   0  0  0  0  0  0  0  0  0  0  0  0
   15.9689    2.9532    0.0000 C   0  0  0  0  0  0  0  0  0  0  0  0
   15.7627    3.9317    0.0000 C   0  0  0  0  0  0  0  0  0  0  0  0
    8.3471   -3.6518    0.0000 H   0  0  0  0  0  0  0  0  0  0  0  0
    8.1305   -3.7259    0.0000 H   0  0  0  0  0  0  0  0  0  0  0  0
   10.0431   -1.3700    0.0000 H   0  0  0  0  0  0  0  0  0  0  0  0
    7.2612   -2.3816    0.0000 H   0  0  0  0  0  0  0  0  0  0  0  0
    7.7897   -0.8317    0.0000 H   0  0  0  0  0  0  0  0  0  0  0  0
    6.9926   -0.8317    0.0000 H   0  0  0  0  0  0  0  0  0  0  0  0
    8.9524   -3.6783    0.0000 H   0  0  0  0  0  0  0  0  0  0  0  0
    9.7408   -3.4206    0.0000 H   0  0  0  0  0  0  0  0  0  0  0  0
   10.2479   -2.7214    0.0000 H   0  0  0  0  0  0  0  0  0  0  0  0
   10.2479   -1.8919    0.0000 H   0  0  0  0  0  0  0  0  0  0  0  0
    6.3131   -1.2240    0.0000 H   0  0  0  0  0  0  0  0  0  0  0  0
    5.9145   -1.9143    0.0000 H   0  0  0  0  0  0  0  0  0  0  0  0
    7.6252   -4.9285    0.0000 H   0  0  0  0  0  0  0  0  0  0  0  0
    8.0164   -4.2326    0.0000 H   0  0  0  0  0  0  0  0  0  0  0  0
    8.8772   -0.8066    0.0000 H   0  0  0  0  0  0  0  0  0  0  0  0
    8.2572   -0.1866    0.0000 H   0  0  0  0  0  0  0  0  0  0  0  0
    7.6372   -0.8066    0.0000 H   0  0  0  0  0  0  0  0  0  0  0  0
    9.1000   -0.0899    0.0000 H   0  0  0  0  0  0  0  0  0  0  0  0
    6.1119   -5.3519    0.0000 H   0  0  0  0  0  0  0  0  0  0  0  0
    6.9101   -5.3488    0.0000 H   0  0  0  0  0  0  0  0  0  0  0  0
   10.5131   -0.9648    0.0000 H   0  0  0  0  0  0  0  0  0  0  0  0
   11.1064   -0.4325    0.0000 H   0  0  0  0  0  0  0  0  0  0  0  0
    4.7002   -2.1295    0.0000 H   0  0  0  0  0  0  0  0  0  0  0  0
    4.6741   -5.5248    0.0000 H   0  0  0  0  0  0  0  0  0  0  0  0
   10.7827    1.2250    0.0000 H   0  0  0  0  0  0  0  0  0  0  0  0
   10.1894    0.6927    0.0000 H   0  0  0  0  0  0  0  0  0  0  0  0
    3.2071   -2.9612    0.0000 H   0  0  0  0  0  0  0  0  0  0  0  0
   11.8023    0.1919    0.0000 H   0  0  0  0  0  0  0  0  0  0  0  0
   12.3955    0.7242    0.0000 H   0  0  0  0  0  0  0  0  0  0  0  0
   12.0718    2.3818    0.0000 H   0  0  0  0  0  0  0  0  0  0  0  0
   11.4786    1.8495    0.0000 H   0  0  0  0  0  0  0  0  0  0  0  0
   13.0915    1.3487    0.0000 H   0  0  0  0  0  0  0  0  0  0  0  0
   13.6847    1.8810    0.0000 H   0  0  0  0  0  0  0  0  0  0  0  0
    2.3121   -3.8199    0.0000 H   0  0  0  0  0  0  0  0  0  0  0  0
    1.4643   -4.0436    0.0000 H   0  0  0  0  0  0  0  0  0  0  0  0
    1.6879   -4.8914    0.0000 H   0  0  0  0  0  0  0  0  0  0  0  0
   13.3610    3.5385    0.0000 H   0  0  0  0  0  0  0  0  0  0  0  0
   12.7677    3.0062    0.0000 H   0  0  0  0  0  0  0  0  0  0  0  0
   16.3794    3.9954    0.0000 H   0  0  0  0  0  0  0  0  0  0  0  0
   15.7638    4.5517    0.0000 H   0  0  0  0  0  0  0  0  0  0  0  0
   16.2201    2.3863    0.0000 H   0  0  0  0  0  0  0  0  0  0  0  0
   16.5589    3.1437    0.0000 H   0  0  0  0  0  0  0  0  0  0  0  0
  1 25  1  0  0  0  0
  1 29  1  0  0  0  0
  2 31  2  0  0  0  0
  3 32  2  0  0  0  0
  4  9  1  0  0  0  0
  4 20  1  0  0  0  0
  4 52  1  0  0  0  0
  5 30  1  0  0  0  0
  5 31  1  0  0  0  0
  5 32  1  0  0  0  0
  6  7  1  0  0  0  0
  6  9  1  0  0  0  0
  6 11  1  0  0  0  0
  6 16  1  0  0  0  0
  7  8  1  0  0  0  0
  7 12  1  0  0  0  0
  7 35  1  0  0  0  0
  8 10  1  0  0  0  0
  8 15  1  0  0  0  0
  8 36  1  0  0  0  0
  9 13  1  0  0  0  0
  9 37  1  0  0  0  0
 10 14  1  0  0  0  0
 10 17  1  0  0  0  0
 10 38  1  0  0  0  0
 11 14  1  0  0  0  0
 11 39  1  0  0  0  0
 11 40  1  0  0  0  0
 12 13  1  0  0  0  0
 12 41  1  0  0  0  0
 12 42  1  0  0  0  0
 13 43  1  0  0  0  0
 13 44  1  0  0  0  0
 14 45  1  0  0  0  0
 14 46  1  0  0  0  0
 15 18  1  0  0  0  0
 15 47  1  0  0  0  0
 15 48  1  0  0  0  0
 16 49  1  0  0  0  0
 16 50  1  0  0  0  0
 16 51  1  0  0  0  0
 17 19  2  0  0  0  0
 17 21  1  0  0  0  0
 18 19  1  0  0  0  0
 18 53  1  0  0  0  0
 18 54  1  0  0  0  0
 19 22  1  0  0  0  0
 20 23  1  0  0  0  0
 20 55  1  0  0  0  0
 20 56  1  0  0  0  0
 21 24  2  0  0  0  0
 21 57  1  0  0  0  0
 22 25  2  0  0  0  0
 22 58  1  0  0  0  0
 23 26  1  0  0  0  0
 23 59  1  0  0  0  0
 23 60  1  0  0  0  0
 24 25  1  0  0  0  0
 24 61  1  0  0  0  0
 26 27  1  0  0  0  0
 26 62  1  0  0  0  0
 26 63  1  0  0  0  0
 27 28  1  0  0  0  0
 27 64  1  0  0  0  0
 27 65  1  0  0  0  0
 28 30  1  0  0  0  0
 28 66  1  0  0  0  0
 28 67  1  0  0  0  0
 29 68  1  0  0  0  0
 29 69  1  0  0  0  0
 29 70  1  0  0  0  0
 30 71  1  0  0  0  0
 30 72  1  0  0  0  0
 31 33  1  0  0  0  0
 32 34  1  0  0  0  0
 33 34  1  0  0  0  0
 33 75  1  0  0  0  0
 33 76  1  0  0  0  0
 34 73  1  0  0  0  0
 34 74  1  0  0  0  0
M  END
> <PUBCHEM_COMPOUND_CID>
5621

> <PUBCHEM_COMPOUND_CANONICALIZED>
1

> <PUBCHEM_CACTVS_COMPLEXITY>
725

> <PUBCHEM_CACTVS_HBOND_ACCEPTOR>
4

> <PUBCHEM_CACTVS_HBOND_DONOR>
1

> <PUBCHEM_CACTVS_ROTATABLE_BOND>
9

> <PUBCHEM_CACTVS_SUBSKEYS>
AAADcfB7MAAAAAAAAAAAAAAAAAAAAeIAAAAwYMAAAAAAAGDBAAAAHgAQAAAADyzBmAYyBoPABACIAiFSEAACCAAgIAAIiIEOCIgMJjKEsRqEMCAk1jGIqAeVwPAPoAABAAAQAADAAAYAACAAACAACQAAAA==

> <PUBCHEM_IUPAC_OPENEYE_NAME>
1-[6-[(3-methoxy-13-methyl-6,7,8,9,11,12,14,15,16,17-decahydrocyclopenta[a]phenanthren-17-yl)amino]hexyl]pyrrolidine-2,5-dione

> <PUBCHEM_IUPAC_CAS_NAME>
1-[6-[(3-methoxy-13-methyl-6,7,8,9,11,12,14,15,16,17-decahydrocyclopenta[a]phenanthren-17-yl)amino]hexyl]pyrrolidine-2,5-dione

> <PUBCHEM_IUPAC_NAME>
1-[6-[(3-methoxy-13-methyl-6,7,8,9,11,12,14,15,16,17-decahydrocyclopenta[a]phenanthren-17-yl)amino]hexyl]pyrrolidine-2,5-dione

> <PUBCHEM_IUPAC_SYSTEMATIC_NAME>
1-[6-[(3-methoxy-13-methyl-6,7,8,9,11,12,14,15,16,17-decahydrocyclopenta[a]phenanthren-17-yl)amino]hexyl]pyrrolidine-2,5-dione

> <PUBCHEM_IUPAC_TRADITIONAL_NAME>
1-[6-[(3-methoxy-13-methyl-6,7,8,9,11,12,14,15,16,17-decahydrocyclopenta[a]phenanthren-17-yl)amino]hexyl]pyrrolidine-2,5-quinone

> <PUBCHEM_IUPAC_INCHI>
InChI=1S/C29H42N2O3/c1-29-16-15-23-22-10-8-21(34-2)19-20(22)7-9-24(23)25(29)11-12-26(29)30-17-5-3-4-6-18-31-27(32)13-14-28(31)33/h8,10,19,23-26,30H,3-7,9,11-18H2,1-2H3

> <PUBCHEM_IUPAC_INCHIKEY>
CJHWFIUASFBCKN-UHFFFAOYSA-N

> <PUBCHEM_XLOGP3>
3.6

> <PUBCHEM_EXACT_MASS>
466.319543

> <PUBCHEM_MOLECULAR_FORMULA>
C29H42N2O3

> <PUBCHEM_MOLECULAR_WEIGHT>
466.65538

> <PUBCHEM_OPENEYE_CAN_SMILES>
CC12CCC3C(C1CCC2NCCCCCCN4C(=O)CCC4=O)CCC5=C3C=CC(=C5)OC

> <PUBCHEM_OPENEYE_ISO_SMILES>
CC12CCC3C(C1CCC2NCCCCCCN4C(=O)CCC4=O)CCC5=C3C=CC(=C5)OC

> <PUBCHEM_CACTVS_TPSA>
58.6

> <PUBCHEM_MONOISOTOPIC_WEIGHT>
466.319543

> <PUBCHEM_TOTAL_CHARGE>
0

> <PUBCHEM_HEAVY_ATOM_COUNT>
34

> <PUBCHEM_ATOM_DEF_STEREO_COUNT>
0

> <PUBCHEM_ATOM_UDEF_STEREO_COUNT>
5

> <PUBCHEM_BOND_DEF_STEREO_COUNT>
0

> <PUBCHEM_BOND_UDEF_STEREO_COUNT>
0

> <PUBCHEM_ISOTOPIC_ATOM_COUNT>
0

> <PUBCHEM_COMPONENT_COUNT>
1

> <PUBCHEM_CACTVS_TAUTO_COUNT>
3

> <PUBCHEM_COORDINATE_TYPE>
1
5
255

> <PUBCHEM_BONDANNOTATIONS>
10  38  3
17  19  8
17  21  8
19  22  8
21  24  8
22  25  8
24  25  8
6  16  3
7  35  3
8  36  3
9  37  3

$$$$

