5404
  -OEChem-06261200402D

 67 71  0     1  0  0  0  0  0999 V2000
    3.4403   -1.6897    0.0000 Cl  0  0  0  0  0  0  0  0  0  0  0  0
    5.1724   -4.6897    0.0000 Cl  0  0  0  0  0  0  0  0  0  0  0  0
    6.1724   -0.6897    0.0000 O   0  0  0  0  0  0  0  0  0  0  0  0
    4.8633    0.2613    0.0000 O   0  0  0  0  0  0  0  0  0  0  0  0
    7.6403    1.5485    0.0000 O   0  0  0  0  0  0  0  0  0  0  0  0
   13.3467    3.4026    0.0000 N   0  0  0  0  0  0  0  0  0  0  0  0
   11.4446    2.7846    0.0000 N   0  0  0  0  0  0  0  0  0  0  0  0
    3.4782   -0.3296    0.0000 N   0  0  0  0  0  0  0  0  0  0  0  0
    3.5827    0.6649    0.0000 N   0  0  0  0  0  0  0  0  0  0  0  0
    2.0000    0.3285    0.0000 N   0  0  0  0  0  0  0  0  0  0  0  0
   12.6035    4.0717    0.0000 C   0  0  0  0  0  0  0  0  0  0  0  0
   13.1388    2.4244    0.0000 C   0  0  0  0  0  0  0  0  0  0  0  0
   11.6525    3.7627    0.0000 C   0  0  0  0  0  0  0  0  0  0  0  0
   12.1877    2.1154    0.0000 C   0  0  0  0  0  0  0  0  0  0  0  0
    5.1724   -0.6897    0.0000 C   0  0  3  0  0  0  0  0  0  0  0  0
   14.2977    3.7116    0.0000 C   0  0  0  0  0  0  0  0  0  0  0  0
    6.4814    0.2613    0.0000 C   0  0  3  0  0  0  0  0  0  0  0  0
    5.6724    0.8491    0.0000 C   0  0  0  0  0  0  0  0  0  0  0  0
    4.2213   -0.9988    0.0000 C   0  0  0  0  0  0  0  0  0  0  0  0
   10.4935    2.4755    0.0000 C   0  0  0  0  0  0  0  0  0  0  0  0
    5.1724   -1.6897    0.0000 C   0  0  0  0  0  0  0  0  0  0  0  0
    7.4324    0.5703    0.0000 C   0  0  0  0  0  0  0  0  0  0  0  0
   14.5056    4.6897    0.0000 C   0  0  0  0  0  0  0  0  0  0  0  0
   15.0409    3.0425    0.0000 C   0  0  0  0  0  0  0  0  0  0  0  0
    9.7504    3.1447    0.0000 C   0  0  0  0  0  0  0  0  0  0  0  0
   10.2856    1.4974    0.0000 C   0  0  0  0  0  0  0  0  0  0  0  0
    8.5914    1.8575    0.0000 C   0  0  0  0  0  0  0  0  0  0  0  0
    4.3063   -2.1897    0.0000 C   0  0  0  0  0  0  0  0  0  0  0  0
    6.0384   -2.1897    0.0000 C   0  0  0  0  0  0  0  0  0  0  0  0
    8.7993    2.8356    0.0000 C   0  0  0  0  0  0  0  0  0  0  0  0
    9.3345    1.1884    0.0000 C   0  0  0  0  0  0  0  0  0  0  0  0
    4.3063   -3.1897    0.0000 C   0  0  0  0  0  0  0  0  0  0  0  0
    6.0384   -3.1897    0.0000 C   0  0  0  0  0  0  0  0  0  0  0  0
    2.5000   -0.5375    0.0000 C   0  0  0  0  0  0  0  0  0  0  0  0
    5.1724   -3.6897    0.0000 C   0  0  0  0  0  0  0  0  0  0  0  0
    2.6691    1.0716    0.0000 C   0  0  0  0  0  0  0  0  0  0  0  0
   13.2250    1.8105    0.0000 H   0  0  0  0  0  0  0  0  0  0  0  0
   13.7584    2.4028    0.0000 H   0  0  0  0  0  0  0  0  0  0  0  0
   13.0921    4.4534    0.0000 H   0  0  0  0  0  0  0  0  0  0  0  0
   12.3125    4.6191    0.0000 H   0  0  0  0  0  0  0  0  0  0  0  0
   11.5662    4.3767    0.0000 H   0  0  0  0  0  0  0  0  0  0  0  0
   11.0328    3.7843    0.0000 H   0  0  0  0  0  0  0  0  0  0  0  0
   11.6991    1.7337    0.0000 H   0  0  0  0  0  0  0  0  0  0  0  0
   12.4788    1.5680    0.0000 H   0  0  0  0  0  0  0  0  0  0  0  0
   14.1688    3.1051    0.0000 H   0  0  0  0  0  0  0  0  0  0  0  0
    7.0824   -0.3397    0.0000 H   0  0  0  0  0  0  0  0  0  0  0  0
    6.0872    1.3098    0.0000 H   0  0  0  0  0  0  0  0  0  0  0  0
    5.2575    1.3098    0.0000 H   0  0  0  0  0  0  0  0  0  0  0  0
    3.7327   -1.3805    0.0000 H   0  0  0  0  0  0  0  0  0  0  0  0
    4.5124   -1.5462    0.0000 H   0  0  0  0  0  0  0  0  0  0  0  0
    7.5187   -0.0436    0.0000 H   0  0  0  0  0  0  0  0  0  0  0  0
    8.0520    0.5487    0.0000 H   0  0  0  0  0  0  0  0  0  0  0  0
   14.6260    2.5817    0.0000 H   0  0  0  0  0  0  0  0  0  0  0  0
   15.5016    2.6276    0.0000 H   0  0  0  0  0  0  0  0  0  0  0  0
   15.4557    3.5032    0.0000 H   0  0  0  0  0  0  0  0  0  0  0  0
   15.1121    4.5608    0.0000 H   0  0  0  0  0  0  0  0  0  0  0  0
   14.6345    5.2962    0.0000 H   0  0  0  0  0  0  0  0  0  0  0  0
   13.8992    4.8186    0.0000 H   0  0  0  0  0  0  0  0  0  0  0  0
    9.8793    3.7511    0.0000 H   0  0  0  0  0  0  0  0  0  0  0  0
   10.7463    1.0825    0.0000 H   0  0  0  0  0  0  0  0  0  0  0  0
    6.5753   -1.8797    0.0000 H   0  0  0  0  0  0  0  0  0  0  0  0
    8.3386    3.2505    0.0000 H   0  0  0  0  0  0  0  0  0  0  0  0
    9.2056    0.5819    0.0000 H   0  0  0  0  0  0  0  0  0  0  0  0
    3.7694   -3.4997    0.0000 H   0  0  0  0  0  0  0  0  0  0  0  0
    6.5753   -3.4997    0.0000 H   0  0  0  0  0  0  0  0  0  0  0  0
    2.2478   -1.1039    0.0000 H   0  0  0  0  0  0  0  0  0  0  0  0
    2.5402    1.6781    0.0000 H   0  0  0  0  0  0  0  0  0  0  0  0
  1 28  1  0  0  0  0
  2 35  1  0  0  0  0
  3 15  1  0  0  0  0
  3 17  1  0  0  0  0
  4 15  1  0  0  0  0
  4 18  1  0  0  0  0
  5 22  1  0  0  0  0
  5 27  1  0  0  0  0
  6 11  1  0  0  0  0
  6 12  1  0  0  0  0
  6 16  1  0  0  0  0
  7 13  1  0  0  0  0
  7 14  1  0  0  0  0
  7 20  1  0  0  0  0
  8  9  1  0  0  0  0
  8 19  1  0  0  0  0
  8 34  1  0  0  0  0
  9 36  2  0  0  0  0
 10 34  2  0  0  0  0
 10 36  1  0  0  0  0
 11 13  1  0  0  0  0
 11 39  1  0  0  0  0
 11 40  1  0  0  0  0
 12 14  1  0  0  0  0
 12 37  1  0  0  0  0
 12 38  1  0  0  0  0
 13 41  1  0  0  0  0
 13 42  1  0  0  0  0
 14 43  1  0  0  0  0
 14 44  1  0  0  0  0
 15 19  1  0  0  0  0
 15 21  1  0  0  0  0
 16 23  1  0  0  0  0
 16 24  1  0  0  0  0
 16 45  1  0  0  0  0
 17 18  1  0  0  0  0
 17 22  1  0  0  0  0
 17 46  1  0  0  0  0
 18 47  1  0  0  0  0
 18 48  1  0  0  0  0
 19 49  1  0  0  0  0
 19 50  1  0  0  0  0
 20 25  2  0  0  0  0
 20 26  1  0  0  0  0
 21 28  2  0  0  0  0
 21 29  1  0  0  0  0
 22 51  1  0  0  0  0
 22 52  1  0  0  0  0
 23 56  1  0  0  0  0
 23 57  1  0  0  0  0
 23 58  1  0  0  0  0
 24 53  1  0  0  0  0
 24 54  1  0  0  0  0
 24 55  1  0  0  0  0
 25 30  1  0  0  0  0
 25 59  1  0  0  0  0
 26 31  2  0  0  0  0
 26 60  1  0  0  0  0
 27 30  2  0  0  0  0
 27 31  1  0  0  0  0
 28 32  1  0  0  0  0
 29 33  2  0  0  0  0
 29 61  1  0  0  0  0
 30 62  1  0  0  0  0
 31 63  1  0  0  0  0
 32 35  2  0  0  0  0
 32 64  1  0  0  0  0
 33 35  1  0  0  0  0
 33 65  1  0  0  0  0
 34 66  1  0  0  0  0
 36 67  1  0  0  0  0
M  END
> <PUBCHEM_COMPOUND_CID>
5404

> <PUBCHEM_COMPOUND_CANONICALIZED>
1

> <PUBCHEM_CACTVS_COMPLEXITY>
693

> <PUBCHEM_CACTVS_HBOND_ACCEPTOR>
7

> <PUBCHEM_CACTVS_HBOND_DONOR>
0

> <PUBCHEM_CACTVS_ROTATABLE_BOND>
8

> <PUBCHEM_CACTVS_SUBSKEYS>
AAADceB7sAAGAAAAAAAAAAAAAAAAAWJAAAA8YIAAAAAAAAAB0AAAHgIIAAAADD7hmCY33ocIFACiAiRDZACSCAsxp4AdyAAOboifbiLFu5u3OCjtwBPe6AewwKAOBEAAAACBAAAIgAAAAQIAAAAAAAAAAA==

> <PUBCHEM_IUPAC_OPENEYE_NAME>
1-[4-[[2-(2,4-dichlorophenyl)-2-(1,2,4-triazol-1-ylmethyl)-1,3-dioxolan-4-yl]methoxy]phenyl]-4-isopropyl-piperazine

> <PUBCHEM_IUPAC_CAS_NAME>
1-[4-[[2-(2,4-dichlorophenyl)-2-(1,2,4-triazol-1-ylmethyl)-1,3-dioxolan-4-yl]methoxy]phenyl]-4-propan-2-ylpiperazine

> <PUBCHEM_IUPAC_NAME>
1-[4-[[2-(2,4-dichlorophenyl)-2-(1,2,4-triazol-1-ylmethyl)-1,3-dioxolan-4-yl]methoxy]phenyl]-4-propan-2-ylpiperazine

> <PUBCHEM_IUPAC_SYSTEMATIC_NAME>
1-[4-[[2-(2,4-dichlorophenyl)-2-(1,2,4-triazol-1-ylmethyl)-1,3-dioxolan-4-yl]methoxy]phenyl]-4-propan-2-yl-piperazine

> <PUBCHEM_IUPAC_TRADITIONAL_NAME>
1-[4-[[2-(2,4-dichlorophenyl)-2-(1,2,4-triazol-1-ylmethyl)-1,3-dioxolan-4-yl]methoxy]phenyl]-4-isopropyl-piperazine

> <PUBCHEM_IUPAC_INCHI>
InChI=1S/C26H31Cl2N5O3/c1-19(2)31-9-11-32(12-10-31)21-4-6-22(7-5-21)34-14-23-15-35-26(36-23,16-33-18-29-17-30-33)24-8-3-20(27)13-25(24)28/h3-8,13,17-19,23H,9-12,14-16H2,1-2H3

> <PUBCHEM_IUPAC_INCHIKEY>
BLSQLHNBWJLIBQ-UHFFFAOYSA-N

> <PUBCHEM_XLOGP3>
4.8

> <PUBCHEM_EXACT_MASS>
531.180395

> <PUBCHEM_MOLECULAR_FORMULA>
C26H31Cl2N5O3

> <PUBCHEM_MOLECULAR_WEIGHT>
532.46204

> <PUBCHEM_OPENEYE_CAN_SMILES>
CC(C)N1CCN(CC1)C2=CC=C(C=C2)OCC3COC(O3)(CN4C=NC=N4)C5=C(C=C(C=C5)Cl)Cl

> <PUBCHEM_OPENEYE_ISO_SMILES>
CC(C)N1CCN(CC1)C2=CC=C(C=C2)OCC3COC(O3)(CN4C=NC=N4)C5=C(C=C(C=C5)Cl)Cl

> <PUBCHEM_CACTVS_TPSA>
64.9

> <PUBCHEM_MONOISOTOPIC_WEIGHT>
531.180395

> <PUBCHEM_TOTAL_CHARGE>
0

> <PUBCHEM_HEAVY_ATOM_COUNT>
36

> <PUBCHEM_ATOM_DEF_STEREO_COUNT>
0

> <PUBCHEM_ATOM_UDEF_STEREO_COUNT>
2

> <PUBCHEM_BOND_DEF_STEREO_COUNT>
0

> <PUBCHEM_BOND_UDEF_STEREO_COUNT>
0

> <PUBCHEM_ISOTOPIC_ATOM_COUNT>
0

> <PUBCHEM_COMPONENT_COUNT>
1

> <PUBCHEM_CACTVS_TAUTO_COUNT>
1

> <PUBCHEM_COORDINATE_TYPE>
1
5
255

> <PUBCHEM_BONDANNOTATIONS>
10  34  8
10  36  8
15  19  3
17  46  3
20  25  8
20  26  8
21  28  8
21  29  8
25  30  8
26  31  8
27  30  8
27  31  8
28  32  8
29  33  8
32  35  8
33  35  8
8  34  8
8  9  8
9  36  8

$$$$

