17395302
  -OEChem-06241222492D

 49 51  0     0  0  0  0  0  0999 V2000
    3.0000   -3.0000    0.0000 S   0  0  0  0  0  0  0  0  0  0  0  0
    2.0000   -3.0000    0.0000 O   0  0  0  0  0  0  0  0  0  0  0  0
    4.0000   -3.0000    0.0000 O   0  0  0  0  0  0  0  0  0  0  0  0
    2.1340    1.5000    0.0000 O   0  0  0  0  0  0  0  0  0  0  0  0
    3.0000   -2.0000    0.0000 N   0  0  0  0  0  0  0  0  0  0  0  0
    3.0000    0.0000    0.0000 N   0  0  0  0  0  0  0  0  0  0  0  0
    3.8660    1.5000    0.0000 N   0  0  0  0  0  0  0  0  0  0  0  0
    2.1340   -1.5000    0.0000 C   0  0  0  0  0  0  0  0  0  0  0  0
    3.8660   -1.5000    0.0000 C   0  0  0  0  0  0  0  0  0  0  0  0
    2.1340   -0.5000    0.0000 C   0  0  0  0  0  0  0  0  0  0  0  0
    3.8660   -0.5000    0.0000 C   0  0  0  0  0  0  0  0  0  0  0  0
    3.0000    1.0000    0.0000 C   0  0  0  0  0  0  0  0  0  0  0  0
    3.0000   -4.0000    0.0000 C   0  0  0  0  0  0  0  0  0  0  0  0
    3.8660    2.5000    0.0000 C   0  0  0  0  0  0  0  0  0  0  0  0
    2.1340   -4.5000    0.0000 C   0  0  0  0  0  0  0  0  0  0  0  0
    3.8660   -4.5000    0.0000 C   0  0  0  0  0  0  0  0  0  0  0  0
    4.7320    3.0000    0.0000 C   0  0  0  0  0  0  0  0  0  0  0  0
    4.7320    4.0000    0.0000 C   0  0  0  0  0  0  0  0  0  0  0  0
    2.1340   -5.5000    0.0000 C   0  0  0  0  0  0  0  0  0  0  0  0
    3.8660   -5.5000    0.0000 C   0  0  0  0  0  0  0  0  0  0  0  0
    3.0000   -6.0000    0.0000 C   0  0  0  0  0  0  0  0  0  0  0  0
    5.5981    4.5000    0.0000 C   0  0  0  0  0  0  0  0  0  0  0  0
    3.8660    4.5000    0.0000 C   0  0  0  0  0  0  0  0  0  0  0  0
    5.5981    5.5000    0.0000 C   0  0  0  0  0  0  0  0  0  0  0  0
    3.8660    5.5000    0.0000 C   0  0  0  0  0  0  0  0  0  0  0  0
    4.7320    6.0000    0.0000 C   0  0  0  0  0  0  0  0  0  0  0  0
    1.5234   -1.3923    0.0000 H   0  0  0  0  0  0  0  0  0  0  0  0
    1.9219   -2.0826    0.0000 H   0  0  0  0  0  0  0  0  0  0  0  0
    4.0781   -2.0826    0.0000 H   0  0  0  0  0  0  0  0  0  0  0  0
    4.4766   -1.3923    0.0000 H   0  0  0  0  0  0  0  0  0  0  0  0
    1.9219    0.0826    0.0000 H   0  0  0  0  0  0  0  0  0  0  0  0
    1.5234   -0.6077    0.0000 H   0  0  0  0  0  0  0  0  0  0  0  0
    4.4766   -0.6077    0.0000 H   0  0  0  0  0  0  0  0  0  0  0  0
    4.0781    0.0826    0.0000 H   0  0  0  0  0  0  0  0  0  0  0  0
    4.4030    1.1900    0.0000 H   0  0  0  0  0  0  0  0  0  0  0  0
    3.6540    3.0826    0.0000 H   0  0  0  0  0  0  0  0  0  0  0  0
    3.2554    2.3923    0.0000 H   0  0  0  0  0  0  0  0  0  0  0  0
    1.5970   -4.1900    0.0000 H   0  0  0  0  0  0  0  0  0  0  0  0
    4.4030   -4.1900    0.0000 H   0  0  0  0  0  0  0  0  0  0  0  0
    4.9441    2.4174    0.0000 H   0  0  0  0  0  0  0  0  0  0  0  0
    5.3426    3.1077    0.0000 H   0  0  0  0  0  0  0  0  0  0  0  0
    1.5970   -5.8100    0.0000 H   0  0  0  0  0  0  0  0  0  0  0  0
    4.4030   -5.8100    0.0000 H   0  0  0  0  0  0  0  0  0  0  0  0
    3.0000   -6.6200    0.0000 H   0  0  0  0  0  0  0  0  0  0  0  0
    6.1350    4.1900    0.0000 H   0  0  0  0  0  0  0  0  0  0  0  0
    3.3291    4.1900    0.0000 H   0  0  0  0  0  0  0  0  0  0  0  0
    6.1350    5.8100    0.0000 H   0  0  0  0  0  0  0  0  0  0  0  0
    3.3291    5.8100    0.0000 H   0  0  0  0  0  0  0  0  0  0  0  0
    4.7320    6.6200    0.0000 H   0  0  0  0  0  0  0  0  0  0  0  0
  1  2  2  0  0  0  0
  1  3  2  0  0  0  0
  1  5  1  0  0  0  0
  1 13  1  0  0  0  0
  4 12  2  0  0  0  0
  5  8  1  0  0  0  0
  5  9  1  0  0  0  0
  6 10  1  0  0  0  0
  6 11  1  0  0  0  0
  6 12  1  0  0  0  0
  7 12  1  0  0  0  0
  7 14  1  0  0  0  0
  7 35  1  0  0  0  0
  8 10  1  0  0  0  0
  8 27  1  0  0  0  0
  8 28  1  0  0  0  0
  9 11  1  0  0  0  0
  9 29  1  0  0  0  0
  9 30  1  0  0  0  0
 10 31  1  0  0  0  0
 10 32  1  0  0  0  0
 11 33  1  0  0  0  0
 11 34  1  0  0  0  0
 13 15  2  0  0  0  0
 13 16  1  0  0  0  0
 14 17  1  0  0  0  0
 14 36  1  0  0  0  0
 14 37  1  0  0  0  0
 15 19  1  0  0  0  0
 15 38  1  0  0  0  0
 16 20  2  0  0  0  0
 16 39  1  0  0  0  0
 17 18  1  0  0  0  0
 17 40  1  0  0  0  0
 17 41  1  0  0  0  0
 18 22  2  0  0  0  0
 18 23  1  0  0  0  0
 19 21  2  0  0  0  0
 19 42  1  0  0  0  0
 20 21  1  0  0  0  0
 20 43  1  0  0  0  0
 21 44  1  0  0  0  0
 22 24  1  0  0  0  0
 22 45  1  0  0  0  0
 23 25  2  0  0  0  0
 23 46  1  0  0  0  0
 24 26  2  0  0  0  0
 24 47  1  0  0  0  0
 25 26  1  0  0  0  0
 25 48  1  0  0  0  0
 26 49  1  0  0  0  0
M  END
> <PUBCHEM_COMPOUND_CID>
17395302

> <PUBCHEM_COMPOUND_CANONICALIZED>
1

> <PUBCHEM_CACTVS_COMPLEXITY>
541

> <PUBCHEM_CACTVS_HBOND_ACCEPTOR>
4

> <PUBCHEM_CACTVS_HBOND_DONOR>
1

> <PUBCHEM_CACTVS_ROTATABLE_BOND>
5

> <PUBCHEM_CACTVS_SUBSKEYS>
AAADceB7MABAAAAAAAAAAAAAAAAAAAAAAAA8YIAAAAAAAAABQAAAHgQQQAAADADBWAQxAYPAAAKIAiBCEHBCABAgAAAIiJgIAIiIYCKAkRGUIAAolgKIiAcQgIAOAAAAAAAAAAAAAAAAAAAAAAAAAAAAAA==

> <PUBCHEM_IUPAC_OPENEYE_NAME>
4-(benzenesulfonyl)-N-(2-phenylethyl)piperazine-1-carboxamide

> <PUBCHEM_IUPAC_CAS_NAME>
4-(benzenesulfonyl)-N-(2-phenylethyl)-1-piperazinecarboxamide

> <PUBCHEM_IUPAC_NAME>
4-(benzenesulfonyl)-N-(2-phenylethyl)piperazine-1-carboxamide

> <PUBCHEM_IUPAC_SYSTEMATIC_NAME>
N-(2-phenylethyl)-4-(phenylsulfonyl)piperazine-1-carboxamide

> <PUBCHEM_IUPAC_TRADITIONAL_NAME>
4-besyl-N-phenethyl-piperazine-1-carboxamide

> <PUBCHEM_IUPAC_INCHI>
InChI=1S/C19H23N3O3S/c23-19(20-12-11-17-7-3-1-4-8-17)21-13-15-22(16-14-21)26(24,25)18-9-5-2-6-10-18/h1-10H,11-16H2,(H,20,23)

> <PUBCHEM_IUPAC_INCHIKEY>
ACQMASNYSOPYHZ-UHFFFAOYSA-N

> <PUBCHEM_XLOGP3_AA>
2.1

> <PUBCHEM_EXACT_MASS>
373.146013

> <PUBCHEM_MOLECULAR_FORMULA>
C19H23N3O3S

> <PUBCHEM_MOLECULAR_WEIGHT>
373.46922

> <PUBCHEM_OPENEYE_CAN_SMILES>
C1CN(CCN1C(=O)NCCC2=CC=CC=C2)S(=O)(=O)C3=CC=CC=C3

> <PUBCHEM_OPENEYE_ISO_SMILES>
C1CN(CCN1C(=O)NCCC2=CC=CC=C2)S(=O)(=O)C3=CC=CC=C3

> <PUBCHEM_CACTVS_TPSA>
78.1

> <PUBCHEM_MONOISOTOPIC_WEIGHT>
373.146013

> <PUBCHEM_TOTAL_CHARGE>
0

> <PUBCHEM_HEAVY_ATOM_COUNT>
26

> <PUBCHEM_ATOM_DEF_STEREO_COUNT>
0

> <PUBCHEM_ATOM_UDEF_STEREO_COUNT>
0

> <PUBCHEM_BOND_DEF_STEREO_COUNT>
0

> <PUBCHEM_BOND_UDEF_STEREO_COUNT>
0

> <PUBCHEM_ISOTOPIC_ATOM_COUNT>
0

> <PUBCHEM_COMPONENT_COUNT>
1

> <PUBCHEM_CACTVS_TAUTO_COUNT>
2

> <PUBCHEM_COORDINATE_TYPE>
1
5
255

> <PUBCHEM_BONDANNOTATIONS>
13  15  8
13  16  8
15  19  8
16  20  8
18  22  8
18  23  8
19  21  8
20  21  8
22  24  8
23  25  8
24  26  8
25  26  8

$$$$

