10480
  -OEChem-06261204352D

 14 11  0     0  0  0  0  0  0999 V2000
    5.3429    1.5000    0.0000 O   0  0  0  0  0  0  0  0  0  0  0  0
    3.6108    1.5000    0.0000 O   0  0  0  0  0  0  0  0  0  0  0  0
    4.4768    0.0000    0.0000 O   0  0  0  0  0  0  0  0  0  0  0  0
    0.5369    2.3700    0.0000 N   0  0  0  0  0  0  0  0  0  0  0  0
    4.4768    4.1200    0.0000 N   0  0  0  0  0  0  0  0  0  0  0  0
    4.4768    1.0000    0.0000 C   0  0  0  0  0  0  0  0  0  0  0  0
    5.8798    1.1900    0.0000 H   0  0  0  0  0  0  0  0  0  0  0  0
    3.0739    1.1900    0.0000 H   0  0  0  0  0  0  0  0  0  0  0  0
    1.0739    2.6800    0.0000 H   0  0  0  0  0  0  0  0  0  0  0  0
    0.0000    2.6800    0.0000 H   0  0  0  0  0  0  0  0  0  0  0  0
    0.5369    1.7500    0.0000 H   0  0  0  0  0  0  0  0  0  0  0  0
    5.0138    4.4300    0.0000 H   0  0  0  0  0  0  0  0  0  0  0  0
    3.9399    4.4300    0.0000 H   0  0  0  0  0  0  0  0  0  0  0  0
    4.4768    3.5000    0.0000 H   0  0  0  0  0  0  0  0  0  0  0  0
  1  6  1  0  0  0  0
  1  7  1  0  0  0  0
  2  6  1  0  0  0  0
  2  8  1  0  0  0  0
  3  6  2  0  0  0  0
  4  9  1  0  0  0  0
  4 10  1  0  0  0  0
  4 11  1  0  0  0  0
  5 12  1  0  0  0  0
  5 13  1  0  0  0  0
  5 14  1  0  0  0  0
M  END
> <PUBCHEM_COMPOUND_CID>
10480

> <PUBCHEM_COMPOUND_CANONICALIZED>
1

> <PUBCHEM_CACTVS_COMPLEXITY>
26.3

> <PUBCHEM_CACTVS_HBOND_ACCEPTOR>
5

> <PUBCHEM_CACTVS_HBOND_DONOR>
4

> <PUBCHEM_CACTVS_ROTATABLE_BOND>
0

> <PUBCHEM_CACTVS_SUBSKEYS>
AAADccADMAAAAAAAAAAAAAAAAAAAAAAAAAAAAAAAAAAAAAAAAAAAAgAQCAAAAAAAAAAACAAAAgAIAAAACAAAAAAAAAAAAAAAAAAAAAAAAAAAAAAAAAAAAAAAAAAAAAAAAAAAAAAAAAAAAAAAAAAAAAAAAA==

> <PUBCHEM_IUPAC_OPENEYE_NAME>
ammonia; carbonic acid

> <PUBCHEM_IUPAC_CAS_NAME>
ammonia; carbonic acid

> <PUBCHEM_IUPAC_NAME>
azane; carbonic acid

> <PUBCHEM_IUPAC_SYSTEMATIC_NAME>
azane; carbonic acid

> <PUBCHEM_IUPAC_TRADITIONAL_NAME>
ammonia; carbonic acid

> <PUBCHEM_IUPAC_INCHI>
InChI=1S/CH2O3.2H3N/c2-1(3)4;;/h(H2,2,3,4);2*1H3

> <PUBCHEM_IUPAC_INCHIKEY>
PRKQVKDSMLBJBJ-UHFFFAOYSA-N

> <PUBCHEM_EXACT_MASS>
96.053492

> <PUBCHEM_MOLECULAR_FORMULA>
CH8N2O3

> <PUBCHEM_MOLECULAR_WEIGHT>
96.08582

> <PUBCHEM_OPENEYE_CAN_SMILES>
C(=O)(O)O.N.N

> <PUBCHEM_OPENEYE_ISO_SMILES>
C(=O)(O)O.N.N

> <PUBCHEM_CACTVS_TPSA>
59.5

> <PUBCHEM_MONOISOTOPIC_WEIGHT>
96.053492

> <PUBCHEM_TOTAL_CHARGE>
0

> <PUBCHEM_HEAVY_ATOM_COUNT>
6

> <PUBCHEM_ATOM_DEF_STEREO_COUNT>
0

> <PUBCHEM_ATOM_UDEF_STEREO_COUNT>
0

> <PUBCHEM_BOND_DEF_STEREO_COUNT>
0

> <PUBCHEM_BOND_UDEF_STEREO_COUNT>
0

> <PUBCHEM_ISOTOPIC_ATOM_COUNT>
0

> <PUBCHEM_COMPONENT_COUNT>
3

> <PUBCHEM_CACTVS_TAUTO_COUNT>
1

> <PUBCHEM_COORDINATE_TYPE>
1
5
255

$$$$

