11014
  -OEChem-06261205142D

 57 61  0     1  0  0  0  0  0999 V2000
    6.5251   -2.5043    0.0000 O   0  0  0  0  0  0  0  0  0  0  0  0
    7.4248    2.4458    0.0000 O   0  0  0  0  0  0  0  0  0  0  0  0
    8.7140    3.6025    0.0000 O   0  0  0  0  0  0  0  0  0  0  0  0
    6.5251   -1.5043    0.0000 C   0  0  2  0  0  0  0  0  0  0  0  0
    6.5251   -0.5043    0.0000 C   0  0  1  0  0  0  0  0  0  0  0  0
    5.6591   -2.0043    0.0000 C   0  0  3  0  0  0  0  0  0  0  0  0
    4.7931   -1.5043    0.0000 C   0  0  3  0  0  0  0  0  0  0  0  0
    7.4714   -0.1996    0.0000 C   0  0  2  0  0  0  0  0  0  0  0  0
    5.6591   -0.0043    0.0000 C   0  0  0  0  0  0  0  0  0  0  0  0
    7.4714   -1.8090    0.0000 C   0  0  0  0  0  0  0  0  0  0  0  0
    4.7931   -0.5043    0.0000 C   0  0  0  0  0  0  0  0  0  0  0  0
    3.8831   -2.0112    0.0000 C   0  0  2  0  0  0  0  0  0  0  0  0
    8.0550   -1.0043    0.0000 C   0  0  0  0  0  0  0  0  0  0  0  0
    5.6752   -3.0458    0.0000 C   0  0  0  0  0  0  0  0  0  0  0  0
    6.5251    0.4957    0.0000 C   0  0  0  0  0  0  0  0  0  0  0  0
    3.8751   -3.0528    0.0000 C   0  0  0  0  0  0  0  0  0  0  0  0
    2.9562   -1.4471    0.0000 C   0  0  0  0  0  0  0  0  0  0  0  0
    4.7771   -3.5736    0.0000 C   0  0  0  0  0  0  0  0  0  0  0  0
    7.7820    0.7509    0.0000 C   0  0  0  0  0  0  0  0  0  0  0  0
    3.8908   -1.0112    0.0000 C   0  0  0  0  0  0  0  0  0  0  0  0
    2.0084   -1.9750    0.0000 C   0  0  0  0  0  0  0  0  0  0  0  0
    2.9396   -3.6025    0.0000 C   0  0  0  0  0  0  0  0  0  0  0  0
    2.0000   -3.0600    0.0000 C   0  0  0  0  0  0  0  0  0  0  0  0
    8.7605    0.9572    0.0000 C   0  0  0  0  0  0  0  0  0  0  0  0
    7.1142    1.4952    0.0000 C   0  0  0  0  0  0  0  0  0  0  0  0
    9.0712    1.9077    0.0000 C   0  0  0  0  0  0  0  0  0  0  0  0
    8.4034    2.6520    0.0000 C   0  0  0  0  0  0  0  0  0  0  0  0
    6.3985   -2.4236    0.0000 H   0  0  0  0  0  0  0  0  0  0  0  0
    5.5292   -1.0793    0.0000 H   0  0  0  0  0  0  0  0  0  0  0  0
    8.0838   -0.1034    0.0000 H   0  0  0  0  0  0  0  0  0  0  0  0
    6.0576    0.4706    0.0000 H   0  0  0  0  0  0  0  0  0  0  0  0
    5.2606    0.4706    0.0000 H   0  0  0  0  0  0  0  0  0  0  0  0
    7.2203   -2.3760    0.0000 H   0  0  0  0  0  0  0  0  0  0  0  0
    8.0087   -2.1183    0.0000 H   0  0  0  0  0  0  0  0  0  0  0  0
    4.5810    0.0783    0.0000 H   0  0  0  0  0  0  0  0  0  0  0  0
    4.1825   -0.6120    0.0000 H   0  0  0  0  0  0  0  0  0  0  0  0
    8.5158   -1.4190    0.0000 H   0  0  0  0  0  0  0  0  0  0  0  0
    8.5158   -0.5896    0.0000 H   0  0  0  0  0  0  0  0  0  0  0  0
    5.8932   -3.6262    0.0000 H   0  0  0  0  0  0  0  0  0  0  0  0
    6.2843   -2.9303    0.0000 H   0  0  0  0  0  0  0  0  0  0  0  0
    7.1451    0.4957    0.0000 H   0  0  0  0  0  0  0  0  0  0  0  0
    6.5251    1.1157    0.0000 H   0  0  0  0  0  0  0  0  0  0  0  0
    5.9051    0.4957    0.0000 H   0  0  0  0  0  0  0  0  0  0  0  0
    3.3645   -0.9804    0.0000 H   0  0  0  0  0  0  0  0  0  0  0  0
    2.5663   -0.9650    0.0000 H   0  0  0  0  0  0  0  0  0  0  0  0
    7.0621   -2.8143    0.0000 H   0  0  0  0  0  0  0  0  0  0  0  0
    4.7795   -4.1936    0.0000 H   0  0  0  0  0  0  0  0  0  0  0  0
    4.5108   -1.0160    0.0000 H   0  0  0  0  0  0  0  0  0  0  0  0
    3.8956   -0.3912    0.0000 H   0  0  0  0  0  0  0  0  0  0  0  0
    3.2708   -1.0064    0.0000 H   0  0  0  0  0  0  0  0  0  0  0  0
    1.8038   -1.3898    0.0000 H   0  0  0  0  0  0  0  0  0  0  0  0
    1.3967   -2.0764    0.0000 H   0  0  0  0  0  0  0  0  0  0  0  0
    2.9420   -4.2225    0.0000 H   0  0  0  0  0  0  0  0  0  0  0  0
    1.4619   -3.3679    0.0000 H   0  0  0  0  0  0  0  0  0  0  0  0
    9.1746    0.4957    0.0000 H   0  0  0  0  0  0  0  0  0  0  0  0
    6.5075    1.3674    0.0000 H   0  0  0  0  0  0  0  0  0  0  0  0
    9.6779    2.0355    0.0000 H   0  0  0  0  0  0  0  0  0  0  0  0
  4  1  1  1  0  0  0
  1 46  1  0  0  0  0
  2 25  1  0  0  0  0
  2 27  1  0  0  0  0
  3 27  2  0  0  0  0
  4  5  1  0  0  0  0
  4  6  1  0  0  0  0
  4 10  1  0  0  0  0
  5  8  1  0  0  0  0
  5  9  1  0  0  0  0
  5 15  1  1  0  0  0
  6  7  1  0  0  0  0
  6 14  1  0  0  0  0
  6 28  1  0  0  0  0
  7 11  1  0  0  0  0
  7 12  1  0  0  0  0
  7 29  1  0  0  0  0
  8 13  1  0  0  0  0
  8 19  1  1  0  0  0
  8 30  1  0  0  0  0
  9 11  1  0  0  0  0
  9 31  1  0  0  0  0
  9 32  1  0  0  0  0
 10 13  1  0  0  0  0
 10 33  1  0  0  0  0
 10 34  1  0  0  0  0
 11 35  1  0  0  0  0
 11 36  1  0  0  0  0
 12 16  1  0  0  0  0
 12 17  1  0  0  0  0
 12 20  1  1  0  0  0
 13 37  1  0  0  0  0
 13 38  1  0  0  0  0
 14 18  1  0  0  0  0
 14 39  1  0  0  0  0
 14 40  1  0  0  0  0
 15 41  1  0  0  0  0
 15 42  1  0  0  0  0
 15 43  1  0  0  0  0
 16 18  2  0  0  0  0
 16 22  1  0  0  0  0
 17 21  1  0  0  0  0
 17 44  1  0  0  0  0
 17 45  1  0  0  0  0
 18 47  1  0  0  0  0
 19 24  1  0  0  0  0
 19 25  2  0  0  0  0
 20 48  1  0  0  0  0
 20 49  1  0  0  0  0
 20 50  1  0  0  0  0
 21 23  1  0  0  0  0
 21 51  1  0  0  0  0
 21 52  1  0  0  0  0
 22 23  2  0  0  0  0
 22 53  1  0  0  0  0
 23 54  1  0  0  0  0
 24 26  2  0  0  0  0
 24 55  1  0  0  0  0
 25 56  1  0  0  0  0
 26 27  1  0  0  0  0
 26 57  1  0  0  0  0
M  END
> <PUBCHEM_COMPOUND_CID>
11014

> <PUBCHEM_COMPOUND_CANONICALIZED>
1

> <PUBCHEM_CACTVS_COMPLEXITY>
802

> <PUBCHEM_CACTVS_HBOND_ACCEPTOR>
3

> <PUBCHEM_CACTVS_HBOND_DONOR>
1

> <PUBCHEM_CACTVS_ROTATABLE_BOND>
1

> <PUBCHEM_CACTVS_SUBSKEYS>
AAADceB4MAAAAAAAAAAAAAAAAAAAAYAAAAAwQIEAAAAAAGCAAAAAGgAACAAAD0SggAICCAAABgCIAiDSCAAACAAgIAAICAAAAEgIBAIAIQAAUAAEgAAIoYOAwPAPgAAAAAAAAACAAAYAADAAAYAADAAAAA==

> <PUBCHEM_IUPAC_OPENEYE_NAME>
5-[(10R,13R,14S,17R)-14-hydroxy-10,13-dimethyl-1,2,7,8,9,11,12,15,16,17-decahydrocyclopenta[a]phenanthren-17-yl]pyran-2-one

> <PUBCHEM_IUPAC_CAS_NAME>
5-[(10R,13R,14S,17R)-14-hydroxy-10,13-dimethyl-1,2,7,8,9,11,12,15,16,17-decahydrocyclopenta[a]phenanthren-17-yl]-2-pyranone

> <PUBCHEM_IUPAC_NAME>
5-[(10R,13R,14S,17R)-14-hydroxy-10,13-dimethyl-1,2,7,8,9,11,12,15,16,17-decahydrocyclopenta[a]phenanthren-17-yl]pyran-2-one

> <PUBCHEM_IUPAC_SYSTEMATIC_NAME>
5-[(10R,13R,14S,17R)-10,13-dimethyl-14-oxidanyl-1,2,7,8,9,11,12,15,16,17-decahydrocyclopenta[a]phenanthren-17-yl]pyran-2-one

> <PUBCHEM_IUPAC_TRADITIONAL_NAME>
5-[(10R,13R,14S,17R)-14-hydroxy-10,13-dimethyl-1,2,7,8,9,11,12,15,16,17-decahydrocyclopenta[a]phenanthren-17-yl]pyran-2-one

> <PUBCHEM_IUPAC_INCHI>
InChI=1S/C24H30O3/c1-22-12-4-3-5-17(22)7-8-20-19(22)10-13-23(2)18(11-14-24(20,23)26)16-6-9-21(25)27-15-16/h3,5-7,9,15,18-20,26H,4,8,10-14H2,1-2H3/t18-,19?,20?,22+,23-,24+/m1/s1

> <PUBCHEM_IUPAC_INCHIKEY>
KBOQXVVZFSWICE-BSKUUKNUSA-N

> <PUBCHEM_XLOGP3_AA>
4.3

> <PUBCHEM_EXACT_MASS>
366.219495

> <PUBCHEM_MOLECULAR_FORMULA>
C24H30O3

> <PUBCHEM_MOLECULAR_WEIGHT>
366.4932

> <PUBCHEM_OPENEYE_CAN_SMILES>
CC12CCC=CC1=CCC3C2CCC4(C3(CCC4C5=COC(=O)C=C5)O)C

> <PUBCHEM_OPENEYE_ISO_SMILES>
C[C@]12CCC3C([C@]1(CC[C@@H]2C4=COC(=O)C=C4)O)CC=C5[C@@]3(CCC=C5)C

> <PUBCHEM_CACTVS_TPSA>
46.5

> <PUBCHEM_MONOISOTOPIC_WEIGHT>
366.219495

> <PUBCHEM_TOTAL_CHARGE>
0

> <PUBCHEM_HEAVY_ATOM_COUNT>
27

> <PUBCHEM_ATOM_DEF_STEREO_COUNT>
4

> <PUBCHEM_ATOM_UDEF_STEREO_COUNT>
2

> <PUBCHEM_BOND_DEF_STEREO_COUNT>
0

> <PUBCHEM_BOND_UDEF_STEREO_COUNT>
0

> <PUBCHEM_ISOTOPIC_ATOM_COUNT>
0

> <PUBCHEM_COMPONENT_COUNT>
1

> <PUBCHEM_CACTVS_TAUTO_COUNT>
1

> <PUBCHEM_COORDINATE_TYPE>
1
5
255

> <PUBCHEM_BONDANNOTATIONS>
4  1  5
12  20  5
19  24  8
19  25  8
2  25  8
2  27  8
24  26  8
26  27  8
5  15  5
6  28  3
7  29  3
8  19  5

$$$$

