13998
  -OEChem-06241222412D

 61 63  0     0  0  0  0  0  0999 V2000
    4.9547    0.0000    0.0000 Cl  0  0  0  0  0  0  0  0  0  0  0  0
    0.3204    5.8822    0.0000 O   0  0  0  0  0  0  0  0  0  0  0  0
    4.7045    5.7193    0.0000 O   0  0  0  0  0  0  0  0  0  0  0  0
    6.9706   10.1978    0.0000 O   0  0  0  0  0  0  0  0  0  0  0  0
    2.6405   10.6978    0.0000 O   0  0  0  0  0  0  0  0  0  0  0  0
    6.1046   11.6978    0.0000 O   0  0  0  0  0  0  0  0  0  0  0  0
    3.5065    9.1978    0.0000 O   0  0  0  0  0  0  0  0  0  0  0  0
    2.2703    5.4371    0.0000 N   0  0  0  0  0  0  0  0  0  0  0  0
    4.5149    4.0365    0.0000 N   0  0  0  0  0  0  0  0  0  0  0  0
    6.7619    4.0365    0.0000 N   0  0  0  0  0  0  0  0  0  0  0  0
    3.2452    5.2146    0.0000 C   0  0  0  0  0  0  0  0  0  0  0  0
    1.5901    4.7041    0.0000 C   0  0  0  0  0  0  0  0  0  0  0  0
    1.9755    6.3927    0.0000 C   0  0  0  0  0  0  0  0  0  0  0  0
    3.5400    4.2590    0.0000 C   0  0  0  0  0  0  0  0  0  0  0  0
    0.6152    4.9266    0.0000 C   0  0  0  0  0  0  0  0  0  0  0  0
    1.0006    6.6152    0.0000 C   0  0  0  0  0  0  0  0  0  0  0  0
    4.7374    3.0616    0.0000 C   0  0  0  0  0  0  0  0  0  0  0  0
    5.6384    2.6277    0.0000 C   0  0  0  0  0  0  0  0  0  0  0  0
    5.1384    4.8183    0.0000 C   0  0  0  0  0  0  0  0  0  0  0  0
    6.1384    4.8183    0.0000 C   0  0  0  0  0  0  0  0  0  0  0  0
    6.5394    3.0616    0.0000 C   0  0  0  0  0  0  0  0  0  0  0  0
    3.8678    2.4881    0.0000 C   0  0  0  0  0  0  0  0  0  0  0  0
    5.7322    1.5903    0.0000 C   0  0  0  0  0  0  0  0  0  0  0  0
    7.3212    2.4381    0.0000 C   0  0  0  0  0  0  0  0  0  0  0  0
    3.9377    1.4489    0.0000 C   0  0  0  0  0  0  0  0  0  0  0  0
    4.8761    0.9969    0.0000 C   0  0  0  0  0  0  0  0  0  0  0  0
    8.2521    2.8034    0.0000 C   0  0  0  0  0  0  0  0  0  0  0  0
    7.1721    1.4493    0.0000 C   0  0  0  0  0  0  0  0  0  0  0  0
    9.0339    2.1799    0.0000 C   0  0  0  0  0  0  0  0  0  0  0  0
    7.9540    0.8258    0.0000 C   0  0  0  0  0  0  0  0  0  0  0  0
    8.8849    1.1911    0.0000 C   0  0  0  0  0  0  0  0  0  0  0  0
    5.2385   10.1978    0.0000 C   0  0  0  0  0  0  0  0  0  0  0  0
    4.3725   10.6978    0.0000 C   0  0  0  0  0  0  0  0  0  0  0  0
    6.1046   10.6978    0.0000 C   0  0  0  0  0  0  0  0  0  0  0  0
    3.5065   10.1978    0.0000 C   0  0  0  0  0  0  0  0  0  0  0  0
    3.2761    5.8338    0.0000 H   0  0  0  0  0  0  0  0  0  0  0  0
    3.8604    5.2917    0.0000 H   0  0  0  0  0  0  0  0  0  0  0  0
    1.3493    4.1328    0.0000 H   0  0  0  0  0  0  0  0  0  0  0  0
    2.1109    4.3677    0.0000 H   0  0  0  0  0  0  0  0  0  0  0  0
    2.5907    6.4698    0.0000 H   0  0  0  0  0  0  0  0  0  0  0  0
    2.0064    7.0119    0.0000 H   0  0  0  0  0  0  0  0  0  0  0  0
    3.5091    3.6398    0.0000 H   0  0  0  0  0  0  0  0  0  0  0  0
    2.9248    4.1819    0.0000 H   0  0  0  0  0  0  0  0  0  0  0  0
    0.0000    4.8495    0.0000 H   0  0  0  0  0  0  0  0  0  0  0  0
    0.5843    4.3074    0.0000 H   0  0  0  0  0  0  0  0  0  0  0  0
    1.2414    7.1865    0.0000 H   0  0  0  0  0  0  0  0  0  0  0  0
    0.4798    6.9516    0.0000 H   0  0  0  0  0  0  0  0  0  0  0  0
    6.6970    5.0873    0.0000 H   0  0  0  0  0  0  0  0  0  0  0  0
    6.0004    5.4228    0.0000 H   0  0  0  0  0  0  0  0  0  0  0  0
    3.3124    2.7636    0.0000 H   0  0  0  0  0  0  0  0  0  0  0  0
    6.2939    1.3278    0.0000 H   0  0  0  0  0  0  0  0  0  0  0  0
    3.4241    1.1016    0.0000 H   0  0  0  0  0  0  0  0  0  0  0  0
    8.3445    3.4165    0.0000 H   0  0  0  0  0  0  0  0  0  0  0  0
    6.5950    1.2227    0.0000 H   0  0  0  0  0  0  0  0  0  0  0  0
    9.6110    2.4064    0.0000 H   0  0  0  0  0  0  0  0  0  0  0  0
    7.8616    0.2127    0.0000 H   0  0  0  0  0  0  0  0  0  0  0  0
    9.3696    0.8045    0.0000 H   0  0  0  0  0  0  0  0  0  0  0  0
    5.2385    9.5778    0.0000 H   0  0  0  0  0  0  0  0  0  0  0  0
    4.3725   11.3178    0.0000 H   0  0  0  0  0  0  0  0  0  0  0  0
    7.5075   10.5078    0.0000 H   0  0  0  0  0  0  0  0  0  0  0  0
    2.1035   10.3878    0.0000 H   0  0  0  0  0  0  0  0  0  0  0  0
  1 26  1  0  0  0  0
  2 15  1  0  0  0  0
  2 16  1  0  0  0  0
  3 19  2  0  0  0  0
  4 34  1  0  0  0  0
  4 60  1  0  0  0  0
  5 35  1  0  0  0  0
  5 61  1  0  0  0  0
  6 34  2  0  0  0  0
  7 35  2  0  0  0  0
  8 11  1  0  0  0  0
  8 12  1  0  0  0  0
  8 13  1  0  0  0  0
  9 14  1  0  0  0  0
  9 17  1  0  0  0  0
  9 19  1  0  0  0  0
 10 20  1  0  0  0  0
 10 21  2  0  0  0  0
 11 14  1  0  0  0  0
 11 36  1  0  0  0  0
 11 37  1  0  0  0  0
 12 15  1  0  0  0  0
 12 38  1  0  0  0  0
 12 39  1  0  0  0  0
 13 16  1  0  0  0  0
 13 40  1  0  0  0  0
 13 41  1  0  0  0  0
 14 42  1  0  0  0  0
 14 43  1  0  0  0  0
 15 44  1  0  0  0  0
 15 45  1  0  0  0  0
 16 46  1  0  0  0  0
 16 47  1  0  0  0  0
 17 18  2  0  0  0  0
 17 22  1  0  0  0  0
 18 21  1  0  0  0  0
 18 23  1  0  0  0  0
 19 20  1  0  0  0  0
 20 48  1  0  0  0  0
 20 49  1  0  0  0  0
 21 24  1  0  0  0  0
 22 25  2  0  0  0  0
 22 50  1  0  0  0  0
 23 26  2  0  0  0  0
 23 51  1  0  0  0  0
 24 27  2  0  0  0  0
 24 28  1  0  0  0  0
 25 26  1  0  0  0  0
 25 52  1  0  0  0  0
 27 29  1  0  0  0  0
 27 53  1  0  0  0  0
 28 30  2  0  0  0  0
 28 54  1  0  0  0  0
 29 31  2  0  0  0  0
 29 55  1  0  0  0  0
 30 31  1  0  0  0  0
 30 56  1  0  0  0  0
 31 57  1  0  0  0  0
 32 33  2  3  0  0  0
 32 34  1  0  0  0  0
 32 58  1  0  0  0  0
 33 35  1  0  0  0  0
 33 59  1  0  0  0  0
M  END
> <PUBCHEM_COMPOUND_CID>
13998

> <PUBCHEM_COMPOUND_CANONICALIZED>
1

> <PUBCHEM_CACTVS_COMPLEXITY>
663

> <PUBCHEM_CACTVS_HBOND_ACCEPTOR>
8

> <PUBCHEM_CACTVS_HBOND_DONOR>
2

> <PUBCHEM_CACTVS_ROTATABLE_BOND>
6

> <PUBCHEM_CACTVS_SUBSKEYS>
AAADceB7OAAEAAAAAAAAAAAAAAAAAAAAAAA8YIAABAAAAAABQAAAHgIACAAADArhmCYwyIMABgCoAyXyXACCAAAhBwAIiACoZtgKZKLBk5GXMAhghgDY2YcQgMAOAABAIAACAAAAAIBAAAQAAAAAAAAAAA==

> <PUBCHEM_IUPAC_OPENEYE_NAME>
but-2-enedioic acid; 7-chloro-1-(2-morpholinoethyl)-5-phenyl-3H-1,4-benzodiazepin-2-one

> <PUBCHEM_IUPAC_CAS_NAME>
but-2-enedioic acid; 7-chloro-1-[2-(4-morpholinyl)ethyl]-5-phenyl-3H-1,4-benzodiazepin-2-one

> <PUBCHEM_IUPAC_NAME>
but-2-enedioic acid; 7-chloro-1-(2-morpholin-4-ylethyl)-5-phenyl-3H-1,4-benzodiazepin-2-one

> <PUBCHEM_IUPAC_SYSTEMATIC_NAME>
but-2-enedioic acid; 7-chloranyl-1-(2-morpholin-4-ylethyl)-5-phenyl-3H-1,4-benzodiazepin-2-one

> <PUBCHEM_IUPAC_TRADITIONAL_NAME>
but-2-enedioic acid; 7-chloro-1-(2-morpholinoethyl)-5-phenyl-3H-1,4-benzodiazepin-2-one

> <PUBCHEM_IUPAC_INCHI>
InChI=1S/C21H22ClN3O2.C4H4O4/c22-17-6-7-19-18(14-17)21(16-4-2-1-3-5-16)23-15-20(26)25(19)9-8-24-10-12-27-13-11-24;5-3(6)1-2-4(7)8/h1-7,14H,8-13,15H2;1-2H,(H,5,6)(H,7,8)

> <PUBCHEM_IUPAC_INCHIKEY>
KNYVYXXKGWCFFE-UHFFFAOYSA-N

> <PUBCHEM_XLOGP3_AA>
2.117

> <PUBCHEM_EXACT_MASS>
499.151013

> <PUBCHEM_MOLECULAR_FORMULA>
C25H26ClN3O6

> <PUBCHEM_MOLECULAR_WEIGHT>
499.94344

> <PUBCHEM_OPENEYE_CAN_SMILES>
C1COCCN1CCN2C(=O)CN=C(C3=C2C=CC(=C3)Cl)C4=CC=CC=C4.C(=CC(=O)O)C(=O)O

> <PUBCHEM_OPENEYE_ISO_SMILES>
C1COCCN1CCN2C(=O)CN=C(C3=C2C=CC(=C3)Cl)C4=CC=CC=C4.C(=CC(=O)O)C(=O)O

> <PUBCHEM_CACTVS_TPSA>
120

> <PUBCHEM_MONOISOTOPIC_WEIGHT>
499.151013

> <PUBCHEM_TOTAL_CHARGE>
0

> <PUBCHEM_HEAVY_ATOM_COUNT>
35

> <PUBCHEM_ATOM_DEF_STEREO_COUNT>
0

> <PUBCHEM_ATOM_UDEF_STEREO_COUNT>
0

> <PUBCHEM_BOND_DEF_STEREO_COUNT>
0

> <PUBCHEM_BOND_UDEF_STEREO_COUNT>
1

> <PUBCHEM_ISOTOPIC_ATOM_COUNT>
0

> <PUBCHEM_COMPONENT_COUNT>
2

> <PUBCHEM_CACTVS_TAUTO_COUNT>
1

> <PUBCHEM_COORDINATE_TYPE>
1
5
255

> <PUBCHEM_BONDANNOTATIONS>
17  18  8
17  22  8
18  23  8
22  25  8
23  26  8
24  27  8
24  28  8
25  26  8
27  29  8
28  30  8
29  31  8
30  31  8
32  33  1

$$$$

