4355
  -OEChem-06261200042D

 50 51  0     1  0  0  0  0  0999 V2000
    3.7320   -2.9992    0.0000 O   0  0  0  0  0  0  0  0  0  0  0  0
    3.0084   -0.1446    0.0000 O   0  0  0  0  0  0  0  0  0  0  0  0
    2.8660   -1.4992    0.0000 O   0  0  0  0  0  0  0  0  0  0  0  0
    4.5981   -1.4992    0.0000 N   0  0  0  0  0  0  0  0  0  0  0  0
    4.1674    1.1426    0.0000 N   0  0  0  0  0  0  0  0  0  0  0  0
    3.4242    1.8117    0.0000 N   0  0  0  0  0  0  0  0  0  0  0  0
    2.5617    6.0844    0.0000 N   0  0  0  0  0  0  0  0  0  0  0  0
    4.7026   -0.5047    0.0000 C   0  0  3  0  0  0  0  0  0  0  0  0
    5.6808   -0.2968    0.0000 C   0  0  0  0  0  0  0  0  0  0  0  0
    6.1808   -1.1628    0.0000 C   0  0  0  0  0  0  0  0  0  0  0  0
    5.5116   -1.9060    0.0000 C   0  0  0  0  0  0  0  0  0  0  0  0
    3.9595    0.1644    0.0000 C   0  0  0  0  0  0  0  0  0  0  0  0
    3.7320   -1.9992    0.0000 C   0  0  0  0  0  0  0  0  0  0  0  0
    3.6321    2.7898    0.0000 C   0  0  0  0  0  0  0  0  0  0  0  0
    2.8890    3.4590    0.0000 C   0  0  0  0  0  0  0  0  0  0  0  0
    3.0969    4.4371    0.0000 C   0  0  0  0  0  0  0  0  0  0  0  0
    2.8660   -3.4992    0.0000 C   0  0  0  0  0  0  0  0  0  0  0  0
    2.3538    5.1062    0.0000 C   0  0  0  0  0  0  0  0  0  0  0  0
    2.8660   -4.4992    0.0000 C   0  0  0  0  0  0  0  0  0  0  0  0
    2.0000   -4.9992    0.0000 C   0  0  0  0  0  0  0  0  0  0  0  0
    3.7320   -4.9992    0.0000 C   0  0  0  0  0  0  0  0  0  0  0  0
    2.0000   -5.9992    0.0000 C   0  0  0  0  0  0  0  0  0  0  0  0
    3.7320   -5.9992    0.0000 C   0  0  0  0  0  0  0  0  0  0  0  0
    2.8660   -6.4992    0.0000 C   0  0  0  0  0  0  0  0  0  0  0  0
    4.1238   -0.7269    0.0000 H   0  0  0  0  0  0  0  0  0  0  0  0
    6.2472   -0.0446    0.0000 H   0  0  0  0  0  0  0  0  0  0  0  0
    5.4892    0.2928    0.0000 H   0  0  0  0  0  0  0  0  0  0  0  0
    6.5956   -1.6236    0.0000 H   0  0  0  0  0  0  0  0  0  0  0  0
    6.6823   -0.7984    0.0000 H   0  0  0  0  0  0  0  0  0  0  0  0
    5.2016   -2.4429    0.0000 H   0  0  0  0  0  0  0  0  0  0  0  0
    6.0132   -2.2704    0.0000 H   0  0  0  0  0  0  0  0  0  0  0  0
    4.7570    1.3341    0.0000 H   0  0  0  0  0  0  0  0  0  0  0  0
    2.8346    1.6201    0.0000 H   0  0  0  0  0  0  0  0  0  0  0  0
    4.2070    2.5576    0.0000 H   0  0  0  0  0  0  0  0  0  0  0  0
    3.9607    3.3156    0.0000 H   0  0  0  0  0  0  0  0  0  0  0  0
    2.3141    3.6912    0.0000 H   0  0  0  0  0  0  0  0  0  0  0  0
    2.5604    2.9332    0.0000 H   0  0  0  0  0  0  0  0  0  0  0  0
    3.6718    4.2049    0.0000 H   0  0  0  0  0  0  0  0  0  0  0  0
    3.4255    4.9629    0.0000 H   0  0  0  0  0  0  0  0  0  0  0  0
    2.6540   -2.9166    0.0000 H   0  0  0  0  0  0  0  0  0  0  0  0
    2.2554   -3.6069    0.0000 H   0  0  0  0  0  0  0  0  0  0  0  0
    1.7789    5.3385    0.0000 H   0  0  0  0  0  0  0  0  0  0  0  0
    2.0252    4.5804    0.0000 H   0  0  0  0  0  0  0  0  0  0  0  0
    1.4631   -4.6892    0.0000 H   0  0  0  0  0  0  0  0  0  0  0  0
    4.2690   -4.6892    0.0000 H   0  0  0  0  0  0  0  0  0  0  0  0
    2.1009    6.4992    0.0000 H   0  0  0  0  0  0  0  0  0  0  0  0
    3.1513    6.2760    0.0000 H   0  0  0  0  0  0  0  0  0  0  0  0
    1.4631   -6.3092    0.0000 H   0  0  0  0  0  0  0  0  0  0  0  0
    4.2690   -6.3092    0.0000 H   0  0  0  0  0  0  0  0  0  0  0  0
    2.8660   -7.1192    0.0000 H   0  0  0  0  0  0  0  0  0  0  0  0
  1 13  1  0  0  0  0
  1 17  1  0  0  0  0
  2 12  2  0  0  0  0
  3 13  2  0  0  0  0
  4  8  1  0  0  0  0
  4 11  1  0  0  0  0
  4 13  1  0  0  0  0
  5  6  1  0  0  0  0
  5 12  1  0  0  0  0
  5 32  1  0  0  0  0
  6 14  1  0  0  0  0
  6 33  1  0  0  0  0
  7 18  1  0  0  0  0
  7 46  1  0  0  0  0
  7 47  1  0  0  0  0
  8  9  1  0  0  0  0
  8 12  1  0  0  0  0
  8 25  1  0  0  0  0
  9 10  1  0  0  0  0
  9 26  1  0  0  0  0
  9 27  1  0  0  0  0
 10 11  1  0  0  0  0
 10 28  1  0  0  0  0
 10 29  1  0  0  0  0
 11 30  1  0  0  0  0
 11 31  1  0  0  0  0
 14 15  1  0  0  0  0
 14 34  1  0  0  0  0
 14 35  1  0  0  0  0
 15 16  1  0  0  0  0
 15 36  1  0  0  0  0
 15 37  1  0  0  0  0
 16 18  1  0  0  0  0
 16 38  1  0  0  0  0
 16 39  1  0  0  0  0
 17 19  1  0  0  0  0
 17 40  1  0  0  0  0
 17 41  1  0  0  0  0
 18 42  1  0  0  0  0
 18 43  1  0  0  0  0
 19 20  2  0  0  0  0
 19 21  1  0  0  0  0
 20 22  1  0  0  0  0
 20 44  1  0  0  0  0
 21 23  2  0  0  0  0
 21 45  1  0  0  0  0
 22 24  2  0  0  0  0
 22 48  1  0  0  0  0
 23 24  1  0  0  0  0
 23 49  1  0  0  0  0
 24 50  1  0  0  0  0
M  END
> <PUBCHEM_COMPOUND_CID>
4355

> <PUBCHEM_COMPOUND_CANONICALIZED>
1

> <PUBCHEM_CACTVS_COMPLEXITY>
399

> <PUBCHEM_CACTVS_HBOND_ACCEPTOR>
5

> <PUBCHEM_CACTVS_HBOND_DONOR>
3

> <PUBCHEM_CACTVS_ROTATABLE_BOND>
9

> <PUBCHEM_CACTVS_SUBSKEYS>
AAADceB7sAAAAAAAAAAAAAAAAAAAAWAAAAAwAAAAAAAAAAABAAAAHgAYAAAADCjhmAYwCINiBACIAiFSGAACAAAgAAIaqIGICIgIZjKAsTicMAAk1gGIqAeYwSAOAAAAAAAAAAAAAAAAAAAAAAAAAAAAAA==

> <PUBCHEM_IUPAC_OPENEYE_NAME>
benzyl 2-[(4-aminobutylamino)carbamoyl]pyrrolidine-1-carboxylate

> <PUBCHEM_IUPAC_CAS_NAME>
2-[(4-aminobutylhydrazo)-oxomethyl]-1-pyrrolidinecarboxylic acid (phenylmethyl) ester

> <PUBCHEM_IUPAC_NAME>
benzyl 2-[(4-aminobutylamino)carbamoyl]pyrrolidine-1-carboxylate

> <PUBCHEM_IUPAC_SYSTEMATIC_NAME>
(phenylmethyl) 2-[(4-azanylbutylamino)carbamoyl]pyrrolidine-1-carboxylate

> <PUBCHEM_IUPAC_TRADITIONAL_NAME>
2-[(4-aminobutylamino)carbamoyl]pyrrolidine-1-carboxylic acid benzyl ester

> <PUBCHEM_IUPAC_INCHI>
InChI=1S/C17H26N4O3/c18-10-4-5-11-19-20-16(22)15-9-6-12-21(15)17(23)24-13-14-7-2-1-3-8-14/h1-3,7-8,15,19H,4-6,9-13,18H2,(H,20,22)

> <PUBCHEM_IUPAC_INCHIKEY>
MOCIXHUQBOUBAK-UHFFFAOYSA-N

> <PUBCHEM_XLOGP3_AA>
1

> <PUBCHEM_EXACT_MASS>
334.200491

> <PUBCHEM_MOLECULAR_FORMULA>
C17H26N4O3

> <PUBCHEM_MOLECULAR_WEIGHT>
334.41334

> <PUBCHEM_OPENEYE_CAN_SMILES>
C1CC(N(C1)C(=O)OCC2=CC=CC=C2)C(=O)NNCCCCN

> <PUBCHEM_OPENEYE_ISO_SMILES>
C1CC(N(C1)C(=O)OCC2=CC=CC=C2)C(=O)NNCCCCN

> <PUBCHEM_CACTVS_TPSA>
96.7

> <PUBCHEM_MONOISOTOPIC_WEIGHT>
334.200491

> <PUBCHEM_TOTAL_CHARGE>
0

> <PUBCHEM_HEAVY_ATOM_COUNT>
24

> <PUBCHEM_ATOM_DEF_STEREO_COUNT>
0

> <PUBCHEM_ATOM_UDEF_STEREO_COUNT>
1

> <PUBCHEM_BOND_DEF_STEREO_COUNT>
0

> <PUBCHEM_BOND_UDEF_STEREO_COUNT>
0

> <PUBCHEM_ISOTOPIC_ATOM_COUNT>
0

> <PUBCHEM_COMPONENT_COUNT>
1

> <PUBCHEM_CACTVS_TAUTO_COUNT>
2

> <PUBCHEM_COORDINATE_TYPE>
1
5
255

> <PUBCHEM_BONDANNOTATIONS>
19  20  8
19  21  8
20  22  8
21  23  8
22  24  8
23  24  8
8  12  3

$$$$

