11822
  -OEChem-06261206092D

 88 92  0     1  0  0  0  0  0999 V2000
    7.2641   -2.0000    0.0000 O   0  0  0  0  0  0  0  0  0  0  0  0
    7.2641    2.0000    0.0000 O   0  0  0  0  0  0  0  0  0  0  0  0
    2.8680   -3.4758    0.0000 O   0  0  0  0  0  0  0  0  0  0  0  0
   11.6602    3.4758    0.0000 O   0  0  0  0  0  0  0  0  0  0  0  0
    2.8680   -5.5242    0.0000 O   0  0  0  0  0  0  0  0  0  0  0  0
   11.6602    5.5242    0.0000 O   0  0  0  0  0  0  0  0  0  0  0  0
    7.2641    4.0000    0.0000 N   0  3  0  0  0  0  0  0  0  0  0  0
    7.2641   -4.0000    0.0000 N   0  3  0  0  0  0  0  0  0  0  0  0
    6.3981   -3.5000    0.0000 C   0  0  3  0  0  0  0  0  0  0  0  0
    8.1301    3.5000    0.0000 C   0  0  3  0  0  0  0  0  0  0  0  0
    7.2641    5.0000    0.0000 C   0  0  0  0  0  0  0  0  0  0  0  0
    7.2641   -5.0000    0.0000 C   0  0  0  0  0  0  0  0  0  0  0  0
    5.5320   -4.0000    0.0000 C   0  0  0  0  0  0  0  0  0  0  0  0
    8.9962    4.0000    0.0000 C   0  0  0  0  0  0  0  0  0  0  0  0
    8.1301    5.5000    0.0000 C   0  0  0  0  0  0  0  0  0  0  0  0
    6.3981   -5.5000    0.0000 C   0  0  0  0  0  0  0  0  0  0  0  0
    5.5320   -5.0000    0.0000 C   0  0  0  0  0  0  0  0  0  0  0  0
    8.9962    5.0000    0.0000 C   0  0  0  0  0  0  0  0  0  0  0  0
    8.2641   -4.0000    0.0000 C   0  0  0  0  0  0  0  0  0  0  0  0
    7.7641   -3.1340    0.0000 C   0  0  0  0  0  0  0  0  0  0  0  0
    6.2641    4.0000    0.0000 C   0  0  0  0  0  0  0  0  0  0  0  0
    6.7641    3.1340    0.0000 C   0  0  0  0  0  0  0  0  0  0  0  0
    6.3981   -2.5000    0.0000 C   0  0  0  0  0  0  0  0  0  0  0  0
    8.1301    2.5000    0.0000 C   0  0  0  0  0  0  0  0  0  0  0  0
    4.6381   -3.4653    0.0000 C   0  0  0  0  0  0  0  0  0  0  0  0
    9.8901    3.4653    0.0000 C   0  0  0  0  0  0  0  0  0  0  0  0
    4.6381   -5.5347    0.0000 C   0  0  0  0  0  0  0  0  0  0  0  0
    9.8901    5.5347    0.0000 C   0  0  0  0  0  0  0  0  0  0  0  0
    3.7320   -3.9792    0.0000 C   0  0  0  0  0  0  0  0  0  0  0  0
   10.7962    3.9792    0.0000 C   0  0  0  0  0  0  0  0  0  0  0  0
    3.7320   -5.0208    0.0000 C   0  0  0  0  0  0  0  0  0  0  0  0
   10.7962    5.0208    0.0000 C   0  0  0  0  0  0  0  0  0  0  0  0
    7.2641   -1.0000    0.0000 C   0  0  0  0  0  0  0  0  0  0  0  0
    7.2641    1.0000    0.0000 C   0  0  0  0  0  0  0  0  0  0  0  0
    8.1301   -0.5000    0.0000 C   0  0  0  0  0  0  0  0  0  0  0  0
    8.1301    0.5000    0.0000 C   0  0  0  0  0  0  0  0  0  0  0  0
    6.3981   -0.5000    0.0000 C   0  0  0  0  0  0  0  0  0  0  0  0
    6.3981    0.5000    0.0000 C   0  0  0  0  0  0  0  0  0  0  0  0
   11.6564    2.4759    0.0000 C   0  0  0  0  0  0  0  0  0  0  0  0
    2.0000   -3.9725    0.0000 C   0  0  0  0  0  0  0  0  0  0  0  0
   11.6564    6.5241    0.0000 C   0  0  0  0  0  0  0  0  0  0  0  0
    2.8718   -6.5241    0.0000 C   0  0  0  0  0  0  0  0  0  0  0  0
    6.9350   -3.1900    0.0000 H   0  0  0  0  0  0  0  0  0  0  0  0
    7.5932    3.1900    0.0000 H   0  0  0  0  0  0  0  0  0  0  0  0
    7.0520    5.5826    0.0000 H   0  0  0  0  0  0  0  0  0  0  0  0
    6.6535    4.8923    0.0000 H   0  0  0  0  0  0  0  0  0  0  0  0
    7.4762   -5.5826    0.0000 H   0  0  0  0  0  0  0  0  0  0  0  0
    7.8747   -4.8923    0.0000 H   0  0  0  0  0  0  0  0  0  0  0  0
    8.5287    5.9750    0.0000 H   0  0  0  0  0  0  0  0  0  0  0  0
    7.7316    5.9750    0.0000 H   0  0  0  0  0  0  0  0  0  0  0  0
    5.9995   -5.9750    0.0000 H   0  0  0  0  0  0  0  0  0  0  0  0
    6.7966   -5.9750    0.0000 H   0  0  0  0  0  0  0  0  0  0  0  0
    8.2641   -4.6200    0.0000 H   0  0  0  0  0  0  0  0  0  0  0  0
    8.8841   -4.0000    0.0000 H   0  0  0  0  0  0  0  0  0  0  0  0
    8.2641   -3.3800    0.0000 H   0  0  0  0  0  0  0  0  0  0  0  0
    8.3010   -3.4440    0.0000 H   0  0  0  0  0  0  0  0  0  0  0  0
    8.0741   -2.5970    0.0000 H   0  0  0  0  0  0  0  0  0  0  0  0
    7.2272   -2.8240    0.0000 H   0  0  0  0  0  0  0  0  0  0  0  0
    6.2641    4.6200    0.0000 H   0  0  0  0  0  0  0  0  0  0  0  0
    5.6441    4.0000    0.0000 H   0  0  0  0  0  0  0  0  0  0  0  0
    6.2272    3.4440    0.0000 H   0  0  0  0  0  0  0  0  0  0  0  0
    6.4541    2.5970    0.0000 H   0  0  0  0  0  0  0  0  0  0  0  0
    7.3010    2.8240    0.0000 H   0  0  0  0  0  0  0  0  0  0  0  0
    6.2641    3.3800    0.0000 H   0  0  0  0  0  0  0  0  0  0  0  0
    8.3422    1.9174    0.0000 H   0  0  0  0  0  0  0  0  0  0  0  0
    8.7407    2.6077    0.0000 H   0  0  0  0  0  0  0  0  0  0  0  0
    6.1860   -1.9174    0.0000 H   0  0  0  0  0  0  0  0  0  0  0  0
    5.7875   -2.6077    0.0000 H   0  0  0  0  0  0  0  0  0  0  0  0
    9.8829    2.8454    0.0000 H   0  0  0  0  0  0  0  0  0  0  0  0
    4.6453   -2.8454    0.0000 H   0  0  0  0  0  0  0  0  0  0  0  0
    4.6453   -6.1546    0.0000 H   0  0  0  0  0  0  0  0  0  0  0  0
    9.8829    6.1546    0.0000 H   0  0  0  0  0  0  0  0  0  0  0  0
    8.6671   -0.8100    0.0000 H   0  0  0  0  0  0  0  0  0  0  0  0
    8.6671    0.8100    0.0000 H   0  0  0  0  0  0  0  0  0  0  0  0
    5.8611   -0.8100    0.0000 H   0  0  0  0  0  0  0  0  0  0  0  0
    5.8611    0.8100    0.0000 H   0  0  0  0  0  0  0  0  0  0  0  0
    1.6921   -3.4344    0.0000 H   0  0  0  0  0  0  0  0  0  0  0  0
    1.4619   -4.2804    0.0000 H   0  0  0  0  0  0  0  0  0  0  0  0
    2.3079   -4.5106    0.0000 H   0  0  0  0  0  0  0  0  0  0  0  0
   11.0364    2.4782    0.0000 H   0  0  0  0  0  0  0  0  0  0  0  0
   11.6540    1.8559    0.0000 H   0  0  0  0  0  0  0  0  0  0  0  0
   12.2764    2.4735    0.0000 H   0  0  0  0  0  0  0  0  0  0  0  0
    2.2518   -6.5265    0.0000 H   0  0  0  0  0  0  0  0  0  0  0  0
    2.8742   -7.1441    0.0000 H   0  0  0  0  0  0  0  0  0  0  0  0
   12.2764    6.5265    0.0000 H   0  0  0  0  0  0  0  0  0  0  0  0
   11.6540    7.1441    0.0000 H   0  0  0  0  0  0  0  0  0  0  0  0
   11.0364    6.5218    0.0000 H   0  0  0  0  0  0  0  0  0  0  0  0
    3.4918   -6.5218    0.0000 H   0  0  0  0  0  0  0  0  0  0  0  0
  1 23  1  0  0  0  0
  1 33  1  0  0  0  0
  2 24  1  0  0  0  0
  2 34  1  0  0  0  0
  3 29  1  0  0  0  0
  3 40  1  0  0  0  0
  4 30  1  0  0  0  0
  4 39  1  0  0  0  0
  5 31  1  0  0  0  0
  5 42  1  0  0  0  0
  6 32  1  0  0  0  0
  6 41  1  0  0  0  0
  7 10  1  0  0  0  0
  7 11  1  0  0  0  0
  7 21  1  0  0  0  0
  7 22  1  0  0  0  0
  8  9  1  0  0  0  0
  8 12  1  0  0  0  0
  8 19  1  0  0  0  0
  8 20  1  0  0  0  0
  9 13  1  0  0  0  0
  9 23  1  0  0  0  0
  9 43  1  0  0  0  0
 10 14  1  0  0  0  0
 10 24  1  0  0  0  0
 10 44  1  0  0  0  0
 11 15  1  0  0  0  0
 11 45  1  0  0  0  0
 11 46  1  0  0  0  0
 12 16  1  0  0  0  0
 12 47  1  0  0  0  0
 12 48  1  0  0  0  0
 13 17  1  0  0  0  0
 13 25  2  0  0  0  0
 14 18  1  0  0  0  0
 14 26  2  0  0  0  0
 15 18  1  0  0  0  0
 15 49  1  0  0  0  0
 15 50  1  0  0  0  0
 16 17  1  0  0  0  0
 16 51  1  0  0  0  0
 16 52  1  0  0  0  0
 17 27  2  0  0  0  0
 18 28  2  0  0  0  0
 19 53  1  0  0  0  0
 19 54  1  0  0  0  0
 19 55  1  0  0  0  0
 20 56  1  0  0  0  0
 20 57  1  0  0  0  0
 20 58  1  0  0  0  0
 21 59  1  0  0  0  0
 21 60  1  0  0  0  0
 21 64  1  0  0  0  0
 22 61  1  0  0  0  0
 22 62  1  0  0  0  0
 22 63  1  0  0  0  0
 23 67  1  0  0  0  0
 23 68  1  0  0  0  0
 24 65  1  0  0  0  0
 24 66  1  0  0  0  0
 25 29  1  0  0  0  0
 25 70  1  0  0  0  0
 26 30  1  0  0  0  0
 26 69  1  0  0  0  0
 27 31  1  0  0  0  0
 27 71  1  0  0  0  0
 28 32  1  0  0  0  0
 28 72  1  0  0  0  0
 29 31  2  0  0  0  0
 30 32  2  0  0  0  0
 33 35  2  0  0  0  0
 33 37  1  0  0  0  0
 34 36  2  0  0  0  0
 34 38  1  0  0  0  0
 35 36  1  0  0  0  0
 35 73  1  0  0  0  0
 36 74  1  0  0  0  0
 37 38  2  0  0  0  0
 37 75  1  0  0  0  0
 38 76  1  0  0  0  0
 39 80  1  0  0  0  0
 39 81  1  0  0  0  0
 39 82  1  0  0  0  0
 40 77  1  0  0  0  0
 40 78  1  0  0  0  0
 40 79  1  0  0  0  0
 41 85  1  0  0  0  0
 41 86  1  0  0  0  0
 41 87  1  0  0  0  0
 42 83  1  0  0  0  0
 42 84  1  0  0  0  0
 42 88  1  0  0  0  0
M  CHG  2   7   1   8   1
M  END
> <PUBCHEM_COMPOUND_CID>
11822

> <PUBCHEM_COMPOUND_CANONICALIZED>
1

> <PUBCHEM_CACTVS_COMPLEXITY>
780

> <PUBCHEM_CACTVS_HBOND_ACCEPTOR>
6

> <PUBCHEM_CACTVS_HBOND_DONOR>
0

> <PUBCHEM_CACTVS_ROTATABLE_BOND>
10

> <PUBCHEM_CACTVS_SUBSKEYS>
AAADcfB/OAAAAAAAAAAAAAAAAAAAAAAAAAA8eMECAAAAAACxUAAAHgAAAAAADCzhmAYyBoMABACAAiBCAACCCAAgIAAIiAAOjIgPJiKEsRuHOCrkwBGaqAfw8L8OoQABAAAQQABCAAIAACCAAAAAAAAAAA==

> <PUBCHEM_IUPAC_OPENEYE_NAME>
1-[[4-[(6,7-dimethoxy-2,2-dimethyl-3,4-dihydro-1H-isoquinolin-2-ium-1-yl)methoxy]phenoxy]methyl]-6,7-dimethoxy-2,2-dimethyl-3,4-dihydro-1H-isoquinolin-2-ium

> <PUBCHEM_IUPAC_CAS_NAME>
1-[[4-[(6,7-dimethoxy-2,2-dimethyl-3,4-dihydro-1H-isoquinolin-2-ium-1-yl)methoxy]phenoxy]methyl]-6,7-dimethoxy-2,2-dimethyl-3,4-dihydro-1H-isoquinolin-2-ium

> <PUBCHEM_IUPAC_NAME>
1-[[4-[(6,7-dimethoxy-2,2-dimethyl-3,4-dihydro-1H-isoquinolin-2-ium-1-yl)methoxy]phenoxy]methyl]-6,7-dimethoxy-2,2-dimethyl-3,4-dihydro-1H-isoquinolin-2-ium

> <PUBCHEM_IUPAC_SYSTEMATIC_NAME>
1-[[4-[(6,7-dimethoxy-2,2-dimethyl-3,4-dihydro-1H-isoquinolin-2-ium-1-yl)methoxy]phenoxy]methyl]-6,7-dimethoxy-2,2-dimethyl-3,4-dihydro-1H-isoquinolin-2-ium

> <PUBCHEM_IUPAC_TRADITIONAL_NAME>
1-[[4-[(6,7-dimethoxy-2,2-dimethyl-3,4-dihydro-1H-isoquinolin-2-ium-1-yl)methoxy]phenoxy]methyl]-6,7-dimethoxy-2,2-dimethyl-3,4-dihydro-1H-isoquinolin-2-ium

> <PUBCHEM_IUPAC_INCHI>
InChI=1S/C34H46N2O6/c1-35(2)15-13-23-17-31(37-5)33(39-7)19-27(23)29(35)21-41-25-9-11-26(12-10-25)42-22-30-28-20-34(40-8)32(38-6)18-24(28)14-16-36(30,3)4/h9-12,17-20,29-30H,13-16,21-22H2,1-8H3/q+2

> <PUBCHEM_IUPAC_INCHIKEY>
NQOXTWKYIXUJCP-UHFFFAOYSA-N

> <PUBCHEM_XLOGP3_AA>
5

> <PUBCHEM_EXACT_MASS>
578.335587

> <PUBCHEM_MOLECULAR_FORMULA>
C34H46N2O6+2

> <PUBCHEM_MOLECULAR_WEIGHT>
578.73884

> <PUBCHEM_OPENEYE_CAN_SMILES>
C[N+]1(CCC2=CC(=C(C=C2C1COC3=CC=C(C=C3)OCC4C5=CC(=C(C=C5CC[N+]4(C)C)OC)OC)OC)OC)C

> <PUBCHEM_OPENEYE_ISO_SMILES>
C[N+]1(CCC2=CC(=C(C=C2C1COC3=CC=C(C=C3)OCC4C5=CC(=C(C=C5CC[N+]4(C)C)OC)OC)OC)OC)C

> <PUBCHEM_CACTVS_TPSA>
55.4

> <PUBCHEM_MONOISOTOPIC_WEIGHT>
578.335587

> <PUBCHEM_TOTAL_CHARGE>
2

> <PUBCHEM_HEAVY_ATOM_COUNT>
42

> <PUBCHEM_ATOM_DEF_STEREO_COUNT>
0

> <PUBCHEM_ATOM_UDEF_STEREO_COUNT>
2

> <PUBCHEM_BOND_DEF_STEREO_COUNT>
0

> <PUBCHEM_BOND_UDEF_STEREO_COUNT>
0

> <PUBCHEM_ISOTOPIC_ATOM_COUNT>
0

> <PUBCHEM_COMPONENT_COUNT>
1

> <PUBCHEM_CACTVS_TAUTO_COUNT>
1

> <PUBCHEM_COORDINATE_TYPE>
1
5
255

> <PUBCHEM_BONDANNOTATIONS>
10  24  3
13  17  8
13  25  8
14  18  8
14  26  8
17  27  8
18  28  8
25  29  8
26  30  8
27  31  8
28  32  8
29  31  8
30  32  8
33  35  8
33  37  8
34  36  8
34  38  8
35  36  8
37  38  8
9  23  3

$$$$

