17396128
  -OEChem-06241222542D

 50 52  0     0  0  0  0  0  0999 V2000
    4.5981   -0.2694    0.0000 Cl  0  0  0  0  0  0  0  0  0  0  0  0
    8.0622    0.7306    0.0000 S   0  0  0  0  0  0  0  0  0  0  0  0
    9.0622    0.7306    0.0000 O   0  0  0  0  0  0  0  0  0  0  0  0
    7.0622    0.7306    0.0000 O   0  0  0  0  0  0  0  0  0  0  0  0
    6.3301   -3.2694    0.0000 O   0  0  0  0  0  0  0  0  0  0  0  0
    8.0622    1.7306    0.0000 N   0  0  0  0  0  0  0  0  0  0  0  0
    5.4641   -1.7694    0.0000 N   0  0  0  0  0  0  0  0  0  0  0  0
    8.8712    2.3184    0.0000 C   0  0  0  0  0  0  0  0  0  0  0  0
    7.2532    2.3184    0.0000 C   0  0  0  0  0  0  0  0  0  0  0  0
    8.5622    3.2694    0.0000 C   0  0  0  0  0  0  0  0  0  0  0  0
    7.5622    3.2694    0.0000 C   0  0  0  0  0  0  0  0  0  0  0  0
    8.0622   -0.2694    0.0000 C   0  0  0  0  0  0  0  0  0  0  0  0
    7.1962   -0.7694    0.0000 C   0  0  0  0  0  0  0  0  0  0  0  0
    8.9282   -0.7694    0.0000 C   0  0  0  0  0  0  0  0  0  0  0  0
    7.1962   -1.7694    0.0000 C   0  0  0  0  0  0  0  0  0  0  0  0
    8.0622   -2.2694    0.0000 C   0  0  0  0  0  0  0  0  0  0  0  0
    8.9282   -1.7694    0.0000 C   0  0  0  0  0  0  0  0  0  0  0  0
    6.3301   -2.2694    0.0000 C   0  0  0  0  0  0  0  0  0  0  0  0
    8.0622   -3.2694    0.0000 C   0  0  0  0  0  0  0  0  0  0  0  0
    4.5981   -2.2694    0.0000 C   0  0  0  0  0  0  0  0  0  0  0  0
    3.7320   -1.7694    0.0000 C   0  0  0  0  0  0  0  0  0  0  0  0
    5.4641   -0.7694    0.0000 C   0  0  0  0  0  0  0  0  0  0  0  0
    3.7320   -0.7694    0.0000 C   0  0  0  0  0  0  0  0  0  0  0  0
    2.8660   -2.2694    0.0000 C   0  0  0  0  0  0  0  0  0  0  0  0
    2.8660   -0.2694    0.0000 C   0  0  0  0  0  0  0  0  0  0  0  0
    2.0000   -1.7694    0.0000 C   0  0  0  0  0  0  0  0  0  0  0  0
    2.0000   -0.7694    0.0000 C   0  0  0  0  0  0  0  0  0  0  0  0
    9.1812    1.7814    0.0000 H   0  0  0  0  0  0  0  0  0  0  0  0
    9.4376    2.5705    0.0000 H   0  0  0  0  0  0  0  0  0  0  0  0
    6.6868    2.5705    0.0000 H   0  0  0  0  0  0  0  0  0  0  0  0
    6.9432    1.7814    0.0000 H   0  0  0  0  0  0  0  0  0  0  0  0
    9.1686    3.3983    0.0000 H   0  0  0  0  0  0  0  0  0  0  0  0
    8.4974    3.8860    0.0000 H   0  0  0  0  0  0  0  0  0  0  0  0
    7.6270    3.8860    0.0000 H   0  0  0  0  0  0  0  0  0  0  0  0
    6.9557    3.3983    0.0000 H   0  0  0  0  0  0  0  0  0  0  0  0
    6.6592   -0.4594    0.0000 H   0  0  0  0  0  0  0  0  0  0  0  0
    9.4651   -0.4594    0.0000 H   0  0  0  0  0  0  0  0  0  0  0  0
    9.4651   -2.0794    0.0000 H   0  0  0  0  0  0  0  0  0  0  0  0
    7.4422   -3.2694    0.0000 H   0  0  0  0  0  0  0  0  0  0  0  0
    8.0622   -3.8894    0.0000 H   0  0  0  0  0  0  0  0  0  0  0  0
    8.6822   -3.2694    0.0000 H   0  0  0  0  0  0  0  0  0  0  0  0
    4.1996   -2.7444    0.0000 H   0  0  0  0  0  0  0  0  0  0  0  0
    4.9966   -2.7444    0.0000 H   0  0  0  0  0  0  0  0  0  0  0  0
    6.0841   -0.7694    0.0000 H   0  0  0  0  0  0  0  0  0  0  0  0
    5.4641   -0.1494    0.0000 H   0  0  0  0  0  0  0  0  0  0  0  0
    4.8441   -0.7694    0.0000 H   0  0  0  0  0  0  0  0  0  0  0  0
    2.8660   -2.8894    0.0000 H   0  0  0  0  0  0  0  0  0  0  0  0
    2.8660    0.3506    0.0000 H   0  0  0  0  0  0  0  0  0  0  0  0
    1.4631   -2.0794    0.0000 H   0  0  0  0  0  0  0  0  0  0  0  0
    1.4631   -0.4594    0.0000 H   0  0  0  0  0  0  0  0  0  0  0  0
  1 23  1  0  0  0  0
  2  3  2  0  0  0  0
  2  4  2  0  0  0  0
  2  6  1  0  0  0  0
  2 12  1  0  0  0  0
  5 18  2  0  0  0  0
  6  8  1  0  0  0  0
  6  9  1  0  0  0  0
  7 18  1  0  0  0  0
  7 20  1  0  0  0  0
  7 22  1  0  0  0  0
  8 10  1  0  0  0  0
  8 28  1  0  0  0  0
  8 29  1  0  0  0  0
  9 11  1  0  0  0  0
  9 30  1  0  0  0  0
  9 31  1  0  0  0  0
 10 11  1  0  0  0  0
 10 32  1  0  0  0  0
 10 33  1  0  0  0  0
 11 34  1  0  0  0  0
 11 35  1  0  0  0  0
 12 13  2  0  0  0  0
 12 14  1  0  0  0  0
 13 15  1  0  0  0  0
 13 36  1  0  0  0  0
 14 17  2  0  0  0  0
 14 37  1  0  0  0  0
 15 16  2  0  0  0  0
 15 18  1  0  0  0  0
 16 17  1  0  0  0  0
 16 19  1  0  0  0  0
 17 38  1  0  0  0  0
 19 39  1  0  0  0  0
 19 40  1  0  0  0  0
 19 41  1  0  0  0  0
 20 21  1  0  0  0  0
 20 42  1  0  0  0  0
 20 43  1  0  0  0  0
 21 23  1  0  0  0  0
 21 24  2  0  0  0  0
 22 44  1  0  0  0  0
 22 45  1  0  0  0  0
 22 46  1  0  0  0  0
 23 25  2  0  0  0  0
 24 26  1  0  0  0  0
 24 47  1  0  0  0  0
 25 27  1  0  0  0  0
 25 48  1  0  0  0  0
 26 27  2  0  0  0  0
 26 49  1  0  0  0  0
 27 50  1  0  0  0  0
M  END
> <PUBCHEM_COMPOUND_CID>
17396128

> <PUBCHEM_COMPOUND_CANONICALIZED>
1

> <PUBCHEM_CACTVS_COMPLEXITY>
615

> <PUBCHEM_CACTVS_HBOND_ACCEPTOR>
4

> <PUBCHEM_CACTVS_HBOND_DONOR>
0

> <PUBCHEM_CACTVS_ROTATABLE_BOND>
5

> <PUBCHEM_CACTVS_SUBSKEYS>
AAADceB7MABEAAAAAAAAAAAAAAAAAWAAAAAwYAAAAAAAAAABQAAAHgYAQAAADALB2CQyAYMAAAKIAiFSEHDCABAkBQAIiBkIBsgIIDKBlxGEIQhghgCIiYcYiICOkAAAgAARAAAgAAEAACIAAAAAAAAAAA==

> <PUBCHEM_IUPAC_OPENEYE_NAME>
N-[(2-chlorophenyl)methyl]-N,2-dimethyl-5-pyrrolidin-1-ylsulfonyl-benzamide

> <PUBCHEM_IUPAC_CAS_NAME>
N-[(2-chlorophenyl)methyl]-N,2-dimethyl-5-(1-pyrrolidinylsulfonyl)benzamide

> <PUBCHEM_IUPAC_NAME>
N-[(2-chlorophenyl)methyl]-N,2-dimethyl-5-pyrrolidin-1-ylsulfonylbenzamide

> <PUBCHEM_IUPAC_SYSTEMATIC_NAME>
N-[(2-chlorophenyl)methyl]-N,2-dimethyl-5-pyrrolidin-1-ylsulfonyl-benzamide

> <PUBCHEM_IUPAC_TRADITIONAL_NAME>
N-(2-chlorobenzyl)-N,2-dimethyl-5-pyrrolidinosulfonyl-benzamide

> <PUBCHEM_IUPAC_INCHI>
InChI=1S/C20H23ClN2O3S/c1-15-9-10-17(27(25,26)23-11-5-6-12-23)13-18(15)20(24)22(2)14-16-7-3-4-8-19(16)21/h3-4,7-10,13H,5-6,11-12,14H2,1-2H3

> <PUBCHEM_IUPAC_INCHIKEY>
KIAJIHAEYNCMJK-UHFFFAOYSA-N

> <PUBCHEM_XLOGP3_AA>
3.5

> <PUBCHEM_EXACT_MASS>
406.111791

> <PUBCHEM_MOLECULAR_FORMULA>
C20H23ClN2O3S

> <PUBCHEM_MOLECULAR_WEIGHT>
406.92622

> <PUBCHEM_OPENEYE_CAN_SMILES>
CC1=C(C=C(C=C1)S(=O)(=O)N2CCCC2)C(=O)N(C)CC3=CC=CC=C3Cl

> <PUBCHEM_OPENEYE_ISO_SMILES>
CC1=C(C=C(C=C1)S(=O)(=O)N2CCCC2)C(=O)N(C)CC3=CC=CC=C3Cl

> <PUBCHEM_CACTVS_TPSA>
66.1

> <PUBCHEM_MONOISOTOPIC_WEIGHT>
406.111791

> <PUBCHEM_TOTAL_CHARGE>
0

> <PUBCHEM_HEAVY_ATOM_COUNT>
27

> <PUBCHEM_ATOM_DEF_STEREO_COUNT>
0

> <PUBCHEM_ATOM_UDEF_STEREO_COUNT>
0

> <PUBCHEM_BOND_DEF_STEREO_COUNT>
0

> <PUBCHEM_BOND_UDEF_STEREO_COUNT>
0

> <PUBCHEM_ISOTOPIC_ATOM_COUNT>
0

> <PUBCHEM_COMPONENT_COUNT>
1

> <PUBCHEM_CACTVS_TAUTO_COUNT>
1

> <PUBCHEM_COORDINATE_TYPE>
1
5
255

> <PUBCHEM_BONDANNOTATIONS>
12  13  8
12  14  8
13  15  8
14  17  8
15  16  8
16  17  8
21  23  8
21  24  8
23  25  8
24  26  8
25  27  8
26  27  8

$$$$

