11116
  -OEChem-06261205192D

 39 38  0     0  0  0  0  0  0999 V2000
    7.4040    4.6735    0.0000 Cl  0  0  0  0  0  0  0  0  0  0  0  0
    2.2690    4.8100    0.0000 O   0  0  0  0  0  0  0  0  0  0  0  0
    0.5369    4.8100    0.0000 O   0  0  0  0  0  0  0  0  0  0  0  0
    3.1350    7.3100    0.0000 N   0  0  0  0  0  0  0  0  0  0  0  0
    1.4030    0.3100    0.0000 N   0  0  0  0  0  0  0  0  0  0  0  0
    4.0010    8.8100    0.0000 C   0  0  0  0  0  0  0  0  0  0  0  0
    4.0010    7.8100    0.0000 C   0  0  0  0  0  0  0  0  0  0  0  0
    4.8671    9.3100    0.0000 C   0  0  0  0  0  0  0  0  0  0  0  0
    3.1350    9.3100    0.0000 C   0  0  0  0  0  0  0  0  0  0  0  0
    3.1350    6.3100    0.0000 C   0  0  0  0  0  0  0  0  0  0  0  0
    2.2690    5.8100    0.0000 C   0  0  0  0  0  0  0  0  0  0  0  0
    1.4030    3.3100    0.0000 C   0  0  0  0  0  0  0  0  0  0  0  0
    1.4030    4.3100    0.0000 C   0  0  0  0  0  0  0  0  0  0  0  0
    0.5369    2.8100    0.0000 C   0  0  0  0  0  0  0  0  0  0  0  0
    2.2690    2.8100    0.0000 C   0  0  0  0  0  0  0  0  0  0  0  0
    1.4030    1.3100    0.0000 C   0  0  0  0  0  0  0  0  0  0  0  0
    0.5369    1.8100    0.0000 C   0  0  0  0  0  0  0  0  0  0  0  0
    2.2690    1.8100    0.0000 C   0  0  0  0  0  0  0  0  0  0  0  0
    4.5380    8.5000    0.0000 H   0  0  0  0  0  0  0  0  0  0  0  0
    4.2131    7.2274    0.0000 H   0  0  0  0  0  0  0  0  0  0  0  0
    4.6116    7.9177    0.0000 H   0  0  0  0  0  0  0  0  0  0  0  0
    2.5981    7.6200    0.0000 H   0  0  0  0  0  0  0  0  0  0  0  0
    5.1771    8.7731    0.0000 H   0  0  0  0  0  0  0  0  0  0  0  0
    5.4040    9.6200    0.0000 H   0  0  0  0  0  0  0  0  0  0  0  0
    4.5571    9.8469    0.0000 H   0  0  0  0  0  0  0  0  0  0  0  0
    3.4450    9.8469    0.0000 H   0  0  0  0  0  0  0  0  0  0  0  0
    2.5981    9.6200    0.0000 H   0  0  0  0  0  0  0  0  0  0  0  0
    2.8250    8.7731    0.0000 H   0  0  0  0  0  0  0  0  0  0  0  0
    3.3471    5.7274    0.0000 H   0  0  0  0  0  0  0  0  0  0  0  0
    3.7456    6.4177    0.0000 H   0  0  0  0  0  0  0  0  0  0  0  0
    2.0569    6.3926    0.0000 H   0  0  0  0  0  0  0  0  0  0  0  0
    1.6584    5.7023    0.0000 H   0  0  0  0  0  0  0  0  0  0  0  0
    0.0000    3.1200    0.0000 H   0  0  0  0  0  0  0  0  0  0  0  0
    2.8059    3.1200    0.0000 H   0  0  0  0  0  0  0  0  0  0  0  0
    0.0000    1.5000    0.0000 H   0  0  0  0  0  0  0  0  0  0  0  0
    2.8059    1.5000    0.0000 H   0  0  0  0  0  0  0  0  0  0  0  0
    0.8660    0.0000    0.0000 H   0  0  0  0  0  0  0  0  0  0  0  0
    1.9399    0.0000    0.0000 H   0  0  0  0  0  0  0  0  0  0  0  0
    8.4040    4.6735    0.0000 H   0  0  0  0  0  0  0  0  0  0  0  0
  1 39  1  0  0  0  0
  2 11  1  0  0  0  0
  2 13  1  0  0  0  0
  3 13  2  0  0  0  0
  4  7  1  0  0  0  0
  4 10  1  0  0  0  0
  4 22  1  0  0  0  0
  5 16  1  0  0  0  0
  5 37  1  0  0  0  0
  5 38  1  0  0  0  0
  6  7  1  0  0  0  0
  6  8  1  0  0  0  0
  6  9  1  0  0  0  0
  6 19  1  0  0  0  0
  7 20  1  0  0  0  0
  7 21  1  0  0  0  0
  8 23  1  0  0  0  0
  8 24  1  0  0  0  0
  8 25  1  0  0  0  0
  9 26  1  0  0  0  0
  9 27  1  0  0  0  0
  9 28  1  0  0  0  0
 10 11  1  0  0  0  0
 10 29  1  0  0  0  0
 10 30  1  0  0  0  0
 11 31  1  0  0  0  0
 11 32  1  0  0  0  0
 12 13  1  0  0  0  0
 12 14  2  0  0  0  0
 12 15  1  0  0  0  0
 14 17  1  0  0  0  0
 14 33  1  0  0  0  0
 15 18  2  0  0  0  0
 15 34  1  0  0  0  0
 16 17  2  0  0  0  0
 16 18  1  0  0  0  0
 17 35  1  0  0  0  0
 18 36  1  0  0  0  0
M  END
> <PUBCHEM_COMPOUND_CID>
11116

> <PUBCHEM_COMPOUND_CANONICALIZED>
1

> <PUBCHEM_CACTVS_COMPLEXITY>
224

> <PUBCHEM_CACTVS_HBOND_ACCEPTOR>
4

> <PUBCHEM_CACTVS_HBOND_DONOR>
3

> <PUBCHEM_CACTVS_ROTATABLE_BOND>
7

> <PUBCHEM_CACTVS_SUBSKEYS>
AAADceBzMAAEAAAAAAAAAAAAAAAAAAAAAAAwAAAAAAAAAAABAAAAHgAQAAAADQjhmAYyyILABACIAiTSSACCAAAkAgAIiIEIbMgKJjKAtZmHMQBk0AGY6YeY2SGeCAAAAAAAAAAQAAAAAAAAAAAAAAAAAA==

> <PUBCHEM_IUPAC_OPENEYE_NAME>
2-(isobutylamino)ethyl 4-aminobenzoate hydrochloride

> <PUBCHEM_IUPAC_CAS_NAME>
4-aminobenzoic acid 2-(2-methylpropylamino)ethyl ester hydrochloride

> <PUBCHEM_IUPAC_NAME>
2-(2-methylpropylamino)ethyl 4-aminobenzoate hydrochloride

> <PUBCHEM_IUPAC_SYSTEMATIC_NAME>
2-(2-methylpropylamino)ethyl 4-azanylbenzoate hydrochloride

> <PUBCHEM_IUPAC_TRADITIONAL_NAME>
4-aminobenzoic acid 2-(isobutylamino)ethyl ester hydrochloride

> <PUBCHEM_IUPAC_INCHI>
InChI=1S/C13H20N2O2.ClH/c1-10(2)9-15-7-8-17-13(16)11-3-5-12(14)6-4-11;/h3-6,10,15H,7-9,14H2,1-2H3;1H

> <PUBCHEM_IUPAC_INCHIKEY>
ARKDNMZXRXKLOV-UHFFFAOYSA-N

> <PUBCHEM_EXACT_MASS>
272.129156

> <PUBCHEM_MOLECULAR_FORMULA>
C13H21ClN2O2

> <PUBCHEM_MOLECULAR_WEIGHT>
272.77104

> <PUBCHEM_OPENEYE_CAN_SMILES>
CC(C)CNCCOC(=O)C1=CC=C(C=C1)N.Cl

> <PUBCHEM_OPENEYE_ISO_SMILES>
CC(C)CNCCOC(=O)C1=CC=C(C=C1)N.Cl

> <PUBCHEM_CACTVS_TPSA>
64.4

> <PUBCHEM_MONOISOTOPIC_WEIGHT>
272.129156

> <PUBCHEM_TOTAL_CHARGE>
0

> <PUBCHEM_HEAVY_ATOM_COUNT>
18

> <PUBCHEM_ATOM_DEF_STEREO_COUNT>
0

> <PUBCHEM_ATOM_UDEF_STEREO_COUNT>
0

> <PUBCHEM_BOND_DEF_STEREO_COUNT>
0

> <PUBCHEM_BOND_UDEF_STEREO_COUNT>
0

> <PUBCHEM_ISOTOPIC_ATOM_COUNT>
0

> <PUBCHEM_COMPONENT_COUNT>
2

> <PUBCHEM_CACTVS_TAUTO_COUNT>
3

> <PUBCHEM_COORDINATE_TYPE>
1
5
255

> <PUBCHEM_BONDANNOTATIONS>
12  14  8
12  15  8
14  17  8
15  18  8
16  17  8
16  18  8

$$$$

