17395372
  -OEChem-06241222492D

 34 35  0     1  0  0  0  0  0999 V2000
    6.7046   -2.7493    0.0000 S   0  0  0  0  0  0  0  0  0  0  0  0
    6.2147   -0.7190    0.0000 O   0  0  0  0  0  0  0  0  0  0  0  0
    4.3126   -0.1010    0.0000 O   0  0  0  0  0  0  0  0  0  0  0  0
    2.2788    1.8553    0.0000 O   0  0  0  0  0  0  0  0  0  0  0  0
    7.9089   -0.3589    0.0000 O   0  0  0  0  0  0  0  0  0  0  0  0
    4.8479    1.5463    0.0000 N   0  0  0  0  0  0  0  0  0  0  0  0
    3.0878    1.2675    0.0000 N   0  0  0  0  0  0  0  0  0  0  0  0
    6.0068    0.2591    0.0000 C   0  0  3  0  0  0  0  0  0  0  0  0
    6.7500    0.9282    0.0000 C   0  0  0  0  0  0  0  0  0  0  0  0
    5.0558    0.5681    0.0000 C   0  0  0  0  0  0  0  0  0  0  0  0
    7.7010    0.6192    0.0000 C   0  0  0  0  0  0  0  0  0  0  0  0
    3.8968    1.8553    0.0000 C   0  0  0  0  0  0  0  0  0  0  0  0
    7.1658   -1.0280    0.0000 C   0  0  0  0  0  0  0  0  0  0  0  0
    3.5878    2.8064    0.0000 C   0  0  0  0  0  0  0  0  0  0  0  0
    7.3737   -2.0062    0.0000 C   0  0  0  0  0  0  0  0  0  0  0  0
    2.5878    2.8064    0.0000 C   0  0  0  0  0  0  0  0  0  0  0  0
    8.2872   -2.4129    0.0000 C   0  0  0  0  0  0  0  0  0  0  0  0
    2.0000    3.6154    0.0000 C   0  0  0  0  0  0  0  0  0  0  0  0
    8.1827   -3.4075    0.0000 C   0  0  0  0  0  0  0  0  0  0  0  0
    7.2046   -3.6154    0.0000 C   0  0  0  0  0  0  0  0  0  0  0  0
    5.5461   -0.1557    0.0000 H   0  0  0  0  0  0  0  0  0  0  0  0
    7.0410    1.4757    0.0000 H   0  0  0  0  0  0  0  0  0  0  0  0
    6.2614    1.3100    0.0000 H   0  0  0  0  0  0  0  0  0  0  0  0
    7.5094    0.0296    0.0000 H   0  0  0  0  0  0  0  0  0  0  0  0
    8.2907    0.4276    0.0000 H   0  0  0  0  0  0  0  0  0  0  0  0
    7.8926    1.2089    0.0000 H   0  0  0  0  0  0  0  0  0  0  0  0
    5.3086    1.9611    0.0000 H   0  0  0  0  0  0  0  0  0  0  0  0
    3.9522    3.3079    0.0000 H   0  0  0  0  0  0  0  0  0  0  0  0
    8.8242   -2.1029    0.0000 H   0  0  0  0  0  0  0  0  0  0  0  0
    2.5016    3.9798    0.0000 H   0  0  0  0  0  0  0  0  0  0  0  0
    1.6356    4.1170    0.0000 H   0  0  0  0  0  0  0  0  0  0  0  0
    1.4984    3.2509    0.0000 H   0  0  0  0  0  0  0  0  0  0  0  0
    8.6435   -3.8223    0.0000 H   0  0  0  0  0  0  0  0  0  0  0  0
    6.9524   -4.1818    0.0000 H   0  0  0  0  0  0  0  0  0  0  0  0
  1 15  1  0  0  0  0
  1 20  1  0  0  0  0
  2  8  1  0  0  0  0
  2 13  1  0  0  0  0
  3 10  2  0  0  0  0
  4  7  1  0  0  0  0
  4 16  1  0  0  0  0
  5 13  2  0  0  0  0
  6 10  1  0  0  0  0
  6 12  1  0  0  0  0
  6 27  1  0  0  0  0
  7 12  2  0  0  0  0
  8  9  1  0  0  0  0
  8 10  1  0  0  0  0
  8 21  1  0  0  0  0
  9 11  1  0  0  0  0
  9 22  1  0  0  0  0
  9 23  1  0  0  0  0
 11 24  1  0  0  0  0
 11 25  1  0  0  0  0
 11 26  1  0  0  0  0
 12 14  1  0  0  0  0
 13 15  1  0  0  0  0
 14 16  2  0  0  0  0
 14 28  1  0  0  0  0
 15 17  2  0  0  0  0
 16 18  1  0  0  0  0
 17 19  1  0  0  0  0
 17 29  1  0  0  0  0
 18 30  1  0  0  0  0
 18 31  1  0  0  0  0
 18 32  1  0  0  0  0
 19 20  2  0  0  0  0
 19 33  1  0  0  0  0
 20 34  1  0  0  0  0
M  END
> <PUBCHEM_COMPOUND_CID>
17395372

> <PUBCHEM_COMPOUND_CANONICALIZED>
1

> <PUBCHEM_CACTVS_COMPLEXITY>
366

> <PUBCHEM_CACTVS_HBOND_ACCEPTOR>
6

> <PUBCHEM_CACTVS_HBOND_DONOR>
1

> <PUBCHEM_CACTVS_ROTATABLE_BOND>
6

> <PUBCHEM_CACTVS_SUBSKEYS>
AAADccBzOABAAAAAAAAAAAAAAAAAAWJAAAAAAAAAAAAAAAAB4AAAHgQUAAAACBSl0gKzvZLQBAitAKPyegKDAIAlKhBpmDl2bNqKJjrgvZyHEYhm1Qv46caIAAAAAAAAAAAAAAAAAAAAAAAAAAAAAAAAAA==

> <PUBCHEM_IUPAC_OPENEYE_NAME>
1-[(5-methylisoxazol-3-yl)carbamoyl]propyl thiophene-2-carboxylate

> <PUBCHEM_IUPAC_CAS_NAME>
2-thiophenecarboxylic acid [1-[(5-methyl-3-isoxazolyl)amino]-1-oxobutan-2-yl] ester

> <PUBCHEM_IUPAC_NAME>
[1-[(5-methyl-1,2-oxazol-3-yl)amino]-1-oxobutan-2-yl] thiophene-2-carboxylate

> <PUBCHEM_IUPAC_SYSTEMATIC_NAME>
[1-[(5-methyl-1,2-oxazol-3-yl)amino]-1-oxidanylidene-butan-2-yl] thiophene-2-carboxylate

> <PUBCHEM_IUPAC_TRADITIONAL_NAME>
thiophene-2-carboxylic acid 1-[(5-methylisoxazol-3-yl)carbamoyl]propyl ester

> <PUBCHEM_IUPAC_INCHI>
InChI=1S/C13H14N2O4S/c1-3-9(18-13(17)10-5-4-6-20-10)12(16)14-11-7-8(2)19-15-11/h4-7,9H,3H2,1-2H3,(H,14,15,16)

> <PUBCHEM_IUPAC_INCHIKEY>
BLEKXMSLUHDKCH-UHFFFAOYSA-N

> <PUBCHEM_XLOGP3_AA>
2.8

> <PUBCHEM_EXACT_MASS>
294.067428

> <PUBCHEM_MOLECULAR_FORMULA>
C13H14N2O4S

> <PUBCHEM_MOLECULAR_WEIGHT>
294.32626

> <PUBCHEM_OPENEYE_CAN_SMILES>
CCC(C(=O)NC1=NOC(=C1)C)OC(=O)C2=CC=CS2

> <PUBCHEM_OPENEYE_ISO_SMILES>
CCC(C(=O)NC1=NOC(=C1)C)OC(=O)C2=CC=CS2

> <PUBCHEM_CACTVS_TPSA>
110

> <PUBCHEM_MONOISOTOPIC_WEIGHT>
294.067428

> <PUBCHEM_TOTAL_CHARGE>
0

> <PUBCHEM_HEAVY_ATOM_COUNT>
20

> <PUBCHEM_ATOM_DEF_STEREO_COUNT>
0

> <PUBCHEM_ATOM_UDEF_STEREO_COUNT>
1

> <PUBCHEM_BOND_DEF_STEREO_COUNT>
0

> <PUBCHEM_BOND_UDEF_STEREO_COUNT>
0

> <PUBCHEM_ISOTOPIC_ATOM_COUNT>
0

> <PUBCHEM_COMPONENT_COUNT>
1

> <PUBCHEM_CACTVS_TAUTO_COUNT>
10

> <PUBCHEM_COORDINATE_TYPE>
1
5
255

> <PUBCHEM_BONDANNOTATIONS>
1  15  8
1  20  8
12  14  8
14  16  8
15  17  8
17  19  8
19  20  8
4  16  8
4  7  8
7  12  8
8  9  3

$$$$

