12559
  -OEChem-06261207052D

174175  0     1  0  0  0  0  0999 V2000
    7.2896    4.0010    0.0000 O   0  0  0  0  0  0  0  0  0  0  0  0
    7.2896    5.7331    0.0000 O   0  0  0  0  0  0  0  0  0  0  0  0
    9.0485    2.1691    0.0000 O   0  0  0  0  0  0  0  0  0  0  0  0
    7.2896    2.2690    0.0000 O   0  0  0  0  0  0  0  0  0  0  0  0
    5.7896    6.5991    0.0000 O   0  0  0  0  0  0  0  0  0  0  0  0
   10.2896    7.4651    0.0000 O   0  0  0  0  0  0  0  0  0  0  0  0
    6.7896    9.3312    0.0000 O   0  0  0  0  0  0  0  0  0  0  0  0
    5.2896    4.0010    0.0000 O   0  0  0  0  0  0  0  0  0  0  0  0
    5.2896    9.1972    0.0000 O   0  0  0  0  0  0  0  0  0  0  0  0
   12.7556    6.8579    0.0000 O   0  0  0  0  0  0  0  0  0  0  0  0
   10.5237    6.3759    0.0000 O   0  0  0  0  0  0  0  0  0  0  0  0
   11.7896    3.1350    0.0000 O   0  0  0  0  0  0  0  0  0  0  0  0
   10.2896    5.7331    0.0000 O   0  0  0  0  0  0  0  0  0  0  0  0
    0.5369   13.8681    0.0000 O   0  0  0  0  0  0  0  0  0  0  0  0
    1.4030   12.3681    0.0000 O   0  0  0  0  0  0  0  0  0  0  0  0
    4.2896    2.2690    0.0000 N   0  0  0  0  0  0  0  0  0  0  0  0
    8.2896    4.0010    0.0000 C   0  0  2  0  0  0  0  0  0  0  0  0
    8.7896    4.8671    0.0000 C   0  0  2  0  0  0  0  0  0  0  0  0
    8.7896    3.1350    0.0000 C   0  0  1  0  0  0  0  0  0  0  0  0
    8.2896    5.7331    0.0000 C   0  0  1  0  0  0  0  0  0  0  0  0
    9.7896    3.1350    0.0000 C   0  0  0  0  0  0  0  0  0  0  0  0
    8.7896    6.5991    0.0000 C   0  0  2  0  0  0  0  0  0  0  0  0
   10.2896    4.0010    0.0000 C   0  0  2  0  0  0  0  0  0  0  0  0
    6.7896    3.1350    0.0000 C   0  0  2  0  0  0  0  0  0  0  0  0
    6.7896    6.5991    0.0000 C   0  0  2  0  0  0  0  0  0  0  0  0
    9.7896    4.8671    0.0000 C   0  0  0  0  0  0  0  0  0  0  0  0
    6.7896    8.3312    0.0000 C   0  0  2  0  0  0  0  0  0  0  0  0
    5.7896    3.1350    0.0000 C   0  0  1  0  0  0  0  0  0  0  0  0
    5.2896    2.2690    0.0000 C   0  0  2  0  0  0  0  0  0  0  0  0
    8.0825    2.4279    0.0000 C   0  0  0  0  0  0  0  0  0  0  0  0
    7.2896    7.4651    0.0000 C   0  0  0  0  0  0  0  0  0  0  0  0
    5.7896    8.3312    0.0000 C   0  0  2  0  0  0  0  0  0  0  0  0
   11.7896    4.8671    0.0000 C   0  0  2  0  0  0  0  0  0  0  0  0
    5.7896    1.4030    0.0000 C   0  0  0  0  0  0  0  0  0  0  0  0
   11.7896    6.5991    0.0000 C   0  0  1  0  0  0  0  0  0  0  0  0
   11.2896    5.7331    0.0000 C   0  0  2  0  0  0  0  0  0  0  0  0
    5.2896    7.4651    0.0000 C   0  0  2  0  0  0  0  0  0  0  0  0
   11.2896    4.0010    0.0000 C   0  0  0  0  0  0  0  0  0  0  0  0
    6.7896    1.4030    0.0000 C   0  0  1  0  0  0  0  0  0  0  0  0
   11.2896    7.4651    0.0000 C   0  0  1  0  0  0  0  0  0  0  0  0
    9.7896    6.5991    0.0000 C   0  0  0  0  0  0  0  0  0  0  0  0
    8.2896    7.4651    0.0000 C   0  0  0  0  0  0  0  0  0  0  0  0
    9.2896    4.0010    0.0000 C   0  0  0  0  0  0  0  0  0  0  0  0
    7.6557    8.8312    0.0000 C   0  0  0  0  0  0  0  0  0  0  0  0
   12.7896    4.8671    0.0000 C   0  0  0  0  0  0  0  0  0  0  0  0
   12.6088    6.0255    0.0000 C   0  0  0  0  0  0  0  0  0  0  0  0
   11.7896    8.3312    0.0000 C   0  0  0  0  0  0  0  0  0  0  0  0
    4.2896    7.4651    0.0000 C   0  0  0  0  0  0  0  0  0  0  0  0
    7.2896    0.5369    0.0000 C   0  0  0  0  0  0  0  0  0  0  0  0
    3.7896    1.4030    0.0000 C   0  0  0  0  0  0  0  0  0  0  0  0
    3.7896    3.1350    0.0000 C   0  0  0  0  0  0  0  0  0  0  0  0
   11.2896    9.1972    0.0000 C   0  0  0  0  0  0  0  0  0  0  0  0
    7.6557    9.8312    0.0000 C   0  0  0  0  0  0  0  0  0  0  0  0
    9.1972   13.8681    0.0000 C   0  0  0  0  0  0  0  0  0  0  0  0
    8.3312   13.3681    0.0000 C   0  0  0  0  0  0  0  0  0  0  0  0
   10.0632   13.3681    0.0000 C   0  0  0  0  0  0  0  0  0  0  0  0
    7.4651   13.8681    0.0000 C   0  0  0  0  0  0  0  0  0  0  0  0
   10.9292   13.8681    0.0000 C   0  0  0  0  0  0  0  0  0  0  0  0
    6.5991   13.3681    0.0000 C   0  0  0  0  0  0  0  0  0  0  0  0
   11.7953   13.3681    0.0000 C   0  0  0  0  0  0  0  0  0  0  0  0
    5.7331   13.8681    0.0000 C   0  0  0  0  0  0  0  0  0  0  0  0
   12.6613   13.8681    0.0000 C   0  0  0  0  0  0  0  0  0  0  0  0
    4.8671   13.3681    0.0000 C   0  0  0  0  0  0  0  0  0  0  0  0
   13.5273   13.3681    0.0000 C   0  0  0  0  0  0  0  0  0  0  0  0
    4.0010   13.8681    0.0000 C   0  0  0  0  0  0  0  0  0  0  0  0
   14.3933   13.8681    0.0000 C   0  0  0  0  0  0  0  0  0  0  0  0
    3.1350   13.3681    0.0000 C   0  0  0  0  0  0  0  0  0  0  0  0
   15.2594   13.3681    0.0000 C   0  0  0  0  0  0  0  0  0  0  0  0
    2.2690   13.8681    0.0000 C   0  0  0  0  0  0  0  0  0  0  0  0
   16.1254   13.8681    0.0000 C   0  0  0  0  0  0  0  0  0  0  0  0
    1.4030   13.3681    0.0000 C   0  0  0  0  0  0  0  0  0  0  0  0
    7.9796    4.5380    0.0000 H   0  0  0  0  0  0  0  0  0  0  0  0
    9.0996    5.4040    0.0000 H   0  0  0  0  0  0  0  0  0  0  0  0
    7.9796    6.2700    0.0000 H   0  0  0  0  0  0  0  0  0  0  0  0
    9.6820    2.5244    0.0000 H   0  0  0  0  0  0  0  0  0  0  0  0
   10.3722    2.9230    0.0000 H   0  0  0  0  0  0  0  0  0  0  0  0
    9.0996    7.1360    0.0000 H   0  0  0  0  0  0  0  0  0  0  0  0
   10.2896    4.6210    0.0000 H   0  0  0  0  0  0  0  0  0  0  0  0
    6.4796    3.6720    0.0000 H   0  0  0  0  0  0  0  0  0  0  0  0
    6.4796    6.0622    0.0000 H   0  0  0  0  0  0  0  0  0  0  0  0
    9.7896    4.2471    0.0000 H   0  0  0  0  0  0  0  0  0  0  0  0
   10.4096    4.8671    0.0000 H   0  0  0  0  0  0  0  0  0  0  0  0
    9.7896    5.4871    0.0000 H   0  0  0  0  0  0  0  0  0  0  0  0
    5.1696    3.1350    0.0000 H   0  0  0  0  0  0  0  0  0  0  0  0
    4.9796    1.7320    0.0000 H   0  0  0  0  0  0  0  0  0  0  0  0
    7.6441    2.8663    0.0000 H   0  0  0  0  0  0  0  0  0  0  0  0
    7.6441    1.9895    0.0000 H   0  0  0  0  0  0  0  0  0  0  0  0
    8.5209    1.9895    0.0000 H   0  0  0  0  0  0  0  0  0  0  0  0
    7.7646    7.0666    0.0000 H   0  0  0  0  0  0  0  0  0  0  0  0
    7.7646    7.8637    0.0000 H   0  0  0  0  0  0  0  0  0  0  0  0
    5.1696    8.3312    0.0000 H   0  0  0  0  0  0  0  0  0  0  0  0
   12.0996    5.4040    0.0000 H   0  0  0  0  0  0  0  0  0  0  0  0
    5.2070    1.1909    0.0000 H   0  0  0  0  0  0  0  0  0  0  0  0
    5.8973    0.7924    0.0000 H   0  0  0  0  0  0  0  0  0  0  0  0
   10.8147    5.3346    0.0000 H   0  0  0  0  0  0  0  0  0  0  0  0
    4.9796    6.9282    0.0000 H   0  0  0  0  0  0  0  0  0  0  0  0
    7.4096    1.4030    0.0000 H   0  0  0  0  0  0  0  0  0  0  0  0
   10.9796    8.0021    0.0000 H   0  0  0  0  0  0  0  0  0  0  0  0
    9.6473    2.0086    0.0000 H   0  0  0  0  0  0  0  0  0  0  0  0
    8.8266    7.7751    0.0000 H   0  0  0  0  0  0  0  0  0  0  0  0
    7.9796    8.0021    0.0000 H   0  0  0  0  0  0  0  0  0  0  0  0
    7.7527    7.1551    0.0000 H   0  0  0  0  0  0  0  0  0  0  0  0
    9.2896    4.6210    0.0000 H   0  0  0  0  0  0  0  0  0  0  0  0
    8.6696    4.0010    0.0000 H   0  0  0  0  0  0  0  0  0  0  0  0
    9.2896    3.3810    0.0000 H   0  0  0  0  0  0  0  0  0  0  0  0
    7.9657    8.2942    0.0000 H   0  0  0  0  0  0  0  0  0  0  0  0
    8.1926    9.1412    0.0000 H   0  0  0  0  0  0  0  0  0  0  0  0
    7.3457    9.3681    0.0000 H   0  0  0  0  0  0  0  0  0  0  0  0
   12.7896    4.2471    0.0000 H   0  0  0  0  0  0  0  0  0  0  0  0
   13.4096    4.8671    0.0000 H   0  0  0  0  0  0  0  0  0  0  0  0
   12.7896    5.4871    0.0000 H   0  0  0  0  0  0  0  0  0  0  0  0
   12.2532    5.5177    0.0000 H   0  0  0  0  0  0  0  0  0  0  0  0
   13.1167    5.6699    0.0000 H   0  0  0  0  0  0  0  0  0  0  0  0
   12.9644    6.5334    0.0000 H   0  0  0  0  0  0  0  0  0  0  0  0
   12.2646    7.9326    0.0000 H   0  0  0  0  0  0  0  0  0  0  0  0
   12.2646    8.7297    0.0000 H   0  0  0  0  0  0  0  0  0  0  0  0
    4.2896    8.0851    0.0000 H   0  0  0  0  0  0  0  0  0  0  0  0
    3.6696    7.4651    0.0000 H   0  0  0  0  0  0  0  0  0  0  0  0
    4.2896    6.8451    0.0000 H   0  0  0  0  0  0  0  0  0  0  0  0
    6.7527    0.2269    0.0000 H   0  0  0  0  0  0  0  0  0  0  0  0
    7.5996    0.0000    0.0000 H   0  0  0  0  0  0  0  0  0  0  0  0
    7.8266    0.8469    0.0000 H   0  0  0  0  0  0  0  0  0  0  0  0
    4.6696    4.0010    0.0000 H   0  0  0  0  0  0  0  0  0  0  0  0
    4.6696    9.1972    0.0000 H   0  0  0  0  0  0  0  0  0  0  0  0
   12.9160    7.4568    0.0000 H   0  0  0  0  0  0  0  0  0  0  0  0
    3.2527    1.7130    0.0000 H   0  0  0  0  0  0  0  0  0  0  0  0
    3.4796    0.8660    0.0000 H   0  0  0  0  0  0  0  0  0  0  0  0
    4.3266    1.0930    0.0000 H   0  0  0  0  0  0  0  0  0  0  0  0
    4.3266    3.4450    0.0000 H   0  0  0  0  0  0  0  0  0  0  0  0
    3.4796    3.6720    0.0000 H   0  0  0  0  0  0  0  0  0  0  0  0
    3.2527    2.8250    0.0000 H   0  0  0  0  0  0  0  0  0  0  0  0
   10.9221    6.8509    0.0000 H   0  0  0  0  0  0  0  0  0  0  0  0
   11.8266    9.5072    0.0000 H   0  0  0  0  0  0  0  0  0  0  0  0
   10.9796    9.7341    0.0000 H   0  0  0  0  0  0  0  0  0  0  0  0
   10.7527    8.8872    0.0000 H   0  0  0  0  0  0  0  0  0  0  0  0
    7.9657    9.2942    0.0000 H   0  0  0  0  0  0  0  0  0  0  0  0
    8.1926   10.1412    0.0000 H   0  0  0  0  0  0  0  0  0  0  0  0
    7.3457   10.3681    0.0000 H   0  0  0  0  0  0  0  0  0  0  0  0
    9.5957   14.3430    0.0000 H   0  0  0  0  0  0  0  0  0  0  0  0
    8.7987   14.3430    0.0000 H   0  0  0  0  0  0  0  0  0  0  0  0
    7.9326   12.8932    0.0000 H   0  0  0  0  0  0  0  0  0  0  0  0
    8.7297   12.8932    0.0000 H   0  0  0  0  0  0  0  0  0  0  0  0
    9.6647   12.8932    0.0000 H   0  0  0  0  0  0  0  0  0  0  0  0
   10.4617   12.8932    0.0000 H   0  0  0  0  0  0  0  0  0  0  0  0
    7.8637   14.3430    0.0000 H   0  0  0  0  0  0  0  0  0  0  0  0
    7.0666   14.3430    0.0000 H   0  0  0  0  0  0  0  0  0  0  0  0
   11.3278   14.3430    0.0000 H   0  0  0  0  0  0  0  0  0  0  0  0
   10.5307   14.3430    0.0000 H   0  0  0  0  0  0  0  0  0  0  0  0
    6.2006   12.8932    0.0000 H   0  0  0  0  0  0  0  0  0  0  0  0
    6.9976   12.8932    0.0000 H   0  0  0  0  0  0  0  0  0  0  0  0
   11.3967   12.8932    0.0000 H   0  0  0  0  0  0  0  0  0  0  0  0
   12.1938   12.8932    0.0000 H   0  0  0  0  0  0  0  0  0  0  0  0
    6.1316   14.3430    0.0000 H   0  0  0  0  0  0  0  0  0  0  0  0
    5.3346   14.3430    0.0000 H   0  0  0  0  0  0  0  0  0  0  0  0
   13.0598   14.3430    0.0000 H   0  0  0  0  0  0  0  0  0  0  0  0
   12.2628   14.3430    0.0000 H   0  0  0  0  0  0  0  0  0  0  0  0
    4.4685   12.8932    0.0000 H   0  0  0  0  0  0  0  0  0  0  0  0
    5.2656   12.8932    0.0000 H   0  0  0  0  0  0  0  0  0  0  0  0
   13.1288   12.8932    0.0000 H   0  0  0  0  0  0  0  0  0  0  0  0
   13.9258   12.8932    0.0000 H   0  0  0  0  0  0  0  0  0  0  0  0
    4.3996   14.3430    0.0000 H   0  0  0  0  0  0  0  0  0  0  0  0
    3.6025   14.3430    0.0000 H   0  0  0  0  0  0  0  0  0  0  0  0
   14.7919   14.3430    0.0000 H   0  0  0  0  0  0  0  0  0  0  0  0
   13.9948   14.3430    0.0000 H   0  0  0  0  0  0  0  0  0  0  0  0
    2.7365   12.8932    0.0000 H   0  0  0  0  0  0  0  0  0  0  0  0
    3.5335   12.8932    0.0000 H   0  0  0  0  0  0  0  0  0  0  0  0
   14.8608   12.8932    0.0000 H   0  0  0  0  0  0  0  0  0  0  0  0
   15.6579   12.8932    0.0000 H   0  0  0  0  0  0  0  0  0  0  0  0
    2.6675   14.3430    0.0000 H   0  0  0  0  0  0  0  0  0  0  0  0
    1.8705   14.3430    0.0000 H   0  0  0  0  0  0  0  0  0  0  0  0
   16.4354   13.3312    0.0000 H   0  0  0  0  0  0  0  0  0  0  0  0
   16.6623   14.1781    0.0000 H   0  0  0  0  0  0  0  0  0  0  0  0
   15.8154   14.4050    0.0000 H   0  0  0  0  0  0  0  0  0  0  0  0
    0.0000   13.5581    0.0000 H   0  0  0  0  0  0  0  0  0  0  0  0
 17  1  1  6  0  0  0
 24  1  1  6  0  0  0
 20  2  1  6  0  0  0
 25  2  1  6  0  0  0
 19  3  1  1  0  0  0
  3 99  1  0  0  0  0
  4 24  1  0  0  0  0
  4 39  1  0  0  0  0
  5 25  1  0  0  0  0
  5 37  1  0  0  0  0
  6 40  1  0  0  0  0
  6 41  1  0  0  0  0
 27  7  1  6  0  0  0
  7 53  1  0  0  0  0
 28  8  1  1  0  0  0
  8123  1  0  0  0  0
 32  9  1  6  0  0  0
  9124  1  0  0  0  0
 35 10  1  1  0  0  0
 10125  1  0  0  0  0
 36 11  1  1  0  0  0
 11132  1  0  0  0  0
 12 38  2  0  0  0  0
 13 41  2  0  0  0  0
 14 71  1  0  0  0  0
 14174  1  0  0  0  0
 15 71  2  0  0  0  0
 29 16  1  6  0  0  0
 16 50  1  0  0  0  0
 16 51  1  0  0  0  0
 17 18  1  0  0  0  0
 17 19  1  0  0  0  0
 17 72  1  0  0  0  0
 18 20  1  0  0  0  0
 18 26  1  6  0  0  0
 18 73  1  0  0  0  0
 19 21  1  0  0  0  0
 19 30  1  0  0  0  0
 20 22  1  0  0  0  0
 20 74  1  0  0  0  0
 21 23  1  0  0  0  0
 21 75  1  0  0  0  0
 21 76  1  0  0  0  0
 22 41  1  0  0  0  0
 22 42  1  1  0  0  0
 22 77  1  0  0  0  0
 23 38  1  0  0  0  0
 23 43  1  1  0  0  0
 23 78  1  0  0  0  0
 24 28  1  0  0  0  0
 24 79  1  0  0  0  0
 25 31  1  0  0  0  0
 25 80  1  0  0  0  0
 26 81  1  0  0  0  0
 26 82  1  0  0  0  0
 26 83  1  0  0  0  0
 27 31  1  0  0  0  0
 27 32  1  0  0  0  0
 27 44  1  0  0  0  0
 28 29  1  0  0  0  0
 28 84  1  0  0  0  0
 29 34  1  0  0  0  0
 29 85  1  0  0  0  0
 30 86  1  0  0  0  0
 30 87  1  0  0  0  0
 30 88  1  0  0  0  0
 31 89  1  0  0  0  0
 31 90  1  0  0  0  0
 32 37  1  0  0  0  0
 32 91  1  0  0  0  0
 33 36  1  0  0  0  0
 33 38  1  0  0  0  0
 33 45  1  1  0  0  0
 33 92  1  0  0  0  0
 34 39  1  0  0  0  0
 34 93  1  0  0  0  0
 34 94  1  0  0  0  0
 35 36  1  0  0  0  0
 35 40  1  0  0  0  0
 35 46  1  0  0  0  0
 36 95  1  0  0  0  0
 37 48  1  1  0  0  0
 37 96  1  0  0  0  0
 39 49  1  6  0  0  0
 39 97  1  0  0  0  0
 40 47  1  6  0  0  0
 40 98  1  0  0  0  0
 42100  1  0  0  0  0
 42101  1  0  0  0  0
 42102  1  0  0  0  0
 43103  1  0  0  0  0
 43104  1  0  0  0  0
 43105  1  0  0  0  0
 44106  1  0  0  0  0
 44107  1  0  0  0  0
 44108  1  0  0  0  0
 45109  1  0  0  0  0
 45110  1  0  0  0  0
 45111  1  0  0  0  0
 46112  1  0  0  0  0
 46113  1  0  0  0  0
 46114  1  0  0  0  0
 47 52  1  0  0  0  0
 47115  1  0  0  0  0
 47116  1  0  0  0  0
 48117  1  0  0  0  0
 48118  1  0  0  0  0
 48119  1  0  0  0  0
 49120  1  0  0  0  0
 49121  1  0  0  0  0
 49122  1  0  0  0  0
 50126  1  0  0  0  0
 50127  1  0  0  0  0
 50128  1  0  0  0  0
 51129  1  0  0  0  0
 51130  1  0  0  0  0
 51131  1  0  0  0  0
 52133  1  0  0  0  0
 52134  1  0  0  0  0
 52135  1  0  0  0  0
 53136  1  0  0  0  0
 53137  1  0  0  0  0
 53138  1  0  0  0  0
 54 55  1  0  0  0  0
 54 56  1  0  0  0  0
 54139  1  0  0  0  0
 54140  1  0  0  0  0
 55 57  1  0  0  0  0
 55141  1  0  0  0  0
 55142  1  0  0  0  0
 56 58  1  0  0  0  0
 56143  1  0  0  0  0
 56144  1  0  0  0  0
 57 59  1  0  0  0  0
 57145  1  0  0  0  0
 57146  1  0  0  0  0
 58 60  1  0  0  0  0
 58147  1  0  0  0  0
 58148  1  0  0  0  0
 59 61  1  0  0  0  0
 59149  1  0  0  0  0
 59150  1  0  0  0  0
 60 62  1  0  0  0  0
 60151  1  0  0  0  0
 60152  1  0  0  0  0
 61 63  1  0  0  0  0
 61153  1  0  0  0  0
 61154  1  0  0  0  0
 62 64  1  0  0  0  0
 62155  1  0  0  0  0
 62156  1  0  0  0  0
 63 65  1  0  0  0  0
 63157  1  0  0  0  0
 63158  1  0  0  0  0
 64 66  1  0  0  0  0
 64159  1  0  0  0  0
 64160  1  0  0  0  0
 65 67  1  0  0  0  0
 65161  1  0  0  0  0
 65162  1  0  0  0  0
 66 68  1  0  0  0  0
 66163  1  0  0  0  0
 66164  1  0  0  0  0
 67 69  1  0  0  0  0
 67165  1  0  0  0  0
 67166  1  0  0  0  0
 68 70  1  0  0  0  0
 68167  1  0  0  0  0
 68168  1  0  0  0  0
 69 71  1  0  0  0  0
 69169  1  0  0  0  0
 69170  1  0  0  0  0
 70171  1  0  0  0  0
 70172  1  0  0  0  0
 70173  1  0  0  0  0
M  END
> <PUBCHEM_COMPOUND_CID>
12559

> <PUBCHEM_COMPOUND_CANONICALIZED>
1

> <PUBCHEM_CACTVS_COMPLEXITY>
1380

> <PUBCHEM_CACTVS_HBOND_ACCEPTOR>
16

> <PUBCHEM_CACTVS_HBOND_DONOR>
6

> <PUBCHEM_CACTVS_ROTATABLE_BOND>
23

> <PUBCHEM_CACTVS_SUBSKEYS>
AAADcfB+PAAAAAAAAAAAAAAAAAAAAAAAAAAkSAAAAAAAAAAAAAAAHgAACAAADXzxgAcCCAMABgAIAICQCAAAAAAAAAAAAAEIAAATEBYAgAAmQAAHIAAXAAHK7PzOAAAAAAAAAAAAAAAAAAAAAAAAAAAAAA==

> <PUBCHEM_IUPAC_OPENEYE_NAME>
(3R,4S,5S,6R,7R,9R,11R,12R,13S,14R)-6-[(2S,3R,4S,6R)-4-(dimethylamino)-3-hydroxy-6-methyl-tetrahydropyran-2-yl]oxy-14-ethyl-7,12,13-trihydroxy-4-[(2R,4R,5S,6S)-5-hydroxy-4-methoxy-4,6-dimethyl-tetrahydropyran-2-yl]oxy-3,5,7,9,11,13-hexamethyl-oxacyclotetradecane-2,10-dione; stearic acid

> <PUBCHEM_IUPAC_CAS_NAME>
(3R,4S,5S,6R,7R,9R,11R,12R,13S,14R)-6-[[(2S,3R,4S,6R)-4-(dimethylamino)-3-hydroxy-6-methyl-2-oxanyl]oxy]-14-ethyl-7,12,13-trihydroxy-4-[[(2R,4R,5S,6S)-5-hydroxy-4-methoxy-4,6-dimethyl-2-oxanyl]oxy]-3,5,7,9,11,13-hexamethyl-oxacyclotetradecane-2,10-dione; octadecanoic acid

> <PUBCHEM_IUPAC_NAME>
(3R,4S,5S,6R,7R,9R,11R,12R,13S,14R)-6-[(2S,3R,4S,6R)-4-(dimethylamino)-3-hydroxy-6-methyloxan-2-yl]oxy-14-ethyl-7,12,13-trihydroxy-4-[(2R,4R,5S,6S)-5-hydroxy-4-methoxy-4,6-dimethyloxan-2-yl]oxy-3,5,7,9,11,13-hexamethyl-oxacyclotetradecane-2,10-dione; octadecanoic acid

> <PUBCHEM_IUPAC_SYSTEMATIC_NAME>
(3R,4S,5S,6R,7R,9R,11R,12R,13S,14R)-6-[(2S,3R,4S,6R)-4-(dimethylamino)-6-methyl-3-oxidanyl-oxan-2-yl]oxy-14-ethyl-4-[(2R,4R,5S,6S)-4-methoxy-4,6-dimethyl-5-oxidanyl-oxan-2-yl]oxy-3,5,7,9,11,13-hexamethyl-7,12,13-tris(oxidanyl)-1-oxacyclotetradecane-2,10-dione; octadecanoic acid

> <PUBCHEM_IUPAC_TRADITIONAL_NAME>
(3R,4S,5S,6R,7R,9R,11R,12R,13S,14R)-6-[(2S,3R,4S,6R)-4-(dimethylamino)-3-hydroxy-6-methyl-tetrahydropyran-2-yl]oxy-14-ethyl-7,12,13-trihydroxy-4-[(2R,4R,5S,6S)-5-hydroxy-4-methoxy-4,6-dimethyl-tetrahydropyran-2-yl]oxy-3,5,7,9,11,13-hexamethyl-oxacyclotetradecane-2,10-quinone; stearic acid

> <PUBCHEM_IUPAC_INCHI>
InChI=1S/C37H67NO13.C18H36O2/c1-14-25-37(10,45)30(41)20(4)27(39)18(2)16-35(8,44)32(51-34-28(40)24(38(11)12)15-19(3)47-34)21(5)29(22(6)33(43)49-25)50-26-17-36(9,46-13)31(42)23(7)48-26;1-2-3-4-5-6-7-8-9-10-11-12-13-14-15-16-17-18(19)20/h18-26,28-32,34,40-42,44-45H,14-17H2,1-13H3;2-17H2,1H3,(H,19,20)/t18-,19-,20+,21+,22-,23+,24+,25-,26+,28-,29+,30-,31+,32-,34+,35-,36-,37-;/m1./s1

> <PUBCHEM_IUPAC_INCHIKEY>
YAVZHCFFUATPRK-YZPBMOCRSA-N

> <PUBCHEM_EXACT_MASS>
1017.732772

> <PUBCHEM_MOLECULAR_FORMULA>
C55H103NO15

> <PUBCHEM_MOLECULAR_WEIGHT>
1018.40402

> <PUBCHEM_OPENEYE_CAN_SMILES>
CCCCCCCCCCCCCCCCCC(=O)O.CCC1C(C(C(C(=O)C(CC(C(C(C(C(C(=O)O1)C)OC2CC(C(C(O2)C)O)(C)OC)C)OC3C(C(CC(O3)C)N(C)C)O)(C)O)C)C)O)(C)O

> <PUBCHEM_OPENEYE_ISO_SMILES>
CCCCCCCCCCCCCCCCCC(=O)O.CC[C@@H]1[C@@]([C@@H]([C@H](C(=O)[C@@H](C[C@@]([C@@H]([C@H]([C@@H]([C@H](C(=O)O1)C)O[C@H]2C[C@@]([C@H]([C@@H](O2)C)O)(C)OC)C)O[C@H]3[C@@H]([C@H](C[C@H](O3)C)N(C)C)O)(C)O)C)C)O)(C)O

> <PUBCHEM_CACTVS_TPSA>
231

> <PUBCHEM_MONOISOTOPIC_WEIGHT>
1017.732772

> <PUBCHEM_TOTAL_CHARGE>
0

> <PUBCHEM_HEAVY_ATOM_COUNT>
71

> <PUBCHEM_ATOM_DEF_STEREO_COUNT>
18

> <PUBCHEM_ATOM_UDEF_STEREO_COUNT>
0

> <PUBCHEM_BOND_DEF_STEREO_COUNT>
0

> <PUBCHEM_BOND_UDEF_STEREO_COUNT>
0

> <PUBCHEM_ISOTOPIC_ATOM_COUNT>
0

> <PUBCHEM_COMPONENT_COUNT>
2

> <PUBCHEM_CACTVS_TAUTO_COUNT>
6

> <PUBCHEM_COORDINATE_TYPE>
1
5
255

> <PUBCHEM_BONDANNOTATIONS>
17  1  6
24  1  6
35  10  5
36  11  5
29  16  6
18  26  6
20  2  6
25  2  6
22  42  5
23  43  5
19  3  5
33  45  5
37  48  5
39  49  6
40  47  6
27  7  6
28  8  5
32  9  6

$$$$

