854037
  -OEChem-06241222472D

 38 41  0     1  0  0  0  0  0999 V2000
    3.5962   -0.8901    0.0000 O   0  0  0  0  0  0  0  0  0  0  0  0
    5.8041    1.6742    0.0000 O   0  0  0  0  0  0  0  0  0  0  0  0
    4.5472    0.4189    0.0000 N   0  0  0  0  0  0  0  0  0  0  0  0
    4.5472   -0.5811    0.0000 C   0  0  1  0  0  0  0  0  0  0  0  0
    3.5962    0.7279    0.0000 C   0  0  2  0  0  0  0  0  0  0  0  0
    5.4935   -0.8858    0.0000 C   0  0  0  0  0  0  0  0  0  0  0  0
    6.0771   -0.0811    0.0000 C   0  0  0  0  0  0  0  0  0  0  0  0
    3.0084   -0.0811    0.0000 C   0  0  0  0  0  0  0  0  0  0  0  0
    5.4935    0.7236    0.0000 C   0  0  0  0  0  0  0  0  0  0  0  0
    4.5472   -1.5811    0.0000 C   0  0  0  0  0  0  0  0  0  0  0  0
    3.2872    1.6790    0.0000 C   0  0  0  0  0  0  0  0  0  0  0  0
    3.6812   -2.0811    0.0000 C   0  0  0  0  0  0  0  0  0  0  0  0
    5.4133   -2.0811    0.0000 C   0  0  0  0  0  0  0  0  0  0  0  0
    3.9563    2.4221    0.0000 C   0  0  0  0  0  0  0  0  0  0  0  0
    2.3090    1.8869    0.0000 C   0  0  0  0  0  0  0  0  0  0  0  0
    3.6812   -3.0811    0.0000 C   0  0  0  0  0  0  0  0  0  0  0  0
    5.4133   -3.0811    0.0000 C   0  0  0  0  0  0  0  0  0  0  0  0
    3.6473    3.3732    0.0000 C   0  0  0  0  0  0  0  0  0  0  0  0
    2.0000    2.8380    0.0000 C   0  0  0  0  0  0  0  0  0  0  0  0
    4.5472   -3.5811    0.0000 C   0  0  0  0  0  0  0  0  0  0  0  0
    2.6691    3.5811    0.0000 C   0  0  0  0  0  0  0  0  0  0  0  0
    2.9838    0.8249    0.0000 H   0  0  0  0  0  0  0  0  0  0  0  0
    5.2424   -1.4527    0.0000 H   0  0  0  0  0  0  0  0  0  0  0  0
    6.0308   -1.1950    0.0000 H   0  0  0  0  0  0  0  0  0  0  0  0
    6.5379   -0.4958    0.0000 H   0  0  0  0  0  0  0  0  0  0  0  0
    6.5379    0.3336    0.0000 H   0  0  0  0  0  0  0  0  0  0  0  0
    2.5476    0.3338    0.0000 H   0  0  0  0  0  0  0  0  0  0  0  0
    2.5476   -0.4960    0.0000 H   0  0  0  0  0  0  0  0  0  0  0  0
    3.1443   -1.7711    0.0000 H   0  0  0  0  0  0  0  0  0  0  0  0
    5.9502   -1.7711    0.0000 H   0  0  0  0  0  0  0  0  0  0  0  0
    4.5628    2.2932    0.0000 H   0  0  0  0  0  0  0  0  0  0  0  0
    1.8942    1.4261    0.0000 H   0  0  0  0  0  0  0  0  0  0  0  0
    3.1443   -3.3911    0.0000 H   0  0  0  0  0  0  0  0  0  0  0  0
    5.9502   -3.3911    0.0000 H   0  0  0  0  0  0  0  0  0  0  0  0
    4.0621    3.8339    0.0000 H   0  0  0  0  0  0  0  0  0  0  0  0
    1.3936    2.9668    0.0000 H   0  0  0  0  0  0  0  0  0  0  0  0
    4.5472   -4.2011    0.0000 H   0  0  0  0  0  0  0  0  0  0  0  0
    2.4775    4.1708    0.0000 H   0  0  0  0  0  0  0  0  0  0  0  0
  1  4  1  0  0  0  0
  1  8  1  0  0  0  0
  2  9  2  0  0  0  0
  3  4  1  0  0  0  0
  3  5  1  0  0  0  0
  3  9  1  0  0  0  0
  4  6  1  0  0  0  0
  4 10  1  6  0  0  0
  5  8  1  0  0  0  0
  5 11  1  6  0  0  0
  5 22  1  0  0  0  0
  6  7  1  0  0  0  0
  6 23  1  0  0  0  0
  6 24  1  0  0  0  0
  7  9  1  0  0  0  0
  7 25  1  0  0  0  0
  7 26  1  0  0  0  0
  8 27  1  0  0  0  0
  8 28  1  0  0  0  0
 10 12  2  0  0  0  0
 10 13  1  0  0  0  0
 11 14  2  0  0  0  0
 11 15  1  0  0  0  0
 12 16  1  0  0  0  0
 12 29  1  0  0  0  0
 13 17  2  0  0  0  0
 13 30  1  0  0  0  0
 14 18  1  0  0  0  0
 14 31  1  0  0  0  0
 15 19  2  0  0  0  0
 15 32  1  0  0  0  0
 16 20  2  0  0  0  0
 16 33  1  0  0  0  0
 17 20  1  0  0  0  0
 17 34  1  0  0  0  0
 18 21  2  0  0  0  0
 18 35  1  0  0  0  0
 19 21  1  0  0  0  0
 19 36  1  0  0  0  0
 20 37  1  0  0  0  0
 21 38  1  0  0  0  0
M  END
> <PUBCHEM_COMPOUND_CID>
854037

> <PUBCHEM_COMPOUND_CANONICALIZED>
1

> <PUBCHEM_CACTVS_COMPLEXITY>
398

> <PUBCHEM_CACTVS_HBOND_ACCEPTOR>
2

> <PUBCHEM_CACTVS_HBOND_DONOR>
0

> <PUBCHEM_CACTVS_ROTATABLE_BOND>
2

> <PUBCHEM_CACTVS_SUBSKEYS>
AAADceB6MAAAAAAAAAAAAAAAAAAAAWLAAAAwYAAAAAAWAAABQAAAHgAAAAAADCzhmAYwAIMABACIAiFSEACCAAAgAAAIiAEIDIgKJjKAsRmPMAhkxgGYqAe+yKCOAAAAAAAAAAAAAAAAAAAAAAAAAAAAAA==

> <PUBCHEM_IUPAC_OPENEYE_NAME>
(3S,7aS)-3,7a-diphenyl-2,3,6,7-tetrahydropyrrolo[2,1-b]oxazol-5-one

> <PUBCHEM_IUPAC_CAS_NAME>
(3S,7aS)-3,7a-diphenyl-2,3,6,7-tetrahydropyrrolo[2,1-b]oxazol-5-one

> <PUBCHEM_IUPAC_NAME>
(3S,7aS)-3,7a-diphenyl-2,3,6,7-tetrahydropyrrolo[2,1-b][1,3]oxazol-5-one

> <PUBCHEM_IUPAC_SYSTEMATIC_NAME>
(3S,7aS)-3,7a-diphenyl-2,3,6,7-tetrahydropyrrolo[2,1-b][1,3]oxazol-5-one

> <PUBCHEM_IUPAC_TRADITIONAL_NAME>
(3S,7aS)-3,7a-diphenyl-2,3,6,7-tetrahydropyrrolo[2,1-b]oxazol-5-one

> <PUBCHEM_IUPAC_INCHI>
InChI=1S/C18H17NO2/c20-17-11-12-18(15-9-5-2-6-10-15)19(17)16(13-21-18)14-7-3-1-4-8-14/h1-10,16H,11-13H2/t16-,18+/m1/s1

> <PUBCHEM_IUPAC_INCHIKEY>
DKQMLBIEOBOMDP-AEFFLSMTSA-N

> <PUBCHEM_XLOGP3_AA>
2.4

> <PUBCHEM_EXACT_MASS>
279.125929

> <PUBCHEM_MOLECULAR_FORMULA>
C18H17NO2

> <PUBCHEM_MOLECULAR_WEIGHT>
279.33308

> <PUBCHEM_OPENEYE_CAN_SMILES>
C1CC2(N(C1=O)C(CO2)C3=CC=CC=C3)C4=CC=CC=C4

> <PUBCHEM_OPENEYE_ISO_SMILES>
C1C[C@@]2(N(C1=O)[C@H](CO2)C3=CC=CC=C3)C4=CC=CC=C4

> <PUBCHEM_CACTVS_TPSA>
29.5

> <PUBCHEM_MONOISOTOPIC_WEIGHT>
279.125929

> <PUBCHEM_TOTAL_CHARGE>
0

> <PUBCHEM_HEAVY_ATOM_COUNT>
21

> <PUBCHEM_ATOM_DEF_STEREO_COUNT>
2

> <PUBCHEM_ATOM_UDEF_STEREO_COUNT>
0

> <PUBCHEM_BOND_DEF_STEREO_COUNT>
0

> <PUBCHEM_BOND_UDEF_STEREO_COUNT>
0

> <PUBCHEM_ISOTOPIC_ATOM_COUNT>
0

> <PUBCHEM_COMPONENT_COUNT>
1

> <PUBCHEM_CACTVS_TAUTO_COUNT>
2

> <PUBCHEM_COORDINATE_TYPE>
1
5
255

> <PUBCHEM_BONDANNOTATIONS>
10  12  8
10  13  8
11  14  8
11  15  8
12  16  8
13  17  8
14  18  8
15  19  8
16  20  8
17  20  8
18  21  8
19  21  8
4  10  6
5  11  6

$$$$

