47205258
  -OEChem-06241222582D

 38 39  0     1  0  0  0  0  0999 V2000
    7.2242    2.2586    0.0000 O   0  0  0  0  0  0  0  0  0  0  0  0
    2.8660   -0.5202    0.0000 O   0  0  0  0  0  0  0  0  0  0  0  0
    5.4641    1.9798    0.0000 N   0  0  0  0  0  0  0  0  0  0  0  0
    5.9641    3.5186    0.0000 N   0  0  0  0  0  0  0  0  0  0  0  0
    3.7320   -2.0202    0.0000 N   0  0  0  0  0  0  0  0  0  0  0  0
    4.6551    2.5676    0.0000 C   0  0  0  0  0  0  0  0  0  0  0  0
    4.9641    3.5186    0.0000 C   0  0  0  0  0  0  0  0  0  0  0  0
    2.8660   -2.5202    0.0000 C   0  0  3  0  0  0  0  0  0  0  0  0
    5.4641    0.9798    0.0000 C   0  0  0  0  0  0  0  0  0  0  0  0
    6.2731    2.5676    0.0000 C   0  0  0  0  0  0  0  0  0  0  0  0
    2.8660   -3.5202    0.0000 C   0  0  0  0  0  0  0  0  0  0  0  0
    4.5981    0.4798    0.0000 C   0  0  0  0  0  0  0  0  0  0  0  0
    4.5981   -0.5202    0.0000 C   0  0  0  0  0  0  0  0  0  0  0  0
    2.0000   -2.0202    0.0000 C   0  0  0  0  0  0  0  0  0  0  0  0
    6.3301    0.4798    0.0000 C   0  0  0  0  0  0  0  0  0  0  0  0
    3.7320   -1.0202    0.0000 C   0  0  0  0  0  0  0  0  0  0  0  0
    5.4641   -1.0202    0.0000 C   0  0  0  0  0  0  0  0  0  0  0  0
    2.0000   -4.0202    0.0000 C   0  0  0  0  0  0  0  0  0  0  0  0
    6.3301   -0.5202    0.0000 C   0  0  0  0  0  0  0  0  0  0  0  0
    4.0887    2.8198    0.0000 H   0  0  0  0  0  0  0  0  0  0  0  0
    4.3451    2.0306    0.0000 H   0  0  0  0  0  0  0  0  0  0  0  0
    5.0289    4.1352    0.0000 H   0  0  0  0  0  0  0  0  0  0  0  0
    4.3576    3.6475    0.0000 H   0  0  0  0  0  0  0  0  0  0  0  0
    2.8660   -1.9002    0.0000 H   0  0  0  0  0  0  0  0  0  0  0  0
    3.0781   -4.1028    0.0000 H   0  0  0  0  0  0  0  0  0  0  0  0
    3.4766   -3.4126    0.0000 H   0  0  0  0  0  0  0  0  0  0  0  0
    6.3285    4.0202    0.0000 H   0  0  0  0  0  0  0  0  0  0  0  0
    4.0611    0.7898    0.0000 H   0  0  0  0  0  0  0  0  0  0  0  0
    4.2690   -2.3302    0.0000 H   0  0  0  0  0  0  0  0  0  0  0  0
    2.3100   -1.4833    0.0000 H   0  0  0  0  0  0  0  0  0  0  0  0
    1.4631   -1.7102    0.0000 H   0  0  0  0  0  0  0  0  0  0  0  0
    1.6900   -2.5572    0.0000 H   0  0  0  0  0  0  0  0  0  0  0  0
    6.8671    0.7898    0.0000 H   0  0  0  0  0  0  0  0  0  0  0  0
    5.4641   -1.6402    0.0000 H   0  0  0  0  0  0  0  0  0  0  0  0
    1.6900   -3.4833    0.0000 H   0  0  0  0  0  0  0  0  0  0  0  0
    1.4631   -4.3302    0.0000 H   0  0  0  0  0  0  0  0  0  0  0  0
    2.3100   -4.5572    0.0000 H   0  0  0  0  0  0  0  0  0  0  0  0
    6.8671   -0.8302    0.0000 H   0  0  0  0  0  0  0  0  0  0  0  0
  1 10  2  0  0  0  0
  2 16  2  0  0  0  0
  3  6  1  0  0  0  0
  3  9  1  0  0  0  0
  3 10  1  0  0  0  0
  4  7  1  0  0  0  0
  4 10  1  0  0  0  0
  4 27  1  0  0  0  0
  5  8  1  0  0  0  0
  5 16  1  0  0  0  0
  5 29  1  0  0  0  0
  6  7  1  0  0  0  0
  6 20  1  0  0  0  0
  6 21  1  0  0  0  0
  7 22  1  0  0  0  0
  7 23  1  0  0  0  0
  8 11  1  0  0  0  0
  8 14  1  0  0  0  0
  8 24  1  0  0  0  0
  9 12  1  0  0  0  0
  9 15  2  0  0  0  0
 11 18  1  0  0  0  0
 11 25  1  0  0  0  0
 11 26  1  0  0  0  0
 12 13  2  0  0  0  0
 12 28  1  0  0  0  0
 13 16  1  0  0  0  0
 13 17  1  0  0  0  0
 14 30  1  0  0  0  0
 14 31  1  0  0  0  0
 14 32  1  0  0  0  0
 15 19  1  0  0  0  0
 15 33  1  0  0  0  0
 17 19  2  0  0  0  0
 17 34  1  0  0  0  0
 18 35  1  0  0  0  0
 18 36  1  0  0  0  0
 18 37  1  0  0  0  0
 19 38  1  0  0  0  0
M  END
> <PUBCHEM_COMPOUND_CID>
47205258

> <PUBCHEM_COMPOUND_CANONICALIZED>
1

> <PUBCHEM_CACTVS_COMPLEXITY>
346

> <PUBCHEM_CACTVS_HBOND_ACCEPTOR>
2

> <PUBCHEM_CACTVS_HBOND_DONOR>
2

> <PUBCHEM_CACTVS_ROTATABLE_BOND>
4

> <PUBCHEM_CACTVS_SUBSKEYS>
AAADceBzMAAAAAAAAAAAAAAAAAAAAWAAAAAwAAAAAAAAAAABAAAAHgAQAAAADCjBmAQzwIPAAACIAiVSUACCAAAlAgAIiIEIZMiIYDLAlZGUIQholgLIyacciACOAAAAQAAAAAAAAACAAAAAAAAAAAAAAA==

> <PUBCHEM_IUPAC_OPENEYE_NAME>
3-(2-oxoimidazolidin-1-yl)-N-sec-butyl-benzamide

> <PUBCHEM_IUPAC_CAS_NAME>
N-butan-2-yl-3-(2-oxo-1-imidazolidinyl)benzamide

> <PUBCHEM_IUPAC_NAME>
N-butan-2-yl-3-(2-oxoimidazolidin-1-yl)benzamide

> <PUBCHEM_IUPAC_SYSTEMATIC_NAME>
N-butan-2-yl-3-(2-oxidanylideneimidazolidin-1-yl)benzamide

> <PUBCHEM_IUPAC_TRADITIONAL_NAME>
3-(2-ketoimidazolidin-1-yl)-N-sec-butyl-benzamide

> <PUBCHEM_IUPAC_INCHI>
InChI=1S/C14H19N3O2/c1-3-10(2)16-13(18)11-5-4-6-12(9-11)17-8-7-15-14(17)19/h4-6,9-10H,3,7-8H2,1-2H3,(H,15,19)(H,16,18)

> <PUBCHEM_IUPAC_INCHIKEY>
OAPJIFNNINGPGE-UHFFFAOYSA-N

> <PUBCHEM_XLOGP3_AA>
1.5

> <PUBCHEM_EXACT_MASS>
261.147727

> <PUBCHEM_MOLECULAR_FORMULA>
C14H19N3O2

> <PUBCHEM_MOLECULAR_WEIGHT>
261.31956

> <PUBCHEM_OPENEYE_CAN_SMILES>
CCC(C)NC(=O)C1=CC(=CC=C1)N2CCNC2=O

> <PUBCHEM_OPENEYE_ISO_SMILES>
CCC(C)NC(=O)C1=CC(=CC=C1)N2CCNC2=O

> <PUBCHEM_CACTVS_TPSA>
61.4

> <PUBCHEM_MONOISOTOPIC_WEIGHT>
261.147727

> <PUBCHEM_TOTAL_CHARGE>
0

> <PUBCHEM_HEAVY_ATOM_COUNT>
19

> <PUBCHEM_ATOM_DEF_STEREO_COUNT>
0

> <PUBCHEM_ATOM_UDEF_STEREO_COUNT>
1

> <PUBCHEM_BOND_DEF_STEREO_COUNT>
0

> <PUBCHEM_BOND_UDEF_STEREO_COUNT>
0

> <PUBCHEM_ISOTOPIC_ATOM_COUNT>
0

> <PUBCHEM_COMPONENT_COUNT>
1

> <PUBCHEM_CACTVS_TAUTO_COUNT>
4

> <PUBCHEM_COORDINATE_TYPE>
1
5
255

> <PUBCHEM_BONDANNOTATIONS>
12  13  8
13  17  8
15  19  8
17  19  8
8  14  3
9  12  8
9  15  8

$$$$

