4137
  -OEChem-06251223542D

183188  0     1  0  0  0  0  0999 V2000
    8.7784   -0.3782    0.0000 Co  0  0  0  0  0  0  0  0  0  0  0  0
   17.6220    3.6887    0.0000 P   0  0  3  0  0  0  0  0  0  0  0  0
   11.0287   -4.1944    0.0000 O   0  0  0  0  0  0  0  0  0  0  0  0
   13.5417   -0.0776    0.0000 O   0  0  0  0  0  0  0  0  0  0  0  0
    4.9681   -2.6441    0.0000 O   0  0  0  0  0  0  0  0  0  0  0  0
    6.3278   -5.4304    0.0000 O   0  0  0  0  0  0  0  0  0  0  0  0
   14.6997    0.1587    0.0000 O   0  0  0  0  0  0  0  0  0  0  0  0
    3.5422    1.8766    0.0000 O   0  0  0  0  0  0  0  0  0  0  0  0
   10.9855    4.8599    0.0000 O   0  0  0  0  0  0  0  0  0  0  0  0
   17.1413    2.8117    0.0000 O   0  0  0  0  0  0  0  0  0  0  0  0
   18.1026    4.5656    0.0000 O   0  0  0  0  0  0  0  0  0  0  0  0
   18.4989    3.2080    0.0000 O   0  0  0  0  0  0  0  0  0  0  0  0
   16.7450    4.1693    0.0000 O   0  0  0  0  0  0  0  0  0  0  0  0
   20.6519    4.1222    0.0000 O   0  0  0  0  0  0  0  0  0  0  0  0
   19.3419    6.3537    0.0000 O   0  0  0  0  0  0  0  0  0  0  0  0
   20.1057    2.1063    0.0000 O   0  0  0  0  0  0  0  0  0  0  0  0
    8.8152   -1.7155    0.0000 N   0  0  0  0  0  0  0  0  0  0  0  0
   10.2411   -0.4151    0.0000 N   0  0  0  0  0  0  0  0  0  0  0  0
    7.3875   -0.4151    0.0000 N   0  0  0  0  0  0  0  0  0  0  0  0
    8.7834    0.8853    0.0000 N   0  0  0  0  0  0  0  0  0  0  0  0
   10.1720   -5.6998    0.0000 N   0  0  0  0  0  0  0  0  0  0  0  0
   14.2181   -1.6721    0.0000 N   0  0  0  0  0  0  0  0  0  0  0  0
    3.4494   -1.8113    0.0000 N   0  0  0  0  0  0  0  0  0  0  0  0
   14.6612    1.8903    0.0000 N   0  0  0  0  0  0  0  0  0  0  0  0
    7.6126   -6.5921    0.0000 N   0  0  0  0  0  0  0  0  0  0  0  0
    2.4934    0.4981    0.0000 N   0  0  0  0  0  0  0  0  0  0  0  0
    9.5692    5.8569    0.0000 N   0  0  0  0  0  0  0  0  0  0  0  0
   21.4254    5.7276    0.0000 N   0  0  0  0  0  0  0  0  0  0  0  0
   22.3400    7.0520    0.0000 N   0  0  0  0  0  0  0  0  0  0  0  0
    9.5766   -2.2863    0.0000 C   0  0  3  0  0  0  0  0  0  0  0  0
   10.8119   -1.1130    0.0000 C   0  0  0  0  0  0  0  0  0  0  0  0
    9.2905   -3.2052    0.0000 C   0  0  3  0  0  0  0  0  0  0  0  0
    8.0536   -2.3181    0.0000 C   0  0  0  0  0  0  0  0  0  0  0  0
    8.3398   -3.2052    0.0000 C   0  0  3  0  0  0  0  0  0  0  0  0
   10.7801    0.3464    0.0000 C   0  0  0  0  0  0  0  0  0  0  0  0
   11.7005   -0.8586    0.0000 C   0  0  3  0  0  0  0  0  0  0  0  0
    9.4935   -1.0772    0.0000 C   0  5  0  0  0  0  0  0  0  0  0  0
   11.7005    0.0920    0.0000 C   0  0  3  0  0  0  0  0  0  0  0  0
    6.8486   -1.1448    0.0000 C   0  0  0  0  0  0  0  0  0  0  0  0
    9.5766    1.5196    0.0000 C   0  0  0  0  0  0  0  0  0  0  0  0
    6.8486    0.3146    0.0000 C   0  0  0  0  0  0  0  0  0  0  0  0
    8.0218    1.4878    0.0000 C   0  0  0  0  0  0  0  0  0  0  0  0
    5.9297   -0.8904    0.0000 C   0  0  3  0  0  0  0  0  0  0  0  0
    7.1347   -2.0319    0.0000 C   0  0  0  0  0  0  0  0  0  0  0  0
   10.4257   -2.8145    0.0000 C   0  0  0  0  0  0  0  0  0  0  0  0
    8.3080    2.4067    0.0000 C   0  0  0  0  0  0  0  0  0  0  0  0
   10.4955    1.2334    0.0000 C   0  0  0  0  0  0  0  0  0  0  0  0
    5.9297    0.0602    0.0000 C   0  0  3  0  0  0  0  0  0  0  0  0
    9.2587    2.4067    0.0000 C   0  0  3  0  0  0  0  0  0  0  0  0
    9.2967   -4.2051    0.0000 C   0  0  0  0  0  0  0  0  0  0  0  0
    7.1030    1.2334    0.0000 C   0  0  0  0  0  0  0  0  0  0  0  0
   10.2435   -3.5083    0.0000 C   0  0  0  0  0  0  0  0  0  0  0  0
    7.6691   -3.9469    0.0000 C   0  0  0  0  0  0  0  0  0  0  0  0
   12.4990   -1.4606    0.0000 C   0  0  0  0  0  0  0  0  0  0  0  0
   12.7002    0.1142    0.0000 C   0  0  0  0  0  0  0  0  0  0  0  0
   11.9883    1.0497    0.0000 C   0  0  0  0  0  0  0  0  0  0  0  0
    4.9300   -0.9125    0.0000 C   0  0  0  0  0  0  0  0  0  0  0  0
    5.1339    0.6657    0.0000 C   0  0  0  0  0  0  0  0  0  0  0  0
    9.8343    3.2244    0.0000 C   0  0  0  0  0  0  0  0  0  0  0  0
    5.6418   -1.8481    0.0000 C   0  0  0  0  0  0  0  0  0  0  0  0
    6.4640   -2.7736    0.0000 C   0  0  0  0  0  0  0  0  0  0  0  0
    8.3019    3.4067    0.0000 C   0  0  0  0  0  0  0  0  0  0  0  0
    7.3551    2.7099    0.0000 C   0  0  0  0  0  0  0  0  0  0  0  0
   11.1674    1.9741    0.0000 C   0  0  0  0  0  0  0  0  0  0  0  0
    7.9762   -4.8986    0.0000 C   0  0  0  0  0  0  0  0  0  0  0  0
   10.1658   -4.6998    0.0000 C   0  0  0  0  0  0  0  0  0  0  0  0
   13.1809    0.9912    0.0000 C   0  0  0  0  0  0  0  0  0  0  0  0
   13.4196   -1.0701    0.0000 C   0  0  0  0  0  0  0  0  0  0  0  0
    4.2116    0.2792    0.0000 C   0  0  0  0  0  0  0  0  0  0  0  0
    9.4140    4.1318    0.0000 C   0  0  0  0  0  0  0  0  0  0  0  0
    4.4492   -1.7893    0.0000 C   0  0  0  0  0  0  0  0  0  0  0  0
    7.3055   -5.6404    0.0000 C   0  0  0  0  0  0  0  0  0  0  0  0
   14.1806    1.0134    0.0000 C   0  0  0  0  0  0  0  0  0  0  0  0
    3.4157    0.8846    0.0000 C   0  0  0  0  0  0  0  0  0  0  0  0
    9.9896    4.9495    0.0000 C   0  0  0  0  0  0  0  0  0  0  0  0
   15.6610    1.9126    0.0000 C   0  0  0  0  0  0  0  0  0  0  0  0
   16.1416    2.7895    0.0000 C   0  0  3  0  0  0  0  0  0  0  0  0
   15.6225    3.6442    0.0000 C   0  0  0  0  0  0  0  0  0  0  0  0
   19.1023    4.5878    0.0000 C   0  0  3  0  0  0  0  0  0  0  0  0
   19.6720    5.4097    0.0000 C   0  0  3  0  0  0  0  0  0  0  0  0
   19.7080    3.7921    0.0000 C   0  0  3  0  0  0  0  0  0  0  0  0
   20.6297    5.1219    0.0000 C   0  0  3  0  0  0  0  0  0  0  0  0
   19.4202    2.8344    0.0000 C   0  0  0  0  0  0  0  0  0  0  0  0
   22.3772    5.4407    0.0000 C   0  0  0  0  0  0  0  0  0  0  0  0
   21.4024    6.7214    0.0000 C   0  0  0  0  0  0  0  0  0  0  0  0
   22.9454    6.2635    0.0000 C   0  0  0  0  0  0  0  0  0  0  0  0
   22.8057    4.5371    0.0000 C   0  0  0  0  0  0  0  0  0  0  0  0
   23.9422    6.1829    0.0000 C   0  0  0  0  0  0  0  0  0  0  0  0
   23.8024    4.4565    0.0000 C   0  0  0  0  0  0  0  0  0  0  0  0
   24.3707    5.2793    0.0000 C   0  0  0  0  0  0  0  0  0  0  0  0
   24.2310    3.5529    0.0000 C   0  0  0  0  0  0  0  0  0  0  0  0
   25.3674    5.1987    0.0000 C   0  0  0  0  0  0  0  0  0  0  0  0
    8.6847   -3.9820    0.0000 H   0  0  0  0  0  0  0  0  0  0  0  0
   12.4612   -0.4794    0.0000 H   0  0  0  0  0  0  0  0  0  0  0  0
    9.9368   -1.5106    0.0000 H   0  0  0  0  0  0  0  0  0  0  0  0
    8.8753   -1.0301    0.0000 H   0  0  0  0  0  0  0  0  0  0  0  0
    9.5405   -0.4590    0.0000 H   0  0  0  0  0  0  0  0  0  0  0  0
   10.0982   -3.3409    0.0000 H   0  0  0  0  0  0  0  0  0  0  0  0
   10.9522   -3.1420    0.0000 H   0  0  0  0  0  0  0  0  0  0  0  0
   10.7532   -2.2880    0.0000 H   0  0  0  0  0  0  0  0  0  0  0  0
    6.0904    0.8949    0.0000 H   0  0  0  0  0  0  0  0  0  0  0  0
    8.8672    3.1612    0.0000 H   0  0  0  0  0  0  0  0  0  0  0  0
    8.6855   -4.1013    0.0000 H   0  0  0  0  0  0  0  0  0  0  0  0
    9.0882   -4.7890    0.0000 H   0  0  0  0  0  0  0  0  0  0  0  0
    6.6646    1.6718    0.0000 H   0  0  0  0  0  0  0  0  0  0  0  0
   10.0555   -4.0991    0.0000 H   0  0  0  0  0  0  0  0  0  0  0  0
   10.8343   -3.6962    0.0000 H   0  0  0  0  0  0  0  0  0  0  0  0
   10.4314   -2.9175    0.0000 H   0  0  0  0  0  0  0  0  0  0  0  0
    7.2884   -3.4576    0.0000 H   0  0  0  0  0  0  0  0  0  0  0  0
    7.1211   -4.2369    0.0000 H   0  0  0  0  0  0  0  0  0  0  0  0
   12.0454   -1.8834    0.0000 H   0  0  0  0  0  0  0  0  0  0  0  0
   12.8365   -1.9807    0.0000 H   0  0  0  0  0  0  0  0  0  0  0  0
   12.6062   -0.4986    0.0000 H   0  0  0  0  0  0  0  0  0  0  0  0
   13.2874   -0.0848    0.0000 H   0  0  0  0  0  0  0  0  0  0  0  0
   12.5820    0.8713    0.0000 H   0  0  0  0  0  0  0  0  0  0  0  0
   12.1667    1.6434    0.0000 H   0  0  0  0  0  0  0  0  0  0  0  0
   11.3945    1.2281    0.0000 H   0  0  0  0  0  0  0  0  0  0  0  0
    5.0242   -0.2997    0.0000 H   0  0  0  0  0  0  0  0  0  0  0  0
    4.3428   -0.7133    0.0000 H   0  0  0  0  0  0  0  0  0  0  0  0
    5.5892    1.0864    0.0000 H   0  0  0  0  0  0  0  0  0  0  0  0
    4.7986    1.1872    0.0000 H   0  0  0  0  0  0  0  0  0  0  0  0
   10.2716    2.7849    0.0000 H   0  0  0  0  0  0  0  0  0  0  0  0
   10.3431    3.5788    0.0000 H   0  0  0  0  0  0  0  0  0  0  0  0
    5.0480   -1.6695    0.0000 H   0  0  0  0  0  0  0  0  0  0  0  0
    5.4632   -2.4418    0.0000 H   0  0  0  0  0  0  0  0  0  0  0  0
    6.2355   -2.0266    0.0000 H   0  0  0  0  0  0  0  0  0  0  0  0
    6.0042   -2.3578    0.0000 H   0  0  0  0  0  0  0  0  0  0  0  0
    6.0482   -3.2335    0.0000 H   0  0  0  0  0  0  0  0  0  0  0  0
    6.9239   -3.1894    0.0000 H   0  0  0  0  0  0  0  0  0  0  0  0
    8.9219    3.4105    0.0000 H   0  0  0  0  0  0  0  0  0  0  0  0
    8.2981    4.0267    0.0000 H   0  0  0  0  0  0  0  0  0  0  0  0
    7.6819    3.4029    0.0000 H   0  0  0  0  0  0  0  0  0  0  0  0
    7.5431    3.3007    0.0000 H   0  0  0  0  0  0  0  0  0  0  0  0
    6.7643    2.8979    0.0000 H   0  0  0  0  0  0  0  0  0  0  0  0
    7.1671    2.1191    0.0000 H   0  0  0  0  0  0  0  0  0  0  0  0
   11.6266    1.5575    0.0000 H   0  0  0  0  0  0  0  0  0  0  0  0
   11.5840    2.4333    0.0000 H   0  0  0  0  0  0  0  0  0  0  0  0
   10.7082    2.3907    0.0000 H   0  0  0  0  0  0  0  0  0  0  0  0
    8.3569   -5.3880    0.0000 H   0  0  0  0  0  0  0  0  0  0  0  0
    8.5242   -4.6087    0.0000 H   0  0  0  0  0  0  0  0  0  0  0  0
   13.2749    1.6040    0.0000 H   0  0  0  0  0  0  0  0  0  0  0  0
   12.5937    1.1902    0.0000 H   0  0  0  0  0  0  0  0  0  0  0  0
    3.7562   -0.1416    0.0000 H   0  0  0  0  0  0  0  0  0  0  0  0
    4.5469   -0.2424    0.0000 H   0  0  0  0  0  0  0  0  0  0  0  0
    8.9766    4.5713    0.0000 H   0  0  0  0  0  0  0  0  0  0  0  0
    8.9052    3.7774    0.0000 H   0  0  0  0  0  0  0  0  0  0  0  0
   10.7108   -6.0064    0.0000 H   0  0  0  0  0  0  0  0  0  0  0  0
    9.6370   -6.0131    0.0000 H   0  0  0  0  0  0  0  0  0  0  0  0
   14.1424   -2.2875    0.0000 H   0  0  0  0  0  0  0  0  0  0  0  0
   14.7888   -1.4300    0.0000 H   0  0  0  0  0  0  0  0  0  0  0  0
    3.1513   -2.3550    0.0000 H   0  0  0  0  0  0  0  0  0  0  0  0
    3.1277   -1.2814    0.0000 H   0  0  0  0  0  0  0  0  0  0  0  0
   14.3394    2.4202    0.0000 H   0  0  0  0  0  0  0  0  0  0  0  0
    7.1968   -7.0520    0.0000 H   0  0  0  0  0  0  0  0  0  0  0  0
    8.2188   -6.7222    0.0000 H   0  0  0  0  0  0  0  0  0  0  0  0
    2.0000    0.8735    0.0000 H   0  0  0  0  0  0  0  0  0  0  0  0
    2.4150   -0.1169    0.0000 H   0  0  0  0  0  0  0  0  0  0  0  0
    9.9261    6.3639    0.0000 H   0  0  0  0  0  0  0  0  0  0  0  0
    8.9517    5.9124    0.0000 H   0  0  0  0  0  0  0  0  0  0  0  0
   15.5669    1.2997    0.0000 H   0  0  0  0  0  0  0  0  0  0  0  0
   16.2482    1.7135    0.0000 H   0  0  0  0  0  0  0  0  0  0  0  0
   16.5829    2.0630    0.0000 H   0  0  0  0  0  0  0  0  0  0  0  0
   16.1524    3.9660    0.0000 H   0  0  0  0  0  0  0  0  0  0  0  0
   15.3006    4.1741    0.0000 H   0  0  0  0  0  0  0  0  0  0  0  0
   15.0925    3.3223    0.0000 H   0  0  0  0  0  0  0  0  0  0  0  0
   18.5127    2.5882    0.0000 H   0  0  0  0  0  0  0  0  0  0  0  0
   18.6997    5.3364    0.0000 H   0  0  0  0  0  0  0  0  0  0  0  0
   18.8297    5.5240    0.0000 H   0  0  0  0  0  0  0  0  0  0  0  0
   20.3222    3.2046    0.0000 H   0  0  0  0  0  0  0  0  0  0  0  0
   20.4781    5.9583    0.0000 H   0  0  0  0  0  0  0  0  0  0  0  0
   18.8664    3.1132    0.0000 H   0  0  0  0  0  0  0  0  0  0  0  0
   19.0494    2.3375    0.0000 H   0  0  0  0  0  0  0  0  0  0  0  0
   18.7327    6.4691    0.0000 H   0  0  0  0  0  0  0  0  0  0  0  0
   19.9272    1.5126    0.0000 H   0  0  0  0  0  0  0  0  0  0  0  0
   20.8923    7.0737    0.0000 H   0  0  0  0  0  0  0  0  0  0  0  0
   22.4534    4.0270    0.0000 H   0  0  0  0  0  0  0  0  0  0  0  0
   24.2945    6.6931    0.0000 H   0  0  0  0  0  0  0  0  0  0  0  0
   23.6708    3.2872    0.0000 H   0  0  0  0  0  0  0  0  0  0  0  0
   24.4966    2.9927    0.0000 H   0  0  0  0  0  0  0  0  0  0  0  0
   24.7912    3.8186    0.0000 H   0  0  0  0  0  0  0  0  0  0  0  0
   25.3174    4.5807    0.0000 H   0  0  0  0  0  0  0  0  0  0  0  0
   25.9854    5.1487    0.0000 H   0  0  0  0  0  0  0  0  0  0  0  0
   25.4174    5.8167    0.0000 H   0  0  0  0  0  0  0  0  0  0  0  0
  2 10  1  0  0  0  0
  2 11  1  0  0  0  0
  2 12  1  0  0  0  0
  2 13  2  0  0  0  0
  3 66  2  0  0  0  0
  4 68  2  0  0  0  0
  5 71  2  0  0  0  0
  6 72  2  0  0  0  0
  7 73  2  0  0  0  0
  8 74  2  0  0  0  0
  9 75  2  0  0  0  0
 10 77  1  0  0  0  0
 11 79  1  0  0  0  0
 12166  1  0  0  0  0
 14 81  1  0  0  0  0
 14 82  1  0  0  0  0
 15 80  1  0  0  0  0
 15173  1  0  0  0  0
 16 83  1  0  0  0  0
 16174  1  0  0  0  0
 17 30  1  0  0  0  0
 17 33  2  0  0  0  0
 18 31  2  0  0  0  0
 18 35  1  0  0  0  0
 19 39  1  0  0  0  0
 19 41  2  0  0  0  0
 20 40  2  0  0  0  0
 20 42  1  0  0  0  0
 21 66  1  0  0  0  0
 21147  1  0  0  0  0
 21148  1  0  0  0  0
 22 68  1  0  0  0  0
 22149  1  0  0  0  0
 22150  1  0  0  0  0
 23 71  1  0  0  0  0
 23151  1  0  0  0  0
 23152  1  0  0  0  0
 24 73  1  0  0  0  0
 24 76  1  0  0  0  0
 24153  1  0  0  0  0
 25 72  1  0  0  0  0
 25154  1  0  0  0  0
 25155  1  0  0  0  0
 26 74  1  0  0  0  0
 26156  1  0  0  0  0
 26157  1  0  0  0  0
 27 75  1  0  0  0  0
 27158  1  0  0  0  0
 27159  1  0  0  0  0
 28 82  1  0  0  0  0
 28 84  1  0  0  0  0
 28 85  1  0  0  0  0
 29 85  2  0  0  0  0
 29 86  1  0  0  0  0
 30 31  1  0  0  0  0
 30 32  1  0  0  0  0
 30 45  1  0  0  0  0
 31 36  1  0  0  0  0
 32 34  1  0  0  0  0
 32 50  1  0  0  0  0
 32 52  1  0  0  0  0
 33 34  1  0  0  0  0
 33 44  1  0  0  0  0
 34 53  1  0  0  0  0
 34 93  1  0  0  0  0
 35 38  1  0  0  0  0
 35 47  2  3  0  0  0
 36 38  1  0  0  0  0
 36 54  1  0  0  0  0
 36 94  1  0  0  0  0
 37 95  1  0  0  0  0
 37 96  1  0  0  0  0
 37 97  1  0  0  0  0
 38 55  1  0  0  0  0
 38 56  1  0  0  0  0
 39 43  1  0  0  0  0
 39 44  2  3  0  0  0
 40 47  1  0  0  0  0
 40 49  1  0  0  0  0
 41 48  1  0  0  0  0
 41 51  1  0  0  0  0
 42 46  1  0  0  0  0
 42 51  2  3  0  0  0
 43 48  1  0  0  0  0
 43 57  1  0  0  0  0
 43 60  1  0  0  0  0
 44 61  1  0  0  0  0
 45 98  1  0  0  0  0
 45 99  1  0  0  0  0
 45100  1  0  0  0  0
 46 49  1  0  0  0  0
 46 62  1  0  0  0  0
 46 63  1  0  0  0  0
 47 64  1  0  0  0  0
 48 58  1  0  0  0  0
 48101  1  0  0  0  0
 49 59  1  0  0  0  0
 49102  1  0  0  0  0
 50 66  1  0  0  0  0
 50103  1  0  0  0  0
 50104  1  0  0  0  0
 51105  1  0  0  0  0
 52106  1  0  0  0  0
 52107  1  0  0  0  0
 52108  1  0  0  0  0
 53 65  1  0  0  0  0
 53109  1  0  0  0  0
 53110  1  0  0  0  0
 54 68  1  0  0  0  0
 54111  1  0  0  0  0
 54112  1  0  0  0  0
 55 67  1  0  0  0  0
 55113  1  0  0  0  0
 55114  1  0  0  0  0
 56115  1  0  0  0  0
 56116  1  0  0  0  0
 56117  1  0  0  0  0
 57 71  1  0  0  0  0
 57118  1  0  0  0  0
 57119  1  0  0  0  0
 58 69  1  0  0  0  0
 58120  1  0  0  0  0
 58121  1  0  0  0  0
 59 70  1  0  0  0  0
 59122  1  0  0  0  0
 59123  1  0  0  0  0
 60124  1  0  0  0  0
 60125  1  0  0  0  0
 60126  1  0  0  0  0
 61127  1  0  0  0  0
 61128  1  0  0  0  0
 61129  1  0  0  0  0
 62130  1  0  0  0  0
 62131  1  0  0  0  0
 62132  1  0  0  0  0
 63133  1  0  0  0  0
 63134  1  0  0  0  0
 63135  1  0  0  0  0
 64136  1  0  0  0  0
 64137  1  0  0  0  0
 64138  1  0  0  0  0
 65 72  1  0  0  0  0
 65139  1  0  0  0  0
 65140  1  0  0  0  0
 67 73  1  0  0  0  0
 67141  1  0  0  0  0
 67142  1  0  0  0  0
 69 74  1  0  0  0  0
 69143  1  0  0  0  0
 69144  1  0  0  0  0
 70 75  1  0  0  0  0
 70145  1  0  0  0  0
 70146  1  0  0  0  0
 76 77  1  0  0  0  0
 76160  1  0  0  0  0
 76161  1  0  0  0  0
 77 78  1  0  0  0  0
 77162  1  0  0  0  0
 78163  1  0  0  0  0
 78164  1  0  0  0  0
 78165  1  0  0  0  0
 79 80  1  0  0  0  0
 79 81  1  0  0  0  0
 79167  1  0  0  0  0
 80 82  1  0  0  0  0
 80168  1  0  0  0  0
 81 83  1  0  0  0  0
 81169  1  0  0  0  0
 82170  1  0  0  0  0
 83171  1  0  0  0  0
 83172  1  0  0  0  0
 84 86  2  0  0  0  0
 84 87  1  0  0  0  0
 85175  1  0  0  0  0
 86 88  1  0  0  0  0
 87 89  2  0  0  0  0
 87176  1  0  0  0  0
 88 90  2  0  0  0  0
 88177  1  0  0  0  0
 89 90  1  0  0  0  0
 89 91  1  0  0  0  0
 90 92  1  0  0  0  0
 91178  1  0  0  0  0
 91179  1  0  0  0  0
 91180  1  0  0  0  0
 92181  1  0  0  0  0
 92182  1  0  0  0  0
 92183  1  0  0  0  0
M  CHG  1  37  -1
M  END
> <PUBCHEM_COMPOUND_CID>
4137

> <PUBCHEM_COMPOUND_CANONICALIZED>
1

> <PUBCHEM_CACTVS_COMPLEXITY>
3220

> <PUBCHEM_CACTVS_HBOND_ACCEPTOR>
20

> <PUBCHEM_CACTVS_HBOND_DONOR>
10

> <PUBCHEM_CACTVS_ROTATABLE_BOND>
26

> <PUBCHEM_CACTVS_SUBSKEYS>
AAADcfB//AIAAAAQAAAAAAAAAAAAAWJECBAwQIEAAAAWIFgB8AAAHgAQCCAAD5zhngY30LfMFxCoQyVzdICCgC0xEqAB2KE4dJiLeLLAmZGeYAhvlgLbyCf8ucKfiAAAQAAQACAQAACAACAAQAAAAAAAAA==

> <PUBCHEM_IUPAC_OPENEYE_NAME>
carbanide; cobalt; [5-(5,6-dimethylbenzimidazol-1-yl)-4-hydroxy-2-(hydroxymethyl)tetrahydrofuran-3-yl] [1-methyl-2-[3-[2,13,18-tris(2-amino-2-oxo-ethyl)-7,12,17-tris(3-amino-3-oxo-propyl)-3,5,8,8,13,15,18,19-octamethyl-2,7,12,17-tetrahydrocorrin-3-yl]propanoylamino]ethyl] hydrogen phosphate

> <PUBCHEM_IUPAC_CAS_NAME>
carbanide; cobalt; [5-(5,6-dimethyl-1-benzimidazolyl)-4-hydroxy-2-(hydroxymethyl)-3-oxolanyl] 1-[[1-oxo-3-[2,13,18-tris(2-amino-2-oxoethyl)-7,12,17-tris(3-amino-3-oxopropyl)-3,5,8,8,13,15,18,19-octamethyl-2,7,12,17-tetrahydrocorrin-3-yl]propyl]amino]propan-2-yl hydrogen phosphate

> <PUBCHEM_IUPAC_NAME>
carbanide; cobalt; [5-(5,6-dimethylbenzimidazol-1-yl)-4-hydroxy-2-(hydroxymethyl)oxolan-3-yl] 1-[3-[2,13,18-tris(2-amino-2-oxoethyl)-7,12,17-tris(3-amino-3-oxopropyl)-3,5,8,8,13,15,18,19-octamethyl-2,7,12,17-tetrahydrocorrin-3-yl]propanoylamino]propan-2-yl hydrogen phosphate

> <PUBCHEM_IUPAC_SYSTEMATIC_NAME>
carbanide; cobalt; [5-(5,6-dimethylbenzimidazol-1-yl)-2-(hydroxymethyl)-4-oxidanyl-oxolan-3-yl] 1-[3-[2,13,18-tris(2-azanyl-2-oxidanylidene-ethyl)-7,12,17-tris(3-azanyl-3-oxidanylidene-propyl)-3,5,8,8,13,15,18,19-octamethyl-2,7,12,17-tetrahydrocorrin-3-yl]propanoylamino]propan-2-yl hydrogen phosphate

> <PUBCHEM_IUPAC_TRADITIONAL_NAME>
carbanide; cobalt; [5-(5,6-dimethylbenzimidazol-1-yl)-4-hydroxy-2-methylol-tetrahydrofuran-3-yl] [1-methyl-2-[3-[2,13,18-tris(2-amino-2-keto-ethyl)-7,12,17-tris(3-amino-3-keto-propyl)-3,5,8,8,13,15,18,19-octamethyl-2,7,12,17-tetrahydrocorrin-3-yl]propanoylamino]ethyl] hydrogen phosphate

> <PUBCHEM_IUPAC_INCHI>
InChI=1S/C62H88N13O14P.CH3.Co/c1-29-20-39-40(21-30(29)2)75(28-70-39)57-52(84)53(41(27-76)87-57)89-90(85,86)88-31(3)26-69-49(83)18-19-59(8)37(22-46(66)80)56-62(11)61(10,25-48(68)82)36(14-17-45(65)79)51(74-62)33(5)55-60(9,24-47(67)81)34(12-15-43(63)77)38(71-55)23-42-58(6,7)35(13-16-44(64)78)50(72-42)32(4)54(59)73-56;;/h20-21,23,28,31,34-37,41,52-53,57,76,84H,12-19,22,24-27H2,1-11H3,(H2,63,77)(H2,64,78)(H2,65,79)(H2,66,80)(H2,67,81)(H2,68,82)(H,69,83)(H,85,86);1H3;/q;-1;

> <PUBCHEM_IUPAC_INCHIKEY>
MBVKLLLNTYZPKJ-UHFFFAOYSA-N

> <PUBCHEM_EXACT_MASS>
1343.587801

> <PUBCHEM_MOLECULAR_FORMULA>
C63H91CoN13O14P-

> <PUBCHEM_MOLECULAR_WEIGHT>
1344.382297

> <PUBCHEM_OPENEYE_CAN_SMILES>
[CH3-].CC1=CC2=C(C=C1C)N(C=N2)C3C(C(C(O3)CO)OP(=O)(O)OC(C)CNC(=O)CCC4(C(C5=NC4=C(C6=NC(=CC7=NC(=C(C8=NC5(C(C8CCC(=O)N)(C)CC(=O)N)C)C)C(C7CCC(=O)N)(C)CC(=O)N)C(C6CCC(=O)N)(C)C)C)CC(=O)N)C)O.[Co]

> <PUBCHEM_OPENEYE_ISO_SMILES>
[CH3-].CC1=CC2=C(C=C1C)N(C=N2)C3C(C(C(O3)CO)OP(=O)(O)OC(C)CNC(=O)CCC4(C(C5=NC4=C(C6=NC(=CC7=NC(=C(C8=NC5(C(C8CCC(=O)N)(C)CC(=O)N)C)C)C(C7CCC(=O)N)(C)CC(=O)N)C(C6CCC(=O)N)(C)C)C)CC(=O)N)C)O.[Co]

> <PUBCHEM_CACTVS_TPSA>
460

> <PUBCHEM_MONOISOTOPIC_WEIGHT>
1343.587801

> <PUBCHEM_TOTAL_CHARGE>
-1

> <PUBCHEM_HEAVY_ATOM_COUNT>
92

> <PUBCHEM_ATOM_DEF_STEREO_COUNT>
0

> <PUBCHEM_ATOM_UDEF_STEREO_COUNT>
13

> <PUBCHEM_BOND_DEF_STEREO_COUNT>
0

> <PUBCHEM_BOND_UDEF_STEREO_COUNT>
3

> <PUBCHEM_ISOTOPIC_ATOM_COUNT>
0

> <PUBCHEM_COMPONENT_COUNT>
3

> <PUBCHEM_CACTVS_TAUTO_COUNT>
1000

> <PUBCHEM_NONSTANDARDBOND>
1  17  6
1  18  6
1  19  6
1  20  6
1  37  6

> <PUBCHEM_COORDINATE_TYPE>
1
5
255

> <PUBCHEM_BONDANNOTATIONS>
28  84  8
28  85  8
29  85  8
29  86  8
30  45  3
32  52  3
34  93  3
35  47  1
36  94  3
38  56  3
39  44  1
42  51  1
43  60  3
48  101  3
49  102  3
77  162  3
79  167  3
80  168  3
81  169  3
82  170  3
84  86  8
84  87  8
86  88  8
87  89  8
88  90  8
89  90  8

$$$$

