586182
  -OEChem-06241222452D

 26 27  0     0  0  0  0  0  0999 V2000
    2.0000   -2.0600    0.0000 Cl  0  0  0  0  0  0  0  0  0  0  0  0
    8.0622    1.4400    0.0000 N   0  0  0  0  0  0  0  0  0  0  0  0
    6.3301   -0.5600    0.0000 N   0  0  0  0  0  0  0  0  0  0  0  0
    5.4641    0.9400    0.0000 N   0  0  0  0  0  0  0  0  0  0  0  0
    7.1962   -0.0600    0.0000 N   0  0  0  0  0  0  0  0  0  0  0  0
    6.3301    1.4400    0.0000 N   0  0  0  0  0  0  0  0  0  0  0  0
    4.5981   -0.5600    0.0000 C   0  0  0  0  0  0  0  0  0  0  0  0
    8.9282    0.9400    0.0000 C   0  0  0  0  0  0  0  0  0  0  0  0
    5.4641   -0.0600    0.0000 C   0  0  0  0  0  0  0  0  0  0  0  0
    3.7320   -0.0600    0.0000 C   0  0  0  0  0  0  0  0  0  0  0  0
    4.5981   -1.5600    0.0000 C   0  0  0  0  0  0  0  0  0  0  0  0
    7.1962    0.9400    0.0000 C   0  0  0  0  0  0  0  0  0  0  0  0
    9.7942    1.4400    0.0000 C   0  0  0  0  0  0  0  0  0  0  0  0
    2.8660   -0.5600    0.0000 C   0  0  0  0  0  0  0  0  0  0  0  0
    3.7320   -2.0600    0.0000 C   0  0  0  0  0  0  0  0  0  0  0  0
    2.8660   -1.5600    0.0000 C   0  0  0  0  0  0  0  0  0  0  0  0
    8.5297    0.4651    0.0000 H   0  0  0  0  0  0  0  0  0  0  0  0
    9.3267    0.4651    0.0000 H   0  0  0  0  0  0  0  0  0  0  0  0
    8.0622    2.0600    0.0000 H   0  0  0  0  0  0  0  0  0  0  0  0
    3.7320    0.5600    0.0000 H   0  0  0  0  0  0  0  0  0  0  0  0
    5.1350   -1.8700    0.0000 H   0  0  0  0  0  0  0  0  0  0  0  0
   10.1042    0.9031    0.0000 H   0  0  0  0  0  0  0  0  0  0  0  0
   10.3312    1.7500    0.0000 H   0  0  0  0  0  0  0  0  0  0  0  0
    9.4842    1.9769    0.0000 H   0  0  0  0  0  0  0  0  0  0  0  0
    2.3291   -0.2500    0.0000 H   0  0  0  0  0  0  0  0  0  0  0  0
    3.7320   -2.6800    0.0000 H   0  0  0  0  0  0  0  0  0  0  0  0
  1 16  1  0  0  0  0
  2  8  1  0  0  0  0
  2 12  1  0  0  0  0
  2 19  1  0  0  0  0
  3  5  2  0  0  0  0
  3  9  1  0  0  0  0
  4  6  1  0  0  0  0
  4  9  2  0  0  0  0
  5 12  1  0  0  0  0
  6 12  2  0  0  0  0
  7  9  1  0  0  0  0
  7 10  2  0  0  0  0
  7 11  1  0  0  0  0
  8 13  1  0  0  0  0
  8 17  1  0  0  0  0
  8 18  1  0  0  0  0
 10 14  1  0  0  0  0
 10 20  1  0  0  0  0
 11 15  2  0  0  0  0
 11 21  1  0  0  0  0
 13 22  1  0  0  0  0
 13 23  1  0  0  0  0
 13 24  1  0  0  0  0
 14 16  2  0  0  0  0
 14 25  1  0  0  0  0
 15 16  1  0  0  0  0
 15 26  1  0  0  0  0
M  END
> <PUBCHEM_COMPOUND_CID>
586182

> <PUBCHEM_COMPOUND_CANONICALIZED>
1

> <PUBCHEM_CACTVS_COMPLEXITY>
199

> <PUBCHEM_CACTVS_HBOND_ACCEPTOR>
5

> <PUBCHEM_CACTVS_HBOND_DONOR>
1

> <PUBCHEM_CACTVS_ROTATABLE_BOND>
3

> <PUBCHEM_CACTVS_SUBSKEYS>
AAADccBzgAAEAAAAAAAAAAAAAAAAAAAAAAA8QAAAAAAAAAABwAAAHAIYAAAADALBGyQzEIbAAACiAiJiIACSAAIgBQAdiKAoBpiIIKKBmxGAIABwmAIIiAcQgAAOBAAAAAAAAAAIAAAAAAAAAAAAAAAAAA==

> <PUBCHEM_IUPAC_OPENEYE_NAME>
6-(4-chlorophenyl)-N-ethyl-1,2,4,5-tetrazin-3-amine

> <PUBCHEM_IUPAC_CAS_NAME>
6-(4-chlorophenyl)-N-ethyl-1,2,4,5-tetrazin-3-amine

> <PUBCHEM_IUPAC_NAME>
6-(4-chlorophenyl)-N-ethyl-1,2,4,5-tetrazin-3-amine

> <PUBCHEM_IUPAC_SYSTEMATIC_NAME>
6-(4-chlorophenyl)-N-ethyl-1,2,4,5-tetrazin-3-amine

> <PUBCHEM_IUPAC_TRADITIONAL_NAME>
[6-(4-chlorophenyl)-1,2,4,5-tetrazin-3-yl]-ethyl-amine

> <PUBCHEM_IUPAC_INCHI>
InChI=1S/C10H10ClN5/c1-2-12-10-15-13-9(14-16-10)7-3-5-8(11)6-4-7/h3-6H,2H2,1H3,(H,12,15,16)

> <PUBCHEM_IUPAC_INCHIKEY>
IUIDQLRVWWELCS-UHFFFAOYSA-N

> <PUBCHEM_XLOGP3_AA>
1.6

> <PUBCHEM_EXACT_MASS>
235.062473

> <PUBCHEM_MOLECULAR_FORMULA>
C10H10ClN5

> <PUBCHEM_MOLECULAR_WEIGHT>
235.6729

> <PUBCHEM_OPENEYE_CAN_SMILES>
CCNC1=NN=C(N=N1)C2=CC=C(C=C2)Cl

> <PUBCHEM_OPENEYE_ISO_SMILES>
CCNC1=NN=C(N=N1)C2=CC=C(C=C2)Cl

> <PUBCHEM_CACTVS_TPSA>
63.6

> <PUBCHEM_MONOISOTOPIC_WEIGHT>
235.062473

> <PUBCHEM_TOTAL_CHARGE>
0

> <PUBCHEM_HEAVY_ATOM_COUNT>
16

> <PUBCHEM_ATOM_DEF_STEREO_COUNT>
0

> <PUBCHEM_ATOM_UDEF_STEREO_COUNT>
0

> <PUBCHEM_BOND_DEF_STEREO_COUNT>
0

> <PUBCHEM_BOND_UDEF_STEREO_COUNT>
0

> <PUBCHEM_ISOTOPIC_ATOM_COUNT>
0

> <PUBCHEM_COMPONENT_COUNT>
1

> <PUBCHEM_CACTVS_TAUTO_COUNT>
2

> <PUBCHEM_COORDINATE_TYPE>
1
5
255

> <PUBCHEM_BONDANNOTATIONS>
10  14  8
11  15  8
14  16  8
15  16  8
3  5  8
3  9  8
4  6  8
4  9  8
5  12  8
6  12  8
7  10  8
7  11  8

$$$$

