17396304
  -OEChem-06241222552D

 35 38  0     0  0  0  0  0  0999 V2000
    4.1215    0.9471    0.0000 S   0  0  0  0  0  0  0  0  0  0  0  0
    9.2484    1.4788    0.0000 O   0  0  0  0  0  0  0  0  0  0  0  0
    2.9945   -3.5731    0.0000 O   0  0  0  0  0  0  0  0  0  0  0  0
   10.8320    2.2835    0.0000 O   0  0  0  0  0  0  0  0  0  0  0  0
    9.2484    3.0883    0.0000 N   0  0  0  0  0  0  0  0  0  0  0  0
    5.5996    0.2890    0.0000 N   0  0  0  0  0  0  0  0  0  0  0  0
    6.5702    1.7835    0.0000 C   0  0  0  0  0  0  0  0  0  0  0  0
    8.3022    2.7835    0.0000 C   0  0  0  0  0  0  0  0  0  0  0  0
    8.3022    1.7835    0.0000 C   0  0  0  0  0  0  0  0  0  0  0  0
    5.7041    1.2835    0.0000 C   0  0  0  0  0  0  0  0  0  0  0  0
    7.4362    1.2835    0.0000 C   0  0  0  0  0  0  0  0  0  0  0  0
    6.5702    2.7835    0.0000 C   0  0  0  0  0  0  0  0  0  0  0  0
    7.4362    3.2835    0.0000 C   0  0  0  0  0  0  0  0  0  0  0  0
    4.6215    0.0811    0.0000 C   0  0  0  0  0  0  0  0  0  0  0  0
    4.2147   -0.8324    0.0000 C   0  0  0  0  0  0  0  0  0  0  0  0
    4.7906    1.6903    0.0000 C   0  0  0  0  0  0  0  0  0  0  0  0
    9.8320    2.2835    0.0000 C   0  0  0  0  0  0  0  0  0  0  0  0
    3.2202   -0.9370    0.0000 C   0  0  0  0  0  0  0  0  0  0  0  0
    4.8025   -1.6414    0.0000 C   0  0  0  0  0  0  0  0  0  0  0  0
    3.4013   -2.6595    0.0000 C   0  0  0  0  0  0  0  0  0  0  0  0
    2.8135   -1.8505    0.0000 C   0  0  0  0  0  0  0  0  0  0  0  0
    4.3958   -2.5550    0.0000 C   0  0  0  0  0  0  0  0  0  0  0  0
    2.0000   -3.6776    0.0000 C   0  0  0  0  0  0  0  0  0  0  0  0
    7.4362    0.6635    0.0000 H   0  0  0  0  0  0  0  0  0  0  0  0
    6.0332    3.0935    0.0000 H   0  0  0  0  0  0  0  0  0  0  0  0
    7.4362    3.9035    0.0000 H   0  0  0  0  0  0  0  0  0  0  0  0
    9.4410    3.6776    0.0000 H   0  0  0  0  0  0  0  0  0  0  0  0
    4.6617    2.2967    0.0000 H   0  0  0  0  0  0  0  0  0  0  0  0
    2.8558   -0.4354    0.0000 H   0  0  0  0  0  0  0  0  0  0  0  0
    5.4191   -1.5766    0.0000 H   0  0  0  0  0  0  0  0  0  0  0  0
    2.1969   -1.9153    0.0000 H   0  0  0  0  0  0  0  0  0  0  0  0
    4.7602   -3.0566    0.0000 H   0  0  0  0  0  0  0  0  0  0  0  0
    1.9352   -3.0610    0.0000 H   0  0  0  0  0  0  0  0  0  0  0  0
    1.3834   -3.7424    0.0000 H   0  0  0  0  0  0  0  0  0  0  0  0
    2.0648   -4.2942    0.0000 H   0  0  0  0  0  0  0  0  0  0  0  0
  1 14  1  0  0  0  0
  1 16  1  0  0  0  0
  2  9  1  0  0  0  0
  2 17  1  0  0  0  0
  3 20  1  0  0  0  0
  3 23  1  0  0  0  0
  4 17  2  0  0  0  0
  5  8  1  0  0  0  0
  5 17  1  0  0  0  0
  5 27  1  0  0  0  0
  6 10  1  0  0  0  0
  6 14  2  0  0  0  0
  7 10  1  0  0  0  0
  7 11  2  0  0  0  0
  7 12  1  0  0  0  0
  8  9  2  0  0  0  0
  8 13  1  0  0  0  0
  9 11  1  0  0  0  0
 10 16  2  0  0  0  0
 11 24  1  0  0  0  0
 12 13  2  0  0  0  0
 12 25  1  0  0  0  0
 13 26  1  0  0  0  0
 14 15  1  0  0  0  0
 15 18  2  0  0  0  0
 15 19  1  0  0  0  0
 16 28  1  0  0  0  0
 18 21  1  0  0  0  0
 18 29  1  0  0  0  0
 19 22  2  0  0  0  0
 19 30  1  0  0  0  0
 20 21  2  0  0  0  0
 20 22  1  0  0  0  0
 21 31  1  0  0  0  0
 22 32  1  0  0  0  0
 23 33  1  0  0  0  0
 23 34  1  0  0  0  0
 23 35  1  0  0  0  0
M  END
> <PUBCHEM_COMPOUND_CID>
17396304

> <PUBCHEM_COMPOUND_CANONICALIZED>
1

> <PUBCHEM_CACTVS_COMPLEXITY>
442

> <PUBCHEM_CACTVS_HBOND_ACCEPTOR>
5

> <PUBCHEM_CACTVS_HBOND_DONOR>
1

> <PUBCHEM_CACTVS_ROTATABLE_BOND>
3

> <PUBCHEM_CACTVS_SUBSKEYS>
AAADccB7MABAAAAAAAAAAAAAAAAAAWLAAAAwYAAAAAAAAFgB0AAAHgQQAAAADAyF3gKyz5LIFAisAyRiXACC+KBhKjgIiDQ3bJkOJqLksZuNMihk1BH46Aew0LIOKAABAAAAEABQAAIAAAAgAAAAAAAAAA==

> <PUBCHEM_IUPAC_OPENEYE_NAME>
6-[2-(4-methoxyphenyl)thiazol-4-yl]-3H-1,3-benzoxazol-2-one

> <PUBCHEM_IUPAC_CAS_NAME>
6-[2-(4-methoxyphenyl)-4-thiazolyl]-3H-1,3-benzoxazol-2-one

> <PUBCHEM_IUPAC_NAME>
6-[2-(4-methoxyphenyl)-1,3-thiazol-4-yl]-3H-1,3-benzoxazol-2-one

> <PUBCHEM_IUPAC_SYSTEMATIC_NAME>
6-[2-(4-methoxyphenyl)-1,3-thiazol-4-yl]-3H-1,3-benzoxazol-2-one

> <PUBCHEM_IUPAC_TRADITIONAL_NAME>
6-[2-(4-methoxyphenyl)thiazol-4-yl]-3H-1,3-benzoxazol-2-one

> <PUBCHEM_IUPAC_INCHI>
InChI=1S/C17H12N2O3S/c1-21-12-5-2-10(3-6-12)16-18-14(9-23-16)11-4-7-13-15(8-11)22-17(20)19-13/h2-9H,1H3,(H,19,20)

> <PUBCHEM_IUPAC_INCHIKEY>
LCFVNOIINZDKFO-UHFFFAOYSA-N

> <PUBCHEM_XLOGP3_AA>
3.5

> <PUBCHEM_EXACT_MASS>
324.056863

> <PUBCHEM_MOLECULAR_FORMULA>
C17H12N2O3S

> <PUBCHEM_MOLECULAR_WEIGHT>
324.35378

> <PUBCHEM_OPENEYE_CAN_SMILES>
COC1=CC=C(C=C1)C2=NC(=CS2)C3=CC4=C(C=C3)NC(=O)O4

> <PUBCHEM_OPENEYE_ISO_SMILES>
COC1=CC=C(C=C1)C2=NC(=CS2)C3=CC4=C(C=C3)NC(=O)O4

> <PUBCHEM_CACTVS_TPSA>
88.7

> <PUBCHEM_MONOISOTOPIC_WEIGHT>
324.056863

> <PUBCHEM_TOTAL_CHARGE>
0

> <PUBCHEM_HEAVY_ATOM_COUNT>
23

> <PUBCHEM_ATOM_DEF_STEREO_COUNT>
0

> <PUBCHEM_ATOM_UDEF_STEREO_COUNT>
0

> <PUBCHEM_BOND_DEF_STEREO_COUNT>
0

> <PUBCHEM_BOND_UDEF_STEREO_COUNT>
0

> <PUBCHEM_ISOTOPIC_ATOM_COUNT>
0

> <PUBCHEM_COMPONENT_COUNT>
1

> <PUBCHEM_CACTVS_TAUTO_COUNT>
2

> <PUBCHEM_COORDINATE_TYPE>
1
5
255

> <PUBCHEM_BONDANNOTATIONS>
1  14  8
1  16  8
10  16  8
12  13  8
15  18  8
15  19  8
18  21  8
19  22  8
2  17  8
2  9  8
20  21  8
20  22  8
5  17  8
5  8  8
6  10  8
6  14  8
7  11  8
7  12  8
8  13  8
8  9  8
9  11  8

$$$$

