14021
  -OEChem-06241222412D

 67 64  0     0  0  0  0  0  0999 V2000
    4.3337   -0.7071    0.0000 Sn  0  0  0  0  0  0  0  0  0  0  0  0
    5.7480    0.7071    0.0000 Sn  0  0  0  0  0  0  0  0  0  0  0  0
    5.0409    0.0000    0.0000 O   0  0  0  0  0  0  0  0  0  0  0  0
    3.3461   -0.8635    0.0000 C   0  0  0  0  0  0  0  0  0  0  0  0
    4.1773   -1.6948    0.0000 C   0  0  0  0  0  0  0  0  0  0  0  0
    3.8798    0.1839    0.0000 C   0  0  0  0  0  0  0  0  0  0  0  0
    5.9044    1.6948    0.0000 C   0  0  0  0  0  0  0  0  0  0  0  0
    6.7356    0.8635    0.0000 C   0  0  0  0  0  0  0  0  0  0  0  0
    6.2019   -0.1839    0.0000 C   0  0  0  0  0  0  0  0  0  0  0  0
    2.9877   -1.7971    0.0000 C   0  0  0  0  0  0  0  0  0  0  0  0
    4.9545   -2.3241    0.0000 C   0  0  0  0  0  0  0  0  0  0  0  0
    2.8811    0.2362    0.0000 C   0  0  0  0  0  0  0  0  0  0  0  0
    5.1272    2.3241    0.0000 C   0  0  0  0  0  0  0  0  0  0  0  0
    7.0940    1.7971    0.0000 C   0  0  0  0  0  0  0  0  0  0  0  0
    7.2006   -0.2362    0.0000 C   0  0  0  0  0  0  0  0  0  0  0  0
    2.0000   -1.9536    0.0000 C   0  0  0  0  0  0  0  0  0  0  0  0
    4.7980   -3.3118    0.0000 C   0  0  0  0  0  0  0  0  0  0  0  0
    2.4271    1.1272    0.0000 C   0  0  0  0  0  0  0  0  0  0  0  0
    5.2837    3.3118    0.0000 C   0  0  0  0  0  0  0  0  0  0  0  0
    8.0817    1.9536    0.0000 C   0  0  0  0  0  0  0  0  0  0  0  0
    7.6546   -1.1272    0.0000 C   0  0  0  0  0  0  0  0  0  0  0  0
    4.8862   -0.9886    0.0000 H   0  0  0  0  0  0  0  0  0  0  0  0
    5.1955    0.9886    0.0000 H   0  0  0  0  0  0  0  0  0  0  0  0
    5.4793   -0.4384    0.0000 H   0  0  0  0  0  0  0  0  0  0  0  0
    4.6024    0.4384    0.0000 H   0  0  0  0  0  0  0  0  0  0  0  0
    2.7374   -0.7452    0.0000 H   0  0  0  0  0  0  0  0  0  0  0  0
    3.3569   -0.2436    0.0000 H   0  0  0  0  0  0  0  0  0  0  0  0
    3.8767   -2.2371    0.0000 H   0  0  0  0  0  0  0  0  0  0  0  0
    3.5911   -1.4929    0.0000 H   0  0  0  0  0  0  0  0  0  0  0  0
    3.8042    0.7993    0.0000 H   0  0  0  0  0  0  0  0  0  0  0  0
    4.4727    0.3652    0.0000 H   0  0  0  0  0  0  0  0  0  0  0  0
    6.4906    1.4929    0.0000 H   0  0  0  0  0  0  0  0  0  0  0  0
    6.2050    2.2371    0.0000 H   0  0  0  0  0  0  0  0  0  0  0  0
    7.3443    0.7452    0.0000 H   0  0  0  0  0  0  0  0  0  0  0  0
    6.7248    0.2436    0.0000 H   0  0  0  0  0  0  0  0  0  0  0  0
    6.2775   -0.7993    0.0000 H   0  0  0  0  0  0  0  0  0  0  0  0
    5.6090   -0.3652    0.0000 H   0  0  0  0  0  0  0  0  0  0  0  0
    2.9769   -2.4170    0.0000 H   0  0  0  0  0  0  0  0  0  0  0  0
    3.5963   -1.9154    0.0000 H   0  0  0  0  0  0  0  0  0  0  0  0
    5.5407   -2.5260    0.0000 H   0  0  0  0  0  0  0  0  0  0  0  0
    5.2550   -1.7819    0.0000 H   0  0  0  0  0  0  0  0  0  0  0  0
    2.9567   -0.3791    0.0000 H   0  0  0  0  0  0  0  0  0  0  0  0
    2.2882    0.0550    0.0000 H   0  0  0  0  0  0  0  0  0  0  0  0
    4.5410    2.5260    0.0000 H   0  0  0  0  0  0  0  0  0  0  0  0
    4.8267    1.7819    0.0000 H   0  0  0  0  0  0  0  0  0  0  0  0
    6.4854    1.9154    0.0000 H   0  0  0  0  0  0  0  0  0  0  0  0
    7.1048    2.4170    0.0000 H   0  0  0  0  0  0  0  0  0  0  0  0
    7.7935   -0.0550    0.0000 H   0  0  0  0  0  0  0  0  0  0  0  0
    7.1250    0.3791    0.0000 H   0  0  0  0  0  0  0  0  0  0  0  0
    1.3876   -2.0505    0.0000 H   0  0  0  0  0  0  0  0  0  0  0  0
    1.9030   -1.3412    0.0000 H   0  0  0  0  0  0  0  0  0  0  0  0
    2.0970   -2.5659    0.0000 H   0  0  0  0  0  0  0  0  0  0  0  0
    5.4104   -3.4088    0.0000 H   0  0  0  0  0  0  0  0  0  0  0  0
    4.7010   -3.9242    0.0000 H   0  0  0  0  0  0  0  0  0  0  0  0
    4.1857   -3.2148    0.0000 H   0  0  0  0  0  0  0  0  0  0  0  0
    1.8747    0.8458    0.0000 H   0  0  0  0  0  0  0  0  0  0  0  0
    2.1457    1.6797    0.0000 H   0  0  0  0  0  0  0  0  0  0  0  0
    2.9796    1.4087    0.0000 H   0  0  0  0  0  0  0  0  0  0  0  0
    4.6713    3.4088    0.0000 H   0  0  0  0  0  0  0  0  0  0  0  0
    5.3807    3.9242    0.0000 H   0  0  0  0  0  0  0  0  0  0  0  0
    5.8960    3.2148    0.0000 H   0  0  0  0  0  0  0  0  0  0  0  0
    7.9847    2.5659    0.0000 H   0  0  0  0  0  0  0  0  0  0  0  0
    8.6941    2.0505    0.0000 H   0  0  0  0  0  0  0  0  0  0  0  0
    8.1787    1.3412    0.0000 H   0  0  0  0  0  0  0  0  0  0  0  0
    7.1021   -1.4087    0.0000 H   0  0  0  0  0  0  0  0  0  0  0  0
    7.9360   -1.6797    0.0000 H   0  0  0  0  0  0  0  0  0  0  0  0
    8.2070   -0.8458    0.0000 H   0  0  0  0  0  0  0  0  0  0  0  0
  1  4  1  0  0  0  0
  1  5  1  0  0  0  0
  1  6  1  0  0  0  0
  1 22  1  0  0  0  0
  2  7  1  0  0  0  0
  2  8  1  0  0  0  0
  2  9  1  0  0  0  0
  2 23  1  0  0  0  0
  3 24  1  0  0  0  0
  3 25  1  0  0  0  0
  4 10  1  0  0  0  0
  4 26  1  0  0  0  0
  4 27  1  0  0  0  0
  5 11  1  0  0  0  0
  5 28  1  0  0  0  0
  5 29  1  0  0  0  0
  6 12  1  0  0  0  0
  6 30  1  0  0  0  0
  6 31  1  0  0  0  0
  7 13  1  0  0  0  0
  7 32  1  0  0  0  0
  7 33  1  0  0  0  0
  8 14  1  0  0  0  0
  8 34  1  0  0  0  0
  8 35  1  0  0  0  0
  9 15  1  0  0  0  0
  9 36  1  0  0  0  0
  9 37  1  0  0  0  0
 10 16  1  0  0  0  0
 10 38  1  0  0  0  0
 10 39  1  0  0  0  0
 11 17  1  0  0  0  0
 11 40  1  0  0  0  0
 11 41  1  0  0  0  0
 12 18  1  0  0  0  0
 12 42  1  0  0  0  0
 12 43  1  0  0  0  0
 13 19  1  0  0  0  0
 13 44  1  0  0  0  0
 13 45  1  0  0  0  0
 14 20  1  0  0  0  0
 14 46  1  0  0  0  0
 14 47  1  0  0  0  0
 15 21  1  0  0  0  0
 15 48  1  0  0  0  0
 15 49  1  0  0  0  0
 16 50  1  0  0  0  0
 16 51  1  0  0  0  0
 16 52  1  0  0  0  0
 17 53  1  0  0  0  0
 17 54  1  0  0  0  0
 17 55  1  0  0  0  0
 18 56  1  0  0  0  0
 18 57  1  0  0  0  0
 18 58  1  0  0  0  0
 19 59  1  0  0  0  0
 19 60  1  0  0  0  0
 19 61  1  0  0  0  0
 20 62  1  0  0  0  0
 20 63  1  0  0  0  0
 20 64  1  0  0  0  0
 21 65  1  0  0  0  0
 21 66  1  0  0  0  0
 21 67  1  0  0  0  0
M  END
> <PUBCHEM_COMPOUND_CID>
14021

> <PUBCHEM_COMPOUND_CANONICALIZED>
1

> <PUBCHEM_CACTVS_COMPLEXITY>
119

> <PUBCHEM_CACTVS_HBOND_ACCEPTOR>
1

> <PUBCHEM_CACTVS_HBOND_DONOR>
1

> <PUBCHEM_CACTVS_ROTATABLE_BOND>
12

> <PUBCHEM_CACTVS_SUBSKEYS>
AAADcfB4IAAAAAAAAACAAAAAAAAAAAAAAAAAAAAAAAAAAAAAAAAAGAAACAAACACAAAACAAAAAAAAAAAAAAAAAAAAAAAAAAAAAAAAAAAAAAAAAAAAAAAAAAAAAAAAAAAAAAAAAAAAAAAAAAAAAAAAAAAAAA==

> <PUBCHEM_IUPAC_OPENEYE_NAME>
tripropylstannane hydrate

> <PUBCHEM_IUPAC_CAS_NAME>
tripropylstannane hydrate

> <PUBCHEM_IUPAC_NAME>
tripropylstannane hydrate

> <PUBCHEM_IUPAC_SYSTEMATIC_NAME>
tripropylstannane hydrate

> <PUBCHEM_IUPAC_TRADITIONAL_NAME>
tripropylstannane hydrate

> <PUBCHEM_IUPAC_INCHI>
InChI=1S/6C3H7.H2O.2Sn.2H/c6*1-3-2;;;;;/h6*1,3H2,2H3;1H2;;;;

> <PUBCHEM_IUPAC_INCHIKEY>
MPGQGFDSOHYEAJ-UHFFFAOYSA-N

> <PUBCHEM_EXACT_MASS>
516.158664

> <PUBCHEM_MOLECULAR_FORMULA>
C18H46OSn2

> <PUBCHEM_MOLECULAR_WEIGHT>
515.97724

> <PUBCHEM_OPENEYE_CAN_SMILES>
CCC[SnH](CCC)CCC.CCC[SnH](CCC)CCC.O

> <PUBCHEM_OPENEYE_ISO_SMILES>
CCC[SnH](CCC)CCC.CCC[SnH](CCC)CCC.O

> <PUBCHEM_CACTVS_TPSA>
1

> <PUBCHEM_MONOISOTOPIC_WEIGHT>
518.159255

> <PUBCHEM_TOTAL_CHARGE>
0

> <PUBCHEM_HEAVY_ATOM_COUNT>
21

> <PUBCHEM_ATOM_DEF_STEREO_COUNT>
0

> <PUBCHEM_ATOM_UDEF_STEREO_COUNT>
0

> <PUBCHEM_BOND_DEF_STEREO_COUNT>
0

> <PUBCHEM_BOND_UDEF_STEREO_COUNT>
0

> <PUBCHEM_ISOTOPIC_ATOM_COUNT>
0

> <PUBCHEM_COMPONENT_COUNT>
3

> <PUBCHEM_CACTVS_TAUTO_COUNT>
1

> <PUBCHEM_NONSTANDARDBOND>
1  3  6
2  3  6

> <PUBCHEM_COORDINATE_TYPE>
1
5
255

> <PUBCHEM_BONDANNOTATIONS>
1  3  4
2  3  4

$$$$

