7846971
  -OEChem-06241222482D

 37 38  0     1  0  0  0  0  0999 V2000
    4.6783    2.4698    0.0000 S   0  0  0  0  0  0  0  0  0  0  0  0
    8.2619   -0.0670    0.0000 O   0  0  0  0  0  0  0  0  0  0  0  0
    8.2619    1.6651    0.0000 O   0  0  0  0  0  0  0  0  0  0  0  0
    9.2619   -1.7990    0.0000 O   0  0  0  0  0  0  0  0  0  0  0  0
   10.7619   -2.6651    0.0000 O   0  0  0  0  0  0  0  0  0  0  0  0
    4.6783    0.8603    0.0000 N   0  0  0  0  0  0  0  0  0  0  0  0
   10.7619   -0.9330    0.0000 N   0  0  0  0  0  0  0  0  0  0  0  0
   12.2619   -1.7990    0.0000 N   0  0  0  0  0  0  0  0  0  0  0  0
    6.2619    1.6651    0.0000 C   0  0  0  0  0  0  0  0  0  0  0  0
    6.7619    0.7990    0.0000 C   0  0  0  0  0  0  0  0  0  0  0  0
    5.2619    1.6651    0.0000 C   0  0  0  0  0  0  0  0  0  0  0  0
    9.2619   -0.0670    0.0000 C   0  0  2  0  0  0  0  0  0  0  0  0
    3.7320    2.1651    0.0000 C   0  0  0  0  0  0  0  0  0  0  0  0
    3.7320    1.1651    0.0000 C   0  0  0  0  0  0  0  0  0  0  0  0
    7.7619    0.7990    0.0000 C   0  0  0  0  0  0  0  0  0  0  0  0
    9.7619    0.7990    0.0000 C   0  0  0  0  0  0  0  0  0  0  0  0
    2.8660    2.6651    0.0000 C   0  0  0  0  0  0  0  0  0  0  0  0
    2.8660    0.6651    0.0000 C   0  0  0  0  0  0  0  0  0  0  0  0
    9.7619   -0.9330    0.0000 C   0  0  0  0  0  0  0  0  0  0  0  0
    2.0000    2.1651    0.0000 C   0  0  0  0  0  0  0  0  0  0  0  0
    2.0000    1.1651    0.0000 C   0  0  0  0  0  0  0  0  0  0  0  0
   11.2619   -1.7990    0.0000 C   0  0  0  0  0  0  0  0  0  0  0  0
    6.8445    1.8771    0.0000 H   0  0  0  0  0  0  0  0  0  0  0  0
    6.1542    2.2756    0.0000 H   0  0  0  0  0  0  0  0  0  0  0  0
    6.1793    0.5870    0.0000 H   0  0  0  0  0  0  0  0  0  0  0  0
    6.8695    0.1885    0.0000 H   0  0  0  0  0  0  0  0  0  0  0  0
    8.9519    0.4699    0.0000 H   0  0  0  0  0  0  0  0  0  0  0  0
   10.2988    0.4890    0.0000 H   0  0  0  0  0  0  0  0  0  0  0  0
   10.0719    1.3360    0.0000 H   0  0  0  0  0  0  0  0  0  0  0  0
    9.2249    1.1090    0.0000 H   0  0  0  0  0  0  0  0  0  0  0  0
    2.8660    3.2851    0.0000 H   0  0  0  0  0  0  0  0  0  0  0  0
    2.8660    0.0451    0.0000 H   0  0  0  0  0  0  0  0  0  0  0  0
    1.4631    2.4751    0.0000 H   0  0  0  0  0  0  0  0  0  0  0  0
    1.4631    0.8551    0.0000 H   0  0  0  0  0  0  0  0  0  0  0  0
   11.0719   -0.3961    0.0000 H   0  0  0  0  0  0  0  0  0  0  0  0
   12.5719   -2.3360    0.0000 H   0  0  0  0  0  0  0  0  0  0  0  0
   12.5719   -1.2621    0.0000 H   0  0  0  0  0  0  0  0  0  0  0  0
  1 11  1  0  0  0  0
  1 13  1  0  0  0  0
 12  2  1  6  0  0  0
  2 15  1  0  0  0  0
  3 15  2  0  0  0  0
  4 19  2  0  0  0  0
  5 22  2  0  0  0  0
  6 11  2  0  0  0  0
  6 14  1  0  0  0  0
  7 19  1  0  0  0  0
  7 22  1  0  0  0  0
  7 35  1  0  0  0  0
  8 22  1  0  0  0  0
  8 36  1  0  0  0  0
  8 37  1  0  0  0  0
  9 10  1  0  0  0  0
  9 11  1  0  0  0  0
  9 23  1  0  0  0  0
  9 24  1  0  0  0  0
 10 15  1  0  0  0  0
 10 25  1  0  0  0  0
 10 26  1  0  0  0  0
 12 16  1  0  0  0  0
 12 19  1  0  0  0  0
 12 27  1  0  0  0  0
 13 14  1  0  0  0  0
 13 17  2  0  0  0  0
 14 18  2  0  0  0  0
 16 28  1  0  0  0  0
 16 29  1  0  0  0  0
 16 30  1  0  0  0  0
 17 20  1  0  0  0  0
 17 31  1  0  0  0  0
 18 21  1  0  0  0  0
 18 32  1  0  0  0  0
 20 21  2  0  0  0  0
 20 33  1  0  0  0  0
 21 34  1  0  0  0  0
M  END
> <PUBCHEM_COMPOUND_CID>
7846971

> <PUBCHEM_COMPOUND_CANONICALIZED>
1

> <PUBCHEM_CACTVS_COMPLEXITY>
446

> <PUBCHEM_CACTVS_HBOND_ACCEPTOR>
6

> <PUBCHEM_CACTVS_HBOND_DONOR>
2

> <PUBCHEM_CACTVS_ROTATABLE_BOND>
6

> <PUBCHEM_CACTVS_SUBSKEYS>
AAADccBzOABAAAAAAAAAAAAAAAAAAWAAAAAwAAAAAAAAAFgB8AAAHgQQAAAACByh1gIzybLIFAisASXyXAKD8KBhCjhImD1wZJiKILLgkZWHIAhklSL4yAc0AAAAAAAAAAAAAQAAAAAAAAACAAAAAAAAAA==

> <PUBCHEM_IUPAC_OPENEYE_NAME>
[(1R)-1-methyl-2-oxo-2-ureido-ethyl] 3-(1,3-benzothiazol-2-yl)propanoate

> <PUBCHEM_IUPAC_CAS_NAME>
3-(1,3-benzothiazol-2-yl)propanoic acid [(2R)-1-(carbamoylamino)-1-oxopropan-2-yl] ester

> <PUBCHEM_IUPAC_NAME>
[(2R)-1-(carbamoylamino)-1-oxopropan-2-yl] 3-(1,3-benzothiazol-2-yl)propanoate

> <PUBCHEM_IUPAC_SYSTEMATIC_NAME>
[(2R)-1-(aminocarbonylamino)-1-oxidanylidene-propan-2-yl] 3-(1,3-benzothiazol-2-yl)propanoate

> <PUBCHEM_IUPAC_TRADITIONAL_NAME>
3-(1,3-benzothiazol-2-yl)propionic acid [(1R)-2-keto-1-methyl-2-ureido-ethyl] ester

> <PUBCHEM_IUPAC_INCHI>
InChI=1S/C14H15N3O4S/c1-8(13(19)17-14(15)20)21-12(18)7-6-11-16-9-4-2-3-5-10(9)22-11/h2-5,8H,6-7H2,1H3,(H3,15,17,19,20)/t8-/m1/s1

> <PUBCHEM_IUPAC_INCHIKEY>
LZSXJPLLOQREDL-MRVPVSSYSA-N

> <PUBCHEM_XLOGP3_AA>
2

> <PUBCHEM_EXACT_MASS>
321.078327

> <PUBCHEM_MOLECULAR_FORMULA>
C14H15N3O4S

> <PUBCHEM_MOLECULAR_WEIGHT>
321.3516

> <PUBCHEM_OPENEYE_CAN_SMILES>
CC(C(=O)NC(=O)N)OC(=O)CCC1=NC2=CC=CC=C2S1

> <PUBCHEM_OPENEYE_ISO_SMILES>
C[C@H](C(=O)NC(=O)N)OC(=O)CCC1=NC2=CC=CC=C2S1

> <PUBCHEM_CACTVS_TPSA>
140

> <PUBCHEM_MONOISOTOPIC_WEIGHT>
321.078327

> <PUBCHEM_TOTAL_CHARGE>
0

> <PUBCHEM_HEAVY_ATOM_COUNT>
22

> <PUBCHEM_ATOM_DEF_STEREO_COUNT>
1

> <PUBCHEM_ATOM_UDEF_STEREO_COUNT>
0

> <PUBCHEM_BOND_DEF_STEREO_COUNT>
0

> <PUBCHEM_BOND_UDEF_STEREO_COUNT>
0

> <PUBCHEM_ISOTOPIC_ATOM_COUNT>
0

> <PUBCHEM_COMPONENT_COUNT>
1

> <PUBCHEM_CACTVS_TAUTO_COUNT>
10

> <PUBCHEM_COORDINATE_TYPE>
1
5
255

> <PUBCHEM_BONDANNOTATIONS>
1  11  8
1  13  8
13  14  8
13  17  8
14  18  8
17  20  8
18  21  8
12  2  6
20  21  8
6  11  8
6  14  8

$$$$

