11819
  -OEChem-06261206092D

 19 20  0     0  0  0  0  0  0999 V2000
    2.0000   -0.3623    0.0000 Cl  0  0  0  0  0  0  0  0  0  0  0  0
    3.7320   -1.3623    0.0000 O   0  0  0  0  0  0  0  0  0  0  0  0
    4.5981    0.1377    0.0000 C   0  0  0  0  0  0  0  0  0  0  0  0
    4.5981    1.1377    0.0000 C   0  0  0  0  0  0  0  0  0  0  0  0
    3.7320   -0.3623    0.0000 C   0  0  0  0  0  0  0  0  0  0  0  0
    3.7320    1.6377    0.0000 C   0  0  0  0  0  0  0  0  0  0  0  0
    5.4920   -0.3970    0.0000 C   0  0  0  0  0  0  0  0  0  0  0  0
    5.4920    1.6723    0.0000 C   0  0  0  0  0  0  0  0  0  0  0  0
    2.8660    0.1377    0.0000 C   0  0  0  0  0  0  0  0  0  0  0  0
    2.8660    1.1377    0.0000 C   0  0  0  0  0  0  0  0  0  0  0  0
    6.3981    0.1169    0.0000 C   0  0  0  0  0  0  0  0  0  0  0  0
    6.3981    1.1585    0.0000 C   0  0  0  0  0  0  0  0  0  0  0  0
    3.7320    2.2577    0.0000 H   0  0  0  0  0  0  0  0  0  0  0  0
    5.4848   -1.0170    0.0000 H   0  0  0  0  0  0  0  0  0  0  0  0
    5.4848    2.2923    0.0000 H   0  0  0  0  0  0  0  0  0  0  0  0
    2.3291    1.4477    0.0000 H   0  0  0  0  0  0  0  0  0  0  0  0
    6.9338   -0.1952    0.0000 H   0  0  0  0  0  0  0  0  0  0  0  0
    6.9338    1.4706    0.0000 H   0  0  0  0  0  0  0  0  0  0  0  0
    3.1951   -1.6723    0.0000 H   0  0  0  0  0  0  0  0  0  0  0  0
  1  9  1  0  0  0  0
  2  5  1  0  0  0  0
  2 19  1  0  0  0  0
  3  4  1  0  0  0  0
  3  5  1  0  0  0  0
  3  7  2  0  0  0  0
  4  6  1  0  0  0  0
  4  8  2  0  0  0  0
  5  9  2  0  0  0  0
  6 10  2  0  0  0  0
  6 13  1  0  0  0  0
  7 11  1  0  0  0  0
  7 14  1  0  0  0  0
  8 12  1  0  0  0  0
  8 15  1  0  0  0  0
  9 10  1  0  0  0  0
 10 16  1  0  0  0  0
 11 12  2  0  0  0  0
 11 17  1  0  0  0  0
 12 18  1  0  0  0  0
M  END
> <PUBCHEM_COMPOUND_CID>
11819

> <PUBCHEM_COMPOUND_CANONICALIZED>
1

> <PUBCHEM_CACTVS_COMPLEXITY>
160

> <PUBCHEM_CACTVS_HBOND_ACCEPTOR>
1

> <PUBCHEM_CACTVS_HBOND_DONOR>
1

> <PUBCHEM_CACTVS_ROTATABLE_BOND>
0

> <PUBCHEM_CACTVS_SUBSKEYS>
AAADcYBwIAAEAAAAAAAAAAAAAAAAAAAAAAAwYAAAAAAAAADBUAAAGgIACAAADAaAmCAwBsAAAgCAAiBCAAACAAAgJUAIiAAEC4gIJiKDExKAcAAkwBEImAeAwLAOhAABIAAYCAAIAAJAADAQAAAAAAAAAA==

> <PUBCHEM_IUPAC_OPENEYE_NAME>
2-chloronaphthalen-1-ol

> <PUBCHEM_IUPAC_CAS_NAME>
2-chloro-1-naphthalenol

> <PUBCHEM_IUPAC_NAME>
2-chloronaphthalen-1-ol

> <PUBCHEM_IUPAC_SYSTEMATIC_NAME>
2-chloranylnaphthalen-1-ol

> <PUBCHEM_IUPAC_TRADITIONAL_NAME>
2-chloro-1-naphthol

> <PUBCHEM_IUPAC_INCHI>
InChI=1S/C10H7ClO/c11-9-6-5-7-3-1-2-4-8(7)10(9)12/h1-6,12H

> <PUBCHEM_IUPAC_INCHIKEY>
WONRDHPFOHAWOG-UHFFFAOYSA-N

> <PUBCHEM_XLOGP3>
3.2

> <PUBCHEM_EXACT_MASS>
178.018543

> <PUBCHEM_MOLECULAR_FORMULA>
C10H7ClO

> <PUBCHEM_MOLECULAR_WEIGHT>
178.61498

> <PUBCHEM_OPENEYE_CAN_SMILES>
C1=CC=C2C(=C1)C=CC(=C2O)Cl

> <PUBCHEM_OPENEYE_ISO_SMILES>
C1=CC=C2C(=C1)C=CC(=C2O)Cl

> <PUBCHEM_CACTVS_TPSA>
20.2

> <PUBCHEM_MONOISOTOPIC_WEIGHT>
178.018543

> <PUBCHEM_TOTAL_CHARGE>
0

> <PUBCHEM_HEAVY_ATOM_COUNT>
12

> <PUBCHEM_ATOM_DEF_STEREO_COUNT>
0

> <PUBCHEM_ATOM_UDEF_STEREO_COUNT>
0

> <PUBCHEM_BOND_DEF_STEREO_COUNT>
0

> <PUBCHEM_BOND_UDEF_STEREO_COUNT>
0

> <PUBCHEM_ISOTOPIC_ATOM_COUNT>
0

> <PUBCHEM_COMPONENT_COUNT>
1

> <PUBCHEM_CACTVS_TAUTO_COUNT>
2

> <PUBCHEM_COORDINATE_TYPE>
1
5
255

> <PUBCHEM_BONDANNOTATIONS>
11  12  8
3  4  8
3  5  8
3  7  8
4  6  8
4  8  8
5  9  8
6  10  8
7  11  8
8  12  8
9  10  8

$$$$

