6433
  -OEChem-06261201192D

 32 31  0     0  0  0  0  0  0999 V2000
    4.5981    0.5670    0.0000 S   0  0  0  0  0  0  0  0  0  0  0  0
    2.8660   -0.4330    0.0000 S   0  0  0  0  0  0  0  0  0  0  0  0
    2.3660    0.4330    0.0000 O   0  0  0  0  0  0  0  0  0  0  0  0
    3.3660   -1.2990    0.0000 O   0  0  0  0  0  0  0  0  0  0  0  0
    4.5981    1.5670    0.0000 O   0  0  0  0  0  0  0  0  0  0  0  0
    5.0981   -0.2990    0.0000 O   0  0  0  0  0  0  0  0  0  0  0  0
    3.7320    0.0670    0.0000 C   0  0  0  0  0  0  0  0  0  0  0  0
    3.2320    0.9330    0.0000 C   0  0  0  0  0  0  0  0  0  0  0  0
    4.2320   -0.7990    0.0000 C   0  0  0  0  0  0  0  0  0  0  0  0
    2.0000   -0.9330    0.0000 C   0  0  0  0  0  0  0  0  0  0  0  0
    5.4641    1.0670    0.0000 C   0  0  0  0  0  0  0  0  0  0  0  0
    3.2320    1.9330    0.0000 C   0  0  0  0  0  0  0  0  0  0  0  0
    6.3301    0.5670    0.0000 C   0  0  0  0  0  0  0  0  0  0  0  0
    2.0000   -1.9330    0.0000 C   0  0  0  0  0  0  0  0  0  0  0  0
    2.6494    1.1451    0.0000 H   0  0  0  0  0  0  0  0  0  0  0  0
    3.8309    1.0935    0.0000 H   0  0  0  0  0  0  0  0  0  0  0  0
    3.6951   -1.1090    0.0000 H   0  0  0  0  0  0  0  0  0  0  0  0
    4.5420   -1.3360    0.0000 H   0  0  0  0  0  0  0  0  0  0  0  0
    4.7690   -0.4890    0.0000 H   0  0  0  0  0  0  0  0  0  0  0  0
    1.7880   -0.3504    0.0000 H   0  0  0  0  0  0  0  0  0  0  0  0
    1.3894   -1.0407    0.0000 H   0  0  0  0  0  0  0  0  0  0  0  0
    5.8626    1.5419    0.0000 H   0  0  0  0  0  0  0  0  0  0  0  0
    5.0656    1.5419    0.0000 H   0  0  0  0  0  0  0  0  0  0  0  0
    3.8520    1.9330    0.0000 H   0  0  0  0  0  0  0  0  0  0  0  0
    3.2320    2.5530    0.0000 H   0  0  0  0  0  0  0  0  0  0  0  0
    2.6120    1.9330    0.0000 H   0  0  0  0  0  0  0  0  0  0  0  0
    6.0201    0.0301    0.0000 H   0  0  0  0  0  0  0  0  0  0  0  0
    6.8671    0.2570    0.0000 H   0  0  0  0  0  0  0  0  0  0  0  0
    6.6401    1.1039    0.0000 H   0  0  0  0  0  0  0  0  0  0  0  0
    1.3800   -1.9330    0.0000 H   0  0  0  0  0  0  0  0  0  0  0  0
    2.0000   -2.5530    0.0000 H   0  0  0  0  0  0  0  0  0  0  0  0
    2.6200   -1.9330    0.0000 H   0  0  0  0  0  0  0  0  0  0  0  0
  1  5  2  0  0  0  0
  1  6  2  0  0  0  0
  1  7  1  0  0  0  0
  1 11  1  0  0  0  0
  2  3  2  0  0  0  0
  2  4  2  0  0  0  0
  2  7  1  0  0  0  0
  2 10  1  0  0  0  0
  7  8  1  0  0  0  0
  7  9  1  0  0  0  0
  8 12  1  0  0  0  0
  8 15  1  0  0  0  0
  8 16  1  0  0  0  0
  9 17  1  0  0  0  0
  9 18  1  0  0  0  0
  9 19  1  0  0  0  0
 10 14  1  0  0  0  0
 10 20  1  0  0  0  0
 10 21  1  0  0  0  0
 11 13  1  0  0  0  0
 11 22  1  0  0  0  0
 11 23  1  0  0  0  0
 12 24  1  0  0  0  0
 12 25  1  0  0  0  0
 12 26  1  0  0  0  0
 13 27  1  0  0  0  0
 13 28  1  0  0  0  0
 13 29  1  0  0  0  0
 14 30  1  0  0  0  0
 14 31  1  0  0  0  0
 14 32  1  0  0  0  0
M  END
> <PUBCHEM_COMPOUND_CID>
6433

> <PUBCHEM_COMPOUND_CANONICALIZED>
1

> <PUBCHEM_CACTVS_COMPLEXITY>
333

> <PUBCHEM_CACTVS_HBOND_ACCEPTOR>
4

> <PUBCHEM_CACTVS_HBOND_DONOR>
0

> <PUBCHEM_CACTVS_ROTATABLE_BOND>
5

> <PUBCHEM_CACTVS_SUBSKEYS>
AAADceBwOABgAAAAAAAAAAAAAAAAAAAAAAAAAAAAAAAAAAAAAAAAGAQAAAAACACEQACCAAAAAAoAAAAAAHBAAQAAABAAAAAAAAAAAAAgAAAAAAAAAAAgAAAAAAAAAAAAAAAAAAAAAAAAAAAAAAAAAAAAAA==

> <PUBCHEM_IUPAC_OPENEYE_NAME>
2,2-bis(ethylsulfonyl)butane

> <PUBCHEM_IUPAC_CAS_NAME>
2,2-bis(ethylsulfonyl)butane

> <PUBCHEM_IUPAC_NAME>
2,2-bis(ethylsulfonyl)butane

> <PUBCHEM_IUPAC_SYSTEMATIC_NAME>
2,2-bis(ethylsulfonyl)butane

> <PUBCHEM_IUPAC_TRADITIONAL_NAME>
2,2-diesylbutane

> <PUBCHEM_IUPAC_INCHI>
InChI=1S/C8H18O4S2/c1-5-8(4,13(9,10)6-2)14(11,12)7-3/h5-7H2,1-4H3

> <PUBCHEM_IUPAC_INCHIKEY>
LKACJLUUJRMGFK-UHFFFAOYSA-N

> <PUBCHEM_XLOGP3_AA>
1

> <PUBCHEM_EXACT_MASS>
242.064651

> <PUBCHEM_MOLECULAR_FORMULA>
C8H18O4S2

> <PUBCHEM_MOLECULAR_WEIGHT>
242.35612

> <PUBCHEM_OPENEYE_CAN_SMILES>
CCC(C)(S(=O)(=O)CC)S(=O)(=O)CC

> <PUBCHEM_OPENEYE_ISO_SMILES>
CCC(C)(S(=O)(=O)CC)S(=O)(=O)CC

> <PUBCHEM_CACTVS_TPSA>
85

> <PUBCHEM_MONOISOTOPIC_WEIGHT>
242.064651

> <PUBCHEM_TOTAL_CHARGE>
0

> <PUBCHEM_HEAVY_ATOM_COUNT>
14

> <PUBCHEM_ATOM_DEF_STEREO_COUNT>
0

> <PUBCHEM_ATOM_UDEF_STEREO_COUNT>
0

> <PUBCHEM_BOND_DEF_STEREO_COUNT>
0

> <PUBCHEM_BOND_UDEF_STEREO_COUNT>
0

> <PUBCHEM_ISOTOPIC_ATOM_COUNT>
0

> <PUBCHEM_COMPONENT_COUNT>
1

> <PUBCHEM_CACTVS_TAUTO_COUNT>
1

> <PUBCHEM_COORDINATE_TYPE>
1
5
255

$$$$

