13059
  -OEChem-06261207422D

 29 29  0     1  0  0  0  0  0999 V2000
    2.6171    0.0000    0.0000 Cl  0  5  0  0  0  0  0  0  0  0  0  0
    0.0000    5.1161    0.0000 F   0  0  0  0  0  0  0  0  0  0  0  0
    3.5443    3.3113    0.0000 N   0  0  0  0  0  0  0  0  0  0  0  0
    5.1441    7.0280    0.0000 N   0  3  0  0  0  0  0  0  0  0  0  0
    3.8550    5.8713    0.0000 C   0  0  3  0  0  0  0  0  0  0  0  0
    3.5443    4.9208    0.0000 C   0  0  0  0  0  0  0  0  0  0  0  0
    4.8335    6.0775    0.0000 C   0  0  0  0  0  0  0  0  0  0  0  0
    2.5981    4.6161    0.0000 C   0  0  0  0  0  0  0  0  0  0  0  0
    2.5981    3.6160    0.0000 C   0  0  0  0  0  0  0  0  0  0  0  0
    3.1871    6.6156    0.0000 C   0  0  0  0  0  0  0  0  0  0  0  0
    4.1279    4.1161    0.0000 C   0  0  0  0  0  0  0  0  0  0  0  0
    1.7320    5.1161    0.0000 C   0  0  0  0  0  0  0  0  0  0  0  0
    1.7320    3.1160    0.0000 C   0  0  0  0  0  0  0  0  0  0  0  0
    0.8660    4.6161    0.0000 C   0  0  0  0  0  0  0  0  0  0  0  0
    0.8660    3.6160    0.0000 C   0  0  0  0  0  0  0  0  0  0  0  0
    4.0476    6.4606    0.0000 H   0  0  0  0  0  0  0  0  0  0  0  0
    4.8540    5.4579    0.0000 H   0  0  0  0  0  0  0  0  0  0  0  0
    5.4473    5.9902    0.0000 H   0  0  0  0  0  0  0  0  0  0  0  0
    3.6486    7.0297    0.0000 H   0  0  0  0  0  0  0  0  0  0  0  0
    2.7730    7.0771    0.0000 H   0  0  0  0  0  0  0  0  0  0  0  0
    2.7256    6.2015    0.0000 H   0  0  0  0  0  0  0  0  0  0  0  0
    4.7479    4.1161    0.0000 H   0  0  0  0  0  0  0  0  0  0  0  0
    3.7369    2.7220    0.0000 H   0  0  0  0  0  0  0  0  0  0  0  0
    5.3367    7.6174    0.0000 H   0  0  0  0  0  0  0  0  0  0  0  0
    5.7335    6.8354    0.0000 H   0  0  0  0  0  0  0  0  0  0  0  0
    4.5548    7.2207    0.0000 H   0  0  0  0  0  0  0  0  0  0  0  0
    1.7320    5.7360    0.0000 H   0  0  0  0  0  0  0  0  0  0  0  0
    1.7320    2.4960    0.0000 H   0  0  0  0  0  0  0  0  0  0  0  0
    0.3291    3.3060    0.0000 H   0  0  0  0  0  0  0  0  0  0  0  0
  2 14  1  0  0  0  0
  3  9  1  0  0  0  0
  3 11  1  0  0  0  0
  3 23  1  0  0  0  0
  4  7  1  0  0  0  0
  4 24  1  0  0  0  0
  4 25  1  0  0  0  0
  4 26  1  0  0  0  0
  5  6  1  0  0  0  0
  5  7  1  0  0  0  0
  5 10  1  0  0  0  0
  5 16  1  0  0  0  0
  6  8  1  0  0  0  0
  6 11  2  0  0  0  0
  7 17  1  0  0  0  0
  7 18  1  0  0  0  0
  8  9  2  0  0  0  0
  8 12  1  0  0  0  0
  9 13  1  0  0  0  0
 10 19  1  0  0  0  0
 10 20  1  0  0  0  0
 10 21  1  0  0  0  0
 11 22  1  0  0  0  0
 12 14  2  0  0  0  0
 12 27  1  0  0  0  0
 13 15  2  0  0  0  0
 13 28  1  0  0  0  0
 14 15  1  0  0  0  0
 15 29  1  0  0  0  0
M  CHG  2   1  -1   4   1
M  END
> <PUBCHEM_COMPOUND_CID>
13059

> <PUBCHEM_COMPOUND_CANONICALIZED>
1

> <PUBCHEM_CACTVS_COMPLEXITY>
198

> <PUBCHEM_CACTVS_HBOND_ACCEPTOR>
2

> <PUBCHEM_CACTVS_HBOND_DONOR>
2

> <PUBCHEM_CACTVS_ROTATABLE_BOND>
2

> <PUBCHEM_CACTVS_SUBSKEYS>
AAADccBzAQAEAAAAAAAAAAAAAAAAAWAAAAAwAAAAAAAAAFgB8AAAHQAQAAAADQjBHgw+wPLJkACgAzRnRACCgCAxAiAI2aA4ZJgIIOLAkZGEIAhgkADIyAcQgMAOgAAAAAACAAAAAAAAAAQAAAAAAAAAAA==

> <PUBCHEM_IUPAC_OPENEYE_NAME>
2-(5-fluoro-1H-indol-3-yl)propylammonium chloride

> <PUBCHEM_IUPAC_CAS_NAME>
2-(5-fluoro-1H-indol-3-yl)propylammonium chloride

> <PUBCHEM_IUPAC_NAME>
2-(5-fluoro-1H-indol-3-yl)propylazanium chloride

> <PUBCHEM_IUPAC_SYSTEMATIC_NAME>
2-(5-fluoranyl-1H-indol-3-yl)propylazanium chloride

> <PUBCHEM_IUPAC_TRADITIONAL_NAME>
2-(5-fluoro-1H-indol-3-yl)propylammonium chloride

> <PUBCHEM_IUPAC_INCHI>
InChI=1S/C11H13FN2.ClH/c1-7(5-13)10-6-14-11-3-2-8(12)4-9(10)11;/h2-4,6-7,14H,5,13H2,1H3;1H

> <PUBCHEM_IUPAC_INCHIKEY>
YVTRUTNFUZFJSK-UHFFFAOYSA-N

> <PUBCHEM_EXACT_MASS>
228.082954

> <PUBCHEM_MOLECULAR_FORMULA>
C11H14ClFN2

> <PUBCHEM_MOLECULAR_WEIGHT>
228.693663

> <PUBCHEM_OPENEYE_CAN_SMILES>
CC(C[NH3+])C1=CNC2=C1C=C(C=C2)F.[Cl-]

> <PUBCHEM_OPENEYE_ISO_SMILES>
CC(C[NH3+])C1=CNC2=C1C=C(C=C2)F.[Cl-]

> <PUBCHEM_CACTVS_TPSA>
43.4

> <PUBCHEM_MONOISOTOPIC_WEIGHT>
228.082954

> <PUBCHEM_TOTAL_CHARGE>
0

> <PUBCHEM_HEAVY_ATOM_COUNT>
15

> <PUBCHEM_ATOM_DEF_STEREO_COUNT>
0

> <PUBCHEM_ATOM_UDEF_STEREO_COUNT>
1

> <PUBCHEM_BOND_DEF_STEREO_COUNT>
0

> <PUBCHEM_BOND_UDEF_STEREO_COUNT>
0

> <PUBCHEM_ISOTOPIC_ATOM_COUNT>
0

> <PUBCHEM_COMPONENT_COUNT>
2

> <PUBCHEM_CACTVS_TAUTO_COUNT>
1

> <PUBCHEM_COORDINATE_TYPE>
1
5
255

> <PUBCHEM_BONDANNOTATIONS>
12  14  8
13  15  8
14  15  8
3  11  8
3  9  8
5  10  3
6  11  8
6  8  8
8  12  8
8  9  8
9  13  8

$$$$

