12024
  -OEChem-06261206242D

 12 12  0     0  0  0  0  0  0999 V2000
    2.8090   -1.1739    0.0000 S   0  0  0  0  0  0  0  0  0  0  0  0
    3.3090    0.3649    0.0000 C   0  0  0  0  0  0  0  0  0  0  0  0
    2.3090    0.3649    0.0000 C   0  0  0  0  0  0  0  0  0  0  0  0
    3.8968    1.1739    0.0000 C   0  0  0  0  0  0  0  0  0  0  0  0
    3.6180   -0.5861    0.0000 C   0  0  0  0  0  0  0  0  0  0  0  0
    2.0000   -0.5861    0.0000 C   0  0  0  0  0  0  0  0  0  0  0  0
    1.9446    0.8665    0.0000 H   0  0  0  0  0  0  0  0  0  0  0  0
    4.3984    0.8095    0.0000 H   0  0  0  0  0  0  0  0  0  0  0  0
    4.2612    1.6755    0.0000 H   0  0  0  0  0  0  0  0  0  0  0  0
    3.3952    1.5384    0.0000 H   0  0  0  0  0  0  0  0  0  0  0  0
    4.2077   -0.7777    0.0000 H   0  0  0  0  0  0  0  0  0  0  0  0
    1.4103   -0.7777    0.0000 H   0  0  0  0  0  0  0  0  0  0  0  0
  1  5  1  0  0  0  0
  1  6  1  0  0  0  0
  2  3  1  0  0  0  0
  2  4  1  0  0  0  0
  2  5  2  0  0  0  0
  3  6  2  0  0  0  0
  3  7  1  0  0  0  0
  4  8  1  0  0  0  0
  4  9  1  0  0  0  0
  4 10  1  0  0  0  0
  5 11  1  0  0  0  0
  6 12  1  0  0  0  0
M  END
> <PUBCHEM_COMPOUND_CID>
12024

> <PUBCHEM_COMPOUND_CANONICALIZED>
1

> <PUBCHEM_CACTVS_COMPLEXITY>
43.2

> <PUBCHEM_CACTVS_HBOND_ACCEPTOR>
1

> <PUBCHEM_CACTVS_HBOND_DONOR>
0

> <PUBCHEM_CACTVS_ROTATABLE_BOND>
0

> <PUBCHEM_CACTVS_SUBSKEYS>
AAADcYBgAABAAAAAAAAAAAAAAAAAASAAAAAAAAAAAAAAAAABgAAAGAQAAAAADACEWACyAYAAAAiEAiBCAAADAIAgCBBIiBgAAIgIIAAgAQAAAAAAAAAgAAAAAAAIAAAAAAAAAAAAAAAAAAAAAAAAAAAAAA==

> <PUBCHEM_IUPAC_OPENEYE_NAME>
3-methylthiophene

> <PUBCHEM_IUPAC_CAS_NAME>
3-methylthiophene

> <PUBCHEM_IUPAC_NAME>
3-methylthiophene

> <PUBCHEM_IUPAC_SYSTEMATIC_NAME>
3-methylthiophene

> <PUBCHEM_IUPAC_TRADITIONAL_NAME>
3-methylthiophene

> <PUBCHEM_IUPAC_INCHI>
InChI=1S/C5H6S/c1-5-2-3-6-4-5/h2-4H,1H3

> <PUBCHEM_IUPAC_INCHIKEY>
QENGPZGAWFQWCZ-UHFFFAOYSA-N

> <PUBCHEM_XLOGP3>
2.3

> <PUBCHEM_EXACT_MASS>
98.019021

> <PUBCHEM_MOLECULAR_FORMULA>
C5H6S

> <PUBCHEM_MOLECULAR_WEIGHT>
98.16614

> <PUBCHEM_OPENEYE_CAN_SMILES>
CC1=CSC=C1

> <PUBCHEM_OPENEYE_ISO_SMILES>
CC1=CSC=C1

> <PUBCHEM_CACTVS_TPSA>
28.2

> <PUBCHEM_MONOISOTOPIC_WEIGHT>
98.019021

> <PUBCHEM_TOTAL_CHARGE>
0

> <PUBCHEM_HEAVY_ATOM_COUNT>
6

> <PUBCHEM_ATOM_DEF_STEREO_COUNT>
0

> <PUBCHEM_ATOM_UDEF_STEREO_COUNT>
0

> <PUBCHEM_BOND_DEF_STEREO_COUNT>
0

> <PUBCHEM_BOND_UDEF_STEREO_COUNT>
0

> <PUBCHEM_ISOTOPIC_ATOM_COUNT>
0

> <PUBCHEM_COMPONENT_COUNT>
1

> <PUBCHEM_CACTVS_TAUTO_COUNT>
1

> <PUBCHEM_COORDINATE_TYPE>
1
5
255

> <PUBCHEM_BONDANNOTATIONS>
1  5  8
1  6  8
2  3  8
2  5  8
3  6  8

$$$$

