11695
  -OEChem-06261206002D

 40 41  0     1  0  0  0  0  0999 V2000
    2.0000    0.2010    0.0000 O   0  0  0  0  0  0  0  0  0  0  0  0
    4.2320    1.0670    0.0000 N   0  0  0  0  0  0  0  0  0  0  0  0
    4.5981   -1.2990    0.0000 N   0  0  3  0  0  0  0  0  0  0  0  0
    3.7320    0.2010    0.0000 C   0  0  3  0  0  0  0  0  0  0  0  0
    4.5981   -0.2990    0.0000 C   0  0  0  0  0  0  0  0  0  0  0  0
    3.7320   -1.7990    0.0000 C   0  0  3  0  0  0  0  0  0  0  0  0
    2.8660   -0.2990    0.0000 C   0  0  0  0  0  0  0  0  0  0  0  0
    5.2320    1.0670    0.0000 C   0  0  0  0  0  0  0  0  0  0  0  0
    3.7320    1.9330    0.0000 C   0  0  0  0  0  0  0  0  0  0  0  0
    2.8660   -1.2990    0.0000 C   0  0  0  0  0  0  0  0  0  0  0  0
    3.2320    1.0670    0.0000 C   0  0  0  0  0  0  0  0  0  0  0  0
    4.2320    2.7990    0.0000 C   0  0  0  0  0  0  0  0  0  0  0  0
    5.7320    1.9330    0.0000 C   0  0  0  0  0  0  0  0  0  0  0  0
    5.2320    2.7990    0.0000 C   0  0  0  0  0  0  0  0  0  0  0  0
    3.7320   -2.7990    0.0000 C   0  0  0  0  0  0  0  0  0  0  0  0
    5.4641   -1.7990    0.0000 C   0  0  0  0  0  0  0  0  0  0  0  0
    5.2087   -0.4067    0.0000 H   0  0  0  0  0  0  0  0  0  0  0  0
    4.8101    0.2836    0.0000 H   0  0  0  0  0  0  0  0  0  0  0  0
    4.2690   -2.1090    0.0000 H   0  0  0  0  0  0  0  0  0  0  0  0
    5.1244    0.4564    0.0000 H   0  0  0  0  0  0  0  0  0  0  0  0
    3.2571    2.3315    0.0000 H   0  0  0  0  0  0  0  0  0  0  0  0
    3.2571    1.5345    0.0000 H   0  0  0  0  0  0  0  0  0  0  0  0
    5.8147    0.8549    0.0000 H   0  0  0  0  0  0  0  0  0  0  0  0
    2.2554   -1.1914    0.0000 H   0  0  0  0  0  0  0  0  0  0  0  0
    2.6540   -1.8816    0.0000 H   0  0  0  0  0  0  0  0  0  0  0  0
    3.7690    1.3770    0.0000 H   0  0  0  0  0  0  0  0  0  0  0  0
    2.9220    1.6039    0.0000 H   0  0  0  0  0  0  0  0  0  0  0  0
    2.6951    0.7570    0.0000 H   0  0  0  0  0  0  0  0  0  0  0  0
    6.2070    1.5345    0.0000 H   0  0  0  0  0  0  0  0  0  0  0  0
    6.2070    2.3315    0.0000 H   0  0  0  0  0  0  0  0  0  0  0  0
    4.3397    3.4096    0.0000 H   0  0  0  0  0  0  0  0  0  0  0  0
    3.6494    3.0111    0.0000 H   0  0  0  0  0  0  0  0  0  0  0  0
    5.8147    3.0111    0.0000 H   0  0  0  0  0  0  0  0  0  0  0  0
    5.1244    3.4096    0.0000 H   0  0  0  0  0  0  0  0  0  0  0  0
    3.1120   -2.7990    0.0000 H   0  0  0  0  0  0  0  0  0  0  0  0
    3.7320   -3.4190    0.0000 H   0  0  0  0  0  0  0  0  0  0  0  0
    4.3520   -2.7990    0.0000 H   0  0  0  0  0  0  0  0  0  0  0  0
    5.1541   -2.3360    0.0000 H   0  0  0  0  0  0  0  0  0  0  0  0
    6.0010   -2.1090    0.0000 H   0  0  0  0  0  0  0  0  0  0  0  0
    5.7741   -1.2621    0.0000 H   0  0  0  0  0  0  0  0  0  0  0  0
  1  7  2  0  0  0  0
  2  4  1  0  0  0  0
  2  8  1  0  0  0  0
  2  9  1  0  0  0  0
  3  5  1  0  0  0  0
  3  6  1  0  0  0  0
  3 16  1  0  0  0  0
  4  5  1  0  0  0  0
  4  7  1  0  0  0  0
  4 11  1  0  0  0  0
  5 17  1  0  0  0  0
  5 18  1  0  0  0  0
  6 10  1  0  0  0  0
  6 15  1  0  0  0  0
  6 19  1  0  0  0  0
  7 10  1  0  0  0  0
  8 13  1  0  0  0  0
  8 20  1  0  0  0  0
  8 23  1  0  0  0  0
  9 12  1  0  0  0  0
  9 21  1  0  0  0  0
  9 22  1  0  0  0  0
 10 24  1  0  0  0  0
 10 25  1  0  0  0  0
 11 26  1  0  0  0  0
 11 27  1  0  0  0  0
 11 28  1  0  0  0  0
 12 14  1  0  0  0  0
 12 31  1  0  0  0  0
 12 32  1  0  0  0  0
 13 14  1  0  0  0  0
 13 29  1  0  0  0  0
 13 30  1  0  0  0  0
 14 33  1  0  0  0  0
 14 34  1  0  0  0  0
 15 35  1  0  0  0  0
 15 36  1  0  0  0  0
 15 37  1  0  0  0  0
 16 38  1  0  0  0  0
 16 39  1  0  0  0  0
 16 40  1  0  0  0  0
M  END
> <PUBCHEM_COMPOUND_CID>
11695

> <PUBCHEM_COMPOUND_CANONICALIZED>
1

> <PUBCHEM_CACTVS_COMPLEXITY>
273

> <PUBCHEM_CACTVS_HBOND_ACCEPTOR>
3

> <PUBCHEM_CACTVS_HBOND_DONOR>
0

> <PUBCHEM_CACTVS_ROTATABLE_BOND>
1

> <PUBCHEM_CACTVS_SUBSKEYS>
AAADceBzIAAAAAAAAAAAAAAAAAAAAAAAAAAsWAAAAAAAAAAAAAAAHgAAAAAADKzBgAQCAAMAAAAIAIAQAAAAAAAAAAAAAAGIAAAAQBoAgCAUAAAAAACAAAEQAAAMAAAAAAAAAAAAAAAAAAAAAAAAAAAAAA==

> <PUBCHEM_IUPAC_OPENEYE_NAME>
1,2,5-trimethyl-5-(1-piperidyl)piperidin-4-one

> <PUBCHEM_IUPAC_CAS_NAME>
1,2,5-trimethyl-5-(1-piperidinyl)-4-piperidinone

> <PUBCHEM_IUPAC_NAME>
1,2,5-trimethyl-5-piperidin-1-ylpiperidin-4-one

> <PUBCHEM_IUPAC_SYSTEMATIC_NAME>
1,2,5-trimethyl-5-piperidin-1-yl-piperidin-4-one

> <PUBCHEM_IUPAC_TRADITIONAL_NAME>
1,2,5-trimethyl-5-piperidino-4-piperidone

> <PUBCHEM_IUPAC_INCHI>
InChI=1S/C13H24N2O/c1-11-9-12(16)13(2,10-14(11)3)15-7-5-4-6-8-15/h11H,4-10H2,1-3H3

> <PUBCHEM_IUPAC_INCHIKEY>
HOMBADDIMIXHTI-UHFFFAOYSA-N

> <PUBCHEM_XLOGP3_AA>
1.4

> <PUBCHEM_EXACT_MASS>
224.188863

> <PUBCHEM_MOLECULAR_FORMULA>
C13H24N2O

> <PUBCHEM_MOLECULAR_WEIGHT>
224.34246

> <PUBCHEM_OPENEYE_CAN_SMILES>
CC1CC(=O)C(CN1C)(C)N2CCCCC2

> <PUBCHEM_OPENEYE_ISO_SMILES>
CC1CC(=O)C(CN1C)(C)N2CCCCC2

> <PUBCHEM_CACTVS_TPSA>
23.6

> <PUBCHEM_MONOISOTOPIC_WEIGHT>
224.188863

> <PUBCHEM_TOTAL_CHARGE>
0

> <PUBCHEM_HEAVY_ATOM_COUNT>
16

> <PUBCHEM_ATOM_DEF_STEREO_COUNT>
0

> <PUBCHEM_ATOM_UDEF_STEREO_COUNT>
2

> <PUBCHEM_BOND_DEF_STEREO_COUNT>
0

> <PUBCHEM_BOND_UDEF_STEREO_COUNT>
0

> <PUBCHEM_ISOTOPIC_ATOM_COUNT>
0

> <PUBCHEM_COMPONENT_COUNT>
1

> <PUBCHEM_CACTVS_TAUTO_COUNT>
2

> <PUBCHEM_COORDINATE_TYPE>
1
5
255

> <PUBCHEM_BONDANNOTATIONS>
4  11  3
6  15  3

$$$$

