9145
  -OEChem-06261203272D

 38 43  0     0  0  0  0  0  0999 V2000
    4.5763   -0.4098    0.0000 C   0  0  0  0  0  0  0  0  0  0  0  0
    3.7102    0.0902    0.0000 C   0  0  0  0  0  0  0  0  0  0  0  0
    5.4423    0.0902    0.0000 C   0  0  0  0  0  0  0  0  0  0  0  0
    2.9732   -0.5769    0.0000 C   0  0  0  0  0  0  0  0  0  0  0  0
    4.3671   -1.3816    0.0000 C   0  0  0  0  0  0  0  0  0  0  0  0
    3.3784   -1.4846    0.0000 C   0  0  0  0  0  0  0  0  0  0  0  0
    3.7102    1.0902    0.0000 C   0  0  0  0  0  0  0  0  0  0  0  0
    5.4423    1.0902    0.0000 C   0  0  0  0  0  0  0  0  0  0  0  0
    4.5763    1.5902    0.0000 C   0  0  0  0  0  0  0  0  0  0  0  0
    6.3362    1.6249    0.0000 C   0  0  0  0  0  0  0  0  0  0  0  0
    6.3362   -0.4444    0.0000 C   0  0  0  0  0  0  0  0  0  0  0  0
    2.0900   -0.1341    0.0000 C   0  0  0  0  0  0  0  0  0  0  0  0
    2.7883    1.4455    0.0000 C   0  0  0  0  0  0  0  0  0  0  0  0
    7.2423    1.1110    0.0000 C   0  0  0  0  0  0  0  0  0  0  0  0
    4.9878   -2.2104    0.0000 C   0  0  0  0  0  0  0  0  0  0  0  0
    2.9418   -2.4236    0.0000 C   0  0  0  0  0  0  0  0  0  0  0  0
    7.2423    0.0694    0.0000 C   0  0  0  0  0  0  0  0  0  0  0  0
    2.0000    0.8499    0.0000 C   0  0  0  0  0  0  0  0  0  0  0  0
    6.3111    2.7096    0.0000 C   0  0  0  0  0  0  0  0  0  0  0  0
    4.5732   -3.1592    0.0000 C   0  0  0  0  0  0  0  0  0  0  0  0
    3.5433   -3.2665    0.0000 C   0  0  0  0  0  0  0  0  0  0  0  0
    8.1861    1.6463    0.0000 C   0  0  0  0  0  0  0  0  0  0  0  0
    7.2423    3.2665    0.0000 C   0  0  0  0  0  0  0  0  0  0  0  0
    8.1861    2.7313    0.0000 C   0  0  0  0  0  0  0  0  0  0  0  0
    4.5763    2.2102    0.0000 H   0  0  0  0  0  0  0  0  0  0  0  0
    6.3291   -1.0644    0.0000 H   0  0  0  0  0  0  0  0  0  0  0  0
    1.5778   -0.4835    0.0000 H   0  0  0  0  0  0  0  0  0  0  0  0
    2.7020    2.0595    0.0000 H   0  0  0  0  0  0  0  0  0  0  0  0
    5.6037   -2.1390    0.0000 H   0  0  0  0  0  0  0  0  0  0  0  0
    2.3245   -2.4808    0.0000 H   0  0  0  0  0  0  0  0  0  0  0  0
    7.7780   -0.2427    0.0000 H   0  0  0  0  0  0  0  0  0  0  0  0
    1.4329    1.1006    0.0000 H   0  0  0  0  0  0  0  0  0  0  0  0
    5.7683    3.0092    0.0000 H   0  0  0  0  0  0  0  0  0  0  0  0
    4.9391   -3.6597    0.0000 H   0  0  0  0  0  0  0  0  0  0  0  0
    3.2884   -3.8317    0.0000 H   0  0  0  0  0  0  0  0  0  0  0  0
    8.7218    1.3342    0.0000 H   0  0  0  0  0  0  0  0  0  0  0  0
    7.2351    3.8865    0.0000 H   0  0  0  0  0  0  0  0  0  0  0  0
    8.7218    3.0433    0.0000 H   0  0  0  0  0  0  0  0  0  0  0  0
  1  2  2  0  0  0  0
  1  3  1  0  0  0  0
  1  5  1  0  0  0  0
  2  4  1  0  0  0  0
  2  7  1  0  0  0  0
  3  8  2  0  0  0  0
  3 11  1  0  0  0  0
  4  6  1  0  0  0  0
  4 12  2  0  0  0  0
  5  6  1  0  0  0  0
  5 15  2  0  0  0  0
  6 16  2  0  0  0  0
  7  9  2  0  0  0  0
  7 13  1  0  0  0  0
  8  9  1  0  0  0  0
  8 10  1  0  0  0  0
  9 25  1  0  0  0  0
 10 14  1  0  0  0  0
 10 19  2  0  0  0  0
 11 17  2  0  0  0  0
 11 26  1  0  0  0  0
 12 18  1  0  0  0  0
 12 27  1  0  0  0  0
 13 18  2  0  0  0  0
 13 28  1  0  0  0  0
 14 17  1  0  0  0  0
 14 22  2  0  0  0  0
 15 20  1  0  0  0  0
 15 29  1  0  0  0  0
 16 21  1  0  0  0  0
 16 30  1  0  0  0  0
 17 31  1  0  0  0  0
 18 32  1  0  0  0  0
 19 23  1  0  0  0  0
 19 33  1  0  0  0  0
 20 21  2  0  0  0  0
 20 34  1  0  0  0  0
 21 35  1  0  0  0  0
 22 24  1  0  0  0  0
 22 36  1  0  0  0  0
 23 24  2  0  0  0  0
 23 37  1  0  0  0  0
 24 38  1  0  0  0  0
M  END
> <PUBCHEM_COMPOUND_CID>
9145

> <PUBCHEM_COMPOUND_CANONICALIZED>
1

> <PUBCHEM_CACTVS_COMPLEXITY>
480

> <PUBCHEM_CACTVS_HBOND_ACCEPTOR>
0

> <PUBCHEM_CACTVS_HBOND_DONOR>
0

> <PUBCHEM_CACTVS_ROTATABLE_BOND>
0

> <PUBCHEM_CACTVS_SUBSKEYS>
AAADccB4AAAAAAAAAAAAAAAAAAAAAYAAAAAwYMGDAAAAAGDBVAAAGAAAAAAADACAGAAwAMAAAACAAiBCAAACAAAgAAAIiAAAAIgIICKAERCAIAAggAAIiAcAgMAOwAACAAAQAACAAAQAACAAAQAACAAAAA==

> <PUBCHEM_IUPAC_INCHI>
InChI=1S/C24H14/c1-2-8-17-15(6-1)12-13-21-22(17)14-16-7-5-11-19-18-9-3-4-10-20(18)24(21)23(16)19/h1-14H

> <PUBCHEM_IUPAC_INCHIKEY>
ZUAGUFSITPHNKC-UHFFFAOYSA-N

> <PUBCHEM_XLOGP3_AA>
7

> <PUBCHEM_EXACT_MASS>
302.10955

> <PUBCHEM_MOLECULAR_FORMULA>
C24H14

> <PUBCHEM_MOLECULAR_WEIGHT>
302.36796

> <PUBCHEM_OPENEYE_CAN_SMILES>
C1=CC=C2C(=C1)C=CC3=C2C=C4C=CC=C5C4=C3C6=CC=CC=C65

> <PUBCHEM_OPENEYE_ISO_SMILES>
C1=CC=C2C(=C1)C=CC3=C2C=C4C=CC=C5C4=C3C6=CC=CC=C65

> <PUBCHEM_CACTVS_TPSA>
0

> <PUBCHEM_MONOISOTOPIC_WEIGHT>
302.10955

> <PUBCHEM_TOTAL_CHARGE>
0

> <PUBCHEM_HEAVY_ATOM_COUNT>
24

> <PUBCHEM_ATOM_DEF_STEREO_COUNT>
0

> <PUBCHEM_ATOM_UDEF_STEREO_COUNT>
0

> <PUBCHEM_BOND_DEF_STEREO_COUNT>
0

> <PUBCHEM_BOND_UDEF_STEREO_COUNT>
0

> <PUBCHEM_ISOTOPIC_ATOM_COUNT>
0

> <PUBCHEM_COMPONENT_COUNT>
1

> <PUBCHEM_CACTVS_TAUTO_COUNT>
1

> <PUBCHEM_COORDINATE_TYPE>
1
5
255

> <PUBCHEM_BONDANNOTATIONS>
1  2  8
1  3  8
10  14  8
10  19  8
11  17  8
12  18  8
13  18  8
14  17  8
14  22  8
15  20  8
16  21  8
19  23  8
2  4  8
2  7  8
20  21  8
22  24  8
23  24  8
3  11  8
3  8  8
4  12  8
5  15  8
5  6  8
6  16  8
7  13  8
7  9  8
8  10  8
8  9  8

$$$$

