13133
  -OEChem-06261207482D

  9  8  0     0  0  0  0  0  0999 V2000
    3.2320    0.9330    0.0000 Cl  0  0  0  0  0  0  0  0  0  0  0  0
    4.2320   -0.7990    0.0000 Cl  0  0  0  0  0  0  0  0  0  0  0  0
    5.4641    0.0670    0.0000 Cl  0  0  0  0  0  0  0  0  0  0  0  0
    2.0000   -0.9330    0.0000 N   0  0  0  0  0  0  0  0  0  0  0  0
    3.7320    0.0670    0.0000 C   0  0  0  0  0  0  0  0  0  0  0  0
    4.5981    0.5670    0.0000 C   0  0  0  0  0  0  0  0  0  0  0  0
    2.8660   -0.4330    0.0000 C   0  0  0  0  0  0  0  0  0  0  0  0
    4.9966    1.0419    0.0000 H   0  0  0  0  0  0  0  0  0  0  0  0
    4.1996    1.0419    0.0000 H   0  0  0  0  0  0  0  0  0  0  0  0
  1  5  1  0  0  0  0
  2  5  1  0  0  0  0
  3  6  1  0  0  0  0
  4  7  3  0  0  0  0
  5  6  1  0  0  0  0
  5  7  1  0  0  0  0
  6  8  1  0  0  0  0
  6  9  1  0  0  0  0
M  END
> <PUBCHEM_COMPOUND_CID>
13133

> <PUBCHEM_COMPOUND_CANONICALIZED>
1

> <PUBCHEM_CACTVS_COMPLEXITY>
100

> <PUBCHEM_CACTVS_HBOND_ACCEPTOR>
1

> <PUBCHEM_CACTVS_HBOND_DONOR>
0

> <PUBCHEM_CACTVS_ROTATABLE_BOND>
1

> <PUBCHEM_CACTVS_SUBSKEYS>
AAADcQBCAAAGAAAAAAAAAAAAAAAAAAAAAAAAAAAAAAAAAAAAAAAAHAIAAAAACAOBAMAAAAAAAAAQBAAAAAAAAAAAAAAAAEAAAgAAgAAAAAAAAAAAAAAAAAAAAAAAAAAAAAAAAAAAAAAAAAAAAAAAAAAAAA==

> <PUBCHEM_IUPAC_OPENEYE_NAME>
2,2,3-trichloropropanenitrile

> <PUBCHEM_IUPAC_CAS_NAME>
2,2,3-trichloropropanenitrile

> <PUBCHEM_IUPAC_NAME>
2,2,3-trichloropropanenitrile

> <PUBCHEM_IUPAC_SYSTEMATIC_NAME>
2,2,3-tris(chloranyl)propanenitrile

> <PUBCHEM_IUPAC_TRADITIONAL_NAME>
2,2,3-trichloropropionitrile

> <PUBCHEM_IUPAC_INCHI>
InChI=1S/C3H2Cl3N/c4-1-3(5,6)2-7/h1H2

> <PUBCHEM_IUPAC_INCHIKEY>
XMVOGXZDRUZXAP-UHFFFAOYSA-N

> <PUBCHEM_XLOGP3_AA>
1.7

> <PUBCHEM_EXACT_MASS>
156.925282

> <PUBCHEM_MOLECULAR_FORMULA>
C3H2Cl3N

> <PUBCHEM_MOLECULAR_WEIGHT>
158.41368

> <PUBCHEM_OPENEYE_CAN_SMILES>
C(C(C#N)(Cl)Cl)Cl

> <PUBCHEM_OPENEYE_ISO_SMILES>
C(C(C#N)(Cl)Cl)Cl

> <PUBCHEM_CACTVS_TPSA>
23.8

> <PUBCHEM_MONOISOTOPIC_WEIGHT>
156.925282

> <PUBCHEM_TOTAL_CHARGE>
0

> <PUBCHEM_HEAVY_ATOM_COUNT>
7

> <PUBCHEM_ATOM_DEF_STEREO_COUNT>
0

> <PUBCHEM_ATOM_UDEF_STEREO_COUNT>
0

> <PUBCHEM_BOND_DEF_STEREO_COUNT>
0

> <PUBCHEM_BOND_UDEF_STEREO_COUNT>
0

> <PUBCHEM_ISOTOPIC_ATOM_COUNT>
0

> <PUBCHEM_COMPONENT_COUNT>
1

> <PUBCHEM_CACTVS_TAUTO_COUNT>
1

> <PUBCHEM_COORDINATE_TYPE>
1
5
255

$$$$

