853926
  -OEChem-06241222462D

 39 41  0     0  0  0  0  0  0999 V2000
    3.7891    3.5684    0.0000 S   0  0  0  0  0  0  0  0  0  0  0  0
    2.8660   -4.0194    0.0000 O   0  0  0  0  0  0  0  0  0  0  0  0
    4.5981   -0.0194    0.0000 O   0  0  0  0  0  0  0  0  0  0  0  0
    5.4071    3.5684    0.0000 N   0  0  0  0  0  0  0  0  0  0  0  0
    2.8660   -0.0194    0.0000 N   0  0  0  0  0  0  0  0  0  0  0  0
    4.5981    1.9806    0.0000 N   0  0  0  0  0  0  0  0  0  0  0  0
    5.0981    4.5194    0.0000 N   0  0  0  0  0  0  0  0  0  0  0  0
    4.0981    4.5194    0.0000 N   0  0  0  0  0  0  0  0  0  0  0  0
    6.3582    3.2594    0.0000 C   0  0  0  0  0  0  0  0  0  0  0  0
    2.8660   -1.0194    0.0000 C   0  0  0  0  0  0  0  0  0  0  0  0
    3.7320    1.4806    0.0000 C   0  0  0  0  0  0  0  0  0  0  0  0
    4.5981    2.9806    0.0000 C   0  0  0  0  0  0  0  0  0  0  0  0
    2.0000   -1.5194    0.0000 C   0  0  0  0  0  0  0  0  0  0  0  0
    3.7320   -1.5194    0.0000 C   0  0  0  0  0  0  0  0  0  0  0  0
    3.7320    0.4806    0.0000 C   0  0  0  0  0  0  0  0  0  0  0  0
    6.5661    2.2812    0.0000 C   0  0  0  0  0  0  0  0  0  0  0  0
    7.1013    3.9285    0.0000 C   0  0  0  0  0  0  0  0  0  0  0  0
    2.8660   -3.0194    0.0000 C   0  0  0  0  0  0  0  0  0  0  0  0
    2.0000   -2.5194    0.0000 C   0  0  0  0  0  0  0  0  0  0  0  0
    3.7320   -2.5194    0.0000 C   0  0  0  0  0  0  0  0  0  0  0  0
    7.5171    1.9722    0.0000 C   0  0  0  0  0  0  0  0  0  0  0  0
    8.0524    3.6195    0.0000 C   0  0  0  0  0  0  0  0  0  0  0  0
    8.2603    2.6413    0.0000 C   0  0  0  0  0  0  0  0  0  0  0  0
    2.0000   -4.5194    0.0000 C   0  0  0  0  0  0  0  0  0  0  0  0
    3.5200    2.0632    0.0000 H   0  0  0  0  0  0  0  0  0  0  0  0
    3.1215    1.3729    0.0000 H   0  0  0  0  0  0  0  0  0  0  0  0
    2.3291    0.2906    0.0000 H   0  0  0  0  0  0  0  0  0  0  0  0
    1.4631   -1.2094    0.0000 H   0  0  0  0  0  0  0  0  0  0  0  0
    4.2690   -1.2094    0.0000 H   0  0  0  0  0  0  0  0  0  0  0  0
    6.1053    1.8663    0.0000 H   0  0  0  0  0  0  0  0  0  0  0  0
    6.9724    4.5349    0.0000 H   0  0  0  0  0  0  0  0  0  0  0  0
    1.4631   -2.8294    0.0000 H   0  0  0  0  0  0  0  0  0  0  0  0
    4.2690   -2.8294    0.0000 H   0  0  0  0  0  0  0  0  0  0  0  0
    7.6460    1.3657    0.0000 H   0  0  0  0  0  0  0  0  0  0  0  0
    8.5131    4.0343    0.0000 H   0  0  0  0  0  0  0  0  0  0  0  0
    8.8499    2.4497    0.0000 H   0  0  0  0  0  0  0  0  0  0  0  0
    1.6900   -3.9825    0.0000 H   0  0  0  0  0  0  0  0  0  0  0  0
    1.4631   -4.8294    0.0000 H   0  0  0  0  0  0  0  0  0  0  0  0
    2.3100   -5.0564    0.0000 H   0  0  0  0  0  0  0  0  0  0  0  0
  1  8  1  0  0  0  0
  1 12  1  0  0  0  0
  2 18  1  0  0  0  0
  2 24  1  0  0  0  0
  3 15  2  0  0  0  0
  4  7  1  0  0  0  0
  4  9  1  0  0  0  0
  4 12  1  0  0  0  0
  5 10  1  0  0  0  0
  5 15  1  0  0  0  0
  5 27  1  0  0  0  0
  6 11  1  0  0  0  0
  6 12  2  0  0  0  0
  7  8  2  0  0  0  0
  9 16  2  0  0  0  0
  9 17  1  0  0  0  0
 10 13  2  0  0  0  0
 10 14  1  0  0  0  0
 11 15  1  0  0  0  0
 11 25  1  0  0  0  0
 11 26  1  0  0  0  0
 13 19  1  0  0  0  0
 13 28  1  0  0  0  0
 14 20  2  0  0  0  0
 14 29  1  0  0  0  0
 16 21  1  0  0  0  0
 16 30  1  0  0  0  0
 17 22  2  0  0  0  0
 17 31  1  0  0  0  0
 18 19  2  0  0  0  0
 18 20  1  0  0  0  0
 19 32  1  0  0  0  0
 20 33  1  0  0  0  0
 21 23  2  0  0  0  0
 21 34  1  0  0  0  0
 22 23  1  0  0  0  0
 22 35  1  0  0  0  0
 23 36  1  0  0  0  0
 24 37  1  0  0  0  0
 24 38  1  0  0  0  0
 24 39  1  0  0  0  0
M  END
> <PUBCHEM_COMPOUND_CID>
853926

> <PUBCHEM_COMPOUND_CANONICALIZED>
1

> <PUBCHEM_CACTVS_COMPLEXITY>
485

> <PUBCHEM_CACTVS_HBOND_ACCEPTOR>
6

> <PUBCHEM_CACTVS_HBOND_DONOR>
1

> <PUBCHEM_CACTVS_ROTATABLE_BOND>
5

> <PUBCHEM_CACTVS_SUBSKEYS>
AAADccB7sABAAAAAAAAAAAAAAAAAAQAAAAAwYAAAAAAAAAABQAAAHgQYQAAACAzBkAYzxoLABACqACVSdACCHAEhIgAZiACGbIgMZiLEuZuUMChk1BHI6AewQAAAAEAAAAAAAAAAgAAAAAAAAAAAAAAAAA==

> <PUBCHEM_IUPAC_OPENEYE_NAME>
N-(4-methoxyphenyl)-2-[(4-phenylthiatriazol-5-ylidene)amino]acetamide

> <PUBCHEM_IUPAC_CAS_NAME>
N-(4-methoxyphenyl)-2-[(4-phenyl-5-thiatriazolylidene)amino]acetamide

> <PUBCHEM_IUPAC_NAME>
N-(4-methoxyphenyl)-2-[(4-phenylthiatriazol-5-ylidene)amino]acetamide

> <PUBCHEM_IUPAC_SYSTEMATIC_NAME>
N-(4-methoxyphenyl)-2-[(4-phenyl-1,2,3,4-thiatriazol-5-ylidene)amino]ethanamide

> <PUBCHEM_IUPAC_TRADITIONAL_NAME>
N-(4-methoxyphenyl)-2-[(4-phenylthiatriazol-5-ylidene)amino]acetamide

> <PUBCHEM_IUPAC_INCHI>
InChI=1S/C16H15N5O2S/c1-23-14-9-7-12(8-10-14)18-15(22)11-17-16-21(19-20-24-16)13-5-3-2-4-6-13/h2-10H,11H2,1H3,(H,18,22)

> <PUBCHEM_IUPAC_INCHIKEY>
YYFFFFQTTBPGII-UHFFFAOYSA-N

> <PUBCHEM_XLOGP3_AA>
3.5

> <PUBCHEM_EXACT_MASS>
341.094646

> <PUBCHEM_MOLECULAR_FORMULA>
C16H15N5O2S

> <PUBCHEM_MOLECULAR_WEIGHT>
341.3876

> <PUBCHEM_OPENEYE_CAN_SMILES>
COC1=CC=C(C=C1)NC(=O)CN=C2N(N=NS2)C3=CC=CC=C3

> <PUBCHEM_OPENEYE_ISO_SMILES>
COC1=CC=C(C=C1)NC(=O)CN=C2N(N=NS2)C3=CC=CC=C3

> <PUBCHEM_CACTVS_TPSA>
104

> <PUBCHEM_MONOISOTOPIC_WEIGHT>
341.094646

> <PUBCHEM_TOTAL_CHARGE>
0

> <PUBCHEM_HEAVY_ATOM_COUNT>
24

> <PUBCHEM_ATOM_DEF_STEREO_COUNT>
0

> <PUBCHEM_ATOM_UDEF_STEREO_COUNT>
0

> <PUBCHEM_BOND_DEF_STEREO_COUNT>
0

> <PUBCHEM_BOND_UDEF_STEREO_COUNT>
0

> <PUBCHEM_ISOTOPIC_ATOM_COUNT>
0

> <PUBCHEM_COMPONENT_COUNT>
1

> <PUBCHEM_CACTVS_TAUTO_COUNT>
3

> <PUBCHEM_COORDINATE_TYPE>
1
5
255

> <PUBCHEM_BONDANNOTATIONS>
1  12  8
1  8  8
10  13  8
10  14  8
13  19  8
14  20  8
16  21  8
17  22  8
18  19  8
18  20  8
21  23  8
22  23  8
4  12  8
4  7  8
7  8  8
9  16  8
9  17  8

$$$$

