10156
  -OEChem-06261204212D

 51 53  0     1  0  0  0  0  0999 V2000
    5.2668   -2.2731    0.0000 O   0  0  0  0  0  0  0  0  0  0  0  0
    6.9502   -3.4400    0.0000 O   0  0  0  0  0  0  0  0  0  0  0  0
    8.7957   -2.5513    0.0000 O   0  0  0  0  0  0  0  0  0  0  0  0
    2.5911    1.2084    0.0000 O   0  0  0  0  0  0  0  0  0  0  0  0
    2.1828   -0.5920    0.0000 O   0  0  0  0  0  0  0  0  0  0  0  0
    6.8932    3.0308    0.0000 O   0  0  0  0  0  0  0  0  0  0  0  0
    5.3327    2.2793    0.0000 N   0  0  0  0  0  0  0  0  0  0  0  0
    5.7666    1.3783    0.0000 C   0  0  3  0  0  0  0  0  0  0  0  0
    6.7666    1.3783    0.0000 C   0  0  0  0  0  0  0  0  0  0  0  0
    7.3901    0.5965    0.0000 C   0  0  0  0  0  0  0  0  0  0  0  0
    5.1431    0.5965    0.0000 C   0  0  0  0  0  0  0  0  0  0  0  0
    7.1675   -0.3784    0.0000 C   0  0  0  0  0  0  0  0  0  0  0  0
    6.2666   -0.8123    0.0000 C   0  0  0  0  0  0  0  0  0  0  0  0
    5.3656   -0.3784    0.0000 C   0  0  0  0  0  0  0  0  0  0  0  0
    6.1727   -1.8497    0.0000 C   0  0  0  0  0  0  0  0  0  0  0  0
    8.0371   -0.9519    0.0000 C   0  0  0  0  0  0  0  0  0  0  0  0
    4.2566    1.0161    0.0000 C   0  0  0  0  0  0  0  0  0  0  0  0
    4.7489   -1.1411    0.0000 C   0  0  0  0  0  0  0  0  0  0  0  0
    7.0288   -2.4431    0.0000 C   0  0  0  0  0  0  0  0  0  0  0  0
    7.9673   -1.9912    0.0000 C   0  0  0  0  0  0  0  0  0  0  0  0
    3.3746    0.5870    0.0000 C   0  0  0  0  0  0  0  0  0  0  0  0
    5.8960    3.1055    0.0000 C   0  0  0  0  0  0  0  0  0  0  0  0
    3.7682   -1.1372    0.0000 C   0  0  0  0  0  0  0  0  0  0  0  0
    3.1577   -0.3695    0.0000 C   0  0  0  0  0  0  0  0  0  0  0  0
    5.4621    4.0065    0.0000 C   0  0  0  0  0  0  0  0  0  0  0  0
    5.1805   -3.2694    0.0000 C   0  0  0  0  0  0  0  0  0  0  0  0
    7.7743   -4.0065    0.0000 C   0  0  0  0  0  0  0  0  0  0  0  0
    9.6950   -2.1139    0.0000 C   0  0  0  0  0  0  0  0  0  0  0  0
    5.1505    1.4478    0.0000 H   0  0  0  0  0  0  0  0  0  0  0  0
    7.3252    1.6473    0.0000 H   0  0  0  0  0  0  0  0  0  0  0  0
    6.6286    1.9828    0.0000 H   0  0  0  0  0  0  0  0  0  0  0  0
    7.9487    0.3275    0.0000 H   0  0  0  0  0  0  0  0  0  0  0  0
    7.7766    1.0812    0.0000 H   0  0  0  0  0  0  0  0  0  0  0  0
    4.7144    2.3256    0.0000 H   0  0  0  0  0  0  0  0  0  0  0  0
    8.5926   -0.6764    0.0000 H   0  0  0  0  0  0  0  0  0  0  0  0
    4.2532    1.6361    0.0000 H   0  0  0  0  0  0  0  0  0  0  0  0
    5.0149   -1.7012    0.0000 H   0  0  0  0  0  0  0  0  0  0  0  0
    3.4976   -1.6950    0.0000 H   0  0  0  0  0  0  0  0  0  0  0  0
    6.0207    4.2755    0.0000 H   0  0  0  0  0  0  0  0  0  0  0  0
    5.1931    4.5651    0.0000 H   0  0  0  0  0  0  0  0  0  0  0  0
    4.9035    3.7375    0.0000 H   0  0  0  0  0  0  0  0  0  0  0  0
    4.5629   -3.2159    0.0000 H   0  0  0  0  0  0  0  0  0  0  0  0
    5.1271   -3.8871    0.0000 H   0  0  0  0  0  0  0  0  0  0  0  0
    5.7982   -3.3229    0.0000 H   0  0  0  0  0  0  0  0  0  0  0  0
    7.4231   -4.5174    0.0000 H   0  0  0  0  0  0  0  0  0  0  0  0
    8.2852   -4.3577    0.0000 H   0  0  0  0  0  0  0  0  0  0  0  0
    8.1255   -3.4956    0.0000 H   0  0  0  0  0  0  0  0  0  0  0  0
    9.9661   -2.6715    0.0000 H   0  0  0  0  0  0  0  0  0  0  0  0
   10.2525   -1.8428    0.0000 H   0  0  0  0  0  0  0  0  0  0  0  0
    9.4238   -1.5564    0.0000 H   0  0  0  0  0  0  0  0  0  0  0  0
    2.0000   -1.1845    0.0000 H   0  0  0  0  0  0  0  0  0  0  0  0
  1 15  1  0  0  0  0
  1 26  1  0  0  0  0
  2 19  1  0  0  0  0
  2 27  1  0  0  0  0
  3 20  1  0  0  0  0
  3 28  1  0  0  0  0
  4 21  2  0  0  0  0
  5 24  1  0  0  0  0
  5 51  1  0  0  0  0
  6 22  2  0  0  0  0
  7  8  1  0  0  0  0
  7 22  1  0  0  0  0
  7 34  1  0  0  0  0
  8  9  1  0  0  0  0
  8 11  1  0  0  0  0
  8 29  1  0  0  0  0
  9 10  1  0  0  0  0
  9 30  1  0  0  0  0
  9 31  1  0  0  0  0
 10 12  1  0  0  0  0
 10 32  1  0  0  0  0
 10 33  1  0  0  0  0
 11 14  1  0  0  0  0
 11 17  2  0  0  0  0
 12 13  1  0  0  0  0
 12 16  2  0  0  0  0
 13 14  1  0  0  0  0
 13 15  2  0  0  0  0
 14 18  2  0  0  0  0
 15 19  1  0  0  0  0
 16 20  1  0  0  0  0
 16 35  1  0  0  0  0
 17 21  1  0  0  0  0
 17 36  1  0  0  0  0
 18 23  1  0  0  0  0
 18 37  1  0  0  0  0
 19 20  2  0  0  0  0
 21 24  1  0  0  0  0
 22 25  1  0  0  0  0
 23 24  2  0  0  0  0
 23 38  1  0  0  0  0
 25 39  1  0  0  0  0
 25 40  1  0  0  0  0
 25 41  1  0  0  0  0
 26 42  1  0  0  0  0
 26 43  1  0  0  0  0
 26 44  1  0  0  0  0
 27 45  1  0  0  0  0
 27 46  1  0  0  0  0
 27 47  1  0  0  0  0
 28 48  1  0  0  0  0
 28 49  1  0  0  0  0
 28 50  1  0  0  0  0
M  END
> <PUBCHEM_COMPOUND_CID>
10156

> <PUBCHEM_COMPOUND_CANONICALIZED>
1

> <PUBCHEM_CACTVS_COMPLEXITY>
724

> <PUBCHEM_CACTVS_HBOND_ACCEPTOR>
6

> <PUBCHEM_CACTVS_HBOND_DONOR>
2

> <PUBCHEM_CACTVS_ROTATABLE_BOND>
4

> <PUBCHEM_CACTVS_SUBSKEYS>
AAADceB6OAAAAAAAAAAAAAAAAAAAAAAAAAAwAAAABggAAAABAAAAHgAQCAAADCzBmAYyBoLABgCIAqFSEAKCCAAgIAAAiIBOiMgNJyKEsRqEcCIl1hWKqYeQ8P8OoAABCAAYQABAAAIQADCAAAAAAAAAAA==

> <PUBCHEM_IUPAC_OPENEYE_NAME>
N-(10-hydroxy-1,2,3-trimethoxy-9-oxo-6,7-dihydro-5H-benzo[a]heptalen-7-yl)acetamide

> <PUBCHEM_IUPAC_CAS_NAME>
N-(10-hydroxy-1,2,3-trimethoxy-9-oxo-6,7-dihydro-5H-benzo[a]heptalen-7-yl)acetamide

> <PUBCHEM_IUPAC_NAME>
N-(10-hydroxy-1,2,3-trimethoxy-9-oxo-6,7-dihydro-5H-benzo[a]heptalen-7-yl)acetamide

> <PUBCHEM_IUPAC_SYSTEMATIC_NAME>
N-(1,2,3-trimethoxy-10-oxidanyl-9-oxidanylidene-6,7-dihydro-5H-benzo[a]heptalen-7-yl)ethanamide

> <PUBCHEM_IUPAC_TRADITIONAL_NAME>
N-(10-hydroxy-9-keto-1,2,3-trimethoxy-6,7-dihydro-5H-benzo[a]heptalen-7-yl)acetamide

> <PUBCHEM_IUPAC_INCHI>
InChI=1S/C21H23NO6/c1-11(23)22-15-7-5-12-9-18(26-2)20(27-3)21(28-4)19(12)13-6-8-16(24)17(25)10-14(13)15/h6,8-10,15H,5,7H2,1-4H3,(H,22,23)(H,24,25)

> <PUBCHEM_IUPAC_INCHIKEY>
PRGILOMAMBLWNG-UHFFFAOYSA-N

> <PUBCHEM_XLOGP3>
1.2

> <PUBCHEM_EXACT_MASS>
385.152537

> <PUBCHEM_MOLECULAR_FORMULA>
C21H23NO6

> <PUBCHEM_MOLECULAR_WEIGHT>
385.41042

> <PUBCHEM_OPENEYE_CAN_SMILES>
CC(=O)NC1CCC2=CC(=C(C(=C2C3=CC=C(C(=O)C=C13)O)OC)OC)OC

> <PUBCHEM_OPENEYE_ISO_SMILES>
CC(=O)NC1CCC2=CC(=C(C(=C2C3=CC=C(C(=O)C=C13)O)OC)OC)OC

> <PUBCHEM_CACTVS_TPSA>
94.1

> <PUBCHEM_MONOISOTOPIC_WEIGHT>
385.152537

> <PUBCHEM_TOTAL_CHARGE>
0

> <PUBCHEM_HEAVY_ATOM_COUNT>
28

> <PUBCHEM_ATOM_DEF_STEREO_COUNT>
0

> <PUBCHEM_ATOM_UDEF_STEREO_COUNT>
1

> <PUBCHEM_BOND_DEF_STEREO_COUNT>
0

> <PUBCHEM_BOND_UDEF_STEREO_COUNT>
0

> <PUBCHEM_ISOTOPIC_ATOM_COUNT>
0

> <PUBCHEM_COMPONENT_COUNT>
1

> <PUBCHEM_CACTVS_TAUTO_COUNT>
10

> <PUBCHEM_COORDINATE_TYPE>
1
5
255

> <PUBCHEM_BONDANNOTATIONS>
11  14  8
11  17  8
12  13  8
12  16  8
13  15  8
14  18  8
15  19  8
16  20  8
17  21  8
18  23  8
19  20  8
21  24  8
23  24  8
8  7  3

$$$$

