9683
  -OEChem-06261203562D

 44 46  0     0  0  0  0  0  0999 V2000
    8.1962   -0.8915    0.0000 Cl  0  0  0  0  0  0  0  0  0  0  0  0
    4.6660   -2.9157    0.0000 S   0  0  0  0  0  0  0  0  0  0  0  0
    2.9340    2.0843    0.0000 N   0  3  0  0  0  0  0  0  0  0  0  0
    4.6660   -0.9157    0.0000 N   0  0  0  0  0  0  0  0  0  0  0  0
    3.8000    1.5843    0.0000 C   0  0  0  0  0  0  0  0  0  0  0  0
    3.8000    0.5843    0.0000 C   0  0  0  0  0  0  0  0  0  0  0  0
    4.6660    0.0843    0.0000 C   0  0  0  0  0  0  0  0  0  0  0  0
    2.0680    2.5843    0.0000 C   0  0  0  0  0  0  0  0  0  0  0  0
    3.4340    2.9503    0.0000 C   0  0  0  0  0  0  0  0  0  0  0  0
    2.4340    1.2183    0.0000 C   0  0  0  0  0  0  0  0  0  0  0  0
    5.5321   -1.4157    0.0000 C   0  0  0  0  0  0  0  0  0  0  0  0
    3.8000   -1.4157    0.0000 C   0  0  0  0  0  0  0  0  0  0  0  0
    5.5321   -2.4157    0.0000 C   0  0  0  0  0  0  0  0  0  0  0  0
    3.8000   -2.4157    0.0000 C   0  0  0  0  0  0  0  0  0  0  0  0
    6.4260   -0.8810    0.0000 C   0  0  0  0  0  0  0  0  0  0  0  0
    2.9061   -0.8810    0.0000 C   0  0  0  0  0  0  0  0  0  0  0  0
    6.4260   -2.9503    0.0000 C   0  0  0  0  0  0  0  0  0  0  0  0
    2.9061   -2.9503    0.0000 C   0  0  0  0  0  0  0  0  0  0  0  0
    7.3321   -1.3949    0.0000 C   0  0  0  0  0  0  0  0  0  0  0  0
    2.0000   -1.3949    0.0000 C   0  0  0  0  0  0  0  0  0  0  0  0
    7.3321   -2.4365    0.0000 C   0  0  0  0  0  0  0  0  0  0  0  0
    2.0000   -2.4365    0.0000 C   0  0  0  0  0  0  0  0  0  0  0  0
    4.4106    1.4767    0.0000 H   0  0  0  0  0  0  0  0  0  0  0  0
    4.0121    2.1669    0.0000 H   0  0  0  0  0  0  0  0  0  0  0  0
    3.1894    0.6920    0.0000 H   0  0  0  0  0  0  0  0  0  0  0  0
    3.5880    0.0017    0.0000 H   0  0  0  0  0  0  0  0  0  0  0  0
    5.2766   -0.0233    0.0000 H   0  0  0  0  0  0  0  0  0  0  0  0
    4.8781    0.6669    0.0000 H   0  0  0  0  0  0  0  0  0  0  0  0
    2.3780    3.1212    0.0000 H   0  0  0  0  0  0  0  0  0  0  0  0
    1.5310    2.8943    0.0000 H   0  0  0  0  0  0  0  0  0  0  0  0
    1.8970    1.5283    0.0000 H   0  0  0  0  0  0  0  0  0  0  0  0
    2.1240    0.6814    0.0000 H   0  0  0  0  0  0  0  0  0  0  0  0
    2.9709    0.9083    0.0000 H   0  0  0  0  0  0  0  0  0  0  0  0
    3.9709    2.6403    0.0000 H   0  0  0  0  0  0  0  0  0  0  0  0
    3.7440    3.4873    0.0000 H   0  0  0  0  0  0  0  0  0  0  0  0
    2.8970    3.2603    0.0000 H   0  0  0  0  0  0  0  0  0  0  0  0
    1.7580    2.0474    0.0000 H   0  0  0  0  0  0  0  0  0  0  0  0
    6.4188   -0.2611    0.0000 H   0  0  0  0  0  0  0  0  0  0  0  0
    2.9132   -0.2611    0.0000 H   0  0  0  0  0  0  0  0  0  0  0  0
    6.4188   -3.5703    0.0000 H   0  0  0  0  0  0  0  0  0  0  0  0
    2.9132   -3.5703    0.0000 H   0  0  0  0  0  0  0  0  0  0  0  0
    1.4643   -1.0828    0.0000 H   0  0  0  0  0  0  0  0  0  0  0  0
    7.8678   -2.7486    0.0000 H   0  0  0  0  0  0  0  0  0  0  0  0
    1.4643   -2.7486    0.0000 H   0  0  0  0  0  0  0  0  0  0  0  0
  1 19  1  0  0  0  0
  2 13  1  0  0  0  0
  2 14  1  0  0  0  0
  3  5  1  0  0  0  0
  3  8  1  0  0  0  0
  3  9  1  0  0  0  0
  3 10  1  0  0  0  0
  4  7  1  0  0  0  0
  4 11  1  0  0  0  0
  4 12  1  0  0  0  0
  5  6  1  0  0  0  0
  5 23  1  0  0  0  0
  5 24  1  0  0  0  0
  6  7  1  0  0  0  0
  6 25  1  0  0  0  0
  6 26  1  0  0  0  0
  7 27  1  0  0  0  0
  7 28  1  0  0  0  0
  8 29  1  0  0  0  0
  8 30  1  0  0  0  0
  8 37  1  0  0  0  0
  9 34  1  0  0  0  0
  9 35  1  0  0  0  0
  9 36  1  0  0  0  0
 10 31  1  0  0  0  0
 10 32  1  0  0  0  0
 10 33  1  0  0  0  0
 11 13  2  0  0  0  0
 11 15  1  0  0  0  0
 12 14  1  0  0  0  0
 12 16  2  0  0  0  0
 13 17  1  0  0  0  0
 14 18  2  0  0  0  0
 15 19  2  0  0  0  0
 15 38  1  0  0  0  0
 16 20  1  0  0  0  0
 16 39  1  0  0  0  0
 17 21  2  0  0  0  0
 17 40  1  0  0  0  0
 18 22  1  0  0  0  0
 18 41  1  0  0  0  0
 19 21  1  0  0  0  0
 20 22  2  0  0  0  0
 20 42  1  0  0  0  0
 21 43  1  0  0  0  0
 22 44  1  0  0  0  0
M  CHG  1   3   1
M  END
> <PUBCHEM_COMPOUND_CID>
9683

> <PUBCHEM_COMPOUND_CANONICALIZED>
1

> <PUBCHEM_CACTVS_COMPLEXITY>
371

> <PUBCHEM_CACTVS_HBOND_ACCEPTOR>
2

> <PUBCHEM_CACTVS_HBOND_DONOR>
0

> <PUBCHEM_CACTVS_ROTATABLE_BOND>
4

> <PUBCHEM_CACTVS_SUBSKEYS>
AAADceB7AABEAAAAAAAAAAAAAAAAAAAAAAA8YIAAAAAAAACxQAAAHAYAAAAACArBUCQywYMAAAiAACRCQACCAAAhDxAIiBwIZogIIGLh05GEIAhggADoyAcQAAAAAAIAAAIAAQAABAAABAACAAAAAAAAAA==

> <PUBCHEM_IUPAC_OPENEYE_NAME>
3-(2-chlorophenothiazin-10-yl)propyl-trimethyl-ammonium

> <PUBCHEM_IUPAC_CAS_NAME>
3-(2-chloro-10-phenothiazinyl)propyl-trimethylammonium

> <PUBCHEM_IUPAC_NAME>
3-(2-chlorophenothiazin-10-yl)propyl-trimethylazanium

> <PUBCHEM_IUPAC_SYSTEMATIC_NAME>
3-(2-chloranylphenothiazin-10-yl)propyl-trimethyl-azanium

> <PUBCHEM_IUPAC_TRADITIONAL_NAME>
3-(2-chlorophenothiazin-10-yl)propyl-trimethyl-ammonium

> <PUBCHEM_IUPAC_INCHI>
InChI=1S/C18H22ClN2S/c1-21(2,3)12-6-11-20-15-7-4-5-8-17(15)22-18-10-9-14(19)13-16(18)20/h4-5,7-10,13H,6,11-12H2,1-3H3/q+1

> <PUBCHEM_IUPAC_INCHIKEY>
RGKWYLVIZNCRIY-UHFFFAOYSA-N

> <PUBCHEM_XLOGP3>
5.2

> <PUBCHEM_EXACT_MASS>
333.119222

> <PUBCHEM_MOLECULAR_FORMULA>
C18H22ClN2S+

> <PUBCHEM_MOLECULAR_WEIGHT>
333.89868

> <PUBCHEM_OPENEYE_CAN_SMILES>
C[N+](C)(C)CCCN1C2=CC=CC=C2SC3=C1C=C(C=C3)Cl

> <PUBCHEM_OPENEYE_ISO_SMILES>
C[N+](C)(C)CCCN1C2=CC=CC=C2SC3=C1C=C(C=C3)Cl

> <PUBCHEM_CACTVS_TPSA>
28.5

> <PUBCHEM_MONOISOTOPIC_WEIGHT>
333.119222

> <PUBCHEM_TOTAL_CHARGE>
1

> <PUBCHEM_HEAVY_ATOM_COUNT>
22

> <PUBCHEM_ATOM_DEF_STEREO_COUNT>
0

> <PUBCHEM_ATOM_UDEF_STEREO_COUNT>
0

> <PUBCHEM_BOND_DEF_STEREO_COUNT>
0

> <PUBCHEM_BOND_UDEF_STEREO_COUNT>
0

> <PUBCHEM_ISOTOPIC_ATOM_COUNT>
0

> <PUBCHEM_COMPONENT_COUNT>
1

> <PUBCHEM_CACTVS_TAUTO_COUNT>
1

> <PUBCHEM_COORDINATE_TYPE>
1
5
255

> <PUBCHEM_BONDANNOTATIONS>
11  13  8
11  15  8
12  14  8
12  16  8
13  17  8
14  18  8
15  19  8
16  20  8
17  21  8
18  22  8
19  21  8
20  22  8

$$$$

