3839
  -OEChem-06251223432D

 87 90  0     1  0  0  0  0  0999 V2000
    5.8301   -5.3541    0.0000 S   0  0  0  0  0  0  0  0  0  0  0  0
    8.0622   -0.8152    0.0000 S   0  0  0  0  0  0  0  0  0  0  0  0
    4.5981   -2.8152    0.0000 O   0  0  0  0  0  0  0  0  0  0  0  0
    7.1962   -2.3152    0.0000 O   0  0  0  0  0  0  0  0  0  0  0  0
    8.2981   -3.1158    0.0000 O   0  0  0  0  0  0  0  0  0  0  0  0
    5.4641    0.6848    0.0000 O   0  0  0  0  0  0  0  0  0  0  0  0
    8.9282    3.6848    0.0000 O   0  0  0  0  0  0  0  0  0  0  0  0
    8.9282    1.6848    0.0000 O   0  0  0  0  0  0  0  0  0  0  0  0
    6.3301   -3.8152    0.0000 N   0  0  0  0  0  0  0  0  0  0  0  0
    8.8334   -4.7631    0.0000 N   0  0  0  0  0  0  0  0  0  0  0  0
    6.3301   -0.8152    0.0000 N   0  0  0  0  0  0  0  0  0  0  0  0
    7.1962    1.6848    0.0000 N   0  0  0  0  0  0  0  0  0  0  0  0
   11.5942    6.2056    0.0000 N   0  0  0  0  0  0  0  0  0  0  0  0
    7.1391   -4.4030    0.0000 C   0  0  3  0  0  0  0  0  0  0  0  0
    5.4641   -1.3152    0.0000 C   0  0  3  0  0  0  0  0  0  0  0  0
    5.4641   -2.3152    0.0000 C   0  0  3  0  0  0  0  0  0  0  0  0
    6.8301   -5.3541    0.0000 C   0  0  0  0  0  0  0  0  0  0  0  0
    5.5211   -4.4030    0.0000 C   0  0  0  0  0  0  0  0  0  0  0  0
    6.3301   -2.8152    0.0000 C   0  0  0  0  0  0  0  0  0  0  0  0
    8.0902   -4.0940    0.0000 C   0  0  0  0  0  0  0  0  0  0  0  0
    8.6254   -5.7413    0.0000 C   0  0  0  0  0  0  0  0  0  0  0  0
    4.5981   -0.8152    0.0000 C   0  0  0  0  0  0  0  0  0  0  0  0
    3.7320   -1.3152    0.0000 C   0  0  0  0  0  0  0  0  0  0  0  0
    8.4175   -6.7194    0.0000 C   0  0  0  0  0  0  0  0  0  0  0  0
    9.6036   -5.9492    0.0000 C   0  0  0  0  0  0  0  0  0  0  0  0
    7.6473   -5.5334    0.0000 C   0  0  0  0  0  0  0  0  0  0  0  0
    6.3301    0.1848    0.0000 C   0  0  0  0  0  0  0  0  0  0  0  0
    7.1962    0.6848    0.0000 C   0  0  3  0  0  0  0  0  0  0  0  0
    3.7320   -2.3152    0.0000 C   0  0  0  0  0  0  0  0  0  0  0  0
    2.8660   -0.8152    0.0000 C   0  0  0  0  0  0  0  0  0  0  0  0
    8.0622    0.1848    0.0000 C   0  0  0  0  0  0  0  0  0  0  0  0
    2.8660   -2.8152    0.0000 C   0  0  0  0  0  0  0  0  0  0  0  0
    2.0000   -1.3152    0.0000 C   0  0  0  0  0  0  0  0  0  0  0  0
    2.0000   -2.3152    0.0000 C   0  0  0  0  0  0  0  0  0  0  0  0
    8.0622    2.1848    0.0000 C   0  0  0  0  0  0  0  0  0  0  0  0
    8.0622    3.1848    0.0000 C   0  0  0  0  0  0  0  0  0  0  0  0
    8.9282   -1.3152    0.0000 C   0  0  0  0  0  0  0  0  0  0  0  0
    8.9282    4.6848    0.0000 C   0  0  0  0  0  0  0  0  0  0  0  0
    9.7942    5.1848    0.0000 C   0  0  0  0  0  0  0  0  0  0  0  0
    9.7942    6.1848    0.0000 C   0  0  0  0  0  0  0  0  0  0  0  0
    8.0622    5.1848    0.0000 C   0  0  0  0  0  0  0  0  0  0  0  0
    8.9282    6.6848    0.0000 C   0  0  0  0  0  0  0  0  0  0  0  0
   10.6882    4.6501    0.0000 C   0  0  0  0  0  0  0  0  0  0  0  0
    8.0622    6.1848    0.0000 C   0  0  0  0  0  0  0  0  0  0  0  0
   10.6882    6.7194    0.0000 C   0  0  0  0  0  0  0  0  0  0  0  0
   11.5942    5.1640    0.0000 C   0  0  0  0  0  0  0  0  0  0  0  0
    7.2361   -3.7906    0.0000 H   0  0  0  0  0  0  0  0  0  0  0  0
    5.4641   -0.6952    0.0000 H   0  0  0  0  0  0  0  0  0  0  0  0
    5.4641   -2.9352    0.0000 H   0  0  0  0  0  0  0  0  0  0  0  0
    6.7653   -5.9707    0.0000 H   0  0  0  0  0  0  0  0  0  0  0  0
    7.4366   -5.4830    0.0000 H   0  0  0  0  0  0  0  0  0  0  0  0
    5.2111   -3.8661    0.0000 H   0  0  0  0  0  0  0  0  0  0  0  0
    4.9547   -4.6552    0.0000 H   0  0  0  0  0  0  0  0  0  0  0  0
    4.9966   -0.3403    0.0000 H   0  0  0  0  0  0  0  0  0  0  0  0
    4.1996   -0.3403    0.0000 H   0  0  0  0  0  0  0  0  0  0  0  0
    9.4230   -4.5715    0.0000 H   0  0  0  0  0  0  0  0  0  0  0  0
    6.8671   -1.1252    0.0000 H   0  0  0  0  0  0  0  0  0  0  0  0
    7.8111   -6.5905    0.0000 H   0  0  0  0  0  0  0  0  0  0  0  0
    8.2886   -7.3259    0.0000 H   0  0  0  0  0  0  0  0  0  0  0  0
    9.0240   -6.8483    0.0000 H   0  0  0  0  0  0  0  0  0  0  0  0
    7.7762   -4.9269    0.0000 H   0  0  0  0  0  0  0  0  0  0  0  0
    7.0408   -5.4045    0.0000 H   0  0  0  0  0  0  0  0  0  0  0  0
    7.5184   -6.1398    0.0000 H   0  0  0  0  0  0  0  0  0  0  0  0
    9.4747   -6.5556    0.0000 H   0  0  0  0  0  0  0  0  0  0  0  0
   10.2100   -6.0781    0.0000 H   0  0  0  0  0  0  0  0  0  0  0  0
    9.7325   -5.3427    0.0000 H   0  0  0  0  0  0  0  0  0  0  0  0
    4.5981   -3.4352    0.0000 H   0  0  0  0  0  0  0  0  0  0  0  0
    6.6592    0.9948    0.0000 H   0  0  0  0  0  0  0  0  0  0  0  0
    4.2690   -2.6252    0.0000 H   0  0  0  0  0  0  0  0  0  0  0  0
    2.8660   -0.1952    0.0000 H   0  0  0  0  0  0  0  0  0  0  0  0
    8.6728    0.0771    0.0000 H   0  0  0  0  0  0  0  0  0  0  0  0
    8.2742    0.7674    0.0000 H   0  0  0  0  0  0  0  0  0  0  0  0
    6.6592    1.9948    0.0000 H   0  0  0  0  0  0  0  0  0  0  0  0
    2.8660   -3.4352    0.0000 H   0  0  0  0  0  0  0  0  0  0  0  0
    1.4631   -1.0052    0.0000 H   0  0  0  0  0  0  0  0  0  0  0  0
    1.4631   -2.6252    0.0000 H   0  0  0  0  0  0  0  0  0  0  0  0
    7.8501    3.7674    0.0000 H   0  0  0  0  0  0  0  0  0  0  0  0
    7.4516    3.0771    0.0000 H   0  0  0  0  0  0  0  0  0  0  0  0
    8.6182   -1.8522    0.0000 H   0  0  0  0  0  0  0  0  0  0  0  0
    9.4651   -1.6252    0.0000 H   0  0  0  0  0  0  0  0  0  0  0  0
    9.2382   -0.7783    0.0000 H   0  0  0  0  0  0  0  0  0  0  0  0
    7.5252    4.8748    0.0000 H   0  0  0  0  0  0  0  0  0  0  0  0
    8.9282    7.3048    0.0000 H   0  0  0  0  0  0  0  0  0  0  0  0
   10.6810    4.0302    0.0000 H   0  0  0  0  0  0  0  0  0  0  0  0
    7.5252    6.4948    0.0000 H   0  0  0  0  0  0  0  0  0  0  0  0
   10.6810    7.3394    0.0000 H   0  0  0  0  0  0  0  0  0  0  0  0
   12.1300    4.8519    0.0000 H   0  0  0  0  0  0  0  0  0  0  0  0
  1 17  1  0  0  0  0
  1 18  1  0  0  0  0
  2 31  1  0  0  0  0
  2 37  1  0  0  0  0
  3 16  1  0  0  0  0
  3 67  1  0  0  0  0
  4 19  2  0  0  0  0
  5 20  2  0  0  0  0
  6 27  2  0  0  0  0
  7 36  1  0  0  0  0
  7 38  1  0  0  0  0
  8 35  2  0  0  0  0
  9 14  1  0  0  0  0
  9 18  1  0  0  0  0
  9 19  1  0  0  0  0
 10 20  1  0  0  0  0
 10 21  1  0  0  0  0
 10 56  1  0  0  0  0
 11 15  1  0  0  0  0
 11 27  1  0  0  0  0
 11 57  1  0  0  0  0
 12 28  1  0  0  0  0
 12 35  1  0  0  0  0
 12 73  1  0  0  0  0
 13 45  2  0  0  0  0
 13 46  1  0  0  0  0
 14 17  1  0  0  0  0
 14 20  1  0  0  0  0
 14 47  1  0  0  0  0
 15 16  1  0  0  0  0
 15 22  1  0  0  0  0
 15 48  1  0  0  0  0
 16 19  1  0  0  0  0
 16 49  1  0  0  0  0
 17 50  1  0  0  0  0
 17 51  1  0  0  0  0
 18 52  1  0  0  0  0
 18 53  1  0  0  0  0
 21 24  1  0  0  0  0
 21 25  1  0  0  0  0
 21 26  1  0  0  0  0
 22 23  1  0  0  0  0
 22 54  1  0  0  0  0
 22 55  1  0  0  0  0
 23 29  2  0  0  0  0
 23 30  1  0  0  0  0
 24 58  1  0  0  0  0
 24 59  1  0  0  0  0
 24 60  1  0  0  0  0
 25 64  1  0  0  0  0
 25 65  1  0  0  0  0
 25 66  1  0  0  0  0
 26 61  1  0  0  0  0
 26 62  1  0  0  0  0
 26 63  1  0  0  0  0
 27 28  1  0  0  0  0
 28 31  1  0  0  0  0
 28 68  1  0  0  0  0
 29 32  1  0  0  0  0
 29 69  1  0  0  0  0
 30 33  2  0  0  0  0
 30 70  1  0  0  0  0
 31 71  1  0  0  0  0
 31 72  1  0  0  0  0
 32 34  2  0  0  0  0
 32 74  1  0  0  0  0
 33 34  1  0  0  0  0
 33 75  1  0  0  0  0
 34 76  1  0  0  0  0
 35 36  1  0  0  0  0
 36 77  1  0  0  0  0
 36 78  1  0  0  0  0
 37 79  1  0  0  0  0
 37 80  1  0  0  0  0
 37 81  1  0  0  0  0
 38 39  1  0  0  0  0
 38 41  2  0  0  0  0
 39 40  2  0  0  0  0
 39 43  1  0  0  0  0
 40 42  1  0  0  0  0
 40 45  1  0  0  0  0
 41 44  1  0  0  0  0
 41 82  1  0  0  0  0
 42 44  2  0  0  0  0
 42 83  1  0  0  0  0
 43 46  2  0  0  0  0
 43 84  1  0  0  0  0
 44 85  1  0  0  0  0
 45 86  1  0  0  0  0
 46 87  1  0  0  0  0
M  END
> <PUBCHEM_COMPOUND_CID>
3839

> <PUBCHEM_COMPOUND_CANONICALIZED>
1

> <PUBCHEM_CACTVS_COMPLEXITY>
1040

> <PUBCHEM_CACTVS_HBOND_ACCEPTOR>
9

> <PUBCHEM_CACTVS_HBOND_DONOR>
4

> <PUBCHEM_CACTVS_ROTATABLE_BOND>
14

> <PUBCHEM_CACTVS_SUBSKEYS>
AAADcfB/uABgAAAAAAAAAAAAAAAAAWAAAAA8YIAAAAAAAACx9AAAHgQQCAAADLzl2ga+htPIFgioAjF3VAKCiCBxIjAI2KH+bJgOdvrk8b+XeCjk1hHY6Ae4yLCOgAABAAAYAAAAAAIAADAAAAAAAAAAAA==

> <PUBCHEM_IUPAC_OPENEYE_NAME>
N-tert-butyl-3-[2-hydroxy-3-[[2-[[2-(5-isoquinolyloxy)acetyl]amino]-3-methylsulfanyl-propanoyl]amino]-4-phenyl-butanoyl]thiazolidine-4-carboxamide

> <PUBCHEM_IUPAC_CAS_NAME>
N-tert-butyl-3-[2-hydroxy-3-[[2-[[2-(5-isoquinolinyloxy)-1-oxoethyl]amino]-3-(methylthio)-1-oxopropyl]amino]-1-oxo-4-phenylbutyl]-4-thiazolidinecarboxamide

> <PUBCHEM_IUPAC_NAME>
N-tert-butyl-3-[2-hydroxy-3-[[2-[(2-isoquinolin-5-yloxyacetyl)amino]-3-methylsulfanylpropanoyl]amino]-4-phenylbutanoyl]-1,3-thiazolidine-4-carboxamide

> <PUBCHEM_IUPAC_SYSTEMATIC_NAME>
N-tert-butyl-3-[3-[[2-(2-isoquinolin-5-yloxyethanoylamino)-3-methylsulfanyl-propanoyl]amino]-2-oxidanyl-4-phenyl-butanoyl]-1,3-thiazolidine-4-carboxamide

> <PUBCHEM_IUPAC_TRADITIONAL_NAME>
N-tert-butyl-3-[2-hydroxy-3-[[2-[[2-(5-isoquinolyloxy)acetyl]amino]-3-(methylthio)propanoyl]amino]-4-phenyl-butanoyl]thiazolidine-4-carboxamide

> <PUBCHEM_IUPAC_INCHI>
InChI=1S/C33H41N5O6S2/c1-33(2,3)37-31(42)26-19-46-20-38(26)32(43)29(40)24(15-21-9-6-5-7-10-21)36-30(41)25(18-45-4)35-28(39)17-44-27-12-8-11-22-16-34-14-13-23(22)27/h5-14,16,24-26,29,40H,15,17-20H2,1-4H3,(H,35,39)(H,36,41)(H,37,42)

> <PUBCHEM_IUPAC_INCHIKEY>
NJBBLOIWMSYVCQ-UHFFFAOYSA-N

> <PUBCHEM_XLOGP3_AA>
3.2

> <PUBCHEM_EXACT_MASS>
667.249826

> <PUBCHEM_MOLECULAR_FORMULA>
C33H41N5O6S2

> <PUBCHEM_MOLECULAR_WEIGHT>
667.83854

> <PUBCHEM_OPENEYE_CAN_SMILES>
CC(C)(C)NC(=O)C1CSCN1C(=O)C(C(CC2=CC=CC=C2)NC(=O)C(CSC)NC(=O)COC3=CC=CC4=C3C=CN=C4)O

> <PUBCHEM_OPENEYE_ISO_SMILES>
CC(C)(C)NC(=O)C1CSCN1C(=O)C(C(CC2=CC=CC=C2)NC(=O)C(CSC)NC(=O)COC3=CC=CC4=C3C=CN=C4)O

> <PUBCHEM_CACTVS_TPSA>
201

> <PUBCHEM_MONOISOTOPIC_WEIGHT>
667.249826

> <PUBCHEM_TOTAL_CHARGE>
0

> <PUBCHEM_HEAVY_ATOM_COUNT>
46

> <PUBCHEM_ATOM_DEF_STEREO_COUNT>
0

> <PUBCHEM_ATOM_UDEF_STEREO_COUNT>
4

> <PUBCHEM_BOND_DEF_STEREO_COUNT>
0

> <PUBCHEM_BOND_UDEF_STEREO_COUNT>
0

> <PUBCHEM_ISOTOPIC_ATOM_COUNT>
0

> <PUBCHEM_COMPONENT_COUNT>
1

> <PUBCHEM_CACTVS_TAUTO_COUNT>
8

> <PUBCHEM_COORDINATE_TYPE>
1
5
255

> <PUBCHEM_BONDANNOTATIONS>
13  45  8
13  46  8
14  20  3
15  22  3
23  29  8
23  30  8
28  31  3
29  32  8
16  3  3
30  33  8
32  34  8
33  34  8
38  39  8
38  41  8
39  40  8
39  43  8
40  42  8
40  45  8
41  44  8
42  44  8
43  46  8

$$$$

