3719
  -OEChem-06251223362D

 53 56  0     1  0  0  0  0  0999 V2000
    7.6967   -0.0896    0.0000 O   0  0  0  0  0  0  0  0  0  0  0  0
    5.0109   -1.3112    0.0000 O   0  0  0  0  0  0  0  0  0  0  0  0
    7.6967    0.9104    0.0000 O   0  0  0  0  0  0  0  0  0  0  0  0
    8.5462   -1.0504    0.0000 O   0  0  0  0  0  0  0  0  0  0  0  0
    5.0986    2.4104    0.0000 O   0  0  0  0  0  0  0  0  0  0  0  0
    3.3665    0.4104    0.0000 C   0  0  3  0  0  0  0  0  0  0  0  0
    3.3665   -0.5896    0.0000 C   0  0  3  0  0  0  0  0  0  0  0  0
    2.5000   -0.0896    0.0000 C   0  0  0  0  0  0  0  0  0  0  0  0
    4.2326    0.9104    0.0000 C   0  0  3  0  0  0  0  0  0  0  0  0
    4.2326   -1.0896    0.0000 C   0  0  0  0  0  0  0  0  0  0  0  0
    5.9646   -1.0896    0.0000 C   0  0  3  0  0  0  0  0  0  0  0  0
    5.0986   -0.5896    0.0000 C   0  0  3  0  0  0  0  0  0  0  0  0
    6.8306   -0.5896    0.0000 C   0  0  3  0  0  0  0  0  0  0  0  0
    4.8219   -0.3292    0.0000 C   0  0  0  0  0  0  0  0  0  0  0  0
    2.0000    0.7765    0.0000 C   0  0  0  0  0  0  0  0  0  0  0  0
    2.0000   -0.9556    0.0000 C   0  0  0  0  0  0  0  0  0  0  0  0
    5.0986    0.4104    0.0000 C   0  0  0  0  0  0  0  0  0  0  0  0
    6.1738   -2.0614    0.0000 C   0  0  0  0  0  0  0  0  0  0  0  0
    6.8306    0.4104    0.0000 C   0  0  3  0  0  0  0  0  0  0  0  0
    7.5676   -1.2566    0.0000 C   0  0  3  0  0  0  0  0  0  0  0  0
    5.9646   -0.0896    0.0000 C   0  0  0  0  0  0  0  0  0  0  0  0
    5.9646    0.9104    0.0000 C   0  0  0  0  0  0  0  0  0  0  0  0
    7.1625   -2.1644    0.0000 C   0  0  0  0  0  0  0  0  0  0  0  0
    5.9646    1.9104    0.0000 C   0  0  0  0  0  0  0  0  0  0  0  0
    7.6625   -3.0304    0.0000 C   0  0  0  0  0  0  0  0  0  0  0  0
    3.0566    0.9474    0.0000 H   0  0  0  0  0  0  0  0  0  0  0  0
    3.0566   -1.1265    0.0000 H   0  0  0  0  0  0  0  0  0  0  0  0
    4.2326    1.5304    0.0000 H   0  0  0  0  0  0  0  0  0  0  0  0
    3.8340   -1.5645    0.0000 H   0  0  0  0  0  0  0  0  0  0  0  0
    4.6311   -1.5645    0.0000 H   0  0  0  0  0  0  0  0  0  0  0  0
    4.7886   -0.0526    0.0000 H   0  0  0  0  0  0  0  0  0  0  0  0
    1.4631   -0.6456    0.0000 H   0  0  0  0  0  0  0  0  0  0  0  0
    1.6900   -1.4925    0.0000 H   0  0  0  0  0  0  0  0  0  0  0  0
    2.5369   -1.2656    0.0000 H   0  0  0  0  0  0  0  0  0  0  0  0
    2.5369    1.0865    0.0000 H   0  0  0  0  0  0  0  0  0  0  0  0
    1.6900    1.3134    0.0000 H   0  0  0  0  0  0  0  0  0  0  0  0
    1.4631    0.4665    0.0000 H   0  0  0  0  0  0  0  0  0  0  0  0
    5.0986   -0.2096    0.0000 H   0  0  0  0  0  0  0  0  0  0  0  0
    5.7598   -2.5228    0.0000 H   0  0  0  0  0  0  0  0  0  0  0  0
    6.8306    1.0304    0.0000 H   0  0  0  0  0  0  0  0  0  0  0  0
    7.9572   -1.7390    0.0000 H   0  0  0  0  0  0  0  0  0  0  0  0
    6.2746   -0.6265    0.0000 H   0  0  0  0  0  0  0  0  0  0  0  0
    6.5016    0.2204    0.0000 H   0  0  0  0  0  0  0  0  0  0  0  0
    5.6546    0.4474    0.0000 H   0  0  0  0  0  0  0  0  0  0  0  0
    8.2336   -0.3996    0.0000 H   0  0  0  0  0  0  0  0  0  0  0  0
    6.5752    1.8028    0.0000 H   0  0  0  0  0  0  0  0  0  0  0  0
    6.1767    2.4931    0.0000 H   0  0  0  0  0  0  0  0  0  0  0  0
    7.1256   -3.3404    0.0000 H   0  0  0  0  0  0  0  0  0  0  0  0
    7.9725   -3.5674    0.0000 H   0  0  0  0  0  0  0  0  0  0  0  0
    8.1995   -2.7204    0.0000 H   0  0  0  0  0  0  0  0  0  0  0  0
    7.6967    1.5304    0.0000 H   0  0  0  0  0  0  0  0  0  0  0  0
    8.9602   -1.5119    0.0000 H   0  0  0  0  0  0  0  0  0  0  0  0
    5.0986    3.0304    0.0000 H   0  0  0  0  0  0  0  0  0  0  0  0
  1 13  1  0  0  0  0
  1 45  1  0  0  0  0
  2 14  2  0  0  0  0
  3 19  1  0  0  0  0
  3 51  1  0  0  0  0
  4 20  1  0  0  0  0
  4 52  1  0  0  0  0
  5 24  1  0  0  0  0
  5 53  1  0  0  0  0
  6  7  1  0  0  0  0
  6  8  1  0  0  0  0
  6  9  1  0  0  0  0
  6 26  1  0  0  0  0
  7  8  1  0  0  0  0
  7 10  1  0  0  0  0
  7 27  1  0  0  0  0
  8 15  1  0  0  0  0
  8 16  1  0  0  0  0
  9 14  1  0  0  0  0
  9 17  1  0  0  0  0
  9 28  1  0  0  0  0
 10 12  1  0  0  0  0
 10 29  1  0  0  0  0
 10 30  1  0  0  0  0
 11 12  1  0  0  0  0
 11 13  1  0  0  0  0
 11 14  1  0  0  0  0
 11 18  1  0  0  0  0
 12 21  1  0  0  0  0
 12 31  1  0  0  0  0
 13 19  1  0  0  0  0
 13 20  1  0  0  0  0
 15 35  1  0  0  0  0
 15 36  1  0  0  0  0
 15 37  1  0  0  0  0
 16 32  1  0  0  0  0
 16 33  1  0  0  0  0
 16 34  1  0  0  0  0
 17 22  2  0  0  0  0
 17 38  1  0  0  0  0
 18 23  2  0  0  0  0
 18 39  1  0  0  0  0
 19 22  1  0  0  0  0
 19 40  1  0  0  0  0
 20 23  1  0  0  0  0
 20 41  1  0  0  0  0
 21 42  1  0  0  0  0
 21 43  1  0  0  0  0
 21 44  1  0  0  0  0
 22 24  1  0  0  0  0
 23 25  1  0  0  0  0
 24 46  1  0  0  0  0
 24 47  1  0  0  0  0
 25 48  1  0  0  0  0
 25 49  1  0  0  0  0
 25 50  1  0  0  0  0
M  END
> <PUBCHEM_COMPOUND_CID>
3719

> <PUBCHEM_COMPOUND_CANONICALIZED>
1

> <PUBCHEM_CACTVS_COMPLEXITY>
707

> <PUBCHEM_CACTVS_HBOND_ACCEPTOR>
5

> <PUBCHEM_CACTVS_HBOND_DONOR>
4

> <PUBCHEM_CACTVS_ROTATABLE_BOND>
1

> <PUBCHEM_CACTVS_SUBSKEYS>
AAADceB4OAAAAAAAAAAAAAAAGAAAAQAAAAAAAAAABggYAACAAAAAGgAACAAAD1SggAICAAAAAgCIAqBSAAAAAAAgAAAACAEAAAgBFBYAAQAAUAAF4AAJEAPK6PSPgAAAAAAAAAAAAAAAAAAAAAAAAAAAAA==

> <PUBCHEM_IUPAC_INCHI>
InChI=1S/C20H28O5/c1-9-7-19-10(2)5-13-14(18(13,3)4)12(17(19)24)6-11(8-21)16(23)20(19,25)15(9)22/h6-7,10,12-16,21-23,25H,5,8H2,1-4H3

> <PUBCHEM_IUPAC_INCHIKEY>
VEBVPUXQAPLADL-UHFFFAOYSA-N

> <PUBCHEM_XLOGP3_AA>
0.2

> <PUBCHEM_EXACT_MASS>
348.193674

> <PUBCHEM_MOLECULAR_FORMULA>
C20H28O5

> <PUBCHEM_MOLECULAR_WEIGHT>
348.43332

> <PUBCHEM_OPENEYE_CAN_SMILES>
CC1CC2C(C2(C)C)C3C=C(C(C4(C1(C3=O)C=C(C4O)C)O)O)CO

> <PUBCHEM_OPENEYE_ISO_SMILES>
CC1CC2C(C2(C)C)C3C=C(C(C4(C1(C3=O)C=C(C4O)C)O)O)CO

> <PUBCHEM_CACTVS_TPSA>
98

> <PUBCHEM_MONOISOTOPIC_WEIGHT>
348.193674

> <PUBCHEM_TOTAL_CHARGE>
0

> <PUBCHEM_HEAVY_ATOM_COUNT>
25

> <PUBCHEM_ATOM_DEF_STEREO_COUNT>
0

> <PUBCHEM_ATOM_UDEF_STEREO_COUNT>
8

> <PUBCHEM_BOND_DEF_STEREO_COUNT>
0

> <PUBCHEM_BOND_UDEF_STEREO_COUNT>
0

> <PUBCHEM_ISOTOPIC_ATOM_COUNT>
0

> <PUBCHEM_COMPONENT_COUNT>
1

> <PUBCHEM_CACTVS_TAUTO_COUNT>
1

> <PUBCHEM_COORDINATE_TYPE>
1
5
255

> <PUBCHEM_BONDANNOTATIONS>
13  1  3
11  14  3
12  21  3
19  3  3
20  4  3
6  8  3
7  10  3
9  17  3

$$$$

