9942
  -OEChem-06261204122D

 45 47  0     1  0  0  0  0  0999 V2000
    5.0690    3.4595    0.0000 O   0  0  0  0  0  0  0  0  0  0  0  0
    6.5690    2.5934    0.0000 N   0  0  0  0  0  0  0  0  0  0  0  0
    4.5981   -0.1915    0.0000 N   0  0  0  0  0  0  0  0  0  0  0  0
    7.0468    0.6449    0.0000 C   0  0  3  0  0  0  0  0  0  0  0  0
    7.3056    1.6108    0.0000 C   0  0  3  0  0  0  0  0  0  0  0  0
    8.8787   -0.1139    0.0000 C   0  0  0  0  0  0  0  0  0  0  0  0
    9.1375    0.8520    0.0000 C   0  0  0  0  0  0  0  0  0  0  0  0
    5.5116   -0.5982    0.0000 C   0  0  0  0  0  0  0  0  0  0  0  0
    4.7026    0.8030    0.0000 C   0  0  0  0  0  0  0  0  0  0  0  0
    6.0690    3.4595    0.0000 C   0  0  0  0  0  0  0  0  0  0  0  0
    3.7321   -0.6915    0.0000 C   0  0  0  0  0  0  0  0  0  0  0  0
    6.5690    4.3255    0.0000 C   0  0  0  0  0  0  0  0  0  0  0  0
    3.7321   -1.6915    0.0000 C   0  0  0  0  0  0  0  0  0  0  0  0
    6.0690    5.1915    0.0000 C   0  0  0  0  0  0  0  0  0  0  0  0
    2.8660   -2.1915    0.0000 C   0  0  0  0  0  0  0  0  0  0  0  0
    2.8660   -3.1915    0.0000 C   0  0  0  0  0  0  0  0  0  0  0  0
    2.0000   -3.6915    0.0000 C   0  0  0  0  0  0  0  0  0  0  0  0
    3.7321   -3.6915    0.0000 C   0  0  0  0  0  0  0  0  0  0  0  0
    2.0000   -4.6915    0.0000 C   0  0  0  0  0  0  0  0  0  0  0  0
    3.7321   -4.6915    0.0000 C   0  0  0  0  0  0  0  0  0  0  0  0
    2.8660   -5.1915    0.0000 C   0  0  0  0  0  0  0  0  0  0  0  0
    7.5173    1.0487    0.0000 H   0  0  0  0  0  0  0  0  0  0  0  0
    7.6858    2.1006    0.0000 H   0  0  0  0  0  0  0  0  0  0  0  0
    9.4700   -0.3004    0.0000 H   0  0  0  0  0  0  0  0  0  0  0  0
    8.6667   -0.6965    0.0000 H   0  0  0  0  0  0  0  0  0  0  0  0
    9.3496    1.4346    0.0000 H   0  0  0  0  0  0  0  0  0  0  0  0
    9.7289    0.6656    0.0000 H   0  0  0  0  0  0  0  0  0  0  0  0
    5.9724   -1.0131    0.0000 H   0  0  0  0  0  0  0  0  0  0  0  0
    5.1739   -1.1182    0.0000 H   0  0  0  0  0  0  0  0  0  0  0  0
    4.0829    0.7841    0.0000 H   0  0  0  0  0  0  0  0  0  0  0  0
    4.6003    1.4145    0.0000 H   0  0  0  0  0  0  0  0  0  0  0  0
    3.1215   -0.7992    0.0000 H   0  0  0  0  0  0  0  0  0  0  0  0
    3.5200   -0.1089    0.0000 H   0  0  0  0  0  0  0  0  0  0  0  0
    7.0439    4.7240    0.0000 H   0  0  0  0  0  0  0  0  0  0  0  0
    7.0439    3.9270    0.0000 H   0  0  0  0  0  0  0  0  0  0  0  0
    4.2690   -2.0015    0.0000 H   0  0  0  0  0  0  0  0  0  0  0  0
    6.6059    5.5015    0.0000 H   0  0  0  0  0  0  0  0  0  0  0  0
    5.7590    5.7284    0.0000 H   0  0  0  0  0  0  0  0  0  0  0  0
    5.5320    4.8815    0.0000 H   0  0  0  0  0  0  0  0  0  0  0  0
    2.3291   -1.8815    0.0000 H   0  0  0  0  0  0  0  0  0  0  0  0
    1.4631   -3.3815    0.0000 H   0  0  0  0  0  0  0  0  0  0  0  0
    4.2690   -3.3815    0.0000 H   0  0  0  0  0  0  0  0  0  0  0  0
    1.4631   -5.0015    0.0000 H   0  0  0  0  0  0  0  0  0  0  0  0
    4.2690   -5.0015    0.0000 H   0  0  0  0  0  0  0  0  0  0  0  0
    2.8660   -5.8115    0.0000 H   0  0  0  0  0  0  0  0  0  0  0  0
  1 10  2  0  0  0  0
  2  4  1  0  0  0  0
  2  5  1  0  0  0  0
  2 10  1  0  0  0  0
  3  8  1  0  0  0  0
  3  9  1  0  0  0  0
  3 11  1  0  0  0  0
  4  6  1  0  0  0  0
  4  8  1  0  0  0  0
  4 22  1  0  0  0  0
  5  7  1  0  0  0  0
  5  9  1  0  0  0  0
  5 23  1  0  0  0  0
  6  7  1  0  0  0  0
  6 24  1  0  0  0  0
  6 25  1  0  0  0  0
  7 26  1  0  0  0  0
  7 27  1  0  0  0  0
  8 28  1  0  0  0  0
  8 29  1  0  0  0  0
  9 30  1  0  0  0  0
  9 31  1  0  0  0  0
 10 12  1  0  0  0  0
 11 13  1  0  0  0  0
 11 32  1  0  0  0  0
 11 33  1  0  0  0  0
 12 14  1  0  0  0  0
 12 34  1  0  0  0  0
 12 35  1  0  0  0  0
 13 15  2  3  0  0  0
 13 36  1  0  0  0  0
 14 37  1  0  0  0  0
 14 38  1  0  0  0  0
 14 39  1  0  0  0  0
 15 16  1  0  0  0  0
 15 40  1  0  0  0  0
 16 17  2  0  0  0  0
 16 18  1  0  0  0  0
 17 19  1  0  0  0  0
 17 41  1  0  0  0  0
 18 20  2  0  0  0  0
 18 42  1  0  0  0  0
 19 21  2  0  0  0  0
 19 43  1  0  0  0  0
 20 21  1  0  0  0  0
 20 44  1  0  0  0  0
 21 45  1  0  0  0  0
M  END
> <PUBCHEM_COMPOUND_CID>
9942

> <PUBCHEM_COMPOUND_CANONICALIZED>
1

> <PUBCHEM_CACTVS_COMPLEXITY>
373

> <PUBCHEM_CACTVS_HBOND_ACCEPTOR>
2

> <PUBCHEM_CACTVS_HBOND_DONOR>
0

> <PUBCHEM_CACTVS_ROTATABLE_BOND>
4

> <PUBCHEM_CACTVS_SUBSKEYS>
AAADceB7IAAAAAAAAAAAAAAAAAAAAWAAAAA8QAAABYAAAAABAAAAHgAAAAAADCjBmAQyAIMAAACIAiFSEACCAAAgAAAIiAEIAIgIYCKAkRCUIAAghgCIiAcQgAAOAAAAAAAAAAAAAAAAAAAAAAAAAAAAAA==

> <PUBCHEM_IUPAC_OPENEYE_NAME>
1-(3-cinnamyl-3,8-diazabicyclo[3.2.1]octan-8-yl)propan-1-one

> <PUBCHEM_IUPAC_CAS_NAME>
1-[3-(3-phenylprop-2-enyl)-3,8-diazabicyclo[3.2.1]octan-8-yl]-1-propanone

> <PUBCHEM_IUPAC_NAME>
1-[3-(3-phenylprop-2-enyl)-3,8-diazabicyclo[3.2.1]octan-8-yl]propan-1-one

> <PUBCHEM_IUPAC_SYSTEMATIC_NAME>
1-[3-(3-phenylprop-2-enyl)-3,8-diazabicyclo[3.2.1]octan-8-yl]propan-1-one

> <PUBCHEM_IUPAC_TRADITIONAL_NAME>
1-(3-cinnamyl-3,8-diazabicyclo[3.2.1]octan-8-yl)propan-1-one

> <PUBCHEM_IUPAC_INCHI>
InChI=1S/C18H24N2O/c1-2-18(21)20-16-10-11-17(20)14-19(13-16)12-6-9-15-7-4-3-5-8-15/h3-9,16-17H,2,10-14H2,1H3

> <PUBCHEM_IUPAC_INCHIKEY>
RKNSPEOBXHFNTD-UHFFFAOYSA-N

> <PUBCHEM_XLOGP3_AA>
2.8

> <PUBCHEM_EXACT_MASS>
284.188863

> <PUBCHEM_MOLECULAR_FORMULA>
C18H24N2O

> <PUBCHEM_MOLECULAR_WEIGHT>
284.39596

> <PUBCHEM_OPENEYE_CAN_SMILES>
CCC(=O)N1C2CCC1CN(C2)CC=CC3=CC=CC=C3

> <PUBCHEM_OPENEYE_ISO_SMILES>
CCC(=O)N1C2CCC1CN(C2)CC=CC3=CC=CC=C3

> <PUBCHEM_CACTVS_TPSA>
23.6

> <PUBCHEM_MONOISOTOPIC_WEIGHT>
284.188863

> <PUBCHEM_TOTAL_CHARGE>
0

> <PUBCHEM_HEAVY_ATOM_COUNT>
21

> <PUBCHEM_ATOM_DEF_STEREO_COUNT>
0

> <PUBCHEM_ATOM_UDEF_STEREO_COUNT>
0

> <PUBCHEM_BOND_DEF_STEREO_COUNT>
0

> <PUBCHEM_BOND_UDEF_STEREO_COUNT>
1

> <PUBCHEM_ISOTOPIC_ATOM_COUNT>
0

> <PUBCHEM_COMPONENT_COUNT>
1

> <PUBCHEM_CACTVS_TAUTO_COUNT>
1

> <PUBCHEM_COORDINATE_TYPE>
1
5
255

> <PUBCHEM_BONDANNOTATIONS>
13  15  1
16  17  8
16  18  8
17  19  8
18  20  8
19  21  8
20  21  8

$$$$

