17395527
  -OEChem-06241222502D

 42 45  0     0  0  0  0  0  0999 V2000
    7.6730    1.2646    0.0000 O   0  0  0  0  0  0  0  0  0  0  0  0
    7.6730   -0.7354    0.0000 O   0  0  0  0  0  0  0  0  0  0  0  0
    3.5000   -2.5673    0.0000 N   0  0  0  0  0  0  0  0  0  0  0  0
    4.9718   -3.2241    0.0000 N   0  0  0  0  0  0  0  0  0  0  0  0
    5.9409   -0.7354    0.0000 N   0  0  0  0  0  0  0  0  0  0  0  0
    5.0749   -2.2354    0.0000 C   0  0  0  0  0  0  0  0  0  0  0  0
    5.9409   -1.7354    0.0000 C   0  0  0  0  0  0  0  0  0  0  0  0
    4.0000   -3.4333    0.0000 C   0  0  0  0  0  0  0  0  0  0  0  0
    4.1671   -1.8302    0.0000 C   0  0  0  0  0  0  0  0  0  0  0  0
    8.5390    2.7646    0.0000 C   0  0  0  0  0  0  0  0  0  0  0  0
    8.5390    3.7646    0.0000 C   0  0  0  0  0  0  0  0  0  0  0  0
    7.6730    2.2646    0.0000 C   0  0  0  0  0  0  0  0  0  0  0  0
    2.5000   -2.5673    0.0000 C   0  0  0  0  0  0  0  0  0  0  0  0
    3.5000   -4.2993    0.0000 C   0  0  0  0  0  0  0  0  0  0  0  0
    6.8069    0.7646    0.0000 C   0  0  0  0  0  0  0  0  0  0  0  0
    9.4329    2.2300    0.0000 C   0  0  0  0  0  0  0  0  0  0  0  0
    7.6730    4.2646    0.0000 C   0  0  0  0  0  0  0  0  0  0  0  0
    6.8069   -0.2354    0.0000 C   0  0  0  0  0  0  0  0  0  0  0  0
    6.8069    2.7646    0.0000 C   0  0  0  0  0  0  0  0  0  0  0  0
    9.4329    4.2993    0.0000 C   0  0  0  0  0  0  0  0  0  0  0  0
    2.0000   -3.4333    0.0000 C   0  0  0  0  0  0  0  0  0  0  0  0
    6.8069    3.7646    0.0000 C   0  0  0  0  0  0  0  0  0  0  0  0
    2.5000   -4.2993    0.0000 C   0  0  0  0  0  0  0  0  0  0  0  0
   10.3390    2.7438    0.0000 C   0  0  0  0  0  0  0  0  0  0  0  0
   10.3390    3.7855    0.0000 C   0  0  0  0  0  0  0  0  0  0  0  0
    6.1530   -2.3180    0.0000 H   0  0  0  0  0  0  0  0  0  0  0  0
    6.5515   -1.6277    0.0000 H   0  0  0  0  0  0  0  0  0  0  0  0
    4.0392   -1.2236    0.0000 H   0  0  0  0  0  0  0  0  0  0  0  0
    5.4040   -0.4254    0.0000 H   0  0  0  0  0  0  0  0  0  0  0  0
    2.1900   -2.0303    0.0000 H   0  0  0  0  0  0  0  0  0  0  0  0
    3.8100   -4.8362    0.0000 H   0  0  0  0  0  0  0  0  0  0  0  0
    6.5949    1.3473    0.0000 H   0  0  0  0  0  0  0  0  0  0  0  0
    6.1963    0.6570    0.0000 H   0  0  0  0  0  0  0  0  0  0  0  0
    9.4258    1.6100    0.0000 H   0  0  0  0  0  0  0  0  0  0  0  0
    7.6730    4.8846    0.0000 H   0  0  0  0  0  0  0  0  0  0  0  0
    6.2700    2.4546    0.0000 H   0  0  0  0  0  0  0  0  0  0  0  0
    9.4258    4.9193    0.0000 H   0  0  0  0  0  0  0  0  0  0  0  0
    1.3800   -3.4333    0.0000 H   0  0  0  0  0  0  0  0  0  0  0  0
    6.2700    4.0746    0.0000 H   0  0  0  0  0  0  0  0  0  0  0  0
    2.1900   -4.8362    0.0000 H   0  0  0  0  0  0  0  0  0  0  0  0
   10.8747    2.4318    0.0000 H   0  0  0  0  0  0  0  0  0  0  0  0
   10.8747    4.0975    0.0000 H   0  0  0  0  0  0  0  0  0  0  0  0
  1 12  1  0  0  0  0
  1 15  1  0  0  0  0
  2 18  2  0  0  0  0
  3  8  1  0  0  0  0
  3  9  1  0  0  0  0
  3 13  1  0  0  0  0
  4  6  1  0  0  0  0
  4  8  2  0  0  0  0
  5  7  1  0  0  0  0
  5 18  1  0  0  0  0
  5 29  1  0  0  0  0
  6  7  1  0  0  0  0
  6  9  2  0  0  0  0
  7 26  1  0  0  0  0
  7 27  1  0  0  0  0
  8 14  1  0  0  0  0
  9 28  1  0  0  0  0
 10 11  1  0  0  0  0
 10 12  1  0  0  0  0
 10 16  2  0  0  0  0
 11 17  1  0  0  0  0
 11 20  2  0  0  0  0
 12 19  2  0  0  0  0
 13 21  2  0  0  0  0
 13 30  1  0  0  0  0
 14 23  2  0  0  0  0
 14 31  1  0  0  0  0
 15 18  1  0  0  0  0
 15 32  1  0  0  0  0
 15 33  1  0  0  0  0
 16 24  1  0  0  0  0
 16 34  1  0  0  0  0
 17 22  2  0  0  0  0
 17 35  1  0  0  0  0
 19 22  1  0  0  0  0
 19 36  1  0  0  0  0
 20 25  1  0  0  0  0
 20 37  1  0  0  0  0
 21 23  1  0  0  0  0
 21 38  1  0  0  0  0
 22 39  1  0  0  0  0
 23 40  1  0  0  0  0
 24 25  2  0  0  0  0
 24 41  1  0  0  0  0
 25 42  1  0  0  0  0
M  END
> <PUBCHEM_COMPOUND_CID>
17395527

> <PUBCHEM_COMPOUND_CANONICALIZED>
1

> <PUBCHEM_CACTVS_COMPLEXITY>
458

> <PUBCHEM_CACTVS_HBOND_ACCEPTOR>
3

> <PUBCHEM_CACTVS_HBOND_DONOR>
1

> <PUBCHEM_CACTVS_ROTATABLE_BOND>
5

> <PUBCHEM_CACTVS_SUBSKEYS>
AAADceB7MAAAAAAAAAAAAAAAAAAAAWAAAAA8YIAAAAAAAFjB9AAAHgAQAAAADAzhnwY9tt/MHACoAzd3dAKCiC0xMqAJ2KB+fJiObuLE+Z+XOCjs1hPY6CeQwLAOgAABAAAYAAAAAAIAADAAAAAAAAAAAA==

> <PUBCHEM_IUPAC_OPENEYE_NAME>
N-(imidazo[1,2-a]pyridin-2-ylmethyl)-2-(1-naphthyloxy)acetamide

> <PUBCHEM_IUPAC_CAS_NAME>
N-(2-imidazo[1,2-a]pyridinylmethyl)-2-(1-naphthalenyloxy)acetamide

> <PUBCHEM_IUPAC_NAME>
N-(imidazo[1,2-a]pyridin-2-ylmethyl)-2-naphthalen-1-yloxyacetamide

> <PUBCHEM_IUPAC_SYSTEMATIC_NAME>
N-(imidazo[1,2-a]pyridin-2-ylmethyl)-2-naphthalen-1-yloxy-ethanamide

> <PUBCHEM_IUPAC_TRADITIONAL_NAME>
N-(imidazo[1,2-a]pyridin-2-ylmethyl)-2-(1-naphthoxy)acetamide

> <PUBCHEM_IUPAC_INCHI>
InChI=1S/C20H17N3O2/c24-20(21-12-16-13-23-11-4-3-10-19(23)22-16)14-25-18-9-5-7-15-6-1-2-8-17(15)18/h1-11,13H,12,14H2,(H,21,24)

> <PUBCHEM_IUPAC_INCHIKEY>
LKCFXJPTBFEJKX-UHFFFAOYSA-N

> <PUBCHEM_XLOGP3_AA>
3.9

> <PUBCHEM_EXACT_MASS>
331.132077

> <PUBCHEM_MOLECULAR_FORMULA>
C20H17N3O2

> <PUBCHEM_MOLECULAR_WEIGHT>
331.36788

> <PUBCHEM_OPENEYE_CAN_SMILES>
C1=CC=C2C(=C1)C=CC=C2OCC(=O)NCC3=CN4C=CC=CC4=N3

> <PUBCHEM_OPENEYE_ISO_SMILES>
C1=CC=C2C(=C1)C=CC=C2OCC(=O)NCC3=CN4C=CC=CC4=N3

> <PUBCHEM_CACTVS_TPSA>
55.6

> <PUBCHEM_MONOISOTOPIC_WEIGHT>
331.132077

> <PUBCHEM_TOTAL_CHARGE>
0

> <PUBCHEM_HEAVY_ATOM_COUNT>
25

> <PUBCHEM_ATOM_DEF_STEREO_COUNT>
0

> <PUBCHEM_ATOM_UDEF_STEREO_COUNT>
0

> <PUBCHEM_BOND_DEF_STEREO_COUNT>
0

> <PUBCHEM_BOND_UDEF_STEREO_COUNT>
0

> <PUBCHEM_ISOTOPIC_ATOM_COUNT>
0

> <PUBCHEM_COMPONENT_COUNT>
1

> <PUBCHEM_CACTVS_TAUTO_COUNT>
2

> <PUBCHEM_COORDINATE_TYPE>
1
5
255

> <PUBCHEM_BONDANNOTATIONS>
10  11  8
10  12  8
10  16  8
11  17  8
11  20  8
12  19  8
13  21  8
14  23  8
16  24  8
17  22  8
19  22  8
20  25  8
21  23  8
24  25  8
3  13  8
3  8  8
3  9  8
4  6  8
4  8  8
6  9  8
8  14  8

$$$$

