12378
  -OEChem-06261206532D

 16 16  0     0  0  0  0  0  0999 V2000
    3.7071   -1.2071    0.0000 C   0  0  0  0  0  0  0  0  0  0  0  0
    2.7071   -1.2071    0.0000 C   0  0  0  0  0  0  0  0  0  0  0  0
    4.4142   -0.5000    0.0000 C   0  0  0  0  0  0  0  0  0  0  0  0
    2.0000   -0.5000    0.0000 C   0  0  0  0  0  0  0  0  0  0  0  0
    4.4142    0.5000    0.0000 C   0  0  0  0  0  0  0  0  0  0  0  0
    2.0000    0.5000    0.0000 C   0  0  0  0  0  0  0  0  0  0  0  0
    3.7071    1.2071    0.0000 C   0  0  0  0  0  0  0  0  0  0  0  0
    2.7071    1.2071    0.0000 C   0  0  0  0  0  0  0  0  0  0  0  0
    3.9444   -1.7799    0.0000 H   0  0  0  0  0  0  0  0  0  0  0  0
    2.4698   -1.7799    0.0000 H   0  0  0  0  0  0  0  0  0  0  0  0
    4.9870   -0.7373    0.0000 H   0  0  0  0  0  0  0  0  0  0  0  0
    1.4272   -0.7373    0.0000 H   0  0  0  0  0  0  0  0  0  0  0  0
    4.9870    0.7373    0.0000 H   0  0  0  0  0  0  0  0  0  0  0  0
    1.4272    0.7373    0.0000 H   0  0  0  0  0  0  0  0  0  0  0  0
    3.9444    1.7799    0.0000 H   0  0  0  0  0  0  0  0  0  0  0  0
    2.4698    1.7799    0.0000 H   0  0  0  0  0  0  0  0  0  0  0  0
  1  2  1  0  0  0  0
  1  3  2  3  0  0  0
  1  9  1  0  0  0  0
  2  4  2  3  0  0  0
  2 10  1  0  0  0  0
  3  5  1  0  0  0  0
  3 11  1  0  0  0  0
  4  6  1  0  0  0  0
  4 12  1  0  0  0  0
  5  7  2  3  0  0  0
  5 13  1  0  0  0  0
  6  8  2  3  0  0  0
  6 14  1  0  0  0  0
  7  8  1  0  0  0  0
  7 15  1  0  0  0  0
  8 16  1  0  0  0  0
M  END
> <PUBCHEM_COMPOUND_CID>
12378

> <PUBCHEM_COMPOUND_CANONICALIZED>
1

> <PUBCHEM_CACTVS_COMPLEXITY>
86.4

> <PUBCHEM_CACTVS_HBOND_ACCEPTOR>
0

> <PUBCHEM_CACTVS_HBOND_DONOR>
0

> <PUBCHEM_CACTVS_ROTATABLE_BOND>
0

> <PUBCHEM_CACTVS_SUBSKEYS>
AAADccBwAAAAAAAAAAAAAAAAAAAAAAAAAAAAAAAAAAAQAAAAAAAAGAAAAAAACACAAAAAAAAAAACAACBCAAAAAAAAAAAICAAAAAAIAAAAAQAAAAAAAAAAgAAAAAAAAAAAAAAAAAAAAAAAAAAAAAAAAAAAAA==

> <PUBCHEM_IUPAC_OPENEYE_NAME>
cyclooctatetraene

> <PUBCHEM_IUPAC_CAS_NAME>
cyclooctatetraene

> <PUBCHEM_IUPAC_NAME>
cyclooctatetraene

> <PUBCHEM_IUPAC_SYSTEMATIC_NAME>
cyclooctatetraene

> <PUBCHEM_IUPAC_TRADITIONAL_NAME>
cyclooctatetraene

> <PUBCHEM_IUPAC_INCHI>
InChI=1S/C8H8/c1-2-4-6-8-7-5-3-1/h1-8H

> <PUBCHEM_IUPAC_INCHIKEY>
KDUIUFJBNGTBMD-UHFFFAOYSA-N

> <PUBCHEM_XLOGP3>
3.1

> <PUBCHEM_EXACT_MASS>
104.0626

> <PUBCHEM_MOLECULAR_FORMULA>
C8H8

> <PUBCHEM_MOLECULAR_WEIGHT>
104.14912

> <PUBCHEM_OPENEYE_CAN_SMILES>
C1=CC=CC=CC=C1

> <PUBCHEM_OPENEYE_ISO_SMILES>
C1=CC=CC=CC=C1

> <PUBCHEM_CACTVS_TPSA>
0

> <PUBCHEM_MONOISOTOPIC_WEIGHT>
104.0626

> <PUBCHEM_TOTAL_CHARGE>
0

> <PUBCHEM_HEAVY_ATOM_COUNT>
8

> <PUBCHEM_ATOM_DEF_STEREO_COUNT>
0

> <PUBCHEM_ATOM_UDEF_STEREO_COUNT>
0

> <PUBCHEM_BOND_DEF_STEREO_COUNT>
0

> <PUBCHEM_BOND_UDEF_STEREO_COUNT>
4

> <PUBCHEM_ISOTOPIC_ATOM_COUNT>
0

> <PUBCHEM_COMPONENT_COUNT>
1

> <PUBCHEM_CACTVS_TAUTO_COUNT>
1

> <PUBCHEM_COORDINATE_TYPE>
1
5
255

> <PUBCHEM_BONDANNOTATIONS>
1  3  1
2  4  1
5  7  1
6  8  1

$$$$

