5553
  -OEChem-06261200442D

 82 81  0     1  0  0  0  0  0999 V2000
    4.2690   -1.5950    0.0000 O   0  0  0  0  0  0  0  0  0  0  0  0
   31.9818    1.4050    0.0000 O   0  0  0  0  0  0  0  0  0  0  0  0
   10.3312   -0.0950    0.0000 C   0  0  0  0  0  0  0  0  0  0  0  0
    9.4651   -0.5950    0.0000 C   0  0  0  0  0  0  0  0  0  0  0  0
   11.1972   -0.5950    0.0000 C   0  0  0  0  0  0  0  0  0  0  0  0
   12.0632   -0.0950    0.0000 C   0  0  0  0  0  0  0  0  0  0  0  0
    8.5991   -0.0950    0.0000 C   0  0  0  0  0  0  0  0  0  0  0  0
   21.5895   -1.5950    0.0000 C   0  0  0  0  0  0  0  0  0  0  0  0
   20.7235   -1.0950    0.0000 C   0  0  0  0  0  0  0  0  0  0  0  0
   22.4555   -1.0950    0.0000 C   0  0  0  0  0  0  0  0  0  0  0  0
   12.9292   -0.5950    0.0000 C   0  0  0  0  0  0  0  0  0  0  0  0
    7.7331   -0.5950    0.0000 C   0  0  0  0  0  0  0  0  0  0  0  0
   19.8574   -1.5950    0.0000 C   0  0  0  0  0  0  0  0  0  0  0  0
   23.3215   -1.5950    0.0000 C   0  0  0  0  0  0  0  0  0  0  0  0
   18.9914   -1.0950    0.0000 C   0  0  0  0  0  0  0  0  0  0  0  0
   24.1876   -1.0950    0.0000 C   0  0  0  0  0  0  0  0  0  0  0  0
   13.7953   -0.0950    0.0000 C   0  0  0  0  0  0  0  0  0  0  0  0
    6.8671   -0.0950    0.0000 C   0  0  0  0  0  0  0  0  0  0  0  0
   18.1254   -1.5950    0.0000 C   0  0  0  0  0  0  0  0  0  0  0  0
   25.0536   -1.5950    0.0000 C   0  0  0  0  0  0  0  0  0  0  0  0
   14.6613   -0.5950    0.0000 C   0  0  0  0  0  0  0  0  0  0  0  0
    6.0010   -0.5950    0.0000 C   0  0  0  0  0  0  0  0  0  0  0  0
   17.2594   -1.0950    0.0000 C   0  0  0  0  0  0  0  0  0  0  0  0
   15.5273   -0.0950    0.0000 C   0  0  0  0  0  0  0  0  0  0  0  0
    5.1350   -0.0950    0.0000 C   0  0  0  0  0  0  0  0  0  0  0  0
   25.9196   -1.0950    0.0000 C   0  0  0  0  0  0  0  0  0  0  0  0
   16.3933   -0.5950    0.0000 C   0  0  0  0  0  0  0  0  0  0  0  0
    4.2690   -0.5950    0.0000 C   0  0  3  0  0  0  0  0  0  0  0  0
   26.7856   -0.5950    0.0000 C   0  0  0  0  0  0  0  0  0  0  0  0
    3.4030   -0.0950    0.0000 C   0  0  0  0  0  0  0  0  0  0  0  0
   27.6517   -0.0950    0.0000 C   0  0  0  0  0  0  0  0  0  0  0  0
    2.5369    0.4050    0.0000 C   0  0  0  0  0  0  0  0  0  0  0  0
   28.5177    0.4050    0.0000 C   0  0  0  0  0  0  0  0  0  0  0  0
   29.3837    0.9050    0.0000 C   0  0  0  0  0  0  0  0  0  0  0  0
   30.2497    1.4050    0.0000 C   0  0  0  0  0  0  0  0  0  0  0  0
   31.1158    1.9050    0.0000 C   0  0  0  0  0  0  0  0  0  0  0  0
   10.7297    0.3799    0.0000 H   0  0  0  0  0  0  0  0  0  0  0  0
    9.9326    0.3799    0.0000 H   0  0  0  0  0  0  0  0  0  0  0  0
    9.0666   -1.0700    0.0000 H   0  0  0  0  0  0  0  0  0  0  0  0
    9.8637   -1.0700    0.0000 H   0  0  0  0  0  0  0  0  0  0  0  0
   10.7987   -1.0700    0.0000 H   0  0  0  0  0  0  0  0  0  0  0  0
   11.5957   -1.0700    0.0000 H   0  0  0  0  0  0  0  0  0  0  0  0
    8.9976    0.3799    0.0000 H   0  0  0  0  0  0  0  0  0  0  0  0
    8.2006    0.3799    0.0000 H   0  0  0  0  0  0  0  0  0  0  0  0
   12.4617    0.3799    0.0000 H   0  0  0  0  0  0  0  0  0  0  0  0
   11.6647    0.3799    0.0000 H   0  0  0  0  0  0  0  0  0  0  0  0
   21.1910   -2.0700    0.0000 H   0  0  0  0  0  0  0  0  0  0  0  0
   21.9880   -2.0700    0.0000 H   0  0  0  0  0  0  0  0  0  0  0  0
   21.1220   -0.6201    0.0000 H   0  0  0  0  0  0  0  0  0  0  0  0
   20.3249   -0.6201    0.0000 H   0  0  0  0  0  0  0  0  0  0  0  0
   22.8540   -0.6201    0.0000 H   0  0  0  0  0  0  0  0  0  0  0  0
   22.0570   -0.6201    0.0000 H   0  0  0  0  0  0  0  0  0  0  0  0
   12.5307   -1.0700    0.0000 H   0  0  0  0  0  0  0  0  0  0  0  0
   13.3278   -1.0700    0.0000 H   0  0  0  0  0  0  0  0  0  0  0  0
    7.3346   -1.0700    0.0000 H   0  0  0  0  0  0  0  0  0  0  0  0
    8.1316   -1.0700    0.0000 H   0  0  0  0  0  0  0  0  0  0  0  0
   19.4589   -2.0700    0.0000 H   0  0  0  0  0  0  0  0  0  0  0  0
   20.2560   -2.0700    0.0000 H   0  0  0  0  0  0  0  0  0  0  0  0
   22.9230   -2.0700    0.0000 H   0  0  0  0  0  0  0  0  0  0  0  0
   23.7201   -2.0700    0.0000 H   0  0  0  0  0  0  0  0  0  0  0  0
   19.3899   -0.6201    0.0000 H   0  0  0  0  0  0  0  0  0  0  0  0
   18.5929   -0.6201    0.0000 H   0  0  0  0  0  0  0  0  0  0  0  0
   24.5861   -0.6201    0.0000 H   0  0  0  0  0  0  0  0  0  0  0  0
   23.7890   -0.6201    0.0000 H   0  0  0  0  0  0  0  0  0  0  0  0
   14.1938    0.3799    0.0000 H   0  0  0  0  0  0  0  0  0  0  0  0
   13.3967    0.3799    0.0000 H   0  0  0  0  0  0  0  0  0  0  0  0
    7.2656    0.3799    0.0000 H   0  0  0  0  0  0  0  0  0  0  0  0
    6.4685    0.3799    0.0000 H   0  0  0  0  0  0  0  0  0  0  0  0
   17.7269   -2.0700    0.0000 H   0  0  0  0  0  0  0  0  0  0  0  0
   18.5239   -2.0700    0.0000 H   0  0  0  0  0  0  0  0  0  0  0  0
   24.6551   -2.0700    0.0000 H   0  0  0  0  0  0  0  0  0  0  0  0
   25.4521   -2.0700    0.0000 H   0  0  0  0  0  0  0  0  0  0  0  0
   14.6613   -1.2150    0.0000 H   0  0  0  0  0  0  0  0  0  0  0  0
    6.0010   -1.2150    0.0000 H   0  0  0  0  0  0  0  0  0  0  0  0
   15.5273    0.5250    0.0000 H   0  0  0  0  0  0  0  0  0  0  0  0
    5.1350    0.5250    0.0000 H   0  0  0  0  0  0  0  0  0  0  0  0
    5.0051   -1.0200    0.0000 H   0  0  0  0  0  0  0  0  0  0  0  0
    3.7320   -1.9050    0.0000 H   0  0  0  0  0  0  0  0  0  0  0  0
    2.0000    0.7150    0.0000 H   0  0  0  0  0  0  0  0  0  0  0  0
   31.5143    2.3800    0.0000 H   0  0  0  0  0  0  0  0  0  0  0  0
   30.7172    2.3800    0.0000 H   0  0  0  0  0  0  0  0  0  0  0  0
   32.5187    1.7150    0.0000 H   0  0  0  0  0  0  0  0  0  0  0  0
  1 28  1  0  0  0  0
  1 78  1  0  0  0  0
  2 36  1  0  0  0  0
  2 82  1  0  0  0  0
  3  4  1  0  0  0  0
  3  5  1  0  0  0  0
  3 37  1  0  0  0  0
  3 38  1  0  0  0  0
  4  7  1  0  0  0  0
  4 39  1  0  0  0  0
  4 40  1  0  0  0  0
  5  6  1  0  0  0  0
  5 41  1  0  0  0  0
  5 42  1  0  0  0  0
  6 11  1  0  0  0  0
  6 45  1  0  0  0  0
  6 46  1  0  0  0  0
  7 12  1  0  0  0  0
  7 43  1  0  0  0  0
  7 44  1  0  0  0  0
  8  9  1  0  0  0  0
  8 10  1  0  0  0  0
  8 47  1  0  0  0  0
  8 48  1  0  0  0  0
  9 13  1  0  0  0  0
  9 49  1  0  0  0  0
  9 50  1  0  0  0  0
 10 14  1  0  0  0  0
 10 51  1  0  0  0  0
 10 52  1  0  0  0  0
 11 17  1  0  0  0  0
 11 53  1  0  0  0  0
 11 54  1  0  0  0  0
 12 18  1  0  0  0  0
 12 55  1  0  0  0  0
 12 56  1  0  0  0  0
 13 15  1  0  0  0  0
 13 57  1  0  0  0  0
 13 58  1  0  0  0  0
 14 16  1  0  0  0  0
 14 59  1  0  0  0  0
 14 60  1  0  0  0  0
 15 19  1  0  0  0  0
 15 61  1  0  0  0  0
 15 62  1  0  0  0  0
 16 20  1  0  0  0  0
 16 63  1  0  0  0  0
 16 64  1  0  0  0  0
 17 21  1  0  0  0  0
 17 65  1  0  0  0  0
 17 66  1  0  0  0  0
 18 22  1  0  0  0  0
 18 67  1  0  0  0  0
 18 68  1  0  0  0  0
 19 23  1  0  0  0  0
 19 69  1  0  0  0  0
 19 70  1  0  0  0  0
 20 26  1  0  0  0  0
 20 71  1  0  0  0  0
 20 72  1  0  0  0  0
 21 24  2  3  0  0  0
 21 73  1  0  0  0  0
 22 25  2  3  0  0  0
 22 74  1  0  0  0  0
 23 27  3  0  0  0  0
 24 27  1  0  0  0  0
 24 75  1  0  0  0  0
 25 28  1  0  0  0  0
 25 76  1  0  0  0  0
 26 29  3  0  0  0  0
 28 30  1  0  0  0  0
 28 77  1  0  0  0  0
 29 31  1  0  0  0  0
 30 32  3  0  0  0  0
 31 33  3  0  0  0  0
 32 79  1  0  0  0  0
 33 34  1  0  0  0  0
 34 35  3  0  0  0  0
 35 36  1  0  0  0  0
 36 80  1  0  0  0  0
 36 81  1  0  0  0  0
M  END
> <PUBCHEM_COMPOUND_CID>
5553

> <PUBCHEM_COMPOUND_CANONICALIZED>
1

> <PUBCHEM_CACTVS_COMPLEXITY>
916

> <PUBCHEM_CACTVS_HBOND_ACCEPTOR>
2

> <PUBCHEM_CACTVS_HBOND_DONOR>
2

> <PUBCHEM_CACTVS_ROTATABLE_BOND>
21

> <PUBCHEM_CACTVS_SUBSKEYS>
AAADcfB8MAAAAAAAAAAAAAAAAAAAAAAAAAAAAAAAAAAAAAAAAAAAGgAACAAACBSggAIAAAAAAgDAGCBCAAgAAAAgAAAICAAAAAgAFAIAAQAAEAAAgAAIEAMAgIAAAAAAAAAAAAAAAAAAAAAAAAAAAAAAAA==

> <PUBCHEM_IUPAC_OPENEYE_NAME>
tetratriaconta-19,30-dien-2,4,6,17,33-pentayne-1,32-diol

> <PUBCHEM_IUPAC_CAS_NAME>
tetratriaconta-19,30-dien-2,4,6,17,33-pentayne-1,32-diol

> <PUBCHEM_IUPAC_NAME>
tetratriaconta-19,30-dien-2,4,6,17,33-pentayne-1,32-diol

> <PUBCHEM_IUPAC_SYSTEMATIC_NAME>
tetratriaconta-19,30-dien-2,4,6,17,33-pentayne-1,32-diol

> <PUBCHEM_IUPAC_TRADITIONAL_NAME>
tetratriaconta-19,30-dien-2,4,6,17,33-pentayne-1,32-diol

> <PUBCHEM_IUPAC_INCHI>
InChI=1S/C34H46O2/c1-2-34(36)32-30-28-26-24-22-20-18-16-14-12-10-8-6-4-3-5-7-9-11-13-15-17-19-21-23-25-27-29-31-33-35/h1,8,10,30,32,34-36H,3,5,7,9,11-20,22,24,26,28,33H2

> <PUBCHEM_IUPAC_INCHIKEY>
OURGQUMQIFPFJQ-UHFFFAOYSA-N

> <PUBCHEM_XLOGP3_AA>
10.5

> <PUBCHEM_EXACT_MASS>
486.349781

> <PUBCHEM_MOLECULAR_FORMULA>
C34H46O2

> <PUBCHEM_MOLECULAR_WEIGHT>
486.72784

> <PUBCHEM_OPENEYE_CAN_SMILES>
C#CC(C=CCCCCCCCCCC=CC#CCCCCCCCCCC#CC#CC#CCO)O

> <PUBCHEM_OPENEYE_ISO_SMILES>
C#CC(C=CCCCCCCCCCC=CC#CCCCCCCCCCC#CC#CC#CCO)O

> <PUBCHEM_CACTVS_TPSA>
40.5

> <PUBCHEM_MONOISOTOPIC_WEIGHT>
486.349781

> <PUBCHEM_TOTAL_CHARGE>
0

> <PUBCHEM_HEAVY_ATOM_COUNT>
36

> <PUBCHEM_ATOM_DEF_STEREO_COUNT>
0

> <PUBCHEM_ATOM_UDEF_STEREO_COUNT>
1

> <PUBCHEM_BOND_DEF_STEREO_COUNT>
0

> <PUBCHEM_BOND_UDEF_STEREO_COUNT>
2

> <PUBCHEM_ISOTOPIC_ATOM_COUNT>
0

> <PUBCHEM_COMPONENT_COUNT>
1

> <PUBCHEM_CACTVS_TAUTO_COUNT>
1

> <PUBCHEM_COORDINATE_TYPE>
1
5
255

> <PUBCHEM_BONDANNOTATIONS>
21  24  1
22  25  1
28  77  3

$$$$

