47205125
  -OEChem-06241222582D

 30 31  0     1  0  0  0  0  0999 V2000
    2.0000   -1.4239    0.0000 Br  0  0  0  0  0  0  0  0  0  0  0  0
    3.5103    4.4239    0.0000 Cl  0  0  0  0  0  0  0  0  0  0  0  0
    3.7320   -0.4239    0.0000 S   0  0  0  0  0  0  0  0  0  0  0  0
    3.7891    2.6639    0.0000 S   0  0  0  0  0  0  0  0  0  0  0  0
    3.7320   -4.4239    0.0000 F   0  0  0  0  0  0  0  0  0  0  0  0
    4.7320   -0.4239    0.0000 O   0  0  0  0  0  0  0  0  0  0  0  0
    2.7320   -0.4239    0.0000 O   0  0  0  0  0  0  0  0  0  0  0  0
    3.7320    0.5761    0.0000 N   0  0  3  0  0  0  0  0  0  0  0  0
    4.5981    1.0761    0.0000 C   0  0  0  0  0  0  0  0  0  0  0  0
    3.7320   -1.4239    0.0000 C   0  0  0  0  0  0  0  0  0  0  0  0
    4.5981    2.0761    0.0000 C   0  0  0  0  0  0  0  0  0  0  0  0
    2.8660    1.0761    0.0000 C   0  0  0  0  0  0  0  0  0  0  0  0
    2.8660   -1.9239    0.0000 C   0  0  0  0  0  0  0  0  0  0  0  0
    4.5981   -1.9239    0.0000 C   0  0  0  0  0  0  0  0  0  0  0  0
    5.4071    2.6639    0.0000 C   0  0  0  0  0  0  0  0  0  0  0  0
    2.8660   -2.9239    0.0000 C   0  0  0  0  0  0  0  0  0  0  0  0
    4.5981   -2.9239    0.0000 C   0  0  0  0  0  0  0  0  0  0  0  0
    3.7320   -3.4239    0.0000 C   0  0  0  0  0  0  0  0  0  0  0  0
    5.0981    3.6149    0.0000 C   0  0  0  0  0  0  0  0  0  0  0  0
    4.0981    3.6149    0.0000 C   0  0  0  0  0  0  0  0  0  0  0  0
    4.8101    0.4935    0.0000 H   0  0  0  0  0  0  0  0  0  0  0  0
    5.2087    1.1837    0.0000 H   0  0  0  0  0  0  0  0  0  0  0  0
    3.1760    1.6130    0.0000 H   0  0  0  0  0  0  0  0  0  0  0  0
    2.3291    1.3861    0.0000 H   0  0  0  0  0  0  0  0  0  0  0  0
    2.5560    0.5391    0.0000 H   0  0  0  0  0  0  0  0  0  0  0  0
    5.1350   -1.6139    0.0000 H   0  0  0  0  0  0  0  0  0  0  0  0
    5.9967    2.4723    0.0000 H   0  0  0  0  0  0  0  0  0  0  0  0
    2.3291   -3.2339    0.0000 H   0  0  0  0  0  0  0  0  0  0  0  0
    5.1350   -3.2339    0.0000 H   0  0  0  0  0  0  0  0  0  0  0  0
    5.4625    4.1165    0.0000 H   0  0  0  0  0  0  0  0  0  0  0  0
  1 13  1  0  0  0  0
  2 20  1  0  0  0  0
  3  6  2  0  0  0  0
  3  7  2  0  0  0  0
  3  8  1  0  0  0  0
  3 10  1  0  0  0  0
  4 11  1  0  0  0  0
  4 20  1  0  0  0  0
  5 18  1  0  0  0  0
  8  9  1  0  0  0  0
  8 12  1  0  0  0  0
  9 11  1  0  0  0  0
  9 21  1  0  0  0  0
  9 22  1  0  0  0  0
 10 13  2  0  0  0  0
 10 14  1  0  0  0  0
 11 15  2  0  0  0  0
 12 23  1  0  0  0  0
 12 24  1  0  0  0  0
 12 25  1  0  0  0  0
 13 16  1  0  0  0  0
 14 17  2  0  0  0  0
 14 26  1  0  0  0  0
 15 19  1  0  0  0  0
 15 27  1  0  0  0  0
 16 18  2  0  0  0  0
 16 28  1  0  0  0  0
 17 18  1  0  0  0  0
 17 29  1  0  0  0  0
 19 20  2  0  0  0  0
 19 30  1  0  0  0  0
M  END
> <PUBCHEM_COMPOUND_CID>
47205125

> <PUBCHEM_COMPOUND_CANONICALIZED>
1

> <PUBCHEM_CACTVS_COMPLEXITY>
434

> <PUBCHEM_CACTVS_HBOND_ACCEPTOR>
5

> <PUBCHEM_CACTVS_HBOND_DONOR>
0

> <PUBCHEM_CACTVS_ROTATABLE_BOND>
4

> <PUBCHEM_CACTVS_SUBSKEYS>
AAADccByMQBkEAAAAAAAAAAAAAAAASAAAAAwAAAAAAAAAAABwAAAHQZAQAABqALBUCwyAYIAAAqEACBCAHDDAJAgDRRIiBgIBqgIICKhkxGEIAhggAAoihcQAAAAAAAAAAAAAEAAAAAAAAAAgAAAAAAAAA==

> <PUBCHEM_IUPAC_OPENEYE_NAME>
2-bromo-N-[(5-chloro-2-thienyl)methyl]-4-fluoro-N-methyl-benzenesulfonamide

> <PUBCHEM_IUPAC_CAS_NAME>
2-bromo-N-[(5-chloro-2-thiophenyl)methyl]-4-fluoro-N-methylbenzenesulfonamide

> <PUBCHEM_IUPAC_NAME>
2-bromo-N-[(5-chlorothiophen-2-yl)methyl]-4-fluoro-N-methylbenzenesulfonamide

> <PUBCHEM_IUPAC_SYSTEMATIC_NAME>
2-bromanyl-N-[(5-chloranylthiophen-2-yl)methyl]-4-fluoranyl-N-methyl-benzenesulfonamide

> <PUBCHEM_IUPAC_TRADITIONAL_NAME>
2-bromo-N-[(5-chloro-2-thienyl)methyl]-4-fluoro-N-methyl-benzenesulfonamide

> <PUBCHEM_IUPAC_INCHI>
InChI=1S/C12H10BrClFNO2S2/c1-16(7-9-3-5-12(14)19-9)20(17,18)11-4-2-8(15)6-10(11)13/h2-6H,7H2,1H3

> <PUBCHEM_IUPAC_INCHIKEY>
LDJBHIKRDOHNGO-UHFFFAOYSA-N

> <PUBCHEM_XLOGP3_AA>
4

> <PUBCHEM_EXACT_MASS>
396.900889

> <PUBCHEM_MOLECULAR_FORMULA>
C12H10BrClFNO2S2

> <PUBCHEM_MOLECULAR_WEIGHT>
398.698703

> <PUBCHEM_OPENEYE_CAN_SMILES>
CN(CC1=CC=C(S1)Cl)S(=O)(=O)C2=C(C=C(C=C2)F)Br

> <PUBCHEM_OPENEYE_ISO_SMILES>
CN(CC1=CC=C(S1)Cl)S(=O)(=O)C2=C(C=C(C=C2)F)Br

> <PUBCHEM_CACTVS_TPSA>
74

> <PUBCHEM_MONOISOTOPIC_WEIGHT>
396.900889

> <PUBCHEM_TOTAL_CHARGE>
0

> <PUBCHEM_HEAVY_ATOM_COUNT>
20

> <PUBCHEM_ATOM_DEF_STEREO_COUNT>
0

> <PUBCHEM_ATOM_UDEF_STEREO_COUNT>
0

> <PUBCHEM_BOND_DEF_STEREO_COUNT>
0

> <PUBCHEM_BOND_UDEF_STEREO_COUNT>
0

> <PUBCHEM_ISOTOPIC_ATOM_COUNT>
0

> <PUBCHEM_COMPONENT_COUNT>
1

> <PUBCHEM_CACTVS_TAUTO_COUNT>
1

> <PUBCHEM_COORDINATE_TYPE>
1
5
255

> <PUBCHEM_BONDANNOTATIONS>
10  13  8
10  14  8
11  15  8
13  16  8
14  17  8
15  19  8
16  18  8
17  18  8
19  20  8
4  11  8
4  20  8

$$$$

