10601
  -OEChem-06261204442D

 17 17  0     1  0  0  0  0  0999 V2000
    2.8090   -1.6307    0.0000 O   0  0  0  0  0  0  0  0  0  0  0  0
    4.5691   -1.3519    0.0000 O   0  0  0  0  0  0  0  0  0  0  0  0
    4.8913    0.6126    0.0000 O   0  0  0  0  0  0  0  0  0  0  0  0
    3.3090   -0.0919    0.0000 C   0  0  3  0  0  0  0  0  0  0  0  0
    2.3090   -0.0919    0.0000 C   0  0  0  0  0  0  0  0  0  0  0  0
    2.0000   -1.0429    0.0000 C   0  0  0  0  0  0  0  0  0  0  0  0
    3.6180   -1.0429    0.0000 C   0  0  0  0  0  0  0  0  0  0  0  0
    3.8968    0.7172    0.0000 C   0  0  0  0  0  0  0  0  0  0  0  0
    3.4901    1.6307    0.0000 C   0  0  0  0  0  0  0  0  0  0  0  0
    4.1486   -0.2248    0.0000 H   0  0  0  0  0  0  0  0  0  0  0  0
    2.3738    0.5247    0.0000 H   0  0  0  0  0  0  0  0  0  0  0  0
    1.7026    0.0370    0.0000 H   0  0  0  0  0  0  0  0  0  0  0  0
    1.4336   -0.7907    0.0000 H   0  0  0  0  0  0  0  0  0  0  0  0
    1.6900   -1.5798    0.0000 H   0  0  0  0  0  0  0  0  0  0  0  0
    4.0565    1.8829    0.0000 H   0  0  0  0  0  0  0  0  0  0  0  0
    3.2379    2.1971    0.0000 H   0  0  0  0  0  0  0  0  0  0  0  0
    2.9237    1.3785    0.0000 H   0  0  0  0  0  0  0  0  0  0  0  0
  1  6  1  0  0  0  0
  1  7  1  0  0  0  0
  2  7  2  0  0  0  0
  3  8  2  0  0  0  0
  4  5  1  0  0  0  0
  4  7  1  0  0  0  0
  4  8  1  0  0  0  0
  4 10  1  0  0  0  0
  5  6  1  0  0  0  0
  5 11  1  0  0  0  0
  5 12  1  0  0  0  0
  6 13  1  0  0  0  0
  6 14  1  0  0  0  0
  8  9  1  0  0  0  0
  9 15  1  0  0  0  0
  9 16  1  0  0  0  0
  9 17  1  0  0  0  0
M  END
> <PUBCHEM_COMPOUND_CID>
10601

> <PUBCHEM_COMPOUND_CANONICALIZED>
1

> <PUBCHEM_CACTVS_COMPLEXITY>
150

> <PUBCHEM_CACTVS_HBOND_ACCEPTOR>
3

> <PUBCHEM_CACTVS_HBOND_DONOR>
0

> <PUBCHEM_CACTVS_ROTATABLE_BOND>
1

> <PUBCHEM_CACTVS_SUBSKEYS>
AAADccBgMAAAAAAAAAAAAAAAAAAAASAAAAAAAAAAAAAAAAAAAAAAGgAAAAAADQSggAICCAAABAAIAICQCAAAAAAAAAAAAAEAAAAAABYIAAACAAAEIAAAAACCAAAKAAAAAAAAAAAAAAAAAAAAAAAAAAAAAA==

> <PUBCHEM_IUPAC_OPENEYE_NAME>
3-acetyltetrahydrofuran-2-one

> <PUBCHEM_IUPAC_CAS_NAME>
3-acetyl-2-oxolanone

> <PUBCHEM_IUPAC_NAME>
3-acetyloxolan-2-one

> <PUBCHEM_IUPAC_SYSTEMATIC_NAME>
3-ethanoyloxolan-2-one

> <PUBCHEM_IUPAC_TRADITIONAL_NAME>
3-acetyltetrahydrofuran-2-one

> <PUBCHEM_IUPAC_INCHI>
InChI=1S/C6H8O3/c1-4(7)5-2-3-9-6(5)8/h5H,2-3H2,1H3

> <PUBCHEM_IUPAC_INCHIKEY>
OMQHDIHZSDEIFH-UHFFFAOYSA-N

> <PUBCHEM_XLOGP3_AA>
0.1

> <PUBCHEM_EXACT_MASS>
128.047344

> <PUBCHEM_MOLECULAR_FORMULA>
C6H8O3

> <PUBCHEM_MOLECULAR_WEIGHT>
128.12592

> <PUBCHEM_OPENEYE_CAN_SMILES>
CC(=O)C1CCOC1=O

> <PUBCHEM_OPENEYE_ISO_SMILES>
CC(=O)C1CCOC1=O

> <PUBCHEM_CACTVS_TPSA>
43.4

> <PUBCHEM_MONOISOTOPIC_WEIGHT>
128.047344

> <PUBCHEM_TOTAL_CHARGE>
0

> <PUBCHEM_HEAVY_ATOM_COUNT>
9

> <PUBCHEM_ATOM_DEF_STEREO_COUNT>
0

> <PUBCHEM_ATOM_UDEF_STEREO_COUNT>
1

> <PUBCHEM_BOND_DEF_STEREO_COUNT>
0

> <PUBCHEM_BOND_UDEF_STEREO_COUNT>
0

> <PUBCHEM_ISOTOPIC_ATOM_COUNT>
0

> <PUBCHEM_COMPONENT_COUNT>
1

> <PUBCHEM_CACTVS_TAUTO_COUNT>
5

> <PUBCHEM_COORDINATE_TYPE>
1
5
255

> <PUBCHEM_BONDANNOTATIONS>
4  10  3

$$$$

