4469
  -OEChem-06261200082D

116113  0     0  0  0  0  0  0999 V2000
   19.3205   -1.5000    0.0000 S   0  0  0  0  0  0  0  0  0  0  0  0
    7.1962    1.5000    0.0000 S   0  0  0  0  0  0  0  0  0  0  0  0
   12.3923    1.5000    0.0000 S   0  0  0  0  0  0  0  0  0  0  0  0
    5.4641   -1.5000    0.0000 S   0  0  0  0  0  0  0  0  0  0  0  0
   21.0526   -4.5000    0.0000 S   0  0  0  0  0  0  0  0  0  0  0  0
    8.9282    4.5000    0.0000 S   0  0  0  0  0  0  0  0  0  0  0  0
   14.1244    4.5000    0.0000 S   0  0  0  0  0  0  0  0  0  0  0  0
    3.7320   -4.5000    0.0000 S   0  0  0  0  0  0  0  0  0  0  0  0
    5.4641    1.5000    0.0000 Na  0  3  0  0  0  0  0  0  0  0  0  0
   20.1865    0.0000    0.0000 Na  0  3  0  0  0  0  0  0  0  0  0  0
    3.9641   -0.6340    0.0000 Na  0  3  0  0  0  0  0  0  0  0  0  0
   10.6603    1.5000    0.0000 Na  0  3  0  0  0  0  0  0  0  0  0  0
    7.4282    5.3660    0.0000 Na  0  3  0  0  0  0  0  0  0  0  0  0
   21.9186   -6.0000    0.0000 Na  0  3  0  0  0  0  0  0  0  0  0  0
    2.0000   -4.5000    0.0000 Na  0  3  0  0  0  0  0  0  0  0  0  0
   14.9904    6.0000    0.0000 Na  0  3  0  0  0  0  0  0  0  0  0  0
   16.7224   -4.0000    0.0000 O   0  0  0  0  0  0  0  0  0  0  0  0
   10.6603    0.5000    0.0000 O   0  0  0  0  0  0  0  0  0  0  0  0
   15.8564    0.5000    0.0000 O   0  0  0  0  0  0  0  0  0  0  0  0
    8.0622   -4.0000    0.0000 O   0  0  0  0  0  0  0  0  0  0  0  0
   19.3205   -0.5000    0.0000 O   0  5  0  0  0  0  0  0  0  0  0  0
    6.3301    1.0000    0.0000 O   0  5  0  0  0  0  0  0  0  0  0  0
   11.5263    1.0000    0.0000 O   0  5  0  0  0  0  0  0  0  0  0  0
    4.4641   -1.5000    0.0000 O   0  5  0  0  0  0  0  0  0  0  0  0
   12.3923   -1.5000    0.0000 O   0  0  0  0  0  0  0  0  0  0  0  0
   20.3205   -1.5000    0.0000 O   0  0  0  0  0  0  0  0  0  0  0  0
   18.3205   -1.5000    0.0000 O   0  0  0  0  0  0  0  0  0  0  0  0
    6.6962    2.3660    0.0000 O   0  0  0  0  0  0  0  0  0  0  0  0
    7.6962    0.6340    0.0000 O   0  0  0  0  0  0  0  0  0  0  0  0
   11.8923    2.3660    0.0000 O   0  0  0  0  0  0  0  0  0  0  0  0
   12.8923    0.6340    0.0000 O   0  0  0  0  0  0  0  0  0  0  0  0
    5.4641   -0.5000    0.0000 O   0  0  0  0  0  0  0  0  0  0  0  0
    6.4641   -1.5000    0.0000 O   0  0  0  0  0  0  0  0  0  0  0  0
    7.9282    4.5000    0.0000 O   0  5  0  0  0  0  0  0  0  0  0  0
   21.9186   -5.0000    0.0000 O   0  5  0  0  0  0  0  0  0  0  0  0
    2.8660   -5.0000    0.0000 O   0  5  0  0  0  0  0  0  0  0  0  0
   14.1244    5.5000    0.0000 O   0  5  0  0  0  0  0  0  0  0  0  0
    8.9282    5.5000    0.0000 O   0  0  0  0  0  0  0  0  0  0  0  0
    9.9282    4.5000    0.0000 O   0  0  0  0  0  0  0  0  0  0  0  0
   20.5526   -5.3660    0.0000 O   0  0  0  0  0  0  0  0  0  0  0  0
   21.5526   -3.6340    0.0000 O   0  0  0  0  0  0  0  0  0  0  0  0
    4.2320   -5.3660    0.0000 O   0  0  0  0  0  0  0  0  0  0  0  0
    3.2320   -3.6340    0.0000 O   0  0  0  0  0  0  0  0  0  0  0  0
   15.1244    4.5000    0.0000 O   0  0  0  0  0  0  0  0  0  0  0  0
   13.1244    4.5000    0.0000 O   0  0  0  0  0  0  0  0  0  0  0  0
   17.5885   -2.5000    0.0000 N   0  0  0  0  0  0  0  0  0  0  0  0
    8.9282    0.5000    0.0000 N   0  0  0  0  0  0  0  0  0  0  0  0
   14.1244    0.5000    0.0000 N   0  0  0  0  0  0  0  0  0  0  0  0
    7.1962   -2.5000    0.0000 N   0  0  0  0  0  0  0  0  0  0  0  0
   13.2583   -3.0000    0.0000 N   0  0  0  0  0  0  0  0  0  0  0  0
   11.5263   -3.0000    0.0000 N   0  0  0  0  0  0  0  0  0  0  0  0
    9.7942   -1.0000    0.0000 C   0  0  0  0  0  0  0  0  0  0  0  0
   15.8564   -2.5000    0.0000 C   0  0  0  0  0  0  0  0  0  0  0  0
    8.9282   -2.5000    0.0000 C   0  0  0  0  0  0  0  0  0  0  0  0
   14.9904   -1.0000    0.0000 C   0  0  0  0  0  0  0  0  0  0  0  0
   14.1244   -2.5000    0.0000 C   0  0  0  0  0  0  0  0  0  0  0  0
   10.6603   -2.5000    0.0000 C   0  0  0  0  0  0  0  0  0  0  0  0
   18.4545   -3.0000    0.0000 C   0  0  0  0  0  0  0  0  0  0  0  0
    8.9282    1.5000    0.0000 C   0  0  0  0  0  0  0  0  0  0  0  0
   14.1244    1.5000    0.0000 C   0  0  0  0  0  0  0  0  0  0  0  0
    6.3301   -3.0000    0.0000 C   0  0  0  0  0  0  0  0  0  0  0  0
   19.3205   -2.5000    0.0000 C   0  0  0  0  0  0  0  0  0  0  0  0
    8.0622    2.0000    0.0000 C   0  0  0  0  0  0  0  0  0  0  0  0
   13.2583    2.0000    0.0000 C   0  0  0  0  0  0  0  0  0  0  0  0
    5.4641   -2.5000    0.0000 C   0  0  0  0  0  0  0  0  0  0  0  0
   15.8564   -1.5000    0.0000 C   0  0  0  0  0  0  0  0  0  0  0  0
    8.9282   -1.5000    0.0000 C   0  0  0  0  0  0  0  0  0  0  0  0
   14.9904   -3.0000    0.0000 C   0  0  0  0  0  0  0  0  0  0  0  0
   10.6603   -1.5000    0.0000 C   0  0  0  0  0  0  0  0  0  0  0  0
   14.1244   -1.5000    0.0000 C   0  0  0  0  0  0  0  0  0  0  0  0
    9.7942   -3.0000    0.0000 C   0  0  0  0  0  0  0  0  0  0  0  0
   16.7224   -3.0000    0.0000 C   0  0  0  0  0  0  0  0  0  0  0  0
    9.7942    0.0000    0.0000 C   0  0  0  0  0  0  0  0  0  0  0  0
   14.9904    0.0000    0.0000 C   0  0  0  0  0  0  0  0  0  0  0  0
    8.0622   -3.0000    0.0000 C   0  0  0  0  0  0  0  0  0  0  0  0
   20.1865   -4.0000    0.0000 C   0  0  0  0  0  0  0  0  0  0  0  0
    8.9282    3.5000    0.0000 C   0  0  0  0  0  0  0  0  0  0  0  0
   14.1244    3.5000    0.0000 C   0  0  0  0  0  0  0  0  0  0  0  0
    4.5981   -4.0000    0.0000 C   0  0  0  0  0  0  0  0  0  0  0  0
   20.1865   -3.0000    0.0000 C   0  0  0  0  0  0  0  0  0  0  0  0
    8.0622    3.0000    0.0000 C   0  0  0  0  0  0  0  0  0  0  0  0
   13.2583    3.0000    0.0000 C   0  0  0  0  0  0  0  0  0  0  0  0
    4.5981   -3.0000    0.0000 C   0  0  0  0  0  0  0  0  0  0  0  0
   18.4545   -4.0000    0.0000 C   0  0  0  0  0  0  0  0  0  0  0  0
    9.7942    2.0000    0.0000 C   0  0  0  0  0  0  0  0  0  0  0  0
   14.9904    2.0000    0.0000 C   0  0  0  0  0  0  0  0  0  0  0  0
    6.3301   -4.0000    0.0000 C   0  0  0  0  0  0  0  0  0  0  0  0
    9.7942    3.0000    0.0000 C   0  0  0  0  0  0  0  0  0  0  0  0
   19.3205   -4.5000    0.0000 C   0  0  0  0  0  0  0  0  0  0  0  0
    5.4641   -4.5000    0.0000 C   0  0  0  0  0  0  0  0  0  0  0  0
   14.9904    3.0000    0.0000 C   0  0  0  0  0  0  0  0  0  0  0  0
   12.3923   -2.5000    0.0000 C   0  0  0  0  0  0  0  0  0  0  0  0
   16.3933   -1.1900    0.0000 H   0  0  0  0  0  0  0  0  0  0  0  0
    8.3913   -1.1900    0.0000 H   0  0  0  0  0  0  0  0  0  0  0  0
   14.9904   -3.6200    0.0000 H   0  0  0  0  0  0  0  0  0  0  0  0
   11.1972   -1.1900    0.0000 H   0  0  0  0  0  0  0  0  0  0  0  0
   13.5874   -1.1900    0.0000 H   0  0  0  0  0  0  0  0  0  0  0  0
    9.7942   -3.6200    0.0000 H   0  0  0  0  0  0  0  0  0  0  0  0
   17.5885   -1.8800    0.0000 H   0  0  0  0  0  0  0  0  0  0  0  0
    8.3913    0.1900    0.0000 H   0  0  0  0  0  0  0  0  0  0  0  0
   13.5874    0.1900    0.0000 H   0  0  0  0  0  0  0  0  0  0  0  0
    7.1962   -1.8800    0.0000 H   0  0  0  0  0  0  0  0  0  0  0  0
    7.5252    3.3100    0.0000 H   0  0  0  0  0  0  0  0  0  0  0  0
   20.7235   -2.6900    0.0000 H   0  0  0  0  0  0  0  0  0  0  0  0
    4.0611   -2.6900    0.0000 H   0  0  0  0  0  0  0  0  0  0  0  0
   12.7214    3.3100    0.0000 H   0  0  0  0  0  0  0  0  0  0  0  0
   13.2583   -3.6200    0.0000 H   0  0  0  0  0  0  0  0  0  0  0  0
   11.5263   -3.6200    0.0000 H   0  0  0  0  0  0  0  0  0  0  0  0
   17.9175   -4.3100    0.0000 H   0  0  0  0  0  0  0  0  0  0  0  0
   10.3312    1.6900    0.0000 H   0  0  0  0  0  0  0  0  0  0  0  0
   15.5273    1.6900    0.0000 H   0  0  0  0  0  0  0  0  0  0  0  0
    6.8671   -4.3100    0.0000 H   0  0  0  0  0  0  0  0  0  0  0  0
   19.3205   -5.1200    0.0000 H   0  0  0  0  0  0  0  0  0  0  0  0
   10.3312    3.3100    0.0000 H   0  0  0  0  0  0  0  0  0  0  0  0
   15.5273    3.3100    0.0000 H   0  0  0  0  0  0  0  0  0  0  0  0
    5.4641   -5.1200    0.0000 H   0  0  0  0  0  0  0  0  0  0  0  0
  1 21  1  0  0  0  0
  1 26  2  0  0  0  0
  1 27  2  0  0  0  0
  1 62  1  0  0  0  0
  2 22  1  0  0  0  0
  2 28  2  0  0  0  0
  2 29  2  0  0  0  0
  2 63  1  0  0  0  0
  3 23  1  0  0  0  0
  3 30  2  0  0  0  0
  3 31  2  0  0  0  0
  3 64  1  0  0  0  0
  4 24  1  0  0  0  0
  4 32  2  0  0  0  0
  4 33  2  0  0  0  0
  4 65  1  0  0  0  0
  5 35  1  0  0  0  0
  5 40  2  0  0  0  0
  5 41  2  0  0  0  0
  5 76  1  0  0  0  0
  6 34  1  0  0  0  0
  6 38  2  0  0  0  0
  6 39  2  0  0  0  0
  6 77  1  0  0  0  0
  7 37  1  0  0  0  0
  7 44  2  0  0  0  0
  7 45  2  0  0  0  0
  7 78  1  0  0  0  0
  8 36  1  0  0  0  0
  8 42  2  0  0  0  0
  8 43  2  0  0  0  0
  8 79  1  0  0  0  0
 17 72  2  0  0  0  0
 18 73  2  0  0  0  0
 19 74  2  0  0  0  0
 20 75  2  0  0  0  0
 25 92  2  0  0  0  0
 46 58  1  0  0  0  0
 46 72  1  0  0  0  0
 46 99  1  0  0  0  0
 47 59  1  0  0  0  0
 47 73  1  0  0  0  0
 47100  1  0  0  0  0
 48 60  1  0  0  0  0
 48 74  1  0  0  0  0
 48101  1  0  0  0  0
 49 61  1  0  0  0  0
 49 75  1  0  0  0  0
 49102  1  0  0  0  0
 50 56  1  0  0  0  0
 50 92  1  0  0  0  0
 50107  1  0  0  0  0
 51 57  1  0  0  0  0
 51 92  1  0  0  0  0
 51108  1  0  0  0  0
 52 67  2  0  0  0  0
 52 69  1  0  0  0  0
 52 73  1  0  0  0  0
 53 66  2  0  0  0  0
 53 68  1  0  0  0  0
 53 72  1  0  0  0  0
 54 67  1  0  0  0  0
 54 71  2  0  0  0  0
 54 75  1  0  0  0  0
 55 66  1  0  0  0  0
 55 70  2  0  0  0  0
 55 74  1  0  0  0  0
 56 68  2  0  0  0  0
 56 70  1  0  0  0  0
 57 69  2  0  0  0  0
 57 71  1  0  0  0  0
 58 62  2  0  0  0  0
 58 84  1  0  0  0  0
 59 63  2  0  0  0  0
 59 85  1  0  0  0  0
 60 64  2  0  0  0  0
 60 86  1  0  0  0  0
 61 65  2  0  0  0  0
 61 87  1  0  0  0  0
 62 80  1  0  0  0  0
 63 81  1  0  0  0  0
 64 82  1  0  0  0  0
 65 83  1  0  0  0  0
 66 93  1  0  0  0  0
 67 94  1  0  0  0  0
 68 95  1  0  0  0  0
 69 96  1  0  0  0  0
 70 97  1  0  0  0  0
 71 98  1  0  0  0  0
 76 80  2  0  0  0  0
 76 89  1  0  0  0  0
 77 81  2  0  0  0  0
 77 88  1  0  0  0  0
 78 82  2  0  0  0  0
 78 91  1  0  0  0  0
 79 83  2  0  0  0  0
 79 90  1  0  0  0  0
 80104  1  0  0  0  0
 81103  1  0  0  0  0
 82106  1  0  0  0  0
 83105  1  0  0  0  0
 84 89  2  0  0  0  0
 84109  1  0  0  0  0
 85 88  2  0  0  0  0
 85110  1  0  0  0  0
 86 91  2  0  0  0  0
 86111  1  0  0  0  0
 87 90  2  0  0  0  0
 87112  1  0  0  0  0
 88114  1  0  0  0  0
 89113  1  0  0  0  0
 90116  1  0  0  0  0
 91115  1  0  0  0  0
M  CHG  8   9   1  10   1  11   1  12   1  13   1  14   1  15   1  16   1
M  CHG  8  21  -1  22  -1  23  -1  24  -1  34  -1  35  -1  36  -1  37  -1
M  END
> <PUBCHEM_COMPOUND_CID>
4469

> <PUBCHEM_COMPOUND_CANONICALIZED>
1

> <PUBCHEM_CACTVS_COMPLEXITY>
3030

> <PUBCHEM_CACTVS_HBOND_ACCEPTOR>
29

> <PUBCHEM_CACTVS_HBOND_DONOR>
6

> <PUBCHEM_CACTVS_ROTATABLE_BOND>
18

> <PUBCHEM_CACTVS_SUBSKEYS>
AAADceB/vjB4AAAAAAAAAAAAAAAAAAAAAAAwYMGDAAAAAAABVAAAHgQQAAAADAiB2AAxwYLAAAKIAiVSUHDCAEAlAgAIiB0AZMiIIDLAlZGEIQholALIyacci0COAAQCQEAAAQAACASAgAACAAAAAAAAAA==

> <PUBCHEM_IUPAC_OPENEYE_NAME>
octasodium 4-[[3-[[3,5-bis[(2,4-disulfonatophenyl)carbamoyl]phenyl]carbamoylamino]-5-[(2,4-disulfonatophenyl)carbamoyl]benzoyl]amino]benzene-1,3-disulfonate

> <PUBCHEM_IUPAC_CAS_NAME>
octasodium 4-[[[3-[[[3,5-bis[(2,4-disulfonatoanilino)-oxomethyl]anilino]-oxomethyl]amino]-5-[(2,4-disulfonatoanilino)-oxomethyl]phenyl]-oxomethyl]amino]benzene-1,3-disulfonate

> <PUBCHEM_IUPAC_NAME>
octasodium 4-[[3-[[3,5-bis[(2,4-disulfonatophenyl)carbamoyl]phenyl]carbamoylamino]-5-[(2,4-disulfonatophenyl)carbamoyl]benzoyl]amino]benzene-1,3-disulfonate

> <PUBCHEM_IUPAC_SYSTEMATIC_NAME>
octasodium 4-[[3-[[3,5-bis[(2,4-disulfonatophenyl)carbamoyl]phenyl]carbamoylamino]-5-[(2,4-disulfonatophenyl)carbamoyl]phenyl]carbonylamino]benzene-1,3-disulfonate

> <PUBCHEM_IUPAC_TRADITIONAL_NAME>
octasodium 4-[[3-[[3,5-bis[(2,4-disulfonatophenyl)carbamoyl]phenyl]carbamoylamino]-5-[(2,4-disulfonatophenyl)carbamoyl]benzoyl]amino]benzene-1,3-disulfonate

> <PUBCHEM_IUPAC_INCHI>
InChI=1S/C41H32N6O29S8.8Na/c48-37(44-29-5-1-25(77(53,54)55)15-33(29)81(65,66)67)19-9-20(38(49)45-30-6-2-26(78(56,57)58)16-34(30)82(68,69)70)12-23(11-19)42-41(52)43-24-13-21(39(50)46-31-7-3-27(79(59,60)61)17-35(31)83(71,72)73)10-22(14-24)40(51)47-32-8-4-28(80(62,63)64)18-36(32)84(74,75)76;;;;;;;;/h1-18H,(H,44,48)(H,45,49)(H,46,50)(H,47,51)(H2,42,43,52)(H,53,54,55)(H,56,57,58)(H,59,60,61)(H,62,63,64)(H,65,66,67)(H,68,69,70)(H,71,72,73)(H,74,75,76);;;;;;;;/q;8*+1/p-8

> <PUBCHEM_IUPAC_INCHIKEY>
KCBZSNWCUJBMHF-UHFFFAOYSA-F

> <PUBCHEM_EXACT_MASS>
1503.753491

> <PUBCHEM_MOLECULAR_FORMULA>
C41H24N6Na8O29S8

> <PUBCHEM_MOLECULAR_WEIGHT>
1505.090214

> <PUBCHEM_OPENEYE_CAN_SMILES>
C1=CC(=C(C=C1S(=O)(=O)[O-])S(=O)(=O)[O-])NC(=O)C2=CC(=CC(=C2)NC(=O)NC3=CC(=CC(=C3)C(=O)NC4=C(C=C(C=C4)S(=O)(=O)[O-])S(=O)(=O)[O-])C(=O)NC5=C(C=C(C=C5)S(=O)(=O)[O-])S(=O)(=O)[O-])C(=O)NC6=C(C=C(C=C6)S(=O)(=O)[O-])S(=O)(=O)[O-].[Na+].[Na+].[Na+].[Na+].[Na+].[Na+].[Na+].[Na+]

> <PUBCHEM_OPENEYE_ISO_SMILES>
C1=CC(=C(C=C1S(=O)(=O)[O-])S(=O)(=O)[O-])NC(=O)C2=CC(=CC(=C2)NC(=O)NC3=CC(=CC(=C3)C(=O)NC4=C(C=C(C=C4)S(=O)(=O)[O-])S(=O)(=O)[O-])C(=O)NC5=C(C=C(C=C5)S(=O)(=O)[O-])S(=O)(=O)[O-])C(=O)NC6=C(C=C(C=C6)S(=O)(=O)[O-])S(=O)(=O)[O-].[Na+].[Na+].[Na+].[Na+].[Na+].[Na+].[Na+].[Na+]

> <PUBCHEM_CACTVS_TPSA>
682

> <PUBCHEM_MONOISOTOPIC_WEIGHT>
1503.753491

> <PUBCHEM_TOTAL_CHARGE>
0

> <PUBCHEM_HEAVY_ATOM_COUNT>
92

> <PUBCHEM_ATOM_DEF_STEREO_COUNT>
0

> <PUBCHEM_ATOM_UDEF_STEREO_COUNT>
0

> <PUBCHEM_BOND_DEF_STEREO_COUNT>
0

> <PUBCHEM_BOND_UDEF_STEREO_COUNT>
0

> <PUBCHEM_ISOTOPIC_ATOM_COUNT>
0

> <PUBCHEM_COMPONENT_COUNT>
9

> <PUBCHEM_CACTVS_TAUTO_COUNT>
15

> <PUBCHEM_NONSTANDARDBOND>
10  21  6
11  24  6
12  23  6
13  34  6
14  35  6
15  36  6
16  37  6
9  22  6

> <PUBCHEM_COORDINATE_TYPE>
1
5
255

> <PUBCHEM_BONDANNOTATIONS>
52  67  8
52  69  8
53  66  8
53  68  8
54  67  8
54  71  8
55  66  8
55  70  8
56  68  8
56  70  8
57  69  8
57  71  8
58  62  8
58  84  8
59  63  8
59  85  8
60  64  8
60  86  8
61  65  8
61  87  8
62  80  8
63  81  8
64  82  8
65  83  8
76  80  8
76  89  8
77  81  8
77  88  8
78  82  8
78  91  8
79  83  8
79  90  8
84  89  8
85  88  8
86  91  8
87  90  8

$$$$

