4952
  -OEChem-06261200262D

 56 56  0     1  0  0  0  0  0999 V2000
   11.3459   -2.5746    0.0000 O   0  0  0  0  0  0  0  0  0  0  0  0
    5.9236   -1.9566    0.0000 O   0  0  0  0  0  0  0  0  0  0  0  0
   13.0499    3.7041    0.0000 O   0  0  0  0  0  0  0  0  0  0  0  0
   11.3179    3.7041    0.0000 O   0  0  0  0  0  0  0  0  0  0  0  0
    9.5858   -2.2959    0.0000 C   0  0  3  0  0  0  0  0  0  0  0  0
    8.7768   -2.8837    0.0000 C   0  0  3  0  0  0  0  0  0  0  0  0
    9.5858   -1.2959    0.0000 C   0  0  0  0  0  0  0  0  0  0  0  0
   10.4518   -0.7959    0.0000 C   0  0  0  0  0  0  0  0  0  0  0  0
   10.3948   -2.8837    0.0000 C   0  0  0  0  0  0  0  0  0  0  0  0
    9.0858   -3.8347    0.0000 C   0  0  0  0  0  0  0  0  0  0  0  0
   10.4518    0.2041    0.0000 C   0  0  0  0  0  0  0  0  0  0  0  0
    7.8258   -2.5746    0.0000 C   0  0  0  0  0  0  0  0  0  0  0  0
   10.0858   -3.8347    0.0000 C   0  0  0  0  0  0  0  0  0  0  0  0
   11.3179    0.7041    0.0000 C   0  0  0  0  0  0  0  0  0  0  0  0
    7.0826   -3.2438    0.0000 C   0  0  0  0  0  0  0  0  0  0  0  0
    6.1316   -2.9348    0.0000 C   0  0  3  0  0  0  0  0  0  0  0  0
   11.3179    1.7041    0.0000 C   0  0  0  0  0  0  0  0  0  0  0  0
    5.3884   -3.6039    0.0000 C   0  0  0  0  0  0  0  0  0  0  0  0
    4.4374   -3.2949    0.0000 C   0  0  0  0  0  0  0  0  0  0  0  0
    3.6942   -3.9640    0.0000 C   0  0  0  0  0  0  0  0  0  0  0  0
   12.1839    2.2041    0.0000 C   0  0  0  0  0  0  0  0  0  0  0  0
    2.7431   -3.6550    0.0000 C   0  0  0  0  0  0  0  0  0  0  0  0
    2.0000   -4.3241    0.0000 C   0  0  0  0  0  0  0  0  0  0  0  0
   12.1839    3.2041    0.0000 C   0  0  0  0  0  0  0  0  0  0  0  0
   10.3432   -1.9100    0.0000 H   0  0  0  0  0  0  0  0  0  0  0  0
    8.1758   -3.4847    0.0000 H   0  0  0  0  0  0  0  0  0  0  0  0
    9.3738   -0.7133    0.0000 H   0  0  0  0  0  0  0  0  0  0  0  0
    8.9752   -1.4035    0.0000 H   0  0  0  0  0  0  0  0  0  0  0  0
   10.6639   -1.3785    0.0000 H   0  0  0  0  0  0  0  0  0  0  0  0
   11.0624   -0.6882    0.0000 H   0  0  0  0  0  0  0  0  0  0  0  0
    8.7214   -4.3363    0.0000 H   0  0  0  0  0  0  0  0  0  0  0  0
   10.2398    0.7867    0.0000 H   0  0  0  0  0  0  0  0  0  0  0  0
    9.8413    0.0965    0.0000 H   0  0  0  0  0  0  0  0  0  0  0  0
    7.6968   -1.9682    0.0000 H   0  0  0  0  0  0  0  0  0  0  0  0
   10.4502   -4.3363    0.0000 H   0  0  0  0  0  0  0  0  0  0  0  0
   11.5299    0.1215    0.0000 H   0  0  0  0  0  0  0  0  0  0  0  0
   11.9285    0.8118    0.0000 H   0  0  0  0  0  0  0  0  0  0  0  0
    7.2115   -3.8502    0.0000 H   0  0  0  0  0  0  0  0  0  0  0  0
    5.3232   -2.6721    0.0000 H   0  0  0  0  0  0  0  0  0  0  0  0
   11.1058    2.2867    0.0000 H   0  0  0  0  0  0  0  0  0  0  0  0
   10.7073    1.5965    0.0000 H   0  0  0  0  0  0  0  0  0  0  0  0
    5.0973   -4.1513    0.0000 H   0  0  0  0  0  0  0  0  0  0  0  0
    5.8770   -3.9856    0.0000 H   0  0  0  0  0  0  0  0  0  0  0  0
    4.7284   -2.7474    0.0000 H   0  0  0  0  0  0  0  0  0  0  0  0
    3.9488   -2.9132    0.0000 H   0  0  0  0  0  0  0  0  0  0  0  0
    3.4031   -4.5114    0.0000 H   0  0  0  0  0  0  0  0  0  0  0  0
    4.1828   -4.3457    0.0000 H   0  0  0  0  0  0  0  0  0  0  0  0
   12.3960    1.6215    0.0000 H   0  0  0  0  0  0  0  0  0  0  0  0
   12.7945    2.3118    0.0000 H   0  0  0  0  0  0  0  0  0  0  0  0
    3.0342   -3.1076    0.0000 H   0  0  0  0  0  0  0  0  0  0  0  0
    2.2546   -3.2733    0.0000 H   0  0  0  0  0  0  0  0  0  0  0  0
    5.3340   -1.7650    0.0000 H   0  0  0  0  0  0  0  0  0  0  0  0
    1.5851   -3.8634    0.0000 H   0  0  0  0  0  0  0  0  0  0  0  0
    1.5392   -4.7390    0.0000 H   0  0  0  0  0  0  0  0  0  0  0  0
    2.4149   -4.7849    0.0000 H   0  0  0  0  0  0  0  0  0  0  0  0
   13.0499    4.3241    0.0000 H   0  0  0  0  0  0  0  0  0  0  0  0
  1  9  2  0  0  0  0
  2 16  1  0  0  0  0
  2 52  1  0  0  0  0
  3 24  1  0  0  0  0
  3 56  1  0  0  0  0
  4 24  2  0  0  0  0
  5  6  1  0  0  0  0
  5  7  1  0  0  0  0
  5  9  1  0  0  0  0
  5 25  1  0  0  0  0
  6 10  1  0  0  0  0
  6 12  1  0  0  0  0
  6 26  1  0  0  0  0
  7  8  1  0  0  0  0
  7 27  1  0  0  0  0
  7 28  1  0  0  0  0
  8 11  1  0  0  0  0
  8 29  1  0  0  0  0
  8 30  1  0  0  0  0
  9 13  1  0  0  0  0
 10 13  2  0  0  0  0
 10 31  1  0  0  0  0
 11 14  1  0  0  0  0
 11 32  1  0  0  0  0
 11 33  1  0  0  0  0
 12 15  2  3  0  0  0
 12 34  1  0  0  0  0
 13 35  1  0  0  0  0
 14 17  1  0  0  0  0
 14 36  1  0  0  0  0
 14 37  1  0  0  0  0
 15 16  1  0  0  0  0
 15 38  1  0  0  0  0
 16 18  1  0  0  0  0
 16 39  1  0  0  0  0
 17 21  1  0  0  0  0
 17 40  1  0  0  0  0
 17 41  1  0  0  0  0
 18 19  1  0  0  0  0
 18 42  1  0  0  0  0
 18 43  1  0  0  0  0
 19 20  1  0  0  0  0
 19 44  1  0  0  0  0
 19 45  1  0  0  0  0
 20 22  1  0  0  0  0
 20 46  1  0  0  0  0
 20 47  1  0  0  0  0
 21 24  1  0  0  0  0
 21 48  1  0  0  0  0
 21 49  1  0  0  0  0
 22 23  1  0  0  0  0
 22 50  1  0  0  0  0
 22 51  1  0  0  0  0
 23 53  1  0  0  0  0
 23 54  1  0  0  0  0
 23 55  1  0  0  0  0
M  END
> <PUBCHEM_COMPOUND_CID>
4952

> <PUBCHEM_COMPOUND_CANONICALIZED>
1

> <PUBCHEM_CACTVS_COMPLEXITY>
439

> <PUBCHEM_CACTVS_HBOND_ACCEPTOR>
4

> <PUBCHEM_CACTVS_HBOND_DONOR>
2

> <PUBCHEM_CACTVS_ROTATABLE_BOND>
13

> <PUBCHEM_CACTVS_SUBSKEYS>
AAADcfB4OAAAAAAAAAAAAAAAAAAAAQAAAAAAAAAAAAAAAAAAAAAAGgAACAAADRSggAICCAAAAgCIAKDSCAAAAAAgAAAICAEAAEgAFBIAAQAAUAAEgAAIEYOIyOCOgAAAAAAAAAAAAAAAAAAAAAAAAAAAAA==

> <PUBCHEM_IUPAC_OPENEYE_NAME>
7-[2-(3-hydroxyoct-1-enyl)-5-oxo-cyclopent-3-en-1-yl]heptanoic acid

> <PUBCHEM_IUPAC_CAS_NAME>
7-[2-(3-hydroxyoct-1-enyl)-5-oxo-1-cyclopent-3-enyl]heptanoic acid

> <PUBCHEM_IUPAC_NAME>
7-[2-(3-hydroxyoct-1-enyl)-5-oxocyclopent-3-en-1-yl]heptanoic acid

> <PUBCHEM_IUPAC_SYSTEMATIC_NAME>
7-[2-oxidanylidene-5-(3-oxidanyloct-1-enyl)cyclopent-3-en-1-yl]heptanoic acid

> <PUBCHEM_IUPAC_TRADITIONAL_NAME>
7-[2-(3-hydroxyoct-1-enyl)-5-keto-cyclopent-3-en-1-yl]enanthic acid

> <PUBCHEM_IUPAC_INCHI>
InChI=1S/C20H32O4/c1-2-3-6-9-17(21)14-12-16-13-15-19(22)18(16)10-7-4-5-8-11-20(23)24/h12-18,21H,2-11H2,1H3,(H,23,24)

> <PUBCHEM_IUPAC_INCHIKEY>
BGKHCLZFGPIKKU-UHFFFAOYSA-N

> <PUBCHEM_XLOGP3_AA>
4.4

> <PUBCHEM_EXACT_MASS>
336.23006

> <PUBCHEM_MOLECULAR_FORMULA>
C20H32O4

> <PUBCHEM_MOLECULAR_WEIGHT>
336.46568

> <PUBCHEM_OPENEYE_CAN_SMILES>
CCCCCC(C=CC1C=CC(=O)C1CCCCCCC(=O)O)O

> <PUBCHEM_OPENEYE_ISO_SMILES>
CCCCCC(C=CC1C=CC(=O)C1CCCCCCC(=O)O)O

> <PUBCHEM_CACTVS_TPSA>
74.6

> <PUBCHEM_MONOISOTOPIC_WEIGHT>
336.23006

> <PUBCHEM_TOTAL_CHARGE>
0

> <PUBCHEM_HEAVY_ATOM_COUNT>
24

> <PUBCHEM_ATOM_DEF_STEREO_COUNT>
0

> <PUBCHEM_ATOM_UDEF_STEREO_COUNT>
3

> <PUBCHEM_BOND_DEF_STEREO_COUNT>
0

> <PUBCHEM_BOND_UDEF_STEREO_COUNT>
1

> <PUBCHEM_ISOTOPIC_ATOM_COUNT>
0

> <PUBCHEM_COMPONENT_COUNT>
1

> <PUBCHEM_CACTVS_TAUTO_COUNT>
25

> <PUBCHEM_COORDINATE_TYPE>
1
5
255

> <PUBCHEM_BONDANNOTATIONS>
12  15  1
16  39  3
5  25  3
6  26  3

$$$$

