13950
  -OEChem-06241222412D

 41 41  0     0  0  0  0  0  0999 V2000
    8.4927    0.9781    0.0000 O   0  0  0  0  0  0  0  0  0  0  0  0
    4.5032   -1.3080    0.0000 O   0  0  0  0  0  0  0  0  0  0  0  0
    2.0000   -0.3601    0.0000 O   0  5  0  0  0  0  0  0  0  0  0  0
    2.5352   -2.0074    0.0000 O   0  0  0  0  0  0  0  0  0  0  0  0
   10.3948    0.3601    0.0000 N   0  0  0  0  0  0  0  0  0  0  0  0
    7.9575   -0.6691    0.0000 N   0  0  0  0  0  0  0  0  0  0  0  0
    7.0064   -0.3601    0.0000 N   0  0  0  0  0  0  0  0  0  0  0  0
    2.7431   -1.0292    0.0000 N   0  3  0  0  0  0  0  0  0  0  0  0
   10.1869    1.3383    0.0000 C   0  0  0  0  0  0  0  0  0  0  0  0
   11.3459    0.0511    0.0000 C   0  0  0  0  0  0  0  0  0  0  0  0
    9.6517   -0.3090    0.0000 C   0  0  0  0  0  0  0  0  0  0  0  0
    9.2359    1.6473    0.0000 C   0  0  0  0  0  0  0  0  0  0  0  0
   10.9301    2.0074    0.0000 C   0  0  0  0  0  0  0  0  0  0  0  0
   11.5538   -0.9271    0.0000 C   0  0  0  0  0  0  0  0  0  0  0  0
   12.0890    0.7202    0.0000 C   0  0  0  0  0  0  0  0  0  0  0  0
    8.7006    0.0000    0.0000 C   0  0  0  0  0  0  0  0  0  0  0  0
    6.2633   -1.0292    0.0000 C   0  0  0  0  0  0  0  0  0  0  0  0
    5.3122   -0.7202    0.0000 C   0  0  0  0  0  0  0  0  0  0  0  0
    5.0032    0.2308    0.0000 C   0  0  0  0  0  0  0  0  0  0  0  0
    3.6942   -0.7202    0.0000 C   0  0  0  0  0  0  0  0  0  0  0  0
    4.0032    0.2308    0.0000 C   0  0  0  0  0  0  0  0  0  0  0  0
   10.7766    1.1467    0.0000 H   0  0  0  0  0  0  0  0  0  0  0  0
   11.2170    0.6575    0.0000 H   0  0  0  0  0  0  0  0  0  0  0  0
   10.1403   -0.6907    0.0000 H   0  0  0  0  0  0  0  0  0  0  0  0
    9.3606   -0.8564    0.0000 H   0  0  0  0  0  0  0  0  0  0  0  0
    9.0443    1.0576    0.0000 H   0  0  0  0  0  0  0  0  0  0  0  0
    8.6462    1.8389    0.0000 H   0  0  0  0  0  0  0  0  0  0  0  0
    9.4275    2.2369    0.0000 H   0  0  0  0  0  0  0  0  0  0  0  0
   10.5152    2.4681    0.0000 H   0  0  0  0  0  0  0  0  0  0  0  0
   11.3908    2.4223    0.0000 H   0  0  0  0  0  0  0  0  0  0  0  0
   11.3449    1.5466    0.0000 H   0  0  0  0  0  0  0  0  0  0  0  0
   12.1603   -0.7981    0.0000 H   0  0  0  0  0  0  0  0  0  0  0  0
   11.6827   -1.5335    0.0000 H   0  0  0  0  0  0  0  0  0  0  0  0
   10.9474   -1.0560    0.0000 H   0  0  0  0  0  0  0  0  0  0  0  0
   12.5039    0.2595    0.0000 H   0  0  0  0  0  0  0  0  0  0  0  0
   11.6742    1.1810    0.0000 H   0  0  0  0  0  0  0  0  0  0  0  0
   12.5498    1.1351    0.0000 H   0  0  0  0  0  0  0  0  0  0  0  0
    8.0864   -1.2756    0.0000 H   0  0  0  0  0  0  0  0  0  0  0  0
    6.3922   -1.6357    0.0000 H   0  0  0  0  0  0  0  0  0  0  0  0
    5.3676    0.7324    0.0000 H   0  0  0  0  0  0  0  0  0  0  0  0
    3.6388    0.7324    0.0000 H   0  0  0  0  0  0  0  0  0  0  0  0
  1 16  2  0  0  0  0
  2 18  1  0  0  0  0
  2 20  1  0  0  0  0
  3  8  1  0  0  0  0
  4  8  2  0  0  0  0
  5  9  1  0  0  0  0
  5 10  1  0  0  0  0
  5 11  1  0  0  0  0
  6  7  1  0  0  0  0
  6 16  1  0  0  0  0
  6 38  1  0  0  0  0
  7 17  2  3  0  0  0
  8 20  1  0  0  0  0
  9 12  1  0  0  0  0
  9 13  1  0  0  0  0
  9 22  1  0  0  0  0
 10 14  1  0  0  0  0
 10 15  1  0  0  0  0
 10 23  1  0  0  0  0
 11 16  1  0  0  0  0
 11 24  1  0  0  0  0
 11 25  1  0  0  0  0
 12 26  1  0  0  0  0
 12 27  1  0  0  0  0
 12 28  1  0  0  0  0
 13 29  1  0  0  0  0
 13 30  1  0  0  0  0
 13 31  1  0  0  0  0
 14 32  1  0  0  0  0
 14 33  1  0  0  0  0
 14 34  1  0  0  0  0
 15 35  1  0  0  0  0
 15 36  1  0  0  0  0
 15 37  1  0  0  0  0
 17 18  1  0  0  0  0
 17 39  1  0  0  0  0
 18 19  2  0  0  0  0
 19 21  1  0  0  0  0
 19 40  1  0  0  0  0
 20 21  2  0  0  0  0
 21 41  1  0  0  0  0
M  CHG  2   3  -1   8   1
M  END
> <PUBCHEM_COMPOUND_CID>
13950

> <PUBCHEM_COMPOUND_CANONICALIZED>
1

> <PUBCHEM_CACTVS_COMPLEXITY>
384

> <PUBCHEM_CACTVS_HBOND_ACCEPTOR>
6

> <PUBCHEM_CACTVS_HBOND_DONOR>
1

> <PUBCHEM_CACTVS_ROTATABLE_BOND>
6

> <PUBCHEM_CACTVS_SUBSKEYS>
AAADceBzuAAAAAAAAAAAAAAAAAAAASAAAAAAAAAAAAAAAAABgAAAHgAcAAAACCzBkAQyhINyRECpALFzUwSSCAAsIgA6iAGubNoMZrKEtbuaGSDk2BGI6Ya8AAAAAAAAAAAAAAAAAAAAAAAAAAAAAAAAAA==

> <PUBCHEM_IUPAC_OPENEYE_NAME>
2-(diisopropylamino)-N-[(5-nitro-2-furyl)methyleneamino]acetamide

> <PUBCHEM_IUPAC_CAS_NAME>
2-[di(propan-2-yl)amino]-N-[(5-nitro-2-furanyl)methylideneamino]acetamide

> <PUBCHEM_IUPAC_NAME>
2-[di(propan-2-yl)amino]-N-[(5-nitrofuran-2-yl)methylideneamino]acetamide

> <PUBCHEM_IUPAC_SYSTEMATIC_NAME>
2-[di(propan-2-yl)amino]-N-[(5-nitrofuran-2-yl)methylideneamino]ethanamide

> <PUBCHEM_IUPAC_TRADITIONAL_NAME>
2-(diisopropylamino)-N-[(5-nitro-2-furyl)methyleneamino]acetamide

> <PUBCHEM_IUPAC_INCHI>
InChI=1S/C13H20N4O4/c1-9(2)16(10(3)4)8-12(18)15-14-7-11-5-6-13(21-11)17(19)20/h5-7,9-10H,8H2,1-4H3,(H,15,18)

> <PUBCHEM_IUPAC_INCHIKEY>
HDSDGRXOONRLIE-UHFFFAOYSA-N

> <PUBCHEM_XLOGP3>
2.5

> <PUBCHEM_EXACT_MASS>
296.148455

> <PUBCHEM_MOLECULAR_FORMULA>
C13H20N4O4

> <PUBCHEM_MOLECULAR_WEIGHT>
296.3223

> <PUBCHEM_OPENEYE_CAN_SMILES>
CC(C)N(CC(=O)NN=CC1=CC=C(O1)[N+](=O)[O-])C(C)C

> <PUBCHEM_OPENEYE_ISO_SMILES>
CC(C)N(CC(=O)NN=CC1=CC=C(O1)[N+](=O)[O-])C(C)C

> <PUBCHEM_CACTVS_TPSA>
104

> <PUBCHEM_MONOISOTOPIC_WEIGHT>
296.148455

> <PUBCHEM_TOTAL_CHARGE>
0

> <PUBCHEM_HEAVY_ATOM_COUNT>
21

> <PUBCHEM_ATOM_DEF_STEREO_COUNT>
0

> <PUBCHEM_ATOM_UDEF_STEREO_COUNT>
0

> <PUBCHEM_BOND_DEF_STEREO_COUNT>
0

> <PUBCHEM_BOND_UDEF_STEREO_COUNT>
1

> <PUBCHEM_ISOTOPIC_ATOM_COUNT>
0

> <PUBCHEM_COMPONENT_COUNT>
1

> <PUBCHEM_CACTVS_TAUTO_COUNT>
2

> <PUBCHEM_COORDINATE_TYPE>
1
5
255

> <PUBCHEM_BONDANNOTATIONS>
18  19  8
19  21  8
2  18  8
2  20  8
20  21  8
7  17  1

$$$$

