17396413
  -OEChem-06241222562D

 40 42  0     1  0  0  0  0  0999 V2000
    6.3301   -1.9807    0.0000 O   0  0  0  0  0  0  0  0  0  0  0  0
    5.4641   -0.4807    0.0000 N   0  0  0  0  0  0  0  0  0  0  0  0
    9.8744    0.8240    0.0000 N   0  0  0  0  0  0  0  0  0  0  0  0
    9.8744   -0.7855    0.0000 N   0  0  0  0  0  0  0  0  0  0  0  0
   10.4580    0.0193    0.0000 N   0  0  0  0  0  0  0  0  0  0  0  0
    4.5981   -0.9807    0.0000 C   0  0  3  0  0  0  0  0  0  0  0  0
    8.9282    0.5193    0.0000 C   0  0  0  0  0  0  0  0  0  0  0  0
    3.7320   -0.4807    0.0000 C   0  0  0  0  0  0  0  0  0  0  0  0
    7.1962   -0.4807    0.0000 C   0  0  0  0  0  0  0  0  0  0  0  0
    8.9282   -0.4807    0.0000 C   0  0  0  0  0  0  0  0  0  0  0  0
    8.0622   -0.9807    0.0000 C   0  0  0  0  0  0  0  0  0  0  0  0
    6.3301   -0.9807    0.0000 C   0  0  0  0  0  0  0  0  0  0  0  0
    4.5981   -1.9807    0.0000 C   0  0  0  0  0  0  0  0  0  0  0  0
    8.0622    1.0193    0.0000 C   0  0  0  0  0  0  0  0  0  0  0  0
   10.1851    1.7745    0.0000 C   0  0  0  0  0  0  0  0  0  0  0  0
    7.1962    0.5193    0.0000 C   0  0  0  0  0  0  0  0  0  0  0  0
    3.7320    0.5193    0.0000 C   0  0  0  0  0  0  0  0  0  0  0  0
    2.8660   -0.9807    0.0000 C   0  0  0  0  0  0  0  0  0  0  0  0
   11.1636    1.9807    0.0000 C   0  0  0  0  0  0  0  0  0  0  0  0
    2.8660    1.0193    0.0000 C   0  0  0  0  0  0  0  0  0  0  0  0
    2.0000   -0.4807    0.0000 C   0  0  0  0  0  0  0  0  0  0  0  0
    2.0000    0.5193    0.0000 C   0  0  0  0  0  0  0  0  0  0  0  0
    4.5981   -0.3607    0.0000 H   0  0  0  0  0  0  0  0  0  0  0  0
    5.4641    0.1393    0.0000 H   0  0  0  0  0  0  0  0  0  0  0  0
    8.0622   -1.6007    0.0000 H   0  0  0  0  0  0  0  0  0  0  0  0
    3.9781   -1.9807    0.0000 H   0  0  0  0  0  0  0  0  0  0  0  0
    4.5981   -2.6007    0.0000 H   0  0  0  0  0  0  0  0  0  0  0  0
    5.2181   -1.9807    0.0000 H   0  0  0  0  0  0  0  0  0  0  0  0
    8.0622    1.6393    0.0000 H   0  0  0  0  0  0  0  0  0  0  0  0
   10.1645    2.3942    0.0000 H   0  0  0  0  0  0  0  0  0  0  0  0
    9.5713    1.8619    0.0000 H   0  0  0  0  0  0  0  0  0  0  0  0
    6.6592    0.8293    0.0000 H   0  0  0  0  0  0  0  0  0  0  0  0
    4.2690    0.8293    0.0000 H   0  0  0  0  0  0  0  0  0  0  0  0
    2.8660   -1.6007    0.0000 H   0  0  0  0  0  0  0  0  0  0  0  0
   11.2914    1.3741    0.0000 H   0  0  0  0  0  0  0  0  0  0  0  0
   11.7703    2.1086    0.0000 H   0  0  0  0  0  0  0  0  0  0  0  0
   11.0357    2.5874    0.0000 H   0  0  0  0  0  0  0  0  0  0  0  0
    2.8660    1.6393    0.0000 H   0  0  0  0  0  0  0  0  0  0  0  0
    1.4631   -0.7907    0.0000 H   0  0  0  0  0  0  0  0  0  0  0  0
    1.4631    0.8293    0.0000 H   0  0  0  0  0  0  0  0  0  0  0  0
  1 12  2  0  0  0  0
  2  6  1  0  0  0  0
  2 12  1  0  0  0  0
  2 24  1  0  0  0  0
  3  5  1  0  0  0  0
  3  7  1  0  0  0  0
  3 15  1  0  0  0  0
  4  5  2  0  0  0  0
  4 10  1  0  0  0  0
  6  8  1  0  0  0  0
  6 13  1  0  0  0  0
  6 23  1  0  0  0  0
  7 10  2  0  0  0  0
  7 14  1  0  0  0  0
  8 17  2  0  0  0  0
  8 18  1  0  0  0  0
  9 11  2  0  0  0  0
  9 12  1  0  0  0  0
  9 16  1  0  0  0  0
 10 11  1  0  0  0  0
 11 25  1  0  0  0  0
 13 26  1  0  0  0  0
 13 27  1  0  0  0  0
 13 28  1  0  0  0  0
 14 16  2  0  0  0  0
 14 29  1  0  0  0  0
 15 19  1  0  0  0  0
 15 30  1  0  0  0  0
 15 31  1  0  0  0  0
 16 32  1  0  0  0  0
 17 20  1  0  0  0  0
 17 33  1  0  0  0  0
 18 21  2  0  0  0  0
 18 34  1  0  0  0  0
 19 35  1  0  0  0  0
 19 36  1  0  0  0  0
 19 37  1  0  0  0  0
 20 22  2  0  0  0  0
 20 38  1  0  0  0  0
 21 22  1  0  0  0  0
 21 39  1  0  0  0  0
 22 40  1  0  0  0  0
M  END
> <PUBCHEM_COMPOUND_CID>
17396413

> <PUBCHEM_COMPOUND_CANONICALIZED>
1

> <PUBCHEM_CACTVS_COMPLEXITY>
383

> <PUBCHEM_CACTVS_HBOND_ACCEPTOR>
3

> <PUBCHEM_CACTVS_HBOND_DONOR>
1

> <PUBCHEM_CACTVS_ROTATABLE_BOND>
4

> <PUBCHEM_CACTVS_SUBSKEYS>
AAADceB7oAAAAAAAAAAAAAAAAAAAAWAAAAAwYAAAAAAAAFgB9AAAHgAYAAAADCjBngQywLLIAACqAyVyVACCBAQlkgAY2KE4dNgIYLLAlZGUIQhglgDIyYcciYCeCAAAQAAAACAQAACAAAAAQAAAAAAAAA==

> <PUBCHEM_IUPAC_OPENEYE_NAME>
1-ethyl-N-(1-phenylethyl)benzotriazole-5-carboxamide

> <PUBCHEM_IUPAC_CAS_NAME>
1-ethyl-N-(1-phenylethyl)-5-benzotriazolecarboxamide

> <PUBCHEM_IUPAC_NAME>
1-ethyl-N-(1-phenylethyl)benzotriazole-5-carboxamide

> <PUBCHEM_IUPAC_SYSTEMATIC_NAME>
1-ethyl-N-(1-phenylethyl)benzotriazole-5-carboxamide

> <PUBCHEM_IUPAC_TRADITIONAL_NAME>
1-ethyl-N-(1-phenylethyl)benzotriazole-5-carboxamide

> <PUBCHEM_IUPAC_INCHI>
InChI=1S/C17H18N4O/c1-3-21-16-10-9-14(11-15(16)19-20-21)17(22)18-12(2)13-7-5-4-6-8-13/h4-12H,3H2,1-2H3,(H,18,22)

> <PUBCHEM_IUPAC_INCHIKEY>
SVTIXKDWDBWFGT-UHFFFAOYSA-N

> <PUBCHEM_XLOGP3>
2.8

> <PUBCHEM_EXACT_MASS>
294.148061

> <PUBCHEM_MOLECULAR_FORMULA>
C17H18N4O

> <PUBCHEM_MOLECULAR_WEIGHT>
294.35102

> <PUBCHEM_OPENEYE_CAN_SMILES>
CCN1C2=C(C=C(C=C2)C(=O)NC(C)C3=CC=CC=C3)N=N1

> <PUBCHEM_OPENEYE_ISO_SMILES>
CCN1C2=C(C=C(C=C2)C(=O)NC(C)C3=CC=CC=C3)N=N1

> <PUBCHEM_CACTVS_TPSA>
59.8

> <PUBCHEM_MONOISOTOPIC_WEIGHT>
294.148061

> <PUBCHEM_TOTAL_CHARGE>
0

> <PUBCHEM_HEAVY_ATOM_COUNT>
22

> <PUBCHEM_ATOM_DEF_STEREO_COUNT>
0

> <PUBCHEM_ATOM_UDEF_STEREO_COUNT>
1

> <PUBCHEM_BOND_DEF_STEREO_COUNT>
0

> <PUBCHEM_BOND_UDEF_STEREO_COUNT>
0

> <PUBCHEM_ISOTOPIC_ATOM_COUNT>
0

> <PUBCHEM_COMPONENT_COUNT>
1

> <PUBCHEM_CACTVS_TAUTO_COUNT>
2

> <PUBCHEM_COORDINATE_TYPE>
1
5
255

> <PUBCHEM_BONDANNOTATIONS>
10  11  8
14  16  8
17  20  8
18  21  8
20  22  8
21  22  8
3  5  8
3  7  8
4  10  8
4  5  8
6  13  3
7  10  8
7  14  8
8  17  8
8  18  8
9  11  8
9  16  8

$$$$

