14169
  -OEChem-06241222422D

 42 44  0     0  0  0  0  0  0999 V2000
    4.6660   -0.2327    0.0000 N   0  0  0  0  0  0  0  0  0  0  0  0
    6.3981    2.7673    0.0000 N   0  0  0  0  0  0  0  0  0  0  0  0
    4.6660   -3.2327    0.0000 N   0  0  0  0  0  0  0  0  0  0  0  0
    5.5321    1.2673    0.0000 C   0  0  0  0  0  0  0  0  0  0  0  0
    5.5321    0.2673    0.0000 C   0  0  0  0  0  0  0  0  0  0  0  0
    4.6660   -1.2327    0.0000 C   0  0  0  0  0  0  0  0  0  0  0  0
    6.3981    1.7673    0.0000 C   0  0  0  0  0  0  0  0  0  0  0  0
    3.8000   -1.7327    0.0000 C   0  0  0  0  0  0  0  0  0  0  0  0
    5.5321   -1.7327    0.0000 C   0  0  0  0  0  0  0  0  0  0  0  0
    3.8000   -2.7327    0.0000 C   0  0  0  0  0  0  0  0  0  0  0  0
    5.5321   -2.7327    0.0000 C   0  0  0  0  0  0  0  0  0  0  0  0
    2.9061   -1.1980    0.0000 C   0  0  0  0  0  0  0  0  0  0  0  0
    6.4260   -1.1980    0.0000 C   0  0  0  0  0  0  0  0  0  0  0  0
    2.9061   -3.2673    0.0000 C   0  0  0  0  0  0  0  0  0  0  0  0
    6.4260   -3.2673    0.0000 C   0  0  0  0  0  0  0  0  0  0  0  0
    7.2641    3.2673    0.0000 C   0  0  0  0  0  0  0  0  0  0  0  0
    5.5321    3.2673    0.0000 C   0  0  0  0  0  0  0  0  0  0  0  0
    2.0000   -1.7118    0.0000 C   0  0  0  0  0  0  0  0  0  0  0  0
    7.3321   -1.7118    0.0000 C   0  0  0  0  0  0  0  0  0  0  0  0
    2.0000   -2.7535    0.0000 C   0  0  0  0  0  0  0  0  0  0  0  0
    7.3321   -2.7535    0.0000 C   0  0  0  0  0  0  0  0  0  0  0  0
    5.3200    1.8499    0.0000 H   0  0  0  0  0  0  0  0  0  0  0  0
    4.9215    1.1597    0.0000 H   0  0  0  0  0  0  0  0  0  0  0  0
    5.7441   -0.3153    0.0000 H   0  0  0  0  0  0  0  0  0  0  0  0
    6.1426    0.3750    0.0000 H   0  0  0  0  0  0  0  0  0  0  0  0
    6.6101    1.1847    0.0000 H   0  0  0  0  0  0  0  0  0  0  0  0
    7.0087    1.8750    0.0000 H   0  0  0  0  0  0  0  0  0  0  0  0
    4.1291    0.0773    0.0000 H   0  0  0  0  0  0  0  0  0  0  0  0
    2.9132   -0.5780    0.0000 H   0  0  0  0  0  0  0  0  0  0  0  0
    6.4188   -0.5780    0.0000 H   0  0  0  0  0  0  0  0  0  0  0  0
    2.9132   -3.8873    0.0000 H   0  0  0  0  0  0  0  0  0  0  0  0
    6.4188   -3.8873    0.0000 H   0  0  0  0  0  0  0  0  0  0  0  0
    5.8421    3.8043    0.0000 H   0  0  0  0  0  0  0  0  0  0  0  0
    7.5741    2.7304    0.0000 H   0  0  0  0  0  0  0  0  0  0  0  0
    7.8010    3.5773    0.0000 H   0  0  0  0  0  0  0  0  0  0  0  0
    6.9541    3.8043    0.0000 H   0  0  0  0  0  0  0  0  0  0  0  0
    4.9951    3.5773    0.0000 H   0  0  0  0  0  0  0  0  0  0  0  0
    5.2221    2.7304    0.0000 H   0  0  0  0  0  0  0  0  0  0  0  0
    1.4643   -1.3998    0.0000 H   0  0  0  0  0  0  0  0  0  0  0  0
    7.8678   -1.3998    0.0000 H   0  0  0  0  0  0  0  0  0  0  0  0
    1.4643   -3.0656    0.0000 H   0  0  0  0  0  0  0  0  0  0  0  0
    7.8678   -3.0656    0.0000 H   0  0  0  0  0  0  0  0  0  0  0  0
  1  5  1  0  0  0  0
  1  6  1  0  0  0  0
  1 28  1  0  0  0  0
  2  7  1  0  0  0  0
  2 16  1  0  0  0  0
  2 17  1  0  0  0  0
  3 10  2  0  0  0  0
  3 11  1  0  0  0  0
  4  5  1  0  0  0  0
  4  7  1  0  0  0  0
  4 22  1  0  0  0  0
  4 23  1  0  0  0  0
  5 24  1  0  0  0  0
  5 25  1  0  0  0  0
  6  8  2  0  0  0  0
  6  9  1  0  0  0  0
  7 26  1  0  0  0  0
  7 27  1  0  0  0  0
  8 10  1  0  0  0  0
  8 12  1  0  0  0  0
  9 11  1  0  0  0  0
  9 13  2  0  0  0  0
 10 14  1  0  0  0  0
 11 15  2  0  0  0  0
 12 18  2  0  0  0  0
 12 29  1  0  0  0  0
 13 19  1  0  0  0  0
 13 30  1  0  0  0  0
 14 20  2  0  0  0  0
 14 31  1  0  0  0  0
 15 21  1  0  0  0  0
 15 32  1  0  0  0  0
 16 34  1  0  0  0  0
 16 35  1  0  0  0  0
 16 36  1  0  0  0  0
 17 33  1  0  0  0  0
 17 37  1  0  0  0  0
 17 38  1  0  0  0  0
 18 20  1  0  0  0  0
 18 39  1  0  0  0  0
 19 21  2  0  0  0  0
 19 40  1  0  0  0  0
 20 41  1  0  0  0  0
 21 42  1  0  0  0  0
M  END
> <PUBCHEM_COMPOUND_CID>
14169

> <PUBCHEM_COMPOUND_CANONICALIZED>
1

> <PUBCHEM_CACTVS_COMPLEXITY>
296

> <PUBCHEM_CACTVS_HBOND_ACCEPTOR>
3

> <PUBCHEM_CACTVS_HBOND_DONOR>
1

> <PUBCHEM_CACTVS_ROTATABLE_BOND>
5

> <PUBCHEM_CACTVS_SUBSKEYS>
AAADceB7AAAAAAAAAAAAAAAAAAAAAAAAAAA8YIAAAAAAAACx/AAAHAAQAAAADAjBHgQywPPIEACgAyRiRACCgCAhAiAImKA4ZJgIIOLA0dGEJAhgkADIyAcQgMAOAAAAAAACAAAAAAAAAAQAAAAAAAAAAA==

> <PUBCHEM_IUPAC_OPENEYE_NAME>
N-acridin-9-yl-N',N'-dimethyl-propane-1,3-diamine

> <PUBCHEM_IUPAC_CAS_NAME>
N-(9-acridinyl)-N',N'-dimethylpropane-1,3-diamine

> <PUBCHEM_IUPAC_NAME>
N-acridin-9-yl-N',N'-dimethylpropane-1,3-diamine

> <PUBCHEM_IUPAC_SYSTEMATIC_NAME>
N-acridin-9-yl-N',N'-dimethyl-propane-1,3-diamine

> <PUBCHEM_IUPAC_TRADITIONAL_NAME>
3-(acridin-9-ylamino)propyl-dimethyl-amine

> <PUBCHEM_IUPAC_INCHI>
InChI=1S/C18H21N3/c1-21(2)13-7-12-19-18-14-8-3-5-10-16(14)20-17-11-6-4-9-15(17)18/h3-6,8-11H,7,12-13H2,1-2H3,(H,19,20)

> <PUBCHEM_IUPAC_INCHIKEY>
VJGUBCUGFXDMEX-UHFFFAOYSA-N

> <PUBCHEM_XLOGP3_AA>
3.9

> <PUBCHEM_EXACT_MASS>
279.173548

> <PUBCHEM_MOLECULAR_FORMULA>
C18H21N3

> <PUBCHEM_MOLECULAR_WEIGHT>
279.37944

> <PUBCHEM_OPENEYE_CAN_SMILES>
CN(C)CCCNC1=C2C=CC=CC2=NC3=CC=CC=C31

> <PUBCHEM_OPENEYE_ISO_SMILES>
CN(C)CCCNC1=C2C=CC=CC2=NC3=CC=CC=C31

> <PUBCHEM_CACTVS_TPSA>
28.2

> <PUBCHEM_MONOISOTOPIC_WEIGHT>
279.173548

> <PUBCHEM_TOTAL_CHARGE>
0

> <PUBCHEM_HEAVY_ATOM_COUNT>
21

> <PUBCHEM_ATOM_DEF_STEREO_COUNT>
0

> <PUBCHEM_ATOM_UDEF_STEREO_COUNT>
0

> <PUBCHEM_BOND_DEF_STEREO_COUNT>
0

> <PUBCHEM_BOND_UDEF_STEREO_COUNT>
0

> <PUBCHEM_ISOTOPIC_ATOM_COUNT>
0

> <PUBCHEM_COMPONENT_COUNT>
1

> <PUBCHEM_CACTVS_TAUTO_COUNT>
2

> <PUBCHEM_COORDINATE_TYPE>
1
5
255

> <PUBCHEM_BONDANNOTATIONS>
10  14  8
11  15  8
12  18  8
13  19  8
14  20  8
15  21  8
18  20  8
19  21  8
3  10  8
3  11  8
6  8  8
6  9  8
8  10  8
8  12  8
9  11  8
9  13  8

$$$$

