854066
  -OEChem-06241222472D

 27 28  0     1  0  0  0  0  0999 V2000
    5.5202    0.1481    0.0000 S   0  0  0  0  0  0  0  0  0  0  0  0
    2.0000    0.1481    0.0000 O   0  0  0  0  0  0  0  0  0  0  0  0
    3.7601   -0.1307    0.0000 N   0  0  0  0  0  0  0  0  0  0  0  0
    4.2601    1.4081    0.0000 N   0  0  0  0  0  0  0  0  0  0  0  0
    3.2601    1.4081    0.0000 C   0  0  2  0  0  0  0  0  0  0  0  0
    2.6723    2.2172    0.0000 C   0  0  0  0  0  0  0  0  0  0  0  0
    2.9511    0.4571    0.0000 C   0  0  0  0  0  0  0  0  0  0  0  0
    4.5691    0.4571    0.0000 C   0  0  0  0  0  0  0  0  0  0  0  0
    3.7601   -1.1307    0.0000 C   0  0  0  0  0  0  0  0  0  0  0  0
    3.0790    3.1307    0.0000 C   0  0  0  0  0  0  0  0  0  0  0  0
    2.8940   -1.6307    0.0000 C   0  0  0  0  0  0  0  0  0  0  0  0
    4.6261   -1.6307    0.0000 C   0  0  0  0  0  0  0  0  0  0  0  0
    2.8940   -2.6307    0.0000 C   0  0  0  0  0  0  0  0  0  0  0  0
    4.6261   -2.6307    0.0000 C   0  0  0  0  0  0  0  0  0  0  0  0
    3.7601   -3.1307    0.0000 C   0  0  0  0  0  0  0  0  0  0  0  0
    3.5416    1.9606    0.0000 H   0  0  0  0  0  0  0  0  0  0  0  0
    2.1583    2.5639    0.0000 H   0  0  0  0  0  0  0  0  0  0  0  0
    2.2416    1.7712    0.0000 H   0  0  0  0  0  0  0  0  0  0  0  0
    4.6245    1.9097    0.0000 H   0  0  0  0  0  0  0  0  0  0  0  0
    3.6454    2.8785    0.0000 H   0  0  0  0  0  0  0  0  0  0  0  0
    3.3312    3.6971    0.0000 H   0  0  0  0  0  0  0  0  0  0  0  0
    2.5126    3.3829    0.0000 H   0  0  0  0  0  0  0  0  0  0  0  0
    2.3571   -1.3207    0.0000 H   0  0  0  0  0  0  0  0  0  0  0  0
    5.1630   -1.3207    0.0000 H   0  0  0  0  0  0  0  0  0  0  0  0
    2.3571   -2.9407    0.0000 H   0  0  0  0  0  0  0  0  0  0  0  0
    5.1630   -2.9407    0.0000 H   0  0  0  0  0  0  0  0  0  0  0  0
    3.7601   -3.7507    0.0000 H   0  0  0  0  0  0  0  0  0  0  0  0
  1  8  2  0  0  0  0
  2  7  2  0  0  0  0
  3  7  1  0  0  0  0
  3  8  1  0  0  0  0
  3  9  1  0  0  0  0
  4  5  1  0  0  0  0
  4  8  1  0  0  0  0
  4 19  1  0  0  0  0
  5  6  1  1  0  0  0
  5  7  1  0  0  0  0
  5 16  1  0  0  0  0
  6 10  1  0  0  0  0
  6 17  1  0  0  0  0
  6 18  1  0  0  0  0
  9 11  2  0  0  0  0
  9 12  1  0  0  0  0
 10 20  1  0  0  0  0
 10 21  1  0  0  0  0
 10 22  1  0  0  0  0
 11 13  1  0  0  0  0
 11 23  1  0  0  0  0
 12 14  2  0  0  0  0
 12 24  1  0  0  0  0
 13 15  2  0  0  0  0
 13 25  1  0  0  0  0
 14 15  1  0  0  0  0
 14 26  1  0  0  0  0
 15 27  1  0  0  0  0
M  END
> <PUBCHEM_COMPOUND_CID>
854066

> <PUBCHEM_COMPOUND_CANONICALIZED>
1

> <PUBCHEM_CACTVS_COMPLEXITY>
274

> <PUBCHEM_CACTVS_HBOND_ACCEPTOR>
2

> <PUBCHEM_CACTVS_HBOND_DONOR>
1

> <PUBCHEM_CACTVS_ROTATABLE_BOND>
2

> <PUBCHEM_CACTVS_SUBSKEYS>
AAADccBzIABAAAAAAAAAAAAAAAAAAWAAAAAwAAAAAAAAAAABAAAAHgQQAAAACCjBkAQzwIPAAACMACVSUACCAAAhAgkIiIGIZIiIYDLAkbGUIAholQLIyCcQAAAAAAAAAAAAAAAAAAAAAAAAAAAAAAAAAA==

> <PUBCHEM_IUPAC_OPENEYE_NAME>
(5R)-5-ethyl-3-phenyl-2-thioxo-imidazolidin-4-one

> <PUBCHEM_IUPAC_CAS_NAME>
(5R)-5-ethyl-3-phenyl-2-sulfanylidene-4-imidazolidinone

> <PUBCHEM_IUPAC_NAME>
(5R)-5-ethyl-3-phenyl-2-sulfanylideneimidazolidin-4-one

> <PUBCHEM_IUPAC_SYSTEMATIC_NAME>
(5R)-5-ethyl-3-phenyl-2-sulfanylidene-imidazolidin-4-one

> <PUBCHEM_IUPAC_TRADITIONAL_NAME>
(5R)-5-ethyl-3-phenyl-2-thioxo-4-imidazolidinone

> <PUBCHEM_IUPAC_INCHI>
InChI=1S/C11H12N2OS/c1-2-9-10(14)13(11(15)12-9)8-6-4-3-5-7-8/h3-7,9H,2H2,1H3,(H,12,15)/t9-/m1/s1

> <PUBCHEM_IUPAC_INCHIKEY>
HIDHIQVHRMAIHA-SECBINFHSA-N

> <PUBCHEM_XLOGP3_AA>
2.2

> <PUBCHEM_EXACT_MASS>
220.067034

> <PUBCHEM_MOLECULAR_FORMULA>
C11H12N2OS

> <PUBCHEM_MOLECULAR_WEIGHT>
220.29078

> <PUBCHEM_OPENEYE_CAN_SMILES>
CCC1C(=O)N(C(=S)N1)C2=CC=CC=C2

> <PUBCHEM_OPENEYE_ISO_SMILES>
CC[C@@H]1C(=O)N(C(=S)N1)C2=CC=CC=C2

> <PUBCHEM_CACTVS_TPSA>
64.4

> <PUBCHEM_MONOISOTOPIC_WEIGHT>
220.067034

> <PUBCHEM_TOTAL_CHARGE>
0

> <PUBCHEM_HEAVY_ATOM_COUNT>
15

> <PUBCHEM_ATOM_DEF_STEREO_COUNT>
1

> <PUBCHEM_ATOM_UDEF_STEREO_COUNT>
0

> <PUBCHEM_BOND_DEF_STEREO_COUNT>
0

> <PUBCHEM_BOND_UDEF_STEREO_COUNT>
0

> <PUBCHEM_ISOTOPIC_ATOM_COUNT>
0

> <PUBCHEM_COMPONENT_COUNT>
1

> <PUBCHEM_CACTVS_TAUTO_COUNT>
4

> <PUBCHEM_COORDINATE_TYPE>
1
5
255

> <PUBCHEM_BONDANNOTATIONS>
11  13  8
12  14  8
13  15  8
14  15  8
5  6  5
9  11  8
9  12  8

$$$$

