6453
  -OEChem-06261201202D

 46 48  0     1  0  0  0  0  0999 V2000
    4.8777   -2.6103    0.0000 O   0  0  0  0  0  0  0  0  0  0  0  0
    6.4613   -1.8056    0.0000 O   0  0  0  0  0  0  0  0  0  0  0  0
    3.2852    1.1120    0.0000 N   0  0  0  0  0  0  0  0  0  0  0  0
    4.8777   -1.0008    0.0000 C   0  0  3  0  0  0  0  0  0  0  0  0
    4.5703   -0.0492    0.0000 C   0  0  0  0  0  0  0  0  0  0  0  0
    3.9315   -1.3056    0.0000 C   0  0  0  0  0  0  0  0  0  0  0  0
    3.5925    0.1604    0.0000 C   0  0  0  0  0  0  0  0  0  0  0  0
    5.6877   -0.4144    0.0000 C   0  0  0  0  0  0  0  0  0  0  0  0
    5.4613   -1.8056    0.0000 C   0  0  0  0  0  0  0  0  0  0  0  0
    3.9315   -2.3056    0.0000 C   0  0  0  0  0  0  0  0  0  0  0  0
    3.0654   -0.8055    0.0000 C   0  0  0  0  0  0  0  0  0  0  0  0
    2.3074    1.3216    0.0000 C   0  0  0  0  0  0  0  0  0  0  0  0
    3.9556    1.8540    0.0000 C   0  0  0  0  0  0  0  0  0  0  0  0
    6.6006   -0.8227    0.0000 C   0  0  0  0  0  0  0  0  0  0  0  0
    5.5849    0.5803    0.0000 C   0  0  0  0  0  0  0  0  0  0  0  0
    3.0654   -2.8056    0.0000 C   0  0  0  0  0  0  0  0  0  0  0  0
    2.1994   -1.3056    0.0000 C   0  0  0  0  0  0  0  0  0  0  0  0
    2.1994   -2.3056    0.0000 C   0  0  0  0  0  0  0  0  0  0  0  0
    7.4106   -0.2364    0.0000 C   0  0  0  0  0  0  0  0  0  0  0  0
    6.3949    1.1667    0.0000 C   0  0  0  0  0  0  0  0  0  0  0  0
    3.6482    2.8056    0.0000 C   0  0  0  0  0  0  0  0  0  0  0  0
    2.0000    2.2732    0.0000 C   0  0  0  0  0  0  0  0  0  0  0  0
    7.3078    0.7583    0.0000 C   0  0  0  0  0  0  0  0  0  0  0  0
    5.1844    0.0360    0.0000 H   0  0  0  0  0  0  0  0  0  0  0  0
    4.5930    0.5704    0.0000 H   0  0  0  0  0  0  0  0  0  0  0  0
    2.9784    0.0752    0.0000 H   0  0  0  0  0  0  0  0  0  0  0  0
    3.5698   -0.4592    0.0000 H   0  0  0  0  0  0  0  0  0  0  0  0
    3.0654   -0.1855    0.0000 H   0  0  0  0  0  0  0  0  0  0  0  0
    1.6933    1.2364    0.0000 H   0  0  0  0  0  0  0  0  0  0  0  0
    2.2847    0.7020    0.0000 H   0  0  0  0  0  0  0  0  0  0  0  0
    4.3364    1.3647    0.0000 H   0  0  0  0  0  0  0  0  0  0  0  0
    4.5035    2.1441    0.0000 H   0  0  0  0  0  0  0  0  0  0  0  0
    6.6643   -1.4395    0.0000 H   0  0  0  0  0  0  0  0  0  0  0  0
    5.0190    0.8334    0.0000 H   0  0  0  0  0  0  0  0  0  0  0  0
    3.0654   -3.4256    0.0000 H   0  0  0  0  0  0  0  0  0  0  0  0
    1.6625   -0.9955    0.0000 H   0  0  0  0  0  0  0  0  0  0  0  0
    1.6625   -2.6156    0.0000 H   0  0  0  0  0  0  0  0  0  0  0  0
    7.9766   -0.4895    0.0000 H   0  0  0  0  0  0  0  0  0  0  0  0
    6.3312    1.7834    0.0000 H   0  0  0  0  0  0  0  0  0  0  0  0
    4.2382    2.9961    0.0000 H   0  0  0  0  0  0  0  0  0  0  0  0
    3.4576    3.3955    0.0000 H   0  0  0  0  0  0  0  0  0  0  0  0
    2.5900    2.4637    0.0000 H   0  0  0  0  0  0  0  0  0  0  0  0
    1.8094    2.8632    0.0000 H   0  0  0  0  0  0  0  0  0  0  0  0
    1.4100    2.0826    0.0000 H   0  0  0  0  0  0  0  0  0  0  0  0
    3.0582    2.6150    0.0000 H   0  0  0  0  0  0  0  0  0  0  0  0
    7.8100    1.1219    0.0000 H   0  0  0  0  0  0  0  0  0  0  0  0
  1  9  1  0  0  0  0
  1 10  1  0  0  0  0
  2  9  2  0  0  0  0
  3  7  1  0  0  0  0
  3 12  1  0  0  0  0
  3 13  1  0  0  0  0
  4  5  1  0  0  0  0
  4  6  1  0  0  0  0
  4  8  1  0  0  0  0
  4  9  1  0  0  0  0
  5  7  1  0  0  0  0
  5 24  1  0  0  0  0
  5 25  1  0  0  0  0
  6 10  1  0  0  0  0
  6 11  2  0  0  0  0
  7 26  1  0  0  0  0
  7 27  1  0  0  0  0
  8 14  2  0  0  0  0
  8 15  1  0  0  0  0
 10 16  2  0  0  0  0
 11 17  1  0  0  0  0
 11 28  1  0  0  0  0
 12 22  1  0  0  0  0
 12 29  1  0  0  0  0
 12 30  1  0  0  0  0
 13 21  1  0  0  0  0
 13 31  1  0  0  0  0
 13 32  1  0  0  0  0
 14 19  1  0  0  0  0
 14 33  1  0  0  0  0
 15 20  2  0  0  0  0
 15 34  1  0  0  0  0
 16 18  1  0  0  0  0
 16 35  1  0  0  0  0
 17 18  2  0  0  0  0
 17 36  1  0  0  0  0
 18 37  1  0  0  0  0
 19 23  2  0  0  0  0
 19 38  1  0  0  0  0
 20 23  1  0  0  0  0
 20 39  1  0  0  0  0
 21 40  1  0  0  0  0
 21 41  1  0  0  0  0
 21 45  1  0  0  0  0
 22 42  1  0  0  0  0
 22 43  1  0  0  0  0
 22 44  1  0  0  0  0
 23 46  1  0  0  0  0
M  END
> <PUBCHEM_COMPOUND_CID>
6453

> <PUBCHEM_COMPOUND_CANONICALIZED>
1

> <PUBCHEM_CACTVS_COMPLEXITY>
400

> <PUBCHEM_CACTVS_HBOND_ACCEPTOR>
3

> <PUBCHEM_CACTVS_HBOND_DONOR>
0

> <PUBCHEM_CACTVS_ROTATABLE_BOND>
6

> <PUBCHEM_CACTVS_SUBSKEYS>
AAADceB6MAAAAAAAAAAAAAAAAAAAASAAAAAwYAAAAAAAAEgBQAAAHgAAAAAADgTBmAQyDoMABACIAiDSCAACCAAgIAAIiAEOCIgMJjKEtRqGOiCkwBGIqAe+2OKPgAAAAAAIAAAAAAAAABAAAAAAAAAAAA==

> <PUBCHEM_IUPAC_OPENEYE_NAME>
3-[2-(diethylamino)ethyl]-3-phenyl-benzofuran-2-one

> <PUBCHEM_IUPAC_CAS_NAME>
3-[2-(diethylamino)ethyl]-3-phenyl-2-benzofuranone

> <PUBCHEM_IUPAC_NAME>
3-[2-(diethylamino)ethyl]-3-phenyl-1-benzofuran-2-one

> <PUBCHEM_IUPAC_SYSTEMATIC_NAME>
3-[2-(diethylamino)ethyl]-3-phenyl-1-benzofuran-2-one

> <PUBCHEM_IUPAC_TRADITIONAL_NAME>
3-[2-(diethylamino)ethyl]-3-phenyl-coumaran-2-one

> <PUBCHEM_IUPAC_INCHI>
InChI=1S/C20H23NO2/c1-3-21(4-2)15-14-20(16-10-6-5-7-11-16)17-12-8-9-13-18(17)23-19(20)22/h5-13H,3-4,14-15H2,1-2H3

> <PUBCHEM_IUPAC_INCHIKEY>
HPITVGRITATAFY-UHFFFAOYSA-N

> <PUBCHEM_XLOGP3_AA>
4

> <PUBCHEM_EXACT_MASS>
309.172879

> <PUBCHEM_MOLECULAR_FORMULA>
C20H23NO2

> <PUBCHEM_MOLECULAR_WEIGHT>
309.40212

> <PUBCHEM_OPENEYE_CAN_SMILES>
CCN(CC)CCC1(C2=CC=CC=C2OC1=O)C3=CC=CC=C3

> <PUBCHEM_OPENEYE_ISO_SMILES>
CCN(CC)CCC1(C2=CC=CC=C2OC1=O)C3=CC=CC=C3

> <PUBCHEM_CACTVS_TPSA>
29.5

> <PUBCHEM_MONOISOTOPIC_WEIGHT>
309.172879

> <PUBCHEM_TOTAL_CHARGE>
0

> <PUBCHEM_HEAVY_ATOM_COUNT>
23

> <PUBCHEM_ATOM_DEF_STEREO_COUNT>
0

> <PUBCHEM_ATOM_UDEF_STEREO_COUNT>
1

> <PUBCHEM_BOND_DEF_STEREO_COUNT>
0

> <PUBCHEM_BOND_UDEF_STEREO_COUNT>
0

> <PUBCHEM_ISOTOPIC_ATOM_COUNT>
0

> <PUBCHEM_COMPONENT_COUNT>
1

> <PUBCHEM_CACTVS_TAUTO_COUNT>
1

> <PUBCHEM_COORDINATE_TYPE>
1
5
255

> <PUBCHEM_BONDANNOTATIONS>
10  16  8
11  17  8
14  19  8
15  20  8
16  18  8
17  18  8
19  23  8
20  23  8
4  5  3
6  10  8
6  11  8
8  14  8
8  15  8

$$$$

