12769
  -OEChem-06261207202D

 22 22  0     0  0  0  0  0  0999 V2000
    2.5369    1.0000    0.0000 O   0  0  0  0  0  0  0  0  0  0  0  0
    5.1350    0.5000    0.0000 C   0  0  0  0  0  0  0  0  0  0  0  0
    4.2690    1.0000    0.0000 C   0  0  0  0  0  0  0  0  0  0  0  0
    4.2690   -1.0000    0.0000 C   0  0  0  0  0  0  0  0  0  0  0  0
    5.1350   -0.5000    0.0000 C   0  0  0  0  0  0  0  0  0  0  0  0
    3.4030    0.5000    0.0000 C   0  0  0  0  0  0  0  0  0  0  0  0
    3.4030   -0.5000    0.0000 C   0  0  0  0  0  0  0  0  0  0  0  0
    6.0010    1.0000    0.0000 C   0  0  0  0  0  0  0  0  0  0  0  0
    4.2690    2.0000    0.0000 C   0  0  0  0  0  0  0  0  0  0  0  0
    4.2690   -2.0000    0.0000 C   0  0  0  0  0  0  0  0  0  0  0  0
    5.6720   -0.8100    0.0000 H   0  0  0  0  0  0  0  0  0  0  0  0
    2.8660   -0.8100    0.0000 H   0  0  0  0  0  0  0  0  0  0  0  0
    6.3110    0.4631    0.0000 H   0  0  0  0  0  0  0  0  0  0  0  0
    6.5380    1.3100    0.0000 H   0  0  0  0  0  0  0  0  0  0  0  0
    5.6910    1.5369    0.0000 H   0  0  0  0  0  0  0  0  0  0  0  0
    4.8890    2.0000    0.0000 H   0  0  0  0  0  0  0  0  0  0  0  0
    4.2690    2.6200    0.0000 H   0  0  0  0  0  0  0  0  0  0  0  0
    3.6490    2.0000    0.0000 H   0  0  0  0  0  0  0  0  0  0  0  0
    3.6490   -2.0000    0.0000 H   0  0  0  0  0  0  0  0  0  0  0  0
    4.2690   -2.6200    0.0000 H   0  0  0  0  0  0  0  0  0  0  0  0
    4.8890   -2.0000    0.0000 H   0  0  0  0  0  0  0  0  0  0  0  0
    2.0000    0.6900    0.0000 H   0  0  0  0  0  0  0  0  0  0  0  0
  1  6  1  0  0  0  0
  1 22  1  0  0  0  0
  2  3  2  0  0  0  0
  2  5  1  0  0  0  0
  2  8  1  0  0  0  0
  3  6  1  0  0  0  0
  3  9  1  0  0  0  0
  4  5  2  0  0  0  0
  4  7  1  0  0  0  0
  4 10  1  0  0  0  0
  5 11  1  0  0  0  0
  6  7  2  0  0  0  0
  7 12  1  0  0  0  0
  8 13  1  0  0  0  0
  8 14  1  0  0  0  0
  8 15  1  0  0  0  0
  9 16  1  0  0  0  0
  9 17  1  0  0  0  0
  9 18  1  0  0  0  0
 10 19  1  0  0  0  0
 10 20  1  0  0  0  0
 10 21  1  0  0  0  0
M  END
> <PUBCHEM_COMPOUND_CID>
12769

> <PUBCHEM_COMPOUND_CANONICALIZED>
1

> <PUBCHEM_CACTVS_COMPLEXITY>
111

> <PUBCHEM_CACTVS_HBOND_ACCEPTOR>
1

> <PUBCHEM_CACTVS_HBOND_DONOR>
1

> <PUBCHEM_CACTVS_ROTATABLE_BOND>
0

> <PUBCHEM_CACTVS_SUBSKEYS>
AAADccBwIAAAAAAAAAAAAAAAAAAAAAAAAAAwAAAAAAAAAAABAAAAGgAACAAADASAmAAyBoAAAgCAAiBCAAACAAAgIAAAiAAGCIgIJiKCERKAcAAkwBEImAeAwPAOwAADAAAYAACAAAYAADAAAAAAAAAAAA==

> <PUBCHEM_IUPAC_OPENEYE_NAME>
2,3,5-trimethylphenol

> <PUBCHEM_IUPAC_CAS_NAME>
2,3,5-trimethylphenol

> <PUBCHEM_IUPAC_NAME>
2,3,5-trimethylphenol

> <PUBCHEM_IUPAC_SYSTEMATIC_NAME>
2,3,5-trimethylphenol

> <PUBCHEM_IUPAC_TRADITIONAL_NAME>
2,3,5-trimethylphenol

> <PUBCHEM_IUPAC_INCHI>
InChI=1S/C9H12O/c1-6-4-7(2)8(3)9(10)5-6/h4-5,10H,1-3H3

> <PUBCHEM_IUPAC_INCHIKEY>
OGRAOKJKVGDSFR-UHFFFAOYSA-N

> <PUBCHEM_XLOGP3_AA>
2.7

> <PUBCHEM_EXACT_MASS>
136.088815

> <PUBCHEM_MOLECULAR_FORMULA>
C9H12O

> <PUBCHEM_MOLECULAR_WEIGHT>
136.19098

> <PUBCHEM_OPENEYE_CAN_SMILES>
CC1=CC(=C(C(=C1)O)C)C

> <PUBCHEM_OPENEYE_ISO_SMILES>
CC1=CC(=C(C(=C1)O)C)C

> <PUBCHEM_CACTVS_TPSA>
20.2

> <PUBCHEM_MONOISOTOPIC_WEIGHT>
136.088815

> <PUBCHEM_TOTAL_CHARGE>
0

> <PUBCHEM_HEAVY_ATOM_COUNT>
10

> <PUBCHEM_ATOM_DEF_STEREO_COUNT>
0

> <PUBCHEM_ATOM_UDEF_STEREO_COUNT>
0

> <PUBCHEM_BOND_DEF_STEREO_COUNT>
0

> <PUBCHEM_BOND_UDEF_STEREO_COUNT>
0

> <PUBCHEM_ISOTOPIC_ATOM_COUNT>
0

> <PUBCHEM_COMPONENT_COUNT>
1

> <PUBCHEM_CACTVS_TAUTO_COUNT>
17

> <PUBCHEM_COORDINATE_TYPE>
1
5
255

> <PUBCHEM_BONDANNOTATIONS>
2  3  8
2  5  8
3  6  8
4  5  8
4  7  8
6  7  8

$$$$

