13825
  -OEChem-06241222402D

  9  8  0     0  0  0  0  0  0999 V2000
    3.7320   -1.2500    0.0000 Br  0  0  0  0  0  0  0  0  0  0  0  0
    5.4641   -0.2500    0.0000 O   0  5  0  0  0  0  0  0  0  0  0  0
    2.0000   -0.2500    0.0000 O   0  5  0  0  0  0  0  0  0  0  0  0
    4.5981    1.2500    0.0000 O   0  0  0  0  0  0  0  0  0  0  0  0
    2.8660    1.2500    0.0000 O   0  0  0  0  0  0  0  0  0  0  0  0
    4.5981    0.2500    0.0000 N   0  3  0  0  0  0  0  0  0  0  0  0
    2.8660    0.2500    0.0000 N   0  3  0  0  0  0  0  0  0  0  0  0
    3.7320   -0.2500    0.0000 C   0  0  0  0  0  0  0  0  0  0  0  0
    3.7320    0.3700    0.0000 H   0  0  0  0  0  0  0  0  0  0  0  0
  1  8  1  0  0  0  0
  2  6  1  0  0  0  0
  3  7  1  0  0  0  0
  4  6  2  0  0  0  0
  5  7  2  0  0  0  0
  6  8  1  0  0  0  0
  7  8  1  0  0  0  0
  8  9  1  0  0  0  0
M  CHG  4   2  -1   3  -1   6   1   7   1
M  END
> <PUBCHEM_COMPOUND_CID>
13825

> <PUBCHEM_COMPOUND_CANONICALIZED>
1

> <PUBCHEM_CACTVS_COMPLEXITY>
98.2

> <PUBCHEM_CACTVS_HBOND_ACCEPTOR>
4

> <PUBCHEM_CACTVS_HBOND_DONOR>
0

> <PUBCHEM_CACTVS_ROTATABLE_BOND>
0

> <PUBCHEM_CACTVS_SUBSKEYS>
AAADcQADOAAAEAAAAAAAAAAAAAAAAAAAAAAAAAAAAAAAAAAAAAAAFABEAAAAQAAAAAQBAAAQQAABAAAAAwAAAAAAAAAAAAAAAAAAAAAAAAAAAAAAAAAAAAAAAAAAAAAAAAAAAAAAAAAAAAAAAAAAAAAAAA==

> <PUBCHEM_IUPAC_OPENEYE_NAME>
bromo(dinitro)methane

> <PUBCHEM_IUPAC_CAS_NAME>
bromo(dinitro)methane

> <PUBCHEM_IUPAC_NAME>
bromo(dinitro)methane

> <PUBCHEM_IUPAC_SYSTEMATIC_NAME>
bromanyl(dinitro)methane

> <PUBCHEM_IUPAC_TRADITIONAL_NAME>
bromo(dinitro)methane

> <PUBCHEM_IUPAC_INCHI>
InChI=1S/CHBrN2O4/c2-1(3(5)6)4(7)8/h1H

> <PUBCHEM_IUPAC_INCHIKEY>
GJPMCGKOSHNWNL-UHFFFAOYSA-N

> <PUBCHEM_XLOGP3_AA>
1

> <PUBCHEM_EXACT_MASS>
183.911969

> <PUBCHEM_MOLECULAR_FORMULA>
CHBrN2O4

> <PUBCHEM_MOLECULAR_WEIGHT>
184.93364

> <PUBCHEM_OPENEYE_CAN_SMILES>
C([N+](=O)[O-])([N+](=O)[O-])Br

> <PUBCHEM_OPENEYE_ISO_SMILES>
C([N+](=O)[O-])([N+](=O)[O-])Br

> <PUBCHEM_CACTVS_TPSA>
91.6

> <PUBCHEM_MONOISOTOPIC_WEIGHT>
183.911969

> <PUBCHEM_TOTAL_CHARGE>
0

> <PUBCHEM_HEAVY_ATOM_COUNT>
8

> <PUBCHEM_ATOM_DEF_STEREO_COUNT>
0

> <PUBCHEM_ATOM_UDEF_STEREO_COUNT>
0

> <PUBCHEM_BOND_DEF_STEREO_COUNT>
0

> <PUBCHEM_BOND_UDEF_STEREO_COUNT>
0

> <PUBCHEM_ISOTOPIC_ATOM_COUNT>
0

> <PUBCHEM_COMPONENT_COUNT>
1

> <PUBCHEM_CACTVS_TAUTO_COUNT>
2

> <PUBCHEM_COORDINATE_TYPE>
1
5
255

$$$$

