4859
  -OEChem-06261200222D

105107  0     0  0  0  0  0  0999 V2000
    5.0981    0.6376    0.0000 S   0  0  0  0  0  0  0  0  0  0  0  0
    9.7736    0.1988    0.0000 S   0  0  0  0  0  0  0  0  0  0  0  0
    7.0559   -3.6310    0.0000 S   0  0  0  0  0  0  0  0  0  0  0  0
    4.5981   -0.9013    0.0000 N   0  3  0  0  0  0  0  0  0  0  0  0
    8.6910    1.4013    0.0000 N   0  3  0  0  0  0  0  0  0  0  0  0
    8.6386   -3.2946    0.0000 N   0  0  0  0  0  0  0  0  0  0  0  0
    3.7320   -2.4013    0.0000 C   0  0  0  0  0  0  0  0  0  0  0  0
    3.7320   -3.4013    0.0000 C   0  0  0  0  0  0  0  0  0  0  0  0
    4.5981   -1.9013    0.0000 C   0  0  0  0  0  0  0  0  0  0  0  0
    2.8660   -3.9013    0.0000 C   0  0  0  0  0  0  0  0  0  0  0  0
    7.8249    2.9013    0.0000 C   0  0  0  0  0  0  0  0  0  0  0  0
    6.9589    3.4013    0.0000 C   0  0  0  0  0  0  0  0  0  0  0  0
   10.3706   -3.2946    0.0000 C   0  0  0  0  0  0  0  0  0  0  0  0
   11.2367   -2.7946    0.0000 C   0  0  0  0  0  0  0  0  0  0  0  0
    7.8249    1.9013    0.0000 C   0  0  0  0  0  0  0  0  0  0  0  0
    9.5046   -2.7946    0.0000 C   0  0  0  0  0  0  0  0  0  0  0  0
    6.9589    4.4013    0.0000 C   0  0  0  0  0  0  0  0  0  0  0  0
   12.1027   -3.2946    0.0000 C   0  0  0  0  0  0  0  0  0  0  0  0
    2.8660   -4.9013    0.0000 C   0  0  0  0  0  0  0  0  0  0  0  0
    5.4071   -0.3135    0.0000 C   0  0  0  0  0  0  0  0  0  0  0  0
    6.0929    4.9013    0.0000 C   0  0  0  0  0  0  0  0  0  0  0  0
   12.9687   -2.7946    0.0000 C   0  0  0  0  0  0  0  0  0  0  0  0
    3.7891   -0.3135    0.0000 C   0  0  0  0  0  0  0  0  0  0  0  0
    6.3582   -0.6225    0.0000 C   0  0  0  0  0  0  0  0  0  0  0  0
    2.0000   -5.4013    0.0000 C   0  0  0  0  0  0  0  0  0  0  0  0
    8.7955    0.4067    0.0000 C   0  0  0  0  0  0  0  0  0  0  0  0
    7.7250   -2.8878    0.0000 C   0  0  0  0  0  0  0  0  0  0  0  0
    9.6045    1.8080    0.0000 C   0  0  0  0  0  0  0  0  0  0  0  0
    8.5340   -4.2891    0.0000 C   0  0  0  0  0  0  0  0  0  0  0  0
    6.0929    5.9013    0.0000 C   0  0  0  0  0  0  0  0  0  0  0  0
   13.8347   -3.2946    0.0000 C   0  0  0  0  0  0  0  0  0  0  0  0
    4.0981    0.6376    0.0000 C   0  0  0  0  0  0  0  0  0  0  0  0
    7.1013    0.0466    0.0000 C   0  0  0  0  0  0  0  0  0  0  0  0
    6.5661   -1.6006    0.0000 C   0  0  0  0  0  0  0  0  0  0  0  0
    8.0524   -0.2624    0.0000 C   0  0  0  0  0  0  0  0  0  0  0  0
    7.5171   -1.9097    0.0000 C   0  0  0  0  0  0  0  0  0  0  0  0
    2.8380   -0.6225    0.0000 C   0  0  0  0  0  0  0  0  0  0  0  0
   10.2736    1.0649    0.0000 C   0  0  0  0  0  0  0  0  0  0  0  0
    7.5559   -4.4970    0.0000 C   0  0  0  0  0  0  0  0  0  0  0  0
    2.0000   -6.4013    0.0000 C   0  0  0  0  0  0  0  0  0  0  0  0
    9.8124    2.7862    0.0000 C   0  0  0  0  0  0  0  0  0  0  0  0
    9.2772   -4.9582    0.0000 C   0  0  0  0  0  0  0  0  0  0  0  0
    5.2269    6.4013    0.0000 C   0  0  0  0  0  0  0  0  0  0  0  0
   14.7008   -2.7946    0.0000 C   0  0  0  0  0  0  0  0  0  0  0  0
    3.5200   -1.8187    0.0000 H   0  0  0  0  0  0  0  0  0  0  0  0
    3.1215   -2.5089    0.0000 H   0  0  0  0  0  0  0  0  0  0  0  0
    3.9441   -3.9839    0.0000 H   0  0  0  0  0  0  0  0  0  0  0  0
    4.3426   -3.2936    0.0000 H   0  0  0  0  0  0  0  0  0  0  0  0
    4.8101   -2.4839    0.0000 H   0  0  0  0  0  0  0  0  0  0  0  0
    5.2087   -1.7936    0.0000 H   0  0  0  0  0  0  0  0  0  0  0  0
    2.6540   -3.3187    0.0000 H   0  0  0  0  0  0  0  0  0  0  0  0
    2.2554   -4.0089    0.0000 H   0  0  0  0  0  0  0  0  0  0  0  0
    8.4355    2.7936    0.0000 H   0  0  0  0  0  0  0  0  0  0  0  0
    8.0370    3.4839    0.0000 H   0  0  0  0  0  0  0  0  0  0  0  0
    6.3483    3.5089    0.0000 H   0  0  0  0  0  0  0  0  0  0  0  0
    6.7469    2.8187    0.0000 H   0  0  0  0  0  0  0  0  0  0  0  0
    9.9721   -3.7695    0.0000 H   0  0  0  0  0  0  0  0  0  0  0  0
   10.7692   -3.7695    0.0000 H   0  0  0  0  0  0  0  0  0  0  0  0
   11.6352   -2.3196    0.0000 H   0  0  0  0  0  0  0  0  0  0  0  0
   10.8381   -2.3196    0.0000 H   0  0  0  0  0  0  0  0  0  0  0  0
    7.2144    2.0089    0.0000 H   0  0  0  0  0  0  0  0  0  0  0  0
    7.6129    1.3187    0.0000 H   0  0  0  0  0  0  0  0  0  0  0  0
    9.9031   -2.3196    0.0000 H   0  0  0  0  0  0  0  0  0  0  0  0
    9.1061   -2.3196    0.0000 H   0  0  0  0  0  0  0  0  0  0  0  0
    7.5695    4.2936    0.0000 H   0  0  0  0  0  0  0  0  0  0  0  0
    7.1710    4.9839    0.0000 H   0  0  0  0  0  0  0  0  0  0  0  0
   11.7041   -3.7695    0.0000 H   0  0  0  0  0  0  0  0  0  0  0  0
   12.5012   -3.7695    0.0000 H   0  0  0  0  0  0  0  0  0  0  0  0
    3.0781   -5.4839    0.0000 H   0  0  0  0  0  0  0  0  0  0  0  0
    3.4766   -4.7936    0.0000 H   0  0  0  0  0  0  0  0  0  0  0  0
    5.4823    5.0089    0.0000 H   0  0  0  0  0  0  0  0  0  0  0  0
    5.8808    4.3187    0.0000 H   0  0  0  0  0  0  0  0  0  0  0  0
   13.3672   -2.3196    0.0000 H   0  0  0  0  0  0  0  0  0  0  0  0
   12.5702   -2.3196    0.0000 H   0  0  0  0  0  0  0  0  0  0  0  0
    1.7880   -4.8187    0.0000 H   0  0  0  0  0  0  0  0  0  0  0  0
    1.3894   -5.5089    0.0000 H   0  0  0  0  0  0  0  0  0  0  0  0
    6.7035    5.7936    0.0000 H   0  0  0  0  0  0  0  0  0  0  0  0
    6.3049    6.4839    0.0000 H   0  0  0  0  0  0  0  0  0  0  0  0
   13.4362   -3.7695    0.0000 H   0  0  0  0  0  0  0  0  0  0  0  0
   14.2333   -3.7695    0.0000 H   0  0  0  0  0  0  0  0  0  0  0  0
    3.7336    1.1392    0.0000 H   0  0  0  0  0  0  0  0  0  0  0  0
    6.9724    0.6531    0.0000 H   0  0  0  0  0  0  0  0  0  0  0  0
    6.1053   -2.0155    0.0000 H   0  0  0  0  0  0  0  0  0  0  0  0
    8.1813   -0.8688    0.0000 H   0  0  0  0  0  0  0  0  0  0  0  0
    7.9779   -1.4948    0.0000 H   0  0  0  0  0  0  0  0  0  0  0  0
    2.6464   -0.0328    0.0000 H   0  0  0  0  0  0  0  0  0  0  0  0
    2.2484   -0.8141    0.0000 H   0  0  0  0  0  0  0  0  0  0  0  0
    3.0296   -1.2122    0.0000 H   0  0  0  0  0  0  0  0  0  0  0  0
   10.8902    1.1297    0.0000 H   0  0  0  0  0  0  0  0  0  0  0  0
    7.3037   -5.0634    0.0000 H   0  0  0  0  0  0  0  0  0  0  0  0
    1.3800   -6.4013    0.0000 H   0  0  0  0  0  0  0  0  0  0  0  0
    2.0000   -7.0213    0.0000 H   0  0  0  0  0  0  0  0  0  0  0  0
    2.6200   -6.4013    0.0000 H   0  0  0  0  0  0  0  0  0  0  0  0
   10.4189    2.6572    0.0000 H   0  0  0  0  0  0  0  0  0  0  0  0
    9.9413    3.3926    0.0000 H   0  0  0  0  0  0  0  0  0  0  0  0
    9.2060    2.9151    0.0000 H   0  0  0  0  0  0  0  0  0  0  0  0
    8.8623   -5.4190    0.0000 H   0  0  0  0  0  0  0  0  0  0  0  0
    9.7379   -5.3731    0.0000 H   0  0  0  0  0  0  0  0  0  0  0  0
    9.6920   -4.4974    0.0000 H   0  0  0  0  0  0  0  0  0  0  0  0
    5.5369    6.9382    0.0000 H   0  0  0  0  0  0  0  0  0  0  0  0
    4.6899    6.7113    0.0000 H   0  0  0  0  0  0  0  0  0  0  0  0
    4.9169    5.8643    0.0000 H   0  0  0  0  0  0  0  0  0  0  0  0
   15.0108   -3.3315    0.0000 H   0  0  0  0  0  0  0  0  0  0  0  0
   15.2377   -2.4846    0.0000 H   0  0  0  0  0  0  0  0  0  0  0  0
   14.3908   -2.2576    0.0000 H   0  0  0  0  0  0  0  0  0  0  0  0
  1 20  1  0  0  0  0
  1 32  1  0  0  0  0
  2 26  1  0  0  0  0
  2 38  1  0  0  0  0
  3 27  1  0  0  0  0
  3 39  1  0  0  0  0
  4  9  1  0  0  0  0
  4 20  2  0  0  0  0
  4 23  1  0  0  0  0
  5 15  1  0  0  0  0
  5 26  2  0  0  0  0
  5 28  1  0  0  0  0
  6 16  1  0  0  0  0
  6 27  1  0  0  0  0
  6 29  1  0  0  0  0
  7  8  1  0  0  0  0
  7  9  1  0  0  0  0
  7 45  1  0  0  0  0
  7 46  1  0  0  0  0
  8 10  1  0  0  0  0
  8 47  1  0  0  0  0
  8 48  1  0  0  0  0
  9 49  1  0  0  0  0
  9 50  1  0  0  0  0
 10 19  1  0  0  0  0
 10 51  1  0  0  0  0
 10 52  1  0  0  0  0
 11 12  1  0  0  0  0
 11 15  1  0  0  0  0
 11 53  1  0  0  0  0
 11 54  1  0  0  0  0
 12 17  1  0  0  0  0
 12 55  1  0  0  0  0
 12 56  1  0  0  0  0
 13 14  1  0  0  0  0
 13 16  1  0  0  0  0
 13 57  1  0  0  0  0
 13 58  1  0  0  0  0
 14 18  1  0  0  0  0
 14 59  1  0  0  0  0
 14 60  1  0  0  0  0
 15 61  1  0  0  0  0
 15 62  1  0  0  0  0
 16 63  1  0  0  0  0
 16 64  1  0  0  0  0
 17 21  1  0  0  0  0
 17 65  1  0  0  0  0
 17 66  1  0  0  0  0
 18 22  1  0  0  0  0
 18 67  1  0  0  0  0
 18 68  1  0  0  0  0
 19 25  1  0  0  0  0
 19 69  1  0  0  0  0
 19 70  1  0  0  0  0
 20 24  1  0  0  0  0
 21 30  1  0  0  0  0
 21 71  1  0  0  0  0
 21 72  1  0  0  0  0
 22 31  1  0  0  0  0
 22 73  1  0  0  0  0
 22 74  1  0  0  0  0
 23 32  2  0  0  0  0
 23 37  1  0  0  0  0
 24 33  1  0  0  0  0
 24 34  2  3  0  0  0
 25 40  1  0  0  0  0
 25 75  1  0  0  0  0
 25 76  1  0  0  0  0
 26 35  1  0  0  0  0
 27 36  2  3  0  0  0
 28 38  2  0  0  0  0
 28 41  1  0  0  0  0
 29 39  2  0  0  0  0
 29 42  1  0  0  0  0
 30 43  1  0  0  0  0
 30 77  1  0  0  0  0
 30 78  1  0  0  0  0
 31 44  1  0  0  0  0
 31 79  1  0  0  0  0
 31 80  1  0  0  0  0
 32 81  1  0  0  0  0
 33 35  2  3  0  0  0
 33 82  1  0  0  0  0
 34 36  1  0  0  0  0
 34 83  1  0  0  0  0
 35 84  1  0  0  0  0
 36 85  1  0  0  0  0
 37 86  1  0  0  0  0
 37 87  1  0  0  0  0
 37 88  1  0  0  0  0
 38 89  1  0  0  0  0
 39 90  1  0  0  0  0
 40 91  1  0  0  0  0
 40 92  1  0  0  0  0
 40 93  1  0  0  0  0
 41 94  1  0  0  0  0
 41 95  1  0  0  0  0
 41 96  1  0  0  0  0
 42 97  1  0  0  0  0
 42 98  1  0  0  0  0
 42 99  1  0  0  0  0
 43100  1  0  0  0  0
 43101  1  0  0  0  0
 43102  1  0  0  0  0
 44103  1  0  0  0  0
 44104  1  0  0  0  0
 44105  1  0  0  0  0
M  CHG  2   4   1   5   1
M  END
> <PUBCHEM_COMPOUND_CID>
4859

> <PUBCHEM_COMPOUND_CANONICALIZED>
1

> <PUBCHEM_CACTVS_COMPLEXITY>
862

> <PUBCHEM_CACTVS_HBOND_ACCEPTOR>
4

> <PUBCHEM_CACTVS_HBOND_DONOR>
0

> <PUBCHEM_CACTVS_ROTATABLE_BOND>
22

> <PUBCHEM_CACTVS_SUBSKEYS>
AAADcfB/AABgAAAAAAAAAAAAAAAAAWLEAAAAAAAAAAAAAAAB4AAAHAQAAAAADAjFVgSigRMMEAikAyRiRACA8KBhCjgISBQ4IBgIAAIggQAEAAAAAACogAMQgAAAAAAAAAAAAAAAAAAAAAAAAAAAAAAAAA==

> <PUBCHEM_IUPAC_OPENEYE_NAME>
2-[3,5-bis(3-heptyl-4-methyl-thiazol-3-ium-2-yl)penta-2,4-dienylidene]-3-heptyl-4-methyl-thiazole

> <PUBCHEM_IUPAC_CAS_NAME>
2-[3,5-bis(3-heptyl-4-methyl-2-thiazol-3-iumyl)penta-2,4-dienylidene]-3-heptyl-4-methylthiazole

> <PUBCHEM_IUPAC_NAME>
2-[3,5-bis(3-heptyl-4-methyl-1,3-thiazol-3-ium-2-yl)penta-2,4-dienylidene]-3-heptyl-4-methyl-1,3-thiazole

> <PUBCHEM_IUPAC_SYSTEMATIC_NAME>
2-[3,5-bis(3-heptyl-4-methyl-1,3-thiazol-3-ium-2-yl)penta-2,4-dienylidene]-3-heptyl-4-methyl-1,3-thiazole

> <PUBCHEM_IUPAC_TRADITIONAL_NAME>
2-[3,5-bis(3-heptyl-4-methyl-thiazol-3-ium-2-yl)penta-2,4-dienylidene]-3-heptyl-4-methyl-4-thiazoline

> <PUBCHEM_IUPAC_INCHI>
InChI=1S/C38H61N3S3/c1-7-10-13-16-19-26-39-32(4)29-42-36(39)24-22-35(38-41(34(6)31-44-38)28-21-18-15-12-9-3)23-25-37-40(33(5)30-43-37)27-20-17-14-11-8-2/h22-25,29-31H,7-21,26-28H2,1-6H3/q+2

> <PUBCHEM_IUPAC_INCHIKEY>
FKFUHAJJKUCVRF-UHFFFAOYSA-N

> <PUBCHEM_XLOGP3_AA>
14.2

> <PUBCHEM_EXACT_MASS>
655.402762

> <PUBCHEM_MOLECULAR_FORMULA>
C38H61N3S3+2

> <PUBCHEM_MOLECULAR_WEIGHT>
656.10604

> <PUBCHEM_OPENEYE_CAN_SMILES>
CCCCCCCN1C(=CSC1=CC=C(C=CC2=[N+](C(=CS2)C)CCCCCCC)C3=[N+](C(=CS3)C)CCCCCCC)C

> <PUBCHEM_OPENEYE_ISO_SMILES>
CCCCCCCN1C(=CSC1=CC=C(C=CC2=[N+](C(=CS2)C)CCCCCCC)C3=[N+](C(=CS3)C)CCCCCCC)C

> <PUBCHEM_CACTVS_TPSA>
92.8

> <PUBCHEM_MONOISOTOPIC_WEIGHT>
655.402762

> <PUBCHEM_TOTAL_CHARGE>
2

> <PUBCHEM_HEAVY_ATOM_COUNT>
44

> <PUBCHEM_ATOM_DEF_STEREO_COUNT>
0

> <PUBCHEM_ATOM_UDEF_STEREO_COUNT>
0

> <PUBCHEM_BOND_DEF_STEREO_COUNT>
0

> <PUBCHEM_BOND_UDEF_STEREO_COUNT>
3

> <PUBCHEM_ISOTOPIC_ATOM_COUNT>
0

> <PUBCHEM_COMPONENT_COUNT>
1

> <PUBCHEM_CACTVS_TAUTO_COUNT>
1

> <PUBCHEM_COORDINATE_TYPE>
1
5
255

> <PUBCHEM_BONDANNOTATIONS>
1  20  8
1  32  8
2  26  8
2  38  8
23  32  8
24  34  1
27  36  1
28  38  8
33  35  1
4  20  8
4  23  8
5  26  8
5  28  8

$$$$

