17395775
  -OEChem-06241222522D

 42 44  0     1  0  0  0  0  0999 V2000
    4.3211    0.6218    0.0000 O   0  0  0  0  0  0  0  0  0  0  0  0
    6.2781    1.0342    0.0000 N   0  0  0  0  0  0  0  0  0  0  0  0
    4.6783   -2.6825    0.0000 N   0  0  0  0  0  0  0  0  0  0  0  0
    7.2693    1.1668    0.0000 C   0  0  0  0  0  0  0  0  0  0  0  0
    5.5565    1.7265    0.0000 C   0  0  0  0  0  0  0  0  0  0  0  0
    5.6479    2.7224    0.0000 C   0  0  0  0  0  0  0  0  0  0  0  0
    7.7837    2.0243    0.0000 C   0  0  0  0  0  0  0  0  0  0  0  0
    5.9674    0.0837    0.0000 C   0  0  3  0  0  0  0  0  0  0  0  0
    7.4339    2.9612    0.0000 C   0  0  0  0  0  0  0  0  0  0  0  0
    6.4834    3.2718    0.0000 C   0  0  0  0  0  0  0  0  0  0  0  0
    4.9889   -0.1225    0.0000 C   0  0  0  0  0  0  0  0  0  0  0  0
    6.6353   -0.6606    0.0000 C   0  0  0  0  0  0  0  0  0  0  0  0
    4.6783   -1.0730    0.0000 C   0  0  0  0  0  0  0  0  0  0  0  0
    3.7320   -1.3778    0.0000 C   0  0  0  0  0  0  0  0  0  0  0  0
    5.2619   -1.8778    0.0000 C   0  0  0  0  0  0  0  0  0  0  0  0
    3.7320   -2.3778    0.0000 C   0  0  0  0  0  0  0  0  0  0  0  0
    2.8660   -0.8778    0.0000 C   0  0  0  0  0  0  0  0  0  0  0  0
    2.8660   -2.8778    0.0000 C   0  0  0  0  0  0  0  0  0  0  0  0
    2.0000   -1.3778    0.0000 C   0  0  0  0  0  0  0  0  0  0  0  0
    2.0000   -2.3778    0.0000 C   0  0  0  0  0  0  0  0  0  0  0  0
    7.2126    0.5493    0.0000 H   0  0  0  0  0  0  0  0  0  0  0  0
    7.8586    0.9741    0.0000 H   0  0  0  0  0  0  0  0  0  0  0  0
    4.9672    1.9192    0.0000 H   0  0  0  0  0  0  0  0  0  0  0  0
    5.2376    1.1949    0.0000 H   0  0  0  0  0  0  0  0  0  0  0  0
    8.2311    1.5951    0.0000 H   0  0  0  0  0  0  0  0  0  0  0  0
    8.3017    2.3650    0.0000 H   0  0  0  0  0  0  0  0  0  0  0  0
    5.4310    3.3032    0.0000 H   0  0  0  0  0  0  0  0  0  0  0  0
    5.0333    2.6402    0.0000 H   0  0  0  0  0  0  0  0  0  0  0  0
    6.5741    0.2116    0.0000 H   0  0  0  0  0  0  0  0  0  0  0  0
    8.0484    3.0433    0.0000 H   0  0  0  0  0  0  0  0  0  0  0  0
    7.4906    3.5786    0.0000 H   0  0  0  0  0  0  0  0  0  0  0  0
    6.8023    3.8035    0.0000 H   0  0  0  0  0  0  0  0  0  0  0  0
    6.0360    3.7010    0.0000 H   0  0  0  0  0  0  0  0  0  0  0  0
    6.1738   -1.0747    0.0000 H   0  0  0  0  0  0  0  0  0  0  0  0
    7.0494   -1.1221    0.0000 H   0  0  0  0  0  0  0  0  0  0  0  0
    7.0968   -0.2465    0.0000 H   0  0  0  0  0  0  0  0  0  0  0  0
    5.8819   -1.8778    0.0000 H   0  0  0  0  0  0  0  0  0  0  0  0
    4.8709   -3.2718    0.0000 H   0  0  0  0  0  0  0  0  0  0  0  0
    2.8660   -0.2578    0.0000 H   0  0  0  0  0  0  0  0  0  0  0  0
    2.8660   -3.4978    0.0000 H   0  0  0  0  0  0  0  0  0  0  0  0
    1.4631   -1.0678    0.0000 H   0  0  0  0  0  0  0  0  0  0  0  0
    1.4631   -2.6878    0.0000 H   0  0  0  0  0  0  0  0  0  0  0  0
  1 11  2  0  0  0  0
  2  4  1  0  0  0  0
  2  5  1  0  0  0  0
  2  8  1  0  0  0  0
  3 15  1  0  0  0  0
  3 16  1  0  0  0  0
  3 38  1  0  0  0  0
  4  7  1  0  0  0  0
  4 21  1  0  0  0  0
  4 22  1  0  0  0  0
  5  6  1  0  0  0  0
  5 23  1  0  0  0  0
  5 24  1  0  0  0  0
  6 10  1  0  0  0  0
  6 27  1  0  0  0  0
  6 28  1  0  0  0  0
  7  9  1  0  0  0  0
  7 25  1  0  0  0  0
  7 26  1  0  0  0  0
  8 11  1  0  0  0  0
  8 12  1  0  0  0  0
  8 29  1  0  0  0  0
  9 10  1  0  0  0  0
  9 30  1  0  0  0  0
  9 31  1  0  0  0  0
 10 32  1  0  0  0  0
 10 33  1  0  0  0  0
 11 13  1  0  0  0  0
 12 34  1  0  0  0  0
 12 35  1  0  0  0  0
 12 36  1  0  0  0  0
 13 14  1  0  0  0  0
 13 15  2  0  0  0  0
 14 16  1  0  0  0  0
 14 17  2  0  0  0  0
 15 37  1  0  0  0  0
 16 18  2  0  0  0  0
 17 19  1  0  0  0  0
 17 39  1  0  0  0  0
 18 20  1  0  0  0  0
 18 40  1  0  0  0  0
 19 20  2  0  0  0  0
 19 41  1  0  0  0  0
 20 42  1  0  0  0  0
M  END
> <PUBCHEM_COMPOUND_CID>
17395775

> <PUBCHEM_COMPOUND_CANONICALIZED>
1

> <PUBCHEM_CACTVS_COMPLEXITY>
336

> <PUBCHEM_CACTVS_HBOND_ACCEPTOR>
2

> <PUBCHEM_CACTVS_HBOND_DONOR>
1

> <PUBCHEM_CACTVS_ROTATABLE_BOND>
3

> <PUBCHEM_CACTVS_SUBSKEYS>
AAADceB7IAAAAAAAAAAAAAAAAAAAAWAAAAAwAAAABYAAAFgB8AAAHgAQAAAADCzBngQ+wPPJkACoA7R3RACCgCA1AiAI2aG4ZNgIIPrAlbGEIYhgkADIyccciMCOgAAAAAACAAAAAAAAAAQAAAAAAAAAAA==

> <PUBCHEM_IUPAC_OPENEYE_NAME>
2-(azepan-1-yl)-1-(1H-indol-3-yl)propan-1-one

> <PUBCHEM_IUPAC_CAS_NAME>
2-(1-azepanyl)-1-(1H-indol-3-yl)-1-propanone

> <PUBCHEM_IUPAC_NAME>
2-(azepan-1-yl)-1-(1H-indol-3-yl)propan-1-one

> <PUBCHEM_IUPAC_SYSTEMATIC_NAME>
2-(azepan-1-yl)-1-(1H-indol-3-yl)propan-1-one

> <PUBCHEM_IUPAC_TRADITIONAL_NAME>
2-(azepan-1-yl)-1-(1H-indol-3-yl)propan-1-one

> <PUBCHEM_IUPAC_INCHI>
InChI=1S/C17H22N2O/c1-13(19-10-6-2-3-7-11-19)17(20)15-12-18-16-9-5-4-8-14(15)16/h4-5,8-9,12-13,18H,2-3,6-7,10-11H2,1H3

> <PUBCHEM_IUPAC_INCHIKEY>
OLYBVEMMSRDXDJ-UHFFFAOYSA-N

> <PUBCHEM_XLOGP3>
3.7

> <PUBCHEM_EXACT_MASS>
270.173213

> <PUBCHEM_MOLECULAR_FORMULA>
C17H22N2O

> <PUBCHEM_MOLECULAR_WEIGHT>
270.36938

> <PUBCHEM_OPENEYE_CAN_SMILES>
CC(C(=O)C1=CNC2=CC=CC=C21)N3CCCCCC3

> <PUBCHEM_OPENEYE_ISO_SMILES>
CC(C(=O)C1=CNC2=CC=CC=C21)N3CCCCCC3

> <PUBCHEM_CACTVS_TPSA>
36.1

> <PUBCHEM_MONOISOTOPIC_WEIGHT>
270.173213

> <PUBCHEM_TOTAL_CHARGE>
0

> <PUBCHEM_HEAVY_ATOM_COUNT>
20

> <PUBCHEM_ATOM_DEF_STEREO_COUNT>
0

> <PUBCHEM_ATOM_UDEF_STEREO_COUNT>
1

> <PUBCHEM_BOND_DEF_STEREO_COUNT>
0

> <PUBCHEM_BOND_UDEF_STEREO_COUNT>
0

> <PUBCHEM_ISOTOPIC_ATOM_COUNT>
0

> <PUBCHEM_COMPONENT_COUNT>
1

> <PUBCHEM_CACTVS_TAUTO_COUNT>
5

> <PUBCHEM_COORDINATE_TYPE>
1
5
255

> <PUBCHEM_BONDANNOTATIONS>
13  14  8
13  15  8
14  16  8
14  17  8
16  18  8
17  19  8
18  20  8
19  20  8
3  15  8
3  16  8
8  12  3

$$$$

