17396606
  -OEChem-06241222572D

 46 47  0     0  0  0  0  0  0999 V2000
    8.0622    0.1307    0.0000 O   0  0  0  0  0  0  0  0  0  0  0  0
    9.2785   -3.6126    0.0000 O   0  0  0  0  0  0  0  0  0  0  0  0
    4.5981    4.1307    0.0000 O   0  0  0  0  0  0  0  0  0  0  0  0
    2.8660    3.1307    0.0000 O   0  0  0  0  0  0  0  0  0  0  0  0
    6.3871   -1.9571    0.0000 N   0  0  0  0  0  0  0  0  0  0  0  0
    6.3301    0.1307    0.0000 N   0  0  0  0  0  0  0  0  0  0  0  0
    8.0052   -1.9571    0.0000 C   0  0  0  0  0  0  0  0  0  0  0  0
    7.1962   -1.3693    0.0000 C   0  0  0  0  0  0  0  0  0  0  0  0
    7.6962   -2.9081    0.0000 C   0  0  0  0  0  0  0  0  0  0  0  0
    6.6962   -2.9081    0.0000 C   0  0  0  0  0  0  0  0  0  0  0  0
    7.1962   -0.3693    0.0000 C   0  0  0  0  0  0  0  0  0  0  0  0
    8.9562   -1.6481    0.0000 C   0  0  0  0  0  0  0  0  0  0  0  0
    6.3301    1.1307    0.0000 C   0  0  0  0  0  0  0  0  0  0  0  0
    6.1084   -3.7172    0.0000 C   0  0  0  0  0  0  0  0  0  0  0  0
    8.2839   -3.7172    0.0000 C   0  0  0  0  0  0  0  0  0  0  0  0
    5.4641    1.6307    0.0000 C   0  0  0  0  0  0  0  0  0  0  0  0
    5.4641    2.6307    0.0000 C   0  0  0  0  0  0  0  0  0  0  0  0
    4.5981    1.1307    0.0000 C   0  0  0  0  0  0  0  0  0  0  0  0
    7.8772   -4.6307    0.0000 C   0  0  0  0  0  0  0  0  0  0  0  0
    4.5981    3.1307    0.0000 C   0  0  0  0  0  0  0  0  0  0  0  0
    3.7320    2.6307    0.0000 C   0  0  0  0  0  0  0  0  0  0  0  0
    3.7320    1.6307    0.0000 C   0  0  0  0  0  0  0  0  0  0  0  0
    5.4641    4.6307    0.0000 C   0  0  0  0  0  0  0  0  0  0  0  0
    2.0000    2.6307    0.0000 C   0  0  0  0  0  0  0  0  0  0  0  0
    5.7975   -1.7655    0.0000 H   0  0  0  0  0  0  0  0  0  0  0  0
    9.1478   -2.2377    0.0000 H   0  0  0  0  0  0  0  0  0  0  0  0
    9.5459   -1.4565    0.0000 H   0  0  0  0  0  0  0  0  0  0  0  0
    8.7646   -1.0584    0.0000 H   0  0  0  0  0  0  0  0  0  0  0  0
    6.9407    1.0230    0.0000 H   0  0  0  0  0  0  0  0  0  0  0  0
    6.5422    1.7133    0.0000 H   0  0  0  0  0  0  0  0  0  0  0  0
    5.6068   -3.3527    0.0000 H   0  0  0  0  0  0  0  0  0  0  0  0
    5.7439   -4.2188    0.0000 H   0  0  0  0  0  0  0  0  0  0  0  0
    6.6100   -4.0816    0.0000 H   0  0  0  0  0  0  0  0  0  0  0  0
    5.7932   -0.1793    0.0000 H   0  0  0  0  0  0  0  0  0  0  0  0
    6.0010    2.9407    0.0000 H   0  0  0  0  0  0  0  0  0  0  0  0
    4.5981    0.5107    0.0000 H   0  0  0  0  0  0  0  0  0  0  0  0
    7.3108   -4.3785    0.0000 H   0  0  0  0  0  0  0  0  0  0  0  0
    7.6250   -5.1971    0.0000 H   0  0  0  0  0  0  0  0  0  0  0  0
    8.4436   -4.8829    0.0000 H   0  0  0  0  0  0  0  0  0  0  0  0
    3.1951    1.3207    0.0000 H   0  0  0  0  0  0  0  0  0  0  0  0
    5.7741    4.0938    0.0000 H   0  0  0  0  0  0  0  0  0  0  0  0
    6.0010    4.9407    0.0000 H   0  0  0  0  0  0  0  0  0  0  0  0
    5.1541    5.1676    0.0000 H   0  0  0  0  0  0  0  0  0  0  0  0
    1.6900    3.1676    0.0000 H   0  0  0  0  0  0  0  0  0  0  0  0
    1.4631    2.3207    0.0000 H   0  0  0  0  0  0  0  0  0  0  0  0
    2.3100    2.0938    0.0000 H   0  0  0  0  0  0  0  0  0  0  0  0
  1 11  2  0  0  0  0
  2 15  2  0  0  0  0
  3 20  1  0  0  0  0
  3 23  1  0  0  0  0
  4 21  1  0  0  0  0
  4 24  1  0  0  0  0
  5  8  1  0  0  0  0
  5 10  1  0  0  0  0
  5 25  1  0  0  0  0
  6 11  1  0  0  0  0
  6 13  1  0  0  0  0
  6 34  1  0  0  0  0
  7  8  2  0  0  0  0
  7  9  1  0  0  0  0
  7 12  1  0  0  0  0
  8 11  1  0  0  0  0
  9 10  2  0  0  0  0
  9 15  1  0  0  0  0
 10 14  1  0  0  0  0
 12 26  1  0  0  0  0
 12 27  1  0  0  0  0
 12 28  1  0  0  0  0
 13 16  1  0  0  0  0
 13 29  1  0  0  0  0
 13 30  1  0  0  0  0
 14 31  1  0  0  0  0
 14 32  1  0  0  0  0
 14 33  1  0  0  0  0
 15 19  1  0  0  0  0
 16 17  2  0  0  0  0
 16 18  1  0  0  0  0
 17 20  1  0  0  0  0
 17 35  1  0  0  0  0
 18 22  2  0  0  0  0
 18 36  1  0  0  0  0
 19 37  1  0  0  0  0
 19 38  1  0  0  0  0
 19 39  1  0  0  0  0
 20 21  2  0  0  0  0
 21 22  1  0  0  0  0
 22 40  1  0  0  0  0
 23 41  1  0  0  0  0
 23 42  1  0  0  0  0
 23 43  1  0  0  0  0
 24 44  1  0  0  0  0
 24 45  1  0  0  0  0
 24 46  1  0  0  0  0
M  END
> <PUBCHEM_COMPOUND_CID>
17396606

> <PUBCHEM_COMPOUND_CANONICALIZED>
1

> <PUBCHEM_CACTVS_COMPLEXITY>
456

> <PUBCHEM_CACTVS_HBOND_ACCEPTOR>
4

> <PUBCHEM_CACTVS_HBOND_DONOR>
2

> <PUBCHEM_CACTVS_ROTATABLE_BOND>
6

> <PUBCHEM_CACTVS_SUBSKEYS>
AAADceB7OAAAAAAAAAAAAAAAAAAAAWAAAAAwAAAAAAAAAAABwAAAHgAQAAAADAzBngYyhpLJlACoA6VyVACCiCAnICAImaG+zNgNZnrEtbuUMapk1hHK6Ue82xI+oAABAAAAQABAAAIAAACAAAAAAAAAAA==

> <PUBCHEM_IUPAC_OPENEYE_NAME>
4-acetyl-N-[(3,4-dimethoxyphenyl)methyl]-3,5-dimethyl-1H-pyrrole-2-carboxamide

> <PUBCHEM_IUPAC_CAS_NAME>
4-acetyl-N-[(3,4-dimethoxyphenyl)methyl]-3,5-dimethyl-1H-pyrrole-2-carboxamide

> <PUBCHEM_IUPAC_NAME>
4-acetyl-N-[(3,4-dimethoxyphenyl)methyl]-3,5-dimethyl-1H-pyrrole-2-carboxamide

> <PUBCHEM_IUPAC_SYSTEMATIC_NAME>
N-[(3,4-dimethoxyphenyl)methyl]-4-ethanoyl-3,5-dimethyl-1H-pyrrole-2-carboxamide

> <PUBCHEM_IUPAC_TRADITIONAL_NAME>
4-acetyl-3,5-dimethyl-N-veratryl-1H-pyrrole-2-carboxamide

> <PUBCHEM_IUPAC_INCHI>
InChI=1S/C18H22N2O4/c1-10-16(12(3)21)11(2)20-17(10)18(22)19-9-13-6-7-14(23-4)15(8-13)24-5/h6-8,20H,9H2,1-5H3,(H,19,22)

> <PUBCHEM_IUPAC_INCHIKEY>
NDYRSQXAOCRBAL-UHFFFAOYSA-N

> <PUBCHEM_XLOGP3_AA>
2.2

> <PUBCHEM_EXACT_MASS>
330.157957

> <PUBCHEM_MOLECULAR_FORMULA>
C18H22N2O4

> <PUBCHEM_MOLECULAR_WEIGHT>
330.37828

> <PUBCHEM_OPENEYE_CAN_SMILES>
CC1=C(NC(=C1C(=O)C)C)C(=O)NCC2=CC(=C(C=C2)OC)OC

> <PUBCHEM_OPENEYE_ISO_SMILES>
CC1=C(NC(=C1C(=O)C)C)C(=O)NCC2=CC(=C(C=C2)OC)OC

> <PUBCHEM_CACTVS_TPSA>
80.4

> <PUBCHEM_MONOISOTOPIC_WEIGHT>
330.157957

> <PUBCHEM_TOTAL_CHARGE>
0

> <PUBCHEM_HEAVY_ATOM_COUNT>
24

> <PUBCHEM_ATOM_DEF_STEREO_COUNT>
0

> <PUBCHEM_ATOM_UDEF_STEREO_COUNT>
0

> <PUBCHEM_BOND_DEF_STEREO_COUNT>
0

> <PUBCHEM_BOND_UDEF_STEREO_COUNT>
0

> <PUBCHEM_ISOTOPIC_ATOM_COUNT>
0

> <PUBCHEM_COMPONENT_COUNT>
1

> <PUBCHEM_CACTVS_TAUTO_COUNT>
62

> <PUBCHEM_COORDINATE_TYPE>
1
5
255

> <PUBCHEM_BONDANNOTATIONS>
16  17  8
16  18  8
17  20  8
18  22  8
20  21  8
21  22  8
5  10  8
5  8  8
7  8  8
7  9  8
9  10  8

$$$$

