10852
  -OEChem-06261205022D

 23 22  0     0  0  0  0  0  0999 V2000
    5.6720    2.8700    0.0000 Cl  0  0  0  0  0  0  0  0  0  0  0  0
    2.2690    4.1200    0.0000 S   0  0  0  0  0  0  0  0  0  0  0  0
    3.1350    5.6200    0.0000 N   0  0  0  0  0  0  0  0  0  0  0  0
    1.4030    5.6200    0.0000 N   0  0  0  0  0  0  0  0  0  0  0  0
    1.4030    2.6200    0.0000 C   0  0  0  0  0  0  0  0  0  0  0  0
    1.4030    3.6200    0.0000 C   0  0  0  0  0  0  0  0  0  0  0  0
    0.5369    2.1200    0.0000 C   0  0  0  0  0  0  0  0  0  0  0  0
    2.2690    2.1200    0.0000 C   0  0  0  0  0  0  0  0  0  0  0  0
    0.5369    1.1200    0.0000 C   0  0  0  0  0  0  0  0  0  0  0  0
    2.2690    1.1200    0.0000 C   0  0  0  0  0  0  0  0  0  0  0  0
    1.4030    0.6200    0.0000 C   0  0  0  0  0  0  0  0  0  0  0  0
    2.2690    5.1200    0.0000 C   0  0  0  0  0  0  0  0  0  0  0  0
    1.1909    4.2026    0.0000 H   0  0  0  0  0  0  0  0  0  0  0  0
    0.7924    3.5123    0.0000 H   0  0  0  0  0  0  0  0  0  0  0  0
    0.0000    2.4300    0.0000 H   0  0  0  0  0  0  0  0  0  0  0  0
    2.8059    2.4300    0.0000 H   0  0  0  0  0  0  0  0  0  0  0  0
    0.0000    0.8100    0.0000 H   0  0  0  0  0  0  0  0  0  0  0  0
    2.8059    0.8100    0.0000 H   0  0  0  0  0  0  0  0  0  0  0  0
    1.4030    0.0000    0.0000 H   0  0  0  0  0  0  0  0  0  0  0  0
    3.1350    6.2400    0.0000 H   0  0  0  0  0  0  0  0  0  0  0  0
    3.6720    5.3100    0.0000 H   0  0  0  0  0  0  0  0  0  0  0  0
    1.4030    6.2400    0.0000 H   0  0  0  0  0  0  0  0  0  0  0  0
    6.6720    2.8700    0.0000 H   0  0  0  0  0  0  0  0  0  0  0  0
  1 23  1  0  0  0  0
  2  6  1  0  0  0  0
  2 12  1  0  0  0  0
  3 12  1  0  0  0  0
  3 20  1  0  0  0  0
  3 21  1  0  0  0  0
  4 12  2  0  0  0  0
  4 22  1  0  0  0  0
  5  6  1  0  0  0  0
  5  7  2  0  0  0  0
  5  8  1  0  0  0  0
  6 13  1  0  0  0  0
  6 14  1  0  0  0  0
  7  9  1  0  0  0  0
  7 15  1  0  0  0  0
  8 10  2  0  0  0  0
  8 16  1  0  0  0  0
  9 11  2  0  0  0  0
  9 17  1  0  0  0  0
 10 11  1  0  0  0  0
 10 18  1  0  0  0  0
 11 19  1  0  0  0  0
M  END
> <PUBCHEM_COMPOUND_CID>
10852

> <PUBCHEM_COMPOUND_CANONICALIZED>
1

> <PUBCHEM_CACTVS_COMPLEXITY>
130

> <PUBCHEM_CACTVS_HBOND_ACCEPTOR>
2

> <PUBCHEM_CACTVS_HBOND_DONOR>
3

> <PUBCHEM_CACTVS_ROTATABLE_BOND>
3

> <PUBCHEM_CACTVS_SUBSKEYS>
AAADccBzAABEAAAAAAAAAAAAAAAAAAAAAAAwAAAAAAAAAAABAAAAHAQQAAAADACEWACxAIBAAAigAiBCIAACAgDgABAIiAAAAIgIICKgERCAIAAggAAIiAcAgAAOAAAAAAAAAAAAAAAAAAAAAAAAAAAAAA==

> <PUBCHEM_IUPAC_OPENEYE_NAME>
2-benzylisothiourea hydrochloride

> <PUBCHEM_IUPAC_CAS_NAME>
carbamimidothioic acid (phenylmethyl) ester hydrochloride

> <PUBCHEM_IUPAC_NAME>
benzyl carbamimidothioate hydrochloride

> <PUBCHEM_IUPAC_SYSTEMATIC_NAME>
(phenylmethyl) carbamimidothioate hydrochloride

> <PUBCHEM_IUPAC_TRADITIONAL_NAME>
2-benzylisothiourea hydrochloride

> <PUBCHEM_IUPAC_INCHI>
InChI=1S/C8H10N2S.ClH/c9-8(10)11-6-7-4-2-1-3-5-7;/h1-5H,6H2,(H3,9,10);1H

> <PUBCHEM_IUPAC_INCHIKEY>
WJAASTDRAAMYNK-UHFFFAOYSA-N

> <PUBCHEM_EXACT_MASS>
202.033147

> <PUBCHEM_MOLECULAR_FORMULA>
C8H11ClN2S

> <PUBCHEM_MOLECULAR_WEIGHT>
202.70434

> <PUBCHEM_OPENEYE_CAN_SMILES>
C1=CC=C(C=C1)CSC(=N)N.Cl

> <PUBCHEM_OPENEYE_ISO_SMILES>
C1=CC=C(C=C1)CSC(=N)N.Cl

> <PUBCHEM_CACTVS_TPSA>
75.2

> <PUBCHEM_MONOISOTOPIC_WEIGHT>
202.033147

> <PUBCHEM_TOTAL_CHARGE>
0

> <PUBCHEM_HEAVY_ATOM_COUNT>
12

> <PUBCHEM_ATOM_DEF_STEREO_COUNT>
0

> <PUBCHEM_ATOM_UDEF_STEREO_COUNT>
0

> <PUBCHEM_BOND_DEF_STEREO_COUNT>
0

> <PUBCHEM_BOND_UDEF_STEREO_COUNT>
0

> <PUBCHEM_ISOTOPIC_ATOM_COUNT>
0

> <PUBCHEM_COMPONENT_COUNT>
2

> <PUBCHEM_CACTVS_TAUTO_COUNT>
1

> <PUBCHEM_COORDINATE_TYPE>
1
5
255

> <PUBCHEM_BONDANNOTATIONS>
10  11  8
5  7  8
5  8  8
7  9  8
8  10  8
9  11  8

$$$$

