11700
  -OEChem-06261206002D

 29 28  0     1  0  0  0  0  0999 V2000
    3.7320   -0.1160    0.0000 P   0  0  3  0  0  0  0  0  0  0  0  0
    5.4641   -0.1160    0.0000 P   0  0  0  0  0  0  0  0  0  0  0  0
    4.5981    0.3840    0.0000 O   0  0  0  0  0  0  0  0  0  0  0  0
    3.2320    0.7500    0.0000 O   0  0  0  0  0  0  0  0  0  0  0  0
    4.2320   -0.9821    0.0000 O   0  0  0  0  0  0  0  0  0  0  0  0
    6.3301   -0.6160    0.0000 O   0  0  0  0  0  0  0  0  0  0  0  0
    5.9641    0.7500    0.0000 O   0  0  0  0  0  0  0  0  0  0  0  0
    4.9641   -0.9821    0.0000 O   0  0  0  0  0  0  0  0  0  0  0  0
    2.8660   -0.6160    0.0000 N   0  0  0  0  0  0  0  0  0  0  0  0
    2.0000   -0.1160    0.0000 C   0  0  0  0  0  0  0  0  0  0  0  0
    2.8660   -1.6160    0.0000 C   0  0  0  0  0  0  0  0  0  0  0  0
    3.7320    1.6160    0.0000 C   0  0  0  0  0  0  0  0  0  0  0  0
    7.1962   -0.1160    0.0000 C   0  0  0  0  0  0  0  0  0  0  0  0
    5.4641    1.6160    0.0000 C   0  0  0  0  0  0  0  0  0  0  0  0
    2.3100    0.4209    0.0000 H   0  0  0  0  0  0  0  0  0  0  0  0
    1.4631    0.1940    0.0000 H   0  0  0  0  0  0  0  0  0  0  0  0
    1.6900   -0.6530    0.0000 H   0  0  0  0  0  0  0  0  0  0  0  0
    2.2460   -1.6160    0.0000 H   0  0  0  0  0  0  0  0  0  0  0  0
    2.8660   -2.2360    0.0000 H   0  0  0  0  0  0  0  0  0  0  0  0
    3.4860   -1.6160    0.0000 H   0  0  0  0  0  0  0  0  0  0  0  0
    4.2690    1.3060    0.0000 H   0  0  0  0  0  0  0  0  0  0  0  0
    4.0420    2.1530    0.0000 H   0  0  0  0  0  0  0  0  0  0  0  0
    3.1951    1.9260    0.0000 H   0  0  0  0  0  0  0  0  0  0  0  0
    7.5062   -0.6530    0.0000 H   0  0  0  0  0  0  0  0  0  0  0  0
    7.7331    0.1940    0.0000 H   0  0  0  0  0  0  0  0  0  0  0  0
    6.8862    0.4209    0.0000 H   0  0  0  0  0  0  0  0  0  0  0  0
    6.0010    1.9260    0.0000 H   0  0  0  0  0  0  0  0  0  0  0  0
    5.1541    2.1530    0.0000 H   0  0  0  0  0  0  0  0  0  0  0  0
    4.9272    1.3060    0.0000 H   0  0  0  0  0  0  0  0  0  0  0  0
  1  3  1  0  0  0  0
  1  4  1  0  0  0  0
  1  5  2  0  0  0  0
  1  9  1  0  0  0  0
  2  3  1  0  0  0  0
  2  6  1  0  0  0  0
  2  7  1  0  0  0  0
  2  8  2  0  0  0  0
  4 12  1  0  0  0  0
  6 13  1  0  0  0  0
  7 14  1  0  0  0  0
  9 10  1  0  0  0  0
  9 11  1  0  0  0  0
 10 15  1  0  0  0  0
 10 16  1  0  0  0  0
 10 17  1  0  0  0  0
 11 18  1  0  0  0  0
 11 19  1  0  0  0  0
 11 20  1  0  0  0  0
 12 21  1  0  0  0  0
 12 22  1  0  0  0  0
 12 23  1  0  0  0  0
 13 24  1  0  0  0  0
 13 25  1  0  0  0  0
 13 26  1  0  0  0  0
 14 27  1  0  0  0  0
 14 28  1  0  0  0  0
 14 29  1  0  0  0  0
M  END
> <PUBCHEM_COMPOUND_CID>
11700

> <PUBCHEM_COMPOUND_CANONICALIZED>
1

> <PUBCHEM_CACTVS_COMPLEXITY>
259

> <PUBCHEM_CACTVS_HBOND_ACCEPTOR>
7

> <PUBCHEM_CACTVS_HBOND_DONOR>
0

> <PUBCHEM_CACTVS_ROTATABLE_BOND>
6

> <PUBCHEM_CACTVS_SUBSKEYS>
AAADccBiOAMAAAAAAAAAAAAAAAAAAAAAAAAAAAAAAAAAAAAAAAAAFgAAgCAAAAAAAAYCAAIAARAAQAAAAIAAAAAAAAAAAAAIAAAAAAAAAAAAAAAAAAAAAAAAAAAAAAAAAAAAAAAAAAAAAAAAAAAAAAAAAA==

> <PUBCHEM_IUPAC_OPENEYE_NAME>
[dimethylamino(methoxy)phosphoryl] dimethyl phosphate

> <PUBCHEM_IUPAC_CAS_NAME>
phosphoric acid [dimethylamino(methoxy)phosphoryl] dimethyl ester

> <PUBCHEM_IUPAC_NAME>
[dimethylamino(methoxy)phosphoryl] dimethyl phosphate

> <PUBCHEM_IUPAC_SYSTEMATIC_NAME>
[dimethylamino(methoxy)phosphoryl] dimethyl phosphate

> <PUBCHEM_IUPAC_TRADITIONAL_NAME>
phosphoric acid [dimethylamino(methoxy)phosphoryl] dimethyl ester

> <PUBCHEM_IUPAC_INCHI>
InChI=1S/C5H15NO6P2/c1-6(2)13(7,9-3)12-14(8,10-4)11-5/h1-5H3

> <PUBCHEM_IUPAC_INCHIKEY>
VOXPPLQBNKVMAC-UHFFFAOYSA-N

> <PUBCHEM_XLOGP3_AA>
-0.9

> <PUBCHEM_EXACT_MASS>
247.03746

> <PUBCHEM_MOLECULAR_FORMULA>
C5H15NO6P2

> <PUBCHEM_MOLECULAR_WEIGHT>
247.123224

> <PUBCHEM_OPENEYE_CAN_SMILES>
CN(C)P(=O)(OC)OP(=O)(OC)OC

> <PUBCHEM_OPENEYE_ISO_SMILES>
CN(C)P(=O)(OC)OP(=O)(OC)OC

> <PUBCHEM_CACTVS_TPSA>
74.3

> <PUBCHEM_MONOISOTOPIC_WEIGHT>
247.03746

> <PUBCHEM_TOTAL_CHARGE>
0

> <PUBCHEM_HEAVY_ATOM_COUNT>
14

> <PUBCHEM_ATOM_DEF_STEREO_COUNT>
0

> <PUBCHEM_ATOM_UDEF_STEREO_COUNT>
1

> <PUBCHEM_BOND_DEF_STEREO_COUNT>
0

> <PUBCHEM_BOND_UDEF_STEREO_COUNT>
0

> <PUBCHEM_ISOTOPIC_ATOM_COUNT>
0

> <PUBCHEM_COMPONENT_COUNT>
1

> <PUBCHEM_CACTVS_TAUTO_COUNT>
1

> <PUBCHEM_COORDINATE_TYPE>
1
5
255

> <PUBCHEM_BONDANNOTATIONS>
1  3  3

$$$$

