17396448
  -OEChem-06241222562D

 47 48  0     0  0  0  0  0  0999 V2000
    6.3301   -0.5000    0.0000 O   0  0  0  0  0  0  0  0  0  0  0  0
    5.4641    4.0000    0.0000 O   0  0  0  0  0  0  0  0  0  0  0  0
    2.8660   -3.5000    0.0000 N   0  0  0  0  0  0  0  0  0  0  0  0
    4.5981   -0.5000    0.0000 N   0  0  0  0  0  0  0  0  0  0  0  0
    4.5981    1.5000    0.0000 N   0  0  0  0  0  0  0  0  0  0  0  0
    4.5981    2.5000    0.0000 N   0  0  0  0  0  0  0  0  0  0  0  0
    3.7320   -2.0000    0.0000 C   0  0  0  0  0  0  0  0  0  0  0  0
    2.8660   -2.5000    0.0000 C   0  0  0  0  0  0  0  0  0  0  0  0
    4.5981   -1.5000    0.0000 C   0  0  0  0  0  0  0  0  0  0  0  0
    4.2320   -2.8660    0.0000 C   0  0  0  0  0  0  0  0  0  0  0  0
    3.2320   -1.1340    0.0000 C   0  0  0  0  0  0  0  0  0  0  0  0
    2.0000   -4.0000    0.0000 C   0  0  0  0  0  0  0  0  0  0  0  0
    3.7320   -4.0000    0.0000 C   0  0  0  0  0  0  0  0  0  0  0  0
    5.4641    0.0000    0.0000 C   0  0  0  0  0  0  0  0  0  0  0  0
    5.4641    1.0000    0.0000 C   0  0  0  0  0  0  0  0  0  0  0  0
    6.3301    1.5000    0.0000 C   0  0  0  0  0  0  0  0  0  0  0  0
    6.3301    2.5000    0.0000 C   0  0  0  0  0  0  0  0  0  0  0  0
    5.4641    3.0000    0.0000 C   0  0  0  0  0  0  0  0  0  0  0  0
    7.2241    0.9653    0.0000 C   0  0  0  0  0  0  0  0  0  0  0  0
    7.2241    3.0347    0.0000 C   0  0  0  0  0  0  0  0  0  0  0  0
    8.1301    1.4792    0.0000 C   0  0  0  0  0  0  0  0  0  0  0  0
    8.1301    2.5208    0.0000 C   0  0  0  0  0  0  0  0  0  0  0  0
    3.7320    3.0000    0.0000 C   0  0  0  0  0  0  0  0  0  0  0  0
    2.6540   -1.9174    0.0000 H   0  0  0  0  0  0  0  0  0  0  0  0
    2.2554   -2.6077    0.0000 H   0  0  0  0  0  0  0  0  0  0  0  0
    4.8101   -2.0826    0.0000 H   0  0  0  0  0  0  0  0  0  0  0  0
    5.2087   -1.3923    0.0000 H   0  0  0  0  0  0  0  0  0  0  0  0
    3.7690   -0.8240    0.0000 H   0  0  0  0  0  0  0  0  0  0  0  0
    3.6951   -3.1760    0.0000 H   0  0  0  0  0  0  0  0  0  0  0  0
    4.5420   -3.4030    0.0000 H   0  0  0  0  0  0  0  0  0  0  0  0
    4.7690   -2.5560    0.0000 H   0  0  0  0  0  0  0  0  0  0  0  0
    2.9220   -0.5970    0.0000 H   0  0  0  0  0  0  0  0  0  0  0  0
    2.6951   -1.4440    0.0000 H   0  0  0  0  0  0  0  0  0  0  0  0
    4.0611   -0.1900    0.0000 H   0  0  0  0  0  0  0  0  0  0  0  0
    3.4220   -4.5369    0.0000 H   0  0  0  0  0  0  0  0  0  0  0  0
    4.2690   -4.3100    0.0000 H   0  0  0  0  0  0  0  0  0  0  0  0
    4.0420   -3.4631    0.0000 H   0  0  0  0  0  0  0  0  0  0  0  0
    1.6900   -3.4631    0.0000 H   0  0  0  0  0  0  0  0  0  0  0  0
    1.4631   -4.3100    0.0000 H   0  0  0  0  0  0  0  0  0  0  0  0
    2.3100   -4.5369    0.0000 H   0  0  0  0  0  0  0  0  0  0  0  0
    7.2169    0.3454    0.0000 H   0  0  0  0  0  0  0  0  0  0  0  0
    7.2169    3.6546    0.0000 H   0  0  0  0  0  0  0  0  0  0  0  0
    8.6659    1.1671    0.0000 H   0  0  0  0  0  0  0  0  0  0  0  0
    8.6659    2.8329    0.0000 H   0  0  0  0  0  0  0  0  0  0  0  0
    4.0420    3.5369    0.0000 H   0  0  0  0  0  0  0  0  0  0  0  0
    3.1951    3.3100    0.0000 H   0  0  0  0  0  0  0  0  0  0  0  0
    3.4220    2.4631    0.0000 H   0  0  0  0  0  0  0  0  0  0  0  0
  1 14  2  0  0  0  0
  2 18  2  0  0  0  0
  3  8  1  0  0  0  0
  3 12  1  0  0  0  0
  3 13  1  0  0  0  0
  4  9  1  0  0  0  0
  4 14  1  0  0  0  0
  4 34  1  0  0  0  0
  5  6  1  0  0  0  0
  5 15  2  0  0  0  0
  6 18  1  0  0  0  0
  6 23  1  0  0  0  0
  7  8  1  0  0  0  0
  7  9  1  0  0  0  0
  7 10  1  0  0  0  0
  7 11  1  0  0  0  0
  8 24  1  0  0  0  0
  8 25  1  0  0  0  0
  9 26  1  0  0  0  0
  9 27  1  0  0  0  0
 10 29  1  0  0  0  0
 10 30  1  0  0  0  0
 10 31  1  0  0  0  0
 11 28  1  0  0  0  0
 11 32  1  0  0  0  0
 11 33  1  0  0  0  0
 12 38  1  0  0  0  0
 12 39  1  0  0  0  0
 12 40  1  0  0  0  0
 13 35  1  0  0  0  0
 13 36  1  0  0  0  0
 13 37  1  0  0  0  0
 14 15  1  0  0  0  0
 15 16  1  0  0  0  0
 16 17  1  0  0  0  0
 16 19  2  0  0  0  0
 17 18  1  0  0  0  0
 17 20  2  0  0  0  0
 19 21  1  0  0  0  0
 19 41  1  0  0  0  0
 20 22  1  0  0  0  0
 20 42  1  0  0  0  0
 21 22  2  0  0  0  0
 21 43  1  0  0  0  0
 22 44  1  0  0  0  0
 23 45  1  0  0  0  0
 23 46  1  0  0  0  0
 23 47  1  0  0  0  0
M  END
> <PUBCHEM_COMPOUND_CID>
17396448

> <PUBCHEM_COMPOUND_CANONICALIZED>
1

> <PUBCHEM_CACTVS_COMPLEXITY>
499

> <PUBCHEM_CACTVS_HBOND_ACCEPTOR>
4

> <PUBCHEM_CACTVS_HBOND_DONOR>
1

> <PUBCHEM_CACTVS_ROTATABLE_BOND>
5

> <PUBCHEM_CACTVS_SUBSKEYS>
AAADceB7sAAAAAAAAAAAAAAAAAAAAAAAAAAwQAAAAAAAAACBAAAAHgAYAAAADgjBmAQyAIPAAACoAyFyEACSAAAkAAAaiIEoBNgIILKA1RGEIQhgjgCIiYcYi4COgAAAAAAQAAAAAAAAACAAAAAAAAAAAA==

> <PUBCHEM_IUPAC_OPENEYE_NAME>
N-[3-(dimethylamino)-2,2-dimethyl-propyl]-3-methyl-4-oxo-phthalazine-1-carboxamide

> <PUBCHEM_IUPAC_CAS_NAME>
N-[3-(dimethylamino)-2,2-dimethylpropyl]-3-methyl-4-oxo-1-phthalazinecarboxamide

> <PUBCHEM_IUPAC_NAME>
N-[3-(dimethylamino)-2,2-dimethylpropyl]-3-methyl-4-oxophthalazine-1-carboxamide

> <PUBCHEM_IUPAC_SYSTEMATIC_NAME>
N-[3-(dimethylamino)-2,2-dimethyl-propyl]-3-methyl-4-oxidanylidene-phthalazine-1-carboxamide

> <PUBCHEM_IUPAC_TRADITIONAL_NAME>
N-[3-(dimethylamino)-2,2-dimethyl-propyl]-4-keto-3-methyl-phthalazine-1-carboxamide

> <PUBCHEM_IUPAC_INCHI>
InChI=1S/C17H24N4O2/c1-17(2,11-20(3)4)10-18-15(22)14-12-8-6-7-9-13(12)16(23)21(5)19-14/h6-9H,10-11H2,1-5H3,(H,18,22)

> <PUBCHEM_IUPAC_INCHIKEY>
JHPDSNIHEYLCSW-UHFFFAOYSA-N

> <PUBCHEM_XLOGP3_AA>
1.8

> <PUBCHEM_EXACT_MASS>
316.189926

> <PUBCHEM_MOLECULAR_FORMULA>
C17H24N4O2

> <PUBCHEM_MOLECULAR_WEIGHT>
316.39806

> <PUBCHEM_OPENEYE_CAN_SMILES>
CC(C)(CNC(=O)C1=NN(C(=O)C2=CC=CC=C21)C)CN(C)C

> <PUBCHEM_OPENEYE_ISO_SMILES>
CC(C)(CNC(=O)C1=NN(C(=O)C2=CC=CC=C21)C)CN(C)C

> <PUBCHEM_CACTVS_TPSA>
65

> <PUBCHEM_MONOISOTOPIC_WEIGHT>
316.189926

> <PUBCHEM_TOTAL_CHARGE>
0

> <PUBCHEM_HEAVY_ATOM_COUNT>
23

> <PUBCHEM_ATOM_DEF_STEREO_COUNT>
0

> <PUBCHEM_ATOM_UDEF_STEREO_COUNT>
0

> <PUBCHEM_BOND_DEF_STEREO_COUNT>
0

> <PUBCHEM_BOND_UDEF_STEREO_COUNT>
0

> <PUBCHEM_ISOTOPIC_ATOM_COUNT>
0

> <PUBCHEM_COMPONENT_COUNT>
1

> <PUBCHEM_CACTVS_TAUTO_COUNT>
2

> <PUBCHEM_COORDINATE_TYPE>
1
5
255

> <PUBCHEM_BONDANNOTATIONS>
15  16  8
16  17  8
16  19  8
17  18  8
17  20  8
19  21  8
20  22  8
21  22  8
5  15  8
5  6  8
6  18  8

$$$$

