6353
  -OEChem-06261201152D

  2  1  0     0  0  0  0  0  0999 V2000
    2.0000    0.0000    0.0000 C   0  5  0  0  0  0  0  0  0  0  0  0
    3.0000    0.0000    0.0000 C   0  5  0  0  0  0  0  0  0  0  0  0
  1  2  3  0  0  0  0
M  CHG  2   1  -1   2  -1
M  END
> <PUBCHEM_COMPOUND_CID>
6353

> <PUBCHEM_COMPOUND_CANONICALIZED>
1

> <PUBCHEM_CACTVS_COMPLEXITY>
8

> <PUBCHEM_CACTVS_HBOND_ACCEPTOR>
2

> <PUBCHEM_CACTVS_HBOND_DONOR>
0

> <PUBCHEM_CACTVS_ROTATABLE_BOND>
0

> <PUBCHEM_CACTVS_SUBSKEYS>
AAADcQBAAAAAAAAAAAAAAAAAAAAAAAAAAAAAAAAAAAAAAAAAAAAACAAAAAAAAAAAAAAAAAAAAABAAAAAAAAAAAAAAAAAAAAAAAAAAAAAAAAAAAAAAAAAAAAAAAAAAAAAAAAAAAAAAAAAAAAAAAAAAAAAAA==

> <PUBCHEM_IUPAC_OPENEYE_NAME>
acetylide

> <PUBCHEM_IUPAC_CAS_NAME>
acetylide

> <PUBCHEM_IUPAC_NAME>
acetylide

> <PUBCHEM_IUPAC_SYSTEMATIC_NAME>
acetylide

> <PUBCHEM_IUPAC_TRADITIONAL_NAME>
acetylide

> <PUBCHEM_IUPAC_INCHI>
InChI=1S/C2/c1-2/q-2

> <PUBCHEM_IUPAC_INCHIKEY>
VWWMOACCGFHMEV-UHFFFAOYSA-N

> <PUBCHEM_XLOGP3_AA>
0.4

> <PUBCHEM_EXACT_MASS>
24

> <PUBCHEM_MOLECULAR_FORMULA>
C2-2

> <PUBCHEM_MOLECULAR_WEIGHT>
24.0214

> <PUBCHEM_OPENEYE_CAN_SMILES>
[C-]#[C-]

> <PUBCHEM_OPENEYE_ISO_SMILES>
[C-]#[C-]

> <PUBCHEM_CACTVS_TPSA>
0

> <PUBCHEM_MONOISOTOPIC_WEIGHT>
24

> <PUBCHEM_TOTAL_CHARGE>
-2

> <PUBCHEM_HEAVY_ATOM_COUNT>
2

> <PUBCHEM_ATOM_DEF_STEREO_COUNT>
0

> <PUBCHEM_ATOM_UDEF_STEREO_COUNT>
0

> <PUBCHEM_BOND_DEF_STEREO_COUNT>
0

> <PUBCHEM_BOND_UDEF_STEREO_COUNT>
0

> <PUBCHEM_ISOTOPIC_ATOM_COUNT>
0

> <PUBCHEM_COMPONENT_COUNT>
1

> <PUBCHEM_CACTVS_TAUTO_COUNT>
1

> <PUBCHEM_COORDINATE_TYPE>
1
5
255

$$$$

