582802
  -OEChem-06241222442D

 50 54  0     1  0  0  0  0  0999 V2000
    6.2002   -2.8430    0.0000 O   0  0  0  0  0  0  0  0  0  0  0  0
    6.8236   -0.2592    0.0000 N   0  0  0  0  0  0  0  0  0  0  0  0
    7.7986   -2.2836    0.0000 N   0  0  0  0  0  0  0  0  0  0  0  0
    4.5579    1.2807    0.0000 N   0  0  0  0  0  0  0  0  0  0  0  0
    6.3898   -1.1602    0.0000 C   0  0  3  0  0  0  0  0  0  0  0  0
    5.3898   -1.1602    0.0000 C   0  0  0  0  0  0  0  0  0  0  0  0
    4.8898   -0.2941    0.0000 C   0  0  0  0  0  0  0  0  0  0  0  0
    3.9010   -0.1911    0.0000 C   0  0  0  0  0  0  0  0  0  0  0  0
    6.8236   -2.0611    0.0000 C   0  0  0  0  0  0  0  0  0  0  0  0
    8.5804   -0.6602    0.0000 C   0  0  0  0  0  0  0  0  0  0  0  0
    7.7986   -0.0367    0.0000 C   0  0  0  0  0  0  0  0  0  0  0  0
    3.6948    0.7874    0.0000 C   0  0  0  0  0  0  0  0  0  0  0  0
    8.5804   -1.6602    0.0000 C   0  0  0  0  0  0  0  0  0  0  0  0
    5.2949    0.6136    0.0000 C   0  0  0  0  0  0  0  0  0  0  0  0
    3.1567   -0.8589    0.0000 C   0  0  0  0  0  0  0  0  0  0  0  0
    9.4744   -0.1255    0.0000 C   0  0  0  0  0  0  0  0  0  0  0  0
    8.0211    0.9383    0.0000 C   0  0  0  0  0  0  0  0  0  0  0  0
    9.4744   -2.1948    0.0000 C   0  0  0  0  0  0  0  0  0  0  0  0
    2.7443    1.0981    0.0000 C   0  0  0  0  0  0  0  0  0  0  0  0
   10.3804   -0.6393    0.0000 C   0  0  0  0  0  0  0  0  0  0  0  0
   10.3804   -1.6810    0.0000 C   0  0  0  0  0  0  0  0  0  0  0  0
    2.2062   -0.5483    0.0000 C   0  0  0  0  0  0  0  0  0  0  0  0
    2.0000    0.4302    0.0000 C   0  0  0  0  0  0  0  0  0  0  0  0
    8.9767    1.2330    0.0000 C   0  0  0  0  0  0  0  0  0  0  0  0
    7.2880    1.6184    0.0000 C   0  0  0  0  0  0  0  0  0  0  0  0
   11.2445   -0.1360    0.0000 C   0  0  0  0  0  0  0  0  0  0  0  0
    9.1992    2.2079    0.0000 C   0  0  0  0  0  0  0  0  0  0  0  0
    7.5106    2.5934    0.0000 C   0  0  0  0  0  0  0  0  0  0  0  0
    8.4661    2.8881    0.0000 C   0  0  0  0  0  0  0  0  0  0  0  0
    6.0599   -0.6352    0.0000 H   0  0  0  0  0  0  0  0  0  0  0  0
    4.8072   -1.3722    0.0000 H   0  0  0  0  0  0  0  0  0  0  0  0
    5.4974   -1.7708    0.0000 H   0  0  0  0  0  0  0  0  0  0  0  0
    5.9016    0.7415    0.0000 H   0  0  0  0  0  0  0  0  0  0  0  0
    7.9365   -2.8881    0.0000 H   0  0  0  0  0  0  0  0  0  0  0  0
    4.6248    1.8971    0.0000 H   0  0  0  0  0  0  0  0  0  0  0  0
    3.2846   -1.4656    0.0000 H   0  0  0  0  0  0  0  0  0  0  0  0
    9.4672    0.4945    0.0000 H   0  0  0  0  0  0  0  0  0  0  0  0
    9.4672   -2.8148    0.0000 H   0  0  0  0  0  0  0  0  0  0  0  0
    2.6164    1.7048    0.0000 H   0  0  0  0  0  0  0  0  0  0  0  0
   10.9162   -1.9930    0.0000 H   0  0  0  0  0  0  0  0  0  0  0  0
    1.7448   -0.9623    0.0000 H   0  0  0  0  0  0  0  0  0  0  0  0
    1.4107    0.6229    0.0000 H   0  0  0  0  0  0  0  0  0  0  0  0
    9.4312    0.8113    0.0000 H   0  0  0  0  0  0  0  0  0  0  0  0
    6.6956    1.4357    0.0000 H   0  0  0  0  0  0  0  0  0  0  0  0
   11.5566   -0.6718    0.0000 H   0  0  0  0  0  0  0  0  0  0  0  0
   11.7802    0.1761    0.0000 H   0  0  0  0  0  0  0  0  0  0  0  0
   10.9324    0.3997    0.0000 H   0  0  0  0  0  0  0  0  0  0  0  0
    9.7916    2.3907    0.0000 H   0  0  0  0  0  0  0  0  0  0  0  0
    7.0561    3.0151    0.0000 H   0  0  0  0  0  0  0  0  0  0  0  0
    8.6041    3.4926    0.0000 H   0  0  0  0  0  0  0  0  0  0  0  0
  1  9  2  0  0  0  0
  2  5  1  0  0  0  0
  2 11  2  0  0  0  0
  3  9  1  0  0  0  0
  3 13  1  0  0  0  0
  3 34  1  0  0  0  0
  4 12  1  0  0  0  0
  4 14  1  0  0  0  0
  4 35  1  0  0  0  0
  5  6  1  0  0  0  0
  5  9  1  0  0  0  0
  5 30  1  0  0  0  0
  6  7  1  0  0  0  0
  6 31  1  0  0  0  0
  6 32  1  0  0  0  0
  7  8  1  0  0  0  0
  7 14  2  0  0  0  0
  8 12  1  0  0  0  0
  8 15  2  0  0  0  0
 10 11  1  0  0  0  0
 10 13  2  0  0  0  0
 10 16  1  0  0  0  0
 11 17  1  0  0  0  0
 12 19  2  0  0  0  0
 13 18  1  0  0  0  0
 14 33  1  0  0  0  0
 15 22  1  0  0  0  0
 15 36  1  0  0  0  0
 16 20  2  0  0  0  0
 16 37  1  0  0  0  0
 17 24  2  0  0  0  0
 17 25  1  0  0  0  0
 18 21  2  0  0  0  0
 18 38  1  0  0  0  0
 19 23  1  0  0  0  0
 19 39  1  0  0  0  0
 20 21  1  0  0  0  0
 20 26  1  0  0  0  0
 21 40  1  0  0  0  0
 22 23  2  0  0  0  0
 22 41  1  0  0  0  0
 23 42  1  0  0  0  0
 24 27  1  0  0  0  0
 24 43  1  0  0  0  0
 25 28  2  0  0  0  0
 25 44  1  0  0  0  0
 26 45  1  0  0  0  0
 26 46  1  0  0  0  0
 26 47  1  0  0  0  0
 27 29  2  0  0  0  0
 27 48  1  0  0  0  0
 28 29  1  0  0  0  0
 28 49  1  0  0  0  0
 29 50  1  0  0  0  0
M  END
> <PUBCHEM_COMPOUND_CID>
582802

> <PUBCHEM_COMPOUND_CANONICALIZED>
1

> <PUBCHEM_CACTVS_COMPLEXITY>
626

> <PUBCHEM_CACTVS_HBOND_ACCEPTOR>
2

> <PUBCHEM_CACTVS_HBOND_DONOR>
2

> <PUBCHEM_CACTVS_ROTATABLE_BOND>
3

> <PUBCHEM_CACTVS_SUBSKEYS>
AAADceB7IAAAAAAAAAAAAAAAAAAAAWAAAAAwYMAABAAAAFgB9AAAHgAQAAAADCjBngQ+wPLJkACoAzV3VACCgCAxAiAI2aG4ZJgIYPLAkZGUIAhglADIyAcYicCOiAACAAACAAAQAAQAAAQAAAAAAAAAAA==

> <PUBCHEM_IUPAC_OPENEYE_NAME>
3-(1H-indol-3-ylmethyl)-7-methyl-5-phenyl-1,3-dihydro-1,4-benzodiazepin-2-one

> <PUBCHEM_IUPAC_CAS_NAME>
3-(1H-indol-3-ylmethyl)-7-methyl-5-phenyl-1,3-dihydro-1,4-benzodiazepin-2-one

> <PUBCHEM_IUPAC_NAME>
3-(1H-indol-3-ylmethyl)-7-methyl-5-phenyl-1,3-dihydro-1,4-benzodiazepin-2-one

> <PUBCHEM_IUPAC_SYSTEMATIC_NAME>
3-(1H-indol-3-ylmethyl)-7-methyl-5-phenyl-1,3-dihydro-1,4-benzodiazepin-2-one

> <PUBCHEM_IUPAC_TRADITIONAL_NAME>
3-(1H-indol-3-ylmethyl)-7-methyl-5-phenyl-1,3-dihydro-1,4-benzodiazepin-2-one

> <PUBCHEM_IUPAC_INCHI>
InChI=1S/C25H21N3O/c1-16-11-12-22-20(13-16)24(17-7-3-2-4-8-17)27-23(25(29)28-22)14-18-15-26-21-10-6-5-9-19(18)21/h2-13,15,23,26H,14H2,1H3,(H,28,29)

> <PUBCHEM_IUPAC_INCHIKEY>
UIKHMRXRIMJWCI-UHFFFAOYSA-N

> <PUBCHEM_XLOGP3_AA>
4.9

> <PUBCHEM_EXACT_MASS>
379.168462

> <PUBCHEM_MOLECULAR_FORMULA>
C25H21N3O

> <PUBCHEM_MOLECULAR_WEIGHT>
379.45374

> <PUBCHEM_OPENEYE_CAN_SMILES>
CC1=CC2=C(C=C1)NC(=O)C(N=C2C3=CC=CC=C3)CC4=CNC5=CC=CC=C54

> <PUBCHEM_OPENEYE_ISO_SMILES>
CC1=CC2=C(C=C1)NC(=O)C(N=C2C3=CC=CC=C3)CC4=CNC5=CC=CC=C54

> <PUBCHEM_CACTVS_TPSA>
57.2

> <PUBCHEM_MONOISOTOPIC_WEIGHT>
379.168462

> <PUBCHEM_TOTAL_CHARGE>
0

> <PUBCHEM_HEAVY_ATOM_COUNT>
29

> <PUBCHEM_ATOM_DEF_STEREO_COUNT>
0

> <PUBCHEM_ATOM_UDEF_STEREO_COUNT>
1

> <PUBCHEM_BOND_DEF_STEREO_COUNT>
0

> <PUBCHEM_BOND_UDEF_STEREO_COUNT>
0

> <PUBCHEM_ISOTOPIC_ATOM_COUNT>
0

> <PUBCHEM_COMPONENT_COUNT>
1

> <PUBCHEM_CACTVS_TAUTO_COUNT>
10

> <PUBCHEM_COORDINATE_TYPE>
1
5
255

> <PUBCHEM_BONDANNOTATIONS>
10  13  8
10  16  8
12  19  8
13  18  8
15  22  8
16  20  8
17  24  8
17  25  8
18  21  8
19  23  8
20  21  8
22  23  8
24  27  8
25  28  8
27  29  8
28  29  8
4  12  8
4  14  8
5  6  3
7  14  8
7  8  8
8  12  8
8  15  8

$$$$

