17396201
  -OEChem-06241222552D

 36 37  0     0  0  0  0  0  0999 V2000
    8.1097    2.2420    0.0000 S   0  0  0  0  0  0  0  0  0  0  0  0
    6.3301   -0.8512    0.0000 O   0  0  0  0  0  0  0  0  0  0  0  0
    5.4641    2.6488    0.0000 O   0  0  0  0  0  0  0  0  0  0  0  0
    4.5981   -0.8512    0.0000 N   0  0  0  0  0  0  0  0  0  0  0  0
    6.3301    1.1488    0.0000 N   0  0  0  0  0  0  0  0  0  0  0  0
    3.7320   -2.3512    0.0000 C   0  0  0  0  0  0  0  0  0  0  0  0
    4.5981   -1.8512    0.0000 C   0  0  0  0  0  0  0  0  0  0  0  0
    2.8660   -1.8512    0.0000 C   0  0  0  0  0  0  0  0  0  0  0  0
    3.7320   -3.3512    0.0000 C   0  0  0  0  0  0  0  0  0  0  0  0
    5.4641   -2.3512    0.0000 C   0  0  0  0  0  0  0  0  0  0  0  0
    2.0000   -2.3512    0.0000 C   0  0  0  0  0  0  0  0  0  0  0  0
    5.4641    0.6488    0.0000 C   0  0  0  0  0  0  0  0  0  0  0  0
    5.4641   -0.3512    0.0000 C   0  0  0  0  0  0  0  0  0  0  0  0
    4.5981   -3.8512    0.0000 C   0  0  0  0  0  0  0  0  0  0  0  0
    5.4641   -3.3512    0.0000 C   0  0  0  0  0  0  0  0  0  0  0  0
    6.3301    2.1488    0.0000 C   0  0  0  0  0  0  0  0  0  0  0  0
    7.1962    2.6488    0.0000 C   0  0  0  0  0  0  0  0  0  0  0  0
    7.3007    3.6433    0.0000 C   0  0  0  0  0  0  0  0  0  0  0  0
    8.2788    3.8512    0.0000 C   0  0  0  0  0  0  0  0  0  0  0  0
    8.7788    2.9852    0.0000 C   0  0  0  0  0  0  0  0  0  0  0  0
    3.2646   -1.3763    0.0000 H   0  0  0  0  0  0  0  0  0  0  0  0
    2.4675   -1.3763    0.0000 H   0  0  0  0  0  0  0  0  0  0  0  0
    3.1951   -3.6612    0.0000 H   0  0  0  0  0  0  0  0  0  0  0  0
    4.0611   -0.5412    0.0000 H   0  0  0  0  0  0  0  0  0  0  0  0
    6.0010   -2.0412    0.0000 H   0  0  0  0  0  0  0  0  0  0  0  0
    5.2520    1.2314    0.0000 H   0  0  0  0  0  0  0  0  0  0  0  0
    4.8535    0.5411    0.0000 H   0  0  0  0  0  0  0  0  0  0  0  0
    1.6900   -1.8143    0.0000 H   0  0  0  0  0  0  0  0  0  0  0  0
    1.4631   -2.6612    0.0000 H   0  0  0  0  0  0  0  0  0  0  0  0
    2.3100   -2.8882    0.0000 H   0  0  0  0  0  0  0  0  0  0  0  0
    4.5981   -4.4712    0.0000 H   0  0  0  0  0  0  0  0  0  0  0  0
    6.0010   -3.6612    0.0000 H   0  0  0  0  0  0  0  0  0  0  0  0
    6.8671    0.8388    0.0000 H   0  0  0  0  0  0  0  0  0  0  0  0
    6.8399    4.0582    0.0000 H   0  0  0  0  0  0  0  0  0  0  0  0
    8.5310    4.4176    0.0000 H   0  0  0  0  0  0  0  0  0  0  0  0
    9.3954    2.9204    0.0000 H   0  0  0  0  0  0  0  0  0  0  0  0
  1 17  1  0  0  0  0
  1 20  1  0  0  0  0
  2 13  2  0  0  0  0
  3 16  2  0  0  0  0
  4  7  1  0  0  0  0
  4 13  1  0  0  0  0
  4 24  1  0  0  0  0
  5 12  1  0  0  0  0
  5 16  1  0  0  0  0
  5 33  1  0  0  0  0
  6  7  1  0  0  0  0
  6  8  1  0  0  0  0
  6  9  2  0  0  0  0
  7 10  2  0  0  0  0
  8 11  1  0  0  0  0
  8 21  1  0  0  0  0
  8 22  1  0  0  0  0
  9 14  1  0  0  0  0
  9 23  1  0  0  0  0
 10 15  1  0  0  0  0
 10 25  1  0  0  0  0
 11 28  1  0  0  0  0
 11 29  1  0  0  0  0
 11 30  1  0  0  0  0
 12 13  1  0  0  0  0
 12 26  1  0  0  0  0
 12 27  1  0  0  0  0
 14 15  2  0  0  0  0
 14 31  1  0  0  0  0
 15 32  1  0  0  0  0
 16 17  1  0  0  0  0
 17 18  2  0  0  0  0
 18 19  1  0  0  0  0
 18 34  1  0  0  0  0
 19 20  2  0  0  0  0
 19 35  1  0  0  0  0
 20 36  1  0  0  0  0
M  END
> <PUBCHEM_COMPOUND_CID>
17396201

> <PUBCHEM_COMPOUND_CANONICALIZED>
1

> <PUBCHEM_CACTVS_COMPLEXITY>
349

> <PUBCHEM_CACTVS_HBOND_ACCEPTOR>
3

> <PUBCHEM_CACTVS_HBOND_DONOR>
2

> <PUBCHEM_CACTVS_ROTATABLE_BOND>
5

> <PUBCHEM_CACTVS_SUBSKEYS>
AAADceBzMABAAAAAAAAAAAAAAAAAASAAAAAwAAAAAAAAAAABwAAAHgQQAAAADAjF2ASywYLAAAiMAiVSUACDAIAlChBIiJmIZMgIYDLglbGUIQhglgDoyYcYgIAOAAAAAAACAAAAAAAAAAQAAAAAAAAAAA==

> <PUBCHEM_IUPAC_OPENEYE_NAME>
N-[2-(2-ethylanilino)-2-oxo-ethyl]thiophene-2-carboxamide

> <PUBCHEM_IUPAC_CAS_NAME>
N-[2-(2-ethylanilino)-2-oxoethyl]-2-thiophenecarboxamide

> <PUBCHEM_IUPAC_NAME>
N-[2-(2-ethylanilino)-2-oxoethyl]thiophene-2-carboxamide

> <PUBCHEM_IUPAC_SYSTEMATIC_NAME>
N-[2-[(2-ethylphenyl)amino]-2-oxidanylidene-ethyl]thiophene-2-carboxamide

> <PUBCHEM_IUPAC_TRADITIONAL_NAME>
N-[2-(2-ethylanilino)-2-keto-ethyl]thiophene-2-carboxamide

> <PUBCHEM_IUPAC_INCHI>
InChI=1S/C15H16N2O2S/c1-2-11-6-3-4-7-12(11)17-14(18)10-16-15(19)13-8-5-9-20-13/h3-9H,2,10H2,1H3,(H,16,19)(H,17,18)

> <PUBCHEM_IUPAC_INCHIKEY>
QHXDURQHSLXNKO-UHFFFAOYSA-N

> <PUBCHEM_XLOGP3_AA>
2.9

> <PUBCHEM_EXACT_MASS>
288.093249

> <PUBCHEM_MOLECULAR_FORMULA>
C15H16N2O2S

> <PUBCHEM_MOLECULAR_WEIGHT>
288.36474

> <PUBCHEM_OPENEYE_CAN_SMILES>
CCC1=CC=CC=C1NC(=O)CNC(=O)C2=CC=CS2

> <PUBCHEM_OPENEYE_ISO_SMILES>
CCC1=CC=CC=C1NC(=O)CNC(=O)C2=CC=CS2

> <PUBCHEM_CACTVS_TPSA>
86.4

> <PUBCHEM_MONOISOTOPIC_WEIGHT>
288.093249

> <PUBCHEM_TOTAL_CHARGE>
0

> <PUBCHEM_HEAVY_ATOM_COUNT>
20

> <PUBCHEM_ATOM_DEF_STEREO_COUNT>
0

> <PUBCHEM_ATOM_UDEF_STEREO_COUNT>
0

> <PUBCHEM_BOND_DEF_STEREO_COUNT>
0

> <PUBCHEM_BOND_UDEF_STEREO_COUNT>
0

> <PUBCHEM_ISOTOPIC_ATOM_COUNT>
0

> <PUBCHEM_COMPONENT_COUNT>
1

> <PUBCHEM_CACTVS_TAUTO_COUNT>
6

> <PUBCHEM_COORDINATE_TYPE>
1
5
255

> <PUBCHEM_BONDANNOTATIONS>
1  17  8
1  20  8
10  15  8
14  15  8
17  18  8
18  19  8
19  20  8
6  7  8
6  9  8
7  10  8
9  14  8

$$$$

