17396305
  -OEChem-06241222552D

 41 44  0     0  0  0  0  0  0999 V2000
    6.4726    0.5949    0.0000 S   0  0  0  0  0  0  0  0  0  0  0  0
   11.5996    1.1266    0.0000 O   0  0  0  0  0  0  0  0  0  0  0  0
    4.9836   -0.4802    0.0000 O   0  0  0  0  0  0  0  0  0  0  0  0
   13.1832    1.9313    0.0000 O   0  0  0  0  0  0  0  0  0  0  0  0
   11.5996    2.7360    0.0000 N   0  0  0  0  0  0  0  0  0  0  0  0
    7.9508   -0.0632    0.0000 N   0  0  0  0  0  0  0  0  0  0  0  0
    5.1646   -2.2028    0.0000 N   0  0  0  0  0  0  0  0  0  0  0  0
    8.9213    1.4313    0.0000 C   0  0  0  0  0  0  0  0  0  0  0  0
   10.6534    2.4313    0.0000 C   0  0  0  0  0  0  0  0  0  0  0  0
   10.6534    1.4313    0.0000 C   0  0  0  0  0  0  0  0  0  0  0  0
    8.0553    0.9313    0.0000 C   0  0  0  0  0  0  0  0  0  0  0  0
    9.7873    0.9313    0.0000 C   0  0  0  0  0  0  0  0  0  0  0  0
    8.9213    2.4313    0.0000 C   0  0  0  0  0  0  0  0  0  0  0  0
    9.7873    2.9313    0.0000 C   0  0  0  0  0  0  0  0  0  0  0  0
    6.5659   -1.1847    0.0000 C   0  0  0  0  0  0  0  0  0  0  0  0
    6.9726   -0.2711    0.0000 C   0  0  0  0  0  0  0  0  0  0  0  0
    7.1417    1.3380    0.0000 C   0  0  0  0  0  0  0  0  0  0  0  0
    4.1701   -2.3073    0.0000 C   0  0  0  0  0  0  0  0  0  0  0  0
    5.5714   -1.2892    0.0000 C   0  0  0  0  0  0  0  0  0  0  0  0
   12.1832    1.9313    0.0000 C   0  0  0  0  0  0  0  0  0  0  0  0
    2.5878   -1.6028    0.0000 C   0  0  0  0  0  0  0  0  0  0  0  0
    3.5823   -1.4983    0.0000 C   0  0  0  0  0  0  0  0  0  0  0  0
    3.7634   -3.2208    0.0000 C   0  0  0  0  0  0  0  0  0  0  0  0
    2.1810   -2.5163    0.0000 C   0  0  0  0  0  0  0  0  0  0  0  0
    2.7688   -3.3254    0.0000 C   0  0  0  0  0  0  0  0  0  0  0  0
    2.0000   -0.7938    0.0000 C   0  0  0  0  0  0  0  0  0  0  0  0
    9.7873    0.3113    0.0000 H   0  0  0  0  0  0  0  0  0  0  0  0
    8.3844    2.7413    0.0000 H   0  0  0  0  0  0  0  0  0  0  0  0
    9.7873    3.5513    0.0000 H   0  0  0  0  0  0  0  0  0  0  0  0
    6.5226   -1.8032    0.0000 H   0  0  0  0  0  0  0  0  0  0  0  0
    7.1675   -1.3347    0.0000 H   0  0  0  0  0  0  0  0  0  0  0  0
   11.7922    3.3254    0.0000 H   0  0  0  0  0  0  0  0  0  0  0  0
    7.0128    1.9445    0.0000 H   0  0  0  0  0  0  0  0  0  0  0  0
    5.5290   -2.7043    0.0000 H   0  0  0  0  0  0  0  0  0  0  0  0
    3.8345   -0.9319    0.0000 H   0  0  0  0  0  0  0  0  0  0  0  0
    4.1278   -3.7224    0.0000 H   0  0  0  0  0  0  0  0  0  0  0  0
    1.5644   -2.5812    0.0000 H   0  0  0  0  0  0  0  0  0  0  0  0
    2.5167   -3.8918    0.0000 H   0  0  0  0  0  0  0  0  0  0  0  0
    2.5016   -0.4293    0.0000 H   0  0  0  0  0  0  0  0  0  0  0  0
    1.6356   -0.2922    0.0000 H   0  0  0  0  0  0  0  0  0  0  0  0
    1.4984   -1.1582    0.0000 H   0  0  0  0  0  0  0  0  0  0  0  0
  1 16  1  0  0  0  0
  1 17  1  0  0  0  0
  2 10  1  0  0  0  0
  2 20  1  0  0  0  0
  3 19  2  0  0  0  0
  4 20  2  0  0  0  0
  5  9  1  0  0  0  0
  5 20  1  0  0  0  0
  5 32  1  0  0  0  0
  6 11  1  0  0  0  0
  6 16  2  0  0  0  0
  7 18  1  0  0  0  0
  7 19  1  0  0  0  0
  7 34  1  0  0  0  0
  8 11  1  0  0  0  0
  8 12  2  0  0  0  0
  8 13  1  0  0  0  0
  9 10  2  0  0  0  0
  9 14  1  0  0  0  0
 10 12  1  0  0  0  0
 11 17  2  0  0  0  0
 12 27  1  0  0  0  0
 13 14  2  0  0  0  0
 13 28  1  0  0  0  0
 14 29  1  0  0  0  0
 15 16  1  0  0  0  0
 15 19  1  0  0  0  0
 15 30  1  0  0  0  0
 15 31  1  0  0  0  0
 17 33  1  0  0  0  0
 18 22  1  0  0  0  0
 18 23  2  0  0  0  0
 21 22  2  0  0  0  0
 21 24  1  0  0  0  0
 21 26  1  0  0  0  0
 22 35  1  0  0  0  0
 23 25  1  0  0  0  0
 23 36  1  0  0  0  0
 24 25  2  0  0  0  0
 24 37  1  0  0  0  0
 25 38  1  0  0  0  0
 26 39  1  0  0  0  0
 26 40  1  0  0  0  0
 26 41  1  0  0  0  0
M  END
> <PUBCHEM_COMPOUND_CID>
17396305

> <PUBCHEM_COMPOUND_CANONICALIZED>
1

> <PUBCHEM_CACTVS_COMPLEXITY>
546

> <PUBCHEM_CACTVS_HBOND_ACCEPTOR>
5

> <PUBCHEM_CACTVS_HBOND_DONOR>
2

> <PUBCHEM_CACTVS_ROTATABLE_BOND>
4

> <PUBCHEM_CACTVS_SUBSKEYS>
AAADccB7MABAAAAAAAAAAAAAAAAAAWLAAAAwYAAAAAAAAFgB0AAAHgQQAAAADAyF3gCyz5LIFAisAyVyXACC+KBhKjgIiDU3bJkOJqrk8ZuNMihk1BH46AewwLAOCAABQAAAEAAQAAKAAAAgAAAAAAAAAA==

> <PUBCHEM_IUPAC_OPENEYE_NAME>
N-(m-tolyl)-2-[4-(2-oxo-3H-1,3-benzoxazol-6-yl)thiazol-2-yl]acetamide

> <PUBCHEM_IUPAC_CAS_NAME>
N-(3-methylphenyl)-2-[4-(2-oxo-3H-1,3-benzoxazol-6-yl)-2-thiazolyl]acetamide

> <PUBCHEM_IUPAC_NAME>
N-(3-methylphenyl)-2-[4-(2-oxo-3H-1,3-benzoxazol-6-yl)-1,3-thiazol-2-yl]acetamide

> <PUBCHEM_IUPAC_SYSTEMATIC_NAME>
N-(3-methylphenyl)-2-[4-(2-oxidanylidene-3H-1,3-benzoxazol-6-yl)-1,3-thiazol-2-yl]ethanamide

> <PUBCHEM_IUPAC_TRADITIONAL_NAME>
2-[4-(2-keto-3H-1,3-benzoxazol-6-yl)thiazol-2-yl]-N-(m-tolyl)acetamide

> <PUBCHEM_IUPAC_INCHI>
InChI=1S/C19H15N3O3S/c1-11-3-2-4-13(7-11)20-17(23)9-18-21-15(10-26-18)12-5-6-14-16(8-12)25-19(24)22-14/h2-8,10H,9H2,1H3,(H,20,23)(H,22,24)

> <PUBCHEM_IUPAC_INCHIKEY>
VTSVQUIYYPQWIE-UHFFFAOYSA-N

> <PUBCHEM_XLOGP3_AA>
3

> <PUBCHEM_EXACT_MASS>
365.083412

> <PUBCHEM_MOLECULAR_FORMULA>
C19H15N3O3S

> <PUBCHEM_MOLECULAR_WEIGHT>
365.4057

> <PUBCHEM_OPENEYE_CAN_SMILES>
CC1=CC(=CC=C1)NC(=O)CC2=NC(=CS2)C3=CC4=C(C=C3)NC(=O)O4

> <PUBCHEM_OPENEYE_ISO_SMILES>
CC1=CC(=CC=C1)NC(=O)CC2=NC(=CS2)C3=CC4=C(C=C3)NC(=O)O4

> <PUBCHEM_CACTVS_TPSA>
109

> <PUBCHEM_MONOISOTOPIC_WEIGHT>
365.083412

> <PUBCHEM_TOTAL_CHARGE>
0

> <PUBCHEM_HEAVY_ATOM_COUNT>
26

> <PUBCHEM_ATOM_DEF_STEREO_COUNT>
0

> <PUBCHEM_ATOM_UDEF_STEREO_COUNT>
0

> <PUBCHEM_BOND_DEF_STEREO_COUNT>
0

> <PUBCHEM_BOND_UDEF_STEREO_COUNT>
0

> <PUBCHEM_ISOTOPIC_ATOM_COUNT>
0

> <PUBCHEM_COMPONENT_COUNT>
1

> <PUBCHEM_CACTVS_TAUTO_COUNT>
10

> <PUBCHEM_COORDINATE_TYPE>
1
5
255

> <PUBCHEM_BONDANNOTATIONS>
1  16  8
1  17  8
10  12  8
11  17  8
13  14  8
18  22  8
18  23  8
2  10  8
2  20  8
21  22  8
21  24  8
23  25  8
24  25  8
5  20  8
5  9  8
6  11  8
6  16  8
8  12  8
8  13  8
9  10  8
9  14  8

$$$$

