11870
  -OEChem-06261206132D

 76 80  0     0  0  0  0  0  0999 V2000
   11.0783    0.9131    0.0000 Cl  0  0  0  0  0  0  0  0  0  0  0  0
    0.8660    5.8261    0.0000 O   0  0  0  0  0  0  0  0  0  0  0  0
    1.3126    3.2940    0.0000 O   0  0  0  0  0  0  0  0  0  0  0  0
    0.8660    8.8261    0.0000 O   0  0  0  0  0  0  0  0  0  0  0  0
    2.3386    0.4749    0.0000 O   0  0  0  0  0  0  0  0  0  0  0  0
    0.0000    7.3261    0.0000 O   0  0  0  0  0  0  0  0  0  0  0  0
    1.0117    1.5883    0.0000 O   0  0  0  0  0  0  0  0  0  0  0  0
   11.0783    4.9131    0.0000 N   0  0  0  0  0  0  0  0  0  0  0  0
   10.2123    6.4131    0.0000 N   0  0  0  0  0  0  0  0  0  0  0  0
   11.9444    6.4131    0.0000 N   0  0  0  0  0  0  0  0  0  0  0  0
   12.8104    4.9131    0.0000 N   0  0  0  0  0  0  0  0  0  0  0  0
   11.0783    7.9131    0.0000 N   0  0  0  0  0  0  0  0  0  0  0  0
   10.2123    5.4131    0.0000 C   0  0  0  0  0  0  0  0  0  0  0  0
    2.5981    4.8261    0.0000 C   0  0  0  0  0  0  0  0  0  0  0  0
    2.5981    5.8261    0.0000 C   0  0  0  0  0  0  0  0  0  0  0  0
    2.9401    3.8864    0.0000 C   0  0  0  0  0  0  0  0  0  0  0  0
    3.4641    6.3261    0.0000 C   0  0  0  0  0  0  0  0  0  0  0  0
    3.9249    3.7128    0.0000 C   0  0  0  0  0  0  0  0  0  0  0  0
    9.2123    5.4131    0.0000 C   0  0  0  0  0  0  0  0  0  0  0  0
    9.7123    4.5470    0.0000 C   0  0  0  0  0  0  0  0  0  0  0  0
    3.4641    7.3261    0.0000 C   0  0  0  0  0  0  0  0  0  0  0  0
    4.2669    2.7731    0.0000 C   0  0  0  0  0  0  0  0  0  0  0  0
   11.0783    3.9131    0.0000 C   0  0  0  0  0  0  0  0  0  0  0  0
    1.7320    6.3261    0.0000 C   0  0  0  0  0  0  0  0  0  0  0  0
    2.2973    3.1204    0.0000 C   0  0  0  0  0  0  0  0  0  0  0  0
   11.9444    5.4131    0.0000 C   0  0  0  0  0  0  0  0  0  0  0  0
    1.7320    7.3261    0.0000 C   0  0  0  0  0  0  0  0  0  0  0  0
    2.6393    2.1807    0.0000 C   0  0  0  0  0  0  0  0  0  0  0  0
    3.6241    2.0070    0.0000 C   0  0  0  0  0  0  0  0  0  0  0  0
    2.5981    7.8261    0.0000 C   0  0  0  0  0  0  0  0  0  0  0  0
    4.3580    5.7914    0.0000 C   0  0  0  0  0  0  0  0  0  0  0  0
    4.5821    4.5209    0.0000 C   0  0  0  0  0  0  0  0  0  0  0  0
   11.0783    6.9131    0.0000 C   0  0  0  0  0  0  0  0  0  0  0  0
    4.3580    7.8608    0.0000 C   0  0  0  0  0  0  0  0  0  0  0  0
    5.2898    2.5764    0.0000 C   0  0  0  0  0  0  0  0  0  0  0  0
   10.2123    3.4131    0.0000 C   0  0  0  0  0  0  0  0  0  0  0  0
   11.9444    3.4131    0.0000 C   0  0  0  0  0  0  0  0  0  0  0  0
    5.2641    6.3053    0.0000 C   0  0  0  0  0  0  0  0  0  0  0  0
    5.6092    4.3480    0.0000 C   0  0  0  0  0  0  0  0  0  0  0  0
    5.2641    7.3469    0.0000 C   0  0  0  0  0  0  0  0  0  0  0  0
    5.9655    3.3692    0.0000 C   0  0  0  0  0  0  0  0  0  0  0  0
    0.8660    7.8261    0.0000 C   0  0  0  0  0  0  0  0  0  0  0  0
    1.9965    1.4146    0.0000 C   0  0  0  0  0  0  0  0  0  0  0  0
   10.2123    2.4131    0.0000 C   0  0  0  0  0  0  0  0  0  0  0  0
   11.9444    2.4131    0.0000 C   0  0  0  0  0  0  0  0  0  0  0  0
   11.0783    1.9131    0.0000 C   0  0  0  0  0  0  0  0  0  0  0  0
    2.0288    5.0717    0.0000 H   0  0  0  0  0  0  0  0  0  0  0  0
    3.2087    4.9338    0.0000 H   0  0  0  0  0  0  0  0  0  0  0  0
    9.2123    6.0331    0.0000 H   0  0  0  0  0  0  0  0  0  0  0  0
    8.5923    5.4131    0.0000 H   0  0  0  0  0  0  0  0  0  0  0  0
    9.2123    4.7931    0.0000 H   0  0  0  0  0  0  0  0  0  0  0  0
    9.1754    4.8570    0.0000 H   0  0  0  0  0  0  0  0  0  0  0  0
    9.4023    4.0101    0.0000 H   0  0  0  0  0  0  0  0  0  0  0  0
   10.2492    4.2370    0.0000 H   0  0  0  0  0  0  0  0  0  0  0  0
    3.8362    1.4244    0.0000 H   0  0  0  0  0  0  0  0  0  0  0  0
    2.5981    8.4461    0.0000 H   0  0  0  0  0  0  0  0  0  0  0  0
    4.3509    5.1715    0.0000 H   0  0  0  0  0  0  0  0  0  0  0  0
    4.3633    5.1011    0.0000 H   0  0  0  0  0  0  0  0  0  0  0  0
    5.4951    1.9914    0.0000 H   0  0  0  0  0  0  0  0  0  0  0  0
    4.3509    8.4807    0.0000 H   0  0  0  0  0  0  0  0  0  0  0  0
    9.6754    3.7231    0.0000 H   0  0  0  0  0  0  0  0  0  0  0  0
   12.4813    3.7231    0.0000 H   0  0  0  0  0  0  0  0  0  0  0  0
    5.7998    5.9932    0.0000 H   0  0  0  0  0  0  0  0  0  0  0  0
    6.0059    4.8244    0.0000 H   0  0  0  0  0  0  0  0  0  0  0  0
    5.7998    7.6590    0.0000 H   0  0  0  0  0  0  0  0  0  0  0  0
    6.5757    3.2592    0.0000 H   0  0  0  0  0  0  0  0  0  0  0  0
   13.3473    5.2231    0.0000 H   0  0  0  0  0  0  0  0  0  0  0  0
   12.8104    4.2931    0.0000 H   0  0  0  0  0  0  0  0  0  0  0  0
    9.6754    2.1031    0.0000 H   0  0  0  0  0  0  0  0  0  0  0  0
   12.4813    2.1031    0.0000 H   0  0  0  0  0  0  0  0  0  0  0  0
    0.3291    6.1361    0.0000 H   0  0  0  0  0  0  0  0  0  0  0  0
    0.9140    2.8190    0.0000 H   0  0  0  0  0  0  0  0  0  0  0  0
   10.5414    8.2231    0.0000 H   0  0  0  0  0  0  0  0  0  0  0  0
   11.6153    8.2231    0.0000 H   0  0  0  0  0  0  0  0  0  0  0  0
    0.3291    9.1361    0.0000 H   0  0  0  0  0  0  0  0  0  0  0  0
    1.9400    0.0000    0.0000 H   0  0  0  0  0  0  0  0  0  0  0  0
  1 46  1  0  0  0  0
  2 24  1  0  0  0  0
  2 71  1  0  0  0  0
  3 25  1  0  0  0  0
  3 72  1  0  0  0  0
  4 42  1  0  0  0  0
  4 75  1  0  0  0  0
  5 43  1  0  0  0  0
  5 76  1  0  0  0  0
  6 42  2  0  0  0  0
  7 43  2  0  0  0  0
  8 13  1  0  0  0  0
  8 23  1  0  0  0  0
  8 26  1  0  0  0  0
  9 13  1  0  0  0  0
  9 33  2  0  0  0  0
 10 26  2  0  0  0  0
 10 33  1  0  0  0  0
 11 26  1  0  0  0  0
 11 67  1  0  0  0  0
 11 68  1  0  0  0  0
 12 33  1  0  0  0  0
 12 73  1  0  0  0  0
 12 74  1  0  0  0  0
 13 19  1  0  0  0  0
 13 20  1  0  0  0  0
 14 15  1  0  0  0  0
 14 16  1  0  0  0  0
 14 47  1  0  0  0  0
 14 48  1  0  0  0  0
 15 17  1  0  0  0  0
 15 24  2  0  0  0  0
 16 18  1  0  0  0  0
 16 25  2  0  0  0  0
 17 21  1  0  0  0  0
 17 31  2  0  0  0  0
 18 22  1  0  0  0  0
 18 32  2  0  0  0  0
 19 49  1  0  0  0  0
 19 50  1  0  0  0  0
 19 51  1  0  0  0  0
 20 52  1  0  0  0  0
 20 53  1  0  0  0  0
 20 54  1  0  0  0  0
 21 30  1  0  0  0  0
 21 34  2  0  0  0  0
 22 29  1  0  0  0  0
 22 35  2  0  0  0  0
 23 36  2  0  0  0  0
 23 37  1  0  0  0  0
 24 27  1  0  0  0  0
 25 28  1  0  0  0  0
 27 30  2  0  0  0  0
 27 42  1  0  0  0  0
 28 29  2  0  0  0  0
 28 43  1  0  0  0  0
 29 55  1  0  0  0  0
 30 56  1  0  0  0  0
 31 38  1  0  0  0  0
 31 57  1  0  0  0  0
 32 39  1  0  0  0  0
 32 58  1  0  0  0  0
 34 40  1  0  0  0  0
 34 60  1  0  0  0  0
 35 41  1  0  0  0  0
 35 59  1  0  0  0  0
 36 44  1  0  0  0  0
 36 61  1  0  0  0  0
 37 45  2  0  0  0  0
 37 62  1  0  0  0  0
 38 40  2  0  0  0  0
 38 63  1  0  0  0  0
 39 41  2  0  0  0  0
 39 64  1  0  0  0  0
 40 65  1  0  0  0  0
 41 66  1  0  0  0  0
 44 46  2  0  0  0  0
 44 69  1  0  0  0  0
 45 46  1  0  0  0  0
 45 70  1  0  0  0  0
M  END
> <PUBCHEM_COMPOUND_CID>
11870

> <PUBCHEM_COMPOUND_CANONICALIZED>
1

> <PUBCHEM_CACTVS_COMPLEXITY>
923

> <PUBCHEM_CACTVS_HBOND_ACCEPTOR>
7

> <PUBCHEM_CACTVS_HBOND_DONOR>
6

> <PUBCHEM_CACTVS_ROTATABLE_BOND>
5

> <PUBCHEM_CACTVS_SUBSKEYS>
AAADceB/uAAEAAAAAAAAAAAAAAAAAAAAAAAwYMGDAAAAAADBVAAAHgIQCAAADA6BmCAzzsNAAgCoAiTSbACCAAElJwAJiAEEbsiIJzbDn5OEcUhl4BPI2aeY6PSO4ABDAAAYAADAAIYAADAAAAAAAAAAAA==

> <PUBCHEM_IUPAC_OPENEYE_NAME>
4-[(3-carboxy-2-hydroxy-1-naphthyl)methyl]-3-hydroxy-naphthalene-2-carboxylic acid; 1-(4-chlorophenyl)-6,6-dimethyl-1,3,5-triazine-2,4-diamine

> <PUBCHEM_IUPAC_CAS_NAME>
4-[(3-carboxy-2-hydroxy-1-naphthalenyl)methyl]-3-hydroxy-2-naphthalenecarboxylic acid; 1-(4-chlorophenyl)-6,6-dimethyl-1,3,5-triazine-2,4-diamine

> <PUBCHEM_IUPAC_NAME>
4-[(3-carboxy-2-hydroxynaphthalen-1-yl)methyl]-3-hydroxynaphthalene-2-carboxylic acid; 1-(4-chlorophenyl)-6,6-dimethyl-1,3,5-triazine-2,4-diamine

> <PUBCHEM_IUPAC_SYSTEMATIC_NAME>
4-[(3-carboxy-2-oxidanyl-naphthalen-1-yl)methyl]-3-oxidanyl-naphthalene-2-carboxylic acid; 1-(4-chlorophenyl)-6,6-dimethyl-1,3,5-triazine-2,4-diamine

> <PUBCHEM_IUPAC_TRADITIONAL_NAME>
[4-amino-1-(4-chlorophenyl)-6,6-dimethyl-s-triazin-2-yl]amine; 4-[(3-carboxy-2-hydroxy-1-naphthyl)methyl]-3-hydroxy-2-naphthoic acid

> <PUBCHEM_IUPAC_INCHI>
InChI=1S/C23H16O6.C11H14ClN5/c24-20-16(14-7-3-1-5-12(14)9-18(20)22(26)27)11-17-15-8-4-2-6-13(15)10-19(21(17)25)23(28)29;1-11(2)16-9(13)15-10(14)17(11)8-5-3-7(12)4-6-8/h1-10,24-25H,11H2,(H,26,27)(H,28,29);3-6H,1-2H3,(H4,13,14,15,16)

> <PUBCHEM_IUPAC_INCHIKEY>
FFUCUNIBSOIVIA-UHFFFAOYSA-N

> <PUBCHEM_EXACT_MASS>
639.188461

> <PUBCHEM_MOLECULAR_FORMULA>
C34H30ClN5O6

> <PUBCHEM_MOLECULAR_WEIGHT>
640.0849

> <PUBCHEM_OPENEYE_CAN_SMILES>
CC1(N=C(N=C(N1C2=CC=C(C=C2)Cl)N)N)C.C1=CC=C2C(=C1)C=C(C(=C2CC3=C(C(=CC4=CC=CC=C43)C(=O)O)O)O)C(=O)O

> <PUBCHEM_OPENEYE_ISO_SMILES>
CC1(N=C(N=C(N1C2=CC=C(C=C2)Cl)N)N)C.C1=CC=C2C(=C1)C=C(C(=C2CC3=C(C(=CC4=CC=CC=C43)C(=O)O)O)O)C(=O)O

> <PUBCHEM_CACTVS_TPSA>
195

> <PUBCHEM_MONOISOTOPIC_WEIGHT>
639.188461

> <PUBCHEM_TOTAL_CHARGE>
0

> <PUBCHEM_HEAVY_ATOM_COUNT>
46

> <PUBCHEM_ATOM_DEF_STEREO_COUNT>
0

> <PUBCHEM_ATOM_UDEF_STEREO_COUNT>
0

> <PUBCHEM_BOND_DEF_STEREO_COUNT>
0

> <PUBCHEM_BOND_UDEF_STEREO_COUNT>
0

> <PUBCHEM_ISOTOPIC_ATOM_COUNT>
0

> <PUBCHEM_COMPONENT_COUNT>
2

> <PUBCHEM_CACTVS_TAUTO_COUNT>
45

> <PUBCHEM_COORDINATE_TYPE>
1
5
255

> <PUBCHEM_BONDANNOTATIONS>
15  17  8
15  24  8
16  18  8
16  25  8
17  21  8
17  31  8
18  22  8
18  32  8
21  30  8
21  34  8
22  29  8
22  35  8
23  36  8
23  37  8
24  27  8
25  28  8
27  30  8
28  29  8
31  38  8
32  39  8
34  40  8
35  41  8
36  44  8
37  45  8
38  40  8
39  41  8
44  46  8
45  46  8

$$$$

