13653
  -OEChem-06241222392D

 27 26  0     1  0  0  0  0  0999 V2000
    5.2181    3.1200    0.0000 Cl  0  5  0  0  0  0  0  0  0  0  0  0
    0.8660    4.1200    0.0000 O   0  0  0  0  0  0  0  0  0  0  0  0
    0.0000    0.6200    0.0000 O   0  0  0  0  0  0  0  0  0  0  0  0
    2.5981    5.1200    0.0000 N   0  3  0  0  0  0  0  0  0  0  0  0
    1.7320    3.6200    0.0000 C   0  0  3  0  0  0  0  0  0  0  0  0
    2.5981    4.1200    0.0000 C   0  0  0  0  0  0  0  0  0  0  0  0
    1.7320    2.6200    0.0000 C   0  0  0  0  0  0  0  0  0  0  0  0
    2.5981    6.1200    0.0000 C   0  0  0  0  0  0  0  0  0  0  0  0
    0.8660    2.1200    0.0000 C   0  0  0  0  0  0  0  0  0  0  0  0
    2.5981    2.1200    0.0000 C   0  0  0  0  0  0  0  0  0  0  0  0
    0.8660    1.1200    0.0000 C   0  0  0  0  0  0  0  0  0  0  0  0
    2.5981    1.1200    0.0000 C   0  0  0  0  0  0  0  0  0  0  0  0
    1.7320    0.6200    0.0000 C   0  0  0  0  0  0  0  0  0  0  0  0
    1.7320    4.2400    0.0000 H   0  0  0  0  0  0  0  0  0  0  0  0
    2.8101    3.5374    0.0000 H   0  0  0  0  0  0  0  0  0  0  0  0
    3.2087    4.2277    0.0000 H   0  0  0  0  0  0  0  0  0  0  0  0
    3.2181    5.1200    0.0000 H   0  0  0  0  0  0  0  0  0  0  0  0
    1.9781    5.1200    0.0000 H   0  0  0  0  0  0  0  0  0  0  0  0
    0.3291    2.4300    0.0000 H   0  0  0  0  0  0  0  0  0  0  0  0
    3.2181    6.1200    0.0000 H   0  0  0  0  0  0  0  0  0  0  0  0
    2.5981    6.7400    0.0000 H   0  0  0  0  0  0  0  0  0  0  0  0
    1.9781    6.1200    0.0000 H   0  0  0  0  0  0  0  0  0  0  0  0
    3.1350    2.4300    0.0000 H   0  0  0  0  0  0  0  0  0  0  0  0
    0.8660    4.7400    0.0000 H   0  0  0  0  0  0  0  0  0  0  0  0
    3.1350    0.8100    0.0000 H   0  0  0  0  0  0  0  0  0  0  0  0
    1.7320    0.0000    0.0000 H   0  0  0  0  0  0  0  0  0  0  0  0
    0.0000    0.0000    0.0000 H   0  0  0  0  0  0  0  0  0  0  0  0
  2  5  1  0  0  0  0
  2 24  1  0  0  0  0
  3 11  1  0  0  0  0
  3 27  1  0  0  0  0
  4  6  1  0  0  0  0
  4  8  1  0  0  0  0
  4 17  1  0  0  0  0
  4 18  1  0  0  0  0
  5  6  1  0  0  0  0
  5  7  1  0  0  0  0
  5 14  1  0  0  0  0
  6 15  1  0  0  0  0
  6 16  1  0  0  0  0
  7  9  2  0  0  0  0
  7 10  1  0  0  0  0
  8 20  1  0  0  0  0
  8 21  1  0  0  0  0
  8 22  1  0  0  0  0
  9 11  1  0  0  0  0
  9 19  1  0  0  0  0
 10 12  2  0  0  0  0
 10 23  1  0  0  0  0
 11 13  2  0  0  0  0
 12 13  1  0  0  0  0
 12 25  1  0  0  0  0
 13 26  1  0  0  0  0
M  CHG  2   1  -1   4   1
M  END
> <PUBCHEM_COMPOUND_CID>
13653

> <PUBCHEM_COMPOUND_CANONICALIZED>
1

> <PUBCHEM_CACTVS_COMPLEXITY>
130

> <PUBCHEM_CACTVS_HBOND_ACCEPTOR>
3

> <PUBCHEM_CACTVS_HBOND_DONOR>
3

> <PUBCHEM_CACTVS_ROTATABLE_BOND>
3

> <PUBCHEM_CACTVS_SUBSKEYS>
AAADccByMAAEAAAAAAAAAAAAAAAAAAAAAAAwAAAAAAAAAAABAAAAHgAQCAAADBThmAYyBoLAAgCAAiBCAAACAAAgIAAIiIAOCIgKNiKCkROEcAAk0BEYmAfQ0LIOAAABAAAAAAAAAAIAAAAAAAAAAAAAAA==

> <PUBCHEM_IUPAC_OPENEYE_NAME>
[2-hydroxy-2-(3-hydroxyphenyl)ethyl]-methyl-ammonium chloride

> <PUBCHEM_IUPAC_CAS_NAME>
[2-hydroxy-2-(3-hydroxyphenyl)ethyl]-methylammonium chloride

> <PUBCHEM_IUPAC_NAME>
[2-hydroxy-2-(3-hydroxyphenyl)ethyl]-methylazanium chloride

> <PUBCHEM_IUPAC_SYSTEMATIC_NAME>
[2-(3-hydroxyphenyl)-2-oxidanyl-ethyl]-methyl-azanium chloride

> <PUBCHEM_IUPAC_TRADITIONAL_NAME>
[2-hydroxy-2-(3-hydroxyphenyl)ethyl]-methyl-ammonium chloride

> <PUBCHEM_IUPAC_INCHI>
InChI=1S/C9H13NO2.ClH/c1-10-6-9(12)7-3-2-4-8(11)5-7;/h2-5,9-12H,6H2,1H3;1H

> <PUBCHEM_IUPAC_INCHIKEY>
OCYSGIYOVXAGKQ-UHFFFAOYSA-N

> <PUBCHEM_EXACT_MASS>
203.071306

> <PUBCHEM_MOLECULAR_FORMULA>
C9H14ClNO2

> <PUBCHEM_MOLECULAR_WEIGHT>
203.66596

> <PUBCHEM_OPENEYE_CAN_SMILES>
C[NH2+]CC(C1=CC(=CC=C1)O)O.[Cl-]

> <PUBCHEM_OPENEYE_ISO_SMILES>
C[NH2+]CC(C1=CC(=CC=C1)O)O.[Cl-]

> <PUBCHEM_CACTVS_TPSA>
57.1

> <PUBCHEM_MONOISOTOPIC_WEIGHT>
203.071306

> <PUBCHEM_TOTAL_CHARGE>
0

> <PUBCHEM_HEAVY_ATOM_COUNT>
13

> <PUBCHEM_ATOM_DEF_STEREO_COUNT>
0

> <PUBCHEM_ATOM_UDEF_STEREO_COUNT>
1

> <PUBCHEM_BOND_DEF_STEREO_COUNT>
0

> <PUBCHEM_BOND_UDEF_STEREO_COUNT>
0

> <PUBCHEM_ISOTOPIC_ATOM_COUNT>
0

> <PUBCHEM_COMPONENT_COUNT>
2

> <PUBCHEM_CACTVS_TAUTO_COUNT>
3

> <PUBCHEM_COORDINATE_TYPE>
1
5
255

> <PUBCHEM_BONDANNOTATIONS>
10  12  8
11  13  8
12  13  8
5  2  3
7  10  8
7  9  8
9  11  8

$$$$

