47205577
  -OEChem-06241222592D

 36 37  0     1  0  0  0  0  0999 V2000
    6.1974   -1.1850    0.0000 S   0  0  0  0  0  0  0  0  0  0  0  0
    8.4927    0.7410    0.0000 O   0  0  0  0  0  0  0  0  0  0  0  0
   10.3948    0.1230    0.0000 N   0  0  0  0  0  0  0  0  0  0  0  0
    7.9575   -0.9062    0.0000 N   0  0  0  0  0  0  0  0  0  0  0  0
    5.6974    0.3538    0.0000 N   0  0  0  0  0  0  0  0  0  0  0  0
   11.2039    1.5243    0.0000 N   0  0  0  0  0  0  0  0  0  0  0  0
    6.6974    0.3538    0.0000 N   0  0  0  0  0  0  0  0  0  0  0  0
    9.6517   -0.5461    0.0000 C   0  0  3  0  0  0  0  0  0  0  0  0
    3.6942   -0.2371    0.0000 C   0  0  0  0  0  0  0  0  0  0  0  0
    4.4374   -0.9062    0.0000 C   0  0  0  0  0  0  0  0  0  0  0  0
    2.7431   -0.5461    0.0000 C   0  0  0  0  0  0  0  0  0  0  0  0
    8.7006   -0.2371    0.0000 C   0  0  0  0  0  0  0  0  0  0  0  0
    9.8596   -1.5243    0.0000 C   0  0  0  0  0  0  0  0  0  0  0  0
    5.3884   -0.5972    0.0000 C   0  0  0  0  0  0  0  0  0  0  0  0
    2.0000    0.1230    0.0000 C   0  0  0  0  0  0  0  0  0  0  0  0
   11.3730   -0.0849    0.0000 C   0  0  0  0  0  0  0  0  0  0  0  0
    7.0064   -0.5972    0.0000 C   0  0  0  0  0  0  0  0  0  0  0  0
   10.2903    1.1175    0.0000 C   0  0  0  0  0  0  0  0  0  0  0  0
   11.8730    0.7811    0.0000 C   0  0  0  0  0  0  0  0  0  0  0  0
   10.2413   -0.7377    0.0000 H   0  0  0  0  0  0  0  0  0  0  0  0
    4.1828    0.1446    0.0000 H   0  0  0  0  0  0  0  0  0  0  0  0
    3.4031    0.3103    0.0000 H   0  0  0  0  0  0  0  0  0  0  0  0
    3.9488   -1.2879    0.0000 H   0  0  0  0  0  0  0  0  0  0  0  0
    4.7284   -1.4537    0.0000 H   0  0  0  0  0  0  0  0  0  0  0  0
    2.2546   -0.9278    0.0000 H   0  0  0  0  0  0  0  0  0  0  0  0
    3.0342   -1.0936    0.0000 H   0  0  0  0  0  0  0  0  0  0  0  0
    9.2532   -1.6532    0.0000 H   0  0  0  0  0  0  0  0  0  0  0  0
    9.9885   -2.1307    0.0000 H   0  0  0  0  0  0  0  0  0  0  0  0
   10.4661   -1.3954    0.0000 H   0  0  0  0  0  0  0  0  0  0  0  0
    8.0864   -1.5127    0.0000 H   0  0  0  0  0  0  0  0  0  0  0  0
    2.4149    0.5838    0.0000 H   0  0  0  0  0  0  0  0  0  0  0  0
    1.5392    0.5379    0.0000 H   0  0  0  0  0  0  0  0  0  0  0  0
    1.5851   -0.3377    0.0000 H   0  0  0  0  0  0  0  0  0  0  0  0
   11.6252   -0.6513    0.0000 H   0  0  0  0  0  0  0  0  0  0  0  0
    9.7534    1.4275    0.0000 H   0  0  0  0  0  0  0  0  0  0  0  0
   12.4896    0.8459    0.0000 H   0  0  0  0  0  0  0  0  0  0  0  0
  1 14  1  0  0  0  0
  1 17  1  0  0  0  0
  2 12  2  0  0  0  0
  3  8  1  0  0  0  0
  3 16  1  0  0  0  0
  3 18  1  0  0  0  0
  4 12  1  0  0  0  0
  4 17  1  0  0  0  0
  4 30  1  0  0  0  0
  5  7  1  0  0  0  0
  5 14  2  0  0  0  0
  6 18  2  0  0  0  0
  6 19  1  0  0  0  0
  7 17  2  0  0  0  0
  8 12  1  0  0  0  0
  8 13  1  0  0  0  0
  8 20  1  0  0  0  0
  9 10  1  0  0  0  0
  9 11  1  0  0  0  0
  9 21  1  0  0  0  0
  9 22  1  0  0  0  0
 10 14  1  0  0  0  0
 10 23  1  0  0  0  0
 10 24  1  0  0  0  0
 11 15  1  0  0  0  0
 11 25  1  0  0  0  0
 11 26  1  0  0  0  0
 13 27  1  0  0  0  0
 13 28  1  0  0  0  0
 13 29  1  0  0  0  0
 15 31  1  0  0  0  0
 15 32  1  0  0  0  0
 15 33  1  0  0  0  0
 16 19  2  0  0  0  0
 16 34  1  0  0  0  0
 18 35  1  0  0  0  0
 19 36  1  0  0  0  0
M  END
> <PUBCHEM_COMPOUND_CID>
47205577

> <PUBCHEM_COMPOUND_CANONICALIZED>
1

> <PUBCHEM_CACTVS_COMPLEXITY>
304

> <PUBCHEM_CACTVS_HBOND_ACCEPTOR>
5

> <PUBCHEM_CACTVS_HBOND_DONOR>
1

> <PUBCHEM_CACTVS_ROTATABLE_BOND>
6

> <PUBCHEM_CACTVS_SUBSKEYS>
AAADceBzoABAAAAAAAAAAAAAAAAAAWLAAAAAAAAAAAAAAAAB4AAAHgQYAAAACCjBwgQvkBfMEAiuABE3dAAQgK9RErkdQAG4MACASAIgiCAUAAAYGQKAACAQAAAAAAAAAAAAAAAAAAAAAAAAAAAAAAAAAA==

> <PUBCHEM_IUPAC_OPENEYE_NAME>
N-(5-butyl-1,3,4-thiadiazol-2-yl)-2-imidazol-1-yl-propanamide

> <PUBCHEM_IUPAC_CAS_NAME>
N-(5-butyl-1,3,4-thiadiazol-2-yl)-2-(1-imidazolyl)propanamide

> <PUBCHEM_IUPAC_NAME>
N-(5-butyl-1,3,4-thiadiazol-2-yl)-2-imidazol-1-ylpropanamide

> <PUBCHEM_IUPAC_SYSTEMATIC_NAME>
N-(5-butyl-1,3,4-thiadiazol-2-yl)-2-imidazol-1-yl-propanamide

> <PUBCHEM_IUPAC_TRADITIONAL_NAME>
N-(5-butyl-1,3,4-thiadiazol-2-yl)-2-imidazol-1-yl-propionamide

> <PUBCHEM_IUPAC_INCHI>
InChI=1S/C12H17N5OS/c1-3-4-5-10-15-16-12(19-10)14-11(18)9(2)17-7-6-13-8-17/h6-9H,3-5H2,1-2H3,(H,14,16,18)

> <PUBCHEM_IUPAC_INCHIKEY>
ZHZOOSZPKBVDHY-UHFFFAOYSA-N

> <PUBCHEM_XLOGP3_AA>
1.9

> <PUBCHEM_EXACT_MASS>
279.115381

> <PUBCHEM_MOLECULAR_FORMULA>
C12H17N5OS

> <PUBCHEM_MOLECULAR_WEIGHT>
279.36128

> <PUBCHEM_OPENEYE_CAN_SMILES>
CCCCC1=NN=C(S1)NC(=O)C(C)N2C=CN=C2

> <PUBCHEM_OPENEYE_ISO_SMILES>
CCCCC1=NN=C(S1)NC(=O)C(C)N2C=CN=C2

> <PUBCHEM_CACTVS_TPSA>
101

> <PUBCHEM_MONOISOTOPIC_WEIGHT>
279.115381

> <PUBCHEM_TOTAL_CHARGE>
0

> <PUBCHEM_HEAVY_ATOM_COUNT>
19

> <PUBCHEM_ATOM_DEF_STEREO_COUNT>
0

> <PUBCHEM_ATOM_UDEF_STEREO_COUNT>
1

> <PUBCHEM_BOND_DEF_STEREO_COUNT>
0

> <PUBCHEM_BOND_UDEF_STEREO_COUNT>
0

> <PUBCHEM_ISOTOPIC_ATOM_COUNT>
0

> <PUBCHEM_COMPONENT_COUNT>
1

> <PUBCHEM_CACTVS_TAUTO_COUNT>
5

> <PUBCHEM_COORDINATE_TYPE>
1
5
255

> <PUBCHEM_BONDANNOTATIONS>
1  14  8
1  17  8
16  19  8
3  16  8
3  18  8
5  14  8
5  7  8
6  18  8
6  19  8
7  17  8
8  13  3

$$$$

