3417
  -OEChem-06251223242D

 15 15  0     1  0  0  0  0  0999 V2000
    4.3660    0.0280    0.0000 P   0  0  0  0  0  0  0  0  0  0  0  0
    2.5000    0.5280    0.0000 O   0  0  0  0  0  0  0  0  0  0  0  0
    5.3660    0.0280    0.0000 O   0  0  0  0  0  0  0  0  0  0  0  0
    4.3660    1.0280    0.0000 O   0  0  0  0  0  0  0  0  0  0  0  0
    4.3660   -0.9720    0.0000 O   0  0  0  0  0  0  0  0  0  0  0  0
    3.3660    0.0280    0.0000 C   0  0  3  0  0  0  0  0  0  0  0  0
    2.5000   -0.4720    0.0000 C   0  0  3  0  0  0  0  0  0  0  0  0
    2.0000   -1.3380    0.0000 C   0  0  0  0  0  0  0  0  0  0  0  0
    3.5860   -0.7930    0.0000 H   0  0  0  0  0  0  0  0  0  0  0  0
    1.6790   -0.2520    0.0000 H   0  0  0  0  0  0  0  0  0  0  0  0
    1.4631   -1.0280    0.0000 H   0  0  0  0  0  0  0  0  0  0  0  0
    1.6900   -1.8750    0.0000 H   0  0  0  0  0  0  0  0  0  0  0  0
    2.5369   -1.6480    0.0000 H   0  0  0  0  0  0  0  0  0  0  0  0
    5.6760    0.5649    0.0000 H   0  0  0  0  0  0  0  0  0  0  0  0
    4.9030    1.3380    0.0000 H   0  0  0  0  0  0  0  0  0  0  0  0
  1  3  1  0  0  0  0
  1  4  1  0  0  0  0
  1  5  2  0  0  0  0
  1  6  1  0  0  0  0
  2  6  1  0  0  0  0
  2  7  1  0  0  0  0
  3 14  1  0  0  0  0
  4 15  1  0  0  0  0
  6  7  1  0  0  0  0
  6  9  1  0  0  0  0
  7  8  1  0  0  0  0
  7 10  1  0  0  0  0
  8 11  1  0  0  0  0
  8 12  1  0  0  0  0
  8 13  1  0  0  0  0
M  END
> <PUBCHEM_COMPOUND_CID>
3417

> <PUBCHEM_COMPOUND_CANONICALIZED>
1

> <PUBCHEM_CACTVS_COMPLEXITY>
138

> <PUBCHEM_CACTVS_HBOND_ACCEPTOR>
4

> <PUBCHEM_CACTVS_HBOND_DONOR>
2

> <PUBCHEM_CACTVS_ROTATABLE_BOND>
1

> <PUBCHEM_CACTVS_SUBSKEYS>
AAADcYBAOAIAAAAAAAAAAAAAEgAAAAAAAAAAAAAAAAAAAAAAAAAAGggACCAACBSogAICAAAABBAAQAAAAIAAAAAAAAAAAAAAAAAAAAAAAAAAAAAAAAAAAAAAAAAAAAAAAAAAAAAAAAAAAAAAAAAAAAAAAA==

> <PUBCHEM_IUPAC_OPENEYE_NAME>
(3-methyloxiran-2-yl)phosphonic acid

> <PUBCHEM_IUPAC_CAS_NAME>
(3-methyl-2-oxiranyl)phosphonic acid

> <PUBCHEM_IUPAC_NAME>
(3-methyloxiran-2-yl)phosphonic acid

> <PUBCHEM_IUPAC_SYSTEMATIC_NAME>
(3-methyloxiran-2-yl)phosphonic acid

> <PUBCHEM_IUPAC_TRADITIONAL_NAME>
(3-methyloxiran-2-yl)phosphonic acid

> <PUBCHEM_IUPAC_INCHI>
InChI=1S/C3H7O4P/c1-2-3(7-2)8(4,5)6/h2-3H,1H3,(H2,4,5,6)

> <PUBCHEM_IUPAC_INCHIKEY>
YMDXZJFXQJVXBF-UHFFFAOYSA-N

> <PUBCHEM_XLOGP3_AA>
-1.4

> <PUBCHEM_EXACT_MASS>
138.008195

> <PUBCHEM_MOLECULAR_FORMULA>
C3H7O4P

> <PUBCHEM_MOLECULAR_WEIGHT>
138.059042

> <PUBCHEM_OPENEYE_CAN_SMILES>
CC1C(O1)P(=O)(O)O

> <PUBCHEM_OPENEYE_ISO_SMILES>
CC1C(O1)P(=O)(O)O

> <PUBCHEM_CACTVS_TPSA>
70.1

> <PUBCHEM_MONOISOTOPIC_WEIGHT>
138.008195

> <PUBCHEM_TOTAL_CHARGE>
0

> <PUBCHEM_HEAVY_ATOM_COUNT>
8

> <PUBCHEM_ATOM_DEF_STEREO_COUNT>
0

> <PUBCHEM_ATOM_UDEF_STEREO_COUNT>
2

> <PUBCHEM_BOND_DEF_STEREO_COUNT>
0

> <PUBCHEM_BOND_UDEF_STEREO_COUNT>
0

> <PUBCHEM_ISOTOPIC_ATOM_COUNT>
0

> <PUBCHEM_COMPONENT_COUNT>
1

> <PUBCHEM_CACTVS_TAUTO_COUNT>
1

> <PUBCHEM_COORDINATE_TYPE>
1
5
255

> <PUBCHEM_BONDANNOTATIONS>
6  9  3
7  10  3

$$$$

