5731
  -OEChem-06261200502D

 42 44  0     1  0  0  0  0  0999 V2000
    3.4945   -1.8336    0.0000 O   0  0  0  0  0  0  0  0  0  0  0  0
    2.0000   -0.8630    0.0000 O   0  0  0  0  0  0  0  0  0  0  0  0
    3.6636   -0.2244    0.0000 N   0  0  0  0  0  0  0  0  0  0  0  0
    8.9875   -1.9358    0.0000 N   0  0  0  0  0  0  0  0  0  0  0  0
   10.5873    1.7809    0.0000 N   0  0  0  0  0  0  0  0  0  0  0  0
    4.5772   -0.6311    0.0000 C   0  0  3  0  0  0  0  0  0  0  0  0
    5.4432   -0.1311    0.0000 C   0  0  0  0  0  0  0  0  0  0  0  0
    6.3092   -0.6311    0.0000 C   0  0  0  0  0  0  0  0  0  0  0  0
    8.0413   -0.6311    0.0000 C   0  0  0  0  0  0  0  0  0  0  0  0
    8.9875   -0.3264    0.0000 C   0  0  0  0  0  0  0  0  0  0  0  0
    4.4727   -1.6256    0.0000 C   0  0  0  0  0  0  0  0  0  0  0  0
    8.0413   -1.6311    0.0000 C   0  0  0  0  0  0  0  0  0  0  0  0
    7.1753   -0.1311    0.0000 C   0  0  0  0  0  0  0  0  0  0  0  0
    9.2982    0.6241    0.0000 C   0  0  0  0  0  0  0  0  0  0  0  0
    6.3092   -1.6311    0.0000 C   0  0  0  0  0  0  0  0  0  0  0  0
   10.2767    0.8304    0.0000 C   0  0  0  0  0  0  0  0  0  0  0  0
    9.5711   -1.1311    0.0000 C   0  0  0  0  0  0  0  0  0  0  0  0
    7.1753   -2.1311    0.0000 C   0  0  0  0  0  0  0  0  0  0  0  0
    2.9945   -0.9675    0.0000 C   0  0  0  0  0  0  0  0  0  0  0  0
   11.5659    1.9871    0.0000 C   0  0  0  0  0  0  0  0  0  0  0  0
    9.9195    2.5252    0.0000 C   0  0  0  0  0  0  0  0  0  0  0  0
    4.5447   -0.0120    0.0000 H   0  0  0  0  0  0  0  0  0  0  0  0
    5.8418    0.3438    0.0000 H   0  0  0  0  0  0  0  0  0  0  0  0
    5.0447    0.3438    0.0000 H   0  0  0  0  0  0  0  0  0  0  0  0
    4.5375   -2.2422    0.0000 H   0  0  0  0  0  0  0  0  0  0  0  0
    5.0927   -1.6256    0.0000 H   0  0  0  0  0  0  0  0  0  0  0  0
    7.1753    0.4889    0.0000 H   0  0  0  0  0  0  0  0  0  0  0  0
    9.2776    1.2438    0.0000 H   0  0  0  0  0  0  0  0  0  0  0  0
    8.6844    0.7115    0.0000 H   0  0  0  0  0  0  0  0  0  0  0  0
    3.5348    0.3821    0.0000 H   0  0  0  0  0  0  0  0  0  0  0  0
    5.7723   -1.9411    0.0000 H   0  0  0  0  0  0  0  0  0  0  0  0
   10.2973    0.2107    0.0000 H   0  0  0  0  0  0  0  0  0  0  0  0
   10.8905    0.7430    0.0000 H   0  0  0  0  0  0  0  0  0  0  0  0
   10.1911   -1.1311    0.0000 H   0  0  0  0  0  0  0  0  0  0  0  0
    7.1753   -2.7511    0.0000 H   0  0  0  0  0  0  0  0  0  0  0  0
    9.1801   -2.5252    0.0000 H   0  0  0  0  0  0  0  0  0  0  0  0
   11.6937    1.3804    0.0000 H   0  0  0  0  0  0  0  0  0  0  0  0
   10.3810    2.9392    0.0000 H   0  0  0  0  0  0  0  0  0  0  0  0
    9.5054    2.9866    0.0000 H   0  0  0  0  0  0  0  0  0  0  0  0
    9.4580    2.1111    0.0000 H   0  0  0  0  0  0  0  0  0  0  0  0
   12.1725    2.1150    0.0000 H   0  0  0  0  0  0  0  0  0  0  0  0
   11.4380    2.5938    0.0000 H   0  0  0  0  0  0  0  0  0  0  0  0
  1 11  1  0  0  0  0
  1 19  1  0  0  0  0
  2 19  2  0  0  0  0
  3  6  1  0  0  0  0
  3 19  1  0  0  0  0
  3 30  1  0  0  0  0
  4 12  1  0  0  0  0
  4 17  1  0  0  0  0
  4 36  1  0  0  0  0
  5 16  1  0  0  0  0
  5 20  1  0  0  0  0
  5 21  1  0  0  0  0
  6  7  1  0  0  0  0
  6 11  1  0  0  0  0
  6 22  1  0  0  0  0
  7  8  1  0  0  0  0
  7 23  1  0  0  0  0
  7 24  1  0  0  0  0
  8 13  2  0  0  0  0
  8 15  1  0  0  0  0
  9 10  1  0  0  0  0
  9 12  2  0  0  0  0
  9 13  1  0  0  0  0
 10 14  1  0  0  0  0
 10 17  2  0  0  0  0
 11 25  1  0  0  0  0
 11 26  1  0  0  0  0
 12 18  1  0  0  0  0
 13 27  1  0  0  0  0
 14 16  1  0  0  0  0
 14 28  1  0  0  0  0
 14 29  1  0  0  0  0
 15 18  2  0  0  0  0
 15 31  1  0  0  0  0
 16 32  1  0  0  0  0
 16 33  1  0  0  0  0
 17 34  1  0  0  0  0
 18 35  1  0  0  0  0
 20 37  1  0  0  0  0
 20 41  1  0  0  0  0
 20 42  1  0  0  0  0
 21 38  1  0  0  0  0
 21 39  1  0  0  0  0
 21 40  1  0  0  0  0
M  END
> <PUBCHEM_COMPOUND_CID>
5731

> <PUBCHEM_COMPOUND_CANONICALIZED>
1

> <PUBCHEM_CACTVS_COMPLEXITY>
375

> <PUBCHEM_CACTVS_HBOND_ACCEPTOR>
3

> <PUBCHEM_CACTVS_HBOND_DONOR>
2

> <PUBCHEM_CACTVS_ROTATABLE_BOND>
5

> <PUBCHEM_CACTVS_SUBSKEYS>
AAADceB7MAAAAAAAAAAAAAAAAAAAAWLAAAAwAAAAAAAAAFgB8AAAHgAQAAAADCjhngY+yPPJlACoAzRnXACCgCAxAiAI2aA4ZJkKIOLAkZGNIAhklgDYyAeQwOAOiAACAAACAAAQAAQAAAQAAAAAAAAAAA==

> <PUBCHEM_IUPAC_OPENEYE_NAME>
4-[[3-[2-(dimethylamino)ethyl]-1H-indol-5-yl]methyl]oxazolidin-2-one

> <PUBCHEM_IUPAC_CAS_NAME>
4-[[3-[2-(dimethylamino)ethyl]-1H-indol-5-yl]methyl]-2-oxazolidinone

> <PUBCHEM_IUPAC_NAME>
4-[[3-[2-(dimethylamino)ethyl]-1H-indol-5-yl]methyl]-1,3-oxazolidin-2-one

> <PUBCHEM_IUPAC_SYSTEMATIC_NAME>
4-[[3-[2-(dimethylamino)ethyl]-1H-indol-5-yl]methyl]-1,3-oxazolidin-2-one

> <PUBCHEM_IUPAC_TRADITIONAL_NAME>
4-[[3-[2-(dimethylamino)ethyl]-1H-indol-5-yl]methyl]oxazolidin-2-one

> <PUBCHEM_IUPAC_INCHI>
InChI=1S/C16H21N3O2/c1-19(2)6-5-12-9-17-15-4-3-11(8-14(12)15)7-13-10-21-16(20)18-13/h3-4,8-9,13,17H,5-7,10H2,1-2H3,(H,18,20)

> <PUBCHEM_IUPAC_INCHIKEY>
ULSDMUVEXKOYBU-UHFFFAOYSA-N

> <PUBCHEM_XLOGP3_AA>
2.2

> <PUBCHEM_EXACT_MASS>
287.163377

> <PUBCHEM_MOLECULAR_FORMULA>
C16H21N3O2

> <PUBCHEM_MOLECULAR_WEIGHT>
287.35684

> <PUBCHEM_OPENEYE_CAN_SMILES>
CN(C)CCC1=CNC2=C1C=C(C=C2)CC3COC(=O)N3

> <PUBCHEM_OPENEYE_ISO_SMILES>
CN(C)CCC1=CNC2=C1C=C(C=C2)CC3COC(=O)N3

> <PUBCHEM_CACTVS_TPSA>
57.4

> <PUBCHEM_MONOISOTOPIC_WEIGHT>
287.163377

> <PUBCHEM_TOTAL_CHARGE>
0

> <PUBCHEM_HEAVY_ATOM_COUNT>
21

> <PUBCHEM_ATOM_DEF_STEREO_COUNT>
0

> <PUBCHEM_ATOM_UDEF_STEREO_COUNT>
1

> <PUBCHEM_BOND_DEF_STEREO_COUNT>
0

> <PUBCHEM_BOND_UDEF_STEREO_COUNT>
0

> <PUBCHEM_ISOTOPIC_ATOM_COUNT>
0

> <PUBCHEM_COMPONENT_COUNT>
1

> <PUBCHEM_CACTVS_TAUTO_COUNT>
2

> <PUBCHEM_COORDINATE_TYPE>
1
5
255

> <PUBCHEM_BONDANNOTATIONS>
10  17  8
12  18  8
15  18  8
4  12  8
4  17  8
6  7  3
8  13  8
8  15  8
9  10  8
9  12  8
9  13  8

$$$$

