17396608
  -OEChem-06241222572D

 42 44  0     0  0  0  0  0  0999 V2000
    8.2619   -1.9961    0.0000 O   0  0  0  0  0  0  0  0  0  0  0  0
    7.7619   -1.1300    0.0000 O   0  0  0  0  0  0  0  0  0  0  0  0
    4.6783    2.2728    0.0000 N   0  0  0  0  0  0  0  0  0  0  0  0
    7.7619    0.6020    0.0000 N   0  0  0  0  0  0  0  0  0  0  0  0
    4.6783    0.6633    0.0000 N   0  0  0  0  0  0  0  0  0  0  0  0
    6.2619    1.4680    0.0000 C   0  0  0  0  0  0  0  0  0  0  0  0
    5.2619    1.4680    0.0000 C   0  0  0  0  0  0  0  0  0  0  0  0
    6.7619    0.6020    0.0000 C   0  0  0  0  0  0  0  0  0  0  0  0
    3.7320    1.9680    0.0000 C   0  0  0  0  0  0  0  0  0  0  0  0
    3.7320    0.9680    0.0000 C   0  0  0  0  0  0  0  0  0  0  0  0
    9.2619   -0.2640    0.0000 C   0  0  0  0  0  0  0  0  0  0  0  0
    9.7619   -1.1300    0.0000 C   0  0  0  0  0  0  0  0  0  0  0  0
    8.2619   -0.2640    0.0000 C   0  0  0  0  0  0  0  0  0  0  0  0
    2.8660    2.4680    0.0000 C   0  0  0  0  0  0  0  0  0  0  0  0
    2.8660    0.4680    0.0000 C   0  0  0  0  0  0  0  0  0  0  0  0
    9.2619   -1.9961    0.0000 C   0  0  0  0  0  0  0  0  0  0  0  0
    2.0000    1.9680    0.0000 C   0  0  0  0  0  0  0  0  0  0  0  0
   10.7619   -1.1300    0.0000 C   0  0  0  0  0  0  0  0  0  0  0  0
    2.0000    0.9680    0.0000 C   0  0  0  0  0  0  0  0  0  0  0  0
    9.7619   -2.8621    0.0000 C   0  0  0  0  0  0  0  0  0  0  0  0
   11.2619   -1.9961    0.0000 C   0  0  0  0  0  0  0  0  0  0  0  0
   10.7619   -2.8621    0.0000 C   0  0  0  0  0  0  0  0  0  0  0  0
    7.7619   -2.8621    0.0000 C   0  0  0  0  0  0  0  0  0  0  0  0
    6.8445    1.6801    0.0000 H   0  0  0  0  0  0  0  0  0  0  0  0
    6.1542    2.0786    0.0000 H   0  0  0  0  0  0  0  0  0  0  0  0
    6.1793    0.3900    0.0000 H   0  0  0  0  0  0  0  0  0  0  0  0
    6.8695   -0.0086    0.0000 H   0  0  0  0  0  0  0  0  0  0  0  0
    4.8709    2.8621    0.0000 H   0  0  0  0  0  0  0  0  0  0  0  0
    8.0719    1.1389    0.0000 H   0  0  0  0  0  0  0  0  0  0  0  0
    9.8445   -0.0520    0.0000 H   0  0  0  0  0  0  0  0  0  0  0  0
    9.1542    0.3466    0.0000 H   0  0  0  0  0  0  0  0  0  0  0  0
    2.8660    3.0880    0.0000 H   0  0  0  0  0  0  0  0  0  0  0  0
    2.8660   -0.1520    0.0000 H   0  0  0  0  0  0  0  0  0  0  0  0
   11.0719   -0.5931    0.0000 H   0  0  0  0  0  0  0  0  0  0  0  0
    1.4631    2.2780    0.0000 H   0  0  0  0  0  0  0  0  0  0  0  0
    1.4631    0.6580    0.0000 H   0  0  0  0  0  0  0  0  0  0  0  0
    9.4519   -3.3990    0.0000 H   0  0  0  0  0  0  0  0  0  0  0  0
   11.8819   -1.9961    0.0000 H   0  0  0  0  0  0  0  0  0  0  0  0
   11.0719   -3.3990    0.0000 H   0  0  0  0  0  0  0  0  0  0  0  0
    7.2249   -2.5521    0.0000 H   0  0  0  0  0  0  0  0  0  0  0  0
    7.4519   -3.3990    0.0000 H   0  0  0  0  0  0  0  0  0  0  0  0
    8.2988   -3.1721    0.0000 H   0  0  0  0  0  0  0  0  0  0  0  0
  1 16  1  0  0  0  0
  1 23  1  0  0  0  0
  2 13  2  0  0  0  0
  3  7  1  0  0  0  0
  3  9  1  0  0  0  0
  3 28  1  0  0  0  0
  4  8  1  0  0  0  0
  4 13  1  0  0  0  0
  4 29  1  0  0  0  0
  5  7  2  0  0  0  0
  5 10  1  0  0  0  0
  6  7  1  0  0  0  0
  6  8  1  0  0  0  0
  6 24  1  0  0  0  0
  6 25  1  0  0  0  0
  8 26  1  0  0  0  0
  8 27  1  0  0  0  0
  9 10  1  0  0  0  0
  9 14  2  0  0  0  0
 10 15  2  0  0  0  0
 11 12  1  0  0  0  0
 11 13  1  0  0  0  0
 11 30  1  0  0  0  0
 11 31  1  0  0  0  0
 12 16  1  0  0  0  0
 12 18  2  0  0  0  0
 14 17  1  0  0  0  0
 14 32  1  0  0  0  0
 15 19  1  0  0  0  0
 15 33  1  0  0  0  0
 16 20  2  0  0  0  0
 17 19  2  0  0  0  0
 17 35  1  0  0  0  0
 18 21  1  0  0  0  0
 18 34  1  0  0  0  0
 19 36  1  0  0  0  0
 20 22  1  0  0  0  0
 20 37  1  0  0  0  0
 21 22  2  0  0  0  0
 21 38  1  0  0  0  0
 22 39  1  0  0  0  0
 23 40  1  0  0  0  0
 23 41  1  0  0  0  0
 23 42  1  0  0  0  0
M  END
> <PUBCHEM_COMPOUND_CID>
17396608

> <PUBCHEM_COMPOUND_CANONICALIZED>
1

> <PUBCHEM_CACTVS_COMPLEXITY>
391

> <PUBCHEM_CACTVS_HBOND_ACCEPTOR>
3

> <PUBCHEM_CACTVS_HBOND_DONOR>
2

> <PUBCHEM_CACTVS_ROTATABLE_BOND>
6

> <PUBCHEM_CACTVS_SUBSKEYS>
AAADceB7MAAAAAAAAAAAAAAAAAAAAWAAAAAwYAAAAAAAAFgB9AAAHgAQAAAADAzBnwYz1rbJlACoAydydACCiC2hMqAJmaE+fJiMbrLE/ZuUMChs1hPI6Ce6yKCOAAAAAAAIACAAAAAAABAAQAAAAAAAAA==

> <PUBCHEM_IUPAC_OPENEYE_NAME>
N-[2-(1H-benzimidazol-2-yl)ethyl]-2-(2-methoxyphenyl)acetamide

> <PUBCHEM_IUPAC_CAS_NAME>
N-[2-(1H-benzimidazol-2-yl)ethyl]-2-(2-methoxyphenyl)acetamide

> <PUBCHEM_IUPAC_NAME>
N-[2-(1H-benzimidazol-2-yl)ethyl]-2-(2-methoxyphenyl)acetamide

> <PUBCHEM_IUPAC_SYSTEMATIC_NAME>
N-[2-(1H-benzimidazol-2-yl)ethyl]-2-(2-methoxyphenyl)ethanamide

> <PUBCHEM_IUPAC_TRADITIONAL_NAME>
N-[2-(1H-benzimidazol-2-yl)ethyl]-2-(2-methoxyphenyl)acetamide

> <PUBCHEM_IUPAC_INCHI>
InChI=1S/C18H19N3O2/c1-23-16-9-5-2-6-13(16)12-18(22)19-11-10-17-20-14-7-3-4-8-15(14)21-17/h2-9H,10-12H2,1H3,(H,19,22)(H,20,21)

> <PUBCHEM_IUPAC_INCHIKEY>
CXBBIWHUTJDZMD-UHFFFAOYSA-N

> <PUBCHEM_XLOGP3_AA>
2.7

> <PUBCHEM_EXACT_MASS>
309.147727

> <PUBCHEM_MOLECULAR_FORMULA>
C18H19N3O2

> <PUBCHEM_MOLECULAR_WEIGHT>
309.36236

> <PUBCHEM_OPENEYE_CAN_SMILES>
COC1=CC=CC=C1CC(=O)NCCC2=NC3=CC=CC=C3N2

> <PUBCHEM_OPENEYE_ISO_SMILES>
COC1=CC=CC=C1CC(=O)NCCC2=NC3=CC=CC=C3N2

> <PUBCHEM_CACTVS_TPSA>
67

> <PUBCHEM_MONOISOTOPIC_WEIGHT>
309.147727

> <PUBCHEM_TOTAL_CHARGE>
0

> <PUBCHEM_HEAVY_ATOM_COUNT>
23

> <PUBCHEM_ATOM_DEF_STEREO_COUNT>
0

> <PUBCHEM_ATOM_UDEF_STEREO_COUNT>
0

> <PUBCHEM_BOND_DEF_STEREO_COUNT>
0

> <PUBCHEM_BOND_UDEF_STEREO_COUNT>
0

> <PUBCHEM_ISOTOPIC_ATOM_COUNT>
0

> <PUBCHEM_COMPONENT_COUNT>
1

> <PUBCHEM_CACTVS_TAUTO_COUNT>
4

> <PUBCHEM_COORDINATE_TYPE>
1
5
255

> <PUBCHEM_BONDANNOTATIONS>
10  15  8
12  16  8
12  18  8
14  17  8
15  19  8
16  20  8
17  19  8
18  21  8
20  22  8
21  22  8
3  7  8
3  9  8
5  10  8
5  7  8
9  10  8
9  14  8

$$$$

