854342
  -OEChem-06241222482D

 35 36  0     0  0  0  0  0  0999 V2000
    2.8660   -3.5684    0.0000 O   0  0  0  0  0  0  0  0  0  0  0  0
    4.9483    2.6749    0.0000 O   0  0  0  0  0  0  0  0  0  0  0  0
    2.3660    1.9704    0.0000 N   0  0  0  0  0  0  0  0  0  0  0  0
    2.0570    1.0194    0.0000 N   0  0  0  0  0  0  0  0  0  0  0  0
    3.5471    3.6930    0.0000 N   0  0  0  0  0  0  0  0  0  0  0  0
    4.1349    4.5020    0.0000 N   0  0  0  0  0  0  0  0  0  0  0  0
    2.8660    0.4316    0.0000 C   0  0  0  0  0  0  0  0  0  0  0  0
    3.6750    1.0194    0.0000 C   0  0  0  0  0  0  0  0  0  0  0  0
    2.8660   -0.5684    0.0000 C   0  0  0  0  0  0  0  0  0  0  0  0
    3.3660    1.9704    0.0000 C   0  0  0  0  0  0  0  0  0  0  0  0
    4.6261    0.7104    0.0000 C   0  0  0  0  0  0  0  0  0  0  0  0
    2.0000   -1.0684    0.0000 C   0  0  0  0  0  0  0  0  0  0  0  0
    3.7320   -1.0684    0.0000 C   0  0  0  0  0  0  0  0  0  0  0  0
    2.8660   -2.5684    0.0000 C   0  0  0  0  0  0  0  0  0  0  0  0
    2.0000   -2.0684    0.0000 C   0  0  0  0  0  0  0  0  0  0  0  0
    3.7320   -2.0684    0.0000 C   0  0  0  0  0  0  0  0  0  0  0  0
    3.9538    2.7795    0.0000 C   0  0  0  0  0  0  0  0  0  0  0  0
    2.0000   -4.0684    0.0000 C   0  0  0  0  0  0  0  0  0  0  0  0
    2.0000   -5.0684    0.0000 C   0  0  0  0  0  0  0  0  0  0  0  0
    4.4345    0.1207    0.0000 H   0  0  0  0  0  0  0  0  0  0  0  0
    5.2158    0.5188    0.0000 H   0  0  0  0  0  0  0  0  0  0  0  0
    4.8177    1.3000    0.0000 H   0  0  0  0  0  0  0  0  0  0  0  0
    2.0016    2.4720    0.0000 H   0  0  0  0  0  0  0  0  0  0  0  0
    1.4631   -0.7584    0.0000 H   0  0  0  0  0  0  0  0  0  0  0  0
    4.2690   -0.7584    0.0000 H   0  0  0  0  0  0  0  0  0  0  0  0
    1.4631   -2.3784    0.0000 H   0  0  0  0  0  0  0  0  0  0  0  0
    4.2690   -2.3784    0.0000 H   0  0  0  0  0  0  0  0  0  0  0  0
    1.7880   -3.4858    0.0000 H   0  0  0  0  0  0  0  0  0  0  0  0
    1.3894   -4.1761    0.0000 H   0  0  0  0  0  0  0  0  0  0  0  0
    2.9305    3.7578    0.0000 H   0  0  0  0  0  0  0  0  0  0  0  0
    1.3800   -5.0684    0.0000 H   0  0  0  0  0  0  0  0  0  0  0  0
    2.0000   -5.6884    0.0000 H   0  0  0  0  0  0  0  0  0  0  0  0
    2.6200   -5.0684    0.0000 H   0  0  0  0  0  0  0  0  0  0  0  0
    3.8827    5.0684    0.0000 H   0  0  0  0  0  0  0  0  0  0  0  0
    4.7515    4.4372    0.0000 H   0  0  0  0  0  0  0  0  0  0  0  0
  1 14  1  0  0  0  0
  1 18  1  0  0  0  0
  2 17  2  0  0  0  0
  3  4  1  0  0  0  0
  3 10  1  0  0  0  0
  3 23  1  0  0  0  0
  4  7  2  0  0  0  0
  5  6  1  0  0  0  0
  5 17  1  0  0  0  0
  5 30  1  0  0  0  0
  6 34  1  0  0  0  0
  6 35  1  0  0  0  0
  7  8  1  0  0  0  0
  7  9  1  0  0  0  0
  8 10  2  0  0  0  0
  8 11  1  0  0  0  0
  9 12  2  0  0  0  0
  9 13  1  0  0  0  0
 10 17  1  0  0  0  0
 11 20  1  0  0  0  0
 11 21  1  0  0  0  0
 11 22  1  0  0  0  0
 12 15  1  0  0  0  0
 12 24  1  0  0  0  0
 13 16  2  0  0  0  0
 13 25  1  0  0  0  0
 14 15  2  0  0  0  0
 14 16  1  0  0  0  0
 15 26  1  0  0  0  0
 16 27  1  0  0  0  0
 18 19  1  0  0  0  0
 18 28  1  0  0  0  0
 18 29  1  0  0  0  0
 19 31  1  0  0  0  0
 19 32  1  0  0  0  0
 19 33  1  0  0  0  0
M  END
> <PUBCHEM_COMPOUND_CID>
854342

> <PUBCHEM_COMPOUND_CANONICALIZED>
1

> <PUBCHEM_CACTVS_COMPLEXITY>
305

> <PUBCHEM_CACTVS_HBOND_ACCEPTOR>
4

> <PUBCHEM_CACTVS_HBOND_DONOR>
3

> <PUBCHEM_CACTVS_ROTATABLE_BOND>
4

> <PUBCHEM_CACTVS_SUBSKEYS>
AAADceBzsAAAAAAAAAAAAAAAAAAAAWAAAAAwAAAAAAAAAAABwAAAHgAYAAAADAyhngIyhpBjBACqAyVyUACSDAAmIAIauSGmTNgMZrKE9duCvSDkyBEI6Qec2OGOIAAAAAAAAABAAAAAAAAAAAAAAAAAAA==

> <PUBCHEM_IUPAC_OPENEYE_NAME>
3-(4-ethoxyphenyl)-4-methyl-1H-pyrazole-5-carbohydrazide

> <PUBCHEM_IUPAC_CAS_NAME>
3-(4-ethoxyphenyl)-4-methyl-1H-pyrazole-5-carbohydrazide

> <PUBCHEM_IUPAC_NAME>
3-(4-ethoxyphenyl)-4-methyl-1H-pyrazole-5-carbohydrazide

> <PUBCHEM_IUPAC_SYSTEMATIC_NAME>
3-(4-ethoxyphenyl)-4-methyl-1H-pyrazole-5-carbohydrazide

> <PUBCHEM_IUPAC_TRADITIONAL_NAME>
4-methyl-3-p-phenetyl-1H-pyrazole-5-carbohydrazide

> <PUBCHEM_IUPAC_INCHI>
InChI=1S/C13H16N4O2/c1-3-19-10-6-4-9(5-7-10)11-8(2)12(17-16-11)13(18)15-14/h4-7H,3,14H2,1-2H3,(H,15,18)(H,16,17)

> <PUBCHEM_IUPAC_INCHIKEY>
ZGKBOCHBQGGPCQ-UHFFFAOYSA-N

> <PUBCHEM_XLOGP3_AA>
1.4

> <PUBCHEM_EXACT_MASS>
260.127326

> <PUBCHEM_MOLECULAR_FORMULA>
C13H16N4O2

> <PUBCHEM_MOLECULAR_WEIGHT>
260.29174

> <PUBCHEM_OPENEYE_CAN_SMILES>
CCOC1=CC=C(C=C1)C2=NNC(=C2C)C(=O)NN

> <PUBCHEM_OPENEYE_ISO_SMILES>
CCOC1=CC=C(C=C1)C2=NNC(=C2C)C(=O)NN

> <PUBCHEM_CACTVS_TPSA>
93

> <PUBCHEM_MONOISOTOPIC_WEIGHT>
260.127326

> <PUBCHEM_TOTAL_CHARGE>
0

> <PUBCHEM_HEAVY_ATOM_COUNT>
19

> <PUBCHEM_ATOM_DEF_STEREO_COUNT>
0

> <PUBCHEM_ATOM_UDEF_STEREO_COUNT>
0

> <PUBCHEM_BOND_DEF_STEREO_COUNT>
0

> <PUBCHEM_BOND_UDEF_STEREO_COUNT>
0

> <PUBCHEM_ISOTOPIC_ATOM_COUNT>
0

> <PUBCHEM_COMPONENT_COUNT>
1

> <PUBCHEM_CACTVS_TAUTO_COUNT>
9

> <PUBCHEM_COORDINATE_TYPE>
1
5
255

> <PUBCHEM_BONDANNOTATIONS>
12  15  8
13  16  8
14  15  8
14  16  8
3  10  8
3  4  8
4  7  8
7  8  8
8  10  8
9  12  8
9  13  8

$$$$

