586133
  -OEChem-06241222452D

 47 49  0     1  0  0  0  0  0999 V2000
    2.0000    6.3600    0.0000 Cl  0  0  0  0  0  0  0  0  0  0  0  0
    6.9733   -1.5812    0.0000 O   0  0  0  0  0  0  0  0  0  0  0  0
    3.1309    0.3833    0.0000 O   0  0  0  0  0  0  0  0  0  0  0  0
    5.2132   -5.8600    0.0000 O   0  0  0  0  0  0  0  0  0  0  0  0
    5.2132   -1.8600    0.0000 N   0  0  0  0  0  0  0  0  0  0  0  0
    4.5322    1.4014    0.0000 N   0  0  0  0  0  0  0  0  0  0  0  0
    4.7132   -0.3212    0.0000 C   0  0  3  0  0  0  0  0  0  0  0  0
    4.4042   -1.2722    0.0000 C   0  0  0  0  0  0  0  0  0  0  0  0
    5.7132   -0.3212    0.0000 C   0  0  0  0  0  0  0  0  0  0  0  0
    6.0223   -1.2722    0.0000 C   0  0  0  0  0  0  0  0  0  0  0  0
    4.1254    0.4878    0.0000 C   0  0  0  0  0  0  0  0  0  0  0  0
    5.2132   -2.8600    0.0000 C   0  0  0  0  0  0  0  0  0  0  0  0
    3.9444    2.2104    0.0000 C   0  0  0  0  0  0  0  0  0  0  0  0
    4.3472   -3.3600    0.0000 C   0  0  0  0  0  0  0  0  0  0  0  0
    6.0793   -3.3600    0.0000 C   0  0  0  0  0  0  0  0  0  0  0  0
    4.3511    3.1239    0.0000 C   0  0  0  0  0  0  0  0  0  0  0  0
    4.3472   -4.3600    0.0000 C   0  0  0  0  0  0  0  0  0  0  0  0
    6.0793   -4.3600    0.0000 C   0  0  0  0  0  0  0  0  0  0  0  0
    3.7634    3.9330    0.0000 C   0  0  0  0  0  0  0  0  0  0  0  0
    5.2132   -4.8600    0.0000 C   0  0  0  0  0  0  0  0  0  0  0  0
    4.1701    4.8465    0.0000 C   0  0  0  0  0  0  0  0  0  0  0  0
    2.7688    3.8284    0.0000 C   0  0  0  0  0  0  0  0  0  0  0  0
    3.5823    5.6555    0.0000 C   0  0  0  0  0  0  0  0  0  0  0  0
    2.1810    4.6374    0.0000 C   0  0  0  0  0  0  0  0  0  0  0  0
    2.5878    5.5510    0.0000 C   0  0  0  0  0  0  0  0  0  0  0  0
    4.3472   -6.3600    0.0000 C   0  0  0  0  0  0  0  0  0  0  0  0
    4.9947    0.2312    0.0000 H   0  0  0  0  0  0  0  0  0  0  0  0
    3.8378   -1.0201    0.0000 H   0  0  0  0  0  0  0  0  0  0  0  0
    4.0942   -1.8092    0.0000 H   0  0  0  0  0  0  0  0  0  0  0  0
    6.3197   -0.1923    0.0000 H   0  0  0  0  0  0  0  0  0  0  0  0
    5.6484    0.2954    0.0000 H   0  0  0  0  0  0  0  0  0  0  0  0
    5.1488    1.4662    0.0000 H   0  0  0  0  0  0  0  0  0  0  0  0
    3.4304    2.5571    0.0000 H   0  0  0  0  0  0  0  0  0  0  0  0
    3.5137    1.7644    0.0000 H   0  0  0  0  0  0  0  0  0  0  0  0
    3.8103   -3.0500    0.0000 H   0  0  0  0  0  0  0  0  0  0  0  0
    6.6162   -3.0500    0.0000 H   0  0  0  0  0  0  0  0  0  0  0  0
    4.8651    2.7772    0.0000 H   0  0  0  0  0  0  0  0  0  0  0  0
    4.7818    3.5699    0.0000 H   0  0  0  0  0  0  0  0  0  0  0  0
    3.8103   -4.6700    0.0000 H   0  0  0  0  0  0  0  0  0  0  0  0
    6.6162   -4.6700    0.0000 H   0  0  0  0  0  0  0  0  0  0  0  0
    4.7867    4.9113    0.0000 H   0  0  0  0  0  0  0  0  0  0  0  0
    2.5167    3.2620    0.0000 H   0  0  0  0  0  0  0  0  0  0  0  0
    3.8345    6.2219    0.0000 H   0  0  0  0  0  0  0  0  0  0  0  0
    1.5644    4.5726    0.0000 H   0  0  0  0  0  0  0  0  0  0  0  0
    4.0372   -5.8231    0.0000 H   0  0  0  0  0  0  0  0  0  0  0  0
    3.8103   -6.6700    0.0000 H   0  0  0  0  0  0  0  0  0  0  0  0
    4.6572   -6.8970    0.0000 H   0  0  0  0  0  0  0  0  0  0  0  0
  1 25  1  0  0  0  0
  2 10  2  0  0  0  0
  3 11  2  0  0  0  0
  4 20  1  0  0  0  0
  4 26  1  0  0  0  0
  5  8  1  0  0  0  0
  5 10  1  0  0  0  0
  5 12  1  0  0  0  0
  6 11  1  0  0  0  0
  6 13  1  0  0  0  0
  6 32  1  0  0  0  0
  7  8  1  0  0  0  0
  7  9  1  0  0  0  0
  7 11  1  0  0  0  0
  7 27  1  0  0  0  0
  8 28  1  0  0  0  0
  8 29  1  0  0  0  0
  9 10  1  0  0  0  0
  9 30  1  0  0  0  0
  9 31  1  0  0  0  0
 12 14  2  0  0  0  0
 12 15  1  0  0  0  0
 13 16  1  0  0  0  0
 13 33  1  0  0  0  0
 13 34  1  0  0  0  0
 14 17  1  0  0  0  0
 14 35  1  0  0  0  0
 15 18  2  0  0  0  0
 15 36  1  0  0  0  0
 16 19  1  0  0  0  0
 16 37  1  0  0  0  0
 16 38  1  0  0  0  0
 17 20  2  0  0  0  0
 17 39  1  0  0  0  0
 18 20  1  0  0  0  0
 18 40  1  0  0  0  0
 19 21  2  0  0  0  0
 19 22  1  0  0  0  0
 21 23  1  0  0  0  0
 21 41  1  0  0  0  0
 22 24  2  0  0  0  0
 22 42  1  0  0  0  0
 23 25  2  0  0  0  0
 23 43  1  0  0  0  0
 24 25  1  0  0  0  0
 24 44  1  0  0  0  0
 26 45  1  0  0  0  0
 26 46  1  0  0  0  0
 26 47  1  0  0  0  0
M  END
> <PUBCHEM_COMPOUND_CID>
586133

> <PUBCHEM_COMPOUND_CANONICALIZED>
1

> <PUBCHEM_CACTVS_COMPLEXITY>
485

> <PUBCHEM_CACTVS_HBOND_ACCEPTOR>
3

> <PUBCHEM_CACTVS_HBOND_DONOR>
1

> <PUBCHEM_CACTVS_ROTATABLE_BOND>
6

> <PUBCHEM_CACTVS_SUBSKEYS>
AAADceB7MAAEAAAAAAAAAAAAAAAAAWAAAAAwYAAAAAAAAAABQAAAHgIQAAAADQ7BmCYyxoPABACIAiVSUACCCAAhJwAIiIEObogMJjrF85uEMChk1hHI6Ae1wIAOBEAAAAAAAAAIgAAAAAAAAAAAAAAAAA==

> <PUBCHEM_IUPAC_OPENEYE_NAME>
N-[2-(4-chlorophenyl)ethyl]-1-(4-methoxyphenyl)-5-oxo-pyrrolidine-3-carboxamide

> <PUBCHEM_IUPAC_CAS_NAME>
N-[2-(4-chlorophenyl)ethyl]-1-(4-methoxyphenyl)-5-oxo-3-pyrrolidinecarboxamide

> <PUBCHEM_IUPAC_NAME>
N-[2-(4-chlorophenyl)ethyl]-1-(4-methoxyphenyl)-5-oxopyrrolidine-3-carboxamide

> <PUBCHEM_IUPAC_SYSTEMATIC_NAME>
N-[2-(4-chlorophenyl)ethyl]-1-(4-methoxyphenyl)-5-oxidanylidene-pyrrolidine-3-carboxamide

> <PUBCHEM_IUPAC_TRADITIONAL_NAME>
N-[2-(4-chlorophenyl)ethyl]-5-keto-1-(4-methoxyphenyl)pyrrolidine-3-carboxamide

> <PUBCHEM_IUPAC_INCHI>
InChI=1S/C20H21ClN2O3/c1-26-18-8-6-17(7-9-18)23-13-15(12-19(23)24)20(25)22-11-10-14-2-4-16(21)5-3-14/h2-9,15H,10-13H2,1H3,(H,22,25)

> <PUBCHEM_IUPAC_INCHIKEY>
TZJLXPRMTJEPRH-UHFFFAOYSA-N

> <PUBCHEM_XLOGP3_AA>
2.8

> <PUBCHEM_EXACT_MASS>
372.12407

> <PUBCHEM_MOLECULAR_FORMULA>
C20H21ClN2O3

> <PUBCHEM_MOLECULAR_WEIGHT>
372.84534

> <PUBCHEM_OPENEYE_CAN_SMILES>
COC1=CC=C(C=C1)N2CC(CC2=O)C(=O)NCCC3=CC=C(C=C3)Cl

> <PUBCHEM_OPENEYE_ISO_SMILES>
COC1=CC=C(C=C1)N2CC(CC2=O)C(=O)NCCC3=CC=C(C=C3)Cl

> <PUBCHEM_CACTVS_TPSA>
58.6

> <PUBCHEM_MONOISOTOPIC_WEIGHT>
372.12407

> <PUBCHEM_TOTAL_CHARGE>
0

> <PUBCHEM_HEAVY_ATOM_COUNT>
26

> <PUBCHEM_ATOM_DEF_STEREO_COUNT>
0

> <PUBCHEM_ATOM_UDEF_STEREO_COUNT>
1

> <PUBCHEM_BOND_DEF_STEREO_COUNT>
0

> <PUBCHEM_BOND_UDEF_STEREO_COUNT>
0

> <PUBCHEM_ISOTOPIC_ATOM_COUNT>
0

> <PUBCHEM_COMPONENT_COUNT>
1

> <PUBCHEM_CACTVS_TAUTO_COUNT>
4

> <PUBCHEM_COORDINATE_TYPE>
1
5
255

> <PUBCHEM_BONDANNOTATIONS>
12  14  8
12  15  8
14  17  8
15  18  8
17  20  8
18  20  8
19  21  8
19  22  8
21  23  8
22  24  8
23  25  8
24  25  8
7  11  3

$$$$

