11725
  -OEChem-06261206022D

 15 15  0     0  0  0  0  0  0999 V2000
    3.0000    0.1464    0.0000 C   0  0  0  0  0  0  0  0  0  0  0  0
    3.0000   -0.8536    0.0000 C   0  0  0  0  0  0  0  0  0  0  0  0
    2.0000    0.1464    0.0000 C   0  0  0  0  0  0  0  0  0  0  0  0
    2.0000   -0.8536    0.0000 C   0  0  0  0  0  0  0  0  0  0  0  0
    3.7071    0.8536    0.0000 C   0  0  0  0  0  0  0  0  0  0  0  0
    3.5728   -0.0908    0.0000 H   0  0  0  0  0  0  0  0  0  0  0  0
    3.0000   -1.4736    0.0000 H   0  0  0  0  0  0  0  0  0  0  0  0
    3.6200   -0.8536    0.0000 H   0  0  0  0  0  0  0  0  0  0  0  0
    2.0000    0.7664    0.0000 H   0  0  0  0  0  0  0  0  0  0  0  0
    1.3800    0.1464    0.0000 H   0  0  0  0  0  0  0  0  0  0  0  0
    1.3800   -0.8536    0.0000 H   0  0  0  0  0  0  0  0  0  0  0  0
    2.0000   -1.4736    0.0000 H   0  0  0  0  0  0  0  0  0  0  0  0
    4.1455    0.4151    0.0000 H   0  0  0  0  0  0  0  0  0  0  0  0
    4.1455    1.2920    0.0000 H   0  0  0  0  0  0  0  0  0  0  0  0
    3.2687    1.2920    0.0000 H   0  0  0  0  0  0  0  0  0  0  0  0
  1  2  1  0  0  0  0
  1  3  1  0  0  0  0
  1  5  1  0  0  0  0
  1  6  1  0  0  0  0
  2  4  1  0  0  0  0
  2  7  1  0  0  0  0
  2  8  1  0  0  0  0
  3  4  1  0  0  0  0
  3  9  1  0  0  0  0
  3 10  1  0  0  0  0
  4 11  1  0  0  0  0
  4 12  1  0  0  0  0
  5 13  1  0  0  0  0
  5 14  1  0  0  0  0
  5 15  1  0  0  0  0
M  END
> <PUBCHEM_COMPOUND_CID>
11725

> <PUBCHEM_COMPOUND_CANONICALIZED>
1

> <PUBCHEM_CACTVS_COMPLEXITY>
27

> <PUBCHEM_CACTVS_HBOND_ACCEPTOR>
0

> <PUBCHEM_CACTVS_HBOND_DONOR>
0

> <PUBCHEM_CACTVS_ROTATABLE_BOND>
0

> <PUBCHEM_CACTVS_SUBSKEYS>
AAADccBgAAAAAAAAAAAAAAAAAABgAAAAAAAAAAAAAAAAAAAAAAAAGAAAAAAADQCAAAACAAAAAAAAAAAAAAAAAAAAAAAAAAAAAAAAAAIAAAAAAAAAAAAAAAAAAAAIAAAAAAAAAAAAAAAAAAAAAAAAAAAAAA==

> <PUBCHEM_IUPAC_OPENEYE_NAME>
methylcyclobutane

> <PUBCHEM_IUPAC_CAS_NAME>
methylcyclobutane

> <PUBCHEM_IUPAC_NAME>
methylcyclobutane

> <PUBCHEM_IUPAC_SYSTEMATIC_NAME>
methylcyclobutane

> <PUBCHEM_IUPAC_TRADITIONAL_NAME>
methylcyclobutane

> <PUBCHEM_IUPAC_INCHI>
InChI=1S/C5H10/c1-5-3-2-4-5/h5H,2-4H2,1H3

> <PUBCHEM_IUPAC_INCHIKEY>
BDJAEZRIGNCQBZ-UHFFFAOYSA-N

> <PUBCHEM_XLOGP3>
2.8

> <PUBCHEM_EXACT_MASS>
70.07825

> <PUBCHEM_MOLECULAR_FORMULA>
C5H10

> <PUBCHEM_MOLECULAR_WEIGHT>
70.1329

> <PUBCHEM_OPENEYE_CAN_SMILES>
CC1CCC1

> <PUBCHEM_OPENEYE_ISO_SMILES>
CC1CCC1

> <PUBCHEM_CACTVS_TPSA>
0

> <PUBCHEM_MONOISOTOPIC_WEIGHT>
70.07825

> <PUBCHEM_TOTAL_CHARGE>
0

> <PUBCHEM_HEAVY_ATOM_COUNT>
5

> <PUBCHEM_ATOM_DEF_STEREO_COUNT>
0

> <PUBCHEM_ATOM_UDEF_STEREO_COUNT>
0

> <PUBCHEM_BOND_DEF_STEREO_COUNT>
0

> <PUBCHEM_BOND_UDEF_STEREO_COUNT>
0

> <PUBCHEM_ISOTOPIC_ATOM_COUNT>
0

> <PUBCHEM_COMPONENT_COUNT>
1

> <PUBCHEM_CACTVS_TAUTO_COUNT>
1

> <PUBCHEM_COORDINATE_TYPE>
1
5
255

$$$$

