7538
  -OEChem-06261202082D

 40 39  0     1  0  0  0  0  0999 V2000
    6.0010    1.3100    0.0000 O   0  0  0  0  0  0  0  0  0  0  0  0
    4.2690    1.3100    0.0000 O   0  0  0  0  0  0  0  0  0  0  0  0
    5.1350   -0.1900    0.0000 O   0  0  0  0  0  0  0  0  0  0  0  0
    2.5369    2.3100    0.0000 N   0  0  0  0  0  0  0  0  0  0  0  0
    3.4030   -2.1900    0.0000 N   0  0  0  0  0  0  0  0  0  0  0  0
    8.5991    0.8100    0.0000 N   0  0  0  0  0  0  0  0  0  0  0  0
    4.2690    2.3100    0.0000 C   0  0  3  0  0  0  0  0  0  0  0  0
    4.2690   -0.6900    0.0000 C   0  0  3  0  0  0  0  0  0  0  0  0
    6.8671    0.8100    0.0000 C   0  0  3  0  0  0  0  0  0  0  0  0
    7.7331    1.3100    0.0000 C   0  0  0  0  0  0  0  0  0  0  0  0
    4.2690   -1.6900    0.0000 C   0  0  0  0  0  0  0  0  0  0  0  0
    3.4030    2.8100    0.0000 C   0  0  0  0  0  0  0  0  0  0  0  0
    5.1350    2.8100    0.0000 C   0  0  0  0  0  0  0  0  0  0  0  0
    3.4030   -0.1900    0.0000 C   0  0  0  0  0  0  0  0  0  0  0  0
    6.8671   -0.1900    0.0000 C   0  0  0  0  0  0  0  0  0  0  0  0
    5.1350    0.8100    0.0000 B   0  0  0  0  0  0  0  0  0  0  0  0
    4.8059    2.0000    0.0000 H   0  0  0  0  0  0  0  0  0  0  0  0
    4.2690   -0.0700    0.0000 H   0  0  0  0  0  0  0  0  0  0  0  0
    6.3301    0.5000    0.0000 H   0  0  0  0  0  0  0  0  0  0  0  0
    8.1316    1.7850    0.0000 H   0  0  0  0  0  0  0  0  0  0  0  0
    7.3346    1.7850    0.0000 H   0  0  0  0  0  0  0  0  0  0  0  0
    4.4810   -2.2726    0.0000 H   0  0  0  0  0  0  0  0  0  0  0  0
    4.8796   -1.5823    0.0000 H   0  0  0  0  0  0  0  0  0  0  0  0
    3.8015    3.2850    0.0000 H   0  0  0  0  0  0  0  0  0  0  0  0
    3.0044    3.2850    0.0000 H   0  0  0  0  0  0  0  0  0  0  0  0
    5.4450    2.2731    0.0000 H   0  0  0  0  0  0  0  0  0  0  0  0
    5.6720    3.1200    0.0000 H   0  0  0  0  0  0  0  0  0  0  0  0
    4.8250    3.3469    0.0000 H   0  0  0  0  0  0  0  0  0  0  0  0
    3.7130    0.3469    0.0000 H   0  0  0  0  0  0  0  0  0  0  0  0
    2.8660    0.1200    0.0000 H   0  0  0  0  0  0  0  0  0  0  0  0
    3.0930   -0.7269    0.0000 H   0  0  0  0  0  0  0  0  0  0  0  0
    6.2471   -0.1900    0.0000 H   0  0  0  0  0  0  0  0  0  0  0  0
    6.8671   -0.8100    0.0000 H   0  0  0  0  0  0  0  0  0  0  0  0
    7.4871   -0.1900    0.0000 H   0  0  0  0  0  0  0  0  0  0  0  0
    9.1360    1.1200    0.0000 H   0  0  0  0  0  0  0  0  0  0  0  0
    8.5991    0.1900    0.0000 H   0  0  0  0  0  0  0  0  0  0  0  0
    3.4030   -2.8100    0.0000 H   0  0  0  0  0  0  0  0  0  0  0  0
    2.8660   -1.8800    0.0000 H   0  0  0  0  0  0  0  0  0  0  0  0
    2.0000    2.6200    0.0000 H   0  0  0  0  0  0  0  0  0  0  0  0
    2.5369    1.6900    0.0000 H   0  0  0  0  0  0  0  0  0  0  0  0
  1  9  1  0  0  0  0
  1 16  1  0  0  0  0
  2  7  1  0  0  0  0
  2 16  1  0  0  0  0
  3  8  1  0  0  0  0
  3 16  1  0  0  0  0
  4 12  1  0  0  0  0
  4 39  1  0  0  0  0
  4 40  1  0  0  0  0
  5 11  1  0  0  0  0
  5 37  1  0  0  0  0
  5 38  1  0  0  0  0
  6 10  1  0  0  0  0
  6 35  1  0  0  0  0
  6 36  1  0  0  0  0
  7 12  1  0  0  0  0
  7 13  1  0  0  0  0
  7 17  1  0  0  0  0
  8 11  1  0  0  0  0
  8 14  1  0  0  0  0
  8 18  1  0  0  0  0
  9 10  1  0  0  0  0
  9 15  1  0  0  0  0
  9 19  1  0  0  0  0
 10 20  1  0  0  0  0
 10 21  1  0  0  0  0
 11 22  1  0  0  0  0
 11 23  1  0  0  0  0
 12 24  1  0  0  0  0
 12 25  1  0  0  0  0
 13 26  1  0  0  0  0
 13 27  1  0  0  0  0
 13 28  1  0  0  0  0
 14 29  1  0  0  0  0
 14 30  1  0  0  0  0
 14 31  1  0  0  0  0
 15 32  1  0  0  0  0
 15 33  1  0  0  0  0
 15 34  1  0  0  0  0
M  END
> <PUBCHEM_COMPOUND_CID>
7538

> <PUBCHEM_COMPOUND_CANONICALIZED>
1

> <PUBCHEM_CACTVS_COMPLEXITY>
148

> <PUBCHEM_CACTVS_HBOND_ACCEPTOR>
6

> <PUBCHEM_CACTVS_HBOND_DONOR>
3

> <PUBCHEM_CACTVS_ROTATABLE_BOND>
9

> <PUBCHEM_CACTVS_SUBSKEYS>
AAADceJzMAAAAAAAAAAAAAAAAAAAAAAAAAAAAAAAAAAAAAAAAAAIHgAQAAAACBThgAYCAABAAAAAAAAAAAAAAAAAAAAAAIAAAAACAAAAAAAAAAAAEAAAAAAAAAAAAAAAAAAAAAAAAAAAAAAAAAAAAAAAAA==

> <PUBCHEM_IUPAC_OPENEYE_NAME>
tris(2-amino-1-methyl-ethyl) borate

> <PUBCHEM_IUPAC_CAS_NAME>
tris(1-aminopropan-2-yl) borate

> <PUBCHEM_IUPAC_NAME>
tris(1-aminopropan-2-yl) borate

> <PUBCHEM_IUPAC_SYSTEMATIC_NAME>
tris(1-azanylpropan-2-yl) borate

> <PUBCHEM_IUPAC_TRADITIONAL_NAME>
tris(2-amino-1-methyl-ethyl) borate

> <PUBCHEM_IUPAC_INCHI>
InChI=1S/C9H24BN3O3/c1-7(4-11)14-10(15-8(2)5-12)16-9(3)6-13/h7-9H,4-6,11-13H2,1-3H3

> <PUBCHEM_IUPAC_INCHIKEY>
SMIBBGLDGBPYJI-UHFFFAOYSA-N

> <PUBCHEM_EXACT_MASS>
233.191072

> <PUBCHEM_MOLECULAR_FORMULA>
C9H24BN3O3

> <PUBCHEM_MOLECULAR_WEIGHT>
233.11616

> <PUBCHEM_OPENEYE_CAN_SMILES>
B(OC(C)CN)(OC(C)CN)OC(C)CN

> <PUBCHEM_OPENEYE_ISO_SMILES>
B(OC(C)CN)(OC(C)CN)OC(C)CN

> <PUBCHEM_CACTVS_TPSA>
106

> <PUBCHEM_MONOISOTOPIC_WEIGHT>
233.191072

> <PUBCHEM_TOTAL_CHARGE>
0

> <PUBCHEM_HEAVY_ATOM_COUNT>
16

> <PUBCHEM_ATOM_DEF_STEREO_COUNT>
0

> <PUBCHEM_ATOM_UDEF_STEREO_COUNT>
3

> <PUBCHEM_BOND_DEF_STEREO_COUNT>
0

> <PUBCHEM_BOND_UDEF_STEREO_COUNT>
0

> <PUBCHEM_ISOTOPIC_ATOM_COUNT>
0

> <PUBCHEM_COMPONENT_COUNT>
1

> <PUBCHEM_CACTVS_TAUTO_COUNT>
1

> <PUBCHEM_COORDINATE_TYPE>
1
5
255

> <PUBCHEM_BONDANNOTATIONS>
7  13  3
8  14  3
9  15  3

$$$$

