14142
  -OEChem-06241222422D

 31 30  0     0  0  0  0  0  0999 V2000
    4.6533    4.9351    0.0000 Cl  0  5  0  0  0  0  0  0  0  0  0  0
    2.5032    0.8946    0.0000 O   0  0  0  0  0  0  0  0  0  0  0  0
    7.1165    0.2463    0.0000 O   0  0  0  0  0  0  0  0  0  0  0  0
    0.0000    1.8425    0.0000 O   0  5  0  0  0  0  0  0  0  0  0  0
    0.5352    0.1952    0.0000 O   0  0  0  0  0  0  0  0  0  0  0  0
    8.6028    1.5846    0.0000 N   0  0  0  0  0  0  0  0  0  0  0  0
    5.9575    1.5335    0.0000 N   0  3  0  0  0  0  0  0  0  0  0  0
    5.0064    1.8425    0.0000 N   0  0  0  0  0  0  0  0  0  0  0  0
    0.7431    1.1734    0.0000 N   0  3  0  0  0  0  0  0  0  0  0  0
    7.6517    1.8936    0.0000 C   0  0  0  0  0  0  0  0  0  0  0  0
    6.9085    1.2245    0.0000 C   0  0  0  0  0  0  0  0  0  0  0  0
    8.8107    0.6065    0.0000 C   0  0  0  0  0  0  0  0  0  0  0  0
    9.3459    2.2537    0.0000 C   0  0  0  0  0  0  0  0  0  0  0  0
    3.3122    1.4824    0.0000 C   0  0  0  0  0  0  0  0  0  0  0  0
    4.2633    1.1734    0.0000 C   0  0  0  0  0  0  0  0  0  0  0  0
    3.0032    2.4335    0.0000 C   0  0  0  0  0  0  0  0  0  0  0  0
    1.6942    1.4824    0.0000 C   0  0  0  0  0  0  0  0  0  0  0  0
    2.0032    2.4335    0.0000 C   0  0  0  0  0  0  0  0  0  0  0  0
    7.9428    2.4410    0.0000 H   0  0  0  0  0  0  0  0  0  0  0  0
    7.1631    2.2753    0.0000 H   0  0  0  0  0  0  0  0  0  0  0  0
    5.7659    0.9438    0.0000 H   0  0  0  0  0  0  0  0  0  0  0  0
    6.1491    2.1232    0.0000 H   0  0  0  0  0  0  0  0  0  0  0  0
    8.2042    0.4775    0.0000 H   0  0  0  0  0  0  0  0  0  0  0  0
    8.9396    0.0000    0.0000 H   0  0  0  0  0  0  0  0  0  0  0  0
    9.4171    0.7354    0.0000 H   0  0  0  0  0  0  0  0  0  0  0  0
    8.9310    2.7145    0.0000 H   0  0  0  0  0  0  0  0  0  0  0  0
    9.8066    2.6686    0.0000 H   0  0  0  0  0  0  0  0  0  0  0  0
    9.7608    1.7930    0.0000 H   0  0  0  0  0  0  0  0  0  0  0  0
    4.3922    0.5669    0.0000 H   0  0  0  0  0  0  0  0  0  0  0  0
    3.3676    2.9351    0.0000 H   0  0  0  0  0  0  0  0  0  0  0  0
    1.6388    2.9351    0.0000 H   0  0  0  0  0  0  0  0  0  0  0  0
  2 14  1  0  0  0  0
  2 17  1  0  0  0  0
  3 11  2  0  0  0  0
  4  9  1  0  0  0  0
  5  9  2  0  0  0  0
  6 10  1  0  0  0  0
  6 12  1  0  0  0  0
  6 13  1  0  0  0  0
  7  8  1  0  0  0  0
  7 11  1  0  0  0  0
  7 21  1  0  0  0  0
  7 22  1  0  0  0  0
  8 15  2  3  0  0  0
  9 17  1  0  0  0  0
 10 11  1  0  0  0  0
 10 19  1  0  0  0  0
 10 20  1  0  0  0  0
 12 23  1  0  0  0  0
 12 24  1  0  0  0  0
 12 25  1  0  0  0  0
 13 26  1  0  0  0  0
 13 27  1  0  0  0  0
 13 28  1  0  0  0  0
 14 15  1  0  0  0  0
 14 16  2  0  0  0  0
 15 29  1  0  0  0  0
 16 18  1  0  0  0  0
 16 30  1  0  0  0  0
 17 18  2  0  0  0  0
 18 31  1  0  0  0  0
M  CHG  4   1  -1   4  -1   7   1   9   1
M  END
> <PUBCHEM_COMPOUND_CID>
14142

> <PUBCHEM_COMPOUND_CANONICALIZED>
1

> <PUBCHEM_CACTVS_COMPLEXITY>
313

> <PUBCHEM_CACTVS_HBOND_ACCEPTOR>
7

> <PUBCHEM_CACTVS_HBOND_DONOR>
1

> <PUBCHEM_CACTVS_ROTATABLE_BOND>
4

> <PUBCHEM_CACTVS_SUBSKEYS>
AAADccBzuAAEAAAAAAAAAAAAAAAAASAAAAAAAAAAAAAAAAABgAAAHgAcAAAACATBkAQyhINyRECpALFzUwSSCAAsIgA6iAGubNoMZrKEtbuaGSDk2BEI6Ya8AAAAAAAAAAAAAAAAAAAAAAAAAAAAAAAAAA==

> <PUBCHEM_IUPAC_OPENEYE_NAME>
[2-(dimethylamino)acetyl]-[(5-nitro-2-furyl)methyleneamino]ammonium chloride

> <PUBCHEM_IUPAC_CAS_NAME>
[2-(dimethylamino)-1-oxoethyl]-[(5-nitro-2-furanyl)methylideneamino]ammonium chloride

> <PUBCHEM_IUPAC_NAME>
[2-(dimethylamino)acetyl]-[(5-nitrofuran-2-yl)methylideneamino]azanium chloride

> <PUBCHEM_IUPAC_SYSTEMATIC_NAME>
2-(dimethylamino)ethanoyl-[(5-nitrofuran-2-yl)methylideneamino]azanium chloride

> <PUBCHEM_IUPAC_TRADITIONAL_NAME>
[2-(dimethylamino)acetyl]-[(5-nitro-2-furyl)methyleneamino]ammonium chloride

> <PUBCHEM_IUPAC_INCHI>
InChI=1S/C9H12N4O4.ClH/c1-12(2)6-8(14)11-10-5-7-3-4-9(17-7)13(15)16;/h3-5H,6H2,1-2H3,(H,11,14);1H

> <PUBCHEM_IUPAC_INCHIKEY>
MYOOIYINODJOSW-UHFFFAOYSA-N

> <PUBCHEM_EXACT_MASS>
276.062533

> <PUBCHEM_MOLECULAR_FORMULA>
C9H13ClN4O4

> <PUBCHEM_MOLECULAR_WEIGHT>
276.67692

> <PUBCHEM_OPENEYE_CAN_SMILES>
CN(C)CC(=O)[NH2+]N=CC1=CC=C(O1)[N+](=O)[O-].[Cl-]

> <PUBCHEM_OPENEYE_ISO_SMILES>
CN(C)CC(=O)[NH2+]N=CC1=CC=C(O1)[N+](=O)[O-].[Cl-]

> <PUBCHEM_CACTVS_TPSA>
108

> <PUBCHEM_MONOISOTOPIC_WEIGHT>
276.062533

> <PUBCHEM_TOTAL_CHARGE>
0

> <PUBCHEM_HEAVY_ATOM_COUNT>
18

> <PUBCHEM_ATOM_DEF_STEREO_COUNT>
0

> <PUBCHEM_ATOM_UDEF_STEREO_COUNT>
0

> <PUBCHEM_BOND_DEF_STEREO_COUNT>
0

> <PUBCHEM_BOND_UDEF_STEREO_COUNT>
1

> <PUBCHEM_ISOTOPIC_ATOM_COUNT>
0

> <PUBCHEM_COMPONENT_COUNT>
2

> <PUBCHEM_CACTVS_TAUTO_COUNT>
2

> <PUBCHEM_COORDINATE_TYPE>
1
5
255

> <PUBCHEM_BONDANNOTATIONS>
14  16  8
16  18  8
17  18  8
2  14  8
2  17  8
8  15  1

$$$$

