17396641
  -OEChem-06241222572D

 48 49  0     1  0  0  0  0  0999 V2000
    3.7320    2.2500    0.0000 O   0  0  0  0  0  0  0  0  0  0  0  0
    4.5981   -1.2500    0.0000 O   0  0  0  0  0  0  0  0  0  0  0  0
    4.5981    0.7500    0.0000 N   0  0  0  0  0  0  0  0  0  0  0  0
    2.8660   -1.2500    0.0000 N   0  0  0  0  0  0  0  0  0  0  0  0
    5.4641    3.2500    0.0000 C   0  0  3  0  0  0  0  0  0  0  0  0
    5.4641    2.2500    0.0000 C   0  0  0  0  0  0  0  0  0  0  0  0
    6.3301    3.7500    0.0000 C   0  0  0  0  0  0  0  0  0  0  0  0
    4.5981    3.7500    0.0000 C   0  0  0  0  0  0  0  0  0  0  0  0
    4.5981    1.7500    0.0000 C   0  0  0  0  0  0  0  0  0  0  0  0
    3.7320    0.2500    0.0000 C   0  0  0  0  0  0  0  0  0  0  0  0
    7.1962    3.2500    0.0000 C   0  0  0  0  0  0  0  0  0  0  0  0
    6.3301    4.7500    0.0000 C   0  0  0  0  0  0  0  0  0  0  0  0
    5.4641    0.2500    0.0000 C   0  0  0  0  0  0  0  0  0  0  0  0
    8.0622    3.7500    0.0000 C   0  0  0  0  0  0  0  0  0  0  0  0
    7.1962    5.2500    0.0000 C   0  0  0  0  0  0  0  0  0  0  0  0
    3.7320   -0.7500    0.0000 C   0  0  0  0  0  0  0  0  0  0  0  0
    8.0622    4.7500    0.0000 C   0  0  0  0  0  0  0  0  0  0  0  0
    2.8660   -2.2500    0.0000 C   0  0  0  0  0  0  0  0  0  0  0  0
    2.0000   -2.7500    0.0000 C   0  0  0  0  0  0  0  0  0  0  0  0
    3.7320   -2.7500    0.0000 C   0  0  0  0  0  0  0  0  0  0  0  0
    2.8660   -4.2500    0.0000 C   0  0  0  0  0  0  0  0  0  0  0  0
    2.0000   -3.7500    0.0000 C   0  0  0  0  0  0  0  0  0  0  0  0
    3.7320   -3.7500    0.0000 C   0  0  0  0  0  0  0  0  0  0  0  0
    2.8660   -5.2500    0.0000 C   0  0  0  0  0  0  0  0  0  0  0  0
    5.4641    3.8700    0.0000 H   0  0  0  0  0  0  0  0  0  0  0  0
    5.6762    1.6674    0.0000 H   0  0  0  0  0  0  0  0  0  0  0  0
    6.0747    2.3577    0.0000 H   0  0  0  0  0  0  0  0  0  0  0  0
    4.9081    4.2869    0.0000 H   0  0  0  0  0  0  0  0  0  0  0  0
    4.0611    4.0600    0.0000 H   0  0  0  0  0  0  0  0  0  0  0  0
    4.2881    3.2131    0.0000 H   0  0  0  0  0  0  0  0  0  0  0  0
    3.5200    0.8326    0.0000 H   0  0  0  0  0  0  0  0  0  0  0  0
    3.1215    0.1423    0.0000 H   0  0  0  0  0  0  0  0  0  0  0  0
    7.1962    2.6300    0.0000 H   0  0  0  0  0  0  0  0  0  0  0  0
    5.7932    5.0600    0.0000 H   0  0  0  0  0  0  0  0  0  0  0  0
    5.1541   -0.2869    0.0000 H   0  0  0  0  0  0  0  0  0  0  0  0
    6.0010   -0.0600    0.0000 H   0  0  0  0  0  0  0  0  0  0  0  0
    5.7741    0.7869    0.0000 H   0  0  0  0  0  0  0  0  0  0  0  0
    8.5991    3.4400    0.0000 H   0  0  0  0  0  0  0  0  0  0  0  0
    7.1962    5.8700    0.0000 H   0  0  0  0  0  0  0  0  0  0  0  0
    8.5991    5.0600    0.0000 H   0  0  0  0  0  0  0  0  0  0  0  0
    2.3291   -0.9400    0.0000 H   0  0  0  0  0  0  0  0  0  0  0  0
    1.4631   -2.4400    0.0000 H   0  0  0  0  0  0  0  0  0  0  0  0
    4.2690   -2.4400    0.0000 H   0  0  0  0  0  0  0  0  0  0  0  0
    1.4631   -4.0600    0.0000 H   0  0  0  0  0  0  0  0  0  0  0  0
    4.2690   -4.0600    0.0000 H   0  0  0  0  0  0  0  0  0  0  0  0
    2.2460   -5.2500    0.0000 H   0  0  0  0  0  0  0  0  0  0  0  0
    2.8660   -5.8700    0.0000 H   0  0  0  0  0  0  0  0  0  0  0  0
    3.4860   -5.2500    0.0000 H   0  0  0  0  0  0  0  0  0  0  0  0
  1  9  2  0  0  0  0
  2 16  2  0  0  0  0
  3  9  1  0  0  0  0
  3 10  1  0  0  0  0
  3 13  1  0  0  0  0
  4 16  1  0  0  0  0
  4 18  1  0  0  0  0
  4 41  1  0  0  0  0
  5  6  1  0  0  0  0
  5  7  1  0  0  0  0
  5  8  1  0  0  0  0
  5 25  1  0  0  0  0
  6  9  1  0  0  0  0
  6 26  1  0  0  0  0
  6 27  1  0  0  0  0
  7 11  2  0  0  0  0
  7 12  1  0  0  0  0
  8 28  1  0  0  0  0
  8 29  1  0  0  0  0
  8 30  1  0  0  0  0
 10 16  1  0  0  0  0
 10 31  1  0  0  0  0
 10 32  1  0  0  0  0
 11 14  1  0  0  0  0
 11 33  1  0  0  0  0
 12 15  2  0  0  0  0
 12 34  1  0  0  0  0
 13 35  1  0  0  0  0
 13 36  1  0  0  0  0
 13 37  1  0  0  0  0
 14 17  2  0  0  0  0
 14 38  1  0  0  0  0
 15 17  1  0  0  0  0
 15 39  1  0  0  0  0
 17 40  1  0  0  0  0
 18 19  2  0  0  0  0
 18 20  1  0  0  0  0
 19 22  1  0  0  0  0
 19 42  1  0  0  0  0
 20 23  2  0  0  0  0
 20 43  1  0  0  0  0
 21 22  2  0  0  0  0
 21 23  1  0  0  0  0
 21 24  1  0  0  0  0
 22 44  1  0  0  0  0
 23 45  1  0  0  0  0
 24 46  1  0  0  0  0
 24 47  1  0  0  0  0
 24 48  1  0  0  0  0
M  END
> <PUBCHEM_COMPOUND_CID>
17396641

> <PUBCHEM_COMPOUND_CANONICALIZED>
1

> <PUBCHEM_CACTVS_COMPLEXITY>
410

> <PUBCHEM_CACTVS_HBOND_ACCEPTOR>
2

> <PUBCHEM_CACTVS_HBOND_DONOR>
1

> <PUBCHEM_CACTVS_ROTATABLE_BOND>
6

> <PUBCHEM_CACTVS_SUBSKEYS>
AAADceB7MAAAAAAAAAAAAAAAAAAAAAAAAAAwYAAAAAAAAAABQAAAHgAQAAAADQjBmAQywIPAAACIAiVSUACCAAAhAgAIiAGIZIgIYDLAkbGUIAhglgDIyAcYiMCOiAAAAAAAAAAQAAAAAAAAAAAAAAAAAA==

> <PUBCHEM_IUPAC_OPENEYE_NAME>
N-methyl-N-[2-(4-methylanilino)-2-oxo-ethyl]-3-phenyl-butanamide

> <PUBCHEM_IUPAC_CAS_NAME>
N-methyl-N-[2-(4-methylanilino)-2-oxoethyl]-3-phenylbutanamide

> <PUBCHEM_IUPAC_NAME>
N-methyl-N-[2-(4-methylanilino)-2-oxoethyl]-3-phenylbutanamide

> <PUBCHEM_IUPAC_SYSTEMATIC_NAME>
N-methyl-N-[2-[(4-methylphenyl)amino]-2-oxidanylidene-ethyl]-3-phenyl-butanamide

> <PUBCHEM_IUPAC_TRADITIONAL_NAME>
N-[2-keto-2-(p-toluidino)ethyl]-N-methyl-3-phenyl-butyramide

> <PUBCHEM_IUPAC_INCHI>
InChI=1S/C20H24N2O2/c1-15-9-11-18(12-10-15)21-19(23)14-22(3)20(24)13-16(2)17-7-5-4-6-8-17/h4-12,16H,13-14H2,1-3H3,(H,21,23)

> <PUBCHEM_IUPAC_INCHIKEY>
AXUULMZAYHDURQ-UHFFFAOYSA-N

> <PUBCHEM_XLOGP3_AA>
3.2

> <PUBCHEM_EXACT_MASS>
324.183778

> <PUBCHEM_MOLECULAR_FORMULA>
C20H24N2O2

> <PUBCHEM_MOLECULAR_WEIGHT>
324.41676

> <PUBCHEM_OPENEYE_CAN_SMILES>
CC1=CC=C(C=C1)NC(=O)CN(C)C(=O)CC(C)C2=CC=CC=C2

> <PUBCHEM_OPENEYE_ISO_SMILES>
CC1=CC=C(C=C1)NC(=O)CN(C)C(=O)CC(C)C2=CC=CC=C2

> <PUBCHEM_CACTVS_TPSA>
49.4

> <PUBCHEM_MONOISOTOPIC_WEIGHT>
324.183778

> <PUBCHEM_TOTAL_CHARGE>
0

> <PUBCHEM_HEAVY_ATOM_COUNT>
24

> <PUBCHEM_ATOM_DEF_STEREO_COUNT>
0

> <PUBCHEM_ATOM_UDEF_STEREO_COUNT>
1

> <PUBCHEM_BOND_DEF_STEREO_COUNT>
0

> <PUBCHEM_BOND_UDEF_STEREO_COUNT>
0

> <PUBCHEM_ISOTOPIC_ATOM_COUNT>
0

> <PUBCHEM_COMPONENT_COUNT>
1

> <PUBCHEM_CACTVS_TAUTO_COUNT>
3

> <PUBCHEM_COORDINATE_TYPE>
1
5
255

> <PUBCHEM_BONDANNOTATIONS>
11  14  8
12  15  8
14  17  8
15  17  8
18  19  8
18  20  8
19  22  8
20  23  8
21  22  8
21  23  8
5  8  3
7  11  8
7  12  8

$$$$

