9198
  -OEChem-06261203302D

 27 30  0     0  0  0  0  0  0999 V2000
    4.5124   -0.7323    0.0000 S   0  0  0  0  0  0  0  0  0  0  0  0
    5.0091    0.8010    0.0000 C   0  0  0  0  0  0  0  0  0  0  0  0
    5.3181   -0.1501    0.0000 C   0  0  0  0  0  0  0  0  0  0  0  0
    4.0150    0.7984    0.0000 C   0  0  0  0  0  0  0  0  0  0  0  0
    6.2962   -0.3580    0.0000 C   0  0  0  0  0  0  0  0  0  0  0  0
    3.7086   -0.1473    0.0000 C   0  0  0  0  0  0  0  0  0  0  0  0
    6.9654    0.3852    0.0000 C   0  0  0  0  0  0  0  0  0  0  0  0
    5.6782    1.5441    0.0000 C   0  0  0  0  0  0  0  0  0  0  0  0
    6.6564    1.3362    0.0000 C   0  0  0  0  0  0  0  0  0  0  0  0
    3.3334    1.5779    0.0000 C   0  0  0  0  0  0  0  0  0  0  0  0
    6.6028   -1.3535    0.0000 C   0  0  0  0  0  0  0  0  0  0  0  0
    2.6994   -0.3790    0.0000 C   0  0  0  0  0  0  0  0  0  0  0  0
    7.9875    0.1843    0.0000 C   0  0  0  0  0  0  0  0  0  0  0  0
    2.3191    1.3696    0.0000 C   0  0  0  0  0  0  0  0  0  0  0  0
    7.6200   -1.5779    0.0000 C   0  0  0  0  0  0  0  0  0  0  0  0
    2.0000    0.3845    0.0000 C   0  0  0  0  0  0  0  0  0  0  0  0
    8.3170   -0.8038    0.0000 C   0  0  0  0  0  0  0  0  0  0  0  0
    5.4866    2.1338    0.0000 H   0  0  0  0  0  0  0  0  0  0  0  0
    7.0712    1.7970    0.0000 H   0  0  0  0  0  0  0  0  0  0  0  0
    3.5313    2.1655    0.0000 H   0  0  0  0  0  0  0  0  0  0  0  0
    6.1826   -1.8094    0.0000 H   0  0  0  0  0  0  0  0  0  0  0  0
    2.5152   -0.9710    0.0000 H   0  0  0  0  0  0  0  0  0  0  0  0
    8.3970    0.6498    0.0000 H   0  0  0  0  0  0  0  0  0  0  0  0
    1.9056    1.8315    0.0000 H   0  0  0  0  0  0  0  0  0  0  0  0
    7.8093   -2.1683    0.0000 H   0  0  0  0  0  0  0  0  0  0  0  0
    1.3942    0.2527    0.0000 H   0  0  0  0  0  0  0  0  0  0  0  0
    8.9239   -0.9304    0.0000 H   0  0  0  0  0  0  0  0  0  0  0  0
  1  3  1  0  0  0  0
  1  6  1  0  0  0  0
  2  3  2  0  0  0  0
  2  4  1  0  0  0  0
  2  8  1  0  0  0  0
  3  5  1  0  0  0  0
  4  6  1  0  0  0  0
  4 10  2  0  0  0  0
  5  7  1  0  0  0  0
  5 11  2  0  0  0  0
  6 12  2  0  0  0  0
  7  9  1  0  0  0  0
  7 13  2  0  0  0  0
  8  9  2  0  0  0  0
  8 18  1  0  0  0  0
  9 19  1  0  0  0  0
 10 14  1  0  0  0  0
 10 20  1  0  0  0  0
 11 15  1  0  0  0  0
 11 21  1  0  0  0  0
 12 16  1  0  0  0  0
 12 22  1  0  0  0  0
 13 17  1  0  0  0  0
 13 23  1  0  0  0  0
 14 16  2  0  0  0  0
 14 24  1  0  0  0  0
 15 17  2  0  0  0  0
 15 25  1  0  0  0  0
 16 26  1  0  0  0  0
 17 27  1  0  0  0  0
M  END
> <PUBCHEM_COMPOUND_CID>
9198

> <PUBCHEM_COMPOUND_CANONICALIZED>
1

> <PUBCHEM_CACTVS_COMPLEXITY>
287

> <PUBCHEM_CACTVS_HBOND_ACCEPTOR>
1

> <PUBCHEM_CACTVS_HBOND_DONOR>
0

> <PUBCHEM_CACTVS_ROTATABLE_BOND>
0

> <PUBCHEM_CACTVS_SUBSKEYS>
AAADccB4AABAAAAAAAAAAAAAAAAAASAAAAAwYMAAAAAAAEjB/AAAGAQAAAAADACAWAAwAcAAAAiEAiBCAAADAIAgCBBIiBgAAIgIICKgERCAIAAggAAoiAcAgMAOwAACgAAUAACAAAUAACgAAAAAAAAAAA==

> <PUBCHEM_IUPAC_OPENEYE_NAME>
naphtho[1,2-b]benzothiophene

> <PUBCHEM_IUPAC_CAS_NAME>
naphtho[1,2-b][1]benzothiole

> <PUBCHEM_IUPAC_NAME>
naphtho[1,2-b][1]benzothiole

> <PUBCHEM_IUPAC_SYSTEMATIC_NAME>
naphtho[1,2-b][1]benzothiole

> <PUBCHEM_IUPAC_TRADITIONAL_NAME>
naphtho[1,2-b]benzothiophene

> <PUBCHEM_IUPAC_INCHI>
InChI=1S/C16H10S/c1-2-6-12-11(5-1)9-10-14-13-7-3-4-8-15(13)17-16(12)14/h1-10H

> <PUBCHEM_IUPAC_INCHIKEY>
YEUHHUCOSQOCIX-UHFFFAOYSA-N

> <PUBCHEM_XLOGP3>
5.6

> <PUBCHEM_EXACT_MASS>
234.050321

> <PUBCHEM_MOLECULAR_FORMULA>
C16H10S

> <PUBCHEM_MOLECULAR_WEIGHT>
234.3156

> <PUBCHEM_OPENEYE_CAN_SMILES>
C1=CC=C2C(=C1)C=CC3=C2SC4=CC=CC=C34

> <PUBCHEM_OPENEYE_ISO_SMILES>
C1=CC=C2C(=C1)C=CC3=C2SC4=CC=CC=C34

> <PUBCHEM_CACTVS_TPSA>
28.2

> <PUBCHEM_MONOISOTOPIC_WEIGHT>
234.050321

> <PUBCHEM_TOTAL_CHARGE>
0

> <PUBCHEM_HEAVY_ATOM_COUNT>
17

> <PUBCHEM_ATOM_DEF_STEREO_COUNT>
0

> <PUBCHEM_ATOM_UDEF_STEREO_COUNT>
0

> <PUBCHEM_BOND_DEF_STEREO_COUNT>
0

> <PUBCHEM_BOND_UDEF_STEREO_COUNT>
0

> <PUBCHEM_ISOTOPIC_ATOM_COUNT>
0

> <PUBCHEM_COMPONENT_COUNT>
1

> <PUBCHEM_CACTVS_TAUTO_COUNT>
1

> <PUBCHEM_COORDINATE_TYPE>
1
5
255

> <PUBCHEM_BONDANNOTATIONS>
1  3  8
1  6  8
10  14  8
11  15  8
12  16  8
13  17  8
14  16  8
15  17  8
2  3  8
2  4  8
2  8  8
3  5  8
4  10  8
4  6  8
5  11  8
5  7  8
6  12  8
7  13  8
7  9  8
8  9  8

$$$$

