10585
  -OEChem-06261204432D

 22 22  0     0  0  0  0  0  0999 V2000
    3.0000    0.2500    0.0000 S   0  0  0  0  0  0  0  0  0  0  0  0
    3.0000    1.2500    0.0000 O   0  0  0  0  0  0  0  0  0  0  0  0
    4.0000    0.2500    0.0000 O   0  0  0  0  0  0  0  0  0  0  0  0
    2.0000    0.2500    0.0000 O   0  0  0  0  0  0  0  0  0  0  0  0
    3.0000   -0.7500    0.0000 C   0  0  0  0  0  0  0  0  0  0  0  0
    2.1340   -1.2500    0.0000 C   0  0  0  0  0  0  0  0  0  0  0  0
    3.8660   -1.2500    0.0000 C   0  0  0  0  0  0  0  0  0  0  0  0
    3.8660    1.7500    0.0000 C   0  0  0  0  0  0  0  0  0  0  0  0
    2.1340   -2.2500    0.0000 C   0  0  0  0  0  0  0  0  0  0  0  0
    3.8660   -2.2500    0.0000 C   0  0  0  0  0  0  0  0  0  0  0  0
    3.0000   -2.7500    0.0000 C   0  0  0  0  0  0  0  0  0  0  0  0
    3.8660    2.7500    0.0000 C   0  0  0  0  0  0  0  0  0  0  0  0
    1.5970   -0.9400    0.0000 H   0  0  0  0  0  0  0  0  0  0  0  0
    4.4030   -0.9400    0.0000 H   0  0  0  0  0  0  0  0  0  0  0  0
    4.0781    1.1674    0.0000 H   0  0  0  0  0  0  0  0  0  0  0  0
    4.4766    1.8577    0.0000 H   0  0  0  0  0  0  0  0  0  0  0  0
    1.5970   -2.5600    0.0000 H   0  0  0  0  0  0  0  0  0  0  0  0
    4.4030   -2.5600    0.0000 H   0  0  0  0  0  0  0  0  0  0  0  0
    3.0000   -3.3700    0.0000 H   0  0  0  0  0  0  0  0  0  0  0  0
    4.4860    2.7500    0.0000 H   0  0  0  0  0  0  0  0  0  0  0  0
    3.8660    3.3700    0.0000 H   0  0  0  0  0  0  0  0  0  0  0  0
    3.2460    2.7500    0.0000 H   0  0  0  0  0  0  0  0  0  0  0  0
  1  2  1  0  0  0  0
  1  3  2  0  0  0  0
  1  4  2  0  0  0  0
  1  5  1  0  0  0  0
  2  8  1  0  0  0  0
  5  6  2  0  0  0  0
  5  7  1  0  0  0  0
  6  9  1  0  0  0  0
  6 13  1  0  0  0  0
  7 10  2  0  0  0  0
  7 14  1  0  0  0  0
  8 12  1  0  0  0  0
  8 15  1  0  0  0  0
  8 16  1  0  0  0  0
  9 11  2  0  0  0  0
  9 17  1  0  0  0  0
 10 11  1  0  0  0  0
 10 18  1  0  0  0  0
 11 19  1  0  0  0  0
 12 20  1  0  0  0  0
 12 21  1  0  0  0  0
 12 22  1  0  0  0  0
M  END
> <PUBCHEM_COMPOUND_CID>
10585

> <PUBCHEM_COMPOUND_CANONICALIZED>
1

> <PUBCHEM_CACTVS_COMPLEXITY>
209

> <PUBCHEM_CACTVS_HBOND_ACCEPTOR>
3

> <PUBCHEM_CACTVS_HBOND_DONOR>
0

> <PUBCHEM_CACTVS_ROTATABLE_BOND>
3

> <PUBCHEM_CACTVS_SUBSKEYS>
AAADccBwMABAAAAAAAAAAAAAAAAAAAAAAAAwAAAAAAAAAAABAAAAGgQAAAAACACg0AIyAYAAAAKAACBCAHBCAEAgAAAIiBgAAIgIICKAERCAIAAggAAIiAcAAAAAAAAAAAAAAAAAAAAAAAAAAAAAAAAAAA==

> <PUBCHEM_IUPAC_OPENEYE_NAME>
ethyl benzenesulfonate

> <PUBCHEM_IUPAC_CAS_NAME>
benzenesulfonic acid ethyl ester

> <PUBCHEM_IUPAC_NAME>
ethyl benzenesulfonate

> <PUBCHEM_IUPAC_SYSTEMATIC_NAME>
ethyl benzenesulfonate

> <PUBCHEM_IUPAC_TRADITIONAL_NAME>
benzenesulfonic acid ethyl ester

> <PUBCHEM_IUPAC_INCHI>
InChI=1S/C8H10O3S/c1-2-11-12(9,10)8-6-4-3-5-7-8/h3-7H,2H2,1H3

> <PUBCHEM_IUPAC_INCHIKEY>
XDRMBCMMABGNMM-UHFFFAOYSA-N

> <PUBCHEM_XLOGP3>
1.4

> <PUBCHEM_EXACT_MASS>
186.035065

> <PUBCHEM_MOLECULAR_FORMULA>
C8H10O3S

> <PUBCHEM_MOLECULAR_WEIGHT>
186.2282

> <PUBCHEM_OPENEYE_CAN_SMILES>
CCOS(=O)(=O)C1=CC=CC=C1

> <PUBCHEM_OPENEYE_ISO_SMILES>
CCOS(=O)(=O)C1=CC=CC=C1

> <PUBCHEM_CACTVS_TPSA>
51.8

> <PUBCHEM_MONOISOTOPIC_WEIGHT>
186.035065

> <PUBCHEM_TOTAL_CHARGE>
0

> <PUBCHEM_HEAVY_ATOM_COUNT>
12

> <PUBCHEM_ATOM_DEF_STEREO_COUNT>
0

> <PUBCHEM_ATOM_UDEF_STEREO_COUNT>
0

> <PUBCHEM_BOND_DEF_STEREO_COUNT>
0

> <PUBCHEM_BOND_UDEF_STEREO_COUNT>
0

> <PUBCHEM_ISOTOPIC_ATOM_COUNT>
0

> <PUBCHEM_COMPONENT_COUNT>
1

> <PUBCHEM_CACTVS_TAUTO_COUNT>
1

> <PUBCHEM_COORDINATE_TYPE>
1
5
255

> <PUBCHEM_BONDANNOTATIONS>
10  11  8
5  6  8
5  7  8
6  9  8
7  10  8
9  11  8

$$$$

