586261
  -OEChem-06241222462D

 38 37  0     1  0  0  0  0  0999 V2000
    6.3301   -0.1830    0.0000 P   0  0  3  0  0  0  0  0  0  0  0  0
    7.1962    0.3170    0.0000 O   0  0  0  0  0  0  0  0  0  0  0  0
    5.4641   -0.6830    0.0000 O   0  0  0  0  0  0  0  0  0  0  0  0
    6.8301   -1.0490    0.0000 O   0  0  0  0  0  0  0  0  0  0  0  0
    2.8660   -0.1830    0.0000 O   0  0  0  0  0  0  0  0  0  0  0  0
    8.9282    0.3170    0.0000 C   0  0  0  0  0  0  0  0  0  0  0  0
    8.0622   -0.1830    0.0000 C   0  0  3  0  0  0  0  0  0  0  0  0
    9.7942    0.8170    0.0000 C   0  0  0  0  0  0  0  0  0  0  0  0
    9.4282   -0.5490    0.0000 C   0  0  0  0  0  0  0  0  0  0  0  0
    8.4282    1.1830    0.0000 C   0  0  0  0  0  0  0  0  0  0  0  0
    8.0622   -1.1830    0.0000 C   0  0  0  0  0  0  0  0  0  0  0  0
    5.8301    0.6830    0.0000 C   0  0  0  0  0  0  0  0  0  0  0  0
    4.5981   -0.1830    0.0000 C   0  0  0  0  0  0  0  0  0  0  0  0
    3.7320   -0.6830    0.0000 C   0  0  0  0  0  0  0  0  0  0  0  0
    2.0000   -0.6830    0.0000 C   0  0  0  0  0  0  0  0  0  0  0  0
    8.0622    0.4370    0.0000 H   0  0  0  0  0  0  0  0  0  0  0  0
   10.1042    0.2801    0.0000 H   0  0  0  0  0  0  0  0  0  0  0  0
   10.3312    1.1270    0.0000 H   0  0  0  0  0  0  0  0  0  0  0  0
    9.4842    1.3539    0.0000 H   0  0  0  0  0  0  0  0  0  0  0  0
    8.8913   -0.8590    0.0000 H   0  0  0  0  0  0  0  0  0  0  0  0
    9.7382   -1.0860    0.0000 H   0  0  0  0  0  0  0  0  0  0  0  0
    9.9651   -0.2390    0.0000 H   0  0  0  0  0  0  0  0  0  0  0  0
    8.9651    1.4930    0.0000 H   0  0  0  0  0  0  0  0  0  0  0  0
    8.1182    1.7200    0.0000 H   0  0  0  0  0  0  0  0  0  0  0  0
    7.8913    0.8730    0.0000 H   0  0  0  0  0  0  0  0  0  0  0  0
    7.4422   -1.1830    0.0000 H   0  0  0  0  0  0  0  0  0  0  0  0
    8.0622   -1.8030    0.0000 H   0  0  0  0  0  0  0  0  0  0  0  0
    8.6822   -1.1830    0.0000 H   0  0  0  0  0  0  0  0  0  0  0  0
    6.3671    0.9930    0.0000 H   0  0  0  0  0  0  0  0  0  0  0  0
    5.5201    1.2200    0.0000 H   0  0  0  0  0  0  0  0  0  0  0  0
    5.2932    0.3730    0.0000 H   0  0  0  0  0  0  0  0  0  0  0  0
    4.9966    0.2919    0.0000 H   0  0  0  0  0  0  0  0  0  0  0  0
    4.1996    0.2919    0.0000 H   0  0  0  0  0  0  0  0  0  0  0  0
    3.3335   -1.1580    0.0000 H   0  0  0  0  0  0  0  0  0  0  0  0
    4.1306   -1.1580    0.0000 H   0  0  0  0  0  0  0  0  0  0  0  0
    1.6900   -0.1461    0.0000 H   0  0  0  0  0  0  0  0  0  0  0  0
    1.4631   -0.9930    0.0000 H   0  0  0  0  0  0  0  0  0  0  0  0
    2.3100   -1.2200    0.0000 H   0  0  0  0  0  0  0  0  0  0  0  0
  1  2  1  0  0  0  0
  1  3  1  0  0  0  0
  1  4  2  0  0  0  0
  1 12  1  0  0  0  0
  2  7  1  0  0  0  0
  3 13  1  0  0  0  0
  5 14  1  0  0  0  0
  5 15  1  0  0  0  0
  6  7  1  0  0  0  0
  6  8  1  0  0  0  0
  6  9  1  0  0  0  0
  6 10  1  0  0  0  0
  7 11  1  0  0  0  0
  7 16  1  0  0  0  0
  8 17  1  0  0  0  0
  8 18  1  0  0  0  0
  8 19  1  0  0  0  0
  9 20  1  0  0  0  0
  9 21  1  0  0  0  0
  9 22  1  0  0  0  0
 10 23  1  0  0  0  0
 10 24  1  0  0  0  0
 10 25  1  0  0  0  0
 11 26  1  0  0  0  0
 11 27  1  0  0  0  0
 11 28  1  0  0  0  0
 12 29  1  0  0  0  0
 12 30  1  0  0  0  0
 12 31  1  0  0  0  0
 13 14  1  0  0  0  0
 13 32  1  0  0  0  0
 13 33  1  0  0  0  0
 14 34  1  0  0  0  0
 14 35  1  0  0  0  0
 15 36  1  0  0  0  0
 15 37  1  0  0  0  0
 15 38  1  0  0  0  0
M  END
> <PUBCHEM_COMPOUND_CID>
586261

> <PUBCHEM_COMPOUND_CANONICALIZED>
1

> <PUBCHEM_CACTVS_COMPLEXITY>
222

> <PUBCHEM_CACTVS_HBOND_ACCEPTOR>
4

> <PUBCHEM_CACTVS_HBOND_DONOR>
0

> <PUBCHEM_CACTVS_ROTATABLE_BOND>
7

> <PUBCHEM_CACTVS_SUBSKEYS>
AAADceBwOAIAAAAAAAAAAAAAAAAAAAAAAAAAAAAAAAAAAAAAAAAAGggAACAADhSggAICAAAABRAAQAAAAIAAAAAAAAAAAAAAAAABAAAAAAAAAAAAAAACAAAAAAAJAAAAAAAAAAAAAAAAAAAAAAAAAAAAAA==

> <PUBCHEM_IUPAC_OPENEYE_NAME>
3-[2-methoxyethoxy(methyl)phosphoryl]oxy-2,2-dimethyl-butane

> <PUBCHEM_IUPAC_CAS_NAME>
3-[2-methoxyethoxy(methyl)phosphoryl]oxy-2,2-dimethylbutane

> <PUBCHEM_IUPAC_NAME>
3-[2-methoxyethoxy(methyl)phosphoryl]oxy-2,2-dimethylbutane

> <PUBCHEM_IUPAC_SYSTEMATIC_NAME>
3-[2-methoxyethoxy(methyl)phosphoryl]oxy-2,2-dimethyl-butane

> <PUBCHEM_IUPAC_TRADITIONAL_NAME>
3-[2-methoxyethoxy(methyl)phosphoryl]oxy-2,2-dimethyl-butane

> <PUBCHEM_IUPAC_INCHI>
InChI=1S/C10H23O4P/c1-9(10(2,3)4)14-15(6,11)13-8-7-12-5/h9H,7-8H2,1-6H3

> <PUBCHEM_IUPAC_INCHIKEY>
RPMMVMLNTPICKA-UHFFFAOYSA-N

> <PUBCHEM_XLOGP3_AA>
1.5

> <PUBCHEM_EXACT_MASS>
238.133396

> <PUBCHEM_MOLECULAR_FORMULA>
C10H23O4P

> <PUBCHEM_MOLECULAR_WEIGHT>
238.260982

> <PUBCHEM_OPENEYE_CAN_SMILES>
CC(C(C)(C)C)OP(=O)(C)OCCOC

> <PUBCHEM_OPENEYE_ISO_SMILES>
CC(C(C)(C)C)OP(=O)(C)OCCOC

> <PUBCHEM_CACTVS_TPSA>
44.8

> <PUBCHEM_MONOISOTOPIC_WEIGHT>
238.133396

> <PUBCHEM_TOTAL_CHARGE>
0

> <PUBCHEM_HEAVY_ATOM_COUNT>
15

> <PUBCHEM_ATOM_DEF_STEREO_COUNT>
0

> <PUBCHEM_ATOM_UDEF_STEREO_COUNT>
2

> <PUBCHEM_BOND_DEF_STEREO_COUNT>
0

> <PUBCHEM_BOND_UDEF_STEREO_COUNT>
0

> <PUBCHEM_ISOTOPIC_ATOM_COUNT>
0

> <PUBCHEM_COMPONENT_COUNT>
1

> <PUBCHEM_CACTVS_TAUTO_COUNT>
1

> <PUBCHEM_COORDINATE_TYPE>
1
5
255

> <PUBCHEM_BONDANNOTATIONS>
1  12  3
7  11  3

$$$$

