582804
  -OEChem-06241222442D

 17 17  0     1  0  0  0  0  0999 V2000
    2.5369   -1.0000    0.0000 S   0  0  0  0  0  0  0  0  0  0  0  0
    4.2690   -1.0000    0.0000 O   0  0  0  0  0  0  0  0  0  0  0  0
    3.4030    0.5000    0.0000 N   0  0  0  0  0  0  0  0  0  0  0  0
    5.1350   -0.5000    0.0000 C   0  0  3  0  0  0  0  0  0  0  0  0
    5.1350    0.5000    0.0000 C   0  0  0  0  0  0  0  0  0  0  0  0
    4.2690    1.0000    0.0000 C   0  0  0  0  0  0  0  0  0  0  0  0
    6.0010   -1.0000    0.0000 C   0  0  0  0  0  0  0  0  0  0  0  0
    3.4030   -0.5000    0.0000 C   0  0  0  0  0  0  0  0  0  0  0  0
    5.1350   -1.1200    0.0000 H   0  0  0  0  0  0  0  0  0  0  0  0
    5.7456    0.3923    0.0000 H   0  0  0  0  0  0  0  0  0  0  0  0
    5.3471    1.0826    0.0000 H   0  0  0  0  0  0  0  0  0  0  0  0
    4.6675    1.4749    0.0000 H   0  0  0  0  0  0  0  0  0  0  0  0
    3.8705    1.4749    0.0000 H   0  0  0  0  0  0  0  0  0  0  0  0
    5.6910   -1.5369    0.0000 H   0  0  0  0  0  0  0  0  0  0  0  0
    6.5380   -1.3100    0.0000 H   0  0  0  0  0  0  0  0  0  0  0  0
    6.3110   -0.4631    0.0000 H   0  0  0  0  0  0  0  0  0  0  0  0
    2.0000   -0.6900    0.0000 H   0  0  0  0  0  0  0  0  0  0  0  0
  1  8  1  0  0  0  0
  1 17  1  0  0  0  0
  2  4  1  0  0  0  0
  2  8  1  0  0  0  0
  3  6  1  0  0  0  0
  3  8  2  0  0  0  0
  4  5  1  0  0  0  0
  4  7  1  0  0  0  0
  4  9  1  0  0  0  0
  5  6  1  0  0  0  0
  5 10  1  0  0  0  0
  5 11  1  0  0  0  0
  6 12  1  0  0  0  0
  6 13  1  0  0  0  0
  7 14  1  0  0  0  0
  7 15  1  0  0  0  0
  7 16  1  0  0  0  0
M  END
> <PUBCHEM_COMPOUND_CID>
582804

> <PUBCHEM_COMPOUND_CANONICALIZED>
1

> <PUBCHEM_CACTVS_COMPLEXITY>
113

> <PUBCHEM_CACTVS_HBOND_ACCEPTOR>
3

> <PUBCHEM_CACTVS_HBOND_DONOR>
1

> <PUBCHEM_CACTVS_ROTATABLE_BOND>
0

> <PUBCHEM_CACTVS_SUBSKEYS>
AAADccBiIABAAAAAAAAAAAAAAAAAAAAAAAAgAAAAAAAAAAAAAAAAHgQAAAAACBThgAYCAAIABAQgAAAABAAAEAAAAAAAAAAAAAAAAAAAgAAAAAACAAAAAAAAAAAAAAAAAAAAAAAAAAAAAAAAAAAAAAAAAA==

> <PUBCHEM_IUPAC_OPENEYE_NAME>
6-methyl-5,6-dihydro-4H-1,3-oxazine-2-thiol

> <PUBCHEM_IUPAC_CAS_NAME>
6-methyl-5,6-dihydro-4H-1,3-oxazine-2-thiol

> <PUBCHEM_IUPAC_NAME>
6-methyl-5,6-dihydro-4H-1,3-oxazine-2-thiol

> <PUBCHEM_IUPAC_SYSTEMATIC_NAME>
6-methyl-5,6-dihydro-4H-1,3-oxazine-2-thiol

> <PUBCHEM_IUPAC_TRADITIONAL_NAME>
6-methyl-5,6-dihydro-4H-1,3-oxazine-2-thiol

> <PUBCHEM_IUPAC_INCHI>
InChI=1S/C5H9NOS/c1-4-2-3-6-5(8)7-4/h4H,2-3H2,1H3,(H,6,8)

> <PUBCHEM_IUPAC_INCHIKEY>
PNEGMJCDTNFFHJ-UHFFFAOYSA-N

> <PUBCHEM_XLOGP3_AA>
1.2

> <PUBCHEM_EXACT_MASS>
131.040485

> <PUBCHEM_MOLECULAR_FORMULA>
C5H9NOS

> <PUBCHEM_MOLECULAR_WEIGHT>
131.19606

> <PUBCHEM_OPENEYE_CAN_SMILES>
CC1CCN=C(O1)S

> <PUBCHEM_OPENEYE_ISO_SMILES>
CC1CCN=C(O1)S

> <PUBCHEM_CACTVS_TPSA>
22.6

> <PUBCHEM_MONOISOTOPIC_WEIGHT>
131.040485

> <PUBCHEM_TOTAL_CHARGE>
0

> <PUBCHEM_HEAVY_ATOM_COUNT>
8

> <PUBCHEM_ATOM_DEF_STEREO_COUNT>
0

> <PUBCHEM_ATOM_UDEF_STEREO_COUNT>
1

> <PUBCHEM_BOND_DEF_STEREO_COUNT>
0

> <PUBCHEM_BOND_UDEF_STEREO_COUNT>
0

> <PUBCHEM_ISOTOPIC_ATOM_COUNT>
0

> <PUBCHEM_COMPONENT_COUNT>
1

> <PUBCHEM_CACTVS_TAUTO_COUNT>
2

> <PUBCHEM_COORDINATE_TYPE>
1
5
255

> <PUBCHEM_BONDANNOTATIONS>
4  7  3

$$$$

