47205707
  -OEChem-06241223002D

 33 35  0     0  0  0  0  0  0999 V2000
    4.5411   -0.9971    0.0000 O   0  0  0  0  0  0  0  0  0  0  0  0
    2.8090   -0.9971    0.0000 N   0  0  0  0  0  0  0  0  0  0  0  0
    3.3090   -3.5360    0.0000 N   0  0  0  0  0  0  0  0  0  0  0  0
    2.3090   -3.5360    0.0000 N   0  0  0  0  0  0  0  0  0  0  0  0
    5.4071    2.5029    0.0000 C   0  0  0  0  0  0  0  0  0  0  0  0
    5.4071    3.5029    0.0000 C   0  0  0  0  0  0  0  0  0  0  0  0
    4.5411    2.0029    0.0000 C   0  0  0  0  0  0  0  0  0  0  0  0
    6.3010    1.9682    0.0000 C   0  0  0  0  0  0  0  0  0  0  0  0
    4.5411    4.0029    0.0000 C   0  0  0  0  0  0  0  0  0  0  0  0
    3.6750    2.5029    0.0000 C   0  0  0  0  0  0  0  0  0  0  0  0
    6.3010    4.0376    0.0000 C   0  0  0  0  0  0  0  0  0  0  0  0
    3.6750    3.5029    0.0000 C   0  0  0  0  0  0  0  0  0  0  0  0
    4.5411    1.0029    0.0000 C   0  0  0  0  0  0  0  0  0  0  0  0
    7.2071    2.4821    0.0000 C   0  0  0  0  0  0  0  0  0  0  0  0
    7.2071    3.5237    0.0000 C   0  0  0  0  0  0  0  0  0  0  0  0
    3.6750    0.5029    0.0000 C   0  0  0  0  0  0  0  0  0  0  0  0
    2.8090   -1.9971    0.0000 C   0  0  0  0  0  0  0  0  0  0  0  0
    3.6750   -0.4971    0.0000 C   0  0  0  0  0  0  0  0  0  0  0  0
    3.6180   -2.5849    0.0000 C   0  0  0  0  0  0  0  0  0  0  0  0
    2.0000   -2.5849    0.0000 C   0  0  0  0  0  0  0  0  0  0  0  0
    6.2939    1.3483    0.0000 H   0  0  0  0  0  0  0  0  0  0  0  0
    4.5411    4.6229    0.0000 H   0  0  0  0  0  0  0  0  0  0  0  0
    3.1381    2.1929    0.0000 H   0  0  0  0  0  0  0  0  0  0  0  0
    6.2939    4.6575    0.0000 H   0  0  0  0  0  0  0  0  0  0  0  0
    3.1381    3.8129    0.0000 H   0  0  0  0  0  0  0  0  0  0  0  0
    5.0780    0.6929    0.0000 H   0  0  0  0  0  0  0  0  0  0  0  0
    7.7428    2.1700    0.0000 H   0  0  0  0  0  0  0  0  0  0  0  0
    7.7428    3.8358    0.0000 H   0  0  0  0  0  0  0  0  0  0  0  0
    3.1381    0.8129    0.0000 H   0  0  0  0  0  0  0  0  0  0  0  0
    2.2721   -0.6871    0.0000 H   0  0  0  0  0  0  0  0  0  0  0  0
    4.2077   -2.3933    0.0000 H   0  0  0  0  0  0  0  0  0  0  0  0
    1.4103   -2.3933    0.0000 H   0  0  0  0  0  0  0  0  0  0  0  0
    3.6734   -4.0376    0.0000 H   0  0  0  0  0  0  0  0  0  0  0  0
  1 18  2  0  0  0  0
  2 17  1  0  0  0  0
  2 18  1  0  0  0  0
  2 30  1  0  0  0  0
  3  4  1  0  0  0  0
  3 19  1  0  0  0  0
  3 33  1  0  0  0  0
  4 20  2  0  0  0  0
  5  6  1  0  0  0  0
  5  7  1  0  0  0  0
  5  8  2  0  0  0  0
  6  9  1  0  0  0  0
  6 11  2  0  0  0  0
  7 10  2  0  0  0  0
  7 13  1  0  0  0  0
  8 14  1  0  0  0  0
  8 21  1  0  0  0  0
  9 12  2  0  0  0  0
  9 22  1  0  0  0  0
 10 12  1  0  0  0  0
 10 23  1  0  0  0  0
 11 15  1  0  0  0  0
 11 24  1  0  0  0  0
 12 25  1  0  0  0  0
 13 16  2  3  0  0  0
 13 26  1  0  0  0  0
 14 15  2  0  0  0  0
 14 27  1  0  0  0  0
 15 28  1  0  0  0  0
 16 18  1  0  0  0  0
 16 29  1  0  0  0  0
 17 19  2  0  0  0  0
 17 20  1  0  0  0  0
 19 31  1  0  0  0  0
 20 32  1  0  0  0  0
M  END
> <PUBCHEM_COMPOUND_CID>
47205707

> <PUBCHEM_COMPOUND_CANONICALIZED>
1

> <PUBCHEM_CACTVS_COMPLEXITY>
369

> <PUBCHEM_CACTVS_HBOND_ACCEPTOR>
2

> <PUBCHEM_CACTVS_HBOND_DONOR>
2

> <PUBCHEM_CACTVS_ROTATABLE_BOND>
3

> <PUBCHEM_CACTVS_SUBSKEYS>
AAADccB7IAAAAAAAAAAAAAAAAAAAAWAAAAAwYAAAAAAAAADB1AAAHgAYAAAADAjBmgQ8wNLjAACqAjV3UACSBAAhkgAYuaAgdNgIYKKAUVCQpAAgnACIiYcAgMAOgAACAAAQAAAAAAQAACAAAAAAAAAAAA==

> <PUBCHEM_IUPAC_OPENEYE_NAME>
3-(1-naphthyl)-N-(1H-pyrazol-4-yl)prop-2-enamide

> <PUBCHEM_IUPAC_CAS_NAME>
3-(1-naphthalenyl)-N-(1H-pyrazol-4-yl)-2-propenamide

> <PUBCHEM_IUPAC_NAME>
3-naphthalen-1-yl-N-(1H-pyrazol-4-yl)prop-2-enamide

> <PUBCHEM_IUPAC_SYSTEMATIC_NAME>
3-naphthalen-1-yl-N-(1H-pyrazol-4-yl)prop-2-enamide

> <PUBCHEM_IUPAC_TRADITIONAL_NAME>
3-(1-naphthyl)-N-(1H-pyrazol-4-yl)acrylamide

> <PUBCHEM_IUPAC_INCHI>
InChI=1S/C16H13N3O/c20-16(19-14-10-17-18-11-14)9-8-13-6-3-5-12-4-1-2-7-15(12)13/h1-11H,(H,17,18)(H,19,20)

> <PUBCHEM_IUPAC_INCHIKEY>
ULTRCYUCXIINPU-UHFFFAOYSA-N

> <PUBCHEM_XLOGP3_AA>
2.7

> <PUBCHEM_EXACT_MASS>
263.105862

> <PUBCHEM_MOLECULAR_FORMULA>
C16H13N3O

> <PUBCHEM_MOLECULAR_WEIGHT>
263.29392

> <PUBCHEM_OPENEYE_CAN_SMILES>
C1=CC=C2C(=C1)C=CC=C2C=CC(=O)NC3=CNN=C3

> <PUBCHEM_OPENEYE_ISO_SMILES>
C1=CC=C2C(=C1)C=CC=C2C=CC(=O)NC3=CNN=C3

> <PUBCHEM_CACTVS_TPSA>
57.8

> <PUBCHEM_MONOISOTOPIC_WEIGHT>
263.105862

> <PUBCHEM_TOTAL_CHARGE>
0

> <PUBCHEM_HEAVY_ATOM_COUNT>
20

> <PUBCHEM_ATOM_DEF_STEREO_COUNT>
0

> <PUBCHEM_ATOM_UDEF_STEREO_COUNT>
0

> <PUBCHEM_BOND_DEF_STEREO_COUNT>
0

> <PUBCHEM_BOND_UDEF_STEREO_COUNT>
1

> <PUBCHEM_ISOTOPIC_ATOM_COUNT>
0

> <PUBCHEM_COMPONENT_COUNT>
1

> <PUBCHEM_CACTVS_TAUTO_COUNT>
4

> <PUBCHEM_COORDINATE_TYPE>
1
5
255

> <PUBCHEM_BONDANNOTATIONS>
10  12  8
11  15  8
13  16  1
14  15  8
17  19  8
17  20  8
3  19  8
3  4  8
4  20  8
5  6  8
5  7  8
5  8  8
6  11  8
6  9  8
7  10  8
8  14  8
9  12  8

$$$$

