17396361
  -OEChem-06241222562D

 40 42  0     0  0  0  0  0  0999 V2000
    3.0000   -2.9806    0.0000 S   0  0  0  0  0  0  0  0  0  0  0  0
    3.8090   -4.5684    0.0000 S   0  0  0  0  0  0  0  0  0  0  0  0
    3.8660    5.5194    0.0000 F   0  0  0  0  0  0  0  0  0  0  0  0
    2.0000   -2.9806    0.0000 O   0  0  0  0  0  0  0  0  0  0  0  0
    4.0000   -2.9806    0.0000 O   0  0  0  0  0  0  0  0  0  0  0  0
    2.1340    1.5194    0.0000 O   0  0  0  0  0  0  0  0  0  0  0  0
    3.0000   -1.9806    0.0000 N   0  0  0  0  0  0  0  0  0  0  0  0
    3.0000    0.0194    0.0000 N   0  0  0  0  0  0  0  0  0  0  0  0
    3.8660    1.5194    0.0000 N   0  0  0  0  0  0  0  0  0  0  0  0
    2.1340   -1.4806    0.0000 C   0  0  0  0  0  0  0  0  0  0  0  0
    3.8660   -1.4806    0.0000 C   0  0  0  0  0  0  0  0  0  0  0  0
    2.1340   -0.4806    0.0000 C   0  0  0  0  0  0  0  0  0  0  0  0
    3.8660   -0.4806    0.0000 C   0  0  0  0  0  0  0  0  0  0  0  0
    3.0000    1.0194    0.0000 C   0  0  0  0  0  0  0  0  0  0  0  0
    3.0000   -3.9806    0.0000 C   0  0  0  0  0  0  0  0  0  0  0  0
    2.1910   -4.5684    0.0000 C   0  0  0  0  0  0  0  0  0  0  0  0
    3.8660    2.5194    0.0000 C   0  0  0  0  0  0  0  0  0  0  0  0
    2.5000   -5.5194    0.0000 C   0  0  0  0  0  0  0  0  0  0  0  0
    3.5000   -5.5194    0.0000 C   0  0  0  0  0  0  0  0  0  0  0  0
    4.7320    3.0194    0.0000 C   0  0  0  0  0  0  0  0  0  0  0  0
    3.0000    3.0194    0.0000 C   0  0  0  0  0  0  0  0  0  0  0  0
    4.7320    4.0194    0.0000 C   0  0  0  0  0  0  0  0  0  0  0  0
    3.0000    4.0194    0.0000 C   0  0  0  0  0  0  0  0  0  0  0  0
    3.8660    4.5194    0.0000 C   0  0  0  0  0  0  0  0  0  0  0  0
    4.0781   -2.0632    0.0000 H   0  0  0  0  0  0  0  0  0  0  0  0
    4.4766   -1.3729    0.0000 H   0  0  0  0  0  0  0  0  0  0  0  0
    1.5234   -1.3729    0.0000 H   0  0  0  0  0  0  0  0  0  0  0  0
    1.9219   -2.0632    0.0000 H   0  0  0  0  0  0  0  0  0  0  0  0
    4.4766   -0.5882    0.0000 H   0  0  0  0  0  0  0  0  0  0  0  0
    4.0781    0.1020    0.0000 H   0  0  0  0  0  0  0  0  0  0  0  0
    1.9219    0.1020    0.0000 H   0  0  0  0  0  0  0  0  0  0  0  0
    1.5234   -0.5882    0.0000 H   0  0  0  0  0  0  0  0  0  0  0  0
    4.4030    1.2094    0.0000 H   0  0  0  0  0  0  0  0  0  0  0  0
    1.6013   -4.3768    0.0000 H   0  0  0  0  0  0  0  0  0  0  0  0
    2.1356   -6.0210    0.0000 H   0  0  0  0  0  0  0  0  0  0  0  0
    3.8644   -6.0210    0.0000 H   0  0  0  0  0  0  0  0  0  0  0  0
    5.2690    2.7094    0.0000 H   0  0  0  0  0  0  0  0  0  0  0  0
    2.4631    2.7094    0.0000 H   0  0  0  0  0  0  0  0  0  0  0  0
    5.2690    4.3294    0.0000 H   0  0  0  0  0  0  0  0  0  0  0  0
    2.4631    4.3294    0.0000 H   0  0  0  0  0  0  0  0  0  0  0  0
  1  4  2  0  0  0  0
  1  5  2  0  0  0  0
  1  7  1  0  0  0  0
  1 15  1  0  0  0  0
  2 15  1  0  0  0  0
  2 19  1  0  0  0  0
  3 24  1  0  0  0  0
  6 14  2  0  0  0  0
  7 10  1  0  0  0  0
  7 11  1  0  0  0  0
  8 12  1  0  0  0  0
  8 13  1  0  0  0  0
  8 14  1  0  0  0  0
  9 14  1  0  0  0  0
  9 17  1  0  0  0  0
  9 33  1  0  0  0  0
 10 12  1  0  0  0  0
 10 27  1  0  0  0  0
 10 28  1  0  0  0  0
 11 13  1  0  0  0  0
 11 25  1  0  0  0  0
 11 26  1  0  0  0  0
 12 31  1  0  0  0  0
 12 32  1  0  0  0  0
 13 29  1  0  0  0  0
 13 30  1  0  0  0  0
 15 16  2  0  0  0  0
 16 18  1  0  0  0  0
 16 34  1  0  0  0  0
 17 20  2  0  0  0  0
 17 21  1  0  0  0  0
 18 19  2  0  0  0  0
 18 35  1  0  0  0  0
 19 36  1  0  0  0  0
 20 22  1  0  0  0  0
 20 37  1  0  0  0  0
 21 23  2  0  0  0  0
 21 38  1  0  0  0  0
 22 24  2  0  0  0  0
 22 39  1  0  0  0  0
 23 24  1  0  0  0  0
 23 40  1  0  0  0  0
M  END
> <PUBCHEM_COMPOUND_CID>
17396361

> <PUBCHEM_COMPOUND_CANONICALIZED>
1

> <PUBCHEM_CACTVS_COMPLEXITY>
539

> <PUBCHEM_CACTVS_HBOND_ACCEPTOR>
6

> <PUBCHEM_CACTVS_HBOND_DONOR>
1

> <PUBCHEM_CACTVS_ROTATABLE_BOND>
3

> <PUBCHEM_CACTVS_SUBSKEYS>
AAADceBzMQBgAAAAAAAAAAAAAAAAASAAAAA8QAAAAAAAAAABwAAAHwQQQAAACAjFUAyxwYPAAAqMACRCUHDDAZAhChBIiBgIZIiIYCLgkZGUIAholgLoyCcQAAAAAAAAAAAAAAAAAAAAAAAAAAAAAAAAAA==

> <PUBCHEM_IUPAC_OPENEYE_NAME>
N-(4-fluorophenyl)-4-(2-thienylsulfonyl)piperazine-1-carboxamide

> <PUBCHEM_IUPAC_CAS_NAME>
N-(4-fluorophenyl)-4-thiophen-2-ylsulfonyl-1-piperazinecarboxamide

> <PUBCHEM_IUPAC_NAME>
N-(4-fluorophenyl)-4-thiophen-2-ylsulfonylpiperazine-1-carboxamide

> <PUBCHEM_IUPAC_SYSTEMATIC_NAME>
N-(4-fluorophenyl)-4-thiophen-2-ylsulfonyl-piperazine-1-carboxamide

> <PUBCHEM_IUPAC_TRADITIONAL_NAME>
N-(4-fluorophenyl)-4-(2-thienylsulfonyl)piperazine-1-carboxamide

> <PUBCHEM_IUPAC_INCHI>
InChI=1S/C15H16FN3O3S2/c16-12-3-5-13(6-4-12)17-15(20)18-7-9-19(10-8-18)24(21,22)14-2-1-11-23-14/h1-6,11H,7-10H2,(H,17,20)

> <PUBCHEM_IUPAC_INCHIKEY>
QQEIGCIWFIFMLH-UHFFFAOYSA-N

> <PUBCHEM_XLOGP3_AA>
1.8

> <PUBCHEM_EXACT_MASS>
369.061712

> <PUBCHEM_MOLECULAR_FORMULA>
C15H16FN3O3S2

> <PUBCHEM_MOLECULAR_WEIGHT>
369.434243

> <PUBCHEM_OPENEYE_CAN_SMILES>
C1CN(CCN1C(=O)NC2=CC=C(C=C2)F)S(=O)(=O)C3=CC=CS3

> <PUBCHEM_OPENEYE_ISO_SMILES>
C1CN(CCN1C(=O)NC2=CC=C(C=C2)F)S(=O)(=O)C3=CC=CS3

> <PUBCHEM_CACTVS_TPSA>
106

> <PUBCHEM_MONOISOTOPIC_WEIGHT>
369.061712

> <PUBCHEM_TOTAL_CHARGE>
0

> <PUBCHEM_HEAVY_ATOM_COUNT>
24

> <PUBCHEM_ATOM_DEF_STEREO_COUNT>
0

> <PUBCHEM_ATOM_UDEF_STEREO_COUNT>
0

> <PUBCHEM_BOND_DEF_STEREO_COUNT>
0

> <PUBCHEM_BOND_UDEF_STEREO_COUNT>
0

> <PUBCHEM_ISOTOPIC_ATOM_COUNT>
0

> <PUBCHEM_COMPONENT_COUNT>
1

> <PUBCHEM_CACTVS_TAUTO_COUNT>
2

> <PUBCHEM_COORDINATE_TYPE>
1
5
255

> <PUBCHEM_BONDANNOTATIONS>
15  16  8
16  18  8
17  20  8
17  21  8
18  19  8
2  15  8
2  19  8
20  22  8
21  23  8
22  24  8
23  24  8

$$$$

