8935
  -OEChem-06261203152D

124131  0     1  0  0  0  0  0999 V2000
    1.4030    7.0532    0.0000 S   0  0  0  0  0  0  0  0  0  0  0  0
   11.4680    4.2386    0.0000 O   0  0  0  0  0  0  0  0  0  0  0  0
   12.2112    3.5694    0.0000 O   0  0  0  0  0  0  0  0  0  0  0  0
    9.5314    1.5407    0.0000 O   0  0  0  0  0  0  0  0  0  0  0  0
   11.7297    2.3775    0.0000 O   0  0  0  0  0  0  0  0  0  0  0  0
   10.8162    1.4958    0.0000 O   0  0  0  0  0  0  0  0  0  0  0  0
   11.5705    8.7288    0.0000 O   0  0  0  0  0  0  0  0  0  0  0  0
    9.9191    7.4159    0.0000 O   0  0  0  0  0  0  0  0  0  0  0  0
    8.6342    7.4608    0.0000 O   0  0  0  0  0  0  0  0  0  0  0  0
   13.0528   11.7931    0.0000 O   0  0  0  0  0  0  0  0  0  0  0  0
    2.2690    7.5532    0.0000 O   0  0  0  0  0  0  0  0  0  0  0  0
    0.5369    6.5532    0.0000 O   0  0  0  0  0  0  0  0  0  0  0  0
    1.9030    6.1872    0.0000 O   0  0  0  0  0  0  0  0  0  0  0  0
    0.9030    7.9192    0.0000 O   0  0  0  0  0  0  0  0  0  0  0  0
    7.7741    4.5125    0.0000 N   0  0  3  0  0  0  0  0  0  0  0  0
   10.8536    5.5131    0.0000 N   0  0  3  0  0  0  0  0  0  0  0  0
    8.0584    8.7924    0.0000 N   0  0  0  0  0  0  0  0  0  0  0  0
   10.2767   11.9476    0.0000 N   0  0  3  0  0  0  0  0  0  0  0  0
    9.3138    5.0128    0.0000 C   0  0  1  0  0  0  0  0  0  0  0  0
    8.6884    4.3182    0.0000 C   0  0  2  0  0  0  0  0  0  0  0  0
    8.9772    3.4293    0.0000 C   0  0  1  0  0  0  0  0  0  0  0  0
   10.2281    4.8185    0.0000 C   0  0  2  0  0  0  0  0  0  0  0  0
   10.5170    3.9295    0.0000 C   0  0  1  0  0  0  0  0  0  0  0  0
    9.8915    3.2349    0.0000 C   0  0  2  0  0  0  0  0  0  0  0  0
    8.9288    6.0485    0.0000 C   0  0  0  0  0  0  0  0  0  0  0  0
    9.6504    6.5964    0.0000 C   0  0  0  0  0  0  0  0  0  0  0  0
    7.4853    5.4015    0.0000 C   0  0  0  0  0  0  0  0  0  0  0  0
    9.2863    2.4782    0.0000 C   0  0  0  0  0  0  0  0  0  0  0  0
   10.5647    6.4021    0.0000 C   0  0  0  0  0  0  0  0  0  0  0  0
    8.3518    2.7346    0.0000 C   0  0  0  0  0  0  0  0  0  0  0  0
    7.1487    3.8179    0.0000 C   0  0  0  0  0  0  0  0  0  0  0  0
    7.4375    2.9290    0.0000 C   0  0  0  0  0  0  0  0  0  0  0  0
   11.2601    3.2604    0.0000 C   0  0  0  0  0  0  0  0  0  0  0  0
   10.2005    2.2839    0.0000 C   0  0  0  0  0  0  0  0  0  0  0  0
    9.3616    7.4854    0.0000 C   0  0  0  0  0  0  0  0  0  0  0  0
   11.8046    5.8222    0.0000 C   0  0  0  0  0  0  0  0  0  0  0  0
    8.6171    1.7351    0.0000 C   0  0  0  0  0  0  0  0  0  0  0  0
   11.1902    7.0967    0.0000 C   0  0  0  0  0  0  0  0  0  0  0  0
    9.9870    8.1800    0.0000 C   0  0  0  0  0  0  0  0  0  0  0  0
   10.9013    7.9857    0.0000 C   0  0  0  0  0  0  0  0  0  0  0  0
    9.6780    9.1311    0.0000 C   0  0  1  0  0  0  0  0  0  0  0  0
   10.6291    9.4401    0.0000 C   0  0  0  0  0  0  0  0  0  0  0  0
    8.7508    9.5057    0.0000 C   0  0  0  0  0  0  0  0  0  0  0  0
   11.1590   10.2882    0.0000 C   0  0  3  0  0  0  0  0  0  0  0  0
    9.3034    8.2039    0.0000 C   0  0  0  0  0  0  0  0  0  0  0  0
   12.9543    2.9003    0.0000 C   0  0  0  0  0  0  0  0  0  0  0  0
    9.8404    0.5897    0.0000 C   0  0  0  0  0  0  0  0  0  0  0  0
   12.0343   10.8094    0.0000 C   0  0  0  0  0  0  0  0  0  0  0  0
   11.0198   11.2784    0.0000 C   0  0  0  0  0  0  0  0  0  0  0  0
    8.2814   10.3886    0.0000 C   0  0  0  0  0  0  0  0  0  0  0  0
   12.0534   11.8280    0.0000 C   0  0  1  0  0  0  0  0  0  0  0  0
   11.1983   12.3817    0.0000 C   0  0  0  0  0  0  0  0  0  0  0  0
    8.4893   11.3668    0.0000 C   0  0  0  0  0  0  0  0  0  0  0  0
   12.5486    8.5209    0.0000 C   0  0  0  0  0  0  0  0  0  0  0  0
    9.2773   11.9825    0.0000 C   0  0  0  0  0  0  0  0  0  0  0  0
    7.3029   10.2135    0.0000 C   0  0  0  0  0  0  0  0  0  0  0  0
    7.1654    9.2290    0.0000 C   0  0  0  0  0  0  0  0  0  0  0  0
   12.5833   12.6760    0.0000 C   0  0  0  0  0  0  0  0  0  0  0  0
    6.4963   10.8628    0.0000 C   0  0  0  0  0  0  0  0  0  0  0  0
    6.2117    8.8255    0.0000 C   0  0  0  0  0  0  0  0  0  0  0  0
   11.0579    7.5759    0.0000 C   0  0  0  0  0  0  0  0  0  0  0  0
   12.1139   13.5590    0.0000 C   0  0  0  0  0  0  0  0  0  0  0  0
    5.5336   10.4815    0.0000 C   0  0  0  0  0  0  0  0  0  0  0  0
    5.3903    9.4560    0.0000 C   0  0  0  0  0  0  0  0  0  0  0  0
    8.4412    5.0791    0.0000 H   0  0  0  0  0  0  0  0  0  0  0  0
   11.0107    4.6522    0.0000 H   0  0  0  0  0  0  0  0  0  0  0  0
   10.4980    3.1060    0.0000 H   0  0  0  0  0  0  0  0  0  0  0  0
    9.5050    6.2772    0.0000 H   0  0  0  0  0  0  0  0  0  0  0  0
    8.6876    6.6196    0.0000 H   0  0  0  0  0  0  0  0  0  0  0  0
    7.2521    5.9760    0.0000 H   0  0  0  0  0  0  0  0  0  0  0  0
    6.9028    5.1890    0.0000 H   0  0  0  0  0  0  0  0  0  0  0  0
    9.6680    1.9896    0.0000 H   0  0  0  0  0  0  0  0  0  0  0  0
    9.8337    2.7693    0.0000 H   0  0  0  0  0  0  0  0  0  0  0  0
    8.5434    2.1450    0.0000 H   0  0  0  0  0  0  0  0  0  0  0  0
    6.6012    3.5269    0.0000 H   0  0  0  0  0  0  0  0  0  0  0  0
    6.7670    4.3065    0.0000 H   0  0  0  0  0  0  0  0  0  0  0  0
    7.0226    2.4682    0.0000 H   0  0  0  0  0  0  0  0  0  0  0  0
    8.7551    7.6143    0.0000 H   0  0  0  0  0  0  0  0  0  0  0  0
   11.8829    4.6993    0.0000 H   0  0  0  0  0  0  0  0  0  0  0  0
   11.6130    6.4118    0.0000 H   0  0  0  0  0  0  0  0  0  0  0  0
   12.3943    6.0138    0.0000 H   0  0  0  0  0  0  0  0  0  0  0  0
   11.9962    5.2325    0.0000 H   0  0  0  0  0  0  0  0  0  0  0  0
    8.2023    1.2743    0.0000 H   0  0  0  0  0  0  0  0  0  0  0  0
    8.1564    2.1499    0.0000 H   0  0  0  0  0  0  0  0  0  0  0  0
    9.0779    1.3202    0.0000 H   0  0  0  0  0  0  0  0  0  0  0  0
   11.7966    6.9678    0.0000 H   0  0  0  0  0  0  0  0  0  0  0  0
   10.6435    8.8203    0.0000 H   0  0  0  0  0  0  0  0  0  0  0  0
   11.2270    9.2762    0.0000 H   0  0  0  0  0  0  0  0  0  0  0  0
   11.5927    9.8451    0.0000 H   0  0  0  0  0  0  0  0  0  0  0  0
   13.3692    3.3611    0.0000 H   0  0  0  0  0  0  0  0  0  0  0  0
   13.4151    2.4854    0.0000 H   0  0  0  0  0  0  0  0  0  0  0  0
   12.5395    2.4395    0.0000 H   0  0  0  0  0  0  0  0  0  0  0  0
   10.0320    0.0000    0.0000 H   0  0  0  0  0  0  0  0  0  0  0  0
   10.4301    0.7812    0.0000 H   0  0  0  0  0  0  0  0  0  0  0  0
    9.2508    0.3981    0.0000 H   0  0  0  0  0  0  0  0  0  0  0  0
   12.2480   10.2274    0.0000 H   0  0  0  0  0  0  0  0  0  0  0  0
   12.6457   10.9122    0.0000 H   0  0  0  0  0  0  0  0  0  0  0  0
   11.6328   11.1850    0.0000 H   0  0  0  0  0  0  0  0  0  0  0  0
   11.2851   11.8388    0.0000 H   0  0  0  0  0  0  0  0  0  0  0  0
    7.7475    8.2560    0.0000 H   0  0  0  0  0  0  0  0  0  0  0  0
   11.6254   12.8311    0.0000 H   0  0  0  0  0  0  0  0  0  0  0  0
   10.8353   12.8843    0.0000 H   0  0  0  0  0  0  0  0  0  0  0  0
    7.8713   11.3164    0.0000 H   0  0  0  0  0  0  0  0  0  0  0  0
    8.2637   11.9443    0.0000 H   0  0  0  0  0  0  0  0  0  0  0  0
   12.6775    9.1274    0.0000 H   0  0  0  0  0  0  0  0  0  0  0  0
   13.1551    8.3920    0.0000 H   0  0  0  0  0  0  0  0  0  0  0  0
   12.4197    7.9145    0.0000 H   0  0  0  0  0  0  0  0  0  0  0  0
    9.4757   12.5698    0.0000 H   0  0  0  0  0  0  0  0  0  0  0  0
    8.7715   12.3410    0.0000 H   0  0  0  0  0  0  0  0  0  0  0  0
   13.0441   12.2612    0.0000 H   0  0  0  0  0  0  0  0  0  0  0  0
   13.0719   13.0577    0.0000 H   0  0  0  0  0  0  0  0  0  0  0  0
   13.3439   11.2457    0.0000 H   0  0  0  0  0  0  0  0  0  0  0  0
    6.5891   11.4758    0.0000 H   0  0  0  0  0  0  0  0  0  0  0  0
    6.1331    8.2105    0.0000 H   0  0  0  0  0  0  0  0  0  0  0  0
   10.9716    8.1899    0.0000 H   0  0  0  0  0  0  0  0  0  0  0  0
   11.6719    7.6622    0.0000 H   0  0  0  0  0  0  0  0  0  0  0  0
   11.1442    6.9620    0.0000 H   0  0  0  0  0  0  0  0  0  0  0  0
   12.6613   13.8500    0.0000 H   0  0  0  0  0  0  0  0  0  0  0  0
   11.8228   14.1064    0.0000 H   0  0  0  0  0  0  0  0  0  0  0  0
   11.5664   13.2679    0.0000 H   0  0  0  0  0  0  0  0  0  0  0  0
    5.0461   10.8647    0.0000 H   0  0  0  0  0  0  0  0  0  0  0  0
    4.8166    9.2210    0.0000 H   0  0  0  0  0  0  0  0  0  0  0  0
    2.8059    7.2432    0.0000 H   0  0  0  0  0  0  0  0  0  0  0  0
    0.0000    6.8632    0.0000 H   0  0  0  0  0  0  0  0  0  0  0  0
  1 11  1  0  0  0  0
  1 12  1  0  0  0  0
  1 13  2  0  0  0  0
  1 14  2  0  0  0  0
 23  2  1  6  0  0  0
  2 79  1  0  0  0  0
  3 33  1  0  0  0  0
  3 46  1  0  0  0  0
  4 34  1  0  0  0  0
  4 47  1  0  0  0  0
  5 33  2  0  0  0  0
  6 34  2  0  0  0  0
  7 40  1  0  0  0  0
  7 54  1  0  0  0  0
  8 45  1  0  0  0  0
  8 61  1  0  0  0  0
  9 45  2  0  0  0  0
 51 10  1  1  0  0  0
 10112  1  0  0  0  0
 11123  1  0  0  0  0
 12124  1  0  0  0  0
 15 20  1  0  0  0  0
 15 27  1  0  0  0  0
 15 31  1  0  0  0  0
 16 22  1  0  0  0  0
 16 29  1  0  0  0  0
 16 36  1  0  0  0  0
 17 43  1  0  0  0  0
 17 57  1  0  0  0  0
 17100  1  0  0  0  0
 18 49  1  0  0  0  0
 18 52  1  0  0  0  0
 18 55  1  0  0  0  0
 19 20  1  0  0  0  0
 19 22  1  0  0  0  0
 19 25  1  6  0  0  0
 19 26  1  0  0  0  0
 20 21  1  0  0  0  0
 20 65  1  1  0  0  0
 21 24  1  0  0  0  0
 21 28  1  1  0  0  0
 21 30  1  0  0  0  0
 22 23  1  0  0  0  0
 22 66  1  6  0  0  0
 23 24  1  0  0  0  0
 23 33  1  0  0  0  0
 24 34  1  6  0  0  0
 24 67  1  0  0  0  0
 25 27  1  0  0  0  0
 25 68  1  0  0  0  0
 25 69  1  0  0  0  0
 26 29  1  0  0  0  0
 26 35  2  0  0  0  0
 27 70  1  0  0  0  0
 27 71  1  0  0  0  0
 28 37  1  0  0  0  0
 28 72  1  0  0  0  0
 28 73  1  0  0  0  0
 29 38  2  0  0  0  0
 30 32  2  0  0  0  0
 30 74  1  0  0  0  0
 31 32  1  0  0  0  0
 31 75  1  0  0  0  0
 31 76  1  0  0  0  0
 32 77  1  0  0  0  0
 35 39  1  0  0  0  0
 35 78  1  0  0  0  0
 36 80  1  0  0  0  0
 36 81  1  0  0  0  0
 36 82  1  0  0  0  0
 37 83  1  0  0  0  0
 37 84  1  0  0  0  0
 37 85  1  0  0  0  0
 38 40  1  0  0  0  0
 38 86  1  0  0  0  0
 39 40  2  0  0  0  0
 39 41  1  0  0  0  0
 41 42  1  0  0  0  0
 41 43  1  0  0  0  0
 41 45  1  1  0  0  0
 42 44  1  0  0  0  0
 42 87  1  0  0  0  0
 42 88  1  0  0  0  0
 43 50  2  0  0  0  0
 44 48  1  0  0  0  0
 44 49  1  0  0  0  0
 44 89  1  0  0  0  0
 46 90  1  0  0  0  0
 46 91  1  0  0  0  0
 46 92  1  0  0  0  0
 47 93  1  0  0  0  0
 47 94  1  0  0  0  0
 47 95  1  0  0  0  0
 48 51  1  0  0  0  0
 48 96  1  0  0  0  0
 48 97  1  0  0  0  0
 49 98  1  0  0  0  0
 49 99  1  0  0  0  0
 50 53  1  0  0  0  0
 50 56  1  0  0  0  0
 51 52  1  0  0  0  0
 51 58  1  0  0  0  0
 52101  1  0  0  0  0
 52102  1  0  0  0  0
 53 55  1  0  0  0  0
 53103  1  0  0  0  0
 53104  1  0  0  0  0
 54105  1  0  0  0  0
 54106  1  0  0  0  0
 54107  1  0  0  0  0
 55108  1  0  0  0  0
 55109  1  0  0  0  0
 56 57  1  0  0  0  0
 56 59  2  0  0  0  0
 57 60  2  0  0  0  0
 58 62  1  0  0  0  0
 58110  1  0  0  0  0
 58111  1  0  0  0  0
 59 63  1  0  0  0  0
 59113  1  0  0  0  0
 60 64  1  0  0  0  0
 60114  1  0  0  0  0
 61115  1  0  0  0  0
 61116  1  0  0  0  0
 61117  1  0  0  0  0
 62118  1  0  0  0  0
 62119  1  0  0  0  0
 62120  1  0  0  0  0
 63 64  2  0  0  0  0
 63121  1  0  0  0  0
 64122  1  0  0  0  0
M  END
> <PUBCHEM_COMPOUND_CID>
8935

> <PUBCHEM_COMPOUND_CANONICALIZED>
1

> <PUBCHEM_CACTVS_COMPLEXITY>
1780

> <PUBCHEM_CACTVS_HBOND_ACCEPTOR>
16

> <PUBCHEM_CACTVS_HBOND_DONOR>
5

> <PUBCHEM_CACTVS_ROTATABLE_BOND>
10

> <PUBCHEM_CACTVS_SUBSKEYS>
AAADcfB/vABAAAAAAAAAAAAAAAAAAWLFgAA8YMECAAAAAFiB9AAAHgAQCAAAD2zBngYyzvPJloCoAyTyTDKCiCAhIiAImSF+bJgPJv7E9ZuEcChn8Bnb6Af/2fOfqAACAgAKAADQgAaECDQgAAAAAAAAAA==

> <PUBCHEM_IUPAC_INCHI>
InChI=1S/C46H58N4O9.H2O4S/c1-8-42(54)23-27-24-45(40(52)58-6,36-29(15-19-49(25-27)26-42)28-13-10-11-14-32(28)47-36)31-21-30-33(22-34(31)56-4)48(3)39-44(30)17-20-50-18-12-16-43(9-2,38(44)50)35(37(51)57-5)46(39,55)41(53)59-7;1-5(2,3)4/h10-14,16,21-22,27,35,38-39,47,54-55H,8-9,15,17-20,23-26H2,1-7H3;(H2,1,2,3,4)/t27?,35-,38+,39-,42+,43+,44-,45+,46-;/m1./s1

> <PUBCHEM_IUPAC_INCHIKEY>
PQRHLAKBRMUOGG-BAMZTYORSA-N

> <PUBCHEM_XLOGP3_AA>
4.711

> <PUBCHEM_EXACT_MASS>
908.387759

> <PUBCHEM_MOLECULAR_FORMULA>
C46H60N4O13S

> <PUBCHEM_MOLECULAR_WEIGHT>
909.0526

> <PUBCHEM_OPENEYE_CAN_SMILES>
CCC1(CC2CC(C3=C(CCN(C2)C1)C4=CC=CC=C4N3)(C5=C(C=C6C(=C5)C78CCN9C7C(C=CC9)(C(C(C8N6C)(C(=O)OC)O)C(=O)OC)CC)OC)C(=O)OC)O.OS(=O)(=O)O

> <PUBCHEM_OPENEYE_ISO_SMILES>
CC[C@@]1(CC2C[C@@](C3=C(CCN(C2)C1)C4=CC=CC=C4N3)(C5=C(C=C6C(=C5)[C@]78CCN9[C@H]7[C@@](C=CC9)([C@H]([C@@]([C@@H]8N6C)(C(=O)OC)O)C(=O)OC)CC)OC)C(=O)OC)O.OS(=O)(=O)O

> <PUBCHEM_CACTVS_TPSA>
237

> <PUBCHEM_MONOISOTOPIC_WEIGHT>
908.387759

> <PUBCHEM_TOTAL_CHARGE>
0

> <PUBCHEM_HEAVY_ATOM_COUNT>
64

> <PUBCHEM_ATOM_DEF_STEREO_COUNT>
8

> <PUBCHEM_ATOM_UDEF_STEREO_COUNT>
0

> <PUBCHEM_BOND_DEF_STEREO_COUNT>
0

> <PUBCHEM_BOND_UDEF_STEREO_COUNT>
0

> <PUBCHEM_ISOTOPIC_ATOM_COUNT>
0

> <PUBCHEM_COMPONENT_COUNT>
2

> <PUBCHEM_CACTVS_TAUTO_COUNT>
1

> <PUBCHEM_COORDINATE_TYPE>
1
5
255

> <PUBCHEM_BONDANNOTATIONS>
51  10  5
17  43  8
17  57  8
19  25  6
23  2  6
20  65  5
21  28  5
22  66  6
24  34  6
26  29  8
26  35  8
29  38  8
35  39  8
38  40  8
39  40  8
41  45  5
43  50  8
50  56  8
56  57  8
56  59  8
57  60  8
59  63  8
60  64  8
63  64  8

$$$$

