4083
  -OEChem-06251223522D

 43 45  0     1  0  0  0  0  0999 V2000
    9.2365    0.0922    0.0000 S   0  0  0  0  0  0  0  0  0  0  0  0
    6.5715   -1.9296    0.0000 O   0  0  0  0  0  0  0  0  0  0  0  0
    8.8764   -3.2201    0.0000 O   0  5  0  0  0  0  0  0  0  0  0  0
   10.5236   -2.6848    0.0000 O   0  0  0  0  0  0  0  0  0  0  0  0
    5.3442   -0.7264    0.0000 O   0  0  0  0  0  0  0  0  0  0  0  0
    8.2854   -1.2168    0.0000 N   0  0  0  0  0  0  0  0  0  0  0  0
    6.5715    0.4959    0.0000 N   0  0  0  0  0  0  0  0  0  0  0  0
    5.1602    1.9130    0.0000 N   0  0  0  0  0  0  0  0  0  0  0  0
    8.2854   -0.2169    0.0000 C   0  0  3  0  0  0  0  0  0  0  0  0
    9.8242   -0.7169    0.0000 C   0  0  0  0  0  0  0  0  0  0  0  0
    9.2365   -1.5259    0.0000 C   0  0  3  0  0  0  0  0  0  0  0  0
    7.2771   -0.2127    0.0000 C   0  0  3  0  0  0  0  0  0  0  0  0
    7.2771   -1.2210    0.0000 C   0  0  0  0  0  0  0  0  0  0  0  0
   10.6333   -0.1291    0.0000 C   0  0  0  0  0  0  0  0  0  0  0  0
   10.6333   -1.3046    0.0000 C   0  0  0  0  0  0  0  0  0  0  0  0
    9.5455   -2.4769    0.0000 C   0  0  0  0  0  0  0  0  0  0  0  0
    5.6050    0.2390    0.0000 C   0  0  0  0  0  0  0  0  0  0  0  0
    4.8994    0.9476    0.0000 C   0  0  3  0  0  0  0  0  0  0  0  0
    3.9329    0.6907    0.0000 C   0  0  0  0  0  0  0  0  0  0  0  0
    3.2273    1.3993    0.0000 C   0  0  0  0  0  0  0  0  0  0  0  0
    3.6721   -0.2746    0.0000 C   0  0  0  0  0  0  0  0  0  0  0  0
    2.2608    1.1425    0.0000 C   0  0  0  0  0  0  0  0  0  0  0  0
    2.7056   -0.5315    0.0000 C   0  0  0  0  0  0  0  0  0  0  0  0
    4.4545    2.6215    0.0000 C   0  0  0  0  0  0  0  0  0  0  0  0
    2.0000    0.1771    0.0000 C   0  0  0  0  0  0  0  0  0  0  0  0
    8.1542    0.6230    0.0000 H   0  0  0  0  0  0  0  0  0  0  0  0
    8.6354   -2.1269    0.0000 H   0  0  0  0  0  0  0  0  0  0  0  0
    6.4915   -0.5372    0.0000 H   0  0  0  0  0  0  0  0  0  0  0  0
   10.9977   -0.6307    0.0000 H   0  0  0  0  0  0  0  0  0  0  0  0
   11.1349    0.2354    0.0000 H   0  0  0  0  0  0  0  0  0  0  0  0
   10.2688    0.3725    0.0000 H   0  0  0  0  0  0  0  0  0  0  0  0
   10.2688   -1.8062    0.0000 H   0  0  0  0  0  0  0  0  0  0  0  0
   11.1349   -1.6691    0.0000 H   0  0  0  0  0  0  0  0  0  0  0  0
   10.9977   -0.8030    0.0000 H   0  0  0  0  0  0  0  0  0  0  0  0
    6.7332    1.0944    0.0000 H   0  0  0  0  0  0  0  0  0  0  0  0
    4.2996    1.5498    0.0000 H   0  0  0  0  0  0  0  0  0  0  0  0
    3.3890    1.9978    0.0000 H   0  0  0  0  0  0  0  0  0  0  0  0
    4.1096   -0.7140    0.0000 H   0  0  0  0  0  0  0  0  0  0  0  0
    1.8233    1.5818    0.0000 H   0  0  0  0  0  0  0  0  0  0  0  0
    2.5440   -1.1300    0.0000 H   0  0  0  0  0  0  0  0  0  0  0  0
    4.6162    3.2201    0.0000 H   0  0  0  0  0  0  0  0  0  0  0  0
    3.8553    2.4623    0.0000 H   0  0  0  0  0  0  0  0  0  0  0  0
    1.4008    0.0178    0.0000 H   0  0  0  0  0  0  0  0  0  0  0  0
  1  9  1  0  0  0  0
  1 10  1  0  0  0  0
  2 13  2  0  0  0  0
  3 16  1  0  0  0  0
  4 16  2  0  0  0  0
  5 17  2  0  0  0  0
  6  9  1  0  0  0  0
  6 11  1  0  0  0  0
  6 13  1  0  0  0  0
  7 12  1  0  0  0  0
  7 17  1  0  0  0  0
  7 35  1  0  0  0  0
  8 18  1  0  0  0  0
  8 24  2  0  0  0  0
  9 12  1  0  0  0  0
  9 26  1  0  0  0  0
 10 11  1  0  0  0  0
 10 14  1  0  0  0  0
 10 15  1  0  0  0  0
 11 16  1  0  0  0  0
 11 27  1  0  0  0  0
 12 13  1  0  0  0  0
 12 28  1  0  0  0  0
 14 29  1  0  0  0  0
 14 30  1  0  0  0  0
 14 31  1  0  0  0  0
 15 32  1  0  0  0  0
 15 33  1  0  0  0  0
 15 34  1  0  0  0  0
 17 18  1  0  0  0  0
 18 19  1  0  0  0  0
 18 36  1  0  0  0  0
 19 20  2  0  0  0  0
 19 21  1  0  0  0  0
 20 22  1  0  0  0  0
 20 37  1  0  0  0  0
 21 23  2  0  0  0  0
 21 38  1  0  0  0  0
 22 25  2  0  0  0  0
 22 39  1  0  0  0  0
 23 25  1  0  0  0  0
 23 40  1  0  0  0  0
 24 41  1  0  0  0  0
 24 42  1  0  0  0  0
 25 43  1  0  0  0  0
M  CHG  1   3  -1
M  END
> <PUBCHEM_COMPOUND_CID>
4083

> <PUBCHEM_COMPOUND_CANONICALIZED>
1

> <PUBCHEM_CACTVS_COMPLEXITY>
597

> <PUBCHEM_CACTVS_HBOND_ACCEPTOR>
6

> <PUBCHEM_CACTVS_HBOND_DONOR>
1

> <PUBCHEM_CACTVS_ROTATABLE_BOND>
4

> <PUBCHEM_CACTVS_SUBSKEYS>
AAADceB7OABAAAAAAAAAAAAAAABYAWAAAAAwAAAABYAAAAABAAAAHgQQAAAADCjF2ASyCIPAAAioAiHTHACCAABgABAIiIGIBIgKYDqglTGUIABklgC4iAcYiICOAAAAAAAAAAAAAAAAAAAAAAAAAAAAAA==

> <PUBCHEM_IUPAC_OPENEYE_NAME>
3,3-dimethyl-6-[[2-(methyleneamino)-2-phenyl-acetyl]amino]-7-oxo-4-thia-1-azabicyclo[3.2.0]heptane-2-carboxylate

> <PUBCHEM_IUPAC_CAS_NAME>
3,3-dimethyl-6-[[2-(methyleneamino)-1-oxo-2-phenylethyl]amino]-7-oxo-4-thia-1-azabicyclo[3.2.0]heptane-2-carboxylate

> <PUBCHEM_IUPAC_NAME>
3,3-dimethyl-6-[[2-(methylideneamino)-2-phenylacetyl]amino]-7-oxo-4-thia-1-azabicyclo[3.2.0]heptane-2-carboxylate

> <PUBCHEM_IUPAC_SYSTEMATIC_NAME>
3,3-dimethyl-6-[[2-(methylideneamino)-2-phenyl-ethanoyl]amino]-7-oxidanylidene-4-thia-1-azabicyclo[3.2.0]heptane-2-carboxylate

> <PUBCHEM_IUPAC_TRADITIONAL_NAME>
7-keto-3,3-dimethyl-6-[[2-(methyleneamino)-2-phenyl-acetyl]amino]-4-thia-1-azabicyclo[3.2.0]heptane-2-carboxylate

> <PUBCHEM_IUPAC_INCHI>
InChI=1S/C17H19N3O4S/c1-17(2)12(16(23)24)20-14(22)11(15(20)25-17)19-13(21)10(18-3)9-7-5-4-6-8-9/h4-8,10-12,15H,3H2,1-2H3,(H,19,21)(H,23,24)/p-1

> <PUBCHEM_IUPAC_INCHIKEY>
FZECHKJQHUVANE-UHFFFAOYSA-M

> <PUBCHEM_XLOGP3>
3.7

> <PUBCHEM_EXACT_MASS>
360.101802

> <PUBCHEM_MOLECULAR_FORMULA>
C17H18N3O4S-

> <PUBCHEM_MOLECULAR_WEIGHT>
360.40752

> <PUBCHEM_OPENEYE_CAN_SMILES>
CC1(C(N2C(S1)C(C2=O)NC(=O)C(C3=CC=CC=C3)N=C)C(=O)[O-])C

> <PUBCHEM_OPENEYE_ISO_SMILES>
CC1(C(N2C(S1)C(C2=O)NC(=O)C(C3=CC=CC=C3)N=C)C(=O)[O-])C

> <PUBCHEM_CACTVS_TPSA>
127

> <PUBCHEM_MONOISOTOPIC_WEIGHT>
360.101802

> <PUBCHEM_TOTAL_CHARGE>
-1

> <PUBCHEM_HEAVY_ATOM_COUNT>
25

> <PUBCHEM_ATOM_DEF_STEREO_COUNT>
0

> <PUBCHEM_ATOM_UDEF_STEREO_COUNT>
4

> <PUBCHEM_BOND_DEF_STEREO_COUNT>
0

> <PUBCHEM_BOND_UDEF_STEREO_COUNT>
0

> <PUBCHEM_ISOTOPIC_ATOM_COUNT>
0

> <PUBCHEM_COMPONENT_COUNT>
1

> <PUBCHEM_CACTVS_TAUTO_COUNT>
4

> <PUBCHEM_COORDINATE_TYPE>
1
5
255

> <PUBCHEM_BONDANNOTATIONS>
11  27  3
12  28  3
18  36  3
19  20  8
19  21  8
20  22  8
21  23  8
22  25  8
23  25  8
9  26  3

$$$$

