5303
  -OEChem-06261200382D

 61 65  0     1  0  0  0  0  0999 V2000
    7.9288   -1.6474    0.0000 O   0  0  0  0  0  0  0  0  0  0  0  0
    5.2710   -3.1958    0.0000 O   0  0  0  0  0  0  0  0  0  0  0  0
    2.5357   -2.6997    0.0000 O   0  0  0  0  0  0  0  0  0  0  0  0
    3.9686   -0.0307    0.0000 O   0  0  0  0  0  0  0  0  0  0  0  0
    9.1885    3.2259    0.0000 O   0  0  0  0  0  0  0  0  0  0  0  0
   10.9491    3.5016    0.0000 O   0  0  0  0  0  0  0  0  0  0  0  0
    7.9288   -0.6474    0.0000 C   0  0  3  0  0  0  0  0  0  0  0  0
    7.0628   -1.1474    0.0000 C   0  0  3  0  0  0  0  0  0  0  0  0
    7.9288    0.3526    0.0000 C   0  0  3  0  0  0  0  0  0  0  0  0
    6.1968   -0.6474    0.0000 C   0  0  3  0  0  0  0  0  0  0  0  0
    5.2868   -1.1542    0.0000 C   0  0  3  0  0  0  0  0  0  0  0  0
    5.2787   -2.1958    0.0000 C   0  0  3  0  0  0  0  0  0  0  0  0
    8.8750    0.6574    0.0000 C   0  0  3  0  0  0  0  0  0  0  0  0
    7.0628    0.8526    0.0000 C   0  0  0  0  0  0  0  0  0  0  0  0
    6.1968    0.3526    0.0000 C   0  0  0  0  0  0  0  0  0  0  0  0
    8.8750   -0.9521    0.0000 C   0  0  0  0  0  0  0  0  0  0  0  0
    7.0789   -2.1889    0.0000 C   0  0  0  0  0  0  0  0  0  0  0  0
    6.1808   -2.7166    0.0000 C   0  0  0  0  0  0  0  0  0  0  0  0
    9.4586   -0.1474    0.0000 C   0  0  0  0  0  0  0  0  0  0  0  0
    4.3599   -0.5901    0.0000 C   0  0  0  0  0  0  0  0  0  0  0  0
    7.9288    1.3526    0.0000 C   0  0  0  0  0  0  0  0  0  0  0  0
    4.3433   -2.7455    0.0000 C   0  0  0  0  0  0  0  0  0  0  0  0
    3.4120   -1.1181    0.0000 C   0  0  0  0  0  0  0  0  0  0  0  0
    3.4037   -2.2030    0.0000 C   0  0  3  0  0  0  0  0  0  0  0  0
    4.9520   -0.2119    0.0000 C   0  0  0  0  0  0  0  0  0  0  0  0
    9.1857    1.6079    0.0000 C   0  0  0  0  0  0  0  0  0  0  0  0
    8.5993    2.4179    0.0000 C   0  0  0  0  0  0  0  0  0  0  0  0
   10.1373    1.9152    0.0000 C   0  0  0  0  0  0  0  0  0  0  0  0
   10.1390    2.9152    0.0000 C   0  0  0  0  0  0  0  0  0  0  0  0
    7.6021   -1.4532    0.0000 H   0  0  0  0  0  0  0  0  0  0  0  0
    6.7337   -0.3374    0.0000 H   0  0  0  0  0  0  0  0  0  0  0  0
    9.4875    0.7536    0.0000 H   0  0  0  0  0  0  0  0  0  0  0  0
    7.4613    1.3276    0.0000 H   0  0  0  0  0  0  0  0  0  0  0  0
    6.6643    1.3276    0.0000 H   0  0  0  0  0  0  0  0  0  0  0  0
    5.9847    0.9352    0.0000 H   0  0  0  0  0  0  0  0  0  0  0  0
    5.5862    0.2450    0.0000 H   0  0  0  0  0  0  0  0  0  0  0  0
    8.6240   -1.5190    0.0000 H   0  0  0  0  0  0  0  0  0  0  0  0
    9.4124   -1.2613    0.0000 H   0  0  0  0  0  0  0  0  0  0  0  0
    7.2969   -2.7693    0.0000 H   0  0  0  0  0  0  0  0  0  0  0  0
    7.6880   -2.0734    0.0000 H   0  0  0  0  0  0  0  0  0  0  0  0
    5.7835   -3.1926    0.0000 H   0  0  0  0  0  0  0  0  0  0  0  0
    6.5818   -3.1895    0.0000 H   0  0  0  0  0  0  0  0  0  0  0  0
    9.9195   -0.5621    0.0000 H   0  0  0  0  0  0  0  0  0  0  0  0
    9.9195    0.2674    0.0000 H   0  0  0  0  0  0  0  0  0  0  0  0
    4.7681   -0.1235    0.0000 H   0  0  0  0  0  0  0  0  0  0  0  0
    3.9700   -0.1081    0.0000 H   0  0  0  0  0  0  0  0  0  0  0  0
    8.5488    1.3526    0.0000 H   0  0  0  0  0  0  0  0  0  0  0  0
    7.9288    1.9726    0.0000 H   0  0  0  0  0  0  0  0  0  0  0  0
    7.3088    1.3526    0.0000 H   0  0  0  0  0  0  0  0  0  0  0  0
    3.9460   -3.2215    0.0000 H   0  0  0  0  0  0  0  0  0  0  0  0
    4.7443   -3.2184    0.0000 H   0  0  0  0  0  0  0  0  0  0  0  0
    3.2075   -0.5328    0.0000 H   0  0  0  0  0  0  0  0  0  0  0  0
    2.8004   -1.2195    0.0000 H   0  0  0  0  0  0  0  0  0  0  0  0
    3.4025   -2.8230    0.0000 H   0  0  0  0  0  0  0  0  0  0  0  0
    8.4658   -1.9574    0.0000 H   0  0  0  0  0  0  0  0  0  0  0  0
    5.3542    0.2599    0.0000 H   0  0  0  0  0  0  0  0  0  0  0  0
    4.7317   -3.5016    0.0000 H   0  0  0  0  0  0  0  0  0  0  0  0
    8.1393    2.8336    0.0000 H   0  0  0  0  0  0  0  0  0  0  0  0
    8.1378    2.0038    0.0000 H   0  0  0  0  0  0  0  0  0  0  0  0
   10.6383    1.5500    0.0000 H   0  0  0  0  0  0  0  0  0  0  0  0
    2.0000   -2.3876    0.0000 H   0  0  0  0  0  0  0  0  0  0  0  0
  1  7  1  0  0  0  0
  1 55  1  0  0  0  0
  2 12  1  0  0  0  0
  2 57  1  0  0  0  0
  3 24  1  0  0  0  0
  3 61  1  0  0  0  0
  4 25  2  0  0  0  0
  5 27  1  0  0  0  0
  5 29  1  0  0  0  0
  6 29  2  0  0  0  0
  7  8  1  0  0  0  0
  7  9  1  0  0  0  0
  7 16  1  0  0  0  0
  8 10  1  0  0  0  0
  8 17  1  0  0  0  0
  8 30  1  0  0  0  0
  9 13  1  0  0  0  0
  9 14  1  0  0  0  0
  9 21  1  0  0  0  0
 10 11  1  0  0  0  0
 10 15  1  0  0  0  0
 10 31  1  0  0  0  0
 11 12  1  0  0  0  0
 11 20  1  0  0  0  0
 11 25  1  0  0  0  0
 12 18  1  0  0  0  0
 12 22  1  0  0  0  0
 13 19  1  0  0  0  0
 13 26  1  0  0  0  0
 13 32  1  0  0  0  0
 14 15  1  0  0  0  0
 14 33  1  0  0  0  0
 14 34  1  0  0  0  0
 15 35  1  0  0  0  0
 15 36  1  0  0  0  0
 16 19  1  0  0  0  0
 16 37  1  0  0  0  0
 16 38  1  0  0  0  0
 17 18  1  0  0  0  0
 17 39  1  0  0  0  0
 17 40  1  0  0  0  0
 18 41  1  0  0  0  0
 18 42  1  0  0  0  0
 19 43  1  0  0  0  0
 19 44  1  0  0  0  0
 20 23  1  0  0  0  0
 20 45  1  0  0  0  0
 20 46  1  0  0  0  0
 21 47  1  0  0  0  0
 21 48  1  0  0  0  0
 21 49  1  0  0  0  0
 22 24  1  0  0  0  0
 22 50  1  0  0  0  0
 22 51  1  0  0  0  0
 23 24  1  0  0  0  0
 23 52  1  0  0  0  0
 23 53  1  0  0  0  0
 24 54  1  0  0  0  0
 25 56  1  0  0  0  0
 26 27  1  0  0  0  0
 26 28  2  0  0  0  0
 27 58  1  0  0  0  0
 27 59  1  0  0  0  0
 28 29  1  0  0  0  0
 28 60  1  0  0  0  0
M  END
> <PUBCHEM_COMPOUND_CID>
5303

> <PUBCHEM_COMPOUND_CANONICALIZED>
1

> <PUBCHEM_CACTVS_COMPLEXITY>
777

> <PUBCHEM_CACTVS_HBOND_ACCEPTOR>
6

> <PUBCHEM_CACTVS_HBOND_DONOR>
3

> <PUBCHEM_CACTVS_ROTATABLE_BOND>
2

> <PUBCHEM_CACTVS_SUBSKEYS>
AAADcfB4OAAAAAAAAAAAAAAAAAAAAYIAAAAwYMAAAAAAAGDAAAAAGgAACAAAD1SggAICCAAABgCIAijSiAAAAAAgAAAACAEAAEgAFBYAIQACUAAFoAAIIQOI7PzPgAAAAAAAAADAAAYQADAAAYAADAAAAA==

> <PUBCHEM_IUPAC_OPENEYE_NAME>
3,5,14-trihydroxy-13-methyl-17-(5-oxo-2H-furan-3-yl)-2,3,4,6,7,8,9,11,12,15,16,17-dodecahydro-1H-cyclopenta[a]phenanthrene-10-carbaldehyde

> <PUBCHEM_IUPAC_CAS_NAME>
3,5,14-trihydroxy-13-methyl-17-(5-oxo-2H-furan-3-yl)-2,3,4,6,7,8,9,11,12,15,16,17-dodecahydro-1H-cyclopenta[a]phenanthrene-10-carboxaldehyde

> <PUBCHEM_IUPAC_NAME>
3,5,14-trihydroxy-13-methyl-17-(5-oxo-2H-furan-3-yl)-2,3,4,6,7,8,9,11,12,15,16,17-dodecahydro-1H-cyclopenta[a]phenanthrene-10-carbaldehyde

> <PUBCHEM_IUPAC_SYSTEMATIC_NAME>
13-methyl-3,5,14-tris(oxidanyl)-17-(5-oxidanylidene-2H-furan-3-yl)-2,3,4,6,7,8,9,11,12,15,16,17-dodecahydro-1H-cyclopenta[a]phenanthrene-10-carbaldehyde

> <PUBCHEM_IUPAC_TRADITIONAL_NAME>
3,5,14-trihydroxy-17-(5-keto-2H-furan-3-yl)-13-methyl-2,3,4,6,7,8,9,11,12,15,16,17-dodecahydro-1H-cyclopenta[a]phenanthrene-10-carbaldehyde

> <PUBCHEM_IUPAC_INCHI>
InChI=1S/C23H32O6/c1-20-6-3-17-18(4-8-22(27)11-15(25)2-7-21(17,22)13-24)23(20,28)9-5-16(20)14-10-19(26)29-12-14/h10,13,15-18,25,27-28H,2-9,11-12H2,1H3

> <PUBCHEM_IUPAC_INCHIKEY>
ODJLBQGVINUMMR-UHFFFAOYSA-N

> <PUBCHEM_XLOGP3>
0.6

> <PUBCHEM_EXACT_MASS>
404.219889

> <PUBCHEM_MOLECULAR_FORMULA>
C23H32O6

> <PUBCHEM_MOLECULAR_WEIGHT>
404.49658

> <PUBCHEM_OPENEYE_CAN_SMILES>
CC12CCC3C(C1(CCC2C4=CC(=O)OC4)O)CCC5(C3(CCC(C5)O)C=O)O

> <PUBCHEM_OPENEYE_ISO_SMILES>
CC12CCC3C(C1(CCC2C4=CC(=O)OC4)O)CCC5(C3(CCC(C5)O)C=O)O

> <PUBCHEM_CACTVS_TPSA>
104

> <PUBCHEM_MONOISOTOPIC_WEIGHT>
404.219889

> <PUBCHEM_TOTAL_CHARGE>
0

> <PUBCHEM_HEAVY_ATOM_COUNT>
29

> <PUBCHEM_ATOM_DEF_STEREO_COUNT>
0

> <PUBCHEM_ATOM_UDEF_STEREO_COUNT>
8

> <PUBCHEM_BOND_DEF_STEREO_COUNT>
0

> <PUBCHEM_BOND_UDEF_STEREO_COUNT>
0

> <PUBCHEM_ISOTOPIC_ATOM_COUNT>
0

> <PUBCHEM_COMPONENT_COUNT>
1

> <PUBCHEM_CACTVS_TAUTO_COUNT>
1

> <PUBCHEM_COORDINATE_TYPE>
1
5
255

> <PUBCHEM_BONDANNOTATIONS>
7  1  3
10  15  3
11  25  3
13  26  3
12  2  3
24  3  3
8  17  3
9  21  3

$$$$

