8244
  -OEChem-06261202412D

 66 68  0     0  0  0  0  0  0999 V2000
    3.0000    8.5421    0.0000 Cl  0  0  0  0  0  0  0  0  0  0  0  0
    0.0000    8.5421    0.0000 Cl  0  0  0  0  0  0  0  0  0  0  0  0
    8.9503   11.2921    0.0000 O   0  0  0  0  0  0  0  0  0  0  0  0
   10.6823    6.2921    0.0000 O   0  0  0  0  0  0  0  0  0  0  0  0
   11.6529   16.7866    0.0000 N   0  0  0  0  0  0  0  0  0  0  0  0
    7.9797    0.7976    0.0000 N   0  0  0  0  0  0  0  0  0  0  0  0
   10.6823   15.2921    0.0000 N   0  0  0  0  0  0  0  0  0  0  0  0
    8.9503    2.2921    0.0000 N   0  0  0  0  0  0  0  0  0  0  0  0
   12.4619   15.3854    0.0000 N   0  0  0  0  0  0  0  0  0  0  0  0
    7.1707    2.1988    0.0000 N   0  0  0  0  0  0  0  0  0  0  0  0
   10.6823   11.2921    0.0000 N   0  0  0  0  0  0  0  0  0  0  0  0
    8.9503    6.2921    0.0000 N   0  0  0  0  0  0  0  0  0  0  0  0
    7.0016    0.5897    0.0000 C   0  0  0  0  0  0  0  0  0  0  0  0
   12.6310   16.9945    0.0000 C   0  0  0  0  0  0  0  0  0  0  0  0
    6.5016    1.4557    0.0000 C   0  0  0  0  0  0  0  0  0  0  0  0
   13.1310   16.1285    0.0000 C   0  0  0  0  0  0  0  0  0  0  0  0
   11.5484   15.7921    0.0000 C   0  0  0  0  0  0  0  0  0  0  0  0
    8.0843    1.7921    0.0000 C   0  0  0  0  0  0  0  0  0  0  0  0
   10.6823   14.2921    0.0000 C   0  0  0  0  0  0  0  0  0  0  0  0
    8.9503    3.2921    0.0000 C   0  0  0  0  0  0  0  0  0  0  0  0
    8.9503    5.2921    0.0000 C   0  0  0  0  0  0  0  0  0  0  0  0
   10.6823   12.2921    0.0000 C   0  0  0  0  0  0  0  0  0  0  0  0
    9.8163    3.7921    0.0000 C   0  0  0  0  0  0  0  0  0  0  0  0
    9.8163   13.7921    0.0000 C   0  0  0  0  0  0  0  0  0  0  0  0
    8.0843    3.7921    0.0000 C   0  0  0  0  0  0  0  0  0  0  0  0
   11.5484   13.7921    0.0000 C   0  0  0  0  0  0  0  0  0  0  0  0
    9.8163   12.7921    0.0000 C   0  0  0  0  0  0  0  0  0  0  0  0
    9.8163    4.7921    0.0000 C   0  0  0  0  0  0  0  0  0  0  0  0
   11.5484   12.7921    0.0000 C   0  0  0  0  0  0  0  0  0  0  0  0
    8.0843    4.7921    0.0000 C   0  0  0  0  0  0  0  0  0  0  0  0
    9.8163    9.7921    0.0000 C   0  0  0  0  0  0  0  0  0  0  0  0
    9.8163    7.7921    0.0000 C   0  0  0  0  0  0  0  0  0  0  0  0
    9.8163   10.7921    0.0000 C   0  0  0  0  0  0  0  0  0  0  0  0
    9.8163    6.7921    0.0000 C   0  0  0  0  0  0  0  0  0  0  0  0
    8.9503    9.2921    0.0000 C   0  0  0  0  0  0  0  0  0  0  0  0
    8.9503    8.2921    0.0000 C   0  0  0  0  0  0  0  0  0  0  0  0
   10.6823    9.2921    0.0000 C   0  0  0  0  0  0  0  0  0  0  0  0
   10.6823    8.2921    0.0000 C   0  0  0  0  0  0  0  0  0  0  0  0
   13.1974   17.2467    0.0000 H   0  0  0  0  0  0  0  0  0  0  0  0
   12.4395   17.5842    0.0000 H   0  0  0  0  0  0  0  0  0  0  0  0
    6.4352    0.3375    0.0000 H   0  0  0  0  0  0  0  0  0  0  0  0
    7.1932    0.0000    0.0000 H   0  0  0  0  0  0  0  0  0  0  0  0
    6.0867    1.9164    0.0000 H   0  0  0  0  0  0  0  0  0  0  0  0
    6.0000    1.0912    0.0000 H   0  0  0  0  0  0  0  0  0  0  0  0
   13.5459   15.6677    0.0000 H   0  0  0  0  0  0  0  0  0  0  0  0
   13.6326   16.4929    0.0000 H   0  0  0  0  0  0  0  0  0  0  0  0
   11.1921   17.2015    0.0000 H   0  0  0  0  0  0  0  0  0  0  0  0
    8.4405    0.3827    0.0000 H   0  0  0  0  0  0  0  0  0  0  0  0
   10.1454   15.6021    0.0000 H   0  0  0  0  0  0  0  0  0  0  0  0
    9.4872    1.9821    0.0000 H   0  0  0  0  0  0  0  0  0  0  0  0
    9.2794   14.1021    0.0000 H   0  0  0  0  0  0  0  0  0  0  0  0
   10.3533    3.4821    0.0000 H   0  0  0  0  0  0  0  0  0  0  0  0
   12.0853   14.1021    0.0000 H   0  0  0  0  0  0  0  0  0  0  0  0
    7.5473    3.4821    0.0000 H   0  0  0  0  0  0  0  0  0  0  0  0
    9.2794   12.4821    0.0000 H   0  0  0  0  0  0  0  0  0  0  0  0
   10.3533    5.1021    0.0000 H   0  0  0  0  0  0  0  0  0  0  0  0
   12.0853   12.4821    0.0000 H   0  0  0  0  0  0  0  0  0  0  0  0
    7.5473    5.1021    0.0000 H   0  0  0  0  0  0  0  0  0  0  0  0
   11.2193   10.9821    0.0000 H   0  0  0  0  0  0  0  0  0  0  0  0
    8.4134    6.6021    0.0000 H   0  0  0  0  0  0  0  0  0  0  0  0
    8.4134    9.6021    0.0000 H   0  0  0  0  0  0  0  0  0  0  0  0
    8.4134    7.9821    0.0000 H   0  0  0  0  0  0  0  0  0  0  0  0
   11.2193    9.6021    0.0000 H   0  0  0  0  0  0  0  0  0  0  0  0
   11.2193    7.9821    0.0000 H   0  0  0  0  0  0  0  0  0  0  0  0
    4.0000    8.5421    0.0000 H   0  0  0  0  0  0  0  0  0  0  0  0
    1.0000    8.5421    0.0000 H   0  0  0  0  0  0  0  0  0  0  0  0
  1 65  1  0  0  0  0
  2 66  1  0  0  0  0
  3 33  2  0  0  0  0
  4 34  2  0  0  0  0
  5 14  1  0  0  0  0
  5 17  1  0  0  0  0
  5 47  1  0  0  0  0
  6 13  1  0  0  0  0
  6 18  1  0  0  0  0
  6 48  1  0  0  0  0
  7 17  1  0  0  0  0
  7 19  1  0  0  0  0
  7 49  1  0  0  0  0
  8 18  1  0  0  0  0
  8 20  1  0  0  0  0
  8 50  1  0  0  0  0
  9 16  1  0  0  0  0
  9 17  2  0  0  0  0
 10 15  1  0  0  0  0
 10 18  2  0  0  0  0
 11 22  1  0  0  0  0
 11 33  1  0  0  0  0
 11 59  1  0  0  0  0
 12 21  1  0  0  0  0
 12 34  1  0  0  0  0
 12 60  1  0  0  0  0
 13 15  1  0  0  0  0
 13 41  1  0  0  0  0
 13 42  1  0  0  0  0
 14 16  1  0  0  0  0
 14 39  1  0  0  0  0
 14 40  1  0  0  0  0
 15 43  1  0  0  0  0
 15 44  1  0  0  0  0
 16 45  1  0  0  0  0
 16 46  1  0  0  0  0
 19 24  2  0  0  0  0
 19 26  1  0  0  0  0
 20 23  2  0  0  0  0
 20 25  1  0  0  0  0
 21 28  2  0  0  0  0
 21 30  1  0  0  0  0
 22 27  2  0  0  0  0
 22 29  1  0  0  0  0
 23 28  1  0  0  0  0
 23 52  1  0  0  0  0
 24 27  1  0  0  0  0
 24 51  1  0  0  0  0
 25 30  2  0  0  0  0
 25 54  1  0  0  0  0
 26 29  2  0  0  0  0
 26 53  1  0  0  0  0
 27 55  1  0  0  0  0
 28 56  1  0  0  0  0
 29 57  1  0  0  0  0
 30 58  1  0  0  0  0
 31 33  1  0  0  0  0
 31 35  2  0  0  0  0
 31 37  1  0  0  0  0
 32 34  1  0  0  0  0
 32 36  2  0  0  0  0
 32 38  1  0  0  0  0
 35 36  1  0  0  0  0
 35 61  1  0  0  0  0
 36 62  1  0  0  0  0
 37 38  2  0  0  0  0
 37 63  1  0  0  0  0
 38 64  1  0  0  0  0
M  END
> <PUBCHEM_COMPOUND_CID>
8244

> <PUBCHEM_COMPOUND_CANONICALIZED>
1

> <PUBCHEM_CACTVS_COMPLEXITY>
754

> <PUBCHEM_CACTVS_HBOND_ACCEPTOR>
4

> <PUBCHEM_CACTVS_HBOND_DONOR>
8

> <PUBCHEM_CACTVS_ROTATABLE_BOND>
8

> <PUBCHEM_CACTVS_SUBSKEYS>
AAADceB78AAGAAAAAAAAAAAAAAAAAQIAAAAwYMAAAAAAAAABUAAAHgAQAAAADAjBmAQxwILAAACoAiVSdACCAAElAgAJiIEIZMiIYDLAnZGUIQholALIyacYiACOQACAAAAAAACAAQAAAAAAAAAAAAAAAA==

> <PUBCHEM_IUPAC_OPENEYE_NAME>
N1,N4-bis[4-(4,5-dihydro-1H-imidazol-2-ylamino)phenyl]terephthalamide dihydrochloride

> <PUBCHEM_IUPAC_CAS_NAME>
N1,N4-bis[4-(4,5-dihydro-1H-imidazol-2-ylamino)phenyl]benzene-1,4-dicarboxamide dihydrochloride

> <PUBCHEM_IUPAC_NAME>
1-N,4-N-bis[4-(4,5-dihydro-1H-imidazol-2-ylamino)phenyl]benzene-1,4-dicarboxamide dihydrochloride

> <PUBCHEM_IUPAC_SYSTEMATIC_NAME>
N1,N4-bis[4-(4,5-dihydro-1H-imidazol-2-ylamino)phenyl]benzene-1,4-dicarboxamide dihydrochloride

> <PUBCHEM_IUPAC_TRADITIONAL_NAME>
N,N'-bis[4-(2-imidazolin-2-ylamino)phenyl]terephthalamide dihydrochloride

> <PUBCHEM_IUPAC_INCHI>
InChI=1S/C26H26N8O2.2ClH/c35-23(31-19-5-9-21(10-6-19)33-25-27-13-14-28-25)17-1-2-18(4-3-17)24(36)32-20-7-11-22(12-8-20)34-26-29-15-16-30-26;;/h1-12H,13-16H2,(H,31,35)(H,32,36)(H2,27,28,33)(H2,29,30,34);2*1H

> <PUBCHEM_IUPAC_INCHIKEY>
LDKWVGSNUDHECR-UHFFFAOYSA-N

> <PUBCHEM_EXACT_MASS>
554.171228

> <PUBCHEM_MOLECULAR_FORMULA>
C26H28Cl2N8O2

> <PUBCHEM_MOLECULAR_WEIGHT>
555.45892

> <PUBCHEM_OPENEYE_CAN_SMILES>
C1CN=C(N1)NC2=CC=C(C=C2)NC(=O)C3=CC=C(C=C3)C(=O)NC4=CC=C(C=C4)NC5=NCCN5.Cl.Cl

> <PUBCHEM_OPENEYE_ISO_SMILES>
C1CN=C(N1)NC2=CC=C(C=C2)NC(=O)C3=CC=C(C=C3)C(=O)NC4=CC=C(C=C4)NC5=NCCN5.Cl.Cl

> <PUBCHEM_CACTVS_TPSA>
131

> <PUBCHEM_MONOISOTOPIC_WEIGHT>
554.171228

> <PUBCHEM_TOTAL_CHARGE>
0

> <PUBCHEM_HEAVY_ATOM_COUNT>
38

> <PUBCHEM_ATOM_DEF_STEREO_COUNT>
0

> <PUBCHEM_ATOM_UDEF_STEREO_COUNT>
0

> <PUBCHEM_BOND_DEF_STEREO_COUNT>
0

> <PUBCHEM_BOND_UDEF_STEREO_COUNT>
0

> <PUBCHEM_ISOTOPIC_ATOM_COUNT>
0

> <PUBCHEM_COMPONENT_COUNT>
3

> <PUBCHEM_CACTVS_TAUTO_COUNT>
10

> <PUBCHEM_COORDINATE_TYPE>
1
5
255

> <PUBCHEM_BONDANNOTATIONS>
19  24  8
19  26  8
20  23  8
20  25  8
21  28  8
21  30  8
22  27  8
22  29  8
23  28  8
24  27  8
25  30  8
26  29  8
31  35  8
31  37  8
32  36  8
32  38  8
35  36  8
37  38  8

$$$$

