13220
  -OEChem-06261207542D

 28 28  0     0  0  0  0  0  0999 V2000
    3.8660    1.8100    0.0000 O   0  0  0  0  0  0  0  0  0  0  0  0
    3.8660   -1.1900    0.0000 N   0  0  0  0  0  0  0  0  0  0  0  0
    3.0000   -0.6900    0.0000 C   0  0  0  0  0  0  0  0  0  0  0  0
    4.7320   -0.6900    0.0000 C   0  0  0  0  0  0  0  0  0  0  0  0
    4.7320    0.3100    0.0000 C   0  0  0  0  0  0  0  0  0  0  0  0
    3.0000    0.3100    0.0000 C   0  0  0  0  0  0  0  0  0  0  0  0
    3.8660    0.8100    0.0000 C   0  0  0  0  0  0  0  0  0  0  0  0
    2.0000   -0.6900    0.0000 C   0  0  0  0  0  0  0  0  0  0  0  0
    5.7320   -0.6900    0.0000 C   0  0  0  0  0  0  0  0  0  0  0  0
    5.2320   -1.5560    0.0000 C   0  0  0  0  0  0  0  0  0  0  0  0
    2.5000   -1.5560    0.0000 C   0  0  0  0  0  0  0  0  0  0  0  0
    3.8660   -1.8100    0.0000 H   0  0  0  0  0  0  0  0  0  0  0  0
    5.3426    0.2023    0.0000 H   0  0  0  0  0  0  0  0  0  0  0  0
    4.9441    0.8926    0.0000 H   0  0  0  0  0  0  0  0  0  0  0  0
    2.7880    0.8926    0.0000 H   0  0  0  0  0  0  0  0  0  0  0  0
    2.3894    0.2023    0.0000 H   0  0  0  0  0  0  0  0  0  0  0  0
    2.0000   -0.0700    0.0000 H   0  0  0  0  0  0  0  0  0  0  0  0
    1.3800   -0.6900    0.0000 H   0  0  0  0  0  0  0  0  0  0  0  0
    2.0000   -1.3100    0.0000 H   0  0  0  0  0  0  0  0  0  0  0  0
    5.7320   -1.3100    0.0000 H   0  0  0  0  0  0  0  0  0  0  0  0
    6.3520   -0.6900    0.0000 H   0  0  0  0  0  0  0  0  0  0  0  0
    5.7320   -0.0700    0.0000 H   0  0  0  0  0  0  0  0  0  0  0  0
    4.6951   -1.8660    0.0000 H   0  0  0  0  0  0  0  0  0  0  0  0
    5.5420   -2.0930    0.0000 H   0  0  0  0  0  0  0  0  0  0  0  0
    5.7690   -1.2460    0.0000 H   0  0  0  0  0  0  0  0  0  0  0  0
    1.9631   -1.2460    0.0000 H   0  0  0  0  0  0  0  0  0  0  0  0
    2.1900   -2.0930    0.0000 H   0  0  0  0  0  0  0  0  0  0  0  0
    3.0369   -1.8660    0.0000 H   0  0  0  0  0  0  0  0  0  0  0  0
  1  7  2  0  0  0  0
  2  3  1  0  0  0  0
  2  4  1  0  0  0  0
  2 12  1  0  0  0  0
  3  6  1  0  0  0  0
  3  8  1  0  0  0  0
  3 11  1  0  0  0  0
  4  5  1  0  0  0  0
  4  9  1  0  0  0  0
  4 10  1  0  0  0  0
  5  7  1  0  0  0  0
  5 13  1  0  0  0  0
  5 14  1  0  0  0  0
  6  7  1  0  0  0  0
  6 15  1  0  0  0  0
  6 16  1  0  0  0  0
  8 17  1  0  0  0  0
  8 18  1  0  0  0  0
  8 19  1  0  0  0  0
  9 20  1  0  0  0  0
  9 21  1  0  0  0  0
  9 22  1  0  0  0  0
 10 23  1  0  0  0  0
 10 24  1  0  0  0  0
 10 25  1  0  0  0  0
 11 26  1  0  0  0  0
 11 27  1  0  0  0  0
 11 28  1  0  0  0  0
M  END
> <PUBCHEM_COMPOUND_CID>
13220

> <PUBCHEM_COMPOUND_CANONICALIZED>
1

> <PUBCHEM_CACTVS_COMPLEXITY>
164

> <PUBCHEM_CACTVS_HBOND_ACCEPTOR>
2

> <PUBCHEM_CACTVS_HBOND_DONOR>
1

> <PUBCHEM_CACTVS_ROTATABLE_BOND>
0

> <PUBCHEM_CACTVS_SUBSKEYS>
AAADceByIAAAAAAAAAAAAAAAAAAAAAAAAAAsAAAAAAAAAAAAAAAAHgAQAAAADIyBgAACAALAAAAIAIAQAAAAAAAAAAAAAAEAAAAAABoAgAAEAAAAEACAAAEQgEAMAAAAAAAAAAAAAAAAAAAAAAAAAAAAAA==

> <PUBCHEM_IUPAC_OPENEYE_NAME>
2,2,6,6-tetramethylpiperidin-4-one

> <PUBCHEM_IUPAC_CAS_NAME>
2,2,6,6-tetramethyl-4-piperidinone

> <PUBCHEM_IUPAC_NAME>
2,2,6,6-tetramethylpiperidin-4-one

> <PUBCHEM_IUPAC_SYSTEMATIC_NAME>
2,2,6,6-tetramethylpiperidin-4-one

> <PUBCHEM_IUPAC_TRADITIONAL_NAME>
2,2,6,6-tetramethyl-4-piperidone

> <PUBCHEM_IUPAC_INCHI>
InChI=1S/C9H17NO/c1-8(2)5-7(11)6-9(3,4)10-8/h10H,5-6H2,1-4H3

> <PUBCHEM_IUPAC_INCHIKEY>
JWUXJYZVKZKLTJ-UHFFFAOYSA-N

> <PUBCHEM_XLOGP3_AA>
0.5

> <PUBCHEM_EXACT_MASS>
155.131014

> <PUBCHEM_MOLECULAR_FORMULA>
C9H17NO

> <PUBCHEM_MOLECULAR_WEIGHT>
155.23738

> <PUBCHEM_OPENEYE_CAN_SMILES>
CC1(CC(=O)CC(N1)(C)C)C

> <PUBCHEM_OPENEYE_ISO_SMILES>
CC1(CC(=O)CC(N1)(C)C)C

> <PUBCHEM_CACTVS_TPSA>
29.1

> <PUBCHEM_MONOISOTOPIC_WEIGHT>
155.131014

> <PUBCHEM_TOTAL_CHARGE>
0

> <PUBCHEM_HEAVY_ATOM_COUNT>
11

> <PUBCHEM_ATOM_DEF_STEREO_COUNT>
0

> <PUBCHEM_ATOM_UDEF_STEREO_COUNT>
0

> <PUBCHEM_BOND_DEF_STEREO_COUNT>
0

> <PUBCHEM_BOND_UDEF_STEREO_COUNT>
0

> <PUBCHEM_ISOTOPIC_ATOM_COUNT>
0

> <PUBCHEM_COMPONENT_COUNT>
1

> <PUBCHEM_CACTVS_TAUTO_COUNT>
2

> <PUBCHEM_COORDINATE_TYPE>
1
5
255

$$$$

