17395751
  -OEChem-06241222522D

 45 48  0     0  0  0  0  0  0999 V2000
    3.5862   -1.5921    0.0000 S   0  0  0  0  0  0  0  0  0  0  0  0
    4.4522   -3.0921    0.0000 N   0  0  0  0  0  0  0  0  0  0  0  0
    3.9522    2.4467    0.0000 N   0  0  0  0  0  0  0  0  0  0  0  0
    5.3182   -1.5921    0.0000 N   0  0  0  0  0  0  0  0  0  0  0  0
    5.3182   -0.5921    0.0000 N   0  0  0  0  0  0  0  0  0  0  0  0
    2.3644    3.2557    0.0000 N   0  0  0  0  0  0  0  0  0  0  0  0
    3.6734    4.2068    0.0000 N   0  0  0  0  0  0  0  0  0  0  0  0
    2.0554    4.2068    0.0000 N   0  0  0  0  0  0  0  0  0  0  0  0
    5.3182   -3.5921    0.0000 C   0  0  0  0  0  0  0  0  0  0  0  0
    5.4228   -4.5867    0.0000 C   0  0  0  0  0  0  0  0  0  0  0  0
    6.2318   -3.1854    0.0000 C   0  0  0  0  0  0  0  0  0  0  0  0
    6.4009   -4.7946    0.0000 C   0  0  0  0  0  0  0  0  0  0  0  0
    6.9009   -3.9285    0.0000 C   0  0  0  0  0  0  0  0  0  0  0  0
    4.4522   -2.0921    0.0000 C   0  0  0  0  0  0  0  0  0  0  0  0
    4.4522    0.9079    0.0000 C   0  0  0  0  0  0  0  0  0  0  0  0
    3.6432    1.4956    0.0000 C   0  0  0  0  0  0  0  0  0  0  0  0
    4.4522   -0.0921    0.0000 C   0  0  0  0  0  0  0  0  0  0  0  0
    3.5862   -0.5921    0.0000 C   0  0  0  0  0  0  0  0  0  0  0  0
    4.9522    2.4467    0.0000 C   0  0  0  0  0  0  0  0  0  0  0  0
    5.2612    1.4956    0.0000 C   0  0  0  0  0  0  0  0  0  0  0  0
    2.6921    1.1866    0.0000 C   0  0  0  0  0  0  0  0  0  0  0  0
    3.3644    3.2557    0.0000 C   0  0  0  0  0  0  0  0  0  0  0  0
    5.5400    3.2557    0.0000 C   0  0  0  0  0  0  0  0  0  0  0  0
    2.8644    4.7946    0.0000 C   0  0  0  0  0  0  0  0  0  0  0  0
    4.7983   -3.9298    0.0000 H   0  0  0  0  0  0  0  0  0  0  0  0
    6.7334   -2.8210    0.0000 H   0  0  0  0  0  0  0  0  0  0  0  0
    5.9218   -2.6485    0.0000 H   0  0  0  0  0  0  0  0  0  0  0  0
    4.8028   -4.5867    0.0000 H   0  0  0  0  0  0  0  0  0  0  0  0
    5.3580   -5.2033    0.0000 H   0  0  0  0  0  0  0  0  0  0  0  0
    7.4025   -4.2930    0.0000 H   0  0  0  0  0  0  0  0  0  0  0  0
    7.3158   -3.4678    0.0000 H   0  0  0  0  0  0  0  0  0  0  0  0
    6.2093   -5.3842    0.0000 H   0  0  0  0  0  0  0  0  0  0  0  0
    6.9673   -5.0467    0.0000 H   0  0  0  0  0  0  0  0  0  0  0  0
    3.9153   -3.4021    0.0000 H   0  0  0  0  0  0  0  0  0  0  0  0
    3.3741   -0.0095    0.0000 H   0  0  0  0  0  0  0  0  0  0  0  0
    2.9756   -0.6998    0.0000 H   0  0  0  0  0  0  0  0  0  0  0  0
    5.8509    1.3041    0.0000 H   0  0  0  0  0  0  0  0  0  0  0  0
    2.5006    1.7763    0.0000 H   0  0  0  0  0  0  0  0  0  0  0  0
    2.1025    0.9950    0.0000 H   0  0  0  0  0  0  0  0  0  0  0  0
    2.8837    0.5970    0.0000 H   0  0  0  0  0  0  0  0  0  0  0  0
    6.0416    2.8913    0.0000 H   0  0  0  0  0  0  0  0  0  0  0  0
    5.9044    3.7573    0.0000 H   0  0  0  0  0  0  0  0  0  0  0  0
    5.0384    3.6202    0.0000 H   0  0  0  0  0  0  0  0  0  0  0  0
    2.0000    2.7541    0.0000 H   0  0  0  0  0  0  0  0  0  0  0  0
    2.8644    5.4146    0.0000 H   0  0  0  0  0  0  0  0  0  0  0  0
  1 14  1  0  0  0  0
  1 18  1  0  0  0  0
  2  9  1  0  0  0  0
  2 14  1  0  0  0  0
  2 34  1  0  0  0  0
  3 16  1  0  0  0  0
  3 19  1  0  0  0  0
  3 22  1  0  0  0  0
  4  5  1  0  0  0  0
  4 14  2  0  0  0  0
  5 17  2  0  0  0  0
  6  8  1  0  0  0  0
  6 22  1  0  0  0  0
  6 44  1  0  0  0  0
  7 22  2  0  0  0  0
  7 24  1  0  0  0  0
  8 24  2  0  0  0  0
  9 10  1  0  0  0  0
  9 11  1  0  0  0  0
  9 25  1  0  0  0  0
 10 12  1  0  0  0  0
 10 28  1  0  0  0  0
 10 29  1  0  0  0  0
 11 13  1  0  0  0  0
 11 26  1  0  0  0  0
 11 27  1  0  0  0  0
 12 13  1  0  0  0  0
 12 32  1  0  0  0  0
 12 33  1  0  0  0  0
 13 30  1  0  0  0  0
 13 31  1  0  0  0  0
 15 16  2  0  0  0  0
 15 17  1  0  0  0  0
 15 20  1  0  0  0  0
 16 21  1  0  0  0  0
 17 18  1  0  0  0  0
 18 35  1  0  0  0  0
 18 36  1  0  0  0  0
 19 20  2  0  0  0  0
 19 23  1  0  0  0  0
 20 37  1  0  0  0  0
 21 38  1  0  0  0  0
 21 39  1  0  0  0  0
 21 40  1  0  0  0  0
 23 41  1  0  0  0  0
 23 42  1  0  0  0  0
 23 43  1  0  0  0  0
 24 45  1  0  0  0  0
M  END
> <PUBCHEM_COMPOUND_CID>
17395751

> <PUBCHEM_COMPOUND_CANONICALIZED>
1

> <PUBCHEM_CACTVS_COMPLEXITY>
517

> <PUBCHEM_CACTVS_HBOND_ACCEPTOR>
5

> <PUBCHEM_CACTVS_HBOND_DONOR>
2

> <PUBCHEM_CACTVS_ROTATABLE_BOND>
4

> <PUBCHEM_CACTVS_SUBSKEYS>
AAADceB7gABAAAAAAAAAAAAAAAAAAeLEAAAgAAAAAAAAAAAB4AAAHAQYAAAADCjFXgS3kJfvEAiiAyRjZACSgCvxgrAF+KA4ZJiIKOLgmZGEAAhokALIyCcQAAAOAAAAAAAAAAAAAAAAAAAAAAAAAAAAAA==

> <PUBCHEM_IUPAC_OPENEYE_NAME>
N-cyclopentyl-5-[2,5-dimethyl-1-(1H-1,2,4-triazol-5-yl)pyrrol-3-yl]-6H-1,3,4-thiadiazin-2-amine

> <PUBCHEM_IUPAC_CAS_NAME>
N-cyclopentyl-5-[2,5-dimethyl-1-(1H-1,2,4-triazol-5-yl)-3-pyrrolyl]-6H-1,3,4-thiadiazin-2-amine

> <PUBCHEM_IUPAC_NAME>
N-cyclopentyl-5-[2,5-dimethyl-1-(1H-1,2,4-triazol-5-yl)pyrrol-3-yl]-6H-1,3,4-thiadiazin-2-amine

> <PUBCHEM_IUPAC_SYSTEMATIC_NAME>
N-cyclopentyl-5-[2,5-dimethyl-1-(1H-1,2,4-triazol-5-yl)pyrrol-3-yl]-6H-1,3,4-thiadiazin-2-amine

> <PUBCHEM_IUPAC_TRADITIONAL_NAME>
cyclopentyl-[5-[2,5-dimethyl-1-(1H-1,2,4-triazol-5-yl)pyrrol-3-yl]-6H-1,3,4-thiadiazin-2-yl]amine

> <PUBCHEM_IUPAC_INCHI>
InChI=1S/C16H21N7S/c1-10-7-13(11(2)23(10)15-17-9-18-21-15)14-8-24-16(22-20-14)19-12-5-3-4-6-12/h7,9,12H,3-6,8H2,1-2H3,(H,19,22)(H,17,18,21)

> <PUBCHEM_IUPAC_INCHIKEY>
LZJWBSCWJGLDIQ-UHFFFAOYSA-N

> <PUBCHEM_XLOGP3_AA>
3

> <PUBCHEM_EXACT_MASS>
343.157915

> <PUBCHEM_MOLECULAR_FORMULA>
C16H21N7S

> <PUBCHEM_MOLECULAR_WEIGHT>
343.44984

> <PUBCHEM_OPENEYE_CAN_SMILES>
CC1=CC(=C(N1C2=NC=NN2)C)C3=NN=C(SC3)NC4CCCC4

> <PUBCHEM_OPENEYE_ISO_SMILES>
CC1=CC(=C(N1C2=NC=NN2)C)C3=NN=C(SC3)NC4CCCC4

> <PUBCHEM_CACTVS_TPSA>
109

> <PUBCHEM_MONOISOTOPIC_WEIGHT>
343.157915

> <PUBCHEM_TOTAL_CHARGE>
0

> <PUBCHEM_HEAVY_ATOM_COUNT>
24

> <PUBCHEM_ATOM_DEF_STEREO_COUNT>
0

> <PUBCHEM_ATOM_UDEF_STEREO_COUNT>
0

> <PUBCHEM_BOND_DEF_STEREO_COUNT>
0

> <PUBCHEM_BOND_UDEF_STEREO_COUNT>
0

> <PUBCHEM_ISOTOPIC_ATOM_COUNT>
0

> <PUBCHEM_COMPONENT_COUNT>
1

> <PUBCHEM_CACTVS_TAUTO_COUNT>
6

> <PUBCHEM_COORDINATE_TYPE>
1
5
255

> <PUBCHEM_BONDANNOTATIONS>
15  16  8
15  20  8
19  20  8
3  16  8
3  19  8
6  22  8
6  8  8
7  22  8
7  24  8
8  24  8

$$$$

