6192
  -OEChem-06261201102D

 77 78  0     1  0  0  0  0  0999 V2000
    4.5429    0.0000    0.0000 I   0  5  0  0  0  0  0  0  0  0  0  0
    4.5429    2.5508    0.0000 I   0  5  0  0  0  0  0  0  0  0  0  0
    8.0560   10.8152    0.0000 N   0  3  0  0  0  0  0  0  0  0  0  0
    1.4061    6.5076    0.0000 N   0  3  0  0  0  0  0  0  0  0  0  0
    6.7992    9.5600    0.0000 C   0  0  1  0  0  0  0  0  0  0  0  0
    6.7992    8.5600    0.0000 C   0  0  3  0  0  0  0  0  0  0  0  0
    5.9331    8.0600    0.0000 C   0  0  1  0  0  0  0  0  0  0  0  0
    5.0671    8.5600    0.0000 C   0  0  3  0  0  0  0  0  0  0  0  0
    4.1571    8.0531    0.0000 C   0  0  2  0  0  0  0  0  0  0  0  0
    7.7454    9.8647    0.0000 C   0  0  1  0  0  0  0  0  0  0  0  0
    4.1491    7.0115    0.0000 C   0  0  1  0  0  0  0  0  0  0  0  0
    5.9331   10.0600    0.0000 C   0  0  0  0  0  0  0  0  0  0  0  0
    5.0671    9.5600    0.0000 C   0  0  0  0  0  0  0  0  0  0  0  0
    7.7454    8.2552    0.0000 C   0  0  0  0  0  0  0  0  0  0  0  0
    5.9492    7.0185    0.0000 C   0  0  0  0  0  0  0  0  0  0  0  0
    8.3290    9.0600    0.0000 C   0  0  0  0  0  0  0  0  0  0  0  0
    5.0512    6.4907    0.0000 C   0  0  0  0  0  0  0  0  0  0  0  0
    3.2303    8.6172    0.0000 C   0  0  0  0  0  0  0  0  0  0  0  0
    3.2136    6.4618    0.0000 C   0  0  0  0  0  0  0  0  0  0  0  0
    6.7992   10.5600    0.0000 C   0  0  0  0  0  0  0  0  0  0  0  0
    2.2740    7.0043    0.0000 C   0  0  1  0  0  0  0  0  0  0  0  0
    4.1648    9.0531    0.0000 C   0  0  0  0  0  0  0  0  0  0  0  0
    2.2824    8.0893    0.0000 C   0  0  0  0  0  0  0  0  0  0  0  0
    8.3667   11.7658    0.0000 C   0  0  0  0  0  0  0  0  0  0  0  0
    9.0066   10.5046    0.0000 C   0  0  0  0  0  0  0  0  0  0  0  0
    7.1055   11.1259    0.0000 C   0  0  0  0  0  0  0  0  0  0  0  0
    0.5381    6.0110    0.0000 C   0  0  0  0  0  0  0  0  0  0  0  0
    0.9094    7.3756    0.0000 C   0  0  0  0  0  0  0  0  0  0  0  0
    1.9027    5.6397    0.0000 C   0  0  0  0  0  0  0  0  0  0  0  0
    6.8648    7.9435    0.0000 H   0  0  0  0  0  0  0  0  0  0  0  0
    6.6725    7.6407    0.0000 H   0  0  0  0  0  0  0  0  0  0  0  0
    5.6040    8.8700    0.0000 H   0  0  0  0  0  0  0  0  0  0  0  0
    8.3579    9.9609    0.0000 H   0  0  0  0  0  0  0  0  0  0  0  0
    4.1524    6.1615    0.0000 H   0  0  0  0  0  0  0  0  0  0  0  0
    6.3317   10.5349    0.0000 H   0  0  0  0  0  0  0  0  0  0  0  0
    5.5346   10.5349    0.0000 H   0  0  0  0  0  0  0  0  0  0  0  0
    4.8550   10.1426    0.0000 H   0  0  0  0  0  0  0  0  0  0  0  0
    4.4565    9.4523    0.0000 H   0  0  0  0  0  0  0  0  0  0  0  0
    7.4943    7.6883    0.0000 H   0  0  0  0  0  0  0  0  0  0  0  0
    8.2828    7.9460    0.0000 H   0  0  0  0  0  0  0  0  0  0  0  0
    6.1672    6.4381    0.0000 H   0  0  0  0  0  0  0  0  0  0  0  0
    6.5583    7.1340    0.0000 H   0  0  0  0  0  0  0  0  0  0  0  0
    8.7899    8.6453    0.0000 H   0  0  0  0  0  0  0  0  0  0  0  0
    8.7899    9.4747    0.0000 H   0  0  0  0  0  0  0  0  0  0  0  0
    4.6538    6.0148    0.0000 H   0  0  0  0  0  0  0  0  0  0  0  0
    5.4521    6.0178    0.0000 H   0  0  0  0  0  0  0  0  0  0  0  0
    3.6385    9.0839    0.0000 H   0  0  0  0  0  0  0  0  0  0  0  0
    2.8404    9.0992    0.0000 H   0  0  0  0  0  0  0  0  0  0  0  0
    2.8164    5.9858    0.0000 H   0  0  0  0  0  0  0  0  0  0  0  0
    3.6146    5.9889    0.0000 H   0  0  0  0  0  0  0  0  0  0  0  0
    7.4192   10.5600    0.0000 H   0  0  0  0  0  0  0  0  0  0  0  0
    6.7992   11.1800    0.0000 H   0  0  0  0  0  0  0  0  0  0  0  0
    6.1792   10.5600    0.0000 H   0  0  0  0  0  0  0  0  0  0  0  0
    2.2728    6.3843    0.0000 H   0  0  0  0  0  0  0  0  0  0  0  0
    4.7848    9.0483    0.0000 H   0  0  0  0  0  0  0  0  0  0  0  0
    4.1696    9.6731    0.0000 H   0  0  0  0  0  0  0  0  0  0  0  0
    3.5448    9.0579    0.0000 H   0  0  0  0  0  0  0  0  0  0  0  0
    2.0778    8.6746    0.0000 H   0  0  0  0  0  0  0  0  0  0  0  0
    1.6707    7.9879    0.0000 H   0  0  0  0  0  0  0  0  0  0  0  0
    8.9560   11.5731    0.0000 H   0  0  0  0  0  0  0  0  0  0  0  0
    8.5593   12.3551    0.0000 H   0  0  0  0  0  0  0  0  0  0  0  0
    7.7774   11.9584    0.0000 H   0  0  0  0  0  0  0  0  0  0  0  0
    8.8140    9.9152    0.0000 H   0  0  0  0  0  0  0  0  0  0  0  0
    9.5959   10.3120    0.0000 H   0  0  0  0  0  0  0  0  0  0  0  0
    9.1992   11.0939    0.0000 H   0  0  0  0  0  0  0  0  0  0  0  0
    7.2981   11.7152    0.0000 H   0  0  0  0  0  0  0  0  0  0  0  0
    6.5162   11.3185    0.0000 H   0  0  0  0  0  0  0  0  0  0  0  0
    6.9129   10.5366    0.0000 H   0  0  0  0  0  0  0  0  0  0  0  0
    1.3646    5.3318    0.0000 H   0  0  0  0  0  0  0  0  0  0  0  0
    2.2107    5.1016    0.0000 H   0  0  0  0  0  0  0  0  0  0  0  0
    2.4409    5.9476    0.0000 H   0  0  0  0  0  0  0  0  0  0  0  0
    1.4475    7.6835    0.0000 H   0  0  0  0  0  0  0  0  0  0  0  0
    0.6015    7.9137    0.0000 H   0  0  0  0  0  0  0  0  0  0  0  0
    0.3713    7.0677    0.0000 H   0  0  0  0  0  0  0  0  0  0  0  0
    0.2302    6.5491    0.0000 H   0  0  0  0  0  0  0  0  0  0  0  0
    0.0000    5.7031    0.0000 H   0  0  0  0  0  0  0  0  0  0  0  0
    0.8461    5.4729    0.0000 H   0  0  0  0  0  0  0  0  0  0  0  0
 10  3  1  6  0  0  0
  3 24  1  0  0  0  0
  3 25  1  0  0  0  0
  3 26  1  0  0  0  0
 21  4  1  6  0  0  0
  4 27  1  0  0  0  0
  4 28  1  0  0  0  0
  4 29  1  0  0  0  0
  5  6  1  0  0  0  0
  5 10  1  0  0  0  0
  5 12  1  0  0  0  0
  5 20  1  1  0  0  0
  6  7  1  0  0  0  0
  6 14  1  0  0  0  0
  6 30  1  0  0  0  0
  7  8  1  0  0  0  0
  7 15  1  0  0  0  0
  7 31  1  1  0  0  0
  8  9  1  0  0  0  0
  8 13  1  0  0  0  0
  8 32  1  0  0  0  0
  9 11  1  0  0  0  0
  9 18  1  0  0  0  0
  9 22  1  1  0  0  0
 10 16  1  0  0  0  0
 10 33  1  0  0  0  0
 11 17  1  0  0  0  0
 11 19  1  0  0  0  0
 11 34  1  6  0  0  0
 12 13  1  0  0  0  0
 12 35  1  0  0  0  0
 12 36  1  0  0  0  0
 13 37  1  0  0  0  0
 13 38  1  0  0  0  0
 14 16  1  0  0  0  0
 14 39  1  0  0  0  0
 14 40  1  0  0  0  0
 15 17  1  0  0  0  0
 15 41  1  0  0  0  0
 15 42  1  0  0  0  0
 16 43  1  0  0  0  0
 16 44  1  0  0  0  0
 17 45  1  0  0  0  0
 17 46  1  0  0  0  0
 18 23  1  0  0  0  0
 18 47  1  0  0  0  0
 18 48  1  0  0  0  0
 19 21  1  0  0  0  0
 19 49  1  0  0  0  0
 19 50  1  0  0  0  0
 20 51  1  0  0  0  0
 20 52  1  0  0  0  0
 20 53  1  0  0  0  0
 21 23  1  0  0  0  0
 21 54  1  0  0  0  0
 22 55  1  0  0  0  0
 22 56  1  0  0  0  0
 22 57  1  0  0  0  0
 23 58  1  0  0  0  0
 23 59  1  0  0  0  0
 24 60  1  0  0  0  0
 24 61  1  0  0  0  0
 24 62  1  0  0  0  0
 25 63  1  0  0  0  0
 25 64  1  0  0  0  0
 25 65  1  0  0  0  0
 26 66  1  0  0  0  0
 26 67  1  0  0  0  0
 26 68  1  0  0  0  0
 27 75  1  0  0  0  0
 27 76  1  0  0  0  0
 27 77  1  0  0  0  0
 28 72  1  0  0  0  0
 28 73  1  0  0  0  0
 28 74  1  0  0  0  0
 29 69  1  0  0  0  0
 29 70  1  0  0  0  0
 29 71  1  0  0  0  0
M  CHG  4   1  -1   2  -1   3   1   4   1
M  END
> <PUBCHEM_COMPOUND_CID>
6192

> <PUBCHEM_COMPOUND_CANONICALIZED>
1

> <PUBCHEM_CACTVS_COMPLEXITY>
570

> <PUBCHEM_CACTVS_HBOND_ACCEPTOR>
2

> <PUBCHEM_CACTVS_HBOND_DONOR>
0

> <PUBCHEM_CACTVS_ROTATABLE_BOND>
2

> <PUBCHEM_CACTVS_SUBSKEYS>
AAADcfB7AAAAAwAAAAAAAAAAAAAAAYAAAAAwYMAAAAAAAGDAAAAAHAAAAAAADyjBAAQCAAMAAAAAAAAAAAAAAAAAAAAAAAAIAAAAAAIAgAAEAAAAAAAAAAEQgMAPgAAAAAAAAACQAASAACAAACAACQAAAA==

> <PUBCHEM_IUPAC_OPENEYE_NAME>
[(3R,5S,8R,10S,13S,17R)-10,13-dimethyl-3-(trimethylammonio)-2,3,4,5,6,7,8,9,11,12,14,15,16,17-tetradecahydro-1H-cyclopenta[a]phenanthren-17-yl]-trimethyl-ammonium diiodide

> <PUBCHEM_IUPAC_CAS_NAME>
[(3R,5S,8R,10S,13S,17R)-10,13-dimethyl-3-(trimethylammonio)-2,3,4,5,6,7,8,9,11,12,14,15,16,17-tetradecahydro-1H-cyclopenta[a]phenanthren-17-yl]-trimethylammonium diiodide

> <PUBCHEM_IUPAC_NAME>
[(3R,5S,8R,10S,13S,17R)-10,13-dimethyl-3-(trimethylazaniumyl)-2,3,4,5,6,7,8,9,11,12,14,15,16,17-tetradecahydro-1H-cyclopenta[a]phenanthren-17-yl]-trimethylazanium diiodide

> <PUBCHEM_IUPAC_SYSTEMATIC_NAME>
[(3R,5S,8R,10S,13S,17R)-10,13-dimethyl-3-(trimethylazaniumyl)-2,3,4,5,6,7,8,9,11,12,14,15,16,17-tetradecahydro-1H-cyclopenta[a]phenanthren-17-yl]-trimethyl-azanium diiodide

> <PUBCHEM_IUPAC_TRADITIONAL_NAME>
[(3R,5S,8R,10S,13S,17R)-10,13-dimethyl-3-(trimethylammonio)-2,3,4,5,6,7,8,9,11,12,14,15,16,17-tetradecahydro-1H-cyclopenta[a]phenanthren-17-yl]-trimethyl-ammonium diiodide

> <PUBCHEM_IUPAC_INCHI>
InChI=1S/C25H48N2.2HI/c1-24-15-13-19(26(3,4)5)17-18(24)9-10-20-21-11-12-23(27(6,7)8)25(21,2)16-14-22(20)24;;/h18-23H,9-17H2,1-8H3;2*1H/q+2;;/p-2/t18-,19+,20-,21?,22?,23+,24-,25-;;/m0../s1

> <PUBCHEM_IUPAC_INCHIKEY>
ZVIZSIIUKWNKPJ-VGFHXRMQSA-L

> <PUBCHEM_EXACT_MASS>
630.190696

> <PUBCHEM_MOLECULAR_FORMULA>
C25H48I2N2

> <PUBCHEM_MOLECULAR_WEIGHT>
630.47096

> <PUBCHEM_OPENEYE_CAN_SMILES>
CC12CCC(CC1CCC3C2CCC4(C3CCC4[N+](C)(C)C)C)[N+](C)(C)C.[I-].[I-]

> <PUBCHEM_OPENEYE_ISO_SMILES>
C[C@]12CC[C@H](C[C@@H]1CC[C@@H]3C2CC[C@]4(C3CC[C@H]4[N+](C)(C)C)C)[N+](C)(C)C.[I-].[I-]

> <PUBCHEM_CACTVS_TPSA>
0

> <PUBCHEM_MONOISOTOPIC_WEIGHT>
630.190696

> <PUBCHEM_TOTAL_CHARGE>
0

> <PUBCHEM_HEAVY_ATOM_COUNT>
29

> <PUBCHEM_ATOM_DEF_STEREO_COUNT>
6

> <PUBCHEM_ATOM_UDEF_STEREO_COUNT>
2

> <PUBCHEM_BOND_DEF_STEREO_COUNT>
0

> <PUBCHEM_BOND_UDEF_STEREO_COUNT>
0

> <PUBCHEM_ISOTOPIC_ATOM_COUNT>
0

> <PUBCHEM_COMPONENT_COUNT>
3

> <PUBCHEM_CACTVS_TAUTO_COUNT>
1

> <PUBCHEM_COORDINATE_TYPE>
1
5
255

> <PUBCHEM_BONDANNOTATIONS>
11  34  6
10  3  6
21  4  6
5  20  5
6  14  3
7  31  5
8  13  3
9  22  5

$$$$

