5039
  -OEChem-06261200292D

 43 43  0     0  0  0  0  0  0999 V2000
    7.0826   -1.1989    0.0000 S   0  0  0  0  0  0  0  0  0  0  0  0
    9.5858   -2.1468    0.0000 O   0  0  0  0  0  0  0  0  0  0  0  0
    3.3669    2.1468    0.0000 O   0  5  0  0  0  0  0  0  0  0  0  0
    2.2079    0.8596    0.0000 O   0  0  0  0  0  0  0  0  0  0  0  0
   12.0890   -1.1989    0.0000 N   0  0  0  0  0  0  0  0  0  0  0  0
    4.4374   -1.1478    0.0000 N   0  0  0  0  0  0  0  0  0  0  0  0
    2.7431   -0.7877    0.0000 N   0  0  0  0  0  0  0  0  0  0  0  0
    3.1590    1.1686    0.0000 N   0  3  0  0  0  0  0  0  0  0  0  0
   11.3459   -1.8680    0.0000 C   0  0  0  0  0  0  0  0  0  0  0  0
   10.3948   -1.5590    0.0000 C   0  0  0  0  0  0  0  0  0  0  0  0
    8.7768   -1.5590    0.0000 C   0  0  0  0  0  0  0  0  0  0  0  0
    7.8258   -1.8680    0.0000 C   0  0  0  0  0  0  0  0  0  0  0  0
   10.0858   -0.6079    0.0000 C   0  0  0  0  0  0  0  0  0  0  0  0
    9.0858   -0.6079    0.0000 C   0  0  0  0  0  0  0  0  0  0  0  0
    6.1316   -1.5079    0.0000 C   0  0  0  0  0  0  0  0  0  0  0  0
    5.3884   -0.8388    0.0000 C   0  0  0  0  0  0  0  0  0  0  0  0
   13.0401   -1.5079    0.0000 C   0  0  0  0  0  0  0  0  0  0  0  0
   11.8811   -0.2207    0.0000 C   0  0  0  0  0  0  0  0  0  0  0  0
    3.6942   -0.4786    0.0000 C   0  0  0  0  0  0  0  0  0  0  0  0
    3.9021    0.4995    0.0000 C   0  0  0  0  0  0  0  0  0  0  0  0
    2.0000   -0.1185    0.0000 C   0  0  0  0  0  0  0  0  0  0  0  0
   11.0548   -2.4154    0.0000 H   0  0  0  0  0  0  0  0  0  0  0  0
   11.8345   -2.2497    0.0000 H   0  0  0  0  0  0  0  0  0  0  0  0
    7.3372   -2.2497    0.0000 H   0  0  0  0  0  0  0  0  0  0  0  0
    8.1168   -2.4154    0.0000 H   0  0  0  0  0  0  0  0  0  0  0  0
   10.4502   -0.1063    0.0000 H   0  0  0  0  0  0  0  0  0  0  0  0
    5.6430   -1.8896    0.0000 H   0  0  0  0  0  0  0  0  0  0  0  0
    6.4226   -2.0553    0.0000 H   0  0  0  0  0  0  0  0  0  0  0  0
    8.7214   -0.1063    0.0000 H   0  0  0  0  0  0  0  0  0  0  0  0
    5.8770   -0.4571    0.0000 H   0  0  0  0  0  0  0  0  0  0  0  0
    5.0973   -0.2913    0.0000 H   0  0  0  0  0  0  0  0  0  0  0  0
   12.4876   -0.0918    0.0000 H   0  0  0  0  0  0  0  0  0  0  0  0
   11.7522    0.3857    0.0000 H   0  0  0  0  0  0  0  0  0  0  0  0
   11.2747   -0.3496    0.0000 H   0  0  0  0  0  0  0  0  0  0  0  0
   12.8485   -2.0976    0.0000 H   0  0  0  0  0  0  0  0  0  0  0  0
   13.6298   -1.6995    0.0000 H   0  0  0  0  0  0  0  0  0  0  0  0
   13.2317   -0.9182    0.0000 H   0  0  0  0  0  0  0  0  0  0  0  0
    4.3084   -1.7542    0.0000 H   0  0  0  0  0  0  0  0  0  0  0  0
    2.6142   -1.3941    0.0000 H   0  0  0  0  0  0  0  0  0  0  0  0
    4.4918    0.6911    0.0000 H   0  0  0  0  0  0  0  0  0  0  0  0
    2.4149    0.3422    0.0000 H   0  0  0  0  0  0  0  0  0  0  0  0
    1.5392    0.2963    0.0000 H   0  0  0  0  0  0  0  0  0  0  0  0
    1.5851   -0.5793    0.0000 H   0  0  0  0  0  0  0  0  0  0  0  0
  1 12  1  0  0  0  0
  1 15  1  0  0  0  0
  2 10  1  0  0  0  0
  2 11  1  0  0  0  0
  3  8  1  0  0  0  0
  4  8  2  0  0  0  0
  5  9  1  0  0  0  0
  5 17  1  0  0  0  0
  5 18  1  0  0  0  0
  6 16  1  0  0  0  0
  6 19  1  0  0  0  0
  6 38  1  0  0  0  0
  7 19  1  0  0  0  0
  7 21  1  0  0  0  0
  7 39  1  0  0  0  0
  8 20  1  0  0  0  0
  9 10  1  0  0  0  0
  9 22  1  0  0  0  0
  9 23  1  0  0  0  0
 10 13  2  0  0  0  0
 11 12  1  0  0  0  0
 11 14  2  0  0  0  0
 12 24  1  0  0  0  0
 12 25  1  0  0  0  0
 13 14  1  0  0  0  0
 13 26  1  0  0  0  0
 14 29  1  0  0  0  0
 15 16  1  0  0  0  0
 15 27  1  0  0  0  0
 15 28  1  0  0  0  0
 16 30  1  0  0  0  0
 16 31  1  0  0  0  0
 17 35  1  0  0  0  0
 17 36  1  0  0  0  0
 17 37  1  0  0  0  0
 18 32  1  0  0  0  0
 18 33  1  0  0  0  0
 18 34  1  0  0  0  0
 19 20  2  3  0  0  0
 20 40  1  0  0  0  0
 21 41  1  0  0  0  0
 21 42  1  0  0  0  0
 21 43  1  0  0  0  0
M  CHG  2   3  -1   8   1
M  END
> <PUBCHEM_COMPOUND_CID>
5039

> <PUBCHEM_COMPOUND_CANONICALIZED>
1

> <PUBCHEM_CACTVS_COMPLEXITY>
347

> <PUBCHEM_CACTVS_HBOND_ACCEPTOR>
7

> <PUBCHEM_CACTVS_HBOND_DONOR>
2

> <PUBCHEM_CACTVS_ROTATABLE_BOND>
9

> <PUBCHEM_CACTVS_SUBSKEYS>
AAADceBzsABAAAAAAAAAAAAAAAAAASAAAAAAAAAAAAAAAAABgAAAHgQUAAAACATF0ASzBIPQREiJAKBWQwCCCAAkIhAIiIGODMiOJjKktTuHGSjs0BM4qYeYEQIAAAAAAAAAAAAAAAAAAAAAAAAAAAAAAA==

> <PUBCHEM_IUPAC_OPENEYE_NAME>
N1'-[2-[[5-[(dimethylamino)methyl]-2-furyl]methylsulfanyl]ethyl]-N1-methyl-2-nitro-ethene-1,1-diamine

> <PUBCHEM_IUPAC_CAS_NAME>
N1'-[2-[[5-[(dimethylamino)methyl]-2-furanyl]methylthio]ethyl]-N1-methyl-2-nitroethene-1,1-diamine

> <PUBCHEM_IUPAC_NAME>
1-N'-[2-[[5-[(dimethylamino)methyl]furan-2-yl]methylsulfanyl]ethyl]-1-N-methyl-2-nitroethene-1,1-diamine

> <PUBCHEM_IUPAC_SYSTEMATIC_NAME>
N1'-[2-[[5-[(dimethylamino)methyl]furan-2-yl]methylsulfanyl]ethyl]-N1-methyl-2-nitro-ethene-1,1-diamine

> <PUBCHEM_IUPAC_TRADITIONAL_NAME>
dimethyl-[[5-[[2-[[1-(methylamino)-2-nitro-vinyl]amino]ethylthio]methyl]-2-furyl]methyl]amine

> <PUBCHEM_IUPAC_INCHI>
InChI=1S/C13H22N4O3S/c1-14-13(9-17(18)19)15-6-7-21-10-12-5-4-11(20-12)8-16(2)3/h4-5,9,14-15H,6-8,10H2,1-3H3

> <PUBCHEM_IUPAC_INCHIKEY>
VMXUWOKSQNHOCA-UHFFFAOYSA-N

> <PUBCHEM_XLOGP3>
0.3

> <PUBCHEM_EXACT_MASS>
314.141262

> <PUBCHEM_MOLECULAR_FORMULA>
C13H22N4O3S

> <PUBCHEM_MOLECULAR_WEIGHT>
314.40378

> <PUBCHEM_OPENEYE_CAN_SMILES>
CNC(=C[N+](=O)[O-])NCCSCC1=CC=C(O1)CN(C)C

> <PUBCHEM_OPENEYE_ISO_SMILES>
CNC(=C[N+](=O)[O-])NCCSCC1=CC=C(O1)CN(C)C

> <PUBCHEM_CACTVS_TPSA>
112

> <PUBCHEM_MONOISOTOPIC_WEIGHT>
314.141262

> <PUBCHEM_TOTAL_CHARGE>
0

> <PUBCHEM_HEAVY_ATOM_COUNT>
21

> <PUBCHEM_ATOM_DEF_STEREO_COUNT>
0

> <PUBCHEM_ATOM_UDEF_STEREO_COUNT>
0

> <PUBCHEM_BOND_DEF_STEREO_COUNT>
0

> <PUBCHEM_BOND_UDEF_STEREO_COUNT>
1

> <PUBCHEM_ISOTOPIC_ATOM_COUNT>
0

> <PUBCHEM_COMPONENT_COUNT>
1

> <PUBCHEM_CACTVS_TAUTO_COUNT>
2

> <PUBCHEM_COORDINATE_TYPE>
1
5
255

> <PUBCHEM_BONDANNOTATIONS>
10  13  8
11  14  8
13  14  8
19  20  1
2  10  8
2  11  8

$$$$

