17395273
  -OEChem-06241222492D

 38 39  0     1  0  0  0  0  0999 V2000
    6.2619    0.3183    0.0000 S   0  0  0  0  0  0  0  0  0  0  0  0
    8.2619    0.3183    0.0000 O   0  0  0  0  0  0  0  0  0  0  0  0
    4.6783    1.1230    0.0000 N   0  0  0  0  0  0  0  0  0  0  0  0
    4.6783   -0.4864    0.0000 N   0  0  0  0  0  0  0  0  0  0  0  0
    8.2619   -1.4138    0.0000 N   0  0  0  0  0  0  0  0  0  0  0  0
    3.7320    0.8183    0.0000 C   0  0  0  0  0  0  0  0  0  0  0  0
    5.2619    0.3183    0.0000 C   0  0  0  0  0  0  0  0  0  0  0  0
    4.9889    2.0736    0.0000 C   0  0  0  0  0  0  0  0  0  0  0  0
    3.7320   -0.1817    0.0000 C   0  0  0  0  0  0  0  0  0  0  0  0
    6.7619   -0.5477    0.0000 C   0  0  3  0  0  0  0  0  0  0  0  0
    2.8660    1.3183    0.0000 C   0  0  0  0  0  0  0  0  0  0  0  0
    2.8660   -0.6817    0.0000 C   0  0  0  0  0  0  0  0  0  0  0  0
    5.9674    2.2798    0.0000 C   0  0  0  0  0  0  0  0  0  0  0  0
    7.7619   -0.5477    0.0000 C   0  0  0  0  0  0  0  0  0  0  0  0
    6.2619   -1.4138    0.0000 C   0  0  0  0  0  0  0  0  0  0  0  0
    2.0000    0.8183    0.0000 C   0  0  0  0  0  0  0  0  0  0  0  0
    2.0000   -0.1817    0.0000 C   0  0  0  0  0  0  0  0  0  0  0  0
    9.2619   -1.4138    0.0000 C   0  0  0  0  0  0  0  0  0  0  0  0
    9.7619   -2.2798    0.0000 C   0  0  0  0  0  0  0  0  0  0  0  0
    4.9684    2.6932    0.0000 H   0  0  0  0  0  0  0  0  0  0  0  0
    4.3751    2.1609    0.0000 H   0  0  0  0  0  0  0  0  0  0  0  0
    6.1419   -0.5477    0.0000 H   0  0  0  0  0  0  0  0  0  0  0  0
    2.8660    1.9383    0.0000 H   0  0  0  0  0  0  0  0  0  0  0  0
    2.8660   -1.3017    0.0000 H   0  0  0  0  0  0  0  0  0  0  0  0
    6.0953    1.6731    0.0000 H   0  0  0  0  0  0  0  0  0  0  0  0
    6.5741    2.4076    0.0000 H   0  0  0  0  0  0  0  0  0  0  0  0
    5.8396    2.8864    0.0000 H   0  0  0  0  0  0  0  0  0  0  0  0
    5.7249   -1.1038    0.0000 H   0  0  0  0  0  0  0  0  0  0  0  0
    5.9519   -1.9507    0.0000 H   0  0  0  0  0  0  0  0  0  0  0  0
    6.7988   -1.7238    0.0000 H   0  0  0  0  0  0  0  0  0  0  0  0
    1.4631    1.1283    0.0000 H   0  0  0  0  0  0  0  0  0  0  0  0
    1.4631   -0.4917    0.0000 H   0  0  0  0  0  0  0  0  0  0  0  0
    7.9519   -1.9507    0.0000 H   0  0  0  0  0  0  0  0  0  0  0  0
    9.8445   -1.2017    0.0000 H   0  0  0  0  0  0  0  0  0  0  0  0
    9.1542   -0.8032    0.0000 H   0  0  0  0  0  0  0  0  0  0  0  0
    9.2249   -2.5898    0.0000 H   0  0  0  0  0  0  0  0  0  0  0  0
   10.0719   -2.8167    0.0000 H   0  0  0  0  0  0  0  0  0  0  0  0
   10.2988   -1.9698    0.0000 H   0  0  0  0  0  0  0  0  0  0  0  0
  1  7  1  0  0  0  0
  1 10  1  0  0  0  0
  2 14  2  0  0  0  0
  3  6  1  0  0  0  0
  3  7  1  0  0  0  0
  3  8  1  0  0  0  0
  4  7  2  0  0  0  0
  4  9  1  0  0  0  0
  5 14  1  0  0  0  0
  5 18  1  0  0  0  0
  5 33  1  0  0  0  0
  6  9  1  0  0  0  0
  6 11  2  0  0  0  0
  8 13  1  0  0  0  0
  8 20  1  0  0  0  0
  8 21  1  0  0  0  0
  9 12  2  0  0  0  0
 10 14  1  0  0  0  0
 10 15  1  0  0  0  0
 10 22  1  0  0  0  0
 11 16  1  0  0  0  0
 11 23  1  0  0  0  0
 12 17  1  0  0  0  0
 12 24  1  0  0  0  0
 13 25  1  0  0  0  0
 13 26  1  0  0  0  0
 13 27  1  0  0  0  0
 15 28  1  0  0  0  0
 15 29  1  0  0  0  0
 15 30  1  0  0  0  0
 16 17  2  0  0  0  0
 16 31  1  0  0  0  0
 17 32  1  0  0  0  0
 18 19  1  0  0  0  0
 18 34  1  0  0  0  0
 18 35  1  0  0  0  0
 19 36  1  0  0  0  0
 19 37  1  0  0  0  0
 19 38  1  0  0  0  0
M  END
> <PUBCHEM_COMPOUND_CID>
17395273

> <PUBCHEM_COMPOUND_CANONICALIZED>
1

> <PUBCHEM_CACTVS_COMPLEXITY>
313

> <PUBCHEM_CACTVS_HBOND_ACCEPTOR>
3

> <PUBCHEM_CACTVS_HBOND_DONOR>
1

> <PUBCHEM_CACTVS_ROTATABLE_BOND>
5

> <PUBCHEM_CACTVS_SUBSKEYS>
AAADceBzIABAAAAAAAAAAAAAAAAAAWAAAAAwAAAAAAAAAFgB8AAAHgQQAAAACAjF1gSz0LfMEAioASVydACC0C1hErAJ2KE4dJiIaKLAmZGUIAholgLIyCcQAAAAAAAAAAAAACAAAAAAAAAAQAAAAAAAAA==

> <PUBCHEM_IUPAC_OPENEYE_NAME>
N-ethyl-2-(1-ethylbenzimidazol-2-yl)sulfanyl-propanamide

> <PUBCHEM_IUPAC_CAS_NAME>
N-ethyl-2-[(1-ethyl-2-benzimidazolyl)thio]propanamide

> <PUBCHEM_IUPAC_NAME>
N-ethyl-2-(1-ethylbenzimidazol-2-yl)sulfanylpropanamide

> <PUBCHEM_IUPAC_SYSTEMATIC_NAME>
N-ethyl-2-(1-ethylbenzimidazol-2-yl)sulfanyl-propanamide

> <PUBCHEM_IUPAC_TRADITIONAL_NAME>
N-ethyl-2-[(1-ethylbenzimidazol-2-yl)thio]propionamide

> <PUBCHEM_IUPAC_INCHI>
InChI=1S/C14H19N3OS/c1-4-15-13(18)10(3)19-14-16-11-8-6-7-9-12(11)17(14)5-2/h6-10H,4-5H2,1-3H3,(H,15,18)

> <PUBCHEM_IUPAC_INCHIKEY>
ZFQFGUCXFJZDMU-UHFFFAOYSA-N

> <PUBCHEM_XLOGP3_AA>
2.7

> <PUBCHEM_EXACT_MASS>
277.124883

> <PUBCHEM_MOLECULAR_FORMULA>
C14H19N3OS

> <PUBCHEM_MOLECULAR_WEIGHT>
277.38516

> <PUBCHEM_OPENEYE_CAN_SMILES>
CCNC(=O)C(C)SC1=NC2=CC=CC=C2N1CC

> <PUBCHEM_OPENEYE_ISO_SMILES>
CCNC(=O)C(C)SC1=NC2=CC=CC=C2N1CC

> <PUBCHEM_CACTVS_TPSA>
72.2

> <PUBCHEM_MONOISOTOPIC_WEIGHT>
277.124883

> <PUBCHEM_TOTAL_CHARGE>
0

> <PUBCHEM_HEAVY_ATOM_COUNT>
19

> <PUBCHEM_ATOM_DEF_STEREO_COUNT>
0

> <PUBCHEM_ATOM_UDEF_STEREO_COUNT>
1

> <PUBCHEM_BOND_DEF_STEREO_COUNT>
0

> <PUBCHEM_BOND_UDEF_STEREO_COUNT>
0

> <PUBCHEM_ISOTOPIC_ATOM_COUNT>
0

> <PUBCHEM_COMPONENT_COUNT>
1

> <PUBCHEM_CACTVS_TAUTO_COUNT>
2

> <PUBCHEM_COORDINATE_TYPE>
1
5
255

> <PUBCHEM_BONDANNOTATIONS>
10  15  3
11  16  8
12  17  8
16  17  8
3  6  8
3  7  8
4  7  8
4  9  8
6  11  8
6  9  8
9  12  8

$$$$

