12831
  -OEChem-06261207252D

 28 29  0     0  0  0  0  0  0999 V2000
    2.0000   -1.2702    0.0000 O   0  0  0  0  0  0  0  0  0  0  0  0
    4.8479    0.7989    0.0000 O   0  0  0  0  0  0  0  0  0  0  0  0
    2.4912    2.5214    0.0000 O   0  0  0  0  0  0  0  0  0  0  0  0
    4.5691   -0.9612    0.0000 N   0  0  0  0  0  0  0  0  0  0  0  0
    3.2601   -0.0101    0.0000 N   0  0  0  0  0  0  0  0  0  0  0  0
    3.7601   -1.5490    0.0000 C   0  0  0  0  0  0  0  0  0  0  0  0
    4.5691   -2.1368    0.0000 C   0  0  0  0  0  0  0  0  0  0  0  0
    2.9511   -2.1368    0.0000 C   0  0  0  0  0  0  0  0  0  0  0  0
    4.2601   -3.0878    0.0000 C   0  0  0  0  0  0  0  0  0  0  0  0
    3.2601   -3.0878    0.0000 C   0  0  0  0  0  0  0  0  0  0  0  0
    2.9511   -0.9612    0.0000 C   0  0  0  0  0  0  0  0  0  0  0  0
    4.2601   -0.0101    0.0000 C   0  0  0  0  0  0  0  0  0  0  0  0
    2.6723    0.7989    0.0000 C   0  0  0  0  0  0  0  0  0  0  0  0
    3.0790    1.7124    0.0000 C   0  0  0  0  0  0  0  0  0  0  0  0
    5.1355   -2.3890    0.0000 H   0  0  0  0  0  0  0  0  0  0  0  0
    4.8791   -1.5998    0.0000 H   0  0  0  0  0  0  0  0  0  0  0  0
    2.6411   -1.5998    0.0000 H   0  0  0  0  0  0  0  0  0  0  0  0
    2.3847   -2.3890    0.0000 H   0  0  0  0  0  0  0  0  0  0  0  0
    4.1953   -3.7044    0.0000 H   0  0  0  0  0  0  0  0  0  0  0  0
    4.8665   -3.2167    0.0000 H   0  0  0  0  0  0  0  0  0  0  0  0
    2.6536   -3.2167    0.0000 H   0  0  0  0  0  0  0  0  0  0  0  0
    3.3249   -3.7044    0.0000 H   0  0  0  0  0  0  0  0  0  0  0  0
    5.1588   -1.1528    0.0000 H   0  0  0  0  0  0  0  0  0  0  0  0
    2.1583    1.1456    0.0000 H   0  0  0  0  0  0  0  0  0  0  0  0
    2.2416    0.3529    0.0000 H   0  0  0  0  0  0  0  0  0  0  0  0
    3.5930    1.3657    0.0000 H   0  0  0  0  0  0  0  0  0  0  0  0
    3.5097    2.1584    0.0000 H   0  0  0  0  0  0  0  0  0  0  0  0
    2.7434    3.0878    0.0000 H   0  0  0  0  0  0  0  0  0  0  0  0
  1 11  2  0  0  0  0
  2 12  2  0  0  0  0
  3 14  1  0  0  0  0
  3 28  1  0  0  0  0
  4  6  1  0  0  0  0
  4 12  1  0  0  0  0
  4 23  1  0  0  0  0
  5 11  1  0  0  0  0
  5 12  1  0  0  0  0
  5 13  1  0  0  0  0
  6  7  1  0  0  0  0
  6  8  1  0  0  0  0
  6 11  1  0  0  0  0
  7  9  1  0  0  0  0
  7 15  1  0  0  0  0
  7 16  1  0  0  0  0
  8 10  1  0  0  0  0
  8 17  1  0  0  0  0
  8 18  1  0  0  0  0
  9 10  1  0  0  0  0
  9 19  1  0  0  0  0
  9 20  1  0  0  0  0
 10 21  1  0  0  0  0
 10 22  1  0  0  0  0
 13 14  1  0  0  0  0
 13 24  1  0  0  0  0
 13 25  1  0  0  0  0
 14 26  1  0  0  0  0
 14 27  1  0  0  0  0
M  END
> <PUBCHEM_COMPOUND_CID>
12831

> <PUBCHEM_COMPOUND_CANONICALIZED>
1

> <PUBCHEM_CACTVS_COMPLEXITY>
271

> <PUBCHEM_CACTVS_HBOND_ACCEPTOR>
3

> <PUBCHEM_CACTVS_HBOND_DONOR>
2

> <PUBCHEM_CACTVS_ROTATABLE_BOND>
2

> <PUBCHEM_CACTVS_SUBSKEYS>
AAADccBzMAAAAAAAAAAAAAAAAAAAAeIAAAAAAAAAAAAAAAAAAAAAHgAQCAAADIjhgAYBAAPAAgAIAAEQEAAAAAAAAAAAAAGIAACCUBIAgCAUAAAIFyKQAAEYCAAOAAAAAAAAAAAAAAAAAAAAAAAAAAAAAA==

> <PUBCHEM_IUPAC_OPENEYE_NAME>
3-(2-hydroxyethyl)-1,3-diazaspiro[4.4]nonane-2,4-dione

> <PUBCHEM_IUPAC_CAS_NAME>
3-(2-hydroxyethyl)-1,3-diazaspiro[4.4]nonane-2,4-dione

> <PUBCHEM_IUPAC_NAME>
3-(2-hydroxyethyl)-1,3-diazaspiro[4.4]nonane-2,4-dione

> <PUBCHEM_IUPAC_SYSTEMATIC_NAME>
3-(2-hydroxyethyl)-1,3-diazaspiro[4.4]nonane-2,4-dione

> <PUBCHEM_IUPAC_TRADITIONAL_NAME>
3-(2-hydroxyethyl)-1,3-diazaspiro[4.4]nonane-2,4-quinone

> <PUBCHEM_IUPAC_INCHI>
InChI=1S/C9H14N2O3/c12-6-5-11-7(13)9(10-8(11)14)3-1-2-4-9/h12H,1-6H2,(H,10,14)

> <PUBCHEM_IUPAC_INCHIKEY>
SXUSSJBFZUZNSX-UHFFFAOYSA-N

> <PUBCHEM_XLOGP3_AA>
-0.5

> <PUBCHEM_EXACT_MASS>
198.100442

> <PUBCHEM_MOLECULAR_FORMULA>
C9H14N2O3

> <PUBCHEM_MOLECULAR_WEIGHT>
198.21906

> <PUBCHEM_OPENEYE_CAN_SMILES>
C1CCC2(C1)C(=O)N(C(=O)N2)CCO

> <PUBCHEM_OPENEYE_ISO_SMILES>
C1CCC2(C1)C(=O)N(C(=O)N2)CCO

> <PUBCHEM_CACTVS_TPSA>
69.6

> <PUBCHEM_MONOISOTOPIC_WEIGHT>
198.100442

> <PUBCHEM_TOTAL_CHARGE>
0

> <PUBCHEM_HEAVY_ATOM_COUNT>
14

> <PUBCHEM_ATOM_DEF_STEREO_COUNT>
0

> <PUBCHEM_ATOM_UDEF_STEREO_COUNT>
0

> <PUBCHEM_BOND_DEF_STEREO_COUNT>
0

> <PUBCHEM_BOND_UDEF_STEREO_COUNT>
0

> <PUBCHEM_ISOTOPIC_ATOM_COUNT>
0

> <PUBCHEM_COMPONENT_COUNT>
1

> <PUBCHEM_CACTVS_TAUTO_COUNT>
2

> <PUBCHEM_COORDINATE_TYPE>
1
5
255

$$$$

