582736
  -OEChem-06241222432D

 32 33  0     1  0  0  0  0  0999 V2000
    2.5369   -0.8100    0.0000 O   0  0  0  0  0  0  0  0  0  0  0  0
    3.4030    0.6900    0.0000 O   0  0  0  0  0  0  0  0  0  0  0  0
    3.4030   -3.3100    0.0000 O   0  0  0  0  0  0  0  0  0  0  0  0
    5.1350    2.6900    0.0000 N   0  0  0  0  0  0  0  0  0  0  0  0
    4.2690   -1.8100    0.0000 N   0  0  0  0  0  0  0  0  0  0  0  0
    5.1350    0.6900    0.0000 C   0  0  0  0  0  0  0  0  0  0  0  0
    5.1350   -0.3100    0.0000 C   0  0  0  0  0  0  0  0  0  0  0  0
    6.0010    1.1900    0.0000 C   0  0  0  0  0  0  0  0  0  0  0  0
    4.2690   -0.8100    0.0000 C   0  0  3  0  0  0  0  0  0  0  0  0
    6.0010    2.1900    0.0000 C   0  0  0  0  0  0  0  0  0  0  0  0
    4.2690    1.1900    0.0000 C   0  0  0  0  0  0  0  0  0  0  0  0
    4.2690    2.1900    0.0000 C   0  0  0  0  0  0  0  0  0  0  0  0
    6.8950    0.6553    0.0000 C   0  0  0  0  0  0  0  0  0  0  0  0
    6.8950    2.7247    0.0000 C   0  0  0  0  0  0  0  0  0  0  0  0
    3.4030   -0.3100    0.0000 C   0  0  0  0  0  0  0  0  0  0  0  0
    7.8010    1.1692    0.0000 C   0  0  0  0  0  0  0  0  0  0  0  0
    7.8010    2.2108    0.0000 C   0  0  0  0  0  0  0  0  0  0  0  0
    3.4030   -2.3100    0.0000 C   0  0  0  0  0  0  0  0  0  0  0  0
    5.3471   -0.8926    0.0000 H   0  0  0  0  0  0  0  0  0  0  0  0
    5.7456   -0.2023    0.0000 H   0  0  0  0  0  0  0  0  0  0  0  0
    4.8059   -1.1200    0.0000 H   0  0  0  0  0  0  0  0  0  0  0  0
    3.7320    0.8800    0.0000 H   0  0  0  0  0  0  0  0  0  0  0  0
    4.0569    2.7726    0.0000 H   0  0  0  0  0  0  0  0  0  0  0  0
    3.6584    2.0823    0.0000 H   0  0  0  0  0  0  0  0  0  0  0  0
    5.1350    3.3100    0.0000 H   0  0  0  0  0  0  0  0  0  0  0  0
    6.8878    0.0354    0.0000 H   0  0  0  0  0  0  0  0  0  0  0  0
    6.8878    3.3446    0.0000 H   0  0  0  0  0  0  0  0  0  0  0  0
    4.8059   -2.1200    0.0000 H   0  0  0  0  0  0  0  0  0  0  0  0
    8.3368    0.8571    0.0000 H   0  0  0  0  0  0  0  0  0  0  0  0
    8.3368    2.5229    0.0000 H   0  0  0  0  0  0  0  0  0  0  0  0
    2.8660   -2.0000    0.0000 H   0  0  0  0  0  0  0  0  0  0  0  0
    2.0000   -0.5000    0.0000 H   0  0  0  0  0  0  0  0  0  0  0  0
  1 15  1  0  0  0  0
  1 32  1  0  0  0  0
  2 15  2  0  0  0  0
  3 18  2  0  0  0  0
  4 10  1  0  0  0  0
  4 12  1  0  0  0  0
  4 25  1  0  0  0  0
  5  9  1  0  0  0  0
  5 18  1  0  0  0  0
  5 28  1  0  0  0  0
  6  7  1  0  0  0  0
  6  8  1  0  0  0  0
  6 11  2  0  0  0  0
  7  9  1  0  0  0  0
  7 19  1  0  0  0  0
  7 20  1  0  0  0  0
  8 10  1  0  0  0  0
  8 13  2  0  0  0  0
  9 15  1  0  0  0  0
  9 21  1  0  0  0  0
 10 14  2  0  0  0  0
 11 12  1  0  0  0  0
 11 22  1  0  0  0  0
 12 23  1  0  0  0  0
 12 24  1  0  0  0  0
 13 16  1  0  0  0  0
 13 26  1  0  0  0  0
 14 17  1  0  0  0  0
 14 27  1  0  0  0  0
 16 17  2  0  0  0  0
 16 29  1  0  0  0  0
 17 30  1  0  0  0  0
 18 31  1  0  0  0  0
M  END
> <PUBCHEM_COMPOUND_CID>
582736

> <PUBCHEM_COMPOUND_CANONICALIZED>
1

> <PUBCHEM_CACTVS_COMPLEXITY>
354

> <PUBCHEM_CACTVS_HBOND_ACCEPTOR>
4

> <PUBCHEM_CACTVS_HBOND_DONOR>
3

> <PUBCHEM_CACTVS_ROTATABLE_BOND>
4

> <PUBCHEM_CACTVS_SUBSKEYS>
AAADccBzMAAAAAAAAAAAAAAAAAAAAAAAAAAwQAAAAAAAAACBAAAAHgAQCAAADCjBmAYwyILAAgCIAiTS2ACCAAAhAgAIiIGIZIgKIDLAkbGEYAhklgDYyAeYyLCOAAAAAAACAAAAAAAAAAQAAAAAAAAAAA==

> <PUBCHEM_IUPAC_OPENEYE_NAME>
3-(1,2-dihydroquinolin-4-yl)-2-formamido-propanoic acid

> <PUBCHEM_IUPAC_CAS_NAME>
3-(1,2-dihydroquinolin-4-yl)-2-formamidopropanoic acid

> <PUBCHEM_IUPAC_NAME>
3-(1,2-dihydroquinolin-4-yl)-2-formamidopropanoic acid

> <PUBCHEM_IUPAC_SYSTEMATIC_NAME>
3-(1,2-dihydroquinolin-4-yl)-2-formamido-propanoic acid

> <PUBCHEM_IUPAC_TRADITIONAL_NAME>
3-(1,2-dihydroquinolin-4-yl)-2-formamido-propionic acid

> <PUBCHEM_IUPAC_INCHI>
InChI=1S/C13H14N2O3/c16-8-15-12(13(17)18)7-9-5-6-14-11-4-2-1-3-10(9)11/h1-5,8,12,14H,6-7H2,(H,15,16)(H,17,18)

> <PUBCHEM_IUPAC_INCHIKEY>
IZGWSPBIFUJMJU-UHFFFAOYSA-N

> <PUBCHEM_XLOGP3_AA>
1

> <PUBCHEM_EXACT_MASS>
246.100442

> <PUBCHEM_MOLECULAR_FORMULA>
C13H14N2O3

> <PUBCHEM_MOLECULAR_WEIGHT>
246.26186

> <PUBCHEM_OPENEYE_CAN_SMILES>
C1C=C(C2=CC=CC=C2N1)CC(C(=O)O)NC=O

> <PUBCHEM_OPENEYE_ISO_SMILES>
C1C=C(C2=CC=CC=C2N1)CC(C(=O)O)NC=O

> <PUBCHEM_CACTVS_TPSA>
78.4

> <PUBCHEM_MONOISOTOPIC_WEIGHT>
246.100442

> <PUBCHEM_TOTAL_CHARGE>
0

> <PUBCHEM_HEAVY_ATOM_COUNT>
18

> <PUBCHEM_ATOM_DEF_STEREO_COUNT>
0

> <PUBCHEM_ATOM_UDEF_STEREO_COUNT>
1

> <PUBCHEM_BOND_DEF_STEREO_COUNT>
0

> <PUBCHEM_BOND_UDEF_STEREO_COUNT>
0

> <PUBCHEM_ISOTOPIC_ATOM_COUNT>
0

> <PUBCHEM_COMPONENT_COUNT>
1

> <PUBCHEM_CACTVS_TAUTO_COUNT>
2

> <PUBCHEM_COORDINATE_TYPE>
1
5
255

> <PUBCHEM_BONDANNOTATIONS>
10  14  8
13  16  8
14  17  8
16  17  8
9  7  3
8  10  8
8  13  8

$$$$

