583220
  -OEChem-06241222442D

 37 39  0     1  0  0  0  0  0999 V2000
    7.1962    0.4330    0.0000 S   0  0  0  0  0  0  0  0  0  0  0  0
    2.8660   -3.0670    0.0000 F   0  0  0  0  0  0  0  0  0  0  0  0
    4.2321   -3.4330    0.0000 F   0  0  0  0  0  0  0  0  0  0  0  0
    3.2321   -1.7010    0.0000 F   0  0  0  0  0  0  0  0  0  0  0  0
    5.4641    3.4330    0.0000 O   0  0  0  0  0  0  0  0  0  0  0  0
    5.4641    0.4330    0.0000 N   0  0  0  0  0  0  0  0  0  0  0  0
    6.3301    1.9330    0.0000 N   0  0  0  0  0  0  0  0  0  0  0  0
    4.5981    0.9330    0.0000 C   0  0  3  0  0  0  0  0  0  0  0  0
    4.5981    1.9330    0.0000 C   0  0  0  0  0  0  0  0  0  0  0  0
    3.7321    0.4330    0.0000 C   0  0  0  0  0  0  0  0  0  0  0  0
    5.4641   -0.5670    0.0000 C   0  0  0  0  0  0  0  0  0  0  0  0
    6.3301    0.9330    0.0000 C   0  0  0  0  0  0  0  0  0  0  0  0
    5.4641    2.4330    0.0000 C   0  0  0  0  0  0  0  0  0  0  0  0
    3.7321   -0.5670    0.0000 C   0  0  0  0  0  0  0  0  0  0  0  0
    2.8660    0.9330    0.0000 C   0  0  0  0  0  0  0  0  0  0  0  0
    4.5981   -1.0670    0.0000 C   0  0  0  0  0  0  0  0  0  0  0  0
    6.3301   -1.0670    0.0000 C   0  0  0  0  0  0  0  0  0  0  0  0
    4.5981   -2.0670    0.0000 C   0  0  0  0  0  0  0  0  0  0  0  0
    2.8660   -1.0670    0.0000 C   0  0  0  0  0  0  0  0  0  0  0  0
    2.0000    0.4330    0.0000 C   0  0  0  0  0  0  0  0  0  0  0  0
    6.3301   -2.0670    0.0000 C   0  0  0  0  0  0  0  0  0  0  0  0
    5.4641   -2.5670    0.0000 C   0  0  0  0  0  0  0  0  0  0  0  0
    2.0000   -0.5670    0.0000 C   0  0  0  0  0  0  0  0  0  0  0  0
    3.7321   -2.5670    0.0000 C   0  0  0  0  0  0  0  0  0  0  0  0
    4.0611    1.2430    0.0000 H   0  0  0  0  0  0  0  0  0  0  0  0
    4.3860    2.5156    0.0000 H   0  0  0  0  0  0  0  0  0  0  0  0
    3.9875    1.8254    0.0000 H   0  0  0  0  0  0  0  0  0  0  0  0
    4.2690   -0.8770    0.0000 H   0  0  0  0  0  0  0  0  0  0  0  0
    2.8660    1.5530    0.0000 H   0  0  0  0  0  0  0  0  0  0  0  0
    4.0611   -0.7570    0.0000 H   0  0  0  0  0  0  0  0  0  0  0  0
    6.8671   -0.7570    0.0000 H   0  0  0  0  0  0  0  0  0  0  0  0
    6.8671   -2.3770    0.0000 H   0  0  0  0  0  0  0  0  0  0  0  0
    2.8660   -1.6870    0.0000 H   0  0  0  0  0  0  0  0  0  0  0  0
    1.4631    0.7430    0.0000 H   0  0  0  0  0  0  0  0  0  0  0  0
    5.4641   -3.1870    0.0000 H   0  0  0  0  0  0  0  0  0  0  0  0
    1.4631   -0.8770    0.0000 H   0  0  0  0  0  0  0  0  0  0  0  0
    7.7331    0.7430    0.0000 H   0  0  0  0  0  0  0  0  0  0  0  0
  1 12  1  0  0  0  0
  1 37  1  0  0  0  0
  2 24  1  0  0  0  0
  3 24  1  0  0  0  0
  4 24  1  0  0  0  0
  5 13  2  0  0  0  0
  6  8  1  0  0  0  0
  6 11  1  0  0  0  0
  6 12  1  0  0  0  0
  7 12  2  0  0  0  0
  7 13  1  0  0  0  0
  8  9  1  0  0  0  0
  8 10  1  0  0  0  0
  8 25  1  0  0  0  0
  9 13  1  0  0  0  0
  9 26  1  0  0  0  0
  9 27  1  0  0  0  0
 10 14  2  0  0  0  0
 10 15  1  0  0  0  0
 11 16  1  0  0  0  0
 11 17  2  0  0  0  0
 14 19  1  0  0  0  0
 14 28  1  0  0  0  0
 15 20  2  0  0  0  0
 15 29  1  0  0  0  0
 16 18  2  0  0  0  0
 16 30  1  0  0  0  0
 17 21  1  0  0  0  0
 17 31  1  0  0  0  0
 18 22  1  0  0  0  0
 18 24  1  0  0  0  0
 19 23  2  0  0  0  0
 19 33  1  0  0  0  0
 20 23  1  0  0  0  0
 20 34  1  0  0  0  0
 21 22  2  0  0  0  0
 21 32  1  0  0  0  0
 22 35  1  0  0  0  0
 23 36  1  0  0  0  0
M  END
> <PUBCHEM_COMPOUND_CID>
583220

> <PUBCHEM_COMPOUND_CANONICALIZED>
1

> <PUBCHEM_CACTVS_COMPLEXITY>
503

> <PUBCHEM_CACTVS_HBOND_ACCEPTOR>
5

> <PUBCHEM_CACTVS_HBOND_DONOR>
1

> <PUBCHEM_CACTVS_ROTATABLE_BOND>
2

> <PUBCHEM_CACTVS_SUBSKEYS>
AAADccB7IYBAAAAAAAAAAAAAAAAAAAAAAAAwYIAAAAAAAAABQAAAHwQAAAAADCjBmBQxwIMAAASoAiVSdACCEAEhAgAJiAEIZIgIIDrA2ZGEIAhggADIyAcYiICOAAAAQAAAAAAAAACAAAAAAAAAAAAAAA==

> <PUBCHEM_IUPAC_OPENEYE_NAME>
4-phenyl-2-sulfanyl-3-[3-(trifluoromethyl)phenyl]-4,5-dihydropyrimidin-6-one

> <PUBCHEM_IUPAC_CAS_NAME>
2-mercapto-4-phenyl-3-[3-(trifluoromethyl)phenyl]-4,5-dihydropyrimidin-6-one

> <PUBCHEM_IUPAC_NAME>
4-phenyl-2-sulfanyl-3-[3-(trifluoromethyl)phenyl]-4,5-dihydropyrimidin-6-one

> <PUBCHEM_IUPAC_SYSTEMATIC_NAME>
4-phenyl-2-sulfanyl-3-[3-(trifluoromethyl)phenyl]-4,5-dihydropyrimidin-6-one

> <PUBCHEM_IUPAC_TRADITIONAL_NAME>
2-mercapto-4-phenyl-3-[3-(trifluoromethyl)phenyl]-4,5-dihydropyrimidin-6-one

> <PUBCHEM_IUPAC_INCHI>
InChI=1S/C17H13F3N2OS/c18-17(19,20)12-7-4-8-13(9-12)22-14(10-15(23)21-16(22)24)11-5-2-1-3-6-11/h1-9,14H,10H2,(H,21,23,24)

> <PUBCHEM_IUPAC_INCHIKEY>
RKMXSXWZBZNLPE-UHFFFAOYSA-N

> <PUBCHEM_XLOGP3_AA>
3.8

> <PUBCHEM_EXACT_MASS>
350.070069

> <PUBCHEM_MOLECULAR_FORMULA>
C17H13F3N2OS

> <PUBCHEM_MOLECULAR_WEIGHT>
350.35813

> <PUBCHEM_OPENEYE_CAN_SMILES>
C1C(N(C(=NC1=O)S)C2=CC=CC(=C2)C(F)(F)F)C3=CC=CC=C3

> <PUBCHEM_OPENEYE_ISO_SMILES>
C1C(N(C(=NC1=O)S)C2=CC=CC(=C2)C(F)(F)F)C3=CC=CC=C3

> <PUBCHEM_CACTVS_TPSA>
33.7

> <PUBCHEM_MONOISOTOPIC_WEIGHT>
350.070069

> <PUBCHEM_TOTAL_CHARGE>
0

> <PUBCHEM_HEAVY_ATOM_COUNT>
24

> <PUBCHEM_ATOM_DEF_STEREO_COUNT>
0

> <PUBCHEM_ATOM_UDEF_STEREO_COUNT>
1

> <PUBCHEM_BOND_DEF_STEREO_COUNT>
0

> <PUBCHEM_BOND_UDEF_STEREO_COUNT>
0

> <PUBCHEM_ISOTOPIC_ATOM_COUNT>
0

> <PUBCHEM_COMPONENT_COUNT>
1

> <PUBCHEM_CACTVS_TAUTO_COUNT>
3

> <PUBCHEM_COORDINATE_TYPE>
1
5
255

> <PUBCHEM_BONDANNOTATIONS>
10  14  8
10  15  8
11  16  8
11  17  8
14  19  8
15  20  8
16  18  8
17  21  8
18  22  8
19  23  8
20  23  8
21  22  8
8  10  3

$$$$

