3376
  -OEChem-06251223222D

 71 74  0     1  0  0  0  0  0999 V2000
    5.0182   -0.6310    0.0000 F   0  0  0  0  0  0  0  0  0  0  0  0
    5.6489   -4.4663    0.0000 F   0  0  0  0  0  0  0  0  0  0  0  0
    8.0319    0.8593    0.0000 O   0  0  0  0  0  0  0  0  0  0  0  0
    4.7950    0.1030    0.0000 O   0  0  0  0  0  0  0  0  0  0  0  0
   10.0622    0.0858    0.0000 O   0  0  0  0  0  0  0  0  0  0  0  0
    9.8566    2.0752    0.0000 O   0  0  0  0  0  0  0  0  0  0  0  0
    2.0000   -3.4494    0.0000 O   0  0  0  0  0  0  0  0  0  0  0  0
    8.8409    3.4782    0.0000 O   0  0  0  0  0  0  0  0  0  0  0  0
    7.3931   -0.3970    0.0000 C   0  0  3  0  0  0  0  0  0  0  0  0
    7.3931   -1.3970    0.0000 C   0  0  3  0  0  0  0  0  0  0  0  0
    6.5271   -1.8970    0.0000 C   0  0  3  0  0  0  0  0  0  0  0  0
    5.6610   -1.3970    0.0000 C   0  0  3  0  0  0  0  0  0  0  0  0
    8.3393   -0.0923    0.0000 C   0  0  3  0  0  0  0  0  0  0  0  0
    8.3393   -1.7018    0.0000 C   0  0  0  0  0  0  0  0  0  0  0  0
    6.5271    0.1030    0.0000 C   0  0  0  0  0  0  0  0  0  0  0  0
    8.9229   -0.8970    0.0000 C   0  0  3  0  0  0  0  0  0  0  0  0
    5.6610   -0.3970    0.0000 C   0  0  3  0  0  0  0  0  0  0  0  0
    4.7510   -1.9039    0.0000 C   0  0  3  0  0  0  0  0  0  0  0  0
    6.5431   -2.9385    0.0000 C   0  0  0  0  0  0  0  0  0  0  0  0
    7.3931    0.6030    0.0000 C   0  0  0  0  0  0  0  0  0  0  0  0
    5.6451   -3.4663    0.0000 C   0  0  3  0  0  0  0  0  0  0  0  0
    4.7430   -2.9455    0.0000 C   0  0  0  0  0  0  0  0  0  0  0  0
    9.1493    0.4941    0.0000 C   0  0  0  0  0  0  0  0  0  0  0  0
    9.9229   -0.8970    0.0000 C   0  0  0  0  0  0  0  0  0  0  0  0
    4.4163   -0.9616    0.0000 C   0  0  0  0  0  0  0  0  0  0  0  0
    3.8242   -1.3398    0.0000 C   0  0  0  0  0  0  0  0  0  0  0  0
    3.8076   -3.4952    0.0000 C   0  0  0  0  0  0  0  0  0  0  0  0
    9.0465    1.4888    0.0000 C   0  0  0  0  0  0  0  0  0  0  0  0
    2.8763   -1.8677    0.0000 C   0  0  0  0  0  0  0  0  0  0  0  0
    2.8680   -2.9527    0.0000 C   0  0  0  0  0  0  0  0  0  0  0  0
    9.7538    3.0699    0.0000 C   0  0  0  0  0  0  0  0  0  0  0  0
   10.5638    3.6562    0.0000 C   0  0  0  0  0  0  0  0  0  0  0  0
   11.3738    4.2426    0.0000 C   0  0  0  0  0  0  0  0  0  0  0  0
    9.9774    4.4663    0.0000 C   0  0  0  0  0  0  0  0  0  0  0  0
   11.1502    2.8462    0.0000 C   0  0  0  0  0  0  0  0  0  0  0  0
    7.4830   -2.2423    0.0000 H   0  0  0  0  0  0  0  0  0  0  0  0
    7.2664   -2.3164    0.0000 H   0  0  0  0  0  0  0  0  0  0  0  0
    8.0883   -2.2687    0.0000 H   0  0  0  0  0  0  0  0  0  0  0  0
    8.8767   -2.0110    0.0000 H   0  0  0  0  0  0  0  0  0  0  0  0
    6.9256    0.5779    0.0000 H   0  0  0  0  0  0  0  0  0  0  0  0
    6.1285    0.5779    0.0000 H   0  0  0  0  0  0  0  0  0  0  0  0
    9.3091   -1.6542    0.0000 H   0  0  0  0  0  0  0  0  0  0  0  0
    5.6610    0.4530    0.0000 H   0  0  0  0  0  0  0  0  0  0  0  0
    6.7612   -3.5189    0.0000 H   0  0  0  0  0  0  0  0  0  0  0  0
    7.1523   -2.8230    0.0000 H   0  0  0  0  0  0  0  0  0  0  0  0
    8.0131    0.6030    0.0000 H   0  0  0  0  0  0  0  0  0  0  0  0
    7.3931    1.2230    0.0000 H   0  0  0  0  0  0  0  0  0  0  0  0
    6.7731    0.6030    0.0000 H   0  0  0  0  0  0  0  0  0  0  0  0
    4.9098   -3.8927    0.0000 H   0  0  0  0  0  0  0  0  0  0  0  0
    9.9229   -1.5170    0.0000 H   0  0  0  0  0  0  0  0  0  0  0  0
   10.5429   -0.8970    0.0000 H   0  0  0  0  0  0  0  0  0  0  0  0
    9.9229   -0.2770    0.0000 H   0  0  0  0  0  0  0  0  0  0  0  0
    5.0005   -0.7540    0.0000 H   0  0  0  0  0  0  0  0  0  0  0  0
    4.2087   -0.3774    0.0000 H   0  0  0  0  0  0  0  0  0  0  0  0
    3.8320   -1.1691    0.0000 H   0  0  0  0  0  0  0  0  0  0  0  0
    8.4476    1.3193    0.0000 H   0  0  0  0  0  0  0  0  0  0  0  0
    3.8361   -0.7199    0.0000 H   0  0  0  0  0  0  0  0  0  0  0  0
    4.7950    0.7230    0.0000 H   0  0  0  0  0  0  0  0  0  0  0  0
    3.8100   -4.1152    0.0000 H   0  0  0  0  0  0  0  0  0  0  0  0
    8.7757    2.0465    0.0000 H   0  0  0  0  0  0  0  0  0  0  0  0
    8.4502    1.3189    0.0000 H   0  0  0  0  0  0  0  0  0  0  0  0
    2.3430   -1.5516    0.0000 H   0  0  0  0  0  0  0  0  0  0  0  0
   11.7374    3.7404    0.0000 H   0  0  0  0  0  0  0  0  0  0  0  0
   11.8760    4.6062    0.0000 H   0  0  0  0  0  0  0  0  0  0  0  0
   10.4796    4.8299    0.0000 H   0  0  0  0  0  0  0  0  0  0  0  0
    9.6138    4.9685    0.0000 H   0  0  0  0  0  0  0  0  0  0  0  0
    9.4752    4.1027    0.0000 H   0  0  0  0  0  0  0  0  0  0  0  0
   10.6480    2.4827    0.0000 H   0  0  0  0  0  0  0  0  0  0  0  0
   11.5137    2.3440    0.0000 H   0  0  0  0  0  0  0  0  0  0  0  0
   11.6524    3.2098    0.0000 H   0  0  0  0  0  0  0  0  0  0  0  0
   11.0103    4.7449    0.0000 H   0  0  0  0  0  0  0  0  0  0  0  0
  1 12  1  0  0  0  0
  2 21  1  0  0  0  0
  3 13  1  0  0  0  0
  3 56  1  0  0  0  0
  4 17  1  0  0  0  0
  4 58  1  0  0  0  0
  5 23  2  0  0  0  0
  6 28  1  0  0  0  0
  6 31  1  0  0  0  0
  7 30  2  0  0  0  0
  8 31  2  0  0  0  0
  9 10  1  0  0  0  0
  9 13  1  0  0  0  0
  9 15  1  0  0  0  0
  9 20  1  0  0  0  0
 10 11  1  0  0  0  0
 10 14  1  0  0  0  0
 10 36  1  0  0  0  0
 11 12  1  0  0  0  0
 11 19  1  0  0  0  0
 11 37  1  0  0  0  0
 12 17  1  0  0  0  0
 12 18  1  0  0  0  0
 13 16  1  0  0  0  0
 13 23  1  0  0  0  0
 14 16  1  0  0  0  0
 14 38  1  0  0  0  0
 14 39  1  0  0  0  0
 15 17  1  0  0  0  0
 15 40  1  0  0  0  0
 15 41  1  0  0  0  0
 16 24  1  0  0  0  0
 16 42  1  0  0  0  0
 17 43  1  0  0  0  0
 18 22  1  0  0  0  0
 18 25  1  0  0  0  0
 18 26  1  0  0  0  0
 19 21  1  0  0  0  0
 19 44  1  0  0  0  0
 19 45  1  0  0  0  0
 20 46  1  0  0  0  0
 20 47  1  0  0  0  0
 20 48  1  0  0  0  0
 21 22  1  0  0  0  0
 21 49  1  0  0  0  0
 22 27  2  0  0  0  0
 23 28  1  0  0  0  0
 24 50  1  0  0  0  0
 24 51  1  0  0  0  0
 24 52  1  0  0  0  0
 25 53  1  0  0  0  0
 25 54  1  0  0  0  0
 25 55  1  0  0  0  0
 26 29  2  0  0  0  0
 26 57  1  0  0  0  0
 27 30  1  0  0  0  0
 27 59  1  0  0  0  0
 28 60  1  0  0  0  0
 28 61  1  0  0  0  0
 29 30  1  0  0  0  0
 29 62  1  0  0  0  0
 31 32  1  0  0  0  0
 32 33  1  0  0  0  0
 32 34  1  0  0  0  0
 32 35  1  0  0  0  0
 33 63  1  0  0  0  0
 33 64  1  0  0  0  0
 33 71  1  0  0  0  0
 34 65  1  0  0  0  0
 34 66  1  0  0  0  0
 34 67  1  0  0  0  0
 35 68  1  0  0  0  0
 35 69  1  0  0  0  0
 35 70  1  0  0  0  0
M  END
> <PUBCHEM_COMPOUND_CID>
3376

> <PUBCHEM_COMPOUND_CANONICALIZED>
1

> <PUBCHEM_CACTVS_COMPLEXITY>
1030

> <PUBCHEM_CACTVS_HBOND_ACCEPTOR>
8

> <PUBCHEM_CACTVS_HBOND_DONOR>
2

> <PUBCHEM_CACTVS_ROTATABLE_BOND>
5

> <PUBCHEM_CACTVS_SUBSKEYS>
AAADcfB4OYAAAAAAAAAAAAAAAAAAAYAAAAAwYIAAAAAAAGDAAAAAGwAACAAAD1SggAICCAAABgCIAqDSCAIAAAAgAAAICAFAAEgAEBIAAQQCQAAFgAAIAYPIzPDPgAAAAAAAAADAAAYAADAAAYAADAAAAA==

> <PUBCHEM_IUPAC_OPENEYE_NAME>
[2-(6,9-difluoro-11,17-dihydroxy-10,13,16-trimethyl-3-oxo-6,7,8,11,12,14,15,16-octahydrocyclopenta[a]phenanthren-17-yl)-2-oxo-ethyl] 2,2-dimethylpropanoate

> <PUBCHEM_IUPAC_CAS_NAME>
2,2-dimethylpropanoic acid [2-(6,9-difluoro-11,17-dihydroxy-10,13,16-trimethyl-3-oxo-6,7,8,11,12,14,15,16-octahydrocyclopenta[a]phenanthren-17-yl)-2-oxoethyl] ester

> <PUBCHEM_IUPAC_NAME>
[2-(6,9-difluoro-11,17-dihydroxy-10,13,16-trimethyl-3-oxo-6,7,8,11,12,14,15,16-octahydrocyclopenta[a]phenanthren-17-yl)-2-oxoethyl] 2,2-dimethylpropanoate

> <PUBCHEM_IUPAC_SYSTEMATIC_NAME>
[2-[6,9-bis(fluoranyl)-10,13,16-trimethyl-11,17-bis(oxidanyl)-3-oxidanylidene-6,7,8,11,12,14,15,16-octahydrocyclopenta[a]phenanthren-17-yl]-2-oxidanylidene-ethyl] 2,2-dimethylpropanoate

> <PUBCHEM_IUPAC_TRADITIONAL_NAME>
2,2-dimethylpropionic acid [2-(6,9-difluoro-11,17-dihydroxy-3-keto-10,13,16-trimethyl-6,7,8,11,12,14,15,16-octahydrocyclopenta[a]phenanthren-17-yl)-2-keto-ethyl] ester

> <PUBCHEM_IUPAC_INCHI>
InChI=1S/C27H36F2O6/c1-14-9-16-17-11-19(28)18-10-15(30)7-8-24(18,5)26(17,29)20(31)12-25(16,6)27(14,34)21(32)13-35-22(33)23(2,3)4/h7-8,10,14,16-17,19-20,31,34H,9,11-13H2,1-6H3

> <PUBCHEM_IUPAC_INCHIKEY>
JWRMHDSINXPDHB-UHFFFAOYSA-N

> <PUBCHEM_XLOGP3>
3.9

> <PUBCHEM_EXACT_MASS>
494.247995

> <PUBCHEM_MOLECULAR_FORMULA>
C27H36F2O6

> <PUBCHEM_MOLECULAR_WEIGHT>
494.567946

> <PUBCHEM_OPENEYE_CAN_SMILES>
CC1CC2C3CC(C4=CC(=O)C=CC4(C3(C(CC2(C1(C(=O)COC(=O)C(C)(C)C)O)C)O)F)C)F

> <PUBCHEM_OPENEYE_ISO_SMILES>
CC1CC2C3CC(C4=CC(=O)C=CC4(C3(C(CC2(C1(C(=O)COC(=O)C(C)(C)C)O)C)O)F)C)F

> <PUBCHEM_CACTVS_TPSA>
101

> <PUBCHEM_MONOISOTOPIC_WEIGHT>
494.247995

> <PUBCHEM_TOTAL_CHARGE>
0

> <PUBCHEM_HEAVY_ATOM_COUNT>
35

> <PUBCHEM_ATOM_DEF_STEREO_COUNT>
0

> <PUBCHEM_ATOM_UDEF_STEREO_COUNT>
9

> <PUBCHEM_BOND_DEF_STEREO_COUNT>
0

> <PUBCHEM_BOND_UDEF_STEREO_COUNT>
0

> <PUBCHEM_ISOTOPIC_ATOM_COUNT>
0

> <PUBCHEM_COMPONENT_COUNT>
1

> <PUBCHEM_CACTVS_TAUTO_COUNT>
2

> <PUBCHEM_COORDINATE_TYPE>
1
5
255

> <PUBCHEM_BONDANNOTATIONS>
12  1  3
10  36  3
11  37  3
13  23  3
16  42  3
17  43  3
18  25  3
21  49  3
9  20  3

$$$$

