17395819
  -OEChem-06241222522D

 40 43  0     1  0  0  0  0  0999 V2000
    4.6844    1.1497    0.0000 S   0  0  0  0  0  0  0  0  0  0  0  0
    4.0696    3.0528    0.0000 O   0  0  0  0  0  0  0  0  0  0  0  0
    4.4026   -0.6099    0.0000 N   0  0  0  0  0  0  0  0  0  0  0  0
    5.9405   -1.1126    0.0000 N   0  0  0  0  0  0  0  0  0  0  0  0
    5.9422   -0.1126    0.0000 N   0  0  0  0  0  0  0  0  0  0  0  0
    4.6783   -3.9799    0.0000 N   0  0  0  0  0  0  0  0  0  0  0  0
    5.7178    3.5852    0.0000 N   0  0  0  0  0  0  0  0  0  0  0  0
    3.4026   -0.6082    0.0000 C   0  0  0  0  0  0  0  0  0  0  0  0
    2.5374   -0.1067    0.0000 C   0  0  0  0  0  0  0  0  0  0  0  0
    2.5357   -1.1067    0.0000 C   0  0  0  0  0  0  0  0  0  0  0  0
    4.9889   -1.4200    0.0000 C   0  0  0  0  0  0  0  0  0  0  0  0
    4.9917    0.1981    0.0000 C   0  0  0  0  0  0  0  0  0  0  0  0
    4.6783   -2.3705    0.0000 C   0  0  0  0  0  0  0  0  0  0  0  0
    3.7320   -2.6752    0.0000 C   0  0  0  0  0  0  0  0  0  0  0  0
    5.2619   -3.1752    0.0000 C   0  0  0  0  0  0  0  0  0  0  0  0
    5.3548    1.8916    0.0000 C   0  0  3  0  0  0  0  0  0  0  0  0
    3.7320   -3.6752    0.0000 C   0  0  0  0  0  0  0  0  0  0  0  0
    2.8660   -2.1752    0.0000 C   0  0  0  0  0  0  0  0  0  0  0  0
    6.3326    1.6820    0.0000 C   0  0  0  0  0  0  0  0  0  0  0  0
    2.8660   -4.1752    0.0000 C   0  0  0  0  0  0  0  0  0  0  0  0
    5.0474    2.8432    0.0000 C   0  0  0  0  0  0  0  0  0  0  0  0
    2.0000   -2.6752    0.0000 C   0  0  0  0  0  0  0  0  0  0  0  0
    2.0000   -3.6752    0.0000 C   0  0  0  0  0  0  0  0  0  0  0  0
    3.5640   -0.0096    0.0000 H   0  0  0  0  0  0  0  0  0  0  0  0
    1.9249   -1.2133    0.0000 H   0  0  0  0  0  0  0  0  0  0  0  0
    2.7467   -1.6897    0.0000 H   0  0  0  0  0  0  0  0  0  0  0  0
    2.7504    0.4755    0.0000 H   0  0  0  0  0  0  0  0  0  0  0  0
    1.9270    0.0020    0.0000 H   0  0  0  0  0  0  0  0  0  0  0  0
    6.4415   -1.4779    0.0000 H   0  0  0  0  0  0  0  0  0  0  0  0
    5.8819   -3.1752    0.0000 H   0  0  0  0  0  0  0  0  0  0  0  0
    5.5454    1.3017    0.0000 H   0  0  0  0  0  0  0  0  0  0  0  0
    2.8660   -1.5552    0.0000 H   0  0  0  0  0  0  0  0  0  0  0  0
    6.2026    1.0758    0.0000 H   0  0  0  0  0  0  0  0  0  0  0  0
    6.9388    1.5521    0.0000 H   0  0  0  0  0  0  0  0  0  0  0  0
    6.4625    2.2883    0.0000 H   0  0  0  0  0  0  0  0  0  0  0  0
    2.8660   -4.7952    0.0000 H   0  0  0  0  0  0  0  0  0  0  0  0
    1.4631   -2.3652    0.0000 H   0  0  0  0  0  0  0  0  0  0  0  0
    1.4631   -3.9852    0.0000 H   0  0  0  0  0  0  0  0  0  0  0  0
    5.5273    4.1752    0.0000 H   0  0  0  0  0  0  0  0  0  0  0  0
    6.3240    3.4553    0.0000 H   0  0  0  0  0  0  0  0  0  0  0  0
  1 12  1  0  0  0  0
  1 16  1  0  0  0  0
  2 21  2  0  0  0  0
  3  8  1  0  0  0  0
  3 11  1  0  0  0  0
  3 12  1  0  0  0  0
  4  5  1  0  0  0  0
  4 11  1  0  0  0  0
  4 29  1  0  0  0  0
  5 12  2  0  0  0  0
  6 15  2  0  0  0  0
  6 17  1  0  0  0  0
  7 21  1  0  0  0  0
  7 39  1  0  0  0  0
  7 40  1  0  0  0  0
  8  9  1  0  0  0  0
  8 10  1  0  0  0  0
  8 24  1  0  0  0  0
  9 10  1  0  0  0  0
  9 27  1  0  0  0  0
  9 28  1  0  0  0  0
 10 25  1  0  0  0  0
 10 26  1  0  0  0  0
 11 13  2  0  0  0  0
 13 14  1  0  0  0  0
 13 15  1  0  0  0  0
 14 17  1  0  0  0  0
 14 18  2  0  0  0  0
 15 30  1  0  0  0  0
 16 19  1  0  0  0  0
 16 21  1  0  0  0  0
 16 31  1  0  0  0  0
 17 20  2  0  0  0  0
 18 22  1  0  0  0  0
 18 32  1  0  0  0  0
 19 33  1  0  0  0  0
 19 34  1  0  0  0  0
 19 35  1  0  0  0  0
 20 23  1  0  0  0  0
 20 36  1  0  0  0  0
 22 23  2  0  0  0  0
 22 37  1  0  0  0  0
 23 38  1  0  0  0  0
M  END
> <PUBCHEM_COMPOUND_CID>
17395819

> <PUBCHEM_COMPOUND_CANONICALIZED>
1

> <PUBCHEM_CACTVS_COMPLEXITY>
610

> <PUBCHEM_CACTVS_HBOND_ACCEPTOR>
5

> <PUBCHEM_CACTVS_HBOND_DONOR>
2

> <PUBCHEM_CACTVS_ROTATABLE_BOND>
4

> <PUBCHEM_CACTVS_SUBSKEYS>
AAADceB7oABAAAAAAAAAAAAAGAAAAQIAAAAwAAAAAAAAAEABAAAAHgQYAAAADCjF2ASzwINiAAioAjVzdACSAABgAhANiAEoZJiIICKAmZGEIABgkAIIyAcQgIAOAAAAAAACAAAAAAAAAAQAAAAAAAAAAA==

> <PUBCHEM_IUPAC_OPENEYE_NAME>
2-[[(5Z)-4-cyclopropyl-5-indol-3-ylidene-1H-1,2,4-triazol-3-yl]sulfanyl]propanamide

> <PUBCHEM_IUPAC_CAS_NAME>
2-[[(5Z)-4-cyclopropyl-5-(3-indolylidene)-1H-1,2,4-triazol-3-yl]thio]propanamide

> <PUBCHEM_IUPAC_NAME>
2-[[(5Z)-4-cyclopropyl-5-indol-3-ylidene-1H-1,2,4-triazol-3-yl]sulfanyl]propanamide

> <PUBCHEM_IUPAC_SYSTEMATIC_NAME>
2-[[(5Z)-4-cyclopropyl-5-indol-3-ylidene-1H-1,2,4-triazol-3-yl]sulfanyl]propanamide

> <PUBCHEM_IUPAC_TRADITIONAL_NAME>
2-[[(5Z)-4-cyclopropyl-5-indol-3-ylidene-1H-1,2,4-triazol-3-yl]thio]propionamide

> <PUBCHEM_IUPAC_INCHI>
InChI=1S/C16H17N5OS/c1-9(14(17)22)23-16-20-19-15(21(16)10-6-7-10)12-8-18-13-5-3-2-4-11(12)13/h2-5,8-10,19H,6-7H2,1H3,(H2,17,22)/b15-12-

> <PUBCHEM_IUPAC_INCHIKEY>
MIFBGEBEYQRLBR-QINSGFPZSA-N

> <PUBCHEM_XLOGP3_AA>
1.8

> <PUBCHEM_EXACT_MASS>
327.115381

> <PUBCHEM_MOLECULAR_FORMULA>
C16H17N5OS

> <PUBCHEM_MOLECULAR_WEIGHT>
327.40408

> <PUBCHEM_OPENEYE_CAN_SMILES>
CC(C(=O)N)SC1=NNC(=C2C=NC3=CC=CC=C32)N1C4CC4

> <PUBCHEM_OPENEYE_ISO_SMILES>
CC(C(=O)N)SC1=NN/C(=C/2\C=NC3=CC=CC=C32)/N1C4CC4

> <PUBCHEM_CACTVS_TPSA>
108

> <PUBCHEM_MONOISOTOPIC_WEIGHT>
327.115381

> <PUBCHEM_TOTAL_CHARGE>
0

> <PUBCHEM_HEAVY_ATOM_COUNT>
23

> <PUBCHEM_ATOM_DEF_STEREO_COUNT>
0

> <PUBCHEM_ATOM_UDEF_STEREO_COUNT>
1

> <PUBCHEM_BOND_DEF_STEREO_COUNT>
1

> <PUBCHEM_BOND_UDEF_STEREO_COUNT>
0

> <PUBCHEM_ISOTOPIC_ATOM_COUNT>
0

> <PUBCHEM_COMPONENT_COUNT>
1

> <PUBCHEM_CACTVS_TAUTO_COUNT>
9

> <PUBCHEM_COORDINATE_TYPE>
1
5
255

> <PUBCHEM_BONDANNOTATIONS>
14  17  8
14  18  8
16  19  3
17  20  8
18  22  8
20  23  8
22  23  8

$$$$

