12710
  -OEChem-06261207162D

160156  0     0  0  0  0  0  0999 V2000
   17.5885    6.2500    0.0000 Al  0  1  0  0  0  0  0  0  0  0  0  0
   18.4545    6.7500    0.0000 O   0  5  0  0  0  0  0  0  0  0  0  0
   16.7224    6.7500    0.0000 O   0  5  0  0  0  0  0  0  0  0  0  0
   17.5885    5.2500    0.0000 O   0  5  0  0  0  0  0  0  0  0  0  0
   19.3205    5.2500    0.0000 O   0  0  0  0  0  0  0  0  0  0  0  0
   17.5885    8.2500    0.0000 O   0  0  0  0  0  0  0  0  0  0  0  0
   15.8564    5.2500    0.0000 O   0  0  0  0  0  0  0  0  0  0  0  0
   30.5788    6.7500    0.0000 C   0  0  0  0  0  0  0  0  0  0  0  0
    5.4641    8.2500    0.0000 C   0  0  0  0  0  0  0  0  0  0  0  0
   11.5263   -5.2500    0.0000 C   0  0  0  0  0  0  0  0  0  0  0  0
   29.7128    6.2500    0.0000 C   0  0  0  0  0  0  0  0  0  0  0  0
    6.3301    7.7500    0.0000 C   0  0  0  0  0  0  0  0  0  0  0  0
   11.5263   -4.2500    0.0000 C   0  0  0  0  0  0  0  0  0  0  0  0
   31.4449    6.2500    0.0000 C   0  0  0  0  0  0  0  0  0  0  0  0
    4.5981    7.7500    0.0000 C   0  0  0  0  0  0  0  0  0  0  0  0
   10.6603   -5.7500    0.0000 C   0  0  0  0  0  0  0  0  0  0  0  0
   28.8468    6.7500    0.0000 C   0  0  0  0  0  0  0  0  0  0  0  0
    7.1962    8.2500    0.0000 C   0  0  0  0  0  0  0  0  0  0  0  0
   12.3923   -3.7500    0.0000 C   0  0  0  0  0  0  0  0  0  0  0  0
   14.9904    0.7500    0.0000 C   0  0  0  0  0  0  0  0  0  0  0  0
   12.3923    8.2500    0.0000 C   0  0  0  0  0  0  0  0  0  0  0  0
   23.6506    6.7500    0.0000 C   0  0  0  0  0  0  0  0  0  0  0  0
   14.9904    1.7500    0.0000 C   0  0  0  0  0  0  0  0  0  0  0  0
   13.2583    7.7500    0.0000 C   0  0  0  0  0  0  0  0  0  0  0  0
   22.7846    6.2500    0.0000 C   0  0  0  0  0  0  0  0  0  0  0  0
   32.3109    6.7500    0.0000 C   0  0  0  0  0  0  0  0  0  0  0  0
    3.7320    8.2500    0.0000 C   0  0  0  0  0  0  0  0  0  0  0  0
   10.6603   -6.7500    0.0000 C   0  0  0  0  0  0  0  0  0  0  0  0
   14.1244    0.2500    0.0000 C   0  0  0  0  0  0  0  0  0  0  0  0
   11.5263    7.7500    0.0000 C   0  0  0  0  0  0  0  0  0  0  0  0
   24.5167    6.2500    0.0000 C   0  0  0  0  0  0  0  0  0  0  0  0
   27.9808    6.2500    0.0000 C   0  0  0  0  0  0  0  0  0  0  0  0
    8.0622    7.7500    0.0000 C   0  0  0  0  0  0  0  0  0  0  0  0
   12.3923   -2.7500    0.0000 C   0  0  0  0  0  0  0  0  0  0  0  0
   15.8564    2.2500    0.0000 C   0  0  0  0  0  0  0  0  0  0  0  0
   14.1244    8.2500    0.0000 C   0  0  0  0  0  0  0  0  0  0  0  0
   21.9186    6.7500    0.0000 C   0  0  0  0  0  0  0  0  0  0  0  0
   25.3827    6.7500    0.0000 C   0  0  0  0  0  0  0  0  0  0  0  0
   10.6603    8.2500    0.0000 C   0  0  0  0  0  0  0  0  0  0  0  0
   14.1244   -0.7500    0.0000 C   0  0  0  0  0  0  0  0  0  0  0  0
   33.1769    6.2500    0.0000 C   0  0  0  0  0  0  0  0  0  0  0  0
    2.8660    7.7500    0.0000 C   0  0  0  0  0  0  0  0  0  0  0  0
    9.7942   -7.2500    0.0000 C   0  0  0  0  0  0  0  0  0  0  0  0
   21.0526    6.2500    0.0000 C   0  0  0  0  0  0  0  0  0  0  0  0
   14.9904    7.7500    0.0000 C   0  0  0  0  0  0  0  0  0  0  0  0
   15.8564    3.2500    0.0000 C   0  0  0  0  0  0  0  0  0  0  0  0
   27.1147    6.7500    0.0000 C   0  0  0  0  0  0  0  0  0  0  0  0
    8.9282    8.2500    0.0000 C   0  0  0  0  0  0  0  0  0  0  0  0
   13.2583   -2.2500    0.0000 C   0  0  0  0  0  0  0  0  0  0  0  0
   26.2487    6.2500    0.0000 C   0  0  0  0  0  0  0  0  0  0  0  0
    9.7942    7.7500    0.0000 C   0  0  0  0  0  0  0  0  0  0  0  0
   13.2583   -1.2500    0.0000 C   0  0  0  0  0  0  0  0  0  0  0  0
   16.7224    3.7500    0.0000 C   0  0  0  0  0  0  0  0  0  0  0  0
   15.8564    8.2500    0.0000 C   0  0  0  0  0  0  0  0  0  0  0  0
   20.1865    6.7500    0.0000 C   0  0  0  0  0  0  0  0  0  0  0  0
    9.7942   -8.2500    0.0000 C   0  0  0  0  0  0  0  0  0  0  0  0
    2.0000    8.2500    0.0000 C   0  0  0  0  0  0  0  0  0  0  0  0
   34.0429    6.7500    0.0000 C   0  0  0  0  0  0  0  0  0  0  0  0
   19.3205    6.2500    0.0000 C   0  0  0  0  0  0  0  0  0  0  0  0
   16.7224    7.7500    0.0000 C   0  0  0  0  0  0  0  0  0  0  0  0
   16.7224    4.7500    0.0000 C   0  0  0  0  0  0  0  0  0  0  0  0
   11.7383   -5.8326    0.0000 H   0  0  0  0  0  0  0  0  0  0  0  0
   12.1369   -5.1423    0.0000 H   0  0  0  0  0  0  0  0  0  0  0  0
    5.8626    8.7250    0.0000 H   0  0  0  0  0  0  0  0  0  0  0  0
    5.0656    8.7250    0.0000 H   0  0  0  0  0  0  0  0  0  0  0  0
   30.9774    7.2250    0.0000 H   0  0  0  0  0  0  0  0  0  0  0  0
   30.1803    7.2250    0.0000 H   0  0  0  0  0  0  0  0  0  0  0  0
   29.3143    5.7750    0.0000 H   0  0  0  0  0  0  0  0  0  0  0  0
   30.1113    5.7750    0.0000 H   0  0  0  0  0  0  0  0  0  0  0  0
    5.9316    7.2750    0.0000 H   0  0  0  0  0  0  0  0  0  0  0  0
    6.7287    7.2750    0.0000 H   0  0  0  0  0  0  0  0  0  0  0  0
   11.3142   -3.6674    0.0000 H   0  0  0  0  0  0  0  0  0  0  0  0
   10.9157   -4.3577    0.0000 H   0  0  0  0  0  0  0  0  0  0  0  0
   31.0463    5.7750    0.0000 H   0  0  0  0  0  0  0  0  0  0  0  0
   31.8434    5.7750    0.0000 H   0  0  0  0  0  0  0  0  0  0  0  0
    4.1996    7.2750    0.0000 H   0  0  0  0  0  0  0  0  0  0  0  0
    4.9966    7.2750    0.0000 H   0  0  0  0  0  0  0  0  0  0  0  0
   10.4482   -5.1674    0.0000 H   0  0  0  0  0  0  0  0  0  0  0  0
   10.0497   -5.8577    0.0000 H   0  0  0  0  0  0  0  0  0  0  0  0
   29.2453    7.2250    0.0000 H   0  0  0  0  0  0  0  0  0  0  0  0
   28.4483    7.2250    0.0000 H   0  0  0  0  0  0  0  0  0  0  0  0
    7.5947    8.7250    0.0000 H   0  0  0  0  0  0  0  0  0  0  0  0
    6.7976    8.7250    0.0000 H   0  0  0  0  0  0  0  0  0  0  0  0
   12.6044   -4.3326    0.0000 H   0  0  0  0  0  0  0  0  0  0  0  0
   13.0029   -3.6423    0.0000 H   0  0  0  0  0  0  0  0  0  0  0  0
   24.0492    7.2250    0.0000 H   0  0  0  0  0  0  0  0  0  0  0  0
   23.2521    7.2250    0.0000 H   0  0  0  0  0  0  0  0  0  0  0  0
   12.7908    8.7250    0.0000 H   0  0  0  0  0  0  0  0  0  0  0  0
   11.9938    8.7250    0.0000 H   0  0  0  0  0  0  0  0  0  0  0  0
   15.2024    0.1674    0.0000 H   0  0  0  0  0  0  0  0  0  0  0  0
   15.6010    0.8577    0.0000 H   0  0  0  0  0  0  0  0  0  0  0  0
   22.3861    5.7750    0.0000 H   0  0  0  0  0  0  0  0  0  0  0  0
   23.1831    5.7750    0.0000 H   0  0  0  0  0  0  0  0  0  0  0  0
   12.8598    7.2750    0.0000 H   0  0  0  0  0  0  0  0  0  0  0  0
   13.6569    7.2750    0.0000 H   0  0  0  0  0  0  0  0  0  0  0  0
   14.7783    2.3326    0.0000 H   0  0  0  0  0  0  0  0  0  0  0  0
   14.3798    1.6423    0.0000 H   0  0  0  0  0  0  0  0  0  0  0  0
   10.8723   -7.3326    0.0000 H   0  0  0  0  0  0  0  0  0  0  0  0
   11.2708   -6.6423    0.0000 H   0  0  0  0  0  0  0  0  0  0  0  0
    4.1306    8.7250    0.0000 H   0  0  0  0  0  0  0  0  0  0  0  0
    3.3335    8.7250    0.0000 H   0  0  0  0  0  0  0  0  0  0  0  0
   32.7094    7.2250    0.0000 H   0  0  0  0  0  0  0  0  0  0  0  0
   31.9124    7.2250    0.0000 H   0  0  0  0  0  0  0  0  0  0  0  0
   13.9123    0.8326    0.0000 H   0  0  0  0  0  0  0  0  0  0  0  0
   13.5138    0.1423    0.0000 H   0  0  0  0  0  0  0  0  0  0  0  0
   11.1278    7.2750    0.0000 H   0  0  0  0  0  0  0  0  0  0  0  0
   11.9248    7.2750    0.0000 H   0  0  0  0  0  0  0  0  0  0  0  0
   24.1181    5.7750    0.0000 H   0  0  0  0  0  0  0  0  0  0  0  0
   24.9152    5.7750    0.0000 H   0  0  0  0  0  0  0  0  0  0  0  0
   27.5822    5.7750    0.0000 H   0  0  0  0  0  0  0  0  0  0  0  0
   28.3793    5.7750    0.0000 H   0  0  0  0  0  0  0  0  0  0  0  0
    7.6636    7.2750    0.0000 H   0  0  0  0  0  0  0  0  0  0  0  0
    8.4607    7.2750    0.0000 H   0  0  0  0  0  0  0  0  0  0  0  0
   12.1803   -2.1674    0.0000 H   0  0  0  0  0  0  0  0  0  0  0  0
   11.7817   -2.8577    0.0000 H   0  0  0  0  0  0  0  0  0  0  0  0
   22.3171    7.2250    0.0000 H   0  0  0  0  0  0  0  0  0  0  0  0
   21.5201    7.2250    0.0000 H   0  0  0  0  0  0  0  0  0  0  0  0
   14.5229    8.7250    0.0000 H   0  0  0  0  0  0  0  0  0  0  0  0
   13.7258    8.7250    0.0000 H   0  0  0  0  0  0  0  0  0  0  0  0
   16.0685    1.6674    0.0000 H   0  0  0  0  0  0  0  0  0  0  0  0
   16.4670    2.3577    0.0000 H   0  0  0  0  0  0  0  0  0  0  0  0
   25.7812    7.2250    0.0000 H   0  0  0  0  0  0  0  0  0  0  0  0
   24.9842    7.2250    0.0000 H   0  0  0  0  0  0  0  0  0  0  0  0
   11.0588    8.7250    0.0000 H   0  0  0  0  0  0  0  0  0  0  0  0
   10.2617    8.7250    0.0000 H   0  0  0  0  0  0  0  0  0  0  0  0
   14.3364   -1.3326    0.0000 H   0  0  0  0  0  0  0  0  0  0  0  0
   14.7349   -0.6423    0.0000 H   0  0  0  0  0  0  0  0  0  0  0  0
    9.5822   -6.6674    0.0000 H   0  0  0  0  0  0  0  0  0  0  0  0
    9.1836   -7.3577    0.0000 H   0  0  0  0  0  0  0  0  0  0  0  0
    2.4675    7.2750    0.0000 H   0  0  0  0  0  0  0  0  0  0  0  0
    3.2646    7.2750    0.0000 H   0  0  0  0  0  0  0  0  0  0  0  0
   32.7784    5.7750    0.0000 H   0  0  0  0  0  0  0  0  0  0  0  0
   33.5754    5.7750    0.0000 H   0  0  0  0  0  0  0  0  0  0  0  0
   15.6444    3.8326    0.0000 H   0  0  0  0  0  0  0  0  0  0  0  0
   15.2458    3.1423    0.0000 H   0  0  0  0  0  0  0  0  0  0  0  0
   14.5919    7.2750    0.0000 H   0  0  0  0  0  0  0  0  0  0  0  0
   15.3889    7.2750    0.0000 H   0  0  0  0  0  0  0  0  0  0  0  0
   20.6540    5.7750    0.0000 H   0  0  0  0  0  0  0  0  0  0  0  0
   21.4511    5.7750    0.0000 H   0  0  0  0  0  0  0  0  0  0  0  0
   27.1147    7.3700    0.0000 H   0  0  0  0  0  0  0  0  0  0  0  0
    8.9282    8.8700    0.0000 H   0  0  0  0  0  0  0  0  0  0  0  0
   13.7953   -2.5600    0.0000 H   0  0  0  0  0  0  0  0  0  0  0  0
   26.2487    5.6300    0.0000 H   0  0  0  0  0  0  0  0  0  0  0  0
    9.7942    7.1300    0.0000 H   0  0  0  0  0  0  0  0  0  0  0  0
   12.7214   -0.9400    0.0000 H   0  0  0  0  0  0  0  0  0  0  0  0
   20.5851    7.2250    0.0000 H   0  0  0  0  0  0  0  0  0  0  0  0
   19.7880    7.2250    0.0000 H   0  0  0  0  0  0  0  0  0  0  0  0
   16.2549    8.7250    0.0000 H   0  0  0  0  0  0  0  0  0  0  0  0
   15.4579    8.7250    0.0000 H   0  0  0  0  0  0  0  0  0  0  0  0
   16.9345    3.1674    0.0000 H   0  0  0  0  0  0  0  0  0  0  0  0
   17.3330    3.8577    0.0000 H   0  0  0  0  0  0  0  0  0  0  0  0
   34.3529    6.2131    0.0000 H   0  0  0  0  0  0  0  0  0  0  0  0
   34.5799    7.0600    0.0000 H   0  0  0  0  0  0  0  0  0  0  0  0
   33.7329    7.2869    0.0000 H   0  0  0  0  0  0  0  0  0  0  0  0
    2.3100    8.7869    0.0000 H   0  0  0  0  0  0  0  0  0  0  0  0
    1.4631    8.5600    0.0000 H   0  0  0  0  0  0  0  0  0  0  0  0
    1.6900    7.7131    0.0000 H   0  0  0  0  0  0  0  0  0  0  0  0
    9.1742   -8.2500    0.0000 H   0  0  0  0  0  0  0  0  0  0  0  0
    9.7942   -8.8700    0.0000 H   0  0  0  0  0  0  0  0  0  0  0  0
   10.4142   -8.2500    0.0000 H   0  0  0  0  0  0  0  0  0  0  0  0
  2 59  1  0  0  0  0
  3 60  1  0  0  0  0
  4 61  1  0  0  0  0
  5 59  2  0  0  0  0
  6 60  2  0  0  0  0
  7 61  2  0  0  0  0
  8 11  1  0  0  0  0
  8 14  1  0  0  0  0
  8 66  1  0  0  0  0
  8 67  1  0  0  0  0
  9 12  1  0  0  0  0
  9 15  1  0  0  0  0
  9 64  1  0  0  0  0
  9 65  1  0  0  0  0
 10 13  1  0  0  0  0
 10 16  1  0  0  0  0
 10 62  1  0  0  0  0
 10 63  1  0  0  0  0
 11 17  1  0  0  0  0
 11 68  1  0  0  0  0
 11 69  1  0  0  0  0
 12 18  1  0  0  0  0
 12 70  1  0  0  0  0
 12 71  1  0  0  0  0
 13 19  1  0  0  0  0
 13 72  1  0  0  0  0
 13 73  1  0  0  0  0
 14 26  1  0  0  0  0
 14 74  1  0  0  0  0
 14 75  1  0  0  0  0
 15 27  1  0  0  0  0
 15 76  1  0  0  0  0
 15 77  1  0  0  0  0
 16 28  1  0  0  0  0
 16 78  1  0  0  0  0
 16 79  1  0  0  0  0
 17 32  1  0  0  0  0
 17 80  1  0  0  0  0
 17 81  1  0  0  0  0
 18 33  1  0  0  0  0
 18 82  1  0  0  0  0
 18 83  1  0  0  0  0
 19 34  1  0  0  0  0
 19 84  1  0  0  0  0
 19 85  1  0  0  0  0
 20 23  1  0  0  0  0
 20 29  1  0  0  0  0
 20 90  1  0  0  0  0
 20 91  1  0  0  0  0
 21 24  1  0  0  0  0
 21 30  1  0  0  0  0
 21 88  1  0  0  0  0
 21 89  1  0  0  0  0
 22 25  1  0  0  0  0
 22 31  1  0  0  0  0
 22 86  1  0  0  0  0
 22 87  1  0  0  0  0
 23 35  1  0  0  0  0
 23 96  1  0  0  0  0
 23 97  1  0  0  0  0
 24 36  1  0  0  0  0
 24 94  1  0  0  0  0
 24 95  1  0  0  0  0
 25 37  1  0  0  0  0
 25 92  1  0  0  0  0
 25 93  1  0  0  0  0
 26 41  1  0  0  0  0
 26102  1  0  0  0  0
 26103  1  0  0  0  0
 27 42  1  0  0  0  0
 27100  1  0  0  0  0
 27101  1  0  0  0  0
 28 43  1  0  0  0  0
 28 98  1  0  0  0  0
 28 99  1  0  0  0  0
 29 40  1  0  0  0  0
 29104  1  0  0  0  0
 29105  1  0  0  0  0
 30 39  1  0  0  0  0
 30106  1  0  0  0  0
 30107  1  0  0  0  0
 31 38  1  0  0  0  0
 31108  1  0  0  0  0
 31109  1  0  0  0  0
 32 47  1  0  0  0  0
 32110  1  0  0  0  0
 32111  1  0  0  0  0
 33 48  1  0  0  0  0
 33112  1  0  0  0  0
 33113  1  0  0  0  0
 34 49  1  0  0  0  0
 34114  1  0  0  0  0
 34115  1  0  0  0  0
 35 46  1  0  0  0  0
 35120  1  0  0  0  0
 35121  1  0  0  0  0
 36 45  1  0  0  0  0
 36118  1  0  0  0  0
 36119  1  0  0  0  0
 37 44  1  0  0  0  0
 37116  1  0  0  0  0
 37117  1  0  0  0  0
 38 50  1  0  0  0  0
 38122  1  0  0  0  0
 38123  1  0  0  0  0
 39 51  1  0  0  0  0
 39124  1  0  0  0  0
 39125  1  0  0  0  0
 40 52  1  0  0  0  0
 40126  1  0  0  0  0
 40127  1  0  0  0  0
 41 58  1  0  0  0  0
 41132  1  0  0  0  0
 41133  1  0  0  0  0
 42 57  1  0  0  0  0
 42130  1  0  0  0  0
 42131  1  0  0  0  0
 43 56  1  0  0  0  0
 43128  1  0  0  0  0
 43129  1  0  0  0  0
 44 55  1  0  0  0  0
 44138  1  0  0  0  0
 44139  1  0  0  0  0
 45 54  1  0  0  0  0
 45136  1  0  0  0  0
 45137  1  0  0  0  0
 46 53  1  0  0  0  0
 46134  1  0  0  0  0
 46135  1  0  0  0  0
 47 50  2  3  0  0  0
 47140  1  0  0  0  0
 48 51  2  3  0  0  0
 48141  1  0  0  0  0
 49 52  2  3  0  0  0
 49142  1  0  0  0  0
 50143  1  0  0  0  0
 51144  1  0  0  0  0
 52145  1  0  0  0  0
 53 61  1  0  0  0  0
 53150  1  0  0  0  0
 53151  1  0  0  0  0
 54 60  1  0  0  0  0
 54148  1  0  0  0  0
 54149  1  0  0  0  0
 55 59  1  0  0  0  0
 55146  1  0  0  0  0
 55147  1  0  0  0  0
 56158  1  0  0  0  0
 56159  1  0  0  0  0
 56160  1  0  0  0  0
 57155  1  0  0  0  0
 57156  1  0  0  0  0
 57157  1  0  0  0  0
 58152  1  0  0  0  0
 58153  1  0  0  0  0
 58154  1  0  0  0  0
M  CHG  4   1   3   2  -1   3  -1   4  -1
M  END
> <PUBCHEM_COMPOUND_CID>
12710

> <PUBCHEM_COMPOUND_CANONICALIZED>
1

> <PUBCHEM_CACTVS_COMPLEXITY>
228

> <PUBCHEM_CACTVS_HBOND_ACCEPTOR>
6

> <PUBCHEM_CACTVS_HBOND_DONOR>
0

> <PUBCHEM_CACTVS_ROTATABLE_BOND>
42

> <PUBCHEM_CACTVS_SUBSKEYS>
AAADcfB8OAAAABAAAAAAAAAAAAAAAAAAAAAAAAAAAAAAAAAAAAAAGgAAAAAACACAgAACCAAAAACIACDSCAAAAAAgAAAICAEAAAgAABIAAQAAAAAEgAAIAAOIyKCAAAAAAAAAAAAAAAAAAAAAAAAAAAAAAA==

> <PUBCHEM_IUPAC_OPENEYE_NAME>
aluminum octadec-9-enoate

> <PUBCHEM_IUPAC_CAS_NAME>
aluminum 9-octadecenoate

> <PUBCHEM_IUPAC_NAME>
aluminum octadec-9-enoate

> <PUBCHEM_IUPAC_SYSTEMATIC_NAME>
aluminum octadec-9-enoate

> <PUBCHEM_IUPAC_TRADITIONAL_NAME>
aluminum octadec-9-enoate

> <PUBCHEM_IUPAC_INCHI>
InChI=1S/3C18H34O2.Al/c3*1-2-3-4-5-6-7-8-9-10-11-12-13-14-15-16-17-18(19)20;/h3*9-10H,2-8,11-17H2,1H3,(H,19,20);/q;;;+3/p-3

> <PUBCHEM_IUPAC_INCHIKEY>
IKCOOALACZVGLI-UHFFFAOYSA-K

> <PUBCHEM_EXACT_MASS>
870.725705

> <PUBCHEM_MOLECULAR_FORMULA>
C54H99AlO6

> <PUBCHEM_MOLECULAR_WEIGHT>
871.341799

> <PUBCHEM_OPENEYE_CAN_SMILES>
CCCCCCCCC=CCCCCCCCC(=O)[O-].CCCCCCCCC=CCCCCCCCC(=O)[O-].CCCCCCCCC=CCCCCCCCC(=O)[O-].[Al+3]

> <PUBCHEM_OPENEYE_ISO_SMILES>
CCCCCCCCC=CCCCCCCCC(=O)[O-].CCCCCCCCC=CCCCCCCCC(=O)[O-].CCCCCCCCC=CCCCCCCCC(=O)[O-].[Al+3]

> <PUBCHEM_CACTVS_TPSA>
120

> <PUBCHEM_MONOISOTOPIC_WEIGHT>
870.725705

> <PUBCHEM_TOTAL_CHARGE>
0

> <PUBCHEM_HEAVY_ATOM_COUNT>
61

> <PUBCHEM_ATOM_DEF_STEREO_COUNT>
0

> <PUBCHEM_ATOM_UDEF_STEREO_COUNT>
0

> <PUBCHEM_BOND_DEF_STEREO_COUNT>
0

> <PUBCHEM_BOND_UDEF_STEREO_COUNT>
3

> <PUBCHEM_ISOTOPIC_ATOM_COUNT>
0

> <PUBCHEM_COMPONENT_COUNT>
4

> <PUBCHEM_CACTVS_TAUTO_COUNT>
1

> <PUBCHEM_COORDINATE_TYPE>
1
5
255

> <PUBCHEM_BONDANNOTATIONS>
47  50  1
48  51  1
49  52  1

$$$$

