586257
  -OEChem-06241222462D

 28 29  0     1  0  0  0  0  0999 V2000
    2.4888    0.4571    0.0000 Br  0  0  0  0  0  0  0  0  0  0  0  0
    5.0298   -1.1307    0.0000 O   0  0  0  0  0  0  0  0  0  0  0  0
    2.4608   -0.8216    0.0000 O   0  0  0  0  0  0  0  0  0  0  0  0
    3.1330   -2.8907    0.0000 O   0  0  0  0  0  0  0  0  0  0  0  0
    6.3031   -2.7862    0.0000 O   0  0  0  0  0  0  0  0  0  0  0  0
    4.2208    3.4571    0.0000 O   0  0  0  0  0  0  0  0  0  0  0  0
    4.2208    0.4571    0.0000 N   0  0  0  0  0  0  0  0  0  0  0  0
    3.3548    1.9571    0.0000 N   0  0  0  0  0  0  0  0  0  0  0  0
    3.4118   -1.1307    0.0000 C   0  0  3  0  0  0  0  0  0  0  0  0
    3.7208   -2.0817    0.0000 C   0  0  3  0  0  0  0  0  0  0  0  0
    4.2208   -0.5429    0.0000 C   0  0  3  0  0  0  0  0  0  0  0  0
    4.7208   -2.0817    0.0000 C   0  0  3  0  0  0  0  0  0  0  0  0
    5.3086   -2.8907    0.0000 C   0  0  0  0  0  0  0  0  0  0  0  0
    5.0868    0.9571    0.0000 C   0  0  0  0  0  0  0  0  0  0  0  0
    3.3548    0.9571    0.0000 C   0  0  0  0  0  0  0  0  0  0  0  0
    5.0868    1.9571    0.0000 C   0  0  0  0  0  0  0  0  0  0  0  0
    4.2208    2.4571    0.0000 C   0  0  0  0  0  0  0  0  0  0  0  0
    2.8108   -1.7317    0.0000 H   0  0  0  0  0  0  0  0  0  0  0  0
    2.8813   -1.9487    0.0000 H   0  0  0  0  0  0  0  0  0  0  0  0
    3.4635   -0.1570    0.0000 H   0  0  0  0  0  0  0  0  0  0  0  0
    5.5604   -1.9487    0.0000 H   0  0  0  0  0  0  0  0  0  0  0  0
    4.7514   -3.1625    0.0000 H   0  0  0  0  0  0  0  0  0  0  0  0
    5.4795   -3.4867    0.0000 H   0  0  0  0  0  0  0  0  0  0  0  0
    2.0000   -1.2365    0.0000 H   0  0  0  0  0  0  0  0  0  0  0  0
    3.3852   -3.4571    0.0000 H   0  0  0  0  0  0  0  0  0  0  0  0
    5.6238    0.6471    0.0000 H   0  0  0  0  0  0  0  0  0  0  0  0
    6.6676   -3.2878    0.0000 H   0  0  0  0  0  0  0  0  0  0  0  0
    5.6238    2.2671    0.0000 H   0  0  0  0  0  0  0  0  0  0  0  0
  1 15  1  0  0  0  0
  2 11  1  0  0  0  0
  2 12  1  0  0  0  0
  3  9  1  0  0  0  0
  3 24  1  0  0  0  0
  4 10  1  0  0  0  0
  4 25  1  0  0  0  0
  5 13  1  0  0  0  0
  5 27  1  0  0  0  0
  6 17  2  0  0  0  0
  7 11  1  0  0  0  0
  7 14  1  0  0  0  0
  7 15  1  0  0  0  0
  8 15  2  0  0  0  0
  8 17  1  0  0  0  0
  9 10  1  0  0  0  0
  9 11  1  0  0  0  0
  9 18  1  0  0  0  0
 10 12  1  0  0  0  0
 10 19  1  0  0  0  0
 11 20  1  0  0  0  0
 12 13  1  0  0  0  0
 12 21  1  0  0  0  0
 13 22  1  0  0  0  0
 13 23  1  0  0  0  0
 14 16  2  0  0  0  0
 14 26  1  0  0  0  0
 16 17  1  0  0  0  0
 16 28  1  0  0  0  0
M  END
> <PUBCHEM_COMPOUND_CID>
586257

> <PUBCHEM_COMPOUND_CANONICALIZED>
1

> <PUBCHEM_CACTVS_COMPLEXITY>
386

> <PUBCHEM_CACTVS_HBOND_ACCEPTOR>
5

> <PUBCHEM_CACTVS_HBOND_DONOR>
3

> <PUBCHEM_CACTVS_ROTATABLE_BOND>
2

> <PUBCHEM_CACTVS_SUBSKEYS>
AAADccBzOAAAEAAAAAAAAAAAAAAAASAAAAAgAAAAAAAAAAAAAAAAHgBACAAACBThgAYBAAMABgCoACFWdACAAAEAAgAJAAAIAEADEAIAiAAOQAAHAAATAMDwMAIAAAAAAAAAAAAAAAAAAAAAAAAAAAAAAA==

> <PUBCHEM_IUPAC_OPENEYE_NAME>
2-bromo-1-[3,4-dihydroxy-5-(hydroxymethyl)tetrahydrofuran-2-yl]pyrimidin-4-one

> <PUBCHEM_IUPAC_CAS_NAME>
2-bromo-1-[3,4-dihydroxy-5-(hydroxymethyl)-2-oxolanyl]-4-pyrimidinone

> <PUBCHEM_IUPAC_NAME>
2-bromo-1-[3,4-dihydroxy-5-(hydroxymethyl)oxolan-2-yl]pyrimidin-4-one

> <PUBCHEM_IUPAC_SYSTEMATIC_NAME>
2-bromanyl-1-[5-(hydroxymethyl)-3,4-bis(oxidanyl)oxolan-2-yl]pyrimidin-4-one

> <PUBCHEM_IUPAC_TRADITIONAL_NAME>
2-bromo-1-(3,4-dihydroxy-5-methylol-tetrahydrofuran-2-yl)pyrimidin-4-one

> <PUBCHEM_IUPAC_INCHI>
InChI=1S/C9H11BrN2O5/c10-9-11-5(14)1-2-12(9)8-7(16)6(15)4(3-13)17-8/h1-2,4,6-8,13,15-16H,3H2

> <PUBCHEM_IUPAC_INCHIKEY>
ULHXNSJNYQYSKT-UHFFFAOYSA-N

> <PUBCHEM_XLOGP3>
-0.4

> <PUBCHEM_EXACT_MASS>
305.985134

> <PUBCHEM_MOLECULAR_FORMULA>
C9H11BrN2O5

> <PUBCHEM_MOLECULAR_WEIGHT>
307.09804

> <PUBCHEM_OPENEYE_CAN_SMILES>
C1=CN(C(=NC1=O)Br)C2C(C(C(O2)CO)O)O

> <PUBCHEM_OPENEYE_ISO_SMILES>
C1=CN(C(=NC1=O)Br)C2C(C(C(O2)CO)O)O

> <PUBCHEM_CACTVS_TPSA>
103

> <PUBCHEM_MONOISOTOPIC_WEIGHT>
305.985134

> <PUBCHEM_TOTAL_CHARGE>
0

> <PUBCHEM_HEAVY_ATOM_COUNT>
17

> <PUBCHEM_ATOM_DEF_STEREO_COUNT>
0

> <PUBCHEM_ATOM_UDEF_STEREO_COUNT>
4

> <PUBCHEM_BOND_DEF_STEREO_COUNT>
0

> <PUBCHEM_BOND_UDEF_STEREO_COUNT>
0

> <PUBCHEM_ISOTOPIC_ATOM_COUNT>
0

> <PUBCHEM_COMPONENT_COUNT>
1

> <PUBCHEM_CACTVS_TAUTO_COUNT>
1

> <PUBCHEM_COORDINATE_TYPE>
1
5
255

> <PUBCHEM_BONDANNOTATIONS>
10  19  3
11  20  3
12  21  3
14  16  8
16  17  8
7  14  8
7  15  8
8  15  8
8  17  8
9  18  3

$$$$

