4412
  -OEChem-06261200062D

 76 80  0     1  0  0  0  0  0999 V2000
   13.5257   -3.7428    0.0000 P   0  0  0  0  0  0  0  0  0  0  0  0
    9.2622   -0.1353    0.0000 P   0  0  3  0  0  0  0  0  0  0  0  0
    7.9770    1.0259    0.0000 P   0  0  3  0  0  0  0  0  0  0  0  0
   10.2655   -3.0561    0.0000 O   0  0  0  0  0  0  0  0  0  0  0  0
    5.3089    3.3109    0.0000 O   0  0  0  0  0  0  0  0  0  0  0  0
   12.6115   -4.1480    0.0000 O   0  0  0  0  0  0  0  0  0  0  0  0
   12.6152   -1.9724    0.0000 O   0  0  0  0  0  0  0  0  0  0  0  0
    9.5695   -1.0869    0.0000 O   0  0  0  0  0  0  0  0  0  0  0  0
    5.0726    0.7341    0.0000 O   0  0  0  0  0  0  0  0  0  0  0  0
    3.1903    1.8252    0.0000 O   0  0  0  0  0  0  0  0  0  0  0  0
    6.9992    1.2355    0.0000 O   0  0  0  0  0  0  0  0  0  0  0  0
    8.9548    0.8163    0.0000 O   0  0  0  0  0  0  0  0  0  0  0  0
   14.4400   -3.3376    0.0000 O   0  0  0  0  0  0  0  0  0  0  0  0
   13.9309   -4.6570    0.0000 O   0  0  0  0  0  0  0  0  0  0  0  0
   13.1206   -2.8285    0.0000 O   0  0  0  0  0  0  0  0  0  0  0  0
    8.3106   -0.4427    0.0000 O   0  0  0  0  0  0  0  0  0  0  0  0
   10.2137    0.1721    0.0000 O   0  0  0  0  0  0  0  0  0  0  0  0
    8.1866    2.0037    0.0000 O   0  5  0  0  0  0  0  0  0  0  0  0
    7.7674    0.0481    0.0000 O   0  0  0  0  0  0  0  0  0  0  0  0
    4.5783    6.8040    0.0000 O   0  0  0  0  0  0  0  0  0  0  0  0
   10.5412   -4.8166    0.0000 N   0  0  0  0  0  0  0  0  0  0  0  0
    3.6464    3.9524    0.0000 N   0  3  0  0  0  0  0  0  0  0  0  0
   10.5412   -6.4261    0.0000 N   0  0  0  0  0  0  0  0  0  0  0  0
    8.7290   -4.6214    0.0000 N   0  0  0  0  0  0  0  0  0  0  0  0
    7.8630   -6.1214    0.0000 N   0  0  0  0  0  0  0  0  0  0  0  0
    8.7290   -7.6214    0.0000 N   0  0  0  0  0  0  0  0  0  0  0  0
    2.9320    7.3421    0.0000 N   0  0  0  0  0  0  0  0  0  0  0  0
   11.8035   -3.5588    0.0000 C   0  0  3  0  0  0  0  0  0  0  0  0
   11.8052   -2.5588    0.0000 C   0  0  3  0  0  0  0  0  0  0  0  0
   10.8519   -3.8661    0.0000 C   0  0  3  0  0  0  0  0  0  0  0  0
   10.8547   -2.2481    0.0000 C   0  0  3  0  0  0  0  0  0  0  0  0
    4.9698    1.7288    0.0000 C   0  0  3  0  0  0  0  0  0  0  0  0
    4.1046    2.2303    0.0000 C   0  0  3  0  0  0  0  0  0  0  0  0
    5.7140    2.3967    0.0000 C   0  0  3  0  0  0  0  0  0  0  0  0
    4.3142    3.2081    0.0000 C   0  0  3  0  0  0  0  0  0  0  0  0
   10.5473   -1.2965    0.0000 C   0  0  0  0  0  0  0  0  0  0  0  0
    6.6918    2.1871    0.0000 C   0  0  0  0  0  0  0  0  0  0  0  0
    9.5950   -5.1214    0.0000 C   0  0  0  0  0  0  0  0  0  0  0  0
   11.1248   -5.6214    0.0000 C   0  0  0  0  0  0  0  0  0  0  0  0
    9.5950   -6.1214    0.0000 C   0  0  0  0  0  0  0  0  0  0  0  0
    3.9570    4.9029    0.0000 C   0  0  0  0  0  0  0  0  0  0  0  0
    2.6678    3.7462    0.0000 C   0  0  0  0  0  0  0  0  0  0  0  0
    3.2892    5.6472    0.0000 C   0  0  0  0  0  0  0  0  0  0  0  0
    8.7290   -6.6214    0.0000 C   0  0  0  0  0  0  0  0  0  0  0  0
    2.0000    4.4905    0.0000 C   0  0  0  0  0  0  0  0  0  0  0  0
    2.3107    5.4410    0.0000 C   0  0  0  0  0  0  0  0  0  0  0  0
    7.8630   -5.1214    0.0000 C   0  0  0  0  0  0  0  0  0  0  0  0
    3.5998    6.5978    0.0000 C   0  0  0  0  0  0  0  0  0  0  0  0
   11.7054   -4.1710    0.0000 H   0  0  0  0  0  0  0  0  0  0  0  0
   12.3571   -2.8412    0.0000 H   0  0  0  0  0  0  0  0  0  0  0  0
   11.2895   -4.3053    0.0000 H   0  0  0  0  0  0  0  0  0  0  0  0
   10.2425   -2.1500    0.0000 H   0  0  0  0  0  0  0  0  0  0  0  0
    5.5482    1.5056    0.0000 H   0  0  0  0  0  0  0  0  0  0  0  0
    3.6234    2.6213    0.0000 H   0  0  0  0  0  0  0  0  0  0  0  0
    6.1051    2.8778    0.0000 H   0  0  0  0  0  0  0  0  0  0  0  0
    4.5374    3.7866    0.0000 H   0  0  0  0  0  0  0  0  0  0  0  0
   11.1614   -1.2113    0.0000 H   0  0  0  0  0  0  0  0  0  0  0  0
   10.5700   -0.6769    0.0000 H   0  0  0  0  0  0  0  0  0  0  0  0
    7.3060    2.2723    0.0000 H   0  0  0  0  0  0  0  0  0  0  0  0
    6.7146    2.8067    0.0000 H   0  0  0  0  0  0  0  0  0  0  0  0
   12.5515   -1.3557    0.0000 H   0  0  0  0  0  0  0  0  0  0  0  0
   11.7448   -5.6214    0.0000 H   0  0  0  0  0  0  0  0  0  0  0  0
    4.5703    0.3706    0.0000 H   0  0  0  0  0  0  0  0  0  0  0  0
    3.1245    1.2087    0.0000 H   0  0  0  0  0  0  0  0  0  0  0  0
    4.5637    5.0308    0.0000 H   0  0  0  0  0  0  0  0  0  0  0  0
    2.4752    3.1569    0.0000 H   0  0  0  0  0  0  0  0  0  0  0  0
    1.3933    4.3626    0.0000 H   0  0  0  0  0  0  0  0  0  0  0  0
    1.8966    5.9025    0.0000 H   0  0  0  0  0  0  0  0  0  0  0  0
   14.9409   -3.7029    0.0000 H   0  0  0  0  0  0  0  0  0  0  0  0
   14.5474   -4.7229    0.0000 H   0  0  0  0  0  0  0  0  0  0  0  0
    7.3260   -4.8114    0.0000 H   0  0  0  0  0  0  0  0  0  0  0  0
    8.1806   -1.0489    0.0000 H   0  0  0  0  0  0  0  0  0  0  0  0
    8.1920   -7.9314    0.0000 H   0  0  0  0  0  0  0  0  0  0  0  0
    9.2659   -7.9314    0.0000 H   0  0  0  0  0  0  0  0  0  0  0  0
    3.1246    7.9314    0.0000 H   0  0  0  0  0  0  0  0  0  0  0  0
    2.3253    7.2142    0.0000 H   0  0  0  0  0  0  0  0  0  0  0  0
  1  6  1  0  0  0  0
  1 13  1  0  0  0  0
  1 14  1  0  0  0  0
  1 15  2  0  0  0  0
  2  8  1  0  0  0  0
  2 12  1  0  0  0  0
  2 16  1  0  0  0  0
  2 17  2  0  0  0  0
  3 11  1  0  0  0  0
  3 12  1  0  0  0  0
  3 18  1  0  0  0  0
  3 19  2  0  0  0  0
  4 30  1  0  0  0  0
  4 31  1  0  0  0  0
  5 34  1  0  0  0  0
  5 35  1  0  0  0  0
  6 28  1  0  0  0  0
  7 29  1  0  0  0  0
  7 61  1  0  0  0  0
  8 36  1  0  0  0  0
  9 32  1  0  0  0  0
  9 63  1  0  0  0  0
 10 33  1  0  0  0  0
 10 64  1  0  0  0  0
 11 37  1  0  0  0  0
 13 69  1  0  0  0  0
 14 70  1  0  0  0  0
 16 72  1  0  0  0  0
 20 48  2  0  0  0  0
 21 30  1  0  0  0  0
 21 38  1  0  0  0  0
 21 39  1  0  0  0  0
 22 35  1  0  0  0  0
 22 41  1  0  0  0  0
 22 42  2  0  0  0  0
 23 39  2  0  0  0  0
 23 40  1  0  0  0  0
 24 38  2  0  0  0  0
 24 47  1  0  0  0  0
 25 44  1  0  0  0  0
 25 47  2  0  0  0  0
 26 44  1  0  0  0  0
 26 73  1  0  0  0  0
 26 74  1  0  0  0  0
 27 48  1  0  0  0  0
 27 75  1  0  0  0  0
 27 76  1  0  0  0  0
 28 29  1  0  0  0  0
 28 30  1  0  0  0  0
 28 49  1  0  0  0  0
 29 31  1  0  0  0  0
 29 50  1  0  0  0  0
 30 51  1  0  0  0  0
 31 36  1  0  0  0  0
 31 52  1  0  0  0  0
 32 33  1  0  0  0  0
 32 34  1  0  0  0  0
 32 53  1  0  0  0  0
 33 35  1  0  0  0  0
 33 54  1  0  0  0  0
 34 37  1  0  0  0  0
 34 55  1  0  0  0  0
 35 56  1  0  0  0  0
 36 57  1  0  0  0  0
 36 58  1  0  0  0  0
 37 59  1  0  0  0  0
 37 60  1  0  0  0  0
 38 40  1  0  0  0  0
 39 62  1  0  0  0  0
 40 44  2  0  0  0  0
 41 43  2  0  0  0  0
 41 65  1  0  0  0  0
 42 45  1  0  0  0  0
 42 66  1  0  0  0  0
 43 46  1  0  0  0  0
 43 48  1  0  0  0  0
 45 46  2  0  0  0  0
 45 67  1  0  0  0  0
 46 68  1  0  0  0  0
 47 71  1  0  0  0  0
M  CHG  2  18  -1  22   1
M  END
> <PUBCHEM_COMPOUND_CID>
4412

> <PUBCHEM_COMPOUND_CANONICALIZED>
1

> <PUBCHEM_CACTVS_COMPLEXITY>
1290

> <PUBCHEM_CACTVS_HBOND_ACCEPTOR>
21

> <PUBCHEM_CACTVS_HBOND_DONOR>
8

> <PUBCHEM_CACTVS_ROTATABLE_BOND>
13

> <PUBCHEM_CACTVS_SUBSKEYS>
AAADceB7vgMAAAAAAAAAAAAAAAAAAWJEgAAsWAAAAAAAAFgB/gAAHgAQCCAADBzhnwY98L9MFxCoQzd3dICCgC01EqAJ2CE4dNiLePrA3dGeZYhvgALbyeb4MQIMAAAAAAAAAAAAAAAAAAAAAAAAAAAAAA==

> <PUBCHEM_IUPAC_OPENEYE_NAME>
[[5-(6-aminopurin-9-yl)-3-hydroxy-4-phosphonooxy-tetrahydrofuran-2-yl]methoxy-hydroxy-phosphoryl] [5-(3-carbamoylpyridin-1-ium-1-yl)-3,4-dihydroxy-tetrahydrofuran-2-yl]methyl phosphate

> <PUBCHEM_IUPAC_CAS_NAME>
[[5-(6-aminopurin-9-yl)-3-hydroxy-4-phosphonooxy-2-oxolanyl]methoxy-hydroxyphosphoryl] [5-(3-carbamoyl-1-pyridin-1-iumyl)-3,4-dihydroxy-2-oxolanyl]methyl phosphate

> <PUBCHEM_IUPAC_NAME>
[[5-(6-aminopurin-9-yl)-3-hydroxy-4-phosphonooxyoxolan-2-yl]methoxy-hydroxyphosphoryl] [5-(3-carbamoylpyridin-1-ium-1-yl)-3,4-dihydroxyoxolan-2-yl]methyl phosphate

> <PUBCHEM_IUPAC_SYSTEMATIC_NAME>
[5-(3-aminocarbonylpyridin-1-ium-1-yl)-3,4-bis(oxidanyl)oxolan-2-yl]methyl [[5-(6-aminopurin-9-yl)-3-oxidanyl-4-phosphonooxy-oxolan-2-yl]methoxy-oxidanyl-phosphoryl] phosphate

> <PUBCHEM_IUPAC_TRADITIONAL_NAME>
[(5-adenin-9-yl-3-hydroxy-4-phosphonooxy-tetrahydrofuran-2-yl)methoxy-hydroxy-phosphoryl] [5-(3-carbamoylpyridin-1-ium-1-yl)-3,4-dihydroxy-tetrahydrofuran-2-yl]methyl phosphate

> <PUBCHEM_IUPAC_INCHI>
InChI=1S/C21H28N7O17P3/c22-17-12-19(25-7-24-17)28(8-26-12)21-16(44-46(33,34)35)14(30)11(43-21)6-41-48(38,39)45-47(36,37)40-5-10-13(29)15(31)20(42-10)27-3-1-2-9(4-27)18(23)32/h1-4,7-8,10-11,13-16,20-21,29-31H,5-6H2,(H7-,22,23,24,25,32,33,34,35,36,37,38,39)

> <PUBCHEM_IUPAC_INCHIKEY>
XJLXINKUBYWONI-UHFFFAOYSA-N

> <PUBCHEM_XLOGP3>
-7.1

> <PUBCHEM_EXACT_MASS>
743.075452

> <PUBCHEM_MOLECULAR_FORMULA>
C21H28N7O17P3

> <PUBCHEM_MOLECULAR_WEIGHT>
743.405006

> <PUBCHEM_OPENEYE_CAN_SMILES>
C1=CC(=C[N+](=C1)C2C(C(C(O2)COP(=O)([O-])OP(=O)(O)OCC3C(C(C(O3)N4C=NC5=C4N=CN=C5N)OP(=O)(O)O)O)O)O)C(=O)N

> <PUBCHEM_OPENEYE_ISO_SMILES>
C1=CC(=C[N+](=C1)C2C(C(C(O2)COP(=O)([O-])OP(=O)(O)OCC3C(C(C(O3)N4C=NC5=C4N=CN=C5N)OP(=O)(O)O)O)O)O)C(=O)N

> <PUBCHEM_CACTVS_TPSA>
368

> <PUBCHEM_MONOISOTOPIC_WEIGHT>
743.075452

> <PUBCHEM_TOTAL_CHARGE>
0

> <PUBCHEM_HEAVY_ATOM_COUNT>
48

> <PUBCHEM_ATOM_DEF_STEREO_COUNT>
0

> <PUBCHEM_ATOM_UDEF_STEREO_COUNT>
8

> <PUBCHEM_BOND_DEF_STEREO_COUNT>
0

> <PUBCHEM_BOND_UDEF_STEREO_COUNT>
0

> <PUBCHEM_ISOTOPIC_ATOM_COUNT>
0

> <PUBCHEM_COMPONENT_COUNT>
1

> <PUBCHEM_CACTVS_TAUTO_COUNT>
6

> <PUBCHEM_COORDINATE_TYPE>
1
5
255

> <PUBCHEM_BONDANNOTATIONS>
33  10  3
30  21  3
21  38  8
21  39  8
35  22  3
22  41  8
22  42  8
23  39  8
23  40  8
24  38  8
24  47  8
25  44  8
25  47  8
31  36  3
34  37  3
38  40  8
40  44  8
41  43  8
42  45  8
43  46  8
45  46  8
28  6  3
29  7  3
32  9  3

$$$$

