17396417
  -OEChem-06241222562D

 45 47  0     0  0  0  0  0  0999 V2000
    5.8412   -0.9200    0.0000 S   0  0  0  0  0  0  0  0  0  0  0  0
    3.3001   -4.5078    0.0000 O   0  0  0  0  0  0  0  0  0  0  0  0
    5.0322   -5.5078    0.0000 O   0  0  0  0  0  0  0  0  0  0  0  0
    5.3457    1.8582    0.0000 O   0  0  0  0  0  0  0  0  0  0  0  0
    3.7634    2.5626    0.0000 N   0  0  0  0  0  0  0  0  0  0  0  0
    4.2232   -0.9200    0.0000 N   0  0  0  0  0  0  0  0  0  0  0  0
    2.4067    5.9032    0.0000 N   0  0  0  0  0  0  0  0  0  0  0  0
    3.9444    0.8401    0.0000 C   0  0  0  0  0  0  0  0  0  0  0  0
    4.5322    0.0311    0.0000 C   0  0  0  0  0  0  0  0  0  0  0  0
    5.0322   -2.5078    0.0000 C   0  0  0  0  0  0  0  0  0  0  0  0
    5.0322   -1.5078    0.0000 C   0  0  0  0  0  0  0  0  0  0  0  0
    4.1701    3.4762    0.0000 C   0  0  0  0  0  0  0  0  0  0  0  0
    4.3511    1.7536    0.0000 C   0  0  0  0  0  0  0  0  0  0  0  0
    4.1662   -3.0078    0.0000 C   0  0  0  0  0  0  0  0  0  0  0  0
    5.8982   -3.0078    0.0000 C   0  0  0  0  0  0  0  0  0  0  0  0
    5.5322    0.0311    0.0000 C   0  0  0  0  0  0  0  0  0  0  0  0
    4.1662   -4.0078    0.0000 C   0  0  0  0  0  0  0  0  0  0  0  0
    3.5823    4.2852    0.0000 C   0  0  0  0  0  0  0  0  0  0  0  0
    5.0322   -4.5078    0.0000 C   0  0  0  0  0  0  0  0  0  0  0  0
    5.8982   -4.0078    0.0000 C   0  0  0  0  0  0  0  0  0  0  0  0
    2.5878    4.1807    0.0000 C   0  0  0  0  0  0  0  0  0  0  0  0
    3.9890    5.1988    0.0000 C   0  0  0  0  0  0  0  0  0  0  0  0
    2.0000    4.9897    0.0000 C   0  0  0  0  0  0  0  0  0  0  0  0
    3.4013    6.0078    0.0000 C   0  0  0  0  0  0  0  0  0  0  0  0
    2.4341   -4.0078    0.0000 C   0  0  0  0  0  0  0  0  0  0  0  0
    5.8982   -6.0078    0.0000 C   0  0  0  0  0  0  0  0  0  0  0  0
    3.4304    1.1868    0.0000 H   0  0  0  0  0  0  0  0  0  0  0  0
    3.5137    0.3941    0.0000 H   0  0  0  0  0  0  0  0  0  0  0  0
    4.6841    3.1295    0.0000 H   0  0  0  0  0  0  0  0  0  0  0  0
    4.6008    3.9222    0.0000 H   0  0  0  0  0  0  0  0  0  0  0  0
    3.6292   -2.6978    0.0000 H   0  0  0  0  0  0  0  0  0  0  0  0
    3.1468    2.4978    0.0000 H   0  0  0  0  0  0  0  0  0  0  0  0
    6.4352   -2.6978    0.0000 H   0  0  0  0  0  0  0  0  0  0  0  0
    5.8966    0.5327    0.0000 H   0  0  0  0  0  0  0  0  0  0  0  0
    6.4352   -4.3178    0.0000 H   0  0  0  0  0  0  0  0  0  0  0  0
    2.3356    3.6143    0.0000 H   0  0  0  0  0  0  0  0  0  0  0  0
    4.6056    5.2636    0.0000 H   0  0  0  0  0  0  0  0  0  0  0  0
    1.3834    4.9249    0.0000 H   0  0  0  0  0  0  0  0  0  0  0  0
    3.6534    6.5742    0.0000 H   0  0  0  0  0  0  0  0  0  0  0  0
    2.7441   -3.4708    0.0000 H   0  0  0  0  0  0  0  0  0  0  0  0
    1.8972   -3.6978    0.0000 H   0  0  0  0  0  0  0  0  0  0  0  0
    2.1241   -4.5447    0.0000 H   0  0  0  0  0  0  0  0  0  0  0  0
    5.5882   -6.5447    0.0000 H   0  0  0  0  0  0  0  0  0  0  0  0
    6.4352   -6.3178    0.0000 H   0  0  0  0  0  0  0  0  0  0  0  0
    6.2082   -5.4708    0.0000 H   0  0  0  0  0  0  0  0  0  0  0  0
  1 11  1  0  0  0  0
  1 16  1  0  0  0  0
  2 17  1  0  0  0  0
  2 25  1  0  0  0  0
  3 19  1  0  0  0  0
  3 26  1  0  0  0  0
  4 13  2  0  0  0  0
  5 12  1  0  0  0  0
  5 13  1  0  0  0  0
  5 32  1  0  0  0  0
  6  9  1  0  0  0  0
  6 11  2  0  0  0  0
  7 23  2  0  0  0  0
  7 24  1  0  0  0  0
  8  9  1  0  0  0  0
  8 13  1  0  0  0  0
  8 27  1  0  0  0  0
  8 28  1  0  0  0  0
  9 16  2  0  0  0  0
 10 11  1  0  0  0  0
 10 14  2  0  0  0  0
 10 15  1  0  0  0  0
 12 18  1  0  0  0  0
 12 29  1  0  0  0  0
 12 30  1  0  0  0  0
 14 17  1  0  0  0  0
 14 31  1  0  0  0  0
 15 20  2  0  0  0  0
 15 33  1  0  0  0  0
 16 34  1  0  0  0  0
 17 19  2  0  0  0  0
 18 21  2  0  0  0  0
 18 22  1  0  0  0  0
 19 20  1  0  0  0  0
 20 35  1  0  0  0  0
 21 23  1  0  0  0  0
 21 36  1  0  0  0  0
 22 24  2  0  0  0  0
 22 37  1  0  0  0  0
 23 38  1  0  0  0  0
 24 39  1  0  0  0  0
 25 40  1  0  0  0  0
 25 41  1  0  0  0  0
 25 42  1  0  0  0  0
 26 43  1  0  0  0  0
 26 44  1  0  0  0  0
 26 45  1  0  0  0  0
M  END
> <PUBCHEM_COMPOUND_CID>
17396417

> <PUBCHEM_COMPOUND_CANONICALIZED>
1

> <PUBCHEM_CACTVS_COMPLEXITY>
448

> <PUBCHEM_CACTVS_HBOND_ACCEPTOR>
6

> <PUBCHEM_CACTVS_HBOND_DONOR>
1

> <PUBCHEM_CACTVS_ROTATABLE_BOND>
7

> <PUBCHEM_CACTVS_SUBSKEYS>
AAADceB7MABAAAAAAAAAAAAAAAAAAWAAAAA8QAAAAAAAAAAB8AAAHgQQAAAADAzF3ga+h5LIFAisAzV3VACC+KBxKjgI2LU+7JgNJvrk9ZuEMCpk1hHq6Aew0BIOIAABAAAAQABAAAIAAACAAAAAAAAAAA==

> <PUBCHEM_IUPAC_OPENEYE_NAME>
2-[2-(3,4-dimethoxyphenyl)thiazol-4-yl]-N-(4-pyridylmethyl)acetamide

> <PUBCHEM_IUPAC_CAS_NAME>
2-[2-(3,4-dimethoxyphenyl)-4-thiazolyl]-N-(pyridin-4-ylmethyl)acetamide

> <PUBCHEM_IUPAC_NAME>
2-[2-(3,4-dimethoxyphenyl)-1,3-thiazol-4-yl]-N-(pyridin-4-ylmethyl)acetamide

> <PUBCHEM_IUPAC_SYSTEMATIC_NAME>
2-[2-(3,4-dimethoxyphenyl)-1,3-thiazol-4-yl]-N-(pyridin-4-ylmethyl)ethanamide

> <PUBCHEM_IUPAC_TRADITIONAL_NAME>
2-[2-(3,4-dimethoxyphenyl)thiazol-4-yl]-N-(4-pyridylmethyl)acetamide

> <PUBCHEM_IUPAC_INCHI>
InChI=1S/C19H19N3O3S/c1-24-16-4-3-14(9-17(16)25-2)19-22-15(12-26-19)10-18(23)21-11-13-5-7-20-8-6-13/h3-9,12H,10-11H2,1-2H3,(H,21,23)

> <PUBCHEM_IUPAC_INCHIKEY>
OIRVQRYUXWKWBN-UHFFFAOYSA-N

> <PUBCHEM_XLOGP3_AA>
2.2

> <PUBCHEM_EXACT_MASS>
369.114712

> <PUBCHEM_MOLECULAR_FORMULA>
C19H19N3O3S

> <PUBCHEM_MOLECULAR_WEIGHT>
369.43746

> <PUBCHEM_OPENEYE_CAN_SMILES>
COC1=C(C=C(C=C1)C2=NC(=CS2)CC(=O)NCC3=CC=NC=C3)OC

> <PUBCHEM_OPENEYE_ISO_SMILES>
COC1=C(C=C(C=C1)C2=NC(=CS2)CC(=O)NCC3=CC=NC=C3)OC

> <PUBCHEM_CACTVS_TPSA>
102

> <PUBCHEM_MONOISOTOPIC_WEIGHT>
369.114712

> <PUBCHEM_TOTAL_CHARGE>
0

> <PUBCHEM_HEAVY_ATOM_COUNT>
26

> <PUBCHEM_ATOM_DEF_STEREO_COUNT>
0

> <PUBCHEM_ATOM_UDEF_STEREO_COUNT>
0

> <PUBCHEM_BOND_DEF_STEREO_COUNT>
0

> <PUBCHEM_BOND_UDEF_STEREO_COUNT>
0

> <PUBCHEM_ISOTOPIC_ATOM_COUNT>
0

> <PUBCHEM_COMPONENT_COUNT>
1

> <PUBCHEM_CACTVS_TAUTO_COUNT>
2

> <PUBCHEM_COORDINATE_TYPE>
1
5
255

> <PUBCHEM_BONDANNOTATIONS>
1  11  8
1  16  8
10  14  8
10  15  8
14  17  8
15  20  8
17  19  8
18  21  8
18  22  8
19  20  8
21  23  8
22  24  8
6  11  8
6  9  8
7  23  8
7  24  8
9  16  8

$$$$

