586333
  -OEChem-06241222462D

 48 49  0     0  0  0  0  0  0999 V2000
    6.6200   -0.2990    0.0000 O   0  0  0  0  0  0  0  0  0  0  0  0
    2.6200    1.4330    0.0000 O   0  0  0  0  0  0  0  0  0  0  0  0
    2.6200   -0.2990    0.0000 O   0  0  0  0  0  0  0  0  0  0  0  0
   10.6200    1.4330    0.0000 O   0  0  0  0  0  0  0  0  0  0  0  0
    6.6200    1.4330    0.0000 N   0  0  0  0  0  0  0  0  0  0  0  0
    4.6200   -0.2990    0.0000 C   0  0  0  0  0  0  0  0  0  0  0  0
    3.7540   -0.7990    0.0000 C   0  0  0  0  0  0  0  0  0  0  0  0
    5.4860   -0.7990    0.0000 C   0  0  0  0  0  0  0  0  0  0  0  0
    5.4860   -1.7990    0.0000 C   0  0  0  0  0  0  0  0  0  0  0  0
    3.7540   -1.7990    0.0000 C   0  0  0  0  0  0  0  0  0  0  0  0
    5.1200    0.5670    0.0000 C   0  0  0  0  0  0  0  0  0  0  0  0
    4.6200   -2.2990    0.0000 C   0  0  0  0  0  0  0  0  0  0  0  0
    4.1200    0.5670    0.0000 C   0  0  0  0  0  0  0  0  0  0  0  0
    6.1200    0.5670    0.0000 C   0  0  0  0  0  0  0  0  0  0  0  0
    3.1200    0.5670    0.0000 C   0  0  0  0  0  0  0  0  0  0  0  0
    7.6200    1.4330    0.0000 C   0  0  0  0  0  0  0  0  0  0  0  0
    6.1200    2.2990    0.0000 C   0  0  0  0  0  0  0  0  0  0  0  0
    8.1200    0.5670    0.0000 C   0  0  0  0  0  0  0  0  0  0  0  0
    8.1200    2.2990    0.0000 C   0  0  0  0  0  0  0  0  0  0  0  0
    9.1200    0.5670    0.0000 C   0  0  0  0  0  0  0  0  0  0  0  0
    9.1200    2.2990    0.0000 C   0  0  0  0  0  0  0  0  0  0  0  0
    9.6200    1.4330    0.0000 C   0  0  0  0  0  0  0  0  0  0  0  0
   11.1200    2.2990    0.0000 C   0  0  0  0  0  0  0  0  0  0  0  0
    3.5419   -0.2164    0.0000 H   0  0  0  0  0  0  0  0  0  0  0  0
    3.1434   -0.9067    0.0000 H   0  0  0  0  0  0  0  0  0  0  0  0
    6.0966   -0.9067    0.0000 H   0  0  0  0  0  0  0  0  0  0  0  0
    5.6981   -0.2164    0.0000 H   0  0  0  0  0  0  0  0  0  0  0  0
    3.1434   -1.6914    0.0000 H   0  0  0  0  0  0  0  0  0  0  0  0
    3.5419   -2.3816    0.0000 H   0  0  0  0  0  0  0  0  0  0  0  0
    5.6981   -2.3816    0.0000 H   0  0  0  0  0  0  0  0  0  0  0  0
    6.0966   -1.6914    0.0000 H   0  0  0  0  0  0  0  0  0  0  0  0
    5.2277    1.1776    0.0000 H   0  0  0  0  0  0  0  0  0  0  0  0
    4.5374    0.7790    0.0000 H   0  0  0  0  0  0  0  0  0  0  0  0
    4.2215   -2.7740    0.0000 H   0  0  0  0  0  0  0  0  0  0  0  0
    5.0185   -2.7740    0.0000 H   0  0  0  0  0  0  0  0  0  0  0  0
    4.7026    0.7790    0.0000 H   0  0  0  0  0  0  0  0  0  0  0  0
    4.0123    1.1776    0.0000 H   0  0  0  0  0  0  0  0  0  0  0  0
    6.6569    2.6090    0.0000 H   0  0  0  0  0  0  0  0  0  0  0  0
    5.8100    2.8360    0.0000 H   0  0  0  0  0  0  0  0  0  0  0  0
    5.5831    1.9890    0.0000 H   0  0  0  0  0  0  0  0  0  0  0  0
    2.0000    1.4330    0.0000 H   0  0  0  0  0  0  0  0  0  0  0  0
    7.8100    0.0301    0.0000 H   0  0  0  0  0  0  0  0  0  0  0  0
    7.8100    2.8360    0.0000 H   0  0  0  0  0  0  0  0  0  0  0  0
    9.4300    0.0301    0.0000 H   0  0  0  0  0  0  0  0  0  0  0  0
    9.4300    2.8360    0.0000 H   0  0  0  0  0  0  0  0  0  0  0  0
   11.6569    1.9890    0.0000 H   0  0  0  0  0  0  0  0  0  0  0  0
   11.4300    2.8360    0.0000 H   0  0  0  0  0  0  0  0  0  0  0  0
   10.5831    2.6090    0.0000 H   0  0  0  0  0  0  0  0  0  0  0  0
  1 14  2  0  0  0  0
  2 15  1  0  0  0  0
  2 41  1  0  0  0  0
  3 15  2  0  0  0  0
  4 22  1  0  0  0  0
  4 23  1  0  0  0  0
  5 14  1  0  0  0  0
  5 16  1  0  0  0  0
  5 17  1  0  0  0  0
  6  7  1  0  0  0  0
  6  8  1  0  0  0  0
  6 11  1  0  0  0  0
  6 13  1  0  0  0  0
  7 10  1  0  0  0  0
  7 24  1  0  0  0  0
  7 25  1  0  0  0  0
  8  9  1  0  0  0  0
  8 26  1  0  0  0  0
  8 27  1  0  0  0  0
  9 12  1  0  0  0  0
  9 30  1  0  0  0  0
  9 31  1  0  0  0  0
 10 12  1  0  0  0  0
 10 28  1  0  0  0  0
 10 29  1  0  0  0  0
 11 14  1  0  0  0  0
 11 32  1  0  0  0  0
 11 33  1  0  0  0  0
 12 34  1  0  0  0  0
 12 35  1  0  0  0  0
 13 15  1  0  0  0  0
 13 36  1  0  0  0  0
 13 37  1  0  0  0  0
 16 18  2  0  0  0  0
 16 19  1  0  0  0  0
 17 38  1  0  0  0  0
 17 39  1  0  0  0  0
 17 40  1  0  0  0  0
 18 20  1  0  0  0  0
 18 42  1  0  0  0  0
 19 21  2  0  0  0  0
 19 43  1  0  0  0  0
 20 22  2  0  0  0  0
 20 44  1  0  0  0  0
 21 22  1  0  0  0  0
 21 45  1  0  0  0  0
 23 46  1  0  0  0  0
 23 47  1  0  0  0  0
 23 48  1  0  0  0  0
M  END
> <PUBCHEM_COMPOUND_CID>
586333

> <PUBCHEM_COMPOUND_CANONICALIZED>
1

> <PUBCHEM_CACTVS_COMPLEXITY>
409

> <PUBCHEM_CACTVS_HBOND_ACCEPTOR>
4

> <PUBCHEM_CACTVS_HBOND_DONOR>
1

> <PUBCHEM_CACTVS_ROTATABLE_BOND>
6

> <PUBCHEM_CACTVS_SUBSKEYS>
AAADceB6OAAAAAAAAAAAAAAAAAAAAAAAAAAwYAAAAAAAAAABAAAAHgAACAAADgyBkAYyzoMABgCIACXSWACCCAAhIgAIiAEObIgMJjLEsZuEcChkxhHI6Ae43+KPAEAAAAAAAAAAgAAAAAAAAAAAAAAAAA==

> <PUBCHEM_IUPAC_OPENEYE_NAME>
2-[1-[2-(4-methoxy-N-methyl-anilino)-2-oxo-ethyl]cyclohexyl]acetic acid

> <PUBCHEM_IUPAC_CAS_NAME>
2-[1-[2-(4-methoxy-N-methylanilino)-2-oxoethyl]cyclohexyl]acetic acid

> <PUBCHEM_IUPAC_NAME>
2-[1-[2-(4-methoxy-N-methylanilino)-2-oxoethyl]cyclohexyl]acetic acid

> <PUBCHEM_IUPAC_SYSTEMATIC_NAME>
2-[1-[2-[(4-methoxyphenyl)-methyl-amino]-2-oxidanylidene-ethyl]cyclohexyl]ethanoic acid

> <PUBCHEM_IUPAC_TRADITIONAL_NAME>
2-[1-[2-keto-2-(4-methoxy-N-methyl-anilino)ethyl]cyclohexyl]acetic acid

> <PUBCHEM_IUPAC_INCHI>
InChI=1S/C18H25NO4/c1-19(14-6-8-15(23-2)9-7-14)16(20)12-18(13-17(21)22)10-4-3-5-11-18/h6-9H,3-5,10-13H2,1-2H3,(H,21,22)

> <PUBCHEM_IUPAC_INCHIKEY>
IBARYEVSJRIUFX-UHFFFAOYSA-N

> <PUBCHEM_XLOGP3_AA>
3.3

> <PUBCHEM_EXACT_MASS>
319.178358

> <PUBCHEM_MOLECULAR_FORMULA>
C18H25NO4

> <PUBCHEM_MOLECULAR_WEIGHT>
319.3954

> <PUBCHEM_OPENEYE_CAN_SMILES>
CN(C1=CC=C(C=C1)OC)C(=O)CC2(CCCCC2)CC(=O)O

> <PUBCHEM_OPENEYE_ISO_SMILES>
CN(C1=CC=C(C=C1)OC)C(=O)CC2(CCCCC2)CC(=O)O

> <PUBCHEM_CACTVS_TPSA>
66.8

> <PUBCHEM_MONOISOTOPIC_WEIGHT>
319.178358

> <PUBCHEM_TOTAL_CHARGE>
0

> <PUBCHEM_HEAVY_ATOM_COUNT>
23

> <PUBCHEM_ATOM_DEF_STEREO_COUNT>
0

> <PUBCHEM_ATOM_UDEF_STEREO_COUNT>
0

> <PUBCHEM_BOND_DEF_STEREO_COUNT>
0

> <PUBCHEM_BOND_UDEF_STEREO_COUNT>
0

> <PUBCHEM_ISOTOPIC_ATOM_COUNT>
0

> <PUBCHEM_COMPONENT_COUNT>
1

> <PUBCHEM_CACTVS_TAUTO_COUNT>
1

> <PUBCHEM_COORDINATE_TYPE>
1
5
255

> <PUBCHEM_BONDANNOTATIONS>
16  18  8
16  19  8
18  20  8
19  21  8
20  22  8
21  22  8

$$$$

