47205549
  -OEChem-06241222592D

 34 35  0     1  0  0  0  0  0999 V2000
    5.3147    1.0000    0.0000 O   0  0  0  0  0  0  0  0  0  0  0  0
    3.5827    0.0000    0.0000 N   0  0  0  0  0  0  0  0  0  0  0  0
    6.1808   -0.5000    0.0000 N   0  0  0  0  0  0  0  0  0  0  0  0
    2.0000    0.3364    0.0000 N   0  0  0  0  0  0  0  0  0  0  0  0
    9.6448   -0.5000    0.0000 N   0  0  0  0  0  0  0  0  0  0  0  0
    4.4487   -0.5000    0.0000 C   0  0  3  0  0  0  0  0  0  0  0  0
    5.3147    0.0000    0.0000 C   0  0  0  0  0  0  0  0  0  0  0  0
    7.0468    0.0000    0.0000 C   0  0  0  0  0  0  0  0  0  0  0  0
    7.9128   -0.5000    0.0000 C   0  0  0  0  0  0  0  0  0  0  0  0
    4.4487   -1.5000    0.0000 C   0  0  0  0  0  0  0  0  0  0  0  0
    3.4782    0.9945    0.0000 C   0  0  0  0  0  0  0  0  0  0  0  0
    8.7788    0.0000    0.0000 C   0  0  0  0  0  0  0  0  0  0  0  0
    2.6691   -0.4067    0.0000 C   0  0  0  0  0  0  0  0  0  0  0  0
    2.5000    1.2024    0.0000 C   0  0  0  0  0  0  0  0  0  0  0  0
    8.7788    1.0000    0.0000 C   0  0  0  0  0  0  0  0  0  0  0  0
    9.6448    1.5000    0.0000 C   0  0  0  0  0  0  0  0  0  0  0  0
   10.5109    0.0000    0.0000 C   0  0  0  0  0  0  0  0  0  0  0  0
   10.5109    1.0000    0.0000 C   0  0  0  0  0  0  0  0  0  0  0  0
    3.9118   -0.8100    0.0000 H   0  0  0  0  0  0  0  0  0  0  0  0
    7.4453    0.4749    0.0000 H   0  0  0  0  0  0  0  0  0  0  0  0
    6.6482    0.4749    0.0000 H   0  0  0  0  0  0  0  0  0  0  0  0
    7.5143   -0.9749    0.0000 H   0  0  0  0  0  0  0  0  0  0  0  0
    8.3113   -0.9749    0.0000 H   0  0  0  0  0  0  0  0  0  0  0  0
    3.8287   -1.5000    0.0000 H   0  0  0  0  0  0  0  0  0  0  0  0
    4.4487   -2.1200    0.0000 H   0  0  0  0  0  0  0  0  0  0  0  0
    5.0687   -1.5000    0.0000 H   0  0  0  0  0  0  0  0  0  0  0  0
    6.1808   -1.1200    0.0000 H   0  0  0  0  0  0  0  0  0  0  0  0
    3.9389    1.4094    0.0000 H   0  0  0  0  0  0  0  0  0  0  0  0
    2.5402   -1.0132    0.0000 H   0  0  0  0  0  0  0  0  0  0  0  0
    2.2478    1.7688    0.0000 H   0  0  0  0  0  0  0  0  0  0  0  0
    8.2419    1.3100    0.0000 H   0  0  0  0  0  0  0  0  0  0  0  0
    9.6448    2.1200    0.0000 H   0  0  0  0  0  0  0  0  0  0  0  0
   11.0478   -0.3100    0.0000 H   0  0  0  0  0  0  0  0  0  0  0  0
   11.0478    1.3100    0.0000 H   0  0  0  0  0  0  0  0  0  0  0  0
  1  7  2  0  0  0  0
  2  6  1  0  0  0  0
  2 11  1  0  0  0  0
  2 13  1  0  0  0  0
  3  7  1  0  0  0  0
  3  8  1  0  0  0  0
  3 27  1  0  0  0  0
  4 13  2  0  0  0  0
  4 14  1  0  0  0  0
  5 12  1  0  0  0  0
  5 17  2  0  0  0  0
  6  7  1  0  0  0  0
  6 10  1  0  0  0  0
  6 19  1  0  0  0  0
  8  9  1  0  0  0  0
  8 20  1  0  0  0  0
  8 21  1  0  0  0  0
  9 12  1  0  0  0  0
  9 22  1  0  0  0  0
  9 23  1  0  0  0  0
 10 24  1  0  0  0  0
 10 25  1  0  0  0  0
 10 26  1  0  0  0  0
 11 14  2  0  0  0  0
 11 28  1  0  0  0  0
 12 15  2  0  0  0  0
 13 29  1  0  0  0  0
 14 30  1  0  0  0  0
 15 16  1  0  0  0  0
 15 31  1  0  0  0  0
 16 18  2  0  0  0  0
 16 32  1  0  0  0  0
 17 18  1  0  0  0  0
 17 33  1  0  0  0  0
 18 34  1  0  0  0  0
M  END
> <PUBCHEM_COMPOUND_CID>
47205549

> <PUBCHEM_COMPOUND_CANONICALIZED>
1

> <PUBCHEM_CACTVS_COMPLEXITY>
272

> <PUBCHEM_CACTVS_HBOND_ACCEPTOR>
3

> <PUBCHEM_CACTVS_HBOND_DONOR>
1

> <PUBCHEM_CACTVS_ROTATABLE_BOND>
5

> <PUBCHEM_CACTVS_SUBSKEYS>
AAADceBzoAAAAAAAAAAAAAAAAAAAAWAAAAAsAAAAAAAAAAAB4AAAHgAQAAAACCjBlgQ/kJfMEACoATV3dACCgC0xEqAJ2KG4dJiIaOLA2bGUIAholgLIyCcQgAAAAAAAAAAAAAAAAAAAAAAAAAAAAAAAAA==

> <PUBCHEM_IUPAC_OPENEYE_NAME>
2-imidazol-1-yl-N-[2-(2-pyridyl)ethyl]propanamide

> <PUBCHEM_IUPAC_CAS_NAME>
2-(1-imidazolyl)-N-[2-(2-pyridinyl)ethyl]propanamide

> <PUBCHEM_IUPAC_NAME>
2-imidazol-1-yl-N-(2-pyridin-2-ylethyl)propanamide

> <PUBCHEM_IUPAC_SYSTEMATIC_NAME>
2-imidazol-1-yl-N-(2-pyridin-2-ylethyl)propanamide

> <PUBCHEM_IUPAC_TRADITIONAL_NAME>
2-imidazol-1-yl-N-[2-(2-pyridyl)ethyl]propionamide

> <PUBCHEM_IUPAC_INCHI>
InChI=1S/C13H16N4O/c1-11(17-9-8-14-10-17)13(18)16-7-5-12-4-2-3-6-15-12/h2-4,6,8-11H,5,7H2,1H3,(H,16,18)

> <PUBCHEM_IUPAC_INCHIKEY>
SUZZCRAGRSQFLN-UHFFFAOYSA-N

> <PUBCHEM_XLOGP3_AA>
0.8

> <PUBCHEM_EXACT_MASS>
244.132411

> <PUBCHEM_MOLECULAR_FORMULA>
C13H16N4O

> <PUBCHEM_MOLECULAR_WEIGHT>
244.29234

> <PUBCHEM_OPENEYE_CAN_SMILES>
CC(C(=O)NCCC1=CC=CC=N1)N2C=CN=C2

> <PUBCHEM_OPENEYE_ISO_SMILES>
CC(C(=O)NCCC1=CC=CC=N1)N2C=CN=C2

> <PUBCHEM_CACTVS_TPSA>
59.8

> <PUBCHEM_MONOISOTOPIC_WEIGHT>
244.132411

> <PUBCHEM_TOTAL_CHARGE>
0

> <PUBCHEM_HEAVY_ATOM_COUNT>
18

> <PUBCHEM_ATOM_DEF_STEREO_COUNT>
0

> <PUBCHEM_ATOM_UDEF_STEREO_COUNT>
1

> <PUBCHEM_BOND_DEF_STEREO_COUNT>
0

> <PUBCHEM_BOND_UDEF_STEREO_COUNT>
0

> <PUBCHEM_ISOTOPIC_ATOM_COUNT>
0

> <PUBCHEM_COMPONENT_COUNT>
1

> <PUBCHEM_CACTVS_TAUTO_COUNT>
4

> <PUBCHEM_COORDINATE_TYPE>
1
5
255

> <PUBCHEM_BONDANNOTATIONS>
11  14  8
12  15  8
15  16  8
16  18  8
17  18  8
2  11  8
2  13  8
4  13  8
4  14  8
5  12  8
5  17  8
6  10  3

$$$$

