10656
  -OEChem-06261204482D

 35 37  0     0  0  0  0  0  0999 V2000
    3.0000   -3.7500    0.0000 S   0  0  0  0  0  0  0  0  0  0  0  0
    3.8660    4.7500    0.0000 O   0  0  0  0  0  0  0  0  0  0  0  0
    3.0000   -4.7500    0.0000 O   0  0  0  0  0  0  0  0  0  0  0  0
    2.0000   -3.7500    0.0000 O   0  0  0  0  0  0  0  0  0  0  0  0
    4.0000   -3.7500    0.0000 O   0  0  0  0  0  0  0  0  0  0  0  0
    3.8660    0.7500    0.0000 N   0  0  0  0  0  0  0  0  0  0  0  0
    3.0000    0.2500    0.0000 N   0  0  0  0  0  0  0  0  0  0  0  0
    4.7321    2.2500    0.0000 C   0  0  0  0  0  0  0  0  0  0  0  0
    4.7321    3.2500    0.0000 C   0  0  0  0  0  0  0  0  0  0  0  0
    3.8660    1.7500    0.0000 C   0  0  0  0  0  0  0  0  0  0  0  0
    3.8660    3.7500    0.0000 C   0  0  0  0  0  0  0  0  0  0  0  0
    5.6260    1.7153    0.0000 C   0  0  0  0  0  0  0  0  0  0  0  0
    5.6260    3.7847    0.0000 C   0  0  0  0  0  0  0  0  0  0  0  0
    3.0000    2.2500    0.0000 C   0  0  0  0  0  0  0  0  0  0  0  0
    3.0000    3.2500    0.0000 C   0  0  0  0  0  0  0  0  0  0  0  0
    6.5321    2.2292    0.0000 C   0  0  0  0  0  0  0  0  0  0  0  0
    3.0000   -2.7500    0.0000 C   0  0  0  0  0  0  0  0  0  0  0  0
    6.5321    3.2708    0.0000 C   0  0  0  0  0  0  0  0  0  0  0  0
    3.0000   -0.7500    0.0000 C   0  0  0  0  0  0  0  0  0  0  0  0
    3.8660   -2.2500    0.0000 C   0  0  0  0  0  0  0  0  0  0  0  0
    2.1340   -2.2500    0.0000 C   0  0  0  0  0  0  0  0  0  0  0  0
    3.8660   -1.2500    0.0000 C   0  0  0  0  0  0  0  0  0  0  0  0
    2.1340   -1.2500    0.0000 C   0  0  0  0  0  0  0  0  0  0  0  0
    5.6188    1.0954    0.0000 H   0  0  0  0  0  0  0  0  0  0  0  0
    5.6188    4.4046    0.0000 H   0  0  0  0  0  0  0  0  0  0  0  0
    2.4631    1.9400    0.0000 H   0  0  0  0  0  0  0  0  0  0  0  0
    2.4631    3.5600    0.0000 H   0  0  0  0  0  0  0  0  0  0  0  0
    7.0678    1.9171    0.0000 H   0  0  0  0  0  0  0  0  0  0  0  0
    7.0678    3.5829    0.0000 H   0  0  0  0  0  0  0  0  0  0  0  0
    4.4030   -2.5600    0.0000 H   0  0  0  0  0  0  0  0  0  0  0  0
    1.5970   -2.5600    0.0000 H   0  0  0  0  0  0  0  0  0  0  0  0
    4.4030   -0.9400    0.0000 H   0  0  0  0  0  0  0  0  0  0  0  0
    1.5970   -0.9400    0.0000 H   0  0  0  0  0  0  0  0  0  0  0  0
    3.3291    5.0600    0.0000 H   0  0  0  0  0  0  0  0  0  0  0  0
    2.4631   -5.0600    0.0000 H   0  0  0  0  0  0  0  0  0  0  0  0
  1  3  1  0  0  0  0
  1  4  2  0  0  0  0
  1  5  2  0  0  0  0
  1 17  1  0  0  0  0
  2 11  1  0  0  0  0
  2 34  1  0  0  0  0
  3 35  1  0  0  0  0
  6  7  2  0  0  0  0
  6 10  1  0  0  0  0
  7 19  1  0  0  0  0
  8  9  1  0  0  0  0
  8 10  1  0  0  0  0
  8 12  2  0  0  0  0
  9 11  1  0  0  0  0
  9 13  2  0  0  0  0
 10 14  2  0  0  0  0
 11 15  2  0  0  0  0
 12 16  1  0  0  0  0
 12 24  1  0  0  0  0
 13 18  1  0  0  0  0
 13 25  1  0  0  0  0
 14 15  1  0  0  0  0
 14 26  1  0  0  0  0
 15 27  1  0  0  0  0
 16 18  2  0  0  0  0
 16 28  1  0  0  0  0
 17 20  2  0  0  0  0
 17 21  1  0  0  0  0
 18 29  1  0  0  0  0
 19 22  2  0  0  0  0
 19 23  1  0  0  0  0
 20 22  1  0  0  0  0
 20 30  1  0  0  0  0
 21 23  2  0  0  0  0
 21 31  1  0  0  0  0
 22 32  1  0  0  0  0
 23 33  1  0  0  0  0
M  END
> <PUBCHEM_COMPOUND_CID>
10656

> <PUBCHEM_COMPOUND_CANONICALIZED>
1

> <PUBCHEM_CACTVS_COMPLEXITY>
523

> <PUBCHEM_CACTVS_HBOND_ACCEPTOR>
6

> <PUBCHEM_CACTVS_HBOND_DONOR>
2

> <PUBCHEM_CACTVS_ROTATABLE_BOND>
3

> <PUBCHEM_CACTVS_SUBSKEYS>
AAADccB7OABAAAAAAAAAAAAAAAAAAAAAAAAwYMAAAAAAAADBVAAAHgQICAAADAyB2AAwx8AAAoKCAiRCQHDCAEAgIgAIiBgGbIgIJiKCkZOAcABkwBEI2AewwLAOgEQBQAAaAAAAiAKAADQAAAAAAAAAAA==

> <PUBCHEM_IUPAC_OPENEYE_NAME>
4-[(4-hydroxy-1-naphthyl)azo]benzenesulfonic acid

> <PUBCHEM_IUPAC_CAS_NAME>
4-[(4-hydroxy-1-naphthalenyl)azo]benzenesulfonic acid

> <PUBCHEM_IUPAC_NAME>
4-[(4-hydroxynaphthalen-1-yl)diazenyl]benzenesulfonic acid

> <PUBCHEM_IUPAC_SYSTEMATIC_NAME>
4-[(4-oxidanylnaphthalen-1-yl)diazenyl]benzenesulfonic acid

> <PUBCHEM_IUPAC_TRADITIONAL_NAME>
4-[(4-hydroxy-1-naphthyl)azo]besylic acid

> <PUBCHEM_IUPAC_INCHI>
InChI=1S/C16H12N2O4S/c19-16-10-9-15(13-3-1-2-4-14(13)16)18-17-11-5-7-12(8-6-11)23(20,21)22/h1-10,19H,(H,20,21,22)

> <PUBCHEM_IUPAC_INCHIKEY>
PURJGKXXWJKIQR-UHFFFAOYSA-N

> <PUBCHEM_XLOGP3_AA>
3.3

> <PUBCHEM_EXACT_MASS>
328.051778

> <PUBCHEM_MOLECULAR_FORMULA>
C16H12N2O4S

> <PUBCHEM_MOLECULAR_WEIGHT>
328.34248

> <PUBCHEM_OPENEYE_CAN_SMILES>
C1=CC=C2C(=C1)C(=CC=C2O)N=NC3=CC=C(C=C3)S(=O)(=O)O

> <PUBCHEM_OPENEYE_ISO_SMILES>
C1=CC=C2C(=C1)C(=CC=C2O)N=NC3=CC=C(C=C3)S(=O)(=O)O

> <PUBCHEM_CACTVS_TPSA>
108

> <PUBCHEM_MONOISOTOPIC_WEIGHT>
328.051778

> <PUBCHEM_TOTAL_CHARGE>
0

> <PUBCHEM_HEAVY_ATOM_COUNT>
23

> <PUBCHEM_ATOM_DEF_STEREO_COUNT>
0

> <PUBCHEM_ATOM_UDEF_STEREO_COUNT>
0

> <PUBCHEM_BOND_DEF_STEREO_COUNT>
0

> <PUBCHEM_BOND_UDEF_STEREO_COUNT>
0

> <PUBCHEM_ISOTOPIC_ATOM_COUNT>
0

> <PUBCHEM_COMPONENT_COUNT>
1

> <PUBCHEM_CACTVS_TAUTO_COUNT>
4

> <PUBCHEM_COORDINATE_TYPE>
1
5
255

> <PUBCHEM_BONDANNOTATIONS>
10  14  8
11  15  8
12  16  8
13  18  8
14  15  8
16  18  8
17  20  8
17  21  8
19  22  8
19  23  8
20  22  8
21  23  8
8  10  8
8  12  8
8  9  8
9  11  8
9  13  8

$$$$

