583225
  -OEChem-06241222452D

 90 94  0     1  0  0  0  0  0999 V2000
    7.2000   -2.9410    0.0000 O   0  0  0  0  0  0  0  0  0  0  0  0
    6.3397   -1.4377    0.0000 O   0  0  0  0  0  0  0  0  0  0  0  0
   12.5931    0.1113    0.0000 C   0  0  3  0  0  0  0  0  0  0  0  0
   12.5931   -0.8887    0.0000 C   0  0  3  0  0  0  0  0  0  0  0  0
   11.7270   -1.3887    0.0000 C   0  0  3  0  0  0  0  0  0  0  0  0
   10.8610   -0.8887    0.0000 C   0  0  3  0  0  0  0  0  0  0  0  0
   13.5393    0.4160    0.0000 C   0  0  3  0  0  0  0  0  0  0  0  0
   11.7270    0.6113    0.0000 C   0  0  0  0  0  0  0  0  0  0  0  0
    9.9510   -1.3956    0.0000 C   0  0  3  0  0  0  0  0  0  0  0  0
   13.5393   -1.1934    0.0000 C   0  0  0  0  0  0  0  0  0  0  0  0
   10.8610    0.1113    0.0000 C   0  0  0  0  0  0  0  0  0  0  0  0
   14.1229   -0.3887    0.0000 C   0  0  0  0  0  0  0  0  0  0  0  0
   11.7431   -2.4302    0.0000 C   0  0  0  0  0  0  0  0  0  0  0  0
   13.8499    1.3666    0.0000 C   0  0  3  0  0  0  0  0  0  0  0  0
   12.5931    1.1113    0.0000 C   0  0  0  0  0  0  0  0  0  0  0  0
    9.9430   -2.4372    0.0000 C   0  0  0  0  0  0  0  0  0  0  0  0
    9.0242   -0.8315    0.0000 C   0  0  0  0  0  0  0  0  0  0  0  0
   10.8450   -2.9580    0.0000 C   0  0  0  0  0  0  0  0  0  0  0  0
    9.9587   -0.3956    0.0000 C   0  0  0  0  0  0  0  0  0  0  0  0
    9.0076   -2.9869    0.0000 C   0  0  0  0  0  0  0  0  0  0  0  0
    8.0763   -1.3594    0.0000 C   0  0  0  0  0  0  0  0  0  0  0  0
   14.8284    1.5728    0.0000 C   0  0  0  0  0  0  0  0  0  0  0  0
    8.0679   -2.4444    0.0000 C   0  0  3  0  0  0  0  0  0  0  0  0
   13.1821    2.1108    0.0000 C   0  0  0  0  0  0  0  0  0  0  0  0
   15.1391    2.5233    0.0000 C   0  0  0  0  0  0  0  0  0  0  0  0
   16.1176    2.7295    0.0000 C   0  0  0  0  0  0  0  0  0  0  0  0
   16.4283    3.6800    0.0000 C   0  0  0  0  0  0  0  0  0  0  0  0
    6.3359   -2.4377    0.0000 C   0  0  0  0  0  0  0  0  0  0  0  0
   17.4068    3.8862    0.0000 C   0  0  0  0  0  0  0  0  0  0  0  0
   15.7604    4.4243    0.0000 C   0  0  0  0  0  0  0  0  0  0  0  0
    5.4679   -2.9344    0.0000 C   0  0  0  0  0  0  0  0  0  0  0  0
    4.6038   -2.4310    0.0000 C   0  0  0  0  0  0  0  0  0  0  0  0
    3.7359   -2.9277    0.0000 C   0  0  0  0  0  0  0  0  0  0  0  0
    2.8718   -2.4244    0.0000 C   0  0  0  0  0  0  0  0  0  0  0  0
    3.7320   -3.9277    0.0000 C   0  0  0  0  0  0  0  0  0  0  0  0
    2.0038   -2.9210    0.0000 C   0  0  0  0  0  0  0  0  0  0  0  0
    2.8641   -4.4243    0.0000 C   0  0  0  0  0  0  0  0  0  0  0  0
    2.0000   -3.9210    0.0000 C   0  0  0  0  0  0  0  0  0  0  0  0
   12.6830   -1.7339    0.0000 H   0  0  0  0  0  0  0  0  0  0  0  0
   12.4664   -1.8080    0.0000 H   0  0  0  0  0  0  0  0  0  0  0  0
   11.5971   -0.4637    0.0000 H   0  0  0  0  0  0  0  0  0  0  0  0
   14.3790    0.5479    0.0000 H   0  0  0  0  0  0  0  0  0  0  0  0
   12.1256    1.0862    0.0000 H   0  0  0  0  0  0  0  0  0  0  0  0
   11.3285    1.0862    0.0000 H   0  0  0  0  0  0  0  0  0  0  0  0
   13.2882   -1.7603    0.0000 H   0  0  0  0  0  0  0  0  0  0  0  0
   14.0767   -1.5027    0.0000 H   0  0  0  0  0  0  0  0  0  0  0  0
   10.6489    0.6939    0.0000 H   0  0  0  0  0  0  0  0  0  0  0  0
   10.2504    0.0036    0.0000 H   0  0  0  0  0  0  0  0  0  0  0  0
   14.5838   -0.8034    0.0000 H   0  0  0  0  0  0  0  0  0  0  0  0
   14.5838    0.0260    0.0000 H   0  0  0  0  0  0  0  0  0  0  0  0
   11.9611   -3.0106    0.0000 H   0  0  0  0  0  0  0  0  0  0  0  0
   12.3522   -2.3147    0.0000 H   0  0  0  0  0  0  0  0  0  0  0  0
   14.1140    2.1745    0.0000 H   0  0  0  0  0  0  0  0  0  0  0  0
   13.2131    1.1113    0.0000 H   0  0  0  0  0  0  0  0  0  0  0  0
   12.5931    1.7313    0.0000 H   0  0  0  0  0  0  0  0  0  0  0  0
   11.9731    1.1113    0.0000 H   0  0  0  0  0  0  0  0  0  0  0  0
    9.4324   -0.3648    0.0000 H   0  0  0  0  0  0  0  0  0  0  0  0
    8.6342   -0.3494    0.0000 H   0  0  0  0  0  0  0  0  0  0  0  0
   10.8474   -3.5780    0.0000 H   0  0  0  0  0  0  0  0  0  0  0  0
   10.5787   -0.4004    0.0000 H   0  0  0  0  0  0  0  0  0  0  0  0
    9.9635    0.2244    0.0000 H   0  0  0  0  0  0  0  0  0  0  0  0
    9.3387   -0.3908    0.0000 H   0  0  0  0  0  0  0  0  0  0  0  0
    8.6102   -3.4628    0.0000 H   0  0  0  0  0  0  0  0  0  0  0  0
    9.4085   -3.4598    0.0000 H   0  0  0  0  0  0  0  0  0  0  0  0
    7.8717   -0.7741    0.0000 H   0  0  0  0  0  0  0  0  0  0  0  0
    7.4646   -1.4608    0.0000 H   0  0  0  0  0  0  0  0  0  0  0  0
   14.8490    0.9531    0.0000 H   0  0  0  0  0  0  0  0  0  0  0  0
   15.4423    1.4854    0.0000 H   0  0  0  0  0  0  0  0  0  0  0  0
    8.0663   -3.2944    0.0000 H   0  0  0  0  0  0  0  0  0  0  0  0
   13.6436    2.5249    0.0000 H   0  0  0  0  0  0  0  0  0  0  0  0
   12.7680    2.5723    0.0000 H   0  0  0  0  0  0  0  0  0  0  0  0
   12.7206    1.6968    0.0000 H   0  0  0  0  0  0  0  0  0  0  0  0
   15.1185    3.1430    0.0000 H   0  0  0  0  0  0  0  0  0  0  0  0
   14.5253    2.6106    0.0000 H   0  0  0  0  0  0  0  0  0  0  0  0
   16.1382    2.1098    0.0000 H   0  0  0  0  0  0  0  0  0  0  0  0
   16.7314    2.6422    0.0000 H   0  0  0  0  0  0  0  0  0  0  0  0
   15.8216    3.5522    0.0000 H   0  0  0  0  0  0  0  0  0  0  0  0
   17.5346    3.2796    0.0000 H   0  0  0  0  0  0  0  0  0  0  0  0
   18.0135    4.0141    0.0000 H   0  0  0  0  0  0  0  0  0  0  0  0
   17.2789    4.4929    0.0000 H   0  0  0  0  0  0  0  0  0  0  0  0
   16.2219    4.8384    0.0000 H   0  0  0  0  0  0  0  0  0  0  0  0
   15.3464    4.8858    0.0000 H   0  0  0  0  0  0  0  0  0  0  0  0
   15.2990    4.0103    0.0000 H   0  0  0  0  0  0  0  0  0  0  0  0
    5.4655   -3.5544    0.0000 H   0  0  0  0  0  0  0  0  0  0  0  0
    4.6062   -1.8110    0.0000 H   0  0  0  0  0  0  0  0  0  0  0  0
    2.8742   -1.8044    0.0000 H   0  0  0  0  0  0  0  0  0  0  0  0
    4.2678   -4.2397    0.0000 H   0  0  0  0  0  0  0  0  0  0  0  0
    1.4681   -2.6089    0.0000 H   0  0  0  0  0  0  0  0  0  0  0  0
    2.8617   -5.0443    0.0000 H   0  0  0  0  0  0  0  0  0  0  0  0
    1.4619   -4.2289    0.0000 H   0  0  0  0  0  0  0  0  0  0  0  0
  1 23  1  0  0  0  0
  1 28  1  0  0  0  0
  2 28  2  0  0  0  0
  3  4  1  0  0  0  0
  3  7  1  0  0  0  0
  3  8  1  0  0  0  0
  3 15  1  0  0  0  0
  4  5  1  0  0  0  0
  4 10  1  0  0  0  0
  4 39  1  0  0  0  0
  5  6  1  0  0  0  0
  5 13  1  0  0  0  0
  5 40  1  0  0  0  0
  6  9  1  0  0  0  0
  6 11  1  0  0  0  0
  6 41  1  0  0  0  0
  7 12  1  0  0  0  0
  7 14  1  0  0  0  0
  7 42  1  0  0  0  0
  8 11  1  0  0  0  0
  8 43  1  0  0  0  0
  8 44  1  0  0  0  0
  9 16  1  0  0  0  0
  9 17  1  0  0  0  0
  9 19  1  0  0  0  0
 10 12  1  0  0  0  0
 10 45  1  0  0  0  0
 10 46  1  0  0  0  0
 11 47  1  0  0  0  0
 11 48  1  0  0  0  0
 12 49  1  0  0  0  0
 12 50  1  0  0  0  0
 13 18  1  0  0  0  0
 13 51  1  0  0  0  0
 13 52  1  0  0  0  0
 14 22  1  0  0  0  0
 14 24  1  0  0  0  0
 14 53  1  0  0  0  0
 15 54  1  0  0  0  0
 15 55  1  0  0  0  0
 15 56  1  0  0  0  0
 16 18  2  0  0  0  0
 16 20  1  0  0  0  0
 17 21  1  0  0  0  0
 17 57  1  0  0  0  0
 17 58  1  0  0  0  0
 18 59  1  0  0  0  0
 19 60  1  0  0  0  0
 19 61  1  0  0  0  0
 19 62  1  0  0  0  0
 20 23  1  0  0  0  0
 20 63  1  0  0  0  0
 20 64  1  0  0  0  0
 21 23  1  0  0  0  0
 21 65  1  0  0  0  0
 21 66  1  0  0  0  0
 22 25  1  0  0  0  0
 22 67  1  0  0  0  0
 22 68  1  0  0  0  0
 23 69  1  0  0  0  0
 24 70  1  0  0  0  0
 24 71  1  0  0  0  0
 24 72  1  0  0  0  0
 25 26  1  0  0  0  0
 25 73  1  0  0  0  0
 25 74  1  0  0  0  0
 26 27  1  0  0  0  0
 26 75  1  0  0  0  0
 26 76  1  0  0  0  0
 27 29  1  0  0  0  0
 27 30  1  0  0  0  0
 27 77  1  0  0  0  0
 28 31  1  0  0  0  0
 29 78  1  0  0  0  0
 29 79  1  0  0  0  0
 29 80  1  0  0  0  0
 30 81  1  0  0  0  0
 30 82  1  0  0  0  0
 30 83  1  0  0  0  0
 31 32  2  3  0  0  0
 31 84  1  0  0  0  0
 32 33  1  0  0  0  0
 32 85  1  0  0  0  0
 33 34  2  0  0  0  0
 33 35  1  0  0  0  0
 34 36  1  0  0  0  0
 34 86  1  0  0  0  0
 35 37  2  0  0  0  0
 35 87  1  0  0  0  0
 36 38  2  0  0  0  0
 36 88  1  0  0  0  0
 37 38  1  0  0  0  0
 37 89  1  0  0  0  0
 38 90  1  0  0  0  0
M  END
> <PUBCHEM_COMPOUND_CID>
583225

> <PUBCHEM_COMPOUND_CANONICALIZED>
1

> <PUBCHEM_CACTVS_COMPLEXITY>
878

> <PUBCHEM_CACTVS_HBOND_ACCEPTOR>
2

> <PUBCHEM_CACTVS_HBOND_DONOR>
0

> <PUBCHEM_CACTVS_ROTATABLE_BOND>
9

> <PUBCHEM_CACTVS_SUBSKEYS>
AAADcfB8MAAAAAAAAAAAAAAAAAAAAYAAAAAwYMEAAAAAAGCBAAAAGgAAAAAADxSgmAIyCIAABACIAiDSCAACAAAgAAAIiAAAAMgIJCKAMRCCMAAkwAAIqYeAwPAPgAAAAAAAAADAAAQAACAAAQAACAAAAA==

> <PUBCHEM_IUPAC_OPENEYE_NAME>
[17-(1,5-dimethylhexyl)-10,13-dimethyl-2,3,4,7,8,9,11,12,14,15,16,17-dodecahydro-1H-cyclopenta[a]phenanthren-3-yl] 3-phenylprop-2-enoate

> <PUBCHEM_IUPAC_CAS_NAME>
3-phenyl-2-propenoic acid [10,13-dimethyl-17-(6-methylheptan-2-yl)-2,3,4,7,8,9,11,12,14,15,16,17-dodecahydro-1H-cyclopenta[a]phenanthren-3-yl] ester

> <PUBCHEM_IUPAC_NAME>
[10,13-dimethyl-17-(6-methylheptan-2-yl)-2,3,4,7,8,9,11,12,14,15,16,17-dodecahydro-1H-cyclopenta[a]phenanthren-3-yl] 3-phenylprop-2-enoate

> <PUBCHEM_IUPAC_SYSTEMATIC_NAME>
[10,13-dimethyl-17-(6-methylheptan-2-yl)-2,3,4,7,8,9,11,12,14,15,16,17-dodecahydro-1H-cyclopenta[a]phenanthren-3-yl] 3-phenylprop-2-enoate

> <PUBCHEM_IUPAC_TRADITIONAL_NAME>
3-phenylacrylic acid [17-(1,5-dimethylhexyl)-10,13-dimethyl-2,3,4,7,8,9,11,12,14,15,16,17-dodecahydro-1H-cyclopenta[a]phenanthren-3-yl] ester

> <PUBCHEM_IUPAC_INCHI>
InChI=1S/C36H52O2/c1-25(2)10-9-11-26(3)31-17-18-32-30-16-15-28-24-29(38-34(37)19-14-27-12-7-6-8-13-27)20-22-35(28,4)33(30)21-23-36(31,32)5/h6-8,12-15,19,25-26,29-33H,9-11,16-18,20-24H2,1-5H3

> <PUBCHEM_IUPAC_INCHIKEY>
FESYLMLHRKCTFF-UHFFFAOYSA-N

> <PUBCHEM_XLOGP3_AA>
11.2

> <PUBCHEM_EXACT_MASS>
516.396731

> <PUBCHEM_MOLECULAR_FORMULA>
C36H52O2

> <PUBCHEM_MOLECULAR_WEIGHT>
516.79688

> <PUBCHEM_OPENEYE_CAN_SMILES>
CC(C)CCCC(C)C1CCC2C1(CCC3C2CC=C4C3(CCC(C4)OC(=O)C=CC5=CC=CC=C5)C)C

> <PUBCHEM_OPENEYE_ISO_SMILES>
CC(C)CCCC(C)C1CCC2C1(CCC3C2CC=C4C3(CCC(C4)OC(=O)C=CC5=CC=CC=C5)C)C

> <PUBCHEM_CACTVS_TPSA>
26.3

> <PUBCHEM_MONOISOTOPIC_WEIGHT>
516.396731

> <PUBCHEM_TOTAL_CHARGE>
0

> <PUBCHEM_HEAVY_ATOM_COUNT>
38

> <PUBCHEM_ATOM_DEF_STEREO_COUNT>
0

> <PUBCHEM_ATOM_UDEF_STEREO_COUNT>
8

> <PUBCHEM_BOND_DEF_STEREO_COUNT>
0

> <PUBCHEM_BOND_UDEF_STEREO_COUNT>
1

> <PUBCHEM_ISOTOPIC_ATOM_COUNT>
0

> <PUBCHEM_COMPONENT_COUNT>
1

> <PUBCHEM_CACTVS_TAUTO_COUNT>
1

> <PUBCHEM_COORDINATE_TYPE>
1
5
255

> <PUBCHEM_BONDANNOTATIONS>
14  53  3
23  69  3
3  15  3
31  32  1
33  34  8
33  35  8
34  36  8
35  37  8
36  38  8
37  38  8
4  39  3
5  40  3
6  41  3
7  42  3
9  19  3

$$$$

