17396561
  -OEChem-06241222572D

 29 30  0     0  0  0  0  0  0999 V2000
    3.7320   -3.2409    0.0000 S   0  0  0  0  0  0  0  0  0  0  0  0
    2.0000   -4.2409    0.0000 F   0  0  0  0  0  0  0  0  0  0  0  0
    3.3660   -4.6069    0.0000 F   0  0  0  0  0  0  0  0  0  0  0  0
    2.3660   -2.8749    0.0000 F   0  0  0  0  0  0  0  0  0  0  0  0
    4.0981    3.7979    0.0000 O   0  0  0  0  0  0  0  0  0  0  0  0
    2.8660    1.2591    0.0000 O   0  0  0  0  0  0  0  0  0  0  0  0
    4.5981    1.2591    0.0000 N   0  0  0  0  0  0  0  0  0  0  0  0
    3.7891    2.8469    0.0000 N   0  0  0  0  0  0  0  0  0  0  0  0
    3.7320   -0.2409    0.0000 C   0  0  0  0  0  0  0  0  0  0  0  0
    3.7320    0.7591    0.0000 C   0  0  0  0  0  0  0  0  0  0  0  0
    2.8660   -0.7409    0.0000 C   0  0  0  0  0  0  0  0  0  0  0  0
    4.5981   -0.7409    0.0000 C   0  0  0  0  0  0  0  0  0  0  0  0
    3.7320   -2.2409    0.0000 C   0  0  0  0  0  0  0  0  0  0  0  0
    4.5981    2.2591    0.0000 C   0  0  0  0  0  0  0  0  0  0  0  0
    2.8660   -1.7409    0.0000 C   0  0  0  0  0  0  0  0  0  0  0  0
    4.5981   -1.7409    0.0000 C   0  0  0  0  0  0  0  0  0  0  0  0
    5.4071    2.8469    0.0000 C   0  0  0  0  0  0  0  0  0  0  0  0
    5.0981    3.7979    0.0000 C   0  0  0  0  0  0  0  0  0  0  0  0
    5.6859    4.6069    0.0000 C   0  0  0  0  0  0  0  0  0  0  0  0
    2.8660   -3.7409    0.0000 C   0  0  0  0  0  0  0  0  0  0  0  0
    2.3291   -0.4309    0.0000 H   0  0  0  0  0  0  0  0  0  0  0  0
    5.1350   -0.4309    0.0000 H   0  0  0  0  0  0  0  0  0  0  0  0
    5.1350    0.9491    0.0000 H   0  0  0  0  0  0  0  0  0  0  0  0
    2.3291   -2.0509    0.0000 H   0  0  0  0  0  0  0  0  0  0  0  0
    5.1350   -2.0509    0.0000 H   0  0  0  0  0  0  0  0  0  0  0  0
    5.9967    2.6553    0.0000 H   0  0  0  0  0  0  0  0  0  0  0  0
    6.1874    4.2425    0.0000 H   0  0  0  0  0  0  0  0  0  0  0  0
    6.0503    5.1085    0.0000 H   0  0  0  0  0  0  0  0  0  0  0  0
    5.1843    4.9714    0.0000 H   0  0  0  0  0  0  0  0  0  0  0  0
  1 13  1  0  0  0  0
  1 20  1  0  0  0  0
  2 20  1  0  0  0  0
  3 20  1  0  0  0  0
  4 20  1  0  0  0  0
  5  8  1  0  0  0  0
  5 18  1  0  0  0  0
  6 10  2  0  0  0  0
  7 10  1  0  0  0  0
  7 14  1  0  0  0  0
  7 23  1  0  0  0  0
  8 14  2  0  0  0  0
  9 10  1  0  0  0  0
  9 11  2  0  0  0  0
  9 12  1  0  0  0  0
 11 15  1  0  0  0  0
 11 21  1  0  0  0  0
 12 16  2  0  0  0  0
 12 22  1  0  0  0  0
 13 15  2  0  0  0  0
 13 16  1  0  0  0  0
 14 17  1  0  0  0  0
 15 24  1  0  0  0  0
 16 25  1  0  0  0  0
 17 18  2  0  0  0  0
 17 26  1  0  0  0  0
 18 19  1  0  0  0  0
 19 27  1  0  0  0  0
 19 28  1  0  0  0  0
 19 29  1  0  0  0  0
M  END
> <PUBCHEM_COMPOUND_CID>
17396561

> <PUBCHEM_COMPOUND_CANONICALIZED>
1

> <PUBCHEM_CACTVS_COMPLEXITY>
346

> <PUBCHEM_CACTVS_HBOND_ACCEPTOR>
7

> <PUBCHEM_CACTVS_HBOND_DONOR>
1

> <PUBCHEM_CACTVS_ROTATABLE_BOND>
3

> <PUBCHEM_CACTVS_SUBSKEYS>
AAADccBzMYBAAAAAAAAAAAAAAAAAAWAAAAAwAAAAAAAAAAABwAAAHwQUAAAADASB2hAztZLQAAipAqNycgCCAAAlKhApmDk2bNqIJDrgnZGEIYhilQrIyccYiACOEAAAAAAAAAAgAAAAAAAAAAAAAAAAAA==

> <PUBCHEM_IUPAC_OPENEYE_NAME>
N-(5-methylisoxazol-3-yl)-4-(trifluoromethylsulfanyl)benzamide

> <PUBCHEM_IUPAC_CAS_NAME>
N-(5-methyl-3-isoxazolyl)-4-(trifluoromethylthio)benzamide

> <PUBCHEM_IUPAC_NAME>
N-(5-methyl-1,2-oxazol-3-yl)-4-(trifluoromethylsulfanyl)benzamide

> <PUBCHEM_IUPAC_SYSTEMATIC_NAME>
N-(5-methyl-1,2-oxazol-3-yl)-4-(trifluoromethylsulfanyl)benzamide

> <PUBCHEM_IUPAC_TRADITIONAL_NAME>
N-(5-methylisoxazol-3-yl)-4-(trifluoromethylthio)benzamide

> <PUBCHEM_IUPAC_INCHI>
InChI=1S/C12H9F3N2O2S/c1-7-6-10(17-19-7)16-11(18)8-2-4-9(5-3-8)20-12(13,14)15/h2-6H,1H3,(H,16,17,18)

> <PUBCHEM_IUPAC_INCHIKEY>
AUUDLWUKCNMXCN-UHFFFAOYSA-N

> <PUBCHEM_XLOGP3_AA>
3.7

> <PUBCHEM_EXACT_MASS>
302.033683

> <PUBCHEM_MOLECULAR_FORMULA>
C12H9F3N2O2S

> <PUBCHEM_MOLECULAR_WEIGHT>
302.27227

> <PUBCHEM_OPENEYE_CAN_SMILES>
CC1=CC(=NO1)NC(=O)C2=CC=C(C=C2)SC(F)(F)F

> <PUBCHEM_OPENEYE_ISO_SMILES>
CC1=CC(=NO1)NC(=O)C2=CC=C(C=C2)SC(F)(F)F

> <PUBCHEM_CACTVS_TPSA>
80.4

> <PUBCHEM_MONOISOTOPIC_WEIGHT>
302.033683

> <PUBCHEM_TOTAL_CHARGE>
0

> <PUBCHEM_HEAVY_ATOM_COUNT>
20

> <PUBCHEM_ATOM_DEF_STEREO_COUNT>
0

> <PUBCHEM_ATOM_UDEF_STEREO_COUNT>
0

> <PUBCHEM_BOND_DEF_STEREO_COUNT>
0

> <PUBCHEM_BOND_UDEF_STEREO_COUNT>
0

> <PUBCHEM_ISOTOPIC_ATOM_COUNT>
0

> <PUBCHEM_COMPONENT_COUNT>
1

> <PUBCHEM_CACTVS_TAUTO_COUNT>
8

> <PUBCHEM_COORDINATE_TYPE>
1
5
255

> <PUBCHEM_BONDANNOTATIONS>
11  15  8
12  16  8
13  15  8
13  16  8
14  17  8
17  18  8
5  18  8
5  8  8
8  14  8
9  11  8
9  12  8

$$$$

