7163
  -OEChem-06261201512D

 71 70  0     0  0  0  0  0  0999 V2000
    6.0010    2.1550    0.0000 O   0  0  0  0  0  0  0  0  0  0  0  0
    2.5369    1.1550    0.0000 O   0  0  0  0  0  0  0  0  0  0  0  0
    4.2690   -1.8450    0.0000 O   0  0  0  0  0  0  0  0  0  0  0  0
    5.1350    0.6550    0.0000 N   0  0  0  0  0  0  0  0  0  0  0  0
   12.9292    1.1550    0.0000 C   0  0  0  0  0  0  0  0  0  0  0  0
   12.0632    0.6550    0.0000 C   0  0  0  0  0  0  0  0  0  0  0  0
   13.7953    0.6550    0.0000 C   0  0  0  0  0  0  0  0  0  0  0  0
   11.1972    1.1550    0.0000 C   0  0  0  0  0  0  0  0  0  0  0  0
   14.6613    1.1550    0.0000 C   0  0  0  0  0  0  0  0  0  0  0  0
   15.5273    0.6550    0.0000 C   0  0  0  0  0  0  0  0  0  0  0  0
   10.3312    0.6550    0.0000 C   0  0  0  0  0  0  0  0  0  0  0  0
   16.3933    1.1550    0.0000 C   0  0  0  0  0  0  0  0  0  0  0  0
    9.4651    1.1550    0.0000 C   0  0  0  0  0  0  0  0  0  0  0  0
   17.2594    0.6550    0.0000 C   0  0  0  0  0  0  0  0  0  0  0  0
    8.5991    0.6550    0.0000 C   0  0  0  0  0  0  0  0  0  0  0  0
   18.1254    1.1550    0.0000 C   0  0  0  0  0  0  0  0  0  0  0  0
    7.7331    1.1550    0.0000 C   0  0  0  0  0  0  0  0  0  0  0  0
   18.9914    0.6550    0.0000 C   0  0  0  0  0  0  0  0  0  0  0  0
    6.8671    0.6550    0.0000 C   0  0  0  0  0  0  0  0  0  0  0  0
   19.8574    1.1550    0.0000 C   0  0  0  0  0  0  0  0  0  0  0  0
    6.0010    1.1550    0.0000 C   0  0  0  0  0  0  0  0  0  0  0  0
    4.2690    1.1550    0.0000 C   0  0  0  0  0  0  0  0  0  0  0  0
    5.1350   -0.3450    0.0000 C   0  0  0  0  0  0  0  0  0  0  0  0
   20.7235    0.6550    0.0000 C   0  0  0  0  0  0  0  0  0  0  0  0
    4.2690   -0.8450    0.0000 C   0  0  0  0  0  0  0  0  0  0  0  0
    3.4030    0.6550    0.0000 C   0  0  0  0  0  0  0  0  0  0  0  0
   13.3278    1.6300    0.0000 H   0  0  0  0  0  0  0  0  0  0  0  0
   12.5307    1.6300    0.0000 H   0  0  0  0  0  0  0  0  0  0  0  0
   11.6647    0.1801    0.0000 H   0  0  0  0  0  0  0  0  0  0  0  0
   12.4617    0.1801    0.0000 H   0  0  0  0  0  0  0  0  0  0  0  0
   13.3967    0.1801    0.0000 H   0  0  0  0  0  0  0  0  0  0  0  0
   14.1938    0.1801    0.0000 H   0  0  0  0  0  0  0  0  0  0  0  0
   11.5957    1.6300    0.0000 H   0  0  0  0  0  0  0  0  0  0  0  0
   10.7987    1.6300    0.0000 H   0  0  0  0  0  0  0  0  0  0  0  0
   15.0598    1.6300    0.0000 H   0  0  0  0  0  0  0  0  0  0  0  0
   14.2628    1.6300    0.0000 H   0  0  0  0  0  0  0  0  0  0  0  0
   15.1288    0.1801    0.0000 H   0  0  0  0  0  0  0  0  0  0  0  0
   15.9258    0.1801    0.0000 H   0  0  0  0  0  0  0  0  0  0  0  0
    9.9326    0.1801    0.0000 H   0  0  0  0  0  0  0  0  0  0  0  0
   10.7297    0.1801    0.0000 H   0  0  0  0  0  0  0  0  0  0  0  0
   16.7919    1.6300    0.0000 H   0  0  0  0  0  0  0  0  0  0  0  0
   15.9948    1.6300    0.0000 H   0  0  0  0  0  0  0  0  0  0  0  0
    9.8637    1.6300    0.0000 H   0  0  0  0  0  0  0  0  0  0  0  0
    9.0666    1.6300    0.0000 H   0  0  0  0  0  0  0  0  0  0  0  0
   16.8608    0.1801    0.0000 H   0  0  0  0  0  0  0  0  0  0  0  0
   17.6579    0.1801    0.0000 H   0  0  0  0  0  0  0  0  0  0  0  0
    8.2006    0.1801    0.0000 H   0  0  0  0  0  0  0  0  0  0  0  0
    8.9976    0.1801    0.0000 H   0  0  0  0  0  0  0  0  0  0  0  0
   18.5239    1.6300    0.0000 H   0  0  0  0  0  0  0  0  0  0  0  0
   17.7269    1.6300    0.0000 H   0  0  0  0  0  0  0  0  0  0  0  0
    8.1316    1.6300    0.0000 H   0  0  0  0  0  0  0  0  0  0  0  0
    7.3346    1.6300    0.0000 H   0  0  0  0  0  0  0  0  0  0  0  0
   18.5929    0.1801    0.0000 H   0  0  0  0  0  0  0  0  0  0  0  0
   19.3899    0.1801    0.0000 H   0  0  0  0  0  0  0  0  0  0  0  0
    6.4685    0.1801    0.0000 H   0  0  0  0  0  0  0  0  0  0  0  0
    7.2656    0.1801    0.0000 H   0  0  0  0  0  0  0  0  0  0  0  0
   20.2560    1.6300    0.0000 H   0  0  0  0  0  0  0  0  0  0  0  0
   19.4589    1.6300    0.0000 H   0  0  0  0  0  0  0  0  0  0  0  0
    5.3471   -0.9276    0.0000 H   0  0  0  0  0  0  0  0  0  0  0  0
    5.7456   -0.2373    0.0000 H   0  0  0  0  0  0  0  0  0  0  0  0
    4.6675    1.6300    0.0000 H   0  0  0  0  0  0  0  0  0  0  0  0
    3.8705    1.6300    0.0000 H   0  0  0  0  0  0  0  0  0  0  0  0
   20.4135    0.1181    0.0000 H   0  0  0  0  0  0  0  0  0  0  0  0
   21.2604    0.3450    0.0000 H   0  0  0  0  0  0  0  0  0  0  0  0
   21.0335    1.1919    0.0000 H   0  0  0  0  0  0  0  0  0  0  0  0
    4.0569   -0.2624    0.0000 H   0  0  0  0  0  0  0  0  0  0  0  0
    3.6584   -0.9527    0.0000 H   0  0  0  0  0  0  0  0  0  0  0  0
    3.0044    0.1801    0.0000 H   0  0  0  0  0  0  0  0  0  0  0  0
    3.8015    0.1801    0.0000 H   0  0  0  0  0  0  0  0  0  0  0  0
    2.0000    0.8450    0.0000 H   0  0  0  0  0  0  0  0  0  0  0  0
    3.7320   -2.1550    0.0000 H   0  0  0  0  0  0  0  0  0  0  0  0
  1 21  2  0  0  0  0
  2 26  1  0  0  0  0
  2 70  1  0  0  0  0
  3 25  1  0  0  0  0
  3 71  1  0  0  0  0
  4 21  1  0  0  0  0
  4 22  1  0  0  0  0
  4 23  1  0  0  0  0
  5  6  1  0  0  0  0
  5  7  1  0  0  0  0
  5 27  1  0  0  0  0
  5 28  1  0  0  0  0
  6  8  1  0  0  0  0
  6 29  1  0  0  0  0
  6 30  1  0  0  0  0
  7  9  1  0  0  0  0
  7 31  1  0  0  0  0
  7 32  1  0  0  0  0
  8 11  1  0  0  0  0
  8 33  1  0  0  0  0
  8 34  1  0  0  0  0
  9 10  1  0  0  0  0
  9 35  1  0  0  0  0
  9 36  1  0  0  0  0
 10 12  1  0  0  0  0
 10 37  1  0  0  0  0
 10 38  1  0  0  0  0
 11 13  1  0  0  0  0
 11 39  1  0  0  0  0
 11 40  1  0  0  0  0
 12 14  1  0  0  0  0
 12 41  1  0  0  0  0
 12 42  1  0  0  0  0
 13 15  1  0  0  0  0
 13 43  1  0  0  0  0
 13 44  1  0  0  0  0
 14 16  1  0  0  0  0
 14 45  1  0  0  0  0
 14 46  1  0  0  0  0
 15 17  1  0  0  0  0
 15 47  1  0  0  0  0
 15 48  1  0  0  0  0
 16 18  1  0  0  0  0
 16 49  1  0  0  0  0
 16 50  1  0  0  0  0
 17 19  1  0  0  0  0
 17 51  1  0  0  0  0
 17 52  1  0  0  0  0
 18 20  1  0  0  0  0
 18 53  1  0  0  0  0
 18 54  1  0  0  0  0
 19 21  1  0  0  0  0
 19 55  1  0  0  0  0
 19 56  1  0  0  0  0
 20 24  1  0  0  0  0
 20 57  1  0  0  0  0
 20 58  1  0  0  0  0
 22 26  1  0  0  0  0
 22 61  1  0  0  0  0
 22 62  1  0  0  0  0
 23 25  1  0  0  0  0
 23 59  1  0  0  0  0
 23 60  1  0  0  0  0
 24 63  1  0  0  0  0
 24 64  1  0  0  0  0
 24 65  1  0  0  0  0
 25 66  1  0  0  0  0
 25 67  1  0  0  0  0
 26 68  1  0  0  0  0
 26 69  1  0  0  0  0
M  END
> <PUBCHEM_COMPOUND_CID>
7163

> <PUBCHEM_COMPOUND_CANONICALIZED>
1

> <PUBCHEM_CACTVS_COMPLEXITY>
291

> <PUBCHEM_CACTVS_HBOND_ACCEPTOR>
3

> <PUBCHEM_CACTVS_HBOND_DONOR>
2

> <PUBCHEM_CACTVS_ROTATABLE_BOND>
20

> <PUBCHEM_CACTVS_SUBSKEYS>
AAADcfB6MAAAAAAAAAAAAAAAAAAAAAAAAAAAAAAAAAAAAAAAAAAAHgAACAAACADhgAYCAAMAAgAIAAEQEAAAAAAAAAAAAAEIAAACEBIAgAAEAAAABgCQAAEYiICAAAAAAAAAAAAAAAAAAAAAAAAAAAAAAA==

> <PUBCHEM_IUPAC_OPENEYE_NAME>
N,N-bis(2-hydroxyethyl)octadecanamide

> <PUBCHEM_IUPAC_CAS_NAME>
N,N-bis(2-hydroxyethyl)octadecanamide

> <PUBCHEM_IUPAC_NAME>
N,N-bis(2-hydroxyethyl)octadecanamide

> <PUBCHEM_IUPAC_SYSTEMATIC_NAME>
N,N-bis(2-hydroxyethyl)octadecanamide

> <PUBCHEM_IUPAC_TRADITIONAL_NAME>
N,N-bis(2-hydroxyethyl)stearamide

> <PUBCHEM_IUPAC_INCHI>
InChI=1S/C22H45NO3/c1-2-3-4-5-6-7-8-9-10-11-12-13-14-15-16-17-22(26)23(18-20-24)19-21-25/h24-25H,2-21H2,1H3

> <PUBCHEM_IUPAC_INCHIKEY>
XGZOMURMPLSSKQ-UHFFFAOYSA-N

> <PUBCHEM_XLOGP3_AA>
6.8

> <PUBCHEM_EXACT_MASS>
371.339944

> <PUBCHEM_MOLECULAR_FORMULA>
C22H45NO3

> <PUBCHEM_MOLECULAR_WEIGHT>
371.5976

> <PUBCHEM_OPENEYE_CAN_SMILES>
CCCCCCCCCCCCCCCCCC(=O)N(CCO)CCO

> <PUBCHEM_OPENEYE_ISO_SMILES>
CCCCCCCCCCCCCCCCCC(=O)N(CCO)CCO

> <PUBCHEM_CACTVS_TPSA>
60.8

> <PUBCHEM_MONOISOTOPIC_WEIGHT>
371.339944

> <PUBCHEM_TOTAL_CHARGE>
0

> <PUBCHEM_HEAVY_ATOM_COUNT>
26

> <PUBCHEM_ATOM_DEF_STEREO_COUNT>
0

> <PUBCHEM_ATOM_UDEF_STEREO_COUNT>
0

> <PUBCHEM_BOND_DEF_STEREO_COUNT>
0

> <PUBCHEM_BOND_UDEF_STEREO_COUNT>
0

> <PUBCHEM_ISOTOPIC_ATOM_COUNT>
0

> <PUBCHEM_COMPONENT_COUNT>
1

> <PUBCHEM_CACTVS_TAUTO_COUNT>
1

> <PUBCHEM_COORDINATE_TYPE>
1
5
255

$$$$

