17396616
  -OEChem-06241222572D

 41 44  0     0  0  0  0  0  0999 V2000
   12.2180   -0.3020    0.0000 O   0  0  0  0  0  0  0  0  0  0  0  0
   12.2180    1.7673    0.0000 O   0  0  0  0  0  0  0  0  0  0  0  0
    2.5836    0.0374    0.0000 O   0  0  0  0  0  0  0  0  0  0  0  0
    2.5836   -1.5721    0.0000 O   0  0  0  0  0  0  0  0  0  0  0  0
    6.1279    1.2327    0.0000 O   0  0  0  0  0  0  0  0  0  0  0  0
    6.9939   -0.2673    0.0000 N   0  0  0  0  0  0  0  0  0  0  0  0
    8.7260   -0.2673    0.0000 C   0  0  0  0  0  0  0  0  0  0  0  0
    9.5920    0.2327    0.0000 C   0  0  0  0  0  0  0  0  0  0  0  0
    7.8600    0.2327    0.0000 C   0  0  0  0  0  0  0  0  0  0  0  0
   11.3241    0.2327    0.0000 C   0  0  0  0  0  0  0  0  0  0  0  0
   10.4580   -0.2673    0.0000 C   0  0  0  0  0  0  0  0  0  0  0  0
   11.3241    1.2327    0.0000 C   0  0  0  0  0  0  0  0  0  0  0  0
    9.5920    1.2327    0.0000 C   0  0  0  0  0  0  0  0  0  0  0  0
   10.4580    1.7327    0.0000 C   0  0  0  0  0  0  0  0  0  0  0  0
   13.1241    0.2119    0.0000 C   0  0  0  0  0  0  0  0  0  0  0  0
   13.1241    1.2535    0.0000 C   0  0  0  0  0  0  0  0  0  0  0  0
    5.2619   -0.2673    0.0000 C   0  0  0  0  0  0  0  0  0  0  0  0
    6.1279    0.2327    0.0000 C   0  0  0  0  0  0  0  0  0  0  0  0
    3.5298   -0.2673    0.0000 C   0  0  0  0  0  0  0  0  0  0  0  0
    3.5298   -1.2673    0.0000 C   0  0  0  0  0  0  0  0  0  0  0  0
    4.3958    0.2327    0.0000 C   0  0  0  0  0  0  0  0  0  0  0  0
    5.2619   -1.2673    0.0000 C   0  0  0  0  0  0  0  0  0  0  0  0
    4.3958   -1.7673    0.0000 C   0  0  0  0  0  0  0  0  0  0  0  0
    2.0000   -0.7673    0.0000 C   0  0  0  0  0  0  0  0  0  0  0  0
    8.3274   -0.7423    0.0000 H   0  0  0  0  0  0  0  0  0  0  0  0
    9.1245   -0.7423    0.0000 H   0  0  0  0  0  0  0  0  0  0  0  0
    8.2585    0.7076    0.0000 H   0  0  0  0  0  0  0  0  0  0  0  0
    7.4614    0.7076    0.0000 H   0  0  0  0  0  0  0  0  0  0  0  0
   10.4580   -0.8873    0.0000 H   0  0  0  0  0  0  0  0  0  0  0  0
    9.0551    1.5427    0.0000 H   0  0  0  0  0  0  0  0  0  0  0  0
   10.4580    2.3527    0.0000 H   0  0  0  0  0  0  0  0  0  0  0  0
   13.3331   -0.3718    0.0000 H   0  0  0  0  0  0  0  0  0  0  0  0
   13.7349    0.3179    0.0000 H   0  0  0  0  0  0  0  0  0  0  0  0
    6.9939   -0.8873    0.0000 H   0  0  0  0  0  0  0  0  0  0  0  0
   13.7349    1.1474    0.0000 H   0  0  0  0  0  0  0  0  0  0  0  0
   13.3331    1.8372    0.0000 H   0  0  0  0  0  0  0  0  0  0  0  0
    4.3958    0.8527    0.0000 H   0  0  0  0  0  0  0  0  0  0  0  0
    5.7988   -1.5773    0.0000 H   0  0  0  0  0  0  0  0  0  0  0  0
    4.3958   -2.3873    0.0000 H   0  0  0  0  0  0  0  0  0  0  0  0
    1.5391   -0.3526    0.0000 H   0  0  0  0  0  0  0  0  0  0  0  0
    1.5391   -1.1821    0.0000 H   0  0  0  0  0  0  0  0  0  0  0  0
  1 10  1  0  0  0  0
  1 15  1  0  0  0  0
  2 12  1  0  0  0  0
  2 16  1  0  0  0  0
  3 19  1  0  0  0  0
  3 24  1  0  0  0  0
  4 20  1  0  0  0  0
  4 24  1  0  0  0  0
  5 18  2  0  0  0  0
  6  9  1  0  0  0  0
  6 18  1  0  0  0  0
  6 34  1  0  0  0  0
  7  8  1  0  0  0  0
  7  9  1  0  0  0  0
  7 25  1  0  0  0  0
  7 26  1  0  0  0  0
  8 11  2  0  0  0  0
  8 13  1  0  0  0  0
  9 27  1  0  0  0  0
  9 28  1  0  0  0  0
 10 11  1  0  0  0  0
 10 12  2  0  0  0  0
 11 29  1  0  0  0  0
 12 14  1  0  0  0  0
 13 14  2  0  0  0  0
 13 30  1  0  0  0  0
 14 31  1  0  0  0  0
 15 16  1  0  0  0  0
 15 32  1  0  0  0  0
 15 33  1  0  0  0  0
 16 35  1  0  0  0  0
 16 36  1  0  0  0  0
 17 18  1  0  0  0  0
 17 21  2  0  0  0  0
 17 22  1  0  0  0  0
 19 20  2  0  0  0  0
 19 21  1  0  0  0  0
 20 23  1  0  0  0  0
 21 37  1  0  0  0  0
 22 23  2  0  0  0  0
 22 38  1  0  0  0  0
 23 39  1  0  0  0  0
 24 40  1  0  0  0  0
 24 41  1  0  0  0  0
M  END
> <PUBCHEM_COMPOUND_CID>
17396616

> <PUBCHEM_COMPOUND_CANONICALIZED>
1

> <PUBCHEM_CACTVS_COMPLEXITY>
445

> <PUBCHEM_CACTVS_HBOND_ACCEPTOR>
5

> <PUBCHEM_CACTVS_HBOND_DONOR>
1

> <PUBCHEM_CACTVS_ROTATABLE_BOND>
4

> <PUBCHEM_CACTVS_SUBSKEYS>
AAADceB6OAAAAAAAAAAAAAAAAAAAASAAAAA0YIAAAAAAAEiRQAAAHgAQAAAADAThmAcwDoLABACIAiFSEACCCAAkIAAIiIEOjMgdJjKEtRumOSrk1hGOqYe63LLOIAABAAAAQABAAAIAAACAAAAAAAAAAA==

> <PUBCHEM_IUPAC_OPENEYE_NAME>
N-[2-(2,3-dihydro-1,4-benzodioxin-6-yl)ethyl]-1,3-benzodioxole-5-carboxamide

> <PUBCHEM_IUPAC_CAS_NAME>
N-[2-(2,3-dihydro-1,4-benzodioxin-6-yl)ethyl]-1,3-benzodioxole-5-carboxamide

> <PUBCHEM_IUPAC_NAME>
N-[2-(2,3-dihydro-1,4-benzodioxin-6-yl)ethyl]-1,3-benzodioxole-5-carboxamide

> <PUBCHEM_IUPAC_SYSTEMATIC_NAME>
N-[2-(2,3-dihydro-1,4-benzodioxin-6-yl)ethyl]-1,3-benzodioxole-5-carboxamide

> <PUBCHEM_IUPAC_TRADITIONAL_NAME>
N-[2-(2,3-dihydro-1,4-benzodioxin-6-yl)ethyl]-piperonylamide

> <PUBCHEM_IUPAC_INCHI>
InChI=1S/C18H17NO5/c20-18(13-2-4-15-17(10-13)24-11-23-15)19-6-5-12-1-3-14-16(9-12)22-8-7-21-14/h1-4,9-10H,5-8,11H2,(H,19,20)

> <PUBCHEM_IUPAC_INCHIKEY>
ZNYHKIKVUGEJNV-UHFFFAOYSA-N

> <PUBCHEM_XLOGP3_AA>
2.7

> <PUBCHEM_EXACT_MASS>
327.110673

> <PUBCHEM_MOLECULAR_FORMULA>
C18H17NO5

> <PUBCHEM_MOLECULAR_WEIGHT>
327.33128

> <PUBCHEM_OPENEYE_CAN_SMILES>
C1COC2=C(O1)C=CC(=C2)CCNC(=O)C3=CC4=C(C=C3)OCO4

> <PUBCHEM_OPENEYE_ISO_SMILES>
C1COC2=C(O1)C=CC(=C2)CCNC(=O)C3=CC4=C(C=C3)OCO4

> <PUBCHEM_CACTVS_TPSA>
66

> <PUBCHEM_MONOISOTOPIC_WEIGHT>
327.110673

> <PUBCHEM_TOTAL_CHARGE>
0

> <PUBCHEM_HEAVY_ATOM_COUNT>
24

> <PUBCHEM_ATOM_DEF_STEREO_COUNT>
0

> <PUBCHEM_ATOM_UDEF_STEREO_COUNT>
0

> <PUBCHEM_BOND_DEF_STEREO_COUNT>
0

> <PUBCHEM_BOND_UDEF_STEREO_COUNT>
0

> <PUBCHEM_ISOTOPIC_ATOM_COUNT>
0

> <PUBCHEM_COMPONENT_COUNT>
1

> <PUBCHEM_CACTVS_TAUTO_COUNT>
2

> <PUBCHEM_COORDINATE_TYPE>
1
5
255

> <PUBCHEM_BONDANNOTATIONS>
10  11  8
10  12  8
12  14  8
13  14  8
17  21  8
17  22  8
19  20  8
19  21  8
20  23  8
22  23  8
8  11  8
8  13  8

$$$$

