17395362
  -OEChem-06241222492D

 53 56  0     0  0  0  0  0  0999 V2000
    4.5274    5.1303    0.0000 S   0  0  0  0  0  0  0  0  0  0  0  0
    6.0733   -1.5372    0.0000 O   0  0  0  0  0  0  0  0  0  0  0  0
    5.3923    1.8593    0.0000 N   0  0  0  0  0  0  0  0  0  0  0  0
    4.7524   -0.0355    0.0000 N   0  0  0  0  0  0  0  0  0  0  0  0
    6.7328    3.0154    0.0000 N   0  0  0  0  0  0  0  0  0  0  0  0
    6.3518    4.7748    0.0000 N   0  0  0  0  0  0  0  0  0  0  0  0
    4.7728   -2.6812    0.0000 N   0  0  0  0  0  0  0  0  0  0  0  0
    4.4118    1.6627    0.0000 C   0  0  0  0  0  0  0  0  0  0  0  0
    6.0528    1.1085    0.0000 C   0  0  0  0  0  0  0  0  0  0  0  0
    4.0274    3.5914    0.0000 C   0  0  0  0  0  0  0  0  0  0  0  0
    5.7328    0.1610    0.0000 C   0  0  0  0  0  0  0  0  0  0  0  0
    4.0919    0.7153    0.0000 C   0  0  0  0  0  0  0  0  0  0  0  0
    5.0274    3.5914    0.0000 C   0  0  0  0  0  0  0  0  0  0  0  0
    3.3424    2.8067    0.0000 C   0  0  0  0  0  0  0  0  0  0  0  0
    5.7123    2.8067    0.0000 C   0  0  0  0  0  0  0  0  0  0  0  0
    2.3219    3.0154    0.0000 C   0  0  0  0  0  0  0  0  0  0  0  0
    3.7183    4.5425    0.0000 C   0  0  0  0  0  0  0  0  0  0  0  0
    2.0000    4.0061    0.0000 C   0  0  0  0  0  0  0  0  0  0  0  0
    2.7029    4.7748    0.0000 C   0  0  0  0  0  0  0  0  0  0  0  0
    5.3364    4.5425    0.0000 C   0  0  0  0  0  0  0  0  0  0  0  0
    4.4323   -0.9830    0.0000 C   0  0  0  0  0  0  0  0  0  0  0  0
    5.0928   -1.7338    0.0000 C   0  0  0  0  0  0  0  0  0  0  0  0
    7.0547    4.0061    0.0000 C   0  0  0  0  0  0  0  0  0  0  0  0
    5.4334   -3.4320    0.0000 C   0  0  0  0  0  0  0  0  0  0  0  0
    5.1133   -4.3795    0.0000 C   0  0  0  0  0  0  0  0  0  0  0  0
    5.7739   -5.1303    0.0000 C   0  0  0  0  0  0  0  0  0  0  0  0
    6.5968    0.8111    0.0000 H   0  0  0  0  0  0  0  0  0  0  0  0
    6.4402    1.5926    0.0000 H   0  0  0  0  0  0  0  0  0  0  0  0
    4.3974    2.2825    0.0000 H   0  0  0  0  0  0  0  0  0  0  0  0
    3.7989    1.7561    0.0000 H   0  0  0  0  0  0  0  0  0  0  0  0
    3.5478    1.0127    0.0000 H   0  0  0  0  0  0  0  0  0  0  0  0
    3.7045    0.2312    0.0000 H   0  0  0  0  0  0  0  0  0  0  0  0
    5.7473   -0.4588    0.0000 H   0  0  0  0  0  0  0  0  0  0  0  0
    6.3458    0.0677    0.0000 H   0  0  0  0  0  0  0  0  0  0  0  0
    3.1160    2.2295    0.0000 H   0  0  0  0  0  0  0  0  0  0  0  0
    3.8724    2.4850    0.0000 H   0  0  0  0  0  0  0  0  0  0  0  0
    1.7081    2.9276    0.0000 H   0  0  0  0  0  0  0  0  0  0  0  0
    2.3034    2.3957    0.0000 H   0  0  0  0  0  0  0  0  0  0  0  0
    1.6208    4.4966    0.0000 H   0  0  0  0  0  0  0  0  0  0  0  0
    1.4518    3.7164    0.0000 H   0  0  0  0  0  0  0  0  0  0  0  0
    2.9426    5.3466    0.0000 H   0  0  0  0  0  0  0  0  0  0  0  0
    2.1806    5.1087    0.0000 H   0  0  0  0  0  0  0  0  0  0  0  0
    3.8883   -0.6856    0.0000 H   0  0  0  0  0  0  0  0  0  0  0  0
    4.0450   -1.4671    0.0000 H   0  0  0  0  0  0  0  0  0  0  0  0
    7.6607    4.1373    0.0000 H   0  0  0  0  0  0  0  0  0  0  0  0
    4.1650   -2.8031    0.0000 H   0  0  0  0  0  0  0  0  0  0  0  0
    5.9774   -3.7294    0.0000 H   0  0  0  0  0  0  0  0  0  0  0  0
    5.8207   -2.9479    0.0000 H   0  0  0  0  0  0  0  0  0  0  0  0
    4.5693   -4.0821    0.0000 H   0  0  0  0  0  0  0  0  0  0  0  0
    4.7260   -4.8636    0.0000 H   0  0  0  0  0  0  0  0  0  0  0  0
    5.3083   -5.5398    0.0000 H   0  0  0  0  0  0  0  0  0  0  0  0
    6.1834   -5.5958    0.0000 H   0  0  0  0  0  0  0  0  0  0  0  0
    6.2394   -4.7208    0.0000 H   0  0  0  0  0  0  0  0  0  0  0  0
  1 17  1  0  0  0  0
  1 20  1  0  0  0  0
  2 22  2  0  0  0  0
  3  8  1  0  0  0  0
  3  9  1  0  0  0  0
  3 15  1  0  0  0  0
  4 11  1  0  0  0  0
  4 12  1  0  0  0  0
  4 21  1  0  0  0  0
  5 15  1  0  0  0  0
  5 23  2  0  0  0  0
  6 20  2  0  0  0  0
  6 23  1  0  0  0  0
  7 22  1  0  0  0  0
  7 24  1  0  0  0  0
  7 46  1  0  0  0  0
  8 12  1  0  0  0  0
  8 29  1  0  0  0  0
  8 30  1  0  0  0  0
  9 11  1  0  0  0  0
  9 27  1  0  0  0  0
  9 28  1  0  0  0  0
 10 13  1  0  0  0  0
 10 14  1  0  0  0  0
 10 17  2  0  0  0  0
 11 33  1  0  0  0  0
 11 34  1  0  0  0  0
 12 31  1  0  0  0  0
 12 32  1  0  0  0  0
 13 15  2  0  0  0  0
 13 20  1  0  0  0  0
 14 16  1  0  0  0  0
 14 35  1  0  0  0  0
 14 36  1  0  0  0  0
 16 18  1  0  0  0  0
 16 37  1  0  0  0  0
 16 38  1  0  0  0  0
 17 19  1  0  0  0  0
 18 19  1  0  0  0  0
 18 39  1  0  0  0  0
 18 40  1  0  0  0  0
 19 41  1  0  0  0  0
 19 42  1  0  0  0  0
 21 22  1  0  0  0  0
 21 43  1  0  0  0  0
 21 44  1  0  0  0  0
 23 45  1  0  0  0  0
 24 25  1  0  0  0  0
 24 47  1  0  0  0  0
 24 48  1  0  0  0  0
 25 26  1  0  0  0  0
 25 49  1  0  0  0  0
 25 50  1  0  0  0  0
 26 51  1  0  0  0  0
 26 52  1  0  0  0  0
 26 53  1  0  0  0  0
M  END
> <PUBCHEM_COMPOUND_CID>
17395362

> <PUBCHEM_COMPOUND_CANONICALIZED>
1

> <PUBCHEM_CACTVS_COMPLEXITY>
485

> <PUBCHEM_CACTVS_HBOND_ACCEPTOR>
6

> <PUBCHEM_CACTVS_HBOND_DONOR>
1

> <PUBCHEM_CACTVS_ROTATABLE_BOND>
5

> <PUBCHEM_CACTVS_SUBSKEYS>
AAADceB7oABAAAAAAAAAAAAAAAAAASAAAAA8WIAAAAAAAFgB+AAAHgQQAAAADADB2gQHsdfIEAisAgNxdACD0KlxCLgB2LCoRJiIaCLg2PGUBAxolgLoyCcQgMAOgAAAAAAAAAAAAAAAAAgAAAAAAAAAAA==

> <PUBCHEM_IUPAC_OPENEYE_NAME>
N-propyl-2-[4-(5,6,7,8-tetrahydrobenzothiopheno[2,3-d]pyrimidin-4-yl)piperazin-1-yl]acetamide

> <PUBCHEM_IUPAC_CAS_NAME>
N-propyl-2-[4-(5,6,7,8-tetrahydro-[1]benzothiolo[2,3-d]pyrimidin-4-yl)-1-piperazinyl]acetamide

> <PUBCHEM_IUPAC_NAME>
N-propyl-2-[4-(5,6,7,8-tetrahydro-[1]benzothiolo[2,3-d]pyrimidin-4-yl)piperazin-1-yl]acetamide

> <PUBCHEM_IUPAC_SYSTEMATIC_NAME>
N-propyl-2-[4-(5,6,7,8-tetrahydro-[1]benzothiolo[2,3-d]pyrimidin-4-yl)piperazin-1-yl]ethanamide

> <PUBCHEM_IUPAC_TRADITIONAL_NAME>
N-propyl-2-[4-(5,6,7,8-tetrahydrobenzothiopheno[2,3-d]pyrimidin-4-yl)piperazino]acetamide

> <PUBCHEM_IUPAC_INCHI>
InChI=1S/C19H27N5OS/c1-2-7-20-16(25)12-23-8-10-24(11-9-23)18-17-14-5-3-4-6-15(14)26-19(17)22-13-21-18/h13H,2-12H2,1H3,(H,20,25)

> <PUBCHEM_IUPAC_INCHIKEY>
PXPZBOWFVXUAEZ-UHFFFAOYSA-N

> <PUBCHEM_XLOGP3_AA>
3.3

> <PUBCHEM_EXACT_MASS>
373.193632

> <PUBCHEM_MOLECULAR_FORMULA>
C19H27N5OS

> <PUBCHEM_MOLECULAR_WEIGHT>
373.51558

> <PUBCHEM_OPENEYE_CAN_SMILES>
CCCNC(=O)CN1CCN(CC1)C2=C3C4=C(CCCC4)SC3=NC=N2

> <PUBCHEM_OPENEYE_ISO_SMILES>
CCCNC(=O)CN1CCN(CC1)C2=C3C4=C(CCCC4)SC3=NC=N2

> <PUBCHEM_CACTVS_TPSA>
89.6

> <PUBCHEM_MONOISOTOPIC_WEIGHT>
373.193632

> <PUBCHEM_TOTAL_CHARGE>
0

> <PUBCHEM_HEAVY_ATOM_COUNT>
26

> <PUBCHEM_ATOM_DEF_STEREO_COUNT>
0

> <PUBCHEM_ATOM_UDEF_STEREO_COUNT>
0

> <PUBCHEM_BOND_DEF_STEREO_COUNT>
0

> <PUBCHEM_BOND_UDEF_STEREO_COUNT>
0

> <PUBCHEM_ISOTOPIC_ATOM_COUNT>
0

> <PUBCHEM_COMPONENT_COUNT>
1

> <PUBCHEM_CACTVS_TAUTO_COUNT>
2

> <PUBCHEM_COORDINATE_TYPE>
1
5
255

> <PUBCHEM_BONDANNOTATIONS>
1  17  8
1  20  8
10  13  8
10  17  8
13  15  8
13  20  8
5  15  8
5  23  8
6  20  8
6  23  8

$$$$

