13960
  -OEChem-06241222412D

 38 37  0     1  0  0  0  0  0999 V2000
    4.2321    6.6200    0.0000 I   0  0  0  0  0  0  0  0  0  0  0  0
    5.9641    3.6200    0.0000 I   0  0  0  0  0  0  0  0  0  0  0  0
    7.6962    6.6200    0.0000 I   0  0  0  0  0  0  0  0  0  0  0  0
    2.5000    1.6200    0.0000 Na  0  3  0  0  0  0  0  0  0  0  0  0
    4.2321    4.6200    0.0000 O   0  0  0  0  0  0  0  0  0  0  0  0
    3.3660    2.1200    0.0000 O   0  5  0  0  0  0  0  0  0  0  0  0
    2.5000    3.6200    0.0000 O   0  0  0  0  0  0  0  0  0  0  0  0
    7.6962    7.6200    0.0000 O   0  0  0  0  0  0  0  0  0  0  0  0
    5.9641    7.6200    0.0000 N   0  0  0  0  0  0  0  0  0  0  0  0
    5.0981    3.1200    0.0000 C   0  0  0  0  0  0  0  0  0  0  0  0
    5.0981    2.1200    0.0000 C   0  0  0  0  0  0  0  0  0  0  0  0
    4.2321    3.6200    0.0000 C   0  0  3  0  0  0  0  0  0  0  0  0
    5.9641    1.6200    0.0000 C   0  0  0  0  0  0  0  0  0  0  0  0
    5.9641    0.6200    0.0000 C   0  0  0  0  0  0  0  0  0  0  0  0
    5.0981    5.1200    0.0000 C   0  0  0  0  0  0  0  0  0  0  0  0
    3.3660    3.1200    0.0000 C   0  0  0  0  0  0  0  0  0  0  0  0
    5.0981    6.1200    0.0000 C   0  0  0  0  0  0  0  0  0  0  0  0
    5.9641    6.6200    0.0000 C   0  0  0  0  0  0  0  0  0  0  0  0
    5.9641    4.6200    0.0000 C   0  0  0  0  0  0  0  0  0  0  0  0
    6.8301    6.1200    0.0000 C   0  0  0  0  0  0  0  0  0  0  0  0
    6.8301    5.1200    0.0000 C   0  0  0  0  0  0  0  0  0  0  0  0
    6.8301    8.1200    0.0000 C   0  0  0  0  0  0  0  0  0  0  0  0
    6.8301    9.1200    0.0000 C   0  0  0  0  0  0  0  0  0  0  0  0
    5.7087    3.0123    0.0000 H   0  0  0  0  0  0  0  0  0  0  0  0
    5.3101    3.7026    0.0000 H   0  0  0  0  0  0  0  0  0  0  0  0
    4.4875    2.2277    0.0000 H   0  0  0  0  0  0  0  0  0  0  0  0
    4.8860    1.5374    0.0000 H   0  0  0  0  0  0  0  0  0  0  0  0
    4.7690    3.9300    0.0000 H   0  0  0  0  0  0  0  0  0  0  0  0
    6.5747    1.5123    0.0000 H   0  0  0  0  0  0  0  0  0  0  0  0
    6.1762    2.2026    0.0000 H   0  0  0  0  0  0  0  0  0  0  0  0
    5.3441    0.6200    0.0000 H   0  0  0  0  0  0  0  0  0  0  0  0
    5.9641    0.0000    0.0000 H   0  0  0  0  0  0  0  0  0  0  0  0
    6.5841    0.6200    0.0000 H   0  0  0  0  0  0  0  0  0  0  0  0
    7.3671    4.8100    0.0000 H   0  0  0  0  0  0  0  0  0  0  0  0
    5.4272    7.9300    0.0000 H   0  0  0  0  0  0  0  0  0  0  0  0
    7.4501    9.1200    0.0000 H   0  0  0  0  0  0  0  0  0  0  0  0
    6.8301    9.7400    0.0000 H   0  0  0  0  0  0  0  0  0  0  0  0
    6.2101    9.1200    0.0000 H   0  0  0  0  0  0  0  0  0  0  0  0
  1 17  1  0  0  0  0
  2 19  1  0  0  0  0
  3 20  1  0  0  0  0
  5 12  1  0  0  0  0
  5 15  1  0  0  0  0
  6 16  1  0  0  0  0
  7 16  2  0  0  0  0
  8 22  2  0  0  0  0
  9 18  1  0  0  0  0
  9 22  1  0  0  0  0
  9 35  1  0  0  0  0
 10 11  1  0  0  0  0
 10 12  1  0  0  0  0
 10 24  1  0  0  0  0
 10 25  1  0  0  0  0
 11 13  1  0  0  0  0
 11 26  1  0  0  0  0
 11 27  1  0  0  0  0
 12 16  1  0  0  0  0
 12 28  1  0  0  0  0
 13 14  1  0  0  0  0
 13 29  1  0  0  0  0
 13 30  1  0  0  0  0
 14 31  1  0  0  0  0
 14 32  1  0  0  0  0
 14 33  1  0  0  0  0
 15 17  1  0  0  0  0
 15 19  2  0  0  0  0
 17 18  2  0  0  0  0
 18 20  1  0  0  0  0
 19 21  1  0  0  0  0
 20 21  2  0  0  0  0
 21 34  1  0  0  0  0
 22 23  1  0  0  0  0
 23 36  1  0  0  0  0
 23 37  1  0  0  0  0
 23 38  1  0  0  0  0
M  CHG  2   4   1   6  -1
M  END
> <PUBCHEM_COMPOUND_CID>
13960

> <PUBCHEM_COMPOUND_CANONICALIZED>
1

> <PUBCHEM_CACTVS_COMPLEXITY>
391

> <PUBCHEM_CACTVS_HBOND_ACCEPTOR>
4

> <PUBCHEM_CACTVS_HBOND_DONOR>
1

> <PUBCHEM_CACTVS_ROTATABLE_BOND>
6

> <PUBCHEM_CACTVS_SUBSKEYS>
AAADccByOCAAAwAAAAAAAAAAAAAAAAAAAAAwAAAAAAAAAAABAAAAHgAwAAAACByjkAIyzoLABACIACXSWAKCCAAhIAAAiAFETIgNJjLEsJ+GOCjm1BnK6AeYWAMAAAAAAgAAAAAAAAAEAAAAAAAAAAAAAA==

> <PUBCHEM_IUPAC_OPENEYE_NAME>
sodium 2-(3-acetamido-2,4,6-triiodo-phenoxy)hexanoate

> <PUBCHEM_IUPAC_CAS_NAME>
sodium 2-(3-acetamido-2,4,6-triiodophenoxy)hexanoate

> <PUBCHEM_IUPAC_NAME>
sodium 2-(3-acetamido-2,4,6-triiodophenoxy)hexanoate

> <PUBCHEM_IUPAC_SYSTEMATIC_NAME>
sodium 2-[3-acetamido-2,4,6-tris(iodanyl)phenoxy]hexanoate

> <PUBCHEM_IUPAC_TRADITIONAL_NAME>
sodium 2-(3-acetamido-2,4,6-triiodo-phenoxy)hexanoate

> <PUBCHEM_IUPAC_INCHI>
InChI=1S/C14H16I3NO4.Na/c1-3-4-5-10(14(20)21)22-13-9(16)6-8(15)12(11(13)17)18-7(2)19;/h6,10H,3-5H2,1-2H3,(H,18,19)(H,20,21);/q;+1/p-1

> <PUBCHEM_IUPAC_INCHIKEY>
CESZOIFVTBWMHC-UHFFFAOYSA-M

> <PUBCHEM_EXACT_MASS>
664.803296

> <PUBCHEM_MOLECULAR_FORMULA>
C14H15I3NNaO4

> <PUBCHEM_MOLECULAR_WEIGHT>
664.976379

> <PUBCHEM_OPENEYE_CAN_SMILES>
CCCCC(C(=O)[O-])OC1=C(C=C(C(=C1I)NC(=O)C)I)I.[Na+]

> <PUBCHEM_OPENEYE_ISO_SMILES>
CCCCC(C(=O)[O-])OC1=C(C=C(C(=C1I)NC(=O)C)I)I.[Na+]

> <PUBCHEM_CACTVS_TPSA>
78.5

> <PUBCHEM_MONOISOTOPIC_WEIGHT>
664.803296

> <PUBCHEM_TOTAL_CHARGE>
0

> <PUBCHEM_HEAVY_ATOM_COUNT>
23

> <PUBCHEM_ATOM_DEF_STEREO_COUNT>
0

> <PUBCHEM_ATOM_UDEF_STEREO_COUNT>
1

> <PUBCHEM_BOND_DEF_STEREO_COUNT>
0

> <PUBCHEM_BOND_UDEF_STEREO_COUNT>
0

> <PUBCHEM_ISOTOPIC_ATOM_COUNT>
0

> <PUBCHEM_COMPONENT_COUNT>
2

> <PUBCHEM_CACTVS_TAUTO_COUNT>
2

> <PUBCHEM_COORDINATE_TYPE>
1
5
255

> <PUBCHEM_BONDANNOTATIONS>
12  10  3
15  17  8
15  19  8
17  18  8
18  20  8
19  21  8
20  21  8

$$$$

