10794
  -OEChem-06261204582D

 14 13  0     0  0  0  0  0  0999 V2000
    2.0000    0.6900    0.0000 S   0  0  0  0  0  0  0  0  0  0  0  0
    3.7321    0.6900    0.0000 N   0  0  0  0  0  0  0  0  0  0  0  0
    2.8660   -0.8100    0.0000 N   0  0  0  0  0  0  0  0  0  0  0  0
    2.8660    0.1900    0.0000 C   0  0  0  0  0  0  0  0  0  0  0  0
    4.5981    0.1900    0.0000 C   0  0  0  0  0  0  0  0  0  0  0  0
    2.0000   -1.3100    0.0000 C   0  0  0  0  0  0  0  0  0  0  0  0
    3.7321    1.3100    0.0000 H   0  0  0  0  0  0  0  0  0  0  0  0
    4.2881   -0.3469    0.0000 H   0  0  0  0  0  0  0  0  0  0  0  0
    5.1350   -0.1200    0.0000 H   0  0  0  0  0  0  0  0  0  0  0  0
    4.9081    0.7269    0.0000 H   0  0  0  0  0  0  0  0  0  0  0  0
    1.6900   -0.7731    0.0000 H   0  0  0  0  0  0  0  0  0  0  0  0
    1.4631   -1.6200    0.0000 H   0  0  0  0  0  0  0  0  0  0  0  0
    2.3100   -1.8469    0.0000 H   0  0  0  0  0  0  0  0  0  0  0  0
    2.0000    1.3100    0.0000 H   0  0  0  0  0  0  0  0  0  0  0  0
  1  4  1  0  0  0  0
  1 14  1  0  0  0  0
  2  4  1  0  0  0  0
  2  5  1  0  0  0  0
  2  7  1  0  0  0  0
  3  4  2  0  0  0  0
  3  6  1  0  0  0  0
  5  8  1  0  0  0  0
  5  9  1  0  0  0  0
  5 10  1  0  0  0  0
  6 11  1  0  0  0  0
  6 12  1  0  0  0  0
  6 13  1  0  0  0  0
M  END
> <PUBCHEM_COMPOUND_CID>
10794

> <PUBCHEM_COMPOUND_CANONICALIZED>
1

> <PUBCHEM_CACTVS_COMPLEXITY>
59.8

> <PUBCHEM_CACTVS_HBOND_ACCEPTOR>
2

> <PUBCHEM_CACTVS_HBOND_DONOR>
2

> <PUBCHEM_CACTVS_ROTATABLE_BOND>
1

> <PUBCHEM_CACTVS_SUBSKEYS>
AAADccBDAABAAAAAAAAAAAAAAAAAAAAAAAAAAAAAAAAAAAAAAAAAFAQQAAAAAAAAAAQDAALAAAQgAAAAJAAAEAEAAAABAIAIAAAAAAAAAAAAAAAAAAAAAAAAAAAAAAAAAAAAAAAAAAAAAAAAAAAAAAAAAA==

> <PUBCHEM_IUPAC_OPENEYE_NAME>
1,3-dimethylisothiourea

> <PUBCHEM_IUPAC_CAS_NAME>
N,N'-dimethylcarbamimidothioic acid

> <PUBCHEM_IUPAC_NAME>
N,N'-dimethylcarbamimidothioic acid

> <PUBCHEM_IUPAC_SYSTEMATIC_NAME>
N,N'-dimethylcarbamimidothioic acid

> <PUBCHEM_IUPAC_TRADITIONAL_NAME>
1,3-dimethylisothiourea

> <PUBCHEM_IUPAC_INCHI>
InChI=1S/C3H8N2S/c1-4-3(6)5-2/h1-2H3,(H2,4,5,6)

> <PUBCHEM_IUPAC_INCHIKEY>
VLCDUOXHFNUCKK-UHFFFAOYSA-N

> <PUBCHEM_XLOGP3_AA>
0.3

> <PUBCHEM_EXACT_MASS>
104.040819

> <PUBCHEM_MOLECULAR_FORMULA>
C3H8N2S

> <PUBCHEM_MOLECULAR_WEIGHT>
104.17402

> <PUBCHEM_OPENEYE_CAN_SMILES>
CNC(=NC)S

> <PUBCHEM_OPENEYE_ISO_SMILES>
CNC(=NC)S

> <PUBCHEM_CACTVS_TPSA>
25.4

> <PUBCHEM_MONOISOTOPIC_WEIGHT>
104.040819

> <PUBCHEM_TOTAL_CHARGE>
0

> <PUBCHEM_HEAVY_ATOM_COUNT>
6

> <PUBCHEM_ATOM_DEF_STEREO_COUNT>
0

> <PUBCHEM_ATOM_UDEF_STEREO_COUNT>
0

> <PUBCHEM_BOND_DEF_STEREO_COUNT>
0

> <PUBCHEM_BOND_UDEF_STEREO_COUNT>
0

> <PUBCHEM_ISOTOPIC_ATOM_COUNT>
0

> <PUBCHEM_COMPONENT_COUNT>
1

> <PUBCHEM_CACTVS_TAUTO_COUNT>
2

> <PUBCHEM_COORDINATE_TYPE>
1
5
255

$$$$

