13952
  -OEChem-06241222412D

 50 53  0     1  0  0  0  0  0999 V2000
    2.5016    2.3060    0.0000 O   0  0  0  0  0  0  0  0  0  0  0  0
    3.2947   -4.5049    0.0000 O   0  0  0  0  0  0  0  0  0  0  0  0
    3.7470    0.3244    0.0000 C   0  0  3  0  0  0  0  0  0  0  0  0
    3.7470   -0.6756    0.0000 C   0  0  3  0  0  0  0  0  0  0  0  0
    4.6131   -1.1756    0.0000 C   0  0  3  0  0  0  0  0  0  0  0  0
    4.6131    0.8244    0.0000 C   0  0  3  0  0  0  0  0  0  0  0  0
    4.6291   -2.2171    0.0000 C   0  0  3  0  0  0  0  0  0  0  0  0
    3.7311   -2.7449    0.0000 C   0  0  3  0  0  0  0  0  0  0  0  0
    2.8370   -1.1825    0.0000 C   0  0  0  0  0  0  0  0  0  0  0  0
    5.4791   -0.6756    0.0000 C   0  0  0  0  0  0  0  0  0  0  0  0
    3.0100    0.9915    0.0000 C   0  0  0  0  0  0  0  0  0  0  0  0
    5.4791    0.3244    0.0000 C   0  0  0  0  0  0  0  0  0  0  0  0
    2.8290   -2.2241    0.0000 C   0  0  0  0  0  0  0  0  0  0  0  0
    4.4039    1.7962    0.0000 C   0  0  0  0  0  0  0  0  0  0  0  0
    3.4151    1.8992    0.0000 C   0  0  1  0  0  0  0  0  0  0  0  0
    5.4022   -2.9061    0.0000 C   0  0  0  0  0  0  0  0  0  0  0  0
    2.8810   -0.1756    0.0000 C   0  0  0  0  0  0  0  0  0  0  0  0
    3.9568   -3.7555    0.0000 C   0  0  0  0  0  0  0  0  0  0  0  0
    4.9875   -3.8549    0.0000 C   0  0  0  0  0  0  0  0  0  0  0  0
    2.8689   -3.2516    0.0000 C   0  0  0  0  0  0  0  0  0  0  0  0
    3.5197    2.8938    0.0000 C   0  0  0  0  0  0  0  0  0  0  0  0
    3.6242    3.8883    0.0000 C   0  0  0  0  0  0  0  0  0  0  0  0
    3.0142   -0.2450    0.0000 H   0  0  0  0  0  0  0  0  0  0  0  0
    5.3524   -1.5950    0.0000 H   0  0  0  0  0  0  0  0  0  0  0  0
    5.3001    1.3249    0.0000 H   0  0  0  0  0  0  0  0  0  0  0  0
    5.4020   -1.8635    0.0000 H   0  0  0  0  0  0  0  0  0  0  0  0
    2.6325   -0.5972    0.0000 H   0  0  0  0  0  0  0  0  0  0  0  0
    2.2254   -1.2839    0.0000 H   0  0  0  0  0  0  0  0  0  0  0  0
    5.6911   -1.2582    0.0000 H   0  0  0  0  0  0  0  0  0  0  0  0
    6.0897   -0.5680    0.0000 H   0  0  0  0  0  0  0  0  0  0  0  0
    2.4735    1.3022    0.0000 H   0  0  0  0  0  0  0  0  0  0  0  0
    2.6446    0.4906    0.0000 H   0  0  0  0  0  0  0  0  0  0  0  0
    6.0897    0.2167    0.0000 H   0  0  0  0  0  0  0  0  0  0  0  0
    5.6911    0.9070    0.0000 H   0  0  0  0  0  0  0  0  0  0  0  0
    2.2190   -2.1133    0.0000 H   0  0  0  0  0  0  0  0  0  0  0  0
    2.6155   -2.8061    0.0000 H   0  0  0  0  0  0  0  0  0  0  0  0
    5.0203    1.8622    0.0000 H   0  0  0  0  0  0  0  0  0  0  0  0
    4.4030    2.4162    0.0000 H   0  0  0  0  0  0  0  0  0  0  0  0
    5.9410   -3.2127    0.0000 H   0  0  0  0  0  0  0  0  0  0  0  0
    5.7637   -2.4024    0.0000 H   0  0  0  0  0  0  0  0  0  0  0  0
    2.5710    0.3613    0.0000 H   0  0  0  0  0  0  0  0  0  0  0  0
    2.3441   -0.4856    0.0000 H   0  0  0  0  0  0  0  0  0  0  0  0
    3.1910   -0.7126    0.0000 H   0  0  0  0  0  0  0  0  0  0  0  0
    4.8634   -4.4623    0.0000 H   0  0  0  0  0  0  0  0  0  0  0  0
    5.5785   -4.0421    0.0000 H   0  0  0  0  0  0  0  0  0  0  0  0
    2.5548   -2.7170    0.0000 H   0  0  0  0  0  0  0  0  0  0  0  0
    2.3344   -3.5657    0.0000 H   0  0  0  0  0  0  0  0  0  0  0  0
    3.1831   -3.7861    0.0000 H   0  0  0  0  0  0  0  0  0  0  0  0
    2.0000    1.9416    0.0000 H   0  0  0  0  0  0  0  0  0  0  0  0
    3.6890    4.5049    0.0000 H   0  0  0  0  0  0  0  0  0  0  0  0
 15  1  1  6  0  0  0
  1 49  1  0  0  0  0
  2 18  2  0  0  0  0
  3  4  1  0  0  0  0
  3  6  1  0  0  0  0
  3 11  1  0  0  0  0
  3 17  1  0  0  0  0
  4  5  1  0  0  0  0
  4  9  1  0  0  0  0
  4 23  1  0  0  0  0
  5  7  1  0  0  0  0
  5 10  1  0  0  0  0
  5 24  1  0  0  0  0
  6 12  1  0  0  0  0
  6 14  1  0  0  0  0
  6 25  1  0  0  0  0
  7  8  1  0  0  0  0
  7 16  1  0  0  0  0
  7 26  1  0  0  0  0
  8 13  1  0  0  0  0
  8 18  1  0  0  0  0
  8 20  1  0  0  0  0
  9 13  1  0  0  0  0
  9 27  1  0  0  0  0
  9 28  1  0  0  0  0
 10 12  1  0  0  0  0
 10 29  1  0  0  0  0
 10 30  1  0  0  0  0
 11 15  1  0  0  0  0
 11 31  1  0  0  0  0
 11 32  1  0  0  0  0
 12 33  1  0  0  0  0
 12 34  1  0  0  0  0
 13 35  1  0  0  0  0
 13 36  1  0  0  0  0
 14 15  1  0  0  0  0
 14 37  1  0  0  0  0
 14 38  1  0  0  0  0
 15 21  1  0  0  0  0
 16 19  1  0  0  0  0
 16 39  1  0  0  0  0
 16 40  1  0  0  0  0
 17 41  1  0  0  0  0
 17 42  1  0  0  0  0
 17 43  1  0  0  0  0
 18 19  1  0  0  0  0
 19 44  1  0  0  0  0
 19 45  1  0  0  0  0
 20 46  1  0  0  0  0
 20 47  1  0  0  0  0
 20 48  1  0  0  0  0
 21 22  3  0  0  0  0
 22 50  1  0  0  0  0
M  END
> <PUBCHEM_COMPOUND_CID>
13952

> <PUBCHEM_COMPOUND_CANONICALIZED>
1

> <PUBCHEM_CACTVS_COMPLEXITY>
572

> <PUBCHEM_CACTVS_HBOND_ACCEPTOR>
2

> <PUBCHEM_CACTVS_HBOND_DONOR>
1

> <PUBCHEM_CACTVS_ROTATABLE_BOND>
1

> <PUBCHEM_CACTVS_SUBSKEYS>
AAADceB4MAAAAAAAAAAAAAAAAAAAAYMAAAAwYAAAAAAAAGDAAAAAGgAACAAAD0SAgAACAAAAAgBIGIAQAAgAAAAAAAAAAAEAAAAAABIAAAAAQAAEAAAAAAGIyPCPgAAAAAAAAACAAAQAACAAAYAACAAAAA==

> <PUBCHEM_IUPAC_OPENEYE_NAME>
(2R)-2-ethynyl-2-hydroxy-3a,5a-dimethyl-1,3,3b,4,5,7,8,8a,8b,9,10,10a-dodecahydroindeno[5,4-e]inden-6-one

> <PUBCHEM_IUPAC_CAS_NAME>
(2R)-2-ethynyl-2-hydroxy-3a,5a-dimethyl-1,3,3b,4,5,7,8,8a,8b,9,10,10a-dodecahydroindeno[5,4-e]inden-6-one

> <PUBCHEM_IUPAC_NAME>
(2R)-2-ethynyl-2-hydroxy-3a,5a-dimethyl-1,3,3b,4,5,7,8,8a,8b,9,10,10a-dodecahydroindeno[5,4-e]inden-6-one

> <PUBCHEM_IUPAC_SYSTEMATIC_NAME>
(2R)-2-ethynyl-3a,5a-dimethyl-2-oxidanyl-1,3,3b,4,5,7,8,8a,8b,9,10,10a-dodecahydroindeno[5,4-e]inden-6-one

> <PUBCHEM_IUPAC_TRADITIONAL_NAME>
(2R)-2-ethynyl-2-hydroxy-3a,5a-dimethyl-1,3,3b,4,5,7,8,8a,8b,9,10,10a-dodecahydroinden[5,4-e]inden-6-one

> <PUBCHEM_IUPAC_INCHI>
InChI=1S/C20H28O2/c1-4-20(22)11-13-5-6-14-15-7-8-17(21)18(15,2)10-9-16(14)19(13,3)12-20/h1,13-16,22H,5-12H2,2-3H3/t13?,14?,15?,16?,18?,19?,20-/m1/s1

> <PUBCHEM_IUPAC_INCHIKEY>
MNEYCBHWSMBXJI-GMYVCPBPSA-N

> <PUBCHEM_XLOGP3>
3.2

> <PUBCHEM_EXACT_MASS>
300.20893

> <PUBCHEM_MOLECULAR_FORMULA>
C20H28O2

> <PUBCHEM_MOLECULAR_WEIGHT>
300.43512

> <PUBCHEM_OPENEYE_CAN_SMILES>
CC12CCC3C(C1CCC2=O)CCC4C3(CC(C4)(C#C)O)C

> <PUBCHEM_OPENEYE_ISO_SMILES>
CC12CCC3C(C1CCC2=O)CCC4C3(C[C@](C4)(C#C)O)C

> <PUBCHEM_CACTVS_TPSA>
37.3

> <PUBCHEM_MONOISOTOPIC_WEIGHT>
300.20893

> <PUBCHEM_TOTAL_CHARGE>
0

> <PUBCHEM_HEAVY_ATOM_COUNT>
22

> <PUBCHEM_ATOM_DEF_STEREO_COUNT>
1

> <PUBCHEM_ATOM_UDEF_STEREO_COUNT>
6

> <PUBCHEM_BOND_DEF_STEREO_COUNT>
0

> <PUBCHEM_BOND_UDEF_STEREO_COUNT>
0

> <PUBCHEM_ISOTOPIC_ATOM_COUNT>
0

> <PUBCHEM_COMPONENT_COUNT>
1

> <PUBCHEM_CACTVS_TAUTO_COUNT>
2

> <PUBCHEM_COORDINATE_TYPE>
1
5
255

> <PUBCHEM_BONDANNOTATIONS>
15  1  6
3  17  3
4  23  3
5  24  3
6  25  3
7  26  3
8  20  3

$$$$

