4646
  -OEChem-06261200152D

 29 30  0     0  0  0  0  0  0999 V2000
    2.0000   -3.5412    0.0000 O   0  0  0  0  0  0  0  0  0  0  0  0
    3.7320   -3.5412    0.0000 O   0  0  0  0  0  0  0  0  0  0  0  0
    4.5981    2.9588    0.0000 N   0  0  0  0  0  0  0  0  0  0  0  0
    5.6808    4.1612    0.0000 N   0  0  0  0  0  0  0  0  0  0  0  0
    3.7320    2.4588    0.0000 C   0  0  0  0  0  0  0  0  0  0  0  0
    3.7320    1.4588    0.0000 C   0  0  0  0  0  0  0  0  0  0  0  0
    2.8660    0.9588    0.0000 C   0  0  0  0  0  0  0  0  0  0  0  0
    4.5981    0.9588    0.0000 C   0  0  0  0  0  0  0  0  0  0  0  0
    3.7320   -0.5412    0.0000 C   0  0  0  0  0  0  0  0  0  0  0  0
    2.8660   -0.0412    0.0000 C   0  0  0  0  0  0  0  0  0  0  0  0
    4.5981   -0.0412    0.0000 C   0  0  0  0  0  0  0  0  0  0  0  0
    5.5116    2.5520    0.0000 C   0  0  0  0  0  0  0  0  0  0  0  0
    4.7026    3.9533    0.0000 C   0  0  0  0  0  0  0  0  0  0  0  0
    6.1808    3.2952    0.0000 C   0  0  0  0  0  0  0  0  0  0  0  0
    3.7320   -1.5412    0.0000 C   0  0  0  0  0  0  0  0  0  0  0  0
    2.8660   -2.0412    0.0000 C   0  0  0  0  0  0  0  0  0  0  0  0
    2.8660   -3.0412    0.0000 C   0  0  0  0  0  0  0  0  0  0  0  0
    3.5200    3.0414    0.0000 H   0  0  0  0  0  0  0  0  0  0  0  0
    3.1215    2.3511    0.0000 H   0  0  0  0  0  0  0  0  0  0  0  0
    2.3291    1.2688    0.0000 H   0  0  0  0  0  0  0  0  0  0  0  0
    5.1350    1.2688    0.0000 H   0  0  0  0  0  0  0  0  0  0  0  0
    2.3291   -0.3512    0.0000 H   0  0  0  0  0  0  0  0  0  0  0  0
    5.1350   -0.3512    0.0000 H   0  0  0  0  0  0  0  0  0  0  0  0
    5.6405    1.9456    0.0000 H   0  0  0  0  0  0  0  0  0  0  0  0
    4.2419    4.3682    0.0000 H   0  0  0  0  0  0  0  0  0  0  0  0
    6.7974    3.2304    0.0000 H   0  0  0  0  0  0  0  0  0  0  0  0
    4.2690   -1.8512    0.0000 H   0  0  0  0  0  0  0  0  0  0  0  0
    2.3291   -1.7312    0.0000 H   0  0  0  0  0  0  0  0  0  0  0  0
    2.0000   -4.1612    0.0000 H   0  0  0  0  0  0  0  0  0  0  0  0
  1 17  1  0  0  0  0
  1 29  1  0  0  0  0
  2 17  2  0  0  0  0
  3  5  1  0  0  0  0
  3 12  1  0  0  0  0
  3 13  1  0  0  0  0
  4 13  2  0  0  0  0
  4 14  1  0  0  0  0
  5  6  1  0  0  0  0
  5 18  1  0  0  0  0
  5 19  1  0  0  0  0
  6  7  2  0  0  0  0
  6  8  1  0  0  0  0
  7 10  1  0  0  0  0
  7 20  1  0  0  0  0
  8 11  2  0  0  0  0
  8 21  1  0  0  0  0
  9 10  2  0  0  0  0
  9 11  1  0  0  0  0
  9 15  1  0  0  0  0
 10 22  1  0  0  0  0
 11 23  1  0  0  0  0
 12 14  2  0  0  0  0
 12 24  1  0  0  0  0
 13 25  1  0  0  0  0
 14 26  1  0  0  0  0
 15 16  2  3  0  0  0
 15 27  1  0  0  0  0
 16 17  1  0  0  0  0
 16 28  1  0  0  0  0
M  END
> <PUBCHEM_COMPOUND_CID>
4646

> <PUBCHEM_COMPOUND_CANONICALIZED>
1

> <PUBCHEM_CACTVS_COMPLEXITY>
283

> <PUBCHEM_CACTVS_HBOND_ACCEPTOR>
3

> <PUBCHEM_CACTVS_HBOND_DONOR>
1

> <PUBCHEM_CACTVS_ROTATABLE_BOND>
4

> <PUBCHEM_CACTVS_SUBSKEYS>
AAADccBzMAAAAAAAAAAAAAAAAAAAAWAAAAAwAAAAAAAAAAABwAAAHgAACAAADADBmgQ9mJcMEgCoAjD3bACCgC0xEqAJyAAYNMiIbCKAmRGUMAhogAKImacQgAAOQAAAAAAAAACAAAAAAAAAAAAAAAAAAA==

> <PUBCHEM_IUPAC_OPENEYE_NAME>
3-[4-(imidazol-1-ylmethyl)phenyl]prop-2-enoic acid

> <PUBCHEM_IUPAC_CAS_NAME>
3-[4-(1-imidazolylmethyl)phenyl]-2-propenoic acid

> <PUBCHEM_IUPAC_NAME>
3-[4-(imidazol-1-ylmethyl)phenyl]prop-2-enoic acid

> <PUBCHEM_IUPAC_SYSTEMATIC_NAME>
3-[4-(imidazol-1-ylmethyl)phenyl]prop-2-enoic acid

> <PUBCHEM_IUPAC_TRADITIONAL_NAME>
3-[4-(imidazol-1-ylmethyl)phenyl]acrylic acid

> <PUBCHEM_IUPAC_INCHI>
InChI=1S/C13H12N2O2/c16-13(17)6-5-11-1-3-12(4-2-11)9-15-8-7-14-10-15/h1-8,10H,9H2,(H,16,17)

> <PUBCHEM_IUPAC_INCHIKEY>
SHZKQBHERIJWAO-UHFFFAOYSA-N

> <PUBCHEM_XLOGP3>
1.6

> <PUBCHEM_EXACT_MASS>
228.089878

> <PUBCHEM_MOLECULAR_FORMULA>
C13H12N2O2

> <PUBCHEM_MOLECULAR_WEIGHT>
228.24658

> <PUBCHEM_OPENEYE_CAN_SMILES>
C1=CC(=CC=C1CN2C=CN=C2)C=CC(=O)O

> <PUBCHEM_OPENEYE_ISO_SMILES>
C1=CC(=CC=C1CN2C=CN=C2)C=CC(=O)O

> <PUBCHEM_CACTVS_TPSA>
55.1

> <PUBCHEM_MONOISOTOPIC_WEIGHT>
228.089878

> <PUBCHEM_TOTAL_CHARGE>
0

> <PUBCHEM_HEAVY_ATOM_COUNT>
17

> <PUBCHEM_ATOM_DEF_STEREO_COUNT>
0

> <PUBCHEM_ATOM_UDEF_STEREO_COUNT>
0

> <PUBCHEM_BOND_DEF_STEREO_COUNT>
0

> <PUBCHEM_BOND_UDEF_STEREO_COUNT>
1

> <PUBCHEM_ISOTOPIC_ATOM_COUNT>
0

> <PUBCHEM_COMPONENT_COUNT>
1

> <PUBCHEM_CACTVS_TAUTO_COUNT>
1

> <PUBCHEM_COORDINATE_TYPE>
1
5
255

> <PUBCHEM_BONDANNOTATIONS>
12  14  8
15  16  1
3  12  8
3  13  8
4  13  8
4  14  8
6  7  8
6  8  8
7  10  8
8  11  8
9  10  8
9  11  8

$$$$

