11932
  -OEChem-06261206182D

 36 35  0     0  0  0  0  0  0999 V2000
    6.5380    2.6200    0.0000 Cl  0  5  0  0  0  0  0  0  0  0  0  0
    6.5380    5.1200    0.0000 Cl  0  5  0  0  0  0  0  0  0  0  0  0
    2.2690    0.6200    0.0000 N   0  3  0  0  0  0  0  0  0  0  0  0
    2.2690    7.6200    0.0000 N   0  3  0  0  0  0  0  0  0  0  0  0
    2.2690    4.6200    0.0000 C   0  0  0  0  0  0  0  0  0  0  0  0
    2.2690    3.6200    0.0000 C   0  0  0  0  0  0  0  0  0  0  0  0
    1.4030    6.1200    0.0000 C   0  0  0  0  0  0  0  0  0  0  0  0
    3.1350    2.1200    0.0000 C   0  0  0  0  0  0  0  0  0  0  0  0
    3.1350    3.1200    0.0000 C   0  0  0  0  0  0  0  0  0  0  0  0
    1.4030    5.1200    0.0000 C   0  0  0  0  0  0  0  0  0  0  0  0
    2.2690    1.6200    0.0000 C   0  0  0  0  0  0  0  0  0  0  0  0
    2.2690    6.6200    0.0000 C   0  0  0  0  0  0  0  0  0  0  0  0
    1.4030    3.1200    0.0000 C   0  0  0  0  0  0  0  0  0  0  0  0
    3.1350    5.1200    0.0000 C   0  0  0  0  0  0  0  0  0  0  0  0
    1.4030    2.1200    0.0000 C   0  0  0  0  0  0  0  0  0  0  0  0
    3.1350    6.1200    0.0000 C   0  0  0  0  0  0  0  0  0  0  0  0
    0.5369    6.6200    0.0000 C   0  0  0  0  0  0  0  0  0  0  0  0
    4.0010    1.6200    0.0000 C   0  0  0  0  0  0  0  0  0  0  0  0
    0.8660    4.8100    0.0000 H   0  0  0  0  0  0  0  0  0  0  0  0
    3.6720    3.4300    0.0000 H   0  0  0  0  0  0  0  0  0  0  0  0
    3.6720    4.8100    0.0000 H   0  0  0  0  0  0  0  0  0  0  0  0
    0.8660    3.4300    0.0000 H   0  0  0  0  0  0  0  0  0  0  0  0
    3.6720    6.4300    0.0000 H   0  0  0  0  0  0  0  0  0  0  0  0
    0.8660    1.8100    0.0000 H   0  0  0  0  0  0  0  0  0  0  0  0
    3.6910    1.0831    0.0000 H   0  0  0  0  0  0  0  0  0  0  0  0
    4.5380    1.3100    0.0000 H   0  0  0  0  0  0  0  0  0  0  0  0
    4.3110    2.1569    0.0000 H   0  0  0  0  0  0  0  0  0  0  0  0
    0.8469    7.1569    0.0000 H   0  0  0  0  0  0  0  0  0  0  0  0
    0.0000    6.9300    0.0000 H   0  0  0  0  0  0  0  0  0  0  0  0
    0.2269    6.0831    0.0000 H   0  0  0  0  0  0  0  0  0  0  0  0
    2.2690    0.0000    0.0000 H   0  0  0  0  0  0  0  0  0  0  0  0
    1.6490    0.6200    0.0000 H   0  0  0  0  0  0  0  0  0  0  0  0
    2.8890    0.6200    0.0000 H   0  0  0  0  0  0  0  0  0  0  0  0
    2.2690    8.2400    0.0000 H   0  0  0  0  0  0  0  0  0  0  0  0
    2.8890    7.6200    0.0000 H   0  0  0  0  0  0  0  0  0  0  0  0
    1.6490    7.6200    0.0000 H   0  0  0  0  0  0  0  0  0  0  0  0
  3 11  1  0  0  0  0
  3 31  1  0  0  0  0
  3 32  1  0  0  0  0
  3 33  1  0  0  0  0
  4 12  1  0  0  0  0
  4 34  1  0  0  0  0
  4 35  1  0  0  0  0
  4 36  1  0  0  0  0
  5  6  1  0  0  0  0
  5 10  2  0  0  0  0
  5 14  1  0  0  0  0
  6  9  2  0  0  0  0
  6 13  1  0  0  0  0
  7 10  1  0  0  0  0
  7 12  2  0  0  0  0
  7 17  1  0  0  0  0
  8  9  1  0  0  0  0
  8 11  2  0  0  0  0
  8 18  1  0  0  0  0
  9 20  1  0  0  0  0
 10 19  1  0  0  0  0
 11 15  1  0  0  0  0
 12 16  1  0  0  0  0
 13 15  2  0  0  0  0
 13 22  1  0  0  0  0
 14 16  2  0  0  0  0
 14 21  1  0  0  0  0
 15 24  1  0  0  0  0
 16 23  1  0  0  0  0
 17 28  1  0  0  0  0
 17 29  1  0  0  0  0
 17 30  1  0  0  0  0
 18 25  1  0  0  0  0
 18 26  1  0  0  0  0
 18 27  1  0  0  0  0
M  CHG  4   1  -1   2  -1   3   1   4   1
M  END
> <PUBCHEM_COMPOUND_CID>
11932

> <PUBCHEM_COMPOUND_CANONICALIZED>
1

> <PUBCHEM_CACTVS_COMPLEXITY>
205

> <PUBCHEM_CACTVS_HBOND_ACCEPTOR>
2

> <PUBCHEM_CACTVS_HBOND_DONOR>
2

> <PUBCHEM_CACTVS_ROTATABLE_BOND>
1

> <PUBCHEM_CACTVS_SUBSKEYS>
AAADceBzAAAGAAAAAAAAAAAAAAAAAAAAAAAwYAAAAAAAAAABQAAAHAAQAAAADAiBGAAywIBAAACAAiRCQACCAAAgAgAIiAAAZIgIICKAkZGAIABgkAAIyAcQgMAOiAACAAACAAAQAAQAAAQAAAAAAAAAAA==

> <PUBCHEM_IUPAC_OPENEYE_NAME>
[4-(4-azaniumyl-3-methyl-phenyl)-2-methyl-phenyl]ammonium dichloride

> <PUBCHEM_IUPAC_CAS_NAME>
[4-(4-ammonio-3-methylphenyl)-2-methylphenyl]ammonium dichloride

> <PUBCHEM_IUPAC_NAME>
[4-(4-azaniumyl-3-methylphenyl)-2-methylphenyl]azanium dichloride

> <PUBCHEM_IUPAC_SYSTEMATIC_NAME>
[4-(4-azaniumyl-3-methyl-phenyl)-2-methyl-phenyl]azanium dichloride

> <PUBCHEM_IUPAC_TRADITIONAL_NAME>
[4-(4-ammonio-3-methyl-phenyl)-2-methyl-phenyl]ammonium dichloride

> <PUBCHEM_IUPAC_INCHI>
InChI=1S/C14H16N2.2ClH/c1-9-7-11(3-5-13(9)15)12-4-6-14(16)10(2)8-12;;/h3-8H,15-16H2,1-2H3;2*1H

> <PUBCHEM_IUPAC_INCHIKEY>
LUKPNZHXJRJBAN-UHFFFAOYSA-N

> <PUBCHEM_EXACT_MASS>
284.084704

> <PUBCHEM_MOLECULAR_FORMULA>
C14H18Cl2N2

> <PUBCHEM_MOLECULAR_WEIGHT>
285.21212

> <PUBCHEM_OPENEYE_CAN_SMILES>
CC1=C(C=CC(=C1)C2=CC(=C(C=C2)[NH3+])C)[NH3+].[Cl-].[Cl-]

> <PUBCHEM_OPENEYE_ISO_SMILES>
CC1=C(C=CC(=C1)C2=CC(=C(C=C2)[NH3+])C)[NH3+].[Cl-].[Cl-]

> <PUBCHEM_CACTVS_TPSA>
55.3

> <PUBCHEM_MONOISOTOPIC_WEIGHT>
284.084704

> <PUBCHEM_TOTAL_CHARGE>
0

> <PUBCHEM_HEAVY_ATOM_COUNT>
18

> <PUBCHEM_ATOM_DEF_STEREO_COUNT>
0

> <PUBCHEM_ATOM_UDEF_STEREO_COUNT>
0

> <PUBCHEM_BOND_DEF_STEREO_COUNT>
0

> <PUBCHEM_BOND_UDEF_STEREO_COUNT>
0

> <PUBCHEM_ISOTOPIC_ATOM_COUNT>
0

> <PUBCHEM_COMPONENT_COUNT>
3

> <PUBCHEM_CACTVS_TAUTO_COUNT>
1

> <PUBCHEM_COORDINATE_TYPE>
1
5
255

> <PUBCHEM_BONDANNOTATIONS>
11  15  8
12  16  8
13  15  8
14  16  8
5  10  8
5  14  8
6  13  8
6  9  8
7  10  8
7  12  8
8  11  8
8  9  8

$$$$

