9332
  -OEChem-06261203372D

 28 29  0     0  0  0  0  0  0999 V2000
    3.0000    0.0000    0.0000 P   0  0  0  0  0  0  0  0  0  0  0  0
    2.0000    0.0000    0.0000 O   0  0  0  0  0  0  0  0  0  0  0  0
    5.7320    0.0000    0.0000 O   0  0  0  0  0  0  0  0  0  0  0  0
    4.8661   -1.4999    0.0000 O   0  0  0  0  0  0  0  0  0  0  0  0
    3.0000   -1.0000    0.0000 N   0  0  0  0  0  0  0  0  0  0  0  0
    3.0000    1.0000    0.0000 N   0  0  0  0  0  0  0  0  0  0  0  0
    4.0000    0.0000    0.0000 N   0  0  0  0  0  0  0  0  0  0  0  0
    2.5000   -1.8660    0.0000 C   0  0  0  0  0  0  0  0  0  0  0  0
    3.5000   -1.8660    0.0000 C   0  0  0  0  0  0  0  0  0  0  0  0
    3.5000    1.8660    0.0000 C   0  0  0  0  0  0  0  0  0  0  0  0
    2.5000    1.8660    0.0000 C   0  0  0  0  0  0  0  0  0  0  0  0
    4.8660   -0.5000    0.0000 C   0  0  0  0  0  0  0  0  0  0  0  0
    6.5981   -0.5000    0.0000 C   0  0  0  0  0  0  0  0  0  0  0  0
    7.4641    0.0000    0.0000 C   0  0  0  0  0  0  0  0  0  0  0  0
    1.9174   -1.6540    0.0000 H   0  0  0  0  0  0  0  0  0  0  0  0
    2.3923   -2.4766    0.0000 H   0  0  0  0  0  0  0  0  0  0  0  0
    3.6077   -2.4766    0.0000 H   0  0  0  0  0  0  0  0  0  0  0  0
    4.0826   -1.6540    0.0000 H   0  0  0  0  0  0  0  0  0  0  0  0
    4.0826    1.6540    0.0000 H   0  0  0  0  0  0  0  0  0  0  0  0
    3.6077    2.4766    0.0000 H   0  0  0  0  0  0  0  0  0  0  0  0
    2.3923    2.4766    0.0000 H   0  0  0  0  0  0  0  0  0  0  0  0
    1.9174    1.6540    0.0000 H   0  0  0  0  0  0  0  0  0  0  0  0
    4.3100    0.5369    0.0000 H   0  0  0  0  0  0  0  0  0  0  0  0
    6.1996   -0.9749    0.0000 H   0  0  0  0  0  0  0  0  0  0  0  0
    6.9966   -0.9749    0.0000 H   0  0  0  0  0  0  0  0  0  0  0  0
    7.7741   -0.5369    0.0000 H   0  0  0  0  0  0  0  0  0  0  0  0
    8.0010    0.3100    0.0000 H   0  0  0  0  0  0  0  0  0  0  0  0
    7.1541    0.5369    0.0000 H   0  0  0  0  0  0  0  0  0  0  0  0
  1  2  2  0  0  0  0
  1  5  1  0  0  0  0
  1  6  1  0  0  0  0
  1  7  1  0  0  0  0
  3 12  1  0  0  0  0
  3 13  1  0  0  0  0
  4 12  2  0  0  0  0
  5  8  1  0  0  0  0
  5  9  1  0  0  0  0
  6 10  1  0  0  0  0
  6 11  1  0  0  0  0
  7 12  1  0  0  0  0
  7 23  1  0  0  0  0
  8  9  1  0  0  0  0
  8 15  1  0  0  0  0
  8 16  1  0  0  0  0
  9 17  1  0  0  0  0
  9 18  1  0  0  0  0
 10 11  1  0  0  0  0
 10 19  1  0  0  0  0
 10 20  1  0  0  0  0
 11 21  1  0  0  0  0
 11 22  1  0  0  0  0
 13 14  1  0  0  0  0
 13 24  1  0  0  0  0
 13 25  1  0  0  0  0
 14 26  1  0  0  0  0
 14 27  1  0  0  0  0
 14 28  1  0  0  0  0
M  END
> <PUBCHEM_COMPOUND_CID>
9332

> <PUBCHEM_COMPOUND_CANONICALIZED>
1

> <PUBCHEM_CACTVS_COMPLEXITY>
272

> <PUBCHEM_CACTVS_HBOND_ACCEPTOR>
5

> <PUBCHEM_CACTVS_HBOND_DONOR>
1

> <PUBCHEM_CACTVS_ROTATABLE_BOND>
5

> <PUBCHEM_CACTVS_SUBSKEYS>
AAADccBjMAIAAAAAAAAAAAAAFiwAAAAAAAAAAAAAAAAAAAAAAAAAHgAQgCAAAADhgAYCCAJABAAIQAAAGAAAAAAAAAAAAAAIAAEAAAAAAAAIAAAAAAAAAAAAAAAAAAAAAAAAAAAAAAAAAAAAAAAAAAAAAA==

> <PUBCHEM_IUPAC_OPENEYE_NAME>
ethyl N-[bis(aziridin-1-yl)phosphoryl]carbamate

> <PUBCHEM_IUPAC_CAS_NAME>
N-[bis(1-aziridinyl)phosphoryl]carbamic acid ethyl ester

> <PUBCHEM_IUPAC_NAME>
ethyl N-[bis(aziridin-1-yl)phosphoryl]carbamate

> <PUBCHEM_IUPAC_SYSTEMATIC_NAME>
ethyl N-[bis(aziridin-1-yl)phosphoryl]carbamate

> <PUBCHEM_IUPAC_TRADITIONAL_NAME>
N-diethyleniminophosphorylcarbamic acid ethyl ester

> <PUBCHEM_IUPAC_INCHI>
InChI=1S/C7H14N3O3P/c1-2-13-7(11)8-14(12,9-3-4-9)10-5-6-10/h2-6H2,1H3,(H,8,11,12)

> <PUBCHEM_IUPAC_INCHIKEY>
SPDZFJLQFWSJGA-UHFFFAOYSA-N

> <PUBCHEM_XLOGP3_AA>
-0.3

> <PUBCHEM_EXACT_MASS>
219.077278

> <PUBCHEM_MOLECULAR_FORMULA>
C7H14N3O3P

> <PUBCHEM_MOLECULAR_WEIGHT>
219.178122

> <PUBCHEM_OPENEYE_CAN_SMILES>
CCOC(=O)NP(=O)(N1CC1)N2CC2

> <PUBCHEM_OPENEYE_ISO_SMILES>
CCOC(=O)NP(=O)(N1CC1)N2CC2

> <PUBCHEM_CACTVS_TPSA>
61.4

> <PUBCHEM_MONOISOTOPIC_WEIGHT>
219.077278

> <PUBCHEM_TOTAL_CHARGE>
0

> <PUBCHEM_HEAVY_ATOM_COUNT>
14

> <PUBCHEM_ATOM_DEF_STEREO_COUNT>
0

> <PUBCHEM_ATOM_UDEF_STEREO_COUNT>
0

> <PUBCHEM_BOND_DEF_STEREO_COUNT>
0

> <PUBCHEM_BOND_UDEF_STEREO_COUNT>
0

> <PUBCHEM_ISOTOPIC_ATOM_COUNT>
0

> <PUBCHEM_COMPONENT_COUNT>
1

> <PUBCHEM_CACTVS_TAUTO_COUNT>
3

> <PUBCHEM_COORDINATE_TYPE>
1
5
255

$$$$

