51090886
  -OEChem-06241223002D

 46 47  0     0  0  0  0  0  0999 V2000
    4.5981    4.7327    0.0000 F   0  0  0  0  0  0  0  0  0  0  0  0
    3.7320   -1.7673    0.0000 O   0  0  0  0  0  0  0  0  0  0  0  0
    7.1962    1.2327    0.0000 O   0  0  0  0  0  0  0  0  0  0  0  0
    2.8660   -4.2673    0.0000 O   0  0  0  0  0  0  0  0  0  0  0  0
    5.4641    1.2327    0.0000 N   0  0  0  0  0  0  0  0  0  0  0  0
    8.0901    2.6980    0.0000 N   0  0  0  0  0  0  0  0  0  0  0  0
    8.0901    4.7673    0.0000 N   0  0  0  0  0  0  0  0  0  0  0  0
    4.5981   -0.2673    0.0000 C   0  0  0  0  0  0  0  0  0  0  0  0
    5.4641    0.2327    0.0000 C   0  0  0  0  0  0  0  0  0  0  0  0
    4.5981   -1.2673    0.0000 C   0  0  0  0  0  0  0  0  0  0  0  0
    6.3301    2.7327    0.0000 C   0  0  0  0  0  0  0  0  0  0  0  0
    7.1962    3.2327    0.0000 C   0  0  0  0  0  0  0  0  0  0  0  0
    7.1962    4.2327    0.0000 C   0  0  0  0  0  0  0  0  0  0  0  0
    6.3301    1.7327    0.0000 C   0  0  0  0  0  0  0  0  0  0  0  0
    5.4641    3.2327    0.0000 C   0  0  0  0  0  0  0  0  0  0  0  0
    8.9962    3.2118    0.0000 C   0  0  0  0  0  0  0  0  0  0  0  0
    8.9962    4.2535    0.0000 C   0  0  0  0  0  0  0  0  0  0  0  0
    6.3301    4.7327    0.0000 C   0  0  0  0  0  0  0  0  0  0  0  0
    5.4641    4.2327    0.0000 C   0  0  0  0  0  0  0  0  0  0  0  0
    3.7320   -2.7673    0.0000 C   0  0  0  0  0  0  0  0  0  0  0  0
    2.8660   -3.2673    0.0000 C   0  0  0  0  0  0  0  0  0  0  0  0
    9.8602    2.7085    0.0000 C   0  0  0  0  0  0  0  0  0  0  0  0
    9.8602    4.7568    0.0000 C   0  0  0  0  0  0  0  0  0  0  0  0
    2.0000   -4.7673    0.0000 C   0  0  0  0  0  0  0  0  0  0  0  0
    4.3860    0.3153    0.0000 H   0  0  0  0  0  0  0  0  0  0  0  0
    3.9875   -0.3750    0.0000 H   0  0  0  0  0  0  0  0  0  0  0  0
    5.6762   -0.3499    0.0000 H   0  0  0  0  0  0  0  0  0  0  0  0
    6.0747    0.3403    0.0000 H   0  0  0  0  0  0  0  0  0  0  0  0
    4.8101   -1.8499    0.0000 H   0  0  0  0  0  0  0  0  0  0  0  0
    5.2087   -1.1597    0.0000 H   0  0  0  0  0  0  0  0  0  0  0  0
    4.9272    1.5427    0.0000 H   0  0  0  0  0  0  0  0  0  0  0  0
    4.9272    2.9227    0.0000 H   0  0  0  0  0  0  0  0  0  0  0  0
    6.3301    5.3527    0.0000 H   0  0  0  0  0  0  0  0  0  0  0  0
    3.9441   -3.3499    0.0000 H   0  0  0  0  0  0  0  0  0  0  0  0
    4.3426   -2.6597    0.0000 H   0  0  0  0  0  0  0  0  0  0  0  0
    2.6540   -2.6847    0.0000 H   0  0  0  0  0  0  0  0  0  0  0  0
    2.2554   -3.3750    0.0000 H   0  0  0  0  0  0  0  0  0  0  0  0
    9.5482    2.1728    0.0000 H   0  0  0  0  0  0  0  0  0  0  0  0
   10.3960    2.3965    0.0000 H   0  0  0  0  0  0  0  0  0  0  0  0
   10.1723    3.2443    0.0000 H   0  0  0  0  0  0  0  0  0  0  0  0
   10.1723    4.2211    0.0000 H   0  0  0  0  0  0  0  0  0  0  0  0
   10.3960    5.0689    0.0000 H   0  0  0  0  0  0  0  0  0  0  0  0
    9.5482    5.2926    0.0000 H   0  0  0  0  0  0  0  0  0  0  0  0
    1.6900   -4.2304    0.0000 H   0  0  0  0  0  0  0  0  0  0  0  0
    1.4631   -5.0773    0.0000 H   0  0  0  0  0  0  0  0  0  0  0  0
    2.3100   -5.3043    0.0000 H   0  0  0  0  0  0  0  0  0  0  0  0
  1 19  1  0  0  0  0
  2 10  1  0  0  0  0
  2 20  1  0  0  0  0
  3 14  2  0  0  0  0
  4 21  1  0  0  0  0
  4 24  1  0  0  0  0
  5  9  1  0  0  0  0
  5 14  1  0  0  0  0
  5 31  1  0  0  0  0
  6 12  1  0  0  0  0
  6 16  2  0  0  0  0
  7 13  1  0  0  0  0
  7 17  2  0  0  0  0
  8  9  1  0  0  0  0
  8 10  1  0  0  0  0
  8 25  1  0  0  0  0
  8 26  1  0  0  0  0
  9 27  1  0  0  0  0
  9 28  1  0  0  0  0
 10 29  1  0  0  0  0
 10 30  1  0  0  0  0
 11 12  2  0  0  0  0
 11 14  1  0  0  0  0
 11 15  1  0  0  0  0
 12 13  1  0  0  0  0
 13 18  2  0  0  0  0
 15 19  2  0  0  0  0
 15 32  1  0  0  0  0
 16 17  1  0  0  0  0
 16 22  1  0  0  0  0
 17 23  1  0  0  0  0
 18 19  1  0  0  0  0
 18 33  1  0  0  0  0
 20 21  1  0  0  0  0
 20 34  1  0  0  0  0
 20 35  1  0  0  0  0
 21 36  1  0  0  0  0
 21 37  1  0  0  0  0
 22 38  1  0  0  0  0
 22 39  1  0  0  0  0
 22 40  1  0  0  0  0
 23 41  1  0  0  0  0
 23 42  1  0  0  0  0
 23 43  1  0  0  0  0
 24 44  1  0  0  0  0
 24 45  1  0  0  0  0
 24 46  1  0  0  0  0
M  END
> <PUBCHEM_COMPOUND_CID>
51090886

> <PUBCHEM_COMPOUND_CANONICALIZED>
1

> <PUBCHEM_CACTVS_COMPLEXITY>
399

> <PUBCHEM_CACTVS_HBOND_ACCEPTOR>
6

> <PUBCHEM_CACTVS_HBOND_DONOR>
1

> <PUBCHEM_CACTVS_ROTATABLE_BOND>
8

> <PUBCHEM_CACTVS_SUBSKEYS>
AAADceB7MQAAAAAAAAAAAAAAAAAAAAAAAAA8QAAAAAAAAACx8AAAHwAQAAAADAjhng4ywLLIFACoAyVyVACCgCQlEiAAmKE4dNgJYPrA1ZGWIYhilgDKyccciACOAAAAQAACACAAAACAAAQAQAAAAAAAAA==

> <PUBCHEM_IUPAC_OPENEYE_NAME>
7-fluoro-N-[3-(2-methoxyethoxy)propyl]-2,3-dimethyl-quinoxaline-5-carboxamide

> <PUBCHEM_IUPAC_CAS_NAME>
7-fluoro-N-[3-(2-methoxyethoxy)propyl]-2,3-dimethyl-5-quinoxalinecarboxamide

> <PUBCHEM_IUPAC_NAME>
7-fluoro-N-[3-(2-methoxyethoxy)propyl]-2,3-dimethylquinoxaline-5-carboxamide

> <PUBCHEM_IUPAC_SYSTEMATIC_NAME>
7-fluoranyl-N-[3-(2-methoxyethoxy)propyl]-2,3-dimethyl-quinoxaline-5-carboxamide

> <PUBCHEM_IUPAC_TRADITIONAL_NAME>
7-fluoro-N-[3-(2-methoxyethoxy)propyl]-2,3-dimethyl-quinoxaline-5-carboxamide

> <PUBCHEM_IUPAC_INCHI>
InChI=1S/C17H22FN3O3/c1-11-12(2)21-16-14(9-13(18)10-15(16)20-11)17(22)19-5-4-6-24-8-7-23-3/h9-10H,4-8H2,1-3H3,(H,19,22)

> <PUBCHEM_IUPAC_INCHIKEY>
KFFMJYKZMMODMG-UHFFFAOYSA-N

> <PUBCHEM_XLOGP3_AA>
1.4

> <PUBCHEM_EXACT_MASS>
335.16452

> <PUBCHEM_MOLECULAR_FORMULA>
C17H22FN3O3

> <PUBCHEM_MOLECULAR_WEIGHT>
335.373283

> <PUBCHEM_OPENEYE_CAN_SMILES>
CC1=NC2=C(C(=CC(=C2)F)C(=O)NCCCOCCOC)N=C1C

> <PUBCHEM_OPENEYE_ISO_SMILES>
CC1=NC2=C(C(=CC(=C2)F)C(=O)NCCCOCCOC)N=C1C

> <PUBCHEM_CACTVS_TPSA>
73.3

> <PUBCHEM_MONOISOTOPIC_WEIGHT>
335.16452

> <PUBCHEM_TOTAL_CHARGE>
0

> <PUBCHEM_HEAVY_ATOM_COUNT>
24

> <PUBCHEM_ATOM_DEF_STEREO_COUNT>
0

> <PUBCHEM_ATOM_UDEF_STEREO_COUNT>
0

> <PUBCHEM_BOND_DEF_STEREO_COUNT>
0

> <PUBCHEM_BOND_UDEF_STEREO_COUNT>
0

> <PUBCHEM_ISOTOPIC_ATOM_COUNT>
0

> <PUBCHEM_COMPONENT_COUNT>
1

> <PUBCHEM_CACTVS_TAUTO_COUNT>
2

> <PUBCHEM_COORDINATE_TYPE>
1
5
255

> <PUBCHEM_BONDANNOTATIONS>
11  12  8
11  15  8
12  13  8
13  18  8
15  19  8
16  17  8
18  19  8
6  12  8
6  16  8
7  13  8
7  17  8

$$$$

