5602
  -OEChem-06261200462D

 54 56  0     0  0  0  0  0  0999 V2000
   11.5884   -1.2068    0.0000 O   0  0  0  0  0  0  0  0  0  0  0  0
   10.7166   -2.7034    0.0000 O   0  0  0  0  0  0  0  0  0  0  0  0
    2.8660   -0.1626    0.0000 C   0  0  0  0  0  0  0  0  0  0  0  0
    2.8660    1.8374    0.0000 C   0  0  0  0  0  0  0  0  0  0  0  0
    2.0000    0.3374    0.0000 C   0  0  0  0  0  0  0  0  0  0  0  0
    2.0000    1.3374    0.0000 C   0  0  0  0  0  0  0  0  0  0  0  0
    3.7320    0.3374    0.0000 C   0  0  0  0  0  0  0  0  0  0  0  0
    3.7320    1.3374    0.0000 C   0  0  0  0  0  0  0  0  0  0  0  0
    2.3660   -1.0286    0.0000 C   0  0  0  0  0  0  0  0  0  0  0  0
    3.3660   -1.0286    0.0000 C   0  0  0  0  0  0  0  0  0  0  0  0
    2.3660    2.7034    0.0000 C   0  0  0  0  0  0  0  0  0  0  0  0
    3.3660    2.7034    0.0000 C   0  0  0  0  0  0  0  0  0  0  0  0
    4.6260   -0.1973    0.0000 C   0  0  0  0  0  0  0  0  0  0  0  0
    4.6260    1.8721    0.0000 C   0  0  0  0  0  0  0  0  0  0  0  0
    5.5321    0.3166    0.0000 C   0  0  0  0  0  0  0  0  0  0  0  0
    5.5321    1.3582    0.0000 C   0  0  0  0  0  0  0  0  0  0  0  0
    6.3961   -0.1868    0.0000 C   0  0  0  0  0  0  0  0  0  0  0  0
    6.3923   -1.1867    0.0000 C   0  0  0  0  0  0  0  0  0  0  0  0
    7.2641    0.3099    0.0000 C   0  0  0  0  0  0  0  0  0  0  0  0
    8.1282   -0.1934    0.0000 C   0  0  0  0  0  0  0  0  0  0  0  0
    8.1243   -1.1934    0.0000 C   0  0  0  0  0  0  0  0  0  0  0  0
    8.9961    0.3032    0.0000 C   0  0  0  0  0  0  0  0  0  0  0  0
    8.9884   -1.6968    0.0000 C   0  0  0  0  0  0  0  0  0  0  0  0
    9.8602   -0.2001    0.0000 C   0  0  0  0  0  0  0  0  0  0  0  0
    9.8564   -1.2001    0.0000 C   0  0  0  0  0  0  0  0  0  0  0  0
   10.7205   -1.7034    0.0000 C   0  0  0  0  0  0  0  0  0  0  0  0
    1.3894    0.4451    0.0000 H   0  0  0  0  0  0  0  0  0  0  0  0
    1.7880   -0.2452    0.0000 H   0  0  0  0  0  0  0  0  0  0  0  0
    1.7880    1.9200    0.0000 H   0  0  0  0  0  0  0  0  0  0  0  0
    1.3894    1.2297    0.0000 H   0  0  0  0  0  0  0  0  0  0  0  0
    1.8291   -0.7186    0.0000 H   0  0  0  0  0  0  0  0  0  0  0  0
    2.0560   -1.5656    0.0000 H   0  0  0  0  0  0  0  0  0  0  0  0
    2.9030   -1.3386    0.0000 H   0  0  0  0  0  0  0  0  0  0  0  0
    2.8291   -1.3386    0.0000 H   0  0  0  0  0  0  0  0  0  0  0  0
    3.6760   -1.5656    0.0000 H   0  0  0  0  0  0  0  0  0  0  0  0
    3.9030   -0.7186    0.0000 H   0  0  0  0  0  0  0  0  0  0  0  0
    2.9030    3.0134    0.0000 H   0  0  0  0  0  0  0  0  0  0  0  0
    2.0560    3.2404    0.0000 H   0  0  0  0  0  0  0  0  0  0  0  0
    1.8291    2.3934    0.0000 H   0  0  0  0  0  0  0  0  0  0  0  0
    3.9030    2.3934    0.0000 H   0  0  0  0  0  0  0  0  0  0  0  0
    3.6760    3.2404    0.0000 H   0  0  0  0  0  0  0  0  0  0  0  0
    2.8291    3.0134    0.0000 H   0  0  0  0  0  0  0  0  0  0  0  0
    4.6188   -0.8172    0.0000 H   0  0  0  0  0  0  0  0  0  0  0  0
    4.6188    2.4920    0.0000 H   0  0  0  0  0  0  0  0  0  0  0  0
    6.0678    1.6703    0.0000 H   0  0  0  0  0  0  0  0  0  0  0  0
    5.7723   -1.1844    0.0000 H   0  0  0  0  0  0  0  0  0  0  0  0
    6.3899   -1.8067    0.0000 H   0  0  0  0  0  0  0  0  0  0  0  0
    7.0123   -1.1891    0.0000 H   0  0  0  0  0  0  0  0  0  0  0  0
    7.2665    0.9299    0.0000 H   0  0  0  0  0  0  0  0  0  0  0  0
    7.5862   -1.5014    0.0000 H   0  0  0  0  0  0  0  0  0  0  0  0
    8.9985    0.9232    0.0000 H   0  0  0  0  0  0  0  0  0  0  0  0
    8.9860   -2.3168    0.0000 H   0  0  0  0  0  0  0  0  0  0  0  0
   10.3984    0.1078    0.0000 H   0  0  0  0  0  0  0  0  0  0  0  0
   12.1241   -1.5188    0.0000 H   0  0  0  0  0  0  0  0  0  0  0  0
  1 26  1  0  0  0  0
  1 54  1  0  0  0  0
  2 26  2  0  0  0  0
  3  5  1  0  0  0  0
  3  7  1  0  0  0  0
  3  9  1  0  0  0  0
  3 10  1  0  0  0  0
  4  6  1  0  0  0  0
  4  8  1  0  0  0  0
  4 11  1  0  0  0  0
  4 12  1  0  0  0  0
  5  6  1  0  0  0  0
  5 27  1  0  0  0  0
  5 28  1  0  0  0  0
  6 29  1  0  0  0  0
  6 30  1  0  0  0  0
  7  8  2  0  0  0  0
  7 13  1  0  0  0  0
  8 14  1  0  0  0  0
  9 31  1  0  0  0  0
  9 32  1  0  0  0  0
  9 33  1  0  0  0  0
 10 34  1  0  0  0  0
 10 35  1  0  0  0  0
 10 36  1  0  0  0  0
 11 37  1  0  0  0  0
 11 38  1  0  0  0  0
 11 39  1  0  0  0  0
 12 40  1  0  0  0  0
 12 41  1  0  0  0  0
 12 42  1  0  0  0  0
 13 15  2  0  0  0  0
 13 43  1  0  0  0  0
 14 16  2  0  0  0  0
 14 44  1  0  0  0  0
 15 16  1  0  0  0  0
 15 17  1  0  0  0  0
 16 45  1  0  0  0  0
 17 18  1  0  0  0  0
 17 19  2  3  0  0  0
 18 46  1  0  0  0  0
 18 47  1  0  0  0  0
 18 48  1  0  0  0  0
 19 20  1  0  0  0  0
 19 49  1  0  0  0  0
 20 21  2  0  0  0  0
 20 22  1  0  0  0  0
 21 23  1  0  0  0  0
 21 50  1  0  0  0  0
 22 24  2  0  0  0  0
 22 51  1  0  0  0  0
 23 25  2  0  0  0  0
 23 52  1  0  0  0  0
 24 25  1  0  0  0  0
 24 53  1  0  0  0  0
 25 26  1  0  0  0  0
M  END
> <PUBCHEM_COMPOUND_CID>
5602

> <PUBCHEM_COMPOUND_CANONICALIZED>
1

> <PUBCHEM_CACTVS_COMPLEXITY>
549

> <PUBCHEM_CACTVS_HBOND_ACCEPTOR>
2

> <PUBCHEM_CACTVS_HBOND_DONOR>
1

> <PUBCHEM_CACTVS_ROTATABLE_BOND>
3

> <PUBCHEM_CACTVS_SUBSKEYS>
AAADceB4MAAAAAAAAAAAAAAAAAAAAAAAAAAwYMAAAAAAAADBQAAAGgAACAAADgCAmAAyCIAAAgCIAiDSCAACAAAkAAAIiAEACMgIJjKAFRCAcQAkwAEImYeIyPCPwAACAAAQAACAAAQAACAAAAAAAAAAAA==

> <PUBCHEM_IUPAC_OPENEYE_NAME>
4-[2-(1,1,4,4-tetramethyltetralin-6-yl)prop-1-enyl]benzoic acid

> <PUBCHEM_IUPAC_CAS_NAME>
4-[2-(5,5,8,8-tetramethyl-6,7-dihydronaphthalen-2-yl)prop-1-enyl]benzoic acid

> <PUBCHEM_IUPAC_NAME>
4-[2-(5,5,8,8-tetramethyl-6,7-dihydronaphthalen-2-yl)prop-1-enyl]benzoic acid

> <PUBCHEM_IUPAC_SYSTEMATIC_NAME>
4-[2-(5,5,8,8-tetramethyl-6,7-dihydronaphthalen-2-yl)prop-1-enyl]benzoic acid

> <PUBCHEM_IUPAC_TRADITIONAL_NAME>
4-[2-(1,1,4,4-tetramethyltetralin-6-yl)prop-1-enyl]benzoic acid

> <PUBCHEM_IUPAC_INCHI>
InChI=1S/C24H28O2/c1-16(14-17-6-8-18(9-7-17)22(25)26)19-10-11-20-21(15-19)24(4,5)13-12-23(20,2)3/h6-11,14-15H,12-13H2,1-5H3,(H,25,26)

> <PUBCHEM_IUPAC_INCHIKEY>
FOIVPCKZDPCJJY-UHFFFAOYSA-N

> <PUBCHEM_XLOGP3_AA>
7.5

> <PUBCHEM_EXACT_MASS>
348.20893

> <PUBCHEM_MOLECULAR_FORMULA>
C24H28O2

> <PUBCHEM_MOLECULAR_WEIGHT>
348.47792

> <PUBCHEM_OPENEYE_CAN_SMILES>
CC(=CC1=CC=C(C=C1)C(=O)O)C2=CC3=C(C=C2)C(CCC3(C)C)(C)C

> <PUBCHEM_OPENEYE_ISO_SMILES>
CC(=CC1=CC=C(C=C1)C(=O)O)C2=CC3=C(C=C2)C(CCC3(C)C)(C)C

> <PUBCHEM_CACTVS_TPSA>
37.3

> <PUBCHEM_MONOISOTOPIC_WEIGHT>
348.20893

> <PUBCHEM_TOTAL_CHARGE>
0

> <PUBCHEM_HEAVY_ATOM_COUNT>
26

> <PUBCHEM_ATOM_DEF_STEREO_COUNT>
0

> <PUBCHEM_ATOM_UDEF_STEREO_COUNT>
0

> <PUBCHEM_BOND_DEF_STEREO_COUNT>
0

> <PUBCHEM_BOND_UDEF_STEREO_COUNT>
1

> <PUBCHEM_ISOTOPIC_ATOM_COUNT>
0

> <PUBCHEM_COMPONENT_COUNT>
1

> <PUBCHEM_CACTVS_TAUTO_COUNT>
1

> <PUBCHEM_COORDINATE_TYPE>
1
5
255

> <PUBCHEM_BONDANNOTATIONS>
13  15  8
14  16  8
15  16  8
17  19  1
20  21  8
20  22  8
21  23  8
22  24  8
23  25  8
24  25  8
7  13  8
7  8  8
8  14  8

$$$$

