12695
  -OEChem-06261207152D

 10  9  0     0  0  0  0  0  0999 V2000
    5.4641    0.8170    0.0000 F   0  0  0  0  0  0  0  0  0  0  0  0
    5.0981   -0.5490    0.0000 F   0  0  0  0  0  0  0  0  0  0  0  0
    4.0981    1.1830    0.0000 F   0  0  0  0  0  0  0  0  0  0  0  0
    2.0000    0.8170    0.0000 F   0  0  0  0  0  0  0  0  0  0  0  0
    2.3660   -0.5490    0.0000 F   0  0  0  0  0  0  0  0  0  0  0  0
    3.3660    1.1830    0.0000 F   0  0  0  0  0  0  0  0  0  0  0  0
    3.7320   -1.1830    0.0000 O   0  0  0  0  0  0  0  0  0  0  0  0
    3.7320   -0.1830    0.0000 C   0  0  0  0  0  0  0  0  0  0  0  0
    4.5981    0.3170    0.0000 C   0  0  0  0  0  0  0  0  0  0  0  0
    2.8660    0.3170    0.0000 C   0  0  0  0  0  0  0  0  0  0  0  0
  1  9  1  0  0  0  0
  2  9  1  0  0  0  0
  3  9  1  0  0  0  0
  4 10  1  0  0  0  0
  5 10  1  0  0  0  0
  6 10  1  0  0  0  0
  7  8  2  0  0  0  0
  8  9  1  0  0  0  0
  8 10  1  0  0  0  0
M  END
> <PUBCHEM_COMPOUND_CID>
12695

> <PUBCHEM_COMPOUND_CANONICALIZED>
1

> <PUBCHEM_CACTVS_COMPLEXITY>
124

> <PUBCHEM_CACTVS_HBOND_ACCEPTOR>
7

> <PUBCHEM_CACTVS_HBOND_DONOR>
0

> <PUBCHEM_CACTVS_ROTATABLE_BOND>
0

> <PUBCHEM_CACTVS_SUBSKEYS>
AAADcQBAIcAAAAAAAAAAAAAAAAAAAAAAAAAAAAAAAAAAAAAAAAAACwAAAAAACAQAgBAAAAAAAAAIAIAQAAAAAAAAAAAAAAAAAAAAAAAAAAAAAAAAAAAAAAAAAAAAAAAAAAAAAAAAAAAAAAAAAAAAAAAAAA==

> <PUBCHEM_IUPAC_OPENEYE_NAME>
1,1,1,3,3,3-hexafluoropropan-2-one

> <PUBCHEM_IUPAC_CAS_NAME>
1,1,1,3,3,3-hexafluoro-2-propanone

> <PUBCHEM_IUPAC_NAME>
1,1,1,3,3,3-hexafluoropropan-2-one

> <PUBCHEM_IUPAC_SYSTEMATIC_NAME>
1,1,1,3,3,3-hexakis(fluoranyl)propan-2-one

> <PUBCHEM_IUPAC_TRADITIONAL_NAME>
1,1,1,3,3,3-hexafluoroacetone

> <PUBCHEM_IUPAC_INCHI>
InChI=1S/C3F6O/c4-2(5,6)1(10)3(7,8)9

> <PUBCHEM_IUPAC_INCHIKEY>
VBZWSGALLODQNC-UHFFFAOYSA-N

> <PUBCHEM_XLOGP3>
1.5

> <PUBCHEM_EXACT_MASS>
165.985334

> <PUBCHEM_MOLECULAR_FORMULA>
C3F6O

> <PUBCHEM_MOLECULAR_WEIGHT>
166.021919

> <PUBCHEM_OPENEYE_CAN_SMILES>
C(=O)(C(F)(F)F)C(F)(F)F

> <PUBCHEM_OPENEYE_ISO_SMILES>
C(=O)(C(F)(F)F)C(F)(F)F

> <PUBCHEM_CACTVS_TPSA>
17.1

> <PUBCHEM_MONOISOTOPIC_WEIGHT>
165.985334

> <PUBCHEM_TOTAL_CHARGE>
0

> <PUBCHEM_HEAVY_ATOM_COUNT>
10

> <PUBCHEM_ATOM_DEF_STEREO_COUNT>
0

> <PUBCHEM_ATOM_UDEF_STEREO_COUNT>
0

> <PUBCHEM_BOND_DEF_STEREO_COUNT>
0

> <PUBCHEM_BOND_UDEF_STEREO_COUNT>
0

> <PUBCHEM_ISOTOPIC_ATOM_COUNT>
0

> <PUBCHEM_COMPONENT_COUNT>
1

> <PUBCHEM_CACTVS_TAUTO_COUNT>
1

> <PUBCHEM_COORDINATE_TYPE>
1
5
255

$$$$

