13069
  -OEChem-06261207432D

 26 28  0     0  0  0  0  0  0999 V2000
    4.6660    1.3623    0.0000 N   0  0  0  0  0  0  0  0  0  0  0  0
    5.5321   -0.1377    0.0000 C   0  0  0  0  0  0  0  0  0  0  0  0
    3.8000   -0.1377    0.0000 C   0  0  0  0  0  0  0  0  0  0  0  0
    5.5321   -1.1377    0.0000 C   0  0  0  0  0  0  0  0  0  0  0  0
    3.8000   -1.1377    0.0000 C   0  0  0  0  0  0  0  0  0  0  0  0
    4.6660    0.3623    0.0000 C   0  0  0  0  0  0  0  0  0  0  0  0
    4.6660   -1.6377    0.0000 C   0  0  0  0  0  0  0  0  0  0  0  0
    6.4260    0.3970    0.0000 C   0  0  0  0  0  0  0  0  0  0  0  0
    2.9061    0.3970    0.0000 C   0  0  0  0  0  0  0  0  0  0  0  0
    6.4260   -1.6723    0.0000 C   0  0  0  0  0  0  0  0  0  0  0  0
    2.9061   -1.6723    0.0000 C   0  0  0  0  0  0  0  0  0  0  0  0
    7.3321   -0.1169    0.0000 C   0  0  0  0  0  0  0  0  0  0  0  0
    2.0000   -0.1169    0.0000 C   0  0  0  0  0  0  0  0  0  0  0  0
    7.3321   -1.1585    0.0000 C   0  0  0  0  0  0  0  0  0  0  0  0
    2.0000   -1.1585    0.0000 C   0  0  0  0  0  0  0  0  0  0  0  0
    4.6660   -2.2577    0.0000 H   0  0  0  0  0  0  0  0  0  0  0  0
    6.4188    1.0170    0.0000 H   0  0  0  0  0  0  0  0  0  0  0  0
    2.9132    1.0170    0.0000 H   0  0  0  0  0  0  0  0  0  0  0  0
    6.4188   -2.2923    0.0000 H   0  0  0  0  0  0  0  0  0  0  0  0
    2.9132   -2.2923    0.0000 H   0  0  0  0  0  0  0  0  0  0  0  0
    7.8678    0.1952    0.0000 H   0  0  0  0  0  0  0  0  0  0  0  0
    1.4643    0.1952    0.0000 H   0  0  0  0  0  0  0  0  0  0  0  0
    7.8678   -1.4706    0.0000 H   0  0  0  0  0  0  0  0  0  0  0  0
    1.4643   -1.4706    0.0000 H   0  0  0  0  0  0  0  0  0  0  0  0
    5.2030    1.6723    0.0000 H   0  0  0  0  0  0  0  0  0  0  0  0
    4.1291    1.6723    0.0000 H   0  0  0  0  0  0  0  0  0  0  0  0
  1  6  1  0  0  0  0
  1 25  1  0  0  0  0
  1 26  1  0  0  0  0
  2  4  1  0  0  0  0
  2  6  2  0  0  0  0
  2  8  1  0  0  0  0
  3  5  1  0  0  0  0
  3  6  1  0  0  0  0
  3  9  2  0  0  0  0
  4  7  2  0  0  0  0
  4 10  1  0  0  0  0
  5  7  1  0  0  0  0
  5 11  2  0  0  0  0
  7 16  1  0  0  0  0
  8 12  2  0  0  0  0
  8 17  1  0  0  0  0
  9 13  1  0  0  0  0
  9 18  1  0  0  0  0
 10 14  2  0  0  0  0
 10 19  1  0  0  0  0
 11 15  1  0  0  0  0
 11 20  1  0  0  0  0
 12 14  1  0  0  0  0
 12 21  1  0  0  0  0
 13 15  2  0  0  0  0
 13 22  1  0  0  0  0
 14 23  1  0  0  0  0
 15 24  1  0  0  0  0
M  END
> <PUBCHEM_COMPOUND_CID>
13069

> <PUBCHEM_COMPOUND_CANONICALIZED>
1

> <PUBCHEM_CACTVS_COMPLEXITY>
203

> <PUBCHEM_CACTVS_HBOND_ACCEPTOR>
1

> <PUBCHEM_CACTVS_HBOND_DONOR>
1

> <PUBCHEM_CACTVS_ROTATABLE_BOND>
0

> <PUBCHEM_CACTVS_SUBSKEYS>
AAADccByAAAAAAAAAAAAAAAAAAAAAAAAAAAwYMAAAAAAAADBVAAAHAAQAAAADAiBGAAwwMBAAACAAiRCQACCAAAgAAAIiAAARIgIICKAkZGAIABggAAIyAcQgMAOwAACQAASAACAAASAACQAAAAAAAAAAA==

> <PUBCHEM_IUPAC_OPENEYE_NAME>
anthracen-9-amine

> <PUBCHEM_IUPAC_CAS_NAME>
9-anthracenamine

> <PUBCHEM_IUPAC_NAME>
anthracen-9-amine

> <PUBCHEM_IUPAC_SYSTEMATIC_NAME>
anthracen-9-amine

> <PUBCHEM_IUPAC_TRADITIONAL_NAME>
9-anthrylamine

> <PUBCHEM_IUPAC_INCHI>
InChI=1S/C14H11N/c15-14-12-7-3-1-5-10(12)9-11-6-2-4-8-13(11)14/h1-9H,15H2

> <PUBCHEM_IUPAC_INCHIKEY>
LHNICELDCMPPDE-UHFFFAOYSA-N

> <PUBCHEM_XLOGP3>
3.9

> <PUBCHEM_EXACT_MASS>
193.089149

> <PUBCHEM_MOLECULAR_FORMULA>
C14H11N

> <PUBCHEM_MOLECULAR_WEIGHT>
193.24384

> <PUBCHEM_OPENEYE_CAN_SMILES>
C1=CC=C2C(=C1)C=C3C=CC=CC3=C2N

> <PUBCHEM_OPENEYE_ISO_SMILES>
C1=CC=C2C(=C1)C=C3C=CC=CC3=C2N

> <PUBCHEM_CACTVS_TPSA>
26

> <PUBCHEM_MONOISOTOPIC_WEIGHT>
193.089149

> <PUBCHEM_TOTAL_CHARGE>
0

> <PUBCHEM_HEAVY_ATOM_COUNT>
15

> <PUBCHEM_ATOM_DEF_STEREO_COUNT>
0

> <PUBCHEM_ATOM_UDEF_STEREO_COUNT>
0

> <PUBCHEM_BOND_DEF_STEREO_COUNT>
0

> <PUBCHEM_BOND_UDEF_STEREO_COUNT>
0

> <PUBCHEM_ISOTOPIC_ATOM_COUNT>
0

> <PUBCHEM_COMPONENT_COUNT>
1

> <PUBCHEM_CACTVS_TAUTO_COUNT>
1

> <PUBCHEM_COORDINATE_TYPE>
1
5
255

> <PUBCHEM_BONDANNOTATIONS>
10  14  8
11  15  8
12  14  8
13  15  8
2  4  8
2  6  8
2  8  8
3  5  8
3  6  8
3  9  8
4  10  8
4  7  8
5  11  8
5  7  8
8  12  8
9  13  8

$$$$

