17395878
  -OEChem-06241222522D

 42 44  0     0  0  0  0  0  0999 V2000
    4.5981   -0.0352    0.0000 O   0  0  0  0  0  0  0  0  0  0  0  0
    4.9641    3.0036    0.0000 O   0  0  0  0  0  0  0  0  0  0  0  0
    2.8660   -1.0352    0.0000 O   0  0  0  0  0  0  0  0  0  0  0  0
    5.4641   -4.5352    0.0000 O   0  0  0  0  0  0  0  0  0  0  0  0
    3.7320   -4.5352    0.0000 O   0  0  0  0  0  0  0  0  0  0  0  0
    6.2731    2.0526    0.0000 N   0  0  0  0  0  0  0  0  0  0  0  0
    5.4641    0.4648    0.0000 C   0  0  0  0  0  0  0  0  0  0  0  0
    4.5981   -1.0352    0.0000 C   0  0  0  0  0  0  0  0  0  0  0  0
    5.4641    1.4648    0.0000 C   0  0  0  0  0  0  0  0  0  0  0  0
    3.7320   -1.5352    0.0000 C   0  0  0  0  0  0  0  0  0  0  0  0
    5.9641    3.0036    0.0000 C   0  0  0  0  0  0  0  0  0  0  0  0
    6.5519    3.8126    0.0000 C   0  0  0  0  0  0  0  0  0  0  0  0
    4.5981   -3.0352    0.0000 C   0  0  0  0  0  0  0  0  0  0  0  0
    5.4641   -1.5352    0.0000 C   0  0  0  0  0  0  0  0  0  0  0  0
    3.7320   -2.5352    0.0000 C   0  0  0  0  0  0  0  0  0  0  0  0
    5.4641   -2.5352    0.0000 C   0  0  0  0  0  0  0  0  0  0  0  0
    4.6551    2.0526    0.0000 C   0  0  0  0  0  0  0  0  0  0  0  0
    6.1452    4.7262    0.0000 C   0  0  0  0  0  0  0  0  0  0  0  0
    7.5464    3.7081    0.0000 C   0  0  0  0  0  0  0  0  0  0  0  0
    4.5981   -4.0352    0.0000 C   0  0  0  0  0  0  0  0  0  0  0  0
    6.7329    5.5352    0.0000 C   0  0  0  0  0  0  0  0  0  0  0  0
    8.1342    4.5171    0.0000 C   0  0  0  0  0  0  0  0  0  0  0  0
    7.7275    5.4307    0.0000 C   0  0  0  0  0  0  0  0  0  0  0  0
    2.0000   -1.5352    0.0000 C   0  0  0  0  0  0  0  0  0  0  0  0
    5.4641   -5.5352    0.0000 C   0  0  0  0  0  0  0  0  0  0  0  0
    5.6762   -0.1178    0.0000 H   0  0  0  0  0  0  0  0  0  0  0  0
    6.0747    0.5725    0.0000 H   0  0  0  0  0  0  0  0  0  0  0  0
    6.0010   -1.2252    0.0000 H   0  0  0  0  0  0  0  0  0  0  0  0
    3.1951   -2.8452    0.0000 H   0  0  0  0  0  0  0  0  0  0  0  0
    6.0010   -2.8452    0.0000 H   0  0  0  0  0  0  0  0  0  0  0  0
    4.0654    1.8610    0.0000 H   0  0  0  0  0  0  0  0  0  0  0  0
    5.5286    4.7910    0.0000 H   0  0  0  0  0  0  0  0  0  0  0  0
    7.7986    3.1417    0.0000 H   0  0  0  0  0  0  0  0  0  0  0  0
    6.4808    6.1016    0.0000 H   0  0  0  0  0  0  0  0  0  0  0  0
    8.7508    4.4523    0.0000 H   0  0  0  0  0  0  0  0  0  0  0  0
    8.0919    5.9323    0.0000 H   0  0  0  0  0  0  0  0  0  0  0  0
    1.6900   -0.9983    0.0000 H   0  0  0  0  0  0  0  0  0  0  0  0
    1.4631   -1.8452    0.0000 H   0  0  0  0  0  0  0  0  0  0  0  0
    2.3100   -2.0722    0.0000 H   0  0  0  0  0  0  0  0  0  0  0  0
    4.8441   -5.5352    0.0000 H   0  0  0  0  0  0  0  0  0  0  0  0
    5.4641   -6.1552    0.0000 H   0  0  0  0  0  0  0  0  0  0  0  0
    6.0841   -5.5352    0.0000 H   0  0  0  0  0  0  0  0  0  0  0  0
  1  7  1  0  0  0  0
  1  8  1  0  0  0  0
  2 11  1  0  0  0  0
  2 17  1  0  0  0  0
  3 10  1  0  0  0  0
  3 24  1  0  0  0  0
  4 20  1  0  0  0  0
  4 25  1  0  0  0  0
  5 20  2  0  0  0  0
  6  9  1  0  0  0  0
  6 11  2  0  0  0  0
  7  9  1  0  0  0  0
  7 26  1  0  0  0  0
  7 27  1  0  0  0  0
  8 10  2  0  0  0  0
  8 14  1  0  0  0  0
  9 17  2  0  0  0  0
 10 15  1  0  0  0  0
 11 12  1  0  0  0  0
 12 18  2  0  0  0  0
 12 19  1  0  0  0  0
 13 15  2  0  0  0  0
 13 16  1  0  0  0  0
 13 20  1  0  0  0  0
 14 16  2  0  0  0  0
 14 28  1  0  0  0  0
 15 29  1  0  0  0  0
 16 30  1  0  0  0  0
 17 31  1  0  0  0  0
 18 21  1  0  0  0  0
 18 32  1  0  0  0  0
 19 22  2  0  0  0  0
 19 33  1  0  0  0  0
 21 23  2  0  0  0  0
 21 34  1  0  0  0  0
 22 23  1  0  0  0  0
 22 35  1  0  0  0  0
 23 36  1  0  0  0  0
 24 37  1  0  0  0  0
 24 38  1  0  0  0  0
 24 39  1  0  0  0  0
 25 40  1  0  0  0  0
 25 41  1  0  0  0  0
 25 42  1  0  0  0  0
M  END
> <PUBCHEM_COMPOUND_CID>
17395878

> <PUBCHEM_COMPOUND_CANONICALIZED>
1

> <PUBCHEM_CACTVS_COMPLEXITY>
426

> <PUBCHEM_CACTVS_HBOND_ACCEPTOR>
6

> <PUBCHEM_CACTVS_HBOND_DONOR>
0

> <PUBCHEM_CACTVS_ROTATABLE_BOND>
7

> <PUBCHEM_CACTVS_SUBSKEYS>
AAADceB6OAAAAAAAAAAAAAAAAAAAAWAAAAAwYAAAAAAAAAAB0AAAHgAAAAAADAyhngIyjpIIFECoAy3y3ASCiCAvYiAIiCG3rNgPJ7aEtTuPOSrl5BGaqYfa7DzOIAABAAAAQABAAAIAAACAAAAAAAAAAA==

> <PUBCHEM_IUPAC_OPENEYE_NAME>
methyl 3-methoxy-4-[(2-phenyloxazol-4-yl)methoxy]benzoate

> <PUBCHEM_IUPAC_CAS_NAME>
3-methoxy-4-[(2-phenyl-4-oxazolyl)methoxy]benzoic acid methyl ester

> <PUBCHEM_IUPAC_NAME>
methyl 3-methoxy-4-[(2-phenyl-1,3-oxazol-4-yl)methoxy]benzoate

> <PUBCHEM_IUPAC_SYSTEMATIC_NAME>
methyl 3-methoxy-4-[(2-phenyl-1,3-oxazol-4-yl)methoxy]benzoate

> <PUBCHEM_IUPAC_TRADITIONAL_NAME>
3-methoxy-4-[(2-phenyloxazol-4-yl)methoxy]benzoic acid methyl ester

> <PUBCHEM_IUPAC_INCHI>
InChI=1S/C19H17NO5/c1-22-17-10-14(19(21)23-2)8-9-16(17)24-11-15-12-25-18(20-15)13-6-4-3-5-7-13/h3-10,12H,11H2,1-2H3

> <PUBCHEM_IUPAC_INCHIKEY>
BXCQUPDQVMFJOM-UHFFFAOYSA-N

> <PUBCHEM_XLOGP3_AA>
3.3

> <PUBCHEM_EXACT_MASS>
339.110673

> <PUBCHEM_MOLECULAR_FORMULA>
C19H17NO5

> <PUBCHEM_MOLECULAR_WEIGHT>
339.34198

> <PUBCHEM_OPENEYE_CAN_SMILES>
COC1=C(C=CC(=C1)C(=O)OC)OCC2=COC(=N2)C3=CC=CC=C3

> <PUBCHEM_OPENEYE_ISO_SMILES>
COC1=C(C=CC(=C1)C(=O)OC)OCC2=COC(=N2)C3=CC=CC=C3

> <PUBCHEM_CACTVS_TPSA>
70.8

> <PUBCHEM_MONOISOTOPIC_WEIGHT>
339.110673

> <PUBCHEM_TOTAL_CHARGE>
0

> <PUBCHEM_HEAVY_ATOM_COUNT>
25

> <PUBCHEM_ATOM_DEF_STEREO_COUNT>
0

> <PUBCHEM_ATOM_UDEF_STEREO_COUNT>
0

> <PUBCHEM_BOND_DEF_STEREO_COUNT>
0

> <PUBCHEM_BOND_UDEF_STEREO_COUNT>
0

> <PUBCHEM_ISOTOPIC_ATOM_COUNT>
0

> <PUBCHEM_COMPONENT_COUNT>
1

> <PUBCHEM_CACTVS_TAUTO_COUNT>
1

> <PUBCHEM_COORDINATE_TYPE>
1
5
255

> <PUBCHEM_BONDANNOTATIONS>
10  15  8
12  18  8
12  19  8
13  15  8
13  16  8
14  16  8
18  21  8
19  22  8
2  11  8
2  17  8
21  23  8
22  23  8
6  11  8
6  9  8
8  10  8
8  14  8
9  17  8

$$$$

