17395922
  -OEChem-06241222532D

 44 45  0     0  0  0  0  0  0999 V2000
    2.8660   -1.1900    0.0000 O   0  0  0  0  0  0  0  0  0  0  0  0
    6.3301   -1.1900    0.0000 O   0  0  0  0  0  0  0  0  0  0  0  0
    4.5981    3.8100    0.0000 O   0  0  0  0  0  0  0  0  0  0  0  0
    6.3301   -4.1900    0.0000 N   0  0  0  0  0  0  0  0  0  0  0  0
    3.7320    0.3100    0.0000 N   0  0  0  0  0  0  0  0  0  0  0  0
    7.1962   -2.6900    0.0000 N   0  0  0  0  0  0  0  0  0  0  0  0
    4.5981   -2.1900    0.0000 C   0  0  0  0  0  0  0  0  0  0  0  0
    5.4641   -2.6900    0.0000 C   0  0  0  0  0  0  0  0  0  0  0  0
    4.5981   -1.1900    0.0000 C   0  0  0  0  0  0  0  0  0  0  0  0
    5.4641   -3.6900    0.0000 C   0  0  0  0  0  0  0  0  0  0  0  0
    3.7320   -0.6900    0.0000 C   0  0  0  0  0  0  0  0  0  0  0  0
    2.8660    0.8100    0.0000 C   0  0  0  0  0  0  0  0  0  0  0  0
    6.3301   -2.1900    0.0000 C   0  0  0  0  0  0  0  0  0  0  0  0
    2.8660    1.8100    0.0000 C   0  0  0  0  0  0  0  0  0  0  0  0
    7.1962   -3.6900    0.0000 C   0  0  0  0  0  0  0  0  0  0  0  0
    4.5981   -4.1900    0.0000 C   0  0  0  0  0  0  0  0  0  0  0  0
    3.7320    2.3100    0.0000 C   0  0  0  0  0  0  0  0  0  0  0  0
    2.0000    2.3100    0.0000 C   0  0  0  0  0  0  0  0  0  0  0  0
    8.0622   -4.1900    0.0000 C   0  0  0  0  0  0  0  0  0  0  0  0
    3.7320    3.3100    0.0000 C   0  0  0  0  0  0  0  0  0  0  0  0
    2.0000    3.3100    0.0000 C   0  0  0  0  0  0  0  0  0  0  0  0
    2.8660    3.8100    0.0000 C   0  0  0  0  0  0  0  0  0  0  0  0
    4.5981    4.8100    0.0000 C   0  0  0  0  0  0  0  0  0  0  0  0
    3.9875   -2.0823    0.0000 H   0  0  0  0  0  0  0  0  0  0  0  0
    4.3860   -2.7726    0.0000 H   0  0  0  0  0  0  0  0  0  0  0  0
    5.2087   -1.2977    0.0000 H   0  0  0  0  0  0  0  0  0  0  0  0
    4.8101   -0.6074    0.0000 H   0  0  0  0  0  0  0  0  0  0  0  0
    2.2554    0.9177    0.0000 H   0  0  0  0  0  0  0  0  0  0  0  0
    2.6540    0.2274    0.0000 H   0  0  0  0  0  0  0  0  0  0  0  0
    6.3301   -4.8100    0.0000 H   0  0  0  0  0  0  0  0  0  0  0  0
    4.2690    0.6200    0.0000 H   0  0  0  0  0  0  0  0  0  0  0  0
    4.2881   -3.6531    0.0000 H   0  0  0  0  0  0  0  0  0  0  0  0
    4.0611   -4.5000    0.0000 H   0  0  0  0  0  0  0  0  0  0  0  0
    4.9081   -4.7269    0.0000 H   0  0  0  0  0  0  0  0  0  0  0  0
    4.2690    2.0000    0.0000 H   0  0  0  0  0  0  0  0  0  0  0  0
    1.4631    2.0000    0.0000 H   0  0  0  0  0  0  0  0  0  0  0  0
    7.7522   -4.7269    0.0000 H   0  0  0  0  0  0  0  0  0  0  0  0
    8.5991   -4.5000    0.0000 H   0  0  0  0  0  0  0  0  0  0  0  0
    8.3722   -3.6531    0.0000 H   0  0  0  0  0  0  0  0  0  0  0  0
    1.4631    3.6200    0.0000 H   0  0  0  0  0  0  0  0  0  0  0  0
    2.8660    4.4300    0.0000 H   0  0  0  0  0  0  0  0  0  0  0  0
    5.2181    4.8100    0.0000 H   0  0  0  0  0  0  0  0  0  0  0  0
    4.5981    5.4300    0.0000 H   0  0  0  0  0  0  0  0  0  0  0  0
    3.9781    4.8100    0.0000 H   0  0  0  0  0  0  0  0  0  0  0  0
  1 11  2  0  0  0  0
  2 13  2  0  0  0  0
  3 20  1  0  0  0  0
  3 23  1  0  0  0  0
  4 10  1  0  0  0  0
  4 15  1  0  0  0  0
  4 30  1  0  0  0  0
  5 11  1  0  0  0  0
  5 12  1  0  0  0  0
  5 31  1  0  0  0  0
  6 13  1  0  0  0  0
  6 15  2  0  0  0  0
  7  8  1  0  0  0  0
  7  9  1  0  0  0  0
  7 24  1  0  0  0  0
  7 25  1  0  0  0  0
  8 10  2  0  0  0  0
  8 13  1  0  0  0  0
  9 11  1  0  0  0  0
  9 26  1  0  0  0  0
  9 27  1  0  0  0  0
 10 16  1  0  0  0  0
 12 14  1  0  0  0  0
 12 28  1  0  0  0  0
 12 29  1  0  0  0  0
 14 17  2  0  0  0  0
 14 18  1  0  0  0  0
 15 19  1  0  0  0  0
 16 32  1  0  0  0  0
 16 33  1  0  0  0  0
 16 34  1  0  0  0  0
 17 20  1  0  0  0  0
 17 35  1  0  0  0  0
 18 21  2  0  0  0  0
 18 36  1  0  0  0  0
 19 37  1  0  0  0  0
 19 38  1  0  0  0  0
 19 39  1  0  0  0  0
 20 22  2  0  0  0  0
 21 22  1  0  0  0  0
 21 40  1  0  0  0  0
 22 41  1  0  0  0  0
 23 42  1  0  0  0  0
 23 43  1  0  0  0  0
 23 44  1  0  0  0  0
M  END
> <PUBCHEM_COMPOUND_CID>
17395922

> <PUBCHEM_COMPOUND_CANONICALIZED>
1

> <PUBCHEM_CACTVS_COMPLEXITY>
525

> <PUBCHEM_CACTVS_HBOND_ACCEPTOR>
3

> <PUBCHEM_CACTVS_HBOND_DONOR>
2

> <PUBCHEM_CACTVS_ROTATABLE_BOND>
6

> <PUBCHEM_CACTVS_SUBSKEYS>
AAADceB7MAAAAAAAAAAAAAAAAAAAAAAAAAAwQAAAAAAAAAABAAAAHgAQAAAADAzBmAYzBoLABACoAidydACCCAEgIAAJiIEeDMgMJjKEuRuEMChk1hGIqUe4wxAOAAABAAAAAAAAAAIAAAAAAAAAAAAAAA==

> <PUBCHEM_IUPAC_OPENEYE_NAME>
3-(2,6-dimethyl-4-oxo-1H-pyrimidin-5-yl)-N-[(3-methoxyphenyl)methyl]propanamide

> <PUBCHEM_IUPAC_CAS_NAME>
3-(2,6-dimethyl-4-oxo-1H-pyrimidin-5-yl)-N-[(3-methoxyphenyl)methyl]propanamide

> <PUBCHEM_IUPAC_NAME>
3-(2,6-dimethyl-4-oxo-1H-pyrimidin-5-yl)-N-[(3-methoxyphenyl)methyl]propanamide

> <PUBCHEM_IUPAC_SYSTEMATIC_NAME>
3-(2,6-dimethyl-4-oxidanylidene-1H-pyrimidin-5-yl)-N-[(3-methoxyphenyl)methyl]propanamide

> <PUBCHEM_IUPAC_TRADITIONAL_NAME>
3-(4-keto-2,6-dimethyl-1H-pyrimidin-5-yl)-N-m-anisyl-propionamide

> <PUBCHEM_IUPAC_INCHI>
InChI=1S/C17H21N3O3/c1-11-15(17(22)20-12(2)19-11)7-8-16(21)18-10-13-5-4-6-14(9-13)23-3/h4-6,9H,7-8,10H2,1-3H3,(H,18,21)(H,19,20,22)

> <PUBCHEM_IUPAC_INCHIKEY>
KFUKCHLCPVYTIE-UHFFFAOYSA-N

> <PUBCHEM_XLOGP3_AA>
0.6

> <PUBCHEM_EXACT_MASS>
315.158292

> <PUBCHEM_MOLECULAR_FORMULA>
C17H21N3O3

> <PUBCHEM_MOLECULAR_WEIGHT>
315.36694

> <PUBCHEM_OPENEYE_CAN_SMILES>
CC1=C(C(=O)N=C(N1)C)CCC(=O)NCC2=CC(=CC=C2)OC

> <PUBCHEM_OPENEYE_ISO_SMILES>
CC1=C(C(=O)N=C(N1)C)CCC(=O)NCC2=CC(=CC=C2)OC

> <PUBCHEM_CACTVS_TPSA>
79.8

> <PUBCHEM_MONOISOTOPIC_WEIGHT>
315.158292

> <PUBCHEM_TOTAL_CHARGE>
0

> <PUBCHEM_HEAVY_ATOM_COUNT>
23

> <PUBCHEM_ATOM_DEF_STEREO_COUNT>
0

> <PUBCHEM_ATOM_UDEF_STEREO_COUNT>
0

> <PUBCHEM_BOND_DEF_STEREO_COUNT>
0

> <PUBCHEM_BOND_UDEF_STEREO_COUNT>
0

> <PUBCHEM_ISOTOPIC_ATOM_COUNT>
0

> <PUBCHEM_COMPONENT_COUNT>
1

> <PUBCHEM_CACTVS_TAUTO_COUNT>
6

> <PUBCHEM_COORDINATE_TYPE>
1
5
255

> <PUBCHEM_BONDANNOTATIONS>
14  17  8
14  18  8
17  20  8
18  21  8
20  22  8
21  22  8
4  10  8
4  15  8
6  13  8
6  15  8
8  10  8
8  13  8

$$$$

