47205756
  -OEChem-06241223002D

 40 42  0     1  0  0  0  0  0999 V2000
    2.0000   -1.7772    0.0000 Cl  0  0  0  0  0  0  0  0  0  0  0  0
    6.3092   -1.5453    0.0000 O   0  0  0  0  0  0  0  0  0  0  0  0
    5.4432   -0.0453    0.0000 N   0  0  0  0  0  0  0  0  0  0  0  0
    4.4727   -2.5398    0.0000 N   0  0  0  0  0  0  0  0  0  0  0  0
    6.3092    1.4547    0.0000 C   0  0  3  0  0  0  0  0  0  0  0  0
    6.3092    0.4547    0.0000 C   0  0  3  0  0  0  0  0  0  0  0  0
    5.4432    1.9547    0.0000 C   0  0  3  0  0  0  0  0  0  0  0  0
    7.2032    1.9894    0.0000 C   0  0  0  0  0  0  0  0  0  0  0  0
    7.2032   -0.0800    0.0000 C   0  0  0  0  0  0  0  0  0  0  0  0
    4.5772    1.4547    0.0000 C   0  0  0  0  0  0  0  0  0  0  0  0
    8.1093    1.4755    0.0000 C   0  0  0  0  0  0  0  0  0  0  0  0
    8.1093    0.4339    0.0000 C   0  0  0  0  0  0  0  0  0  0  0  0
    4.5772    0.4547    0.0000 C   0  0  0  0  0  0  0  0  0  0  0  0
    5.4432    2.9547    0.0000 C   0  0  0  0  0  0  0  0  0  0  0  0
    5.4432   -1.0453    0.0000 C   0  0  0  0  0  0  0  0  0  0  0  0
    4.5772   -1.5453    0.0000 C   0  0  0  0  0  0  0  0  0  0  0  0
    3.6636   -1.1386    0.0000 C   0  0  0  0  0  0  0  0  0  0  0  0
    3.4945   -2.7477    0.0000 C   0  0  0  0  0  0  0  0  0  0  0  0
    2.9945   -1.8817    0.0000 C   0  0  0  0  0  0  0  0  0  0  0  0
    6.3045    2.0747    0.0000 H   0  0  0  0  0  0  0  0  0  0  0  0
    6.3045   -0.1653    0.0000 H   0  0  0  0  0  0  0  0  0  0  0  0
    5.9802    2.2647    0.0000 H   0  0  0  0  0  0  0  0  0  0  0  0
    7.5968    2.4684    0.0000 H   0  0  0  0  0  0  0  0  0  0  0  0
    6.7986    2.4591    0.0000 H   0  0  0  0  0  0  0  0  0  0  0  0
    6.7986   -0.5498    0.0000 H   0  0  0  0  0  0  0  0  0  0  0  0
    7.5968   -0.5590    0.0000 H   0  0  0  0  0  0  0  0  0  0  0  0
    4.3652    2.0373    0.0000 H   0  0  0  0  0  0  0  0  0  0  0  0
    3.9666    1.3470    0.0000 H   0  0  0  0  0  0  0  0  0  0  0  0
    8.7201    1.3694    0.0000 H   0  0  0  0  0  0  0  0  0  0  0  0
    8.3183    2.0592    0.0000 H   0  0  0  0  0  0  0  0  0  0  0  0
    8.3183   -0.1498    0.0000 H   0  0  0  0  0  0  0  0  0  0  0  0
    8.7201    0.5400    0.0000 H   0  0  0  0  0  0  0  0  0  0  0  0
    3.9666    0.5624    0.0000 H   0  0  0  0  0  0  0  0  0  0  0  0
    4.3652   -0.1279    0.0000 H   0  0  0  0  0  0  0  0  0  0  0  0
    6.0632    2.9547    0.0000 H   0  0  0  0  0  0  0  0  0  0  0  0
    5.4432    3.5747    0.0000 H   0  0  0  0  0  0  0  0  0  0  0  0
    4.8232    2.9547    0.0000 H   0  0  0  0  0  0  0  0  0  0  0  0
    4.9334   -2.9547    0.0000 H   0  0  0  0  0  0  0  0  0  0  0  0
    3.5348   -0.5321    0.0000 H   0  0  0  0  0  0  0  0  0  0  0  0
    3.2424   -3.3141    0.0000 H   0  0  0  0  0  0  0  0  0  0  0  0
  1 19  1  0  0  0  0
  2 15  2  0  0  0  0
  3  6  1  0  0  0  0
  3 13  1  0  0  0  0
  3 15  1  0  0  0  0
  4 16  1  0  0  0  0
  4 18  1  0  0  0  0
  4 38  1  0  0  0  0
  5  6  1  0  0  0  0
  5  7  1  0  0  0  0
  5  8  1  0  0  0  0
  5 20  1  0  0  0  0
  6  9  1  0  0  0  0
  6 21  1  0  0  0  0
  7 10  1  0  0  0  0
  7 14  1  0  0  0  0
  7 22  1  0  0  0  0
  8 11  1  0  0  0  0
  8 23  1  0  0  0  0
  8 24  1  0  0  0  0
  9 12  1  0  0  0  0
  9 25  1  0  0  0  0
  9 26  1  0  0  0  0
 10 13  1  0  0  0  0
 10 27  1  0  0  0  0
 10 28  1  0  0  0  0
 11 12  1  0  0  0  0
 11 29  1  0  0  0  0
 11 30  1  0  0  0  0
 12 31  1  0  0  0  0
 12 32  1  0  0  0  0
 13 33  1  0  0  0  0
 13 34  1  0  0  0  0
 14 35  1  0  0  0  0
 14 36  1  0  0  0  0
 14 37  1  0  0  0  0
 15 16  1  0  0  0  0
 16 17  2  0  0  0  0
 17 19  1  0  0  0  0
 17 39  1  0  0  0  0
 18 19  2  0  0  0  0
 18 40  1  0  0  0  0
M  END
> <PUBCHEM_COMPOUND_CID>
47205756

> <PUBCHEM_COMPOUND_CANONICALIZED>
1

> <PUBCHEM_CACTVS_COMPLEXITY>
349

> <PUBCHEM_CACTVS_HBOND_ACCEPTOR>
1

> <PUBCHEM_CACTVS_HBOND_DONOR>
1

> <PUBCHEM_CACTVS_ROTATABLE_BOND>
1

> <PUBCHEM_CACTVS_SUBSKEYS>
AAADceBzIAAEAAAAAAAAAAAAAAAAAWAAAAA8QAAAAAAAAACxgAAAHgIQAAAADSrBliQ+gJPJkACoATV3VACCgCA3ByAA2aG4ZtgIYPLBl7HUAQhglgDIyYcYgcAOgAAAAAAAAAAAAAAAAAQAAAAAAAAAAA==

> <PUBCHEM_IUPAC_OPENEYE_NAME>
(4-chloro-1H-pyrrol-2-yl)-(4-methyl-3,4,4a,5,6,7,8,8a-octahydro-2H-quinolin-1-yl)methanone

> <PUBCHEM_IUPAC_CAS_NAME>
(4-chloro-1H-pyrrol-2-yl)-(4-methyl-3,4,4a,5,6,7,8,8a-octahydro-2H-quinolin-1-yl)methanone

> <PUBCHEM_IUPAC_NAME>
(4-chloro-1H-pyrrol-2-yl)-(4-methyl-3,4,4a,5,6,7,8,8a-octahydro-2H-quinolin-1-yl)methanone

> <PUBCHEM_IUPAC_SYSTEMATIC_NAME>
(4-chloranyl-1H-pyrrol-2-yl)-(4-methyl-3,4,4a,5,6,7,8,8a-octahydro-2H-quinolin-1-yl)methanone

> <PUBCHEM_IUPAC_TRADITIONAL_NAME>
(4-chloro-1H-pyrrol-2-yl)-(4-methyl-3,4,4a,5,6,7,8,8a-octahydro-2H-quinolin-1-yl)methanone

> <PUBCHEM_IUPAC_INCHI>
InChI=1S/C15H21ClN2O/c1-10-6-7-18(14-5-3-2-4-12(10)14)15(19)13-8-11(16)9-17-13/h8-10,12,14,17H,2-7H2,1H3

> <PUBCHEM_IUPAC_INCHIKEY>
OLWMQKVXOMDNFC-UHFFFAOYSA-N

> <PUBCHEM_XLOGP3_AA>
3.8

> <PUBCHEM_EXACT_MASS>
280.134241

> <PUBCHEM_MOLECULAR_FORMULA>
C15H21ClN2O

> <PUBCHEM_MOLECULAR_WEIGHT>
280.79304

> <PUBCHEM_OPENEYE_CAN_SMILES>
CC1CCN(C2C1CCCC2)C(=O)C3=CC(=CN3)Cl

> <PUBCHEM_OPENEYE_ISO_SMILES>
CC1CCN(C2C1CCCC2)C(=O)C3=CC(=CN3)Cl

> <PUBCHEM_CACTVS_TPSA>
36.1

> <PUBCHEM_MONOISOTOPIC_WEIGHT>
280.134241

> <PUBCHEM_TOTAL_CHARGE>
0

> <PUBCHEM_HEAVY_ATOM_COUNT>
19

> <PUBCHEM_ATOM_DEF_STEREO_COUNT>
0

> <PUBCHEM_ATOM_UDEF_STEREO_COUNT>
3

> <PUBCHEM_BOND_DEF_STEREO_COUNT>
0

> <PUBCHEM_BOND_UDEF_STEREO_COUNT>
0

> <PUBCHEM_ISOTOPIC_ATOM_COUNT>
0

> <PUBCHEM_COMPONENT_COUNT>
1

> <PUBCHEM_CACTVS_TAUTO_COUNT>
4

> <PUBCHEM_COORDINATE_TYPE>
1
5
255

> <PUBCHEM_BONDANNOTATIONS>
16  17  8
17  19  8
18  19  8
4  16  8
4  18  8
5  8  3
6  9  3
7  14  3

$$$$

