17395745
  -OEChem-06241222522D

 36 36  0     0  0  0  0  0  0999 V2000
    3.4030    1.2500    0.0000 S   0  0  0  0  0  0  0  0  0  0  0  0
    4.4030    1.2500    0.0000 O   0  0  0  0  0  0  0  0  0  0  0  0
    2.4030    1.2500    0.0000 O   0  0  0  0  0  0  0  0  0  0  0  0
    4.2690   -3.2500    0.0000 O   0  0  0  0  0  0  0  0  0  0  0  0
    3.4030    2.2500    0.0000 N   0  0  0  0  0  0  0  0  0  0  0  0
    2.5369   -3.2500    0.0000 N   0  0  0  0  0  0  0  0  0  0  0  0
    4.2690    3.7500    0.0000 C   0  0  0  0  0  0  0  0  0  0  0  0
    4.2690    2.7500    0.0000 C   0  0  0  0  0  0  0  0  0  0  0  0
    5.1350    4.2500    0.0000 C   0  0  0  0  0  0  0  0  0  0  0  0
    3.4030    4.2500    0.0000 C   0  0  0  0  0  0  0  0  0  0  0  0
    3.4030    0.2500    0.0000 C   0  0  0  0  0  0  0  0  0  0  0  0
    2.5369   -0.2500    0.0000 C   0  0  0  0  0  0  0  0  0  0  0  0
    4.2690   -0.2500    0.0000 C   0  0  0  0  0  0  0  0  0  0  0  0
    3.4030   -1.7500    0.0000 C   0  0  0  0  0  0  0  0  0  0  0  0
    2.5369   -1.2500    0.0000 C   0  0  0  0  0  0  0  0  0  0  0  0
    4.2690   -1.2500    0.0000 C   0  0  0  0  0  0  0  0  0  0  0  0
    3.4030   -2.7500    0.0000 C   0  0  0  0  0  0  0  0  0  0  0  0
    2.5369   -4.2500    0.0000 C   0  0  0  0  0  0  0  0  0  0  0  0
    4.2690    4.3700    0.0000 H   0  0  0  0  0  0  0  0  0  0  0  0
    4.4810    2.1674    0.0000 H   0  0  0  0  0  0  0  0  0  0  0  0
    4.8796    2.8577    0.0000 H   0  0  0  0  0  0  0  0  0  0  0  0
    2.8660    2.5600    0.0000 H   0  0  0  0  0  0  0  0  0  0  0  0
    5.4450    3.7131    0.0000 H   0  0  0  0  0  0  0  0  0  0  0  0
    3.7130    4.7869    0.0000 H   0  0  0  0  0  0  0  0  0  0  0  0
    2.8660    4.5600    0.0000 H   0  0  0  0  0  0  0  0  0  0  0  0
    3.0930    3.7131    0.0000 H   0  0  0  0  0  0  0  0  0  0  0  0
    5.6720    4.5600    0.0000 H   0  0  0  0  0  0  0  0  0  0  0  0
    4.8250    4.7869    0.0000 H   0  0  0  0  0  0  0  0  0  0  0  0
    2.0000    0.0600    0.0000 H   0  0  0  0  0  0  0  0  0  0  0  0
    4.8059    0.0600    0.0000 H   0  0  0  0  0  0  0  0  0  0  0  0
    2.0000   -1.5600    0.0000 H   0  0  0  0  0  0  0  0  0  0  0  0
    4.8059   -1.5600    0.0000 H   0  0  0  0  0  0  0  0  0  0  0  0
    2.0000   -2.9400    0.0000 H   0  0  0  0  0  0  0  0  0  0  0  0
    1.9169   -4.2500    0.0000 H   0  0  0  0  0  0  0  0  0  0  0  0
    2.5369   -4.8700    0.0000 H   0  0  0  0  0  0  0  0  0  0  0  0
    3.1569   -4.2500    0.0000 H   0  0  0  0  0  0  0  0  0  0  0  0
  1  2  2  0  0  0  0
  1  3  2  0  0  0  0
  1  5  1  0  0  0  0
  1 11  1  0  0  0  0
  4 17  2  0  0  0  0
  5  8  1  0  0  0  0
  5 22  1  0  0  0  0
  6 17  1  0  0  0  0
  6 18  1  0  0  0  0
  6 33  1  0  0  0  0
  7  8  1  0  0  0  0
  7  9  1  0  0  0  0
  7 10  1  0  0  0  0
  7 19  1  0  0  0  0
  8 20  1  0  0  0  0
  8 21  1  0  0  0  0
  9 23  1  0  0  0  0
  9 27  1  0  0  0  0
  9 28  1  0  0  0  0
 10 24  1  0  0  0  0
 10 25  1  0  0  0  0
 10 26  1  0  0  0  0
 11 12  2  0  0  0  0
 11 13  1  0  0  0  0
 12 15  1  0  0  0  0
 12 29  1  0  0  0  0
 13 16  2  0  0  0  0
 13 30  1  0  0  0  0
 14 15  2  0  0  0  0
 14 16  1  0  0  0  0
 14 17  1  0  0  0  0
 15 31  1  0  0  0  0
 16 32  1  0  0  0  0
 18 34  1  0  0  0  0
 18 35  1  0  0  0  0
 18 36  1  0  0  0  0
M  END
> <PUBCHEM_COMPOUND_CID>
17395745

> <PUBCHEM_COMPOUND_CANONICALIZED>
1

> <PUBCHEM_CACTVS_COMPLEXITY>
365

> <PUBCHEM_CACTVS_HBOND_ACCEPTOR>
4

> <PUBCHEM_CACTVS_HBOND_DONOR>
2

> <PUBCHEM_CACTVS_ROTATABLE_BOND>
5

> <PUBCHEM_CACTVS_SUBSKEYS>
AAADceBzMABAAAAAAAAAAAAAAAAAAAAAAAAwAAAAAAAAAAABAAAAHgQQQAAADQDB2AQyAYLAAAKIAiFSEHDCABAkAAAIiJkIBMgIIDKAlRGEIQhgkgAIiYcYiACOEAAAAAAAAAAgAAAAAAAAAAAAAAAAAA==

> <PUBCHEM_IUPAC_OPENEYE_NAME>
4-(isobutylsulfamoyl)-N-methyl-benzamide

> <PUBCHEM_IUPAC_CAS_NAME>
N-methyl-4-(2-methylpropylsulfamoyl)benzamide

> <PUBCHEM_IUPAC_NAME>
N-methyl-4-(2-methylpropylsulfamoyl)benzamide

> <PUBCHEM_IUPAC_SYSTEMATIC_NAME>
N-methyl-4-(2-methylpropylsulfamoyl)benzamide

> <PUBCHEM_IUPAC_TRADITIONAL_NAME>
4-(isobutylsulfamoyl)-N-methyl-benzamide

> <PUBCHEM_IUPAC_INCHI>
InChI=1S/C12H18N2O3S/c1-9(2)8-14-18(16,17)11-6-4-10(5-7-11)12(15)13-3/h4-7,9,14H,8H2,1-3H3,(H,13,15)

> <PUBCHEM_IUPAC_INCHIKEY>
QWHFYLUGYCGXJJ-UHFFFAOYSA-N

> <PUBCHEM_XLOGP3>
1.4

> <PUBCHEM_EXACT_MASS>
270.103813

> <PUBCHEM_MOLECULAR_FORMULA>
C12H18N2O3S

> <PUBCHEM_MOLECULAR_WEIGHT>
270.34792

> <PUBCHEM_OPENEYE_CAN_SMILES>
CC(C)CNS(=O)(=O)C1=CC=C(C=C1)C(=O)NC

> <PUBCHEM_OPENEYE_ISO_SMILES>
CC(C)CNS(=O)(=O)C1=CC=C(C=C1)C(=O)NC

> <PUBCHEM_CACTVS_TPSA>
83.6

> <PUBCHEM_MONOISOTOPIC_WEIGHT>
270.103813

> <PUBCHEM_TOTAL_CHARGE>
0

> <PUBCHEM_HEAVY_ATOM_COUNT>
18

> <PUBCHEM_ATOM_DEF_STEREO_COUNT>
0

> <PUBCHEM_ATOM_UDEF_STEREO_COUNT>
0

> <PUBCHEM_BOND_DEF_STEREO_COUNT>
0

> <PUBCHEM_BOND_UDEF_STEREO_COUNT>
0

> <PUBCHEM_ISOTOPIC_ATOM_COUNT>
0

> <PUBCHEM_COMPONENT_COUNT>
1

> <PUBCHEM_CACTVS_TAUTO_COUNT>
2

> <PUBCHEM_COORDINATE_TYPE>
1
5
255

> <PUBCHEM_BONDANNOTATIONS>
11  12  8
11  13  8
12  15  8
13  16  8
14  15  8
14  16  8

$$$$

