8979
  -OEChem-06261203172D

 58 66  0     0  0  0  0  0  0999 V2000
    6.5618    1.1927    0.0000 N   0  0  0  0  0  0  0  0  0  0  0  0
    4.8849    1.7862    0.0000 N   0  0  0  0  0  0  0  0  0  0  0  0
    8.2646    1.8119    0.0000 N   0  0  0  0  0  0  0  0  0  0  0  0
    5.4009    0.0318    0.0000 N   0  0  0  0  0  0  0  0  0  0  0  0
    4.8074   -1.5935    0.0000 N   0  0  0  0  0  0  0  0  0  0  0  0
    7.7228    0.0318    0.0000 N   0  0  0  0  0  0  0  0  0  0  0  0
    8.2646   -1.6452    0.0000 N   0  0  0  0  0  0  0  0  0  0  0  0
    6.5618   -1.1292    0.0000 N   0  0  0  0  0  0  0  0  0  0  0  0
    5.7408    2.0137    0.0000 C   0  0  0  0  0  0  0  0  0  0  0  0
    6.0716    2.7408    0.0000 C   0  0  0  0  0  0  0  0  0  0  0  0
    7.0778    2.7150    0.0000 C   0  0  0  0  0  0  0  0  0  0  0  0
    7.3827    2.0137    0.0000 C   0  0  0  0  0  0  0  0  0  0  0  0
    4.5799    0.8527    0.0000 C   0  0  0  0  0  0  0  0  0  0  0  0
    3.6981    0.5219    0.0000 C   0  0  0  0  0  0  0  0  0  0  0  0
    3.6981   -0.4585    0.0000 C   0  0  0  0  0  0  0  0  0  0  0  0
    4.5799   -0.7891    0.0000 C   0  0  0  0  0  0  0  0  0  0  0  0
    9.3482    0.5477    0.0000 C   0  0  0  0  0  0  0  0  0  0  0  0
    5.5909    3.6250    0.0000 C   0  0  0  0  0  0  0  0  0  0  0  0
    8.5437    0.8527    0.0000 C   0  0  0  0  0  0  0  0  0  0  0  0
    7.6032    3.5735    0.0000 C   0  0  0  0  0  0  0  0  0  0  0  0
    9.3224   -0.5100    0.0000 C   0  0  0  0  0  0  0  0  0  0  0  0
    6.0716   -2.6514    0.0000 C   0  0  0  0  0  0  0  0  0  0  0  0
    7.1294   -2.6514    0.0000 C   0  0  0  0  0  0  0  0  0  0  0  0
    8.5437   -0.7891    0.0000 C   0  0  0  0  0  0  0  0  0  0  0  0
    5.7408   -1.9501    0.0000 C   0  0  0  0  0  0  0  0  0  0  0  0
    7.3827   -1.9501    0.0000 C   0  0  0  0  0  0  0  0  0  0  0  0
    2.8491    1.0121    0.0000 C   0  0  0  0  0  0  0  0  0  0  0  0
    2.8491   -0.9487    0.0000 C   0  0  0  0  0  0  0  0  0  0  0  0
    6.1163    4.4835    0.0000 C   0  0  0  0  0  0  0  0  0  0  0  0
    7.1226    4.4577    0.0000 C   0  0  0  0  0  0  0  0  0  0  0  0
   10.2771    1.0543    0.0000 C   0  0  0  0  0  0  0  0  0  0  0  0
   10.2255   -1.0612    0.0000 C   0  0  0  0  0  0  0  0  0  0  0  0
    2.0000    0.5219    0.0000 C   0  0  0  0  0  0  0  0  0  0  0  0
    2.0000   -0.4585    0.0000 C   0  0  0  0  0  0  0  0  0  0  0  0
    5.5427   -3.5675    0.0000 C   0  0  0  0  0  0  0  0  0  0  0  0
    7.6583   -3.5675    0.0000 C   0  0  0  0  0  0  0  0  0  0  0  0
   11.1803    0.5031    0.0000 C   0  0  0  0  0  0  0  0  0  0  0  0
   11.1545   -0.5546    0.0000 C   0  0  0  0  0  0  0  0  0  0  0  0
    6.0716   -4.4835    0.0000 C   0  0  0  0  0  0  0  0  0  0  0  0
    7.1294   -4.4835    0.0000 C   0  0  0  0  0  0  0  0  0  0  0  0
    6.5669    0.5728    0.0000 H   0  0  0  0  0  0  0  0  0  0  0  0
    4.4708    2.2476    0.0000 H   0  0  0  0  0  0  0  0  0  0  0  0
    4.9711    3.6409    0.0000 H   0  0  0  0  0  0  0  0  0  0  0  0
    8.2230    3.5576    0.0000 H   0  0  0  0  0  0  0  0  0  0  0  0
    2.8491    1.6321    0.0000 H   0  0  0  0  0  0  0  0  0  0  0  0
    2.8491   -1.5687    0.0000 H   0  0  0  0  0  0  0  0  0  0  0  0
    5.8202    5.0282    0.0000 H   0  0  0  0  0  0  0  0  0  0  0  0
    7.4462    4.9865    0.0000 H   0  0  0  0  0  0  0  0  0  0  0  0
   10.2922    1.6742    0.0000 H   0  0  0  0  0  0  0  0  0  0  0  0
   10.2104   -1.6810    0.0000 H   0  0  0  0  0  0  0  0  0  0  0  0
    1.4631    0.8319    0.0000 H   0  0  0  0  0  0  0  0  0  0  0  0
    4.9227   -3.5675    0.0000 H   0  0  0  0  0  0  0  0  0  0  0  0
    1.4631   -0.7685    0.0000 H   0  0  0  0  0  0  0  0  0  0  0  0
    8.2783   -3.5675    0.0000 H   0  0  0  0  0  0  0  0  0  0  0  0
   11.7246    0.7999    0.0000 H   0  0  0  0  0  0  0  0  0  0  0  0
   11.6837   -0.8776    0.0000 H   0  0  0  0  0  0  0  0  0  0  0  0
    5.7616   -5.0204    0.0000 H   0  0  0  0  0  0  0  0  0  0  0  0
    7.4394   -5.0204    0.0000 H   0  0  0  0  0  0  0  0  0  0  0  0
  1  9  1  0  0  0  0
  1 12  1  0  0  0  0
  1 41  1  0  0  0  0
  2  9  1  0  0  0  0
  2 13  1  0  0  0  0
  2 42  1  0  0  0  0
  3 12  1  0  0  0  0
  3 19  2  0  0  0  0
  4 13  2  0  0  0  0
  4 16  1  0  0  0  0
  5 16  2  0  0  0  0
  5 25  1  0  0  0  0
  6 19  1  0  0  0  0
  6 24  2  0  0  0  0
  7 24  1  0  0  0  0
  7 26  2  0  0  0  0
  8 25  2  0  0  0  0
  8 26  1  0  0  0  0
  9 10  2  0  0  0  0
 10 11  1  0  0  0  0
 10 18  1  0  0  0  0
 11 12  2  0  0  0  0
 11 20  1  0  0  0  0
 13 14  1  0  0  0  0
 14 15  1  0  0  0  0
 14 27  2  0  0  0  0
 15 16  1  0  0  0  0
 15 28  2  0  0  0  0
 17 19  1  0  0  0  0
 17 21  1  0  0  0  0
 17 31  2  0  0  0  0
 18 29  2  0  0  0  0
 18 43  1  0  0  0  0
 20 30  2  0  0  0  0
 20 44  1  0  0  0  0
 21 24  1  0  0  0  0
 21 32  2  0  0  0  0
 22 23  1  0  0  0  0
 22 25  1  0  0  0  0
 22 35  2  0  0  0  0
 23 26  1  0  0  0  0
 23 36  2  0  0  0  0
 27 33  1  0  0  0  0
 27 45  1  0  0  0  0
 28 34  1  0  0  0  0
 28 46  1  0  0  0  0
 29 30  1  0  0  0  0
 29 47  1  0  0  0  0
 30 48  1  0  0  0  0
 31 37  1  0  0  0  0
 31 49  1  0  0  0  0
 32 38  1  0  0  0  0
 32 50  1  0  0  0  0
 33 34  2  0  0  0  0
 33 51  1  0  0  0  0
 34 53  1  0  0  0  0
 35 39  1  0  0  0  0
 35 52  1  0  0  0  0
 36 40  1  0  0  0  0
 36 54  1  0  0  0  0
 37 38  2  0  0  0  0
 37 55  1  0  0  0  0
 38 56  1  0  0  0  0
 39 40  2  0  0  0  0
 39 57  1  0  0  0  0
 40 58  1  0  0  0  0
M  END
> <PUBCHEM_COMPOUND_CID>
8979

> <PUBCHEM_COMPOUND_CANONICALIZED>
1

> <PUBCHEM_CACTVS_COMPLEXITY>
917

> <PUBCHEM_CACTVS_HBOND_ACCEPTOR>
6

> <PUBCHEM_CACTVS_HBOND_DONOR>
2

> <PUBCHEM_CACTVS_ROTATABLE_BOND>
0

> <PUBCHEM_CACTVS_SUBSKEYS>
AAADceB/wAAAAAAAAAAAAAAAAAAAAWLFiwAwYMGAAAAAAFgB/gAAHAAQAAAADACBGwAxsN7JkACgAiJiZACCgCmhAKAJmSAgRJiIKOLAmZGEIAhogALIyCcQgIAOgAAAAAAQAAAAAAAAACAAAAAAAAAAAA==

> <PUBCHEM_IUPAC_INCHI>
InChI=1S/C32H18N8/c1-2-10-18-17(9-1)25-33-26(18)38-28-21-13-5-6-14-22(21)30(35-28)40-32-24-16-8-7-15-23(24)31(36-32)39-29-20-12-4-3-11-19(20)27(34-29)37-25/h1-16H,(H2,33,34,35,36,37,38,39,40)

> <PUBCHEM_IUPAC_INCHIKEY>
IEQIEDJGQAUEQZ-UHFFFAOYSA-N

> <PUBCHEM_XLOGP3_AA>
6.4

> <PUBCHEM_EXACT_MASS>
514.165443

> <PUBCHEM_MOLECULAR_FORMULA>
C32H18N8

> <PUBCHEM_MOLECULAR_WEIGHT>
514.53892

> <PUBCHEM_OPENEYE_CAN_SMILES>
C1=CC=C2C(=C1)C3=NC2=NC4=NC(=NC5=NC(=NC6=C7C=CC=CC7=C(N6)N3)C8=CC=CC=C85)C9=CC=CC=C94

> <PUBCHEM_OPENEYE_ISO_SMILES>
C1=CC=C2C(=C1)C3=NC2=NC4=NC(=NC5=NC(=NC6=C7C=CC=CC7=C(N6)N3)C8=CC=CC=C85)C9=CC=CC=C94

> <PUBCHEM_CACTVS_TPSA>
109

> <PUBCHEM_MONOISOTOPIC_WEIGHT>
514.165443

> <PUBCHEM_TOTAL_CHARGE>
0

> <PUBCHEM_HEAVY_ATOM_COUNT>
40

> <PUBCHEM_ATOM_DEF_STEREO_COUNT>
0

> <PUBCHEM_ATOM_UDEF_STEREO_COUNT>
0

> <PUBCHEM_BOND_DEF_STEREO_COUNT>
0

> <PUBCHEM_BOND_UDEF_STEREO_COUNT>
0

> <PUBCHEM_ISOTOPIC_ATOM_COUNT>
0

> <PUBCHEM_COMPONENT_COUNT>
1

> <PUBCHEM_CACTVS_TAUTO_COUNT>
4

> <PUBCHEM_COORDINATE_TYPE>
1
5
255

> <PUBCHEM_BONDANNOTATIONS>
1  12  8
1  9  8
10  11  8
10  18  8
11  12  8
11  20  8
14  15  8
14  27  8
15  28  8
17  21  8
17  31  8
18  29  8
2  13  8
2  9  8
20  30  8
21  32  8
22  23  8
22  35  8
23  36  8
27  33  8
28  34  8
29  30  8
3  12  8
3  19  8
31  37  8
32  38  8
33  34  8
35  39  8
36  40  8
37  38  8
39  40  8
4  13  8
4  16  8
5  16  8
5  25  8
6  19  8
6  24  8
7  24  8
7  26  8
8  25  8
8  26  8
9  10  8

$$$$

