17396596
  -OEChem-06241222572D

 43 45  0     1  0  0  0  0  0999 V2000
    6.1808    1.7500    0.0000 O   0  0  0  0  0  0  0  0  0  0  0  0
    7.0468    0.2500    0.0000 N   0  0  0  0  0  0  0  0  0  0  0  0
    3.5827   -1.7500    0.0000 N   0  0  0  0  0  0  0  0  0  0  0  0
    2.6691   -1.3433    0.0000 N   0  0  0  0  0  0  0  0  0  0  0  0
    7.9128    1.7500    0.0000 C   0  0  3  0  0  0  0  0  0  0  0  0
    7.9128    2.7500    0.0000 C   0  0  0  0  0  0  0  0  0  0  0  0
    8.7788    1.2500    0.0000 C   0  0  0  0  0  0  0  0  0  0  0  0
    8.7788    3.2500    0.0000 C   0  0  0  0  0  0  0  0  0  0  0  0
    7.0468    1.2500    0.0000 C   0  0  0  0  0  0  0  0  0  0  0  0
    9.6448    1.7500    0.0000 C   0  0  0  0  0  0  0  0  0  0  0  0
    9.6448    2.7500    0.0000 C   0  0  0  0  0  0  0  0  0  0  0  0
    6.1808   -0.2500    0.0000 C   0  0  0  0  0  0  0  0  0  0  0  0
    6.1808   -1.2500    0.0000 C   0  0  0  0  0  0  0  0  0  0  0  0
    5.3147   -1.7500    0.0000 C   0  0  0  0  0  0  0  0  0  0  0  0
    4.4487   -1.2500    0.0000 C   0  0  0  0  0  0  0  0  0  0  0  0
    7.0468   -1.7500    0.0000 C   0  0  0  0  0  0  0  0  0  0  0  0
    5.3147   -2.7500    0.0000 C   0  0  0  0  0  0  0  0  0  0  0  0
    7.0468   -2.7500    0.0000 C   0  0  0  0  0  0  0  0  0  0  0  0
    6.1808   -3.2500    0.0000 C   0  0  0  0  0  0  0  0  0  0  0  0
    3.4782   -2.7445    0.0000 C   0  0  0  0  0  0  0  0  0  0  0  0
    2.5000   -2.9524    0.0000 C   0  0  0  0  0  0  0  0  0  0  0  0
    2.0000   -2.0864    0.0000 C   0  0  0  0  0  0  0  0  0  0  0  0
    7.9128    1.1300    0.0000 H   0  0  0  0  0  0  0  0  0  0  0  0
    7.7008    3.3326    0.0000 H   0  0  0  0  0  0  0  0  0  0  0  0
    7.3022    2.6423    0.0000 H   0  0  0  0  0  0  0  0  0  0  0  0
    8.3803    0.7751    0.0000 H   0  0  0  0  0  0  0  0  0  0  0  0
    9.1774    0.7751    0.0000 H   0  0  0  0  0  0  0  0  0  0  0  0
    9.1774    3.7250    0.0000 H   0  0  0  0  0  0  0  0  0  0  0  0
    8.3803    3.7250    0.0000 H   0  0  0  0  0  0  0  0  0  0  0  0
   10.1818    1.4400    0.0000 H   0  0  0  0  0  0  0  0  0  0  0  0
   10.1818    3.0600    0.0000 H   0  0  0  0  0  0  0  0  0  0  0  0
    7.5837   -0.0600    0.0000 H   0  0  0  0  0  0  0  0  0  0  0  0
    5.9687    0.3326    0.0000 H   0  0  0  0  0  0  0  0  0  0  0  0
    5.5702   -0.3577    0.0000 H   0  0  0  0  0  0  0  0  0  0  0  0
    4.8472   -0.7751    0.0000 H   0  0  0  0  0  0  0  0  0  0  0  0
    4.0502   -0.7751    0.0000 H   0  0  0  0  0  0  0  0  0  0  0  0
    7.5837   -1.4400    0.0000 H   0  0  0  0  0  0  0  0  0  0  0  0
    4.7778   -3.0600    0.0000 H   0  0  0  0  0  0  0  0  0  0  0  0
    7.5837   -3.0600    0.0000 H   0  0  0  0  0  0  0  0  0  0  0  0
    6.1808   -3.8700    0.0000 H   0  0  0  0  0  0  0  0  0  0  0  0
    3.9389   -3.1594    0.0000 H   0  0  0  0  0  0  0  0  0  0  0  0
    2.2478   -3.5188    0.0000 H   0  0  0  0  0  0  0  0  0  0  0  0
    1.3834   -2.0216    0.0000 H   0  0  0  0  0  0  0  0  0  0  0  0
  1  9  2  0  0  0  0
  2  9  1  0  0  0  0
  2 12  1  0  0  0  0
  2 32  1  0  0  0  0
  3  4  1  0  0  0  0
  3 15  1  0  0  0  0
  3 20  1  0  0  0  0
  4 22  2  0  0  0  0
  5  6  1  0  0  0  0
  5  7  1  0  0  0  0
  5  9  1  0  0  0  0
  5 23  1  0  0  0  0
  6  8  1  0  0  0  0
  6 24  1  0  0  0  0
  6 25  1  0  0  0  0
  7 10  1  0  0  0  0
  7 26  1  0  0  0  0
  7 27  1  0  0  0  0
  8 11  1  0  0  0  0
  8 28  1  0  0  0  0
  8 29  1  0  0  0  0
 10 11  2  0  0  0  0
 10 30  1  0  0  0  0
 11 31  1  0  0  0  0
 12 13  1  0  0  0  0
 12 33  1  0  0  0  0
 12 34  1  0  0  0  0
 13 14  1  0  0  0  0
 13 16  2  0  0  0  0
 14 15  1  0  0  0  0
 14 17  2  0  0  0  0
 15 35  1  0  0  0  0
 15 36  1  0  0  0  0
 16 18  1  0  0  0  0
 16 37  1  0  0  0  0
 17 19  1  0  0  0  0
 17 38  1  0  0  0  0
 18 19  2  0  0  0  0
 18 39  1  0  0  0  0
 19 40  1  0  0  0  0
 20 21  2  0  0  0  0
 20 41  1  0  0  0  0
 21 22  1  0  0  0  0
 21 42  1  0  0  0  0
 22 43  1  0  0  0  0
M  END
> <PUBCHEM_COMPOUND_CID>
17396596

> <PUBCHEM_COMPOUND_CANONICALIZED>
1

> <PUBCHEM_CACTVS_COMPLEXITY>
396

> <PUBCHEM_CACTVS_HBOND_ACCEPTOR>
2

> <PUBCHEM_CACTVS_HBOND_DONOR>
1

> <PUBCHEM_CACTVS_ROTATABLE_BOND>
5

> <PUBCHEM_CACTVS_SUBSKEYS>
AAADceB7IAAAAAAAAAAAAAAAAAAAAWAAAAAwQAAAAAAAAAABwAAAHgAYAAAADQDBmgQ8gJLIAACqAjF3VACSBAAxggAY2KE4ZJgIILLA0VGEpAhgngDIiAcYgIAOgAAAAAAQAAAAAAAAACAAAAAAAAAAAA==

> <PUBCHEM_IUPAC_OPENEYE_NAME>
N-[[2-(pyrazol-1-ylmethyl)phenyl]methyl]cyclohex-3-ene-1-carboxamide

> <PUBCHEM_IUPAC_CAS_NAME>
N-[[2-(1-pyrazolylmethyl)phenyl]methyl]-1-cyclohex-3-enecarboxamide

> <PUBCHEM_IUPAC_NAME>
N-[[2-(pyrazol-1-ylmethyl)phenyl]methyl]cyclohex-3-ene-1-carboxamide

> <PUBCHEM_IUPAC_SYSTEMATIC_NAME>
N-[[2-(pyrazol-1-ylmethyl)phenyl]methyl]cyclohex-3-ene-1-carboxamide

> <PUBCHEM_IUPAC_TRADITIONAL_NAME>
N-[2-(pyrazol-1-ylmethyl)benzyl]cyclohex-3-ene-1-carboxamide

> <PUBCHEM_IUPAC_INCHI>
InChI=1S/C18H21N3O/c22-18(15-7-2-1-3-8-15)19-13-16-9-4-5-10-17(16)14-21-12-6-11-20-21/h1-2,4-6,9-12,15H,3,7-8,13-14H2,(H,19,22)

> <PUBCHEM_IUPAC_INCHIKEY>
AFJOGYHDGMWPAN-UHFFFAOYSA-N

> <PUBCHEM_XLOGP3_AA>
2.4

> <PUBCHEM_EXACT_MASS>
295.168462

> <PUBCHEM_MOLECULAR_FORMULA>
C18H21N3O

> <PUBCHEM_MOLECULAR_WEIGHT>
295.37884

> <PUBCHEM_OPENEYE_CAN_SMILES>
C1CC(CC=C1)C(=O)NCC2=CC=CC=C2CN3C=CC=N3

> <PUBCHEM_OPENEYE_ISO_SMILES>
C1CC(CC=C1)C(=O)NCC2=CC=CC=C2CN3C=CC=N3

> <PUBCHEM_CACTVS_TPSA>
46.9

> <PUBCHEM_MONOISOTOPIC_WEIGHT>
295.168462

> <PUBCHEM_TOTAL_CHARGE>
0

> <PUBCHEM_HEAVY_ATOM_COUNT>
22

> <PUBCHEM_ATOM_DEF_STEREO_COUNT>
0

> <PUBCHEM_ATOM_UDEF_STEREO_COUNT>
1

> <PUBCHEM_BOND_DEF_STEREO_COUNT>
0

> <PUBCHEM_BOND_UDEF_STEREO_COUNT>
0

> <PUBCHEM_ISOTOPIC_ATOM_COUNT>
0

> <PUBCHEM_COMPONENT_COUNT>
1

> <PUBCHEM_CACTVS_TAUTO_COUNT>
2

> <PUBCHEM_COORDINATE_TYPE>
1
5
255

> <PUBCHEM_BONDANNOTATIONS>
13  14  8
13  16  8
14  17  8
16  18  8
17  19  8
18  19  8
20  21  8
21  22  8
3  20  8
3  4  8
4  22  8
5  9  3

$$$$

