5853
  -OEChem-06261200552D

 20 19  0     1  0  0  0  0  0999 V2000
    6.3301   -0.9720    0.0000 Cl  0  0  0  0  0  0  0  0  0  0  0  0
    5.9641    0.3940    0.0000 Cl  0  0  0  0  0  0  0  0  0  0  0  0
    4.9641   -1.3380    0.0000 Cl  0  0  0  0  0  0  0  0  0  0  0  0
    3.7320   -0.4720    0.0000 P   0  0  0  0  0  0  0  0  0  0  0  0
    2.8660   -0.9720    0.0000 O   0  0  0  0  0  0  0  0  0  0  0  0
    3.2320    0.3940    0.0000 O   0  0  0  0  0  0  0  0  0  0  0  0
    4.5981    1.0280    0.0000 O   0  0  0  0  0  0  0  0  0  0  0  0
    4.2320   -1.3380    0.0000 O   0  0  0  0  0  0  0  0  0  0  0  0
    4.5981    0.0280    0.0000 C   0  0  3  0  0  0  0  0  0  0  0  0
    5.4641   -0.4720    0.0000 C   0  0  0  0  0  0  0  0  0  0  0  0
    2.2320    0.3940    0.0000 C   0  0  0  0  0  0  0  0  0  0  0  0
    2.0000   -0.4720    0.0000 C   0  0  0  0  0  0  0  0  0  0  0  0
    5.1350    0.3380    0.0000 H   0  0  0  0  0  0  0  0  0  0  0  0
    5.1350    1.3380    0.0000 H   0  0  0  0  0  0  0  0  0  0  0  0
    2.3100    0.0649    0.0000 H   0  0  0  0  0  0  0  0  0  0  0  0
    1.4631   -0.1620    0.0000 H   0  0  0  0  0  0  0  0  0  0  0  0
    1.6900   -1.0089    0.0000 H   0  0  0  0  0  0  0  0  0  0  0  0
    2.2320    1.0140    0.0000 H   0  0  0  0  0  0  0  0  0  0  0  0
    1.6120    0.3940    0.0000 H   0  0  0  0  0  0  0  0  0  0  0  0
    2.2320   -0.2260    0.0000 H   0  0  0  0  0  0  0  0  0  0  0  0
  1 10  1  0  0  0  0
  2 10  1  0  0  0  0
  3 10  1  0  0  0  0
  4  5  1  0  0  0  0
  4  6  1  0  0  0  0
  4  8  2  0  0  0  0
  4  9  1  0  0  0  0
  5 12  1  0  0  0  0
  6 11  1  0  0  0  0
  7  9  1  0  0  0  0
  7 14  1  0  0  0  0
  9 10  1  0  0  0  0
  9 13  1  0  0  0  0
 11 18  1  0  0  0  0
 11 19  1  0  0  0  0
 11 20  1  0  0  0  0
 12 15  1  0  0  0  0
 12 16  1  0  0  0  0
 12 17  1  0  0  0  0
M  END
> <PUBCHEM_COMPOUND_CID>
5853

> <PUBCHEM_COMPOUND_CANONICALIZED>
1

> <PUBCHEM_CACTVS_COMPLEXITY>
183

> <PUBCHEM_CACTVS_HBOND_ACCEPTOR>
4

> <PUBCHEM_CACTVS_HBOND_DONOR>
1

> <PUBCHEM_CACTVS_ROTATABLE_BOND>
3

> <PUBCHEM_CACTVS_SUBSKEYS>
AAADccBgOAIGAAAAAAAAAAAAAAAAAAAAAAAAAAAAAAAAAAAAAAAAGgoACCAAAAKogIICAAAAAxAAQAAAAIAAAAAAAAAAAAAAAQAAEAAAAAAAAAAAAAAAAAAAAAAAAAAAAAAAAAAAAAAAAAAAAAAAAAAAAA==

> <PUBCHEM_IUPAC_OPENEYE_NAME>
2,2,2-trichloro-1-dimethoxyphosphoryl-ethanol

> <PUBCHEM_IUPAC_CAS_NAME>
2,2,2-trichloro-1-dimethoxyphosphorylethanol

> <PUBCHEM_IUPAC_NAME>
2,2,2-trichloro-1-dimethoxyphosphorylethanol

> <PUBCHEM_IUPAC_SYSTEMATIC_NAME>
2,2,2-tris(chloranyl)-1-dimethoxyphosphoryl-ethanol

> <PUBCHEM_IUPAC_TRADITIONAL_NAME>
2,2,2-trichloro-1-dimethoxyphosphoryl-ethanol

> <PUBCHEM_IUPAC_INCHI>
InChI=1S/C4H8Cl3O4P/c1-10-12(9,11-2)3(8)4(5,6)7/h3,8H,1-2H3

> <PUBCHEM_IUPAC_INCHIKEY>
NFACJZMKEDPNKN-UHFFFAOYSA-N

> <PUBCHEM_XLOGP3>
0.5

> <PUBCHEM_EXACT_MASS>
255.922578

> <PUBCHEM_MOLECULAR_FORMULA>
C4H8Cl3O4P

> <PUBCHEM_MOLECULAR_WEIGHT>
257.436682

> <PUBCHEM_OPENEYE_CAN_SMILES>
COP(=O)(C(C(Cl)(Cl)Cl)O)OC

> <PUBCHEM_OPENEYE_ISO_SMILES>
COP(=O)(C(C(Cl)(Cl)Cl)O)OC

> <PUBCHEM_CACTVS_TPSA>
55.8

> <PUBCHEM_MONOISOTOPIC_WEIGHT>
255.922578

> <PUBCHEM_TOTAL_CHARGE>
0

> <PUBCHEM_HEAVY_ATOM_COUNT>
12

> <PUBCHEM_ATOM_DEF_STEREO_COUNT>
0

> <PUBCHEM_ATOM_UDEF_STEREO_COUNT>
1

> <PUBCHEM_BOND_DEF_STEREO_COUNT>
0

> <PUBCHEM_BOND_UDEF_STEREO_COUNT>
0

> <PUBCHEM_ISOTOPIC_ATOM_COUNT>
0

> <PUBCHEM_COMPONENT_COUNT>
1

> <PUBCHEM_CACTVS_TAUTO_COUNT>
1

> <PUBCHEM_COORDINATE_TYPE>
1
5
255

> <PUBCHEM_BONDANNOTATIONS>
9  7  3

$$$$

