10762
  -OEChem-06261204562D

 39 39  0     0  0  0  0  0  0999 V2000
    4.6307    5.1588    0.0000 S   0  0  0  0  0  0  0  0  0  0  0  0
    6.3996    7.6904    0.0000 O   0  0  0  0  0  0  0  0  0  0  0  0
    1.7320    4.8784    0.0000 O   0  5  0  0  0  0  0  0  0  0  0  0
    0.0000    4.8784    0.0000 O   0  5  0  0  0  0  0  0  0  0  0  0
    0.8660    3.3784    0.0000 O   0  0  0  0  0  0  0  0  0  0  0  0
    5.1307    3.6200    0.0000 N   0  3  0  0  0  0  0  0  0  0  0  0
    6.8628    0.6200    0.0000 N   0  0  0  0  0  0  0  0  0  0  0  0
    7.7288    2.1200    0.0000 N   0  0  0  0  0  0  0  0  0  0  0  0
    5.1307    0.6200    0.0000 N   0  0  0  0  0  0  0  0  0  0  0  0
    0.8660    4.3784    0.0000 N   0  3  0  0  0  0  0  0  0  0  0  0
    5.9397    4.2078    0.0000 C   0  0  0  0  0  0  0  0  0  0  0  0
    5.1307    2.6200    0.0000 C   0  0  0  0  0  0  0  0  0  0  0  0
    5.6307    5.1588    0.0000 C   0  0  0  0  0  0  0  0  0  0  0  0
    6.2185    5.9679    0.0000 C   0  0  0  0  0  0  0  0  0  0  0  0
    4.3217    4.2078    0.0000 C   0  0  0  0  0  0  0  0  0  0  0  0
    5.9967    2.1200    0.0000 C   0  0  0  0  0  0  0  0  0  0  0  0
    6.8908    3.8988    0.0000 C   0  0  0  0  0  0  0  0  0  0  0  0
    5.8118    6.8814    0.0000 C   0  0  0  0  0  0  0  0  0  0  0  0
    5.9967    1.1200    0.0000 C   0  0  0  0  0  0  0  0  0  0  0  0
    6.8628    2.6200    0.0000 C   0  0  0  0  0  0  0  0  0  0  0  0
    7.7288    1.1200    0.0000 C   0  0  0  0  0  0  0  0  0  0  0  0
    8.5948    0.6200    0.0000 C   0  0  0  0  0  0  0  0  0  0  0  0
    4.5201    2.7277    0.0000 H   0  0  0  0  0  0  0  0  0  0  0  0
    4.9187    2.0374    0.0000 H   0  0  0  0  0  0  0  0  0  0  0  0
    6.6492    5.5219    0.0000 H   0  0  0  0  0  0  0  0  0  0  0  0
    6.7325    6.3146    0.0000 H   0  0  0  0  0  0  0  0  0  0  0  0
    3.7320    4.0162    0.0000 H   0  0  0  0  0  0  0  0  0  0  0  0
    6.6992    3.3091    0.0000 H   0  0  0  0  0  0  0  0  0  0  0  0
    7.4804    3.7072    0.0000 H   0  0  0  0  0  0  0  0  0  0  0  0
    7.0824    4.4884    0.0000 H   0  0  0  0  0  0  0  0  0  0  0  0
    5.3811    7.3274    0.0000 H   0  0  0  0  0  0  0  0  0  0  0  0
    5.2978    6.5347    0.0000 H   0  0  0  0  0  0  0  0  0  0  0  0
    6.8628    3.2400    0.0000 H   0  0  0  0  0  0  0  0  0  0  0  0
    5.1307    0.0000    0.0000 H   0  0  0  0  0  0  0  0  0  0  0  0
    4.5938    0.9300    0.0000 H   0  0  0  0  0  0  0  0  0  0  0  0
    6.1474    8.2568    0.0000 H   0  0  0  0  0  0  0  0  0  0  0  0
    8.2848    0.0831    0.0000 H   0  0  0  0  0  0  0  0  0  0  0  0
    9.1318    0.3100    0.0000 H   0  0  0  0  0  0  0  0  0  0  0  0
    8.9048    1.1569    0.0000 H   0  0  0  0  0  0  0  0  0  0  0  0
  1 13  1  0  0  0  0
  1 15  1  0  0  0  0
  2 18  1  0  0  0  0
  2 36  1  0  0  0  0
  3 10  1  0  0  0  0
  4 10  1  0  0  0  0
  5 10  2  0  0  0  0
  6 11  1  0  0  0  0
  6 12  1  0  0  0  0
  6 15  2  0  0  0  0
  7 19  2  0  0  0  0
  7 21  1  0  0  0  0
  8 20  1  0  0  0  0
  8 21  2  0  0  0  0
  9 19  1  0  0  0  0
  9 34  1  0  0  0  0
  9 35  1  0  0  0  0
 11 13  2  0  0  0  0
 11 17  1  0  0  0  0
 12 16  1  0  0  0  0
 12 23  1  0  0  0  0
 12 24  1  0  0  0  0
 13 14  1  0  0  0  0
 14 18  1  0  0  0  0
 14 25  1  0  0  0  0
 14 26  1  0  0  0  0
 15 27  1  0  0  0  0
 16 19  1  0  0  0  0
 16 20  2  0  0  0  0
 17 28  1  0  0  0  0
 17 29  1  0  0  0  0
 17 30  1  0  0  0  0
 18 31  1  0  0  0  0
 18 32  1  0  0  0  0
 20 33  1  0  0  0  0
 21 22  1  0  0  0  0
 22 37  1  0  0  0  0
 22 38  1  0  0  0  0
 22 39  1  0  0  0  0
M  CHG  4   3  -1   4  -1   6   1  10   1
M  END
> <PUBCHEM_COMPOUND_CID>
10762

> <PUBCHEM_COMPOUND_CANONICALIZED>
1

> <PUBCHEM_CACTVS_COMPLEXITY>
287

> <PUBCHEM_CACTVS_HBOND_ACCEPTOR>
8

> <PUBCHEM_CACTVS_HBOND_DONOR>
2

> <PUBCHEM_CACTVS_ROTATABLE_BOND>
4

> <PUBCHEM_CACTVS_SUBSKEYS>
AAADceBzuABAAAAAAAAAAAAAAAAAAWAAAAAsAAAAAAAAAAAB4AAAHgQUCAAADAjh3wavsZdMUgilAxZnZQCA8KlxCLgBWDQ4RBiAOIJgyUAERAgsQAPISCKgAAAAAAAAAAAAAAAAAAAAAAAAAAAAAAAAAA==

> <PUBCHEM_IUPAC_OPENEYE_NAME>
2-[3-[(4-amino-2-methyl-pyrimidin-5-yl)methyl]-4-methyl-thiazol-3-ium-5-yl]ethanol nitrate

> <PUBCHEM_IUPAC_CAS_NAME>
2-[3-[(4-amino-2-methyl-5-pyrimidinyl)methyl]-4-methyl-5-thiazol-3-iumyl]ethanol nitrate

> <PUBCHEM_IUPAC_NAME>
2-[3-[(4-amino-2-methylpyrimidin-5-yl)methyl]-4-methyl-1,3-thiazol-3-ium-5-yl]ethanol nitrate

> <PUBCHEM_IUPAC_SYSTEMATIC_NAME>
2-[3-[(4-azanyl-2-methyl-pyrimidin-5-yl)methyl]-4-methyl-1,3-thiazol-3-ium-5-yl]ethanol nitrate

> <PUBCHEM_IUPAC_TRADITIONAL_NAME>
thiamin nitrate

> <PUBCHEM_IUPAC_INCHI>
InChI=1S/C12H17N4OS.NO3/c1-8-11(3-4-17)18-7-16(8)6-10-5-14-9(2)15-12(10)13;2-1(3)4/h5,7,17H,3-4,6H2,1-2H3,(H2,13,14,15);/q+1;-1

> <PUBCHEM_IUPAC_INCHIKEY>
UIERGBJEBXXIGO-UHFFFAOYSA-N

> <PUBCHEM_EXACT_MASS>
327.100125

> <PUBCHEM_MOLECULAR_FORMULA>
C12H17N5O4S

> <PUBCHEM_MOLECULAR_WEIGHT>
327.35948

> <PUBCHEM_OPENEYE_CAN_SMILES>
CC1=C(SC=[N+]1CC2=CN=C(N=C2N)C)CCO.[N+](=O)([O-])[O-]

> <PUBCHEM_OPENEYE_ISO_SMILES>
CC1=C(SC=[N+]1CC2=CN=C(N=C2N)C)CCO.[N+](=O)([O-])[O-]

> <PUBCHEM_CACTVS_TPSA>
167

> <PUBCHEM_MONOISOTOPIC_WEIGHT>
327.100125

> <PUBCHEM_TOTAL_CHARGE>
0

> <PUBCHEM_HEAVY_ATOM_COUNT>
22

> <PUBCHEM_ATOM_DEF_STEREO_COUNT>
0

> <PUBCHEM_ATOM_UDEF_STEREO_COUNT>
0

> <PUBCHEM_BOND_DEF_STEREO_COUNT>
0

> <PUBCHEM_BOND_UDEF_STEREO_COUNT>
0

> <PUBCHEM_ISOTOPIC_ATOM_COUNT>
0

> <PUBCHEM_COMPONENT_COUNT>
2

> <PUBCHEM_CACTVS_TAUTO_COUNT>
3

> <PUBCHEM_COORDINATE_TYPE>
1
5
255

> <PUBCHEM_BONDANNOTATIONS>
1  13  8
1  15  8
11  13  8
16  19  8
16  20  8
6  11  8
6  15  8
7  19  8
7  21  8
8  20  8
8  21  8

$$$$

