4465
  -OEChem-06261200082D

 92 91  0     0  0  0  0  0  0999 V2000
   12.2402   -6.2594    0.0000 S   0  0  0  0  0  0  0  0  0  0  0  0
    4.9642    3.8784    0.0000 S   0  0  0  0  0  0  0  0  0  0  0  0
   16.1917   -4.1018    0.0000 S   0  0  0  0  0  0  0  0  0  0  0  0
    7.2125    7.7790    0.0000 S   0  0  0  0  0  0  0  0  0  0  0  0
   15.0769   -7.5574    0.0000 S   0  0  0  0  0  0  0  0  0  0  0  0
    3.7320    6.7444    0.0000 S   0  0  0  0  0  0  0  0  0  0  0  0
   12.2001   -7.9910    0.0000 Na  0  3  0  0  0  0  0  0  0  0  0  0
    3.4641    3.0123    0.0000 Na  0  3  0  0  0  0  0  0  0  0  0  0
   17.7208   -3.2883    0.0000 Na  0  3  0  0  0  0  0  0  0  0  0  0
    8.0611    9.2890    0.0000 Na  0  3  0  0  0  0  0  0  0  0  0  0
   15.0369   -9.2890    0.0000 Na  0  3  0  0  0  0  0  0  0  0  0  0
    2.0000    6.7444    0.0000 Na  0  3  0  0  0  0  0  0  0  0  0  0
   12.7200   -7.1367    0.0000 O   0  5  0  0  0  0  0  0  0  0  0  0
    4.4642    3.0123    0.0000 O   0  5  0  0  0  0  0  0  0  0  0  0
   17.1911   -4.1365    0.0000 O   0  5  0  0  0  0  0  0  0  0  0  0
    7.2009    8.7790    0.0000 O   0  5  0  0  0  0  0  0  0  0  0  0
   11.3629   -6.7392    0.0000 O   0  0  0  0  0  0  0  0  0  0  0  0
   11.7604   -5.3820    0.0000 O   0  0  0  0  0  0  0  0  0  0  0  0
    4.0981    4.3784    0.0000 O   0  0  0  0  0  0  0  0  0  0  0  0
    5.8301    3.3784    0.0000 O   0  0  0  0  0  0  0  0  0  0  0  0
   15.5567   -8.4348    0.0000 O   0  5  0  0  0  0  0  0  0  0  0  0
    2.8660    7.2444    0.0000 O   0  5  0  0  0  0  0  0  0  0  0  0
    8.2124    7.7906    0.0000 O   0  0  0  0  0  0  0  0  0  0  0  0
    6.2126    7.7675    0.0000 O   0  0  0  0  0  0  0  0  0  0  0  0
   16.2264   -3.1024    0.0000 O   0  0  0  0  0  0  0  0  0  0  0  0
   16.1570   -5.1012    0.0000 O   0  0  0  0  0  0  0  0  0  0  0  0
   14.1996   -8.0372    0.0000 O   0  0  0  0  0  0  0  0  0  0  0  0
   15.9542   -7.0776    0.0000 O   0  0  0  0  0  0  0  0  0  0  0  0
    3.2320    5.8784    0.0000 O   0  0  0  0  0  0  0  0  0  0  0  0
    4.2320    7.6105    0.0000 O   0  0  0  0  0  0  0  0  0  0  0  0
   12.1436   -2.2758    0.0000 O   0  0  0  0  0  0  0  0  0  0  0  0
    9.2239    4.6866    0.0000 O   0  0  0  0  0  0  0  0  0  0  0  0
   10.1639   -0.5207    0.0000 O   0  0  0  0  0  0  0  0  0  0  0  0
    7.7141    3.8381    0.0000 N   0  0  0  0  0  0  0  0  0  0  0  0
   12.1237   -4.0077    0.0000 N   0  0  0  0  0  0  0  0  0  0  0  0
    8.6539   -1.3693    0.0000 N   0  0  0  0  0  0  0  0  0  0  0  0
    8.6740    0.3626    0.0000 N   0  0  0  0  0  0  0  0  0  0  0  0
    6.3301    5.2444    0.0000 C   0  0  0  0  0  0  0  0  0  0  0  0
   13.6374   -4.9253    0.0000 C   0  0  0  0  0  0  0  0  0  0  0  0
   14.6371   -4.9485    0.0000 C   0  0  0  0  0  0  0  0  0  0  0  0
    6.3301    6.2444    0.0000 C   0  0  0  0  0  0  0  0  0  0  0  0
   13.1176   -5.7795    0.0000 C   0  0  0  0  0  0  0  0  0  0  0  0
    5.4641    4.7444    0.0000 C   0  0  0  0  0  0  0  0  0  0  0  0
   15.1923   -4.0671    0.0000 C   0  0  0  0  0  0  0  0  0  0  0  0
    7.2241    6.7791    0.0000 C   0  0  0  0  0  0  0  0  0  0  0  0
   13.1235   -4.0193    0.0000 C   0  0  0  0  0  0  0  0  0  0  0  0
    7.2241    4.7098    0.0000 C   0  0  0  0  0  0  0  0  0  0  0  0
   15.1169   -5.8258    0.0000 C   0  0  0  0  0  0  0  0  0  0  0  0
    5.4641    6.7444    0.0000 C   0  0  0  0  0  0  0  0  0  0  0  0
    4.5981    6.2444    0.0000 C   0  0  0  0  0  0  0  0  0  0  0  0
   14.5971   -6.6800    0.0000 C   0  0  0  0  0  0  0  0  0  0  0  0
   13.5974   -6.6569    0.0000 C   0  0  0  0  0  0  0  0  0  0  0  0
    4.5981    5.2444    0.0000 C   0  0  0  0  0  0  0  0  0  0  0  0
   14.6995   -3.1494    0.0000 C   0  0  0  0  0  0  0  0  0  0  0  0
    8.1301    6.2653    0.0000 C   0  0  0  0  0  0  0  0  0  0  0  0
   13.6582   -3.1253    0.0000 C   0  0  0  0  0  0  0  0  0  0  0  0
    8.1301    5.2236    0.0000 C   0  0  0  0  0  0  0  0  0  0  0  0
   11.6337   -3.1359    0.0000 C   0  0  0  0  0  0  0  0  0  0  0  0
    8.7140    3.8265    0.0000 C   0  0  0  0  0  0  0  0  0  0  0  0
   10.6338   -3.1244    0.0000 C   0  0  0  0  0  0  0  0  0  0  0  0
    9.2039    2.9547    0.0000 C   0  0  0  0  0  0  0  0  0  0  0  0
   10.1438   -2.2526    0.0000 C   0  0  0  0  0  0  0  0  0  0  0  0
    8.6940    2.0946    0.0000 C   0  0  0  0  0  0  0  0  0  0  0  0
   10.1238   -3.9846    0.0000 C   0  0  0  0  0  0  0  0  0  0  0  0
   10.2038    2.9432    0.0000 C   0  0  0  0  0  0  0  0  0  0  0  0
    9.1439   -2.2411    0.0000 C   0  0  0  0  0  0  0  0  0  0  0  0
    9.1840    1.2228    0.0000 C   0  0  0  0  0  0  0  0  0  0  0  0
    9.1239   -3.9730    0.0000 C   0  0  0  0  0  0  0  0  0  0  0  0
   10.6938    2.0714    0.0000 C   0  0  0  0  0  0  0  0  0  0  0  0
    8.6339   -3.1013    0.0000 C   0  0  0  0  0  0  0  0  0  0  0  0
   10.1838    1.2112    0.0000 C   0  0  0  0  0  0  0  0  0  0  0  0
    9.1639   -0.5091    0.0000 C   0  0  0  0  0  0  0  0  0  0  0  0
    5.4641    7.3644    0.0000 H   0  0  0  0  0  0  0  0  0  0  0  0
   15.7368   -5.8402    0.0000 H   0  0  0  0  0  0  0  0  0  0  0  0
    4.0611    4.9344    0.0000 H   0  0  0  0  0  0  0  0  0  0  0  0
   13.2751   -7.1865    0.0000 H   0  0  0  0  0  0  0  0  0  0  0  0
    8.6659    6.5773    0.0000 H   0  0  0  0  0  0  0  0  0  0  0  0
   15.0239   -2.6210    0.0000 H   0  0  0  0  0  0  0  0  0  0  0  0
    8.6659    4.9116    0.0000 H   0  0  0  0  0  0  0  0  0  0  0  0
   13.3586   -2.5825    0.0000 H   0  0  0  0  0  0  0  0  0  0  0  0
   11.5832   -4.3115    0.0000 H   0  0  0  0  0  0  0  0  0  0  0  0
    7.3979    3.3047    0.0000 H   0  0  0  0  0  0  0  0  0  0  0  0
    8.0740    2.1017    0.0000 H   0  0  0  0  0  0  0  0  0  0  0  0
   10.4600   -1.7193    0.0000 H   0  0  0  0  0  0  0  0  0  0  0  0
   10.4276   -4.5250    0.0000 H   0  0  0  0  0  0  0  0  0  0  0  0
   10.5200    3.4765    0.0000 H   0  0  0  0  0  0  0  0  0  0  0  0
    8.8077   -4.5063    0.0000 H   0  0  0  0  0  0  0  0  0  0  0  0
   11.3138    2.0642    0.0000 H   0  0  0  0  0  0  0  0  0  0  0  0
   10.4876    0.6707    0.0000 H   0  0  0  0  0  0  0  0  0  0  0  0
    8.0139   -3.0941    0.0000 H   0  0  0  0  0  0  0  0  0  0  0  0
    8.0340   -1.3622    0.0000 H   0  0  0  0  0  0  0  0  0  0  0  0
    8.0540    0.3698    0.0000 H   0  0  0  0  0  0  0  0  0  0  0  0
  1 13  1  0  0  0  0
  1 17  2  0  0  0  0
  1 18  2  0  0  0  0
  1 42  1  0  0  0  0
  2 14  1  0  0  0  0
  2 19  2  0  0  0  0
  2 20  2  0  0  0  0
  2 43  1  0  0  0  0
  3 15  1  0  0  0  0
  3 25  2  0  0  0  0
  3 26  2  0  0  0  0
  3 44  1  0  0  0  0
  4 16  1  0  0  0  0
  4 23  2  0  0  0  0
  4 24  2  0  0  0  0
  4 45  1  0  0  0  0
  5 21  1  0  0  0  0
  5 27  2  0  0  0  0
  5 28  2  0  0  0  0
  5 51  1  0  0  0  0
  6 22  1  0  0  0  0
  6 29  2  0  0  0  0
  6 30  2  0  0  0  0
  6 50  1  0  0  0  0
 31 58  2  0  0  0  0
 32 59  2  0  0  0  0
 33 72  2  0  0  0  0
 34 47  1  0  0  0  0
 34 59  1  0  0  0  0
 34 82  1  0  0  0  0
 35 46  1  0  0  0  0
 35 58  1  0  0  0  0
 35 81  1  0  0  0  0
 36 66  1  0  0  0  0
 36 72  1  0  0  0  0
 36 91  1  0  0  0  0
 37 67  1  0  0  0  0
 37 72  1  0  0  0  0
 37 92  1  0  0  0  0
 38 41  1  0  0  0  0
 38 43  1  0  0  0  0
 38 47  2  0  0  0  0
 39 40  1  0  0  0  0
 39 42  1  0  0  0  0
 39 46  2  0  0  0  0
 40 44  2  0  0  0  0
 40 48  1  0  0  0  0
 41 45  2  0  0  0  0
 41 49  1  0  0  0  0
 42 52  2  0  0  0  0
 43 53  2  0  0  0  0
 44 54  1  0  0  0  0
 45 55  1  0  0  0  0
 46 56  1  0  0  0  0
 47 57  1  0  0  0  0
 48 51  2  0  0  0  0
 48 74  1  0  0  0  0
 49 50  2  0  0  0  0
 49 73  1  0  0  0  0
 50 53  1  0  0  0  0
 51 52  1  0  0  0  0
 52 76  1  0  0  0  0
 53 75  1  0  0  0  0
 54 56  2  0  0  0  0
 54 78  1  0  0  0  0
 55 57  2  0  0  0  0
 55 77  1  0  0  0  0
 56 80  1  0  0  0  0
 57 79  1  0  0  0  0
 58 60  1  0  0  0  0
 59 61  1  0  0  0  0
 60 62  2  0  0  0  0
 60 64  1  0  0  0  0
 61 63  2  0  0  0  0
 61 65  1  0  0  0  0
 62 66  1  0  0  0  0
 62 84  1  0  0  0  0
 63 67  1  0  0  0  0
 63 83  1  0  0  0  0
 64 68  2  0  0  0  0
 64 85  1  0  0  0  0
 65 69  2  0  0  0  0
 65 86  1  0  0  0  0
 66 70  2  0  0  0  0
 67 71  2  0  0  0  0
 68 70  1  0  0  0  0
 68 87  1  0  0  0  0
 69 71  1  0  0  0  0
 69 88  1  0  0  0  0
 70 90  1  0  0  0  0
 71 89  1  0  0  0  0
M  CHG  8   7   1   8   1   9   1  10   1  11   1  12   1  13  -1  14  -1
M  CHG  4  15  -1  16  -1  21  -1  22  -1
M  END
> <PUBCHEM_COMPOUND_CID>
4465

> <PUBCHEM_COMPOUND_CANONICALIZED>
1

> <PUBCHEM_CACTVS_COMPLEXITY>
2380

> <PUBCHEM_CACTVS_HBOND_ACCEPTOR>
21

> <PUBCHEM_CACTVS_HBOND_DONOR>
4

> <PUBCHEM_CACTVS_ROTATABLE_BOND>
12

> <PUBCHEM_CACTVS_SUBSKEYS>
AAADceB/vjBwAAAAAAAAAAAAAAAAAAAAAAAwYMGDAAAAAADBVAAAHgQQAAAADAiB2AAxwcLAAAKIAiVSUHDCAEAlAgAIiBkAZMiIIDLAlZGEIQxolALIyacciICOkAQAwEAWAAAgCAGAgCwAAAAAAAAAAA==

> <PUBCHEM_IUPAC_OPENEYE_NAME>
hexasodium 8-[[3-[[3-[(4,6,8-trisulfonato-1-naphthyl)carbamoyl]phenyl]carbamoylamino]benzoyl]amino]naphthalene-1,3,5-trisulfonate

> <PUBCHEM_IUPAC_CAS_NAME>
hexasodium 8-[[oxo-[3-[[oxo-[3-[oxo-[(4,6,8-trisulfonato-1-naphthalenyl)amino]methyl]anilino]methyl]amino]phenyl]methyl]amino]naphthalene-1,3,5-trisulfonate

> <PUBCHEM_IUPAC_NAME>
hexasodium 8-[[3-[[3-[(4,6,8-trisulfonatonaphthalen-1-yl)carbamoyl]phenyl]carbamoylamino]benzoyl]amino]naphthalene-1,3,5-trisulfonate

> <PUBCHEM_IUPAC_SYSTEMATIC_NAME>
hexasodium 8-[[3-[[3-[(4,6,8-trisulfonatonaphthalen-1-yl)carbamoyl]phenyl]carbamoylamino]phenyl]carbonylamino]naphthalene-1,3,5-trisulfonate

> <PUBCHEM_IUPAC_TRADITIONAL_NAME>
hexasodium 8-[[3-[[3-[(4,6,8-trisulfonato-1-naphthyl)carbamoyl]phenyl]carbamoylamino]benzoyl]amino]naphthalene-1,3,5-trisulfonate

> <PUBCHEM_IUPAC_INCHI>
InChI=1S/C35H26N4O21S6.6Na/c40-33(38-25-7-9-27(63(49,50)51)23-13-21(61(43,44)45)15-29(31(23)25)65(55,56)57)17-3-1-5-19(11-17)36-35(42)37-20-6-2-4-18(12-20)34(41)39-26-8-10-28(64(52,53)54)24-14-22(62(46,47)48)16-30(32(24)26)66(58,59)60;;;;;;/h1-16H,(H,38,40)(H,39,41)(H2,36,37,42)(H,43,44,45)(H,46,47,48)(H,49,50,51)(H,52,53,54)(H,55,56,57)(H,58,59,60);;;;;;/q;6*+1/p-6

> <PUBCHEM_IUPAC_INCHIKEY>
FMQURVHYTBGYSQ-UHFFFAOYSA-H

> <PUBCHEM_EXACT_MASS>
1161.833045

> <PUBCHEM_MOLECULAR_FORMULA>
C35H20N4Na6O21S6

> <PUBCHEM_MOLECULAR_WEIGHT>
1162.876116

> <PUBCHEM_OPENEYE_CAN_SMILES>
C1=CC(=CC(=C1)NC(=O)NC2=CC=CC(=C2)C(=O)NC3=C4C(=CC(=CC4=C(C=C3)S(=O)(=O)[O-])S(=O)(=O)[O-])S(=O)(=O)[O-])C(=O)NC5=C6C(=CC(=CC6=C(C=C5)S(=O)(=O)[O-])S(=O)(=O)[O-])S(=O)(=O)[O-].[Na+].[Na+].[Na+].[Na+].[Na+].[Na+]

> <PUBCHEM_OPENEYE_ISO_SMILES>
C1=CC(=CC(=C1)NC(=O)NC2=CC=CC(=C2)C(=O)NC3=C4C(=CC(=CC4=C(C=C3)S(=O)(=O)[O-])S(=O)(=O)[O-])S(=O)(=O)[O-])C(=O)NC5=C6C(=CC(=CC6=C(C=C5)S(=O)(=O)[O-])S(=O)(=O)[O-])S(=O)(=O)[O-].[Na+].[Na+].[Na+].[Na+].[Na+].[Na+]

> <PUBCHEM_CACTVS_TPSA>
493

> <PUBCHEM_MONOISOTOPIC_WEIGHT>
1161.833045

> <PUBCHEM_TOTAL_CHARGE>
0

> <PUBCHEM_HEAVY_ATOM_COUNT>
72

> <PUBCHEM_ATOM_DEF_STEREO_COUNT>
0

> <PUBCHEM_ATOM_UDEF_STEREO_COUNT>
0

> <PUBCHEM_BOND_DEF_STEREO_COUNT>
0

> <PUBCHEM_BOND_UDEF_STEREO_COUNT>
0

> <PUBCHEM_ISOTOPIC_ATOM_COUNT>
0

> <PUBCHEM_COMPONENT_COUNT>
7

> <PUBCHEM_CACTVS_TAUTO_COUNT>
7

> <PUBCHEM_NONSTANDARDBOND>
10  16  7
11  21  7
12  22  7
7  13  7
8  14  7
9  15  7

> <PUBCHEM_COORDINATE_TYPE>
1
5
255

> <PUBCHEM_BONDANNOTATIONS>
38  41  8
38  43  8
38  47  8
39  40  8
39  42  8
39  46  8
40  44  8
40  48  8
41  45  8
41  49  8
42  52  8
43  53  8
44  54  8
45  55  8
46  56  8
47  57  8
48  51  8
49  50  8
50  53  8
51  52  8
54  56  8
55  57  8
60  62  8
60  64  8
61  63  8
61  65  8
62  66  8
63  67  8
64  68  8
65  69  8
66  70  8
67  71  8
68  70  8
69  71  8

$$$$

