854146
  -OEChem-06241222472D

 20 20  0     0  0  0  0  0  0999 V2000
    4.8479   -1.0419    0.0000 O   0  0  0  0  0  0  0  0  0  0  0  0
    3.0878   -1.3207    0.0000 N   0  0  0  0  0  0  0  0  0  0  0  0
    3.5878    0.2181    0.0000 C   0  0  0  0  0  0  0  0  0  0  0  0
    2.5878    0.2181    0.0000 C   0  0  0  0  0  0  0  0  0  0  0  0
    2.2788   -0.7329    0.0000 C   0  0  0  0  0  0  0  0  0  0  0  0
    4.1756    1.0272    0.0000 C   0  0  0  0  0  0  0  0  0  0  0  0
    3.8968   -0.7329    0.0000 C   0  0  0  0  0  0  0  0  0  0  0  0
    2.0000    1.0272    0.0000 C   0  0  0  0  0  0  0  0  0  0  0  0
    3.7688    1.9407    0.0000 C   0  0  0  0  0  0  0  0  0  0  0  0
    1.7124   -0.4807    0.0000 H   0  0  0  0  0  0  0  0  0  0  0  0
    1.9688   -1.2698    0.0000 H   0  0  0  0  0  0  0  0  0  0  0  0
    4.6063    0.5812    0.0000 H   0  0  0  0  0  0  0  0  0  0  0  0
    4.6896    1.3739    0.0000 H   0  0  0  0  0  0  0  0  0  0  0  0
    3.0878   -1.9407    0.0000 H   0  0  0  0  0  0  0  0  0  0  0  0
    2.5016    1.3916    0.0000 H   0  0  0  0  0  0  0  0  0  0  0  0
    1.6356    1.5288    0.0000 H   0  0  0  0  0  0  0  0  0  0  0  0
    1.4984    0.6627    0.0000 H   0  0  0  0  0  0  0  0  0  0  0  0
    4.3352    2.1929    0.0000 H   0  0  0  0  0  0  0  0  0  0  0  0
    3.5167    2.5071    0.0000 H   0  0  0  0  0  0  0  0  0  0  0  0
    3.2024    1.6885    0.0000 H   0  0  0  0  0  0  0  0  0  0  0  0
  1  7  2  0  0  0  0
  2  5  1  0  0  0  0
  2  7  1  0  0  0  0
  2 14  1  0  0  0  0
  3  4  2  0  0  0  0
  3  6  1  0  0  0  0
  3  7  1  0  0  0  0
  4  5  1  0  0  0  0
  4  8  1  0  0  0  0
  5 10  1  0  0  0  0
  5 11  1  0  0  0  0
  6  9  1  0  0  0  0
  6 12  1  0  0  0  0
  6 13  1  0  0  0  0
  8 15  1  0  0  0  0
  8 16  1  0  0  0  0
  8 17  1  0  0  0  0
  9 18  1  0  0  0  0
  9 19  1  0  0  0  0
  9 20  1  0  0  0  0
M  END
> <PUBCHEM_COMPOUND_CID>
854146

> <PUBCHEM_COMPOUND_CANONICALIZED>
1

> <PUBCHEM_CACTVS_COMPLEXITY>
170

> <PUBCHEM_CACTVS_HBOND_ACCEPTOR>
1

> <PUBCHEM_CACTVS_HBOND_DONOR>
1

> <PUBCHEM_CACTVS_ROTATABLE_BOND>
1

> <PUBCHEM_CACTVS_SUBSKEYS>
AAADccBiIAAAAAAAAAAAAAAAAAAAAQAAAAAAAAAAAAAAAAAAAAAAHgAQAAAADADBgAQCAALAAACIAgFQEACAAAAgAAAACIEIAEgAABAAgAAEAAAABgCIAQIAAAAAAAAAAAAAAAAAAAAAAAAAAAAAAAAAAA==

> <PUBCHEM_IUPAC_OPENEYE_NAME>
4-ethyl-3-methyl-1,2-dihydropyrrol-5-one

> <PUBCHEM_IUPAC_CAS_NAME>
4-ethyl-3-methyl-1,2-dihydropyrrol-5-one

> <PUBCHEM_IUPAC_NAME>
4-ethyl-3-methyl-1,2-dihydropyrrol-5-one

> <PUBCHEM_IUPAC_SYSTEMATIC_NAME>
4-ethyl-3-methyl-1,2-dihydropyrrol-5-one

> <PUBCHEM_IUPAC_TRADITIONAL_NAME>
3-ethyl-4-methyl-3-pyrrolin-2-one

> <PUBCHEM_IUPAC_INCHI>
InChI=1S/C7H11NO/c1-3-6-5(2)4-8-7(6)9/h3-4H2,1-2H3,(H,8,9)

> <PUBCHEM_IUPAC_INCHIKEY>
YCTNTSVMJWIYTQ-UHFFFAOYSA-N

> <PUBCHEM_XLOGP3_AA>
0.4

> <PUBCHEM_EXACT_MASS>
125.084064

> <PUBCHEM_MOLECULAR_FORMULA>
C7H11NO

> <PUBCHEM_MOLECULAR_WEIGHT>
125.16834

> <PUBCHEM_OPENEYE_CAN_SMILES>
CCC1=C(CNC1=O)C

> <PUBCHEM_OPENEYE_ISO_SMILES>
CCC1=C(CNC1=O)C

> <PUBCHEM_CACTVS_TPSA>
29.1

> <PUBCHEM_MONOISOTOPIC_WEIGHT>
125.084064

> <PUBCHEM_TOTAL_CHARGE>
0

> <PUBCHEM_HEAVY_ATOM_COUNT>
9

> <PUBCHEM_ATOM_DEF_STEREO_COUNT>
0

> <PUBCHEM_ATOM_UDEF_STEREO_COUNT>
0

> <PUBCHEM_BOND_DEF_STEREO_COUNT>
0

> <PUBCHEM_BOND_UDEF_STEREO_COUNT>
0

> <PUBCHEM_ISOTOPIC_ATOM_COUNT>
0

> <PUBCHEM_COMPONENT_COUNT>
1

> <PUBCHEM_CACTVS_TAUTO_COUNT>
2

> <PUBCHEM_COORDINATE_TYPE>
1
5
255

$$$$

