17396033
  -OEChem-06241222532D

 55 58  0     1  0  0  0  0  0999 V2000
   13.4346   -0.2187    0.0000 O   0  0  0  0  0  0  0  0  0  0  0  0
    8.9942    1.2587    0.0000 O   0  0  0  0  0  0  0  0  0  0  0  0
    5.4641    1.2346    0.0000 O   0  0  0  0  0  0  0  0  0  0  0  0
   10.7224    2.2654    0.0000 O   0  0  0  0  0  0  0  0  0  0  0  0
    5.4641   -1.7654    0.0000 O   0  0  0  0  0  0  0  0  0  0  0  0
   11.5942    0.7688    0.0000 N   0  0  0  0  0  0  0  0  0  0  0  0
   13.3263    0.7754    0.0000 C   0  0  3  0  0  0  0  0  0  0  0  0
   14.2382    1.1857    0.0000 C   0  0  0  0  0  0  0  0  0  0  0  0
   14.9102    0.4451    0.0000 C   0  0  0  0  0  0  0  0  0  0  0  0
   14.4136   -0.4228    0.0000 C   0  0  0  0  0  0  0  0  0  0  0  0
   12.4583    1.2721    0.0000 C   0  0  0  0  0  0  0  0  0  0  0  0
   10.7263    1.2654    0.0000 C   0  0  0  0  0  0  0  0  0  0  0  0
    9.8622    0.7621    0.0000 C   0  0  3  0  0  0  0  0  0  0  0  0
    9.8660   -0.2379    0.0000 C   0  0  0  0  0  0  0  0  0  0  0  0
    8.1301    0.7554    0.0000 C   0  0  0  0  0  0  0  0  0  0  0  0
    6.3301   -0.2654    0.0000 C   0  0  0  0  0  0  0  0  0  0  0  0
    6.3301    0.7346    0.0000 C   0  0  0  0  0  0  0  0  0  0  0  0
    4.5981   -0.2654    0.0000 C   0  0  0  0  0  0  0  0  0  0  0  0
    7.2241    1.2692    0.0000 C   0  0  0  0  0  0  0  0  0  0  0  0
    5.4641   -0.7654    0.0000 C   0  0  0  0  0  0  0  0  0  0  0  0
    4.5981    0.7346    0.0000 C   0  0  0  0  0  0  0  0  0  0  0  0
    7.2241   -0.8001    0.0000 C   0  0  0  0  0  0  0  0  0  0  0  0
    8.1301   -0.2862    0.0000 C   0  0  0  0  0  0  0  0  0  0  0  0
    3.7320   -0.7654    0.0000 C   0  0  0  0  0  0  0  0  0  0  0  0
    3.7320    1.2346    0.0000 C   0  0  0  0  0  0  0  0  0  0  0  0
    2.8660   -0.2654    0.0000 C   0  0  0  0  0  0  0  0  0  0  0  0
    3.7320   -1.7654    0.0000 C   0  0  0  0  0  0  0  0  0  0  0  0
    2.0000   -0.7654    0.0000 C   0  0  0  0  0  0  0  0  0  0  0  0
    2.8660   -2.2654    0.0000 C   0  0  0  0  0  0  0  0  0  0  0  0
    2.0000   -1.7654    0.0000 C   0  0  0  0  0  0  0  0  0  0  0  0
   12.8076    0.4358    0.0000 H   0  0  0  0  0  0  0  0  0  0  0  0
   14.7384    1.5520    0.0000 H   0  0  0  0  0  0  0  0  0  0  0  0
   13.9262    1.7214    0.0000 H   0  0  0  0  0  0  0  0  0  0  0  0
   15.4132    0.0826    0.0000 H   0  0  0  0  0  0  0  0  0  0  0  0
   15.3233    0.9075    0.0000 H   0  0  0  0  0  0  0  0  0  0  0  0
   14.2242   -1.0132    0.0000 H   0  0  0  0  0  0  0  0  0  0  0  0
   14.9809   -0.6728    0.0000 H   0  0  0  0  0  0  0  0  0  0  0  0
   12.8550    1.7486    0.0000 H   0  0  0  0  0  0  0  0  0  0  0  0
   12.0579    1.7455    0.0000 H   0  0  0  0  0  0  0  0  0  0  0  0
   11.5966    0.1488    0.0000 H   0  0  0  0  0  0  0  0  0  0  0  0
    9.8598    1.3821    0.0000 H   0  0  0  0  0  0  0  0  0  0  0  0
    9.2460   -0.2403    0.0000 H   0  0  0  0  0  0  0  0  0  0  0  0
    9.8684   -0.8579    0.0000 H   0  0  0  0  0  0  0  0  0  0  0  0
   10.4860   -0.2355    0.0000 H   0  0  0  0  0  0  0  0  0  0  0  0
    7.2169    1.8892    0.0000 H   0  0  0  0  0  0  0  0  0  0  0  0
    7.2169   -1.4200    0.0000 H   0  0  0  0  0  0  0  0  0  0  0  0
    8.6659   -0.5983    0.0000 H   0  0  0  0  0  0  0  0  0  0  0  0
    4.0420    1.7715    0.0000 H   0  0  0  0  0  0  0  0  0  0  0  0
    3.1951    1.5446    0.0000 H   0  0  0  0  0  0  0  0  0  0  0  0
    3.4220    0.6977    0.0000 H   0  0  0  0  0  0  0  0  0  0  0  0
    2.8660    0.3546    0.0000 H   0  0  0  0  0  0  0  0  0  0  0  0
    4.2690   -2.0754    0.0000 H   0  0  0  0  0  0  0  0  0  0  0  0
    1.4631   -0.4554    0.0000 H   0  0  0  0  0  0  0  0  0  0  0  0
    2.8660   -2.8854    0.0000 H   0  0  0  0  0  0  0  0  0  0  0  0
    1.4631   -2.0754    0.0000 H   0  0  0  0  0  0  0  0  0  0  0  0
  1  7  1  0  0  0  0
  1 10  1  0  0  0  0
  2 13  1  0  0  0  0
  2 15  1  0  0  0  0
  3 17  1  0  0  0  0
  3 21  1  0  0  0  0
  4 12  2  0  0  0  0
  5 20  2  0  0  0  0
  6 11  1  0  0  0  0
  6 12  1  0  0  0  0
  6 40  1  0  0  0  0
  7  8  1  0  0  0  0
  7 11  1  0  0  0  0
  7 31  1  0  0  0  0
  8  9  1  0  0  0  0
  8 32  1  0  0  0  0
  8 33  1  0  0  0  0
  9 10  1  0  0  0  0
  9 34  1  0  0  0  0
  9 35  1  0  0  0  0
 10 36  1  0  0  0  0
 10 37  1  0  0  0  0
 11 38  1  0  0  0  0
 11 39  1  0  0  0  0
 12 13  1  0  0  0  0
 13 14  1  0  0  0  0
 13 41  1  0  0  0  0
 14 42  1  0  0  0  0
 14 43  1  0  0  0  0
 14 44  1  0  0  0  0
 15 19  2  0  0  0  0
 15 23  1  0  0  0  0
 16 17  2  0  0  0  0
 16 20  1  0  0  0  0
 16 22  1  0  0  0  0
 17 19  1  0  0  0  0
 18 20  1  0  0  0  0
 18 21  2  0  0  0  0
 18 24  1  0  0  0  0
 19 45  1  0  0  0  0
 21 25  1  0  0  0  0
 22 23  2  0  0  0  0
 22 46  1  0  0  0  0
 23 47  1  0  0  0  0
 24 26  2  0  0  0  0
 24 27  1  0  0  0  0
 25 48  1  0  0  0  0
 25 49  1  0  0  0  0
 25 50  1  0  0  0  0
 26 28  1  0  0  0  0
 26 51  1  0  0  0  0
 27 29  2  0  0  0  0
 27 52  1  0  0  0  0
 28 30  2  0  0  0  0
 28 53  1  0  0  0  0
 29 30  1  0  0  0  0
 29 54  1  0  0  0  0
 30 55  1  0  0  0  0
M  END
> <PUBCHEM_COMPOUND_CID>
17396033

> <PUBCHEM_COMPOUND_CANONICALIZED>
1

> <PUBCHEM_CACTVS_COMPLEXITY>
669

> <PUBCHEM_CACTVS_HBOND_ACCEPTOR>
5

> <PUBCHEM_CACTVS_HBOND_DONOR>
1

> <PUBCHEM_CACTVS_ROTATABLE_BOND>
6

> <PUBCHEM_CACTVS_SUBSKEYS>
AAADceB6OAAAAAAAAAAAAAAAAAAAASAAAAAwYIAAAAAAAACBQAAAHgAQAAAADBThmAYyBoLABACIAqFSEAICCAAkIAAIiIFOCMgOJzaEtR6HOWCl9hWYqYeY/P7OIAAACAAIAABAAAAQABAAAAAAAAAAAA==

> <PUBCHEM_IUPAC_OPENEYE_NAME>
2-(2-methyl-4-oxo-3-phenyl-chromen-7-yl)oxy-N-(tetrahydrofuran-2-ylmethyl)propanamide

> <PUBCHEM_IUPAC_CAS_NAME>
2-[(2-methyl-4-oxo-3-phenyl-1-benzopyran-7-yl)oxy]-N-(2-oxolanylmethyl)propanamide

> <PUBCHEM_IUPAC_NAME>
2-(2-methyl-4-oxo-3-phenylchromen-7-yl)oxy-N-(oxolan-2-ylmethyl)propanamide

> <PUBCHEM_IUPAC_SYSTEMATIC_NAME>
2-(2-methyl-4-oxidanylidene-3-phenyl-chromen-7-yl)oxy-N-(oxolan-2-ylmethyl)propanamide

> <PUBCHEM_IUPAC_TRADITIONAL_NAME>
2-(4-keto-2-methyl-3-phenyl-chromen-7-yl)oxy-N-(tetrahydrofurfuryl)propionamide

> <PUBCHEM_IUPAC_INCHI>
InChI=1S/C24H25NO5/c1-15-22(17-7-4-3-5-8-17)23(26)20-11-10-18(13-21(20)30-15)29-16(2)24(27)25-14-19-9-6-12-28-19/h3-5,7-8,10-11,13,16,19H,6,9,12,14H2,1-2H3,(H,25,27)

> <PUBCHEM_IUPAC_INCHIKEY>
OBBAVIZLFAJLLZ-UHFFFAOYSA-N

> <PUBCHEM_XLOGP3_AA>
3.7

> <PUBCHEM_EXACT_MASS>
407.173273

> <PUBCHEM_MOLECULAR_FORMULA>
C24H25NO5

> <PUBCHEM_MOLECULAR_WEIGHT>
407.459

> <PUBCHEM_OPENEYE_CAN_SMILES>
CC1=C(C(=O)C2=C(O1)C=C(C=C2)OC(C)C(=O)NCC3CCCO3)C4=CC=CC=C4

> <PUBCHEM_OPENEYE_ISO_SMILES>
CC1=C(C(=O)C2=C(O1)C=C(C=C2)OC(C)C(=O)NCC3CCCO3)C4=CC=CC=C4

> <PUBCHEM_CACTVS_TPSA>
73.9

> <PUBCHEM_MONOISOTOPIC_WEIGHT>
407.173273

> <PUBCHEM_TOTAL_CHARGE>
0

> <PUBCHEM_HEAVY_ATOM_COUNT>
30

> <PUBCHEM_ATOM_DEF_STEREO_COUNT>
0

> <PUBCHEM_ATOM_UDEF_STEREO_COUNT>
2

> <PUBCHEM_BOND_DEF_STEREO_COUNT>
0

> <PUBCHEM_BOND_UDEF_STEREO_COUNT>
0

> <PUBCHEM_ISOTOPIC_ATOM_COUNT>
0

> <PUBCHEM_COMPONENT_COUNT>
1

> <PUBCHEM_CACTVS_TAUTO_COUNT>
6

> <PUBCHEM_COORDINATE_TYPE>
1
5
255

> <PUBCHEM_BONDANNOTATIONS>
13  14  3
15  19  8
15  23  8
16  17  8
16  20  8
16  22  8
17  19  8
18  20  8
18  21  8
22  23  8
24  26  8
24  27  8
26  28  8
27  29  8
28  30  8
29  30  8
3  17  8
3  21  8
7  11  3

$$$$

