47205019
  -OEChem-06241222572D

 39 40  0     0  0  0  0  0  0999 V2000
    3.7320   -0.4547    0.0000 O   0  0  0  0  0  0  0  0  0  0  0  0
    3.7320    1.5453    0.0000 O   0  0  0  0  0  0  0  0  0  0  0  0
    5.4641    1.5453    0.0000 N   0  0  0  0  0  0  0  0  0  0  0  0
    6.4347    4.0398    0.0000 N   0  0  0  0  0  0  0  0  0  0  0  0
    7.4128    4.2477    0.0000 N   0  0  0  0  0  0  0  0  0  0  0  0
    3.7320   -1.4547    0.0000 C   0  0  0  0  0  0  0  0  0  0  0  0
    2.8660   -1.9547    0.0000 C   0  0  0  0  0  0  0  0  0  0  0  0
    4.5981   -1.9547    0.0000 C   0  0  0  0  0  0  0  0  0  0  0  0
    3.7320   -3.4547    0.0000 C   0  0  0  0  0  0  0  0  0  0  0  0
    2.8660   -2.9547    0.0000 C   0  0  0  0  0  0  0  0  0  0  0  0
    4.5981   -2.9547    0.0000 C   0  0  0  0  0  0  0  0  0  0  0  0
    4.5981    0.0453    0.0000 C   0  0  0  0  0  0  0  0  0  0  0  0
    2.0000   -1.4547    0.0000 C   0  0  0  0  0  0  0  0  0  0  0  0
    5.4641   -1.4547    0.0000 C   0  0  0  0  0  0  0  0  0  0  0  0
    5.4641    2.5453    0.0000 C   0  0  0  0  0  0  0  0  0  0  0  0
    3.7320   -4.4547    0.0000 C   0  0  0  0  0  0  0  0  0  0  0  0
    6.3301    3.0453    0.0000 C   0  0  0  0  0  0  0  0  0  0  0  0
    4.5981    1.0453    0.0000 C   0  0  0  0  0  0  0  0  0  0  0  0
    7.2437    2.6386    0.0000 C   0  0  0  0  0  0  0  0  0  0  0  0
    7.9128    3.3817    0.0000 C   0  0  0  0  0  0  0  0  0  0  0  0
    2.3291   -3.2647    0.0000 H   0  0  0  0  0  0  0  0  0  0  0  0
    5.1350   -3.2647    0.0000 H   0  0  0  0  0  0  0  0  0  0  0  0
    4.8101   -0.5373    0.0000 H   0  0  0  0  0  0  0  0  0  0  0  0
    5.2087    0.1530    0.0000 H   0  0  0  0  0  0  0  0  0  0  0  0
    2.3100   -0.9178    0.0000 H   0  0  0  0  0  0  0  0  0  0  0  0
    1.4631   -1.1447    0.0000 H   0  0  0  0  0  0  0  0  0  0  0  0
    1.6900   -1.9916    0.0000 H   0  0  0  0  0  0  0  0  0  0  0  0
    5.7741   -1.9916    0.0000 H   0  0  0  0  0  0  0  0  0  0  0  0
    6.0010   -1.1447    0.0000 H   0  0  0  0  0  0  0  0  0  0  0  0
    5.1541   -0.9178    0.0000 H   0  0  0  0  0  0  0  0  0  0  0  0
    5.2520    3.1279    0.0000 H   0  0  0  0  0  0  0  0  0  0  0  0
    4.8535    2.4376    0.0000 H   0  0  0  0  0  0  0  0  0  0  0  0
    3.1120   -4.4547    0.0000 H   0  0  0  0  0  0  0  0  0  0  0  0
    3.7320   -5.0747    0.0000 H   0  0  0  0  0  0  0  0  0  0  0  0
    4.3520   -4.4547    0.0000 H   0  0  0  0  0  0  0  0  0  0  0  0
    6.0010    1.2353    0.0000 H   0  0  0  0  0  0  0  0  0  0  0  0
    7.3726    2.0321    0.0000 H   0  0  0  0  0  0  0  0  0  0  0  0
    5.9739    4.4547    0.0000 H   0  0  0  0  0  0  0  0  0  0  0  0
    8.5294    3.3169    0.0000 H   0  0  0  0  0  0  0  0  0  0  0  0
  1  6  1  0  0  0  0
  1 12  1  0  0  0  0
  2 18  2  0  0  0  0
  3 15  1  0  0  0  0
  3 18  1  0  0  0  0
  3 36  1  0  0  0  0
  4  5  1  0  0  0  0
  4 17  1  0  0  0  0
  4 38  1  0  0  0  0
  5 20  2  0  0  0  0
  6  7  2  0  0  0  0
  6  8  1  0  0  0  0
  7 10  1  0  0  0  0
  7 13  1  0  0  0  0
  8 11  2  0  0  0  0
  8 14  1  0  0  0  0
  9 10  2  0  0  0  0
  9 11  1  0  0  0  0
  9 16  1  0  0  0  0
 10 21  1  0  0  0  0
 11 22  1  0  0  0  0
 12 18  1  0  0  0  0
 12 23  1  0  0  0  0
 12 24  1  0  0  0  0
 13 25  1  0  0  0  0
 13 26  1  0  0  0  0
 13 27  1  0  0  0  0
 14 28  1  0  0  0  0
 14 29  1  0  0  0  0
 14 30  1  0  0  0  0
 15 17  1  0  0  0  0
 15 31  1  0  0  0  0
 15 32  1  0  0  0  0
 16 33  1  0  0  0  0
 16 34  1  0  0  0  0
 16 35  1  0  0  0  0
 17 19  2  0  0  0  0
 19 20  1  0  0  0  0
 19 37  1  0  0  0  0
 20 39  1  0  0  0  0
M  END
> <PUBCHEM_COMPOUND_CID>
47205019

> <PUBCHEM_COMPOUND_CANONICALIZED>
1

> <PUBCHEM_CACTVS_COMPLEXITY>
312

> <PUBCHEM_CACTVS_HBOND_ACCEPTOR>
3

> <PUBCHEM_CACTVS_HBOND_DONOR>
2

> <PUBCHEM_CACTVS_ROTATABLE_BOND>
5

> <PUBCHEM_CACTVS_SUBSKEYS>
AAADceBzMAAAAAAAAAAAAAAAAAAAAWAAAAAwAAAAAAAAAAABwAAAHgAYAAAADAzhngY+hpLjBACqAzV3UAKSDAAgogAYuaB8bJgOZqKE8d+XvCjk3hGY6AeAwGAOIAACAAAIAABAAAQAABAAAAAAAAAAAA==

> <PUBCHEM_IUPAC_OPENEYE_NAME>
N-(1H-pyrazol-5-ylmethyl)-2-(2,4,6-trimethylphenoxy)acetamide

> <PUBCHEM_IUPAC_CAS_NAME>
N-(1H-pyrazol-5-ylmethyl)-2-(2,4,6-trimethylphenoxy)acetamide

> <PUBCHEM_IUPAC_NAME>
N-(1H-pyrazol-5-ylmethyl)-2-(2,4,6-trimethylphenoxy)acetamide

> <PUBCHEM_IUPAC_SYSTEMATIC_NAME>
N-(1H-pyrazol-5-ylmethyl)-2-(2,4,6-trimethylphenoxy)ethanamide

> <PUBCHEM_IUPAC_TRADITIONAL_NAME>
N-(1H-pyrazol-5-ylmethyl)-2-(2,4,6-trimethylphenoxy)acetamide

> <PUBCHEM_IUPAC_INCHI>
InChI=1S/C15H19N3O2/c1-10-6-11(2)15(12(3)7-10)20-9-14(19)16-8-13-4-5-17-18-13/h4-7H,8-9H2,1-3H3,(H,16,19)(H,17,18)

> <PUBCHEM_IUPAC_INCHIKEY>
RZPWUDVSRSMIEP-UHFFFAOYSA-N

> <PUBCHEM_XLOGP3_AA>
2.2

> <PUBCHEM_EXACT_MASS>
273.147727

> <PUBCHEM_MOLECULAR_FORMULA>
C15H19N3O2

> <PUBCHEM_MOLECULAR_WEIGHT>
273.33026

> <PUBCHEM_OPENEYE_CAN_SMILES>
CC1=CC(=C(C(=C1)C)OCC(=O)NCC2=CC=NN2)C

> <PUBCHEM_OPENEYE_ISO_SMILES>
CC1=CC(=C(C(=C1)C)OCC(=O)NCC2=CC=NN2)C

> <PUBCHEM_CACTVS_TPSA>
67

> <PUBCHEM_MONOISOTOPIC_WEIGHT>
273.147727

> <PUBCHEM_TOTAL_CHARGE>
0

> <PUBCHEM_HEAVY_ATOM_COUNT>
20

> <PUBCHEM_ATOM_DEF_STEREO_COUNT>
0

> <PUBCHEM_ATOM_UDEF_STEREO_COUNT>
0

> <PUBCHEM_BOND_DEF_STEREO_COUNT>
0

> <PUBCHEM_BOND_UDEF_STEREO_COUNT>
0

> <PUBCHEM_ISOTOPIC_ATOM_COUNT>
0

> <PUBCHEM_COMPONENT_COUNT>
1

> <PUBCHEM_CACTVS_TAUTO_COUNT>
4

> <PUBCHEM_COORDINATE_TYPE>
1
5
255

> <PUBCHEM_BONDANNOTATIONS>
17  19  8
19  20  8
4  17  8
4  5  8
5  20  8
6  7  8
6  8  8
7  10  8
8  11  8
9  10  8
9  11  8

$$$$

