11004
  -OEChem-06261205132D

 16 15  0     0  0  0  0  0  0999 V2000
    2.5369    1.7500    0.0000 O   0  0  0  0  0  0  0  0  0  0  0  0
    9.4651   -2.2500    0.0000 O   0  0  0  0  0  0  0  0  0  0  0  0
   10.3312   -0.7500    0.0000 N   0  0  0  0  0  0  0  0  0  0  0  0
    3.4030    2.2500    0.0000 C   0  0  0  0  0  0  0  0  0  0  0  0
    4.2690    1.7500    0.0000 C   0  0  0  0  0  0  0  0  0  0  0  0
    9.4651   -1.2500    0.0000 C   0  0  0  0  0  0  0  0  0  0  0  0
    8.5991   -0.7500    0.0000 C   0  0  0  0  0  0  0  0  0  0  0  0
    5.1350    1.2500    0.0000 C   0  0  0  0  0  0  0  0  0  0  0  0
    7.7331   -0.2500    0.0000 C   0  0  0  0  0  0  0  0  0  0  0  0
    6.0010    0.7500    0.0000 C   0  0  0  0  0  0  0  0  0  0  0  0
    6.8671    0.2500    0.0000 C   0  0  0  0  0  0  0  0  0  0  0  0
    3.8015    2.7250    0.0000 H   0  0  0  0  0  0  0  0  0  0  0  0
    3.0044    2.7250    0.0000 H   0  0  0  0  0  0  0  0  0  0  0  0
   10.8681   -1.0600    0.0000 H   0  0  0  0  0  0  0  0  0  0  0  0
   10.3312   -0.1300    0.0000 H   0  0  0  0  0  0  0  0  0  0  0  0
    2.0000    2.0600    0.0000 H   0  0  0  0  0  0  0  0  0  0  0  0
  1  4  1  0  0  0  0
  1 16  1  0  0  0  0
  2  6  2  0  0  0  0
  3  6  1  0  0  0  0
  3 14  1  0  0  0  0
  3 15  1  0  0  0  0
  4  5  1  0  0  0  0
  4 12  1  0  0  0  0
  4 13  1  0  0  0  0
  5  8  3  0  0  0  0
  6  7  1  0  0  0  0
  7  9  3  0  0  0  0
  8 10  1  0  0  0  0
  9 11  1  0  0  0  0
 10 11  3  0  0  0  0
M  END
> <PUBCHEM_COMPOUND_CID>
11004

> <PUBCHEM_COMPOUND_CANONICALIZED>
1

> <PUBCHEM_CACTVS_COMPLEXITY>
341

> <PUBCHEM_CACTVS_HBOND_ACCEPTOR>
2

> <PUBCHEM_CACTVS_HBOND_DONOR>
2

> <PUBCHEM_CACTVS_ROTATABLE_BOND>
2

> <PUBCHEM_CACTVS_SUBSKEYS>
AAADcYByMAAAAAAAAAAAAAAAAAAAAAAAAAAAAAAAAAAAAAAAAAAAHgAQCAAACAChgAIAAABAAgBIEAEQEAAAAAAAAAAAAAAAAAAAEAAAAAAAAAAAAAAAAAAAAAAAAAAAAAAAAAAAAAAAAAAAAAAAAAAAAA==

> <PUBCHEM_IUPAC_OPENEYE_NAME>
8-hydroxyocta-2,4,6-triynamide

> <PUBCHEM_IUPAC_CAS_NAME>
8-hydroxyocta-2,4,6-triynamide

> <PUBCHEM_IUPAC_NAME>
8-hydroxyocta-2,4,6-triynamide

> <PUBCHEM_IUPAC_SYSTEMATIC_NAME>
8-oxidanylocta-2,4,6-triynamide

> <PUBCHEM_IUPAC_TRADITIONAL_NAME>
8-hydroxyocta-2,4,6-triynamide

> <PUBCHEM_IUPAC_INCHI>
InChI=1S/C8H5NO2/c9-8(11)6-4-2-1-3-5-7-10/h10H,7H2,(H2,9,11)

> <PUBCHEM_IUPAC_INCHIKEY>
OXONWCQUZYDTNF-UHFFFAOYSA-N

> <PUBCHEM_XLOGP3_AA>
-0.3

> <PUBCHEM_EXACT_MASS>
147.032028

> <PUBCHEM_MOLECULAR_FORMULA>
C8H5NO2

> <PUBCHEM_MOLECULAR_WEIGHT>
147.1308

> <PUBCHEM_OPENEYE_CAN_SMILES>
C(C#CC#CC#CC(=O)N)O

> <PUBCHEM_OPENEYE_ISO_SMILES>
C(C#CC#CC#CC(=O)N)O

> <PUBCHEM_CACTVS_TPSA>
63.3

> <PUBCHEM_MONOISOTOPIC_WEIGHT>
147.032028

> <PUBCHEM_TOTAL_CHARGE>
0

> <PUBCHEM_HEAVY_ATOM_COUNT>
11

> <PUBCHEM_ATOM_DEF_STEREO_COUNT>
0

> <PUBCHEM_ATOM_UDEF_STEREO_COUNT>
0

> <PUBCHEM_BOND_DEF_STEREO_COUNT>
0

> <PUBCHEM_BOND_UDEF_STEREO_COUNT>
0

> <PUBCHEM_ISOTOPIC_ATOM_COUNT>
0

> <PUBCHEM_COMPONENT_COUNT>
1

> <PUBCHEM_CACTVS_TAUTO_COUNT>
2

> <PUBCHEM_COORDINATE_TYPE>
1
5
255

$$$$

