51090908
  -OEChem-06241223002D

 43 44  0     1  0  0  0  0  0999 V2000
    7.1962   -1.4806    0.0000 O   0  0  0  0  0  0  0  0  0  0  0  0
    3.7320    2.5194    0.0000 N   0  0  3  0  0  0  0  0  0  0  0  0
    5.4641   -1.4806    0.0000 N   0  0  0  0  0  0  0  0  0  0  0  0
    7.1391   -3.5684    0.0000 N   0  0  0  0  0  0  0  0  0  0  0  0
    6.8301   -4.5194    0.0000 N   0  0  0  0  0  0  0  0  0  0  0  0
    2.8660    3.0194    0.0000 C   0  0  3  0  0  0  0  0  0  0  0  0
    2.8660    4.0194    0.0000 C   0  0  0  0  0  0  0  0  0  0  0  0
    4.5981    3.0194    0.0000 C   0  0  0  0  0  0  0  0  0  0  0  0
    3.7320    4.5194    0.0000 C   0  0  0  0  0  0  0  0  0  0  0  0
    4.5981    4.0194    0.0000 C   0  0  0  0  0  0  0  0  0  0  0  0
    3.7320    1.5194    0.0000 C   0  0  0  0  0  0  0  0  0  0  0  0
    2.0000    2.5194    0.0000 C   0  0  0  0  0  0  0  0  0  0  0  0
    4.5981    1.0194    0.0000 C   0  0  0  0  0  0  0  0  0  0  0  0
    4.5981    0.0194    0.0000 C   0  0  0  0  0  0  0  0  0  0  0  0
    5.4641   -0.4806    0.0000 C   0  0  0  0  0  0  0  0  0  0  0  0
    6.3301   -1.9806    0.0000 C   0  0  0  0  0  0  0  0  0  0  0  0
    6.3301   -2.9806    0.0000 C   0  0  0  0  0  0  0  0  0  0  0  0
    5.5211   -3.5684    0.0000 C   0  0  0  0  0  0  0  0  0  0  0  0
    5.8301   -4.5194    0.0000 C   0  0  0  0  0  0  0  0  0  0  0  0
    2.8660    2.3994    0.0000 H   0  0  0  0  0  0  0  0  0  0  0  0
    2.6540    4.6020    0.0000 H   0  0  0  0  0  0  0  0  0  0  0  0
    2.2554    3.9118    0.0000 H   0  0  0  0  0  0  0  0  0  0  0  0
    4.8101    2.4368    0.0000 H   0  0  0  0  0  0  0  0  0  0  0  0
    5.2087    3.1271    0.0000 H   0  0  0  0  0  0  0  0  0  0  0  0
    4.1306    4.9944    0.0000 H   0  0  0  0  0  0  0  0  0  0  0  0
    3.3335    4.9944    0.0000 H   0  0  0  0  0  0  0  0  0  0  0  0
    5.2087    3.9118    0.0000 H   0  0  0  0  0  0  0  0  0  0  0  0
    4.8101    4.6020    0.0000 H   0  0  0  0  0  0  0  0  0  0  0  0
    3.1215    1.6271    0.0000 H   0  0  0  0  0  0  0  0  0  0  0  0
    3.5200    0.9368    0.0000 H   0  0  0  0  0  0  0  0  0  0  0  0
    1.6900    3.0564    0.0000 H   0  0  0  0  0  0  0  0  0  0  0  0
    1.4631    2.2094    0.0000 H   0  0  0  0  0  0  0  0  0  0  0  0
    2.3100    1.9825    0.0000 H   0  0  0  0  0  0  0  0  0  0  0  0
    5.2087    0.9118    0.0000 H   0  0  0  0  0  0  0  0  0  0  0  0
    4.8101    1.6020    0.0000 H   0  0  0  0  0  0  0  0  0  0  0  0
    3.9875    0.1271    0.0000 H   0  0  0  0  0  0  0  0  0  0  0  0
    4.3860   -0.5632    0.0000 H   0  0  0  0  0  0  0  0  0  0  0  0
    6.0747   -0.5882    0.0000 H   0  0  0  0  0  0  0  0  0  0  0  0
    5.6762    0.1020    0.0000 H   0  0  0  0  0  0  0  0  0  0  0  0
    4.9272   -1.7906    0.0000 H   0  0  0  0  0  0  0  0  0  0  0  0
    4.9315   -3.3768    0.0000 H   0  0  0  0  0  0  0  0  0  0  0  0
    7.7288   -3.3768    0.0000 H   0  0  0  0  0  0  0  0  0  0  0  0
    5.4657   -5.0210    0.0000 H   0  0  0  0  0  0  0  0  0  0  0  0
  1 16  2  0  0  0  0
  2  6  1  0  0  0  0
  2  8  1  0  0  0  0
  2 11  1  0  0  0  0
  3 15  1  0  0  0  0
  3 16  1  0  0  0  0
  3 40  1  0  0  0  0
  4  5  1  0  0  0  0
  4 17  1  0  0  0  0
  4 42  1  0  0  0  0
  5 19  2  0  0  0  0
  6  7  1  0  0  0  0
  6 12  1  0  0  0  0
  6 20  1  0  0  0  0
  7  9  1  0  0  0  0
  7 21  1  0  0  0  0
  7 22  1  0  0  0  0
  8 10  1  0  0  0  0
  8 23  1  0  0  0  0
  8 24  1  0  0  0  0
  9 10  1  0  0  0  0
  9 25  1  0  0  0  0
  9 26  1  0  0  0  0
 10 27  1  0  0  0  0
 10 28  1  0  0  0  0
 11 13  1  0  0  0  0
 11 29  1  0  0  0  0
 11 30  1  0  0  0  0
 12 31  1  0  0  0  0
 12 32  1  0  0  0  0
 12 33  1  0  0  0  0
 13 14  1  0  0  0  0
 13 34  1  0  0  0  0
 13 35  1  0  0  0  0
 14 15  1  0  0  0  0
 14 36  1  0  0  0  0
 14 37  1  0  0  0  0
 15 38  1  0  0  0  0
 15 39  1  0  0  0  0
 16 17  1  0  0  0  0
 17 18  2  0  0  0  0
 18 19  1  0  0  0  0
 18 41  1  0  0  0  0
 19 43  1  0  0  0  0
M  END
> <PUBCHEM_COMPOUND_CID>
51090908

> <PUBCHEM_COMPOUND_CANONICALIZED>
1

> <PUBCHEM_CACTVS_COMPLEXITY>
285

> <PUBCHEM_CACTVS_HBOND_ACCEPTOR>
3

> <PUBCHEM_CACTVS_HBOND_DONOR>
2

> <PUBCHEM_CACTVS_ROTATABLE_BOND>
6

> <PUBCHEM_CACTVS_SUBSKEYS>
AAADceBzoAAAAAAAAAAAAAAAAAAAAWAAAAAsAAAAAAAAAAABgAAAHgAYAAAACCjBlgQ+gJPjAACqATV3UACQBAAmggAYOaG4ZFgAYJIAxMEUhQhAHgCAQYEUAAAAAAAAAAAAAAAAAAAAAAAAAAAAAAAAAA==

> <PUBCHEM_IUPAC_OPENEYE_NAME>
N-[4-(2-methyl-1-piperidyl)butyl]-1H-pyrazole-5-carboxamide

> <PUBCHEM_IUPAC_CAS_NAME>
N-[4-(2-methyl-1-piperidinyl)butyl]-1H-pyrazole-5-carboxamide

> <PUBCHEM_IUPAC_NAME>
N-[4-(2-methylpiperidin-1-yl)butyl]-1H-pyrazole-5-carboxamide

> <PUBCHEM_IUPAC_SYSTEMATIC_NAME>
N-[4-(2-methylpiperidin-1-yl)butyl]-1H-pyrazole-5-carboxamide

> <PUBCHEM_IUPAC_TRADITIONAL_NAME>
N-[4-(2-methylpiperidino)butyl]-1H-pyrazole-5-carboxamide

> <PUBCHEM_IUPAC_INCHI>
InChI=1S/C14H24N4O/c1-12-6-2-4-10-18(12)11-5-3-8-15-14(19)13-7-9-16-17-13/h7,9,12H,2-6,8,10-11H2,1H3,(H,15,19)(H,16,17)

> <PUBCHEM_IUPAC_INCHIKEY>
LOBJUQUVUNYEKQ-UHFFFAOYSA-N

> <PUBCHEM_XLOGP3_AA>
1.9

> <PUBCHEM_EXACT_MASS>
264.195011

> <PUBCHEM_MOLECULAR_FORMULA>
C14H24N4O

> <PUBCHEM_MOLECULAR_WEIGHT>
264.36656

> <PUBCHEM_OPENEYE_CAN_SMILES>
CC1CCCCN1CCCCNC(=O)C2=CC=NN2

> <PUBCHEM_OPENEYE_ISO_SMILES>
CC1CCCCN1CCCCNC(=O)C2=CC=NN2

> <PUBCHEM_CACTVS_TPSA>
61

> <PUBCHEM_MONOISOTOPIC_WEIGHT>
264.195011

> <PUBCHEM_TOTAL_CHARGE>
0

> <PUBCHEM_HEAVY_ATOM_COUNT>
19

> <PUBCHEM_ATOM_DEF_STEREO_COUNT>
0

> <PUBCHEM_ATOM_UDEF_STEREO_COUNT>
1

> <PUBCHEM_BOND_DEF_STEREO_COUNT>
0

> <PUBCHEM_BOND_UDEF_STEREO_COUNT>
0

> <PUBCHEM_ISOTOPIC_ATOM_COUNT>
0

> <PUBCHEM_COMPONENT_COUNT>
1

> <PUBCHEM_CACTVS_TAUTO_COUNT>
7

> <PUBCHEM_COORDINATE_TYPE>
1
5
255

> <PUBCHEM_BONDANNOTATIONS>
17  18  8
18  19  8
4  17  8
4  5  8
5  19  8
6  12  3

$$$$

