582705
  -OEChem-06241222432D

 37 39  0     0  0  0  0  0  0999 V2000
    2.8660   -3.2673    0.0000 Br  0  0  0  0  0  0  0  0  0  0  0  0
    4.5981   -0.2673    0.0000 S   0  0  0  0  0  0  0  0  0  0  0  0
    5.4641    0.2327    0.0000 O   0  0  0  0  0  0  0  0  0  0  0  0
    5.0981   -1.1334    0.0000 O   0  0  0  0  0  0  0  0  0  0  0  0
    4.0981    0.5987    0.0000 O   0  0  0  0  0  0  0  0  0  0  0  0
    7.2241    1.1980    0.0000 N   0  0  0  0  0  0  0  0  0  0  0  0
    3.7320   -0.7673    0.0000 C   0  0  0  0  0  0  0  0  0  0  0  0
    6.3301    1.7327    0.0000 C   0  0  0  0  0  0  0  0  0  0  0  0
    5.4641    1.2327    0.0000 C   0  0  0  0  0  0  0  0  0  0  0  0
    6.3301    2.7327    0.0000 C   0  0  0  0  0  0  0  0  0  0  0  0
    2.8660   -0.2673    0.0000 C   0  0  0  0  0  0  0  0  0  0  0  0
    3.7320   -1.7673    0.0000 C   0  0  0  0  0  0  0  0  0  0  0  0
    4.5981    1.7327    0.0000 C   0  0  0  0  0  0  0  0  0  0  0  0
    5.4641    3.2327    0.0000 C   0  0  0  0  0  0  0  0  0  0  0  0
    7.2241    3.2673    0.0000 C   0  0  0  0  0  0  0  0  0  0  0  0
    2.0000   -0.7673    0.0000 C   0  0  0  0  0  0  0  0  0  0  0  0
    8.1301    1.7118    0.0000 C   0  0  0  0  0  0  0  0  0  0  0  0
    4.5981    2.7327    0.0000 C   0  0  0  0  0  0  0  0  0  0  0  0
    2.8660    0.7327    0.0000 C   0  0  0  0  0  0  0  0  0  0  0  0
    8.1301    2.7535    0.0000 C   0  0  0  0  0  0  0  0  0  0  0  0
    2.8660   -2.2673    0.0000 C   0  0  0  0  0  0  0  0  0  0  0  0
    2.0000   -1.7673    0.0000 C   0  0  0  0  0  0  0  0  0  0  0  0
    8.9942    1.2085    0.0000 C   0  0  0  0  0  0  0  0  0  0  0  0
    4.2690   -2.0773    0.0000 H   0  0  0  0  0  0  0  0  0  0  0  0
    4.0611    1.4227    0.0000 H   0  0  0  0  0  0  0  0  0  0  0  0
    5.4641    3.8527    0.0000 H   0  0  0  0  0  0  0  0  0  0  0  0
    7.2169    3.8873    0.0000 H   0  0  0  0  0  0  0  0  0  0  0  0
    1.4631   -0.4573    0.0000 H   0  0  0  0  0  0  0  0  0  0  0  0
    4.0611    3.0427    0.0000 H   0  0  0  0  0  0  0  0  0  0  0  0
    3.4860    0.7327    0.0000 H   0  0  0  0  0  0  0  0  0  0  0  0
    2.8660    1.3527    0.0000 H   0  0  0  0  0  0  0  0  0  0  0  0
    2.2460    0.7327    0.0000 H   0  0  0  0  0  0  0  0  0  0  0  0
    8.6659    3.0656    0.0000 H   0  0  0  0  0  0  0  0  0  0  0  0
    1.4631   -2.0773    0.0000 H   0  0  0  0  0  0  0  0  0  0  0  0
    8.6822    0.6728    0.0000 H   0  0  0  0  0  0  0  0  0  0  0  0
    9.5300    0.8965    0.0000 H   0  0  0  0  0  0  0  0  0  0  0  0
    9.3063    1.7443    0.0000 H   0  0  0  0  0  0  0  0  0  0  0  0
  1 21  1  0  0  0  0
  2  3  1  0  0  0  0
  2  4  2  0  0  0  0
  2  5  2  0  0  0  0
  2  7  1  0  0  0  0
  3  9  1  0  0  0  0
  6  8  1  0  0  0  0
  6 17  2  0  0  0  0
  7 11  2  0  0  0  0
  7 12  1  0  0  0  0
  8  9  1  0  0  0  0
  8 10  2  0  0  0  0
  9 13  2  0  0  0  0
 10 14  1  0  0  0  0
 10 15  1  0  0  0  0
 11 16  1  0  0  0  0
 11 19  1  0  0  0  0
 12 21  2  0  0  0  0
 12 24  1  0  0  0  0
 13 18  1  0  0  0  0
 13 25  1  0  0  0  0
 14 18  2  0  0  0  0
 14 26  1  0  0  0  0
 15 20  2  0  0  0  0
 15 27  1  0  0  0  0
 16 22  2  0  0  0  0
 16 28  1  0  0  0  0
 17 20  1  0  0  0  0
 17 23  1  0  0  0  0
 18 29  1  0  0  0  0
 19 30  1  0  0  0  0
 19 31  1  0  0  0  0
 19 32  1  0  0  0  0
 20 33  1  0  0  0  0
 21 22  1  0  0  0  0
 22 34  1  0  0  0  0
 23 35  1  0  0  0  0
 23 36  1  0  0  0  0
 23 37  1  0  0  0  0
M  END
> <PUBCHEM_COMPOUND_CID>
582705

> <PUBCHEM_COMPOUND_CANONICALIZED>
1

> <PUBCHEM_CACTVS_COMPLEXITY>
507

> <PUBCHEM_CACTVS_HBOND_ACCEPTOR>
4

> <PUBCHEM_CACTVS_HBOND_DONOR>
0

> <PUBCHEM_CACTVS_ROTATABLE_BOND>
3

> <PUBCHEM_CACTVS_SUBSKEYS>
AAADccB6MABAEAAAAAAAAAAAAAAAAAAAAAA8YIAAAAAAAACx9AAAHgRAAAABrAyB3gAyx/IIEAKgAyRiRHTCgGAhYiQImDg3bLgKJuLAkZOEMAhkwBHYyheQwLAOAgABAAgGEAAEAAIAEAwgAAAAAAAAAA==

> <PUBCHEM_IUPAC_OPENEYE_NAME>
(2-methyl-8-quinolyl) 5-bromo-2-methyl-benzenesulfonate

> <PUBCHEM_IUPAC_CAS_NAME>
5-bromo-2-methylbenzenesulfonic acid (2-methyl-8-quinolinyl) ester

> <PUBCHEM_IUPAC_NAME>
(2-methylquinolin-8-yl) 5-bromo-2-methylbenzenesulfonate

> <PUBCHEM_IUPAC_SYSTEMATIC_NAME>
(2-methylquinolin-8-yl) 5-bromanyl-2-methyl-benzenesulfonate

> <PUBCHEM_IUPAC_TRADITIONAL_NAME>
5-bromo-2-methyl-benzenesulfonic acid (2-methyl-8-quinolyl) ester

> <PUBCHEM_IUPAC_INCHI>
InChI=1S/C17H14BrNO3S/c1-11-6-9-14(18)10-16(11)23(20,21)22-15-5-3-4-13-8-7-12(2)19-17(13)15/h3-10H,1-2H3

> <PUBCHEM_IUPAC_INCHIKEY>
VUSBCUNDYJDRQI-UHFFFAOYSA-N

> <PUBCHEM_XLOGP3_AA>
4.7

> <PUBCHEM_EXACT_MASS>
390.987776

> <PUBCHEM_MOLECULAR_FORMULA>
C17H14BrNO3S

> <PUBCHEM_MOLECULAR_WEIGHT>
392.26696

> <PUBCHEM_OPENEYE_CAN_SMILES>
CC1=C(C=C(C=C1)Br)S(=O)(=O)OC2=CC=CC3=C2N=C(C=C3)C

> <PUBCHEM_OPENEYE_ISO_SMILES>
CC1=C(C=C(C=C1)Br)S(=O)(=O)OC2=CC=CC3=C2N=C(C=C3)C

> <PUBCHEM_CACTVS_TPSA>
64.6

> <PUBCHEM_MONOISOTOPIC_WEIGHT>
390.987776

> <PUBCHEM_TOTAL_CHARGE>
0

> <PUBCHEM_HEAVY_ATOM_COUNT>
23

> <PUBCHEM_ATOM_DEF_STEREO_COUNT>
0

> <PUBCHEM_ATOM_UDEF_STEREO_COUNT>
0

> <PUBCHEM_BOND_DEF_STEREO_COUNT>
0

> <PUBCHEM_BOND_UDEF_STEREO_COUNT>
0

> <PUBCHEM_ISOTOPIC_ATOM_COUNT>
0

> <PUBCHEM_COMPONENT_COUNT>
1

> <PUBCHEM_CACTVS_TAUTO_COUNT>
1

> <PUBCHEM_COORDINATE_TYPE>
1
5
255

> <PUBCHEM_BONDANNOTATIONS>
10  14  8
10  15  8
11  16  8
12  21  8
13  18  8
14  18  8
15  20  8
16  22  8
17  20  8
21  22  8
6  17  8
6  8  8
7  11  8
7  12  8
8  10  8
8  9  8
9  13  8

$$$$

