3447
  -OEChem-06251223252D

 46 46  0     0  0  0  0  0  0999 V2000
    6.8671    0.5600    0.0000 O   0  0  0  0  0  0  0  0  0  0  0  0
    5.1350    0.5600    0.0000 O   0  0  0  0  0  0  0  0  0  0  0  0
    7.7331    5.0600    0.0000 O   0  0  0  0  0  0  0  0  0  0  0  0
    6.0010    5.0600    0.0000 O   0  0  0  0  0  0  0  0  0  0  0  0
    3.4030   -4.4400    0.0000 N   0  0  0  0  0  0  0  0  0  0  0  0
    2.5369   -5.9400    0.0000 N   0  0  0  0  0  0  0  0  0  0  0  0
    4.2690   -5.9400    0.0000 N   0  0  0  0  0  0  0  0  0  0  0  0
    5.1350   -2.4400    0.0000 C   0  0  0  0  0  0  0  0  0  0  0  0
    5.1350   -1.4400    0.0000 C   0  0  0  0  0  0  0  0  0  0  0  0
    4.2690   -2.9400    0.0000 C   0  0  0  0  0  0  0  0  0  0  0  0
    6.0010   -0.9400    0.0000 C   0  0  0  0  0  0  0  0  0  0  0  0
    4.2690   -3.9400    0.0000 C   0  0  0  0  0  0  0  0  0  0  0  0
    6.0010    0.0600    0.0000 C   0  0  0  0  0  0  0  0  0  0  0  0
    6.8671    1.5600    0.0000 C   0  0  0  0  0  0  0  0  0  0  0  0
    7.7331    2.0600    0.0000 C   0  0  0  0  0  0  0  0  0  0  0  0
    6.0010    2.0600    0.0000 C   0  0  0  0  0  0  0  0  0  0  0  0
    6.8671    3.5600    0.0000 C   0  0  0  0  0  0  0  0  0  0  0  0
    3.4030   -5.4400    0.0000 C   0  0  0  0  0  0  0  0  0  0  0  0
    7.7331    3.0600    0.0000 C   0  0  0  0  0  0  0  0  0  0  0  0
    6.0010    3.0600    0.0000 C   0  0  0  0  0  0  0  0  0  0  0  0
    6.8671    4.5600    0.0000 C   0  0  0  0  0  0  0  0  0  0  0  0
    7.7331    6.0600    0.0000 C   0  0  0  0  0  0  0  0  0  0  0  0
    8.5991    6.5600    0.0000 C   0  0  0  0  0  0  0  0  0  0  0  0
    5.3471   -3.0226    0.0000 H   0  0  0  0  0  0  0  0  0  0  0  0
    5.7456   -2.3323    0.0000 H   0  0  0  0  0  0  0  0  0  0  0  0
    4.9230   -0.8574    0.0000 H   0  0  0  0  0  0  0  0  0  0  0  0
    4.5244   -1.5477    0.0000 H   0  0  0  0  0  0  0  0  0  0  0  0
    4.0569   -2.3574    0.0000 H   0  0  0  0  0  0  0  0  0  0  0  0
    3.6584   -3.0477    0.0000 H   0  0  0  0  0  0  0  0  0  0  0  0
    6.2131   -1.5226    0.0000 H   0  0  0  0  0  0  0  0  0  0  0  0
    6.6116   -0.8323    0.0000 H   0  0  0  0  0  0  0  0  0  0  0  0
    4.4810   -4.5226    0.0000 H   0  0  0  0  0  0  0  0  0  0  0  0
    4.8796   -3.8323    0.0000 H   0  0  0  0  0  0  0  0  0  0  0  0
    8.2700    1.7500    0.0000 H   0  0  0  0  0  0  0  0  0  0  0  0
    5.4641    1.7500    0.0000 H   0  0  0  0  0  0  0  0  0  0  0  0
    8.2700    3.3700    0.0000 H   0  0  0  0  0  0  0  0  0  0  0  0
    5.4641    3.3700    0.0000 H   0  0  0  0  0  0  0  0  0  0  0  0
    2.5369   -6.5600    0.0000 H   0  0  0  0  0  0  0  0  0  0  0  0
    2.0000   -5.6300    0.0000 H   0  0  0  0  0  0  0  0  0  0  0  0
    4.2690   -6.5600    0.0000 H   0  0  0  0  0  0  0  0  0  0  0  0
    4.8059   -5.6300    0.0000 H   0  0  0  0  0  0  0  0  0  0  0  0
    7.5210    6.6426    0.0000 H   0  0  0  0  0  0  0  0  0  0  0  0
    7.1225    5.9523    0.0000 H   0  0  0  0  0  0  0  0  0  0  0  0
    8.9091    6.0231    0.0000 H   0  0  0  0  0  0  0  0  0  0  0  0
    9.1360    6.8700    0.0000 H   0  0  0  0  0  0  0  0  0  0  0  0
    8.2891    7.0969    0.0000 H   0  0  0  0  0  0  0  0  0  0  0  0
  1 13  1  0  0  0  0
  1 14  1  0  0  0  0
  2 13  2  0  0  0  0
  3 21  1  0  0  0  0
  3 22  1  0  0  0  0
  4 21  2  0  0  0  0
  5 12  1  0  0  0  0
  5 18  2  0  0  0  0
  6 18  1  0  0  0  0
  6 38  1  0  0  0  0
  6 39  1  0  0  0  0
  7 18  1  0  0  0  0
  7 40  1  0  0  0  0
  7 41  1  0  0  0  0
  8  9  1  0  0  0  0
  8 10  1  0  0  0  0
  8 24  1  0  0  0  0
  8 25  1  0  0  0  0
  9 11  1  0  0  0  0
  9 26  1  0  0  0  0
  9 27  1  0  0  0  0
 10 12  1  0  0  0  0
 10 28  1  0  0  0  0
 10 29  1  0  0  0  0
 11 13  1  0  0  0  0
 11 30  1  0  0  0  0
 11 31  1  0  0  0  0
 12 32  1  0  0  0  0
 12 33  1  0  0  0  0
 14 15  2  0  0  0  0
 14 16  1  0  0  0  0
 15 19  1  0  0  0  0
 15 34  1  0  0  0  0
 16 20  2  0  0  0  0
 16 35  1  0  0  0  0
 17 19  2  0  0  0  0
 17 20  1  0  0  0  0
 17 21  1  0  0  0  0
 19 36  1  0  0  0  0
 20 37  1  0  0  0  0
 22 23  1  0  0  0  0
 22 42  1  0  0  0  0
 22 43  1  0  0  0  0
 23 44  1  0  0  0  0
 23 45  1  0  0  0  0
 23 46  1  0  0  0  0
M  END
> <PUBCHEM_COMPOUND_CID>
3447

> <PUBCHEM_COMPOUND_CANONICALIZED>
1

> <PUBCHEM_CACTVS_COMPLEXITY>
400

> <PUBCHEM_CACTVS_HBOND_ACCEPTOR>
5

> <PUBCHEM_CACTVS_HBOND_DONOR>
2

> <PUBCHEM_CACTVS_ROTATABLE_BOND>
11

> <PUBCHEM_CACTVS_SUBSKEYS>
AAADceB7OAAAAAAAAAAAAAAAAAAAAAAAAAAwAAAAAAAAAAABAAAAHgAQAAAADAThmAYzDoJABACoAiDSLAACCAEkIAAIiAEGCMgMJjKEtRqCOyCkwBEIqYeY7CzOIAAAAAAAAABAAAAAAAAAAAAAAAAAAA==

> <PUBCHEM_IUPAC_OPENEYE_NAME>
ethyl 4-(6-guanidinohexanoyloxy)benzoate

> <PUBCHEM_IUPAC_CAS_NAME>
4-[6-(diaminomethylideneamino)-1-oxohexoxy]benzoic acid ethyl ester

> <PUBCHEM_IUPAC_NAME>
ethyl 4-[6-(diaminomethylideneamino)hexanoyloxy]benzoate

> <PUBCHEM_IUPAC_SYSTEMATIC_NAME>
ethyl 4-[6-[bis(azanyl)methylideneamino]hexanoyloxy]benzoate

> <PUBCHEM_IUPAC_TRADITIONAL_NAME>
4-(6-guanidinohexanoyloxy)benzoic acid ethyl ester

> <PUBCHEM_IUPAC_INCHI>
InChI=1S/C16H23N3O4/c1-2-22-15(21)12-7-9-13(10-8-12)23-14(20)6-4-3-5-11-19-16(17)18/h7-10H,2-6,11H2,1H3,(H4,17,18,19)

> <PUBCHEM_IUPAC_INCHIKEY>
YKGYIDJEEQRWQH-UHFFFAOYSA-N

> <PUBCHEM_XLOGP3_AA>
1.4

> <PUBCHEM_EXACT_MASS>
321.168856

> <PUBCHEM_MOLECULAR_FORMULA>
C16H23N3O4

> <PUBCHEM_MOLECULAR_WEIGHT>
321.37152

> <PUBCHEM_OPENEYE_CAN_SMILES>
CCOC(=O)C1=CC=C(C=C1)OC(=O)CCCCCN=C(N)N

> <PUBCHEM_OPENEYE_ISO_SMILES>
CCOC(=O)C1=CC=C(C=C1)OC(=O)CCCCCN=C(N)N

> <PUBCHEM_CACTVS_TPSA>
117

> <PUBCHEM_MONOISOTOPIC_WEIGHT>
321.168856

> <PUBCHEM_TOTAL_CHARGE>
0

> <PUBCHEM_HEAVY_ATOM_COUNT>
23

> <PUBCHEM_ATOM_DEF_STEREO_COUNT>
0

> <PUBCHEM_ATOM_UDEF_STEREO_COUNT>
0

> <PUBCHEM_BOND_DEF_STEREO_COUNT>
0

> <PUBCHEM_BOND_UDEF_STEREO_COUNT>
0

> <PUBCHEM_ISOTOPIC_ATOM_COUNT>
0

> <PUBCHEM_COMPONENT_COUNT>
1

> <PUBCHEM_CACTVS_TAUTO_COUNT>
2

> <PUBCHEM_COORDINATE_TYPE>
1
5
255

> <PUBCHEM_BONDANNOTATIONS>
14  15  8
14  16  8
15  19  8
16  20  8
17  19  8
17  20  8

$$$$

