854318
  -OEChem-06241222472D

 37 39  0     1  0  0  0  0  0999 V2000
    3.7320   -0.8878    0.0000 Cl  0  0  0  0  0  0  0  0  0  0  0  0
    7.2241    1.1469    0.0000 O   0  0  0  0  0  0  0  0  0  0  0  0
    3.7320    1.1122    0.0000 O   0  0  0  0  0  0  0  0  0  0  0  0
    8.9942    1.1364    0.0000 O   0  0  0  0  0  0  0  0  0  0  0  0
    2.8660    3.6122    0.0000 O   0  0  0  0  0  0  0  0  0  0  0  0
    2.0000    2.1122    0.0000 O   0  0  0  0  0  0  0  0  0  0  0  0
    6.3301   -0.3878    0.0000 C   0  0  0  0  0  0  0  0  0  0  0  0
    7.2241   -0.9224    0.0000 C   0  0  0  0  0  0  0  0  0  0  0  0
    6.3301    0.6122    0.0000 C   0  0  0  0  0  0  0  0  0  0  0  0
    7.2125   -1.9224    0.0000 C   0  0  0  0  0  0  0  0  0  0  0  0
    5.4641   -0.8878    0.0000 C   0  0  0  0  0  0  0  0  0  0  0  0
    4.5981    0.6122    0.0000 C   0  0  0  0  0  0  0  0  0  0  0  0
    5.4641    1.1122    0.0000 C   0  0  0  0  0  0  0  0  0  0  0  0
    4.5981   -0.3878    0.0000 C   0  0  0  0  0  0  0  0  0  0  0  0
    8.1301   -0.4086    0.0000 C   0  0  0  0  0  0  0  0  0  0  0  0
    3.7320    2.1122    0.0000 C   0  0  2  0  0  0  0  0  0  0  0  0
    8.1301    0.6330    0.0000 C   0  0  0  0  0  0  0  0  0  0  0  0
    6.3408   -2.4123    0.0000 C   0  0  0  0  0  0  0  0  0  0  0  0
    8.0727   -2.4323    0.0000 C   0  0  0  0  0  0  0  0  0  0  0  0
    4.5981    2.6122    0.0000 C   0  0  0  0  0  0  0  0  0  0  0  0
    6.3292   -3.4122    0.0000 C   0  0  0  0  0  0  0  0  0  0  0  0
    8.0611   -3.4323    0.0000 C   0  0  0  0  0  0  0  0  0  0  0  0
    7.1894   -3.9222    0.0000 C   0  0  0  0  0  0  0  0  0  0  0  0
    2.8660    2.6122    0.0000 C   0  0  0  0  0  0  0  0  0  0  0  0
    5.4641   -1.5078    0.0000 H   0  0  0  0  0  0  0  0  0  0  0  0
    5.4641    1.7322    0.0000 H   0  0  0  0  0  0  0  0  0  0  0  0
    8.6659   -0.7207    0.0000 H   0  0  0  0  0  0  0  0  0  0  0  0
    4.2690    1.8022    0.0000 H   0  0  0  0  0  0  0  0  0  0  0  0
    5.8074   -2.0961    0.0000 H   0  0  0  0  0  0  0  0  0  0  0  0
    8.6132   -2.1286    0.0000 H   0  0  0  0  0  0  0  0  0  0  0  0
    4.9081    2.0753    0.0000 H   0  0  0  0  0  0  0  0  0  0  0  0
    5.1350    2.9222    0.0000 H   0  0  0  0  0  0  0  0  0  0  0  0
    4.2881    3.1492    0.0000 H   0  0  0  0  0  0  0  0  0  0  0  0
    5.7887   -3.7160    0.0000 H   0  0  0  0  0  0  0  0  0  0  0  0
    8.5944   -3.7485    0.0000 H   0  0  0  0  0  0  0  0  0  0  0  0
    7.1822   -4.5422    0.0000 H   0  0  0  0  0  0  0  0  0  0  0  0
    2.3291    3.9222    0.0000 H   0  0  0  0  0  0  0  0  0  0  0  0
  1 14  1  0  0  0  0
  2  9  1  0  0  0  0
  2 17  1  0  0  0  0
  3 12  1  0  0  0  0
 16  3  1  1  0  0  0
  4 17  2  0  0  0  0
  5 24  1  0  0  0  0
  5 37  1  0  0  0  0
  6 24  2  0  0  0  0
  7  8  1  0  0  0  0
  7  9  1  0  0  0  0
  7 11  2  0  0  0  0
  8 10  1  0  0  0  0
  8 15  2  0  0  0  0
  9 13  2  0  0  0  0
 10 18  2  0  0  0  0
 10 19  1  0  0  0  0
 11 14  1  0  0  0  0
 11 25  1  0  0  0  0
 12 13  1  0  0  0  0
 12 14  2  0  0  0  0
 13 26  1  0  0  0  0
 15 17  1  0  0  0  0
 15 27  1  0  0  0  0
 16 20  1  0  0  0  0
 16 24  1  0  0  0  0
 16 28  1  0  0  0  0
 18 21  1  0  0  0  0
 18 29  1  0  0  0  0
 19 22  2  0  0  0  0
 19 30  1  0  0  0  0
 20 31  1  0  0  0  0
 20 32  1  0  0  0  0
 20 33  1  0  0  0  0
 21 23  2  0  0  0  0
 21 34  1  0  0  0  0
 22 23  1  0  0  0  0
 22 35  1  0  0  0  0
 23 36  1  0  0  0  0
M  END
> <PUBCHEM_COMPOUND_CID>
854318

> <PUBCHEM_COMPOUND_CANONICALIZED>
1

> <PUBCHEM_CACTVS_COMPLEXITY>
526

> <PUBCHEM_CACTVS_HBOND_ACCEPTOR>
5

> <PUBCHEM_CACTVS_HBOND_DONOR>
1

> <PUBCHEM_CACTVS_ROTATABLE_BOND>
4

> <PUBCHEM_CACTVS_SUBSKEYS>
AAADccB4OAAEAAAAAAAAAAAAAAAAAAAAAAAwYIAAAAAAAACBQAAAGgIACAAADBagmCIyDoAABgCIAiDSCAICCAAgJUAIiAFGC8gNJyOFMx6CeiClwBULqQeA4OwOICAAKAAICABAQABQABAQAAAAAAAAAA==

> <PUBCHEM_IUPAC_OPENEYE_NAME>
(2R)-2-(6-chloro-2-oxo-4-phenyl-chromen-7-yl)oxypropanoic acid

> <PUBCHEM_IUPAC_CAS_NAME>
(2R)-2-[(6-chloro-2-oxo-4-phenyl-1-benzopyran-7-yl)oxy]propanoic acid

> <PUBCHEM_IUPAC_NAME>
(2R)-2-(6-chloro-2-oxo-4-phenylchromen-7-yl)oxypropanoic acid

> <PUBCHEM_IUPAC_SYSTEMATIC_NAME>
(2R)-2-(6-chloranyl-2-oxidanylidene-4-phenyl-chromen-7-yl)oxypropanoic acid

> <PUBCHEM_IUPAC_TRADITIONAL_NAME>
(2R)-2-(6-chloro-2-keto-4-phenyl-chromen-7-yl)oxypropionic acid

> <PUBCHEM_IUPAC_INCHI>
InChI=1S/C18H13ClO5/c1-10(18(21)22)23-16-9-15-13(7-14(16)19)12(8-17(20)24-15)11-5-3-2-4-6-11/h2-10H,1H3,(H,21,22)/t10-/m1/s1

> <PUBCHEM_IUPAC_INCHIKEY>
IHPVIWJZZRTWJJ-SNVBAGLBSA-N

> <PUBCHEM_XLOGP3_AA>
3.7

> <PUBCHEM_EXACT_MASS>
344.045151

> <PUBCHEM_MOLECULAR_FORMULA>
C18H13ClO5

> <PUBCHEM_MOLECULAR_WEIGHT>
344.74582

> <PUBCHEM_OPENEYE_CAN_SMILES>
CC(C(=O)O)OC1=C(C=C2C(=CC(=O)OC2=C1)C3=CC=CC=C3)Cl

> <PUBCHEM_OPENEYE_ISO_SMILES>
C[C@H](C(=O)O)OC1=C(C=C2C(=CC(=O)OC2=C1)C3=CC=CC=C3)Cl

> <PUBCHEM_CACTVS_TPSA>
72.8

> <PUBCHEM_MONOISOTOPIC_WEIGHT>
344.045151

> <PUBCHEM_TOTAL_CHARGE>
0

> <PUBCHEM_HEAVY_ATOM_COUNT>
24

> <PUBCHEM_ATOM_DEF_STEREO_COUNT>
1

> <PUBCHEM_ATOM_UDEF_STEREO_COUNT>
0

> <PUBCHEM_BOND_DEF_STEREO_COUNT>
0

> <PUBCHEM_BOND_UDEF_STEREO_COUNT>
0

> <PUBCHEM_ISOTOPIC_ATOM_COUNT>
0

> <PUBCHEM_COMPONENT_COUNT>
1

> <PUBCHEM_CACTVS_TAUTO_COUNT>
1

> <PUBCHEM_COORDINATE_TYPE>
1
5
255

> <PUBCHEM_BONDANNOTATIONS>
10  18  8
10  19  8
11  14  8
12  13  8
12  14  8
15  17  8
18  21  8
19  22  8
2  17  8
2  9  8
21  23  8
22  23  8
16  3  5
7  11  8
7  8  8
7  9  8
8  15  8
9  13  8

$$$$

