4426
  -OEChem-06261200062D

 60 65  0     1  0  0  0  0  0999 V2000
    3.9634    1.9928    0.0000 O   0  0  0  0  0  0  0  0  0  0  0  0
    7.1114    0.4889    0.0000 O   0  0  0  0  0  0  0  0  0  0  0  0
    3.7321    4.3422    0.0000 O   0  0  0  0  0  0  0  0  0  0  0  0
    2.0000   -1.4622    0.0000 O   0  0  0  0  0  0  0  0  0  0  0  0
    7.8927    0.9889    0.0000 N   0  0  3  0  0  0  0  0  0  0  0  0
    3.7321   -0.4622    0.0000 N   0  0  0  0  0  0  0  0  0  0  0  0
    3.7321   -1.4622    0.0000 N   0  0  0  0  0  0  0  0  0  0  0  0
    5.4217    1.4645    0.0000 C   0  0  3  0  0  0  0  0  0  0  0  0
    6.2454    0.9889    0.0000 C   0  0  3  0  0  0  0  0  0  0  0  0
    7.0690    1.4645    0.0000 C   0  0  3  0  0  0  0  0  0  0  0  0
    4.5981    0.9889    0.0000 C   0  0  3  0  0  0  0  0  0  0  0  0
    5.9713    2.1619    0.0000 C   0  0  0  0  0  0  0  0  0  0  0  0
    5.4217    2.4155    0.0000 C   0  0  0  0  0  0  0  0  0  0  0  0
    6.2454    0.0378    0.0000 C   0  0  0  0  0  0  0  0  0  0  0  0
    7.0690    2.4155    0.0000 C   0  0  0  0  0  0  0  0  0  0  0  0
    7.3239    2.1619    0.0000 C   0  0  0  0  0  0  0  0  0  0  0  0
    6.2454    2.8911    0.0000 C   0  0  0  0  0  0  0  0  0  0  0  0
    5.4217   -0.4377    0.0000 C   0  0  0  0  0  0  0  0  0  0  0  0
    4.5981    0.0378    0.0000 C   0  0  0  0  0  0  0  0  0  0  0  0
    4.5981    2.8911    0.0000 C   0  0  0  0  0  0  0  0  0  0  0  0
    8.5739    0.2568    0.0000 C   0  0  0  0  0  0  0  0  0  0  0  0
    6.2454    3.8422    0.0000 C   0  0  0  0  0  0  0  0  0  0  0  0
    4.5981    3.8422    0.0000 C   0  0  0  0  0  0  0  0  0  0  0  0
    5.4217    4.3177    0.0000 C   0  0  0  0  0  0  0  0  0  0  0  0
    9.5485    0.4806    0.0000 C   0  0  0  0  0  0  0  0  0  0  0  0
   10.2297   -0.2515    0.0000 C   0  0  0  0  0  0  0  0  0  0  0  0
    2.8660   -1.9622    0.0000 C   0  0  0  0  0  0  0  0  0  0  0  0
    2.8660   -2.9622    0.0000 C   0  0  0  0  0  0  0  0  0  0  0  0
    2.0000   -3.4622    0.0000 C   0  0  0  0  0  0  0  0  0  0  0  0
    3.7320   -3.4622    0.0000 C   0  0  0  0  0  0  0  0  0  0  0  0
    2.0000   -4.4622    0.0000 C   0  0  0  0  0  0  0  0  0  0  0  0
    3.7320   -4.4622    0.0000 C   0  0  0  0  0  0  0  0  0  0  0  0
    2.8660   -4.9622    0.0000 C   0  0  0  0  0  0  0  0  0  0  0  0
    7.8052    1.8895    0.0000 H   0  0  0  0  0  0  0  0  0  0  0  0
    3.7816    0.7525    0.0000 H   0  0  0  0  0  0  0  0  0  0  0  0
    6.1080    2.7666    0.0000 H   0  0  0  0  0  0  0  0  0  0  0  0
    5.4116    2.4287    0.0000 H   0  0  0  0  0  0  0  0  0  0  0  0
    6.4574   -0.5448    0.0000 H   0  0  0  0  0  0  0  0  0  0  0  0
    6.8560    0.1455    0.0000 H   0  0  0  0  0  0  0  0  0  0  0  0
    7.6796    2.3079    0.0000 H   0  0  0  0  0  0  0  0  0  0  0  0
    7.2811    2.9981    0.0000 H   0  0  0  0  0  0  0  0  0  0  0  0
    7.9160    2.3457    0.0000 H   0  0  0  0  0  0  0  0  0  0  0  0
    7.2309    2.7749    0.0000 H   0  0  0  0  0  0  0  0  0  0  0  0
    5.0232   -0.9126    0.0000 H   0  0  0  0  0  0  0  0  0  0  0  0
    5.8203   -0.9126    0.0000 H   0  0  0  0  0  0  0  0  0  0  0  0
    7.1114   -0.1311    0.0000 H   0  0  0  0  0  0  0  0  0  0  0  0
    8.0535   -0.0803    0.0000 H   0  0  0  0  0  0  0  0  0  0  0  0
    8.8155   -0.3142    0.0000 H   0  0  0  0  0  0  0  0  0  0  0  0
    6.7823    4.1522    0.0000 H   0  0  0  0  0  0  0  0  0  0  0  0
    5.4217    4.9377    0.0000 H   0  0  0  0  0  0  0  0  0  0  0  0
    9.7304    1.0734    0.0000 H   0  0  0  0  0  0  0  0  0  0  0  0
    3.7321    4.9622    0.0000 H   0  0  0  0  0  0  0  0  0  0  0  0
    4.2690   -1.7722    0.0000 H   0  0  0  0  0  0  0  0  0  0  0  0
   10.0477   -0.8442    0.0000 H   0  0  0  0  0  0  0  0  0  0  0  0
   10.8339   -0.1127    0.0000 H   0  0  0  0  0  0  0  0  0  0  0  0
    1.4631   -3.1521    0.0000 H   0  0  0  0  0  0  0  0  0  0  0  0
    4.2690   -3.1521    0.0000 H   0  0  0  0  0  0  0  0  0  0  0  0
    1.4631   -4.7722    0.0000 H   0  0  0  0  0  0  0  0  0  0  0  0
    4.2690   -4.7722    0.0000 H   0  0  0  0  0  0  0  0  0  0  0  0
    2.8660   -5.5822    0.0000 H   0  0  0  0  0  0  0  0  0  0  0  0
  1 11  1  0  0  0  0
  1 20  1  0  0  0  0
  2  9  1  0  0  0  0
  2 46  1  0  0  0  0
  3 23  1  0  0  0  0
  3 52  1  0  0  0  0
  4 27  2  0  0  0  0
  5 10  1  0  0  0  0
  5 16  1  0  0  0  0
  5 21  1  0  0  0  0
  6  7  1  0  0  0  0
  6 19  2  3  0  0  0
  7 27  1  0  0  0  0
  7 53  1  0  0  0  0
  8  9  1  0  0  0  0
  8 11  1  0  0  0  0
  8 12  1  0  0  0  0
  8 13  1  0  0  0  0
  9 10  1  0  0  0  0
  9 14  1  0  0  0  0
 10 15  1  0  0  0  0
 10 34  1  0  0  0  0
 11 19  1  0  0  0  0
 11 35  1  0  0  0  0
 12 16  1  0  0  0  0
 12 36  1  0  0  0  0
 12 37  1  0  0  0  0
 13 17  2  0  0  0  0
 13 20  1  0  0  0  0
 14 18  1  0  0  0  0
 14 38  1  0  0  0  0
 14 39  1  0  0  0  0
 15 17  1  0  0  0  0
 15 40  1  0  0  0  0
 15 41  1  0  0  0  0
 16 42  1  0  0  0  0
 16 43  1  0  0  0  0
 17 22  1  0  0  0  0
 18 19  1  0  0  0  0
 18 44  1  0  0  0  0
 18 45  1  0  0  0  0
 20 23  2  0  0  0  0
 21 25  1  0  0  0  0
 21 47  1  0  0  0  0
 21 48  1  0  0  0  0
 22 24  2  0  0  0  0
 22 49  1  0  0  0  0
 23 24  1  0  0  0  0
 24 50  1  0  0  0  0
 25 26  2  0  0  0  0
 25 51  1  0  0  0  0
 26 54  1  0  0  0  0
 26 55  1  0  0  0  0
 27 28  1  0  0  0  0
 28 29  2  0  0  0  0
 28 30  1  0  0  0  0
 29 31  1  0  0  0  0
 29 56  1  0  0  0  0
 30 32  2  0  0  0  0
 30 57  1  0  0  0  0
 31 33  2  0  0  0  0
 31 58  1  0  0  0  0
 32 33  1  0  0  0  0
 32 59  1  0  0  0  0
 33 60  1  0  0  0  0
M  END
> <PUBCHEM_COMPOUND_CID>
4426

> <PUBCHEM_COMPOUND_CANONICALIZED>
1

> <PUBCHEM_CACTVS_COMPLEXITY>
841

> <PUBCHEM_CACTVS_HBOND_ACCEPTOR>
6

> <PUBCHEM_CACTVS_HBOND_DONOR>
3

> <PUBCHEM_CACTVS_ROTATABLE_BOND>
4

> <PUBCHEM_CACTVS_SUBSKEYS>
AAADceB7OAAAAAAAAAAAAAAAAAAAASAAAAA8YMGCAAAWAEjxQAAAHgAYCAAADnzhmAYwBoNiBgCoAyFyEASSCAAkIAAaiAE+jMgPJjKGtRuGeSPlyBGbuYf4+P+PoAABAAAYQADQAAaQADSgAAAAAAAAAA==

> <PUBCHEM_IUPAC_OPENEYE_NAME>
N-[(3-allyl-4a,9-dihydroxy-2,4,5,6,7a,13-hexahydro-1H-4,12-methanobenzofuro[3,2-e]isoquinoline-7-ylidene)amino]benzamide

> <PUBCHEM_IUPAC_CAS_NAME>
N-[(4a,9-dihydroxy-3-prop-2-enyl-2,4,5,6,7a,13-hexahydro-1H-4,12-methanobenzofuro[3,2-e]isoquinoline-7-ylidene)amino]benzamide

> <PUBCHEM_IUPAC_NAME>
N-[(4a,9-dihydroxy-3-prop-2-enyl-2,4,5,6,7a,13-hexahydro-1H-4,12-methanobenzofuro[3,2-e]isoquinoline-7-ylidene)amino]benzamide

> <PUBCHEM_IUPAC_SYSTEMATIC_NAME>
N-[[4a,9-bis(oxidanyl)-3-prop-2-enyl-2,4,5,6,7a,13-hexahydro-1H-4,12-methanobenzofuro[3,2-e]isoquinoline-7-ylidene]amino]benzamide

> <PUBCHEM_IUPAC_TRADITIONAL_NAME>
N-[(3-allyl-4a,9-dihydroxy-2,4,5,6,7a,13-hexahydro-1H-4,12-methanobenzofuro[3,2-e]isoquinoline-7-ylidene)amino]benzamide

> <PUBCHEM_IUPAC_INCHI>
InChI=1S/C26H27N3O4/c1-2-13-29-14-12-25-21-17-8-9-19(30)22(21)33-23(25)18(10-11-26(25,32)20(29)15-17)27-28-24(31)16-6-4-3-5-7-16/h2-9,20,23,30,32H,1,10-15H2,(H,28,31)

> <PUBCHEM_IUPAC_INCHIKEY>
AKXCFAYOTIEFOH-UHFFFAOYSA-N

> <PUBCHEM_XLOGP3>
3.5

> <PUBCHEM_EXACT_MASS>
445.200156

> <PUBCHEM_MOLECULAR_FORMULA>
C26H27N3O4

> <PUBCHEM_MOLECULAR_WEIGHT>
445.51028

> <PUBCHEM_OPENEYE_CAN_SMILES>
C=CCN1CCC23C4C(=NNC(=O)C5=CC=CC=C5)CCC2(C1CC6=C3C(=C(C=C6)O)O4)O

> <PUBCHEM_OPENEYE_ISO_SMILES>
C=CCN1CCC23C4C(=NNC(=O)C5=CC=CC=C5)CCC2(C1CC6=C3C(=C(C=C6)O)O4)O

> <PUBCHEM_CACTVS_TPSA>
94.4

> <PUBCHEM_MONOISOTOPIC_WEIGHT>
445.200156

> <PUBCHEM_TOTAL_CHARGE>
0

> <PUBCHEM_HEAVY_ATOM_COUNT>
33

> <PUBCHEM_ATOM_DEF_STEREO_COUNT>
0

> <PUBCHEM_ATOM_UDEF_STEREO_COUNT>
4

> <PUBCHEM_BOND_DEF_STEREO_COUNT>
0

> <PUBCHEM_BOND_UDEF_STEREO_COUNT>
1

> <PUBCHEM_ISOTOPIC_ATOM_COUNT>
0

> <PUBCHEM_COMPONENT_COUNT>
1

> <PUBCHEM_CACTVS_TAUTO_COUNT>
4

> <PUBCHEM_COORDINATE_TYPE>
1
5
255

> <PUBCHEM_BONDANNOTATIONS>
10  34  3
11  35  3
13  17  8
13  20  8
17  22  8
9  2  3
20  23  8
22  24  8
23  24  8
28  29  8
28  30  8
29  31  8
30  32  8
31  33  8
32  33  8
6  19  1
8  12  3

$$$$

