17396080
  -OEChem-06241222542D

 40 42  0     0  0  0  0  0  0999 V2000
    6.3301   -1.2673    0.0000 O   0  0  0  0  0  0  0  0  0  0  0  0
    5.4641    0.2327    0.0000 N   0  0  0  0  0  0  0  0  0  0  0  0
    8.0622   -0.2673    0.0000 N   0  0  0  0  0  0  0  0  0  0  0  0
    2.8660   -1.2673    0.0000 C   0  0  0  0  0  0  0  0  0  0  0  0
    4.5981   -0.2673    0.0000 C   0  0  0  0  0  0  0  0  0  0  0  0
    3.7320   -1.7673    0.0000 C   0  0  0  0  0  0  0  0  0  0  0  0
    2.8660   -0.2673    0.0000 C   0  0  0  0  0  0  0  0  0  0  0  0
    4.5981   -1.2673    0.0000 C   0  0  0  0  0  0  0  0  0  0  0  0
    3.7320    0.2327    0.0000 C   0  0  0  0  0  0  0  0  0  0  0  0
    2.0000   -1.7673    0.0000 C   0  0  0  0  0  0  0  0  0  0  0  0
    6.3301   -0.2673    0.0000 C   0  0  0  0  0  0  0  0  0  0  0  0
    7.1962    0.2327    0.0000 C   0  0  0  0  0  0  0  0  0  0  0  0
    7.1962    1.2327    0.0000 C   0  0  0  0  0  0  0  0  0  0  0  0
    8.9282    0.2327    0.0000 C   0  0  0  0  0  0  0  0  0  0  0  0
    8.9282    1.2327    0.0000 C   0  0  0  0  0  0  0  0  0  0  0  0
    8.0622    1.7327    0.0000 C   0  0  0  0  0  0  0  0  0  0  0  0
    9.8222   -0.3020    0.0000 C   0  0  0  0  0  0  0  0  0  0  0  0
    9.8222    1.7673    0.0000 C   0  0  0  0  0  0  0  0  0  0  0  0
   10.7282    0.2119    0.0000 C   0  0  0  0  0  0  0  0  0  0  0  0
   10.7282    1.2535    0.0000 C   0  0  0  0  0  0  0  0  0  0  0  0
    2.8660   -1.8873    0.0000 H   0  0  0  0  0  0  0  0  0  0  0  0
    4.5981    0.3527    0.0000 H   0  0  0  0  0  0  0  0  0  0  0  0
    3.3335   -2.2423    0.0000 H   0  0  0  0  0  0  0  0  0  0  0  0
    4.1306   -2.2423    0.0000 H   0  0  0  0  0  0  0  0  0  0  0  0
    2.6540    0.3153    0.0000 H   0  0  0  0  0  0  0  0  0  0  0  0
    2.2554   -0.3750    0.0000 H   0  0  0  0  0  0  0  0  0  0  0  0
    4.8101   -1.8499    0.0000 H   0  0  0  0  0  0  0  0  0  0  0  0
    5.2087   -1.1597    0.0000 H   0  0  0  0  0  0  0  0  0  0  0  0
    4.1306    0.7076    0.0000 H   0  0  0  0  0  0  0  0  0  0  0  0
    3.3335    0.7076    0.0000 H   0  0  0  0  0  0  0  0  0  0  0  0
    1.6900   -1.2304    0.0000 H   0  0  0  0  0  0  0  0  0  0  0  0
    1.4631   -2.0773    0.0000 H   0  0  0  0  0  0  0  0  0  0  0  0
    2.3100   -2.3043    0.0000 H   0  0  0  0  0  0  0  0  0  0  0  0
    5.4641    0.8527    0.0000 H   0  0  0  0  0  0  0  0  0  0  0  0
    6.6592    1.5427    0.0000 H   0  0  0  0  0  0  0  0  0  0  0  0
    8.0622    2.3527    0.0000 H   0  0  0  0  0  0  0  0  0  0  0  0
    9.8150   -0.9220    0.0000 H   0  0  0  0  0  0  0  0  0  0  0  0
    9.8150    2.3873    0.0000 H   0  0  0  0  0  0  0  0  0  0  0  0
   11.2639   -0.1002    0.0000 H   0  0  0  0  0  0  0  0  0  0  0  0
   11.2639    1.5656    0.0000 H   0  0  0  0  0  0  0  0  0  0  0  0
  1 11  2  0  0  0  0
  2  5  1  0  0  0  0
  2 11  1  0  0  0  0
  2 34  1  0  0  0  0
  3 12  2  0  0  0  0
  3 14  1  0  0  0  0
  4  6  1  0  0  0  0
  4  7  1  0  0  0  0
  4 10  1  0  0  0  0
  4 21  1  0  0  0  0
  5  8  1  0  0  0  0
  5  9  1  0  0  0  0
  5 22  1  0  0  0  0
  6  8  1  0  0  0  0
  6 23  1  0  0  0  0
  6 24  1  0  0  0  0
  7  9  1  0  0  0  0
  7 25  1  0  0  0  0
  7 26  1  0  0  0  0
  8 27  1  0  0  0  0
  8 28  1  0  0  0  0
  9 29  1  0  0  0  0
  9 30  1  0  0  0  0
 10 31  1  0  0  0  0
 10 32  1  0  0  0  0
 10 33  1  0  0  0  0
 11 12  1  0  0  0  0
 12 13  1  0  0  0  0
 13 16  2  0  0  0  0
 13 35  1  0  0  0  0
 14 15  1  0  0  0  0
 14 17  2  0  0  0  0
 15 16  1  0  0  0  0
 15 18  2  0  0  0  0
 16 36  1  0  0  0  0
 17 19  1  0  0  0  0
 17 37  1  0  0  0  0
 18 20  1  0  0  0  0
 18 38  1  0  0  0  0
 19 20  2  0  0  0  0
 19 39  1  0  0  0  0
 20 40  1  0  0  0  0
M  END
> <PUBCHEM_COMPOUND_CID>
17396080

> <PUBCHEM_COMPOUND_CANONICALIZED>
1

> <PUBCHEM_CACTVS_COMPLEXITY>
336

> <PUBCHEM_CACTVS_HBOND_ACCEPTOR>
2

> <PUBCHEM_CACTVS_HBOND_DONOR>
1

> <PUBCHEM_CACTVS_ROTATABLE_BOND>
2

> <PUBCHEM_CACTVS_SUBSKEYS>
AAADceB7IAAAAAAAAAAAAAAAAAAAAAAAAAA8YIAAAAAAAACx8AAAHgAQAAAADSjBngQywPLIEACoAyVyVACCgCAnAiAImKG4ZNgIYPLAlbGUIQhglgDIyYcYiICOAAAAAAACAAAQAAAAAAQAAAAAAAAAAA==

> <PUBCHEM_IUPAC_OPENEYE_NAME>
N-(4-methylcyclohexyl)quinoline-2-carboxamide

> <PUBCHEM_IUPAC_CAS_NAME>
N-(4-methylcyclohexyl)-2-quinolinecarboxamide

> <PUBCHEM_IUPAC_NAME>
N-(4-methylcyclohexyl)quinoline-2-carboxamide

> <PUBCHEM_IUPAC_SYSTEMATIC_NAME>
N-(4-methylcyclohexyl)quinoline-2-carboxamide

> <PUBCHEM_IUPAC_TRADITIONAL_NAME>
N-(4-methylcyclohexyl)quinaldamide

> <PUBCHEM_IUPAC_INCHI>
InChI=1S/C17H20N2O/c1-12-6-9-14(10-7-12)18-17(20)16-11-8-13-4-2-3-5-15(13)19-16/h2-5,8,11-12,14H,6-7,9-10H2,1H3,(H,18,20)

> <PUBCHEM_IUPAC_INCHIKEY>
VJJGQRHHAHIHQU-UHFFFAOYSA-N

> <PUBCHEM_XLOGP3_AA>
3.9

> <PUBCHEM_EXACT_MASS>
268.157563

> <PUBCHEM_MOLECULAR_FORMULA>
C17H20N2O

> <PUBCHEM_MOLECULAR_WEIGHT>
268.3535

> <PUBCHEM_OPENEYE_CAN_SMILES>
CC1CCC(CC1)NC(=O)C2=NC3=CC=CC=C3C=C2

> <PUBCHEM_OPENEYE_ISO_SMILES>
CC1CCC(CC1)NC(=O)C2=NC3=CC=CC=C3C=C2

> <PUBCHEM_CACTVS_TPSA>
42

> <PUBCHEM_MONOISOTOPIC_WEIGHT>
268.157563

> <PUBCHEM_TOTAL_CHARGE>
0

> <PUBCHEM_HEAVY_ATOM_COUNT>
20

> <PUBCHEM_ATOM_DEF_STEREO_COUNT>
0

> <PUBCHEM_ATOM_UDEF_STEREO_COUNT>
0

> <PUBCHEM_BOND_DEF_STEREO_COUNT>
0

> <PUBCHEM_BOND_UDEF_STEREO_COUNT>
0

> <PUBCHEM_ISOTOPIC_ATOM_COUNT>
0

> <PUBCHEM_COMPONENT_COUNT>
1

> <PUBCHEM_CACTVS_TAUTO_COUNT>
2

> <PUBCHEM_COORDINATE_TYPE>
1
5
255

> <PUBCHEM_BONDANNOTATIONS>
12  13  8
13  16  8
14  15  8
14  17  8
15  16  8
15  18  8
17  19  8
18  20  8
19  20  8
3  12  8
3  14  8

$$$$

