6372
  -OEChem-06261201162D

  5  4  0     0  0  0  0  0  0999 V2000
    3.7320    0.7500    0.0000 Cl  0  0  0  0  0  0  0  0  0  0  0  0
    2.0000    0.7500    0.0000 F   0  0  0  0  0  0  0  0  0  0  0  0
    2.8660   -0.7500    0.0000 F   0  0  0  0  0  0  0  0  0  0  0  0
    2.8660    0.2500    0.0000 C   0  0  0  0  0  0  0  0  0  0  0  0
    2.8660    0.8700    0.0000 H   0  0  0  0  0  0  0  0  0  0  0  0
  1  4  1  0  0  0  0
  2  4  1  0  0  0  0
  3  4  1  0  0  0  0
  4  5  1  0  0  0  0
M  END
> <PUBCHEM_COMPOUND_CID>
6372

> <PUBCHEM_COMPOUND_CANONICALIZED>
1

> <PUBCHEM_CACTVS_COMPLEXITY>
13.5

> <PUBCHEM_CACTVS_HBOND_ACCEPTOR>
2

> <PUBCHEM_CACTVS_HBOND_DONOR>
0

> <PUBCHEM_CACTVS_ROTATABLE_BOND>
0

> <PUBCHEM_CACTVS_SUBSKEYS>
AAADcQAAAYAEAAAAAAAAAAAAAAAAAAAAAAAAAAAAAAAAAAAAAAAAEQIAAAAAAAAAAFAAAAAAAAAAAAAAAAAAAAAAAAAAAAAAAAAAAAAAAAAAAAAAAAAAAAAAAAAAAAAAAAAAAAAAAAAAAAAAAAAAAAAAAA==

> <PUBCHEM_IUPAC_OPENEYE_NAME>
chloro(difluoro)methane

> <PUBCHEM_IUPAC_CAS_NAME>
chloro(difluoro)methane

> <PUBCHEM_IUPAC_NAME>
chloro(difluoro)methane

> <PUBCHEM_IUPAC_SYSTEMATIC_NAME>
chloranyl-bis(fluoranyl)methane

> <PUBCHEM_IUPAC_TRADITIONAL_NAME>
chloro(difluoro)methane

> <PUBCHEM_IUPAC_INCHI>
InChI=1S/CHClF2/c2-1(3)4/h1H

> <PUBCHEM_IUPAC_INCHIKEY>
VOPWNXZWBYDODV-UHFFFAOYSA-N

> <PUBCHEM_XLOGP3_AA>
1.8

> <PUBCHEM_EXACT_MASS>
85.973484

> <PUBCHEM_MOLECULAR_FORMULA>
CHClF2

> <PUBCHEM_MOLECULAR_WEIGHT>
86.468446

> <PUBCHEM_OPENEYE_CAN_SMILES>
C(F)(F)Cl

> <PUBCHEM_OPENEYE_ISO_SMILES>
C(F)(F)Cl

> <PUBCHEM_CACTVS_TPSA>
0

> <PUBCHEM_MONOISOTOPIC_WEIGHT>
85.973484

> <PUBCHEM_TOTAL_CHARGE>
0

> <PUBCHEM_HEAVY_ATOM_COUNT>
4

> <PUBCHEM_ATOM_DEF_STEREO_COUNT>
0

> <PUBCHEM_ATOM_UDEF_STEREO_COUNT>
0

> <PUBCHEM_BOND_DEF_STEREO_COUNT>
0

> <PUBCHEM_BOND_UDEF_STEREO_COUNT>
0

> <PUBCHEM_ISOTOPIC_ATOM_COUNT>
0

> <PUBCHEM_COMPONENT_COUNT>
1

> <PUBCHEM_CACTVS_TAUTO_COUNT>
1

> <PUBCHEM_COORDINATE_TYPE>
1
5
255

$$$$

