854074
  -OEChem-06241222472D

 36 37  0     1  0  0  0  0  0999 V2000
    3.5143    0.1245    0.0000 O   0  0  0  0  0  0  0  0  0  0  0  0
    6.9784    0.1245    0.0000 O   0  0  0  0  0  0  0  0  0  0  0  0
    4.4374    1.7123    0.0000 N   0  0  3  0  0  0  0  0  0  0  0  0
    2.0000    2.7415    0.0000 N   0  0  0  0  0  0  0  0  0  0  0  0
    5.2464   -1.8755    0.0000 C   0  0  0  0  0  0  0  0  0  0  0  0
    6.1124   -1.3755    0.0000 C   0  0  0  0  0  0  0  0  0  0  0  0
    4.3803   -1.3755    0.0000 C   0  0  0  0  0  0  0  0  0  0  0  0
    5.2464    1.1245    0.0000 C   0  0  0  0  0  0  0  0  0  0  0  0
    5.2464    0.1245    0.0000 C   0  0  0  0  0  0  0  0  0  0  0  0
    6.0554    1.7123    0.0000 C   0  0  0  0  0  0  0  0  0  0  0  0
    5.7464    2.6633    0.0000 C   0  0  0  0  0  0  0  0  0  0  0  0
    4.7464    2.6633    0.0000 C   0  0  0  0  0  0  0  0  0  0  0  0
    4.3803   -0.3755    0.0000 C   0  0  0  0  0  0  0  0  0  0  0  0
    6.1124   -0.3755    0.0000 C   0  0  0  0  0  0  0  0  0  0  0  0
    4.7464   -2.7415    0.0000 C   0  0  0  0  0  0  0  0  0  0  0  0
    5.7464   -2.7415    0.0000 C   0  0  0  0  0  0  0  0  0  0  0  0
    3.4863    1.4033    0.0000 C   0  0  0  0  0  0  0  0  0  0  0  0
    2.7431    2.0724    0.0000 C   0  0  0  0  0  0  0  0  0  0  0  0
    6.3244   -1.9581    0.0000 H   0  0  0  0  0  0  0  0  0  0  0  0
    6.7230   -1.2678    0.0000 H   0  0  0  0  0  0  0  0  0  0  0  0
    3.7698   -1.2678    0.0000 H   0  0  0  0  0  0  0  0  0  0  0  0
    4.1683   -1.9581    0.0000 H   0  0  0  0  0  0  0  0  0  0  0  0
    6.3654    1.1753    0.0000 H   0  0  0  0  0  0  0  0  0  0  0  0
    6.6218    1.9645    0.0000 H   0  0  0  0  0  0  0  0  0  0  0  0
    6.3528    2.7922    0.0000 H   0  0  0  0  0  0  0  0  0  0  0  0
    5.6816    3.2799    0.0000 H   0  0  0  0  0  0  0  0  0  0  0  0
    4.8112    3.2799    0.0000 H   0  0  0  0  0  0  0  0  0  0  0  0
    4.1399    2.7922    0.0000 H   0  0  0  0  0  0  0  0  0  0  0  0
    5.2094   -3.0515    0.0000 H   0  0  0  0  0  0  0  0  0  0  0  0
    6.0564   -3.2785    0.0000 H   0  0  0  0  0  0  0  0  0  0  0  0
    6.2833   -2.4315    0.0000 H   0  0  0  0  0  0  0  0  0  0  0  0
    4.2094   -2.4315    0.0000 H   0  0  0  0  0  0  0  0  0  0  0  0
    4.4364   -3.2785    0.0000 H   0  0  0  0  0  0  0  0  0  0  0  0
    5.2833   -3.0515    0.0000 H   0  0  0  0  0  0  0  0  0  0  0  0
    2.9977    1.0216    0.0000 H   0  0  0  0  0  0  0  0  0  0  0  0
    3.7774    0.8558    0.0000 H   0  0  0  0  0  0  0  0  0  0  0  0
  1 13  2  0  0  0  0
  2 14  2  0  0  0  0
  3  8  1  0  0  0  0
  3 12  1  0  0  0  0
  3 17  1  0  0  0  0
  4 18  3  0  0  0  0
  5  6  1  0  0  0  0
  5  7  1  0  0  0  0
  5 15  1  0  0  0  0
  5 16  1  0  0  0  0
  6 14  1  0  0  0  0
  6 19  1  0  0  0  0
  6 20  1  0  0  0  0
  7 13  1  0  0  0  0
  7 21  1  0  0  0  0
  7 22  1  0  0  0  0
  8  9  2  0  0  0  0
  8 10  1  0  0  0  0
  9 13  1  0  0  0  0
  9 14  1  0  0  0  0
 10 11  1  0  0  0  0
 10 23  1  0  0  0  0
 10 24  1  0  0  0  0
 11 12  1  0  0  0  0
 11 25  1  0  0  0  0
 11 26  1  0  0  0  0
 12 27  1  0  0  0  0
 12 28  1  0  0  0  0
 15 32  1  0  0  0  0
 15 33  1  0  0  0  0
 15 34  1  0  0  0  0
 16 29  1  0  0  0  0
 16 30  1  0  0  0  0
 16 31  1  0  0  0  0
 17 18  1  0  0  0  0
 17 35  1  0  0  0  0
 17 36  1  0  0  0  0
M  END
> <PUBCHEM_COMPOUND_CID>
854074

> <PUBCHEM_COMPOUND_CANONICALIZED>
1

> <PUBCHEM_CACTVS_COMPLEXITY>
457

> <PUBCHEM_CACTVS_HBOND_ACCEPTOR>
4

> <PUBCHEM_CACTVS_HBOND_DONOR>
0

> <PUBCHEM_CACTVS_ROTATABLE_BOND>
1

> <PUBCHEM_CACTVS_SUBSKEYS>
AAADceBzMAAAAAAAAAAAAAAAAAAAAWAAAAAwAAAAAAAAAAAAAAAAHgAAAAAADgzBgAQCAAMAAACYBoRQQAAAAAAgAAAACAEIAEgAABIIgAAEAAAAgACIAUMIikAvAAAAAAAAAAAAAAAAAAAAAAAAAAAAAA==

> <PUBCHEM_IUPAC_OPENEYE_NAME>
2-[2-(4,4-dimethyl-2,6-dioxo-cyclohexylidene)pyrrolidin-1-yl]acetonitrile

> <PUBCHEM_IUPAC_CAS_NAME>
2-[2-(4,4-dimethyl-2,6-dioxocyclohexylidene)-1-pyrrolidinyl]acetonitrile

> <PUBCHEM_IUPAC_NAME>
2-[2-(4,4-dimethyl-2,6-dioxocyclohexylidene)pyrrolidin-1-yl]acetonitrile

> <PUBCHEM_IUPAC_SYSTEMATIC_NAME>
2-[2-[4,4-dimethyl-2,6-bis(oxidanylidene)cyclohexylidene]pyrrolidin-1-yl]ethanenitrile

> <PUBCHEM_IUPAC_TRADITIONAL_NAME>
2-[2-(2,6-diketo-4,4-dimethyl-cyclohexylidene)pyrrolidino]acetonitrile

> <PUBCHEM_IUPAC_INCHI>
InChI=1S/C14H18N2O2/c1-14(2)8-11(17)13(12(18)9-14)10-4-3-6-16(10)7-5-15/h3-4,6-9H2,1-2H3

> <PUBCHEM_IUPAC_INCHIKEY>
FLIKQHKCCXVNCF-UHFFFAOYSA-N

> <PUBCHEM_XLOGP3_AA>
1.4

> <PUBCHEM_EXACT_MASS>
246.136828

> <PUBCHEM_MOLECULAR_FORMULA>
C14H18N2O2

> <PUBCHEM_MOLECULAR_WEIGHT>
246.30492

> <PUBCHEM_OPENEYE_CAN_SMILES>
CC1(CC(=O)C(=C2CCCN2CC#N)C(=O)C1)C

> <PUBCHEM_OPENEYE_ISO_SMILES>
CC1(CC(=O)C(=C2CCCN2CC#N)C(=O)C1)C

> <PUBCHEM_CACTVS_TPSA>
61.2

> <PUBCHEM_MONOISOTOPIC_WEIGHT>
246.136828

> <PUBCHEM_TOTAL_CHARGE>
0

> <PUBCHEM_HEAVY_ATOM_COUNT>
18

> <PUBCHEM_ATOM_DEF_STEREO_COUNT>
0

> <PUBCHEM_ATOM_UDEF_STEREO_COUNT>
0

> <PUBCHEM_BOND_DEF_STEREO_COUNT>
0

> <PUBCHEM_BOND_UDEF_STEREO_COUNT>
0

> <PUBCHEM_ISOTOPIC_ATOM_COUNT>
0

> <PUBCHEM_COMPONENT_COUNT>
1

> <PUBCHEM_CACTVS_TAUTO_COUNT>
8

> <PUBCHEM_COORDINATE_TYPE>
1
5
255

$$$$

