13093
  -OEChem-06261207452D

 32 34  0     1  0  0  0  0  0999 V2000
    4.2690   -3.2375    0.0000 S   0  0  0  0  0  0  0  0  0  0  0  0
    7.3435    0.8252    0.0000 O   0  0  0  0  0  0  0  0  0  0  0  0
    6.0873    3.0874    0.0000 O   0  0  0  0  0  0  0  0  0  0  0  0
    9.0681    2.0032    0.0000 O   0  0  0  0  0  0  0  0  0  0  0  0
    6.0812   -0.4327    0.0000 N   0  0  0  0  0  0  0  0  0  0  0  0
    6.0812   -2.0422    0.0000 N   0  0  0  0  0  0  0  0  0  0  0  0
    4.2690   -0.2375    0.0000 N   0  0  0  0  0  0  0  0  0  0  0  0
    3.4030   -1.7375    0.0000 N   0  0  0  0  0  0  0  0  0  0  0  0
    2.5369   -0.2375    0.0000 N   0  0  0  0  0  0  0  0  0  0  0  0
    6.3919    0.5178    0.0000 C   0  0  1  0  0  0  0  0  0  0  0  0
    6.3947    2.1358    0.0000 C   0  0  3  0  0  0  0  0  0  0  0  0
    5.8055    1.3278    0.0000 C   0  0  0  0  0  0  0  0  0  0  0  0
    7.3452    1.8252    0.0000 C   0  0  1  0  0  0  0  0  0  0  0  0
    8.1552    2.4116    0.0000 C   0  0  0  0  0  0  0  0  0  0  0  0
    5.1350   -0.7375    0.0000 C   0  0  0  0  0  0  0  0  0  0  0  0
    6.6648   -1.2375    0.0000 C   0  0  0  0  0  0  0  0  0  0  0  0
    5.1350   -1.7375    0.0000 C   0  0  0  0  0  0  0  0  0  0  0  0
    4.2690   -2.2375    0.0000 C   0  0  0  0  0  0  0  0  0  0  0  0
    3.4030   -0.7375    0.0000 C   0  0  0  0  0  0  0  0  0  0  0  0
    5.7794    0.4219    0.0000 H   0  0  0  0  0  0  0  0  0  0  0  0
    5.7825    2.2339    0.0000 H   0  0  0  0  0  0  0  0  0  0  0  0
    5.3455    1.7435    0.0000 H   0  0  0  0  0  0  0  0  0  0  0  0
    5.3440    0.9138    0.0000 H   0  0  0  0  0  0  0  0  0  0  0  0
    7.8972    1.5427    0.0000 H   0  0  0  0  0  0  0  0  0  0  0  0
    8.5028    2.9250    0.0000 H   0  0  0  0  0  0  0  0  0  0  0  0
    7.7100    2.8430    0.0000 H   0  0  0  0  0  0  0  0  0  0  0  0
    7.2848   -1.2375    0.0000 H   0  0  0  0  0  0  0  0  0  0  0  0
    6.5030    3.5475    0.0000 H   0  0  0  0  0  0  0  0  0  0  0  0
    9.5703    2.3668    0.0000 H   0  0  0  0  0  0  0  0  0  0  0  0
    3.7321   -3.5475    0.0000 H   0  0  0  0  0  0  0  0  0  0  0  0
    2.0000   -0.5475    0.0000 H   0  0  0  0  0  0  0  0  0  0  0  0
    2.5369    0.3825    0.0000 H   0  0  0  0  0  0  0  0  0  0  0  0
  1 18  1  0  0  0  0
  1 30  1  0  0  0  0
  2 10  1  0  0  0  0
  2 13  1  0  0  0  0
  3 11  1  0  0  0  0
  3 28  1  0  0  0  0
  4 14  1  0  0  0  0
  4 29  1  0  0  0  0
  5 10  1  0  0  0  0
  5 15  1  0  0  0  0
  5 16  1  0  0  0  0
  6 16  2  0  0  0  0
  6 17  1  0  0  0  0
  7 15  1  0  0  0  0
  7 19  2  0  0  0  0
  8 18  2  0  0  0  0
  8 19  1  0  0  0  0
  9 19  1  0  0  0  0
  9 31  1  0  0  0  0
  9 32  1  0  0  0  0
 10 12  1  0  0  0  0
 10 20  1  0  0  0  0
 11 12  1  0  0  0  0
 11 13  1  0  0  0  0
 11 21  1  0  0  0  0
 12 22  1  0  0  0  0
 12 23  1  0  0  0  0
 13 14  1  0  0  0  0
 13 24  1  0  0  0  0
 14 25  1  0  0  0  0
 14 26  1  0  0  0  0
 15 17  2  0  0  0  0
 16 27  1  0  0  0  0
 17 18  1  0  0  0  0
M  END
> <PUBCHEM_COMPOUND_CID>
13093

> <PUBCHEM_COMPOUND_CANONICALIZED>
1

> <PUBCHEM_CACTVS_COMPLEXITY>
338

> <PUBCHEM_CACTVS_HBOND_ACCEPTOR>
8

> <PUBCHEM_CACTVS_HBOND_DONOR>
4

> <PUBCHEM_CACTVS_ROTATABLE_BOND>
2

> <PUBCHEM_CACTVS_SUBSKEYS>
AAADccBzsABAAAAAAAAAAAAAAAAAAWJAAAAsAAAAAAAAAFgB+AAAHgQQCAAACBzh1wYF8b9MFgSgAQZhZAGA0C0REKABUDQoVBCBWAJAyEAeRAwPAALDACCwMAIAAAAAAAAAAAAAAAAAAAAAAAAAAAAAAA==

> <PUBCHEM_IUPAC_OPENEYE_NAME>
(2R,5R)-5-(2-amino-6-sulfanyl-purin-9-yl)-2-(hydroxymethyl)tetrahydrofuran-3-ol

> <PUBCHEM_IUPAC_CAS_NAME>
(2R,5R)-5-(2-amino-6-mercapto-9-purinyl)-2-(hydroxymethyl)-3-oxolanol

> <PUBCHEM_IUPAC_NAME>
(2R,5R)-5-(2-amino-6-sulfanylpurin-9-yl)-2-(hydroxymethyl)oxolan-3-ol

> <PUBCHEM_IUPAC_SYSTEMATIC_NAME>
(2R,5R)-5-(2-azanyl-6-sulfanyl-purin-9-yl)-2-(hydroxymethyl)oxolan-3-ol

> <PUBCHEM_IUPAC_TRADITIONAL_NAME>
(2R,5R)-5-(2-amino-6-mercapto-purin-9-yl)-2-methylol-tetrahydrofuran-3-ol

> <PUBCHEM_IUPAC_INCHI>
InChI=1S/C10H13N5O3S/c11-10-13-8-7(9(19)14-10)12-3-15(8)6-1-4(17)5(2-16)18-6/h3-6,16-17H,1-2H2,(H3,11,13,14,19)/t4?,5-,6-/m1/s1

> <PUBCHEM_IUPAC_INCHIKEY>
SCVJRXQHFJXZFZ-YSLANXFLSA-N

> <PUBCHEM_XLOGP3>
0.3

> <PUBCHEM_EXACT_MASS>
283.07391

> <PUBCHEM_MOLECULAR_FORMULA>
C10H13N5O3S

> <PUBCHEM_MOLECULAR_WEIGHT>
283.30692

> <PUBCHEM_OPENEYE_CAN_SMILES>
C1C(C(OC1N2C=NC3=C2N=C(N=C3S)N)CO)O

> <PUBCHEM_OPENEYE_ISO_SMILES>
C1[C@@H](O[C@@H](C1O)CO)N2C=NC3=C2N=C(N=C3S)N

> <PUBCHEM_CACTVS_TPSA>
120

> <PUBCHEM_MONOISOTOPIC_WEIGHT>
283.07391

> <PUBCHEM_TOTAL_CHARGE>
0

> <PUBCHEM_HEAVY_ATOM_COUNT>
19

> <PUBCHEM_ATOM_DEF_STEREO_COUNT>
2

> <PUBCHEM_ATOM_UDEF_STEREO_COUNT>
1

> <PUBCHEM_BOND_DEF_STEREO_COUNT>
0

> <PUBCHEM_BOND_UDEF_STEREO_COUNT>
0

> <PUBCHEM_ISOTOPIC_ATOM_COUNT>
0

> <PUBCHEM_COMPONENT_COUNT>
1

> <PUBCHEM_CACTVS_TAUTO_COUNT>
6

> <PUBCHEM_COORDINATE_TYPE>
1
5
255

> <PUBCHEM_BONDANNOTATIONS>
13  14  3
15  17  8
17  18  8
11  3  3
10  5  3
5  15  8
5  16  8
6  16  8
6  17  8
7  15  8
7  19  8
8  18  8
8  19  8

$$$$

