11024
  -OEChem-06261205142D

 81 77  0     0  0  0  0  0  0999 V2000
    4.0010    7.1720    0.0000 O   0  0  0  0  0  0  0  0  0  0  0  0
   10.5390    1.9030    0.0000 O   0  0  0  0  0  0  0  0  0  0  0  0
   10.5390    6.7089    0.0000 O   0  0  0  0  0  0  0  0  0  0  0  0
    9.4409   10.7458    0.0000 O   0  0  0  0  0  0  0  0  0  0  0  0
   10.6730   11.6118    0.0000 O   0  5  0  0  0  0  0  0  0  0  0  0
    9.8070   13.1118    0.0000 O   0  0  0  0  0  0  0  0  0  0  0  0
    7.2089    9.6118    0.0000 O   0  5  0  0  0  0  0  0  0  0  0  0
    6.9409   13.3439    0.0000 O   0  5  0  0  0  0  0  0  0  0  0  0
    8.9409    9.6118    0.0000 O   0  0  0  0  0  0  0  0  0  0  0  0
    6.9409   11.6118    0.0000 O   0  0  0  0  0  0  0  0  0  0  0  0
    1.4030    6.6720    0.0000 N   0  3  0  0  0  0  0  0  0  0  0  0
    7.9409    1.4030    0.0000 N   0  3  0  0  0  0  0  0  0  0  0  0
    7.9409    6.2089    0.0000 N   0  3  0  0  0  0  0  0  0  0  0  0
    2.2690    7.1720    0.0000 C   0  0  0  0  0  0  0  0  0  0  0  0
    8.8070    1.9030    0.0000 C   0  0  0  0  0  0  0  0  0  0  0  0
    8.8070    6.7089    0.0000 C   0  0  0  0  0  0  0  0  0  0  0  0
    0.5369    6.1720    0.0000 C   0  0  0  0  0  0  0  0  0  0  0  0
    0.9030    7.5380    0.0000 C   0  0  0  0  0  0  0  0  0  0  0  0
    1.9030    5.8059    0.0000 C   0  0  0  0  0  0  0  0  0  0  0  0
    7.0749    0.9030    0.0000 C   0  0  0  0  0  0  0  0  0  0  0  0
    7.4409    2.2690    0.0000 C   0  0  0  0  0  0  0  0  0  0  0  0
    8.4409    0.5369    0.0000 C   0  0  0  0  0  0  0  0  0  0  0  0
    7.0749    5.7089    0.0000 C   0  0  0  0  0  0  0  0  0  0  0  0
    7.4409    7.0749    0.0000 C   0  0  0  0  0  0  0  0  0  0  0  0
    8.4409    5.3429    0.0000 C   0  0  0  0  0  0  0  0  0  0  0  0
    3.1350    6.6720    0.0000 C   0  0  0  0  0  0  0  0  0  0  0  0
    9.6730    1.4030    0.0000 C   0  0  0  0  0  0  0  0  0  0  0  0
    9.6730    6.2089    0.0000 C   0  0  0  0  0  0  0  0  0  0  0  0
    8.9409   11.6118    0.0000 C   0  0  0  0  0  0  0  0  0  0  0  0
    8.0749   11.1118    0.0000 C   0  0  0  0  0  0  0  0  0  0  0  0
    8.4409   12.4779    0.0000 C   0  0  0  0  0  0  0  0  0  0  0  0
    9.8070   12.1118    0.0000 C   0  0  0  0  0  0  0  0  0  0  0  0
    8.0749   10.1118    0.0000 C   0  0  0  0  0  0  0  0  0  0  0  0
    7.4409   12.4779    0.0000 C   0  0  0  0  0  0  0  0  0  0  0  0
    9.2055    7.1838    0.0000 H   0  0  0  0  0  0  0  0  0  0  0  0
    8.4084    7.1838    0.0000 H   0  0  0  0  0  0  0  0  0  0  0  0
    9.2055    2.3779    0.0000 H   0  0  0  0  0  0  0  0  0  0  0  0
    8.4084    2.3779    0.0000 H   0  0  0  0  0  0  0  0  0  0  0  0
    2.6675    7.6469    0.0000 H   0  0  0  0  0  0  0  0  0  0  0  0
    1.8705    7.6469    0.0000 H   0  0  0  0  0  0  0  0  0  0  0  0
    0.2269    6.7089    0.0000 H   0  0  0  0  0  0  0  0  0  0  0  0
    0.0000    5.8620    0.0000 H   0  0  0  0  0  0  0  0  0  0  0  0
    0.8469    5.6350    0.0000 H   0  0  0  0  0  0  0  0  0  0  0  0
    1.4399    7.8480    0.0000 H   0  0  0  0  0  0  0  0  0  0  0  0
    0.5930    8.0749    0.0000 H   0  0  0  0  0  0  0  0  0  0  0  0
    0.3660    7.2280    0.0000 H   0  0  0  0  0  0  0  0  0  0  0  0
    1.3660    5.4959    0.0000 H   0  0  0  0  0  0  0  0  0  0  0  0
    2.2130    5.2690    0.0000 H   0  0  0  0  0  0  0  0  0  0  0  0
    7.9040    5.0329    0.0000 H   0  0  0  0  0  0  0  0  0  0  0  0
    8.7509    4.8059    0.0000 H   0  0  0  0  0  0  0  0  0  0  0  0
    8.9779    5.6529    0.0000 H   0  0  0  0  0  0  0  0  0  0  0  0
    7.9779    7.3849    0.0000 H   0  0  0  0  0  0  0  0  0  0  0  0
    7.1309    7.6118    0.0000 H   0  0  0  0  0  0  0  0  0  0  0  0
    6.9040    6.7649    0.0000 H   0  0  0  0  0  0  0  0  0  0  0  0
    6.7649    6.2458    0.0000 H   0  0  0  0  0  0  0  0  0  0  0  0
    6.5380    5.3989    0.0000 H   0  0  0  0  0  0  0  0  0  0  0  0
    7.3849    5.1720    0.0000 H   0  0  0  0  0  0  0  0  0  0  0  0
    7.9040    0.2269    0.0000 H   0  0  0  0  0  0  0  0  0  0  0  0
    8.7509    0.0000    0.0000 H   0  0  0  0  0  0  0  0  0  0  0  0
    8.9779    0.8469    0.0000 H   0  0  0  0  0  0  0  0  0  0  0  0
    7.9779    2.5790    0.0000 H   0  0  0  0  0  0  0  0  0  0  0  0
    7.1309    2.8059    0.0000 H   0  0  0  0  0  0  0  0  0  0  0  0
    6.9040    1.9590    0.0000 H   0  0  0  0  0  0  0  0  0  0  0  0
    6.7649    1.4399    0.0000 H   0  0  0  0  0  0  0  0  0  0  0  0
    6.5380    0.5930    0.0000 H   0  0  0  0  0  0  0  0  0  0  0  0
    7.3849    0.3660    0.0000 H   0  0  0  0  0  0  0  0  0  0  0  0
    2.4399    6.1159    0.0000 H   0  0  0  0  0  0  0  0  0  0  0  0
    2.7365    6.1970    0.0000 H   0  0  0  0  0  0  0  0  0  0  0  0
    3.5335    6.1970    0.0000 H   0  0  0  0  0  0  0  0  0  0  0  0
    9.2745    0.9280    0.0000 H   0  0  0  0  0  0  0  0  0  0  0  0
   10.0715    0.9280    0.0000 H   0  0  0  0  0  0  0  0  0  0  0  0
    9.2745    5.7339    0.0000 H   0  0  0  0  0  0  0  0  0  0  0  0
   10.0715    5.7339    0.0000 H   0  0  0  0  0  0  0  0  0  0  0  0
    4.5380    6.8620    0.0000 H   0  0  0  0  0  0  0  0  0  0  0  0
   11.0759    1.5930    0.0000 H   0  0  0  0  0  0  0  0  0  0  0  0
   11.0759    6.3989    0.0000 H   0  0  0  0  0  0  0  0  0  0  0  0
    9.0235   12.6899    0.0000 H   0  0  0  0  0  0  0  0  0  0  0  0
    8.3333   13.0885    0.0000 H   0  0  0  0  0  0  0  0  0  0  0  0
    7.8629   11.6945    0.0000 H   0  0  0  0  0  0  0  0  0  0  0  0
    7.4643   11.0042    0.0000 H   0  0  0  0  0  0  0  0  0  0  0  0
    9.1309   10.2089    0.0000 H   0  0  0  0  0  0  0  0  0  0  0  0
  1 26  1  0  0  0  0
  1 74  1  0  0  0  0
  2 27  1  0  0  0  0
  2 75  1  0  0  0  0
  3 28  1  0  0  0  0
  3 76  1  0  0  0  0
  4 29  1  0  0  0  0
  4 81  1  0  0  0  0
  5 32  1  0  0  0  0
  6 32  2  0  0  0  0
  7 33  1  0  0  0  0
  8 34  1  0  0  0  0
  9 33  2  0  0  0  0
 10 34  2  0  0  0  0
 11 14  1  0  0  0  0
 11 17  1  0  0  0  0
 11 18  1  0  0  0  0
 11 19  1  0  0  0  0
 12 15  1  0  0  0  0
 12 20  1  0  0  0  0
 12 21  1  0  0  0  0
 12 22  1  0  0  0  0
 13 16  1  0  0  0  0
 13 23  1  0  0  0  0
 13 24  1  0  0  0  0
 13 25  1  0  0  0  0
 14 26  1  0  0  0  0
 14 39  1  0  0  0  0
 14 40  1  0  0  0  0
 15 27  1  0  0  0  0
 15 37  1  0  0  0  0
 15 38  1  0  0  0  0
 16 28  1  0  0  0  0
 16 35  1  0  0  0  0
 16 36  1  0  0  0  0
 17 41  1  0  0  0  0
 17 42  1  0  0  0  0
 17 43  1  0  0  0  0
 18 44  1  0  0  0  0
 18 45  1  0  0  0  0
 18 46  1  0  0  0  0
 19 47  1  0  0  0  0
 19 48  1  0  0  0  0
 19 67  1  0  0  0  0
 20 64  1  0  0  0  0
 20 65  1  0  0  0  0
 20 66  1  0  0  0  0
 21 61  1  0  0  0  0
 21 62  1  0  0  0  0
 21 63  1  0  0  0  0
 22 58  1  0  0  0  0
 22 59  1  0  0  0  0
 22 60  1  0  0  0  0
 23 55  1  0  0  0  0
 23 56  1  0  0  0  0
 23 57  1  0  0  0  0
 24 52  1  0  0  0  0
 24 53  1  0  0  0  0
 24 54  1  0  0  0  0
 25 49  1  0  0  0  0
 25 50  1  0  0  0  0
 25 51  1  0  0  0  0
 26 68  1  0  0  0  0
 26 69  1  0  0  0  0
 27 70  1  0  0  0  0
 27 71  1  0  0  0  0
 28 72  1  0  0  0  0
 28 73  1  0  0  0  0
 29 30  1  0  0  0  0
 29 31  1  0  0  0  0
 29 32  1  0  0  0  0
 30 33  1  0  0  0  0
 30 79  1  0  0  0  0
 30 80  1  0  0  0  0
 31 34  1  0  0  0  0
 31 77  1  0  0  0  0
 31 78  1  0  0  0  0
M  CHG  6   5  -1   7  -1   8  -1  11   1  12   1  13   1
M  END
> <PUBCHEM_COMPOUND_CID>
11024

> <PUBCHEM_COMPOUND_CANONICALIZED>
1

> <PUBCHEM_CACTVS_COMPLEXITY>
257

> <PUBCHEM_CACTVS_HBOND_ACCEPTOR>
10

> <PUBCHEM_CACTVS_HBOND_DONOR>
4

> <PUBCHEM_CACTVS_ROTATABLE_BOND>
8

> <PUBCHEM_CACTVS_SUBSKEYS>
AAADcfB7PAAAAAAAAAAAAAAAAAAAAAAAAAAAAAAAAAAAAAAAAAAAHgAACAAADEThgAYCCAMAAgAIAACQCAIAAAAAAAAAAAFIAAADEBYAAAAAQAAFIAARAADLJgAKAAAAAAAAAAAAAAAAAAAAAAAAAAAAAA==

> <PUBCHEM_IUPAC_OPENEYE_NAME>
2-hydroxyethyl(trimethyl)ammonium citrate

> <PUBCHEM_IUPAC_CAS_NAME>
2-hydroxyethyl(trimethyl)ammonium; 2-hydroxypropane-1,2,3-tricarboxylate

> <PUBCHEM_IUPAC_NAME>
2-hydroxyethyl(trimethyl)azanium; 2-hydroxypropane-1,2,3-tricarboxylate

> <PUBCHEM_IUPAC_SYSTEMATIC_NAME>
2-hydroxyethyl(trimethyl)azanium; 2-oxidanylpropane-1,2,3-tricarboxylate

> <PUBCHEM_IUPAC_TRADITIONAL_NAME>
2-hydroxyethyl(trimethyl)ammonium citrate

> <PUBCHEM_IUPAC_INCHI>
InChI=1S/C6H8O7.3C5H14NO/c7-3(8)1-6(13,5(11)12)2-4(9)10;3*1-6(2,3)4-5-7/h13H,1-2H2,(H,7,8)(H,9,10)(H,11,12);3*7H,4-5H2,1-3H3/q;3*+1/p-3

> <PUBCHEM_IUPAC_INCHIKEY>
RPERJPYDELTDMR-UHFFFAOYSA-K

> <PUBCHEM_EXACT_MASS>
501.326145

> <PUBCHEM_MOLECULAR_FORMULA>
C21H47N3O10

> <PUBCHEM_MOLECULAR_WEIGHT>
501.61198

> <PUBCHEM_OPENEYE_CAN_SMILES>
C[N+](C)(C)CCO.C[N+](C)(C)CCO.C[N+](C)(C)CCO.C(C(=O)[O-])C(CC(=O)[O-])(C(=O)[O-])O

> <PUBCHEM_OPENEYE_ISO_SMILES>
C[N+](C)(C)CCO.C[N+](C)(C)CCO.C[N+](C)(C)CCO.C(C(=O)[O-])C(CC(=O)[O-])(C(=O)[O-])O

> <PUBCHEM_CACTVS_TPSA>
201

> <PUBCHEM_MONOISOTOPIC_WEIGHT>
501.326145

> <PUBCHEM_TOTAL_CHARGE>
0

> <PUBCHEM_HEAVY_ATOM_COUNT>
34

> <PUBCHEM_ATOM_DEF_STEREO_COUNT>
0

> <PUBCHEM_ATOM_UDEF_STEREO_COUNT>
0

> <PUBCHEM_BOND_DEF_STEREO_COUNT>
0

> <PUBCHEM_BOND_UDEF_STEREO_COUNT>
0

> <PUBCHEM_ISOTOPIC_ATOM_COUNT>
0

> <PUBCHEM_COMPONENT_COUNT>
4

> <PUBCHEM_CACTVS_TAUTO_COUNT>
1

> <PUBCHEM_COORDINATE_TYPE>
1
5
255

$$$$

