5492
  -OEChem-06261200422D

 29 29  0     0  0  0  0  0  0999 V2000
    6.3301    2.2500    0.0000 F   0  0  0  0  0  0  0  0  0  0  0  0
    4.9641    2.6160    0.0000 F   0  0  0  0  0  0  0  0  0  0  0  0
    5.9641    0.8840    0.0000 F   0  0  0  0  0  0  0  0  0  0  0  0
    3.7320    1.7500    0.0000 O   0  0  0  0  0  0  0  0  0  0  0  0
    2.8660   -1.7500    0.0000 N   0  3  0  0  0  0  0  0  0  0  0  0
    3.7320   -1.2500    0.0000 C   0  0  0  0  0  0  0  0  0  0  0  0
    2.0000   -2.2500    0.0000 C   0  0  0  0  0  0  0  0  0  0  0  0
    3.3660   -2.6160    0.0000 C   0  0  0  0  0  0  0  0  0  0  0  0
    2.3660   -0.8840    0.0000 C   0  0  0  0  0  0  0  0  0  0  0  0
    3.7320   -0.2500    0.0000 C   0  0  0  0  0  0  0  0  0  0  0  0
    4.5981   -1.7500    0.0000 C   0  0  0  0  0  0  0  0  0  0  0  0
    4.5981    0.2500    0.0000 C   0  0  0  0  0  0  0  0  0  0  0  0
    5.4641   -1.2500    0.0000 C   0  0  0  0  0  0  0  0  0  0  0  0
    5.4641   -0.2500    0.0000 C   0  0  0  0  0  0  0  0  0  0  0  0
    4.5981    1.2500    0.0000 C   0  0  0  0  0  0  0  0  0  0  0  0
    5.4641    1.7500    0.0000 C   0  0  0  0  0  0  0  0  0  0  0  0
    1.6900   -1.7131    0.0000 H   0  0  0  0  0  0  0  0  0  0  0  0
    1.4631   -2.5600    0.0000 H   0  0  0  0  0  0  0  0  0  0  0  0
    2.3100   -2.7869    0.0000 H   0  0  0  0  0  0  0  0  0  0  0  0
    2.8291   -2.9260    0.0000 H   0  0  0  0  0  0  0  0  0  0  0  0
    3.6760   -3.1530    0.0000 H   0  0  0  0  0  0  0  0  0  0  0  0
    3.9030   -2.3060    0.0000 H   0  0  0  0  0  0  0  0  0  0  0  0
    2.9030   -0.5740    0.0000 H   0  0  0  0  0  0  0  0  0  0  0  0
    2.0560   -0.3470    0.0000 H   0  0  0  0  0  0  0  0  0  0  0  0
    1.8291   -1.1940    0.0000 H   0  0  0  0  0  0  0  0  0  0  0  0
    3.1951    0.0600    0.0000 H   0  0  0  0  0  0  0  0  0  0  0  0
    4.5981   -2.3700    0.0000 H   0  0  0  0  0  0  0  0  0  0  0  0
    6.0010   -1.5600    0.0000 H   0  0  0  0  0  0  0  0  0  0  0  0
    6.0010    0.0600    0.0000 H   0  0  0  0  0  0  0  0  0  0  0  0
  1 16  1  0  0  0  0
  2 16  1  0  0  0  0
  3 16  1  0  0  0  0
  4 15  2  0  0  0  0
  5  6  1  0  0  0  0
  5  7  1  0  0  0  0
  5  8  1  0  0  0  0
  5  9  1  0  0  0  0
  6 10  1  0  0  0  0
  6 11  2  0  0  0  0
  7 17  1  0  0  0  0
  7 18  1  0  0  0  0
  7 19  1  0  0  0  0
  8 20  1  0  0  0  0
  8 21  1  0  0  0  0
  8 22  1  0  0  0  0
  9 23  1  0  0  0  0
  9 24  1  0  0  0  0
  9 25  1  0  0  0  0
 10 12  2  0  0  0  0
 10 26  1  0  0  0  0
 11 13  1  0  0  0  0
 11 27  1  0  0  0  0
 12 14  1  0  0  0  0
 12 15  1  0  0  0  0
 13 14  2  0  0  0  0
 13 28  1  0  0  0  0
 14 29  1  0  0  0  0
 15 16  1  0  0  0  0
M  CHG  1   5   1
M  END
> <PUBCHEM_COMPOUND_CID>
5492

> <PUBCHEM_COMPOUND_CANONICALIZED>
1

> <PUBCHEM_CACTVS_COMPLEXITY>
267

> <PUBCHEM_CACTVS_HBOND_ACCEPTOR>
4

> <PUBCHEM_CACTVS_HBOND_DONOR>
0

> <PUBCHEM_CACTVS_ROTATABLE_BOND>
2

> <PUBCHEM_CACTVS_SUBSKEYS>
AAADccByIYAAAAAAAAAAAAAAAAAAAAAAAAAwAAAAAAAAAAABAAAAHwAAAAAADAyBmBQywIMAAACIAqRSQACCAAAlAgAIiAEIZMgIIDLAlZGEIQhggABIyYcciICOAAAAQAAAAAAAAACAAAAAAAAAAAAAAA==

> <PUBCHEM_IUPAC_OPENEYE_NAME>
trimethyl-[3-(2,2,2-trifluoroacetyl)phenyl]ammonium

> <PUBCHEM_IUPAC_CAS_NAME>
trimethyl-[3-(2,2,2-trifluoro-1-oxoethyl)phenyl]ammonium

> <PUBCHEM_IUPAC_NAME>
trimethyl-[3-(2,2,2-trifluoroacetyl)phenyl]azanium

> <PUBCHEM_IUPAC_SYSTEMATIC_NAME>
trimethyl-[3-[2,2,2-tris(fluoranyl)ethanoyl]phenyl]azanium

> <PUBCHEM_IUPAC_TRADITIONAL_NAME>
trimethyl-[3-(2,2,2-trifluoroacetyl)phenyl]ammonium

> <PUBCHEM_IUPAC_INCHI>
InChI=1S/C11H13F3NO/c1-15(2,3)9-6-4-5-8(7-9)10(16)11(12,13)14/h4-7H,1-3H3/q+1

> <PUBCHEM_IUPAC_INCHIKEY>
JIBZSTPMDKSJOX-UHFFFAOYSA-N

> <PUBCHEM_XLOGP3>
2.1

> <PUBCHEM_EXACT_MASS>
232.094924

> <PUBCHEM_MOLECULAR_FORMULA>
C11H13F3NO+

> <PUBCHEM_MOLECULAR_WEIGHT>
232.22223

> <PUBCHEM_OPENEYE_CAN_SMILES>
C[N+](C)(C)C1=CC=CC(=C1)C(=O)C(F)(F)F

> <PUBCHEM_OPENEYE_ISO_SMILES>
C[N+](C)(C)C1=CC=CC(=C1)C(=O)C(F)(F)F

> <PUBCHEM_CACTVS_TPSA>
17.1

> <PUBCHEM_MONOISOTOPIC_WEIGHT>
232.094924

> <PUBCHEM_TOTAL_CHARGE>
1

> <PUBCHEM_HEAVY_ATOM_COUNT>
16

> <PUBCHEM_ATOM_DEF_STEREO_COUNT>
0

> <PUBCHEM_ATOM_UDEF_STEREO_COUNT>
0

> <PUBCHEM_BOND_DEF_STEREO_COUNT>
0

> <PUBCHEM_BOND_UDEF_STEREO_COUNT>
0

> <PUBCHEM_ISOTOPIC_ATOM_COUNT>
0

> <PUBCHEM_COMPONENT_COUNT>
1

> <PUBCHEM_CACTVS_TAUTO_COUNT>
1

> <PUBCHEM_COORDINATE_TYPE>
1
5
255

> <PUBCHEM_BONDANNOTATIONS>
10  12  8
11  13  8
12  14  8
13  14  8
6  10  8
6  11  8

$$$$

