8957
  -OEChem-06261203162D

 63 65  0     1  0  0  0  0  0999 V2000
   10.2068    7.3491    0.0000 Na  0  3  0  0  0  0  0  0  0  0  0  0
    4.5271    5.0741    0.0000 O   0  0  0  0  0  0  0  0  0  0  0  0
    5.4149    0.5427    0.0000 O   0  0  0  0  0  0  0  0  0  0  0  0
    0.0000    0.5218    0.0000 O   0  0  0  0  0  0  0  0  0  0  0  0
    9.2283    7.1429    0.0000 O   0  5  0  0  0  0  0  0  0  0  0  0
    9.5855    5.4481    0.0000 O   0  0  0  0  0  0  0  0  0  0  0  0
    5.3931    2.5741    0.0000 C   0  0  3  0  0  0  0  0  0  0  0  0
    5.3931    3.5741    0.0000 C   0  0  3  0  0  0  0  0  0  0  0  0
    4.5271    2.0741    0.0000 C   0  0  3  0  0  0  0  0  0  0  0  0
    3.6610    2.5741    0.0000 C   0  0  3  0  0  0  0  0  0  0  0  0
    2.7510    2.0673    0.0000 C   0  0  3  0  0  0  0  0  0  0  0  0
    6.3393    3.8789    0.0000 C   0  0  3  0  0  0  0  0  0  0  0  0
    6.3393    2.2694    0.0000 C   0  0  0  0  0  0  0  0  0  0  0  0
    2.7430    1.0257    0.0000 C   0  0  3  0  0  0  0  0  0  0  0  0
    3.6610    3.5741    0.0000 C   0  0  0  0  0  0  0  0  0  0  0  0
    6.9229    3.0741    0.0000 C   0  0  0  0  0  0  0  0  0  0  0  0
    4.5271    4.0741    0.0000 C   0  0  0  0  0  0  0  0  0  0  0  0
    4.5431    1.0326    0.0000 C   0  0  0  0  0  0  0  0  0  0  0  0
    3.6451    0.5049    0.0000 C   0  0  0  0  0  0  0  0  0  0  0  0
    1.8242    2.6314    0.0000 C   0  0  0  0  0  0  0  0  0  0  0  0
    6.6500    4.8294    0.0000 C   0  0  3  0  0  0  0  0  0  0  0  0
    5.3931    4.5741    0.0000 C   0  0  0  0  0  0  0  0  0  0  0  0
    2.7587    3.0673    0.0000 C   0  0  0  0  0  0  0  0  0  0  0  0
    1.8076    0.4760    0.0000 C   0  0  0  0  0  0  0  0  0  0  0  0
    0.8763    2.1034    0.0000 C   0  0  0  0  0  0  0  0  0  0  0  0
    0.8679    1.0185    0.0000 C   0  0  0  0  0  0  0  0  0  0  0  0
    7.6285    5.0356    0.0000 C   0  0  0  0  0  0  0  0  0  0  0  0
    5.9821    5.5737    0.0000 C   0  0  0  0  0  0  0  0  0  0  0  0
    7.9391    5.9861    0.0000 C   0  0  0  0  0  0  0  0  0  0  0  0
    8.9176    6.1924    0.0000 C   0  0  0  0  0  0  0  0  0  0  0  0
    5.4587    1.9576    0.0000 H   0  0  0  0  0  0  0  0  0  0  0  0
    5.0664    1.7683    0.0000 H   0  0  0  0  0  0  0  0  0  0  0  0
    4.1980    2.8841    0.0000 H   0  0  0  0  0  0  0  0  0  0  0  0
    6.9518    3.9751    0.0000 H   0  0  0  0  0  0  0  0  0  0  0  0
    6.0883    1.7025    0.0000 H   0  0  0  0  0  0  0  0  0  0  0  0
    6.8767    1.9602    0.0000 H   0  0  0  0  0  0  0  0  0  0  0  0
    2.7454    0.4057    0.0000 H   0  0  0  0  0  0  0  0  0  0  0  0
    3.4490    4.1568    0.0000 H   0  0  0  0  0  0  0  0  0  0  0  0
    3.0505    3.4665    0.0000 H   0  0  0  0  0  0  0  0  0  0  0  0
    7.3838    2.6594    0.0000 H   0  0  0  0  0  0  0  0  0  0  0  0
    7.3838    3.4889    0.0000 H   0  0  0  0  0  0  0  0  0  0  0  0
    3.2478    0.0289    0.0000 H   0  0  0  0  0  0  0  0  0  0  0  0
    4.0460    0.0320    0.0000 H   0  0  0  0  0  0  0  0  0  0  0  0
    2.2324    3.0980    0.0000 H   0  0  0  0  0  0  0  0  0  0  0  0
    1.4343    3.1134    0.0000 H   0  0  0  0  0  0  0  0  0  0  0  0
    6.0433    4.7015    0.0000 H   0  0  0  0  0  0  0  0  0  0  0  0
    6.0131    4.5741    0.0000 H   0  0  0  0  0  0  0  0  0  0  0  0
    5.3931    5.1941    0.0000 H   0  0  0  0  0  0  0  0  0  0  0  0
    4.7731    4.5741    0.0000 H   0  0  0  0  0  0  0  0  0  0  0  0
    3.3787    3.0625    0.0000 H   0  0  0  0  0  0  0  0  0  0  0  0
    2.7635    3.6873    0.0000 H   0  0  0  0  0  0  0  0  0  0  0  0
    2.1388    3.0720    0.0000 H   0  0  0  0  0  0  0  0  0  0  0  0
    1.4103    0.0000    0.0000 H   0  0  0  0  0  0  0  0  0  0  0  0
    2.2085    0.0031    0.0000 H   0  0  0  0  0  0  0  0  0  0  0  0
    0.6718    2.6887    0.0000 H   0  0  0  0  0  0  0  0  0  0  0  0
    0.2647    2.0021    0.0000 H   0  0  0  0  0  0  0  0  0  0  0  0
    7.6490    4.4159    0.0000 H   0  0  0  0  0  0  0  0  0  0  0  0
    8.2423    4.9483    0.0000 H   0  0  0  0  0  0  0  0  0  0  0  0
    6.4436    5.9878    0.0000 H   0  0  0  0  0  0  0  0  0  0  0  0
    5.5681    6.0352    0.0000 H   0  0  0  0  0  0  0  0  0  0  0  0
    5.5207    5.1596    0.0000 H   0  0  0  0  0  0  0  0  0  0  0  0
    7.9186    6.6058    0.0000 H   0  0  0  0  0  0  0  0  0  0  0  0
    7.3253    6.0735    0.0000 H   0  0  0  0  0  0  0  0  0  0  0  0
  2 17  2  0  0  0  0
  3 18  2  0  0  0  0
  4 26  2  0  0  0  0
  5 30  1  0  0  0  0
  6 30  2  0  0  0  0
  7  8  1  0  0  0  0
  7  9  1  0  0  0  0
  7 13  1  0  0  0  0
  7 31  1  0  0  0  0
  8 12  1  0  0  0  0
  8 17  1  0  0  0  0
  8 22  1  0  0  0  0
  9 10  1  0  0  0  0
  9 18  1  0  0  0  0
  9 32  1  0  0  0  0
 10 11  1  0  0  0  0
 10 15  1  0  0  0  0
 10 33  1  0  0  0  0
 11 14  1  0  0  0  0
 11 20  1  0  0  0  0
 11 23  1  0  0  0  0
 12 16  1  0  0  0  0
 12 21  1  0  0  0  0
 12 34  1  0  0  0  0
 13 16  1  0  0  0  0
 13 35  1  0  0  0  0
 13 36  1  0  0  0  0
 14 19  1  0  0  0  0
 14 24  1  0  0  0  0
 14 37  1  0  0  0  0
 15 17  1  0  0  0  0
 15 38  1  0  0  0  0
 15 39  1  0  0  0  0
 16 40  1  0  0  0  0
 16 41  1  0  0  0  0
 18 19  1  0  0  0  0
 19 42  1  0  0  0  0
 19 43  1  0  0  0  0
 20 25  1  0  0  0  0
 20 44  1  0  0  0  0
 20 45  1  0  0  0  0
 21 27  1  0  0  0  0
 21 28  1  0  0  0  0
 21 46  1  0  0  0  0
 22 47  1  0  0  0  0
 22 48  1  0  0  0  0
 22 49  1  0  0  0  0
 23 50  1  0  0  0  0
 23 51  1  0  0  0  0
 23 52  1  0  0  0  0
 24 26  1  0  0  0  0
 24 53  1  0  0  0  0
 24 54  1  0  0  0  0
 25 26  1  0  0  0  0
 25 55  1  0  0  0  0
 25 56  1  0  0  0  0
 27 29  1  0  0  0  0
 27 57  1  0  0  0  0
 27 58  1  0  0  0  0
 28 59  1  0  0  0  0
 28 60  1  0  0  0  0
 28 61  1  0  0  0  0
 29 30  1  0  0  0  0
 29 62  1  0  0  0  0
 29 63  1  0  0  0  0
M  CHG  2   1   1   5  -1
M  END
> <PUBCHEM_COMPOUND_CID>
8957

> <PUBCHEM_COMPOUND_CANONICALIZED>
1

> <PUBCHEM_CACTVS_COMPLEXITY>
751

> <PUBCHEM_CACTVS_HBOND_ACCEPTOR>
5

> <PUBCHEM_CACTVS_HBOND_DONOR>
0

> <PUBCHEM_CACTVS_ROTATABLE_BOND>
3

> <PUBCHEM_CACTVS_SUBSKEYS>
AAADcfB4OCAAAAAAAAAAAAAAAAAAAYAAAAAwYMAAAAAAAGDAAAAAGgAAAAAADwSAgAACCAAAAAAIAICQCAAAAAAAAAAAAAEAAAAAABIAAAAAAAAEAAAAAAGIyvCvgAAAAAAAAACAAAQAACAAAQAACAAAAA==

> <PUBCHEM_IUPAC_OPENEYE_NAME>
sodium 4-(10,13-dimethyl-3,7,12-trioxo-1,2,4,5,6,8,9,11,14,15,16,17-dodecahydrocyclopenta[a]phenanthren-17-yl)pentanoate

> <PUBCHEM_IUPAC_CAS_NAME>
sodium 4-(10,13-dimethyl-3,7,12-trioxo-1,2,4,5,6,8,9,11,14,15,16,17-dodecahydrocyclopenta[a]phenanthren-17-yl)pentanoate

> <PUBCHEM_IUPAC_NAME>
sodium 4-(10,13-dimethyl-3,7,12-trioxo-1,2,4,5,6,8,9,11,14,15,16,17-dodecahydrocyclopenta[a]phenanthren-17-yl)pentanoate

> <PUBCHEM_IUPAC_SYSTEMATIC_NAME>
sodium 4-[10,13-dimethyl-3,7,12-tris(oxidanylidene)-1,2,4,5,6,8,9,11,14,15,16,17-dodecahydrocyclopenta[a]phenanthren-17-yl]pentanoate

> <PUBCHEM_IUPAC_TRADITIONAL_NAME>
sodium 4-(3,7,12-triketo-10,13-dimethyl-1,2,4,5,6,8,9,11,14,15,16,17-dodecahydrocyclopenta[a]phenanthren-17-yl)valerate

> <PUBCHEM_IUPAC_INCHI>
InChI=1S/C24H34O5.Na/c1-13(4-7-21(28)29)16-5-6-17-22-18(12-20(27)24(16,17)3)23(2)9-8-15(25)10-14(23)11-19(22)26;/h13-14,16-18,22H,4-12H2,1-3H3,(H,28,29);/q;+1/p-1

> <PUBCHEM_IUPAC_INCHIKEY>
FKJIJBSJQSMPTI-UHFFFAOYSA-M

> <PUBCHEM_EXACT_MASS>
424.222568

> <PUBCHEM_MOLECULAR_FORMULA>
C24H33NaO5

> <PUBCHEM_MOLECULAR_WEIGHT>
424.505589

> <PUBCHEM_OPENEYE_CAN_SMILES>
CC(CCC(=O)[O-])C1CCC2C1(C(=O)CC3C2C(=O)CC4C3(CCC(=O)C4)C)C.[Na+]

> <PUBCHEM_OPENEYE_ISO_SMILES>
CC(CCC(=O)[O-])C1CCC2C1(C(=O)CC3C2C(=O)CC4C3(CCC(=O)C4)C)C.[Na+]

> <PUBCHEM_CACTVS_TPSA>
91.3

> <PUBCHEM_MONOISOTOPIC_WEIGHT>
424.222568

> <PUBCHEM_TOTAL_CHARGE>
0

> <PUBCHEM_HEAVY_ATOM_COUNT>
30

> <PUBCHEM_ATOM_DEF_STEREO_COUNT>
0

> <PUBCHEM_ATOM_UDEF_STEREO_COUNT>
8

> <PUBCHEM_BOND_DEF_STEREO_COUNT>
0

> <PUBCHEM_BOND_UDEF_STEREO_COUNT>
0

> <PUBCHEM_ISOTOPIC_ATOM_COUNT>
0

> <PUBCHEM_COMPONENT_COUNT>
2

> <PUBCHEM_CACTVS_TAUTO_COUNT>
18

> <PUBCHEM_COORDINATE_TYPE>
1
5
255

> <PUBCHEM_BONDANNOTATIONS>
10  15  3
11  23  3
12  16  3
14  19  3
21  28  3
7  13  3
8  22  3
9  18  3

$$$$

