17395627
  -OEChem-06241222512D

 46 47  0     1  0  0  0  0  0999 V2000
    7.5891    0.0200    0.0000 S   0  0  0  0  0  0  0  0  0  0  0  0
    7.1733    1.9763    0.0000 O   0  0  0  0  0  0  0  0  0  0  0  0
    2.5878    3.2718    0.0000 O   0  0  0  0  0  0  0  0  0  0  0  0
    3.9890    4.2898    0.0000 O   0  0  0  0  0  0  0  0  0  0  0  0
    4.6701    1.0284    0.0000 N   0  0  0  0  0  0  0  0  0  0  0  0
    8.6061   -2.3594    0.0000 N   0  0  0  0  0  0  0  0  0  0  0  0
    7.1279   -1.7012    0.0000 N   0  0  0  0  0  0  0  0  0  0  0  0
    8.7106   -1.3648    0.0000 N   0  0  0  0  0  0  0  0  0  0  0  0
    5.4791    1.6162    0.0000 C   0  0  0  0  0  0  0  0  0  0  0  0
    5.1701    2.5673    0.0000 C   0  0  0  0  0  0  0  0  0  0  0  0
    4.1701    2.5673    0.0000 C   0  0  0  0  0  0  0  0  0  0  0  0
    3.8611    1.6162    0.0000 C   0  0  0  0  0  0  0  0  0  0  0  0
    6.6381    0.3291    0.0000 C   0  0  3  0  0  0  0  0  0  0  0  0
    6.4302    1.3072    0.0000 C   0  0  0  0  0  0  0  0  0  0  0  0
    7.2212   -3.4808    0.0000 C   0  0  0  0  0  0  0  0  0  0  0  0
    5.7579    3.3763    0.0000 C   0  0  0  0  0  0  0  0  0  0  0  0
    7.6279   -2.5673    0.0000 C   0  0  0  0  0  0  0  0  0  0  0  0
    2.9100    1.3072    0.0000 C   0  0  0  0  0  0  0  0  0  0  0  0
    5.8949   -0.3401    0.0000 C   0  0  0  0  0  0  0  0  0  0  0  0
    3.5823    3.3763    0.0000 C   0  0  0  0  0  0  0  0  0  0  0  0
    7.8090   -4.2898    0.0000 C   0  0  0  0  0  0  0  0  0  0  0  0
    6.2267   -3.5854    0.0000 C   0  0  0  0  0  0  0  0  0  0  0  0
    7.7970   -0.9581    0.0000 C   0  0  0  0  0  0  0  0  0  0  0  0
    2.0000    4.0808    0.0000 C   0  0  0  0  0  0  0  0  0  0  0  0
    6.7670   -0.2774    0.0000 H   0  0  0  0  0  0  0  0  0  0  0  0
    4.6701    0.4084    0.0000 H   0  0  0  0  0  0  0  0  0  0  0  0
    6.9690   -4.0472    0.0000 H   0  0  0  0  0  0  0  0  0  0  0  0
    6.2595    3.0119    0.0000 H   0  0  0  0  0  0  0  0  0  0  0  0
    6.1223    3.8779    0.0000 H   0  0  0  0  0  0  0  0  0  0  0  0
    5.2563    3.7407    0.0000 H   0  0  0  0  0  0  0  0  0  0  0  0
    2.7184    1.8969    0.0000 H   0  0  0  0  0  0  0  0  0  0  0  0
    2.3204    1.1156    0.0000 H   0  0  0  0  0  0  0  0  0  0  0  0
    3.1016    0.7175    0.0000 H   0  0  0  0  0  0  0  0  0  0  0  0
    5.4801    0.1207    0.0000 H   0  0  0  0  0  0  0  0  0  0  0  0
    5.4342   -0.7549    0.0000 H   0  0  0  0  0  0  0  0  0  0  0  0
    6.3098   -0.8008    0.0000 H   0  0  0  0  0  0  0  0  0  0  0  0
    6.1618   -2.9688    0.0000 H   0  0  0  0  0  0  0  0  0  0  0  0
    5.6100   -3.6502    0.0000 H   0  0  0  0  0  0  0  0  0  0  0  0
    6.2915   -4.2020    0.0000 H   0  0  0  0  0  0  0  0  0  0  0  0
    7.3074   -4.6543    0.0000 H   0  0  0  0  0  0  0  0  0  0  0  0
    8.1734   -4.7914    0.0000 H   0  0  0  0  0  0  0  0  0  0  0  0
    8.3105   -3.9254    0.0000 H   0  0  0  0  0  0  0  0  0  0  0  0
    9.0668   -2.7742    0.0000 H   0  0  0  0  0  0  0  0  0  0  0  0
    2.5016    4.4452    0.0000 H   0  0  0  0  0  0  0  0  0  0  0  0
    1.6356    4.5824    0.0000 H   0  0  0  0  0  0  0  0  0  0  0  0
    1.4984    3.7164    0.0000 H   0  0  0  0  0  0  0  0  0  0  0  0
  1 13  1  0  0  0  0
  1 23  1  0  0  0  0
  2 14  2  0  0  0  0
  3 20  1  0  0  0  0
  3 24  1  0  0  0  0
  4 20  2  0  0  0  0
  5  9  1  0  0  0  0
  5 12  1  0  0  0  0
  5 26  1  0  0  0  0
  6  8  1  0  0  0  0
  6 17  1  0  0  0  0
  6 43  1  0  0  0  0
  7 17  2  0  0  0  0
  7 23  1  0  0  0  0
  8 23  2  0  0  0  0
  9 10  2  0  0  0  0
  9 14  1  0  0  0  0
 10 11  1  0  0  0  0
 10 16  1  0  0  0  0
 11 12  2  0  0  0  0
 11 20  1  0  0  0  0
 12 18  1  0  0  0  0
 13 14  1  0  0  0  0
 13 19  1  0  0  0  0
 13 25  1  0  0  0  0
 15 17  1  0  0  0  0
 15 21  1  0  0  0  0
 15 22  1  0  0  0  0
 15 27  1  0  0  0  0
 16 28  1  0  0  0  0
 16 29  1  0  0  0  0
 16 30  1  0  0  0  0
 18 31  1  0  0  0  0
 18 32  1  0  0  0  0
 18 33  1  0  0  0  0
 19 34  1  0  0  0  0
 19 35  1  0  0  0  0
 19 36  1  0  0  0  0
 21 40  1  0  0  0  0
 21 41  1  0  0  0  0
 21 42  1  0  0  0  0
 22 37  1  0  0  0  0
 22 38  1  0  0  0  0
 22 39  1  0  0  0  0
 24 44  1  0  0  0  0
 24 45  1  0  0  0  0
 24 46  1  0  0  0  0
M  END
> <PUBCHEM_COMPOUND_CID>
17395627

> <PUBCHEM_COMPOUND_CANONICALIZED>
1

> <PUBCHEM_CACTVS_COMPLEXITY>
476

> <PUBCHEM_CACTVS_HBOND_ACCEPTOR>
6

> <PUBCHEM_CACTVS_HBOND_DONOR>
2

> <PUBCHEM_CACTVS_ROTATABLE_BOND>
7

> <PUBCHEM_CACTVS_SUBSKEYS>
AAADceB7sABAAAAAAAAAAAAAAAAAAWLAAAAAAAAAAAAAAAAB4AAAHgQYAAAADQyF3wKDmJbrlAiqA4bwbACS0CvnALAVuSGwTNiILnrgvLmEEYhm2API6Ue8z+C+gAAAAAAAAAAAAAAAAAAAAAAAAAAAAA==

> <PUBCHEM_IUPAC_OPENEYE_NAME>
methyl 5-[2-[(5-isopropyl-1H-1,2,4-triazol-3-yl)sulfanyl]propanoyl]-2,4-dimethyl-1H-pyrrole-3-carboxylate

> <PUBCHEM_IUPAC_CAS_NAME>
2,4-dimethyl-5-[1-oxo-2-[(5-propan-2-yl-1H-1,2,4-triazol-3-yl)thio]propyl]-1H-pyrrole-3-carboxylic acid methyl ester

> <PUBCHEM_IUPAC_NAME>
methyl 2,4-dimethyl-5-[2-[(5-propan-2-yl-1H-1,2,4-triazol-3-yl)sulfanyl]propanoyl]-1H-pyrrole-3-carboxylate

> <PUBCHEM_IUPAC_SYSTEMATIC_NAME>
methyl 2,4-dimethyl-5-[2-[(5-propan-2-yl-1H-1,2,4-triazol-3-yl)sulfanyl]propanoyl]-1H-pyrrole-3-carboxylate

> <PUBCHEM_IUPAC_TRADITIONAL_NAME>
5-[2-[(5-isopropyl-1H-1,2,4-triazol-3-yl)thio]propanoyl]-2,4-dimethyl-1H-pyrrole-3-carboxylic acid methyl ester

> <PUBCHEM_IUPAC_INCHI>
InChI=1S/C16H22N4O3S/c1-7(2)14-18-16(20-19-14)24-10(5)13(21)12-8(3)11(9(4)17-12)15(22)23-6/h7,10,17H,1-6H3,(H,18,19,20)

> <PUBCHEM_IUPAC_INCHIKEY>
COZCPKKMZGUEBW-UHFFFAOYSA-N

> <PUBCHEM_XLOGP3_AA>
3.5

> <PUBCHEM_EXACT_MASS>
350.141262

> <PUBCHEM_MOLECULAR_FORMULA>
C16H22N4O3S

> <PUBCHEM_MOLECULAR_WEIGHT>
350.43588

> <PUBCHEM_OPENEYE_CAN_SMILES>
CC1=C(NC(=C1C(=O)OC)C)C(=O)C(C)SC2=NNC(=N2)C(C)C

> <PUBCHEM_OPENEYE_ISO_SMILES>
CC1=C(NC(=C1C(=O)OC)C)C(=O)C(C)SC2=NNC(=N2)C(C)C

> <PUBCHEM_CACTVS_TPSA>
126

> <PUBCHEM_MONOISOTOPIC_WEIGHT>
350.141262

> <PUBCHEM_TOTAL_CHARGE>
0

> <PUBCHEM_HEAVY_ATOM_COUNT>
24

> <PUBCHEM_ATOM_DEF_STEREO_COUNT>
0

> <PUBCHEM_ATOM_UDEF_STEREO_COUNT>
1

> <PUBCHEM_BOND_DEF_STEREO_COUNT>
0

> <PUBCHEM_BOND_UDEF_STEREO_COUNT>
0

> <PUBCHEM_ISOTOPIC_ATOM_COUNT>
0

> <PUBCHEM_COMPONENT_COUNT>
1

> <PUBCHEM_CACTVS_TAUTO_COUNT>
165

> <PUBCHEM_COORDINATE_TYPE>
1
5
255

> <PUBCHEM_BONDANNOTATIONS>
10  11  8
11  12  8
13  19  3
5  12  8
5  9  8
6  17  8
6  8  8
7  17  8
7  23  8
8  23  8
9  10  8

$$$$

