585204
  -OEChem-06241222452D

 61 61  0     1  0  0  0  0  0999 V2000
    3.0000   -2.7500    0.0000 Si  0  0  0  0  0  0  0  0  0  0  0  0
    3.0000   -1.7500    0.0000 O   0  0  0  0  0  0  0  0  0  0  0  0
    3.8660   -1.2500    0.0000 C   0  0  3  0  0  0  0  0  0  0  0  0
    3.8660   -0.2500    0.0000 C   0  0  0  0  0  0  0  0  0  0  0  0
    4.7320    0.2500    0.0000 C   0  0  0  0  0  0  0  0  0  0  0  0
    4.7320   -1.7500    0.0000 C   0  0  0  0  0  0  0  0  0  0  0  0
    4.7320    1.2500    0.0000 C   0  0  0  0  0  0  0  0  0  0  0  0
    5.5981    1.7500    0.0000 C   0  0  0  0  0  0  0  0  0  0  0  0
    5.5981    2.7500    0.0000 C   0  0  0  0  0  0  0  0  0  0  0  0
    5.5981   -1.2500    0.0000 C   0  0  0  0  0  0  0  0  0  0  0  0
    6.4641    3.2500    0.0000 C   0  0  0  0  0  0  0  0  0  0  0  0
    3.0000   -3.7500    0.0000 C   0  0  0  0  0  0  0  0  0  0  0  0
    4.0000   -2.7500    0.0000 C   0  0  0  0  0  0  0  0  0  0  0  0
    2.0000   -2.7500    0.0000 C   0  0  0  0  0  0  0  0  0  0  0  0
    6.4641    4.2500    0.0000 C   0  0  0  0  0  0  0  0  0  0  0  0
    6.4641   -1.7500    0.0000 C   0  0  0  0  0  0  0  0  0  0  0  0
    7.3301    4.7500    0.0000 C   0  0  0  0  0  0  0  0  0  0  0  0
    2.1340   -4.2500    0.0000 C   0  0  0  0  0  0  0  0  0  0  0  0
    3.8660   -4.2500    0.0000 C   0  0  0  0  0  0  0  0  0  0  0  0
    2.1340   -5.2500    0.0000 C   0  0  0  0  0  0  0  0  0  0  0  0
    3.8660   -5.2500    0.0000 C   0  0  0  0  0  0  0  0  0  0  0  0
    7.3301    5.7500    0.0000 C   0  0  0  0  0  0  0  0  0  0  0  0
    3.0000   -5.7500    0.0000 C   0  0  0  0  0  0  0  0  0  0  0  0
    3.8660   -1.8700    0.0000 H   0  0  0  0  0  0  0  0  0  0  0  0
    3.6540    0.3326    0.0000 H   0  0  0  0  0  0  0  0  0  0  0  0
    3.2554   -0.3577    0.0000 H   0  0  0  0  0  0  0  0  0  0  0  0
    4.9441   -0.3326    0.0000 H   0  0  0  0  0  0  0  0  0  0  0  0
    5.3426    0.3577    0.0000 H   0  0  0  0  0  0  0  0  0  0  0  0
    4.3335   -2.2250    0.0000 H   0  0  0  0  0  0  0  0  0  0  0  0
    5.1306   -2.2250    0.0000 H   0  0  0  0  0  0  0  0  0  0  0  0
    4.5200    1.8326    0.0000 H   0  0  0  0  0  0  0  0  0  0  0  0
    4.1215    1.1423    0.0000 H   0  0  0  0  0  0  0  0  0  0  0  0
    5.8101    1.1674    0.0000 H   0  0  0  0  0  0  0  0  0  0  0  0
    6.2087    1.8577    0.0000 H   0  0  0  0  0  0  0  0  0  0  0  0
    5.3860    3.3326    0.0000 H   0  0  0  0  0  0  0  0  0  0  0  0
    4.9875    2.6423    0.0000 H   0  0  0  0  0  0  0  0  0  0  0  0
    5.9966   -0.7751    0.0000 H   0  0  0  0  0  0  0  0  0  0  0  0
    5.1996   -0.7751    0.0000 H   0  0  0  0  0  0  0  0  0  0  0  0
    6.6762    2.6674    0.0000 H   0  0  0  0  0  0  0  0  0  0  0  0
    7.0747    3.3577    0.0000 H   0  0  0  0  0  0  0  0  0  0  0  0
    4.0000   -3.3700    0.0000 H   0  0  0  0  0  0  0  0  0  0  0  0
    4.6200   -2.7500    0.0000 H   0  0  0  0  0  0  0  0  0  0  0  0
    4.0000   -2.1300    0.0000 H   0  0  0  0  0  0  0  0  0  0  0  0
    2.0000   -2.1300    0.0000 H   0  0  0  0  0  0  0  0  0  0  0  0
    1.3800   -2.7500    0.0000 H   0  0  0  0  0  0  0  0  0  0  0  0
    2.0000   -3.3700    0.0000 H   0  0  0  0  0  0  0  0  0  0  0  0
    6.2520    4.8326    0.0000 H   0  0  0  0  0  0  0  0  0  0  0  0
    5.8535    4.1423    0.0000 H   0  0  0  0  0  0  0  0  0  0  0  0
    6.1541   -2.2869    0.0000 H   0  0  0  0  0  0  0  0  0  0  0  0
    7.0010   -2.0600    0.0000 H   0  0  0  0  0  0  0  0  0  0  0  0
    6.7741   -1.2131    0.0000 H   0  0  0  0  0  0  0  0  0  0  0  0
    7.5422    4.1674    0.0000 H   0  0  0  0  0  0  0  0  0  0  0  0
    7.9407    4.8577    0.0000 H   0  0  0  0  0  0  0  0  0  0  0  0
    1.5970   -3.9400    0.0000 H   0  0  0  0  0  0  0  0  0  0  0  0
    4.4030   -3.9400    0.0000 H   0  0  0  0  0  0  0  0  0  0  0  0
    1.5970   -5.5600    0.0000 H   0  0  0  0  0  0  0  0  0  0  0  0
    4.4030   -5.5600    0.0000 H   0  0  0  0  0  0  0  0  0  0  0  0
    7.9501    5.7500    0.0000 H   0  0  0  0  0  0  0  0  0  0  0  0
    7.3301    6.3700    0.0000 H   0  0  0  0  0  0  0  0  0  0  0  0
    6.7101    5.7500    0.0000 H   0  0  0  0  0  0  0  0  0  0  0  0
    3.0000   -6.3700    0.0000 H   0  0  0  0  0  0  0  0  0  0  0  0
  1  2  1  0  0  0  0
  1 12  1  0  0  0  0
  1 13  1  0  0  0  0
  1 14  1  0  0  0  0
  2  3  1  0  0  0  0
  3  4  1  0  0  0  0
  3  6  1  0  0  0  0
  3 24  1  0  0  0  0
  4  5  1  0  0  0  0
  4 25  1  0  0  0  0
  4 26  1  0  0  0  0
  5  7  1  0  0  0  0
  5 27  1  0  0  0  0
  5 28  1  0  0  0  0
  6 10  1  0  0  0  0
  6 29  1  0  0  0  0
  6 30  1  0  0  0  0
  7  8  1  0  0  0  0
  7 31  1  0  0  0  0
  7 32  1  0  0  0  0
  8  9  1  0  0  0  0
  8 33  1  0  0  0  0
  8 34  1  0  0  0  0
  9 11  1  0  0  0  0
  9 35  1  0  0  0  0
  9 36  1  0  0  0  0
 10 16  1  0  0  0  0
 10 37  1  0  0  0  0
 10 38  1  0  0  0  0
 11 15  1  0  0  0  0
 11 39  1  0  0  0  0
 11 40  1  0  0  0  0
 12 18  2  0  0  0  0
 12 19  1  0  0  0  0
 13 41  1  0  0  0  0
 13 42  1  0  0  0  0
 13 43  1  0  0  0  0
 14 44  1  0  0  0  0
 14 45  1  0  0  0  0
 14 46  1  0  0  0  0
 15 17  1  0  0  0  0
 15 47  1  0  0  0  0
 15 48  1  0  0  0  0
 16 49  1  0  0  0  0
 16 50  1  0  0  0  0
 16 51  1  0  0  0  0
 17 22  1  0  0  0  0
 17 52  1  0  0  0  0
 17 53  1  0  0  0  0
 18 20  1  0  0  0  0
 18 54  1  0  0  0  0
 19 21  2  0  0  0  0
 19 55  1  0  0  0  0
 20 23  2  0  0  0  0
 20 56  1  0  0  0  0
 21 23  1  0  0  0  0
 21 57  1  0  0  0  0
 22 58  1  0  0  0  0
 22 59  1  0  0  0  0
 22 60  1  0  0  0  0
 23 61  1  0  0  0  0
M  END
> <PUBCHEM_COMPOUND_CID>
585204

> <PUBCHEM_COMPOUND_CANONICALIZED>
1

> <PUBCHEM_CACTVS_COMPLEXITY>
271

> <PUBCHEM_CACTVS_HBOND_ACCEPTOR>
1

> <PUBCHEM_CACTVS_HBOND_DONOR>
0

> <PUBCHEM_CACTVS_ROTATABLE_BOND>
13

> <PUBCHEM_CACTVS_SUBSKEYS>
AAADcfB4IAgAAAAAAAAAAAAAAAAAAAAAAAAwAAAAAAAAAAABAAAAGhAAAEAACBSgsAJyAIAAAAGAACBCAAACAAAgAAAIiAAAAIgIICKAERCAIAAkgAAIiAeAwKAAAAAAAAAAAAAAAAAAAAAAAAAAAAAAAA==

> <PUBCHEM_IUPAC_OPENEYE_NAME>
dimethyl-phenyl-(1-propyldecoxy)silane

> <PUBCHEM_IUPAC_CAS_NAME>
dimethyl-phenyl-tridecan-4-yloxysilane

> <PUBCHEM_IUPAC_NAME>
dimethyl-phenyl-tridecan-4-yloxysilane

> <PUBCHEM_IUPAC_SYSTEMATIC_NAME>
dimethyl-phenyl-tridecan-4-yloxy-silane

> <PUBCHEM_IUPAC_TRADITIONAL_NAME>
dimethyl-phenyl-(1-propyldecoxy)silane

> <PUBCHEM_IUPAC_INCHI>
InChI=1S/C21H38OSi/c1-5-7-8-9-10-11-13-17-20(16-6-2)22-23(3,4)21-18-14-12-15-19-21/h12,14-15,18-20H,5-11,13,16-17H2,1-4H3

> <PUBCHEM_IUPAC_INCHIKEY>
KVGKHPVTRKGHEL-UHFFFAOYSA-N

> <PUBCHEM_EXACT_MASS>
334.269192

> <PUBCHEM_MOLECULAR_FORMULA>
C21H38OSi

> <PUBCHEM_MOLECULAR_WEIGHT>
334.61132

> <PUBCHEM_OPENEYE_CAN_SMILES>
CCCCCCCCCC(CCC)O[Si](C)(C)C1=CC=CC=C1

> <PUBCHEM_OPENEYE_ISO_SMILES>
CCCCCCCCCC(CCC)O[Si](C)(C)C1=CC=CC=C1

> <PUBCHEM_CACTVS_TPSA>
9.2

> <PUBCHEM_MONOISOTOPIC_WEIGHT>
334.269192

> <PUBCHEM_TOTAL_CHARGE>
0

> <PUBCHEM_HEAVY_ATOM_COUNT>
23

> <PUBCHEM_ATOM_DEF_STEREO_COUNT>
0

> <PUBCHEM_ATOM_UDEF_STEREO_COUNT>
1

> <PUBCHEM_BOND_DEF_STEREO_COUNT>
0

> <PUBCHEM_BOND_UDEF_STEREO_COUNT>
0

> <PUBCHEM_ISOTOPIC_ATOM_COUNT>
0

> <PUBCHEM_COMPONENT_COUNT>
1

> <PUBCHEM_CACTVS_TAUTO_COUNT>
1

> <PUBCHEM_COORDINATE_TYPE>
1
5
255

> <PUBCHEM_BONDANNOTATIONS>
12  18  8
12  19  8
18  20  8
19  21  8
20  23  8
21  23  8
3  6  3

$$$$

