17395846
  -OEChem-06241222522D

 51 54  0     1  0  0  0  0  0999 V2000
    4.9889    0.4696    0.0000 O   0  0  0  0  0  0  0  0  0  0  0  0
    4.9889    3.9801    0.0000 O   0  0  0  0  0  0  0  0  0  0  0  0
    5.2619    2.2249    0.0000 N   0  0  0  0  0  0  0  0  0  0  0  0
    6.7619    1.3589    0.0000 N   0  0  3  0  0  0  0  0  0  0  0  0
    9.4643   -0.5898    0.0000 N   0  0  0  0  0  0  0  0  0  0  0  0
    8.5983   -1.0898    0.0000 N   0  0  0  0  0  0  0  0  0  0  0  0
    3.7320    2.7249    0.0000 C   0  0  3  0  0  0  0  0  0  0  0  0
    3.7320    1.7249    0.0000 C   0  0  3  0  0  0  0  0  0  0  0  0
    2.8660    1.2249    0.0000 C   0  0  0  0  0  0  0  0  0  0  0  0
    2.8660    3.2249    0.0000 C   0  0  0  0  0  0  0  0  0  0  0  0
    4.6783    3.0296    0.0000 C   0  0  0  0  0  0  0  0  0  0  0  0
    4.6783    1.4202    0.0000 C   0  0  0  0  0  0  0  0  0  0  0  0
    2.0000    2.7249    0.0000 C   0  0  0  0  0  0  0  0  0  0  0  0
    2.0000    1.7249    0.0000 C   0  0  0  0  0  0  0  0  0  0  0  0
    6.2619    2.2249    0.0000 C   0  0  0  0  0  0  0  0  0  0  0  0
    7.7619    1.3589    0.0000 C   0  0  0  0  0  0  0  0  0  0  0  0
    6.2619    0.4928    0.0000 C   0  0  0  0  0  0  0  0  0  0  0  0
    8.2619    0.4928    0.0000 C   0  0  0  0  0  0  0  0  0  0  0  0
    9.2564    0.3883    0.0000 C   0  0  0  0  0  0  0  0  0  0  0  0
    7.8551   -0.4207    0.0000 C   0  0  0  0  0  0  0  0  0  0  0  0
   10.3779   -0.9966    0.0000 C   0  0  0  0  0  0  0  0  0  0  0  0
   10.4824   -1.9911    0.0000 C   0  0  0  0  0  0  0  0  0  0  0  0
    9.6734   -2.5789    0.0000 C   0  0  0  0  0  0  0  0  0  0  0  0
   11.3959   -2.3978    0.0000 C   0  0  0  0  0  0  0  0  0  0  0  0
    9.7779   -3.5734    0.0000 C   0  0  0  0  0  0  0  0  0  0  0  0
   11.5005   -3.3924    0.0000 C   0  0  0  0  0  0  0  0  0  0  0  0
   10.6914   -3.9801    0.0000 C   0  0  0  0  0  0  0  0  0  0  0  0
    3.7977    1.1084    0.0000 H   0  0  0  0  0  0  0  0  0  0  0  0
    3.7977    3.3414    0.0000 H   0  0  0  0  0  0  0  0  0  0  0  0
    3.2646    3.6998    0.0000 H   0  0  0  0  0  0  0  0  0  0  0  0
    2.4675    0.7499    0.0000 H   0  0  0  0  0  0  0  0  0  0  0  0
    3.2646    0.7499    0.0000 H   0  0  0  0  0  0  0  0  0  0  0  0
    2.4675    3.6998    0.0000 H   0  0  0  0  0  0  0  0  0  0  0  0
    1.4631    3.0349    0.0000 H   0  0  0  0  0  0  0  0  0  0  0  0
    1.4631    1.4149    0.0000 H   0  0  0  0  0  0  0  0  0  0  0  0
    6.8445    2.4369    0.0000 H   0  0  0  0  0  0  0  0  0  0  0  0
    6.1542    2.8355    0.0000 H   0  0  0  0  0  0  0  0  0  0  0  0
    8.3445    1.5709    0.0000 H   0  0  0  0  0  0  0  0  0  0  0  0
    7.6542    1.9694    0.0000 H   0  0  0  0  0  0  0  0  0  0  0  0
    5.7249    0.8028    0.0000 H   0  0  0  0  0  0  0  0  0  0  0  0
    5.9519   -0.0441    0.0000 H   0  0  0  0  0  0  0  0  0  0  0  0
    6.7988    0.1828    0.0000 H   0  0  0  0  0  0  0  0  0  0  0  0
    9.6713    0.8491    0.0000 H   0  0  0  0  0  0  0  0  0  0  0  0
    7.2487   -0.5496    0.0000 H   0  0  0  0  0  0  0  0  0  0  0  0
   10.9963   -1.0398    0.0000 H   0  0  0  0  0  0  0  0  0  0  0  0
   10.5279   -0.3950    0.0000 H   0  0  0  0  0  0  0  0  0  0  0  0
    9.1070   -2.3267    0.0000 H   0  0  0  0  0  0  0  0  0  0  0  0
   11.8975   -2.0334    0.0000 H   0  0  0  0  0  0  0  0  0  0  0  0
    9.2763   -3.9378    0.0000 H   0  0  0  0  0  0  0  0  0  0  0  0
   12.0669   -3.6445    0.0000 H   0  0  0  0  0  0  0  0  0  0  0  0
   10.7563   -4.5967    0.0000 H   0  0  0  0  0  0  0  0  0  0  0  0
  1 12  2  0  0  0  0
  2 11  2  0  0  0  0
  3 11  1  0  0  0  0
  3 12  1  0  0  0  0
  3 15  1  0  0  0  0
  4 15  1  0  0  0  0
  4 16  1  0  0  0  0
  4 17  1  0  0  0  0
  5  6  1  0  0  0  0
  5 19  1  0  0  0  0
  5 21  1  0  0  0  0
  6 20  2  0  0  0  0
  7  8  1  0  0  0  0
  7 10  1  0  0  0  0
  7 11  1  0  0  0  0
  7 29  1  0  0  0  0
  8  9  1  0  0  0  0
  8 12  1  0  0  0  0
  8 28  1  0  0  0  0
  9 14  1  0  0  0  0
  9 31  1  0  0  0  0
  9 32  1  0  0  0  0
 10 13  1  0  0  0  0
 10 30  1  0  0  0  0
 10 33  1  0  0  0  0
 13 14  2  0  0  0  0
 13 34  1  0  0  0  0
 14 35  1  0  0  0  0
 15 36  1  0  0  0  0
 15 37  1  0  0  0  0
 16 18  1  0  0  0  0
 16 38  1  0  0  0  0
 16 39  1  0  0  0  0
 17 40  1  0  0  0  0
 17 41  1  0  0  0  0
 17 42  1  0  0  0  0
 18 19  2  0  0  0  0
 18 20  1  0  0  0  0
 19 43  1  0  0  0  0
 20 44  1  0  0  0  0
 21 22  1  0  0  0  0
 21 45  1  0  0  0  0
 21 46  1  0  0  0  0
 22 23  2  0  0  0  0
 22 24  1  0  0  0  0
 23 25  1  0  0  0  0
 23 47  1  0  0  0  0
 24 26  2  0  0  0  0
 24 48  1  0  0  0  0
 25 27  2  0  0  0  0
 25 49  1  0  0  0  0
 26 27  1  0  0  0  0
 26 50  1  0  0  0  0
 27 51  1  0  0  0  0
M  END
> <PUBCHEM_COMPOUND_CID>
17395846

> <PUBCHEM_COMPOUND_CANONICALIZED>
1

> <PUBCHEM_CACTVS_COMPLEXITY>
561

> <PUBCHEM_CACTVS_HBOND_ACCEPTOR>
4

> <PUBCHEM_CACTVS_HBOND_DONOR>
0

> <PUBCHEM_CACTVS_ROTATABLE_BOND>
6

> <PUBCHEM_CACTVS_SUBSKEYS>
AAADceB7sAAAAAAAAAAAAAAAAAAAAWLAAAAwQAAAAAAAAEABwAAAHgAIAAAADQDBmgQ/gJMIAACqAjF3VACSBAAxgAAY2CEoRJiIILLA0VGEpAhojyLIiAcdgAAOgAAAAAAAAAAAAAAAAAAAAAAAAAAAAA==

> <PUBCHEM_IUPAC_OPENEYE_NAME>
2-[[(1-benzylpyrazol-4-yl)methyl-methyl-amino]methyl]-3a,4,7,7a-tetrahydroisoindole-1,3-dione

> <PUBCHEM_IUPAC_CAS_NAME>
2-[[methyl-[[1-(phenylmethyl)-4-pyrazolyl]methyl]amino]methyl]-3a,4,7,7a-tetrahydroisoindole-1,3-dione

> <PUBCHEM_IUPAC_NAME>
2-[[(1-benzylpyrazol-4-yl)methyl-methylamino]methyl]-3a,4,7,7a-tetrahydroisoindole-1,3-dione

> <PUBCHEM_IUPAC_SYSTEMATIC_NAME>
2-[[methyl-[[1-(phenylmethyl)pyrazol-4-yl]methyl]amino]methyl]-3a,4,7,7a-tetrahydroisoindole-1,3-dione

> <PUBCHEM_IUPAC_TRADITIONAL_NAME>
2-[[(1-benzylpyrazol-4-yl)methyl-methyl-amino]methyl]-3a,4,7,7a-tetrahydroisoindole-1,3-quinone

> <PUBCHEM_IUPAC_INCHI>
InChI=1S/C21H24N4O2/c1-23(15-25-20(26)18-9-5-6-10-19(18)21(25)27)12-17-11-22-24(14-17)13-16-7-3-2-4-8-16/h2-8,11,14,18-19H,9-10,12-13,15H2,1H3

> <PUBCHEM_IUPAC_INCHIKEY>
QNCCSPKBTBKLEB-UHFFFAOYSA-N

> <PUBCHEM_XLOGP3_AA>
1.9

> <PUBCHEM_EXACT_MASS>
364.189926

> <PUBCHEM_MOLECULAR_FORMULA>
C21H24N4O2

> <PUBCHEM_MOLECULAR_WEIGHT>
364.44086

> <PUBCHEM_OPENEYE_CAN_SMILES>
CN(CC1=CN(N=C1)CC2=CC=CC=C2)CN3C(=O)C4CC=CCC4C3=O

> <PUBCHEM_OPENEYE_ISO_SMILES>
CN(CC1=CN(N=C1)CC2=CC=CC=C2)CN3C(=O)C4CC=CCC4C3=O

> <PUBCHEM_CACTVS_TPSA>
58.4

> <PUBCHEM_MONOISOTOPIC_WEIGHT>
364.189926

> <PUBCHEM_TOTAL_CHARGE>
0

> <PUBCHEM_HEAVY_ATOM_COUNT>
27

> <PUBCHEM_ATOM_DEF_STEREO_COUNT>
0

> <PUBCHEM_ATOM_UDEF_STEREO_COUNT>
2

> <PUBCHEM_BOND_DEF_STEREO_COUNT>
0

> <PUBCHEM_BOND_UDEF_STEREO_COUNT>
0

> <PUBCHEM_ISOTOPIC_ATOM_COUNT>
0

> <PUBCHEM_COMPONENT_COUNT>
1

> <PUBCHEM_CACTVS_TAUTO_COUNT>
3

> <PUBCHEM_COORDINATE_TYPE>
1
5
255

> <PUBCHEM_BONDANNOTATIONS>
18  19  8
18  20  8
22  23  8
22  24  8
23  25  8
24  26  8
25  27  8
26  27  8
5  19  8
5  6  8
6  20  8
7  10  3
8  9  3

$$$$

