8578
  -OEChem-06261202552D

 35 37  0     0  0  0  0  0  0999 V2000
    4.5981    0.2327    0.0000 N   0  0  0  0  0  0  0  0  0  0  0  0
    2.8660    1.2327    0.0000 N   0  0  0  0  0  0  0  0  0  0  0  0
    3.7320   -0.2673    0.0000 N   0  0  0  0  0  0  0  0  0  0  0  0
    5.4641    1.7327    0.0000 C   0  0  0  0  0  0  0  0  0  0  0  0
    5.4641    2.7327    0.0000 C   0  0  0  0  0  0  0  0  0  0  0  0
    4.5981    1.2327    0.0000 C   0  0  0  0  0  0  0  0  0  0  0  0
    3.7320    1.7327    0.0000 C   0  0  0  0  0  0  0  0  0  0  0  0
    4.5981    3.2327    0.0000 C   0  0  0  0  0  0  0  0  0  0  0  0
    6.3580    1.1980    0.0000 C   0  0  0  0  0  0  0  0  0  0  0  0
    6.3580    3.2673    0.0000 C   0  0  0  0  0  0  0  0  0  0  0  0
    3.7320    2.7327    0.0000 C   0  0  0  0  0  0  0  0  0  0  0  0
    7.2641    1.7118    0.0000 C   0  0  0  0  0  0  0  0  0  0  0  0
    7.2641    2.7535    0.0000 C   0  0  0  0  0  0  0  0  0  0  0  0
    3.7320   -1.2673    0.0000 C   0  0  0  0  0  0  0  0  0  0  0  0
    2.8660   -1.7673    0.0000 C   0  0  0  0  0  0  0  0  0  0  0  0
    2.8660   -2.7673    0.0000 C   0  0  0  0  0  0  0  0  0  0  0  0
    4.5981   -1.7673    0.0000 C   0  0  0  0  0  0  0  0  0  0  0  0
    2.0000   -1.2673    0.0000 C   0  0  0  0  0  0  0  0  0  0  0  0
    3.7320   -3.2673    0.0000 C   0  0  0  0  0  0  0  0  0  0  0  0
    4.5981   -2.7673    0.0000 C   0  0  0  0  0  0  0  0  0  0  0  0
    4.5981    3.8527    0.0000 H   0  0  0  0  0  0  0  0  0  0  0  0
    6.3509    0.5780    0.0000 H   0  0  0  0  0  0  0  0  0  0  0  0
    6.3509    3.8873    0.0000 H   0  0  0  0  0  0  0  0  0  0  0  0
    3.1951    3.0427    0.0000 H   0  0  0  0  0  0  0  0  0  0  0  0
    7.7998    1.3998    0.0000 H   0  0  0  0  0  0  0  0  0  0  0  0
    7.7998    3.0656    0.0000 H   0  0  0  0  0  0  0  0  0  0  0  0
    2.3291   -3.0773    0.0000 H   0  0  0  0  0  0  0  0  0  0  0  0
    5.1350   -1.4573    0.0000 H   0  0  0  0  0  0  0  0  0  0  0  0
    2.3291    1.5427    0.0000 H   0  0  0  0  0  0  0  0  0  0  0  0
    2.8660    0.6127    0.0000 H   0  0  0  0  0  0  0  0  0  0  0  0
    2.3100   -0.7304    0.0000 H   0  0  0  0  0  0  0  0  0  0  0  0
    1.4631   -0.9573    0.0000 H   0  0  0  0  0  0  0  0  0  0  0  0
    1.6900   -1.8043    0.0000 H   0  0  0  0  0  0  0  0  0  0  0  0
    3.7320   -3.8873    0.0000 H   0  0  0  0  0  0  0  0  0  0  0  0
    5.1350   -3.0773    0.0000 H   0  0  0  0  0  0  0  0  0  0  0  0
  1  3  2  0  0  0  0
  1  6  1  0  0  0  0
  2  7  1  0  0  0  0
  2 29  1  0  0  0  0
  2 30  1  0  0  0  0
  3 14  1  0  0  0  0
  4  5  1  0  0  0  0
  4  6  1  0  0  0  0
  4  9  2  0  0  0  0
  5  8  1  0  0  0  0
  5 10  2  0  0  0  0
  6  7  2  0  0  0  0
  7 11  1  0  0  0  0
  8 11  2  0  0  0  0
  8 21  1  0  0  0  0
  9 12  1  0  0  0  0
  9 22  1  0  0  0  0
 10 13  1  0  0  0  0
 10 23  1  0  0  0  0
 11 24  1  0  0  0  0
 12 13  2  0  0  0  0
 12 25  1  0  0  0  0
 13 26  1  0  0  0  0
 14 15  1  0  0  0  0
 14 17  2  0  0  0  0
 15 16  2  0  0  0  0
 15 18  1  0  0  0  0
 16 19  1  0  0  0  0
 16 27  1  0  0  0  0
 17 20  1  0  0  0  0
 17 28  1  0  0  0  0
 18 31  1  0  0  0  0
 18 32  1  0  0  0  0
 18 33  1  0  0  0  0
 19 20  2  0  0  0  0
 19 34  1  0  0  0  0
 20 35  1  0  0  0  0
M  END
> <PUBCHEM_COMPOUND_CID>
8578

> <PUBCHEM_COMPOUND_CANONICALIZED>
1

> <PUBCHEM_CACTVS_COMPLEXITY>
341

> <PUBCHEM_CACTVS_HBOND_ACCEPTOR>
3

> <PUBCHEM_CACTVS_HBOND_DONOR>
1

> <PUBCHEM_CACTVS_ROTATABLE_BOND>
2

> <PUBCHEM_CACTVS_SUBSKEYS>
AAADccB7AAAAAAAAAAAAAAAAAAAAAAAAAAAwYMAAAAAAAADBVAAAHAAYAAAADAiBGAAywMBAAACCAiRCQACCAAAgAgAIiAAAdIgIYCKAkZGAIABgkAAIyAcQgIAOiAAAQAASACAQAACAACQAQAAAAAAAAA==

> <PUBCHEM_IUPAC_OPENEYE_NAME>
1-(o-tolylazo)naphthalen-2-amine

> <PUBCHEM_IUPAC_CAS_NAME>
1-(2-methylphenyl)azo-2-naphthalenamine

> <PUBCHEM_IUPAC_NAME>
1-[(2-methylphenyl)diazenyl]naphthalen-2-amine

> <PUBCHEM_IUPAC_SYSTEMATIC_NAME>
1-[(2-methylphenyl)diazenyl]naphthalen-2-amine

> <PUBCHEM_IUPAC_TRADITIONAL_NAME>
[1-(o-tolylazo)-2-naphthyl]amine

> <PUBCHEM_IUPAC_INCHI>
InChI=1S/C17H15N3/c1-12-6-2-5-9-16(12)19-20-17-14-8-4-3-7-13(14)10-11-15(17)18/h2-11H,18H2,1H3

> <PUBCHEM_IUPAC_INCHIKEY>
BWLVSYUUKOQICP-UHFFFAOYSA-N

> <PUBCHEM_XLOGP3_AA>
4.6

> <PUBCHEM_EXACT_MASS>
261.126597

> <PUBCHEM_MOLECULAR_FORMULA>
C17H15N3

> <PUBCHEM_MOLECULAR_WEIGHT>
261.3211

> <PUBCHEM_OPENEYE_CAN_SMILES>
CC1=CC=CC=C1N=NC2=C(C=CC3=CC=CC=C32)N

> <PUBCHEM_OPENEYE_ISO_SMILES>
CC1=CC=CC=C1N=NC2=C(C=CC3=CC=CC=C32)N

> <PUBCHEM_CACTVS_TPSA>
50.7

> <PUBCHEM_MONOISOTOPIC_WEIGHT>
261.126597

> <PUBCHEM_TOTAL_CHARGE>
0

> <PUBCHEM_HEAVY_ATOM_COUNT>
20

> <PUBCHEM_ATOM_DEF_STEREO_COUNT>
0

> <PUBCHEM_ATOM_UDEF_STEREO_COUNT>
0

> <PUBCHEM_BOND_DEF_STEREO_COUNT>
0

> <PUBCHEM_BOND_UDEF_STEREO_COUNT>
0

> <PUBCHEM_ISOTOPIC_ATOM_COUNT>
0

> <PUBCHEM_COMPONENT_COUNT>
1

> <PUBCHEM_CACTVS_TAUTO_COUNT>
2

> <PUBCHEM_COORDINATE_TYPE>
1
5
255

> <PUBCHEM_BONDANNOTATIONS>
10  13  8
12  13  8
14  15  8
14  17  8
15  16  8
16  19  8
17  20  8
19  20  8
4  5  8
4  6  8
4  9  8
5  10  8
5  8  8
6  7  8
7  11  8
8  11  8
9  12  8

$$$$

