8398
  -OEChem-06261202472D

 57 58  0     0  0  0  0  0  0999 V2000
    4.5981    1.9330    0.0000 O   0  0  0  0  0  0  0  0  0  0  0  0
    2.8660   -1.0670    0.0000 O   0  0  0  0  0  0  0  0  0  0  0  0
    6.3301    2.9330    0.0000 C   0  0  0  0  0  0  0  0  0  0  0  0
    2.8660   -3.0670    0.0000 C   0  0  0  0  0  0  0  0  0  0  0  0
    6.3301    1.9330    0.0000 C   0  0  0  0  0  0  0  0  0  0  0  0
    3.7320   -2.5670    0.0000 C   0  0  0  0  0  0  0  0  0  0  0  0
    4.5981   -0.0670    0.0000 C   0  0  0  0  0  0  0  0  0  0  0  0
    5.4641    0.4330    0.0000 C   0  0  0  0  0  0  0  0  0  0  0  0
    4.5981   -1.0670    0.0000 C   0  0  0  0  0  0  0  0  0  0  0  0
    3.7320   -1.5670    0.0000 C   0  0  0  0  0  0  0  0  0  0  0  0
    5.4641    1.4330    0.0000 C   0  0  0  0  0  0  0  0  0  0  0  0
    6.3301    3.9330    0.0000 C   0  0  0  0  0  0  0  0  0  0  0  0
    7.3301    2.9330    0.0000 C   0  0  0  0  0  0  0  0  0  0  0  0
    5.3301    2.9330    0.0000 C   0  0  0  0  0  0  0  0  0  0  0  0
    2.0000   -3.5670    0.0000 C   0  0  0  0  0  0  0  0  0  0  0  0
    3.3660   -3.9330    0.0000 C   0  0  0  0  0  0  0  0  0  0  0  0
    2.3660   -2.2010    0.0000 C   0  0  0  0  0  0  0  0  0  0  0  0
    7.1962    1.4330    0.0000 C   0  0  0  0  0  0  0  0  0  0  0  0
    4.5981   -3.0670    0.0000 C   0  0  0  0  0  0  0  0  0  0  0  0
    7.1962    0.4330    0.0000 C   0  0  0  0  0  0  0  0  0  0  0  0
    5.4641   -2.5670    0.0000 C   0  0  0  0  0  0  0  0  0  0  0  0
    6.3301   -0.0670    0.0000 C   0  0  0  0  0  0  0  0  0  0  0  0
    5.4641   -1.5670    0.0000 C   0  0  0  0  0  0  0  0  0  0  0  0
    8.0622   -0.0670    0.0000 C   0  0  0  0  0  0  0  0  0  0  0  0
    6.3301   -3.0670    0.0000 C   0  0  0  0  0  0  0  0  0  0  0  0
    4.3860    0.5156    0.0000 H   0  0  0  0  0  0  0  0  0  0  0  0
    3.9875   -0.1746    0.0000 H   0  0  0  0  0  0  0  0  0  0  0  0
    2.9030   -1.8910    0.0000 H   0  0  0  0  0  0  0  0  0  0  0  0
    2.0560   -1.6640    0.0000 H   0  0  0  0  0  0  0  0  0  0  0  0
    1.8291   -2.5110    0.0000 H   0  0  0  0  0  0  0  0  0  0  0  0
    2.8291   -4.2430    0.0000 H   0  0  0  0  0  0  0  0  0  0  0  0
    3.6760   -4.4700    0.0000 H   0  0  0  0  0  0  0  0  0  0  0  0
    3.9030   -3.6230    0.0000 H   0  0  0  0  0  0  0  0  0  0  0  0
    1.6900   -3.0300    0.0000 H   0  0  0  0  0  0  0  0  0  0  0  0
    1.4631   -3.8770    0.0000 H   0  0  0  0  0  0  0  0  0  0  0  0
    2.3100   -4.1039    0.0000 H   0  0  0  0  0  0  0  0  0  0  0  0
    5.3301    3.5530    0.0000 H   0  0  0  0  0  0  0  0  0  0  0  0
    4.7101    2.9330    0.0000 H   0  0  0  0  0  0  0  0  0  0  0  0
    5.3301    2.3130    0.0000 H   0  0  0  0  0  0  0  0  0  0  0  0
    7.3301    2.3130    0.0000 H   0  0  0  0  0  0  0  0  0  0  0  0
    7.9501    2.9330    0.0000 H   0  0  0  0  0  0  0  0  0  0  0  0
    7.3301    3.5530    0.0000 H   0  0  0  0  0  0  0  0  0  0  0  0
    6.9501    3.9330    0.0000 H   0  0  0  0  0  0  0  0  0  0  0  0
    6.3301    4.5530    0.0000 H   0  0  0  0  0  0  0  0  0  0  0  0
    5.7101    3.9330    0.0000 H   0  0  0  0  0  0  0  0  0  0  0  0
    7.7331    1.7430    0.0000 H   0  0  0  0  0  0  0  0  0  0  0  0
    4.5981   -3.6870    0.0000 H   0  0  0  0  0  0  0  0  0  0  0  0
    6.3301   -0.6870    0.0000 H   0  0  0  0  0  0  0  0  0  0  0  0
    6.0010   -1.2570    0.0000 H   0  0  0  0  0  0  0  0  0  0  0  0
    6.0201   -3.6039    0.0000 H   0  0  0  0  0  0  0  0  0  0  0  0
    6.8671   -3.3770    0.0000 H   0  0  0  0  0  0  0  0  0  0  0  0
    6.6401   -2.5300    0.0000 H   0  0  0  0  0  0  0  0  0  0  0  0
    7.7522   -0.6039    0.0000 H   0  0  0  0  0  0  0  0  0  0  0  0
    8.5991   -0.3770    0.0000 H   0  0  0  0  0  0  0  0  0  0  0  0
    8.3722    0.4699    0.0000 H   0  0  0  0  0  0  0  0  0  0  0  0
    4.0611    1.6230    0.0000 H   0  0  0  0  0  0  0  0  0  0  0  0
    2.8660   -0.4470    0.0000 H   0  0  0  0  0  0  0  0  0  0  0  0
  1 11  1  0  0  0  0
  1 56  1  0  0  0  0
  2 10  1  0  0  0  0
  2 57  1  0  0  0  0
  3  5  1  0  0  0  0
  3 12  1  0  0  0  0
  3 13  1  0  0  0  0
  3 14  1  0  0  0  0
  4  6  1  0  0  0  0
  4 15  1  0  0  0  0
  4 16  1  0  0  0  0
  4 17  1  0  0  0  0
  5 11  1  0  0  0  0
  5 18  2  0  0  0  0
  6 10  1  0  0  0  0
  6 19  2  0  0  0  0
  7  8  1  0  0  0  0
  7  9  1  0  0  0  0
  7 26  1  0  0  0  0
  7 27  1  0  0  0  0
  8 11  2  0  0  0  0
  8 22  1  0  0  0  0
  9 10  2  0  0  0  0
  9 23  1  0  0  0  0
 12 43  1  0  0  0  0
 12 44  1  0  0  0  0
 12 45  1  0  0  0  0
 13 40  1  0  0  0  0
 13 41  1  0  0  0  0
 13 42  1  0  0  0  0
 14 37  1  0  0  0  0
 14 38  1  0  0  0  0
 14 39  1  0  0  0  0
 15 34  1  0  0  0  0
 15 35  1  0  0  0  0
 15 36  1  0  0  0  0
 16 31  1  0  0  0  0
 16 32  1  0  0  0  0
 16 33  1  0  0  0  0
 17 28  1  0  0  0  0
 17 29  1  0  0  0  0
 17 30  1  0  0  0  0
 18 20  1  0  0  0  0
 18 46  1  0  0  0  0
 19 21  1  0  0  0  0
 19 47  1  0  0  0  0
 20 22  2  0  0  0  0
 20 24  1  0  0  0  0
 21 23  2  0  0  0  0
 21 25  1  0  0  0  0
 22 48  1  0  0  0  0
 23 49  1  0  0  0  0
 24 53  1  0  0  0  0
 24 54  1  0  0  0  0
 24 55  1  0  0  0  0
 25 50  1  0  0  0  0
 25 51  1  0  0  0  0
 25 52  1  0  0  0  0
M  END
> <PUBCHEM_COMPOUND_CID>
8398

> <PUBCHEM_COMPOUND_CANONICALIZED>
1

> <PUBCHEM_CACTVS_COMPLEXITY>
390

> <PUBCHEM_CACTVS_HBOND_ACCEPTOR>
2

> <PUBCHEM_CACTVS_HBOND_DONOR>
2

> <PUBCHEM_CACTVS_ROTATABLE_BOND>
4

> <PUBCHEM_CACTVS_SUBSKEYS>
AAADcfB4MAAAAAAAAAAAAAAAAAAAAAAAAAAwYAAAAAAAAAABQAAAGgAACAAADgSAmAAyBoAAAgCAAiBCAAACAAAgIAAAiAAECIgIJiKCERKAcAAkwBEImAeA4OQPoAACAAAIAABAAAQAABAAAAAAAAAAAA==

> <PUBCHEM_IUPAC_OPENEYE_NAME>
2-tert-butyl-6-[(3-tert-butyl-2-hydroxy-5-methyl-phenyl)methyl]-4-methyl-phenol

> <PUBCHEM_IUPAC_CAS_NAME>
2-tert-butyl-6-[(3-tert-butyl-2-hydroxy-5-methylphenyl)methyl]-4-methylphenol

> <PUBCHEM_IUPAC_NAME>
2-tert-butyl-6-[(3-tert-butyl-2-hydroxy-5-methylphenyl)methyl]-4-methylphenol

> <PUBCHEM_IUPAC_SYSTEMATIC_NAME>
2-tert-butyl-6-[(3-tert-butyl-5-methyl-2-oxidanyl-phenyl)methyl]-4-methyl-phenol

> <PUBCHEM_IUPAC_TRADITIONAL_NAME>
2-tert-butyl-6-(3-tert-butyl-2-hydroxy-5-methyl-benzyl)-4-methyl-phenol

> <PUBCHEM_IUPAC_INCHI>
InChI=1S/C23H32O2/c1-14-9-16(20(24)18(11-14)22(3,4)5)13-17-10-15(2)12-19(21(17)25)23(6,7)8/h9-12,24-25H,13H2,1-8H3

> <PUBCHEM_IUPAC_INCHIKEY>
KGRVJHAUYBGFFP-UHFFFAOYSA-N

> <PUBCHEM_XLOGP3_AA>
7.2

> <PUBCHEM_EXACT_MASS>
340.24023

> <PUBCHEM_MOLECULAR_FORMULA>
C23H32O2

> <PUBCHEM_MOLECULAR_WEIGHT>
340.49898

> <PUBCHEM_OPENEYE_CAN_SMILES>
CC1=CC(=C(C(=C1)C(C)(C)C)O)CC2=C(C(=CC(=C2)C)C(C)(C)C)O

> <PUBCHEM_OPENEYE_ISO_SMILES>
CC1=CC(=C(C(=C1)C(C)(C)C)O)CC2=C(C(=CC(=C2)C)C(C)(C)C)O

> <PUBCHEM_CACTVS_TPSA>
40.5

> <PUBCHEM_MONOISOTOPIC_WEIGHT>
340.24023

> <PUBCHEM_TOTAL_CHARGE>
0

> <PUBCHEM_HEAVY_ATOM_COUNT>
25

> <PUBCHEM_ATOM_DEF_STEREO_COUNT>
0

> <PUBCHEM_ATOM_UDEF_STEREO_COUNT>
0

> <PUBCHEM_BOND_DEF_STEREO_COUNT>
0

> <PUBCHEM_BOND_UDEF_STEREO_COUNT>
0

> <PUBCHEM_ISOTOPIC_ATOM_COUNT>
0

> <PUBCHEM_COMPONENT_COUNT>
1

> <PUBCHEM_CACTVS_TAUTO_COUNT>
5

> <PUBCHEM_COORDINATE_TYPE>
1
5
255

> <PUBCHEM_BONDANNOTATIONS>
18  20  8
19  21  8
20  22  8
21  23  8
5  11  8
5  18  8
6  10  8
6  19  8
8  11  8
8  22  8
9  10  8
9  23  8

$$$$

