8770
  -OEChem-06261203052D

 49 47  0     1  0  0  0  0  0999 V2000
    1.7321    3.1200    0.0000 S   0  0  0  0  0  0  0  0  0  0  0  0
    0.0000    3.1200    0.0000 Na  0  3  0  0  0  0  0  0  0  0  0  0
    2.5981    3.6200    0.0000 O   0  0  0  0  0  0  0  0  0  0  0  0
    0.8660    2.6200    0.0000 O   0  5  0  0  0  0  0  0  0  0  0  0
    1.2321    3.9860    0.0000 O   0  0  0  0  0  0  0  0  0  0  0  0
    2.2321    2.2540    0.0000 O   0  0  0  0  0  0  0  0  0  0  0  0
    6.0622    3.6200    0.0000 C   0  0  3  0  0  0  0  0  0  0  0  0
    5.1962    3.1200    0.0000 C   0  0  0  0  0  0  0  0  0  0  0  0
    4.3301    3.6200    0.0000 C   0  0  0  0  0  0  0  0  0  0  0  0
    3.4641    3.1200    0.0000 C   0  0  3  0  0  0  0  0  0  0  0  0
    6.9282    3.1200    0.0000 C   0  0  0  0  0  0  0  0  0  0  0  0
    6.0622    4.6200    0.0000 C   0  0  0  0  0  0  0  0  0  0  0  0
    3.4641    2.1200    0.0000 C   0  0  0  0  0  0  0  0  0  0  0  0
    7.7942    3.6200    0.0000 C   0  0  0  0  0  0  0  0  0  0  0  0
    4.3301    1.6200    0.0000 C   0  0  0  0  0  0  0  0  0  0  0  0
    6.9282    5.1200    0.0000 C   0  0  0  0  0  0  0  0  0  0  0  0
    8.6603    3.1200    0.0000 C   0  0  0  0  0  0  0  0  0  0  0  0
    4.3301    0.6200    0.0000 C   0  0  0  0  0  0  0  0  0  0  0  0
    5.1962    2.1200    0.0000 C   0  0  0  0  0  0  0  0  0  0  0  0
    9.5263    3.6200    0.0000 C   0  0  0  0  0  0  0  0  0  0  0  0
    6.0622    3.0000    0.0000 H   0  0  0  0  0  0  0  0  0  0  0  0
    4.7976    2.6451    0.0000 H   0  0  0  0  0  0  0  0  0  0  0  0
    5.5947    2.6451    0.0000 H   0  0  0  0  0  0  0  0  0  0  0  0
    4.7287    4.0950    0.0000 H   0  0  0  0  0  0  0  0  0  0  0  0
    3.9316    4.0950    0.0000 H   0  0  0  0  0  0  0  0  0  0  0  0
    3.4641    3.7400    0.0000 H   0  0  0  0  0  0  0  0  0  0  0  0
    6.5297    2.6451    0.0000 H   0  0  0  0  0  0  0  0  0  0  0  0
    7.3267    2.6451    0.0000 H   0  0  0  0  0  0  0  0  0  0  0  0
    5.8501    5.2026    0.0000 H   0  0  0  0  0  0  0  0  0  0  0  0
    5.4516    4.5123    0.0000 H   0  0  0  0  0  0  0  0  0  0  0  0
    2.8535    2.2277    0.0000 H   0  0  0  0  0  0  0  0  0  0  0  0
    3.2521    1.5374    0.0000 H   0  0  0  0  0  0  0  0  0  0  0  0
    8.1928    4.0950    0.0000 H   0  0  0  0  0  0  0  0  0  0  0  0
    7.3957    4.0950    0.0000 H   0  0  0  0  0  0  0  0  0  0  0  0
    4.8671    1.3100    0.0000 H   0  0  0  0  0  0  0  0  0  0  0  0
    7.2382    4.5831    0.0000 H   0  0  0  0  0  0  0  0  0  0  0  0
    7.4651    5.4300    0.0000 H   0  0  0  0  0  0  0  0  0  0  0  0
    6.6182    5.6569    0.0000 H   0  0  0  0  0  0  0  0  0  0  0  0
    8.2617    2.6451    0.0000 H   0  0  0  0  0  0  0  0  0  0  0  0
    9.0588    2.6451    0.0000 H   0  0  0  0  0  0  0  0  0  0  0  0
    3.7101    0.6200    0.0000 H   0  0  0  0  0  0  0  0  0  0  0  0
    4.3301    0.0000    0.0000 H   0  0  0  0  0  0  0  0  0  0  0  0
    4.9501    0.6200    0.0000 H   0  0  0  0  0  0  0  0  0  0  0  0
    5.5062    1.5831    0.0000 H   0  0  0  0  0  0  0  0  0  0  0  0
    5.7331    2.4300    0.0000 H   0  0  0  0  0  0  0  0  0  0  0  0
    4.8862    2.6569    0.0000 H   0  0  0  0  0  0  0  0  0  0  0  0
    9.8363    3.0831    0.0000 H   0  0  0  0  0  0  0  0  0  0  0  0
   10.0632    3.9300    0.0000 H   0  0  0  0  0  0  0  0  0  0  0  0
    9.2163    4.1569    0.0000 H   0  0  0  0  0  0  0  0  0  0  0  0
  1  3  1  0  0  0  0
  1  4  1  0  0  0  0
  1  5  2  0  0  0  0
  1  6  2  0  0  0  0
  3 10  1  0  0  0  0
  7  8  1  0  0  0  0
  7 11  1  0  0  0  0
  7 12  1  0  0  0  0
  7 21  1  0  0  0  0
  8  9  1  0  0  0  0
  8 22  1  0  0  0  0
  8 23  1  0  0  0  0
  9 10  1  0  0  0  0
  9 24  1  0  0  0  0
  9 25  1  0  0  0  0
 10 13  1  0  0  0  0
 10 26  1  0  0  0  0
 11 14  1  0  0  0  0
 11 27  1  0  0  0  0
 11 28  1  0  0  0  0
 12 16  1  0  0  0  0
 12 29  1  0  0  0  0
 12 30  1  0  0  0  0
 13 15  1  0  0  0  0
 13 31  1  0  0  0  0
 13 32  1  0  0  0  0
 14 17  1  0  0  0  0
 14 33  1  0  0  0  0
 14 34  1  0  0  0  0
 15 18  1  0  0  0  0
 15 19  1  0  0  0  0
 15 35  1  0  0  0  0
 16 36  1  0  0  0  0
 16 37  1  0  0  0  0
 16 38  1  0  0  0  0
 17 20  1  0  0  0  0
 17 39  1  0  0  0  0
 17 40  1  0  0  0  0
 18 41  1  0  0  0  0
 18 42  1  0  0  0  0
 18 43  1  0  0  0  0
 19 44  1  0  0  0  0
 19 45  1  0  0  0  0
 19 46  1  0  0  0  0
 20 47  1  0  0  0  0
 20 48  1  0  0  0  0
 20 49  1  0  0  0  0
M  CHG  2   2   1   4  -1
M  END
> <PUBCHEM_COMPOUND_CID>
8770

> <PUBCHEM_COMPOUND_CANONICALIZED>
1

> <PUBCHEM_CACTVS_COMPLEXITY>
293

> <PUBCHEM_CACTVS_HBOND_ACCEPTOR>
4

> <PUBCHEM_CACTVS_HBOND_DONOR>
0

> <PUBCHEM_CACTVS_ROTATABLE_BOND>
10

> <PUBCHEM_CACTVS_SUBSKEYS>
AAADceBwOCBAAAAAAAAAAAAAAAAAAAAAAAAAAAAAAAAAAAAAAAAAGgAAAAAADRSggAICAAAAAAAAAAAAADAAAAAAAAAAAAAAAAAAAAIAAAAAAAAEAAAAAAGAwOAOAAAAAAAAAAAAAAAAAAAAAAAAAAAAAA==

> <PUBCHEM_IUPAC_OPENEYE_NAME>
sodium (4-ethyl-1-isobutyl-octyl) sulfate

> <PUBCHEM_IUPAC_CAS_NAME>
sodium (7-ethyl-2-methylundecan-4-yl) sulfate

> <PUBCHEM_IUPAC_NAME>
sodium (7-ethyl-2-methylundecan-4-yl) sulfate

> <PUBCHEM_IUPAC_SYSTEMATIC_NAME>
sodium (7-ethyl-2-methyl-undecan-4-yl) sulfate

> <PUBCHEM_IUPAC_TRADITIONAL_NAME>
sodium (4-ethyl-1-isobutyl-octyl) sulfate

> <PUBCHEM_IUPAC_INCHI>
InChI=1S/C14H30O4S.Na/c1-5-7-8-13(6-2)9-10-14(11-12(3)4)18-19(15,16)17;/h12-14H,5-11H2,1-4H3,(H,15,16,17);/q;+1/p-1

> <PUBCHEM_IUPAC_INCHIKEY>
FVEFRICMTUKAML-UHFFFAOYSA-M

> <PUBCHEM_EXACT_MASS>
316.168425

> <PUBCHEM_MOLECULAR_FORMULA>
C14H29NaO4S

> <PUBCHEM_MOLECULAR_WEIGHT>
316.432429

> <PUBCHEM_OPENEYE_CAN_SMILES>
CCCCC(CC)CCC(CC(C)C)OS(=O)(=O)[O-].[Na+]

> <PUBCHEM_OPENEYE_ISO_SMILES>
CCCCC(CC)CCC(CC(C)C)OS(=O)(=O)[O-].[Na+]

> <PUBCHEM_CACTVS_TPSA>
74.8

> <PUBCHEM_MONOISOTOPIC_WEIGHT>
316.168425

> <PUBCHEM_TOTAL_CHARGE>
0

> <PUBCHEM_HEAVY_ATOM_COUNT>
20

> <PUBCHEM_ATOM_DEF_STEREO_COUNT>
0

> <PUBCHEM_ATOM_UDEF_STEREO_COUNT>
2

> <PUBCHEM_BOND_DEF_STEREO_COUNT>
0

> <PUBCHEM_BOND_UDEF_STEREO_COUNT>
0

> <PUBCHEM_ISOTOPIC_ATOM_COUNT>
0

> <PUBCHEM_COMPONENT_COUNT>
2

> <PUBCHEM_CACTVS_TAUTO_COUNT>
1

> <PUBCHEM_COORDINATE_TYPE>
1
5
255

> <PUBCHEM_BONDANNOTATIONS>
7  8  3
10  9  3

$$$$

