11044
  -OEChem-06261205152D

 39 39  0     0  0  0  0  0  0999 V2000
    3.7001    4.4766    0.0000 Cl  0  0  0  0  0  0  0  0  0  0  0  0
    2.5981   10.9766    0.0000 S   0  0  0  0  0  0  0  0  0  0  0  0
    2.5981   11.9766    0.0000 O   0  5  0  0  0  0  0  0  0  0  0  0
    3.5981   10.9766    0.0000 O   0  0  0  0  0  0  0  0  0  0  0  0
    1.5981   10.9766    0.0000 O   0  0  0  0  0  0  0  0  0  0  0  0
    0.0000    9.4766    0.0000 O   0  5  0  0  0  0  0  0  0  0  0  0
    5.1962    9.4766    0.0000 O   0  5  0  0  0  0  0  0  0  0  0  0
    0.8660   10.9766    0.0000 O   0  0  0  0  0  0  0  0  0  0  0  0
    4.3301   10.9766    0.0000 O   0  0  0  0  0  0  0  0  0  0  0  0
    1.7320    6.4766    0.0000 O   0  5  0  0  0  0  0  0  0  0  0  0
    3.4641    6.4766    0.0000 O   0  0  0  0  0  0  0  0  0  0  0  0
    1.9681    1.4766    0.0000 N   0  3  0  0  0  0  0  0  0  0  0  0
    0.8660    9.9766    0.0000 N   0  3  0  0  0  0  0  0  0  0  0  0
    4.3301    9.9766    0.0000 N   0  3  0  0  0  0  0  0  0  0  0  0
    2.5981    6.9766    0.0000 N   0  3  0  0  0  0  0  0  0  0  0  0
    1.4681    0.6106    0.0000 C   0  0  0  0  0  0  0  0  0  0  0  0
    2.4681    0.6106    0.0000 C   0  0  0  0  0  0  0  0  0  0  0  0
    2.8341    1.9766    0.0000 C   0  0  0  0  0  0  0  0  0  0  0  0
    2.8341    2.9766    0.0000 C   0  0  0  0  0  0  0  0  0  0  0  0
    3.7001    3.4766    0.0000 C   0  0  0  0  0  0  0  0  0  0  0  0
    2.5981    9.9766    0.0000 C   0  0  0  0  0  0  0  0  0  0  0  0
    1.7320    9.4766    0.0000 C   0  0  0  0  0  0  0  0  0  0  0  0
    3.4641    9.4766    0.0000 C   0  0  0  0  0  0  0  0  0  0  0  0
    2.5981    7.9766    0.0000 C   0  0  0  0  0  0  0  0  0  0  0  0
    1.7320    8.4766    0.0000 C   0  0  0  0  0  0  0  0  0  0  0  0
    3.4641    8.4766    0.0000 C   0  0  0  0  0  0  0  0  0  0  0  0
    1.4311    1.7866    0.0000 H   0  0  0  0  0  0  0  0  0  0  0  0
    0.8855    0.8226    0.0000 H   0  0  0  0  0  0  0  0  0  0  0  0
    1.3604    0.0000    0.0000 H   0  0  0  0  0  0  0  0  0  0  0  0
    2.5757    0.0000    0.0000 H   0  0  0  0  0  0  0  0  0  0  0  0
    3.0507    0.8226    0.0000 H   0  0  0  0  0  0  0  0  0  0  0  0
    3.0461    1.3940    0.0000 H   0  0  0  0  0  0  0  0  0  0  0  0
    3.4447    2.0843    0.0000 H   0  0  0  0  0  0  0  0  0  0  0  0
    2.6220    3.5592    0.0000 H   0  0  0  0  0  0  0  0  0  0  0  0
    2.2235    2.8689    0.0000 H   0  0  0  0  0  0  0  0  0  0  0  0
    3.9122    2.8940    0.0000 H   0  0  0  0  0  0  0  0  0  0  0  0
    4.3107    3.5843    0.0000 H   0  0  0  0  0  0  0  0  0  0  0  0
    1.1951    8.1666    0.0000 H   0  0  0  0  0  0  0  0  0  0  0  0
    4.0010    8.1666    0.0000 H   0  0  0  0  0  0  0  0  0  0  0  0
  1 20  1  0  0  0  0
  2  3  1  0  0  0  0
  2  4  2  0  0  0  0
  2  5  2  0  0  0  0
  2 21  1  0  0  0  0
  6 13  1  0  0  0  0
  7 14  1  0  0  0  0
  8 13  2  0  0  0  0
  9 14  2  0  0  0  0
 10 15  1  0  0  0  0
 11 15  2  0  0  0  0
 12 16  1  0  0  0  0
 12 17  1  0  0  0  0
 12 18  1  0  0  0  0
 12 27  1  0  0  0  0
 13 22  1  0  0  0  0
 14 23  1  0  0  0  0
 15 24  1  0  0  0  0
 16 17  1  0  0  0  0
 16 28  1  0  0  0  0
 16 29  1  0  0  0  0
 17 30  1  0  0  0  0
 17 31  1  0  0  0  0
 18 19  1  0  0  0  0
 18 32  1  0  0  0  0
 18 33  1  0  0  0  0
 19 20  1  0  0  0  0
 19 34  1  0  0  0  0
 19 35  1  0  0  0  0
 20 36  1  0  0  0  0
 20 37  1  0  0  0  0
 21 22  2  0  0  0  0
 21 23  1  0  0  0  0
 22 25  1  0  0  0  0
 23 26  2  0  0  0  0
 24 25  2  0  0  0  0
 24 26  1  0  0  0  0
 25 38  1  0  0  0  0
 26 39  1  0  0  0  0
M  CHG  8   3  -1   6  -1   7  -1  10  -1  12   1  13   1  14   1  15   1
M  END
> <PUBCHEM_COMPOUND_CID>
11044

> <PUBCHEM_COMPOUND_CANONICALIZED>
1

> <PUBCHEM_CACTVS_COMPLEXITY>
509

> <PUBCHEM_CACTVS_HBOND_ACCEPTOR>
9

> <PUBCHEM_CACTVS_HBOND_DONOR>
1

> <PUBCHEM_CACTVS_ROTATABLE_BOND>
3

> <PUBCHEM_CACTVS_SUBSKEYS>
AAADccBzvABEAAAAAAAAAAAAFgAAAAAAAAAwAAAAAAAAAAABAAAAHAYUAAAACAvBUEQwwYPQQAKBACRCQ3DCAEAgAgAgiJQIZooIICKA0dGEIABgkACIyAcQAAAAAAQAAAQAAQAACAAACAACAAAAAAAAAA==

> <PUBCHEM_IUPAC_OPENEYE_NAME>
1-(3-chloropropyl)aziridin-1-ium; 2,4,6-trinitrobenzenesulfonate

> <PUBCHEM_IUPAC_CAS_NAME>
1-(3-chloropropyl)aziridin-1-ium; 2,4,6-trinitrobenzenesulfonate

> <PUBCHEM_IUPAC_NAME>
1-(3-chloropropyl)aziridin-1-ium; 2,4,6-trinitrobenzenesulfonate

> <PUBCHEM_IUPAC_SYSTEMATIC_NAME>
1-(3-chloranylpropyl)aziridin-1-ium; 2,4,6-trinitrobenzenesulfonate

> <PUBCHEM_IUPAC_TRADITIONAL_NAME>
1-(3-chloropropyl)ethylenimin-1-ium; 2,4,6-trinitrobesylate

> <PUBCHEM_IUPAC_INCHI>
InChI=1S/C6H3N3O9S.C5H10ClN/c10-7(11)3-1-4(8(12)13)6(19(16,17)18)5(2-3)9(14)15;6-2-1-3-7-4-5-7/h1-2H,(H,16,17,18);1-5H2

> <PUBCHEM_IUPAC_INCHIKEY>
CODNXQDQAPZBMO-UHFFFAOYSA-N

> <PUBCHEM_EXACT_MASS>
412.009177

> <PUBCHEM_MOLECULAR_FORMULA>
C11H13ClN4O9S

> <PUBCHEM_MOLECULAR_WEIGHT>
412.76032

> <PUBCHEM_OPENEYE_CAN_SMILES>
C1C[NH+]1CCCCl.C1=C(C=C(C(=C1[N+](=O)[O-])S(=O)(=O)[O-])[N+](=O)[O-])[N+](=O)[O-]

> <PUBCHEM_OPENEYE_ISO_SMILES>
C1C[NH+]1CCCCl.C1=C(C=C(C(=C1[N+](=O)[O-])S(=O)(=O)[O-])[N+](=O)[O-])[N+](=O)[O-]

> <PUBCHEM_CACTVS_TPSA>
208

> <PUBCHEM_MONOISOTOPIC_WEIGHT>
412.009177

> <PUBCHEM_TOTAL_CHARGE>
0

> <PUBCHEM_HEAVY_ATOM_COUNT>
26

> <PUBCHEM_ATOM_DEF_STEREO_COUNT>
0

> <PUBCHEM_ATOM_UDEF_STEREO_COUNT>
0

> <PUBCHEM_BOND_DEF_STEREO_COUNT>
0

> <PUBCHEM_BOND_UDEF_STEREO_COUNT>
0

> <PUBCHEM_ISOTOPIC_ATOM_COUNT>
0

> <PUBCHEM_COMPONENT_COUNT>
2

> <PUBCHEM_CACTVS_TAUTO_COUNT>
1

> <PUBCHEM_COORDINATE_TYPE>
1
5
255

> <PUBCHEM_BONDANNOTATIONS>
21  22  8
21  23  8
22  25  8
23  26  8
24  25  8
24  26  8

$$$$

