12848
  -OEChem-06261207272D

 31 32  0     0  0  0  0  0  0999 V2000
    4.2788   -2.6072    0.0000 O   0  0  0  0  0  0  0  0  0  0  0  0
    6.3479    0.2407    0.0000 O   0  0  0  0  0  0  0  0  0  0  0  0
    4.5878   -0.0381    0.0000 N   0  0  0  0  0  0  0  0  0  0  0  0
    5.5388   -1.3471    0.0000 N   0  0  0  0  0  0  0  0  0  0  0  0
    4.0000   -0.8471    0.0000 C   0  0  0  0  0  0  0  0  0  0  0  0
    3.5000   -1.7131    0.0000 C   0  0  0  0  0  0  0  0  0  0  0  0
    3.5000    0.0189    0.0000 C   0  0  0  0  0  0  0  0  0  0  0  0
    2.5000   -1.7131    0.0000 C   0  0  0  0  0  0  0  0  0  0  0  0
    2.5000    0.0189    0.0000 C   0  0  0  0  0  0  0  0  0  0  0  0
    2.0000   -0.8471    0.0000 C   0  0  0  0  0  0  0  0  0  0  0  0
    4.5878   -1.6561    0.0000 C   0  0  0  0  0  0  0  0  0  0  0  0
    5.5388   -0.3471    0.0000 C   0  0  0  0  0  0  0  0  0  0  0  0
    4.2788    0.9130    0.0000 C   0  0  0  0  0  0  0  0  0  0  0  0
    4.9479    1.6561    0.0000 C   0  0  0  0  0  0  0  0  0  0  0  0
    4.6389    2.6072    0.0000 C   0  0  0  0  0  0  0  0  0  0  0  0
    3.3923   -2.3237    0.0000 H   0  0  0  0  0  0  0  0  0  0  0  0
    4.0826   -1.9252    0.0000 H   0  0  0  0  0  0  0  0  0  0  0  0
    4.0826    0.2310    0.0000 H   0  0  0  0  0  0  0  0  0  0  0  0
    3.3923    0.6295    0.0000 H   0  0  0  0  0  0  0  0  0  0  0  0
    1.9174   -1.9252    0.0000 H   0  0  0  0  0  0  0  0  0  0  0  0
    2.6077   -2.3237    0.0000 H   0  0  0  0  0  0  0  0  0  0  0  0
    2.6077    0.6295    0.0000 H   0  0  0  0  0  0  0  0  0  0  0  0
    1.9174    0.2310    0.0000 H   0  0  0  0  0  0  0  0  0  0  0  0
    1.5250   -0.4486    0.0000 H   0  0  0  0  0  0  0  0  0  0  0  0
    1.5250   -1.2456    0.0000 H   0  0  0  0  0  0  0  0  0  0  0  0
    3.8971    1.4015    0.0000 H   0  0  0  0  0  0  0  0  0  0  0  0
    3.7313    0.6219    0.0000 H   0  0  0  0  0  0  0  0  0  0  0  0
    6.0404   -1.7115    0.0000 H   0  0  0  0  0  0  0  0  0  0  0  0
    5.5544    1.5272    0.0000 H   0  0  0  0  0  0  0  0  0  0  0  0
    5.0537    3.0679    0.0000 H   0  0  0  0  0  0  0  0  0  0  0  0
    4.0324    2.7361    0.0000 H   0  0  0  0  0  0  0  0  0  0  0  0
  1 11  2  0  0  0  0
  2 12  2  0  0  0  0
  3  5  1  0  0  0  0
  3 12  1  0  0  0  0
  3 13  1  0  0  0  0
  4 11  1  0  0  0  0
  4 12  1  0  0  0  0
  4 28  1  0  0  0  0
  5  6  1  0  0  0  0
  5  7  1  0  0  0  0
  5 11  1  0  0  0  0
  6  8  1  0  0  0  0
  6 16  1  0  0  0  0
  6 17  1  0  0  0  0
  7  9  1  0  0  0  0
  7 18  1  0  0  0  0
  7 19  1  0  0  0  0
  8 10  1  0  0  0  0
  8 20  1  0  0  0  0
  8 21  1  0  0  0  0
  9 10  1  0  0  0  0
  9 22  1  0  0  0  0
  9 23  1  0  0  0  0
 10 24  1  0  0  0  0
 10 25  1  0  0  0  0
 13 14  1  0  0  0  0
 13 26  1  0  0  0  0
 13 27  1  0  0  0  0
 14 15  2  0  0  0  0
 14 29  1  0  0  0  0
 15 30  1  0  0  0  0
 15 31  1  0  0  0  0
M  END
> <PUBCHEM_COMPOUND_CID>
12848

> <PUBCHEM_COMPOUND_CANONICALIZED>
1

> <PUBCHEM_CACTVS_COMPLEXITY>
306

> <PUBCHEM_CACTVS_HBOND_ACCEPTOR>
2

> <PUBCHEM_CACTVS_HBOND_DONOR>
1

> <PUBCHEM_CACTVS_ROTATABLE_BOND>
2

> <PUBCHEM_CACTVS_SUBSKEYS>
AAADceBzMAAAAAAAAAAAAAAAAAAAAWAAAAAwAAAAAAAAAAAAAAAAHgAQAAAADIjBgAQBAAPAAACIACFSEACAAAAAAAAIAAGIAACAQBIAgSAUAAAIByKAAAEYiACOAAAAAAAAAAAAAAAAAAAAAAAAAAAAAA==

> <PUBCHEM_IUPAC_OPENEYE_NAME>
1-allyl-1,3-diazaspiro[4.5]decane-2,4-dione

> <PUBCHEM_IUPAC_CAS_NAME>
1-prop-2-enyl-1,3-diazaspiro[4.5]decane-2,4-dione

> <PUBCHEM_IUPAC_NAME>
1-prop-2-enyl-1,3-diazaspiro[4.5]decane-2,4-dione

> <PUBCHEM_IUPAC_SYSTEMATIC_NAME>
1-prop-2-enyl-1,3-diazaspiro[4.5]decane-2,4-dione

> <PUBCHEM_IUPAC_TRADITIONAL_NAME>
1-allyl-1,3-diazaspiro[4.5]decane-2,4-quinone

> <PUBCHEM_IUPAC_INCHI>
InChI=1S/C11H16N2O2/c1-2-8-13-10(15)12-9(14)11(13)6-4-3-5-7-11/h2H,1,3-8H2,(H,12,14,15)

> <PUBCHEM_IUPAC_INCHIKEY>
XBLWUGMWYVYEAB-UHFFFAOYSA-N

> <PUBCHEM_XLOGP3_AA>
1.4

> <PUBCHEM_EXACT_MASS>
208.121178

> <PUBCHEM_MOLECULAR_FORMULA>
C11H16N2O2

> <PUBCHEM_MOLECULAR_WEIGHT>
208.25694

> <PUBCHEM_OPENEYE_CAN_SMILES>
C=CCN1C(=O)NC(=O)C12CCCCC2

> <PUBCHEM_OPENEYE_ISO_SMILES>
C=CCN1C(=O)NC(=O)C12CCCCC2

> <PUBCHEM_CACTVS_TPSA>
49.4

> <PUBCHEM_MONOISOTOPIC_WEIGHT>
208.121178

> <PUBCHEM_TOTAL_CHARGE>
0

> <PUBCHEM_HEAVY_ATOM_COUNT>
15

> <PUBCHEM_ATOM_DEF_STEREO_COUNT>
0

> <PUBCHEM_ATOM_UDEF_STEREO_COUNT>
0

> <PUBCHEM_BOND_DEF_STEREO_COUNT>
0

> <PUBCHEM_BOND_UDEF_STEREO_COUNT>
0

> <PUBCHEM_ISOTOPIC_ATOM_COUNT>
0

> <PUBCHEM_COMPONENT_COUNT>
1

> <PUBCHEM_CACTVS_TAUTO_COUNT>
3

> <PUBCHEM_COORDINATE_TYPE>
1
5
255

$$$$

