11212
  -OEChem-06261205242D

 13 13  0     0  0  0  0  0  0999 V2000
    4.3479    1.5784    0.0000 F   0  0  0  0  0  0  0  0  0  0  0  0
    3.1723    1.5784    0.0000 F   0  0  0  0  0  0  0  0  0  0  0  0
    2.0000   -0.1274    0.0000 F   0  0  0  0  0  0  0  0  0  0  0  0
    2.3633    0.9907    0.0000 F   0  0  0  0  0  0  0  0  0  0  0  0
    5.5202   -0.1274    0.0000 F   0  0  0  0  0  0  0  0  0  0  0  0
    5.1569    0.9907    0.0000 F   0  0  0  0  0  0  0  0  0  0  0  0
    2.6723   -1.5784    0.0000 F   0  0  0  0  0  0  0  0  0  0  0  0
    4.8479   -1.5784    0.0000 F   0  0  0  0  0  0  0  0  0  0  0  0
    3.7601    0.7694    0.0000 C   0  0  0  0  0  0  0  0  0  0  0  0
    2.9511    0.1816    0.0000 C   0  0  0  0  0  0  0  0  0  0  0  0
    4.5691    0.1816    0.0000 C   0  0  0  0  0  0  0  0  0  0  0  0
    3.2601   -0.7694    0.0000 C   0  0  0  0  0  0  0  0  0  0  0  0
    4.2601   -0.7694    0.0000 C   0  0  0  0  0  0  0  0  0  0  0  0
  1  9  1  0  0  0  0
  2  9  1  0  0  0  0
  3 10  1  0  0  0  0
  4 10  1  0  0  0  0
  5 11  1  0  0  0  0
  6 11  1  0  0  0  0
  7 12  1  0  0  0  0
  8 13  1  0  0  0  0
  9 10  1  0  0  0  0
  9 11  1  0  0  0  0
 10 12  1  0  0  0  0
 11 13  1  0  0  0  0
 12 13  2  0  0  0  0
M  END
> <PUBCHEM_COMPOUND_CID>
11212

> <PUBCHEM_COMPOUND_CANONICALIZED>
1

> <PUBCHEM_CACTVS_COMPLEXITY>
248

> <PUBCHEM_CACTVS_HBOND_ACCEPTOR>
8

> <PUBCHEM_CACTVS_HBOND_DONOR>
0

> <PUBCHEM_CACTVS_ROTATABLE_BOND>
0

> <PUBCHEM_CACTVS_SUBSKEYS>
AAADcQBgAcAAAAAAAAAAAAAAAAAAAQAAAAAAAAAAAAAAAAAAAAAACQAAAAAACAAAABAAAAAAAACAAABAAAAAAAAgAAAACAAAAAgAAAIAAAAAAAAAgAAIAAIAAAAAAAAAAAAAAAAAAAAAAAAAAAAAAAAAAA==

> <PUBCHEM_IUPAC_OPENEYE_NAME>
1,2,3,3,4,4,5,5-octafluorocyclopentene

> <PUBCHEM_IUPAC_CAS_NAME>
1,2,3,3,4,4,5,5-octafluorocyclopentene

> <PUBCHEM_IUPAC_NAME>
1,2,3,3,4,4,5,5-octafluorocyclopentene

> <PUBCHEM_IUPAC_SYSTEMATIC_NAME>
1,2,3,3,4,4,5,5-octakis(fluoranyl)cyclopentene

> <PUBCHEM_IUPAC_TRADITIONAL_NAME>
1,2,3,3,4,4,5,5-octafluorocyclopentene

> <PUBCHEM_IUPAC_INCHI>
InChI=1S/C5F8/c6-1-2(7)4(10,11)5(12,13)3(1,8)9

> <PUBCHEM_IUPAC_INCHIKEY>
YBMDPYAEZDJWNY-UHFFFAOYSA-N

> <PUBCHEM_XLOGP3_AA>
2.1

> <PUBCHEM_EXACT_MASS>
211.987226

> <PUBCHEM_MOLECULAR_FORMULA>
C5F8

> <PUBCHEM_MOLECULAR_WEIGHT>
212.040726

> <PUBCHEM_OPENEYE_CAN_SMILES>
C1(=C(C(C(C1(F)F)(F)F)(F)F)F)F

> <PUBCHEM_OPENEYE_ISO_SMILES>
C1(=C(C(C(C1(F)F)(F)F)(F)F)F)F

> <PUBCHEM_CACTVS_TPSA>
0

> <PUBCHEM_MONOISOTOPIC_WEIGHT>
211.987226

> <PUBCHEM_TOTAL_CHARGE>
0

> <PUBCHEM_HEAVY_ATOM_COUNT>
13

> <PUBCHEM_ATOM_DEF_STEREO_COUNT>
0

> <PUBCHEM_ATOM_UDEF_STEREO_COUNT>
0

> <PUBCHEM_BOND_DEF_STEREO_COUNT>
0

> <PUBCHEM_BOND_UDEF_STEREO_COUNT>
0

> <PUBCHEM_ISOTOPIC_ATOM_COUNT>
0

> <PUBCHEM_COMPONENT_COUNT>
1

> <PUBCHEM_CACTVS_TAUTO_COUNT>
1

> <PUBCHEM_COORDINATE_TYPE>
1
5
255

$$$$

