47205516
  -OEChem-06241222592D

 30 31  0     0  0  0  0  0  0999 V2000
    4.5032   -0.7934    0.0000 S   0  0  0  0  0  0  0  0  0  0  0  0
   10.9607   -0.7455    0.0000 O   0  0  0  0  0  0  0  0  0  0  0  0
    8.1654   -1.1327    0.0000 O   0  0  0  0  0  0  0  0  0  0  0  0
    6.7985    1.1327    0.0000 O   0  0  0  0  0  0  0  0  0  0  0  0
    8.7006    0.5146    0.0000 N   0  0  0  0  0  0  0  0  0  0  0  0
    6.2633   -0.5146    0.0000 N   0  0  0  0  0  0  0  0  0  0  0  0
    4.0032    0.7455    0.0000 N   0  0  0  0  0  0  0  0  0  0  0  0
    5.0032    0.7455    0.0000 N   0  0  0  0  0  0  0  0  0  0  0  0
    9.9607   -0.7455    0.0000 N   0  0  0  0  0  0  0  0  0  0  0  0
    2.7431   -0.5146    0.0000 C   0  0  0  0  0  0  0  0  0  0  0  0
    3.6942   -0.2056    0.0000 C   0  0  0  0  0  0  0  0  0  0  0  0
    2.0000    0.1545    0.0000 C   0  0  0  0  0  0  0  0  0  0  0  0
    9.6517    0.2056    0.0000 C   0  0  0  0  0  0  0  0  0  0  0  0
    5.3122   -0.2056    0.0000 C   0  0  0  0  0  0  0  0  0  0  0  0
   11.2697    0.2056    0.0000 C   0  0  0  0  0  0  0  0  0  0  0  0
   10.4607    0.7934    0.0000 C   0  0  0  0  0  0  0  0  0  0  0  0
    7.9575   -0.1545    0.0000 C   0  0  0  0  0  0  0  0  0  0  0  0
    7.0064    0.1545    0.0000 C   0  0  0  0  0  0  0  0  0  0  0  0
   12.2208    0.5146    0.0000 C   0  0  0  0  0  0  0  0  0  0  0  0
    2.2546   -0.8963    0.0000 H   0  0  0  0  0  0  0  0  0  0  0  0
    3.0342   -1.0620    0.0000 H   0  0  0  0  0  0  0  0  0  0  0  0
    2.4149    0.6153    0.0000 H   0  0  0  0  0  0  0  0  0  0  0  0
    1.5392    0.5694    0.0000 H   0  0  0  0  0  0  0  0  0  0  0  0
    1.5851   -0.3062    0.0000 H   0  0  0  0  0  0  0  0  0  0  0  0
   10.4607    1.4134    0.0000 H   0  0  0  0  0  0  0  0  0  0  0  0
    8.5717    1.1211    0.0000 H   0  0  0  0  0  0  0  0  0  0  0  0
    6.3922   -1.1211    0.0000 H   0  0  0  0  0  0  0  0  0  0  0  0
   12.4124   -0.0750    0.0000 H   0  0  0  0  0  0  0  0  0  0  0  0
   12.8104    0.7062    0.0000 H   0  0  0  0  0  0  0  0  0  0  0  0
   12.0292    1.1043    0.0000 H   0  0  0  0  0  0  0  0  0  0  0  0
  1 11  1  0  0  0  0
  1 14  1  0  0  0  0
  2  9  1  0  0  0  0
  2 15  1  0  0  0  0
  3 17  2  0  0  0  0
  4 18  2  0  0  0  0
  5 13  1  0  0  0  0
  5 17  1  0  0  0  0
  5 26  1  0  0  0  0
  6 14  1  0  0  0  0
  6 18  1  0  0  0  0
  6 27  1  0  0  0  0
  7  8  1  0  0  0  0
  7 11  2  0  0  0  0
  8 14  2  0  0  0  0
  9 13  2  0  0  0  0
 10 11  1  0  0  0  0
 10 12  1  0  0  0  0
 10 20  1  0  0  0  0
 10 21  1  0  0  0  0
 12 22  1  0  0  0  0
 12 23  1  0  0  0  0
 12 24  1  0  0  0  0
 13 16  1  0  0  0  0
 15 16  2  0  0  0  0
 15 19  1  0  0  0  0
 16 25  1  0  0  0  0
 17 18  1  0  0  0  0
 19 28  1  0  0  0  0
 19 29  1  0  0  0  0
 19 30  1  0  0  0  0
M  END
> <PUBCHEM_COMPOUND_CID>
47205516

> <PUBCHEM_COMPOUND_CANONICALIZED>
1

> <PUBCHEM_CACTVS_COMPLEXITY>
356

> <PUBCHEM_CACTVS_HBOND_ACCEPTOR>
7

> <PUBCHEM_CACTVS_HBOND_DONOR>
2

> <PUBCHEM_CACTVS_ROTATABLE_BOND>
3

> <PUBCHEM_CACTVS_SUBSKEYS>
AAADccBzsABAAAAAAAAAAAAAAAAAAWLAAAAAAAAAAAAAAAAB4AAAHgQcAAAACASB0gAztJLQAAivAKNycgCQAIJlIhk1GCG2bFqAZAhgiaAUAIhSHQrAQEAAAAAAAAAAAAAAAAAAAAAAAAAAAAAAAAAAAA==

> <PUBCHEM_IUPAC_OPENEYE_NAME>
N'-(5-ethyl-1,3,4-thiadiazol-2-yl)-N-(5-methylisoxazol-3-yl)oxamide

> <PUBCHEM_IUPAC_CAS_NAME>
N'-(5-ethyl-1,3,4-thiadiazol-2-yl)-N-(5-methyl-3-isoxazolyl)oxamide

> <PUBCHEM_IUPAC_NAME>
N'-(5-ethyl-1,3,4-thiadiazol-2-yl)-N-(5-methyl-1,2-oxazol-3-yl)oxamide

> <PUBCHEM_IUPAC_SYSTEMATIC_NAME>
N'-(5-ethyl-1,3,4-thiadiazol-2-yl)-N-(5-methyl-1,2-oxazol-3-yl)ethanediamide

> <PUBCHEM_IUPAC_TRADITIONAL_NAME>
N'-(5-ethyl-1,3,4-thiadiazol-2-yl)-N-(5-methylisoxazol-3-yl)oxamide

> <PUBCHEM_IUPAC_INCHI>
InChI=1S/C10H11N5O3S/c1-3-7-13-14-10(19-7)12-9(17)8(16)11-6-4-5(2)18-15-6/h4H,3H2,1-2H3,(H,11,15,16)(H,12,14,17)

> <PUBCHEM_IUPAC_INCHIKEY>
MJHNHGDIYCPYTG-UHFFFAOYSA-N

> <PUBCHEM_XLOGP3_AA>
1.2

> <PUBCHEM_EXACT_MASS>
281.05826

> <PUBCHEM_MOLECULAR_FORMULA>
C10H11N5O3S

> <PUBCHEM_MOLECULAR_WEIGHT>
281.29104

> <PUBCHEM_OPENEYE_CAN_SMILES>
CCC1=NN=C(S1)NC(=O)C(=O)NC2=NOC(=C2)C

> <PUBCHEM_OPENEYE_ISO_SMILES>
CCC1=NN=C(S1)NC(=O)C(=O)NC2=NOC(=C2)C

> <PUBCHEM_CACTVS_TPSA>
138

> <PUBCHEM_MONOISOTOPIC_WEIGHT>
281.05826

> <PUBCHEM_TOTAL_CHARGE>
0

> <PUBCHEM_HEAVY_ATOM_COUNT>
19

> <PUBCHEM_ATOM_DEF_STEREO_COUNT>
0

> <PUBCHEM_ATOM_UDEF_STEREO_COUNT>
0

> <PUBCHEM_BOND_DEF_STEREO_COUNT>
0

> <PUBCHEM_BOND_UDEF_STEREO_COUNT>
0

> <PUBCHEM_ISOTOPIC_ATOM_COUNT>
0

> <PUBCHEM_COMPONENT_COUNT>
1

> <PUBCHEM_CACTVS_TAUTO_COUNT>
24

> <PUBCHEM_COORDINATE_TYPE>
1
5
255

> <PUBCHEM_BONDANNOTATIONS>
1  11  8
1  14  8
13  16  8
15  16  8
2  15  8
2  9  8
7  11  8
7  8  8
8  14  8
9  13  8

$$$$

