13125
  -OEChem-06261207472D

 66 70  0     1  0  0  0  0  0999 V2000
    9.1251   -2.0254    0.0000 O   0  0  0  0  0  0  0  0  0  0  0  0
    3.7320   -3.0778    0.0000 O   0  0  0  0  0  0  0  0  0  0  0  0
   10.3848    2.8479    0.0000 O   0  0  0  0  0  0  0  0  0  0  0  0
   12.1454    3.1236    0.0000 O   0  0  0  0  0  0  0  0  0  0  0  0
    2.8718   -1.5744    0.0000 O   0  0  0  0  0  0  0  0  0  0  0  0
    9.1251   -1.0254    0.0000 C   0  0  1  0  0  0  0  0  0  0  0  0
    8.2591   -1.5254    0.0000 C   0  0  3  0  0  0  0  0  0  0  0  0
    7.3931   -1.0254    0.0000 C   0  0  3  0  0  0  0  0  0  0  0  0
    9.1251   -0.0254    0.0000 C   0  0  2  0  0  0  0  0  0  0  0  0
    6.4831   -1.5323    0.0000 C   0  0  2  0  0  0  0  0  0  0  0  0
    6.4750   -2.5739    0.0000 C   0  0  2  0  0  0  0  0  0  0  0  0
    7.3931   -0.0254    0.0000 C   0  0  0  0  0  0  0  0  0  0  0  0
    8.2591    0.4746    0.0000 C   0  0  0  0  0  0  0  0  0  0  0  0
   10.0713    0.2793    0.0000 C   0  0  2  0  0  0  0  0  0  0  0  0
    8.2752   -2.5669    0.0000 C   0  0  0  0  0  0  0  0  0  0  0  0
   10.0713   -1.3302    0.0000 C   0  0  0  0  0  0  0  0  0  0  0  0
    7.3771   -3.0947    0.0000 C   0  0  0  0  0  0  0  0  0  0  0  0
   10.6550   -0.5254    0.0000 C   0  0  0  0  0  0  0  0  0  0  0  0
    5.5562   -0.9682    0.0000 C   0  0  0  0  0  0  0  0  0  0  0  0
    5.5396   -3.1236    0.0000 C   0  0  0  0  0  0  0  0  0  0  0  0
    9.1251    0.9746    0.0000 C   0  0  0  0  0  0  0  0  0  0  0  0
    6.4908   -0.5323    0.0000 C   0  0  0  0  0  0  0  0  0  0  0  0
    4.6084   -1.4961    0.0000 C   0  0  0  0  0  0  0  0  0  0  0  0
    4.6000   -2.5811    0.0000 C   0  0  2  0  0  0  0  0  0  0  0  0
   10.3820    1.2298    0.0000 C   0  0  0  0  0  0  0  0  0  0  0  0
    9.7956    2.0399    0.0000 C   0  0  0  0  0  0  0  0  0  0  0  0
   11.3336    1.5372    0.0000 C   0  0  0  0  0  0  0  0  0  0  0  0
   11.3353    2.5372    0.0000 C   0  0  0  0  0  0  0  0  0  0  0  0
    2.8680   -2.5744    0.0000 C   0  0  0  0  0  0  0  0  0  0  0  0
    2.0000   -3.0711    0.0000 C   0  0  0  0  0  0  0  0  0  0  0  0
    8.7984   -1.8313    0.0000 H   0  0  0  0  0  0  0  0  0  0  0  0
    7.9300   -0.7154    0.0000 H   0  0  0  0  0  0  0  0  0  0  0  0
    6.4783   -3.4239    0.0000 H   0  0  0  0  0  0  0  0  0  0  0  0
    7.1810    0.5572    0.0000 H   0  0  0  0  0  0  0  0  0  0  0  0
    6.7825   -0.1331    0.0000 H   0  0  0  0  0  0  0  0  0  0  0  0
    8.6576    0.9495    0.0000 H   0  0  0  0  0  0  0  0  0  0  0  0
    7.8606    0.9495    0.0000 H   0  0  0  0  0  0  0  0  0  0  0  0
   10.6838    0.3755    0.0000 H   0  0  0  0  0  0  0  0  0  0  0  0
    8.4932   -3.1473    0.0000 H   0  0  0  0  0  0  0  0  0  0  0  0
    8.8843   -2.4514    0.0000 H   0  0  0  0  0  0  0  0  0  0  0  0
    9.8203   -1.8971    0.0000 H   0  0  0  0  0  0  0  0  0  0  0  0
   10.6087   -1.6394    0.0000 H   0  0  0  0  0  0  0  0  0  0  0  0
    6.9798   -3.5706    0.0000 H   0  0  0  0  0  0  0  0  0  0  0  0
    7.7781   -3.5676    0.0000 H   0  0  0  0  0  0  0  0  0  0  0  0
   11.1158   -0.9401    0.0000 H   0  0  0  0  0  0  0  0  0  0  0  0
   11.1158   -0.1107    0.0000 H   0  0  0  0  0  0  0  0  0  0  0  0
    5.9644   -0.5015    0.0000 H   0  0  0  0  0  0  0  0  0  0  0  0
    5.1663   -0.4861    0.0000 H   0  0  0  0  0  0  0  0  0  0  0  0
    5.1423   -3.5996    0.0000 H   0  0  0  0  0  0  0  0  0  0  0  0
    5.9406   -3.5965    0.0000 H   0  0  0  0  0  0  0  0  0  0  0  0
    9.7451    0.9746    0.0000 H   0  0  0  0  0  0  0  0  0  0  0  0
    9.1251    1.5946    0.0000 H   0  0  0  0  0  0  0  0  0  0  0  0
    8.5051    0.9746    0.0000 H   0  0  0  0  0  0  0  0  0  0  0  0
    7.1108   -0.5371    0.0000 H   0  0  0  0  0  0  0  0  0  0  0  0
    6.4956    0.0877    0.0000 H   0  0  0  0  0  0  0  0  0  0  0  0
    5.8708   -0.5275    0.0000 H   0  0  0  0  0  0  0  0  0  0  0  0
    4.4038   -0.9108    0.0000 H   0  0  0  0  0  0  0  0  0  0  0  0
    3.9967   -1.5975    0.0000 H   0  0  0  0  0  0  0  0  0  0  0  0
    4.0648   -2.2680    0.0000 H   0  0  0  0  0  0  0  0  0  0  0  0
    9.6621   -2.3354    0.0000 H   0  0  0  0  0  0  0  0  0  0  0  0
    9.3356    2.4555    0.0000 H   0  0  0  0  0  0  0  0  0  0  0  0
    9.3342    1.6258    0.0000 H   0  0  0  0  0  0  0  0  0  0  0  0
   11.8346    1.1719    0.0000 H   0  0  0  0  0  0  0  0  0  0  0  0
    1.6921   -2.5330    0.0000 H   0  0  0  0  0  0  0  0  0  0  0  0
    1.4619   -3.3790    0.0000 H   0  0  0  0  0  0  0  0  0  0  0  0
    2.3079   -3.6092    0.0000 H   0  0  0  0  0  0  0  0  0  0  0  0
  6  1  1  1  0  0  0
  1 60  1  0  0  0  0
 24  2  1  1  0  0  0
  2 29  1  0  0  0  0
  3 26  1  0  0  0  0
  3 28  1  0  0  0  0
  4 28  2  0  0  0  0
  5 29  2  0  0  0  0
  6  7  1  0  0  0  0
  6  9  1  0  0  0  0
  6 16  1  0  0  0  0
  7  8  1  0  0  0  0
  7 15  1  0  0  0  0
  7 31  1  0  0  0  0
  8 10  1  0  0  0  0
  8 12  1  0  0  0  0
  8 32  1  0  0  0  0
  9 13  1  0  0  0  0
  9 14  1  0  0  0  0
  9 21  1  1  0  0  0
 10 11  1  0  0  0  0
 10 19  1  0  0  0  0
 10 22  1  1  0  0  0
 11 17  1  0  0  0  0
 11 20  1  0  0  0  0
 11 33  1  1  0  0  0
 12 13  1  0  0  0  0
 12 34  1  0  0  0  0
 12 35  1  0  0  0  0
 13 36  1  0  0  0  0
 13 37  1  0  0  0  0
 14 18  1  0  0  0  0
 14 25  1  1  0  0  0
 14 38  1  0  0  0  0
 15 17  1  0  0  0  0
 15 39  1  0  0  0  0
 15 40  1  0  0  0  0
 16 18  1  0  0  0  0
 16 41  1  0  0  0  0
 16 42  1  0  0  0  0
 17 43  1  0  0  0  0
 17 44  1  0  0  0  0
 18 45  1  0  0  0  0
 18 46  1  0  0  0  0
 19 23  1  0  0  0  0
 19 47  1  0  0  0  0
 19 48  1  0  0  0  0
 20 24  1  0  0  0  0
 20 49  1  0  0  0  0
 20 50  1  0  0  0  0
 21 51  1  0  0  0  0
 21 52  1  0  0  0  0
 21 53  1  0  0  0  0
 22 54  1  0  0  0  0
 22 55  1  0  0  0  0
 22 56  1  0  0  0  0
 23 24  1  0  0  0  0
 23 57  1  0  0  0  0
 23 58  1  0  0  0  0
 24 59  1  0  0  0  0
 25 26  1  0  0  0  0
 25 27  2  0  0  0  0
 26 61  1  0  0  0  0
 26 62  1  0  0  0  0
 27 28  1  0  0  0  0
 27 63  1  0  0  0  0
 29 30  1  0  0  0  0
 30 64  1  0  0  0  0
 30 65  1  0  0  0  0
 30 66  1  0  0  0  0
M  END
> <PUBCHEM_COMPOUND_CID>
13125

> <PUBCHEM_COMPOUND_CANONICALIZED>
1

> <PUBCHEM_CACTVS_COMPLEXITY>
788

> <PUBCHEM_CACTVS_HBOND_ACCEPTOR>
5

> <PUBCHEM_CACTVS_HBOND_DONOR>
1

> <PUBCHEM_CACTVS_ROTATABLE_BOND>
3

> <PUBCHEM_CACTVS_SUBSKEYS>
AAADcfB4OAAAAAAAAAAAAAAAAAAAAYIAAAAwYMAAAAAAAGDAAAAAGgAACAAAD1SggAICCAAABgCIAiDSCAAAAAAgAAAACAAAAEgABAIAIQACUAAEgAAIIQOA4PwPgAAAAAAAAADAAAYAADAAAYAADAAAAA==

> <PUBCHEM_IUPAC_OPENEYE_NAME>
[(3S,5R,10S,13R,14S,17R)-14-hydroxy-10,13-dimethyl-17-(5-oxo-2H-furan-3-yl)-1,2,3,4,5,6,7,8,9,11,12,15,16,17-tetradecahydrocyclopenta[a]phenanthren-3-yl] acetate

> <PUBCHEM_IUPAC_CAS_NAME>
acetic acid [(3S,5R,10S,13R,14S,17R)-14-hydroxy-10,13-dimethyl-17-(5-oxo-2H-furan-3-yl)-1,2,3,4,5,6,7,8,9,11,12,15,16,17-tetradecahydrocyclopenta[a]phenanthren-3-yl] ester

> <PUBCHEM_IUPAC_NAME>
[(3S,5R,10S,13R,14S,17R)-14-hydroxy-10,13-dimethyl-17-(5-oxo-2H-furan-3-yl)-1,2,3,4,5,6,7,8,9,11,12,15,16,17-tetradecahydrocyclopenta[a]phenanthren-3-yl] acetate

> <PUBCHEM_IUPAC_SYSTEMATIC_NAME>
[(3S,5R,10S,13R,14S,17R)-10,13-dimethyl-14-oxidanyl-17-(5-oxidanylidene-2H-furan-3-yl)-1,2,3,4,5,6,7,8,9,11,12,15,16,17-tetradecahydrocyclopenta[a]phenanthren-3-yl] ethanoate

> <PUBCHEM_IUPAC_TRADITIONAL_NAME>
acetic acid [(3S,5R,10S,13R,14S,17R)-14-hydroxy-17-(5-keto-2H-furan-3-yl)-10,13-dimethyl-1,2,3,4,5,6,7,8,9,11,12,15,16,17-tetradecahydrocyclopenta[a]phenanthren-3-yl] ester

> <PUBCHEM_IUPAC_INCHI>
InChI=1S/C25H36O5/c1-15(26)30-18-6-9-23(2)17(13-18)4-5-21-20(23)7-10-24(3)19(8-11-25(21,24)28)16-12-22(27)29-14-16/h12,17-21,28H,4-11,13-14H2,1-3H3/t17-,18+,19-,20?,21?,23+,24-,25+/m1/s1

> <PUBCHEM_IUPAC_INCHIKEY>
WJOGTCZNZPHODB-QWTCUPQZSA-N

> <PUBCHEM_XLOGP3>
3.2

> <PUBCHEM_EXACT_MASS>
416.256274

> <PUBCHEM_MOLECULAR_FORMULA>
C25H36O5

> <PUBCHEM_MOLECULAR_WEIGHT>
416.55034

> <PUBCHEM_OPENEYE_CAN_SMILES>
CC(=O)OC1CCC2(C(C1)CCC3C2CCC4(C3(CCC4C5=CC(=O)OC5)O)C)C

> <PUBCHEM_OPENEYE_ISO_SMILES>
CC(=O)O[C@H]1CC[C@]2([C@@H](C1)CCC3C2CC[C@]4([C@@]3(CC[C@@H]4C5=CC(=O)OC5)O)C)C

> <PUBCHEM_CACTVS_TPSA>
72.8

> <PUBCHEM_MONOISOTOPIC_WEIGHT>
416.256274

> <PUBCHEM_TOTAL_CHARGE>
0

> <PUBCHEM_HEAVY_ATOM_COUNT>
30

> <PUBCHEM_ATOM_DEF_STEREO_COUNT>
6

> <PUBCHEM_ATOM_UDEF_STEREO_COUNT>
2

> <PUBCHEM_BOND_DEF_STEREO_COUNT>
0

> <PUBCHEM_BOND_UDEF_STEREO_COUNT>
0

> <PUBCHEM_ISOTOPIC_ATOM_COUNT>
0

> <PUBCHEM_COMPONENT_COUNT>
1

> <PUBCHEM_CACTVS_TAUTO_COUNT>
1

> <PUBCHEM_COORDINATE_TYPE>
1
5
255

> <PUBCHEM_BONDANNOTATIONS>
6  1  5
10  22  5
11  33  5
14  25  5
24  2  5
7  15  3
8  12  3
9  21  5

$$$$

