11689
  -OEChem-06261205592D

 37 41  0     0  0  0  0  0  0999 V2000
    7.8167    2.9155    0.0000 Br  0  0  0  0  0  0  0  0  0  0  0  0
    4.3198    2.9155    0.0000 Br  0  0  0  0  0  0  0  0  0  0  0  0
    5.2592   -0.7069    0.0000 O   0  0  0  0  0  0  0  0  0  0  0  0
    6.0682    1.8809    0.0000 O   0  0  0  0  0  0  0  0  0  0  0  0
    4.9805   -2.4669    0.0000 O   0  0  0  0  0  0  0  0  0  0  0  0
    2.5381    1.9051    0.0000 O   0  0  0  0  0  0  0  0  0  0  0  0
    9.5984    1.9051    0.0000 O   0  0  0  0  0  0  0  0  0  0  0  0
    6.0682   -0.1191    0.0000 C   0  0  0  0  0  0  0  0  0  0  0  0
    6.8773   -0.7069    0.0000 C   0  0  0  0  0  0  0  0  0  0  0  0
    5.2022    0.3809    0.0000 C   0  0  0  0  0  0  0  0  0  0  0  0
    6.9343    0.3809    0.0000 C   0  0  0  0  0  0  0  0  0  0  0  0
    6.5682   -1.6579    0.0000 C   0  0  0  0  0  0  0  0  0  0  0  0
    6.9343    1.3809    0.0000 C   0  0  0  0  0  0  0  0  0  0  0  0
    5.2022    1.3809    0.0000 C   0  0  0  0  0  0  0  0  0  0  0  0
    5.5682   -1.6579    0.0000 C   0  0  0  0  0  0  0  0  0  0  0  0
    7.8728   -1.0134    0.0000 C   0  0  0  0  0  0  0  0  0  0  0  0
    4.3083   -0.1537    0.0000 C   0  0  0  0  0  0  0  0  0  0  0  0
    7.8282   -0.1537    0.0000 C   0  0  0  0  0  0  0  0  0  0  0  0
    6.7691   -2.6800    0.0000 C   0  0  0  0  0  0  0  0  0  0  0  0
    4.3083    1.9156    0.0000 C   0  0  0  0  0  0  0  0  0  0  0  0
    7.8282    1.9156    0.0000 C   0  0  0  0  0  0  0  0  0  0  0  0
    3.4022    0.3601    0.0000 C   0  0  0  0  0  0  0  0  0  0  0  0
    8.7343    0.3601    0.0000 C   0  0  0  0  0  0  0  0  0  0  0  0
    8.2419   -2.1246    0.0000 C   0  0  0  0  0  0  0  0  0  0  0  0
    3.4022    1.4018    0.0000 C   0  0  0  0  0  0  0  0  0  0  0  0
    8.7343    1.4018    0.0000 C   0  0  0  0  0  0  0  0  0  0  0  0
    7.6125   -2.9155    0.0000 C   0  0  0  0  0  0  0  0  0  0  0  0
    8.3063   -0.5702    0.0000 H   0  0  0  0  0  0  0  0  0  0  0  0
    7.8210   -0.7737    0.0000 H   0  0  0  0  0  0  0  0  0  0  0  0
    4.3154   -0.7737    0.0000 H   0  0  0  0  0  0  0  0  0  0  0  0
    6.3139   -3.1009    0.0000 H   0  0  0  0  0  0  0  0  0  0  0  0
    9.2700    0.0481    0.0000 H   0  0  0  0  0  0  0  0  0  0  0  0
    2.8665    0.0481    0.0000 H   0  0  0  0  0  0  0  0  0  0  0  0
    8.8523   -2.2329    0.0000 H   0  0  0  0  0  0  0  0  0  0  0  0
    7.8035   -3.5054    0.0000 H   0  0  0  0  0  0  0  0  0  0  0  0
   10.1365    1.5972    0.0000 H   0  0  0  0  0  0  0  0  0  0  0  0
    2.0000    1.5972    0.0000 H   0  0  0  0  0  0  0  0  0  0  0  0
  1 21  1  0  0  0  0
  2 20  1  0  0  0  0
  3  8  1  0  0  0  0
  3 15  1  0  0  0  0
  4 13  1  0  0  0  0
  4 14  1  0  0  0  0
  5 15  2  0  0  0  0
  6 25  1  0  0  0  0
  6 37  1  0  0  0  0
  7 26  1  0  0  0  0
  7 36  1  0  0  0  0
  8  9  1  0  0  0  0
  8 10  1  0  0  0  0
  8 11  1  0  0  0  0
  9 12  1  0  0  0  0
  9 16  2  0  0  0  0
 10 14  2  0  0  0  0
 10 17  1  0  0  0  0
 11 13  2  0  0  0  0
 11 18  1  0  0  0  0
 12 15  1  0  0  0  0
 12 19  2  0  0  0  0
 13 21  1  0  0  0  0
 14 20  1  0  0  0  0
 16 24  1  0  0  0  0
 16 28  1  0  0  0  0
 17 22  2  0  0  0  0
 17 30  1  0  0  0  0
 18 23  2  0  0  0  0
 18 29  1  0  0  0  0
 19 27  1  0  0  0  0
 19 31  1  0  0  0  0
 20 25  2  0  0  0  0
 21 26  2  0  0  0  0
 22 25  1  0  0  0  0
 22 33  1  0  0  0  0
 23 26  1  0  0  0  0
 23 32  1  0  0  0  0
 24 27  2  0  0  0  0
 24 34  1  0  0  0  0
 27 35  1  0  0  0  0
M  END
> <PUBCHEM_COMPOUND_CID>
11689

> <PUBCHEM_COMPOUND_CANONICALIZED>
1

> <PUBCHEM_CACTVS_COMPLEXITY>
585

> <PUBCHEM_CACTVS_HBOND_ACCEPTOR>
5

> <PUBCHEM_CACTVS_HBOND_DONOR>
2

> <PUBCHEM_CACTVS_ROTATABLE_BOND>
0

> <PUBCHEM_CACTVS_SUBSKEYS>
AAADccB4OAAAGAAAAAAAAAAAAAAAASAAAAA0YMEAAAAAAEiRUAAAGgBACAABrESAmAAwDoAABgCIAiDSCAACCAAkIAQIiAEGCOgMJzKGNRqCeSClwBUIu5eK6PyOoAAAGAAYBABAAAAwADAIAAAAAAAAAA==

> <PUBCHEM_IUPAC_OPENEYE_NAME>
4',5'-dibromo-3',6'-dihydroxy-spiro[isobenzofuran-3,9'-xanthene]-1-one

> <PUBCHEM_IUPAC_CAS_NAME>
4',5'-dibromo-3',6'-dihydroxy-1-spiro[isobenzofuran-3,9'-xanthene]one

> <PUBCHEM_IUPAC_NAME>
4',5'-dibromo-3',6'-dihydroxyspiro[2-benzofuran-3,9'-xanthene]-1-one

> <PUBCHEM_IUPAC_SYSTEMATIC_NAME>
4',5'-bis(bromanyl)-3',6'-bis(oxidanyl)spiro[2-benzofuran-3,9'-xanthene]-1-one

> <PUBCHEM_IUPAC_TRADITIONAL_NAME>
4',5'-dibromo-3',6'-dihydroxy-spiro[phthalan-3,9'-xanthene]-1-one

> <PUBCHEM_IUPAC_INCHI>
InChI=1S/C20H10Br2O5/c21-15-13(23)7-5-11-17(15)26-18-12(6-8-14(24)16(18)22)20(11)10-4-2-1-3-9(10)19(25)27-20/h1-8,23-24H

> <PUBCHEM_IUPAC_INCHIKEY>
ZDTNHRWWURISAA-UHFFFAOYSA-N

> <PUBCHEM_XLOGP3_AA>
4.8

> <PUBCHEM_EXACT_MASS>
489.887451

> <PUBCHEM_MOLECULAR_FORMULA>
C20H10Br2O5

> <PUBCHEM_MOLECULAR_WEIGHT>
490.0984

> <PUBCHEM_OPENEYE_CAN_SMILES>
C1=CC=C2C(=C1)C(=O)OC23C4=C(C(=C(C=C4)O)Br)OC5=C3C=CC(=C5Br)O

> <PUBCHEM_OPENEYE_ISO_SMILES>
C1=CC=C2C(=C1)C(=O)OC23C4=C(C(=C(C=C4)O)Br)OC5=C3C=CC(=C5Br)O

> <PUBCHEM_CACTVS_TPSA>
76

> <PUBCHEM_MONOISOTOPIC_WEIGHT>
487.889498

> <PUBCHEM_TOTAL_CHARGE>
0

> <PUBCHEM_HEAVY_ATOM_COUNT>
27

> <PUBCHEM_ATOM_DEF_STEREO_COUNT>
0

> <PUBCHEM_ATOM_UDEF_STEREO_COUNT>
0

> <PUBCHEM_BOND_DEF_STEREO_COUNT>
0

> <PUBCHEM_BOND_UDEF_STEREO_COUNT>
0

> <PUBCHEM_ISOTOPIC_ATOM_COUNT>
0

> <PUBCHEM_COMPONENT_COUNT>
1

> <PUBCHEM_CACTVS_TAUTO_COUNT>
5

> <PUBCHEM_COORDINATE_TYPE>
1
5
255

> <PUBCHEM_BONDANNOTATIONS>
10  14  8
10  17  8
11  13  8
11  18  8
12  19  8
13  21  8
14  20  8
16  24  8
17  22  8
18  23  8
19  27  8
20  25  8
21  26  8
22  25  8
23  26  8
24  27  8
9  12  8
9  16  8

$$$$

