47205310
  -OEChem-06241222582D

 30 31  0     0  0  0  0  0  0999 V2000
    2.0000   -1.1012    0.0000 F   0  0  0  0  0  0  0  0  0  0  0  0
    2.8660   -2.6012    0.0000 F   0  0  0  0  0  0  0  0  0  0  0  0
    3.7320   -1.1012    0.0000 O   0  0  0  0  0  0  0  0  0  0  0  0
    4.5981    0.3988    0.0000 O   0  0  0  0  0  0  0  0  0  0  0  0
    6.3301    0.3988    0.0000 N   0  0  0  0  0  0  0  0  0  0  0  0
    8.1097    1.4921    0.0000 N   0  0  0  0  0  0  0  0  0  0  0  0
    8.7788    2.2352    0.0000 N   0  0  0  0  0  0  0  0  0  0  0  0
    6.3301    1.3988    0.0000 C   0  0  0  0  0  0  0  0  0  0  0  0
    5.4641   -1.1012    0.0000 C   0  0  0  0  0  0  0  0  0  0  0  0
    7.1962    1.8988    0.0000 C   0  0  0  0  0  0  0  0  0  0  0  0
    5.4641   -0.1012    0.0000 C   0  0  0  0  0  0  0  0  0  0  0  0
    4.5981   -1.6012    0.0000 C   0  0  0  0  0  0  0  0  0  0  0  0
    6.3301   -1.6012    0.0000 C   0  0  0  0  0  0  0  0  0  0  0  0
    7.3007    2.8933    0.0000 C   0  0  0  0  0  0  0  0  0  0  0  0
    4.5981   -2.6012    0.0000 C   0  0  0  0  0  0  0  0  0  0  0  0
    6.3301   -2.6012    0.0000 C   0  0  0  0  0  0  0  0  0  0  0  0
    5.4641   -3.1012    0.0000 C   0  0  0  0  0  0  0  0  0  0  0  0
    8.2788    3.1012    0.0000 C   0  0  0  0  0  0  0  0  0  0  0  0
    2.8660   -1.6012    0.0000 C   0  0  0  0  0  0  0  0  0  0  0  0
    6.1181    1.9814    0.0000 H   0  0  0  0  0  0  0  0  0  0  0  0
    5.7196    1.2911    0.0000 H   0  0  0  0  0  0  0  0  0  0  0  0
    6.8671    0.0888    0.0000 H   0  0  0  0  0  0  0  0  0  0  0  0
    6.8671   -1.2912    0.0000 H   0  0  0  0  0  0  0  0  0  0  0  0
    6.8399    3.3082    0.0000 H   0  0  0  0  0  0  0  0  0  0  0  0
    4.0611   -2.9112    0.0000 H   0  0  0  0  0  0  0  0  0  0  0  0
    8.2386    0.8856    0.0000 H   0  0  0  0  0  0  0  0  0  0  0  0
    6.8671   -2.9112    0.0000 H   0  0  0  0  0  0  0  0  0  0  0  0
    5.4641   -3.7212    0.0000 H   0  0  0  0  0  0  0  0  0  0  0  0
    8.5310    3.6676    0.0000 H   0  0  0  0  0  0  0  0  0  0  0  0
    2.8660   -0.9812    0.0000 H   0  0  0  0  0  0  0  0  0  0  0  0
  1 19  1  0  0  0  0
  2 19  1  0  0  0  0
  3 12  1  0  0  0  0
  3 19  1  0  0  0  0
  4 11  2  0  0  0  0
  5  8  1  0  0  0  0
  5 11  1  0  0  0  0
  5 22  1  0  0  0  0
  6  7  1  0  0  0  0
  6 10  1  0  0  0  0
  6 26  1  0  0  0  0
  7 18  2  0  0  0  0
  8 10  1  0  0  0  0
  8 20  1  0  0  0  0
  8 21  1  0  0  0  0
  9 11  1  0  0  0  0
  9 12  1  0  0  0  0
  9 13  2  0  0  0  0
 10 14  2  0  0  0  0
 12 15  2  0  0  0  0
 13 16  1  0  0  0  0
 13 23  1  0  0  0  0
 14 18  1  0  0  0  0
 14 24  1  0  0  0  0
 15 17  1  0  0  0  0
 15 25  1  0  0  0  0
 16 17  2  0  0  0  0
 16 27  1  0  0  0  0
 17 28  1  0  0  0  0
 18 29  1  0  0  0  0
 19 30  1  0  0  0  0
M  END
> <PUBCHEM_COMPOUND_CID>
47205310

> <PUBCHEM_COMPOUND_CANONICALIZED>
1

> <PUBCHEM_CACTVS_COMPLEXITY>
305

> <PUBCHEM_CACTVS_HBOND_ACCEPTOR>
5

> <PUBCHEM_CACTVS_HBOND_DONOR>
2

> <PUBCHEM_CACTVS_ROTATABLE_BOND>
5

> <PUBCHEM_CACTVS_SUBSKEYS>
AAADccBzMYAAAAAAAAAAAAAAAAAAAWAAAAAwAAAAAAAAAAABwAAAHwAYAAAADAzBnhY8hpLjBACqAzV3UACSDAAkogAYuaE+bNgMZraE9duUtWhm/hGI6YeYyCCOAAAAAAAIAAAAAAAAABAAAAAAAAAAAA==

> <PUBCHEM_IUPAC_OPENEYE_NAME>
2-(difluoromethoxy)-N-(1H-pyrazol-5-ylmethyl)benzamide

> <PUBCHEM_IUPAC_CAS_NAME>
2-(difluoromethoxy)-N-(1H-pyrazol-5-ylmethyl)benzamide

> <PUBCHEM_IUPAC_NAME>
2-(difluoromethoxy)-N-(1H-pyrazol-5-ylmethyl)benzamide

> <PUBCHEM_IUPAC_SYSTEMATIC_NAME>
2-[bis(fluoranyl)methoxy]-N-(1H-pyrazol-5-ylmethyl)benzamide

> <PUBCHEM_IUPAC_TRADITIONAL_NAME>
2-(difluoromethoxy)-N-(1H-pyrazol-5-ylmethyl)benzamide

> <PUBCHEM_IUPAC_INCHI>
InChI=1S/C12H11F2N3O2/c13-12(14)19-10-4-2-1-3-9(10)11(18)15-7-8-5-6-16-17-8/h1-6,12H,7H2,(H,15,18)(H,16,17)

> <PUBCHEM_IUPAC_INCHIKEY>
SJEPGAHTQZMBLE-UHFFFAOYSA-N

> <PUBCHEM_XLOGP3_AA>
1.9

> <PUBCHEM_EXACT_MASS>
267.081933

> <PUBCHEM_MOLECULAR_FORMULA>
C12H11F2N3O2

> <PUBCHEM_MOLECULAR_WEIGHT>
267.231446

> <PUBCHEM_OPENEYE_CAN_SMILES>
C1=CC=C(C(=C1)C(=O)NCC2=CC=NN2)OC(F)F

> <PUBCHEM_OPENEYE_ISO_SMILES>
C1=CC=C(C(=C1)C(=O)NCC2=CC=NN2)OC(F)F

> <PUBCHEM_CACTVS_TPSA>
67

> <PUBCHEM_MONOISOTOPIC_WEIGHT>
267.081933

> <PUBCHEM_TOTAL_CHARGE>
0

> <PUBCHEM_HEAVY_ATOM_COUNT>
19

> <PUBCHEM_ATOM_DEF_STEREO_COUNT>
0

> <PUBCHEM_ATOM_UDEF_STEREO_COUNT>
0

> <PUBCHEM_BOND_DEF_STEREO_COUNT>
0

> <PUBCHEM_BOND_UDEF_STEREO_COUNT>
0

> <PUBCHEM_ISOTOPIC_ATOM_COUNT>
0

> <PUBCHEM_COMPONENT_COUNT>
1

> <PUBCHEM_CACTVS_TAUTO_COUNT>
4

> <PUBCHEM_COORDINATE_TYPE>
1
5
255

> <PUBCHEM_BONDANNOTATIONS>
10  14  8
12  15  8
13  16  8
14  18  8
15  17  8
16  17  8
6  10  8
6  7  8
7  18  8
9  12  8
9  13  8

$$$$

