13336
  -OEChem-06261209052D

 34 35  0     0  0  0  0  0  0999 V2000
    7.1962    0.2500    0.0000 S   0  0  0  0  0  0  0  0  0  0  0  0
    6.3301   -0.2500    0.0000 S   0  0  0  0  0  0  0  0  0  0  0  0
   11.5263   -2.2500    0.0000 F   0  0  0  0  0  0  0  0  0  0  0  0
   10.1603   -2.6160    0.0000 F   0  0  0  0  0  0  0  0  0  0  0  0
   11.1603   -0.8840    0.0000 F   0  0  0  0  0  0  0  0  0  0  0  0
    2.0000    2.2500    0.0000 F   0  0  0  0  0  0  0  0  0  0  0  0
    3.3660    2.6160    0.0000 F   0  0  0  0  0  0  0  0  0  0  0  0
    2.3660    0.8840    0.0000 F   0  0  0  0  0  0  0  0  0  0  0  0
    9.7942    1.7500    0.0000 O   0  5  0  0  0  0  0  0  0  0  0  0
    3.7320   -1.7500    0.0000 O   0  5  0  0  0  0  0  0  0  0  0  0
    5.4641   -1.7500    0.0000 O   0  0  0  0  0  0  0  0  0  0  0  0
    8.0622    1.7500    0.0000 O   0  0  0  0  0  0  0  0  0  0  0  0
    8.9282    1.2500    0.0000 N   0  3  0  0  0  0  0  0  0  0  0  0
    4.5981   -1.2500    0.0000 N   0  3  0  0  0  0  0  0  0  0  0  0
    9.7942   -1.2500    0.0000 C   0  0  0  0  0  0  0  0  0  0  0  0
    3.7320    1.2500    0.0000 C   0  0  0  0  0  0  0  0  0  0  0  0
    8.0622   -0.2500    0.0000 C   0  0  0  0  0  0  0  0  0  0  0  0
    5.4641    0.2500    0.0000 C   0  0  0  0  0  0  0  0  0  0  0  0
    8.9282    0.2500    0.0000 C   0  0  0  0  0  0  0  0  0  0  0  0
    4.5981   -0.2500    0.0000 C   0  0  0  0  0  0  0  0  0  0  0  0
    9.7942   -0.2500    0.0000 C   0  0  0  0  0  0  0  0  0  0  0  0
    3.7320    0.2500    0.0000 C   0  0  0  0  0  0  0  0  0  0  0  0
    8.9282   -1.7500    0.0000 C   0  0  0  0  0  0  0  0  0  0  0  0
    4.5981    1.7500    0.0000 C   0  0  0  0  0  0  0  0  0  0  0  0
    5.4641    1.2500    0.0000 C   0  0  0  0  0  0  0  0  0  0  0  0
    8.0622   -1.2500    0.0000 C   0  0  0  0  0  0  0  0  0  0  0  0
   10.6603   -1.7500    0.0000 C   0  0  0  0  0  0  0  0  0  0  0  0
    2.8660    1.7500    0.0000 C   0  0  0  0  0  0  0  0  0  0  0  0
   10.3312    0.0600    0.0000 H   0  0  0  0  0  0  0  0  0  0  0  0
    3.1951   -0.0600    0.0000 H   0  0  0  0  0  0  0  0  0  0  0  0
    8.9282   -2.3700    0.0000 H   0  0  0  0  0  0  0  0  0  0  0  0
    4.5981    2.3700    0.0000 H   0  0  0  0  0  0  0  0  0  0  0  0
    7.5252   -1.5600    0.0000 H   0  0  0  0  0  0  0  0  0  0  0  0
    6.0010    1.5600    0.0000 H   0  0  0  0  0  0  0  0  0  0  0  0
  1  2  1  0  0  0  0
  1 17  1  0  0  0  0
  2 18  1  0  0  0  0
  3 27  1  0  0  0  0
  4 27  1  0  0  0  0
  5 27  1  0  0  0  0
  6 28  1  0  0  0  0
  7 28  1  0  0  0  0
  8 28  1  0  0  0  0
  9 13  1  0  0  0  0
 10 14  1  0  0  0  0
 11 14  2  0  0  0  0
 12 13  2  0  0  0  0
 13 19  1  0  0  0  0
 14 20  1  0  0  0  0
 15 21  2  0  0  0  0
 15 23  1  0  0  0  0
 15 27  1  0  0  0  0
 16 22  2  0  0  0  0
 16 24  1  0  0  0  0
 16 28  1  0  0  0  0
 17 19  2  0  0  0  0
 17 26  1  0  0  0  0
 18 20  2  0  0  0  0
 18 25  1  0  0  0  0
 19 21  1  0  0  0  0
 20 22  1  0  0  0  0
 21 29  1  0  0  0  0
 22 30  1  0  0  0  0
 23 26  2  0  0  0  0
 23 31  1  0  0  0  0
 24 25  2  0  0  0  0
 24 32  1  0  0  0  0
 25 34  1  0  0  0  0
 26 33  1  0  0  0  0
M  CHG  4   9  -1  10  -1  13   1  14   1
M  END
> <PUBCHEM_COMPOUND_CID>
13336

> <PUBCHEM_COMPOUND_CANONICALIZED>
1

> <PUBCHEM_CACTVS_COMPLEXITY>
530

> <PUBCHEM_CACTVS_HBOND_ACCEPTOR>
12

> <PUBCHEM_CACTVS_HBOND_DONOR>
0

> <PUBCHEM_CACTVS_ROTATABLE_BOND>
3

> <PUBCHEM_CACTVS_SUBSKEYS>
AAADcYBzOcBgAAAAAAAAAAAAAAAAAAAAAAAwYAAAAAAAAAABQAAAHQQEAAAADAiBWBAwwYAQQACBAiRCQwCGAAAgAgAoiBwAZIoIICKAkZGAIABggAAIyAcQgAAOEAAAQAAAAQAgAACAAAACAAAAAAAAAA==

> <PUBCHEM_IUPAC_OPENEYE_NAME>
2-nitro-1-[[2-nitro-4-(trifluoromethyl)phenyl]disulfanyl]-4-(trifluoromethyl)benzene

> <PUBCHEM_IUPAC_CAS_NAME>
2-nitro-1-[[2-nitro-4-(trifluoromethyl)phenyl]disulfanyl]-4-(trifluoromethyl)benzene

> <PUBCHEM_IUPAC_NAME>
2-nitro-1-[[2-nitro-4-(trifluoromethyl)phenyl]disulfanyl]-4-(trifluoromethyl)benzene

> <PUBCHEM_IUPAC_SYSTEMATIC_NAME>
2-nitro-1-[[2-nitro-4-(trifluoromethyl)phenyl]disulfanyl]-4-(trifluoromethyl)benzene

> <PUBCHEM_IUPAC_TRADITIONAL_NAME>
2-nitro-1-[[2-nitro-4-(trifluoromethyl)phenyl]disulfanyl]-4-(trifluoromethyl)benzene

> <PUBCHEM_IUPAC_INCHI>
InChI=1S/C14H6F6N2O4S2/c15-13(16,17)7-1-3-11(9(5-7)21(23)24)27-28-12-4-2-8(14(18,19)20)6-10(12)22(25)26/h1-6H

> <PUBCHEM_IUPAC_INCHIKEY>
YDCXWQUDQRHVHZ-UHFFFAOYSA-N

> <PUBCHEM_XLOGP3>
5.1

> <PUBCHEM_EXACT_MASS>
443.967318

> <PUBCHEM_MOLECULAR_FORMULA>
C14H6F6N2O4S2

> <PUBCHEM_MOLECULAR_WEIGHT>
444.328859

> <PUBCHEM_OPENEYE_CAN_SMILES>
C1=CC(=C(C=C1C(F)(F)F)[N+](=O)[O-])SSC2=C(C=C(C=C2)C(F)(F)F)[N+](=O)[O-]

> <PUBCHEM_OPENEYE_ISO_SMILES>
C1=CC(=C(C=C1C(F)(F)F)[N+](=O)[O-])SSC2=C(C=C(C=C2)C(F)(F)F)[N+](=O)[O-]

> <PUBCHEM_CACTVS_TPSA>
142

> <PUBCHEM_MONOISOTOPIC_WEIGHT>
443.967318

> <PUBCHEM_TOTAL_CHARGE>
0

> <PUBCHEM_HEAVY_ATOM_COUNT>
28

> <PUBCHEM_ATOM_DEF_STEREO_COUNT>
0

> <PUBCHEM_ATOM_UDEF_STEREO_COUNT>
0

> <PUBCHEM_BOND_DEF_STEREO_COUNT>
0

> <PUBCHEM_BOND_UDEF_STEREO_COUNT>
0

> <PUBCHEM_ISOTOPIC_ATOM_COUNT>
0

> <PUBCHEM_COMPONENT_COUNT>
1

> <PUBCHEM_CACTVS_TAUTO_COUNT>
1

> <PUBCHEM_COORDINATE_TYPE>
1
5
255

> <PUBCHEM_BONDANNOTATIONS>
15  21  8
15  23  8
16  22  8
16  24  8
17  19  8
17  26  8
18  20  8
18  25  8
19  21  8
20  22  8
23  26  8
24  25  8

$$$$

