17395769
  -OEChem-06241222522D

 48 50  0     1  0  0  0  0  0999 V2000
    4.4885    2.2079    0.0000 Cl  0  0  0  0  0  0  0  0  0  0  0  0
    4.7765   -0.4221    0.0000 O   0  0  0  0  0  0  0  0  0  0  0  0
    2.0000   -4.4981    0.0000 O   0  0  0  0  0  0  0  0  0  0  0  0
    3.5984   -1.6918    0.0000 N   0  0  0  0  0  0  0  0  0  0  0  0
    3.3104    0.9383    0.0000 N   0  0  3  0  0  0  0  0  0  0  0  0
    3.5984   -3.9388    0.0000 N   0  0  0  0  0  0  0  0  0  0  0  0
    2.6235   -1.9143    0.0000 C   0  0  3  0  0  0  0  0  0  0  0  0
    2.1896   -2.8153    0.0000 C   0  0  0  0  0  0  0  0  0  0  0  0
    4.3802   -2.3153    0.0000 C   0  0  0  0  0  0  0  0  0  0  0  0
    3.8209   -0.7168    0.0000 C   0  0  0  0  0  0  0  0  0  0  0  0
    2.0000   -1.1325    0.0000 C   0  0  0  0  0  0  0  0  0  0  0  0
    4.3802   -3.3153    0.0000 C   0  0  0  0  0  0  0  0  0  0  0  0
    3.0879   -0.0367    0.0000 C   0  0  0  0  0  0  0  0  0  0  0  0
    2.6235   -3.7162    0.0000 C   0  0  0  0  0  0  0  0  0  0  0  0
    5.2742   -1.7806    0.0000 C   0  0  0  0  0  0  0  0  0  0  0  0
    2.5774    1.6184    0.0000 C   0  0  0  0  0  0  0  0  0  0  0  0
    5.2742   -3.8499    0.0000 C   0  0  0  0  0  0  0  0  0  0  0  0
    4.2660    1.2330    0.0000 C   0  0  0  0  0  0  0  0  0  0  0  0
    6.1803   -2.2944    0.0000 C   0  0  0  0  0  0  0  0  0  0  0  0
    2.7999    2.5934    0.0000 C   0  0  0  0  0  0  0  0  0  0  0  0
    6.1803   -3.3361    0.0000 C   0  0  0  0  0  0  0  0  0  0  0  0
    3.7554    2.8881    0.0000 C   0  0  0  0  0  0  0  0  0  0  0  0
    2.0668    3.2735    0.0000 C   0  0  0  0  0  0  0  0  0  0  0  0
    3.9780    3.8630    0.0000 C   0  0  0  0  0  0  0  0  0  0  0  0
    2.2894    4.2484    0.0000 C   0  0  0  0  0  0  0  0  0  0  0  0
    3.2449    4.5432    0.0000 C   0  0  0  0  0  0  0  0  0  0  0  0
    2.8283   -1.3291    0.0000 H   0  0  0  0  0  0  0  0  0  0  0  0
    1.7049   -2.4287    0.0000 H   0  0  0  0  0  0  0  0  0  0  0  0
    1.7049   -3.2018    0.0000 H   0  0  0  0  0  0  0  0  0  0  0  0
    2.4847   -0.7459    0.0000 H   0  0  0  0  0  0  0  0  0  0  0  0
    1.6134   -0.6477    0.0000 H   0  0  0  0  0  0  0  0  0  0  0  0
    1.5153   -1.5190    0.0000 H   0  0  0  0  0  0  0  0  0  0  0  0
    2.5166    0.2042    0.0000 H   0  0  0  0  0  0  0  0  0  0  0  0
    2.7515   -0.5575    0.0000 H   0  0  0  0  0  0  0  0  0  0  0  0
    3.7364   -4.5432    0.0000 H   0  0  0  0  0  0  0  0  0  0  0  0
    5.2670   -1.1606    0.0000 H   0  0  0  0  0  0  0  0  0  0  0  0
    2.0060    1.8593    0.0000 H   0  0  0  0  0  0  0  0  0  0  0  0
    2.2410    1.0976    0.0000 H   0  0  0  0  0  0  0  0  0  0  0  0
    5.2670   -4.4699    0.0000 H   0  0  0  0  0  0  0  0  0  0  0  0
    4.4487    0.6406    0.0000 H   0  0  0  0  0  0  0  0  0  0  0  0
    4.8584    1.4158    0.0000 H   0  0  0  0  0  0  0  0  0  0  0  0
    4.0832    1.8255    0.0000 H   0  0  0  0  0  0  0  0  0  0  0  0
    6.7160   -1.9824    0.0000 H   0  0  0  0  0  0  0  0  0  0  0  0
    6.7160   -3.6482    0.0000 H   0  0  0  0  0  0  0  0  0  0  0  0
    1.4744    3.0908    0.0000 H   0  0  0  0  0  0  0  0  0  0  0  0
    4.5704    4.0458    0.0000 H   0  0  0  0  0  0  0  0  0  0  0  0
    1.8348    4.6702    0.0000 H   0  0  0  0  0  0  0  0  0  0  0  0
    3.3829    5.1477    0.0000 H   0  0  0  0  0  0  0  0  0  0  0  0
  1 22  1  0  0  0  0
  2 10  2  0  0  0  0
  3 14  2  0  0  0  0
  4  7  1  0  0  0  0
  4  9  1  0  0  0  0
  4 10  1  0  0  0  0
  5 13  1  0  0  0  0
  5 16  1  0  0  0  0
  5 18  1  0  0  0  0
  6 12  1  0  0  0  0
  6 14  1  0  0  0  0
  6 35  1  0  0  0  0
  7  8  1  0  0  0  0
  7 11  1  0  0  0  0
  7 27  1  0  0  0  0
  8 14  1  0  0  0  0
  8 28  1  0  0  0  0
  8 29  1  0  0  0  0
  9 12  1  0  0  0  0
  9 15  2  0  0  0  0
 10 13  1  0  0  0  0
 11 30  1  0  0  0  0
 11 31  1  0  0  0  0
 11 32  1  0  0  0  0
 12 17  2  0  0  0  0
 13 33  1  0  0  0  0
 13 34  1  0  0  0  0
 15 19  1  0  0  0  0
 15 36  1  0  0  0  0
 16 20  1  0  0  0  0
 16 37  1  0  0  0  0
 16 38  1  0  0  0  0
 17 21  1  0  0  0  0
 17 39  1  0  0  0  0
 18 40  1  0  0  0  0
 18 41  1  0  0  0  0
 18 42  1  0  0  0  0
 19 21  2  0  0  0  0
 19 43  1  0  0  0  0
 20 22  1  0  0  0  0
 20 23  2  0  0  0  0
 21 44  1  0  0  0  0
 22 24  2  0  0  0  0
 23 25  1  0  0  0  0
 23 45  1  0  0  0  0
 24 26  1  0  0  0  0
 24 46  1  0  0  0  0
 25 26  2  0  0  0  0
 25 47  1  0  0  0  0
 26 48  1  0  0  0  0
M  END
> <PUBCHEM_COMPOUND_CID>
17395769

> <PUBCHEM_COMPOUND_CANONICALIZED>
1

> <PUBCHEM_CACTVS_COMPLEXITY>
515

> <PUBCHEM_CACTVS_HBOND_ACCEPTOR>
3

> <PUBCHEM_CACTVS_HBOND_DONOR>
1

> <PUBCHEM_CACTVS_ROTATABLE_BOND>
4

> <PUBCHEM_CACTVS_SUBSKEYS>
AAADceB7MAAEAAAAAAAAAAAAAAAAAAAAAAAwYAAABYAAAAABQAAAHgIQAAAADCrBmCQywIPAAACIAiVSUACCAAAhBwAIiAGIdogIYDrB07GUIAhglgDIyAcQgAAOAAAAAAABACAAAAAAAAIAQAAAAAAAAA==

> <PUBCHEM_IUPAC_OPENEYE_NAME>
5-[2-[(2-chlorophenyl)methyl-methyl-amino]acetyl]-4-methyl-3,4-dihydro-1H-1,5-benzodiazepin-2-one

> <PUBCHEM_IUPAC_CAS_NAME>
5-[2-[(2-chlorophenyl)methyl-methylamino]-1-oxoethyl]-4-methyl-3,4-dihydro-1H-1,5-benzodiazepin-2-one

> <PUBCHEM_IUPAC_NAME>
5-[2-[(2-chlorophenyl)methyl-methylamino]acetyl]-4-methyl-3,4-dihydro-1H-1,5-benzodiazepin-2-one

> <PUBCHEM_IUPAC_SYSTEMATIC_NAME>
5-[2-[(2-chlorophenyl)methyl-methyl-amino]ethanoyl]-4-methyl-3,4-dihydro-1H-1,5-benzodiazepin-2-one

> <PUBCHEM_IUPAC_TRADITIONAL_NAME>
5-[2-[(2-chlorobenzyl)-methyl-amino]acetyl]-4-methyl-3,4-dihydro-1H-1,5-benzodiazepin-2-one

> <PUBCHEM_IUPAC_INCHI>
InChI=1S/C20H22ClN3O2/c1-14-11-19(25)22-17-9-5-6-10-18(17)24(14)20(26)13-23(2)12-15-7-3-4-8-16(15)21/h3-10,14H,11-13H2,1-2H3,(H,22,25)

> <PUBCHEM_IUPAC_INCHIKEY>
BPLFGQPOHPTSAE-UHFFFAOYSA-N

> <PUBCHEM_XLOGP3_AA>
2.8

> <PUBCHEM_EXACT_MASS>
371.140055

> <PUBCHEM_MOLECULAR_FORMULA>
C20H22ClN3O2

> <PUBCHEM_MOLECULAR_WEIGHT>
371.86058

> <PUBCHEM_OPENEYE_CAN_SMILES>
CC1CC(=O)NC2=CC=CC=C2N1C(=O)CN(C)CC3=CC=CC=C3Cl

> <PUBCHEM_OPENEYE_ISO_SMILES>
CC1CC(=O)NC2=CC=CC=C2N1C(=O)CN(C)CC3=CC=CC=C3Cl

> <PUBCHEM_CACTVS_TPSA>
52.6

> <PUBCHEM_MONOISOTOPIC_WEIGHT>
371.140055

> <PUBCHEM_TOTAL_CHARGE>
0

> <PUBCHEM_HEAVY_ATOM_COUNT>
26

> <PUBCHEM_ATOM_DEF_STEREO_COUNT>
0

> <PUBCHEM_ATOM_UDEF_STEREO_COUNT>
1

> <PUBCHEM_BOND_DEF_STEREO_COUNT>
0

> <PUBCHEM_BOND_UDEF_STEREO_COUNT>
0

> <PUBCHEM_ISOTOPIC_ATOM_COUNT>
0

> <PUBCHEM_COMPONENT_COUNT>
1

> <PUBCHEM_CACTVS_TAUTO_COUNT>
3

> <PUBCHEM_COORDINATE_TYPE>
1
5
255

> <PUBCHEM_BONDANNOTATIONS>
12  17  8
15  19  8
17  21  8
19  21  8
20  22  8
20  23  8
22  24  8
23  25  8
24  26  8
25  26  8
7  11  3
9  12  8
9  15  8

$$$$

