10755
  -OEChem-06261204552D

 33 33  0     0  0  0  0  0  0999 V2000
    5.6720    4.1200    0.0000 S   0  0  0  0  0  0  0  0  0  0  0  0
    6.5380    4.6200    0.0000 O   0  5  0  0  0  0  0  0  0  0  0  0
    4.8059    3.6200    0.0000 O   0  5  0  0  0  0  0  0  0  0  0  0
    5.1720    4.9860    0.0000 O   0  0  0  0  0  0  0  0  0  0  0  0
    6.1720    3.2540    0.0000 O   0  0  0  0  0  0  0  0  0  0  0  0
    1.4030    7.6200    0.0000 N   0  3  0  0  0  0  0  0  0  0  0  0
    1.4030    0.6200    0.0000 N   0  3  0  0  0  0  0  0  0  0  0  0
    1.4030    4.6200    0.0000 C   0  0  0  0  0  0  0  0  0  0  0  0
    1.4030    3.6200    0.0000 C   0  0  0  0  0  0  0  0  0  0  0  0
    2.2690    5.1200    0.0000 C   0  0  0  0  0  0  0  0  0  0  0  0
    0.5369    3.1200    0.0000 C   0  0  0  0  0  0  0  0  0  0  0  0
    0.5369    5.1200    0.0000 C   0  0  0  0  0  0  0  0  0  0  0  0
    2.2690    3.1200    0.0000 C   0  0  0  0  0  0  0  0  0  0  0  0
    1.4030    6.6200    0.0000 C   0  0  0  0  0  0  0  0  0  0  0  0
    1.4030    1.6200    0.0000 C   0  0  0  0  0  0  0  0  0  0  0  0
    2.2690    6.1200    0.0000 C   0  0  0  0  0  0  0  0  0  0  0  0
    0.5369    2.1200    0.0000 C   0  0  0  0  0  0  0  0  0  0  0  0
    0.5369    6.1200    0.0000 C   0  0  0  0  0  0  0  0  0  0  0  0
    2.2690    2.1200    0.0000 C   0  0  0  0  0  0  0  0  0  0  0  0
    2.8059    4.8100    0.0000 H   0  0  0  0  0  0  0  0  0  0  0  0
    0.0000    3.4300    0.0000 H   0  0  0  0  0  0  0  0  0  0  0  0
    0.0000    4.8100    0.0000 H   0  0  0  0  0  0  0  0  0  0  0  0
    2.8059    3.4300    0.0000 H   0  0  0  0  0  0  0  0  0  0  0  0
    2.8059    6.4300    0.0000 H   0  0  0  0  0  0  0  0  0  0  0  0
    0.0000    1.8100    0.0000 H   0  0  0  0  0  0  0  0  0  0  0  0
    0.0000    6.4300    0.0000 H   0  0  0  0  0  0  0  0  0  0  0  0
    2.8059    1.8100    0.0000 H   0  0  0  0  0  0  0  0  0  0  0  0
    1.4030    0.0000    0.0000 H   0  0  0  0  0  0  0  0  0  0  0  0
    0.7830    0.6200    0.0000 H   0  0  0  0  0  0  0  0  0  0  0  0
    2.0230    0.6200    0.0000 H   0  0  0  0  0  0  0  0  0  0  0  0
    1.4030    8.2400    0.0000 H   0  0  0  0  0  0  0  0  0  0  0  0
    2.0230    7.6200    0.0000 H   0  0  0  0  0  0  0  0  0  0  0  0
    0.7830    7.6200    0.0000 H   0  0  0  0  0  0  0  0  0  0  0  0
  1  2  1  0  0  0  0
  1  3  1  0  0  0  0
  1  4  2  0  0  0  0
  1  5  2  0  0  0  0
  6 14  1  0  0  0  0
  6 31  1  0  0  0  0
  6 32  1  0  0  0  0
  6 33  1  0  0  0  0
  7 15  1  0  0  0  0
  7 28  1  0  0  0  0
  7 29  1  0  0  0  0
  7 30  1  0  0  0  0
  8  9  1  0  0  0  0
  8 10  2  0  0  0  0
  8 12  1  0  0  0  0
  9 11  2  0  0  0  0
  9 13  1  0  0  0  0
 10 16  1  0  0  0  0
 10 20  1  0  0  0  0
 11 17  1  0  0  0  0
 11 21  1  0  0  0  0
 12 18  2  0  0  0  0
 12 22  1  0  0  0  0
 13 19  2  0  0  0  0
 13 23  1  0  0  0  0
 14 16  2  0  0  0  0
 14 18  1  0  0  0  0
 15 17  2  0  0  0  0
 15 19  1  0  0  0  0
 16 24  1  0  0  0  0
 17 25  1  0  0  0  0
 18 26  1  0  0  0  0
 19 27  1  0  0  0  0
M  CHG  4   2  -1   3  -1   6   1   7   1
M  END
> <PUBCHEM_COMPOUND_CID>
10755

> <PUBCHEM_COMPOUND_CANONICALIZED>
1

> <PUBCHEM_CACTVS_COMPLEXITY>
207

> <PUBCHEM_CACTVS_HBOND_ACCEPTOR>
4

> <PUBCHEM_CACTVS_HBOND_DONOR>
2

> <PUBCHEM_CACTVS_ROTATABLE_BOND>
1

> <PUBCHEM_CACTVS_SUBSKEYS>
AAADccBzOABAAAAAAAAAAAAAAAAAAAAAAAAwYAAAAAAAAAABQAAAHAAQAAAADAiBGAAwwIBAAACAAiRCQDCCAAAgAgAIiAAAZIgIICKAkZGAIABgkAAIyAcQgMAOiAAAAAAAAAAQAAAAAAAAAAAAAAAAAA==

> <PUBCHEM_IUPAC_OPENEYE_NAME>
[4-(4-azaniumylphenyl)phenyl]ammonium sulfate

> <PUBCHEM_IUPAC_CAS_NAME>
[4-(4-ammoniophenyl)phenyl]ammonium sulfate

> <PUBCHEM_IUPAC_NAME>
[4-(4-azaniumylphenyl)phenyl]azanium sulfate

> <PUBCHEM_IUPAC_SYSTEMATIC_NAME>
[4-(4-azaniumylphenyl)phenyl]azanium sulfate

> <PUBCHEM_IUPAC_TRADITIONAL_NAME>
[4-(4-ammoniophenyl)phenyl]ammonium sulfate

> <PUBCHEM_IUPAC_INCHI>
InChI=1S/C12H12N2.H2O4S/c13-11-5-1-9(2-6-11)10-3-7-12(14)8-4-10;1-5(2,3)4/h1-8H,13-14H2;(H2,1,2,3,4)

> <PUBCHEM_IUPAC_INCHIKEY>
ZOXJIQNURSAHRV-UHFFFAOYSA-N

> <PUBCHEM_EXACT_MASS>
282.067428

> <PUBCHEM_MOLECULAR_FORMULA>
C12H14N2O4S

> <PUBCHEM_MOLECULAR_WEIGHT>
282.31556

> <PUBCHEM_OPENEYE_CAN_SMILES>
C1=CC(=CC=C1C2=CC=C(C=C2)[NH3+])[NH3+].[O-]S(=O)(=O)[O-]

> <PUBCHEM_OPENEYE_ISO_SMILES>
C1=CC(=CC=C1C2=CC=C(C=C2)[NH3+])[NH3+].[O-]S(=O)(=O)[O-]

> <PUBCHEM_CACTVS_TPSA>
144

> <PUBCHEM_MONOISOTOPIC_WEIGHT>
282.067428

> <PUBCHEM_TOTAL_CHARGE>
0

> <PUBCHEM_HEAVY_ATOM_COUNT>
19

> <PUBCHEM_ATOM_DEF_STEREO_COUNT>
0

> <PUBCHEM_ATOM_UDEF_STEREO_COUNT>
0

> <PUBCHEM_BOND_DEF_STEREO_COUNT>
0

> <PUBCHEM_BOND_UDEF_STEREO_COUNT>
0

> <PUBCHEM_ISOTOPIC_ATOM_COUNT>
0

> <PUBCHEM_COMPONENT_COUNT>
2

> <PUBCHEM_CACTVS_TAUTO_COUNT>
1

> <PUBCHEM_COORDINATE_TYPE>
1
5
255

> <PUBCHEM_BONDANNOTATIONS>
10  16  8
11  17  8
12  18  8
13  19  8
14  16  8
14  18  8
15  17  8
15  19  8
8  10  8
8  12  8
9  11  8
9  13  8

$$$$

