9365
  -OEChem-06261203392D

 55 57  0     1  0  0  0  0  0999 V2000
    7.1962    3.0427    0.0000 O   0  0  0  0  0  0  0  0  0  0  0  0
    4.5981    0.5427    0.0000 O   0  0  0  0  0  0  0  0  0  0  0  0
    5.4641    2.0427    0.0000 N   0  0  0  0  0  0  0  0  0  0  0  0
    8.0622    1.5427    0.0000 N   0  0  0  0  0  0  0  0  0  0  0  0
    4.5981   -1.4573    0.0000 N   0  0  0  0  0  0  0  0  0  0  0  0
    3.7320   -2.9573    0.0000 N   0  0  0  0  0  0  0  0  0  0  0  0
    5.4641   -2.9573    0.0000 N   0  0  0  0  0  0  0  0  0  0  0  0
    6.3301    1.5427    0.0000 C   0  0  3  0  0  0  0  0  0  0  0  0
    6.3301    0.5427    0.0000 C   0  0  0  0  0  0  0  0  0  0  0  0
    5.4641    0.0427    0.0000 C   0  0  0  0  0  0  0  0  0  0  0  0
    7.1962    2.0427    0.0000 C   0  0  0  0  0  0  0  0  0  0  0  0
    5.4641   -0.9573    0.0000 C   0  0  0  0  0  0  0  0  0  0  0  0
    8.9282    2.0427    0.0000 C   0  0  0  0  0  0  0  0  0  0  0  0
    4.5981    1.5427    0.0000 C   0  0  0  0  0  0  0  0  0  0  0  0
   10.6603    2.0427    0.0000 C   0  0  0  0  0  0  0  0  0  0  0  0
    9.7942    1.5427    0.0000 C   0  0  0  0  0  0  0  0  0  0  0  0
   10.6603    3.0427    0.0000 C   0  0  0  0  0  0  0  0  0  0  0  0
    8.9282    3.0427    0.0000 C   0  0  0  0  0  0  0  0  0  0  0  0
    3.7320    2.0427    0.0000 C   0  0  0  0  0  0  0  0  0  0  0  0
    9.7942    3.5427    0.0000 C   0  0  0  0  0  0  0  0  0  0  0  0
   11.5542    1.5080    0.0000 C   0  0  0  0  0  0  0  0  0  0  0  0
   11.5542    3.5773    0.0000 C   0  0  0  0  0  0  0  0  0  0  0  0
   12.4603    2.0218    0.0000 C   0  0  0  0  0  0  0  0  0  0  0  0
    3.7320    3.0427    0.0000 C   0  0  0  0  0  0  0  0  0  0  0  0
    2.8660    1.5427    0.0000 C   0  0  0  0  0  0  0  0  0  0  0  0
   12.4603    3.0635    0.0000 C   0  0  0  0  0  0  0  0  0  0  0  0
    4.5981   -2.4573    0.0000 C   0  0  0  0  0  0  0  0  0  0  0  0
    2.8660    3.5427    0.0000 C   0  0  0  0  0  0  0  0  0  0  0  0
    2.0000    2.0427    0.0000 C   0  0  0  0  0  0  0  0  0  0  0  0
    2.0000    3.0427    0.0000 C   0  0  0  0  0  0  0  0  0  0  0  0
    6.3301    2.1627    0.0000 H   0  0  0  0  0  0  0  0  0  0  0  0
    6.5422   -0.0399    0.0000 H   0  0  0  0  0  0  0  0  0  0  0  0
    6.9407    0.6503    0.0000 H   0  0  0  0  0  0  0  0  0  0  0  0
    5.2520    0.6253    0.0000 H   0  0  0  0  0  0  0  0  0  0  0  0
    4.8535   -0.0650    0.0000 H   0  0  0  0  0  0  0  0  0  0  0  0
    5.4641    2.6627    0.0000 H   0  0  0  0  0  0  0  0  0  0  0  0
    5.6762   -1.5399    0.0000 H   0  0  0  0  0  0  0  0  0  0  0  0
    6.0747   -0.8497    0.0000 H   0  0  0  0  0  0  0  0  0  0  0  0
    8.0622    0.9227    0.0000 H   0  0  0  0  0  0  0  0  0  0  0  0
    9.7942    0.9227    0.0000 H   0  0  0  0  0  0  0  0  0  0  0  0
    8.3913    3.3527    0.0000 H   0  0  0  0  0  0  0  0  0  0  0  0
    9.7942    4.1627    0.0000 H   0  0  0  0  0  0  0  0  0  0  0  0
   11.5470    0.8880    0.0000 H   0  0  0  0  0  0  0  0  0  0  0  0
   11.5470    4.1973    0.0000 H   0  0  0  0  0  0  0  0  0  0  0  0
   12.9960    1.7098    0.0000 H   0  0  0  0  0  0  0  0  0  0  0  0
    4.2690    3.3527    0.0000 H   0  0  0  0  0  0  0  0  0  0  0  0
    2.8660    0.9227    0.0000 H   0  0  0  0  0  0  0  0  0  0  0  0
   12.9960    3.3756    0.0000 H   0  0  0  0  0  0  0  0  0  0  0  0
    2.8660    4.1627    0.0000 H   0  0  0  0  0  0  0  0  0  0  0  0
    1.4631    1.7327    0.0000 H   0  0  0  0  0  0  0  0  0  0  0  0
    1.4631    3.3527    0.0000 H   0  0  0  0  0  0  0  0  0  0  0  0
    5.4641   -3.5773    0.0000 H   0  0  0  0  0  0  0  0  0  0  0  0
    6.0010   -2.6473    0.0000 H   0  0  0  0  0  0  0  0  0  0  0  0
    3.7320   -3.5773    0.0000 H   0  0  0  0  0  0  0  0  0  0  0  0
    3.1951   -2.6473    0.0000 H   0  0  0  0  0  0  0  0  0  0  0  0
  1 11  2  0  0  0  0
  2 14  2  0  0  0  0
  3  8  1  0  0  0  0
  3 14  1  0  0  0  0
  3 36  1  0  0  0  0
  4 11  1  0  0  0  0
  4 13  1  0  0  0  0
  4 39  1  0  0  0  0
  5 12  1  0  0  0  0
  5 27  2  0  0  0  0
  6 27  1  0  0  0  0
  6 54  1  0  0  0  0
  6 55  1  0  0  0  0
  7 27  1  0  0  0  0
  7 52  1  0  0  0  0
  7 53  1  0  0  0  0
  8  9  1  0  0  0  0
  8 11  1  0  0  0  0
  8 31  1  0  0  0  0
  9 10  1  0  0  0  0
  9 32  1  0  0  0  0
  9 33  1  0  0  0  0
 10 12  1  0  0  0  0
 10 34  1  0  0  0  0
 10 35  1  0  0  0  0
 12 37  1  0  0  0  0
 12 38  1  0  0  0  0
 13 16  2  0  0  0  0
 13 18  1  0  0  0  0
 14 19  1  0  0  0  0
 15 16  1  0  0  0  0
 15 17  1  0  0  0  0
 15 21  2  0  0  0  0
 16 40  1  0  0  0  0
 17 20  1  0  0  0  0
 17 22  2  0  0  0  0
 18 20  2  0  0  0  0
 18 41  1  0  0  0  0
 19 24  2  0  0  0  0
 19 25  1  0  0  0  0
 20 42  1  0  0  0  0
 21 23  1  0  0  0  0
 21 43  1  0  0  0  0
 22 26  1  0  0  0  0
 22 44  1  0  0  0  0
 23 26  2  0  0  0  0
 23 45  1  0  0  0  0
 24 28  1  0  0  0  0
 24 46  1  0  0  0  0
 25 29  2  0  0  0  0
 25 47  1  0  0  0  0
 26 48  1  0  0  0  0
 28 30  2  0  0  0  0
 28 49  1  0  0  0  0
 29 30  1  0  0  0  0
 29 50  1  0  0  0  0
 30 51  1  0  0  0  0
M  END
> <PUBCHEM_COMPOUND_CID>
9365

> <PUBCHEM_COMPOUND_CANONICALIZED>
1

> <PUBCHEM_CACTVS_COMPLEXITY>
598

> <PUBCHEM_CACTVS_HBOND_ACCEPTOR>
3

> <PUBCHEM_CACTVS_HBOND_DONOR>
4

> <PUBCHEM_CACTVS_ROTATABLE_BOND>
8

> <PUBCHEM_CACTVS_SUBSKEYS>
AAADceB7sAAAAAAAAAAAAAAAAAAAAAAAAAAwYMAAAAAAAADBVAAAHgAQAAAADCjBmAQxwMLAAACoAiVSdACCAAElAgAIiIGIZMgIYDLAlbGUIQhglgDIyYcYiYCOiAAAQAAQAAAQAACAACAAAAAAAAAAAA==

> <PUBCHEM_IUPAC_OPENEYE_NAME>
N-[4-guanidino-1-(2-naphthylcarbamoyl)butyl]benzamide

> <PUBCHEM_IUPAC_CAS_NAME>
N-[5-(diaminomethylideneamino)-1-(2-naphthalenylamino)-1-oxopentan-2-yl]benzamide

> <PUBCHEM_IUPAC_NAME>
N-[5-(diaminomethylideneamino)-1-(naphthalen-2-ylamino)-1-oxopentan-2-yl]benzamide

> <PUBCHEM_IUPAC_SYSTEMATIC_NAME>
N-[5-[bis(azanyl)methylideneamino]-1-(naphthalen-2-ylamino)-1-oxidanylidene-pentan-2-yl]benzamide

> <PUBCHEM_IUPAC_TRADITIONAL_NAME>
N-[4-guanidino-1-(2-naphthylcarbamoyl)butyl]benzamide

> <PUBCHEM_IUPAC_INCHI>
InChI=1S/C23H25N5O2/c24-23(25)26-14-6-11-20(28-21(29)17-8-2-1-3-9-17)22(30)27-19-13-12-16-7-4-5-10-18(16)15-19/h1-5,7-10,12-13,15,20H,6,11,14H2,(H,27,30)(H,28,29)(H4,24,25,26)

> <PUBCHEM_IUPAC_INCHIKEY>
DEFAKPKFXYITPZ-UHFFFAOYSA-N

> <PUBCHEM_XLOGP3_AA>
2.6

> <PUBCHEM_EXACT_MASS>
403.200825

> <PUBCHEM_MOLECULAR_FORMULA>
C23H25N5O2

> <PUBCHEM_MOLECULAR_WEIGHT>
403.4769

> <PUBCHEM_OPENEYE_CAN_SMILES>
C1=CC=C(C=C1)C(=O)NC(CCCN=C(N)N)C(=O)NC2=CC3=CC=CC=C3C=C2

> <PUBCHEM_OPENEYE_ISO_SMILES>
C1=CC=C(C=C1)C(=O)NC(CCCN=C(N)N)C(=O)NC2=CC3=CC=CC=C3C=C2

> <PUBCHEM_CACTVS_TPSA>
123

> <PUBCHEM_MONOISOTOPIC_WEIGHT>
403.200825

> <PUBCHEM_TOTAL_CHARGE>
0

> <PUBCHEM_HEAVY_ATOM_COUNT>
30

> <PUBCHEM_ATOM_DEF_STEREO_COUNT>
0

> <PUBCHEM_ATOM_UDEF_STEREO_COUNT>
1

> <PUBCHEM_BOND_DEF_STEREO_COUNT>
0

> <PUBCHEM_BOND_UDEF_STEREO_COUNT>
0

> <PUBCHEM_ISOTOPIC_ATOM_COUNT>
0

> <PUBCHEM_COMPONENT_COUNT>
1

> <PUBCHEM_CACTVS_TAUTO_COUNT>
12

> <PUBCHEM_COORDINATE_TYPE>
1
5
255

> <PUBCHEM_BONDANNOTATIONS>
13  16  8
13  18  8
15  16  8
15  17  8
15  21  8
17  20  8
17  22  8
18  20  8
19  24  8
19  25  8
21  23  8
22  26  8
23  26  8
24  28  8
25  29  8
28  30  8
29  30  8
8  9  3

$$$$

