582695
  -OEChem-06241222432D

 48 51  0     0  0  0  0  0  0999 V2000
    6.2781   -0.6815    0.0000 O   0  0  0  0  0  0  0  0  0  0  0  0
    8.5458    0.6815    0.0000 O   0  0  0  0  0  0  0  0  0  0  0  0
    6.6353   -2.3763    0.0000 O   0  0  0  0  0  0  0  0  0  0  0  0
    8.1886    2.3763    0.0000 O   0  0  0  0  0  0  0  0  0  0  0  0
    4.6783   -4.3982    0.0000 N   0  0  0  0  0  0  0  0  0  0  0  0
   10.1456    4.3982    0.0000 N   0  0  0  0  0  0  0  0  0  0  0  0
   10.1456    2.7887    0.0000 C   0  0  0  0  0  0  0  0  0  0  0  0
    4.6783   -2.7887    0.0000 C   0  0  0  0  0  0  0  0  0  0  0  0
   11.0918    3.0935    0.0000 C   0  0  0  0  0  0  0  0  0  0  0  0
    3.7320   -3.0935    0.0000 C   0  0  0  0  0  0  0  0  0  0  0  0
   11.0918    4.0935    0.0000 C   0  0  0  0  0  0  0  0  0  0  0  0
    3.7320   -4.0935    0.0000 C   0  0  0  0  0  0  0  0  0  0  0  0
    4.9889   -1.8382    0.0000 C   0  0  0  0  0  0  0  0  0  0  0  0
    9.8349    1.8382    0.0000 C   0  0  0  0  0  0  0  0  0  0  0  0
    5.2619   -3.5935    0.0000 C   0  0  0  0  0  0  0  0  0  0  0  0
    9.5620    3.5935    0.0000 C   0  0  0  0  0  0  0  0  0  0  0  0
    2.8660   -2.5935    0.0000 C   0  0  0  0  0  0  0  0  0  0  0  0
   11.9579    2.5935    0.0000 C   0  0  0  0  0  0  0  0  0  0  0  0
    2.8660   -4.5935    0.0000 C   0  0  0  0  0  0  0  0  0  0  0  0
   11.9579    4.5935    0.0000 C   0  0  0  0  0  0  0  0  0  0  0  0
    8.8564    1.6320    0.0000 C   0  0  0  0  0  0  0  0  0  0  0  0
    5.9674   -1.6320    0.0000 C   0  0  0  0  0  0  0  0  0  0  0  0
    2.0000   -3.0935    0.0000 C   0  0  0  0  0  0  0  0  0  0  0  0
   12.8239    3.0935    0.0000 C   0  0  0  0  0  0  0  0  0  0  0  0
    2.0000   -4.0935    0.0000 C   0  0  0  0  0  0  0  0  0  0  0  0
   12.8239    4.0935    0.0000 C   0  0  0  0  0  0  0  0  0  0  0  0
    7.2566   -0.4753    0.0000 C   0  0  0  0  0  0  0  0  0  0  0  0
    7.5673    0.4753    0.0000 C   0  0  0  0  0  0  0  0  0  0  0  0
    4.9684   -1.2186    0.0000 H   0  0  0  0  0  0  0  0  0  0  0  0
    4.3751   -1.7509    0.0000 H   0  0  0  0  0  0  0  0  0  0  0  0
    9.8555    1.2186    0.0000 H   0  0  0  0  0  0  0  0  0  0  0  0
   10.4488    1.7509    0.0000 H   0  0  0  0  0  0  0  0  0  0  0  0
    8.9420    3.5935    0.0000 H   0  0  0  0  0  0  0  0  0  0  0  0
    5.8819   -3.5935    0.0000 H   0  0  0  0  0  0  0  0  0  0  0  0
    4.8709   -4.9875    0.0000 H   0  0  0  0  0  0  0  0  0  0  0  0
    9.9530    4.9875    0.0000 H   0  0  0  0  0  0  0  0  0  0  0  0
   11.9579    1.9735    0.0000 H   0  0  0  0  0  0  0  0  0  0  0  0
    2.8660   -1.9735    0.0000 H   0  0  0  0  0  0  0  0  0  0  0  0
   11.9579    5.2135    0.0000 H   0  0  0  0  0  0  0  0  0  0  0  0
    2.8660   -5.2135    0.0000 H   0  0  0  0  0  0  0  0  0  0  0  0
    1.4631   -2.7835    0.0000 H   0  0  0  0  0  0  0  0  0  0  0  0
   13.3608    2.7835    0.0000 H   0  0  0  0  0  0  0  0  0  0  0  0
    1.4631   -4.4035    0.0000 H   0  0  0  0  0  0  0  0  0  0  0  0
   13.3608    4.4035    0.0000 H   0  0  0  0  0  0  0  0  0  0  0  0
    7.5467    1.0949    0.0000 H   0  0  0  0  0  0  0  0  0  0  0  0
    6.9534    0.5626    0.0000 H   0  0  0  0  0  0  0  0  0  0  0  0
    7.2772   -1.0949    0.0000 H   0  0  0  0  0  0  0  0  0  0  0  0
    7.8704   -0.5626    0.0000 H   0  0  0  0  0  0  0  0  0  0  0  0
  1 22  1  0  0  0  0
  1 27  1  0  0  0  0
  2 21  1  0  0  0  0
  2 28  1  0  0  0  0
  3 22  2  0  0  0  0
  4 21  2  0  0  0  0
  5 12  1  0  0  0  0
  5 15  1  0  0  0  0
  5 35  1  0  0  0  0
  6 11  1  0  0  0  0
  6 16  1  0  0  0  0
  6 36  1  0  0  0  0
  7  9  1  0  0  0  0
  7 14  1  0  0  0  0
  7 16  2  0  0  0  0
  8 10  1  0  0  0  0
  8 13  1  0  0  0  0
  8 15  2  0  0  0  0
  9 11  1  0  0  0  0
  9 18  2  0  0  0  0
 10 12  1  0  0  0  0
 10 17  2  0  0  0  0
 11 20  2  0  0  0  0
 12 19  2  0  0  0  0
 13 22  1  0  0  0  0
 13 29  1  0  0  0  0
 13 30  1  0  0  0  0
 14 21  1  0  0  0  0
 14 31  1  0  0  0  0
 14 32  1  0  0  0  0
 15 34  1  0  0  0  0
 16 33  1  0  0  0  0
 17 23  1  0  0  0  0
 17 38  1  0  0  0  0
 18 24  1  0  0  0  0
 18 37  1  0  0  0  0
 19 25  1  0  0  0  0
 19 40  1  0  0  0  0
 20 26  1  0  0  0  0
 20 39  1  0  0  0  0
 23 25  2  0  0  0  0
 23 41  1  0  0  0  0
 24 26  2  0  0  0  0
 24 42  1  0  0  0  0
 25 43  1  0  0  0  0
 26 44  1  0  0  0  0
 27 28  1  0  0  0  0
 27 47  1  0  0  0  0
 27 48  1  0  0  0  0
 28 45  1  0  0  0  0
 28 46  1  0  0  0  0
M  END
> <PUBCHEM_COMPOUND_CID>
582695

> <PUBCHEM_COMPOUND_CANONICALIZED>
1

> <PUBCHEM_CACTVS_COMPLEXITY>
507

> <PUBCHEM_CACTVS_HBOND_ACCEPTOR>
4

> <PUBCHEM_CACTVS_HBOND_DONOR>
2

> <PUBCHEM_CACTVS_ROTATABLE_BOND>
9

> <PUBCHEM_CACTVS_SUBSKEYS>
AAADceB7OAAAAAAAAAAAAAAAAAAAAWLAAAAwYAAAAAAAAFgB/gAAHgAQAAAADAjhngY8yPLJlACoAzT3TACCgCAxAiAI2aE4ZJgJIPLAlZGGIAhk0AHKyAe82eOegAAAAAACAAAAAAAAAAQAAAAAAAAAAA==

> <PUBCHEM_IUPAC_OPENEYE_NAME>
2-[2-(1H-indol-3-yl)acetyl]oxyethyl 2-(1H-indol-3-yl)acetate

> <PUBCHEM_IUPAC_CAS_NAME>
2-(1H-indol-3-yl)acetic acid 2-[2-(1H-indol-3-yl)-1-oxoethoxy]ethyl ester

> <PUBCHEM_IUPAC_NAME>
2-[2-(1H-indol-3-yl)acetyl]oxyethyl 2-(1H-indol-3-yl)acetate

> <PUBCHEM_IUPAC_SYSTEMATIC_NAME>
2-[2-(1H-indol-3-yl)ethanoyloxy]ethyl 2-(1H-indol-3-yl)ethanoate

> <PUBCHEM_IUPAC_TRADITIONAL_NAME>
2-(1H-indol-3-yl)acetic acid 2-[2-(1H-indol-3-yl)acetyl]oxyethyl ester

> <PUBCHEM_IUPAC_INCHI>
InChI=1S/C22H20N2O4/c25-21(11-15-13-23-19-7-3-1-5-17(15)19)27-9-10-28-22(26)12-16-14-24-20-8-4-2-6-18(16)20/h1-8,13-14,23-24H,9-12H2

> <PUBCHEM_IUPAC_INCHIKEY>
BLQSJZHGNDVFEX-UHFFFAOYSA-N

> <PUBCHEM_XLOGP3_AA>
3.4

> <PUBCHEM_EXACT_MASS>
376.142307

> <PUBCHEM_MOLECULAR_FORMULA>
C22H20N2O4

> <PUBCHEM_MOLECULAR_WEIGHT>
376.4052

> <PUBCHEM_OPENEYE_CAN_SMILES>
C1=CC=C2C(=C1)C(=CN2)CC(=O)OCCOC(=O)CC3=CNC4=CC=CC=C43

> <PUBCHEM_OPENEYE_ISO_SMILES>
C1=CC=C2C(=C1)C(=CN2)CC(=O)OCCOC(=O)CC3=CNC4=CC=CC=C43

> <PUBCHEM_CACTVS_TPSA>
84.2

> <PUBCHEM_MONOISOTOPIC_WEIGHT>
376.142307

> <PUBCHEM_TOTAL_CHARGE>
0

> <PUBCHEM_HEAVY_ATOM_COUNT>
28

> <PUBCHEM_ATOM_DEF_STEREO_COUNT>
0

> <PUBCHEM_ATOM_UDEF_STEREO_COUNT>
0

> <PUBCHEM_BOND_DEF_STEREO_COUNT>
0

> <PUBCHEM_BOND_UDEF_STEREO_COUNT>
0

> <PUBCHEM_ISOTOPIC_ATOM_COUNT>
0

> <PUBCHEM_COMPONENT_COUNT>
1

> <PUBCHEM_CACTVS_TAUTO_COUNT>
1

> <PUBCHEM_COORDINATE_TYPE>
1
5
255

> <PUBCHEM_BONDANNOTATIONS>
10  12  8
10  17  8
11  20  8
12  19  8
17  23  8
18  24  8
19  25  8
20  26  8
23  25  8
24  26  8
5  12  8
5  15  8
6  11  8
6  16  8
7  16  8
7  9  8
8  10  8
8  15  8
9  11  8
9  18  8

$$$$

