13047
  -OEChem-06261207412D

 25 26  0     0  0  0  0  0  0999 V2000
    2.5369   -2.1123    0.0000 O   0  0  0  0  0  0  0  0  0  0  0  0
    3.4030    0.3877    0.0000 C   0  0  0  0  0  0  0  0  0  0  0  0
    4.2690    0.8877    0.0000 C   0  0  0  0  0  0  0  0  0  0  0  0
    3.4030   -0.6123    0.0000 C   0  0  0  0  0  0  0  0  0  0  0  0
    4.2690    1.8877    0.0000 C   0  0  0  0  0  0  0  0  0  0  0  0
    2.5369    0.8877    0.0000 C   0  0  0  0  0  0  0  0  0  0  0  0
    5.1629    0.3530    0.0000 C   0  0  0  0  0  0  0  0  0  0  0  0
    3.4030    2.3877    0.0000 C   0  0  0  0  0  0  0  0  0  0  0  0
    2.5369   -1.1123    0.0000 C   0  0  0  0  0  0  0  0  0  0  0  0
    2.5369    1.8877    0.0000 C   0  0  0  0  0  0  0  0  0  0  0  0
    5.1629    2.4223    0.0000 C   0  0  0  0  0  0  0  0  0  0  0  0
    6.0690    0.8669    0.0000 C   0  0  0  0  0  0  0  0  0  0  0  0
    6.0690    1.9085    0.0000 C   0  0  0  0  0  0  0  0  0  0  0  0
    3.6150   -1.1949    0.0000 H   0  0  0  0  0  0  0  0  0  0  0  0
    4.0135   -0.5047    0.0000 H   0  0  0  0  0  0  0  0  0  0  0  0
    2.0000    0.5777    0.0000 H   0  0  0  0  0  0  0  0  0  0  0  0
    5.1558   -0.2670    0.0000 H   0  0  0  0  0  0  0  0  0  0  0  0
    3.4030    3.0077    0.0000 H   0  0  0  0  0  0  0  0  0  0  0  0
    2.3249   -0.5297    0.0000 H   0  0  0  0  0  0  0  0  0  0  0  0
    1.9264   -1.2200    0.0000 H   0  0  0  0  0  0  0  0  0  0  0  0
    2.0000    2.1977    0.0000 H   0  0  0  0  0  0  0  0  0  0  0  0
    5.1558    3.0423    0.0000 H   0  0  0  0  0  0  0  0  0  0  0  0
    6.6047    0.5548    0.0000 H   0  0  0  0  0  0  0  0  0  0  0  0
    6.6047    2.2205    0.0000 H   0  0  0  0  0  0  0  0  0  0  0  0
    2.0000   -2.4223    0.0000 H   0  0  0  0  0  0  0  0  0  0  0  0
  1  9  1  0  0  0  0
  1 25  1  0  0  0  0
  2  3  1  0  0  0  0
  2  4  1  0  0  0  0
  2  6  2  0  0  0  0
  3  5  1  0  0  0  0
  3  7  2  0  0  0  0
  4  9  1  0  0  0  0
  4 14  1  0  0  0  0
  4 15  1  0  0  0  0
  5  8  1  0  0  0  0
  5 11  2  0  0  0  0
  6 10  1  0  0  0  0
  6 16  1  0  0  0  0
  7 12  1  0  0  0  0
  7 17  1  0  0  0  0
  8 10  2  0  0  0  0
  8 18  1  0  0  0  0
  9 19  1  0  0  0  0
  9 20  1  0  0  0  0
 10 21  1  0  0  0  0
 11 13  1  0  0  0  0
 11 22  1  0  0  0  0
 12 13  2  0  0  0  0
 12 23  1  0  0  0  0
 13 24  1  0  0  0  0
M  END
> <PUBCHEM_COMPOUND_CID>
13047

> <PUBCHEM_COMPOUND_CANONICALIZED>
1

> <PUBCHEM_CACTVS_COMPLEXITY>
155

> <PUBCHEM_CACTVS_HBOND_ACCEPTOR>
1

> <PUBCHEM_CACTVS_HBOND_DONOR>
1

> <PUBCHEM_CACTVS_ROTATABLE_BOND>
2

> <PUBCHEM_CACTVS_SUBSKEYS>
AAADccBwIAAAAAAAAAAAAAAAAAAAAAAAAAAwYAAAAAAAAADBUAAAGgAACAAADACgmAIwAMAAAgCAAiBCAAACAAAgAAAIiAAAAIgIMCKAERCAYAAkwAEIiAeAwPAOgAACAAAQAAAAAAQAACAAAAAAAAAAAA==

> <PUBCHEM_IUPAC_OPENEYE_NAME>
2-(1-naphthyl)ethanol

> <PUBCHEM_IUPAC_CAS_NAME>
2-(1-naphthalenyl)ethanol

> <PUBCHEM_IUPAC_NAME>
2-naphthalen-1-ylethanol

> <PUBCHEM_IUPAC_SYSTEMATIC_NAME>
2-naphthalen-1-ylethanol

> <PUBCHEM_IUPAC_TRADITIONAL_NAME>
2-(1-naphthyl)ethanol

> <PUBCHEM_IUPAC_INCHI>
InChI=1S/C12H12O/c13-9-8-11-6-3-5-10-4-1-2-7-12(10)11/h1-7,13H,8-9H2

> <PUBCHEM_IUPAC_INCHIKEY>
RXWNCMHRJCOWDK-UHFFFAOYSA-N

> <PUBCHEM_XLOGP3>
3.2

> <PUBCHEM_EXACT_MASS>
172.088815

> <PUBCHEM_MOLECULAR_FORMULA>
C12H12O

> <PUBCHEM_MOLECULAR_WEIGHT>
172.22308

> <PUBCHEM_OPENEYE_CAN_SMILES>
C1=CC=C2C(=C1)C=CC=C2CCO

> <PUBCHEM_OPENEYE_ISO_SMILES>
C1=CC=C2C(=C1)C=CC=C2CCO

> <PUBCHEM_CACTVS_TPSA>
20.2

> <PUBCHEM_MONOISOTOPIC_WEIGHT>
172.088815

> <PUBCHEM_TOTAL_CHARGE>
0

> <PUBCHEM_HEAVY_ATOM_COUNT>
13

> <PUBCHEM_ATOM_DEF_STEREO_COUNT>
0

> <PUBCHEM_ATOM_UDEF_STEREO_COUNT>
0

> <PUBCHEM_BOND_DEF_STEREO_COUNT>
0

> <PUBCHEM_BOND_UDEF_STEREO_COUNT>
0

> <PUBCHEM_ISOTOPIC_ATOM_COUNT>
0

> <PUBCHEM_COMPONENT_COUNT>
1

> <PUBCHEM_CACTVS_TAUTO_COUNT>
1

> <PUBCHEM_COORDINATE_TYPE>
1
5
255

> <PUBCHEM_BONDANNOTATIONS>
11  13  8
12  13  8
2  3  8
2  6  8
3  5  8
3  7  8
5  11  8
5  8  8
6  10  8
7  12  8
8  10  8

$$$$

