3769
  -OEChem-06251223392D

 24 24  0     0  0  0  0  0  0999 V2000
    4.5981    2.3450    0.0000 S   0  0  0  0  0  0  0  0  0  0  0  0
    4.5981    3.3450    0.0000 O   0  0  0  0  0  0  0  0  0  0  0  0
    5.5981    2.3450    0.0000 O   0  0  0  0  0  0  0  0  0  0  0  0
    3.5981    2.3450    0.0000 O   0  0  0  0  0  0  0  0  0  0  0  0
    2.0000   -0.1550    0.0000 O   0  0  0  0  0  0  0  0  0  0  0  0
    3.7320    0.8450    0.0000 N   0  0  0  0  0  0  0  0  0  0  0  0
    3.7320   -0.1550    0.0000 N   0  0  0  0  0  0  0  0  0  0  0  0
    2.8660   -3.6550    0.0000 N   0  0  0  0  0  0  0  0  0  0  0  0
    4.5981    1.3450    0.0000 C   0  0  0  0  0  0  0  0  0  0  0  0
    2.8660   -1.6550    0.0000 C   0  0  0  0  0  0  0  0  0  0  0  0
    2.8660   -0.6550    0.0000 C   0  0  0  0  0  0  0  0  0  0  0  0
    3.7320   -2.1550    0.0000 C   0  0  0  0  0  0  0  0  0  0  0  0
    2.0000   -2.1550    0.0000 C   0  0  0  0  0  0  0  0  0  0  0  0
    3.7320   -3.1550    0.0000 C   0  0  0  0  0  0  0  0  0  0  0  0
    2.0000   -3.1550    0.0000 C   0  0  0  0  0  0  0  0  0  0  0  0
    4.8101    0.7624    0.0000 H   0  0  0  0  0  0  0  0  0  0  0  0
    5.2087    1.4527    0.0000 H   0  0  0  0  0  0  0  0  0  0  0  0
    3.1951    1.1550    0.0000 H   0  0  0  0  0  0  0  0  0  0  0  0
    4.2690   -0.4650    0.0000 H   0  0  0  0  0  0  0  0  0  0  0  0
    4.2690   -1.8450    0.0000 H   0  0  0  0  0  0  0  0  0  0  0  0
    1.4631   -1.8450    0.0000 H   0  0  0  0  0  0  0  0  0  0  0  0
    4.2690   -3.4650    0.0000 H   0  0  0  0  0  0  0  0  0  0  0  0
    1.4631   -3.4650    0.0000 H   0  0  0  0  0  0  0  0  0  0  0  0
    5.1350    3.6550    0.0000 H   0  0  0  0  0  0  0  0  0  0  0  0
  1  2  1  0  0  0  0
  1  3  2  0  0  0  0
  1  4  2  0  0  0  0
  1  9  1  0  0  0  0
  2 24  1  0  0  0  0
  5 11  2  0  0  0  0
  6  7  1  0  0  0  0
  6  9  1  0  0  0  0
  6 18  1  0  0  0  0
  7 11  1  0  0  0  0
  7 19  1  0  0  0  0
  8 14  2  0  0  0  0
  8 15  1  0  0  0  0
  9 16  1  0  0  0  0
  9 17  1  0  0  0  0
 10 11  1  0  0  0  0
 10 12  2  0  0  0  0
 10 13  1  0  0  0  0
 12 14  1  0  0  0  0
 12 20  1  0  0  0  0
 13 15  2  0  0  0  0
 13 21  1  0  0  0  0
 14 22  1  0  0  0  0
 15 23  1  0  0  0  0
M  END
> <PUBCHEM_COMPOUND_CID>
3769

> <PUBCHEM_COMPOUND_CANONICALIZED>
1

> <PUBCHEM_CACTVS_COMPLEXITY>
305

> <PUBCHEM_CACTVS_HBOND_ACCEPTOR>
6

> <PUBCHEM_CACTVS_HBOND_DONOR>
3

> <PUBCHEM_CACTVS_ROTATABLE_BOND>
4

> <PUBCHEM_CACTVS_SUBSKEYS>
AAADccBjOABAAAAAAAAAAAAAAAAAAAAAAAAsAAAAAAAAAAABgAAAHgQYCAAADADBmgS8gJJqEIKoAjF3VHCKgCA1AiIa+KE4ZNgIIHLAlZGEIQhggADIyYYUAAAKAAAAAAAAAAAAAAAAAAAAAAAAAAAAAA==

> <PUBCHEM_IUPAC_OPENEYE_NAME>
[2-(pyridine-4-carbonyl)hydrazino]methanesulfonic acid

> <PUBCHEM_IUPAC_CAS_NAME>
[[oxo(pyridin-4-yl)methyl]hydrazo]methanesulfonic acid

> <PUBCHEM_IUPAC_NAME>
[2-(pyridine-4-carbonyl)hydrazinyl]methanesulfonic acid

> <PUBCHEM_IUPAC_SYSTEMATIC_NAME>
(2-pyridin-4-ylcarbonylhydrazinyl)methanesulfonic acid

> <PUBCHEM_IUPAC_TRADITIONAL_NAME>
(N'-isonicotinoylhydrazino)methanesulfonic acid

> <PUBCHEM_IUPAC_INCHI>
InChI=1S/C7H9N3O4S/c11-7(6-1-3-8-4-2-6)10-9-5-15(12,13)14/h1-4,9H,5H2,(H,10,11)(H,12,13,14)

> <PUBCHEM_IUPAC_INCHIKEY>
GQZQCROBCYNTMU-UHFFFAOYSA-N

> <PUBCHEM_XLOGP3>
-3.6

> <PUBCHEM_EXACT_MASS>
231.031377

> <PUBCHEM_MOLECULAR_FORMULA>
C7H9N3O4S

> <PUBCHEM_MOLECULAR_WEIGHT>
231.22906

> <PUBCHEM_OPENEYE_CAN_SMILES>
C1=CN=CC=C1C(=O)NNCS(=O)(=O)O

> <PUBCHEM_OPENEYE_ISO_SMILES>
C1=CN=CC=C1C(=O)NNCS(=O)(=O)O

> <PUBCHEM_CACTVS_TPSA>
117

> <PUBCHEM_MONOISOTOPIC_WEIGHT>
231.031377

> <PUBCHEM_TOTAL_CHARGE>
0

> <PUBCHEM_HEAVY_ATOM_COUNT>
15

> <PUBCHEM_ATOM_DEF_STEREO_COUNT>
0

> <PUBCHEM_ATOM_UDEF_STEREO_COUNT>
0

> <PUBCHEM_BOND_DEF_STEREO_COUNT>
0

> <PUBCHEM_BOND_UDEF_STEREO_COUNT>
0

> <PUBCHEM_ISOTOPIC_ATOM_COUNT>
0

> <PUBCHEM_COMPONENT_COUNT>
1

> <PUBCHEM_CACTVS_TAUTO_COUNT>
4

> <PUBCHEM_COORDINATE_TYPE>
1
5
255

> <PUBCHEM_BONDANNOTATIONS>
10  12  8
10  13  8
12  14  8
13  15  8
8  14  8
8  15  8

$$$$

