9713
  -OEChem-06261203582D

 12 12  0     0  0  0  0  0  0999 V2000
    2.0000   -1.5670    0.0000 F   0  0  0  0  0  0  0  0  0  0  0  0
    2.3660   -0.2010    0.0000 F   0  0  0  0  0  0  0  0  0  0  0  0
    3.3660   -1.9330    0.0000 F   0  0  0  0  0  0  0  0  0  0  0  0
    4.5981    1.9330    0.0000 F   0  0  0  0  0  0  0  0  0  0  0  0
    6.3301   -1.0670    0.0000 F   0  0  0  0  0  0  0  0  0  0  0  0
    4.5981   -1.0670    0.0000 N   0  0  0  0  0  0  0  0  0  0  0  0
    3.7320    0.4330    0.0000 N   0  0  0  0  0  0  0  0  0  0  0  0
    5.4641    0.4330    0.0000 N   0  0  0  0  0  0  0  0  0  0  0  0
    3.7320   -0.5670    0.0000 C   0  0  0  0  0  0  0  0  0  0  0  0
    2.8660   -1.0670    0.0000 C   0  0  0  0  0  0  0  0  0  0  0  0
    4.5981    0.9330    0.0000 C   0  0  0  0  0  0  0  0  0  0  0  0
    5.4641   -0.5670    0.0000 C   0  0  0  0  0  0  0  0  0  0  0  0
  1 10  1  0  0  0  0
  2 10  1  0  0  0  0
  3 10  1  0  0  0  0
  4 11  1  0  0  0  0
  5 12  1  0  0  0  0
  6  9  2  0  0  0  0
  6 12  1  0  0  0  0
  7  9  1  0  0  0  0
  7 11  2  0  0  0  0
  8 11  1  0  0  0  0
  8 12  2  0  0  0  0
  9 10  1  0  0  0  0
M  END
> <PUBCHEM_COMPOUND_CID>
9713

> <PUBCHEM_COMPOUND_CANONICALIZED>
1

> <PUBCHEM_CACTVS_COMPLEXITY>
149

> <PUBCHEM_CACTVS_HBOND_ACCEPTOR>
8

> <PUBCHEM_CACTVS_HBOND_DONOR>
0

> <PUBCHEM_CACTVS_ROTATABLE_BOND>
0

> <PUBCHEM_CACTVS_SUBSKEYS>
AAADcQBjAcAAAAAAAAAAAAAAAAAAAAAAAAAsAAAAAAAAAAABgAAADQAAAAAAAAABAxABEAYIEAAgAAIgJAAAgAkAAKABAAAAAACACAAACAAAAAAIAAIAAAAAAAAAAAAAAAAAAAAAAAAAAAAAAAAAAAAAAA==

> <PUBCHEM_IUPAC_OPENEYE_NAME>
2,4-difluoro-6-(trifluoromethyl)-1,3,5-triazine

> <PUBCHEM_IUPAC_CAS_NAME>
2,4-difluoro-6-(trifluoromethyl)-1,3,5-triazine

> <PUBCHEM_IUPAC_NAME>
2,4-difluoro-6-(trifluoromethyl)-1,3,5-triazine

> <PUBCHEM_IUPAC_SYSTEMATIC_NAME>
2,4-bis(fluoranyl)-6-(trifluoromethyl)-1,3,5-triazine

> <PUBCHEM_IUPAC_TRADITIONAL_NAME>
2,4-difluoro-6-(trifluoromethyl)-s-triazine

> <PUBCHEM_IUPAC_INCHI>
InChI=1S/C4F5N3/c5-2-10-1(4(7,8)9)11-3(6)12-2

> <PUBCHEM_IUPAC_INCHIKEY>
HVLOYCOFPILXRG-UHFFFAOYSA-N

> <PUBCHEM_XLOGP3_AA>
1.8

> <PUBCHEM_EXACT_MASS>
185.001238

> <PUBCHEM_MOLECULAR_FORMULA>
C4F5N3

> <PUBCHEM_MOLECULAR_WEIGHT>
185.054916

> <PUBCHEM_OPENEYE_CAN_SMILES>
C1(=NC(=NC(=N1)F)F)C(F)(F)F

> <PUBCHEM_OPENEYE_ISO_SMILES>
C1(=NC(=NC(=N1)F)F)C(F)(F)F

> <PUBCHEM_CACTVS_TPSA>
38.7

> <PUBCHEM_MONOISOTOPIC_WEIGHT>
185.001238

> <PUBCHEM_TOTAL_CHARGE>
0

> <PUBCHEM_HEAVY_ATOM_COUNT>
12

> <PUBCHEM_ATOM_DEF_STEREO_COUNT>
0

> <PUBCHEM_ATOM_UDEF_STEREO_COUNT>
0

> <PUBCHEM_BOND_DEF_STEREO_COUNT>
0

> <PUBCHEM_BOND_UDEF_STEREO_COUNT>
0

> <PUBCHEM_ISOTOPIC_ATOM_COUNT>
0

> <PUBCHEM_COMPONENT_COUNT>
1

> <PUBCHEM_CACTVS_TAUTO_COUNT>
1

> <PUBCHEM_COORDINATE_TYPE>
1
5
255

> <PUBCHEM_BONDANNOTATIONS>
6  12  8
6  9  8
7  11  8
7  9  8
8  11  8
8  12  8

$$$$

