10866
  -OEChem-06261205032D

 65 64  0     0  0  0  0  0  0999 V2000
   10.9512    7.3700    0.0000 Br  0  5  0  0  0  0  0  0  0  0  0  0
    1.4030    3.6200    0.0000 O   0  0  0  0  0  0  0  0  0  0  0  0
    3.1350    5.6200    0.0000 N   0  3  0  0  0  0  0  0  0  0  0  0
    4.0010    6.1200    0.0000 C   0  0  0  0  0  0  0  0  0  0  0  0
    4.0010    7.1200    0.0000 C   0  0  0  0  0  0  0  0  0  0  0  0
    2.2690    5.1200    0.0000 C   0  0  0  0  0  0  0  0  0  0  0  0
    4.8671    7.6200    0.0000 C   0  0  0  0  0  0  0  0  0  0  0  0
    2.6350    6.4860    0.0000 C   0  0  0  0  0  0  0  0  0  0  0  0
    3.6350    4.7540    0.0000 C   0  0  0  0  0  0  0  0  0  0  0  0
    4.8671    8.6200    0.0000 C   0  0  0  0  0  0  0  0  0  0  0  0
    5.7331    9.1200    0.0000 C   0  0  0  0  0  0  0  0  0  0  0  0
    2.2690    4.1200    0.0000 C   0  0  0  0  0  0  0  0  0  0  0  0
    5.7331   10.1200    0.0000 C   0  0  0  0  0  0  0  0  0  0  0  0
    6.5991   10.6200    0.0000 C   0  0  0  0  0  0  0  0  0  0  0  0
    6.5991   11.6200    0.0000 C   0  0  0  0  0  0  0  0  0  0  0  0
    7.4651   12.1200    0.0000 C   0  0  0  0  0  0  0  0  0  0  0  0
    7.4651   13.1200    0.0000 C   0  0  0  0  0  0  0  0  0  0  0  0
    8.3312   13.6200    0.0000 C   0  0  0  0  0  0  0  0  0  0  0  0
    1.4030    2.6200    0.0000 C   0  0  0  0  0  0  0  0  0  0  0  0
    8.3312   14.6200    0.0000 C   0  0  0  0  0  0  0  0  0  0  0  0
    0.5369    2.1200    0.0000 C   0  0  0  0  0  0  0  0  0  0  0  0
    2.2690    2.1200    0.0000 C   0  0  0  0  0  0  0  0  0  0  0  0
    0.5369    1.1200    0.0000 C   0  0  0  0  0  0  0  0  0  0  0  0
    2.2690    1.1200    0.0000 C   0  0  0  0  0  0  0  0  0  0  0  0
    1.4030    0.6200    0.0000 C   0  0  0  0  0  0  0  0  0  0  0  0
    4.2131    5.5374    0.0000 H   0  0  0  0  0  0  0  0  0  0  0  0
    4.6116    6.2277    0.0000 H   0  0  0  0  0  0  0  0  0  0  0  0
    3.7890    7.7026    0.0000 H   0  0  0  0  0  0  0  0  0  0  0  0
    3.3905    7.0123    0.0000 H   0  0  0  0  0  0  0  0  0  0  0  0
    2.0569    5.7026    0.0000 H   0  0  0  0  0  0  0  0  0  0  0  0
    1.6584    5.0123    0.0000 H   0  0  0  0  0  0  0  0  0  0  0  0
    5.0791    7.0374    0.0000 H   0  0  0  0  0  0  0  0  0  0  0  0
    5.4776    7.7277    0.0000 H   0  0  0  0  0  0  0  0  0  0  0  0
    3.1720    6.7960    0.0000 H   0  0  0  0  0  0  0  0  0  0  0  0
    2.3250    7.0230    0.0000 H   0  0  0  0  0  0  0  0  0  0  0  0
    2.0981    6.1760    0.0000 H   0  0  0  0  0  0  0  0  0  0  0  0
    3.0981    4.4440    0.0000 H   0  0  0  0  0  0  0  0  0  0  0  0
    3.9450    4.2170    0.0000 H   0  0  0  0  0  0  0  0  0  0  0  0
    4.1720    5.0640    0.0000 H   0  0  0  0  0  0  0  0  0  0  0  0
    4.6550    9.2026    0.0000 H   0  0  0  0  0  0  0  0  0  0  0  0
    4.2565    8.5123    0.0000 H   0  0  0  0  0  0  0  0  0  0  0  0
    5.9451    8.5374    0.0000 H   0  0  0  0  0  0  0  0  0  0  0  0
    6.3437    9.2277    0.0000 H   0  0  0  0  0  0  0  0  0  0  0  0
    2.4810    3.5374    0.0000 H   0  0  0  0  0  0  0  0  0  0  0  0
    2.8796    4.2277    0.0000 H   0  0  0  0  0  0  0  0  0  0  0  0
    5.5210   10.7026    0.0000 H   0  0  0  0  0  0  0  0  0  0  0  0
    5.1225   10.0123    0.0000 H   0  0  0  0  0  0  0  0  0  0  0  0
    6.8112   10.0374    0.0000 H   0  0  0  0  0  0  0  0  0  0  0  0
    7.2097   10.7277    0.0000 H   0  0  0  0  0  0  0  0  0  0  0  0
    6.3871   12.2026    0.0000 H   0  0  0  0  0  0  0  0  0  0  0  0
    5.9885   11.5123    0.0000 H   0  0  0  0  0  0  0  0  0  0  0  0
    7.6772   11.5374    0.0000 H   0  0  0  0  0  0  0  0  0  0  0  0
    8.0757   12.2277    0.0000 H   0  0  0  0  0  0  0  0  0  0  0  0
    7.2531   13.7026    0.0000 H   0  0  0  0  0  0  0  0  0  0  0  0
    6.8546   13.0123    0.0000 H   0  0  0  0  0  0  0  0  0  0  0  0
    8.5432   13.0374    0.0000 H   0  0  0  0  0  0  0  0  0  0  0  0
    8.9417   13.7277    0.0000 H   0  0  0  0  0  0  0  0  0  0  0  0
    8.9512   14.6200    0.0000 H   0  0  0  0  0  0  0  0  0  0  0  0
    8.3312   15.2400    0.0000 H   0  0  0  0  0  0  0  0  0  0  0  0
    7.7112   14.6200    0.0000 H   0  0  0  0  0  0  0  0  0  0  0  0
    0.0000    2.4300    0.0000 H   0  0  0  0  0  0  0  0  0  0  0  0
    2.8059    2.4300    0.0000 H   0  0  0  0  0  0  0  0  0  0  0  0
    0.0000    0.8100    0.0000 H   0  0  0  0  0  0  0  0  0  0  0  0
    2.8059    0.8100    0.0000 H   0  0  0  0  0  0  0  0  0  0  0  0
    1.4030    0.0000    0.0000 H   0  0  0  0  0  0  0  0  0  0  0  0
  2 12  1  0  0  0  0
  2 19  1  0  0  0  0
  3  4  1  0  0  0  0
  3  6  1  0  0  0  0
  3  8  1  0  0  0  0
  3  9  1  0  0  0  0
  4  5  1  0  0  0  0
  4 26  1  0  0  0  0
  4 27  1  0  0  0  0
  5  7  1  0  0  0  0
  5 28  1  0  0  0  0
  5 29  1  0  0  0  0
  6 12  1  0  0  0  0
  6 30  1  0  0  0  0
  6 31  1  0  0  0  0
  7 10  1  0  0  0  0
  7 32  1  0  0  0  0
  7 33  1  0  0  0  0
  8 34  1  0  0  0  0
  8 35  1  0  0  0  0
  8 36  1  0  0  0  0
  9 37  1  0  0  0  0
  9 38  1  0  0  0  0
  9 39  1  0  0  0  0
 10 11  1  0  0  0  0
 10 40  1  0  0  0  0
 10 41  1  0  0  0  0
 11 13  1  0  0  0  0
 11 42  1  0  0  0  0
 11 43  1  0  0  0  0
 12 44  1  0  0  0  0
 12 45  1  0  0  0  0
 13 14  1  0  0  0  0
 13 46  1  0  0  0  0
 13 47  1  0  0  0  0
 14 15  1  0  0  0  0
 14 48  1  0  0  0  0
 14 49  1  0  0  0  0
 15 16  1  0  0  0  0
 15 50  1  0  0  0  0
 15 51  1  0  0  0  0
 16 17  1  0  0  0  0
 16 52  1  0  0  0  0
 16 53  1  0  0  0  0
 17 18  1  0  0  0  0
 17 54  1  0  0  0  0
 17 55  1  0  0  0  0
 18 20  1  0  0  0  0
 18 56  1  0  0  0  0
 18 57  1  0  0  0  0
 19 21  2  0  0  0  0
 19 22  1  0  0  0  0
 20 58  1  0  0  0  0
 20 59  1  0  0  0  0
 20 60  1  0  0  0  0
 21 23  1  0  0  0  0
 21 61  1  0  0  0  0
 22 24  2  0  0  0  0
 22 62  1  0  0  0  0
 23 25  2  0  0  0  0
 23 63  1  0  0  0  0
 24 25  1  0  0  0  0
 24 64  1  0  0  0  0
 25 65  1  0  0  0  0
M  CHG  2   1  -1   3   1
M  END
> <PUBCHEM_COMPOUND_CID>
10866

> <PUBCHEM_COMPOUND_CANONICALIZED>
1

> <PUBCHEM_CACTVS_COMPLEXITY>
271

> <PUBCHEM_CACTVS_HBOND_ACCEPTOR>
2

> <PUBCHEM_CACTVS_HBOND_DONOR>
0

> <PUBCHEM_CACTVS_ROTATABLE_BOND>
15

> <PUBCHEM_CACTVS_SUBSKEYS>
AAADcfB6IAAAEAAAAAAAAAAAAAAAAAAAAAAwAAAAAAAAAAABAAAAHgAAAAAACAThkAYyBoMABACAACBCAAACCAAgIAAIiAAOCIgOJiKEsRqHOCCkwBGYqAeQwIAAAAAAAAAAAAAAAAAAAAAAAAAAAAAAAA==

> <PUBCHEM_IUPAC_OPENEYE_NAME>
dodecyl-dimethyl-(2-phenoxyethyl)ammonium bromide

> <PUBCHEM_IUPAC_CAS_NAME>
dodecyl-dimethyl-(2-phenoxyethyl)ammonium bromide

> <PUBCHEM_IUPAC_NAME>
dodecyl-dimethyl-(2-phenoxyethyl)azanium bromide

> <PUBCHEM_IUPAC_SYSTEMATIC_NAME>
dodecyl-dimethyl-(2-phenoxyethyl)azanium bromide

> <PUBCHEM_IUPAC_TRADITIONAL_NAME>
lauryl-dimethyl-(2-phenoxyethyl)ammonium bromide

> <PUBCHEM_IUPAC_INCHI>
InChI=1S/C22H40NO.BrH/c1-4-5-6-7-8-9-10-11-12-16-19-23(2,3)20-21-24-22-17-14-13-15-18-22;/h13-15,17-18H,4-12,16,19-21H2,1-3H3;1H/q+1;/p-1

> <PUBCHEM_IUPAC_INCHIKEY>
OJIYIVCMRYCWSE-UHFFFAOYSA-M

> <PUBCHEM_EXACT_MASS>
413.229327

> <PUBCHEM_MOLECULAR_FORMULA>
C22H40BrNO

> <PUBCHEM_MOLECULAR_WEIGHT>
414.4631

> <PUBCHEM_OPENEYE_CAN_SMILES>
CCCCCCCCCCCC[N+](C)(C)CCOC1=CC=CC=C1.[Br-]

> <PUBCHEM_OPENEYE_ISO_SMILES>
CCCCCCCCCCCC[N+](C)(C)CCOC1=CC=CC=C1.[Br-]

> <PUBCHEM_CACTVS_TPSA>
9.2

> <PUBCHEM_MONOISOTOPIC_WEIGHT>
413.229327

> <PUBCHEM_TOTAL_CHARGE>
0

> <PUBCHEM_HEAVY_ATOM_COUNT>
25

> <PUBCHEM_ATOM_DEF_STEREO_COUNT>
0

> <PUBCHEM_ATOM_UDEF_STEREO_COUNT>
0

> <PUBCHEM_BOND_DEF_STEREO_COUNT>
0

> <PUBCHEM_BOND_UDEF_STEREO_COUNT>
0

> <PUBCHEM_ISOTOPIC_ATOM_COUNT>
0

> <PUBCHEM_COMPONENT_COUNT>
2

> <PUBCHEM_CACTVS_TAUTO_COUNT>
1

> <PUBCHEM_COORDINATE_TYPE>
1
5
255

> <PUBCHEM_BONDANNOTATIONS>
19  21  8
19  22  8
21  23  8
22  24  8
23  25  8
24  25  8

$$$$

