10108
  -OEChem-06261204192D

 24 24  0     0  0  0  0  0  0999 V2000
    2.0000   -1.4330    0.0000 O   0  0  0  0  0  0  0  0  0  0  0  0
    3.7320    0.5670    0.0000 C   0  0  0  0  0  0  0  0  0  0  0  0
    2.8660    0.0670    0.0000 C   0  0  0  0  0  0  0  0  0  0  0  0
    4.5981    0.0670    0.0000 C   0  0  0  0  0  0  0  0  0  0  0  0
    4.5981   -0.9330    0.0000 C   0  0  0  0  0  0  0  0  0  0  0  0
    4.2320    1.4330    0.0000 C   0  0  0  0  0  0  0  0  0  0  0  0
    3.2320    1.4330    0.0000 C   0  0  0  0  0  0  0  0  0  0  0  0
    3.7320   -1.4330    0.0000 C   0  0  0  0  0  0  0  0  0  0  0  0
    2.8660   -0.9330    0.0000 C   0  0  0  0  0  0  0  0  0  0  0  0
    5.4641   -1.4330    0.0000 C   0  0  0  0  0  0  0  0  0  0  0  0
    2.6540    0.6496    0.0000 H   0  0  0  0  0  0  0  0  0  0  0  0
    2.2554   -0.0407    0.0000 H   0  0  0  0  0  0  0  0  0  0  0  0
    5.1350    0.3770    0.0000 H   0  0  0  0  0  0  0  0  0  0  0  0
    3.3335   -1.9080    0.0000 H   0  0  0  0  0  0  0  0  0  0  0  0
    4.1306   -1.9080    0.0000 H   0  0  0  0  0  0  0  0  0  0  0  0
    4.7690    1.1230    0.0000 H   0  0  0  0  0  0  0  0  0  0  0  0
    4.5420    1.9700    0.0000 H   0  0  0  0  0  0  0  0  0  0  0  0
    3.7690    1.7430    0.0000 H   0  0  0  0  0  0  0  0  0  0  0  0
    2.9220    1.9700    0.0000 H   0  0  0  0  0  0  0  0  0  0  0  0
    2.6951    1.1230    0.0000 H   0  0  0  0  0  0  0  0  0  0  0  0
    3.6951    1.7430    0.0000 H   0  0  0  0  0  0  0  0  0  0  0  0
    5.1541   -1.9700    0.0000 H   0  0  0  0  0  0  0  0  0  0  0  0
    6.0010   -1.7430    0.0000 H   0  0  0  0  0  0  0  0  0  0  0  0
    5.7741   -0.8961    0.0000 H   0  0  0  0  0  0  0  0  0  0  0  0
  1  9  2  0  0  0  0
  2  3  1  0  0  0  0
  2  4  1  0  0  0  0
  2  6  1  0  0  0  0
  2  7  1  0  0  0  0
  3  9  1  0  0  0  0
  3 11  1  0  0  0  0
  3 12  1  0  0  0  0
  4  5  2  0  0  0  0
  4 13  1  0  0  0  0
  5  8  1  0  0  0  0
  5 10  1  0  0  0  0
  6 16  1  0  0  0  0
  6 17  1  0  0  0  0
  6 21  1  0  0  0  0
  7 18  1  0  0  0  0
  7 19  1  0  0  0  0
  7 20  1  0  0  0  0
  8  9  1  0  0  0  0
  8 14  1  0  0  0  0
  8 15  1  0  0  0  0
 10 22  1  0  0  0  0
 10 23  1  0  0  0  0
 10 24  1  0  0  0  0
M  END
> <PUBCHEM_COMPOUND_CID>
10108

> <PUBCHEM_COMPOUND_CANONICALIZED>
1

> <PUBCHEM_CACTVS_COMPLEXITY>
187

> <PUBCHEM_CACTVS_HBOND_ACCEPTOR>
1

> <PUBCHEM_CACTVS_HBOND_DONOR>
0

> <PUBCHEM_CACTVS_ROTATABLE_BOND>
0

> <PUBCHEM_CACTVS_SUBSKEYS>
AAADccBwIAAAAAAAAAAAAAAAAAAAAAAAAAAgAAAAAAAAAAAAAAAAGgAAAAAADgSAgAACAAAAAACIAqBSAAAAAAAgAAAACAEAAAgAABIAAQAAAAAAgAAIAAMAgEANAAAAAAAAAAAAAAAAAAAAAAAAAAAAAA==

> <PUBCHEM_IUPAC_OPENEYE_NAME>
3,5,5-trimethylcyclohex-3-en-1-one

> <PUBCHEM_IUPAC_CAS_NAME>
3,5,5-trimethyl-1-cyclohex-3-enone

> <PUBCHEM_IUPAC_NAME>
3,5,5-trimethylcyclohex-3-en-1-one

> <PUBCHEM_IUPAC_SYSTEMATIC_NAME>
3,5,5-trimethylcyclohex-3-en-1-one

> <PUBCHEM_IUPAC_TRADITIONAL_NAME>
3,5,5-trimethylcyclohex-3-en-1-one

> <PUBCHEM_IUPAC_INCHI>
InChI=1S/C9H14O/c1-7-4-8(10)6-9(2,3)5-7/h5H,4,6H2,1-3H3

> <PUBCHEM_IUPAC_INCHIKEY>
LKOKKQDYMZUSCG-UHFFFAOYSA-N

> <PUBCHEM_XLOGP3_AA>
1.6

> <PUBCHEM_EXACT_MASS>
138.104465

> <PUBCHEM_MOLECULAR_FORMULA>
C9H14O

> <PUBCHEM_MOLECULAR_WEIGHT>
138.20686

> <PUBCHEM_OPENEYE_CAN_SMILES>
CC1=CC(CC(=O)C1)(C)C

> <PUBCHEM_OPENEYE_ISO_SMILES>
CC1=CC(CC(=O)C1)(C)C

> <PUBCHEM_CACTVS_TPSA>
17.1

> <PUBCHEM_MONOISOTOPIC_WEIGHT>
138.104465

> <PUBCHEM_TOTAL_CHARGE>
0

> <PUBCHEM_HEAVY_ATOM_COUNT>
10

> <PUBCHEM_ATOM_DEF_STEREO_COUNT>
0

> <PUBCHEM_ATOM_UDEF_STEREO_COUNT>
0

> <PUBCHEM_BOND_DEF_STEREO_COUNT>
0

> <PUBCHEM_BOND_UDEF_STEREO_COUNT>
0

> <PUBCHEM_ISOTOPIC_ATOM_COUNT>
0

> <PUBCHEM_COMPONENT_COUNT>
1

> <PUBCHEM_CACTVS_TAUTO_COUNT>
8

> <PUBCHEM_COORDINATE_TYPE>
1
5
255

$$$$

