3918
  -OEChem-06251223452D

 42 45  0     1  0  0  0  0  0999 V2000
    2.5381   -0.4741    0.0000 O   0  0  0  0  0  0  0  0  0  0  0  0
    6.5124    1.0410    0.0000 N   0  0  3  0  0  0  0  0  0  0  0  0
    6.0682   -0.4499    0.0000 C   0  0  3  0  0  0  0  0  0  0  0  0
    6.9343    0.0501    0.0000 C   0  0  3  0  0  0  0  0  0  0  0  0
    6.9343    1.0501    0.0000 C   0  0  3  0  0  0  0  0  0  0  0  0
    5.8652   -0.0800    0.0000 C   0  0  0  0  0  0  0  0  0  0  0  0
    6.0522   -1.4914    0.0000 C   0  0  0  0  0  0  0  0  0  0  0  0
    7.8443   -0.4568    0.0000 C   0  0  0  0  0  0  0  0  0  0  0  0
    5.2022    0.0501    0.0000 C   0  0  0  0  0  0  0  0  0  0  0  0
    6.0682    1.5501    0.0000 C   0  0  0  0  0  0  0  0  0  0  0  0
    5.7815    0.7156    0.0000 C   0  0  0  0  0  0  0  0  0  0  0  0
    6.9502   -2.0192    0.0000 C   0  0  0  0  0  0  0  0  0  0  0  0
    7.8523   -1.4984    0.0000 C   0  0  0  0  0  0  0  0  0  0  0  0
    5.2022    1.0501    0.0000 C   0  0  0  0  0  0  0  0  0  0  0  0
    4.3083   -0.4846    0.0000 C   0  0  0  0  0  0  0  0  0  0  0  0
    6.7203    2.0192    0.0000 C   0  0  0  0  0  0  0  0  0  0  0  0
    4.3083    1.5848    0.0000 C   0  0  0  0  0  0  0  0  0  0  0  0
    3.4022    0.0293    0.0000 C   0  0  0  0  0  0  0  0  0  0  0  0
    3.4022    1.0709    0.0000 C   0  0  0  0  0  0  0  0  0  0  0  0
    7.6671    0.4808    0.0000 H   0  0  0  0  0  0  0  0  0  0  0  0
    7.6704    1.4751    0.0000 H   0  0  0  0  0  0  0  0  0  0  0  0
    5.2704    0.0952    0.0000 H   0  0  0  0  0  0  0  0  0  0  0  0
    6.4568    0.1053    0.0000 H   0  0  0  0  0  0  0  0  0  0  0  0
    5.4431   -1.3759    0.0000 H   0  0  0  0  0  0  0  0  0  0  0  0
    5.8342   -2.0718    0.0000 H   0  0  0  0  0  0  0  0  0  0  0  0
    8.4559   -0.5581    0.0000 H   0  0  0  0  0  0  0  0  0  0  0  0
    8.0488    0.1285    0.0000 H   0  0  0  0  0  0  0  0  0  0  0  0
    6.4668    2.0250    0.0000 H   0  0  0  0  0  0  0  0  0  0  0  0
    5.6697    2.0250    0.0000 H   0  0  0  0  0  0  0  0  0  0  0  0
    5.5899    1.3053    0.0000 H   0  0  0  0  0  0  0  0  0  0  0  0
    5.1751    0.5867    0.0000 H   0  0  0  0  0  0  0  0  0  0  0  0
    6.5493   -2.4921    0.0000 H   0  0  0  0  0  0  0  0  0  0  0  0
    7.3475   -2.4951    0.0000 H   0  0  0  0  0  0  0  0  0  0  0  0
    8.0659   -2.0804    0.0000 H   0  0  0  0  0  0  0  0  0  0  0  0
    8.4623   -1.3876    0.0000 H   0  0  0  0  0  0  0  0  0  0  0  0
    4.3154   -1.1045    0.0000 H   0  0  0  0  0  0  0  0  0  0  0  0
    7.3267    1.8903    0.0000 H   0  0  0  0  0  0  0  0  0  0  0  0
    6.8492    2.6256    0.0000 H   0  0  0  0  0  0  0  0  0  0  0  0
    6.1138    2.1481    0.0000 H   0  0  0  0  0  0  0  0  0  0  0  0
    4.3154    2.2047    0.0000 H   0  0  0  0  0  0  0  0  0  0  0  0
    2.8665    1.3830    0.0000 H   0  0  0  0  0  0  0  0  0  0  0  0
    2.0000   -0.1661    0.0000 H   0  0  0  0  0  0  0  0  0  0  0  0
  1 18  1  0  0  0  0
  1 42  1  0  0  0  0
  2  5  1  0  0  0  0
  2 11  1  0  0  0  0
  2 16  1  0  0  0  0
  3  4  1  0  0  0  0
  3  6  1  0  0  0  0
  3  7  1  0  0  0  0
  3  9  1  0  0  0  0
  4  5  1  0  0  0  0
  4  8  1  0  0  0  0
  4 20  1  0  0  0  0
  5 10  1  0  0  0  0
  5 21  1  0  0  0  0
  6 11  1  0  0  0  0
  6 22  1  0  0  0  0
  6 23  1  0  0  0  0
  7 12  1  0  0  0  0
  7 24  1  0  0  0  0
  7 25  1  0  0  0  0
  8 13  1  0  0  0  0
  8 26  1  0  0  0  0
  8 27  1  0  0  0  0
  9 14  2  0  0  0  0
  9 15  1  0  0  0  0
 10 14  1  0  0  0  0
 10 28  1  0  0  0  0
 10 29  1  0  0  0  0
 11 30  1  0  0  0  0
 11 31  1  0  0  0  0
 12 13  1  0  0  0  0
 12 32  1  0  0  0  0
 12 33  1  0  0  0  0
 13 34  1  0  0  0  0
 13 35  1  0  0  0  0
 14 17  1  0  0  0  0
 15 18  2  0  0  0  0
 15 36  1  0  0  0  0
 16 37  1  0  0  0  0
 16 38  1  0  0  0  0
 16 39  1  0  0  0  0
 17 19  2  0  0  0  0
 17 40  1  0  0  0  0
 18 19  1  0  0  0  0
 19 41  1  0  0  0  0
M  END
> <PUBCHEM_COMPOUND_CID>
3918

> <PUBCHEM_COMPOUND_CANONICALIZED>
1

> <PUBCHEM_CACTVS_COMPLEXITY>
357

> <PUBCHEM_CACTVS_HBOND_ACCEPTOR>
2

> <PUBCHEM_CACTVS_HBOND_DONOR>
1

> <PUBCHEM_CACTVS_ROTATABLE_BOND>
0

> <PUBCHEM_CACTVS_SUBSKEYS>
AAADceB6IAAAAAAAAAAAAAAAAAAAAAAAAAA8YMEAAAAWAADxAAAAHgAACAAADyzBmAQyBoMAAgCAAiBCAAACAAAgIAAIiAAOCIgIJiKCkROEcAAkwBGImAeQwPAPoAABAAAQAADQAAaAACQAAAAAAAAAAA==

> <PUBCHEM_IUPAC_INCHI>
InChI=1S/C17H23NO/c1-18-9-8-17-7-3-2-4-14(17)16(18)10-12-5-6-13(19)11-15(12)17/h5-6,11,14,16,19H,2-4,7-10H2,1H3

> <PUBCHEM_IUPAC_INCHIKEY>
JAQUASYNZVUNQP-UHFFFAOYSA-N

> <PUBCHEM_XLOGP3>
3.1

> <PUBCHEM_EXACT_MASS>
257.177964

> <PUBCHEM_MOLECULAR_FORMULA>
C17H23NO

> <PUBCHEM_MOLECULAR_WEIGHT>
257.37062

> <PUBCHEM_OPENEYE_CAN_SMILES>
CN1CCC23CCCCC2C1CC4=C3C=C(C=C4)O

> <PUBCHEM_OPENEYE_ISO_SMILES>
CN1CCC23CCCCC2C1CC4=C3C=C(C=C4)O

> <PUBCHEM_CACTVS_TPSA>
23.5

> <PUBCHEM_MONOISOTOPIC_WEIGHT>
257.177964

> <PUBCHEM_TOTAL_CHARGE>
0

> <PUBCHEM_HEAVY_ATOM_COUNT>
19

> <PUBCHEM_ATOM_DEF_STEREO_COUNT>
0

> <PUBCHEM_ATOM_UDEF_STEREO_COUNT>
3

> <PUBCHEM_BOND_DEF_STEREO_COUNT>
0

> <PUBCHEM_BOND_UDEF_STEREO_COUNT>
0

> <PUBCHEM_ISOTOPIC_ATOM_COUNT>
0

> <PUBCHEM_COMPONENT_COUNT>
1

> <PUBCHEM_CACTVS_TAUTO_COUNT>
3

> <PUBCHEM_COORDINATE_TYPE>
1
5
255

> <PUBCHEM_BONDANNOTATIONS>
14  17  8
15  18  8
17  19  8
18  19  8
3  7  3
4  20  3
5  21  3
9  14  8
9  15  8

$$$$

