17396048
  -OEChem-06241222542D

 58 60  0     1  0  0  0  0  0999 V2000
   10.7263   -0.0362    0.0000 O   0  0  0  0  0  0  0  0  0  0  0  0
   10.7263    2.0121    0.0000 O   0  0  0  0  0  0  0  0  0  0  0  0
    4.5981    1.4879    0.0000 O   0  0  0  0  0  0  0  0  0  0  0  0
    6.3301    0.4879    0.0000 N   0  0  3  0  0  0  0  0  0  0  0  0
    3.7320   -0.0121    0.0000 N   0  0  0  0  0  0  0  0  0  0  0  0
    7.1962   -0.0121    0.0000 C   0  0  3  0  0  0  0  0  0  0  0  0
    6.3301    1.4879    0.0000 C   0  0  0  0  0  0  0  0  0  0  0  0
    8.0622    0.4879    0.0000 C   0  0  0  0  0  0  0  0  0  0  0  0
    7.1962    1.9879    0.0000 C   0  0  0  0  0  0  0  0  0  0  0  0
    8.0622    1.4879    0.0000 C   0  0  0  0  0  0  0  0  0  0  0  0
    5.4641   -0.0121    0.0000 C   0  0  0  0  0  0  0  0  0  0  0  0
    7.1962   -1.0121    0.0000 C   0  0  0  0  0  0  0  0  0  0  0  0
    8.9561   -0.0467    0.0000 C   0  0  0  0  0  0  0  0  0  0  0  0
    8.9561    2.0226    0.0000 C   0  0  0  0  0  0  0  0  0  0  0  0
    4.5981    0.4879    0.0000 C   0  0  0  0  0  0  0  0  0  0  0  0
    9.8622    0.4671    0.0000 C   0  0  0  0  0  0  0  0  0  0  0  0
    9.8622    1.5087    0.0000 C   0  0  0  0  0  0  0  0  0  0  0  0
    6.3301   -1.5121    0.0000 C   0  0  0  0  0  0  0  0  0  0  0  0
    8.0622   -1.5121    0.0000 C   0  0  0  0  0  0  0  0  0  0  0  0
    2.8660    0.4879    0.0000 C   0  0  0  0  0  0  0  0  0  0  0  0
    3.7320   -1.0121    0.0000 C   0  0  0  0  0  0  0  0  0  0  0  0
    6.3301   -2.5121    0.0000 C   0  0  0  0  0  0  0  0  0  0  0  0
    8.0622   -2.5121    0.0000 C   0  0  0  0  0  0  0  0  0  0  0  0
    7.1962   -3.0121    0.0000 C   0  0  0  0  0  0  0  0  0  0  0  0
    2.0000   -0.0121    0.0000 C   0  0  0  0  0  0  0  0  0  0  0  0
    2.8660   -1.5121    0.0000 C   0  0  0  0  0  0  0  0  0  0  0  0
   11.5942    0.4604    0.0000 C   0  0  0  0  0  0  0  0  0  0  0  0
   10.7224    3.0121    0.0000 C   0  0  0  0  0  0  0  0  0  0  0  0
    6.6592   -0.3221    0.0000 H   0  0  0  0  0  0  0  0  0  0  0  0
    6.1181    2.0705    0.0000 H   0  0  0  0  0  0  0  0  0  0  0  0
    5.7196    1.3803    0.0000 H   0  0  0  0  0  0  0  0  0  0  0  0
    7.5947    2.4629    0.0000 H   0  0  0  0  0  0  0  0  0  0  0  0
    6.7976    2.4629    0.0000 H   0  0  0  0  0  0  0  0  0  0  0  0
    5.0656   -0.4870    0.0000 H   0  0  0  0  0  0  0  0  0  0  0  0
    5.8626   -0.4870    0.0000 H   0  0  0  0  0  0  0  0  0  0  0  0
    8.9490   -0.6667    0.0000 H   0  0  0  0  0  0  0  0  0  0  0  0
    8.9490    2.6426    0.0000 H   0  0  0  0  0  0  0  0  0  0  0  0
    5.7932   -1.2021    0.0000 H   0  0  0  0  0  0  0  0  0  0  0  0
    8.5991   -1.2021    0.0000 H   0  0  0  0  0  0  0  0  0  0  0  0
    3.9441   -1.5947    0.0000 H   0  0  0  0  0  0  0  0  0  0  0  0
    4.3426   -0.9044    0.0000 H   0  0  0  0  0  0  0  0  0  0  0  0
    3.2646    0.9629    0.0000 H   0  0  0  0  0  0  0  0  0  0  0  0
    2.4675    0.9629    0.0000 H   0  0  0  0  0  0  0  0  0  0  0  0
    5.7932   -2.8221    0.0000 H   0  0  0  0  0  0  0  0  0  0  0  0
    8.5991   -2.8221    0.0000 H   0  0  0  0  0  0  0  0  0  0  0  0
    7.1962   -3.6321    0.0000 H   0  0  0  0  0  0  0  0  0  0  0  0
    2.5560   -0.9751    0.0000 H   0  0  0  0  0  0  0  0  0  0  0  0
    2.3291   -1.8221    0.0000 H   0  0  0  0  0  0  0  0  0  0  0  0
    3.1760   -2.0490    0.0000 H   0  0  0  0  0  0  0  0  0  0  0  0
    1.6900    0.5249    0.0000 H   0  0  0  0  0  0  0  0  0  0  0  0
    1.4631   -0.3221    0.0000 H   0  0  0  0  0  0  0  0  0  0  0  0
    2.3100   -0.5490    0.0000 H   0  0  0  0  0  0  0  0  0  0  0  0
   11.9022   -0.0777    0.0000 H   0  0  0  0  0  0  0  0  0  0  0  0
   12.1324    0.7684    0.0000 H   0  0  0  0  0  0  0  0  0  0  0  0
   11.2863    0.9986    0.0000 H   0  0  0  0  0  0  0  0  0  0  0  0
   11.3424    3.0145    0.0000 H   0  0  0  0  0  0  0  0  0  0  0  0
   10.7200    3.6321    0.0000 H   0  0  0  0  0  0  0  0  0  0  0  0
   10.1024    3.0097    0.0000 H   0  0  0  0  0  0  0  0  0  0  0  0
  1 16  1  0  0  0  0
  1 27  1  0  0  0  0
  2 17  1  0  0  0  0
  2 28  1  0  0  0  0
  3 15  2  0  0  0  0
  4  6  1  0  0  0  0
  4  7  1  0  0  0  0
  4 11  1  0  0  0  0
  5 15  1  0  0  0  0
  5 20  1  0  0  0  0
  5 21  1  0  0  0  0
  6  8  1  0  0  0  0
  6 12  1  0  0  0  0
  6 29  1  0  0  0  0
  7  9  1  0  0  0  0
  7 30  1  0  0  0  0
  7 31  1  0  0  0  0
  8 10  1  0  0  0  0
  8 13  2  0  0  0  0
  9 10  1  0  0  0  0
  9 32  1  0  0  0  0
  9 33  1  0  0  0  0
 10 14  2  0  0  0  0
 11 15  1  0  0  0  0
 11 34  1  0  0  0  0
 11 35  1  0  0  0  0
 12 18  2  0  0  0  0
 12 19  1  0  0  0  0
 13 16  1  0  0  0  0
 13 36  1  0  0  0  0
 14 17  1  0  0  0  0
 14 37  1  0  0  0  0
 16 17  2  0  0  0  0
 18 22  1  0  0  0  0
 18 38  1  0  0  0  0
 19 23  2  0  0  0  0
 19 39  1  0  0  0  0
 20 25  1  0  0  0  0
 20 42  1  0  0  0  0
 20 43  1  0  0  0  0
 21 26  1  0  0  0  0
 21 40  1  0  0  0  0
 21 41  1  0  0  0  0
 22 24  2  0  0  0  0
 22 44  1  0  0  0  0
 23 24  1  0  0  0  0
 23 45  1  0  0  0  0
 24 46  1  0  0  0  0
 25 50  1  0  0  0  0
 25 51  1  0  0  0  0
 25 52  1  0  0  0  0
 26 47  1  0  0  0  0
 26 48  1  0  0  0  0
 26 49  1  0  0  0  0
 27 53  1  0  0  0  0
 27 54  1  0  0  0  0
 27 55  1  0  0  0  0
 28 56  1  0  0  0  0
 28 57  1  0  0  0  0
 28 58  1  0  0  0  0
M  END
> <PUBCHEM_COMPOUND_CID>
17396048

> <PUBCHEM_COMPOUND_CANONICALIZED>
1

> <PUBCHEM_CACTVS_COMPLEXITY>
490

> <PUBCHEM_CACTVS_HBOND_ACCEPTOR>
4

> <PUBCHEM_CACTVS_HBOND_DONOR>
0

> <PUBCHEM_CACTVS_ROTATABLE_BOND>
7

> <PUBCHEM_CACTVS_SUBSKEYS>
AAADceB7MAAAAAAAAAAAAAAAAAAAAAAAAAA8YIAAAAAAAACxQAAAHgAAAAAADCzBmAYyBoMABACIAiFSEACCCAAgIAAIiACOjIgNZiKEsTuUMCpkxhGKqAew0PMOoAABAAAQQABAAAIAACCAAAAAAAAAAA==

> <PUBCHEM_IUPAC_OPENEYE_NAME>
2-(6,7-dimethoxy-1-phenyl-3,4-dihydro-1H-isoquinolin-2-yl)-N,N-diethyl-acetamide

> <PUBCHEM_IUPAC_CAS_NAME>
2-(6,7-dimethoxy-1-phenyl-3,4-dihydro-1H-isoquinolin-2-yl)-N,N-diethylacetamide

> <PUBCHEM_IUPAC_NAME>
2-(6,7-dimethoxy-1-phenyl-3,4-dihydro-1H-isoquinolin-2-yl)-N,N-diethylacetamide

> <PUBCHEM_IUPAC_SYSTEMATIC_NAME>
2-(6,7-dimethoxy-1-phenyl-3,4-dihydro-1H-isoquinolin-2-yl)-N,N-diethyl-ethanamide

> <PUBCHEM_IUPAC_TRADITIONAL_NAME>
2-(6,7-dimethoxy-1-phenyl-3,4-dihydro-1H-isoquinolin-2-yl)-N,N-diethyl-acetamide

> <PUBCHEM_IUPAC_INCHI>
InChI=1S/C23H30N2O3/c1-5-24(6-2)22(26)16-25-13-12-18-14-20(27-3)21(28-4)15-19(18)23(25)17-10-8-7-9-11-17/h7-11,14-15,23H,5-6,12-13,16H2,1-4H3

> <PUBCHEM_IUPAC_INCHIKEY>
DMFRNAXNUGBIQQ-UHFFFAOYSA-N

> <PUBCHEM_XLOGP3_AA>
3.7

> <PUBCHEM_EXACT_MASS>
382.225643

> <PUBCHEM_MOLECULAR_FORMULA>
C23H30N2O3

> <PUBCHEM_MOLECULAR_WEIGHT>
382.4959

> <PUBCHEM_OPENEYE_CAN_SMILES>
CCN(CC)C(=O)CN1CCC2=CC(=C(C=C2C1C3=CC=CC=C3)OC)OC

> <PUBCHEM_OPENEYE_ISO_SMILES>
CCN(CC)C(=O)CN1CCC2=CC(=C(C=C2C1C3=CC=CC=C3)OC)OC

> <PUBCHEM_CACTVS_TPSA>
42

> <PUBCHEM_MONOISOTOPIC_WEIGHT>
382.225643

> <PUBCHEM_TOTAL_CHARGE>
0

> <PUBCHEM_HEAVY_ATOM_COUNT>
28

> <PUBCHEM_ATOM_DEF_STEREO_COUNT>
0

> <PUBCHEM_ATOM_UDEF_STEREO_COUNT>
1

> <PUBCHEM_BOND_DEF_STEREO_COUNT>
0

> <PUBCHEM_BOND_UDEF_STEREO_COUNT>
0

> <PUBCHEM_ISOTOPIC_ATOM_COUNT>
0

> <PUBCHEM_COMPONENT_COUNT>
1

> <PUBCHEM_CACTVS_TAUTO_COUNT>
1

> <PUBCHEM_COORDINATE_TYPE>
1
5
255

> <PUBCHEM_BONDANNOTATIONS>
10  14  8
12  18  8
12  19  8
13  16  8
14  17  8
16  17  8
18  22  8
19  23  8
22  24  8
23  24  8
6  12  3
8  10  8
8  13  8

$$$$

