9418
  -OEChem-06261203412D

 45 46  0     0  0  0  0  0  0999 V2000
    8.9842    3.6949    0.0000 Cl  0  5  0  0  0  0  0  0  0  0  0  0
    4.4086    4.7116    0.0000 O   0  0  0  0  0  0  0  0  0  0  0  0
    2.6703    6.4388    0.0000 N   0  3  0  0  0  0  0  0  0  0  0  0
    2.9747    3.8106    0.0000 N   0  0  0  0  0  0  0  0  0  0  0  0
    3.4747    1.6200    0.0000 N   0  0  0  0  0  0  0  0  0  0  0  0
    3.1042    5.5378    0.0000 C   0  0  0  0  0  0  0  0  0  0  0  0
    2.5409    4.7116    0.0000 C   0  0  0  0  0  0  0  0  0  0  0  0
    2.3513    3.0288    0.0000 C   0  0  0  0  0  0  0  0  0  0  0  0
    2.5738    2.0539    0.0000 C   0  0  0  0  0  0  0  0  0  0  0  0
    3.9748    3.8106    0.0000 C   0  0  0  0  0  0  0  0  0  0  0  0
    4.5982    3.0288    0.0000 C   0  0  0  0  0  0  0  0  0  0  0  0
    4.3757    2.0539    0.0000 C   0  0  0  0  0  0  0  0  0  0  0  0
    2.2364    7.3398    0.0000 C   0  0  0  0  0  0  0  0  0  0  0  0
    3.5713    6.8727    0.0000 C   0  0  0  0  0  0  0  0  0  0  0  0
    1.3608    3.3512    0.0000 C   0  0  0  0  0  0  0  0  0  0  0  0
    1.8212    1.3337    0.0000 C   0  0  0  0  0  0  0  0  0  0  0  0
    3.4747    0.6200    0.0000 C   0  0  0  0  0  0  0  0  0  0  0  0
    5.5887    3.3511    0.0000 C   0  0  0  0  0  0  0  0  0  0  0  0
    5.1283    1.3337    0.0000 C   0  0  0  0  0  0  0  0  0  0  0  0
    0.5917    2.6486    0.0000 C   0  0  0  0  0  0  0  0  0  0  0  0
    0.8235    1.6331    0.0000 C   0  0  0  0  0  0  0  0  0  0  0  0
    6.3578    2.6485    0.0000 C   0  0  0  0  0  0  0  0  0  0  0  0
    6.1259    1.6330    0.0000 C   0  0  0  0  0  0  0  0  0  0  0  0
    3.5480    5.1049    0.0000 H   0  0  0  0  0  0  0  0  0  0  0  0
    3.6076    5.8998    0.0000 H   0  0  0  0  0  0  0  0  0  0  0  0
    2.0970    5.1445    0.0000 H   0  0  0  0  0  0  0  0  0  0  0  0
    2.0375    4.3497    0.0000 H   0  0  0  0  0  0  0  0  0  0  0  0
    2.1117    6.1698    0.0000 H   0  0  0  0  0  0  0  0  0  0  0  0
    2.7950    7.6088    0.0000 H   0  0  0  0  0  0  0  0  0  0  0  0
    1.9674    7.8984    0.0000 H   0  0  0  0  0  0  0  0  0  0  0  0
    1.6778    7.0708    0.0000 H   0  0  0  0  0  0  0  0  0  0  0  0
    3.8403    6.3141    0.0000 H   0  0  0  0  0  0  0  0  0  0  0  0
    4.1299    7.1417    0.0000 H   0  0  0  0  0  0  0  0  0  0  0  0
    3.3023    7.4313    0.0000 H   0  0  0  0  0  0  0  0  0  0  0  0
    1.2298    3.9572    0.0000 H   0  0  0  0  0  0  0  0  0  0  0  0
    1.9662    0.7309    0.0000 H   0  0  0  0  0  0  0  0  0  0  0  0
    2.8547    0.6200    0.0000 H   0  0  0  0  0  0  0  0  0  0  0  0
    3.4747    0.0000    0.0000 H   0  0  0  0  0  0  0  0  0  0  0  0
    4.0947    0.6200    0.0000 H   0  0  0  0  0  0  0  0  0  0  0  0
    5.7197    3.9571    0.0000 H   0  0  0  0  0  0  0  0  0  0  0  0
    4.9833    0.7309    0.0000 H   0  0  0  0  0  0  0  0  0  0  0  0
    0.0000    2.8336    0.0000 H   0  0  0  0  0  0  0  0  0  0  0  0
    0.3707    1.2096    0.0000 H   0  0  0  0  0  0  0  0  0  0  0  0
    6.9495    2.8336    0.0000 H   0  0  0  0  0  0  0  0  0  0  0  0
    6.5788    1.2096    0.0000 H   0  0  0  0  0  0  0  0  0  0  0  0
  2 10  2  0  0  0  0
  3  6  1  0  0  0  0
  3 13  1  0  0  0  0
  3 14  1  0  0  0  0
  3 28  1  0  0  0  0
  4  7  1  0  0  0  0
  4  8  1  0  0  0  0
  4 10  1  0  0  0  0
  5  9  1  0  0  0  0
  5 12  1  0  0  0  0
  5 17  1  0  0  0  0
  6  7  1  0  0  0  0
  6 24  1  0  0  0  0
  6 25  1  0  0  0  0
  7 26  1  0  0  0  0
  7 27  1  0  0  0  0
  8  9  1  0  0  0  0
  8 15  2  0  0  0  0
  9 16  2  0  0  0  0
 10 11  1  0  0  0  0
 11 12  1  0  0  0  0
 11 18  2  0  0  0  0
 12 19  2  0  0  0  0
 13 29  1  0  0  0  0
 13 30  1  0  0  0  0
 13 31  1  0  0  0  0
 14 32  1  0  0  0  0
 14 33  1  0  0  0  0
 14 34  1  0  0  0  0
 15 20  1  0  0  0  0
 15 35  1  0  0  0  0
 16 21  1  0  0  0  0
 16 36  1  0  0  0  0
 17 37  1  0  0  0  0
 17 38  1  0  0  0  0
 17 39  1  0  0  0  0
 18 22  1  0  0  0  0
 18 40  1  0  0  0  0
 19 23  1  0  0  0  0
 19 41  1  0  0  0  0
 20 21  2  0  0  0  0
 20 42  1  0  0  0  0
 21 43  1  0  0  0  0
 22 23  2  0  0  0  0
 22 44  1  0  0  0  0
 23 45  1  0  0  0  0
M  CHG  2   1  -1   3   1
M  END
> <PUBCHEM_COMPOUND_CID>
9418

> <PUBCHEM_COMPOUND_CANONICALIZED>
1

> <PUBCHEM_CACTVS_COMPLEXITY>
398

> <PUBCHEM_CACTVS_HBOND_ACCEPTOR>
3

> <PUBCHEM_CACTVS_HBOND_DONOR>
1

> <PUBCHEM_CACTVS_ROTATABLE_BOND>
3

> <PUBCHEM_CACTVS_SUBSKEYS>
AAADceB7IAAEAAAAAAAAAAAAAAAAAAAAAAAwYAAABYAAAAABQAAAHgAQAAAADAjBmAQywIPAAACIAiVSUACCAAAlAgAIiIEIdMgIYHrA1ZGUIYhglgDIyccYiACOAAAAAAACACAAAAAAAAQAQAAAAAAAAA==

> <PUBCHEM_IUPAC_OPENEYE_NAME>
dimethyl-[2-(11-methyl-6-oxo-benzo[b][1,4]benzodiazepin-5-yl)ethyl]ammonium chloride

> <PUBCHEM_IUPAC_CAS_NAME>
dimethyl-[2-(11-methyl-6-oxo-5-benzo[b][1,4]benzodiazepinyl)ethyl]ammonium chloride

> <PUBCHEM_IUPAC_NAME>
dimethyl-[2-(11-methyl-6-oxobenzo[b][1,4]benzodiazepin-5-yl)ethyl]azanium chloride

> <PUBCHEM_IUPAC_SYSTEMATIC_NAME>
dimethyl-[2-(11-methyl-6-oxidanylidene-benzo[b][1,4]benzodiazepin-5-yl)ethyl]azanium chloride

> <PUBCHEM_IUPAC_TRADITIONAL_NAME>
2-(6-keto-11-methyl-benzo[b][1,4]benzodiazepin-5-yl)ethyl-dimethyl-ammonium chloride

> <PUBCHEM_IUPAC_INCHI>
InChI=1S/C18H21N3O.ClH/c1-19(2)12-13-21-17-11-7-6-10-16(17)20(3)15-9-5-4-8-14(15)18(21)22;/h4-11H,12-13H2,1-3H3;1H

> <PUBCHEM_IUPAC_INCHIKEY>
RJPZIQRLRMWPRF-UHFFFAOYSA-N

> <PUBCHEM_EXACT_MASS>
331.14514

> <PUBCHEM_MOLECULAR_FORMULA>
C18H22ClN3O

> <PUBCHEM_MOLECULAR_WEIGHT>
331.83978

> <PUBCHEM_OPENEYE_CAN_SMILES>
CN1C2=CC=CC=C2C(=O)N(C3=CC=CC=C31)CC[NH+](C)C.[Cl-]

> <PUBCHEM_OPENEYE_ISO_SMILES>
CN1C2=CC=CC=C2C(=O)N(C3=CC=CC=C31)CC[NH+](C)C.[Cl-]

> <PUBCHEM_CACTVS_TPSA>
28

> <PUBCHEM_MONOISOTOPIC_WEIGHT>
331.14514

> <PUBCHEM_TOTAL_CHARGE>
0

> <PUBCHEM_HEAVY_ATOM_COUNT>
23

> <PUBCHEM_ATOM_DEF_STEREO_COUNT>
0

> <PUBCHEM_ATOM_UDEF_STEREO_COUNT>
0

> <PUBCHEM_BOND_DEF_STEREO_COUNT>
0

> <PUBCHEM_BOND_UDEF_STEREO_COUNT>
0

> <PUBCHEM_ISOTOPIC_ATOM_COUNT>
0

> <PUBCHEM_COMPONENT_COUNT>
2

> <PUBCHEM_CACTVS_TAUTO_COUNT>
1

> <PUBCHEM_COORDINATE_TYPE>
1
5
255

> <PUBCHEM_BONDANNOTATIONS>
11  12  8
11  18  8
12  19  8
15  20  8
16  21  8
18  22  8
19  23  8
20  21  8
22  23  8
8  15  8
8  9  8
9  16  8

$$$$

