7847004
  -OEChem-06241222482D

 51 53  0     1  0  0  0  0  0999 V2000
    4.6783    2.3031    0.0000 S   0  0  0  0  0  0  0  0  0  0  0  0
    8.2619   -0.2337    0.0000 O   0  0  0  0  0  0  0  0  0  0  0  0
    9.2619   -1.9657    0.0000 O   0  0  0  0  0  0  0  0  0  0  0  0
   14.0233   -0.4187    0.0000 O   0  0  0  0  0  0  0  0  0  0  0  0
   13.0052    0.9826    0.0000 O   0  0  0  0  0  0  0  0  0  0  0  0
    8.2619    1.4984    0.0000 O   0  0  0  0  0  0  0  0  0  0  0  0
   11.3497   -1.9087    0.0000 N   0  0  0  0  0  0  0  0  0  0  0  0
    4.6783    0.6936    0.0000 N   0  0  0  0  0  0  0  0  0  0  0  0
   10.7619   -1.0997    0.0000 C   0  0  0  0  0  0  0  0  0  0  0  0
   11.3497   -0.2907    0.0000 C   0  0  0  0  0  0  0  0  0  0  0  0
   12.3007   -0.5997    0.0000 C   0  0  0  0  0  0  0  0  0  0  0  0
   12.3007   -1.5997    0.0000 C   0  0  0  0  0  0  0  0  0  0  0  0
    9.2619   -0.2337    0.0000 C   0  0  2  0  0  0  0  0  0  0  0  0
    9.7619   -1.0997    0.0000 C   0  0  0  0  0  0  0  0  0  0  0  0
   11.0406    0.6604    0.0000 C   0  0  0  0  0  0  0  0  0  0  0  0
   13.1097   -2.1875    0.0000 C   0  0  0  0  0  0  0  0  0  0  0  0
    6.7619    0.6323    0.0000 C   0  0  0  0  0  0  0  0  0  0  0  0
    9.7619    0.6323    0.0000 C   0  0  0  0  0  0  0  0  0  0  0  0
    6.2619    1.4984    0.0000 C   0  0  0  0  0  0  0  0  0  0  0  0
   13.1097   -0.0119    0.0000 C   0  0  0  0  0  0  0  0  0  0  0  0
    7.7619    0.6323    0.0000 C   0  0  0  0  0  0  0  0  0  0  0  0
    5.2619    1.4984    0.0000 C   0  0  0  0  0  0  0  0  0  0  0  0
    3.7320    1.9984    0.0000 C   0  0  0  0  0  0  0  0  0  0  0  0
    3.7320    0.9984    0.0000 C   0  0  0  0  0  0  0  0  0  0  0  0
    2.8660    2.4984    0.0000 C   0  0  0  0  0  0  0  0  0  0  0  0
    2.8660    0.4984    0.0000 C   0  0  0  0  0  0  0  0  0  0  0  0
    2.0000    1.9984    0.0000 C   0  0  0  0  0  0  0  0  0  0  0  0
    2.0000    0.9984    0.0000 C   0  0  0  0  0  0  0  0  0  0  0  0
   14.8323    0.1691    0.0000 C   0  0  0  0  0  0  0  0  0  0  0  0
    8.9519    0.3033    0.0000 H   0  0  0  0  0  0  0  0  0  0  0  0
   11.1581   -2.4984    0.0000 H   0  0  0  0  0  0  0  0  0  0  0  0
   11.6303    0.8520    0.0000 H   0  0  0  0  0  0  0  0  0  0  0  0
   10.8491    1.2500    0.0000 H   0  0  0  0  0  0  0  0  0  0  0  0
   10.4510    0.4688    0.0000 H   0  0  0  0  0  0  0  0  0  0  0  0
   12.7453   -2.6891    0.0000 H   0  0  0  0  0  0  0  0  0  0  0  0
   13.6113   -2.5519    0.0000 H   0  0  0  0  0  0  0  0  0  0  0  0
   13.4742   -1.6859    0.0000 H   0  0  0  0  0  0  0  0  0  0  0  0
    6.1793    0.4203    0.0000 H   0  0  0  0  0  0  0  0  0  0  0  0
    6.8695    0.0218    0.0000 H   0  0  0  0  0  0  0  0  0  0  0  0
    6.8445    1.7104    0.0000 H   0  0  0  0  0  0  0  0  0  0  0  0
    6.1542    2.1090    0.0000 H   0  0  0  0  0  0  0  0  0  0  0  0
   10.2988    0.3223    0.0000 H   0  0  0  0  0  0  0  0  0  0  0  0
   10.0719    1.1693    0.0000 H   0  0  0  0  0  0  0  0  0  0  0  0
    9.2249    0.9423    0.0000 H   0  0  0  0  0  0  0  0  0  0  0  0
    2.8660    3.1184    0.0000 H   0  0  0  0  0  0  0  0  0  0  0  0
    2.8660   -0.1216    0.0000 H   0  0  0  0  0  0  0  0  0  0  0  0
    1.4631    2.3084    0.0000 H   0  0  0  0  0  0  0  0  0  0  0  0
    1.4631    0.6884    0.0000 H   0  0  0  0  0  0  0  0  0  0  0  0
   15.1967   -0.3325    0.0000 H   0  0  0  0  0  0  0  0  0  0  0  0
   15.3339    0.5336    0.0000 H   0  0  0  0  0  0  0  0  0  0  0  0
   14.4679    0.6707    0.0000 H   0  0  0  0  0  0  0  0  0  0  0  0
  1 22  1  0  0  0  0
  1 23  1  0  0  0  0
 13  2  1  1  0  0  0
  2 21  1  0  0  0  0
  3 14  2  0  0  0  0
  4 20  1  0  0  0  0
  4 29  1  0  0  0  0
  5 20  2  0  0  0  0
  6 21  2  0  0  0  0
  7  9  1  0  0  0  0
  7 12  1  0  0  0  0
  7 31  1  0  0  0  0
  8 22  2  0  0  0  0
  8 24  1  0  0  0  0
  9 10  2  0  0  0  0
  9 14  1  0  0  0  0
 10 11  1  0  0  0  0
 10 15  1  0  0  0  0
 11 12  2  0  0  0  0
 11 20  1  0  0  0  0
 12 16  1  0  0  0  0
 13 14  1  0  0  0  0
 13 18  1  0  0  0  0
 13 30  1  0  0  0  0
 15 32  1  0  0  0  0
 15 33  1  0  0  0  0
 15 34  1  0  0  0  0
 16 35  1  0  0  0  0
 16 36  1  0  0  0  0
 16 37  1  0  0  0  0
 17 19  1  0  0  0  0
 17 21  1  0  0  0  0
 17 38  1  0  0  0  0
 17 39  1  0  0  0  0
 18 42  1  0  0  0  0
 18 43  1  0  0  0  0
 18 44  1  0  0  0  0
 19 22  1  0  0  0  0
 19 40  1  0  0  0  0
 19 41  1  0  0  0  0
 23 24  1  0  0  0  0
 23 25  2  0  0  0  0
 24 26  2  0  0  0  0
 25 27  1  0  0  0  0
 25 45  1  0  0  0  0
 26 28  1  0  0  0  0
 26 46  1  0  0  0  0
 27 28  2  0  0  0  0
 27 47  1  0  0  0  0
 28 48  1  0  0  0  0
 29 49  1  0  0  0  0
 29 50  1  0  0  0  0
 29 51  1  0  0  0  0
M  END
> <PUBCHEM_COMPOUND_CID>
7847004

> <PUBCHEM_COMPOUND_CANONICALIZED>
1

> <PUBCHEM_CACTVS_COMPLEXITY>
630

> <PUBCHEM_CACTVS_HBOND_ACCEPTOR>
7

> <PUBCHEM_CACTVS_HBOND_DONOR>
1

> <PUBCHEM_CACTVS_ROTATABLE_BOND>
9

> <PUBCHEM_CACTVS_SUBSKEYS>
AAADceB7OABAAAAAAAAAAAAAAAAAAWLAAAAwAAAAAAAAAFgB/AAAHgQQAAAADByh3gIyybLJlAisA6TyTAKD8KBnCjhImT3wbNgIJvrgtb2GMYhm0AHo6Ue8z/C+gAAAAAAAAQAAAAAAAAACAAAAAAAAAA==

> <PUBCHEM_IUPAC_OPENEYE_NAME>
methyl 5-[(2S)-2-[3-(1,3-benzothiazol-2-yl)propanoyloxy]propanoyl]-2,4-dimethyl-1H-pyrrole-3-carboxylate

> <PUBCHEM_IUPAC_CAS_NAME>
5-[(2S)-2-[3-(1,3-benzothiazol-2-yl)-1-oxopropoxy]-1-oxopropyl]-2,4-dimethyl-1H-pyrrole-3-carboxylic acid methyl ester

> <PUBCHEM_IUPAC_NAME>
methyl 5-[(2S)-2-[3-(1,3-benzothiazol-2-yl)propanoyloxy]propanoyl]-2,4-dimethyl-1H-pyrrole-3-carboxylate

> <PUBCHEM_IUPAC_SYSTEMATIC_NAME>
methyl 5-[(2S)-2-[3-(1,3-benzothiazol-2-yl)propanoyloxy]propanoyl]-2,4-dimethyl-1H-pyrrole-3-carboxylate

> <PUBCHEM_IUPAC_TRADITIONAL_NAME>
5-[(2S)-2-[3-(1,3-benzothiazol-2-yl)propanoyloxy]propanoyl]-2,4-dimethyl-1H-pyrrole-3-carboxylic acid methyl ester

> <PUBCHEM_IUPAC_INCHI>
InChI=1S/C21H22N2O5S/c1-11-18(21(26)27-4)12(2)22-19(11)20(25)13(3)28-17(24)10-9-16-23-14-7-5-6-8-15(14)29-16/h5-8,13,22H,9-10H2,1-4H3/t13-/m0/s1

> <PUBCHEM_IUPAC_INCHIKEY>
TXQJKERSSLWQLR-ZDUSSCGKSA-N

> <PUBCHEM_XLOGP3_AA>
4.1

> <PUBCHEM_EXACT_MASS>
414.124943

> <PUBCHEM_MOLECULAR_FORMULA>
C21H22N2O5S

> <PUBCHEM_MOLECULAR_WEIGHT>
414.47478

> <PUBCHEM_OPENEYE_CAN_SMILES>
CC1=C(NC(=C1C(=O)OC)C)C(=O)C(C)OC(=O)CCC2=NC3=CC=CC=C3S2

> <PUBCHEM_OPENEYE_ISO_SMILES>
CC1=C(NC(=C1C(=O)OC)C)C(=O)[C@H](C)OC(=O)CCC2=NC3=CC=CC=C3S2

> <PUBCHEM_CACTVS_TPSA>
127

> <PUBCHEM_MONOISOTOPIC_WEIGHT>
414.124943

> <PUBCHEM_TOTAL_CHARGE>
0

> <PUBCHEM_HEAVY_ATOM_COUNT>
29

> <PUBCHEM_ATOM_DEF_STEREO_COUNT>
1

> <PUBCHEM_ATOM_UDEF_STEREO_COUNT>
0

> <PUBCHEM_BOND_DEF_STEREO_COUNT>
0

> <PUBCHEM_BOND_UDEF_STEREO_COUNT>
0

> <PUBCHEM_ISOTOPIC_ATOM_COUNT>
0

> <PUBCHEM_COMPONENT_COUNT>
1

> <PUBCHEM_CACTVS_TAUTO_COUNT>
66

> <PUBCHEM_COORDINATE_TYPE>
1
5
255

> <PUBCHEM_BONDANNOTATIONS>
1  22  8
1  23  8
10  11  8
11  12  8
13  2  5
23  24  8
23  25  8
24  26  8
25  27  8
26  28  8
27  28  8
7  12  8
7  9  8
8  22  8
8  24  8
9  10  8

$$$$

