47205671
  -OEChem-06241222592D

 37 38  0     1  0  0  0  0  0999 V2000
    3.5103    2.7362    0.0000 S   0  0  0  0  0  0  0  0  0  0  0  0
    3.7891    0.9761    0.0000 O   0  0  0  0  0  0  0  0  0  0  0  0
    5.4641   -1.1116    0.0000 O   0  0  0  0  0  0  0  0  0  0  0  0
    4.3193    3.3240    0.0000 O   0  0  0  0  0  0  0  0  0  0  0  0
    2.7013    2.1484    0.0000 O   0  0  0  0  0  0  0  0  0  0  0  0
    3.7320   -1.1116    0.0000 N   0  0  0  0  0  0  0  0  0  0  0  0
    2.9225    3.5452    0.0000 N   0  0  0  0  0  0  0  0  0  0  0  0
    2.8660   -2.6116    0.0000 C   0  0  3  0  0  0  0  0  0  0  0  0
    3.7320   -2.1116    0.0000 C   0  0  3  0  0  0  0  0  0  0  0  0
    2.8660   -3.6116    0.0000 C   0  0  0  0  0  0  0  0  0  0  0  0
    4.5981   -2.6116    0.0000 C   0  0  0  0  0  0  0  0  0  0  0  0
    3.7320   -4.1116    0.0000 C   0  0  0  0  0  0  0  0  0  0  0  0
    4.5981   -3.6116    0.0000 C   0  0  0  0  0  0  0  0  0  0  0  0
    2.0000   -2.1116    0.0000 C   0  0  0  0  0  0  0  0  0  0  0  0
    4.5981   -0.6116    0.0000 C   0  0  0  0  0  0  0  0  0  0  0  0
    4.5981    0.3884    0.0000 C   0  0  0  0  0  0  0  0  0  0  0  0
    5.4071    0.9761    0.0000 C   0  0  0  0  0  0  0  0  0  0  0  0
    4.0981    1.9272    0.0000 C   0  0  0  0  0  0  0  0  0  0  0  0
    5.0981    1.9272    0.0000 C   0  0  0  0  0  0  0  0  0  0  0  0
    2.8660   -1.9916    0.0000 H   0  0  0  0  0  0  0  0  0  0  0  0
    4.2690   -1.8016    0.0000 H   0  0  0  0  0  0  0  0  0  0  0  0
    2.2554   -3.5040    0.0000 H   0  0  0  0  0  0  0  0  0  0  0  0
    2.6540   -4.1942    0.0000 H   0  0  0  0  0  0  0  0  0  0  0  0
    5.2087   -2.7193    0.0000 H   0  0  0  0  0  0  0  0  0  0  0  0
    4.8101   -2.0290    0.0000 H   0  0  0  0  0  0  0  0  0  0  0  0
    3.3335   -4.5866    0.0000 H   0  0  0  0  0  0  0  0  0  0  0  0
    4.1306   -4.5866    0.0000 H   0  0  0  0  0  0  0  0  0  0  0  0
    4.8101   -4.1942    0.0000 H   0  0  0  0  0  0  0  0  0  0  0  0
    5.2087   -3.5040    0.0000 H   0  0  0  0  0  0  0  0  0  0  0  0
    2.3100   -1.5747    0.0000 H   0  0  0  0  0  0  0  0  0  0  0  0
    1.4631   -1.8016    0.0000 H   0  0  0  0  0  0  0  0  0  0  0  0
    1.6900   -2.6486    0.0000 H   0  0  0  0  0  0  0  0  0  0  0  0
    3.1951   -0.8016    0.0000 H   0  0  0  0  0  0  0  0  0  0  0  0
    5.9967    0.7846    0.0000 H   0  0  0  0  0  0  0  0  0  0  0  0
    5.4625    2.4288    0.0000 H   0  0  0  0  0  0  0  0  0  0  0  0
    3.1747    4.1116    0.0000 H   0  0  0  0  0  0  0  0  0  0  0  0
    2.3059    3.4804    0.0000 H   0  0  0  0  0  0  0  0  0  0  0  0
  1  4  2  0  0  0  0
  1  5  2  0  0  0  0
  1  7  1  0  0  0  0
  1 18  1  0  0  0  0
  2 16  1  0  0  0  0
  2 18  1  0  0  0  0
  3 15  2  0  0  0  0
  6  9  1  0  0  0  0
  6 15  1  0  0  0  0
  6 33  1  0  0  0  0
  7 36  1  0  0  0  0
  7 37  1  0  0  0  0
  8  9  1  0  0  0  0
  8 10  1  0  0  0  0
  8 14  1  0  0  0  0
  8 20  1  0  0  0  0
  9 11  1  0  0  0  0
  9 21  1  0  0  0  0
 10 12  1  0  0  0  0
 10 22  1  0  0  0  0
 10 23  1  0  0  0  0
 11 13  1  0  0  0  0
 11 24  1  0  0  0  0
 11 25  1  0  0  0  0
 12 13  1  0  0  0  0
 12 26  1  0  0  0  0
 12 27  1  0  0  0  0
 13 28  1  0  0  0  0
 13 29  1  0  0  0  0
 14 30  1  0  0  0  0
 14 31  1  0  0  0  0
 14 32  1  0  0  0  0
 15 16  1  0  0  0  0
 16 17  2  0  0  0  0
 17 19  1  0  0  0  0
 17 34  1  0  0  0  0
 18 19  2  0  0  0  0
 19 35  1  0  0  0  0
M  END
> <PUBCHEM_COMPOUND_CID>
47205671

> <PUBCHEM_COMPOUND_CANONICALIZED>
1

> <PUBCHEM_CACTVS_COMPLEXITY>
432

> <PUBCHEM_CACTVS_HBOND_ACCEPTOR>
5

> <PUBCHEM_CACTVS_HBOND_DONOR>
2

> <PUBCHEM_CACTVS_ROTATABLE_BOND>
3

> <PUBCHEM_CACTVS_SUBSKEYS>
AAADceBzOABAAAAAAAAAAAAAAAAAASAAAAAwAAAAAAAAAAABgAAAHgQQQAAADSzB0AQyBYLABEKIAKFSEHLCCBAkIAAIiJnODMgOJjKEtD+HGSjk1hGYqYeYlwIOAAAAAAAAAAAAAAAAAAQAAAAAAAAAAA==

> <PUBCHEM_IUPAC_OPENEYE_NAME>
N-(2-methylcyclohexyl)-5-sulfamoyl-furan-2-carboxamide

> <PUBCHEM_IUPAC_CAS_NAME>
N-(2-methylcyclohexyl)-5-sulfamoyl-2-furancarboxamide

> <PUBCHEM_IUPAC_NAME>
N-(2-methylcyclohexyl)-5-sulfamoylfuran-2-carboxamide

> <PUBCHEM_IUPAC_SYSTEMATIC_NAME>
N-(2-methylcyclohexyl)-5-sulfamoyl-furan-2-carboxamide

> <PUBCHEM_IUPAC_TRADITIONAL_NAME>
N-(2-methylcyclohexyl)-5-sulfamoyl-2-furamide

> <PUBCHEM_IUPAC_INCHI>
InChI=1S/C12H18N2O4S/c1-8-4-2-3-5-9(8)14-12(15)10-6-7-11(18-10)19(13,16)17/h6-9H,2-5H2,1H3,(H,14,15)(H2,13,16,17)

> <PUBCHEM_IUPAC_INCHIKEY>
VDINTNUFERVRGA-UHFFFAOYSA-N

> <PUBCHEM_XLOGP3_AA>
1.7

> <PUBCHEM_EXACT_MASS>
286.098728

> <PUBCHEM_MOLECULAR_FORMULA>
C12H18N2O4S

> <PUBCHEM_MOLECULAR_WEIGHT>
286.34732

> <PUBCHEM_OPENEYE_CAN_SMILES>
CC1CCCCC1NC(=O)C2=CC=C(O2)S(=O)(=O)N

> <PUBCHEM_OPENEYE_ISO_SMILES>
CC1CCCCC1NC(=O)C2=CC=C(O2)S(=O)(=O)N

> <PUBCHEM_CACTVS_TPSA>
111

> <PUBCHEM_MONOISOTOPIC_WEIGHT>
286.098728

> <PUBCHEM_TOTAL_CHARGE>
0

> <PUBCHEM_HEAVY_ATOM_COUNT>
19

> <PUBCHEM_ATOM_DEF_STEREO_COUNT>
0

> <PUBCHEM_ATOM_UDEF_STEREO_COUNT>
2

> <PUBCHEM_BOND_DEF_STEREO_COUNT>
0

> <PUBCHEM_BOND_UDEF_STEREO_COUNT>
0

> <PUBCHEM_ISOTOPIC_ATOM_COUNT>
0

> <PUBCHEM_COMPONENT_COUNT>
1

> <PUBCHEM_CACTVS_TAUTO_COUNT>
2

> <PUBCHEM_COORDINATE_TYPE>
1
5
255

> <PUBCHEM_BONDANNOTATIONS>
16  17  8
17  19  8
18  19  8
2  16  8
2  18  8
9  6  3
8  14  3

$$$$

