9525
  -OEChem-06261203462D

  9  8  0     0  0  0  0  0  0999 V2000
    2.8660    0.0000    0.0000 As  0  0  0  0  0  0  0  0  0  0  0  0
    2.0000   -0.5000    0.0000 Cl  0  0  0  0  0  0  0  0  0  0  0  0
    2.3660    0.8660    0.0000 Cl  0  0  0  0  0  0  0  0  0  0  0  0
    5.4641    0.5000    0.0000 Cl  0  0  0  0  0  0  0  0  0  0  0  0
    3.3660   -0.8660    0.0000 O   0  0  0  0  0  0  0  0  0  0  0  0
    3.7321    0.5000    0.0000 C   0  0  0  0  0  0  0  0  0  0  0  0
    4.5981    0.0000    0.0000 C   0  0  0  0  0  0  0  0  0  0  0  0
    3.7321    1.1200    0.0000 H   0  0  0  0  0  0  0  0  0  0  0  0
    4.5981   -0.6200    0.0000 H   0  0  0  0  0  0  0  0  0  0  0  0
  1  2  1  0  0  0  0
  1  3  1  0  0  0  0
  1  5  2  0  0  0  0
  1  6  1  0  0  0  0
  4  7  1  0  0  0  0
  6  7  2  3  0  0  0
  6  8  1  0  0  0  0
  7  9  1  0  0  0  0
M  END
> <PUBCHEM_COMPOUND_CID>
9525

> <PUBCHEM_COMPOUND_CANONICALIZED>
1

> <PUBCHEM_CACTVS_COMPLEXITY>
114

> <PUBCHEM_CACTVS_HBOND_ACCEPTOR>
1

> <PUBCHEM_CACTVS_HBOND_DONOR>
0

> <PUBCHEM_CACTVS_ROTATABLE_BOND>
1

> <PUBCHEM_CACTVS_SUBSKEYS>
AAADcQBAIAAGAAAAQAAAAAAAAAAAAAAAAAAAAAAAAAAAAAAAAAAAGAMAAAAAAAOAAEAAAAAAAACAAAACAAAAAAAAAAAIAAAAAAAAAAAAAAAAAAAAAAAAAAAAAAAAAAAAAAAAAAAAAAAAAAAAAAAAAAAAAA==

> <PUBCHEM_IUPAC_OPENEYE_NAME>
1-chloro-2-dichloroarsoryl-ethylene

> <PUBCHEM_IUPAC_CAS_NAME>
1-chloro-2-dichloroarsorylethene

> <PUBCHEM_IUPAC_NAME>
1-chloro-2-dichloroarsorylethene

> <PUBCHEM_IUPAC_SYSTEMATIC_NAME>
1-bis(chloranyl)arsoryl-2-chloranyl-ethene

> <PUBCHEM_IUPAC_TRADITIONAL_NAME>
1-chloro-2-dichloroarsoryl-ethylene

> <PUBCHEM_IUPAC_INCHI>
InChI=1S/C2H2AsCl3O/c4-2-1-3(5,6)7/h1-2H

> <PUBCHEM_IUPAC_INCHIKEY>
UQKJRDWYYZHIOR-UHFFFAOYSA-N

> <PUBCHEM_EXACT_MASS>
221.838719

> <PUBCHEM_MOLECULAR_FORMULA>
C2H2AsCl3O

> <PUBCHEM_MOLECULAR_WEIGHT>
223.31728

> <PUBCHEM_OPENEYE_CAN_SMILES>
C(=C[As](=O)(Cl)Cl)Cl

> <PUBCHEM_OPENEYE_ISO_SMILES>
C(=C[As](=O)(Cl)Cl)Cl

> <PUBCHEM_CACTVS_TPSA>
17.1

> <PUBCHEM_MONOISOTOPIC_WEIGHT>
221.838719

> <PUBCHEM_TOTAL_CHARGE>
0

> <PUBCHEM_HEAVY_ATOM_COUNT>
7

> <PUBCHEM_ATOM_DEF_STEREO_COUNT>
0

> <PUBCHEM_ATOM_UDEF_STEREO_COUNT>
0

> <PUBCHEM_BOND_DEF_STEREO_COUNT>
0

> <PUBCHEM_BOND_UDEF_STEREO_COUNT>
1

> <PUBCHEM_ISOTOPIC_ATOM_COUNT>
0

> <PUBCHEM_COMPONENT_COUNT>
1

> <PUBCHEM_CACTVS_TAUTO_COUNT>
1

> <PUBCHEM_COORDINATE_TYPE>
1
5
255

> <PUBCHEM_BONDANNOTATIONS>
6  7  1

$$$$

