10073
  -OEChem-06261204172D

 56 60  0     1  0  0  0  0  0999 V2000
    7.0197    1.9313    0.0000 O   0  0  0  0  0  0  0  0  0  0  0  0
    7.3522    1.0908    0.0000 O   0  0  0  0  0  0  0  0  0  0  0  0
    2.6254   -0.4450    0.0000 N   0  0  3  0  0  0  0  0  0  0  0  0
    5.7049    0.5556    0.0000 N   0  0  0  0  0  0  0  0  0  0  0  0
    4.1652    0.0553    0.0000 C   0  0  3  0  0  0  0  0  0  0  0  0
    3.5397   -0.6393    0.0000 C   0  0  1  0  0  0  0  0  0  0  0  0
    3.8286   -1.5283    0.0000 C   0  0  1  0  0  0  0  0  0  0  0  0
    5.0795   -0.1390    0.0000 C   0  0  1  0  0  0  0  0  0  0  0  0
    3.7801    1.0909    0.0000 C   0  0  0  0  0  0  0  0  0  0  0  0
    4.7429   -1.7226    0.0000 C   0  0  0  0  0  0  0  0  0  0  0  0
    5.3683   -1.0280    0.0000 C   0  0  0  0  0  0  0  0  0  0  0  0
    2.3366    0.4440    0.0000 C   0  0  0  0  0  0  0  0  0  0  0  0
    3.2031   -2.2229    0.0000 C   0  0  0  0  0  0  0  0  0  0  0  0
    4.5018    1.6389    0.0000 C   0  0  0  0  0  0  0  0  0  0  0  0
    4.1376   -2.4794    0.0000 C   0  0  0  0  0  0  0  0  0  0  0  0
    2.0000   -1.1396    0.0000 C   0  0  0  0  0  0  0  0  0  0  0  0
    2.2888   -2.0286    0.0000 C   0  0  0  0  0  0  0  0  0  0  0  0
    5.4161    1.4446    0.0000 C   0  0  0  0  0  0  0  0  0  0  0  0
    4.2129    2.5279    0.0000 C   0  0  0  0  0  0  0  0  0  0  0  0
    3.4685   -3.2225    0.0000 C   0  0  0  0  0  0  0  0  0  0  0  0
    6.6831    0.3477    0.0000 C   0  0  0  0  0  0  0  0  0  0  0  0
    6.0415    2.1392    0.0000 C   0  0  0  0  0  0  0  0  0  0  0  0
    4.8384    3.2225    0.0000 C   0  0  0  0  0  0  0  0  0  0  0  0
    5.7527    3.0282    0.0000 C   0  0  0  0  0  0  0  0  0  0  0  0
    6.9921   -0.6034    0.0000 C   0  0  0  0  0  0  0  0  0  0  0  0
    7.6888    2.6744    0.0000 C   0  0  0  0  0  0  0  0  0  0  0  0
    3.2771    0.1691    0.0000 H   0  0  0  0  0  0  0  0  0  0  0  0
    5.9109   -0.3158    0.0000 H   0  0  0  0  0  0  0  0  0  0  0  0
    4.3564    1.3196    0.0000 H   0  0  0  0  0  0  0  0  0  0  0  0
    3.5389    1.6621    0.0000 H   0  0  0  0  0  0  0  0  0  0  0  0
    4.5106   -2.2975    0.0000 H   0  0  0  0  0  0  0  0  0  0  0  0
    5.2687   -2.0512    0.0000 H   0  0  0  0  0  0  0  0  0  0  0  0
    5.7500   -1.5166    0.0000 H   0  0  0  0  0  0  0  0  0  0  0  0
    5.9157   -0.7369    0.0000 H   0  0  0  0  0  0  0  0  0  0  0  0
    2.1034    1.0184    0.0000 H   0  0  0  0  0  0  0  0  0  0  0  0
    1.7542    0.2314    0.0000 H   0  0  0  0  0  0  0  0  0  0  0  0
    2.9709   -2.7978    0.0000 H   0  0  0  0  0  0  0  0  0  0  0  0
    3.7289   -2.5515    0.0000 H   0  0  0  0  0  0  0  0  0  0  0  0
    4.5193   -2.9679    0.0000 H   0  0  0  0  0  0  0  0  0  0  0  0
    4.6850   -2.1883    0.0000 H   0  0  0  0  0  0  0  0  0  0  0  0
    1.6183   -0.6510    0.0000 H   0  0  0  0  0  0  0  0  0  0  0  0
    1.4526   -1.4307    0.0000 H   0  0  0  0  0  0  0  0  0  0  0  0
    1.6749   -2.1149    0.0000 H   0  0  0  0  0  0  0  0  0  0  0  0
    2.2672   -2.6482    0.0000 H   0  0  0  0  0  0  0  0  0  0  0  0
    3.6065    2.6568    0.0000 H   0  0  0  0  0  0  0  0  0  0  0  0
    3.0077   -2.8076    0.0000 H   0  0  0  0  0  0  0  0  0  0  0  0
    3.0536   -3.6832    0.0000 H   0  0  0  0  0  0  0  0  0  0  0  0
    3.9292   -3.6374    0.0000 H   0  0  0  0  0  0  0  0  0  0  0  0
    4.6468    3.8122    0.0000 H   0  0  0  0  0  0  0  0  0  0  0  0
    6.1676    3.4889    0.0000 H   0  0  0  0  0  0  0  0  0  0  0  0
    6.4024   -0.7950    0.0000 H   0  0  0  0  0  0  0  0  0  0  0  0
    7.1837   -1.1930    0.0000 H   0  0  0  0  0  0  0  0  0  0  0  0
    7.5817   -0.4118    0.0000 H   0  0  0  0  0  0  0  0  0  0  0  0
    8.1496    2.2596    0.0000 H   0  0  0  0  0  0  0  0  0  0  0  0
    8.1036    3.1352    0.0000 H   0  0  0  0  0  0  0  0  0  0  0  0
    7.2280    3.0893    0.0000 H   0  0  0  0  0  0  0  0  0  0  0  0
  1 22  1  0  0  0  0
  1 26  1  0  0  0  0
  2 21  2  0  0  0  0
  3  6  1  0  0  0  0
  3 12  1  0  0  0  0
  3 16  1  0  0  0  0
  4  8  1  0  0  0  0
  4 18  1  0  0  0  0
  4 21  1  0  0  0  0
  5  6  1  0  0  0  0
  5  8  1  0  0  0  0
  5  9  1  0  0  0  0
  5 14  1  0  0  0  0
  6  7  1  0  0  0  0
  6 27  1  6  0  0  0
  7 10  1  0  0  0  0
  7 13  1  0  0  0  0
  7 15  1  6  0  0  0
  8 11  1  0  0  0  0
  8 28  1  1  0  0  0
  9 12  1  0  0  0  0
  9 29  1  0  0  0  0
  9 30  1  0  0  0  0
 10 11  1  0  0  0  0
 10 31  1  0  0  0  0
 10 32  1  0  0  0  0
 11 33  1  0  0  0  0
 11 34  1  0  0  0  0
 12 35  1  0  0  0  0
 12 36  1  0  0  0  0
 13 17  1  0  0  0  0
 13 37  1  0  0  0  0
 13 38  1  0  0  0  0
 14 18  2  0  0  0  0
 14 19  1  0  0  0  0
 15 20  1  0  0  0  0
 15 39  1  0  0  0  0
 15 40  1  0  0  0  0
 16 17  1  0  0  0  0
 16 41  1  0  0  0  0
 16 42  1  0  0  0  0
 17 43  1  0  0  0  0
 17 44  1  0  0  0  0
 18 22  1  0  0  0  0
 19 23  2  0  0  0  0
 19 45  1  0  0  0  0
 20 46  1  0  0  0  0
 20 47  1  0  0  0  0
 20 48  1  0  0  0  0
 21 25  1  0  0  0  0
 22 24  2  0  0  0  0
 23 24  1  0  0  0  0
 23 49  1  0  0  0  0
 24 50  1  0  0  0  0
 25 51  1  0  0  0  0
 25 52  1  0  0  0  0
 25 53  1  0  0  0  0
 26 54  1  0  0  0  0
 26 55  1  0  0  0  0
 26 56  1  0  0  0  0
M  END
> <PUBCHEM_COMPOUND_CID>
10073

> <PUBCHEM_COMPOUND_CANONICALIZED>
1

> <PUBCHEM_CACTVS_COMPLEXITY>
595

> <PUBCHEM_CACTVS_HBOND_ACCEPTOR>
3

> <PUBCHEM_CACTVS_HBOND_DONOR>
0

> <PUBCHEM_CACTVS_ROTATABLE_BOND>
2

> <PUBCHEM_CACTVS_SUBSKEYS>
AAADceB7MAAAAAAAAAAAAAAAAAAAAWLAAAA8YIAAAAAAAFixAAAAHgAAAAAADizBmAYyxoMABACIAiVSUACCCAAhIAAIiAAPTIgOJiLE8ZuFMChkxhHY6AeQ0PMPgAABAAACEAAQAAYACAQgAAAAAAAAAA==

> <PUBCHEM_IUPAC_INCHI>
InChI=1S/C22H30N2O2/c1-4-21-10-6-13-23-14-12-22(20(21)23)16-7-5-8-17(26-3)19(16)24(15(2)25)18(22)9-11-21/h5,7-8,18,20H,4,6,9-14H2,1-3H3/t18-,20-,21-,22?/m1/s1

> <PUBCHEM_IUPAC_INCHIKEY>
ARQOGCYMPUOVHK-JQMRATEZSA-N

> <PUBCHEM_XLOGP3_AA>
3.4

> <PUBCHEM_EXACT_MASS>
354.230728

> <PUBCHEM_MOLECULAR_FORMULA>
C22H30N2O2

> <PUBCHEM_MOLECULAR_WEIGHT>
354.4858

> <PUBCHEM_OPENEYE_CAN_SMILES>
CCC12CCCN3C1C4(CC3)C(CC2)N(C5=C4C=CC=C5OC)C(=O)C

> <PUBCHEM_OPENEYE_ISO_SMILES>
CC[C@]12CCCN3[C@H]1C4(CC3)[C@@H](CC2)N(C5=C4C=CC=C5OC)C(=O)C

> <PUBCHEM_CACTVS_TPSA>
32.8

> <PUBCHEM_MONOISOTOPIC_WEIGHT>
354.230728

> <PUBCHEM_TOTAL_CHARGE>
0

> <PUBCHEM_HEAVY_ATOM_COUNT>
26

> <PUBCHEM_ATOM_DEF_STEREO_COUNT>
3

> <PUBCHEM_ATOM_UDEF_STEREO_COUNT>
1

> <PUBCHEM_BOND_DEF_STEREO_COUNT>
0

> <PUBCHEM_BOND_UDEF_STEREO_COUNT>
0

> <PUBCHEM_ISOTOPIC_ATOM_COUNT>
0

> <PUBCHEM_COMPONENT_COUNT>
1

> <PUBCHEM_CACTVS_TAUTO_COUNT>
1

> <PUBCHEM_COORDINATE_TYPE>
1
5
255

> <PUBCHEM_BONDANNOTATIONS>
14  18  8
14  19  8
18  22  8
19  23  8
22  24  8
23  24  8
5  9  3
6  27  6
7  15  6
8  28  5

$$$$

