51090967
  -OEChem-06241223012D

 40 41  0     1  0  0  0  0  0999 V2000
   10.5369   -0.5961    0.0000 O   0  0  0  0  0  0  0  0  0  0  0  0
    6.8747   -0.9353    0.0000 O   0  0  0  0  0  0  0  0  0  0  0  0
    3.4863   -0.2151    0.0000 O   0  0  0  0  0  0  0  0  0  0  0  0
    6.3395    0.7119    0.0000 N   0  0  0  0  0  0  0  0  0  0  0  0
    2.9511    1.4322    0.0000 N   0  0  0  0  0  0  0  0  0  0  0  0
   12.9661   -1.0605    0.0000 C   0  0  3  0  0  0  0  0  0  0  0  0
   12.2970   -0.3173    0.0000 C   0  0  3  0  0  0  0  0  0  0  0  0
   13.2751   -0.1094    0.0000 C   0  0  0  0  0  0  0  0  0  0  0  0
   13.1740   -2.0386    0.0000 C   0  0  0  0  0  0  0  0  0  0  0  0
   11.3459   -0.0083    0.0000 C   0  0  0  0  0  0  0  0  0  0  0  0
   11.0369    0.9428    0.0000 C   0  0  0  0  0  0  0  0  0  0  0  0
   10.0369    0.9428    0.0000 C   0  0  0  0  0  0  0  0  0  0  0  0
    9.7279   -0.0083    0.0000 C   0  0  0  0  0  0  0  0  0  0  0  0
    8.7768   -0.3173    0.0000 C   0  0  0  0  0  0  0  0  0  0  0  0
    8.0337    0.3518    0.0000 C   0  0  0  0  0  0  0  0  0  0  0  0
    7.0826    0.0428    0.0000 C   0  0  0  0  0  0  0  0  0  0  0  0
    5.3884    0.4029    0.0000 C   0  0  0  0  0  0  0  0  0  0  0  0
    4.6453    1.0720    0.0000 C   0  0  0  0  0  0  0  0  0  0  0  0
    3.6942    0.7630    0.0000 C   0  0  0  0  0  0  0  0  0  0  0  0
    2.0000    1.1231    0.0000 C   0  0  0  0  0  0  0  0  0  0  0  0
   12.4137   -1.3419    0.0000 H   0  0  0  0  0  0  0  0  0  0  0  0
   12.3294    0.3018    0.0000 H   0  0  0  0  0  0  0  0  0  0  0  0
   13.8891   -0.1957    0.0000 H   0  0  0  0  0  0  0  0  0  0  0  0
   13.2535    0.5102    0.0000 H   0  0  0  0  0  0  0  0  0  0  0  0
   12.5675   -2.1675    0.0000 H   0  0  0  0  0  0  0  0  0  0  0  0
   13.3029   -2.6451    0.0000 H   0  0  0  0  0  0  0  0  0  0  0  0
   13.7804   -1.9097    0.0000 H   0  0  0  0  0  0  0  0  0  0  0  0
   11.4013    1.4444    0.0000 H   0  0  0  0  0  0  0  0  0  0  0  0
    9.6724    1.4444    0.0000 H   0  0  0  0  0  0  0  0  0  0  0  0
    8.6479   -0.9238    0.0000 H   0  0  0  0  0  0  0  0  0  0  0  0
    8.1626    0.9583    0.0000 H   0  0  0  0  0  0  0  0  0  0  0  0
    4.8998    0.0212    0.0000 H   0  0  0  0  0  0  0  0  0  0  0  0
    5.6795   -0.1445    0.0000 H   0  0  0  0  0  0  0  0  0  0  0  0
    5.1338    1.4538    0.0000 H   0  0  0  0  0  0  0  0  0  0  0  0
    4.3542    1.6195    0.0000 H   0  0  0  0  0  0  0  0  0  0  0  0
    6.4684    1.3184    0.0000 H   0  0  0  0  0  0  0  0  0  0  0  0
    3.0800    2.0386    0.0000 H   0  0  0  0  0  0  0  0  0  0  0  0
    1.8084    1.7128    0.0000 H   0  0  0  0  0  0  0  0  0  0  0  0
    1.4103    0.9315    0.0000 H   0  0  0  0  0  0  0  0  0  0  0  0
    2.1916    0.5335    0.0000 H   0  0  0  0  0  0  0  0  0  0  0  0
  1 10  1  0  0  0  0
  1 13  1  0  0  0  0
  2 16  2  0  0  0  0
  3 19  2  0  0  0  0
  4 16  1  0  0  0  0
  4 17  1  0  0  0  0
  4 36  1  0  0  0  0
  5 19  1  0  0  0  0
  5 20  1  0  0  0  0
  5 37  1  0  0  0  0
  6  7  1  0  0  0  0
  6  8  1  0  0  0  0
  6  9  1  0  0  0  0
  6 21  1  0  0  0  0
  7  8  1  0  0  0  0
  7 10  1  0  0  0  0
  7 22  1  0  0  0  0
  8 23  1  0  0  0  0
  8 24  1  0  0  0  0
  9 25  1  0  0  0  0
  9 26  1  0  0  0  0
  9 27  1  0  0  0  0
 10 11  2  0  0  0  0
 11 12  1  0  0  0  0
 11 28  1  0  0  0  0
 12 13  2  0  0  0  0
 12 29  1  0  0  0  0
 13 14  1  0  0  0  0
 14 15  2  0  0  0  0
 14 30  1  0  0  0  0
 15 16  1  0  0  0  0
 15 31  1  0  0  0  0
 17 18  1  0  0  0  0
 17 32  1  0  0  0  0
 17 33  1  0  0  0  0
 18 19  1  0  0  0  0
 18 34  1  0  0  0  0
 18 35  1  0  0  0  0
 20 38  1  0  0  0  0
 20 39  1  0  0  0  0
 20 40  1  0  0  0  0
M  END
> <PUBCHEM_COMPOUND_CID>
51090967

> <PUBCHEM_COMPOUND_CANONICALIZED>
1

> <PUBCHEM_CACTVS_COMPLEXITY>
395

> <PUBCHEM_CACTVS_HBOND_ACCEPTOR>
3

> <PUBCHEM_CACTVS_HBOND_DONOR>
2

> <PUBCHEM_CACTVS_ROTATABLE_BOND>
6

> <PUBCHEM_CACTVS_SUBSKEYS>
AAADceBzMAAAAAAAAAAAAAAAGAAAASAAAAAAAAAAAAAAAAABgAAAHgAQAAAADQTBkAQyBILABECIAKFSEACCCAAkIAAIiIEOCMgMJjqEdRqGGSCk1hGIqYeIyPCOAAAAAAAAAAAAAAAAAAAAAAAAAAAAAA==

> <PUBCHEM_IUPAC_OPENEYE_NAME>
N-methyl-3-[[(E)-3-[5-(2-methylcyclopropyl)-2-furyl]prop-2-enoyl]amino]propanamide

> <PUBCHEM_IUPAC_CAS_NAME>
N-methyl-3-[[(E)-3-[5-(2-methylcyclopropyl)-2-furanyl]-1-oxoprop-2-enyl]amino]propanamide

> <PUBCHEM_IUPAC_NAME>
N-methyl-3-[[(E)-3-[5-(2-methylcyclopropyl)furan-2-yl]prop-2-enoyl]amino]propanamide

> <PUBCHEM_IUPAC_SYSTEMATIC_NAME>
N-methyl-3-[[(E)-3-[5-(2-methylcyclopropyl)furan-2-yl]prop-2-enoyl]amino]propanamide

> <PUBCHEM_IUPAC_TRADITIONAL_NAME>
N-methyl-3-[[(E)-3-[5-(2-methylcyclopropyl)-2-furyl]acryloyl]amino]propionamide

> <PUBCHEM_IUPAC_INCHI>
InChI=1S/C15H20N2O3/c1-10-9-12(10)13-5-3-11(20-13)4-6-15(19)17-8-7-14(18)16-2/h3-6,10,12H,7-9H2,1-2H3,(H,16,18)(H,17,19)/b6-4+

> <PUBCHEM_IUPAC_INCHIKEY>
JGOLBQJUKGKUKL-GQCTYLIASA-N

> <PUBCHEM_XLOGP3_AA>
1

> <PUBCHEM_EXACT_MASS>
276.147393

> <PUBCHEM_MOLECULAR_FORMULA>
C15H20N2O3

> <PUBCHEM_MOLECULAR_WEIGHT>
276.3309

> <PUBCHEM_OPENEYE_CAN_SMILES>
CC1CC1C2=CC=C(O2)C=CC(=O)NCCC(=O)NC

> <PUBCHEM_OPENEYE_ISO_SMILES>
CC1CC1C2=CC=C(O2)/C=C/C(=O)NCCC(=O)NC

> <PUBCHEM_CACTVS_TPSA>
71.3

> <PUBCHEM_MONOISOTOPIC_WEIGHT>
276.147393

> <PUBCHEM_TOTAL_CHARGE>
0

> <PUBCHEM_HEAVY_ATOM_COUNT>
20

> <PUBCHEM_ATOM_DEF_STEREO_COUNT>
0

> <PUBCHEM_ATOM_UDEF_STEREO_COUNT>
2

> <PUBCHEM_BOND_DEF_STEREO_COUNT>
1

> <PUBCHEM_BOND_UDEF_STEREO_COUNT>
0

> <PUBCHEM_ISOTOPIC_ATOM_COUNT>
0

> <PUBCHEM_COMPONENT_COUNT>
1

> <PUBCHEM_CACTVS_TAUTO_COUNT>
4

> <PUBCHEM_COORDINATE_TYPE>
1
5
255

> <PUBCHEM_BONDANNOTATIONS>
1  10  8
1  13  8
10  11  8
11  12  8
12  13  8
6  9  3
7  10  3

$$$$

