10610
  -OEChem-06261204452D

 47 49  0     0  0  0  0  0  0999 V2000
    4.6660   -4.4827    0.0000 S   0  0  0  0  0  0  0  0  0  0  0  0
    6.3981    1.5173    0.0000 O   0  0  0  0  0  0  0  0  0  0  0  0
    5.5321   -0.9827    0.0000 O   0  0  0  0  0  0  0  0  0  0  0  0
    3.8000   -0.9827    0.0000 O   0  0  0  0  0  0  0  0  0  0  0  0
    4.6660   -2.4827    0.0000 N   0  0  0  0  0  0  0  0  0  0  0  0
    8.1301    3.5173    0.0000 N   0  0  0  0  0  0  0  0  0  0  0  0
    5.5321   -2.9827    0.0000 C   0  0  0  0  0  0  0  0  0  0  0  0
    3.8000   -2.9827    0.0000 C   0  0  0  0  0  0  0  0  0  0  0  0
    5.5321   -3.9827    0.0000 C   0  0  0  0  0  0  0  0  0  0  0  0
    3.8000   -3.9827    0.0000 C   0  0  0  0  0  0  0  0  0  0  0  0
    7.2641    3.0173    0.0000 C   0  0  0  0  0  0  0  0  0  0  0  0
    2.9061   -2.4480    0.0000 C   0  0  0  0  0  0  0  0  0  0  0  0
    6.4260   -2.4480    0.0000 C   0  0  0  0  0  0  0  0  0  0  0  0
    7.2641    2.0173    0.0000 C   0  0  0  0  0  0  0  0  0  0  0  0
    4.6660   -1.4827    0.0000 C   0  0  0  0  0  0  0  0  0  0  0  0
    2.9061   -4.5173    0.0000 C   0  0  0  0  0  0  0  0  0  0  0  0
    6.4260   -4.5173    0.0000 C   0  0  0  0  0  0  0  0  0  0  0  0
    6.3981    0.5173    0.0000 C   0  0  0  0  0  0  0  0  0  0  0  0
    5.5321    0.0173    0.0000 C   0  0  0  0  0  0  0  0  0  0  0  0
    2.0000   -2.9618    0.0000 C   0  0  0  0  0  0  0  0  0  0  0  0
    7.3321   -2.9618    0.0000 C   0  0  0  0  0  0  0  0  0  0  0  0
    7.3321   -4.0035    0.0000 C   0  0  0  0  0  0  0  0  0  0  0  0
    2.0000   -4.0035    0.0000 C   0  0  0  0  0  0  0  0  0  0  0  0
    8.1301    4.5173    0.0000 C   0  0  0  0  0  0  0  0  0  0  0  0
    8.9962    3.0173    0.0000 C   0  0  0  0  0  0  0  0  0  0  0  0
    7.0521    3.5999    0.0000 H   0  0  0  0  0  0  0  0  0  0  0  0
    6.6535    2.9097    0.0000 H   0  0  0  0  0  0  0  0  0  0  0  0
    7.4762    1.4347    0.0000 H   0  0  0  0  0  0  0  0  0  0  0  0
    7.8747    2.1250    0.0000 H   0  0  0  0  0  0  0  0  0  0  0  0
    2.9132   -1.8280    0.0000 H   0  0  0  0  0  0  0  0  0  0  0  0
    6.4188   -1.8280    0.0000 H   0  0  0  0  0  0  0  0  0  0  0  0
    6.4188   -5.1373    0.0000 H   0  0  0  0  0  0  0  0  0  0  0  0
    2.9132   -5.1373    0.0000 H   0  0  0  0  0  0  0  0  0  0  0  0
    6.6101   -0.0653    0.0000 H   0  0  0  0  0  0  0  0  0  0  0  0
    7.0087    0.6250    0.0000 H   0  0  0  0  0  0  0  0  0  0  0  0
    5.3200    0.5999    0.0000 H   0  0  0  0  0  0  0  0  0  0  0  0
    4.9215   -0.0903    0.0000 H   0  0  0  0  0  0  0  0  0  0  0  0
    1.4643   -2.6498    0.0000 H   0  0  0  0  0  0  0  0  0  0  0  0
    7.8678   -2.6498    0.0000 H   0  0  0  0  0  0  0  0  0  0  0  0
    1.4643   -4.3156    0.0000 H   0  0  0  0  0  0  0  0  0  0  0  0
    7.8678   -4.3156    0.0000 H   0  0  0  0  0  0  0  0  0  0  0  0
    8.7501    4.5173    0.0000 H   0  0  0  0  0  0  0  0  0  0  0  0
    8.1301    5.1373    0.0000 H   0  0  0  0  0  0  0  0  0  0  0  0
    7.5101    4.5173    0.0000 H   0  0  0  0  0  0  0  0  0  0  0  0
    8.6862    2.4804    0.0000 H   0  0  0  0  0  0  0  0  0  0  0  0
    9.5331    2.7073    0.0000 H   0  0  0  0  0  0  0  0  0  0  0  0
    9.3062    3.5543    0.0000 H   0  0  0  0  0  0  0  0  0  0  0  0
  1  9  1  0  0  0  0
  1 10  1  0  0  0  0
  2 14  1  0  0  0  0
  2 18  1  0  0  0  0
  3 15  1  0  0  0  0
  3 19  1  0  0  0  0
  4 15  2  0  0  0  0
  5  7  1  0  0  0  0
  5  8  1  0  0  0  0
  5 15  1  0  0  0  0
  6 11  1  0  0  0  0
  6 24  1  0  0  0  0
  6 25  1  0  0  0  0
  7  9  1  0  0  0  0
  7 13  2  0  0  0  0
  8 10  1  0  0  0  0
  8 12  2  0  0  0  0
  9 17  2  0  0  0  0
 10 16  2  0  0  0  0
 11 14  1  0  0  0  0
 11 26  1  0  0  0  0
 11 27  1  0  0  0  0
 12 20  1  0  0  0  0
 12 30  1  0  0  0  0
 13 21  1  0  0  0  0
 13 31  1  0  0  0  0
 14 28  1  0  0  0  0
 14 29  1  0  0  0  0
 16 23  1  0  0  0  0
 16 33  1  0  0  0  0
 17 22  1  0  0  0  0
 17 32  1  0  0  0  0
 18 19  1  0  0  0  0
 18 34  1  0  0  0  0
 18 35  1  0  0  0  0
 19 36  1  0  0  0  0
 19 37  1  0  0  0  0
 20 23  2  0  0  0  0
 20 38  1  0  0  0  0
 21 22  2  0  0  0  0
 21 39  1  0  0  0  0
 22 41  1  0  0  0  0
 23 40  1  0  0  0  0
 24 42  1  0  0  0  0
 24 43  1  0  0  0  0
 24 44  1  0  0  0  0
 25 45  1  0  0  0  0
 25 46  1  0  0  0  0
 25 47  1  0  0  0  0
M  END
> <PUBCHEM_COMPOUND_CID>
10610

> <PUBCHEM_COMPOUND_CANONICALIZED>
1

> <PUBCHEM_CACTVS_COMPLEXITY>
413

> <PUBCHEM_CACTVS_HBOND_ACCEPTOR>
5

> <PUBCHEM_CACTVS_HBOND_DONOR>
0

> <PUBCHEM_CACTVS_ROTATABLE_BOND>
7

> <PUBCHEM_CACTVS_SUBSKEYS>
AAADceB7MABAAAAAAAAAAAAAAAAAAAAAAAA8YIAAAAAAAACxQAAAHgQAAAAACAjh0AYyyYMABAiIACRCWACCAAAhChAIiBwIZIgLIGLgkZGPIAhghAD6yAcQAAAAAAAAAAAAAQAAAAAAAAACAAAAAAAAAA==

> <PUBCHEM_IUPAC_OPENEYE_NAME>
2-[2-(dimethylamino)ethoxy]ethyl phenothiazine-10-carboxylate

> <PUBCHEM_IUPAC_CAS_NAME>
10-phenothiazinecarboxylic acid 2-[2-(dimethylamino)ethoxy]ethyl ester

> <PUBCHEM_IUPAC_NAME>
2-[2-(dimethylamino)ethoxy]ethyl phenothiazine-10-carboxylate

> <PUBCHEM_IUPAC_SYSTEMATIC_NAME>
2-[2-(dimethylamino)ethoxy]ethyl phenothiazine-10-carboxylate

> <PUBCHEM_IUPAC_TRADITIONAL_NAME>
phenothiazine-10-carboxylic acid 2-[2-(dimethylamino)ethoxy]ethyl ester

> <PUBCHEM_IUPAC_INCHI>
InChI=1S/C19H22N2O3S/c1-20(2)11-12-23-13-14-24-19(22)21-15-7-3-5-9-17(15)25-18-10-6-4-8-16(18)21/h3-10H,11-14H2,1-2H3

> <PUBCHEM_IUPAC_INCHIKEY>
OOVJCSPCMCAXEX-UHFFFAOYSA-N

> <PUBCHEM_XLOGP3_AA>
3.3

> <PUBCHEM_EXACT_MASS>
358.135114

> <PUBCHEM_MOLECULAR_FORMULA>
C19H22N2O3S

> <PUBCHEM_MOLECULAR_WEIGHT>
358.45458

> <PUBCHEM_OPENEYE_CAN_SMILES>
CN(C)CCOCCOC(=O)N1C2=CC=CC=C2SC3=CC=CC=C31

> <PUBCHEM_OPENEYE_ISO_SMILES>
CN(C)CCOCCOC(=O)N1C2=CC=CC=C2SC3=CC=CC=C31

> <PUBCHEM_CACTVS_TPSA>
67.3

> <PUBCHEM_MONOISOTOPIC_WEIGHT>
358.135114

> <PUBCHEM_TOTAL_CHARGE>
0

> <PUBCHEM_HEAVY_ATOM_COUNT>
25

> <PUBCHEM_ATOM_DEF_STEREO_COUNT>
0

> <PUBCHEM_ATOM_UDEF_STEREO_COUNT>
0

> <PUBCHEM_BOND_DEF_STEREO_COUNT>
0

> <PUBCHEM_BOND_UDEF_STEREO_COUNT>
0

> <PUBCHEM_ISOTOPIC_ATOM_COUNT>
0

> <PUBCHEM_COMPONENT_COUNT>
1

> <PUBCHEM_CACTVS_TAUTO_COUNT>
1

> <PUBCHEM_COORDINATE_TYPE>
1
5
255

> <PUBCHEM_BONDANNOTATIONS>
10  16  8
12  20  8
13  21  8
16  23  8
17  22  8
20  23  8
21  22  8
7  13  8
7  9  8
8  10  8
8  12  8
9  17  8

$$$$

