17395544
  -OEChem-06241222502D

 61 65  0     1  0  0  0  0  0999 V2000
    4.6783   -2.1784    0.0000 S   0  0  0  0  0  0  0  0  0  0  0  0
    6.6423   -0.8946    0.0000 O   0  0  0  0  0  0  0  0  0  0  0  0
    5.4883   -2.7648    0.0000 O   0  0  0  0  0  0  0  0  0  0  0  0
    4.3709   -3.1300    0.0000 O   0  0  0  0  0  0  0  0  0  0  0  0
    4.9889    0.3815    0.0000 N   0  0  0  0  0  0  0  0  0  0  0  0
    7.6628    0.5049    0.0000 N   0  0  0  0  0  0  0  0  0  0  0  0
    5.2619   -1.3737    0.0000 N   0  0  0  0  0  0  0  0  0  0  0  0
   10.5893    1.4014    0.0000 N   0  0  0  0  0  0  0  0  0  0  0  0
   10.9945    0.4872    0.0000 N   0  0  0  0  0  0  0  0  0  0  0  0
    5.9405    0.6889    0.0000 C   0  0  1  0  0  0  0  0  0  0  0  0
    5.9422    1.6889    0.0000 C   0  0  0  0  0  0  0  0  0  0  0  0
    4.9917    1.9996    0.0000 C   0  0  0  0  0  0  0  0  0  0  0  0
    4.4026    1.1916    0.0000 C   0  0  0  0  0  0  0  0  0  0  0  0
    4.6783   -0.5690    0.0000 C   0  0  0  0  0  0  0  0  0  0  0  0
    6.7485    0.0997    0.0000 C   0  0  0  0  0  0  0  0  0  0  0  0
    3.7320   -0.8737    0.0000 C   0  0  0  0  0  0  0  0  0  0  0  0
    3.7320   -1.8737    0.0000 C   0  0  0  0  0  0  0  0  0  0  0  0
    8.4708   -0.0843    0.0000 C   0  0  0  0  0  0  0  0  0  0  0  0
    2.8660   -0.3737    0.0000 C   0  0  0  0  0  0  0  0  0  0  0  0
    9.3850    0.3209    0.0000 C   0  0  0  0  0  0  0  0  0  0  0  0
    2.8660   -2.3737    0.0000 C   0  0  0  0  0  0  0  0  0  0  0  0
    9.5946    1.2986    0.0000 C   0  0  0  0  0  0  0  0  0  0  0  0
   10.2502   -0.1806    0.0000 C   0  0  0  0  0  0  0  0  0  0  0  0
    2.0000   -0.8737    0.0000 C   0  0  0  0  0  0  0  0  0  0  0  0
    2.0000   -1.8737    0.0000 C   0  0  0  0  0  0  0  0  0  0  0  0
   11.0908    2.2666    0.0000 C   0  0  0  0  0  0  0  0  0  0  0  0
    8.9268    2.0429    0.0000 C   0  0  0  0  0  0  0  0  0  0  0  0
   10.3530   -1.1753    0.0000 C   0  0  0  0  0  0  0  0  0  0  0  0
   12.0908    2.2649    0.0000 C   0  0  0  0  0  0  0  0  0  0  0  0
   12.5893    1.3980    0.0000 C   0  0  0  0  0  0  0  0  0  0  0  0
   12.5923    3.1300    0.0000 C   0  0  0  0  0  0  0  0  0  0  0  0
   13.5893    1.3963    0.0000 C   0  0  0  0  0  0  0  0  0  0  0  0
   13.5923    3.1283    0.0000 C   0  0  0  0  0  0  0  0  0  0  0  0
   14.0908    2.2614    0.0000 C   0  0  0  0  0  0  0  0  0  0  0  0
    5.8425    0.0767    0.0000 H   0  0  0  0  0  0  0  0  0  0  0  0
    6.5587    1.6230    0.0000 H   0  0  0  0  0  0  0  0  0  0  0  0
    6.0722    2.2951    0.0000 H   0  0  0  0  0  0  0  0  0  0  0  0
    5.2449    2.5655    0.0000 H   0  0  0  0  0  0  0  0  0  0  0  0
    4.4553    2.3105    0.0000 H   0  0  0  0  0  0  0  0  0  0  0  0
    3.9425    1.6072    0.0000 H   0  0  0  0  0  0  0  0  0  0  0  0
    3.9411    0.7775    0.0000 H   0  0  0  0  0  0  0  0  0  0  0  0
    7.7286    1.1214    0.0000 H   0  0  0  0  0  0  0  0  0  0  0  0
    8.0240   -0.5142    0.0000 H   0  0  0  0  0  0  0  0  0  0  0  0
    8.8166   -0.5989    0.0000 H   0  0  0  0  0  0  0  0  0  0  0  0
    2.8660    0.2463    0.0000 H   0  0  0  0  0  0  0  0  0  0  0  0
    2.8660   -2.9937    0.0000 H   0  0  0  0  0  0  0  0  0  0  0  0
    1.4631   -0.5637    0.0000 H   0  0  0  0  0  0  0  0  0  0  0  0
    1.4631   -2.1837    0.0000 H   0  0  0  0  0  0  0  0  0  0  0  0
   11.1995    2.8770    0.0000 H   0  0  0  0  0  0  0  0  0  0  0  0
   10.5086    2.4797    0.0000 H   0  0  0  0  0  0  0  0  0  0  0  0
    9.3882    2.4570    0.0000 H   0  0  0  0  0  0  0  0  0  0  0  0
    8.5127    2.5044    0.0000 H   0  0  0  0  0  0  0  0  0  0  0  0
    8.4653    1.6289    0.0000 H   0  0  0  0  0  0  0  0  0  0  0  0
    9.7363   -1.2391    0.0000 H   0  0  0  0  0  0  0  0  0  0  0  0
   10.4167   -1.7921    0.0000 H   0  0  0  0  0  0  0  0  0  0  0  0
   10.9697   -1.1116    0.0000 H   0  0  0  0  0  0  0  0  0  0  0  0
   12.2784    0.8616    0.0000 H   0  0  0  0  0  0  0  0  0  0  0  0
   12.2832    3.6675    0.0000 H   0  0  0  0  0  0  0  0  0  0  0  0
   13.8984    0.8588    0.0000 H   0  0  0  0  0  0  0  0  0  0  0  0
   13.9032    3.6647    0.0000 H   0  0  0  0  0  0  0  0  0  0  0  0
   14.7108    2.2603    0.0000 H   0  0  0  0  0  0  0  0  0  0  0  0
  1  3  2  0  0  0  0
  1  4  2  0  0  0  0
  1  7  1  0  0  0  0
  1 17  1  0  0  0  0
  2 15  2  0  0  0  0
  5 10  1  0  0  0  0
  5 13  1  0  0  0  0
  5 14  1  0  0  0  0
  6 15  1  0  0  0  0
  6 18  1  0  0  0  0
  6 42  1  0  0  0  0
  7 14  2  0  0  0  0
  8  9  1  0  0  0  0
  8 22  1  0  0  0  0
  8 26  1  0  0  0  0
  9 23  2  0  0  0  0
 10 11  1  0  0  0  0
 10 15  1  1  0  0  0
 10 35  1  0  0  0  0
 11 12  1  0  0  0  0
 11 36  1  0  0  0  0
 11 37  1  0  0  0  0
 12 13  1  0  0  0  0
 12 38  1  0  0  0  0
 12 39  1  0  0  0  0
 13 40  1  0  0  0  0
 13 41  1  0  0  0  0
 14 16  1  0  0  0  0
 16 17  1  0  0  0  0
 16 19  2  0  0  0  0
 17 21  2  0  0  0  0
 18 20  1  0  0  0  0
 18 43  1  0  0  0  0
 18 44  1  0  0  0  0
 19 24  1  0  0  0  0
 19 45  1  0  0  0  0
 20 22  2  0  0  0  0
 20 23  1  0  0  0  0
 21 25  1  0  0  0  0
 21 46  1  0  0  0  0
 22 27  1  0  0  0  0
 23 28  1  0  0  0  0
 24 25  2  0  0  0  0
 24 47  1  0  0  0  0
 25 48  1  0  0  0  0
 26 29  1  0  0  0  0
 26 49  1  0  0  0  0
 26 50  1  0  0  0  0
 27 51  1  0  0  0  0
 27 52  1  0  0  0  0
 27 53  1  0  0  0  0
 28 54  1  0  0  0  0
 28 55  1  0  0  0  0
 28 56  1  0  0  0  0
 29 30  2  0  0  0  0
 29 31  1  0  0  0  0
 30 32  1  0  0  0  0
 30 57  1  0  0  0  0
 31 33  2  0  0  0  0
 31 58  1  0  0  0  0
 32 34  2  0  0  0  0
 32 59  1  0  0  0  0
 33 34  1  0  0  0  0
 33 60  1  0  0  0  0
 34 61  1  0  0  0  0
M  END
> <PUBCHEM_COMPOUND_CID>
17395544

> <PUBCHEM_COMPOUND_CANONICALIZED>
1

> <PUBCHEM_CACTVS_COMPLEXITY>
882

> <PUBCHEM_CACTVS_HBOND_ACCEPTOR>
5

> <PUBCHEM_CACTVS_HBOND_DONOR>
1

> <PUBCHEM_CACTVS_ROTATABLE_BOND>
6

> <PUBCHEM_CACTVS_SUBSKEYS>
AAADceB7sABAAAAAAAAAAAAAAAAAAWLEAAAwYAAAAAAAAEAB0AAAHgQYQAAADCjB3gQzgZPIAAKqAydydHDSBBAhgAAZ2Lm4RJgIYLLA2fGUpAhgngDIyAcYgQAOAAAAAAAEAAAAAAAAAAgAAAAAAAAAAA==

> <PUBCHEM_IUPAC_OPENEYE_NAME>
(2S)-N-[(1-benzyl-3,5-dimethyl-pyrazol-4-yl)methyl]-1-(1,1-dioxo-1,2-benzothiazol-3-yl)pyrrolidine-2-carboxamide

> <PUBCHEM_IUPAC_CAS_NAME>
(2S)-N-[[3,5-dimethyl-1-(phenylmethyl)-4-pyrazolyl]methyl]-1-(1,1-dioxo-1,2-benzothiazol-3-yl)-2-pyrrolidinecarboxamide

> <PUBCHEM_IUPAC_NAME>
(2S)-N-[(1-benzyl-3,5-dimethylpyrazol-4-yl)methyl]-1-(1,1-dioxo-1,2-benzothiazol-3-yl)pyrrolidine-2-carboxamide

> <PUBCHEM_IUPAC_SYSTEMATIC_NAME>
(2S)-1-[1,1-bis(oxidanylidene)-1,2-benzothiazol-3-yl]-N-[[3,5-dimethyl-1-(phenylmethyl)pyrazol-4-yl]methyl]pyrrolidine-2-carboxamide

> <PUBCHEM_IUPAC_TRADITIONAL_NAME>
(2S)-N-[(1-benzyl-3,5-dimethyl-pyrazol-4-yl)methyl]-1-(1,1-diketo-1,2-benzothiazol-3-yl)pyrrolidine-2-carboxamide

> <PUBCHEM_IUPAC_INCHI>
InChI=1S/C25H27N5O3S/c1-17-21(18(2)30(27-17)16-19-9-4-3-5-10-19)15-26-25(31)22-12-8-14-29(22)24-20-11-6-7-13-23(20)34(32,33)28-24/h3-7,9-11,13,22H,8,12,14-16H2,1-2H3,(H,26,31)/t22-/m0/s1

> <PUBCHEM_IUPAC_INCHIKEY>
DYTVGUQHVHFXGD-QFIPXVFZSA-N

> <PUBCHEM_XLOGP3_AA>
2.7

> <PUBCHEM_EXACT_MASS>
477.183461

> <PUBCHEM_MOLECULAR_FORMULA>
C25H27N5O3S

> <PUBCHEM_MOLECULAR_WEIGHT>
477.57858

> <PUBCHEM_OPENEYE_CAN_SMILES>
CC1=C(C(=NN1CC2=CC=CC=C2)C)CNC(=O)C3CCCN3C4=NS(=O)(=O)C5=CC=CC=C54

> <PUBCHEM_OPENEYE_ISO_SMILES>
CC1=C(C(=NN1CC2=CC=CC=C2)C)CNC(=O)[C@@H]3CCCN3C4=NS(=O)(=O)C5=CC=CC=C54

> <PUBCHEM_CACTVS_TPSA>
105

> <PUBCHEM_MONOISOTOPIC_WEIGHT>
477.183461

> <PUBCHEM_TOTAL_CHARGE>
0

> <PUBCHEM_HEAVY_ATOM_COUNT>
34

> <PUBCHEM_ATOM_DEF_STEREO_COUNT>
1

> <PUBCHEM_ATOM_UDEF_STEREO_COUNT>
0

> <PUBCHEM_BOND_DEF_STEREO_COUNT>
0

> <PUBCHEM_BOND_UDEF_STEREO_COUNT>
0

> <PUBCHEM_ISOTOPIC_ATOM_COUNT>
0

> <PUBCHEM_COMPONENT_COUNT>
1

> <PUBCHEM_CACTVS_TAUTO_COUNT>
2

> <PUBCHEM_COORDINATE_TYPE>
1
5
255

> <PUBCHEM_BONDANNOTATIONS>
10  15  5
16  17  8
16  19  8
17  21  8
19  24  8
20  22  8
20  23  8
21  25  8
24  25  8
29  30  8
29  31  8
30  32  8
31  33  8
32  34  8
33  34  8
8  22  8
8  9  8
9  23  8

$$$$

