3595
  -OEChem-06251223322D

 49 52  0     1  0  0  0  0  0999 V2000
    9.0672    0.4264    0.0000 S   0  0  0  0  0  0  0  0  0  0  0  0
    6.4023   -1.5953    0.0000 O   0  0  0  0  0  0  0  0  0  0  0  0
    4.9584   -0.2144    0.0000 O   0  0  0  0  0  0  0  0  0  0  0  0
    8.7071   -2.8858    0.0000 O   0  5  0  0  0  0  0  0  0  0  0  0
   10.3544   -2.3506    0.0000 O   0  0  0  0  0  0  0  0  0  0  0  0
    8.1162   -0.8826    0.0000 N   0  0  0  0  0  0  0  0  0  0  0  0
    6.4023    0.8301    0.0000 N   0  0  0  0  0  0  0  0  0  0  0  0
    5.6706    2.2733    0.0000 N   0  0  0  0  0  0  0  0  0  0  0  0
    8.1162    0.1174    0.0000 C   0  0  3  0  0  0  0  0  0  0  0  0
    7.1079    0.1215    0.0000 C   0  0  3  0  0  0  0  0  0  0  0  0
    9.0672   -1.1916    0.0000 C   0  0  3  0  0  0  0  0  0  0  0  0
    9.6550   -0.3826    0.0000 C   0  0  0  0  0  0  0  0  0  0  0  0
    7.1079   -0.8868    0.0000 C   0  0  0  0  0  0  0  0  0  0  0  0
    6.5607    1.8174    0.0000 C   0  0  0  0  0  0  0  0  0  0  0  0
    5.4142    0.6757    0.0000 C   0  0  0  0  0  0  0  0  0  0  0  0
    4.9621    1.5676    0.0000 C   0  0  3  0  0  0  0  0  0  0  0  0
   10.4641    0.2052    0.0000 C   0  0  0  0  0  0  0  0  0  0  0  0
   10.4641   -0.9704    0.0000 C   0  0  0  0  0  0  0  0  0  0  0  0
    7.0166    2.7075    0.0000 C   0  0  0  0  0  0  0  0  0  0  0  0
    7.5481    1.6590    0.0000 C   0  0  0  0  0  0  0  0  0  0  0  0
    9.3763   -2.1427    0.0000 C   0  0  0  0  0  0  0  0  0  0  0  0
    3.9747    1.7261    0.0000 C   0  0  0  0  0  0  0  0  0  0  0  0
    3.6183    2.6604    0.0000 C   0  0  0  0  0  0  0  0  0  0  0  0
    3.3438    0.9502    0.0000 C   0  0  0  0  0  0  0  0  0  0  0  0
    2.6309    2.8189    0.0000 C   0  0  0  0  0  0  0  0  0  0  0  0
    2.3564    1.1087    0.0000 C   0  0  0  0  0  0  0  0  0  0  0  0
    2.0000    2.0430    0.0000 C   0  0  0  0  0  0  0  0  0  0  0  0
    8.0205    0.7299    0.0000 H   0  0  0  0  0  0  0  0  0  0  0  0
    6.5349   -0.1151    0.0000 H   0  0  0  0  0  0  0  0  0  0  0  0
    8.6288   -1.6300    0.0000 H   0  0  0  0  0  0  0  0  0  0  0  0
    4.7717    2.1577    0.0000 H   0  0  0  0  0  0  0  0  0  0  0  0
    5.5749    2.8858    0.0000 H   0  0  0  0  0  0  0  0  0  0  0  0
   10.8285   -0.2964    0.0000 H   0  0  0  0  0  0  0  0  0  0  0  0
   10.0996   -1.4720    0.0000 H   0  0  0  0  0  0  0  0  0  0  0  0
   10.9656   -1.3348    0.0000 H   0  0  0  0  0  0  0  0  0  0  0  0
   10.8285   -0.4688    0.0000 H   0  0  0  0  0  0  0  0  0  0  0  0
   10.9656    0.5696    0.0000 H   0  0  0  0  0  0  0  0  0  0  0  0
   10.0996    0.7068    0.0000 H   0  0  0  0  0  0  0  0  0  0  0  0
    7.4498    1.0468    0.0000 H   0  0  0  0  0  0  0  0  0  0  0  0
    8.1603    1.5607    0.0000 H   0  0  0  0  0  0  0  0  0  0  0  0
    7.6463    2.2712    0.0000 H   0  0  0  0  0  0  0  0  0  0  0  0
    7.5684    2.4249    0.0000 H   0  0  0  0  0  0  0  0  0  0  0  0
    7.2992    3.2594    0.0000 H   0  0  0  0  0  0  0  0  0  0  0  0
    6.4647    2.9901    0.0000 H   0  0  0  0  0  0  0  0  0  0  0  0
    4.0094    3.1414    0.0000 H   0  0  0  0  0  0  0  0  0  0  0  0
    3.5648    0.3710    0.0000 H   0  0  0  0  0  0  0  0  0  0  0  0
    2.4099    3.3981    0.0000 H   0  0  0  0  0  0  0  0  0  0  0  0
    1.9653    0.6277    0.0000 H   0  0  0  0  0  0  0  0  0  0  0  0
    1.3878    2.1413    0.0000 H   0  0  0  0  0  0  0  0  0  0  0  0
  1  9  1  0  0  0  0
  1 12  1  0  0  0  0
  2 13  2  0  0  0  0
  3 15  2  0  0  0  0
  4 21  1  0  0  0  0
  5 21  2  0  0  0  0
  6  9  1  0  0  0  0
  6 11  1  0  0  0  0
  6 13  1  0  0  0  0
  7 10  1  0  0  0  0
  7 14  1  0  0  0  0
  7 15  1  0  0  0  0
  8 14  1  0  0  0  0
  8 16  1  0  0  0  0
  8 32  1  0  0  0  0
  9 10  1  0  0  0  0
  9 28  1  0  0  0  0
 10 13  1  0  0  0  0
 10 29  1  0  0  0  0
 11 12  1  0  0  0  0
 11 21  1  0  0  0  0
 11 30  1  0  0  0  0
 12 17  1  0  0  0  0
 12 18  1  0  0  0  0
 14 19  1  0  0  0  0
 14 20  1  0  0  0  0
 15 16  1  0  0  0  0
 16 22  1  0  0  0  0
 16 31  1  0  0  0  0
 17 33  1  0  0  0  0
 17 37  1  0  0  0  0
 17 38  1  0  0  0  0
 18 34  1  0  0  0  0
 18 35  1  0  0  0  0
 18 36  1  0  0  0  0
 19 42  1  0  0  0  0
 19 43  1  0  0  0  0
 19 44  1  0  0  0  0
 20 39  1  0  0  0  0
 20 40  1  0  0  0  0
 20 41  1  0  0  0  0
 22 23  2  0  0  0  0
 22 24  1  0  0  0  0
 23 25  1  0  0  0  0
 23 45  1  0  0  0  0
 24 26  2  0  0  0  0
 24 46  1  0  0  0  0
 25 27  2  0  0  0  0
 25 47  1  0  0  0  0
 26 27  1  0  0  0  0
 26 48  1  0  0  0  0
 27 49  1  0  0  0  0
M  CHG  1   4  -1
M  END
> <PUBCHEM_COMPOUND_CID>
3595

> <PUBCHEM_COMPOUND_CANONICALIZED>
1

> <PUBCHEM_CACTVS_COMPLEXITY>
683

> <PUBCHEM_CACTVS_HBOND_ACCEPTOR>
6

> <PUBCHEM_CACTVS_HBOND_DONOR>
1

> <PUBCHEM_CACTVS_ROTATABLE_BOND>
2

> <PUBCHEM_CACTVS_SUBSKEYS>
AAADceB7OABAAAAAAAAAAAAAAABYAWLAAAAwAAAABYAAAAABAAAAHgQQAAAADCjF2ASzCIPAAAiIAiHSGACCAABgABAIiIGIBIiKYDqglTGUIAhslwK4iAcYiICOAAAAAAAAAAAAAAAAAAAAAAAAAAAAAA==

> <PUBCHEM_IUPAC_OPENEYE_NAME>
6-(2,2-dimethyl-5-oxo-4-phenyl-imidazolidin-1-yl)-3,3-dimethyl-7-oxo-4-thia-1-azabicyclo[3.2.0]heptane-2-carboxylate

> <PUBCHEM_IUPAC_CAS_NAME>
6-(2,2-dimethyl-5-oxo-4-phenyl-1-imidazolidinyl)-3,3-dimethyl-7-oxo-4-thia-1-azabicyclo[3.2.0]heptane-2-carboxylate

> <PUBCHEM_IUPAC_NAME>
6-(2,2-dimethyl-5-oxo-4-phenylimidazolidin-1-yl)-3,3-dimethyl-7-oxo-4-thia-1-azabicyclo[3.2.0]heptane-2-carboxylate

> <PUBCHEM_IUPAC_SYSTEMATIC_NAME>
6-(2,2-dimethyl-5-oxidanylidene-4-phenyl-imidazolidin-1-yl)-3,3-dimethyl-7-oxidanylidene-4-thia-1-azabicyclo[3.2.0]heptane-2-carboxylate

> <PUBCHEM_IUPAC_TRADITIONAL_NAME>
7-keto-6-(5-keto-2,2-dimethyl-4-phenyl-imidazolidin-1-yl)-3,3-dimethyl-4-thia-1-azabicyclo[3.2.0]heptane-2-carboxylate

> <PUBCHEM_IUPAC_INCHI>
InChI=1S/C19H23N3O4S/c1-18(2)13(17(25)26)21-15(24)12(16(21)27-18)22-14(23)11(20-19(22,3)4)10-8-6-5-7-9-10/h5-9,11-13,16,20H,1-4H3,(H,25,26)/p-1

> <PUBCHEM_IUPAC_INCHIKEY>
DXVUYOAEDJXBPY-UHFFFAOYSA-M

> <PUBCHEM_XLOGP3_AA>
0

> <PUBCHEM_EXACT_MASS>
388.133102

> <PUBCHEM_MOLECULAR_FORMULA>
C19H22N3O4S-

> <PUBCHEM_MOLECULAR_WEIGHT>
388.46068

> <PUBCHEM_OPENEYE_CAN_SMILES>
CC1(C(N2C(S1)C(C2=O)N3C(=O)C(NC3(C)C)C4=CC=CC=C4)C(=O)[O-])C

> <PUBCHEM_OPENEYE_ISO_SMILES>
CC1(C(N2C(S1)C(C2=O)N3C(=O)C(NC3(C)C)C4=CC=CC=C4)C(=O)[O-])C

> <PUBCHEM_CACTVS_TPSA>
118

> <PUBCHEM_MONOISOTOPIC_WEIGHT>
388.133102

> <PUBCHEM_TOTAL_CHARGE>
-1

> <PUBCHEM_HEAVY_ATOM_COUNT>
27

> <PUBCHEM_ATOM_DEF_STEREO_COUNT>
0

> <PUBCHEM_ATOM_UDEF_STEREO_COUNT>
4

> <PUBCHEM_BOND_DEF_STEREO_COUNT>
0

> <PUBCHEM_BOND_UDEF_STEREO_COUNT>
0

> <PUBCHEM_ISOTOPIC_ATOM_COUNT>
0

> <PUBCHEM_COMPONENT_COUNT>
1

> <PUBCHEM_CACTVS_TAUTO_COUNT>
4

> <PUBCHEM_COORDINATE_TYPE>
1
5
255

> <PUBCHEM_BONDANNOTATIONS>
9  1  3
11  21  3
16  22  3
22  23  8
22  24  8
23  25  8
24  26  8
25  27  8
26  27  8
10  7  3

$$$$

