13953
  -OEChem-06241222412D

 46 47  0     0  0  0  0  0  0999 V2000
    4.4351   -1.3376    0.0000 S   0  0  0  0  0  0  0  0  0  0  0  0
    3.6697    0.5101    0.0000 O   0  0  0  0  0  0  0  0  0  0  0  0
    5.2284   -1.9464    0.0000 O   0  0  0  0  0  0  0  0  0  0  0  0
    3.6417   -0.7289    0.0000 O   0  0  0  0  0  0  0  0  0  0  0  0
    5.2699    1.1730    0.0000 N   0  0  0  0  0  0  0  0  0  0  0  0
    5.0438   -0.5443    0.0000 N   0  0  0  0  0  0  0  0  0  0  0  0
    4.8872    2.0968    0.0000 C   0  0  0  0  0  0  0  0  0  0  0  0
    3.8872    2.0968    0.0000 C   0  0  0  0  0  0  0  0  0  0  0  0
    5.5943    2.8039    0.0000 C   0  0  0  0  0  0  0  0  0  0  0  0
    3.1801    2.8039    0.0000 C   0  0  0  0  0  0  0  0  0  0  0  0
    5.5943    3.8039    0.0000 C   0  0  0  0  0  0  0  0  0  0  0  0
    3.1801    3.8039    0.0000 C   0  0  0  0  0  0  0  0  0  0  0  0
    4.8872    4.5110    0.0000 C   0  0  0  0  0  0  0  0  0  0  0  0
    3.8872    4.5110    0.0000 C   0  0  0  0  0  0  0  0  0  0  0  0
    4.6611    0.3796    0.0000 C   0  0  0  0  0  0  0  0  0  0  0  0
    3.8263   -2.1310    0.0000 C   0  0  0  0  0  0  0  0  0  0  0  0
    2.8348   -2.0005    0.0000 C   0  0  0  0  0  0  0  0  0  0  0  0
    4.2090   -3.0549    0.0000 C   0  0  0  0  0  0  0  0  0  0  0  0
    2.6088   -3.7177    0.0000 C   0  0  0  0  0  0  0  0  0  0  0  0
    2.2261   -2.7938    0.0000 C   0  0  0  0  0  0  0  0  0  0  0  0
    3.6002   -3.8482    0.0000 C   0  0  0  0  0  0  0  0  0  0  0  0
    2.0000   -4.5110    0.0000 C   0  0  0  0  0  0  0  0  0  0  0  0
    5.4953    1.9759    0.0000 H   0  0  0  0  0  0  0  0  0  0  0  0
    3.3503    1.7868    0.0000 H   0  0  0  0  0  0  0  0  0  0  0  0
    4.0477    1.4980    0.0000 H   0  0  0  0  0  0  0  0  0  0  0  0
    5.9043    2.2670    0.0000 H   0  0  0  0  0  0  0  0  0  0  0  0
    6.1932    2.9644    0.0000 H   0  0  0  0  0  0  0  0  0  0  0  0
    2.5812    2.9644    0.0000 H   0  0  0  0  0  0  0  0  0  0  0  0
    2.8701    2.2670    0.0000 H   0  0  0  0  0  0  0  0  0  0  0  0
    6.1932    3.6435    0.0000 H   0  0  0  0  0  0  0  0  0  0  0  0
    5.9043    4.3409    0.0000 H   0  0  0  0  0  0  0  0  0  0  0  0
    2.8701    4.3409    0.0000 H   0  0  0  0  0  0  0  0  0  0  0  0
    2.5812    3.6435    0.0000 H   0  0  0  0  0  0  0  0  0  0  0  0
    5.4241    4.8210    0.0000 H   0  0  0  0  0  0  0  0  0  0  0  0
    4.7267    5.1099    0.0000 H   0  0  0  0  0  0  0  0  0  0  0  0
    4.0477    5.1099    0.0000 H   0  0  0  0  0  0  0  0  0  0  0  0
    3.3503    4.8210    0.0000 H   0  0  0  0  0  0  0  0  0  0  0  0
    5.8846    1.0920    0.0000 H   0  0  0  0  0  0  0  0  0  0  0  0
    5.6585   -0.6252    0.0000 H   0  0  0  0  0  0  0  0  0  0  0  0
    2.5976   -1.4276    0.0000 H   0  0  0  0  0  0  0  0  0  0  0  0
    4.8237   -3.1358    0.0000 H   0  0  0  0  0  0  0  0  0  0  0  0
    1.6114   -2.7129    0.0000 H   0  0  0  0  0  0  0  0  0  0  0  0
    3.8375   -4.4210    0.0000 H   0  0  0  0  0  0  0  0  0  0  0  0
    1.5081   -4.1336    0.0000 H   0  0  0  0  0  0  0  0  0  0  0  0
    1.6226   -5.0029    0.0000 H   0  0  0  0  0  0  0  0  0  0  0  0
    2.4919   -4.8885    0.0000 H   0  0  0  0  0  0  0  0  0  0  0  0
  1  3  2  0  0  0  0
  1  4  2  0  0  0  0
  1  6  1  0  0  0  0
  1 16  1  0  0  0  0
  2 15  2  0  0  0  0
  5  7  1  0  0  0  0
  5 15  1  0  0  0  0
  5 38  1  0  0  0  0
  6 15  1  0  0  0  0
  6 39  1  0  0  0  0
  7  8  1  0  0  0  0
  7  9  1  0  0  0  0
  7 23  1  0  0  0  0
  8 10  1  0  0  0  0
  8 24  1  0  0  0  0
  8 25  1  0  0  0  0
  9 11  1  0  0  0  0
  9 26  1  0  0  0  0
  9 27  1  0  0  0  0
 10 12  1  0  0  0  0
 10 28  1  0  0  0  0
 10 29  1  0  0  0  0
 11 13  1  0  0  0  0
 11 30  1  0  0  0  0
 11 31  1  0  0  0  0
 12 14  1  0  0  0  0
 12 32  1  0  0  0  0
 12 33  1  0  0  0  0
 13 14  1  0  0  0  0
 13 34  1  0  0  0  0
 13 35  1  0  0  0  0
 14 36  1  0  0  0  0
 14 37  1  0  0  0  0
 16 17  2  0  0  0  0
 16 18  1  0  0  0  0
 17 20  1  0  0  0  0
 17 40  1  0  0  0  0
 18 21  2  0  0  0  0
 18 41  1  0  0  0  0
 19 20  2  0  0  0  0
 19 21  1  0  0  0  0
 19 22  1  0  0  0  0
 20 42  1  0  0  0  0
 21 43  1  0  0  0  0
 22 44  1  0  0  0  0
 22 45  1  0  0  0  0
 22 46  1  0  0  0  0
M  END
> <PUBCHEM_COMPOUND_CID>
13953

> <PUBCHEM_COMPOUND_CANONICALIZED>
1

> <PUBCHEM_CACTVS_COMPLEXITY>
443

> <PUBCHEM_CACTVS_HBOND_ACCEPTOR>
3

> <PUBCHEM_CACTVS_HBOND_DONOR>
2

> <PUBCHEM_CACTVS_ROTATABLE_BOND>
3

> <PUBCHEM_CACTVS_SUBSKEYS>
AAADceB7MABAAAAAAAAAAAAAAAAAAAAAAAAwAAAAAAAYAAABAAAAHgQQQAAADCjBWAQzAYLAAAKIAiBCEHBCABAgAAAIiJgIAIiIICKAkRCEIAAglgIIiAcQgIAOEAAAAAAAAAAgAAAAAAAAAAAAAAAAAA==

> <PUBCHEM_IUPAC_OPENEYE_NAME>
1-cyclooctyl-3-(p-tolylsulfonyl)urea

> <PUBCHEM_IUPAC_CAS_NAME>
1-cyclooctyl-3-(4-methylphenyl)sulfonylurea

> <PUBCHEM_IUPAC_NAME>
1-cyclooctyl-3-(4-methylphenyl)sulfonylurea

> <PUBCHEM_IUPAC_SYSTEMATIC_NAME>
1-cyclooctyl-3-(4-methylphenyl)sulfonyl-urea

> <PUBCHEM_IUPAC_TRADITIONAL_NAME>
1-cyclooctyl-3-tosyl-urea

> <PUBCHEM_IUPAC_INCHI>
InChI=1S/C16H24N2O3S/c1-13-9-11-15(12-10-13)22(20,21)18-16(19)17-14-7-5-3-2-4-6-8-14/h9-12,14H,2-8H2,1H3,(H2,17,18,19)

> <PUBCHEM_IUPAC_INCHIKEY>
XTOBSLUVJNOXGB-UHFFFAOYSA-N

> <PUBCHEM_XLOGP3>
4

> <PUBCHEM_EXACT_MASS>
324.150764

> <PUBCHEM_MOLECULAR_FORMULA>
C16H24N2O3S

> <PUBCHEM_MOLECULAR_WEIGHT>
324.43836

> <PUBCHEM_OPENEYE_CAN_SMILES>
CC1=CC=C(C=C1)S(=O)(=O)NC(=O)NC2CCCCCCC2

> <PUBCHEM_OPENEYE_ISO_SMILES>
CC1=CC=C(C=C1)S(=O)(=O)NC(=O)NC2CCCCCCC2

> <PUBCHEM_CACTVS_TPSA>
83.6

> <PUBCHEM_MONOISOTOPIC_WEIGHT>
324.150764

> <PUBCHEM_TOTAL_CHARGE>
0

> <PUBCHEM_HEAVY_ATOM_COUNT>
22

> <PUBCHEM_ATOM_DEF_STEREO_COUNT>
0

> <PUBCHEM_ATOM_UDEF_STEREO_COUNT>
0

> <PUBCHEM_BOND_DEF_STEREO_COUNT>
0

> <PUBCHEM_BOND_UDEF_STEREO_COUNT>
0

> <PUBCHEM_ISOTOPIC_ATOM_COUNT>
0

> <PUBCHEM_COMPONENT_COUNT>
1

> <PUBCHEM_CACTVS_TAUTO_COUNT>
3

> <PUBCHEM_COORDINATE_TYPE>
1
5
255

> <PUBCHEM_BONDANNOTATIONS>
16  17  8
16  18  8
17  20  8
18  21  8
19  20  8
19  21  8

$$$$

