12359
  -OEChem-06261206512D

  7  4  0     0  0  0  0  0  0999 V2000
    0.0000    1.7500    0.0000 Hg  0  2  0  0  0  0  0  0  0  0  0  0
    4.2320    1.0000    0.0000 O   0  5  0  0  0  0  0  0  0  0  0  0
    4.2320    4.0000    0.0000 O   0  5  0  0  0  0  0  0  0  0  0  0
    3.3660    0.5000    0.0000 N   0  3  0  0  0  0  0  0  0  0  0  0
    3.3660    3.5000    0.0000 N   0  3  0  0  0  0  0  0  0  0  0  0
    2.5000    0.0000    0.0000 C   0  5  0  0  0  0  0  0  0  0  0  0
    2.5000    3.0000    0.0000 C   0  5  0  0  0  0  0  0  0  0  0  0
  2  4  1  0  0  0  0
  3  5  1  0  0  0  0
  4  6  3  0  0  0  0
  5  7  3  0  0  0  0
M  CHG  7   1   2   2  -1   3  -1   4   1   5   1   6  -1   7  -1
M  END
> <PUBCHEM_COMPOUND_CID>
12359

> <PUBCHEM_COMPOUND_CANONICALIZED>
1

> <PUBCHEM_CACTVS_COMPLEXITY>
31.3

> <PUBCHEM_CACTVS_HBOND_ACCEPTOR>
4

> <PUBCHEM_CACTVS_HBOND_DONOR>
0

> <PUBCHEM_CACTVS_ROTATABLE_BOND>
0

> <PUBCHEM_CACTVS_SUBSKEYS>
AAADcQBDMAAAAAAAAAAAAQAAAAAAAAAAAAAAAAAAAAAAAAAAAAAABAAEAAAAAAAAAAAAAAAQAAAQAAAAAAAAAAAAAAAAAAAAAAAAAAAAAAAAAAAAAAAAAAAAAAAAAAAAAAAAAAAAAAAAAAAAAAAAAAAAAA==

> <PUBCHEM_IUPAC_OPENEYE_NAME>
mercuric difulminate

> <PUBCHEM_IUPAC_CAS_NAME>
mercury(2+); oxidonitriliomethane

> <PUBCHEM_IUPAC_NAME>
mercury(2+); oxidoazaniumylidynemethane

> <PUBCHEM_IUPAC_SYSTEMATIC_NAME>
mercury(2+); oxidanidylazaniumylidynemethane

> <PUBCHEM_IUPAC_TRADITIONAL_NAME>
mercuric difulminate

> <PUBCHEM_IUPAC_INCHI>
InChI=1S/2CNO.Hg/c2*1-2-3;/q2*-1;+2

> <PUBCHEM_IUPAC_INCHIKEY>
AUXQRZIGZMRZBW-UHFFFAOYSA-N

> <PUBCHEM_EXACT_MASS>
285.96662

> <PUBCHEM_MOLECULAR_FORMULA>
C2HgN2O2

> <PUBCHEM_MOLECULAR_WEIGHT>
284.6236

> <PUBCHEM_OPENEYE_CAN_SMILES>
[C-]#[N+][O-].[C-]#[N+][O-].[Hg+2]

> <PUBCHEM_OPENEYE_ISO_SMILES>
[C-]#[N+][O-].[C-]#[N+][O-].[Hg+2]

> <PUBCHEM_CACTVS_TPSA>
61.3

> <PUBCHEM_MONOISOTOPIC_WEIGHT>
285.96662

> <PUBCHEM_TOTAL_CHARGE>
0

> <PUBCHEM_HEAVY_ATOM_COUNT>
7

> <PUBCHEM_ATOM_DEF_STEREO_COUNT>
0

> <PUBCHEM_ATOM_UDEF_STEREO_COUNT>
0

> <PUBCHEM_BOND_DEF_STEREO_COUNT>
0

> <PUBCHEM_BOND_UDEF_STEREO_COUNT>
0

> <PUBCHEM_ISOTOPIC_ATOM_COUNT>
0

> <PUBCHEM_COMPONENT_COUNT>
3

> <PUBCHEM_CACTVS_TAUTO_COUNT>
1

> <PUBCHEM_COORDINATE_TYPE>
1
5
255

$$$$

