8903
  -OEChem-06261203142D

 37 35  0     0  0  0  0  0  0999 V2000
    1.7321    0.8660    0.0000 S   0  0  0  0  0  0  0  0  0  0  0  0
    0.0000    0.8660    0.0000 Na  0  3  0  0  0  0  0  0  0  0  0  0
    2.5981    1.3660    0.0000 O   0  0  0  0  0  0  0  0  0  0  0  0
    0.8660    0.3660    0.0000 O   0  5  0  0  0  0  0  0  0  0  0  0
    1.2321    1.7321    0.0000 O   0  0  0  0  0  0  0  0  0  0  0  0
    2.2321    0.0000    0.0000 O   0  0  0  0  0  0  0  0  0  0  0  0
    6.9282    0.8660    0.0000 C   0  0  0  0  0  0  0  0  0  0  0  0
    7.7942    1.3660    0.0000 C   0  0  0  0  0  0  0  0  0  0  0  0
    6.0622    1.3660    0.0000 C   0  0  0  0  0  0  0  0  0  0  0  0
    8.6603    0.8660    0.0000 C   0  0  0  0  0  0  0  0  0  0  0  0
    5.1962    0.8660    0.0000 C   0  0  0  0  0  0  0  0  0  0  0  0
    9.5263    1.3660    0.0000 C   0  0  0  0  0  0  0  0  0  0  0  0
    4.3301    1.3660    0.0000 C   0  0  0  0  0  0  0  0  0  0  0  0
   10.3923    0.8660    0.0000 C   0  0  0  0  0  0  0  0  0  0  0  0
    3.4641    0.8660    0.0000 C   0  0  0  0  0  0  0  0  0  0  0  0
   11.2583    1.3660    0.0000 C   0  0  0  0  0  0  0  0  0  0  0  0
    6.5297    0.3911    0.0000 H   0  0  0  0  0  0  0  0  0  0  0  0
    7.3267    0.3911    0.0000 H   0  0  0  0  0  0  0  0  0  0  0  0
    8.1928    1.8410    0.0000 H   0  0  0  0  0  0  0  0  0  0  0  0
    7.3957    1.8410    0.0000 H   0  0  0  0  0  0  0  0  0  0  0  0
    6.4607    1.8410    0.0000 H   0  0  0  0  0  0  0  0  0  0  0  0
    5.6636    1.8410    0.0000 H   0  0  0  0  0  0  0  0  0  0  0  0
    9.0588    0.3911    0.0000 H   0  0  0  0  0  0  0  0  0  0  0  0
    8.2617    0.3911    0.0000 H   0  0  0  0  0  0  0  0  0  0  0  0
    4.7976    0.3911    0.0000 H   0  0  0  0  0  0  0  0  0  0  0  0
    5.5947    0.3911    0.0000 H   0  0  0  0  0  0  0  0  0  0  0  0
    9.9248    1.8410    0.0000 H   0  0  0  0  0  0  0  0  0  0  0  0
    9.1278    1.8410    0.0000 H   0  0  0  0  0  0  0  0  0  0  0  0
    3.9316    1.8410    0.0000 H   0  0  0  0  0  0  0  0  0  0  0  0
    4.7287    1.8410    0.0000 H   0  0  0  0  0  0  0  0  0  0  0  0
    9.9938    0.3911    0.0000 H   0  0  0  0  0  0  0  0  0  0  0  0
   10.7908    0.3911    0.0000 H   0  0  0  0  0  0  0  0  0  0  0  0
    3.0656    0.3911    0.0000 H   0  0  0  0  0  0  0  0  0  0  0  0
    3.8626    0.3911    0.0000 H   0  0  0  0  0  0  0  0  0  0  0  0
   11.5683    0.8291    0.0000 H   0  0  0  0  0  0  0  0  0  0  0  0
   11.7953    1.6760    0.0000 H   0  0  0  0  0  0  0  0  0  0  0  0
   10.9483    1.9030    0.0000 H   0  0  0  0  0  0  0  0  0  0  0  0
  1  3  1  0  0  0  0
  1  4  1  0  0  0  0
  1  5  2  0  0  0  0
  1  6  2  0  0  0  0
  3 15  1  0  0  0  0
  7  8  1  0  0  0  0
  7  9  1  0  0  0  0
  7 17  1  0  0  0  0
  7 18  1  0  0  0  0
  8 10  1  0  0  0  0
  8 19  1  0  0  0  0
  8 20  1  0  0  0  0
  9 11  1  0  0  0  0
  9 21  1  0  0  0  0
  9 22  1  0  0  0  0
 10 12  1  0  0  0  0
 10 23  1  0  0  0  0
 10 24  1  0  0  0  0
 11 13  1  0  0  0  0
 11 25  1  0  0  0  0
 11 26  1  0  0  0  0
 12 14  1  0  0  0  0
 12 27  1  0  0  0  0
 12 28  1  0  0  0  0
 13 15  1  0  0  0  0
 13 29  1  0  0  0  0
 13 30  1  0  0  0  0
 14 16  1  0  0  0  0
 14 31  1  0  0  0  0
 14 32  1  0  0  0  0
 15 33  1  0  0  0  0
 15 34  1  0  0  0  0
 16 35  1  0  0  0  0
 16 36  1  0  0  0  0
 16 37  1  0  0  0  0
M  CHG  2   2   1   4  -1
M  END
> <PUBCHEM_COMPOUND_CID>
8903

> <PUBCHEM_COMPOUND_CANONICALIZED>
1

> <PUBCHEM_CACTVS_COMPLEXITY>
205

> <PUBCHEM_CACTVS_HBOND_ACCEPTOR>
4

> <PUBCHEM_CACTVS_HBOND_DONOR>
0

> <PUBCHEM_CACTVS_ROTATABLE_BOND>
9

> <PUBCHEM_CACTVS_SUBSKEYS>
AAADceBwOCBAAAAAAAAAAAAAAAAAAAAAAAAAAAAAAAAAAAAAAAAAGgAAAAAACACggAICAAAAAAAAAAAAADAAAAAAAAAAAAAAAAAAAAIAAAAAAAAEAAAAAAGAwKAAAAAAAAAAAAAAAAAAAAAAAAAAAAAAAA==

> <PUBCHEM_IUPAC_OPENEYE_NAME>
sodium decyl sulfate

> <PUBCHEM_IUPAC_CAS_NAME>
sodium decyl sulfate

> <PUBCHEM_IUPAC_NAME>
sodium decyl sulfate

> <PUBCHEM_IUPAC_SYSTEMATIC_NAME>
sodium decyl sulfate

> <PUBCHEM_IUPAC_TRADITIONAL_NAME>
sodium decyl sulfate

> <PUBCHEM_IUPAC_INCHI>
InChI=1S/C10H22O4S.Na/c1-2-3-4-5-6-7-8-9-10-14-15(11,12)13;/h2-10H2,1H3,(H,11,12,13);/q;+1/p-1

> <PUBCHEM_IUPAC_INCHIKEY>
XZTJQQLJJCXOLP-UHFFFAOYSA-M

> <PUBCHEM_EXACT_MASS>
260.105824

> <PUBCHEM_MOLECULAR_FORMULA>
C10H21NaO4S

> <PUBCHEM_MOLECULAR_WEIGHT>
260.326109

> <PUBCHEM_OPENEYE_CAN_SMILES>
CCCCCCCCCCOS(=O)(=O)[O-].[Na+]

> <PUBCHEM_OPENEYE_ISO_SMILES>
CCCCCCCCCCOS(=O)(=O)[O-].[Na+]

> <PUBCHEM_CACTVS_TPSA>
74.8

> <PUBCHEM_MONOISOTOPIC_WEIGHT>
260.105824

> <PUBCHEM_TOTAL_CHARGE>
0

> <PUBCHEM_HEAVY_ATOM_COUNT>
16

> <PUBCHEM_ATOM_DEF_STEREO_COUNT>
0

> <PUBCHEM_ATOM_UDEF_STEREO_COUNT>
0

> <PUBCHEM_BOND_DEF_STEREO_COUNT>
0

> <PUBCHEM_BOND_UDEF_STEREO_COUNT>
0

> <PUBCHEM_ISOTOPIC_ATOM_COUNT>
0

> <PUBCHEM_COMPONENT_COUNT>
2

> <PUBCHEM_CACTVS_TAUTO_COUNT>
1

> <PUBCHEM_COORDINATE_TYPE>
1
5
255

$$$$

