13948
  -OEChem-06241222412D

 47 50  0     1  0  0  0  0  0999 V2000
    9.5141    2.1128    0.0000 O   0  0  0  0  0  0  0  0  0  0  0  0
    2.8641   -2.1948    0.0000 O   0  0  0  0  0  0  0  0  0  0  0  0
    8.2572    0.8575    0.0000 C   0  0  3  0  0  0  0  0  0  0  0  0
    8.2572   -0.1425    0.0000 C   0  0  3  0  0  0  0  0  0  0  0  0
    7.3912   -0.6425    0.0000 C   0  0  3  0  0  0  0  0  0  0  0  0
    6.5251   -0.1425    0.0000 C   0  0  3  0  0  0  0  0  0  0  0  0
    9.2034    1.1623    0.0000 C   0  0  2  0  0  0  0  0  0  0  0  0
    7.3912    1.3575    0.0000 C   0  0  0  0  0  0  0  0  0  0  0  0
    9.2034   -0.4472    0.0000 C   0  0  0  0  0  0  0  0  0  0  0  0
    6.5251    0.8575    0.0000 C   0  0  0  0  0  0  0  0  0  0  0  0
    9.7870    0.3575    0.0000 C   0  0  0  0  0  0  0  0  0  0  0  0
    7.4072   -1.6840    0.0000 C   0  0  0  0  0  0  0  0  0  0  0  0
    8.2572    1.8575    0.0000 C   0  0  0  0  0  0  0  0  0  0  0  0
    5.6151   -0.6493    0.0000 C   0  0  0  0  0  0  0  0  0  0  0  0
    6.5092   -2.2117    0.0000 C   0  0  0  0  0  0  0  0  0  0  0  0
    5.6071   -1.6909    0.0000 C   0  0  0  0  0  0  0  0  0  0  0  0
    4.6883   -0.0852    0.0000 C   0  0  0  0  0  0  0  0  0  0  0  0
    4.6717   -2.2406    0.0000 C   0  0  0  0  0  0  0  0  0  0  0  0
    3.7404   -0.6132    0.0000 C   0  0  0  0  0  0  0  0  0  0  0  0
    3.7320   -1.6981    0.0000 C   0  0  0  0  0  0  0  0  0  0  0  0
    2.0000   -1.6915    0.0000 C   0  0  0  0  0  0  0  0  0  0  0  0
    8.3228   -0.7590    0.0000 H   0  0  0  0  0  0  0  0  0  0  0  0
    7.9305   -0.9483    0.0000 H   0  0  0  0  0  0  0  0  0  0  0  0
    7.0621    0.1675    0.0000 H   0  0  0  0  0  0  0  0  0  0  0  0
    9.8159    1.2585    0.0000 H   0  0  0  0  0  0  0  0  0  0  0  0
    7.7897    1.8325    0.0000 H   0  0  0  0  0  0  0  0  0  0  0  0
    6.9926    1.8325    0.0000 H   0  0  0  0  0  0  0  0  0  0  0  0
    8.9524   -1.0141    0.0000 H   0  0  0  0  0  0  0  0  0  0  0  0
    9.7408   -0.7564    0.0000 H   0  0  0  0  0  0  0  0  0  0  0  0
    6.3131    1.4401    0.0000 H   0  0  0  0  0  0  0  0  0  0  0  0
    5.9145    0.7499    0.0000 H   0  0  0  0  0  0  0  0  0  0  0  0
   10.2479   -0.0572    0.0000 H   0  0  0  0  0  0  0  0  0  0  0  0
   10.2479    0.7723    0.0000 H   0  0  0  0  0  0  0  0  0  0  0  0
    7.6252   -2.2644    0.0000 H   0  0  0  0  0  0  0  0  0  0  0  0
    8.0164   -1.5685    0.0000 H   0  0  0  0  0  0  0  0  0  0  0  0
    8.8772    1.8575    0.0000 H   0  0  0  0  0  0  0  0  0  0  0  0
    8.2572    2.4775    0.0000 H   0  0  0  0  0  0  0  0  0  0  0  0
    7.6372    1.8575    0.0000 H   0  0  0  0  0  0  0  0  0  0  0  0
    6.1119   -2.6877    0.0000 H   0  0  0  0  0  0  0  0  0  0  0  0
    6.9101   -2.6846    0.0000 H   0  0  0  0  0  0  0  0  0  0  0  0
   10.1207    2.2406    0.0000 H   0  0  0  0  0  0  0  0  0  0  0  0
    4.7002    0.5347    0.0000 H   0  0  0  0  0  0  0  0  0  0  0  0
    4.6741   -2.8606    0.0000 H   0  0  0  0  0  0  0  0  0  0  0  0
    3.2071   -0.2970    0.0000 H   0  0  0  0  0  0  0  0  0  0  0  0
    2.3121   -1.1557    0.0000 H   0  0  0  0  0  0  0  0  0  0  0  0
    1.4643   -1.3794    0.0000 H   0  0  0  0  0  0  0  0  0  0  0  0
    1.6879   -2.2272    0.0000 H   0  0  0  0  0  0  0  0  0  0  0  0
  7  1  1  1  0  0  0
  1 41  1  0  0  0  0
  2 20  1  0  0  0  0
  2 21  1  0  0  0  0
  3  4  1  0  0  0  0
  3  7  1  0  0  0  0
  3  8  1  0  0  0  0
  3 13  1  0  0  0  0
  4  5  1  0  0  0  0
  4  9  1  0  0  0  0
  4 22  1  0  0  0  0
  5  6  1  0  0  0  0
  5 12  1  0  0  0  0
  5 23  1  0  0  0  0
  6 10  1  0  0  0  0
  6 14  1  0  0  0  0
  6 24  1  0  0  0  0
  7 11  1  0  0  0  0
  7 25  1  0  0  0  0
  8 10  1  0  0  0  0
  8 26  1  0  0  0  0
  8 27  1  0  0  0  0
  9 11  1  0  0  0  0
  9 28  1  0  0  0  0
  9 29  1  0  0  0  0
 10 30  1  0  0  0  0
 10 31  1  0  0  0  0
 11 32  1  0  0  0  0
 11 33  1  0  0  0  0
 12 15  1  0  0  0  0
 12 34  1  0  0  0  0
 12 35  1  0  0  0  0
 13 36  1  0  0  0  0
 13 37  1  0  0  0  0
 13 38  1  0  0  0  0
 14 16  2  0  0  0  0
 14 17  1  0  0  0  0
 15 16  1  0  0  0  0
 15 39  1  0  0  0  0
 15 40  1  0  0  0  0
 16 18  1  0  0  0  0
 17 19  2  0  0  0  0
 17 42  1  0  0  0  0
 18 20  2  0  0  0  0
 18 43  1  0  0  0  0
 19 20  1  0  0  0  0
 19 44  1  0  0  0  0
 21 45  1  0  0  0  0
 21 46  1  0  0  0  0
 21 47  1  0  0  0  0
M  END
> <PUBCHEM_COMPOUND_CID>
13948

> <PUBCHEM_COMPOUND_CANONICALIZED>
1

> <PUBCHEM_CACTVS_COMPLEXITY>
395

> <PUBCHEM_CACTVS_HBOND_ACCEPTOR>
2

> <PUBCHEM_CACTVS_HBOND_DONOR>
1

> <PUBCHEM_CACTVS_ROTATABLE_BOND>
1

> <PUBCHEM_CACTVS_SUBSKEYS>
AAADceB4MAAAAAAAAAAAAAAAAAAAAYAAAAAwYMAAAAAAAGDBAAAAGgAACAAADxSgmAIyBoAABgCAAiBCAAACCAAgIAAIiAAGCIgMNiKEMRqAcCAkwBEIqAeAwPAPoAABAAAQAADAAAYAACAAAIAADAAAAA==

> <PUBCHEM_IUPAC_OPENEYE_NAME>
(17S)-3-methoxy-13-methyl-6,7,8,9,11,12,14,15,16,17-decahydrocyclopenta[a]phenanthren-17-ol

> <PUBCHEM_IUPAC_CAS_NAME>
(17S)-3-methoxy-13-methyl-6,7,8,9,11,12,14,15,16,17-decahydrocyclopenta[a]phenanthren-17-ol

> <PUBCHEM_IUPAC_NAME>
(17S)-3-methoxy-13-methyl-6,7,8,9,11,12,14,15,16,17-decahydrocyclopenta[a]phenanthren-17-ol

> <PUBCHEM_IUPAC_SYSTEMATIC_NAME>
(17S)-3-methoxy-13-methyl-6,7,8,9,11,12,14,15,16,17-decahydrocyclopenta[a]phenanthren-17-ol

> <PUBCHEM_IUPAC_TRADITIONAL_NAME>
(17S)-3-methoxy-13-methyl-6,7,8,9,11,12,14,15,16,17-decahydrocyclopenta[a]phenanthren-17-ol

> <PUBCHEM_IUPAC_INCHI>
InChI=1S/C19H26O2/c1-19-10-9-15-14-6-4-13(21-2)11-12(14)3-5-16(15)17(19)7-8-18(19)20/h4,6,11,15-18,20H,3,5,7-10H2,1-2H3/t15?,16?,17?,18-,19?/m0/s1

> <PUBCHEM_IUPAC_INCHIKEY>
ULAADVBNYHGIBP-NNGLDNROSA-N

> <PUBCHEM_XLOGP3>
3

> <PUBCHEM_EXACT_MASS>
286.19328

> <PUBCHEM_MOLECULAR_FORMULA>
C19H26O2

> <PUBCHEM_MOLECULAR_WEIGHT>
286.40854

> <PUBCHEM_OPENEYE_CAN_SMILES>
CC12CCC3C(C1CCC2O)CCC4=C3C=CC(=C4)OC

> <PUBCHEM_OPENEYE_ISO_SMILES>
CC12CCC3C(C1CC[C@@H]2O)CCC4=C3C=CC(=C4)OC

> <PUBCHEM_CACTVS_TPSA>
29.5

> <PUBCHEM_MONOISOTOPIC_WEIGHT>
286.19328

> <PUBCHEM_TOTAL_CHARGE>
0

> <PUBCHEM_HEAVY_ATOM_COUNT>
21

> <PUBCHEM_ATOM_DEF_STEREO_COUNT>
1

> <PUBCHEM_ATOM_UDEF_STEREO_COUNT>
4

> <PUBCHEM_BOND_DEF_STEREO_COUNT>
0

> <PUBCHEM_BOND_UDEF_STEREO_COUNT>
0

> <PUBCHEM_ISOTOPIC_ATOM_COUNT>
0

> <PUBCHEM_COMPONENT_COUNT>
1

> <PUBCHEM_CACTVS_TAUTO_COUNT>
1

> <PUBCHEM_COORDINATE_TYPE>
1
5
255

> <PUBCHEM_BONDANNOTATIONS>
7  1  5
14  16  8
14  17  8
16  18  8
17  19  8
18  20  8
19  20  8
3  13  3
4  9  3
5  12  3
6  10  3

$$$$

