13994
  -OEChem-06241222412D

 60 62  0     0  0  0  0  0  0999 V2000
    4.8827    0.0000    0.0000 Cl  0  0  0  0  0  0  0  0  0  0  0  0
    4.6325    5.7193    0.0000 O   0  0  0  0  0  0  0  0  0  0  0  0
    6.9346    9.9765    0.0000 O   0  0  0  0  0  0  0  0  0  0  0  0
    2.6044   10.4765    0.0000 O   0  0  0  0  0  0  0  0  0  0  0  0
    6.0685   11.4765    0.0000 O   0  0  0  0  0  0  0  0  0  0  0  0
    3.4705    8.9765    0.0000 O   0  0  0  0  0  0  0  0  0  0  0  0
    2.1982    5.4371    0.0000 N   0  0  0  0  0  0  0  0  0  0  0  0
    4.4429    4.0365    0.0000 N   0  0  0  0  0  0  0  0  0  0  0  0
    6.6898    4.0365    0.0000 N   0  0  0  0  0  0  0  0  0  0  0  0
    1.8052    6.3566    0.0000 C   0  0  0  0  0  0  0  0  0  0  0  0
    1.4452    4.7792    0.0000 C   0  0  0  0  0  0  0  0  0  0  0  0
    0.8092    6.2670    0.0000 C   0  0  0  0  0  0  0  0  0  0  0  0
    0.5867    5.2921    0.0000 C   0  0  0  0  0  0  0  0  0  0  0  0
    3.1732    5.2146    0.0000 C   0  0  0  0  0  0  0  0  0  0  0  0
    3.4679    4.2590    0.0000 C   0  0  0  0  0  0  0  0  0  0  0  0
    4.6654    3.0616    0.0000 C   0  0  0  0  0  0  0  0  0  0  0  0
    5.0663    4.8183    0.0000 C   0  0  0  0  0  0  0  0  0  0  0  0
    5.5663    2.6277    0.0000 C   0  0  0  0  0  0  0  0  0  0  0  0
    6.0663    4.8183    0.0000 C   0  0  0  0  0  0  0  0  0  0  0  0
    6.4673    3.0616    0.0000 C   0  0  0  0  0  0  0  0  0  0  0  0
    3.7958    2.4881    0.0000 C   0  0  0  0  0  0  0  0  0  0  0  0
    5.6602    1.5903    0.0000 C   0  0  0  0  0  0  0  0  0  0  0  0
    3.8656    1.4489    0.0000 C   0  0  0  0  0  0  0  0  0  0  0  0
    7.2491    2.4381    0.0000 C   0  0  0  0  0  0  0  0  0  0  0  0
    4.8041    0.9969    0.0000 C   0  0  0  0  0  0  0  0  0  0  0  0
    8.1800    2.8034    0.0000 C   0  0  0  0  0  0  0  0  0  0  0  0
    7.1001    1.4493    0.0000 C   0  0  0  0  0  0  0  0  0  0  0  0
    8.9619    2.1799    0.0000 C   0  0  0  0  0  0  0  0  0  0  0  0
    7.8819    0.8258    0.0000 C   0  0  0  0  0  0  0  0  0  0  0  0
    8.8128    1.1911    0.0000 C   0  0  0  0  0  0  0  0  0  0  0  0
    5.2025    9.9765    0.0000 C   0  0  0  0  0  0  0  0  0  0  0  0
    4.3365   10.4765    0.0000 C   0  0  0  0  0  0  0  0  0  0  0  0
    6.0685   10.4765    0.0000 C   0  0  0  0  0  0  0  0  0  0  0  0
    3.4705    9.9765    0.0000 C   0  0  0  0  0  0  0  0  0  0  0  0
    2.3977    6.5394    0.0000 H   0  0  0  0  0  0  0  0  0  0  0  0
    1.6854    6.9650    0.0000 H   0  0  0  0  0  0  0  0  0  0  0  0
    1.0733    4.2831    0.0000 H   0  0  0  0  0  0  0  0  0  0  0  0
    1.8997    4.3575    0.0000 H   0  0  0  0  0  0  0  0  0  0  0  0
    0.8185    6.8869    0.0000 H   0  0  0  0  0  0  0  0  0  0  0  0
    0.1937    6.3410    0.0000 H   0  0  0  0  0  0  0  0  0  0  0  0
    0.0000    5.4925    0.0000 H   0  0  0  0  0  0  0  0  0  0  0  0
    0.3261    4.7295    0.0000 H   0  0  0  0  0  0  0  0  0  0  0  0
    3.2041    5.8338    0.0000 H   0  0  0  0  0  0  0  0  0  0  0  0
    3.7884    5.2917    0.0000 H   0  0  0  0  0  0  0  0  0  0  0  0
    3.4370    3.6398    0.0000 H   0  0  0  0  0  0  0  0  0  0  0  0
    2.8527    4.1819    0.0000 H   0  0  0  0  0  0  0  0  0  0  0  0
    6.6249    5.0873    0.0000 H   0  0  0  0  0  0  0  0  0  0  0  0
    5.9284    5.4228    0.0000 H   0  0  0  0  0  0  0  0  0  0  0  0
    3.2403    2.7636    0.0000 H   0  0  0  0  0  0  0  0  0  0  0  0
    6.2219    1.3278    0.0000 H   0  0  0  0  0  0  0  0  0  0  0  0
    3.3520    1.1016    0.0000 H   0  0  0  0  0  0  0  0  0  0  0  0
    8.2724    3.4165    0.0000 H   0  0  0  0  0  0  0  0  0  0  0  0
    6.5230    1.2227    0.0000 H   0  0  0  0  0  0  0  0  0  0  0  0
    9.5390    2.4064    0.0000 H   0  0  0  0  0  0  0  0  0  0  0  0
    7.7895    0.2127    0.0000 H   0  0  0  0  0  0  0  0  0  0  0  0
    9.2975    0.8045    0.0000 H   0  0  0  0  0  0  0  0  0  0  0  0
    5.2025    9.3565    0.0000 H   0  0  0  0  0  0  0  0  0  0  0  0
    4.3365   11.0965    0.0000 H   0  0  0  0  0  0  0  0  0  0  0  0
    7.4715   10.2865    0.0000 H   0  0  0  0  0  0  0  0  0  0  0  0
    2.0675   10.1665    0.0000 H   0  0  0  0  0  0  0  0  0  0  0  0
  1 25  1  0  0  0  0
  2 17  2  0  0  0  0
  3 33  1  0  0  0  0
  3 59  1  0  0  0  0
  4 34  1  0  0  0  0
  4 60  1  0  0  0  0
  5 33  2  0  0  0  0
  6 34  2  0  0  0  0
  7 10  1  0  0  0  0
  7 11  1  0  0  0  0
  7 14  1  0  0  0  0
  8 15  1  0  0  0  0
  8 16  1  0  0  0  0
  8 17  1  0  0  0  0
  9 19  1  0  0  0  0
  9 20  2  0  0  0  0
 10 12  1  0  0  0  0
 10 35  1  0  0  0  0
 10 36  1  0  0  0  0
 11 13  1  0  0  0  0
 11 37  1  0  0  0  0
 11 38  1  0  0  0  0
 12 13  1  0  0  0  0
 12 39  1  0  0  0  0
 12 40  1  0  0  0  0
 13 41  1  0  0  0  0
 13 42  1  0  0  0  0
 14 15  1  0  0  0  0
 14 43  1  0  0  0  0
 14 44  1  0  0  0  0
 15 45  1  0  0  0  0
 15 46  1  0  0  0  0
 16 18  2  0  0  0  0
 16 21  1  0  0  0  0
 17 19  1  0  0  0  0
 18 20  1  0  0  0  0
 18 22  1  0  0  0  0
 19 47  1  0  0  0  0
 19 48  1  0  0  0  0
 20 24  1  0  0  0  0
 21 23  2  0  0  0  0
 21 49  1  0  0  0  0
 22 25  2  0  0  0  0
 22 50  1  0  0  0  0
 23 25  1  0  0  0  0
 23 51  1  0  0  0  0
 24 26  2  0  0  0  0
 24 27  1  0  0  0  0
 26 28  1  0  0  0  0
 26 52  1  0  0  0  0
 27 29  2  0  0  0  0
 27 53  1  0  0  0  0
 28 30  2  0  0  0  0
 28 54  1  0  0  0  0
 29 30  1  0  0  0  0
 29 55  1  0  0  0  0
 30 56  1  0  0  0  0
 31 32  2  3  0  0  0
 31 33  1  0  0  0  0
 31 57  1  0  0  0  0
 32 34  1  0  0  0  0
 32 58  1  0  0  0  0
M  END
> <PUBCHEM_COMPOUND_CID>
13994

> <PUBCHEM_COMPOUND_CANONICALIZED>
1

> <PUBCHEM_CACTVS_COMPLEXITY>
644

> <PUBCHEM_CACTVS_HBOND_ACCEPTOR>
7

> <PUBCHEM_CACTVS_HBOND_DONOR>
2

> <PUBCHEM_CACTVS_ROTATABLE_BOND>
6

> <PUBCHEM_CACTVS_SUBSKEYS>
AAADceB7OAAEAAAAAAAAAAAAAAAAAWAAAAAwYAAABAAAAAABQAAAHgIACAAADArBmCQwyIMAAgCoAyXyXACCAAAhBwAIiACoZtgIZKLBk5GUMAhghgDI2YcQgMAOAABAIAACAAAAAIBAAAQAAAAAAAAAAA==

> <PUBCHEM_IUPAC_OPENEYE_NAME>
but-2-enedioic acid; 7-chloro-5-phenyl-1-(2-pyrrolidin-1-ylethyl)-3H-1,4-benzodiazepin-2-one

> <PUBCHEM_IUPAC_CAS_NAME>
but-2-enedioic acid; 7-chloro-5-phenyl-1-[2-(1-pyrrolidinyl)ethyl]-3H-1,4-benzodiazepin-2-one

> <PUBCHEM_IUPAC_NAME>
but-2-enedioic acid; 7-chloro-5-phenyl-1-(2-pyrrolidin-1-ylethyl)-3H-1,4-benzodiazepin-2-one

> <PUBCHEM_IUPAC_SYSTEMATIC_NAME>
but-2-enedioic acid; 7-chloranyl-5-phenyl-1-(2-pyrrolidin-1-ylethyl)-3H-1,4-benzodiazepin-2-one

> <PUBCHEM_IUPAC_TRADITIONAL_NAME>
but-2-enedioic acid; 7-chloro-5-phenyl-1-(2-pyrrolidinoethyl)-3H-1,4-benzodiazepin-2-one

> <PUBCHEM_IUPAC_INCHI>
InChI=1S/C21H22ClN3O.C4H4O4/c22-17-8-9-19-18(14-17)21(16-6-2-1-3-7-16)23-15-20(26)25(19)13-12-24-10-4-5-11-24;5-3(6)1-2-4(7)8/h1-3,6-9,14H,4-5,10-13,15H2;1-2H,(H,5,6)(H,7,8)

> <PUBCHEM_IUPAC_INCHIKEY>
VEJFIAKAVCZVAI-UHFFFAOYSA-N

> <PUBCHEM_XLOGP3_AA>
3.124

> <PUBCHEM_EXACT_MASS>
483.156099

> <PUBCHEM_MOLECULAR_FORMULA>
C25H26ClN3O5

> <PUBCHEM_MOLECULAR_WEIGHT>
483.94404

> <PUBCHEM_OPENEYE_CAN_SMILES>
C1CCN(C1)CCN2C(=O)CN=C(C3=C2C=CC(=C3)Cl)C4=CC=CC=C4.C(=CC(=O)O)C(=O)O

> <PUBCHEM_OPENEYE_ISO_SMILES>
C1CCN(C1)CCN2C(=O)CN=C(C3=C2C=CC(=C3)Cl)C4=CC=CC=C4.C(=CC(=O)O)C(=O)O

> <PUBCHEM_CACTVS_TPSA>
111

> <PUBCHEM_MONOISOTOPIC_WEIGHT>
483.156099

> <PUBCHEM_TOTAL_CHARGE>
0

> <PUBCHEM_HEAVY_ATOM_COUNT>
34

> <PUBCHEM_ATOM_DEF_STEREO_COUNT>
0

> <PUBCHEM_ATOM_UDEF_STEREO_COUNT>
0

> <PUBCHEM_BOND_DEF_STEREO_COUNT>
0

> <PUBCHEM_BOND_UDEF_STEREO_COUNT>
1

> <PUBCHEM_ISOTOPIC_ATOM_COUNT>
0

> <PUBCHEM_COMPONENT_COUNT>
2

> <PUBCHEM_CACTVS_TAUTO_COUNT>
1

> <PUBCHEM_COORDINATE_TYPE>
1
5
255

> <PUBCHEM_BONDANNOTATIONS>
16  18  8
16  21  8
18  22  8
21  23  8
22  25  8
23  25  8
24  26  8
24  27  8
26  28  8
27  29  8
28  30  8
29  30  8
31  32  1

$$$$

