4561
  -OEChem-06261200132D

 92 92  0     0  0  0  0  0  0999 V2000
    2.5369   -7.6900    0.0000 O   0  0  0  0  0  0  0  0  0  0  0  0
    6.0010   -9.6900    0.0000 O   0  0  0  0  0  0  0  0  0  0  0  0
    9.4651    1.3100    0.0000 C   0  0  0  0  0  0  0  0  0  0  0  0
    9.4651    2.3100    0.0000 C   0  0  0  0  0  0  0  0  0  0  0  0
    7.7331   -1.6900    0.0000 C   0  0  0  0  0  0  0  0  0  0  0  0
    7.7331   -0.6900    0.0000 C   0  0  0  0  0  0  0  0  0  0  0  0
    8.5991    0.8100    0.0000 C   0  0  0  0  0  0  0  0  0  0  0  0
   11.1972    4.3100    0.0000 C   0  0  0  0  0  0  0  0  0  0  0  0
   10.3312    3.8100    0.0000 C   0  0  0  0  0  0  0  0  0  0  0  0
    6.8671   -2.1900    0.0000 C   0  0  0  0  0  0  0  0  0  0  0  0
   11.1972    5.3100    0.0000 C   0  0  0  0  0  0  0  0  0  0  0  0
    8.5991   -0.1900    0.0000 C   0  0  0  0  0  0  0  0  0  0  0  0
   10.3312    2.8100    0.0000 C   0  0  0  0  0  0  0  0  0  0  0  0
    6.0010   -3.6900    0.0000 C   0  0  0  0  0  0  0  0  0  0  0  0
    6.0010   -4.6900    0.0000 C   0  0  0  0  0  0  0  0  0  0  0  0
    6.8671   -3.1900    0.0000 C   0  0  0  0  0  0  0  0  0  0  0  0
   12.0632    6.8100    0.0000 C   0  0  0  0  0  0  0  0  0  0  0  0
   12.0632    5.8100    0.0000 C   0  0  0  0  0  0  0  0  0  0  0  0
   12.9292    7.3100    0.0000 C   0  0  0  0  0  0  0  0  0  0  0  0
    5.1350   -5.1900    0.0000 C   0  0  0  0  0  0  0  0  0  0  0  0
    7.7331    1.3100    0.0000 C   0  0  0  0  0  0  0  0  0  0  0  0
    9.4651    4.3100    0.0000 C   0  0  0  0  0  0  0  0  0  0  0  0
    6.0010   -1.6900    0.0000 C   0  0  0  0  0  0  0  0  0  0  0  0
   12.9292    8.3100    0.0000 C   0  0  0  0  0  0  0  0  0  0  0  0
    5.1350   -6.1900    0.0000 C   0  0  0  0  0  0  0  0  0  0  0  0
   11.1972    7.3100    0.0000 C   0  0  0  0  0  0  0  0  0  0  0  0
    4.2690   -6.6900    0.0000 C   0  0  0  0  0  0  0  0  0  0  0  0
    4.2690   -4.6900    0.0000 C   0  0  0  0  0  0  0  0  0  0  0  0
   13.7953    8.8100    0.0000 C   0  0  0  0  0  0  0  0  0  0  0  0
    4.2690   -7.6900    0.0000 C   0  0  0  0  0  0  0  0  0  0  0  0
   13.7953    9.8100    0.0000 C   0  0  0  0  0  0  0  0  0  0  0  0
    3.4030   -8.1900    0.0000 C   0  0  0  0  0  0  0  0  0  0  0  0
    5.1350   -8.1900    0.0000 C   0  0  0  0  0  0  0  0  0  0  0  0
   14.6613   10.3100    0.0000 C   0  0  0  0  0  0  0  0  0  0  0  0
   12.9292   10.3100    0.0000 C   0  0  0  0  0  0  0  0  0  0  0  0
    5.1350   -9.1900    0.0000 C   0  0  0  0  0  0  0  0  0  0  0  0
    3.4030   -9.1900    0.0000 C   0  0  0  0  0  0  0  0  0  0  0  0
    4.2690   -9.6900    0.0000 C   0  0  0  0  0  0  0  0  0  0  0  0
    9.6772    0.7274    0.0000 H   0  0  0  0  0  0  0  0  0  0  0  0
   10.0757    1.4177    0.0000 H   0  0  0  0  0  0  0  0  0  0  0  0
    9.2531    2.8926    0.0000 H   0  0  0  0  0  0  0  0  0  0  0  0
    8.8546    2.2023    0.0000 H   0  0  0  0  0  0  0  0  0  0  0  0
    7.9451   -2.2726    0.0000 H   0  0  0  0  0  0  0  0  0  0  0  0
    8.3437   -1.5823    0.0000 H   0  0  0  0  0  0  0  0  0  0  0  0
    7.5210   -0.1074    0.0000 H   0  0  0  0  0  0  0  0  0  0  0  0
    7.1225   -0.7977    0.0000 H   0  0  0  0  0  0  0  0  0  0  0  0
   11.4092    3.7274    0.0000 H   0  0  0  0  0  0  0  0  0  0  0  0
   11.8078    4.4177    0.0000 H   0  0  0  0  0  0  0  0  0  0  0  0
   10.9851    5.8926    0.0000 H   0  0  0  0  0  0  0  0  0  0  0  0
   10.5866    5.2023    0.0000 H   0  0  0  0  0  0  0  0  0  0  0  0
    9.1360   -0.5000    0.0000 H   0  0  0  0  0  0  0  0  0  0  0  0
   10.8681    2.5000    0.0000 H   0  0  0  0  0  0  0  0  0  0  0  0
    5.7890   -3.1074    0.0000 H   0  0  0  0  0  0  0  0  0  0  0  0
    5.3905   -3.7977    0.0000 H   0  0  0  0  0  0  0  0  0  0  0  0
    6.2131   -5.2726    0.0000 H   0  0  0  0  0  0  0  0  0  0  0  0
    6.6116   -4.5823    0.0000 H   0  0  0  0  0  0  0  0  0  0  0  0
    7.4040   -3.5000    0.0000 H   0  0  0  0  0  0  0  0  0  0  0  0
   12.6002    5.5000    0.0000 H   0  0  0  0  0  0  0  0  0  0  0  0
   13.1413    6.7274    0.0000 H   0  0  0  0  0  0  0  0  0  0  0  0
   13.5398    7.4177    0.0000 H   0  0  0  0  0  0  0  0  0  0  0  0
    8.0431    1.8469    0.0000 H   0  0  0  0  0  0  0  0  0  0  0  0
    7.1962    1.6200    0.0000 H   0  0  0  0  0  0  0  0  0  0  0  0
    7.4231    0.7731    0.0000 H   0  0  0  0  0  0  0  0  0  0  0  0
    9.7751    4.8469    0.0000 H   0  0  0  0  0  0  0  0  0  0  0  0
    8.9282    4.6200    0.0000 H   0  0  0  0  0  0  0  0  0  0  0  0
    9.1551    3.7731    0.0000 H   0  0  0  0  0  0  0  0  0  0  0  0
    6.3110   -1.1531    0.0000 H   0  0  0  0  0  0  0  0  0  0  0  0
    5.4641   -1.3800    0.0000 H   0  0  0  0  0  0  0  0  0  0  0  0
    5.6910   -2.2269    0.0000 H   0  0  0  0  0  0  0  0  0  0  0  0
   12.7172    8.8926    0.0000 H   0  0  0  0  0  0  0  0  0  0  0  0
   12.3187    8.2023    0.0000 H   0  0  0  0  0  0  0  0  0  0  0  0
    5.6720   -6.5000    0.0000 H   0  0  0  0  0  0  0  0  0  0  0  0
    4.0569   -6.1074    0.0000 H   0  0  0  0  0  0  0  0  0  0  0  0
    3.6584   -6.7977    0.0000 H   0  0  0  0  0  0  0  0  0  0  0  0
   11.5072    7.8469    0.0000 H   0  0  0  0  0  0  0  0  0  0  0  0
   10.6603    7.6200    0.0000 H   0  0  0  0  0  0  0  0  0  0  0  0
   10.8872    6.7731    0.0000 H   0  0  0  0  0  0  0  0  0  0  0  0
    4.5790   -4.1531    0.0000 H   0  0  0  0  0  0  0  0  0  0  0  0
    3.7320   -4.3800    0.0000 H   0  0  0  0  0  0  0  0  0  0  0  0
    3.9590   -5.2269    0.0000 H   0  0  0  0  0  0  0  0  0  0  0  0
   14.3322    8.5000    0.0000 H   0  0  0  0  0  0  0  0  0  0  0  0
    5.6720   -7.8800    0.0000 H   0  0  0  0  0  0  0  0  0  0  0  0
   14.9713    9.7731    0.0000 H   0  0  0  0  0  0  0  0  0  0  0  0
   15.1982   10.6200    0.0000 H   0  0  0  0  0  0  0  0  0  0  0  0
   14.3513   10.8469    0.0000 H   0  0  0  0  0  0  0  0  0  0  0  0
   13.2392   10.8469    0.0000 H   0  0  0  0  0  0  0  0  0  0  0  0
   12.3923   10.6200    0.0000 H   0  0  0  0  0  0  0  0  0  0  0  0
   12.6192    9.7731    0.0000 H   0  0  0  0  0  0  0  0  0  0  0  0
    2.8660   -9.5000    0.0000 H   0  0  0  0  0  0  0  0  0  0  0  0
    4.2690  -10.3100    0.0000 H   0  0  0  0  0  0  0  0  0  0  0  0
    2.0000   -8.0000    0.0000 H   0  0  0  0  0  0  0  0  0  0  0  0
    6.0010  -10.3100    0.0000 H   0  0  0  0  0  0  0  0  0  0  0  0
  1 32  1  0  0  0  0
  1 91  1  0  0  0  0
  2 36  1  0  0  0  0
  2 92  1  0  0  0  0
  3  4  1  0  0  0  0
  3  7  1  0  0  0  0
  3 39  1  0  0  0  0
  3 40  1  0  0  0  0
  4 13  1  0  0  0  0
  4 41  1  0  0  0  0
  4 42  1  0  0  0  0
  5  6  1  0  0  0  0
  5 10  1  0  0  0  0
  5 43  1  0  0  0  0
  5 44  1  0  0  0  0
  6 12  1  0  0  0  0
  6 45  1  0  0  0  0
  6 46  1  0  0  0  0
  7 12  2  3  0  0  0
  7 21  1  0  0  0  0
  8  9  1  0  0  0  0
  8 11  1  0  0  0  0
  8 47  1  0  0  0  0
  8 48  1  0  0  0  0
  9 13  2  3  0  0  0
  9 22  1  0  0  0  0
 10 16  2  3  0  0  0
 10 23  1  0  0  0  0
 11 18  1  0  0  0  0
 11 49  1  0  0  0  0
 11 50  1  0  0  0  0
 12 51  1  0  0  0  0
 13 52  1  0  0  0  0
 14 15  1  0  0  0  0
 14 16  1  0  0  0  0
 14 53  1  0  0  0  0
 14 54  1  0  0  0  0
 15 20  1  0  0  0  0
 15 55  1  0  0  0  0
 15 56  1  0  0  0  0
 16 57  1  0  0  0  0
 17 18  2  3  0  0  0
 17 19  1  0  0  0  0
 17 26  1  0  0  0  0
 18 58  1  0  0  0  0
 19 24  1  0  0  0  0
 19 59  1  0  0  0  0
 19 60  1  0  0  0  0
 20 25  2  3  0  0  0
 20 28  1  0  0  0  0
 21 61  1  0  0  0  0
 21 62  1  0  0  0  0
 21 63  1  0  0  0  0
 22 64  1  0  0  0  0
 22 65  1  0  0  0  0
 22 66  1  0  0  0  0
 23 67  1  0  0  0  0
 23 68  1  0  0  0  0
 23 69  1  0  0  0  0
 24 29  1  0  0  0  0
 24 70  1  0  0  0  0
 24 71  1  0  0  0  0
 25 27  1  0  0  0  0
 25 72  1  0  0  0  0
 26 75  1  0  0  0  0
 26 76  1  0  0  0  0
 26 77  1  0  0  0  0
 27 30  1  0  0  0  0
 27 73  1  0  0  0  0
 27 74  1  0  0  0  0
 28 78  1  0  0  0  0
 28 79  1  0  0  0  0
 28 80  1  0  0  0  0
 29 31  2  0  0  0  0
 29 81  1  0  0  0  0
 30 32  2  0  0  0  0
 30 33  1  0  0  0  0
 31 34  1  0  0  0  0
 31 35  1  0  0  0  0
 32 37  1  0  0  0  0
 33 36  2  0  0  0  0
 33 82  1  0  0  0  0
 34 83  1  0  0  0  0
 34 84  1  0  0  0  0
 34 85  1  0  0  0  0
 35 86  1  0  0  0  0
 35 87  1  0  0  0  0
 35 88  1  0  0  0  0
 36 38  1  0  0  0  0
 37 38  2  0  0  0  0
 37 89  1  0  0  0  0
 38 90  1  0  0  0  0
M  END
> <PUBCHEM_COMPOUND_CID>
4561

> <PUBCHEM_COMPOUND_CANONICALIZED>
1

> <PUBCHEM_CACTVS_COMPLEXITY>
845

> <PUBCHEM_CACTVS_HBOND_ACCEPTOR>
2

> <PUBCHEM_CACTVS_HBOND_DONOR>
2

> <PUBCHEM_CACTVS_ROTATABLE_BOND>
17

> <PUBCHEM_CACTVS_SUBSKEYS>
AAADcfB8MAAAAAAAAAAAAAAAAAAAAAAAAAAwAAAAAAAAAAABAAAAGgAACAAADASAmAAyBoAAAgCAAiBCAAACAAAgIAAIiAAGCIgIJiKCERKAcAAkwBEImAfAwLAOAQABAAAIAAACAAIAABAAAAAAAAAAAA==

> <PUBCHEM_IUPAC_OPENEYE_NAME>
2-(3,7,11,15,19,23-hexamethyltetracosa-2,6,10,14,18,22-hexaenyl)benzene-1,4-diol

> <PUBCHEM_IUPAC_CAS_NAME>
2-(3,7,11,15,19,23-hexamethyltetracosa-2,6,10,14,18,22-hexaenyl)benzene-1,4-diol

> <PUBCHEM_IUPAC_NAME>
2-(3,7,11,15,19,23-hexamethyltetracosa-2,6,10,14,18,22-hexaenyl)benzene-1,4-diol

> <PUBCHEM_IUPAC_SYSTEMATIC_NAME>
2-(3,7,11,15,19,23-hexamethyltetracosa-2,6,10,14,18,22-hexaenyl)benzene-1,4-diol

> <PUBCHEM_IUPAC_TRADITIONAL_NAME>
2-(3,7,11,15,19,23-hexamethyltetracosa-2,6,10,14,18,22-hexaenyl)hydroquinone

> <PUBCHEM_IUPAC_INCHI>
InChI=1S/C36H54O2/c1-28(2)13-8-14-29(3)15-9-16-30(4)17-10-18-31(5)19-11-20-32(6)21-12-22-33(7)23-24-34-27-35(37)25-26-36(34)38/h13,15,17,19,21,23,25-27,37-38H,8-12,14,16,18,20,22,24H2,1-7H3

> <PUBCHEM_IUPAC_INCHIKEY>
GYXOFGKCNHUEPR-UHFFFAOYSA-N

> <PUBCHEM_XLOGP3_AA>
12.4

> <PUBCHEM_EXACT_MASS>
518.412381

> <PUBCHEM_MOLECULAR_FORMULA>
C36H54O2

> <PUBCHEM_MOLECULAR_WEIGHT>
518.81276

> <PUBCHEM_OPENEYE_CAN_SMILES>
CC(=CCCC(=CCCC(=CCCC(=CCCC(=CCCC(=CCC1=C(C=CC(=C1)O)O)C)C)C)C)C)C

> <PUBCHEM_OPENEYE_ISO_SMILES>
CC(=CCCC(=CCCC(=CCCC(=CCCC(=CCCC(=CCC1=C(C=CC(=C1)O)O)C)C)C)C)C)C

> <PUBCHEM_CACTVS_TPSA>
40.5

> <PUBCHEM_MONOISOTOPIC_WEIGHT>
518.412381

> <PUBCHEM_TOTAL_CHARGE>
0

> <PUBCHEM_HEAVY_ATOM_COUNT>
38

> <PUBCHEM_ATOM_DEF_STEREO_COUNT>
0

> <PUBCHEM_ATOM_UDEF_STEREO_COUNT>
0

> <PUBCHEM_BOND_DEF_STEREO_COUNT>
0

> <PUBCHEM_BOND_UDEF_STEREO_COUNT>
5

> <PUBCHEM_ISOTOPIC_ATOM_COUNT>
0

> <PUBCHEM_COMPONENT_COUNT>
1

> <PUBCHEM_CACTVS_TAUTO_COUNT>
67

> <PUBCHEM_COORDINATE_TYPE>
1
5
255

> <PUBCHEM_BONDANNOTATIONS>
10  16  1
17  18  1
20  25  1
30  32  8
30  33  8
32  37  8
33  36  8
36  38  8
37  38  8
7  12  1
9  13  1

$$$$

