17395879
  -OEChem-06241222522D

 33 35  0     0  0  0  0  0  0999 V2000
    4.5981   -1.2852    0.0000 O   0  0  0  0  0  0  0  0  0  0  0  0
    4.9641    1.7536    0.0000 O   0  0  0  0  0  0  0  0  0  0  0  0
    6.2731    0.8026    0.0000 N   0  0  0  0  0  0  0  0  0  0  0  0
    2.0000   -1.7852    0.0000 N   0  0  0  0  0  0  0  0  0  0  0  0
    5.4641    0.2148    0.0000 C   0  0  0  0  0  0  0  0  0  0  0  0
    5.4641   -0.7852    0.0000 C   0  0  0  0  0  0  0  0  0  0  0  0
    5.9641    1.7536    0.0000 C   0  0  0  0  0  0  0  0  0  0  0  0
    6.5519    2.5626    0.0000 C   0  0  0  0  0  0  0  0  0  0  0  0
    4.6551    0.8026    0.0000 C   0  0  0  0  0  0  0  0  0  0  0  0
    4.5981   -2.2852    0.0000 C   0  0  0  0  0  0  0  0  0  0  0  0
    6.1452    3.4762    0.0000 C   0  0  0  0  0  0  0  0  0  0  0  0
    7.5464    2.4581    0.0000 C   0  0  0  0  0  0  0  0  0  0  0  0
    3.7320   -2.7852    0.0000 C   0  0  0  0  0  0  0  0  0  0  0  0
    5.4641   -2.7852    0.0000 C   0  0  0  0  0  0  0  0  0  0  0  0
    6.7329    4.2852    0.0000 C   0  0  0  0  0  0  0  0  0  0  0  0
    8.1342    3.2671    0.0000 C   0  0  0  0  0  0  0  0  0  0  0  0
    7.7275    4.1807    0.0000 C   0  0  0  0  0  0  0  0  0  0  0  0
    3.7320   -3.7852    0.0000 C   0  0  0  0  0  0  0  0  0  0  0  0
    5.4641   -3.7852    0.0000 C   0  0  0  0  0  0  0  0  0  0  0  0
    4.5981   -4.2852    0.0000 C   0  0  0  0  0  0  0  0  0  0  0  0
    2.8660   -2.2852    0.0000 C   0  0  0  0  0  0  0  0  0  0  0  0
    5.6762   -1.3678    0.0000 H   0  0  0  0  0  0  0  0  0  0  0  0
    6.0747   -0.6775    0.0000 H   0  0  0  0  0  0  0  0  0  0  0  0
    4.0654    0.6110    0.0000 H   0  0  0  0  0  0  0  0  0  0  0  0
    5.5286    3.5410    0.0000 H   0  0  0  0  0  0  0  0  0  0  0  0
    7.7986    1.8917    0.0000 H   0  0  0  0  0  0  0  0  0  0  0  0
    6.0010   -2.4752    0.0000 H   0  0  0  0  0  0  0  0  0  0  0  0
    6.4808    4.8516    0.0000 H   0  0  0  0  0  0  0  0  0  0  0  0
    8.7508    3.2023    0.0000 H   0  0  0  0  0  0  0  0  0  0  0  0
    8.0919    4.6823    0.0000 H   0  0  0  0  0  0  0  0  0  0  0  0
    3.1951   -4.0952    0.0000 H   0  0  0  0  0  0  0  0  0  0  0  0
    6.0010   -4.0952    0.0000 H   0  0  0  0  0  0  0  0  0  0  0  0
    4.5981   -4.9052    0.0000 H   0  0  0  0  0  0  0  0  0  0  0  0
  1  6  1  0  0  0  0
  1 10  1  0  0  0  0
  2  7  1  0  0  0  0
  2  9  1  0  0  0  0
  3  5  1  0  0  0  0
  3  7  2  0  0  0  0
  4 21  3  0  0  0  0
  5  6  1  0  0  0  0
  5  9  2  0  0  0  0
  6 22  1  0  0  0  0
  6 23  1  0  0  0  0
  7  8  1  0  0  0  0
  8 11  2  0  0  0  0
  8 12  1  0  0  0  0
  9 24  1  0  0  0  0
 10 13  1  0  0  0  0
 10 14  2  0  0  0  0
 11 15  1  0  0  0  0
 11 25  1  0  0  0  0
 12 16  2  0  0  0  0
 12 26  1  0  0  0  0
 13 18  2  0  0  0  0
 13 21  1  0  0  0  0
 14 19  1  0  0  0  0
 14 27  1  0  0  0  0
 15 17  2  0  0  0  0
 15 28  1  0  0  0  0
 16 17  1  0  0  0  0
 16 29  1  0  0  0  0
 17 30  1  0  0  0  0
 18 20  1  0  0  0  0
 18 31  1  0  0  0  0
 19 20  2  0  0  0  0
 19 32  1  0  0  0  0
 20 33  1  0  0  0  0
M  END
> <PUBCHEM_COMPOUND_CID>
17395879

> <PUBCHEM_COMPOUND_CANONICALIZED>
1

> <PUBCHEM_CACTVS_COMPLEXITY>
372

> <PUBCHEM_CACTVS_HBOND_ACCEPTOR>
4

> <PUBCHEM_CACTVS_HBOND_DONOR>
0

> <PUBCHEM_CACTVS_ROTATABLE_BOND>
4

> <PUBCHEM_CACTVS_SUBSKEYS>
AAADccB7MAAAAAAAAAAAAAAAAAAAAWAAAAAwYAAAAAAAAAAB0AAAHgAAAAAADAyhngIwhpIIFEC4By1y1ASiiCAvYiAIiCG3LNgOp7aEtTuPOSjl5BGYqY+YyCCOAAAAAAAIAAAAAAAAABAAAAAAAAAAAA==

> <PUBCHEM_IUPAC_OPENEYE_NAME>
2-[(2-phenyloxazol-4-yl)methoxy]benzonitrile

> <PUBCHEM_IUPAC_CAS_NAME>
2-[(2-phenyl-4-oxazolyl)methoxy]benzonitrile

> <PUBCHEM_IUPAC_NAME>
2-[(2-phenyl-1,3-oxazol-4-yl)methoxy]benzonitrile

> <PUBCHEM_IUPAC_SYSTEMATIC_NAME>
2-[(2-phenyl-1,3-oxazol-4-yl)methoxy]benzenecarbonitrile

> <PUBCHEM_IUPAC_TRADITIONAL_NAME>
2-[(2-phenyloxazol-4-yl)methoxy]benzonitrile

> <PUBCHEM_IUPAC_INCHI>
InChI=1S/C17H12N2O2/c18-10-14-8-4-5-9-16(14)20-11-15-12-21-17(19-15)13-6-2-1-3-7-13/h1-9,12H,11H2

> <PUBCHEM_IUPAC_INCHIKEY>
MDLADIWMJHLLBC-UHFFFAOYSA-N

> <PUBCHEM_XLOGP3_AA>
3.2

> <PUBCHEM_EXACT_MASS>
276.089878

> <PUBCHEM_MOLECULAR_FORMULA>
C17H12N2O2

> <PUBCHEM_MOLECULAR_WEIGHT>
276.28938

> <PUBCHEM_OPENEYE_CAN_SMILES>
C1=CC=C(C=C1)C2=NC(=CO2)COC3=CC=CC=C3C#N

> <PUBCHEM_OPENEYE_ISO_SMILES>
C1=CC=C(C=C1)C2=NC(=CO2)COC3=CC=CC=C3C#N

> <PUBCHEM_CACTVS_TPSA>
59

> <PUBCHEM_MONOISOTOPIC_WEIGHT>
276.089878

> <PUBCHEM_TOTAL_CHARGE>
0

> <PUBCHEM_HEAVY_ATOM_COUNT>
21

> <PUBCHEM_ATOM_DEF_STEREO_COUNT>
0

> <PUBCHEM_ATOM_UDEF_STEREO_COUNT>
0

> <PUBCHEM_BOND_DEF_STEREO_COUNT>
0

> <PUBCHEM_BOND_UDEF_STEREO_COUNT>
0

> <PUBCHEM_ISOTOPIC_ATOM_COUNT>
0

> <PUBCHEM_COMPONENT_COUNT>
1

> <PUBCHEM_CACTVS_TAUTO_COUNT>
1

> <PUBCHEM_COORDINATE_TYPE>
1
5
255

> <PUBCHEM_BONDANNOTATIONS>
10  13  8
10  14  8
11  15  8
12  16  8
13  18  8
14  19  8
15  17  8
16  17  8
18  20  8
19  20  8
2  7  8
2  9  8
3  5  8
3  7  8
5  9  8
8  11  8
8  12  8

$$$$

