9923
  -OEChem-06261204112D

 16 16  0     0  0  0  0  0  0999 V2000
    2.0000    0.4400    0.0000 F   0  0  0  0  0  0  0  0  0  0  0  0
    5.4641    0.4400    0.0000 F   0  0  0  0  0  0  0  0  0  0  0  0
    5.4641   -1.5600    0.0000 F   0  0  0  0  0  0  0  0  0  0  0  0
    2.0000   -1.5600    0.0000 F   0  0  0  0  0  0  0  0  0  0  0  0
    3.7320   -2.5600    0.0000 F   0  0  0  0  0  0  0  0  0  0  0  0
    4.5981    1.9400    0.0000 O   0  0  0  0  0  0  0  0  0  0  0  0
    3.7320    0.4400    0.0000 C   0  0  0  0  0  0  0  0  0  0  0  0
    2.8660   -0.0600    0.0000 C   0  0  0  0  0  0  0  0  0  0  0  0
    4.5981   -0.0600    0.0000 C   0  0  0  0  0  0  0  0  0  0  0  0
    3.7320    1.4400    0.0000 C   0  0  0  0  0  0  0  0  0  0  0  0
    4.5981   -1.0600    0.0000 C   0  0  0  0  0  0  0  0  0  0  0  0
    2.8660   -1.0600    0.0000 C   0  0  0  0  0  0  0  0  0  0  0  0
    3.7320   -1.5600    0.0000 C   0  0  0  0  0  0  0  0  0  0  0  0
    3.5200    2.0226    0.0000 H   0  0  0  0  0  0  0  0  0  0  0  0
    3.1215    1.3323    0.0000 H   0  0  0  0  0  0  0  0  0  0  0  0
    4.5981    2.5600    0.0000 H   0  0  0  0  0  0  0  0  0  0  0  0
  1  8  1  0  0  0  0
  2  9  1  0  0  0  0
  3 11  1  0  0  0  0
  4 12  1  0  0  0  0
  5 13  1  0  0  0  0
  6 10  1  0  0  0  0
  6 16  1  0  0  0  0
  7  8  2  0  0  0  0
  7  9  1  0  0  0  0
  7 10  1  0  0  0  0
  8 12  1  0  0  0  0
  9 11  2  0  0  0  0
 10 14  1  0  0  0  0
 10 15  1  0  0  0  0
 11 13  1  0  0  0  0
 12 13  2  0  0  0  0
M  END
> <PUBCHEM_COMPOUND_CID>
9923

> <PUBCHEM_COMPOUND_CANONICALIZED>
1

> <PUBCHEM_CACTVS_COMPLEXITY>
162

> <PUBCHEM_CACTVS_HBOND_ACCEPTOR>
6

> <PUBCHEM_CACTVS_HBOND_DONOR>
1

> <PUBCHEM_CACTVS_ROTATABLE_BOND>
1

> <PUBCHEM_CACTVS_SUBSKEYS>
AAADcQBgIcAAAAAAAAAAAAAAAAAAAAAAAAAwAAAAAAAAAAABAAAAGwAACAAADACgmAoAAIAAAgCAAgBAAAACAAAgAAAAiAAACIgINiKAEBCAcAAkwAEImAeAwCAOAAAAAAAAAAAAAAAAAAAAAAAAAAAAAA==

> <PUBCHEM_IUPAC_OPENEYE_NAME>
(2,3,4,5,6-pentafluorophenyl)methanol

> <PUBCHEM_IUPAC_CAS_NAME>
(2,3,4,5,6-pentafluorophenyl)methanol

> <PUBCHEM_IUPAC_NAME>
(2,3,4,5,6-pentafluorophenyl)methanol

> <PUBCHEM_IUPAC_SYSTEMATIC_NAME>
[2,3,4,5,6-pentakis(fluoranyl)phenyl]methanol

> <PUBCHEM_IUPAC_TRADITIONAL_NAME>
(2,3,4,5,6-pentafluorophenyl)methanol

> <PUBCHEM_IUPAC_INCHI>
InChI=1S/C7H3F5O/c8-3-2(1-13)4(9)6(11)7(12)5(3)10/h13H,1H2

> <PUBCHEM_IUPAC_INCHIKEY>
PGJYYCIOYBZTPU-UHFFFAOYSA-N

> <PUBCHEM_XLOGP3_AA>
1.5

> <PUBCHEM_EXACT_MASS>
198.010406

> <PUBCHEM_MOLECULAR_FORMULA>
C7H3F5O

> <PUBCHEM_MOLECULAR_WEIGHT>
198.090136

> <PUBCHEM_OPENEYE_CAN_SMILES>
C(C1=C(C(=C(C(=C1F)F)F)F)F)O

> <PUBCHEM_OPENEYE_ISO_SMILES>
C(C1=C(C(=C(C(=C1F)F)F)F)F)O

> <PUBCHEM_CACTVS_TPSA>
20.2

> <PUBCHEM_MONOISOTOPIC_WEIGHT>
198.010406

> <PUBCHEM_TOTAL_CHARGE>
0

> <PUBCHEM_HEAVY_ATOM_COUNT>
13

> <PUBCHEM_ATOM_DEF_STEREO_COUNT>
0

> <PUBCHEM_ATOM_UDEF_STEREO_COUNT>
0

> <PUBCHEM_BOND_DEF_STEREO_COUNT>
0

> <PUBCHEM_BOND_UDEF_STEREO_COUNT>
0

> <PUBCHEM_ISOTOPIC_ATOM_COUNT>
0

> <PUBCHEM_COMPONENT_COUNT>
1

> <PUBCHEM_CACTVS_TAUTO_COUNT>
1

> <PUBCHEM_COORDINATE_TYPE>
1
5
255

> <PUBCHEM_BONDANNOTATIONS>
11  13  8
12  13  8
7  8  8
7  9  8
8  12  8
9  11  8

$$$$

