47205557
  -OEChem-06241222592D

 34 36  0     1  0  0  0  0  0999 V2000
    5.5443    1.9621    0.0000 S   0  0  0  0  0  0  0  0  0  0  0  0
    7.1279   -0.5747    0.0000 O   0  0  0  0  0  0  0  0  0  0  0  0
    9.1279   -0.5747    0.0000 N   0  0  0  0  0  0  0  0  0  0  0  0
    7.1279    1.1574    0.0000 N   0  0  0  0  0  0  0  0  0  0  0  0
    5.5443    0.3526    0.0000 N   0  0  0  0  0  0  0  0  0  0  0  0
    9.4643   -2.1574    0.0000 N   0  0  0  0  0  0  0  0  0  0  0  0
    8.6279    0.2913    0.0000 C   0  0  3  0  0  0  0  0  0  0  0  0
    7.6279    0.2913    0.0000 C   0  0  0  0  0  0  0  0  0  0  0  0
    9.1279    1.1574    0.0000 C   0  0  0  0  0  0  0  0  0  0  0  0
    4.5981    1.6574    0.0000 C   0  0  0  0  0  0  0  0  0  0  0  0
    4.5981    0.6574    0.0000 C   0  0  0  0  0  0  0  0  0  0  0  0
    6.1279    1.1574    0.0000 C   0  0  0  0  0  0  0  0  0  0  0  0
   10.1224   -0.6792    0.0000 C   0  0  0  0  0  0  0  0  0  0  0  0
    8.7212   -1.4882    0.0000 C   0  0  0  0  0  0  0  0  0  0  0  0
    2.8660    1.6574    0.0000 C   0  0  0  0  0  0  0  0  0  0  0  0
    3.7320    2.1574    0.0000 C   0  0  0  0  0  0  0  0  0  0  0  0
    3.7320    0.1574    0.0000 C   0  0  0  0  0  0  0  0  0  0  0  0
    2.8660    0.6574    0.0000 C   0  0  0  0  0  0  0  0  0  0  0  0
   10.3303   -1.6574    0.0000 C   0  0  0  0  0  0  0  0  0  0  0  0
    2.0000    2.1574    0.0000 C   0  0  0  0  0  0  0  0  0  0  0  0
    9.2479    0.2913    0.0000 H   0  0  0  0  0  0  0  0  0  0  0  0
    9.6648    0.8474    0.0000 H   0  0  0  0  0  0  0  0  0  0  0  0
    9.4379    1.6943    0.0000 H   0  0  0  0  0  0  0  0  0  0  0  0
    8.5910    1.4674    0.0000 H   0  0  0  0  0  0  0  0  0  0  0  0
    7.4379    1.6943    0.0000 H   0  0  0  0  0  0  0  0  0  0  0  0
   10.5373   -0.2185    0.0000 H   0  0  0  0  0  0  0  0  0  0  0  0
    8.1147   -1.6171    0.0000 H   0  0  0  0  0  0  0  0  0  0  0  0
    3.7320    2.7774    0.0000 H   0  0  0  0  0  0  0  0  0  0  0  0
    3.7320   -0.4626    0.0000 H   0  0  0  0  0  0  0  0  0  0  0  0
    2.3291    0.3474    0.0000 H   0  0  0  0  0  0  0  0  0  0  0  0
   10.8967   -1.9095    0.0000 H   0  0  0  0  0  0  0  0  0  0  0  0
    2.3100    2.6943    0.0000 H   0  0  0  0  0  0  0  0  0  0  0  0
    1.4631    2.4674    0.0000 H   0  0  0  0  0  0  0  0  0  0  0  0
    1.6900    1.6204    0.0000 H   0  0  0  0  0  0  0  0  0  0  0  0
  1 10  1  0  0  0  0
  1 12  1  0  0  0  0
  2  8  2  0  0  0  0
  3  7  1  0  0  0  0
  3 13  1  0  0  0  0
  3 14  1  0  0  0  0
  4  8  1  0  0  0  0
  4 12  1  0  0  0  0
  4 25  1  0  0  0  0
  5 11  1  0  0  0  0
  5 12  2  0  0  0  0
  6 14  2  0  0  0  0
  6 19  1  0  0  0  0
  7  8  1  0  0  0  0
  7  9  1  0  0  0  0
  7 21  1  0  0  0  0
  9 22  1  0  0  0  0
  9 23  1  0  0  0  0
  9 24  1  0  0  0  0
 10 11  2  0  0  0  0
 10 16  1  0  0  0  0
 11 17  1  0  0  0  0
 13 19  2  0  0  0  0
 13 26  1  0  0  0  0
 14 27  1  0  0  0  0
 15 16  2  0  0  0  0
 15 18  1  0  0  0  0
 15 20  1  0  0  0  0
 16 28  1  0  0  0  0
 17 18  2  0  0  0  0
 17 29  1  0  0  0  0
 18 30  1  0  0  0  0
 19 31  1  0  0  0  0
 20 32  1  0  0  0  0
 20 33  1  0  0  0  0
 20 34  1  0  0  0  0
M  END
> <PUBCHEM_COMPOUND_CID>
47205557

> <PUBCHEM_COMPOUND_CANONICALIZED>
1

> <PUBCHEM_CACTVS_COMPLEXITY>
367

> <PUBCHEM_CACTVS_HBOND_ACCEPTOR>
4

> <PUBCHEM_CACTVS_HBOND_DONOR>
1

> <PUBCHEM_CACTVS_ROTATABLE_BOND>
3

> <PUBCHEM_CACTVS_SUBSKEYS>
AAADccBzoABAAAAAAAAAAAAAAAAAAWLAAAAwAAAAAAAAAFgB/AAAHgQQAAAADCjB3gQ/0bfMEAisAzV3dACD8K1xGrlJ2D24dJiIaKLgmbGUIAhokQLIyCcQgAAOCAAAgAAAAQAQAAEAAAACAAAAAAAAAA==

> <PUBCHEM_IUPAC_OPENEYE_NAME>
2-imidazol-1-yl-N-(6-methyl-1,3-benzothiazol-2-yl)propanamide

> <PUBCHEM_IUPAC_CAS_NAME>
2-(1-imidazolyl)-N-(6-methyl-1,3-benzothiazol-2-yl)propanamide

> <PUBCHEM_IUPAC_NAME>
2-imidazol-1-yl-N-(6-methyl-1,3-benzothiazol-2-yl)propanamide

> <PUBCHEM_IUPAC_SYSTEMATIC_NAME>
2-imidazol-1-yl-N-(6-methyl-1,3-benzothiazol-2-yl)propanamide

> <PUBCHEM_IUPAC_TRADITIONAL_NAME>
2-imidazol-1-yl-N-(6-methyl-1,3-benzothiazol-2-yl)propionamide

> <PUBCHEM_IUPAC_INCHI>
InChI=1S/C14H14N4OS/c1-9-3-4-11-12(7-9)20-14(16-11)17-13(19)10(2)18-6-5-15-8-18/h3-8,10H,1-2H3,(H,16,17,19)

> <PUBCHEM_IUPAC_INCHIKEY>
HSWQTSLOZQBNDF-UHFFFAOYSA-N

> <PUBCHEM_XLOGP3_AA>
2.6

> <PUBCHEM_EXACT_MASS>
286.088832

> <PUBCHEM_MOLECULAR_FORMULA>
C14H14N4OS

> <PUBCHEM_MOLECULAR_WEIGHT>
286.35216

> <PUBCHEM_OPENEYE_CAN_SMILES>
CC1=CC2=C(C=C1)N=C(S2)NC(=O)C(C)N3C=CN=C3

> <PUBCHEM_OPENEYE_ISO_SMILES>
CC1=CC2=C(C=C1)N=C(S2)NC(=O)C(C)N3C=CN=C3

> <PUBCHEM_CACTVS_TPSA>
88

> <PUBCHEM_MONOISOTOPIC_WEIGHT>
286.088832

> <PUBCHEM_TOTAL_CHARGE>
0

> <PUBCHEM_HEAVY_ATOM_COUNT>
20

> <PUBCHEM_ATOM_DEF_STEREO_COUNT>
0

> <PUBCHEM_ATOM_UDEF_STEREO_COUNT>
1

> <PUBCHEM_BOND_DEF_STEREO_COUNT>
0

> <PUBCHEM_BOND_UDEF_STEREO_COUNT>
0

> <PUBCHEM_ISOTOPIC_ATOM_COUNT>
0

> <PUBCHEM_COMPONENT_COUNT>
1

> <PUBCHEM_CACTVS_TAUTO_COUNT>
5

> <PUBCHEM_COORDINATE_TYPE>
1
5
255

> <PUBCHEM_BONDANNOTATIONS>
1  10  8
1  12  8
10  11  8
10  16  8
11  17  8
13  19  8
15  16  8
15  18  8
17  18  8
3  13  8
3  14  8
5  11  8
5  12  8
6  14  8
6  19  8
7  9  3

$$$$

