9684
  -OEChem-06261203562D

 45 48  0     1  0  0  0  0  0999 V2000
    8.6524    2.3999    0.0000 O   0  0  0  0  0  0  0  0  0  0  0  0
    2.0185    0.1839    0.0000 O   0  0  0  0  0  0  0  0  0  0  0  0
    2.0024   -1.9077    0.0000 O   0  0  0  0  0  0  0  0  0  0  0  0
    7.3955    1.1446    0.0000 C   0  0  3  0  0  0  0  0  0  0  0  0
    7.3955    0.1446    0.0000 C   0  0  3  0  0  0  0  0  0  0  0  0
    6.5294   -0.3554    0.0000 C   0  0  3  0  0  0  0  0  0  0  0  0
    5.6634    0.1446    0.0000 C   0  0  3  0  0  0  0  0  0  0  0  0
    8.3417    1.4493    0.0000 C   0  0  3  0  0  0  0  0  0  0  0  0
    6.5294    1.6446    0.0000 C   0  0  0  0  0  0  0  0  0  0  0  0
    8.3417   -0.1601    0.0000 C   0  0  0  0  0  0  0  0  0  0  0  0
    5.6634    1.1446    0.0000 C   0  0  0  0  0  0  0  0  0  0  0  0
    8.9253    0.6446    0.0000 C   0  0  0  0  0  0  0  0  0  0  0  0
    6.5455   -1.3969    0.0000 C   0  0  0  0  0  0  0  0  0  0  0  0
    7.3955    2.1446    0.0000 C   0  0  0  0  0  0  0  0  0  0  0  0
    4.7534   -0.3622    0.0000 C   0  0  0  0  0  0  0  0  0  0  0  0
    5.6475   -1.9246    0.0000 C   0  0  0  0  0  0  0  0  0  0  0  0
    4.7454   -1.4038    0.0000 C   0  0  0  0  0  0  0  0  0  0  0  0
    3.8266    0.2018    0.0000 C   0  0  0  0  0  0  0  0  0  0  0  0
    3.8100   -1.9536    0.0000 C   0  0  0  0  0  0  0  0  0  0  0  0
    2.8787   -0.3261    0.0000 C   0  0  0  0  0  0  0  0  0  0  0  0
    2.8703   -1.4111    0.0000 C   0  0  0  0  0  0  0  0  0  0  0  0
    7.4611   -0.4719    0.0000 H   0  0  0  0  0  0  0  0  0  0  0  0
    7.0688   -0.6612    0.0000 H   0  0  0  0  0  0  0  0  0  0  0  0
    6.2004    0.4546    0.0000 H   0  0  0  0  0  0  0  0  0  0  0  0
    8.9542    1.5455    0.0000 H   0  0  0  0  0  0  0  0  0  0  0  0
    6.9280    2.1196    0.0000 H   0  0  0  0  0  0  0  0  0  0  0  0
    6.1309    2.1196    0.0000 H   0  0  0  0  0  0  0  0  0  0  0  0
    8.0907   -0.7270    0.0000 H   0  0  0  0  0  0  0  0  0  0  0  0
    8.8791   -0.4693    0.0000 H   0  0  0  0  0  0  0  0  0  0  0  0
    5.4514    1.7272    0.0000 H   0  0  0  0  0  0  0  0  0  0  0  0
    5.0528    1.0370    0.0000 H   0  0  0  0  0  0  0  0  0  0  0  0
    9.3862    0.2299    0.0000 H   0  0  0  0  0  0  0  0  0  0  0  0
    9.3862    1.0593    0.0000 H   0  0  0  0  0  0  0  0  0  0  0  0
    6.7635   -1.9773    0.0000 H   0  0  0  0  0  0  0  0  0  0  0  0
    7.1546   -1.2814    0.0000 H   0  0  0  0  0  0  0  0  0  0  0  0
    8.0155    2.1446    0.0000 H   0  0  0  0  0  0  0  0  0  0  0  0
    7.3955    2.7646    0.0000 H   0  0  0  0  0  0  0  0  0  0  0  0
    6.7755    2.1446    0.0000 H   0  0  0  0  0  0  0  0  0  0  0  0
    5.2502   -2.4006    0.0000 H   0  0  0  0  0  0  0  0  0  0  0  0
    6.0484   -2.3975    0.0000 H   0  0  0  0  0  0  0  0  0  0  0  0
    9.2590    2.5277    0.0000 H   0  0  0  0  0  0  0  0  0  0  0  0
    3.8385    0.8217    0.0000 H   0  0  0  0  0  0  0  0  0  0  0  0
    3.8124   -2.5736    0.0000 H   0  0  0  0  0  0  0  0  0  0  0  0
    2.0257    0.8038    0.0000 H   0  0  0  0  0  0  0  0  0  0  0  0
    2.0000   -2.5277    0.0000 H   0  0  0  0  0  0  0  0  0  0  0  0
  1  8  1  0  0  0  0
  1 41  1  0  0  0  0
  2 20  1  0  0  0  0
  2 44  1  0  0  0  0
  3 21  1  0  0  0  0
  3 45  1  0  0  0  0
  4  5  1  0  0  0  0
  4  8  1  0  0  0  0
  4  9  1  0  0  0  0
  4 14  1  0  0  0  0
  5  6  1  0  0  0  0
  5 10  1  0  0  0  0
  5 22  1  0  0  0  0
  6  7  1  0  0  0  0
  6 13  1  0  0  0  0
  6 23  1  0  0  0  0
  7 11  1  0  0  0  0
  7 15  1  0  0  0  0
  7 24  1  0  0  0  0
  8 12  1  0  0  0  0
  8 25  1  0  0  0  0
  9 11  1  0  0  0  0
  9 26  1  0  0  0  0
  9 27  1  0  0  0  0
 10 12  1  0  0  0  0
 10 28  1  0  0  0  0
 10 29  1  0  0  0  0
 11 30  1  0  0  0  0
 11 31  1  0  0  0  0
 12 32  1  0  0  0  0
 12 33  1  0  0  0  0
 13 16  1  0  0  0  0
 13 34  1  0  0  0  0
 13 35  1  0  0  0  0
 14 36  1  0  0  0  0
 14 37  1  0  0  0  0
 14 38  1  0  0  0  0
 15 17  1  0  0  0  0
 15 18  2  0  0  0  0
 16 17  1  0  0  0  0
 16 39  1  0  0  0  0
 16 40  1  0  0  0  0
 17 19  2  0  0  0  0
 18 20  1  0  0  0  0
 18 42  1  0  0  0  0
 19 21  1  0  0  0  0
 19 43  1  0  0  0  0
 20 21  2  0  0  0  0
M  END
> <PUBCHEM_COMPOUND_CID>
9684

> <PUBCHEM_COMPOUND_CANONICALIZED>
1

> <PUBCHEM_CACTVS_COMPLEXITY>
411

> <PUBCHEM_CACTVS_HBOND_ACCEPTOR>
3

> <PUBCHEM_CACTVS_HBOND_DONOR>
3

> <PUBCHEM_CACTVS_ROTATABLE_BOND>
0

> <PUBCHEM_CACTVS_SUBSKEYS>
AAADceB4MAAAAAAAAAAAAAAAAAAAAYAAAAAwYMAAAAAAAGDBAAAAGgAACAAADxSgmAIyBoAAAgCAAiBCAAACAAAgIAAAiAAGiIgJNiKCERKAcAEkwBEJmAeAwPAPoAABAAAQQADAAAYAACCAAIAADAAAAA==

> <PUBCHEM_IUPAC_OPENEYE_NAME>
13-methyl-6,7,8,9,11,12,14,15,16,17-decahydrocyclopenta[a]phenanthrene-2,3,17-triol

> <PUBCHEM_IUPAC_CAS_NAME>
13-methyl-6,7,8,9,11,12,14,15,16,17-decahydrocyclopenta[a]phenanthrene-2,3,17-triol

> <PUBCHEM_IUPAC_NAME>
13-methyl-6,7,8,9,11,12,14,15,16,17-decahydrocyclopenta[a]phenanthrene-2,3,17-triol

> <PUBCHEM_IUPAC_SYSTEMATIC_NAME>
13-methyl-6,7,8,9,11,12,14,15,16,17-decahydrocyclopenta[a]phenanthrene-2,3,17-triol

> <PUBCHEM_IUPAC_TRADITIONAL_NAME>
13-methyl-6,7,8,9,11,12,14,15,16,17-decahydrocyclopenta[a]phenanthrene-2,3,17-triol

> <PUBCHEM_IUPAC_INCHI>
InChI=1S/C18H24O3/c1-18-7-6-11-12(14(18)4-5-17(18)21)3-2-10-8-15(19)16(20)9-13(10)11/h8-9,11-12,14,17,19-21H,2-7H2,1H3

> <PUBCHEM_IUPAC_INCHIKEY>
DILDHNKDVHLEQB-UHFFFAOYSA-N

> <PUBCHEM_XLOGP3>
3.7

> <PUBCHEM_EXACT_MASS>
288.172545

> <PUBCHEM_MOLECULAR_FORMULA>
C18H24O3

> <PUBCHEM_MOLECULAR_WEIGHT>
288.38136

> <PUBCHEM_OPENEYE_CAN_SMILES>
CC12CCC3C(C1CCC2O)CCC4=CC(=C(C=C34)O)O

> <PUBCHEM_OPENEYE_ISO_SMILES>
CC12CCC3C(C1CCC2O)CCC4=CC(=C(C=C34)O)O

> <PUBCHEM_CACTVS_TPSA>
60.7

> <PUBCHEM_MONOISOTOPIC_WEIGHT>
288.172545

> <PUBCHEM_TOTAL_CHARGE>
0

> <PUBCHEM_HEAVY_ATOM_COUNT>
21

> <PUBCHEM_ATOM_DEF_STEREO_COUNT>
0

> <PUBCHEM_ATOM_UDEF_STEREO_COUNT>
5

> <PUBCHEM_BOND_DEF_STEREO_COUNT>
0

> <PUBCHEM_BOND_UDEF_STEREO_COUNT>
0

> <PUBCHEM_ISOTOPIC_ATOM_COUNT>
0

> <PUBCHEM_COMPONENT_COUNT>
1

> <PUBCHEM_CACTVS_TAUTO_COUNT>
178

> <PUBCHEM_COORDINATE_TYPE>
1
5
255

> <PUBCHEM_BONDANNOTATIONS>
8  1  3
15  17  8
15  18  8
17  19  8
18  20  8
19  21  8
20  21  8
4  14  3
5  10  3
6  13  3
7  11  3

$$$$

