51090996
  -OEChem-06241223012D

 53 55  0     1  0  0  0  0  0999 V2000
    4.5981   -4.8170    0.0000 O   0  0  0  0  0  0  0  0  0  0  0  0
    2.8660   -1.8170    0.0000 O   0  0  0  0  0  0  0  0  0  0  0  0
    4.5981    4.1830    0.0000 O   0  0  0  0  0  0  0  0  0  0  0  0
    5.4641   -3.3170    0.0000 N   0  0  0  0  0  0  0  0  0  0  0  0
    3.7320   -0.3170    0.0000 N   0  0  0  0  0  0  0  0  0  0  0  0
    6.3301   -4.8170    0.0000 C   0  0  0  0  0  0  0  0  0  0  0  0
    6.8301   -5.6830    0.0000 C   0  0  0  0  0  0  0  0  0  0  0  0
    7.3301   -4.8170    0.0000 C   0  0  0  0  0  0  0  0  0  0  0  0
    5.4641   -4.3170    0.0000 C   0  0  0  0  0  0  0  0  0  0  0  0
    4.5981   -1.8170    0.0000 C   0  0  3  0  0  0  0  0  0  0  0  0
    4.5981   -2.8170    0.0000 C   0  0  0  0  0  0  0  0  0  0  0  0
    6.3301   -2.8170    0.0000 C   0  0  0  0  0  0  0  0  0  0  0  0
    5.4641   -1.3170    0.0000 C   0  0  0  0  0  0  0  0  0  0  0  0
    6.3301   -1.8170    0.0000 C   0  0  0  0  0  0  0  0  0  0  0  0
    3.7320   -1.3170    0.0000 C   0  0  0  0  0  0  0  0  0  0  0  0
    2.8660    0.1830    0.0000 C   0  0  0  0  0  0  0  0  0  0  0  0
    2.8660    1.1830    0.0000 C   0  0  0  0  0  0  0  0  0  0  0  0
    3.7320    1.6830    0.0000 C   0  0  0  0  0  0  0  0  0  0  0  0
    2.0000    1.6830    0.0000 C   0  0  0  0  0  0  0  0  0  0  0  0
    3.7320    2.6830    0.0000 C   0  0  0  0  0  0  0  0  0  0  0  0
    2.0000    2.6830    0.0000 C   0  0  0  0  0  0  0  0  0  0  0  0
    2.8660    3.1830    0.0000 C   0  0  0  0  0  0  0  0  0  0  0  0
    4.5981    3.1830    0.0000 C   0  0  0  0  0  0  0  0  0  0  0  0
    5.4641    4.6830    0.0000 C   0  0  0  0  0  0  0  0  0  0  0  0
    5.4641    5.6830    0.0000 C   0  0  0  0  0  0  0  0  0  0  0  0
    5.8917   -5.2554    0.0000 H   0  0  0  0  0  0  0  0  0  0  0  0
    7.9127   -5.0290    0.0000 H   0  0  0  0  0  0  0  0  0  0  0  0
    7.4378   -4.2064    0.0000 H   0  0  0  0  0  0  0  0  0  0  0  0
    6.3552   -6.0815    0.0000 H   0  0  0  0  0  0  0  0  0  0  0  0
    7.3051   -6.0815    0.0000 H   0  0  0  0  0  0  0  0  0  0  0  0
    4.5981   -1.1970    0.0000 H   0  0  0  0  0  0  0  0  0  0  0  0
    3.9875   -2.7093    0.0000 H   0  0  0  0  0  0  0  0  0  0  0  0
    4.3860   -3.3996    0.0000 H   0  0  0  0  0  0  0  0  0  0  0  0
    6.5422   -3.3996    0.0000 H   0  0  0  0  0  0  0  0  0  0  0  0
    6.9407   -2.7093    0.0000 H   0  0  0  0  0  0  0  0  0  0  0  0
    5.8626   -0.8420    0.0000 H   0  0  0  0  0  0  0  0  0  0  0  0
    5.0656   -0.8420    0.0000 H   0  0  0  0  0  0  0  0  0  0  0  0
    6.9407   -1.9246    0.0000 H   0  0  0  0  0  0  0  0  0  0  0  0
    6.5422   -1.2344    0.0000 H   0  0  0  0  0  0  0  0  0  0  0  0
    4.2690   -0.0070    0.0000 H   0  0  0  0  0  0  0  0  0  0  0  0
    2.2554    0.2907    0.0000 H   0  0  0  0  0  0  0  0  0  0  0  0
    2.6540   -0.3996    0.0000 H   0  0  0  0  0  0  0  0  0  0  0  0
    4.2690    1.3730    0.0000 H   0  0  0  0  0  0  0  0  0  0  0  0
    1.4631    1.3730    0.0000 H   0  0  0  0  0  0  0  0  0  0  0  0
    1.4631    2.9930    0.0000 H   0  0  0  0  0  0  0  0  0  0  0  0
    2.8660    3.8030    0.0000 H   0  0  0  0  0  0  0  0  0  0  0  0
    4.8101    2.6004    0.0000 H   0  0  0  0  0  0  0  0  0  0  0  0
    5.2087    3.2907    0.0000 H   0  0  0  0  0  0  0  0  0  0  0  0
    5.6762    4.1004    0.0000 H   0  0  0  0  0  0  0  0  0  0  0  0
    6.0747    4.7907    0.0000 H   0  0  0  0  0  0  0  0  0  0  0  0
    6.0841    5.6830    0.0000 H   0  0  0  0  0  0  0  0  0  0  0  0
    5.4641    6.3030    0.0000 H   0  0  0  0  0  0  0  0  0  0  0  0
    4.8441    5.6830    0.0000 H   0  0  0  0  0  0  0  0  0  0  0  0
  1  9  2  0  0  0  0
  2 15  2  0  0  0  0
  3 23  1  0  0  0  0
  3 24  1  0  0  0  0
  4  9  1  0  0  0  0
  4 11  1  0  0  0  0
  4 12  1  0  0  0  0
  5 15  1  0  0  0  0
  5 16  1  0  0  0  0
  5 40  1  0  0  0  0
  6  7  1  0  0  0  0
  6  8  1  0  0  0  0
  6  9  1  0  0  0  0
  6 26  1  0  0  0  0
  7  8  1  0  0  0  0
  7 29  1  0  0  0  0
  7 30  1  0  0  0  0
  8 27  1  0  0  0  0
  8 28  1  0  0  0  0
 10 11  1  0  0  0  0
 10 13  1  0  0  0  0
 10 15  1  0  0  0  0
 10 31  1  0  0  0  0
 11 32  1  0  0  0  0
 11 33  1  0  0  0  0
 12 14  1  0  0  0  0
 12 34  1  0  0  0  0
 12 35  1  0  0  0  0
 13 14  1  0  0  0  0
 13 36  1  0  0  0  0
 13 37  1  0  0  0  0
 14 38  1  0  0  0  0
 14 39  1  0  0  0  0
 16 17  1  0  0  0  0
 16 41  1  0  0  0  0
 16 42  1  0  0  0  0
 17 18  2  0  0  0  0
 17 19  1  0  0  0  0
 18 20  1  0  0  0  0
 18 43  1  0  0  0  0
 19 21  2  0  0  0  0
 19 44  1  0  0  0  0
 20 22  2  0  0  0  0
 20 23  1  0  0  0  0
 21 22  1  0  0  0  0
 21 45  1  0  0  0  0
 22 46  1  0  0  0  0
 23 47  1  0  0  0  0
 23 48  1  0  0  0  0
 24 25  1  0  0  0  0
 24 49  1  0  0  0  0
 24 50  1  0  0  0  0
 25 51  1  0  0  0  0
 25 52  1  0  0  0  0
 25 53  1  0  0  0  0
M  END
> <PUBCHEM_COMPOUND_CID>
51090996

> <PUBCHEM_COMPOUND_CANONICALIZED>
1

> <PUBCHEM_CACTVS_COMPLEXITY>
464

> <PUBCHEM_CACTVS_HBOND_ACCEPTOR>
3

> <PUBCHEM_CACTVS_HBOND_DONOR>
1

> <PUBCHEM_CACTVS_ROTATABLE_BOND>
7

> <PUBCHEM_CACTVS_SUBSKEYS>
AAADceB7MAAAAAAAAAAAAAAAGAAAAAAAAAA8QAAAAAAAAAABAAAAHgAQAAAADQDhmAYyAIPABACIAiFSEACCAAAgAAAIiIEIDIgIJjqA8RmGMAhk1gGIqAeY0WIOAAACAAAAAAAAAAQAAAAAAAAAAAAAAA==

> <PUBCHEM_IUPAC_OPENEYE_NAME>
1-(cyclopropanecarbonyl)-N-[[3-(ethoxymethyl)phenyl]methyl]piperidine-3-carboxamide

> <PUBCHEM_IUPAC_CAS_NAME>
1-[cyclopropyl(oxo)methyl]-N-[[3-(ethoxymethyl)phenyl]methyl]-3-piperidinecarboxamide

> <PUBCHEM_IUPAC_NAME>
1-(cyclopropanecarbonyl)-N-[[3-(ethoxymethyl)phenyl]methyl]piperidine-3-carboxamide

> <PUBCHEM_IUPAC_SYSTEMATIC_NAME>
1-cyclopropylcarbonyl-N-[[3-(ethoxymethyl)phenyl]methyl]piperidine-3-carboxamide

> <PUBCHEM_IUPAC_TRADITIONAL_NAME>
1-(cyclopropanecarbonyl)-N-[3-(ethoxymethyl)benzyl]nipecotamide

> <PUBCHEM_IUPAC_INCHI>
InChI=1S/C20H28N2O3/c1-2-25-14-16-6-3-5-15(11-16)12-21-19(23)18-7-4-10-22(13-18)20(24)17-8-9-17/h3,5-6,11,17-18H,2,4,7-10,12-14H2,1H3,(H,21,23)

> <PUBCHEM_IUPAC_INCHIKEY>
NHKGDSHCQIJFMS-UHFFFAOYSA-N

> <PUBCHEM_XLOGP3_AA>
1.5

> <PUBCHEM_EXACT_MASS>
344.209993

> <PUBCHEM_MOLECULAR_FORMULA>
C20H28N2O3

> <PUBCHEM_MOLECULAR_WEIGHT>
344.44792

> <PUBCHEM_OPENEYE_CAN_SMILES>
CCOCC1=CC=CC(=C1)CNC(=O)C2CCCN(C2)C(=O)C3CC3

> <PUBCHEM_OPENEYE_ISO_SMILES>
CCOCC1=CC=CC(=C1)CNC(=O)C2CCCN(C2)C(=O)C3CC3

> <PUBCHEM_CACTVS_TPSA>
58.6

> <PUBCHEM_MONOISOTOPIC_WEIGHT>
344.209993

> <PUBCHEM_TOTAL_CHARGE>
0

> <PUBCHEM_HEAVY_ATOM_COUNT>
25

> <PUBCHEM_ATOM_DEF_STEREO_COUNT>
0

> <PUBCHEM_ATOM_UDEF_STEREO_COUNT>
1

> <PUBCHEM_BOND_DEF_STEREO_COUNT>
0

> <PUBCHEM_BOND_UDEF_STEREO_COUNT>
0

> <PUBCHEM_ISOTOPIC_ATOM_COUNT>
0

> <PUBCHEM_COMPONENT_COUNT>
1

> <PUBCHEM_CACTVS_TAUTO_COUNT>
2

> <PUBCHEM_COORDINATE_TYPE>
1
5
255

> <PUBCHEM_BONDANNOTATIONS>
10  15  3
17  18  8
17  19  8
18  20  8
19  21  8
20  22  8
21  22  8

$$$$

