47205000
  -OEChem-06241222572D

 31 33  0     0  0  0  0  0  0999 V2000
    5.0930    4.0252    0.0000 Cl  0  0  0  0  0  0  0  0  0  0  0  0
    7.0468    0.1773    0.0000 O   0  0  0  0  0  0  0  0  0  0  0  0
    3.5827   -2.8227    0.0000 N   0  0  0  0  0  0  0  0  0  0  0  0
    5.3147    0.1773    0.0000 N   0  0  0  0  0  0  0  0  0  0  0  0
    6.9898    2.2651    0.0000 N   0  0  0  0  0  0  0  0  0  0  0  0
    3.4782   -3.8172    0.0000 N   0  0  0  0  0  0  0  0  0  0  0  0
    4.4487   -2.3227    0.0000 C   0  0  0  0  0  0  0  0  0  0  0  0
    5.3147   -0.8227    0.0000 C   0  0  0  0  0  0  0  0  0  0  0  0
    4.4487   -1.3227    0.0000 C   0  0  0  0  0  0  0  0  0  0  0  0
    6.1808    1.6773    0.0000 C   0  0  0  0  0  0  0  0  0  0  0  0
    5.3147   -2.8227    0.0000 C   0  0  0  0  0  0  0  0  0  0  0  0
    6.1808   -1.3227    0.0000 C   0  0  0  0  0  0  0  0  0  0  0  0
    6.1808    0.6773    0.0000 C   0  0  0  0  0  0  0  0  0  0  0  0
    6.1808   -2.3227    0.0000 C   0  0  0  0  0  0  0  0  0  0  0  0
    5.3717    2.2651    0.0000 C   0  0  0  0  0  0  0  0  0  0  0  0
    2.6691   -2.4160    0.0000 C   0  0  0  0  0  0  0  0  0  0  0  0
    6.6808    3.2161    0.0000 C   0  0  0  0  0  0  0  0  0  0  0  0
    5.6808    3.2161    0.0000 C   0  0  0  0  0  0  0  0  0  0  0  0
    2.0000   -3.1591    0.0000 C   0  0  0  0  0  0  0  0  0  0  0  0
    2.5000   -4.0252    0.0000 C   0  0  0  0  0  0  0  0  0  0  0  0
    3.9118   -1.0127    0.0000 H   0  0  0  0  0  0  0  0  0  0  0  0
    4.7778    0.4873    0.0000 H   0  0  0  0  0  0  0  0  0  0  0  0
    5.3147   -3.4427    0.0000 H   0  0  0  0  0  0  0  0  0  0  0  0
    6.7177   -1.0127    0.0000 H   0  0  0  0  0  0  0  0  0  0  0  0
    6.7177   -2.6327    0.0000 H   0  0  0  0  0  0  0  0  0  0  0  0
    7.5794    2.0735    0.0000 H   0  0  0  0  0  0  0  0  0  0  0  0
    4.7821    2.0735    0.0000 H   0  0  0  0  0  0  0  0  0  0  0  0
    2.5402   -1.8095    0.0000 H   0  0  0  0  0  0  0  0  0  0  0  0
    7.0452    3.7177    0.0000 H   0  0  0  0  0  0  0  0  0  0  0  0
    1.3834   -3.0943    0.0000 H   0  0  0  0  0  0  0  0  0  0  0  0
    2.2478   -4.5915    0.0000 H   0  0  0  0  0  0  0  0  0  0  0  0
  1 18  1  0  0  0  0
  2 13  2  0  0  0  0
  3  6  1  0  0  0  0
  3  7  1  0  0  0  0
  3 16  1  0  0  0  0
  4  8  1  0  0  0  0
  4 13  1  0  0  0  0
  4 22  1  0  0  0  0
  5 10  1  0  0  0  0
  5 17  1  0  0  0  0
  5 26  1  0  0  0  0
  6 20  2  0  0  0  0
  7  9  1  0  0  0  0
  7 11  2  0  0  0  0
  8  9  2  0  0  0  0
  8 12  1  0  0  0  0
  9 21  1  0  0  0  0
 10 13  1  0  0  0  0
 10 15  2  0  0  0  0
 11 14  1  0  0  0  0
 11 23  1  0  0  0  0
 12 14  2  0  0  0  0
 12 24  1  0  0  0  0
 14 25  1  0  0  0  0
 15 18  1  0  0  0  0
 15 27  1  0  0  0  0
 16 19  2  0  0  0  0
 16 28  1  0  0  0  0
 17 18  2  0  0  0  0
 17 29  1  0  0  0  0
 19 20  1  0  0  0  0
 19 30  1  0  0  0  0
 20 31  1  0  0  0  0
M  END
> <PUBCHEM_COMPOUND_CID>
47205000

> <PUBCHEM_COMPOUND_CANONICALIZED>
1

> <PUBCHEM_CACTVS_COMPLEXITY>
354

> <PUBCHEM_CACTVS_HBOND_ACCEPTOR>
2

> <PUBCHEM_CACTVS_HBOND_DONOR>
2

> <PUBCHEM_CACTVS_ROTATABLE_BOND>
3

> <PUBCHEM_CACTVS_SUBSKEYS>
AAADccBzoAAEAAAAAAAAAAAAAAAAAWLAAAAwAAAAAAAAAAAB8AAAHgIYAAAACArBliQ8wJLJkACqATV3VACShCA3hyAY2aG4ZtgIYPLB1/HUpQhgnADIyYcYAQAAAAAAAAQAAAAAAAAACAAAAAAAAAAAAA==

> <PUBCHEM_IUPAC_OPENEYE_NAME>
4-chloro-N-(3-pyrazol-1-ylphenyl)-1H-pyrrole-2-carboxamide

> <PUBCHEM_IUPAC_CAS_NAME>
4-chloro-N-[3-(1-pyrazolyl)phenyl]-1H-pyrrole-2-carboxamide

> <PUBCHEM_IUPAC_NAME>
4-chloro-N-(3-pyrazol-1-ylphenyl)-1H-pyrrole-2-carboxamide

> <PUBCHEM_IUPAC_SYSTEMATIC_NAME>
4-chloranyl-N-(3-pyrazol-1-ylphenyl)-1H-pyrrole-2-carboxamide

> <PUBCHEM_IUPAC_TRADITIONAL_NAME>
4-chloro-N-(3-pyrazol-1-ylphenyl)-1H-pyrrole-2-carboxamide

> <PUBCHEM_IUPAC_INCHI>
InChI=1S/C14H11ClN4O/c15-10-7-13(16-9-10)14(20)18-11-3-1-4-12(8-11)19-6-2-5-17-19/h1-9,16H,(H,18,20)

> <PUBCHEM_IUPAC_INCHIKEY>
QMYATWXUPRNQPP-UHFFFAOYSA-N

> <PUBCHEM_XLOGP3_AA>
2.5

> <PUBCHEM_EXACT_MASS>
286.062139

> <PUBCHEM_MOLECULAR_FORMULA>
C14H11ClN4O

> <PUBCHEM_MOLECULAR_WEIGHT>
286.71634

> <PUBCHEM_OPENEYE_CAN_SMILES>
C1=CC(=CC(=C1)NC(=O)C2=CC(=CN2)Cl)N3C=CC=N3

> <PUBCHEM_OPENEYE_ISO_SMILES>
C1=CC(=CC(=C1)NC(=O)C2=CC(=CN2)Cl)N3C=CC=N3

> <PUBCHEM_CACTVS_TPSA>
62.7

> <PUBCHEM_MONOISOTOPIC_WEIGHT>
286.062139

> <PUBCHEM_TOTAL_CHARGE>
0

> <PUBCHEM_HEAVY_ATOM_COUNT>
20

> <PUBCHEM_ATOM_DEF_STEREO_COUNT>
0

> <PUBCHEM_ATOM_UDEF_STEREO_COUNT>
0

> <PUBCHEM_BOND_DEF_STEREO_COUNT>
0

> <PUBCHEM_BOND_UDEF_STEREO_COUNT>
0

> <PUBCHEM_ISOTOPIC_ATOM_COUNT>
0

> <PUBCHEM_COMPONENT_COUNT>
1

> <PUBCHEM_CACTVS_TAUTO_COUNT>
7

> <PUBCHEM_COORDINATE_TYPE>
1
5
255

> <PUBCHEM_BONDANNOTATIONS>
10  15  8
11  14  8
12  14  8
15  18  8
16  19  8
17  18  8
19  20  8
3  16  8
3  6  8
5  10  8
5  17  8
6  20  8
7  11  8
7  9  8
8  12  8
8  9  8

$$$$

