6803
  -OEChem-06261201312D

 33 35  0     1  0  0  0  0  0999 V2000
    4.2690   -3.6734    0.0000 S   0  0  0  0  0  0  0  0  0  0  0  0
    5.8055    0.8919    0.0000 O   0  0  0  0  0  0  0  0  0  0  0  0
    8.1515   -0.2000    0.0000 O   0  0  0  0  0  0  0  0  0  0  0  0
    8.1552    1.9756    0.0000 O   0  0  0  0  0  0  0  0  0  0  0  0
    6.7577    3.3934    0.0000 O   0  0  0  0  0  0  0  0  0  0  0  0
    6.0812   -0.8687    0.0000 N   0  0  0  0  0  0  0  0  0  0  0  0
    6.0812   -2.4782    0.0000 N   0  0  0  0  0  0  0  0  0  0  0  0
    4.2690   -0.6734    0.0000 N   0  0  0  0  0  0  0  0  0  0  0  0
    3.4030   -2.1734    0.0000 N   0  0  0  0  0  0  0  0  0  0  0  0
    2.5369   -0.6734    0.0000 N   0  0  0  0  0  0  0  0  0  0  0  0
    7.3435    0.3892    0.0000 C   0  0  1  0  0  0  0  0  0  0  0  0
    6.3919    0.0818    0.0000 C   0  0  1  0  0  0  0  0  0  0  0  0
    7.3452    1.3892    0.0000 C   0  0  1  0  0  0  0  0  0  0  0  0
    6.3947    1.6999    0.0000 C   0  0  1  0  0  0  0  0  0  0  0  0
    6.0873    2.6515    0.0000 C   0  0  0  0  0  0  0  0  0  0  0  0
    5.1350   -1.1734    0.0000 C   0  0  0  0  0  0  0  0  0  0  0  0
    6.6648   -1.6734    0.0000 C   0  0  0  0  0  0  0  0  0  0  0  0
    5.1350   -2.1734    0.0000 C   0  0  0  0  0  0  0  0  0  0  0  0
    4.2690   -2.6734    0.0000 C   0  0  0  0  0  0  0  0  0  0  0  0
    3.4030   -1.1734    0.0000 C   0  0  0  0  0  0  0  0  0  0  0  0
    7.2454   -0.2230    0.0000 H   0  0  0  0  0  0  0  0  0  0  0  0
    5.7794   -0.0141    0.0000 H   0  0  0  0  0  0  0  0  0  0  0  0
    7.2493    2.0017    0.0000 H   0  0  0  0  0  0  0  0  0  0  0  0
    5.7825    1.7979    0.0000 H   0  0  0  0  0  0  0  0  0  0  0  0
    5.7065    3.1407    0.0000 H   0  0  0  0  0  0  0  0  0  0  0  0
    5.5394    2.3613    0.0000 H   0  0  0  0  0  0  0  0  0  0  0  0
    8.7183    0.0512    0.0000 H   0  0  0  0  0  0  0  0  0  0  0  0
    8.7212    1.7224    0.0000 H   0  0  0  0  0  0  0  0  0  0  0  0
    7.2848   -1.6734    0.0000 H   0  0  0  0  0  0  0  0  0  0  0  0
    6.5672    3.9834    0.0000 H   0  0  0  0  0  0  0  0  0  0  0  0
    3.7321   -3.9834    0.0000 H   0  0  0  0  0  0  0  0  0  0  0  0
    2.0000   -0.9834    0.0000 H   0  0  0  0  0  0  0  0  0  0  0  0
    2.5369   -0.0534    0.0000 H   0  0  0  0  0  0  0  0  0  0  0  0
  1 19  1  0  0  0  0
  1 31  1  0  0  0  0
  2 12  1  0  0  0  0
  2 14  1  0  0  0  0
  3 11  1  0  0  0  0
  3 27  1  0  0  0  0
  4 13  1  0  0  0  0
  4 28  1  0  0  0  0
  5 15  1  0  0  0  0
  5 30  1  0  0  0  0
  6 12  1  0  0  0  0
  6 16  1  0  0  0  0
  6 17  1  0  0  0  0
  7 17  2  0  0  0  0
  7 18  1  0  0  0  0
  8 16  1  0  0  0  0
  8 20  2  0  0  0  0
  9 19  2  0  0  0  0
  9 20  1  0  0  0  0
 10 20  1  0  0  0  0
 10 32  1  0  0  0  0
 10 33  1  0  0  0  0
 11 12  1  0  0  0  0
 11 13  1  0  0  0  0
 11 21  1  0  0  0  0
 12 22  1  0  0  0  0
 13 14  1  0  0  0  0
 13 23  1  0  0  0  0
 14 15  1  0  0  0  0
 14 24  1  0  0  0  0
 15 25  1  0  0  0  0
 15 26  1  0  0  0  0
 16 18  2  0  0  0  0
 17 29  1  0  0  0  0
 18 19  1  0  0  0  0
M  END
> <PUBCHEM_COMPOUND_CID>
6803

> <PUBCHEM_COMPOUND_CANONICALIZED>
1

> <PUBCHEM_CACTVS_COMPLEXITY>
367

> <PUBCHEM_CACTVS_HBOND_ACCEPTOR>
9

> <PUBCHEM_CACTVS_HBOND_DONOR>
5

> <PUBCHEM_CACTVS_ROTATABLE_BOND>
2

> <PUBCHEM_CACTVS_SUBSKEYS>
AAADccBzuABAAAAAAAAAAAAAAAAAAWJAAAAsAAAAAAAAAFgB+AAAHgQQCAAACBzh1wYF8b9MFgSgAQZhZAGA0C0REKABUDQoVBCDWAJAyEAeRAwPAALTACDwMAIAAAAAAAAAAAAAAAAAAAAAAAAAAAAAAA==

> <PUBCHEM_IUPAC_OPENEYE_NAME>
(2R,3R,4S,5R)-2-(2-amino-6-sulfanyl-purin-9-yl)-5-(hydroxymethyl)tetrahydrofuran-3,4-diol

> <PUBCHEM_IUPAC_CAS_NAME>
(2R,3R,4S,5R)-2-(2-amino-6-mercapto-9-purinyl)-5-(hydroxymethyl)oxolane-3,4-diol

> <PUBCHEM_IUPAC_NAME>
(2R,3R,4S,5R)-2-(2-amino-6-sulfanylpurin-9-yl)-5-(hydroxymethyl)oxolane-3,4-diol

> <PUBCHEM_IUPAC_SYSTEMATIC_NAME>
(2R,3R,4S,5R)-2-(2-azanyl-6-sulfanyl-purin-9-yl)-5-(hydroxymethyl)oxolane-3,4-diol

> <PUBCHEM_IUPAC_TRADITIONAL_NAME>
(2R,3R,4S,5R)-2-(2-amino-6-mercapto-purin-9-yl)-5-methylol-tetrahydrofuran-3,4-diol

> <PUBCHEM_IUPAC_INCHI>
InChI=1S/C10H13N5O4S/c11-10-13-7-4(8(20)14-10)12-2-15(7)9-6(18)5(17)3(1-16)19-9/h2-3,5-6,9,16-18H,1H2,(H3,11,13,14,20)/t3-,5-,6-,9-/m1/s1

> <PUBCHEM_IUPAC_INCHIKEY>
OTDJAMXESTUWLO-UUOKFMHZSA-N

> <PUBCHEM_XLOGP3>
-0.6

> <PUBCHEM_EXACT_MASS>
299.068825

> <PUBCHEM_MOLECULAR_FORMULA>
C10H13N5O4S

> <PUBCHEM_MOLECULAR_WEIGHT>
299.30632

> <PUBCHEM_OPENEYE_CAN_SMILES>
C1=NC2=C(N1C3C(C(C(O3)CO)O)O)N=C(N=C2S)N

> <PUBCHEM_OPENEYE_ISO_SMILES>
C1=NC2=C(N1[C@H]3[C@@H]([C@@H]([C@H](O3)CO)O)O)N=C(N=C2S)N

> <PUBCHEM_CACTVS_TPSA>
141

> <PUBCHEM_MONOISOTOPIC_WEIGHT>
299.068825

> <PUBCHEM_TOTAL_CHARGE>
0

> <PUBCHEM_HEAVY_ATOM_COUNT>
20

> <PUBCHEM_ATOM_DEF_STEREO_COUNT>
4

> <PUBCHEM_ATOM_UDEF_STEREO_COUNT>
0

> <PUBCHEM_BOND_DEF_STEREO_COUNT>
0

> <PUBCHEM_BOND_UDEF_STEREO_COUNT>
0

> <PUBCHEM_ISOTOPIC_ATOM_COUNT>
0

> <PUBCHEM_COMPONENT_COUNT>
1

> <PUBCHEM_CACTVS_TAUTO_COUNT>
6

> <PUBCHEM_COORDINATE_TYPE>
1
5
255

> <PUBCHEM_BONDANNOTATIONS>
14  15  3
16  18  8
18  19  8
11  3  3
13  4  3
12  6  3
6  16  8
6  17  8
7  17  8
7  18  8
8  16  8
8  20  8
9  19  8
9  20  8

$$$$

