583218
  -OEChem-06241222442D

 41 42  0     1  0  0  0  0  0999 V2000
    4.5981   -2.3170    0.0000 Cl  0  0  0  0  0  0  0  0  0  0  0  0
    4.4641    3.1830    0.0000 F   0  0  0  0  0  0  0  0  0  0  0  0
    5.4641    5.1830    0.0000 F   0  0  0  0  0  0  0  0  0  0  0  0
    6.4641    4.1830    0.0000 F   0  0  0  0  0  0  0  0  0  0  0  0
    4.4641    4.1830    0.0000 F   0  0  0  0  0  0  0  0  0  0  0  0
    8.9282   -4.8170    0.0000 F   0  0  0  0  0  0  0  0  0  0  0  0
    7.5622   -5.1830    0.0000 F   0  0  0  0  0  0  0  0  0  0  0  0
    8.5622   -3.4510    0.0000 F   0  0  0  0  0  0  0  0  0  0  0  0
    6.3301   -1.3170    0.0000 O   0  0  0  0  0  0  0  0  0  0  0  0
    4.5981    1.6830    0.0000 O   0  0  0  0  0  0  0  0  0  0  0  0
    6.4641    3.1830    0.0000 O   0  0  0  0  0  0  0  0  0  0  0  0
    6.3301    1.6830    0.0000 O   0  0  0  0  0  0  0  0  0  0  0  0
    2.0000    0.1830    0.0000 O   0  5  0  0  0  0  0  0  0  0  0  0
    2.8660    1.6830    0.0000 O   0  0  0  0  0  0  0  0  0  0  0  0
    2.8660    0.6830    0.0000 N   0  3  0  0  0  0  0  0  0  0  0  0
    5.4641    3.1830    0.0000 C   0  0  3  0  0  0  0  0  0  0  0  0
    4.5981    0.6830    0.0000 C   0  0  0  0  0  0  0  0  0  0  0  0
    5.4641   -0.8170    0.0000 C   0  0  0  0  0  0  0  0  0  0  0  0
    5.4641    0.1830    0.0000 C   0  0  0  0  0  0  0  0  0  0  0  0
    3.7320    0.1830    0.0000 C   0  0  0  0  0  0  0  0  0  0  0  0
    6.3301   -2.3170    0.0000 C   0  0  0  0  0  0  0  0  0  0  0  0
    5.4641    2.1830    0.0000 C   0  0  0  0  0  0  0  0  0  0  0  0
    4.5981   -1.3170    0.0000 C   0  0  0  0  0  0  0  0  0  0  0  0
    7.1962   -3.8170    0.0000 C   0  0  0  0  0  0  0  0  0  0  0  0
    3.7320   -0.8170    0.0000 C   0  0  0  0  0  0  0  0  0  0  0  0
    7.1962   -2.8170    0.0000 C   0  0  0  0  0  0  0  0  0  0  0  0
    5.4641    4.1830    0.0000 C   0  0  0  0  0  0  0  0  0  0  0  0
    5.4641   -2.8170    0.0000 C   0  0  0  0  0  0  0  0  0  0  0  0
    6.3301   -4.3170    0.0000 C   0  0  0  0  0  0  0  0  0  0  0  0
    5.4641   -3.8170    0.0000 C   0  0  0  0  0  0  0  0  0  0  0  0
    8.0622   -4.3170    0.0000 C   0  0  0  0  0  0  0  0  0  0  0  0
    6.9641    2.3170    0.0000 C   0  0  0  0  0  0  0  0  0  0  0  0
    6.0010    0.4930    0.0000 H   0  0  0  0  0  0  0  0  0  0  0  0
    4.5981   -1.9370    0.0000 H   0  0  0  0  0  0  0  0  0  0  0  0
    3.1951   -1.1270    0.0000 H   0  0  0  0  0  0  0  0  0  0  0  0
    7.7331   -2.5070    0.0000 H   0  0  0  0  0  0  0  0  0  0  0  0
    6.3301   -4.9370    0.0000 H   0  0  0  0  0  0  0  0  0  0  0  0
    4.9272   -4.1270    0.0000 H   0  0  0  0  0  0  0  0  0  0  0  0
    6.4272    2.0070    0.0000 H   0  0  0  0  0  0  0  0  0  0  0  0
    7.2741    1.7800    0.0000 H   0  0  0  0  0  0  0  0  0  0  0  0
    7.5010    2.6270    0.0000 H   0  0  0  0  0  0  0  0  0  0  0  0
  1 28  1  0  0  0  0
  2 16  1  0  0  0  0
  3 27  1  0  0  0  0
  4 27  1  0  0  0  0
  5 27  1  0  0  0  0
  6 31  1  0  0  0  0
  7 31  1  0  0  0  0
  8 31  1  0  0  0  0
  9 18  1  0  0  0  0
  9 21  1  0  0  0  0
 10 17  1  0  0  0  0
 10 22  1  0  0  0  0
 11 16  1  0  0  0  0
 11 32  1  0  0  0  0
 12 22  2  0  0  0  0
 13 15  1  0  0  0  0
 14 15  2  0  0  0  0
 15 20  1  0  0  0  0
 16 22  1  0  0  0  0
 16 27  1  0  0  0  0
 17 19  1  0  0  0  0
 17 20  2  0  0  0  0
 18 19  2  0  0  0  0
 18 23  1  0  0  0  0
 19 33  1  0  0  0  0
 20 25  1  0  0  0  0
 21 26  1  0  0  0  0
 21 28  2  0  0  0  0
 23 25  2  0  0  0  0
 23 34  1  0  0  0  0
 24 26  2  0  0  0  0
 24 29  1  0  0  0  0
 24 31  1  0  0  0  0
 25 35  1  0  0  0  0
 26 36  1  0  0  0  0
 28 30  1  0  0  0  0
 29 30  2  0  0  0  0
 29 37  1  0  0  0  0
 30 38  1  0  0  0  0
 32 39  1  0  0  0  0
 32 40  1  0  0  0  0
 32 41  1  0  0  0  0
M  CHG  2  13  -1  15   1
M  END
> <PUBCHEM_COMPOUND_CID>
583218

> <PUBCHEM_COMPOUND_CANONICALIZED>
1

> <PUBCHEM_CACTVS_COMPLEXITY>
688

> <PUBCHEM_CACTVS_HBOND_ACCEPTOR>
13

> <PUBCHEM_CACTVS_HBOND_DONOR>
0

> <PUBCHEM_CACTVS_ROTATABLE_BOND>
6

> <PUBCHEM_CACTVS_SUBSKEYS>
AAADccB6OcAEAAAAAAAAAAAAAAAAAAAAAAAwYAAAAAAAAAABQAAAHwIEAAAADA6BmDIyzoAQRACJAiTSSwKCCAAgJ0AoiAFHb4oPJyOFs5+DOiDlwFUK6Aew4BwOBEABCAAAGAAIgAIQAAAwAAAAAAAAAA==

> <PUBCHEM_IUPAC_OPENEYE_NAME>
[5-[2-chloro-5-(trifluoromethyl)phenoxy]-2-nitro-phenyl] 2,3,3,3-tetrafluoro-2-methoxy-propanoate

> <PUBCHEM_IUPAC_CAS_NAME>
2,3,3,3-tetrafluoro-2-methoxypropanoic acid [5-[2-chloro-5-(trifluoromethyl)phenoxy]-2-nitrophenyl] ester

> <PUBCHEM_IUPAC_NAME>
[5-[2-chloro-5-(trifluoromethyl)phenoxy]-2-nitrophenyl] 2,3,3,3-tetrafluoro-2-methoxypropanoate

> <PUBCHEM_IUPAC_SYSTEMATIC_NAME>
[5-[2-chloranyl-5-(trifluoromethyl)phenoxy]-2-nitro-phenyl] 2,3,3,3-tetrakis(fluoranyl)-2-methoxy-propanoate

> <PUBCHEM_IUPAC_TRADITIONAL_NAME>
2,3,3,3-tetrafluoro-2-methoxy-propionic acid [5-[2-chloro-5-(trifluoromethyl)phenoxy]-2-nitro-phenyl] ester

> <PUBCHEM_IUPAC_INCHI>
InChI=1S/C17H9ClF7NO6/c1-30-15(19,17(23,24)25)14(27)32-13-7-9(3-5-11(13)26(28)29)31-12-6-8(16(20,21)22)2-4-10(12)18/h2-7H,1H3

> <PUBCHEM_IUPAC_INCHIKEY>
HILVYSGUJGTKOF-UHFFFAOYSA-N

> <PUBCHEM_XLOGP3_AA>
5.8

> <PUBCHEM_EXACT_MASS>
491.000662

> <PUBCHEM_MOLECULAR_FORMULA>
C17H9ClF7NO6

> <PUBCHEM_MOLECULAR_WEIGHT>
491.698282

> <PUBCHEM_OPENEYE_CAN_SMILES>
COC(C(=O)OC1=C(C=CC(=C1)OC2=C(C=CC(=C2)C(F)(F)F)Cl)[N+](=O)[O-])(C(F)(F)F)F

> <PUBCHEM_OPENEYE_ISO_SMILES>
COC(C(=O)OC1=C(C=CC(=C1)OC2=C(C=CC(=C2)C(F)(F)F)Cl)[N+](=O)[O-])(C(F)(F)F)F

> <PUBCHEM_CACTVS_TPSA>
90.6

> <PUBCHEM_MONOISOTOPIC_WEIGHT>
491.000662

> <PUBCHEM_TOTAL_CHARGE>
0

> <PUBCHEM_HEAVY_ATOM_COUNT>
32

> <PUBCHEM_ATOM_DEF_STEREO_COUNT>
0

> <PUBCHEM_ATOM_UDEF_STEREO_COUNT>
1

> <PUBCHEM_BOND_DEF_STEREO_COUNT>
0

> <PUBCHEM_BOND_UDEF_STEREO_COUNT>
0

> <PUBCHEM_ISOTOPIC_ATOM_COUNT>
0

> <PUBCHEM_COMPONENT_COUNT>
1

> <PUBCHEM_CACTVS_TAUTO_COUNT>
1

> <PUBCHEM_COORDINATE_TYPE>
1
5
255

> <PUBCHEM_BONDANNOTATIONS>
17  19  8
17  20  8
18  19  8
18  23  8
16  2  3
20  25  8
21  26  8
21  28  8
23  25  8
24  26  8
24  29  8
28  30  8
29  30  8

$$$$

