7569
  -OEChem-06261202102D

 72 73  0     0  0  0  0  0  0999 V2000
    5.4641    0.7500    0.0000 N   0  0  0  0  0  0  0  0  0  0  0  0
    9.7942    5.2500    0.0000 C   0  0  0  0  0  0  0  0  0  0  0  0
    3.7320   -5.2500    0.0000 C   0  0  0  0  0  0  0  0  0  0  0  0
    9.7942    4.2500    0.0000 C   0  0  0  0  0  0  0  0  0  0  0  0
    4.5981   -4.7500    0.0000 C   0  0  0  0  0  0  0  0  0  0  0  0
   10.6603    5.7500    0.0000 C   0  0  0  0  0  0  0  0  0  0  0  0
    3.7320   -6.2500    0.0000 C   0  0  0  0  0  0  0  0  0  0  0  0
    8.9282    3.7500    0.0000 C   0  0  0  0  0  0  0  0  0  0  0  0
    4.5981   -3.7500    0.0000 C   0  0  0  0  0  0  0  0  0  0  0  0
    2.8660   -6.7500    0.0000 C   0  0  0  0  0  0  0  0  0  0  0  0
   10.6603    6.7500    0.0000 C   0  0  0  0  0  0  0  0  0  0  0  0
    8.9282    2.7500    0.0000 C   0  0  0  0  0  0  0  0  0  0  0  0
    5.4641   -3.2500    0.0000 C   0  0  0  0  0  0  0  0  0  0  0  0
    2.8660   -7.7500    0.0000 C   0  0  0  0  0  0  0  0  0  0  0  0
   11.5263    7.2500    0.0000 C   0  0  0  0  0  0  0  0  0  0  0  0
    5.4641   -2.2500    0.0000 C   0  0  0  0  0  0  0  0  0  0  0  0
    8.0622    2.2500    0.0000 C   0  0  0  0  0  0  0  0  0  0  0  0
    8.0622    1.2500    0.0000 C   0  0  0  0  0  0  0  0  0  0  0  0
    4.5981   -1.7500    0.0000 C   0  0  0  0  0  0  0  0  0  0  0  0
    7.1962    2.7500    0.0000 C   0  0  0  0  0  0  0  0  0  0  0  0
    6.3301   -1.7500    0.0000 C   0  0  0  0  0  0  0  0  0  0  0  0
   11.5263    8.2500    0.0000 C   0  0  0  0  0  0  0  0  0  0  0  0
    2.0000   -8.2500    0.0000 C   0  0  0  0  0  0  0  0  0  0  0  0
    5.4641   -0.2500    0.0000 C   0  0  0  0  0  0  0  0  0  0  0  0
    6.3301    1.2500    0.0000 C   0  0  0  0  0  0  0  0  0  0  0  0
    7.1962    0.7500    0.0000 C   0  0  0  0  0  0  0  0  0  0  0  0
    4.5981   -0.7500    0.0000 C   0  0  0  0  0  0  0  0  0  0  0  0
    6.3301    2.2500    0.0000 C   0  0  0  0  0  0  0  0  0  0  0  0
    6.3301   -0.7500    0.0000 C   0  0  0  0  0  0  0  0  0  0  0  0
    9.5822    5.8326    0.0000 H   0  0  0  0  0  0  0  0  0  0  0  0
    9.1836    5.1423    0.0000 H   0  0  0  0  0  0  0  0  0  0  0  0
    3.5200   -4.6674    0.0000 H   0  0  0  0  0  0  0  0  0  0  0  0
    3.1215   -5.3577    0.0000 H   0  0  0  0  0  0  0  0  0  0  0  0
    4.8101   -5.3326    0.0000 H   0  0  0  0  0  0  0  0  0  0  0  0
    5.2087   -4.6423    0.0000 H   0  0  0  0  0  0  0  0  0  0  0  0
   10.0063    3.6674    0.0000 H   0  0  0  0  0  0  0  0  0  0  0  0
   10.4048    4.3577    0.0000 H   0  0  0  0  0  0  0  0  0  0  0  0
   10.8723    5.1674    0.0000 H   0  0  0  0  0  0  0  0  0  0  0  0
    3.9441   -6.8326    0.0000 H   0  0  0  0  0  0  0  0  0  0  0  0
    4.3426   -6.1423    0.0000 H   0  0  0  0  0  0  0  0  0  0  0  0
   11.2708    5.8577    0.0000 H   0  0  0  0  0  0  0  0  0  0  0  0
    4.3860   -3.1674    0.0000 H   0  0  0  0  0  0  0  0  0  0  0  0
    3.9875   -3.8577    0.0000 H   0  0  0  0  0  0  0  0  0  0  0  0
    8.7162    4.3326    0.0000 H   0  0  0  0  0  0  0  0  0  0  0  0
    8.3176    3.6423    0.0000 H   0  0  0  0  0  0  0  0  0  0  0  0
   10.4482    7.3326    0.0000 H   0  0  0  0  0  0  0  0  0  0  0  0
    2.6540   -6.1674    0.0000 H   0  0  0  0  0  0  0  0  0  0  0  0
    2.2554   -6.8577    0.0000 H   0  0  0  0  0  0  0  0  0  0  0  0
   10.0497    6.6423    0.0000 H   0  0  0  0  0  0  0  0  0  0  0  0
    5.6762   -3.8326    0.0000 H   0  0  0  0  0  0  0  0  0  0  0  0
    6.0747   -3.1423    0.0000 H   0  0  0  0  0  0  0  0  0  0  0  0
    9.1403    2.1674    0.0000 H   0  0  0  0  0  0  0  0  0  0  0  0
    9.5388    2.8577    0.0000 H   0  0  0  0  0  0  0  0  0  0  0  0
   11.7383    6.6674    0.0000 H   0  0  0  0  0  0  0  0  0  0  0  0
   12.1369    7.3577    0.0000 H   0  0  0  0  0  0  0  0  0  0  0  0
    3.0781   -8.3326    0.0000 H   0  0  0  0  0  0  0  0  0  0  0  0
    3.4766   -7.6423    0.0000 H   0  0  0  0  0  0  0  0  0  0  0  0
    8.5991    0.9400    0.0000 H   0  0  0  0  0  0  0  0  0  0  0  0
    4.0611   -2.0600    0.0000 H   0  0  0  0  0  0  0  0  0  0  0  0
    7.1962    3.3700    0.0000 H   0  0  0  0  0  0  0  0  0  0  0  0
    6.8671   -2.0600    0.0000 H   0  0  0  0  0  0  0  0  0  0  0  0
    1.6900   -7.7131    0.0000 H   0  0  0  0  0  0  0  0  0  0  0  0
   12.1463    8.2500    0.0000 H   0  0  0  0  0  0  0  0  0  0  0  0
   11.5263    8.8700    0.0000 H   0  0  0  0  0  0  0  0  0  0  0  0
   10.9063    8.2500    0.0000 H   0  0  0  0  0  0  0  0  0  0  0  0
    1.4631   -8.5600    0.0000 H   0  0  0  0  0  0  0  0  0  0  0  0
    2.3100   -8.7869    0.0000 H   0  0  0  0  0  0  0  0  0  0  0  0
    7.1962    0.1300    0.0000 H   0  0  0  0  0  0  0  0  0  0  0  0
    4.0611   -0.4400    0.0000 H   0  0  0  0  0  0  0  0  0  0  0  0
    5.7932    2.5600    0.0000 H   0  0  0  0  0  0  0  0  0  0  0  0
    6.8671   -0.4400    0.0000 H   0  0  0  0  0  0  0  0  0  0  0  0
    4.9272    1.0600    0.0000 H   0  0  0  0  0  0  0  0  0  0  0  0
  1 24  1  0  0  0  0
  1 25  1  0  0  0  0
  1 72  1  0  0  0  0
  2  4  1  0  0  0  0
  2  6  1  0  0  0  0
  2 30  1  0  0  0  0
  2 31  1  0  0  0  0
  3  5  1  0  0  0  0
  3  7  1  0  0  0  0
  3 32  1  0  0  0  0
  3 33  1  0  0  0  0
  4  8  1  0  0  0  0
  4 36  1  0  0  0  0
  4 37  1  0  0  0  0
  5  9  1  0  0  0  0
  5 34  1  0  0  0  0
  5 35  1  0  0  0  0
  6 11  1  0  0  0  0
  6 38  1  0  0  0  0
  6 41  1  0  0  0  0
  7 10  1  0  0  0  0
  7 39  1  0  0  0  0
  7 40  1  0  0  0  0
  8 12  1  0  0  0  0
  8 44  1  0  0  0  0
  8 45  1  0  0  0  0
  9 13  1  0  0  0  0
  9 42  1  0  0  0  0
  9 43  1  0  0  0  0
 10 14  1  0  0  0  0
 10 47  1  0  0  0  0
 10 48  1  0  0  0  0
 11 15  1  0  0  0  0
 11 46  1  0  0  0  0
 11 49  1  0  0  0  0
 12 17  1  0  0  0  0
 12 52  1  0  0  0  0
 12 53  1  0  0  0  0
 13 16  1  0  0  0  0
 13 50  1  0  0  0  0
 13 51  1  0  0  0  0
 14 23  1  0  0  0  0
 14 56  1  0  0  0  0
 14 57  1  0  0  0  0
 15 22  1  0  0  0  0
 15 54  1  0  0  0  0
 15 55  1  0  0  0  0
 16 19  2  0  0  0  0
 16 21  1  0  0  0  0
 17 18  2  0  0  0  0
 17 20  1  0  0  0  0
 18 26  1  0  0  0  0
 18 58  1  0  0  0  0
 19 27  1  0  0  0  0
 19 59  1  0  0  0  0
 20 28  2  0  0  0  0
 20 60  1  0  0  0  0
 21 29  2  0  0  0  0
 21 61  1  0  0  0  0
 22 63  1  0  0  0  0
 22 64  1  0  0  0  0
 22 65  1  0  0  0  0
 23 62  1  0  0  0  0
 23 66  1  0  0  0  0
 23 67  1  0  0  0  0
 24 27  2  0  0  0  0
 24 29  1  0  0  0  0
 25 26  2  0  0  0  0
 25 28  1  0  0  0  0
 26 68  1  0  0  0  0
 27 69  1  0  0  0  0
 28 70  1  0  0  0  0
 29 71  1  0  0  0  0
M  END
> <PUBCHEM_COMPOUND_CID>
7569

> <PUBCHEM_COMPOUND_CANONICALIZED>
1

> <PUBCHEM_CACTVS_COMPLEXITY>
315

> <PUBCHEM_CACTVS_HBOND_ACCEPTOR>
1

> <PUBCHEM_CACTVS_HBOND_DONOR>
1

> <PUBCHEM_CACTVS_ROTATABLE_BOND>
16

> <PUBCHEM_CACTVS_SUBSKEYS>
AAADcfB6AAAAAAAAAAAAAAAAAAAAAAAAAAAwYAAAAAAAAAABQAAAHAAQAAAADAiBGAAywILAAACAAiRCQACCAAAhAgAIiAAAZIgIIGLAkZGEIAhgkADIyAcQgMAOCAAAAAAAAAAQAAAAAAAAAAAAAAAAAA==

> <PUBCHEM_IUPAC_OPENEYE_NAME>
4-octyl-N-(4-octylphenyl)aniline

> <PUBCHEM_IUPAC_CAS_NAME>
4-octyl-N-(4-octylphenyl)aniline

> <PUBCHEM_IUPAC_NAME>
4-octyl-N-(4-octylphenyl)aniline

> <PUBCHEM_IUPAC_SYSTEMATIC_NAME>
4-octyl-N-(4-octylphenyl)aniline

> <PUBCHEM_IUPAC_TRADITIONAL_NAME>
bis(4-octylphenyl)amine

> <PUBCHEM_IUPAC_INCHI>
InChI=1S/C28H43N/c1-3-5-7-9-11-13-15-25-17-21-27(22-18-25)29-28-23-19-26(20-24-28)16-14-12-10-8-6-4-2/h17-24,29H,3-16H2,1-2H3

> <PUBCHEM_IUPAC_INCHIKEY>
QAPVYZRWKDXNDK-UHFFFAOYSA-N

> <PUBCHEM_XLOGP3_AA>
11.6

> <PUBCHEM_EXACT_MASS>
393.33955

> <PUBCHEM_MOLECULAR_FORMULA>
C28H43N

> <PUBCHEM_MOLECULAR_WEIGHT>
393.64772

> <PUBCHEM_OPENEYE_CAN_SMILES>
CCCCCCCCC1=CC=C(C=C1)NC2=CC=C(C=C2)CCCCCCCC

> <PUBCHEM_OPENEYE_ISO_SMILES>
CCCCCCCCC1=CC=C(C=C1)NC2=CC=C(C=C2)CCCCCCCC

> <PUBCHEM_CACTVS_TPSA>
12

> <PUBCHEM_MONOISOTOPIC_WEIGHT>
393.33955

> <PUBCHEM_TOTAL_CHARGE>
0

> <PUBCHEM_HEAVY_ATOM_COUNT>
29

> <PUBCHEM_ATOM_DEF_STEREO_COUNT>
0

> <PUBCHEM_ATOM_UDEF_STEREO_COUNT>
0

> <PUBCHEM_BOND_DEF_STEREO_COUNT>
0

> <PUBCHEM_BOND_UDEF_STEREO_COUNT>
0

> <PUBCHEM_ISOTOPIC_ATOM_COUNT>
0

> <PUBCHEM_COMPONENT_COUNT>
1

> <PUBCHEM_CACTVS_TAUTO_COUNT>
1

> <PUBCHEM_COORDINATE_TYPE>
1
5
255

> <PUBCHEM_BONDANNOTATIONS>
16  19  8
16  21  8
17  18  8
17  20  8
18  26  8
19  27  8
20  28  8
21  29  8
24  27  8
24  29  8
25  26  8
25  28  8

$$$$

