17395944
  -OEChem-06241222532D

 41 44  0     0  0  0  0  0  0999 V2000
    5.3717    2.6696    0.0000 S   0  0  0  0  0  0  0  0  0  0  0  0
    7.0468    0.5818    0.0000 O   0  0  0  0  0  0  0  0  0  0  0  0
    5.3147    0.5818    0.0000 N   0  0  0  0  0  0  0  0  0  0  0  0
    3.5827   -2.4182    0.0000 N   0  0  0  0  0  0  0  0  0  0  0  0
    3.4782   -3.4127    0.0000 N   0  0  0  0  0  0  0  0  0  0  0  0
    2.0000   -2.7546    0.0000 N   0  0  0  0  0  0  0  0  0  0  0  0
    2.5000   -3.6206    0.0000 N   0  0  0  0  0  0  0  0  0  0  0  0
    6.9898    2.6696    0.0000 C   0  0  0  0  0  0  0  0  0  0  0  0
    7.9408    2.3606    0.0000 C   0  0  0  0  0  0  0  0  0  0  0  0
    6.1808    2.0818    0.0000 C   0  0  0  0  0  0  0  0  0  0  0  0
    5.3147   -0.4182    0.0000 C   0  0  0  0  0  0  0  0  0  0  0  0
    8.1487    1.3824    0.0000 C   0  0  0  0  0  0  0  0  0  0  0  0
    8.6840    3.0297    0.0000 C   0  0  0  0  0  0  0  0  0  0  0  0
    6.6808    3.6206    0.0000 C   0  0  0  0  0  0  0  0  0  0  0  0
    6.1808    1.0818    0.0000 C   0  0  0  0  0  0  0  0  0  0  0  0
    9.8429    1.7425    0.0000 C   0  0  0  0  0  0  0  0  0  0  0  0
    4.4487   -1.9182    0.0000 C   0  0  0  0  0  0  0  0  0  0  0  0
    9.0998    1.0734    0.0000 C   0  0  0  0  0  0  0  0  0  0  0  0
    9.6350    2.7207    0.0000 C   0  0  0  0  0  0  0  0  0  0  0  0
    4.4487   -0.9182    0.0000 C   0  0  0  0  0  0  0  0  0  0  0  0
    5.6808    3.6206    0.0000 C   0  0  0  0  0  0  0  0  0  0  0  0
    6.1808   -0.9182    0.0000 C   0  0  0  0  0  0  0  0  0  0  0  0
    5.3147   -2.4182    0.0000 C   0  0  0  0  0  0  0  0  0  0  0  0
    6.1808   -1.9182    0.0000 C   0  0  0  0  0  0  0  0  0  0  0  0
   10.7940    1.4335    0.0000 C   0  0  0  0  0  0  0  0  0  0  0  0
    2.6691   -2.0115    0.0000 C   0  0  0  0  0  0  0  0  0  0  0  0
    7.6880    0.9676    0.0000 H   0  0  0  0  0  0  0  0  0  0  0  0
    8.5551    3.6362    0.0000 H   0  0  0  0  0  0  0  0  0  0  0  0
    7.0452    4.1222    0.0000 H   0  0  0  0  0  0  0  0  0  0  0  0
    4.7778    0.8918    0.0000 H   0  0  0  0  0  0  0  0  0  0  0  0
    3.9118   -0.6082    0.0000 H   0  0  0  0  0  0  0  0  0  0  0  0
    9.2287    0.4669    0.0000 H   0  0  0  0  0  0  0  0  0  0  0  0
   10.0958    3.1355    0.0000 H   0  0  0  0  0  0  0  0  0  0  0  0
    5.3163    4.1222    0.0000 H   0  0  0  0  0  0  0  0  0  0  0  0
    6.7177   -0.6082    0.0000 H   0  0  0  0  0  0  0  0  0  0  0  0
    5.3147   -3.0382    0.0000 H   0  0  0  0  0  0  0  0  0  0  0  0
    6.7177   -2.2282    0.0000 H   0  0  0  0  0  0  0  0  0  0  0  0
   10.6024    0.8439    0.0000 H   0  0  0  0  0  0  0  0  0  0  0  0
   11.3836    1.2419    0.0000 H   0  0  0  0  0  0  0  0  0  0  0  0
   10.9856    2.0232    0.0000 H   0  0  0  0  0  0  0  0  0  0  0  0
    2.5402   -1.4050    0.0000 H   0  0  0  0  0  0  0  0  0  0  0  0
  1 10  1  0  0  0  0
  1 21  1  0  0  0  0
  2 15  2  0  0  0  0
  3 11  1  0  0  0  0
  3 15  1  0  0  0  0
  3 30  1  0  0  0  0
  4  5  1  0  0  0  0
  4 17  1  0  0  0  0
  4 26  1  0  0  0  0
  5  7  2  0  0  0  0
  6  7  1  0  0  0  0
  6 26  2  0  0  0  0
  8  9  1  0  0  0  0
  8 10  2  0  0  0  0
  8 14  1  0  0  0  0
  9 12  2  0  0  0  0
  9 13  1  0  0  0  0
 10 15  1  0  0  0  0
 11 20  2  0  0  0  0
 11 22  1  0  0  0  0
 12 18  1  0  0  0  0
 12 27  1  0  0  0  0
 13 19  2  0  0  0  0
 13 28  1  0  0  0  0
 14 21  2  0  0  0  0
 14 29  1  0  0  0  0
 16 18  2  0  0  0  0
 16 19  1  0  0  0  0
 16 25  1  0  0  0  0
 17 20  1  0  0  0  0
 17 23  2  0  0  0  0
 18 32  1  0  0  0  0
 19 33  1  0  0  0  0
 20 31  1  0  0  0  0
 21 34  1  0  0  0  0
 22 24  2  0  0  0  0
 22 35  1  0  0  0  0
 23 24  1  0  0  0  0
 23 36  1  0  0  0  0
 24 37  1  0  0  0  0
 25 38  1  0  0  0  0
 25 39  1  0  0  0  0
 25 40  1  0  0  0  0
 26 41  1  0  0  0  0
M  END
> <PUBCHEM_COMPOUND_CID>
17395944

> <PUBCHEM_COMPOUND_CANONICALIZED>
1

> <PUBCHEM_CACTVS_COMPLEXITY>
485

> <PUBCHEM_CACTVS_HBOND_ACCEPTOR>
5

> <PUBCHEM_CACTVS_HBOND_DONOR>
1

> <PUBCHEM_CACTVS_ROTATABLE_BOND>
4

> <PUBCHEM_CACTVS_SUBSKEYS>
AAADccB7oABAAAAAAAAAAAAAAAAAAWJAAAAwYAAAAAAAAAAB9AAAHgQYAAAADAiF2AS30YbIAAiuAiVTdACDBKM1ipBdiBkIZMiIIDLg3dGEIQhglALoyScYiMCOwAAAAAQAAACAAAAACAAAAAAAAAAAAA==

> <PUBCHEM_IUPAC_OPENEYE_NAME>
3-(p-tolyl)-N-[3-(tetrazol-1-yl)phenyl]thiophene-2-carboxamide

> <PUBCHEM_IUPAC_CAS_NAME>
3-(4-methylphenyl)-N-[3-(1-tetrazolyl)phenyl]-2-thiophenecarboxamide

> <PUBCHEM_IUPAC_NAME>
3-(4-methylphenyl)-N-[3-(tetrazol-1-yl)phenyl]thiophene-2-carboxamide

> <PUBCHEM_IUPAC_SYSTEMATIC_NAME>
3-(4-methylphenyl)-N-[3-(1,2,3,4-tetrazol-1-yl)phenyl]thiophene-2-carboxamide

> <PUBCHEM_IUPAC_TRADITIONAL_NAME>
3-(p-tolyl)-N-[3-(tetrazol-1-yl)phenyl]thiophene-2-carboxamide

> <PUBCHEM_IUPAC_INCHI>
InChI=1S/C19H15N5OS/c1-13-5-7-14(8-6-13)17-9-10-26-18(17)19(25)21-15-3-2-4-16(11-15)24-12-20-22-23-24/h2-12H,1H3,(H,21,25)

> <PUBCHEM_IUPAC_INCHIKEY>
ZGFWOLLOSGCXLQ-UHFFFAOYSA-N

> <PUBCHEM_XLOGP3_AA>
4.1

> <PUBCHEM_EXACT_MASS>
361.099731

> <PUBCHEM_MOLECULAR_FORMULA>
C19H15N5OS

> <PUBCHEM_MOLECULAR_WEIGHT>
361.4203

> <PUBCHEM_OPENEYE_CAN_SMILES>
CC1=CC=C(C=C1)C2=C(SC=C2)C(=O)NC3=CC=CC(=C3)N4C=NN=N4

> <PUBCHEM_OPENEYE_ISO_SMILES>
CC1=CC=C(C=C1)C2=C(SC=C2)C(=O)NC3=CC=CC(=C3)N4C=NN=N4

> <PUBCHEM_CACTVS_TPSA>
101

> <PUBCHEM_MONOISOTOPIC_WEIGHT>
361.099731

> <PUBCHEM_TOTAL_CHARGE>
0

> <PUBCHEM_HEAVY_ATOM_COUNT>
26

> <PUBCHEM_ATOM_DEF_STEREO_COUNT>
0

> <PUBCHEM_ATOM_UDEF_STEREO_COUNT>
0

> <PUBCHEM_BOND_DEF_STEREO_COUNT>
0

> <PUBCHEM_BOND_UDEF_STEREO_COUNT>
0

> <PUBCHEM_ISOTOPIC_ATOM_COUNT>
0

> <PUBCHEM_COMPONENT_COUNT>
1

> <PUBCHEM_CACTVS_TAUTO_COUNT>
2

> <PUBCHEM_COORDINATE_TYPE>
1
5
255

> <PUBCHEM_BONDANNOTATIONS>
1  10  8
1  21  8
11  20  8
11  22  8
12  18  8
13  19  8
14  21  8
16  18  8
16  19  8
17  20  8
17  23  8
22  24  8
23  24  8
4  26  8
4  5  8
5  7  8
6  26  8
6  7  8
8  10  8
8  14  8
9  12  8
9  13  8

$$$$

