8592
  -OEChem-06261202562D

 20 21  0     0  0  0  0  0  0999 V2000
    4.5981   -1.3623    0.0000 O   0  0  0  0  0  0  0  0  0  0  0  0
    2.0000    0.1377    0.0000 O   0  0  0  0  0  0  0  0  0  0  0  0
    2.8660   -0.3623    0.0000 N   0  0  0  0  0  0  0  0  0  0  0  0
    5.4641    0.1377    0.0000 C   0  0  0  0  0  0  0  0  0  0  0  0
    5.4641    1.1377    0.0000 C   0  0  0  0  0  0  0  0  0  0  0  0
    4.5981   -0.3623    0.0000 C   0  0  0  0  0  0  0  0  0  0  0  0
    4.5981    1.6377    0.0000 C   0  0  0  0  0  0  0  0  0  0  0  0
    6.3580   -0.3970    0.0000 C   0  0  0  0  0  0  0  0  0  0  0  0
    6.3580    1.6723    0.0000 C   0  0  0  0  0  0  0  0  0  0  0  0
    3.7320    0.1377    0.0000 C   0  0  0  0  0  0  0  0  0  0  0  0
    3.7320    1.1377    0.0000 C   0  0  0  0  0  0  0  0  0  0  0  0
    7.2641    0.1169    0.0000 C   0  0  0  0  0  0  0  0  0  0  0  0
    7.2641    1.1585    0.0000 C   0  0  0  0  0  0  0  0  0  0  0  0
    4.5981    2.2577    0.0000 H   0  0  0  0  0  0  0  0  0  0  0  0
    6.3509   -1.0170    0.0000 H   0  0  0  0  0  0  0  0  0  0  0  0
    6.3509    2.2923    0.0000 H   0  0  0  0  0  0  0  0  0  0  0  0
    3.1951    1.4477    0.0000 H   0  0  0  0  0  0  0  0  0  0  0  0
    7.7998   -0.1952    0.0000 H   0  0  0  0  0  0  0  0  0  0  0  0
    7.7998    1.4706    0.0000 H   0  0  0  0  0  0  0  0  0  0  0  0
    4.0611   -1.6723    0.0000 H   0  0  0  0  0  0  0  0  0  0  0  0
  1  6  1  0  0  0  0
  1 20  1  0  0  0  0
  2  3  2  0  0  0  0
  3 10  1  0  0  0  0
  4  5  1  0  0  0  0
  4  6  1  0  0  0  0
  4  8  2  0  0  0  0
  5  7  1  0  0  0  0
  5  9  2  0  0  0  0
  6 10  2  0  0  0  0
  7 11  2  0  0  0  0
  7 14  1  0  0  0  0
  8 12  1  0  0  0  0
  8 15  1  0  0  0  0
  9 13  1  0  0  0  0
  9 16  1  0  0  0  0
 10 11  1  0  0  0  0
 11 17  1  0  0  0  0
 12 13  2  0  0  0  0
 12 18  1  0  0  0  0
 13 19  1  0  0  0  0
M  END
> <PUBCHEM_COMPOUND_CID>
8592

> <PUBCHEM_COMPOUND_CANONICALIZED>
1

> <PUBCHEM_CACTVS_COMPLEXITY>
195

> <PUBCHEM_CACTVS_HBOND_ACCEPTOR>
3

> <PUBCHEM_CACTVS_HBOND_DONOR>
1

> <PUBCHEM_CACTVS_ROTATABLE_BOND>
0

> <PUBCHEM_CACTVS_SUBSKEYS>
AAADcYByMAAAAAAAAAAAAAAAAAAAAAAAAAAwYAAAAAAAAADBUAAAHgAECAAADAyBmAAwxsAQAgCBAiRCQgCCAAAgIgAIiAAFbIoKJiKSkZOAcABkwFEI2AeQwLAOiAABQAAYEAAQAAKAADAgAAAAAAAAAA==

> <PUBCHEM_IUPAC_OPENEYE_NAME>
2-nitrosonaphthalen-1-ol

> <PUBCHEM_IUPAC_CAS_NAME>
2-nitroso-1-naphthalenol

> <PUBCHEM_IUPAC_NAME>
2-nitrosonaphthalen-1-ol

> <PUBCHEM_IUPAC_SYSTEMATIC_NAME>
2-nitrosonaphthalen-1-ol

> <PUBCHEM_IUPAC_TRADITIONAL_NAME>
2-nitroso-1-naphthol

> <PUBCHEM_IUPAC_INCHI>
InChI=1S/C10H7NO2/c12-10-8-4-2-1-3-7(8)5-6-9(10)11-13/h1-6,12H

> <PUBCHEM_IUPAC_INCHIKEY>
SYUYTOYKQOAVDW-UHFFFAOYSA-N

> <PUBCHEM_XLOGP3>
2.5

> <PUBCHEM_EXACT_MASS>
173.047678

> <PUBCHEM_MOLECULAR_FORMULA>
C10H7NO2

> <PUBCHEM_MOLECULAR_WEIGHT>
173.16808

> <PUBCHEM_OPENEYE_CAN_SMILES>
C1=CC=C2C(=C1)C=CC(=C2O)N=O

> <PUBCHEM_OPENEYE_ISO_SMILES>
C1=CC=C2C(=C1)C=CC(=C2O)N=O

> <PUBCHEM_CACTVS_TPSA>
49.7

> <PUBCHEM_MONOISOTOPIC_WEIGHT>
173.047678

> <PUBCHEM_TOTAL_CHARGE>
0

> <PUBCHEM_HEAVY_ATOM_COUNT>
13

> <PUBCHEM_ATOM_DEF_STEREO_COUNT>
0

> <PUBCHEM_ATOM_UDEF_STEREO_COUNT>
0

> <PUBCHEM_BOND_DEF_STEREO_COUNT>
0

> <PUBCHEM_BOND_UDEF_STEREO_COUNT>
0

> <PUBCHEM_ISOTOPIC_ATOM_COUNT>
0

> <PUBCHEM_COMPONENT_COUNT>
1

> <PUBCHEM_CACTVS_TAUTO_COUNT>
3

> <PUBCHEM_COORDINATE_TYPE>
1
5
255

> <PUBCHEM_BONDANNOTATIONS>
10  11  8
12  13  8
4  5  8
4  6  8
4  8  8
5  7  8
5  9  8
6  10  8
7  11  8
8  12  8
9  13  8

$$$$

