4337
  -OEChem-06261200032D

 87 89  0     1  0  0  0  0  0999 V2000
    7.7331    0.0950    0.0000 O   0  0  0  0  0  0  0  0  0  0  0  0
    8.5991   -3.4050    0.0000 O   0  0  0  0  0  0  0  0  0  0  0  0
   11.1972    1.0950    0.0000 O   0  0  0  0  0  0  0  0  0  0  0  0
   12.0632    1.5950    0.0000 O   0  0  0  0  0  0  0  0  0  0  0  0
    8.5991   -4.4050    0.0000 O   0  0  0  0  0  0  0  0  0  0  0  0
   16.4213    3.1297    0.0000 O   0  0  0  0  0  0  0  0  0  0  0  0
    2.5369   -4.9050    0.0000 O   0  0  0  0  0  0  0  0  0  0  0  0
   10.3312    5.5950    0.0000 O   0  0  0  0  0  0  0  0  0  0  0  0
    9.4651    4.0950    0.0000 O   0  0  0  0  0  0  0  0  0  0  0  0
   18.1914    3.1192    0.0000 O   0  0  0  0  0  0  0  0  0  0  0  0
    7.7331   -1.9050    0.0000 N   0  0  0  0  0  0  0  0  0  0  0  0
    9.4651    0.0950    0.0000 N   0  0  0  0  0  0  0  0  0  0  0  0
    6.8671   -4.4050    0.0000 N   0  0  0  0  0  0  0  0  0  0  0  0
   10.3312    2.5950    0.0000 N   0  0  0  0  0  0  0  0  0  0  0  0
   12.9292    3.0950    0.0000 N   0  0  0  0  0  0  0  0  0  0  0  0
    8.5991   -1.4050    0.0000 C   0  0  3  0  0  0  0  0  0  0  0  0
    9.4651   -1.9050    0.0000 C   0  0  0  0  0  0  0  0  0  0  0  0
    8.5991   -0.4050    0.0000 C   0  0  0  0  0  0  0  0  0  0  0  0
    6.8671   -3.4050    0.0000 C   0  0  3  0  0  0  0  0  0  0  0  0
    9.4651   -2.9050    0.0000 C   0  0  0  0  0  0  0  0  0  0  0  0
   10.3312   -1.4050    0.0000 C   0  0  0  0  0  0  0  0  0  0  0  0
    7.7331   -2.9050    0.0000 C   0  0  0  0  0  0  0  0  0  0  0  0
    9.4651    1.0950    0.0000 C   0  0  3  0  0  0  0  0  0  0  0  0
    6.0010   -2.9050    0.0000 C   0  0  0  0  0  0  0  0  0  0  0  0
   10.3312    1.5950    0.0000 C   0  0  0  0  0  0  0  0  0  0  0  0
    5.1350   -3.4050    0.0000 C   0  0  0  0  0  0  0  0  0  0  0  0
   11.1972    3.0950    0.0000 C   0  0  3  0  0  0  0  0  0  0  0  0
    8.5991    1.5950    0.0000 C   0  0  0  0  0  0  0  0  0  0  0  0
   11.1972    4.0950    0.0000 C   0  0  0  0  0  0  0  0  0  0  0  0
    5.1350   -4.4050    0.0000 C   0  0  0  0  0  0  0  0  0  0  0  0
    4.2690   -2.9050    0.0000 C   0  0  0  0  0  0  0  0  0  0  0  0
   12.0632    2.5950    0.0000 C   0  0  0  0  0  0  0  0  0  0  0  0
    7.7331   -4.9050    0.0000 C   0  0  0  0  0  0  0  0  0  0  0  0
    4.2690   -4.9050    0.0000 C   0  0  0  0  0  0  0  0  0  0  0  0
    3.4030   -3.4050    0.0000 C   0  0  0  0  0  0  0  0  0  0  0  0
   13.7953    2.5950    0.0000 C   0  0  0  0  0  0  0  0  0  0  0  0
    3.4030   -4.4050    0.0000 C   0  0  0  0  0  0  0  0  0  0  0  0
    7.7331   -5.9050    0.0000 C   0  0  0  0  0  0  0  0  0  0  0  0
   10.3312    4.5950    0.0000 C   0  0  0  0  0  0  0  0  0  0  0  0
   15.5273    1.5950    0.0000 C   0  0  0  0  0  0  0  0  0  0  0  0
   14.6613    3.0950    0.0000 C   0  0  0  0  0  0  0  0  0  0  0  0
   15.5273    2.5950    0.0000 C   0  0  0  0  0  0  0  0  0  0  0  0
   13.7953    1.5950    0.0000 C   0  0  0  0  0  0  0  0  0  0  0  0
   14.6613    1.0950    0.0000 C   0  0  0  0  0  0  0  0  0  0  0  0
   16.4213    1.0603    0.0000 C   0  0  0  0  0  0  0  0  0  0  0  0
   17.3273    1.5742    0.0000 C   0  0  0  0  0  0  0  0  0  0  0  0
   16.4097    0.0604    0.0000 C   0  0  0  0  0  0  0  0  0  0  0  0
   17.3273    2.6158    0.0000 C   0  0  0  0  0  0  0  0  0  0  0  0
    8.5991   -2.0250    0.0000 H   0  0  0  0  0  0  0  0  0  0  0  0
   10.0021   -2.2150    0.0000 H   0  0  0  0  0  0  0  0  0  0  0  0
    7.1962   -1.5950    0.0000 H   0  0  0  0  0  0  0  0  0  0  0  0
    6.3301   -3.7150    0.0000 H   0  0  0  0  0  0  0  0  0  0  0  0
   10.6412   -1.9419    0.0000 H   0  0  0  0  0  0  0  0  0  0  0  0
   10.8681   -1.0950    0.0000 H   0  0  0  0  0  0  0  0  0  0  0  0
    8.8451   -2.9050    0.0000 H   0  0  0  0  0  0  0  0  0  0  0  0
    9.4651   -3.5250    0.0000 H   0  0  0  0  0  0  0  0  0  0  0  0
   10.0851   -2.9050    0.0000 H   0  0  0  0  0  0  0  0  0  0  0  0
   10.0212   -0.8681    0.0000 H   0  0  0  0  0  0  0  0  0  0  0  0
   10.0021    0.7850    0.0000 H   0  0  0  0  0  0  0  0  0  0  0  0
   10.0021   -0.2150    0.0000 H   0  0  0  0  0  0  0  0  0  0  0  0
    6.3996   -2.4300    0.0000 H   0  0  0  0  0  0  0  0  0  0  0  0
    5.6025   -2.4300    0.0000 H   0  0  0  0  0  0  0  0  0  0  0  0
    6.3301   -4.7150    0.0000 H   0  0  0  0  0  0  0  0  0  0  0  0
   10.6603    3.4050    0.0000 H   0  0  0  0  0  0  0  0  0  0  0  0
    8.9091    2.1319    0.0000 H   0  0  0  0  0  0  0  0  0  0  0  0
    8.0622    1.9050    0.0000 H   0  0  0  0  0  0  0  0  0  0  0  0
    8.2891    1.0581    0.0000 H   0  0  0  0  0  0  0  0  0  0  0  0
    9.7942    2.9050    0.0000 H   0  0  0  0  0  0  0  0  0  0  0  0
   11.8078    3.9873    0.0000 H   0  0  0  0  0  0  0  0  0  0  0  0
   11.4092    4.6776    0.0000 H   0  0  0  0  0  0  0  0  0  0  0  0
    5.6720   -4.7150    0.0000 H   0  0  0  0  0  0  0  0  0  0  0  0
    4.2690   -2.2850    0.0000 H   0  0  0  0  0  0  0  0  0  0  0  0
   12.9292    3.7150    0.0000 H   0  0  0  0  0  0  0  0  0  0  0  0
    4.2690   -5.5250    0.0000 H   0  0  0  0  0  0  0  0  0  0  0  0
    2.8660   -3.0950    0.0000 H   0  0  0  0  0  0  0  0  0  0  0  0
    7.1131   -5.9050    0.0000 H   0  0  0  0  0  0  0  0  0  0  0  0
    7.7331   -6.5250    0.0000 H   0  0  0  0  0  0  0  0  0  0  0  0
    8.3531   -5.9050    0.0000 H   0  0  0  0  0  0  0  0  0  0  0  0
   14.6613    3.7150    0.0000 H   0  0  0  0  0  0  0  0  0  0  0  0
   13.2583    1.2850    0.0000 H   0  0  0  0  0  0  0  0  0  0  0  0
   14.6613    0.4750    0.0000 H   0  0  0  0  0  0  0  0  0  0  0  0
   17.8631    1.2621    0.0000 H   0  0  0  0  0  0  0  0  0  0  0  0
   15.7897    0.0676    0.0000 H   0  0  0  0  0  0  0  0  0  0  0  0
   16.4025   -0.5596    0.0000 H   0  0  0  0  0  0  0  0  0  0  0  0
   17.0297    0.0532    0.0000 H   0  0  0  0  0  0  0  0  0  0  0  0
    2.0000   -4.5950    0.0000 H   0  0  0  0  0  0  0  0  0  0  0  0
    9.7942    5.9050    0.0000 H   0  0  0  0  0  0  0  0  0  0  0  0
  1 18  2  0  0  0  0
  2 22  2  0  0  0  0
  3 25  2  0  0  0  0
  4 32  2  0  0  0  0
  5 33  2  0  0  0  0
  6 42  1  0  0  0  0
  6 48  1  0  0  0  0
  7 37  1  0  0  0  0
  7 86  1  0  0  0  0
  8 39  1  0  0  0  0
  8 87  1  0  0  0  0
  9 39  2  0  0  0  0
 10 48  2  0  0  0  0
 11 16  1  0  0  0  0
 11 22  1  0  0  0  0
 11 51  1  0  0  0  0
 12 18  1  0  0  0  0
 12 23  1  0  0  0  0
 12 60  1  0  0  0  0
 13 19  1  0  0  0  0
 13 33  1  0  0  0  0
 13 63  1  0  0  0  0
 14 25  1  0  0  0  0
 14 27  1  0  0  0  0
 14 68  1  0  0  0  0
 15 32  1  0  0  0  0
 15 36  1  0  0  0  0
 15 73  1  0  0  0  0
 16 17  1  0  0  0  0
 16 18  1  0  0  0  0
 16 49  1  0  0  0  0
 17 20  1  0  0  0  0
 17 21  1  0  0  0  0
 17 50  1  0  0  0  0
 19 22  1  0  0  0  0
 19 24  1  0  0  0  0
 19 52  1  0  0  0  0
 20 55  1  0  0  0  0
 20 56  1  0  0  0  0
 20 57  1  0  0  0  0
 21 53  1  0  0  0  0
 21 54  1  0  0  0  0
 21 58  1  0  0  0  0
 23 25  1  0  0  0  0
 23 28  1  0  0  0  0
 23 59  1  0  0  0  0
 24 26  1  0  0  0  0
 24 61  1  0  0  0  0
 24 62  1  0  0  0  0
 26 30  2  0  0  0  0
 26 31  1  0  0  0  0
 27 29  1  0  0  0  0
 27 32  1  0  0  0  0
 27 64  1  0  0  0  0
 28 65  1  0  0  0  0
 28 66  1  0  0  0  0
 28 67  1  0  0  0  0
 29 39  1  0  0  0  0
 29 69  1  0  0  0  0
 29 70  1  0  0  0  0
 30 34  1  0  0  0  0
 30 71  1  0  0  0  0
 31 35  2  0  0  0  0
 31 72  1  0  0  0  0
 33 38  1  0  0  0  0
 34 37  2  0  0  0  0
 34 74  1  0  0  0  0
 35 37  1  0  0  0  0
 35 75  1  0  0  0  0
 36 41  2  0  0  0  0
 36 43  1  0  0  0  0
 38 76  1  0  0  0  0
 38 77  1  0  0  0  0
 38 78  1  0  0  0  0
 40 42  2  0  0  0  0
 40 44  1  0  0  0  0
 40 45  1  0  0  0  0
 41 42  1  0  0  0  0
 41 79  1  0  0  0  0
 43 44  2  0  0  0  0
 43 80  1  0  0  0  0
 44 81  1  0  0  0  0
 45 46  2  0  0  0  0
 45 47  1  0  0  0  0
 46 48  1  0  0  0  0
 46 82  1  0  0  0  0
 47 83  1  0  0  0  0
 47 84  1  0  0  0  0
 47 85  1  0  0  0  0
M  END
> <PUBCHEM_COMPOUND_CID>
4337

> <PUBCHEM_COMPOUND_CANONICALIZED>
1

> <PUBCHEM_CACTVS_COMPLEXITY>
1260

> <PUBCHEM_CACTVS_HBOND_ACCEPTOR>
10

> <PUBCHEM_CACTVS_HBOND_DONOR>
7

> <PUBCHEM_CACTVS_ROTATABLE_BOND>
14

> <PUBCHEM_CACTVS_SUBSKEYS>
AAADcfB/vAAAAAAAAAAAAAAAAAAAAAAAAAAwYIAAAAAAAACBQAAAHgAQCAAADSzBmAQyzoLABgCIAiXSWACCCAAhIgAIiIGObMgMZjrGsbuWeijm1hnI+Qe/2KOOKAAAAgAIAABQAAAEABAAAAAAAAAAAA==

> <PUBCHEM_IUPAC_OPENEYE_NAME>
3-[2-[[2-[[2-acetamido-3-(4-hydroxyphenyl)propanoyl]amino]-3-methyl-butanoyl]amino]propanoylamino]-4-[(4-methyl-2-oxo-chromen-7-yl)amino]-4-oxo-butanoic acid

> <PUBCHEM_IUPAC_CAS_NAME>
3-[[2-[[2-[[2-acetamido-3-(4-hydroxyphenyl)-1-oxopropyl]amino]-3-methyl-1-oxobutyl]amino]-1-oxopropyl]amino]-4-[(4-methyl-2-oxo-1-benzopyran-7-yl)amino]-4-oxobutanoic acid

> <PUBCHEM_IUPAC_NAME>
3-[2-[[2-[[2-acetamido-3-(4-hydroxyphenyl)propanoyl]amino]-3-methylbutanoyl]amino]propanoylamino]-4-[(4-methyl-2-oxochromen-7-yl)amino]-4-oxobutanoic acid

> <PUBCHEM_IUPAC_SYSTEMATIC_NAME>
3-[2-[[2-[[2-acetamido-3-(4-hydroxyphenyl)propanoyl]amino]-3-methyl-butanoyl]amino]propanoylamino]-4-[(4-methyl-2-oxidanylidene-chromen-7-yl)amino]-4-oxidanylidene-butanoic acid

> <PUBCHEM_IUPAC_TRADITIONAL_NAME>
3-[2-[[2-[[2-acetamido-3-(4-hydroxyphenyl)propanoyl]amino]-3-methyl-butanoyl]amino]propanoylamino]-4-keto-4-[(2-keto-4-methyl-chromen-7-yl)amino]butyric acid

> <PUBCHEM_IUPAC_INCHI>
InChI=1S/C33H39N5O10/c1-16(2)29(38-32(46)24(35-19(5)39)13-20-6-9-22(40)10-7-20)33(47)34-18(4)30(44)37-25(15-27(41)42)31(45)36-21-8-11-23-17(3)12-28(43)48-26(23)14-21/h6-12,14,16,18,24-25,29,40H,13,15H2,1-5H3,(H,34,47)(H,35,39)(H,36,45)(H,37,44)(H,38,46)(H,41,42)

> <PUBCHEM_IUPAC_INCHIKEY>
YGLOALWHJIANIH-UHFFFAOYSA-N

> <PUBCHEM_XLOGP3_AA>
1.3

> <PUBCHEM_EXACT_MASS>
665.269692

> <PUBCHEM_MOLECULAR_FORMULA>
C33H39N5O10

> <PUBCHEM_MOLECULAR_WEIGHT>
665.69026

> <PUBCHEM_OPENEYE_CAN_SMILES>
CC1=CC(=O)OC2=C1C=CC(=C2)NC(=O)C(CC(=O)O)NC(=O)C(C)NC(=O)C(C(C)C)NC(=O)C(CC3=CC=C(C=C3)O)NC(=O)C

> <PUBCHEM_OPENEYE_ISO_SMILES>
CC1=CC(=O)OC2=C1C=CC(=C2)NC(=O)C(CC(=O)O)NC(=O)C(C)NC(=O)C(C(C)C)NC(=O)C(CC3=CC=C(C=C3)O)NC(=O)C

> <PUBCHEM_CACTVS_TPSA>
229

> <PUBCHEM_MONOISOTOPIC_WEIGHT>
665.269692

> <PUBCHEM_TOTAL_CHARGE>
0

> <PUBCHEM_HEAVY_ATOM_COUNT>
48

> <PUBCHEM_ATOM_DEF_STEREO_COUNT>
0

> <PUBCHEM_ATOM_UDEF_STEREO_COUNT>
4

> <PUBCHEM_BOND_DEF_STEREO_COUNT>
0

> <PUBCHEM_BOND_UDEF_STEREO_COUNT>
0

> <PUBCHEM_ISOTOPIC_ATOM_COUNT>
0

> <PUBCHEM_COMPONENT_COUNT>
1

> <PUBCHEM_CACTVS_TAUTO_COUNT>
640

> <PUBCHEM_COORDINATE_TYPE>
1
5
255

> <PUBCHEM_BONDANNOTATIONS>
16  17  3
19  24  3
23  28  3
26  30  8
26  31  8
27  29  3
30  34  8
31  35  8
34  37  8
35  37  8
36  41  8
36  43  8
40  42  8
40  44  8
40  45  8
41  42  8
43  44  8
45  46  8
46  48  8
6  42  8
6  48  8

$$$$

