10717
  -OEChem-06261204522D

 59 60  0     0  0  0  0  0  0999 V2000
    5.1350    1.2500    0.0000 Ca  0  2  0  0  0  0  0  0  0  0  0  0
    2.5369   -1.2500    0.0000 O   0  0  0  0  0  0  0  0  0  0  0  0
    7.7331    1.7500    0.0000 O   0  0  0  0  0  0  0  0  0  0  0  0
    6.0010   -4.2500    0.0000 O   0  0  0  0  0  0  0  0  0  0  0  0
    8.5991    6.2500    0.0000 O   0  0  0  0  0  0  0  0  0  0  0  0
    5.1350    0.2500    0.0000 O   0  5  0  0  0  0  0  0  0  0  0  0
    6.0010    1.7500    0.0000 O   0  5  0  0  0  0  0  0  0  0  0  0
    3.4030    0.2500    0.0000 O   0  0  0  0  0  0  0  0  0  0  0  0
    5.1350    3.2500    0.0000 O   0  0  0  0  0  0  0  0  0  0  0  0
    4.2690   -4.2500    0.0000 N   0  0  0  0  0  0  0  0  0  0  0  0
    9.4651    4.7500    0.0000 N   0  0  0  0  0  0  0  0  0  0  0  0
    4.2690   -3.2500    0.0000 C   0  0  0  0  0  0  0  0  0  0  0  0
    8.5991    4.2500    0.0000 C   0  0  0  0  0  0  0  0  0  0  0  0
    3.4030   -2.7500    0.0000 C   0  0  0  0  0  0  0  0  0  0  0  0
    8.5991    3.2500    0.0000 C   0  0  0  0  0  0  0  0  0  0  0  0
    5.1350   -2.7500    0.0000 C   0  0  0  0  0  0  0  0  0  0  0  0
    7.7331    4.7500    0.0000 C   0  0  0  0  0  0  0  0  0  0  0  0
    4.2690   -1.2500    0.0000 C   0  0  0  0  0  0  0  0  0  0  0  0
    6.8671    3.2500    0.0000 C   0  0  0  0  0  0  0  0  0  0  0  0
    3.4030   -1.7500    0.0000 C   0  0  0  0  0  0  0  0  0  0  0  0
    7.7331    2.7500    0.0000 C   0  0  0  0  0  0  0  0  0  0  0  0
    5.1350   -5.7500    0.0000 C   0  0  0  0  0  0  0  0  0  0  0  0
   10.3312    6.2500    0.0000 C   0  0  0  0  0  0  0  0  0  0  0  0
    5.1350   -1.7500    0.0000 C   0  0  0  0  0  0  0  0  0  0  0  0
    6.8671    4.2500    0.0000 C   0  0  0  0  0  0  0  0  0  0  0  0
    9.4651    5.7500    0.0000 C   0  0  0  0  0  0  0  0  0  0  0  0
    5.1350   -4.7500    0.0000 C   0  0  0  0  0  0  0  0  0  0  0  0
    4.2690   -6.2500    0.0000 C   0  0  0  0  0  0  0  0  0  0  0  0
   10.3312    7.2500    0.0000 C   0  0  0  0  0  0  0  0  0  0  0  0
    6.0010   -6.2500    0.0000 C   0  0  0  0  0  0  0  0  0  0  0  0
   11.1972    5.7500    0.0000 C   0  0  0  0  0  0  0  0  0  0  0  0
    4.2690   -7.2500    0.0000 C   0  0  0  0  0  0  0  0  0  0  0  0
   11.1972    7.7500    0.0000 C   0  0  0  0  0  0  0  0  0  0  0  0
    6.0010   -7.2500    0.0000 C   0  0  0  0  0  0  0  0  0  0  0  0
   12.0632    6.2500    0.0000 C   0  0  0  0  0  0  0  0  0  0  0  0
    5.1350   -7.7500    0.0000 C   0  0  0  0  0  0  0  0  0  0  0  0
   12.0632    7.2500    0.0000 C   0  0  0  0  0  0  0  0  0  0  0  0
    4.2690   -0.2500    0.0000 C   0  0  0  0  0  0  0  0  0  0  0  0
    6.0010    2.7500    0.0000 C   0  0  0  0  0  0  0  0  0  0  0  0
    9.1360    2.9400    0.0000 H   0  0  0  0  0  0  0  0  0  0  0  0
    2.8660   -3.0600    0.0000 H   0  0  0  0  0  0  0  0  0  0  0  0
    5.6720   -3.0600    0.0000 H   0  0  0  0  0  0  0  0  0  0  0  0
    7.7331    5.3700    0.0000 H   0  0  0  0  0  0  0  0  0  0  0  0
    3.7320   -4.5600    0.0000 H   0  0  0  0  0  0  0  0  0  0  0  0
   10.0021    4.4400    0.0000 H   0  0  0  0  0  0  0  0  0  0  0  0
    5.6720   -1.4400    0.0000 H   0  0  0  0  0  0  0  0  0  0  0  0
    6.3301    4.5600    0.0000 H   0  0  0  0  0  0  0  0  0  0  0  0
    3.7320   -5.9400    0.0000 H   0  0  0  0  0  0  0  0  0  0  0  0
    9.7942    7.5600    0.0000 H   0  0  0  0  0  0  0  0  0  0  0  0
    6.5380   -5.9400    0.0000 H   0  0  0  0  0  0  0  0  0  0  0  0
   11.1972    5.1300    0.0000 H   0  0  0  0  0  0  0  0  0  0  0  0
    3.7320   -7.5600    0.0000 H   0  0  0  0  0  0  0  0  0  0  0  0
   11.1972    8.3700    0.0000 H   0  0  0  0  0  0  0  0  0  0  0  0
    6.5380   -7.5600    0.0000 H   0  0  0  0  0  0  0  0  0  0  0  0
   12.6002    5.9400    0.0000 H   0  0  0  0  0  0  0  0  0  0  0  0
    5.1350   -8.3700    0.0000 H   0  0  0  0  0  0  0  0  0  0  0  0
   12.6002    7.5600    0.0000 H   0  0  0  0  0  0  0  0  0  0  0  0
    2.0000   -1.5600    0.0000 H   0  0  0  0  0  0  0  0  0  0  0  0
    8.2700    1.4400    0.0000 H   0  0  0  0  0  0  0  0  0  0  0  0
  2 20  1  0  0  0  0
  2 58  1  0  0  0  0
  3 21  1  0  0  0  0
  3 59  1  0  0  0  0
  4 27  2  0  0  0  0
  5 26  2  0  0  0  0
  6 38  1  0  0  0  0
  7 39  1  0  0  0  0
  8 38  2  0  0  0  0
  9 39  2  0  0  0  0
 10 12  1  0  0  0  0
 10 27  1  0  0  0  0
 10 44  1  0  0  0  0
 11 13  1  0  0  0  0
 11 26  1  0  0  0  0
 11 45  1  0  0  0  0
 12 14  2  0  0  0  0
 12 16  1  0  0  0  0
 13 15  2  0  0  0  0
 13 17  1  0  0  0  0
 14 20  1  0  0  0  0
 14 41  1  0  0  0  0
 15 21  1  0  0  0  0
 15 40  1  0  0  0  0
 16 24  2  0  0  0  0
 16 42  1  0  0  0  0
 17 25  2  0  0  0  0
 17 43  1  0  0  0  0
 18 20  2  0  0  0  0
 18 24  1  0  0  0  0
 18 38  1  0  0  0  0
 19 21  2  0  0  0  0
 19 25  1  0  0  0  0
 19 39  1  0  0  0  0
 22 27  1  0  0  0  0
 22 28  2  0  0  0  0
 22 30  1  0  0  0  0
 23 26  1  0  0  0  0
 23 29  2  0  0  0  0
 23 31  1  0  0  0  0
 24 46  1  0  0  0  0
 25 47  1  0  0  0  0
 28 32  1  0  0  0  0
 28 48  1  0  0  0  0
 29 33  1  0  0  0  0
 29 49  1  0  0  0  0
 30 34  2  0  0  0  0
 30 50  1  0  0  0  0
 31 35  2  0  0  0  0
 31 51  1  0  0  0  0
 32 36  2  0  0  0  0
 32 52  1  0  0  0  0
 33 37  2  0  0  0  0
 33 53  1  0  0  0  0
 34 36  1  0  0  0  0
 34 54  1  0  0  0  0
 35 37  1  0  0  0  0
 35 55  1  0  0  0  0
 36 56  1  0  0  0  0
 37 57  1  0  0  0  0
M  CHG  3   1   2   6  -1   7  -1
M  END
> <PUBCHEM_COMPOUND_CID>
10717

> <PUBCHEM_COMPOUND_CANONICALIZED>
1

> <PUBCHEM_CACTVS_COMPLEXITY>
333

> <PUBCHEM_CACTVS_HBOND_ACCEPTOR>
8

> <PUBCHEM_CACTVS_HBOND_DONOR>
4

> <PUBCHEM_CACTVS_ROTATABLE_BOND>
4

> <PUBCHEM_CACTVS_SUBSKEYS>
AAADceB7PAAAAAgAAAAAAAAAAAAAAAAAAAAwYMGAAAAAAAABVAAAHgAQCAAADAyBmAAwzoLAAgCIAiXSWACCAAAlIgAIiAEGbMgIJzbClZOEcUhn9BnI2YeY2SOeCAAAAgAIAAAQAAAEABAAAAAAAAAAAA==

> <PUBCHEM_IUPAC_OPENEYE_NAME>
calcium 4-benzamido-2-hydroxy-benzoate

> <PUBCHEM_IUPAC_CAS_NAME>
calcium 4-benzamido-2-hydroxybenzoate

> <PUBCHEM_IUPAC_NAME>
calcium 4-benzamido-2-hydroxybenzoate

> <PUBCHEM_IUPAC_SYSTEMATIC_NAME>
calcium 4-benzamido-2-oxidanyl-benzoate

> <PUBCHEM_IUPAC_TRADITIONAL_NAME>
calcium 4-benzamido-2-hydroxy-benzoate

> <PUBCHEM_IUPAC_INCHI>
InChI=1S/2C14H11NO4.Ca/c2*16-12-8-10(6-7-11(12)14(18)19)15-13(17)9-4-2-1-3-5-9;/h2*1-8,16H,(H,15,17)(H,18,19);/q;;+2/p-2

> <PUBCHEM_IUPAC_INCHIKEY>
XJUXBRCZUUHSKU-UHFFFAOYSA-L

> <PUBCHEM_EXACT_MASS>
552.084557

> <PUBCHEM_MOLECULAR_FORMULA>
C28H20CaN2O8

> <PUBCHEM_MOLECULAR_WEIGHT>
552.545

> <PUBCHEM_OPENEYE_CAN_SMILES>
C1=CC=C(C=C1)C(=O)NC2=CC(=C(C=C2)C(=O)[O-])O.C1=CC=C(C=C1)C(=O)NC2=CC(=C(C=C2)C(=O)[O-])O.[Ca+2]

> <PUBCHEM_OPENEYE_ISO_SMILES>
C1=CC=C(C=C1)C(=O)NC2=CC(=C(C=C2)C(=O)[O-])O.C1=CC=C(C=C1)C(=O)NC2=CC(=C(C=C2)C(=O)[O-])O.[Ca+2]

> <PUBCHEM_CACTVS_TPSA>
179

> <PUBCHEM_MONOISOTOPIC_WEIGHT>
552.084557

> <PUBCHEM_TOTAL_CHARGE>
0

> <PUBCHEM_HEAVY_ATOM_COUNT>
39

> <PUBCHEM_ATOM_DEF_STEREO_COUNT>
0

> <PUBCHEM_ATOM_UDEF_STEREO_COUNT>
0

> <PUBCHEM_BOND_DEF_STEREO_COUNT>
0

> <PUBCHEM_BOND_UDEF_STEREO_COUNT>
0

> <PUBCHEM_ISOTOPIC_ATOM_COUNT>
0

> <PUBCHEM_COMPONENT_COUNT>
3

> <PUBCHEM_CACTVS_TAUTO_COUNT>
153

> <PUBCHEM_COORDINATE_TYPE>
1
5
255

> <PUBCHEM_BONDANNOTATIONS>
12  14  8
12  16  8
13  15  8
13  17  8
14  20  8
15  21  8
16  24  8
17  25  8
18  20  8
18  24  8
19  21  8
19  25  8
22  28  8
22  30  8
23  29  8
23  31  8
28  32  8
29  33  8
30  34  8
31  35  8
32  36  8
33  37  8
34  36  8
35  37  8

$$$$

