14246
  -OEChem-06241222422D

 23 21  0     0  0  0  0  0  0999 V2000
    2.8850    0.0000    0.0000 Cl  0  5  0  0  0  0  0  0  0  0  0  0
    1.4030    3.5369    0.0000 N   0  0  0  0  0  0  0  0  0  0  0  0
    0.5369    3.0369    0.0000 N   0  3  0  0  0  0  0  0  0  0  0  0
    3.1350    3.5369    0.0000 C   0  0  0  0  0  0  0  0  0  0  0  0
    4.0010    3.0369    0.0000 C   0  0  0  0  0  0  0  0  0  0  0  0
    2.2690    3.0369    0.0000 C   0  0  0  0  0  0  0  0  0  0  0  0
    4.8671    3.5369    0.0000 C   0  0  0  0  0  0  0  0  0  0  0  0
    5.7331    3.0369    0.0000 C   0  0  0  0  0  0  0  0  0  0  0  0
    3.5335    4.0119    0.0000 H   0  0  0  0  0  0  0  0  0  0  0  0
    2.7365    4.0119    0.0000 H   0  0  0  0  0  0  0  0  0  0  0  0
    3.6025    2.5620    0.0000 H   0  0  0  0  0  0  0  0  0  0  0  0
    4.3996    2.5620    0.0000 H   0  0  0  0  0  0  0  0  0  0  0  0
    1.8705    2.5620    0.0000 H   0  0  0  0  0  0  0  0  0  0  0  0
    2.6675    2.5620    0.0000 H   0  0  0  0  0  0  0  0  0  0  0  0
    5.2656    4.0119    0.0000 H   0  0  0  0  0  0  0  0  0  0  0  0
    4.4685    4.0119    0.0000 H   0  0  0  0  0  0  0  0  0  0  0  0
    1.4030    4.1569    0.0000 H   0  0  0  0  0  0  0  0  0  0  0  0
    5.4231    2.5000    0.0000 H   0  0  0  0  0  0  0  0  0  0  0  0
    6.2700    2.7269    0.0000 H   0  0  0  0  0  0  0  0  0  0  0  0
    6.0431    3.5739    0.0000 H   0  0  0  0  0  0  0  0  0  0  0  0
    0.0000    2.7269    0.0000 H   0  0  0  0  0  0  0  0  0  0  0  0
    0.2269    3.5739    0.0000 H   0  0  0  0  0  0  0  0  0  0  0  0
    0.8469    2.5000    0.0000 H   0  0  0  0  0  0  0  0  0  0  0  0
  2  3  1  0  0  0  0
  2  6  1  0  0  0  0
  2 17  1  0  0  0  0
  3 21  1  0  0  0  0
  3 22  1  0  0  0  0
  3 23  1  0  0  0  0
  4  5  1  0  0  0  0
  4  6  1  0  0  0  0
  4  9  1  0  0  0  0
  4 10  1  0  0  0  0
  5  7  1  0  0  0  0
  5 11  1  0  0  0  0
  5 12  1  0  0  0  0
  6 13  1  0  0  0  0
  6 14  1  0  0  0  0
  7  8  1  0  0  0  0
  7 15  1  0  0  0  0
  7 16  1  0  0  0  0
  8 18  1  0  0  0  0
  8 19  1  0  0  0  0
  8 20  1  0  0  0  0
M  CHG  2   1  -1   3   1
M  END
> <PUBCHEM_COMPOUND_CID>
14246

> <PUBCHEM_COMPOUND_CANONICALIZED>
1

> <PUBCHEM_CACTVS_COMPLEXITY>
29.3

> <PUBCHEM_CACTVS_HBOND_ACCEPTOR>
2

> <PUBCHEM_CACTVS_HBOND_DONOR>
2

> <PUBCHEM_CACTVS_ROTATABLE_BOND>
4

> <PUBCHEM_CACTVS_SUBSKEYS>
AAADccBjAAAEAAAAAAAAAAAAAAAAAAAAAAAAAAAAAAAAAAAAAAAAHAAYAAAACADBAAQCAABiAAAAAAAAAAAAAAAAAAIQIIAAAAAAAAIAgAAAAAAAEAAAAAAQAAAAAAAAAAAAAAAAAAAAAAAAAAAAAAAAAA==

> <PUBCHEM_IUPAC_OPENEYE_NAME>
(pentylamino)ammonium chloride

> <PUBCHEM_IUPAC_CAS_NAME>
(pentylamino)ammonium chloride

> <PUBCHEM_IUPAC_NAME>
(pentylamino)azanium chloride

> <PUBCHEM_IUPAC_SYSTEMATIC_NAME>
(pentylamino)azanium chloride

> <PUBCHEM_IUPAC_TRADITIONAL_NAME>
(amylamino)ammonium chloride

> <PUBCHEM_IUPAC_INCHI>
InChI=1S/C5H14N2.ClH/c1-2-3-4-5-7-6;/h7H,2-6H2,1H3;1H

> <PUBCHEM_IUPAC_INCHIKEY>
OUHMCZPSMWROKK-UHFFFAOYSA-N

> <PUBCHEM_EXACT_MASS>
138.092376

> <PUBCHEM_MOLECULAR_FORMULA>
C5H15ClN2

> <PUBCHEM_MOLECULAR_WEIGHT>
138.639

> <PUBCHEM_OPENEYE_CAN_SMILES>
CCCCCN[NH3+].[Cl-]

> <PUBCHEM_OPENEYE_ISO_SMILES>
CCCCCN[NH3+].[Cl-]

> <PUBCHEM_CACTVS_TPSA>
39.7

> <PUBCHEM_MONOISOTOPIC_WEIGHT>
138.092376

> <PUBCHEM_TOTAL_CHARGE>
0

> <PUBCHEM_HEAVY_ATOM_COUNT>
8

> <PUBCHEM_ATOM_DEF_STEREO_COUNT>
0

> <PUBCHEM_ATOM_UDEF_STEREO_COUNT>
0

> <PUBCHEM_BOND_DEF_STEREO_COUNT>
0

> <PUBCHEM_BOND_UDEF_STEREO_COUNT>
0

> <PUBCHEM_ISOTOPIC_ATOM_COUNT>
0

> <PUBCHEM_COMPONENT_COUNT>
2

> <PUBCHEM_CACTVS_TAUTO_COUNT>
1

> <PUBCHEM_COORDINATE_TYPE>
1
5
255

$$$$

