5568
  -OEChem-06261200452D

 43 45  0     0  0  0  0  0  0999 V2000
    4.6660   -2.9827    0.0000 S   0  0  0  0  0  0  0  0  0  0  0  0
    9.0602   -0.4552    0.0000 F   0  0  0  0  0  0  0  0  0  0  0  0
    8.6995   -1.8226    0.0000 F   0  0  0  0  0  0  0  0  0  0  0  0
    7.6928   -0.0944    0.0000 F   0  0  0  0  0  0  0  0  0  0  0  0
    4.6660   -0.9827    0.0000 N   0  0  0  0  0  0  0  0  0  0  0  0
    2.9340    2.0173    0.0000 N   0  0  0  0  0  0  0  0  0  0  0  0
    4.6660    0.0173    0.0000 C   0  0  0  0  0  0  0  0  0  0  0  0
    3.8000    0.5173    0.0000 C   0  0  0  0  0  0  0  0  0  0  0  0
    5.5321   -1.4827    0.0000 C   0  0  0  0  0  0  0  0  0  0  0  0
    3.8000   -1.4827    0.0000 C   0  0  0  0  0  0  0  0  0  0  0  0
    3.8000    1.5173    0.0000 C   0  0  0  0  0  0  0  0  0  0  0  0
    5.5321   -2.4827    0.0000 C   0  0  0  0  0  0  0  0  0  0  0  0
    3.8000   -2.4827    0.0000 C   0  0  0  0  0  0  0  0  0  0  0  0
    6.4260   -0.9480    0.0000 C   0  0  0  0  0  0  0  0  0  0  0  0
    2.9061   -0.9480    0.0000 C   0  0  0  0  0  0  0  0  0  0  0  0
    7.3321   -1.4619    0.0000 C   0  0  0  0  0  0  0  0  0  0  0  0
    6.4260   -3.0173    0.0000 C   0  0  0  0  0  0  0  0  0  0  0  0
    2.9061   -3.0173    0.0000 C   0  0  0  0  0  0  0  0  0  0  0  0
    7.3321   -2.5035    0.0000 C   0  0  0  0  0  0  0  0  0  0  0  0
    2.0000   -1.4619    0.0000 C   0  0  0  0  0  0  0  0  0  0  0  0
    2.9340    3.0173    0.0000 C   0  0  0  0  0  0  0  0  0  0  0  0
    2.0680    1.5173    0.0000 C   0  0  0  0  0  0  0  0  0  0  0  0
    2.0000   -2.5035    0.0000 C   0  0  0  0  0  0  0  0  0  0  0  0
    8.1962   -0.9585    0.0000 C   0  0  0  0  0  0  0  0  0  0  0  0
    5.2766   -0.0903    0.0000 H   0  0  0  0  0  0  0  0  0  0  0  0
    4.8781    0.5999    0.0000 H   0  0  0  0  0  0  0  0  0  0  0  0
    3.1894    0.6250    0.0000 H   0  0  0  0  0  0  0  0  0  0  0  0
    3.5880   -0.0653    0.0000 H   0  0  0  0  0  0  0  0  0  0  0  0
    4.4106    1.4097    0.0000 H   0  0  0  0  0  0  0  0  0  0  0  0
    4.0121    2.0999    0.0000 H   0  0  0  0  0  0  0  0  0  0  0  0
    6.4188   -0.3280    0.0000 H   0  0  0  0  0  0  0  0  0  0  0  0
    2.9132   -0.3280    0.0000 H   0  0  0  0  0  0  0  0  0  0  0  0
    6.4188   -3.6373    0.0000 H   0  0  0  0  0  0  0  0  0  0  0  0
    2.9132   -3.6373    0.0000 H   0  0  0  0  0  0  0  0  0  0  0  0
    7.8678   -2.8156    0.0000 H   0  0  0  0  0  0  0  0  0  0  0  0
    1.4643   -1.1498    0.0000 H   0  0  0  0  0  0  0  0  0  0  0  0
    1.7580    2.0543    0.0000 H   0  0  0  0  0  0  0  0  0  0  0  0
    1.5310    1.2073    0.0000 H   0  0  0  0  0  0  0  0  0  0  0  0
    3.5540    3.0173    0.0000 H   0  0  0  0  0  0  0  0  0  0  0  0
    2.9340    3.6373    0.0000 H   0  0  0  0  0  0  0  0  0  0  0  0
    2.3140    3.0173    0.0000 H   0  0  0  0  0  0  0  0  0  0  0  0
    2.3780    0.9804    0.0000 H   0  0  0  0  0  0  0  0  0  0  0  0
    1.4643   -2.8156    0.0000 H   0  0  0  0  0  0  0  0  0  0  0  0
  1 12  1  0  0  0  0
  1 13  1  0  0  0  0
  2 24  1  0  0  0  0
  3 24  1  0  0  0  0
  4 24  1  0  0  0  0
  5  7  1  0  0  0  0
  5  9  1  0  0  0  0
  5 10  1  0  0  0  0
  6 11  1  0  0  0  0
  6 21  1  0  0  0  0
  6 22  1  0  0  0  0
  7  8  1  0  0  0  0
  7 25  1  0  0  0  0
  7 26  1  0  0  0  0
  8 11  1  0  0  0  0
  8 27  1  0  0  0  0
  8 28  1  0  0  0  0
  9 12  2  0  0  0  0
  9 14  1  0  0  0  0
 10 13  1  0  0  0  0
 10 15  2  0  0  0  0
 11 29  1  0  0  0  0
 11 30  1  0  0  0  0
 12 17  1  0  0  0  0
 13 18  2  0  0  0  0
 14 16  2  0  0  0  0
 14 31  1  0  0  0  0
 15 20  1  0  0  0  0
 15 32  1  0  0  0  0
 16 19  1  0  0  0  0
 16 24  1  0  0  0  0
 17 19  2  0  0  0  0
 17 33  1  0  0  0  0
 18 23  1  0  0  0  0
 18 34  1  0  0  0  0
 19 35  1  0  0  0  0
 20 23  2  0  0  0  0
 20 36  1  0  0  0  0
 21 39  1  0  0  0  0
 21 40  1  0  0  0  0
 21 41  1  0  0  0  0
 22 37  1  0  0  0  0
 22 38  1  0  0  0  0
 22 42  1  0  0  0  0
 23 43  1  0  0  0  0
M  END
> <PUBCHEM_COMPOUND_CID>
5568

> <PUBCHEM_COMPOUND_CANONICALIZED>
1

> <PUBCHEM_CACTVS_COMPLEXITY>
416

> <PUBCHEM_CACTVS_HBOND_ACCEPTOR>
6

> <PUBCHEM_CACTVS_HBOND_DONOR>
0

> <PUBCHEM_CACTVS_ROTATABLE_BOND>
4

> <PUBCHEM_CACTVS_SUBSKEYS>
AAADceB7AYBAAAAAAAAAAAAAAAAAAAAAAAA8YIAAAAAAAACxQAAAHQQAAAAADAjBWBQywYMAAAiAAiRCQACCAAAhChAIiBwIZIgIIGLg0ZGEIAhggADoyAcQgAAOEAAAQAAAAQAgAACAAAACAAAAAAAAAA==

> <PUBCHEM_IUPAC_OPENEYE_NAME>
N,N-dimethyl-3-[2-(trifluoromethyl)phenothiazin-10-yl]propan-1-amine

> <PUBCHEM_IUPAC_CAS_NAME>
N,N-dimethyl-3-[2-(trifluoromethyl)-10-phenothiazinyl]-1-propanamine

> <PUBCHEM_IUPAC_NAME>
N,N-dimethyl-3-[2-(trifluoromethyl)phenothiazin-10-yl]propan-1-amine

> <PUBCHEM_IUPAC_SYSTEMATIC_NAME>
N,N-dimethyl-3-[2-(trifluoromethyl)phenothiazin-10-yl]propan-1-amine

> <PUBCHEM_IUPAC_TRADITIONAL_NAME>
dimethyl-[3-[2-(trifluoromethyl)phenothiazin-10-yl]propyl]amine

> <PUBCHEM_IUPAC_INCHI>
InChI=1S/C18H19F3N2S/c1-22(2)10-5-11-23-14-6-3-4-7-16(14)24-17-9-8-13(12-15(17)23)18(19,20)21/h3-4,6-9,12H,5,10-11H2,1-2H3

> <PUBCHEM_IUPAC_INCHIKEY>
XSCGXQMFQXDFCW-UHFFFAOYSA-N

> <PUBCHEM_XLOGP3>
5.2

> <PUBCHEM_EXACT_MASS>
352.122104

> <PUBCHEM_MOLECULAR_FORMULA>
C18H19F3N2S

> <PUBCHEM_MOLECULAR_WEIGHT>
352.41707

> <PUBCHEM_OPENEYE_CAN_SMILES>
CN(C)CCCN1C2=CC=CC=C2SC3=C1C=C(C=C3)C(F)(F)F

> <PUBCHEM_OPENEYE_ISO_SMILES>
CN(C)CCCN1C2=CC=CC=C2SC3=C1C=C(C=C3)C(F)(F)F

> <PUBCHEM_CACTVS_TPSA>
31.8

> <PUBCHEM_MONOISOTOPIC_WEIGHT>
352.122104

> <PUBCHEM_TOTAL_CHARGE>
0

> <PUBCHEM_HEAVY_ATOM_COUNT>
24

> <PUBCHEM_ATOM_DEF_STEREO_COUNT>
0

> <PUBCHEM_ATOM_UDEF_STEREO_COUNT>
0

> <PUBCHEM_BOND_DEF_STEREO_COUNT>
0

> <PUBCHEM_BOND_UDEF_STEREO_COUNT>
0

> <PUBCHEM_ISOTOPIC_ATOM_COUNT>
0

> <PUBCHEM_COMPONENT_COUNT>
1

> <PUBCHEM_CACTVS_TAUTO_COUNT>
1

> <PUBCHEM_COORDINATE_TYPE>
1
5
255

> <PUBCHEM_BONDANNOTATIONS>
10  13  8
10  15  8
12  17  8
13  18  8
14  16  8
15  20  8
16  19  8
17  19  8
18  23  8
20  23  8
9  12  8
9  14  8

$$$$

