4430
  -OEChem-06261200072D

 57 64  0     1  0  0  0  0  0999 V2000
    4.7095   -0.8410    0.0000 O   0  0  0  0  0  0  0  0  0  0  0  0
    7.9191    0.7765    0.0000 O   0  0  0  0  0  0  0  0  0  0  0  0
    2.5381    0.0787    0.0000 O   0  0  0  0  0  0  0  0  0  0  0  0
    6.5124    1.5938    0.0000 N   0  0  3  0  0  0  0  0  0  0  0  0
    6.5432   -2.3808    0.0000 N   0  0  0  0  0  0  0  0  0  0  0  0
    6.0682    0.1028    0.0000 C   0  0  3  0  0  0  0  0  0  0  0  0
    6.9343    0.6028    0.0000 C   0  0  3  0  0  0  0  0  0  0  0  0
    6.9343    1.6029    0.0000 C   0  0  3  0  0  0  0  0  0  0  0  0
    5.7031   -0.8215    0.0000 C   0  0  3  0  0  0  0  0  0  0  0  0
    5.8652    0.4728    0.0000 C   0  0  0  0  0  0  0  0  0  0  0  0
    5.2022    0.6028    0.0000 C   0  0  0  0  0  0  0  0  0  0  0  0
    7.6256   -0.0966    0.0000 C   0  0  0  0  0  0  0  0  0  0  0  0
    6.0682    2.1028    0.0000 C   0  0  0  0  0  0  0  0  0  0  0  0
    5.7815    1.2684    0.0000 C   0  0  0  0  0  0  0  0  0  0  0  0
    5.2022    1.6029    0.0000 C   0  0  0  0  0  0  0  0  0  0  0  0
    6.4953   -1.4043    0.0000 C   0  0  0  0  0  0  0  0  0  0  0  0
    7.4155   -1.0574    0.0000 C   0  0  0  0  0  0  0  0  0  0  0  0
    6.7203    2.5719    0.0000 C   0  0  0  0  0  0  0  0  0  0  0  0
    4.3083    0.0682    0.0000 C   0  0  0  0  0  0  0  0  0  0  0  0
    7.6713    2.8809    0.0000 C   0  0  0  0  0  0  0  0  0  0  0  0
    8.6495    2.6730    0.0000 C   0  0  0  0  0  0  0  0  0  0  0  0
    8.3405    3.6241    0.0000 C   0  0  0  0  0  0  0  0  0  0  0  0
    8.0242   -1.8224    0.0000 C   0  0  0  0  0  0  0  0  0  0  0  0
    4.3083    2.1375    0.0000 C   0  0  0  0  0  0  0  0  0  0  0  0
    3.4022    0.5820    0.0000 C   0  0  0  0  0  0  0  0  0  0  0  0
    7.4862   -2.6386    0.0000 C   0  0  0  0  0  0  0  0  0  0  0  0
    3.4022    1.6237    0.0000 C   0  0  0  0  0  0  0  0  0  0  0  0
    9.0416   -1.8669    0.0000 C   0  0  0  0  0  0  0  0  0  0  0  0
    7.9282   -3.5560    0.0000 C   0  0  0  0  0  0  0  0  0  0  0  0
    9.5047   -2.7738    0.0000 C   0  0  0  0  0  0  0  0  0  0  0  0
    8.9443   -3.6241    0.0000 C   0  0  0  0  0  0  0  0  0  0  0  0
    7.4712    1.9128    0.0000 H   0  0  0  0  0  0  0  0  0  0  0  0
    5.5156   -1.4124    0.0000 H   0  0  0  0  0  0  0  0  0  0  0  0
    5.2704    0.6479    0.0000 H   0  0  0  0  0  0  0  0  0  0  0  0
    6.4568    0.6580    0.0000 H   0  0  0  0  0  0  0  0  0  0  0  0
    8.1949   -0.3422    0.0000 H   0  0  0  0  0  0  0  0  0  0  0  0
    7.9753    0.4154    0.0000 H   0  0  0  0  0  0  0  0  0  0  0  0
    6.4668    2.5778    0.0000 H   0  0  0  0  0  0  0  0  0  0  0  0
    5.6697    2.5778    0.0000 H   0  0  0  0  0  0  0  0  0  0  0  0
    5.5899    1.8580    0.0000 H   0  0  0  0  0  0  0  0  0  0  0  0
    5.1751    1.1395    0.0000 H   0  0  0  0  0  0  0  0  0  0  0  0
    6.6340    3.1859    0.0000 H   0  0  0  0  0  0  0  0  0  0  0  0
    6.1007    2.5936    0.0000 H   0  0  0  0  0  0  0  0  0  0  0  0
    7.7038    2.2618    0.0000 H   0  0  0  0  0  0  0  0  0  0  0  0
    8.1311    1.3591    0.0000 H   0  0  0  0  0  0  0  0  0  0  0  0
    8.6278    2.0534    0.0000 H   0  0  0  0  0  0  0  0  0  0  0  0
    8.8879    3.9152    0.0000 H   0  0  0  0  0  0  0  0  0  0  0  0
    7.9588    4.1126    0.0000 H   0  0  0  0  0  0  0  0  0  0  0  0
    9.2634    2.7593    0.0000 H   0  0  0  0  0  0  0  0  0  0  0  0
    6.0597   -2.7689    0.0000 H   0  0  0  0  0  0  0  0  0  0  0  0
    4.3154    2.7575    0.0000 H   0  0  0  0  0  0  0  0  0  0  0  0
    2.8665    1.9357    0.0000 H   0  0  0  0  0  0  0  0  0  0  0  0
    9.3768   -1.3453    0.0000 H   0  0  0  0  0  0  0  0  0  0  0  0
    7.5810   -4.0697    0.0000 H   0  0  0  0  0  0  0  0  0  0  0  0
    2.0000    0.3866    0.0000 H   0  0  0  0  0  0  0  0  0  0  0  0
   10.1238   -2.8081    0.0000 H   0  0  0  0  0  0  0  0  0  0  0  0
    9.2198   -4.1795    0.0000 H   0  0  0  0  0  0  0  0  0  0  0  0
  1  9  1  0  0  0  0
  1 19  1  0  0  0  0
  2  7  1  0  0  0  0
  2 45  1  0  0  0  0
  3 25  1  0  0  0  0
  3 55  1  0  0  0  0
  4  8  1  0  0  0  0
  4 14  1  0  0  0  0
  4 18  1  0  0  0  0
  5 16  1  0  0  0  0
  5 26  1  0  0  0  0
  5 50  1  0  0  0  0
  6  7  1  0  0  0  0
  6  9  1  0  0  0  0
  6 10  1  0  0  0  0
  6 11  1  0  0  0  0
  7  8  1  0  0  0  0
  7 12  1  0  0  0  0
  8 13  1  0  0  0  0
  8 32  1  0  0  0  0
  9 16  1  0  0  0  0
  9 33  1  0  0  0  0
 10 14  1  0  0  0  0
 10 34  1  0  0  0  0
 10 35  1  0  0  0  0
 11 15  2  0  0  0  0
 11 19  1  0  0  0  0
 12 17  1  0  0  0  0
 12 36  1  0  0  0  0
 12 37  1  0  0  0  0
 13 15  1  0  0  0  0
 13 38  1  0  0  0  0
 13 39  1  0  0  0  0
 14 40  1  0  0  0  0
 14 41  1  0  0  0  0
 15 24  1  0  0  0  0
 16 17  2  0  0  0  0
 17 23  1  0  0  0  0
 18 20  1  0  0  0  0
 18 42  1  0  0  0  0
 18 43  1  0  0  0  0
 19 25  2  0  0  0  0
 20 21  1  0  0  0  0
 20 22  1  0  0  0  0
 20 44  1  0  0  0  0
 21 22  1  0  0  0  0
 21 46  1  0  0  0  0
 21 49  1  0  0  0  0
 22 47  1  0  0  0  0
 22 48  1  0  0  0  0
 23 26  1  0  0  0  0
 23 28  2  0  0  0  0
 24 27  2  0  0  0  0
 24 51  1  0  0  0  0
 25 27  1  0  0  0  0
 26 29  2  0  0  0  0
 27 52  1  0  0  0  0
 28 30  1  0  0  0  0
 28 53  1  0  0  0  0
 29 31  1  0  0  0  0
 29 54  1  0  0  0  0
 30 31  2  0  0  0  0
 30 56  1  0  0  0  0
 31 57  1  0  0  0  0
M  END
> <PUBCHEM_COMPOUND_CID>
4430

> <PUBCHEM_COMPOUND_CANONICALIZED>
1

> <PUBCHEM_CACTVS_COMPLEXITY>
774

> <PUBCHEM_CACTVS_HBOND_ACCEPTOR>
4

> <PUBCHEM_CACTVS_HBOND_DONOR>
3

> <PUBCHEM_CACTVS_ROTATABLE_BOND>
2

> <PUBCHEM_CACTVS_SUBSKEYS>
AAADceB7MAAAAAAAAAAAAAAAGAAAAWJAAAA8YMGCAAAWAFjx9AAAHgAQCAAAD3zhngYwxvPJlgCgAyRiRASCiCAhIiAImSA+7JgPJuLGsZuHeCvl0BHb+Afw8P8PoAABAAAaQADQgAaQADSgAAAAAAAAAA==

> <PUBCHEM_IUPAC_INCHI>
InChI=1S/C26H26N2O3/c29-19-8-7-15-11-20-26(30)12-17-16-3-1-2-4-18(16)27-22(17)24-25(26,21(15)23(19)31-24)9-10-28(20)13-14-5-6-14/h1-4,7-8,14,20,24,27,29-30H,5-6,9-13H2

> <PUBCHEM_IUPAC_INCHIKEY>
WIYUZYBFCWCCQJ-UHFFFAOYSA-N

> <PUBCHEM_XLOGP3_AA>
3.3

> <PUBCHEM_EXACT_MASS>
414.194343

> <PUBCHEM_MOLECULAR_FORMULA>
C26H26N2O3

> <PUBCHEM_MOLECULAR_WEIGHT>
414.49624

> <PUBCHEM_OPENEYE_CAN_SMILES>
C1CC1CN2CCC34C5C6=C(CC3(C2CC7=C4C(=C(C=C7)O)O5)O)C8=CC=CC=C8N6

> <PUBCHEM_OPENEYE_ISO_SMILES>
C1CC1CN2CCC34C5C6=C(CC3(C2CC7=C4C(=C(C=C7)O)O5)O)C8=CC=CC=C8N6

> <PUBCHEM_CACTVS_TPSA>
68.7

> <PUBCHEM_MONOISOTOPIC_WEIGHT>
414.194343

> <PUBCHEM_TOTAL_CHARGE>
0

> <PUBCHEM_HEAVY_ATOM_COUNT>
31

> <PUBCHEM_ATOM_DEF_STEREO_COUNT>
0

> <PUBCHEM_ATOM_UDEF_STEREO_COUNT>
4

> <PUBCHEM_BOND_DEF_STEREO_COUNT>
0

> <PUBCHEM_BOND_UDEF_STEREO_COUNT>
0

> <PUBCHEM_ISOTOPIC_ATOM_COUNT>
0

> <PUBCHEM_COMPONENT_COUNT>
1

> <PUBCHEM_CACTVS_TAUTO_COUNT>
2

> <PUBCHEM_COORDINATE_TYPE>
1
5
255

> <PUBCHEM_BONDANNOTATIONS>
9  1  3
11  15  8
11  19  8
15  24  8
16  17  8
17  23  8
19  25  8
7  2  3
23  26  8
23  28  8
24  27  8
25  27  8
26  29  8
28  30  8
29  31  8
30  31  8
5  16  8
5  26  8
6  10  3
8  13  3

$$$$

