47205179
  -OEChem-06241222582D

 33 34  0     1  0  0  0  0  0999 V2000
    3.3625   -5.0514    0.0000 Br  0  0  0  0  0  0  0  0  0  0  0  0
    4.4444    4.2424    0.0000 S   0  0  0  0  0  0  0  0  0  0  0  0
    4.4839   -3.6666    0.0000 S   0  0  0  0  0  0  0  0  0  0  0  0
    5.0322    5.0514    0.0000 O   0  0  0  0  0  0  0  0  0  0  0  0
    3.8566    5.0514    0.0000 O   0  0  0  0  0  0  0  0  0  0  0  0
    4.7579    0.8765    0.0000 O   0  0  0  0  0  0  0  0  0  0  0  0
    2.0000   -1.4460    0.0000 O   0  0  0  0  0  0  0  0  0  0  0  0
    3.3566    1.8946    0.0000 N   0  0  0  0  0  0  0  0  0  0  0  0
    3.5823   -0.7416    0.0000 N   0  0  0  0  0  0  0  0  0  0  0  0
    3.9444    2.7036    0.0000 C   0  0  3  0  0  0  0  0  0  0  0  0
    3.6354    3.6546    0.0000 C   0  0  0  0  0  0  0  0  0  0  0  0
    4.9444    2.7036    0.0000 C   0  0  0  0  0  0  0  0  0  0  0  0
    5.2534    3.6546    0.0000 C   0  0  0  0  0  0  0  0  0  0  0  0
    3.7634    0.9810    0.0000 C   0  0  0  0  0  0  0  0  0  0  0  0
    3.1756    0.1720    0.0000 C   0  0  0  0  0  0  0  0  0  0  0  0
    2.9945   -1.5506    0.0000 C   0  0  0  0  0  0  0  0  0  0  0  0
    3.4013   -2.4641    0.0000 C   0  0  0  0  0  0  0  0  0  0  0  0
    2.9013   -3.3301    0.0000 C   0  0  0  0  0  0  0  0  0  0  0  0
    4.3794   -2.6720    0.0000 C   0  0  0  0  0  0  0  0  0  0  0  0
    3.5704   -4.0733    0.0000 C   0  0  0  0  0  0  0  0  0  0  0  0
    3.3320    2.8006    0.0000 H   0  0  0  0  0  0  0  0  0  0  0  0
    3.3254    4.1916    0.0000 H   0  0  0  0  0  0  0  0  0  0  0  0
    3.0690    3.4024    0.0000 H   0  0  0  0  0  0  0  0  0  0  0  0
    4.8796    2.0870    0.0000 H   0  0  0  0  0  0  0  0  0  0  0  0
    5.5509    2.5747    0.0000 H   0  0  0  0  0  0  0  0  0  0  0  0
    5.8198    3.4024    0.0000 H   0  0  0  0  0  0  0  0  0  0  0  0
    5.5634    4.1916    0.0000 H   0  0  0  0  0  0  0  0  0  0  0  0
    2.7400    1.9594    0.0000 H   0  0  0  0  0  0  0  0  0  0  0  0
    2.7449    0.6180    0.0000 H   0  0  0  0  0  0  0  0  0  0  0  0
    2.6616   -0.1747    0.0000 H   0  0  0  0  0  0  0  0  0  0  0  0
    4.1989   -0.8064    0.0000 H   0  0  0  0  0  0  0  0  0  0  0  0
    2.2846   -3.3950    0.0000 H   0  0  0  0  0  0  0  0  0  0  0  0
    4.8402   -2.2572    0.0000 H   0  0  0  0  0  0  0  0  0  0  0  0
  1 20  1  0  0  0  0
  2  4  2  0  0  0  0
  2  5  2  0  0  0  0
  2 11  1  0  0  0  0
  2 13  1  0  0  0  0
  3 19  1  0  0  0  0
  3 20  1  0  0  0  0
  6 14  2  0  0  0  0
  7 16  2  0  0  0  0
  8 10  1  0  0  0  0
  8 14  1  0  0  0  0
  8 28  1  0  0  0  0
  9 15  1  0  0  0  0
  9 16  1  0  0  0  0
  9 31  1  0  0  0  0
 10 11  1  0  0  0  0
 10 12  1  0  0  0  0
 10 21  1  0  0  0  0
 11 22  1  0  0  0  0
 11 23  1  0  0  0  0
 12 13  1  0  0  0  0
 12 24  1  0  0  0  0
 12 25  1  0  0  0  0
 13 26  1  0  0  0  0
 13 27  1  0  0  0  0
 14 15  1  0  0  0  0
 15 29  1  0  0  0  0
 15 30  1  0  0  0  0
 16 17  1  0  0  0  0
 17 18  1  0  0  0  0
 17 19  2  0  0  0  0
 18 20  2  0  0  0  0
 18 32  1  0  0  0  0
 19 33  1  0  0  0  0
M  END
> <PUBCHEM_COMPOUND_CID>
47205179

> <PUBCHEM_COMPOUND_CANONICALIZED>
1

> <PUBCHEM_CACTVS_COMPLEXITY>
491

> <PUBCHEM_CACTVS_HBOND_ACCEPTOR>
5

> <PUBCHEM_CACTVS_HBOND_DONOR>
2

> <PUBCHEM_CACTVS_ROTATABLE_BOND>
4

> <PUBCHEM_CACTVS_SUBSKEYS>
AAADccBzOABgEAAAAAAAAAAAAAAAASJAAAAAAAAAAAAAAAABgAAAHgRQAAABLCjF2ASwAYLAAAqMAiFSEHDDAIAkCBRAiJmIBOgIYBAghSEUAQhAFgCgA5AAAAAIAAAAAAAAAAAAAAAAAAAAAAAAAAAAAA==

> <PUBCHEM_IUPAC_OPENEYE_NAME>
5-bromo-N-[2-[(1,1-dioxothiolan-3-yl)amino]-2-oxo-ethyl]thiophene-3-carboxamide

> <PUBCHEM_IUPAC_CAS_NAME>
5-bromo-N-[2-[(1,1-dioxo-3-thiolanyl)amino]-2-oxoethyl]-3-thiophenecarboxamide

> <PUBCHEM_IUPAC_NAME>
5-bromo-N-[2-[(1,1-dioxothiolan-3-yl)amino]-2-oxoethyl]thiophene-3-carboxamide

> <PUBCHEM_IUPAC_SYSTEMATIC_NAME>
N-[2-[[1,1-bis(oxidanylidene)thiolan-3-yl]amino]-2-oxidanylidene-ethyl]-5-bromanyl-thiophene-3-carboxamide

> <PUBCHEM_IUPAC_TRADITIONAL_NAME>
5-bromo-N-[2-[(1,1-diketothiolan-3-yl)amino]-2-keto-ethyl]thiophene-3-carboxamide

> <PUBCHEM_IUPAC_INCHI>
InChI=1S/C11H13BrN2O4S2/c12-9-3-7(5-19-9)11(16)13-4-10(15)14-8-1-2-20(17,18)6-8/h3,5,8H,1-2,4,6H2,(H,13,16)(H,14,15)

> <PUBCHEM_IUPAC_INCHIKEY>
KFIIPSKBYOFZAK-UHFFFAOYSA-N

> <PUBCHEM_XLOGP3_AA>
0.8

> <PUBCHEM_EXACT_MASS>
379.950011

> <PUBCHEM_MOLECULAR_FORMULA>
C11H13BrN2O4S2

> <PUBCHEM_MOLECULAR_WEIGHT>
381.26592

> <PUBCHEM_OPENEYE_CAN_SMILES>
C1CS(=O)(=O)CC1NC(=O)CNC(=O)C2=CSC(=C2)Br

> <PUBCHEM_OPENEYE_ISO_SMILES>
C1CS(=O)(=O)CC1NC(=O)CNC(=O)C2=CSC(=C2)Br

> <PUBCHEM_CACTVS_TPSA>
129

> <PUBCHEM_MONOISOTOPIC_WEIGHT>
379.950011

> <PUBCHEM_TOTAL_CHARGE>
0

> <PUBCHEM_HEAVY_ATOM_COUNT>
20

> <PUBCHEM_ATOM_DEF_STEREO_COUNT>
0

> <PUBCHEM_ATOM_UDEF_STEREO_COUNT>
1

> <PUBCHEM_BOND_DEF_STEREO_COUNT>
0

> <PUBCHEM_BOND_UDEF_STEREO_COUNT>
0

> <PUBCHEM_ISOTOPIC_ATOM_COUNT>
0

> <PUBCHEM_COMPONENT_COUNT>
1

> <PUBCHEM_CACTVS_TAUTO_COUNT>
4

> <PUBCHEM_COORDINATE_TYPE>
1
5
255

> <PUBCHEM_BONDANNOTATIONS>
17  18  8
17  19  8
18  20  8
3  19  8
3  20  8
10  8  3

$$$$

