13148
  -OEChem-06261207492D

  7  5  0     0  0  0  0  0  0999 V2000
    2.0000   -0.5861    0.0000 Cu  0  2  0  0  0  0  0  0  0  0  0  0
    2.8090   -1.1739    0.0000 O   0  5  0  0  0  0  0  0  0  0  0  0
    2.3090    0.3649    0.0000 O   0  5  0  0  0  0  0  0  0  0  0  0
    4.5691   -0.8952    0.0000 O   0  0  0  0  0  0  0  0  0  0  0  0
    3.8968    1.1739    0.0000 O   0  0  0  0  0  0  0  0  0  0  0  0
    3.6180   -0.5861    0.0000 C   0  0  0  0  0  0  0  0  0  0  0  0
    3.3090    0.3649    0.0000 C   0  0  0  0  0  0  0  0  0  0  0  0
  2  6  1  0  0  0  0
  3  7  1  0  0  0  0
  4  6  2  0  0  0  0
  5  7  2  0  0  0  0
  6  7  1  0  0  0  0
M  CHG  3   1   2   2  -1   3  -1
M  END
> <PUBCHEM_COMPOUND_CID>
13148

> <PUBCHEM_COMPOUND_CANONICALIZED>
1

> <PUBCHEM_CACTVS_COMPLEXITY>
60.5

> <PUBCHEM_CACTVS_HBOND_ACCEPTOR>
4

> <PUBCHEM_CACTVS_HBOND_DONOR>
0

> <PUBCHEM_CACTVS_ROTATABLE_BOND>
0

> <PUBCHEM_CACTVS_SUBSKEYS>
AAADcQBAOAAAAAAEAAAAAAAAAAAAAAAAAAAAAAAAAAAAAAAAAAAACgAAAAAAAAAAgAAACAAAAAAIAACQCAIAAAAAAAAAAABAAAABAAAAAAAAAAAAAAAAAAAAAAAAAAAAAAAAAAAAAAAAAAAAAAAAAAAAAA==

> <PUBCHEM_IUPAC_OPENEYE_NAME>
copper oxalate

> <PUBCHEM_IUPAC_CAS_NAME>
copper oxalate

> <PUBCHEM_IUPAC_NAME>
copper oxalate

> <PUBCHEM_IUPAC_SYSTEMATIC_NAME>
copper ethanedioate

> <PUBCHEM_IUPAC_TRADITIONAL_NAME>
cupric oxalate

> <PUBCHEM_IUPAC_INCHI>
InChI=1S/C2H2O4.Cu/c3-1(4)2(5)6;/h(H,3,4)(H,5,6);/q;+2/p-2

> <PUBCHEM_IUPAC_INCHIKEY>
QYCVHILLJSYYBD-UHFFFAOYSA-L

> <PUBCHEM_EXACT_MASS>
150.909256

> <PUBCHEM_MOLECULAR_FORMULA>
C2CuO4

> <PUBCHEM_MOLECULAR_WEIGHT>
151.565

> <PUBCHEM_OPENEYE_CAN_SMILES>
C(=O)(C(=O)[O-])[O-].[Cu+2]

> <PUBCHEM_OPENEYE_ISO_SMILES>
C(=O)(C(=O)[O-])[O-].[Cu+2]

> <PUBCHEM_CACTVS_TPSA>
80.3

> <PUBCHEM_MONOISOTOPIC_WEIGHT>
150.909256

> <PUBCHEM_TOTAL_CHARGE>
0

> <PUBCHEM_HEAVY_ATOM_COUNT>
7

> <PUBCHEM_ATOM_DEF_STEREO_COUNT>
0

> <PUBCHEM_ATOM_UDEF_STEREO_COUNT>
0

> <PUBCHEM_BOND_DEF_STEREO_COUNT>
0

> <PUBCHEM_BOND_UDEF_STEREO_COUNT>
0

> <PUBCHEM_ISOTOPIC_ATOM_COUNT>
0

> <PUBCHEM_COMPONENT_COUNT>
2

> <PUBCHEM_CACTVS_TAUTO_COUNT>
1

> <PUBCHEM_COORDINATE_TYPE>
1
5
255

$$$$

