10732
  -OEChem-06261204532D

 23 22  0     1  0  0  0  0  0999 V2000
    3.6108    4.1200    0.0000 O   0  0  0  0  0  0  0  0  0  0  0  0
    5.3429    5.1200    0.0000 O   0  0  0  0  0  0  0  0  0  0  0  0
    6.2089    3.6200    0.0000 O   0  0  0  0  0  0  0  0  0  0  0  0
    0.5369    2.8700    0.0000 N   0  0  0  0  0  0  0  0  0  0  0  0
    4.4768    2.6200    0.0000 C   0  0  0  0  0  0  0  0  0  0  0  0
    4.4768    3.6200    0.0000 C   0  0  3  0  0  0  0  0  0  0  0  0
    3.6108    2.1200    0.0000 C   0  0  0  0  0  0  0  0  0  0  0  0
    5.3429    2.1200    0.0000 C   0  0  0  0  0  0  0  0  0  0  0  0
    3.6108    1.1200    0.0000 C   0  0  0  0  0  0  0  0  0  0  0  0
    5.3429    1.1200    0.0000 C   0  0  0  0  0  0  0  0  0  0  0  0
    4.4768    0.6200    0.0000 C   0  0  0  0  0  0  0  0  0  0  0  0
    5.3429    4.1200    0.0000 C   0  0  0  0  0  0  0  0  0  0  0  0
    4.4768    4.4700    0.0000 H   0  0  0  0  0  0  0  0  0  0  0  0
    3.0739    2.4300    0.0000 H   0  0  0  0  0  0  0  0  0  0  0  0
    5.8798    2.4300    0.0000 H   0  0  0  0  0  0  0  0  0  0  0  0
    3.0739    0.8100    0.0000 H   0  0  0  0  0  0  0  0  0  0  0  0
    5.8798    0.8100    0.0000 H   0  0  0  0  0  0  0  0  0  0  0  0
    4.4768    0.0000    0.0000 H   0  0  0  0  0  0  0  0  0  0  0  0
    3.6108    4.7400    0.0000 H   0  0  0  0  0  0  0  0  0  0  0  0
    5.8798    5.4300    0.0000 H   0  0  0  0  0  0  0  0  0  0  0  0
    1.0739    3.1800    0.0000 H   0  0  0  0  0  0  0  0  0  0  0  0
    0.0000    3.1800    0.0000 H   0  0  0  0  0  0  0  0  0  0  0  0
    0.5369    2.2500    0.0000 H   0  0  0  0  0  0  0  0  0  0  0  0
  1  6  1  0  0  0  0
  1 19  1  0  0  0  0
  2 12  1  0  0  0  0
  2 20  1  0  0  0  0
  3 12  2  0  0  0  0
  4 21  1  0  0  0  0
  4 22  1  0  0  0  0
  4 23  1  0  0  0  0
  5  6  1  0  0  0  0
  5  7  2  0  0  0  0
  5  8  1  0  0  0  0
  6 12  1  0  0  0  0
  6 13  1  0  0  0  0
  7  9  1  0  0  0  0
  7 14  1  0  0  0  0
  8 10  2  0  0  0  0
  8 15  1  0  0  0  0
  9 11  2  0  0  0  0
  9 16  1  0  0  0  0
 10 11  1  0  0  0  0
 10 17  1  0  0  0  0
 11 18  1  0  0  0  0
M  END
> <PUBCHEM_COMPOUND_CID>
10732

> <PUBCHEM_COMPOUND_CANONICALIZED>
1

> <PUBCHEM_CACTVS_COMPLEXITY>
138

> <PUBCHEM_CACTVS_HBOND_ACCEPTOR>
4

> <PUBCHEM_CACTVS_HBOND_DONOR>
3

> <PUBCHEM_CACTVS_ROTATABLE_BOND>
2

> <PUBCHEM_CACTVS_SUBSKEYS>
AAADccByMAAAAAAAAAAAAAAAAAAAAAAAAAAwAAAAAAAAAAABAAAAGgAQCAAADBSgmAIwCIAAAgCIAiDSCAICAAAgAAAIiAFACIgJNjKAFRCAcAAkwAEJmAeIyKCOAAAAAAAAAAAAAAAAAAAAAAAAAAAAAA==

> <PUBCHEM_IUPAC_OPENEYE_NAME>
ammonia; 2-hydroxy-2-phenyl-acetic acid

> <PUBCHEM_IUPAC_CAS_NAME>
ammonia; 2-hydroxy-2-phenylacetic acid

> <PUBCHEM_IUPAC_NAME>
azane; 2-hydroxy-2-phenylacetic acid

> <PUBCHEM_IUPAC_SYSTEMATIC_NAME>
azane; 2-oxidanyl-2-phenyl-ethanoic acid

> <PUBCHEM_IUPAC_TRADITIONAL_NAME>
ammonia; madelic acid

> <PUBCHEM_IUPAC_INCHI>
InChI=1S/C8H8O3.H3N/c9-7(8(10)11)6-4-2-1-3-5-6;/h1-5,7,9H,(H,10,11);1H3

> <PUBCHEM_IUPAC_INCHIKEY>
BDEXTKUJIZCFST-UHFFFAOYSA-N

> <PUBCHEM_EXACT_MASS>
169.073893

> <PUBCHEM_MOLECULAR_FORMULA>
C8H11NO3

> <PUBCHEM_MOLECULAR_WEIGHT>
169.17784

> <PUBCHEM_OPENEYE_CAN_SMILES>
C1=CC=C(C=C1)C(C(=O)O)O.N

> <PUBCHEM_OPENEYE_ISO_SMILES>
C1=CC=C(C=C1)C(C(=O)O)O.N

> <PUBCHEM_CACTVS_TPSA>
58.5

> <PUBCHEM_MONOISOTOPIC_WEIGHT>
169.073893

> <PUBCHEM_TOTAL_CHARGE>
0

> <PUBCHEM_HEAVY_ATOM_COUNT>
12

> <PUBCHEM_ATOM_DEF_STEREO_COUNT>
0

> <PUBCHEM_ATOM_UDEF_STEREO_COUNT>
1

> <PUBCHEM_BOND_DEF_STEREO_COUNT>
0

> <PUBCHEM_BOND_UDEF_STEREO_COUNT>
0

> <PUBCHEM_ISOTOPIC_ATOM_COUNT>
0

> <PUBCHEM_COMPONENT_COUNT>
2

> <PUBCHEM_CACTVS_TAUTO_COUNT>
1

> <PUBCHEM_COORDINATE_TYPE>
1
5
255

> <PUBCHEM_BONDANNOTATIONS>
10  11  8
5  7  8
5  8  8
6  13  3
7  9  8
8  10  8
9  11  8

$$$$

