17395921
  -OEChem-06241222532D

 43 44  0     0  0  0  0  0  0999 V2000
    2.8660   -1.1900    0.0000 O   0  0  0  0  0  0  0  0  0  0  0  0
    6.3301   -1.1900    0.0000 O   0  0  0  0  0  0  0  0  0  0  0  0
    6.3301   -4.1900    0.0000 N   0  0  0  0  0  0  0  0  0  0  0  0
    3.7320    0.3100    0.0000 N   0  0  0  0  0  0  0  0  0  0  0  0
    7.1962   -2.6900    0.0000 N   0  0  0  0  0  0  0  0  0  0  0  0
    4.5981   -2.1900    0.0000 C   0  0  0  0  0  0  0  0  0  0  0  0
    5.4641   -2.6900    0.0000 C   0  0  0  0  0  0  0  0  0  0  0  0
    4.5981   -1.1900    0.0000 C   0  0  0  0  0  0  0  0  0  0  0  0
    5.4641   -3.6900    0.0000 C   0  0  0  0  0  0  0  0  0  0  0  0
    3.7320   -0.6900    0.0000 C   0  0  0  0  0  0  0  0  0  0  0  0
    2.8660    0.8100    0.0000 C   0  0  0  0  0  0  0  0  0  0  0  0
    6.3301   -2.1900    0.0000 C   0  0  0  0  0  0  0  0  0  0  0  0
    2.8660    1.8100    0.0000 C   0  0  0  0  0  0  0  0  0  0  0  0
    7.1962   -3.6900    0.0000 C   0  0  0  0  0  0  0  0  0  0  0  0
    4.5981   -4.1900    0.0000 C   0  0  0  0  0  0  0  0  0  0  0  0
    3.7320    2.3100    0.0000 C   0  0  0  0  0  0  0  0  0  0  0  0
    2.0000    2.3100    0.0000 C   0  0  0  0  0  0  0  0  0  0  0  0
    2.8660    3.8100    0.0000 C   0  0  0  0  0  0  0  0  0  0  0  0
    3.7320    3.3100    0.0000 C   0  0  0  0  0  0  0  0  0  0  0  0
    2.0000    3.3100    0.0000 C   0  0  0  0  0  0  0  0  0  0  0  0
    8.0622   -4.1900    0.0000 C   0  0  0  0  0  0  0  0  0  0  0  0
    2.8660    4.8100    0.0000 C   0  0  0  0  0  0  0  0  0  0  0  0
    3.9875   -2.0823    0.0000 H   0  0  0  0  0  0  0  0  0  0  0  0
    4.3860   -2.7726    0.0000 H   0  0  0  0  0  0  0  0  0  0  0  0
    5.2087   -1.2977    0.0000 H   0  0  0  0  0  0  0  0  0  0  0  0
    4.8101   -0.6074    0.0000 H   0  0  0  0  0  0  0  0  0  0  0  0
    2.2554    0.9177    0.0000 H   0  0  0  0  0  0  0  0  0  0  0  0
    2.6540    0.2274    0.0000 H   0  0  0  0  0  0  0  0  0  0  0  0
    6.3301   -4.8100    0.0000 H   0  0  0  0  0  0  0  0  0  0  0  0
    4.2690    0.6200    0.0000 H   0  0  0  0  0  0  0  0  0  0  0  0
    4.2881   -3.6531    0.0000 H   0  0  0  0  0  0  0  0  0  0  0  0
    4.0611   -4.5000    0.0000 H   0  0  0  0  0  0  0  0  0  0  0  0
    4.9081   -4.7269    0.0000 H   0  0  0  0  0  0  0  0  0  0  0  0
    4.2690    2.0000    0.0000 H   0  0  0  0  0  0  0  0  0  0  0  0
    1.4631    2.0000    0.0000 H   0  0  0  0  0  0  0  0  0  0  0  0
    4.2690    3.6200    0.0000 H   0  0  0  0  0  0  0  0  0  0  0  0
    1.4631    3.6200    0.0000 H   0  0  0  0  0  0  0  0  0  0  0  0
    7.7522   -4.7269    0.0000 H   0  0  0  0  0  0  0  0  0  0  0  0
    8.5991   -4.5000    0.0000 H   0  0  0  0  0  0  0  0  0  0  0  0
    8.3722   -3.6531    0.0000 H   0  0  0  0  0  0  0  0  0  0  0  0
    3.4860    4.8100    0.0000 H   0  0  0  0  0  0  0  0  0  0  0  0
    2.8660    5.4300    0.0000 H   0  0  0  0  0  0  0  0  0  0  0  0
    2.2460    4.8100    0.0000 H   0  0  0  0  0  0  0  0  0  0  0  0
  1 10  2  0  0  0  0
  2 12  2  0  0  0  0
  3  9  1  0  0  0  0
  3 14  1  0  0  0  0
  3 29  1  0  0  0  0
  4 10  1  0  0  0  0
  4 11  1  0  0  0  0
  4 30  1  0  0  0  0
  5 12  1  0  0  0  0
  5 14  2  0  0  0  0
  6  7  1  0  0  0  0
  6  8  1  0  0  0  0
  6 23  1  0  0  0  0
  6 24  1  0  0  0  0
  7  9  2  0  0  0  0
  7 12  1  0  0  0  0
  8 10  1  0  0  0  0
  8 25  1  0  0  0  0
  8 26  1  0  0  0  0
  9 15  1  0  0  0  0
 11 13  1  0  0  0  0
 11 27  1  0  0  0  0
 11 28  1  0  0  0  0
 13 16  2  0  0  0  0
 13 17  1  0  0  0  0
 14 21  1  0  0  0  0
 15 31  1  0  0  0  0
 15 32  1  0  0  0  0
 15 33  1  0  0  0  0
 16 19  1  0  0  0  0
 16 34  1  0  0  0  0
 17 20  2  0  0  0  0
 17 35  1  0  0  0  0
 18 19  2  0  0  0  0
 18 20  1  0  0  0  0
 18 22  1  0  0  0  0
 19 36  1  0  0  0  0
 20 37  1  0  0  0  0
 21 38  1  0  0  0  0
 21 39  1  0  0  0  0
 21 40  1  0  0  0  0
 22 41  1  0  0  0  0
 22 42  1  0  0  0  0
 22 43  1  0  0  0  0
M  END
> <PUBCHEM_COMPOUND_CID>
17395921

> <PUBCHEM_COMPOUND_CANONICALIZED>
1

> <PUBCHEM_CACTVS_COMPLEXITY>
500

> <PUBCHEM_CACTVS_HBOND_ACCEPTOR>
2

> <PUBCHEM_CACTVS_HBOND_DONOR>
2

> <PUBCHEM_CACTVS_ROTATABLE_BOND>
5

> <PUBCHEM_CACTVS_SUBSKEYS>
AAADceB7MAAAAAAAAAAAAAAAAAAAAAAAAAAwQAAAAAAAAAABAAAAHgAQAAAADAjBmAQzAILAAACoAidydACCAAEgAAAJiIEYBMgIIDKAmRGEIAhglgCIiUcYgwAOQAAAAAAAAACAAAAAAAAAAAAAAAAAAA==

> <PUBCHEM_IUPAC_OPENEYE_NAME>
3-(2,6-dimethyl-4-oxo-1H-pyrimidin-5-yl)-N-(p-tolylmethyl)propanamide

> <PUBCHEM_IUPAC_CAS_NAME>
3-(2,6-dimethyl-4-oxo-1H-pyrimidin-5-yl)-N-[(4-methylphenyl)methyl]propanamide

> <PUBCHEM_IUPAC_NAME>
3-(2,6-dimethyl-4-oxo-1H-pyrimidin-5-yl)-N-[(4-methylphenyl)methyl]propanamide

> <PUBCHEM_IUPAC_SYSTEMATIC_NAME>
3-(2,6-dimethyl-4-oxidanylidene-1H-pyrimidin-5-yl)-N-[(4-methylphenyl)methyl]propanamide

> <PUBCHEM_IUPAC_TRADITIONAL_NAME>
3-(4-keto-2,6-dimethyl-1H-pyrimidin-5-yl)-N-(4-methylbenzyl)propionamide

> <PUBCHEM_IUPAC_INCHI>
InChI=1S/C17H21N3O2/c1-11-4-6-14(7-5-11)10-18-16(21)9-8-15-12(2)19-13(3)20-17(15)22/h4-7H,8-10H2,1-3H3,(H,18,21)(H,19,20,22)

> <PUBCHEM_IUPAC_INCHIKEY>
BSZSQQAFJPLSPF-UHFFFAOYSA-N

> <PUBCHEM_XLOGP3_AA>
1

> <PUBCHEM_EXACT_MASS>
299.163377

> <PUBCHEM_MOLECULAR_FORMULA>
C17H21N3O2

> <PUBCHEM_MOLECULAR_WEIGHT>
299.36754

> <PUBCHEM_OPENEYE_CAN_SMILES>
CC1=CC=C(C=C1)CNC(=O)CCC2=C(NC(=NC2=O)C)C

> <PUBCHEM_OPENEYE_ISO_SMILES>
CC1=CC=C(C=C1)CNC(=O)CCC2=C(NC(=NC2=O)C)C

> <PUBCHEM_CACTVS_TPSA>
70.6

> <PUBCHEM_MONOISOTOPIC_WEIGHT>
299.163377

> <PUBCHEM_TOTAL_CHARGE>
0

> <PUBCHEM_HEAVY_ATOM_COUNT>
22

> <PUBCHEM_ATOM_DEF_STEREO_COUNT>
0

> <PUBCHEM_ATOM_UDEF_STEREO_COUNT>
0

> <PUBCHEM_BOND_DEF_STEREO_COUNT>
0

> <PUBCHEM_BOND_UDEF_STEREO_COUNT>
0

> <PUBCHEM_ISOTOPIC_ATOM_COUNT>
0

> <PUBCHEM_COMPONENT_COUNT>
1

> <PUBCHEM_CACTVS_TAUTO_COUNT>
6

> <PUBCHEM_COORDINATE_TYPE>
1
5
255

> <PUBCHEM_BONDANNOTATIONS>
13  16  8
13  17  8
16  19  8
17  20  8
18  19  8
18  20  8
3  14  8
3  9  8
5  12  8
5  14  8
7  12  8
7  9  8

$$$$

