17395693
  -OEChem-06241222512D

 51 52  0     0  0  0  0  0  0999 V2000
    4.5981    0.7148    0.0000 O   0  0  0  0  0  0  0  0  0  0  0  0
    6.1452    5.4762    0.0000 O   0  0  0  0  0  0  0  0  0  0  0  0
    6.3301    0.7148    0.0000 O   0  0  0  0  0  0  0  0  0  0  0  0
    2.8660   -0.2852    0.0000 O   0  0  0  0  0  0  0  0  0  0  0  0
    7.5464    4.4581    0.0000 O   0  0  0  0  0  0  0  0  0  0  0  0
    4.6551    2.8026    0.0000 N   0  0  0  0  0  0  0  0  0  0  0  0
    3.7320   -1.7852    0.0000 N   0  0  0  0  0  0  0  0  0  0  0  0
    6.2731    2.8026    0.0000 C   0  0  0  0  0  0  0  0  0  0  0  0
    5.9641    3.7536    0.0000 C   0  0  0  0  0  0  0  0  0  0  0  0
    5.4641    2.2148    0.0000 C   0  0  0  0  0  0  0  0  0  0  0  0
    4.9641    3.7536    0.0000 C   0  0  0  0  0  0  0  0  0  0  0  0
    2.8660   -2.2852    0.0000 C   0  0  0  0  0  0  0  0  0  0  0  0
    2.8660   -3.2852    0.0000 C   0  0  0  0  0  0  0  0  0  0  0  0
    7.2242    2.4936    0.0000 C   0  0  0  0  0  0  0  0  0  0  0  0
    4.3763    4.5626    0.0000 C   0  0  0  0  0  0  0  0  0  0  0  0
    5.4641    1.2148    0.0000 C   0  0  0  0  0  0  0  0  0  0  0  0
    3.7320   -0.7852    0.0000 C   0  0  0  0  0  0  0  0  0  0  0  0
    4.5981   -0.2852    0.0000 C   0  0  0  0  0  0  0  0  0  0  0  0
    6.5519    4.5626    0.0000 C   0  0  0  0  0  0  0  0  0  0  0  0
    2.0000   -3.7852    0.0000 C   0  0  0  0  0  0  0  0  0  0  0  0
    3.7320   -3.7852    0.0000 C   0  0  0  0  0  0  0  0  0  0  0  0
    4.5981   -2.2852    0.0000 C   0  0  0  0  0  0  0  0  0  0  0  0
    2.8660   -5.2852    0.0000 C   0  0  0  0  0  0  0  0  0  0  0  0
    2.0000   -4.7852    0.0000 C   0  0  0  0  0  0  0  0  0  0  0  0
    3.7320   -4.7852    0.0000 C   0  0  0  0  0  0  0  0  0  0  0  0
    2.8660   -6.2852    0.0000 C   0  0  0  0  0  0  0  0  0  0  0  0
    6.7329    6.2852    0.0000 C   0  0  0  0  0  0  0  0  0  0  0  0
    4.0654    2.6110    0.0000 H   0  0  0  0  0  0  0  0  0  0  0  0
    2.6540   -1.7026    0.0000 H   0  0  0  0  0  0  0  0  0  0  0  0
    2.2554   -2.3929    0.0000 H   0  0  0  0  0  0  0  0  0  0  0  0
    7.0326    1.9039    0.0000 H   0  0  0  0  0  0  0  0  0  0  0  0
    7.8138    2.3020    0.0000 H   0  0  0  0  0  0  0  0  0  0  0  0
    7.4158    3.0832    0.0000 H   0  0  0  0  0  0  0  0  0  0  0  0
    4.8779    4.9271    0.0000 H   0  0  0  0  0  0  0  0  0  0  0  0
    4.0119    5.0642    0.0000 H   0  0  0  0  0  0  0  0  0  0  0  0
    3.8747    4.1982    0.0000 H   0  0  0  0  0  0  0  0  0  0  0  0
    4.8101   -0.8678    0.0000 H   0  0  0  0  0  0  0  0  0  0  0  0
    5.2087   -0.1775    0.0000 H   0  0  0  0  0  0  0  0  0  0  0  0
    1.4631   -3.4752    0.0000 H   0  0  0  0  0  0  0  0  0  0  0  0
    4.2690   -3.4752    0.0000 H   0  0  0  0  0  0  0  0  0  0  0  0
    4.2881   -2.8222    0.0000 H   0  0  0  0  0  0  0  0  0  0  0  0
    5.1350   -2.5952    0.0000 H   0  0  0  0  0  0  0  0  0  0  0  0
    4.9081   -1.7483    0.0000 H   0  0  0  0  0  0  0  0  0  0  0  0
    1.4631   -5.0952    0.0000 H   0  0  0  0  0  0  0  0  0  0  0  0
    4.2690   -5.0952    0.0000 H   0  0  0  0  0  0  0  0  0  0  0  0
    2.2460   -6.2852    0.0000 H   0  0  0  0  0  0  0  0  0  0  0  0
    2.8660   -6.9052    0.0000 H   0  0  0  0  0  0  0  0  0  0  0  0
    3.4860   -6.2852    0.0000 H   0  0  0  0  0  0  0  0  0  0  0  0
    7.2345    5.9208    0.0000 H   0  0  0  0  0  0  0  0  0  0  0  0
    7.0974    6.7868    0.0000 H   0  0  0  0  0  0  0  0  0  0  0  0
    6.2313    6.6496    0.0000 H   0  0  0  0  0  0  0  0  0  0  0  0
  1 16  1  0  0  0  0
  1 18  1  0  0  0  0
  2 19  1  0  0  0  0
  2 27  1  0  0  0  0
  3 16  2  0  0  0  0
  4 17  2  0  0  0  0
  5 19  2  0  0  0  0
  6 10  1  0  0  0  0
  6 11  1  0  0  0  0
  6 28  1  0  0  0  0
  7 12  1  0  0  0  0
  7 17  1  0  0  0  0
  7 22  1  0  0  0  0
  8  9  1  0  0  0  0
  8 10  2  0  0  0  0
  8 14  1  0  0  0  0
  9 11  2  0  0  0  0
  9 19  1  0  0  0  0
 10 16  1  0  0  0  0
 11 15  1  0  0  0  0
 12 13  1  0  0  0  0
 12 29  1  0  0  0  0
 12 30  1  0  0  0  0
 13 20  2  0  0  0  0
 13 21  1  0  0  0  0
 14 31  1  0  0  0  0
 14 32  1  0  0  0  0
 14 33  1  0  0  0  0
 15 34  1  0  0  0  0
 15 35  1  0  0  0  0
 15 36  1  0  0  0  0
 17 18  1  0  0  0  0
 18 37  1  0  0  0  0
 18 38  1  0  0  0  0
 20 24  1  0  0  0  0
 20 39  1  0  0  0  0
 21 25  2  0  0  0  0
 21 40  1  0  0  0  0
 22 41  1  0  0  0  0
 22 42  1  0  0  0  0
 22 43  1  0  0  0  0
 23 24  2  0  0  0  0
 23 25  1  0  0  0  0
 23 26  1  0  0  0  0
 24 44  1  0  0  0  0
 25 45  1  0  0  0  0
 26 46  1  0  0  0  0
 26 47  1  0  0  0  0
 26 48  1  0  0  0  0
 27 49  1  0  0  0  0
 27 50  1  0  0  0  0
 27 51  1  0  0  0  0
M  END
> <PUBCHEM_COMPOUND_CID>
17395693

> <PUBCHEM_COMPOUND_CANONICALIZED>
1

> <PUBCHEM_CACTVS_COMPLEXITY>
545

> <PUBCHEM_CACTVS_HBOND_ACCEPTOR>
5

> <PUBCHEM_CACTVS_HBOND_DONOR>
1

> <PUBCHEM_CACTVS_ROTATABLE_BOND>
8

> <PUBCHEM_CACTVS_SUBSKEYS>
AAADceB7OAAAAAAAAAAAAAAAAAAAAWAAAAAwAAAAAAAAAAABwAAAHgAQAAAADAjhngYyiJPJlACoAyXyXAaCgCAnACAImSH4TNgKJnrAtb2HMYhm1gHY6Ue8/wkewAAAAAAAAACAAAAAAAAAAAAAAAAAAA==

> <PUBCHEM_IUPAC_OPENEYE_NAME>
O4-methyl O2-[2-[methyl(p-tolylmethyl)amino]-2-oxo-ethyl] 3,5-dimethyl-1H-pyrrole-2,4-dicarboxylate

> <PUBCHEM_IUPAC_CAS_NAME>
3,5-dimethyl-1H-pyrrole-2,4-dicarboxylic acid O4-methyl ester O2-[2-[methyl-[(4-methylphenyl)methyl]amino]-2-oxoethyl] ester

> <PUBCHEM_IUPAC_NAME>
4-O-methyl 2-O-[2-[methyl-[(4-methylphenyl)methyl]amino]-2-oxoethyl] 3,5-dimethyl-1H-pyrrole-2,4-dicarboxylate

> <PUBCHEM_IUPAC_SYSTEMATIC_NAME>
O4-methyl O2-[2-[methyl-[(4-methylphenyl)methyl]amino]-2-oxidanylidene-ethyl] 3,5-dimethyl-1H-pyrrole-2,4-dicarboxylate

> <PUBCHEM_IUPAC_TRADITIONAL_NAME>
3,5-dimethyl-1H-pyrrole-2,4-dicarboxylic acid O2-[2-keto-2-[methyl-(4-methylbenzyl)amino]ethyl] ester O4-methyl ester

> <PUBCHEM_IUPAC_INCHI>
InChI=1S/C20H24N2O5/c1-12-6-8-15(9-7-12)10-22(4)16(23)11-27-20(25)18-13(2)17(14(3)21-18)19(24)26-5/h6-9,21H,10-11H2,1-5H3

> <PUBCHEM_IUPAC_INCHIKEY>
QEFWSYOSAJQCDH-UHFFFAOYSA-N

> <PUBCHEM_XLOGP3_AA>
2.9

> <PUBCHEM_EXACT_MASS>
372.168522

> <PUBCHEM_MOLECULAR_FORMULA>
C20H24N2O5

> <PUBCHEM_MOLECULAR_WEIGHT>
372.41496

> <PUBCHEM_OPENEYE_CAN_SMILES>
CC1=CC=C(C=C1)CN(C)C(=O)COC(=O)C2=C(C(=C(N2)C)C(=O)OC)C

> <PUBCHEM_OPENEYE_ISO_SMILES>
CC1=CC=C(C=C1)CN(C)C(=O)COC(=O)C2=C(C(=C(N2)C)C(=O)OC)C

> <PUBCHEM_CACTVS_TPSA>
88.7

> <PUBCHEM_MONOISOTOPIC_WEIGHT>
372.168522

> <PUBCHEM_TOTAL_CHARGE>
0

> <PUBCHEM_HEAVY_ATOM_COUNT>
27

> <PUBCHEM_ATOM_DEF_STEREO_COUNT>
0

> <PUBCHEM_ATOM_UDEF_STEREO_COUNT>
0

> <PUBCHEM_BOND_DEF_STEREO_COUNT>
0

> <PUBCHEM_BOND_UDEF_STEREO_COUNT>
0

> <PUBCHEM_ISOTOPIC_ATOM_COUNT>
0

> <PUBCHEM_COMPONENT_COUNT>
1

> <PUBCHEM_CACTVS_TAUTO_COUNT>
10

> <PUBCHEM_COORDINATE_TYPE>
1
5
255

> <PUBCHEM_BONDANNOTATIONS>
13  20  8
13  21  8
20  24  8
21  25  8
23  24  8
23  25  8
6  10  8
6  11  8
8  10  8
8  9  8
9  11  8

$$$$

