17395690
  -OEChem-06241222512D

 51 52  0     1  0  0  0  0  0999 V2000
    4.5981    0.6920    0.0000 O   0  0  0  0  0  0  0  0  0  0  0  0
    4.5981   -1.3080    0.0000 O   0  0  0  0  0  0  0  0  0  0  0  0
    3.7320    2.1920    0.0000 O   0  0  0  0  0  0  0  0  0  0  0  0
    8.6291    3.2329    0.0000 O   0  0  0  0  0  0  0  0  0  0  0  0
    8.4480    1.5103    0.0000 O   0  0  0  0  0  0  0  0  0  0  0  0
    2.8660   -1.3080    0.0000 N   0  0  0  0  0  0  0  0  0  0  0  0
    5.5686    3.1865    0.0000 N   0  0  0  0  0  0  0  0  0  0  0  0
    2.8660   -2.3080    0.0000 C   0  0  0  0  0  0  0  0  0  0  0  0
    2.0000   -2.8080    0.0000 C   0  0  0  0  0  0  0  0  0  0  0  0
    3.7320   -2.8080    0.0000 C   0  0  0  0  0  0  0  0  0  0  0  0
    2.0000   -3.8080    0.0000 C   0  0  0  0  0  0  0  0  0  0  0  0
    3.7320   -3.8080    0.0000 C   0  0  0  0  0  0  0  0  0  0  0  0
    2.8660   -4.3080    0.0000 C   0  0  0  0  0  0  0  0  0  0  0  0
    3.7320   -0.8080    0.0000 C   0  0  0  0  0  0  0  0  0  0  0  0
    3.7320    0.1920    0.0000 C   0  0  3  0  0  0  0  0  0  0  0  0
    2.8660    0.6920    0.0000 C   0  0  0  0  0  0  0  0  0  0  0  0
    5.4641    2.1920    0.0000 C   0  0  0  0  0  0  0  0  0  0  0  0
    6.3776    1.7853    0.0000 C   0  0  0  0  0  0  0  0  0  0  0  0
    4.5981    1.6920    0.0000 C   0  0  0  0  0  0  0  0  0  0  0  0
    7.0468    2.5284    0.0000 C   0  0  0  0  0  0  0  0  0  0  0  0
    6.5468    3.3944    0.0000 C   0  0  0  0  0  0  0  0  0  0  0  0
    6.5856    0.8071    0.0000 C   0  0  0  0  0  0  0  0  0  0  0  0
    6.9535    4.3080    0.0000 C   0  0  0  0  0  0  0  0  0  0  0  0
    8.0413    2.4239    0.0000 C   0  0  0  0  0  0  0  0  0  0  0  0
    9.6236    3.1284    0.0000 C   0  0  0  0  0  0  0  0  0  0  0  0
    3.4030   -1.9980    0.0000 H   0  0  0  0  0  0  0  0  0  0  0  0
    4.3426   -2.9156    0.0000 H   0  0  0  0  0  0  0  0  0  0  0  0
    3.9441   -2.2254    0.0000 H   0  0  0  0  0  0  0  0  0  0  0  0
    1.7880   -2.2254    0.0000 H   0  0  0  0  0  0  0  0  0  0  0  0
    1.3894   -2.9156    0.0000 H   0  0  0  0  0  0  0  0  0  0  0  0
    3.9441   -4.3906    0.0000 H   0  0  0  0  0  0  0  0  0  0  0  0
    4.3426   -3.7003    0.0000 H   0  0  0  0  0  0  0  0  0  0  0  0
    1.3894   -3.7003    0.0000 H   0  0  0  0  0  0  0  0  0  0  0  0
    1.7880   -4.3906    0.0000 H   0  0  0  0  0  0  0  0  0  0  0  0
    2.4675   -4.7829    0.0000 H   0  0  0  0  0  0  0  0  0  0  0  0
    3.2646   -4.7829    0.0000 H   0  0  0  0  0  0  0  0  0  0  0  0
    2.3291   -0.9980    0.0000 H   0  0  0  0  0  0  0  0  0  0  0  0
    3.7320    0.8120    0.0000 H   0  0  0  0  0  0  0  0  0  0  0  0
    3.1760    1.2290    0.0000 H   0  0  0  0  0  0  0  0  0  0  0  0
    2.3291    1.0020    0.0000 H   0  0  0  0  0  0  0  0  0  0  0  0
    2.5560    0.1551    0.0000 H   0  0  0  0  0  0  0  0  0  0  0  0
    5.1079    3.6014    0.0000 H   0  0  0  0  0  0  0  0  0  0  0  0
    5.9791    0.6782    0.0000 H   0  0  0  0  0  0  0  0  0  0  0  0
    6.7145    0.2007    0.0000 H   0  0  0  0  0  0  0  0  0  0  0  0
    7.1920    0.9360    0.0000 H   0  0  0  0  0  0  0  0  0  0  0  0
    7.5199    4.0558    0.0000 H   0  0  0  0  0  0  0  0  0  0  0  0
    7.2057    4.8744    0.0000 H   0  0  0  0  0  0  0  0  0  0  0  0
    6.3871    4.5602    0.0000 H   0  0  0  0  0  0  0  0  0  0  0  0
    9.5588    2.5118    0.0000 H   0  0  0  0  0  0  0  0  0  0  0  0
   10.2402    3.0636    0.0000 H   0  0  0  0  0  0  0  0  0  0  0  0
    9.6884    3.7450    0.0000 H   0  0  0  0  0  0  0  0  0  0  0  0
  1 15  1  0  0  0  0
  1 19  1  0  0  0  0
  2 14  2  0  0  0  0
  3 19  2  0  0  0  0
  4 24  1  0  0  0  0
  4 25  1  0  0  0  0
  5 24  2  0  0  0  0
  6  8  1  0  0  0  0
  6 14  1  0  0  0  0
  6 37  1  0  0  0  0
  7 17  1  0  0  0  0
  7 21  1  0  0  0  0
  7 42  1  0  0  0  0
  8  9  1  0  0  0  0
  8 10  1  0  0  0  0
  8 26  1  0  0  0  0
  9 11  1  0  0  0  0
  9 29  1  0  0  0  0
  9 30  1  0  0  0  0
 10 12  1  0  0  0  0
 10 27  1  0  0  0  0
 10 28  1  0  0  0  0
 11 13  1  0  0  0  0
 11 33  1  0  0  0  0
 11 34  1  0  0  0  0
 12 13  1  0  0  0  0
 12 31  1  0  0  0  0
 12 32  1  0  0  0  0
 13 35  1  0  0  0  0
 13 36  1  0  0  0  0
 14 15  1  0  0  0  0
 15 16  1  0  0  0  0
 15 38  1  0  0  0  0
 16 39  1  0  0  0  0
 16 40  1  0  0  0  0
 16 41  1  0  0  0  0
 17 18  2  0  0  0  0
 17 19  1  0  0  0  0
 18 20  1  0  0  0  0
 18 22  1  0  0  0  0
 20 21  2  0  0  0  0
 20 24  1  0  0  0  0
 21 23  1  0  0  0  0
 22 43  1  0  0  0  0
 22 44  1  0  0  0  0
 22 45  1  0  0  0  0
 23 46  1  0  0  0  0
 23 47  1  0  0  0  0
 23 48  1  0  0  0  0
 25 49  1  0  0  0  0
 25 50  1  0  0  0  0
 25 51  1  0  0  0  0
M  END
> <PUBCHEM_COMPOUND_CID>
17395690

> <PUBCHEM_COMPOUND_CANONICALIZED>
1

> <PUBCHEM_CACTVS_COMPLEXITY>
504

> <PUBCHEM_CACTVS_HBOND_ACCEPTOR>
5

> <PUBCHEM_CACTVS_HBOND_DONOR>
2

> <PUBCHEM_CACTVS_ROTATABLE_BOND>
7

> <PUBCHEM_CACTVS_SUBSKEYS>
AAADceB7OAAAAAAAAAAAAAAAAAAAAWAAAAAwAAAAAAAAAAABgAAAHgAQAAAADDzhngYCiJLJlACoAwXwXAaCgCAnACAAmaH4TNgKJnrAtL2HEYhm1gHY6Ue8fwkegAAAAAAAAAAAAAAAAAAAAAAAAAAAAA==

> <PUBCHEM_IUPAC_OPENEYE_NAME>
O2-[2-(cyclohexylamino)-1-methyl-2-oxo-ethyl] O4-methyl 3,5-dimethyl-1H-pyrrole-2,4-dicarboxylate

> <PUBCHEM_IUPAC_CAS_NAME>
3,5-dimethyl-1H-pyrrole-2,4-dicarboxylic acid O2-[1-(cyclohexylamino)-1-oxopropan-2-yl] ester O4-methyl ester

> <PUBCHEM_IUPAC_NAME>
2-O-[1-(cyclohexylamino)-1-oxopropan-2-yl] 4-O-methyl 3,5-dimethyl-1H-pyrrole-2,4-dicarboxylate

> <PUBCHEM_IUPAC_SYSTEMATIC_NAME>
O2-[1-(cyclohexylamino)-1-oxidanylidene-propan-2-yl] O4-methyl 3,5-dimethyl-1H-pyrrole-2,4-dicarboxylate

> <PUBCHEM_IUPAC_TRADITIONAL_NAME>
3,5-dimethyl-1H-pyrrole-2,4-dicarboxylic acid O2-[2-(cyclohexylamino)-2-keto-1-methyl-ethyl] ester O4-methyl ester

> <PUBCHEM_IUPAC_INCHI>
InChI=1S/C18H26N2O5/c1-10-14(17(22)24-4)11(2)19-15(10)18(23)25-12(3)16(21)20-13-8-6-5-7-9-13/h12-13,19H,5-9H2,1-4H3,(H,20,21)

> <PUBCHEM_IUPAC_INCHIKEY>
DRRYUCNZZJQBHC-UHFFFAOYSA-N

> <PUBCHEM_XLOGP3_AA>
3.1

> <PUBCHEM_EXACT_MASS>
350.184172

> <PUBCHEM_MOLECULAR_FORMULA>
C18H26N2O5

> <PUBCHEM_MOLECULAR_WEIGHT>
350.40944

> <PUBCHEM_OPENEYE_CAN_SMILES>
CC1=C(NC(=C1C(=O)OC)C)C(=O)OC(C)C(=O)NC2CCCCC2

> <PUBCHEM_OPENEYE_ISO_SMILES>
CC1=C(NC(=C1C(=O)OC)C)C(=O)OC(C)C(=O)NC2CCCCC2

> <PUBCHEM_CACTVS_TPSA>
97.5

> <PUBCHEM_MONOISOTOPIC_WEIGHT>
350.184172

> <PUBCHEM_TOTAL_CHARGE>
0

> <PUBCHEM_HEAVY_ATOM_COUNT>
25

> <PUBCHEM_ATOM_DEF_STEREO_COUNT>
0

> <PUBCHEM_ATOM_UDEF_STEREO_COUNT>
1

> <PUBCHEM_BOND_DEF_STEREO_COUNT>
0

> <PUBCHEM_BOND_UDEF_STEREO_COUNT>
0

> <PUBCHEM_ISOTOPIC_ATOM_COUNT>
0

> <PUBCHEM_COMPONENT_COUNT>
1

> <PUBCHEM_CACTVS_TAUTO_COUNT>
20

> <PUBCHEM_COORDINATE_TYPE>
1
5
255

> <PUBCHEM_BONDANNOTATIONS>
15  16  3
17  18  8
18  20  8
20  21  8
7  17  8
7  21  8

$$$$

