17395257
  -OEChem-06241222482D

 40 43  0     1  0  0  0  0  0999 V2000
    4.6783   -0.7856    0.0000 S   0  0  0  0  0  0  0  0  0  0  0  0
    5.2619    0.1417    0.0000 O   0  0  0  0  0  0  0  0  0  0  0  0
    6.3551    1.9212    0.0000 O   0  0  0  0  0  0  0  0  0  0  0  0
    6.7619   -0.7244    0.0000 N   0  0  0  0  0  0  0  0  0  0  0  0
    4.6783   -2.3951    0.0000 N   0  0  0  0  0  0  0  0  0  0  0  0
    7.0983    2.5904    0.0000 N   0  0  0  0  0  0  0  0  0  0  0  0
    6.2619   -1.5904    0.0000 C   0  0  3  0  0  0  0  0  0  0  0  0
    6.7619   -2.4564    0.0000 C   0  0  0  0  0  0  0  0  0  0  0  0
    7.7619   -2.4564    0.0000 C   0  0  0  0  0  0  0  0  0  0  0  0
    8.2619   -1.5904    0.0000 C   0  0  0  0  0  0  0  0  0  0  0  0
    7.7619   -0.7244    0.0000 C   0  0  0  0  0  0  0  0  0  0  0  0
    5.2619   -1.5904    0.0000 C   0  0  0  0  0  0  0  0  0  0  0  0
    6.2619    0.1417    0.0000 C   0  0  0  0  0  0  0  0  0  0  0  0
    6.7619    1.0077    0.0000 C   0  0  0  0  0  0  0  0  0  0  0  0
    3.7320   -1.0904    0.0000 C   0  0  0  0  0  0  0  0  0  0  0  0
    3.7320   -2.0904    0.0000 C   0  0  0  0  0  0  0  0  0  0  0  0
    7.7564    1.1122    0.0000 C   0  0  0  0  0  0  0  0  0  0  0  0
    2.8660   -0.5904    0.0000 C   0  0  0  0  0  0  0  0  0  0  0  0
    2.8660   -2.5904    0.0000 C   0  0  0  0  0  0  0  0  0  0  0  0
    7.9643    2.0904    0.0000 C   0  0  0  0  0  0  0  0  0  0  0  0
    2.0000   -1.0904    0.0000 C   0  0  0  0  0  0  0  0  0  0  0  0
    2.0000   -2.0904    0.0000 C   0  0  0  0  0  0  0  0  0  0  0  0
    8.8779    2.4971    0.0000 C   0  0  0  0  0  0  0  0  0  0  0  0
    5.9519   -1.0534    0.0000 H   0  0  0  0  0  0  0  0  0  0  0  0
    6.1793   -2.6684    0.0000 H   0  0  0  0  0  0  0  0  0  0  0  0
    6.8695   -3.0670    0.0000 H   0  0  0  0  0  0  0  0  0  0  0  0
    7.6542   -3.0670    0.0000 H   0  0  0  0  0  0  0  0  0  0  0  0
    8.3445   -2.6684    0.0000 H   0  0  0  0  0  0  0  0  0  0  0  0
    8.7368   -1.9889    0.0000 H   0  0  0  0  0  0  0  0  0  0  0  0
    8.7368   -1.1918    0.0000 H   0  0  0  0  0  0  0  0  0  0  0  0
    8.3445   -0.5123    0.0000 H   0  0  0  0  0  0  0  0  0  0  0  0
    7.6542   -0.1138    0.0000 H   0  0  0  0  0  0  0  0  0  0  0  0
    8.1713    0.6515    0.0000 H   0  0  0  0  0  0  0  0  0  0  0  0
    2.8660    0.0296    0.0000 H   0  0  0  0  0  0  0  0  0  0  0  0
    2.8660   -3.2104    0.0000 H   0  0  0  0  0  0  0  0  0  0  0  0
    1.4631   -0.7804    0.0000 H   0  0  0  0  0  0  0  0  0  0  0  0
    1.4631   -2.4004    0.0000 H   0  0  0  0  0  0  0  0  0  0  0  0
    9.1300    1.9307    0.0000 H   0  0  0  0  0  0  0  0  0  0  0  0
    9.4443    2.7493    0.0000 H   0  0  0  0  0  0  0  0  0  0  0  0
    8.6257    3.0635    0.0000 H   0  0  0  0  0  0  0  0  0  0  0  0
  1 12  1  0  0  0  0
  1 15  1  0  0  0  0
  2 13  2  0  0  0  0
  3  6  1  0  0  0  0
  3 14  1  0  0  0  0
  4  7  1  0  0  0  0
  4 11  1  0  0  0  0
  4 13  1  0  0  0  0
  5 12  2  0  0  0  0
  5 16  1  0  0  0  0
  6 20  2  0  0  0  0
  7  8  1  0  0  0  0
  7 12  1  0  0  0  0
  7 24  1  0  0  0  0
  8  9  1  0  0  0  0
  8 25  1  0  0  0  0
  8 26  1  0  0  0  0
  9 10  1  0  0  0  0
  9 27  1  0  0  0  0
  9 28  1  0  0  0  0
 10 11  1  0  0  0  0
 10 29  1  0  0  0  0
 10 30  1  0  0  0  0
 11 31  1  0  0  0  0
 11 32  1  0  0  0  0
 13 14  1  0  0  0  0
 14 17  2  0  0  0  0
 15 16  1  0  0  0  0
 15 18  2  0  0  0  0
 16 19  2  0  0  0  0
 17 20  1  0  0  0  0
 17 33  1  0  0  0  0
 18 21  1  0  0  0  0
 18 34  1  0  0  0  0
 19 22  1  0  0  0  0
 19 35  1  0  0  0  0
 20 23  1  0  0  0  0
 21 22  2  0  0  0  0
 21 36  1  0  0  0  0
 22 37  1  0  0  0  0
 23 38  1  0  0  0  0
 23 39  1  0  0  0  0
 23 40  1  0  0  0  0
M  END
> <PUBCHEM_COMPOUND_CID>
17395257

> <PUBCHEM_COMPOUND_CANONICALIZED>
1

> <PUBCHEM_CACTVS_COMPLEXITY>
450

> <PUBCHEM_CACTVS_HBOND_ACCEPTOR>
5

> <PUBCHEM_CACTVS_HBOND_DONOR>
0

> <PUBCHEM_CACTVS_ROTATABLE_BOND>
2

> <PUBCHEM_CACTVS_SUBSKEYS>
AAADceB7MABAAAAAAAAAAAAAAAAAAWLAAAA8QAAAAAAAAFgB/AAAHgQEAAAACCzB1gQyxbMYEAitAaVyVgKD8KBlKjhomD3+bNoKZrrglbOUMYhmhhj4ycccAAAAAAAAAAAAAQAAAAAAAAACAAAAAAAAAA==

> <PUBCHEM_IUPAC_OPENEYE_NAME>
[2-(1,3-benzothiazol-2-yl)-1-piperidyl]-(3-methylisoxazol-5-yl)methanone

> <PUBCHEM_IUPAC_CAS_NAME>
[2-(1,3-benzothiazol-2-yl)-1-piperidinyl]-(3-methyl-5-isoxazolyl)methanone

> <PUBCHEM_IUPAC_NAME>
[2-(1,3-benzothiazol-2-yl)piperidin-1-yl]-(3-methyl-1,2-oxazol-5-yl)methanone

> <PUBCHEM_IUPAC_SYSTEMATIC_NAME>
[2-(1,3-benzothiazol-2-yl)piperidin-1-yl]-(3-methyl-1,2-oxazol-5-yl)methanone

> <PUBCHEM_IUPAC_TRADITIONAL_NAME>
[2-(1,3-benzothiazol-2-yl)piperidino]-(3-methylisoxazol-5-yl)methanone

> <PUBCHEM_IUPAC_INCHI>
InChI=1S/C17H17N3O2S/c1-11-10-14(22-19-11)17(21)20-9-5-4-7-13(20)16-18-12-6-2-3-8-15(12)23-16/h2-3,6,8,10,13H,4-5,7,9H2,1H3

> <PUBCHEM_IUPAC_INCHIKEY>
FCFFGJQLHLOHHR-UHFFFAOYSA-N

> <PUBCHEM_XLOGP3_AA>
3.4

> <PUBCHEM_EXACT_MASS>
327.104148

> <PUBCHEM_MOLECULAR_FORMULA>
C17H17N3O2S

> <PUBCHEM_MOLECULAR_WEIGHT>
327.40078

> <PUBCHEM_OPENEYE_CAN_SMILES>
CC1=NOC(=C1)C(=O)N2CCCCC2C3=NC4=CC=CC=C4S3

> <PUBCHEM_OPENEYE_ISO_SMILES>
CC1=NOC(=C1)C(=O)N2CCCCC2C3=NC4=CC=CC=C4S3

> <PUBCHEM_CACTVS_TPSA>
87.5

> <PUBCHEM_MONOISOTOPIC_WEIGHT>
327.104148

> <PUBCHEM_TOTAL_CHARGE>
0

> <PUBCHEM_HEAVY_ATOM_COUNT>
23

> <PUBCHEM_ATOM_DEF_STEREO_COUNT>
0

> <PUBCHEM_ATOM_UDEF_STEREO_COUNT>
1

> <PUBCHEM_BOND_DEF_STEREO_COUNT>
0

> <PUBCHEM_BOND_UDEF_STEREO_COUNT>
0

> <PUBCHEM_ISOTOPIC_ATOM_COUNT>
0

> <PUBCHEM_COMPONENT_COUNT>
1

> <PUBCHEM_CACTVS_TAUTO_COUNT>
1

> <PUBCHEM_COORDINATE_TYPE>
1
5
255

> <PUBCHEM_BONDANNOTATIONS>
1  12  8
1  15  8
14  17  8
15  16  8
15  18  8
16  19  8
17  20  8
18  21  8
19  22  8
21  22  8
3  14  8
3  6  8
5  12  8
5  16  8
6  20  8
7  12  3

$$$$

