7847056
  -OEChem-06241222482D

 56 58  0     0  0  0  0  0  0999 V2000
    3.8660    1.0000    0.0000 O   0  0  0  0  0  0  0  0  0  0  0  0
    2.1340    0.0000    0.0000 O   0  0  0  0  0  0  0  0  0  0  0  0
    5.5981    1.0000    0.0000 O   0  0  0  0  0  0  0  0  0  0  0  0
    4.7320    4.5000    0.0000 N   0  0  0  0  0  0  0  0  0  0  0  0
    3.0000   -4.5000    0.0000 C   0  0  0  0  0  0  0  0  0  0  0  0
    3.0000   -3.5000    0.0000 C   0  0  0  0  0  0  0  0  0  0  0  0
    3.0000   -5.5000    0.0000 C   0  0  0  0  0  0  0  0  0  0  0  0
    2.0000   -4.5000    0.0000 C   0  0  0  0  0  0  0  0  0  0  0  0
    4.0000   -4.5000    0.0000 C   0  0  0  0  0  0  0  0  0  0  0  0
    3.8660   -3.0000    0.0000 C   0  0  0  0  0  0  0  0  0  0  0  0
    2.1340   -3.0000    0.0000 C   0  0  0  0  0  0  0  0  0  0  0  0
    3.0000   -1.5000    0.0000 C   0  0  0  0  0  0  0  0  0  0  0  0
    3.8660   -2.0000    0.0000 C   0  0  0  0  0  0  0  0  0  0  0  0
    2.1340   -2.0000    0.0000 C   0  0  0  0  0  0  0  0  0  0  0  0
    4.7320    2.5000    0.0000 C   0  0  0  0  0  0  0  0  0  0  0  0
    3.8660    3.0000    0.0000 C   0  0  0  0  0  0  0  0  0  0  0  0
    5.5981    3.0000    0.0000 C   0  0  0  0  0  0  0  0  0  0  0  0
    3.8660    4.0000    0.0000 C   0  0  0  0  0  0  0  0  0  0  0  0
    5.5981    4.0000    0.0000 C   0  0  0  0  0  0  0  0  0  0  0  0
    3.0000    4.5000    0.0000 C   0  0  0  0  0  0  0  0  0  0  0  0
    3.0000   -0.5000    0.0000 C   0  0  0  0  0  0  0  0  0  0  0  0
    3.8660    0.0000    0.0000 C   0  0  0  0  0  0  0  0  0  0  0  0
    3.0000    2.5000    0.0000 C   0  0  0  0  0  0  0  0  0  0  0  0
    4.7320    1.5000    0.0000 C   0  0  0  0  0  0  0  0  0  0  0  0
    6.4920    2.4653    0.0000 C   0  0  0  0  0  0  0  0  0  0  0  0
    6.4920    4.5347    0.0000 C   0  0  0  0  0  0  0  0  0  0  0  0
    3.0000    5.5000    0.0000 C   0  0  0  0  0  0  0  0  0  0  0  0
    7.3981    2.9792    0.0000 C   0  0  0  0  0  0  0  0  0  0  0  0
    7.3981    4.0208    0.0000 C   0  0  0  0  0  0  0  0  0  0  0  0
    2.3800   -5.5000    0.0000 H   0  0  0  0  0  0  0  0  0  0  0  0
    3.0000   -6.1200    0.0000 H   0  0  0  0  0  0  0  0  0  0  0  0
    3.6200   -5.5000    0.0000 H   0  0  0  0  0  0  0  0  0  0  0  0
    2.0000   -3.8800    0.0000 H   0  0  0  0  0  0  0  0  0  0  0  0
    1.3800   -4.5000    0.0000 H   0  0  0  0  0  0  0  0  0  0  0  0
    2.0000   -5.1200    0.0000 H   0  0  0  0  0  0  0  0  0  0  0  0
    4.0000   -5.1200    0.0000 H   0  0  0  0  0  0  0  0  0  0  0  0
    4.6200   -4.5000    0.0000 H   0  0  0  0  0  0  0  0  0  0  0  0
    4.0000   -3.8800    0.0000 H   0  0  0  0  0  0  0  0  0  0  0  0
    4.4030   -3.3100    0.0000 H   0  0  0  0  0  0  0  0  0  0  0  0
    1.5970   -3.3100    0.0000 H   0  0  0  0  0  0  0  0  0  0  0  0
    4.4030   -1.6900    0.0000 H   0  0  0  0  0  0  0  0  0  0  0  0
    1.5970   -1.6900    0.0000 H   0  0  0  0  0  0  0  0  0  0  0  0
    2.3894    4.6077    0.0000 H   0  0  0  0  0  0  0  0  0  0  0  0
    2.7880    3.9174    0.0000 H   0  0  0  0  0  0  0  0  0  0  0  0
    2.6900    3.0369    0.0000 H   0  0  0  0  0  0  0  0  0  0  0  0
    2.4631    2.1900    0.0000 H   0  0  0  0  0  0  0  0  0  0  0  0
    3.3100    1.9631    0.0000 H   0  0  0  0  0  0  0  0  0  0  0  0
    4.0781   -0.5826    0.0000 H   0  0  0  0  0  0  0  0  0  0  0  0
    4.4766    0.1077    0.0000 H   0  0  0  0  0  0  0  0  0  0  0  0
    6.4848    1.8454    0.0000 H   0  0  0  0  0  0  0  0  0  0  0  0
    6.4848    5.1546    0.0000 H   0  0  0  0  0  0  0  0  0  0  0  0
    3.6200    5.5000    0.0000 H   0  0  0  0  0  0  0  0  0  0  0  0
    3.0000    6.1200    0.0000 H   0  0  0  0  0  0  0  0  0  0  0  0
    2.3800    5.5000    0.0000 H   0  0  0  0  0  0  0  0  0  0  0  0
    7.9338    2.6671    0.0000 H   0  0  0  0  0  0  0  0  0  0  0  0
    7.9338    4.3329    0.0000 H   0  0  0  0  0  0  0  0  0  0  0  0
  1 22  1  0  0  0  0
  1 24  1  0  0  0  0
  2 21  2  0  0  0  0
  3 24  2  0  0  0  0
  4 18  2  0  0  0  0
  4 19  1  0  0  0  0
  5  6  1  0  0  0  0
  5  7  1  0  0  0  0
  5  8  1  0  0  0  0
  5  9  1  0  0  0  0
  6 10  2  0  0  0  0
  6 11  1  0  0  0  0
  7 30  1  0  0  0  0
  7 31  1  0  0  0  0
  7 32  1  0  0  0  0
  8 33  1  0  0  0  0
  8 34  1  0  0  0  0
  8 35  1  0  0  0  0
  9 36  1  0  0  0  0
  9 37  1  0  0  0  0
  9 38  1  0  0  0  0
 10 13  1  0  0  0  0
 10 39  1  0  0  0  0
 11 14  2  0  0  0  0
 11 40  1  0  0  0  0
 12 13  2  0  0  0  0
 12 14  1  0  0  0  0
 12 21  1  0  0  0  0
 13 41  1  0  0  0  0
 14 42  1  0  0  0  0
 15 16  2  0  0  0  0
 15 17  1  0  0  0  0
 15 24  1  0  0  0  0
 16 18  1  0  0  0  0
 16 23  1  0  0  0  0
 17 19  1  0  0  0  0
 17 25  2  0  0  0  0
 18 20  1  0  0  0  0
 19 26  2  0  0  0  0
 20 27  1  0  0  0  0
 20 43  1  0  0  0  0
 20 44  1  0  0  0  0
 21 22  1  0  0  0  0
 22 48  1  0  0  0  0
 22 49  1  0  0  0  0
 23 45  1  0  0  0  0
 23 46  1  0  0  0  0
 23 47  1  0  0  0  0
 25 28  1  0  0  0  0
 25 50  1  0  0  0  0
 26 29  1  0  0  0  0
 26 51  1  0  0  0  0
 27 52  1  0  0  0  0
 27 53  1  0  0  0  0
 27 54  1  0  0  0  0
 28 29  2  0  0  0  0
 28 55  1  0  0  0  0
 29 56  1  0  0  0  0
M  END
> <PUBCHEM_COMPOUND_CID>
7847056

> <PUBCHEM_COMPOUND_CANONICALIZED>
1

> <PUBCHEM_CACTVS_COMPLEXITY>
573

> <PUBCHEM_CACTVS_HBOND_ACCEPTOR>
4

> <PUBCHEM_CACTVS_HBOND_DONOR>
0

> <PUBCHEM_CACTVS_ROTATABLE_BOND>
7

> <PUBCHEM_CACTVS_SUBSKEYS>
AAADceB6MAAAAAAAAAAAAAAAAAAAAAAAAAA8YIAAAAAAAACx9AAAHgAAAAAADgyhngIyyPIIFACoA6TyTAKCgCAlAiAImCFwbNgIJvLAtZ2GMQhkwAHI6Ye8yOCPwAAAAAACAACAAAAAAAQAAAAAAAAAAA==

> <PUBCHEM_IUPAC_OPENEYE_NAME>
[2-(4-tert-butylphenyl)-2-oxo-ethyl] 2-ethyl-3-methyl-quinoline-4-carboxylate

> <PUBCHEM_IUPAC_CAS_NAME>
2-ethyl-3-methyl-4-quinolinecarboxylic acid [2-(4-tert-butylphenyl)-2-oxoethyl] ester

> <PUBCHEM_IUPAC_NAME>
[2-(4-tert-butylphenyl)-2-oxoethyl] 2-ethyl-3-methylquinoline-4-carboxylate

> <PUBCHEM_IUPAC_SYSTEMATIC_NAME>
[2-(4-tert-butylphenyl)-2-oxidanylidene-ethyl] 2-ethyl-3-methyl-quinoline-4-carboxylate

> <PUBCHEM_IUPAC_TRADITIONAL_NAME>
2-ethyl-3-methyl-cinchoninic acid [2-(4-tert-butylphenyl)-2-keto-ethyl] ester

> <PUBCHEM_IUPAC_INCHI>
InChI=1S/C25H27NO3/c1-6-20-16(2)23(19-9-7-8-10-21(19)26-20)24(28)29-15-22(27)17-11-13-18(14-12-17)25(3,4)5/h7-14H,6,15H2,1-5H3

> <PUBCHEM_IUPAC_INCHIKEY>
YLKYYGAKDCEIIX-UHFFFAOYSA-N

> <PUBCHEM_XLOGP3_AA>
6.3

> <PUBCHEM_EXACT_MASS>
389.199094

> <PUBCHEM_MOLECULAR_FORMULA>
C25H27NO3

> <PUBCHEM_MOLECULAR_WEIGHT>
389.48678

> <PUBCHEM_OPENEYE_CAN_SMILES>
CCC1=NC2=CC=CC=C2C(=C1C)C(=O)OCC(=O)C3=CC=C(C=C3)C(C)(C)C

> <PUBCHEM_OPENEYE_ISO_SMILES>
CCC1=NC2=CC=CC=C2C(=C1C)C(=O)OCC(=O)C3=CC=C(C=C3)C(C)(C)C

> <PUBCHEM_CACTVS_TPSA>
56.3

> <PUBCHEM_MONOISOTOPIC_WEIGHT>
389.199094

> <PUBCHEM_TOTAL_CHARGE>
0

> <PUBCHEM_HEAVY_ATOM_COUNT>
29

> <PUBCHEM_ATOM_DEF_STEREO_COUNT>
0

> <PUBCHEM_ATOM_UDEF_STEREO_COUNT>
0

> <PUBCHEM_BOND_DEF_STEREO_COUNT>
0

> <PUBCHEM_BOND_UDEF_STEREO_COUNT>
0

> <PUBCHEM_ISOTOPIC_ATOM_COUNT>
0

> <PUBCHEM_COMPONENT_COUNT>
1

> <PUBCHEM_CACTVS_TAUTO_COUNT>
12

> <PUBCHEM_COORDINATE_TYPE>
1
5
255

> <PUBCHEM_BONDANNOTATIONS>
10  13  8
11  14  8
12  13  8
12  14  8
15  16  8
15  17  8
16  18  8
17  19  8
17  25  8
19  26  8
25  28  8
26  29  8
28  29  8
4  18  8
4  19  8
6  10  8
6  11  8

$$$$

