17395823
  -OEChem-06241222522D

 37 39  0     0  0  0  0  0  0999 V2000
    4.6551    3.5684    0.0000 S   0  0  0  0  0  0  0  0  0  0  0  0
    6.2731    3.5684    0.0000 S   0  0  0  0  0  0  0  0  0  0  0  0
    6.3301   -1.5194    0.0000 O   0  0  0  0  0  0  0  0  0  0  0  0
    4.5981   -1.5194    0.0000 N   0  0  0  0  0  0  0  0  0  0  0  0
    2.0000   -4.0194    0.0000 N   0  0  0  0  0  0  0  0  0  0  0  0
    5.4641    2.9806    0.0000 C   0  0  0  0  0  0  0  0  0  0  0  0
    5.4641    1.9806    0.0000 C   0  0  0  0  0  0  0  0  0  0  0  0
    5.9641    4.5194    0.0000 C   0  0  0  0  0  0  0  0  0  0  0  0
    4.9641    4.5194    0.0000 C   0  0  0  0  0  0  0  0  0  0  0  0
    4.5981    1.4806    0.0000 C   0  0  0  0  0  0  0  0  0  0  0  0
    6.3301    1.4806    0.0000 C   0  0  0  0  0  0  0  0  0  0  0  0
    5.4641   -0.0194    0.0000 C   0  0  0  0  0  0  0  0  0  0  0  0
    4.5981    0.4806    0.0000 C   0  0  0  0  0  0  0  0  0  0  0  0
    6.3301    0.4806    0.0000 C   0  0  0  0  0  0  0  0  0  0  0  0
    5.4641   -1.0194    0.0000 C   0  0  0  0  0  0  0  0  0  0  0  0
    4.5981   -2.5194    0.0000 C   0  0  0  0  0  0  0  0  0  0  0  0
    3.7320   -3.0194    0.0000 C   0  0  0  0  0  0  0  0  0  0  0  0
    2.8660   -2.5194    0.0000 C   0  0  0  0  0  0  0  0  0  0  0  0
    3.7320   -4.0194    0.0000 C   0  0  0  0  0  0  0  0  0  0  0  0
    2.0000   -3.0194    0.0000 C   0  0  0  0  0  0  0  0  0  0  0  0
    2.8660   -4.5194    0.0000 C   0  0  0  0  0  0  0  0  0  0  0  0
    6.0165    2.6991    0.0000 H   0  0  0  0  0  0  0  0  0  0  0  0
    6.5706    4.6483    0.0000 H   0  0  0  0  0  0  0  0  0  0  0  0
    5.8993    5.1360    0.0000 H   0  0  0  0  0  0  0  0  0  0  0  0
    5.0289    5.1360    0.0000 H   0  0  0  0  0  0  0  0  0  0  0  0
    4.3576    4.6483    0.0000 H   0  0  0  0  0  0  0  0  0  0  0  0
    4.0611    1.7906    0.0000 H   0  0  0  0  0  0  0  0  0  0  0  0
    6.8671    1.7906    0.0000 H   0  0  0  0  0  0  0  0  0  0  0  0
    4.0611    0.1706    0.0000 H   0  0  0  0  0  0  0  0  0  0  0  0
    6.8671    0.1706    0.0000 H   0  0  0  0  0  0  0  0  0  0  0  0
    4.8101   -3.1020    0.0000 H   0  0  0  0  0  0  0  0  0  0  0  0
    5.2087   -2.4118    0.0000 H   0  0  0  0  0  0  0  0  0  0  0  0
    4.0611   -1.2094    0.0000 H   0  0  0  0  0  0  0  0  0  0  0  0
    2.8660   -1.8994    0.0000 H   0  0  0  0  0  0  0  0  0  0  0  0
    4.2690   -4.3294    0.0000 H   0  0  0  0  0  0  0  0  0  0  0  0
    1.4631   -2.7094    0.0000 H   0  0  0  0  0  0  0  0  0  0  0  0
    2.8660   -5.1394    0.0000 H   0  0  0  0  0  0  0  0  0  0  0  0
  1  6  1  0  0  0  0
  1  9  1  0  0  0  0
  2  6  1  0  0  0  0
  2  8  1  0  0  0  0
  3 15  2  0  0  0  0
  4 15  1  0  0  0  0
  4 16  1  0  0  0  0
  4 33  1  0  0  0  0
  5 20  2  0  0  0  0
  5 21  1  0  0  0  0
  6  7  1  0  0  0  0
  6 22  1  0  0  0  0
  7 10  2  0  0  0  0
  7 11  1  0  0  0  0
  8  9  1  0  0  0  0
  8 23  1  0  0  0  0
  8 24  1  0  0  0  0
  9 25  1  0  0  0  0
  9 26  1  0  0  0  0
 10 13  1  0  0  0  0
 10 27  1  0  0  0  0
 11 14  2  0  0  0  0
 11 28  1  0  0  0  0
 12 13  2  0  0  0  0
 12 14  1  0  0  0  0
 12 15  1  0  0  0  0
 13 29  1  0  0  0  0
 14 30  1  0  0  0  0
 16 17  1  0  0  0  0
 16 31  1  0  0  0  0
 16 32  1  0  0  0  0
 17 18  2  0  0  0  0
 17 19  1  0  0  0  0
 18 20  1  0  0  0  0
 18 34  1  0  0  0  0
 19 21  2  0  0  0  0
 19 35  1  0  0  0  0
 20 36  1  0  0  0  0
 21 37  1  0  0  0  0
M  END
> <PUBCHEM_COMPOUND_CID>
17395823

> <PUBCHEM_COMPOUND_CANONICALIZED>
1

> <PUBCHEM_CACTVS_COMPLEXITY>
333

> <PUBCHEM_CACTVS_HBOND_ACCEPTOR>
4

> <PUBCHEM_CACTVS_HBOND_DONOR>
1

> <PUBCHEM_CACTVS_ROTATABLE_BOND>
4

> <PUBCHEM_CACTVS_SUBSKEYS>
AAADceB7IABgAAAAAAAAAAAAAAAAASAAAAA8QAAAAAAAAAABwAAAHgQQAAAADADF2gS8gJLIEAioAjF3VACCgSA1AjAI2KE4ZNgIIHLglZGEIQhghgDoyYcYiACOQAAAAAAAAACAAAAAAAAAAAAAAAAAAA==

> <PUBCHEM_IUPAC_OPENEYE_NAME>
4-(1,3-dithiolan-2-yl)-N-(4-pyridylmethyl)benzamide

> <PUBCHEM_IUPAC_CAS_NAME>
4-(1,3-dithiolan-2-yl)-N-(pyridin-4-ylmethyl)benzamide

> <PUBCHEM_IUPAC_NAME>
4-(1,3-dithiolan-2-yl)-N-(pyridin-4-ylmethyl)benzamide

> <PUBCHEM_IUPAC_SYSTEMATIC_NAME>
4-(1,3-dithiolan-2-yl)-N-(pyridin-4-ylmethyl)benzamide

> <PUBCHEM_IUPAC_TRADITIONAL_NAME>
4-(1,3-dithiolan-2-yl)-N-(4-pyridylmethyl)benzamide

> <PUBCHEM_IUPAC_INCHI>
InChI=1S/C16H16N2OS2/c19-15(18-11-12-5-7-17-8-6-12)13-1-3-14(4-2-13)16-20-9-10-21-16/h1-8,16H,9-11H2,(H,18,19)

> <PUBCHEM_IUPAC_INCHIKEY>
KHUUJKYYOQHYBP-UHFFFAOYSA-N

> <PUBCHEM_XLOGP3_AA>
2.6

> <PUBCHEM_EXACT_MASS>
316.070405

> <PUBCHEM_MOLECULAR_FORMULA>
C16H16N2OS2

> <PUBCHEM_MOLECULAR_WEIGHT>
316.44104

> <PUBCHEM_OPENEYE_CAN_SMILES>
C1CSC(S1)C2=CC=C(C=C2)C(=O)NCC3=CC=NC=C3

> <PUBCHEM_OPENEYE_ISO_SMILES>
C1CSC(S1)C2=CC=C(C=C2)C(=O)NCC3=CC=NC=C3

> <PUBCHEM_CACTVS_TPSA>
92.6

> <PUBCHEM_MONOISOTOPIC_WEIGHT>
316.070405

> <PUBCHEM_TOTAL_CHARGE>
0

> <PUBCHEM_HEAVY_ATOM_COUNT>
21

> <PUBCHEM_ATOM_DEF_STEREO_COUNT>
0

> <PUBCHEM_ATOM_UDEF_STEREO_COUNT>
0

> <PUBCHEM_BOND_DEF_STEREO_COUNT>
0

> <PUBCHEM_BOND_UDEF_STEREO_COUNT>
0

> <PUBCHEM_ISOTOPIC_ATOM_COUNT>
0

> <PUBCHEM_COMPONENT_COUNT>
1

> <PUBCHEM_CACTVS_TAUTO_COUNT>
2

> <PUBCHEM_COORDINATE_TYPE>
1
5
255

> <PUBCHEM_BONDANNOTATIONS>
10  13  8
11  14  8
12  13  8
12  14  8
17  18  8
17  19  8
18  20  8
19  21  8
5  20  8
5  21  8
7  10  8
7  11  8

$$$$

