10525
  -OEChem-06261204382D

 80 85  0     1  0  0  0  0  0999 V2000
    8.6717   -0.6330    0.0000 O   0  0  0  0  0  0  0  0  0  0  0  0
    6.0140   -2.1814    0.0000 O   0  0  0  0  0  0  0  0  0  0  0  0
    4.7115    0.9837    0.0000 O   0  0  0  0  0  0  0  0  0  0  0  0
    4.2820   -2.1681    0.0000 O   0  0  0  0  0  0  0  0  0  0  0  0
    9.5714    4.3171    0.0000 O   0  0  0  0  0  0  0  0  0  0  0  0
    5.9985   -4.1814    0.0000 O   0  0  0  0  0  0  0  0  0  0  0  0
    4.2588   -5.1680    0.0000 O   0  0  0  0  0  0  0  0  0  0  0  0
    2.5345   -4.1546    0.0000 O   0  0  0  0  0  0  0  0  0  0  0  0
   10.8606    5.4738    0.0000 O   0  0  0  0  0  0  0  0  0  0  0  0
    2.5577   -1.1547    0.0000 O   0  0  0  0  0  0  0  0  0  0  0  0
    8.6717    0.3670    0.0000 C   0  0  2  0  0  0  0  0  0  0  0  0
    8.6717    1.3670    0.0000 C   0  0  2  0  0  0  0  0  0  0  0  0
    7.8057   -0.1330    0.0000 C   0  0  3  0  0  0  0  0  0  0  0  0
    6.9397    0.3670    0.0000 C   0  0  3  0  0  0  0  0  0  0  0  0
    6.0297   -0.1398    0.0000 C   0  0  2  0  0  0  0  0  0  0  0  0
    7.8057    1.8670    0.0000 C   0  0  0  0  0  0  0  0  0  0  0  0
    9.6180    1.6717    0.0000 C   0  0  2  0  0  0  0  0  0  0  0  0
    6.9397    1.3670    0.0000 C   0  0  0  0  0  0  0  0  0  0  0  0
    9.6180    0.0623    0.0000 C   0  0  0  0  0  0  0  0  0  0  0  0
    6.0217   -1.1814    0.0000 C   0  0  1  0  0  0  0  0  0  0  0  0
    7.8218   -1.1745    0.0000 C   0  0  0  0  0  0  0  0  0  0  0  0
   10.2016    0.8670    0.0000 C   0  0  0  0  0  0  0  0  0  0  0  0
    6.9237   -1.7022    0.0000 C   0  0  0  0  0  0  0  0  0  0  0  0
    8.6717    2.3670    0.0000 C   0  0  0  0  0  0  0  0  0  0  0  0
    5.1028    0.4242    0.0000 C   0  0  0  0  0  0  0  0  0  0  0  0
    5.6949    0.8025    0.0000 C   0  0  0  0  0  0  0  0  0  0  0  0
    9.9286    2.6223    0.0000 C   0  0  0  0  0  0  0  0  0  0  0  0
    5.0862   -1.7312    0.0000 C   0  0  0  0  0  0  0  0  0  0  0  0
    4.1550   -0.1037    0.0000 C   0  0  0  0  0  0  0  0  0  0  0  0
    4.1466   -1.1887    0.0000 C   0  0  0  0  0  0  0  0  0  0  0  0
    5.1441   -2.6747    0.0000 C   0  0  2  0  0  0  0  0  0  0  0  0
   10.9071    2.8285    0.0000 C   0  0  0  0  0  0  0  0  0  0  0  0
    9.2608    3.3666    0.0000 C   0  0  0  0  0  0  0  0  0  0  0  0
    5.1364   -3.6747    0.0000 C   0  0  3  0  0  0  0  0  0  0  0  0
   11.2178    3.7790    0.0000 C   0  0  0  0  0  0  0  0  0  0  0  0
    4.2665   -4.1680    0.0000 C   0  0  3  0  0  0  0  0  0  0  0  0
    3.4121   -2.6614    0.0000 C   0  0  3  0  0  0  0  0  0  0  0  0
    3.4044   -3.6613    0.0000 C   0  0  1  0  0  0  0  0  0  0  0  0
   10.5499    4.5233    0.0000 C   0  0  0  0  0  0  0  0  0  0  0  0
    2.5500   -2.1547    0.0000 C   0  0  0  0  0  0  0  0  0  0  0  0
    8.5451   -0.5523    0.0000 H   0  0  0  0  0  0  0  0  0  0  0  0
    7.6758    0.7920    0.0000 H   0  0  0  0  0  0  0  0  0  0  0  0
    8.2042    2.3420    0.0000 H   0  0  0  0  0  0  0  0  0  0  0  0
    7.4072    2.3420    0.0000 H   0  0  0  0  0  0  0  0  0  0  0  0
   10.2304    1.7679    0.0000 H   0  0  0  0  0  0  0  0  0  0  0  0
    6.7276    1.9496    0.0000 H   0  0  0  0  0  0  0  0  0  0  0  0
    6.3291    1.2593    0.0000 H   0  0  0  0  0  0  0  0  0  0  0  0
    9.3669   -0.5046    0.0000 H   0  0  0  0  0  0  0  0  0  0  0  0
   10.1553   -0.2470    0.0000 H   0  0  0  0  0  0  0  0  0  0  0  0
    8.0398   -1.7549    0.0000 H   0  0  0  0  0  0  0  0  0  0  0  0
    8.4309   -1.0590    0.0000 H   0  0  0  0  0  0  0  0  0  0  0  0
   10.6624    0.4523    0.0000 H   0  0  0  0  0  0  0  0  0  0  0  0
   10.6624    1.2817    0.0000 H   0  0  0  0  0  0  0  0  0  0  0  0
    6.5264   -2.1782    0.0000 H   0  0  0  0  0  0  0  0  0  0  0  0
    7.3247   -2.1752    0.0000 H   0  0  0  0  0  0  0  0  0  0  0  0
    9.2917    2.3670    0.0000 H   0  0  0  0  0  0  0  0  0  0  0  0
    8.6717    2.9870    0.0000 H   0  0  0  0  0  0  0  0  0  0  0  0
    8.0517    2.3670    0.0000 H   0  0  0  0  0  0  0  0  0  0  0  0
    5.5111    0.8909    0.0000 H   0  0  0  0  0  0  0  0  0  0  0  0
    4.7129    0.9063    0.0000 H   0  0  0  0  0  0  0  0  0  0  0  0
    9.2087   -0.9430    0.0000 H   0  0  0  0  0  0  0  0  0  0  0  0
    6.0971    1.2743    0.0000 H   0  0  0  0  0  0  0  0  0  0  0  0
    5.0886   -2.3512    0.0000 H   0  0  0  0  0  0  0  0  0  0  0  0
    3.9504    0.4816    0.0000 H   0  0  0  0  0  0  0  0  0  0  0  0
    3.5433   -0.2051    0.0000 H   0  0  0  0  0  0  0  0  0  0  0  0
    3.6085   -1.4966    0.0000 H   0  0  0  0  0  0  0  0  0  0  0  0
    5.6786   -2.9888    0.0000 H   0  0  0  0  0  0  0  0  0  0  0  0
   11.3212    2.3670    0.0000 H   0  0  0  0  0  0  0  0  0  0  0  0
    8.6541    3.2387    0.0000 H   0  0  0  0  0  0  0  0  0  0  0  0
    5.1298   -4.5247    0.0000 H   0  0  0  0  0  0  0  0  0  0  0  0
   11.8245    3.9068    0.0000 H   0  0  0  0  0  0  0  0  0  0  0  0
    4.9994   -4.5987    0.0000 H   0  0  0  0  0  0  0  0  0  0  0  0
    3.4186   -1.8114    0.0000 H   0  0  0  0  0  0  0  0  0  0  0  0
    2.8698   -3.3472    0.0000 H   0  0  0  0  0  0  0  0  0  0  0  0
    5.9938   -4.8013    0.0000 H   0  0  0  0  0  0  0  0  0  0  0  0
    1.9402   -2.0423    0.0000 H   0  0  0  0  0  0  0  0  0  0  0  0
    2.3334   -2.7357    0.0000 H   0  0  0  0  0  0  0  0  0  0  0  0
    3.7195   -5.4738    0.0000 H   0  0  0  0  0  0  0  0  0  0  0  0
    2.0000   -3.8405    0.0000 H   0  0  0  0  0  0  0  0  0  0  0  0
    2.0231   -0.8406    0.0000 H   0  0  0  0  0  0  0  0  0  0  0  0
 11  1  1  1  0  0  0
  1 61  1  0  0  0  0
 20  2  1  1  0  0  0
 31  2  1  1  0  0  0
  3 26  2  0  0  0  0
  4 31  1  0  0  0  0
  4 37  1  0  0  0  0
  5 33  1  0  0  0  0
  5 39  1  0  0  0  0
  6 34  1  0  0  0  0
  6 75  1  0  0  0  0
  7 36  1  0  0  0  0
  7 78  1  0  0  0  0
 38  8  1  6  0  0  0
  8 79  1  0  0  0  0
  9 39  2  0  0  0  0
 10 40  1  0  0  0  0
 10 80  1  0  0  0  0
 11 12  1  0  0  0  0
 11 13  1  0  0  0  0
 11 19  1  0  0  0  0
 12 16  1  0  0  0  0
 12 17  1  0  0  0  0
 12 24  1  1  0  0  0
 13 14  1  0  0  0  0
 13 21  1  0  0  0  0
 13 41  1  0  0  0  0
 14 15  1  0  0  0  0
 14 18  1  0  0  0  0
 14 42  1  0  0  0  0
 15 20  1  0  0  0  0
 15 25  1  0  0  0  0
 15 26  1  1  0  0  0
 16 18  1  0  0  0  0
 16 43  1  0  0  0  0
 16 44  1  0  0  0  0
 17 22  1  0  0  0  0
 17 27  1  1  0  0  0
 17 45  1  0  0  0  0
 18 46  1  0  0  0  0
 18 47  1  0  0  0  0
 19 22  1  0  0  0  0
 19 48  1  0  0  0  0
 19 49  1  0  0  0  0
 20 23  1  0  0  0  0
 20 28  1  0  0  0  0
 21 23  1  0  0  0  0
 21 50  1  0  0  0  0
 21 51  1  0  0  0  0
 22 52  1  0  0  0  0
 22 53  1  0  0  0  0
 23 54  1  0  0  0  0
 23 55  1  0  0  0  0
 24 56  1  0  0  0  0
 24 57  1  0  0  0  0
 24 58  1  0  0  0  0
 25 29  1  0  0  0  0
 25 59  1  0  0  0  0
 25 60  1  0  0  0  0
 26 62  1  0  0  0  0
 27 32  1  0  0  0  0
 27 33  2  0  0  0  0
 28 30  2  0  0  0  0
 28 63  1  0  0  0  0
 29 30  1  0  0  0  0
 29 64  1  0  0  0  0
 29 65  1  0  0  0  0
 30 66  1  0  0  0  0
 31 34  1  0  0  0  0
 31 67  1  0  0  0  0
 32 35  2  0  0  0  0
 32 68  1  0  0  0  0
 33 69  1  0  0  0  0
 34 36  1  0  0  0  0
 34 70  1  0  0  0  0
 35 39  1  0  0  0  0
 35 71  1  0  0  0  0
 36 38  1  0  0  0  0
 36 72  1  0  0  0  0
 37 38  1  0  0  0  0
 37 40  1  0  0  0  0
 37 73  1  0  0  0  0
 38 74  1  0  0  0  0
 40 76  1  0  0  0  0
 40 77  1  0  0  0  0
M  END
> <PUBCHEM_COMPOUND_CID>
10525

> <PUBCHEM_COMPOUND_CANONICALIZED>
1

> <PUBCHEM_CACTVS_COMPLEXITY>
1130

> <PUBCHEM_CACTVS_HBOND_ACCEPTOR>
10

> <PUBCHEM_CACTVS_HBOND_DONOR>
5

> <PUBCHEM_CACTVS_ROTATABLE_BOND>
5

> <PUBCHEM_CACTVS_SUBSKEYS>
AAADcfB4PAAAAAAAAAAAAAAAAAAAAYAAAAA0YIECAAAAAGDAAAAAGgAACAAAD1SwgAMCCAAABgCIAijSiAAACAAgIAAICAEAAEgZFBYAIQAiUAAFoAAPoYPI7PzPgAAAAAAAAADAAAYAADAAAYAADAAAAA==

> <PUBCHEM_IUPAC_OPENEYE_NAME>
(5S,10S,13R,14S,17R)-14-hydroxy-13-methyl-17-(6-oxopyran-3-yl)-5-[(2S,5S)-3,4,5-trihydroxy-6-(hydroxymethyl)tetrahydropyran-2-yl]oxy-2,6,7,8,9,11,12,15,16,17-decahydro-1H-cyclopenta[a]phenanthrene-10-carbaldehyde

> <PUBCHEM_IUPAC_CAS_NAME>
(5S,10S,13R,14S,17R)-14-hydroxy-13-methyl-17-(6-oxo-3-pyranyl)-5-[[(2S,5S)-3,4,5-trihydroxy-6-(hydroxymethyl)-2-oxanyl]oxy]-2,6,7,8,9,11,12,15,16,17-decahydro-1H-cyclopenta[a]phenanthrene-10-carboxaldehyde

> <PUBCHEM_IUPAC_NAME>
(5S,10S,13R,14S,17R)-14-hydroxy-13-methyl-17-(6-oxopyran-3-yl)-5-[(2S,5S)-3,4,5-trihydroxy-6-(hydroxymethyl)oxan-2-yl]oxy-2,6,7,8,9,11,12,15,16,17-decahydro-1H-cyclopenta[a]phenanthrene-10-carbaldehyde

> <PUBCHEM_IUPAC_SYSTEMATIC_NAME>
(5S,10S,13R,14S,17R)-5-[(2S,5S)-6-(hydroxymethyl)-3,4,5-tris(oxidanyl)oxan-2-yl]oxy-13-methyl-14-oxidanyl-17-(6-oxidanylidenepyran-3-yl)-2,6,7,8,9,11,12,15,16,17-decahydro-1H-cyclopenta[a]phenanthrene-10-carbaldehyde

> <PUBCHEM_IUPAC_TRADITIONAL_NAME>
(5S,10S,13R,14S,17R)-14-hydroxy-17-(6-ketopyran-3-yl)-13-methyl-5-[(2S,5S)-3,4,5-trihydroxy-6-methylol-tetrahydropyran-2-yl]oxy-2,6,7,8,9,11,12,15,16,17-decahydro-1H-cyclopenta[a]phenanthrene-10-carbaldehyde

> <PUBCHEM_IUPAC_INCHI>
InChI=1S/C30H40O10/c1-27-11-6-19-20(30(27,37)13-8-18(27)17-4-5-22(33)38-15-17)7-12-29(10-3-2-9-28(19,29)16-32)40-26-25(36)24(35)23(34)21(14-31)39-26/h3-5,10,15-16,18-21,23-26,31,34-37H,2,6-9,11-14H2,1H3/t18-,19?,20?,21?,23-,24?,25?,26+,27-,28+,29-,30+/m1/s1

> <PUBCHEM_IUPAC_INCHIKEY>
QDBIBEXZLJNVNH-AVEKKHMSSA-N

> <PUBCHEM_XLOGP3_AA>
0.3

> <PUBCHEM_EXACT_MASS>
560.262147

> <PUBCHEM_MOLECULAR_FORMULA>
C30H40O10

> <PUBCHEM_MOLECULAR_WEIGHT>
560.6326

> <PUBCHEM_OPENEYE_CAN_SMILES>
CC12CCC3C(C1(CCC2C4=COC(=O)C=C4)O)CCC5(C3(CCC=C5)C=O)OC6C(C(C(C(O6)CO)O)O)O

> <PUBCHEM_OPENEYE_ISO_SMILES>
C[C@]12CCC3C([C@]1(CC[C@@H]2C4=COC(=O)C=C4)O)CC[C@]5([C@@]3(CCC=C5)C=O)O[C@H]6C(C([C@@H](C(O6)CO)O)O)O

> <PUBCHEM_CACTVS_TPSA>
163

> <PUBCHEM_MONOISOTOPIC_WEIGHT>
560.262147

> <PUBCHEM_TOTAL_CHARGE>
0

> <PUBCHEM_HEAVY_ATOM_COUNT>
40

> <PUBCHEM_ATOM_DEF_STEREO_COUNT>
7

> <PUBCHEM_ATOM_UDEF_STEREO_COUNT>
5

> <PUBCHEM_BOND_DEF_STEREO_COUNT>
0

> <PUBCHEM_BOND_UDEF_STEREO_COUNT>
0

> <PUBCHEM_ISOTOPIC_ATOM_COUNT>
0

> <PUBCHEM_COMPONENT_COUNT>
1

> <PUBCHEM_CACTVS_TAUTO_COUNT>
1

> <PUBCHEM_COORDINATE_TYPE>
1
5
255

> <PUBCHEM_BONDANNOTATIONS>
11  1  5
12  24  5
13  41  3
14  42  3
15  26  5
17  27  5
20  2  5
31  2  5
27  32  8
27  33  8
32  35  8
34  70  3
35  39  8
36  72  3
37  73  3
5  33  8
5  39  8
38  8  6

$$$$

