14219
  -OEChem-06241222422D

 22 20  0     0  0  0  0  0  0999 V2000
    2.2020    0.0000    0.0000 Cl  0  0  0  0  0  0  0  0  0  0  0  0
    4.0010    4.3100    0.0000 N   0  0  0  0  0  0  0  0  0  0  0  0
    2.2690    4.3100    0.0000 N   0  0  0  0  0  0  0  0  0  0  0  0
    3.1350    2.8100    0.0000 N   0  0  0  0  0  0  0  0  0  0  0  0
    0.5369    4.3100    0.0000 N   0  0  0  0  0  0  0  0  0  0  0  0
    1.4030    2.8100    0.0000 N   0  0  0  0  0  0  0  0  0  0  0  0
    4.8671    3.8100    0.0000 C   0  0  0  0  0  0  0  0  0  0  0  0
    4.0010    5.3100    0.0000 C   0  0  0  0  0  0  0  0  0  0  0  0
    3.1350    3.8100    0.0000 C   0  0  0  0  0  0  0  0  0  0  0  0
    1.4030    3.8100    0.0000 C   0  0  0  0  0  0  0  0  0  0  0  0
    4.5571    3.2731    0.0000 H   0  0  0  0  0  0  0  0  0  0  0  0
    5.4040    3.5000    0.0000 H   0  0  0  0  0  0  0  0  0  0  0  0
    5.1771    4.3469    0.0000 H   0  0  0  0  0  0  0  0  0  0  0  0
    4.6210    5.3100    0.0000 H   0  0  0  0  0  0  0  0  0  0  0  0
    4.0010    5.9300    0.0000 H   0  0  0  0  0  0  0  0  0  0  0  0
    3.3810    5.3100    0.0000 H   0  0  0  0  0  0  0  0  0  0  0  0
    3.6720    2.5000    0.0000 H   0  0  0  0  0  0  0  0  0  0  0  0
    0.8660    2.5000    0.0000 H   0  0  0  0  0  0  0  0  0  0  0  0
    0.0000    4.0000    0.0000 H   0  0  0  0  0  0  0  0  0  0  0  0
    0.5369    4.9300    0.0000 H   0  0  0  0  0  0  0  0  0  0  0  0
    1.9399    2.5000    0.0000 H   0  0  0  0  0  0  0  0  0  0  0  0
    3.2020    0.0000    0.0000 H   0  0  0  0  0  0  0  0  0  0  0  0
  1 22  1  0  0  0  0
  2  7  1  0  0  0  0
  2  8  1  0  0  0  0
  2  9  1  0  0  0  0
  3  9  1  0  0  0  0
  3 10  2  0  0  0  0
  4  9  2  0  0  0  0
  4 17  1  0  0  0  0
  5 10  1  0  0  0  0
  5 19  1  0  0  0  0
  5 20  1  0  0  0  0
  6 10  1  0  0  0  0
  6 18  1  0  0  0  0
  6 21  1  0  0  0  0
  7 11  1  0  0  0  0
  7 12  1  0  0  0  0
  7 13  1  0  0  0  0
  8 14  1  0  0  0  0
  8 15  1  0  0  0  0
  8 16  1  0  0  0  0
M  END
> <PUBCHEM_COMPOUND_CID>
14219

> <PUBCHEM_COMPOUND_CANONICALIZED>
1

> <PUBCHEM_CACTVS_COMPLEXITY>
132

> <PUBCHEM_CACTVS_HBOND_ACCEPTOR>
1

> <PUBCHEM_CACTVS_HBOND_DONOR>
4

> <PUBCHEM_CACTVS_ROTATABLE_BOND>
2

> <PUBCHEM_CACTVS_SUBSKEYS>
AAADccBjgAAEAAAAAAAAAAAAAAAAAAAAAAAAAAAAAAAAAAAAAAAAFAAQAAAAAAAAAAQDAANAAAAgAAAAJAAAAAGAAAABAAAIAACAAAAAAAAAAAAAAAAAAAAAAAAAAAAAAAAAAAAAAAAAAAAAAAAAAAAAAA==

> <PUBCHEM_IUPAC_OPENEYE_NAME>
3-(diaminomethylene)-1,1-dimethyl-guanidine hydrochloride

> <PUBCHEM_IUPAC_CAS_NAME>
3-(diaminomethylidene)-1,1-dimethylguanidine hydrochloride

> <PUBCHEM_IUPAC_NAME>
3-(diaminomethylidene)-1,1-dimethylguanidine hydrochloride

> <PUBCHEM_IUPAC_SYSTEMATIC_NAME>
3-[bis(azanyl)methylidene]-1,1-dimethyl-guanidine hydrochloride

> <PUBCHEM_IUPAC_TRADITIONAL_NAME>
3-(diaminomethylene)-1,1-dimethyl-guanidine hydrochloride

> <PUBCHEM_IUPAC_INCHI>
InChI=1S/C4H11N5.ClH/c1-9(2)4(7)8-3(5)6;/h1-2H3,(H5,5,6,7,8);1H

> <PUBCHEM_IUPAC_INCHIKEY>
OETHQSJEHLVLGH-UHFFFAOYSA-N

> <PUBCHEM_EXACT_MASS>
165.078123

> <PUBCHEM_MOLECULAR_FORMULA>
C4H12ClN5

> <PUBCHEM_MOLECULAR_WEIGHT>
165.62458

> <PUBCHEM_OPENEYE_CAN_SMILES>
CN(C)C(=N)N=C(N)N.Cl

> <PUBCHEM_OPENEYE_ISO_SMILES>
CN(C)C(=N)N=C(N)N.Cl

> <PUBCHEM_CACTVS_TPSA>
91.5

> <PUBCHEM_MONOISOTOPIC_WEIGHT>
165.078123

> <PUBCHEM_TOTAL_CHARGE>
0

> <PUBCHEM_HEAVY_ATOM_COUNT>
10

> <PUBCHEM_ATOM_DEF_STEREO_COUNT>
0

> <PUBCHEM_ATOM_UDEF_STEREO_COUNT>
0

> <PUBCHEM_BOND_DEF_STEREO_COUNT>
0

> <PUBCHEM_BOND_UDEF_STEREO_COUNT>
0

> <PUBCHEM_ISOTOPIC_ATOM_COUNT>
0

> <PUBCHEM_COMPONENT_COUNT>
2

> <PUBCHEM_CACTVS_TAUTO_COUNT>
3

> <PUBCHEM_COORDINATE_TYPE>
1
5
255

$$$$

