4218
  -OEChem-06251223582D

 61 63  0     1  0  0  0  0  0999 V2000
    3.8660    1.5981    0.0000 S   0  0  0  0  0  0  0  0  0  0  0  0
    5.2320   -1.7680    0.0000 S   0  0  0  0  0  0  0  0  0  0  0  0
    2.8660    1.5981    0.0000 O   0  0  0  0  0  0  0  0  0  0  0  0
    4.8660    1.5981    0.0000 O   0  0  0  0  0  0  0  0  0  0  0  0
    4.3660   -2.2680    0.0000 O   0  0  0  0  0  0  0  0  0  0  0  0
    6.0981   -1.2680    0.0000 O   0  0  0  0  0  0  0  0  0  0  0  0
    5.5981    1.5981    0.0000 O   0  0  0  0  0  0  0  0  0  0  0  0
    7.0981    1.4641    0.0000 O   0  0  0  0  0  0  0  0  0  0  0  0
    3.8660    5.5981    0.0000 O   0  0  0  0  0  0  0  0  0  0  0  0
    7.2320   -5.2320    0.0000 O   0  0  0  0  0  0  0  0  0  0  0  0
    3.8660    0.5981    0.0000 N   0  0  3  0  0  0  0  0  0  0  0  0
    4.7320   -0.9019    0.0000 N   0  0  3  0  0  0  0  0  0  0  0  0
    6.5981    0.5981    0.0000 N   0  0  0  0  0  0  0  0  0  0  0  0
    3.0000   -0.9019    0.0000 C   0  0  0  0  0  0  0  0  0  0  0  0
    3.0000    0.0981    0.0000 C   0  0  0  0  0  0  0  0  0  0  0  0
    3.8660   -1.4019    0.0000 C   0  0  0  0  0  0  0  0  0  0  0  0
    4.7320    0.0981    0.0000 C   0  0  0  0  0  0  0  0  0  0  0  0
    2.0000   -0.9019    0.0000 C   0  0  0  0  0  0  0  0  0  0  0  0
    2.5000   -1.7680    0.0000 C   0  0  0  0  0  0  0  0  0  0  0  0
    5.5981    0.5981    0.0000 C   0  0  0  0  0  0  0  0  0  0  0  0
    5.7320   -2.6340    0.0000 C   0  0  0  0  0  0  0  0  0  0  0  0
    3.8660    2.5981    0.0000 C   0  0  0  0  0  0  0  0  0  0  0  0
    5.2320   -3.5000    0.0000 C   0  0  0  0  0  0  0  0  0  0  0  0
    4.7320    3.0981    0.0000 C   0  0  0  0  0  0  0  0  0  0  0  0
    6.7320   -2.6340    0.0000 C   0  0  0  0  0  0  0  0  0  0  0  0
    3.0000    3.0981    0.0000 C   0  0  0  0  0  0  0  0  0  0  0  0
    4.7320    4.0981    0.0000 C   0  0  0  0  0  0  0  0  0  0  0  0
    5.7320   -4.3660    0.0000 C   0  0  0  0  0  0  0  0  0  0  0  0
    3.0000    4.0981    0.0000 C   0  0  0  0  0  0  0  0  0  0  0  0
    7.2320   -3.5000    0.0000 C   0  0  0  0  0  0  0  0  0  0  0  0
    3.8660    4.5981    0.0000 C   0  0  0  0  0  0  0  0  0  0  0  0
    6.7320   -4.3660    0.0000 C   0  0  0  0  0  0  0  0  0  0  0  0
    6.7320   -6.0981    0.0000 C   0  0  0  0  0  0  0  0  0  0  0  0
    3.0000    6.0981    0.0000 C   0  0  0  0  0  0  0  0  0  0  0  0
    3.4675   -1.8769    0.0000 H   0  0  0  0  0  0  0  0  0  0  0  0
    4.2646   -1.8769    0.0000 H   0  0  0  0  0  0  0  0  0  0  0  0
    2.7880    0.6807    0.0000 H   0  0  0  0  0  0  0  0  0  0  0  0
    2.3894   -0.0096    0.0000 H   0  0  0  0  0  0  0  0  0  0  0  0
    4.7320    0.7181    0.0000 H   0  0  0  0  0  0  0  0  0  0  0  0
    2.0000   -0.2819    0.0000 H   0  0  0  0  0  0  0  0  0  0  0  0
    1.3800   -0.9019    0.0000 H   0  0  0  0  0  0  0  0  0  0  0  0
    2.0000   -1.5219    0.0000 H   0  0  0  0  0  0  0  0  0  0  0  0
    1.9631   -1.4580    0.0000 H   0  0  0  0  0  0  0  0  0  0  0  0
    2.1900   -2.3049    0.0000 H   0  0  0  0  0  0  0  0  0  0  0  0
    3.0369   -2.0780    0.0000 H   0  0  0  0  0  0  0  0  0  0  0  0
    6.9081    0.0611    0.0000 H   0  0  0  0  0  0  0  0  0  0  0  0
    4.6120   -3.5000    0.0000 H   0  0  0  0  0  0  0  0  0  0  0  0
    5.2690    2.7881    0.0000 H   0  0  0  0  0  0  0  0  0  0  0  0
    7.0420   -2.0970    0.0000 H   0  0  0  0  0  0  0  0  0  0  0  0
    2.4631    2.7881    0.0000 H   0  0  0  0  0  0  0  0  0  0  0  0
    5.4220   -4.9030    0.0000 H   0  0  0  0  0  0  0  0  0  0  0  0
    5.2690    4.4081    0.0000 H   0  0  0  0  0  0  0  0  0  0  0  0
    7.8520   -3.5000    0.0000 H   0  0  0  0  0  0  0  0  0  0  0  0
    2.4631    4.4081    0.0000 H   0  0  0  0  0  0  0  0  0  0  0  0
    6.7881    2.0010    0.0000 H   0  0  0  0  0  0  0  0  0  0  0  0
    3.3100    6.6350    0.0000 H   0  0  0  0  0  0  0  0  0  0  0  0
    2.4631    6.4081    0.0000 H   0  0  0  0  0  0  0  0  0  0  0  0
    2.6900    5.5611    0.0000 H   0  0  0  0  0  0  0  0  0  0  0  0
    6.1951   -5.7881    0.0000 H   0  0  0  0  0  0  0  0  0  0  0  0
    6.4220   -6.6350    0.0000 H   0  0  0  0  0  0  0  0  0  0  0  0
    7.2690   -6.4081    0.0000 H   0  0  0  0  0  0  0  0  0  0  0  0
  1  3  2  0  0  0  0
  1  4  2  0  0  0  0
  1 11  1  0  0  0  0
  1 22  1  0  0  0  0
  2  5  2  0  0  0  0
  2  6  2  0  0  0  0
  2 12  1  0  0  0  0
  2 21  1  0  0  0  0
  7 20  2  0  0  0  0
  8 13  1  0  0  0  0
  8 55  1  0  0  0  0
  9 31  1  0  0  0  0
  9 34  1  0  0  0  0
 10 32  1  0  0  0  0
 10 33  1  0  0  0  0
 11 15  1  0  0  0  0
 11 17  1  0  0  0  0
 12 16  1  0  0  0  0
 12 17  1  0  0  0  0
 13 20  1  0  0  0  0
 13 46  1  0  0  0  0
 14 15  1  0  0  0  0
 14 16  1  0  0  0  0
 14 18  1  0  0  0  0
 14 19  1  0  0  0  0
 15 37  1  0  0  0  0
 15 38  1  0  0  0  0
 16 35  1  0  0  0  0
 16 36  1  0  0  0  0
 17 20  1  0  0  0  0
 17 39  1  0  0  0  0
 18 40  1  0  0  0  0
 18 41  1  0  0  0  0
 18 42  1  0  0  0  0
 19 43  1  0  0  0  0
 19 44  1  0  0  0  0
 19 45  1  0  0  0  0
 21 23  2  0  0  0  0
 21 25  1  0  0  0  0
 22 24  2  0  0  0  0
 22 26  1  0  0  0  0
 23 28  1  0  0  0  0
 23 47  1  0  0  0  0
 24 27  1  0  0  0  0
 24 48  1  0  0  0  0
 25 30  2  0  0  0  0
 25 49  1  0  0  0  0
 26 29  2  0  0  0  0
 26 50  1  0  0  0  0
 27 31  2  0  0  0  0
 27 52  1  0  0  0  0
 28 32  2  0  0  0  0
 28 51  1  0  0  0  0
 29 31  1  0  0  0  0
 29 54  1  0  0  0  0
 30 32  1  0  0  0  0
 30 53  1  0  0  0  0
 33 59  1  0  0  0  0
 33 60  1  0  0  0  0
 33 61  1  0  0  0  0
 34 56  1  0  0  0  0
 34 57  1  0  0  0  0
 34 58  1  0  0  0  0
M  END
> <PUBCHEM_COMPOUND_CID>
4218

> <PUBCHEM_COMPOUND_CANONICALIZED>
1

> <PUBCHEM_CACTVS_COMPLEXITY>
847

> <PUBCHEM_CACTVS_HBOND_ACCEPTOR>
10

> <PUBCHEM_CACTVS_HBOND_DONOR>
2

> <PUBCHEM_CACTVS_ROTATABLE_BOND>
7

> <PUBCHEM_CACTVS_SUBSKEYS>
AAADceB7PABgAAAAAAAAAAAAAAAAAAAAAAA8YIAAAAAAAAABQAAAHgQUSAAADgTB0AYzB4JQBAKIACFSEHBCCBAgIAAoiBiOCIiMZiKEcTqUMCAs0BOIqAeAQAAAAIAAAAAAAAABAAAAAAAAAAAAAAAAAA==

> <PUBCHEM_IUPAC_OPENEYE_NAME>
1,3-bis[(4-methoxyphenyl)sulfonyl]-5,5-dimethyl-hexahydropyrimidine-2-carbohydroxamic acid

> <PUBCHEM_IUPAC_CAS_NAME>
N-hydroxy-1,3-bis[(4-methoxyphenyl)sulfonyl]-5,5-dimethyl-1,3-diazinane-2-carboxamide

> <PUBCHEM_IUPAC_NAME>
N-hydroxy-1,3-bis[(4-methoxyphenyl)sulfonyl]-5,5-dimethyl-1,3-diazinane-2-carboxamide

> <PUBCHEM_IUPAC_SYSTEMATIC_NAME>
1,3-bis[(4-methoxyphenyl)sulfonyl]-5,5-dimethyl-N-oxidanyl-1,3-diazinane-2-carboxamide

> <PUBCHEM_IUPAC_TRADITIONAL_NAME>
1,3-bis[(4-methoxyphenyl)sulfonyl]-5,5-dimethyl-hexahydropyrimidine-2-carbohydroxamic acid

> <PUBCHEM_IUPAC_INCHI>
InChI=1S/C21H27N3O8S2/c1-21(2)13-23(33(27,28)17-9-5-15(31-3)6-10-17)20(19(25)22-26)24(14-21)34(29,30)18-11-7-16(32-4)8-12-18/h5-12,20,26H,13-14H2,1-4H3,(H,22,25)

> <PUBCHEM_IUPAC_INCHIKEY>
MCSWSPNUKWMZHM-UHFFFAOYSA-N

> <PUBCHEM_XLOGP3_AA>
1.8

> <PUBCHEM_EXACT_MASS>
513.123957

> <PUBCHEM_MOLECULAR_FORMULA>
C21H27N3O8S2

> <PUBCHEM_MOLECULAR_WEIGHT>
513.58438

> <PUBCHEM_OPENEYE_CAN_SMILES>
CC1(CN(C(N(C1)S(=O)(=O)C2=CC=C(C=C2)OC)C(=O)NO)S(=O)(=O)C3=CC=C(C=C3)OC)C

> <PUBCHEM_OPENEYE_ISO_SMILES>
CC1(CN(C(N(C1)S(=O)(=O)C2=CC=C(C=C2)OC)C(=O)NO)S(=O)(=O)C3=CC=C(C=C3)OC)C

> <PUBCHEM_CACTVS_TPSA>
159

> <PUBCHEM_MONOISOTOPIC_WEIGHT>
513.123957

> <PUBCHEM_TOTAL_CHARGE>
0

> <PUBCHEM_HEAVY_ATOM_COUNT>
34

> <PUBCHEM_ATOM_DEF_STEREO_COUNT>
0

> <PUBCHEM_ATOM_UDEF_STEREO_COUNT>
0

> <PUBCHEM_BOND_DEF_STEREO_COUNT>
0

> <PUBCHEM_BOND_UDEF_STEREO_COUNT>
0

> <PUBCHEM_ISOTOPIC_ATOM_COUNT>
0

> <PUBCHEM_COMPONENT_COUNT>
1

> <PUBCHEM_CACTVS_TAUTO_COUNT>
4

> <PUBCHEM_COORDINATE_TYPE>
1
5
255

> <PUBCHEM_BONDANNOTATIONS>
21  23  8
21  25  8
22  24  8
22  26  8
23  28  8
24  27  8
25  30  8
26  29  8
27  31  8
28  32  8
29  31  8
30  32  8

$$$$

