14211
  -OEChem-06241222422D

 25 24  0     0  0  0  0  0  0999 V2000
    5.4641    0.5950    0.0000 N   0  0  0  0  0  0  0  0  0  0  0  0
    3.7320    0.5950    0.0000 N   0  0  0  0  0  0  0  0  0  0  0  0
    4.5981   -0.9050    0.0000 N   0  0  0  0  0  0  0  0  0  0  0  0
    2.0000   -0.4050    0.0000 N   0  0  0  0  0  0  0  0  0  0  0  0
    6.3301    0.0950    0.0000 C   0  0  0  0  0  0  0  0  0  0  0  0
    7.1962   -0.4050    0.0000 C   0  0  0  0  0  0  0  0  0  0  0  0
    6.8301    0.9610    0.0000 C   0  0  0  0  0  0  0  0  0  0  0  0
    5.8301   -0.7710    0.0000 C   0  0  0  0  0  0  0  0  0  0  0  0
    8.0622    0.0950    0.0000 C   0  0  0  0  0  0  0  0  0  0  0  0
    4.5981    0.0950    0.0000 C   0  0  0  0  0  0  0  0  0  0  0  0
    2.8660    0.0950    0.0000 C   0  0  0  0  0  0  0  0  0  0  0  0
    6.7976   -0.8799    0.0000 H   0  0  0  0  0  0  0  0  0  0  0  0
    7.5947   -0.8799    0.0000 H   0  0  0  0  0  0  0  0  0  0  0  0
    7.3671    0.6510    0.0000 H   0  0  0  0  0  0  0  0  0  0  0  0
    7.1401    1.4980    0.0000 H   0  0  0  0  0  0  0  0  0  0  0  0
    6.2932    1.2710    0.0000 H   0  0  0  0  0  0  0  0  0  0  0  0
    5.2932   -0.4610    0.0000 H   0  0  0  0  0  0  0  0  0  0  0  0
    5.5201   -1.3080    0.0000 H   0  0  0  0  0  0  0  0  0  0  0  0
    6.3671   -1.0810    0.0000 H   0  0  0  0  0  0  0  0  0  0  0  0
    8.3722   -0.4419    0.0000 H   0  0  0  0  0  0  0  0  0  0  0  0
    8.5991    0.4050    0.0000 H   0  0  0  0  0  0  0  0  0  0  0  0
    7.7522    0.6319    0.0000 H   0  0  0  0  0  0  0  0  0  0  0  0
    3.7320    1.2150    0.0000 H   0  0  0  0  0  0  0  0  0  0  0  0
    4.0611   -1.2150    0.0000 H   0  0  0  0  0  0  0  0  0  0  0  0
    5.1350   -1.2150    0.0000 H   0  0  0  0  0  0  0  0  0  0  0  0
  1  5  1  0  0  0  0
  1 10  2  0  0  0  0
  2 10  1  0  0  0  0
  2 11  1  0  0  0  0
  2 23  1  0  0  0  0
  3 10  1  0  0  0  0
  3 24  1  0  0  0  0
  3 25  1  0  0  0  0
  4 11  3  0  0  0  0
  5  6  1  0  0  0  0
  5  7  1  0  0  0  0
  5  8  1  0  0  0  0
  6  9  1  0  0  0  0
  6 12  1  0  0  0  0
  6 13  1  0  0  0  0
  7 14  1  0  0  0  0
  7 15  1  0  0  0  0
  7 16  1  0  0  0  0
  8 17  1  0  0  0  0
  8 18  1  0  0  0  0
  8 19  1  0  0  0  0
  9 20  1  0  0  0  0
  9 21  1  0  0  0  0
  9 22  1  0  0  0  0
M  END
> <PUBCHEM_COMPOUND_CID>
14211

> <PUBCHEM_COMPOUND_CANONICALIZED>
1

> <PUBCHEM_CACTVS_COMPLEXITY>
196

> <PUBCHEM_CACTVS_HBOND_ACCEPTOR>
2

> <PUBCHEM_CACTVS_HBOND_DONOR>
2

> <PUBCHEM_CACTVS_ROTATABLE_BOND>
3

> <PUBCHEM_CACTVS_SUBSKEYS>
AAADccBjgAAAAAAAAAAAAAAAAAAAAAAAAAAAAAAAAAAAAAAAAAAAHAAQAAAADIiBAAADAALAAAAwAAAAJAAAAAEAAAABAAAAAACAAAAAAAAAAAAAAAAAAAAAAAAIAAAAAAAAAAAAAAAAAAAAAAAAAAAAAA==

> <PUBCHEM_IUPAC_OPENEYE_NAME>
1-cyano-2-(1,1-dimethylpropyl)guanidine

> <PUBCHEM_IUPAC_CAS_NAME>
1-cyano-2-(2-methylbutan-2-yl)guanidine

> <PUBCHEM_IUPAC_NAME>
1-cyano-2-(2-methylbutan-2-yl)guanidine

> <PUBCHEM_IUPAC_SYSTEMATIC_NAME>
1-cyano-2-(2-methylbutan-2-yl)guanidine

> <PUBCHEM_IUPAC_TRADITIONAL_NAME>
2-tert-amyl-1-cyano-guanidine

> <PUBCHEM_IUPAC_INCHI>
InChI=1S/C7H14N4/c1-4-7(2,3)11-6(9)10-5-8/h4H2,1-3H3,(H3,9,10,11)

> <PUBCHEM_IUPAC_INCHIKEY>
VZVGEDRCVUKSEL-UHFFFAOYSA-N

> <PUBCHEM_XLOGP3_AA>
0.6

> <PUBCHEM_EXACT_MASS>
154.121846

> <PUBCHEM_MOLECULAR_FORMULA>
C7H14N4

> <PUBCHEM_MOLECULAR_WEIGHT>
154.21286

> <PUBCHEM_OPENEYE_CAN_SMILES>
CCC(C)(C)N=C(N)NC#N

> <PUBCHEM_OPENEYE_ISO_SMILES>
CCC(C)(C)N=C(N)NC#N

> <PUBCHEM_CACTVS_TPSA>
74.2

> <PUBCHEM_MONOISOTOPIC_WEIGHT>
154.121846

> <PUBCHEM_TOTAL_CHARGE>
0

> <PUBCHEM_HEAVY_ATOM_COUNT>
11

> <PUBCHEM_ATOM_DEF_STEREO_COUNT>
0

> <PUBCHEM_ATOM_UDEF_STEREO_COUNT>
0

> <PUBCHEM_BOND_DEF_STEREO_COUNT>
0

> <PUBCHEM_BOND_UDEF_STEREO_COUNT>
0

> <PUBCHEM_ISOTOPIC_ATOM_COUNT>
0

> <PUBCHEM_COMPONENT_COUNT>
1

> <PUBCHEM_CACTVS_TAUTO_COUNT>
3

> <PUBCHEM_COORDINATE_TYPE>
1
5
255

$$$$

