12202
  -OEChem-06261206392D

 30 29  0     0  0  0  0  0  0999 V2000
    5.4641   -0.5950    0.0000 O   0  0  0  0  0  0  0  0  0  0  0  0
    5.4641    0.4050    0.0000 C   0  0  0  0  0  0  0  0  0  0  0  0
    6.3301    0.9050    0.0000 C   0  0  0  0  0  0  0  0  0  0  0  0
    4.5981    0.9050    0.0000 C   0  0  0  0  0  0  0  0  0  0  0  0
    7.1962    0.4050    0.0000 C   0  0  0  0  0  0  0  0  0  0  0  0
    3.7320    0.4050    0.0000 C   0  0  0  0  0  0  0  0  0  0  0  0
    2.8660    0.9050    0.0000 C   0  0  0  0  0  0  0  0  0  0  0  0
    8.0622    0.9050    0.0000 C   0  0  0  0  0  0  0  0  0  0  0  0
    8.9282    0.4050    0.0000 C   0  0  0  0  0  0  0  0  0  0  0  0
    2.0000    0.4050    0.0000 C   0  0  0  0  0  0  0  0  0  0  0  0
    6.0010    0.0950    0.0000 H   0  0  0  0  0  0  0  0  0  0  0  0
    4.9966    1.3800    0.0000 H   0  0  0  0  0  0  0  0  0  0  0  0
    4.1996    1.3800    0.0000 H   0  0  0  0  0  0  0  0  0  0  0  0
    6.7287    1.3800    0.0000 H   0  0  0  0  0  0  0  0  0  0  0  0
    5.9316    1.3800    0.0000 H   0  0  0  0  0  0  0  0  0  0  0  0
    6.7976   -0.0699    0.0000 H   0  0  0  0  0  0  0  0  0  0  0  0
    7.5947   -0.0699    0.0000 H   0  0  0  0  0  0  0  0  0  0  0  0
    3.3335   -0.0699    0.0000 H   0  0  0  0  0  0  0  0  0  0  0  0
    4.1306   -0.0699    0.0000 H   0  0  0  0  0  0  0  0  0  0  0  0
    3.2646    1.3800    0.0000 H   0  0  0  0  0  0  0  0  0  0  0  0
    2.4675    1.3800    0.0000 H   0  0  0  0  0  0  0  0  0  0  0  0
    8.4607    1.3800    0.0000 H   0  0  0  0  0  0  0  0  0  0  0  0
    7.6636    1.3800    0.0000 H   0  0  0  0  0  0  0  0  0  0  0  0
    4.9272   -0.9050    0.0000 H   0  0  0  0  0  0  0  0  0  0  0  0
    8.6182   -0.1319    0.0000 H   0  0  0  0  0  0  0  0  0  0  0  0
    9.4651    0.0950    0.0000 H   0  0  0  0  0  0  0  0  0  0  0  0
    9.2382    0.9419    0.0000 H   0  0  0  0  0  0  0  0  0  0  0  0
    1.6900    0.9419    0.0000 H   0  0  0  0  0  0  0  0  0  0  0  0
    1.4631    0.0950    0.0000 H   0  0  0  0  0  0  0  0  0  0  0  0
    2.3100   -0.1319    0.0000 H   0  0  0  0  0  0  0  0  0  0  0  0
  1  2  1  0  0  0  0
  1 24  1  0  0  0  0
  2  3  1  0  0  0  0
  2  4  1  0  0  0  0
  2 11  1  0  0  0  0
  3  5  1  0  0  0  0
  3 14  1  0  0  0  0
  3 15  1  0  0  0  0
  4  6  1  0  0  0  0
  4 12  1  0  0  0  0
  4 13  1  0  0  0  0
  5  8  1  0  0  0  0
  5 16  1  0  0  0  0
  5 17  1  0  0  0  0
  6  7  1  0  0  0  0
  6 18  1  0  0  0  0
  6 19  1  0  0  0  0
  7 10  1  0  0  0  0
  7 20  1  0  0  0  0
  7 21  1  0  0  0  0
  8  9  1  0  0  0  0
  8 22  1  0  0  0  0
  8 23  1  0  0  0  0
  9 25  1  0  0  0  0
  9 26  1  0  0  0  0
  9 27  1  0  0  0  0
 10 28  1  0  0  0  0
 10 29  1  0  0  0  0
 10 30  1  0  0  0  0
M  END
> <PUBCHEM_COMPOUND_CID>
12202

> <PUBCHEM_COMPOUND_CANONICALIZED>
1

> <PUBCHEM_CACTVS_COMPLEXITY>
53.7

> <PUBCHEM_CACTVS_HBOND_ACCEPTOR>
1

> <PUBCHEM_CACTVS_HBOND_DONOR>
1

> <PUBCHEM_CACTVS_ROTATABLE_BOND>
6

> <PUBCHEM_CACTVS_SUBSKEYS>
AAADceBwIAAAAAAAAAAAAAAAAAAAAAAAAAAAAAAAAAAAAAAAAAAAGgAACAAACBSggAICAAAAAgAAAAAAAAAAAAAAAAAAAAAAAAAAEAIAAAAAQAAEAAAAAAGAgIAAAAAAAAAAAAAAAAAAAAAAAAAAAAAAAA==

> <PUBCHEM_IUPAC_OPENEYE_NAME>
nonan-5-ol

> <PUBCHEM_IUPAC_CAS_NAME>
5-nonanol

> <PUBCHEM_IUPAC_NAME>
nonan-5-ol

> <PUBCHEM_IUPAC_SYSTEMATIC_NAME>
nonan-5-ol

> <PUBCHEM_IUPAC_TRADITIONAL_NAME>
nonan-5-ol

> <PUBCHEM_IUPAC_INCHI>
InChI=1S/C9H20O/c1-3-5-7-9(10)8-6-4-2/h9-10H,3-8H2,1-2H3

> <PUBCHEM_IUPAC_INCHIKEY>
FCBBRODPXVPZAH-UHFFFAOYSA-N

> <PUBCHEM_XLOGP3>
3.2

> <PUBCHEM_EXACT_MASS>
144.151415

> <PUBCHEM_MOLECULAR_FORMULA>
C9H20O

> <PUBCHEM_MOLECULAR_WEIGHT>
144.2545

> <PUBCHEM_OPENEYE_CAN_SMILES>
CCCCC(CCCC)O

> <PUBCHEM_OPENEYE_ISO_SMILES>
CCCCC(CCCC)O

> <PUBCHEM_CACTVS_TPSA>
20.2

> <PUBCHEM_MONOISOTOPIC_WEIGHT>
144.151415

> <PUBCHEM_TOTAL_CHARGE>
0

> <PUBCHEM_HEAVY_ATOM_COUNT>
10

> <PUBCHEM_ATOM_DEF_STEREO_COUNT>
0

> <PUBCHEM_ATOM_UDEF_STEREO_COUNT>
0

> <PUBCHEM_BOND_DEF_STEREO_COUNT>
0

> <PUBCHEM_BOND_UDEF_STEREO_COUNT>
0

> <PUBCHEM_ISOTOPIC_ATOM_COUNT>
0

> <PUBCHEM_COMPONENT_COUNT>
1

> <PUBCHEM_CACTVS_TAUTO_COUNT>
1

> <PUBCHEM_COORDINATE_TYPE>
1
5
255

$$$$

