17395624
  -OEChem-06241222512D

 26 28  0     0  0  0  0  0  0999 V2000
    3.8968    2.4568    0.0000 S   0  0  0  0  0  0  0  0  0  0  0  0
    2.3090    3.2658    0.0000 S   0  0  0  0  0  0  0  0  0  0  0  0
    4.5778   -4.8046    0.0000 F   0  0  0  0  0  0  0  0  0  0  0  0
    3.7688   -0.2168    0.0000 O   0  0  0  0  0  0  0  0  0  0  0  0
    5.3869   -0.2168    0.0000 N   0  0  0  0  0  0  0  0  0  0  0  0
    5.0778    0.7342    0.0000 N   0  0  0  0  0  0  0  0  0  0  0  0
    3.6180    4.2168    0.0000 N   0  0  0  0  0  0  0  0  0  0  0  0
    2.8090    4.8046    0.0000 N   0  0  0  0  0  0  0  0  0  0  0  0
    4.5778   -1.8046    0.0000 C   0  0  0  0  0  0  0  0  0  0  0  0
    4.5778   -0.8046    0.0000 C   0  0  0  0  0  0  0  0  0  0  0  0
    4.0778    0.7342    0.0000 C   0  0  0  0  0  0  0  0  0  0  0  0
    3.4901    1.5432    0.0000 C   0  0  0  0  0  0  0  0  0  0  0  0
    3.7118   -2.3046    0.0000 C   0  0  0  0  0  0  0  0  0  0  0  0
    5.4439   -2.3046    0.0000 C   0  0  0  0  0  0  0  0  0  0  0  0
    3.7118   -3.3046    0.0000 C   0  0  0  0  0  0  0  0  0  0  0  0
    5.4439   -3.3046    0.0000 C   0  0  0  0  0  0  0  0  0  0  0  0
    4.5778   -3.8046    0.0000 C   0  0  0  0  0  0  0  0  0  0  0  0
    3.3090    3.2658    0.0000 C   0  0  0  0  0  0  0  0  0  0  0  0
    2.0000    4.2168    0.0000 C   0  0  0  0  0  0  0  0  0  0  0  0
    2.9761    1.8899    0.0000 H   0  0  0  0  0  0  0  0  0  0  0  0
    3.0594    1.0972    0.0000 H   0  0  0  0  0  0  0  0  0  0  0  0
    3.1749   -1.9946    0.0000 H   0  0  0  0  0  0  0  0  0  0  0  0
    5.9808   -1.9946    0.0000 H   0  0  0  0  0  0  0  0  0  0  0  0
    3.1749   -3.6146    0.0000 H   0  0  0  0  0  0  0  0  0  0  0  0
    5.9808   -3.6146    0.0000 H   0  0  0  0  0  0  0  0  0  0  0  0
    1.4103    4.4084    0.0000 H   0  0  0  0  0  0  0  0  0  0  0  0
  1 12  1  0  0  0  0
  1 18  1  0  0  0  0
  2 18  1  0  0  0  0
  2 19  1  0  0  0  0
  3 17  1  0  0  0  0
  4 10  1  0  0  0  0
  4 11  1  0  0  0  0
  5  6  1  0  0  0  0
  5 10  2  0  0  0  0
  6 11  2  0  0  0  0
  7  8  1  0  0  0  0
  7 18  2  0  0  0  0
  8 19  2  0  0  0  0
  9 10  1  0  0  0  0
  9 13  2  0  0  0  0
  9 14  1  0  0  0  0
 11 12  1  0  0  0  0
 12 20  1  0  0  0  0
 12 21  1  0  0  0  0
 13 15  1  0  0  0  0
 13 22  1  0  0  0  0
 14 16  2  0  0  0  0
 14 23  1  0  0  0  0
 15 17  2  0  0  0  0
 15 24  1  0  0  0  0
 16 17  1  0  0  0  0
 16 25  1  0  0  0  0
 19 26  1  0  0  0  0
M  END
> <PUBCHEM_COMPOUND_CID>
17395624

> <PUBCHEM_COMPOUND_CANONICALIZED>
1

> <PUBCHEM_CACTVS_COMPLEXITY>
294

> <PUBCHEM_CACTVS_HBOND_ACCEPTOR>
8

> <PUBCHEM_CACTVS_HBOND_DONOR>
0

> <PUBCHEM_CACTVS_ROTATABLE_BOND>
4

> <PUBCHEM_CACTVS_SUBSKEYS>
AAADcYBzoQBgAAAAAAAAAAAAAAAAAWLAAAAwAAAAAAAAAAAB8AAAHwQIAAAADACF2gy0AIAABEiuAiFzEACSAQBsgBAaiCEwDNgIJrKAtRmKMQBkyAEIqYeYyCCOAAAAAAAAAAAAAAAAAAAAAAAAAAAAAA==

> <PUBCHEM_IUPAC_OPENEYE_NAME>
2-(4-fluorophenyl)-5-(1,3,4-thiadiazol-2-ylsulfanylmethyl)-1,3,4-oxadiazole

> <PUBCHEM_IUPAC_CAS_NAME>
2-(4-fluorophenyl)-5-[(1,3,4-thiadiazol-2-ylthio)methyl]-1,3,4-oxadiazole

> <PUBCHEM_IUPAC_NAME>
2-(4-fluorophenyl)-5-(1,3,4-thiadiazol-2-ylsulfanylmethyl)-1,3,4-oxadiazole

> <PUBCHEM_IUPAC_SYSTEMATIC_NAME>
2-(4-fluorophenyl)-5-(1,3,4-thiadiazol-2-ylsulfanylmethyl)-1,3,4-oxadiazole

> <PUBCHEM_IUPAC_TRADITIONAL_NAME>
2-(4-fluorophenyl)-5-[(1,3,4-thiadiazol-2-ylthio)methyl]-1,3,4-oxadiazole

> <PUBCHEM_IUPAC_INCHI>
InChI=1S/C11H7FN4OS2/c12-8-3-1-7(2-4-8)10-15-14-9(17-10)5-18-11-16-13-6-19-11/h1-4,6H,5H2

> <PUBCHEM_IUPAC_INCHIKEY>
GZYRYDNCNWAFBK-UHFFFAOYSA-N

> <PUBCHEM_XLOGP3_AA>
2.3

> <PUBCHEM_EXACT_MASS>
294.004531

> <PUBCHEM_MOLECULAR_FORMULA>
C11H7FN4OS2

> <PUBCHEM_MOLECULAR_WEIGHT>
294.327883

> <PUBCHEM_OPENEYE_CAN_SMILES>
C1=CC(=CC=C1C2=NN=C(O2)CSC3=NN=CS3)F

> <PUBCHEM_OPENEYE_ISO_SMILES>
C1=CC(=CC=C1C2=NN=C(O2)CSC3=NN=CS3)F

> <PUBCHEM_CACTVS_TPSA>
118

> <PUBCHEM_MONOISOTOPIC_WEIGHT>
294.004531

> <PUBCHEM_TOTAL_CHARGE>
0

> <PUBCHEM_HEAVY_ATOM_COUNT>
19

> <PUBCHEM_ATOM_DEF_STEREO_COUNT>
0

> <PUBCHEM_ATOM_UDEF_STEREO_COUNT>
0

> <PUBCHEM_BOND_DEF_STEREO_COUNT>
0

> <PUBCHEM_BOND_UDEF_STEREO_COUNT>
0

> <PUBCHEM_ISOTOPIC_ATOM_COUNT>
0

> <PUBCHEM_COMPONENT_COUNT>
1

> <PUBCHEM_CACTVS_TAUTO_COUNT>
1

> <PUBCHEM_COORDINATE_TYPE>
1
5
255

> <PUBCHEM_BONDANNOTATIONS>
13  15  8
14  16  8
15  17  8
16  17  8
2  18  8
2  19  8
4  10  8
4  11  8
5  10  8
5  6  8
6  11  8
7  18  8
7  8  8
8  19  8
9  13  8
9  14  8

$$$$

