9079
  -OEChem-06261203232D

 25 25  0     0  0  0  0  0  0999 V2000
    3.7320    2.1900    0.0000 N   0  0  0  0  0  0  0  0  0  0  0  0
    4.5981    2.6900    0.0000 N   0  0  0  0  0  0  0  0  0  0  0  0
    2.8660    0.6900    0.0000 C   0  0  0  0  0  0  0  0  0  0  0  0
    2.8660   -0.3100    0.0000 C   0  0  0  0  0  0  0  0  0  0  0  0
    3.7320    1.1900    0.0000 C   0  0  0  0  0  0  0  0  0  0  0  0
    2.0000   -0.8100    0.0000 C   0  0  0  0  0  0  0  0  0  0  0  0
    3.7320   -0.8100    0.0000 C   0  0  0  0  0  0  0  0  0  0  0  0
    2.8660   -2.3100    0.0000 C   0  0  0  0  0  0  0  0  0  0  0  0
    2.0000   -1.8100    0.0000 C   0  0  0  0  0  0  0  0  0  0  0  0
    3.7320   -1.8100    0.0000 C   0  0  0  0  0  0  0  0  0  0  0  0
    2.8660   -3.3100    0.0000 C   0  0  0  0  0  0  0  0  0  0  0  0
    2.6540    1.2726    0.0000 H   0  0  0  0  0  0  0  0  0  0  0  0
    2.2554    0.5823    0.0000 H   0  0  0  0  0  0  0  0  0  0  0  0
    3.9441    0.6074    0.0000 H   0  0  0  0  0  0  0  0  0  0  0  0
    4.3426    1.2977    0.0000 H   0  0  0  0  0  0  0  0  0  0  0  0
    1.4631   -0.5000    0.0000 H   0  0  0  0  0  0  0  0  0  0  0  0
    4.2690   -0.5000    0.0000 H   0  0  0  0  0  0  0  0  0  0  0  0
    1.4631   -2.1200    0.0000 H   0  0  0  0  0  0  0  0  0  0  0  0
    4.2690   -2.1200    0.0000 H   0  0  0  0  0  0  0  0  0  0  0  0
    3.1951    2.5000    0.0000 H   0  0  0  0  0  0  0  0  0  0  0  0
    2.2460   -3.3100    0.0000 H   0  0  0  0  0  0  0  0  0  0  0  0
    2.8660   -3.9300    0.0000 H   0  0  0  0  0  0  0  0  0  0  0  0
    3.4860   -3.3100    0.0000 H   0  0  0  0  0  0  0  0  0  0  0  0
    4.5981    3.3100    0.0000 H   0  0  0  0  0  0  0  0  0  0  0  0
    5.1350    2.3800    0.0000 H   0  0  0  0  0  0  0  0  0  0  0  0
  1  2  1  0  0  0  0
  1  5  1  0  0  0  0
  1 20  1  0  0  0  0
  2 24  1  0  0  0  0
  2 25  1  0  0  0  0
  3  4  1  0  0  0  0
  3  5  1  0  0  0  0
  3 12  1  0  0  0  0
  3 13  1  0  0  0  0
  4  6  2  0  0  0  0
  4  7  1  0  0  0  0
  5 14  1  0  0  0  0
  5 15  1  0  0  0  0
  6  9  1  0  0  0  0
  6 16  1  0  0  0  0
  7 10  2  0  0  0  0
  7 17  1  0  0  0  0
  8  9  2  0  0  0  0
  8 10  1  0  0  0  0
  8 11  1  0  0  0  0
  9 18  1  0  0  0  0
 10 19  1  0  0  0  0
 11 21  1  0  0  0  0
 11 22  1  0  0  0  0
 11 23  1  0  0  0  0
M  END
> <PUBCHEM_COMPOUND_CID>
9079

> <PUBCHEM_COMPOUND_CANONICALIZED>
1

> <PUBCHEM_CACTVS_COMPLEXITY>
95.7

> <PUBCHEM_CACTVS_HBOND_ACCEPTOR>
2

> <PUBCHEM_CACTVS_HBOND_DONOR>
2

> <PUBCHEM_CACTVS_ROTATABLE_BOND>
3

> <PUBCHEM_CACTVS_SUBSKEYS>
AAADccBzAAAAAAAAAAAAAAAAAAAAAAAAAAAwAAAAAAAAAAABAAAAHAAYAAAADADBGAQyAIBiAACAAiBCAAACAAAgAAIYqIAAAIgIICKAkRGAIAAgkAAIiAcQgMAOQAAAAAAAAACAAAAAAAAAAAAAAAAAAA==

> <PUBCHEM_IUPAC_OPENEYE_NAME>
2-(p-tolyl)ethylhydrazine

> <PUBCHEM_IUPAC_CAS_NAME>
2-(4-methylphenyl)ethylhydrazine

> <PUBCHEM_IUPAC_NAME>
2-(4-methylphenyl)ethylhydrazine

> <PUBCHEM_IUPAC_SYSTEMATIC_NAME>
2-(4-methylphenyl)ethyldiazane

> <PUBCHEM_IUPAC_TRADITIONAL_NAME>
2-(p-tolyl)ethylhydrazine

> <PUBCHEM_IUPAC_INCHI>
InChI=1S/C9H14N2/c1-8-2-4-9(5-3-8)6-7-11-10/h2-5,11H,6-7,10H2,1H3

> <PUBCHEM_IUPAC_INCHIKEY>
CKAKUERTINBUEB-UHFFFAOYSA-N

> <PUBCHEM_XLOGP3_AA>
1.4

> <PUBCHEM_EXACT_MASS>
150.115698

> <PUBCHEM_MOLECULAR_FORMULA>
C9H14N2

> <PUBCHEM_MOLECULAR_WEIGHT>
150.22086

> <PUBCHEM_OPENEYE_CAN_SMILES>
CC1=CC=C(C=C1)CCNN

> <PUBCHEM_OPENEYE_ISO_SMILES>
CC1=CC=C(C=C1)CCNN

> <PUBCHEM_CACTVS_TPSA>
38

> <PUBCHEM_MONOISOTOPIC_WEIGHT>
150.115698

> <PUBCHEM_TOTAL_CHARGE>
0

> <PUBCHEM_HEAVY_ATOM_COUNT>
11

> <PUBCHEM_ATOM_DEF_STEREO_COUNT>
0

> <PUBCHEM_ATOM_UDEF_STEREO_COUNT>
0

> <PUBCHEM_BOND_DEF_STEREO_COUNT>
0

> <PUBCHEM_BOND_UDEF_STEREO_COUNT>
0

> <PUBCHEM_ISOTOPIC_ATOM_COUNT>
0

> <PUBCHEM_COMPONENT_COUNT>
1

> <PUBCHEM_CACTVS_TAUTO_COUNT>
1

> <PUBCHEM_COORDINATE_TYPE>
1
5
255

> <PUBCHEM_BONDANNOTATIONS>
4  6  8
4  7  8
6  9  8
7  10  8
8  10  8
8  9  8

$$$$

