8460
  -OEChem-06261202512D

 56 58  0     0  0  0  0  0  0999 V2000
    5.5000    0.0000    0.0000 P   0  0  0  0  0  0  0  0  0  0  0  0
    4.6340   -0.5000    0.0000 O   0  0  0  0  0  0  0  0  0  0  0  0
    6.3660    0.5000    0.0000 O   0  0  0  0  0  0  0  0  0  0  0  0
    5.0000    0.8660    0.0000 O   0  0  0  0  0  0  0  0  0  0  0  0
    6.0000   -0.8660    0.0000 O   0  0  0  0  0  0  0  0  0  0  0  0
    4.6340   -1.5000    0.0000 C   0  0  0  0  0  0  0  0  0  0  0  0
    6.3660    1.5000    0.0000 C   0  0  0  0  0  0  0  0  0  0  0  0
    4.0000    0.8660    0.0000 C   0  0  0  0  0  0  0  0  0  0  0  0
    3.5000    1.7320    0.0000 C   0  0  0  0  0  0  0  0  0  0  0  0
    7.2320    2.0000    0.0000 C   0  0  0  0  0  0  0  0  0  0  0  0
    3.7680   -2.0000    0.0000 C   0  0  0  0  0  0  0  0  0  0  0  0
    3.5000    0.0000    0.0000 C   0  0  0  0  0  0  0  0  0  0  0  0
    5.5000    2.0000    0.0000 C   0  0  0  0  0  0  0  0  0  0  0  0
    5.5000   -2.0000    0.0000 C   0  0  0  0  0  0  0  0  0  0  0  0
    3.7680   -3.0000    0.0000 C   0  0  0  0  0  0  0  0  0  0  0  0
    7.2320    3.0000    0.0000 C   0  0  0  0  0  0  0  0  0  0  0  0
    2.5000    1.7320    0.0000 C   0  0  0  0  0  0  0  0  0  0  0  0
    5.5000   -3.0000    0.0000 C   0  0  0  0  0  0  0  0  0  0  0  0
    5.5000    3.0000    0.0000 C   0  0  0  0  0  0  0  0  0  0  0  0
    2.5000    0.0000    0.0000 C   0  0  0  0  0  0  0  0  0  0  0  0
    4.6340   -3.5000    0.0000 C   0  0  0  0  0  0  0  0  0  0  0  0
    6.3660    3.5000    0.0000 C   0  0  0  0  0  0  0  0  0  0  0  0
    2.0000    0.8660    0.0000 C   0  0  0  0  0  0  0  0  0  0  0  0
    4.0000    2.5981    0.0000 C   0  0  0  0  0  0  0  0  0  0  0  0
    8.0981    1.5000    0.0000 C   0  0  0  0  0  0  0  0  0  0  0  0
    2.9019   -1.5000    0.0000 C   0  0  0  0  0  0  0  0  0  0  0  0
    4.0000   -0.8660    0.0000 C   0  0  0  0  0  0  0  0  0  0  0  0
    4.6340    1.5000    0.0000 C   0  0  0  0  0  0  0  0  0  0  0  0
    6.3660   -1.5000    0.0000 C   0  0  0  0  0  0  0  0  0  0  0  0
    2.1900    2.2690    0.0000 H   0  0  0  0  0  0  0  0  0  0  0  0
    7.7690    3.3100    0.0000 H   0  0  0  0  0  0  0  0  0  0  0  0
    3.2310   -3.3100    0.0000 H   0  0  0  0  0  0  0  0  0  0  0  0
    2.1900   -0.5369    0.0000 H   0  0  0  0  0  0  0  0  0  0  0  0
    4.9631    3.3100    0.0000 H   0  0  0  0  0  0  0  0  0  0  0  0
    6.0369   -3.3100    0.0000 H   0  0  0  0  0  0  0  0  0  0  0  0
    4.6340   -4.1200    0.0000 H   0  0  0  0  0  0  0  0  0  0  0  0
    6.3660    4.1200    0.0000 H   0  0  0  0  0  0  0  0  0  0  0  0
    1.3800    0.8660    0.0000 H   0  0  0  0  0  0  0  0  0  0  0  0
    4.5369    2.2881    0.0000 H   0  0  0  0  0  0  0  0  0  0  0  0
    4.3100    3.1350    0.0000 H   0  0  0  0  0  0  0  0  0  0  0  0
    3.4631    2.9081    0.0000 H   0  0  0  0  0  0  0  0  0  0  0  0
    7.7881    0.9631    0.0000 H   0  0  0  0  0  0  0  0  0  0  0  0
    8.6350    1.1900    0.0000 H   0  0  0  0  0  0  0  0  0  0  0  0
    8.4081    2.0369    0.0000 H   0  0  0  0  0  0  0  0  0  0  0  0
    3.2119   -0.9631    0.0000 H   0  0  0  0  0  0  0  0  0  0  0  0
    2.3650   -1.1900    0.0000 H   0  0  0  0  0  0  0  0  0  0  0  0
    2.5919   -2.0369    0.0000 H   0  0  0  0  0  0  0  0  0  0  0  0
    3.4631   -1.1760    0.0000 H   0  0  0  0  0  0  0  0  0  0  0  0
    4.3100   -1.4030    0.0000 H   0  0  0  0  0  0  0  0  0  0  0  0
    4.5369   -0.5560    0.0000 H   0  0  0  0  0  0  0  0  0  0  0  0
    4.3240    2.0369    0.0000 H   0  0  0  0  0  0  0  0  0  0  0  0
    4.0970    1.1900    0.0000 H   0  0  0  0  0  0  0  0  0  0  0  0
    4.9440    0.9631    0.0000 H   0  0  0  0  0  0  0  0  0  0  0  0
    6.6760   -2.0369    0.0000 H   0  0  0  0  0  0  0  0  0  0  0  0
    6.9030   -1.1900    0.0000 H   0  0  0  0  0  0  0  0  0  0  0  0
    6.0560   -0.9631    0.0000 H   0  0  0  0  0  0  0  0  0  0  0  0
  1  2  1  0  0  0  0
  1  3  1  0  0  0  0
  1  4  1  0  0  0  0
  1  5  2  0  0  0  0
  2  6  1  0  0  0  0
  3  7  1  0  0  0  0
  4  8  1  0  0  0  0
  6 11  2  0  0  0  0
  6 14  1  0  0  0  0
  7 10  2  0  0  0  0
  7 13  1  0  0  0  0
  8  9  2  0  0  0  0
  8 12  1  0  0  0  0
  9 17  1  0  0  0  0
  9 24  1  0  0  0  0
 10 16  1  0  0  0  0
 10 25  1  0  0  0  0
 11 15  1  0  0  0  0
 11 26  1  0  0  0  0
 12 20  2  0  0  0  0
 12 27  1  0  0  0  0
 13 19  2  0  0  0  0
 13 28  1  0  0  0  0
 14 18  2  0  0  0  0
 14 29  1  0  0  0  0
 15 21  2  0  0  0  0
 15 32  1  0  0  0  0
 16 22  2  0  0  0  0
 16 31  1  0  0  0  0
 17 23  2  0  0  0  0
 17 30  1  0  0  0  0
 18 21  1  0  0  0  0
 18 35  1  0  0  0  0
 19 22  1  0  0  0  0
 19 34  1  0  0  0  0
 20 23  1  0  0  0  0
 20 33  1  0  0  0  0
 21 36  1  0  0  0  0
 22 37  1  0  0  0  0
 23 38  1  0  0  0  0
 24 39  1  0  0  0  0
 24 40  1  0  0  0  0
 24 41  1  0  0  0  0
 25 42  1  0  0  0  0
 25 43  1  0  0  0  0
 25 44  1  0  0  0  0
 26 45  1  0  0  0  0
 26 46  1  0  0  0  0
 26 47  1  0  0  0  0
 27 48  1  0  0  0  0
 27 49  1  0  0  0  0
 27 50  1  0  0  0  0
 28 51  1  0  0  0  0
 28 52  1  0  0  0  0
 28 53  1  0  0  0  0
 29 54  1  0  0  0  0
 29 55  1  0  0  0  0
 29 56  1  0  0  0  0
M  END
> <PUBCHEM_COMPOUND_CID>
8460

> <PUBCHEM_COMPOUND_CANONICALIZED>
1

> <PUBCHEM_CACTVS_COMPLEXITY>
461

> <PUBCHEM_CACTVS_HBOND_ACCEPTOR>
4

> <PUBCHEM_CACTVS_HBOND_DONOR>
0

> <PUBCHEM_CACTVS_ROTATABLE_BOND>
6

> <PUBCHEM_CACTVS_SUBSKEYS>
AAADceB4OAIAAAAAAAAAAAAAAAAAAAAAAAAwYMAAAAAAAAABUAAAGgAAACAADASAmAAyBoAAARCAQiBCAIACAAAgIAAIiAAECIgIJiKAERKAMAAkwBEIiAeAwGAOAAACAAAIAAAAAAQAABAAAAAAAAAAAA==

> <PUBCHEM_IUPAC_OPENEYE_NAME>
tris(2,6-dimethylphenyl) phosphate

> <PUBCHEM_IUPAC_CAS_NAME>
phosphoric acid tris(2,6-dimethylphenyl) ester

> <PUBCHEM_IUPAC_NAME>
tris(2,6-dimethylphenyl) phosphate

> <PUBCHEM_IUPAC_SYSTEMATIC_NAME>
tris(2,6-dimethylphenyl) phosphate

> <PUBCHEM_IUPAC_TRADITIONAL_NAME>
phosphoric acid tris(2,6-dimethylphenyl) ester

> <PUBCHEM_IUPAC_INCHI>
InChI=1S/C24H27O4P/c1-16-10-7-11-17(2)22(16)26-29(25,27-23-18(3)12-8-13-19(23)4)28-24-20(5)14-9-15-21(24)6/h7-15H,1-6H3

> <PUBCHEM_IUPAC_INCHIKEY>
QLORRTLBSJTMSN-UHFFFAOYSA-N

> <PUBCHEM_XLOGP3_AA>
7.2

> <PUBCHEM_EXACT_MASS>
410.164696

> <PUBCHEM_MOLECULAR_FORMULA>
C24H27O4P

> <PUBCHEM_MOLECULAR_WEIGHT>
410.442542

> <PUBCHEM_OPENEYE_CAN_SMILES>
CC1=C(C(=CC=C1)C)OP(=O)(OC2=C(C=CC=C2C)C)OC3=C(C=CC=C3C)C

> <PUBCHEM_OPENEYE_ISO_SMILES>
CC1=C(C(=CC=C1)C)OP(=O)(OC2=C(C=CC=C2C)C)OC3=C(C=CC=C3C)C

> <PUBCHEM_CACTVS_TPSA>
44.8

> <PUBCHEM_MONOISOTOPIC_WEIGHT>
410.164696

> <PUBCHEM_TOTAL_CHARGE>
0

> <PUBCHEM_HEAVY_ATOM_COUNT>
29

> <PUBCHEM_ATOM_DEF_STEREO_COUNT>
0

> <PUBCHEM_ATOM_UDEF_STEREO_COUNT>
0

> <PUBCHEM_BOND_DEF_STEREO_COUNT>
0

> <PUBCHEM_BOND_UDEF_STEREO_COUNT>
0

> <PUBCHEM_ISOTOPIC_ATOM_COUNT>
0

> <PUBCHEM_COMPONENT_COUNT>
1

> <PUBCHEM_CACTVS_TAUTO_COUNT>
1

> <PUBCHEM_COORDINATE_TYPE>
1
5
255

> <PUBCHEM_BONDANNOTATIONS>
10  16  8
11  15  8
12  20  8
13  19  8
14  18  8
15  21  8
16  22  8
17  23  8
18  21  8
19  22  8
20  23  8
6  11  8
6  14  8
7  10  8
7  13  8
8  12  8
8  9  8
9  17  8

$$$$

