583081
  -OEChem-06241222442D

 76 79  0     1  0  0  0  0  0999 V2000
    2.6334    1.5506    0.0000 O   0  0  0  0  0  0  0  0  0  0  0  0
    3.9737    2.6477    0.0000 O   0  0  0  0  0  0  0  0  0  0  0  0
    3.3918   -1.4860    0.0000 O   0  0  0  0  0  0  0  0  0  0  0  0
    2.6384    0.0736    0.0000 O   0  0  0  0  0  0  0  0  0  0  0  0
    6.0658   -0.8663    0.0000 C   0  0  3  0  0  0  0  0  0  0  0  0
    5.1998    0.6337    0.0000 C   0  0  3  0  0  0  0  0  0  0  0  0
    5.1998   -0.3663    0.0000 C   0  0  3  0  0  0  0  0  0  0  0  0
    4.2536    0.9384    0.0000 C   0  0  3  0  0  0  0  0  0  0  0  0
    6.9319   -0.3663    0.0000 C   0  0  3  0  0  0  0  0  0  0  0  0
    5.0732   -0.7583    0.0000 C   0  0  0  0  0  0  0  0  0  0  0  0
    4.3658   -0.0538    0.0000 C   0  0  3  0  0  0  0  0  0  0  0  0
    4.2536   -0.6711    0.0000 C   0  0  0  0  0  0  0  0  0  0  0  0
    6.0658    1.1337    0.0000 C   0  0  0  0  0  0  0  0  0  0  0  0
    3.6700    0.1337    0.0000 C   0  0  0  0  0  0  0  0  0  0  0  0
    6.9319    0.6337    0.0000 C   0  0  0  0  0  0  0  0  0  0  0  0
    6.2750   -1.8382    0.0000 C   0  0  0  0  0  0  0  0  0  0  0  0
    7.6689   -1.0334    0.0000 C   0  0  0  0  0  0  0  0  0  0  0  0
    5.1998    1.6337    0.0000 C   0  0  0  0  0  0  0  0  0  0  0  0
    7.7979    0.1337    0.0000 C   0  0  0  0  0  0  0  0  0  0  0  0
    7.2638   -1.9412    0.0000 C   0  0  0  0  0  0  0  0  0  0  0  0
    3.6202    1.7122    0.0000 C   0  0  0  0  0  0  0  0  0  0  0  0
    3.4653   -0.4887    0.0000 C   0  0  0  0  0  0  0  0  0  0  0  0
    8.6474   -0.8272    0.0000 C   0  0  3  0  0  0  0  0  0  0  0  0
    9.3152   -1.5715    0.0000 C   0  0  0  0  0  0  0  0  0  0  0  0
    8.9580    0.1233    0.0000 C   0  0  0  0  0  0  0  0  0  0  0  0
   10.2937   -1.3653    0.0000 C   0  0  0  0  0  0  0  0  0  0  0  0
    2.0000    2.3245    0.0000 C   0  0  0  0  0  0  0  0  0  0  0  0
    2.4914   -1.9210    0.0000 C   0  0  0  0  0  0  0  0  0  0  0  0
   10.9616   -2.1096    0.0000 C   0  0  0  0  0  0  0  0  0  0  0  0
   11.9401   -1.9034    0.0000 C   0  0  0  0  0  0  0  0  0  0  0  0
   12.6079   -2.6477    0.0000 C   0  0  0  0  0  0  0  0  0  0  0  0
   12.2508   -0.9529    0.0000 C   0  0  0  0  0  0  0  0  0  0  0  0
    4.6987   -0.0013    0.0000 H   0  0  0  0  0  0  0  0  0  0  0  0
    4.5259   -1.0495    0.0000 H   0  0  0  0  0  0  0  0  0  0  0  0
    5.1905   -1.3671    0.0000 H   0  0  0  0  0  0  0  0  0  0  0  0
    3.8229    0.2457    0.0000 H   0  0  0  0  0  0  0  0  0  0  0  0
    3.7162   -0.9803    0.0000 H   0  0  0  0  0  0  0  0  0  0  0  0
    4.5046   -1.2380    0.0000 H   0  0  0  0  0  0  0  0  0  0  0  0
    6.4644    1.6086    0.0000 H   0  0  0  0  0  0  0  0  0  0  0  0
    5.6673    1.6086    0.0000 H   0  0  0  0  0  0  0  0  0  0  0  0
    3.2091    0.5484    0.0000 H   0  0  0  0  0  0  0  0  0  0  0  0
    3.2091   -0.2811    0.0000 H   0  0  0  0  0  0  0  0  0  0  0  0
    7.5424    0.5260    0.0000 H   0  0  0  0  0  0  0  0  0  0  0  0
    7.1439    1.2163    0.0000 H   0  0  0  0  0  0  0  0  0  0  0  0
    5.6586   -1.9042    0.0000 H   0  0  0  0  0  0  0  0  0  0  0  0
    6.2759   -2.4582    0.0000 H   0  0  0  0  0  0  0  0  0  0  0  0
    5.8198    1.6337    0.0000 H   0  0  0  0  0  0  0  0  0  0  0  0
    5.1998    2.2537    0.0000 H   0  0  0  0  0  0  0  0  0  0  0  0
    4.5798    1.6337    0.0000 H   0  0  0  0  0  0  0  0  0  0  0  0
    8.1079   -0.4033    0.0000 H   0  0  0  0  0  0  0  0  0  0  0  0
    8.3348    0.4437    0.0000 H   0  0  0  0  0  0  0  0  0  0  0  0
    7.4879    0.6706    0.0000 H   0  0  0  0  0  0  0  0  0  0  0  0
    7.5738   -2.4782    0.0000 H   0  0  0  0  0  0  0  0  0  0  0  0
    9.2541   -0.6994    0.0000 H   0  0  0  0  0  0  0  0  0  0  0  0
    8.7889   -1.8992    0.0000 H   0  0  0  0  0  0  0  0  0  0  0  0
    9.5465   -2.1468    0.0000 H   0  0  0  0  0  0  0  0  0  0  0  0
    9.5474   -0.0693    0.0000 H   0  0  0  0  0  0  0  0  0  0  0  0
    9.1507    0.7126    0.0000 H   0  0  0  0  0  0  0  0  0  0  0  0
    8.3687    0.3159    0.0000 H   0  0  0  0  0  0  0  0  0  0  0  0
   10.8201   -1.0376    0.0000 H   0  0  0  0  0  0  0  0  0  0  0  0
   10.0625   -0.7900    0.0000 H   0  0  0  0  0  0  0  0  0  0  0  0
    2.4798    2.7172    0.0000 H   0  0  0  0  0  0  0  0  0  0  0  0
    1.6073    2.8043    0.0000 H   0  0  0  0  0  0  0  0  0  0  0  0
    1.5202    1.9318    0.0000 H   0  0  0  0  0  0  0  0  0  0  0  0
    2.2217   -1.3627    0.0000 H   0  0  0  0  0  0  0  0  0  0  0  0
    1.9331   -2.1907    0.0000 H   0  0  0  0  0  0  0  0  0  0  0  0
    2.7611   -2.4793    0.0000 H   0  0  0  0  0  0  0  0  0  0  0  0
   10.4352   -2.4372    0.0000 H   0  0  0  0  0  0  0  0  0  0  0  0
   11.1928   -2.6848    0.0000 H   0  0  0  0  0  0  0  0  0  0  0  0
   11.7475   -2.4927    0.0000 H   0  0  0  0  0  0  0  0  0  0  0  0
   12.1465   -3.0617    0.0000 H   0  0  0  0  0  0  0  0  0  0  0  0
   13.0220   -3.1091    0.0000 H   0  0  0  0  0  0  0  0  0  0  0  0
   12.8401   -1.1455    0.0000 H   0  0  0  0  0  0  0  0  0  0  0  0
   12.4434   -0.3635    0.0000 H   0  0  0  0  0  0  0  0  0  0  0  0
   11.6614   -0.7602    0.0000 H   0  0  0  0  0  0  0  0  0  0  0  0
   13.0694   -2.2336    0.0000 H   0  0  0  0  0  0  0  0  0  0  0  0
  1 21  1  0  0  0  0
  1 27  1  0  0  0  0
  2 21  2  0  0  0  0
  3 22  1  0  0  0  0
  3 28  1  0  0  0  0
  4 22  2  0  0  0  0
  5  7  1  0  0  0  0
  5  9  1  0  0  0  0
  5 10  1  0  0  0  0
  5 16  1  0  0  0  0
  6  7  1  0  0  0  0
  6  8  1  0  0  0  0
  6 13  1  0  0  0  0
  6 18  1  0  0  0  0
  7 12  1  0  0  0  0
  7 33  1  0  0  0  0
  8 11  1  0  0  0  0
  8 14  1  0  0  0  0
  8 21  1  0  0  0  0
  9 15  1  0  0  0  0
  9 17  1  0  0  0  0
  9 19  1  0  0  0  0
 10 11  1  0  0  0  0
 10 34  1  0  0  0  0
 10 35  1  0  0  0  0
 11 22  1  0  0  0  0
 11 36  1  0  0  0  0
 12 14  1  0  0  0  0
 12 37  1  0  0  0  0
 12 38  1  0  0  0  0
 13 15  1  0  0  0  0
 13 39  1  0  0  0  0
 13 40  1  0  0  0  0
 14 41  1  0  0  0  0
 14 42  1  0  0  0  0
 15 43  1  0  0  0  0
 15 44  1  0  0  0  0
 16 20  1  0  0  0  0
 16 45  1  0  0  0  0
 16 46  1  0  0  0  0
 17 20  2  0  0  0  0
 17 23  1  0  0  0  0
 18 47  1  0  0  0  0
 18 48  1  0  0  0  0
 18 49  1  0  0  0  0
 19 50  1  0  0  0  0
 19 51  1  0  0  0  0
 19 52  1  0  0  0  0
 20 53  1  0  0  0  0
 23 24  1  0  0  0  0
 23 25  1  0  0  0  0
 23 54  1  0  0  0  0
 24 26  1  0  0  0  0
 24 55  1  0  0  0  0
 24 56  1  0  0  0  0
 25 57  1  0  0  0  0
 25 58  1  0  0  0  0
 25 59  1  0  0  0  0
 26 29  1  0  0  0  0
 26 60  1  0  0  0  0
 26 61  1  0  0  0  0
 27 62  1  0  0  0  0
 27 63  1  0  0  0  0
 27 64  1  0  0  0  0
 28 65  1  0  0  0  0
 28 66  1  0  0  0  0
 28 67  1  0  0  0  0
 29 30  1  0  0  0  0
 29 68  1  0  0  0  0
 29 69  1  0  0  0  0
 30 31  1  0  0  0  0
 30 32  1  0  0  0  0
 30 70  1  0  0  0  0
 31 71  1  0  0  0  0
 31 72  1  0  0  0  0
 31 76  1  0  0  0  0
 32 73  1  0  0  0  0
 32 74  1  0  0  0  0
 32 75  1  0  0  0  0
M  END
> <PUBCHEM_COMPOUND_CID>
583081

> <PUBCHEM_COMPOUND_CANONICALIZED>
1

> <PUBCHEM_CACTVS_COMPLEXITY>
814

> <PUBCHEM_CACTVS_HBOND_ACCEPTOR>
4

> <PUBCHEM_CACTVS_HBOND_DONOR>
0

> <PUBCHEM_CACTVS_ROTATABLE_BOND>
9

> <PUBCHEM_CACTVS_SUBSKEYS>
AAADcfB4OAAAAAAAAAAAAAAAAAAAAYIAAAAwYAAABgAYAEAAAAAAGgAAAAAADwCAgAICCAAABACIAiDSCAAAAAAgAAAACAEAAAgAABIAAQAAAAAEgAAIAAPLyPCPgAAAAAAAAACAAAQAACAAAQAACAAAAA==

> <PUBCHEM_IUPAC_INCHI>
InChI=1S/C28H44O4/c1-18(2)9-8-10-19(3)20-11-13-27-17-21(23(29)31-6)28(24(30)32-7)14-12-22(27)26(28,5)16-15-25(20,27)4/h11,18-19,21-22H,8-10,12-17H2,1-7H3

> <PUBCHEM_IUPAC_INCHIKEY>
HJDJCNAONLZZGK-UHFFFAOYSA-N

> <PUBCHEM_XLOGP3_AA>
7

> <PUBCHEM_EXACT_MASS>
444.32396

> <PUBCHEM_MOLECULAR_FORMULA>
C28H44O4

> <PUBCHEM_MOLECULAR_WEIGHT>
444.64656

> <PUBCHEM_OPENEYE_CAN_SMILES>
CC(C)CCCC(C)C1=CCC23C1(CCC4(C2CCC4(C(C3)C(=O)OC)C(=O)OC)C)C

> <PUBCHEM_OPENEYE_ISO_SMILES>
CC(C)CCCC(C)C1=CCC23C1(CCC4(C2CCC4(C(C3)C(=O)OC)C(=O)OC)C)C

> <PUBCHEM_CACTVS_TPSA>
52.6

> <PUBCHEM_MONOISOTOPIC_WEIGHT>
444.32396

> <PUBCHEM_TOTAL_CHARGE>
0

> <PUBCHEM_HEAVY_ATOM_COUNT>
32

> <PUBCHEM_ATOM_DEF_STEREO_COUNT>
0

> <PUBCHEM_ATOM_UDEF_STEREO_COUNT>
7

> <PUBCHEM_BOND_DEF_STEREO_COUNT>
0

> <PUBCHEM_BOND_UDEF_STEREO_COUNT>
0

> <PUBCHEM_ISOTOPIC_ATOM_COUNT>
0

> <PUBCHEM_COMPONENT_COUNT>
1

> <PUBCHEM_CACTVS_TAUTO_COUNT>
1

> <PUBCHEM_COORDINATE_TYPE>
1
5
255

> <PUBCHEM_BONDANNOTATIONS>
11  22  3
23  25  3
5  10  3
6  18  3
7  12  3
8  21  3
9  19  3

$$$$

