3800
  -OEChem-06251223412D

 92 95  0     1  0  0  0  0  0999 V2000
   10.3439   -0.6429    0.0000 Br  0  0  0  0  0  0  0  0  0  0  0  0
    3.0792    0.6506    0.0000 O   0  0  0  0  0  0  0  0  0  0  0  0
    7.3350   -2.4227    0.0000 O   0  0  0  0  0  0  0  0  0  0  0  0
    9.9382    0.4051    0.0000 O   0  0  0  0  0  0  0  0  0  0  0  0
    8.9947    4.1310    0.0000 O   0  0  0  0  0  0  0  0  0  0  0  0
    2.6437   -0.8121    0.0000 O   0  0  0  0  0  0  0  0  0  0  0  0
    3.7388   -5.2601    0.0000 O   0  0  0  0  0  0  0  0  0  0  0  0
    8.5671   -0.2652    0.0000 N   0  0  0  0  0  0  0  0  0  0  0  0
    6.0240   -1.6415    0.0000 N   0  0  0  0  0  0  0  0  0  0  0  0
    8.8059    2.6166    0.0000 N   0  0  0  0  0  0  0  0  0  0  0  0
   11.0360   -2.2788    0.0000 N   0  0  0  0  0  0  0  0  0  0  0  0
    7.8898   -1.0009    0.0000 C   0  0  3  0  0  0  0  0  0  0  0  0
    8.5040   -1.7901    0.0000 C   0  0  0  0  0  0  0  0  0  0  0  0
    3.7890    3.4537    0.0000 C   0  0  3  0  0  0  0  0  0  0  0  0
    3.2421    2.6166    0.0000 C   0  0  0  0  0  0  0  0  0  0  0  0
    9.4305   -2.1664    0.0000 C   0  0  0  0  0  0  0  0  0  0  0  0
    5.0376   -1.4769    0.0000 C   0  0  3  0  0  0  0  0  0  0  0  0
    7.0103   -1.4769    0.0000 C   0  0  0  0  0  0  0  0  0  0  0  0
    2.9966    1.6472    0.0000 C   0  0  3  0  0  0  0  0  0  0  0  0
    7.4698    4.0679    0.0000 C   0  0  3  0  0  0  0  0  0  0  0  0
    6.5240    4.3926    0.0000 C   0  0  0  0  0  0  0  0  0  0  0  0
    9.0514    1.6472    0.0000 C   0  0  3  0  0  0  0  0  0  0  0  0
    8.9688    0.6506    0.0000 C   0  0  0  0  0  0  0  0  0  0  0  0
    5.5240    4.3926    0.0000 C   0  0  0  0  0  0  0  0  0  0  0  0
    4.5782    4.0679    0.0000 C   0  0  0  0  0  0  0  0  0  0  0  0
    4.1581   -1.0009    0.0000 C   0  0  0  0  0  0  0  0  0  0  0  0
    9.6684   -3.1316    0.0000 C   0  0  0  0  0  0  0  0  0  0  0  0
    8.2589    3.4537    0.0000 C   0  0  0  0  0  0  0  0  0  0  0  0
    3.0533    4.1310    0.0000 C   0  0  0  0  0  0  0  0  0  0  0  0
    9.4043   -0.8121    0.0000 C   0  0  0  0  0  0  0  0  0  0  0  0
   10.2741   -1.6404    0.0000 C   0  0  0  0  0  0  0  0  0  0  0  0
    4.7129   -2.4227    0.0000 C   0  0  0  0  0  0  0  0  0  0  0  0
   10.6660   -3.2014    0.0000 C   0  0  0  0  0  0  0  0  0  0  0  0
    2.0000    1.7297    0.0000 C   0  0  0  0  0  0  0  0  0  0  0  0
    7.9457    4.9474    0.0000 C   0  0  0  0  0  0  0  0  0  0  0  0
    3.4809   -0.2652    0.0000 C   0  0  0  0  0  0  0  0  0  0  0  0
   10.0480    1.7297    0.0000 C   0  0  0  0  0  0  0  0  0  0  0  0
    5.3594    5.3790    0.0000 C   0  0  0  0  0  0  0  0  0  0  0  0
    9.1091   -3.9606    0.0000 C   0  0  0  0  0  0  0  0  0  0  0  0
   11.1042   -4.1003    0.0000 C   0  0  0  0  0  0  0  0  0  0  0  0
    3.7315   -2.6144    0.0000 C   0  0  0  0  0  0  0  0  0  0  0  0
    5.3697   -3.1768    0.0000 C   0  0  0  0  0  0  0  0  0  0  0  0
    9.5474   -4.8594    0.0000 C   0  0  0  0  0  0  0  0  0  0  0  0
   10.5450   -4.9292    0.0000 C   0  0  0  0  0  0  0  0  0  0  0  0
    3.4068   -3.5602    0.0000 C   0  0  0  0  0  0  0  0  0  0  0  0
    5.0450   -4.1226    0.0000 C   0  0  0  0  0  0  0  0  0  0  0  0
    4.0635   -4.3143    0.0000 C   0  0  0  0  0  0  0  0  0  0  0  0
    8.5093   -1.0265    0.0000 H   0  0  0  0  0  0  0  0  0  0  0  0
    7.9140   -1.9806    0.0000 H   0  0  0  0  0  0  0  0  0  0  0  0
    8.8781   -1.2956    0.0000 H   0  0  0  0  0  0  0  0  0  0  0  0
    3.8146    4.0732    0.0000 H   0  0  0  0  0  0  0  0  0  0  0  0
    2.9030    3.1356    0.0000 H   0  0  0  0  0  0  0  0  0  0  0  0
    3.8098    2.3675    0.0000 H   0  0  0  0  0  0  0  0  0  0  0  0
    5.3550   -2.0095    0.0000 H   0  0  0  0  0  0  0  0  0  0  0  0
    2.5582    1.2088    0.0000 H   0  0  0  0  0  0  0  0  0  0  0  0
    7.2444    4.6455    0.0000 H   0  0  0  0  0  0  0  0  0  0  0  0
    6.9439    4.8488    0.0000 H   0  0  0  0  0  0  0  0  0  0  0  0
    6.4219    3.7811    0.0000 H   0  0  0  0  0  0  0  0  0  0  0  0
    9.4116    2.1518    0.0000 H   0  0  0  0  0  0  0  0  0  0  0  0
    4.2831    4.6132    0.0000 H   0  0  0  0  0  0  0  0  0  0  0  0
    6.0240   -2.2615    0.0000 H   0  0  0  0  0  0  0  0  0  0  0  0
    3.5717   -1.2022    0.0000 H   0  0  0  0  0  0  0  0  0  0  0  0
    4.5390   -0.5117    0.0000 H   0  0  0  0  0  0  0  0  0  0  0  0
    3.4732    4.5872    0.0000 H   0  0  0  0  0  0  0  0  0  0  0  0
    2.5972    4.5509    0.0000 H   0  0  0  0  0  0  0  0  0  0  0  0
    2.6334    3.6749    0.0000 H   0  0  0  0  0  0  0  0  0  0  0  0
    9.3737    2.8656    0.0000 H   0  0  0  0  0  0  0  0  0  0  0  0
    9.0651   -1.3312    0.0000 H   0  0  0  0  0  0  0  0  0  0  0  0
    9.9233   -1.1513    0.0000 H   0  0  0  0  0  0  0  0  0  0  0  0
    9.7434   -0.2931    0.0000 H   0  0  0  0  0  0  0  0  0  0  0  0
    2.0512    2.3476    0.0000 H   0  0  0  0  0  0  0  0  0  0  0  0
    1.3821    1.7809    0.0000 H   0  0  0  0  0  0  0  0  0  0  0  0
    1.9488    1.1119    0.0000 H   0  0  0  0  0  0  0  0  0  0  0  0
    8.4910    4.6523    0.0000 H   0  0  0  0  0  0  0  0  0  0  0  0
    8.2408    5.4927    0.0000 H   0  0  0  0  0  0  0  0  0  0  0  0
    7.4005    5.2425    0.0000 H   0  0  0  0  0  0  0  0  0  0  0  0
   11.6374   -2.1278    0.0000 H   0  0  0  0  0  0  0  0  0  0  0  0
   10.0992    1.1119    0.0000 H   0  0  0  0  0  0  0  0  0  0  0  0
   10.6658    1.7809    0.0000 H   0  0  0  0  0  0  0  0  0  0  0  0
    9.9968    2.3476    0.0000 H   0  0  0  0  0  0  0  0  0  0  0  0
    5.9709    5.4810    0.0000 H   0  0  0  0  0  0  0  0  0  0  0  0
    5.2573    5.9905    0.0000 H   0  0  0  0  0  0  0  0  0  0  0  0
    4.7478    5.2770    0.0000 H   0  0  0  0  0  0  0  0  0  0  0  0
    8.4906   -3.9172    0.0000 H   0  0  0  0  0  0  0  0  0  0  0  0
   11.7227   -4.1436    0.0000 H   0  0  0  0  0  0  0  0  0  0  0  0
    3.3243   -2.1468    0.0000 H   0  0  0  0  0  0  0  0  0  0  0  0
    5.9782   -3.0579    0.0000 H   0  0  0  0  0  0  0  0  0  0  0  0
    9.2006   -5.3734    0.0000 H   0  0  0  0  0  0  0  0  0  0  0  0
   10.8167   -5.4865    0.0000 H   0  0  0  0  0  0  0  0  0  0  0  0
    2.7983   -3.6791    0.0000 H   0  0  0  0  0  0  0  0  0  0  0  0
    5.4521   -4.5902    0.0000 H   0  0  0  0  0  0  0  0  0  0  0  0
    3.1303   -5.3790    0.0000 H   0  0  0  0  0  0  0  0  0  0  0  0
  1 31  1  0  0  0  0
  2 19  1  0  0  0  0
  2 36  1  0  0  0  0
  3 18  2  0  0  0  0
  4 23  2  0  0  0  0
  5 28  2  0  0  0  0
  6 36  2  0  0  0  0
  7 47  1  0  0  0  0
  7 92  1  0  0  0  0
  8 12  1  0  0  0  0
  8 23  1  0  0  0  0
  8 30  1  0  0  0  0
  9 17  1  0  0  0  0
  9 18  1  0  0  0  0
  9 61  1  0  0  0  0
 10 22  1  0  0  0  0
 10 28  1  0  0  0  0
 10 67  1  0  0  0  0
 11 31  1  0  0  0  0
 11 33  1  0  0  0  0
 11 77  1  0  0  0  0
 12 13  1  0  0  0  0
 12 18  1  0  0  0  0
 12 48  1  0  0  0  0
 13 16  1  0  0  0  0
 13 49  1  0  0  0  0
 13 50  1  0  0  0  0
 14 15  1  0  0  0  0
 14 25  1  0  0  0  0
 14 29  1  0  0  0  0
 14 51  1  0  0  0  0
 15 19  1  0  0  0  0
 15 52  1  0  0  0  0
 15 53  1  0  0  0  0
 16 27  1  0  0  0  0
 16 31  2  0  0  0  0
 17 26  1  0  0  0  0
 17 32  1  0  0  0  0
 17 54  1  0  0  0  0
 19 34  1  0  0  0  0
 19 55  1  0  0  0  0
 20 21  1  0  0  0  0
 20 28  1  0  0  0  0
 20 35  1  0  0  0  0
 20 56  1  0  0  0  0
 21 24  1  0  0  0  0
 21 57  1  0  0  0  0
 21 58  1  0  0  0  0
 22 23  1  0  0  0  0
 22 37  1  0  0  0  0
 22 59  1  0  0  0  0
 24 25  2  3  0  0  0
 24 38  1  0  0  0  0
 25 60  1  0  0  0  0
 26 36  1  0  0  0  0
 26 62  1  0  0  0  0
 26 63  1  0  0  0  0
 27 33  1  0  0  0  0
 27 39  2  0  0  0  0
 29 64  1  0  0  0  0
 29 65  1  0  0  0  0
 29 66  1  0  0  0  0
 30 68  1  0  0  0  0
 30 69  1  0  0  0  0
 30 70  1  0  0  0  0
 32 41  2  0  0  0  0
 32 42  1  0  0  0  0
 33 40  2  0  0  0  0
 34 71  1  0  0  0  0
 34 72  1  0  0  0  0
 34 73  1  0  0  0  0
 35 74  1  0  0  0  0
 35 75  1  0  0  0  0
 35 76  1  0  0  0  0
 37 78  1  0  0  0  0
 37 79  1  0  0  0  0
 37 80  1  0  0  0  0
 38 81  1  0  0  0  0
 38 82  1  0  0  0  0
 38 83  1  0  0  0  0
 39 43  1  0  0  0  0
 39 84  1  0  0  0  0
 40 44  1  0  0  0  0
 40 85  1  0  0  0  0
 41 45  1  0  0  0  0
 41 86  1  0  0  0  0
 42 46  2  0  0  0  0
 42 87  1  0  0  0  0
 43 44  2  0  0  0  0
 43 88  1  0  0  0  0
 44 89  1  0  0  0  0
 45 47  2  0  0  0  0
 45 90  1  0  0  0  0
 46 47  1  0  0  0  0
 46 91  1  0  0  0  0
M  END
> <PUBCHEM_COMPOUND_CID>
3800

> <PUBCHEM_COMPOUND_CANONICALIZED>
1

> <PUBCHEM_CACTVS_COMPLEXITY>
1140

> <PUBCHEM_CACTVS_HBOND_ACCEPTOR>
6

> <PUBCHEM_CACTVS_HBOND_DONOR>
4

> <PUBCHEM_CACTVS_ROTATABLE_BOND>
3

> <PUBCHEM_CACTVS_SUBSKEYS>
AAADcfB/uAAAEAAAAAAAAAAAAAAAAWAAAAAwYAAAAAAAAFgB9AAAHgBQCAABPTzhngYyzvPJlgCoAyXyXACCgCAhIiQImaG+bLgIZvrCkbOWcAhm1hHI2heY2eOOoAAAAAACAABAAAAAAAQAAAAAAAAAAA==

> <PUBCHEM_IUPAC_OPENEYE_NAME>
7-[(2-bromo-1H-indol-3-yl)methyl]-4-(4-hydroxyphenyl)-8,10,13,15,17,19-hexamethyl-1-oxa-5,8,11-triazacyclononadec-15-ene-2,6,9,12-tetrone

> <PUBCHEM_IUPAC_CAS_NAME>
7-[(2-bromo-1H-indol-3-yl)methyl]-4-(4-hydroxyphenyl)-8,10,13,15,17,19-hexamethyl-1-oxa-5,8,11-triazacyclononadec-15-ene-2,6,9,12-tetrone

> <PUBCHEM_IUPAC_NAME>
7-[(2-bromo-1H-indol-3-yl)methyl]-4-(4-hydroxyphenyl)-8,10,13,15,17,19-hexamethyl-1-oxa-5,8,11-triazacyclononadec-15-ene-2,6,9,12-tetrone

> <PUBCHEM_IUPAC_SYSTEMATIC_NAME>
7-[(2-bromanyl-1H-indol-3-yl)methyl]-4-(4-hydroxyphenyl)-8,10,13,15,17,19-hexamethyl-1-oxa-5,8,11-triazacyclononadec-15-ene-2,6,9,12-tetrone

> <PUBCHEM_IUPAC_TRADITIONAL_NAME>
7-[(2-bromo-1H-indol-3-yl)methyl]-4-(4-hydroxyphenyl)-8,10,13,15,17,19-hexamethyl-1-oxa-5,8,11-triazacyclononadec-15-ene-2,6,9,12-diquinone

> <PUBCHEM_IUPAC_INCHI>
InChI=1S/C36H45BrN4O6/c1-20-15-21(2)17-23(4)47-32(43)19-30(25-11-13-26(42)14-12-25)40-35(45)31(18-28-27-9-7-8-10-29(27)39-33(28)37)41(6)36(46)24(5)38-34(44)22(3)16-20/h7-15,21-24,30-31,39,42H,16-19H2,1-6H3,(H,38,44)(H,40,45)

> <PUBCHEM_IUPAC_INCHIKEY>
GQWYWHOHRVVHAP-UHFFFAOYSA-N

> <PUBCHEM_XLOGP3_AA>
5.6

> <PUBCHEM_EXACT_MASS>
708.252247

> <PUBCHEM_MOLECULAR_FORMULA>
C36H45BrN4O6

> <PUBCHEM_MOLECULAR_WEIGHT>
709.6697

> <PUBCHEM_OPENEYE_CAN_SMILES>
CC1CC(OC(=O)CC(NC(=O)C(N(C(=O)C(NC(=O)C(CC(=C1)C)C)C)C)CC2=C(NC3=CC=CC=C32)Br)C4=CC=C(C=C4)O)C

> <PUBCHEM_OPENEYE_ISO_SMILES>
CC1CC(OC(=O)CC(NC(=O)C(N(C(=O)C(NC(=O)C(CC(=C1)C)C)C)C)CC2=C(NC3=CC=CC=C32)Br)C4=CC=C(C=C4)O)C

> <PUBCHEM_CACTVS_TPSA>
141

> <PUBCHEM_MONOISOTOPIC_WEIGHT>
708.252247

> <PUBCHEM_TOTAL_CHARGE>
0

> <PUBCHEM_HEAVY_ATOM_COUNT>
47

> <PUBCHEM_ATOM_DEF_STEREO_COUNT>
0

> <PUBCHEM_ATOM_UDEF_STEREO_COUNT>
6

> <PUBCHEM_BOND_DEF_STEREO_COUNT>
0

> <PUBCHEM_BOND_UDEF_STEREO_COUNT>
1

> <PUBCHEM_ISOTOPIC_ATOM_COUNT>
0

> <PUBCHEM_COMPONENT_COUNT>
1

> <PUBCHEM_CACTVS_TAUTO_COUNT>
72

> <PUBCHEM_COORDINATE_TYPE>
1
5
255

> <PUBCHEM_BONDANNOTATIONS>
11  31  8
11  33  8
12  13  3
14  29  3
16  27  8
16  31  8
17  32  3
19  34  3
20  35  3
22  37  3
24  25  1
27  33  8
27  39  8
32  41  8
32  42  8
33  40  8
39  43  8
40  44  8
41  45  8
42  46  8
43  44  8
45  47  8
46  47  8

$$$$

