17396237
  -OEChem-06241222552D

 60 63  0     1  0  0  0  0  0999 V2000
    7.8754    1.4031    0.0000 S   0  0  0  0  0  0  0  0  0  0  0  0
    7.3754    2.2691    0.0000 O   0  0  0  0  0  0  0  0  0  0  0  0
    8.3753    0.5371    0.0000 O   0  0  0  0  0  0  0  0  0  0  0  0
   11.3395    0.4031    0.0000 O   0  0  0  0  0  0  0  0  0  0  0  0
    7.0093    0.9031    0.0000 N   0  0  3  0  0  0  0  0  0  0  0  0
    4.8622    0.2408    0.0000 N   0  0  3  0  0  0  0  0  0  0  0  0
   10.4734    1.9031    0.0000 N   0  0  0  0  0  0  0  0  0  0  0  0
    6.1831    1.4664    0.0000 C   0  0  0  0  0  0  0  0  0  0  0  0
    7.0841   -0.0941    0.0000 C   0  0  0  0  0  0  0  0  0  0  0  0
    5.2275    1.1717    0.0000 C   0  0  0  0  0  0  0  0  0  0  0  0
    6.3510   -0.7742    0.0000 C   0  0  0  0  0  0  0  0  0  0  0  0
    5.3622   -0.6252    0.0000 C   0  0  0  0  0  0  0  0  0  0  0  0
    8.7414    1.9031    0.0000 C   0  0  0  0  0  0  0  0  0  0  0  0
    3.8650    0.1661    0.0000 C   0  0  0  0  0  0  0  0  0  0  0  0
    9.6074    1.4031    0.0000 C   0  0  0  0  0  0  0  0  0  0  0  0
    3.4311   -0.7349    0.0000 C   0  0  0  0  0  0  0  0  0  0  0  0
    3.9944   -1.5611    0.0000 C   0  0  0  0  0  0  0  0  0  0  0  0
    2.4339   -0.8096    0.0000 C   0  0  0  0  0  0  0  0  0  0  0  0
   11.3395    1.4031    0.0000 C   0  0  0  0  0  0  0  0  0  0  0  0
   10.4734    2.9031    0.0000 C   0  0  0  0  0  0  0  0  0  0  0  0
   12.2055    1.9031    0.0000 C   0  0  0  0  0  0  0  0  0  0  0  0
   12.2055    2.9031    0.0000 C   0  0  0  0  0  0  0  0  0  0  0  0
    3.5605   -2.4621    0.0000 C   0  0  0  0  0  0  0  0  0  0  0  0
    2.0000   -1.7106    0.0000 C   0  0  0  0  0  0  0  0  0  0  0  0
   11.3395    3.4031    0.0000 C   0  0  0  0  0  0  0  0  0  0  0  0
    2.5633   -2.5368    0.0000 C   0  0  0  0  0  0  0  0  0  0  0  0
   13.0994    1.3685    0.0000 C   0  0  0  0  0  0  0  0  0  0  0  0
   13.0994    3.4378    0.0000 C   0  0  0  0  0  0  0  0  0  0  0  0
    2.1294   -3.4378    0.0000 C   0  0  0  0  0  0  0  0  0  0  0  0
   14.0055    1.8823    0.0000 C   0  0  0  0  0  0  0  0  0  0  0  0
   14.0055    2.9239    0.0000 C   0  0  0  0  0  0  0  0  0  0  0  0
    6.6376    1.8882    0.0000 H   0  0  0  0  0  0  0  0  0  0  0  0
    5.8731    2.0034    0.0000 H   0  0  0  0  0  0  0  0  0  0  0  0
    7.3941   -0.6310    0.0000 H   0  0  0  0  0  0  0  0  0  0  0  0
    7.6765    0.0887    0.0000 H   0  0  0  0  0  0  0  0  0  0  0  0
    5.1812    1.7900    0.0000 H   0  0  0  0  0  0  0  0  0  0  0  0
    4.6144    1.2641    0.0000 H   0  0  0  0  0  0  0  0  0  0  0  0
    6.1245   -1.3514    0.0000 H   0  0  0  0  0  0  0  0  0  0  0  0
    6.8633   -1.1235    0.0000 H   0  0  0  0  0  0  0  0  0  0  0  0
    4.7697   -0.8080    0.0000 H   0  0  0  0  0  0  0  0  0  0  0  0
    5.4085   -1.2435    0.0000 H   0  0  0  0  0  0  0  0  0  0  0  0
    9.1399    2.3781    0.0000 H   0  0  0  0  0  0  0  0  0  0  0  0
    8.3428    2.3781    0.0000 H   0  0  0  0  0  0  0  0  0  0  0  0
    3.9267    0.7830    0.0000 H   0  0  0  0  0  0  0  0  0  0  0  0
    3.2681    0.3340    0.0000 H   0  0  0  0  0  0  0  0  0  0  0  0
    9.2089    0.9282    0.0000 H   0  0  0  0  0  0  0  0  0  0  0  0
   10.0059    0.9282    0.0000 H   0  0  0  0  0  0  0  0  0  0  0  0
    4.6127   -1.5148    0.0000 H   0  0  0  0  0  0  0  0  0  0  0  0
    2.0846   -0.2973    0.0000 H   0  0  0  0  0  0  0  0  0  0  0  0
    9.9365    3.2131    0.0000 H   0  0  0  0  0  0  0  0  0  0  0  0
    3.9098   -2.9744    0.0000 H   0  0  0  0  0  0  0  0  0  0  0  0
    1.3817   -1.7569    0.0000 H   0  0  0  0  0  0  0  0  0  0  0  0
   11.3395    4.0231    0.0000 H   0  0  0  0  0  0  0  0  0  0  0  0
   13.0923    0.7485    0.0000 H   0  0  0  0  0  0  0  0  0  0  0  0
   13.0923    4.0578    0.0000 H   0  0  0  0  0  0  0  0  0  0  0  0
    1.5708   -3.1688    0.0000 H   0  0  0  0  0  0  0  0  0  0  0  0
    1.8604   -3.9964    0.0000 H   0  0  0  0  0  0  0  0  0  0  0  0
    2.6880   -3.7068    0.0000 H   0  0  0  0  0  0  0  0  0  0  0  0
   14.5412    1.5702    0.0000 H   0  0  0  0  0  0  0  0  0  0  0  0
   14.5412    3.2360    0.0000 H   0  0  0  0  0  0  0  0  0  0  0  0
  1  2  2  0  0  0  0
  1  3  2  0  0  0  0
  1  5  1  0  0  0  0
  1 13  1  0  0  0  0
  4 19  2  0  0  0  0
  5  8  1  0  0  0  0
  5  9  1  0  0  0  0
  6 10  1  0  0  0  0
  6 12  1  0  0  0  0
  6 14  1  0  0  0  0
  7 15  1  0  0  0  0
  7 19  1  0  0  0  0
  7 20  1  0  0  0  0
  8 10  1  0  0  0  0
  8 32  1  0  0  0  0
  8 33  1  0  0  0  0
  9 11  1  0  0  0  0
  9 34  1  0  0  0  0
  9 35  1  0  0  0  0
 10 36  1  0  0  0  0
 10 37  1  0  0  0  0
 11 12  1  0  0  0  0
 11 38  1  0  0  0  0
 11 39  1  0  0  0  0
 12 40  1  0  0  0  0
 12 41  1  0  0  0  0
 13 15  1  0  0  0  0
 13 42  1  0  0  0  0
 13 43  1  0  0  0  0
 14 16  1  0  0  0  0
 14 44  1  0  0  0  0
 14 45  1  0  0  0  0
 15 46  1  0  0  0  0
 15 47  1  0  0  0  0
 16 17  2  0  0  0  0
 16 18  1  0  0  0  0
 17 23  1  0  0  0  0
 17 48  1  0  0  0  0
 18 24  2  0  0  0  0
 18 49  1  0  0  0  0
 19 21  1  0  0  0  0
 20 25  2  0  0  0  0
 20 50  1  0  0  0  0
 21 22  1  0  0  0  0
 21 27  2  0  0  0  0
 22 25  1  0  0  0  0
 22 28  2  0  0  0  0
 23 26  2  0  0  0  0
 23 51  1  0  0  0  0
 24 26  1  0  0  0  0
 24 52  1  0  0  0  0
 25 53  1  0  0  0  0
 26 29  1  0  0  0  0
 27 30  1  0  0  0  0
 27 54  1  0  0  0  0
 28 31  1  0  0  0  0
 28 55  1  0  0  0  0
 29 56  1  0  0  0  0
 29 57  1  0  0  0  0
 29 58  1  0  0  0  0
 30 31  2  0  0  0  0
 30 59  1  0  0  0  0
 31 60  1  0  0  0  0
M  END
> <PUBCHEM_COMPOUND_CID>
17396237

> <PUBCHEM_COMPOUND_CANONICALIZED>
1

> <PUBCHEM_CACTVS_COMPLEXITY>
740

> <PUBCHEM_CACTVS_HBOND_ACCEPTOR>
5

> <PUBCHEM_CACTVS_HBOND_DONOR>
0

> <PUBCHEM_CACTVS_ROTATABLE_BOND>
6

> <PUBCHEM_CACTVS_SUBSKEYS>
AAADceB7MABAAAAAAAAAAAAAAAAAAAAAAAAwYIAABYAAAACBQAAAHgQAQAAADADF2ASyAIMAAAKIAiFWUHDCAAAkAgAIiAEIBMgIYDKA1RGUIQhghgCIiYcYiICOwAAAAAAQAACAAAAAACAAAAAAAAAAAA==

> <PUBCHEM_IUPAC_OPENEYE_NAME>
2-[2-[[4-(p-tolylmethyl)-1,4-diazepan-1-yl]sulfonyl]ethyl]isoquinolin-1-one

> <PUBCHEM_IUPAC_CAS_NAME>
2-[2-[[4-[(4-methylphenyl)methyl]-1,4-diazepan-1-yl]sulfonyl]ethyl]-1-isoquinolinone

> <PUBCHEM_IUPAC_NAME>
2-[2-[[4-[(4-methylphenyl)methyl]-1,4-diazepan-1-yl]sulfonyl]ethyl]isoquinolin-1-one

> <PUBCHEM_IUPAC_SYSTEMATIC_NAME>
2-[2-[[4-[(4-methylphenyl)methyl]-1,4-diazepan-1-yl]sulfonyl]ethyl]isoquinolin-1-one

> <PUBCHEM_IUPAC_TRADITIONAL_NAME>
2-[2-[[4-(4-methylbenzyl)-1,4-diazepan-1-yl]sulfonyl]ethyl]isocarbostyril

> <PUBCHEM_IUPAC_INCHI>
InChI=1S/C24H29N3O3S/c1-20-7-9-21(10-8-20)19-25-12-4-13-27(16-15-25)31(29,30)18-17-26-14-11-22-5-2-3-6-23(22)24(26)28/h2-3,5-11,14H,4,12-13,15-19H2,1H3

> <PUBCHEM_IUPAC_INCHIKEY>
PTMYCDPEJMCEFD-UHFFFAOYSA-N

> <PUBCHEM_XLOGP3_AA>
2.8

> <PUBCHEM_EXACT_MASS>
439.192963

> <PUBCHEM_MOLECULAR_FORMULA>
C24H29N3O3S

> <PUBCHEM_MOLECULAR_WEIGHT>
439.57036

> <PUBCHEM_OPENEYE_CAN_SMILES>
CC1=CC=C(C=C1)CN2CCCN(CC2)S(=O)(=O)CCN3C=CC4=CC=CC=C4C3=O

> <PUBCHEM_OPENEYE_ISO_SMILES>
CC1=CC=C(C=C1)CN2CCCN(CC2)S(=O)(=O)CCN3C=CC4=CC=CC=C4C3=O

> <PUBCHEM_CACTVS_TPSA>
69.3

> <PUBCHEM_MONOISOTOPIC_WEIGHT>
439.192963

> <PUBCHEM_TOTAL_CHARGE>
0

> <PUBCHEM_HEAVY_ATOM_COUNT>
31

> <PUBCHEM_ATOM_DEF_STEREO_COUNT>
0

> <PUBCHEM_ATOM_UDEF_STEREO_COUNT>
0

> <PUBCHEM_BOND_DEF_STEREO_COUNT>
0

> <PUBCHEM_BOND_UDEF_STEREO_COUNT>
0

> <PUBCHEM_ISOTOPIC_ATOM_COUNT>
0

> <PUBCHEM_COMPONENT_COUNT>
1

> <PUBCHEM_CACTVS_TAUTO_COUNT>
1

> <PUBCHEM_COORDINATE_TYPE>
1
5
255

> <PUBCHEM_BONDANNOTATIONS>
16  17  8
16  18  8
17  23  8
18  24  8
19  21  8
20  25  8
21  22  8
21  27  8
22  25  8
22  28  8
23  26  8
24  26  8
27  30  8
28  31  8
30  31  8
7  19  8
7  20  8

$$$$

