17396387
  -OEChem-06241222562D

 42 43  0     0  0  0  0  0  0999 V2000
    4.5981   -5.6012    0.0000 F   0  0  0  0  0  0  0  0  0  0  0  0
    5.5981   -4.6012    0.0000 F   0  0  0  0  0  0  0  0  0  0  0  0
    3.5981   -4.6012    0.0000 F   0  0  0  0  0  0  0  0  0  0  0  0
    5.4641    2.8988    0.0000 O   0  0  0  0  0  0  0  0  0  0  0  0
    2.0000   -2.1012    0.0000 O   0  5  0  0  0  0  0  0  0  0  0  0
    2.8660   -0.6012    0.0000 O   0  0  0  0  0  0  0  0  0  0  0  0
    4.5981   -0.6012    0.0000 N   0  0  0  0  0  0  0  0  0  0  0  0
    6.3301    1.3988    0.0000 N   0  0  0  0  0  0  0  0  0  0  0  0
    8.0622    4.3988    0.0000 N   0  0  0  0  0  0  0  0  0  0  0  0
    2.8660   -1.6012    0.0000 N   0  3  0  0  0  0  0  0  0  0  0  0
    9.1448    5.6012    0.0000 N   0  0  0  0  0  0  0  0  0  0  0  0
    5.4641   -0.1012    0.0000 C   0  0  0  0  0  0  0  0  0  0  0  0
    5.4641    0.8988    0.0000 C   0  0  0  0  0  0  0  0  0  0  0  0
    7.1962    2.8988    0.0000 C   0  0  0  0  0  0  0  0  0  0  0  0
    7.1962    3.8988    0.0000 C   0  0  0  0  0  0  0  0  0  0  0  0
    4.5981   -1.6012    0.0000 C   0  0  0  0  0  0  0  0  0  0  0  0
    6.3301    2.3988    0.0000 C   0  0  0  0  0  0  0  0  0  0  0  0
    3.7320   -2.1012    0.0000 C   0  0  0  0  0  0  0  0  0  0  0  0
    5.4641   -2.1012    0.0000 C   0  0  0  0  0  0  0  0  0  0  0  0
    4.5981   -3.6012    0.0000 C   0  0  0  0  0  0  0  0  0  0  0  0
    3.7320   -3.1012    0.0000 C   0  0  0  0  0  0  0  0  0  0  0  0
    5.4641   -3.1012    0.0000 C   0  0  0  0  0  0  0  0  0  0  0  0
    8.9757    3.9920    0.0000 C   0  0  0  0  0  0  0  0  0  0  0  0
    8.1667    5.3933    0.0000 C   0  0  0  0  0  0  0  0  0  0  0  0
    4.5981   -4.6012    0.0000 C   0  0  0  0  0  0  0  0  0  0  0  0
    9.6448    4.7352    0.0000 C   0  0  0  0  0  0  0  0  0  0  0  0
    5.6762   -0.6838    0.0000 H   0  0  0  0  0  0  0  0  0  0  0  0
    6.0747    0.0064    0.0000 H   0  0  0  0  0  0  0  0  0  0  0  0
    5.2520    1.4814    0.0000 H   0  0  0  0  0  0  0  0  0  0  0  0
    4.8535    0.7911    0.0000 H   0  0  0  0  0  0  0  0  0  0  0  0
    7.4082    2.3162    0.0000 H   0  0  0  0  0  0  0  0  0  0  0  0
    7.8067    3.0064    0.0000 H   0  0  0  0  0  0  0  0  0  0  0  0
    6.9841    4.4814    0.0000 H   0  0  0  0  0  0  0  0  0  0  0  0
    6.5856    3.7911    0.0000 H   0  0  0  0  0  0  0  0  0  0  0  0
    4.0611   -0.2912    0.0000 H   0  0  0  0  0  0  0  0  0  0  0  0
    6.8671    1.0888    0.0000 H   0  0  0  0  0  0  0  0  0  0  0  0
    6.0010   -1.7912    0.0000 H   0  0  0  0  0  0  0  0  0  0  0  0
    3.1951   -3.4112    0.0000 H   0  0  0  0  0  0  0  0  0  0  0  0
    6.0010   -3.4112    0.0000 H   0  0  0  0  0  0  0  0  0  0  0  0
    9.1046    3.3856    0.0000 H   0  0  0  0  0  0  0  0  0  0  0  0
    7.7060    5.8082    0.0000 H   0  0  0  0  0  0  0  0  0  0  0  0
   10.2615    4.6704    0.0000 H   0  0  0  0  0  0  0  0  0  0  0  0
  1 25  1  0  0  0  0
  2 25  1  0  0  0  0
  3 25  1  0  0  0  0
  4 17  2  0  0  0  0
  5 10  1  0  0  0  0
  6 10  2  0  0  0  0
  7 12  1  0  0  0  0
  7 16  1  0  0  0  0
  7 35  1  0  0  0  0
  8 13  1  0  0  0  0
  8 17  1  0  0  0  0
  8 36  1  0  0  0  0
  9 15  1  0  0  0  0
  9 23  1  0  0  0  0
  9 24  1  0  0  0  0
 10 18  1  0  0  0  0
 11 24  2  0  0  0  0
 11 26  1  0  0  0  0
 12 13  1  0  0  0  0
 12 27  1  0  0  0  0
 12 28  1  0  0  0  0
 13 29  1  0  0  0  0
 13 30  1  0  0  0  0
 14 15  1  0  0  0  0
 14 17  1  0  0  0  0
 14 31  1  0  0  0  0
 14 32  1  0  0  0  0
 15 33  1  0  0  0  0
 15 34  1  0  0  0  0
 16 18  2  0  0  0  0
 16 19  1  0  0  0  0
 18 21  1  0  0  0  0
 19 22  2  0  0  0  0
 19 37  1  0  0  0  0
 20 21  2  0  0  0  0
 20 22  1  0  0  0  0
 20 25  1  0  0  0  0
 21 38  1  0  0  0  0
 22 39  1  0  0  0  0
 23 26  2  0  0  0  0
 23 40  1  0  0  0  0
 24 41  1  0  0  0  0
 26 42  1  0  0  0  0
M  CHG  2   5  -1  10   1
M  END
> <PUBCHEM_COMPOUND_CID>
17396387

> <PUBCHEM_COMPOUND_CANONICALIZED>
1

> <PUBCHEM_CACTVS_COMPLEXITY>
486

> <PUBCHEM_CACTVS_HBOND_ACCEPTOR>
8

> <PUBCHEM_CACTVS_HBOND_DONOR>
2

> <PUBCHEM_CACTVS_ROTATABLE_BOND>
7

> <PUBCHEM_CACTVS_SUBSKEYS>
AAADceBzsYAAAAAAAAAAAAAAAAAAAWAAAAAwAAAAAAAAAAABwAAAHwAUAAAADAjBmhQ90JfcUACpAjV3dwCCgC0xEqApyIEYdIqIaCrA2ZGUIAholoLIyCcQgAAOCAAAQAAAACAQAACAAAAAQAAAAAAAAA==

> <PUBCHEM_IUPAC_OPENEYE_NAME>
3-imidazol-1-yl-N-[2-[2-nitro-4-(trifluoromethyl)anilino]ethyl]propanamide

> <PUBCHEM_IUPAC_CAS_NAME>
3-(1-imidazolyl)-N-[2-[2-nitro-4-(trifluoromethyl)anilino]ethyl]propanamide

> <PUBCHEM_IUPAC_NAME>
3-imidazol-1-yl-N-[2-[2-nitro-4-(trifluoromethyl)anilino]ethyl]propanamide

> <PUBCHEM_IUPAC_SYSTEMATIC_NAME>
3-imidazol-1-yl-N-[2-[[2-nitro-4-(trifluoromethyl)phenyl]amino]ethyl]propanamide

> <PUBCHEM_IUPAC_TRADITIONAL_NAME>
3-imidazol-1-yl-N-[2-[2-nitro-4-(trifluoromethyl)anilino]ethyl]propionamide

> <PUBCHEM_IUPAC_INCHI>
InChI=1S/C15H16F3N5O3/c16-15(17,18)11-1-2-12(13(9-11)23(25)26)20-4-5-21-14(24)3-7-22-8-6-19-10-22/h1-2,6,8-10,20H,3-5,7H2,(H,21,24)

> <PUBCHEM_IUPAC_INCHIKEY>
AMIRHGAHNKCHAX-UHFFFAOYSA-N

> <PUBCHEM_XLOGP3_AA>
2.1

> <PUBCHEM_EXACT_MASS>
371.120524

> <PUBCHEM_MOLECULAR_FORMULA>
C15H16F3N5O3

> <PUBCHEM_MOLECULAR_WEIGHT>
371.31445

> <PUBCHEM_OPENEYE_CAN_SMILES>
C1=CC(=C(C=C1C(F)(F)F)[N+](=O)[O-])NCCNC(=O)CCN2C=CN=C2

> <PUBCHEM_OPENEYE_ISO_SMILES>
C1=CC(=C(C=C1C(F)(F)F)[N+](=O)[O-])NCCNC(=O)CCN2C=CN=C2

> <PUBCHEM_CACTVS_TPSA>
105

> <PUBCHEM_MONOISOTOPIC_WEIGHT>
371.120524

> <PUBCHEM_TOTAL_CHARGE>
0

> <PUBCHEM_HEAVY_ATOM_COUNT>
26

> <PUBCHEM_ATOM_DEF_STEREO_COUNT>
0

> <PUBCHEM_ATOM_UDEF_STEREO_COUNT>
0

> <PUBCHEM_BOND_DEF_STEREO_COUNT>
0

> <PUBCHEM_BOND_UDEF_STEREO_COUNT>
0

> <PUBCHEM_ISOTOPIC_ATOM_COUNT>
0

> <PUBCHEM_COMPONENT_COUNT>
1

> <PUBCHEM_CACTVS_TAUTO_COUNT>
2

> <PUBCHEM_COORDINATE_TYPE>
1
5
255

> <PUBCHEM_BONDANNOTATIONS>
11  24  8
11  26  8
16  18  8
16  19  8
18  21  8
19  22  8
20  21  8
20  22  8
23  26  8
9  23  8
9  24  8

$$$$

