17395796
  -OEChem-06241222522D

 40 42  0     0  0  0  0  0  0999 V2000
    5.4921    0.1974    0.0000 S   0  0  0  0  0  0  0  0  0  0  0  0
    2.0000   -3.0813    0.0000 F   0  0  0  0  0  0  0  0  0  0  0  0
    9.0884   -0.0605    0.0000 O   0  0  0  0  0  0  0  0  0  0  0  0
    7.3942   -0.4206    0.0000 O   0  0  0  0  0  0  0  0  0  0  0  0
    3.7320   -0.0813    0.0000 N   0  0  0  0  0  0  0  0  0  0  0  0
    9.5191    2.5813    0.0000 N   0  0  0  0  0  0  0  0  0  0  0  0
    7.9295    1.2267    0.0000 N   0  0  0  0  0  0  0  0  0  0  0  0
    4.2320    1.4575    0.0000 N   0  0  0  0  0  0  0  0  0  0  0  0
    9.6237    1.5868    0.0000 C   0  0  0  0  0  0  0  0  0  0  0  0
    3.7320   -1.0813    0.0000 C   0  0  0  0  0  0  0  0  0  0  0  0
    4.5411    0.5065    0.0000 C   0  0  0  0  0  0  0  0  0  0  0  0
   10.6018    1.3789    0.0000 C   0  0  0  0  0  0  0  0  0  0  0  0
   10.4327    2.9881    0.0000 C   0  0  0  0  0  0  0  0  0  0  0  0
    8.8805    0.9177    0.0000 C   0  0  0  0  0  0  0  0  0  0  0  0
    2.9230    0.5065    0.0000 C   0  0  0  0  0  0  0  0  0  0  0  0
   11.1018    2.2449    0.0000 C   0  0  0  0  0  0  0  0  0  0  0  0
    6.2353    0.8666    0.0000 C   0  0  0  0  0  0  0  0  0  0  0  0
    8.6531    3.0813    0.0000 C   0  0  0  0  0  0  0  0  0  0  0  0
    2.8660   -1.5813    0.0000 C   0  0  0  0  0  0  0  0  0  0  0  0
    4.5981   -1.5813    0.0000 C   0  0  0  0  0  0  0  0  0  0  0  0
    7.1863    0.5576    0.0000 C   0  0  0  0  0  0  0  0  0  0  0  0
    3.2320    1.4575    0.0000 C   0  0  0  0  0  0  0  0  0  0  0  0
    2.8660   -2.5813    0.0000 C   0  0  0  0  0  0  0  0  0  0  0  0
    4.5981   -2.5813    0.0000 C   0  0  0  0  0  0  0  0  0  0  0  0
    3.7320   -3.0813    0.0000 C   0  0  0  0  0  0  0  0  0  0  0  0
   10.8540    0.8125    0.0000 H   0  0  0  0  0  0  0  0  0  0  0  0
   10.5616    3.5945    0.0000 H   0  0  0  0  0  0  0  0  0  0  0  0
    2.3334    0.3149    0.0000 H   0  0  0  0  0  0  0  0  0  0  0  0
   11.7184    2.3097    0.0000 H   0  0  0  0  0  0  0  0  0  0  0  0
    6.5263    1.4140    0.0000 H   0  0  0  0  0  0  0  0  0  0  0  0
    5.7467    1.2483    0.0000 H   0  0  0  0  0  0  0  0  0  0  0  0
    8.9631    3.6183    0.0000 H   0  0  0  0  0  0  0  0  0  0  0  0
    8.1162    3.3913    0.0000 H   0  0  0  0  0  0  0  0  0  0  0  0
    8.3431    2.5444    0.0000 H   0  0  0  0  0  0  0  0  0  0  0  0
    2.3291   -1.2713    0.0000 H   0  0  0  0  0  0  0  0  0  0  0  0
    5.1350   -1.2713    0.0000 H   0  0  0  0  0  0  0  0  0  0  0  0
    7.8006    1.8331    0.0000 H   0  0  0  0  0  0  0  0  0  0  0  0
    2.8676    1.9591    0.0000 H   0  0  0  0  0  0  0  0  0  0  0  0
    5.1350   -2.8913    0.0000 H   0  0  0  0  0  0  0  0  0  0  0  0
    3.7320   -3.7013    0.0000 H   0  0  0  0  0  0  0  0  0  0  0  0
  1 11  1  0  0  0  0
  1 17  1  0  0  0  0
  2 23  1  0  0  0  0
  3 14  2  0  0  0  0
  4 21  2  0  0  0  0
  5 10  1  0  0  0  0
  5 11  1  0  0  0  0
  5 15  1  0  0  0  0
  6  9  1  0  0  0  0
  6 13  1  0  0  0  0
  6 18  1  0  0  0  0
  7 14  1  0  0  0  0
  7 21  1  0  0  0  0
  7 37  1  0  0  0  0
  8 11  2  0  0  0  0
  8 22  1  0  0  0  0
  9 12  2  0  0  0  0
  9 14  1  0  0  0  0
 10 19  2  0  0  0  0
 10 20  1  0  0  0  0
 12 16  1  0  0  0  0
 12 26  1  0  0  0  0
 13 16  2  0  0  0  0
 13 27  1  0  0  0  0
 15 22  2  0  0  0  0
 15 28  1  0  0  0  0
 16 29  1  0  0  0  0
 17 21  1  0  0  0  0
 17 30  1  0  0  0  0
 17 31  1  0  0  0  0
 18 32  1  0  0  0  0
 18 33  1  0  0  0  0
 18 34  1  0  0  0  0
 19 23  1  0  0  0  0
 19 35  1  0  0  0  0
 20 24  2  0  0  0  0
 20 36  1  0  0  0  0
 22 38  1  0  0  0  0
 23 25  2  0  0  0  0
 24 25  1  0  0  0  0
 24 39  1  0  0  0  0
 25 40  1  0  0  0  0
M  END
> <PUBCHEM_COMPOUND_CID>
17395796

> <PUBCHEM_COMPOUND_CANONICALIZED>
1

> <PUBCHEM_CACTVS_COMPLEXITY>
495

> <PUBCHEM_CACTVS_HBOND_ACCEPTOR>
5

> <PUBCHEM_CACTVS_HBOND_DONOR>
1

> <PUBCHEM_CACTVS_ROTATABLE_BOND>
5

> <PUBCHEM_CACTVS_SUBSKEYS>
AAADccB7sQBAAAAAAAAAAAAAAAAAAWLAAAAwAAAAAAAAAAAB8AAAHwQQAAAACAjF1gy/0JfMEAioATV3dACC0C13ErAJ2CG4dNiIaPLAnbGUIQholCLIyacYAQAAAAAAAAAAAAAAAAAAAAAAAAAAAAAAAA==

> <PUBCHEM_IUPAC_OPENEYE_NAME>
N-[2-[1-(3-fluorophenyl)imidazol-2-yl]sulfanylacetyl]-1-methyl-pyrrole-2-carboxamide

> <PUBCHEM_IUPAC_CAS_NAME>
N-[2-[[1-(3-fluorophenyl)-2-imidazolyl]thio]-1-oxoethyl]-1-methyl-2-pyrrolecarboxamide

> <PUBCHEM_IUPAC_NAME>
N-[2-[1-(3-fluorophenyl)imidazol-2-yl]sulfanylacetyl]-1-methylpyrrole-2-carboxamide

> <PUBCHEM_IUPAC_SYSTEMATIC_NAME>
N-[2-[1-(3-fluorophenyl)imidazol-2-yl]sulfanylethanoyl]-1-methyl-pyrrole-2-carboxamide

> <PUBCHEM_IUPAC_TRADITIONAL_NAME>
N-[2-[[1-(3-fluorophenyl)imidazol-2-yl]thio]acetyl]-1-methyl-pyrrole-2-carboxamide

> <PUBCHEM_IUPAC_INCHI>
InChI=1S/C17H15FN4O2S/c1-21-8-3-6-14(21)16(24)20-15(23)11-25-17-19-7-9-22(17)13-5-2-4-12(18)10-13/h2-10H,11H2,1H3,(H,20,23,24)

> <PUBCHEM_IUPAC_INCHIKEY>
LUOHOOZRIZCMQJ-UHFFFAOYSA-N

> <PUBCHEM_XLOGP3_AA>
2.5

> <PUBCHEM_EXACT_MASS>
358.089975

> <PUBCHEM_MOLECULAR_FORMULA>
C17H15FN4O2S

> <PUBCHEM_MOLECULAR_WEIGHT>
358.390003

> <PUBCHEM_OPENEYE_CAN_SMILES>
CN1C=CC=C1C(=O)NC(=O)CSC2=NC=CN2C3=CC(=CC=C3)F

> <PUBCHEM_OPENEYE_ISO_SMILES>
CN1C=CC=C1C(=O)NC(=O)CSC2=NC=CN2C3=CC(=CC=C3)F

> <PUBCHEM_CACTVS_TPSA>
94.2

> <PUBCHEM_MONOISOTOPIC_WEIGHT>
358.089975

> <PUBCHEM_TOTAL_CHARGE>
0

> <PUBCHEM_HEAVY_ATOM_COUNT>
25

> <PUBCHEM_ATOM_DEF_STEREO_COUNT>
0

> <PUBCHEM_ATOM_UDEF_STEREO_COUNT>
0

> <PUBCHEM_BOND_DEF_STEREO_COUNT>
0

> <PUBCHEM_BOND_UDEF_STEREO_COUNT>
0

> <PUBCHEM_ISOTOPIC_ATOM_COUNT>
0

> <PUBCHEM_COMPONENT_COUNT>
1

> <PUBCHEM_CACTVS_TAUTO_COUNT>
3

> <PUBCHEM_COORDINATE_TYPE>
1
5
255

> <PUBCHEM_BONDANNOTATIONS>
10  19  8
10  20  8
12  16  8
13  16  8
15  22  8
19  23  8
20  24  8
23  25  8
24  25  8
5  11  8
5  15  8
6  13  8
6  9  8
8  11  8
8  22  8
9  12  8

$$$$

