47205507
  -OEChem-06241222592D

 35 36  0     1  0  0  0  0  0999 V2000
    3.7320    1.7306    0.0000 O   0  0  0  0  0  0  0  0  0  0  0  0
    2.0000   -3.2694    0.0000 O   0  0  0  0  0  0  0  0  0  0  0  0
    5.4641    2.7306    0.0000 N   0  0  0  0  0  0  0  0  0  0  0  0
    4.5981    0.2306    0.0000 N   0  0  0  0  0  0  0  0  0  0  0  0
    4.9641    4.2694    0.0000 N   0  0  0  0  0  0  0  0  0  0  0  0
    3.7320   -3.2694    0.0000 N   0  0  0  0  0  0  0  0  0  0  0  0
    5.4641    1.7306    0.0000 C   0  0  3  0  0  0  0  0  0  0  0  0
    4.5981    1.2306    0.0000 C   0  0  0  0  0  0  0  0  0  0  0  0
    6.3301    1.2306    0.0000 C   0  0  0  0  0  0  0  0  0  0  0  0
    3.7320   -0.2694    0.0000 C   0  0  0  0  0  0  0  0  0  0  0  0
    3.7320   -1.2694    0.0000 C   0  0  0  0  0  0  0  0  0  0  0  0
    6.2731    3.3184    0.0000 C   0  0  0  0  0  0  0  0  0  0  0  0
    4.6551    3.3184    0.0000 C   0  0  0  0  0  0  0  0  0  0  0  0
    5.9641    4.2694    0.0000 C   0  0  0  0  0  0  0  0  0  0  0  0
    2.8660   -1.7694    0.0000 C   0  0  0  0  0  0  0  0  0  0  0  0
    4.5981   -1.7694    0.0000 C   0  0  0  0  0  0  0  0  0  0  0  0
    2.8660   -2.7694    0.0000 C   0  0  0  0  0  0  0  0  0  0  0  0
    4.5981   -2.7694    0.0000 C   0  0  0  0  0  0  0  0  0  0  0  0
    2.0000   -4.2694    0.0000 C   0  0  0  0  0  0  0  0  0  0  0  0
    6.0010    2.0406    0.0000 H   0  0  0  0  0  0  0  0  0  0  0  0
    6.0201    0.6936    0.0000 H   0  0  0  0  0  0  0  0  0  0  0  0
    6.8671    0.9206    0.0000 H   0  0  0  0  0  0  0  0  0  0  0  0
    6.6401    1.7675    0.0000 H   0  0  0  0  0  0  0  0  0  0  0  0
    3.5200    0.3132    0.0000 H   0  0  0  0  0  0  0  0  0  0  0  0
    3.1215   -0.3771    0.0000 H   0  0  0  0  0  0  0  0  0  0  0  0
    5.1350   -0.0794    0.0000 H   0  0  0  0  0  0  0  0  0  0  0  0
    6.8628    3.1268    0.0000 H   0  0  0  0  0  0  0  0  0  0  0  0
    4.0654    3.1268    0.0000 H   0  0  0  0  0  0  0  0  0  0  0  0
    2.3291   -1.4594    0.0000 H   0  0  0  0  0  0  0  0  0  0  0  0
    6.3285    4.7710    0.0000 H   0  0  0  0  0  0  0  0  0  0  0  0
    5.1350   -1.4594    0.0000 H   0  0  0  0  0  0  0  0  0  0  0  0
    5.1350   -3.0794    0.0000 H   0  0  0  0  0  0  0  0  0  0  0  0
    1.3800   -4.2694    0.0000 H   0  0  0  0  0  0  0  0  0  0  0  0
    2.0000   -4.8894    0.0000 H   0  0  0  0  0  0  0  0  0  0  0  0
    2.6200   -4.2694    0.0000 H   0  0  0  0  0  0  0  0  0  0  0  0
  1  8  2  0  0  0  0
  2 17  1  0  0  0  0
  2 19  1  0  0  0  0
  3  7  1  0  0  0  0
  3 12  1  0  0  0  0
  3 13  1  0  0  0  0
  4  8  1  0  0  0  0
  4 10  1  0  0  0  0
  4 26  1  0  0  0  0
  5 13  2  0  0  0  0
  5 14  1  0  0  0  0
  6 17  2  0  0  0  0
  6 18  1  0  0  0  0
  7  8  1  0  0  0  0
  7  9  1  0  0  0  0
  7 20  1  0  0  0  0
  9 21  1  0  0  0  0
  9 22  1  0  0  0  0
  9 23  1  0  0  0  0
 10 11  1  0  0  0  0
 10 24  1  0  0  0  0
 10 25  1  0  0  0  0
 11 15  2  0  0  0  0
 11 16  1  0  0  0  0
 12 14  2  0  0  0  0
 12 27  1  0  0  0  0
 13 28  1  0  0  0  0
 14 30  1  0  0  0  0
 15 17  1  0  0  0  0
 15 29  1  0  0  0  0
 16 18  2  0  0  0  0
 16 31  1  0  0  0  0
 18 32  1  0  0  0  0
 19 33  1  0  0  0  0
 19 34  1  0  0  0  0
 19 35  1  0  0  0  0
M  END
> <PUBCHEM_COMPOUND_CID>
47205507

> <PUBCHEM_COMPOUND_CANONICALIZED>
1

> <PUBCHEM_CACTVS_COMPLEXITY>
300

> <PUBCHEM_CACTVS_HBOND_ACCEPTOR>
4

> <PUBCHEM_CACTVS_HBOND_DONOR>
1

> <PUBCHEM_CACTVS_ROTATABLE_BOND>
5

> <PUBCHEM_CACTVS_SUBSKEYS>
AAADceBzsAAAAAAAAAAAAAAAAAAAAWAAAAAsAAAAAAAAAAAB4AAAHgAQAAAADCjBmgY/lJfMFACoAjF3dACCiC0xMqAJ2KG+fJiMbmLEubuUMChs1hPI6CawEAAKAAAAAAAAAAAAAAAAAAAAAAAAAAAAAA==

> <PUBCHEM_IUPAC_OPENEYE_NAME>
2-imidazol-1-yl-N-[(2-methoxy-4-pyridyl)methyl]propanamide

> <PUBCHEM_IUPAC_CAS_NAME>
2-(1-imidazolyl)-N-[(2-methoxy-4-pyridinyl)methyl]propanamide

> <PUBCHEM_IUPAC_NAME>
2-imidazol-1-yl-N-[(2-methoxypyridin-4-yl)methyl]propanamide

> <PUBCHEM_IUPAC_SYSTEMATIC_NAME>
2-imidazol-1-yl-N-[(2-methoxypyridin-4-yl)methyl]propanamide

> <PUBCHEM_IUPAC_TRADITIONAL_NAME>
2-imidazol-1-yl-N-[(2-methoxy-4-pyridyl)methyl]propionamide

> <PUBCHEM_IUPAC_INCHI>
InChI=1S/C13H16N4O2/c1-10(17-6-5-14-9-17)13(18)16-8-11-3-4-15-12(7-11)19-2/h3-7,9-10H,8H2,1-2H3,(H,16,18)

> <PUBCHEM_IUPAC_INCHIKEY>
ADRMYXLUMMDNQW-UHFFFAOYSA-N

> <PUBCHEM_XLOGP3_AA>
0.6

> <PUBCHEM_EXACT_MASS>
260.127326

> <PUBCHEM_MOLECULAR_FORMULA>
C13H16N4O2

> <PUBCHEM_MOLECULAR_WEIGHT>
260.29174

> <PUBCHEM_OPENEYE_CAN_SMILES>
CC(C(=O)NCC1=CC(=NC=C1)OC)N2C=CN=C2

> <PUBCHEM_OPENEYE_ISO_SMILES>
CC(C(=O)NCC1=CC(=NC=C1)OC)N2C=CN=C2

> <PUBCHEM_CACTVS_TPSA>
69

> <PUBCHEM_MONOISOTOPIC_WEIGHT>
260.127326

> <PUBCHEM_TOTAL_CHARGE>
0

> <PUBCHEM_HEAVY_ATOM_COUNT>
19

> <PUBCHEM_ATOM_DEF_STEREO_COUNT>
0

> <PUBCHEM_ATOM_UDEF_STEREO_COUNT>
1

> <PUBCHEM_BOND_DEF_STEREO_COUNT>
0

> <PUBCHEM_BOND_UDEF_STEREO_COUNT>
0

> <PUBCHEM_ISOTOPIC_ATOM_COUNT>
0

> <PUBCHEM_COMPONENT_COUNT>
1

> <PUBCHEM_CACTVS_TAUTO_COUNT>
2

> <PUBCHEM_COORDINATE_TYPE>
1
5
255

> <PUBCHEM_BONDANNOTATIONS>
11  15  8
11  16  8
12  14  8
15  17  8
16  18  8
3  12  8
3  13  8
5  13  8
5  14  8
6  17  8
6  18  8
7  9  3

$$$$

