17396343
  -OEChem-06241222562D

 38 40  0     0  0  0  0  0  0999 V2000
    4.6783    3.2505    0.0000 S   0  0  0  0  0  0  0  0  0  0  0  0
    9.4643   -0.3689    0.0000 S   0  0  0  0  0  0  0  0  0  0  0  0
    6.7619    1.5798    0.0000 O   0  0  0  0  0  0  0  0  0  0  0  0
    6.7619    3.3118    0.0000 O   0  0  0  0  0  0  0  0  0  0  0  0
   10.2163   -2.0445    0.0000 O   0  0  0  0  0  0  0  0  0  0  0  0
    7.8551   -0.1998    0.0000 N   0  0  0  0  0  0  0  0  0  0  0  0
    8.4938   -1.8635    0.0000 N   0  0  0  0  0  0  0  0  0  0  0  0
    2.0000    1.9458    0.0000 C   0  0  0  0  0  0  0  0  0  0  0  0
    2.0000    2.9458    0.0000 C   0  0  0  0  0  0  0  0  0  0  0  0
    2.8660    1.4458    0.0000 C   0  0  0  0  0  0  0  0  0  0  0  0
    2.8660    3.4458    0.0000 C   0  0  0  0  0  0  0  0  0  0  0  0
    3.7320    1.9458    0.0000 C   0  0  0  0  0  0  0  0  0  0  0  0
    3.7320    2.9458    0.0000 C   0  0  0  0  0  0  0  0  0  0  0  0
    4.6783    1.6410    0.0000 C   0  0  0  0  0  0  0  0  0  0  0  0
    5.2619    2.4458    0.0000 C   0  0  0  0  0  0  0  0  0  0  0  0
    6.2619    2.4458    0.0000 C   0  0  0  0  0  0  0  0  0  0  0  0
    7.7619    1.5798    0.0000 C   0  0  0  0  0  0  0  0  0  0  0  0
    8.2619    0.7137    0.0000 C   0  0  0  0  0  0  0  0  0  0  0  0
    9.2564    0.6092    0.0000 C   0  0  0  0  0  0  0  0  0  0  0  0
    8.5983   -0.8689    0.0000 C   0  0  0  0  0  0  0  0  0  0  0  0
    9.3028   -2.4513    0.0000 C   0  0  0  0  0  0  0  0  0  0  0  0
    9.1982   -3.4458    0.0000 C   0  0  0  0  0  0  0  0  0  0  0  0
    1.3894    2.0534    0.0000 H   0  0  0  0  0  0  0  0  0  0  0  0
    1.7880    1.3632    0.0000 H   0  0  0  0  0  0  0  0  0  0  0  0
    1.7880    3.5284    0.0000 H   0  0  0  0  0  0  0  0  0  0  0  0
    1.3894    2.8381    0.0000 H   0  0  0  0  0  0  0  0  0  0  0  0
    2.4675    0.9708    0.0000 H   0  0  0  0  0  0  0  0  0  0  0  0
    3.2646    0.9708    0.0000 H   0  0  0  0  0  0  0  0  0  0  0  0
    3.2646    3.9207    0.0000 H   0  0  0  0  0  0  0  0  0  0  0  0
    2.4675    3.9207    0.0000 H   0  0  0  0  0  0  0  0  0  0  0  0
    4.8709    1.0517    0.0000 H   0  0  0  0  0  0  0  0  0  0  0  0
    8.3445    1.7918    0.0000 H   0  0  0  0  0  0  0  0  0  0  0  0
    7.6542    2.1903    0.0000 H   0  0  0  0  0  0  0  0  0  0  0  0
    9.6713    1.0700    0.0000 H   0  0  0  0  0  0  0  0  0  0  0  0
    7.9274   -2.1156    0.0000 H   0  0  0  0  0  0  0  0  0  0  0  0
    8.5816   -3.3810    0.0000 H   0  0  0  0  0  0  0  0  0  0  0  0
    9.1334   -4.0624    0.0000 H   0  0  0  0  0  0  0  0  0  0  0  0
    9.8148   -3.5106    0.0000 H   0  0  0  0  0  0  0  0  0  0  0  0
  1 13  1  0  0  0  0
  1 15  1  0  0  0  0
  2 19  1  0  0  0  0
  2 20  1  0  0  0  0
  3 16  1  0  0  0  0
  3 17  1  0  0  0  0
  4 16  2  0  0  0  0
  5 21  2  0  0  0  0
  6 18  1  0  0  0  0
  6 20  2  0  0  0  0
  7 20  1  0  0  0  0
  7 21  1  0  0  0  0
  7 35  1  0  0  0  0
  8  9  1  0  0  0  0
  8 10  1  0  0  0  0
  8 23  1  0  0  0  0
  8 24  1  0  0  0  0
  9 11  1  0  0  0  0
  9 25  1  0  0  0  0
  9 26  1  0  0  0  0
 10 12  1  0  0  0  0
 10 27  1  0  0  0  0
 10 28  1  0  0  0  0
 11 13  1  0  0  0  0
 11 29  1  0  0  0  0
 11 30  1  0  0  0  0
 12 13  2  0  0  0  0
 12 14  1  0  0  0  0
 14 15  2  0  0  0  0
 14 31  1  0  0  0  0
 15 16  1  0  0  0  0
 17 18  1  0  0  0  0
 17 32  1  0  0  0  0
 17 33  1  0  0  0  0
 18 19  2  0  0  0  0
 19 34  1  0  0  0  0
 21 22  1  0  0  0  0
 22 36  1  0  0  0  0
 22 37  1  0  0  0  0
 22 38  1  0  0  0  0
M  END
> <PUBCHEM_COMPOUND_CID>
17396343

> <PUBCHEM_COMPOUND_CANONICALIZED>
1

> <PUBCHEM_CACTVS_COMPLEXITY>
435

> <PUBCHEM_CACTVS_HBOND_ACCEPTOR>
6

> <PUBCHEM_CACTVS_HBOND_DONOR>
1

> <PUBCHEM_CACTVS_ROTATABLE_BOND>
5

> <PUBCHEM_CACTVS_SUBSKEYS>
AAADceBzMABgAAAAAAAAAAAAAAAAAWJAAAAwAAAAAAAAAEgB4AAAHgQQAAAADAil3gKzmZLIFAisAyXyfAQD8KllCjlBiB0QKMiKJjKgPRiDEQAs0QM4qaeIyKCOAAAAAAAAAAAAAAAAAAgAAAAAAAAAAA==

> <PUBCHEM_IUPAC_OPENEYE_NAME>
(2-acetamidothiazol-4-yl)methyl 4,5,6,7-tetrahydrobenzothiophene-2-carboxylate

> <PUBCHEM_IUPAC_CAS_NAME>
4,5,6,7-tetrahydro-1-benzothiophene-2-carboxylic acid (2-acetamido-4-thiazolyl)methyl ester

> <PUBCHEM_IUPAC_NAME>
(2-acetamido-1,3-thiazol-4-yl)methyl 4,5,6,7-tetrahydro-1-benzothiophene-2-carboxylate

> <PUBCHEM_IUPAC_SYSTEMATIC_NAME>
(2-acetamido-1,3-thiazol-4-yl)methyl 4,5,6,7-tetrahydro-1-benzothiophene-2-carboxylate

> <PUBCHEM_IUPAC_TRADITIONAL_NAME>
4,5,6,7-tetrahydrobenzothiophene-2-carboxylic acid (2-acetamidothiazol-4-yl)methyl ester

> <PUBCHEM_IUPAC_INCHI>
InChI=1S/C15H16N2O3S2/c1-9(18)16-15-17-11(8-21-15)7-20-14(19)13-6-10-4-2-3-5-12(10)22-13/h6,8H,2-5,7H2,1H3,(H,16,17,18)

> <PUBCHEM_IUPAC_INCHIKEY>
LFYHQVTWQAPLCP-UHFFFAOYSA-N

> <PUBCHEM_XLOGP3_AA>
3.1

> <PUBCHEM_EXACT_MASS>
336.060234

> <PUBCHEM_MOLECULAR_FORMULA>
C15H16N2O3S2

> <PUBCHEM_MOLECULAR_WEIGHT>
336.42914

> <PUBCHEM_OPENEYE_CAN_SMILES>
CC(=O)NC1=NC(=CS1)COC(=O)C2=CC3=C(S2)CCCC3

> <PUBCHEM_OPENEYE_ISO_SMILES>
CC(=O)NC1=NC(=CS1)COC(=O)C2=CC3=C(S2)CCCC3

> <PUBCHEM_CACTVS_TPSA>
125

> <PUBCHEM_MONOISOTOPIC_WEIGHT>
336.060234

> <PUBCHEM_TOTAL_CHARGE>
0

> <PUBCHEM_HEAVY_ATOM_COUNT>
22

> <PUBCHEM_ATOM_DEF_STEREO_COUNT>
0

> <PUBCHEM_ATOM_UDEF_STEREO_COUNT>
0

> <PUBCHEM_BOND_DEF_STEREO_COUNT>
0

> <PUBCHEM_BOND_UDEF_STEREO_COUNT>
0

> <PUBCHEM_ISOTOPIC_ATOM_COUNT>
0

> <PUBCHEM_COMPONENT_COUNT>
1

> <PUBCHEM_CACTVS_TAUTO_COUNT>
15

> <PUBCHEM_COORDINATE_TYPE>
1
5
255

> <PUBCHEM_BONDANNOTATIONS>
1  13  8
1  15  8
12  13  8
12  14  8
14  15  8
18  19  8
2  19  8
2  20  8
6  18  8
6  20  8

$$$$

