14218
  -OEChem-06241222422D

 34 33  0     0  0  0  0  0  0999 V2000
    6.0010   -0.3170    0.0000 O   0  0  0  0  0  0  0  0  0  0  0  0
    9.4651   -0.3170    0.0000 O   0  0  0  0  0  0  0  0  0  0  0  0
    2.5369   -0.3170    0.0000 O   0  0  0  0  0  0  0  0  0  0  0  0
    5.1350    1.1830    0.0000 O   0  0  0  0  0  0  0  0  0  0  0  0
    7.7331   -0.3170    0.0000 C   0  0  0  0  0  0  0  0  0  0  0  0
    4.2690   -0.3170    0.0000 C   0  0  0  0  0  0  0  0  0  0  0  0
    6.8671    0.1830    0.0000 C   0  0  0  0  0  0  0  0  0  0  0  0
    8.5991   -0.8170    0.0000 C   0  0  0  0  0  0  0  0  0  0  0  0
    8.2331    0.5490    0.0000 C   0  0  0  0  0  0  0  0  0  0  0  0
    7.2331   -1.1830    0.0000 C   0  0  0  0  0  0  0  0  0  0  0  0
    5.1350    0.1830    0.0000 C   0  0  0  0  0  0  0  0  0  0  0  0
    3.4030   -0.8170    0.0000 C   0  0  0  0  0  0  0  0  0  0  0  0
    3.7690    0.5490    0.0000 C   0  0  0  0  0  0  0  0  0  0  0  0
    4.7690   -1.1830    0.0000 C   0  0  0  0  0  0  0  0  0  0  0  0
    7.2656    0.6580    0.0000 H   0  0  0  0  0  0  0  0  0  0  0  0
    6.4685    0.6580    0.0000 H   0  0  0  0  0  0  0  0  0  0  0  0
    8.2006   -1.2919    0.0000 H   0  0  0  0  0  0  0  0  0  0  0  0
    8.9976   -1.2919    0.0000 H   0  0  0  0  0  0  0  0  0  0  0  0
    8.7700    0.2390    0.0000 H   0  0  0  0  0  0  0  0  0  0  0  0
    8.5431    1.0860    0.0000 H   0  0  0  0  0  0  0  0  0  0  0  0
    7.6962    0.8590    0.0000 H   0  0  0  0  0  0  0  0  0  0  0  0
    6.6962   -0.8730    0.0000 H   0  0  0  0  0  0  0  0  0  0  0  0
    6.9231   -1.7200    0.0000 H   0  0  0  0  0  0  0  0  0  0  0  0
    7.7700   -1.4930    0.0000 H   0  0  0  0  0  0  0  0  0  0  0  0
    3.0044   -1.2919    0.0000 H   0  0  0  0  0  0  0  0  0  0  0  0
    3.8015   -1.2919    0.0000 H   0  0  0  0  0  0  0  0  0  0  0  0
    4.3059    0.8590    0.0000 H   0  0  0  0  0  0  0  0  0  0  0  0
    3.4590    1.0860    0.0000 H   0  0  0  0  0  0  0  0  0  0  0  0
    3.2320    0.2390    0.0000 H   0  0  0  0  0  0  0  0  0  0  0  0
    4.2320   -1.4930    0.0000 H   0  0  0  0  0  0  0  0  0  0  0  0
    5.0790   -1.7200    0.0000 H   0  0  0  0  0  0  0  0  0  0  0  0
    5.3059   -0.8730    0.0000 H   0  0  0  0  0  0  0  0  0  0  0  0
   10.0021   -0.6270    0.0000 H   0  0  0  0  0  0  0  0  0  0  0  0
    2.0000   -0.6270    0.0000 H   0  0  0  0  0  0  0  0  0  0  0  0
  1  7  1  0  0  0  0
  1 11  1  0  0  0  0
  2  8  1  0  0  0  0
  2 33  1  0  0  0  0
  3 12  1  0  0  0  0
  3 34  1  0  0  0  0
  4 11  2  0  0  0  0
  5  7  1  0  0  0  0
  5  8  1  0  0  0  0
  5  9  1  0  0  0  0
  5 10  1  0  0  0  0
  6 11  1  0  0  0  0
  6 12  1  0  0  0  0
  6 13  1  0  0  0  0
  6 14  1  0  0  0  0
  7 15  1  0  0  0  0
  7 16  1  0  0  0  0
  8 17  1  0  0  0  0
  8 18  1  0  0  0  0
  9 19  1  0  0  0  0
  9 20  1  0  0  0  0
  9 21  1  0  0  0  0
 10 22  1  0  0  0  0
 10 23  1  0  0  0  0
 10 24  1  0  0  0  0
 12 25  1  0  0  0  0
 12 26  1  0  0  0  0
 13 27  1  0  0  0  0
 13 28  1  0  0  0  0
 13 29  1  0  0  0  0
 14 30  1  0  0  0  0
 14 31  1  0  0  0  0
 14 32  1  0  0  0  0
M  END
> <PUBCHEM_COMPOUND_CID>
14218

> <PUBCHEM_COMPOUND_CANONICALIZED>
1

> <PUBCHEM_CACTVS_COMPLEXITY>
196

> <PUBCHEM_CACTVS_HBOND_ACCEPTOR>
4

> <PUBCHEM_CACTVS_HBOND_DONOR>
2

> <PUBCHEM_CACTVS_ROTATABLE_BOND>
6

> <PUBCHEM_CACTVS_SUBSKEYS>
AAADceBwOAAAAAAAAAAAAAAAAAAAAAAAAAAAAAAAAAAAAAAAAAAAGgAACAAADgCggAICCAAABgAIAACQCAAAAAAAAAAAAAEAAAAAEAQAAAACQAABIAAAAAAAAAAAAAAAAAAAAAAAAAAAAAAAAAAAAAAAAA==

> <PUBCHEM_IUPAC_OPENEYE_NAME>
(3-hydroxy-2,2-dimethyl-propyl) 3-hydroxy-2,2-dimethyl-propanoate

> <PUBCHEM_IUPAC_CAS_NAME>
3-hydroxy-2,2-dimethylpropanoic acid (3-hydroxy-2,2-dimethylpropyl) ester

> <PUBCHEM_IUPAC_NAME>
(3-hydroxy-2,2-dimethylpropyl) 3-hydroxy-2,2-dimethylpropanoate

> <PUBCHEM_IUPAC_SYSTEMATIC_NAME>
(2,2-dimethyl-3-oxidanyl-propyl) 2,2-dimethyl-3-oxidanyl-propanoate

> <PUBCHEM_IUPAC_TRADITIONAL_NAME>
3-hydroxy-2,2-dimethyl-propionic acid (3-hydroxy-2,2-dimethyl-propyl) ester

> <PUBCHEM_IUPAC_INCHI>
InChI=1S/C10H20O4/c1-9(2,5-11)7-14-8(13)10(3,4)6-12/h11-12H,5-7H2,1-4H3

> <PUBCHEM_IUPAC_INCHIKEY>
SZCWBURCISJFEZ-UHFFFAOYSA-N

> <PUBCHEM_XLOGP3_AA>
0.8

> <PUBCHEM_EXACT_MASS>
204.136159

> <PUBCHEM_MOLECULAR_FORMULA>
C10H20O4

> <PUBCHEM_MOLECULAR_WEIGHT>
204.2634

> <PUBCHEM_OPENEYE_CAN_SMILES>
CC(C)(CO)COC(=O)C(C)(C)CO

> <PUBCHEM_OPENEYE_ISO_SMILES>
CC(C)(CO)COC(=O)C(C)(C)CO

> <PUBCHEM_CACTVS_TPSA>
66.8

> <PUBCHEM_MONOISOTOPIC_WEIGHT>
204.136159

> <PUBCHEM_TOTAL_CHARGE>
0

> <PUBCHEM_HEAVY_ATOM_COUNT>
14

> <PUBCHEM_ATOM_DEF_STEREO_COUNT>
0

> <PUBCHEM_ATOM_UDEF_STEREO_COUNT>
0

> <PUBCHEM_BOND_DEF_STEREO_COUNT>
0

> <PUBCHEM_BOND_UDEF_STEREO_COUNT>
0

> <PUBCHEM_ISOTOPIC_ATOM_COUNT>
0

> <PUBCHEM_COMPONENT_COUNT>
1

> <PUBCHEM_CACTVS_TAUTO_COUNT>
1

> <PUBCHEM_COORDINATE_TYPE>
1
5
255

$$$$

