17395339
  -OEChem-06241222492D

 35 36  0     1  0  0  0  0  0999 V2000
    2.8660   -4.6739    0.0000 Br  0  0  0  0  0  0  0  0  0  0  0  0
    2.8660   -0.6739    0.0000 O   0  0  0  0  0  0  0  0  0  0  0  0
    2.8660    1.3261    0.0000 O   0  0  0  0  0  0  0  0  0  0  0  0
    4.0981    3.8649    0.0000 O   0  0  0  0  0  0  0  0  0  0  0  0
    4.5981    1.3261    0.0000 N   0  0  0  0  0  0  0  0  0  0  0  0
    3.7891    2.9139    0.0000 N   0  0  0  0  0  0  0  0  0  0  0  0
    3.7320   -0.1739    0.0000 C   0  0  3  0  0  0  0  0  0  0  0  0
    4.5981   -0.6739    0.0000 C   0  0  0  0  0  0  0  0  0  0  0  0
    3.7320    0.8261    0.0000 C   0  0  0  0  0  0  0  0  0  0  0  0
    5.4641   -0.1739    0.0000 C   0  0  0  0  0  0  0  0  0  0  0  0
    2.8660   -1.6739    0.0000 C   0  0  0  0  0  0  0  0  0  0  0  0
    4.5981    2.3261    0.0000 C   0  0  0  0  0  0  0  0  0  0  0  0
    2.0000   -2.1739    0.0000 C   0  0  0  0  0  0  0  0  0  0  0  0
    3.7320   -2.1739    0.0000 C   0  0  0  0  0  0  0  0  0  0  0  0
    5.4071    2.9139    0.0000 C   0  0  0  0  0  0  0  0  0  0  0  0
    5.0981    3.8649    0.0000 C   0  0  0  0  0  0  0  0  0  0  0  0
    2.0000   -3.1739    0.0000 C   0  0  0  0  0  0  0  0  0  0  0  0
    3.7320   -3.1739    0.0000 C   0  0  0  0  0  0  0  0  0  0  0  0
    2.8660   -3.6739    0.0000 C   0  0  0  0  0  0  0  0  0  0  0  0
    5.6859    4.6739    0.0000 C   0  0  0  0  0  0  0  0  0  0  0  0
    3.7320   -0.7939    0.0000 H   0  0  0  0  0  0  0  0  0  0  0  0
    4.1996   -1.1489    0.0000 H   0  0  0  0  0  0  0  0  0  0  0  0
    4.9966   -1.1489    0.0000 H   0  0  0  0  0  0  0  0  0  0  0  0
    5.7741   -0.7109    0.0000 H   0  0  0  0  0  0  0  0  0  0  0  0
    6.0010    0.1361    0.0000 H   0  0  0  0  0  0  0  0  0  0  0  0
    5.1541    0.3630    0.0000 H   0  0  0  0  0  0  0  0  0  0  0  0
    5.1350    1.0161    0.0000 H   0  0  0  0  0  0  0  0  0  0  0  0
    1.4631   -1.8639    0.0000 H   0  0  0  0  0  0  0  0  0  0  0  0
    4.2690   -1.8639    0.0000 H   0  0  0  0  0  0  0  0  0  0  0  0
    5.9967    2.7223    0.0000 H   0  0  0  0  0  0  0  0  0  0  0  0
    1.4631   -3.4839    0.0000 H   0  0  0  0  0  0  0  0  0  0  0  0
    4.2690   -3.4839    0.0000 H   0  0  0  0  0  0  0  0  0  0  0  0
    6.1874    4.3095    0.0000 H   0  0  0  0  0  0  0  0  0  0  0  0
    6.0503    5.1755    0.0000 H   0  0  0  0  0  0  0  0  0  0  0  0
    5.1843    5.0384    0.0000 H   0  0  0  0  0  0  0  0  0  0  0  0
  1 19  1  0  0  0  0
  2  7  1  0  0  0  0
  2 11  1  0  0  0  0
  3  9  2  0  0  0  0
  4  6  1  0  0  0  0
  4 16  1  0  0  0  0
  5  9  1  0  0  0  0
  5 12  1  0  0  0  0
  5 27  1  0  0  0  0
  6 12  2  0  0  0  0
  7  8  1  0  0  0  0
  7  9  1  0  0  0  0
  7 21  1  0  0  0  0
  8 10  1  0  0  0  0
  8 22  1  0  0  0  0
  8 23  1  0  0  0  0
 10 24  1  0  0  0  0
 10 25  1  0  0  0  0
 10 26  1  0  0  0  0
 11 13  2  0  0  0  0
 11 14  1  0  0  0  0
 12 15  1  0  0  0  0
 13 17  1  0  0  0  0
 13 28  1  0  0  0  0
 14 18  2  0  0  0  0
 14 29  1  0  0  0  0
 15 16  2  0  0  0  0
 15 30  1  0  0  0  0
 16 20  1  0  0  0  0
 17 19  2  0  0  0  0
 17 31  1  0  0  0  0
 18 19  1  0  0  0  0
 18 32  1  0  0  0  0
 20 33  1  0  0  0  0
 20 34  1  0  0  0  0
 20 35  1  0  0  0  0
M  END
> <PUBCHEM_COMPOUND_CID>
17395339

> <PUBCHEM_COMPOUND_CANONICALIZED>
1

> <PUBCHEM_CACTVS_COMPLEXITY>
322

> <PUBCHEM_CACTVS_HBOND_ACCEPTOR>
4

> <PUBCHEM_CACTVS_HBOND_DONOR>
1

> <PUBCHEM_CACTVS_ROTATABLE_BOND>
5

> <PUBCHEM_CACTVS_SUBSKEYS>
AAADccBzMAAAEAAAAAAAAAAAAAAAAWAAAAAwAAAAAAAAAAABwAAAHgBUAAABqBShkgIztpLQBACpAKNycgKCCAAlIgQpmCF2bPqOJjrEuZ6HOKjm1RvY6leAQAAAABAAAAAAAAAAIAAAAAAAAAAAAAAAAA==

> <PUBCHEM_IUPAC_OPENEYE_NAME>
2-(4-bromophenoxy)-N-(5-methylisoxazol-3-yl)butanamide

> <PUBCHEM_IUPAC_CAS_NAME>
2-(4-bromophenoxy)-N-(5-methyl-3-isoxazolyl)butanamide

> <PUBCHEM_IUPAC_NAME>
2-(4-bromophenoxy)-N-(5-methyl-1,2-oxazol-3-yl)butanamide

> <PUBCHEM_IUPAC_SYSTEMATIC_NAME>
2-(4-bromanylphenoxy)-N-(5-methyl-1,2-oxazol-3-yl)butanamide

> <PUBCHEM_IUPAC_TRADITIONAL_NAME>
2-(4-bromophenoxy)-N-(5-methylisoxazol-3-yl)butyramide

> <PUBCHEM_IUPAC_INCHI>
InChI=1S/C14H15BrN2O3/c1-3-12(19-11-6-4-10(15)5-7-11)14(18)16-13-8-9(2)20-17-13/h4-8,12H,3H2,1-2H3,(H,16,17,18)

> <PUBCHEM_IUPAC_INCHIKEY>
KSCZTXRMIIZFEN-UHFFFAOYSA-N

> <PUBCHEM_XLOGP3_AA>
3.6

> <PUBCHEM_EXACT_MASS>
338.026604

> <PUBCHEM_MOLECULAR_FORMULA>
C14H15BrN2O3

> <PUBCHEM_MOLECULAR_WEIGHT>
339.1845

> <PUBCHEM_OPENEYE_CAN_SMILES>
CCC(C(=O)NC1=NOC(=C1)C)OC2=CC=C(C=C2)Br

> <PUBCHEM_OPENEYE_ISO_SMILES>
CCC(C(=O)NC1=NOC(=C1)C)OC2=CC=C(C=C2)Br

> <PUBCHEM_CACTVS_TPSA>
64.4

> <PUBCHEM_MONOISOTOPIC_WEIGHT>
338.026604

> <PUBCHEM_TOTAL_CHARGE>
0

> <PUBCHEM_HEAVY_ATOM_COUNT>
20

> <PUBCHEM_ATOM_DEF_STEREO_COUNT>
0

> <PUBCHEM_ATOM_UDEF_STEREO_COUNT>
1

> <PUBCHEM_BOND_DEF_STEREO_COUNT>
0

> <PUBCHEM_BOND_UDEF_STEREO_COUNT>
0

> <PUBCHEM_ISOTOPIC_ATOM_COUNT>
0

> <PUBCHEM_COMPONENT_COUNT>
1

> <PUBCHEM_CACTVS_TAUTO_COUNT>
10

> <PUBCHEM_COORDINATE_TYPE>
1
5
255

> <PUBCHEM_BONDANNOTATIONS>
11  13  8
11  14  8
12  15  8
13  17  8
14  18  8
15  16  8
17  19  8
18  19  8
4  16  8
4  6  8
6  12  8
7  8  3

$$$$

