8798
  -OEChem-06261203072D

 17 17  0     0  0  0  0  0  0999 V2000
    4.5032   -0.6133    0.0000 S   0  0  0  0  0  0  0  0  0  0  0  0
    6.7985    1.3127    0.0000 O   0  0  0  0  0  0  0  0  0  0  0  0
    2.0000    0.3346    0.0000 O   0  5  0  0  0  0  0  0  0  0  0  0
    2.5352   -1.3127    0.0000 O   0  0  0  0  0  0  0  0  0  0  0  0
    6.2633   -0.3346    0.0000 N   0  0  0  0  0  0  0  0  0  0  0  0
    5.0032    0.9255    0.0000 N   0  0  0  0  0  0  0  0  0  0  0  0
    2.7431   -0.3346    0.0000 N   0  3  0  0  0  0  0  0  0  0  0  0
    5.3122   -0.0255    0.0000 C   0  0  0  0  0  0  0  0  0  0  0  0
    3.6942   -0.0255    0.0000 C   0  0  0  0  0  0  0  0  0  0  0  0
    4.0032    0.9255    0.0000 C   0  0  0  0  0  0  0  0  0  0  0  0
    7.0064    0.3346    0.0000 C   0  0  0  0  0  0  0  0  0  0  0  0
    7.9575    0.0255    0.0000 C   0  0  0  0  0  0  0  0  0  0  0  0
    6.3922   -0.9410    0.0000 H   0  0  0  0  0  0  0  0  0  0  0  0
    3.6388    1.4271    0.0000 H   0  0  0  0  0  0  0  0  0  0  0  0
    7.7659   -0.5641    0.0000 H   0  0  0  0  0  0  0  0  0  0  0  0
    8.5472   -0.1660    0.0000 H   0  0  0  0  0  0  0  0  0  0  0  0
    8.1491    0.6152    0.0000 H   0  0  0  0  0  0  0  0  0  0  0  0
  1  8  1  0  0  0  0
  1  9  1  0  0  0  0
  2 11  2  0  0  0  0
  3  7  1  0  0  0  0
  4  7  2  0  0  0  0
  5  8  1  0  0  0  0
  5 11  1  0  0  0  0
  5 13  1  0  0  0  0
  6  8  2  0  0  0  0
  6 10  1  0  0  0  0
  7  9  1  0  0  0  0
  9 10  2  0  0  0  0
 10 14  1  0  0  0  0
 11 12  1  0  0  0  0
 12 15  1  0  0  0  0
 12 16  1  0  0  0  0
 12 17  1  0  0  0  0
M  CHG  2   3  -1   7   1
M  END
> <PUBCHEM_COMPOUND_CID>
8798

> <PUBCHEM_COMPOUND_CANONICALIZED>
1

> <PUBCHEM_CACTVS_COMPLEXITY>
205

> <PUBCHEM_CACTVS_HBOND_ACCEPTOR>
5

> <PUBCHEM_CACTVS_HBOND_DONOR>
1

> <PUBCHEM_CACTVS_ROTATABLE_BOND>
1

> <PUBCHEM_CACTVS_SUBSKEYS>
AAADcYBjMABAAAAAAAAAAAAAAAAAAWAAAAAAAAAAAAAAAAABgAAAHgQUAAAAAADBwgQvkRLYUAitABE3dwAA8KlRGjlhQAwIMAKAQAAACAAQAAAIEYIAACAAAAAAAAAAAAAAAAAAAAAAAAAAAAAAAAAAAA==

> <PUBCHEM_IUPAC_OPENEYE_NAME>
N-(5-nitrothiazol-2-yl)acetamide

> <PUBCHEM_IUPAC_CAS_NAME>
N-(5-nitro-2-thiazolyl)acetamide

> <PUBCHEM_IUPAC_NAME>
N-(5-nitro-1,3-thiazol-2-yl)acetamide

> <PUBCHEM_IUPAC_SYSTEMATIC_NAME>
N-(5-nitro-1,3-thiazol-2-yl)ethanamide

> <PUBCHEM_IUPAC_TRADITIONAL_NAME>
N-(5-nitrothiazol-2-yl)acetamide

> <PUBCHEM_IUPAC_INCHI>
InChI=1S/C5H5N3O3S/c1-3(9)7-5-6-2-4(12-5)8(10)11/h2H,1H3,(H,6,7,9)

> <PUBCHEM_IUPAC_INCHIKEY>
UJRRDDHEMZLWFI-UHFFFAOYSA-N

> <PUBCHEM_XLOGP3>
1.3

> <PUBCHEM_EXACT_MASS>
187.005162

> <PUBCHEM_MOLECULAR_FORMULA>
C5H5N3O3S

> <PUBCHEM_MOLECULAR_WEIGHT>
187.1765

> <PUBCHEM_OPENEYE_CAN_SMILES>
CC(=O)NC1=NC=C(S1)[N+](=O)[O-]

> <PUBCHEM_OPENEYE_ISO_SMILES>
CC(=O)NC1=NC=C(S1)[N+](=O)[O-]

> <PUBCHEM_CACTVS_TPSA>
116

> <PUBCHEM_MONOISOTOPIC_WEIGHT>
187.005162

> <PUBCHEM_TOTAL_CHARGE>
0

> <PUBCHEM_HEAVY_ATOM_COUNT>
12

> <PUBCHEM_ATOM_DEF_STEREO_COUNT>
0

> <PUBCHEM_ATOM_UDEF_STEREO_COUNT>
0

> <PUBCHEM_BOND_DEF_STEREO_COUNT>
0

> <PUBCHEM_BOND_UDEF_STEREO_COUNT>
0

> <PUBCHEM_ISOTOPIC_ATOM_COUNT>
0

> <PUBCHEM_COMPONENT_COUNT>
1

> <PUBCHEM_CACTVS_TAUTO_COUNT>
5

> <PUBCHEM_COORDINATE_TYPE>
1
5
255

> <PUBCHEM_BONDANNOTATIONS>
1  8  8
1  9  8
6  10  8
6  8  8
9  10  8

$$$$

