47205001
  -OEChem-06241222572D

 30 32  0     0  0  0  0  0  0999 V2000
    5.0930    4.0252    0.0000 Br  0  0  0  0  0  0  0  0  0  0  0  0
    6.6808    3.2161    0.0000 S   0  0  0  0  0  0  0  0  0  0  0  0
    7.0468    0.1773    0.0000 O   0  0  0  0  0  0  0  0  0  0  0  0
    3.5827   -2.8227    0.0000 N   0  0  0  0  0  0  0  0  0  0  0  0
    5.3147    0.1773    0.0000 N   0  0  0  0  0  0  0  0  0  0  0  0
    2.6691   -2.4160    0.0000 N   0  0  0  0  0  0  0  0  0  0  0  0
    4.4487   -2.3227    0.0000 C   0  0  0  0  0  0  0  0  0  0  0  0
    5.3147   -0.8227    0.0000 C   0  0  0  0  0  0  0  0  0  0  0  0
    4.4487   -1.3227    0.0000 C   0  0  0  0  0  0  0  0  0  0  0  0
    5.3147   -2.8227    0.0000 C   0  0  0  0  0  0  0  0  0  0  0  0
    6.1808   -1.3227    0.0000 C   0  0  0  0  0  0  0  0  0  0  0  0
    6.1808   -2.3227    0.0000 C   0  0  0  0  0  0  0  0  0  0  0  0
    6.1808    0.6773    0.0000 C   0  0  0  0  0  0  0  0  0  0  0  0
    6.1808    1.6773    0.0000 C   0  0  0  0  0  0  0  0  0  0  0  0
    3.4782   -3.8172    0.0000 C   0  0  0  0  0  0  0  0  0  0  0  0
    2.5000   -4.0252    0.0000 C   0  0  0  0  0  0  0  0  0  0  0  0
    5.3717    2.2651    0.0000 C   0  0  0  0  0  0  0  0  0  0  0  0
    2.0000   -3.1591    0.0000 C   0  0  0  0  0  0  0  0  0  0  0  0
    6.9898    2.2651    0.0000 C   0  0  0  0  0  0  0  0  0  0  0  0
    5.6808    3.2161    0.0000 C   0  0  0  0  0  0  0  0  0  0  0  0
    3.9118   -1.0127    0.0000 H   0  0  0  0  0  0  0  0  0  0  0  0
    5.3147   -3.4427    0.0000 H   0  0  0  0  0  0  0  0  0  0  0  0
    6.7177   -1.0127    0.0000 H   0  0  0  0  0  0  0  0  0  0  0  0
    4.7778    0.4873    0.0000 H   0  0  0  0  0  0  0  0  0  0  0  0
    6.7177   -2.6327    0.0000 H   0  0  0  0  0  0  0  0  0  0  0  0
    3.9389   -4.2321    0.0000 H   0  0  0  0  0  0  0  0  0  0  0  0
    2.2478   -4.5915    0.0000 H   0  0  0  0  0  0  0  0  0  0  0  0
    4.7821    2.0735    0.0000 H   0  0  0  0  0  0  0  0  0  0  0  0
    7.5794    2.0735    0.0000 H   0  0  0  0  0  0  0  0  0  0  0  0
    1.3834   -3.0943    0.0000 H   0  0  0  0  0  0  0  0  0  0  0  0
  1 20  1  0  0  0  0
  2 19  1  0  0  0  0
  2 20  1  0  0  0  0
  3 13  2  0  0  0  0
  4  6  1  0  0  0  0
  4  7  1  0  0  0  0
  4 15  1  0  0  0  0
  5  8  1  0  0  0  0
  5 13  1  0  0  0  0
  5 24  1  0  0  0  0
  6 18  2  0  0  0  0
  7  9  1  0  0  0  0
  7 10  2  0  0  0  0
  8  9  2  0  0  0  0
  8 11  1  0  0  0  0
  9 21  1  0  0  0  0
 10 12  1  0  0  0  0
 10 22  1  0  0  0  0
 11 12  2  0  0  0  0
 11 23  1  0  0  0  0
 12 25  1  0  0  0  0
 13 14  1  0  0  0  0
 14 17  1  0  0  0  0
 14 19  2  0  0  0  0
 15 16  2  0  0  0  0
 15 26  1  0  0  0  0
 16 18  1  0  0  0  0
 16 27  1  0  0  0  0
 17 20  2  0  0  0  0
 17 28  1  0  0  0  0
 18 30  1  0  0  0  0
 19 29  1  0  0  0  0
M  END
> <PUBCHEM_COMPOUND_CID>
47205001

> <PUBCHEM_COMPOUND_CANONICALIZED>
1

> <PUBCHEM_CACTVS_COMPLEXITY>
357

> <PUBCHEM_CACTVS_HBOND_ACCEPTOR>
3

> <PUBCHEM_CACTVS_HBOND_DONOR>
1

> <PUBCHEM_CACTVS_ROTATABLE_BOND>
3

> <PUBCHEM_CACTVS_SUBSKEYS>
AAADccBzIABAEAAAAAAAAAAAAAAAAWJAAAAwAAAAAAAAAAAB8AAAHgRYAAABLAjF2gS8wZLIAAiuAjV3VACTBKA1ihRYmDk4ZPgIIPLg1dGEpQhgnADoy5cQAAAIAAAAAAQAAAAAAAAACAAAAAAAAAAAAA==

> <PUBCHEM_IUPAC_OPENEYE_NAME>
5-bromo-N-(3-pyrazol-1-ylphenyl)thiophene-3-carboxamide

> <PUBCHEM_IUPAC_CAS_NAME>
5-bromo-N-[3-(1-pyrazolyl)phenyl]-3-thiophenecarboxamide

> <PUBCHEM_IUPAC_NAME>
5-bromo-N-(3-pyrazol-1-ylphenyl)thiophene-3-carboxamide

> <PUBCHEM_IUPAC_SYSTEMATIC_NAME>
5-bromanyl-N-(3-pyrazol-1-ylphenyl)thiophene-3-carboxamide

> <PUBCHEM_IUPAC_TRADITIONAL_NAME>
5-bromo-N-(3-pyrazol-1-ylphenyl)thiophene-3-carboxamide

> <PUBCHEM_IUPAC_INCHI>
InChI=1S/C14H10BrN3OS/c15-13-7-10(9-20-13)14(19)17-11-3-1-4-12(8-11)18-6-2-5-16-18/h1-9H,(H,17,19)

> <PUBCHEM_IUPAC_INCHIKEY>
YDHOOOMEIYFHET-UHFFFAOYSA-N

> <PUBCHEM_XLOGP3_AA>
3.4

> <PUBCHEM_EXACT_MASS>
346.972795

> <PUBCHEM_MOLECULAR_FORMULA>
C14H10BrN3OS

> <PUBCHEM_MOLECULAR_WEIGHT>
348.2177

> <PUBCHEM_OPENEYE_CAN_SMILES>
C1=CC(=CC(=C1)NC(=O)C2=CSC(=C2)Br)N3C=CC=N3

> <PUBCHEM_OPENEYE_ISO_SMILES>
C1=CC(=CC(=C1)NC(=O)C2=CSC(=C2)Br)N3C=CC=N3

> <PUBCHEM_CACTVS_TPSA>
75.2

> <PUBCHEM_MONOISOTOPIC_WEIGHT>
346.972795

> <PUBCHEM_TOTAL_CHARGE>
0

> <PUBCHEM_HEAVY_ATOM_COUNT>
20

> <PUBCHEM_ATOM_DEF_STEREO_COUNT>
0

> <PUBCHEM_ATOM_UDEF_STEREO_COUNT>
0

> <PUBCHEM_BOND_DEF_STEREO_COUNT>
0

> <PUBCHEM_BOND_UDEF_STEREO_COUNT>
0

> <PUBCHEM_ISOTOPIC_ATOM_COUNT>
0

> <PUBCHEM_COMPONENT_COUNT>
1

> <PUBCHEM_CACTVS_TAUTO_COUNT>
2

> <PUBCHEM_COORDINATE_TYPE>
1
5
255

> <PUBCHEM_BONDANNOTATIONS>
10  12  8
11  12  8
14  17  8
14  19  8
15  16  8
16  18  8
17  20  8
2  19  8
2  20  8
4  15  8
4  6  8
6  18  8
7  10  8
7  9  8
8  11  8
8  9  8

$$$$

