3964
  -OEChem-06251223472D

 41 44  0     0  0  0  0  0  0999 V2000
    2.0000   -1.4271    0.0000 Cl  0  0  0  0  0  0  0  0  0  0  0  0
    5.8374   -2.7541    0.0000 O   0  0  0  0  0  0  0  0  0  0  0  0
    4.9036    0.3375    0.0000 N   0  0  0  0  0  0  0  0  0  0  0  0
    4.0358    2.1394    0.0000 N   0  0  0  0  0  0  0  0  0  0  0  0
    6.3374   -0.5635    0.0000 N   0  0  0  0  0  0  0  0  0  0  0  0
    3.9064    0.4122    0.0000 C   0  0  0  0  0  0  0  0  0  0  0  0
    5.4669    1.1637    0.0000 C   0  0  0  0  0  0  0  0  0  0  0  0
    3.4725    1.3132    0.0000 C   0  0  0  0  0  0  0  0  0  0  0  0
    5.0330    2.0647    0.0000 C   0  0  0  0  0  0  0  0  0  0  0  0
    5.3374   -0.5635    0.0000 C   0  0  0  0  0  0  0  0  0  0  0  0
    3.6019    3.0404    0.0000 C   0  0  0  0  0  0  0  0  0  0  0  0
    4.7139   -1.3453    0.0000 C   0  0  0  0  0  0  0  0  0  0  0  0
    4.9364   -2.3202    0.0000 C   0  0  0  0  0  0  0  0  0  0  0  0
    6.9609   -1.3453    0.0000 C   0  0  0  0  0  0  0  0  0  0  0  0
    3.7234   -1.0230    0.0000 C   0  0  0  0  0  0  0  0  0  0  0  0
    6.7384   -2.3202    0.0000 C   0  0  0  0  0  0  0  0  0  0  0  0
    4.1839   -3.0404    0.0000 C   0  0  0  0  0  0  0  0  0  0  0  0
    2.9544   -1.7255    0.0000 C   0  0  0  0  0  0  0  0  0  0  0  0
    3.1862   -2.7410    0.0000 C   0  0  0  0  0  0  0  0  0  0  0  0
    7.9514   -1.0230    0.0000 C   0  0  0  0  0  0  0  0  0  0  0  0
    7.4909   -3.0404    0.0000 C   0  0  0  0  0  0  0  0  0  0  0  0
    8.7204   -1.7256    0.0000 C   0  0  0  0  0  0  0  0  0  0  0  0
    8.4886   -2.7411    0.0000 C   0  0  0  0  0  0  0  0  0  0  0  0
    5.9107    0.7308    0.0000 H   0  0  0  0  0  0  0  0  0  0  0  0
    5.9703    1.5257    0.0000 H   0  0  0  0  0  0  0  0  0  0  0  0
    3.3095    0.2443    0.0000 H   0  0  0  0  0  0  0  0  0  0  0  0
    3.9681   -0.2047    0.0000 H   0  0  0  0  0  0  0  0  0  0  0  0
    5.6298    2.2326    0.0000 H   0  0  0  0  0  0  0  0  0  0  0  0
    4.9713    2.6816    0.0000 H   0  0  0  0  0  0  0  0  0  0  0  0
    3.0286    1.7461    0.0000 H   0  0  0  0  0  0  0  0  0  0  0  0
    2.9691    0.9513    0.0000 H   0  0  0  0  0  0  0  0  0  0  0  0
    4.1605    3.3094    0.0000 H   0  0  0  0  0  0  0  0  0  0  0  0
    3.3329    3.5990    0.0000 H   0  0  0  0  0  0  0  0  0  0  0  0
    3.0433    2.7714    0.0000 H   0  0  0  0  0  0  0  0  0  0  0  0
    3.5925   -0.4169    0.0000 H   0  0  0  0  0  0  0  0  0  0  0  0
    4.3288   -3.6432    0.0000 H   0  0  0  0  0  0  0  0  0  0  0  0
    2.7333   -3.1645    0.0000 H   0  0  0  0  0  0  0  0  0  0  0  0
    8.0824   -0.4170    0.0000 H   0  0  0  0  0  0  0  0  0  0  0  0
    7.3460   -3.6432    0.0000 H   0  0  0  0  0  0  0  0  0  0  0  0
    9.3122   -1.5405    0.0000 H   0  0  0  0  0  0  0  0  0  0  0  0
    8.9415   -3.1645    0.0000 H   0  0  0  0  0  0  0  0  0  0  0  0
  1 18  1  0  0  0  0
  2 13  1  0  0  0  0
  2 16  1  0  0  0  0
  3  6  1  0  0  0  0
  3  7  1  0  0  0  0
  3 10  1  0  0  0  0
  4  8  1  0  0  0  0
  4  9  1  0  0  0  0
  4 11  1  0  0  0  0
  5 10  2  0  0  0  0
  5 14  1  0  0  0  0
  6  8  1  0  0  0  0
  6 26  1  0  0  0  0
  6 27  1  0  0  0  0
  7  9  1  0  0  0  0
  7 24  1  0  0  0  0
  7 25  1  0  0  0  0
  8 30  1  0  0  0  0
  8 31  1  0  0  0  0
  9 28  1  0  0  0  0
  9 29  1  0  0  0  0
 10 12  1  0  0  0  0
 11 32  1  0  0  0  0
 11 33  1  0  0  0  0
 11 34  1  0  0  0  0
 12 13  2  0  0  0  0
 12 15  1  0  0  0  0
 13 17  1  0  0  0  0
 14 16  1  0  0  0  0
 14 20  2  0  0  0  0
 15 18  2  0  0  0  0
 15 35  1  0  0  0  0
 16 21  2  0  0  0  0
 17 19  2  0  0  0  0
 17 36  1  0  0  0  0
 18 19  1  0  0  0  0
 19 37  1  0  0  0  0
 20 22  1  0  0  0  0
 20 38  1  0  0  0  0
 21 23  1  0  0  0  0
 21 39  1  0  0  0  0
 22 23  2  0  0  0  0
 22 40  1  0  0  0  0
 23 41  1  0  0  0  0
M  END
> <PUBCHEM_COMPOUND_CID>
3964

> <PUBCHEM_COMPOUND_CANONICALIZED>
1

> <PUBCHEM_CACTVS_COMPLEXITY>
450

> <PUBCHEM_CACTVS_HBOND_ACCEPTOR>
3

> <PUBCHEM_CACTVS_HBOND_DONOR>
0

> <PUBCHEM_CACTVS_ROTATABLE_BOND>
1

> <PUBCHEM_CACTVS_SUBSKEYS>
AAADceB7IAAEAAAAAAAAAAAAAAAAAAAAAAA8YIAABAAAAAABQAAAHgIAAAAADA7BmCQzxoMABACgAiZiZACCCAEgJwAJiAAvbpgOZqKFu5uXOCjmwBGI6AeQwCAOACAAIAAIEAAAQABAABAgAAAAAAAAAA==

> <PUBCHEM_IUPAC_OPENEYE_NAME>
8-chloro-6-(4-methylpiperazin-1-yl)benzo[b][1,4]benzoxazepine

> <PUBCHEM_IUPAC_CAS_NAME>
8-chloro-6-(4-methyl-1-piperazinyl)benzo[b][1,4]benzoxazepine

> <PUBCHEM_IUPAC_NAME>
8-chloro-6-(4-methylpiperazin-1-yl)benzo[b][1,4]benzoxazepine

> <PUBCHEM_IUPAC_SYSTEMATIC_NAME>
8-chloranyl-6-(4-methylpiperazin-1-yl)benzo[b][1,4]benzoxazepine

> <PUBCHEM_IUPAC_TRADITIONAL_NAME>
8-chloro-6-(4-methylpiperazino)benzo[b][1,4]benzoxazepine

> <PUBCHEM_IUPAC_INCHI>
InChI=1S/C18H18ClN3O/c1-21-8-10-22(11-9-21)18-14-12-13(19)6-7-16(14)23-17-5-3-2-4-15(17)20-18/h2-7,12H,8-11H2,1H3

> <PUBCHEM_IUPAC_INCHIKEY>
XJGVXQDUIWGIRW-UHFFFAOYSA-N

> <PUBCHEM_XLOGP3_AA>
3.1

> <PUBCHEM_EXACT_MASS>
327.11384

> <PUBCHEM_MOLECULAR_FORMULA>
C18H18ClN3O

> <PUBCHEM_MOLECULAR_WEIGHT>
327.80802

> <PUBCHEM_OPENEYE_CAN_SMILES>
CN1CCN(CC1)C2=NC3=CC=CC=C3OC4=C2C=C(C=C4)Cl

> <PUBCHEM_OPENEYE_ISO_SMILES>
CN1CCN(CC1)C2=NC3=CC=CC=C3OC4=C2C=C(C=C4)Cl

> <PUBCHEM_CACTVS_TPSA>
28.1

> <PUBCHEM_MONOISOTOPIC_WEIGHT>
327.11384

> <PUBCHEM_TOTAL_CHARGE>
0

> <PUBCHEM_HEAVY_ATOM_COUNT>
23

> <PUBCHEM_ATOM_DEF_STEREO_COUNT>
0

> <PUBCHEM_ATOM_UDEF_STEREO_COUNT>
0

> <PUBCHEM_BOND_DEF_STEREO_COUNT>
0

> <PUBCHEM_BOND_UDEF_STEREO_COUNT>
0

> <PUBCHEM_ISOTOPIC_ATOM_COUNT>
0

> <PUBCHEM_COMPONENT_COUNT>
1

> <PUBCHEM_CACTVS_TAUTO_COUNT>
1

> <PUBCHEM_COORDINATE_TYPE>
1
5
255

> <PUBCHEM_BONDANNOTATIONS>
12  13  8
12  15  8
13  17  8
14  16  8
14  20  8
15  18  8
16  21  8
17  19  8
18  19  8
20  22  8
21  23  8
22  23  8

$$$$

