583278
  -OEChem-06241222452D

 29 30  0     0  0  0  0  0  0999 V2000
    7.0468   -0.3988    0.0000 S   0  0  0  0  0  0  0  0  0  0  0  0
    6.1808    1.1012    0.0000 S   0  0  0  0  0  0  0  0  0  0  0  0
    3.4782   -1.3933    0.0000 O   0  0  0  0  0  0  0  0  0  0  0  0
    2.6691    0.0080    0.0000 O   0  0  0  0  0  0  0  0  0  0  0  0
    5.3147   -0.3988    0.0000 C   0  0  0  0  0  0  0  0  0  0  0  0
    4.4487    0.1012    0.0000 C   0  0  0  0  0  0  0  0  0  0  0  0
    6.1808    0.1012    0.0000 C   0  0  0  0  0  0  0  0  0  0  0  0
    3.5827   -0.3988    0.0000 C   0  0  0  0  0  0  0  0  0  0  0  0
    7.9128    1.1012    0.0000 C   0  0  0  0  0  0  0  0  0  0  0  0
    7.0468    1.6012    0.0000 C   0  0  0  0  0  0  0  0  0  0  0  0
    7.9128    0.1012    0.0000 C   0  0  0  0  0  0  0  0  0  0  0  0
    2.0000   -0.7352    0.0000 C   0  0  0  0  0  0  0  0  0  0  0  0
    2.5000   -1.6012    0.0000 C   0  0  0  0  0  0  0  0  0  0  0  0
    4.9162   -0.8737    0.0000 H   0  0  0  0  0  0  0  0  0  0  0  0
    5.7133   -0.8737    0.0000 H   0  0  0  0  0  0  0  0  0  0  0  0
    4.8472    0.5762    0.0000 H   0  0  0  0  0  0  0  0  0  0  0  0
    4.0502    0.5762    0.0000 H   0  0  0  0  0  0  0  0  0  0  0  0
    6.1808   -0.5188    0.0000 H   0  0  0  0  0  0  0  0  0  0  0  0
    4.1026   -0.7365    0.0000 H   0  0  0  0  0  0  0  0  0  0  0  0
    8.5234    0.9936    0.0000 H   0  0  0  0  0  0  0  0  0  0  0  0
    8.1249    1.6838    0.0000 H   0  0  0  0  0  0  0  0  0  0  0  0
    7.4453    2.0762    0.0000 H   0  0  0  0  0  0  0  0  0  0  0  0
    6.6482    2.0762    0.0000 H   0  0  0  0  0  0  0  0  0  0  0  0
    8.1249   -0.4814    0.0000 H   0  0  0  0  0  0  0  0  0  0  0  0
    8.5234    0.2089    0.0000 H   0  0  0  0  0  0  0  0  0  0  0  0
    1.5851   -0.2744    0.0000 H   0  0  0  0  0  0  0  0  0  0  0  0
    1.4984   -1.0996    0.0000 H   0  0  0  0  0  0  0  0  0  0  0  0
    1.9336   -1.8534    0.0000 H   0  0  0  0  0  0  0  0  0  0  0  0
    2.6916   -2.1909    0.0000 H   0  0  0  0  0  0  0  0  0  0  0  0
  1  7  1  0  0  0  0
  1 11  1  0  0  0  0
  2  7  1  0  0  0  0
  2 10  1  0  0  0  0
  3  8  1  0  0  0  0
  3 13  1  0  0  0  0
  4  8  1  0  0  0  0
  4 12  1  0  0  0  0
  5  6  1  0  0  0  0
  5  7  1  0  0  0  0
  5 14  1  0  0  0  0
  5 15  1  0  0  0  0
  6  8  1  0  0  0  0
  6 16  1  0  0  0  0
  6 17  1  0  0  0  0
  7 18  1  0  0  0  0
  8 19  1  0  0  0  0
  9 10  1  0  0  0  0
  9 11  1  0  0  0  0
  9 20  1  0  0  0  0
  9 21  1  0  0  0  0
 10 22  1  0  0  0  0
 10 23  1  0  0  0  0
 11 24  1  0  0  0  0
 11 25  1  0  0  0  0
 12 13  1  0  0  0  0
 12 26  1  0  0  0  0
 12 27  1  0  0  0  0
 13 28  1  0  0  0  0
 13 29  1  0  0  0  0
M  END
> <PUBCHEM_COMPOUND_CID>
583278

> <PUBCHEM_COMPOUND_CANONICALIZED>
1

> <PUBCHEM_CACTVS_COMPLEXITY>
143

> <PUBCHEM_CACTVS_HBOND_ACCEPTOR>
4

> <PUBCHEM_CACTVS_HBOND_DONOR>
0

> <PUBCHEM_CACTVS_ROTATABLE_BOND>
3

> <PUBCHEM_CACTVS_SUBSKEYS>
AAADceBwMABgAAAAAAAAAAAAAAAAASAAAAAkAAAAAAAAAAAAAAAAGgQAAAAACAC0wAOACAAABAgAAAAAAAAAAQAAABAAAAAAAAARAAAgAAAiAAAEAAAmAAAAAAAAAAAAAAAAAAAAAAAAAAAAAAAAAAAAAA==

> <PUBCHEM_IUPAC_OPENEYE_NAME>
2-[2-(1,3-dithian-2-yl)ethyl]-1,3-dioxolane

> <PUBCHEM_IUPAC_CAS_NAME>
2-[2-(1,3-dithian-2-yl)ethyl]-1,3-dioxolane

> <PUBCHEM_IUPAC_NAME>
2-[2-(1,3-dithian-2-yl)ethyl]-1,3-dioxolane

> <PUBCHEM_IUPAC_SYSTEMATIC_NAME>
2-[2-(1,3-dithian-2-yl)ethyl]-1,3-dioxolane

> <PUBCHEM_IUPAC_TRADITIONAL_NAME>
2-[2-(1,3-dithian-2-yl)ethyl]-1,3-dioxolane

> <PUBCHEM_IUPAC_INCHI>
InChI=1S/C9H16O2S2/c1-6-12-9(13-7-1)3-2-8-10-4-5-11-8/h8-9H,1-7H2

> <PUBCHEM_IUPAC_INCHIKEY>
FNUIPVRBHUAXPA-UHFFFAOYSA-N

> <PUBCHEM_XLOGP3_AA>
2.2

> <PUBCHEM_EXACT_MASS>
220.059172

> <PUBCHEM_MOLECULAR_FORMULA>
C9H16O2S2

> <PUBCHEM_MOLECULAR_WEIGHT>
220.35214

> <PUBCHEM_OPENEYE_CAN_SMILES>
C1CSC(SC1)CCC2OCCO2

> <PUBCHEM_OPENEYE_ISO_SMILES>
C1CSC(SC1)CCC2OCCO2

> <PUBCHEM_CACTVS_TPSA>
69.1

> <PUBCHEM_MONOISOTOPIC_WEIGHT>
220.059172

> <PUBCHEM_TOTAL_CHARGE>
0

> <PUBCHEM_HEAVY_ATOM_COUNT>
13

> <PUBCHEM_ATOM_DEF_STEREO_COUNT>
0

> <PUBCHEM_ATOM_UDEF_STEREO_COUNT>
0

> <PUBCHEM_BOND_DEF_STEREO_COUNT>
0

> <PUBCHEM_BOND_UDEF_STEREO_COUNT>
0

> <PUBCHEM_ISOTOPIC_ATOM_COUNT>
0

> <PUBCHEM_COMPONENT_COUNT>
1

> <PUBCHEM_CACTVS_TAUTO_COUNT>
1

> <PUBCHEM_COORDINATE_TYPE>
1
5
255

$$$$

