9391
  -OEChem-06261203402D

 37 36  0     1  0  0  0  0  0999 V2000
   10.2260    0.0000    0.0000 Na  0  3  0  0  0  0  0  0  0  0  0  0
    7.6280    3.5000    0.0000 O   0  0  0  0  0  0  0  0  0  0  0  0
   11.0921    3.5000    0.0000 O   0  0  0  0  0  0  0  0  0  0  0  0
    9.3600    0.5000    0.0000 O   0  5  0  0  0  0  0  0  0  0  0  0
    8.4940    2.0000    0.0000 N   0  0  0  0  0  0  0  0  0  0  0  0
   10.2260    2.0000    0.0000 N   0  0  0  0  0  0  0  0  0  0  0  0
    9.3600    3.5000    0.0000 C   0  0  3  0  0  0  0  0  0  0  0  0
    9.8600    4.3660    0.0000 C   0  0  3  0  0  0  0  0  0  0  0  0
    8.8600    4.3660    0.0000 C   0  0  0  0  0  0  0  0  0  0  0  0
    8.4940    3.0000    0.0000 C   0  0  0  0  0  0  0  0  0  0  0  0
   10.2260    3.0000    0.0000 C   0  0  0  0  0  0  0  0  0  0  0  0
   10.8600    4.3660    0.0000 C   0  0  0  0  0  0  0  0  0  0  0  0
    7.8600    4.3660    0.0000 C   0  0  0  0  0  0  0  0  0  0  0  0
    9.3600    5.2321    0.0000 C   0  0  0  0  0  0  0  0  0  0  0  0
    9.3600    1.5000    0.0000 C   0  0  0  0  0  0  0  0  0  0  0  0
    7.6280    1.5000    0.0000 C   0  0  0  0  0  0  0  0  0  0  0  0
    7.3600    5.2321    0.0000 C   0  0  0  0  0  0  0  0  0  0  0  0
    8.8600    6.0981    0.0000 C   0  0  0  0  0  0  0  0  0  0  0  0
    8.3600    6.9641    0.0000 C   0  0  0  0  0  0  0  0  0  0  0  0
    8.8600    7.8301    0.0000 C   0  0  0  0  0  0  0  0  0  0  0  0
   10.1700    3.8291    0.0000 H   0  0  0  0  0  0  0  0  0  0  0  0
    9.4426    4.5781    0.0000 H   0  0  0  0  0  0  0  0  0  0  0  0
    8.7523    4.9766    0.0000 H   0  0  0  0  0  0  0  0  0  0  0  0
   10.8600    3.7460    0.0000 H   0  0  0  0  0  0  0  0  0  0  0  0
   11.4800    4.3660    0.0000 H   0  0  0  0  0  0  0  0  0  0  0  0
   10.8600    4.9860    0.0000 H   0  0  0  0  0  0  0  0  0  0  0  0
    7.5500    3.8291    0.0000 H   0  0  0  0  0  0  0  0  0  0  0  0
    7.3180    2.0369    0.0000 H   0  0  0  0  0  0  0  0  0  0  0  0
    7.0910    1.1900    0.0000 H   0  0  0  0  0  0  0  0  0  0  0  0
    7.9380    0.9631    0.0000 H   0  0  0  0  0  0  0  0  0  0  0  0
    7.6700    5.7690    0.0000 H   0  0  0  0  0  0  0  0  0  0  0  0
    6.7400    5.2321    0.0000 H   0  0  0  0  0  0  0  0  0  0  0  0
    7.8851    7.3626    0.0000 H   0  0  0  0  0  0  0  0  0  0  0  0
    7.8851    6.5656    0.0000 H   0  0  0  0  0  0  0  0  0  0  0  0
    9.3969    7.5201    0.0000 H   0  0  0  0  0  0  0  0  0  0  0  0
    9.1700    8.3671    0.0000 H   0  0  0  0  0  0  0  0  0  0  0  0
    8.3231    8.1401    0.0000 H   0  0  0  0  0  0  0  0  0  0  0  0
  2 10  2  0  0  0  0
  3 11  2  0  0  0  0
  4 15  1  0  0  0  0
  5 10  1  0  0  0  0
  5 15  1  0  0  0  0
  5 16  1  0  0  0  0
  6 11  1  0  0  0  0
  6 15  2  0  0  0  0
  7  8  1  0  0  0  0
  7  9  1  0  0  0  0
  7 10  1  0  0  0  0
  7 11  1  0  0  0  0
  8 12  1  0  0  0  0
  8 14  1  0  0  0  0
  8 21  1  0  0  0  0
  9 13  1  0  0  0  0
  9 22  1  0  0  0  0
  9 23  1  0  0  0  0
 12 24  1  0  0  0  0
 12 25  1  0  0  0  0
 12 26  1  0  0  0  0
 13 17  2  0  0  0  0
 13 27  1  0  0  0  0
 14 18  3  0  0  0  0
 16 28  1  0  0  0  0
 16 29  1  0  0  0  0
 16 30  1  0  0  0  0
 17 31  1  0  0  0  0
 17 32  1  0  0  0  0
 18 19  1  0  0  0  0
 19 20  1  0  0  0  0
 19 33  1  0  0  0  0
 19 34  1  0  0  0  0
 20 35  1  0  0  0  0
 20 36  1  0  0  0  0
 20 37  1  0  0  0  0
M  CHG  2   1   1   4  -1
M  END
> <PUBCHEM_COMPOUND_CID>
9391

> <PUBCHEM_COMPOUND_CANONICALIZED>
1

> <PUBCHEM_CACTVS_COMPLEXITY>
509

> <PUBCHEM_CACTVS_HBOND_ACCEPTOR>
3

> <PUBCHEM_CACTVS_HBOND_DONOR>
0

> <PUBCHEM_CACTVS_ROTATABLE_BOND>
3

> <PUBCHEM_CACTVS_SUBSKEYS>
AAADceBzMCAAAAAAAAAAAAAAAAAAAAAAAAAgAAAAAAAAAAAAAAAAHgAAAAAADwCBgAQDAAMAAADoECFSNAgAAAEgAAAJAAEIAAgAABoIyQAEAAAAggAAAAAAAAAPgAAAAAAAAAAAAAAAAAAAAAAAAAAAAA==

> <PUBCHEM_IUPAC_OPENEYE_NAME>
sodium 5-allyl-1-methyl-5-(1-methylpent-2-ynyl)-4,6-dioxo-pyrimidin-2-olate

> <PUBCHEM_IUPAC_CAS_NAME>
sodium 5-hex-3-yn-2-yl-1-methyl-4,6-dioxo-5-prop-2-enyl-2-pyrimidinolate

> <PUBCHEM_IUPAC_NAME>
sodium 5-hex-3-yn-2-yl-1-methyl-4,6-dioxo-5-prop-2-enylpyrimidin-2-olate

> <PUBCHEM_IUPAC_SYSTEMATIC_NAME>
sodium 5-hex-3-yn-2-yl-1-methyl-4,6-bis(oxidanylidene)-5-prop-2-enyl-pyrimidin-2-olate

> <PUBCHEM_IUPAC_TRADITIONAL_NAME>
sodium 5-allyl-4,6-diketo-1-methyl-5-(1-methylpent-2-ynyl)pyrimidin-2-olate

> <PUBCHEM_IUPAC_INCHI>
InChI=1S/C14H18N2O3.Na/c1-5-7-8-10(3)14(9-6-2)11(17)15-13(19)16(4)12(14)18;/h6,10H,2,5,9H2,1,3-4H3,(H,15,17,19);/q;+1/p-1

> <PUBCHEM_IUPAC_INCHIKEY>
KDXZREBVGAGZHS-UHFFFAOYSA-M

> <PUBCHEM_EXACT_MASS>
284.113687

> <PUBCHEM_MOLECULAR_FORMULA>
C14H17N2NaO3

> <PUBCHEM_MOLECULAR_WEIGHT>
284.286149

> <PUBCHEM_OPENEYE_CAN_SMILES>
CCC#CC(C)C1(C(=O)N=C(N(C1=O)C)[O-])CC=C.[Na+]

> <PUBCHEM_OPENEYE_ISO_SMILES>
CCC#CC(C)C1(C(=O)N=C(N(C1=O)C)[O-])CC=C.[Na+]

> <PUBCHEM_CACTVS_TPSA>
72.8

> <PUBCHEM_MONOISOTOPIC_WEIGHT>
284.113687

> <PUBCHEM_TOTAL_CHARGE>
0

> <PUBCHEM_HEAVY_ATOM_COUNT>
20

> <PUBCHEM_ATOM_DEF_STEREO_COUNT>
0

> <PUBCHEM_ATOM_UDEF_STEREO_COUNT>
2

> <PUBCHEM_BOND_DEF_STEREO_COUNT>
0

> <PUBCHEM_BOND_UDEF_STEREO_COUNT>
0

> <PUBCHEM_ISOTOPIC_ATOM_COUNT>
0

> <PUBCHEM_COMPONENT_COUNT>
2

> <PUBCHEM_CACTVS_TAUTO_COUNT>
1

> <PUBCHEM_COORDINATE_TYPE>
1
5
255

> <PUBCHEM_BONDANNOTATIONS>
7  9  3
8  12  3

$$$$

