17395869
  -OEChem-06241222522D

 44 46  0     1  0  0  0  0  0999 V2000
    4.6783   -2.4422    0.0000 O   0  0  0  0  0  0  0  0  0  0  0  0
    7.6138   -0.2141    0.0000 O   0  0  0  0  0  0  0  0  0  0  0  0
    6.2619   -1.6375    0.0000 O   0  0  0  0  0  0  0  0  0  0  0  0
    9.5708    0.1984    0.0000 O   0  0  0  0  0  0  0  0  0  0  0  0
    5.9674    0.3240    0.0000 N   0  0  3  0  0  0  0  0  0  0  0  0
    4.6783   -0.8327    0.0000 N   0  0  0  0  0  0  0  0  0  0  0  0
    4.9889    0.1178    0.0000 C   0  0  0  0  0  0  0  0  0  0  0  0
    6.2781    1.2745    0.0000 C   0  0  0  0  0  0  0  0  0  0  0  0
    3.7320   -1.1375    0.0000 C   0  0  0  0  0  0  0  0  0  0  0  0
    7.2566    1.4807    0.0000 C   0  0  0  0  0  0  0  0  0  0  0  0
    3.7320   -2.1375    0.0000 C   0  0  0  0  0  0  0  0  0  0  0  0
    6.6353   -0.4203    0.0000 C   0  0  0  0  0  0  0  0  0  0  0  0
    5.2619   -1.6375    0.0000 C   0  0  0  0  0  0  0  0  0  0  0  0
    7.9244    0.7364    0.0000 C   0  0  0  0  0  0  0  0  0  0  0  0
    2.8660   -0.6375    0.0000 C   0  0  0  0  0  0  0  0  0  0  0  0
    7.5673    2.4313    0.0000 C   0  0  0  0  0  0  0  0  0  0  0  0
    2.8660   -2.6375    0.0000 C   0  0  0  0  0  0  0  0  0  0  0  0
    8.9030    0.9427    0.0000 C   0  0  0  0  0  0  0  0  0  0  0  0
    2.0000   -1.1375    0.0000 C   0  0  0  0  0  0  0  0  0  0  0  0
    8.5458    2.6375    0.0000 C   0  0  0  0  0  0  0  0  0  0  0  0
    2.0000   -2.1375    0.0000 C   0  0  0  0  0  0  0  0  0  0  0  0
    9.2136    1.8932    0.0000 C   0  0  0  0  0  0  0  0  0  0  0  0
    8.2816   -0.9584    0.0000 C   0  0  0  0  0  0  0  0  0  0  0  0
   10.5493    0.4046    0.0000 C   0  0  0  0  0  0  0  0  0  0  0  0
    4.9684    0.7374    0.0000 H   0  0  0  0  0  0  0  0  0  0  0  0
    4.3751    0.2051    0.0000 H   0  0  0  0  0  0  0  0  0  0  0  0
    6.2575    1.8942    0.0000 H   0  0  0  0  0  0  0  0  0  0  0  0
    5.6643    1.3619    0.0000 H   0  0  0  0  0  0  0  0  0  0  0  0
    6.1738   -0.8344    0.0000 H   0  0  0  0  0  0  0  0  0  0  0  0
    7.0494   -0.8818    0.0000 H   0  0  0  0  0  0  0  0  0  0  0  0
    7.0968   -0.0062    0.0000 H   0  0  0  0  0  0  0  0  0  0  0  0
    2.8660   -0.0175    0.0000 H   0  0  0  0  0  0  0  0  0  0  0  0
    7.1532    2.8927    0.0000 H   0  0  0  0  0  0  0  0  0  0  0  0
    2.8660   -3.2575    0.0000 H   0  0  0  0  0  0  0  0  0  0  0  0
    8.7384    3.2268    0.0000 H   0  0  0  0  0  0  0  0  0  0  0  0
    1.4631   -0.8275    0.0000 H   0  0  0  0  0  0  0  0  0  0  0  0
    9.8203    2.0210    0.0000 H   0  0  0  0  0  0  0  0  0  0  0  0
    1.4631   -2.4475    0.0000 H   0  0  0  0  0  0  0  0  0  0  0  0
    7.8202   -1.3724    0.0000 H   0  0  0  0  0  0  0  0  0  0  0  0
    8.6957   -1.4198    0.0000 H   0  0  0  0  0  0  0  0  0  0  0  0
    8.7431   -0.5443    0.0000 H   0  0  0  0  0  0  0  0  0  0  0  0
   10.6772   -0.2021    0.0000 H   0  0  0  0  0  0  0  0  0  0  0  0
   11.1560    0.5324    0.0000 H   0  0  0  0  0  0  0  0  0  0  0  0
   10.4215    1.0112    0.0000 H   0  0  0  0  0  0  0  0  0  0  0  0
  1 11  1  0  0  0  0
  1 13  1  0  0  0  0
  2 14  1  0  0  0  0
  2 23  1  0  0  0  0
  3 13  2  0  0  0  0
  4 18  1  0  0  0  0
  4 24  1  0  0  0  0
  5  7  1  0  0  0  0
  5  8  1  0  0  0  0
  5 12  1  0  0  0  0
  6  7  1  0  0  0  0
  6  9  1  0  0  0  0
  6 13  1  0  0  0  0
  7 25  1  0  0  0  0
  7 26  1  0  0  0  0
  8 10  1  0  0  0  0
  8 27  1  0  0  0  0
  8 28  1  0  0  0  0
  9 11  1  0  0  0  0
  9 15  2  0  0  0  0
 10 14  2  0  0  0  0
 10 16  1  0  0  0  0
 11 17  2  0  0  0  0
 12 29  1  0  0  0  0
 12 30  1  0  0  0  0
 12 31  1  0  0  0  0
 14 18  1  0  0  0  0
 15 19  1  0  0  0  0
 15 32  1  0  0  0  0
 16 20  2  0  0  0  0
 16 33  1  0  0  0  0
 17 21  1  0  0  0  0
 17 34  1  0  0  0  0
 18 22  2  0  0  0  0
 19 21  2  0  0  0  0
 19 36  1  0  0  0  0
 20 22  1  0  0  0  0
 20 35  1  0  0  0  0
 21 38  1  0  0  0  0
 22 37  1  0  0  0  0
 23 39  1  0  0  0  0
 23 40  1  0  0  0  0
 23 41  1  0  0  0  0
 24 42  1  0  0  0  0
 24 43  1  0  0  0  0
 24 44  1  0  0  0  0
M  END
> <PUBCHEM_COMPOUND_CID>
17395869

> <PUBCHEM_COMPOUND_CANONICALIZED>
1

> <PUBCHEM_CACTVS_COMPLEXITY>
433

> <PUBCHEM_CACTVS_HBOND_ACCEPTOR>
5

> <PUBCHEM_CACTVS_HBOND_DONOR>
0

> <PUBCHEM_CACTVS_ROTATABLE_BOND>
6

> <PUBCHEM_CACTVS_SUBSKEYS>
AAADceB7OAAAAAAAAAAAAAAAAAAAAWAAAAAwYAAAAAAAAFgBQAAAHgAAAAAADAzBmAYzzoMABACIAiRCWACCCAAhIgAIiAAP7IiPJiLEsZuNMipuxxNa6CewwDAOAAABAAAIUAAAAAIAABCgAAAAAAAAAA==

> <PUBCHEM_IUPAC_OPENEYE_NAME>
3-[[(2,3-dimethoxyphenyl)methyl-methyl-amino]methyl]-1,3-benzoxazol-2-one

> <PUBCHEM_IUPAC_CAS_NAME>
3-[[(2,3-dimethoxyphenyl)methyl-methylamino]methyl]-1,3-benzoxazol-2-one

> <PUBCHEM_IUPAC_NAME>
3-[[(2,3-dimethoxyphenyl)methyl-methylamino]methyl]-1,3-benzoxazol-2-one

> <PUBCHEM_IUPAC_SYSTEMATIC_NAME>
3-[[(2,3-dimethoxyphenyl)methyl-methyl-amino]methyl]-1,3-benzoxazol-2-one

> <PUBCHEM_IUPAC_TRADITIONAL_NAME>
3-[[methyl(o-veratryl)amino]methyl]-1,3-benzoxazol-2-one

> <PUBCHEM_IUPAC_INCHI>
InChI=1S/C18H20N2O4/c1-19(11-13-7-6-10-16(22-2)17(13)23-3)12-20-14-8-4-5-9-15(14)24-18(20)21/h4-10H,11-12H2,1-3H3

> <PUBCHEM_IUPAC_INCHIKEY>
HCALNPDZWIDHGF-UHFFFAOYSA-N

> <PUBCHEM_XLOGP3_AA>
2.9

> <PUBCHEM_EXACT_MASS>
328.142307

> <PUBCHEM_MOLECULAR_FORMULA>
C18H20N2O4

> <PUBCHEM_MOLECULAR_WEIGHT>
328.3624

> <PUBCHEM_OPENEYE_CAN_SMILES>
CN(CC1=C(C(=CC=C1)OC)OC)CN2C3=CC=CC=C3OC2=O

> <PUBCHEM_OPENEYE_ISO_SMILES>
CN(CC1=C(C(=CC=C1)OC)OC)CN2C3=CC=CC=C3OC2=O

> <PUBCHEM_CACTVS_TPSA>
51.2

> <PUBCHEM_MONOISOTOPIC_WEIGHT>
328.142307

> <PUBCHEM_TOTAL_CHARGE>
0

> <PUBCHEM_HEAVY_ATOM_COUNT>
24

> <PUBCHEM_ATOM_DEF_STEREO_COUNT>
0

> <PUBCHEM_ATOM_UDEF_STEREO_COUNT>
0

> <PUBCHEM_BOND_DEF_STEREO_COUNT>
0

> <PUBCHEM_BOND_UDEF_STEREO_COUNT>
0

> <PUBCHEM_ISOTOPIC_ATOM_COUNT>
0

> <PUBCHEM_COMPONENT_COUNT>
1

> <PUBCHEM_CACTVS_TAUTO_COUNT>
1

> <PUBCHEM_COORDINATE_TYPE>
1
5
255

> <PUBCHEM_BONDANNOTATIONS>
1  11  8
1  13  8
10  14  8
10  16  8
11  17  8
14  18  8
15  19  8
16  20  8
17  21  8
18  22  8
19  21  8
20  22  8
6  13  8
6  9  8
9  11  8
9  15  8

$$$$

