4172
  -OEChem-06251223562D

 54 54  0     1  0  0  0  0  0999 V2000
    2.8660   -1.5600    0.0000 I   0  0  0  0  0  0  0  0  0  0  0  0
    6.3301   -1.5600    0.0000 I   0  0  0  0  0  0  0  0  0  0  0  0
    4.5981   -4.5600    0.0000 I   0  0  0  0  0  0  0  0  0  0  0  0
    7.1962    0.9400    0.0000 O   0  0  0  0  0  0  0  0  0  0  0  0
    5.4641    2.9400    0.0000 O   0  0  0  0  0  0  0  0  0  0  0  0
    8.0622    2.4400    0.0000 O   0  0  0  0  0  0  0  0  0  0  0  0
    8.0622    4.4400    0.0000 O   0  0  0  0  0  0  0  0  0  0  0  0
    4.5981    2.4400    0.0000 O   0  0  0  0  0  0  0  0  0  0  0  0
    3.7320   -0.0600    0.0000 O   0  0  0  0  0  0  0  0  0  0  0  0
    3.7320   -5.0600    0.0000 O   0  0  0  0  0  0  0  0  0  0  0  0
    5.4641   -5.0600    0.0000 O   0  0  0  0  0  0  0  0  0  0  0  0
    5.4641   -0.0600    0.0000 N   0  0  0  0  0  0  0  0  0  0  0  0
    2.8660   -3.5600    0.0000 N   0  0  0  0  0  0  0  0  0  0  0  0
    6.3301   -3.5600    0.0000 N   0  0  0  0  0  0  0  0  0  0  0  0
    6.3301    1.4400    0.0000 C   0  0  3  0  0  0  0  0  0  0  0  0
    6.3301    2.4400    0.0000 C   0  0  3  0  0  0  0  0  0  0  0  0
    5.4641    0.9400    0.0000 C   0  0  3  0  0  0  0  0  0  0  0  0
    7.1962    2.9400    0.0000 C   0  0  3  0  0  0  0  0  0  0  0  0
    7.1962    3.9400    0.0000 C   0  0  0  0  0  0  0  0  0  0  0  0
    4.5981    1.4400    0.0000 C   0  0  0  0  0  0  0  0  0  0  0  0
    4.5981   -0.5600    0.0000 C   0  0  0  0  0  0  0  0  0  0  0  0
    4.5981   -1.5600    0.0000 C   0  0  0  0  0  0  0  0  0  0  0  0
    3.7320   -2.0600    0.0000 C   0  0  0  0  0  0  0  0  0  0  0  0
    3.7320   -3.0600    0.0000 C   0  0  0  0  0  0  0  0  0  0  0  0
    5.4641   -2.0600    0.0000 C   0  0  0  0  0  0  0  0  0  0  0  0
    5.4641   -3.0600    0.0000 C   0  0  0  0  0  0  0  0  0  0  0  0
    4.5981   -3.5600    0.0000 C   0  0  0  0  0  0  0  0  0  0  0  0
    2.0000   -3.0600    0.0000 C   0  0  0  0  0  0  0  0  0  0  0  0
    2.8660   -4.5600    0.0000 C   0  0  0  0  0  0  0  0  0  0  0  0
    6.3301   -4.5600    0.0000 C   0  0  0  0  0  0  0  0  0  0  0  0
    2.0000   -5.0600    0.0000 C   0  0  0  0  0  0  0  0  0  0  0  0
    7.1962   -5.0600    0.0000 C   0  0  0  0  0  0  0  0  0  0  0  0
    6.8671    1.7500    0.0000 H   0  0  0  0  0  0  0  0  0  0  0  0
    5.7932    2.1300    0.0000 H   0  0  0  0  0  0  0  0  0  0  0  0
    6.0010    0.6300    0.0000 H   0  0  0  0  0  0  0  0  0  0  0  0
    7.7331    3.2500    0.0000 H   0  0  0  0  0  0  0  0  0  0  0  0
    6.0010   -0.3700    0.0000 H   0  0  0  0  0  0  0  0  0  0  0  0
    6.9841    4.5226    0.0000 H   0  0  0  0  0  0  0  0  0  0  0  0
    6.5856    3.8323    0.0000 H   0  0  0  0  0  0  0  0  0  0  0  0
    4.0611    1.1300    0.0000 H   0  0  0  0  0  0  0  0  0  0  0  0
    7.7331    1.2500    0.0000 H   0  0  0  0  0  0  0  0  0  0  0  0
    5.4641    3.5600    0.0000 H   0  0  0  0  0  0  0  0  0  0  0  0
    8.5991    2.7500    0.0000 H   0  0  0  0  0  0  0  0  0  0  0  0
    8.0622    5.0600    0.0000 H   0  0  0  0  0  0  0  0  0  0  0  0
    6.8671   -3.2500    0.0000 H   0  0  0  0  0  0  0  0  0  0  0  0
    2.3100   -2.5231    0.0000 H   0  0  0  0  0  0  0  0  0  0  0  0
    1.4631   -2.7500    0.0000 H   0  0  0  0  0  0  0  0  0  0  0  0
    1.6900   -3.5969    0.0000 H   0  0  0  0  0  0  0  0  0  0  0  0
    1.6900   -4.5231    0.0000 H   0  0  0  0  0  0  0  0  0  0  0  0
    1.4631   -5.3700    0.0000 H   0  0  0  0  0  0  0  0  0  0  0  0
    2.3100   -5.5969    0.0000 H   0  0  0  0  0  0  0  0  0  0  0  0
    6.8862   -5.5969    0.0000 H   0  0  0  0  0  0  0  0  0  0  0  0
    7.7331   -5.3700    0.0000 H   0  0  0  0  0  0  0  0  0  0  0  0
    7.5062   -4.5231    0.0000 H   0  0  0  0  0  0  0  0  0  0  0  0
  1 23  1  0  0  0  0
  2 25  1  0  0  0  0
  3 27  1  0  0  0  0
  4 15  1  0  0  0  0
  4 41  1  0  0  0  0
  5 16  1  0  0  0  0
  5 42  1  0  0  0  0
  6 18  1  0  0  0  0
  6 43  1  0  0  0  0
  7 19  1  0  0  0  0
  7 44  1  0  0  0  0
  8 20  2  0  0  0  0
  9 21  2  0  0  0  0
 10 29  2  0  0  0  0
 11 30  2  0  0  0  0
 12 17  1  0  0  0  0
 12 21  1  0  0  0  0
 12 37  1  0  0  0  0
 13 24  1  0  0  0  0
 13 28  1  0  0  0  0
 13 29  1  0  0  0  0
 14 26  1  0  0  0  0
 14 30  1  0  0  0  0
 14 45  1  0  0  0  0
 15 16  1  0  0  0  0
 15 17  1  0  0  0  0
 15 33  1  0  0  0  0
 16 18  1  0  0  0  0
 16 34  1  0  0  0  0
 17 20  1  0  0  0  0
 17 35  1  0  0  0  0
 18 19  1  0  0  0  0
 18 36  1  0  0  0  0
 19 38  1  0  0  0  0
 19 39  1  0  0  0  0
 20 40  1  0  0  0  0
 21 22  1  0  0  0  0
 22 23  1  0  0  0  0
 22 25  2  0  0  0  0
 23 24  2  0  0  0  0
 24 27  1  0  0  0  0
 25 26  1  0  0  0  0
 26 27  2  0  0  0  0
 28 46  1  0  0  0  0
 28 47  1  0  0  0  0
 28 48  1  0  0  0  0
 29 31  1  0  0  0  0
 30 32  1  0  0  0  0
 31 49  1  0  0  0  0
 31 50  1  0  0  0  0
 31 51  1  0  0  0  0
 32 52  1  0  0  0  0
 32 53  1  0  0  0  0
 32 54  1  0  0  0  0
M  END
> <PUBCHEM_COMPOUND_CID>
4172

> <PUBCHEM_COMPOUND_CANONICALIZED>
1

> <PUBCHEM_CACTVS_COMPLEXITY>
702

> <PUBCHEM_CACTVS_HBOND_ACCEPTOR>
8

> <PUBCHEM_CACTVS_HBOND_DONOR>
6

> <PUBCHEM_CACTVS_ROTATABLE_BOND>
9

> <PUBCHEM_CACTVS_SUBSKEYS>
AAADceB7PAAAAwAAAAAAAAAAAAAAAAAAAAAwAAAAAAAAAAABAAAAHgAwCAAADDzjmAYCwIPAAgCIAg1Q0ACCAAAlAAAAiIGIRMgLMDbA1PGEYQhntgDZyQf+3APOAAAAQAQAAAAAAACACAAAAAAAAAAAAA==

> <PUBCHEM_IUPAC_OPENEYE_NAME>
3-acetamido-5-[acetyl(methyl)amino]-N-(1-formyl-2,3,4,5-tetrahydroxy-pentyl)-2,4,6-triiodo-benzamide

> <PUBCHEM_IUPAC_CAS_NAME>
3-acetamido-5-[acetyl(methyl)amino]-2,4,6-triiodo-N-(3,4,5,6-tetrahydroxy-1-oxohexan-2-yl)benzamide

> <PUBCHEM_IUPAC_NAME>
3-acetamido-5-[acetyl(methyl)amino]-2,4,6-triiodo-N-(3,4,5,6-tetrahydroxy-1-oxohexan-2-yl)benzamide

> <PUBCHEM_IUPAC_SYSTEMATIC_NAME>
3-acetamido-5-[ethanoyl(methyl)amino]-2,4,6-tris(iodanyl)-N-[3,4,5,6-tetrakis(oxidanyl)-1-oxidanylidene-hexan-2-yl]benzamide

> <PUBCHEM_IUPAC_TRADITIONAL_NAME>
3-acetamido-5-[acetyl(methyl)amino]-N-(1-formyl-2,3,4,5-tetrahydroxy-pentyl)-2,4,6-triiodo-benzamide

> <PUBCHEM_IUPAC_INCHI>
InChI=1S/C18H22I3N3O8/c1-6(27)22-14-11(19)10(12(20)15(13(14)21)24(3)7(2)28)18(32)23-8(4-25)16(30)17(31)9(29)5-26/h4,8-9,16-17,26,29-31H,5H2,1-3H3,(H,22,27)(H,23,32)

> <PUBCHEM_IUPAC_INCHIKEY>
DTZMSDADRKLCQE-UHFFFAOYSA-N

> <PUBCHEM_XLOGP3>
-1.9

> <PUBCHEM_EXACT_MASS>
788.854109

> <PUBCHEM_MOLECULAR_FORMULA>
C18H22I3N3O8

> <PUBCHEM_MOLECULAR_WEIGHT>
789.09599

> <PUBCHEM_OPENEYE_CAN_SMILES>
CC(=O)NC1=C(C(=C(C(=C1I)C(=O)NC(C=O)C(C(C(CO)O)O)O)I)N(C)C(=O)C)I

> <PUBCHEM_OPENEYE_ISO_SMILES>
CC(=O)NC1=C(C(=C(C(=C1I)C(=O)NC(C=O)C(C(C(CO)O)O)O)I)N(C)C(=O)C)I

> <PUBCHEM_CACTVS_TPSA>
177

> <PUBCHEM_MONOISOTOPIC_WEIGHT>
788.854109

> <PUBCHEM_TOTAL_CHARGE>
0

> <PUBCHEM_HEAVY_ATOM_COUNT>
32

> <PUBCHEM_ATOM_DEF_STEREO_COUNT>
0

> <PUBCHEM_ATOM_UDEF_STEREO_COUNT>
4

> <PUBCHEM_BOND_DEF_STEREO_COUNT>
0

> <PUBCHEM_BOND_UDEF_STEREO_COUNT>
0

> <PUBCHEM_ISOTOPIC_ATOM_COUNT>
0

> <PUBCHEM_COMPONENT_COUNT>
1

> <PUBCHEM_CACTVS_TAUTO_COUNT>
12

> <PUBCHEM_COORDINATE_TYPE>
1
5
255

> <PUBCHEM_BONDANNOTATIONS>
17  20  3
22  23  8
22  25  8
23  24  8
24  27  8
25  26  8
26  27  8
15  4  3
16  5  3
18  6  3

$$$$

