12625
  -OEChem-06261207102D

 11 10  0     1  0  0  0  0  0999 V2000
    2.0000    0.0670    0.0000 Br  0  0  0  0  0  0  0  0  0  0  0  0
    2.8660   -1.4330    0.0000 Cl  0  0  0  0  0  0  0  0  0  0  0  0
    3.2320    0.9330    0.0000 F   0  0  0  0  0  0  0  0  0  0  0  0
    4.2320   -0.7990    0.0000 F   0  0  0  0  0  0  0  0  0  0  0  0
    5.4641    1.0670    0.0000 F   0  0  0  0  0  0  0  0  0  0  0  0
    4.0981    1.4330    0.0000 F   0  0  0  0  0  0  0  0  0  0  0  0
    5.0981   -0.2990    0.0000 F   0  0  0  0  0  0  0  0  0  0  0  0
    3.7320    0.0670    0.0000 C   0  0  0  0  0  0  0  0  0  0  0  0
    4.5981    0.5670    0.0000 C   0  0  0  0  0  0  0  0  0  0  0  0
    2.8660   -0.4330    0.0000 C   0  0  3  0  0  0  0  0  0  0  0  0
    2.8660    0.4170    0.0000 H   0  0  0  0  0  0  0  0  0  0  0  0
  1 10  1  0  0  0  0
  2 10  1  0  0  0  0
  3  8  1  0  0  0  0
  4  8  1  0  0  0  0
  5  9  1  0  0  0  0
  6  9  1  0  0  0  0
  7  9  1  0  0  0  0
  8  9  1  0  0  0  0
  8 10  1  0  0  0  0
 10 11  1  0  0  0  0
M  END
> <PUBCHEM_COMPOUND_CID>
12625

> <PUBCHEM_COMPOUND_CANONICALIZED>
1

> <PUBCHEM_CACTVS_COMPLEXITY>
121

> <PUBCHEM_CACTVS_HBOND_ACCEPTOR>
5

> <PUBCHEM_CACTVS_HBOND_DONOR>
0

> <PUBCHEM_CACTVS_ROTATABLE_BOND>
1

> <PUBCHEM_CACTVS_SUBSKEYS>
AAADcQBAAcAEEAAAAAAAAAAAAAAAAAAAAAAAAAAAAAAAAAAAAAAAGQJAAAABSAOAAFAAAAAAAAAAAAAAAAAAAAAAAAAAAAAAAiAAAAAAAAAAAAAAAAAAAAAAAAAAAAAAAAAAAAAAAAAAAAAAAAAAAAAAAA==

> <PUBCHEM_IUPAC_OPENEYE_NAME>
3-bromo-3-chloro-1,1,1,2,2-pentafluoro-propane

> <PUBCHEM_IUPAC_CAS_NAME>
3-bromo-3-chloro-1,1,1,2,2-pentafluoropropane

> <PUBCHEM_IUPAC_NAME>
3-bromo-3-chloro-1,1,1,2,2-pentafluoropropane

> <PUBCHEM_IUPAC_SYSTEMATIC_NAME>
3-bromanyl-3-chloranyl-1,1,1,2,2-pentakis(fluoranyl)propane

> <PUBCHEM_IUPAC_TRADITIONAL_NAME>
3-bromo-3-chloro-1,1,1,2,2-pentafluoro-propane

> <PUBCHEM_IUPAC_INCHI>
InChI=1S/C3HBrClF5/c4-1(5)2(6,7)3(8,9)10/h1H

> <PUBCHEM_IUPAC_INCHIKEY>
ZFKAUFCFYCSMJK-UHFFFAOYSA-N

> <PUBCHEM_XLOGP3_AA>
3.5

> <PUBCHEM_EXACT_MASS>
245.887031

> <PUBCHEM_MOLECULAR_FORMULA>
C3HBrClF5

> <PUBCHEM_MOLECULAR_WEIGHT>
247.389056

> <PUBCHEM_OPENEYE_CAN_SMILES>
C(C(C(F)(F)F)(F)F)(Cl)Br

> <PUBCHEM_OPENEYE_ISO_SMILES>
C(C(C(F)(F)F)(F)F)(Cl)Br

> <PUBCHEM_CACTVS_TPSA>
0

> <PUBCHEM_MONOISOTOPIC_WEIGHT>
245.887031

> <PUBCHEM_TOTAL_CHARGE>
0

> <PUBCHEM_HEAVY_ATOM_COUNT>
10

> <PUBCHEM_ATOM_DEF_STEREO_COUNT>
0

> <PUBCHEM_ATOM_UDEF_STEREO_COUNT>
1

> <PUBCHEM_BOND_DEF_STEREO_COUNT>
0

> <PUBCHEM_BOND_UDEF_STEREO_COUNT>
0

> <PUBCHEM_ISOTOPIC_ATOM_COUNT>
0

> <PUBCHEM_COMPONENT_COUNT>
1

> <PUBCHEM_CACTVS_TAUTO_COUNT>
1

> <PUBCHEM_COORDINATE_TYPE>
1
5
255

> <PUBCHEM_BONDANNOTATIONS>
10  11  3

$$$$

