8352
  -OEChem-06261202452D

 21 22  0     0  0  0  0  0  0999 V2000
    2.5369    0.0427    0.0000 O   0  0  0  0  0  0  0  0  0  0  0  0
    3.4030   -1.4573    0.0000 O   0  0  0  0  0  0  0  0  0  0  0  0
    5.1350   -1.4573    0.0000 O   0  0  0  0  0  0  0  0  0  0  0  0
    4.2690    2.0427    0.0000 N   0  0  0  0  0  0  0  0  0  0  0  0
    5.1350    0.5427    0.0000 C   0  0  0  0  0  0  0  0  0  0  0  0
    5.1350    1.5427    0.0000 C   0  0  0  0  0  0  0  0  0  0  0  0
    4.2690    0.0427    0.0000 C   0  0  0  0  0  0  0  0  0  0  0  0
    6.0290    0.0080    0.0000 C   0  0  0  0  0  0  0  0  0  0  0  0
    3.4030    0.5427    0.0000 C   0  0  0  0  0  0  0  0  0  0  0  0
    6.0290    2.0773    0.0000 C   0  0  0  0  0  0  0  0  0  0  0  0
    6.9350    0.5219    0.0000 C   0  0  0  0  0  0  0  0  0  0  0  0
    3.4030    1.5427    0.0000 C   0  0  0  0  0  0  0  0  0  0  0  0
    6.9350    1.5635    0.0000 C   0  0  0  0  0  0  0  0  0  0  0  0
    4.2690   -0.9573    0.0000 C   0  0  0  0  0  0  0  0  0  0  0  0
    6.0218   -0.6120    0.0000 H   0  0  0  0  0  0  0  0  0  0  0  0
    6.0218    2.6973    0.0000 H   0  0  0  0  0  0  0  0  0  0  0  0
    2.8660    1.8527    0.0000 H   0  0  0  0  0  0  0  0  0  0  0  0
    7.4708    0.2098    0.0000 H   0  0  0  0  0  0  0  0  0  0  0  0
    7.4708    1.8756    0.0000 H   0  0  0  0  0  0  0  0  0  0  0  0
    2.0000    0.3527    0.0000 H   0  0  0  0  0  0  0  0  0  0  0  0
    3.4030   -2.0773    0.0000 H   0  0  0  0  0  0  0  0  0  0  0  0
  1  9  1  0  0  0  0
  1 20  1  0  0  0  0
  2 14  1  0  0  0  0
  2 21  1  0  0  0  0
  3 14  2  0  0  0  0
  4  6  1  0  0  0  0
  4 12  2  0  0  0  0
  5  6  1  0  0  0  0
  5  7  1  0  0  0  0
  5  8  2  0  0  0  0
  6 10  2  0  0  0  0
  7  9  2  0  0  0  0
  7 14  1  0  0  0  0
  8 11  1  0  0  0  0
  8 15  1  0  0  0  0
  9 12  1  0  0  0  0
 10 13  1  0  0  0  0
 10 16  1  0  0  0  0
 11 13  2  0  0  0  0
 11 18  1  0  0  0  0
 12 17  1  0  0  0  0
 13 19  1  0  0  0  0
M  END
> <PUBCHEM_COMPOUND_CID>
8352

> <PUBCHEM_COMPOUND_CANONICALIZED>
1

> <PUBCHEM_CACTVS_COMPLEXITY>
231

> <PUBCHEM_CACTVS_HBOND_ACCEPTOR>
4

> <PUBCHEM_CACTVS_HBOND_DONOR>
2

> <PUBCHEM_CACTVS_ROTATABLE_BOND>
1

> <PUBCHEM_CACTVS_SUBSKEYS>
AAADcYByMAAAAAAAAAAAAAAAAAAAAAAAAAA8QAAAAAAAAACx8AAAHgAACAAADAzBngQ8zvIIEgCoAzT3TASCgCA1YiAI2CE/bNgKJ/bSlZOEcUhl4BHY2Qe8yOCOgAAAAAACAAAAAAAAAAQAAAAAAAAAAA==

> <PUBCHEM_IUPAC_OPENEYE_NAME>
3-hydroxyquinoline-4-carboxylic acid

> <PUBCHEM_IUPAC_CAS_NAME>
3-hydroxy-4-quinolinecarboxylic acid

> <PUBCHEM_IUPAC_NAME>
3-hydroxyquinoline-4-carboxylic acid

> <PUBCHEM_IUPAC_SYSTEMATIC_NAME>
3-oxidanylquinoline-4-carboxylic acid

> <PUBCHEM_IUPAC_TRADITIONAL_NAME>
3-hydroxycinchoninic acid

> <PUBCHEM_IUPAC_INCHI>
InChI=1S/C10H7NO3/c12-8-5-11-7-4-2-1-3-6(7)9(8)10(13)14/h1-5,12H,(H,13,14)

> <PUBCHEM_IUPAC_INCHIKEY>
MXNVEJDRXSFZQB-UHFFFAOYSA-N

> <PUBCHEM_XLOGP3_AA>
1.9

> <PUBCHEM_EXACT_MASS>
189.042593

> <PUBCHEM_MOLECULAR_FORMULA>
C10H7NO3

> <PUBCHEM_MOLECULAR_WEIGHT>
189.16748

> <PUBCHEM_OPENEYE_CAN_SMILES>
C1=CC=C2C(=C1)C(=C(C=N2)O)C(=O)O

> <PUBCHEM_OPENEYE_ISO_SMILES>
C1=CC=C2C(=C1)C(=C(C=N2)O)C(=O)O

> <PUBCHEM_CACTVS_TPSA>
70.4

> <PUBCHEM_MONOISOTOPIC_WEIGHT>
189.042593

> <PUBCHEM_TOTAL_CHARGE>
0

> <PUBCHEM_HEAVY_ATOM_COUNT>
14

> <PUBCHEM_ATOM_DEF_STEREO_COUNT>
0

> <PUBCHEM_ATOM_UDEF_STEREO_COUNT>
0

> <PUBCHEM_BOND_DEF_STEREO_COUNT>
0

> <PUBCHEM_BOND_UDEF_STEREO_COUNT>
0

> <PUBCHEM_ISOTOPIC_ATOM_COUNT>
0

> <PUBCHEM_COMPONENT_COUNT>
1

> <PUBCHEM_CACTVS_TAUTO_COUNT>
4

> <PUBCHEM_COORDINATE_TYPE>
1
5
255

> <PUBCHEM_BONDANNOTATIONS>
10  13  8
11  13  8
4  12  8
4  6  8
5  6  8
5  7  8
5  8  8
6  10  8
7  9  8
8  11  8
9  12  8

$$$$

