7846985
  -OEChem-06241222482D

 47 49  0     1  0  0  0  0  0999 V2000
    4.6783    3.7688    0.0000 S   0  0  0  0  0  0  0  0  0  0  0  0
    8.2619    1.2320    0.0000 O   0  0  0  0  0  0  0  0  0  0  0  0
    8.2619    2.9641    0.0000 O   0  0  0  0  0  0  0  0  0  0  0  0
    9.2619   -0.5000    0.0000 O   0  0  0  0  0  0  0  0  0  0  0  0
   12.2619   -3.9641    0.0000 O   0  0  0  0  0  0  0  0  0  0  0  0
    4.6783    2.1594    0.0000 N   0  0  0  0  0  0  0  0  0  0  0  0
   10.7619    0.3660    0.0000 N   0  0  0  0  0  0  0  0  0  0  0  0
   13.7619   -3.0981    0.0000 N   0  0  0  0  0  0  0  0  0  0  0  0
    6.2619    2.9641    0.0000 C   0  0  0  0  0  0  0  0  0  0  0  0
    6.7619    2.0981    0.0000 C   0  0  0  0  0  0  0  0  0  0  0  0
    5.2619    2.9641    0.0000 C   0  0  0  0  0  0  0  0  0  0  0  0
    9.2619    1.2320    0.0000 C   0  0  2  0  0  0  0  0  0  0  0  0
    3.7320    3.4641    0.0000 C   0  0  0  0  0  0  0  0  0  0  0  0
    3.7320    2.4641    0.0000 C   0  0  0  0  0  0  0  0  0  0  0  0
    7.7619    2.0981    0.0000 C   0  0  0  0  0  0  0  0  0  0  0  0
    9.7619    0.3660    0.0000 C   0  0  0  0  0  0  0  0  0  0  0  0
    9.7619    2.0981    0.0000 C   0  0  0  0  0  0  0  0  0  0  0  0
   11.2619   -0.5000    0.0000 C   0  0  0  0  0  0  0  0  0  0  0  0
    2.8660    3.9641    0.0000 C   0  0  0  0  0  0  0  0  0  0  0  0
    2.8660    1.9641    0.0000 C   0  0  0  0  0  0  0  0  0  0  0  0
    2.0000    3.4641    0.0000 C   0  0  0  0  0  0  0  0  0  0  0  0
    2.0000    2.4641    0.0000 C   0  0  0  0  0  0  0  0  0  0  0  0
   10.7619   -1.3660    0.0000 C   0  0  0  0  0  0  0  0  0  0  0  0
   12.2619   -0.5000    0.0000 C   0  0  0  0  0  0  0  0  0  0  0  0
   12.2619   -2.2320    0.0000 C   0  0  0  0  0  0  0  0  0  0  0  0
   11.2619   -2.2320    0.0000 C   0  0  0  0  0  0  0  0  0  0  0  0
   12.7619   -1.3660    0.0000 C   0  0  0  0  0  0  0  0  0  0  0  0
   12.7619   -3.0981    0.0000 C   0  0  0  0  0  0  0  0  0  0  0  0
    6.8445    3.1761    0.0000 H   0  0  0  0  0  0  0  0  0  0  0  0
    6.1542    3.5747    0.0000 H   0  0  0  0  0  0  0  0  0  0  0  0
    6.1793    1.8860    0.0000 H   0  0  0  0  0  0  0  0  0  0  0  0
    6.8695    1.4875    0.0000 H   0  0  0  0  0  0  0  0  0  0  0  0
    8.9519    1.7690    0.0000 H   0  0  0  0  0  0  0  0  0  0  0  0
   10.2988    1.7881    0.0000 H   0  0  0  0  0  0  0  0  0  0  0  0
   10.0719    2.6350    0.0000 H   0  0  0  0  0  0  0  0  0  0  0  0
    9.2249    2.4081    0.0000 H   0  0  0  0  0  0  0  0  0  0  0  0
   11.0719    0.9030    0.0000 H   0  0  0  0  0  0  0  0  0  0  0  0
    2.8660    4.5841    0.0000 H   0  0  0  0  0  0  0  0  0  0  0  0
    2.8660    1.3441    0.0000 H   0  0  0  0  0  0  0  0  0  0  0  0
    1.4631    3.7741    0.0000 H   0  0  0  0  0  0  0  0  0  0  0  0
    1.4631    2.1541    0.0000 H   0  0  0  0  0  0  0  0  0  0  0  0
   10.1419   -1.3660    0.0000 H   0  0  0  0  0  0  0  0  0  0  0  0
   12.5719    0.0369    0.0000 H   0  0  0  0  0  0  0  0  0  0  0  0
   10.9519   -2.7690    0.0000 H   0  0  0  0  0  0  0  0  0  0  0  0
   13.3819   -1.3660    0.0000 H   0  0  0  0  0  0  0  0  0  0  0  0
   14.0719   -3.6350    0.0000 H   0  0  0  0  0  0  0  0  0  0  0  0
   14.0719   -2.5611    0.0000 H   0  0  0  0  0  0  0  0  0  0  0  0
  1 11  1  0  0  0  0
  1 13  1  0  0  0  0
 12  2  1  1  0  0  0
  2 15  1  0  0  0  0
  3 15  2  0  0  0  0
  4 16  2  0  0  0  0
  5 28  2  0  0  0  0
  6 11  2  0  0  0  0
  6 14  1  0  0  0  0
  7 16  1  0  0  0  0
  7 18  1  0  0  0  0
  7 37  1  0  0  0  0
  8 28  1  0  0  0  0
  8 46  1  0  0  0  0
  8 47  1  0  0  0  0
  9 10  1  0  0  0  0
  9 11  1  0  0  0  0
  9 29  1  0  0  0  0
  9 30  1  0  0  0  0
 10 15  1  0  0  0  0
 10 31  1  0  0  0  0
 10 32  1  0  0  0  0
 12 16  1  0  0  0  0
 12 17  1  0  0  0  0
 12 33  1  0  0  0  0
 13 14  1  0  0  0  0
 13 19  2  0  0  0  0
 14 20  2  0  0  0  0
 17 34  1  0  0  0  0
 17 35  1  0  0  0  0
 17 36  1  0  0  0  0
 18 23  2  0  0  0  0
 18 24  1  0  0  0  0
 19 21  1  0  0  0  0
 19 38  1  0  0  0  0
 20 22  1  0  0  0  0
 20 39  1  0  0  0  0
 21 22  2  0  0  0  0
 21 40  1  0  0  0  0
 22 41  1  0  0  0  0
 23 26  1  0  0  0  0
 23 42  1  0  0  0  0
 24 27  2  0  0  0  0
 24 43  1  0  0  0  0
 25 26  2  0  0  0  0
 25 27  1  0  0  0  0
 25 28  1  0  0  0  0
 26 44  1  0  0  0  0
 27 45  1  0  0  0  0
M  END
> <PUBCHEM_COMPOUND_CID>
7846985

> <PUBCHEM_COMPOUND_CANONICALIZED>
1

> <PUBCHEM_CACTVS_COMPLEXITY>
580

> <PUBCHEM_CACTVS_HBOND_ACCEPTOR>
6

> <PUBCHEM_CACTVS_HBOND_DONOR>
2

> <PUBCHEM_CACTVS_ROTATABLE_BOND>
8

> <PUBCHEM_CACTVS_SUBSKEYS>
AAADceB7OABAAAAAAAAAAAAAAAAAAWAAAAAwYAAAAAAAAFgB9AAAHgQQAAAADByh3gIyybLIFAisAyXyXAKD8KBlCjhImD1wZNgKILLglZWHIQhklAD4yYc8iQCeCAAAAAAAAQAQAAAAAAACAAAAAAAAAA==

> <PUBCHEM_IUPAC_OPENEYE_NAME>
[(1S)-2-(4-carbamoylanilino)-1-methyl-2-oxo-ethyl] 3-(1,3-benzothiazol-2-yl)propanoate

> <PUBCHEM_IUPAC_CAS_NAME>
3-(1,3-benzothiazol-2-yl)propanoic acid [(2S)-1-(4-carbamoylanilino)-1-oxopropan-2-yl] ester

> <PUBCHEM_IUPAC_NAME>
[(2S)-1-(4-carbamoylanilino)-1-oxopropan-2-yl] 3-(1,3-benzothiazol-2-yl)propanoate

> <PUBCHEM_IUPAC_SYSTEMATIC_NAME>
[(2S)-1-[(4-aminocarbonylphenyl)amino]-1-oxidanylidene-propan-2-yl] 3-(1,3-benzothiazol-2-yl)propanoate

> <PUBCHEM_IUPAC_TRADITIONAL_NAME>
3-(1,3-benzothiazol-2-yl)propionic acid [(1S)-2-(4-carbamoylanilino)-2-keto-1-methyl-ethyl] ester

> <PUBCHEM_IUPAC_INCHI>
InChI=1S/C20H19N3O4S/c1-12(20(26)22-14-8-6-13(7-9-14)19(21)25)27-18(24)11-10-17-23-15-4-2-3-5-16(15)28-17/h2-9,12H,10-11H2,1H3,(H2,21,25)(H,22,26)/t12-/m0/s1

> <PUBCHEM_IUPAC_INCHIKEY>
LFASUQWSDWTQAR-LBPRGKRZSA-N

> <PUBCHEM_XLOGP3_AA>
2.7

> <PUBCHEM_EXACT_MASS>
397.109627

> <PUBCHEM_MOLECULAR_FORMULA>
C20H19N3O4S

> <PUBCHEM_MOLECULAR_WEIGHT>
397.44756

> <PUBCHEM_OPENEYE_CAN_SMILES>
CC(C(=O)NC1=CC=C(C=C1)C(=O)N)OC(=O)CCC2=NC3=CC=CC=C3S2

> <PUBCHEM_OPENEYE_ISO_SMILES>
C[C@@H](C(=O)NC1=CC=C(C=C1)C(=O)N)OC(=O)CCC2=NC3=CC=CC=C3S2

> <PUBCHEM_CACTVS_TPSA>
140

> <PUBCHEM_MONOISOTOPIC_WEIGHT>
397.109627

> <PUBCHEM_TOTAL_CHARGE>
0

> <PUBCHEM_HEAVY_ATOM_COUNT>
28

> <PUBCHEM_ATOM_DEF_STEREO_COUNT>
1

> <PUBCHEM_ATOM_UDEF_STEREO_COUNT>
0

> <PUBCHEM_BOND_DEF_STEREO_COUNT>
0

> <PUBCHEM_BOND_UDEF_STEREO_COUNT>
0

> <PUBCHEM_ISOTOPIC_ATOM_COUNT>
0

> <PUBCHEM_COMPONENT_COUNT>
1

> <PUBCHEM_CACTVS_TAUTO_COUNT>
24

> <PUBCHEM_COORDINATE_TYPE>
1
5
255

> <PUBCHEM_BONDANNOTATIONS>
1  11  8
1  13  8
13  14  8
13  19  8
14  20  8
18  23  8
18  24  8
19  21  8
12  2  5
20  22  8
21  22  8
23  26  8
24  27  8
25  26  8
25  27  8
6  11  8
6  14  8

$$$$

