582766
  -OEChem-06241222442D

 30 31  0     0  0  0  0  0  0999 V2000
    6.2781    1.2025    0.0000 O   0  0  0  0  0  0  0  0  0  0  0  0
    6.6353   -0.4923    0.0000 O   0  0  0  0  0  0  0  0  0  0  0  0
    6.8994    3.1035    0.0000 O   0  0  0  0  0  0  0  0  0  0  0  0
    4.6783   -2.5142    0.0000 N   0  0  0  0  0  0  0  0  0  0  0  0
    4.6783   -0.9048    0.0000 C   0  0  0  0  0  0  0  0  0  0  0  0
    3.7320   -1.2095    0.0000 C   0  0  0  0  0  0  0  0  0  0  0  0
    3.7320   -2.2095    0.0000 C   0  0  0  0  0  0  0  0  0  0  0  0
    4.9889    0.0458    0.0000 C   0  0  0  0  0  0  0  0  0  0  0  0
    5.2619   -1.7095    0.0000 C   0  0  0  0  0  0  0  0  0  0  0  0
    2.8660   -0.7095    0.0000 C   0  0  0  0  0  0  0  0  0  0  0  0
    2.8660   -2.7095    0.0000 C   0  0  0  0  0  0  0  0  0  0  0  0
    2.0000   -1.2095    0.0000 C   0  0  0  0  0  0  0  0  0  0  0  0
    5.9674    0.2520    0.0000 C   0  0  0  0  0  0  0  0  0  0  0  0
    2.0000   -2.2095    0.0000 C   0  0  0  0  0  0  0  0  0  0  0  0
    7.2566    1.4087    0.0000 C   0  0  0  0  0  0  0  0  0  0  0  0
    7.5673    2.3592    0.0000 C   0  0  0  0  0  0  0  0  0  0  0  0
    8.5458    2.5655    0.0000 C   0  0  0  0  0  0  0  0  0  0  0  0
    4.9684    0.6654    0.0000 H   0  0  0  0  0  0  0  0  0  0  0  0
    4.3751    0.1331    0.0000 H   0  0  0  0  0  0  0  0  0  0  0  0
    5.8819   -1.7095    0.0000 H   0  0  0  0  0  0  0  0  0  0  0  0
    4.8709   -3.1035    0.0000 H   0  0  0  0  0  0  0  0  0  0  0  0
    2.8660   -0.0895    0.0000 H   0  0  0  0  0  0  0  0  0  0  0  0
    2.8660   -3.3295    0.0000 H   0  0  0  0  0  0  0  0  0  0  0  0
    1.4631   -0.8995    0.0000 H   0  0  0  0  0  0  0  0  0  0  0  0
    1.4631   -2.5195    0.0000 H   0  0  0  0  0  0  0  0  0  0  0  0
    7.2772    0.7891    0.0000 H   0  0  0  0  0  0  0  0  0  0  0  0
    7.8704    1.3214    0.0000 H   0  0  0  0  0  0  0  0  0  0  0  0
    8.6736    1.9588    0.0000 H   0  0  0  0  0  0  0  0  0  0  0  0
    9.1524    2.6933    0.0000 H   0  0  0  0  0  0  0  0  0  0  0  0
    8.4179    3.1721    0.0000 H   0  0  0  0  0  0  0  0  0  0  0  0
  1 13  1  0  0  0  0
  1 15  1  0  0  0  0
  2 13  2  0  0  0  0
  3 16  2  0  0  0  0
  4  7  1  0  0  0  0
  4  9  1  0  0  0  0
  4 21  1  0  0  0  0
  5  6  1  0  0  0  0
  5  8  1  0  0  0  0
  5  9  2  0  0  0  0
  6  7  1  0  0  0  0
  6 10  2  0  0  0  0
  7 11  2  0  0  0  0
  8 13  1  0  0  0  0
  8 18  1  0  0  0  0
  8 19  1  0  0  0  0
  9 20  1  0  0  0  0
 10 12  1  0  0  0  0
 10 22  1  0  0  0  0
 11 14  1  0  0  0  0
 11 23  1  0  0  0  0
 12 14  2  0  0  0  0
 12 24  1  0  0  0  0
 14 25  1  0  0  0  0
 15 16  1  0  0  0  0
 15 26  1  0  0  0  0
 15 27  1  0  0  0  0
 16 17  1  0  0  0  0
 17 28  1  0  0  0  0
 17 29  1  0  0  0  0
 17 30  1  0  0  0  0
M  END
> <PUBCHEM_COMPOUND_CID>
582766

> <PUBCHEM_COMPOUND_CANONICALIZED>
1

> <PUBCHEM_CACTVS_COMPLEXITY>
303

> <PUBCHEM_CACTVS_HBOND_ACCEPTOR>
3

> <PUBCHEM_CACTVS_HBOND_DONOR>
1

> <PUBCHEM_CACTVS_ROTATABLE_BOND>
5

> <PUBCHEM_CACTVS_SUBSKEYS>
AAADccByMAAAAAAAAAAAAAAAAAAAAWAAAAAwAAAAAAAAAFgB8AAAHgAQAAAADAzhngY+yPLJlACoA7T3TAKCgCAxAiAI2aF4ZJgIIPLAlZWGIAhk0AHIyAe82eOegAAAAAACAAAAAAAAAAQAAAAAAAAAAA==

> <PUBCHEM_IUPAC_OPENEYE_NAME>
acetonyl 2-(1H-indol-3-yl)acetate

> <PUBCHEM_IUPAC_CAS_NAME>
2-(1H-indol-3-yl)acetic acid 2-oxopropyl ester

> <PUBCHEM_IUPAC_NAME>
2-oxopropyl 2-(1H-indol-3-yl)acetate

> <PUBCHEM_IUPAC_SYSTEMATIC_NAME>
2-oxidanylidenepropyl 2-(1H-indol-3-yl)ethanoate

> <PUBCHEM_IUPAC_TRADITIONAL_NAME>
2-(1H-indol-3-yl)acetic acid acetonyl ester

> <PUBCHEM_IUPAC_INCHI>
InChI=1S/C13H13NO3/c1-9(15)8-17-13(16)6-10-7-14-12-5-3-2-4-11(10)12/h2-5,7,14H,6,8H2,1H3

> <PUBCHEM_IUPAC_INCHIKEY>
QMZJLJHQKHAYMZ-UHFFFAOYSA-N

> <PUBCHEM_XLOGP3>
1.5

> <PUBCHEM_EXACT_MASS>
231.089543

> <PUBCHEM_MOLECULAR_FORMULA>
C13H13NO3

> <PUBCHEM_MOLECULAR_WEIGHT>
231.24722

> <PUBCHEM_OPENEYE_CAN_SMILES>
CC(=O)COC(=O)CC1=CNC2=CC=CC=C21

> <PUBCHEM_OPENEYE_ISO_SMILES>
CC(=O)COC(=O)CC1=CNC2=CC=CC=C21

> <PUBCHEM_CACTVS_TPSA>
59.2

> <PUBCHEM_MONOISOTOPIC_WEIGHT>
231.089543

> <PUBCHEM_TOTAL_CHARGE>
0

> <PUBCHEM_HEAVY_ATOM_COUNT>
17

> <PUBCHEM_ATOM_DEF_STEREO_COUNT>
0

> <PUBCHEM_ATOM_UDEF_STEREO_COUNT>
0

> <PUBCHEM_BOND_DEF_STEREO_COUNT>
0

> <PUBCHEM_BOND_UDEF_STEREO_COUNT>
0

> <PUBCHEM_ISOTOPIC_ATOM_COUNT>
0

> <PUBCHEM_COMPONENT_COUNT>
1

> <PUBCHEM_CACTVS_TAUTO_COUNT>
3

> <PUBCHEM_COORDINATE_TYPE>
1
5
255

> <PUBCHEM_BONDANNOTATIONS>
10  12  8
11  14  8
12  14  8
4  7  8
4  9  8
5  6  8
5  9  8
6  10  8
6  7  8
7  11  8

$$$$

