3714
  -OEChem-06251223362D

 44 49  0     0  0  0  0  0  0999 V2000
    9.3293   -1.7552    0.0000 O   0  0  0  0  0  0  0  0  0  0  0  0
    5.6034    1.1671    0.0000 N   0  0  0  0  0  0  0  0  0  0  0  0
    5.6034   -1.1671    0.0000 N   0  0  0  0  0  0  0  0  0  0  0  0
    9.6023    0.0000    0.0000 N   0  0  0  0  0  0  0  0  0  0  0  0
    2.0000    1.2927    0.0000 N   0  0  0  0  0  0  0  0  0  0  0  0
    6.3404    0.5000    0.0000 C   0  0  0  0  0  0  0  0  0  0  0  0
    7.2064    1.0000    0.0000 C   0  0  0  0  0  0  0  0  0  0  0  0
    8.0724    0.5000    0.0000 C   0  0  0  0  0  0  0  0  0  0  0  0
    6.3404   -0.5000    0.0000 C   0  0  0  0  0  0  0  0  0  0  0  0
    7.2064   -1.0000    0.0000 C   0  0  0  0  0  0  0  0  0  0  0  0
    8.0724   -0.5000    0.0000 C   0  0  0  0  0  0  0  0  0  0  0  0
    6.9972    1.9718    0.0000 C   0  0  0  0  0  0  0  0  0  0  0  0
    6.0085    2.0749    0.0000 C   0  0  0  0  0  0  0  0  0  0  0  0
    9.0186    0.8047    0.0000 C   0  0  0  0  0  0  0  0  0  0  0  0
    6.9972   -1.9718    0.0000 C   0  0  0  0  0  0  0  0  0  0  0  0
    6.0085   -2.0749    0.0000 C   0  0  0  0  0  0  0  0  0  0  0  0
    4.6249    0.9609    0.0000 C   0  0  0  0  0  0  0  0  0  0  0  0
    9.0186   -0.8047    0.0000 C   0  0  0  0  0  0  0  0  0  0  0  0
    7.6180    2.8006    0.0000 C   0  0  0  0  0  0  0  0  0  0  0  0
    5.5720    3.0138    0.0000 C   0  0  0  0  0  0  0  0  0  0  0  0
    7.6180   -2.8006    0.0000 C   0  0  0  0  0  0  0  0  0  0  0  0
    3.9570    1.7052    0.0000 C   0  0  0  0  0  0  0  0  0  0  0  0
    5.5720   -3.0138    0.0000 C   0  0  0  0  0  0  0  0  0  0  0  0
    7.2033    3.7494    0.0000 C   0  0  0  0  0  0  0  0  0  0  0  0
    6.1734    3.8567    0.0000 C   0  0  0  0  0  0  0  0  0  0  0  0
    7.2033   -3.7494    0.0000 C   0  0  0  0  0  0  0  0  0  0  0  0
    6.1734   -3.8567    0.0000 C   0  0  0  0  0  0  0  0  0  0  0  0
    2.9785    1.4990    0.0000 C   0  0  0  0  0  0  0  0  0  0  0  0
    9.5560    1.1140    0.0000 H   0  0  0  0  0  0  0  0  0  0  0  0
    8.7676    1.3716    0.0000 H   0  0  0  0  0  0  0  0  0  0  0  0
    4.9967   -1.0392    0.0000 H   0  0  0  0  0  0  0  0  0  0  0  0
    4.0985    0.6332    0.0000 H   0  0  0  0  0  0  0  0  0  0  0  0
    4.8561    0.3856    0.0000 H   0  0  0  0  0  0  0  0  0  0  0  0
   10.2223    0.0000    0.0000 H   0  0  0  0  0  0  0  0  0  0  0  0
    8.2338    2.7292    0.0000 H   0  0  0  0  0  0  0  0  0  0  0  0
    4.9546    3.0710    0.0000 H   0  0  0  0  0  0  0  0  0  0  0  0
    8.2338   -2.7292    0.0000 H   0  0  0  0  0  0  0  0  0  0  0  0
    4.4834    2.0328    0.0000 H   0  0  0  0  0  0  0  0  0  0  0  0
    3.7258    2.2804    0.0000 H   0  0  0  0  0  0  0  0  0  0  0  0
    4.9546   -3.0710    0.0000 H   0  0  0  0  0  0  0  0  0  0  0  0
    7.5692    4.2499    0.0000 H   0  0  0  0  0  0  0  0  0  0  0  0
    5.9186    4.4219    0.0000 H   0  0  0  0  0  0  0  0  0  0  0  0
    7.5692   -4.2499    0.0000 H   0  0  0  0  0  0  0  0  0  0  0  0
    5.9186   -4.4219    0.0000 H   0  0  0  0  0  0  0  0  0  0  0  0
  1 18  2  0  0  0  0
  2  6  1  0  0  0  0
  2 13  1  0  0  0  0
  2 17  1  0  0  0  0
  3  9  1  0  0  0  0
  3 16  1  0  0  0  0
  3 31  1  0  0  0  0
  4 14  1  0  0  0  0
  4 18  1  0  0  0  0
  4 34  1  0  0  0  0
  5 28  3  0  0  0  0
  6  7  1  0  0  0  0
  6  9  2  0  0  0  0
  7  8  2  0  0  0  0
  7 12  1  0  0  0  0
  8 11  1  0  0  0  0
  8 14  1  0  0  0  0
  9 10  1  0  0  0  0
 10 11  2  0  0  0  0
 10 15  1  0  0  0  0
 11 18  1  0  0  0  0
 12 13  1  0  0  0  0
 12 19  2  0  0  0  0
 13 20  2  0  0  0  0
 14 29  1  0  0  0  0
 14 30  1  0  0  0  0
 15 16  1  0  0  0  0
 15 21  2  0  0  0  0
 16 23  2  0  0  0  0
 17 22  1  0  0  0  0
 17 32  1  0  0  0  0
 17 33  1  0  0  0  0
 19 24  1  0  0  0  0
 19 35  1  0  0  0  0
 20 25  1  0  0  0  0
 20 36  1  0  0  0  0
 21 26  1  0  0  0  0
 21 37  1  0  0  0  0
 22 28  1  0  0  0  0
 22 38  1  0  0  0  0
 22 39  1  0  0  0  0
 23 27  1  0  0  0  0
 23 40  1  0  0  0  0
 24 25  2  0  0  0  0
 24 41  1  0  0  0  0
 25 42  1  0  0  0  0
 26 27  2  0  0  0  0
 26 43  1  0  0  0  0
 27 44  1  0  0  0  0
M  END
> <PUBCHEM_COMPOUND_CID>
3714

> <PUBCHEM_COMPOUND_CANONICALIZED>
1

> <PUBCHEM_CACTVS_COMPLEXITY>
700

> <PUBCHEM_CACTVS_HBOND_ACCEPTOR>
2

> <PUBCHEM_CACTVS_HBOND_DONOR>
2

> <PUBCHEM_CACTVS_ROTATABLE_BOND>
2

> <PUBCHEM_CACTVS_SUBSKEYS>
AAADceB7oAAAAAAAAAAAAAAAAAAAAWLFgAAwYMAAAAAAAFgB/gAAHgAQAAAADAjBngQwwPPNkAC4ByVyVACCgCQlEiAI2aE4dNgI4PLAlZGUIQhglgDIyQccicCeyAACQAASACCQAASAACQAQAAAAAAAAA==

> <PUBCHEM_IUPAC_INCHI>
InChI=1S/C23H16N4O/c24-10-5-11-27-17-9-4-2-7-14(17)18-15-12-25-23(28)20(15)19-13-6-1-3-8-16(13)26-21(19)22(18)27/h1-4,6-9,26H,5,11-12H2,(H,25,28)

> <PUBCHEM_IUPAC_INCHIKEY>
OYIIOLJNSPALSW-UHFFFAOYSA-N

> <PUBCHEM_XLOGP3_AA>
3.3

> <PUBCHEM_EXACT_MASS>
364.132411

> <PUBCHEM_MOLECULAR_FORMULA>
C23H16N4O

> <PUBCHEM_MOLECULAR_WEIGHT>
364.39934

> <PUBCHEM_OPENEYE_CAN_SMILES>
C1C2=C3C4=CC=CC=C4N(C3=C5C(=C2C(=O)N1)C6=CC=CC=C6N5)CCC#N

> <PUBCHEM_OPENEYE_ISO_SMILES>
C1C2=C3C4=CC=CC=C4N(C3=C5C(=C2C(=O)N1)C6=CC=CC=C6N5)CCC#N

> <PUBCHEM_CACTVS_TPSA>
73.6

> <PUBCHEM_MONOISOTOPIC_WEIGHT>
364.132411

> <PUBCHEM_TOTAL_CHARGE>
0

> <PUBCHEM_HEAVY_ATOM_COUNT>
28

> <PUBCHEM_ATOM_DEF_STEREO_COUNT>
0

> <PUBCHEM_ATOM_UDEF_STEREO_COUNT>
0

> <PUBCHEM_BOND_DEF_STEREO_COUNT>
0

> <PUBCHEM_BOND_UDEF_STEREO_COUNT>
0

> <PUBCHEM_ISOTOPIC_ATOM_COUNT>
0

> <PUBCHEM_COMPONENT_COUNT>
1

> <PUBCHEM_CACTVS_TAUTO_COUNT>
7

> <PUBCHEM_COORDINATE_TYPE>
1
5
255

> <PUBCHEM_BONDANNOTATIONS>
10  11  8
10  15  8
12  13  8
12  19  8
13  20  8
15  16  8
15  21  8
16  23  8
19  24  8
2  13  8
2  6  8
20  25  8
21  26  8
23  27  8
24  25  8
26  27  8
3  16  8
3  9  8
6  7  8
6  9  8
7  12  8
7  8  8
8  11  8
9  10  8

$$$$

