3541
  -OEChem-06251223292D

 47 49  0     0  0  0  0  0  0999 V2000
    2.0000   -5.2673    0.0000 Br  0  0  0  0  0  0  0  0  0  0  0  0
    8.0622    2.2327    0.0000 S   0  0  0  0  0  0  0  0  0  0  0  0
    7.0622    2.2327    0.0000 O   0  0  0  0  0  0  0  0  0  0  0  0
    9.0622    2.2327    0.0000 O   0  0  0  0  0  0  0  0  0  0  0  0
    8.0622    1.2327    0.0000 N   0  0  0  0  0  0  0  0  0  0  0  0
    6.3301   -0.7673    0.0000 N   0  0  0  0  0  0  0  0  0  0  0  0
   10.7282    4.7535    0.0000 N   0  0  0  0  0  0  0  0  0  0  0  0
    8.0622    3.2327    0.0000 C   0  0  0  0  0  0  0  0  0  0  0  0
    7.1962    0.7327    0.0000 C   0  0  0  0  0  0  0  0  0  0  0  0
    8.9282    3.7327    0.0000 C   0  0  0  0  0  0  0  0  0  0  0  0
    7.1962   -0.2673    0.0000 C   0  0  0  0  0  0  0  0  0  0  0  0
    8.9282    4.7327    0.0000 C   0  0  0  0  0  0  0  0  0  0  0  0
    7.1962    3.7327    0.0000 C   0  0  0  0  0  0  0  0  0  0  0  0
    8.0622    5.2327    0.0000 C   0  0  0  0  0  0  0  0  0  0  0  0
    9.8222    3.1980    0.0000 C   0  0  0  0  0  0  0  0  0  0  0  0
    7.1962    4.7327    0.0000 C   0  0  0  0  0  0  0  0  0  0  0  0
    6.3301   -1.7673    0.0000 C   0  0  0  0  0  0  0  0  0  0  0  0
    9.8222    5.2673    0.0000 C   0  0  0  0  0  0  0  0  0  0  0  0
   10.7282    3.7118    0.0000 C   0  0  0  0  0  0  0  0  0  0  0  0
    5.4641   -2.2673    0.0000 C   0  0  0  0  0  0  0  0  0  0  0  0
    5.4641   -3.2673    0.0000 C   0  0  0  0  0  0  0  0  0  0  0  0
    4.5981   -3.7673    0.0000 C   0  0  0  0  0  0  0  0  0  0  0  0
    3.7320   -3.2673    0.0000 C   0  0  0  0  0  0  0  0  0  0  0  0
    4.5981   -4.7673    0.0000 C   0  0  0  0  0  0  0  0  0  0  0  0
    2.8660   -3.7673    0.0000 C   0  0  0  0  0  0  0  0  0  0  0  0
    3.7320   -5.2673    0.0000 C   0  0  0  0  0  0  0  0  0  0  0  0
    2.8660   -4.7673    0.0000 C   0  0  0  0  0  0  0  0  0  0  0  0
    6.9841    1.3153    0.0000 H   0  0  0  0  0  0  0  0  0  0  0  0
    6.5856    0.6250    0.0000 H   0  0  0  0  0  0  0  0  0  0  0  0
    8.5991    0.9227    0.0000 H   0  0  0  0  0  0  0  0  0  0  0  0
    7.4082   -0.8499    0.0000 H   0  0  0  0  0  0  0  0  0  0  0  0
    7.8067   -0.1597    0.0000 H   0  0  0  0  0  0  0  0  0  0  0  0
    6.6592    3.4227    0.0000 H   0  0  0  0  0  0  0  0  0  0  0  0
    5.7932   -0.4573    0.0000 H   0  0  0  0  0  0  0  0  0  0  0  0
    8.0622    5.8527    0.0000 H   0  0  0  0  0  0  0  0  0  0  0  0
    9.8150    2.5780    0.0000 H   0  0  0  0  0  0  0  0  0  0  0  0
    6.6592    5.0427    0.0000 H   0  0  0  0  0  0  0  0  0  0  0  0
    6.5422   -2.3499    0.0000 H   0  0  0  0  0  0  0  0  0  0  0  0
    6.9407   -1.6597    0.0000 H   0  0  0  0  0  0  0  0  0  0  0  0
    9.8150    5.8873    0.0000 H   0  0  0  0  0  0  0  0  0  0  0  0
   11.2639    3.3998    0.0000 H   0  0  0  0  0  0  0  0  0  0  0  0
    4.9272   -1.9573    0.0000 H   0  0  0  0  0  0  0  0  0  0  0  0
    6.0010   -3.5773    0.0000 H   0  0  0  0  0  0  0  0  0  0  0  0
    3.7320   -2.6473    0.0000 H   0  0  0  0  0  0  0  0  0  0  0  0
    5.1350   -5.0773    0.0000 H   0  0  0  0  0  0  0  0  0  0  0  0
    2.3291   -3.4573    0.0000 H   0  0  0  0  0  0  0  0  0  0  0  0
    3.7320   -5.8873    0.0000 H   0  0  0  0  0  0  0  0  0  0  0  0
  1 27  1  0  0  0  0
  2  3  2  0  0  0  0
  2  4  2  0  0  0  0
  2  5  1  0  0  0  0
  2  8  1  0  0  0  0
  5  9  1  0  0  0  0
  5 30  1  0  0  0  0
  6 11  1  0  0  0  0
  6 17  1  0  0  0  0
  6 34  1  0  0  0  0
  7 18  2  0  0  0  0
  7 19  1  0  0  0  0
  8 10  1  0  0  0  0
  8 13  2  0  0  0  0
  9 11  1  0  0  0  0
  9 28  1  0  0  0  0
  9 29  1  0  0  0  0
 10 12  2  0  0  0  0
 10 15  1  0  0  0  0
 11 31  1  0  0  0  0
 11 32  1  0  0  0  0
 12 14  1  0  0  0  0
 12 18  1  0  0  0  0
 13 16  1  0  0  0  0
 13 33  1  0  0  0  0
 14 16  2  0  0  0  0
 14 35  1  0  0  0  0
 15 19  2  0  0  0  0
 15 36  1  0  0  0  0
 16 37  1  0  0  0  0
 17 20  1  0  0  0  0
 17 38  1  0  0  0  0
 17 39  1  0  0  0  0
 18 40  1  0  0  0  0
 19 41  1  0  0  0  0
 20 21  2  3  0  0  0
 20 42  1  0  0  0  0
 21 22  1  0  0  0  0
 21 43  1  0  0  0  0
 22 23  2  0  0  0  0
 22 24  1  0  0  0  0
 23 25  1  0  0  0  0
 23 44  1  0  0  0  0
 24 26  2  0  0  0  0
 24 45  1  0  0  0  0
 25 27  2  0  0  0  0
 25 46  1  0  0  0  0
 26 27  1  0  0  0  0
 26 47  1  0  0  0  0
M  END
> <PUBCHEM_COMPOUND_CID>
3541

> <PUBCHEM_COMPOUND_CANONICALIZED>
1

> <PUBCHEM_CACTVS_COMPLEXITY>
570

> <PUBCHEM_CACTVS_HBOND_ACCEPTOR>
5

> <PUBCHEM_CACTVS_HBOND_DONOR>
2

> <PUBCHEM_CACTVS_ROTATABLE_BOND>
8

> <PUBCHEM_CACTVS_SUBSKEYS>
AAADceB7MABAEAAAAAAAAAAAAAAAAAAAAAA8YIAAAAAAAACx9AAAHARQQAABrADBWgQ8gdLIEAKgAjBnRHDCgDAxAiQI2Lg4ZLgIYOLAkZGUIAhgkADIyhcQgIAOggAAgAAUAAAEAAEAACgAAAAAAAAAAA==

> <PUBCHEM_IUPAC_OPENEYE_NAME>
N-[2-[3-(4-bromophenyl)allylamino]ethyl]isoquinoline-5-sulfonamide

> <PUBCHEM_IUPAC_CAS_NAME>
N-[2-[3-(4-bromophenyl)prop-2-enylamino]ethyl]-5-isoquinolinesulfonamide

> <PUBCHEM_IUPAC_NAME>
N-[2-[3-(4-bromophenyl)prop-2-enylamino]ethyl]isoquinoline-5-sulfonamide

> <PUBCHEM_IUPAC_SYSTEMATIC_NAME>
N-[2-[3-(4-bromophenyl)prop-2-enylamino]ethyl]isoquinoline-5-sulfonamide

> <PUBCHEM_IUPAC_TRADITIONAL_NAME>
N-[2-[3-(4-bromophenyl)allylamino]ethyl]isoquinoline-5-sulfonamide

> <PUBCHEM_IUPAC_INCHI>
InChI=1S/C20H20BrN3O2S/c21-18-8-6-16(7-9-18)3-2-11-22-13-14-24-27(25,26)20-5-1-4-17-15-23-12-10-19(17)20/h1-10,12,15,22,24H,11,13-14H2

> <PUBCHEM_IUPAC_INCHIKEY>
ZKZXNDJNWUTGDK-UHFFFAOYSA-N

> <PUBCHEM_XLOGP3_AA>
3.5

> <PUBCHEM_EXACT_MASS>
445.04596

> <PUBCHEM_MOLECULAR_FORMULA>
C20H20BrN3O2S

> <PUBCHEM_MOLECULAR_WEIGHT>
446.3607

> <PUBCHEM_OPENEYE_CAN_SMILES>
C1=CC2=C(C=CN=C2)C(=C1)S(=O)(=O)NCCNCC=CC3=CC=C(C=C3)Br

> <PUBCHEM_OPENEYE_ISO_SMILES>
C1=CC2=C(C=CN=C2)C(=C1)S(=O)(=O)NCCNCC=CC3=CC=C(C=C3)Br

> <PUBCHEM_CACTVS_TPSA>
79.5

> <PUBCHEM_MONOISOTOPIC_WEIGHT>
445.04596

> <PUBCHEM_TOTAL_CHARGE>
0

> <PUBCHEM_HEAVY_ATOM_COUNT>
27

> <PUBCHEM_ATOM_DEF_STEREO_COUNT>
0

> <PUBCHEM_ATOM_UDEF_STEREO_COUNT>
0

> <PUBCHEM_BOND_DEF_STEREO_COUNT>
0

> <PUBCHEM_BOND_UDEF_STEREO_COUNT>
1

> <PUBCHEM_ISOTOPIC_ATOM_COUNT>
0

> <PUBCHEM_COMPONENT_COUNT>
1

> <PUBCHEM_CACTVS_TAUTO_COUNT>
1

> <PUBCHEM_COORDINATE_TYPE>
1
5
255

> <PUBCHEM_BONDANNOTATIONS>
10  12  8
10  15  8
12  14  8
12  18  8
13  16  8
14  16  8
15  19  8
20  21  1
22  23  8
22  24  8
23  25  8
24  26  8
25  27  8
26  27  8
7  18  8
7  19  8
8  10  8
8  13  8

$$$$

