583157
  -OEChem-06241222442D

 29 31  0     1  0  0  0  0  0999 V2000
    6.3518    0.5794    0.0000 O   0  0  0  0  0  0  0  0  0  0  0  0
    4.5274    0.9349    0.0000 N   0  0  0  0  0  0  0  0  0  0  0  0
    5.0274   -0.6039    0.0000 C   0  0  3  0  0  0  0  0  0  0  0  0
    5.3364    0.3472    0.0000 C   0  0  3  0  0  0  0  0  0  0  0  0
    5.7123   -1.3886    0.0000 C   0  0  0  0  0  0  0  0  0  0  0  0
    4.0274   -0.6039    0.0000 C   0  0  0  0  0  0  0  0  0  0  0  0
    6.7328   -1.1799    0.0000 C   0  0  0  0  0  0  0  0  0  0  0  0
    4.7183   -1.5550    0.0000 C   0  0  0  0  0  0  0  0  0  0  0  0
    3.7183    0.3472    0.0000 C   0  0  0  0  0  0  0  0  0  0  0  0
    7.0547   -0.1893    0.0000 C   0  0  0  0  0  0  0  0  0  0  0  0
    3.3424   -1.3886    0.0000 C   0  0  0  0  0  0  0  0  0  0  0  0
    2.7029    0.5794    0.0000 C   0  0  0  0  0  0  0  0  0  0  0  0
    2.3219   -1.1799    0.0000 C   0  0  0  0  0  0  0  0  0  0  0  0
    2.0000   -0.1893    0.0000 C   0  0  0  0  0  0  0  0  0  0  0  0
    5.4606    0.9546    0.0000 H   0  0  0  0  0  0  0  0  0  0  0  0
    5.1824   -1.7104    0.0000 H   0  0  0  0  0  0  0  0  0  0  0  0
    5.9387   -1.9658    0.0000 H   0  0  0  0  0  0  0  0  0  0  0  0
    6.7513   -1.7996    0.0000 H   0  0  0  0  0  0  0  0  0  0  0  0
    7.3466   -1.2678    0.0000 H   0  0  0  0  0  0  0  0  0  0  0  0
    4.1287   -1.3634    0.0000 H   0  0  0  0  0  0  0  0  0  0  0  0
    4.5268   -2.1446    0.0000 H   0  0  0  0  0  0  0  0  0  0  0  0
    5.3080   -1.7465    0.0000 H   0  0  0  0  0  0  0  0  0  0  0  0
    4.5274    1.5550    0.0000 H   0  0  0  0  0  0  0  0  0  0  0  0
    7.6029   -0.4789    0.0000 H   0  0  0  0  0  0  0  0  0  0  0  0
    7.4339    0.3012    0.0000 H   0  0  0  0  0  0  0  0  0  0  0  0
    3.5408   -1.9760    0.0000 H   0  0  0  0  0  0  0  0  0  0  0  0
    2.5182    1.1712    0.0000 H   0  0  0  0  0  0  0  0  0  0  0  0
    1.9088   -1.6423    0.0000 H   0  0  0  0  0  0  0  0  0  0  0  0
    1.3940   -0.0580    0.0000 H   0  0  0  0  0  0  0  0  0  0  0  0
  1  4  1  0  0  0  0
  1 10  1  0  0  0  0
  2  4  1  0  0  0  0
  2  9  1  0  0  0  0
  2 23  1  0  0  0  0
  3  4  1  0  0  0  0
  3  5  1  0  0  0  0
  3  6  1  0  0  0  0
  3  8  1  0  0  0  0
  4 15  1  0  0  0  0
  5  7  1  0  0  0  0
  5 16  1  0  0  0  0
  5 17  1  0  0  0  0
  6  9  1  0  0  0  0
  6 11  2  0  0  0  0
  7 10  1  0  0  0  0
  7 18  1  0  0  0  0
  7 19  1  0  0  0  0
  8 20  1  0  0  0  0
  8 21  1  0  0  0  0
  8 22  1  0  0  0  0
  9 12  2  0  0  0  0
 10 24  1  0  0  0  0
 10 25  1  0  0  0  0
 11 13  1  0  0  0  0
 11 26  1  0  0  0  0
 12 14  1  0  0  0  0
 12 27  1  0  0  0  0
 13 14  2  0  0  0  0
 13 28  1  0  0  0  0
 14 29  1  0  0  0  0
M  END
> <PUBCHEM_COMPOUND_CID>
583157

> <PUBCHEM_COMPOUND_CANONICALIZED>
1

> <PUBCHEM_CACTVS_COMPLEXITY>
230

> <PUBCHEM_CACTVS_HBOND_ACCEPTOR>
2

> <PUBCHEM_CACTVS_HBOND_DONOR>
1

> <PUBCHEM_CACTVS_ROTATABLE_BOND>
0

> <PUBCHEM_CACTVS_SUBSKEYS>
AAADccByIAAAAAAAAAAAAAAAAAAAAWAAAAA0QAAAAAAAAFgBAAAAHgAQAAAADgjhmAYywILABACAAiRCQACCAAAhAgAIiIAIZIkIICLAkZGOIAhk0AHIyAew0PIPgAAAAAACAAAAAAAAAAQAAAAAAAAAAA==

> <PUBCHEM_IUPAC_OPENEYE_NAME>
4a-methyl-3,4,9,9a-tetrahydro-2H-pyrano[2,3-b]indole

> <PUBCHEM_IUPAC_CAS_NAME>
4a-methyl-3,4,9,9a-tetrahydro-2H-pyrano[2,3-b]indole

> <PUBCHEM_IUPAC_NAME>
4a-methyl-3,4,9,9a-tetrahydro-2H-pyrano[2,3-b]indole

> <PUBCHEM_IUPAC_SYSTEMATIC_NAME>
4a-methyl-3,4,9,9a-tetrahydro-2H-pyrano[2,3-b]indole

> <PUBCHEM_IUPAC_TRADITIONAL_NAME>
4a-methyl-3,4,9,9a-tetrahydro-2H-pyran[2,3-b]indole

> <PUBCHEM_IUPAC_INCHI>
InChI=1S/C12H15NO/c1-12-7-4-8-14-11(12)13-10-6-3-2-5-9(10)12/h2-3,5-6,11,13H,4,7-8H2,1H3

> <PUBCHEM_IUPAC_INCHIKEY>
KCOSCYSNLYDUEW-UHFFFAOYSA-N

> <PUBCHEM_XLOGP3_AA>
2.8

> <PUBCHEM_EXACT_MASS>
189.115364

> <PUBCHEM_MOLECULAR_FORMULA>
C12H15NO

> <PUBCHEM_MOLECULAR_WEIGHT>
189.2536

> <PUBCHEM_OPENEYE_CAN_SMILES>
CC12CCCOC1NC3=CC=CC=C23

> <PUBCHEM_OPENEYE_ISO_SMILES>
CC12CCCOC1NC3=CC=CC=C23

> <PUBCHEM_CACTVS_TPSA>
21.3

> <PUBCHEM_MONOISOTOPIC_WEIGHT>
189.115364

> <PUBCHEM_TOTAL_CHARGE>
0

> <PUBCHEM_HEAVY_ATOM_COUNT>
14

> <PUBCHEM_ATOM_DEF_STEREO_COUNT>
0

> <PUBCHEM_ATOM_UDEF_STEREO_COUNT>
2

> <PUBCHEM_BOND_DEF_STEREO_COUNT>
0

> <PUBCHEM_BOND_UDEF_STEREO_COUNT>
0

> <PUBCHEM_ISOTOPIC_ATOM_COUNT>
0

> <PUBCHEM_COMPONENT_COUNT>
1

> <PUBCHEM_CACTVS_TAUTO_COUNT>
1

> <PUBCHEM_COORDINATE_TYPE>
1
5
255

> <PUBCHEM_BONDANNOTATIONS>
11  13  8
12  14  8
13  14  8
4  2  3
3  8  3
6  11  8
6  9  8
9  12  8

$$$$

