4733
  -OEChem-06261200192D

 36 40  0     0  0  0  0  0  0999 V2000
    4.7926   -2.0346    0.0000 O   0  0  0  0  0  0  0  0  0  0  0  0
    4.7926    2.0346    0.0000 O   0  0  0  0  0  0  0  0  0  0  0  0
    8.2894   -2.0346    0.0000 O   0  0  0  0  0  0  0  0  0  0  0  0
    8.2894    2.0346    0.0000 O   0  0  0  0  0  0  0  0  0  0  0  0
    5.6750    0.5000    0.0000 C   0  0  0  0  0  0  0  0  0  0  0  0
    5.6750   -0.5000    0.0000 C   0  0  0  0  0  0  0  0  0  0  0  0
    7.4070    0.5000    0.0000 C   0  0  0  0  0  0  0  0  0  0  0  0
    7.4070   -0.5000    0.0000 C   0  0  0  0  0  0  0  0  0  0  0  0
    6.5410    1.0000    0.0000 C   0  0  0  0  0  0  0  0  0  0  0  0
    6.5410   -1.0000    0.0000 C   0  0  0  0  0  0  0  0  0  0  0  0
    3.8749    0.5208    0.0000 C   0  0  0  0  0  0  0  0  0  0  0  0
    3.8749   -0.5208    0.0000 C   0  0  0  0  0  0  0  0  0  0  0  0
    9.2070    0.5208    0.0000 C   0  0  0  0  0  0  0  0  0  0  0  0
    9.2070   -0.5208    0.0000 C   0  0  0  0  0  0  0  0  0  0  0  0
    4.7810   -1.0347    0.0000 C   0  0  0  0  0  0  0  0  0  0  0  0
    4.7810    1.0347    0.0000 C   0  0  0  0  0  0  0  0  0  0  0  0
    8.3010   -1.0347    0.0000 C   0  0  0  0  0  0  0  0  0  0  0  0
    8.3010    1.0347    0.0000 C   0  0  0  0  0  0  0  0  0  0  0  0
    2.9438   -1.0777    0.0000 C   0  0  0  0  0  0  0  0  0  0  0  0
    2.9438    1.0777    0.0000 C   0  0  0  0  0  0  0  0  0  0  0  0
   10.1382   -1.0777    0.0000 C   0  0  0  0  0  0  0  0  0  0  0  0
   10.1382    1.0777    0.0000 C   0  0  0  0  0  0  0  0  0  0  0  0
    2.0000   -0.5425    0.0000 C   0  0  0  0  0  0  0  0  0  0  0  0
    2.0000    0.5425    0.0000 C   0  0  0  0  0  0  0  0  0  0  0  0
   11.0820   -0.5425    0.0000 C   0  0  0  0  0  0  0  0  0  0  0  0
   11.0820    0.5425    0.0000 C   0  0  0  0  0  0  0  0  0  0  0  0
    6.5410    1.6200    0.0000 H   0  0  0  0  0  0  0  0  0  0  0  0
    6.5410   -1.6200    0.0000 H   0  0  0  0  0  0  0  0  0  0  0  0
    2.9510    1.6977    0.0000 H   0  0  0  0  0  0  0  0  0  0  0  0
    2.9510   -1.6977    0.0000 H   0  0  0  0  0  0  0  0  0  0  0  0
   10.1310    1.6977    0.0000 H   0  0  0  0  0  0  0  0  0  0  0  0
   10.1310   -1.6977    0.0000 H   0  0  0  0  0  0  0  0  0  0  0  0
    1.4643    0.8546    0.0000 H   0  0  0  0  0  0  0  0  0  0  0  0
    1.4643   -0.8546    0.0000 H   0  0  0  0  0  0  0  0  0  0  0  0
   11.6177    0.8546    0.0000 H   0  0  0  0  0  0  0  0  0  0  0  0
   11.6177   -0.8546    0.0000 H   0  0  0  0  0  0  0  0  0  0  0  0
  1 15  2  0  0  0  0
  2 16  2  0  0  0  0
  3 17  2  0  0  0  0
  4 18  2  0  0  0  0
  5  6  2  0  0  0  0
  5  9  1  0  0  0  0
  5 16  1  0  0  0  0
  6 10  1  0  0  0  0
  6 15  1  0  0  0  0
  7  8  1  0  0  0  0
  7  9  2  0  0  0  0
  7 18  1  0  0  0  0
  8 10  2  0  0  0  0
  8 17  1  0  0  0  0
  9 27  1  0  0  0  0
 10 28  1  0  0  0  0
 11 12  1  0  0  0  0
 11 16  1  0  0  0  0
 11 20  2  0  0  0  0
 12 15  1  0  0  0  0
 12 19  2  0  0  0  0
 13 14  1  0  0  0  0
 13 18  1  0  0  0  0
 13 22  2  0  0  0  0
 14 17  1  0  0  0  0
 14 21  2  0  0  0  0
 19 23  1  0  0  0  0
 19 30  1  0  0  0  0
 20 24  1  0  0  0  0
 20 29  1  0  0  0  0
 21 25  1  0  0  0  0
 21 32  1  0  0  0  0
 22 26  1  0  0  0  0
 22 31  1  0  0  0  0
 23 24  2  0  0  0  0
 23 34  1  0  0  0  0
 24 33  1  0  0  0  0
 25 26  2  0  0  0  0
 25 36  1  0  0  0  0
 26 35  1  0  0  0  0
M  END
> <PUBCHEM_COMPOUND_CID>
4733

> <PUBCHEM_COMPOUND_CANONICALIZED>
1

> <PUBCHEM_CACTVS_COMPLEXITY>
566

> <PUBCHEM_CACTVS_HBOND_ACCEPTOR>
4

> <PUBCHEM_CACTVS_HBOND_DONOR>
0

> <PUBCHEM_CACTVS_ROTATABLE_BOND>
0

> <PUBCHEM_CACTVS_SUBSKEYS>
AAADccB4OAAAAAAAAAAAAAAAAAAAAAAAAAAwYMGDAAAAAADBUAAAGgAAAAAADASAmAAwAIAAAACIAqBSAAACAAAkAAAIiAEAAMgIIDKAFRCAIQAggAAIiYcJisCuwAACAAAQAACAAAQAACAAAAAAAAAAAA==

> <PUBCHEM_IUPAC_OPENEYE_NAME>
pentacene-5,7,12,14-tetrone

> <PUBCHEM_IUPAC_CAS_NAME>
pentacene-5,7,12,14-tetrone

> <PUBCHEM_IUPAC_NAME>
pentacene-5,7,12,14-tetrone

> <PUBCHEM_IUPAC_SYSTEMATIC_NAME>
pentacene-5,7,12,14-tetrone

> <PUBCHEM_IUPAC_TRADITIONAL_NAME>
pentacene-5,7,12,14-diquinone

> <PUBCHEM_IUPAC_INCHI>
InChI=1S/C22H10O4/c23-19-11-5-1-2-6-12(11)20(24)16-10-18-17(9-15(16)19)21(25)13-7-3-4-8-14(13)22(18)26/h1-10H

> <PUBCHEM_IUPAC_INCHIKEY>
YZOGOBWHTVNKGA-UHFFFAOYSA-N

> <PUBCHEM_XLOGP3>
4.3

> <PUBCHEM_EXACT_MASS>
338.057909

> <PUBCHEM_MOLECULAR_FORMULA>
C22H10O4

> <PUBCHEM_MOLECULAR_WEIGHT>
338.3124

> <PUBCHEM_OPENEYE_CAN_SMILES>
C1=CC=C2C(=C1)C(=O)C3=CC4=C(C=C3C2=O)C(=O)C5=CC=CC=C5C4=O

> <PUBCHEM_OPENEYE_ISO_SMILES>
C1=CC=C2C(=C1)C(=O)C3=CC4=C(C=C3C2=O)C(=O)C5=CC=CC=C5C4=O

> <PUBCHEM_CACTVS_TPSA>
68.3

> <PUBCHEM_MONOISOTOPIC_WEIGHT>
338.057909

> <PUBCHEM_TOTAL_CHARGE>
0

> <PUBCHEM_HEAVY_ATOM_COUNT>
26

> <PUBCHEM_ATOM_DEF_STEREO_COUNT>
0

> <PUBCHEM_ATOM_UDEF_STEREO_COUNT>
0

> <PUBCHEM_BOND_DEF_STEREO_COUNT>
0

> <PUBCHEM_BOND_UDEF_STEREO_COUNT>
0

> <PUBCHEM_ISOTOPIC_ATOM_COUNT>
0

> <PUBCHEM_COMPONENT_COUNT>
1

> <PUBCHEM_CACTVS_TAUTO_COUNT>
1

> <PUBCHEM_COORDINATE_TYPE>
1
5
255

> <PUBCHEM_BONDANNOTATIONS>
11  12  8
11  16  8
11  20  8
12  15  8
12  19  8
13  14  8
13  18  8
13  22  8
14  17  8
14  21  8
19  23  8
20  24  8
21  25  8
22  26  8
23  24  8
25  26  8
5  16  8
5  6  8
5  9  8
6  10  8
6  15  8
7  18  8
7  8  8
7  9  8
8  10  8
8  17  8

$$$$

