582797
  -OEChem-06241222442D

 35 36  0     1  0  0  0  0  0999 V2000
    7.8779    3.2066    0.0000 F   0  0  0  0  0  0  0  0  0  0  0  0
    8.5178    1.9455    0.0000 F   0  0  0  0  0  0  0  0  0  0  0  0
    6.6168    2.5668    0.0000 F   0  0  0  0  0  0  0  0  0  0  0  0
    7.6138   -0.3892    0.0000 O   0  0  0  0  0  0  0  0  0  0  0  0
    6.3246   -1.5460    0.0000 O   0  0  0  0  0  0  0  0  0  0  0  0
    7.9244    0.5613    0.0000 O   0  0  0  0  0  0  0  0  0  0  0  0
    4.6783   -2.6173    0.0000 N   0  0  0  0  0  0  0  0  0  0  0  0
    6.2781    1.0994    0.0000 N   0  0  0  0  0  0  0  0  0  0  0  0
    4.9889   -0.0573    0.0000 C   0  0  0  0  0  0  0  0  0  0  0  0
    4.6783   -1.0079    0.0000 C   0  0  0  0  0  0  0  0  0  0  0  0
    5.9674    0.1489    0.0000 C   0  0  3  0  0  0  0  0  0  0  0  0
    3.7320   -1.3126    0.0000 C   0  0  0  0  0  0  0  0  0  0  0  0
    3.7320   -2.3126    0.0000 C   0  0  0  0  0  0  0  0  0  0  0  0
    5.2619   -1.8126    0.0000 C   0  0  0  0  0  0  0  0  0  0  0  0
    2.8660   -0.8126    0.0000 C   0  0  0  0  0  0  0  0  0  0  0  0
    6.6353   -0.5954    0.0000 C   0  0  0  0  0  0  0  0  0  0  0  0
    2.8660   -2.8126    0.0000 C   0  0  0  0  0  0  0  0  0  0  0  0
    2.0000   -1.3126    0.0000 C   0  0  0  0  0  0  0  0  0  0  0  0
    2.0000   -2.3126    0.0000 C   0  0  0  0  0  0  0  0  0  0  0  0
    7.2566    1.3056    0.0000 C   0  0  0  0  0  0  0  0  0  0  0  0
    7.5673    2.2561    0.0000 C   0  0  0  0  0  0  0  0  0  0  0  0
    8.2816   -1.1335    0.0000 C   0  0  0  0  0  0  0  0  0  0  0  0
    4.9684    0.5623    0.0000 H   0  0  0  0  0  0  0  0  0  0  0  0
    4.3751    0.0300    0.0000 H   0  0  0  0  0  0  0  0  0  0  0  0
    5.5534    0.6103    0.0000 H   0  0  0  0  0  0  0  0  0  0  0  0
    5.8819   -1.8126    0.0000 H   0  0  0  0  0  0  0  0  0  0  0  0
    4.8709   -3.2066    0.0000 H   0  0  0  0  0  0  0  0  0  0  0  0
    5.8640    1.5609    0.0000 H   0  0  0  0  0  0  0  0  0  0  0  0
    2.8660   -0.1926    0.0000 H   0  0  0  0  0  0  0  0  0  0  0  0
    2.8660   -3.4326    0.0000 H   0  0  0  0  0  0  0  0  0  0  0  0
    1.4631   -1.0026    0.0000 H   0  0  0  0  0  0  0  0  0  0  0  0
    1.4631   -2.6226    0.0000 H   0  0  0  0  0  0  0  0  0  0  0  0
    7.8202   -1.5476    0.0000 H   0  0  0  0  0  0  0  0  0  0  0  0
    8.6957   -1.5950    0.0000 H   0  0  0  0  0  0  0  0  0  0  0  0
    8.7431   -0.7194    0.0000 H   0  0  0  0  0  0  0  0  0  0  0  0
  1 21  1  0  0  0  0
  2 21  1  0  0  0  0
  3 21  1  0  0  0  0
  4 16  1  0  0  0  0
  4 22  1  0  0  0  0
  5 16  2  0  0  0  0
  6 20  2  0  0  0  0
  7 13  1  0  0  0  0
  7 14  1  0  0  0  0
  7 27  1  0  0  0  0
  8 11  1  0  0  0  0
  8 20  1  0  0  0  0
  8 28  1  0  0  0  0
  9 10  1  0  0  0  0
  9 11  1  0  0  0  0
  9 23  1  0  0  0  0
  9 24  1  0  0  0  0
 10 12  1  0  0  0  0
 10 14  2  0  0  0  0
 11 16  1  0  0  0  0
 11 25  1  0  0  0  0
 12 13  1  0  0  0  0
 12 15  2  0  0  0  0
 13 17  2  0  0  0  0
 14 26  1  0  0  0  0
 15 18  1  0  0  0  0
 15 29  1  0  0  0  0
 17 19  1  0  0  0  0
 17 30  1  0  0  0  0
 18 19  2  0  0  0  0
 18 31  1  0  0  0  0
 19 32  1  0  0  0  0
 20 21  1  0  0  0  0
 22 33  1  0  0  0  0
 22 34  1  0  0  0  0
 22 35  1  0  0  0  0
M  END
> <PUBCHEM_COMPOUND_CID>
582797

> <PUBCHEM_COMPOUND_CANONICALIZED>
1

> <PUBCHEM_CACTVS_COMPLEXITY>
428

> <PUBCHEM_CACTVS_HBOND_ACCEPTOR>
6

> <PUBCHEM_CACTVS_HBOND_DONOR>
2

> <PUBCHEM_CACTVS_ROTATABLE_BOND>
5

> <PUBCHEM_CACTVS_SUBSKEYS>
AAADccBzMYAAAAAAAAAAAAAAAAAAAWAAAAAwAAAAAAAAAFgB8AAAHwAQAAAADCjBnhY+yPLJlACoAzX3XACCgCAxAiAI2aG4ZJgKIPLAkbGFIAhklgDYyAeY2fKOgAAAAAACAAAAAAAAAAQAAAAAAAAAAA==

> <PUBCHEM_IUPAC_OPENEYE_NAME>
methyl 3-(1H-indol-3-yl)-2-[(2,2,2-trifluoroacetyl)amino]propanoate

> <PUBCHEM_IUPAC_CAS_NAME>
3-(1H-indol-3-yl)-2-[(2,2,2-trifluoro-1-oxoethyl)amino]propanoic acid methyl ester

> <PUBCHEM_IUPAC_NAME>
methyl 3-(1H-indol-3-yl)-2-[(2,2,2-trifluoroacetyl)amino]propanoate

> <PUBCHEM_IUPAC_SYSTEMATIC_NAME>
methyl 3-(1H-indol-3-yl)-2-[2,2,2-tris(fluoranyl)ethanoylamino]propanoate

> <PUBCHEM_IUPAC_TRADITIONAL_NAME>
3-(1H-indol-3-yl)-2-[(2,2,2-trifluoroacetyl)amino]propionic acid methyl ester

> <PUBCHEM_IUPAC_INCHI>
InChI=1S/C14H13F3N2O3/c1-22-12(20)11(19-13(21)14(15,16)17)6-8-7-18-10-5-3-2-4-9(8)10/h2-5,7,11,18H,6H2,1H3,(H,19,21)

> <PUBCHEM_IUPAC_INCHIKEY>
FRCDVDBVNOWDDM-UHFFFAOYSA-N

> <PUBCHEM_XLOGP3>
2.5

> <PUBCHEM_EXACT_MASS>
314.087827

> <PUBCHEM_MOLECULAR_FORMULA>
C14H13F3N2O3

> <PUBCHEM_MOLECULAR_WEIGHT>
314.25983

> <PUBCHEM_OPENEYE_CAN_SMILES>
COC(=O)C(CC1=CNC2=CC=CC=C21)NC(=O)C(F)(F)F

> <PUBCHEM_OPENEYE_ISO_SMILES>
COC(=O)C(CC1=CNC2=CC=CC=C21)NC(=O)C(F)(F)F

> <PUBCHEM_CACTVS_TPSA>
71.2

> <PUBCHEM_MONOISOTOPIC_WEIGHT>
314.087827

> <PUBCHEM_TOTAL_CHARGE>
0

> <PUBCHEM_HEAVY_ATOM_COUNT>
22

> <PUBCHEM_ATOM_DEF_STEREO_COUNT>
0

> <PUBCHEM_ATOM_UDEF_STEREO_COUNT>
1

> <PUBCHEM_BOND_DEF_STEREO_COUNT>
0

> <PUBCHEM_BOND_UDEF_STEREO_COUNT>
0

> <PUBCHEM_ISOTOPIC_ATOM_COUNT>
0

> <PUBCHEM_COMPONENT_COUNT>
1

> <PUBCHEM_CACTVS_TAUTO_COUNT>
2

> <PUBCHEM_COORDINATE_TYPE>
1
5
255

> <PUBCHEM_BONDANNOTATIONS>
10  12  8
10  14  8
12  13  8
12  15  8
13  17  8
15  18  8
17  19  8
18  19  8
7  13  8
7  14  8
11  9  3

$$$$

