7847029
  -OEChem-06241222482D

 50 52  0     1  0  0  0  0  0999 V2000
    4.6783    2.4698    0.0000 S   0  0  0  0  0  0  0  0  0  0  0  0
    8.2619   -0.0670    0.0000 O   0  0  0  0  0  0  0  0  0  0  0  0
    8.2619    1.6651    0.0000 O   0  0  0  0  0  0  0  0  0  0  0  0
    9.2619    1.6651    0.0000 O   0  0  0  0  0  0  0  0  0  0  0  0
   10.7619    2.5311    0.0000 O   0  0  0  0  0  0  0  0  0  0  0  0
    4.6783    0.8603    0.0000 N   0  0  0  0  0  0  0  0  0  0  0  0
   10.7619    0.7990    0.0000 N   0  0  0  0  0  0  0  0  0  0  0  0
   12.2619    1.6651    0.0000 N   0  0  0  0  0  0  0  0  0  0  0  0
    9.2619   -0.0670    0.0000 C   0  0  1  0  0  0  0  0  0  0  0  0
    6.2619    1.6651    0.0000 C   0  0  0  0  0  0  0  0  0  0  0  0
    6.7619    0.7990    0.0000 C   0  0  0  0  0  0  0  0  0  0  0  0
    9.7619   -0.9330    0.0000 C   0  0  0  0  0  0  0  0  0  0  0  0
    5.2619    1.6651    0.0000 C   0  0  0  0  0  0  0  0  0  0  0  0
    7.7619    0.7990    0.0000 C   0  0  0  0  0  0  0  0  0  0  0  0
    3.7320    2.1651    0.0000 C   0  0  0  0  0  0  0  0  0  0  0  0
    3.7320    1.1651    0.0000 C   0  0  0  0  0  0  0  0  0  0  0  0
    9.7619    0.7990    0.0000 C   0  0  0  0  0  0  0  0  0  0  0  0
   10.7619   -0.9330    0.0000 C   0  0  0  0  0  0  0  0  0  0  0  0
    9.2619   -1.7990    0.0000 C   0  0  0  0  0  0  0  0  0  0  0  0
    2.8660    2.6651    0.0000 C   0  0  0  0  0  0  0  0  0  0  0  0
    2.8660    0.6651    0.0000 C   0  0  0  0  0  0  0  0  0  0  0  0
   11.2619   -1.7990    0.0000 C   0  0  0  0  0  0  0  0  0  0  0  0
    9.7619   -2.6651    0.0000 C   0  0  0  0  0  0  0  0  0  0  0  0
   10.7619   -2.6651    0.0000 C   0  0  0  0  0  0  0  0  0  0  0  0
    2.0000    2.1651    0.0000 C   0  0  0  0  0  0  0  0  0  0  0  0
    2.0000    1.1651    0.0000 C   0  0  0  0  0  0  0  0  0  0  0  0
   11.2619    1.6651    0.0000 C   0  0  0  0  0  0  0  0  0  0  0  0
   12.7619    2.5311    0.0000 C   0  0  0  0  0  0  0  0  0  0  0  0
   13.7619    2.5311    0.0000 C   0  0  0  0  0  0  0  0  0  0  0  0
    8.9519    0.4699    0.0000 H   0  0  0  0  0  0  0  0  0  0  0  0
    6.8445    1.8771    0.0000 H   0  0  0  0  0  0  0  0  0  0  0  0
    6.1542    2.2756    0.0000 H   0  0  0  0  0  0  0  0  0  0  0  0
    6.1793    0.5870    0.0000 H   0  0  0  0  0  0  0  0  0  0  0  0
    6.8695    0.1885    0.0000 H   0  0  0  0  0  0  0  0  0  0  0  0
   11.0719   -0.3961    0.0000 H   0  0  0  0  0  0  0  0  0  0  0  0
    8.6419   -1.7990    0.0000 H   0  0  0  0  0  0  0  0  0  0  0  0
    2.8660    3.2851    0.0000 H   0  0  0  0  0  0  0  0  0  0  0  0
    2.8660    0.0451    0.0000 H   0  0  0  0  0  0  0  0  0  0  0  0
   11.0719    0.2621    0.0000 H   0  0  0  0  0  0  0  0  0  0  0  0
   11.8819   -1.7990    0.0000 H   0  0  0  0  0  0  0  0  0  0  0  0
    9.4519   -3.2020    0.0000 H   0  0  0  0  0  0  0  0  0  0  0  0
   11.0719   -3.2020    0.0000 H   0  0  0  0  0  0  0  0  0  0  0  0
    1.4631    2.4751    0.0000 H   0  0  0  0  0  0  0  0  0  0  0  0
    1.4631    0.8551    0.0000 H   0  0  0  0  0  0  0  0  0  0  0  0
   12.5719    1.1281    0.0000 H   0  0  0  0  0  0  0  0  0  0  0  0
   12.8695    3.1417    0.0000 H   0  0  0  0  0  0  0  0  0  0  0  0
   12.1793    2.7431    0.0000 H   0  0  0  0  0  0  0  0  0  0  0  0
   13.7619    1.9111    0.0000 H   0  0  0  0  0  0  0  0  0  0  0  0
   14.3819    2.5311    0.0000 H   0  0  0  0  0  0  0  0  0  0  0  0
   13.7619    3.1511    0.0000 H   0  0  0  0  0  0  0  0  0  0  0  0
  1 13  1  0  0  0  0
  1 15  1  0  0  0  0
  9  2  1  6  0  0  0
  2 14  1  0  0  0  0
  3 14  2  0  0  0  0
  4 17  2  0  0  0  0
  5 27  2  0  0  0  0
  6 13  2  0  0  0  0
  6 16  1  0  0  0  0
  7 17  1  0  0  0  0
  7 27  1  0  0  0  0
  7 39  1  0  0  0  0
  8 27  1  0  0  0  0
  8 28  1  0  0  0  0
  8 45  1  0  0  0  0
  9 12  1  0  0  0  0
  9 17  1  0  0  0  0
  9 30  1  0  0  0  0
 10 11  1  0  0  0  0
 10 13  1  0  0  0  0
 10 31  1  0  0  0  0
 10 32  1  0  0  0  0
 11 14  1  0  0  0  0
 11 33  1  0  0  0  0
 11 34  1  0  0  0  0
 12 18  2  0  0  0  0
 12 19  1  0  0  0  0
 15 16  1  0  0  0  0
 15 20  2  0  0  0  0
 16 21  2  0  0  0  0
 18 22  1  0  0  0  0
 18 35  1  0  0  0  0
 19 23  2  0  0  0  0
 19 36  1  0  0  0  0
 20 25  1  0  0  0  0
 20 37  1  0  0  0  0
 21 26  1  0  0  0  0
 21 38  1  0  0  0  0
 22 24  2  0  0  0  0
 22 40  1  0  0  0  0
 23 24  1  0  0  0  0
 23 41  1  0  0  0  0
 24 42  1  0  0  0  0
 25 26  2  0  0  0  0
 25 43  1  0  0  0  0
 26 44  1  0  0  0  0
 28 29  1  0  0  0  0
 28 46  1  0  0  0  0
 28 47  1  0  0  0  0
 29 48  1  0  0  0  0
 29 49  1  0  0  0  0
 29 50  1  0  0  0  0
M  END
> <PUBCHEM_COMPOUND_CID>
7847029

> <PUBCHEM_COMPOUND_CANONICALIZED>
1

> <PUBCHEM_CACTVS_COMPLEXITY>
582

> <PUBCHEM_CACTVS_HBOND_ACCEPTOR>
6

> <PUBCHEM_CACTVS_HBOND_DONOR>
2

> <PUBCHEM_CACTVS_ROTATABLE_BOND>
8

> <PUBCHEM_CACTVS_SUBSKEYS>
AAADceB7OABAAAAAAAAAAAAAAAAAAWAAAAAwYAAAAAAAAFgB9AAAHgQQAAAADBzh3gYzybLIFAisAyXyXAKD8KBhCjhImL14bJiKJrLgtZ2HMAhs1yP46Ae8yKCOAAAAAAAAAQAAAAAAAAACAAAAAAAAAA==

> <PUBCHEM_IUPAC_OPENEYE_NAME>
[(1S)-2-(ethylcarbamoylamino)-2-oxo-1-phenyl-ethyl] 3-(1,3-benzothiazol-2-yl)propanoate

> <PUBCHEM_IUPAC_CAS_NAME>
3-(1,3-benzothiazol-2-yl)propanoic acid [(1S)-2-(ethylcarbamoylamino)-2-oxo-1-phenylethyl] ester

> <PUBCHEM_IUPAC_NAME>
[(1S)-2-(ethylcarbamoylamino)-2-oxo-1-phenylethyl] 3-(1,3-benzothiazol-2-yl)propanoate

> <PUBCHEM_IUPAC_SYSTEMATIC_NAME>
[(1S)-2-(ethylcarbamoylamino)-2-oxidanylidene-1-phenyl-ethyl] 3-(1,3-benzothiazol-2-yl)propanoate

> <PUBCHEM_IUPAC_TRADITIONAL_NAME>
3-(1,3-benzothiazol-2-yl)propionic acid [(1S)-2-(ethylcarbamoylamino)-2-keto-1-phenyl-ethyl] ester

> <PUBCHEM_IUPAC_INCHI>
InChI=1S/C21H21N3O4S/c1-2-22-21(27)24-20(26)19(14-8-4-3-5-9-14)28-18(25)13-12-17-23-15-10-6-7-11-16(15)29-17/h3-11,19H,2,12-13H2,1H3,(H2,22,24,26,27)/t19-/m0/s1

> <PUBCHEM_IUPAC_INCHIKEY>
QOPDFZZOPYQZAO-IBGZPJMESA-N

> <PUBCHEM_XLOGP3_AA>
4.1

> <PUBCHEM_EXACT_MASS>
411.125277

> <PUBCHEM_MOLECULAR_FORMULA>
C21H21N3O4S

> <PUBCHEM_MOLECULAR_WEIGHT>
411.47414

> <PUBCHEM_OPENEYE_CAN_SMILES>
CCNC(=O)NC(=O)C(C1=CC=CC=C1)OC(=O)CCC2=NC3=CC=CC=C3S2

> <PUBCHEM_OPENEYE_ISO_SMILES>
CCNC(=O)NC(=O)[C@H](C1=CC=CC=C1)OC(=O)CCC2=NC3=CC=CC=C3S2

> <PUBCHEM_CACTVS_TPSA>
126

> <PUBCHEM_MONOISOTOPIC_WEIGHT>
411.125277

> <PUBCHEM_TOTAL_CHARGE>
0

> <PUBCHEM_HEAVY_ATOM_COUNT>
29

> <PUBCHEM_ATOM_DEF_STEREO_COUNT>
1

> <PUBCHEM_ATOM_UDEF_STEREO_COUNT>
0

> <PUBCHEM_BOND_DEF_STEREO_COUNT>
0

> <PUBCHEM_BOND_UDEF_STEREO_COUNT>
0

> <PUBCHEM_ISOTOPIC_ATOM_COUNT>
0

> <PUBCHEM_COMPONENT_COUNT>
1

> <PUBCHEM_CACTVS_TAUTO_COUNT>
10

> <PUBCHEM_COORDINATE_TYPE>
1
5
255

> <PUBCHEM_BONDANNOTATIONS>
1  13  8
1  15  8
12  18  8
12  19  8
15  16  8
15  20  8
16  21  8
18  22  8
19  23  8
9  2  6
20  25  8
21  26  8
22  24  8
23  24  8
25  26  8
6  13  8
6  16  8

$$$$

