6443
  -OEChem-06261201192D

 16 15  0     1  0  0  0  0  0999 V2000
    3.2320    0.7110    0.0000 Cl  0  0  0  0  0  0  0  0  0  0  0  0
    4.2320   -1.0210    0.0000 Cl  0  0  0  0  0  0  0  0  0  0  0  0
    2.0000   -0.1550    0.0000 Cl  0  0  0  0  0  0  0  0  0  0  0  0
    5.4641   -0.1550    0.0000 O   0  0  0  0  0  0  0  0  0  0  0  0
    4.5981    1.3450    0.0000 O   0  0  0  0  0  0  0  0  0  0  0  0
    3.7320   -0.1550    0.0000 C   0  0  0  0  0  0  0  0  0  0  0  0
    2.8660   -0.6550    0.0000 C   0  0  3  0  0  0  0  0  0  0  0  0
    4.5981    0.3450    0.0000 C   0  0  0  0  0  0  0  0  0  0  0  0
    2.8660   -1.6550    0.0000 C   0  0  0  0  0  0  0  0  0  0  0  0
    2.8660    0.1950    0.0000 H   0  0  0  0  0  0  0  0  0  0  0  0
    4.5981   -0.2750    0.0000 H   0  0  0  0  0  0  0  0  0  0  0  0
    2.2460   -1.6550    0.0000 H   0  0  0  0  0  0  0  0  0  0  0  0
    2.8660   -2.2750    0.0000 H   0  0  0  0  0  0  0  0  0  0  0  0
    3.4860   -1.6550    0.0000 H   0  0  0  0  0  0  0  0  0  0  0  0
    6.0010    0.1550    0.0000 H   0  0  0  0  0  0  0  0  0  0  0  0
    5.1350    1.6550    0.0000 H   0  0  0  0  0  0  0  0  0  0  0  0
  1  6  1  0  0  0  0
  2  6  1  0  0  0  0
  3  7  1  0  0  0  0
  4  8  1  0  0  0  0
  4 15  1  0  0  0  0
  5  8  1  0  0  0  0
  5 16  1  0  0  0  0
  6  7  1  0  0  0  0
  6  8  1  0  0  0  0
  7  9  1  0  0  0  0
  7 10  1  0  0  0  0
  8 11  1  0  0  0  0
  9 12  1  0  0  0  0
  9 13  1  0  0  0  0
  9 14  1  0  0  0  0
M  END
> <PUBCHEM_COMPOUND_CID>
6443

> <PUBCHEM_COMPOUND_CANONICALIZED>
1

> <PUBCHEM_CACTVS_COMPLEXITY>
93.8

> <PUBCHEM_CACTVS_HBOND_ACCEPTOR>
2

> <PUBCHEM_CACTVS_HBOND_DONOR>
2

> <PUBCHEM_CACTVS_ROTATABLE_BOND>
2

> <PUBCHEM_CACTVS_SUBSKEYS>
AAADcYBgMAAGAAAAAAAAAAAAAAAAAAAAAAAAAAAAAAAAAAAAAAAAGgIACAAACAOwgMMCCAAAAgAAAAAAAAAAAAAAAAAAAEAAAwAAEAAAAAAAQAAEAAAAAAAAAAAAAAAAAAAAAAAAAAAAAAAAAAAAAAAAAA==

> <PUBCHEM_IUPAC_OPENEYE_NAME>
2,2,3-trichlorobutane-1,1-diol

> <PUBCHEM_IUPAC_CAS_NAME>
2,2,3-trichlorobutane-1,1-diol

> <PUBCHEM_IUPAC_NAME>
2,2,3-trichlorobutane-1,1-diol

> <PUBCHEM_IUPAC_SYSTEMATIC_NAME>
2,2,3-tris(chloranyl)butane-1,1-diol

> <PUBCHEM_IUPAC_TRADITIONAL_NAME>
2,2,3-trichlorobutane-1,1-diol

> <PUBCHEM_IUPAC_INCHI>
InChI=1S/C4H7Cl3O2/c1-2(5)4(6,7)3(8)9/h2-3,8-9H,1H3

> <PUBCHEM_IUPAC_INCHIKEY>
QVYLNOUOIXTUGA-UHFFFAOYSA-N

> <PUBCHEM_XLOGP3_AA>
1.2

> <PUBCHEM_EXACT_MASS>
191.951163

> <PUBCHEM_MOLECULAR_FORMULA>
C4H7Cl3O2

> <PUBCHEM_MOLECULAR_WEIGHT>
193.45618

> <PUBCHEM_OPENEYE_CAN_SMILES>
CC(C(C(O)O)(Cl)Cl)Cl

> <PUBCHEM_OPENEYE_ISO_SMILES>
CC(C(C(O)O)(Cl)Cl)Cl

> <PUBCHEM_CACTVS_TPSA>
40.5

> <PUBCHEM_MONOISOTOPIC_WEIGHT>
191.951163

> <PUBCHEM_TOTAL_CHARGE>
0

> <PUBCHEM_HEAVY_ATOM_COUNT>
9

> <PUBCHEM_ATOM_DEF_STEREO_COUNT>
0

> <PUBCHEM_ATOM_UDEF_STEREO_COUNT>
1

> <PUBCHEM_BOND_DEF_STEREO_COUNT>
0

> <PUBCHEM_BOND_UDEF_STEREO_COUNT>
0

> <PUBCHEM_ISOTOPIC_ATOM_COUNT>
0

> <PUBCHEM_COMPONENT_COUNT>
1

> <PUBCHEM_CACTVS_TAUTO_COUNT>
1

> <PUBCHEM_COORDINATE_TYPE>
1
5
255

> <PUBCHEM_BONDANNOTATIONS>
7  10  3

$$$$

