47205116
  -OEChem-06241222582D

 27 28  0     0  0  0  0  0  0999 V2000
    2.0000   -1.0194    0.0000 Cl  0  0  0  0  0  0  0  0  0  0  0  0
    5.4641   -1.0194    0.0000 Cl  0  0  0  0  0  0  0  0  0  0  0  0
    3.7320   -4.0194    0.0000 Cl  0  0  0  0  0  0  0  0  0  0  0  0
    3.7320   -0.0194    0.0000 S   0  0  0  0  0  0  0  0  0  0  0  0
    3.7891    3.0684    0.0000 O   0  0  0  0  0  0  0  0  0  0  0  0
    4.7320   -0.0194    0.0000 O   0  0  0  0  0  0  0  0  0  0  0  0
    2.7320   -0.0194    0.0000 O   0  0  0  0  0  0  0  0  0  0  0  0
    3.7320    0.9806    0.0000 N   0  0  0  0  0  0  0  0  0  0  0  0
    3.7320   -1.0194    0.0000 C   0  0  0  0  0  0  0  0  0  0  0  0
    4.5981    1.4806    0.0000 C   0  0  0  0  0  0  0  0  0  0  0  0
    4.5981    2.4806    0.0000 C   0  0  0  0  0  0  0  0  0  0  0  0
    2.8660   -1.5194    0.0000 C   0  0  0  0  0  0  0  0  0  0  0  0
    4.5981   -1.5194    0.0000 C   0  0  0  0  0  0  0  0  0  0  0  0
    2.8660   -2.5194    0.0000 C   0  0  0  0  0  0  0  0  0  0  0  0
    4.5981   -2.5194    0.0000 C   0  0  0  0  0  0  0  0  0  0  0  0
    5.4071    3.0684    0.0000 C   0  0  0  0  0  0  0  0  0  0  0  0
    3.7320   -3.0194    0.0000 C   0  0  0  0  0  0  0  0  0  0  0  0
    5.0981    4.0194    0.0000 C   0  0  0  0  0  0  0  0  0  0  0  0
    4.0981    4.0194    0.0000 C   0  0  0  0  0  0  0  0  0  0  0  0
    4.8101    0.8980    0.0000 H   0  0  0  0  0  0  0  0  0  0  0  0
    5.2087    1.5882    0.0000 H   0  0  0  0  0  0  0  0  0  0  0  0
    3.1951    1.2906    0.0000 H   0  0  0  0  0  0  0  0  0  0  0  0
    2.3291   -2.8294    0.0000 H   0  0  0  0  0  0  0  0  0  0  0  0
    5.1350   -2.8294    0.0000 H   0  0  0  0  0  0  0  0  0  0  0  0
    5.9967    2.8768    0.0000 H   0  0  0  0  0  0  0  0  0  0  0  0
    5.4625    4.5210    0.0000 H   0  0  0  0  0  0  0  0  0  0  0  0
    3.7336    4.5210    0.0000 H   0  0  0  0  0  0  0  0  0  0  0  0
  1 12  1  0  0  0  0
  2 13  1  0  0  0  0
  3 17  1  0  0  0  0
  4  6  2  0  0  0  0
  4  7  2  0  0  0  0
  4  8  1  0  0  0  0
  4  9  1  0  0  0  0
  5 11  1  0  0  0  0
  5 19  1  0  0  0  0
  8 10  1  0  0  0  0
  8 22  1  0  0  0  0
  9 12  2  0  0  0  0
  9 13  1  0  0  0  0
 10 11  1  0  0  0  0
 10 20  1  0  0  0  0
 10 21  1  0  0  0  0
 11 16  2  0  0  0  0
 12 14  1  0  0  0  0
 13 15  2  0  0  0  0
 14 17  2  0  0  0  0
 14 23  1  0  0  0  0
 15 17  1  0  0  0  0
 15 24  1  0  0  0  0
 16 18  1  0  0  0  0
 16 25  1  0  0  0  0
 18 19  2  0  0  0  0
 18 26  1  0  0  0  0
 19 27  1  0  0  0  0
M  END
> <PUBCHEM_COMPOUND_CID>
47205116

> <PUBCHEM_COMPOUND_CANONICALIZED>
1

> <PUBCHEM_CACTVS_COMPLEXITY>
389

> <PUBCHEM_CACTVS_HBOND_ACCEPTOR>
4

> <PUBCHEM_CACTVS_HBOND_DONOR>
1

> <PUBCHEM_CACTVS_ROTATABLE_BOND>
4

> <PUBCHEM_CACTVS_SUBSKEYS>
AAADccByMABGAAAAAAAAAAAAAAAAASAAAAAwAAAAAAAAAAABwAAAHgYQQAAACAbh0CYwBYBABEKIAKhSgHDCCBAkJQAIiJGGDsgOJjKFtxuDOSDkwBEIqYeYEQAAAAIAAACAAIAABAAAAQABAAAAAAAAAA==

> <PUBCHEM_IUPAC_OPENEYE_NAME>
2,4,6-trichloro-N-(2-furylmethyl)benzenesulfonamide

> <PUBCHEM_IUPAC_CAS_NAME>
2,4,6-trichloro-N-(2-furanylmethyl)benzenesulfonamide

> <PUBCHEM_IUPAC_NAME>
2,4,6-trichloro-N-(furan-2-ylmethyl)benzenesulfonamide

> <PUBCHEM_IUPAC_SYSTEMATIC_NAME>
2,4,6-tris(chloranyl)-N-(furan-2-ylmethyl)benzenesulfonamide

> <PUBCHEM_IUPAC_TRADITIONAL_NAME>
2,4,6-trichloro-N-(2-furfuryl)benzenesulfonamide

> <PUBCHEM_IUPAC_INCHI>
InChI=1S/C11H8Cl3NO3S/c12-7-4-9(13)11(10(14)5-7)19(16,17)15-6-8-2-1-3-18-8/h1-5,15H,6H2

> <PUBCHEM_IUPAC_INCHIKEY>
IOZZGIRPGUBISI-UHFFFAOYSA-N

> <PUBCHEM_XLOGP3_AA>
3.4

> <PUBCHEM_EXACT_MASS>
338.929047

> <PUBCHEM_MOLECULAR_FORMULA>
C11H8Cl3NO3S

> <PUBCHEM_MOLECULAR_WEIGHT>
340.61012

> <PUBCHEM_OPENEYE_CAN_SMILES>
C1=COC(=C1)CNS(=O)(=O)C2=C(C=C(C=C2Cl)Cl)Cl

> <PUBCHEM_OPENEYE_ISO_SMILES>
C1=COC(=C1)CNS(=O)(=O)C2=C(C=C(C=C2Cl)Cl)Cl

> <PUBCHEM_CACTVS_TPSA>
67.7

> <PUBCHEM_MONOISOTOPIC_WEIGHT>
338.929047

> <PUBCHEM_TOTAL_CHARGE>
0

> <PUBCHEM_HEAVY_ATOM_COUNT>
19

> <PUBCHEM_ATOM_DEF_STEREO_COUNT>
0

> <PUBCHEM_ATOM_UDEF_STEREO_COUNT>
0

> <PUBCHEM_BOND_DEF_STEREO_COUNT>
0

> <PUBCHEM_BOND_UDEF_STEREO_COUNT>
0

> <PUBCHEM_ISOTOPIC_ATOM_COUNT>
0

> <PUBCHEM_COMPONENT_COUNT>
1

> <PUBCHEM_CACTVS_TAUTO_COUNT>
1

> <PUBCHEM_COORDINATE_TYPE>
1
5
255

> <PUBCHEM_BONDANNOTATIONS>
11  16  8
12  14  8
13  15  8
14  17  8
15  17  8
16  18  8
18  19  8
5  11  8
5  19  8
9  12  8
9  13  8

$$$$

