9248
  -OEChem-06261203322D

 35 36  0     1  0  0  0  0  0999 V2000
    5.2323    2.2323    0.0000 O   0  0  0  0  0  0  0  0  0  0  0  0
    5.2320    1.2318    0.0000 C   0  0  3  0  0  0  0  0  0  0  0  0
    4.3660    1.7318    0.0000 C   0  0  3  0  0  0  0  0  0  0  0  0
    5.2320    0.2318    0.0000 C   0  0  0  0  0  0  0  0  0  0  0  0
    3.5000    1.2318    0.0000 C   0  0  0  0  0  0  0  0  0  0  0  0
    4.8660   -0.8662    0.0000 C   0  0  0  0  0  0  0  0  0  0  0  0
    2.5000    1.2318    0.0000 C   0  0  0  0  0  0  0  0  0  0  0  0
    4.0000   -1.3662    0.0000 C   0  0  0  0  0  0  0  0  0  0  0  0
    2.0000    0.3658    0.0000 C   0  0  0  0  0  0  0  0  0  0  0  0
    3.5000   -2.2323    0.0000 C   0  0  0  0  0  0  0  0  0  0  0  0
    2.5000   -0.5002    0.0000 C   0  0  0  0  0  0  0  0  0  0  0  0
    2.5000   -2.2323    0.0000 C   0  0  0  0  0  0  0  0  0  0  0  0
    2.0000   -1.3662    0.0000 C   0  0  0  0  0  0  0  0  0  0  0  0
    5.8520    1.2317    0.0000 H   0  0  0  0  0  0  0  0  0  0  0  0
    4.0560    2.2687    0.0000 H   0  0  0  0  0  0  0  0  0  0  0  0
    3.2880    0.6492    0.0000 H   0  0  0  0  0  0  0  0  0  0  0  0
    3.3395    1.8307    0.0000 H   0  0  0  0  0  0  0  0  0  0  0  0
    5.6907   -0.1854    0.0000 H   0  0  0  0  0  0  0  0  0  0  0  0
    4.6201    0.3311    0.0000 H   0  0  0  0  0  0  0  0  0  0  0  0
    5.0145   -1.4682    0.0000 H   0  0  0  0  0  0  0  0  0  0  0  0
    5.4855   -0.8910    0.0000 H   0  0  0  0  0  0  0  0  0  0  0  0
    2.6077    1.8424    0.0000 H   0  0  0  0  0  0  0  0  0  0  0  0
    1.9174    1.4439    0.0000 H   0  0  0  0  0  0  0  0  0  0  0  0
    3.8923   -0.7557    0.0000 H   0  0  0  0  0  0  0  0  0  0  0  0
    4.4384   -1.8046    0.0000 H   0  0  0  0  0  0  0  0  0  0  0  0
    1.5250    0.7643    0.0000 H   0  0  0  0  0  0  0  0  0  0  0  0
    1.5250   -0.0327    0.0000 H   0  0  0  0  0  0  0  0  0  0  0  0
    3.3923   -2.8428    0.0000 H   0  0  0  0  0  0  0  0  0  0  0  0
    4.0826   -2.4443    0.0000 H   0  0  0  0  0  0  0  0  0  0  0  0
    2.9750   -0.8988    0.0000 H   0  0  0  0  0  0  0  0  0  0  0  0
    2.9750   -0.1017    0.0000 H   0  0  0  0  0  0  0  0  0  0  0  0
    1.9174   -2.4443    0.0000 H   0  0  0  0  0  0  0  0  0  0  0  0
    2.6077   -2.8428    0.0000 H   0  0  0  0  0  0  0  0  0  0  0  0
    1.5250   -0.9677    0.0000 H   0  0  0  0  0  0  0  0  0  0  0  0
    1.5250   -1.7648    0.0000 H   0  0  0  0  0  0  0  0  0  0  0  0
  1  2  1  0  0  0  0
  1  3  1  0  0  0  0
  2  3  1  0  0  0  0
  2  4  1  0  0  0  0
  2 14  1  0  0  0  0
  3  5  1  0  0  0  0
  3 15  1  0  0  0  0
  4  6  1  0  0  0  0
  4 18  1  0  0  0  0
  4 19  1  0  0  0  0
  5  7  1  0  0  0  0
  5 16  1  0  0  0  0
  5 17  1  0  0  0  0
  6  8  1  0  0  0  0
  6 20  1  0  0  0  0
  6 21  1  0  0  0  0
  7  9  1  0  0  0  0
  7 22  1  0  0  0  0
  7 23  1  0  0  0  0
  8 10  1  0  0  0  0
  8 24  1  0  0  0  0
  8 25  1  0  0  0  0
  9 11  1  0  0  0  0
  9 26  1  0  0  0  0
  9 27  1  0  0  0  0
 10 12  1  0  0  0  0
 10 28  1  0  0  0  0
 10 29  1  0  0  0  0
 11 13  1  0  0  0  0
 11 30  1  0  0  0  0
 11 31  1  0  0  0  0
 12 13  1  0  0  0  0
 12 32  1  0  0  0  0
 12 33  1  0  0  0  0
 13 34  1  0  0  0  0
 13 35  1  0  0  0  0
M  END
> <PUBCHEM_COMPOUND_CID>
9248

> <PUBCHEM_COMPOUND_CANONICALIZED>
1

> <PUBCHEM_CACTVS_COMPLEXITY>
128

> <PUBCHEM_CACTVS_HBOND_ACCEPTOR>
1

> <PUBCHEM_CACTVS_HBOND_DONOR>
0

> <PUBCHEM_CACTVS_ROTATABLE_BOND>
0

> <PUBCHEM_CACTVS_SUBSKEYS>
AAADceBwIAAAAAAAAAAAAAAAEgAAAAAAAAAAAAAAAAAAAAAAAAAAGgAAAAAACBSggAIAAAAABAAAAAAAAAAAAAAAAAAAAAAAAAAAAAIAAAACAAAEAAAAAAGAwKAAAAAAAAAAAAAAAAAAAAAAAAAAAAAAAA==

> <PUBCHEM_IUPAC_OPENEYE_NAME>
13-oxabicyclo[10.1.0]tridecane

> <PUBCHEM_IUPAC_CAS_NAME>
13-oxabicyclo[10.1.0]tridecane

> <PUBCHEM_IUPAC_NAME>
13-oxabicyclo[10.1.0]tridecane

> <PUBCHEM_IUPAC_SYSTEMATIC_NAME>
13-oxabicyclo[10.1.0]tridecane

> <PUBCHEM_IUPAC_TRADITIONAL_NAME>
13-oxabicyclo[10.1.0]tridecane

> <PUBCHEM_IUPAC_INCHI>
InChI=1S/C12H22O/c1-2-4-6-8-10-12-11(13-12)9-7-5-3-1/h11-12H,1-10H2

> <PUBCHEM_IUPAC_INCHIKEY>
VLJLXEKIAALSJE-UHFFFAOYSA-N

> <PUBCHEM_XLOGP3_AA>
4.4

> <PUBCHEM_EXACT_MASS>
182.167065

> <PUBCHEM_MOLECULAR_FORMULA>
C12H22O

> <PUBCHEM_MOLECULAR_WEIGHT>
182.30248

> <PUBCHEM_OPENEYE_CAN_SMILES>
C1CCCCCC2C(O2)CCCC1

> <PUBCHEM_OPENEYE_ISO_SMILES>
C1CCCCCC2C(O2)CCCC1

> <PUBCHEM_CACTVS_TPSA>
12.5

> <PUBCHEM_MONOISOTOPIC_WEIGHT>
182.167065

> <PUBCHEM_TOTAL_CHARGE>
0

> <PUBCHEM_HEAVY_ATOM_COUNT>
13

> <PUBCHEM_ATOM_DEF_STEREO_COUNT>
0

> <PUBCHEM_ATOM_UDEF_STEREO_COUNT>
2

> <PUBCHEM_BOND_DEF_STEREO_COUNT>
0

> <PUBCHEM_BOND_UDEF_STEREO_COUNT>
0

> <PUBCHEM_ISOTOPIC_ATOM_COUNT>
0

> <PUBCHEM_COMPONENT_COUNT>
1

> <PUBCHEM_CACTVS_TAUTO_COUNT>
1

> <PUBCHEM_COORDINATE_TYPE>
1
5
255

> <PUBCHEM_BONDANNOTATIONS>
2  4  3
3  5  3

$$$$

