9459
  -OEChem-06261203432D

 34 34  0     0  0  0  0  0  0999 V2000
    6.5380    3.6200    0.0000 Cl  0  0  0  0  0  0  0  0  0  0  0  0
    2.2690    3.6200    0.0000 N   0  0  0  0  0  0  0  0  0  0  0  0
    4.0010    3.6200    0.0000 N   0  0  0  0  0  0  0  0  0  0  0  0
    3.1350    5.1200    0.0000 N   0  0  0  0  0  0  0  0  0  0  0  0
    1.4030    4.1200    0.0000 C   0  0  0  0  0  0  0  0  0  0  0  0
    1.4030    5.1200    0.0000 C   0  0  0  0  0  0  0  0  0  0  0  0
    2.2690    2.6200    0.0000 C   0  0  0  0  0  0  0  0  0  0  0  0
    2.2690    5.6200    0.0000 C   0  0  0  0  0  0  0  0  0  0  0  0
    0.5369    5.6200    0.0000 C   0  0  0  0  0  0  0  0  0  0  0  0
    3.1350    4.1200    0.0000 C   0  0  0  0  0  0  0  0  0  0  0  0
    1.4030    2.1200    0.0000 C   0  0  0  0  0  0  0  0  0  0  0  0
    3.1350    2.1200    0.0000 C   0  0  0  0  0  0  0  0  0  0  0  0
    2.2690    6.6200    0.0000 C   0  0  0  0  0  0  0  0  0  0  0  0
    0.5369    6.6200    0.0000 C   0  0  0  0  0  0  0  0  0  0  0  0
    1.4030    1.1200    0.0000 C   0  0  0  0  0  0  0  0  0  0  0  0
    3.1350    1.1200    0.0000 C   0  0  0  0  0  0  0  0  0  0  0  0
    1.4030    7.1200    0.0000 C   0  0  0  0  0  0  0  0  0  0  0  0
    2.2690    0.6200    0.0000 C   0  0  0  0  0  0  0  0  0  0  0  0
    0.7924    4.2277    0.0000 H   0  0  0  0  0  0  0  0  0  0  0  0
    1.1909    3.5374    0.0000 H   0  0  0  0  0  0  0  0  0  0  0  0
    2.8059    5.3100    0.0000 H   0  0  0  0  0  0  0  0  0  0  0  0
    0.0000    5.3100    0.0000 H   0  0  0  0  0  0  0  0  0  0  0  0
    0.8660    2.4300    0.0000 H   0  0  0  0  0  0  0  0  0  0  0  0
    3.6720    2.4300    0.0000 H   0  0  0  0  0  0  0  0  0  0  0  0
    2.8059    6.9300    0.0000 H   0  0  0  0  0  0  0  0  0  0  0  0
    0.0000    6.9300    0.0000 H   0  0  0  0  0  0  0  0  0  0  0  0
    0.8660    0.8100    0.0000 H   0  0  0  0  0  0  0  0  0  0  0  0
    3.6720    0.8100    0.0000 H   0  0  0  0  0  0  0  0  0  0  0  0
    1.4030    7.7400    0.0000 H   0  0  0  0  0  0  0  0  0  0  0  0
    2.2690    0.0000    0.0000 H   0  0  0  0  0  0  0  0  0  0  0  0
    4.5380    3.9300    0.0000 H   0  0  0  0  0  0  0  0  0  0  0  0
    4.0010    3.0000    0.0000 H   0  0  0  0  0  0  0  0  0  0  0  0
    3.6720    5.4300    0.0000 H   0  0  0  0  0  0  0  0  0  0  0  0
    7.5380    3.6200    0.0000 H   0  0  0  0  0  0  0  0  0  0  0  0
  1 34  1  0  0  0  0
  2  5  1  0  0  0  0
  2  7  1  0  0  0  0
  2 10  1  0  0  0  0
  3 10  1  0  0  0  0
  3 31  1  0  0  0  0
  3 32  1  0  0  0  0
  4 10  2  0  0  0  0
  4 33  1  0  0  0  0
  5  6  1  0  0  0  0
  5 19  1  0  0  0  0
  5 20  1  0  0  0  0
  6  8  2  0  0  0  0
  6  9  1  0  0  0  0
  7 11  2  0  0  0  0
  7 12  1  0  0  0  0
  8 13  1  0  0  0  0
  8 21  1  0  0  0  0
  9 14  2  0  0  0  0
  9 22  1  0  0  0  0
 11 15  1  0  0  0  0
 11 23  1  0  0  0  0
 12 16  2  0  0  0  0
 12 24  1  0  0  0  0
 13 17  2  0  0  0  0
 13 25  1  0  0  0  0
 14 17  1  0  0  0  0
 14 26  1  0  0  0  0
 15 18  2  0  0  0  0
 15 27  1  0  0  0  0
 16 18  1  0  0  0  0
 16 28  1  0  0  0  0
 17 29  1  0  0  0  0
 18 30  1  0  0  0  0
M  END
> <PUBCHEM_COMPOUND_CID>
9459

> <PUBCHEM_COMPOUND_CANONICALIZED>
1

> <PUBCHEM_CACTVS_COMPLEXITY>
240

> <PUBCHEM_CACTVS_HBOND_ACCEPTOR>
1

> <PUBCHEM_CACTVS_HBOND_DONOR>
3

> <PUBCHEM_CACTVS_ROTATABLE_BOND>
4

> <PUBCHEM_CACTVS_SUBSKEYS>
AAADceBzAAAEAAAAAAAAAAAAAAAAAAAAAAAwYAAAAAAAAAABQAAAHAAQAAAADAjBGAQxwINAAACgAiRCYACCAAChAgAJiAAIZIiIICLAmZGEIAhggALIyCcQgAAOAAAAAAAAAAAAAAAAAAAAAAAAAAAAAA==

> <PUBCHEM_IUPAC_OPENEYE_NAME>
1-benzyl-1-phenyl-guanidine hydrochloride

> <PUBCHEM_IUPAC_CAS_NAME>
1-phenyl-1-(phenylmethyl)guanidine hydrochloride

> <PUBCHEM_IUPAC_NAME>
1-benzyl-1-phenylguanidine hydrochloride

> <PUBCHEM_IUPAC_SYSTEMATIC_NAME>
1-phenyl-1-(phenylmethyl)guanidine hydrochloride

> <PUBCHEM_IUPAC_TRADITIONAL_NAME>
1-benzyl-1-phenyl-guanidine hydrochloride

> <PUBCHEM_IUPAC_INCHI>
InChI=1S/C14H15N3.ClH/c15-14(16)17(13-9-5-2-6-10-13)11-12-7-3-1-4-8-12;/h1-10H,11H2,(H3,15,16);1H

> <PUBCHEM_IUPAC_INCHIKEY>
GFQILUAFALJKKE-UHFFFAOYSA-N

> <PUBCHEM_EXACT_MASS>
261.103275

> <PUBCHEM_MOLECULAR_FORMULA>
C14H16ClN3

> <PUBCHEM_MOLECULAR_WEIGHT>
261.74994

> <PUBCHEM_OPENEYE_CAN_SMILES>
C1=CC=C(C=C1)CN(C2=CC=CC=C2)C(=N)N.Cl

> <PUBCHEM_OPENEYE_ISO_SMILES>
C1=CC=C(C=C1)CN(C2=CC=CC=C2)C(=N)N.Cl

> <PUBCHEM_CACTVS_TPSA>
53.1

> <PUBCHEM_MONOISOTOPIC_WEIGHT>
261.103275

> <PUBCHEM_TOTAL_CHARGE>
0

> <PUBCHEM_HEAVY_ATOM_COUNT>
18

> <PUBCHEM_ATOM_DEF_STEREO_COUNT>
0

> <PUBCHEM_ATOM_UDEF_STEREO_COUNT>
0

> <PUBCHEM_BOND_DEF_STEREO_COUNT>
0

> <PUBCHEM_BOND_UDEF_STEREO_COUNT>
0

> <PUBCHEM_ISOTOPIC_ATOM_COUNT>
0

> <PUBCHEM_COMPONENT_COUNT>
2

> <PUBCHEM_CACTVS_TAUTO_COUNT>
1

> <PUBCHEM_COORDINATE_TYPE>
1
5
255

> <PUBCHEM_BONDANNOTATIONS>
11  15  8
12  16  8
13  17  8
14  17  8
15  18  8
16  18  8
6  8  8
6  9  8
7  11  8
7  12  8
8  13  8
9  14  8

$$$$

