12052
  -OEChem-06261206272D

 23 22  0     0  0  0  0  0  0999 V2000
    2.8660   -0.1160    0.0000 Si  0  0  0  0  0  0  0  0  0  0  0  0
    3.7320    0.3840    0.0000 C   0  0  0  0  0  0  0  0  0  0  0  0
    2.0000   -0.6160    0.0000 C   0  0  0  0  0  0  0  0  0  0  0  0
    2.3660    0.7500    0.0000 C   0  0  0  0  0  0  0  0  0  0  0  0
    4.5981   -0.1160    0.0000 C   0  0  0  0  0  0  0  0  0  0  0  0
    2.0000   -1.6160    0.0000 C   0  0  0  0  0  0  0  0  0  0  0  0
    2.8660    1.6160    0.0000 C   0  0  0  0  0  0  0  0  0  0  0  0
    3.1760   -0.6530    0.0000 H   0  0  0  0  0  0  0  0  0  0  0  0
    1.8911    1.1485    0.0000 H   0  0  0  0  0  0  0  0  0  0  0  0
    1.8911    0.3515    0.0000 H   0  0  0  0  0  0  0  0  0  0  0  0
    1.7880   -0.0334    0.0000 H   0  0  0  0  0  0  0  0  0  0  0  0
    1.3894   -0.7237    0.0000 H   0  0  0  0  0  0  0  0  0  0  0  0
    4.1306    0.8589    0.0000 H   0  0  0  0  0  0  0  0  0  0  0  0
    3.3335    0.8589    0.0000 H   0  0  0  0  0  0  0  0  0  0  0  0
    4.2881   -0.6530    0.0000 H   0  0  0  0  0  0  0  0  0  0  0  0
    5.1350   -0.4260    0.0000 H   0  0  0  0  0  0  0  0  0  0  0  0
    4.9081    0.4209    0.0000 H   0  0  0  0  0  0  0  0  0  0  0  0
    1.3800   -1.6160    0.0000 H   0  0  0  0  0  0  0  0  0  0  0  0
    2.0000   -2.2360    0.0000 H   0  0  0  0  0  0  0  0  0  0  0  0
    2.6200   -1.6160    0.0000 H   0  0  0  0  0  0  0  0  0  0  0  0
    3.4030    1.3060    0.0000 H   0  0  0  0  0  0  0  0  0  0  0  0
    3.1760    2.1530    0.0000 H   0  0  0  0  0  0  0  0  0  0  0  0
    2.3291    1.9260    0.0000 H   0  0  0  0  0  0  0  0  0  0  0  0
  1  2  1  0  0  0  0
  1  3  1  0  0  0  0
  1  4  1  0  0  0  0
  1  8  1  0  0  0  0
  2  5  1  0  0  0  0
  2 13  1  0  0  0  0
  2 14  1  0  0  0  0
  3  6  1  0  0  0  0
  3 11  1  0  0  0  0
  3 12  1  0  0  0  0
  4  7  1  0  0  0  0
  4  9  1  0  0  0  0
  4 10  1  0  0  0  0
  5 15  1  0  0  0  0
  5 16  1  0  0  0  0
  5 17  1  0  0  0  0
  6 18  1  0  0  0  0
  6 19  1  0  0  0  0
  6 20  1  0  0  0  0
  7 21  1  0  0  0  0
  7 22  1  0  0  0  0
  7 23  1  0  0  0  0
M  END
> <PUBCHEM_COMPOUND_CID>
12052

> <PUBCHEM_COMPOUND_CANONICALIZED>
1

> <PUBCHEM_CACTVS_COMPLEXITY>
25.7

> <PUBCHEM_CACTVS_HBOND_ACCEPTOR>
0

> <PUBCHEM_CACTVS_HBOND_DONOR>
0

> <PUBCHEM_CACTVS_ROTATABLE_BOND>
3

> <PUBCHEM_CACTVS_SUBSKEYS>
AAADceBgAAgAAAAAAAAAAAAAAAAAAAAAAAAAAAAAAAAAAAAAAAAAGBAAAACAAACAIABCAAAAAAEAAAAAAAAAAAAAAAAAAAAAAAAAAAAAAAAAAAAAAAAAAAAAAAAAAAAAAAAAAAAAAAAAAAAAAAAAAAAAAA==

> <PUBCHEM_IUPAC_OPENEYE_NAME>
triethylsilane

> <PUBCHEM_IUPAC_CAS_NAME>
triethylsilane

> <PUBCHEM_IUPAC_NAME>
triethylsilane

> <PUBCHEM_IUPAC_SYSTEMATIC_NAME>
triethylsilane

> <PUBCHEM_IUPAC_TRADITIONAL_NAME>
triethylsilane

> <PUBCHEM_IUPAC_INCHI>
InChI=1S/C6H16Si/c1-4-7(5-2)6-3/h7H,4-6H2,1-3H3

> <PUBCHEM_IUPAC_INCHIKEY>
AQRLNPVMDITEJU-UHFFFAOYSA-N

> <PUBCHEM_EXACT_MASS>
116.102127

> <PUBCHEM_MOLECULAR_FORMULA>
C6H16Si

> <PUBCHEM_MOLECULAR_WEIGHT>
116.27674

> <PUBCHEM_OPENEYE_CAN_SMILES>
CC[SiH](CC)CC

> <PUBCHEM_OPENEYE_ISO_SMILES>
CC[SiH](CC)CC

> <PUBCHEM_CACTVS_TPSA>
0

> <PUBCHEM_MONOISOTOPIC_WEIGHT>
116.102127

> <PUBCHEM_TOTAL_CHARGE>
0

> <PUBCHEM_HEAVY_ATOM_COUNT>
7

> <PUBCHEM_ATOM_DEF_STEREO_COUNT>
0

> <PUBCHEM_ATOM_UDEF_STEREO_COUNT>
0

> <PUBCHEM_BOND_DEF_STEREO_COUNT>
0

> <PUBCHEM_BOND_UDEF_STEREO_COUNT>
0

> <PUBCHEM_ISOTOPIC_ATOM_COUNT>
0

> <PUBCHEM_COMPONENT_COUNT>
1

> <PUBCHEM_CACTVS_TAUTO_COUNT>
1

> <PUBCHEM_COORDINATE_TYPE>
1
5
255

$$$$

