3940
  -OEChem-06251223462D

107111  0     1  0  0  0  0  0999 V2000
    8.0420   -1.9957    0.0000 O   0  0  0  0  0  0  0  0  0  0  0  0
    6.3100   -2.9957    0.0000 O   0  0  0  0  0  0  0  0  0  0  0  0
    9.8216   -1.9024    0.0000 O   0  0  0  0  0  0  0  0  0  0  0  0
   10.3975    0.6203    0.0000 O   0  0  0  0  0  0  0  0  0  0  0  0
   11.9798   -0.0842    0.0000 O   0  0  0  0  0  0  0  0  0  0  0  0
    9.7741   -2.9957    0.0000 O   0  0  0  0  0  0  0  0  0  0  0  0
   14.3756    1.0384    0.0000 O   0  0  0  0  0  0  0  0  0  0  0  0
    4.8100   -3.8618    0.0000 O   0  0  0  0  0  0  0  0  0  0  0  0
    8.2695    0.1680    0.0000 O   0  0  0  0  0  0  0  0  0  0  0  0
   13.2000    2.6564    0.0000 O   0  0  0  0  0  0  0  0  0  0  0  0
   14.1945    2.7610    0.0000 O   0  0  0  0  0  0  0  0  0  0  0  0
   11.8920   -2.1774    0.0000 O   0  0  0  0  0  0  0  0  0  0  0  0
    2.3100   -2.9957    0.0000 O   0  0  0  0  0  0  0  0  0  0  0  0
   16.3646    1.2474    0.0000 O   0  0  0  0  0  0  0  0  0  0  0  0
   17.1781    3.0746    0.0000 O   0  0  0  0  0  0  0  0  0  0  0  0
   16.0025    4.6926    0.0000 O   0  0  0  0  0  0  0  0  0  0  0  0
    2.3100   -4.7278    0.0000 O   0  0  0  0  0  0  0  0  0  0  0  0
   14.4202    5.3971    0.0000 O   0  0  0  0  0  0  0  0  0  0  0  0
    6.6760   -5.3617    0.0000 N   0  0  0  0  0  0  0  0  0  0  0  0
    9.7741   -4.9957    0.0000 N   0  0  0  0  0  0  0  0  0  0  0  0
   11.2110    2.4474    0.0000 N   0  0  0  0  0  0  0  0  0  0  0  0
    5.3100   -1.2636    0.0000 N   0  0  0  0  0  0  0  0  0  0  0  0
   14.5566   -0.6842    0.0000 N   0  0  0  0  0  0  0  0  0  0  0  0
    8.0420   -2.9957    0.0000 C   0  0  3  0  0  0  0  0  0  0  0  0
    7.1760   -3.4957    0.0000 C   0  0  3  0  0  0  0  0  0  0  0  0
    7.1760   -4.4957    0.0000 C   0  0  3  0  0  0  0  0  0  0  0  0
    8.9081   -3.4957    0.0000 C   0  0  3  0  0  0  0  0  0  0  0  0
    8.9081   -4.4957    0.0000 C   0  0  3  0  0  0  0  0  0  0  0  0
    8.0420   -4.9957    0.0000 C   0  0  0  0  0  0  0  0  0  0  0  0
    9.9908   -0.2933    0.0000 C   0  0  3  0  0  0  0  0  0  0  0  0
    8.9081   -1.4957    0.0000 C   0  0  3  0  0  0  0  0  0  0  0  0
    9.0126   -0.5012    0.0000 C   0  0  3  0  0  0  0  0  0  0  0  0
   10.4907   -1.1593    0.0000 C   0  0  3  0  0  0  0  0  0  0  0  0
   11.3920    0.7248    0.0000 C   0  0  3  0  0  0  0  0  0  0  0  0
   11.7987    1.6384    0.0000 C   0  0  3  0  0  0  0  0  0  0  0  0
   13.3810    0.9339    0.0000 C   0  0  3  0  0  0  0  0  0  0  0  0
   12.7933    1.7429    0.0000 C   0  0  3  0  0  0  0  0  0  0  0  0
    5.3100   -2.9957    0.0000 C   0  0  3  0  0  0  0  0  0  0  0  0
   12.9743    0.0203    0.0000 C   0  0  3  0  0  0  0  0  0  0  0  0
    4.8100   -2.1296    0.0000 C   0  0  3  0  0  0  0  0  0  0  0  0
   11.4853   -1.2638    0.0000 C   0  0  0  0  0  0  0  0  0  0  0  0
    3.8100   -2.1296    0.0000 C   0  0  0  0  0  0  0  0  0  0  0  0
    3.3100   -2.9957    0.0000 C   0  0  3  0  0  0  0  0  0  0  0  0
    3.8100   -3.8617    0.0000 C   0  0  3  0  0  0  0  0  0  0  0  0
   14.7823    1.9519    0.0000 C   0  0  3  0  0  0  0  0  0  0  0  0
   13.5621   -0.7887    0.0000 C   0  0  0  0  0  0  0  0  0  0  0  0
   15.7768    2.0565    0.0000 C   0  0  3  0  0  0  0  0  0  0  0  0
   16.1836    2.9700    0.0000 C   0  0  3  0  0  0  0  0  0  0  0  0
   15.5958    3.7790    0.0000 C   0  0  3  0  0  0  0  0  0  0  0  0
   14.6013    3.6745    0.0000 C   0  0  3  0  0  0  0  0  0  0  0  0
    3.3100   -4.7278    0.0000 C   0  0  0  0  0  0  0  0  0  0  0  0
   14.0135    4.4835    0.0000 C   0  0  0  0  0  0  0  0  0  0  0  0
    8.7782   -2.5707    0.0000 H   0  0  0  0  0  0  0  0  0  0  0  0
    7.1760   -2.6457    0.0000 H   0  0  0  0  0  0  0  0  0  0  0  0
    6.3550   -4.2757    0.0000 H   0  0  0  0  0  0  0  0  0  0  0  0
    9.6442   -3.9207    0.0000 H   0  0  0  0  0  0  0  0  0  0  0  0
    9.6442   -4.0707    0.0000 H   0  0  0  0  0  0  0  0  0  0  0  0
    7.6435   -5.4706    0.0000 H   0  0  0  0  0  0  0  0  0  0  0  0
    8.4406   -5.4706    0.0000 H   0  0  0  0  0  0  0  0  0  0  0  0
   10.8396   -0.2488    0.0000 H   0  0  0  0  0  0  0  0  0  0  0  0
    8.1952   -1.0328    0.0000 H   0  0  0  0  0  0  0  0  0  0  0  0
    9.2326    0.3199    0.0000 H   0  0  0  0  0  0  0  0  0  0  0  0
   10.7954   -1.9528    0.0000 H   0  0  0  0  0  0  0  0  0  0  0  0
   10.8924    1.4125    0.0000 H   0  0  0  0  0  0  0  0  0  0  0  0
   12.1445    2.4149    0.0000 H   0  0  0  0  0  0  0  0  0  0  0  0
   13.7268    1.7104    0.0000 H   0  0  0  0  0  0  0  0  0  0  0  0
   12.2936    2.4306    0.0000 H   0  0  0  0  0  0  0  0  0  0  0  0
    5.7350   -2.2596    0.0000 H   0  0  0  0  0  0  0  0  0  0  0  0
   12.6286   -0.7562    0.0000 H   0  0  0  0  0  0  0  0  0  0  0  0
    5.6600   -2.1296    0.0000 H   0  0  0  0  0  0  0  0  0  0  0  0
    6.9860   -5.8987    0.0000 H   0  0  0  0  0  0  0  0  0  0  0  0
    6.0560   -5.3616    0.0000 H   0  0  0  0  0  0  0  0  0  0  0  0
    9.7741   -5.6157    0.0000 H   0  0  0  0  0  0  0  0  0  0  0  0
   10.3110   -4.6857    0.0000 H   0  0  0  0  0  0  0  0  0  0  0  0
   12.0869   -1.1138    0.0000 H   0  0  0  0  0  0  0  0  0  0  0  0
   11.4420   -0.6453    0.0000 H   0  0  0  0  0  0  0  0  0  0  0  0
    3.9177   -1.5190    0.0000 H   0  0  0  0  0  0  0  0  0  0  0  0
    3.2274   -1.9175    0.0000 H   0  0  0  0  0  0  0  0  0  0  0  0
   10.3110   -3.3057    0.0000 H   0  0  0  0  0  0  0  0  0  0  0  0
    2.8850   -2.2595    0.0000 H   0  0  0  0  0  0  0  0  0  0  0  0
    4.2350   -4.5978    0.0000 H   0  0  0  0  0  0  0  0  0  0  0  0
   13.9370    1.8631    0.0000 H   0  0  0  0  0  0  0  0  0  0  0  0
   13.0048   -1.0605    0.0000 H   0  0  0  0  0  0  0  0  0  0  0  0
   13.7330   -1.3847    0.0000 H   0  0  0  0  0  0  0  0  0  0  0  0
   15.4311    1.2800    0.0000 H   0  0  0  0  0  0  0  0  0  0  0  0
    8.3984    0.7744    0.0000 H   0  0  0  0  0  0  0  0  0  0  0  0
   16.5293    3.7465    0.0000 H   0  0  0  0  0  0  0  0  0  0  0  0
   11.4631    3.0138    0.0000 H   0  0  0  0  0  0  0  0  0  0  0  0
   10.5944    2.3826    0.0000 H   0  0  0  0  0  0  0  0  0  0  0  0
   16.4411    3.8679    0.0000 H   0  0  0  0  0  0  0  0  0  0  0  0
   13.7559    3.5857    0.0000 H   0  0  0  0  0  0  0  0  0  0  0  0
   12.8356    3.1580    0.0000 H   0  0  0  0  0  0  0  0  0  0  0  0
    5.0000   -0.7267    0.0000 H   0  0  0  0  0  0  0  0  0  0  0  0
    5.9300   -1.2636    0.0000 H   0  0  0  0  0  0  0  0  0  0  0  0
    3.2024   -5.3384    0.0000 H   0  0  0  0  0  0  0  0  0  0  0  0
    3.8926   -4.9398    0.0000 H   0  0  0  0  0  0  0  0  0  0  0  0
   12.5086   -2.2422    0.0000 H   0  0  0  0  0  0  0  0  0  0  0  0
   14.9210   -1.1858    0.0000 H   0  0  0  0  0  0  0  0  0  0  0  0
   14.8088   -0.1178    0.0000 H   0  0  0  0  0  0  0  0  0  0  0  0
   13.4995    4.8302    0.0000 H   0  0  0  0  0  0  0  0  0  0  0  0
   13.5828    4.0375    0.0000 H   0  0  0  0  0  0  0  0  0  0  0  0
    2.0000   -2.4587    0.0000 H   0  0  0  0  0  0  0  0  0  0  0  0
   16.9812    1.3123    0.0000 H   0  0  0  0  0  0  0  0  0  0  0  0
   17.4303    3.6409    0.0000 H   0  0  0  0  0  0  0  0  0  0  0  0
   16.6191    4.7574    0.0000 H   0  0  0  0  0  0  0  0  0  0  0  0
    2.0000   -5.2647    0.0000 H   0  0  0  0  0  0  0  0  0  0  0  0
   14.0558    5.8987    0.0000 H   0  0  0  0  0  0  0  0  0  0  0  0
  1 24  1  0  0  0  0
  1 31  1  0  0  0  0
  2 25  1  0  0  0  0
  2 38  1  0  0  0  0
  3 31  1  0  0  0  0
  3 33  1  0  0  0  0
  4 30  1  0  0  0  0
  4 34  1  0  0  0  0
  5 34  1  0  0  0  0
  5 39  1  0  0  0  0
  6 27  1  0  0  0  0
  6 79  1  0  0  0  0
  7 36  1  0  0  0  0
  7 45  1  0  0  0  0
  8 38  1  0  0  0  0
  8 44  1  0  0  0  0
  9 32  1  0  0  0  0
  9 86  1  0  0  0  0
 10 37  1  0  0  0  0
 10 92  1  0  0  0  0
 11 45  1  0  0  0  0
 11 50  1  0  0  0  0
 12 41  1  0  0  0  0
 12 97  1  0  0  0  0
 13 43  1  0  0  0  0
 13102  1  0  0  0  0
 14 47  1  0  0  0  0
 14103  1  0  0  0  0
 15 48  1  0  0  0  0
 15104  1  0  0  0  0
 16 49  1  0  0  0  0
 16105  1  0  0  0  0
 17 51  1  0  0  0  0
 17106  1  0  0  0  0
 18 52  1  0  0  0  0
 18107  1  0  0  0  0
 19 26  1  0  0  0  0
 19 71  1  0  0  0  0
 19 72  1  0  0  0  0
 20 28  1  0  0  0  0
 20 73  1  0  0  0  0
 20 74  1  0  0  0  0
 21 35  1  0  0  0  0
 21 88  1  0  0  0  0
 21 89  1  0  0  0  0
 22 40  1  0  0  0  0
 22 93  1  0  0  0  0
 22 94  1  0  0  0  0
 23 46  1  0  0  0  0
 23 98  1  0  0  0  0
 23 99  1  0  0  0  0
 24 25  1  0  0  0  0
 24 27  1  0  0  0  0
 24 53  1  0  0  0  0
 25 26  1  0  0  0  0
 25 54  1  0  0  0  0
 26 29  1  0  0  0  0
 26 55  1  0  0  0  0
 27 28  1  0  0  0  0
 27 56  1  0  0  0  0
 28 29  1  0  0  0  0
 28 57  1  0  0  0  0
 29 58  1  0  0  0  0
 29 59  1  0  0  0  0
 30 32  1  0  0  0  0
 30 33  1  0  0  0  0
 30 60  1  0  0  0  0
 31 32  1  0  0  0  0
 31 61  1  0  0  0  0
 32 62  1  0  0  0  0
 33 41  1  0  0  0  0
 33 63  1  0  0  0  0
 34 35  1  0  0  0  0
 34 64  1  0  0  0  0
 35 37  1  0  0  0  0
 35 65  1  0  0  0  0
 36 37  1  0  0  0  0
 36 39  1  0  0  0  0
 36 66  1  0  0  0  0
 37 67  1  0  0  0  0
 38 40  1  0  0  0  0
 38 68  1  0  0  0  0
 39 46  1  0  0  0  0
 39 69  1  0  0  0  0
 40 42  1  0  0  0  0
 40 70  1  0  0  0  0
 41 75  1  0  0  0  0
 41 76  1  0  0  0  0
 42 43  1  0  0  0  0
 42 77  1  0  0  0  0
 42 78  1  0  0  0  0
 43 44  1  0  0  0  0
 43 80  1  0  0  0  0
 44 51  1  0  0  0  0
 44 81  1  0  0  0  0
 45 47  1  0  0  0  0
 45 82  1  0  0  0  0
 46 83  1  0  0  0  0
 46 84  1  0  0  0  0
 47 48  1  0  0  0  0
 47 85  1  0  0  0  0
 48 49  1  0  0  0  0
 48 87  1  0  0  0  0
 49 50  1  0  0  0  0
 49 90  1  0  0  0  0
 50 52  1  0  0  0  0
 50 91  1  0  0  0  0
 51 95  1  0  0  0  0
 51 96  1  0  0  0  0
 52100  1  0  0  0  0
 52101  1  0  0  0  0
M  END
> <PUBCHEM_COMPOUND_CID>
3940

> <PUBCHEM_COMPOUND_CANONICALIZED>
1

> <PUBCHEM_CACTVS_COMPLEXITY>
1130

> <PUBCHEM_CACTVS_HBOND_ACCEPTOR>
23

> <PUBCHEM_CACTVS_HBOND_DONOR>
15

> <PUBCHEM_CACTVS_ROTATABLE_BOND>
12

> <PUBCHEM_CACTVS_SUBSKEYS>
AAADcfB7vgAAAAAAAAAAAAAAAAAAASAAAAA0SJEAAAAAAAAAAAAAHgAQCAAACDzxgAcACABABgAAAAAAAAAAAAAAAAAAAIAAAAATEAIAwAAjQAAHEAAHAAHwcA0AAAAAAAAAAAAAgAAUCACgAAAAAAAAAA==

> <PUBCHEM_IUPAC_OPENEYE_NAME>
2-[5-amino-2-(aminomethyl)-6-[5-[3,5-diamino-2-[3-amino-5-hydroxy-6-(hydroxymethyl)tetrahydropyran-2-yl]oxy-6-hydroxy-cyclohexoxy]-4-hydroxy-2-(hydroxymethyl)tetrahydrofuran-3-yl]oxy-4-hydroxy-tetrahydropyran-3-yl]oxy-6-(hydroxymethyl)tetrahydropyran-3,4,5-triol

> <PUBCHEM_IUPAC_CAS_NAME>
2-[[5-amino-2-(aminomethyl)-6-[[5-[3,5-diamino-2-[[3-amino-5-hydroxy-6-(hydroxymethyl)-2-oxanyl]oxy]-6-hydroxycyclohexyl]oxy-4-hydroxy-2-(hydroxymethyl)-3-oxolanyl]oxy]-4-hydroxy-3-oxanyl]oxy]-6-(hydroxymethyl)oxane-3,4,5-triol

> <PUBCHEM_IUPAC_NAME>
2-[5-amino-2-(aminomethyl)-6-[5-[3,5-diamino-2-[3-amino-5-hydroxy-6-(hydroxymethyl)oxan-2-yl]oxy-6-hydroxycyclohexyl]oxy-4-hydroxy-2-(hydroxymethyl)oxolan-3-yl]oxy-4-hydroxyoxan-3-yl]oxy-6-(hydroxymethyl)oxane-3,4,5-triol

> <PUBCHEM_IUPAC_SYSTEMATIC_NAME>
2-[2-(aminomethyl)-5-azanyl-6-[5-[3,5-bis(azanyl)-2-[3-azanyl-6-(hydroxymethyl)-5-oxidanyl-oxan-2-yl]oxy-6-oxidanyl-cyclohexyl]oxy-2-(hydroxymethyl)-4-oxidanyl-oxolan-3-yl]oxy-4-oxidanyl-oxan-3-yl]oxy-6-(hydroxymethyl)oxane-3,4,5-triol

> <PUBCHEM_IUPAC_TRADITIONAL_NAME>
2-[5-amino-2-(aminomethyl)-6-[5-[3,5-diamino-2-(3-amino-5-hydroxy-6-methylol-tetrahydropyran-2-yl)oxy-6-hydroxy-cyclohexoxy]-4-hydroxy-2-methylol-tetrahydrofuran-3-yl]oxy-4-hydroxy-tetrahydropyran-3-yl]oxy-6-methylol-tetrahydropyran-3,4,5-triol

> <PUBCHEM_IUPAC_INCHI>
InChI=1S/C29H55N5O18/c30-3-11-23(51-28-20(43)19(42)17(40)13(5-36)47-28)18(41)15(34)27(45-11)50-24-14(6-37)48-29(21(24)44)52-25-16(39)7(31)1-8(32)22(25)49-26-9(33)2-10(38)12(4-35)46-26/h7-29,35-44H,1-6,30-34H2

> <PUBCHEM_IUPAC_INCHIKEY>
DBLVDAUGBTYDFR-UHFFFAOYSA-N

> <PUBCHEM_XLOGP3_AA>
-9.9

> <PUBCHEM_EXACT_MASS>
761.35421

> <PUBCHEM_MOLECULAR_FORMULA>
C29H55N5O18

> <PUBCHEM_MOLECULAR_WEIGHT>
761.7697

> <PUBCHEM_OPENEYE_CAN_SMILES>
C1C(C(C(C(C1N)OC2C(CC(C(O2)CO)O)N)OC3C(C(C(O3)CO)OC4C(C(C(C(O4)CN)OC5C(C(C(C(O5)CO)O)O)O)O)N)O)O)N

> <PUBCHEM_OPENEYE_ISO_SMILES>
C1C(C(C(C(C1N)OC2C(CC(C(O2)CO)O)N)OC3C(C(C(O3)CO)OC4C(C(C(C(O4)CN)OC5C(C(C(C(O5)CO)O)O)O)O)N)O)O)N

> <PUBCHEM_CACTVS_TPSA>
406

> <PUBCHEM_MONOISOTOPIC_WEIGHT>
761.35421

> <PUBCHEM_TOTAL_CHARGE>
0

> <PUBCHEM_HEAVY_ATOM_COUNT>
52

> <PUBCHEM_ATOM_DEF_STEREO_COUNT>
0

> <PUBCHEM_ATOM_UDEF_STEREO_COUNT>
23

> <PUBCHEM_BOND_DEF_STEREO_COUNT>
0

> <PUBCHEM_BOND_UDEF_STEREO_COUNT>
0

> <PUBCHEM_ISOTOPIC_ATOM_COUNT>
0

> <PUBCHEM_COMPONENT_COUNT>
1

> <PUBCHEM_CACTVS_TAUTO_COUNT>
1

> <PUBCHEM_COORDINATE_TYPE>
1
5
255

> <PUBCHEM_BONDANNOTATIONS>
24  53  3
25  54  3
26  55  3
27  56  3
28  57  3
30  60  3
31  61  3
32  62  3
33  63  3
34  64  3
35  65  3
36  66  3
37  67  3
38  68  3
39  69  3
40  70  3
43  80  3
44  81  3
45  82  3
47  85  3
48  87  3
49  90  3
50  91  3

$$$$

