582737
  -OEChem-06241222432D

 60 62  0     1  0  0  0  0  0999 V2000
    7.9244   -1.6088    0.0000 O   0  0  0  0  0  0  0  0  0  0  0  0
    7.6138   -2.5593    0.0000 O   0  0  0  0  0  0  0  0  0  0  0  0
    6.3246   -3.7160    0.0000 O   0  0  0  0  0  0  0  0  0  0  0  0
    4.8959    3.0633    0.0000 O   0  5  0  0  0  0  0  0  0  0  0  0
    5.2531    1.3684    0.0000 O   0  0  0  0  0  0  0  0  0  0  0  0
    9.1206    4.8386    0.0000 O   0  5  0  0  0  0  0  0  0  0  0  0
    7.4742    5.3767    0.0000 O   0  0  0  0  0  0  0  0  0  0  0  0
    6.8994    0.8304    0.0000 N   0  0  0  0  0  0  0  0  0  0  0  0
    6.2781   -1.0707    0.0000 N   0  0  0  0  0  0  0  0  0  0  0  0
    4.6783   -4.7874    0.0000 N   0  0  0  0  0  0  0  0  0  0  0  0
    5.5637    2.3190    0.0000 N   0  3  0  0  0  0  0  0  0  0  0  0
    8.1421    4.6324    0.0000 N   0  3  0  0  0  0  0  0  0  0  0  0
    7.5673    0.0861    0.0000 C   0  0  3  0  0  0  0  0  0  0  0  0
    8.5458    0.2923    0.0000 C   0  0  0  0  0  0  0  0  0  0  0  0
    9.2136   -0.4520    0.0000 C   0  0  0  0  0  0  0  0  0  0  0  0
    5.9674   -2.0212    0.0000 C   0  0  3  0  0  0  0  0  0  0  0  0
    7.2566   -0.8645    0.0000 C   0  0  0  0  0  0  0  0  0  0  0  0
    4.9889   -2.2274    0.0000 C   0  0  0  0  0  0  0  0  0  0  0  0
    4.6783   -3.1780    0.0000 C   0  0  0  0  0  0  0  0  0  0  0  0
   10.1921   -0.2458    0.0000 C   0  0  0  0  0  0  0  0  0  0  0  0
    8.9030   -1.4026    0.0000 C   0  0  0  0  0  0  0  0  0  0  0  0
    3.7320   -3.4827    0.0000 C   0  0  0  0  0  0  0  0  0  0  0  0
    7.2101    1.7809    0.0000 C   0  0  0  0  0  0  0  0  0  0  0  0
    3.7320   -4.4827    0.0000 C   0  0  0  0  0  0  0  0  0  0  0  0
    5.2619   -3.9827    0.0000 C   0  0  0  0  0  0  0  0  0  0  0  0
    6.6353   -2.7655    0.0000 C   0  0  0  0  0  0  0  0  0  0  0  0
    2.8660   -2.9827    0.0000 C   0  0  0  0  0  0  0  0  0  0  0  0
    6.5422    2.5252    0.0000 C   0  0  0  0  0  0  0  0  0  0  0  0
    8.1886    1.9871    0.0000 C   0  0  0  0  0  0  0  0  0  0  0  0
    2.8660   -4.9827    0.0000 C   0  0  0  0  0  0  0  0  0  0  0  0
    2.0000   -3.4827    0.0000 C   0  0  0  0  0  0  0  0  0  0  0  0
    6.8529    3.4757    0.0000 C   0  0  0  0  0  0  0  0  0  0  0  0
    2.0000   -4.4827    0.0000 C   0  0  0  0  0  0  0  0  0  0  0  0
    8.4993    2.9376    0.0000 C   0  0  0  0  0  0  0  0  0  0  0  0
    7.8314    3.6819    0.0000 C   0  0  0  0  0  0  0  0  0  0  0  0
    6.9606   -0.0418    0.0000 H   0  0  0  0  0  0  0  0  0  0  0  0
    9.0721    0.6199    0.0000 H   0  0  0  0  0  0  0  0  0  0  0  0
    8.3145    0.8675    0.0000 H   0  0  0  0  0  0  0  0  0  0  0  0
    9.6277   -0.9135    0.0000 H   0  0  0  0  0  0  0  0  0  0  0  0
    5.5534   -1.5597    0.0000 H   0  0  0  0  0  0  0  0  0  0  0  0
    4.9684   -1.6078    0.0000 H   0  0  0  0  0  0  0  0  0  0  0  0
    4.3751   -2.1401    0.0000 H   0  0  0  0  0  0  0  0  0  0  0  0
    6.2928    0.7025    0.0000 H   0  0  0  0  0  0  0  0  0  0  0  0
    5.8640   -0.6092    0.0000 H   0  0  0  0  0  0  0  0  0  0  0  0
   10.3200   -0.8525    0.0000 H   0  0  0  0  0  0  0  0  0  0  0  0
    8.3136   -1.2099    0.0000 H   0  0  0  0  0  0  0  0  0  0  0  0
    8.7104   -1.9919    0.0000 H   0  0  0  0  0  0  0  0  0  0  0  0
    9.4923   -1.5952    0.0000 H   0  0  0  0  0  0  0  0  0  0  0  0
   10.7988   -0.1180    0.0000 H   0  0  0  0  0  0  0  0  0  0  0  0
   10.0643    0.3609    0.0000 H   0  0  0  0  0  0  0  0  0  0  0  0
    5.8819   -3.9827    0.0000 H   0  0  0  0  0  0  0  0  0  0  0  0
    4.8709   -5.3767    0.0000 H   0  0  0  0  0  0  0  0  0  0  0  0
    2.8660   -2.3627    0.0000 H   0  0  0  0  0  0  0  0  0  0  0  0
    8.6027    1.5256    0.0000 H   0  0  0  0  0  0  0  0  0  0  0  0
    2.8660   -5.6027    0.0000 H   0  0  0  0  0  0  0  0  0  0  0  0
    1.4631   -3.1727    0.0000 H   0  0  0  0  0  0  0  0  0  0  0  0
    6.4388    3.9372    0.0000 H   0  0  0  0  0  0  0  0  0  0  0  0
    1.4631   -4.7927    0.0000 H   0  0  0  0  0  0  0  0  0  0  0  0
    9.1059    3.0655    0.0000 H   0  0  0  0  0  0  0  0  0  0  0  0
    8.0279   -3.0208    0.0000 H   0  0  0  0  0  0  0  0  0  0  0  0
  1 17  2  0  0  0  0
  2 26  1  0  0  0  0
  2 60  1  0  0  0  0
  3 26  2  0  0  0  0
  4 11  1  0  0  0  0
  5 11  2  0  0  0  0
  6 12  1  0  0  0  0
  7 12  2  0  0  0  0
  8 13  1  0  0  0  0
  8 23  1  0  0  0  0
  8 43  1  0  0  0  0
  9 16  1  0  0  0  0
  9 17  1  0  0  0  0
  9 44  1  0  0  0  0
 10 24  1  0  0  0  0
 10 25  1  0  0  0  0
 10 52  1  0  0  0  0
 11 28  1  0  0  0  0
 12 35  1  0  0  0  0
 13 14  1  0  0  0  0
 13 17  1  0  0  0  0
 13 36  1  0  0  0  0
 14 15  1  0  0  0  0
 14 37  1  0  0  0  0
 14 38  1  0  0  0  0
 15 20  1  0  0  0  0
 15 21  1  0  0  0  0
 15 39  1  0  0  0  0
 16 18  1  0  0  0  0
 16 26  1  0  0  0  0
 16 40  1  0  0  0  0
 18 19  1  0  0  0  0
 18 41  1  0  0  0  0
 18 42  1  0  0  0  0
 19 22  1  0  0  0  0
 19 25  2  0  0  0  0
 20 45  1  0  0  0  0
 20 49  1  0  0  0  0
 20 50  1  0  0  0  0
 21 46  1  0  0  0  0
 21 47  1  0  0  0  0
 21 48  1  0  0  0  0
 22 24  1  0  0  0  0
 22 27  2  0  0  0  0
 23 28  2  0  0  0  0
 23 29  1  0  0  0  0
 24 30  2  0  0  0  0
 25 51  1  0  0  0  0
 27 31  1  0  0  0  0
 27 53  1  0  0  0  0
 28 32  1  0  0  0  0
 29 34  2  0  0  0  0
 29 54  1  0  0  0  0
 30 33  1  0  0  0  0
 30 55  1  0  0  0  0
 31 33  2  0  0  0  0
 31 56  1  0  0  0  0
 32 35  2  0  0  0  0
 32 57  1  0  0  0  0
 33 58  1  0  0  0  0
 34 35  1  0  0  0  0
 34 59  1  0  0  0  0
M  CHG  4   4  -1   6  -1  11   1  12   1
M  END
> <PUBCHEM_COMPOUND_CID>
582737

> <PUBCHEM_COMPOUND_CANONICALIZED>
1

> <PUBCHEM_CACTVS_COMPLEXITY>
783

> <PUBCHEM_CACTVS_HBOND_ACCEPTOR>
8

> <PUBCHEM_CACTVS_HBOND_DONOR>
4

> <PUBCHEM_CACTVS_ROTATABLE_BOND>
9

> <PUBCHEM_CACTVS_SUBSKEYS>
AAADceB7uAAAAAAAAAAAAAAAAAAAAWAAAAAwYAAAAAAAAFgB9AAAHgAUCAAADSjBngQ+yPLZ0gCpAzX3XwCCgCAxAiAo2aG4dJoKYPLA0fGUYAhkloDYyAeY2fKOgACAAAQCACAAAQAACAQAQAAAAAAAAA==

> <PUBCHEM_IUPAC_OPENEYE_NAME>
2-[[2-(2,4-dinitroanilino)-4-methyl-pentanoyl]amino]-3-(1H-indol-3-yl)propanoic acid

> <PUBCHEM_IUPAC_CAS_NAME>
2-[[2-(2,4-dinitroanilino)-4-methyl-1-oxopentyl]amino]-3-(1H-indol-3-yl)propanoic acid

> <PUBCHEM_IUPAC_NAME>
2-[[2-(2,4-dinitroanilino)-4-methylpentanoyl]amino]-3-(1H-indol-3-yl)propanoic acid

> <PUBCHEM_IUPAC_SYSTEMATIC_NAME>
2-[[2-[(2,4-dinitrophenyl)amino]-4-methyl-pentanoyl]amino]-3-(1H-indol-3-yl)propanoic acid

> <PUBCHEM_IUPAC_TRADITIONAL_NAME>
2-[[2-(2,4-dinitroanilino)-4-methyl-pentanoyl]amino]-3-(1H-indol-3-yl)propionic acid

> <PUBCHEM_IUPAC_INCHI>
InChI=1S/C23H25N5O7/c1-13(2)9-19(25-18-8-7-15(27(32)33)11-21(18)28(34)35)22(29)26-20(23(30)31)10-14-12-24-17-6-4-3-5-16(14)17/h3-8,11-13,19-20,24-25H,9-10H2,1-2H3,(H,26,29)(H,30,31)

> <PUBCHEM_IUPAC_INCHIKEY>
ARRPEFMSZIZNMR-UHFFFAOYSA-N

> <PUBCHEM_XLOGP3>
4.3

> <PUBCHEM_EXACT_MASS>
483.175398

> <PUBCHEM_MOLECULAR_FORMULA>
C23H25N5O7

> <PUBCHEM_MOLECULAR_WEIGHT>
483.4739

> <PUBCHEM_OPENEYE_CAN_SMILES>
CC(C)CC(C(=O)NC(CC1=CNC2=CC=CC=C21)C(=O)O)NC3=C(C=C(C=C3)[N+](=O)[O-])[N+](=O)[O-]

> <PUBCHEM_OPENEYE_ISO_SMILES>
CC(C)CC(C(=O)NC(CC1=CNC2=CC=CC=C21)C(=O)O)NC3=C(C=C(C=C3)[N+](=O)[O-])[N+](=O)[O-]

> <PUBCHEM_CACTVS_TPSA>
186

> <PUBCHEM_MONOISOTOPIC_WEIGHT>
483.175398

> <PUBCHEM_TOTAL_CHARGE>
0

> <PUBCHEM_HEAVY_ATOM_COUNT>
35

> <PUBCHEM_ATOM_DEF_STEREO_COUNT>
0

> <PUBCHEM_ATOM_UDEF_STEREO_COUNT>
2

> <PUBCHEM_BOND_DEF_STEREO_COUNT>
0

> <PUBCHEM_BOND_UDEF_STEREO_COUNT>
0

> <PUBCHEM_ISOTOPIC_ATOM_COUNT>
0

> <PUBCHEM_COMPONENT_COUNT>
1

> <PUBCHEM_CACTVS_TAUTO_COUNT>
2

> <PUBCHEM_COORDINATE_TYPE>
1
5
255

> <PUBCHEM_BONDANNOTATIONS>
10  24  8
10  25  8
13  14  3
16  18  3
19  22  8
19  25  8
22  24  8
22  27  8
23  28  8
23  29  8
24  30  8
27  31  8
28  32  8
29  34  8
30  33  8
31  33  8
32  35  8
34  35  8

$$$$

