9158
  -OEChem-06261203282D

 32 36  0     0  0  0  0  0  0999 V2000
    3.8839   -1.8653    0.0000 C   0  0  0  0  0  0  0  0  0  0  0  0
    4.3839   -0.3265    0.0000 C   0  0  0  0  0  0  0  0  0  0  0  0
    3.3839   -0.3265    0.0000 C   0  0  0  0  0  0  0  0  0  0  0  0
    3.0749   -1.2775    0.0000 C   0  0  0  0  0  0  0  0  0  0  0  0
    4.6929   -1.2775    0.0000 C   0  0  0  0  0  0  0  0  0  0  0  0
    3.7910   -2.9028    0.0000 C   0  0  0  0  0  0  0  0  0  0  0  0
    4.9185    0.5675    0.0000 C   0  0  0  0  0  0  0  0  0  0  0  0
    2.8492    0.5675    0.0000 C   0  0  0  0  0  0  0  0  0  0  0  0
    4.4047    1.4735    0.0000 C   0  0  0  0  0  0  0  0  0  0  0  0
    3.3631    1.4735    0.0000 C   0  0  0  0  0  0  0  0  0  0  0  0
    5.5492   -1.8085    0.0000 C   0  0  0  0  0  0  0  0  0  0  0  0
    2.1169   -1.6865    0.0000 C   0  0  0  0  0  0  0  0  0  0  0  0
    4.6946   -3.3485    0.0000 C   0  0  0  0  0  0  0  0  0  0  0  0
    2.8427   -3.3338    0.0000 C   0  0  0  0  0  0  0  0  0  0  0  0
    2.0000   -2.7215    0.0000 C   0  0  0  0  0  0  0  0  0  0  0  0
    5.5500   -2.8161    0.0000 C   0  0  0  0  0  0  0  0  0  0  0  0
    4.9616    2.4047    0.0000 C   0  0  0  0  0  0  0  0  0  0  0  0
    2.8061    2.4047    0.0000 C   0  0  0  0  0  0  0  0  0  0  0  0
    3.3414    3.3485    0.0000 C   0  0  0  0  0  0  0  0  0  0  0  0
    4.4264    3.3485    0.0000 C   0  0  0  0  0  0  0  0  0  0  0  0
    5.5385    0.5603    0.0000 H   0  0  0  0  0  0  0  0  0  0  0  0
    2.2293    0.5603    0.0000 H   0  0  0  0  0  0  0  0  0  0  0  0
    6.0908   -1.5068    0.0000 H   0  0  0  0  0  0  0  0  0  0  0  0
    1.6195   -1.3163    0.0000 H   0  0  0  0  0  0  0  0  0  0  0  0
    4.7252   -3.9677    0.0000 H   0  0  0  0  0  0  0  0  0  0  0  0
    2.7803   -3.9506    0.0000 H   0  0  0  0  0  0  0  0  0  0  0  0
    6.0921   -3.1169    0.0000 H   0  0  0  0  0  0  0  0  0  0  0  0
    1.4326   -2.9715    0.0000 H   0  0  0  0  0  0  0  0  0  0  0  0
    5.5816    2.3975    0.0000 H   0  0  0  0  0  0  0  0  0  0  0  0
    2.1862    2.3975    0.0000 H   0  0  0  0  0  0  0  0  0  0  0  0
    4.7384    3.8842    0.0000 H   0  0  0  0  0  0  0  0  0  0  0  0
    3.0293    3.8842    0.0000 H   0  0  0  0  0  0  0  0  0  0  0  0
  1  4  1  0  0  0  0
  1  5  1  0  0  0  0
  1  6  2  0  0  0  0
  2  3  1  0  0  0  0
  2  5  1  0  0  0  0
  2  7  2  0  0  0  0
  3  4  1  0  0  0  0
  3  8  2  0  0  0  0
  4 12  2  0  0  0  0
  5 11  2  0  0  0  0
  6 13  1  0  0  0  0
  6 14  1  0  0  0  0
  7  9  1  0  0  0  0
  7 21  1  0  0  0  0
  8 10  1  0  0  0  0
  8 22  1  0  0  0  0
  9 10  1  0  0  0  0
  9 17  2  0  0  0  0
 10 18  2  0  0  0  0
 11 16  1  0  0  0  0
 11 23  1  0  0  0  0
 12 15  1  0  0  0  0
 12 24  1  0  0  0  0
 13 16  2  0  0  0  0
 13 25  1  0  0  0  0
 14 15  2  0  0  0  0
 14 26  1  0  0  0  0
 15 28  1  0  0  0  0
 16 27  1  0  0  0  0
 17 20  1  0  0  0  0
 17 29  1  0  0  0  0
 18 19  1  0  0  0  0
 18 30  1  0  0  0  0
 19 20  2  0  0  0  0
 19 32  1  0  0  0  0
 20 31  1  0  0  0  0
M  END
> <PUBCHEM_COMPOUND_CID>
9158

> <PUBCHEM_COMPOUND_CANONICALIZED>
1

> <PUBCHEM_CACTVS_COMPLEXITY>
338

> <PUBCHEM_CACTVS_HBOND_ACCEPTOR>
0

> <PUBCHEM_CACTVS_HBOND_DONOR>
0

> <PUBCHEM_CACTVS_ROTATABLE_BOND>
0

> <PUBCHEM_CACTVS_SUBSKEYS>
AAADccB4AAAAAAAAAAAAAAAAAAAAAYAAAAAwYMGAAAAAAGDBVAAAGAAAAAAADACAGAAwAMAAAACAAiBCAAACAAAgAAAIiAAAAIgIICKAERCAIAAggAAIiAcAgMAOwAACAAAQAACAAAQAACAAAQAACAAAAA==

> <PUBCHEM_IUPAC_OPENEYE_NAME>
benzo[k]fluoranthene

> <PUBCHEM_IUPAC_CAS_NAME>
benzo[k]fluoranthene

> <PUBCHEM_IUPAC_NAME>
benzo[k]fluoranthene

> <PUBCHEM_IUPAC_SYSTEMATIC_NAME>
benzo[k]fluoranthene

> <PUBCHEM_IUPAC_TRADITIONAL_NAME>
benzo[k]fluoranthene

> <PUBCHEM_IUPAC_INCHI>
InChI=1S/C20H12/c1-2-6-15-12-19-17-10-4-8-13-7-3-9-16(20(13)17)18(19)11-14(15)5-1/h1-12H

> <PUBCHEM_IUPAC_INCHIKEY>
HAXBIWFMXWRORI-UHFFFAOYSA-N

> <PUBCHEM_XLOGP3>
6.4

> <PUBCHEM_EXACT_MASS>
252.0939

> <PUBCHEM_MOLECULAR_FORMULA>
C20H12

> <PUBCHEM_MOLECULAR_WEIGHT>
252.30928

> <PUBCHEM_OPENEYE_CAN_SMILES>
C1=CC=C2C=C3C4=CC=CC5=C4C(=CC=C5)C3=CC2=C1

> <PUBCHEM_OPENEYE_ISO_SMILES>
C1=CC=C2C=C3C4=CC=CC5=C4C(=CC=C5)C3=CC2=C1

> <PUBCHEM_CACTVS_TPSA>
0

> <PUBCHEM_MONOISOTOPIC_WEIGHT>
252.0939

> <PUBCHEM_TOTAL_CHARGE>
0

> <PUBCHEM_HEAVY_ATOM_COUNT>
20

> <PUBCHEM_ATOM_DEF_STEREO_COUNT>
0

> <PUBCHEM_ATOM_UDEF_STEREO_COUNT>
0

> <PUBCHEM_BOND_DEF_STEREO_COUNT>
0

> <PUBCHEM_BOND_UDEF_STEREO_COUNT>
0

> <PUBCHEM_ISOTOPIC_ATOM_COUNT>
0

> <PUBCHEM_COMPONENT_COUNT>
1

> <PUBCHEM_CACTVS_TAUTO_COUNT>
1

> <PUBCHEM_COORDINATE_TYPE>
1
5
255

> <PUBCHEM_BONDANNOTATIONS>
1  4  8
1  5  8
1  6  8
10  18  8
11  16  8
12  15  8
13  16  8
14  15  8
17  20  8
18  19  8
19  20  8
2  3  8
2  7  8
3  8  8
4  12  8
5  11  8
6  13  8
6  14  8
7  9  8
8  10  8
9  10  8
9  17  8

$$$$

