10878
  -OEChem-06261205042D

 18 13  0     0  0  0  0  0  0999 V2000
    1.7071    1.7071    0.0000 Al  0  5  0  0  0  0  0  0  0  0  0  0
    1.3050    5.1217    0.0000 Na  0  3  0  0  0  0  0  0  0  0  0  0
    1.7071    0.7071    0.0000 O   0  0  0  0  0  0  0  0  0  0  0  0
    0.7071    1.7071    0.0000 O   0  0  0  0  0  0  0  0  0  0  0  0
    2.5731    2.2071    0.0000 O   0  0  0  0  0  0  0  0  0  0  0  0
    1.3651    2.6468    0.0000 O   0  0  0  0  0  0  0  0  0  0  0  0
    0.0000    0.0000    0.0000 O   0  0  0  0  0  0  0  0  0  0  0  0
    0.7071    0.7071    0.0000 C   0  0  0  0  0  0  0  0  0  0  0  0
    1.1702    2.0171    0.0000 H   0  0  0  0  0  0  0  0  0  0  0  0
    2.0171    1.1702    0.0000 H   0  0  0  0  0  0  0  0  0  0  0  0
    1.9192    2.2897    0.0000 H   0  0  0  0  0  0  0  0  0  0  0  0
    2.3177    1.5994    0.0000 H   0  0  0  0  0  0  0  0  0  0  0  0
    2.1455    0.2687    0.0000 H   0  0  0  0  0  0  0  0  0  0  0  0
    0.2687    2.1455    0.0000 H   0  0  0  0  0  0  0  0  0  0  0  0
    2.5731    2.8271    0.0000 H   0  0  0  0  0  0  0  0  0  0  0  0
    3.1101    1.8971    0.0000 H   0  0  0  0  0  0  0  0  0  0  0  0
    0.7545    2.7545    0.0000 H   0  0  0  0  0  0  0  0  0  0  0  0
    1.7636    3.1217    0.0000 H   0  0  0  0  0  0  0  0  0  0  0  0
  1  9  1  0  0  0  0
  1 10  1  0  0  0  0
  1 11  1  0  0  0  0
  1 12  1  0  0  0  0
  3  8  1  0  0  0  0
  3 13  1  0  0  0  0
  4  8  1  0  0  0  0
  4 14  1  0  0  0  0
  5 15  1  0  0  0  0
  5 16  1  0  0  0  0
  6 17  1  0  0  0  0
  6 18  1  0  0  0  0
  7  8  2  0  0  0  0
M  CHG  2   1  -1   2   1
M  END
> <PUBCHEM_COMPOUND_CID>
10878

> <PUBCHEM_COMPOUND_CANONICALIZED>
1

> <PUBCHEM_CACTVS_COMPLEXITY>
31.1

> <PUBCHEM_CACTVS_HBOND_ACCEPTOR>
6

> <PUBCHEM_CACTVS_HBOND_DONOR>
4

> <PUBCHEM_CACTVS_ROTATABLE_BOND>
0

> <PUBCHEM_CACTVS_SUBSKEYS>
AAADccAAOCAAABAAAAAAAAAAAABIAAAAAAAAAAAAAAAAAAAAAAAAAgAACAIAAAAAAAAACAAAAgAIAAAACAAAAAAAAAAAAAAAAAAAAAAAAAAAAAAAAAAAAAAAAAAAAAAAAAAAAAAAAAAAAAAAAAAAAAAAAA==

> <PUBCHEM_IUPAC_OPENEYE_NAME>
sodium; alumanuide; carbonic acid; dihydrate

> <PUBCHEM_IUPAC_CAS_NAME>
sodium; alumanuide; carbonic acid; dihydrate

> <PUBCHEM_IUPAC_NAME>
sodium; alumanuide; carbonic acid; dihydrate

> <PUBCHEM_IUPAC_SYSTEMATIC_NAME>
sodium; alumanuide; carbonic acid; dihydrate

> <PUBCHEM_IUPAC_TRADITIONAL_NAME>
sodium; alumanuide; carbonic acid; dihydrate

> <PUBCHEM_IUPAC_INCHI>
InChI=1S/CH2O3.Al.Na.2H2O.4H/c2-1(3)4;;;;;;;;/h(H2,2,3,4);;;2*1H2;;;;/q;-1;+1;;;;;;

> <PUBCHEM_IUPAC_INCHIKEY>
VASVWIRYJGWLJG-UHFFFAOYSA-N

> <PUBCHEM_EXACT_MASS>
152.024131

> <PUBCHEM_MOLECULAR_FORMULA>
CH10AlNaO5

> <PUBCHEM_MOLECULAR_WEIGHT>
152.058408

> <PUBCHEM_OPENEYE_CAN_SMILES>
C(=O)(O)O.O.O.[Na+].[AlH4-]

> <PUBCHEM_OPENEYE_ISO_SMILES>
C(=O)(O)O.O.O.[Na+].[AlH4-]

> <PUBCHEM_CACTVS_TPSA>
59.5

> <PUBCHEM_MONOISOTOPIC_WEIGHT>
152.024131

> <PUBCHEM_TOTAL_CHARGE>
0

> <PUBCHEM_HEAVY_ATOM_COUNT>
8

> <PUBCHEM_ATOM_DEF_STEREO_COUNT>
0

> <PUBCHEM_ATOM_UDEF_STEREO_COUNT>
0

> <PUBCHEM_BOND_DEF_STEREO_COUNT>
0

> <PUBCHEM_BOND_UDEF_STEREO_COUNT>
0

> <PUBCHEM_ISOTOPIC_ATOM_COUNT>
0

> <PUBCHEM_COMPONENT_COUNT>
5

> <PUBCHEM_CACTVS_TAUTO_COUNT>
2

> <PUBCHEM_NONSTANDARDBOND>
1  3  6
1  4  6
1  5  6
1  6  6

> <PUBCHEM_COORDINATE_TYPE>
1
5
255

> <PUBCHEM_BONDANNOTATIONS>
1  3  4
1  4  4
1  5  4
1  6  4

$$$$

