11228
  -OEChem-06261205252D

 41 40  0     1  0  0  0  0  0999 V2000
    6.3301    1.0485    0.0000 P   0  0  3  0  0  0  0  0  0  0  0  0
    4.5981    0.0485    0.0000 P   0  0  0  0  0  0  0  0  0  0  0  0
    7.1962    1.5485    0.0000 O   0  0  0  0  0  0  0  0  0  0  0  0
    3.7320    0.5485    0.0000 O   0  0  0  0  0  0  0  0  0  0  0  0
    4.5981   -0.9515    0.0000 O   0  0  0  0  0  0  0  0  0  0  0  0
    5.8301    1.9145    0.0000 O   0  0  0  0  0  0  0  0  0  0  0  0
    6.8301    0.1825    0.0000 O   0  0  0  0  0  0  0  0  0  0  0  0
    5.4641    0.5485    0.0000 N   0  3  0  0  0  0  0  0  0  0  0  0
    4.9641    1.4145    0.0000 C   0  0  0  0  0  0  0  0  0  0  0  0
    5.9641   -0.3175    0.0000 C   0  0  0  0  0  0  0  0  0  0  0  0
    3.9641    1.4145    0.0000 C   0  0  0  0  0  0  0  0  0  0  0  0
    5.4641   -1.1835    0.0000 C   0  0  0  0  0  0  0  0  0  0  0  0
    2.8660    0.0485    0.0000 C   0  0  0  0  0  0  0  0  0  0  0  0
    3.7320   -1.4515    0.0000 C   0  0  0  0  0  0  0  0  0  0  0  0
    8.0622    1.0485    0.0000 C   0  0  0  0  0  0  0  0  0  0  0  0
    2.0000    0.5485    0.0000 C   0  0  0  0  0  0  0  0  0  0  0  0
    3.7320   -2.4515    0.0000 C   0  0  0  0  0  0  0  0  0  0  0  0
    6.4390   -0.7160    0.0000 H   0  0  0  0  0  0  0  0  0  0  0  0
    6.4390    0.0810    0.0000 H   0  0  0  0  0  0  0  0  0  0  0  0
    5.5467    1.6266    0.0000 H   0  0  0  0  0  0  0  0  0  0  0  0
    4.8564    2.0251    0.0000 H   0  0  0  0  0  0  0  0  0  0  0  0
    3.9641    2.0345    0.0000 H   0  0  0  0  0  0  0  0  0  0  0  0
    3.3441    1.4145    0.0000 H   0  0  0  0  0  0  0  0  0  0  0  0
    3.9641    0.7945    0.0000 H   0  0  0  0  0  0  0  0  0  0  0  0
    4.9272   -0.8735    0.0000 H   0  0  0  0  0  0  0  0  0  0  0  0
    5.1541   -1.7205    0.0000 H   0  0  0  0  0  0  0  0  0  0  0  0
    6.0010   -1.4935    0.0000 H   0  0  0  0  0  0  0  0  0  0  0  0
    6.1401    2.4515    0.0000 H   0  0  0  0  0  0  0  0  0  0  0  0
    3.5200   -0.8689    0.0000 H   0  0  0  0  0  0  0  0  0  0  0  0
    3.1215   -1.5591    0.0000 H   0  0  0  0  0  0  0  0  0  0  0  0
    2.4675   -0.4264    0.0000 H   0  0  0  0  0  0  0  0  0  0  0  0
    3.2646   -0.4264    0.0000 H   0  0  0  0  0  0  0  0  0  0  0  0
    7.7522    0.5116    0.0000 H   0  0  0  0  0  0  0  0  0  0  0  0
    8.5991    0.7385    0.0000 H   0  0  0  0  0  0  0  0  0  0  0  0
    8.3722    1.5855    0.0000 H   0  0  0  0  0  0  0  0  0  0  0  0
    2.3100    1.0855    0.0000 H   0  0  0  0  0  0  0  0  0  0  0  0
    1.4631    0.8585    0.0000 H   0  0  0  0  0  0  0  0  0  0  0  0
    1.6900    0.0116    0.0000 H   0  0  0  0  0  0  0  0  0  0  0  0
    3.1120   -2.4515    0.0000 H   0  0  0  0  0  0  0  0  0  0  0  0
    3.7320   -3.0715    0.0000 H   0  0  0  0  0  0  0  0  0  0  0  0
    4.3520   -2.4515    0.0000 H   0  0  0  0  0  0  0  0  0  0  0  0
  1  3  1  0  0  0  0
  1  6  1  0  0  0  0
  1  7  2  0  0  0  0
  1  8  1  0  0  0  0
  2  4  1  0  0  0  0
  2  5  1  0  0  0  0
  2  8  1  0  0  0  0
  3 15  1  0  0  0  0
  4 13  1  0  0  0  0
  5 14  1  0  0  0  0
  6 28  1  0  0  0  0
  8  9  1  0  0  0  0
  8 10  1  0  0  0  0
  9 11  1  0  0  0  0
  9 20  1  0  0  0  0
  9 21  1  0  0  0  0
 10 12  1  0  0  0  0
 10 18  1  0  0  0  0
 10 19  1  0  0  0  0
 11 22  1  0  0  0  0
 11 23  1  0  0  0  0
 11 24  1  0  0  0  0
 12 25  1  0  0  0  0
 12 26  1  0  0  0  0
 12 27  1  0  0  0  0
 13 16  1  0  0  0  0
 13 31  1  0  0  0  0
 13 32  1  0  0  0  0
 14 17  1  0  0  0  0
 14 29  1  0  0  0  0
 14 30  1  0  0  0  0
 15 33  1  0  0  0  0
 15 34  1  0  0  0  0
 15 35  1  0  0  0  0
 16 36  1  0  0  0  0
 16 37  1  0  0  0  0
 16 38  1  0  0  0  0
 17 39  1  0  0  0  0
 17 40  1  0  0  0  0
 17 41  1  0  0  0  0
M  CHG  1   8   1
M  END
> <PUBCHEM_COMPOUND_CID>
11228

> <PUBCHEM_COMPOUND_CANONICALIZED>
1

> <PUBCHEM_CACTVS_COMPLEXITY>
254

> <PUBCHEM_CACTVS_HBOND_ACCEPTOR>
5

> <PUBCHEM_CACTVS_HBOND_DONOR>
1

> <PUBCHEM_CACTVS_ROTATABLE_BOND>
9

> <PUBCHEM_CACTVS_SUBSKEYS>
AAADceByOAMAAAAAAAAAAAAAAAAAAAAAAAAAAAAAAAAAAAAAAAAAHgAAiCAAAADhgAYCAAIAARAAQAAAAIAAAAAAAAAAAAAIAAAAAAAAAAAAAAAAAACAAAAAAAAAAAAAAAAAAAAAAAAAAAAAAAAAAAAAAA==

> <PUBCHEM_IUPAC_OPENEYE_NAME>
diethoxyphosphanyl-diethyl-[hydroxy(methoxy)phosphoryl]ammonium

> <PUBCHEM_IUPAC_CAS_NAME>
diethoxyphosphino-diethyl-[hydroxy(methoxy)phosphoryl]ammonium

> <PUBCHEM_IUPAC_NAME>
diethoxyphosphanyl-diethyl-[hydroxy(methoxy)phosphoryl]azanium

> <PUBCHEM_IUPAC_SYSTEMATIC_NAME>
diethoxyphosphanyl-diethyl-[methoxy(oxidanyl)phosphoryl]azanium

> <PUBCHEM_IUPAC_TRADITIONAL_NAME>
diethoxyphosphino-diethyl-[hydroxy(methoxy)phosphoryl]ammonium

> <PUBCHEM_IUPAC_INCHI>
InChI=1S/C9H23NO5P2/c1-6-10(7-2,17(11,12)13-5)16(14-8-3)15-9-4/h6-9H2,1-5H3/p+1

> <PUBCHEM_IUPAC_INCHIKEY>
ZQMSSVRFIFUJMZ-UHFFFAOYSA-O

> <PUBCHEM_XLOGP3_AA>
0.6

> <PUBCHEM_EXACT_MASS>
288.112971

> <PUBCHEM_MOLECULAR_FORMULA>
C9H24NO5P2+

> <PUBCHEM_MOLECULAR_WEIGHT>
288.238084

> <PUBCHEM_OPENEYE_CAN_SMILES>
CC[N+](CC)(P(OCC)OCC)P(=O)(O)OC

> <PUBCHEM_OPENEYE_ISO_SMILES>
CC[N+](CC)(P(OCC)OCC)P(=O)(O)OC

> <PUBCHEM_CACTVS_TPSA>
65

> <PUBCHEM_MONOISOTOPIC_WEIGHT>
288.112971

> <PUBCHEM_TOTAL_CHARGE>
1

> <PUBCHEM_HEAVY_ATOM_COUNT>
17

> <PUBCHEM_ATOM_DEF_STEREO_COUNT>
0

> <PUBCHEM_ATOM_UDEF_STEREO_COUNT>
0

> <PUBCHEM_BOND_DEF_STEREO_COUNT>
0

> <PUBCHEM_BOND_UDEF_STEREO_COUNT>
0

> <PUBCHEM_ISOTOPIC_ATOM_COUNT>
0

> <PUBCHEM_COMPONENT_COUNT>
1

> <PUBCHEM_CACTVS_TAUTO_COUNT>
1

> <PUBCHEM_COORDINATE_TYPE>
1
5
255

$$$$

