582760
  -OEChem-06241222442D

 31 32  0     0  0  0  0  0  0999 V2000
    9.2619   -1.1300    0.0000 O   0  0  0  0  0  0  0  0  0  0  0  0
    7.7619   -1.9961    0.0000 O   0  0  0  0  0  0  0  0  0  0  0  0
    4.6783    1.4067    0.0000 N   0  0  0  0  0  0  0  0  0  0  0  0
    6.2619    0.6020    0.0000 C   0  0  0  0  0  0  0  0  0  0  0  0
    5.2619    0.6020    0.0000 C   0  0  0  0  0  0  0  0  0  0  0  0
    6.7619   -0.2640    0.0000 C   0  0  0  0  0  0  0  0  0  0  0  0
    3.7320    1.1020    0.0000 C   0  0  0  0  0  0  0  0  0  0  0  0
    3.7320    0.1020    0.0000 C   0  0  0  0  0  0  0  0  0  0  0  0
    4.6783   -0.2027    0.0000 C   0  0  0  0  0  0  0  0  0  0  0  0
    7.7619   -0.2640    0.0000 C   0  0  0  0  0  0  0  0  0  0  0  0
    2.8660    1.6020    0.0000 C   0  0  0  0  0  0  0  0  0  0  0  0
    2.8660   -0.3980    0.0000 C   0  0  0  0  0  0  0  0  0  0  0  0
    2.0000    1.1020    0.0000 C   0  0  0  0  0  0  0  0  0  0  0  0
    2.0000    0.1020    0.0000 C   0  0  0  0  0  0  0  0  0  0  0  0
    8.2619   -1.1300    0.0000 C   0  0  0  0  0  0  0  0  0  0  0  0
    9.7619   -1.9961    0.0000 C   0  0  0  0  0  0  0  0  0  0  0  0
    6.8445    0.8141    0.0000 H   0  0  0  0  0  0  0  0  0  0  0  0
    6.1542    1.2126    0.0000 H   0  0  0  0  0  0  0  0  0  0  0  0
    6.1793   -0.4761    0.0000 H   0  0  0  0  0  0  0  0  0  0  0  0
    6.8695   -0.8746    0.0000 H   0  0  0  0  0  0  0  0  0  0  0  0
    4.8709    1.9961    0.0000 H   0  0  0  0  0  0  0  0  0  0  0  0
    4.8709   -0.7920    0.0000 H   0  0  0  0  0  0  0  0  0  0  0  0
    8.3445   -0.0520    0.0000 H   0  0  0  0  0  0  0  0  0  0  0  0
    7.6542    0.3466    0.0000 H   0  0  0  0  0  0  0  0  0  0  0  0
    2.8660    2.2220    0.0000 H   0  0  0  0  0  0  0  0  0  0  0  0
    2.8660   -1.0180    0.0000 H   0  0  0  0  0  0  0  0  0  0  0  0
    1.4631    1.4120    0.0000 H   0  0  0  0  0  0  0  0  0  0  0  0
    1.4631   -0.2080    0.0000 H   0  0  0  0  0  0  0  0  0  0  0  0
    9.2249   -2.3061    0.0000 H   0  0  0  0  0  0  0  0  0  0  0  0
   10.0719   -2.5330    0.0000 H   0  0  0  0  0  0  0  0  0  0  0  0
   10.2988   -1.6861    0.0000 H   0  0  0  0  0  0  0  0  0  0  0  0
  1 15  1  0  0  0  0
  1 16  1  0  0  0  0
  2 15  2  0  0  0  0
  3  5  1  0  0  0  0
  3  7  1  0  0  0  0
  3 21  1  0  0  0  0
  4  5  1  0  0  0  0
  4  6  1  0  0  0  0
  4 17  1  0  0  0  0
  4 18  1  0  0  0  0
  5  9  2  0  0  0  0
  6 10  1  0  0  0  0
  6 19  1  0  0  0  0
  6 20  1  0  0  0  0
  7  8  1  0  0  0  0
  7 11  2  0  0  0  0
  8  9  1  0  0  0  0
  8 12  2  0  0  0  0
  9 22  1  0  0  0  0
 10 15  1  0  0  0  0
 10 23  1  0  0  0  0
 10 24  1  0  0  0  0
 11 13  1  0  0  0  0
 11 25  1  0  0  0  0
 12 14  1  0  0  0  0
 12 26  1  0  0  0  0
 13 14  2  0  0  0  0
 13 27  1  0  0  0  0
 14 28  1  0  0  0  0
 16 29  1  0  0  0  0
 16 30  1  0  0  0  0
 16 31  1  0  0  0  0
M  END
> <PUBCHEM_COMPOUND_CID>
582760

> <PUBCHEM_COMPOUND_CANONICALIZED>
1

> <PUBCHEM_CACTVS_COMPLEXITY>
242

> <PUBCHEM_CACTVS_HBOND_ACCEPTOR>
2

> <PUBCHEM_CACTVS_HBOND_DONOR>
1

> <PUBCHEM_CACTVS_ROTATABLE_BOND>
5

> <PUBCHEM_CACTVS_SUBSKEYS>
AAADccByMAAAAAAAAAAAAAAAAAAAAWAAAAAwAAAAAAAAAFgB8AAAHgAQAAAADAiBngIyyPLJlACoAyTyTACCgCAhAiAImSEwZJgIIPLAkZGEIAhkkADIyAeY2eOeAAAAAAACAAAAAAAAAAQAAAAAAAAAAA==

> <PUBCHEM_IUPAC_OPENEYE_NAME>
methyl 4-(1H-indol-2-yl)butanoate

> <PUBCHEM_IUPAC_CAS_NAME>
4-(1H-indol-2-yl)butanoic acid methyl ester

> <PUBCHEM_IUPAC_NAME>
methyl 4-(1H-indol-2-yl)butanoate

> <PUBCHEM_IUPAC_SYSTEMATIC_NAME>
methyl 4-(1H-indol-2-yl)butanoate

> <PUBCHEM_IUPAC_TRADITIONAL_NAME>
4-(1H-indol-2-yl)butyric acid methyl ester

> <PUBCHEM_IUPAC_INCHI>
InChI=1S/C13H15NO2/c1-16-13(15)8-4-6-11-9-10-5-2-3-7-12(10)14-11/h2-3,5,7,9,14H,4,6,8H2,1H3

> <PUBCHEM_IUPAC_INCHIKEY>
GHQNBSPRKLUEKB-UHFFFAOYSA-N

> <PUBCHEM_XLOGP3>
2.6

> <PUBCHEM_EXACT_MASS>
217.110279

> <PUBCHEM_MOLECULAR_FORMULA>
C13H15NO2

> <PUBCHEM_MOLECULAR_WEIGHT>
217.2637

> <PUBCHEM_OPENEYE_CAN_SMILES>
COC(=O)CCCC1=CC2=CC=CC=C2N1

> <PUBCHEM_OPENEYE_ISO_SMILES>
COC(=O)CCCC1=CC2=CC=CC=C2N1

> <PUBCHEM_CACTVS_TPSA>
42.1

> <PUBCHEM_MONOISOTOPIC_WEIGHT>
217.110279

> <PUBCHEM_TOTAL_CHARGE>
0

> <PUBCHEM_HEAVY_ATOM_COUNT>
16

> <PUBCHEM_ATOM_DEF_STEREO_COUNT>
0

> <PUBCHEM_ATOM_UDEF_STEREO_COUNT>
0

> <PUBCHEM_BOND_DEF_STEREO_COUNT>
0

> <PUBCHEM_BOND_UDEF_STEREO_COUNT>
0

> <PUBCHEM_ISOTOPIC_ATOM_COUNT>
0

> <PUBCHEM_COMPONENT_COUNT>
1

> <PUBCHEM_CACTVS_TAUTO_COUNT>
1

> <PUBCHEM_COORDINATE_TYPE>
1
5
255

> <PUBCHEM_BONDANNOTATIONS>
11  13  8
12  14  8
13  14  8
3  5  8
3  7  8
5  9  8
7  11  8
7  8  8
8  12  8
8  9  8

$$$$

