11469
  -OEChem-06261205432D

 18 18  0     0  0  0  0  0  0999 V2000
    5.4543   -0.4197    0.0000 O   0  0  0  0  0  0  0  0  0  0  0  0
    2.9511    0.5282    0.0000 O   0  0  0  0  0  0  0  0  0  0  0  0
    7.9575    0.5282    0.0000 O   0  5  0  0  0  0  0  0  0  0  0  0
    7.4223   -1.1191    0.0000 O   0  0  0  0  0  0  0  0  0  0  0  0
    7.2144   -0.1410    0.0000 N   0  3  0  0  0  0  0  0  0  0  0  0
    4.6453    0.1681    0.0000 C   0  0  0  0  0  0  0  0  0  0  0  0
    3.6942   -0.1410    0.0000 C   0  0  0  0  0  0  0  0  0  0  0  0
    4.9543    1.1191    0.0000 C   0  0  0  0  0  0  0  0  0  0  0  0
    6.2633    0.1681    0.0000 C   0  0  0  0  0  0  0  0  0  0  0  0
    5.9543    1.1191    0.0000 C   0  0  0  0  0  0  0  0  0  0  0  0
    2.0000    0.2192    0.0000 C   0  0  0  0  0  0  0  0  0  0  0  0
    3.2056   -0.5227    0.0000 H   0  0  0  0  0  0  0  0  0  0  0  0
    3.9853   -0.6884    0.0000 H   0  0  0  0  0  0  0  0  0  0  0  0
    4.5898    1.6207    0.0000 H   0  0  0  0  0  0  0  0  0  0  0  0
    6.3187    1.6207    0.0000 H   0  0  0  0  0  0  0  0  0  0  0  0
    1.8084    0.8088    0.0000 H   0  0  0  0  0  0  0  0  0  0  0  0
    1.4103    0.0276    0.0000 H   0  0  0  0  0  0  0  0  0  0  0  0
    2.1916   -0.3705    0.0000 H   0  0  0  0  0  0  0  0  0  0  0  0
  1  6  1  0  0  0  0
  1  9  1  0  0  0  0
  2  7  1  0  0  0  0
  2 11  1  0  0  0  0
  3  5  1  0  0  0  0
  4  5  2  0  0  0  0
  5  9  1  0  0  0  0
  6  7  1  0  0  0  0
  6  8  2  0  0  0  0
  7 12  1  0  0  0  0
  7 13  1  0  0  0  0
  8 10  1  0  0  0  0
  8 14  1  0  0  0  0
  9 10  2  0  0  0  0
 10 15  1  0  0  0  0
 11 16  1  0  0  0  0
 11 17  1  0  0  0  0
 11 18  1  0  0  0  0
M  CHG  2   3  -1   5   1
M  END
> <PUBCHEM_COMPOUND_CID>
11469

> <PUBCHEM_COMPOUND_CANONICALIZED>
1

> <PUBCHEM_CACTVS_COMPLEXITY>
144

> <PUBCHEM_CACTVS_HBOND_ACCEPTOR>
4

> <PUBCHEM_CACTVS_HBOND_DONOR>
0

> <PUBCHEM_CACTVS_ROTATABLE_BOND>
2

> <PUBCHEM_CACTVS_SUBSKEYS>
AAADcYBiOAAAAAAAAAAAAAAAAAAAASAAAAAAAAAAAAAAAAABgAAAHgAEAAAACAShkAIyhIAQRECJAKFSUwKCCAAsIgAoiAFGbMoNJjKEtZ+KGSDkwBEK6Ya8NAgAAAAAAAAAAAAAAAAAAAAAAAAAAAAAAA==

> <PUBCHEM_IUPAC_OPENEYE_NAME>
2-(methoxymethyl)-5-nitro-furan

> <PUBCHEM_IUPAC_CAS_NAME>
2-(methoxymethyl)-5-nitrofuran

> <PUBCHEM_IUPAC_NAME>
2-(methoxymethyl)-5-nitrofuran

> <PUBCHEM_IUPAC_SYSTEMATIC_NAME>
2-(methoxymethyl)-5-nitro-furan

> <PUBCHEM_IUPAC_TRADITIONAL_NAME>
2-(methoxymethyl)-5-nitro-furan

> <PUBCHEM_IUPAC_INCHI>
InChI=1S/C6H7NO4/c1-10-4-5-2-3-6(11-5)7(8)9/h2-3H,4H2,1H3

> <PUBCHEM_IUPAC_INCHIKEY>
JXUMCVDPMJWGSI-UHFFFAOYSA-N

> <PUBCHEM_XLOGP3>
0.9

> <PUBCHEM_EXACT_MASS>
157.037508

> <PUBCHEM_MOLECULAR_FORMULA>
C6H7NO4

> <PUBCHEM_MOLECULAR_WEIGHT>
157.12408

> <PUBCHEM_OPENEYE_CAN_SMILES>
COCC1=CC=C(O1)[N+](=O)[O-]

> <PUBCHEM_OPENEYE_ISO_SMILES>
COCC1=CC=C(O1)[N+](=O)[O-]

> <PUBCHEM_CACTVS_TPSA>
68.2

> <PUBCHEM_MONOISOTOPIC_WEIGHT>
157.037508

> <PUBCHEM_TOTAL_CHARGE>
0

> <PUBCHEM_HEAVY_ATOM_COUNT>
11

> <PUBCHEM_ATOM_DEF_STEREO_COUNT>
0

> <PUBCHEM_ATOM_UDEF_STEREO_COUNT>
0

> <PUBCHEM_BOND_DEF_STEREO_COUNT>
0

> <PUBCHEM_BOND_UDEF_STEREO_COUNT>
0

> <PUBCHEM_ISOTOPIC_ATOM_COUNT>
0

> <PUBCHEM_COMPONENT_COUNT>
1

> <PUBCHEM_CACTVS_TAUTO_COUNT>
1

> <PUBCHEM_COORDINATE_TYPE>
1
5
255

> <PUBCHEM_BONDANNOTATIONS>
1  6  8
1  9  8
6  8  8
8  10  8
9  10  8

$$$$

