583324
  -OEChem-06241222452D

 35 37  0     0  0  0  0  0  0999 V2000
    3.0000    0.4827    0.0000 S   0  0  0  0  0  0  0  0  0  0  0  0
    4.7320    3.4827    0.0000 O   0  0  0  0  0  0  0  0  0  0  0  0
    2.0000    0.4827    0.0000 O   0  0  0  0  0  0  0  0  0  0  0  0
    4.0000    0.4827    0.0000 O   0  0  0  0  0  0  0  0  0  0  0  0
    3.0000    3.4827    0.0000 O   0  0  0  0  0  0  0  0  0  0  0  0
    4.7320    1.4827    0.0000 N   0  0  0  0  0  0  0  0  0  0  0  0
    3.0000    1.4827    0.0000 C   0  0  0  0  0  0  0  0  0  0  0  0
    3.0000   -0.5173    0.0000 C   0  0  0  0  0  0  0  0  0  0  0  0
    3.8660    1.9827    0.0000 C   0  0  0  0  0  0  0  0  0  0  0  0
    2.1340   -1.0173    0.0000 C   0  0  0  0  0  0  0  0  0  0  0  0
    3.8660   -1.0173    0.0000 C   0  0  0  0  0  0  0  0  0  0  0  0
    3.0000   -2.5173    0.0000 C   0  0  0  0  0  0  0  0  0  0  0  0
    5.5981    1.9827    0.0000 C   0  0  0  0  0  0  0  0  0  0  0  0
    2.1340   -2.0173    0.0000 C   0  0  0  0  0  0  0  0  0  0  0  0
    3.8660   -2.0173    0.0000 C   0  0  0  0  0  0  0  0  0  0  0  0
    3.8660    2.9827    0.0000 C   0  0  0  0  0  0  0  0  0  0  0  0
    5.5981    2.9827    0.0000 C   0  0  0  0  0  0  0  0  0  0  0  0
    6.4920    1.4480    0.0000 C   0  0  0  0  0  0  0  0  0  0  0  0
    6.4920    3.5173    0.0000 C   0  0  0  0  0  0  0  0  0  0  0  0
    3.0000   -3.5173    0.0000 C   0  0  0  0  0  0  0  0  0  0  0  0
    7.3981    1.9618    0.0000 C   0  0  0  0  0  0  0  0  0  0  0  0
    7.3981    3.0035    0.0000 C   0  0  0  0  0  0  0  0  0  0  0  0
    2.7880    2.0653    0.0000 H   0  0  0  0  0  0  0  0  0  0  0  0
    2.3894    1.3750    0.0000 H   0  0  0  0  0  0  0  0  0  0  0  0
    1.5970   -0.7073    0.0000 H   0  0  0  0  0  0  0  0  0  0  0  0
    4.4030   -0.7073    0.0000 H   0  0  0  0  0  0  0  0  0  0  0  0
    1.5970   -2.3273    0.0000 H   0  0  0  0  0  0  0  0  0  0  0  0
    4.4030   -2.3273    0.0000 H   0  0  0  0  0  0  0  0  0  0  0  0
    6.4848    0.8280    0.0000 H   0  0  0  0  0  0  0  0  0  0  0  0
    6.4848    4.1373    0.0000 H   0  0  0  0  0  0  0  0  0  0  0  0
    2.3800   -3.5173    0.0000 H   0  0  0  0  0  0  0  0  0  0  0  0
    3.0000   -4.1373    0.0000 H   0  0  0  0  0  0  0  0  0  0  0  0
    3.6200   -3.5173    0.0000 H   0  0  0  0  0  0  0  0  0  0  0  0
    7.9338    1.6498    0.0000 H   0  0  0  0  0  0  0  0  0  0  0  0
    7.9338    3.3156    0.0000 H   0  0  0  0  0  0  0  0  0  0  0  0
  1  3  2  0  0  0  0
  1  4  2  0  0  0  0
  1  7  1  0  0  0  0
  1  8  1  0  0  0  0
  2 16  1  0  0  0  0
  2 17  1  0  0  0  0
  5 16  2  0  0  0  0
  6  9  2  0  0  0  0
  6 13  1  0  0  0  0
  7  9  1  0  0  0  0
  7 23  1  0  0  0  0
  7 24  1  0  0  0  0
  8 10  2  0  0  0  0
  8 11  1  0  0  0  0
  9 16  1  0  0  0  0
 10 14  1  0  0  0  0
 10 25  1  0  0  0  0
 11 15  2  0  0  0  0
 11 26  1  0  0  0  0
 12 14  2  0  0  0  0
 12 15  1  0  0  0  0
 12 20  1  0  0  0  0
 13 17  1  0  0  0  0
 13 18  2  0  0  0  0
 14 27  1  0  0  0  0
 15 28  1  0  0  0  0
 17 19  2  0  0  0  0
 18 21  1  0  0  0  0
 18 29  1  0  0  0  0
 19 22  1  0  0  0  0
 19 30  1  0  0  0  0
 20 31  1  0  0  0  0
 20 32  1  0  0  0  0
 20 33  1  0  0  0  0
 21 22  2  0  0  0  0
 21 34  1  0  0  0  0
 22 35  1  0  0  0  0
M  END
> <PUBCHEM_COMPOUND_CID>
583324

> <PUBCHEM_COMPOUND_CANONICALIZED>
1

> <PUBCHEM_CACTVS_COMPLEXITY>
555

> <PUBCHEM_CACTVS_HBOND_ACCEPTOR>
5

> <PUBCHEM_CACTVS_HBOND_DONOR>
0

> <PUBCHEM_CACTVS_ROTATABLE_BOND>
3

> <PUBCHEM_CACTVS_SUBSKEYS>
AAADccB6OABAAAAAAAAAAAAAAAAAAAAAAAAwYIAAAAAAAACBQAAAHgQAAAAADAyF2ACyz4IABAqoAyTyTHTCCAAgKhAIiBkXbIgOJiKksZuDOiDkwBEo6AeQwAAOEAAAAAAAEAAgAAAAAAAgAAAAAAAAAA==

> <PUBCHEM_IUPAC_OPENEYE_NAME>
3-(p-tolylsulfonylmethyl)-1,4-benzoxazin-2-one

> <PUBCHEM_IUPAC_CAS_NAME>
3-[(4-methylphenyl)sulfonylmethyl]-1,4-benzoxazin-2-one

> <PUBCHEM_IUPAC_NAME>
3-[(4-methylphenyl)sulfonylmethyl]-1,4-benzoxazin-2-one

> <PUBCHEM_IUPAC_SYSTEMATIC_NAME>
3-[(4-methylphenyl)sulfonylmethyl]-1,4-benzoxazin-2-one

> <PUBCHEM_IUPAC_TRADITIONAL_NAME>
3-(tosylmethyl)-1,4-benzoxazin-2-one

> <PUBCHEM_IUPAC_INCHI>
InChI=1S/C16H13NO4S/c1-11-6-8-12(9-7-11)22(19,20)10-14-16(18)21-15-5-3-2-4-13(15)17-14/h2-9H,10H2,1H3

> <PUBCHEM_IUPAC_INCHIKEY>
JCYBOBIHKCXWSU-UHFFFAOYSA-N

> <PUBCHEM_XLOGP3_AA>
2.6

> <PUBCHEM_EXACT_MASS>
315.056529

> <PUBCHEM_MOLECULAR_FORMULA>
C16H13NO4S

> <PUBCHEM_MOLECULAR_WEIGHT>
315.34372

> <PUBCHEM_OPENEYE_CAN_SMILES>
CC1=CC=C(C=C1)S(=O)(=O)CC2=NC3=CC=CC=C3OC2=O

> <PUBCHEM_OPENEYE_ISO_SMILES>
CC1=CC=C(C=C1)S(=O)(=O)CC2=NC3=CC=CC=C3OC2=O

> <PUBCHEM_CACTVS_TPSA>
81.2

> <PUBCHEM_MONOISOTOPIC_WEIGHT>
315.056529

> <PUBCHEM_TOTAL_CHARGE>
0

> <PUBCHEM_HEAVY_ATOM_COUNT>
22

> <PUBCHEM_ATOM_DEF_STEREO_COUNT>
0

> <PUBCHEM_ATOM_UDEF_STEREO_COUNT>
0

> <PUBCHEM_BOND_DEF_STEREO_COUNT>
0

> <PUBCHEM_BOND_UDEF_STEREO_COUNT>
0

> <PUBCHEM_ISOTOPIC_ATOM_COUNT>
0

> <PUBCHEM_COMPONENT_COUNT>
1

> <PUBCHEM_CACTVS_TAUTO_COUNT>
2

> <PUBCHEM_COORDINATE_TYPE>
1
5
255

> <PUBCHEM_BONDANNOTATIONS>
10  14  8
11  15  8
12  14  8
12  15  8
13  17  8
13  18  8
17  19  8
18  21  8
19  22  8
2  16  8
2  17  8
21  22  8
6  13  8
6  9  8
8  10  8
8  11  8
9  16  8

$$$$

