17395439
  -OEChem-06241222502D

 42 44  0     0  0  0  0  0  0999 V2000
    4.7215    2.8694    0.0000 S   0  0  0  0  0  0  0  0  0  0  0  0
    6.8970    0.9283    0.0000 O   0  0  0  0  0  0  0  0  0  0  0  0
    9.1118   -1.9168    0.0000 O   0  0  0  0  0  0  0  0  0  0  0  0
    7.5295   -2.6213    0.0000 O   0  0  0  0  0  0  0  0  0  0  0  0
    3.7320   -0.1126    0.0000 N   0  0  0  0  0  0  0  0  0  0  0  0
    3.8366    0.8819    0.0000 N   0  0  0  0  0  0  0  0  0  0  0  0
    6.7160   -0.7942    0.0000 N   0  0  0  0  0  0  0  0  0  0  0  0
    2.8660   -0.6126    0.0000 C   0  0  0  0  0  0  0  0  0  0  0  0
    5.3147    0.2238    0.0000 C   0  0  0  0  0  0  0  0  0  0  0  0
    4.8147    1.0899    0.0000 C   0  0  0  0  0  0  0  0  0  0  0  0
    4.6456   -0.5193    0.0000 C   0  0  0  0  0  0  0  0  0  0  0  0
    2.8660   -1.6126    0.0000 C   0  0  0  0  0  0  0  0  0  0  0  0
    5.2215    2.0034    0.0000 C   0  0  0  0  0  0  0  0  0  0  0  0
    6.3092    0.1193    0.0000 C   0  0  0  0  0  0  0  0  0  0  0  0
    2.0000   -2.1126    0.0000 C   0  0  0  0  0  0  0  0  0  0  0  0
    3.7320   -2.1126    0.0000 C   0  0  0  0  0  0  0  0  0  0  0  0
    6.1996    2.2113    0.0000 C   0  0  0  0  0  0  0  0  0  0  0  0
    2.0000   -3.1126    0.0000 C   0  0  0  0  0  0  0  0  0  0  0  0
    3.7320   -3.1126    0.0000 C   0  0  0  0  0  0  0  0  0  0  0  0
    7.7105   -0.8988    0.0000 C   0  0  0  0  0  0  0  0  0  0  0  0
    6.3041    3.2058    0.0000 C   0  0  0  0  0  0  0  0  0  0  0  0
    2.8660   -3.6126    0.0000 C   0  0  0  0  0  0  0  0  0  0  0  0
    5.3906    3.6126    0.0000 C   0  0  0  0  0  0  0  0  0  0  0  0
    8.1172   -1.8123    0.0000 C   0  0  0  0  0  0  0  0  0  0  0  0
    9.5185   -2.8304    0.0000 C   0  0  0  0  0  0  0  0  0  0  0  0
    2.6540   -0.0300    0.0000 H   0  0  0  0  0  0  0  0  0  0  0  0
    2.2554   -0.7202    0.0000 H   0  0  0  0  0  0  0  0  0  0  0  0
    4.7745   -1.1258    0.0000 H   0  0  0  0  0  0  0  0  0  0  0  0
    1.4631   -1.8026    0.0000 H   0  0  0  0  0  0  0  0  0  0  0  0
    4.2690   -1.8026    0.0000 H   0  0  0  0  0  0  0  0  0  0  0  0
    6.6604    1.7965    0.0000 H   0  0  0  0  0  0  0  0  0  0  0  0
    6.3516   -1.2958    0.0000 H   0  0  0  0  0  0  0  0  0  0  0  0
    1.4631   -3.4226    0.0000 H   0  0  0  0  0  0  0  0  0  0  0  0
    4.2690   -3.4226    0.0000 H   0  0  0  0  0  0  0  0  0  0  0  0
    8.3121   -0.7488    0.0000 H   0  0  0  0  0  0  0  0  0  0  0  0
    7.6673   -0.2803    0.0000 H   0  0  0  0  0  0  0  0  0  0  0  0
    6.8411    3.5158    0.0000 H   0  0  0  0  0  0  0  0  0  0  0  0
    2.8660   -4.2326    0.0000 H   0  0  0  0  0  0  0  0  0  0  0  0
    5.2617    4.2190    0.0000 H   0  0  0  0  0  0  0  0  0  0  0  0
    8.9521   -3.0826    0.0000 H   0  0  0  0  0  0  0  0  0  0  0  0
    9.7707   -3.3968    0.0000 H   0  0  0  0  0  0  0  0  0  0  0  0
   10.0849   -2.5782    0.0000 H   0  0  0  0  0  0  0  0  0  0  0  0
  1 13  1  0  0  0  0
  1 23  1  0  0  0  0
  2 14  2  0  0  0  0
  3 24  1  0  0  0  0
  3 25  1  0  0  0  0
  4 24  2  0  0  0  0
  5  6  1  0  0  0  0
  5  8  1  0  0  0  0
  5 11  1  0  0  0  0
  6 10  2  0  0  0  0
  7 14  1  0  0  0  0
  7 20  1  0  0  0  0
  7 32  1  0  0  0  0
  8 12  1  0  0  0  0
  8 26  1  0  0  0  0
  8 27  1  0  0  0  0
  9 10  1  0  0  0  0
  9 11  2  0  0  0  0
  9 14  1  0  0  0  0
 10 13  1  0  0  0  0
 11 28  1  0  0  0  0
 12 15  2  0  0  0  0
 12 16  1  0  0  0  0
 13 17  2  0  0  0  0
 15 18  1  0  0  0  0
 15 29  1  0  0  0  0
 16 19  2  0  0  0  0
 16 30  1  0  0  0  0
 17 21  1  0  0  0  0
 17 31  1  0  0  0  0
 18 22  2  0  0  0  0
 18 33  1  0  0  0  0
 19 22  1  0  0  0  0
 19 34  1  0  0  0  0
 20 24  1  0  0  0  0
 20 35  1  0  0  0  0
 20 36  1  0  0  0  0
 21 23  2  0  0  0  0
 21 37  1  0  0  0  0
 22 38  1  0  0  0  0
 23 39  1  0  0  0  0
 25 40  1  0  0  0  0
 25 41  1  0  0  0  0
 25 42  1  0  0  0  0
M  END
> <PUBCHEM_COMPOUND_CID>
17395439

> <PUBCHEM_COMPOUND_CANONICALIZED>
1

> <PUBCHEM_CACTVS_COMPLEXITY>
471

> <PUBCHEM_CACTVS_HBOND_ACCEPTOR>
5

> <PUBCHEM_CACTVS_HBOND_DONOR>
1

> <PUBCHEM_CACTVS_ROTATABLE_BOND>
7

> <PUBCHEM_CACTVS_SUBSKEYS>
AAADceB7MABAAAAAAAAAAAAAAAAAAWJAAAAwAAAAAAAAAAAB8AAAHgQYAAAADAjF3ga+iZLIBAiuAzX3XACTBIA1iBBY2LmoRNgKILrg0fGFpYhgjgD4yccYiECOAAAAAAAAAAAAAAAAAAAAAAAAAAAAAA==

> <PUBCHEM_IUPAC_OPENEYE_NAME>
methyl 2-[[1-benzyl-3-(2-thienyl)pyrazole-4-carbonyl]amino]acetate

> <PUBCHEM_IUPAC_CAS_NAME>
2-[[oxo-[1-(phenylmethyl)-3-thiophen-2-yl-4-pyrazolyl]methyl]amino]acetic acid methyl ester

> <PUBCHEM_IUPAC_NAME>
methyl 2-[(1-benzyl-3-thiophen-2-ylpyrazole-4-carbonyl)amino]acetate

> <PUBCHEM_IUPAC_SYSTEMATIC_NAME>
methyl 2-[[1-(phenylmethyl)-3-thiophen-2-yl-pyrazol-4-yl]carbonylamino]ethanoate

> <PUBCHEM_IUPAC_TRADITIONAL_NAME>
2-[[1-benzyl-3-(2-thienyl)pyrazole-4-carbonyl]amino]acetic acid methyl ester

> <PUBCHEM_IUPAC_INCHI>
InChI=1S/C18H17N3O3S/c1-24-16(22)10-19-18(23)14-12-21(11-13-6-3-2-4-7-13)20-17(14)15-8-5-9-25-15/h2-9,12H,10-11H2,1H3,(H,19,23)

> <PUBCHEM_IUPAC_INCHIKEY>
ULCJTWLZHHXVTM-UHFFFAOYSA-N

> <PUBCHEM_XLOGP3_AA>
2.4

> <PUBCHEM_EXACT_MASS>
355.099062

> <PUBCHEM_MOLECULAR_FORMULA>
C18H17N3O3S

> <PUBCHEM_MOLECULAR_WEIGHT>
355.41088

> <PUBCHEM_OPENEYE_CAN_SMILES>
COC(=O)CNC(=O)C1=CN(N=C1C2=CC=CS2)CC3=CC=CC=C3

> <PUBCHEM_OPENEYE_ISO_SMILES>
COC(=O)CNC(=O)C1=CN(N=C1C2=CC=CS2)CC3=CC=CC=C3

> <PUBCHEM_CACTVS_TPSA>
102

> <PUBCHEM_MONOISOTOPIC_WEIGHT>
355.099062

> <PUBCHEM_TOTAL_CHARGE>
0

> <PUBCHEM_HEAVY_ATOM_COUNT>
25

> <PUBCHEM_ATOM_DEF_STEREO_COUNT>
0

> <PUBCHEM_ATOM_UDEF_STEREO_COUNT>
0

> <PUBCHEM_BOND_DEF_STEREO_COUNT>
0

> <PUBCHEM_BOND_UDEF_STEREO_COUNT>
0

> <PUBCHEM_ISOTOPIC_ATOM_COUNT>
0

> <PUBCHEM_COMPONENT_COUNT>
1

> <PUBCHEM_CACTVS_TAUTO_COUNT>
2

> <PUBCHEM_COORDINATE_TYPE>
1
5
255

> <PUBCHEM_BONDANNOTATIONS>
1  13  8
1  23  8
12  15  8
12  16  8
13  17  8
15  18  8
16  19  8
17  21  8
18  22  8
19  22  8
21  23  8
5  11  8
5  6  8
6  10  8
9  10  8
9  11  8

$$$$

