854331
  -OEChem-06241222482D

 41 43  0     0  0  0  0  0  0999 V2000
    3.7320    2.4812    0.0000 O   0  0  0  0  0  0  0  0  0  0  0  0
    7.2622    2.5054    0.0000 O   0  0  0  0  0  0  0  0  0  0  0  0
    2.0000    2.4812    0.0000 O   0  0  0  0  0  0  0  0  0  0  0  0
    4.5981    0.9812    0.0000 C   0  0  0  0  0  0  0  0  0  0  0  0
    3.7320    0.4812    0.0000 C   0  0  0  0  0  0  0  0  0  0  0  0
    4.5981    1.9812    0.0000 C   0  0  0  0  0  0  0  0  0  0  0  0
    3.7320   -0.5188    0.0000 C   0  0  0  0  0  0  0  0  0  0  0  0
    5.4920    0.4466    0.0000 C   0  0  0  0  0  0  0  0  0  0  0  0
    5.4920    2.5159    0.0000 C   0  0  0  0  0  0  0  0  0  0  0  0
    6.3981    2.0021    0.0000 C   0  0  0  0  0  0  0  0  0  0  0  0
    2.8660    0.9812    0.0000 C   0  0  0  0  0  0  0  0  0  0  0  0
    6.3981    0.9604    0.0000 C   0  0  0  0  0  0  0  0  0  0  0  0
    2.8660    1.9812    0.0000 C   0  0  0  0  0  0  0  0  0  0  0  0
    2.8660   -1.0188    0.0000 C   0  0  0  0  0  0  0  0  0  0  0  0
    4.5981   -1.0188    0.0000 C   0  0  0  0  0  0  0  0  0  0  0  0
    8.1301    2.0087    0.0000 C   0  0  0  0  0  0  0  0  0  0  0  0
    2.8660   -2.0188    0.0000 C   0  0  0  0  0  0  0  0  0  0  0  0
    4.5981   -2.0188    0.0000 C   0  0  0  0  0  0  0  0  0  0  0  0
    8.9942    2.5121    0.0000 C   0  0  0  0  0  0  0  0  0  0  0  0
    3.7320   -2.5188    0.0000 C   0  0  0  0  0  0  0  0  0  0  0  0
    9.8622    2.0154    0.0000 C   0  0  0  0  0  0  0  0  0  0  0  0
   10.7263    2.5188    0.0000 C   0  0  0  0  0  0  0  0  0  0  0  0
    9.8660    1.0154    0.0000 C   0  0  0  0  0  0  0  0  0  0  0  0
    5.4848   -0.1734    0.0000 H   0  0  0  0  0  0  0  0  0  0  0  0
    5.4848    3.1359    0.0000 H   0  0  0  0  0  0  0  0  0  0  0  0
    2.3291    0.6712    0.0000 H   0  0  0  0  0  0  0  0  0  0  0  0
    6.9338    0.6484    0.0000 H   0  0  0  0  0  0  0  0  0  0  0  0
    2.3291   -0.7088    0.0000 H   0  0  0  0  0  0  0  0  0  0  0  0
    5.1350   -0.7088    0.0000 H   0  0  0  0  0  0  0  0  0  0  0  0
    7.7334    1.5323    0.0000 H   0  0  0  0  0  0  0  0  0  0  0  0
    8.5305    1.5353    0.0000 H   0  0  0  0  0  0  0  0  0  0  0  0
    2.3291   -2.3288    0.0000 H   0  0  0  0  0  0  0  0  0  0  0  0
    5.1350   -2.3288    0.0000 H   0  0  0  0  0  0  0  0  0  0  0  0
    8.9918    3.1321    0.0000 H   0  0  0  0  0  0  0  0  0  0  0  0
    3.7320   -3.1388    0.0000 H   0  0  0  0  0  0  0  0  0  0  0  0
   11.0383    1.9830    0.0000 H   0  0  0  0  0  0  0  0  0  0  0  0
   11.2620    2.8308    0.0000 H   0  0  0  0  0  0  0  0  0  0  0  0
   10.4142    3.0545    0.0000 H   0  0  0  0  0  0  0  0  0  0  0  0
    9.2460    1.0130    0.0000 H   0  0  0  0  0  0  0  0  0  0  0  0
    9.8684    0.3954    0.0000 H   0  0  0  0  0  0  0  0  0  0  0  0
   10.4860    1.0178    0.0000 H   0  0  0  0  0  0  0  0  0  0  0  0
  1  6  1  0  0  0  0
  1 13  1  0  0  0  0
  2 10  1  0  0  0  0
  2 16  1  0  0  0  0
  3 13  2  0  0  0  0
  4  5  1  0  0  0  0
  4  6  2  0  0  0  0
  4  8  1  0  0  0  0
  5  7  1  0  0  0  0
  5 11  2  0  0  0  0
  6  9  1  0  0  0  0
  7 14  2  0  0  0  0
  7 15  1  0  0  0  0
  8 12  2  0  0  0  0
  8 24  1  0  0  0  0
  9 10  2  0  0  0  0
  9 25  1  0  0  0  0
 10 12  1  0  0  0  0
 11 13  1  0  0  0  0
 11 26  1  0  0  0  0
 12 27  1  0  0  0  0
 14 17  1  0  0  0  0
 14 28  1  0  0  0  0
 15 18  2  0  0  0  0
 15 29  1  0  0  0  0
 16 19  1  0  0  0  0
 16 30  1  0  0  0  0
 16 31  1  0  0  0  0
 17 20  2  0  0  0  0
 17 32  1  0  0  0  0
 18 20  1  0  0  0  0
 18 33  1  0  0  0  0
 19 21  2  0  0  0  0
 19 34  1  0  0  0  0
 20 35  1  0  0  0  0
 21 22  1  0  0  0  0
 21 23  1  0  0  0  0
 22 36  1  0  0  0  0
 22 37  1  0  0  0  0
 22 38  1  0  0  0  0
 23 39  1  0  0  0  0
 23 40  1  0  0  0  0
 23 41  1  0  0  0  0
M  END
> <PUBCHEM_COMPOUND_CID>
854331

> <PUBCHEM_COMPOUND_CANONICALIZED>
1

> <PUBCHEM_CACTVS_COMPLEXITY>
481

> <PUBCHEM_CACTVS_HBOND_ACCEPTOR>
3

> <PUBCHEM_CACTVS_HBOND_DONOR>
0

> <PUBCHEM_CACTVS_ROTATABLE_BOND>
4

> <PUBCHEM_CACTVS_SUBSKEYS>
AAADceB4MAAAAAAAAAAAAAAAAAAAAAAAAAAwYIAAAAAAAACBQAAAGgAAAAAADASgmAIyDoAABACIAiDSCAACCAAgIAAIiAAGCMgMJyKEMRqCOiClwBUIqQeA4OwOIAAACAAIAABAAAAQABAAAAAAAAAAAA==

> <PUBCHEM_IUPAC_OPENEYE_NAME>
7-(3-methylbut-2-enoxy)-4-phenyl-chromen-2-one

> <PUBCHEM_IUPAC_CAS_NAME>
7-(3-methylbut-2-enoxy)-4-phenyl-1-benzopyran-2-one

> <PUBCHEM_IUPAC_NAME>
7-(3-methylbut-2-enoxy)-4-phenylchromen-2-one

> <PUBCHEM_IUPAC_SYSTEMATIC_NAME>
7-(3-methylbut-2-enoxy)-4-phenyl-chromen-2-one

> <PUBCHEM_IUPAC_TRADITIONAL_NAME>
7-(3-methylbut-2-enoxy)-4-phenyl-coumarin

> <PUBCHEM_IUPAC_INCHI>
InChI=1S/C20H18O3/c1-14(2)10-11-22-16-8-9-17-18(15-6-4-3-5-7-15)13-20(21)23-19(17)12-16/h3-10,12-13H,11H2,1-2H3

> <PUBCHEM_IUPAC_INCHIKEY>
ABLWAGJMSKIPNA-UHFFFAOYSA-N

> <PUBCHEM_XLOGP3>
5

> <PUBCHEM_EXACT_MASS>
306.125594

> <PUBCHEM_MOLECULAR_FORMULA>
C20H18O3

> <PUBCHEM_MOLECULAR_WEIGHT>
306.35512

> <PUBCHEM_OPENEYE_CAN_SMILES>
CC(=CCOC1=CC2=C(C=C1)C(=CC(=O)O2)C3=CC=CC=C3)C

> <PUBCHEM_OPENEYE_ISO_SMILES>
CC(=CCOC1=CC2=C(C=C1)C(=CC(=O)O2)C3=CC=CC=C3)C

> <PUBCHEM_CACTVS_TPSA>
35.5

> <PUBCHEM_MONOISOTOPIC_WEIGHT>
306.125594

> <PUBCHEM_TOTAL_CHARGE>
0

> <PUBCHEM_HEAVY_ATOM_COUNT>
23

> <PUBCHEM_ATOM_DEF_STEREO_COUNT>
0

> <PUBCHEM_ATOM_UDEF_STEREO_COUNT>
0

> <PUBCHEM_BOND_DEF_STEREO_COUNT>
0

> <PUBCHEM_BOND_UDEF_STEREO_COUNT>
0

> <PUBCHEM_ISOTOPIC_ATOM_COUNT>
0

> <PUBCHEM_COMPONENT_COUNT>
1

> <PUBCHEM_CACTVS_TAUTO_COUNT>
1

> <PUBCHEM_COORDINATE_TYPE>
1
5
255

> <PUBCHEM_BONDANNOTATIONS>
1  13  8
1  6  8
10  12  8
11  13  8
14  17  8
15  18  8
17  20  8
18  20  8
4  5  8
4  6  8
4  8  8
5  11  8
6  9  8
7  14  8
7  15  8
8  12  8
9  10  8

$$$$

