7846936
  -OEChem-06241222472D

 45 48  0     0  0  0  0  0  0999 V2000
    8.2728    2.4866    0.0000 S   0  0  0  0  0  0  0  0  0  0  0  0
    6.2781   -0.6316    0.0000 O   0  0  0  0  0  0  0  0  0  0  0  0
    4.3211   -1.0441    0.0000 O   0  0  0  0  0  0  0  0  0  0  0  0
    7.9244   -1.1697    0.0000 O   0  0  0  0  0  0  0  0  0  0  0  0
    4.6783   -4.3484    0.0000 N   0  0  0  0  0  0  0  0  0  0  0  0
    9.8027    1.9866    0.0000 N   0  0  0  0  0  0  0  0  0  0  0  0
    4.6783   -2.7389    0.0000 C   0  0  0  0  0  0  0  0  0  0  0  0
    3.7320   -3.0436    0.0000 C   0  0  0  0  0  0  0  0  0  0  0  0
    3.7320   -4.0436    0.0000 C   0  0  0  0  0  0  0  0  0  0  0  0
    5.2619   -3.5436    0.0000 C   0  0  0  0  0  0  0  0  0  0  0  0
    4.9889   -1.7884    0.0000 C   0  0  0  0  0  0  0  0  0  0  0  0
    2.8660   -2.5436    0.0000 C   0  0  0  0  0  0  0  0  0  0  0  0
    2.8660   -4.5436    0.0000 C   0  0  0  0  0  0  0  0  0  0  0  0
    6.2619   -3.5436    0.0000 C   0  0  0  0  0  0  0  0  0  0  0  0
    8.5458    0.7313    0.0000 C   0  0  0  0  0  0  0  0  0  0  0  0
    5.9674   -1.5821    0.0000 C   0  0  0  0  0  0  0  0  0  0  0  0
    7.5673    0.5251    0.0000 C   0  0  0  0  0  0  0  0  0  0  0  0
    2.0000   -3.0436    0.0000 C   0  0  0  0  0  0  0  0  0  0  0  0
    2.0000   -4.0436    0.0000 C   0  0  0  0  0  0  0  0  0  0  0  0
    8.8564    1.6819    0.0000 C   0  0  0  0  0  0  0  0  0  0  0  0
    8.8564    3.2913    0.0000 C   0  0  0  0  0  0  0  0  0  0  0  0
    9.8070    2.9807    0.0000 C   0  0  0  0  0  0  0  0  0  0  0  0
    7.2566   -0.4254    0.0000 C   0  0  0  0  0  0  0  0  0  0  0  0
    8.6502    4.2698    0.0000 C   0  0  0  0  0  0  0  0  0  0  0  0
   10.5513    3.6485    0.0000 C   0  0  0  0  0  0  0  0  0  0  0  0
    9.3945    4.9377    0.0000 C   0  0  0  0  0  0  0  0  0  0  0  0
   10.3450    4.6270    0.0000 C   0  0  0  0  0  0  0  0  0  0  0  0
    4.8709   -4.9377    0.0000 H   0  0  0  0  0  0  0  0  0  0  0  0
    2.8660   -1.9236    0.0000 H   0  0  0  0  0  0  0  0  0  0  0  0
    2.8660   -5.1636    0.0000 H   0  0  0  0  0  0  0  0  0  0  0  0
    6.2619   -4.1636    0.0000 H   0  0  0  0  0  0  0  0  0  0  0  0
    6.8819   -3.5436    0.0000 H   0  0  0  0  0  0  0  0  0  0  0  0
    6.2619   -2.9236    0.0000 H   0  0  0  0  0  0  0  0  0  0  0  0
    8.5663    0.1117    0.0000 H   0  0  0  0  0  0  0  0  0  0  0  0
    9.1596    0.6440    0.0000 H   0  0  0  0  0  0  0  0  0  0  0  0
    5.9880   -2.2018    0.0000 H   0  0  0  0  0  0  0  0  0  0  0  0
    6.5812   -1.6695    0.0000 H   0  0  0  0  0  0  0  0  0  0  0  0
    7.5467    1.1448    0.0000 H   0  0  0  0  0  0  0  0  0  0  0  0
    6.9534    0.6125    0.0000 H   0  0  0  0  0  0  0  0  0  0  0  0
    1.4631   -2.7336    0.0000 H   0  0  0  0  0  0  0  0  0  0  0  0
    1.4631   -4.3536    0.0000 H   0  0  0  0  0  0  0  0  0  0  0  0
    8.0609    4.4624    0.0000 H   0  0  0  0  0  0  0  0  0  0  0  0
   11.1406    3.4559    0.0000 H   0  0  0  0  0  0  0  0  0  0  0  0
    9.2667    5.5443    0.0000 H   0  0  0  0  0  0  0  0  0  0  0  0
   10.8065    5.0411    0.0000 H   0  0  0  0  0  0  0  0  0  0  0  0
  1 20  1  0  0  0  0
  1 21  1  0  0  0  0
  2 16  1  0  0  0  0
  2 23  1  0  0  0  0
  3 11  2  0  0  0  0
  4 23  2  0  0  0  0
  5  9  1  0  0  0  0
  5 10  1  0  0  0  0
  5 28  1  0  0  0  0
  6 20  2  0  0  0  0
  6 22  1  0  0  0  0
  7  8  1  0  0  0  0
  7 10  2  0  0  0  0
  7 11  1  0  0  0  0
  8  9  1  0  0  0  0
  8 12  2  0  0  0  0
  9 13  2  0  0  0  0
 10 14  1  0  0  0  0
 11 16  1  0  0  0  0
 12 18  1  0  0  0  0
 12 29  1  0  0  0  0
 13 19  1  0  0  0  0
 13 30  1  0  0  0  0
 14 31  1  0  0  0  0
 14 32  1  0  0  0  0
 14 33  1  0  0  0  0
 15 17  1  0  0  0  0
 15 20  1  0  0  0  0
 15 34  1  0  0  0  0
 15 35  1  0  0  0  0
 16 36  1  0  0  0  0
 16 37  1  0  0  0  0
 17 23  1  0  0  0  0
 17 38  1  0  0  0  0
 17 39  1  0  0  0  0
 18 19  2  0  0  0  0
 18 40  1  0  0  0  0
 19 41  1  0  0  0  0
 21 22  1  0  0  0  0
 21 24  2  0  0  0  0
 22 25  2  0  0  0  0
 24 26  1  0  0  0  0
 24 42  1  0  0  0  0
 25 27  1  0  0  0  0
 25 43  1  0  0  0  0
 26 27  2  0  0  0  0
 26 44  1  0  0  0  0
 27 45  1  0  0  0  0
M  END
> <PUBCHEM_COMPOUND_CID>
7846936

> <PUBCHEM_COMPOUND_CANONICALIZED>
1

> <PUBCHEM_CACTVS_COMPLEXITY>
558

> <PUBCHEM_CACTVS_HBOND_ACCEPTOR>
5

> <PUBCHEM_CACTVS_HBOND_DONOR>
1

> <PUBCHEM_CACTVS_ROTATABLE_BOND>
7

> <PUBCHEM_CACTVS_SUBSKEYS>
AAADceB7MABAAAAAAAAAAAAAAAAAAWLAAAAwYAAAAAAAAFgB/gAAHgQQAAAADAyh3gIyyfLJlAisA6TyTAKD8KBlCjhImT1wZNgIIPrglZWGIYhk0AHoyUe82OOOgAAAAAACAQAAAAAAAAQCAAAAAAAAAA==

> <PUBCHEM_IUPAC_OPENEYE_NAME>
[2-(2-methyl-1H-indol-3-yl)-2-oxo-ethyl] 3-(1,3-benzothiazol-2-yl)propanoate

> <PUBCHEM_IUPAC_CAS_NAME>
3-(1,3-benzothiazol-2-yl)propanoic acid [2-(2-methyl-1H-indol-3-yl)-2-oxoethyl] ester

> <PUBCHEM_IUPAC_NAME>
[2-(2-methyl-1H-indol-3-yl)-2-oxoethyl] 3-(1,3-benzothiazol-2-yl)propanoate

> <PUBCHEM_IUPAC_SYSTEMATIC_NAME>
[2-(2-methyl-1H-indol-3-yl)-2-oxidanylidene-ethyl] 3-(1,3-benzothiazol-2-yl)propanoate

> <PUBCHEM_IUPAC_TRADITIONAL_NAME>
3-(1,3-benzothiazol-2-yl)propionic acid [2-keto-2-(2-methyl-1H-indol-3-yl)ethyl] ester

> <PUBCHEM_IUPAC_INCHI>
InChI=1S/C21H18N2O3S/c1-13-21(14-6-2-3-7-15(14)22-13)17(24)12-26-20(25)11-10-19-23-16-8-4-5-9-18(16)27-19/h2-9,22H,10-12H2,1H3

> <PUBCHEM_IUPAC_INCHIKEY>
JTDVVPAOQKPSAN-UHFFFAOYSA-N

> <PUBCHEM_XLOGP3_AA>
4.4

> <PUBCHEM_EXACT_MASS>
378.103813

> <PUBCHEM_MOLECULAR_FORMULA>
C21H18N2O3S

> <PUBCHEM_MOLECULAR_WEIGHT>
378.44422

> <PUBCHEM_OPENEYE_CAN_SMILES>
CC1=C(C2=CC=CC=C2N1)C(=O)COC(=O)CCC3=NC4=CC=CC=C4S3

> <PUBCHEM_OPENEYE_ISO_SMILES>
CC1=C(C2=CC=CC=C2N1)C(=O)COC(=O)CCC3=NC4=CC=CC=C4S3

> <PUBCHEM_CACTVS_TPSA>
100

> <PUBCHEM_MONOISOTOPIC_WEIGHT>
378.103813

> <PUBCHEM_TOTAL_CHARGE>
0

> <PUBCHEM_HEAVY_ATOM_COUNT>
27

> <PUBCHEM_ATOM_DEF_STEREO_COUNT>
0

> <PUBCHEM_ATOM_UDEF_STEREO_COUNT>
0

> <PUBCHEM_BOND_DEF_STEREO_COUNT>
0

> <PUBCHEM_BOND_UDEF_STEREO_COUNT>
0

> <PUBCHEM_ISOTOPIC_ATOM_COUNT>
0

> <PUBCHEM_COMPONENT_COUNT>
1

> <PUBCHEM_CACTVS_TAUTO_COUNT>
16

> <PUBCHEM_COORDINATE_TYPE>
1
5
255

> <PUBCHEM_BONDANNOTATIONS>
1  20  8
1  21  8
12  18  8
13  19  8
18  19  8
21  22  8
21  24  8
22  25  8
24  26  8
25  27  8
26  27  8
5  10  8
5  9  8
6  20  8
6  22  8
7  10  8
7  8  8
8  12  8
8  9  8
9  13  8

$$$$

