582719
  -OEChem-06241222432D

 27 28  0     0  0  0  0  0  0999 V2000
    4.6783    0.9737    0.0000 N   0  0  0  0  0  0  0  0  0  0  0  0
    6.7619   -0.6970    0.0000 N   0  0  0  0  0  0  0  0  0  0  0  0
    5.2619    0.1690    0.0000 C   0  0  0  0  0  0  0  0  0  0  0  0
    6.2619    0.1690    0.0000 C   0  0  0  0  0  0  0  0  0  0  0  0
    3.7320    0.6690    0.0000 C   0  0  0  0  0  0  0  0  0  0  0  0
    3.7320   -0.3310    0.0000 C   0  0  0  0  0  0  0  0  0  0  0  0
    4.6783   -0.6357    0.0000 C   0  0  0  0  0  0  0  0  0  0  0  0
    2.8660    1.1690    0.0000 C   0  0  0  0  0  0  0  0  0  0  0  0
    2.8660   -0.8310    0.0000 C   0  0  0  0  0  0  0  0  0  0  0  0
    7.7619   -0.6970    0.0000 C   0  0  0  0  0  0  0  0  0  0  0  0
    2.0000    0.6690    0.0000 C   0  0  0  0  0  0  0  0  0  0  0  0
    2.0000   -0.3310    0.0000 C   0  0  0  0  0  0  0  0  0  0  0  0
    8.2619   -1.5630    0.0000 C   0  0  0  0  0  0  0  0  0  0  0  0
    6.8445    0.3810    0.0000 H   0  0  0  0  0  0  0  0  0  0  0  0
    6.1542    0.7796    0.0000 H   0  0  0  0  0  0  0  0  0  0  0  0
    4.8709    1.5630    0.0000 H   0  0  0  0  0  0  0  0  0  0  0  0
    4.8709   -1.2251    0.0000 H   0  0  0  0  0  0  0  0  0  0  0  0
    6.4519   -1.2340    0.0000 H   0  0  0  0  0  0  0  0  0  0  0  0
    8.3445   -0.4850    0.0000 H   0  0  0  0  0  0  0  0  0  0  0  0
    7.6542   -0.0864    0.0000 H   0  0  0  0  0  0  0  0  0  0  0  0
    2.8660    1.7890    0.0000 H   0  0  0  0  0  0  0  0  0  0  0  0
    2.8660   -1.4510    0.0000 H   0  0  0  0  0  0  0  0  0  0  0  0
    1.4631    0.9790    0.0000 H   0  0  0  0  0  0  0  0  0  0  0  0
    1.4631   -0.6410    0.0000 H   0  0  0  0  0  0  0  0  0  0  0  0
    7.7249   -1.8730    0.0000 H   0  0  0  0  0  0  0  0  0  0  0  0
    8.5719   -2.1000    0.0000 H   0  0  0  0  0  0  0  0  0  0  0  0
    8.7988   -1.2530    0.0000 H   0  0  0  0  0  0  0  0  0  0  0  0
  1  3  1  0  0  0  0
  1  5  1  0  0  0  0
  1 16  1  0  0  0  0
  2  4  1  0  0  0  0
  2 10  1  0  0  0  0
  2 18  1  0  0  0  0
  3  4  1  0  0  0  0
  3  7  2  0  0  0  0
  4 14  1  0  0  0  0
  4 15  1  0  0  0  0
  5  6  1  0  0  0  0
  5  8  2  0  0  0  0
  6  7  1  0  0  0  0
  6  9  2  0  0  0  0
  7 17  1  0  0  0  0
  8 11  1  0  0  0  0
  8 21  1  0  0  0  0
  9 12  1  0  0  0  0
  9 22  1  0  0  0  0
 10 13  1  0  0  0  0
 10 19  1  0  0  0  0
 10 20  1  0  0  0  0
 11 12  2  0  0  0  0
 11 23  1  0  0  0  0
 12 24  1  0  0  0  0
 13 25  1  0  0  0  0
 13 26  1  0  0  0  0
 13 27  1  0  0  0  0
M  END
> <PUBCHEM_COMPOUND_CID>
582719

> <PUBCHEM_COMPOUND_CANONICALIZED>
1

> <PUBCHEM_CACTVS_COMPLEXITY>
158

> <PUBCHEM_CACTVS_HBOND_ACCEPTOR>
1

> <PUBCHEM_CACTVS_HBOND_DONOR>
2

> <PUBCHEM_CACTVS_ROTATABLE_BOND>
3

> <PUBCHEM_CACTVS_SUBSKEYS>
AAADccBzAAAAAAAAAAAAAAAAAAAAAWAAAAAwAAAAAAAAAFgB8AAAHAAQAAAADAjBHgQywPLJkACgAyRiRACCgCAhAiAImaA4ZJgIYOLAkZGUIAhgkADIyAcQgIAOAAAAAAACAAAAAAAAAAQAAAAAAAAAAA==

> <PUBCHEM_IUPAC_OPENEYE_NAME>
N-(1H-indol-2-ylmethyl)ethanamine

> <PUBCHEM_IUPAC_CAS_NAME>
N-(1H-indol-2-ylmethyl)ethanamine

> <PUBCHEM_IUPAC_NAME>
N-(1H-indol-2-ylmethyl)ethanamine

> <PUBCHEM_IUPAC_SYSTEMATIC_NAME>
N-(1H-indol-2-ylmethyl)ethanamine

> <PUBCHEM_IUPAC_TRADITIONAL_NAME>
ethyl(1H-indol-2-ylmethyl)amine

> <PUBCHEM_IUPAC_INCHI>
InChI=1S/C11H14N2/c1-2-12-8-10-7-9-5-3-4-6-11(9)13-10/h3-7,12-13H,2,8H2,1H3

> <PUBCHEM_IUPAC_INCHIKEY>
TXECZBDBEFPAIT-UHFFFAOYSA-N

> <PUBCHEM_XLOGP3>
1.9

> <PUBCHEM_EXACT_MASS>
174.115698

> <PUBCHEM_MOLECULAR_FORMULA>
C11H14N2

> <PUBCHEM_MOLECULAR_WEIGHT>
174.24226

> <PUBCHEM_OPENEYE_CAN_SMILES>
CCNCC1=CC2=CC=CC=C2N1

> <PUBCHEM_OPENEYE_ISO_SMILES>
CCNCC1=CC2=CC=CC=C2N1

> <PUBCHEM_CACTVS_TPSA>
27.8

> <PUBCHEM_MONOISOTOPIC_WEIGHT>
174.115698

> <PUBCHEM_TOTAL_CHARGE>
0

> <PUBCHEM_HEAVY_ATOM_COUNT>
13

> <PUBCHEM_ATOM_DEF_STEREO_COUNT>
0

> <PUBCHEM_ATOM_UDEF_STEREO_COUNT>
0

> <PUBCHEM_BOND_DEF_STEREO_COUNT>
0

> <PUBCHEM_BOND_UDEF_STEREO_COUNT>
0

> <PUBCHEM_ISOTOPIC_ATOM_COUNT>
0

> <PUBCHEM_COMPONENT_COUNT>
1

> <PUBCHEM_CACTVS_TAUTO_COUNT>
1

> <PUBCHEM_COORDINATE_TYPE>
1
5
255

> <PUBCHEM_BONDANNOTATIONS>
1  3  8
1  5  8
11  12  8
3  7  8
5  6  8
5  8  8
6  7  8
6  9  8
8  11  8
9  12  8

$$$$

