4188
  -OEChem-06251223562D

105112  0     1  0  0  0  0  0999 V2000
    9.8324    4.8607    0.0000 O   0  0  0  0  0  0  0  0  0  0  0  0
   11.5644    1.8607    0.0000 O   0  0  0  0  0  0  0  0  0  0  0  0
    9.8324   -2.1393    0.0000 O   0  0  0  0  0  0  0  0  0  0  0  0
   11.5808   -2.1739    0.0000 O   0  0  0  0  0  0  0  0  0  0  0  0
    8.9663   -2.6393    0.0000 O   0  0  0  0  0  0  0  0  0  0  0  0
    2.9042    0.8607    0.0000 O   0  0  0  0  0  0  0  0  0  0  0  0
    6.3683    0.8607    0.0000 O   0  0  0  0  0  0  0  0  0  0  0  0
    8.1221   -4.1708    0.0000 O   0  0  0  0  0  0  0  0  0  0  0  0
    7.1663    3.3815    0.0000 N   0  0  0  0  0  0  0  0  0  0  0  0
    2.8522   -2.1877    0.0000 N   0  0  0  0  0  0  0  0  0  0  0  0
    7.1663    2.3399    0.0000 C   0  0  3  0  0  0  0  0  0  0  0  0
    8.0724    3.8954    0.0000 C   0  0  3  0  0  0  0  0  0  0  0  0
    8.0724    1.8260    0.0000 C   0  0  0  0  0  0  0  0  0  0  0  0
    8.9663    2.3607    0.0000 C   0  0  0  0  0  0  0  0  0  0  0  0
    8.9663    3.3607    0.0000 C   0  0  0  0  0  0  0  0  0  0  0  0
    9.8324    1.8607    0.0000 C   0  0  0  0  0  0  0  0  0  0  0  0
    9.8324    0.8607    0.0000 C   0  0  0  0  0  0  0  0  0  0  0  0
    6.3022    1.8365    0.0000 C   0  0  0  0  0  0  0  0  0  0  0  0
    9.8324    3.8607    0.0000 C   0  0  0  0  0  0  0  0  0  0  0  0
    8.0840    4.8953    0.0000 C   0  0  0  0  0  0  0  0  0  0  0  0
   10.6984    2.3607    0.0000 C   0  0  0  0  0  0  0  0  0  0  0  0
   10.6984    0.3607    0.0000 C   0  0  0  0  0  0  0  0  0  0  0  0
   10.6984    3.3607    0.0000 C   0  0  0  0  0  0  0  0  0  0  0  0
    8.9663    0.3607    0.0000 C   0  0  0  0  0  0  0  0  0  0  0  0
    8.9663   -0.6393    0.0000 C   0  0  0  0  0  0  0  0  0  0  0  0
   10.6984   -0.6393    0.0000 C   0  0  0  0  0  0  0  0  0  0  0  0
    8.1003   -1.1393    0.0000 C   0  0  0  0  0  0  0  0  0  0  0  0
    4.6362   -1.1393    0.0000 C   0  0  0  0  0  0  0  0  0  0  0  0
    9.8324   -1.1393    0.0000 C   0  0  0  0  0  0  0  0  0  0  0  0
    6.3683   -1.1393    0.0000 C   0  0  0  0  0  0  0  0  0  0  0  0
    5.5022   -0.6393    0.0000 C   0  0  0  0  0  0  0  0  0  0  0  0
    4.6523   -2.1808    0.0000 C   0  0  0  0  0  0  0  0  0  0  0  0
    3.7542   -2.7086    0.0000 C   0  0  3  0  0  0  0  0  0  0  0  0
    6.3683   -2.1393    0.0000 C   0  0  0  0  0  0  0  0  0  0  0  0
    7.2343   -0.6393    0.0000 C   0  0  0  0  0  0  0  0  0  0  0  0
    3.7702   -0.6393    0.0000 C   0  0  0  0  0  0  0  0  0  0  0  0
   11.5923    0.8954    0.0000 C   0  0  0  0  0  0  0  0  0  0  0  0
    7.2343   -2.6393    0.0000 C   0  0  0  0  0  0  0  0  0  0  0  0
    8.1003   -2.1393    0.0000 C   0  0  0  0  0  0  0  0  0  0  0  0
   11.5923   -1.1740    0.0000 C   0  0  0  0  0  0  0  0  0  0  0  0
   12.4984    0.3815    0.0000 C   0  0  0  0  0  0  0  0  0  0  0  0
    2.8602   -1.1461    0.0000 C   0  0  0  0  0  0  0  0  0  0  0  0
    5.5022    0.3607    0.0000 C   0  0  0  0  0  0  0  0  0  0  0  0
    3.7702    0.3607    0.0000 C   0  0  0  0  0  0  0  0  0  0  0  0
   12.4984   -0.6601    0.0000 C   0  0  0  0  0  0  0  0  0  0  0  0
    5.4583   -2.6461    0.0000 C   0  0  0  0  0  0  0  0  0  0  0  0
    7.2503   -3.6808    0.0000 C   0  0  0  0  0  0  0  0  0  0  0  0
    4.6362    0.8607    0.0000 C   0  0  0  0  0  0  0  0  0  0  0  0
    3.7581   -3.7086    0.0000 C   0  0  0  0  0  0  0  0  0  0  0  0
    5.4502   -3.6877    0.0000 C   0  0  0  0  0  0  0  0  0  0  0  0
    6.3523   -4.2086    0.0000 C   0  0  0  0  0  0  0  0  0  0  0  0
    2.0000   -0.6362    0.0000 C   0  0  0  0  0  0  0  0  0  0  0  0
   13.3625    0.8848    0.0000 C   0  0  0  0  0  0  0  0  0  0  0  0
    4.5823   -4.1844    0.0000 C   0  0  0  0  0  0  0  0  0  0  0  0
   12.4410   -2.6839    0.0000 C   0  0  0  0  0  0  0  0  0  0  0  0
    2.9042    1.8607    0.0000 C   0  0  0  0  0  0  0  0  0  0  0  0
    8.1337   -5.1707    0.0000 C   0  0  0  0  0  0  0  0  0  0  0  0
    6.6288    2.6488    0.0000 H   0  0  0  0  0  0  0  0  0  0  0  0
    7.5385    4.2105    0.0000 H   0  0  0  0  0  0  0  0  0  0  0  0
    7.6788    1.3470    0.0000 H   0  0  0  0  0  0  0  0  0  0  0  0
    8.4770    1.3562    0.0000 H   0  0  0  0  0  0  0  0  0  0  0  0
    6.6306    3.6936    0.0000 H   0  0  0  0  0  0  0  0  0  0  0  0
    5.9902    2.3723    0.0000 H   0  0  0  0  0  0  0  0  0  0  0  0
    5.7665    1.5245    0.0000 H   0  0  0  0  0  0  0  0  0  0  0  0
    6.6143    1.3008    0.0000 H   0  0  0  0  0  0  0  0  0  0  0  0
    8.7039    4.8881    0.0000 H   0  0  0  0  0  0  0  0  0  0  0  0
    8.0911    5.5152    0.0000 H   0  0  0  0  0  0  0  0  0  0  0  0
    7.4640    4.9025    0.0000 H   0  0  0  0  0  0  0  0  0  0  0  0
   11.2353    3.6707    0.0000 H   0  0  0  0  0  0  0  0  0  0  0  0
    8.4294    0.6707    0.0000 H   0  0  0  0  0  0  0  0  0  0  0  0
    4.8703   -2.7612    0.0000 H   0  0  0  0  0  0  0  0  0  0  0  0
    5.2614   -2.0653    0.0000 H   0  0  0  0  0  0  0  0  0  0  0  0
    3.2179   -3.0196    0.0000 H   0  0  0  0  0  0  0  0  0  0  0  0
    7.2343   -0.0193    0.0000 H   0  0  0  0  0  0  0  0  0  0  0  0
   11.5852    1.5153    0.0000 H   0  0  0  0  0  0  0  0  0  0  0  0
   10.3693    5.1707    0.0000 H   0  0  0  0  0  0  0  0  0  0  0  0
   12.1014    2.1707    0.0000 H   0  0  0  0  0  0  0  0  0  0  0  0
   13.0341   -0.9722    0.0000 H   0  0  0  0  0  0  0  0  0  0  0  0
    4.9249   -2.3300    0.0000 H   0  0  0  0  0  0  0  0  0  0  0  0
    4.6362    1.4807    0.0000 H   0  0  0  0  0  0  0  0  0  0  0  0
    3.1381   -3.7109    0.0000 H   0  0  0  0  0  0  0  0  0  0  0  0
    3.7605   -4.3286    0.0000 H   0  0  0  0  0  0  0  0  0  0  0  0
    4.3781   -3.7062    0.0000 H   0  0  0  0  0  0  0  0  0  0  0  0
    6.3547   -4.8286    0.0000 H   0  0  0  0  0  0  0  0  0  0  0  0
    2.3162   -0.1029    0.0000 H   0  0  0  0  0  0  0  0  0  0  0  0
    1.4667   -0.3200    0.0000 H   0  0  0  0  0  0  0  0  0  0  0  0
    1.6838   -1.1695    0.0000 H   0  0  0  0  0  0  0  0  0  0  0  0
   10.3693   -2.4493    0.0000 H   0  0  0  0  0  0  0  0  0  0  0  0
   13.6746    0.3491    0.0000 H   0  0  0  0  0  0  0  0  0  0  0  0
   13.8982    1.1969    0.0000 H   0  0  0  0  0  0  0  0  0  0  0  0
   13.0504    1.4206    0.0000 H   0  0  0  0  0  0  0  0  0  0  0  0
    8.9663   -3.2593    0.0000 H   0  0  0  0  0  0  0  0  0  0  0  0
    4.2744   -3.6463    0.0000 H   0  0  0  0  0  0  0  0  0  0  0  0
    4.0442   -4.4923    0.0000 H   0  0  0  0  0  0  0  0  0  0  0  0
    4.8902   -4.7225    0.0000 H   0  0  0  0  0  0  0  0  0  0  0  0
    6.9052    0.5507    0.0000 H   0  0  0  0  0  0  0  0  0  0  0  0
   12.1248   -3.2172    0.0000 H   0  0  0  0  0  0  0  0  0  0  0  0
   12.9743   -3.0001    0.0000 H   0  0  0  0  0  0  0  0  0  0  0  0
   12.7571   -2.1506    0.0000 H   0  0  0  0  0  0  0  0  0  0  0  0
    3.5242    1.8607    0.0000 H   0  0  0  0  0  0  0  0  0  0  0  0
    2.9042    2.4807    0.0000 H   0  0  0  0  0  0  0  0  0  0  0  0
    2.2842    1.8607    0.0000 H   0  0  0  0  0  0  0  0  0  0  0  0
    7.5137   -5.1779    0.0000 H   0  0  0  0  0  0  0  0  0  0  0  0
    8.1408   -5.7907    0.0000 H   0  0  0  0  0  0  0  0  0  0  0  0
    8.7536   -5.1635    0.0000 H   0  0  0  0  0  0  0  0  0  0  0  0
  1 19  1  0  0  0  0
  1 76  1  0  0  0  0
  2 21  1  0  0  0  0
  2 77  1  0  0  0  0
  3 29  1  0  0  0  0
  3 88  1  0  0  0  0
  4 40  1  0  0  0  0
  4 55  1  0  0  0  0
  5 39  1  0  0  0  0
  5 92  1  0  0  0  0
  6 44  1  0  0  0  0
  6 56  1  0  0  0  0
  7 43  1  0  0  0  0
  7 96  1  0  0  0  0
  8 47  1  0  0  0  0
  8 57  1  0  0  0  0
  9 11  1  0  0  0  0
  9 12  1  0  0  0  0
  9 62  1  0  0  0  0
 10 33  1  0  0  0  0
 10 42  2  0  0  0  0
 11 13  1  0  0  0  0
 11 18  1  0  0  0  0
 11 58  1  0  0  0  0
 12 15  1  0  0  0  0
 12 20  1  0  0  0  0
 12 59  1  0  0  0  0
 13 14  1  0  0  0  0
 13 60  1  0  0  0  0
 13 61  1  0  0  0  0
 14 15  1  0  0  0  0
 14 16  2  0  0  0  0
 15 19  2  0  0  0  0
 16 17  1  0  0  0  0
 16 21  1  0  0  0  0
 17 22  1  0  0  0  0
 17 24  2  0  0  0  0
 18 63  1  0  0  0  0
 18 64  1  0  0  0  0
 18 65  1  0  0  0  0
 19 23  1  0  0  0  0
 20 66  1  0  0  0  0
 20 67  1  0  0  0  0
 20 68  1  0  0  0  0
 21 23  2  0  0  0  0
 22 26  2  0  0  0  0
 22 37  1  0  0  0  0
 23 69  1  0  0  0  0
 24 25  1  0  0  0  0
 24 70  1  0  0  0  0
 25 27  1  0  0  0  0
 25 29  2  0  0  0  0
 26 29  1  0  0  0  0
 26 40  1  0  0  0  0
 27 35  1  0  0  0  0
 27 39  2  0  0  0  0
 28 31  2  0  0  0  0
 28 32  1  0  0  0  0
 28 36  1  0  0  0  0
 30 31  1  0  0  0  0
 30 34  1  0  0  0  0
 30 35  2  0  0  0  0
 31 43  1  0  0  0  0
 32 33  1  0  0  0  0
 32 71  1  0  0  0  0
 32 72  1  0  0  0  0
 33 49  1  0  0  0  0
 33 73  1  0  0  0  0
 34 38  2  0  0  0  0
 34 46  1  0  0  0  0
 35 74  1  0  0  0  0
 36 42  1  0  0  0  0
 36 44  2  0  0  0  0
 37 41  2  0  0  0  0
 37 75  1  0  0  0  0
 38 39  1  0  0  0  0
 38 47  1  0  0  0  0
 40 45  2  0  0  0  0
 41 45  1  0  0  0  0
 41 53  1  0  0  0  0
 42 52  1  0  0  0  0
 43 48  2  0  0  0  0
 44 48  1  0  0  0  0
 45 78  1  0  0  0  0
 46 50  2  0  0  0  0
 46 79  1  0  0  0  0
 47 51  2  0  0  0  0
 48 80  1  0  0  0  0
 49 81  1  0  0  0  0
 49 82  1  0  0  0  0
 49 83  1  0  0  0  0
 50 51  1  0  0  0  0
 50 54  1  0  0  0  0
 51 84  1  0  0  0  0
 52 85  1  0  0  0  0
 52 86  1  0  0  0  0
 52 87  1  0  0  0  0
 53 89  1  0  0  0  0
 53 90  1  0  0  0  0
 53 91  1  0  0  0  0
 54 93  1  0  0  0  0
 54 94  1  0  0  0  0
 54 95  1  0  0  0  0
 55 97  1  0  0  0  0
 55 98  1  0  0  0  0
 55 99  1  0  0  0  0
 56100  1  0  0  0  0
 56101  1  0  0  0  0
 56102  1  0  0  0  0
 57103  1  0  0  0  0
 57104  1  0  0  0  0
 57105  1  0  0  0  0
M  END
> <PUBCHEM_COMPOUND_CID>
4188

> <PUBCHEM_COMPOUND_CANONICALIZED>
1

> <PUBCHEM_CACTVS_COMPLEXITY>
1420

> <PUBCHEM_CACTVS_HBOND_ACCEPTOR>
10

> <PUBCHEM_CACTVS_HBOND_DONOR>
6

> <PUBCHEM_CACTVS_ROTATABLE_BOND>
6

> <PUBCHEM_CACTVS_SUBSKEYS>
AAADcfB/PAAAAAAAAAAAAAAAAAAAAAAAAAA8YMGDAAAAAADxVAAAHgAQCAAADCzBmAYyBsLABgCgAyBiBACCCAAgIAAAiIA+DJgMJyKGsRuEcChn0BWIuAfQ8P8O4AADCAAYAADAAAYQADAAAAAAAAAAAA==

> <PUBCHEM_IUPAC_OPENEYE_NAME>
5-[4-hydroxy-3-[1-hydroxy-4-(6-hydroxy-8-methoxy-1,3-dimethyl-3,4-dihydroisoquinolin-5-yl)-8-methoxy-6-methyl-2-naphthyl]-5-methoxy-7-methyl-1-naphthyl]-1,3-dimethyl-1,2,3,4-tetrahydroisoquinoline-6,8-diol

> <PUBCHEM_IUPAC_CAS_NAME>
5-[4-hydroxy-3-[1-hydroxy-4-(6-hydroxy-8-methoxy-1,3-dimethyl-3,4-dihydroisoquinolin-5-yl)-8-methoxy-6-methyl-2-naphthalenyl]-5-methoxy-7-methyl-1-naphthalenyl]-1,3-dimethyl-1,2,3,4-tetrahydroisoquinoline-6,8-diol

> <PUBCHEM_IUPAC_NAME>
5-[4-hydroxy-3-[1-hydroxy-4-(6-hydroxy-8-methoxy-1,3-dimethyl-3,4-dihydroisoquinolin-5-yl)-8-methoxy-6-methylnaphthalen-2-yl]-5-methoxy-7-methylnaphthalen-1-yl]-1,3-dimethyl-1,2,3,4-tetrahydroisoquinoline-6,8-diol

> <PUBCHEM_IUPAC_SYSTEMATIC_NAME>
5-[5-methoxy-3-[8-methoxy-4-(8-methoxy-1,3-dimethyl-6-oxidanyl-3,4-dihydroisoquinolin-5-yl)-6-methyl-1-oxidanyl-naphthalen-2-yl]-7-methyl-4-oxidanyl-naphthalen-1-yl]-1,3-dimethyl-1,2,3,4-tetrahydroisoquinoline-6,8-diol

> <PUBCHEM_IUPAC_TRADITIONAL_NAME>
5-[4-hydroxy-3-[1-hydroxy-4-(6-hydroxy-8-methoxy-1,3-dimethyl-3,4-dihydroisoquinolin-5-yl)-8-methoxy-6-methyl-2-naphthyl]-5-methoxy-7-methyl-1-naphthyl]-1,3-dimethyl-1,2,3,4-tetrahydroisoquinoline-6,8-diol

> <PUBCHEM_IUPAC_INCHI>
InChI=1S/C47H48N2O8/c1-20-10-26-28(42-32-14-22(3)48-24(5)40(32)34(50)18-35(42)51)16-30(46(53)44(26)37(12-20)55-7)31-17-29(27-11-21(2)13-38(56-8)45(27)47(31)54)43-33-15-23(4)49-25(6)41(33)39(57-9)19-36(43)52/h10-13,16-19,22-24,48,50-54H,14-15H2,1-9H3

> <PUBCHEM_IUPAC_INCHIKEY>
VSDWMCJBOALEDE-UHFFFAOYSA-N

> <PUBCHEM_XLOGP3_AA>
8.5

> <PUBCHEM_EXACT_MASS>
768.341067

> <PUBCHEM_MOLECULAR_FORMULA>
C47H48N2O8

> <PUBCHEM_MOLECULAR_WEIGHT>
768.89262

> <PUBCHEM_OPENEYE_CAN_SMILES>
CC1CC2=C(C(=CC(=C2C(N1)C)O)O)C3=CC(=C(C4=C(C=C(C=C34)C)OC)O)C5=C(C6=C(C=C(C=C6C(=C5)C7=C8CC(N=C(C8=C(C=C7O)OC)C)C)C)OC)O

> <PUBCHEM_OPENEYE_ISO_SMILES>
CC1CC2=C(C(=CC(=C2C(N1)C)O)O)C3=CC(=C(C4=C(C=C(C=C34)C)OC)O)C5=C(C6=C(C=C(C=C6C(=C5)C7=C8CC(N=C(C8=C(C=C7O)OC)C)C)C)OC)O

> <PUBCHEM_CACTVS_TPSA>
153

> <PUBCHEM_MONOISOTOPIC_WEIGHT>
768.341067

> <PUBCHEM_TOTAL_CHARGE>
0

> <PUBCHEM_HEAVY_ATOM_COUNT>
57

> <PUBCHEM_ATOM_DEF_STEREO_COUNT>
0

> <PUBCHEM_ATOM_UDEF_STEREO_COUNT>
3

> <PUBCHEM_BOND_DEF_STEREO_COUNT>
0

> <PUBCHEM_BOND_UDEF_STEREO_COUNT>
0

> <PUBCHEM_ISOTOPIC_ATOM_COUNT>
0

> <PUBCHEM_COMPONENT_COUNT>
1

> <PUBCHEM_CACTVS_TAUTO_COUNT>
965

> <PUBCHEM_COORDINATE_TYPE>
1
5
255

> <PUBCHEM_BONDANNOTATIONS>
11  18  3
12  20  3
14  15  8
14  16  8
15  19  8
16  21  8
17  22  8
17  24  8
19  23  8
21  23  8
22  26  8
22  37  8
24  25  8
25  29  8
26  29  8
26  40  8
27  35  8
27  39  8
28  31  8
28  36  8
30  34  8
30  35  8
31  43  8
33  49  3
34  38  8
34  46  8
36  44  8
37  41  8
38  39  8
38  47  8
40  45  8
41  45  8
43  48  8
44  48  8
46  50  8
47  51  8
50  51  8

$$$$

