5109
  -OEChem-06261200312D

 46 50  0     1  0  0  0  0  0999 V2000
    7.8028   -1.2577    0.0000 S   0  0  0  0  0  0  0  0  0  0  0  0
    8.6109   -2.8396    0.0000 S   0  0  0  0  0  0  0  0  0  0  0  0
    5.3770    0.7858    0.0000 O   0  0  0  0  0  0  0  0  0  0  0  0
    7.2150   -2.0668    0.0000 O   0  0  0  0  0  0  0  0  0  0  0  0
    8.3906   -0.4487    0.0000 O   0  0  0  0  0  0  0  0  0  0  0  0
    6.7619    1.9072    0.0000 N   0  0  0  0  0  0  0  0  0  0  0  0
    6.9938   -0.6700    0.0000 N   0  0  0  0  0  0  0  0  0  0  0  0
    4.6783    3.5780    0.0000 N   0  0  0  0  0  0  0  0  0  0  0  0
    2.0000    3.2733    0.0000 N   0  0  0  0  0  0  0  0  0  0  0  0
   11.1379   -2.4448    0.0000 N   0  0  0  0  0  0  0  0  0  0  0  0
    7.0983    0.3246    0.0000 C   0  0  3  0  0  0  0  0  0  0  0  0
    7.9643    0.8246    0.0000 C   0  0  0  0  0  0  0  0  0  0  0  0
    7.7564    1.8027    0.0000 C   0  0  0  0  0  0  0  0  0  0  0  0
    6.3551    0.9937    0.0000 C   0  0  0  0  0  0  0  0  0  0  0  0
    6.2619    2.7733    0.0000 C   0  0  0  0  0  0  0  0  0  0  0  0
    5.2619    2.7733    0.0000 C   0  0  0  0  0  0  0  0  0  0  0  0
    4.6783    1.9685    0.0000 C   0  0  0  0  0  0  0  0  0  0  0  0
    8.6118   -1.8455    0.0000 C   0  0  0  0  0  0  0  0  0  0  0  0
    3.7320    2.2733    0.0000 C   0  0  0  0  0  0  0  0  0  0  0  0
    3.7320    3.2733    0.0000 C   0  0  0  0  0  0  0  0  0  0  0  0
    9.5570   -1.5375    0.0000 C   0  0  0  0  0  0  0  0  0  0  0  0
   10.1433   -2.3402    0.0000 C   0  0  0  0  0  0  0  0  0  0  0  0
    9.5556   -3.1492    0.0000 C   0  0  0  0  0  0  0  0  0  0  0  0
    2.8660    1.7733    0.0000 C   0  0  0  0  0  0  0  0  0  0  0  0
    2.8660    3.7733    0.0000 C   0  0  0  0  0  0  0  0  0  0  0  0
    2.0000    2.2733    0.0000 C   0  0  0  0  0  0  0  0  0  0  0  0
    9.9623   -4.0628    0.0000 C   0  0  0  0  0  0  0  0  0  0  0  0
   10.9568   -4.1673    0.0000 C   0  0  0  0  0  0  0  0  0  0  0  0
   11.5446   -3.3583    0.0000 C   0  0  0  0  0  0  0  0  0  0  0  0
    7.6183   -0.0131    0.0000 H   0  0  0  0  0  0  0  0  0  0  0  0
    8.2165    0.2582    0.0000 H   0  0  0  0  0  0  0  0  0  0  0  0
    8.5540    1.0162    0.0000 H   0  0  0  0  0  0  0  0  0  0  0  0
    8.3730    1.8675    0.0000 H   0  0  0  0  0  0  0  0  0  0  0  0
    7.7564    2.4227    0.0000 H   0  0  0  0  0  0  0  0  0  0  0  0
    6.8445    2.9853    0.0000 H   0  0  0  0  0  0  0  0  0  0  0  0
    6.1542    3.3838    0.0000 H   0  0  0  0  0  0  0  0  0  0  0  0
    6.4274   -0.9221    0.0000 H   0  0  0  0  0  0  0  0  0  0  0  0
    4.8709    1.3792    0.0000 H   0  0  0  0  0  0  0  0  0  0  0  0
    4.8709    4.1673    0.0000 H   0  0  0  0  0  0  0  0  0  0  0  0
    9.7475   -0.9475    0.0000 H   0  0  0  0  0  0  0  0  0  0  0  0
    2.8660    1.1533    0.0000 H   0  0  0  0  0  0  0  0  0  0  0  0
    2.8660    4.3933    0.0000 H   0  0  0  0  0  0  0  0  0  0  0  0
    1.4631    1.9633    0.0000 H   0  0  0  0  0  0  0  0  0  0  0  0
    9.5979   -4.5644    0.0000 H   0  0  0  0  0  0  0  0  0  0  0  0
   11.2090   -4.7337    0.0000 H   0  0  0  0  0  0  0  0  0  0  0  0
   12.1612   -3.4231    0.0000 H   0  0  0  0  0  0  0  0  0  0  0  0
  1  4  2  0  0  0  0
  1  5  2  0  0  0  0
  1  7  1  0  0  0  0
  1 18  1  0  0  0  0
  2 18  1  0  0  0  0
  2 23  1  0  0  0  0
  3 14  2  0  0  0  0
  6 13  1  0  0  0  0
  6 14  1  0  0  0  0
  6 15  1  0  0  0  0
  7 11  1  0  0  0  0
  7 37  1  0  0  0  0
  8 16  1  0  0  0  0
  8 20  1  0  0  0  0
  8 39  1  0  0  0  0
  9 25  2  0  0  0  0
  9 26  1  0  0  0  0
 10 22  1  0  0  0  0
 10 29  2  0  0  0  0
 11 12  1  0  0  0  0
 11 14  1  0  0  0  0
 11 30  1  0  0  0  0
 12 13  1  0  0  0  0
 12 31  1  0  0  0  0
 12 32  1  0  0  0  0
 13 33  1  0  0  0  0
 13 34  1  0  0  0  0
 15 16  1  0  0  0  0
 15 35  1  0  0  0  0
 15 36  1  0  0  0  0
 16 17  2  0  0  0  0
 17 19  1  0  0  0  0
 17 38  1  0  0  0  0
 18 21  2  0  0  0  0
 19 20  2  0  0  0  0
 19 24  1  0  0  0  0
 20 25  1  0  0  0  0
 21 22  1  0  0  0  0
 21 40  1  0  0  0  0
 22 23  2  0  0  0  0
 23 27  1  0  0  0  0
 24 26  2  0  0  0  0
 24 41  1  0  0  0  0
 25 42  1  0  0  0  0
 26 43  1  0  0  0  0
 27 28  2  0  0  0  0
 27 44  1  0  0  0  0
 28 29  1  0  0  0  0
 28 45  1  0  0  0  0
 29 46  1  0  0  0  0
M  END
> <PUBCHEM_COMPOUND_CID>
5109

> <PUBCHEM_COMPOUND_CANONICALIZED>
1

> <PUBCHEM_CACTVS_COMPLEXITY>
730

> <PUBCHEM_CACTVS_HBOND_ACCEPTOR>
7

> <PUBCHEM_CACTVS_HBOND_DONOR>
2

> <PUBCHEM_CACTVS_ROTATABLE_BOND>
5

> <PUBCHEM_CACTVS_SUBSKEYS>
AAADceB7sABgAAAAAAAAAAAAAAAAAWLEgAAsWAAAAAAAAFgB/gAAHgQQQAAADCjB3gQ8wfPJkAqsAzV3VHDDobQxGjBI2b24dJgIYPLg0ZGUIAxglgDoyAcUgAAOAAAAAAAAAAAAAAAAAAAAAAAAAAAAAA==

> <PUBCHEM_IUPAC_OPENEYE_NAME>
N-[2-oxo-1-(1H-pyrrolo[2,3-c]pyridin-2-ylmethyl)pyrrolidin-3-yl]thieno[3,2-b]pyridine-2-sulfonamide

> <PUBCHEM_IUPAC_CAS_NAME>
N-[2-oxo-1-(1H-pyrrolo[2,3-c]pyridin-2-ylmethyl)-3-pyrrolidinyl]-2-thieno[3,2-b]pyridinesulfonamide

> <PUBCHEM_IUPAC_NAME>
N-[2-oxo-1-(1H-pyrrolo[2,3-c]pyridin-2-ylmethyl)pyrrolidin-3-yl]thieno[3,2-b]pyridine-2-sulfonamide

> <PUBCHEM_IUPAC_SYSTEMATIC_NAME>
N-[2-oxidanylidene-1-(1H-pyrrolo[2,3-c]pyridin-2-ylmethyl)pyrrolidin-3-yl]thieno[3,2-b]pyridine-2-sulfonamide

> <PUBCHEM_IUPAC_TRADITIONAL_NAME>
N-[2-keto-1-(1H-pyrrolo[2,3-c]pyridin-2-ylmethyl)pyrrolidin-3-yl]thieno[3,2-b]pyridine-2-sulfonamide

> <PUBCHEM_IUPAC_INCHI>
InChI=1S/C19H17N5O3S2/c25-19-14(23-29(26,27)18-9-15-17(28-18)2-1-5-21-15)4-7-24(19)11-13-8-12-3-6-20-10-16(12)22-13/h1-3,5-6,8-10,14,22-23H,4,7,11H2

> <PUBCHEM_IUPAC_INCHIKEY>
PLXOQMHGHDZMSX-UHFFFAOYSA-N

> <PUBCHEM_XLOGP3_AA>
1.5

> <PUBCHEM_EXACT_MASS>
427.077281

> <PUBCHEM_MOLECULAR_FORMULA>
C19H17N5O3S2

> <PUBCHEM_MOLECULAR_WEIGHT>
427.49998

> <PUBCHEM_OPENEYE_CAN_SMILES>
C1CN(C(=O)C1NS(=O)(=O)C2=CC3=C(S2)C=CC=N3)CC4=CC5=C(N4)C=NC=C5

> <PUBCHEM_OPENEYE_ISO_SMILES>
C1CN(C(=O)C1NS(=O)(=O)C2=CC3=C(S2)C=CC=N3)CC4=CC5=C(N4)C=NC=C5

> <PUBCHEM_CACTVS_TPSA>
145

> <PUBCHEM_MONOISOTOPIC_WEIGHT>
427.077281

> <PUBCHEM_TOTAL_CHARGE>
0

> <PUBCHEM_HEAVY_ATOM_COUNT>
29

> <PUBCHEM_ATOM_DEF_STEREO_COUNT>
0

> <PUBCHEM_ATOM_UDEF_STEREO_COUNT>
1

> <PUBCHEM_BOND_DEF_STEREO_COUNT>
0

> <PUBCHEM_BOND_UDEF_STEREO_COUNT>
0

> <PUBCHEM_ISOTOPIC_ATOM_COUNT>
0

> <PUBCHEM_COMPONENT_COUNT>
1

> <PUBCHEM_CACTVS_TAUTO_COUNT>
4

> <PUBCHEM_COORDINATE_TYPE>
1
5
255

> <PUBCHEM_BONDANNOTATIONS>
10  22  8
10  29  8
16  17  8
17  19  8
18  21  8
19  20  8
19  24  8
2  18  8
2  23  8
20  25  8
21  22  8
22  23  8
23  27  8
24  26  8
27  28  8
28  29  8
11  7  3
8  16  8
8  20  8
9  25  8
9  26  8

$$$$

