6281
  -OEChem-06261201132D

118125  0     1  0  0  0  0  0999 V2000
   18.3157   -1.5584    0.0000 O   0  0  0  0  0  0  0  0  0  0  0  0
   12.9226   -2.6107    0.0000 O   0  0  0  0  0  0  0  0  0  0  0  0
   19.5754    3.3149    0.0000 O   0  0  0  0  0  0  0  0  0  0  0  0
   11.1906   -2.6040    0.0000 O   0  0  0  0  0  0  0  0  0  0  0  0
   21.3360    3.5906    0.0000 O   0  0  0  0  0  0  0  0  0  0  0  0
   11.2022    0.3960    0.0000 O   0  0  0  0  0  0  0  0  0  0  0  0
    9.4663   -0.5973    0.0000 O   0  0  0  0  0  0  0  0  0  0  0  0
    8.5945   -2.0940    0.0000 O   0  0  0  0  0  0  0  0  0  0  0  0
    5.9945   -2.5840    0.0000 O   0  0  0  0  0  0  0  0  0  0  0  0
    6.0022   -0.5840    0.0000 O   0  0  0  0  0  0  0  0  0  0  0  0
    4.2625   -2.5773    0.0000 O   0  0  0  0  0  0  0  0  0  0  0  0
    4.2740    0.4227    0.0000 O   0  0  0  0  0  0  0  0  0  0  0  0
    2.5381   -0.5706    0.0000 O   0  0  0  0  0  0  0  0  0  0  0  0
   18.3157   -0.5584    0.0000 C   0  0  1  0  0  0  0  0  0  0  0  0
   17.4497   -1.0584    0.0000 C   0  0  1  0  0  0  0  0  0  0  0  0
   16.5837   -0.5584    0.0000 C   0  0  1  0  0  0  0  0  0  0  0  0
   18.3157    0.4416    0.0000 C   0  0  2  0  0  0  0  0  0  0  0  0
   15.6737   -1.0652    0.0000 C   0  0  2  0  0  0  0  0  0  0  0  0
   15.6656   -2.1068    0.0000 C   0  0  2  0  0  0  0  0  0  0  0  0
   16.5837    0.4416    0.0000 C   0  0  0  0  0  0  0  0  0  0  0  0
   17.4497    0.9416    0.0000 C   0  0  0  0  0  0  0  0  0  0  0  0
   19.2619    0.7464    0.0000 C   0  0  1  0  0  0  0  0  0  0  0  0
   17.4658   -2.0999    0.0000 C   0  0  0  0  0  0  0  0  0  0  0  0
   19.2619   -0.8631    0.0000 C   0  0  0  0  0  0  0  0  0  0  0  0
   16.5677   -2.6276    0.0000 C   0  0  0  0  0  0  0  0  0  0  0  0
   19.8456   -0.0584    0.0000 C   0  0  0  0  0  0  0  0  0  0  0  0
   14.7468   -0.5011    0.0000 C   0  0  0  0  0  0  0  0  0  0  0  0
   14.7302   -2.6565    0.0000 C   0  0  0  0  0  0  0  0  0  0  0  0
   18.3157    1.4416    0.0000 C   0  0  0  0  0  0  0  0  0  0  0  0
   15.6814   -0.0652    0.0000 C   0  0  0  0  0  0  0  0  0  0  0  0
   13.7990   -1.0291    0.0000 C   0  0  0  0  0  0  0  0  0  0  0  0
   13.7906   -2.1140    0.0000 C   0  0  2  0  0  0  0  0  0  0  0  0
   19.5726    1.6969    0.0000 C   0  0  0  0  0  0  0  0  0  0  0  0
   18.9862    2.5069    0.0000 C   0  0  0  0  0  0  0  0  0  0  0  0
   20.5242    2.0043    0.0000 C   0  0  0  0  0  0  0  0  0  0  0  0
   12.0586   -2.1074    0.0000 C   0  0  2  0  0  0  0  0  0  0  0  0
   20.5259    3.0043    0.0000 C   0  0  0  0  0  0  0  0  0  0  0  0
   12.0624   -1.1074    0.0000 C   0  0  0  0  0  0  0  0  0  0  0  0
   11.1983   -0.6040    0.0000 C   0  0  1  0  0  0  0  0  0  0  0  0
   10.3265   -2.1007    0.0000 C   0  0  1  0  0  0  0  0  0  0  0  0
   10.3304   -1.1007    0.0000 C   0  0  1  0  0  0  0  0  0  0  0  0
    9.4586   -2.5973    0.0000 C   0  0  0  0  0  0  0  0  0  0  0  0
    8.5983   -1.0940    0.0000 C   0  0  2  0  0  0  0  0  0  0  0  0
    7.7342   -0.5907    0.0000 C   0  0  0  0  0  0  0  0  0  0  0  0
    6.8663   -1.0873    0.0000 C   0  0  1  0  0  0  0  0  0  0  0  0
    7.7265   -2.5907    0.0000 C   0  0  1  0  0  0  0  0  0  0  0  0
    6.8624   -2.0873    0.0000 C   0  0  1  0  0  0  0  0  0  0  0  0
    7.7227   -3.5906    0.0000 C   0  0  0  0  0  0  0  0  0  0  0  0
    5.1304   -2.0806    0.0000 C   0  0  2  0  0  0  0  0  0  0  0  0
    5.1343   -1.0807    0.0000 C   0  0  0  0  0  0  0  0  0  0  0  0
    4.2702   -0.5773    0.0000 C   0  0  1  0  0  0  0  0  0  0  0  0
    3.3984   -2.0740    0.0000 C   0  0  1  0  0  0  0  0  0  0  0  0
    3.4022   -1.0740    0.0000 C   0  0  1  0  0  0  0  0  0  0  0  0
    2.5304   -2.5706    0.0000 C   0  0  0  0  0  0  0  0  0  0  0  0
   18.1891   -1.4777    0.0000 H   0  0  0  0  0  0  0  0  0  0  0  0
   17.3198   -0.1334    0.0000 H   0  0  0  0  0  0  0  0  0  0  0  0
   15.6689   -2.9568    0.0000 H   0  0  0  0  0  0  0  0  0  0  0  0
   16.3716    1.0243    0.0000 H   0  0  0  0  0  0  0  0  0  0  0  0
   15.9731    0.3340    0.0000 H   0  0  0  0  0  0  0  0  0  0  0  0
   17.8482    1.4166    0.0000 H   0  0  0  0  0  0  0  0  0  0  0  0
   17.0512    1.4166    0.0000 H   0  0  0  0  0  0  0  0  0  0  0  0
   19.8744    0.8426    0.0000 H   0  0  0  0  0  0  0  0  0  0  0  0
   17.6838   -2.6803    0.0000 H   0  0  0  0  0  0  0  0  0  0  0  0
   18.0749   -1.9844    0.0000 H   0  0  0  0  0  0  0  0  0  0  0  0
   19.0109   -1.4300    0.0000 H   0  0  0  0  0  0  0  0  0  0  0  0
   19.7993   -1.1723    0.0000 H   0  0  0  0  0  0  0  0  0  0  0  0
   16.1704   -3.1036    0.0000 H   0  0  0  0  0  0  0  0  0  0  0  0
   16.9687   -3.1005    0.0000 H   0  0  0  0  0  0  0  0  0  0  0  0
   20.3064   -0.4731    0.0000 H   0  0  0  0  0  0  0  0  0  0  0  0
   20.3064    0.3564    0.0000 H   0  0  0  0  0  0  0  0  0  0  0  0
   15.1550   -0.0345    0.0000 H   0  0  0  0  0  0  0  0  0  0  0  0
   14.3569   -0.0191    0.0000 H   0  0  0  0  0  0  0  0  0  0  0  0
   14.3329   -3.1325    0.0000 H   0  0  0  0  0  0  0  0  0  0  0  0
   15.1312   -3.1294    0.0000 H   0  0  0  0  0  0  0  0  0  0  0  0
   18.9357    1.4416    0.0000 H   0  0  0  0  0  0  0  0  0  0  0  0
   18.3157    2.0616    0.0000 H   0  0  0  0  0  0  0  0  0  0  0  0
   17.6957    1.4416    0.0000 H   0  0  0  0  0  0  0  0  0  0  0  0
   16.3014   -0.0700    0.0000 H   0  0  0  0  0  0  0  0  0  0  0  0
   15.6862    0.5548    0.0000 H   0  0  0  0  0  0  0  0  0  0  0  0
   15.0614   -0.0605    0.0000 H   0  0  0  0  0  0  0  0  0  0  0  0
   13.5944   -0.4438    0.0000 H   0  0  0  0  0  0  0  0  0  0  0  0
   13.1873   -1.1304    0.0000 H   0  0  0  0  0  0  0  0  0  0  0  0
   13.2555   -1.8009    0.0000 H   0  0  0  0  0  0  0  0  0  0  0  0
   18.8527   -1.8684    0.0000 H   0  0  0  0  0  0  0  0  0  0  0  0
   18.5262    2.9226    0.0000 H   0  0  0  0  0  0  0  0  0  0  0  0
   18.5248    2.0929    0.0000 H   0  0  0  0  0  0  0  0  0  0  0  0
   21.0252    1.6390    0.0000 H   0  0  0  0  0  0  0  0  0  0  0  0
   12.0562   -2.7274    0.0000 H   0  0  0  0  0  0  0  0  0  0  0  0
   12.6726   -1.2174    0.0000 H   0  0  0  0  0  0  0  0  0  0  0  0
   12.2767   -0.5256    0.0000 H   0  0  0  0  0  0  0  0  0  0  0  0
   10.6626   -0.2920    0.0000 H   0  0  0  0  0  0  0  0  0  0  0  0
   10.3241   -2.7207    0.0000 H   0  0  0  0  0  0  0  0  0  0  0  0
   10.3328   -0.4807    0.0000 H   0  0  0  0  0  0  0  0  0  0  0  0
    9.1506   -2.0592    0.0000 H   0  0  0  0  0  0  0  0  0  0  0  0
    8.9204   -2.9053    0.0000 H   0  0  0  0  0  0  0  0  0  0  0  0
    9.7665   -3.1355    0.0000 H   0  0  0  0  0  0  0  0  0  0  0  0
   10.6664    0.7080    0.0000 H   0  0  0  0  0  0  0  0  0  0  0  0
    8.6007   -0.4740    0.0000 H   0  0  0  0  0  0  0  0  0  0  0  0
    8.1346   -0.1173    0.0000 H   0  0  0  0  0  0  0  0  0  0  0  0
    7.3376   -0.1142    0.0000 H   0  0  0  0  0  0  0  0  0  0  0  0
    6.8687   -0.4673    0.0000 H   0  0  0  0  0  0  0  0  0  0  0  0
    8.2623   -2.9027    0.0000 H   0  0  0  0  0  0  0  0  0  0  0  0
    6.8600   -2.7073    0.0000 H   0  0  0  0  0  0  0  0  0  0  0  0
    7.1027   -3.5883    0.0000 H   0  0  0  0  0  0  0  0  0  0  0  0
    7.7203   -4.2106    0.0000 H   0  0  0  0  0  0  0  0  0  0  0  0
    8.3427   -3.5930    0.0000 H   0  0  0  0  0  0  0  0  0  0  0  0
    6.0046    0.0360    0.0000 H   0  0  0  0  0  0  0  0  0  0  0  0
    5.1280   -2.7006    0.0000 H   0  0  0  0  0  0  0  0  0  0  0  0
    5.7444   -1.1907    0.0000 H   0  0  0  0  0  0  0  0  0  0  0  0
    5.3486   -0.4989    0.0000 H   0  0  0  0  0  0  0  0  0  0  0  0
    3.7344   -0.2653    0.0000 H   0  0  0  0  0  0  0  0  0  0  0  0
    3.3960   -2.6940    0.0000 H   0  0  0  0  0  0  0  0  0  0  0  0
    2.8641   -1.3819    0.0000 H   0  0  0  0  0  0  0  0  0  0  0  0
    2.2225   -2.0325    0.0000 H   0  0  0  0  0  0  0  0  0  0  0  0
    1.9923   -2.8786    0.0000 H   0  0  0  0  0  0  0  0  0  0  0  0
    2.8384   -3.1088    0.0000 H   0  0  0  0  0  0  0  0  0  0  0  0
    3.7383    0.7347    0.0000 H   0  0  0  0  0  0  0  0  0  0  0  0
    2.0000   -0.8786    0.0000 H   0  0  0  0  0  0  0  0  0  0  0  0
 14  1  1  1  0  0  0
  1 84  1  0  0  0  0
 32  2  1  1  0  0  0
 36  2  1  6  0  0  0
  3 34  1  0  0  0  0
  3 37  1  0  0  0  0
  4 36  1  0  0  0  0
  4 40  1  0  0  0  0
  5 37  2  0  0  0  0
 39  6  1  1  0  0  0
  6 97  1  0  0  0  0
 41  7  1  1  0  0  0
 43  7  1  6  0  0  0
  8 43  1  0  0  0  0
  8 46  1  0  0  0  0
 47  9  1  1  0  0  0
 49  9  1  6  0  0  0
 45 10  1  1  0  0  0
 10107  1  0  0  0  0
 11 49  1  0  0  0  0
 11 52  1  0  0  0  0
 51 12  1  1  0  0  0
 12117  1  0  0  0  0
 53 13  1  1  0  0  0
 13118  1  0  0  0  0
 14 15  1  0  0  0  0
 14 17  1  0  0  0  0
 14 24  1  0  0  0  0
 15 16  1  0  0  0  0
 15 23  1  0  0  0  0
 15 55  1  1  0  0  0
 16 18  1  0  0  0  0
 16 20  1  0  0  0  0
 16 56  1  6  0  0  0
 17 21  1  0  0  0  0
 17 22  1  0  0  0  0
 17 29  1  1  0  0  0
 18 19  1  0  0  0  0
 18 27  1  0  0  0  0
 18 30  1  1  0  0  0
 19 25  1  0  0  0  0
 19 28  1  0  0  0  0
 19 57  1  1  0  0  0
 20 21  1  0  0  0  0
 20 58  1  0  0  0  0
 20 59  1  0  0  0  0
 21 60  1  0  0  0  0
 21 61  1  0  0  0  0
 22 26  1  0  0  0  0
 22 33  1  6  0  0  0
 22 62  1  0  0  0  0
 23 25  1  0  0  0  0
 23 63  1  0  0  0  0
 23 64  1  0  0  0  0
 24 26  1  0  0  0  0
 24 65  1  0  0  0  0
 24 66  1  0  0  0  0
 25 67  1  0  0  0  0
 25 68  1  0  0  0  0
 26 69  1  0  0  0  0
 26 70  1  0  0  0  0
 27 31  1  0  0  0  0
 27 71  1  0  0  0  0
 27 72  1  0  0  0  0
 28 32  1  0  0  0  0
 28 73  1  0  0  0  0
 28 74  1  0  0  0  0
 29 75  1  0  0  0  0
 29 76  1  0  0  0  0
 29 77  1  0  0  0  0
 30 78  1  0  0  0  0
 30 79  1  0  0  0  0
 30 80  1  0  0  0  0
 31 32  1  0  0  0  0
 31 81  1  0  0  0  0
 31 82  1  0  0  0  0
 32 83  1  0  0  0  0
 33 34  1  0  0  0  0
 33 35  2  0  0  0  0
 34 85  1  0  0  0  0
 34 86  1  0  0  0  0
 35 37  1  0  0  0  0
 35 87  1  0  0  0  0
 36 38  1  0  0  0  0
 36 88  1  0  0  0  0
 38 39  1  0  0  0  0
 38 89  1  0  0  0  0
 38 90  1  0  0  0  0
 39 41  1  0  0  0  0
 39 91  1  0  0  0  0
 40 41  1  0  0  0  0
 40 42  1  6  0  0  0
 40 92  1  0  0  0  0
 41 93  1  0  0  0  0
 42 94  1  0  0  0  0
 42 95  1  0  0  0  0
 42 96  1  0  0  0  0
 43 44  1  0  0  0  0
 43 98  1  0  0  0  0
 44 45  1  0  0  0  0
 44 99  1  0  0  0  0
 44100  1  0  0  0  0
 45 47  1  0  0  0  0
 45101  1  0  0  0  0
 46 47  1  0  0  0  0
 46 48  1  6  0  0  0
 46102  1  0  0  0  0
 47103  1  0  0  0  0
 48104  1  0  0  0  0
 48105  1  0  0  0  0
 48106  1  0  0  0  0
 49 50  1  0  0  0  0
 49108  1  0  0  0  0
 50 51  1  0  0  0  0
 50109  1  0  0  0  0
 50110  1  0  0  0  0
 51 53  1  0  0  0  0
 51111  1  0  0  0  0
 52 53  1  0  0  0  0
 52 54  1  6  0  0  0
 52112  1  0  0  0  0
 53113  1  0  0  0  0
 54114  1  0  0  0  0
 54115  1  0  0  0  0
 54116  1  0  0  0  0
M  END
> <PUBCHEM_COMPOUND_CID>
6281

> <PUBCHEM_COMPOUND_CANONICALIZED>
1

> <PUBCHEM_CACTVS_COMPLEXITY>
1410

> <PUBCHEM_CACTVS_HBOND_ACCEPTOR>
13

> <PUBCHEM_CACTVS_HBOND_DONOR>
5

> <PUBCHEM_CACTVS_ROTATABLE_BOND>
7

> <PUBCHEM_CACTVS_SUBSKEYS>
AAADcfB8PAAAAAAAAAAAAAAAAAAAAYIAAAA0aNECAAAAAGDAAAAAGgAACAAAD1SwgAMCCAAABgCIAiDSCAAAAAAgAAAACAAAAEgRFAIAIQAiUAAFgAAPIQPA4PwPgAAAAAAAAADAAAYAADAAAYAADAAAAA==

> <PUBCHEM_IUPAC_OPENEYE_NAME>
3-[(3S,5R,8R,9S,10S,13R,14S,17S)-3-[(2R,4S,5S,6R)-5-[(2S,4S,5S,6R)-5-[(2S,4S,5S,6R)-4,5-dihydroxy-6-methyl-tetrahydropyran-2-yl]oxy-4-hydroxy-6-methyl-tetrahydropyran-2-yl]oxy-4-hydroxy-6-methyl-tetrahydropyran-2-yl]oxy-14-hydroxy-10,13-dimethyl-1,2,3,4,5,6,7,8,9,11,12,15,16,17-tetradecahydrocyclopenta[a]phenanthren-17-yl]-2H-furan-5-one

> <PUBCHEM_IUPAC_CAS_NAME>
3-[(3S,5R,8R,9S,10S,13R,14S,17S)-3-[[(2R,4S,5S,6R)-5-[[(2S,4S,5S,6R)-5-[[(2S,4S,5S,6R)-4,5-dihydroxy-6-methyl-2-oxanyl]oxy]-4-hydroxy-6-methyl-2-oxanyl]oxy]-4-hydroxy-6-methyl-2-oxanyl]oxy]-14-hydroxy-10,13-dimethyl-1,2,3,4,5,6,7,8,9,11,12,15,16,17-tetradecahydrocyclopenta[a]phenanthren-17-yl]-2H-furan-5-one

> <PUBCHEM_IUPAC_NAME>
3-[(3S,5R,8R,9S,10S,13R,14S,17S)-3-[(2R,4S,5S,6R)-5-[(2S,4S,5S,6R)-5-[(2S,4S,5S,6R)-4,5-dihydroxy-6-methyloxan-2-yl]oxy-4-hydroxy-6-methyloxan-2-yl]oxy-4-hydroxy-6-methyloxan-2-yl]oxy-14-hydroxy-10,13-dimethyl-1,2,3,4,5,6,7,8,9,11,12,15,16,17-tetradecahydrocyclopenta[a]phenanthren-17-yl]-2H-furan-5-one

> <PUBCHEM_IUPAC_SYSTEMATIC_NAME>
3-[(3S,5R,8R,9S,10S,13R,14S,17S)-10,13-dimethyl-3-[(2R,4S,5S,6R)-6-methyl-5-[(2S,4S,5S,6R)-6-methyl-5-[(2S,4S,5S,6R)-6-methyl-4,5-bis(oxidanyl)oxan-2-yl]oxy-4-oxidanyl-oxan-2-yl]oxy-4-oxidanyl-oxan-2-yl]oxy-14-oxidanyl-1,2,3,4,5,6,7,8,9,11,12,15,16,17-tetradecahydrocyclopenta[a]phenanthren-17-yl]-2H-furan-5-one

> <PUBCHEM_IUPAC_TRADITIONAL_NAME>
3-[(3S,5R,8R,9S,10S,13R,14S,17S)-3-[(2R,4S,5S,6R)-5-[(2S,4S,5S,6R)-5-[(2S,4S,5S,6R)-4,5-dihydroxy-6-methyl-tetrahydropyran-2-yl]oxy-4-hydroxy-6-methyl-tetrahydropyran-2-yl]oxy-4-hydroxy-6-methyl-tetrahydropyran-2-yl]oxy-14-hydroxy-10,13-dimethyl-1,2,3,4,5,6,7,8,9,11,12,15,16,17-tetradecahydrocyclopenta[a]phenanthren-17-yl]-2H-furan-5-one

> <PUBCHEM_IUPAC_INCHI>
InChI=1S/C41H64O13/c1-20-36(46)29(42)16-34(49-20)53-38-22(3)51-35(18-31(38)44)54-37-21(2)50-33(17-30(37)43)52-25-8-11-39(4)24(15-25)6-7-28-27(39)9-12-40(5)26(10-13-41(28,40)47)23-14-32(45)48-19-23/h14,20-22,24-31,33-38,42-44,46-47H,6-13,15-19H2,1-5H3/t20-,21-,22-,24-,25+,26+,27+,28-,29+,30+,31+,33+,34+,35+,36-,37-,38-,39+,40-,41+/m1/s1

> <PUBCHEM_IUPAC_INCHIKEY>
WDJUZGPOPHTGOT-ADSZZZNASA-N

> <PUBCHEM_XLOGP3>
2.3

> <PUBCHEM_EXACT_MASS>
764.434692

> <PUBCHEM_MOLECULAR_FORMULA>
C41H64O13

> <PUBCHEM_MOLECULAR_WEIGHT>
764.93906

> <PUBCHEM_OPENEYE_CAN_SMILES>
CC1C(C(CC(O1)OC2C(OC(CC2O)OC3C(OC(CC3O)OC4CCC5(C(C4)CCC6C5CCC7(C6(CCC7C8=CC(=O)OC8)O)C)C)C)C)O)O

> <PUBCHEM_OPENEYE_ISO_SMILES>
C[C@@H]1[C@H]([C@H](C[C@@H](O1)O[C@@H]2[C@H](O[C@H](C[C@@H]2O)O[C@@H]3[C@H](O[C@H](C[C@@H]3O)O[C@H]4CC[C@]5([C@@H](C4)CC[C@@H]6[C@@H]5CC[C@]7([C@@]6(CC[C@H]7C8=CC(=O)OC8)O)C)C)C)C)O)O

> <PUBCHEM_CACTVS_TPSA>
183

> <PUBCHEM_MONOISOTOPIC_WEIGHT>
764.434692

> <PUBCHEM_TOTAL_CHARGE>
0

> <PUBCHEM_HEAVY_ATOM_COUNT>
54

> <PUBCHEM_ATOM_DEF_STEREO_COUNT>
20

> <PUBCHEM_ATOM_UDEF_STEREO_COUNT>
0

> <PUBCHEM_BOND_DEF_STEREO_COUNT>
0

> <PUBCHEM_BOND_UDEF_STEREO_COUNT>
0

> <PUBCHEM_ISOTOPIC_ATOM_COUNT>
0

> <PUBCHEM_COMPONENT_COUNT>
1

> <PUBCHEM_CACTVS_TAUTO_COUNT>
1

> <PUBCHEM_COORDINATE_TYPE>
1
5
255

> <PUBCHEM_BONDANNOTATIONS>
14  1  5
45  10  5
51  12  5
53  13  5
15  55  5
16  56  6
17  29  5
18  30  5
19  57  5
32  2  5
36  2  6
22  33  6
40  42  6
46  48  6
52  54  6
39  6  5
41  7  5
43  7  6
47  9  5
49  9  6

$$$$

