12493
  -OEChem-06261207002D

 24 22  0     0  0  0  0  0  0999 V2000
    5.7550    1.9445    0.0000 Br  0  5  0  0  0  0  0  0  0  0  0  0
    1.4860    2.1200    0.0000 N   0  3  0  0  0  0  0  0  0  0  0  0
    2.3521    2.6200    0.0000 C   0  0  0  0  0  0  0  0  0  0  0  0
    0.6200    1.6200    0.0000 C   0  0  0  0  0  0  0  0  0  0  0  0
    0.9860    2.9860    0.0000 C   0  0  0  0  0  0  0  0  0  0  0  0
    3.2181    2.1200    0.0000 C   0  0  0  0  0  0  0  0  0  0  0  0
    0.6200    0.6200    0.0000 C   0  0  0  0  0  0  0  0  0  0  0  0
    1.4860    3.8520    0.0000 C   0  0  0  0  0  0  0  0  0  0  0  0
    1.7960    1.5831    0.0000 H   0  0  0  0  0  0  0  0  0  0  0  0
    0.5111    3.3846    0.0000 H   0  0  0  0  0  0  0  0  0  0  0  0
    0.5111    2.5875    0.0000 H   0  0  0  0  0  0  0  0  0  0  0  0
    0.4079    2.2026    0.0000 H   0  0  0  0  0  0  0  0  0  0  0  0
    0.0094    1.5123    0.0000 H   0  0  0  0  0  0  0  0  0  0  0  0
    2.7506    3.0950    0.0000 H   0  0  0  0  0  0  0  0  0  0  0  0
    1.9535    3.0950    0.0000 H   0  0  0  0  0  0  0  0  0  0  0  0
    2.9081    1.5831    0.0000 H   0  0  0  0  0  0  0  0  0  0  0  0
    3.7550    1.8100    0.0000 H   0  0  0  0  0  0  0  0  0  0  0  0
    3.5281    2.6569    0.0000 H   0  0  0  0  0  0  0  0  0  0  0  0
    0.0000    0.6200    0.0000 H   0  0  0  0  0  0  0  0  0  0  0  0
    0.6200    0.0000    0.0000 H   0  0  0  0  0  0  0  0  0  0  0  0
    1.2400    0.6200    0.0000 H   0  0  0  0  0  0  0  0  0  0  0  0
    2.0230    3.5420    0.0000 H   0  0  0  0  0  0  0  0  0  0  0  0
    1.7960    4.3890    0.0000 H   0  0  0  0  0  0  0  0  0  0  0  0
    0.9491    4.1620    0.0000 H   0  0  0  0  0  0  0  0  0  0  0  0
  2  3  1  0  0  0  0
  2  4  1  0  0  0  0
  2  5  1  0  0  0  0
  2  9  1  0  0  0  0
  3  6  1  0  0  0  0
  3 14  1  0  0  0  0
  3 15  1  0  0  0  0
  4  7  1  0  0  0  0
  4 12  1  0  0  0  0
  4 13  1  0  0  0  0
  5  8  1  0  0  0  0
  5 10  1  0  0  0  0
  5 11  1  0  0  0  0
  6 16  1  0  0  0  0
  6 17  1  0  0  0  0
  6 18  1  0  0  0  0
  7 19  1  0  0  0  0
  7 20  1  0  0  0  0
  7 21  1  0  0  0  0
  8 22  1  0  0  0  0
  8 23  1  0  0  0  0
  8 24  1  0  0  0  0
M  CHG  2   1  -1   2   1
M  END
> <PUBCHEM_COMPOUND_CID>
12493

> <PUBCHEM_COMPOUND_CANONICALIZED>
1

> <PUBCHEM_CACTVS_COMPLEXITY>
25.7

> <PUBCHEM_CACTVS_HBOND_ACCEPTOR>
1

> <PUBCHEM_CACTVS_HBOND_DONOR>
1

> <PUBCHEM_CACTVS_ROTATABLE_BOND>
3

> <PUBCHEM_CACTVS_SUBSKEYS>
AAADceBiAAAAEAAAAAAAAAAAAAAAAAAAAAAAAAAAAAAAAAAAAAAAHAAQAAAAAADBAAQCAAPAAAAAAAAAAAAAAAAAAAAAAIAIAAAAAAAAAAAAAAAAEACAAAAAAAAAAAAAAAAAAAAAAAAAAAAAAAAAAAAAAA==

> <PUBCHEM_IUPAC_OPENEYE_NAME>
triethylammonium bromide

> <PUBCHEM_IUPAC_CAS_NAME>
triethylammonium bromide

> <PUBCHEM_IUPAC_NAME>
triethylazanium bromide

> <PUBCHEM_IUPAC_SYSTEMATIC_NAME>
triethylazanium bromide

> <PUBCHEM_IUPAC_TRADITIONAL_NAME>
triethylammonium bromide

> <PUBCHEM_IUPAC_INCHI>
InChI=1S/C6H15N.BrH/c1-4-7(5-2)6-3;/h4-6H2,1-3H3;1H

> <PUBCHEM_IUPAC_INCHIKEY>
NRTLTGGGUQIRRT-UHFFFAOYSA-N

> <PUBCHEM_EXACT_MASS>
181.046612

> <PUBCHEM_MOLECULAR_FORMULA>
C6H16BrN

> <PUBCHEM_MOLECULAR_WEIGHT>
182.10194

> <PUBCHEM_OPENEYE_CAN_SMILES>
CC[NH+](CC)CC.[Br-]

> <PUBCHEM_OPENEYE_ISO_SMILES>
CC[NH+](CC)CC.[Br-]

> <PUBCHEM_CACTVS_TPSA>
4.4

> <PUBCHEM_MONOISOTOPIC_WEIGHT>
181.046612

> <PUBCHEM_TOTAL_CHARGE>
0

> <PUBCHEM_HEAVY_ATOM_COUNT>
8

> <PUBCHEM_ATOM_DEF_STEREO_COUNT>
0

> <PUBCHEM_ATOM_UDEF_STEREO_COUNT>
0

> <PUBCHEM_BOND_DEF_STEREO_COUNT>
0

> <PUBCHEM_BOND_UDEF_STEREO_COUNT>
0

> <PUBCHEM_ISOTOPIC_ATOM_COUNT>
0

> <PUBCHEM_COMPONENT_COUNT>
2

> <PUBCHEM_CACTVS_TAUTO_COUNT>
1

> <PUBCHEM_COORDINATE_TYPE>
1
5
255

$$$$

