14374
  -OEChem-06241222432D

 35 36  0     0  0  0  0  0  0999 V2000
    2.0000   -0.3621    0.0000 O   0  5  0  0  0  0  0  0  0  0  0  0
    2.8660    1.1379    0.0000 O   0  0  0  0  0  0  0  0  0  0  0  0
    7.6995    1.0994    0.0000 N   0  0  0  0  0  0  0  0  0  0  0  0
    6.4103   -1.6668    0.0000 N   0  0  0  0  0  0  0  0  0  0  0  0
    2.8660    0.1379    0.0000 N   0  3  0  0  0  0  0  0  0  0  0  0
    6.7210    0.8932    0.0000 C   0  0  0  0  0  0  0  0  0  0  0  0
    6.4103   -0.0573    0.0000 C   0  0  0  0  0  0  0  0  0  0  0  0
    5.4641   -0.3621    0.0000 C   0  0  0  0  0  0  0  0  0  0  0  0
    5.4641   -1.3621    0.0000 C   0  0  0  0  0  0  0  0  0  0  0  0
    8.0102    2.0499    0.0000 C   0  0  0  0  0  0  0  0  0  0  0  0
    8.3673    0.3551    0.0000 C   0  0  0  0  0  0  0  0  0  0  0  0
    6.9939   -0.8621    0.0000 C   0  0  0  0  0  0  0  0  0  0  0  0
    4.5981    0.1379    0.0000 C   0  0  0  0  0  0  0  0  0  0  0  0
    4.5981   -1.8621    0.0000 C   0  0  0  0  0  0  0  0  0  0  0  0
    9.3458    0.5613    0.0000 C   0  0  0  0  0  0  0  0  0  0  0  0
    8.9887    2.2561    0.0000 C   0  0  0  0  0  0  0  0  0  0  0  0
    3.7320   -0.3621    0.0000 C   0  0  0  0  0  0  0  0  0  0  0  0
    3.7320   -1.3621    0.0000 C   0  0  0  0  0  0  0  0  0  0  0  0
    6.7004    1.5128    0.0000 H   0  0  0  0  0  0  0  0  0  0  0  0
    6.1072    0.9805    0.0000 H   0  0  0  0  0  0  0  0  0  0  0  0
    7.9896    2.6696    0.0000 H   0  0  0  0  0  0  0  0  0  0  0  0
    7.3963    2.1373    0.0000 H   0  0  0  0  0  0  0  0  0  0  0  0
    7.8410    0.0275    0.0000 H   0  0  0  0  0  0  0  0  0  0  0  0
    8.5986   -0.2202    0.0000 H   0  0  0  0  0  0  0  0  0  0  0  0
    7.6139   -0.8621    0.0000 H   0  0  0  0  0  0  0  0  0  0  0  0
    6.6029   -2.2561    0.0000 H   0  0  0  0  0  0  0  0  0  0  0  0
    4.5981    0.7579    0.0000 H   0  0  0  0  0  0  0  0  0  0  0  0
    4.5981   -2.4821    0.0000 H   0  0  0  0  0  0  0  0  0  0  0  0
    9.4737   -0.0454    0.0000 H   0  0  0  0  0  0  0  0  0  0  0  0
    9.9525    0.6892    0.0000 H   0  0  0  0  0  0  0  0  0  0  0  0
    9.2180    1.1680    0.0000 H   0  0  0  0  0  0  0  0  0  0  0  0
    9.1165    1.6495    0.0000 H   0  0  0  0  0  0  0  0  0  0  0  0
    9.5953    2.3840    0.0000 H   0  0  0  0  0  0  0  0  0  0  0  0
    8.8608    2.8628    0.0000 H   0  0  0  0  0  0  0  0  0  0  0  0
    3.1951   -1.6721    0.0000 H   0  0  0  0  0  0  0  0  0  0  0  0
  1  5  1  0  0  0  0
  2  5  2  0  0  0  0
  3  6  1  0  0  0  0
  3 10  1  0  0  0  0
  3 11  1  0  0  0  0
  4  9  1  0  0  0  0
  4 12  1  0  0  0  0
  4 26  1  0  0  0  0
  5 17  1  0  0  0  0
  6  7  1  0  0  0  0
  6 19  1  0  0  0  0
  6 20  1  0  0  0  0
  7  8  1  0  0  0  0
  7 12  2  0  0  0  0
  8  9  2  0  0  0  0
  8 13  1  0  0  0  0
  9 14  1  0  0  0  0
 10 16  1  0  0  0  0
 10 21  1  0  0  0  0
 10 22  1  0  0  0  0
 11 15  1  0  0  0  0
 11 23  1  0  0  0  0
 11 24  1  0  0  0  0
 12 25  1  0  0  0  0
 13 17  2  0  0  0  0
 13 27  1  0  0  0  0
 14 18  2  0  0  0  0
 14 28  1  0  0  0  0
 15 29  1  0  0  0  0
 15 30  1  0  0  0  0
 15 31  1  0  0  0  0
 16 32  1  0  0  0  0
 16 33  1  0  0  0  0
 16 34  1  0  0  0  0
 17 18  1  0  0  0  0
 18 35  1  0  0  0  0
M  CHG  2   1  -1   5   1
M  END
> <PUBCHEM_COMPOUND_CID>
14374

> <PUBCHEM_COMPOUND_CANONICALIZED>
1

> <PUBCHEM_CACTVS_COMPLEXITY>
289

> <PUBCHEM_CACTVS_HBOND_ACCEPTOR>
3

> <PUBCHEM_CACTVS_HBOND_DONOR>
1

> <PUBCHEM_CACTVS_ROTATABLE_BOND>
4

> <PUBCHEM_CACTVS_SUBSKEYS>
AAADceBzMAAAAAAAAAAAAAAAAAAAAWAAAAAwAAAAAAAAAFgB8AAAHAAUAAAADAjBHgQ+wPPZ0AChAzRnRwCCgCAxAiAo2aA4ZJoIIOLA0ZGEIAhgkADIyAcQgMAOgACAQAACAAAAAQCAAAQAAAAAAAAAAA==

> <PUBCHEM_IUPAC_OPENEYE_NAME>
N-ethyl-N-[(5-nitro-1H-indol-3-yl)methyl]ethanamine

> <PUBCHEM_IUPAC_CAS_NAME>
N-ethyl-N-[(5-nitro-1H-indol-3-yl)methyl]ethanamine

> <PUBCHEM_IUPAC_NAME>
N-ethyl-N-[(5-nitro-1H-indol-3-yl)methyl]ethanamine

> <PUBCHEM_IUPAC_SYSTEMATIC_NAME>
N-ethyl-N-[(5-nitro-1H-indol-3-yl)methyl]ethanamine

> <PUBCHEM_IUPAC_TRADITIONAL_NAME>
diethyl-[(5-nitro-1H-indol-3-yl)methyl]amine

> <PUBCHEM_IUPAC_INCHI>
InChI=1S/C13H17N3O2/c1-3-15(4-2)9-10-8-14-13-6-5-11(16(17)18)7-12(10)13/h5-8,14H,3-4,9H2,1-2H3

> <PUBCHEM_IUPAC_INCHIKEY>
GXZBKAKDGAAGIW-UHFFFAOYSA-N

> <PUBCHEM_XLOGP3_AA>
2.4

> <PUBCHEM_EXACT_MASS>
247.132077

> <PUBCHEM_MOLECULAR_FORMULA>
C13H17N3O2

> <PUBCHEM_MOLECULAR_WEIGHT>
247.29298

> <PUBCHEM_OPENEYE_CAN_SMILES>
CCN(CC)CC1=CNC2=C1C=C(C=C2)[N+](=O)[O-]

> <PUBCHEM_OPENEYE_ISO_SMILES>
CCN(CC)CC1=CNC2=C1C=C(C=C2)[N+](=O)[O-]

> <PUBCHEM_CACTVS_TPSA>
64.8

> <PUBCHEM_MONOISOTOPIC_WEIGHT>
247.132077

> <PUBCHEM_TOTAL_CHARGE>
0

> <PUBCHEM_HEAVY_ATOM_COUNT>
18

> <PUBCHEM_ATOM_DEF_STEREO_COUNT>
0

> <PUBCHEM_ATOM_UDEF_STEREO_COUNT>
0

> <PUBCHEM_BOND_DEF_STEREO_COUNT>
0

> <PUBCHEM_BOND_UDEF_STEREO_COUNT>
0

> <PUBCHEM_ISOTOPIC_ATOM_COUNT>
0

> <PUBCHEM_COMPONENT_COUNT>
1

> <PUBCHEM_CACTVS_TAUTO_COUNT>
1

> <PUBCHEM_COORDINATE_TYPE>
1
5
255

> <PUBCHEM_BONDANNOTATIONS>
13  17  8
14  18  8
17  18  8
4  12  8
4  9  8
7  12  8
7  8  8
8  13  8
8  9  8
9  14  8

$$$$

