17395520
  -OEChem-06241222502D

 39 42  0     0  0  0  0  0  0999 V2000
    6.7619    0.7913    0.0000 S   0  0  0  0  0  0  0  0  0  0  0  0
    5.2674   -1.9113    0.0000 S   0  0  0  0  0  0  0  0  0  0  0  0
    7.6279    0.2913    0.0000 O   0  0  0  0  0  0  0  0  0  0  0  0
    5.8958    1.2913    0.0000 O   0  0  0  0  0  0  0  0  0  0  0  0
    4.6783    0.7300    0.0000 N   0  0  0  0  0  0  0  0  0  0  0  0
    4.6783   -0.8794    0.0000 N   0  0  0  0  0  0  0  0  0  0  0  0
    6.2619   -0.0747    0.0000 C   0  0  0  0  0  0  0  0  0  0  0  0
    5.2619   -0.0747    0.0000 C   0  0  0  0  0  0  0  0  0  0  0  0
    3.7320    0.4253    0.0000 C   0  0  0  0  0  0  0  0  0  0  0  0
    7.2619    1.6574    0.0000 C   0  0  0  0  0  0  0  0  0  0  0  0
    3.7320   -0.5747    0.0000 C   0  0  0  0  0  0  0  0  0  0  0  0
    6.7619   -0.9407    0.0000 C   0  0  0  0  0  0  0  0  0  0  0  0
    2.8660    0.9253    0.0000 C   0  0  0  0  0  0  0  0  0  0  0  0
    2.8660   -1.0747    0.0000 C   0  0  0  0  0  0  0  0  0  0  0  0
    6.7619    2.5234    0.0000 C   0  0  0  0  0  0  0  0  0  0  0  0
    8.2619    1.6574    0.0000 C   0  0  0  0  0  0  0  0  0  0  0  0
    6.2619   -1.8067    0.0000 C   0  0  0  0  0  0  0  0  0  0  0  0
    2.0000    0.4253    0.0000 C   0  0  0  0  0  0  0  0  0  0  0  0
    2.0000   -0.5747    0.0000 C   0  0  0  0  0  0  0  0  0  0  0  0
    7.2619    3.3894    0.0000 C   0  0  0  0  0  0  0  0  0  0  0  0
    8.7619    2.5234    0.0000 C   0  0  0  0  0  0  0  0  0  0  0  0
    8.2619    3.3894    0.0000 C   0  0  0  0  0  0  0  0  0  0  0  0
    6.6686   -2.7203    0.0000 C   0  0  0  0  0  0  0  0  0  0  0  0
    5.9255   -3.3894    0.0000 C   0  0  0  0  0  0  0  0  0  0  0  0
    5.0594   -2.8894    0.0000 C   0  0  0  0  0  0  0  0  0  0  0  0
    4.8709    1.3194    0.0000 H   0  0  0  0  0  0  0  0  0  0  0  0
    7.3819   -0.9407    0.0000 H   0  0  0  0  0  0  0  0  0  0  0  0
    2.8660    1.5453    0.0000 H   0  0  0  0  0  0  0  0  0  0  0  0
    2.8660   -1.6947    0.0000 H   0  0  0  0  0  0  0  0  0  0  0  0
    6.1419    2.5234    0.0000 H   0  0  0  0  0  0  0  0  0  0  0  0
    8.5719    1.1204    0.0000 H   0  0  0  0  0  0  0  0  0  0  0  0
    1.4631    0.7353    0.0000 H   0  0  0  0  0  0  0  0  0  0  0  0
    1.4631   -0.8847    0.0000 H   0  0  0  0  0  0  0  0  0  0  0  0
    6.9519    3.9264    0.0000 H   0  0  0  0  0  0  0  0  0  0  0  0
    9.3819    2.5234    0.0000 H   0  0  0  0  0  0  0  0  0  0  0  0
    8.5719    3.9264    0.0000 H   0  0  0  0  0  0  0  0  0  0  0  0
    7.2751   -2.8492    0.0000 H   0  0  0  0  0  0  0  0  0  0  0  0
    5.9903   -4.0060    0.0000 H   0  0  0  0  0  0  0  0  0  0  0  0
    4.4930   -3.1416    0.0000 H   0  0  0  0  0  0  0  0  0  0  0  0
  1  3  2  0  0  0  0
  1  4  2  0  0  0  0
  1  7  1  0  0  0  0
  1 10  1  0  0  0  0
  2 17  1  0  0  0  0
  2 25  1  0  0  0  0
  5  8  1  0  0  0  0
  5  9  1  0  0  0  0
  5 26  1  0  0  0  0
  6  8  2  0  0  0  0
  6 11  1  0  0  0  0
  7  8  1  0  0  0  0
  7 12  2  0  0  0  0
  9 11  1  0  0  0  0
  9 13  2  0  0  0  0
 10 15  2  0  0  0  0
 10 16  1  0  0  0  0
 11 14  2  0  0  0  0
 12 17  1  0  0  0  0
 12 27  1  0  0  0  0
 13 18  1  0  0  0  0
 13 28  1  0  0  0  0
 14 19  1  0  0  0  0
 14 29  1  0  0  0  0
 15 20  1  0  0  0  0
 15 30  1  0  0  0  0
 16 21  2  0  0  0  0
 16 31  1  0  0  0  0
 17 23  2  0  0  0  0
 18 19  2  0  0  0  0
 18 32  1  0  0  0  0
 19 33  1  0  0  0  0
 20 22  2  0  0  0  0
 20 34  1  0  0  0  0
 21 22  1  0  0  0  0
 21 35  1  0  0  0  0
 22 36  1  0  0  0  0
 23 24  1  0  0  0  0
 23 37  1  0  0  0  0
 24 25  2  0  0  0  0
 24 38  1  0  0  0  0
 25 39  1  0  0  0  0
M  END
> <PUBCHEM_COMPOUND_CID>
17395520

> <PUBCHEM_COMPOUND_CANONICALIZED>
1

> <PUBCHEM_CACTVS_COMPLEXITY>
593

> <PUBCHEM_CACTVS_HBOND_ACCEPTOR>
4

> <PUBCHEM_CACTVS_HBOND_DONOR>
1

> <PUBCHEM_CACTVS_ROTATABLE_BOND>
4

> <PUBCHEM_CACTVS_SUBSKEYS>
AAADccB7MABgAAAAAAAAAAAAAAAAAWJAAAAwYAAAAAAAAFgB/AAAHAQQAAAACAiFVwCx0bbJkAqkASZiZHDDgK2hGrBJmTgwdJiIaKLgmZGUIAhokALoyCcQAAAAAAAAAAAAACAAAAAAAAAAQAAAAAAAAA==

> <PUBCHEM_IUPAC_OPENEYE_NAME>
2-[(E)-1-(benzenesulfonyl)-2-(2-thienyl)vinyl]-1H-benzimidazole

> <PUBCHEM_IUPAC_CAS_NAME>
2-[(E)-1-(benzenesulfonyl)-2-thiophen-2-ylethenyl]-1H-benzimidazole

> <PUBCHEM_IUPAC_NAME>
2-[(E)-1-(benzenesulfonyl)-2-thiophen-2-ylethenyl]-1H-benzimidazole

> <PUBCHEM_IUPAC_SYSTEMATIC_NAME>
2-[(E)-1-(phenylsulfonyl)-2-thiophen-2-yl-ethenyl]-1H-benzimidazole

> <PUBCHEM_IUPAC_TRADITIONAL_NAME>
2-[(E)-1-besyl-2-(2-thienyl)vinyl]-1H-benzimidazole

> <PUBCHEM_IUPAC_INCHI>
InChI=1S/C19H14N2O2S2/c22-25(23,15-8-2-1-3-9-15)18(13-14-7-6-12-24-14)19-20-16-10-4-5-11-17(16)21-19/h1-13H,(H,20,21)/b18-13+

> <PUBCHEM_IUPAC_INCHIKEY>
LSTGDLZJZNKFAX-QGOAFFKASA-N

> <PUBCHEM_XLOGP3_AA>
4.1

> <PUBCHEM_EXACT_MASS>
366.04967

> <PUBCHEM_MOLECULAR_FORMULA>
C19H14N2O2S2

> <PUBCHEM_MOLECULAR_WEIGHT>
366.45666

> <PUBCHEM_OPENEYE_CAN_SMILES>
C1=CC=C(C=C1)S(=O)(=O)C(=CC2=CC=CS2)C3=NC4=CC=CC=C4N3

> <PUBCHEM_OPENEYE_ISO_SMILES>
C1=CC=C(C=C1)S(=O)(=O)/C(=C/C2=CC=CS2)/C3=NC4=CC=CC=C4N3

> <PUBCHEM_CACTVS_TPSA>
99.4

> <PUBCHEM_MONOISOTOPIC_WEIGHT>
366.04967

> <PUBCHEM_TOTAL_CHARGE>
0

> <PUBCHEM_HEAVY_ATOM_COUNT>
25

> <PUBCHEM_ATOM_DEF_STEREO_COUNT>
0

> <PUBCHEM_ATOM_UDEF_STEREO_COUNT>
0

> <PUBCHEM_BOND_DEF_STEREO_COUNT>
1

> <PUBCHEM_BOND_UDEF_STEREO_COUNT>
0

> <PUBCHEM_ISOTOPIC_ATOM_COUNT>
0

> <PUBCHEM_COMPONENT_COUNT>
1

> <PUBCHEM_CACTVS_TAUTO_COUNT>
2

> <PUBCHEM_COORDINATE_TYPE>
1
5
255

> <PUBCHEM_BONDANNOTATIONS>
10  15  8
10  16  8
11  14  8
13  18  8
14  19  8
15  20  8
16  21  8
17  23  8
18  19  8
2  17  8
2  25  8
20  22  8
21  22  8
23  24  8
24  25  8
5  8  8
5  9  8
6  11  8
6  8  8
9  11  8
9  13  8

$$$$

