6452
  -OEChem-06261201202D

 42 44  0     0  0  0  0  0  0999 V2000
    4.5000    0.0000    0.0000 Sn  0  0  0  0  0  0  0  0  0  0  0  0
    3.5000    0.0000    0.0000 C   0  0  0  0  0  0  0  0  0  0  0  0
    4.5000   -1.0000    0.0000 C   0  0  0  0  0  0  0  0  0  0  0  0
    4.5000    1.0000    0.0000 C   0  0  0  0  0  0  0  0  0  0  0  0
    5.5000    0.0000    0.0000 C   0  0  0  0  0  0  0  0  0  0  0  0
    6.0000   -0.8660    0.0000 C   0  0  0  0  0  0  0  0  0  0  0  0
    5.3660    1.5000    0.0000 C   0  0  0  0  0  0  0  0  0  0  0  0
    3.6340   -1.5000    0.0000 C   0  0  0  0  0  0  0  0  0  0  0  0
    6.0000    0.8660    0.0000 C   0  0  0  0  0  0  0  0  0  0  0  0
    3.6340    1.5000    0.0000 C   0  0  0  0  0  0  0  0  0  0  0  0
    5.3660   -1.5000    0.0000 C   0  0  0  0  0  0  0  0  0  0  0  0
    3.0000    0.8660    0.0000 C   0  0  0  0  0  0  0  0  0  0  0  0
    3.6340   -2.5000    0.0000 C   0  0  0  0  0  0  0  0  0  0  0  0
    5.3660    2.5000    0.0000 C   0  0  0  0  0  0  0  0  0  0  0  0
    7.0000   -0.8660    0.0000 C   0  0  0  0  0  0  0  0  0  0  0  0
    5.3660   -2.5000    0.0000 C   0  0  0  0  0  0  0  0  0  0  0  0
    3.6340    2.5000    0.0000 C   0  0  0  0  0  0  0  0  0  0  0  0
    7.0000    0.8660    0.0000 C   0  0  0  0  0  0  0  0  0  0  0  0
    4.5000   -3.0000    0.0000 C   0  0  0  0  0  0  0  0  0  0  0  0
    4.5000    3.0000    0.0000 C   0  0  0  0  0  0  0  0  0  0  0  0
    7.5000    0.0000    0.0000 C   0  0  0  0  0  0  0  0  0  0  0  0
    2.0000    0.8660    0.0000 C   0  0  0  0  0  0  0  0  0  0  0  0
    2.9174   -0.2121    0.0000 H   0  0  0  0  0  0  0  0  0  0  0  0
    3.6077   -0.6106    0.0000 H   0  0  0  0  0  0  0  0  0  0  0  0
    5.6900   -1.4030    0.0000 H   0  0  0  0  0  0  0  0  0  0  0  0
    5.9030    1.1900    0.0000 H   0  0  0  0  0  0  0  0  0  0  0  0
    3.0970   -1.1900    0.0000 H   0  0  0  0  0  0  0  0  0  0  0  0
    5.6900    1.4030    0.0000 H   0  0  0  0  0  0  0  0  0  0  0  0
    3.0970    1.1900    0.0000 H   0  0  0  0  0  0  0  0  0  0  0  0
    5.9030   -1.1900    0.0000 H   0  0  0  0  0  0  0  0  0  0  0  0
    3.3100    1.4030    0.0000 H   0  0  0  0  0  0  0  0  0  0  0  0
    3.0970   -2.8100    0.0000 H   0  0  0  0  0  0  0  0  0  0  0  0
    5.9030    2.8100    0.0000 H   0  0  0  0  0  0  0  0  0  0  0  0
    7.3100   -1.4030    0.0000 H   0  0  0  0  0  0  0  0  0  0  0  0
    5.9030   -2.8100    0.0000 H   0  0  0  0  0  0  0  0  0  0  0  0
    3.0970    2.8100    0.0000 H   0  0  0  0  0  0  0  0  0  0  0  0
    7.3100    1.4030    0.0000 H   0  0  0  0  0  0  0  0  0  0  0  0
    4.5000   -3.6200    0.0000 H   0  0  0  0  0  0  0  0  0  0  0  0
    4.5000    3.6200    0.0000 H   0  0  0  0  0  0  0  0  0  0  0  0
    8.1200    0.0000    0.0000 H   0  0  0  0  0  0  0  0  0  0  0  0
    1.6900    1.4030    0.0000 H   0  0  0  0  0  0  0  0  0  0  0  0
    1.6900    0.3291    0.0000 H   0  0  0  0  0  0  0  0  0  0  0  0
  1  2  1  0  0  0  0
  1  3  1  0  0  0  0
  1  4  1  0  0  0  0
  1  5  1  0  0  0  0
  2 12  1  0  0  0  0
  2 23  1  0  0  0  0
  2 24  1  0  0  0  0
  3  8  2  0  0  0  0
  3 11  1  0  0  0  0
  4  7  2  0  0  0  0
  4 10  1  0  0  0  0
  5  6  2  0  0  0  0
  5  9  1  0  0  0  0
  6 15  1  0  0  0  0
  6 25  1  0  0  0  0
  7 14  1  0  0  0  0
  7 26  1  0  0  0  0
  8 13  1  0  0  0  0
  8 27  1  0  0  0  0
  9 18  2  0  0  0  0
  9 28  1  0  0  0  0
 10 17  2  0  0  0  0
 10 29  1  0  0  0  0
 11 16  2  0  0  0  0
 11 30  1  0  0  0  0
 12 22  2  0  0  0  0
 12 31  1  0  0  0  0
 13 19  2  0  0  0  0
 13 32  1  0  0  0  0
 14 20  2  0  0  0  0
 14 33  1  0  0  0  0
 15 21  2  0  0  0  0
 15 34  1  0  0  0  0
 16 19  1  0  0  0  0
 16 35  1  0  0  0  0
 17 20  1  0  0  0  0
 17 36  1  0  0  0  0
 18 21  1  0  0  0  0
 18 37  1  0  0  0  0
 19 38  1  0  0  0  0
 20 39  1  0  0  0  0
 21 40  1  0  0  0  0
 22 41  1  0  0  0  0
 22 42  1  0  0  0  0
M  END
> <PUBCHEM_COMPOUND_CID>
6452

> <PUBCHEM_COMPOUND_CANONICALIZED>
1

> <PUBCHEM_CACTVS_COMPLEXITY>
284

> <PUBCHEM_CACTVS_HBOND_ACCEPTOR>
0

> <PUBCHEM_CACTVS_HBOND_DONOR>
0

> <PUBCHEM_CACTVS_ROTATABLE_BOND>
5

> <PUBCHEM_CACTVS_SUBSKEYS>
AAADceB4AAAAAAAAAACAAAAAAAAAAAAAAAAwYMAAAAAAAAABUAAAGAAAAAAACACAEAAwAIAAAACAACBCAAACAAAgAAAIiAAAAIgIICKAERCAIAAggAAIiAcAAAAAAAAAAAAAAAAAAAAAAAAAAAAAAAAAAA==

> <PUBCHEM_IUPAC_OPENEYE_NAME>
allyl(triphenyl)stannane

> <PUBCHEM_IUPAC_CAS_NAME>
triphenyl(prop-2-enyl)stannane

> <PUBCHEM_IUPAC_NAME>
triphenyl(prop-2-enyl)stannane

> <PUBCHEM_IUPAC_SYSTEMATIC_NAME>
triphenyl(prop-2-enyl)stannane

> <PUBCHEM_IUPAC_TRADITIONAL_NAME>
allyl(triphenyl)stannane

> <PUBCHEM_IUPAC_INCHI>
InChI=1S/3C6H5.C3H5.Sn/c3*1-2-4-6-5-3-1;1-3-2;/h3*1-5H;3H,1-2H2;

> <PUBCHEM_IUPAC_INCHIKEY>
NDUYAGLANMHJHF-UHFFFAOYSA-N

> <PUBCHEM_EXACT_MASS>
392.058695

> <PUBCHEM_MOLECULAR_FORMULA>
C21H20Sn

> <PUBCHEM_MOLECULAR_WEIGHT>
391.0935

> <PUBCHEM_OPENEYE_CAN_SMILES>
C=CC[Sn](C1=CC=CC=C1)(C2=CC=CC=C2)C3=CC=CC=C3

> <PUBCHEM_OPENEYE_ISO_SMILES>
C=CC[Sn](C1=CC=CC=C1)(C2=CC=CC=C2)C3=CC=CC=C3

> <PUBCHEM_CACTVS_TPSA>
0

> <PUBCHEM_MONOISOTOPIC_WEIGHT>
392.058695

> <PUBCHEM_TOTAL_CHARGE>
0

> <PUBCHEM_HEAVY_ATOM_COUNT>
22

> <PUBCHEM_ATOM_DEF_STEREO_COUNT>
0

> <PUBCHEM_ATOM_UDEF_STEREO_COUNT>
0

> <PUBCHEM_BOND_DEF_STEREO_COUNT>
0

> <PUBCHEM_BOND_UDEF_STEREO_COUNT>
0

> <PUBCHEM_ISOTOPIC_ATOM_COUNT>
0

> <PUBCHEM_COMPONENT_COUNT>
1

> <PUBCHEM_CACTVS_TAUTO_COUNT>
1

> <PUBCHEM_COORDINATE_TYPE>
1
5
255

> <PUBCHEM_BONDANNOTATIONS>
10  17  8
11  16  8
13  19  8
14  20  8
15  21  8
16  19  8
17  20  8
18  21  8
3  11  8
3  8  8
4  10  8
4  7  8
5  6  8
5  9  8
6  15  8
7  14  8
8  13  8
9  18  8

$$$$

