5063
  -OEChem-06261200302D

 62 63  0     0  0  0  0  0  0999 V2000
    8.0622    4.2500    0.0000 O   0  0  0  0  0  0  0  0  0  0  0  0
    3.7320   -4.2500    0.0000 O   0  0  0  0  0  0  0  0  0  0  0  0
    8.9282    2.7500    0.0000 O   0  0  0  0  0  0  0  0  0  0  0  0
    2.8660   -2.7500    0.0000 O   0  0  0  0  0  0  0  0  0  0  0  0
    8.9282    4.7500    0.0000 N   0  0  0  0  0  0  0  0  0  0  0  0
    2.8660   -4.7500    0.0000 N   0  0  0  0  0  0  0  0  0  0  0  0
    7.1962    2.7500    0.0000 N   0  0  0  0  0  0  0  0  0  0  0  0
    4.5981   -2.7500    0.0000 N   0  0  0  0  0  0  0  0  0  0  0  0
    2.8660   -7.7500    0.0000 C   0  0  0  0  0  0  0  0  0  0  0  0
    8.9282    7.7500    0.0000 C   0  0  0  0  0  0  0  0  0  0  0  0
    8.0622    7.2500    0.0000 C   0  0  0  0  0  0  0  0  0  0  0  0
    9.7942    7.2500    0.0000 C   0  0  0  0  0  0  0  0  0  0  0  0
    3.7320   -7.2500    0.0000 C   0  0  0  0  0  0  0  0  0  0  0  0
    2.0000   -7.2500    0.0000 C   0  0  0  0  0  0  0  0  0  0  0  0
    2.0000   -6.2500    0.0000 C   0  0  0  0  0  0  0  0  0  0  0  0
    3.7320   -6.2500    0.0000 C   0  0  0  0  0  0  0  0  0  0  0  0
    9.7942    6.2500    0.0000 C   0  0  0  0  0  0  0  0  0  0  0  0
    8.0622    6.2500    0.0000 C   0  0  0  0  0  0  0  0  0  0  0  0
    2.8660   -5.7500    0.0000 C   0  0  0  0  0  0  0  0  0  0  0  0
    8.9282    5.7500    0.0000 C   0  0  0  0  0  0  0  0  0  0  0  0
    5.4641   -0.2500    0.0000 C   0  0  0  0  0  0  0  0  0  0  0  0
    6.3301    0.2500    0.0000 C   0  0  0  0  0  0  0  0  0  0  0  0
    5.4641   -1.2500    0.0000 C   0  0  0  0  0  0  0  0  0  0  0  0
    6.3301    1.2500    0.0000 C   0  0  0  0  0  0  0  0  0  0  0  0
    4.5981   -1.7500    0.0000 C   0  0  0  0  0  0  0  0  0  0  0  0
    7.1962    1.7500    0.0000 C   0  0  0  0  0  0  0  0  0  0  0  0
    3.7320   -3.2500    0.0000 C   0  0  0  0  0  0  0  0  0  0  0  0
    8.0622    3.2500    0.0000 C   0  0  0  0  0  0  0  0  0  0  0  0
    9.3267    8.2250    0.0000 H   0  0  0  0  0  0  0  0  0  0  0  0
    8.5297    8.2250    0.0000 H   0  0  0  0  0  0  0  0  0  0  0  0
    2.4675   -8.2250    0.0000 H   0  0  0  0  0  0  0  0  0  0  0  0
    3.2646   -8.2250    0.0000 H   0  0  0  0  0  0  0  0  0  0  0  0
    7.8501    7.8326    0.0000 H   0  0  0  0  0  0  0  0  0  0  0  0
    7.4516    7.1423    0.0000 H   0  0  0  0  0  0  0  0  0  0  0  0
   10.4048    7.1423    0.0000 H   0  0  0  0  0  0  0  0  0  0  0  0
   10.0063    7.8326    0.0000 H   0  0  0  0  0  0  0  0  0  0  0  0
    1.3894   -7.1423    0.0000 H   0  0  0  0  0  0  0  0  0  0  0  0
    1.7880   -7.8326    0.0000 H   0  0  0  0  0  0  0  0  0  0  0  0
    3.9441   -7.8326    0.0000 H   0  0  0  0  0  0  0  0  0  0  0  0
    4.3426   -7.1423    0.0000 H   0  0  0  0  0  0  0  0  0  0  0  0
    1.7880   -5.6674    0.0000 H   0  0  0  0  0  0  0  0  0  0  0  0
    1.3894   -6.3577    0.0000 H   0  0  0  0  0  0  0  0  0  0  0  0
    4.3426   -6.3577    0.0000 H   0  0  0  0  0  0  0  0  0  0  0  0
    3.9441   -5.6674    0.0000 H   0  0  0  0  0  0  0  0  0  0  0  0
   10.0063    5.6674    0.0000 H   0  0  0  0  0  0  0  0  0  0  0  0
   10.4048    6.3577    0.0000 H   0  0  0  0  0  0  0  0  0  0  0  0
    7.4516    6.3577    0.0000 H   0  0  0  0  0  0  0  0  0  0  0  0
    7.8501    5.6674    0.0000 H   0  0  0  0  0  0  0  0  0  0  0  0
    5.2520    0.3326    0.0000 H   0  0  0  0  0  0  0  0  0  0  0  0
    4.8535   -0.3577    0.0000 H   0  0  0  0  0  0  0  0  0  0  0  0
    6.5422   -0.3326    0.0000 H   0  0  0  0  0  0  0  0  0  0  0  0
    6.9407    0.3577    0.0000 H   0  0  0  0  0  0  0  0  0  0  0  0
    5.6762   -1.8326    0.0000 H   0  0  0  0  0  0  0  0  0  0  0  0
    6.0747   -1.1423    0.0000 H   0  0  0  0  0  0  0  0  0  0  0  0
    6.1181    1.8326    0.0000 H   0  0  0  0  0  0  0  0  0  0  0  0
    5.7196    1.1423    0.0000 H   0  0  0  0  0  0  0  0  0  0  0  0
    4.3860   -1.1674    0.0000 H   0  0  0  0  0  0  0  0  0  0  0  0
    3.9875   -1.8577    0.0000 H   0  0  0  0  0  0  0  0  0  0  0  0
    7.4082    1.1674    0.0000 H   0  0  0  0  0  0  0  0  0  0  0  0
    7.8067    1.8577    0.0000 H   0  0  0  0  0  0  0  0  0  0  0  0
    5.1350   -3.0600    0.0000 H   0  0  0  0  0  0  0  0  0  0  0  0
    6.6592    3.0600    0.0000 H   0  0  0  0  0  0  0  0  0  0  0  0
  1  5  1  0  0  0  0
  1 28  1  0  0  0  0
  2  6  1  0  0  0  0
  2 27  1  0  0  0  0
  3 28  2  0  0  0  0
  4 27  2  0  0  0  0
  5 20  2  0  0  0  0
  6 19  2  0  0  0  0
  7 26  1  0  0  0  0
  7 28  1  0  0  0  0
  7 62  1  0  0  0  0
  8 25  1  0  0  0  0
  8 27  1  0  0  0  0
  8 61  1  0  0  0  0
  9 13  1  0  0  0  0
  9 14  1  0  0  0  0
  9 31  1  0  0  0  0
  9 32  1  0  0  0  0
 10 11  1  0  0  0  0
 10 12  1  0  0  0  0
 10 29  1  0  0  0  0
 10 30  1  0  0  0  0
 11 18  1  0  0  0  0
 11 33  1  0  0  0  0
 11 34  1  0  0  0  0
 12 17  1  0  0  0  0
 12 35  1  0  0  0  0
 12 36  1  0  0  0  0
 13 16  1  0  0  0  0
 13 39  1  0  0  0  0
 13 40  1  0  0  0  0
 14 15  1  0  0  0  0
 14 37  1  0  0  0  0
 14 38  1  0  0  0  0
 15 19  1  0  0  0  0
 15 41  1  0  0  0  0
 15 42  1  0  0  0  0
 16 19  1  0  0  0  0
 16 43  1  0  0  0  0
 16 44  1  0  0  0  0
 17 20  1  0  0  0  0
 17 45  1  0  0  0  0
 17 46  1  0  0  0  0
 18 20  1  0  0  0  0
 18 47  1  0  0  0  0
 18 48  1  0  0  0  0
 21 22  1  0  0  0  0
 21 23  1  0  0  0  0
 21 49  1  0  0  0  0
 21 50  1  0  0  0  0
 22 24  1  0  0  0  0
 22 51  1  0  0  0  0
 22 52  1  0  0  0  0
 23 25  1  0  0  0  0
 23 53  1  0  0  0  0
 23 54  1  0  0  0  0
 24 26  1  0  0  0  0
 24 55  1  0  0  0  0
 24 56  1  0  0  0  0
 25 57  1  0  0  0  0
 25 58  1  0  0  0  0
 26 59  1  0  0  0  0
 26 60  1  0  0  0  0
M  END
> <PUBCHEM_COMPOUND_CID>
5063

> <PUBCHEM_COMPOUND_CANONICALIZED>
1

> <PUBCHEM_CACTVS_COMPLEXITY>
484

> <PUBCHEM_CACTVS_HBOND_ACCEPTOR>
6

> <PUBCHEM_CACTVS_HBOND_DONOR>
2

> <PUBCHEM_CACTVS_ROTATABLE_BOND>
11

> <PUBCHEM_CACTVS_SUBSKEYS>
AAADcfB7uAAAAAAAAAAAAAAAAAAAAAAAAAAwYAAAAAAAAAAAAAAAHgAUAAAACAjBAAQACALQAAAoAQAgGAAAAAAAAAAAAIA4AAEAAAIAgAAEAAAAFgAAAAEQAAAAAAAAAAAAAAAAAAAAAAAAAAAAAAAAAA==

> <PUBCHEM_IUPAC_OPENEYE_NAME>
(cyclohexylideneamino) N-[6-[(cyclohexylideneamino)oxycarbonylamino]hexyl]carbamate

> <PUBCHEM_IUPAC_CAS_NAME>
N-[6-[[(cyclohexylideneamino)oxy-oxomethyl]amino]hexyl]carbamic acid (cyclohexylideneamino) ester

> <PUBCHEM_IUPAC_NAME>
(cyclohexylideneamino) N-[6-[(cyclohexylideneamino)oxycarbonylamino]hexyl]carbamate

> <PUBCHEM_IUPAC_SYSTEMATIC_NAME>
(cyclohexylideneamino) N-[6-[(cyclohexylideneamino)oxycarbonylamino]hexyl]carbamate

> <PUBCHEM_IUPAC_TRADITIONAL_NAME>
N-[6-[(cyclohexylideneamino)oxycarbonylamino]hexyl]carbamic acid (cyclohexylideneamino) ester

> <PUBCHEM_IUPAC_INCHI>
InChI=1S/C20H34N4O4/c25-19(27-23-17-11-5-3-6-12-17)21-15-9-1-2-10-16-22-20(26)28-24-18-13-7-4-8-14-18/h1-16H2,(H,21,25)(H,22,26)

> <PUBCHEM_IUPAC_INCHIKEY>
RXSVYGIGWRDVQC-UHFFFAOYSA-N

> <PUBCHEM_XLOGP3_AA>
3.5

> <PUBCHEM_EXACT_MASS>
394.258006

> <PUBCHEM_MOLECULAR_FORMULA>
C20H34N4O4

> <PUBCHEM_MOLECULAR_WEIGHT>
394.50836

> <PUBCHEM_OPENEYE_CAN_SMILES>
C1CCC(=NOC(=O)NCCCCCCNC(=O)ON=C2CCCCC2)CC1

> <PUBCHEM_OPENEYE_ISO_SMILES>
C1CCC(=NOC(=O)NCCCCCCNC(=O)ON=C2CCCCC2)CC1

> <PUBCHEM_CACTVS_TPSA>
101

> <PUBCHEM_MONOISOTOPIC_WEIGHT>
394.258006

> <PUBCHEM_TOTAL_CHARGE>
0

> <PUBCHEM_HEAVY_ATOM_COUNT>
28

> <PUBCHEM_ATOM_DEF_STEREO_COUNT>
0

> <PUBCHEM_ATOM_UDEF_STEREO_COUNT>
0

> <PUBCHEM_BOND_DEF_STEREO_COUNT>
0

> <PUBCHEM_BOND_UDEF_STEREO_COUNT>
0

> <PUBCHEM_ISOTOPIC_ATOM_COUNT>
0

> <PUBCHEM_COMPONENT_COUNT>
1

> <PUBCHEM_CACTVS_TAUTO_COUNT>
10

> <PUBCHEM_COORDINATE_TYPE>
1
5
255

$$$$

