13668
  -OEChem-06241222392D

 30 29  0     1  0  0  0  0  0999 V2000
    6.0010    3.3285    0.0000 Cl  0  5  0  0  0  0  0  0  0  0  0  0
    0.8660    4.1200    0.0000 O   0  0  0  0  0  0  0  0  0  0  0  0
    0.0000    0.6200    0.0000 O   0  0  0  0  0  0  0  0  0  0  0  0
    2.5981    5.1200    0.0000 N   0  3  0  0  0  0  0  0  0  0  0  0
    2.5981    4.1200    0.0000 C   0  0  0  0  0  0  0  0  0  0  0  0
    1.7320    3.6200    0.0000 C   0  0  3  0  0  0  0  0  0  0  0  0
    2.5981    6.1200    0.0000 C   0  0  0  0  0  0  0  0  0  0  0  0
    1.7320    2.6200    0.0000 C   0  0  0  0  0  0  0  0  0  0  0  0
    3.4641    6.6200    0.0000 C   0  0  0  0  0  0  0  0  0  0  0  0
    0.8660    2.1200    0.0000 C   0  0  0  0  0  0  0  0  0  0  0  0
    2.5981    2.1200    0.0000 C   0  0  0  0  0  0  0  0  0  0  0  0
    0.8660    1.1200    0.0000 C   0  0  0  0  0  0  0  0  0  0  0  0
    2.5981    1.1200    0.0000 C   0  0  0  0  0  0  0  0  0  0  0  0
    1.7320    0.6200    0.0000 C   0  0  0  0  0  0  0  0  0  0  0  0
    2.8101    3.5374    0.0000 H   0  0  0  0  0  0  0  0  0  0  0  0
    3.2087    4.2277    0.0000 H   0  0  0  0  0  0  0  0  0  0  0  0
    1.7320    4.2400    0.0000 H   0  0  0  0  0  0  0  0  0  0  0  0
    3.2181    5.1200    0.0000 H   0  0  0  0  0  0  0  0  0  0  0  0
    1.9781    5.1200    0.0000 H   0  0  0  0  0  0  0  0  0  0  0  0
    2.3860    6.7026    0.0000 H   0  0  0  0  0  0  0  0  0  0  0  0
    1.9875    6.0123    0.0000 H   0  0  0  0  0  0  0  0  0  0  0  0
    3.7741    6.0831    0.0000 H   0  0  0  0  0  0  0  0  0  0  0  0
    4.0010    6.9300    0.0000 H   0  0  0  0  0  0  0  0  0  0  0  0
    3.1541    7.1569    0.0000 H   0  0  0  0  0  0  0  0  0  0  0  0
    0.3291    2.4300    0.0000 H   0  0  0  0  0  0  0  0  0  0  0  0
    3.1350    2.4300    0.0000 H   0  0  0  0  0  0  0  0  0  0  0  0
    0.8660    4.7400    0.0000 H   0  0  0  0  0  0  0  0  0  0  0  0
    3.1350    0.8100    0.0000 H   0  0  0  0  0  0  0  0  0  0  0  0
    1.7320    0.0000    0.0000 H   0  0  0  0  0  0  0  0  0  0  0  0
    0.0000    0.0000    0.0000 H   0  0  0  0  0  0  0  0  0  0  0  0
  2  6  1  0  0  0  0
  2 27  1  0  0  0  0
  3 12  1  0  0  0  0
  3 30  1  0  0  0  0
  4  5  1  0  0  0  0
  4  7  1  0  0  0  0
  4 18  1  0  0  0  0
  4 19  1  0  0  0  0
  5  6  1  0  0  0  0
  5 15  1  0  0  0  0
  5 16  1  0  0  0  0
  6  8  1  0  0  0  0
  6 17  1  0  0  0  0
  7  9  1  0  0  0  0
  7 20  1  0  0  0  0
  7 21  1  0  0  0  0
  8 10  2  0  0  0  0
  8 11  1  0  0  0  0
  9 22  1  0  0  0  0
  9 23  1  0  0  0  0
  9 24  1  0  0  0  0
 10 12  1  0  0  0  0
 10 25  1  0  0  0  0
 11 13  2  0  0  0  0
 11 26  1  0  0  0  0
 12 14  2  0  0  0  0
 13 14  1  0  0  0  0
 13 28  1  0  0  0  0
 14 29  1  0  0  0  0
M  CHG  2   1  -1   4   1
M  END
> <PUBCHEM_COMPOUND_CID>
13668

> <PUBCHEM_COMPOUND_CANONICALIZED>
1

> <PUBCHEM_CACTVS_COMPLEXITY>
141

> <PUBCHEM_CACTVS_HBOND_ACCEPTOR>
3

> <PUBCHEM_CACTVS_HBOND_DONOR>
3

> <PUBCHEM_CACTVS_ROTATABLE_BOND>
4

> <PUBCHEM_CACTVS_SUBSKEYS>
AAADceByMAAEAAAAAAAAAAAAAAAAAAAAAAAwAAAAAAAAAAABAAAAHgAQCAAADBThmAYyBoLAAgCAAiBCAAACAAAgIAAIiIAOCIgKNiKCkROEcAAk0BGYmAfQ0LIOAAABAAAAAAAAAAIAAAAAAAAAAAAAAA==

> <PUBCHEM_IUPAC_OPENEYE_NAME>
ethyl-[2-hydroxy-2-(3-hydroxyphenyl)ethyl]ammonium chloride

> <PUBCHEM_IUPAC_CAS_NAME>
ethyl-[2-hydroxy-2-(3-hydroxyphenyl)ethyl]ammonium chloride

> <PUBCHEM_IUPAC_NAME>
ethyl-[2-hydroxy-2-(3-hydroxyphenyl)ethyl]azanium chloride

> <PUBCHEM_IUPAC_SYSTEMATIC_NAME>
ethyl-[2-(3-hydroxyphenyl)-2-oxidanyl-ethyl]azanium chloride

> <PUBCHEM_IUPAC_TRADITIONAL_NAME>
ethyl-[2-hydroxy-2-(3-hydroxyphenyl)ethyl]ammonium chloride

> <PUBCHEM_IUPAC_INCHI>
InChI=1S/C10H15NO2.ClH/c1-2-11-7-10(13)8-4-3-5-9(12)6-8;/h3-6,10-13H,2,7H2,1H3;1H

> <PUBCHEM_IUPAC_INCHIKEY>
KTNROWWHOBZQGK-UHFFFAOYSA-N

> <PUBCHEM_EXACT_MASS>
217.086956

> <PUBCHEM_MOLECULAR_FORMULA>
C10H16ClNO2

> <PUBCHEM_MOLECULAR_WEIGHT>
217.69254

> <PUBCHEM_OPENEYE_CAN_SMILES>
CC[NH2+]CC(C1=CC(=CC=C1)O)O.[Cl-]

> <PUBCHEM_OPENEYE_ISO_SMILES>
CC[NH2+]CC(C1=CC(=CC=C1)O)O.[Cl-]

> <PUBCHEM_CACTVS_TPSA>
57.1

> <PUBCHEM_MONOISOTOPIC_WEIGHT>
217.086956

> <PUBCHEM_TOTAL_CHARGE>
0

> <PUBCHEM_HEAVY_ATOM_COUNT>
14

> <PUBCHEM_ATOM_DEF_STEREO_COUNT>
0

> <PUBCHEM_ATOM_UDEF_STEREO_COUNT>
1

> <PUBCHEM_BOND_DEF_STEREO_COUNT>
0

> <PUBCHEM_BOND_UDEF_STEREO_COUNT>
0

> <PUBCHEM_ISOTOPIC_ATOM_COUNT>
0

> <PUBCHEM_COMPONENT_COUNT>
2

> <PUBCHEM_CACTVS_TAUTO_COUNT>
3

> <PUBCHEM_COORDINATE_TYPE>
1
5
255

> <PUBCHEM_BONDANNOTATIONS>
10  12  8
11  13  8
12  14  8
13  14  8
6  2  3
8  10  8
8  11  8

$$$$

