853885
  -OEChem-06241222452D

 16 16  0     0  0  0  0  0  0999 V2000
    5.4641   -1.3450    0.0000 S   0  0  0  0  0  0  0  0  0  0  0  0
    3.7320   -1.3450    0.0000 N   0  0  0  0  0  0  0  0  0  0  0  0
    4.5981    0.1550    0.0000 N   0  0  0  0  0  0  0  0  0  0  0  0
    3.7320    1.6550    0.0000 N   0  0  0  0  0  0  0  0  0  0  0  0
    2.8660   -0.8450    0.0000 C   0  0  0  0  0  0  0  0  0  0  0  0
    2.8660    0.1550    0.0000 C   0  0  0  0  0  0  0  0  0  0  0  0
    3.7320    0.6550    0.0000 C   0  0  0  0  0  0  0  0  0  0  0  0
    2.0000   -1.3450    0.0000 C   0  0  0  0  0  0  0  0  0  0  0  0
    4.5981   -0.8450    0.0000 C   0  0  0  0  0  0  0  0  0  0  0  0
    2.3291    0.4650    0.0000 H   0  0  0  0  0  0  0  0  0  0  0  0
    3.7320   -1.9650    0.0000 H   0  0  0  0  0  0  0  0  0  0  0  0
    1.6900   -0.8081    0.0000 H   0  0  0  0  0  0  0  0  0  0  0  0
    1.4631   -1.6550    0.0000 H   0  0  0  0  0  0  0  0  0  0  0  0
    2.3100   -1.8819    0.0000 H   0  0  0  0  0  0  0  0  0  0  0  0
    4.2690    1.9650    0.0000 H   0  0  0  0  0  0  0  0  0  0  0  0
    3.1951    1.9650    0.0000 H   0  0  0  0  0  0  0  0  0  0  0  0
  1  9  2  0  0  0  0
  2  5  1  0  0  0  0
  2  9  1  0  0  0  0
  2 11  1  0  0  0  0
  3  7  2  0  0  0  0
  3  9  1  0  0  0  0
  4  7  1  0  0  0  0
  4 15  1  0  0  0  0
  4 16  1  0  0  0  0
  5  6  2  0  0  0  0
  5  8  1  0  0  0  0
  6  7  1  0  0  0  0
  6 10  1  0  0  0  0
  8 12  1  0  0  0  0
  8 13  1  0  0  0  0
  8 14  1  0  0  0  0
M  END
> <PUBCHEM_COMPOUND_CID>
853885

> <PUBCHEM_COMPOUND_CANONICALIZED>
1

> <PUBCHEM_CACTVS_COMPLEXITY>
204

> <PUBCHEM_CACTVS_HBOND_ACCEPTOR>
1

> <PUBCHEM_CACTVS_HBOND_DONOR>
2

> <PUBCHEM_CACTVS_ROTATABLE_BOND>
0

> <PUBCHEM_CACTVS_SUBSKEYS>
AAADcYBjAABAAAAAAAAAAAAAAAAAAAAAAAAgAAAAAAAAAAAAAAAAHAQQAAAACAiBAAADAALAAACkACZiZACAAAEAAgkACAAQABCAAAAAAQAAAAAAEAIAAAAAAAAAAAAAAAAAAAAAAAAAAAAAAAAAAAAAAA==

> <PUBCHEM_IUPAC_OPENEYE_NAME>
4-amino-6-methyl-1H-pyrimidine-2-thione

> <PUBCHEM_IUPAC_CAS_NAME>
4-amino-6-methyl-1H-pyrimidine-2-thione

> <PUBCHEM_IUPAC_NAME>
4-amino-6-methyl-1H-pyrimidine-2-thione

> <PUBCHEM_IUPAC_SYSTEMATIC_NAME>
4-azanyl-6-methyl-1H-pyrimidine-2-thione

> <PUBCHEM_IUPAC_TRADITIONAL_NAME>
4-amino-6-methyl-1H-pyrimidine-2-thione

> <PUBCHEM_IUPAC_INCHI>
InChI=1S/C5H7N3S/c1-3-2-4(6)8-5(9)7-3/h2H,1H3,(H3,6,7,8,9)

> <PUBCHEM_IUPAC_INCHIKEY>
GAVFWRDGXUMIIY-UHFFFAOYSA-N

> <PUBCHEM_XLOGP3_AA>
-0.3

> <PUBCHEM_EXACT_MASS>
141.036068

> <PUBCHEM_MOLECULAR_FORMULA>
C5H7N3S

> <PUBCHEM_MOLECULAR_WEIGHT>
141.19418

> <PUBCHEM_OPENEYE_CAN_SMILES>
CC1=CC(=NC(=S)N1)N

> <PUBCHEM_OPENEYE_ISO_SMILES>
CC1=CC(=NC(=S)N1)N

> <PUBCHEM_CACTVS_TPSA>
82.5

> <PUBCHEM_MONOISOTOPIC_WEIGHT>
141.036068

> <PUBCHEM_TOTAL_CHARGE>
0

> <PUBCHEM_HEAVY_ATOM_COUNT>
9

> <PUBCHEM_ATOM_DEF_STEREO_COUNT>
0

> <PUBCHEM_ATOM_UDEF_STEREO_COUNT>
0

> <PUBCHEM_BOND_DEF_STEREO_COUNT>
0

> <PUBCHEM_BOND_UDEF_STEREO_COUNT>
0

> <PUBCHEM_ISOTOPIC_ATOM_COUNT>
0

> <PUBCHEM_COMPONENT_COUNT>
1

> <PUBCHEM_CACTVS_TAUTO_COUNT>
17

> <PUBCHEM_COORDINATE_TYPE>
1
5
255

> <PUBCHEM_BONDANNOTATIONS>
2  5  8
2  9  8
3  7  8
3  9  8
5  6  8
6  7  8

$$$$

