17396612
  -OEChem-06241222572D

 35 36  0     0  0  0  0  0  0999 V2000
    6.4347    4.1433    0.0000 O   0  0  0  0  0  0  0  0  0  0  0  0
    2.0000   -3.3512    0.0000 O   0  0  0  0  0  0  0  0  0  0  0  0
    3.7320    1.6488    0.0000 O   0  0  0  0  0  0  0  0  0  0  0  0
    4.5981    0.1488    0.0000 N   0  0  0  0  0  0  0  0  0  0  0  0
    5.4641    1.6488    0.0000 N   0  0  0  0  0  0  0  0  0  0  0  0
    3.7320   -0.3512    0.0000 C   0  0  0  0  0  0  0  0  0  0  0  0
    3.7320   -1.3512    0.0000 C   0  0  0  0  0  0  0  0  0  0  0  0
    5.4641    2.6488    0.0000 C   0  0  0  0  0  0  0  0  0  0  0  0
    2.8660   -1.8512    0.0000 C   0  0  0  0  0  0  0  0  0  0  0  0
    4.5981   -1.8512    0.0000 C   0  0  0  0  0  0  0  0  0  0  0  0
    6.3301    3.1488    0.0000 C   0  0  0  0  0  0  0  0  0  0  0  0
    2.8660   -2.8512    0.0000 C   0  0  0  0  0  0  0  0  0  0  0  0
    4.5981    1.1488    0.0000 C   0  0  0  0  0  0  0  0  0  0  0  0
    4.5981   -2.8512    0.0000 C   0  0  0  0  0  0  0  0  0  0  0  0
    3.7320   -3.3512    0.0000 C   0  0  0  0  0  0  0  0  0  0  0  0
    7.2437    2.7420    0.0000 C   0  0  0  0  0  0  0  0  0  0  0  0
    7.9128    3.4852    0.0000 C   0  0  0  0  0  0  0  0  0  0  0  0
    7.4128    4.3512    0.0000 C   0  0  0  0  0  0  0  0  0  0  0  0
    2.0000   -4.3512    0.0000 C   0  0  0  0  0  0  0  0  0  0  0  0
    3.5200    0.2314    0.0000 H   0  0  0  0  0  0  0  0  0  0  0  0
    3.1215   -0.4589    0.0000 H   0  0  0  0  0  0  0  0  0  0  0  0
    5.2520    3.2314    0.0000 H   0  0  0  0  0  0  0  0  0  0  0  0
    4.8535    2.5411    0.0000 H   0  0  0  0  0  0  0  0  0  0  0  0
    5.1350   -0.1612    0.0000 H   0  0  0  0  0  0  0  0  0  0  0  0
    2.3291   -1.5412    0.0000 H   0  0  0  0  0  0  0  0  0  0  0  0
    5.1350   -1.5412    0.0000 H   0  0  0  0  0  0  0  0  0  0  0  0
    6.0010    1.3388    0.0000 H   0  0  0  0  0  0  0  0  0  0  0  0
    5.1350   -3.1612    0.0000 H   0  0  0  0  0  0  0  0  0  0  0  0
    3.7320   -3.9712    0.0000 H   0  0  0  0  0  0  0  0  0  0  0  0
    7.3726    2.1356    0.0000 H   0  0  0  0  0  0  0  0  0  0  0  0
    8.5294    3.4204    0.0000 H   0  0  0  0  0  0  0  0  0  0  0  0
    7.6650    4.9176    0.0000 H   0  0  0  0  0  0  0  0  0  0  0  0
    1.3800   -4.3512    0.0000 H   0  0  0  0  0  0  0  0  0  0  0  0
    2.0000   -4.9712    0.0000 H   0  0  0  0  0  0  0  0  0  0  0  0
    2.6200   -4.3512    0.0000 H   0  0  0  0  0  0  0  0  0  0  0  0
  1 11  1  0  0  0  0
  1 18  1  0  0  0  0
  2 12  1  0  0  0  0
  2 19  1  0  0  0  0
  3 13  2  0  0  0  0
  4  6  1  0  0  0  0
  4 13  1  0  0  0  0
  4 24  1  0  0  0  0
  5  8  1  0  0  0  0
  5 13  1  0  0  0  0
  5 27  1  0  0  0  0
  6  7  1  0  0  0  0
  6 20  1  0  0  0  0
  6 21  1  0  0  0  0
  7  9  2  0  0  0  0
  7 10  1  0  0  0  0
  8 11  1  0  0  0  0
  8 22  1  0  0  0  0
  8 23  1  0  0  0  0
  9 12  1  0  0  0  0
  9 25  1  0  0  0  0
 10 14  2  0  0  0  0
 10 26  1  0  0  0  0
 11 16  2  0  0  0  0
 12 15  2  0  0  0  0
 14 15  1  0  0  0  0
 14 28  1  0  0  0  0
 15 29  1  0  0  0  0
 16 17  1  0  0  0  0
 16 30  1  0  0  0  0
 17 18  2  0  0  0  0
 17 31  1  0  0  0  0
 18 32  1  0  0  0  0
 19 33  1  0  0  0  0
 19 34  1  0  0  0  0
 19 35  1  0  0  0  0
M  END
> <PUBCHEM_COMPOUND_CID>
17396612

> <PUBCHEM_COMPOUND_CANONICALIZED>
1

> <PUBCHEM_CACTVS_COMPLEXITY>
286

> <PUBCHEM_CACTVS_HBOND_ACCEPTOR>
3

> <PUBCHEM_CACTVS_HBOND_DONOR>
2

> <PUBCHEM_CACTVS_ROTATABLE_BOND>
5

> <PUBCHEM_CACTVS_SUBSKEYS>
AAADceBzMAAAAAAAAAAAAAAAAAAAASAAAAAwAAAAAAAAAAABwAAAHgAQAAAADAThmAYzBoLABECIAqhSkACCCAAkIAAIiIGODMiOJjKEtTuHOSjsxhMYqYe40RIOAAABAAAAAAAAAAIAAAAAAAAAAAAAAA==

> <PUBCHEM_IUPAC_OPENEYE_NAME>
1-(2-furylmethyl)-3-[(3-methoxyphenyl)methyl]urea

> <PUBCHEM_IUPAC_CAS_NAME>
1-(2-furanylmethyl)-3-[(3-methoxyphenyl)methyl]urea

> <PUBCHEM_IUPAC_NAME>
1-(furan-2-ylmethyl)-3-[(3-methoxyphenyl)methyl]urea

> <PUBCHEM_IUPAC_SYSTEMATIC_NAME>
1-(furan-2-ylmethyl)-3-[(3-methoxyphenyl)methyl]urea

> <PUBCHEM_IUPAC_TRADITIONAL_NAME>
1-(2-furfuryl)-3-m-anisyl-urea

> <PUBCHEM_IUPAC_INCHI>
InChI=1S/C14H16N2O3/c1-18-12-5-2-4-11(8-12)9-15-14(17)16-10-13-6-3-7-19-13/h2-8H,9-10H2,1H3,(H2,15,16,17)

> <PUBCHEM_IUPAC_INCHIKEY>
RDMOMLZQBBFOSO-UHFFFAOYSA-N

> <PUBCHEM_XLOGP3_AA>
1.4

> <PUBCHEM_EXACT_MASS>
260.116092

> <PUBCHEM_MOLECULAR_FORMULA>
C14H16N2O3

> <PUBCHEM_MOLECULAR_WEIGHT>
260.28844

> <PUBCHEM_OPENEYE_CAN_SMILES>
COC1=CC=CC(=C1)CNC(=O)NCC2=CC=CO2

> <PUBCHEM_OPENEYE_ISO_SMILES>
COC1=CC=CC(=C1)CNC(=O)NCC2=CC=CO2

> <PUBCHEM_CACTVS_TPSA>
63.5

> <PUBCHEM_MONOISOTOPIC_WEIGHT>
260.116092

> <PUBCHEM_TOTAL_CHARGE>
0

> <PUBCHEM_HEAVY_ATOM_COUNT>
19

> <PUBCHEM_ATOM_DEF_STEREO_COUNT>
0

> <PUBCHEM_ATOM_UDEF_STEREO_COUNT>
0

> <PUBCHEM_BOND_DEF_STEREO_COUNT>
0

> <PUBCHEM_BOND_UDEF_STEREO_COUNT>
0

> <PUBCHEM_ISOTOPIC_ATOM_COUNT>
0

> <PUBCHEM_COMPONENT_COUNT>
1

> <PUBCHEM_CACTVS_TAUTO_COUNT>
3

> <PUBCHEM_COORDINATE_TYPE>
1
5
255

> <PUBCHEM_BONDANNOTATIONS>
1  11  8
1  18  8
10  14  8
11  16  8
12  15  8
14  15  8
16  17  8
17  18  8
7  10  8
7  9  8
9  12  8

$$$$

