17395648
  -OEChem-06241222512D

 39 41  0     0  0  0  0  0  0999 V2000
    2.3090    1.4587    0.0000 S   0  0  0  0  0  0  0  0  0  0  0  0
    9.5294   -2.9975    0.0000 O   0  0  0  0  0  0  0  0  0  0  0  0
    4.8913    0.7542    0.0000 O   0  0  0  0  0  0  0  0  0  0  0  0
    6.8804    0.9633    0.0000 O   0  0  0  0  0  0  0  0  0  0  0  0
    3.4901   -0.2639    0.0000 O   0  0  0  0  0  0  0  0  0  0  0  0
   10.0646   -1.3502    0.0000 N   0  0  0  0  0  0  0  0  0  0  0  0
    7.5614   -2.2982    0.0000 N   0  0  0  0  0  0  0  0  0  0  0  0
   11.5428   -0.6921    0.0000 C   0  0  0  0  0  0  0  0  0  0  0  0
   10.8737    0.0510    0.0000 C   0  0  0  0  0  0  0  0  0  0  0  0
   11.0428   -1.5582    0.0000 C   0  0  0  0  0  0  0  0  0  0  0  0
    9.9601   -0.3557    0.0000 C   0  0  0  0  0  0  0  0  0  0  0  0
    9.3215   -2.0194    0.0000 C   0  0  0  0  0  0  0  0  0  0  0  0
    8.3704   -1.7104    0.0000 C   0  0  0  0  0  0  0  0  0  0  0  0
    8.0614   -0.7593    0.0000 C   0  0  0  0  0  0  0  0  0  0  0  0
    7.0614   -0.7593    0.0000 C   0  0  0  0  0  0  0  0  0  0  0  0
    6.7524   -1.7104    0.0000 C   0  0  0  0  0  0  0  0  0  0  0  0
    6.4736    0.0497    0.0000 C   0  0  0  0  0  0  0  0  0  0  0  0
    5.4791   -0.0548    0.0000 C   0  0  0  0  0  0  0  0  0  0  0  0
    3.8968    0.6497    0.0000 C   0  0  0  0  0  0  0  0  0  0  0  0
    3.3090    1.4587    0.0000 C   0  0  0  0  0  0  0  0  0  0  0  0
    3.6180    2.4097    0.0000 C   0  0  0  0  0  0  0  0  0  0  0  0
    2.8090    2.9975    0.0000 C   0  0  0  0  0  0  0  0  0  0  0  0
    2.0000    2.4097    0.0000 C   0  0  0  0  0  0  0  0  0  0  0  0
   12.0444   -1.0566    0.0000 H   0  0  0  0  0  0  0  0  0  0  0  0
   11.9576   -0.2314    0.0000 H   0  0  0  0  0  0  0  0  0  0  0  0
   11.3752    0.4154    0.0000 H   0  0  0  0  0  0  0  0  0  0  0  0
   10.5637    0.5879    0.0000 H   0  0  0  0  0  0  0  0  0  0  0  0
   10.8512   -2.1478    0.0000 H   0  0  0  0  0  0  0  0  0  0  0  0
   11.6092   -1.8103    0.0000 H   0  0  0  0  0  0  0  0  0  0  0  0
    9.7685    0.2339    0.0000 H   0  0  0  0  0  0  0  0  0  0  0  0
    9.3537   -0.4846    0.0000 H   0  0  0  0  0  0  0  0  0  0  0  0
    8.4258   -0.2577    0.0000 H   0  0  0  0  0  0  0  0  0  0  0  0
    7.5614   -2.9181    0.0000 H   0  0  0  0  0  0  0  0  0  0  0  0
    6.1627   -1.9020    0.0000 H   0  0  0  0  0  0  0  0  0  0  0  0
    4.9219   -0.3266    0.0000 H   0  0  0  0  0  0  0  0  0  0  0  0
    5.6500   -0.6508    0.0000 H   0  0  0  0  0  0  0  0  0  0  0  0
    4.2077    2.6013    0.0000 H   0  0  0  0  0  0  0  0  0  0  0  0
    2.8090    3.6175    0.0000 H   0  0  0  0  0  0  0  0  0  0  0  0
    1.4103    2.6013    0.0000 H   0  0  0  0  0  0  0  0  0  0  0  0
  1 20  1  0  0  0  0
  1 23  1  0  0  0  0
  2 12  2  0  0  0  0
  3 18  1  0  0  0  0
  3 19  1  0  0  0  0
  4 17  2  0  0  0  0
  5 19  2  0  0  0  0
  6 10  1  0  0  0  0
  6 11  1  0  0  0  0
  6 12  1  0  0  0  0
  7 13  1  0  0  0  0
  7 16  1  0  0  0  0
  7 33  1  0  0  0  0
  8  9  1  0  0  0  0
  8 10  1  0  0  0  0
  8 24  1  0  0  0  0
  8 25  1  0  0  0  0
  9 11  1  0  0  0  0
  9 26  1  0  0  0  0
  9 27  1  0  0  0  0
 10 28  1  0  0  0  0
 10 29  1  0  0  0  0
 11 30  1  0  0  0  0
 11 31  1  0  0  0  0
 12 13  1  0  0  0  0
 13 14  2  0  0  0  0
 14 15  1  0  0  0  0
 14 32  1  0  0  0  0
 15 16  2  0  0  0  0
 15 17  1  0  0  0  0
 16 34  1  0  0  0  0
 17 18  1  0  0  0  0
 18 35  1  0  0  0  0
 18 36  1  0  0  0  0
 19 20  1  0  0  0  0
 20 21  2  0  0  0  0
 21 22  1  0  0  0  0
 21 37  1  0  0  0  0
 22 23  2  0  0  0  0
 22 38  1  0  0  0  0
 23 39  1  0  0  0  0
M  END
> <PUBCHEM_COMPOUND_CID>
17395648

> <PUBCHEM_COMPOUND_CANONICALIZED>
1

> <PUBCHEM_CACTVS_COMPLEXITY>
479

> <PUBCHEM_CACTVS_HBOND_ACCEPTOR>
5

> <PUBCHEM_CACTVS_HBOND_DONOR>
1

> <PUBCHEM_CACTVS_ROTATABLE_BOND>
6

> <PUBCHEM_CACTVS_SUBSKEYS>
AAADceB7OABAAAAAAAAAAAAAAAAAAWLEgAAAAAAAAAAAAAAB4AAAHgQQAAAADAzl3ga8iZPJlAisA7X3XAKDgKA3CjBI2bn4bNgIZvrgtb2WEYhk1gHo6ce8WwMuAAAAAAAAAAAAAAAAAAAAAAAAAAAAAA==

> <PUBCHEM_IUPAC_OPENEYE_NAME>
[2-oxo-2-[5-(pyrrolidine-1-carbonyl)-1H-pyrrol-3-yl]ethyl] thiophene-2-carboxylate

> <PUBCHEM_IUPAC_CAS_NAME>
2-thiophenecarboxylic acid [2-oxo-2-[5-[oxo(1-pyrrolidinyl)methyl]-1H-pyrrol-3-yl]ethyl] ester

> <PUBCHEM_IUPAC_NAME>
[2-oxo-2-[5-(pyrrolidine-1-carbonyl)-1H-pyrrol-3-yl]ethyl] thiophene-2-carboxylate

> <PUBCHEM_IUPAC_SYSTEMATIC_NAME>
[2-oxidanylidene-2-(5-pyrrolidin-1-ylcarbonyl-1H-pyrrol-3-yl)ethyl] thiophene-2-carboxylate

> <PUBCHEM_IUPAC_TRADITIONAL_NAME>
thiophene-2-carboxylic acid [2-keto-2-[5-(pyrrolidine-1-carbonyl)-1H-pyrrol-3-yl]ethyl] ester

> <PUBCHEM_IUPAC_INCHI>
InChI=1S/C16H16N2O4S/c19-13(10-22-16(21)14-4-3-7-23-14)11-8-12(17-9-11)15(20)18-5-1-2-6-18/h3-4,7-9,17H,1-2,5-6,10H2

> <PUBCHEM_IUPAC_INCHIKEY>
SSVGJYNMKIOENG-UHFFFAOYSA-N

> <PUBCHEM_XLOGP3_AA>
2.3

> <PUBCHEM_EXACT_MASS>
332.083078

> <PUBCHEM_MOLECULAR_FORMULA>
C16H16N2O4S

> <PUBCHEM_MOLECULAR_WEIGHT>
332.37424

> <PUBCHEM_OPENEYE_CAN_SMILES>
C1CCN(C1)C(=O)C2=CC(=CN2)C(=O)COC(=O)C3=CC=CS3

> <PUBCHEM_OPENEYE_ISO_SMILES>
C1CCN(C1)C(=O)C2=CC(=CN2)C(=O)COC(=O)C3=CC=CS3

> <PUBCHEM_CACTVS_TPSA>
108

> <PUBCHEM_MONOISOTOPIC_WEIGHT>
332.083078

> <PUBCHEM_TOTAL_CHARGE>
0

> <PUBCHEM_HEAVY_ATOM_COUNT>
23

> <PUBCHEM_ATOM_DEF_STEREO_COUNT>
0

> <PUBCHEM_ATOM_UDEF_STEREO_COUNT>
0

> <PUBCHEM_BOND_DEF_STEREO_COUNT>
0

> <PUBCHEM_BOND_UDEF_STEREO_COUNT>
0

> <PUBCHEM_ISOTOPIC_ATOM_COUNT>
0

> <PUBCHEM_COMPONENT_COUNT>
1

> <PUBCHEM_CACTVS_TAUTO_COUNT>
11

> <PUBCHEM_COORDINATE_TYPE>
1
5
255

> <PUBCHEM_BONDANNOTATIONS>
1  20  8
1  23  8
13  14  8
14  15  8
15  16  8
20  21  8
21  22  8
22  23  8
7  13  8
7  16  8

$$$$

