10478
  -OEChem-06261204352D

  3  2  0     0  0  0  0  0  0999 V2000
    3.7320    0.5000    0.0000 I   0  0  0  0  0  0  0  0  0  0  0  0
    2.0000   -0.5000    0.0000 N   0  0  0  0  0  0  0  0  0  0  0  0
    2.8660    0.0000    0.0000 C   0  0  0  0  0  0  0  0  0  0  0  0
  1  3  1  0  0  0  0
  2  3  3  0  0  0  0
M  END
> <PUBCHEM_COMPOUND_CID>
10478

> <PUBCHEM_COMPOUND_CANONICALIZED>
1

> <PUBCHEM_CACTVS_COMPLEXITY>
31.3

> <PUBCHEM_CACTVS_HBOND_ACCEPTOR>
1

> <PUBCHEM_CACTVS_HBOND_DONOR>
0

> <PUBCHEM_CACTVS_ROTATABLE_BOND>
0

> <PUBCHEM_CACTVS_SUBSKEYS>
AAADcQACAAAAAgAAAAAAAAAAAAAAAAAAAAAAAAAAAAAAAAAAAAAABAAgAAAAAAAAAAAAAAAAAAAQAAAAAAAAAAAAAAAAAAAAAAAAAAAAAAAAAAAAAAAAAAAAAAAAAAAAAAAAAAAAAAAAAAAAAAAAAAAAAA==

> <PUBCHEM_IUPAC_OPENEYE_NAME>
carbononitridic iodide

> <PUBCHEM_IUPAC_CAS_NAME>
carbononitridic iodide

> <PUBCHEM_IUPAC_NAME>
carbononitridic iodide

> <PUBCHEM_IUPAC_SYSTEMATIC_NAME>
carbononitridic iodide

> <PUBCHEM_IUPAC_TRADITIONAL_NAME>
cyanogen iodide

> <PUBCHEM_IUPAC_INCHI>
InChI=1S/CIN/c2-1-3

> <PUBCHEM_IUPAC_INCHIKEY>
WPBXOELOQKLBDF-UHFFFAOYSA-N

> <PUBCHEM_XLOGP3_AA>
0.9

> <PUBCHEM_EXACT_MASS>
152.907547

> <PUBCHEM_MOLECULAR_FORMULA>
CIN

> <PUBCHEM_MOLECULAR_WEIGHT>
152.92187

> <PUBCHEM_OPENEYE_CAN_SMILES>
C(#N)I

> <PUBCHEM_OPENEYE_ISO_SMILES>
C(#N)I

> <PUBCHEM_CACTVS_TPSA>
23.8

> <PUBCHEM_MONOISOTOPIC_WEIGHT>
152.907547

> <PUBCHEM_TOTAL_CHARGE>
0

> <PUBCHEM_HEAVY_ATOM_COUNT>
3

> <PUBCHEM_ATOM_DEF_STEREO_COUNT>
0

> <PUBCHEM_ATOM_UDEF_STEREO_COUNT>
0

> <PUBCHEM_BOND_DEF_STEREO_COUNT>
0

> <PUBCHEM_BOND_UDEF_STEREO_COUNT>
0

> <PUBCHEM_ISOTOPIC_ATOM_COUNT>
0

> <PUBCHEM_COMPONENT_COUNT>
1

> <PUBCHEM_CACTVS_TAUTO_COUNT>
1

> <PUBCHEM_COORDINATE_TYPE>
1
5
255

$$$$

