4259
  -OEChem-06261200002D

 53 57  0     1  0  0  0  0  0999 V2000
    5.0749    1.7832    0.0000 F   0  0  0  0  0  0  0  0  0  0  0  0
    6.8069   -1.2168    0.0000 O   0  0  0  0  0  0  0  0  0  0  0  0
    8.5553    2.8177    0.0000 O   0  0  0  0  0  0  0  0  0  0  0  0
   11.2050    1.3106    0.0000 O   0  0  0  0  0  0  0  0  0  0  0  0
   10.3332    2.8073    0.0000 O   0  0  0  0  0  0  0  0  0  0  0  0
    5.0749   -0.2169    0.0000 N   0  0  3  0  0  0  0  0  0  0  0  0
    3.5000   -2.2808    0.0000 N   0  0  0  0  0  0  0  0  0  0  0  0
    8.5669   -0.2515    0.0000 N   0  0  0  0  0  0  0  0  0  0  0  0
    3.5000   -0.5488    0.0000 C   0  0  3  0  0  0  0  0  0  0  0  0
    4.0000   -1.4148    0.0000 C   0  0  3  0  0  0  0  0  0  0  0  0
    4.1671    0.1883    0.0000 C   0  0  0  0  0  0  0  0  0  0  0  0
    4.9718   -1.2056    0.0000 C   0  0  0  0  0  0  0  0  0  0  0  0
    2.5000   -0.5488    0.0000 C   0  0  0  0  0  0  0  0  0  0  0  0
    8.5553   -1.2514    0.0000 C   0  0  0  0  0  0  0  0  0  0  0  0
    2.0000   -1.4148    0.0000 C   0  0  0  0  0  0  0  0  0  0  0  0
    8.0453   -2.1116    0.0000 C   0  0  0  0  0  0  0  0  0  0  0  0
    9.0453   -2.1232    0.0000 C   0  0  0  0  0  0  0  0  0  0  0  0
    2.5000   -2.2808    0.0000 C   0  0  0  0  0  0  0  0  0  0  0  0
    5.9409    0.2831    0.0000 C   0  0  0  0  0  0  0  0  0  0  0  0
    7.6730    0.2831    0.0000 C   0  0  0  0  0  0  0  0  0  0  0  0
    6.8069   -0.2169    0.0000 C   0  0  0  0  0  0  0  0  0  0  0  0
    7.6730    1.2832    0.0000 C   0  0  0  0  0  0  0  0  0  0  0  0
    5.9409    1.2832    0.0000 C   0  0  0  0  0  0  0  0  0  0  0  0
    9.4730    0.2623    0.0000 C   0  0  0  0  0  0  0  0  0  0  0  0
    6.8069    1.7832    0.0000 C   0  0  0  0  0  0  0  0  0  0  0  0
    9.4730    1.3040    0.0000 C   0  0  0  0  0  0  0  0  0  0  0  0
    8.5669    1.8178    0.0000 C   0  0  0  0  0  0  0  0  0  0  0  0
   10.3370    1.8073    0.0000 C   0  0  0  0  0  0  0  0  0  0  0  0
    5.9409   -1.7168    0.0000 C   0  0  0  0  0  0  0  0  0  0  0  0
    3.2486    0.0180    0.0000 H   0  0  0  0  0  0  0  0  0  0  0  0
    4.3651   -1.9159    0.0000 H   0  0  0  0  0  0  0  0  0  0  0  0
    4.4779    0.7247    0.0000 H   0  0  0  0  0  0  0  0  0  0  0  0
    3.6662    0.5537    0.0000 H   0  0  0  0  0  0  0  0  0  0  0  0
    5.0379   -1.8220    0.0000 H   0  0  0  0  0  0  0  0  0  0  0  0
    5.5918   -1.2047    0.0000 H   0  0  0  0  0  0  0  0  0  0  0  0
    2.6077    0.0618    0.0000 H   0  0  0  0  0  0  0  0  0  0  0  0
    1.9174   -0.3367    0.0000 H   0  0  0  0  0  0  0  0  0  0  0  0
    9.1560   -1.0979    0.0000 H   0  0  0  0  0  0  0  0  0  0  0  0
    1.5250   -1.0163    0.0000 H   0  0  0  0  0  0  0  0  0  0  0  0
    1.5250   -1.8133    0.0000 H   0  0  0  0  0  0  0  0  0  0  0  0
    3.8100   -2.8177    0.0000 H   0  0  0  0  0  0  0  0  0  0  0  0
    7.4652   -1.8929    0.0000 H   0  0  0  0  0  0  0  0  0  0  0  0
    7.9306   -2.7209    0.0000 H   0  0  0  0  0  0  0  0  0  0  0  0
    9.1459   -2.7350    0.0000 H   0  0  0  0  0  0  0  0  0  0  0  0
    9.6303   -1.9179    0.0000 H   0  0  0  0  0  0  0  0  0  0  0  0
    1.9174   -2.4929    0.0000 H   0  0  0  0  0  0  0  0  0  0  0  0
    2.6077   -2.8914    0.0000 H   0  0  0  0  0  0  0  0  0  0  0  0
   10.0087   -0.0497    0.0000 H   0  0  0  0  0  0  0  0  0  0  0  0
    6.8069    2.4032    0.0000 H   0  0  0  0  0  0  0  0  0  0  0  0
    5.6309   -1.1799    0.0000 H   0  0  0  0  0  0  0  0  0  0  0  0
    5.4040   -2.0268    0.0000 H   0  0  0  0  0  0  0  0  0  0  0  0
    6.2509   -2.2538    0.0000 H   0  0  0  0  0  0  0  0  0  0  0  0
   11.7407    1.6227    0.0000 H   0  0  0  0  0  0  0  0  0  0  0  0
  1 23  1  0  0  0  0
  2 21  1  0  0  0  0
  2 29  1  0  0  0  0
  3 27  2  0  0  0  0
  4 28  1  0  0  0  0
  4 53  1  0  0  0  0
  5 28  2  0  0  0  0
  6 11  1  0  0  0  0
  6 12  1  0  0  0  0
  6 19  1  0  0  0  0
  7 10  1  0  0  0  0
  7 18  1  0  0  0  0
  7 41  1  0  0  0  0
  8 14  1  0  0  0  0
  8 20  1  0  0  0  0
  8 24  1  0  0  0  0
  9 10  1  0  0  0  0
  9 11  1  0  0  0  0
  9 13  1  0  0  0  0
  9 30  1  0  0  0  0
 10 12  1  0  0  0  0
 10 31  1  0  0  0  0
 11 32  1  0  0  0  0
 11 33  1  0  0  0  0
 12 34  1  0  0  0  0
 12 35  1  0  0  0  0
 13 15  1  0  0  0  0
 13 36  1  0  0  0  0
 13 37  1  0  0  0  0
 14 16  1  0  0  0  0
 14 17  1  0  0  0  0
 14 38  1  0  0  0  0
 15 18  1  0  0  0  0
 15 39  1  0  0  0  0
 15 40  1  0  0  0  0
 16 17  1  0  0  0  0
 16 42  1  0  0  0  0
 16 43  1  0  0  0  0
 17 44  1  0  0  0  0
 17 45  1  0  0  0  0
 18 46  1  0  0  0  0
 18 47  1  0  0  0  0
 19 21  1  0  0  0  0
 19 23  2  0  0  0  0
 20 21  2  0  0  0  0
 20 22  1  0  0  0  0
 22 25  2  0  0  0  0
 22 27  1  0  0  0  0
 23 25  1  0  0  0  0
 24 26  2  0  0  0  0
 24 48  1  0  0  0  0
 25 49  1  0  0  0  0
 26 27  1  0  0  0  0
 26 28  1  0  0  0  0
 29 50  1  0  0  0  0
 29 51  1  0  0  0  0
 29 52  1  0  0  0  0
M  END
> <PUBCHEM_COMPOUND_CID>
4259

> <PUBCHEM_COMPOUND_CANONICALIZED>
1

> <PUBCHEM_CACTVS_COMPLEXITY>
727

> <PUBCHEM_CACTVS_HBOND_ACCEPTOR>
8

> <PUBCHEM_CACTVS_HBOND_DONOR>
2

> <PUBCHEM_CACTVS_ROTATABLE_BOND>
4

> <PUBCHEM_CACTVS_SUBSKEYS>
AAADceB7OQAAAAAAAAAAAAAAGAAAAWAAAAA8QIAAAAAAAFiBAAAAHwAQCAAADSzBmA4yzoPABgCIAqTWSACCCAAlIAAAiIENTMgOZj7M9NuVcahk8BHY+cea2bOeCAABAAQCEAAQAAIACAQgAAAAAAAAAA==

> <PUBCHEM_IUPAC_OPENEYE_NAME>
7-(1,2,3,4,4a,5,7,7a-octahydropyrrolo[3,4-b]pyridin-6-yl)-1-cyclopropyl-6-fluoro-8-methoxy-4-oxo-quinoline-3-carboxylic acid

> <PUBCHEM_IUPAC_CAS_NAME>
7-(1,2,3,4,4a,5,7,7a-octahydropyrrolo[3,4-b]pyridin-6-yl)-1-cyclopropyl-6-fluoro-8-methoxy-4-oxo-3-quinolinecarboxylic acid

> <PUBCHEM_IUPAC_NAME>
7-(1,2,3,4,4a,5,7,7a-octahydropyrrolo[3,4-b]pyridin-6-yl)-1-cyclopropyl-6-fluoro-8-methoxy-4-oxoquinoline-3-carboxylic acid

> <PUBCHEM_IUPAC_SYSTEMATIC_NAME>
7-(1,2,3,4,4a,5,7,7a-octahydropyrrolo[3,4-b]pyridin-6-yl)-1-cyclopropyl-6-fluoranyl-8-methoxy-4-oxidanylidene-quinoline-3-carboxylic acid

> <PUBCHEM_IUPAC_TRADITIONAL_NAME>
7-(1,2,3,4,4a,5,7,7a-octahydropyrrolo[3,4-b]pyridin-6-yl)-1-cyclopropyl-6-fluoro-4-keto-8-methoxy-quinoline-3-carboxylic acid

> <PUBCHEM_IUPAC_INCHI>
InChI=1S/C21H24FN3O4/c1-29-20-17-13(19(26)14(21(27)28)9-25(17)12-4-5-12)7-15(22)18(20)24-8-11-3-2-6-23-16(11)10-24/h7,9,11-12,16,23H,2-6,8,10H2,1H3,(H,27,28)

> <PUBCHEM_IUPAC_INCHIKEY>
FABPRXSRWADJSP-UHFFFAOYSA-N

> <PUBCHEM_XLOGP3_AA>
0.6

> <PUBCHEM_EXACT_MASS>
401.175084

> <PUBCHEM_MOLECULAR_FORMULA>
C21H24FN3O4

> <PUBCHEM_MOLECULAR_WEIGHT>
401.431363

> <PUBCHEM_OPENEYE_CAN_SMILES>
COC1=C2C(=CC(=C1N3CC4CCCNC4C3)F)C(=O)C(=CN2C5CC5)C(=O)O

> <PUBCHEM_OPENEYE_ISO_SMILES>
COC1=C2C(=CC(=C1N3CC4CCCNC4C3)F)C(=O)C(=CN2C5CC5)C(=O)O

> <PUBCHEM_CACTVS_TPSA>
82.1

> <PUBCHEM_MONOISOTOPIC_WEIGHT>
401.175084

> <PUBCHEM_TOTAL_CHARGE>
0

> <PUBCHEM_HEAVY_ATOM_COUNT>
29

> <PUBCHEM_ATOM_DEF_STEREO_COUNT>
0

> <PUBCHEM_ATOM_UDEF_STEREO_COUNT>
2

> <PUBCHEM_BOND_DEF_STEREO_COUNT>
0

> <PUBCHEM_BOND_UDEF_STEREO_COUNT>
0

> <PUBCHEM_ISOTOPIC_ATOM_COUNT>
0

> <PUBCHEM_COMPONENT_COUNT>
1

> <PUBCHEM_CACTVS_TAUTO_COUNT>
1

> <PUBCHEM_COORDINATE_TYPE>
1
5
255

> <PUBCHEM_BONDANNOTATIONS>
10  12  3
19  21  8
19  23  8
20  21  8
20  22  8
22  25  8
22  27  8
23  25  8
24  26  8
26  27  8
8  20  8
8  24  8
9  13  3

$$$$

