4233
  -OEChem-06251223582D

 89 96  0     0  0  0  0  0  0999 V2000
    6.4781    0.0155    0.0000 Mn  0  1  0  0  0  0  0  0  0  0  0  0
    5.0890    0.0417    0.0000 N   0  5  0  0  0  0  0  0  0  0  0  0
    6.5148   -1.2569    0.0000 N   0  0  0  0  0  0  0  0  0  0  0  0
    6.4830    1.3404    0.0000 N   0  0  0  0  0  0  0  0  0  0  0  0
    7.9388    0.0417    0.0000 N   0  5  0  0  0  0  0  0  0  0  0  0
    2.8245   -3.7981    0.0000 N   0  3  0  0  0  0  0  0  0  0  0  0
    2.7012    3.8268    0.0000 N   0  3  0  0  0  0  0  0  0  0  0  0
   10.2626   -3.7744    0.0000 N   0  3  0  0  0  0  0  0  0  0  0  0
   10.3975    3.7226    0.0000 N   0  3  0  0  0  0  0  0  0  0  0  0
    4.5509   -0.6870    0.0000 C   0  0  0  0  0  0  0  0  0  0  0  0
    4.5509    0.7704    0.0000 C   0  0  0  0  0  0  0  0  0  0  0  0
    5.7542   -1.8587    0.0000 C   0  0  0  0  0  0  0  0  0  0  0  0
    5.7225    1.9421    0.0000 C   0  0  0  0  0  0  0  0  0  0  0  0
    7.2752   -1.8270    0.0000 C   0  0  0  0  0  0  0  0  0  0  0  0
    7.2752    1.9738    0.0000 C   0  0  0  0  0  0  0  0  0  0  0  0
    8.5088   -0.6553    0.0000 C   0  0  0  0  0  0  0  0  0  0  0  0
    8.4771    0.8022    0.0000 C   0  0  0  0  0  0  0  0  0  0  0  0
    4.8366   -1.5729    0.0000 C   0  0  0  0  0  0  0  0  0  0  0  0
    4.8049    1.6880    0.0000 C   0  0  0  0  0  0  0  0  0  0  0  0
    8.1929    1.6880    0.0000 C   0  0  0  0  0  0  0  0  0  0  0  0
    8.2246   -1.5729    0.0000 C   0  0  0  0  0  0  0  0  0  0  0  0
    3.6332   -0.4330    0.0000 C   0  0  0  0  0  0  0  0  0  0  0  0
    3.6332    0.5163    0.0000 C   0  0  0  0  0  0  0  0  0  0  0  0
    6.0401   -2.7446    0.0000 C   0  0  0  0  0  0  0  0  0  0  0  0
    6.0083    2.8597    0.0000 C   0  0  0  0  0  0  0  0  0  0  0  0
    6.9895   -2.7446    0.0000 C   0  0  0  0  0  0  0  0  0  0  0  0
    6.9577    2.8597    0.0000 C   0  0  0  0  0  0  0  0  0  0  0  0
    9.3962    0.5481    0.0000 C   0  0  0  0  0  0  0  0  0  0  0  0
    9.3962   -0.4012    0.0000 C   0  0  0  0  0  0  0  0  0  0  0  0
    4.1659   -2.3146    0.0000 C   0  0  0  0  0  0  0  0  0  0  0  0
    4.1037    2.4010    0.0000 C   0  0  0  0  0  0  0  0  0  0  0  0
    8.9040   -2.3067    0.0000 C   0  0  0  0  0  0  0  0  0  0  0  0
    8.9277    2.3662    0.0000 C   0  0  0  0  0  0  0  0  0  0  0  0
    3.1357    2.1502    0.0000 C   0  0  0  0  0  0  0  0  0  0  0  0
    4.4729   -3.2663    0.0000 C   0  0  0  0  0  0  0  0  0  0  0  0
    4.3705    3.3647    0.0000 C   0  0  0  0  0  0  0  0  0  0  0  0
    3.1882   -2.1046    0.0000 C   0  0  0  0  0  0  0  0  0  0  0  0
    8.7078    3.3418    0.0000 C   0  0  0  0  0  0  0  0  0  0  0  0
    8.6081   -3.2620    0.0000 C   0  0  0  0  0  0  0  0  0  0  0  0
    9.8825    2.0689    0.0000 C   0  0  0  0  0  0  0  0  0  0  0  0
    9.8791   -2.0853    0.0000 C   0  0  0  0  0  0  0  0  0  0  0  0
    3.8022   -4.0080    0.0000 C   0  0  0  0  0  0  0  0  0  0  0  0
    2.4344    2.8631    0.0000 C   0  0  0  0  0  0  0  0  0  0  0  0
    3.6693    4.0777    0.0000 C   0  0  0  0  0  0  0  0  0  0  0  0
    2.5175   -2.8464    0.0000 C   0  0  0  0  0  0  0  0  0  0  0  0
    9.2874   -3.9958    0.0000 C   0  0  0  0  0  0  0  0  0  0  0  0
    9.4427    4.0200    0.0000 C   0  0  0  0  0  0  0  0  0  0  0  0
   10.5585   -2.8192    0.0000 C   0  0  0  0  0  0  0  0  0  0  0  0
   10.6174    2.7471    0.0000 C   0  0  0  0  0  0  0  0  0  0  0  0
    2.0000    4.5398    0.0000 C   0  0  0  0  0  0  0  0  0  0  0  0
    2.1538   -4.5398    0.0000 C   0  0  0  0  0  0  0  0  0  0  0  0
   11.1324    4.4008    0.0000 C   0  0  0  0  0  0  0  0  0  0  0  0
   10.9419   -4.5082    0.0000 C   0  0  0  0  0  0  0  0  0  0  0  0
    3.1398   -0.8084    0.0000 H   0  0  0  0  0  0  0  0  0  0  0  0
    3.1398    0.8917    0.0000 H   0  0  0  0  0  0  0  0  0  0  0  0
    5.6751   -3.2458    0.0000 H   0  0  0  0  0  0  0  0  0  0  0  0
    5.6408    3.3591    0.0000 H   0  0  0  0  0  0  0  0  0  0  0  0
    7.3570   -3.2439    0.0000 H   0  0  0  0  0  0  0  0  0  0  0  0
    7.3146    3.3667    0.0000 H   0  0  0  0  0  0  0  0  0  0  0  0
    9.8913   -0.7744    0.0000 H   0  0  0  0  0  0  0  0  0  0  0  0
    9.8896    0.9236    0.0000 H   0  0  0  0  0  0  0  0  0  0  0  0
    5.0790   -3.3965    0.0000 H   0  0  0  0  0  0  0  0  0  0  0  0
    2.9702    1.5526    0.0000 H   0  0  0  0  0  0  0  0  0  0  0  0
    2.9978   -1.5146    0.0000 H   0  0  0  0  0  0  0  0  0  0  0  0
    4.9707    3.5202    0.0000 H   0  0  0  0  0  0  0  0  0  0  0  0
    8.0035   -3.3992    0.0000 H   0  0  0  0  0  0  0  0  0  0  0  0
    8.1159    3.5261    0.0000 H   0  0  0  0  0  0  0  0  0  0  0  0
   10.0626   -1.4931    0.0000 H   0  0  0  0  0  0  0  0  0  0  0  0
   10.0188    1.4641    0.0000 H   0  0  0  0  0  0  0  0  0  0  0  0
    3.9925   -4.5981    0.0000 H   0  0  0  0  0  0  0  0  0  0  0  0
    1.8342    2.7076    0.0000 H   0  0  0  0  0  0  0  0  0  0  0  0
    1.9113   -2.7162    0.0000 H   0  0  0  0  0  0  0  0  0  0  0  0
    3.8347    4.6752    0.0000 H   0  0  0  0  0  0  0  0  0  0  0  0
    9.1040   -4.5880    0.0000 H   0  0  0  0  0  0  0  0  0  0  0  0
    9.3064    4.6248    0.0000 H   0  0  0  0  0  0  0  0  0  0  0  0
   11.1631   -2.6819    0.0000 H   0  0  0  0  0  0  0  0  0  0  0  0
   11.2094    2.5628    0.0000 H   0  0  0  0  0  0  0  0  0  0  0  0
    1.6939   -4.1239    0.0000 H   0  0  0  0  0  0  0  0  0  0  0  0
    1.7379   -4.9996    0.0000 H   0  0  0  0  0  0  0  0  0  0  0  0
    2.6136   -4.9556    0.0000 H   0  0  0  0  0  0  0  0  0  0  0  0
    2.4420    4.9745    0.0000 H   0  0  0  0  0  0  0  0  0  0  0  0
    1.5652    4.9818    0.0000 H   0  0  0  0  0  0  0  0  0  0  0  0
    1.5580    4.1050    0.0000 H   0  0  0  0  0  0  0  0  0  0  0  0
   10.4870   -4.9294    0.0000 H   0  0  0  0  0  0  0  0  0  0  0  0
   11.3631   -4.9632    0.0000 H   0  0  0  0  0  0  0  0  0  0  0  0
   11.3969   -4.0870    0.0000 H   0  0  0  0  0  0  0  0  0  0  0  0
   11.5529    3.9452    0.0000 H   0  0  0  0  0  0  0  0  0  0  0  0
   11.5880    4.8213    0.0000 H   0  0  0  0  0  0  0  0  0  0  0  0
   10.7119    4.8564    0.0000 H   0  0  0  0  0  0  0  0  0  0  0  0
  2 10  1  0  0  0  0
  2 11  1  0  0  0  0
  3 12  2  0  0  0  0
  3 14  1  0  0  0  0
  4 13  2  0  0  0  0
  4 15  1  0  0  0  0
  5 16  1  0  0  0  0
  5 17  1  0  0  0  0
  6 42  2  0  0  0  0
  6 45  1  0  0  0  0
  6 51  1  0  0  0  0
  7 43  2  0  0  0  0
  7 44  1  0  0  0  0
  7 50  1  0  0  0  0
  8 46  2  0  0  0  0
  8 48  1  0  0  0  0
  8 53  1  0  0  0  0
  9 47  2  0  0  0  0
  9 49  1  0  0  0  0
  9 52  1  0  0  0  0
 10 18  2  0  0  0  0
 10 22  1  0  0  0  0
 11 19  2  0  0  0  0
 11 23  1  0  0  0  0
 12 18  1  0  0  0  0
 12 24  1  0  0  0  0
 13 19  1  0  0  0  0
 13 25  1  0  0  0  0
 14 21  2  0  0  0  0
 14 26  1  0  0  0  0
 15 20  2  0  0  0  0
 15 27  1  0  0  0  0
 16 21  1  0  0  0  0
 16 29  2  0  0  0  0
 17 20  1  0  0  0  0
 17 28  2  0  0  0  0
 18 30  1  0  0  0  0
 19 31  1  0  0  0  0
 20 33  1  0  0  0  0
 21 32  1  0  0  0  0
 22 23  2  0  0  0  0
 22 54  1  0  0  0  0
 23 55  1  0  0  0  0
 24 26  2  0  0  0  0
 24 56  1  0  0  0  0
 25 27  2  0  0  0  0
 25 57  1  0  0  0  0
 26 58  1  0  0  0  0
 27 59  1  0  0  0  0
 28 29  1  0  0  0  0
 28 61  1  0  0  0  0
 29 60  1  0  0  0  0
 30 35  2  0  0  0  0
 30 37  1  0  0  0  0
 31 34  2  0  0  0  0
 31 36  1  0  0  0  0
 32 39  2  0  0  0  0
 32 41  1  0  0  0  0
 33 38  2  0  0  0  0
 33 40  1  0  0  0  0
 34 43  1  0  0  0  0
 34 63  1  0  0  0  0
 35 42  1  0  0  0  0
 35 62  1  0  0  0  0
 36 44  2  0  0  0  0
 36 65  1  0  0  0  0
 37 45  2  0  0  0  0
 37 64  1  0  0  0  0
 38 47  1  0  0  0  0
 38 67  1  0  0  0  0
 39 46  1  0  0  0  0
 39 66  1  0  0  0  0
 40 49  2  0  0  0  0
 40 69  1  0  0  0  0
 41 48  2  0  0  0  0
 41 68  1  0  0  0  0
 42 70  1  0  0  0  0
 43 71  1  0  0  0  0
 44 73  1  0  0  0  0
 45 72  1  0  0  0  0
 46 74  1  0  0  0  0
 47 75  1  0  0  0  0
 48 76  1  0  0  0  0
 49 77  1  0  0  0  0
 50 81  1  0  0  0  0
 50 82  1  0  0  0  0
 50 83  1  0  0  0  0
 51 78  1  0  0  0  0
 51 79  1  0  0  0  0
 51 80  1  0  0  0  0
 52 87  1  0  0  0  0
 52 88  1  0  0  0  0
 52 89  1  0  0  0  0
 53 84  1  0  0  0  0
 53 85  1  0  0  0  0
 53 86  1  0  0  0  0
M  CHG  7   1   3   2  -1   5  -1   6   1   7   1   8   1   9   1
M  END
> <PUBCHEM_COMPOUND_CID>
4233

> <PUBCHEM_COMPOUND_CANONICALIZED>
1

> <PUBCHEM_CACTVS_COMPLEXITY>
1370

> <PUBCHEM_CACTVS_HBOND_ACCEPTOR>
4

> <PUBCHEM_CACTVS_HBOND_DONOR>
0

> <PUBCHEM_CACTVS_ROTATABLE_BOND>
4

> <PUBCHEM_CACTVS_SUBSKEYS>
AAADcfB/wAAAAABAAAAAAAAAAAAAAWIECAAsWLFiAAAAAECB/gAAHAAAAAAADAjBHgQ+gJMMEACgAzRnRACCgCAxAiAI2CA4ZJgIIOLAkZGEIAhggADIyAcQgMAOAAAAAAAAAAAAAAAAAAAAAAAAAAAAAA==

> <PUBCHEM_IUPAC_OPENEYE_NAME>
manganic 5,10,15,20-tetrakis(1-methylpyridin-1-ium-4-yl)porphyrin-22,24-diide

> <PUBCHEM_IUPAC_CAS_NAME>
manganese(3+); 5,10,15,20-tetrakis(1-methyl-4-pyridin-1-iumyl)porphyrin-22,24-diide

> <PUBCHEM_IUPAC_NAME>
manganese(3+); 5,10,15,20-tetrakis(1-methylpyridin-1-ium-4-yl)porphyrin-22,24-diide

> <PUBCHEM_IUPAC_SYSTEMATIC_NAME>
manganese(3+); 5,10,15,20-tetrakis(1-methylpyridin-1-ium-4-yl)porphyrin-22,24-diide

> <PUBCHEM_IUPAC_TRADITIONAL_NAME>
manganic 5,10,15,20-tetrakis(1-methylpyridin-1-ium-4-yl)porphine-22,24-diide

> <PUBCHEM_IUPAC_INCHI>
InChI=1S/C44H36N8.Mn/c1-49-21-13-29(14-22-49)41-33-5-7-35(45-33)42(30-15-23-50(2)24-16-30)37-9-11-39(47-37)44(32-19-27-52(4)28-20-32)40-12-10-38(48-40)43(36-8-6-34(41)46-36)31-17-25-51(3)26-18-31;/h5-28H,1-4H3;/q+2;+3

> <PUBCHEM_IUPAC_INCHIKEY>
MCUMBUVHIHVYGU-UHFFFAOYSA-N

> <PUBCHEM_EXACT_MASS>
731.244338

> <PUBCHEM_MOLECULAR_FORMULA>
C44H36MnN8+5

> <PUBCHEM_MOLECULAR_WEIGHT>
731.748285

> <PUBCHEM_OPENEYE_CAN_SMILES>
C[N+]1=CC=C(C=C1)C2=C3C=CC(=C(C4=NC(=C(C5=CC=C([N-]5)C(=C6C=CC2=N6)C7=CC=[N+](C=C7)C)C8=CC=[N+](C=C8)C)C=C4)C9=CC=[N+](C=C9)C)[N-]3.[Mn+3]

> <PUBCHEM_OPENEYE_ISO_SMILES>
C[N+]1=CC=C(C=C1)C2=C3C=CC(=C(C4=NC(=C(C5=CC=C([N-]5)C(=C6C=CC2=N6)C7=CC=[N+](C=C7)C)C8=CC=[N+](C=C8)C)C=C4)C9=CC=[N+](C=C9)C)[N-]3.[Mn+3]

> <PUBCHEM_CACTVS_TPSA>
42.2

> <PUBCHEM_MONOISOTOPIC_WEIGHT>
731.244338

> <PUBCHEM_TOTAL_CHARGE>
5

> <PUBCHEM_HEAVY_ATOM_COUNT>
53

> <PUBCHEM_ATOM_DEF_STEREO_COUNT>
0

> <PUBCHEM_ATOM_UDEF_STEREO_COUNT>
0

> <PUBCHEM_BOND_DEF_STEREO_COUNT>
0

> <PUBCHEM_BOND_UDEF_STEREO_COUNT>
0

> <PUBCHEM_ISOTOPIC_ATOM_COUNT>
0

> <PUBCHEM_COMPONENT_COUNT>
2

> <PUBCHEM_CACTVS_TAUTO_COUNT>
1

> <PUBCHEM_NONSTANDARDBOND>
1  2  6
1  3  6
1  4  6
1  5  6

> <PUBCHEM_COORDINATE_TYPE>
1
5
255

> <PUBCHEM_BONDANNOTATIONS>
10  18  8
10  22  8
11  19  8
11  23  8
12  18  8
13  19  8
14  21  8
15  20  8
16  21  8
16  29  8
17  20  8
17  28  8
2  10  8
2  11  8
22  23  8
28  29  8
3  12  8
3  14  8
30  35  8
30  37  8
31  34  8
31  36  8
32  39  8
32  41  8
33  38  8
33  40  8
34  43  8
35  42  8
36  44  8
37  45  8
38  47  8
39  46  8
4  13  8
4  15  8
40  49  8
41  48  8
5  16  8
5  17  8
6  42  8
6  45  8
7  43  8
7  44  8
8  46  8
8  48  8
9  47  8
9  49  8

$$$$

