13519
  -OEChem-06241222392D

 19 18  0     1  0  0  0  0  0999 V2000
    4.5981    0.0670    0.0000 O   0  0  0  0  0  0  0  0  0  0  0  0
    3.7320   -0.4330    0.0000 C   0  0  3  0  0  0  0  0  0  0  0  0
    2.8660   -0.9330    0.0000 C   0  0  0  0  0  0  0  0  0  0  0  0
    4.2320   -1.2990    0.0000 C   0  0  0  0  0  0  0  0  0  0  0  0
    2.0000   -0.4330    0.0000 C   0  0  0  0  0  0  0  0  0  0  0  0
    3.2320    0.4330    0.0000 C   0  0  0  0  0  0  0  0  0  0  0  0
    3.7320    1.2990    0.0000 C   0  0  0  0  0  0  0  0  0  0  0  0
    2.4675   -1.4080    0.0000 H   0  0  0  0  0  0  0  0  0  0  0  0
    3.2646   -1.4080    0.0000 H   0  0  0  0  0  0  0  0  0  0  0  0
    3.6951   -1.6090    0.0000 H   0  0  0  0  0  0  0  0  0  0  0  0
    4.5420   -1.8360    0.0000 H   0  0  0  0  0  0  0  0  0  0  0  0
    4.7690   -0.9890    0.0000 H   0  0  0  0  0  0  0  0  0  0  0  0
    2.3100    0.1039    0.0000 H   0  0  0  0  0  0  0  0  0  0  0  0
    1.4631   -0.1230    0.0000 H   0  0  0  0  0  0  0  0  0  0  0  0
    1.6900   -0.9699    0.0000 H   0  0  0  0  0  0  0  0  0  0  0  0
    2.6120    0.4330    0.0000 H   0  0  0  0  0  0  0  0  0  0  0  0
    5.1350   -0.2430    0.0000 H   0  0  0  0  0  0  0  0  0  0  0  0
    4.3520    1.2990    0.0000 H   0  0  0  0  0  0  0  0  0  0  0  0
    3.4220    1.8360    0.0000 H   0  0  0  0  0  0  0  0  0  0  0  0
  1  2  1  0  0  0  0
  1 17  1  0  0  0  0
  2  3  1  0  0  0  0
  2  4  1  0  0  0  0
  2  6  1  0  0  0  0
  3  5  1  0  0  0  0
  3  8  1  0  0  0  0
  3  9  1  0  0  0  0
  4 10  1  0  0  0  0
  4 11  1  0  0  0  0
  4 12  1  0  0  0  0
  5 13  1  0  0  0  0
  5 14  1  0  0  0  0
  5 15  1  0  0  0  0
  6  7  2  0  0  0  0
  6 16  1  0  0  0  0
  7 18  1  0  0  0  0
  7 19  1  0  0  0  0
M  END
> <PUBCHEM_COMPOUND_CID>
13519

> <PUBCHEM_COMPOUND_CANONICALIZED>
1

> <PUBCHEM_CACTVS_COMPLEXITY>
68.6

> <PUBCHEM_CACTVS_HBOND_ACCEPTOR>
1

> <PUBCHEM_CACTVS_HBOND_DONOR>
1

> <PUBCHEM_CACTVS_ROTATABLE_BOND>
2

> <PUBCHEM_CACTVS_SUBSKEYS>
AAADccBgIAAAAAAAAAAAAAAAAAAAAAAAAAAAAAAAAAAAAAAAAAAAGgAACAAADESAgAACAAAAAgCAACBCAAAAAAAgAAAIAAAAAAgABAAAAAAAQAAAgAAAEAAAAAAIAAAAAAAAAAAAAAAAAAAAAAAAAAAAAA==

> <PUBCHEM_IUPAC_OPENEYE_NAME>
3-methylpent-1-en-3-ol

> <PUBCHEM_IUPAC_CAS_NAME>
3-methyl-1-penten-3-ol

> <PUBCHEM_IUPAC_NAME>
3-methylpent-1-en-3-ol

> <PUBCHEM_IUPAC_SYSTEMATIC_NAME>
3-methylpent-1-en-3-ol

> <PUBCHEM_IUPAC_TRADITIONAL_NAME>
3-methylpent-1-en-3-ol

> <PUBCHEM_IUPAC_INCHI>
InChI=1S/C6H12O/c1-4-6(3,7)5-2/h4,7H,1,5H2,2-3H3

> <PUBCHEM_IUPAC_INCHIKEY>
HFYAEUXHCMTPOL-UHFFFAOYSA-N

> <PUBCHEM_XLOGP3_AA>
1.3

> <PUBCHEM_EXACT_MASS>
100.088815

> <PUBCHEM_MOLECULAR_FORMULA>
C6H12O

> <PUBCHEM_MOLECULAR_WEIGHT>
100.15888

> <PUBCHEM_OPENEYE_CAN_SMILES>
CCC(C)(C=C)O

> <PUBCHEM_OPENEYE_ISO_SMILES>
CCC(C)(C=C)O

> <PUBCHEM_CACTVS_TPSA>
20.2

> <PUBCHEM_MONOISOTOPIC_WEIGHT>
100.088815

> <PUBCHEM_TOTAL_CHARGE>
0

> <PUBCHEM_HEAVY_ATOM_COUNT>
7

> <PUBCHEM_ATOM_DEF_STEREO_COUNT>
0

> <PUBCHEM_ATOM_UDEF_STEREO_COUNT>
1

> <PUBCHEM_BOND_DEF_STEREO_COUNT>
0

> <PUBCHEM_BOND_UDEF_STEREO_COUNT>
0

> <PUBCHEM_ISOTOPIC_ATOM_COUNT>
0

> <PUBCHEM_COMPONENT_COUNT>
1

> <PUBCHEM_CACTVS_TAUTO_COUNT>
1

> <PUBCHEM_COORDINATE_TYPE>
1
5
255

> <PUBCHEM_BONDANNOTATIONS>
2  1  3

$$$$

