6697
  -OEChem-06261201272D

 28 31  0     0  0  0  0  0  0999 V2000
    4.6660   -2.2846    0.0000 O   0  0  0  0  0  0  0  0  0  0  0  0
    5.5321    0.2154    0.0000 C   0  0  0  0  0  0  0  0  0  0  0  0
    4.6660    0.7154    0.0000 C   0  0  0  0  0  0  0  0  0  0  0  0
    5.5321   -0.7846    0.0000 C   0  0  0  0  0  0  0  0  0  0  0  0
    3.8000    0.2154    0.0000 C   0  0  0  0  0  0  0  0  0  0  0  0
    3.8000   -0.7846    0.0000 C   0  0  0  0  0  0  0  0  0  0  0  0
    6.4421    0.7222    0.0000 C   0  0  0  0  0  0  0  0  0  0  0  0
    4.6660   -1.2846    0.0000 C   0  0  0  0  0  0  0  0  0  0  0  0
    4.6500    1.7569    0.0000 C   0  0  0  0  0  0  0  0  0  0  0  0
    6.3903   -1.2816    0.0000 C   0  0  0  0  0  0  0  0  0  0  0  0
    6.4501    1.7638    0.0000 C   0  0  0  0  0  0  0  0  0  0  0  0
    7.2814    0.1940    0.0000 C   0  0  0  0  0  0  0  0  0  0  0  0
    2.9061    0.7500    0.0000 C   0  0  0  0  0  0  0  0  0  0  0  0
    2.9061   -1.3193    0.0000 C   0  0  0  0  0  0  0  0  0  0  0  0
    5.5480    2.2846    0.0000 C   0  0  0  0  0  0  0  0  0  0  0  0
    7.2558   -0.7974    0.0000 C   0  0  0  0  0  0  0  0  0  0  0  0
    2.0000    0.2362    0.0000 C   0  0  0  0  0  0  0  0  0  0  0  0
    2.0000   -0.8054    0.0000 C   0  0  0  0  0  0  0  0  0  0  0  0
    4.1095    2.0606    0.0000 H   0  0  0  0  0  0  0  0  0  0  0  0
    6.3857   -1.9015    0.0000 H   0  0  0  0  0  0  0  0  0  0  0  0
    6.9882    2.0717    0.0000 H   0  0  0  0  0  0  0  0  0  0  0  0
    7.8280    0.4867    0.0000 H   0  0  0  0  0  0  0  0  0  0  0  0
    2.9132    1.3700    0.0000 H   0  0  0  0  0  0  0  0  0  0  0  0
    2.9132   -1.9392    0.0000 H   0  0  0  0  0  0  0  0  0  0  0  0
    5.5456    2.9046    0.0000 H   0  0  0  0  0  0  0  0  0  0  0  0
    7.7865   -1.1179    0.0000 H   0  0  0  0  0  0  0  0  0  0  0  0
    1.4643    0.5483    0.0000 H   0  0  0  0  0  0  0  0  0  0  0  0
    1.4643   -1.1175    0.0000 H   0  0  0  0  0  0  0  0  0  0  0  0
  1  8  2  0  0  0  0
  2  3  1  0  0  0  0
  2  4  1  0  0  0  0
  2  7  2  0  0  0  0
  3  5  1  0  0  0  0
  3  9  2  0  0  0  0
  4  8  1  0  0  0  0
  4 10  2  0  0  0  0
  5  6  1  0  0  0  0
  5 13  2  0  0  0  0
  6  8  1  0  0  0  0
  6 14  2  0  0  0  0
  7 11  1  0  0  0  0
  7 12  1  0  0  0  0
  9 15  1  0  0  0  0
  9 19  1  0  0  0  0
 10 16  1  0  0  0  0
 10 20  1  0  0  0  0
 11 15  2  0  0  0  0
 11 21  1  0  0  0  0
 12 16  2  0  0  0  0
 12 22  1  0  0  0  0
 13 17  1  0  0  0  0
 13 23  1  0  0  0  0
 14 18  1  0  0  0  0
 14 24  1  0  0  0  0
 15 25  1  0  0  0  0
 16 26  1  0  0  0  0
 17 18  2  0  0  0  0
 17 27  1  0  0  0  0
 18 28  1  0  0  0  0
M  END
> <PUBCHEM_COMPOUND_CID>
6697

> <PUBCHEM_COMPOUND_CANONICALIZED>
1

> <PUBCHEM_CACTVS_COMPLEXITY>
348

> <PUBCHEM_CACTVS_HBOND_ACCEPTOR>
1

> <PUBCHEM_CACTVS_HBOND_DONOR>
0

> <PUBCHEM_CACTVS_ROTATABLE_BOND>
0

> <PUBCHEM_CACTVS_SUBSKEYS>
AAADccB4IAAAAAAAAAAAAAAAAAAAAAAAAAAwYMGAAAAAAADBVAAAGgAAAAAADASAmAAwAMAAAACIAqBSAAACAAAkAAAIiAEAAMgIIDKAFRCAIQAggAAIiYcIiMCOgAACAAAQAACAAAQAACAAAAAAAAAAAA==

> <PUBCHEM_IUPAC_OPENEYE_NAME>
benzo[a]phenalen-7-one

> <PUBCHEM_IUPAC_CAS_NAME>
7-benzo[a]phenalenone

> <PUBCHEM_IUPAC_NAME>
benzo[a]phenalen-7-one

> <PUBCHEM_IUPAC_SYSTEMATIC_NAME>
benzo[a]phenalen-7-one

> <PUBCHEM_IUPAC_TRADITIONAL_NAME>
benzo[a]phenalen-7-one

> <PUBCHEM_IUPAC_INCHI>
InChI=1S/C17H10O/c18-17-14-8-2-1-7-12(14)13-9-3-5-11-6-4-10-15(17)16(11)13/h1-10H

> <PUBCHEM_IUPAC_INCHIKEY>
HUKPVYBUJRAUAG-UHFFFAOYSA-N

> <PUBCHEM_XLOGP3_AA>
4.3

> <PUBCHEM_EXACT_MASS>
230.073165

> <PUBCHEM_MOLECULAR_FORMULA>
C17H10O

> <PUBCHEM_MOLECULAR_WEIGHT>
230.2607

> <PUBCHEM_OPENEYE_CAN_SMILES>
C1=CC=C2C(=C1)C3=CC=CC4=C3C(=CC=C4)C2=O

> <PUBCHEM_OPENEYE_ISO_SMILES>
C1=CC=C2C(=C1)C3=CC=CC4=C3C(=CC=C4)C2=O

> <PUBCHEM_CACTVS_TPSA>
17.1

> <PUBCHEM_MONOISOTOPIC_WEIGHT>
230.073165

> <PUBCHEM_TOTAL_CHARGE>
0

> <PUBCHEM_HEAVY_ATOM_COUNT>
18

> <PUBCHEM_ATOM_DEF_STEREO_COUNT>
0

> <PUBCHEM_ATOM_UDEF_STEREO_COUNT>
0

> <PUBCHEM_BOND_DEF_STEREO_COUNT>
0

> <PUBCHEM_BOND_UDEF_STEREO_COUNT>
0

> <PUBCHEM_ISOTOPIC_ATOM_COUNT>
0

> <PUBCHEM_COMPONENT_COUNT>
1

> <PUBCHEM_CACTVS_TAUTO_COUNT>
1

> <PUBCHEM_COORDINATE_TYPE>
1
5
255

> <PUBCHEM_BONDANNOTATIONS>
10  16  8
11  15  8
12  16  8
13  17  8
14  18  8
17  18  8
2  3  8
2  4  8
2  7  8
3  9  8
4  10  8
5  13  8
5  6  8
6  14  8
7  11  8
7  12  8
9  15  8

$$$$

