17395793
  -OEChem-06241222522D

 32 33  0     1  0  0  0  0  0999 V2000
    2.0000   -2.0950    0.0000 O   0  0  0  0  0  0  0  0  0  0  0  0
    3.7320   -1.0950    0.0000 N   0  0  3  0  0  0  0  0  0  0  0  0
    2.8660   -3.5950    0.0000 N   0  0  0  0  0  0  0  0  0  0  0  0
    2.8660   -0.5950    0.0000 C   0  0  0  0  0  0  0  0  0  0  0  0
    2.8660    0.4050    0.0000 C   0  0  0  0  0  0  0  0  0  0  0  0
    4.5981   -0.5950    0.0000 C   0  0  0  0  0  0  0  0  0  0  0  0
    3.7320    0.9050    0.0000 C   0  0  0  0  0  0  0  0  0  0  0  0
    4.5981    0.4050    0.0000 C   0  0  0  0  0  0  0  0  0  0  0  0
    3.7320   -2.0950    0.0000 C   0  0  0  0  0  0  0  0  0  0  0  0
    3.7320    1.9050    0.0000 C   0  0  0  0  0  0  0  0  0  0  0  0
    2.8660   -2.5950    0.0000 C   0  0  0  0  0  0  0  0  0  0  0  0
    4.5981    2.4050    0.0000 C   0  0  0  0  0  0  0  0  0  0  0  0
    2.8660    2.4050    0.0000 C   0  0  0  0  0  0  0  0  0  0  0  0
    4.5981    3.4050    0.0000 C   0  0  0  0  0  0  0  0  0  0  0  0
    2.8660    3.4050    0.0000 C   0  0  0  0  0  0  0  0  0  0  0  0
    3.7320    3.9050    0.0000 C   0  0  0  0  0  0  0  0  0  0  0  0
    2.2554   -0.4873    0.0000 H   0  0  0  0  0  0  0  0  0  0  0  0
    2.6540   -1.1776    0.0000 H   0  0  0  0  0  0  0  0  0  0  0  0
    2.6540    0.9876    0.0000 H   0  0  0  0  0  0  0  0  0  0  0  0
    2.2554    0.2973    0.0000 H   0  0  0  0  0  0  0  0  0  0  0  0
    4.8101   -1.1776    0.0000 H   0  0  0  0  0  0  0  0  0  0  0  0
    5.2087   -0.4873    0.0000 H   0  0  0  0  0  0  0  0  0  0  0  0
    5.1350    0.7150    0.0000 H   0  0  0  0  0  0  0  0  0  0  0  0
    3.9441   -2.6776    0.0000 H   0  0  0  0  0  0  0  0  0  0  0  0
    4.3426   -1.9873    0.0000 H   0  0  0  0  0  0  0  0  0  0  0  0
    5.1350    2.0950    0.0000 H   0  0  0  0  0  0  0  0  0  0  0  0
    2.3291    2.0950    0.0000 H   0  0  0  0  0  0  0  0  0  0  0  0
    5.1350    3.7150    0.0000 H   0  0  0  0  0  0  0  0  0  0  0  0
    2.3291    3.7150    0.0000 H   0  0  0  0  0  0  0  0  0  0  0  0
    3.7320    4.5250    0.0000 H   0  0  0  0  0  0  0  0  0  0  0  0
    2.3291   -3.9050    0.0000 H   0  0  0  0  0  0  0  0  0  0  0  0
    3.4030   -3.9050    0.0000 H   0  0  0  0  0  0  0  0  0  0  0  0
  1 11  2  0  0  0  0
  2  4  1  0  0  0  0
  2  6  1  0  0  0  0
  2  9  1  0  0  0  0
  3 11  1  0  0  0  0
  3 31  1  0  0  0  0
  3 32  1  0  0  0  0
  4  5  1  0  0  0  0
  4 17  1  0  0  0  0
  4 18  1  0  0  0  0
  5  7  1  0  0  0  0
  5 19  1  0  0  0  0
  5 20  1  0  0  0  0
  6  8  1  0  0  0  0
  6 21  1  0  0  0  0
  6 22  1  0  0  0  0
  7  8  2  0  0  0  0
  7 10  1  0  0  0  0
  8 23  1  0  0  0  0
  9 11  1  0  0  0  0
  9 24  1  0  0  0  0
  9 25  1  0  0  0  0
 10 12  2  0  0  0  0
 10 13  1  0  0  0  0
 12 14  1  0  0  0  0
 12 26  1  0  0  0  0
 13 15  2  0  0  0  0
 13 27  1  0  0  0  0
 14 16  2  0  0  0  0
 14 28  1  0  0  0  0
 15 16  1  0  0  0  0
 15 29  1  0  0  0  0
 16 30  1  0  0  0  0
M  END
> <PUBCHEM_COMPOUND_CID>
17395793

> <PUBCHEM_COMPOUND_CANONICALIZED>
1

> <PUBCHEM_CACTVS_COMPLEXITY>
280

> <PUBCHEM_CACTVS_HBOND_ACCEPTOR>
2

> <PUBCHEM_CACTVS_HBOND_DONOR>
1

> <PUBCHEM_CACTVS_ROTATABLE_BOND>
3

> <PUBCHEM_CACTVS_SUBSKEYS>
AAADceBzIAAAAAAAAAAAAAAAAAAAAAAAAAAwQAAAAAAAAAABAAAAHgAQAAAADADBmAQwAINAAACIAiFSEACCAAAgAAAIiACIAIgIYCKAkTCUIAAgkACIiAcQgIAOAAAAAAAAAAAAAAAAAAAAAAAAAAAAAA==

> <PUBCHEM_IUPAC_OPENEYE_NAME>
2-(4-phenyl-3,6-dihydro-2H-pyridin-1-yl)acetamide

> <PUBCHEM_IUPAC_CAS_NAME>
2-(4-phenyl-3,6-dihydro-2H-pyridin-1-yl)acetamide

> <PUBCHEM_IUPAC_NAME>
2-(4-phenyl-3,6-dihydro-2H-pyridin-1-yl)acetamide

> <PUBCHEM_IUPAC_SYSTEMATIC_NAME>
2-(4-phenyl-3,6-dihydro-2H-pyridin-1-yl)ethanamide

> <PUBCHEM_IUPAC_TRADITIONAL_NAME>
2-(4-phenyl-3,6-dihydro-2H-pyridin-1-yl)acetamide

> <PUBCHEM_IUPAC_INCHI>
InChI=1S/C13H16N2O/c14-13(16)10-15-8-6-12(7-9-15)11-4-2-1-3-5-11/h1-6H,7-10H2,(H2,14,16)

> <PUBCHEM_IUPAC_INCHIKEY>
AFLLVHVIFBZUPS-UHFFFAOYSA-N

> <PUBCHEM_XLOGP3>
1.7

> <PUBCHEM_EXACT_MASS>
216.126263

> <PUBCHEM_MOLECULAR_FORMULA>
C13H16N2O

> <PUBCHEM_MOLECULAR_WEIGHT>
216.27894

> <PUBCHEM_OPENEYE_CAN_SMILES>
C1CN(CC=C1C2=CC=CC=C2)CC(=O)N

> <PUBCHEM_OPENEYE_ISO_SMILES>
C1CN(CC=C1C2=CC=CC=C2)CC(=O)N

> <PUBCHEM_CACTVS_TPSA>
46.3

> <PUBCHEM_MONOISOTOPIC_WEIGHT>
216.126263

> <PUBCHEM_TOTAL_CHARGE>
0

> <PUBCHEM_HEAVY_ATOM_COUNT>
16

> <PUBCHEM_ATOM_DEF_STEREO_COUNT>
0

> <PUBCHEM_ATOM_UDEF_STEREO_COUNT>
0

> <PUBCHEM_BOND_DEF_STEREO_COUNT>
0

> <PUBCHEM_BOND_UDEF_STEREO_COUNT>
0

> <PUBCHEM_ISOTOPIC_ATOM_COUNT>
0

> <PUBCHEM_COMPONENT_COUNT>
1

> <PUBCHEM_CACTVS_TAUTO_COUNT>
3

> <PUBCHEM_COORDINATE_TYPE>
1
5
255

> <PUBCHEM_BONDANNOTATIONS>
10  12  8
10  13  8
12  14  8
13  15  8
14  16  8
15  16  8

$$$$

