17396249
  -OEChem-06241222552D

 48 51  0     1  0  0  0  0  0999 V2000
    4.6551    2.3784    0.0000 O   0  0  0  0  0  0  0  0  0  0  0  0
    7.1962    1.7906    0.0000 O   0  0  0  0  0  0  0  0  0  0  0  0
    2.8660   -0.7094    0.0000 O   0  0  0  0  0  0  0  0  0  0  0  0
    2.8660   -2.7094    0.0000 O   0  0  0  0  0  0  0  0  0  0  0  0
    6.3301    0.2906    0.0000 N   0  0  0  0  0  0  0  0  0  0  0  0
    7.1962   -1.2094    0.0000 N   0  0  0  0  0  0  0  0  0  0  0  0
    5.4641    1.7906    0.0000 C   0  0  3  0  0  0  0  0  0  0  0  0
    5.4641    0.7906    0.0000 C   0  0  0  0  0  0  0  0  0  0  0  0
    6.2731    2.3784    0.0000 C   0  0  0  0  0  0  0  0  0  0  0  0
    6.3301   -0.7094    0.0000 C   0  0  3  0  0  0  0  0  0  0  0  0
    5.9641    3.3294    0.0000 C   0  0  0  0  0  0  0  0  0  0  0  0
    4.9641    3.3294    0.0000 C   0  0  0  0  0  0  0  0  0  0  0  0
    7.1962    0.7906    0.0000 C   0  0  0  0  0  0  0  0  0  0  0  0
    5.4641   -1.2094    0.0000 C   0  0  0  0  0  0  0  0  0  0  0  0
    8.0622    0.2906    0.0000 C   0  0  0  0  0  0  0  0  0  0  0  0
    8.0622   -0.7094    0.0000 C   0  0  0  0  0  0  0  0  0  0  0  0
    4.5981   -0.7094    0.0000 C   0  0  0  0  0  0  0  0  0  0  0  0
    5.4641   -2.2094    0.0000 C   0  0  0  0  0  0  0  0  0  0  0  0
    8.9561    0.8252    0.0000 C   0  0  0  0  0  0  0  0  0  0  0  0
    8.9561   -1.2441    0.0000 C   0  0  0  0  0  0  0  0  0  0  0  0
    3.7320   -1.2094    0.0000 C   0  0  0  0  0  0  0  0  0  0  0  0
    9.8622    0.3114    0.0000 C   0  0  0  0  0  0  0  0  0  0  0  0
    9.8622   -0.7302    0.0000 C   0  0  0  0  0  0  0  0  0  0  0  0
    4.5981   -2.7094    0.0000 C   0  0  0  0  0  0  0  0  0  0  0  0
    3.7320   -2.2094    0.0000 C   0  0  0  0  0  0  0  0  0  0  0  0
    2.0000   -1.2094    0.0000 C   0  0  0  0  0  0  0  0  0  0  0  0
    4.9117    1.5091    0.0000 H   0  0  0  0  0  0  0  0  0  0  0  0
    4.8535    0.8982    0.0000 H   0  0  0  0  0  0  0  0  0  0  0  0
    5.2520    0.2080    0.0000 H   0  0  0  0  0  0  0  0  0  0  0  0
    6.5831    1.8414    0.0000 H   0  0  0  0  0  0  0  0  0  0  0  0
    6.8395    2.6305    0.0000 H   0  0  0  0  0  0  0  0  0  0  0  0
    5.7932   -0.3994    0.0000 H   0  0  0  0  0  0  0  0  0  0  0  0
    6.5706    3.4583    0.0000 H   0  0  0  0  0  0  0  0  0  0  0  0
    5.8993    3.9460    0.0000 H   0  0  0  0  0  0  0  0  0  0  0  0
    5.0289    3.9460    0.0000 H   0  0  0  0  0  0  0  0  0  0  0  0
    4.3576    3.4583    0.0000 H   0  0  0  0  0  0  0  0  0  0  0  0
    7.1962   -1.8294    0.0000 H   0  0  0  0  0  0  0  0  0  0  0  0
    4.5981   -0.0894    0.0000 H   0  0  0  0  0  0  0  0  0  0  0  0
    6.0010   -2.5194    0.0000 H   0  0  0  0  0  0  0  0  0  0  0  0
    8.9490    1.4452    0.0000 H   0  0  0  0  0  0  0  0  0  0  0  0
    8.9490   -1.8640    0.0000 H   0  0  0  0  0  0  0  0  0  0  0  0
   10.3979    0.6235    0.0000 H   0  0  0  0  0  0  0  0  0  0  0  0
   10.3979   -1.0423    0.0000 H   0  0  0  0  0  0  0  0  0  0  0  0
    4.5981   -3.3294    0.0000 H   0  0  0  0  0  0  0  0  0  0  0  0
    2.8660   -3.3294    0.0000 H   0  0  0  0  0  0  0  0  0  0  0  0
    1.6900   -0.6725    0.0000 H   0  0  0  0  0  0  0  0  0  0  0  0
    1.4631   -1.5194    0.0000 H   0  0  0  0  0  0  0  0  0  0  0  0
    2.3100   -1.7464    0.0000 H   0  0  0  0  0  0  0  0  0  0  0  0
  1  7  1  0  0  0  0
  1 12  1  0  0  0  0
  2 13  2  0  0  0  0
  3 21  1  0  0  0  0
  3 26  1  0  0  0  0
  4 25  1  0  0  0  0
  4 45  1  0  0  0  0
  5  8  1  0  0  0  0
  5 10  1  0  0  0  0
  5 13  1  0  0  0  0
  6 10  1  0  0  0  0
  6 16  1  0  0  0  0
  6 37  1  0  0  0  0
  7  8  1  0  0  0  0
  7  9  1  0  0  0  0
  7 27  1  0  0  0  0
  8 28  1  0  0  0  0
  8 29  1  0  0  0  0
  9 11  1  0  0  0  0
  9 30  1  0  0  0  0
  9 31  1  0  0  0  0
 10 14  1  0  0  0  0
 10 32  1  0  0  0  0
 11 12  1  0  0  0  0
 11 33  1  0  0  0  0
 11 34  1  0  0  0  0
 12 35  1  0  0  0  0
 12 36  1  0  0  0  0
 13 15  1  0  0  0  0
 14 17  2  0  0  0  0
 14 18  1  0  0  0  0
 15 16  1  0  0  0  0
 15 19  2  0  0  0  0
 16 20  2  0  0  0  0
 17 21  1  0  0  0  0
 17 38  1  0  0  0  0
 18 24  2  0  0  0  0
 18 39  1  0  0  0  0
 19 22  1  0  0  0  0
 19 40  1  0  0  0  0
 20 23  1  0  0  0  0
 20 41  1  0  0  0  0
 21 25  2  0  0  0  0
 22 23  2  0  0  0  0
 22 42  1  0  0  0  0
 23 43  1  0  0  0  0
 24 25  1  0  0  0  0
 24 44  1  0  0  0  0
 26 46  1  0  0  0  0
 26 47  1  0  0  0  0
 26 48  1  0  0  0  0
M  END
> <PUBCHEM_COMPOUND_CID>
17396249

> <PUBCHEM_COMPOUND_CANONICALIZED>
1

> <PUBCHEM_CACTVS_COMPLEXITY>
502

> <PUBCHEM_CACTVS_HBOND_ACCEPTOR>
5

> <PUBCHEM_CACTVS_HBOND_DONOR>
2

> <PUBCHEM_CACTVS_ROTATABLE_BOND>
4

> <PUBCHEM_CACTVS_SUBSKEYS>
AAADceB7OAAAAAAAAAAAAAAAAAAAASAAAAA8YIAAAAAAAACxQAAAHgAQCAAADBzhmAYzxoPABgCIAiVSUACCCAAlIgAIiIEO7MiPJjrG9ZuHcats1xPb+ee42BKOIAABAAACQABAAAIAAASAAAAAAAAAAA==

> <PUBCHEM_IUPAC_OPENEYE_NAME>
2-(4-hydroxy-3-methoxy-phenyl)-3-(tetrahydrofuran-2-ylmethyl)-1,2-dihydroquinazolin-4-one

> <PUBCHEM_IUPAC_CAS_NAME>
2-(4-hydroxy-3-methoxyphenyl)-3-(2-oxolanylmethyl)-1,2-dihydroquinazolin-4-one

> <PUBCHEM_IUPAC_NAME>
2-(4-hydroxy-3-methoxyphenyl)-3-(oxolan-2-ylmethyl)-1,2-dihydroquinazolin-4-one

> <PUBCHEM_IUPAC_SYSTEMATIC_NAME>
2-(3-methoxy-4-oxidanyl-phenyl)-3-(oxolan-2-ylmethyl)-1,2-dihydroquinazolin-4-one

> <PUBCHEM_IUPAC_TRADITIONAL_NAME>
2-(4-hydroxy-3-methoxy-phenyl)-3-(tetrahydrofurfuryl)-1,2-dihydroquinazolin-4-one

> <PUBCHEM_IUPAC_INCHI>
InChI=1S/C20H22N2O4/c1-25-18-11-13(8-9-17(18)23)19-21-16-7-3-2-6-15(16)20(24)22(19)12-14-5-4-10-26-14/h2-3,6-9,11,14,19,21,23H,4-5,10,12H2,1H3

> <PUBCHEM_IUPAC_INCHIKEY>
MDHPSKPVHQLLCT-UHFFFAOYSA-N

> <PUBCHEM_XLOGP3_AA>
2.8

> <PUBCHEM_EXACT_MASS>
354.157957

> <PUBCHEM_MOLECULAR_FORMULA>
C20H22N2O4

> <PUBCHEM_MOLECULAR_WEIGHT>
354.39968

> <PUBCHEM_OPENEYE_CAN_SMILES>
COC1=C(C=CC(=C1)C2NC3=CC=CC=C3C(=O)N2CC4CCCO4)O

> <PUBCHEM_OPENEYE_ISO_SMILES>
COC1=C(C=CC(=C1)C2NC3=CC=CC=C3C(=O)N2CC4CCCO4)O

> <PUBCHEM_CACTVS_TPSA>
71

> <PUBCHEM_MONOISOTOPIC_WEIGHT>
354.157957

> <PUBCHEM_TOTAL_CHARGE>
0

> <PUBCHEM_HEAVY_ATOM_COUNT>
26

> <PUBCHEM_ATOM_DEF_STEREO_COUNT>
0

> <PUBCHEM_ATOM_UDEF_STEREO_COUNT>
2

> <PUBCHEM_BOND_DEF_STEREO_COUNT>
0

> <PUBCHEM_BOND_UDEF_STEREO_COUNT>
0

> <PUBCHEM_ISOTOPIC_ATOM_COUNT>
0

> <PUBCHEM_COMPONENT_COUNT>
1

> <PUBCHEM_CACTVS_TAUTO_COUNT>
12

> <PUBCHEM_COORDINATE_TYPE>
1
5
255

> <PUBCHEM_BONDANNOTATIONS>
10  14  3
14  17  8
14  18  8
15  16  8
15  19  8
16  20  8
17  21  8
18  24  8
19  22  8
20  23  8
21  25  8
22  23  8
24  25  8
7  8  3

$$$$

