3890
  -OEChem-06251223442D

 71 72  0     1  0  0  0  0  0999 V2000
    6.8521   -2.7503    0.0000 O   0  0  0  0  0  0  0  0  0  0  0  0
    7.2200    0.7505    0.0000 O   0  0  0  0  0  0  0  0  0  0  0  0
    3.1325   -2.8655    0.0000 O   0  0  0  0  0  0  0  0  0  0  0  0
    3.6942    6.2182    0.0000 O   0  0  0  0  0  0  0  0  0  0  0  0
    2.5352    4.9310    0.0000 O   0  0  0  0  0  0  0  0  0  0  0  0
    5.7306   -1.3655    0.0000 C   0  0  3  0  0  0  0  0  0  0  0  0
    5.8351   -0.3709    0.0000 C   0  0  3  0  0  0  0  0  0  0  0  0
    6.6442   -1.7722    0.0000 C   0  0  3  0  0  0  0  0  0  0  0  0
    6.8133   -0.1630    0.0000 C   0  0  3  0  0  0  0  0  0  0  0  0
    7.3133   -1.0290    0.0000 C   0  0  0  0  0  0  0  0  0  0  0  0
    4.8646   -1.8655    0.0000 C   0  0  0  0  0  0  0  0  0  0  0  0
    5.0920    0.2982    0.0000 C   0  0  0  0  0  0  0  0  0  0  0  0
    4.8646   -2.8655    0.0000 C   0  0  0  0  0  0  0  0  0  0  0  0
    3.9986   -3.3655    0.0000 C   0  0  3  0  0  0  0  0  0  0  0  0
    5.2999    1.2763    0.0000 C   0  0  0  0  0  0  0  0  0  0  0  0
    3.9986   -4.3655    0.0000 C   0  0  0  0  0  0  0  0  0  0  0  0
    4.5568    1.9455    0.0000 C   0  0  0  0  0  0  0  0  0  0  0  0
    3.1325   -4.8655    0.0000 C   0  0  0  0  0  0  0  0  0  0  0  0
    4.7647    2.9236    0.0000 C   0  0  0  0  0  0  0  0  0  0  0  0
    3.1325   -5.8655    0.0000 C   0  0  0  0  0  0  0  0  0  0  0  0
    4.0215    3.5928    0.0000 C   0  0  0  0  0  0  0  0  0  0  0  0
    4.2294    4.5709    0.0000 C   0  0  0  0  0  0  0  0  0  0  0  0
    3.9986   -6.3655    0.0000 C   0  0  0  0  0  0  0  0  0  0  0  0
    2.2665   -6.3655    0.0000 C   0  0  0  0  0  0  0  0  0  0  0  0
    3.9986   -7.3655    0.0000 C   0  0  0  0  0  0  0  0  0  0  0  0
    2.2665   -7.3655    0.0000 C   0  0  0  0  0  0  0  0  0  0  0  0
    3.4863    5.2400    0.0000 C   0  0  0  0  0  0  0  0  0  0  0  0
    3.1325   -7.8655    0.0000 C   0  0  0  0  0  0  0  0  0  0  0  0
    2.9511    6.8873    0.0000 C   0  0  0  0  0  0  0  0  0  0  0  0
    3.1590    7.8655    0.0000 C   0  0  0  0  0  0  0  0  0  0  0  0
    2.0000    6.5783    0.0000 C   0  0  0  0  0  0  0  0  0  0  0  0
    5.2106   -1.0278    0.0000 H   0  0  0  0  0  0  0  0  0  0  0  0
    5.9956    0.2279    0.0000 H   0  0  0  0  0  0  0  0  0  0  0  0
    6.1623   -2.1624    0.0000 H   0  0  0  0  0  0  0  0  0  0  0  0
    7.4324   -0.1306    0.0000 H   0  0  0  0  0  0  0  0  0  0  0  0
    7.7281   -1.4898    0.0000 H   0  0  0  0  0  0  0  0  0  0  0  0
    7.8149   -0.6646    0.0000 H   0  0  0  0  0  0  0  0  0  0  0  0
    4.6525   -1.2828    0.0000 H   0  0  0  0  0  0  0  0  0  0  0  0
    4.2540   -1.9731    0.0000 H   0  0  0  0  0  0  0  0  0  0  0  0
    4.5171    0.5305    0.0000 H   0  0  0  0  0  0  0  0  0  0  0  0
    4.7634   -0.2276    0.0000 H   0  0  0  0  0  0  0  0  0  0  0  0
    5.0766   -3.4481    0.0000 H   0  0  0  0  0  0  0  0  0  0  0  0
    5.4752   -2.7578    0.0000 H   0  0  0  0  0  0  0  0  0  0  0  0
    7.4417   -2.9419    0.0000 H   0  0  0  0  0  0  0  0  0  0  0  0
    7.8366    0.8153    0.0000 H   0  0  0  0  0  0  0  0  0  0  0  0
    3.9986   -2.7455    0.0000 H   0  0  0  0  0  0  0  0  0  0  0  0
    5.8896    1.4679    0.0000 H   0  0  0  0  0  0  0  0  0  0  0  0
    4.2106   -4.9481    0.0000 H   0  0  0  0  0  0  0  0  0  0  0  0
    4.6091   -4.2578    0.0000 H   0  0  0  0  0  0  0  0  0  0  0  0
    3.9671    1.7539    0.0000 H   0  0  0  0  0  0  0  0  0  0  0  0
    2.9205   -4.2828    0.0000 H   0  0  0  0  0  0  0  0  0  0  0  0
    2.5220   -4.9731    0.0000 H   0  0  0  0  0  0  0  0  0  0  0  0
    3.1325   -2.2455    0.0000 H   0  0  0  0  0  0  0  0  0  0  0  0
    5.3395    2.6914    0.0000 H   0  0  0  0  0  0  0  0  0  0  0  0
    5.0932    3.4494    0.0000 H   0  0  0  0  0  0  0  0  0  0  0  0
    3.4467    3.8250    0.0000 H   0  0  0  0  0  0  0  0  0  0  0  0
    3.6930    3.0670    0.0000 H   0  0  0  0  0  0  0  0  0  0  0  0
    4.8043    4.3386    0.0000 H   0  0  0  0  0  0  0  0  0  0  0  0
    4.5580    5.0967    0.0000 H   0  0  0  0  0  0  0  0  0  0  0  0
    4.5355   -6.0555    0.0000 H   0  0  0  0  0  0  0  0  0  0  0  0
    1.7296   -6.0555    0.0000 H   0  0  0  0  0  0  0  0  0  0  0  0
    4.5355   -7.6755    0.0000 H   0  0  0  0  0  0  0  0  0  0  0  0
    1.7296   -7.6755    0.0000 H   0  0  0  0  0  0  0  0  0  0  0  0
    3.1325   -8.4855    0.0000 H   0  0  0  0  0  0  0  0  0  0  0  0
    3.5407    7.0789    0.0000 H   0  0  0  0  0  0  0  0  0  0  0  0
    1.8084    7.1680    0.0000 H   0  0  0  0  0  0  0  0  0  0  0  0
    1.4103    6.3867    0.0000 H   0  0  0  0  0  0  0  0  0  0  0  0
    2.1916    5.9886    0.0000 H   0  0  0  0  0  0  0  0  0  0  0  0
    3.7654    7.7366    0.0000 H   0  0  0  0  0  0  0  0  0  0  0  0
    3.2879    8.4719    0.0000 H   0  0  0  0  0  0  0  0  0  0  0  0
    2.5525    7.9944    0.0000 H   0  0  0  0  0  0  0  0  0  0  0  0
  1  8  1  0  0  0  0
  1 44  1  0  0  0  0
  2  9  1  0  0  0  0
  2 45  1  0  0  0  0
  3 14  1  0  0  0  0
  3 53  1  0  0  0  0
  4 27  1  0  0  0  0
  4 29  1  0  0  0  0
  5 27  2  0  0  0  0
  6  7  1  0  0  0  0
  6  8  1  0  0  0  0
  6 11  1  0  0  0  0
  6 32  1  0  0  0  0
  7  9  1  0  0  0  0
  7 12  1  0  0  0  0
  7 33  1  0  0  0  0
  8 10  1  0  0  0  0
  8 34  1  0  0  0  0
  9 10  1  0  0  0  0
  9 35  1  0  0  0  0
 10 36  1  0  0  0  0
 10 37  1  0  0  0  0
 11 13  1  0  0  0  0
 11 38  1  0  0  0  0
 11 39  1  0  0  0  0
 12 15  1  0  0  0  0
 12 40  1  0  0  0  0
 12 41  1  0  0  0  0
 13 14  1  0  0  0  0
 13 42  1  0  0  0  0
 13 43  1  0  0  0  0
 14 16  1  0  0  0  0
 14 46  1  0  0  0  0
 15 17  2  3  0  0  0
 15 47  1  0  0  0  0
 16 18  1  0  0  0  0
 16 48  1  0  0  0  0
 16 49  1  0  0  0  0
 17 19  1  0  0  0  0
 17 50  1  0  0  0  0
 18 20  1  0  0  0  0
 18 51  1  0  0  0  0
 18 52  1  0  0  0  0
 19 21  1  0  0  0  0
 19 54  1  0  0  0  0
 19 55  1  0  0  0  0
 20 23  2  0  0  0  0
 20 24  1  0  0  0  0
 21 22  1  0  0  0  0
 21 56  1  0  0  0  0
 21 57  1  0  0  0  0
 22 27  1  0  0  0  0
 22 58  1  0  0  0  0
 22 59  1  0  0  0  0
 23 25  1  0  0  0  0
 23 60  1  0  0  0  0
 24 26  2  0  0  0  0
 24 61  1  0  0  0  0
 25 28  2  0  0  0  0
 25 62  1  0  0  0  0
 26 28  1  0  0  0  0
 26 63  1  0  0  0  0
 28 64  1  0  0  0  0
 29 30  1  0  0  0  0
 29 31  1  0  0  0  0
 29 65  1  0  0  0  0
 30 69  1  0  0  0  0
 30 70  1  0  0  0  0
 30 71  1  0  0  0  0
 31 66  1  0  0  0  0
 31 67  1  0  0  0  0
 31 68  1  0  0  0  0
M  END
> <PUBCHEM_COMPOUND_CID>
3890

> <PUBCHEM_COMPOUND_CANONICALIZED>
1

> <PUBCHEM_CACTVS_COMPLEXITY>
526

> <PUBCHEM_CACTVS_HBOND_ACCEPTOR>
5

> <PUBCHEM_CACTVS_HBOND_DONOR>
3

> <PUBCHEM_CACTVS_ROTATABLE_BOND>
14

> <PUBCHEM_CACTVS_SUBSKEYS>
AAADcfB4OAAAAAAAAAAAAAAAAAAAAYAAAAAwAAAAAAAAAAABAAAAGgAACAAADRSgmAIyCIAABgCIAiDSCAACAAAgAAAIiAEAAIgIMDKAERCCYAAlgAAIiAfI4PQOgAAAAAAAAAAAAAAAAAAAAIQADAAAAA==

> <PUBCHEM_IUPAC_OPENEYE_NAME>
isopropyl 7-[3,5-dihydroxy-2-(3-hydroxy-5-phenyl-pentyl)cyclopentyl]hept-5-enoate

> <PUBCHEM_IUPAC_CAS_NAME>
7-[3,5-dihydroxy-2-(3-hydroxy-5-phenylpentyl)cyclopentyl]-5-heptenoic acid propan-2-yl ester

> <PUBCHEM_IUPAC_NAME>
propan-2-yl 7-[3,5-dihydroxy-2-(3-hydroxy-5-phenylpentyl)cyclopentyl]hept-5-enoate

> <PUBCHEM_IUPAC_SYSTEMATIC_NAME>
propan-2-yl 7-[3,5-bis(oxidanyl)-2-(3-oxidanyl-5-phenyl-pentyl)cyclopentyl]hept-5-enoate

> <PUBCHEM_IUPAC_TRADITIONAL_NAME>
7-[3,5-dihydroxy-2-(3-hydroxy-5-phenyl-pentyl)cyclopentyl]hept-5-enoic acid isopropyl ester

> <PUBCHEM_IUPAC_INCHI>
InChI=1S/C26H40O5/c1-19(2)31-26(30)13-9-4-3-8-12-22-23(25(29)18-24(22)28)17-16-21(27)15-14-20-10-6-5-7-11-20/h3,5-8,10-11,19,21-25,27-29H,4,9,12-18H2,1-2H3

> <PUBCHEM_IUPAC_INCHIKEY>
GGXICVAJURFBLW-UHFFFAOYSA-N

> <PUBCHEM_XLOGP3_AA>
4.3

> <PUBCHEM_EXACT_MASS>
432.287574

> <PUBCHEM_MOLECULAR_FORMULA>
C26H40O5

> <PUBCHEM_MOLECULAR_WEIGHT>
432.5928

> <PUBCHEM_OPENEYE_CAN_SMILES>
CC(C)OC(=O)CCCC=CCC1C(CC(C1CCC(CCC2=CC=CC=C2)O)O)O

> <PUBCHEM_OPENEYE_ISO_SMILES>
CC(C)OC(=O)CCCC=CCC1C(CC(C1CCC(CCC2=CC=CC=C2)O)O)O

> <PUBCHEM_CACTVS_TPSA>
87

> <PUBCHEM_MONOISOTOPIC_WEIGHT>
432.287574

> <PUBCHEM_TOTAL_CHARGE>
0

> <PUBCHEM_HEAVY_ATOM_COUNT>
31

> <PUBCHEM_ATOM_DEF_STEREO_COUNT>
0

> <PUBCHEM_ATOM_UDEF_STEREO_COUNT>
5

> <PUBCHEM_BOND_DEF_STEREO_COUNT>
0

> <PUBCHEM_BOND_UDEF_STEREO_COUNT>
1

> <PUBCHEM_ISOTOPIC_ATOM_COUNT>
0

> <PUBCHEM_COMPONENT_COUNT>
1

> <PUBCHEM_CACTVS_TAUTO_COUNT>
1

> <PUBCHEM_COORDINATE_TYPE>
1
5
255

> <PUBCHEM_BONDANNOTATIONS>
8  1  3
15  17  1
9  2  3
20  23  8
20  24  8
23  25  8
24  26  8
25  28  8
26  28  8
14  3  3
6  11  3
7  12  3

$$$$

