17396446
  -OEChem-06241222562D

 56 58  0     0  0  0  0  0  0999 V2000
    6.5981   -1.9239    0.0000 O   0  0  0  0  0  0  0  0  0  0  0  0
    4.8660   -3.9239    0.0000 N   0  0  0  0  0  0  0  0  0  0  0  0
    4.8660   -1.9239    0.0000 N   0  0  0  0  0  0  0  0  0  0  0  0
    5.7320    2.5761    0.0000 N   0  0  0  0  0  0  0  0  0  0  0  0
    4.9230    3.1639    0.0000 N   0  0  0  0  0  0  0  0  0  0  0  0
    4.0000   -3.4239    0.0000 C   0  0  0  0  0  0  0  0  0  0  0  0
    3.5000   -2.5579    0.0000 C   0  0  0  0  0  0  0  0  0  0  0  0
    3.5000   -4.2900    0.0000 C   0  0  0  0  0  0  0  0  0  0  0  0
    2.5000   -2.5579    0.0000 C   0  0  0  0  0  0  0  0  0  0  0  0
    2.5000   -4.2900    0.0000 C   0  0  0  0  0  0  0  0  0  0  0  0
    2.0000   -3.4239    0.0000 C   0  0  0  0  0  0  0  0  0  0  0  0
    4.8660   -2.9239    0.0000 C   0  0  0  0  0  0  0  0  0  0  0  0
    4.8660   -4.9239    0.0000 C   0  0  0  0  0  0  0  0  0  0  0  0
    5.7320   -3.4239    0.0000 C   0  0  0  0  0  0  0  0  0  0  0  0
    5.7320   -1.4239    0.0000 C   0  0  0  0  0  0  0  0  0  0  0  0
    5.7320   -0.4239    0.0000 C   0  0  0  0  0  0  0  0  0  0  0  0
    6.5981    0.0761    0.0000 C   0  0  0  0  0  0  0  0  0  0  0  0
    4.8660    0.0761    0.0000 C   0  0  0  0  0  0  0  0  0  0  0  0
    5.7320    1.5761    0.0000 C   0  0  0  0  0  0  0  0  0  0  0  0
    6.5981    1.0761    0.0000 C   0  0  0  0  0  0  0  0  0  0  0  0
    4.8660    1.0761    0.0000 C   0  0  0  0  0  0  0  0  0  0  0  0
    6.5411    3.1639    0.0000 C   0  0  0  0  0  0  0  0  0  0  0  0
    6.2320    4.1149    0.0000 C   0  0  0  0  0  0  0  0  0  0  0  0
    5.2320    4.1149    0.0000 C   0  0  0  0  0  0  0  0  0  0  0  0
    7.4921    2.8548    0.0000 C   0  0  0  0  0  0  0  0  0  0  0  0
    4.6443    4.9239    0.0000 C   0  0  0  0  0  0  0  0  0  0  0  0
    4.0826   -2.3458    0.0000 H   0  0  0  0  0  0  0  0  0  0  0  0
    3.3923   -1.9473    0.0000 H   0  0  0  0  0  0  0  0  0  0  0  0
    3.3923   -4.9005    0.0000 H   0  0  0  0  0  0  0  0  0  0  0  0
    4.0826   -4.5020    0.0000 H   0  0  0  0  0  0  0  0  0  0  0  0
    2.6077   -1.9473    0.0000 H   0  0  0  0  0  0  0  0  0  0  0  0
    1.9174   -2.3458    0.0000 H   0  0  0  0  0  0  0  0  0  0  0  0
    1.9174   -4.5020    0.0000 H   0  0  0  0  0  0  0  0  0  0  0  0
    2.6077   -4.9005    0.0000 H   0  0  0  0  0  0  0  0  0  0  0  0
    1.5250   -3.0254    0.0000 H   0  0  0  0  0  0  0  0  0  0  0  0
    1.5250   -3.8225    0.0000 H   0  0  0  0  0  0  0  0  0  0  0  0
    5.0781   -3.5065    0.0000 H   0  0  0  0  0  0  0  0  0  0  0  0
    5.4766   -2.8163    0.0000 H   0  0  0  0  0  0  0  0  0  0  0  0
    4.2460   -4.9239    0.0000 H   0  0  0  0  0  0  0  0  0  0  0  0
    4.8660   -5.5439    0.0000 H   0  0  0  0  0  0  0  0  0  0  0  0
    5.4860   -4.9239    0.0000 H   0  0  0  0  0  0  0  0  0  0  0  0
    6.0420   -3.9609    0.0000 H   0  0  0  0  0  0  0  0  0  0  0  0
    6.2690   -3.1139    0.0000 H   0  0  0  0  0  0  0  0  0  0  0  0
    5.4220   -2.8870    0.0000 H   0  0  0  0  0  0  0  0  0  0  0  0
    4.3291   -1.6139    0.0000 H   0  0  0  0  0  0  0  0  0  0  0  0
    7.1350   -0.2339    0.0000 H   0  0  0  0  0  0  0  0  0  0  0  0
    4.3291   -0.2339    0.0000 H   0  0  0  0  0  0  0  0  0  0  0  0
    7.1350    1.3861    0.0000 H   0  0  0  0  0  0  0  0  0  0  0  0
    4.3291    1.3861    0.0000 H   0  0  0  0  0  0  0  0  0  0  0  0
    6.5965    4.6165    0.0000 H   0  0  0  0  0  0  0  0  0  0  0  0
    7.3005    2.2652    0.0000 H   0  0  0  0  0  0  0  0  0  0  0  0
    8.0818    2.6632    0.0000 H   0  0  0  0  0  0  0  0  0  0  0  0
    7.6837    3.4445    0.0000 H   0  0  0  0  0  0  0  0  0  0  0  0
    5.1459    5.2884    0.0000 H   0  0  0  0  0  0  0  0  0  0  0  0
    4.2798    5.4255    0.0000 H   0  0  0  0  0  0  0  0  0  0  0  0
    4.1427    4.5595    0.0000 H   0  0  0  0  0  0  0  0  0  0  0  0
  1 15  2  0  0  0  0
  2  6  1  0  0  0  0
  2 13  1  0  0  0  0
  2 14  1  0  0  0  0
  3 12  1  0  0  0  0
  3 15  1  0  0  0  0
  3 45  1  0  0  0  0
  4  5  1  0  0  0  0
  4 19  1  0  0  0  0
  4 22  1  0  0  0  0
  5 24  2  0  0  0  0
  6  7  1  0  0  0  0
  6  8  1  0  0  0  0
  6 12  1  0  0  0  0
  7  9  1  0  0  0  0
  7 27  1  0  0  0  0
  7 28  1  0  0  0  0
  8 10  1  0  0  0  0
  8 29  1  0  0  0  0
  8 30  1  0  0  0  0
  9 11  1  0  0  0  0
  9 31  1  0  0  0  0
  9 32  1  0  0  0  0
 10 11  1  0  0  0  0
 10 33  1  0  0  0  0
 10 34  1  0  0  0  0
 11 35  1  0  0  0  0
 11 36  1  0  0  0  0
 12 37  1  0  0  0  0
 12 38  1  0  0  0  0
 13 39  1  0  0  0  0
 13 40  1  0  0  0  0
 13 41  1  0  0  0  0
 14 42  1  0  0  0  0
 14 43  1  0  0  0  0
 14 44  1  0  0  0  0
 15 16  1  0  0  0  0
 16 17  2  0  0  0  0
 16 18  1  0  0  0  0
 17 20  1  0  0  0  0
 17 46  1  0  0  0  0
 18 21  2  0  0  0  0
 18 47  1  0  0  0  0
 19 20  2  0  0  0  0
 19 21  1  0  0  0  0
 20 48  1  0  0  0  0
 21 49  1  0  0  0  0
 22 23  2  0  0  0  0
 22 25  1  0  0  0  0
 23 24  1  0  0  0  0
 23 50  1  0  0  0  0
 24 26  1  0  0  0  0
 25 51  1  0  0  0  0
 25 52  1  0  0  0  0
 25 53  1  0  0  0  0
 26 54  1  0  0  0  0
 26 55  1  0  0  0  0
 26 56  1  0  0  0  0
M  END
> <PUBCHEM_COMPOUND_CID>
17396446

> <PUBCHEM_COMPOUND_CANONICALIZED>
1

> <PUBCHEM_CACTVS_COMPLEXITY>
467

> <PUBCHEM_CACTVS_HBOND_ACCEPTOR>
3

> <PUBCHEM_CACTVS_HBOND_DONOR>
1

> <PUBCHEM_CACTVS_ROTATABLE_BOND>
5

> <PUBCHEM_CACTVS_SUBSKEYS>
AAADceB7oAAAAAAAAAAAAAAAAAAAAWAAAAAwYAAAAAAAAAABwAAAHgAYAAAADIjBngQywJPIAACqAyVyVACSBCAlAgAYmKE4ZNgIYHLA1dGUpQhgjgDIyYcYiQCeCAAAAAAAAAAQAAAAAAAAAAAAAAAAAA==

> <PUBCHEM_IUPAC_OPENEYE_NAME>
N-[[1-(dimethylamino)cyclohexyl]methyl]-4-(3,5-dimethylpyrazol-1-yl)benzamide

> <PUBCHEM_IUPAC_CAS_NAME>
N-[[1-(dimethylamino)cyclohexyl]methyl]-4-(3,5-dimethyl-1-pyrazolyl)benzamide

> <PUBCHEM_IUPAC_NAME>
N-[[1-(dimethylamino)cyclohexyl]methyl]-4-(3,5-dimethylpyrazol-1-yl)benzamide

> <PUBCHEM_IUPAC_SYSTEMATIC_NAME>
N-[[1-(dimethylamino)cyclohexyl]methyl]-4-(3,5-dimethylpyrazol-1-yl)benzamide

> <PUBCHEM_IUPAC_TRADITIONAL_NAME>
N-[[1-(dimethylamino)cyclohexyl]methyl]-4-(3,5-dimethylpyrazol-1-yl)benzamide

> <PUBCHEM_IUPAC_INCHI>
InChI=1S/C21H30N4O/c1-16-14-17(2)25(23-16)19-10-8-18(9-11-19)20(26)22-15-21(24(3)4)12-6-5-7-13-21/h8-11,14H,5-7,12-13,15H2,1-4H3,(H,22,26)

> <PUBCHEM_IUPAC_INCHIKEY>
LGLKGRJKAMWKFB-UHFFFAOYSA-N

> <PUBCHEM_XLOGP3_AA>
3.6

> <PUBCHEM_EXACT_MASS>
354.241962

> <PUBCHEM_MOLECULAR_FORMULA>
C21H30N4O

> <PUBCHEM_MOLECULAR_WEIGHT>
354.4891

> <PUBCHEM_OPENEYE_CAN_SMILES>
CC1=CC(=NN1C2=CC=C(C=C2)C(=O)NCC3(CCCCC3)N(C)C)C

> <PUBCHEM_OPENEYE_ISO_SMILES>
CC1=CC(=NN1C2=CC=C(C=C2)C(=O)NCC3(CCCCC3)N(C)C)C

> <PUBCHEM_CACTVS_TPSA>
50.2

> <PUBCHEM_MONOISOTOPIC_WEIGHT>
354.241962

> <PUBCHEM_TOTAL_CHARGE>
0

> <PUBCHEM_HEAVY_ATOM_COUNT>
26

> <PUBCHEM_ATOM_DEF_STEREO_COUNT>
0

> <PUBCHEM_ATOM_UDEF_STEREO_COUNT>
0

> <PUBCHEM_BOND_DEF_STEREO_COUNT>
0

> <PUBCHEM_BOND_UDEF_STEREO_COUNT>
0

> <PUBCHEM_ISOTOPIC_ATOM_COUNT>
0

> <PUBCHEM_COMPONENT_COUNT>
1

> <PUBCHEM_CACTVS_TAUTO_COUNT>
2

> <PUBCHEM_COORDINATE_TYPE>
1
5
255

> <PUBCHEM_BONDANNOTATIONS>
16  17  8
16  18  8
17  20  8
18  21  8
19  20  8
19  21  8
22  23  8
23  24  8
4  22  8
4  5  8
5  24  8

$$$$

