3531
  -OEChem-06251223282D

 94 96  0     1  0  0  0  0  0999 V2000
    8.3380    2.5558    0.0000 O   0  0  0  0  0  0  0  0  0  0  0  0
    7.9885   -2.4801    0.0000 O   0  0  0  0  0  0  0  0  0  0  0  0
    6.2284    0.5684    0.0000 O   0  0  0  0  0  0  0  0  0  0  0  0
    6.0010   -2.5952    0.0000 O   0  0  0  0  0  0  0  0  0  0  0  0
    4.2690    1.4048    0.0000 O   0  0  0  0  0  0  0  0  0  0  0  0
    2.5369    0.4048    0.0000 O   0  0  0  0  0  0  0  0  0  0  0  0
   11.0205   -1.3035    0.0000 C   0  0  0  0  0  0  0  0  0  0  0  0
    9.3158   -0.2588    0.0000 C   0  0  3  0  0  0  0  0  0  0  0  0
   11.7976   -0.6741    0.0000 C   0  0  3  0  0  0  0  0  0  0  0  0
    9.5746    0.7071    0.0000 C   0  0  3  0  0  0  0  0  0  0  0  0
   11.4392    0.2594    0.0000 C   0  0  0  0  0  0  0  0  0  0  0  0
    8.8380    1.6897    0.0000 C   0  0  0  0  0  0  0  0  0  0  0  0
    9.8334    1.6730    0.0000 C   0  0  0  0  0  0  0  0  0  0  0  0
    9.0569   -1.2247    0.0000 C   0  0  0  0  0  0  0  0  0  0  0  0
    7.7806   -1.5020    0.0000 C   0  0  0  0  0  0  0  0  0  0  0  0
   11.5651   -2.1421    0.0000 C   0  0  0  0  0  0  0  0  0  0  0  0
   10.5665   -2.1945    0.0000 C   0  0  0  0  0  0  0  0  0  0  0  0
    6.9716   -0.1007    0.0000 C   0  0  0  0  0  0  0  0  0  0  0  0
   12.7635   -0.9330    0.0000 C   0  0  0  0  0  0  0  0  0  0  0  0
    6.8671   -1.0952    0.0000 C   0  0  0  0  0  0  0  0  0  0  0  0
   10.7993    1.9318    0.0000 C   0  0  3  0  0  0  0  0  0  0  0  0
    9.7640   -1.9318    0.0000 C   0  0  0  0  0  0  0  0  0  0  0  0
   13.0224   -1.8989    0.0000 C   0  0  0  0  0  0  0  0  0  0  0  0
   11.5064    1.2247    0.0000 C   0  0  0  0  0  0  0  0  0  0  0  0
    6.0010   -1.5952    0.0000 C   0  0  0  0  0  0  0  0  0  0  0  0
   11.0581    2.8978    0.0000 C   0  0  0  0  0  0  0  0  0  0  0  0
    9.5052   -2.8978    0.0000 C   0  0  0  0  0  0  0  0  0  0  0  0
   13.9883   -2.1577    0.0000 C   0  0  0  0  0  0  0  0  0  0  0  0
    5.1350   -1.0952    0.0000 C   0  0  0  0  0  0  0  0  0  0  0  0
   12.4724    1.4836    0.0000 C   0  0  0  0  0  0  0  0  0  0  0  0
   12.0241    3.1566    0.0000 C   0  0  0  0  0  0  0  0  0  0  0  0
   10.3510    3.6049    0.0000 C   0  0  0  0  0  0  0  0  0  0  0  0
   10.2123   -3.6049    0.0000 C   0  0  0  0  0  0  0  0  0  0  0  0
    8.5393   -3.1566    0.0000 C   0  0  0  0  0  0  0  0  0  0  0  0
   14.2471   -3.1236    0.0000 C   0  0  0  0  0  0  0  0  0  0  0  0
   14.6954   -1.4506    0.0000 C   0  0  0  0  0  0  0  0  0  0  0  0
   13.1795    0.7765    0.0000 C   0  0  0  0  0  0  0  0  0  0  0  0
    5.1350   -0.0952    0.0000 C   0  0  0  0  0  0  0  0  0  0  0  0
    4.2690   -1.5952    0.0000 C   0  0  0  0  0  0  0  0  0  0  0  0
    4.2690    0.4048    0.0000 C   0  0  0  0  0  0  0  0  0  0  0  0
    3.4030   -1.0952    0.0000 C   0  0  0  0  0  0  0  0  0  0  0  0
   14.1454    1.0353    0.0000 C   0  0  0  0  0  0  0  0  0  0  0  0
   12.9206   -0.1895    0.0000 C   0  0  0  0  0  0  0  0  0  0  0  0
    3.4030   -0.0952    0.0000 C   0  0  0  0  0  0  0  0  0  0  0  0
   12.2125   -0.2134    0.0000 H   0  0  0  0  0  0  0  0  0  0  0  0
   12.0507    0.3618    0.0000 H   0  0  0  0  0  0  0  0  0  0  0  0
   11.4609    0.8791    0.0000 H   0  0  0  0  0  0  0  0  0  0  0  0
    9.7794    2.2907    0.0000 H   0  0  0  0  0  0  0  0  0  0  0  0
    9.2158    1.7271    0.0000 H   0  0  0  0  0  0  0  0  0  0  0  0
    8.4950   -0.9627    0.0000 H   0  0  0  0  0  0  0  0  0  0  0  0
    8.7013   -1.7326    0.0000 H   0  0  0  0  0  0  0  0  0  0  0  0
   11.0451   -2.4798    0.0000 H   0  0  0  0  0  0  0  0  0  0  0  0
   11.9028   -2.6621    0.0000 H   0  0  0  0  0  0  0  0  0  0  0  0
   12.0851   -1.8044    0.0000 H   0  0  0  0  0  0  0  0  0  0  0  0
   10.0140   -1.9130    0.0000 H   0  0  0  0  0  0  0  0  0  0  0  0
   10.2850   -2.7469    0.0000 H   0  0  0  0  0  0  0  0  0  0  0  0
   11.1189   -2.4759    0.0000 H   0  0  0  0  0  0  0  0  0  0  0  0
   13.3812   -0.8789    0.0000 H   0  0  0  0  0  0  0  0  0  0  0  0
   12.8176   -0.3153    0.0000 H   0  0  0  0  0  0  0  0  0  0  0  0
   10.6389    1.3330    0.0000 H   0  0  0  0  0  0  0  0  0  0  0  0
   10.3629   -1.7714    0.0000 H   0  0  0  0  0  0  0  0  0  0  0  0
   12.5839   -2.3373    0.0000 H   0  0  0  0  0  0  0  0  0  0  0  0
   10.9986    0.8691    0.0000 H   0  0  0  0  0  0  0  0  0  0  0  0
   11.7685    0.6628    0.0000 H   0  0  0  0  0  0  0  0  0  0  0  0
   12.6328    2.0824    0.0000 H   0  0  0  0  0  0  0  0  0  0  0  0
   12.1845    2.5577    0.0000 H   0  0  0  0  0  0  0  0  0  0  0  0
   12.6229    3.3171    0.0000 H   0  0  0  0  0  0  0  0  0  0  0  0
   11.8636    3.7555    0.0000 H   0  0  0  0  0  0  0  0  0  0  0  0
   10.5115    4.2038    0.0000 H   0  0  0  0  0  0  0  0  0  0  0  0
    9.7522    3.4444    0.0000 H   0  0  0  0  0  0  0  0  0  0  0  0
    5.4641   -2.9052    0.0000 H   0  0  0  0  0  0  0  0  0  0  0  0
    9.7739   -4.0433    0.0000 H   0  0  0  0  0  0  0  0  0  0  0  0
   10.6507   -4.0433    0.0000 H   0  0  0  0  0  0  0  0  0  0  0  0
   10.6507   -3.1665    0.0000 H   0  0  0  0  0  0  0  0  0  0  0  0
    8.3788   -2.5577    0.0000 H   0  0  0  0  0  0  0  0  0  0  0  0
    7.9404   -3.3171    0.0000 H   0  0  0  0  0  0  0  0  0  0  0  0
    8.6998   -3.7555    0.0000 H   0  0  0  0  0  0  0  0  0  0  0  0
   13.6482   -3.2841    0.0000 H   0  0  0  0  0  0  0  0  0  0  0  0
   14.4076   -3.7225    0.0000 H   0  0  0  0  0  0  0  0  0  0  0  0
   14.8460   -2.9632    0.0000 H   0  0  0  0  0  0  0  0  0  0  0  0
   15.1338   -1.8890    0.0000 H   0  0  0  0  0  0  0  0  0  0  0  0
   15.1338   -1.0122    0.0000 H   0  0  0  0  0  0  0  0  0  0  0  0
   14.2570   -1.0122    0.0000 H   0  0  0  0  0  0  0  0  0  0  0  0
    5.6720    0.2148    0.0000 H   0  0  0  0  0  0  0  0  0  0  0  0
    4.2690   -2.2152    0.0000 H   0  0  0  0  0  0  0  0  0  0  0  0
    2.8660   -1.4052    0.0000 H   0  0  0  0  0  0  0  0  0  0  0  0
   14.3059    0.4364    0.0000 H   0  0  0  0  0  0  0  0  0  0  0  0
   14.7443    1.1957    0.0000 H   0  0  0  0  0  0  0  0  0  0  0  0
   13.9849    1.6342    0.0000 H   0  0  0  0  0  0  0  0  0  0  0  0
   12.3218   -0.0290    0.0000 H   0  0  0  0  0  0  0  0  0  0  0  0
   12.7602   -0.7883    0.0000 H   0  0  0  0  0  0  0  0  0  0  0  0
   13.5195   -0.3499    0.0000 H   0  0  0  0  0  0  0  0  0  0  0  0
    3.7320    1.7148    0.0000 H   0  0  0  0  0  0  0  0  0  0  0  0
    2.0000    0.0948    0.0000 H   0  0  0  0  0  0  0  0  0  0  0  0
  1 12  2  0  0  0  0
  2 15  2  0  0  0  0
  3 18  2  0  0  0  0
  4 25  1  0  0  0  0
  4 71  1  0  0  0  0
  5 40  1  0  0  0  0
  5 93  1  0  0  0  0
  6 44  1  0  0  0  0
  6 94  1  0  0  0  0
  7  8  1  0  0  0  0
  7  9  1  0  0  0  0
  7 16  1  0  0  0  0
  7 17  1  0  0  0  0
  8 12  1  0  0  0  0
  8 14  1  0  0  0  0
  8 15  1  0  0  0  0
  9 11  1  0  0  0  0
  9 19  1  0  0  0  0
  9 45  1  0  0  0  0
 10 11  1  0  0  0  0
 10 12  1  0  0  0  0
 10 13  1  0  0  0  0
 10 18  1  0  0  0  0
 11 46  1  0  0  0  0
 11 47  1  0  0  0  0
 13 21  1  0  0  0  0
 13 48  1  0  0  0  0
 13 49  1  0  0  0  0
 14 22  1  0  0  0  0
 14 50  1  0  0  0  0
 14 51  1  0  0  0  0
 15 20  1  0  0  0  0
 16 52  1  0  0  0  0
 16 53  1  0  0  0  0
 16 54  1  0  0  0  0
 17 55  1  0  0  0  0
 17 56  1  0  0  0  0
 17 57  1  0  0  0  0
 18 20  1  0  0  0  0
 19 23  1  0  0  0  0
 19 58  1  0  0  0  0
 19 59  1  0  0  0  0
 20 25  2  3  0  0  0
 21 24  1  0  0  0  0
 21 26  1  0  0  0  0
 21 60  1  0  0  0  0
 22 27  2  0  0  0  0
 22 61  1  0  0  0  0
 23 28  2  0  0  0  0
 23 62  1  0  0  0  0
 24 30  1  0  0  0  0
 24 63  1  0  0  0  0
 24 64  1  0  0  0  0
 25 29  1  0  0  0  0
 26 31  1  0  0  0  0
 26 32  2  0  0  0  0
 27 33  1  0  0  0  0
 27 34  1  0  0  0  0
 28 35  1  0  0  0  0
 28 36  1  0  0  0  0
 29 38  2  0  0  0  0
 29 39  1  0  0  0  0
 30 37  2  0  0  0  0
 30 65  1  0  0  0  0
 31 66  1  0  0  0  0
 31 67  1  0  0  0  0
 31 68  1  0  0  0  0
 32 69  1  0  0  0  0
 32 70  1  0  0  0  0
 33 72  1  0  0  0  0
 33 73  1  0  0  0  0
 33 74  1  0  0  0  0
 34 75  1  0  0  0  0
 34 76  1  0  0  0  0
 34 77  1  0  0  0  0
 35 78  1  0  0  0  0
 35 79  1  0  0  0  0
 35 80  1  0  0  0  0
 36 81  1  0  0  0  0
 36 82  1  0  0  0  0
 36 83  1  0  0  0  0
 37 42  1  0  0  0  0
 37 43  1  0  0  0  0
 38 40  1  0  0  0  0
 38 84  1  0  0  0  0
 39 41  2  0  0  0  0
 39 85  1  0  0  0  0
 40 44  2  0  0  0  0
 41 44  1  0  0  0  0
 41 86  1  0  0  0  0
 42 87  1  0  0  0  0
 42 88  1  0  0  0  0
 42 89  1  0  0  0  0
 43 90  1  0  0  0  0
 43 91  1  0  0  0  0
 43 92  1  0  0  0  0
M  END
> <PUBCHEM_COMPOUND_CID>
3531

> <PUBCHEM_COMPOUND_CANONICALIZED>
1

> <PUBCHEM_CACTVS_COMPLEXITY>
1300

> <PUBCHEM_CACTVS_HBOND_ACCEPTOR>
6

> <PUBCHEM_CACTVS_HBOND_DONOR>
3

> <PUBCHEM_CACTVS_ROTATABLE_BOND>
10

> <PUBCHEM_CACTVS_SUBSKEYS>
AAADcfB8OAAAAAAAAAAAAAAAAAAAAAAAAAAwYMAAAAAYAAABAAAAGgAACAAADwSAmAAyBoAAAgCIAqBSAAACAAAgIAAIiAEGiMgJJjKKERKAcAEkwBEJmQfI6vSvoAABAAAAQADAAAYAACCAAAAAAAAAAA==

> <PUBCHEM_IUPAC_OPENEYE_NAME>
3-[(3,4-dihydroxyphenyl)-hydroxy-methylene]-1-(2-isopropenyl-5-methyl-hex-4-enyl)-6,6-dimethyl-5,7-bis(3-methylbut-2-enyl)bicyclo[3.3.1]nonane-2,4,9-trione

> <PUBCHEM_IUPAC_CAS_NAME>
3-[(3,4-dihydroxyphenyl)-hydroxymethylidene]-6,6-dimethyl-5,7-bis(3-methylbut-2-enyl)-1-[5-methyl-2-(1-methylethenyl)hex-4-enyl]bicyclo[3.3.1]nonane-2,4,9-trione

> <PUBCHEM_IUPAC_NAME>
3-[(3,4-dihydroxyphenyl)-hydroxymethylidene]-6,6-dimethyl-5,7-bis(3-methylbut-2-enyl)-1-(5-methyl-2-prop-1-en-2-ylhex-4-enyl)bicyclo[3.3.1]nonane-2,4,9-trione

> <PUBCHEM_IUPAC_SYSTEMATIC_NAME>
3-[[3,4-bis(oxidanyl)phenyl]-oxidanyl-methylidene]-6,6-dimethyl-5,7-bis(3-methylbut-2-enyl)-1-(5-methyl-2-prop-1-en-2-yl-hex-4-enyl)bicyclo[3.3.1]nonane-2,4,9-trione

> <PUBCHEM_IUPAC_TRADITIONAL_NAME>
3-[(3,4-dihydroxyphenyl)-hydroxy-methylene]-1-(2-isopropenyl-5-methyl-hex-4-enyl)-6,6-dimethyl-5,7-bis(3-methylbut-2-enyl)bicyclo[3.3.1]nonane-2,4,9-trione

> <PUBCHEM_IUPAC_INCHI>
InChI=1S/C38H50O6/c1-22(2)11-13-27(25(7)8)20-37-21-28(15-12-23(3)4)36(9,10)38(35(37)44,18-17-24(5)6)34(43)31(33(37)42)32(41)26-14-16-29(39)30(40)19-26/h11-12,14,16-17,19,27-28,39-41H,7,13,15,18,20-21H2,1-6,8-10H3

> <PUBCHEM_IUPAC_INCHIKEY>
DTTONLKLWRTCAB-UHFFFAOYSA-N

> <PUBCHEM_XLOGP3_AA>
10.3

> <PUBCHEM_EXACT_MASS>
602.360739

> <PUBCHEM_MOLECULAR_FORMULA>
C38H50O6

> <PUBCHEM_MOLECULAR_WEIGHT>
602.8

> <PUBCHEM_OPENEYE_CAN_SMILES>
CC(=CCC1CC2(C(=O)C(=C(C3=CC(=C(C=C3)O)O)O)C(=O)C(C2=O)(C1(C)C)CC=C(C)C)CC(CC=C(C)C)C(=C)C)C

> <PUBCHEM_OPENEYE_ISO_SMILES>
CC(=CCC1CC2(C(=O)C(=C(C3=CC(=C(C=C3)O)O)O)C(=O)C(C2=O)(C1(C)C)CC=C(C)C)CC(CC=C(C)C)C(=C)C)C

> <PUBCHEM_CACTVS_TPSA>
112

> <PUBCHEM_MONOISOTOPIC_WEIGHT>
602.360739

> <PUBCHEM_TOTAL_CHARGE>
0

> <PUBCHEM_HEAVY_ATOM_COUNT>
44

> <PUBCHEM_ATOM_DEF_STEREO_COUNT>
0

> <PUBCHEM_ATOM_UDEF_STEREO_COUNT>
4

> <PUBCHEM_BOND_DEF_STEREO_COUNT>
0

> <PUBCHEM_BOND_UDEF_STEREO_COUNT>
1

> <PUBCHEM_ISOTOPIC_ATOM_COUNT>
0

> <PUBCHEM_COMPONENT_COUNT>
1

> <PUBCHEM_CACTVS_TAUTO_COUNT>
46

> <PUBCHEM_COORDINATE_TYPE>
1
5
255

> <PUBCHEM_BONDANNOTATIONS>
10  13  3
20  25  1
21  24  3
29  38  8
29  39  8
38  40  8
39  41  8
40  44  8
41  44  8
8  14  3
9  19  3

$$$$

