4489
  -OEChem-06261200102D

118123  0     1  0  0  0  0  0999 V2000
    8.5878   -0.8636    0.0000 O   0  0  0  0  0  0  0  0  0  0  0  0
   11.1266   -0.3636    0.0000 O   0  0  0  0  0  0  0  0  0  0  0  0
    7.5000   -0.8066    0.0000 O   0  0  0  0  0  0  0  0  0  0  0  0
   13.6655    0.1364    0.0000 O   0  0  0  0  0  0  0  0  0  0  0  0
    6.0000   -3.4047    0.0000 O   0  0  0  0  0  0  0  0  0  0  0  0
   16.3391    0.0084    0.0000 O   0  0  0  0  0  0  0  0  0  0  0  0
    4.5000    0.9254    0.0000 O   0  0  0  0  0  0  0  0  0  0  0  0
   17.7359   -0.2128    0.0000 O   0  0  0  0  0  0  0  0  0  0  0  0
   18.7304   -0.1083    0.0000 O   0  0  0  0  0  0  0  0  0  0  0  0
    3.0000    3.5235    0.0000 O   0  5  0  0  0  0  0  0  0  0  0  0
    4.5000    2.6575    0.0000 O   0  0  0  0  0  0  0  0  0  0  0  0
    9.5388   -1.1727    0.0000 C   0  0  3  0  0  0  0  0  0  0  0  0
    8.0000   -1.6727    0.0000 C   0  0  3  0  0  0  0  0  0  0  0  0
   10.5388   -1.1727    0.0000 C   0  0  3  0  0  0  0  0  0  0  0  0
    8.5878   -2.4817    0.0000 C   0  0  3  0  0  0  0  0  0  0  0  0
   12.0777   -0.6727    0.0000 C   0  0  3  0  0  0  0  0  0  0  0  0
    9.5388   -2.1727    0.0000 C   0  0  0  0  0  0  0  0  0  0  0  0
    7.5000   -2.5387    0.0000 C   0  0  3  0  0  0  0  0  0  0  0  0
   13.0777   -0.6727    0.0000 C   0  0  3  0  0  0  0  0  0  0  0  0
   11.1266   -1.9817    0.0000 C   0  0  0  0  0  0  0  0  0  0  0  0
   12.0777   -1.6727    0.0000 C   0  0  0  0  0  0  0  0  0  0  0  0
   13.6655   -1.4817    0.0000 C   0  0  3  0  0  0  0  0  0  0  0  0
    6.5000   -2.5387    0.0000 C   0  0  3  0  0  0  0  0  0  0  0  0
    9.8479   -0.2216    0.0000 C   0  0  0  0  0  0  0  0  0  0  0  0
   14.6165   -0.1727    0.0000 C   0  0  3  0  0  0  0  0  0  0  0  0
    6.5000   -0.8066    0.0000 C   0  0  3  0  0  0  0  0  0  0  0  0
   14.6165   -1.1727    0.0000 C   0  0  0  0  0  0  0  0  0  0  0  0
    6.0000   -1.6727    0.0000 C   0  0  0  0  0  0  0  0  0  0  0  0
    8.9624   -3.4088    0.0000 C   0  0  0  0  0  0  0  0  0  0  0  0
   12.3867    0.2784    0.0000 C   0  0  0  0  0  0  0  0  0  0  0  0
   15.4255    0.4151    0.0000 C   0  0  3  0  0  0  0  0  0  0  0  0
    7.3264   -3.5235    0.0000 C   0  0  0  0  0  0  0  0  0  0  0  0
    6.0000    0.0594    0.0000 C   0  0  0  0  0  0  0  0  0  0  0  0
   15.3210    1.4096    0.0000 C   0  0  3  0  0  0  0  0  0  0  0  0
   13.3565   -2.4327    0.0000 C   0  0  0  0  0  0  0  0  0  0  0  0
    5.0000    0.0594    0.0000 C   0  0  3  0  0  0  0  0  0  0  0  0
   16.1300    1.9974    0.0000 C   0  0  0  0  0  0  0  0  0  0  0  0
   17.0436    1.5907    0.0000 C   0  0  3  0  0  0  0  0  0  0  0  0
   17.1481    0.5962    0.0000 C   0  0  3  0  0  0  0  0  0  0  0  0
    4.5000   -0.8066    0.0000 C   0  0  0  0  0  0  0  0  0  0  0  0
   14.4075    1.8164    0.0000 C   0  0  0  0  0  0  0  0  0  0  0  0
    3.5000   -0.8066    0.0000 C   0  0  0  0  0  0  0  0  0  0  0  0
    3.5000    0.9254    0.0000 C   0  0  3  0  0  0  0  0  0  0  0  0
    3.0000    0.0594    0.0000 C   0  0  3  0  0  0  0  0  0  0  0  0
   17.8526    2.1785    0.0000 C   0  0  0  0  0  0  0  0  0  0  0  0
   18.1426    0.7007    0.0000 C   0  0  0  0  0  0  0  0  0  0  0  0
    5.0000   -3.4047    0.0000 C   0  0  0  0  0  0  0  0  0  0  0  0
    3.0000    1.7914    0.0000 C   0  0  3  0  0  0  0  0  0  0  0  0
    2.0000    0.0594    0.0000 C   0  0  0  0  0  0  0  0  0  0  0  0
    2.0000    1.7914    0.0000 C   0  0  0  0  0  0  0  0  0  0  0  0
    3.5000    2.6575    0.0000 C   0  0  0  0  0  0  0  0  0  0  0  0
   10.2574   -1.7251    0.0000 H   0  0  0  0  0  0  0  0  0  0  0  0
    8.0455   -2.7823    0.0000 H   0  0  0  0  0  0  0  0  0  0  0  0
    9.6678   -2.7791    0.0000 H   0  0  0  0  0  0  0  0  0  0  0  0
   10.1554   -2.1078    0.0000 H   0  0  0  0  0  0  0  0  0  0  0  0
    8.0826   -2.7507    0.0000 H   0  0  0  0  0  0  0  0  0  0  0  0
   12.7962   -1.2251    0.0000 H   0  0  0  0  0  0  0  0  0  0  0  0
   10.5897   -2.2917    0.0000 H   0  0  0  0  0  0  0  0  0  0  0  0
   11.3788   -2.5481    0.0000 H   0  0  0  0  0  0  0  0  0  0  0  0
   12.2066   -2.2791    0.0000 H   0  0  0  0  0  0  0  0  0  0  0  0
   12.6943   -1.6078    0.0000 H   0  0  0  0  0  0  0  0  0  0  0  0
   14.1039   -1.9201    0.0000 H   0  0  0  0  0  0  0  0  0  0  0  0
    5.8800   -2.5387    0.0000 H   0  0  0  0  0  0  0  0  0  0  0  0
   10.4375   -0.4132    0.0000 H   0  0  0  0  0  0  0  0  0  0  0  0
   10.0394    0.3681    0.0000 H   0  0  0  0  0  0  0  0  0  0  0  0
    9.2582   -0.0300    0.0000 H   0  0  0  0  0  0  0  0  0  0  0  0
   14.5195    0.4397    0.0000 H   0  0  0  0  0  0  0  0  0  0  0  0
    6.8100   -0.2697    0.0000 H   0  0  0  0  0  0  0  0  0  0  0  0
   14.7454   -1.7791    0.0000 H   0  0  0  0  0  0  0  0  0  0  0  0
   15.2331   -1.1078    0.0000 H   0  0  0  0  0  0  0  0  0  0  0  0
    5.5250   -1.2741    0.0000 H   0  0  0  0  0  0  0  0  0  0  0  0
    5.5250   -2.0712    0.0000 H   0  0  0  0  0  0  0  0  0  0  0  0
    8.3876   -3.6411    0.0000 H   0  0  0  0  0  0  0  0  0  0  0  0
    9.1947   -3.9837    0.0000 H   0  0  0  0  0  0  0  0  0  0  0  0
    9.5373   -3.1765    0.0000 H   0  0  0  0  0  0  0  0  0  0  0  0
   12.9764    0.0868    0.0000 H   0  0  0  0  0  0  0  0  0  0  0  0
   12.5783    0.8681    0.0000 H   0  0  0  0  0  0  0  0  0  0  0  0
   11.7970    0.4700    0.0000 H   0  0  0  0  0  0  0  0  0  0  0  0
   14.8591    0.6673    0.0000 H   0  0  0  0  0  0  0  0  0  0  0  0
    6.7158   -3.4158    0.0000 H   0  0  0  0  0  0  0  0  0  0  0  0
    7.2187   -4.1341    0.0000 H   0  0  0  0  0  0  0  0  0  0  0  0
    7.9369   -3.6312    0.0000 H   0  0  0  0  0  0  0  0  0  0  0  0
    6.5826    0.2714    0.0000 H   0  0  0  0  0  0  0  0  0  0  0  0
    5.8923    0.6700    0.0000 H   0  0  0  0  0  0  0  0  0  0  0  0
   14.8194    1.0452    0.0000 H   0  0  0  0  0  0  0  0  0  0  0  0
   12.7668   -2.2411    0.0000 H   0  0  0  0  0  0  0  0  0  0  0  0
   13.1649   -3.0224    0.0000 H   0  0  0  0  0  0  0  0  0  0  0  0
   13.9461   -2.6243    0.0000 H   0  0  0  0  0  0  0  0  0  0  0  0
    5.3100    0.5963    0.0000 H   0  0  0  0  0  0  0  0  0  0  0  0
   16.4767    2.5114    0.0000 H   0  0  0  0  0  0  0  0  0  0  0  0
   15.6840    2.4281    0.0000 H   0  0  0  0  0  0  0  0  0  0  0  0
   17.6100    1.3385    0.0000 H   0  0  0  0  0  0  0  0  0  0  0  0
    4.3923   -1.4172    0.0000 H   0  0  0  0  0  0  0  0  0  0  0  0
    5.0826   -1.0187    0.0000 H   0  0  0  0  0  0  0  0  0  0  0  0
   14.6596    2.3828    0.0000 H   0  0  0  0  0  0  0  0  0  0  0  0
   13.8411    2.0686    0.0000 H   0  0  0  0  0  0  0  0  0  0  0  0
   14.1553    1.2500    0.0000 H   0  0  0  0  0  0  0  0  0  0  0  0
    2.9174   -1.0187    0.0000 H   0  0  0  0  0  0  0  0  0  0  0  0
    3.6077   -1.4172    0.0000 H   0  0  0  0  0  0  0  0  0  0  0  0
    3.8100    1.4624    0.0000 H   0  0  0  0  0  0  0  0  0  0  0  0
    2.6900    0.5963    0.0000 H   0  0  0  0  0  0  0  0  0  0  0  0
   18.2170    1.6769    0.0000 H   0  0  0  0  0  0  0  0  0  0  0  0
   18.3542    2.5429    0.0000 H   0  0  0  0  0  0  0  0  0  0  0  0
   17.4882    2.6801    0.0000 H   0  0  0  0  0  0  0  0  0  0  0  0
   18.6999    0.9725    0.0000 H   0  0  0  0  0  0  0  0  0  0  0  0
   17.9717    1.2967    0.0000 H   0  0  0  0  0  0  0  0  0  0  0  0
    5.0000   -2.7847    0.0000 H   0  0  0  0  0  0  0  0  0  0  0  0
    4.3800   -3.4047    0.0000 H   0  0  0  0  0  0  0  0  0  0  0  0
    5.0000   -4.0247    0.0000 H   0  0  0  0  0  0  0  0  0  0  0  0
   17.4837   -0.7792    0.0000 H   0  0  0  0  0  0  0  0  0  0  0  0
    2.6900    2.3284    0.0000 H   0  0  0  0  0  0  0  0  0  0  0  0
    2.0000    0.6794    0.0000 H   0  0  0  0  0  0  0  0  0  0  0  0
    1.3800    0.0594    0.0000 H   0  0  0  0  0  0  0  0  0  0  0  0
    2.0000   -0.5606    0.0000 H   0  0  0  0  0  0  0  0  0  0  0  0
   19.3470   -0.0435    0.0000 H   0  0  0  0  0  0  0  0  0  0  0  0
    2.0000    2.4114    0.0000 H   0  0  0  0  0  0  0  0  0  0  0  0
    1.3800    1.7914    0.0000 H   0  0  0  0  0  0  0  0  0  0  0  0
    2.0000    1.1714    0.0000 H   0  0  0  0  0  0  0  0  0  0  0  0
  1 12  1  0  0  0  0
  1 13  1  0  0  0  0
  2 14  1  0  0  0  0
  2 16  1  0  0  0  0
  3 13  1  0  0  0  0
  3 26  1  0  0  0  0
  4 19  1  0  0  0  0
  4 25  1  0  0  0  0
  5 23  1  0  0  0  0
  5 47  1  0  0  0  0
  6 31  1  0  0  0  0
  6 39  1  0  0  0  0
  7 36  1  0  0  0  0
  7 43  1  0  0  0  0
  8 39  1  0  0  0  0
  8110  1  0  0  0  0
  9 46  1  0  0  0  0
  9115  1  0  0  0  0
 10 51  1  0  0  0  0
 11 51  2  0  0  0  0
 12 14  1  0  0  0  0
 12 17  1  0  0  0  0
 12 24  1  0  0  0  0
 13 15  1  0  0  0  0
 13 18  1  0  0  0  0
 14 20  1  0  0  0  0
 14 52  1  0  0  0  0
 15 17  1  0  0  0  0
 15 29  1  0  0  0  0
 15 53  1  0  0  0  0
 16 19  1  0  0  0  0
 16 21  1  0  0  0  0
 16 30  1  0  0  0  0
 17 54  1  0  0  0  0
 17 55  1  0  0  0  0
 18 23  1  0  0  0  0
 18 32  1  0  0  0  0
 18 56  1  0  0  0  0
 19 22  1  0  0  0  0
 19 57  1  0  0  0  0
 20 21  1  0  0  0  0
 20 58  1  0  0  0  0
 20 59  1  0  0  0  0
 21 60  1  0  0  0  0
 21 61  1  0  0  0  0
 22 27  1  0  0  0  0
 22 35  1  0  0  0  0
 22 62  1  0  0  0  0
 23 28  1  0  0  0  0
 23 63  1  0  0  0  0
 24 64  1  0  0  0  0
 24 65  1  0  0  0  0
 24 66  1  0  0  0  0
 25 27  1  0  0  0  0
 25 31  1  0  0  0  0
 25 67  1  0  0  0  0
 26 28  1  0  0  0  0
 26 33  1  0  0  0  0
 26 68  1  0  0  0  0
 27 69  1  0  0  0  0
 27 70  1  0  0  0  0
 28 71  1  0  0  0  0
 28 72  1  0  0  0  0
 29 73  1  0  0  0  0
 29 74  1  0  0  0  0
 29 75  1  0  0  0  0
 30 76  1  0  0  0  0
 30 77  1  0  0  0  0
 30 78  1  0  0  0  0
 31 34  1  0  0  0  0
 31 79  1  0  0  0  0
 32 80  1  0  0  0  0
 32 81  1  0  0  0  0
 32 82  1  0  0  0  0
 33 36  1  0  0  0  0
 33 83  1  0  0  0  0
 33 84  1  0  0  0  0
 34 37  1  0  0  0  0
 34 41  1  0  0  0  0
 34 85  1  0  0  0  0
 35 86  1  0  0  0  0
 35 87  1  0  0  0  0
 35 88  1  0  0  0  0
 36 40  1  0  0  0  0
 36 89  1  0  0  0  0
 37 38  1  0  0  0  0
 37 90  1  0  0  0  0
 37 91  1  0  0  0  0
 38 39  1  0  0  0  0
 38 45  1  0  0  0  0
 38 92  1  0  0  0  0
 39 46  1  0  0  0  0
 40 42  1  0  0  0  0
 40 93  1  0  0  0  0
 40 94  1  0  0  0  0
 41 95  1  0  0  0  0
 41 96  1  0  0  0  0
 41 97  1  0  0  0  0
 42 44  1  0  0  0  0
 42 98  1  0  0  0  0
 42 99  1  0  0  0  0
 43 44  1  0  0  0  0
 43 48  1  0  0  0  0
 43100  1  0  0  0  0
 44 49  1  0  0  0  0
 44101  1  0  0  0  0
 45102  1  0  0  0  0
 45103  1  0  0  0  0
 45104  1  0  0  0  0
 46105  1  0  0  0  0
 46106  1  0  0  0  0
 47107  1  0  0  0  0
 47108  1  0  0  0  0
 47109  1  0  0  0  0
 48 50  1  0  0  0  0
 48 51  1  0  0  0  0
 48111  1  0  0  0  0
 49112  1  0  0  0  0
 49113  1  0  0  0  0
 49114  1  0  0  0  0
 50116  1  0  0  0  0
 50117  1  0  0  0  0
 50118  1  0  0  0  0
M  CHG  1  10  -1
M  END
> <PUBCHEM_COMPOUND_CID>
4489

> <PUBCHEM_COMPOUND_CANONICALIZED>
1

> <PUBCHEM_CACTVS_COMPLEXITY>
1230

> <PUBCHEM_CACTVS_HBOND_ACCEPTOR>
11

> <PUBCHEM_CACTVS_HBOND_DONOR>
2

> <PUBCHEM_CACTVS_ROTATABLE_BOND>
8

> <PUBCHEM_CACTVS_SUBSKEYS>
AAADcfB8PAAAAAAAAAAAAAAAAAAAASJEgAAkSJAAAAAAAAAAAAAAGgAACAAADVSggAICCAAABgAIAACQCAAAAAAAAAAAAAEAAAAREBYAAAAiQAAFIAAHAAHI6PyOAAAAAAAAAAAAAAAAAAAAAAAAAAAAAA==

> <PUBCHEM_IUPAC_OPENEYE_NAME>
2-[6-[[2-[5-[5-[6-hydroxy-6-(hydroxymethyl)-3,5-dimethyl-tetrahydropyran-2-yl]-3-methyl-tetrahydrofuran-2-yl]-5-methyl-tetrahydrofuran-2-yl]-9-methoxy-2,4,10-trimethyl-1,6-dioxaspiro[4.5]decan-7-yl]methyl]-3-methyl-tetrahydropyran-2-yl]propanoate

> <PUBCHEM_IUPAC_CAS_NAME>
2-[6-[[2-[5-[5-[6-hydroxy-6-(hydroxymethyl)-3,5-dimethyl-2-oxanyl]-3-methyl-2-oxolanyl]-5-methyl-2-oxolanyl]-9-methoxy-2,4,10-trimethyl-1,6-dioxaspiro[4.5]decan-7-yl]methyl]-3-methyl-2-oxanyl]propanoate

> <PUBCHEM_IUPAC_NAME>
2-[6-[[2-[5-[5-[6-hydroxy-6-(hydroxymethyl)-3,5-dimethyloxan-2-yl]-3-methyloxolan-2-yl]-5-methyloxolan-2-yl]-9-methoxy-2,4,10-trimethyl-1,6-dioxaspiro[4.5]decan-7-yl]methyl]-3-methyloxan-2-yl]propanoate

> <PUBCHEM_IUPAC_SYSTEMATIC_NAME>
2-[6-[[2-[5-[5-[6-(hydroxymethyl)-3,5-dimethyl-6-oxidanyl-oxan-2-yl]-3-methyl-oxolan-2-yl]-5-methyl-oxolan-2-yl]-9-methoxy-2,4,10-trimethyl-1,6-dioxaspiro[4.5]decan-7-yl]methyl]-3-methyl-oxan-2-yl]propanoate

> <PUBCHEM_IUPAC_TRADITIONAL_NAME>
2-[6-[[2-[5-[5-(6-hydroxy-3,5-dimethyl-6-methylol-tetrahydropyran-2-yl)-3-methyl-tetrahydrofuran-2-yl]-5-methyl-tetrahydrofuran-2-yl]-9-methoxy-2,4,10-trimethyl-1,6-dioxaspiro[4.5]decan-7-yl]methyl]-3-methyl-tetrahydropyran-2-yl]propionate

> <PUBCHEM_IUPAC_INCHI>
InChI=1S/C40H68O11/c1-21-11-12-28(46-33(21)26(6)36(42)43)17-29-18-30(45-10)27(7)40(48-29)25(5)19-38(9,51-40)32-13-14-37(8,49-32)35-23(3)16-31(47-35)34-22(2)15-24(4)39(44,20-41)50-34/h21-35,41,44H,11-20H2,1-10H3,(H,42,43)/p-1

> <PUBCHEM_IUPAC_INCHIKEY>
DANUORFCFTYTSZ-UHFFFAOYSA-M

> <PUBCHEM_XLOGP3_AA>
6.2

> <PUBCHEM_EXACT_MASS>
723.468338

> <PUBCHEM_MOLECULAR_FORMULA>
C40H67O11-

> <PUBCHEM_MOLECULAR_WEIGHT>
723.95338

> <PUBCHEM_OPENEYE_CAN_SMILES>
CC1CCC(OC1C(C)C(=O)[O-])CC2CC(C(C3(O2)C(CC(O3)(C)C4CCC(O4)(C)C5C(CC(O5)C6C(CC(C(O6)(CO)O)C)C)C)C)C)OC

> <PUBCHEM_OPENEYE_ISO_SMILES>
CC1CCC(OC1C(C)C(=O)[O-])CC2CC(C(C3(O2)C(CC(O3)(C)C4CCC(O4)(C)C5C(CC(O5)C6C(CC(C(O6)(CO)O)C)C)C)C)C)OC

> <PUBCHEM_CACTVS_TPSA>
145

> <PUBCHEM_MONOISOTOPIC_WEIGHT>
723.468338

> <PUBCHEM_TOTAL_CHARGE>
-1

> <PUBCHEM_HEAVY_ATOM_COUNT>
51

> <PUBCHEM_ATOM_DEF_STEREO_COUNT>
0

> <PUBCHEM_ATOM_UDEF_STEREO_COUNT>
19

> <PUBCHEM_BOND_DEF_STEREO_COUNT>
0

> <PUBCHEM_BOND_UDEF_STEREO_COUNT>
0

> <PUBCHEM_ISOTOPIC_ATOM_COUNT>
0

> <PUBCHEM_COMPONENT_COUNT>
1

> <PUBCHEM_CACTVS_TAUTO_COUNT>
1

> <PUBCHEM_COORDINATE_TYPE>
1
5
255

> <PUBCHEM_BONDANNOTATIONS>
13  1  3
12  24  3
14  20  3
15  29  3
16  30  3
18  32  3
22  35  3
25  27  3
26  33  3
36  33  3
34  41  3
38  45  3
19  4  3
44  49  3
48  50  3
23  5  3
31  6  3
43  7  3
39  8  3

$$$$

