3533
  -OEChem-06251223292D

 31 30  0     1  0  0  0  0  0999 V2000
    5.1350    0.0600    0.0000 S   0  0  0  0  0  0  0  0  0  0  0  0
    7.7331    2.5600    0.0000 O   0  0  0  0  0  0  0  0  0  0  0  0
    6.8671    4.0600    0.0000 O   0  0  0  0  0  0  0  0  0  0  0  0
    5.1350    3.0600    0.0000 N   0  0  0  0  0  0  0  0  0  0  0  0
    3.4030   -1.9400    0.0000 N   0  0  0  0  0  0  0  0  0  0  0  0
    2.5369   -3.4400    0.0000 N   0  0  0  0  0  0  0  0  0  0  0  0
    6.0010    1.5600    0.0000 C   0  0  0  0  0  0  0  0  0  0  0  0
    6.0010    2.5600    0.0000 C   0  0  3  0  0  0  0  0  0  0  0  0
    5.1350    1.0600    0.0000 C   0  0  0  0  0  0  0  0  0  0  0  0
    4.2690   -0.4400    0.0000 C   0  0  0  0  0  0  0  0  0  0  0  0
    6.8671    3.0600    0.0000 C   0  0  0  0  0  0  0  0  0  0  0  0
    4.2690   -1.4400    0.0000 C   0  0  0  0  0  0  0  0  0  0  0  0
    3.4030   -2.9400    0.0000 C   0  0  0  0  0  0  0  0  0  0  0  0
    4.2690   -3.4400    0.0000 C   0  0  0  0  0  0  0  0  0  0  0  0
    6.2131    0.9774    0.0000 H   0  0  0  0  0  0  0  0  0  0  0  0
    6.6116    1.6677    0.0000 H   0  0  0  0  0  0  0  0  0  0  0  0
    5.4641    2.2500    0.0000 H   0  0  0  0  0  0  0  0  0  0  0  0
    4.9230    1.6426    0.0000 H   0  0  0  0  0  0  0  0  0  0  0  0
    4.5244    0.9523    0.0000 H   0  0  0  0  0  0  0  0  0  0  0  0
    4.0569    0.1426    0.0000 H   0  0  0  0  0  0  0  0  0  0  0  0
    3.6584   -0.5477    0.0000 H   0  0  0  0  0  0  0  0  0  0  0  0
    4.4810   -2.0226    0.0000 H   0  0  0  0  0  0  0  0  0  0  0  0
    4.8796   -1.3323    0.0000 H   0  0  0  0  0  0  0  0  0  0  0  0
    4.5981    2.7500    0.0000 H   0  0  0  0  0  0  0  0  0  0  0  0
    5.1350    3.6800    0.0000 H   0  0  0  0  0  0  0  0  0  0  0  0
    8.2700    2.8700    0.0000 H   0  0  0  0  0  0  0  0  0  0  0  0
    3.9590   -3.9769    0.0000 H   0  0  0  0  0  0  0  0  0  0  0  0
    4.8059   -3.7500    0.0000 H   0  0  0  0  0  0  0  0  0  0  0  0
    4.5790   -2.9031    0.0000 H   0  0  0  0  0  0  0  0  0  0  0  0
    2.5369   -4.0600    0.0000 H   0  0  0  0  0  0  0  0  0  0  0  0
    2.0000   -3.1300    0.0000 H   0  0  0  0  0  0  0  0  0  0  0  0
  1  9  1  0  0  0  0
  1 10  1  0  0  0  0
  2 11  1  0  0  0  0
  2 26  1  0  0  0  0
  3 11  2  0  0  0  0
  4  8  1  0  0  0  0
  4 24  1  0  0  0  0
  4 25  1  0  0  0  0
  5 12  1  0  0  0  0
  5 13  2  0  0  0  0
  6 13  1  0  0  0  0
  6 30  1  0  0  0  0
  6 31  1  0  0  0  0
  7  8  1  0  0  0  0
  7  9  1  0  0  0  0
  7 15  1  0  0  0  0
  7 16  1  0  0  0  0
  8 11  1  0  0  0  0
  8 17  1  0  0  0  0
  9 18  1  0  0  0  0
  9 19  1  0  0  0  0
 10 12  1  0  0  0  0
 10 20  1  0  0  0  0
 10 21  1  0  0  0  0
 12 22  1  0  0  0  0
 12 23  1  0  0  0  0
 13 14  1  0  0  0  0
 14 27  1  0  0  0  0
 14 28  1  0  0  0  0
 14 29  1  0  0  0  0
M  END
> <PUBCHEM_COMPOUND_CID>
3533

> <PUBCHEM_COMPOUND_CANONICALIZED>
1

> <PUBCHEM_CACTVS_COMPLEXITY>
209

> <PUBCHEM_CACTVS_HBOND_ACCEPTOR>
5

> <PUBCHEM_CACTVS_HBOND_DONOR>
3

> <PUBCHEM_CACTVS_ROTATABLE_BOND>
7

> <PUBCHEM_CACTVS_SUBSKEYS>
AAADceBzMABAAAAAAAAAAAAAAAAAAAAAAAAAAAAAAAAAAAAAAAAAHgQQCAAACCjFwASDCAJAAggoAAKwLAAAAAEAABAAAIGQAAACABAgAAAAQAAEEAAgAAAAAAAAAAAAAAAAAAAAAAAAAAAAAAAAAAAAAA==

> <PUBCHEM_IUPAC_OPENEYE_NAME>
2-amino-4-[2-(1-aminoethylideneamino)ethylsulfanyl]butanoic acid

> <PUBCHEM_IUPAC_CAS_NAME>
2-amino-4-[2-(1-aminoethylideneamino)ethylthio]butanoic acid

> <PUBCHEM_IUPAC_NAME>
2-amino-4-[2-(1-aminoethylideneamino)ethylsulfanyl]butanoic acid

> <PUBCHEM_IUPAC_SYSTEMATIC_NAME>
2-azanyl-4-[2-(1-azanylethylideneamino)ethylsulfanyl]butanoic acid

> <PUBCHEM_IUPAC_TRADITIONAL_NAME>
2-amino-4-[2-(1-aminoethylideneamino)ethylthio]butyric acid

> <PUBCHEM_IUPAC_INCHI>
InChI=1S/C8H17N3O2S/c1-6(9)11-3-5-14-4-2-7(10)8(12)13/h7H,2-5,10H2,1H3,(H2,9,11)(H,12,13)

> <PUBCHEM_IUPAC_INCHIKEY>
MOLOJNHYNHBPCW-UHFFFAOYSA-N

> <PUBCHEM_XLOGP3_AA>
-3.3

> <PUBCHEM_EXACT_MASS>
219.104148

> <PUBCHEM_MOLECULAR_FORMULA>
C8H17N3O2S

> <PUBCHEM_MOLECULAR_WEIGHT>
219.30448

> <PUBCHEM_OPENEYE_CAN_SMILES>
CC(=NCCSCCC(C(=O)O)N)N

> <PUBCHEM_OPENEYE_ISO_SMILES>
CC(=NCCSCCC(C(=O)O)N)N

> <PUBCHEM_CACTVS_TPSA>
127

> <PUBCHEM_MONOISOTOPIC_WEIGHT>
219.104148

> <PUBCHEM_TOTAL_CHARGE>
0

> <PUBCHEM_HEAVY_ATOM_COUNT>
14

> <PUBCHEM_ATOM_DEF_STEREO_COUNT>
0

> <PUBCHEM_ATOM_UDEF_STEREO_COUNT>
1

> <PUBCHEM_BOND_DEF_STEREO_COUNT>
0

> <PUBCHEM_BOND_UDEF_STEREO_COUNT>
0

> <PUBCHEM_ISOTOPIC_ATOM_COUNT>
0

> <PUBCHEM_COMPONENT_COUNT>
1

> <PUBCHEM_CACTVS_TAUTO_COUNT>
3

> <PUBCHEM_COORDINATE_TYPE>
1
5
255

> <PUBCHEM_BONDANNOTATIONS>
8  4  3

$$$$

