17395810
  -OEChem-06241222522D

 48 50  0     0  0  0  0  0  0999 V2000
    7.9244   -0.4203    0.0000 O   0  0  0  0  0  0  0  0  0  0  0  0
   11.1241    3.7942    0.0000 O   0  0  0  0  0  0  0  0  0  0  0  0
    4.6783   -1.9895    0.0000 N   0  0  0  0  0  0  0  0  0  0  0  0
    4.6783   -3.5990    0.0000 N   0  0  0  0  0  0  0  0  0  0  0  0
    6.2781    0.1178    0.0000 N   0  0  0  0  0  0  0  0  0  0  0  0
   11.4813    2.0994    0.0000 N   0  0  0  0  0  0  0  0  0  0  0  0
    4.9889   -1.0390    0.0000 C   0  0  0  0  0  0  0  0  0  0  0  0
    3.7320   -2.2942    0.0000 C   0  0  0  0  0  0  0  0  0  0  0  0
    5.9674   -0.8327    0.0000 C   0  0  0  0  0  0  0  0  0  0  0  0
    5.2619   -2.7942    0.0000 C   0  0  0  0  0  0  0  0  0  0  0  0
    3.7320   -3.2942    0.0000 C   0  0  0  0  0  0  0  0  0  0  0  0
    2.8660   -1.7942    0.0000 C   0  0  0  0  0  0  0  0  0  0  0  0
    6.2619   -2.7942    0.0000 C   0  0  0  0  0  0  0  0  0  0  0  0
    2.8660   -3.7942    0.0000 C   0  0  0  0  0  0  0  0  0  0  0  0
    7.5673    1.2745    0.0000 C   0  0  0  0  0  0  0  0  0  0  0  0
    7.2566    0.3240    0.0000 C   0  0  0  0  0  0  0  0  0  0  0  0
    2.0000   -2.2942    0.0000 C   0  0  0  0  0  0  0  0  0  0  0  0
    2.0000   -3.2942    0.0000 C   0  0  0  0  0  0  0  0  0  0  0  0
    8.5458    1.4807    0.0000 C   0  0  0  0  0  0  0  0  0  0  0  0
    9.2136    0.7364    0.0000 C   0  0  0  0  0  0  0  0  0  0  0  0
    8.8564    2.4313    0.0000 C   0  0  0  0  0  0  0  0  0  0  0  0
   10.5028    1.8932    0.0000 C   0  0  0  0  0  0  0  0  0  0  0  0
   10.1921    0.9427    0.0000 C   0  0  0  0  0  0  0  0  0  0  0  0
    9.8349    2.6375    0.0000 C   0  0  0  0  0  0  0  0  0  0  0  0
   11.7920    3.0499    0.0000 C   0  0  0  0  0  0  0  0  0  0  0  0
   12.7705    3.2561    0.0000 C   0  0  0  0  0  0  0  0  0  0  0  0
    4.9684   -0.4193    0.0000 H   0  0  0  0  0  0  0  0  0  0  0  0
    4.3751   -0.9516    0.0000 H   0  0  0  0  0  0  0  0  0  0  0  0
    5.9880   -1.4524    0.0000 H   0  0  0  0  0  0  0  0  0  0  0  0
    6.5812   -0.9201    0.0000 H   0  0  0  0  0  0  0  0  0  0  0  0
    2.8660   -1.1742    0.0000 H   0  0  0  0  0  0  0  0  0  0  0  0
    5.8640    0.5792    0.0000 H   0  0  0  0  0  0  0  0  0  0  0  0
    6.2619   -3.4142    0.0000 H   0  0  0  0  0  0  0  0  0  0  0  0
    6.8819   -2.7942    0.0000 H   0  0  0  0  0  0  0  0  0  0  0  0
    6.2619   -2.1742    0.0000 H   0  0  0  0  0  0  0  0  0  0  0  0
    2.8660   -4.4142    0.0000 H   0  0  0  0  0  0  0  0  0  0  0  0
    7.5467    1.8942    0.0000 H   0  0  0  0  0  0  0  0  0  0  0  0
    6.9534    1.3619    0.0000 H   0  0  0  0  0  0  0  0  0  0  0  0
    1.4631   -1.9842    0.0000 H   0  0  0  0  0  0  0  0  0  0  0  0
    1.4631   -3.6042    0.0000 H   0  0  0  0  0  0  0  0  0  0  0  0
    9.0210    0.1471    0.0000 H   0  0  0  0  0  0  0  0  0  0  0  0
    8.4424    2.8927    0.0000 H   0  0  0  0  0  0  0  0  0  0  0  0
   10.6062    0.4812    0.0000 H   0  0  0  0  0  0  0  0  0  0  0  0
   10.0276    3.2268    0.0000 H   0  0  0  0  0  0  0  0  0  0  0  0
   11.8954    1.6379    0.0000 H   0  0  0  0  0  0  0  0  0  0  0  0
   12.8983    2.6495    0.0000 H   0  0  0  0  0  0  0  0  0  0  0  0
   13.3771    3.3840    0.0000 H   0  0  0  0  0  0  0  0  0  0  0  0
   12.6426    3.8628    0.0000 H   0  0  0  0  0  0  0  0  0  0  0  0
  1 16  2  0  0  0  0
  2 25  2  0  0  0  0
  3  7  1  0  0  0  0
  3  8  1  0  0  0  0
  3 10  1  0  0  0  0
  4 10  2  0  0  0  0
  4 11  1  0  0  0  0
  5  9  1  0  0  0  0
  5 16  1  0  0  0  0
  5 32  1  0  0  0  0
  6 22  1  0  0  0  0
  6 25  1  0  0  0  0
  6 45  1  0  0  0  0
  7  9  1  0  0  0  0
  7 27  1  0  0  0  0
  7 28  1  0  0  0  0
  8 11  1  0  0  0  0
  8 12  2  0  0  0  0
  9 29  1  0  0  0  0
  9 30  1  0  0  0  0
 10 13  1  0  0  0  0
 11 14  2  0  0  0  0
 12 17  1  0  0  0  0
 12 31  1  0  0  0  0
 13 33  1  0  0  0  0
 13 34  1  0  0  0  0
 13 35  1  0  0  0  0
 14 18  1  0  0  0  0
 14 36  1  0  0  0  0
 15 16  1  0  0  0  0
 15 19  1  0  0  0  0
 15 37  1  0  0  0  0
 15 38  1  0  0  0  0
 17 18  2  0  0  0  0
 17 39  1  0  0  0  0
 18 40  1  0  0  0  0
 19 20  2  0  0  0  0
 19 21  1  0  0  0  0
 20 23  1  0  0  0  0
 20 41  1  0  0  0  0
 21 24  2  0  0  0  0
 21 42  1  0  0  0  0
 22 23  2  0  0  0  0
 22 24  1  0  0  0  0
 23 43  1  0  0  0  0
 24 44  1  0  0  0  0
 25 26  1  0  0  0  0
 26 46  1  0  0  0  0
 26 47  1  0  0  0  0
 26 48  1  0  0  0  0
M  END
> <PUBCHEM_COMPOUND_CID>
17395810

> <PUBCHEM_COMPOUND_CANONICALIZED>
1

> <PUBCHEM_CACTVS_COMPLEXITY>
490

> <PUBCHEM_CACTVS_HBOND_ACCEPTOR>
3

> <PUBCHEM_CACTVS_HBOND_DONOR>
2

> <PUBCHEM_CACTVS_ROTATABLE_BOND>
6

> <PUBCHEM_CACTVS_SUBSKEYS>
AAADceB7sAAAAAAAAAAAAAAAAAAAAWAAAAAwYAAAAAAAAFgB9AAAHgAQAAAADAjBnwQz0LfMEACoAydydACCgC0hEqAJ2KE4dJiIaLLAnZGUIAholgLIyCcYiICOCAAAAAAAACAQAAAAAAAAQAAAAAAAAA==

> <PUBCHEM_IUPAC_OPENEYE_NAME>
2-(4-acetamidophenyl)-N-[2-(2-methylbenzimidazol-1-yl)ethyl]acetamide

> <PUBCHEM_IUPAC_CAS_NAME>
2-(4-acetamidophenyl)-N-[2-(2-methyl-1-benzimidazolyl)ethyl]acetamide

> <PUBCHEM_IUPAC_NAME>
2-(4-acetamidophenyl)-N-[2-(2-methylbenzimidazol-1-yl)ethyl]acetamide

> <PUBCHEM_IUPAC_SYSTEMATIC_NAME>
2-(4-acetamidophenyl)-N-[2-(2-methylbenzimidazol-1-yl)ethyl]ethanamide

> <PUBCHEM_IUPAC_TRADITIONAL_NAME>
2-(4-acetamidophenyl)-N-[2-(2-methylbenzimidazol-1-yl)ethyl]acetamide

> <PUBCHEM_IUPAC_INCHI>
InChI=1S/C20H22N4O2/c1-14-22-18-5-3-4-6-19(18)24(14)12-11-21-20(26)13-16-7-9-17(10-8-16)23-15(2)25/h3-10H,11-13H2,1-2H3,(H,21,26)(H,23,25)

> <PUBCHEM_IUPAC_INCHIKEY>
XYDSWVZGIRWUMH-UHFFFAOYSA-N

> <PUBCHEM_XLOGP3_AA>
1.9

> <PUBCHEM_EXACT_MASS>
350.174276

> <PUBCHEM_MOLECULAR_FORMULA>
C20H22N4O2

> <PUBCHEM_MOLECULAR_WEIGHT>
350.41428

> <PUBCHEM_OPENEYE_CAN_SMILES>
CC1=NC2=CC=CC=C2N1CCNC(=O)CC3=CC=C(C=C3)NC(=O)C

> <PUBCHEM_OPENEYE_ISO_SMILES>
CC1=NC2=CC=CC=C2N1CCNC(=O)CC3=CC=C(C=C3)NC(=O)C

> <PUBCHEM_CACTVS_TPSA>
76

> <PUBCHEM_MONOISOTOPIC_WEIGHT>
350.174276

> <PUBCHEM_TOTAL_CHARGE>
0

> <PUBCHEM_HEAVY_ATOM_COUNT>
26

> <PUBCHEM_ATOM_DEF_STEREO_COUNT>
0

> <PUBCHEM_ATOM_UDEF_STEREO_COUNT>
0

> <PUBCHEM_BOND_DEF_STEREO_COUNT>
0

> <PUBCHEM_BOND_UDEF_STEREO_COUNT>
0

> <PUBCHEM_ISOTOPIC_ATOM_COUNT>
0

> <PUBCHEM_COMPONENT_COUNT>
1

> <PUBCHEM_CACTVS_TAUTO_COUNT>
6

> <PUBCHEM_COORDINATE_TYPE>
1
5
255

> <PUBCHEM_BONDANNOTATIONS>
11  14  8
12  17  8
14  18  8
17  18  8
19  20  8
19  21  8
20  23  8
21  24  8
22  23  8
22  24  8
3  10  8
3  8  8
4  10  8
4  11  8
8  11  8
8  12  8

$$$$

