14434
  -OEChem-06241222432D

 54 54  0     0  0  0  0  0  0999 V2000
    8.3538    7.0372    0.0000 Cl  0  0  0  0  0  0  0  0  0  0  0  0
    0.0000    5.0811    0.0000 Cl  0  0  0  0  0  0  0  0  0  0  0  0
   10.3682    5.0811    0.0000 Cl  0  0  0  0  0  0  0  0  0  0  0  0
    6.8190    7.7261    0.0000 F   0  0  0  0  0  0  0  0  0  0  0  0
    3.3095    4.3303    0.0000 O   0  0  0  0  0  0  0  0  0  0  0  0
    4.9079    4.8896    0.0000 N   0  0  0  0  0  0  0  0  0  0  0  0
    4.6199    2.2596    0.0000 N   0  0  0  0  0  0  0  0  0  0  0  0
    3.9330    6.9140    0.0000 N   0  0  0  0  0  0  0  0  0  0  0  0
    5.1304    3.9147    0.0000 C   0  0  0  0  0  0  0  0  0  0  0  0
    4.3974    3.2345    0.0000 C   0  0  0  0  0  0  0  0  0  0  0  0
    5.6897    5.5131    0.0000 C   0  0  0  0  0  0  0  0  0  0  0  0
    3.8868    1.5794    0.0000 C   0  0  0  0  0  0  0  0  0  0  0  0
    5.5755    1.9648    0.0000 C   0  0  0  0  0  0  0  0  0  0  0  0
    5.6897    6.5131    0.0000 C   0  0  0  0  0  0  0  0  0  0  0  0
    3.9330    5.1121    0.0000 C   0  0  0  0  0  0  0  0  0  0  0  0
    4.9079    7.1366    0.0000 C   0  0  0  0  0  0  0  0  0  0  0  0
    3.4991    6.0131    0.0000 C   0  0  0  0  0  0  0  0  0  0  0  0
    6.5837    4.9784    0.0000 C   0  0  0  0  0  0  0  0  0  0  0  0
    6.5837    7.0477    0.0000 C   0  0  0  0  0  0  0  0  0  0  0  0
    4.1094    0.6045    0.0000 C   0  0  0  0  0  0  0  0  0  0  0  0
    5.7980    0.9899    0.0000 C   0  0  0  0  0  0  0  0  0  0  0  0
    5.1304    8.1115    0.0000 C   0  0  0  0  0  0  0  0  0  0  0  0
    7.4897    5.4923    0.0000 C   0  0  0  0  0  0  0  0  0  0  0  0
    7.4897    6.5339    0.0000 C   0  0  0  0  0  0  0  0  0  0  0  0
    6.0860    8.4062    0.0000 C   0  0  0  0  0  0  0  0  0  0  0  0
    4.3974    8.7917    0.0000 C   0  0  0  0  0  0  0  0  0  0  0  0
    6.3085    9.3812    0.0000 C   0  0  0  0  0  0  0  0  0  0  0  0
    4.6199    9.7666    0.0000 C   0  0  0  0  0  0  0  0  0  0  0  0
    5.5755   10.0613    0.0000 C   0  0  0  0  0  0  0  0  0  0  0  0
    5.4668    3.3938    0.0000 H   0  0  0  0  0  0  0  0  0  0  0  0
    5.7017    4.1555    0.0000 H   0  0  0  0  0  0  0  0  0  0  0  0
    4.0610    3.7553    0.0000 H   0  0  0  0  0  0  0  0  0  0  0  0
    3.8261    2.9936    0.0000 H   0  0  0  0  0  0  0  0  0  0  0  0
    6.1947    1.9957    0.0000 H   0  0  0  0  0  0  0  0  0  0  0  0
    5.6526    2.5800    0.0000 H   0  0  0  0  0  0  0  0  0  0  0  0
    3.5505    2.1002    0.0000 H   0  0  0  0  0  0  0  0  0  0  0  0
    3.3155    1.3385    0.0000 H   0  0  0  0  0  0  0  0  0  0  0  0
    3.0144    6.3996    0.0000 H   0  0  0  0  0  0  0  0  0  0  0  0
    3.0144    5.6265    0.0000 H   0  0  0  0  0  0  0  0  0  0  0  0
    6.5765    4.3585    0.0000 H   0  0  0  0  0  0  0  0  0  0  0  0
    6.5765    7.6677    0.0000 H   0  0  0  0  0  0  0  0  0  0  0  0
    3.5049    0.4665    0.0000 H   0  0  0  0  0  0  0  0  0  0  0  0
    4.2473    0.0000    0.0000 H   0  0  0  0  0  0  0  0  0  0  0  0
    5.1935    0.8519    0.0000 H   0  0  0  0  0  0  0  0  0  0  0  0
    5.9360    0.3854    0.0000 H   0  0  0  0  0  0  0  0  0  0  0  0
    6.4024    1.1278    0.0000 H   0  0  0  0  0  0  0  0  0  0  0  0
    4.7138    0.7424    0.0000 H   0  0  0  0  0  0  0  0  0  0  0  0
    8.0255    5.1802    0.0000 H   0  0  0  0  0  0  0  0  0  0  0  0
    3.8049    8.6089    0.0000 H   0  0  0  0  0  0  0  0  0  0  0  0
    6.9010    9.5639    0.0000 H   0  0  0  0  0  0  0  0  0  0  0  0
    4.1654   10.1883    0.0000 H   0  0  0  0  0  0  0  0  0  0  0  0
    5.7134   10.6658    0.0000 H   0  0  0  0  0  0  0  0  0  0  0  0
    1.0000    5.0811    0.0000 H   0  0  0  0  0  0  0  0  0  0  0  0
   11.3682    5.0811    0.0000 H   0  0  0  0  0  0  0  0  0  0  0  0
  1 24  1  0  0  0  0
  2 53  1  0  0  0  0
  3 54  1  0  0  0  0
  4 25  1  0  0  0  0
  5 15  2  0  0  0  0
  6  9  1  0  0  0  0
  6 11  1  0  0  0  0
  6 15  1  0  0  0  0
  7 10  1  0  0  0  0
  7 12  1  0  0  0  0
  7 13  1  0  0  0  0
  8 16  2  0  0  0  0
  8 17  1  0  0  0  0
  9 10  1  0  0  0  0
  9 30  1  0  0  0  0
  9 31  1  0  0  0  0
 10 32  1  0  0  0  0
 10 33  1  0  0  0  0
 11 14  2  0  0  0  0
 11 18  1  0  0  0  0
 12 20  1  0  0  0  0
 12 36  1  0  0  0  0
 12 37  1  0  0  0  0
 13 21  1  0  0  0  0
 13 34  1  0  0  0  0
 13 35  1  0  0  0  0
 14 16  1  0  0  0  0
 14 19  1  0  0  0  0
 15 17  1  0  0  0  0
 16 22  1  0  0  0  0
 17 38  1  0  0  0  0
 17 39  1  0  0  0  0
 18 23  2  0  0  0  0
 18 40  1  0  0  0  0
 19 24  2  0  0  0  0
 19 41  1  0  0  0  0
 20 42  1  0  0  0  0
 20 43  1  0  0  0  0
 20 47  1  0  0  0  0
 21 44  1  0  0  0  0
 21 45  1  0  0  0  0
 21 46  1  0  0  0  0
 22 25  1  0  0  0  0
 22 26  2  0  0  0  0
 23 24  1  0  0  0  0
 23 48  1  0  0  0  0
 25 27  2  0  0  0  0
 26 28  1  0  0  0  0
 26 49  1  0  0  0  0
 27 29  1  0  0  0  0
 27 50  1  0  0  0  0
 28 29  2  0  0  0  0
 28 51  1  0  0  0  0
 29 52  1  0  0  0  0
M  END
> <PUBCHEM_COMPOUND_CID>
14434

> <PUBCHEM_COMPOUND_CANONICALIZED>
1

> <PUBCHEM_CACTVS_COMPLEXITY>
540

> <PUBCHEM_CACTVS_HBOND_ACCEPTOR>
4

> <PUBCHEM_CACTVS_HBOND_DONOR>
2

> <PUBCHEM_CACTVS_ROTATABLE_BOND>
6

> <PUBCHEM_CACTVS_SUBSKEYS>
AAADceB7IQAGAAAAAAAAAAAAAAAAAAAAAAAwYAAABAAAAAABQAAAHwIAAAAADArBmCwywIMAAACoAyVyVACCAAAhBwAIiACoZpgIYKLBk5GUIAhghgDIyAcQgMAOAABAIAACAAAAAIBAAAQAAAAAAAAAAA==

> <PUBCHEM_IUPAC_OPENEYE_NAME>
7-chloro-1-[2-(diethylamino)ethyl]-5-(2-fluorophenyl)-3H-1,4-benzodiazepin-2-one dihydrochloride

> <PUBCHEM_IUPAC_CAS_NAME>
7-chloro-1-[2-(diethylamino)ethyl]-5-(2-fluorophenyl)-3H-1,4-benzodiazepin-2-one dihydrochloride

> <PUBCHEM_IUPAC_NAME>
7-chloro-1-[2-(diethylamino)ethyl]-5-(2-fluorophenyl)-3H-1,4-benzodiazepin-2-one dihydrochloride

> <PUBCHEM_IUPAC_SYSTEMATIC_NAME>
7-chloranyl-1-[2-(diethylamino)ethyl]-5-(2-fluorophenyl)-3H-1,4-benzodiazepin-2-one dihydrochloride

> <PUBCHEM_IUPAC_TRADITIONAL_NAME>
7-chloro-1-[2-(diethylamino)ethyl]-5-(2-fluorophenyl)-3H-1,4-benzodiazepin-2-one dihydrochloride

> <PUBCHEM_IUPAC_INCHI>
InChI=1S/C21H23ClFN3O.2ClH/c1-3-25(4-2)11-12-26-19-10-9-15(22)13-17(19)21(24-14-20(26)27)16-7-5-6-8-18(16)23;;/h5-10,13H,3-4,11-12,14H2,1-2H3;2*1H

> <PUBCHEM_IUPAC_INCHIKEY>
ZIIJJOPLRSCQNX-UHFFFAOYSA-N

> <PUBCHEM_EXACT_MASS>
459.104724

> <PUBCHEM_MOLECULAR_FORMULA>
C21H25Cl3FN3O

> <PUBCHEM_MOLECULAR_WEIGHT>
460.800103

> <PUBCHEM_OPENEYE_CAN_SMILES>
CCN(CC)CCN1C(=O)CN=C(C2=C1C=CC(=C2)Cl)C3=CC=CC=C3F.Cl.Cl

> <PUBCHEM_OPENEYE_ISO_SMILES>
CCN(CC)CCN1C(=O)CN=C(C2=C1C=CC(=C2)Cl)C3=CC=CC=C3F.Cl.Cl

> <PUBCHEM_CACTVS_TPSA>
35.9

> <PUBCHEM_MONOISOTOPIC_WEIGHT>
459.104724

> <PUBCHEM_TOTAL_CHARGE>
0

> <PUBCHEM_HEAVY_ATOM_COUNT>
29

> <PUBCHEM_ATOM_DEF_STEREO_COUNT>
0

> <PUBCHEM_ATOM_UDEF_STEREO_COUNT>
0

> <PUBCHEM_BOND_DEF_STEREO_COUNT>
0

> <PUBCHEM_BOND_UDEF_STEREO_COUNT>
0

> <PUBCHEM_ISOTOPIC_ATOM_COUNT>
0

> <PUBCHEM_COMPONENT_COUNT>
3

> <PUBCHEM_CACTVS_TAUTO_COUNT>
2

> <PUBCHEM_COORDINATE_TYPE>
1
5
255

> <PUBCHEM_BONDANNOTATIONS>
11  14  8
11  18  8
14  19  8
18  23  8
19  24  8
22  25  8
22  26  8
23  24  8
25  27  8
26  28  8
27  29  8
28  29  8

$$$$

