7550
  -OEChem-06261202092D

 27 26  0     0  0  0  0  0  0999 V2000
    7.4040    3.1200    0.0000 Br  0  5  0  0  0  0  0  0  0  0  0  0
    2.2690    3.6200    0.0000 O   0  0  0  0  0  0  0  0  0  0  0  0
    3.1350    5.1200    0.0000 O   0  0  0  0  0  0  0  0  0  0  0  0
    4.0010    1.6200    0.0000 N   0  3  0  0  0  0  0  0  0  0  0  0
    1.4030    5.1200    0.0000 N   0  0  0  0  0  0  0  0  0  0  0  0
    3.1350    3.1200    0.0000 C   0  0  0  0  0  0  0  0  0  0  0  0
    3.1350    2.1200    0.0000 C   0  0  0  0  0  0  0  0  0  0  0  0
    4.8671    2.1200    0.0000 C   0  0  0  0  0  0  0  0  0  0  0  0
    4.0010    3.6200    0.0000 C   0  0  0  0  0  0  0  0  0  0  0  0
    4.8671    3.1200    0.0000 C   0  0  0  0  0  0  0  0  0  0  0  0
    4.0010    0.6200    0.0000 C   0  0  0  0  0  0  0  0  0  0  0  0
    2.2690    4.6200    0.0000 C   0  0  0  0  0  0  0  0  0  0  0  0
    1.4030    6.1200    0.0000 C   0  0  0  0  0  0  0  0  0  0  0  0
    0.5369    4.6200    0.0000 C   0  0  0  0  0  0  0  0  0  0  0  0
    2.5981    1.8100    0.0000 H   0  0  0  0  0  0  0  0  0  0  0  0
    5.4040    1.8100    0.0000 H   0  0  0  0  0  0  0  0  0  0  0  0
    4.0010    4.2400    0.0000 H   0  0  0  0  0  0  0  0  0  0  0  0
    5.4040    3.4300    0.0000 H   0  0  0  0  0  0  0  0  0  0  0  0
    3.3810    0.6200    0.0000 H   0  0  0  0  0  0  0  0  0  0  0  0
    4.0010    0.0000    0.0000 H   0  0  0  0  0  0  0  0  0  0  0  0
    4.6210    0.6200    0.0000 H   0  0  0  0  0  0  0  0  0  0  0  0
    0.2269    5.1569    0.0000 H   0  0  0  0  0  0  0  0  0  0  0  0
    0.0000    4.3100    0.0000 H   0  0  0  0  0  0  0  0  0  0  0  0
    0.8469    4.0831    0.0000 H   0  0  0  0  0  0  0  0  0  0  0  0
    2.0230    6.1200    0.0000 H   0  0  0  0  0  0  0  0  0  0  0  0
    1.4030    6.7400    0.0000 H   0  0  0  0  0  0  0  0  0  0  0  0
    0.7830    6.1200    0.0000 H   0  0  0  0  0  0  0  0  0  0  0  0
  2  6  1  0  0  0  0
  2 12  1  0  0  0  0
  3 12  2  0  0  0  0
  4  7  1  0  0  0  0
  4  8  2  0  0  0  0
  4 11  1  0  0  0  0
  5 12  1  0  0  0  0
  5 13  1  0  0  0  0
  5 14  1  0  0  0  0
  6  7  2  0  0  0  0
  6  9  1  0  0  0  0
  7 15  1  0  0  0  0
  8 10  1  0  0  0  0
  8 16  1  0  0  0  0
  9 10  2  0  0  0  0
  9 17  1  0  0  0  0
 10 18  1  0  0  0  0
 11 19  1  0  0  0  0
 11 20  1  0  0  0  0
 11 21  1  0  0  0  0
 13 25  1  0  0  0  0
 13 26  1  0  0  0  0
 13 27  1  0  0  0  0
 14 22  1  0  0  0  0
 14 23  1  0  0  0  0
 14 24  1  0  0  0  0
M  CHG  2   1  -1   4   1
M  END
> <PUBCHEM_COMPOUND_CID>
7550

> <PUBCHEM_COMPOUND_CANONICALIZED>
1

> <PUBCHEM_CACTVS_COMPLEXITY>
183

> <PUBCHEM_CACTVS_HBOND_ACCEPTOR>
3

> <PUBCHEM_CACTVS_HBOND_DONOR>
0

> <PUBCHEM_CACTVS_ROTATABLE_BOND>
2

> <PUBCHEM_CACTVS_SUBSKEYS>
AAADccBzMAAAEAAAAAAAAAAAAAAAAAAAAAAsAAAAAAAAAAABgAAAHgAAAAAACATBkgQ+jpMMFACoADBnXASCiCAxYiAI2CA/bJgOJuLEsZuNMihkwhHY6AYwAAAAAAAAAAAAAAAAAAAAAAAAAAAAAAAAAA==

> <PUBCHEM_IUPAC_OPENEYE_NAME>
(1-methylpyridin-1-ium-3-yl) N,N-dimethylcarbamate bromide

> <PUBCHEM_IUPAC_CAS_NAME>
N,N-dimethylcarbamic acid (1-methyl-3-pyridin-1-iumyl) ester bromide

> <PUBCHEM_IUPAC_NAME>
(1-methylpyridin-1-ium-3-yl) N,N-dimethylcarbamate bromide

> <PUBCHEM_IUPAC_SYSTEMATIC_NAME>
(1-methylpyridin-1-ium-3-yl) N,N-dimethylcarbamate bromide

> <PUBCHEM_IUPAC_TRADITIONAL_NAME>
N,N-dimethylcarbamic acid (1-methylpyridin-1-ium-3-yl) ester bromide

> <PUBCHEM_IUPAC_INCHI>
InChI=1S/C9H13N2O2.BrH/c1-10(2)9(12)13-8-5-4-6-11(3)7-8;/h4-7H,1-3H3;1H/q+1;/p-1

> <PUBCHEM_IUPAC_INCHIKEY>
VNYBTNPBYXSMOO-UHFFFAOYSA-M

> <PUBCHEM_EXACT_MASS>
260.01604

> <PUBCHEM_MOLECULAR_FORMULA>
C9H13BrN2O2

> <PUBCHEM_MOLECULAR_WEIGHT>
261.11572

> <PUBCHEM_OPENEYE_CAN_SMILES>
C[N+]1=CC=CC(=C1)OC(=O)N(C)C.[Br-]

> <PUBCHEM_OPENEYE_ISO_SMILES>
C[N+]1=CC=CC(=C1)OC(=O)N(C)C.[Br-]

> <PUBCHEM_CACTVS_TPSA>
33.4

> <PUBCHEM_MONOISOTOPIC_WEIGHT>
260.01604

> <PUBCHEM_TOTAL_CHARGE>
0

> <PUBCHEM_HEAVY_ATOM_COUNT>
14

> <PUBCHEM_ATOM_DEF_STEREO_COUNT>
0

> <PUBCHEM_ATOM_UDEF_STEREO_COUNT>
0

> <PUBCHEM_BOND_DEF_STEREO_COUNT>
0

> <PUBCHEM_BOND_UDEF_STEREO_COUNT>
0

> <PUBCHEM_ISOTOPIC_ATOM_COUNT>
0

> <PUBCHEM_COMPONENT_COUNT>
2

> <PUBCHEM_CACTVS_TAUTO_COUNT>
1

> <PUBCHEM_COORDINATE_TYPE>
1
5
255

> <PUBCHEM_BONDANNOTATIONS>
4  7  8
4  8  8
6  7  8
6  9  8
8  10  8
9  10  8

$$$$

