17396615
  -OEChem-06241222572D

 51 53  0     0  0  0  0  0  0999 V2000
    2.6691   -2.7614    0.0000 S   0  0  0  0  0  0  0  0  0  0  0  0
    5.3147   -3.1682    0.0000 O   0  0  0  0  0  0  0  0  0  0  0  0
    6.1808    1.3318    0.0000 O   0  0  0  0  0  0  0  0  0  0  0  0
    4.4487    0.3318    0.0000 N   0  0  0  0  0  0  0  0  0  0  0  0
    4.4487   -1.6682    0.0000 N   0  0  0  0  0  0  0  0  0  0  0  0
    5.3147    2.8318    0.0000 N   0  0  0  0  0  0  0  0  0  0  0  0
    5.3147   -0.1682    0.0000 C   0  0  0  0  0  0  0  0  0  0  0  0
    3.5827   -0.1682    0.0000 C   0  0  0  0  0  0  0  0  0  0  0  0
    5.3147   -1.1682    0.0000 C   0  0  0  0  0  0  0  0  0  0  0  0
    3.5827   -1.1682    0.0000 C   0  0  0  0  0  0  0  0  0  0  0  0
    4.4487    1.3318    0.0000 C   0  0  0  0  0  0  0  0  0  0  0  0
    4.4487   -2.6682    0.0000 C   0  0  0  0  0  0  0  0  0  0  0  0
    5.3147    1.8318    0.0000 C   0  0  0  0  0  0  0  0  0  0  0  0
    3.5827   -3.1682    0.0000 C   0  0  0  0  0  0  0  0  0  0  0  0
    3.4782   -4.1627    0.0000 C   0  0  0  0  0  0  0  0  0  0  0  0
    6.1808    3.3318    0.0000 C   0  0  0  0  0  0  0  0  0  0  0  0
    7.0468    2.8318    0.0000 C   0  0  0  0  0  0  0  0  0  0  0  0
    2.5000   -4.3706    0.0000 C   0  0  0  0  0  0  0  0  0  0  0  0
    7.0468    1.8318    0.0000 C   0  0  0  0  0  0  0  0  0  0  0  0
    4.2213   -4.8318    0.0000 C   0  0  0  0  0  0  0  0  0  0  0  0
    2.0000   -3.5046    0.0000 C   0  0  0  0  0  0  0  0  0  0  0  0
    6.1808    4.3318    0.0000 C   0  0  0  0  0  0  0  0  0  0  0  0
    7.9128    3.3318    0.0000 C   0  0  0  0  0  0  0  0  0  0  0  0
    7.0468    4.8318    0.0000 C   0  0  0  0  0  0  0  0  0  0  0  0
    7.9128    4.3318    0.0000 C   0  0  0  0  0  0  0  0  0  0  0  0
    7.9128    1.3318    0.0000 C   0  0  0  0  0  0  0  0  0  0  0  0
    3.3706    0.4144    0.0000 H   0  0  0  0  0  0  0  0  0  0  0  0
    2.9721   -0.2758    0.0000 H   0  0  0  0  0  0  0  0  0  0  0  0
    5.9253   -0.2758    0.0000 H   0  0  0  0  0  0  0  0  0  0  0  0
    5.5268    0.4144    0.0000 H   0  0  0  0  0  0  0  0  0  0  0  0
    5.5268   -1.7508    0.0000 H   0  0  0  0  0  0  0  0  0  0  0  0
    5.9253   -1.0605    0.0000 H   0  0  0  0  0  0  0  0  0  0  0  0
    2.9721   -1.0605    0.0000 H   0  0  0  0  0  0  0  0  0  0  0  0
    3.3706   -1.7508    0.0000 H   0  0  0  0  0  0  0  0  0  0  0  0
    4.2366    1.9144    0.0000 H   0  0  0  0  0  0  0  0  0  0  0  0
    3.8381    1.2242    0.0000 H   0  0  0  0  0  0  0  0  0  0  0  0
    4.7778    3.1418    0.0000 H   0  0  0  0  0  0  0  0  0  0  0  0
    2.2478   -4.9370    0.0000 H   0  0  0  0  0  0  0  0  0  0  0  0
    6.4362    1.9395    0.0000 H   0  0  0  0  0  0  0  0  0  0  0  0
    6.8347    1.2492    0.0000 H   0  0  0  0  0  0  0  0  0  0  0  0
    3.8064   -5.2926    0.0000 H   0  0  0  0  0  0  0  0  0  0  0  0
    4.6820   -5.2467    0.0000 H   0  0  0  0  0  0  0  0  0  0  0  0
    4.6362   -4.3711    0.0000 H   0  0  0  0  0  0  0  0  0  0  0  0
    1.3834   -3.4398    0.0000 H   0  0  0  0  0  0  0  0  0  0  0  0
    5.6438    4.6418    0.0000 H   0  0  0  0  0  0  0  0  0  0  0  0
    8.4497    3.0218    0.0000 H   0  0  0  0  0  0  0  0  0  0  0  0
    7.0468    5.4518    0.0000 H   0  0  0  0  0  0  0  0  0  0  0  0
    8.4497    4.6418    0.0000 H   0  0  0  0  0  0  0  0  0  0  0  0
    7.6028    0.7949    0.0000 H   0  0  0  0  0  0  0  0  0  0  0  0
    8.4497    1.0218    0.0000 H   0  0  0  0  0  0  0  0  0  0  0  0
    8.2228    1.8688    0.0000 H   0  0  0  0  0  0  0  0  0  0  0  0
  1 14  1  0  0  0  0
  1 21  1  0  0  0  0
  2 12  2  0  0  0  0
  3 13  2  0  0  0  0
  4  7  1  0  0  0  0
  4  8  1  0  0  0  0
  4 11  1  0  0  0  0
  5  9  1  0  0  0  0
  5 10  1  0  0  0  0
  5 12  1  0  0  0  0
  6 13  1  0  0  0  0
  6 16  1  0  0  0  0
  6 37  1  0  0  0  0
  7  9  1  0  0  0  0
  7 29  1  0  0  0  0
  7 30  1  0  0  0  0
  8 10  1  0  0  0  0
  8 27  1  0  0  0  0
  8 28  1  0  0  0  0
  9 31  1  0  0  0  0
  9 32  1  0  0  0  0
 10 33  1  0  0  0  0
 10 34  1  0  0  0  0
 11 13  1  0  0  0  0
 11 35  1  0  0  0  0
 11 36  1  0  0  0  0
 12 14  1  0  0  0  0
 14 15  2  0  0  0  0
 15 18  1  0  0  0  0
 15 20  1  0  0  0  0
 16 17  1  0  0  0  0
 16 22  2  0  0  0  0
 17 19  1  0  0  0  0
 17 23  2  0  0  0  0
 18 21  2  0  0  0  0
 18 38  1  0  0  0  0
 19 26  1  0  0  0  0
 19 39  1  0  0  0  0
 19 40  1  0  0  0  0
 20 41  1  0  0  0  0
 20 42  1  0  0  0  0
 20 43  1  0  0  0  0
 21 44  1  0  0  0  0
 22 24  1  0  0  0  0
 22 45  1  0  0  0  0
 23 25  1  0  0  0  0
 23 46  1  0  0  0  0
 24 25  2  0  0  0  0
 24 47  1  0  0  0  0
 25 48  1  0  0  0  0
 26 49  1  0  0  0  0
 26 50  1  0  0  0  0
 26 51  1  0  0  0  0
M  END
> <PUBCHEM_COMPOUND_CID>
17396615

> <PUBCHEM_COMPOUND_CANONICALIZED>
1

> <PUBCHEM_CACTVS_COMPLEXITY>
493

> <PUBCHEM_CACTVS_HBOND_ACCEPTOR>
4

> <PUBCHEM_CACTVS_HBOND_DONOR>
1

> <PUBCHEM_CACTVS_ROTATABLE_BOND>
5

> <PUBCHEM_CACTVS_SUBSKEYS>
AAADceB7MABAAAAAAAAAAAAAAAAAASAAAAA8QAAAAAAAAAABwAAAHgQQAAAADAjF2ASywYPAAAiMAiVSUACDAIAlChBIiBmIZMgIYDLglbGUIQhglgDoyQcYgIAOAAAAAAACAAAAAAAAAAQAAAAAAAAAAA==

> <PUBCHEM_IUPAC_OPENEYE_NAME>
N-(2-ethylphenyl)-2-[4-(3-methylthiophene-2-carbonyl)piperazin-1-yl]acetamide

> <PUBCHEM_IUPAC_CAS_NAME>
N-(2-ethylphenyl)-2-[4-[(3-methyl-2-thiophenyl)-oxomethyl]-1-piperazinyl]acetamide

> <PUBCHEM_IUPAC_NAME>
N-(2-ethylphenyl)-2-[4-(3-methylthiophene-2-carbonyl)piperazin-1-yl]acetamide

> <PUBCHEM_IUPAC_SYSTEMATIC_NAME>
N-(2-ethylphenyl)-2-[4-(3-methylthiophen-2-yl)carbonylpiperazin-1-yl]ethanamide

> <PUBCHEM_IUPAC_TRADITIONAL_NAME>
N-(2-ethylphenyl)-2-[4-(3-methylthiophene-2-carbonyl)piperazino]acetamide

> <PUBCHEM_IUPAC_INCHI>
InChI=1S/C20H25N3O2S/c1-3-16-6-4-5-7-17(16)21-18(24)14-22-9-11-23(12-10-22)20(25)19-15(2)8-13-26-19/h4-8,13H,3,9-12,14H2,1-2H3,(H,21,24)

> <PUBCHEM_IUPAC_INCHIKEY>
LDEFBWBDFAKIJG-UHFFFAOYSA-N

> <PUBCHEM_XLOGP3_AA>
3.3

> <PUBCHEM_EXACT_MASS>
371.166748

> <PUBCHEM_MOLECULAR_FORMULA>
C20H25N3O2S

> <PUBCHEM_MOLECULAR_WEIGHT>
371.4964

> <PUBCHEM_OPENEYE_CAN_SMILES>
CCC1=CC=CC=C1NC(=O)CN2CCN(CC2)C(=O)C3=C(C=CS3)C

> <PUBCHEM_OPENEYE_ISO_SMILES>
CCC1=CC=CC=C1NC(=O)CN2CCN(CC2)C(=O)C3=C(C=CS3)C

> <PUBCHEM_CACTVS_TPSA>
80.9

> <PUBCHEM_MONOISOTOPIC_WEIGHT>
371.166748

> <PUBCHEM_TOTAL_CHARGE>
0

> <PUBCHEM_HEAVY_ATOM_COUNT>
26

> <PUBCHEM_ATOM_DEF_STEREO_COUNT>
0

> <PUBCHEM_ATOM_UDEF_STEREO_COUNT>
0

> <PUBCHEM_BOND_DEF_STEREO_COUNT>
0

> <PUBCHEM_BOND_UDEF_STEREO_COUNT>
0

> <PUBCHEM_ISOTOPIC_ATOM_COUNT>
0

> <PUBCHEM_COMPONENT_COUNT>
1

> <PUBCHEM_CACTVS_TAUTO_COUNT>
3

> <PUBCHEM_COORDINATE_TYPE>
1
5
255

> <PUBCHEM_BONDANNOTATIONS>
1  14  8
1  21  8
14  15  8
15  18  8
16  17  8
16  22  8
17  23  8
18  21  8
22  24  8
23  25  8
24  25  8

$$$$

