17395818
  -OEChem-06241222522D

 42 45  0     1  0  0  0  0  0999 V2000
    7.0468    1.2817    0.0000 O   0  0  0  0  0  0  0  0  0  0  0  0
    7.0468    3.2817    0.0000 O   0  0  0  0  0  0  0  0  0  0  0  0
    5.3147    0.2817    0.0000 O   0  0  0  0  0  0  0  0  0  0  0  0
    3.4782    0.2872    0.0000 N   0  0  0  0  0  0  0  0  0  0  0  0
    4.4487    1.7817    0.0000 N   0  0  0  0  0  0  0  0  0  0  0  0
    2.5000    0.0793    0.0000 N   0  0  0  0  0  0  0  0  0  0  0  0
    6.1808    1.7817    0.0000 C   0  0  3  0  0  0  0  0  0  0  0  0
    6.1808    2.7817    0.0000 C   0  0  0  0  0  0  0  0  0  0  0  0
    5.3147    1.2817    0.0000 C   0  0  0  0  0  0  0  0  0  0  0  0
    3.5827    1.2817    0.0000 C   0  0  0  0  0  0  0  0  0  0  0  0
    4.2213   -0.3819    0.0000 C   0  0  0  0  0  0  0  0  0  0  0  0
    7.9128    1.7817    0.0000 C   0  0  0  0  0  0  0  0  0  0  0  0
    7.9128    2.7817    0.0000 C   0  0  0  0  0  0  0  0  0  0  0  0
    4.0134   -1.3601    0.0000 C   0  0  0  0  0  0  0  0  0  0  0  0
    2.6691    1.6884    0.0000 C   0  0  0  0  0  0  0  0  0  0  0  0
    8.8067    1.2471    0.0000 C   0  0  0  0  0  0  0  0  0  0  0  0
    8.8067    3.3164    0.0000 C   0  0  0  0  0  0  0  0  0  0  0  0
    2.0000    0.9453    0.0000 C   0  0  0  0  0  0  0  0  0  0  0  0
    3.0623   -1.6691    0.0000 C   0  0  0  0  0  0  0  0  0  0  0  0
    4.7565   -2.0292    0.0000 C   0  0  0  0  0  0  0  0  0  0  0  0
    9.7128    1.7609    0.0000 C   0  0  0  0  0  0  0  0  0  0  0  0
    9.7128    2.8025    0.0000 C   0  0  0  0  0  0  0  0  0  0  0  0
    2.8544   -2.6472    0.0000 C   0  0  0  0  0  0  0  0  0  0  0  0
    4.5486   -3.0074    0.0000 C   0  0  0  0  0  0  0  0  0  0  0  0
    3.5976   -3.3164    0.0000 C   0  0  0  0  0  0  0  0  0  0  0  0
    6.1808    1.1617    0.0000 H   0  0  0  0  0  0  0  0  0  0  0  0
    5.9687    3.3643    0.0000 H   0  0  0  0  0  0  0  0  0  0  0  0
    5.5702    2.6741    0.0000 H   0  0  0  0  0  0  0  0  0  0  0  0
    4.7962   -0.6142    0.0000 H   0  0  0  0  0  0  0  0  0  0  0  0
    4.5498    0.1439    0.0000 H   0  0  0  0  0  0  0  0  0  0  0  0
    4.4487    2.4017    0.0000 H   0  0  0  0  0  0  0  0  0  0  0  0
    2.5402    2.2949    0.0000 H   0  0  0  0  0  0  0  0  0  0  0  0
    8.7996    0.6271    0.0000 H   0  0  0  0  0  0  0  0  0  0  0  0
    8.7996    3.9363    0.0000 H   0  0  0  0  0  0  0  0  0  0  0  0
    1.3834    1.0101    0.0000 H   0  0  0  0  0  0  0  0  0  0  0  0
    2.6016   -1.2542    0.0000 H   0  0  0  0  0  0  0  0  0  0  0  0
    5.3462   -1.8376    0.0000 H   0  0  0  0  0  0  0  0  0  0  0  0
   10.2485    1.4488    0.0000 H   0  0  0  0  0  0  0  0  0  0  0  0
   10.2485    3.1146    0.0000 H   0  0  0  0  0  0  0  0  0  0  0  0
    2.2648   -2.8388    0.0000 H   0  0  0  0  0  0  0  0  0  0  0  0
    5.0094   -3.4222    0.0000 H   0  0  0  0  0  0  0  0  0  0  0  0
    3.4686   -3.9228    0.0000 H   0  0  0  0  0  0  0  0  0  0  0  0
  1  7  1  0  0  0  0
  1 12  1  0  0  0  0
  2  8  1  0  0  0  0
  2 13  1  0  0  0  0
  3  9  2  0  0  0  0
  4  6  1  0  0  0  0
  4 10  1  0  0  0  0
  4 11  1  0  0  0  0
  5  9  1  0  0  0  0
  5 10  1  0  0  0  0
  5 31  1  0  0  0  0
  6 18  2  0  0  0  0
  7  8  1  0  0  0  0
  7  9  1  0  0  0  0
  7 26  1  0  0  0  0
  8 27  1  0  0  0  0
  8 28  1  0  0  0  0
 10 15  2  0  0  0  0
 11 14  1  0  0  0  0
 11 29  1  0  0  0  0
 11 30  1  0  0  0  0
 12 13  1  0  0  0  0
 12 16  2  0  0  0  0
 13 17  2  0  0  0  0
 14 19  2  0  0  0  0
 14 20  1  0  0  0  0
 15 18  1  0  0  0  0
 15 32  1  0  0  0  0
 16 21  1  0  0  0  0
 16 33  1  0  0  0  0
 17 22  1  0  0  0  0
 17 34  1  0  0  0  0
 18 35  1  0  0  0  0
 19 23  1  0  0  0  0
 19 36  1  0  0  0  0
 20 24  2  0  0  0  0
 20 37  1  0  0  0  0
 21 22  2  0  0  0  0
 21 38  1  0  0  0  0
 22 39  1  0  0  0  0
 23 25  2  0  0  0  0
 23 40  1  0  0  0  0
 24 25  1  0  0  0  0
 24 41  1  0  0  0  0
 25 42  1  0  0  0  0
M  END
> <PUBCHEM_COMPOUND_CID>
17395818

> <PUBCHEM_COMPOUND_CANONICALIZED>
1

> <PUBCHEM_CACTVS_COMPLEXITY>
455

> <PUBCHEM_CACTVS_HBOND_ACCEPTOR>
4

> <PUBCHEM_CACTVS_HBOND_DONOR>
1

> <PUBCHEM_CACTVS_ROTATABLE_BOND>
4

> <PUBCHEM_CACTVS_SUBSKEYS>
AAADceB7MAAAAAAAAAAAAAAAAAAAAWAAAAA0YIAAAAAAAACR0AAAHgAYAAAADBThmgY9tpLIBACqAjN3dAKSDAMhogAd2CF+7JiPJqbE+V+HvCr+/RPaqAeQwAAOAAAAAAAAQAAAAAAAAACAAAAAAAAAAA==

> <PUBCHEM_IUPAC_OPENEYE_NAME>
N-(2-benzylpyrazol-3-yl)-2,3-dihydro-1,4-benzodioxine-3-carboxamide

> <PUBCHEM_IUPAC_CAS_NAME>
N-[2-(phenylmethyl)-3-pyrazolyl]-2,3-dihydro-1,4-benzodioxin-3-carboxamide

> <PUBCHEM_IUPAC_NAME>
N-(2-benzylpyrazol-3-yl)-2,3-dihydro-1,4-benzodioxine-3-carboxamide

> <PUBCHEM_IUPAC_SYSTEMATIC_NAME>
N-[2-(phenylmethyl)pyrazol-3-yl]-2,3-dihydro-1,4-benzodioxine-3-carboxamide

> <PUBCHEM_IUPAC_TRADITIONAL_NAME>
N-(2-benzylpyrazol-3-yl)-2,3-dihydro-1,4-benzodioxin-3-carboxamide

> <PUBCHEM_IUPAC_INCHI>
InChI=1S/C19H17N3O3/c23-19(17-13-24-15-8-4-5-9-16(15)25-17)21-18-10-11-20-22(18)12-14-6-2-1-3-7-14/h1-11,17H,12-13H2,(H,21,23)

> <PUBCHEM_IUPAC_INCHIKEY>
AUCLGUKOCLHNCV-UHFFFAOYSA-N

> <PUBCHEM_XLOGP3_AA>
2.8

> <PUBCHEM_EXACT_MASS>
335.126991

> <PUBCHEM_MOLECULAR_FORMULA>
C19H17N3O3

> <PUBCHEM_MOLECULAR_WEIGHT>
335.35658

> <PUBCHEM_OPENEYE_CAN_SMILES>
C1C(OC2=CC=CC=C2O1)C(=O)NC3=CC=NN3CC4=CC=CC=C4

> <PUBCHEM_OPENEYE_ISO_SMILES>
C1C(OC2=CC=CC=C2O1)C(=O)NC3=CC=NN3CC4=CC=CC=C4

> <PUBCHEM_CACTVS_TPSA>
65.4

> <PUBCHEM_MONOISOTOPIC_WEIGHT>
335.126991

> <PUBCHEM_TOTAL_CHARGE>
0

> <PUBCHEM_HEAVY_ATOM_COUNT>
25

> <PUBCHEM_ATOM_DEF_STEREO_COUNT>
0

> <PUBCHEM_ATOM_UDEF_STEREO_COUNT>
1

> <PUBCHEM_BOND_DEF_STEREO_COUNT>
0

> <PUBCHEM_BOND_UDEF_STEREO_COUNT>
0

> <PUBCHEM_ISOTOPIC_ATOM_COUNT>
0

> <PUBCHEM_COMPONENT_COUNT>
1

> <PUBCHEM_CACTVS_TAUTO_COUNT>
7

> <PUBCHEM_COORDINATE_TYPE>
1
5
255

> <PUBCHEM_BONDANNOTATIONS>
10  15  8
12  13  8
12  16  8
13  17  8
14  19  8
14  20  8
15  18  8
16  21  8
17  22  8
19  23  8
20  24  8
21  22  8
23  25  8
24  25  8
4  10  8
4  6  8
6  18  8
7  9  3

$$$$

