583343
  -OEChem-06241222452D

 29 30  0     1  0  0  0  0  0999 V2000
    2.5369    0.2172    0.0000 O   0  0  0  0  0  0  0  0  0  0  0  0
    2.5369    2.2172    0.0000 O   0  0  0  0  0  0  0  0  0  0  0  0
    6.8776   -1.3273    0.0000 O   0  0  0  0  0  0  0  0  0  0  0  0
    5.1456   -1.3073    0.0000 O   0  0  0  0  0  0  0  0  0  0  0  0
    4.2690    0.2172    0.0000 N   0  0  0  0  0  0  0  0  0  0  0  0
    4.2690    2.2172    0.0000 N   0  0  0  0  0  0  0  0  0  0  0  0
    6.0290    2.2519    0.0000 N   0  0  0  0  0  0  0  0  0  0  0  0
    6.9350    0.6964    0.0000 N   0  0  0  0  0  0  0  0  0  0  0  0
    3.4030    0.7172    0.0000 C   0  0  3  0  0  0  0  0  0  0  0  0
    3.4030    1.7172    0.0000 C   0  0  3  0  0  0  0  0  0  0  0  0
    5.1350    0.7172    0.0000 C   0  0  0  0  0  0  0  0  0  0  0  0
    5.1350    1.7172    0.0000 C   0  0  0  0  0  0  0  0  0  0  0  0
    6.0290    0.1826    0.0000 C   0  0  0  0  0  0  0  0  0  0  0  0
    6.0174   -0.8174    0.0000 C   0  0  0  0  0  0  0  0  0  0  0  0
    6.9350    1.7381    0.0000 C   0  0  0  0  0  0  0  0  0  0  0  0
    6.8660   -2.3273    0.0000 C   0  0  0  0  0  0  0  0  0  0  0  0
    7.7262   -2.8372    0.0000 C   0  0  0  0  0  0  0  0  0  0  0  0
    3.4030   -0.1328    0.0000 H   0  0  0  0  0  0  0  0  0  0  0  0
    3.4030    2.5672    0.0000 H   0  0  0  0  0  0  0  0  0  0  0  0
    4.2690   -0.4028    0.0000 H   0  0  0  0  0  0  0  0  0  0  0  0
    4.2690    2.8372    0.0000 H   0  0  0  0  0  0  0  0  0  0  0  0
    2.0000    0.5272    0.0000 H   0  0  0  0  0  0  0  0  0  0  0  0
    2.5369    2.8372    0.0000 H   0  0  0  0  0  0  0  0  0  0  0  0
    7.4708    2.0501    0.0000 H   0  0  0  0  0  0  0  0  0  0  0  0
    6.2567   -2.2125    0.0000 H   0  0  0  0  0  0  0  0  0  0  0  0
    6.6472   -2.9074    0.0000 H   0  0  0  0  0  0  0  0  0  0  0  0
    7.4100   -3.3706    0.0000 H   0  0  0  0  0  0  0  0  0  0  0  0
    8.2595   -3.1534    0.0000 H   0  0  0  0  0  0  0  0  0  0  0  0
    8.0424   -2.3039    0.0000 H   0  0  0  0  0  0  0  0  0  0  0  0
  1  9  1  0  0  0  0
  1 22  1  0  0  0  0
  2 10  1  0  0  0  0
  2 23  1  0  0  0  0
  3 14  1  0  0  0  0
  3 16  1  0  0  0  0
  4 14  2  0  0  0  0
  5  9  1  0  0  0  0
  5 11  1  0  0  0  0
  5 20  1  0  0  0  0
  6 10  1  0  0  0  0
  6 12  1  0  0  0  0
  6 21  1  0  0  0  0
  7 12  2  0  0  0  0
  7 15  1  0  0  0  0
  8 13  1  0  0  0  0
  8 15  2  0  0  0  0
  9 10  1  0  0  0  0
  9 18  1  0  0  0  0
 10 19  1  0  0  0  0
 11 12  1  0  0  0  0
 11 13  2  0  0  0  0
 13 14  1  0  0  0  0
 15 24  1  0  0  0  0
 16 17  1  0  0  0  0
 16 25  1  0  0  0  0
 16 26  1  0  0  0  0
 17 27  1  0  0  0  0
 17 28  1  0  0  0  0
 17 29  1  0  0  0  0
M  END
> <PUBCHEM_COMPOUND_CID>
583343

> <PUBCHEM_COMPOUND_CANONICALIZED>
1

> <PUBCHEM_CACTVS_COMPLEXITY>
290

> <PUBCHEM_CACTVS_HBOND_ACCEPTOR>
8

> <PUBCHEM_CACTVS_HBOND_DONOR>
4

> <PUBCHEM_CACTVS_ROTATABLE_BOND>
3

> <PUBCHEM_CACTVS_SUBSKEYS>
AAADccBzuAAAAAAAAAAAAAAAAAAAAAAAAAAsWAAAAAAAAACxgAAAHgAQCAAACAjhlgYH+JbIFgCoAQbxbASAgCk3EKABWKGoXFmDfhhA7OgXFYhOUAPRYWAkAAAAAAAAAAAAAAAAAAAAAAAAAAAAAAAAAA==

> <PUBCHEM_IUPAC_OPENEYE_NAME>
ethyl 6,7-dihydroxy-5,6,7,8-tetrahydropteridine-4-carboxylate

> <PUBCHEM_IUPAC_CAS_NAME>
6,7-dihydroxy-5,6,7,8-tetrahydropteridine-4-carboxylic acid ethyl ester

> <PUBCHEM_IUPAC_NAME>
ethyl 6,7-dihydroxy-5,6,7,8-tetrahydropteridine-4-carboxylate

> <PUBCHEM_IUPAC_SYSTEMATIC_NAME>
ethyl 6,7-bis(oxidanyl)-5,6,7,8-tetrahydropteridine-4-carboxylate

> <PUBCHEM_IUPAC_TRADITIONAL_NAME>
6,7-dihydroxy-5,6,7,8-tetrahydropteridine-4-carboxylic acid ethyl ester

> <PUBCHEM_IUPAC_INCHI>
InChI=1S/C9H12N4O4/c1-2-17-9(16)5-4-6(11-3-10-5)13-8(15)7(14)12-4/h3,7-8,12,14-15H,2H2,1H3,(H,10,11,13)

> <PUBCHEM_IUPAC_INCHIKEY>
GUTHJVWPHQUGBB-UHFFFAOYSA-N

> <PUBCHEM_XLOGP3_AA>
-0.2

> <PUBCHEM_EXACT_MASS>
240.085855

> <PUBCHEM_MOLECULAR_FORMULA>
C9H12N4O4

> <PUBCHEM_MOLECULAR_WEIGHT>
240.21598

> <PUBCHEM_OPENEYE_CAN_SMILES>
CCOC(=O)C1=C2C(=NC=N1)NC(C(N2)O)O

> <PUBCHEM_OPENEYE_ISO_SMILES>
CCOC(=O)C1=C2C(=NC=N1)NC(C(N2)O)O

> <PUBCHEM_CACTVS_TPSA>
117

> <PUBCHEM_MONOISOTOPIC_WEIGHT>
240.085855

> <PUBCHEM_TOTAL_CHARGE>
0

> <PUBCHEM_HEAVY_ATOM_COUNT>
17

> <PUBCHEM_ATOM_DEF_STEREO_COUNT>
0

> <PUBCHEM_ATOM_UDEF_STEREO_COUNT>
2

> <PUBCHEM_BOND_DEF_STEREO_COUNT>
0

> <PUBCHEM_BOND_UDEF_STEREO_COUNT>
0

> <PUBCHEM_ISOTOPIC_ATOM_COUNT>
0

> <PUBCHEM_COMPONENT_COUNT>
1

> <PUBCHEM_CACTVS_TAUTO_COUNT>
9

> <PUBCHEM_COORDINATE_TYPE>
1
5
255

> <PUBCHEM_BONDANNOTATIONS>
10  19  3
11  12  8
11  13  8
7  12  8
7  15  8
8  13  8
8  15  8
9  18  3

$$$$

