9955
  -OEChem-06261204122D

 15 16  0     0  0  0  0  0  0999 V2000
    6.0812    0.9177    0.0000 N   0  0  0  0  0  0  0  0  0  0  0  0
    6.0812   -0.6918    0.0000 N   0  0  0  0  0  0  0  0  0  0  0  0
    4.2690   -0.8870    0.0000 N   0  0  0  0  0  0  0  0  0  0  0  0
    3.4030    0.6130    0.0000 N   0  0  0  0  0  0  0  0  0  0  0  0
    2.5369   -0.8870    0.0000 N   0  0  0  0  0  0  0  0  0  0  0  0
    5.1350    0.6130    0.0000 C   0  0  0  0  0  0  0  0  0  0  0  0
    5.1350   -0.3870    0.0000 C   0  0  0  0  0  0  0  0  0  0  0  0
    4.2690    1.1130    0.0000 C   0  0  0  0  0  0  0  0  0  0  0  0
    6.6648    0.1130    0.0000 C   0  0  0  0  0  0  0  0  0  0  0  0
    3.4030   -0.3870    0.0000 C   0  0  0  0  0  0  0  0  0  0  0  0
    6.2738    1.5070    0.0000 H   0  0  0  0  0  0  0  0  0  0  0  0
    4.2690    1.7330    0.0000 H   0  0  0  0  0  0  0  0  0  0  0  0
    7.2848    0.1130    0.0000 H   0  0  0  0  0  0  0  0  0  0  0  0
    2.0000   -0.5770    0.0000 H   0  0  0  0  0  0  0  0  0  0  0  0
    2.5369   -1.5070    0.0000 H   0  0  0  0  0  0  0  0  0  0  0  0
  1  6  1  0  0  0  0
  1  9  1  0  0  0  0
  1 11  1  0  0  0  0
  2  7  1  0  0  0  0
  2  9  2  0  0  0  0
  3  7  2  0  0  0  0
  3 10  1  0  0  0  0
  4  8  1  0  0  0  0
  4 10  2  0  0  0  0
  5 10  1  0  0  0  0
  5 14  1  0  0  0  0
  5 15  1  0  0  0  0
  6  7  1  0  0  0  0
  6  8  2  0  0  0  0
  8 12  1  0  0  0  0
  9 13  1  0  0  0  0
M  END
> <PUBCHEM_COMPOUND_CID>
9955

> <PUBCHEM_COMPOUND_CANONICALIZED>
1

> <PUBCHEM_CACTVS_COMPLEXITY>
127

> <PUBCHEM_CACTVS_HBOND_ACCEPTOR>
4

> <PUBCHEM_CACTVS_HBOND_DONOR>
2

> <PUBCHEM_CACTVS_ROTATABLE_BOND>
0

> <PUBCHEM_CACTVS_SUBSKEYS>
AAADcYBjgAAAAAAAAAAAAAAAAAAAAWAAAAAsAAAAAAAAAFgB+AAAHAAQAAAACAjBFwQt8L7JkACgARZnZACAgC2REqABUaA4dBCASIBASEAUBAgIEAJAACAAAAAAAAAAAAAAAAAAAAAAAAAAAAAAAAAAAA==

> <PUBCHEM_IUPAC_OPENEYE_NAME>
7H-purin-2-amine

> <PUBCHEM_IUPAC_CAS_NAME>
7H-purin-2-amine

> <PUBCHEM_IUPAC_NAME>
7H-purin-2-amine

> <PUBCHEM_IUPAC_SYSTEMATIC_NAME>
7H-purin-2-amine

> <PUBCHEM_IUPAC_TRADITIONAL_NAME>
7H-purin-2-ylamine

> <PUBCHEM_IUPAC_INCHI>
InChI=1S/C5H5N5/c6-5-7-1-3-4(10-5)9-2-8-3/h1-2H,(H3,6,7,8,9,10)

> <PUBCHEM_IUPAC_INCHIKEY>
MWBWWFOAEOYUST-UHFFFAOYSA-N

> <PUBCHEM_XLOGP3_AA>
-0.2

> <PUBCHEM_EXACT_MASS>
135.054495

> <PUBCHEM_MOLECULAR_FORMULA>
C5H5N5

> <PUBCHEM_MOLECULAR_WEIGHT>
135.1267

> <PUBCHEM_OPENEYE_CAN_SMILES>
C1=C2C(=NC(=N1)N)N=CN2

> <PUBCHEM_OPENEYE_ISO_SMILES>
C1=C2C(=NC(=N1)N)N=CN2

> <PUBCHEM_CACTVS_TPSA>
80.5

> <PUBCHEM_MONOISOTOPIC_WEIGHT>
135.054495

> <PUBCHEM_TOTAL_CHARGE>
0

> <PUBCHEM_HEAVY_ATOM_COUNT>
10

> <PUBCHEM_ATOM_DEF_STEREO_COUNT>
0

> <PUBCHEM_ATOM_UDEF_STEREO_COUNT>
0

> <PUBCHEM_BOND_DEF_STEREO_COUNT>
0

> <PUBCHEM_BOND_UDEF_STEREO_COUNT>
0

> <PUBCHEM_ISOTOPIC_ATOM_COUNT>
0

> <PUBCHEM_COMPONENT_COUNT>
1

> <PUBCHEM_CACTVS_TAUTO_COUNT>
9

> <PUBCHEM_COORDINATE_TYPE>
1
5
255

> <PUBCHEM_BONDANNOTATIONS>
1  6  8
1  9  8
2  7  8
2  9  8
3  10  8
3  7  8
4  10  8
4  8  8
6  7  8
6  8  8

$$$$

