14022
  -OEChem-06241222412D

 32 31  0     0  0  0  0  0  0999 V2000
    3.7320   -0.2990    0.0000 Sn  0  0  0  0  0  0  0  0  0  0  0  0
    4.5981    0.2010    0.0000 C   0  0  0  0  0  0  0  0  0  0  0  0
    2.8660   -0.7990    0.0000 C   0  0  0  0  0  0  0  0  0  0  0  0
    3.2320    0.5670    0.0000 C   0  0  0  0  0  0  0  0  0  0  0  0
    5.4641   -0.2990    0.0000 C   0  0  0  0  0  0  0  0  0  0  0  0
    2.8660   -1.7990    0.0000 C   0  0  0  0  0  0  0  0  0  0  0  0
    3.7320    1.4330    0.0000 C   0  0  0  0  0  0  0  0  0  0  0  0
    3.2320    2.2990    0.0000 C   0  0  0  0  0  0  0  0  0  0  0  0
    2.0000   -2.2990    0.0000 C   0  0  0  0  0  0  0  0  0  0  0  0
    6.3301    0.2010    0.0000 C   0  0  0  0  0  0  0  0  0  0  0  0
    4.0420   -0.8360    0.0000 H   0  0  0  0  0  0  0  0  0  0  0  0
    2.7571    0.9655    0.0000 H   0  0  0  0  0  0  0  0  0  0  0  0
    2.7571    0.1685    0.0000 H   0  0  0  0  0  0  0  0  0  0  0  0
    2.6540   -0.2164    0.0000 H   0  0  0  0  0  0  0  0  0  0  0  0
    2.2554   -0.9067    0.0000 H   0  0  0  0  0  0  0  0  0  0  0  0
    4.9966    0.6759    0.0000 H   0  0  0  0  0  0  0  0  0  0  0  0
    4.1996    0.6759    0.0000 H   0  0  0  0  0  0  0  0  0  0  0  0
    5.0656   -0.7740    0.0000 H   0  0  0  0  0  0  0  0  0  0  0  0
    5.8626   -0.7740    0.0000 H   0  0  0  0  0  0  0  0  0  0  0  0
    3.0781   -2.3816    0.0000 H   0  0  0  0  0  0  0  0  0  0  0  0
    3.4766   -1.6914    0.0000 H   0  0  0  0  0  0  0  0  0  0  0  0
    4.2070    1.0345    0.0000 H   0  0  0  0  0  0  0  0  0  0  0  0
    4.2070    1.8315    0.0000 H   0  0  0  0  0  0  0  0  0  0  0  0
    6.6401   -0.3360    0.0000 H   0  0  0  0  0  0  0  0  0  0  0  0
    6.8671    0.5110    0.0000 H   0  0  0  0  0  0  0  0  0  0  0  0
    6.0201    0.7379    0.0000 H   0  0  0  0  0  0  0  0  0  0  0  0
    1.6900   -1.7621    0.0000 H   0  0  0  0  0  0  0  0  0  0  0  0
    1.4631   -2.6090    0.0000 H   0  0  0  0  0  0  0  0  0  0  0  0
    2.3100   -2.8360    0.0000 H   0  0  0  0  0  0  0  0  0  0  0  0
    3.7690    2.6090    0.0000 H   0  0  0  0  0  0  0  0  0  0  0  0
    2.9220    2.8360    0.0000 H   0  0  0  0  0  0  0  0  0  0  0  0
    2.6951    1.9890    0.0000 H   0  0  0  0  0  0  0  0  0  0  0  0
  1  2  1  0  0  0  0
  1  3  1  0  0  0  0
  1  4  1  0  0  0  0
  1 11  1  0  0  0  0
  2  5  1  0  0  0  0
  2 16  1  0  0  0  0
  2 17  1  0  0  0  0
  3  6  1  0  0  0  0
  3 14  1  0  0  0  0
  3 15  1  0  0  0  0
  4  7  1  0  0  0  0
  4 12  1  0  0  0  0
  4 13  1  0  0  0  0
  5 10  1  0  0  0  0
  5 18  1  0  0  0  0
  5 19  1  0  0  0  0
  6  9  1  0  0  0  0
  6 20  1  0  0  0  0
  6 21  1  0  0  0  0
  7  8  1  0  0  0  0
  7 22  1  0  0  0  0
  7 23  1  0  0  0  0
  8 30  1  0  0  0  0
  8 31  1  0  0  0  0
  8 32  1  0  0  0  0
  9 27  1  0  0  0  0
  9 28  1  0  0  0  0
  9 29  1  0  0  0  0
 10 24  1  0  0  0  0
 10 25  1  0  0  0  0
 10 26  1  0  0  0  0
M  END
> <PUBCHEM_COMPOUND_CID>
14022

> <PUBCHEM_COMPOUND_CANONICALIZED>
1

> <PUBCHEM_CACTVS_COMPLEXITY>
47.5

> <PUBCHEM_CACTVS_HBOND_ACCEPTOR>
0

> <PUBCHEM_CACTVS_HBOND_DONOR>
0

> <PUBCHEM_CACTVS_ROTATABLE_BOND>
6

> <PUBCHEM_CACTVS_SUBSKEYS>
AAADceBwAAAAAAAAAACAAAAAAAAAAAAAAAAAAAAAAAAAAAAAAAAAGAAAAAAACACAAAACAAAAAAAAAAAAAAAAAAAAAAAAAAAAAAAAAAAAAAAAAAAAAAAAAAAAAAAAAAAAAAAAAAAAAAAAAAAAAAAAAAAAAA==

> <PUBCHEM_IUPAC_OPENEYE_NAME>
tripropylstannane

> <PUBCHEM_IUPAC_CAS_NAME>
tripropylstannane

> <PUBCHEM_IUPAC_NAME>
tripropylstannane

> <PUBCHEM_IUPAC_SYSTEMATIC_NAME>
tripropylstannane

> <PUBCHEM_IUPAC_TRADITIONAL_NAME>
tripropylstannane

> <PUBCHEM_IUPAC_INCHI>
InChI=1S/3C3H7.Sn.H/c3*1-3-2;;/h3*1,3H2,2H3;;

> <PUBCHEM_IUPAC_INCHIKEY>
BATLWNWLECLTLL-UHFFFAOYSA-N

> <PUBCHEM_EXACT_MASS>
250.074345

> <PUBCHEM_MOLECULAR_FORMULA>
C9H22Sn

> <PUBCHEM_MOLECULAR_WEIGHT>
248.98098

> <PUBCHEM_OPENEYE_CAN_SMILES>
CCC[SnH](CCC)CCC

> <PUBCHEM_OPENEYE_ISO_SMILES>
CCC[SnH](CCC)CCC

> <PUBCHEM_CACTVS_TPSA>
0

> <PUBCHEM_MONOISOTOPIC_WEIGHT>
250.074345

> <PUBCHEM_TOTAL_CHARGE>
0

> <PUBCHEM_HEAVY_ATOM_COUNT>
10

> <PUBCHEM_ATOM_DEF_STEREO_COUNT>
0

> <PUBCHEM_ATOM_UDEF_STEREO_COUNT>
0

> <PUBCHEM_BOND_DEF_STEREO_COUNT>
0

> <PUBCHEM_BOND_UDEF_STEREO_COUNT>
0

> <PUBCHEM_ISOTOPIC_ATOM_COUNT>
0

> <PUBCHEM_COMPONENT_COUNT>
1

> <PUBCHEM_CACTVS_TAUTO_COUNT>
1

> <PUBCHEM_COORDINATE_TYPE>
1
5
255

$$$$

