17396421
  -OEChem-06241222562D

 48 50  0     1  0  0  0  0  0999 V2000
    4.5981   -3.6739    0.0000 O   0  0  0  0  0  0  0  0  0  0  0  0
    4.5981    2.3261    0.0000 O   0  0  0  0  0  0  0  0  0  0  0  0
    6.8301    4.8649    0.0000 O   0  0  0  0  0  0  0  0  0  0  0  0
    2.8660   -2.6739    0.0000 O   0  0  0  0  0  0  0  0  0  0  0  0
    4.5981    0.3261    0.0000 N   0  0  0  0  0  0  0  0  0  0  0  0
    6.3301    2.3261    0.0000 N   0  0  0  0  0  0  0  0  0  0  0  0
    7.1391    3.9139    0.0000 N   0  0  0  0  0  0  0  0  0  0  0  0
    5.4641    0.8261    0.0000 C   0  0  3  0  0  0  0  0  0  0  0  0
    4.5981   -0.6739    0.0000 C   0  0  0  0  0  0  0  0  0  0  0  0
    6.3301    0.3261    0.0000 C   0  0  0  0  0  0  0  0  0  0  0  0
    5.4641    1.8261    0.0000 C   0  0  0  0  0  0  0  0  0  0  0  0
    3.7320   -1.1739    0.0000 C   0  0  0  0  0  0  0  0  0  0  0  0
    5.4641   -1.1739    0.0000 C   0  0  0  0  0  0  0  0  0  0  0  0
    4.5981   -2.6739    0.0000 C   0  0  0  0  0  0  0  0  0  0  0  0
    3.7320   -2.1739    0.0000 C   0  0  0  0  0  0  0  0  0  0  0  0
    5.4641   -2.1739    0.0000 C   0  0  0  0  0  0  0  0  0  0  0  0
    6.3301    3.3261    0.0000 C   0  0  0  0  0  0  0  0  0  0  0  0
    3.7320   -4.1739    0.0000 C   0  0  0  0  0  0  0  0  0  0  0  0
    5.5211    3.9139    0.0000 C   0  0  0  0  0  0  0  0  0  0  0  0
    2.8660   -3.6739    0.0000 C   0  0  0  0  0  0  0  0  0  0  0  0
    5.8301    4.8649    0.0000 C   0  0  0  0  0  0  0  0  0  0  0  0
    3.7320   -5.1739    0.0000 C   0  0  0  0  0  0  0  0  0  0  0  0
    2.0000   -4.1739    0.0000 C   0  0  0  0  0  0  0  0  0  0  0  0
    2.8660   -5.6739    0.0000 C   0  0  0  0  0  0  0  0  0  0  0  0
    2.0000   -5.1739    0.0000 C   0  0  0  0  0  0  0  0  0  0  0  0
    5.2423    5.6739    0.0000 C   0  0  0  0  0  0  0  0  0  0  0  0
    2.0000   -2.1739    0.0000 C   0  0  0  0  0  0  0  0  0  0  0  0
    5.4641    0.2061    0.0000 H   0  0  0  0  0  0  0  0  0  0  0  0
    4.0611    0.6361    0.0000 H   0  0  0  0  0  0  0  0  0  0  0  0
    6.0201   -0.2109    0.0000 H   0  0  0  0  0  0  0  0  0  0  0  0
    6.8671    0.0161    0.0000 H   0  0  0  0  0  0  0  0  0  0  0  0
    6.6401    0.8630    0.0000 H   0  0  0  0  0  0  0  0  0  0  0  0
    3.1951   -0.8639    0.0000 H   0  0  0  0  0  0  0  0  0  0  0  0
    6.0010   -0.8639    0.0000 H   0  0  0  0  0  0  0  0  0  0  0  0
    6.8671    2.0161    0.0000 H   0  0  0  0  0  0  0  0  0  0  0  0
    3.1951   -2.4839    0.0000 H   0  0  0  0  0  0  0  0  0  0  0  0
    6.0010   -2.4839    0.0000 H   0  0  0  0  0  0  0  0  0  0  0  0
    4.9315    3.7223    0.0000 H   0  0  0  0  0  0  0  0  0  0  0  0
    4.2690   -5.4839    0.0000 H   0  0  0  0  0  0  0  0  0  0  0  0
    1.4631   -3.8639    0.0000 H   0  0  0  0  0  0  0  0  0  0  0  0
    2.8660   -6.2939    0.0000 H   0  0  0  0  0  0  0  0  0  0  0  0
    1.4631   -5.4839    0.0000 H   0  0  0  0  0  0  0  0  0  0  0  0
    5.7439    6.0384    0.0000 H   0  0  0  0  0  0  0  0  0  0  0  0
    4.8779    6.1755    0.0000 H   0  0  0  0  0  0  0  0  0  0  0  0
    4.7408    5.3095    0.0000 H   0  0  0  0  0  0  0  0  0  0  0  0
    2.3100   -1.6370    0.0000 H   0  0  0  0  0  0  0  0  0  0  0  0
    1.4631   -1.8639    0.0000 H   0  0  0  0  0  0  0  0  0  0  0  0
    1.6900   -2.7109    0.0000 H   0  0  0  0  0  0  0  0  0  0  0  0
  1 14  1  0  0  0  0
  1 18  1  0  0  0  0
  2 11  2  0  0  0  0
  3  7  1  0  0  0  0
  3 21  1  0  0  0  0
  4 20  1  0  0  0  0
  4 27  1  0  0  0  0
  5  8  1  0  0  0  0
  5  9  1  0  0  0  0
  5 29  1  0  0  0  0
  6 11  1  0  0  0  0
  6 17  1  0  0  0  0
  6 35  1  0  0  0  0
  7 17  2  0  0  0  0
  8 10  1  0  0  0  0
  8 11  1  0  0  0  0
  8 28  1  0  0  0  0
  9 12  2  0  0  0  0
  9 13  1  0  0  0  0
 10 30  1  0  0  0  0
 10 31  1  0  0  0  0
 10 32  1  0  0  0  0
 12 15  1  0  0  0  0
 12 33  1  0  0  0  0
 13 16  2  0  0  0  0
 13 34  1  0  0  0  0
 14 15  2  0  0  0  0
 14 16  1  0  0  0  0
 15 36  1  0  0  0  0
 16 37  1  0  0  0  0
 17 19  1  0  0  0  0
 18 20  1  0  0  0  0
 18 22  2  0  0  0  0
 19 21  2  0  0  0  0
 19 38  1  0  0  0  0
 20 23  2  0  0  0  0
 21 26  1  0  0  0  0
 22 24  1  0  0  0  0
 22 39  1  0  0  0  0
 23 25  1  0  0  0  0
 23 40  1  0  0  0  0
 24 25  2  0  0  0  0
 24 41  1  0  0  0  0
 25 42  1  0  0  0  0
 26 43  1  0  0  0  0
 26 44  1  0  0  0  0
 26 45  1  0  0  0  0
 27 46  1  0  0  0  0
 27 47  1  0  0  0  0
 27 48  1  0  0  0  0
M  END
> <PUBCHEM_COMPOUND_CID>
17396421

> <PUBCHEM_COMPOUND_CANONICALIZED>
1

> <PUBCHEM_CACTVS_COMPLEXITY>
470

> <PUBCHEM_CACTVS_HBOND_ACCEPTOR>
6

> <PUBCHEM_CACTVS_HBOND_DONOR>
2

> <PUBCHEM_CACTVS_ROTATABLE_BOND>
7

> <PUBCHEM_CACTVS_SUBSKEYS>
AAADceB7OAAAAAAAAAAAAAAAAAAAAWAAAAAwYAAAAAAAAAAB0AAAHgAUAAAACCzBkgYz9pLQBACpAKdycgCCCAAlIgApmKG+7NqNZirEubuWOKrm1RvK6EewQAAAAEAAAAAAQAAAgAAAAACAAAAAAAAAAA==

> <PUBCHEM_IUPAC_OPENEYE_NAME>
2-[4-(2-methoxyphenoxy)anilino]-N-(5-methylisoxazol-3-yl)propanamide

> <PUBCHEM_IUPAC_CAS_NAME>
2-[4-(2-methoxyphenoxy)anilino]-N-(5-methyl-3-isoxazolyl)propanamide

> <PUBCHEM_IUPAC_NAME>
2-[4-(2-methoxyphenoxy)anilino]-N-(5-methyl-1,2-oxazol-3-yl)propanamide

> <PUBCHEM_IUPAC_SYSTEMATIC_NAME>
2-[[4-(2-methoxyphenoxy)phenyl]amino]-N-(5-methyl-1,2-oxazol-3-yl)propanamide

> <PUBCHEM_IUPAC_TRADITIONAL_NAME>
2-[4-(2-methoxyphenoxy)anilino]-N-(5-methylisoxazol-3-yl)propionamide

> <PUBCHEM_IUPAC_INCHI>
InChI=1S/C20H21N3O4/c1-13-12-19(23-27-13)22-20(24)14(2)21-15-8-10-16(11-9-15)26-18-7-5-4-6-17(18)25-3/h4-12,14,21H,1-3H3,(H,22,23,24)

> <PUBCHEM_IUPAC_INCHIKEY>
ZOMORJMAIITTQH-UHFFFAOYSA-N

> <PUBCHEM_XLOGP3_AA>
3.9

> <PUBCHEM_EXACT_MASS>
367.153206

> <PUBCHEM_MOLECULAR_FORMULA>
C20H21N3O4

> <PUBCHEM_MOLECULAR_WEIGHT>
367.39844

> <PUBCHEM_OPENEYE_CAN_SMILES>
CC1=CC(=NO1)NC(=O)C(C)NC2=CC=C(C=C2)OC3=CC=CC=C3OC

> <PUBCHEM_OPENEYE_ISO_SMILES>
CC1=CC(=NO1)NC(=O)C(C)NC2=CC=C(C=C2)OC3=CC=CC=C3OC

> <PUBCHEM_CACTVS_TPSA>
85.6

> <PUBCHEM_MONOISOTOPIC_WEIGHT>
367.153206

> <PUBCHEM_TOTAL_CHARGE>
0

> <PUBCHEM_HEAVY_ATOM_COUNT>
27

> <PUBCHEM_ATOM_DEF_STEREO_COUNT>
0

> <PUBCHEM_ATOM_UDEF_STEREO_COUNT>
1

> <PUBCHEM_BOND_DEF_STEREO_COUNT>
0

> <PUBCHEM_BOND_UDEF_STEREO_COUNT>
0

> <PUBCHEM_ISOTOPIC_ATOM_COUNT>
0

> <PUBCHEM_COMPONENT_COUNT>
1

> <PUBCHEM_CACTVS_TAUTO_COUNT>
14

> <PUBCHEM_COORDINATE_TYPE>
1
5
255

> <PUBCHEM_BONDANNOTATIONS>
12  15  8
13  16  8
14  15  8
14  16  8
17  19  8
18  20  8
18  22  8
19  21  8
20  23  8
22  24  8
23  25  8
24  25  8
3  21  8
3  7  8
7  17  8
8  10  3
9  12  8
9  13  8

$$$$

