11350
  -OEChem-06261205342D

 32 33  0     1  0  0  0  0  0999 V2000
    5.4641   -2.5950    0.0000 I   0  0  0  0  0  0  0  0  0  0  0  0
    2.0000   -2.5950    0.0000 I   0  0  0  0  0  0  0  0  0  0  0  0
    6.3301    0.9050    0.0000 O   0  0  0  0  0  0  0  0  0  0  0  0
    5.4641   -0.5950    0.0000 O   0  0  0  0  0  0  0  0  0  0  0  0
    3.7320   -3.5950    0.0000 O   0  0  0  0  0  0  0  0  0  0  0  0
    4.5981    0.9050    0.0000 C   0  0  3  0  0  0  0  0  0  0  0  0
    3.7320    0.4050    0.0000 C   0  0  0  0  0  0  0  0  0  0  0  0
    4.5981    1.9050    0.0000 C   0  0  0  0  0  0  0  0  0  0  0  0
    3.7320   -0.5950    0.0000 C   0  0  0  0  0  0  0  0  0  0  0  0
    5.4641    0.4050    0.0000 C   0  0  0  0  0  0  0  0  0  0  0  0
    2.8660   -1.0950    0.0000 C   0  0  0  0  0  0  0  0  0  0  0  0
    4.5981   -1.0950    0.0000 C   0  0  0  0  0  0  0  0  0  0  0  0
    5.4641    2.4050    0.0000 C   0  0  0  0  0  0  0  0  0  0  0  0
    3.7320    2.4050    0.0000 C   0  0  0  0  0  0  0  0  0  0  0  0
    4.5981   -2.0950    0.0000 C   0  0  0  0  0  0  0  0  0  0  0  0
    2.8660   -2.0950    0.0000 C   0  0  0  0  0  0  0  0  0  0  0  0
    5.4641    3.4050    0.0000 C   0  0  0  0  0  0  0  0  0  0  0  0
    3.7320    3.4050    0.0000 C   0  0  0  0  0  0  0  0  0  0  0  0
    3.7320   -2.5950    0.0000 C   0  0  0  0  0  0  0  0  0  0  0  0
    4.5981    3.9050    0.0000 C   0  0  0  0  0  0  0  0  0  0  0  0
    4.5981    0.0550    0.0000 H   0  0  0  0  0  0  0  0  0  0  0  0
    3.5200    0.9876    0.0000 H   0  0  0  0  0  0  0  0  0  0  0  0
    3.1215    0.2973    0.0000 H   0  0  0  0  0  0  0  0  0  0  0  0
    2.3291   -0.7850    0.0000 H   0  0  0  0  0  0  0  0  0  0  0  0
    5.1350   -0.7850    0.0000 H   0  0  0  0  0  0  0  0  0  0  0  0
    6.0010    2.0950    0.0000 H   0  0  0  0  0  0  0  0  0  0  0  0
    3.1951    2.0950    0.0000 H   0  0  0  0  0  0  0  0  0  0  0  0
    6.0010    3.7150    0.0000 H   0  0  0  0  0  0  0  0  0  0  0  0
    3.1951    3.7150    0.0000 H   0  0  0  0  0  0  0  0  0  0  0  0
    4.5981    4.5250    0.0000 H   0  0  0  0  0  0  0  0  0  0  0  0
    6.8671    0.5950    0.0000 H   0  0  0  0  0  0  0  0  0  0  0  0
    3.1951   -3.9050    0.0000 H   0  0  0  0  0  0  0  0  0  0  0  0
  1 15  1  0  0  0  0
  2 16  1  0  0  0  0
  3 10  1  0  0  0  0
  3 31  1  0  0  0  0
  4 10  2  0  0  0  0
  5 19  1  0  0  0  0
  5 32  1  0  0  0  0
  6  7  1  0  0  0  0
  6  8  1  0  0  0  0
  6 10  1  0  0  0  0
  6 21  1  0  0  0  0
  7  9  1  0  0  0  0
  7 22  1  0  0  0  0
  7 23  1  0  0  0  0
  8 13  2  0  0  0  0
  8 14  1  0  0  0  0
  9 11  2  0  0  0  0
  9 12  1  0  0  0  0
 11 16  1  0  0  0  0
 11 24  1  0  0  0  0
 12 15  2  0  0  0  0
 12 25  1  0  0  0  0
 13 17  1  0  0  0  0
 13 26  1  0  0  0  0
 14 18  2  0  0  0  0
 14 27  1  0  0  0  0
 15 19  1  0  0  0  0
 16 19  2  0  0  0  0
 17 20  2  0  0  0  0
 17 28  1  0  0  0  0
 18 20  1  0  0  0  0
 18 29  1  0  0  0  0
 20 30  1  0  0  0  0
M  END
> <PUBCHEM_COMPOUND_CID>
11350

> <PUBCHEM_COMPOUND_CANONICALIZED>
1

> <PUBCHEM_CACTVS_COMPLEXITY>
319

> <PUBCHEM_CACTVS_HBOND_ACCEPTOR>
3

> <PUBCHEM_CACTVS_HBOND_DONOR>
2

> <PUBCHEM_CACTVS_ROTATABLE_BOND>
4

> <PUBCHEM_CACTVS_SUBSKEYS>
AAADccBwMAAAAwAAAAAAAAAAAAAAAAAAAAAwYAAAAAAAAAABQAAAGgAgCAAADQSCmAAwDoAAAgCIAiDSCAACAAAgIAAIiAEECIgIJjKCFRKAcAAkwBEImAeIyOCOoAAAAAAAAABAAAAAAAAAAAAAAAAAAA==

> <PUBCHEM_IUPAC_OPENEYE_NAME>
3-(4-hydroxy-3,5-diiodo-phenyl)-2-phenyl-propanoic acid

> <PUBCHEM_IUPAC_CAS_NAME>
3-(4-hydroxy-3,5-diiodophenyl)-2-phenylpropanoic acid

> <PUBCHEM_IUPAC_NAME>
3-(4-hydroxy-3,5-diiodophenyl)-2-phenylpropanoic acid

> <PUBCHEM_IUPAC_SYSTEMATIC_NAME>
3-[3,5-bis(iodanyl)-4-oxidanyl-phenyl]-2-phenyl-propanoic acid

> <PUBCHEM_IUPAC_TRADITIONAL_NAME>
3-(4-hydroxy-3,5-diiodo-phenyl)-2-phenyl-propionic acid

> <PUBCHEM_IUPAC_INCHI>
InChI=1S/C15H12I2O3/c16-12-7-9(8-13(17)14(12)18)6-11(15(19)20)10-4-2-1-3-5-10/h1-5,7-8,11,18H,6H2,(H,19,20)

> <PUBCHEM_IUPAC_INCHIKEY>
IKYIXZSIKOYSLD-UHFFFAOYSA-N

> <PUBCHEM_XLOGP3_AA>
4.3

> <PUBCHEM_EXACT_MASS>
493.88759

> <PUBCHEM_MOLECULAR_FORMULA>
C15H12I2O3

> <PUBCHEM_MOLECULAR_WEIGHT>
494.06292

> <PUBCHEM_OPENEYE_CAN_SMILES>
C1=CC=C(C=C1)C(CC2=CC(=C(C(=C2)I)O)I)C(=O)O

> <PUBCHEM_OPENEYE_ISO_SMILES>
C1=CC=C(C=C1)C(CC2=CC(=C(C(=C2)I)O)I)C(=O)O

> <PUBCHEM_CACTVS_TPSA>
57.5

> <PUBCHEM_MONOISOTOPIC_WEIGHT>
493.88759

> <PUBCHEM_TOTAL_CHARGE>
0

> <PUBCHEM_HEAVY_ATOM_COUNT>
20

> <PUBCHEM_ATOM_DEF_STEREO_COUNT>
0

> <PUBCHEM_ATOM_UDEF_STEREO_COUNT>
1

> <PUBCHEM_BOND_DEF_STEREO_COUNT>
0

> <PUBCHEM_BOND_UDEF_STEREO_COUNT>
0

> <PUBCHEM_ISOTOPIC_ATOM_COUNT>
0

> <PUBCHEM_COMPONENT_COUNT>
1

> <PUBCHEM_CACTVS_TAUTO_COUNT>
2

> <PUBCHEM_COORDINATE_TYPE>
1
5
255

> <PUBCHEM_BONDANNOTATIONS>
11  16  8
12  15  8
13  17  8
14  18  8
15  19  8
16  19  8
17  20  8
18  20  8
6  21  3
8  13  8
8  14  8
9  11  8
9  12  8

$$$$

