11344
  -OEChem-06261205332D

 48 48  0     0  0  0  0  0  0999 V2000
    9.4651    4.8100    0.0000 O   0  0  0  0  0  0  0  0  0  0  0  0
    2.5981    6.2685    0.0000 O   0  0  0  0  0  0  0  0  0  0  0  0
    7.7331    4.8100    0.0000 O   0  0  0  0  0  0  0  0  0  0  0  0
    5.1962    4.7685    0.0000 O   0  5  0  0  0  0  0  0  0  0  0  0
    0.0000    4.7685    0.0000 O   0  5  0  0  0  0  0  0  0  0  0  0
    4.3301    6.2685    0.0000 O   0  0  0  0  0  0  0  0  0  0  0  0
    0.8660    6.2685    0.0000 O   0  0  0  0  0  0  0  0  0  0  0  0
    1.7320    1.7685    0.0000 O   0  5  0  0  0  0  0  0  0  0  0  0
    3.4641    1.7685    0.0000 O   0  0  0  0  0  0  0  0  0  0  0  0
    4.3301    5.2685    0.0000 N   0  3  0  0  0  0  0  0  0  0  0  0
    0.8660    5.2685    0.0000 N   0  3  0  0  0  0  0  0  0  0  0  0
    2.5981    2.2685    0.0000 N   0  3  0  0  0  0  0  0  0  0  0  0
    8.5991    0.3100    0.0000 N   0  0  0  0  0  0  0  0  0  0  0  0
   10.3312    6.3100    0.0000 C   0  0  0  0  0  0  0  0  0  0  0  0
   10.3312    7.3100    0.0000 C   0  0  0  0  0  0  0  0  0  0  0  0
    9.4651    5.8100    0.0000 C   0  0  0  0  0  0  0  0  0  0  0  0
   11.1972    7.8100    0.0000 C   0  0  0  0  0  0  0  0  0  0  0  0
    8.5991    3.3100    0.0000 C   0  0  0  0  0  0  0  0  0  0  0  0
    8.5991    4.3100    0.0000 C   0  0  0  0  0  0  0  0  0  0  0  0
    3.4641    4.7685    0.0000 C   0  0  0  0  0  0  0  0  0  0  0  0
    1.7320    4.7685    0.0000 C   0  0  0  0  0  0  0  0  0  0  0  0
    2.5981    5.2685    0.0000 C   0  0  0  0  0  0  0  0  0  0  0  0
    2.5981    3.2685    0.0000 C   0  0  0  0  0  0  0  0  0  0  0  0
    3.4641    3.7685    0.0000 C   0  0  0  0  0  0  0  0  0  0  0  0
    1.7320    3.7685    0.0000 C   0  0  0  0  0  0  0  0  0  0  0  0
    7.7331    2.8100    0.0000 C   0  0  0  0  0  0  0  0  0  0  0  0
    9.4651    2.8100    0.0000 C   0  0  0  0  0  0  0  0  0  0  0  0
    8.5991    1.3100    0.0000 C   0  0  0  0  0  0  0  0  0  0  0  0
    7.7331    1.8100    0.0000 C   0  0  0  0  0  0  0  0  0  0  0  0
    9.4651    1.8100    0.0000 C   0  0  0  0  0  0  0  0  0  0  0  0
   10.5432    5.7274    0.0000 H   0  0  0  0  0  0  0  0  0  0  0  0
   10.9417    6.4177    0.0000 H   0  0  0  0  0  0  0  0  0  0  0  0
   10.1191    7.8926    0.0000 H   0  0  0  0  0  0  0  0  0  0  0  0
    9.7206    7.2023    0.0000 H   0  0  0  0  0  0  0  0  0  0  0  0
    9.2531    6.3926    0.0000 H   0  0  0  0  0  0  0  0  0  0  0  0
    8.8546    5.7023    0.0000 H   0  0  0  0  0  0  0  0  0  0  0  0
   11.5072    7.2731    0.0000 H   0  0  0  0  0  0  0  0  0  0  0  0
   11.7341    8.1200    0.0000 H   0  0  0  0  0  0  0  0  0  0  0  0
   10.8872    8.3469    0.0000 H   0  0  0  0  0  0  0  0  0  0  0  0
    4.0010    3.4585    0.0000 H   0  0  0  0  0  0  0  0  0  0  0  0
    1.1951    3.4585    0.0000 H   0  0  0  0  0  0  0  0  0  0  0  0
    7.1962    3.1200    0.0000 H   0  0  0  0  0  0  0  0  0  0  0  0
   10.0021    3.1200    0.0000 H   0  0  0  0  0  0  0  0  0  0  0  0
    7.1962    1.5000    0.0000 H   0  0  0  0  0  0  0  0  0  0  0  0
   10.0021    1.5000    0.0000 H   0  0  0  0  0  0  0  0  0  0  0  0
    3.1350    6.5785    0.0000 H   0  0  0  0  0  0  0  0  0  0  0  0
    8.0622    0.0000    0.0000 H   0  0  0  0  0  0  0  0  0  0  0  0
    9.1360    0.0000    0.0000 H   0  0  0  0  0  0  0  0  0  0  0  0
  1 16  1  0  0  0  0
  1 19  1  0  0  0  0
  2 22  1  0  0  0  0
  2 46  1  0  0  0  0
  3 19  2  0  0  0  0
  4 10  1  0  0  0  0
  5 11  1  0  0  0  0
  6 10  2  0  0  0  0
  7 11  2  0  0  0  0
  8 12  1  0  0  0  0
  9 12  2  0  0  0  0
 10 20  1  0  0  0  0
 11 21  1  0  0  0  0
 12 23  1  0  0  0  0
 13 28  1  0  0  0  0
 13 47  1  0  0  0  0
 13 48  1  0  0  0  0
 14 15  1  0  0  0  0
 14 16  1  0  0  0  0
 14 31  1  0  0  0  0
 14 32  1  0  0  0  0
 15 17  1  0  0  0  0
 15 33  1  0  0  0  0
 15 34  1  0  0  0  0
 16 35  1  0  0  0  0
 16 36  1  0  0  0  0
 17 37  1  0  0  0  0
 17 38  1  0  0  0  0
 17 39  1  0  0  0  0
 18 19  1  0  0  0  0
 18 26  2  0  0  0  0
 18 27  1  0  0  0  0
 20 22  2  0  0  0  0
 20 24  1  0  0  0  0
 21 22  1  0  0  0  0
 21 25  2  0  0  0  0
 23 24  2  0  0  0  0
 23 25  1  0  0  0  0
 24 40  1  0  0  0  0
 25 41  1  0  0  0  0
 26 29  1  0  0  0  0
 26 42  1  0  0  0  0
 27 30  2  0  0  0  0
 27 43  1  0  0  0  0
 28 29  2  0  0  0  0
 28 30  1  0  0  0  0
 29 44  1  0  0  0  0
 30 45  1  0  0  0  0
M  CHG  6   4  -1   5  -1   8  -1  10   1  11   1  12   1
M  END
> <PUBCHEM_COMPOUND_CID>
11344

> <PUBCHEM_COMPOUND_CANONICALIZED>
1

> <PUBCHEM_CACTVS_COMPLEXITY>
466

> <PUBCHEM_CACTVS_HBOND_ACCEPTOR>
10

> <PUBCHEM_CACTVS_HBOND_DONOR>
2

> <PUBCHEM_CACTVS_ROTATABLE_BOND>
5

> <PUBCHEM_CACTVS_SUBSKEYS>
AAADceB7vAAAAAAAAAAAAAAAAAAAAAAAAAAwYAAAAAAAAAABQAAAHgAUCAAADAyhmAIyzoBQRgCJAiTSSwCCAAAkIgAoiAEFbMoKJjKS9duCcQBk0FEI+Ye42SGeCEAAAAQAEAAQgAAACAAgAAAAAAAAAA==

> <PUBCHEM_IUPAC_OPENEYE_NAME>
butyl 4-aminobenzoate; picric acid

> <PUBCHEM_IUPAC_CAS_NAME>
4-aminobenzoic acid butyl ester; 2,4,6-trinitrophenol

> <PUBCHEM_IUPAC_NAME>
butyl 4-aminobenzoate; 2,4,6-trinitrophenol

> <PUBCHEM_IUPAC_SYSTEMATIC_NAME>
butyl 4-azanylbenzoate; 2,4,6-trinitrophenol

> <PUBCHEM_IUPAC_TRADITIONAL_NAME>
4-aminobenzoic acid butyl ester; picric acid

> <PUBCHEM_IUPAC_INCHI>
InChI=1S/C11H15NO2.C6H3N3O7/c1-2-3-8-14-11(13)9-4-6-10(12)7-5-9;10-6-4(8(13)14)1-3(7(11)12)2-5(6)9(15)16/h4-7H,2-3,8,12H2,1H3;1-2,10H

> <PUBCHEM_IUPAC_INCHIKEY>
IILLLWNYLXKZAJ-UHFFFAOYSA-N

> <PUBCHEM_EXACT_MASS>
422.107378

> <PUBCHEM_MOLECULAR_FORMULA>
C17H18N4O9

> <PUBCHEM_MOLECULAR_WEIGHT>
422.34622

> <PUBCHEM_OPENEYE_CAN_SMILES>
CCCCOC(=O)C1=CC=C(C=C1)N.C1=C(C=C(C(=C1[N+](=O)[O-])O)[N+](=O)[O-])[N+](=O)[O-]

> <PUBCHEM_OPENEYE_ISO_SMILES>
CCCCOC(=O)C1=CC=C(C=C1)N.C1=C(C=C(C(=C1[N+](=O)[O-])O)[N+](=O)[O-])[N+](=O)[O-]

> <PUBCHEM_CACTVS_TPSA>
210

> <PUBCHEM_MONOISOTOPIC_WEIGHT>
422.107378

> <PUBCHEM_TOTAL_CHARGE>
0

> <PUBCHEM_HEAVY_ATOM_COUNT>
30

> <PUBCHEM_ATOM_DEF_STEREO_COUNT>
0

> <PUBCHEM_ATOM_UDEF_STEREO_COUNT>
0

> <PUBCHEM_BOND_DEF_STEREO_COUNT>
0

> <PUBCHEM_BOND_UDEF_STEREO_COUNT>
0

> <PUBCHEM_ISOTOPIC_ATOM_COUNT>
0

> <PUBCHEM_COMPONENT_COUNT>
2

> <PUBCHEM_CACTVS_TAUTO_COUNT>
9

> <PUBCHEM_COORDINATE_TYPE>
1
5
255

> <PUBCHEM_BONDANNOTATIONS>
18  26  8
18  27  8
20  22  8
20  24  8
21  22  8
21  25  8
23  24  8
23  25  8
26  29  8
27  30  8
28  29  8
28  30  8

$$$$

