9467
  -OEChem-06261203442D

 43 42  0     0  0  0  0  0  0999 V2000
    7.4040    4.5185    0.0000 Cl  0  0  0  0  0  0  0  0  0  0  0  0
    1.4030    0.0000    0.0000 F   0  0  0  0  0  0  0  0  0  0  0  0
    2.2690    4.5000    0.0000 O   0  0  0  0  0  0  0  0  0  0  0  0
    0.5369    4.5000    0.0000 O   0  0  0  0  0  0  0  0  0  0  0  0
    3.1350    7.0000    0.0000 N   0  0  0  0  0  0  0  0  0  0  0  0
    4.0010    7.5000    0.0000 C   0  0  0  0  0  0  0  0  0  0  0  0
    2.2690    7.5000    0.0000 C   0  0  0  0  0  0  0  0  0  0  0  0
    3.1350    6.0000    0.0000 C   0  0  0  0  0  0  0  0  0  0  0  0
    4.0010    8.5000    0.0000 C   0  0  0  0  0  0  0  0  0  0  0  0
    2.2690    8.5000    0.0000 C   0  0  0  0  0  0  0  0  0  0  0  0
    2.2690    5.5000    0.0000 C   0  0  0  0  0  0  0  0  0  0  0  0
    1.4030    9.0000    0.0000 C   0  0  0  0  0  0  0  0  0  0  0  0
    4.8671    9.0000    0.0000 C   0  0  0  0  0  0  0  0  0  0  0  0
    1.4030    4.0000    0.0000 C   0  0  0  0  0  0  0  0  0  0  0  0
    1.4030    3.0000    0.0000 C   0  0  0  0  0  0  0  0  0  0  0  0
    0.5369    2.5000    0.0000 C   0  0  0  0  0  0  0  0  0  0  0  0
    2.2690    2.5000    0.0000 C   0  0  0  0  0  0  0  0  0  0  0  0
    0.5369    1.5000    0.0000 C   0  0  0  0  0  0  0  0  0  0  0  0
    2.2690    1.5000    0.0000 C   0  0  0  0  0  0  0  0  0  0  0  0
    1.4030    1.0000    0.0000 C   0  0  0  0  0  0  0  0  0  0  0  0
    1.6584    7.6077    0.0000 H   0  0  0  0  0  0  0  0  0  0  0  0
    2.0569    6.9174    0.0000 H   0  0  0  0  0  0  0  0  0  0  0  0
    4.2131    6.9174    0.0000 H   0  0  0  0  0  0  0  0  0  0  0  0
    4.6116    7.6077    0.0000 H   0  0  0  0  0  0  0  0  0  0  0  0
    3.3471    5.4174    0.0000 H   0  0  0  0  0  0  0  0  0  0  0  0
    3.7456    6.1077    0.0000 H   0  0  0  0  0  0  0  0  0  0  0  0
    3.7890    9.0826    0.0000 H   0  0  0  0  0  0  0  0  0  0  0  0
    3.3905    8.3923    0.0000 H   0  0  0  0  0  0  0  0  0  0  0  0
    2.8796    8.3923    0.0000 H   0  0  0  0  0  0  0  0  0  0  0  0
    2.4810    9.0826    0.0000 H   0  0  0  0  0  0  0  0  0  0  0  0
    2.0569    6.0826    0.0000 H   0  0  0  0  0  0  0  0  0  0  0  0
    1.6584    5.3923    0.0000 H   0  0  0  0  0  0  0  0  0  0  0  0
    5.1771    8.4631    0.0000 H   0  0  0  0  0  0  0  0  0  0  0  0
    1.7130    9.5369    0.0000 H   0  0  0  0  0  0  0  0  0  0  0  0
    0.8660    9.3100    0.0000 H   0  0  0  0  0  0  0  0  0  0  0  0
    1.0930    8.4631    0.0000 H   0  0  0  0  0  0  0  0  0  0  0  0
    5.4040    9.3100    0.0000 H   0  0  0  0  0  0  0  0  0  0  0  0
    4.5571    9.5369    0.0000 H   0  0  0  0  0  0  0  0  0  0  0  0
    0.0000    2.8100    0.0000 H   0  0  0  0  0  0  0  0  0  0  0  0
    2.8059    2.8100    0.0000 H   0  0  0  0  0  0  0  0  0  0  0  0
    0.0000    1.1900    0.0000 H   0  0  0  0  0  0  0  0  0  0  0  0
    2.8059    1.1900    0.0000 H   0  0  0  0  0  0  0  0  0  0  0  0
    8.4040    4.5185    0.0000 H   0  0  0  0  0  0  0  0  0  0  0  0
  1 43  1  0  0  0  0
  2 20  1  0  0  0  0
  3 11  1  0  0  0  0
  3 14  1  0  0  0  0
  4 14  2  0  0  0  0
  5  6  1  0  0  0  0
  5  7  1  0  0  0  0
  5  8  1  0  0  0  0
  6  9  1  0  0  0  0
  6 23  1  0  0  0  0
  6 24  1  0  0  0  0
  7 10  1  0  0  0  0
  7 21  1  0  0  0  0
  7 22  1  0  0  0  0
  8 11  1  0  0  0  0
  8 25  1  0  0  0  0
  8 26  1  0  0  0  0
  9 13  1  0  0  0  0
  9 27  1  0  0  0  0
  9 28  1  0  0  0  0
 10 12  1  0  0  0  0
 10 29  1  0  0  0  0
 10 30  1  0  0  0  0
 11 31  1  0  0  0  0
 11 32  1  0  0  0  0
 12 34  1  0  0  0  0
 12 35  1  0  0  0  0
 12 36  1  0  0  0  0
 13 33  1  0  0  0  0
 13 37  1  0  0  0  0
 13 38  1  0  0  0  0
 14 15  1  0  0  0  0
 15 16  2  0  0  0  0
 15 17  1  0  0  0  0
 16 18  1  0  0  0  0
 16 39  1  0  0  0  0
 17 19  2  0  0  0  0
 17 40  1  0  0  0  0
 18 20  2  0  0  0  0
 18 41  1  0  0  0  0
 19 20  1  0  0  0  0
 19 42  1  0  0  0  0
M  END
> <PUBCHEM_COMPOUND_CID>
9467

> <PUBCHEM_COMPOUND_CANONICALIZED>
1

> <PUBCHEM_CACTVS_COMPLEXITY>
247

> <PUBCHEM_CACTVS_HBOND_ACCEPTOR>
4

> <PUBCHEM_CACTVS_HBOND_DONOR>
1

> <PUBCHEM_CACTVS_ROTATABLE_BOND>
9

> <PUBCHEM_CACTVS_SUBSKEYS>
AAADceByMQAEAAAAAAAAAAAAAAAAAAAAAAAwAAAAAAAAAAABAAAAHwAAAAAADADhmA4yCIMABACIAiDSCAACAAAkAAAIiAEICMgKJjKANRiHMQAkwAGYqYeIyCCOAAAAAAAAAAAAAAAAAAAAAAAAAAAAAA==

> <PUBCHEM_IUPAC_OPENEYE_NAME>
2-(dipropylamino)ethyl 4-fluorobenzoate hydrochloride

> <PUBCHEM_IUPAC_CAS_NAME>
4-fluorobenzoic acid 2-(dipropylamino)ethyl ester hydrochloride

> <PUBCHEM_IUPAC_NAME>
2-(dipropylamino)ethyl 4-fluorobenzoate hydrochloride

> <PUBCHEM_IUPAC_SYSTEMATIC_NAME>
2-(dipropylamino)ethyl 4-fluoranylbenzoate hydrochloride

> <PUBCHEM_IUPAC_TRADITIONAL_NAME>
4-fluorobenzoic acid 2-(dipropylamino)ethyl ester hydrochloride

> <PUBCHEM_IUPAC_INCHI>
InChI=1S/C15H22FNO2.ClH/c1-3-9-17(10-4-2)11-12-19-15(18)13-5-7-14(16)8-6-13;/h5-8H,3-4,9-12H2,1-2H3;1H

> <PUBCHEM_IUPAC_INCHIKEY>
YKKJMROIHDNINT-UHFFFAOYSA-N

> <PUBCHEM_EXACT_MASS>
303.140135

> <PUBCHEM_MOLECULAR_FORMULA>
C15H23ClFNO2

> <PUBCHEM_MOLECULAR_WEIGHT>
303.800023

> <PUBCHEM_OPENEYE_CAN_SMILES>
CCCN(CCC)CCOC(=O)C1=CC=C(C=C1)F.Cl

> <PUBCHEM_OPENEYE_ISO_SMILES>
CCCN(CCC)CCOC(=O)C1=CC=C(C=C1)F.Cl

> <PUBCHEM_CACTVS_TPSA>
29.5

> <PUBCHEM_MONOISOTOPIC_WEIGHT>
303.140135

> <PUBCHEM_TOTAL_CHARGE>
0

> <PUBCHEM_HEAVY_ATOM_COUNT>
20

> <PUBCHEM_ATOM_DEF_STEREO_COUNT>
0

> <PUBCHEM_ATOM_UDEF_STEREO_COUNT>
0

> <PUBCHEM_BOND_DEF_STEREO_COUNT>
0

> <PUBCHEM_BOND_UDEF_STEREO_COUNT>
0

> <PUBCHEM_ISOTOPIC_ATOM_COUNT>
0

> <PUBCHEM_COMPONENT_COUNT>
2

> <PUBCHEM_CACTVS_TAUTO_COUNT>
1

> <PUBCHEM_COORDINATE_TYPE>
1
5
255

> <PUBCHEM_BONDANNOTATIONS>
15  16  8
15  17  8
16  18  8
17  19  8
18  20  8
19  20  8

$$$$

