17395965
  -OEChem-06241222532D

 39 40  0     1  0  0  0  0  0999 V2000
   11.0278    1.4197    0.0000 Cl  0  0  0  0  0  0  0  0  0  0  0  0
    4.9656   -0.0803    0.0000 S   0  0  0  0  0  0  0  0  0  0  0  0
    6.6977    0.9197    0.0000 O   0  0  0  0  0  0  0  0  0  0  0  0
    3.1861   -0.1736    0.0000 N   0  0  0  0  0  0  0  0  0  0  0  0
    2.5169   -0.9167    0.0000 N   0  0  0  0  0  0  0  0  0  0  0  0
    3.9951   -1.5748    0.0000 N   0  0  0  0  0  0  0  0  0  0  0  0
    3.0169   -1.7827    0.0000 N   0  0  0  0  0  0  0  0  0  0  0  0
    7.5637   -0.5803    0.0000 N   0  0  0  0  0  0  0  0  0  0  0  0
    9.2958   -0.5803    0.0000 N   0  0  0  0  0  0  0  0  0  0  0  0
    2.9782    0.8046    0.0000 C   0  0  0  0  0  0  0  0  0  0  0  0
    2.7702    1.7827    0.0000 C   0  0  0  0  0  0  0  0  0  0  0  0
    2.0000    0.5967    0.0000 C   0  0  0  0  0  0  0  0  0  0  0  0
    3.9563    1.0125    0.0000 C   0  0  0  0  0  0  0  0  0  0  0  0
    4.0996   -0.5803    0.0000 C   0  0  0  0  0  0  0  0  0  0  0  0
    5.8317   -0.5803    0.0000 C   0  0  3  0  0  0  0  0  0  0  0  0
    5.8317   -1.5803    0.0000 C   0  0  0  0  0  0  0  0  0  0  0  0
    6.6977   -0.0803    0.0000 C   0  0  0  0  0  0  0  0  0  0  0  0
    8.4297   -0.0803    0.0000 C   0  0  0  0  0  0  0  0  0  0  0  0
    8.4297    0.9197    0.0000 C   0  0  0  0  0  0  0  0  0  0  0  0
    9.2958    1.4197    0.0000 C   0  0  0  0  0  0  0  0  0  0  0  0
   10.1618   -0.0803    0.0000 C   0  0  0  0  0  0  0  0  0  0  0  0
   10.1618    0.9197    0.0000 C   0  0  0  0  0  0  0  0  0  0  0  0
    3.3767    1.9116    0.0000 H   0  0  0  0  0  0  0  0  0  0  0  0
    2.6413    2.3892    0.0000 H   0  0  0  0  0  0  0  0  0  0  0  0
    2.1638    1.6538    0.0000 H   0  0  0  0  0  0  0  0  0  0  0  0
    1.8711    1.2031    0.0000 H   0  0  0  0  0  0  0  0  0  0  0  0
    1.3936    0.4678    0.0000 H   0  0  0  0  0  0  0  0  0  0  0  0
    2.1289   -0.0098    0.0000 H   0  0  0  0  0  0  0  0  0  0  0  0
    4.0852    0.4060    0.0000 H   0  0  0  0  0  0  0  0  0  0  0  0
    4.5628    1.1414    0.0000 H   0  0  0  0  0  0  0  0  0  0  0  0
    3.8274    1.6189    0.0000 H   0  0  0  0  0  0  0  0  0  0  0  0
    5.2947   -0.8903    0.0000 H   0  0  0  0  0  0  0  0  0  0  0  0
    5.2117   -1.5803    0.0000 H   0  0  0  0  0  0  0  0  0  0  0  0
    5.8317   -2.2003    0.0000 H   0  0  0  0  0  0  0  0  0  0  0  0
    6.4517   -1.5803    0.0000 H   0  0  0  0  0  0  0  0  0  0  0  0
    7.5637   -1.2003    0.0000 H   0  0  0  0  0  0  0  0  0  0  0  0
    7.8928    1.2297    0.0000 H   0  0  0  0  0  0  0  0  0  0  0  0
    9.2958    2.0397    0.0000 H   0  0  0  0  0  0  0  0  0  0  0  0
   10.6987   -0.3903    0.0000 H   0  0  0  0  0  0  0  0  0  0  0  0
  1 22  1  0  0  0  0
  2 14  1  0  0  0  0
  2 15  1  0  0  0  0
  3 17  2  0  0  0  0
  4  5  1  0  0  0  0
  4 10  1  0  0  0  0
  4 14  1  0  0  0  0
  5  7  2  0  0  0  0
  6  7  1  0  0  0  0
  6 14  2  0  0  0  0
  8 17  1  0  0  0  0
  8 18  1  0  0  0  0
  8 36  1  0  0  0  0
  9 18  2  0  0  0  0
  9 21  1  0  0  0  0
 10 11  1  0  0  0  0
 10 12  1  0  0  0  0
 10 13  1  0  0  0  0
 11 23  1  0  0  0  0
 11 24  1  0  0  0  0
 11 25  1  0  0  0  0
 12 26  1  0  0  0  0
 12 27  1  0  0  0  0
 12 28  1  0  0  0  0
 13 29  1  0  0  0  0
 13 30  1  0  0  0  0
 13 31  1  0  0  0  0
 15 16  1  0  0  0  0
 15 17  1  0  0  0  0
 15 32  1  0  0  0  0
 16 33  1  0  0  0  0
 16 34  1  0  0  0  0
 16 35  1  0  0  0  0
 18 19  1  0  0  0  0
 19 20  2  0  0  0  0
 19 37  1  0  0  0  0
 20 22  1  0  0  0  0
 20 38  1  0  0  0  0
 21 22  2  0  0  0  0
 21 39  1  0  0  0  0
M  END
> <PUBCHEM_COMPOUND_CID>
17395965

> <PUBCHEM_COMPOUND_CANONICALIZED>
1

> <PUBCHEM_CACTVS_COMPLEXITY>
393

> <PUBCHEM_CACTVS_HBOND_ACCEPTOR>
6

> <PUBCHEM_CACTVS_HBOND_DONOR>
1

> <PUBCHEM_CACTVS_ROTATABLE_BOND>
5

> <PUBCHEM_CACTVS_SUBSKEYS>
AAADceBzoABEAAAAAAAAAAAAAAAAAWAAAAAsAAAAAAAAAAAB4AAAHgYYAAAADIrF0iS/sJbIEAiqADN3dACCkCtxB7Ad2CE4ZpiIIOLBm5HEIAholQLIyCYQAAAAAAAAAAAAAAAAAAAAAAAAAAAAAAAAAA==

> <PUBCHEM_IUPAC_OPENEYE_NAME>
2-(1-tert-butyltetrazol-5-yl)sulfanyl-N-(5-chloro-2-pyridyl)propanamide

> <PUBCHEM_IUPAC_CAS_NAME>
2-[(1-tert-butyl-5-tetrazolyl)thio]-N-(5-chloro-2-pyridinyl)propanamide

> <PUBCHEM_IUPAC_NAME>
2-(1-tert-butyltetrazol-5-yl)sulfanyl-N-(5-chloropyridin-2-yl)propanamide

> <PUBCHEM_IUPAC_SYSTEMATIC_NAME>
2-[(1-tert-butyl-1,2,3,4-tetrazol-5-yl)sulfanyl]-N-(5-chloranylpyridin-2-yl)propanamide

> <PUBCHEM_IUPAC_TRADITIONAL_NAME>
2-[(1-tert-butyltetrazol-5-yl)thio]-N-(5-chloro-2-pyridyl)propionamide

> <PUBCHEM_IUPAC_INCHI>
InChI=1S/C13H17ClN6OS/c1-8(11(21)16-10-6-5-9(14)7-15-10)22-12-17-18-19-20(12)13(2,3)4/h5-8H,1-4H3,(H,15,16,21)

> <PUBCHEM_IUPAC_INCHIKEY>
GLEXWBFHMHBJDV-UHFFFAOYSA-N

> <PUBCHEM_XLOGP3_AA>
2.5

> <PUBCHEM_EXACT_MASS>
340.087308

> <PUBCHEM_MOLECULAR_FORMULA>
C13H17ClN6OS

> <PUBCHEM_MOLECULAR_WEIGHT>
340.83168

> <PUBCHEM_OPENEYE_CAN_SMILES>
CC(C(=O)NC1=NC=C(C=C1)Cl)SC2=NN=NN2C(C)(C)C

> <PUBCHEM_OPENEYE_ISO_SMILES>
CC(C(=O)NC1=NC=C(C=C1)Cl)SC2=NN=NN2C(C)(C)C

> <PUBCHEM_CACTVS_TPSA>
111

> <PUBCHEM_MONOISOTOPIC_WEIGHT>
340.087308

> <PUBCHEM_TOTAL_CHARGE>
0

> <PUBCHEM_HEAVY_ATOM_COUNT>
22

> <PUBCHEM_ATOM_DEF_STEREO_COUNT>
0

> <PUBCHEM_ATOM_UDEF_STEREO_COUNT>
1

> <PUBCHEM_BOND_DEF_STEREO_COUNT>
0

> <PUBCHEM_BOND_UDEF_STEREO_COUNT>
0

> <PUBCHEM_ISOTOPIC_ATOM_COUNT>
0

> <PUBCHEM_COMPONENT_COUNT>
1

> <PUBCHEM_CACTVS_TAUTO_COUNT>
5

> <PUBCHEM_COORDINATE_TYPE>
1
5
255

> <PUBCHEM_BONDANNOTATIONS>
15  16  3
18  19  8
19  20  8
20  22  8
21  22  8
4  14  8
4  5  8
5  7  8
6  14  8
6  7  8
9  18  8
9  21  8

$$$$

