13497
  -OEChem-06261214492D

 50 52  0     1  0  0  0  0  0999 V2000
    3.2057    0.6921    0.0000 O   0  0  0  0  0  0  0  0  0  0  0  0
    5.2057    2.3649    0.0000 N   0  0  3  0  0  0  0  0  0  0  0  0
    2.7660   -0.5160    0.0000 N   0  0  0  0  0  0  0  0  0  0  0  0
    4.7057    0.8261    0.0000 C   0  0  3  0  0  0  0  0  0  0  0  0
    4.7057   -0.1739    0.0000 C   0  0  0  0  0  0  0  0  0  0  0  0
    3.8967    1.4139    0.0000 C   0  0  0  0  0  0  0  0  0  0  0  0
    5.5148    1.4139    0.0000 C   0  0  0  0  0  0  0  0  0  0  0  0
    4.2057    2.3649    0.0000 C   0  0  0  0  0  0  0  0  0  0  0  0
    4.7057   -1.1739    0.0000 C   0  0  0  0  0  0  0  0  0  0  0  0
    5.7057   -0.1739    0.0000 C   0  0  0  0  0  0  0  0  0  0  0  0
    3.7057   -0.1739    0.0000 C   0  0  0  0  0  0  0  0  0  0  0  0
    5.7935    3.1739    0.0000 C   0  0  0  0  0  0  0  0  0  0  0  0
    3.8397   -1.6739    0.0000 C   0  0  0  0  0  0  0  0  0  0  0  0
    6.2057   -1.0400    0.0000 C   0  0  0  0  0  0  0  0  0  0  0  0
    5.5718   -1.6739    0.0000 C   0  0  0  0  0  0  0  0  0  0  0  0
    6.2057    0.6921    0.0000 C   0  0  0  0  0  0  0  0  0  0  0  0
    3.8397   -2.6739    0.0000 C   0  0  0  0  0  0  0  0  0  0  0  0
    7.2057   -1.0400    0.0000 C   0  0  0  0  0  0  0  0  0  0  0  0
    5.5718   -2.6739    0.0000 C   0  0  0  0  0  0  0  0  0  0  0  0
    7.2057    0.6921    0.0000 C   0  0  0  0  0  0  0  0  0  0  0  0
    2.0000    0.1269    0.0000 C   0  0  0  0  0  0  0  0  0  0  0  0
    2.5925   -1.5008    0.0000 C   0  0  0  0  0  0  0  0  0  0  0  0
    4.7057   -3.1739    0.0000 C   0  0  0  0  0  0  0  0  0  0  0  0
    7.7057   -0.1739    0.0000 C   0  0  0  0  0  0  0  0  0  0  0  0
    4.1533    0.5446    0.0000 H   0  0  0  0  0  0  0  0  0  0  0  0
    3.3303    1.6660    0.0000 H   0  0  0  0  0  0  0  0  0  0  0  0
    3.5867    0.8769    0.0000 H   0  0  0  0  0  0  0  0  0  0  0  0
    5.8248    0.8769    0.0000 H   0  0  0  0  0  0  0  0  0  0  0  0
    6.0812    1.6660    0.0000 H   0  0  0  0  0  0  0  0  0  0  0  0
    4.2705    2.9815    0.0000 H   0  0  0  0  0  0  0  0  0  0  0  0
    3.5993    2.4938    0.0000 H   0  0  0  0  0  0  0  0  0  0  0  0
    6.2951    2.8095    0.0000 H   0  0  0  0  0  0  0  0  0  0  0  0
    6.1579    3.6755    0.0000 H   0  0  0  0  0  0  0  0  0  0  0  0
    5.2919    3.5384    0.0000 H   0  0  0  0  0  0  0  0  0  0  0  0
    5.8957   -1.5769    0.0000 H   0  0  0  0  0  0  0  0  0  0  0  0
    3.3028   -1.3639    0.0000 H   0  0  0  0  0  0  0  0  0  0  0  0
    5.8957    1.2290    0.0000 H   0  0  0  0  0  0  0  0  0  0  0  0
    6.1087   -1.3639    0.0000 H   0  0  0  0  0  0  0  0  0  0  0  0
    7.5157   -1.5769    0.0000 H   0  0  0  0  0  0  0  0  0  0  0  0
    3.3028   -2.9839    0.0000 H   0  0  0  0  0  0  0  0  0  0  0  0
    7.5157    1.2290    0.0000 H   0  0  0  0  0  0  0  0  0  0  0  0
    6.1087   -2.9839    0.0000 H   0  0  0  0  0  0  0  0  0  0  0  0
    1.9819   -1.3932    0.0000 H   0  0  0  0  0  0  0  0  0  0  0  0
    2.4848   -2.1114    0.0000 H   0  0  0  0  0  0  0  0  0  0  0  0
    3.2030   -1.6084    0.0000 H   0  0  0  0  0  0  0  0  0  0  0  0
    2.3986    0.6018    0.0000 H   0  0  0  0  0  0  0  0  0  0  0  0
    1.5251    0.5254    0.0000 H   0  0  0  0  0  0  0  0  0  0  0  0
    1.6014   -0.3481    0.0000 H   0  0  0  0  0  0  0  0  0  0  0  0
    4.7057   -3.7939    0.0000 H   0  0  0  0  0  0  0  0  0  0  0  0
    8.3257   -0.1739    0.0000 H   0  0  0  0  0  0  0  0  0  0  0  0
  1 11  2  0  0  0  0
  2  7  1  0  0  0  0
  2  8  1  0  0  0  0
  2 12  1  0  0  0  0
  3 11  1  0  0  0  0
  3 21  1  0  0  0  0
  3 22  1  0  0  0  0
  4  5  1  0  0  0  0
  4  6  1  0  0  0  0
  4  7  1  0  0  0  0
  4 25  1  0  0  0  0
  5  9  1  0  0  0  0
  5 10  1  0  0  0  0
  5 11  1  0  0  0  0
  6  8  1  0  0  0  0
  6 26  1  0  0  0  0
  6 27  1  0  0  0  0
  7 28  1  0  0  0  0
  7 29  1  0  0  0  0
  8 30  1  0  0  0  0
  8 31  1  0  0  0  0
  9 13  2  0  0  0  0
  9 15  1  0  0  0  0
 10 14  2  0  0  0  0
 10 16  1  0  0  0  0
 12 32  1  0  0  0  0
 12 33  1  0  0  0  0
 12 34  1  0  0  0  0
 13 17  1  0  0  0  0
 13 36  1  0  0  0  0
 14 18  1  0  0  0  0
 14 35  1  0  0  0  0
 15 19  2  0  0  0  0
 15 38  1  0  0  0  0
 16 20  2  0  0  0  0
 16 37  1  0  0  0  0
 17 23  2  0  0  0  0
 17 40  1  0  0  0  0
 18 24  2  0  0  0  0
 18 39  1  0  0  0  0
 19 23  1  0  0  0  0
 19 42  1  0  0  0  0
 20 24  1  0  0  0  0
 20 41  1  0  0  0  0
 21 46  1  0  0  0  0
 21 47  1  0  0  0  0
 21 48  1  0  0  0  0
 22 43  1  0  0  0  0
 22 44  1  0  0  0  0
 22 45  1  0  0  0  0
 23 49  1  0  0  0  0
 24 50  1  0  0  0  0
M  END
> <PUBCHEM_COMPOUND_CID>
13497

> <PUBCHEM_COMPOUND_CANONICALIZED>
1

> <PUBCHEM_CACTVS_COMPLEXITY>
404

> <PUBCHEM_CACTVS_HBOND_ACCEPTOR>
2

> <PUBCHEM_CACTVS_HBOND_DONOR>
0

> <PUBCHEM_CACTVS_ROTATABLE_BOND>
4

> <PUBCHEM_CACTVS_SUBSKEYS>
AAADceB7IAAAAAAAAAAAAAAAAAAAAWAAAAAwYAAAAAAAAAABQAAAHgAAAAAADwDBmAQyAIMAAACIAiFSEAACAAAgAAAIiAEIAIgIIDKAlRGEIAAgggCIiAccicCPgAAAAAAAAAAAAAAAAAAAAAAAAAAAAA==

> <PUBCHEM_IUPAC_OPENEYE_NAME>
N,N-dimethyl-2-(1-methylpyrrolidin-3-yl)-2,2-diphenyl-acetamide

> <PUBCHEM_IUPAC_CAS_NAME>
N,N-dimethyl-2-(1-methyl-3-pyrrolidinyl)-2,2-diphenylacetamide

> <PUBCHEM_IUPAC_NAME>
N,N-dimethyl-2-(1-methylpyrrolidin-3-yl)-2,2-diphenylacetamide

> <PUBCHEM_IUPAC_SYSTEMATIC_NAME>
N,N-dimethyl-2-(1-methylpyrrolidin-3-yl)-2,2-diphenyl-ethanamide

> <PUBCHEM_IUPAC_TRADITIONAL_NAME>
N,N-dimethyl-2-(1-methylpyrrolidin-3-yl)-2,2-diphenyl-acetamide

> <PUBCHEM_IUPAC_INCHI>
InChI=1S/C21H26N2O/c1-22(2)20(24)21(17-10-6-4-7-11-17,18-12-8-5-9-13-18)19-14-15-23(3)16-19/h4-13,19H,14-16H2,1-3H3

> <PUBCHEM_IUPAC_INCHIKEY>
OSIWLFYMANDEML-UHFFFAOYSA-N

> <PUBCHEM_XLOGP3_AA>
3.3

> <PUBCHEM_EXACT_MASS>
322.204513

> <PUBCHEM_MOLECULAR_FORMULA>
C21H26N2O

> <PUBCHEM_MOLECULAR_WEIGHT>
322.44394

> <PUBCHEM_OPENEYE_CAN_SMILES>
CN1CCC(C1)C(C2=CC=CC=C2)(C3=CC=CC=C3)C(=O)N(C)C

> <PUBCHEM_OPENEYE_ISO_SMILES>
CN1CCC(C1)C(C2=CC=CC=C2)(C3=CC=CC=C3)C(=O)N(C)C

> <PUBCHEM_CACTVS_TPSA>
23.6

> <PUBCHEM_MONOISOTOPIC_WEIGHT>
322.204513

> <PUBCHEM_TOTAL_CHARGE>
0

> <PUBCHEM_HEAVY_ATOM_COUNT>
24

> <PUBCHEM_ATOM_DEF_STEREO_COUNT>
0

> <PUBCHEM_ATOM_UDEF_STEREO_COUNT>
1

> <PUBCHEM_BOND_DEF_STEREO_COUNT>
0

> <PUBCHEM_BOND_UDEF_STEREO_COUNT>
0

> <PUBCHEM_ISOTOPIC_ATOM_COUNT>
0

> <PUBCHEM_COMPONENT_COUNT>
1

> <PUBCHEM_CACTVS_TAUTO_COUNT>
1

> <PUBCHEM_COORDINATE_TYPE>
1
5
255

> <PUBCHEM_BONDANNOTATIONS>
10  14  8
10  16  8
13  17  8
14  18  8
15  19  8
16  20  8
17  23  8
18  24  8
19  23  8
20  24  8
4  5  3
9  13  8
9  15  8

$$$$

