17395892
  -OEChem-06241222532D

 53 55  0     1  0  0  0  0  0999 V2000
    7.1962    1.5670    0.0000 O   0  0  0  0  0  0  0  0  0  0  0  0
    5.4641   -4.4330    0.0000 O   0  0  0  0  0  0  0  0  0  0  0  0
    3.7320    0.5670    0.0000 O   0  0  0  0  0  0  0  0  0  0  0  0
    7.1962   -1.4330    0.0000 O   0  0  0  0  0  0  0  0  0  0  0  0
    5.4641    1.5670    0.0000 N   0  0  0  0  0  0  0  0  0  0  0  0
    5.4641   -2.4330    0.0000 N   0  0  0  0  0  0  0  0  0  0  0  0
    6.8301    3.9330    0.0000 C   0  0  3  0  0  0  0  0  0  0  0  0
    6.3301    3.0670    0.0000 C   0  0  3  0  0  0  0  0  0  0  0  0
    5.8301    3.9330    0.0000 C   0  0  0  0  0  0  0  0  0  0  0  0
    7.6962    4.4330    0.0000 C   0  0  0  0  0  0  0  0  0  0  0  0
    6.3301    2.0670    0.0000 C   0  0  0  0  0  0  0  0  0  0  0  0
    5.4641    0.5670    0.0000 C   0  0  0  0  0  0  0  0  0  0  0  0
    4.5981    0.0670    0.0000 C   0  0  0  0  0  0  0  0  0  0  0  0
    5.4641   -1.4330    0.0000 C   0  0  0  0  0  0  0  0  0  0  0  0
    6.3301    0.0670    0.0000 C   0  0  0  0  0  0  0  0  0  0  0  0
    6.3301   -2.9330    0.0000 C   0  0  0  0  0  0  0  0  0  0  0  0
    4.5981   -2.9330    0.0000 C   0  0  0  0  0  0  0  0  0  0  0  0
    6.3301   -0.9330    0.0000 C   0  0  0  0  0  0  0  0  0  0  0  0
    4.5981   -0.9330    0.0000 C   0  0  0  0  0  0  0  0  0  0  0  0
    6.3301   -3.9330    0.0000 C   0  0  0  0  0  0  0  0  0  0  0  0
    4.5981   -3.9330    0.0000 C   0  0  0  0  0  0  0  0  0  0  0  0
    2.8660    0.0670    0.0000 C   0  0  0  0  0  0  0  0  0  0  0  0
    8.0622   -0.9330    0.0000 C   0  0  0  0  0  0  0  0  0  0  0  0
    2.0000    0.5670    0.0000 C   0  0  0  0  0  0  0  0  0  0  0  0
    8.9282   -1.4330    0.0000 C   0  0  0  0  0  0  0  0  0  0  0  0
    6.6697    4.5319    0.0000 H   0  0  0  0  0  0  0  0  0  0  0  0
    6.9290    2.9065    0.0000 H   0  0  0  0  0  0  0  0  0  0  0  0
    5.7225    4.5436    0.0000 H   0  0  0  0  0  0  0  0  0  0  0  0
    5.2475    3.7210    0.0000 H   0  0  0  0  0  0  0  0  0  0  0  0
    8.0062    3.8961    0.0000 H   0  0  0  0  0  0  0  0  0  0  0  0
    8.2331    4.7430    0.0000 H   0  0  0  0  0  0  0  0  0  0  0  0
    7.3862    4.9700    0.0000 H   0  0  0  0  0  0  0  0  0  0  0  0
    4.9272    1.8770    0.0000 H   0  0  0  0  0  0  0  0  0  0  0  0
    6.8671    0.3770    0.0000 H   0  0  0  0  0  0  0  0  0  0  0  0
    6.9407   -3.0407    0.0000 H   0  0  0  0  0  0  0  0  0  0  0  0
    6.5422   -2.3504    0.0000 H   0  0  0  0  0  0  0  0  0  0  0  0
    4.3860   -2.3504    0.0000 H   0  0  0  0  0  0  0  0  0  0  0  0
    3.9875   -3.0407    0.0000 H   0  0  0  0  0  0  0  0  0  0  0  0
    4.0611   -1.2430    0.0000 H   0  0  0  0  0  0  0  0  0  0  0  0
    3.9875   -3.8254    0.0000 H   0  0  0  0  0  0  0  0  0  0  0  0
    4.3860   -4.5156    0.0000 H   0  0  0  0  0  0  0  0  0  0  0  0
    6.5422   -4.5156    0.0000 H   0  0  0  0  0  0  0  0  0  0  0  0
    6.9407   -3.8254    0.0000 H   0  0  0  0  0  0  0  0  0  0  0  0
    2.4675   -0.4080    0.0000 H   0  0  0  0  0  0  0  0  0  0  0  0
    3.2646   -0.4080    0.0000 H   0  0  0  0  0  0  0  0  0  0  0  0
    8.4607   -0.4581    0.0000 H   0  0  0  0  0  0  0  0  0  0  0  0
    7.6636   -0.4581    0.0000 H   0  0  0  0  0  0  0  0  0  0  0  0
    2.3100    1.1039    0.0000 H   0  0  0  0  0  0  0  0  0  0  0  0
    1.4631    0.8770    0.0000 H   0  0  0  0  0  0  0  0  0  0  0  0
    1.6900    0.0301    0.0000 H   0  0  0  0  0  0  0  0  0  0  0  0
    8.6182   -1.9700    0.0000 H   0  0  0  0  0  0  0  0  0  0  0  0
    9.4651   -1.7430    0.0000 H   0  0  0  0  0  0  0  0  0  0  0  0
    9.2382   -0.8961    0.0000 H   0  0  0  0  0  0  0  0  0  0  0  0
  1 11  2  0  0  0  0
  2 20  1  0  0  0  0
  2 21  1  0  0  0  0
  3 13  1  0  0  0  0
  3 22  1  0  0  0  0
  4 18  1  0  0  0  0
  4 23  1  0  0  0  0
  5 11  1  0  0  0  0
  5 12  1  0  0  0  0
  5 33  1  0  0  0  0
  6 14  1  0  0  0  0
  6 16  1  0  0  0  0
  6 17  1  0  0  0  0
  7  8  1  0  0  0  0
  7  9  1  0  0  0  0
  7 10  1  0  0  0  0
  7 26  1  0  0  0  0
  8  9  1  0  0  0  0
  8 11  1  0  0  0  0
  8 27  1  0  0  0  0
  9 28  1  0  0  0  0
  9 29  1  0  0  0  0
 10 30  1  0  0  0  0
 10 31  1  0  0  0  0
 10 32  1  0  0  0  0
 12 13  1  0  0  0  0
 12 15  2  0  0  0  0
 13 19  2  0  0  0  0
 14 18  2  0  0  0  0
 14 19  1  0  0  0  0
 15 18  1  0  0  0  0
 15 34  1  0  0  0  0
 16 20  1  0  0  0  0
 16 35  1  0  0  0  0
 16 36  1  0  0  0  0
 17 21  1  0  0  0  0
 17 37  1  0  0  0  0
 17 38  1  0  0  0  0
 19 39  1  0  0  0  0
 20 42  1  0  0  0  0
 20 43  1  0  0  0  0
 21 40  1  0  0  0  0
 21 41  1  0  0  0  0
 22 24  1  0  0  0  0
 22 44  1  0  0  0  0
 22 45  1  0  0  0  0
 23 25  1  0  0  0  0
 23 46  1  0  0  0  0
 23 47  1  0  0  0  0
 24 48  1  0  0  0  0
 24 49  1  0  0  0  0
 24 50  1  0  0  0  0
 25 51  1  0  0  0  0
 25 52  1  0  0  0  0
 25 53  1  0  0  0  0
M  END
> <PUBCHEM_COMPOUND_CID>
17395892

> <PUBCHEM_COMPOUND_CANONICALIZED>
1

> <PUBCHEM_CACTVS_COMPLEXITY>
441

> <PUBCHEM_CACTVS_HBOND_ACCEPTOR>
5

> <PUBCHEM_CACTVS_HBOND_DONOR>
1

> <PUBCHEM_CACTVS_ROTATABLE_BOND>
7

> <PUBCHEM_CACTVS_SUBSKEYS>
AAADceB7OAAAAAAAAAAAAAAAGAAAAAAAAAA8QAAAAAAAAAABAAAAHgAQAAAADQzhkAYyxoPABACIACVSUACCCAAhIgAAiAEPbIgOJjLEsJuHOCjm1BnY6AfYUAMIAQCAAgAAEAACAQAEAAAgAAAAAAAAAA==

> <PUBCHEM_IUPAC_OPENEYE_NAME>
N-(2,5-diethoxy-4-morpholino-phenyl)-2-methyl-cyclopropanecarboxamide

> <PUBCHEM_IUPAC_CAS_NAME>
N-[2,5-diethoxy-4-(4-morpholinyl)phenyl]-2-methyl-1-cyclopropanecarboxamide

> <PUBCHEM_IUPAC_NAME>
N-(2,5-diethoxy-4-morpholin-4-ylphenyl)-2-methylcyclopropane-1-carboxamide

> <PUBCHEM_IUPAC_SYSTEMATIC_NAME>
N-(2,5-diethoxy-4-morpholin-4-yl-phenyl)-2-methyl-cyclopropane-1-carboxamide

> <PUBCHEM_IUPAC_TRADITIONAL_NAME>
N-(2,5-diethoxy-4-morpholino-phenyl)-2-methyl-cyclopropanecarboxamide

> <PUBCHEM_IUPAC_INCHI>
InChI=1S/C19H28N2O4/c1-4-24-17-12-16(21-6-8-23-9-7-21)18(25-5-2)11-15(17)20-19(22)14-10-13(14)3/h11-14H,4-10H2,1-3H3,(H,20,22)

> <PUBCHEM_IUPAC_INCHIKEY>
RQIROYPXAYLXME-UHFFFAOYSA-N

> <PUBCHEM_XLOGP3_AA>
2.4

> <PUBCHEM_EXACT_MASS>
348.204907

> <PUBCHEM_MOLECULAR_FORMULA>
C19H28N2O4

> <PUBCHEM_MOLECULAR_WEIGHT>
348.43662

> <PUBCHEM_OPENEYE_CAN_SMILES>
CCOC1=CC(=C(C=C1N2CCOCC2)OCC)NC(=O)C3CC3C

> <PUBCHEM_OPENEYE_ISO_SMILES>
CCOC1=CC(=C(C=C1N2CCOCC2)OCC)NC(=O)C3CC3C

> <PUBCHEM_CACTVS_TPSA>
60

> <PUBCHEM_MONOISOTOPIC_WEIGHT>
348.204907

> <PUBCHEM_TOTAL_CHARGE>
0

> <PUBCHEM_HEAVY_ATOM_COUNT>
25

> <PUBCHEM_ATOM_DEF_STEREO_COUNT>
0

> <PUBCHEM_ATOM_UDEF_STEREO_COUNT>
2

> <PUBCHEM_BOND_DEF_STEREO_COUNT>
0

> <PUBCHEM_BOND_UDEF_STEREO_COUNT>
0

> <PUBCHEM_ISOTOPIC_ATOM_COUNT>
0

> <PUBCHEM_COMPONENT_COUNT>
1

> <PUBCHEM_CACTVS_TAUTO_COUNT>
3

> <PUBCHEM_COORDINATE_TYPE>
1
5
255

> <PUBCHEM_BONDANNOTATIONS>
12  13  8
12  15  8
13  19  8
14  18  8
14  19  8
15  18  8
7  10  3
8  11  3

$$$$

