12853
  -OEChem-06261207272D

 26 27  0     0  0  0  0  0  0999 V2000
    3.7688    3.1307    0.0000 O   0  0  0  0  0  0  0  0  0  0  0  0
    3.0878   -0.1307    0.0000 N   0  0  0  0  0  0  0  0  0  0  0  0
    2.2788    0.4571    0.0000 N   0  0  0  0  0  0  0  0  0  0  0  0
    4.1756    2.2172    0.0000 N   0  0  0  0  0  0  0  0  0  0  0  0
    3.8968    0.4571    0.0000 C   0  0  0  0  0  0  0  0  0  0  0  0
    3.5878    1.4081    0.0000 C   0  0  0  0  0  0  0  0  0  0  0  0
    3.0878   -1.1307    0.0000 C   0  0  0  0  0  0  0  0  0  0  0  0
    2.5878    1.4081    0.0000 C   0  0  0  0  0  0  0  0  0  0  0  0
    4.8479    0.1481    0.0000 C   0  0  0  0  0  0  0  0  0  0  0  0
    2.2218   -1.6307    0.0000 C   0  0  0  0  0  0  0  0  0  0  0  0
    3.9538   -1.6307    0.0000 C   0  0  0  0  0  0  0  0  0  0  0  0
    2.0000    2.2172    0.0000 C   0  0  0  0  0  0  0  0  0  0  0  0
    2.2218   -2.6307    0.0000 C   0  0  0  0  0  0  0  0  0  0  0  0
    3.9538   -2.6307    0.0000 C   0  0  0  0  0  0  0  0  0  0  0  0
    3.0878   -3.1307    0.0000 C   0  0  0  0  0  0  0  0  0  0  0  0
    4.6563   -0.4416    0.0000 H   0  0  0  0  0  0  0  0  0  0  0  0
    5.4375   -0.0435    0.0000 H   0  0  0  0  0  0  0  0  0  0  0  0
    5.0395    0.7377    0.0000 H   0  0  0  0  0  0  0  0  0  0  0  0
    1.6848   -1.3207    0.0000 H   0  0  0  0  0  0  0  0  0  0  0  0
    4.4908   -1.3207    0.0000 H   0  0  0  0  0  0  0  0  0  0  0  0
    2.5016    2.5816    0.0000 H   0  0  0  0  0  0  0  0  0  0  0  0
    1.6356    2.7188    0.0000 H   0  0  0  0  0  0  0  0  0  0  0  0
    1.4984    1.8527    0.0000 H   0  0  0  0  0  0  0  0  0  0  0  0
    1.6848   -2.9407    0.0000 H   0  0  0  0  0  0  0  0  0  0  0  0
    4.4908   -2.9407    0.0000 H   0  0  0  0  0  0  0  0  0  0  0  0
    3.0878   -3.7507    0.0000 H   0  0  0  0  0  0  0  0  0  0  0  0
  1  4  2  0  0  0  0
  2  3  1  0  0  0  0
  2  5  1  0  0  0  0
  2  7  1  0  0  0  0
  3  8  2  0  0  0  0
  4  6  1  0  0  0  0
  5  6  2  0  0  0  0
  5  9  1  0  0  0  0
  6  8  1  0  0  0  0
  7 10  2  0  0  0  0
  7 11  1  0  0  0  0
  8 12  1  0  0  0  0
  9 16  1  0  0  0  0
  9 17  1  0  0  0  0
  9 18  1  0  0  0  0
 10 13  1  0  0  0  0
 10 19  1  0  0  0  0
 11 14  2  0  0  0  0
 11 20  1  0  0  0  0
 12 21  1  0  0  0  0
 12 22  1  0  0  0  0
 12 23  1  0  0  0  0
 13 15  2  0  0  0  0
 13 24  1  0  0  0  0
 14 15  1  0  0  0  0
 14 25  1  0  0  0  0
 15 26  1  0  0  0  0
M  END
> <PUBCHEM_COMPOUND_CID>
12853

> <PUBCHEM_COMPOUND_CANONICALIZED>
1

> <PUBCHEM_CACTVS_COMPLEXITY>
228

> <PUBCHEM_CACTVS_HBOND_ACCEPTOR>
3

> <PUBCHEM_CACTVS_HBOND_DONOR>
0

> <PUBCHEM_CACTVS_ROTATABLE_BOND>
1

> <PUBCHEM_CACTVS_SUBSKEYS>
AAADccBzIAAAAAAAAAAAAAAAAAAAAWAAAAAwAAAAAAAAAAABwAAAHAAMAAAACAiBFgAywJIYAACjASRiRgCSBCAhEgAYmCAwdJoIYGLA0dGUpAhgiIDIyAcQAAAAAAAAAAAAAAAAAAAAAAAAAAAAAAAAAA==

> <PUBCHEM_IUPAC_OPENEYE_NAME>
3,5-dimethyl-4-nitroso-1-phenyl-pyrazole

> <PUBCHEM_IUPAC_CAS_NAME>
3,5-dimethyl-4-nitroso-1-phenylpyrazole

> <PUBCHEM_IUPAC_NAME>
3,5-dimethyl-4-nitroso-1-phenylpyrazole

> <PUBCHEM_IUPAC_SYSTEMATIC_NAME>
3,5-dimethyl-4-nitroso-1-phenyl-pyrazole

> <PUBCHEM_IUPAC_TRADITIONAL_NAME>
3,5-dimethyl-4-nitroso-1-phenyl-pyrazole

> <PUBCHEM_IUPAC_INCHI>
InChI=1S/C11H11N3O/c1-8-11(13-15)9(2)14(12-8)10-6-4-3-5-7-10/h3-7H,1-2H3

> <PUBCHEM_IUPAC_INCHIKEY>
SCHFUNOUOHIHSX-UHFFFAOYSA-N

> <PUBCHEM_XLOGP3>
2.3

> <PUBCHEM_EXACT_MASS>
201.090212

> <PUBCHEM_MOLECULAR_FORMULA>
C11H11N3O

> <PUBCHEM_MOLECULAR_WEIGHT>
201.22454

> <PUBCHEM_OPENEYE_CAN_SMILES>
CC1=C(C(=NN1C2=CC=CC=C2)C)N=O

> <PUBCHEM_OPENEYE_ISO_SMILES>
CC1=C(C(=NN1C2=CC=CC=C2)C)N=O

> <PUBCHEM_CACTVS_TPSA>
47.2

> <PUBCHEM_MONOISOTOPIC_WEIGHT>
201.090212

> <PUBCHEM_TOTAL_CHARGE>
0

> <PUBCHEM_HEAVY_ATOM_COUNT>
15

> <PUBCHEM_ATOM_DEF_STEREO_COUNT>
0

> <PUBCHEM_ATOM_UDEF_STEREO_COUNT>
0

> <PUBCHEM_BOND_DEF_STEREO_COUNT>
0

> <PUBCHEM_BOND_UDEF_STEREO_COUNT>
0

> <PUBCHEM_ISOTOPIC_ATOM_COUNT>
0

> <PUBCHEM_COMPONENT_COUNT>
1

> <PUBCHEM_CACTVS_TAUTO_COUNT>
1

> <PUBCHEM_COORDINATE_TYPE>
1
5
255

> <PUBCHEM_BONDANNOTATIONS>
10  13  8
11  14  8
13  15  8
14  15  8
2  3  8
2  5  8
3  8  8
5  6  8
6  8  8
7  10  8
7  11  8

$$$$

