47205515
  -OEChem-06241222592D

 42 43  0     0  0  0  0  0  0999 V2000
    7.6178   -0.2196    0.0000 O   0  0  0  0  0  0  0  0  0  0  0  0
    7.0826    1.4277    0.0000 N   0  0  0  0  0  0  0  0  0  0  0  0
   10.0858    2.0186    0.0000 N   0  0  0  0  0  0  0  0  0  0  0  0
    4.4374    1.4788    0.0000 C   0  0  0  0  0  0  0  0  0  0  0  0
    5.3884    1.7878    0.0000 C   0  0  0  0  0  0  0  0  0  0  0  0
    3.6942    2.1479    0.0000 C   0  0  0  0  0  0  0  0  0  0  0  0
    6.1316    1.1187    0.0000 C   0  0  0  0  0  0  0  0  0  0  0  0
    2.7431    1.8389    0.0000 C   0  0  0  0  0  0  0  0  0  0  0  0
    8.7768    1.0676    0.0000 C   0  0  0  0  0  0  0  0  0  0  0  0
    9.5858    0.4798    0.0000 C   0  0  0  0  0  0  0  0  0  0  0  0
    7.8258    0.7586    0.0000 C   0  0  0  0  0  0  0  0  0  0  0  0
    2.0000    2.5080    0.0000 C   0  0  0  0  0  0  0  0  0  0  0  0
    9.5858   -0.5202    0.0000 C   0  0  0  0  0  0  0  0  0  0  0  0
    9.0858    2.0186    0.0000 C   0  0  0  0  0  0  0  0  0  0  0  0
   10.3948    1.0676    0.0000 C   0  0  0  0  0  0  0  0  0  0  0  0
    8.7198   -1.0202    0.0000 C   0  0  0  0  0  0  0  0  0  0  0  0
   10.4518   -1.0202    0.0000 C   0  0  0  0  0  0  0  0  0  0  0  0
    8.7198   -2.0202    0.0000 C   0  0  0  0  0  0  0  0  0  0  0  0
   10.4518   -2.0202    0.0000 C   0  0  0  0  0  0  0  0  0  0  0  0
    9.5858   -2.5202    0.0000 C   0  0  0  0  0  0  0  0  0  0  0  0
    3.9488    1.0971    0.0000 H   0  0  0  0  0  0  0  0  0  0  0  0
    4.7284    0.9314    0.0000 H   0  0  0  0  0  0  0  0  0  0  0  0
    5.8770    2.1695    0.0000 H   0  0  0  0  0  0  0  0  0  0  0  0
    5.0973    2.3352    0.0000 H   0  0  0  0  0  0  0  0  0  0  0  0
    4.1828    2.5296    0.0000 H   0  0  0  0  0  0  0  0  0  0  0  0
    3.4031    2.6953    0.0000 H   0  0  0  0  0  0  0  0  0  0  0  0
    5.6430    0.7370    0.0000 H   0  0  0  0  0  0  0  0  0  0  0  0
    6.4226    0.5712    0.0000 H   0  0  0  0  0  0  0  0  0  0  0  0
    2.2546    1.4572    0.0000 H   0  0  0  0  0  0  0  0  0  0  0  0
    3.0342    1.2915    0.0000 H   0  0  0  0  0  0  0  0  0  0  0  0
    7.2115    2.0341    0.0000 H   0  0  0  0  0  0  0  0  0  0  0  0
    2.4149    2.9688    0.0000 H   0  0  0  0  0  0  0  0  0  0  0  0
    1.5392    2.9229    0.0000 H   0  0  0  0  0  0  0  0  0  0  0  0
    1.5851    2.0473    0.0000 H   0  0  0  0  0  0  0  0  0  0  0  0
    8.7214    2.5202    0.0000 H   0  0  0  0  0  0  0  0  0  0  0  0
   10.9845    0.8760    0.0000 H   0  0  0  0  0  0  0  0  0  0  0  0
   10.4502    2.5202    0.0000 H   0  0  0  0  0  0  0  0  0  0  0  0
    8.1829   -0.7102    0.0000 H   0  0  0  0  0  0  0  0  0  0  0  0
   10.9888   -0.7102    0.0000 H   0  0  0  0  0  0  0  0  0  0  0  0
    8.1829   -2.3302    0.0000 H   0  0  0  0  0  0  0  0  0  0  0  0
   10.9888   -2.3302    0.0000 H   0  0  0  0  0  0  0  0  0  0  0  0
    9.5858   -3.1402    0.0000 H   0  0  0  0  0  0  0  0  0  0  0  0
  1 11  2  0  0  0  0
  2  7  1  0  0  0  0
  2 11  1  0  0  0  0
  2 31  1  0  0  0  0
  3 14  1  0  0  0  0
  3 15  1  0  0  0  0
  3 37  1  0  0  0  0
  4  5  1  0  0  0  0
  4  6  1  0  0  0  0
  4 21  1  0  0  0  0
  4 22  1  0  0  0  0
  5  7  1  0  0  0  0
  5 23  1  0  0  0  0
  5 24  1  0  0  0  0
  6  8  1  0  0  0  0
  6 25  1  0  0  0  0
  6 26  1  0  0  0  0
  7 27  1  0  0  0  0
  7 28  1  0  0  0  0
  8 12  1  0  0  0  0
  8 29  1  0  0  0  0
  8 30  1  0  0  0  0
  9 10  1  0  0  0  0
  9 11  1  0  0  0  0
  9 14  2  0  0  0  0
 10 13  1  0  0  0  0
 10 15  2  0  0  0  0
 12 32  1  0  0  0  0
 12 33  1  0  0  0  0
 12 34  1  0  0  0  0
 13 16  2  0  0  0  0
 13 17  1  0  0  0  0
 14 35  1  0  0  0  0
 15 36  1  0  0  0  0
 16 18  1  0  0  0  0
 16 38  1  0  0  0  0
 17 19  2  0  0  0  0
 17 39  1  0  0  0  0
 18 20  2  0  0  0  0
 18 40  1  0  0  0  0
 19 20  1  0  0  0  0
 19 41  1  0  0  0  0
 20 42  1  0  0  0  0
M  END
> <PUBCHEM_COMPOUND_CID>
47205515

> <PUBCHEM_COMPOUND_CANONICALIZED>
1

> <PUBCHEM_CACTVS_COMPLEXITY>
287

> <PUBCHEM_CACTVS_HBOND_ACCEPTOR>
1

> <PUBCHEM_CACTVS_HBOND_DONOR>
2

> <PUBCHEM_CACTVS_ROTATABLE_BOND>
7

> <PUBCHEM_CACTVS_SUBSKEYS>
AAADceB7IAAAAAAAAAAAAAAAAAAAAWAAAAAwAAAAAAAAAAABwAAAHgAQAAAADADBmgQ+gJLJkACoAjF3VACCgCA1ACAI2aEoRNgIIHrA1ZGEIYhglgDIyccciMCOgAAAAAAAAAAAAAAAAAAAAAAAAAAAAA==

> <PUBCHEM_IUPAC_OPENEYE_NAME>
N-hexyl-4-phenyl-1H-pyrrole-3-carboxamide

> <PUBCHEM_IUPAC_CAS_NAME>
N-hexyl-4-phenyl-1H-pyrrole-3-carboxamide

> <PUBCHEM_IUPAC_NAME>
N-hexyl-4-phenyl-1H-pyrrole-3-carboxamide

> <PUBCHEM_IUPAC_SYSTEMATIC_NAME>
N-hexyl-4-phenyl-1H-pyrrole-3-carboxamide

> <PUBCHEM_IUPAC_TRADITIONAL_NAME>
N-hexyl-4-phenyl-1H-pyrrole-3-carboxamide

> <PUBCHEM_IUPAC_INCHI>
InChI=1S/C17H22N2O/c1-2-3-4-8-11-19-17(20)16-13-18-12-15(16)14-9-6-5-7-10-14/h5-7,9-10,12-13,18H,2-4,8,11H2,1H3,(H,19,20)

> <PUBCHEM_IUPAC_INCHIKEY>
WYRHFGGNILZRJC-UHFFFAOYSA-N

> <PUBCHEM_XLOGP3_AA>
3.9

> <PUBCHEM_EXACT_MASS>
270.173213

> <PUBCHEM_MOLECULAR_FORMULA>
C17H22N2O

> <PUBCHEM_MOLECULAR_WEIGHT>
270.36938

> <PUBCHEM_OPENEYE_CAN_SMILES>
CCCCCCNC(=O)C1=CNC=C1C2=CC=CC=C2

> <PUBCHEM_OPENEYE_ISO_SMILES>
CCCCCCNC(=O)C1=CNC=C1C2=CC=CC=C2

> <PUBCHEM_CACTVS_TPSA>
44.9

> <PUBCHEM_MONOISOTOPIC_WEIGHT>
270.173213

> <PUBCHEM_TOTAL_CHARGE>
0

> <PUBCHEM_HEAVY_ATOM_COUNT>
20

> <PUBCHEM_ATOM_DEF_STEREO_COUNT>
0

> <PUBCHEM_ATOM_UDEF_STEREO_COUNT>
0

> <PUBCHEM_BOND_DEF_STEREO_COUNT>
0

> <PUBCHEM_BOND_UDEF_STEREO_COUNT>
0

> <PUBCHEM_ISOTOPIC_ATOM_COUNT>
0

> <PUBCHEM_COMPONENT_COUNT>
1

> <PUBCHEM_CACTVS_TAUTO_COUNT>
5

> <PUBCHEM_COORDINATE_TYPE>
1
5
255

> <PUBCHEM_BONDANNOTATIONS>
10  15  8
13  16  8
13  17  8
16  18  8
17  19  8
18  20  8
19  20  8
3  14  8
3  15  8
9  10  8
9  14  8

$$$$

