582769
  -OEChem-06241222442D

 60 65  0     1  0  0  0  0  0999 V2000
    9.7884    4.9132    0.0000 F   0  0  0  0  0  0  0  0  0  0  0  0
   10.1921    0.5730    0.0000 O   0  0  0  0  0  0  0  0  0  0  0  0
    6.2619   -3.1639    0.0000 O   0  0  0  0  0  0  0  0  0  0  0  0
    8.5458    1.1111    0.0000 N   0  0  0  0  0  0  0  0  0  0  0  0
    7.9245   -0.7899    0.0000 N   0  0  0  0  0  0  0  0  0  0  0  0
    8.3096   -3.5774    0.0000 N   0  0  0  0  0  0  0  0  0  0  0  0
    7.5673    0.9049    0.0000 N   0  0  0  0  0  0  0  0  0  0  0  0
    5.9674   -1.2024    0.0000 N   0  0  0  0  0  0  0  0  0  0  0  0
    4.9889   -1.4086    0.0000 N   0  0  0  0  0  0  0  0  0  0  0  0
    4.6783   -3.9686    0.0000 N   0  0  0  0  0  0  0  0  0  0  0  0
    8.9030   -0.5837    0.0000 C   0  0  3  0  0  0  0  0  0  0  0  0
    9.5708   -1.3280    0.0000 C   0  0  0  0  0  0  0  0  0  0  0  0
    9.2601   -2.2785    0.0000 C   0  0  0  0  0  0  0  0  0  0  0  0
    9.8437   -3.0833    0.0000 C   0  0  0  0  0  0  0  0  0  0  0  0
    9.2136    0.3668    0.0000 C   0  0  0  0  0  0  0  0  0  0  0  0
    9.2532   -3.8903    0.0000 C   0  0  0  0  0  0  0  0  0  0  0  0
    8.3139   -2.5833    0.0000 C   0  0  0  0  0  0  0  0  0  0  0  0
    7.2566   -0.0456    0.0000 C   0  0  0  0  0  0  0  0  0  0  0  0
   10.8379   -3.1913    0.0000 C   0  0  0  0  0  0  0  0  0  0  0  0
    8.8564    2.0616    0.0000 C   0  0  0  0  0  0  0  0  0  0  0  0
    9.6567   -4.8052    0.0000 C   0  0  0  0  0  0  0  0  0  0  0  0
    6.2781   -0.2519    0.0000 C   0  0  0  0  0  0  0  0  0  0  0  0
   11.2415   -4.1062    0.0000 C   0  0  0  0  0  0  0  0  0  0  0  0
   10.6509   -4.9132    0.0000 C   0  0  0  0  0  0  0  0  0  0  0  0
    8.1886    2.8059    0.0000 C   0  0  0  0  0  0  0  0  0  0  0  0
    9.8349    2.2678    0.0000 C   0  0  0  0  0  0  0  0  0  0  0  0
    5.6103    0.4924    0.0000 C   0  0  0  0  0  0  0  0  0  0  0  0
    8.4993    3.7564    0.0000 C   0  0  0  0  0  0  0  0  0  0  0  0
   10.1456    3.2184    0.0000 C   0  0  0  0  0  0  0  0  0  0  0  0
    4.6783   -2.3591    0.0000 C   0  0  0  0  0  0  0  0  0  0  0  0
    3.7321   -2.6639    0.0000 C   0  0  0  0  0  0  0  0  0  0  0  0
    9.4778    3.9627    0.0000 C   0  0  0  0  0  0  0  0  0  0  0  0
    3.7321   -3.6639    0.0000 C   0  0  0  0  0  0  0  0  0  0  0  0
    5.2619   -3.1639    0.0000 C   0  0  0  0  0  0  0  0  0  0  0  0
    2.8660   -2.1639    0.0000 C   0  0  0  0  0  0  0  0  0  0  0  0
    2.8660   -4.1639    0.0000 C   0  0  0  0  0  0  0  0  0  0  0  0
    2.0000   -2.6639    0.0000 C   0  0  0  0  0  0  0  0  0  0  0  0
    2.0000   -3.6639    0.0000 C   0  0  0  0  0  0  0  0  0  0  0  0
    8.7103   -1.1730    0.0000 H   0  0  0  0  0  0  0  0  0  0  0  0
    9.9534   -0.8401    0.0000 H   0  0  0  0  0  0  0  0  0  0  0  0
   10.1177   -1.6200    0.0000 H   0  0  0  0  0  0  0  0  0  0  0  0
    7.8136   -2.2171    0.0000 H   0  0  0  0  0  0  0  0  0  0  0  0
    7.8061   -3.9392    0.0000 H   0  0  0  0  0  0  0  0  0  0  0  0
    7.1532    1.3663    0.0000 H   0  0  0  0  0  0  0  0  0  0  0  0
   11.2041   -2.6909    0.0000 H   0  0  0  0  0  0  0  0  0  0  0  0
    9.2906   -5.3055    0.0000 H   0  0  0  0  0  0  0  0  0  0  0  0
   11.8578   -4.1731    0.0000 H   0  0  0  0  0  0  0  0  0  0  0  0
   10.9011   -5.4804    0.0000 H   0  0  0  0  0  0  0  0  0  0  0  0
    7.5819    2.6781    0.0000 H   0  0  0  0  0  0  0  0  0  0  0  0
   10.2490    1.8064    0.0000 H   0  0  0  0  0  0  0  0  0  0  0  0
    6.0717    0.9065    0.0000 H   0  0  0  0  0  0  0  0  0  0  0  0
    5.1488    0.0784    0.0000 H   0  0  0  0  0  0  0  0  0  0  0  0
    5.1962    0.9539    0.0000 H   0  0  0  0  0  0  0  0  0  0  0  0
    8.0852    4.2179    0.0000 H   0  0  0  0  0  0  0  0  0  0  0  0
   10.7523    3.3462    0.0000 H   0  0  0  0  0  0  0  0  0  0  0  0
    4.5749   -0.9471    0.0000 H   0  0  0  0  0  0  0  0  0  0  0  0
    2.8660   -1.5439    0.0000 H   0  0  0  0  0  0  0  0  0  0  0  0
    2.8660   -4.7839    0.0000 H   0  0  0  0  0  0  0  0  0  0  0  0
    1.4631   -2.3539    0.0000 H   0  0  0  0  0  0  0  0  0  0  0  0
    1.4631   -3.9739    0.0000 H   0  0  0  0  0  0  0  0  0  0  0  0
  1 32  1  0  0  0  0
  2 15  2  0  0  0  0
  3 34  2  0  0  0  0
  4  7  1  0  0  0  0
  4 15  1  0  0  0  0
  4 20  1  0  0  0  0
  5 11  1  0  0  0  0
  5 18  2  0  0  0  0
  6 16  1  0  0  0  0
  6 17  1  0  0  0  0
  6 43  1  0  0  0  0
  7 18  1  0  0  0  0
  7 44  1  0  0  0  0
  8  9  1  0  0  0  0
  8 22  2  3  0  0  0
  9 30  1  0  0  0  0
  9 56  1  0  0  0  0
 10 33  2  0  0  0  0
 10 34  1  0  0  0  0
 11 12  1  0  0  0  0
 11 15  1  0  0  0  0
 11 39  1  0  0  0  0
 12 13  1  0  0  0  0
 12 40  1  0  0  0  0
 12 41  1  0  0  0  0
 13 14  1  0  0  0  0
 13 17  2  0  0  0  0
 14 16  1  0  0  0  0
 14 19  2  0  0  0  0
 16 21  2  0  0  0  0
 17 42  1  0  0  0  0
 18 22  1  0  0  0  0
 19 23  1  0  0  0  0
 19 45  1  0  0  0  0
 20 25  2  0  0  0  0
 20 26  1  0  0  0  0
 21 24  1  0  0  0  0
 21 46  1  0  0  0  0
 22 27  1  0  0  0  0
 23 24  2  0  0  0  0
 23 47  1  0  0  0  0
 24 48  1  0  0  0  0
 25 28  1  0  0  0  0
 25 49  1  0  0  0  0
 26 29  2  0  0  0  0
 26 50  1  0  0  0  0
 27 51  1  0  0  0  0
 27 52  1  0  0  0  0
 27 53  1  0  0  0  0
 28 32  2  0  0  0  0
 28 54  1  0  0  0  0
 29 32  1  0  0  0  0
 29 55  1  0  0  0  0
 30 31  2  0  0  0  0
 30 34  1  0  0  0  0
 31 33  1  0  0  0  0
 31 35  1  0  0  0  0
 33 36  1  0  0  0  0
 35 37  2  0  0  0  0
 35 57  1  0  0  0  0
 36 38  2  0  0  0  0
 36 58  1  0  0  0  0
 37 38  1  0  0  0  0
 37 59  1  0  0  0  0
 38 60  1  0  0  0  0
M  END
> <PUBCHEM_COMPOUND_CID>
582769

> <PUBCHEM_COMPOUND_CANONICALIZED>
1

> <PUBCHEM_CACTVS_COMPLEXITY>
1180

> <PUBCHEM_CACTVS_HBOND_ACCEPTOR>
6

> <PUBCHEM_CACTVS_HBOND_DONOR>
3

> <PUBCHEM_CACTVS_ROTATABLE_BOND>
6

> <PUBCHEM_CACTVS_SUBSKEYS>
AAADceB7sQAAAAAAAAAAAAAAAAAAAWIAAAAwYIEAAAAAAFgB9AAAHwAYAAAADCjBngw/wPLrkACoAzd3dACShCExAiAa+aG4ZNgIYPLAkZGUIAhgnADIyQcYicCOgAAAAAACAAAAAAAAAAQAAAAAAAAAAA==

> <PUBCHEM_IUPAC_OPENEYE_NAME>
3-[2-[1-[1-(4-fluorophenyl)-5-(1H-indol-3-ylmethyl)-6-oxo-2,5-dihydro-1,2,4-triazin-3-yl]ethylidene]hydrazino]indol-2-one

> <PUBCHEM_IUPAC_CAS_NAME>
3-[2-[1-[1-(4-fluorophenyl)-5-(1H-indol-3-ylmethyl)-6-oxo-2,5-dihydro-1,2,4-triazin-3-yl]ethylidene]hydrazinyl]-2-indolone

> <PUBCHEM_IUPAC_NAME>
3-[2-[1-[1-(4-fluorophenyl)-5-(1H-indol-3-ylmethyl)-6-oxo-2,5-dihydro-1,2,4-triazin-3-yl]ethylidene]hydrazinyl]indol-2-one

> <PUBCHEM_IUPAC_SYSTEMATIC_NAME>
3-[2-[1-[1-(4-fluorophenyl)-5-(1H-indol-3-ylmethyl)-6-oxidanylidene-2,5-dihydro-1,2,4-triazin-3-yl]ethylidene]hydrazinyl]indol-2-one

> <PUBCHEM_IUPAC_TRADITIONAL_NAME>
3-[N'-[1-[1-(4-fluorophenyl)-5-(1H-indol-3-ylmethyl)-6-keto-2,5-dihydro-1,2,4-triazin-3-yl]ethylidene]hydrazino]indol-2-one

> <PUBCHEM_IUPAC_INCHI>
InChI=1S/C28H22FN7O2/c1-16(33-34-25-21-7-3-5-9-23(21)32-27(25)37)26-31-24(14-17-15-30-22-8-4-2-6-20(17)22)28(38)36(35-26)19-12-10-18(29)11-13-19/h2-13,15,24,30H,14H2,1H3,(H,31,35)(H,32,34,37)

> <PUBCHEM_IUPAC_INCHIKEY>
CGZXMTQIZQKYDA-UHFFFAOYSA-N

> <PUBCHEM_XLOGP3_AA>
4.1

> <PUBCHEM_EXACT_MASS>
507.181901

> <PUBCHEM_MOLECULAR_FORMULA>
C28H22FN7O2

> <PUBCHEM_MOLECULAR_WEIGHT>
507.518383

> <PUBCHEM_OPENEYE_CAN_SMILES>
CC(=NNC1=C2C=CC=CC2=NC1=O)C3=NC(C(=O)N(N3)C4=CC=C(C=C4)F)CC5=CNC6=CC=CC=C65

> <PUBCHEM_OPENEYE_ISO_SMILES>
CC(=NNC1=C2C=CC=CC2=NC1=O)C3=NC(C(=O)N(N3)C4=CC=C(C=C4)F)CC5=CNC6=CC=CC=C65

> <PUBCHEM_CACTVS_TPSA>
114

> <PUBCHEM_MONOISOTOPIC_WEIGHT>
507.181901

> <PUBCHEM_TOTAL_CHARGE>
0

> <PUBCHEM_HEAVY_ATOM_COUNT>
38

> <PUBCHEM_ATOM_DEF_STEREO_COUNT>
0

> <PUBCHEM_ATOM_UDEF_STEREO_COUNT>
1

> <PUBCHEM_BOND_DEF_STEREO_COUNT>
0

> <PUBCHEM_BOND_UDEF_STEREO_COUNT>
1

> <PUBCHEM_ISOTOPIC_ATOM_COUNT>
0

> <PUBCHEM_COMPONENT_COUNT>
1

> <PUBCHEM_CACTVS_TAUTO_COUNT>
6

> <PUBCHEM_COORDINATE_TYPE>
1
5
255

> <PUBCHEM_BONDANNOTATIONS>
11  39  3
13  14  8
13  17  8
14  16  8
14  19  8
16  21  8
19  23  8
20  25  8
20  26  8
21  24  8
23  24  8
25  28  8
26  29  8
28  32  8
29  32  8
31  33  8
31  35  8
33  36  8
35  37  8
36  38  8
37  38  8
6  16  8
6  17  8
8  22  1

$$$$

