8709
  -OEChem-06261203012D

 51 51  0     0  0  0  0  0  0999 V2000
    2.5369   -2.2892    0.0000 O   0  0  0  0  0  0  0  0  0  0  0  0
    3.4030    0.2108    0.0000 N   0  0  0  0  0  0  0  0  0  0  0  0
    3.9030    1.7497    0.0000 N   0  0  0  0  0  0  0  0  0  0  0  0
    6.8572    0.8497    0.0000 C   0  0  0  0  0  0  0  0  0  0  0  0
    7.6004    1.5188    0.0000 C   0  0  0  0  0  0  0  0  0  0  0  0
    5.9062    1.1587    0.0000 C   0  0  0  0  0  0  0  0  0  0  0  0
    8.5514    1.2098    0.0000 C   0  0  0  0  0  0  0  0  0  0  0  0
    5.1630    0.4896    0.0000 C   0  0  0  0  0  0  0  0  0  0  0  0
    9.2946    1.8790    0.0000 C   0  0  0  0  0  0  0  0  0  0  0  0
    4.2120    0.7986    0.0000 C   0  0  0  0  0  0  0  0  0  0  0  0
   10.2456    1.5699    0.0000 C   0  0  0  0  0  0  0  0  0  0  0  0
    2.5939    0.7986    0.0000 C   0  0  0  0  0  0  0  0  0  0  0  0
   10.9888    2.2391    0.0000 C   0  0  0  0  0  0  0  0  0  0  0  0
    2.9030    1.7497    0.0000 C   0  0  0  0  0  0  0  0  0  0  0  0
    3.4030   -0.7892    0.0000 C   0  0  0  0  0  0  0  0  0  0  0  0
   11.9398    1.9300    0.0000 C   0  0  0  0  0  0  0  0  0  0  0  0
   12.6830    2.5992    0.0000 C   0  0  0  0  0  0  0  0  0  0  0  0
    2.5369   -1.2892    0.0000 C   0  0  0  0  0  0  0  0  0  0  0  0
   13.6340    2.2902    0.0000 C   0  0  0  0  0  0  0  0  0  0  0  0
    6.5662    0.3023    0.0000 H   0  0  0  0  0  0  0  0  0  0  0  0
    7.3458    0.4680    0.0000 H   0  0  0  0  0  0  0  0  0  0  0  0
    7.8914    2.0663    0.0000 H   0  0  0  0  0  0  0  0  0  0  0  0
    7.1118    1.9006    0.0000 H   0  0  0  0  0  0  0  0  0  0  0  0
    6.1973    1.7062    0.0000 H   0  0  0  0  0  0  0  0  0  0  0  0
    5.4176    1.5404    0.0000 H   0  0  0  0  0  0  0  0  0  0  0  0
    8.2604    0.6624    0.0000 H   0  0  0  0  0  0  0  0  0  0  0  0
    9.0400    0.8281    0.0000 H   0  0  0  0  0  0  0  0  0  0  0  0
    4.8720   -0.0578    0.0000 H   0  0  0  0  0  0  0  0  0  0  0  0
    5.6516    0.1079    0.0000 H   0  0  0  0  0  0  0  0  0  0  0  0
    9.5857    2.4264    0.0000 H   0  0  0  0  0  0  0  0  0  0  0  0
    8.8060    2.2607    0.0000 H   0  0  0  0  0  0  0  0  0  0  0  0
    9.9546    1.0225    0.0000 H   0  0  0  0  0  0  0  0  0  0  0  0
   10.7342    1.1882    0.0000 H   0  0  0  0  0  0  0  0  0  0  0  0
    2.0276    1.0508    0.0000 H   0  0  0  0  0  0  0  0  0  0  0  0
    2.2839    0.2617    0.0000 H   0  0  0  0  0  0  0  0  0  0  0  0
   11.2799    2.7865    0.0000 H   0  0  0  0  0  0  0  0  0  0  0  0
   10.5002    2.6208    0.0000 H   0  0  0  0  0  0  0  0  0  0  0  0
    2.9678    2.3663    0.0000 H   0  0  0  0  0  0  0  0  0  0  0  0
    2.2965    1.8786    0.0000 H   0  0  0  0  0  0  0  0  0  0  0  0
    3.6150   -1.3718    0.0000 H   0  0  0  0  0  0  0  0  0  0  0  0
    4.0135   -0.6815    0.0000 H   0  0  0  0  0  0  0  0  0  0  0  0
   11.6488    1.3826    0.0000 H   0  0  0  0  0  0  0  0  0  0  0  0
   12.4284    1.5483    0.0000 H   0  0  0  0  0  0  0  0  0  0  0  0
   12.9741    3.1466    0.0000 H   0  0  0  0  0  0  0  0  0  0  0  0
   12.1944    2.9809    0.0000 H   0  0  0  0  0  0  0  0  0  0  0  0
    2.3249   -0.7066    0.0000 H   0  0  0  0  0  0  0  0  0  0  0  0
    1.9264   -1.3968    0.0000 H   0  0  0  0  0  0  0  0  0  0  0  0
   13.4425    1.7005    0.0000 H   0  0  0  0  0  0  0  0  0  0  0  0
   14.2237    2.0986    0.0000 H   0  0  0  0  0  0  0  0  0  0  0  0
   13.8256    2.8798    0.0000 H   0  0  0  0  0  0  0  0  0  0  0  0
    2.0000   -2.5992    0.0000 H   0  0  0  0  0  0  0  0  0  0  0  0
  1 18  1  0  0  0  0
  1 51  1  0  0  0  0
  2 10  1  0  0  0  0
  2 12  1  0  0  0  0
  2 15  1  0  0  0  0
  3 10  2  0  0  0  0
  3 14  1  0  0  0  0
  4  5  1  0  0  0  0
  4  6  1  0  0  0  0
  4 20  1  0  0  0  0
  4 21  1  0  0  0  0
  5  7  1  0  0  0  0
  5 22  1  0  0  0  0
  5 23  1  0  0  0  0
  6  8  1  0  0  0  0
  6 24  1  0  0  0  0
  6 25  1  0  0  0  0
  7  9  1  0  0  0  0
  7 26  1  0  0  0  0
  7 27  1  0  0  0  0
  8 10  1  0  0  0  0
  8 28  1  0  0  0  0
  8 29  1  0  0  0  0
  9 11  1  0  0  0  0
  9 30  1  0  0  0  0
  9 31  1  0  0  0  0
 11 13  1  0  0  0  0
 11 32  1  0  0  0  0
 11 33  1  0  0  0  0
 12 14  1  0  0  0  0
 12 34  1  0  0  0  0
 12 35  1  0  0  0  0
 13 16  1  0  0  0  0
 13 36  1  0  0  0  0
 13 37  1  0  0  0  0
 14 38  1  0  0  0  0
 14 39  1  0  0  0  0
 15 18  1  0  0  0  0
 15 40  1  0  0  0  0
 15 41  1  0  0  0  0
 16 17  1  0  0  0  0
 16 42  1  0  0  0  0
 16 43  1  0  0  0  0
 17 19  1  0  0  0  0
 17 44  1  0  0  0  0
 17 45  1  0  0  0  0
 18 46  1  0  0  0  0
 18 47  1  0  0  0  0
 19 48  1  0  0  0  0
 19 49  1  0  0  0  0
 19 50  1  0  0  0  0
M  END
> <PUBCHEM_COMPOUND_CID>
8709

> <PUBCHEM_COMPOUND_CANONICALIZED>
1

> <PUBCHEM_CACTVS_COMPLEXITY>
241

> <PUBCHEM_CACTVS_HBOND_ACCEPTOR>
2

> <PUBCHEM_CACTVS_HBOND_DONOR>
1

> <PUBCHEM_CACTVS_ROTATABLE_BOND>
12

> <PUBCHEM_CACTVS_SUBSKEYS>
AAADcfB7IAAAAAAAAAAAAAAAAAAAAQAAAAAAAAAAAAAAAAAAAAAAHgAACAAACADhgAYDAAMAAgAgAAIgJAAAAAEAAAABAAA4AAACUAIAiAAUAAAAAACQAAEQgIAAAAAAAAAAAAAAAAAAAAAAAAAAAAAAAA==

> <PUBCHEM_IUPAC_OPENEYE_NAME>
2-(2-undecyl-4,5-dihydroimidazol-1-yl)ethanol

> <PUBCHEM_IUPAC_CAS_NAME>
2-(2-undecyl-4,5-dihydroimidazol-1-yl)ethanol

> <PUBCHEM_IUPAC_NAME>
2-(2-undecyl-4,5-dihydroimidazol-1-yl)ethanol

> <PUBCHEM_IUPAC_SYSTEMATIC_NAME>
2-(2-undecyl-4,5-dihydroimidazol-1-yl)ethanol

> <PUBCHEM_IUPAC_TRADITIONAL_NAME>
2-(2-undecyl-2-imidazolin-1-yl)ethanol

> <PUBCHEM_IUPAC_INCHI>
InChI=1S/C16H32N2O/c1-2-3-4-5-6-7-8-9-10-11-16-17-12-13-18(16)14-15-19/h19H,2-15H2,1H3

> <PUBCHEM_IUPAC_INCHIKEY>
QNDGQRJVVZJMJO-UHFFFAOYSA-N

> <PUBCHEM_XLOGP3_AA>
3.9

> <PUBCHEM_EXACT_MASS>
268.251464

> <PUBCHEM_MOLECULAR_FORMULA>
C16H32N2O

> <PUBCHEM_MOLECULAR_WEIGHT>
268.43808

> <PUBCHEM_OPENEYE_CAN_SMILES>
CCCCCCCCCCCC1=NCCN1CCO

> <PUBCHEM_OPENEYE_ISO_SMILES>
CCCCCCCCCCCC1=NCCN1CCO

> <PUBCHEM_CACTVS_TPSA>
35.8

> <PUBCHEM_MONOISOTOPIC_WEIGHT>
268.251464

> <PUBCHEM_TOTAL_CHARGE>
0

> <PUBCHEM_HEAVY_ATOM_COUNT>
19

> <PUBCHEM_ATOM_DEF_STEREO_COUNT>
0

> <PUBCHEM_ATOM_UDEF_STEREO_COUNT>
0

> <PUBCHEM_BOND_DEF_STEREO_COUNT>
0

> <PUBCHEM_BOND_UDEF_STEREO_COUNT>
0

> <PUBCHEM_ISOTOPIC_ATOM_COUNT>
0

> <PUBCHEM_COMPONENT_COUNT>
1

> <PUBCHEM_CACTVS_TAUTO_COUNT>
1

> <PUBCHEM_COORDINATE_TYPE>
1
5
255

$$$$

