10702
  -OEChem-06261204512D

117119  0     1  0  0  0  0  0999 V2000
    7.5000   -1.1345    0.0000 O   0  0  0  0  0  0  0  0  0  0  0  0
    7.5000    0.5976    0.0000 O   0  0  0  0  0  0  0  0  0  0  0  0
    6.2588   -2.9664    0.0000 O   0  0  0  0  0  0  0  0  0  0  0  0
    7.5000   -2.8665    0.0000 O   0  0  0  0  0  0  0  0  0  0  0  0
    7.5000    2.3296    0.0000 O   0  0  0  0  0  0  0  0  0  0  0  0
    4.5000    0.5976    0.0000 O   0  0  0  0  0  0  0  0  0  0  0  0
   10.3660    2.8296    0.0000 O   0  0  0  0  0  0  0  0  0  0  0  0
    9.5000   -1.1345    0.0000 O   0  0  0  0  0  0  0  0  0  0  0  0
    9.5000    4.0617    0.0000 O   0  0  0  0  0  0  0  0  0  0  0  0
    4.5000   -1.1345    0.0000 O   0  0  0  0  0  0  0  0  0  0  0  0
    3.0000   -3.7326    0.0000 O   0  0  0  0  0  0  0  0  0  0  0  0
    4.5000    2.3296    0.0000 O   0  0  0  0  0  0  0  0  0  0  0  0
   10.5000   -2.8665    0.0000 N   0  0  0  0  0  0  0  0  0  0  0  0
    6.5000   -1.1345    0.0000 C   0  0  2  0  0  0  0  0  0  0  0  0
    6.0000   -0.2685    0.0000 C   0  0  3  0  0  0  0  0  0  0  0  0
    6.0000   -2.0005    0.0000 C   0  0  1  0  0  0  0  0  0  0  0  0
    6.5000    0.5976    0.0000 C   0  0  1  0  0  0  0  0  0  0  0  0
    5.0000   -2.0005    0.0000 C   0  0  0  0  0  0  0  0  0  0  0  0
    6.0000    1.4636    0.0000 C   0  0  1  0  0  0  0  0  0  0  0  0
    8.0000   -2.0005    0.0000 C   0  0  3  0  0  0  0  0  0  0  0  0
    4.5000   -2.8665    0.0000 C   0  0  2  0  0  0  0  0  0  0  0  0
    9.5000    2.3296    0.0000 C   0  0  3  0  0  0  0  0  0  0  0  0
    8.0000    1.4636    0.0000 C   0  0  3  0  0  0  0  0  0  0  0  0
    5.1340    0.2316    0.0000 C   0  0  0  0  0  0  0  0  0  0  0  0
    9.0000   -2.0005    0.0000 C   0  0  3  0  0  0  0  0  0  0  0  0
    9.0000    1.4636    0.0000 C   0  0  0  0  0  0  0  0  0  0  0  0
    9.5000   -2.8665    0.0000 C   0  0  3  0  0  0  0  0  0  0  0  0
    6.9659   -2.2593    0.0000 C   0  0  0  0  0  0  0  0  0  0  0  0
    9.0000    3.1956    0.0000 C   0  0  3  0  0  0  0  0  0  0  0  0
    9.0000   -3.7326    0.0000 C   0  0  0  0  0  0  0  0  0  0  0  0
    8.0000    3.1956    0.0000 C   0  0  3  0  0  0  0  0  0  0  0  0
    8.0000   -3.7326    0.0000 C   0  0  3  0  0  0  0  0  0  0  0  0
    3.0000   -2.0005    0.0000 C   0  0  1  0  0  0  0  0  0  0  0  0
    3.5000   -2.8665    0.0000 C   0  0  0  0  0  0  0  0  0  0  0  0
    3.5000   -1.1345    0.0000 C   0  0  2  0  0  0  0  0  0  0  0  0
    3.0000   -0.2685    0.0000 C   0  0  2  0  0  0  0  0  0  0  0  0
    6.5000    2.3296    0.0000 C   0  0  0  0  0  0  0  0  0  0  0  0
    5.0000    1.4636    0.0000 C   0  0  0  0  0  0  0  0  0  0  0  0
    3.5000    0.5976    0.0000 C   0  0  1  0  0  0  0  0  0  0  0  0
    5.0000   -3.7326    0.0000 C   0  0  0  0  0  0  0  0  0  0  0  0
   10.3660    1.8296    0.0000 C   0  0  0  0  0  0  0  0  0  0  0  0
    7.5000    4.0617    0.0000 C   0  0  0  0  0  0  0  0  0  0  0  0
    7.5000   -4.5986    0.0000 C   0  0  0  0  0  0  0  0  0  0  0  0
    2.0000   -2.0005    0.0000 C   0  0  0  0  0  0  0  0  0  0  0  0
    3.0000    1.4636    0.0000 C   0  0  0  0  0  0  0  0  0  0  0  0
    2.0000   -0.2685    0.0000 C   0  0  0  0  0  0  0  0  0  0  0  0
   11.0000   -3.7326    0.0000 C   0  0  0  0  0  0  0  0  0  0  0  0
   11.0000   -2.0005    0.0000 C   0  0  0  0  0  0  0  0  0  0  0  0
   11.2321    2.3296    0.0000 C   0  0  0  0  0  0  0  0  0  0  0  0
    2.0000    1.4636    0.0000 C   0  0  0  0  0  0  0  0  0  0  0  0
    6.8100   -0.5976    0.0000 H   0  0  0  0  0  0  0  0  0  0  0  0
    5.5616   -0.7069    0.0000 H   0  0  0  0  0  0  0  0  0  0  0  0
    6.8100    1.1345    0.0000 H   0  0  0  0  0  0  0  0  0  0  0  0
    5.1077   -1.3899    0.0000 H   0  0  0  0  0  0  0  0  0  0  0  0
    4.4174   -1.7885    0.0000 H   0  0  0  0  0  0  0  0  0  0  0  0
    6.6200    1.4636    0.0000 H   0  0  0  0  0  0  0  0  0  0  0  0
    7.3800   -2.0005    0.0000 H   0  0  0  0  0  0  0  0  0  0  0  0
    4.1900   -3.4035    0.0000 H   0  0  0  0  0  0  0  0  0  0  0  0
    7.3800    1.4636    0.0000 H   0  0  0  0  0  0  0  0  0  0  0  0
    5.4441    0.7685    0.0000 H   0  0  0  0  0  0  0  0  0  0  0  0
    4.5971    0.5417    0.0000 H   0  0  0  0  0  0  0  0  0  0  0  0
    4.8240   -0.3053    0.0000 H   0  0  0  0  0  0  0  0  0  0  0  0
    9.6200   -2.0005    0.0000 H   0  0  0  0  0  0  0  0  0  0  0  0
    8.8923    0.8530    0.0000 H   0  0  0  0  0  0  0  0  0  0  0  0
    9.5826    1.2515    0.0000 H   0  0  0  0  0  0  0  0  0  0  0  0
    9.8100   -2.3296    0.0000 H   0  0  0  0  0  0  0  0  0  0  0  0
    6.8055   -2.8582    0.0000 H   0  0  0  0  0  0  0  0  0  0  0  0
    7.5648   -2.4198    0.0000 H   0  0  0  0  0  0  0  0  0  0  0  0
    7.1264   -1.6605    0.0000 H   0  0  0  0  0  0  0  0  0  0  0  0
    9.6200    3.1956    0.0000 H   0  0  0  0  0  0  0  0  0  0  0  0
    8.8923   -4.3431    0.0000 H   0  0  0  0  0  0  0  0  0  0  0  0
    9.5826   -3.9446    0.0000 H   0  0  0  0  0  0  0  0  0  0  0  0
    7.3800    3.1956    0.0000 H   0  0  0  0  0  0  0  0  0  0  0  0
    7.3800   -3.7326    0.0000 H   0  0  0  0  0  0  0  0  0  0  0  0
    2.6900   -2.5375    0.0000 H   0  0  0  0  0  0  0  0  0  0  0  0
    3.8100   -0.5976    0.0000 H   0  0  0  0  0  0  0  0  0  0  0  0
    2.6900   -0.8054    0.0000 H   0  0  0  0  0  0  0  0  0  0  0  0
    5.8204   -3.4048    0.0000 H   0  0  0  0  0  0  0  0  0  0  0  0
    7.0369    2.0196    0.0000 H   0  0  0  0  0  0  0  0  0  0  0  0
    6.8100    2.8665    0.0000 H   0  0  0  0  0  0  0  0  0  0  0  0
    5.9631    2.6396    0.0000 H   0  0  0  0  0  0  0  0  0  0  0  0
    3.8100    1.1345    0.0000 H   0  0  0  0  0  0  0  0  0  0  0  0
    4.4631   -4.0426    0.0000 H   0  0  0  0  0  0  0  0  0  0  0  0
    5.3100   -4.2695    0.0000 H   0  0  0  0  0  0  0  0  0  0  0  0
    5.5369   -3.4226    0.0000 H   0  0  0  0  0  0  0  0  0  0  0  0
   10.0560    1.2927    0.0000 H   0  0  0  0  0  0  0  0  0  0  0  0
   10.9030    1.5196    0.0000 H   0  0  0  0  0  0  0  0  0  0  0  0
   10.6760    2.3665    0.0000 H   0  0  0  0  0  0  0  0  0  0  0  0
    8.0369    4.3717    0.0000 H   0  0  0  0  0  0  0  0  0  0  0  0
    7.1900    4.5986    0.0000 H   0  0  0  0  0  0  0  0  0  0  0  0
    6.9631    3.7517    0.0000 H   0  0  0  0  0  0  0  0  0  0  0  0
    6.9631   -4.2886    0.0000 H   0  0  0  0  0  0  0  0  0  0  0  0
    7.1900   -5.1355    0.0000 H   0  0  0  0  0  0  0  0  0  0  0  0
    8.0369   -4.9086    0.0000 H   0  0  0  0  0  0  0  0  0  0  0  0
    2.0000   -1.3805    0.0000 H   0  0  0  0  0  0  0  0  0  0  0  0
    1.3800   -2.0005    0.0000 H   0  0  0  0  0  0  0  0  0  0  0  0
    2.0000   -2.6205    0.0000 H   0  0  0  0  0  0  0  0  0  0  0  0
    3.5826    1.6756    0.0000 H   0  0  0  0  0  0  0  0  0  0  0  0
    2.8923    2.0742    0.0000 H   0  0  0  0  0  0  0  0  0  0  0  0
    2.0000    0.3515    0.0000 H   0  0  0  0  0  0  0  0  0  0  0  0
    1.3800   -0.2685    0.0000 H   0  0  0  0  0  0  0  0  0  0  0  0
    2.0000   -0.8885    0.0000 H   0  0  0  0  0  0  0  0  0  0  0  0
   10.1200   -1.1345    0.0000 H   0  0  0  0  0  0  0  0  0  0  0  0
    9.1900    4.5986    0.0000 H   0  0  0  0  0  0  0  0  0  0  0  0
   10.4631   -4.0426    0.0000 H   0  0  0  0  0  0  0  0  0  0  0  0
   11.5369   -2.3105    0.0000 H   0  0  0  0  0  0  0  0  0  0  0  0
   11.3100   -1.4636    0.0000 H   0  0  0  0  0  0  0  0  0  0  0  0
   10.4631   -1.6905    0.0000 H   0  0  0  0  0  0  0  0  0  0  0  0
   11.3100   -4.2695    0.0000 H   0  0  0  0  0  0  0  0  0  0  0  0
   11.5369   -3.4226    0.0000 H   0  0  0  0  0  0  0  0  0  0  0  0
    4.5000   -0.5145    0.0000 H   0  0  0  0  0  0  0  0  0  0  0  0
   10.9221    1.7927    0.0000 H   0  0  0  0  0  0  0  0  0  0  0  0
   11.7690    2.0196    0.0000 H   0  0  0  0  0  0  0  0  0  0  0  0
   11.5421    2.8665    0.0000 H   0  0  0  0  0  0  0  0  0  0  0  0
    2.0000    2.0836    0.0000 H   0  0  0  0  0  0  0  0  0  0  0  0
    1.3800    1.4636    0.0000 H   0  0  0  0  0  0  0  0  0  0  0  0
    2.0000    0.8436    0.0000 H   0  0  0  0  0  0  0  0  0  0  0  0
 14  1  1  1  0  0  0
  1 20  1  0  0  0  0
 17  2  1  1  0  0  0
  2 23  1  0  0  0  0
 16  3  1  6  0  0  0
  3 78  1  0  0  0  0
  4 20  1  0  0  0  0
  4 32  1  0  0  0  0
  5 23  1  0  0  0  0
  5 31  1  0  0  0  0
  6 38  1  0  0  0  0
  6 39  1  0  0  0  0
  7 22  1  0  0  0  0
  7 49  1  0  0  0  0
  8 25  1  0  0  0  0
  8103  1  0  0  0  0
  9 29  1  0  0  0  0
  9104  1  0  0  0  0
 35 10  1  6  0  0  0
 10111  1  0  0  0  0
 11 34  2  0  0  0  0
 12 38  2  0  0  0  0
 13 27  1  0  0  0  0
 13 47  1  0  0  0  0
 13 48  1  0  0  0  0
 14 15  1  0  0  0  0
 14 16  1  0  0  0  0
 14 51  1  0  0  0  0
 15 17  1  0  0  0  0
 15 24  1  0  0  0  0
 15 52  1  0  0  0  0
 16 18  1  0  0  0  0
 16 28  1  0  0  0  0
 17 19  1  0  0  0  0
 17 53  1  0  0  0  0
 18 21  1  0  0  0  0
 18 54  1  0  0  0  0
 18 55  1  0  0  0  0
 19 37  1  6  0  0  0
 19 38  1  0  0  0  0
 19 56  1  0  0  0  0
 20 25  1  0  0  0  0
 20 57  1  0  0  0  0
 21 34  1  0  0  0  0
 21 40  1  1  0  0  0
 21 58  1  0  0  0  0
 22 26  1  0  0  0  0
 22 29  1  0  0  0  0
 22 41  1  0  0  0  0
 23 26  1  0  0  0  0
 23 59  1  0  0  0  0
 24 60  1  0  0  0  0
 24 61  1  0  0  0  0
 24 62  1  0  0  0  0
 25 27  1  0  0  0  0
 25 63  1  0  0  0  0
 26 64  1  0  0  0  0
 26 65  1  0  0  0  0
 27 30  1  0  0  0  0
 27 66  1  0  0  0  0
 28 67  1  0  0  0  0
 28 68  1  0  0  0  0
 28 69  1  0  0  0  0
 29 31  1  0  0  0  0
 29 70  1  0  0  0  0
 30 32  1  0  0  0  0
 30 71  1  0  0  0  0
 30 72  1  0  0  0  0
 31 42  1  0  0  0  0
 31 73  1  0  0  0  0
 32 43  1  0  0  0  0
 32 74  1  0  0  0  0
 33 34  1  0  0  0  0
 33 35  1  0  0  0  0
 33 44  1  6  0  0  0
 33 75  1  0  0  0  0
 35 36  1  0  0  0  0
 35 76  1  0  0  0  0
 36 39  1  0  0  0  0
 36 46  1  1  0  0  0
 36 77  1  0  0  0  0
 37 79  1  0  0  0  0
 37 80  1  0  0  0  0
 37 81  1  0  0  0  0
 39 45  1  1  0  0  0
 39 82  1  0  0  0  0
 40 83  1  0  0  0  0
 40 84  1  0  0  0  0
 40 85  1  0  0  0  0
 41 86  1  0  0  0  0
 41 87  1  0  0  0  0
 41 88  1  0  0  0  0
 42 89  1  0  0  0  0
 42 90  1  0  0  0  0
 42 91  1  0  0  0  0
 43 92  1  0  0  0  0
 43 93  1  0  0  0  0
 43 94  1  0  0  0  0
 44 95  1  0  0  0  0
 44 96  1  0  0  0  0
 44 97  1  0  0  0  0
 45 50  1  0  0  0  0
 45 98  1  0  0  0  0
 45 99  1  0  0  0  0
 46100  1  0  0  0  0
 46101  1  0  0  0  0
 46102  1  0  0  0  0
 47105  1  0  0  0  0
 47109  1  0  0  0  0
 47110  1  0  0  0  0
 48106  1  0  0  0  0
 48107  1  0  0  0  0
 48108  1  0  0  0  0
 49112  1  0  0  0  0
 49113  1  0  0  0  0
 49114  1  0  0  0  0
 50115  1  0  0  0  0
 50116  1  0  0  0  0
 50117  1  0  0  0  0
M  END
> <PUBCHEM_COMPOUND_CID>
10702

> <PUBCHEM_COMPOUND_CANONICALIZED>
1

> <PUBCHEM_CACTVS_COMPLEXITY>
1130

> <PUBCHEM_CACTVS_HBOND_ACCEPTOR>
13

> <PUBCHEM_CACTVS_HBOND_DONOR>
4

> <PUBCHEM_CACTVS_ROTATABLE_BOND>
7

> <PUBCHEM_CACTVS_SUBSKEYS>
AAADcfB+PAAAAAAAAAAAAAAAAAAAAAAAAAAkSAAAAAAAAAAAAAAAHgAACAAADXzxgAcCCAMABgAIAICQCAAAAAAAAAAAAAEIAAATEBYAgAAmQAAHIAAXAAHK7PzOAAAAAAAAAAAAAAAAAAAAAAAAAAAAAA==

> <PUBCHEM_IUPAC_OPENEYE_NAME>
(3R,4S,6R,7R,9R,11R,12S,13R,14R)-6-[4-(dimethylamino)-3-hydroxy-6-methyl-tetrahydropyran-2-yl]oxy-14-ethyl-7,12-dihydroxy-4-(5-hydroxy-4-methoxy-4,6-dimethyl-tetrahydropyran-2-yl)oxy-3,5,7,9,11,13-hexamethyl-oxacyclotetradecane-2,10-dione

> <PUBCHEM_IUPAC_CAS_NAME>
(3R,4S,6R,7R,9R,11R,12S,13R,14R)-6-[[4-(dimethylamino)-3-hydroxy-6-methyl-2-oxanyl]oxy]-14-ethyl-7,12-dihydroxy-4-[(5-hydroxy-4-methoxy-4,6-dimethyl-2-oxanyl)oxy]-3,5,7,9,11,13-hexamethyl-oxacyclotetradecane-2,10-dione

> <PUBCHEM_IUPAC_NAME>
(3R,4S,6R,7R,9R,11R,12S,13R,14R)-6-[4-(dimethylamino)-3-hydroxy-6-methyloxan-2-yl]oxy-14-ethyl-7,12-dihydroxy-4-(5-hydroxy-4-methoxy-4,6-dimethyloxan-2-yl)oxy-3,5,7,9,11,13-hexamethyl-oxacyclotetradecane-2,10-dione

> <PUBCHEM_IUPAC_SYSTEMATIC_NAME>
(3R,4S,6R,7R,9R,11R,12S,13R,14R)-6-[4-(dimethylamino)-6-methyl-3-oxidanyl-oxan-2-yl]oxy-14-ethyl-4-(4-methoxy-4,6-dimethyl-5-oxidanyl-oxan-2-yl)oxy-3,5,7,9,11,13-hexamethyl-7,12-bis(oxidanyl)-1-oxacyclotetradecane-2,10-dione

> <PUBCHEM_IUPAC_TRADITIONAL_NAME>
(3R,4S,6R,7R,9R,11R,12S,13R,14R)-6-[4-(dimethylamino)-3-hydroxy-6-methyl-tetrahydropyran-2-yl]oxy-14-ethyl-7,12-dihydroxy-4-(5-hydroxy-4-methoxy-4,6-dimethyl-tetrahydropyran-2-yl)oxy-3,5,7,9,11,13-hexamethyl-oxacyclotetradecane-2,10-quinone

> <PUBCHEM_IUPAC_INCHI>
InChI=1S/C37H67NO12/c1-14-26-20(4)29(40)21(5)28(39)18(2)16-36(9,44)33(50-35-30(41)25(38(11)12)15-19(3)46-35)22(6)31(23(7)34(43)48-26)49-27-17-37(10,45-13)32(42)24(8)47-27/h18-27,29-33,35,40-42,44H,14-17H2,1-13H3/t18-,19?,20+,21+,22?,23-,24?,25?,26-,27?,29+,30?,31+,32?,33-,35?,36-,37?/m1/s1

> <PUBCHEM_IUPAC_INCHIKEY>
IDRYSCOQVVUBIJ-ZTOAHLHUSA-N

> <PUBCHEM_XLOGP3>
3.9

> <PUBCHEM_EXACT_MASS>
717.466327

> <PUBCHEM_MOLECULAR_FORMULA>
C37H67NO12

> <PUBCHEM_MOLECULAR_WEIGHT>
717.92738

> <PUBCHEM_OPENEYE_CAN_SMILES>
CCC1C(C(C(C(=O)C(CC(C(C(C(C(C(=O)O1)C)OC2CC(C(C(O2)C)O)(C)OC)C)OC3C(C(CC(O3)C)N(C)C)O)(C)O)C)C)O)C

> <PUBCHEM_OPENEYE_ISO_SMILES>
CC[C@@H]1[C@@H]([C@@H]([C@H](C(=O)[C@@H](C[C@@]([C@@H](C([C@@H]([C@H](C(=O)O1)C)OC2CC(C(C(O2)C)O)(C)OC)C)OC3C(C(CC(O3)C)N(C)C)O)(C)O)C)C)O)C

> <PUBCHEM_CACTVS_TPSA>
174

> <PUBCHEM_MONOISOTOPIC_WEIGHT>
717.466327

> <PUBCHEM_TOTAL_CHARGE>
0

> <PUBCHEM_HEAVY_ATOM_COUNT>
50

> <PUBCHEM_ATOM_DEF_STEREO_COUNT>
9

> <PUBCHEM_ATOM_UDEF_STEREO_COUNT>
9

> <PUBCHEM_BOND_DEF_STEREO_COUNT>
0

> <PUBCHEM_BOND_UDEF_STEREO_COUNT>
0

> <PUBCHEM_ISOTOPIC_ATOM_COUNT>
0

> <PUBCHEM_COMPONENT_COUNT>
1

> <PUBCHEM_CACTVS_TAUTO_COUNT>
6

> <PUBCHEM_COORDINATE_TYPE>
1
5
255

> <PUBCHEM_BONDANNOTATIONS>
14  1  5
20  1  3
35  10  6
27  13  3
15  24  3
19  37  6
17  2  5
23  2  3
21  40  5
22  41  3
16  3  6
31  42  3
32  43  3
33  44  6
36  46  5
39  45  5
25  8  3
29  9  3

$$$$

