6376
  -OEChem-06261201162D

  8  7  0     0  0  0  0  0  0999 V2000
    3.7320    0.3355    0.0000 Cl  0  0  0  0  0  0  0  0  0  0  0  0
    2.0000   -0.6645    0.0000 Cl  0  0  0  0  0  0  0  0  0  0  0  0
    2.8660   -0.1645    0.0000 Si  0  0  0  0  0  0  0  0  0  0  0  0
    2.3660    0.7015    0.0000 C   0  0  0  0  0  0  0  0  0  0  0  0
    3.1760   -0.7015    0.0000 H   0  0  0  0  0  0  0  0  0  0  0  0
    2.9030    1.0115    0.0000 H   0  0  0  0  0  0  0  0  0  0  0  0
    2.0560    1.2384    0.0000 H   0  0  0  0  0  0  0  0  0  0  0  0
    1.8291    0.3915    0.0000 H   0  0  0  0  0  0  0  0  0  0  0  0
  1  3  1  0  0  0  0
  2  3  1  0  0  0  0
  3  4  1  0  0  0  0
  3  5  1  0  0  0  0
  4  6  1  0  0  0  0
  4  7  1  0  0  0  0
  4  8  1  0  0  0  0
M  END
> <PUBCHEM_COMPOUND_CID>
6376

> <PUBCHEM_COMPOUND_CANONICALIZED>
1

> <PUBCHEM_CACTVS_COMPLEXITY>
13.5

> <PUBCHEM_CACTVS_HBOND_ACCEPTOR>
0

> <PUBCHEM_CACTVS_HBOND_DONOR>
0

> <PUBCHEM_CACTVS_ROTATABLE_BOND>
0

> <PUBCHEM_CACTVS_SUBSKEYS>
AAADcYAAAAgGAAAAAAAAAAAAAAAAAAAAAAAAAAAAAAAAAAAAAAAAEBAAAACgAAAAAABCAAAAAAAAAAAAAAAAAAAAAAAAAAAAAAAAAAAAAAAAAAAAAAAAAAAAAAAAAAAAAAAAAAAAAAAAAAAAAAAAAAAAAA==

> <PUBCHEM_IUPAC_OPENEYE_NAME>
dichloro(methyl)silane

> <PUBCHEM_IUPAC_CAS_NAME>
dichloro(methyl)silane

> <PUBCHEM_IUPAC_NAME>
dichloro(methyl)silane

> <PUBCHEM_IUPAC_SYSTEMATIC_NAME>
bis(chloranyl)-methyl-silane

> <PUBCHEM_IUPAC_TRADITIONAL_NAME>
dichloro(methyl)silane

> <PUBCHEM_IUPAC_INCHI>
InChI=1S/CH4Cl2Si/c1-4(2)3/h4H,1H3

> <PUBCHEM_IUPAC_INCHIKEY>
NWKBSEBOBPHMKL-UHFFFAOYSA-N

> <PUBCHEM_EXACT_MASS>
113.945932

> <PUBCHEM_MOLECULAR_FORMULA>
CH4Cl2Si

> <PUBCHEM_MOLECULAR_WEIGHT>
115.03396

> <PUBCHEM_OPENEYE_CAN_SMILES>
C[SiH](Cl)Cl

> <PUBCHEM_OPENEYE_ISO_SMILES>
C[SiH](Cl)Cl

> <PUBCHEM_CACTVS_TPSA>
0

> <PUBCHEM_MONOISOTOPIC_WEIGHT>
113.945932

> <PUBCHEM_TOTAL_CHARGE>
0

> <PUBCHEM_HEAVY_ATOM_COUNT>
4

> <PUBCHEM_ATOM_DEF_STEREO_COUNT>
0

> <PUBCHEM_ATOM_UDEF_STEREO_COUNT>
0

> <PUBCHEM_BOND_DEF_STEREO_COUNT>
0

> <PUBCHEM_BOND_UDEF_STEREO_COUNT>
0

> <PUBCHEM_ISOTOPIC_ATOM_COUNT>
0

> <PUBCHEM_COMPONENT_COUNT>
1

> <PUBCHEM_CACTVS_TAUTO_COUNT>
1

> <PUBCHEM_COORDINATE_TYPE>
1
5
255

$$$$

