14164
  -OEChem-06241222422D

 36 36  0     0  0  0  0  0  0999 V2000
    4.3690    8.7630    0.0000 Cl  0  5  0  0  0  0  0  0  0  0  0  0
    7.7614    6.6804    0.0000 O   0  0  0  0  0  0  0  0  0  0  0  0
    5.7614    4.6804    0.0000 O   0  0  0  0  0  0  0  0  0  0  0  0
    2.6736    1.2733    0.0000 O   0  0  0  0  0  0  0  0  0  0  0  0
    0.0000    1.4013    0.0000 O   0  5  0  0  0  0  0  0  0  0  0  0
    1.0181    0.0000    0.0000 O   0  0  0  0  0  0  0  0  0  0  0  0
    7.7614    4.6804    0.0000 N   0  3  0  0  0  0  0  0  0  0  0  0
    5.7614    2.9483    0.0000 N   0  0  0  0  0  0  0  0  0  0  0  0
    4.7614    2.9483    0.0000 N   0  0  0  0  0  0  0  0  0  0  0  0
    0.9135    0.9945    0.0000 N   0  3  0  0  0  0  0  0  0  0  0  0
    6.8954    5.1804    0.0000 C   0  0  0  0  0  0  0  0  0  0  0  0
    8.6274    5.1804    0.0000 C   0  0  0  0  0  0  0  0  0  0  0  0
    7.2614    3.8144    0.0000 C   0  0  0  0  0  0  0  0  0  0  0  0
    6.8954    6.1804    0.0000 C   0  0  0  0  0  0  0  0  0  0  0  0
    8.6274    6.1804    0.0000 C   0  0  0  0  0  0  0  0  0  0  0  0
    6.2614    3.8144    0.0000 C   0  0  0  0  0  0  0  0  0  0  0  0
    4.2614    2.0823    0.0000 C   0  0  0  0  0  0  0  0  0  0  0  0
    3.2614    2.0823    0.0000 C   0  0  0  0  0  0  0  0  0  0  0  0
    2.6736    2.8913    0.0000 C   0  0  0  0  0  0  0  0  0  0  0  0
    1.7226    1.5823    0.0000 C   0  0  0  0  0  0  0  0  0  0  0  0
    1.7226    2.5823    0.0000 C   0  0  0  0  0  0  0  0  0  0  0  0
    8.0714    4.1434    0.0000 H   0  0  0  0  0  0  0  0  0  0  0  0
    6.2848    5.2880    0.0000 H   0  0  0  0  0  0  0  0  0  0  0  0
    6.6833    4.5978    0.0000 H   0  0  0  0  0  0  0  0  0  0  0  0
    8.8395    4.5978    0.0000 H   0  0  0  0  0  0  0  0  0  0  0  0
    9.2380    5.2880    0.0000 H   0  0  0  0  0  0  0  0  0  0  0  0
    7.1537    3.2038    0.0000 H   0  0  0  0  0  0  0  0  0  0  0  0
    7.8440    3.6023    0.0000 H   0  0  0  0  0  0  0  0  0  0  0  0
    6.6833    6.7630    0.0000 H   0  0  0  0  0  0  0  0  0  0  0  0
    6.2848    6.0727    0.0000 H   0  0  0  0  0  0  0  0  0  0  0  0
    9.2380    6.0727    0.0000 H   0  0  0  0  0  0  0  0  0  0  0  0
    8.8395    6.7630    0.0000 H   0  0  0  0  0  0  0  0  0  0  0  0
    6.0714    2.4114    0.0000 H   0  0  0  0  0  0  0  0  0  0  0  0
    4.5714    1.5454    0.0000 H   0  0  0  0  0  0  0  0  0  0  0  0
    2.8652    3.4810    0.0000 H   0  0  0  0  0  0  0  0  0  0  0  0
    1.2210    2.9467    0.0000 H   0  0  0  0  0  0  0  0  0  0  0  0
  2 14  1  0  0  0  0
  2 15  1  0  0  0  0
  3 16  2  0  0  0  0
  4 18  1  0  0  0  0
  4 20  1  0  0  0  0
  5 10  1  0  0  0  0
  6 10  2  0  0  0  0
  7 11  1  0  0  0  0
  7 12  1  0  0  0  0
  7 13  1  0  0  0  0
  7 22  1  0  0  0  0
  8  9  1  0  0  0  0
  8 16  1  0  0  0  0
  8 33  1  0  0  0  0
  9 17  2  3  0  0  0
 10 20  1  0  0  0  0
 11 14  1  0  0  0  0
 11 23  1  0  0  0  0
 11 24  1  0  0  0  0
 12 15  1  0  0  0  0
 12 25  1  0  0  0  0
 12 26  1  0  0  0  0
 13 16  1  0  0  0  0
 13 27  1  0  0  0  0
 13 28  1  0  0  0  0
 14 29  1  0  0  0  0
 14 30  1  0  0  0  0
 15 31  1  0  0  0  0
 15 32  1  0  0  0  0
 17 18  1  0  0  0  0
 17 34  1  0  0  0  0
 18 19  2  0  0  0  0
 19 21  1  0  0  0  0
 19 35  1  0  0  0  0
 20 21  2  0  0  0  0
 21 36  1  0  0  0  0
M  CHG  4   1  -1   5  -1   7   1  10   1
M  END
> <PUBCHEM_COMPOUND_CID>
14164

> <PUBCHEM_COMPOUND_CANONICALIZED>
1

> <PUBCHEM_CACTVS_COMPLEXITY>
378

> <PUBCHEM_CACTVS_HBOND_ACCEPTOR>
7

> <PUBCHEM_CACTVS_HBOND_DONOR>
2

> <PUBCHEM_CACTVS_ROTATABLE_BOND>
4

> <PUBCHEM_CACTVS_SUBSKEYS>
AAADccBzuAAEAAAAAAAAAAAAAAAAASAAAAAsAAAAAAAAAAABgAAAHgAcAAAACAThkAYwhIPyRECpALFzUwSSCAAsIgA6iIGubNoOZrKEtbubGSDk2BGY6Ya8AAAAAAAAAAAAAAAAAAAAAAAAAAAAAAAAAA==

> <PUBCHEM_IUPAC_OPENEYE_NAME>
2-morpholin-4-ium-4-yl-N-[(5-nitro-2-furyl)methyleneamino]acetamide chloride

> <PUBCHEM_IUPAC_CAS_NAME>
2-(4-morpholin-4-iumyl)-N-[(5-nitro-2-furanyl)methylideneamino]acetamide chloride

> <PUBCHEM_IUPAC_NAME>
2-morpholin-4-ium-4-yl-N-[(5-nitrofuran-2-yl)methylideneamino]acetamide chloride

> <PUBCHEM_IUPAC_SYSTEMATIC_NAME>
2-morpholin-4-ium-4-yl-N-[(5-nitrofuran-2-yl)methylideneamino]ethanamide chloride

> <PUBCHEM_IUPAC_TRADITIONAL_NAME>
2-morpholin-4-ium-4-yl-N-[(5-nitro-2-furyl)methyleneamino]acetamide chloride

> <PUBCHEM_IUPAC_INCHI>
InChI=1S/C11H14N4O5.ClH/c16-10(8-14-3-5-19-6-4-14)13-12-7-9-1-2-11(20-9)15(17)18;/h1-2,7H,3-6,8H2,(H,13,16);1H

> <PUBCHEM_IUPAC_INCHIKEY>
QCYKVLBHGCMWNC-UHFFFAOYSA-N

> <PUBCHEM_EXACT_MASS>
318.073097

> <PUBCHEM_MOLECULAR_FORMULA>
C11H15ClN4O5

> <PUBCHEM_MOLECULAR_WEIGHT>
318.7136

> <PUBCHEM_OPENEYE_CAN_SMILES>
C1COCC[NH+]1CC(=O)NN=CC2=CC=C(O2)[N+](=O)[O-].[Cl-]

> <PUBCHEM_OPENEYE_ISO_SMILES>
C1COCC[NH+]1CC(=O)NN=CC2=CC=C(O2)[N+](=O)[O-].[Cl-]

> <PUBCHEM_CACTVS_TPSA>
114

> <PUBCHEM_MONOISOTOPIC_WEIGHT>
318.073097

> <PUBCHEM_TOTAL_CHARGE>
0

> <PUBCHEM_HEAVY_ATOM_COUNT>
21

> <PUBCHEM_ATOM_DEF_STEREO_COUNT>
0

> <PUBCHEM_ATOM_UDEF_STEREO_COUNT>
0

> <PUBCHEM_BOND_DEF_STEREO_COUNT>
0

> <PUBCHEM_BOND_UDEF_STEREO_COUNT>
1

> <PUBCHEM_ISOTOPIC_ATOM_COUNT>
0

> <PUBCHEM_COMPONENT_COUNT>
2

> <PUBCHEM_CACTVS_TAUTO_COUNT>
2

> <PUBCHEM_COORDINATE_TYPE>
1
5
255

> <PUBCHEM_BONDANNOTATIONS>
18  19  8
19  21  8
20  21  8
4  18  8
4  20  8
9  17  1

$$$$

