5659
  -OEChem-06261200482D

 56 56  0     1  0  0  0  0  0999 V2000
   13.7583    1.1830    0.0000 O   0  0  0  0  0  0  0  0  0  0  0  0
    2.8660    0.3170    0.0000 O   0  0  0  0  0  0  0  0  0  0  0  0
    3.7320   -1.1830    0.0000 O   0  0  0  0  0  0  0  0  0  0  0  0
   14.2583    0.3170    0.0000 C   0  0  3  0  0  0  0  0  0  0  0  0
   13.2583    0.3170    0.0000 C   0  0  3  0  0  0  0  0  0  0  0  0
   15.1244   -0.1830    0.0000 C   0  0  0  0  0  0  0  0  0  0  0  0
   12.3923   -0.1830    0.0000 C   0  0  0  0  0  0  0  0  0  0  0  0
   15.9904    0.3170    0.0000 C   0  0  0  0  0  0  0  0  0  0  0  0
   16.8564   -0.1830    0.0000 C   0  0  0  0  0  0  0  0  0  0  0  0
   11.5263    0.3170    0.0000 C   0  0  0  0  0  0  0  0  0  0  0  0
   17.7224    0.3170    0.0000 C   0  0  0  0  0  0  0  0  0  0  0  0
   10.6603   -0.1830    0.0000 C   0  0  0  0  0  0  0  0  0  0  0  0
    9.7942    0.3170    0.0000 C   0  0  0  0  0  0  0  0  0  0  0  0
    8.9282   -0.1830    0.0000 C   0  0  0  0  0  0  0  0  0  0  0  0
    8.0622    0.3170    0.0000 C   0  0  0  0  0  0  0  0  0  0  0  0
    7.1962   -0.1830    0.0000 C   0  0  0  0  0  0  0  0  0  0  0  0
   18.5885   -0.1830    0.0000 C   0  0  0  0  0  0  0  0  0  0  0  0
    6.3301    0.3170    0.0000 C   0  0  0  0  0  0  0  0  0  0  0  0
    5.4641   -0.1830    0.0000 C   0  0  0  0  0  0  0  0  0  0  0  0
    4.5981    0.3170    0.0000 C   0  0  0  0  0  0  0  0  0  0  0  0
    3.7320   -0.1830    0.0000 C   0  0  0  0  0  0  0  0  0  0  0  0
    2.0000   -0.1830    0.0000 C   0  0  0  0  0  0  0  0  0  0  0  0
   14.8594    0.9180    0.0000 H   0  0  0  0  0  0  0  0  0  0  0  0
   12.6573    0.9180    0.0000 H   0  0  0  0  0  0  0  0  0  0  0  0
   14.7258   -0.6580    0.0000 H   0  0  0  0  0  0  0  0  0  0  0  0
   15.5229   -0.6580    0.0000 H   0  0  0  0  0  0  0  0  0  0  0  0
   11.9938   -0.6580    0.0000 H   0  0  0  0  0  0  0  0  0  0  0  0
   12.7908   -0.6580    0.0000 H   0  0  0  0  0  0  0  0  0  0  0  0
   16.3889    0.7919    0.0000 H   0  0  0  0  0  0  0  0  0  0  0  0
   15.5919    0.7919    0.0000 H   0  0  0  0  0  0  0  0  0  0  0  0
   16.4579   -0.6580    0.0000 H   0  0  0  0  0  0  0  0  0  0  0  0
   17.2549   -0.6580    0.0000 H   0  0  0  0  0  0  0  0  0  0  0  0
   11.5263    0.9370    0.0000 H   0  0  0  0  0  0  0  0  0  0  0  0
   18.1210    0.7919    0.0000 H   0  0  0  0  0  0  0  0  0  0  0  0
   17.3239    0.7919    0.0000 H   0  0  0  0  0  0  0  0  0  0  0  0
   10.6603   -0.8030    0.0000 H   0  0  0  0  0  0  0  0  0  0  0  0
   10.1928    0.7919    0.0000 H   0  0  0  0  0  0  0  0  0  0  0  0
    9.3957    0.7919    0.0000 H   0  0  0  0  0  0  0  0  0  0  0  0
    8.5297   -0.6580    0.0000 H   0  0  0  0  0  0  0  0  0  0  0  0
    9.3267   -0.6580    0.0000 H   0  0  0  0  0  0  0  0  0  0  0  0
    8.4607    0.7919    0.0000 H   0  0  0  0  0  0  0  0  0  0  0  0
    7.6636    0.7919    0.0000 H   0  0  0  0  0  0  0  0  0  0  0  0
    6.7976   -0.6580    0.0000 H   0  0  0  0  0  0  0  0  0  0  0  0
    7.5947   -0.6580    0.0000 H   0  0  0  0  0  0  0  0  0  0  0  0
    6.7287    0.7919    0.0000 H   0  0  0  0  0  0  0  0  0  0  0  0
    5.9316    0.7919    0.0000 H   0  0  0  0  0  0  0  0  0  0  0  0
   18.2785   -0.7199    0.0000 H   0  0  0  0  0  0  0  0  0  0  0  0
   19.1254   -0.4930    0.0000 H   0  0  0  0  0  0  0  0  0  0  0  0
   18.8985    0.3539    0.0000 H   0  0  0  0  0  0  0  0  0  0  0  0
    5.0656   -0.6580    0.0000 H   0  0  0  0  0  0  0  0  0  0  0  0
    5.8626   -0.6580    0.0000 H   0  0  0  0  0  0  0  0  0  0  0  0
    4.9966    0.7919    0.0000 H   0  0  0  0  0  0  0  0  0  0  0  0
    4.1996    0.7919    0.0000 H   0  0  0  0  0  0  0  0  0  0  0  0
    1.6900    0.3539    0.0000 H   0  0  0  0  0  0  0  0  0  0  0  0
    1.4631   -0.4930    0.0000 H   0  0  0  0  0  0  0  0  0  0  0  0
    2.3100   -0.7199    0.0000 H   0  0  0  0  0  0  0  0  0  0  0  0
  1  4  1  0  0  0  0
  1  5  1  0  0  0  0
  2 21  1  0  0  0  0
  2 22  1  0  0  0  0
  3 21  2  0  0  0  0
  4  5  1  0  0  0  0
  4  6  1  0  0  0  0
  4 23  1  0  0  0  0
  5  7  1  0  0  0  0
  5 24  1  0  0  0  0
  6  8  1  0  0  0  0
  6 25  1  0  0  0  0
  6 26  1  0  0  0  0
  7 10  1  0  0  0  0
  7 27  1  0  0  0  0
  7 28  1  0  0  0  0
  8  9  1  0  0  0  0
  8 29  1  0  0  0  0
  8 30  1  0  0  0  0
  9 11  1  0  0  0  0
  9 31  1  0  0  0  0
  9 32  1  0  0  0  0
 10 12  2  3  0  0  0
 10 33  1  0  0  0  0
 11 17  1  0  0  0  0
 11 34  1  0  0  0  0
 11 35  1  0  0  0  0
 12 13  1  0  0  0  0
 12 36  1  0  0  0  0
 13 14  1  0  0  0  0
 13 37  1  0  0  0  0
 13 38  1  0  0  0  0
 14 15  1  0  0  0  0
 14 39  1  0  0  0  0
 14 40  1  0  0  0  0
 15 16  1  0  0  0  0
 15 41  1  0  0  0  0
 15 42  1  0  0  0  0
 16 18  1  0  0  0  0
 16 43  1  0  0  0  0
 16 44  1  0  0  0  0
 17 47  1  0  0  0  0
 17 48  1  0  0  0  0
 17 49  1  0  0  0  0
 18 19  1  0  0  0  0
 18 45  1  0  0  0  0
 18 46  1  0  0  0  0
 19 20  1  0  0  0  0
 19 50  1  0  0  0  0
 19 51  1  0  0  0  0
 20 21  1  0  0  0  0
 20 52  1  0  0  0  0
 20 53  1  0  0  0  0
 22 54  1  0  0  0  0
 22 55  1  0  0  0  0
 22 56  1  0  0  0  0
M  END
> <PUBCHEM_COMPOUND_CID>
5659

> <PUBCHEM_COMPOUND_CANONICALIZED>
1

> <PUBCHEM_CACTVS_COMPLEXITY>
312

> <PUBCHEM_CACTVS_HBOND_ACCEPTOR>
3

> <PUBCHEM_CACTVS_HBOND_DONOR>
0

> <PUBCHEM_CACTVS_ROTATABLE_BOND>
15

> <PUBCHEM_CACTVS_SUBSKEYS>
AAADcfB4MAAAAAAAAAAAAAAAEgAAAAAAAAAAAAAAAAAAAAAAAAAAGgAAAAAACBSggAICCAAABACIACDSCAAAAAAgAAAICAEAAAgAABIAAQACAAAEwAAIAAOIyKCAAAAAAAAAAAAAAAAAAAAAAAAAAAAAAA==

> <PUBCHEM_IUPAC_OPENEYE_NAME>
methyl 11-(3-pentyloxiran-2-yl)undec-9-enoate

> <PUBCHEM_IUPAC_CAS_NAME>
11-(3-pentyl-2-oxiranyl)-9-undecenoic acid methyl ester

> <PUBCHEM_IUPAC_NAME>
methyl 11-(3-pentyloxiran-2-yl)undec-9-enoate

> <PUBCHEM_IUPAC_SYSTEMATIC_NAME>
methyl 11-(3-pentyloxiran-2-yl)undec-9-enoate

> <PUBCHEM_IUPAC_TRADITIONAL_NAME>
11-(3-amyloxiran-2-yl)undec-9-enoic acid methyl ester

> <PUBCHEM_IUPAC_INCHI>
InChI=1S/C19H34O3/c1-3-4-11-14-17-18(22-17)15-12-9-7-5-6-8-10-13-16-19(20)21-2/h9,12,17-18H,3-8,10-11,13-16H2,1-2H3

> <PUBCHEM_IUPAC_INCHIKEY>
JTSVQVYMBXVLFI-UHFFFAOYSA-N

> <PUBCHEM_XLOGP3_AA>
5.9

> <PUBCHEM_EXACT_MASS>
310.250795

> <PUBCHEM_MOLECULAR_FORMULA>
C19H34O3

> <PUBCHEM_MOLECULAR_WEIGHT>
310.47146

> <PUBCHEM_OPENEYE_CAN_SMILES>
CCCCCC1C(O1)CC=CCCCCCCCC(=O)OC

> <PUBCHEM_OPENEYE_ISO_SMILES>
CCCCCC1C(O1)CC=CCCCCCCCC(=O)OC

> <PUBCHEM_CACTVS_TPSA>
38.8

> <PUBCHEM_MONOISOTOPIC_WEIGHT>
310.250795

> <PUBCHEM_TOTAL_CHARGE>
0

> <PUBCHEM_HEAVY_ATOM_COUNT>
22

> <PUBCHEM_ATOM_DEF_STEREO_COUNT>
0

> <PUBCHEM_ATOM_UDEF_STEREO_COUNT>
2

> <PUBCHEM_BOND_DEF_STEREO_COUNT>
0

> <PUBCHEM_BOND_UDEF_STEREO_COUNT>
1

> <PUBCHEM_ISOTOPIC_ATOM_COUNT>
0

> <PUBCHEM_COMPONENT_COUNT>
1

> <PUBCHEM_CACTVS_TAUTO_COUNT>
1

> <PUBCHEM_COORDINATE_TYPE>
1
5
255

> <PUBCHEM_BONDANNOTATIONS>
10  12  1
4  23  3
5  24  3

$$$$

