4135
  -OEChem-06251223542D

 75 76  0     0  0  0  0  0  0999 V2000
    5.4641   -1.4330    0.0000 O   0  0  0  0  0  0  0  0  0  0  0  0
    3.7320    0.5670    0.0000 O   0  0  0  0  0  0  0  0  0  0  0  0
    6.3301   -3.9330    0.0000 N   0  3  0  0  0  0  0  0  0  0  0  0
    3.7320    4.5670    0.0000 C   0  0  0  0  0  0  0  0  0  0  0  0
    4.5981    6.0670    0.0000 C   0  0  0  0  0  0  0  0  0  0  0  0
    3.7320    5.5670    0.0000 C   0  0  0  0  0  0  0  0  0  0  0  0
    3.7320    3.5670    0.0000 C   0  0  0  0  0  0  0  0  0  0  0  0
    4.7320    4.5670    0.0000 C   0  0  0  0  0  0  0  0  0  0  0  0
    2.7320    4.5670    0.0000 C   0  0  0  0  0  0  0  0  0  0  0  0
    5.4641    6.5670    0.0000 C   0  0  0  0  0  0  0  0  0  0  0  0
    4.0981    6.9330    0.0000 C   0  0  0  0  0  0  0  0  0  0  0  0
    5.0981    5.2010    0.0000 C   0  0  0  0  0  0  0  0  0  0  0  0
    6.3301   -2.9330    0.0000 C   0  0  0  0  0  0  0  0  0  0  0  0
    2.8660    3.0670    0.0000 C   0  0  0  0  0  0  0  0  0  0  0  0
    6.3301   -4.9330    0.0000 C   0  0  0  0  0  0  0  0  0  0  0  0
    4.5981    3.0670    0.0000 C   0  0  0  0  0  0  0  0  0  0  0  0
    7.3301   -3.9330    0.0000 C   0  0  0  0  0  0  0  0  0  0  0  0
    5.3301   -3.9330    0.0000 C   0  0  0  0  0  0  0  0  0  0  0  0
    2.8660    2.0670    0.0000 C   0  0  0  0  0  0  0  0  0  0  0  0
    5.4641   -2.4330    0.0000 C   0  0  0  0  0  0  0  0  0  0  0  0
    4.5981    2.0670    0.0000 C   0  0  0  0  0  0  0  0  0  0  0  0
    3.7320    1.5670    0.0000 C   0  0  0  0  0  0  0  0  0  0  0  0
    7.1962   -5.4330    0.0000 C   0  0  0  0  0  0  0  0  0  0  0  0
    2.0000    1.5670    0.0000 C   0  0  0  0  0  0  0  0  0  0  0  0
    4.5981   -0.9330    0.0000 C   0  0  0  0  0  0  0  0  0  0  0  0
    4.5981    0.0670    0.0000 C   0  0  0  0  0  0  0  0  0  0  0  0
    7.1962   -6.4330    0.0000 C   0  0  0  0  0  0  0  0  0  0  0  0
    8.0622   -4.9330    0.0000 C   0  0  0  0  0  0  0  0  0  0  0  0
    8.0622   -6.9330    0.0000 C   0  0  0  0  0  0  0  0  0  0  0  0
    8.9282   -5.4330    0.0000 C   0  0  0  0  0  0  0  0  0  0  0  0
    8.9282   -6.4330    0.0000 C   0  0  0  0  0  0  0  0  0  0  0  0
    3.5200    6.1496    0.0000 H   0  0  0  0  0  0  0  0  0  0  0  0
    3.1215    5.4593    0.0000 H   0  0  0  0  0  0  0  0  0  0  0  0
    2.7320    5.1870    0.0000 H   0  0  0  0  0  0  0  0  0  0  0  0
    2.1120    4.5670    0.0000 H   0  0  0  0  0  0  0  0  0  0  0  0
    2.7320    3.9470    0.0000 H   0  0  0  0  0  0  0  0  0  0  0  0
    4.7320    3.9470    0.0000 H   0  0  0  0  0  0  0  0  0  0  0  0
    5.3520    4.5670    0.0000 H   0  0  0  0  0  0  0  0  0  0  0  0
    4.7320    5.1870    0.0000 H   0  0  0  0  0  0  0  0  0  0  0  0
    4.6350    7.2430    0.0000 H   0  0  0  0  0  0  0  0  0  0  0  0
    3.7881    7.4700    0.0000 H   0  0  0  0  0  0  0  0  0  0  0  0
    3.5611    6.6230    0.0000 H   0  0  0  0  0  0  0  0  0  0  0  0
    5.7741    6.0300    0.0000 H   0  0  0  0  0  0  0  0  0  0  0  0
    4.5611    4.8910    0.0000 H   0  0  0  0  0  0  0  0  0  0  0  0
    5.4081    4.6640    0.0000 H   0  0  0  0  0  0  0  0  0  0  0  0
    5.6350    5.5110    0.0000 H   0  0  0  0  0  0  0  0  0  0  0  0
    6.0010    6.8770    0.0000 H   0  0  0  0  0  0  0  0  0  0  0  0
    5.1541    7.1039    0.0000 H   0  0  0  0  0  0  0  0  0  0  0  0
    6.9407   -3.0407    0.0000 H   0  0  0  0  0  0  0  0  0  0  0  0
    6.5422   -2.3504    0.0000 H   0  0  0  0  0  0  0  0  0  0  0  0
    2.3291    3.3770    0.0000 H   0  0  0  0  0  0  0  0  0  0  0  0
    5.7196   -4.8254    0.0000 H   0  0  0  0  0  0  0  0  0  0  0  0
    6.1181   -5.5156    0.0000 H   0  0  0  0  0  0  0  0  0  0  0  0
    5.1350    3.3770    0.0000 H   0  0  0  0  0  0  0  0  0  0  0  0
    7.3301   -4.5530    0.0000 H   0  0  0  0  0  0  0  0  0  0  0  0
    7.9501   -3.9330    0.0000 H   0  0  0  0  0  0  0  0  0  0  0  0
    7.3301   -3.3130    0.0000 H   0  0  0  0  0  0  0  0  0  0  0  0
    5.3301   -3.3130    0.0000 H   0  0  0  0  0  0  0  0  0  0  0  0
    4.7101   -3.9330    0.0000 H   0  0  0  0  0  0  0  0  0  0  0  0
    5.3301   -4.5530    0.0000 H   0  0  0  0  0  0  0  0  0  0  0  0
    4.8535   -2.3253    0.0000 H   0  0  0  0  0  0  0  0  0  0  0  0
    5.2520   -3.0156    0.0000 H   0  0  0  0  0  0  0  0  0  0  0  0
    5.1350    1.7570    0.0000 H   0  0  0  0  0  0  0  0  0  0  0  0
    1.6900    2.1039    0.0000 H   0  0  0  0  0  0  0  0  0  0  0  0
    1.4631    1.2570    0.0000 H   0  0  0  0  0  0  0  0  0  0  0  0
    2.3100    1.0300    0.0000 H   0  0  0  0  0  0  0  0  0  0  0  0
    3.9875   -0.8254    0.0000 H   0  0  0  0  0  0  0  0  0  0  0  0
    4.3860   -1.5156    0.0000 H   0  0  0  0  0  0  0  0  0  0  0  0
    5.2087   -0.0407    0.0000 H   0  0  0  0  0  0  0  0  0  0  0  0
    4.8101    0.6496    0.0000 H   0  0  0  0  0  0  0  0  0  0  0  0
    6.6592   -6.7430    0.0000 H   0  0  0  0  0  0  0  0  0  0  0  0
    8.0622   -4.3130    0.0000 H   0  0  0  0  0  0  0  0  0  0  0  0
    8.0622   -7.5530    0.0000 H   0  0  0  0  0  0  0  0  0  0  0  0
    9.4651   -5.1230    0.0000 H   0  0  0  0  0  0  0  0  0  0  0  0
    9.4651   -6.7430    0.0000 H   0  0  0  0  0  0  0  0  0  0  0  0
  1 20  1  0  0  0  0
  1 25  1  0  0  0  0
  2 22  1  0  0  0  0
  2 26  1  0  0  0  0
  3 13  1  0  0  0  0
  3 15  1  0  0  0  0
  3 17  1  0  0  0  0
  3 18  1  0  0  0  0
  4  6  1  0  0  0  0
  4  7  1  0  0  0  0
  4  8  1  0  0  0  0
  4  9  1  0  0  0  0
  5  6  1  0  0  0  0
  5 10  1  0  0  0  0
  5 11  1  0  0  0  0
  5 12  1  0  0  0  0
  6 32  1  0  0  0  0
  6 33  1  0  0  0  0
  7 14  2  0  0  0  0
  7 16  1  0  0  0  0
  8 37  1  0  0  0  0
  8 38  1  0  0  0  0
  8 39  1  0  0  0  0
  9 34  1  0  0  0  0
  9 35  1  0  0  0  0
  9 36  1  0  0  0  0
 10 43  1  0  0  0  0
 10 47  1  0  0  0  0
 10 48  1  0  0  0  0
 11 40  1  0  0  0  0
 11 41  1  0  0  0  0
 11 42  1  0  0  0  0
 12 44  1  0  0  0  0
 12 45  1  0  0  0  0
 12 46  1  0  0  0  0
 13 20  1  0  0  0  0
 13 49  1  0  0  0  0
 13 50  1  0  0  0  0
 14 19  1  0  0  0  0
 14 51  1  0  0  0  0
 15 23  1  0  0  0  0
 15 52  1  0  0  0  0
 15 53  1  0  0  0  0
 16 21  2  0  0  0  0
 16 54  1  0  0  0  0
 17 55  1  0  0  0  0
 17 56  1  0  0  0  0
 17 57  1  0  0  0  0
 18 58  1  0  0  0  0
 18 59  1  0  0  0  0
 18 60  1  0  0  0  0
 19 22  2  0  0  0  0
 19 24  1  0  0  0  0
 20 61  1  0  0  0  0
 20 62  1  0  0  0  0
 21 22  1  0  0  0  0
 21 63  1  0  0  0  0
 23 27  2  0  0  0  0
 23 28  1  0  0  0  0
 24 64  1  0  0  0  0
 24 65  1  0  0  0  0
 24 66  1  0  0  0  0
 25 26  1  0  0  0  0
 25 67  1  0  0  0  0
 25 68  1  0  0  0  0
 26 69  1  0  0  0  0
 26 70  1  0  0  0  0
 27 29  1  0  0  0  0
 27 71  1  0  0  0  0
 28 30  2  0  0  0  0
 28 72  1  0  0  0  0
 29 31  2  0  0  0  0
 29 73  1  0  0  0  0
 30 31  1  0  0  0  0
 30 74  1  0  0  0  0
 31 75  1  0  0  0  0
M  CHG  1   3   1
M  END
> <PUBCHEM_COMPOUND_CID>
4135

> <PUBCHEM_COMPOUND_CANONICALIZED>
1

> <PUBCHEM_CACTVS_COMPLEXITY>
502

> <PUBCHEM_CACTVS_HBOND_ACCEPTOR>
2

> <PUBCHEM_CACTVS_HBOND_DONOR>
0

> <PUBCHEM_CACTVS_ROTATABLE_BOND>
12

> <PUBCHEM_CACTVS_SUBSKEYS>
AAADcfB6MAAAAAAAAAAAAAAAAAAAAAAAAAAwYAAAAAAAAAABQAAAHgAAAAAADgThmAYyBoMABACAAiBCAACCCAAgIAAIiAAODIgPJiKEsRuHOCjkwBGaqAeQwPAPoAACAAAIAABAAAQAABAAAAAAAAAAAA==

> <PUBCHEM_IUPAC_OPENEYE_NAME>
benzyl-dimethyl-[2-[2-[2-methyl-4-(1,1,3,3-tetramethylbutyl)phenoxy]ethoxy]ethyl]ammonium

> <PUBCHEM_IUPAC_CAS_NAME>
dimethyl-[2-[2-[2-methyl-4-(2,4,4-trimethylpentan-2-yl)phenoxy]ethoxy]ethyl]-(phenylmethyl)ammonium

> <PUBCHEM_IUPAC_NAME>
benzyl-dimethyl-[2-[2-[2-methyl-4-(2,4,4-trimethylpentan-2-yl)phenoxy]ethoxy]ethyl]azanium

> <PUBCHEM_IUPAC_SYSTEMATIC_NAME>
dimethyl-[2-[2-[2-methyl-4-(2,4,4-trimethylpentan-2-yl)phenoxy]ethoxy]ethyl]-(phenylmethyl)azanium

> <PUBCHEM_IUPAC_TRADITIONAL_NAME>
benzyl-dimethyl-[2-[2-[2-methyl-4-(1,1,3,3-tetramethylbutyl)phenoxy]ethoxy]ethyl]ammonium

> <PUBCHEM_IUPAC_INCHI>
InChI=1S/C28H44NO2/c1-23-20-25(28(5,6)22-27(2,3)4)14-15-26(23)31-19-18-30-17-16-29(7,8)21-24-12-10-9-11-13-24/h9-15,20H,16-19,21-22H2,1-8H3/q+1

> <PUBCHEM_IUPAC_INCHIKEY>
UQOOPIMXBSPVJI-UHFFFAOYSA-N

> <PUBCHEM_XLOGP3_AA>
7.1

> <PUBCHEM_EXACT_MASS>
426.337205

> <PUBCHEM_MOLECULAR_FORMULA>
C28H44NO2+

> <PUBCHEM_MOLECULAR_WEIGHT>
426.65446

> <PUBCHEM_OPENEYE_CAN_SMILES>
CC1=C(C=CC(=C1)C(C)(C)CC(C)(C)C)OCCOCC[N+](C)(C)CC2=CC=CC=C2

> <PUBCHEM_OPENEYE_ISO_SMILES>
CC1=C(C=CC(=C1)C(C)(C)CC(C)(C)C)OCCOCC[N+](C)(C)CC2=CC=CC=C2

> <PUBCHEM_CACTVS_TPSA>
18.5

> <PUBCHEM_MONOISOTOPIC_WEIGHT>
426.337205

> <PUBCHEM_TOTAL_CHARGE>
1

> <PUBCHEM_HEAVY_ATOM_COUNT>
31

> <PUBCHEM_ATOM_DEF_STEREO_COUNT>
0

> <PUBCHEM_ATOM_UDEF_STEREO_COUNT>
0

> <PUBCHEM_BOND_DEF_STEREO_COUNT>
0

> <PUBCHEM_BOND_UDEF_STEREO_COUNT>
0

> <PUBCHEM_ISOTOPIC_ATOM_COUNT>
0

> <PUBCHEM_COMPONENT_COUNT>
1

> <PUBCHEM_CACTVS_TAUTO_COUNT>
1

> <PUBCHEM_COORDINATE_TYPE>
1
5
255

> <PUBCHEM_BONDANNOTATIONS>
14  19  8
16  21  8
19  22  8
21  22  8
23  27  8
23  28  8
27  29  8
28  30  8
29  31  8
30  31  8
7  14  8
7  16  8

$$$$

