12023
  -OEChem-06261206242D

 13 13  0     0  0  0  0  0  0999 V2000
    2.8090   -0.8639    0.0000 N   0  0  0  0  0  0  0  0  0  0  0  0
    3.3090    0.6749    0.0000 C   0  0  0  0  0  0  0  0  0  0  0  0
    3.6180   -0.2761    0.0000 C   0  0  0  0  0  0  0  0  0  0  0  0
    2.3090    0.6749    0.0000 C   0  0  0  0  0  0  0  0  0  0  0  0
    3.8968    1.4839    0.0000 C   0  0  0  0  0  0  0  0  0  0  0  0
    2.0000   -0.2761    0.0000 C   0  0  0  0  0  0  0  0  0  0  0  0
    4.2077   -0.4677    0.0000 H   0  0  0  0  0  0  0  0  0  0  0  0
    1.9446    1.1765    0.0000 H   0  0  0  0  0  0  0  0  0  0  0  0
    4.3984    1.1195    0.0000 H   0  0  0  0  0  0  0  0  0  0  0  0
    4.2612    1.9855    0.0000 H   0  0  0  0  0  0  0  0  0  0  0  0
    3.3952    1.8484    0.0000 H   0  0  0  0  0  0  0  0  0  0  0  0
    2.8090   -1.4839    0.0000 H   0  0  0  0  0  0  0  0  0  0  0  0
    1.4103   -0.4677    0.0000 H   0  0  0  0  0  0  0  0  0  0  0  0
  1  3  1  0  0  0  0
  1  6  1  0  0  0  0
  1 12  1  0  0  0  0
  2  3  2  0  0  0  0
  2  4  1  0  0  0  0
  2  5  1  0  0  0  0
  3  7  1  0  0  0  0
  4  6  2  0  0  0  0
  4  8  1  0  0  0  0
  5  9  1  0  0  0  0
  5 10  1  0  0  0  0
  5 11  1  0  0  0  0
  6 13  1  0  0  0  0
M  END
> <PUBCHEM_COMPOUND_CID>
12023

> <PUBCHEM_COMPOUND_CANONICALIZED>
1

> <PUBCHEM_CACTVS_COMPLEXITY>
43.2

> <PUBCHEM_CACTVS_HBOND_ACCEPTOR>
0

> <PUBCHEM_CACTVS_HBOND_DONOR>
1

> <PUBCHEM_CACTVS_ROTATABLE_BOND>
0

> <PUBCHEM_CACTVS_SUBSKEYS>
AAADcYBiAAAAAAAAAAAAAAAAAAAAAWAAAAAAAAAAAAAAAAABgAAAHAAQAAAADADBGgQ+gJLJkACgAjBnRACCgCAxAiAI2aA4ZJgIIMBAgYEEAAhAEADAQAAAAAAIAAAAAAAAAAAAAAAAAAAAAAAAAAAAAA==

> <PUBCHEM_IUPAC_OPENEYE_NAME>
3-methyl-1H-pyrrole

> <PUBCHEM_IUPAC_CAS_NAME>
3-methyl-1H-pyrrole

> <PUBCHEM_IUPAC_NAME>
3-methyl-1H-pyrrole

> <PUBCHEM_IUPAC_SYSTEMATIC_NAME>
3-methyl-1H-pyrrole

> <PUBCHEM_IUPAC_TRADITIONAL_NAME>
3-methyl-1H-pyrrole

> <PUBCHEM_IUPAC_INCHI>
InChI=1S/C5H7N/c1-5-2-3-6-4-5/h2-4,6H,1H3

> <PUBCHEM_IUPAC_INCHIKEY>
FEKWWZCCJDUWLY-UHFFFAOYSA-N

> <PUBCHEM_XLOGP3_AA>
1.1

> <PUBCHEM_EXACT_MASS>
81.057849

> <PUBCHEM_MOLECULAR_FORMULA>
C5H7N

> <PUBCHEM_MOLECULAR_WEIGHT>
81.11578

> <PUBCHEM_OPENEYE_CAN_SMILES>
CC1=CNC=C1

> <PUBCHEM_OPENEYE_ISO_SMILES>
CC1=CNC=C1

> <PUBCHEM_CACTVS_TPSA>
15.8

> <PUBCHEM_MONOISOTOPIC_WEIGHT>
81.057849

> <PUBCHEM_TOTAL_CHARGE>
0

> <PUBCHEM_HEAVY_ATOM_COUNT>
6

> <PUBCHEM_ATOM_DEF_STEREO_COUNT>
0

> <PUBCHEM_ATOM_UDEF_STEREO_COUNT>
0

> <PUBCHEM_BOND_DEF_STEREO_COUNT>
0

> <PUBCHEM_BOND_UDEF_STEREO_COUNT>
0

> <PUBCHEM_ISOTOPIC_ATOM_COUNT>
0

> <PUBCHEM_COMPONENT_COUNT>
1

> <PUBCHEM_CACTVS_TAUTO_COUNT>
1

> <PUBCHEM_COORDINATE_TYPE>
1
5
255

> <PUBCHEM_BONDANNOTATIONS>
1  3  8
1  6  8
2  3  8
2  4  8
4  6  8

$$$$

