5035
  -OEChem-06261200292D

 61 65  0     0  0  0  0  0  0999 V2000
    5.5443   -4.6342    0.0000 S   0  0  0  0  0  0  0  0  0  0  0  0
    3.1836    0.9030    0.0000 O   0  0  0  0  0  0  0  0  0  0  0  0
    6.8335   -1.8680    0.0000 O   0  0  0  0  0  0  0  0  0  0  0  0
    2.0000   -4.8294    0.0000 O   0  0  0  0  0  0  0  0  0  0  0  0
   10.1279   -3.8294    0.0000 O   0  0  0  0  0  0  0  0  0  0  0  0
    3.1371    3.5484    0.0000 N   0  0  0  0  0  0  0  0  0  0  0  0
    4.1156    3.7546    0.0000 C   0  0  0  0  0  0  0  0  0  0  0  0
    2.4692    4.2927    0.0000 C   0  0  0  0  0  0  0  0  0  0  0  0
    4.4262    4.7051    0.0000 C   0  0  0  0  0  0  0  0  0  0  0  0
    2.7799    5.2432    0.0000 C   0  0  0  0  0  0  0  0  0  0  0  0
    3.7584    5.4494    0.0000 C   0  0  0  0  0  0  0  0  0  0  0  0
    2.8264    2.5979    0.0000 C   0  0  0  0  0  0  0  0  0  0  0  0
    3.4942    1.8536    0.0000 C   0  0  0  0  0  0  0  0  0  0  0  0
    3.8514    0.1587    0.0000 C   0  0  0  0  0  0  0  0  0  0  0  0
    5.5443   -3.0247    0.0000 C   0  0  0  0  0  0  0  0  0  0  0  0
    4.5981   -3.3294    0.0000 C   0  0  0  0  0  0  0  0  0  0  0  0
    6.1279   -3.8294    0.0000 C   0  0  0  0  0  0  0  0  0  0  0  0
    4.5981   -4.3294    0.0000 C   0  0  0  0  0  0  0  0  0  0  0  0
    5.1871   -1.3299    0.0000 C   0  0  0  0  0  0  0  0  0  0  0  0
    5.8550   -2.0742    0.0000 C   0  0  0  0  0  0  0  0  0  0  0  0
    3.5408   -0.7918    0.0000 C   0  0  0  0  0  0  0  0  0  0  0  0
    4.8299    0.3650    0.0000 C   0  0  0  0  0  0  0  0  0  0  0  0
    4.2086   -1.5361    0.0000 C   0  0  0  0  0  0  0  0  0  0  0  0
    5.4978   -0.3793    0.0000 C   0  0  0  0  0  0  0  0  0  0  0  0
    7.1279   -3.8294    0.0000 C   0  0  0  0  0  0  0  0  0  0  0  0
    3.7320   -2.8294    0.0000 C   0  0  0  0  0  0  0  0  0  0  0  0
    3.7320   -4.8294    0.0000 C   0  0  0  0  0  0  0  0  0  0  0  0
    2.8660   -3.3294    0.0000 C   0  0  0  0  0  0  0  0  0  0  0  0
    2.8660   -4.3294    0.0000 C   0  0  0  0  0  0  0  0  0  0  0  0
    7.6279   -4.6954    0.0000 C   0  0  0  0  0  0  0  0  0  0  0  0
    7.6279   -2.9634    0.0000 C   0  0  0  0  0  0  0  0  0  0  0  0
    8.6279   -4.6954    0.0000 C   0  0  0  0  0  0  0  0  0  0  0  0
    8.6279   -2.9634    0.0000 C   0  0  0  0  0  0  0  0  0  0  0  0
    9.1279   -3.8294    0.0000 C   0  0  0  0  0  0  0  0  0  0  0  0
    1.9223    4.5847    0.0000 H   0  0  0  0  0  0  0  0  0  0  0  0
    2.0867    3.8048    0.0000 H   0  0  0  0  0  0  0  0  0  0  0  0
    4.1361    3.1349    0.0000 H   0  0  0  0  0  0  0  0  0  0  0  0
    4.7294    3.6672    0.0000 H   0  0  0  0  0  0  0  0  0  0  0  0
    2.7593    5.8629    0.0000 H   0  0  0  0  0  0  0  0  0  0  0  0
    2.1661    5.3306    0.0000 H   0  0  0  0  0  0  0  0  0  0  0  0
    4.9732    4.4131    0.0000 H   0  0  0  0  0  0  0  0  0  0  0  0
    4.8088    5.1930    0.0000 H   0  0  0  0  0  0  0  0  0  0  0  0
    4.2848    5.7771    0.0000 H   0  0  0  0  0  0  0  0  0  0  0  0
    3.5271    6.0247    0.0000 H   0  0  0  0  0  0  0  0  0  0  0  0
    2.2795    2.8899    0.0000 H   0  0  0  0  0  0  0  0  0  0  0  0
    2.4438    2.1100    0.0000 H   0  0  0  0  0  0  0  0  0  0  0  0
    4.0412    1.5615    0.0000 H   0  0  0  0  0  0  0  0  0  0  0  0
    3.8768    2.3415    0.0000 H   0  0  0  0  0  0  0  0  0  0  0  0
    2.9341   -0.9196    0.0000 H   0  0  0  0  0  0  0  0  0  0  0  0
    5.0225    0.9543    0.0000 H   0  0  0  0  0  0  0  0  0  0  0  0
    4.0160   -2.1254    0.0000 H   0  0  0  0  0  0  0  0  0  0  0  0
    6.1044   -0.2515    0.0000 H   0  0  0  0  0  0  0  0  0  0  0  0
    3.7320   -2.2094    0.0000 H   0  0  0  0  0  0  0  0  0  0  0  0
    3.7320   -5.4494    0.0000 H   0  0  0  0  0  0  0  0  0  0  0  0
    2.3291   -3.0194    0.0000 H   0  0  0  0  0  0  0  0  0  0  0  0
    7.3179   -5.2324    0.0000 H   0  0  0  0  0  0  0  0  0  0  0  0
    7.3179   -2.4265    0.0000 H   0  0  0  0  0  0  0  0  0  0  0  0
    8.9379   -5.2324    0.0000 H   0  0  0  0  0  0  0  0  0  0  0  0
    8.9379   -2.4265    0.0000 H   0  0  0  0  0  0  0  0  0  0  0  0
    2.0000   -5.4494    0.0000 H   0  0  0  0  0  0  0  0  0  0  0  0
   10.4379   -4.3664    0.0000 H   0  0  0  0  0  0  0  0  0  0  0  0
  1 17  1  0  0  0  0
  1 18  1  0  0  0  0
  2 13  1  0  0  0  0
  2 14  1  0  0  0  0
  3 20  2  0  0  0  0
  4 29  1  0  0  0  0
  4 60  1  0  0  0  0
  5 34  1  0  0  0  0
  5 61  1  0  0  0  0
  6  7  1  0  0  0  0
  6  8  1  0  0  0  0
  6 12  1  0  0  0  0
  7  9  1  0  0  0  0
  7 37  1  0  0  0  0
  7 38  1  0  0  0  0
  8 10  1  0  0  0  0
  8 35  1  0  0  0  0
  8 36  1  0  0  0  0
  9 11  1  0  0  0  0
  9 41  1  0  0  0  0
  9 42  1  0  0  0  0
 10 11  1  0  0  0  0
 10 39  1  0  0  0  0
 10 40  1  0  0  0  0
 11 43  1  0  0  0  0
 11 44  1  0  0  0  0
 12 13  1  0  0  0  0
 12 45  1  0  0  0  0
 12 46  1  0  0  0  0
 13 47  1  0  0  0  0
 13 48  1  0  0  0  0
 14 21  2  0  0  0  0
 14 22  1  0  0  0  0
 15 16  1  0  0  0  0
 15 17  2  0  0  0  0
 15 20  1  0  0  0  0
 16 18  2  0  0  0  0
 16 26  1  0  0  0  0
 17 25  1  0  0  0  0
 18 27  1  0  0  0  0
 19 20  1  0  0  0  0
 19 23  2  0  0  0  0
 19 24  1  0  0  0  0
 21 23  1  0  0  0  0
 21 49  1  0  0  0  0
 22 24  2  0  0  0  0
 22 50  1  0  0  0  0
 23 51  1  0  0  0  0
 24 52  1  0  0  0  0
 25 30  2  0  0  0  0
 25 31  1  0  0  0  0
 26 28  2  0  0  0  0
 26 53  1  0  0  0  0
 27 29  2  0  0  0  0
 27 54  1  0  0  0  0
 28 29  1  0  0  0  0
 28 55  1  0  0  0  0
 30 32  1  0  0  0  0
 30 56  1  0  0  0  0
 31 33  2  0  0  0  0
 31 57  1  0  0  0  0
 32 34  2  0  0  0  0
 32 58  1  0  0  0  0
 33 34  1  0  0  0  0
 33 59  1  0  0  0  0
M  END
> <PUBCHEM_COMPOUND_CID>
5035

> <PUBCHEM_COMPOUND_CANONICALIZED>
1

> <PUBCHEM_CACTVS_COMPLEXITY>
655

> <PUBCHEM_CACTVS_HBOND_ACCEPTOR>
6

> <PUBCHEM_CACTVS_HBOND_DONOR>
2

> <PUBCHEM_CACTVS_ROTATABLE_BOND>
7

> <PUBCHEM_CACTVS_SUBSKEYS>
AAADceB6OABAAAAAAAAAAAAAAAAAASAAAAA8YMEAAAAAAEgB9AAAHgQACAAADATh2AYwB8MABgiMAqBSAAADCIAkKBBIiBkOCMgOJjKmtRqHeSCkwBG4uYeYzPDOoAAABAAEAABAAAAIAAgAAAAAAAAAAA==

> <PUBCHEM_IUPAC_OPENEYE_NAME>
[6-hydroxy-2-(4-hydroxyphenyl)benzothiophen-3-yl]-[4-[2-(1-piperidyl)ethoxy]phenyl]methanone

> <PUBCHEM_IUPAC_CAS_NAME>
[6-hydroxy-2-(4-hydroxyphenyl)-1-benzothiophen-3-yl]-[4-[2-(1-piperidinyl)ethoxy]phenyl]methanone

> <PUBCHEM_IUPAC_NAME>
[6-hydroxy-2-(4-hydroxyphenyl)-1-benzothiophen-3-yl]-[4-(2-piperidin-1-ylethoxy)phenyl]methanone

> <PUBCHEM_IUPAC_SYSTEMATIC_NAME>
[2-(4-hydroxyphenyl)-6-oxidanyl-1-benzothiophen-3-yl]-[4-(2-piperidin-1-ylethoxy)phenyl]methanone

> <PUBCHEM_IUPAC_TRADITIONAL_NAME>
[6-hydroxy-2-(4-hydroxyphenyl)benzothiophen-3-yl]-[4-(2-piperidinoethoxy)phenyl]methanone

> <PUBCHEM_IUPAC_INCHI>
InChI=1S/C28H27NO4S/c30-21-8-4-20(5-9-21)28-26(24-13-10-22(31)18-25(24)34-28)27(32)19-6-11-23(12-7-19)33-17-16-29-14-2-1-3-15-29/h4-13,18,30-31H,1-3,14-17H2

> <PUBCHEM_IUPAC_INCHIKEY>
GZUITABIAKMVPG-UHFFFAOYSA-N

> <PUBCHEM_XLOGP3_AA>
6.1

> <PUBCHEM_EXACT_MASS>
473.166079

> <PUBCHEM_MOLECULAR_FORMULA>
C28H27NO4S

> <PUBCHEM_MOLECULAR_WEIGHT>
473.58328

> <PUBCHEM_OPENEYE_CAN_SMILES>
C1CCN(CC1)CCOC2=CC=C(C=C2)C(=O)C3=C(SC4=C3C=CC(=C4)O)C5=CC=C(C=C5)O

> <PUBCHEM_OPENEYE_ISO_SMILES>
C1CCN(CC1)CCOC2=CC=C(C=C2)C(=O)C3=C(SC4=C3C=CC(=C4)O)C5=CC=C(C=C5)O

> <PUBCHEM_CACTVS_TPSA>
98.2

> <PUBCHEM_MONOISOTOPIC_WEIGHT>
473.166079

> <PUBCHEM_TOTAL_CHARGE>
0

> <PUBCHEM_HEAVY_ATOM_COUNT>
34

> <PUBCHEM_ATOM_DEF_STEREO_COUNT>
0

> <PUBCHEM_ATOM_UDEF_STEREO_COUNT>
0

> <PUBCHEM_BOND_DEF_STEREO_COUNT>
0

> <PUBCHEM_BOND_UDEF_STEREO_COUNT>
0

> <PUBCHEM_ISOTOPIC_ATOM_COUNT>
0

> <PUBCHEM_COMPONENT_COUNT>
1

> <PUBCHEM_CACTVS_TAUTO_COUNT>
17

> <PUBCHEM_COORDINATE_TYPE>
1
5
255

> <PUBCHEM_BONDANNOTATIONS>
1  17  8
1  18  8
14  21  8
14  22  8
15  16  8
15  17  8
16  18  8
16  26  8
18  27  8
19  23  8
19  24  8
21  23  8
22  24  8
25  30  8
25  31  8
26  28  8
27  29  8
28  29  8
30  32  8
31  33  8
32  34  8
33  34  8

$$$$

