5773
  -OEChem-06261200522D

 45 48  0     1  0  0  0  0  0999 V2000
    6.3301   -1.2307    0.0000 S   0  0  0  0  0  0  0  0  0  0  0  0
   12.3245   -2.2693    0.0000 S   0  0  0  0  0  0  0  0  0  0  0  0
    8.9101    0.9820    0.0000 O   0  0  0  0  0  0  0  0  0  0  0  0
    5.4641    2.2693    0.0000 O   0  5  0  0  0  0  0  0  0  0  0  0
    7.1962    2.2693    0.0000 O   0  0  0  0  0  0  0  0  0  0  0  0
   10.1373   -0.2212    0.0000 O   0  0  0  0  0  0  0  0  0  0  0  0
    7.1962    0.2693    0.0000 N   0  0  0  0  0  0  0  0  0  0  0  0
    8.9101   -1.4434    0.0000 N   0  0  0  0  0  0  0  0  0  0  0  0
    3.7320    0.2693    0.0000 N   0  3  0  0  0  0  0  0  0  0  0  0
    7.1962   -0.7307    0.0000 C   0  0  1  0  0  0  0  0  0  0  0  0
    8.2044   -0.7349    0.0000 C   0  0  1  0  0  0  0  0  0  0  0  0
    8.2044    0.2734    0.0000 C   0  0  0  0  0  0  0  0  0  0  0  0
    6.3301    0.7693    0.0000 C   0  0  0  0  0  0  0  0  0  0  0  0
    5.4641    0.2693    0.0000 C   0  0  0  0  0  0  0  0  0  0  0  0
    5.4641   -0.7307    0.0000 C   0  0  0  0  0  0  0  0  0  0  0  0
    4.5981    0.7693    0.0000 C   0  0  0  0  0  0  0  0  0  0  0  0
    6.3301    1.7693    0.0000 C   0  0  0  0  0  0  0  0  0  0  0  0
    9.8765   -1.1866    0.0000 C   0  0  0  0  0  0  0  0  0  0  0  0
   10.5822   -1.8952    0.0000 C   0  0  0  0  0  0  0  0  0  0  0  0
    2.8660    0.7693    0.0000 C   0  0  0  0  0  0  0  0  0  0  0  0
    3.7320   -0.7307    0.0000 C   0  0  0  0  0  0  0  0  0  0  0  0
   11.5486   -1.6383    0.0000 C   0  0  0  0  0  0  0  0  0  0  0  0
    2.0000    0.2693    0.0000 C   0  0  0  0  0  0  0  0  0  0  0  0
    2.8660   -1.2307    0.0000 C   0  0  0  0  0  0  0  0  0  0  0  0
    2.0000   -0.7307    0.0000 C   0  0  0  0  0  0  0  0  0  0  0  0
   11.9089   -0.7055    0.0000 C   0  0  0  0  0  0  0  0  0  0  0  0
   12.9075   -0.7599    0.0000 C   0  0  0  0  0  0  0  0  0  0  0  0
   13.1643   -1.7263    0.0000 C   0  0  0  0  0  0  0  0  0  0  0  0
    7.4145   -1.5522    0.0000 H   0  0  0  0  0  0  0  0  0  0  0  0
    7.9654   -1.3070    0.0000 H   0  0  0  0  0  0  0  0  0  0  0  0
    4.8535   -0.6231    0.0000 H   0  0  0  0  0  0  0  0  0  0  0  0
    5.2520   -1.3134    0.0000 H   0  0  0  0  0  0  0  0  0  0  0  0
    8.7484   -2.0420    0.0000 H   0  0  0  0  0  0  0  0  0  0  0  0
    4.9966    1.2442    0.0000 H   0  0  0  0  0  0  0  0  0  0  0  0
    4.1996    1.2442    0.0000 H   0  0  0  0  0  0  0  0  0  0  0  0
   10.0736   -2.2498    0.0000 H   0  0  0  0  0  0  0  0  0  0  0  0
   10.8431   -2.4576    0.0000 H   0  0  0  0  0  0  0  0  0  0  0  0
    2.8660    1.3893    0.0000 H   0  0  0  0  0  0  0  0  0  0  0  0
    4.2690   -1.0407    0.0000 H   0  0  0  0  0  0  0  0  0  0  0  0
    1.4631    0.5793    0.0000 H   0  0  0  0  0  0  0  0  0  0  0  0
    2.8660   -1.8507    0.0000 H   0  0  0  0  0  0  0  0  0  0  0  0
   11.5723   -0.1848    0.0000 H   0  0  0  0  0  0  0  0  0  0  0  0
    1.4631   -1.0407    0.0000 H   0  0  0  0  0  0  0  0  0  0  0  0
   13.2986   -0.2789    0.0000 H   0  0  0  0  0  0  0  0  0  0  0  0
   13.7427   -1.9497    0.0000 H   0  0  0  0  0  0  0  0  0  0  0  0
  1 10  1  0  0  0  0
  1 15  1  0  0  0  0
  2 22  1  0  0  0  0
  2 28  1  0  0  0  0
  3 12  2  0  0  0  0
  4 17  1  0  0  0  0
  5 17  2  0  0  0  0
  6 18  2  0  0  0  0
  7 10  1  0  0  0  0
  7 12  1  0  0  0  0
  7 13  1  0  0  0  0
 11  8  1  1  0  0  0
  8 18  1  0  0  0  0
  8 33  1  0  0  0  0
  9 16  1  0  0  0  0
  9 20  2  0  0  0  0
  9 21  1  0  0  0  0
 10 11  1  0  0  0  0
 10 29  1  6  0  0  0
 11 12  1  0  0  0  0
 11 30  1  0  0  0  0
 13 14  2  0  0  0  0
 13 17  1  0  0  0  0
 14 15  1  0  0  0  0
 14 16  1  0  0  0  0
 15 31  1  0  0  0  0
 15 32  1  0  0  0  0
 16 34  1  0  0  0  0
 16 35  1  0  0  0  0
 18 19  1  0  0  0  0
 19 22  1  0  0  0  0
 19 36  1  0  0  0  0
 19 37  1  0  0  0  0
 20 23  1  0  0  0  0
 20 38  1  0  0  0  0
 21 24  2  0  0  0  0
 21 39  1  0  0  0  0
 22 26  2  0  0  0  0
 23 25  2  0  0  0  0
 23 40  1  0  0  0  0
 24 25  1  0  0  0  0
 24 41  1  0  0  0  0
 25 43  1  0  0  0  0
 26 27  1  0  0  0  0
 26 42  1  0  0  0  0
 27 28  2  0  0  0  0
 27 44  1  0  0  0  0
 28 45  1  0  0  0  0
M  CHG  2   4  -1   9   1
M  END
> <PUBCHEM_COMPOUND_CID>
5773

> <PUBCHEM_COMPOUND_CANONICALIZED>
1

> <PUBCHEM_CACTVS_COMPLEXITY>
687

> <PUBCHEM_CACTVS_HBOND_ACCEPTOR>
6

> <PUBCHEM_CACTVS_HBOND_DONOR>
1

> <PUBCHEM_CACTVS_ROTATABLE_BOND>
5

> <PUBCHEM_CACTVS_SUBSKEYS>
AAADceB7OABgAAAAAAAAAAAAAABYASAAAAAsQAAAAAAQAAAB4AAAHgQQAAAADCjF0gS8iZPMEAisAjX3XACDgKBxCjBI2Lm4ZNgKZPrglbGUMAhglgD4yQcYCAAAAAAAAAAAAAAAAAAAAAAAAAAAAAAAAA==

> <PUBCHEM_IUPAC_OPENEYE_NAME>
(6R,7R)-8-oxo-3-(pyridin-1-ium-1-ylmethyl)-7-[[2-(2-thienyl)acetyl]amino]-5-thia-1-azabicyclo[4.2.0]oct-2-ene-2-carboxylate

> <PUBCHEM_IUPAC_CAS_NAME>
(6R,7R)-8-oxo-7-[(1-oxo-2-thiophen-2-ylethyl)amino]-3-(1-pyridin-1-iumylmethyl)-5-thia-1-azabicyclo[4.2.0]oct-2-ene-2-carboxylate

> <PUBCHEM_IUPAC_NAME>
(6R,7R)-8-oxo-3-(pyridin-1-ium-1-ylmethyl)-7-[(2-thiophen-2-ylacetyl)amino]-5-thia-1-azabicyclo[4.2.0]oct-2-ene-2-carboxylate

> <PUBCHEM_IUPAC_SYSTEMATIC_NAME>
(6R,7R)-8-oxidanylidene-3-(pyridin-1-ium-1-ylmethyl)-7-(2-thiophen-2-ylethanoylamino)-5-thia-1-azabicyclo[4.2.0]oct-2-ene-2-carboxylate

> <PUBCHEM_IUPAC_TRADITIONAL_NAME>
(6R,7R)-8-keto-3-(pyridin-1-ium-1-ylmethyl)-7-[[2-(2-thienyl)acetyl]amino]-5-thia-1-azabicyclo[4.2.0]oct-2-ene-2-carboxylate

> <PUBCHEM_IUPAC_INCHI>
InChI=1S/C19H17N3O4S2/c23-14(9-13-5-4-8-27-13)20-15-17(24)22-16(19(25)26)12(11-28-18(15)22)10-21-6-2-1-3-7-21/h1-8,15,18H,9-11H2,(H-,20,23,25,26)/t15-,18-/m1/s1

> <PUBCHEM_IUPAC_INCHIKEY>
CZTQZXZIADLWOZ-CRAIPNDOSA-N

> <PUBCHEM_XLOGP3>
1.9

> <PUBCHEM_EXACT_MASS>
415.066048

> <PUBCHEM_MOLECULAR_FORMULA>
C19H17N3O4S2

> <PUBCHEM_MOLECULAR_WEIGHT>
415.48598

> <PUBCHEM_OPENEYE_CAN_SMILES>
C1C(=C(N2C(S1)C(C2=O)NC(=O)CC3=CC=CS3)C(=O)[O-])C[N+]4=CC=CC=C4

> <PUBCHEM_OPENEYE_ISO_SMILES>
C1C(=C(N2[C@H](S1)[C@@H](C2=O)NC(=O)CC3=CC=CS3)C(=O)[O-])C[N+]4=CC=CC=C4

> <PUBCHEM_CACTVS_TPSA>
147

> <PUBCHEM_MONOISOTOPIC_WEIGHT>
415.066048

> <PUBCHEM_TOTAL_CHARGE>
0

> <PUBCHEM_HEAVY_ATOM_COUNT>
28

> <PUBCHEM_ATOM_DEF_STEREO_COUNT>
2

> <PUBCHEM_ATOM_UDEF_STEREO_COUNT>
0

> <PUBCHEM_BOND_DEF_STEREO_COUNT>
0

> <PUBCHEM_BOND_UDEF_STEREO_COUNT>
0

> <PUBCHEM_ISOTOPIC_ATOM_COUNT>
0

> <PUBCHEM_COMPONENT_COUNT>
1

> <PUBCHEM_CACTVS_TAUTO_COUNT>
4

> <PUBCHEM_COORDINATE_TYPE>
1
5
255

> <PUBCHEM_BONDANNOTATIONS>
10  29  6
2  22  8
2  28  8
20  23  8
21  24  8
22  26  8
23  25  8
24  25  8
26  27  8
27  28  8
11  8  5
9  20  8
9  21  8

$$$$

