47205753
  -OEChem-06241223002D

 34 35  0     1  0  0  0  0  0999 V2000
    6.5575    3.2792    0.0000 O   0  0  0  0  0  0  0  0  0  0  0  0
    7.1962   -0.3844    0.0000 O   0  0  0  0  0  0  0  0  0  0  0  0
    9.7734    1.8475    0.0000 O   0  0  0  0  0  0  0  0  0  0  0  0
    3.7320   -1.3844    0.0000 O   0  0  0  0  0  0  0  0  0  0  0  0
    8.1097    1.2088    0.0000 N   0  0  0  0  0  0  0  0  0  0  0  0
    8.2788    2.8180    0.0000 N   0  0  0  0  0  0  0  0  0  0  0  0
    5.4641   -0.3844    0.0000 N   0  0  0  0  0  0  0  0  0  0  0  0
    4.5981   -2.8844    0.0000 N   0  0  0  0  0  0  0  0  0  0  0  0
    7.1962    1.6156    0.0000 C   0  0  3  0  0  0  0  0  0  0  0  0
    6.3301    1.1156    0.0000 C   0  0  0  0  0  0  0  0  0  0  0  0
    7.3007    2.6101    0.0000 C   0  0  0  0  0  0  0  0  0  0  0  0
    6.3301    0.1156    0.0000 C   0  0  0  0  0  0  0  0  0  0  0  0
    8.7788    1.9520    0.0000 C   0  0  0  0  0  0  0  0  0  0  0  0
    5.4641   -1.3844    0.0000 C   0  0  0  0  0  0  0  0  0  0  0  0
    4.5981   -1.8844    0.0000 C   0  0  0  0  0  0  0  0  0  0  0  0
    6.3301   -1.8844    0.0000 C   0  0  0  0  0  0  0  0  0  0  0  0
    6.3301   -2.8844    0.0000 C   0  0  0  0  0  0  0  0  0  0  0  0
    2.8660   -1.8844    0.0000 C   0  0  0  0  0  0  0  0  0  0  0  0
    5.4641   -3.3844    0.0000 C   0  0  0  0  0  0  0  0  0  0  0  0
    2.0000   -1.3844    0.0000 C   0  0  0  0  0  0  0  0  0  0  0  0
    7.2286    0.9964    0.0000 H   0  0  0  0  0  0  0  0  0  0  0  0
    6.1181    1.6982    0.0000 H   0  0  0  0  0  0  0  0  0  0  0  0
    5.7196    1.0079    0.0000 H   0  0  0  0  0  0  0  0  0  0  0  0
    8.2386    0.6024    0.0000 H   0  0  0  0  0  0  0  0  0  0  0  0
    8.5310    3.3844    0.0000 H   0  0  0  0  0  0  0  0  0  0  0  0
    4.9272   -0.0744    0.0000 H   0  0  0  0  0  0  0  0  0  0  0  0
    6.8671   -1.5744    0.0000 H   0  0  0  0  0  0  0  0  0  0  0  0
    6.8671   -3.1944    0.0000 H   0  0  0  0  0  0  0  0  0  0  0  0
    2.4675   -2.3594    0.0000 H   0  0  0  0  0  0  0  0  0  0  0  0
    3.2646   -2.3594    0.0000 H   0  0  0  0  0  0  0  0  0  0  0  0
    5.4641   -4.0044    0.0000 H   0  0  0  0  0  0  0  0  0  0  0  0
    2.3100   -0.8475    0.0000 H   0  0  0  0  0  0  0  0  0  0  0  0
    1.4631   -1.0744    0.0000 H   0  0  0  0  0  0  0  0  0  0  0  0
    1.6900   -1.9214    0.0000 H   0  0  0  0  0  0  0  0  0  0  0  0
  1 11  2  0  0  0  0
  2 12  2  0  0  0  0
  3 13  2  0  0  0  0
  4 15  1  0  0  0  0
  4 18  1  0  0  0  0
  5  9  1  0  0  0  0
  5 13  1  0  0  0  0
  5 24  1  0  0  0  0
  6 11  1  0  0  0  0
  6 13  1  0  0  0  0
  6 25  1  0  0  0  0
  7 12  1  0  0  0  0
  7 14  1  0  0  0  0
  7 26  1  0  0  0  0
  8 15  1  0  0  0  0
  8 19  2  0  0  0  0
  9 10  1  0  0  0  0
  9 11  1  0  0  0  0
  9 21  1  0  0  0  0
 10 12  1  0  0  0  0
 10 22  1  0  0  0  0
 10 23  1  0  0  0  0
 14 15  2  0  0  0  0
 14 16  1  0  0  0  0
 16 17  2  0  0  0  0
 16 27  1  0  0  0  0
 17 19  1  0  0  0  0
 17 28  1  0  0  0  0
 18 20  1  0  0  0  0
 18 29  1  0  0  0  0
 18 30  1  0  0  0  0
 19 31  1  0  0  0  0
 20 32  1  0  0  0  0
 20 33  1  0  0  0  0
 20 34  1  0  0  0  0
M  END
> <PUBCHEM_COMPOUND_CID>
47205753

> <PUBCHEM_COMPOUND_CANONICALIZED>
1

> <PUBCHEM_CACTVS_COMPLEXITY>
401

> <PUBCHEM_CACTVS_HBOND_ACCEPTOR>
5

> <PUBCHEM_CACTVS_HBOND_DONOR>
3

> <PUBCHEM_CACTVS_ROTATABLE_BOND>
5

> <PUBCHEM_CACTVS_SUBSKEYS>
AAADccBzuAAAAAAAAAAAAAAAAAAAAWAAAAAsAAAAAAAAAAABgAAAHgAQAAAACCjhkgY/xJLIFACoADV3VACCiCAxMiAI2KG9fJiOZvrE8bufOCjs1zPY6AaVEAAAAAAAAAAAAAAAAAAAAAAAAAAAAAAAAA==

> <PUBCHEM_IUPAC_OPENEYE_NAME>
2-(2,5-dioxoimidazolidin-4-yl)-N-(2-ethoxy-3-pyridyl)acetamide

> <PUBCHEM_IUPAC_CAS_NAME>
2-(2,5-dioxo-4-imidazolidinyl)-N-(2-ethoxy-3-pyridinyl)acetamide

> <PUBCHEM_IUPAC_NAME>
2-(2,5-dioxoimidazolidin-4-yl)-N-(2-ethoxypyridin-3-yl)acetamide

> <PUBCHEM_IUPAC_SYSTEMATIC_NAME>
2-[2,5-bis(oxidanylidene)imidazolidin-4-yl]-N-(2-ethoxypyridin-3-yl)ethanamide

> <PUBCHEM_IUPAC_TRADITIONAL_NAME>
2-(2,5-diketoimidazolidin-4-yl)-N-(2-ethoxy-3-pyridyl)acetamide

> <PUBCHEM_IUPAC_INCHI>
InChI=1S/C12H14N4O4/c1-2-20-11-7(4-3-5-13-11)14-9(17)6-8-10(18)16-12(19)15-8/h3-5,8H,2,6H2,1H3,(H,14,17)(H2,15,16,18,19)

> <PUBCHEM_IUPAC_INCHIKEY>
SFBVXKLAUMZQHU-UHFFFAOYSA-N

> <PUBCHEM_XLOGP3_AA>
-0.6

> <PUBCHEM_EXACT_MASS>
278.101505

> <PUBCHEM_MOLECULAR_FORMULA>
C12H14N4O4

> <PUBCHEM_MOLECULAR_WEIGHT>
278.26396

> <PUBCHEM_OPENEYE_CAN_SMILES>
CCOC1=C(C=CC=N1)NC(=O)CC2C(=O)NC(=O)N2

> <PUBCHEM_OPENEYE_ISO_SMILES>
CCOC1=C(C=CC=N1)NC(=O)CC2C(=O)NC(=O)N2

> <PUBCHEM_CACTVS_TPSA>
109

> <PUBCHEM_MONOISOTOPIC_WEIGHT>
278.101505

> <PUBCHEM_TOTAL_CHARGE>
0

> <PUBCHEM_HEAVY_ATOM_COUNT>
20

> <PUBCHEM_ATOM_DEF_STEREO_COUNT>
0

> <PUBCHEM_ATOM_UDEF_STEREO_COUNT>
1

> <PUBCHEM_BOND_DEF_STEREO_COUNT>
0

> <PUBCHEM_BOND_UDEF_STEREO_COUNT>
0

> <PUBCHEM_ISOTOPIC_ATOM_COUNT>
0

> <PUBCHEM_COMPONENT_COUNT>
1

> <PUBCHEM_CACTVS_TAUTO_COUNT>
24

> <PUBCHEM_COORDINATE_TYPE>
1
5
255

> <PUBCHEM_BONDANNOTATIONS>
14  15  8
14  16  8
16  17  8
17  19  8
8  15  8
8  19  8
9  10  3

$$$$

