11884
  -OEChem-06261206142D

 27 29  0     0  0  0  0  0  0999 V2000
    5.5321    0.0000    0.0000 C   0  0  0  0  0  0  0  0  0  0  0  0
    5.5321   -1.0000    0.0000 C   0  0  0  0  0  0  0  0  0  0  0  0
    3.8000    0.0000    0.0000 C   0  0  0  0  0  0  0  0  0  0  0  0
    3.8000   -1.0000    0.0000 C   0  0  0  0  0  0  0  0  0  0  0  0
    4.6660    0.5000    0.0000 C   0  0  0  0  0  0  0  0  0  0  0  0
    6.4260    0.5347    0.0000 C   0  0  0  0  0  0  0  0  0  0  0  0
    4.6660   -1.5000    0.0000 C   0  0  0  0  0  0  0  0  0  0  0  0
    6.4260   -1.5346    0.0000 C   0  0  0  0  0  0  0  0  0  0  0  0
    7.3321    0.0208    0.0000 C   0  0  0  0  0  0  0  0  0  0  0  0
    2.9061    0.5347    0.0000 C   0  0  0  0  0  0  0  0  0  0  0  0
    2.9061   -1.5346    0.0000 C   0  0  0  0  0  0  0  0  0  0  0  0
    7.3321   -1.0208    0.0000 C   0  0  0  0  0  0  0  0  0  0  0  0
    6.4144    1.5346    0.0000 C   0  0  0  0  0  0  0  0  0  0  0  0
    2.0000    0.0208    0.0000 C   0  0  0  0  0  0  0  0  0  0  0  0
    2.0000   -1.0208    0.0000 C   0  0  0  0  0  0  0  0  0  0  0  0
    4.6660    1.1200    0.0000 H   0  0  0  0  0  0  0  0  0  0  0  0
    4.6660   -2.1200    0.0000 H   0  0  0  0  0  0  0  0  0  0  0  0
    6.4188   -2.1546    0.0000 H   0  0  0  0  0  0  0  0  0  0  0  0
    7.8678    0.3329    0.0000 H   0  0  0  0  0  0  0  0  0  0  0  0
    2.9132    1.1546    0.0000 H   0  0  0  0  0  0  0  0  0  0  0  0
    2.9132   -2.1546    0.0000 H   0  0  0  0  0  0  0  0  0  0  0  0
    7.8678   -1.3328    0.0000 H   0  0  0  0  0  0  0  0  0  0  0  0
    7.0344    1.5418    0.0000 H   0  0  0  0  0  0  0  0  0  0  0  0
    6.4073    2.1546    0.0000 H   0  0  0  0  0  0  0  0  0  0  0  0
    5.7945    1.5275    0.0000 H   0  0  0  0  0  0  0  0  0  0  0  0
    1.4643    0.3329    0.0000 H   0  0  0  0  0  0  0  0  0  0  0  0
    1.4643   -1.3328    0.0000 H   0  0  0  0  0  0  0  0  0  0  0  0
  1  2  1  0  0  0  0
  1  5  2  0  0  0  0
  1  6  1  0  0  0  0
  2  7  2  0  0  0  0
  2  8  1  0  0  0  0
  3  4  1  0  0  0  0
  3  5  1  0  0  0  0
  3 10  2  0  0  0  0
  4  7  1  0  0  0  0
  4 11  2  0  0  0  0
  5 16  1  0  0  0  0
  6  9  2  0  0  0  0
  6 13  1  0  0  0  0
  7 17  1  0  0  0  0
  8 12  2  0  0  0  0
  8 18  1  0  0  0  0
  9 12  1  0  0  0  0
  9 19  1  0  0  0  0
 10 14  1  0  0  0  0
 10 20  1  0  0  0  0
 11 15  1  0  0  0  0
 11 21  1  0  0  0  0
 12 22  1  0  0  0  0
 13 23  1  0  0  0  0
 13 24  1  0  0  0  0
 13 25  1  0  0  0  0
 14 15  2  0  0  0  0
 14 26  1  0  0  0  0
 15 27  1  0  0  0  0
M  END
> <PUBCHEM_COMPOUND_CID>
11884

> <PUBCHEM_COMPOUND_CANONICALIZED>
1

> <PUBCHEM_CACTVS_COMPLEXITY>
220

> <PUBCHEM_CACTVS_HBOND_ACCEPTOR>
0

> <PUBCHEM_CACTVS_HBOND_DONOR>
0

> <PUBCHEM_CACTVS_ROTATABLE_BOND>
0

> <PUBCHEM_CACTVS_SUBSKEYS>
AAADccBwAAAAAAAAAAAAAAAAAAAAAAAAAAAwYMAAAAAAAADBVAAAGAAAAAAADACAGAAyAMAAAACAAiBCAAACAAAgAAAIiAAAAIgIICKAERCAIAAggAAIiAcAgMAOwAACAAAQAACAAAQAACAAAAAAAAAAAA==

> <PUBCHEM_IUPAC_OPENEYE_NAME>
1-methylanthracene

> <PUBCHEM_IUPAC_CAS_NAME>
1-methylanthracene

> <PUBCHEM_IUPAC_NAME>
1-methylanthracene

> <PUBCHEM_IUPAC_SYSTEMATIC_NAME>
1-methylanthracene

> <PUBCHEM_IUPAC_TRADITIONAL_NAME>
1-methylanthracene

> <PUBCHEM_IUPAC_INCHI>
InChI=1S/C15H12/c1-11-5-4-8-14-9-12-6-2-3-7-13(12)10-15(11)14/h2-10H,1H3

> <PUBCHEM_IUPAC_INCHIKEY>
KZNJSFHJUQDYHE-UHFFFAOYSA-N

> <PUBCHEM_XLOGP3>
5.1

> <PUBCHEM_EXACT_MASS>
192.0939

> <PUBCHEM_MOLECULAR_FORMULA>
C15H12

> <PUBCHEM_MOLECULAR_WEIGHT>
192.25578

> <PUBCHEM_OPENEYE_CAN_SMILES>
CC1=CC=CC2=CC3=CC=CC=C3C=C12

> <PUBCHEM_OPENEYE_ISO_SMILES>
CC1=CC=CC2=CC3=CC=CC=C3C=C12

> <PUBCHEM_CACTVS_TPSA>
0

> <PUBCHEM_MONOISOTOPIC_WEIGHT>
192.0939

> <PUBCHEM_TOTAL_CHARGE>
0

> <PUBCHEM_HEAVY_ATOM_COUNT>
15

> <PUBCHEM_ATOM_DEF_STEREO_COUNT>
0

> <PUBCHEM_ATOM_UDEF_STEREO_COUNT>
0

> <PUBCHEM_BOND_DEF_STEREO_COUNT>
0

> <PUBCHEM_BOND_UDEF_STEREO_COUNT>
0

> <PUBCHEM_ISOTOPIC_ATOM_COUNT>
0

> <PUBCHEM_COMPONENT_COUNT>
1

> <PUBCHEM_CACTVS_TAUTO_COUNT>
1

> <PUBCHEM_COORDINATE_TYPE>
1
5
255

> <PUBCHEM_BONDANNOTATIONS>
1  2  8
1  5  8
1  6  8
10  14  8
11  15  8
14  15  8
2  7  8
2  8  8
3  10  8
3  4  8
3  5  8
4  11  8
4  7  8
6  9  8
8  12  8
9  12  8

$$$$

