47205796
  -OEChem-06241223002D

 40 41  0     0  0  0  0  0  0999 V2000
    2.8090    1.3935    0.0000 S   0  0  0  0  0  0  0  0  0  0  0  0
    6.3518   -2.5493    0.0000 O   0  0  0  0  0  0  0  0  0  0  0  0
    6.4712    1.0542    0.0000 O   0  0  0  0  0  0  0  0  0  0  0  0
    3.4986   -1.6223    0.0000 O   0  0  0  0  0  0  0  0  0  0  0  0
    6.8870   -0.9020    0.0000 N   0  0  0  0  0  0  0  0  0  0  0  0
    4.7770    0.6941    0.0000 N   0  0  0  0  0  0  0  0  0  0  0  0
    8.0460   -2.1892    0.0000 C   0  0  0  0  0  0  0  0  0  0  0  0
    9.0241   -1.9813    0.0000 C   0  0  0  0  0  0  0  0  0  0  0  0
    8.7151   -2.9324    0.0000 C   0  0  0  0  0  0  0  0  0  0  0  0
    7.0949   -1.8802    0.0000 C   0  0  0  0  0  0  0  0  0  0  0  0
    5.9360   -0.5930    0.0000 C   0  0  0  0  0  0  0  0  0  0  0  0
    5.7281    0.3851    0.0000 C   0  0  0  0  0  0  0  0  0  0  0  0
    4.0339    0.0250    0.0000 C   0  0  0  0  0  0  0  0  0  0  0  0
    4.5691    1.6723    0.0000 C   0  0  0  0  0  0  0  0  0  0  0  0
    4.2418   -0.9531    0.0000 C   0  0  0  0  0  0  0  0  0  0  0  0
    3.6180    1.9813    0.0000 C   0  0  0  0  0  0  0  0  0  0  0  0
    3.3090    2.9324    0.0000 C   0  0  0  0  0  0  0  0  0  0  0  0
    2.3090    2.9324    0.0000 C   0  0  0  0  0  0  0  0  0  0  0  0
    2.0000    1.9813    0.0000 C   0  0  0  0  0  0  0  0  0  0  0  0
    3.7065   -2.6004    0.0000 C   0  0  0  0  0  0  0  0  0  0  0  0
    7.7083   -2.7092    0.0000 H   0  0  0  0  0  0  0  0  0  0  0  0
    8.3334   -3.4209    0.0000 H   0  0  0  0  0  0  0  0  0  0  0  0
    9.2625   -3.2234    0.0000 H   0  0  0  0  0  0  0  0  0  0  0  0
    9.6381   -2.0676    0.0000 H   0  0  0  0  0  0  0  0  0  0  0  0
    9.0025   -1.3617    0.0000 H   0  0  0  0  0  0  0  0  0  0  0  0
    7.3478   -0.4872    0.0000 H   0  0  0  0  0  0  0  0  0  0  0  0
    5.3164   -0.6147    0.0000 H   0  0  0  0  0  0  0  0  0  0  0  0
    5.8497   -1.2070    0.0000 H   0  0  0  0  0  0  0  0  0  0  0  0
    3.7053    0.5508    0.0000 H   0  0  0  0  0  0  0  0  0  0  0  0
    3.4590   -0.2073    0.0000 H   0  0  0  0  0  0  0  0  0  0  0  0
    5.1887    1.6939    0.0000 H   0  0  0  0  0  0  0  0  0  0  0  0
    4.6554    2.2862    0.0000 H   0  0  0  0  0  0  0  0  0  0  0  0
    4.5703   -1.4789    0.0000 H   0  0  0  0  0  0  0  0  0  0  0  0
    4.8166   -0.7209    0.0000 H   0  0  0  0  0  0  0  0  0  0  0  0
    3.6734    3.4340    0.0000 H   0  0  0  0  0  0  0  0  0  0  0  0
    1.9446    3.4340    0.0000 H   0  0  0  0  0  0  0  0  0  0  0  0
    1.4103    1.7897    0.0000 H   0  0  0  0  0  0  0  0  0  0  0  0
    3.1001   -2.7293    0.0000 H   0  0  0  0  0  0  0  0  0  0  0  0
    3.8354   -3.2069    0.0000 H   0  0  0  0  0  0  0  0  0  0  0  0
    4.3130   -2.4715    0.0000 H   0  0  0  0  0  0  0  0  0  0  0  0
  1 16  1  0  0  0  0
  1 19  1  0  0  0  0
  2 10  2  0  0  0  0
  3 12  2  0  0  0  0
  4 15  1  0  0  0  0
  4 20  1  0  0  0  0
  5 10  1  0  0  0  0
  5 11  1  0  0  0  0
  5 26  1  0  0  0  0
  6 12  1  0  0  0  0
  6 13  1  0  0  0  0
  6 14  1  0  0  0  0
  7  8  1  0  0  0  0
  7  9  1  0  0  0  0
  7 10  1  0  0  0  0
  7 21  1  0  0  0  0
  8  9  1  0  0  0  0
  8 24  1  0  0  0  0
  8 25  1  0  0  0  0
  9 22  1  0  0  0  0
  9 23  1  0  0  0  0
 11 12  1  0  0  0  0
 11 27  1  0  0  0  0
 11 28  1  0  0  0  0
 13 15  1  0  0  0  0
 13 29  1  0  0  0  0
 13 30  1  0  0  0  0
 14 16  1  0  0  0  0
 14 31  1  0  0  0  0
 14 32  1  0  0  0  0
 15 33  1  0  0  0  0
 15 34  1  0  0  0  0
 16 17  2  0  0  0  0
 17 18  1  0  0  0  0
 17 35  1  0  0  0  0
 18 19  2  0  0  0  0
 18 36  1  0  0  0  0
 19 37  1  0  0  0  0
 20 38  1  0  0  0  0
 20 39  1  0  0  0  0
 20 40  1  0  0  0  0
M  END
> <PUBCHEM_COMPOUND_CID>
47205796

> <PUBCHEM_COMPOUND_CANONICALIZED>
1

> <PUBCHEM_CACTVS_COMPLEXITY>
347

> <PUBCHEM_CACTVS_HBOND_ACCEPTOR>
4

> <PUBCHEM_CACTVS_HBOND_DONOR>
1

> <PUBCHEM_CACTVS_ROTATABLE_BOND>
8

> <PUBCHEM_CACTVS_SUBSKEYS>
AAADceBzMABAAAAAAAAAAAAAGAAAASAAAAAAAAAAAAAAAAABgAAAHgQQAAAADQDl0AayAYPABAiMACFSEACDAIAgCBBIiJmIBIgKYDKgkTGVAAhglgC4iAYQAAAAAAAAAAAAAAAAAAAAAAAAAAAAAAAAAA==

> <PUBCHEM_IUPAC_OPENEYE_NAME>
N-[2-[2-methoxyethyl(2-thienylmethyl)amino]-2-oxo-ethyl]cyclopropanecarboxamide

> <PUBCHEM_IUPAC_CAS_NAME>
N-[2-[2-methoxyethyl(thiophen-2-ylmethyl)amino]-2-oxoethyl]cyclopropanecarboxamide

> <PUBCHEM_IUPAC_NAME>
N-[2-[2-methoxyethyl(thiophen-2-ylmethyl)amino]-2-oxoethyl]cyclopropanecarboxamide

> <PUBCHEM_IUPAC_SYSTEMATIC_NAME>
N-[2-[2-methoxyethyl(thiophen-2-ylmethyl)amino]-2-oxidanylidene-ethyl]cyclopropanecarboxamide

> <PUBCHEM_IUPAC_TRADITIONAL_NAME>
N-[2-keto-2-[2-methoxyethyl(2-thenyl)amino]ethyl]cyclopropanecarboxamide

> <PUBCHEM_IUPAC_INCHI>
InChI=1S/C14H20N2O3S/c1-19-7-6-16(10-12-3-2-8-20-12)13(17)9-15-14(18)11-4-5-11/h2-3,8,11H,4-7,9-10H2,1H3,(H,15,18)

> <PUBCHEM_IUPAC_INCHIKEY>
OMIZWHOWUIYMTP-UHFFFAOYSA-N

> <PUBCHEM_XLOGP3_AA>
0.6

> <PUBCHEM_EXACT_MASS>
296.119464

> <PUBCHEM_MOLECULAR_FORMULA>
C14H20N2O3S

> <PUBCHEM_MOLECULAR_WEIGHT>
296.3852

> <PUBCHEM_OPENEYE_CAN_SMILES>
COCCN(CC1=CC=CS1)C(=O)CNC(=O)C2CC2

> <PUBCHEM_OPENEYE_ISO_SMILES>
COCCN(CC1=CC=CS1)C(=O)CNC(=O)C2CC2

> <PUBCHEM_CACTVS_TPSA>
86.9

> <PUBCHEM_MONOISOTOPIC_WEIGHT>
296.119464

> <PUBCHEM_TOTAL_CHARGE>
0

> <PUBCHEM_HEAVY_ATOM_COUNT>
20

> <PUBCHEM_ATOM_DEF_STEREO_COUNT>
0

> <PUBCHEM_ATOM_UDEF_STEREO_COUNT>
0

> <PUBCHEM_BOND_DEF_STEREO_COUNT>
0

> <PUBCHEM_BOND_UDEF_STEREO_COUNT>
0

> <PUBCHEM_ISOTOPIC_ATOM_COUNT>
0

> <PUBCHEM_COMPONENT_COUNT>
1

> <PUBCHEM_CACTVS_TAUTO_COUNT>
2

> <PUBCHEM_COORDINATE_TYPE>
1
5
255

> <PUBCHEM_BONDANNOTATIONS>
1  16  8
1  19  8
16  17  8
17  18  8
18  19  8

$$$$

