17395364
  -OEChem-06241222492D

 45 47  0     1  0  0  0  0  0999 V2000
    4.2512    2.4765    0.0000 S   0  0  0  0  0  0  0  0  0  0  0  0
    2.4341   -0.8900    0.0000 O   0  0  0  0  0  0  0  0  0  0  0  0
    5.9543   -0.8900    0.0000 O   0  0  0  0  0  0  0  0  0  0  0  0
    5.9262    0.3887    0.0000 O   0  0  0  0  0  0  0  0  0  0  0  0
    4.6942   -2.1501    0.0000 N   0  0  0  0  0  0  0  0  0  0  0  0
    4.1942   -0.6113    0.0000 N   0  0  0  0  0  0  0  0  0  0  0  0
    3.6942   -2.1501    0.0000 C   0  0  3  0  0  0  0  0  0  0  0  0
    2.7431   -2.4591    0.0000 C   0  0  0  0  0  0  0  0  0  0  0  0
    3.3852   -1.1991    0.0000 C   0  0  0  0  0  0  0  0  0  0  0  0
    3.6942   -3.1501    0.0000 C   0  0  0  0  0  0  0  0  0  0  0  0
    5.0032   -1.1991    0.0000 C   0  0  0  0  0  0  0  0  0  0  0  0
    4.1942    0.3887    0.0000 C   0  0  0  0  0  0  0  0  0  0  0  0
    2.0000   -1.7900    0.0000 C   0  0  0  0  0  0  0  0  0  0  0  0
    2.8282   -3.6501    0.0000 C   0  0  0  0  0  0  0  0  0  0  0  0
    4.5602   -3.6501    0.0000 C   0  0  0  0  0  0  0  0  0  0  0  0
    5.0602    0.8887    0.0000 C   0  0  0  0  0  0  0  0  0  0  0  0
    2.8282   -4.6501    0.0000 C   0  0  0  0  0  0  0  0  0  0  0  0
    4.5602   -4.6501    0.0000 C   0  0  0  0  0  0  0  0  0  0  0  0
    3.6942   -5.1501    0.0000 C   0  0  0  0  0  0  0  0  0  0  0  0
    5.0602    1.8887    0.0000 C   0  0  0  0  0  0  0  0  0  0  0  0
    5.8692    2.4765    0.0000 C   0  0  0  0  0  0  0  0  0  0  0  0
    4.5602    3.4276    0.0000 C   0  0  0  0  0  0  0  0  0  0  0  0
    5.5602    3.4276    0.0000 C   0  0  0  0  0  0  0  0  0  0  0  0
    3.9724    4.2366    0.0000 C   0  0  0  0  0  0  0  0  0  0  0  0
    4.3792    5.1501    0.0000 C   0  0  0  0  0  0  0  0  0  0  0  0
    2.2546   -2.8408    0.0000 H   0  0  0  0  0  0  0  0  0  0  0  0
    3.0342   -3.0066    0.0000 H   0  0  0  0  0  0  0  0  0  0  0  0
    5.0586   -2.6517    0.0000 H   0  0  0  0  0  0  0  0  0  0  0  0
    3.9822    0.9713    0.0000 H   0  0  0  0  0  0  0  0  0  0  0  0
    3.5836    0.2811    0.0000 H   0  0  0  0  0  0  0  0  0  0  0  0
    2.4149   -1.3293    0.0000 H   0  0  0  0  0  0  0  0  0  0  0  0
    1.5392   -1.3752    0.0000 H   0  0  0  0  0  0  0  0  0  0  0  0
    1.5851   -2.2508    0.0000 H   0  0  0  0  0  0  0  0  0  0  0  0
    2.2912   -3.3401    0.0000 H   0  0  0  0  0  0  0  0  0  0  0  0
    5.0972   -3.3401    0.0000 H   0  0  0  0  0  0  0  0  0  0  0  0
    2.2912   -4.9601    0.0000 H   0  0  0  0  0  0  0  0  0  0  0  0
    5.0972   -4.9601    0.0000 H   0  0  0  0  0  0  0  0  0  0  0  0
    3.6942   -5.7701    0.0000 H   0  0  0  0  0  0  0  0  0  0  0  0
    6.4589    2.2849    0.0000 H   0  0  0  0  0  0  0  0  0  0  0  0
    5.9246    3.9292    0.0000 H   0  0  0  0  0  0  0  0  0  0  0  0
    3.4584    4.5833    0.0000 H   0  0  0  0  0  0  0  0  0  0  0  0
    3.5418    3.7906    0.0000 H   0  0  0  0  0  0  0  0  0  0  0  0
    4.9456    4.8980    0.0000 H   0  0  0  0  0  0  0  0  0  0  0  0
    4.6314    5.7165    0.0000 H   0  0  0  0  0  0  0  0  0  0  0  0
    3.8128    5.4023    0.0000 H   0  0  0  0  0  0  0  0  0  0  0  0
  1 20  1  0  0  0  0
  1 22  1  0  0  0  0
  2  9  2  0  0  0  0
  3 11  2  0  0  0  0
  4 16  2  0  0  0  0
  5  7  1  0  0  0  0
  5 11  1  0  0  0  0
  5 28  1  0  0  0  0
  6  9  1  0  0  0  0
  6 11  1  0  0  0  0
  6 12  1  0  0  0  0
  7  8  1  0  0  0  0
  7  9  1  0  0  0  0
  7 10  1  0  0  0  0
  8 13  1  0  0  0  0
  8 26  1  0  0  0  0
  8 27  1  0  0  0  0
 10 14  2  0  0  0  0
 10 15  1  0  0  0  0
 12 16  1  0  0  0  0
 12 29  1  0  0  0  0
 12 30  1  0  0  0  0
 13 31  1  0  0  0  0
 13 32  1  0  0  0  0
 13 33  1  0  0  0  0
 14 17  1  0  0  0  0
 14 34  1  0  0  0  0
 15 18  2  0  0  0  0
 15 35  1  0  0  0  0
 16 20  1  0  0  0  0
 17 19  2  0  0  0  0
 17 36  1  0  0  0  0
 18 19  1  0  0  0  0
 18 37  1  0  0  0  0
 19 38  1  0  0  0  0
 20 21  2  0  0  0  0
 21 23  1  0  0  0  0
 21 39  1  0  0  0  0
 22 23  2  0  0  0  0
 22 24  1  0  0  0  0
 23 40  1  0  0  0  0
 24 25  1  0  0  0  0
 24 41  1  0  0  0  0
 24 42  1  0  0  0  0
 25 43  1  0  0  0  0
 25 44  1  0  0  0  0
 25 45  1  0  0  0  0
M  END
> <PUBCHEM_COMPOUND_CID>
17395364

> <PUBCHEM_COMPOUND_CANONICALIZED>
1

> <PUBCHEM_CACTVS_COMPLEXITY>
547

> <PUBCHEM_CACTVS_HBOND_ACCEPTOR>
4

> <PUBCHEM_CACTVS_HBOND_DONOR>
1

> <PUBCHEM_CACTVS_ROTATABLE_BOND>
6

> <PUBCHEM_CACTVS_SUBSKEYS>
AAADceB7MABAAAAAAAAAAAAAAAAAAWJAAAAwAAAAAAAAAAABwAAAHgQQAAAADIzB2AQzAYPAAAiMAqFSEACDAIAkCBBIiBmIBMiIYDKglTGUIQholyKoiYcYiMCOgAAAAAAAAAAAAAAAAAAAAAAAAAAAAA==

> <PUBCHEM_IUPAC_OPENEYE_NAME>
5-ethyl-3-[2-(5-ethyl-2-thienyl)-2-oxo-ethyl]-5-phenyl-imidazolidine-2,4-dione

> <PUBCHEM_IUPAC_CAS_NAME>
5-ethyl-3-[2-(5-ethyl-2-thiophenyl)-2-oxoethyl]-5-phenylimidazolidine-2,4-dione

> <PUBCHEM_IUPAC_NAME>
5-ethyl-3-[2-(5-ethylthiophen-2-yl)-2-oxoethyl]-5-phenylimidazolidine-2,4-dione

> <PUBCHEM_IUPAC_SYSTEMATIC_NAME>
5-ethyl-3-[2-(5-ethylthiophen-2-yl)-2-oxidanylidene-ethyl]-5-phenyl-imidazolidine-2,4-dione

> <PUBCHEM_IUPAC_TRADITIONAL_NAME>
5-ethyl-3-[2-(5-ethyl-2-thienyl)-2-keto-ethyl]-5-phenyl-hydantoin

> <PUBCHEM_IUPAC_INCHI>
InChI=1S/C19H20N2O3S/c1-3-14-10-11-16(25-14)15(22)12-21-17(23)19(4-2,20-18(21)24)13-8-6-5-7-9-13/h5-11H,3-4,12H2,1-2H3,(H,20,24)

> <PUBCHEM_IUPAC_INCHIKEY>
KZZHLTNQKANFAY-UHFFFAOYSA-N

> <PUBCHEM_XLOGP3_AA>
3.8

> <PUBCHEM_EXACT_MASS>
356.119464

> <PUBCHEM_MOLECULAR_FORMULA>
C19H20N2O3S

> <PUBCHEM_MOLECULAR_WEIGHT>
356.4387

> <PUBCHEM_OPENEYE_CAN_SMILES>
CCC1=CC=C(S1)C(=O)CN2C(=O)C(NC2=O)(CC)C3=CC=CC=C3

> <PUBCHEM_OPENEYE_ISO_SMILES>
CCC1=CC=C(S1)C(=O)CN2C(=O)C(NC2=O)(CC)C3=CC=CC=C3

> <PUBCHEM_CACTVS_TPSA>
94.7

> <PUBCHEM_MONOISOTOPIC_WEIGHT>
356.119464

> <PUBCHEM_TOTAL_CHARGE>
0

> <PUBCHEM_HEAVY_ATOM_COUNT>
25

> <PUBCHEM_ATOM_DEF_STEREO_COUNT>
0

> <PUBCHEM_ATOM_UDEF_STEREO_COUNT>
1

> <PUBCHEM_BOND_DEF_STEREO_COUNT>
0

> <PUBCHEM_BOND_UDEF_STEREO_COUNT>
0

> <PUBCHEM_ISOTOPIC_ATOM_COUNT>
0

> <PUBCHEM_COMPONENT_COUNT>
1

> <PUBCHEM_CACTVS_TAUTO_COUNT>
14

> <PUBCHEM_COORDINATE_TYPE>
1
5
255

> <PUBCHEM_BONDANNOTATIONS>
1  20  8
1  22  8
10  14  8
10  15  8
14  17  8
15  18  8
17  19  8
18  19  8
20  21  8
21  23  8
22  23  8
7  8  3

$$$$

