582774
  -OEChem-06241222442D

 65 67  0     1  0  0  0  0  0999 V2000
    7.6138   -2.4179    0.0000 O   0  0  0  0  0  0  0  0  0  0  0  0
    7.9244   -1.4674    0.0000 O   0  0  0  0  0  0  0  0  0  0  0  0
    6.3246   -3.5746    0.0000 O   0  0  0  0  0  0  0  0  0  0  0  0
    8.9030   -1.2611    0.0000 O   0  0  0  0  0  0  0  0  0  0  0  0
    8.1421    4.7739    0.0000 O   0  0  0  0  0  0  0  0  0  0  0  0
    6.2781   -0.9293    0.0000 N   0  0  0  0  0  0  0  0  0  0  0  0
    4.6783   -4.6460    0.0000 N   0  0  0  0  0  0  0  0  0  0  0  0
    8.5458    0.4337    0.0000 N   0  0  0  0  0  0  0  0  0  0  0  0
    5.9674   -1.8798    0.0000 C   0  0  3  0  0  0  0  0  0  0  0  0
    4.9889   -2.0860    0.0000 C   0  0  0  0  0  0  0  0  0  0  0  0
    4.6783   -3.0365    0.0000 C   0  0  0  0  0  0  0  0  0  0  0  0
    7.5673    0.2275    0.0000 C   0  0  3  0  0  0  0  0  0  0  0  0
    3.7320   -3.3413    0.0000 C   0  0  0  0  0  0  0  0  0  0  0  0
    6.8994    0.9718    0.0000 C   0  0  0  0  0  0  0  0  0  0  0  0
    7.2566   -0.7231    0.0000 C   0  0  0  0  0  0  0  0  0  0  0  0
    3.7320   -4.3413    0.0000 C   0  0  0  0  0  0  0  0  0  0  0  0
    5.2619   -3.8413    0.0000 C   0  0  0  0  0  0  0  0  0  0  0  0
    6.6353   -2.6241    0.0000 C   0  0  0  0  0  0  0  0  0  0  0  0
    2.8660   -2.8413    0.0000 C   0  0  0  0  0  0  0  0  0  0  0  0
    7.2101    1.9223    0.0000 C   0  0  0  0  0  0  0  0  0  0  0  0
    2.8660   -4.8413    0.0000 C   0  0  0  0  0  0  0  0  0  0  0  0
    8.2816   -3.1622    0.0000 C   0  0  0  0  0  0  0  0  0  0  0  0
    2.0000   -3.3413    0.0000 C   0  0  0  0  0  0  0  0  0  0  0  0
    2.0000   -4.3413    0.0000 C   0  0  0  0  0  0  0  0  0  0  0  0
    9.2601   -2.9560    0.0000 C   0  0  0  0  0  0  0  0  0  0  0  0
    8.1886    2.1285    0.0000 C   0  0  0  0  0  0  0  0  0  0  0  0
    6.5422    2.6666    0.0000 C   0  0  0  0  0  0  0  0  0  0  0  0
    9.2136   -0.3106    0.0000 C   0  0  0  0  0  0  0  0  0  0  0  0
    9.9280   -3.7003    0.0000 C   0  0  0  0  0  0  0  0  0  0  0  0
    8.4993    3.0790    0.0000 C   0  0  0  0  0  0  0  0  0  0  0  0
    6.8529    3.6171    0.0000 C   0  0  0  0  0  0  0  0  0  0  0  0
    7.8314    3.8233    0.0000 C   0  0  0  0  0  0  0  0  0  0  0  0
   10.1921   -0.1044    0.0000 C   0  0  0  0  0  0  0  0  0  0  0  0
   10.9065   -3.4940    0.0000 C   0  0  0  0  0  0  0  0  0  0  0  0
    6.5741   -1.7519    0.0000 H   0  0  0  0  0  0  0  0  0  0  0  0
    4.9684   -1.4664    0.0000 H   0  0  0  0  0  0  0  0  0  0  0  0
    4.3751   -1.9987    0.0000 H   0  0  0  0  0  0  0  0  0  0  0  0
    7.9813   -0.2340    0.0000 H   0  0  0  0  0  0  0  0  0  0  0  0
    5.8640   -0.4678    0.0000 H   0  0  0  0  0  0  0  0  0  0  0  0
    6.3525    1.2638    0.0000 H   0  0  0  0  0  0  0  0  0  0  0  0
    6.5169    0.4839    0.0000 H   0  0  0  0  0  0  0  0  0  0  0  0
    5.8819   -3.8413    0.0000 H   0  0  0  0  0  0  0  0  0  0  0  0
    4.8709   -5.2353    0.0000 H   0  0  0  0  0  0  0  0  0  0  0  0
    2.8660   -2.2213    0.0000 H   0  0  0  0  0  0  0  0  0  0  0  0
    8.7384    1.0230    0.0000 H   0  0  0  0  0  0  0  0  0  0  0  0
    2.8660   -5.4613    0.0000 H   0  0  0  0  0  0  0  0  0  0  0  0
    7.7553   -3.4898    0.0000 H   0  0  0  0  0  0  0  0  0  0  0  0
    8.5129   -3.7374    0.0000 H   0  0  0  0  0  0  0  0  0  0  0  0
    1.4631   -3.0313    0.0000 H   0  0  0  0  0  0  0  0  0  0  0  0
    9.7865   -2.6283    0.0000 H   0  0  0  0  0  0  0  0  0  0  0  0
    9.0289   -2.3807    0.0000 H   0  0  0  0  0  0  0  0  0  0  0  0
    1.4631   -4.6513    0.0000 H   0  0  0  0  0  0  0  0  0  0  0  0
    8.6027    1.6670    0.0000 H   0  0  0  0  0  0  0  0  0  0  0  0
    5.9356    2.5387    0.0000 H   0  0  0  0  0  0  0  0  0  0  0  0
    9.4016   -4.0279    0.0000 H   0  0  0  0  0  0  0  0  0  0  0  0
   10.1592   -4.2755    0.0000 H   0  0  0  0  0  0  0  0  0  0  0  0
    9.1059    3.2069    0.0000 H   0  0  0  0  0  0  0  0  0  0  0  0
    6.4388    4.0786    0.0000 H   0  0  0  0  0  0  0  0  0  0  0  0
   10.3200   -0.7111    0.0000 H   0  0  0  0  0  0  0  0  0  0  0  0
   10.7988    0.0235    0.0000 H   0  0  0  0  0  0  0  0  0  0  0  0
   10.0643    0.5023    0.0000 H   0  0  0  0  0  0  0  0  0  0  0  0
   11.0343   -4.1007    0.0000 H   0  0  0  0  0  0  0  0  0  0  0  0
   11.5132   -3.3662    0.0000 H   0  0  0  0  0  0  0  0  0  0  0  0
   10.7786   -2.8874    0.0000 H   0  0  0  0  0  0  0  0  0  0  0  0
    7.7280    5.2353    0.0000 H   0  0  0  0  0  0  0  0  0  0  0  0
  1 18  1  0  0  0  0
  1 22  1  0  0  0  0
  2 15  2  0  0  0  0
  3 18  2  0  0  0  0
  4 28  2  0  0  0  0
  5 32  1  0  0  0  0
  5 65  1  0  0  0  0
  6  9  1  0  0  0  0
  6 15  1  0  0  0  0
  6 39  1  0  0  0  0
  7 16  1  0  0  0  0
  7 17  1  0  0  0  0
  7 43  1  0  0  0  0
  8 12  1  0  0  0  0
  8 28  1  0  0  0  0
  8 45  1  0  0  0  0
  9 10  1  0  0  0  0
  9 18  1  0  0  0  0
  9 35  1  0  0  0  0
 10 11  1  0  0  0  0
 10 36  1  0  0  0  0
 10 37  1  0  0  0  0
 11 13  1  0  0  0  0
 11 17  2  0  0  0  0
 12 14  1  0  0  0  0
 12 15  1  0  0  0  0
 12 38  1  0  0  0  0
 13 16  1  0  0  0  0
 13 19  2  0  0  0  0
 14 20  1  0  0  0  0
 14 40  1  0  0  0  0
 14 41  1  0  0  0  0
 16 21  2  0  0  0  0
 17 42  1  0  0  0  0
 19 23  1  0  0  0  0
 19 44  1  0  0  0  0
 20 26  2  0  0  0  0
 20 27  1  0  0  0  0
 21 24  1  0  0  0  0
 21 46  1  0  0  0  0
 22 25  1  0  0  0  0
 22 47  1  0  0  0  0
 22 48  1  0  0  0  0
 23 24  2  0  0  0  0
 23 49  1  0  0  0  0
 24 52  1  0  0  0  0
 25 29  1  0  0  0  0
 25 50  1  0  0  0  0
 25 51  1  0  0  0  0
 26 30  1  0  0  0  0
 26 53  1  0  0  0  0
 27 31  2  0  0  0  0
 27 54  1  0  0  0  0
 28 33  1  0  0  0  0
 29 34  1  0  0  0  0
 29 55  1  0  0  0  0
 29 56  1  0  0  0  0
 30 32  2  0  0  0  0
 30 57  1  0  0  0  0
 31 32  1  0  0  0  0
 31 58  1  0  0  0  0
 33 59  1  0  0  0  0
 33 60  1  0  0  0  0
 33 61  1  0  0  0  0
 34 62  1  0  0  0  0
 34 63  1  0  0  0  0
 34 64  1  0  0  0  0
M  END
> <PUBCHEM_COMPOUND_CID>
582774

> <PUBCHEM_COMPOUND_CANONICALIZED>
1

> <PUBCHEM_CACTVS_COMPLEXITY>
679

> <PUBCHEM_CACTVS_HBOND_ACCEPTOR>
5

> <PUBCHEM_CACTVS_HBOND_DONOR>
4

> <PUBCHEM_CACTVS_ROTATABLE_BOND>
12

> <PUBCHEM_CACTVS_SUBSKEYS>
AAADceB7OAAAAAAAAAAAAAAAAAAAAWAAAAAwYAAAAAAAAFgB9AAAHgAQCAAADCzhngY+zvLJlgCoAzX3XACCgCAxIiAI2aG+bJgKZvLCkbOXcAhk1hHY2AeY2fKOoAAAAAACAABAAAAAAAQAAAAAAAAAAA==

> <PUBCHEM_IUPAC_OPENEYE_NAME>
butyl 2-[[2-acetamido-3-(4-hydroxyphenyl)propanoyl]amino]-3-(1H-indol-3-yl)propanoate

> <PUBCHEM_IUPAC_CAS_NAME>
2-[[2-acetamido-3-(4-hydroxyphenyl)-1-oxopropyl]amino]-3-(1H-indol-3-yl)propanoic acid butyl ester

> <PUBCHEM_IUPAC_NAME>
butyl 2-[[2-acetamido-3-(4-hydroxyphenyl)propanoyl]amino]-3-(1H-indol-3-yl)propanoate

> <PUBCHEM_IUPAC_SYSTEMATIC_NAME>
butyl 2-[[2-acetamido-3-(4-hydroxyphenyl)propanoyl]amino]-3-(1H-indol-3-yl)propanoate

> <PUBCHEM_IUPAC_TRADITIONAL_NAME>
2-[[2-acetamido-3-(4-hydroxyphenyl)propanoyl]amino]-3-(1H-indol-3-yl)propionic acid butyl ester

> <PUBCHEM_IUPAC_INCHI>
InChI=1S/C26H31N3O5/c1-3-4-13-34-26(33)24(15-19-16-27-22-8-6-5-7-21(19)22)29-25(32)23(28-17(2)30)14-18-9-11-20(31)12-10-18/h5-12,16,23-24,27,31H,3-4,13-15H2,1-2H3,(H,28,30)(H,29,32)

> <PUBCHEM_IUPAC_INCHIKEY>
YFHMKLGJIARALN-UHFFFAOYSA-N

> <PUBCHEM_XLOGP3>
3

> <PUBCHEM_EXACT_MASS>
465.226371

> <PUBCHEM_MOLECULAR_FORMULA>
C26H31N3O5

> <PUBCHEM_MOLECULAR_WEIGHT>
465.54144

> <PUBCHEM_OPENEYE_CAN_SMILES>
CCCCOC(=O)C(CC1=CNC2=CC=CC=C21)NC(=O)C(CC3=CC=C(C=C3)O)NC(=O)C

> <PUBCHEM_OPENEYE_ISO_SMILES>
CCCCOC(=O)C(CC1=CNC2=CC=CC=C21)NC(=O)C(CC3=CC=C(C=C3)O)NC(=O)C

> <PUBCHEM_CACTVS_TPSA>
121

> <PUBCHEM_MONOISOTOPIC_WEIGHT>
465.226371

> <PUBCHEM_TOTAL_CHARGE>
0

> <PUBCHEM_HEAVY_ATOM_COUNT>
34

> <PUBCHEM_ATOM_DEF_STEREO_COUNT>
0

> <PUBCHEM_ATOM_UDEF_STEREO_COUNT>
2

> <PUBCHEM_BOND_DEF_STEREO_COUNT>
0

> <PUBCHEM_BOND_UDEF_STEREO_COUNT>
0

> <PUBCHEM_ISOTOPIC_ATOM_COUNT>
0

> <PUBCHEM_COMPONENT_COUNT>
1

> <PUBCHEM_CACTVS_TAUTO_COUNT>
8

> <PUBCHEM_COORDINATE_TYPE>
1
5
255

> <PUBCHEM_BONDANNOTATIONS>
11  13  8
11  17  8
12  14  3
13  16  8
13  19  8
16  21  8
19  23  8
20  26  8
20  27  8
21  24  8
23  24  8
26  30  8
27  31  8
30  32  8
31  32  8
7  16  8
7  17  8
9  10  3

$$$$

