3738
  -OEChem-06251223372D

115116  0     1  0  0  0  0  0999 V2000
    5.1350    3.5950    0.0000 I   0  0  0  0  0  0  0  0  0  0  0  0
   10.3312   -5.4050    0.0000 I   0  0  0  0  0  0  0  0  0  0  0  0
    6.8671    0.5950    0.0000 I   0  0  0  0  0  0  0  0  0  0  0  0
   12.0632   -2.4050    0.0000 I   0  0  0  0  0  0  0  0  0  0  0  0
    8.5991    3.5950    0.0000 I   0  0  0  0  0  0  0  0  0  0  0  0
    8.5991   -2.4050    0.0000 I   0  0  0  0  0  0  0  0  0  0  0  0
    9.4651    6.0950    0.0000 O   0  0  0  0  0  0  0  0  0  0  0  0
    8.5991   -7.4050    0.0000 O   0  0  0  0  0  0  0  0  0  0  0  0
    5.1350   -1.4050    0.0000 O   0  0  0  0  0  0  0  0  0  0  0  0
   12.0632   -7.4050    0.0000 O   0  0  0  0  0  0  0  0  0  0  0  0
    6.0010   -5.9050    0.0000 O   0  0  0  0  0  0  0  0  0  0  0  0
    6.8671    7.5950    0.0000 O   0  0  0  0  0  0  0  0  0  0  0  0
   14.6613   -5.9050    0.0000 O   0  0  0  0  0  0  0  0  0  0  0  0
    2.5369    0.0950    0.0000 O   0  0  0  0  0  0  0  0  0  0  0  0
    9.4651    8.0950    0.0000 O   0  0  0  0  0  0  0  0  0  0  0  0
    6.8671   -8.4050    0.0000 O   0  0  0  0  0  0  0  0  0  0  0  0
    3.4030   -2.4050    0.0000 O   0  0  0  0  0  0  0  0  0  0  0  0
   13.7953   -8.4050    0.0000 O   0  0  0  0  0  0  0  0  0  0  0  0
    6.0010    5.0950    0.0000 O   0  0  0  0  0  0  0  0  0  0  0  0
    7.7331   -3.9050    0.0000 O   0  0  0  0  0  0  0  0  0  0  0  0
    4.2690    2.0950    0.0000 O   0  0  0  0  0  0  0  0  0  0  0  0
   12.9292   -3.9050    0.0000 O   0  0  0  0  0  0  0  0  0  0  0  0
    7.7331    0.0950    0.0000 O   0  0  0  0  0  0  0  0  0  0  0  0
    8.5991   -1.4050    0.0000 O   0  0  0  0  0  0  0  0  0  0  0  0
    8.5991   -5.4050    0.0000 N   0  0  0  0  0  0  0  0  0  0  0  0
    7.7331    5.0950    0.0000 N   0  0  0  0  0  0  0  0  0  0  0  0
   12.0632   -5.4050    0.0000 N   0  0  0  0  0  0  0  0  0  0  0  0
    5.1350    0.5950    0.0000 N   0  0  0  0  0  0  0  0  0  0  0  0
    8.5991    1.5950    0.0000 N   0  0  0  0  0  0  0  0  0  0  0  0
   10.3312   -1.4050    0.0000 N   0  0  0  0  0  0  0  0  0  0  0  0
    7.7331    6.0950    0.0000 C   0  0  3  0  0  0  0  0  0  0  0  0
    7.7331   -5.9050    0.0000 C   0  0  3  0  0  0  0  0  0  0  0  0
    4.2690    0.0950    0.0000 C   0  0  3  0  0  0  0  0  0  0  0  0
   12.9292   -5.9050    0.0000 C   0  0  3  0  0  0  0  0  0  0  0  0
    8.5991    6.5950    0.0000 C   0  0  3  0  0  0  0  0  0  0  0  0
    7.7331   -6.9050    0.0000 C   0  0  3  0  0  0  0  0  0  0  0  0
    4.2690   -0.9050    0.0000 C   0  0  3  0  0  0  0  0  0  0  0  0
   12.9292   -6.9050    0.0000 C   0  0  3  0  0  0  0  0  0  0  0  0
    6.8671   -5.4050    0.0000 C   0  0  0  0  0  0  0  0  0  0  0  0
    6.8671    6.5950    0.0000 C   0  0  0  0  0  0  0  0  0  0  0  0
   13.7953   -5.4050    0.0000 C   0  0  0  0  0  0  0  0  0  0  0  0
    3.4030    0.5950    0.0000 C   0  0  0  0  0  0  0  0  0  0  0  0
    6.8671    3.5950    0.0000 C   0  0  0  0  0  0  0  0  0  0  0  0
    9.4651   -3.9050    0.0000 C   0  0  0  0  0  0  0  0  0  0  0  0
    6.0010    2.0950    0.0000 C   0  0  0  0  0  0  0  0  0  0  0  0
   11.1972   -3.9050    0.0000 C   0  0  0  0  0  0  0  0  0  0  0  0
    7.7331    2.0950    0.0000 C   0  0  0  0  0  0  0  0  0  0  0  0
   10.3312   -2.4050    0.0000 C   0  0  0  0  0  0  0  0  0  0  0  0
    6.8671    4.5950    0.0000 C   0  0  0  0  0  0  0  0  0  0  0  0
    8.5991   -4.4050    0.0000 C   0  0  0  0  0  0  0  0  0  0  0  0
    5.1350    1.5950    0.0000 C   0  0  0  0  0  0  0  0  0  0  0  0
   12.0632   -4.4050    0.0000 C   0  0  0  0  0  0  0  0  0  0  0  0
    8.5991    7.5950    0.0000 C   0  0  0  0  0  0  0  0  0  0  0  0
    6.8671   -7.4050    0.0000 C   0  0  0  0  0  0  0  0  0  0  0  0
    3.4030   -1.4050    0.0000 C   0  0  0  0  0  0  0  0  0  0  0  0
   13.7953   -7.4050    0.0000 C   0  0  0  0  0  0  0  0  0  0  0  0
    6.0010    3.0950    0.0000 C   0  0  0  0  0  0  0  0  0  0  0  0
   10.3312   -4.4050    0.0000 C   0  0  0  0  0  0  0  0  0  0  0  0
    6.8671    1.5950    0.0000 C   0  0  0  0  0  0  0  0  0  0  0  0
   11.1972   -2.9050    0.0000 C   0  0  0  0  0  0  0  0  0  0  0  0
    7.7331    3.0950    0.0000 C   0  0  0  0  0  0  0  0  0  0  0  0
    9.4651   -2.9050    0.0000 C   0  0  0  0  0  0  0  0  0  0  0  0
    9.4651    0.0950    0.0000 C   0  0  0  0  0  0  0  0  0  0  0  0
    8.5991    0.5950    0.0000 C   0  0  0  0  0  0  0  0  0  0  0  0
    9.4651   -0.9050    0.0000 C   0  0  0  0  0  0  0  0  0  0  0  0
    9.4651    2.0950    0.0000 C   0  0  0  0  0  0  0  0  0  0  0  0
   11.1972   -0.9050    0.0000 C   0  0  0  0  0  0  0  0  0  0  0  0
    8.4692    5.6700    0.0000 H   0  0  0  0  0  0  0  0  0  0  0  0
    7.7331   -5.0550    0.0000 H   0  0  0  0  0  0  0  0  0  0  0  0
    4.2690    0.9450    0.0000 H   0  0  0  0  0  0  0  0  0  0  0  0
   12.1931   -6.3300    0.0000 H   0  0  0  0  0  0  0  0  0  0  0  0
    7.7331   -7.7550    0.0000 H   0  0  0  0  0  0  0  0  0  0  0  0
    8.5991    5.7450    0.0000 H   0  0  0  0  0  0  0  0  0  0  0  0
   12.1931   -6.4800    0.0000 H   0  0  0  0  0  0  0  0  0  0  0  0
    4.2690   -1.7550    0.0000 H   0  0  0  0  0  0  0  0  0  0  0  0
    8.2700    4.7850    0.0000 H   0  0  0  0  0  0  0  0  0  0  0  0
    9.1360   -5.7150    0.0000 H   0  0  0  0  0  0  0  0  0  0  0  0
    5.6720    0.2850    0.0000 H   0  0  0  0  0  0  0  0  0  0  0  0
   11.5263   -5.7150    0.0000 H   0  0  0  0  0  0  0  0  0  0  0  0
    7.2656   -4.9300    0.0000 H   0  0  0  0  0  0  0  0  0  0  0  0
    6.4685   -4.9300    0.0000 H   0  0  0  0  0  0  0  0  0  0  0  0
    6.2565    6.7027    0.0000 H   0  0  0  0  0  0  0  0  0  0  0  0
    6.6550    6.0124    0.0000 H   0  0  0  0  0  0  0  0  0  0  0  0
   14.1938   -4.9300    0.0000 H   0  0  0  0  0  0  0  0  0  0  0  0
   13.3967   -4.9300    0.0000 H   0  0  0  0  0  0  0  0  0  0  0  0
    3.8015    1.0700    0.0000 H   0  0  0  0  0  0  0  0  0  0  0  0
    3.0044    1.0700    0.0000 H   0  0  0  0  0  0  0  0  0  0  0  0
    6.6550   -6.8224    0.0000 H   0  0  0  0  0  0  0  0  0  0  0  0
    6.2565   -7.5127    0.0000 H   0  0  0  0  0  0  0  0  0  0  0  0
    8.3871    8.1776    0.0000 H   0  0  0  0  0  0  0  0  0  0  0  0
    7.9885    7.4873    0.0000 H   0  0  0  0  0  0  0  0  0  0  0  0
   14.4058   -7.5127    0.0000 H   0  0  0  0  0  0  0  0  0  0  0  0
   14.0073   -6.8224    0.0000 H   0  0  0  0  0  0  0  0  0  0  0  0
    3.1909   -0.8224    0.0000 H   0  0  0  0  0  0  0  0  0  0  0  0
    2.7924   -1.5127    0.0000 H   0  0  0  0  0  0  0  0  0  0  0  0
   10.0757   -0.0127    0.0000 H   0  0  0  0  0  0  0  0  0  0  0  0
    9.6772    0.6776    0.0000 H   0  0  0  0  0  0  0  0  0  0  0  0
   10.0021    6.4050    0.0000 H   0  0  0  0  0  0  0  0  0  0  0  0
    8.5991   -8.0250    0.0000 H   0  0  0  0  0  0  0  0  0  0  0  0
    5.1350   -2.0250    0.0000 H   0  0  0  0  0  0  0  0  0  0  0  0
   12.0632   -8.0250    0.0000 H   0  0  0  0  0  0  0  0  0  0  0  0
    9.7751    1.5581    0.0000 H   0  0  0  0  0  0  0  0  0  0  0  0
   10.0021    2.4050    0.0000 H   0  0  0  0  0  0  0  0  0  0  0  0
    9.1551    2.6319    0.0000 H   0  0  0  0  0  0  0  0  0  0  0  0
   11.5072   -1.4419    0.0000 H   0  0  0  0  0  0  0  0  0  0  0  0
   11.7341   -0.5950    0.0000 H   0  0  0  0  0  0  0  0  0  0  0  0
   10.8872   -0.3681    0.0000 H   0  0  0  0  0  0  0  0  0  0  0  0
    6.3301    7.9050    0.0000 H   0  0  0  0  0  0  0  0  0  0  0  0
    5.4641   -5.5950    0.0000 H   0  0  0  0  0  0  0  0  0  0  0  0
    2.0000    0.4050    0.0000 H   0  0  0  0  0  0  0  0  0  0  0  0
   15.1982   -5.5950    0.0000 H   0  0  0  0  0  0  0  0  0  0  0  0
    6.3301   -8.7150    0.0000 H   0  0  0  0  0  0  0  0  0  0  0  0
    9.4651    8.7150    0.0000 H   0  0  0  0  0  0  0  0  0  0  0  0
   14.3322   -8.7150    0.0000 H   0  0  0  0  0  0  0  0  0  0  0  0
    2.8660   -2.7150    0.0000 H   0  0  0  0  0  0  0  0  0  0  0  0
  1 57  1  0  0  0  0
  2 58  1  0  0  0  0
  3 59  1  0  0  0  0
  4 60  1  0  0  0  0
  5 61  1  0  0  0  0
  6 62  1  0  0  0  0
  7 35  1  0  0  0  0
  7 98  1  0  0  0  0
  8 36  1  0  0  0  0
  8 99  1  0  0  0  0
  9 37  1  0  0  0  0
  9100  1  0  0  0  0
 10 38  1  0  0  0  0
 10101  1  0  0  0  0
 11 39  1  0  0  0  0
 11109  1  0  0  0  0
 12 40  1  0  0  0  0
 12108  1  0  0  0  0
 13 41  1  0  0  0  0
 13111  1  0  0  0  0
 14 42  1  0  0  0  0
 14110  1  0  0  0  0
 15 53  1  0  0  0  0
 15113  1  0  0  0  0
 16 54  1  0  0  0  0
 16112  1  0  0  0  0
 17 55  1  0  0  0  0
 17115  1  0  0  0  0
 18 56  1  0  0  0  0
 18114  1  0  0  0  0
 19 49  2  0  0  0  0
 20 50  2  0  0  0  0
 21 51  2  0  0  0  0
 22 52  2  0  0  0  0
 23 64  2  0  0  0  0
 24 65  2  0  0  0  0
 25 32  1  0  0  0  0
 25 50  1  0  0  0  0
 25 77  1  0  0  0  0
 26 31  1  0  0  0  0
 26 49  1  0  0  0  0
 26 76  1  0  0  0  0
 27 34  1  0  0  0  0
 27 52  1  0  0  0  0
 27 79  1  0  0  0  0
 28 33  1  0  0  0  0
 28 51  1  0  0  0  0
 28 78  1  0  0  0  0
 29 47  1  0  0  0  0
 29 64  1  0  0  0  0
 29 66  1  0  0  0  0
 30 48  1  0  0  0  0
 30 65  1  0  0  0  0
 30 67  1  0  0  0  0
 31 35  1  0  0  0  0
 31 40  1  0  0  0  0
 31 68  1  0  0  0  0
 32 36  1  0  0  0  0
 32 39  1  0  0  0  0
 32 69  1  0  0  0  0
 33 37  1  0  0  0  0
 33 42  1  0  0  0  0
 33 70  1  0  0  0  0
 34 38  1  0  0  0  0
 34 41  1  0  0  0  0
 34 71  1  0  0  0  0
 35 53  1  0  0  0  0
 35 73  1  0  0  0  0
 36 54  1  0  0  0  0
 36 72  1  0  0  0  0
 37 55  1  0  0  0  0
 37 75  1  0  0  0  0
 38 56  1  0  0  0  0
 38 74  1  0  0  0  0
 39 80  1  0  0  0  0
 39 81  1  0  0  0  0
 40 82  1  0  0  0  0
 40 83  1  0  0  0  0
 41 84  1  0  0  0  0
 41 85  1  0  0  0  0
 42 86  1  0  0  0  0
 42 87  1  0  0  0  0
 43 49  1  0  0  0  0
 43 57  2  0  0  0  0
 43 61  1  0  0  0  0
 44 50  1  0  0  0  0
 44 58  2  0  0  0  0
 44 62  1  0  0  0  0
 45 51  1  0  0  0  0
 45 57  1  0  0  0  0
 45 59  2  0  0  0  0
 46 52  1  0  0  0  0
 46 58  1  0  0  0  0
 46 60  2  0  0  0  0
 47 59  1  0  0  0  0
 47 61  2  0  0  0  0
 48 60  1  0  0  0  0
 48 62  2  0  0  0  0
 53 90  1  0  0  0  0
 53 91  1  0  0  0  0
 54 88  1  0  0  0  0
 54 89  1  0  0  0  0
 55 94  1  0  0  0  0
 55 95  1  0  0  0  0
 56 92  1  0  0  0  0
 56 93  1  0  0  0  0
 63 64  1  0  0  0  0
 63 65  1  0  0  0  0
 63 96  1  0  0  0  0
 63 97  1  0  0  0  0
 66102  1  0  0  0  0
 66103  1  0  0  0  0
 66104  1  0  0  0  0
 67105  1  0  0  0  0
 67106  1  0  0  0  0
 67107  1  0  0  0  0
M  END
> <PUBCHEM_COMPOUND_CID>
3738

> <PUBCHEM_COMPOUND_CANONICALIZED>
1

> <PUBCHEM_CACTVS_COMPLEXITY>
1450

> <PUBCHEM_CACTVS_HBOND_ACCEPTOR>
18

> <PUBCHEM_CACTVS_HBOND_DONOR>
16

> <PUBCHEM_CACTVS_ROTATABLE_BOND>
24

> <PUBCHEM_CACTVS_SUBSKEYS>
AAADcfB/vgAAA4AAAAAAAAAAAAAAAAAAAAAwYAAAAAAAAAABQAAAHgAwCAAADDzjmAYCwIPAAgCIAgVQUACCAAAlAAAAiIEIRMgLMDrI1JGEYQhnlgDZyQdci0COAAACQAAAAAAAAASAAAAAAAAAAAAAAA==

> <PUBCHEM_IUPAC_OPENEYE_NAME>
5-[[3-[3,5-bis[[2,3-dihydroxy-1-(hydroxymethyl)propyl]carbamoyl]-2,4,6-triiodo-N-methyl-anilino]-3-oxo-propanoyl]-methyl-amino]-N1,N3-bis[2,3-dihydroxy-1-(hydroxymethyl)propyl]-2,4,6-triiodo-benzene-1,3-dicarboxamide

> <PUBCHEM_IUPAC_CAS_NAME>
5-[[1,3-dioxo-3-[2,4,6-triiodo-N-methyl-3,5-bis[oxo-(1,3,4-trihydroxybutan-2-ylamino)methyl]anilino]propyl]-methylamino]-2,4,6-triiodo-N1,N3-bis(1,3,4-trihydroxybutan-2-yl)benzene-1,3-dicarboxamide

> <PUBCHEM_IUPAC_NAME>
2,4,6-triiodo-5-[methyl-[3-oxo-3-[2,4,6-triiodo-N-methyl-3,5-bis(1,3,4-trihydroxybutan-2-ylcarbamoyl)anilino]propanoyl]amino]-1-N,3-N-bis(1,3,4-trihydroxybutan-2-yl)benzene-1,3-dicarboxamide

> <PUBCHEM_IUPAC_SYSTEMATIC_NAME>
2,4,6-tris(iodanyl)-5-[methyl-[3-[methyl-[2,4,6-tris(iodanyl)-3,5-bis[1,3,4-tris(oxidanyl)butan-2-ylcarbamoyl]phenyl]amino]-3-oxidanylidene-propanoyl]amino]-N1,N3-bis[1,3,4-tris(oxidanyl)butan-2-yl]benzene-1,3-dicarboxamide

> <PUBCHEM_IUPAC_TRADITIONAL_NAME>
5-[[3-[3,5-bis[(2,3-dihydroxy-1-methylol-propyl)carbamoyl]-2,4,6-triiodo-N-methyl-anilino]-3-keto-propanoyl]-methyl-amino]-N,N'-bis(2,3-dihydroxy-1-methylol-propyl)-2,4,6-triiodo-isophthalamide

> <PUBCHEM_IUPAC_INCHI>
InChI=1S/C37H48I6N6O18/c1-48(32-28(40)22(34(64)44-12(4-50)16(58)8-54)26(38)23(29(32)41)35(65)45-13(5-51)17(59)9-55)20(62)3-21(63)49(2)33-30(42)24(36(66)46-14(6-52)18(60)10-56)27(39)25(31(33)43)37(67)47-15(7-53)19(61)11-57/h12-19,50-61H,3-11H2,1-2H3,(H,44,64)(H,45,65)(H,46,66)(H,47,67)

> <PUBCHEM_IUPAC_INCHIKEY>
XUHXFSYUBXNTHU-UHFFFAOYSA-N

> <PUBCHEM_XLOGP3_AA>
-4.2

> <PUBCHEM_EXACT_MASS>
1625.729347

> <PUBCHEM_MOLECULAR_FORMULA>
C37H48I6N6O18

> <PUBCHEM_MOLECULAR_WEIGHT>
1626.23324

> <PUBCHEM_OPENEYE_CAN_SMILES>
CN(C1=C(C(=C(C(=C1I)C(=O)NC(CO)C(CO)O)I)C(=O)NC(CO)C(CO)O)I)C(=O)CC(=O)N(C)C2=C(C(=C(C(=C2I)C(=O)NC(CO)C(CO)O)I)C(=O)NC(CO)C(CO)O)I

> <PUBCHEM_OPENEYE_ISO_SMILES>
CN(C1=C(C(=C(C(=C1I)C(=O)NC(CO)C(CO)O)I)C(=O)NC(CO)C(CO)O)I)C(=O)CC(=O)N(C)C2=C(C(=C(C(=C2I)C(=O)NC(CO)C(CO)O)I)C(=O)NC(CO)C(CO)O)I

> <PUBCHEM_CACTVS_TPSA>
400

> <PUBCHEM_MONOISOTOPIC_WEIGHT>
1625.729347

> <PUBCHEM_TOTAL_CHARGE>
0

> <PUBCHEM_HEAVY_ATOM_COUNT>
67

> <PUBCHEM_ATOM_DEF_STEREO_COUNT>
0

> <PUBCHEM_ATOM_UDEF_STEREO_COUNT>
8

> <PUBCHEM_BOND_DEF_STEREO_COUNT>
0

> <PUBCHEM_BOND_UDEF_STEREO_COUNT>
0

> <PUBCHEM_ISOTOPIC_ATOM_COUNT>
0

> <PUBCHEM_COMPONENT_COUNT>
1

> <PUBCHEM_CACTVS_TAUTO_COUNT>
6

> <PUBCHEM_COORDINATE_TYPE>
1
5
255

> <PUBCHEM_BONDANNOTATIONS>
31  68  3
32  69  3
33  70  3
34  71  3
35  73  3
36  72  3
37  75  3
38  74  3
43  57  8
43  61  8
44  58  8
44  62  8
45  57  8
45  59  8
46  58  8
46  60  8
47  59  8
47  61  8
48  60  8
48  62  8

$$$$

