14185
  -OEChem-06241222422D

 53 54  0     0  0  0  0  0  0999 V2000
    4.4258    0.0000    0.0000 I   0  5  0  0  0  0  0  0  0  0  0  0
    0.0000    8.9766    0.0000 F   0  0  0  0  0  0  0  0  0  0  0  0
    4.3301    7.4766    0.0000 O   0  0  0  0  0  0  0  0  0  0  0  0
    5.1962    3.9766    0.0000 N   0  3  0  0  0  0  0  0  0  0  0  0
    7.1962    3.9766    0.0000 C   0  0  0  0  0  0  0  0  0  0  0  0
    6.6962    4.8426    0.0000 C   0  0  0  0  0  0  0  0  0  0  0  0
    6.6962    3.1106    0.0000 C   0  0  0  0  0  0  0  0  0  0  0  0
    7.7839    4.7856    0.0000 C   0  0  0  0  0  0  0  0  0  0  0  0
    7.7839    3.1676    0.0000 C   0  0  0  0  0  0  0  0  0  0  0  0
    5.6962    4.8426    0.0000 C   0  0  0  0  0  0  0  0  0  0  0  0
    5.6962    3.1106    0.0000 C   0  0  0  0  0  0  0  0  0  0  0  0
    8.7350    3.4766    0.0000 C   0  0  0  0  0  0  0  0  0  0  0  0
    8.7350    4.4766    0.0000 C   0  0  0  0  0  0  0  0  0  0  0  0
    4.3301    4.4766    0.0000 C   0  0  0  0  0  0  0  0  0  0  0  0
    4.3301    3.4766    0.0000 C   0  0  0  0  0  0  0  0  0  0  0  0
    4.3301    5.4766    0.0000 C   0  0  0  0  0  0  0  0  0  0  0  0
    3.4641    5.9766    0.0000 C   0  0  0  0  0  0  0  0  0  0  0  0
    3.4641    6.9766    0.0000 C   0  0  0  0  0  0  0  0  0  0  0  0
    2.5981    7.4766    0.0000 C   0  0  0  0  0  0  0  0  0  0  0  0
    2.5981    8.4766    0.0000 C   0  0  0  0  0  0  0  0  0  0  0  0
    1.7320    6.9766    0.0000 C   0  0  0  0  0  0  0  0  0  0  0  0
    1.7320    8.9766    0.0000 C   0  0  0  0  0  0  0  0  0  0  0  0
    0.8660    7.4766    0.0000 C   0  0  0  0  0  0  0  0  0  0  0  0
    0.8660    8.4766    0.0000 C   0  0  0  0  0  0  0  0  0  0  0  0
    6.5885    2.5000    0.0000 H   0  0  0  0  0  0  0  0  0  0  0  0
    7.2788    2.8985    0.0000 H   0  0  0  0  0  0  0  0  0  0  0  0
    7.2788    5.0547    0.0000 H   0  0  0  0  0  0  0  0  0  0  0  0
    6.5885    5.4532    0.0000 H   0  0  0  0  0  0  0  0  0  0  0  0
    7.2470    2.8576    0.0000 H   0  0  0  0  0  0  0  0  0  0  0  0
    8.0361    2.6012    0.0000 H   0  0  0  0  0  0  0  0  0  0  0  0
    8.0361    5.3520    0.0000 H   0  0  0  0  0  0  0  0  0  0  0  0
    7.2470    5.0956    0.0000 H   0  0  0  0  0  0  0  0  0  0  0  0
    5.1135    2.8985    0.0000 H   0  0  0  0  0  0  0  0  0  0  0  0
    5.8038    2.5000    0.0000 H   0  0  0  0  0  0  0  0  0  0  0  0
    5.8038    5.4532    0.0000 H   0  0  0  0  0  0  0  0  0  0  0  0
    5.1135    5.0547    0.0000 H   0  0  0  0  0  0  0  0  0  0  0  0
    8.8639    2.8702    0.0000 H   0  0  0  0  0  0  0  0  0  0  0  0
    9.3516    3.5414    0.0000 H   0  0  0  0  0  0  0  0  0  0  0  0
    9.3516    4.4118    0.0000 H   0  0  0  0  0  0  0  0  0  0  0  0
    8.8639    5.0831    0.0000 H   0  0  0  0  0  0  0  0  0  0  0  0
    3.7196    4.5843    0.0000 H   0  0  0  0  0  0  0  0  0  0  0  0
    4.1181    3.8940    0.0000 H   0  0  0  0  0  0  0  0  0  0  0  0
    4.0201    4.0135    0.0000 H   0  0  0  0  0  0  0  0  0  0  0  0
    3.7932    3.1666    0.0000 H   0  0  0  0  0  0  0  0  0  0  0  0
    4.6401    2.9397    0.0000 H   0  0  0  0  0  0  0  0  0  0  0  0
    4.9407    5.3689    0.0000 H   0  0  0  0  0  0  0  0  0  0  0  0
    4.5422    6.0592    0.0000 H   0  0  0  0  0  0  0  0  0  0  0  0
    2.8535    6.0843    0.0000 H   0  0  0  0  0  0  0  0  0  0  0  0
    3.2520    5.3940    0.0000 H   0  0  0  0  0  0  0  0  0  0  0  0
    3.1350    8.7866    0.0000 H   0  0  0  0  0  0  0  0  0  0  0  0
    1.7320    6.3566    0.0000 H   0  0  0  0  0  0  0  0  0  0  0  0
    1.7320    9.5966    0.0000 H   0  0  0  0  0  0  0  0  0  0  0  0
    0.3291    7.1666    0.0000 H   0  0  0  0  0  0  0  0  0  0  0  0
  2 24  1  0  0  0  0
  3 18  2  0  0  0  0
  4 10  1  0  0  0  0
  4 11  1  0  0  0  0
  4 14  1  0  0  0  0
  4 15  1  0  0  0  0
  5  6  1  0  0  0  0
  5  7  1  0  0  0  0
  5  8  1  0  0  0  0
  5  9  1  0  0  0  0
  6 10  1  0  0  0  0
  6 27  1  0  0  0  0
  6 28  1  0  0  0  0
  7 11  1  0  0  0  0
  7 25  1  0  0  0  0
  7 26  1  0  0  0  0
  8 13  1  0  0  0  0
  8 31  1  0  0  0  0
  8 32  1  0  0  0  0
  9 12  1  0  0  0  0
  9 29  1  0  0  0  0
  9 30  1  0  0  0  0
 10 35  1  0  0  0  0
 10 36  1  0  0  0  0
 11 33  1  0  0  0  0
 11 34  1  0  0  0  0
 12 13  1  0  0  0  0
 12 37  1  0  0  0  0
 12 38  1  0  0  0  0
 13 39  1  0  0  0  0
 13 40  1  0  0  0  0
 14 16  1  0  0  0  0
 14 41  1  0  0  0  0
 14 42  1  0  0  0  0
 15 43  1  0  0  0  0
 15 44  1  0  0  0  0
 15 45  1  0  0  0  0
 16 17  1  0  0  0  0
 16 46  1  0  0  0  0
 16 47  1  0  0  0  0
 17 18  1  0  0  0  0
 17 48  1  0  0  0  0
 17 49  1  0  0  0  0
 18 19  1  0  0  0  0
 19 20  2  0  0  0  0
 19 21  1  0  0  0  0
 20 22  1  0  0  0  0
 20 50  1  0  0  0  0
 21 23  2  0  0  0  0
 21 51  1  0  0  0  0
 22 24  2  0  0  0  0
 22 52  1  0  0  0  0
 23 24  1  0  0  0  0
 23 53  1  0  0  0  0
M  CHG  2   1  -1   4   1
M  END
> <PUBCHEM_COMPOUND_CID>
14185

> <PUBCHEM_COMPOUND_CANONICALIZED>
1

> <PUBCHEM_CACTVS_COMPLEXITY>
398

> <PUBCHEM_CACTVS_HBOND_ACCEPTOR>
3

> <PUBCHEM_CACTVS_HBOND_DONOR>
0

> <PUBCHEM_CACTVS_ROTATABLE_BOND>
5

> <PUBCHEM_CACTVS_SUBSKEYS>
AAADceB6IQAAAgAAAAAAAAAAAAAAAYAAAAA8QAAAAAAAAAABAAAAHwAAAAAADgTBmAwyAIMAAACIAqBSAAACAAAkAAAIiAEIAMgIIDKAlRCEIQAggACIiYcciICPAAAAAAAAAAAAAAAAAAAAAAAAAAAAAA==

> <PUBCHEM_IUPAC_OPENEYE_NAME>
1-(4-fluorophenyl)-4-(8-methyl-8-azoniaspiro[4.5]decan-8-yl)butan-1-one iodide

> <PUBCHEM_IUPAC_CAS_NAME>
1-(4-fluorophenyl)-4-(8-methyl-8-azoniaspiro[4.5]decan-8-yl)-1-butanone iodide

> <PUBCHEM_IUPAC_NAME>
1-(4-fluorophenyl)-4-(8-methyl-8-azoniaspiro[4.5]decan-8-yl)butan-1-one iodide

> <PUBCHEM_IUPAC_SYSTEMATIC_NAME>
1-(4-fluorophenyl)-4-(8-methyl-8-azoniaspiro[4.5]decan-8-yl)butan-1-one iodide

> <PUBCHEM_IUPAC_TRADITIONAL_NAME>
1-(4-fluorophenyl)-4-(8-methyl-8-azoniaspiro[4.5]decan-8-yl)butan-1-one iodide

> <PUBCHEM_IUPAC_INCHI>
InChI=1S/C20H29FNO.HI/c1-22(15-12-20(13-16-22)10-2-3-11-20)14-4-5-19(23)17-6-8-18(21)9-7-17;/h6-9H,2-5,10-16H2,1H3;1H/q+1;/p-1

> <PUBCHEM_IUPAC_INCHIKEY>
DTKAZBUMPMFMOW-UHFFFAOYSA-M

> <PUBCHEM_EXACT_MASS>
445.127791

> <PUBCHEM_MOLECULAR_FORMULA>
C20H29FINO

> <PUBCHEM_MOLECULAR_WEIGHT>
445.353233

> <PUBCHEM_OPENEYE_CAN_SMILES>
C[N+]1(CCC2(CCCC2)CC1)CCCC(=O)C3=CC=C(C=C3)F.[I-]

> <PUBCHEM_OPENEYE_ISO_SMILES>
C[N+]1(CCC2(CCCC2)CC1)CCCC(=O)C3=CC=C(C=C3)F.[I-]

> <PUBCHEM_CACTVS_TPSA>
17.1

> <PUBCHEM_MONOISOTOPIC_WEIGHT>
445.127791

> <PUBCHEM_TOTAL_CHARGE>
0

> <PUBCHEM_HEAVY_ATOM_COUNT>
24

> <PUBCHEM_ATOM_DEF_STEREO_COUNT>
0

> <PUBCHEM_ATOM_UDEF_STEREO_COUNT>
0

> <PUBCHEM_BOND_DEF_STEREO_COUNT>
0

> <PUBCHEM_BOND_UDEF_STEREO_COUNT>
0

> <PUBCHEM_ISOTOPIC_ATOM_COUNT>
0

> <PUBCHEM_COMPONENT_COUNT>
2

> <PUBCHEM_CACTVS_TAUTO_COUNT>
2

> <PUBCHEM_COORDINATE_TYPE>
1
5
255

> <PUBCHEM_BONDANNOTATIONS>
19  20  8
19  21  8
20  22  8
21  23  8
22  24  8
23  24  8

$$$$

