17396013
  -OEChem-06241222532D

 44 47  0     0  0  0  0  0  0999 V2000
    9.7877    4.1592    0.0000 Br  0  0  0  0  0  0  0  0  0  0  0  0
    8.4028    3.0378    0.0000 S   0  0  0  0  0  0  0  0  0  0  0  0
    8.2983   -2.9568    0.0000 O   0  0  0  0  0  0  0  0  0  0  0  0
    5.4836   -4.1592    0.0000 O   0  0  0  0  0  0  0  0  0  0  0  0
    7.4323    0.5432    0.0000 N   0  0  0  0  0  0  0  0  0  0  0  0
    7.4323   -1.4568    0.0000 N   0  0  0  0  0  0  0  0  0  0  0  0
    6.4617   -3.9513    0.0000 N   0  0  0  0  0  0  0  0  0  0  0  0
    8.2983    0.0432    0.0000 C   0  0  0  0  0  0  0  0  0  0  0  0
    6.5662    0.0432    0.0000 C   0  0  0  0  0  0  0  0  0  0  0  0
    8.2983   -0.9568    0.0000 C   0  0  0  0  0  0  0  0  0  0  0  0
    6.5662   -0.9568    0.0000 C   0  0  0  0  0  0  0  0  0  0  0  0
    7.4323    1.5432    0.0000 C   0  0  0  0  0  0  0  0  0  0  0  0
    7.4323   -2.4568    0.0000 C   0  0  0  0  0  0  0  0  0  0  0  0
    8.2983    2.0432    0.0000 C   0  0  0  0  0  0  0  0  0  0  0  0
    6.5662   -2.9568    0.0000 C   0  0  0  0  0  0  0  0  0  0  0  0
    9.2118    1.6365    0.0000 C   0  0  0  0  0  0  0  0  0  0  0  0
    5.6527   -2.5500    0.0000 C   0  0  0  0  0  0  0  0  0  0  0  0
    9.8810    2.3796    0.0000 C   0  0  0  0  0  0  0  0  0  0  0  0
    4.9836   -3.2932    0.0000 C   0  0  0  0  0  0  0  0  0  0  0  0
    9.3810    3.2457    0.0000 C   0  0  0  0  0  0  0  0  0  0  0  0
    3.9890   -3.1886    0.0000 C   0  0  0  0  0  0  0  0  0  0  0  0
    3.5823   -2.2751    0.0000 C   0  0  0  0  0  0  0  0  0  0  0  0
    3.4013   -3.9977    0.0000 C   0  0  0  0  0  0  0  0  0  0  0  0
    2.5878   -2.1706    0.0000 C   0  0  0  0  0  0  0  0  0  0  0  0
    2.4067   -3.8931    0.0000 C   0  0  0  0  0  0  0  0  0  0  0  0
    2.0000   -2.9796    0.0000 C   0  0  0  0  0  0  0  0  0  0  0  0
    8.9089   -0.0644    0.0000 H   0  0  0  0  0  0  0  0  0  0  0  0
    8.5103    0.6258    0.0000 H   0  0  0  0  0  0  0  0  0  0  0  0
    6.3542    0.6258    0.0000 H   0  0  0  0  0  0  0  0  0  0  0  0
    5.9557   -0.0644    0.0000 H   0  0  0  0  0  0  0  0  0  0  0  0
    8.5103   -1.5394    0.0000 H   0  0  0  0  0  0  0  0  0  0  0  0
    8.9089   -0.8491    0.0000 H   0  0  0  0  0  0  0  0  0  0  0  0
    5.9557   -0.8491    0.0000 H   0  0  0  0  0  0  0  0  0  0  0  0
    6.3542   -1.5394    0.0000 H   0  0  0  0  0  0  0  0  0  0  0  0
    7.2202    2.1258    0.0000 H   0  0  0  0  0  0  0  0  0  0  0  0
    6.8217    1.4356    0.0000 H   0  0  0  0  0  0  0  0  0  0  0  0
    9.3407    1.0300    0.0000 H   0  0  0  0  0  0  0  0  0  0  0  0
    5.5238   -1.9436    0.0000 H   0  0  0  0  0  0  0  0  0  0  0  0
   10.4976    2.3148    0.0000 H   0  0  0  0  0  0  0  0  0  0  0  0
    3.9467   -1.7735    0.0000 H   0  0  0  0  0  0  0  0  0  0  0  0
    3.6534   -4.5641    0.0000 H   0  0  0  0  0  0  0  0  0  0  0  0
    2.3356   -1.6042    0.0000 H   0  0  0  0  0  0  0  0  0  0  0  0
    2.0423   -4.3947    0.0000 H   0  0  0  0  0  0  0  0  0  0  0  0
    1.3834   -2.9148    0.0000 H   0  0  0  0  0  0  0  0  0  0  0  0
  1 20  1  0  0  0  0
  2 14  1  0  0  0  0
  2 20  1  0  0  0  0
  3 13  2  0  0  0  0
  4  7  1  0  0  0  0
  4 19  1  0  0  0  0
  5  8  1  0  0  0  0
  5  9  1  0  0  0  0
  5 12  1  0  0  0  0
  6 10  1  0  0  0  0
  6 11  1  0  0  0  0
  6 13  1  0  0  0  0
  7 15  2  0  0  0  0
  8 10  1  0  0  0  0
  8 27  1  0  0  0  0
  8 28  1  0  0  0  0
  9 11  1  0  0  0  0
  9 29  1  0  0  0  0
  9 30  1  0  0  0  0
 10 31  1  0  0  0  0
 10 32  1  0  0  0  0
 11 33  1  0  0  0  0
 11 34  1  0  0  0  0
 12 14  1  0  0  0  0
 12 35  1  0  0  0  0
 12 36  1  0  0  0  0
 13 15  1  0  0  0  0
 14 16  2  0  0  0  0
 15 17  1  0  0  0  0
 16 18  1  0  0  0  0
 16 37  1  0  0  0  0
 17 19  2  0  0  0  0
 17 38  1  0  0  0  0
 18 20  2  0  0  0  0
 18 39  1  0  0  0  0
 19 21  1  0  0  0  0
 21 22  2  0  0  0  0
 21 23  1  0  0  0  0
 22 24  1  0  0  0  0
 22 40  1  0  0  0  0
 23 25  2  0  0  0  0
 23 41  1  0  0  0  0
 24 26  2  0  0  0  0
 24 42  1  0  0  0  0
 25 26  1  0  0  0  0
 25 43  1  0  0  0  0
 26 44  1  0  0  0  0
M  END
> <PUBCHEM_COMPOUND_CID>
17396013

> <PUBCHEM_COMPOUND_CANONICALIZED>
1

> <PUBCHEM_CACTVS_COMPLEXITY>
483

> <PUBCHEM_CACTVS_HBOND_ACCEPTOR>
5

> <PUBCHEM_CACTVS_HBOND_DONOR>
0

> <PUBCHEM_CACTVS_ROTATABLE_BOND>
4

> <PUBCHEM_CACTVS_SUBSKEYS>
AAADceB7MABAEAAAAAAAAAAAAAAAAWJAAAA8QAAAAAAAAAAB8AAAHgREAAABLAzB3gQwhZMQAAitA6VyUgCDAIAmKhRomDm+bPoIZjqglZOUMYhmxhmoy9e/yKCOAAAAAAAAAAAAAAAAAAAAAAAAAAAAAA==

> <PUBCHEM_IUPAC_OPENEYE_NAME>
[4-[(5-bromo-2-thienyl)methyl]piperazin-1-yl]-(5-phenylisoxazol-3-yl)methanone

> <PUBCHEM_IUPAC_CAS_NAME>
[4-[(5-bromo-2-thiophenyl)methyl]-1-piperazinyl]-(5-phenyl-3-isoxazolyl)methanone

> <PUBCHEM_IUPAC_NAME>
[4-[(5-bromothiophen-2-yl)methyl]piperazin-1-yl]-(5-phenyl-1,2-oxazol-3-yl)methanone

> <PUBCHEM_IUPAC_SYSTEMATIC_NAME>
[4-[(5-bromanylthiophen-2-yl)methyl]piperazin-1-yl]-(5-phenyl-1,2-oxazol-3-yl)methanone

> <PUBCHEM_IUPAC_TRADITIONAL_NAME>
[4-[(5-bromo-2-thienyl)methyl]piperazino]-(5-phenylisoxazol-3-yl)methanone

> <PUBCHEM_IUPAC_INCHI>
InChI=1S/C19H18BrN3O2S/c20-18-7-6-15(26-18)13-22-8-10-23(11-9-22)19(24)16-12-17(25-21-16)14-4-2-1-3-5-14/h1-7,12H,8-11,13H2

> <PUBCHEM_IUPAC_INCHIKEY>
JJXKYCROJFIMJV-UHFFFAOYSA-N

> <PUBCHEM_XLOGP3_AA>
3.9

> <PUBCHEM_EXACT_MASS>
431.03031

> <PUBCHEM_MOLECULAR_FORMULA>
C19H18BrN3O2S

> <PUBCHEM_MOLECULAR_WEIGHT>
432.33412

> <PUBCHEM_OPENEYE_CAN_SMILES>
C1CN(CCN1CC2=CC=C(S2)Br)C(=O)C3=NOC(=C3)C4=CC=CC=C4

> <PUBCHEM_OPENEYE_ISO_SMILES>
C1CN(CCN1CC2=CC=C(S2)Br)C(=O)C3=NOC(=C3)C4=CC=CC=C4

> <PUBCHEM_CACTVS_TPSA>
77.8

> <PUBCHEM_MONOISOTOPIC_WEIGHT>
431.03031

> <PUBCHEM_TOTAL_CHARGE>
0

> <PUBCHEM_HEAVY_ATOM_COUNT>
26

> <PUBCHEM_ATOM_DEF_STEREO_COUNT>
0

> <PUBCHEM_ATOM_UDEF_STEREO_COUNT>
0

> <PUBCHEM_BOND_DEF_STEREO_COUNT>
0

> <PUBCHEM_BOND_UDEF_STEREO_COUNT>
0

> <PUBCHEM_ISOTOPIC_ATOM_COUNT>
0

> <PUBCHEM_COMPONENT_COUNT>
1

> <PUBCHEM_CACTVS_TAUTO_COUNT>
1

> <PUBCHEM_COORDINATE_TYPE>
1
5
255

> <PUBCHEM_BONDANNOTATIONS>
14  16  8
15  17  8
16  18  8
17  19  8
18  20  8
2  14  8
2  20  8
21  22  8
21  23  8
22  24  8
23  25  8
24  26  8
25  26  8
4  19  8
4  7  8
7  15  8

$$$$

