10502
  -OEChem-06261204372D

 81 86  0     1  0  0  0  0  0999 V2000
   11.3876   -1.6432    0.0000 O   0  0  0  0  0  0  0  0  0  0  0  0
    8.7298   -3.1916    0.0000 O   0  0  0  0  0  0  0  0  0  0  0  0
    5.9945   -2.6956    0.0000 O   0  0  0  0  0  0  0  0  0  0  0  0
    7.8911    0.3566    0.0000 O   0  0  0  0  0  0  0  0  0  0  0  0
   12.6473    3.2300    0.0000 O   0  0  0  0  0  0  0  0  0  0  0  0
    4.2625   -2.6889    0.0000 O   0  0  0  0  0  0  0  0  0  0  0  0
   14.4078    3.5058    0.0000 O   0  0  0  0  0  0  0  0  0  0  0  0
    6.0022   -0.6956    0.0000 O   0  0  0  0  0  0  0  0  0  0  0  0
    4.2740    0.3111    0.0000 O   0  0  0  0  0  0  0  0  0  0  0  0
    2.5381   -0.6822    0.0000 O   0  0  0  0  0  0  0  0  0  0  0  0
   11.3876   -0.6432    0.0000 C   0  0  1  0  0  0  0  0  0  0  0  0
   10.5216   -1.1432    0.0000 C   0  0  1  0  0  0  0  0  0  0  0  0
   11.3876    0.3568    0.0000 C   0  0  1  0  0  0  0  0  0  0  0  0
    9.6555   -0.6432    0.0000 C   0  0  1  0  0  0  0  0  0  0  0  0
    8.7455   -1.1501    0.0000 C   0  0  2  0  0  0  0  0  0  0  0  0
    8.7375   -2.1917    0.0000 C   0  0  1  0  0  0  0  0  0  0  0  0
   12.3338    0.6615    0.0000 C   0  0  3  0  0  0  0  0  0  0  0  0
   10.5216    0.8568    0.0000 C   0  0  0  0  0  0  0  0  0  0  0  0
    9.6555    0.3568    0.0000 C   0  0  0  0  0  0  0  0  0  0  0  0
   12.3338   -0.9480    0.0000 C   0  0  0  0  0  0  0  0  0  0  0  0
   10.5376   -2.1847    0.0000 C   0  0  0  0  0  0  0  0  0  0  0  0
    9.6396   -2.7125    0.0000 C   0  0  0  0  0  0  0  0  0  0  0  0
   12.9174   -0.1432    0.0000 C   0  0  0  0  0  0  0  0  0  0  0  0
    7.8187   -0.5860    0.0000 C   0  0  0  0  0  0  0  0  0  0  0  0
    7.8021   -2.7414    0.0000 C   0  0  0  0  0  0  0  0  0  0  0  0
   11.3876    1.3568    0.0000 C   0  0  0  0  0  0  0  0  0  0  0  0
    6.8708   -1.1139    0.0000 C   0  0  0  0  0  0  0  0  0  0  0  0
    6.8624   -2.1989    0.0000 C   0  0  2  0  0  0  0  0  0  0  0  0
    8.7532   -0.1501    0.0000 C   0  0  0  0  0  0  0  0  0  0  0  0
   12.6445    1.6120    0.0000 C   0  0  0  0  0  0  0  0  0  0  0  0
   12.0581    2.4221    0.0000 C   0  0  0  0  0  0  0  0  0  0  0  0
   13.5960    1.9194    0.0000 C   0  0  0  0  0  0  0  0  0  0  0  0
    5.1304   -2.1922    0.0000 C   0  0  3  0  0  0  0  0  0  0  0  0
   13.5978    2.9194    0.0000 C   0  0  0  0  0  0  0  0  0  0  0  0
    5.1343   -1.1922    0.0000 C   0  0  1  0  0  0  0  0  0  0  0  0
    4.2702   -0.6889    0.0000 C   0  0  1  0  0  0  0  0  0  0  0  0
    3.3984   -2.1856    0.0000 C   0  0  2  0  0  0  0  0  0  0  0  0
    3.4022   -1.1856    0.0000 C   0  0  2  0  0  0  0  0  0  0  0  0
    2.5304   -2.6822    0.0000 C   0  0  0  0  0  0  0  0  0  0  0  0
   11.2609   -1.5625    0.0000 H   0  0  0  0  0  0  0  0  0  0  0  0
   10.3916   -0.2182    0.0000 H   0  0  0  0  0  0  0  0  0  0  0  0
   13.1735    0.7934    0.0000 H   0  0  0  0  0  0  0  0  0  0  0  0
   10.9201    1.3317    0.0000 H   0  0  0  0  0  0  0  0  0  0  0  0
   10.1230    1.3317    0.0000 H   0  0  0  0  0  0  0  0  0  0  0  0
    9.4435    0.9394    0.0000 H   0  0  0  0  0  0  0  0  0  0  0  0
    9.0450    0.2491    0.0000 H   0  0  0  0  0  0  0  0  0  0  0  0
   12.0828   -1.5149    0.0000 H   0  0  0  0  0  0  0  0  0  0  0  0
   12.8712   -1.2572    0.0000 H   0  0  0  0  0  0  0  0  0  0  0  0
   10.7556   -2.7651    0.0000 H   0  0  0  0  0  0  0  0  0  0  0  0
   11.1468   -2.0692    0.0000 H   0  0  0  0  0  0  0  0  0  0  0  0
    9.2423   -3.1885    0.0000 H   0  0  0  0  0  0  0  0  0  0  0  0
   10.0405   -3.1854    0.0000 H   0  0  0  0  0  0  0  0  0  0  0  0
   13.3783   -0.5580    0.0000 H   0  0  0  0  0  0  0  0  0  0  0  0
   13.3783    0.2715    0.0000 H   0  0  0  0  0  0  0  0  0  0  0  0
    8.2269   -0.1193    0.0000 H   0  0  0  0  0  0  0  0  0  0  0  0
    7.4288   -0.1040    0.0000 H   0  0  0  0  0  0  0  0  0  0  0  0
    7.4048   -3.2174    0.0000 H   0  0  0  0  0  0  0  0  0  0  0  0
    8.2030   -3.2143    0.0000 H   0  0  0  0  0  0  0  0  0  0  0  0
   12.0076    1.3568    0.0000 H   0  0  0  0  0  0  0  0  0  0  0  0
   11.3876    1.9768    0.0000 H   0  0  0  0  0  0  0  0  0  0  0  0
   10.7676    1.3568    0.0000 H   0  0  0  0  0  0  0  0  0  0  0  0
    6.6662   -0.5287    0.0000 H   0  0  0  0  0  0  0  0  0  0  0  0
    6.2592   -1.2153    0.0000 H   0  0  0  0  0  0  0  0  0  0  0  0
    6.8612   -2.8189    0.0000 H   0  0  0  0  0  0  0  0  0  0  0  0
   11.9245   -1.9532    0.0000 H   0  0  0  0  0  0  0  0  0  0  0  0
    8.7580    0.4699    0.0000 H   0  0  0  0  0  0  0  0  0  0  0  0
    9.2643   -3.5058    0.0000 H   0  0  0  0  0  0  0  0  0  0  0  0
   11.5980    2.8377    0.0000 H   0  0  0  0  0  0  0  0  0  0  0  0
   11.5966    2.0080    0.0000 H   0  0  0  0  0  0  0  0  0  0  0  0
   14.0970    1.5541    0.0000 H   0  0  0  0  0  0  0  0  0  0  0  0
    5.1271   -3.0422    0.0000 H   0  0  0  0  0  0  0  0  0  0  0  0
    5.6700   -1.5043    0.0000 H   0  0  0  0  0  0  0  0  0  0  0  0
    3.7344   -0.3768    0.0000 H   0  0  0  0  0  0  0  0  0  0  0  0
    3.3960   -2.8056    0.0000 H   0  0  0  0  0  0  0  0  0  0  0  0
    2.8641   -1.4935    0.0000 H   0  0  0  0  0  0  0  0  0  0  0  0
    6.0046   -0.0756    0.0000 H   0  0  0  0  0  0  0  0  0  0  0  0
    2.2225   -2.1441    0.0000 H   0  0  0  0  0  0  0  0  0  0  0  0
    1.9923   -2.9901    0.0000 H   0  0  0  0  0  0  0  0  0  0  0  0
    2.8384   -3.2203    0.0000 H   0  0  0  0  0  0  0  0  0  0  0  0
    3.7383    0.6232    0.0000 H   0  0  0  0  0  0  0  0  0  0  0  0
    2.0000   -0.9902    0.0000 H   0  0  0  0  0  0  0  0  0  0  0  0
 11  1  1  1  0  0  0
  1 65  1  0  0  0  0
 16  2  1  1  0  0  0
  2 67  1  0  0  0  0
 28  3  1  1  0  0  0
  3 33  1  0  0  0  0
  4 29  2  0  0  0  0
  5 31  1  0  0  0  0
  5 34  1  0  0  0  0
  6 33  1  0  0  0  0
  6 37  1  0  0  0  0
  7 34  2  0  0  0  0
 35  8  1  1  0  0  0
  8 76  1  0  0  0  0
 36  9  1  1  0  0  0
  9 80  1  0  0  0  0
 38 10  1  6  0  0  0
 10 81  1  0  0  0  0
 11 12  1  0  0  0  0
 11 13  1  0  0  0  0
 11 20  1  0  0  0  0
 12 14  1  0  0  0  0
 12 21  1  0  0  0  0
 12 40  1  1  0  0  0
 13 17  1  0  0  0  0
 13 18  1  0  0  0  0
 13 26  1  1  0  0  0
 14 15  1  0  0  0  0
 14 19  1  0  0  0  0
 14 41  1  6  0  0  0
 15 16  1  0  0  0  0
 15 24  1  0  0  0  0
 15 29  1  1  0  0  0
 16 22  1  0  0  0  0
 16 25  1  0  0  0  0
 17 23  1  0  0  0  0
 17 30  1  0  0  0  0
 17 42  1  0  0  0  0
 18 19  1  0  0  0  0
 18 43  1  0  0  0  0
 18 44  1  0  0  0  0
 19 45  1  0  0  0  0
 19 46  1  0  0  0  0
 20 23  1  0  0  0  0
 20 47  1  0  0  0  0
 20 48  1  0  0  0  0
 21 22  1  0  0  0  0
 21 49  1  0  0  0  0
 21 50  1  0  0  0  0
 22 51  1  0  0  0  0
 22 52  1  0  0  0  0
 23 53  1  0  0  0  0
 23 54  1  0  0  0  0
 24 27  1  0  0  0  0
 24 55  1  0  0  0  0
 24 56  1  0  0  0  0
 25 28  1  0  0  0  0
 25 57  1  0  0  0  0
 25 58  1  0  0  0  0
 26 59  1  0  0  0  0
 26 60  1  0  0  0  0
 26 61  1  0  0  0  0
 27 28  1  0  0  0  0
 27 62  1  0  0  0  0
 27 63  1  0  0  0  0
 28 64  1  0  0  0  0
 29 66  1  0  0  0  0
 30 31  1  0  0  0  0
 30 32  2  0  0  0  0
 31 68  1  0  0  0  0
 31 69  1  0  0  0  0
 32 34  1  0  0  0  0
 32 70  1  0  0  0  0
 33 35  1  0  0  0  0
 33 71  1  0  0  0  0
 35 36  1  0  0  0  0
 35 72  1  0  0  0  0
 36 38  1  0  0  0  0
 36 73  1  0  0  0  0
 37 38  1  0  0  0  0
 37 39  1  1  0  0  0
 37 74  1  0  0  0  0
 38 75  1  0  0  0  0
 39 77  1  0  0  0  0
 39 78  1  0  0  0  0
 39 79  1  0  0  0  0
M  END
> <PUBCHEM_COMPOUND_CID>
10502

> <PUBCHEM_COMPOUND_CANONICALIZED>
1

> <PUBCHEM_CACTVS_COMPLEXITY>
1050

> <PUBCHEM_CACTVS_HBOND_ACCEPTOR>
10

> <PUBCHEM_CACTVS_HBOND_DONOR>
5

> <PUBCHEM_CACTVS_ROTATABLE_BOND>
4

> <PUBCHEM_CACTVS_SUBSKEYS>
AAADcfB4PAAAAAAAAAAAAAAAAAAAAYIAAAA0YMEAAAAAAGDAAAAAGgAACAAAD1SwgAMCCAAABgCIAijSiAAAAAAgAAAACAEAAEgRFBYAIQAiUAAFoAAPIQPI7PzPgAAAAAAAAADAAAYQADAAAYAADAAAAA==

> <PUBCHEM_IUPAC_OPENEYE_NAME>
(3S,5S,8R,9S,10S,13R,14S)-5,14-dihydroxy-13-methyl-17-(5-oxo-2H-furan-3-yl)-3-[(3R,4R,5R,6S)-3,4,5-trihydroxy-6-methyl-tetrahydropyran-2-yl]oxy-2,3,4,6,7,8,9,11,12,15,16,17-dodecahydro-1H-cyclopenta[a]phenanthrene-10-carbaldehyde

> <PUBCHEM_IUPAC_CAS_NAME>
(3S,5S,8R,9S,10S,13R,14S)-5,14-dihydroxy-13-methyl-17-(5-oxo-2H-furan-3-yl)-3-[[(3R,4R,5R,6S)-3,4,5-trihydroxy-6-methyl-2-oxanyl]oxy]-2,3,4,6,7,8,9,11,12,15,16,17-dodecahydro-1H-cyclopenta[a]phenanthrene-10-carboxaldehyde

> <PUBCHEM_IUPAC_NAME>
(3S,5S,8R,9S,10S,13R,14S)-5,14-dihydroxy-13-methyl-17-(5-oxo-2H-furan-3-yl)-3-[(3R,4R,5R,6S)-3,4,5-trihydroxy-6-methyloxan-2-yl]oxy-2,3,4,6,7,8,9,11,12,15,16,17-dodecahydro-1H-cyclopenta[a]phenanthrene-10-carbaldehyde

> <PUBCHEM_IUPAC_SYSTEMATIC_NAME>
(3S,5S,8R,9S,10S,13R,14S)-13-methyl-3-[(3R,4R,5R,6S)-6-methyl-3,4,5-tris(oxidanyl)oxan-2-yl]oxy-5,14-bis(oxidanyl)-17-(5-oxidanylidene-2H-furan-3-yl)-2,3,4,6,7,8,9,11,12,15,16,17-dodecahydro-1H-cyclopenta[a]phenanthrene-10-carbaldehyde

> <PUBCHEM_IUPAC_TRADITIONAL_NAME>
(3S,5S,8R,9S,10S,13R,14S)-5,14-dihydroxy-17-(5-keto-2H-furan-3-yl)-13-methyl-3-[(3R,4R,5R,6S)-3,4,5-trihydroxy-6-methyl-tetrahydropyran-2-yl]oxy-2,3,4,6,7,8,9,11,12,15,16,17-dodecahydro-1H-cyclopenta[a]phenanthrene-10-carbaldehyde

> <PUBCHEM_IUPAC_INCHI>
InChI=1S/C29H42O10/c1-15-22(32)23(33)24(34)25(38-15)39-17-3-8-27(14-30)19-4-7-26(2)18(16-11-21(31)37-13-16)6-10-29(26,36)20(19)5-9-28(27,35)12-17/h11,14-15,17-20,22-25,32-36H,3-10,12-13H2,1-2H3/t15-,17-,18?,19-,20+,22-,23+,24+,25?,26+,27-,28-,29-/m0/s1

> <PUBCHEM_IUPAC_INCHIKEY>
HULMNSIAKWANQO-UZQFYTNMSA-N

> <PUBCHEM_XLOGP3>
-0.7

> <PUBCHEM_EXACT_MASS>
550.277798

> <PUBCHEM_MOLECULAR_FORMULA>
C29H42O10

> <PUBCHEM_MOLECULAR_WEIGHT>
550.63778

> <PUBCHEM_OPENEYE_CAN_SMILES>
CC1C(C(C(C(O1)OC2CCC3(C4CCC5(C(CCC5(C4CCC3(C2)O)O)C6=CC(=O)OC6)C)C=O)O)O)O

> <PUBCHEM_OPENEYE_ISO_SMILES>
C[C@H]1[C@@H]([C@H]([C@H](C(O1)O[C@H]2CC[C@@]3([C@H]4CC[C@@]5(C(CC[C@@]5([C@@H]4CC[C@@]3(C2)O)O)C6=CC(=O)OC6)C)C=O)O)O)O

> <PUBCHEM_CACTVS_TPSA>
163

> <PUBCHEM_MONOISOTOPIC_WEIGHT>
550.277798

> <PUBCHEM_TOTAL_CHARGE>
0

> <PUBCHEM_HEAVY_ATOM_COUNT>
39

> <PUBCHEM_ATOM_DEF_STEREO_COUNT>
11

> <PUBCHEM_ATOM_UDEF_STEREO_COUNT>
2

> <PUBCHEM_BOND_DEF_STEREO_COUNT>
0

> <PUBCHEM_BOND_UDEF_STEREO_COUNT>
0

> <PUBCHEM_ISOTOPIC_ATOM_COUNT>
0

> <PUBCHEM_COMPONENT_COUNT>
1

> <PUBCHEM_CACTVS_TAUTO_COUNT>
1

> <PUBCHEM_COORDINATE_TYPE>
1
5
255

> <PUBCHEM_BONDANNOTATIONS>
11  1  5
38  10  6
12  40  5
13  26  5
14  41  6
15  29  5
17  42  3
16  2  5
28  3  5
33  71  3
37  39  5
35  8  5
36  9  5

$$$$

