51091014
  -OEChem-06241223012D

 45 47  0     0  0  0  0  0  0999 V2000
    5.1645   -0.9448    0.0000 S   0  0  0  0  0  0  0  0  0  0  0  0
    6.0305    3.5552    0.0000 O   0  0  0  0  0  0  0  0  0  0  0  0
    4.1939   -2.4393    0.0000 N   0  0  0  0  0  0  0  0  0  0  0  0
    2.7158   -1.7812    0.0000 N   0  0  0  0  0  0  0  0  0  0  0  0
    3.3849   -1.0380    0.0000 N   0  0  0  0  0  0  0  0  0  0  0  0
    7.7625    3.5552    0.0000 N   0  0  0  0  0  0  0  0  0  0  0  0
    2.8090   -3.5607    0.0000 C   0  0  0  0  0  0  0  0  0  0  0  0
    2.0000   -4.1485    0.0000 C   0  0  0  0  0  0  0  0  0  0  0  0
    2.9136   -4.5552    0.0000 C   0  0  0  0  0  0  0  0  0  0  0  0
    3.2158   -2.6472    0.0000 C   0  0  0  0  0  0  0  0  0  0  0  0
    4.9370   -3.1084    0.0000 C   0  0  0  0  0  0  0  0  0  0  0  0
    4.2984   -1.4448    0.0000 C   0  0  0  0  0  0  0  0  0  0  0  0
    5.8881   -2.7994    0.0000 C   0  0  0  0  0  0  0  0  0  0  0  0
    5.1645    0.0553    0.0000 C   0  0  0  0  0  0  0  0  0  0  0  0
    6.0305    0.5552    0.0000 C   0  0  0  0  0  0  0  0  0  0  0  0
    6.0305    1.5552    0.0000 C   0  0  0  0  0  0  0  0  0  0  0  0
    6.8965    0.0553    0.0000 C   0  0  0  0  0  0  0  0  0  0  0  0
    6.8965    2.0552    0.0000 C   0  0  0  0  0  0  0  0  0  0  0  0
    7.7625    0.5552    0.0000 C   0  0  0  0  0  0  0  0  0  0  0  0
    7.7625    1.5552    0.0000 C   0  0  0  0  0  0  0  0  0  0  0  0
    6.8965    3.0552    0.0000 C   0  0  0  0  0  0  0  0  0  0  0  0
    7.7625    4.5552    0.0000 C   0  0  0  0  0  0  0  0  0  0  0  0
    8.6286    3.0552    0.0000 C   0  0  0  0  0  0  0  0  0  0  0  0
    3.4214   -3.6577    0.0000 H   0  0  0  0  0  0  0  0  0  0  0  0
    2.7636   -5.1568    0.0000 H   0  0  0  0  0  0  0  0  0  0  0  0
    3.5320   -4.5985    0.0000 H   0  0  0  0  0  0  0  0  0  0  0  0
    1.5540   -3.7178    0.0000 H   0  0  0  0  0  0  0  0  0  0  0  0
    1.6533   -4.6625    0.0000 H   0  0  0  0  0  0  0  0  0  0  0  0
    4.4485   -3.4901    0.0000 H   0  0  0  0  0  0  0  0  0  0  0  0
    5.2281   -3.6558    0.0000 H   0  0  0  0  0  0  0  0  0  0  0  0
    6.0797   -3.3890    0.0000 H   0  0  0  0  0  0  0  0  0  0  0  0
    6.4778   -2.6078    0.0000 H   0  0  0  0  0  0  0  0  0  0  0  0
    5.6965   -2.2097    0.0000 H   0  0  0  0  0  0  0  0  0  0  0  0
    4.9524    0.6379    0.0000 H   0  0  0  0  0  0  0  0  0  0  0  0
    4.5539   -0.0524    0.0000 H   0  0  0  0  0  0  0  0  0  0  0  0
    5.4935    1.8652    0.0000 H   0  0  0  0  0  0  0  0  0  0  0  0
    6.8965   -0.5648    0.0000 H   0  0  0  0  0  0  0  0  0  0  0  0
    8.2995    1.8652    0.0000 H   0  0  0  0  0  0  0  0  0  0  0  0
    8.2995    0.2452    0.0000 H   0  0  0  0  0  0  0  0  0  0  0  0
    8.3186    2.5183    0.0000 H   0  0  0  0  0  0  0  0  0  0  0  0
    9.1655    2.7452    0.0000 H   0  0  0  0  0  0  0  0  0  0  0  0
    8.9386    3.5922    0.0000 H   0  0  0  0  0  0  0  0  0  0  0  0
    8.3825    4.5552    0.0000 H   0  0  0  0  0  0  0  0  0  0  0  0
    7.7625    5.1752    0.0000 H   0  0  0  0  0  0  0  0  0  0  0  0
    7.1425    4.5552    0.0000 H   0  0  0  0  0  0  0  0  0  0  0  0
  1 12  1  0  0  0  0
  1 14  1  0  0  0  0
  2 21  2  0  0  0  0
  3 10  1  0  0  0  0
  3 11  1  0  0  0  0
  3 12  1  0  0  0  0
  4  5  1  0  0  0  0
  4 10  2  0  0  0  0
  5 12  2  0  0  0  0
  6 21  1  0  0  0  0
  6 22  1  0  0  0  0
  6 23  1  0  0  0  0
  7  8  1  0  0  0  0
  7  9  1  0  0  0  0
  7 10  1  0  0  0  0
  7 24  1  0  0  0  0
  8  9  1  0  0  0  0
  8 27  1  0  0  0  0
  8 28  1  0  0  0  0
  9 25  1  0  0  0  0
  9 26  1  0  0  0  0
 11 13  1  0  0  0  0
 11 29  1  0  0  0  0
 11 30  1  0  0  0  0
 13 31  1  0  0  0  0
 13 32  1  0  0  0  0
 13 33  1  0  0  0  0
 14 15  1  0  0  0  0
 14 34  1  0  0  0  0
 14 35  1  0  0  0  0
 15 16  2  0  0  0  0
 15 17  1  0  0  0  0
 16 18  1  0  0  0  0
 16 36  1  0  0  0  0
 17 19  2  0  0  0  0
 17 37  1  0  0  0  0
 18 20  2  0  0  0  0
 18 21  1  0  0  0  0
 19 20  1  0  0  0  0
 19 39  1  0  0  0  0
 20 38  1  0  0  0  0
 22 43  1  0  0  0  0
 22 44  1  0  0  0  0
 22 45  1  0  0  0  0
 23 40  1  0  0  0  0
 23 41  1  0  0  0  0
 23 42  1  0  0  0  0
M  END
> <PUBCHEM_COMPOUND_CID>
51091014

> <PUBCHEM_COMPOUND_CANONICALIZED>
1

> <PUBCHEM_CACTVS_COMPLEXITY>
415

> <PUBCHEM_CACTVS_HBOND_ACCEPTOR>
4

> <PUBCHEM_CACTVS_HBOND_DONOR>
0

> <PUBCHEM_CACTVS_ROTATABLE_BOND>
6

> <PUBCHEM_CACTVS_SUBSKEYS>
AAADceB7oABAAAAAAAAAAAAAGAAAAWAAAAAwAAAAAAAAAAABwAAAHgQIAAAADQDF2wSzEIcMEAiqAiNyNACS0AtkALAdyAE4BMiIKDKgnRGEIQhgigKIiYcYiECOAAACAAAAAAAAAAQAAAAAAAAAAAAAAA==

> <PUBCHEM_IUPAC_OPENEYE_NAME>
3-[(5-cyclopropyl-4-ethyl-1,2,4-triazol-3-yl)sulfanylmethyl]-N,N-dimethyl-benzamide

> <PUBCHEM_IUPAC_CAS_NAME>
3-[[(5-cyclopropyl-4-ethyl-1,2,4-triazol-3-yl)thio]methyl]-N,N-dimethylbenzamide

> <PUBCHEM_IUPAC_NAME>
3-[(5-cyclopropyl-4-ethyl-1,2,4-triazol-3-yl)sulfanylmethyl]-N,N-dimethylbenzamide

> <PUBCHEM_IUPAC_SYSTEMATIC_NAME>
3-[(5-cyclopropyl-4-ethyl-1,2,4-triazol-3-yl)sulfanylmethyl]-N,N-dimethyl-benzamide

> <PUBCHEM_IUPAC_TRADITIONAL_NAME>
3-[[(5-cyclopropyl-4-ethyl-1,2,4-triazol-3-yl)thio]methyl]-N,N-dimethyl-benzamide

> <PUBCHEM_IUPAC_INCHI>
InChI=1S/C17H22N4OS/c1-4-21-15(13-8-9-13)18-19-17(21)23-11-12-6-5-7-14(10-12)16(22)20(2)3/h5-7,10,13H,4,8-9,11H2,1-3H3

> <PUBCHEM_IUPAC_INCHIKEY>
NVHCRYNYCNGOCQ-UHFFFAOYSA-N

> <PUBCHEM_XLOGP3_AA>
2.1

> <PUBCHEM_EXACT_MASS>
330.151432

> <PUBCHEM_MOLECULAR_FORMULA>
C17H22N4OS

> <PUBCHEM_MOLECULAR_WEIGHT>
330.44778

> <PUBCHEM_OPENEYE_CAN_SMILES>
CCN1C(=NN=C1SCC2=CC=CC(=C2)C(=O)N(C)C)C3CC3

> <PUBCHEM_OPENEYE_ISO_SMILES>
CCN1C(=NN=C1SCC2=CC=CC(=C2)C(=O)N(C)C)C3CC3

> <PUBCHEM_CACTVS_TPSA>
76.3

> <PUBCHEM_MONOISOTOPIC_WEIGHT>
330.151432

> <PUBCHEM_TOTAL_CHARGE>
0

> <PUBCHEM_HEAVY_ATOM_COUNT>
23

> <PUBCHEM_ATOM_DEF_STEREO_COUNT>
0

> <PUBCHEM_ATOM_UDEF_STEREO_COUNT>
0

> <PUBCHEM_BOND_DEF_STEREO_COUNT>
0

> <PUBCHEM_BOND_UDEF_STEREO_COUNT>
0

> <PUBCHEM_ISOTOPIC_ATOM_COUNT>
0

> <PUBCHEM_COMPONENT_COUNT>
1

> <PUBCHEM_CACTVS_TAUTO_COUNT>
1

> <PUBCHEM_COORDINATE_TYPE>
1
5
255

> <PUBCHEM_BONDANNOTATIONS>
15  16  8
15  17  8
16  18  8
17  19  8
18  20  8
19  20  8
3  10  8
3  12  8
4  10  8
4  5  8
5  12  8

$$$$

