17395609
  -OEChem-06241222512D

 48 51  0     0  0  0  0  0  0999 V2000
    2.8660    1.6718    0.0000 S   0  0  0  0  0  0  0  0  0  0  0  0
   10.6603   -2.8282    0.0000 O   0  0  0  0  0  0  0  0  0  0  0  0
    7.1962    1.1718    0.0000 O   0  0  0  0  0  0  0  0  0  0  0  0
   12.4725   -0.0234    0.0000 N   0  0  0  0  0  0  0  0  0  0  0  0
   13.0561   -0.8281    0.0000 N   0  0  0  0  0  0  0  0  0  0  0  0
   10.6603    0.1719    0.0000 N   0  0  0  0  0  0  0  0  0  0  0  0
    9.7942   -1.3282    0.0000 N   0  0  0  0  0  0  0  0  0  0  0  0
    6.3301   -0.3281    0.0000 N   0  0  0  0  0  0  0  0  0  0  0  0
   11.5263   -0.3281    0.0000 C   0  0  0  0  0  0  0  0  0  0  0  0
   11.5263   -1.3282    0.0000 C   0  0  0  0  0  0  0  0  0  0  0  0
    8.9282    0.1719    0.0000 C   0  0  0  0  0  0  0  0  0  0  0  0
    9.7942   -0.3281    0.0000 C   0  0  0  0  0  0  0  0  0  0  0  0
   12.7832    0.9271    0.0000 C   0  0  0  0  0  0  0  0  0  0  0  0
   12.4725   -1.6329    0.0000 C   0  0  0  0  0  0  0  0  0  0  0  0
    8.0622   -0.3281    0.0000 C   0  0  0  0  0  0  0  0  0  0  0  0
   10.6603   -1.8282    0.0000 C   0  0  0  0  0  0  0  0  0  0  0  0
    7.1962    0.1719    0.0000 C   0  0  0  0  0  0  0  0  0  0  0  0
   13.7617    1.1333    0.0000 C   0  0  0  0  0  0  0  0  0  0  0  0
   12.1153    1.6714    0.0000 C   0  0  0  0  0  0  0  0  0  0  0  0
    5.4641    0.1719    0.0000 C   0  0  0  0  0  0  0  0  0  0  0  0
   14.0723    2.0838    0.0000 C   0  0  0  0  0  0  0  0  0  0  0  0
   12.4260    2.6219    0.0000 C   0  0  0  0  0  0  0  0  0  0  0  0
   13.4045    2.8282    0.0000 C   0  0  0  0  0  0  0  0  0  0  0  0
    5.4641    1.1718    0.0000 C   0  0  0  0  0  0  0  0  0  0  0  0
    4.5981   -0.3281    0.0000 C   0  0  0  0  0  0  0  0  0  0  0  0
    4.5981    1.6718    0.0000 C   0  0  0  0  0  0  0  0  0  0  0  0
    3.7320    0.1719    0.0000 C   0  0  0  0  0  0  0  0  0  0  0  0
    3.7320    1.1718    0.0000 C   0  0  0  0  0  0  0  0  0  0  0  0
    2.0000    1.1718    0.0000 C   0  0  0  0  0  0  0  0  0  0  0  0
    9.3267    0.6468    0.0000 H   0  0  0  0  0  0  0  0  0  0  0  0
    8.5297    0.6468    0.0000 H   0  0  0  0  0  0  0  0  0  0  0  0
   13.6761   -0.8281    0.0000 H   0  0  0  0  0  0  0  0  0  0  0  0
   12.6651   -2.2222    0.0000 H   0  0  0  0  0  0  0  0  0  0  0  0
    7.6636   -0.8031    0.0000 H   0  0  0  0  0  0  0  0  0  0  0  0
    8.4607   -0.8031    0.0000 H   0  0  0  0  0  0  0  0  0  0  0  0
   14.1757    0.6719    0.0000 H   0  0  0  0  0  0  0  0  0  0  0  0
   11.5086    1.5436    0.0000 H   0  0  0  0  0  0  0  0  0  0  0  0
    6.3301   -0.9481    0.0000 H   0  0  0  0  0  0  0  0  0  0  0  0
   14.6790    2.2117    0.0000 H   0  0  0  0  0  0  0  0  0  0  0  0
   12.0119    3.0834    0.0000 H   0  0  0  0  0  0  0  0  0  0  0  0
   13.5971    3.4175    0.0000 H   0  0  0  0  0  0  0  0  0  0  0  0
    6.0010    1.4818    0.0000 H   0  0  0  0  0  0  0  0  0  0  0  0
    4.5981   -0.9481    0.0000 H   0  0  0  0  0  0  0  0  0  0  0  0
    4.5981    2.2918    0.0000 H   0  0  0  0  0  0  0  0  0  0  0  0
    3.1951   -0.1381    0.0000 H   0  0  0  0  0  0  0  0  0  0  0  0
    1.6900    1.7088    0.0000 H   0  0  0  0  0  0  0  0  0  0  0  0
    1.4631    0.8619    0.0000 H   0  0  0  0  0  0  0  0  0  0  0  0
    2.3100    0.6349    0.0000 H   0  0  0  0  0  0  0  0  0  0  0  0
  1 28  1  0  0  0  0
  1 29  1  0  0  0  0
  2 16  2  0  0  0  0
  3 17  2  0  0  0  0
  4  5  1  0  0  0  0
  4  9  1  0  0  0  0
  4 13  1  0  0  0  0
  5 14  1  0  0  0  0
  5 32  1  0  0  0  0
  6  9  2  0  0  0  0
  6 12  1  0  0  0  0
  7 12  2  0  0  0  0
  7 16  1  0  0  0  0
  8 17  1  0  0  0  0
  8 20  1  0  0  0  0
  8 38  1  0  0  0  0
  9 10  1  0  0  0  0
 10 14  2  0  0  0  0
 10 16  1  0  0  0  0
 11 12  1  0  0  0  0
 11 15  1  0  0  0  0
 11 30  1  0  0  0  0
 11 31  1  0  0  0  0
 13 18  2  0  0  0  0
 13 19  1  0  0  0  0
 14 33  1  0  0  0  0
 15 17  1  0  0  0  0
 15 34  1  0  0  0  0
 15 35  1  0  0  0  0
 18 21  1  0  0  0  0
 18 36  1  0  0  0  0
 19 22  2  0  0  0  0
 19 37  1  0  0  0  0
 20 24  2  0  0  0  0
 20 25  1  0  0  0  0
 21 23  2  0  0  0  0
 21 39  1  0  0  0  0
 22 23  1  0  0  0  0
 22 40  1  0  0  0  0
 23 41  1  0  0  0  0
 24 26  1  0  0  0  0
 24 42  1  0  0  0  0
 25 27  2  0  0  0  0
 25 43  1  0  0  0  0
 26 28  2  0  0  0  0
 26 44  1  0  0  0  0
 27 28  1  0  0  0  0
 27 45  1  0  0  0  0
 29 46  1  0  0  0  0
 29 47  1  0  0  0  0
 29 48  1  0  0  0  0
M  END
> <PUBCHEM_COMPOUND_CID>
17395609

> <PUBCHEM_COMPOUND_CANONICALIZED>
1

> <PUBCHEM_CACTVS_COMPLEXITY>
733

> <PUBCHEM_CACTVS_HBOND_ACCEPTOR>
4

> <PUBCHEM_CACTVS_HBOND_DONOR>
2

> <PUBCHEM_CACTVS_ROTATABLE_BOND>
6

> <PUBCHEM_CACTVS_SUBSKEYS>
AAADceB7sABAAAAAAAAAAAAAAAAAAQAAAAAwYIAAAAAAAEABQAAAHgQYAAAADAjB0ASzwYLiAAioAid2dACCBAEhChAZqJkwZNgIIDrg2ZGEIAhglADIyMcUAAAAAAQAAAAAAAAACAAAAAAAAAAAAAAAAA==

> <PUBCHEM_IUPAC_OPENEYE_NAME>
N-(4-methylsulfanylphenyl)-3-(4-oxo-1-phenyl-2H-pyrazolo[3,4-d]pyrimidin-6-yl)propanamide

> <PUBCHEM_IUPAC_CAS_NAME>
N-[4-(methylthio)phenyl]-3-(4-oxo-1-phenyl-2H-pyrazolo[3,4-d]pyrimidin-6-yl)propanamide

> <PUBCHEM_IUPAC_NAME>
N-(4-methylsulfanylphenyl)-3-(4-oxo-1-phenyl-2H-pyrazolo[3,4-d]pyrimidin-6-yl)propanamide

> <PUBCHEM_IUPAC_SYSTEMATIC_NAME>
N-(4-methylsulfanylphenyl)-3-(4-oxidanylidene-1-phenyl-2H-pyrazolo[3,4-d]pyrimidin-6-yl)propanamide

> <PUBCHEM_IUPAC_TRADITIONAL_NAME>
3-(4-keto-1-phenyl-2H-pyrazolo[3,4-d]pyrimidin-6-yl)-N-[4-(methylthio)phenyl]propionamide

> <PUBCHEM_IUPAC_INCHI>
InChI=1S/C21H19N5O2S/c1-29-16-9-7-14(8-10-16)23-19(27)12-11-18-24-20-17(21(28)25-18)13-22-26(20)15-5-3-2-4-6-15/h2-10,13,22H,11-12H2,1H3,(H,23,27)

> <PUBCHEM_IUPAC_INCHIKEY>
AYCZEAKWIXMIPC-UHFFFAOYSA-N

> <PUBCHEM_XLOGP3_AA>
2.4

> <PUBCHEM_EXACT_MASS>
405.125946

> <PUBCHEM_MOLECULAR_FORMULA>
C21H19N5O2S

> <PUBCHEM_MOLECULAR_WEIGHT>
405.47286

> <PUBCHEM_OPENEYE_CAN_SMILES>
CSC1=CC=C(C=C1)NC(=O)CCC2=NC(=O)C3=CNN(C3=N2)C4=CC=CC=C4

> <PUBCHEM_OPENEYE_ISO_SMILES>
CSC1=CC=C(C=C1)NC(=O)CCC2=NC(=O)C3=CNN(C3=N2)C4=CC=CC=C4

> <PUBCHEM_CACTVS_TPSA>
112

> <PUBCHEM_MONOISOTOPIC_WEIGHT>
405.125946

> <PUBCHEM_TOTAL_CHARGE>
0

> <PUBCHEM_HEAVY_ATOM_COUNT>
29

> <PUBCHEM_ATOM_DEF_STEREO_COUNT>
0

> <PUBCHEM_ATOM_UDEF_STEREO_COUNT>
0

> <PUBCHEM_BOND_DEF_STEREO_COUNT>
0

> <PUBCHEM_BOND_UDEF_STEREO_COUNT>
0

> <PUBCHEM_ISOTOPIC_ATOM_COUNT>
0

> <PUBCHEM_COMPONENT_COUNT>
1

> <PUBCHEM_CACTVS_TAUTO_COUNT>
36

> <PUBCHEM_COORDINATE_TYPE>
1
5
255

> <PUBCHEM_BONDANNOTATIONS>
10  14  8
10  16  8
13  18  8
13  19  8
18  21  8
19  22  8
20  24  8
20  25  8
21  23  8
22  23  8
24  26  8
25  27  8
26  28  8
27  28  8
4  5  8
4  9  8
5  14  8
6  12  8
6  9  8
7  12  8
7  16  8

$$$$

