6266
  -OEChem-06261201132D

 44 46  0     1  0  0  0  0  0999 V2000
    4.2320   -3.6830    0.0000 Cl  0  0  0  0  0  0  0  0  0  0  0  0
    4.2320   -0.6830    0.0000 O   0  0  0  0  0  0  0  0  0  0  0  0
    2.5000   -0.6830    0.0000 O   0  0  0  0  0  0  0  0  0  0  0  0
    7.7764   -1.8783    0.0000 O   0  0  0  0  0  0  0  0  0  0  0  0
    7.7764   -3.4878    0.0000 O   0  0  0  0  0  0  0  0  0  0  0  0
    2.8660    1.6830    0.0000 C   0  0  0  0  0  0  0  0  0  0  0  0
    3.8660    1.6830    0.0000 C   0  0  3  0  0  0  0  0  0  0  0  0
    3.3660    0.8170    0.0000 C   0  0  3  0  0  0  0  0  0  0  0  0
    2.8660    2.6830    0.0000 C   0  0  0  0  0  0  0  0  0  0  0  0
    2.0000    1.1830    0.0000 C   0  0  0  0  0  0  0  0  0  0  0  0
    4.7320    2.1830    0.0000 C   0  0  0  0  0  0  0  0  0  0  0  0
    3.3660   -0.1830    0.0000 C   0  0  0  0  0  0  0  0  0  0  0  0
    4.7320    3.1830    0.0000 C   0  0  0  0  0  0  0  0  0  0  0  0
    5.5981    3.6830    0.0000 C   0  0  0  0  0  0  0  0  0  0  0  0
    3.8660    3.6830    0.0000 C   0  0  0  0  0  0  0  0  0  0  0  0
    4.2320   -1.6830    0.0000 C   0  0  0  0  0  0  0  0  0  0  0  0
    5.0981   -2.1830    0.0000 C   0  0  0  0  0  0  0  0  0  0  0  0
    5.9641   -1.6830    0.0000 C   0  0  0  0  0  0  0  0  0  0  0  0
    5.0981   -3.1830    0.0000 C   0  0  0  0  0  0  0  0  0  0  0  0
    6.8301   -2.1830    0.0000 C   0  0  0  0  0  0  0  0  0  0  0  0
    5.9641   -3.6830    0.0000 C   0  0  0  0  0  0  0  0  0  0  0  0
    6.8301   -3.1830    0.0000 C   0  0  0  0  0  0  0  0  0  0  0  0
    8.3600   -2.6830    0.0000 C   0  0  0  0  0  0  0  0  0  0  0  0
    3.7056    2.2819    0.0000 H   0  0  0  0  0  0  0  0  0  0  0  0
    3.9649    0.6565    0.0000 H   0  0  0  0  0  0  0  0  0  0  0  0
    1.6900    1.7200    0.0000 H   0  0  0  0  0  0  0  0  0  0  0  0
    1.4631    0.8730    0.0000 H   0  0  0  0  0  0  0  0  0  0  0  0
    2.3100    0.6461    0.0000 H   0  0  0  0  0  0  0  0  0  0  0  0
    3.4860    2.6830    0.0000 H   0  0  0  0  0  0  0  0  0  0  0  0
    2.8660    3.3030    0.0000 H   0  0  0  0  0  0  0  0  0  0  0  0
    2.2460    2.6830    0.0000 H   0  0  0  0  0  0  0  0  0  0  0  0
    5.2690    1.8730    0.0000 H   0  0  0  0  0  0  0  0  0  0  0  0
    4.1760    4.2200    0.0000 H   0  0  0  0  0  0  0  0  0  0  0  0
    3.3291    3.9930    0.0000 H   0  0  0  0  0  0  0  0  0  0  0  0
    3.5560    3.1461    0.0000 H   0  0  0  0  0  0  0  0  0  0  0  0
    5.9081    3.1461    0.0000 H   0  0  0  0  0  0  0  0  0  0  0  0
    6.1350    3.9930    0.0000 H   0  0  0  0  0  0  0  0  0  0  0  0
    5.2881    4.2200    0.0000 H   0  0  0  0  0  0  0  0  0  0  0  0
    3.6215   -1.5754    0.0000 H   0  0  0  0  0  0  0  0  0  0  0  0
    4.0200   -2.2656    0.0000 H   0  0  0  0  0  0  0  0  0  0  0  0
    5.9641   -1.0630    0.0000 H   0  0  0  0  0  0  0  0  0  0  0  0
    5.9641   -4.3030    0.0000 H   0  0  0  0  0  0  0  0  0  0  0  0
    8.8208   -3.0977    0.0000 H   0  0  0  0  0  0  0  0  0  0  0  0
    8.8208   -2.2683    0.0000 H   0  0  0  0  0  0  0  0  0  0  0  0
  1 19  1  0  0  0  0
  2 12  1  0  0  0  0
  2 16  1  0  0  0  0
  3 12  2  0  0  0  0
  4 20  1  0  0  0  0
  4 23  1  0  0  0  0
  5 22  1  0  0  0  0
  5 23  1  0  0  0  0
  6  7  1  0  0  0  0
  6  8  1  0  0  0  0
  6  9  1  0  0  0  0
  6 10  1  0  0  0  0
  7  8  1  0  0  0  0
  7 11  1  0  0  0  0
  7 24  1  0  0  0  0
  8 12  1  0  0  0  0
  8 25  1  0  0  0  0
  9 29  1  0  0  0  0
  9 30  1  0  0  0  0
  9 31  1  0  0  0  0
 10 26  1  0  0  0  0
 10 27  1  0  0  0  0
 10 28  1  0  0  0  0
 11 13  2  0  0  0  0
 11 32  1  0  0  0  0
 13 14  1  0  0  0  0
 13 15  1  0  0  0  0
 14 36  1  0  0  0  0
 14 37  1  0  0  0  0
 14 38  1  0  0  0  0
 15 33  1  0  0  0  0
 15 34  1  0  0  0  0
 15 35  1  0  0  0  0
 16 17  1  0  0  0  0
 16 39  1  0  0  0  0
 16 40  1  0  0  0  0
 17 18  2  0  0  0  0
 17 19  1  0  0  0  0
 18 20  1  0  0  0  0
 18 41  1  0  0  0  0
 19 21  2  0  0  0  0
 20 22  2  0  0  0  0
 21 22  1  0  0  0  0
 21 42  1  0  0  0  0
 23 43  1  0  0  0  0
 23 44  1  0  0  0  0
M  END
> <PUBCHEM_COMPOUND_CID>
6266

> <PUBCHEM_COMPOUND_CANONICALIZED>
1

> <PUBCHEM_CACTVS_COMPLEXITY>
497

> <PUBCHEM_CACTVS_HBOND_ACCEPTOR>
4

> <PUBCHEM_CACTVS_HBOND_DONOR>
0

> <PUBCHEM_CACTVS_ROTATABLE_BOND>
5

> <PUBCHEM_CACTVS_SUBSKEYS>
AAADceB4OAAEAAAAAAAAAAAAGAAAASAAAAAwAAAAAAAAAEgBAAAAGgIAAAAADwagmCMyDoAABACIAiDSCAACCAAgJQAAiAEGiogdJjKFMxqiMCIkwBEOqAfI4DwPoCABAQABQABAQAICAAKAAAAAAAAAAA==

> <PUBCHEM_IUPAC_OPENEYE_NAME>
(6-chloro-1,3-benzodioxol-5-yl)methyl 2,2-dimethyl-3-(2-methylprop-1-enyl)cyclopropanecarboxylate

> <PUBCHEM_IUPAC_CAS_NAME>
2,2-dimethyl-3-(2-methylprop-1-enyl)-1-cyclopropanecarboxylic acid (6-chloro-1,3-benzodioxol-5-yl)methyl ester

> <PUBCHEM_IUPAC_NAME>
(6-chloro-1,3-benzodioxol-5-yl)methyl 2,2-dimethyl-3-(2-methylprop-1-enyl)cyclopropane-1-carboxylate

> <PUBCHEM_IUPAC_SYSTEMATIC_NAME>
(6-chloranyl-1,3-benzodioxol-5-yl)methyl 2,2-dimethyl-3-(2-methylprop-1-enyl)cyclopropane-1-carboxylate

> <PUBCHEM_IUPAC_TRADITIONAL_NAME>
2,2-dimethyl-3-(2-methylprop-1-enyl)cyclopropanecarboxylic acid (6-chloro-1,3-benzodioxol-5-yl)methyl ester

> <PUBCHEM_IUPAC_INCHI>
InChI=1S/C18H21ClO4/c1-10(2)5-12-16(18(12,3)4)17(20)21-8-11-6-14-15(7-13(11)19)23-9-22-14/h5-7,12,16H,8-9H2,1-4H3

> <PUBCHEM_IUPAC_INCHIKEY>
KPMWGGRSOPMANK-UHFFFAOYSA-N

> <PUBCHEM_XLOGP3_AA>
4.7

> <PUBCHEM_EXACT_MASS>
336.112837

> <PUBCHEM_MOLECULAR_FORMULA>
C18H21ClO4

> <PUBCHEM_MOLECULAR_WEIGHT>
336.80994

> <PUBCHEM_OPENEYE_CAN_SMILES>
CC(=CC1C(C1(C)C)C(=O)OCC2=CC3=C(C=C2Cl)OCO3)C

> <PUBCHEM_OPENEYE_ISO_SMILES>
CC(=CC1C(C1(C)C)C(=O)OCC2=CC3=C(C=C2Cl)OCO3)C

> <PUBCHEM_CACTVS_TPSA>
44.8

> <PUBCHEM_MONOISOTOPIC_WEIGHT>
336.112837

> <PUBCHEM_TOTAL_CHARGE>
0

> <PUBCHEM_HEAVY_ATOM_COUNT>
23

> <PUBCHEM_ATOM_DEF_STEREO_COUNT>
0

> <PUBCHEM_ATOM_UDEF_STEREO_COUNT>
2

> <PUBCHEM_BOND_DEF_STEREO_COUNT>
0

> <PUBCHEM_BOND_UDEF_STEREO_COUNT>
0

> <PUBCHEM_ISOTOPIC_ATOM_COUNT>
0

> <PUBCHEM_COMPONENT_COUNT>
1

> <PUBCHEM_CACTVS_TAUTO_COUNT>
1

> <PUBCHEM_COORDINATE_TYPE>
1
5
255

> <PUBCHEM_BONDANNOTATIONS>
17  18  8
17  19  8
18  20  8
19  21  8
20  22  8
21  22  8
7  11  3
8  12  3

$$$$

