17396493
  -OEChem-06241222572D

 56 58  0     1  0  0  0  0  0999 V2000
    5.5443   -2.7268    0.0000 O   0  0  0  0  0  0  0  0  0  0  0  0
    7.5013   -0.7049    0.0000 O   0  0  0  0  0  0  0  0  0  0  0  0
   12.3473    2.9715    0.0000 O   0  0  0  0  0  0  0  0  0  0  0  0
    7.7654    2.8910    0.0000 N   0  0  0  0  0  0  0  0  0  0  0  0
    7.1441    0.9899    0.0000 N   0  0  0  0  0  0  0  0  0  0  0  0
    8.4333    2.1467    0.0000 C   0  0  3  0  0  0  0  0  0  0  0  0
    8.1226    1.1962    0.0000 C   0  0  0  0  0  0  0  0  0  0  0  0
    9.4118    2.3529    0.0000 C   0  0  0  0  0  0  0  0  0  0  0  0
    5.5443   -1.1173    0.0000 C   0  0  0  0  0  0  0  0  0  0  0  0
    4.5981   -1.4221    0.0000 C   0  0  0  0  0  0  0  0  0  0  0  0
    5.8550   -0.1668    0.0000 C   0  0  0  0  0  0  0  0  0  0  0  0
    4.5981   -2.4221    0.0000 C   0  0  0  0  0  0  0  0  0  0  0  0
    6.8335    0.0394    0.0000 C   0  0  0  0  0  0  0  0  0  0  0  0
    3.7320   -2.9221    0.0000 C   0  0  0  0  0  0  0  0  0  0  0  0
    8.0761    3.8415    0.0000 C   0  0  0  0  0  0  0  0  0  0  0  0
    6.7870    2.6848    0.0000 C   0  0  0  0  0  0  0  0  0  0  0  0
   10.0796    1.6086    0.0000 C   0  0  0  0  0  0  0  0  0  0  0  0
    9.7225    3.3034    0.0000 C   0  0  0  0  0  0  0  0  0  0  0  0
    2.8660   -2.4221    0.0000 C   0  0  0  0  0  0  0  0  0  0  0  0
    3.7320   -0.9221    0.0000 C   0  0  0  0  0  0  0  0  0  0  0  0
    6.1279   -1.9221    0.0000 C   0  0  0  0  0  0  0  0  0  0  0  0
    2.8660   -1.4221    0.0000 C   0  0  0  0  0  0  0  0  0  0  0  0
   11.0582    1.8148    0.0000 C   0  0  0  0  0  0  0  0  0  0  0  0
   10.7010    3.5096    0.0000 C   0  0  0  0  0  0  0  0  0  0  0  0
    3.7320   -3.9221    0.0000 C   0  0  0  0  0  0  0  0  0  0  0  0
   11.3688    2.7653    0.0000 C   0  0  0  0  0  0  0  0  0  0  0  0
    2.0000   -2.9221    0.0000 C   0  0  0  0  0  0  0  0  0  0  0  0
   12.6580    3.9221    0.0000 C   0  0  0  0  0  0  0  0  0  0  0  0
    8.6259    2.7360    0.0000 H   0  0  0  0  0  0  0  0  0  0  0  0
    8.1432    0.5765    0.0000 H   0  0  0  0  0  0  0  0  0  0  0  0
    8.7364    1.1088    0.0000 H   0  0  0  0  0  0  0  0  0  0  0  0
    6.7301    1.4514    0.0000 H   0  0  0  0  0  0  0  0  0  0  0  0
    5.8344    0.4528    0.0000 H   0  0  0  0  0  0  0  0  0  0  0  0
    5.2411   -0.0795    0.0000 H   0  0  0  0  0  0  0  0  0  0  0  0
    6.6591    3.2914    0.0000 H   0  0  0  0  0  0  0  0  0  0  0  0
    6.1803    2.5569    0.0000 H   0  0  0  0  0  0  0  0  0  0  0  0
    6.9148    2.0781    0.0000 H   0  0  0  0  0  0  0  0  0  0  0  0
    8.6654    3.6489    0.0000 H   0  0  0  0  0  0  0  0  0  0  0  0
    8.2687    4.4308    0.0000 H   0  0  0  0  0  0  0  0  0  0  0  0
    7.4868    4.0341    0.0000 H   0  0  0  0  0  0  0  0  0  0  0  0
    9.8870    1.0193    0.0000 H   0  0  0  0  0  0  0  0  0  0  0  0
    9.3084    3.7649    0.0000 H   0  0  0  0  0  0  0  0  0  0  0  0
    3.7320   -0.3021    0.0000 H   0  0  0  0  0  0  0  0  0  0  0  0
    6.7479   -1.9221    0.0000 H   0  0  0  0  0  0  0  0  0  0  0  0
    2.3291   -1.1121    0.0000 H   0  0  0  0  0  0  0  0  0  0  0  0
   11.4722    1.3533    0.0000 H   0  0  0  0  0  0  0  0  0  0  0  0
   10.8936    4.0990    0.0000 H   0  0  0  0  0  0  0  0  0  0  0  0
    3.1120   -3.9221    0.0000 H   0  0  0  0  0  0  0  0  0  0  0  0
    3.7320   -4.5421    0.0000 H   0  0  0  0  0  0  0  0  0  0  0  0
    4.3520   -3.9221    0.0000 H   0  0  0  0  0  0  0  0  0  0  0  0
    1.6900   -2.3851    0.0000 H   0  0  0  0  0  0  0  0  0  0  0  0
    1.4631   -3.2321    0.0000 H   0  0  0  0  0  0  0  0  0  0  0  0
    2.3100   -3.4590    0.0000 H   0  0  0  0  0  0  0  0  0  0  0  0
   13.2473    3.7294    0.0000 H   0  0  0  0  0  0  0  0  0  0  0  0
   12.8506    4.5114    0.0000 H   0  0  0  0  0  0  0  0  0  0  0  0
   12.0687    4.1147    0.0000 H   0  0  0  0  0  0  0  0  0  0  0  0
  1 12  1  0  0  0  0
  1 21  1  0  0  0  0
  2 13  2  0  0  0  0
  3 26  1  0  0  0  0
  3 28  1  0  0  0  0
  4  6  1  0  0  0  0
  4 15  1  0  0  0  0
  4 16  1  0  0  0  0
  5  7  1  0  0  0  0
  5 13  1  0  0  0  0
  5 32  1  0  0  0  0
  6  7  1  0  0  0  0
  6  8  1  0  0  0  0
  6 29  1  0  0  0  0
  7 30  1  0  0  0  0
  7 31  1  0  0  0  0
  8 17  2  0  0  0  0
  8 18  1  0  0  0  0
  9 10  1  0  0  0  0
  9 11  1  0  0  0  0
  9 21  2  0  0  0  0
 10 12  2  0  0  0  0
 10 20  1  0  0  0  0
 11 13  1  0  0  0  0
 11 33  1  0  0  0  0
 11 34  1  0  0  0  0
 12 14  1  0  0  0  0
 14 19  2  0  0  0  0
 14 25  1  0  0  0  0
 15 38  1  0  0  0  0
 15 39  1  0  0  0  0
 15 40  1  0  0  0  0
 16 35  1  0  0  0  0
 16 36  1  0  0  0  0
 16 37  1  0  0  0  0
 17 23  1  0  0  0  0
 17 41  1  0  0  0  0
 18 24  2  0  0  0  0
 18 42  1  0  0  0  0
 19 22  1  0  0  0  0
 19 27  1  0  0  0  0
 20 22  2  0  0  0  0
 20 43  1  0  0  0  0
 21 44  1  0  0  0  0
 22 45  1  0  0  0  0
 23 26  2  0  0  0  0
 23 46  1  0  0  0  0
 24 26  1  0  0  0  0
 24 47  1  0  0  0  0
 25 48  1  0  0  0  0
 25 49  1  0  0  0  0
 25 50  1  0  0  0  0
 27 51  1  0  0  0  0
 27 52  1  0  0  0  0
 27 53  1  0  0  0  0
 28 54  1  0  0  0  0
 28 55  1  0  0  0  0
 28 56  1  0  0  0  0
M  END
> <PUBCHEM_COMPOUND_CID>
17396493

> <PUBCHEM_COMPOUND_CANONICALIZED>
1

> <PUBCHEM_CACTVS_COMPLEXITY>
504

> <PUBCHEM_CACTVS_HBOND_ACCEPTOR>
4

> <PUBCHEM_CACTVS_HBOND_DONOR>
1

> <PUBCHEM_CACTVS_ROTATABLE_BOND>
7

> <PUBCHEM_CACTVS_SUBSKEYS>
AAADceB7MAAAAAAAAAAAAAAAAAAAASAAAAAwYAAAAAAAAEgB9AAAHgAQAAAADCzhmAYyBsPABECIAqlSkACCCAAkIAAIiIEODMgMZjKEtRuWOSjk1hGIqYe/3/Pu4AADAAAYAADAAAYAADAAAAAAAAAAAA==

> <PUBCHEM_IUPAC_OPENEYE_NAME>
N-[2-(dimethylamino)-2-(4-methoxyphenyl)ethyl]-2-(6,7-dimethylbenzofuran-3-yl)acetamide

> <PUBCHEM_IUPAC_CAS_NAME>
N-[2-(dimethylamino)-2-(4-methoxyphenyl)ethyl]-2-(6,7-dimethyl-3-benzofuranyl)acetamide

> <PUBCHEM_IUPAC_NAME>
N-[2-(dimethylamino)-2-(4-methoxyphenyl)ethyl]-2-(6,7-dimethyl-1-benzofuran-3-yl)acetamide

> <PUBCHEM_IUPAC_SYSTEMATIC_NAME>
N-[2-(dimethylamino)-2-(4-methoxyphenyl)ethyl]-2-(6,7-dimethyl-1-benzofuran-3-yl)ethanamide

> <PUBCHEM_IUPAC_TRADITIONAL_NAME>
N-[2-(dimethylamino)-2-(4-methoxyphenyl)ethyl]-2-(6,7-dimethylbenzofuran-3-yl)acetamide

> <PUBCHEM_IUPAC_INCHI>
InChI=1S/C23H28N2O3/c1-15-6-11-20-18(14-28-23(20)16(15)2)12-22(26)24-13-21(25(3)4)17-7-9-19(27-5)10-8-17/h6-11,14,21H,12-13H2,1-5H3,(H,24,26)

> <PUBCHEM_IUPAC_INCHIKEY>
ZPNCTBMEDWFYIJ-UHFFFAOYSA-N

> <PUBCHEM_XLOGP3_AA>
3.8

> <PUBCHEM_EXACT_MASS>
380.209993

> <PUBCHEM_MOLECULAR_FORMULA>
C23H28N2O3

> <PUBCHEM_MOLECULAR_WEIGHT>
380.48002

> <PUBCHEM_OPENEYE_CAN_SMILES>
CC1=C(C2=C(C=C1)C(=CO2)CC(=O)NCC(C3=CC=C(C=C3)OC)N(C)C)C

> <PUBCHEM_OPENEYE_ISO_SMILES>
CC1=C(C2=C(C=C1)C(=CO2)CC(=O)NCC(C3=CC=C(C=C3)OC)N(C)C)C

> <PUBCHEM_CACTVS_TPSA>
54.7

> <PUBCHEM_MONOISOTOPIC_WEIGHT>
380.209993

> <PUBCHEM_TOTAL_CHARGE>
0

> <PUBCHEM_HEAVY_ATOM_COUNT>
28

> <PUBCHEM_ATOM_DEF_STEREO_COUNT>
0

> <PUBCHEM_ATOM_UDEF_STEREO_COUNT>
1

> <PUBCHEM_BOND_DEF_STEREO_COUNT>
0

> <PUBCHEM_BOND_UDEF_STEREO_COUNT>
0

> <PUBCHEM_ISOTOPIC_ATOM_COUNT>
0

> <PUBCHEM_COMPONENT_COUNT>
1

> <PUBCHEM_CACTVS_TAUTO_COUNT>
2

> <PUBCHEM_COORDINATE_TYPE>
1
5
255

> <PUBCHEM_BONDANNOTATIONS>
1  12  8
1  21  8
10  12  8
10  20  8
12  14  8
14  19  8
17  23  8
18  24  8
19  22  8
20  22  8
23  26  8
24  26  8
6  7  3
8  17  8
8  18  8
9  10  8
9  21  8

$$$$

