5822
  -OEChem-06261200542D

 27 26  0     0  0  0  0  0  0999 V2000
    6.5380    3.6550    0.0000 Cl  0  0  0  0  0  0  0  0  0  0  0  0
    3.1350    4.5000    0.0000 O   0  0  0  0  0  0  0  0  0  0  0  0
    0.5369    0.0000    0.0000 O   0  5  0  0  0  0  0  0  0  0  0  0
    2.2690    0.0000    0.0000 O   0  0  0  0  0  0  0  0  0  0  0  0
    1.4030    4.5000    0.0000 N   0  0  0  0  0  0  0  0  0  0  0  0
    1.4030    0.5000    0.0000 N   0  3  0  0  0  0  0  0  0  0  0  0
    2.2690    6.0000    0.0000 N   0  0  0  0  0  0  0  0  0  0  0  0
    3.1350    7.5000    0.0000 N   0  0  0  0  0  0  0  0  0  0  0  0
    4.0010    6.0000    0.0000 N   0  0  0  0  0  0  0  0  0  0  0  0
    1.4030    3.5000    0.0000 C   0  0  0  0  0  0  0  0  0  0  0  0
    0.5369    3.0000    0.0000 C   0  0  0  0  0  0  0  0  0  0  0  0
    2.2690    3.0000    0.0000 C   0  0  0  0  0  0  0  0  0  0  0  0
    1.4030    1.5000    0.0000 C   0  0  0  0  0  0  0  0  0  0  0  0
    0.5369    2.0000    0.0000 C   0  0  0  0  0  0  0  0  0  0  0  0
    2.2690    2.0000    0.0000 C   0  0  0  0  0  0  0  0  0  0  0  0
    2.2690    5.0000    0.0000 C   0  0  0  0  0  0  0  0  0  0  0  0
    3.1350    6.5000    0.0000 C   0  0  0  0  0  0  0  0  0  0  0  0
    0.0000    3.3100    0.0000 H   0  0  0  0  0  0  0  0  0  0  0  0
    2.8059    3.3100    0.0000 H   0  0  0  0  0  0  0  0  0  0  0  0
    0.0000    1.6900    0.0000 H   0  0  0  0  0  0  0  0  0  0  0  0
    2.8059    1.6900    0.0000 H   0  0  0  0  0  0  0  0  0  0  0  0
    0.8660    4.8100    0.0000 H   0  0  0  0  0  0  0  0  0  0  0  0
    3.6720    7.8100    0.0000 H   0  0  0  0  0  0  0  0  0  0  0  0
    2.5981    7.8100    0.0000 H   0  0  0  0  0  0  0  0  0  0  0  0
    4.5380    6.3100    0.0000 H   0  0  0  0  0  0  0  0  0  0  0  0
    4.0010    5.3800    0.0000 H   0  0  0  0  0  0  0  0  0  0  0  0
    7.5380    3.6550    0.0000 H   0  0  0  0  0  0  0  0  0  0  0  0
  1 27  1  0  0  0  0
  2 16  2  0  0  0  0
  3  6  1  0  0  0  0
  4  6  2  0  0  0  0
  5 10  1  0  0  0  0
  5 16  1  0  0  0  0
  5 22  1  0  0  0  0
  6 13  1  0  0  0  0
  7 16  1  0  0  0  0
  7 17  2  0  0  0  0
  8 17  1  0  0  0  0
  8 23  1  0  0  0  0
  8 24  1  0  0  0  0
  9 17  1  0  0  0  0
  9 25  1  0  0  0  0
  9 26  1  0  0  0  0
 10 11  2  0  0  0  0
 10 12  1  0  0  0  0
 11 14  1  0  0  0  0
 11 18  1  0  0  0  0
 12 15  2  0  0  0  0
 12 19  1  0  0  0  0
 13 14  2  0  0  0  0
 13 15  1  0  0  0  0
 14 20  1  0  0  0  0
 15 21  1  0  0  0  0
M  CHG  2   3  -1   6   1
M  END
> <PUBCHEM_COMPOUND_CID>
5822

> <PUBCHEM_COMPOUND_CANONICALIZED>
1

> <PUBCHEM_CACTVS_COMPLEXITY>
299

> <PUBCHEM_CACTVS_HBOND_ACCEPTOR>
3

> <PUBCHEM_CACTVS_HBOND_DONOR>
4

> <PUBCHEM_CACTVS_ROTATABLE_BOND>
1

> <PUBCHEM_CACTVS_SUBSKEYS>
AAADccBzsAAEAAAAAAAAAAAAAAAAAAAAAAAwAAAAAAAAAAABAAAAHgAUAAAACAiBEAAxwILQQACpACRCdwCCAAEhAgAoiAAAZIqIICLAkZGEIAhglAJIyCcQAAAAAACAAAAAAAAAAQAAAAAAAAAAAAAAAA==

> <PUBCHEM_IUPAC_OPENEYE_NAME>
1-(diaminomethylene)-3-(4-nitrophenyl)urea hydrochloride

> <PUBCHEM_IUPAC_CAS_NAME>
1-(diaminomethylidene)-3-(4-nitrophenyl)urea hydrochloride

> <PUBCHEM_IUPAC_NAME>
1-(diaminomethylidene)-3-(4-nitrophenyl)urea hydrochloride

> <PUBCHEM_IUPAC_SYSTEMATIC_NAME>
1-[bis(azanyl)methylidene]-3-(4-nitrophenyl)urea hydrochloride

> <PUBCHEM_IUPAC_TRADITIONAL_NAME>
1-(diaminomethylene)-3-(4-nitrophenyl)urea hydrochloride

> <PUBCHEM_IUPAC_INCHI>
InChI=1S/C8H9N5O3.ClH/c9-7(10)12-8(14)11-5-1-3-6(4-2-5)13(15)16;/h1-4H,(H5,9,10,11,12,14);1H

> <PUBCHEM_IUPAC_INCHIKEY>
DPAWTAYKXUVQSN-UHFFFAOYSA-N

> <PUBCHEM_EXACT_MASS>
259.047217

> <PUBCHEM_MOLECULAR_FORMULA>
C8H10ClN5O3

> <PUBCHEM_MOLECULAR_WEIGHT>
259.6497

> <PUBCHEM_OPENEYE_CAN_SMILES>
C1=CC(=CC=C1NC(=O)N=C(N)N)[N+](=O)[O-].Cl

> <PUBCHEM_OPENEYE_ISO_SMILES>
C1=CC(=CC=C1NC(=O)N=C(N)N)[N+](=O)[O-].Cl

> <PUBCHEM_CACTVS_TPSA>
139

> <PUBCHEM_MONOISOTOPIC_WEIGHT>
259.047217

> <PUBCHEM_TOTAL_CHARGE>
0

> <PUBCHEM_HEAVY_ATOM_COUNT>
17

> <PUBCHEM_ATOM_DEF_STEREO_COUNT>
0

> <PUBCHEM_ATOM_UDEF_STEREO_COUNT>
0

> <PUBCHEM_BOND_DEF_STEREO_COUNT>
0

> <PUBCHEM_BOND_UDEF_STEREO_COUNT>
0

> <PUBCHEM_ISOTOPIC_ATOM_COUNT>
0

> <PUBCHEM_COMPONENT_COUNT>
2

> <PUBCHEM_CACTVS_TAUTO_COUNT>
5

> <PUBCHEM_COORDINATE_TYPE>
1
5
255

> <PUBCHEM_BONDANNOTATIONS>
10  11  8
10  12  8
11  14  8
12  15  8
13  14  8
13  15  8

$$$$

