3957
  -OEChem-06251223472D

 50 53  0     0  0  0  0  0  0999 V2000
    2.0000    3.2317    0.0000 Cl  0  0  0  0  0  0  0  0  0  0  0  0
    6.7034   -2.5953    0.0000 O   0  0  0  0  0  0  0  0  0  0  0  0
    4.9714   -2.5953    0.0000 O   0  0  0  0  0  0  0  0  0  0  0  0
    5.8374   -1.0953    0.0000 N   0  0  0  0  0  0  0  0  0  0  0  0
    7.4909    1.6184    0.0000 N   0  0  0  0  0  0  0  0  0  0  0  0
    5.8374    0.9047    0.0000 C   0  0  0  0  0  0  0  0  0  0  0  0
    6.7034    0.4047    0.0000 C   0  0  0  0  0  0  0  0  0  0  0  0
    4.9714    0.4047    0.0000 C   0  0  0  0  0  0  0  0  0  0  0  0
    5.8374    1.9047    0.0000 C   0  0  0  0  0  0  0  0  0  0  0  0
    6.7034   -0.5953    0.0000 C   0  0  0  0  0  0  0  0  0  0  0  0
    4.9714   -0.5953    0.0000 C   0  0  0  0  0  0  0  0  0  0  0  0
    4.9364    2.3386    0.0000 C   0  0  0  0  0  0  0  0  0  0  0  0
    6.7384    2.3386    0.0000 C   0  0  0  0  0  0  0  0  0  0  0  0
    4.7139    3.3135    0.0000 C   0  0  0  0  0  0  0  0  0  0  0  0
    5.3374    4.0953    0.0000 C   0  0  0  0  0  0  0  0  0  0  0  0
    6.3374    4.0953    0.0000 C   0  0  0  0  0  0  0  0  0  0  0  0
    6.9609    3.3135    0.0000 C   0  0  0  0  0  0  0  0  0  0  0  0
    4.1839    1.6184    0.0000 C   0  0  0  0  0  0  0  0  0  0  0  0
    5.8374   -2.0953    0.0000 C   0  0  0  0  0  0  0  0  0  0  0  0
    3.7234    3.6358    0.0000 C   0  0  0  0  0  0  0  0  0  0  0  0
    7.9514    3.6358    0.0000 C   0  0  0  0  0  0  0  0  0  0  0  0
    3.1862    1.9178    0.0000 C   0  0  0  0  0  0  0  0  0  0  0  0
    2.9544    2.9333    0.0000 C   0  0  0  0  0  0  0  0  0  0  0  0
    8.7204    2.9332    0.0000 C   0  0  0  0  0  0  0  0  0  0  0  0
    8.4886    1.9177    0.0000 C   0  0  0  0  0  0  0  0  0  0  0  0
    6.7034   -3.5953    0.0000 C   0  0  0  0  0  0  0  0  0  0  0  0
    7.5694   -4.0953    0.0000 C   0  0  0  0  0  0  0  0  0  0  0  0
    4.7593    0.9873    0.0000 H   0  0  0  0  0  0  0  0  0  0  0  0
    4.3608    0.2970    0.0000 H   0  0  0  0  0  0  0  0  0  0  0  0
    7.3140    0.2970    0.0000 H   0  0  0  0  0  0  0  0  0  0  0  0
    6.9155    0.9873    0.0000 H   0  0  0  0  0  0  0  0  0  0  0  0
    4.3608   -0.4876    0.0000 H   0  0  0  0  0  0  0  0  0  0  0  0
    4.7593   -1.1779    0.0000 H   0  0  0  0  0  0  0  0  0  0  0  0
    6.9155   -1.1779    0.0000 H   0  0  0  0  0  0  0  0  0  0  0  0
    7.3140   -0.4877    0.0000 H   0  0  0  0  0  0  0  0  0  0  0  0
    5.4754    4.6998    0.0000 H   0  0  0  0  0  0  0  0  0  0  0  0
    4.7788    4.3643    0.0000 H   0  0  0  0  0  0  0  0  0  0  0  0
    6.8960    4.3643    0.0000 H   0  0  0  0  0  0  0  0  0  0  0  0
    6.1995    4.6998    0.0000 H   0  0  0  0  0  0  0  0  0  0  0  0
    4.3288    1.0156    0.0000 H   0  0  0  0  0  0  0  0  0  0  0  0
    3.5925    4.2419    0.0000 H   0  0  0  0  0  0  0  0  0  0  0  0
    8.0824    4.2418    0.0000 H   0  0  0  0  0  0  0  0  0  0  0  0
    2.7333    1.4943    0.0000 H   0  0  0  0  0  0  0  0  0  0  0  0
    9.3122    3.1183    0.0000 H   0  0  0  0  0  0  0  0  0  0  0  0
    8.9415    1.4942    0.0000 H   0  0  0  0  0  0  0  0  0  0  0  0
    6.0928   -3.4877    0.0000 H   0  0  0  0  0  0  0  0  0  0  0  0
    6.4914   -4.1779    0.0000 H   0  0  0  0  0  0  0  0  0  0  0  0
    7.2594   -4.6323    0.0000 H   0  0  0  0  0  0  0  0  0  0  0  0
    8.1064   -4.4053    0.0000 H   0  0  0  0  0  0  0  0  0  0  0  0
    7.8794   -3.5584    0.0000 H   0  0  0  0  0  0  0  0  0  0  0  0
  1 23  1  0  0  0  0
  2 19  1  0  0  0  0
  2 26  1  0  0  0  0
  3 19  2  0  0  0  0
  4 10  1  0  0  0  0
  4 11  1  0  0  0  0
  4 19  1  0  0  0  0
  5 13  1  0  0  0  0
  5 25  2  0  0  0  0
  6  7  1  0  0  0  0
  6  8  1  0  0  0  0
  6  9  2  0  0  0  0
  7 10  1  0  0  0  0
  7 30  1  0  0  0  0
  7 31  1  0  0  0  0
  8 11  1  0  0  0  0
  8 28  1  0  0  0  0
  8 29  1  0  0  0  0
  9 12  1  0  0  0  0
  9 13  1  0  0  0  0
 10 34  1  0  0  0  0
 10 35  1  0  0  0  0
 11 32  1  0  0  0  0
 11 33  1  0  0  0  0
 12 14  2  0  0  0  0
 12 18  1  0  0  0  0
 13 17  2  0  0  0  0
 14 15  1  0  0  0  0
 14 20  1  0  0  0  0
 15 16  1  0  0  0  0
 15 36  1  0  0  0  0
 15 37  1  0  0  0  0
 16 17  1  0  0  0  0
 16 38  1  0  0  0  0
 16 39  1  0  0  0  0
 17 21  1  0  0  0  0
 18 22  2  0  0  0  0
 18 40  1  0  0  0  0
 20 23  2  0  0  0  0
 20 41  1  0  0  0  0
 21 24  2  0  0  0  0
 21 42  1  0  0  0  0
 22 23  1  0  0  0  0
 22 43  1  0  0  0  0
 24 25  1  0  0  0  0
 24 44  1  0  0  0  0
 25 45  1  0  0  0  0
 26 27  1  0  0  0  0
 26 46  1  0  0  0  0
 26 47  1  0  0  0  0
 27 48  1  0  0  0  0
 27 49  1  0  0  0  0
 27 50  1  0  0  0  0
M  END
> <PUBCHEM_COMPOUND_CID>
3957

> <PUBCHEM_COMPOUND_CANONICALIZED>
1

> <PUBCHEM_CACTVS_COMPLEXITY>
569

> <PUBCHEM_CACTVS_HBOND_ACCEPTOR>
3

> <PUBCHEM_CACTVS_HBOND_DONOR>
0

> <PUBCHEM_CACTVS_ROTATABLE_BOND>
2

> <PUBCHEM_CACTVS_SUBSKEYS>
AAADceB7MAAEAAAAAAAAAAAAAAAAAAAAAAA8WIAABgAAAAABwAAAHgIAAAAADArhniY+iJMIFACoAzRnXACCgCAxByAI2CA4ZpgIIOLBk5GMIAhghgDIyAcQgMAOhAAAIAAQAAAIAABAACAAAAAAAAAAAA==

> <PUBCHEM_IUPAC_OPENEYE_NAME>
ethyl 4-(8-chloro-5,6-dihydrobenzo[1,2]cyclohepta[2,4-b]pyridin-11-ylidene)piperidine-1-carboxylate

> <PUBCHEM_IUPAC_CAS_NAME>
4-(8-chloro-5,6-dihydrobenzo[1,2]cyclohepta[2,4-b]pyridin-11-ylidene)-1-piperidinecarboxylic acid ethyl ester

> <PUBCHEM_IUPAC_NAME>
ethyl 4-(8-chloro-5,6-dihydrobenzo[1,2]cyclohepta[2,4-b]pyridin-11-ylidene)piperidine-1-carboxylate

> <PUBCHEM_IUPAC_SYSTEMATIC_NAME>
ethyl 4-(8-chloranyl-5,6-dihydrobenzo[1,2]cyclohepta[2,4-b]pyridin-11-ylidene)piperidine-1-carboxylate

> <PUBCHEM_IUPAC_TRADITIONAL_NAME>
4-(8-chloro-5,6-dihydrobenzo[1,2]cyclohepta[2,4-b]pyridin-11-ylidene)piperidine-1-carboxylic acid ethyl ester

> <PUBCHEM_IUPAC_INCHI>
InChI=1S/C22H23ClN2O2/c1-2-27-22(26)25-12-9-15(10-13-25)20-19-8-7-18(23)14-17(19)6-5-16-4-3-11-24-21(16)20/h3-4,7-8,11,14H,2,5-6,9-10,12-13H2,1H3

> <PUBCHEM_IUPAC_INCHIKEY>
JCCNYMKQOSZNPW-UHFFFAOYSA-N

> <PUBCHEM_XLOGP3>
5.2

> <PUBCHEM_EXACT_MASS>
382.144806

> <PUBCHEM_MOLECULAR_FORMULA>
C22H23ClN2O2

> <PUBCHEM_MOLECULAR_WEIGHT>
382.88322

> <PUBCHEM_OPENEYE_CAN_SMILES>
CCOC(=O)N1CCC(=C2C3=C(CCC4=C2N=CC=C4)C=C(C=C3)Cl)CC1

> <PUBCHEM_OPENEYE_ISO_SMILES>
CCOC(=O)N1CCC(=C2C3=C(CCC4=C2N=CC=C4)C=C(C=C3)Cl)CC1

> <PUBCHEM_CACTVS_TPSA>
42.4

> <PUBCHEM_MONOISOTOPIC_WEIGHT>
382.144806

> <PUBCHEM_TOTAL_CHARGE>
0

> <PUBCHEM_HEAVY_ATOM_COUNT>
27

> <PUBCHEM_ATOM_DEF_STEREO_COUNT>
0

> <PUBCHEM_ATOM_UDEF_STEREO_COUNT>
0

> <PUBCHEM_BOND_DEF_STEREO_COUNT>
0

> <PUBCHEM_BOND_UDEF_STEREO_COUNT>
0

> <PUBCHEM_ISOTOPIC_ATOM_COUNT>
0

> <PUBCHEM_COMPONENT_COUNT>
1

> <PUBCHEM_CACTVS_TAUTO_COUNT>
1

> <PUBCHEM_COORDINATE_TYPE>
1
5
255

> <PUBCHEM_BONDANNOTATIONS>
12  14  8
12  18  8
13  17  8
14  20  8
17  21  8
18  22  8
20  23  8
21  24  8
22  23  8
24  25  8
5  13  8
5  25  8

$$$$

