10670
  -OEChem-06261204492D

 46 47  0     0  0  0  0  0  0999 V2000
    3.9001    0.0000    0.0000 Cl  0  0  0  0  0  0  0  0  0  0  0  0
    1.4030    7.2051    0.0000 O   0  0  0  0  0  0  0  0  0  0  0  0
    4.9473    5.4003    0.0000 N   0  0  0  0  0  0  0  0  0  0  0  0
    6.5471    9.1171    0.0000 N   0  0  0  0  0  0  0  0  0  0  0  0
    4.9473    7.0098    0.0000 C   0  0  0  0  0  0  0  0  0  0  0  0
    5.5309    6.2051    0.0000 C   0  0  0  0  0  0  0  0  0  0  0  0
    4.0010    6.7051    0.0000 C   0  0  0  0  0  0  0  0  0  0  0  0
    4.0010    5.7051    0.0000 C   0  0  0  0  0  0  0  0  0  0  0  0
    5.2579    7.9603    0.0000 C   0  0  0  0  0  0  0  0  0  0  0  0
    5.2579    4.4498    0.0000 C   0  0  0  0  0  0  0  0  0  0  0  0
    3.1350    7.2051    0.0000 C   0  0  0  0  0  0  0  0  0  0  0  0
    3.1350    5.2051    0.0000 C   0  0  0  0  0  0  0  0  0  0  0  0
    6.5309    6.2051    0.0000 C   0  0  0  0  0  0  0  0  0  0  0  0
    6.2364    8.1665    0.0000 C   0  0  0  0  0  0  0  0  0  0  0  0
    6.2364    4.2436    0.0000 C   0  0  0  0  0  0  0  0  0  0  0  0
    2.2690    6.7051    0.0000 C   0  0  0  0  0  0  0  0  0  0  0  0
    2.2690    5.7051    0.0000 C   0  0  0  0  0  0  0  0  0  0  0  0
    6.5471    3.2931    0.0000 C   0  0  0  0  0  0  0  0  0  0  0  0
    6.9043    4.9879    0.0000 C   0  0  0  0  0  0  0  0  0  0  0  0
    7.5256    3.0869    0.0000 C   0  0  0  0  0  0  0  0  0  0  0  0
    7.8828    4.7817    0.0000 C   0  0  0  0  0  0  0  0  0  0  0  0
    8.1934    3.8312    0.0000 C   0  0  0  0  0  0  0  0  0  0  0  0
    0.5369    6.7051    0.0000 C   0  0  0  0  0  0  0  0  0  0  0  0
    5.2374    8.5800    0.0000 H   0  0  0  0  0  0  0  0  0  0  0  0
    4.6441    8.0477    0.0000 H   0  0  0  0  0  0  0  0  0  0  0  0
    4.6441    4.3625    0.0000 H   0  0  0  0  0  0  0  0  0  0  0  0
    5.2374    3.8302    0.0000 H   0  0  0  0  0  0  0  0  0  0  0  0
    3.1350    7.8251    0.0000 H   0  0  0  0  0  0  0  0  0  0  0  0
    3.1350    4.5851    0.0000 H   0  0  0  0  0  0  0  0  0  0  0  0
    6.5309    5.5851    0.0000 H   0  0  0  0  0  0  0  0  0  0  0  0
    7.1509    6.2051    0.0000 H   0  0  0  0  0  0  0  0  0  0  0  0
    6.5309    6.8251    0.0000 H   0  0  0  0  0  0  0  0  0  0  0  0
    6.2570    7.5469    0.0000 H   0  0  0  0  0  0  0  0  0  0  0  0
    6.8502    8.0792    0.0000 H   0  0  0  0  0  0  0  0  0  0  0  0
    1.7320    5.3951    0.0000 H   0  0  0  0  0  0  0  0  0  0  0  0
    6.1330    2.8316    0.0000 H   0  0  0  0  0  0  0  0  0  0  0  0
    6.7117    5.5772    0.0000 H   0  0  0  0  0  0  0  0  0  0  0  0
    7.1538    9.2449    0.0000 H   0  0  0  0  0  0  0  0  0  0  0  0
    6.1330    9.5785    0.0000 H   0  0  0  0  0  0  0  0  0  0  0  0
    7.7182    2.4975    0.0000 H   0  0  0  0  0  0  0  0  0  0  0  0
    8.2968    5.2431    0.0000 H   0  0  0  0  0  0  0  0  0  0  0  0
    8.8001    3.7033    0.0000 H   0  0  0  0  0  0  0  0  0  0  0  0
    0.2269    7.2420    0.0000 H   0  0  0  0  0  0  0  0  0  0  0  0
    0.0000    6.3951    0.0000 H   0  0  0  0  0  0  0  0  0  0  0  0
    0.8469    6.1681    0.0000 H   0  0  0  0  0  0  0  0  0  0  0  0
    4.9001    0.0000    0.0000 H   0  0  0  0  0  0  0  0  0  0  0  0
  1 46  1  0  0  0  0
  2 16  1  0  0  0  0
  2 23  1  0  0  0  0
  3  6  1  0  0  0  0
  3  8  1  0  0  0  0
  3 10  1  0  0  0  0
  4 14  1  0  0  0  0
  4 38  1  0  0  0  0
  4 39  1  0  0  0  0
  5  6  2  0  0  0  0
  5  7  1  0  0  0  0
  5  9  1  0  0  0  0
  6 13  1  0  0  0  0
  7  8  2  0  0  0  0
  7 11  1  0  0  0  0
  8 12  1  0  0  0  0
  9 14  1  0  0  0  0
  9 24  1  0  0  0  0
  9 25  1  0  0  0  0
 10 15  1  0  0  0  0
 10 26  1  0  0  0  0
 10 27  1  0  0  0  0
 11 16  2  0  0  0  0
 11 28  1  0  0  0  0
 12 17  2  0  0  0  0
 12 29  1  0  0  0  0
 13 30  1  0  0  0  0
 13 31  1  0  0  0  0
 13 32  1  0  0  0  0
 14 33  1  0  0  0  0
 14 34  1  0  0  0  0
 15 18  2  0  0  0  0
 15 19  1  0  0  0  0
 16 17  1  0  0  0  0
 17 35  1  0  0  0  0
 18 20  1  0  0  0  0
 18 36  1  0  0  0  0
 19 21  2  0  0  0  0
 19 37  1  0  0  0  0
 20 22  2  0  0  0  0
 20 40  1  0  0  0  0
 21 22  1  0  0  0  0
 21 41  1  0  0  0  0
 22 42  1  0  0  0  0
 23 43  1  0  0  0  0
 23 44  1  0  0  0  0
 23 45  1  0  0  0  0
M  END
> <PUBCHEM_COMPOUND_CID>
10670

> <PUBCHEM_COMPOUND_CANONICALIZED>
1

> <PUBCHEM_CACTVS_COMPLEXITY>
342

> <PUBCHEM_CACTVS_HBOND_ACCEPTOR>
2

> <PUBCHEM_CACTVS_HBOND_DONOR>
2

> <PUBCHEM_CACTVS_ROTATABLE_BOND>
5

> <PUBCHEM_CACTVS_SUBSKEYS>
AAADceB7IAAEAAAAAAAAAAAAAAAAAWAAAAAwYAAAAAAAAFgB9AAAHgAQAAAADAzBngYyxvNMFACgAyRiRACCiCAhIiAI2KA+bJgMJuLEsZuEMChk0BHI6Aew0PMOgEABAAACAAAAgAIAAAQAAAAAAAAAAA==

> <PUBCHEM_IUPAC_OPENEYE_NAME>
2-(1-benzyl-5-methoxy-2-methyl-indol-3-yl)ethanamine hydrochloride

> <PUBCHEM_IUPAC_CAS_NAME>
2-[5-methoxy-2-methyl-1-(phenylmethyl)-3-indolyl]ethanamine hydrochloride

> <PUBCHEM_IUPAC_NAME>
2-(1-benzyl-5-methoxy-2-methylindol-3-yl)ethanamine hydrochloride

> <PUBCHEM_IUPAC_SYSTEMATIC_NAME>
2-[5-methoxy-2-methyl-1-(phenylmethyl)indol-3-yl]ethanamine hydrochloride

> <PUBCHEM_IUPAC_TRADITIONAL_NAME>
2-(1-benzyl-5-methoxy-2-methyl-indol-3-yl)ethylamine hydrochloride

> <PUBCHEM_IUPAC_INCHI>
InChI=1S/C19H22N2O.ClH/c1-14-17(10-11-20)18-12-16(22-2)8-9-19(18)21(14)13-15-6-4-3-5-7-15;/h3-9,12H,10-11,13,20H2,1-2H3;1H

> <PUBCHEM_IUPAC_INCHIKEY>
HEVSQLIUCMHBPN-UHFFFAOYSA-N

> <PUBCHEM_EXACT_MASS>
330.149891

> <PUBCHEM_MOLECULAR_FORMULA>
C19H23ClN2O

> <PUBCHEM_MOLECULAR_WEIGHT>
330.85172

> <PUBCHEM_OPENEYE_CAN_SMILES>
CC1=C(C2=C(N1CC3=CC=CC=C3)C=CC(=C2)OC)CCN.Cl

> <PUBCHEM_OPENEYE_ISO_SMILES>
CC1=C(C2=C(N1CC3=CC=CC=C3)C=CC(=C2)OC)CCN.Cl

> <PUBCHEM_CACTVS_TPSA>
40.2

> <PUBCHEM_MONOISOTOPIC_WEIGHT>
330.149891

> <PUBCHEM_TOTAL_CHARGE>
0

> <PUBCHEM_HEAVY_ATOM_COUNT>
23

> <PUBCHEM_ATOM_DEF_STEREO_COUNT>
0

> <PUBCHEM_ATOM_UDEF_STEREO_COUNT>
0

> <PUBCHEM_BOND_DEF_STEREO_COUNT>
0

> <PUBCHEM_BOND_UDEF_STEREO_COUNT>
0

> <PUBCHEM_ISOTOPIC_ATOM_COUNT>
0

> <PUBCHEM_COMPONENT_COUNT>
2

> <PUBCHEM_CACTVS_TAUTO_COUNT>
1

> <PUBCHEM_COORDINATE_TYPE>
1
5
255

> <PUBCHEM_BONDANNOTATIONS>
11  16  8
12  17  8
15  18  8
15  19  8
16  17  8
18  20  8
19  21  8
20  22  8
21  22  8
3  6  8
3  8  8
5  6  8
5  7  8
7  11  8
7  8  8
8  12  8

$$$$

