17395697
  -OEChem-06241222512D

 37 38  0     0  0  0  0  0  0999 V2000
    7.5891   -0.8412    0.0000 S   0  0  0  0  0  0  0  0  0  0  0  0
    2.5878    2.4105    0.0000 O   0  0  0  0  0  0  0  0  0  0  0  0
    7.1733    1.1151    0.0000 O   0  0  0  0  0  0  0  0  0  0  0  0
    3.9890    3.4286    0.0000 O   0  0  0  0  0  0  0  0  0  0  0  0
    4.6701    0.1672    0.0000 N   0  0  0  0  0  0  0  0  0  0  0  0
    8.7106   -2.2261    0.0000 N   0  0  0  0  0  0  0  0  0  0  0  0
    7.1279   -2.5625    0.0000 N   0  0  0  0  0  0  0  0  0  0  0  0
    7.6279   -3.4286    0.0000 N   0  0  0  0  0  0  0  0  0  0  0  0
    5.1701    1.7060    0.0000 C   0  0  0  0  0  0  0  0  0  0  0  0
    5.4791    0.7549    0.0000 C   0  0  0  0  0  0  0  0  0  0  0  0
    4.1701    1.7060    0.0000 C   0  0  0  0  0  0  0  0  0  0  0  0
    3.8611    0.7549    0.0000 C   0  0  0  0  0  0  0  0  0  0  0  0
    6.4302    0.4459    0.0000 C   0  0  0  0  0  0  0  0  0  0  0  0
    5.7579    2.5150    0.0000 C   0  0  0  0  0  0  0  0  0  0  0  0
    2.9100    0.4459    0.0000 C   0  0  0  0  0  0  0  0  0  0  0  0
    6.6381   -0.5322    0.0000 C   0  0  0  0  0  0  0  0  0  0  0  0
    3.5823    2.5150    0.0000 C   0  0  0  0  0  0  0  0  0  0  0  0
    7.7970   -1.8194    0.0000 C   0  0  0  0  0  0  0  0  0  0  0  0
    9.5766   -1.7261    0.0000 C   0  0  0  0  0  0  0  0  0  0  0  0
    8.6061   -3.2206    0.0000 C   0  0  0  0  0  0  0  0  0  0  0  0
    2.0000    3.2195    0.0000 C   0  0  0  0  0  0  0  0  0  0  0  0
    4.6701   -0.4528    0.0000 H   0  0  0  0  0  0  0  0  0  0  0  0
    6.2595    2.1506    0.0000 H   0  0  0  0  0  0  0  0  0  0  0  0
    6.1223    3.0166    0.0000 H   0  0  0  0  0  0  0  0  0  0  0  0
    5.2563    2.8794    0.0000 H   0  0  0  0  0  0  0  0  0  0  0  0
    2.7184    1.0356    0.0000 H   0  0  0  0  0  0  0  0  0  0  0  0
    2.3204    0.2543    0.0000 H   0  0  0  0  0  0  0  0  0  0  0  0
    3.1016   -0.1437    0.0000 H   0  0  0  0  0  0  0  0  0  0  0  0
    6.0185   -0.5539    0.0000 H   0  0  0  0  0  0  0  0  0  0  0  0
    6.5518   -1.1462    0.0000 H   0  0  0  0  0  0  0  0  0  0  0  0
    9.8866   -2.2631    0.0000 H   0  0  0  0  0  0  0  0  0  0  0  0
   10.1136   -1.4161    0.0000 H   0  0  0  0  0  0  0  0  0  0  0  0
    9.2666   -1.1892    0.0000 H   0  0  0  0  0  0  0  0  0  0  0  0
    9.0668   -3.6355    0.0000 H   0  0  0  0  0  0  0  0  0  0  0  0
    2.5016    3.5839    0.0000 H   0  0  0  0  0  0  0  0  0  0  0  0
    1.6356    3.7211    0.0000 H   0  0  0  0  0  0  0  0  0  0  0  0
    1.4984    2.8551    0.0000 H   0  0  0  0  0  0  0  0  0  0  0  0
  1 16  1  0  0  0  0
  1 18  1  0  0  0  0
  2 17  1  0  0  0  0
  2 21  1  0  0  0  0
  3 13  2  0  0  0  0
  4 17  2  0  0  0  0
  5 10  1  0  0  0  0
  5 12  1  0  0  0  0
  5 22  1  0  0  0  0
  6 18  1  0  0  0  0
  6 19  1  0  0  0  0
  6 20  1  0  0  0  0
  7  8  1  0  0  0  0
  7 18  2  0  0  0  0
  8 20  2  0  0  0  0
  9 10  2  0  0  0  0
  9 11  1  0  0  0  0
  9 14  1  0  0  0  0
 10 13  1  0  0  0  0
 11 12  2  0  0  0  0
 11 17  1  0  0  0  0
 12 15  1  0  0  0  0
 13 16  1  0  0  0  0
 14 23  1  0  0  0  0
 14 24  1  0  0  0  0
 14 25  1  0  0  0  0
 15 26  1  0  0  0  0
 15 27  1  0  0  0  0
 15 28  1  0  0  0  0
 16 29  1  0  0  0  0
 16 30  1  0  0  0  0
 19 31  1  0  0  0  0
 19 32  1  0  0  0  0
 19 33  1  0  0  0  0
 20 34  1  0  0  0  0
 21 35  1  0  0  0  0
 21 36  1  0  0  0  0
 21 37  1  0  0  0  0
M  END
> <PUBCHEM_COMPOUND_CID>
17395697

> <PUBCHEM_COMPOUND_CANONICALIZED>
1

> <PUBCHEM_CACTVS_COMPLEXITY>
409

> <PUBCHEM_CACTVS_HBOND_ACCEPTOR>
6

> <PUBCHEM_CACTVS_HBOND_DONOR>
1

> <PUBCHEM_CACTVS_ROTATABLE_BOND>
6

> <PUBCHEM_CACTVS_SUBSKEYS>
AAADceBzsABAAAAAAAAAAAAAAAAAAWLAAAAAAAAAAAAAAAAB4AAAHgQYAAAADAyF3gaHmJfNlAiqA4TxbACS0Ct3gLAF2SG4TNiILnrgtLmEEYhm0AHI6Ue8zwA+gAAAAAAAAAAAAAAAAAAAAAAAAAAAAA==

> <PUBCHEM_IUPAC_OPENEYE_NAME>
methyl 2,4-dimethyl-5-[2-[(4-methyl-1,2,4-triazol-3-yl)sulfanyl]acetyl]-1H-pyrrole-3-carboxylate

> <PUBCHEM_IUPAC_CAS_NAME>
2,4-dimethyl-5-[2-[(4-methyl-1,2,4-triazol-3-yl)thio]-1-oxoethyl]-1H-pyrrole-3-carboxylic acid methyl ester

> <PUBCHEM_IUPAC_NAME>
methyl 2,4-dimethyl-5-[2-[(4-methyl-1,2,4-triazol-3-yl)sulfanyl]acetyl]-1H-pyrrole-3-carboxylate

> <PUBCHEM_IUPAC_SYSTEMATIC_NAME>
methyl 2,4-dimethyl-5-[2-[(4-methyl-1,2,4-triazol-3-yl)sulfanyl]ethanoyl]-1H-pyrrole-3-carboxylate

> <PUBCHEM_IUPAC_TRADITIONAL_NAME>
2,4-dimethyl-5-[2-[(4-methyl-1,2,4-triazol-3-yl)thio]acetyl]-1H-pyrrole-3-carboxylic acid methyl ester

> <PUBCHEM_IUPAC_INCHI>
InChI=1S/C13H16N4O3S/c1-7-10(12(19)20-4)8(2)15-11(7)9(18)5-21-13-16-14-6-17(13)3/h6,15H,5H2,1-4H3

> <PUBCHEM_IUPAC_INCHIKEY>
BSAPZZAGDHTOII-UHFFFAOYSA-N

> <PUBCHEM_XLOGP3_AA>
1.4

> <PUBCHEM_EXACT_MASS>
308.094311

> <PUBCHEM_MOLECULAR_FORMULA>
C13H16N4O3S

> <PUBCHEM_MOLECULAR_WEIGHT>
308.35614

> <PUBCHEM_OPENEYE_CAN_SMILES>
CC1=C(NC(=C1C(=O)OC)C)C(=O)CSC2=NN=CN2C

> <PUBCHEM_OPENEYE_ISO_SMILES>
CC1=C(NC(=C1C(=O)OC)C)C(=O)CSC2=NN=CN2C

> <PUBCHEM_CACTVS_TPSA>
115

> <PUBCHEM_MONOISOTOPIC_WEIGHT>
308.094311

> <PUBCHEM_TOTAL_CHARGE>
0

> <PUBCHEM_HEAVY_ATOM_COUNT>
21

> <PUBCHEM_ATOM_DEF_STEREO_COUNT>
0

> <PUBCHEM_ATOM_UDEF_STEREO_COUNT>
0

> <PUBCHEM_BOND_DEF_STEREO_COUNT>
0

> <PUBCHEM_BOND_UDEF_STEREO_COUNT>
0

> <PUBCHEM_ISOTOPIC_ATOM_COUNT>
0

> <PUBCHEM_COMPONENT_COUNT>
1

> <PUBCHEM_CACTVS_TAUTO_COUNT>
33

> <PUBCHEM_COORDINATE_TYPE>
1
5
255

> <PUBCHEM_BONDANNOTATIONS>
11  12  8
5  10  8
5  12  8
6  18  8
6  20  8
7  18  8
7  8  8
8  20  8
9  10  8
9  11  8

$$$$

