10581
  -OEChem-06261204422D

 26 26  0     1  0  0  0  0  0999 V2000
    3.7320    0.5670    0.0000 C   0  0  0  0  0  0  0  0  0  0  0  0
    2.8660    0.0670    0.0000 C   0  0  3  0  0  0  0  0  0  0  0  0
    2.8660   -0.9330    0.0000 C   0  0  0  0  0  0  0  0  0  0  0  0
    4.5981    0.0670    0.0000 C   0  0  0  0  0  0  0  0  0  0  0  0
    4.2320    1.4330    0.0000 C   0  0  0  0  0  0  0  0  0  0  0  0
    3.2320    1.4330    0.0000 C   0  0  0  0  0  0  0  0  0  0  0  0
    2.0000    0.5670    0.0000 C   0  0  0  0  0  0  0  0  0  0  0  0
    3.7320   -1.4330    0.0000 C   0  0  0  0  0  0  0  0  0  0  0  0
    4.5981   -0.9330    0.0000 C   0  0  0  0  0  0  0  0  0  0  0  0
    2.0000   -1.4330    0.0000 C   0  0  0  0  0  0  0  0  0  0  0  0
    2.8660    0.6870    0.0000 H   0  0  0  0  0  0  0  0  0  0  0  0
    5.1350    0.3770    0.0000 H   0  0  0  0  0  0  0  0  0  0  0  0
    3.7690    1.7430    0.0000 H   0  0  0  0  0  0  0  0  0  0  0  0
    2.9220    1.9700    0.0000 H   0  0  0  0  0  0  0  0  0  0  0  0
    2.6951    1.1230    0.0000 H   0  0  0  0  0  0  0  0  0  0  0  0
    4.7690    1.1230    0.0000 H   0  0  0  0  0  0  0  0  0  0  0  0
    4.5420    1.9700    0.0000 H   0  0  0  0  0  0  0  0  0  0  0  0
    3.6951    1.7430    0.0000 H   0  0  0  0  0  0  0  0  0  0  0  0
    2.3100    1.1039    0.0000 H   0  0  0  0  0  0  0  0  0  0  0  0
    1.4631    0.8770    0.0000 H   0  0  0  0  0  0  0  0  0  0  0  0
    1.6900    0.0301    0.0000 H   0  0  0  0  0  0  0  0  0  0  0  0
    3.7320   -2.0530    0.0000 H   0  0  0  0  0  0  0  0  0  0  0  0
    5.1350   -1.2430    0.0000 H   0  0  0  0  0  0  0  0  0  0  0  0
    1.6900   -0.8961    0.0000 H   0  0  0  0  0  0  0  0  0  0  0  0
    1.4631   -1.7430    0.0000 H   0  0  0  0  0  0  0  0  0  0  0  0
    2.3100   -1.9700    0.0000 H   0  0  0  0  0  0  0  0  0  0  0  0
  1  2  1  0  0  0  0
  1  4  1  0  0  0  0
  1  5  1  0  0  0  0
  1  6  1  0  0  0  0
  2  3  1  0  0  0  0
  2  7  1  0  0  0  0
  2 11  1  0  0  0  0
  3  8  2  0  0  0  0
  3 10  1  0  0  0  0
  4  9  2  0  0  0  0
  4 12  1  0  0  0  0
  5 16  1  0  0  0  0
  5 17  1  0  0  0  0
  5 18  1  0  0  0  0
  6 13  1  0  0  0  0
  6 14  1  0  0  0  0
  6 15  1  0  0  0  0
  7 19  1  0  0  0  0
  7 20  1  0  0  0  0
  7 21  1  0  0  0  0
  8  9  1  0  0  0  0
  8 22  1  0  0  0  0
  9 23  1  0  0  0  0
 10 24  1  0  0  0  0
 10 25  1  0  0  0  0
 10 26  1  0  0  0  0
M  END
> <PUBCHEM_COMPOUND_CID>
10581

> <PUBCHEM_COMPOUND_CANONICALIZED>
1

> <PUBCHEM_CACTVS_COMPLEXITY>
182

> <PUBCHEM_CACTVS_HBOND_ACCEPTOR>
0

> <PUBCHEM_CACTVS_HBOND_DONOR>
0

> <PUBCHEM_CACTVS_ROTATABLE_BOND>
0

> <PUBCHEM_CACTVS_SUBSKEYS>
AAADceBwAAAAAAAAAAAAAAAAAAAAAAAAAAAgAAAAAAAAAAAAAAAAGAAAAAAADwCAAAACAAAAAACAAiBCAAAAAAAgAAAICAAAAAgIAAIAAQAAAAAAgAAIgAIAAAAPgAAAAAAAAAAAAAAAAAAAAAAAAAAAAA==

> <PUBCHEM_IUPAC_OPENEYE_NAME>
1,5,5,6-tetramethylcyclohexa-1,3-diene

> <PUBCHEM_IUPAC_CAS_NAME>
1,5,5,6-tetramethylcyclohexa-1,3-diene

> <PUBCHEM_IUPAC_NAME>
1,5,5,6-tetramethylcyclohexa-1,3-diene

> <PUBCHEM_IUPAC_SYSTEMATIC_NAME>
1,5,5,6-tetramethylcyclohexa-1,3-diene

> <PUBCHEM_IUPAC_TRADITIONAL_NAME>
1,5,5,6-tetramethylcyclohexa-1,3-diene

> <PUBCHEM_IUPAC_INCHI>
InChI=1S/C10H16/c1-8-6-5-7-10(3,4)9(8)2/h5-7,9H,1-4H3

> <PUBCHEM_IUPAC_INCHIKEY>
LKNRSUKTEIJIAS-UHFFFAOYSA-N

> <PUBCHEM_XLOGP3_AA>
3.3

> <PUBCHEM_EXACT_MASS>
136.125201

> <PUBCHEM_MOLECULAR_FORMULA>
C10H16

> <PUBCHEM_MOLECULAR_WEIGHT>
136.23404

> <PUBCHEM_OPENEYE_CAN_SMILES>
CC1C(=CC=CC1(C)C)C

> <PUBCHEM_OPENEYE_ISO_SMILES>
CC1C(=CC=CC1(C)C)C

> <PUBCHEM_CACTVS_TPSA>
0

> <PUBCHEM_MONOISOTOPIC_WEIGHT>
136.125201

> <PUBCHEM_TOTAL_CHARGE>
0

> <PUBCHEM_HEAVY_ATOM_COUNT>
10

> <PUBCHEM_ATOM_DEF_STEREO_COUNT>
0

> <PUBCHEM_ATOM_UDEF_STEREO_COUNT>
1

> <PUBCHEM_BOND_DEF_STEREO_COUNT>
0

> <PUBCHEM_BOND_UDEF_STEREO_COUNT>
0

> <PUBCHEM_ISOTOPIC_ATOM_COUNT>
0

> <PUBCHEM_COMPONENT_COUNT>
1

> <PUBCHEM_CACTVS_TAUTO_COUNT>
1

> <PUBCHEM_COORDINATE_TYPE>
1
5
255

> <PUBCHEM_BONDANNOTATIONS>
2  7  3

$$$$

