4210
  -OEChem-06251223572D

 38 40  0     1  0  0  0  0  0999 V2000
    7.5870    1.4200    0.0000 O   0  0  0  0  0  0  0  0  0  0  0  0
    3.3823   -1.4224    0.0000 O   0  0  0  0  0  0  0  0  0  0  0  0
    4.6397    2.4476    0.0000 O   0  0  0  0  0  0  0  0  0  0  0  0
    7.7680    3.1425    0.0000 O   0  0  0  0  0  0  0  0  0  0  0  0
    5.5047   -0.8234    0.0000 N   0  0  0  0  0  0  0  0  0  0  0  0
    7.3962   -2.5761    0.0000 N   0  0  0  0  0  0  0  0  0  0  0  0
    2.6330    2.0372    0.0000 N   0  0  0  0  0  0  0  0  0  0  0  0
    9.1693    2.1245    0.0000 N   0  0  0  0  0  0  0  0  0  0  0  0
    6.3137   -0.2356    0.0000 C   0  0  0  0  0  0  0  0  0  0  0  0
    6.8084   -1.7671    0.0000 C   0  0  3  0  0  0  0  0  0  0  0  0
    5.8143   -1.7680    0.0000 C   0  0  0  0  0  0  0  0  0  0  0  0
    7.1164   -0.8220    0.0000 C   0  0  0  0  0  0  0  0  0  0  0  0
    4.6957   -0.2356    0.0000 C   0  0  0  0  0  0  0  0  0  0  0  0
    6.0047    0.7155    0.0000 C   0  0  0  0  0  0  0  0  0  0  0  0
    5.0047    0.7155    0.0000 C   0  0  0  0  0  0  0  0  0  0  0  0
    3.6803   -0.4678    0.0000 C   0  0  0  0  0  0  0  0  0  0  0  0
    6.5925    1.5245    0.0000 C   0  0  0  0  0  0  0  0  0  0  0  0
    4.3197    1.5002    0.0000 C   0  0  0  0  0  0  0  0  0  0  0  0
    2.9773    0.3009    0.0000 C   0  0  0  0  0  0  0  0  0  0  0  0
    3.2992    1.2915    0.0000 C   0  0  0  0  0  0  0  0  0  0  0  0
    2.0000    0.0892    0.0000 C   0  0  0  0  0  0  0  0  0  0  0  0
    8.1748    2.2290    0.0000 C   0  0  0  0  0  0  0  0  0  0  0  0
    7.6480   -1.6345    0.0000 H   0  0  0  0  0  0  0  0  0  0  0  0
    5.2082   -1.8981    0.0000 H   0  0  0  0  0  0  0  0  0  0  0  0
    5.8800   -2.3845    0.0000 H   0  0  0  0  0  0  0  0  0  0  0  0
    7.6825   -1.0750    0.0000 H   0  0  0  0  0  0  0  0  0  0  0  0
    7.4275   -0.2857    0.0000 H   0  0  0  0  0  0  0  0  0  0  0  0
    6.7634    2.1205    0.0000 H   0  0  0  0  0  0  0  0  0  0  0  0
    6.0352    1.7963    0.0000 H   0  0  0  0  0  0  0  0  0  0  0  0
    8.0128   -2.5113    0.0000 H   0  0  0  0  0  0  0  0  0  0  0  0
    7.1440   -3.1425    0.0000 H   0  0  0  0  0  0  0  0  0  0  0  0
    1.8688    0.6951    0.0000 H   0  0  0  0  0  0  0  0  0  0  0  0
    1.3940   -0.0421    0.0000 H   0  0  0  0  0  0  0  0  0  0  0  0
    2.1312   -0.5168    0.0000 H   0  0  0  0  0  0  0  0  0  0  0  0
    2.0260    1.9107    0.0000 H   0  0  0  0  0  0  0  0  0  0  0  0
    2.8268    2.6262    0.0000 H   0  0  0  0  0  0  0  0  0  0  0  0
    9.5337    2.6261    0.0000 H   0  0  0  0  0  0  0  0  0  0  0  0
    9.4215    1.5581    0.0000 H   0  0  0  0  0  0  0  0  0  0  0  0
  1 17  1  0  0  0  0
  1 22  1  0  0  0  0
  2 16  2  0  0  0  0
  3 18  2  0  0  0  0
  4 22  2  0  0  0  0
  5  9  1  0  0  0  0
  5 11  1  0  0  0  0
  5 13  1  0  0  0  0
  6 10  1  0  0  0  0
  6 30  1  0  0  0  0
  6 31  1  0  0  0  0
  7 20  1  0  0  0  0
  7 35  1  0  0  0  0
  7 36  1  0  0  0  0
  8 22  1  0  0  0  0
  8 37  1  0  0  0  0
  8 38  1  0  0  0  0
  9 12  1  0  0  0  0
  9 14  2  0  0  0  0
 10 11  1  0  0  0  0
 10 12  1  0  0  0  0
 10 23  1  0  0  0  0
 11 24  1  0  0  0  0
 11 25  1  0  0  0  0
 12 26  1  0  0  0  0
 12 27  1  0  0  0  0
 13 15  2  0  0  0  0
 13 16  1  0  0  0  0
 14 15  1  0  0  0  0
 14 17  1  0  0  0  0
 15 18  1  0  0  0  0
 16 19  1  0  0  0  0
 17 28  1  0  0  0  0
 17 29  1  0  0  0  0
 18 20  1  0  0  0  0
 19 20  2  0  0  0  0
 19 21  1  0  0  0  0
 21 32  1  0  0  0  0
 21 33  1  0  0  0  0
 21 34  1  0  0  0  0
M  END
> <PUBCHEM_COMPOUND_CID>
4210

> <PUBCHEM_COMPOUND_CANONICALIZED>
1

> <PUBCHEM_CACTVS_COMPLEXITY>
587

> <PUBCHEM_CACTVS_HBOND_ACCEPTOR>
6

> <PUBCHEM_CACTVS_HBOND_DONOR>
3

> <PUBCHEM_CACTVS_ROTATABLE_BOND>
3

> <PUBCHEM_CACTVS_SUBSKEYS>
AAADceBzuAAAAAAAAAAAAAAAAAAAAWLAAAAgAAAAAAAWAEABgAAAHgAQAAAADCzhngYCiJNMFACoA4RwXACCgCAnACAA2KG4TNkIZnrA9LmcEYhm0AHI6Ue/3eGegAAAAAAAAAAAAAAAAAAAAAAAAAAAAA==

> <PUBCHEM_IUPAC_OPENEYE_NAME>
(2,6-diamino-7-methyl-5,8-dioxo-2,3-dihydro-1H-pyrrolo[1,2-a]indol-4-yl)methyl carbamate

> <PUBCHEM_IUPAC_CAS_NAME>
carbamic acid (2,6-diamino-7-methyl-5,8-dioxo-2,3-dihydro-1H-pyrrolo[1,2-a]indol-4-yl)methyl ester

> <PUBCHEM_IUPAC_NAME>
(2,6-diamino-7-methyl-5,8-dioxo-2,3-dihydro-1H-pyrrolo[1,2-a]indol-4-yl)methyl carbamate

> <PUBCHEM_IUPAC_SYSTEMATIC_NAME>
[2,6-bis(azanyl)-7-methyl-5,8-bis(oxidanylidene)-2,3-dihydro-1H-pyrrolo[1,2-a]indol-4-yl]methyl carbamate

> <PUBCHEM_IUPAC_TRADITIONAL_NAME>
carbamic acid (2,6-diamino-5,8-diketo-7-methyl-2,3-dihydro-1H-pyrrol[1,2-a]indol-4-yl)methyl ester

> <PUBCHEM_IUPAC_INCHI>
InChI=1S/C14H16N4O4/c1-5-10(16)13(20)9-7(4-22-14(17)21)8-2-6(15)3-18(8)11(9)12(5)19/h6H,2-4,15-16H2,1H3,(H2,17,21)

> <PUBCHEM_IUPAC_INCHIKEY>
SMCLMIIQNWUTHU-UHFFFAOYSA-N

> <PUBCHEM_XLOGP3_AA>
-1.3

> <PUBCHEM_EXACT_MASS>
304.117155

> <PUBCHEM_MOLECULAR_FORMULA>
C14H16N4O4

> <PUBCHEM_MOLECULAR_WEIGHT>
304.30124

> <PUBCHEM_OPENEYE_CAN_SMILES>
CC1=C(C(=O)C2=C(C1=O)N3CC(CC3=C2COC(=O)N)N)N

> <PUBCHEM_OPENEYE_ISO_SMILES>
CC1=C(C(=O)C2=C(C1=O)N3CC(CC3=C2COC(=O)N)N)N

> <PUBCHEM_CACTVS_TPSA>
143

> <PUBCHEM_MONOISOTOPIC_WEIGHT>
304.117155

> <PUBCHEM_TOTAL_CHARGE>
0

> <PUBCHEM_HEAVY_ATOM_COUNT>
22

> <PUBCHEM_ATOM_DEF_STEREO_COUNT>
0

> <PUBCHEM_ATOM_UDEF_STEREO_COUNT>
1

> <PUBCHEM_BOND_DEF_STEREO_COUNT>
0

> <PUBCHEM_BOND_UDEF_STEREO_COUNT>
0

> <PUBCHEM_ISOTOPIC_ATOM_COUNT>
0

> <PUBCHEM_COMPONENT_COUNT>
1

> <PUBCHEM_CACTVS_TAUTO_COUNT>
62

> <PUBCHEM_COORDINATE_TYPE>
1
5
255

> <PUBCHEM_BONDANNOTATIONS>
10  23  3
13  15  8
14  15  8
5  13  8
5  9  8
9  14  8

$$$$

