854296
  -OEChem-06241222472D

 33 34  0     0  0  0  0  0  0999 V2000
    6.3580    0.8020    0.0000 O   0  0  0  0  0  0  0  0  0  0  0  0
    2.8660    0.7673    0.0000 O   0  0  0  0  0  0  0  0  0  0  0  0
    8.1282    0.7914    0.0000 O   0  0  0  0  0  0  0  0  0  0  0  0
    3.7320   -0.7327    0.0000 C   0  0  0  0  0  0  0  0  0  0  0  0
    5.4641   -0.7327    0.0000 C   0  0  0  0  0  0  0  0  0  0  0  0
    4.5981   -1.2327    0.0000 C   0  0  0  0  0  0  0  0  0  0  0  0
    3.7320    0.2673    0.0000 C   0  0  0  0  0  0  0  0  0  0  0  0
    5.4641    0.2673    0.0000 C   0  0  0  0  0  0  0  0  0  0  0  0
    2.8660   -1.2327    0.0000 C   0  0  0  0  0  0  0  0  0  0  0  0
    6.3580   -1.2674    0.0000 C   0  0  0  0  0  0  0  0  0  0  0  0
    4.5981    0.7673    0.0000 C   0  0  0  0  0  0  0  0  0  0  0  0
    2.8660   -2.2327    0.0000 C   0  0  0  0  0  0  0  0  0  0  0  0
    7.2641   -0.7535    0.0000 C   0  0  0  0  0  0  0  0  0  0  0  0
    6.3465   -2.2673    0.0000 C   0  0  0  0  0  0  0  0  0  0  0  0
    7.2641    0.2881    0.0000 C   0  0  0  0  0  0  0  0  0  0  0  0
    2.8660    1.7673    0.0000 C   0  0  0  0  0  0  0  0  0  0  0  0
    2.0000    2.2673    0.0000 C   0  0  0  0  0  0  0  0  0  0  0  0
    4.5981   -1.8527    0.0000 H   0  0  0  0  0  0  0  0  0  0  0  0
    2.6540   -0.6501    0.0000 H   0  0  0  0  0  0  0  0  0  0  0  0
    2.2554   -1.3404    0.0000 H   0  0  0  0  0  0  0  0  0  0  0  0
    4.5981    1.3873    0.0000 H   0  0  0  0  0  0  0  0  0  0  0  0
    2.2460   -2.2327    0.0000 H   0  0  0  0  0  0  0  0  0  0  0  0
    2.8660   -2.8527    0.0000 H   0  0  0  0  0  0  0  0  0  0  0  0
    3.4860   -2.2327    0.0000 H   0  0  0  0  0  0  0  0  0  0  0  0
    7.7998   -1.0656    0.0000 H   0  0  0  0  0  0  0  0  0  0  0  0
    5.7265   -2.2601    0.0000 H   0  0  0  0  0  0  0  0  0  0  0  0
    6.3393   -2.8873    0.0000 H   0  0  0  0  0  0  0  0  0  0  0  0
    6.9664   -2.2745    0.0000 H   0  0  0  0  0  0  0  0  0  0  0  0
    3.4766    1.6596    0.0000 H   0  0  0  0  0  0  0  0  0  0  0  0
    3.0781    2.3499    0.0000 H   0  0  0  0  0  0  0  0  0  0  0  0
    2.3100    2.8042    0.0000 H   0  0  0  0  0  0  0  0  0  0  0  0
    1.4631    2.5773    0.0000 H   0  0  0  0  0  0  0  0  0  0  0  0
    1.6900    1.7304    0.0000 H   0  0  0  0  0  0  0  0  0  0  0  0
  1  8  1  0  0  0  0
  1 15  1  0  0  0  0
  2  7  1  0  0  0  0
  2 16  1  0  0  0  0
  3 15  2  0  0  0  0
  4  6  2  0  0  0  0
  4  7  1  0  0  0  0
  4  9  1  0  0  0  0
  5  6  1  0  0  0  0
  5  8  2  0  0  0  0
  5 10  1  0  0  0  0
  6 18  1  0  0  0  0
  7 11  2  0  0  0  0
  8 11  1  0  0  0  0
  9 12  1  0  0  0  0
  9 19  1  0  0  0  0
  9 20  1  0  0  0  0
 10 13  2  0  0  0  0
 10 14  1  0  0  0  0
 11 21  1  0  0  0  0
 12 22  1  0  0  0  0
 12 23  1  0  0  0  0
 12 24  1  0  0  0  0
 13 15  1  0  0  0  0
 13 25  1  0  0  0  0
 14 26  1  0  0  0  0
 14 27  1  0  0  0  0
 14 28  1  0  0  0  0
 16 17  1  0  0  0  0
 16 29  1  0  0  0  0
 16 30  1  0  0  0  0
 17 31  1  0  0  0  0
 17 32  1  0  0  0  0
 17 33  1  0  0  0  0
M  END
> <PUBCHEM_COMPOUND_CID>
854296

> <PUBCHEM_COMPOUND_CANONICALIZED>
1

> <PUBCHEM_CACTVS_COMPLEXITY>
321

> <PUBCHEM_CACTVS_HBOND_ACCEPTOR>
3

> <PUBCHEM_CACTVS_HBOND_DONOR>
0

> <PUBCHEM_CACTVS_ROTATABLE_BOND>
3

> <PUBCHEM_CACTVS_SUBSKEYS>
AAADceBwMAAAAAAAAAAAAAAAAAAAAAAAAAAwQAAAAAAAAACBAAAAGgAAAAAADASgmAIyDoAABACIAiDSCAACCAAgIAAAiAAGCMgMJyKEMRqCOiClwBUIqQeA4OwOIAACCAAIAABAAAQQABAAAAAAAAAAAA==

> <PUBCHEM_IUPAC_OPENEYE_NAME>
7-ethoxy-6-ethyl-4-methyl-chromen-2-one

> <PUBCHEM_IUPAC_CAS_NAME>
7-ethoxy-6-ethyl-4-methyl-1-benzopyran-2-one

> <PUBCHEM_IUPAC_NAME>
7-ethoxy-6-ethyl-4-methylchromen-2-one

> <PUBCHEM_IUPAC_SYSTEMATIC_NAME>
7-ethoxy-6-ethyl-4-methyl-chromen-2-one

> <PUBCHEM_IUPAC_TRADITIONAL_NAME>
7-ethoxy-6-ethyl-4-methyl-coumarin

> <PUBCHEM_IUPAC_INCHI>
InChI=1S/C14H16O3/c1-4-10-7-11-9(3)6-14(15)17-13(11)8-12(10)16-5-2/h6-8H,4-5H2,1-3H3

> <PUBCHEM_IUPAC_INCHIKEY>
CZYUBTYUVMGZBB-UHFFFAOYSA-N

> <PUBCHEM_XLOGP3_AA>
3

> <PUBCHEM_EXACT_MASS>
232.109944

> <PUBCHEM_MOLECULAR_FORMULA>
C14H16O3

> <PUBCHEM_MOLECULAR_WEIGHT>
232.27504

> <PUBCHEM_OPENEYE_CAN_SMILES>
CCC1=C(C=C2C(=C1)C(=CC(=O)O2)C)OCC

> <PUBCHEM_OPENEYE_ISO_SMILES>
CCC1=C(C=C2C(=C1)C(=CC(=O)O2)C)OCC

> <PUBCHEM_CACTVS_TPSA>
35.5

> <PUBCHEM_MONOISOTOPIC_WEIGHT>
232.109944

> <PUBCHEM_TOTAL_CHARGE>
0

> <PUBCHEM_HEAVY_ATOM_COUNT>
17

> <PUBCHEM_ATOM_DEF_STEREO_COUNT>
0

> <PUBCHEM_ATOM_UDEF_STEREO_COUNT>
0

> <PUBCHEM_BOND_DEF_STEREO_COUNT>
0

> <PUBCHEM_BOND_UDEF_STEREO_COUNT>
0

> <PUBCHEM_ISOTOPIC_ATOM_COUNT>
0

> <PUBCHEM_COMPONENT_COUNT>
1

> <PUBCHEM_CACTVS_TAUTO_COUNT>
1

> <PUBCHEM_COORDINATE_TYPE>
1
5
255

> <PUBCHEM_BONDANNOTATIONS>
1  15  8
1  8  8
10  13  8
13  15  8
4  6  8
4  7  8
5  10  8
5  6  8
5  8  8
7  11  8
8  11  8

$$$$

