17395274
  -OEChem-06241222492D

 37 38  0     1  0  0  0  0  0999 V2000
    3.9538    0.4946    0.0000 S   0  0  0  0  0  0  0  0  0  0  0  0
    5.1294    2.1126    0.0000 O   0  0  0  0  0  0  0  0  0  0  0  0
    3.6750   -1.2655    0.0000 N   0  0  0  0  0  0  0  0  0  0  0  0
    3.7281    3.1307    0.0000 N   0  0  0  0  0  0  0  0  0  0  0  0
    2.3660   -0.3144    0.0000 N   0  0  0  0  0  0  0  0  0  0  0  0
    2.0570   -1.2655    0.0000 N   0  0  0  0  0  0  0  0  0  0  0  0
    2.8660   -4.8533    0.0000 N   0  0  0  0  0  0  0  0  0  0  0  0
    3.5471    1.4081    0.0000 C   0  0  3  0  0  0  0  0  0  0  0  0
    3.3660   -0.3144    0.0000 C   0  0  0  0  0  0  0  0  0  0  0  0
    2.8660   -1.8533    0.0000 C   0  0  0  0  0  0  0  0  0  0  0  0
    4.1349    2.2172    0.0000 C   0  0  0  0  0  0  0  0  0  0  0  0
    2.5526    1.5127    0.0000 C   0  0  0  0  0  0  0  0  0  0  0  0
    2.8660   -2.8533    0.0000 C   0  0  0  0  0  0  0  0  0  0  0  0
    4.6261   -1.5745    0.0000 C   0  0  0  0  0  0  0  0  0  0  0  0
    4.3159    3.9397    0.0000 C   0  0  0  0  0  0  0  0  0  0  0  0
    3.7320   -3.3533    0.0000 C   0  0  0  0  0  0  0  0  0  0  0  0
    2.0000   -3.3533    0.0000 C   0  0  0  0  0  0  0  0  0  0  0  0
    3.9092    4.8533    0.0000 C   0  0  0  0  0  0  0  0  0  0  0  0
    3.7320   -4.3533    0.0000 C   0  0  0  0  0  0  0  0  0  0  0  0
    2.0000   -4.3533    0.0000 C   0  0  0  0  0  0  0  0  0  0  0  0
    3.1827    0.9065    0.0000 H   0  0  0  0  0  0  0  0  0  0  0  0
    2.6174    2.1293    0.0000 H   0  0  0  0  0  0  0  0  0  0  0  0
    1.9360    1.5775    0.0000 H   0  0  0  0  0  0  0  0  0  0  0  0
    2.4877    0.8961    0.0000 H   0  0  0  0  0  0  0  0  0  0  0  0
    4.4345   -2.1641    0.0000 H   0  0  0  0  0  0  0  0  0  0  0  0
    5.2158   -1.7661    0.0000 H   0  0  0  0  0  0  0  0  0  0  0  0
    4.8177   -0.9848    0.0000 H   0  0  0  0  0  0  0  0  0  0  0  0
    3.1115    3.1955    0.0000 H   0  0  0  0  0  0  0  0  0  0  0  0
    4.7466    3.4937    0.0000 H   0  0  0  0  0  0  0  0  0  0  0  0
    4.8299    4.2864    0.0000 H   0  0  0  0  0  0  0  0  0  0  0  0
    4.2690   -3.0433    0.0000 H   0  0  0  0  0  0  0  0  0  0  0  0
    1.4631   -3.0433    0.0000 H   0  0  0  0  0  0  0  0  0  0  0  0
    4.4756    5.1054    0.0000 H   0  0  0  0  0  0  0  0  0  0  0  0
    3.6570    5.4197    0.0000 H   0  0  0  0  0  0  0  0  0  0  0  0
    3.3428    4.6011    0.0000 H   0  0  0  0  0  0  0  0  0  0  0  0
    4.2690   -4.6633    0.0000 H   0  0  0  0  0  0  0  0  0  0  0  0
    1.4631   -4.6633    0.0000 H   0  0  0  0  0  0  0  0  0  0  0  0
  1  8  1  0  0  0  0
  1  9  1  0  0  0  0
  2 11  2  0  0  0  0
  3  9  1  0  0  0  0
  3 10  1  0  0  0  0
  3 14  1  0  0  0  0
  4 11  1  0  0  0  0
  4 15  1  0  0  0  0
  4 28  1  0  0  0  0
  5  6  1  0  0  0  0
  5  9  2  0  0  0  0
  6 10  2  0  0  0  0
  7 19  2  0  0  0  0
  7 20  1  0  0  0  0
  8 11  1  0  0  0  0
  8 12  1  0  0  0  0
  8 21  1  0  0  0  0
 10 13  1  0  0  0  0
 12 22  1  0  0  0  0
 12 23  1  0  0  0  0
 12 24  1  0  0  0  0
 13 16  2  0  0  0  0
 13 17  1  0  0  0  0
 14 25  1  0  0  0  0
 14 26  1  0  0  0  0
 14 27  1  0  0  0  0
 15 18  1  0  0  0  0
 15 29  1  0  0  0  0
 15 30  1  0  0  0  0
 16 19  1  0  0  0  0
 16 31  1  0  0  0  0
 17 20  2  0  0  0  0
 17 32  1  0  0  0  0
 18 33  1  0  0  0  0
 18 34  1  0  0  0  0
 18 35  1  0  0  0  0
 19 36  1  0  0  0  0
 20 37  1  0  0  0  0
M  END
> <PUBCHEM_COMPOUND_CID>
17395274

> <PUBCHEM_COMPOUND_CANONICALIZED>
1

> <PUBCHEM_CACTVS_COMPLEXITY>
324

> <PUBCHEM_CACTVS_HBOND_ACCEPTOR>
5

> <PUBCHEM_CACTVS_HBOND_DONOR>
1

> <PUBCHEM_CACTVS_ROTATABLE_BOND>
5

> <PUBCHEM_CACTVS_SUBSKEYS>
AAADceBzoABAAAAAAAAAAAAAAAAAAWAAAAAsAAAAAAAAAAAB4AAAHgQYAAAADADF2wS/kJfMEAiqAjN3dACS0CtxArAd2KE4ZJiIKOLAmZGEIAhgngLIyAYQAAAKAAAAAAAAAAAAAAAAAAAAAAAAAAAAAA==

> <PUBCHEM_IUPAC_OPENEYE_NAME>
N-ethyl-2-[[4-methyl-5-(4-pyridyl)-1,2,4-triazol-3-yl]sulfanyl]propanamide

> <PUBCHEM_IUPAC_CAS_NAME>
N-ethyl-2-[(4-methyl-5-pyridin-4-yl-1,2,4-triazol-3-yl)thio]propanamide

> <PUBCHEM_IUPAC_NAME>
N-ethyl-2-[(4-methyl-5-pyridin-4-yl-1,2,4-triazol-3-yl)sulfanyl]propanamide

> <PUBCHEM_IUPAC_SYSTEMATIC_NAME>
N-ethyl-2-[(4-methyl-5-pyridin-4-yl-1,2,4-triazol-3-yl)sulfanyl]propanamide

> <PUBCHEM_IUPAC_TRADITIONAL_NAME>
N-ethyl-2-[[4-methyl-5-(4-pyridyl)-1,2,4-triazol-3-yl]thio]propionamide

> <PUBCHEM_IUPAC_INCHI>
InChI=1S/C13H17N5OS/c1-4-15-12(19)9(2)20-13-17-16-11(18(13)3)10-5-7-14-8-6-10/h5-9H,4H2,1-3H3,(H,15,19)

> <PUBCHEM_IUPAC_INCHIKEY>
ARFKDRNWFYBWCC-UHFFFAOYSA-N

> <PUBCHEM_XLOGP3_AA>
1

> <PUBCHEM_EXACT_MASS>
291.115381

> <PUBCHEM_MOLECULAR_FORMULA>
C13H17N5OS

> <PUBCHEM_MOLECULAR_WEIGHT>
291.37198

> <PUBCHEM_OPENEYE_CAN_SMILES>
CCNC(=O)C(C)SC1=NN=C(N1C)C2=CC=NC=C2

> <PUBCHEM_OPENEYE_ISO_SMILES>
CCNC(=O)C(C)SC1=NN=C(N1C)C2=CC=NC=C2

> <PUBCHEM_CACTVS_TPSA>
98

> <PUBCHEM_MONOISOTOPIC_WEIGHT>
291.115381

> <PUBCHEM_TOTAL_CHARGE>
0

> <PUBCHEM_HEAVY_ATOM_COUNT>
20

> <PUBCHEM_ATOM_DEF_STEREO_COUNT>
0

> <PUBCHEM_ATOM_UDEF_STEREO_COUNT>
1

> <PUBCHEM_BOND_DEF_STEREO_COUNT>
0

> <PUBCHEM_BOND_UDEF_STEREO_COUNT>
0

> <PUBCHEM_ISOTOPIC_ATOM_COUNT>
0

> <PUBCHEM_COMPONENT_COUNT>
1

> <PUBCHEM_CACTVS_TAUTO_COUNT>
2

> <PUBCHEM_COORDINATE_TYPE>
1
5
255

> <PUBCHEM_BONDANNOTATIONS>
13  16  8
13  17  8
16  19  8
17  20  8
3  10  8
3  9  8
5  6  8
5  9  8
6  10  8
7  19  8
7  20  8
8  12  3

$$$$

