14133
  -OEChem-06241222422D

 30 32  0     0  0  0  0  0  0999 V2000
    4.6660   -1.1754    0.0000 N   0  3  0  0  0  0  0  0  0  0  0  0
    4.6660    0.8246    0.0000 N   0  0  0  0  0  0  0  0  0  0  0  0
    6.4144    1.8592    0.0000 N   0  0  0  0  0  0  0  0  0  0  0  0
    8.1962   -1.1995    0.0000 N   0  0  0  0  0  0  0  0  0  0  0  0
    5.5321   -0.6754    0.0000 C   0  0  0  0  0  0  0  0  0  0  0  0
    3.8000   -0.6754    0.0000 C   0  0  0  0  0  0  0  0  0  0  0  0
    5.5321    0.3246    0.0000 C   0  0  0  0  0  0  0  0  0  0  0  0
    3.8000    0.3246    0.0000 C   0  0  0  0  0  0  0  0  0  0  0  0
    6.4260   -1.2100    0.0000 C   0  0  0  0  0  0  0  0  0  0  0  0
    6.4260    0.8593    0.0000 C   0  0  0  0  0  0  0  0  0  0  0  0
    4.6660   -2.1754    0.0000 C   0  0  0  0  0  0  0  0  0  0  0  0
    7.3321   -0.6962    0.0000 C   0  0  0  0  0  0  0  0  0  0  0  0
    2.9061   -1.2100    0.0000 C   0  0  0  0  0  0  0  0  0  0  0  0
    7.3321    0.3454    0.0000 C   0  0  0  0  0  0  0  0  0  0  0  0
    2.9061    0.8593    0.0000 C   0  0  0  0  0  0  0  0  0  0  0  0
    2.0000   -0.6962    0.0000 C   0  0  0  0  0  0  0  0  0  0  0  0
    2.0000    0.3454    0.0000 C   0  0  0  0  0  0  0  0  0  0  0  0
    6.4188   -1.8300    0.0000 H   0  0  0  0  0  0  0  0  0  0  0  0
    4.0460   -2.1754    0.0000 H   0  0  0  0  0  0  0  0  0  0  0  0
    4.6660   -2.7954    0.0000 H   0  0  0  0  0  0  0  0  0  0  0  0
    5.2860   -2.1754    0.0000 H   0  0  0  0  0  0  0  0  0  0  0  0
    2.9132   -1.8300    0.0000 H   0  0  0  0  0  0  0  0  0  0  0  0
    7.8678    0.6575    0.0000 H   0  0  0  0  0  0  0  0  0  0  0  0
    2.9132    1.4792    0.0000 H   0  0  0  0  0  0  0  0  0  0  0  0
    1.4643   -1.0083    0.0000 H   0  0  0  0  0  0  0  0  0  0  0  0
    1.4643    0.6575    0.0000 H   0  0  0  0  0  0  0  0  0  0  0  0
    6.9478    2.1754    0.0000 H   0  0  0  0  0  0  0  0  0  0  0  0
    5.8740    2.1630    0.0000 H   0  0  0  0  0  0  0  0  0  0  0  0
    8.7343   -0.8916    0.0000 H   0  0  0  0  0  0  0  0  0  0  0  0
    8.1938   -1.8195    0.0000 H   0  0  0  0  0  0  0  0  0  0  0  0
  1  5  2  0  0  0  0
  1  6  1  0  0  0  0
  1 11  1  0  0  0  0
  2  7  2  0  0  0  0
  2  8  1  0  0  0  0
  3 10  1  0  0  0  0
  3 27  1  0  0  0  0
  3 28  1  0  0  0  0
  4 12  1  0  0  0  0
  4 29  1  0  0  0  0
  4 30  1  0  0  0  0
  5  7  1  0  0  0  0
  5  9  1  0  0  0  0
  6  8  1  0  0  0  0
  6 13  2  0  0  0  0
  7 10  1  0  0  0  0
  8 15  2  0  0  0  0
  9 12  2  0  0  0  0
  9 18  1  0  0  0  0
 10 14  2  0  0  0  0
 11 19  1  0  0  0  0
 11 20  1  0  0  0  0
 11 21  1  0  0  0  0
 12 14  1  0  0  0  0
 13 16  1  0  0  0  0
 13 22  1  0  0  0  0
 14 23  1  0  0  0  0
 15 17  1  0  0  0  0
 15 24  1  0  0  0  0
 16 17  2  0  0  0  0
 16 25  1  0  0  0  0
 17 26  1  0  0  0  0
M  CHG  1   1   1
M  END
> <PUBCHEM_COMPOUND_CID>
14133

> <PUBCHEM_COMPOUND_CANONICALIZED>
1

> <PUBCHEM_CACTVS_COMPLEXITY>
283

> <PUBCHEM_CACTVS_HBOND_ACCEPTOR>
3

> <PUBCHEM_CACTVS_HBOND_DONOR>
2

> <PUBCHEM_CACTVS_ROTATABLE_BOND>
0

> <PUBCHEM_CACTVS_SUBSKEYS>
AAADccBzgAAAAAAAAAAAAAAAAAAAAAAAAAA8YIAAAAAAAACx/AAAHAAQAAAACAiBFgQywLNMEACgASRiRACCgCQhEiAI2CA4dJgIYOLA0dGUJAhgkADIyAcQAAAAAACAAAQAACAAAQAACAAAQAAAAAAAAA==

> <PUBCHEM_IUPAC_OPENEYE_NAME>
5-methylphenazin-5-ium-1,3-diamine

> <PUBCHEM_IUPAC_CAS_NAME>
5-methylphenazin-5-ium-1,3-diamine

> <PUBCHEM_IUPAC_NAME>
5-methylphenazin-5-ium-1,3-diamine

> <PUBCHEM_IUPAC_SYSTEMATIC_NAME>
5-methylphenazin-5-ium-1,3-diamine

> <PUBCHEM_IUPAC_TRADITIONAL_NAME>
(3-amino-5-methyl-phenazin-5-ium-1-yl)amine

> <PUBCHEM_IUPAC_INCHI>
InChI=1S/C13H12N4/c1-17-11-5-3-2-4-10(11)16-13-9(15)6-8(14)7-12(13)17/h2-7H,1H3,(H3,14,15)/p+1

> <PUBCHEM_IUPAC_INCHIKEY>
KRAWUEPNKYPATF-UHFFFAOYSA-O

> <PUBCHEM_XLOGP3_AA>
1.4

> <PUBCHEM_EXACT_MASS>
225.114021

> <PUBCHEM_MOLECULAR_FORMULA>
C13H13N4+

> <PUBCHEM_MOLECULAR_WEIGHT>
225.26912

> <PUBCHEM_OPENEYE_CAN_SMILES>
C[N+]1=C2C=C(C=C(C2=NC3=CC=CC=C31)N)N

> <PUBCHEM_OPENEYE_ISO_SMILES>
C[N+]1=C2C=C(C=C(C2=NC3=CC=CC=C31)N)N

> <PUBCHEM_CACTVS_TPSA>
68.8

> <PUBCHEM_MONOISOTOPIC_WEIGHT>
225.114021

> <PUBCHEM_TOTAL_CHARGE>
1

> <PUBCHEM_HEAVY_ATOM_COUNT>
17

> <PUBCHEM_ATOM_DEF_STEREO_COUNT>
0

> <PUBCHEM_ATOM_UDEF_STEREO_COUNT>
0

> <PUBCHEM_BOND_DEF_STEREO_COUNT>
0

> <PUBCHEM_BOND_UDEF_STEREO_COUNT>
0

> <PUBCHEM_ISOTOPIC_ATOM_COUNT>
0

> <PUBCHEM_COMPONENT_COUNT>
1

> <PUBCHEM_CACTVS_TAUTO_COUNT>
15

> <PUBCHEM_COORDINATE_TYPE>
1
5
255

> <PUBCHEM_BONDANNOTATIONS>
1  5  8
1  6  8
10  14  8
12  14  8
13  16  8
15  17  8
16  17  8
2  7  8
2  8  8
5  7  8
5  9  8
6  13  8
6  8  8
7  10  8
8  15  8
9  12  8

$$$$

