51090879
  -OEChem-06241223002D

 45 48  0     0  0  0  0  0  0999 V2000
    2.0000    2.4909    0.0000 O   0  0  0  0  0  0  0  0  0  0  0  0
    3.7320    2.4909    0.0000 N   0  0  0  0  0  0  0  0  0  0  0  0
    2.8660   -2.0091    0.0000 N   0  0  0  0  0  0  0  0  0  0  0  0
    7.1962    3.4909    0.0000 N   0  0  0  0  0  0  0  0  0  0  0  0
    2.0570   -2.5969    0.0000 N   0  0  0  0  0  0  0  0  0  0  0  0
    3.7320    3.4909    0.0000 C   0  0  0  0  0  0  0  0  0  0  0  0
    4.2320    4.3569    0.0000 C   0  0  0  0  0  0  0  0  0  0  0  0
    3.2320    4.3569    0.0000 C   0  0  0  0  0  0  0  0  0  0  0  0
    4.5981    1.9909    0.0000 C   0  0  0  0  0  0  0  0  0  0  0  0
    2.8660    1.9909    0.0000 C   0  0  0  0  0  0  0  0  0  0  0  0
    5.4641    2.4909    0.0000 C   0  0  0  0  0  0  0  0  0  0  0  0
    2.8660    0.9909    0.0000 C   0  0  0  0  0  0  0  0  0  0  0  0
    5.4641    3.4909    0.0000 C   0  0  0  0  0  0  0  0  0  0  0  0
    6.3301    1.9909    0.0000 C   0  0  0  0  0  0  0  0  0  0  0  0
    2.0000    0.4909    0.0000 C   0  0  0  0  0  0  0  0  0  0  0  0
    3.7320    0.4909    0.0000 C   0  0  0  0  0  0  0  0  0  0  0  0
    2.0000   -0.5091    0.0000 C   0  0  0  0  0  0  0  0  0  0  0  0
    3.7320   -0.5091    0.0000 C   0  0  0  0  0  0  0  0  0  0  0  0
    2.8660   -1.0091    0.0000 C   0  0  0  0  0  0  0  0  0  0  0  0
    6.3301    3.9909    0.0000 C   0  0  0  0  0  0  0  0  0  0  0  0
    7.1962    2.4909    0.0000 C   0  0  0  0  0  0  0  0  0  0  0  0
    3.6750   -2.5969    0.0000 C   0  0  0  0  0  0  0  0  0  0  0  0
    3.3660   -3.5479    0.0000 C   0  0  0  0  0  0  0  0  0  0  0  0
    2.3660   -3.5479    0.0000 C   0  0  0  0  0  0  0  0  0  0  0  0
    3.9538   -4.3569    0.0000 C   0  0  0  0  0  0  0  0  0  0  0  0
    4.3309    3.3304    0.0000 H   0  0  0  0  0  0  0  0  0  0  0  0
    4.8147    4.1449    0.0000 H   0  0  0  0  0  0  0  0  0  0  0  0
    4.3397    4.9675    0.0000 H   0  0  0  0  0  0  0  0  0  0  0  0
    3.1244    4.9675    0.0000 H   0  0  0  0  0  0  0  0  0  0  0  0
    2.6494    4.1449    0.0000 H   0  0  0  0  0  0  0  0  0  0  0  0
    4.1996    1.5160    0.0000 H   0  0  0  0  0  0  0  0  0  0  0  0
    4.9966    1.5160    0.0000 H   0  0  0  0  0  0  0  0  0  0  0  0
    4.9272    3.8009    0.0000 H   0  0  0  0  0  0  0  0  0  0  0  0
    6.3301    1.3709    0.0000 H   0  0  0  0  0  0  0  0  0  0  0  0
    1.4631    0.8009    0.0000 H   0  0  0  0  0  0  0  0  0  0  0  0
    4.2690    0.8009    0.0000 H   0  0  0  0  0  0  0  0  0  0  0  0
    1.4631   -0.8191    0.0000 H   0  0  0  0  0  0  0  0  0  0  0  0
    4.2690   -0.8191    0.0000 H   0  0  0  0  0  0  0  0  0  0  0  0
    6.3301    4.6109    0.0000 H   0  0  0  0  0  0  0  0  0  0  0  0
    7.7331    2.1809    0.0000 H   0  0  0  0  0  0  0  0  0  0  0  0
    4.2647   -2.4053    0.0000 H   0  0  0  0  0  0  0  0  0  0  0  0
    2.0016   -4.0495    0.0000 H   0  0  0  0  0  0  0  0  0  0  0  0
    3.4522   -4.7214    0.0000 H   0  0  0  0  0  0  0  0  0  0  0  0
    4.3182   -4.8585    0.0000 H   0  0  0  0  0  0  0  0  0  0  0  0
    4.4554   -3.9925    0.0000 H   0  0  0  0  0  0  0  0  0  0  0  0
  1 10  2  0  0  0  0
  2  6  1  0  0  0  0
  2  9  1  0  0  0  0
  2 10  1  0  0  0  0
  3  5  1  0  0  0  0
  3 19  1  0  0  0  0
  3 22  1  0  0  0  0
  4 20  2  0  0  0  0
  4 21  1  0  0  0  0
  5 24  2  0  0  0  0
  6  7  1  0  0  0  0
  6  8  1  0  0  0  0
  6 26  1  0  0  0  0
  7  8  1  0  0  0  0
  7 27  1  0  0  0  0
  7 28  1  0  0  0  0
  8 29  1  0  0  0  0
  8 30  1  0  0  0  0
  9 11  1  0  0  0  0
  9 31  1  0  0  0  0
  9 32  1  0  0  0  0
 10 12  1  0  0  0  0
 11 13  2  0  0  0  0
 11 14  1  0  0  0  0
 12 15  2  0  0  0  0
 12 16  1  0  0  0  0
 13 20  1  0  0  0  0
 13 33  1  0  0  0  0
 14 21  2  0  0  0  0
 14 34  1  0  0  0  0
 15 17  1  0  0  0  0
 15 35  1  0  0  0  0
 16 18  2  0  0  0  0
 16 36  1  0  0  0  0
 17 19  2  0  0  0  0
 17 37  1  0  0  0  0
 18 19  1  0  0  0  0
 18 38  1  0  0  0  0
 20 39  1  0  0  0  0
 21 40  1  0  0  0  0
 22 23  2  0  0  0  0
 22 41  1  0  0  0  0
 23 24  1  0  0  0  0
 23 25  1  0  0  0  0
 24 42  1  0  0  0  0
 25 43  1  0  0  0  0
 25 44  1  0  0  0  0
 25 45  1  0  0  0  0
M  END
> <PUBCHEM_COMPOUND_CID>
51090879

> <PUBCHEM_COMPOUND_CANONICALIZED>
1

> <PUBCHEM_CACTVS_COMPLEXITY>
453

> <PUBCHEM_CACTVS_HBOND_ACCEPTOR>
3

> <PUBCHEM_CACTVS_HBOND_DONOR>
0

> <PUBCHEM_CACTVS_ROTATABLE_BOND>
5

> <PUBCHEM_CACTVS_SUBSKEYS>
AAADceB7oAAAAAAAAAAAAAAAGAAAAWAAAAA8QAAAAAAAAAAB8AAAHgAIAAAADCjBmgQ+wJMIEACqAjV3VACShCA1giAY2CE4ZNgIIPLA1dGEpQhgjgDIyYcYiQCeCAAAAAAAAAAQAAAAAAAAAAAAAAAAAA==

> <PUBCHEM_IUPAC_OPENEYE_NAME>
N-cyclopropyl-4-(4-methylpyrazol-1-yl)-N-(4-pyridylmethyl)benzamide

> <PUBCHEM_IUPAC_CAS_NAME>
N-cyclopropyl-4-(4-methyl-1-pyrazolyl)-N-(pyridin-4-ylmethyl)benzamide

> <PUBCHEM_IUPAC_NAME>
N-cyclopropyl-4-(4-methylpyrazol-1-yl)-N-(pyridin-4-ylmethyl)benzamide

> <PUBCHEM_IUPAC_SYSTEMATIC_NAME>
N-cyclopropyl-4-(4-methylpyrazol-1-yl)-N-(pyridin-4-ylmethyl)benzamide

> <PUBCHEM_IUPAC_TRADITIONAL_NAME>
N-cyclopropyl-4-(4-methylpyrazol-1-yl)-N-(4-pyridylmethyl)benzamide

> <PUBCHEM_IUPAC_INCHI>
InChI=1S/C20H20N4O/c1-15-12-22-24(13-15)19-4-2-17(3-5-19)20(25)23(18-6-7-18)14-16-8-10-21-11-9-16/h2-5,8-13,18H,6-7,14H2,1H3

> <PUBCHEM_IUPAC_INCHIKEY>
ZVIGQBVICQFQLP-UHFFFAOYSA-N

> <PUBCHEM_XLOGP3_AA>
2.7

> <PUBCHEM_EXACT_MASS>
332.163711

> <PUBCHEM_MOLECULAR_FORMULA>
C20H20N4O

> <PUBCHEM_MOLECULAR_WEIGHT>
332.399

> <PUBCHEM_OPENEYE_CAN_SMILES>
CC1=CN(N=C1)C2=CC=C(C=C2)C(=O)N(CC3=CC=NC=C3)C4CC4

> <PUBCHEM_OPENEYE_ISO_SMILES>
CC1=CN(N=C1)C2=CC=C(C=C2)C(=O)N(CC3=CC=NC=C3)C4CC4

> <PUBCHEM_CACTVS_TPSA>
51

> <PUBCHEM_MONOISOTOPIC_WEIGHT>
332.163711

> <PUBCHEM_TOTAL_CHARGE>
0

> <PUBCHEM_HEAVY_ATOM_COUNT>
25

> <PUBCHEM_ATOM_DEF_STEREO_COUNT>
0

> <PUBCHEM_ATOM_UDEF_STEREO_COUNT>
0

> <PUBCHEM_BOND_DEF_STEREO_COUNT>
0

> <PUBCHEM_BOND_UDEF_STEREO_COUNT>
0

> <PUBCHEM_ISOTOPIC_ATOM_COUNT>
0

> <PUBCHEM_COMPONENT_COUNT>
1

> <PUBCHEM_CACTVS_TAUTO_COUNT>
1

> <PUBCHEM_COORDINATE_TYPE>
1
5
255

> <PUBCHEM_BONDANNOTATIONS>
11  13  8
11  14  8
12  15  8
12  16  8
13  20  8
14  21  8
15  17  8
16  18  8
17  19  8
18  19  8
22  23  8
23  24  8
3  22  8
3  5  8
4  20  8
4  21  8
5  24  8

$$$$

