5390
  -OEChem-06261200392D

 73 77  0     0  0  0  0  0  0999 V2000
   15.1282   -1.2256    0.0000 O   0  0  0  0  0  0  0  0  0  0  0  0
    6.3243   -1.2256    0.0000 O   0  0  0  0  0  0  0  0  0  0  0  0
   17.7204    0.2844    0.0000 N   0  0  0  0  0  0  0  0  0  0  0  0
    3.7320    0.2844    0.0000 N   0  0  0  0  0  0  0  0  0  0  0  0
   14.2564    0.2711    0.0000 N   0  0  0  0  0  0  0  0  0  0  0  0
    7.1961    0.2711    0.0000 N   0  0  0  0  0  0  0  0  0  0  0  0
   10.7262    0.2469    0.0000 N   0  0  0  0  0  0  0  0  0  0  0  0
   18.5884   -0.2122    0.0000 C   0  0  0  0  0  0  0  0  0  0  0  0
   17.7166    1.2844    0.0000 C   0  0  0  0  0  0  0  0  0  0  0  0
    3.7359    1.2844    0.0000 C   0  0  0  0  0  0  0  0  0  0  0  0
    2.8641   -0.2122    0.0000 C   0  0  0  0  0  0  0  0  0  0  0  0
   18.5807    1.7878    0.0000 C   0  0  0  0  0  0  0  0  0  0  0  0
   19.4525    0.2911    0.0000 C   0  0  0  0  0  0  0  0  0  0  0  0
    2.8718    1.7878    0.0000 C   0  0  0  0  0  0  0  0  0  0  0  0
    2.0000    0.2911    0.0000 C   0  0  0  0  0  0  0  0  0  0  0  0
   19.4486    1.2911    0.0000 C   0  0  0  0  0  0  0  0  0  0  0  0
    2.0038    1.2911    0.0000 C   0  0  0  0  0  0  0  0  0  0  0  0
   16.8563   -0.2189    0.0000 C   0  0  0  0  0  0  0  0  0  0  0  0
    4.5961   -0.2189    0.0000 C   0  0  0  0  0  0  0  0  0  0  0  0
   15.9884    0.2777    0.0000 C   0  0  0  0  0  0  0  0  0  0  0  0
    5.4641    0.2777    0.0000 C   0  0  0  0  0  0  0  0  0  0  0  0
   15.1243   -0.2256    0.0000 C   0  0  0  0  0  0  0  0  0  0  0  0
    6.3282   -0.2256    0.0000 C   0  0  0  0  0  0  0  0  0  0  0  0
   13.3923   -0.2323    0.0000 C   0  0  0  0  0  0  0  0  0  0  0  0
    8.0602   -0.2323    0.0000 C   0  0  0  0  0  0  0  0  0  0  0  0
   11.5923   -0.2531    0.0000 C   0  0  0  0  0  0  0  0  0  0  0  0
    9.8602   -0.2531    0.0000 C   0  0  0  0  0  0  0  0  0  0  0  0
   11.5923   -1.2531    0.0000 C   0  0  0  0  0  0  0  0  0  0  0  0
    9.8602   -1.2531    0.0000 C   0  0  0  0  0  0  0  0  0  0  0  0
   12.4862    0.2816    0.0000 C   0  0  0  0  0  0  0  0  0  0  0  0
    8.9663    0.2816    0.0000 C   0  0  0  0  0  0  0  0  0  0  0  0
   13.3923   -1.2739    0.0000 C   0  0  0  0  0  0  0  0  0  0  0  0
    8.0602   -1.2739    0.0000 C   0  0  0  0  0  0  0  0  0  0  0  0
   10.7262   -1.7531    0.0000 C   0  0  0  0  0  0  0  0  0  0  0  0
   12.4862   -1.7878    0.0000 C   0  0  0  0  0  0  0  0  0  0  0  0
    8.9663   -1.7878    0.0000 C   0  0  0  0  0  0  0  0  0  0  0  0
   17.5023    1.8662    0.0000 H   0  0  0  0  0  0  0  0  0  0  0  0
   17.1064    1.1744    0.0000 H   0  0  0  0  0  0  0  0  0  0  0  0
   18.1917   -0.6887    0.0000 H   0  0  0  0  0  0  0  0  0  0  0  0
   18.9887   -0.6856    0.0000 H   0  0  0  0  0  0  0  0  0  0  0  0
    2.4637   -0.6856    0.0000 H   0  0  0  0  0  0  0  0  0  0  0  0
    3.2608   -0.6887    0.0000 H   0  0  0  0  0  0  0  0  0  0  0  0
    4.3460    1.1744    0.0000 H   0  0  0  0  0  0  0  0  0  0  0  0
    3.9502    1.8662    0.0000 H   0  0  0  0  0  0  0  0  0  0  0  0
   18.9774    2.2642    0.0000 H   0  0  0  0  0  0  0  0  0  0  0  0
   18.1803    2.2612    0.0000 H   0  0  0  0  0  0  0  0  0  0  0  0
   19.6668   -0.2907    0.0000 H   0  0  0  0  0  0  0  0  0  0  0  0
   20.0626    0.4011    0.0000 H   0  0  0  0  0  0  0  0  0  0  0  0
    1.3898    0.4011    0.0000 H   0  0  0  0  0  0  0  0  0  0  0  0
    1.7857   -0.2907    0.0000 H   0  0  0  0  0  0  0  0  0  0  0  0
    3.2722    2.2612    0.0000 H   0  0  0  0  0  0  0  0  0  0  0  0
    2.4751    2.2642    0.0000 H   0  0  0  0  0  0  0  0  0  0  0  0
   20.0596    1.1858    0.0000 H   0  0  0  0  0  0  0  0  0  0  0  0
   19.6584    1.8745    0.0000 H   0  0  0  0  0  0  0  0  0  0  0  0
    1.7940    1.8745    0.0000 H   0  0  0  0  0  0  0  0  0  0  0  0
    1.3929    1.1858    0.0000 H   0  0  0  0  0  0  0  0  0  0  0  0
   16.4597   -0.6954    0.0000 H   0  0  0  0  0  0  0  0  0  0  0  0
   17.2567   -0.6923    0.0000 H   0  0  0  0  0  0  0  0  0  0  0  0
    4.1958   -0.6923    0.0000 H   0  0  0  0  0  0  0  0  0  0  0  0
    4.9928   -0.6954    0.0000 H   0  0  0  0  0  0  0  0  0  0  0  0
   16.3851    0.7542    0.0000 H   0  0  0  0  0  0  0  0  0  0  0  0
   15.5880    0.7512    0.0000 H   0  0  0  0  0  0  0  0  0  0  0  0
    5.8644    0.7512    0.0000 H   0  0  0  0  0  0  0  0  0  0  0  0
    5.0674    0.7542    0.0000 H   0  0  0  0  0  0  0  0  0  0  0  0
   14.2540    0.8911    0.0000 H   0  0  0  0  0  0  0  0  0  0  0  0
    7.1985    0.8911    0.0000 H   0  0  0  0  0  0  0  0  0  0  0  0
   12.4790    0.9015    0.0000 H   0  0  0  0  0  0  0  0  0  0  0  0
    8.9734    0.9015    0.0000 H   0  0  0  0  0  0  0  0  0  0  0  0
   13.9280   -1.5860    0.0000 H   0  0  0  0  0  0  0  0  0  0  0  0
    7.5245   -1.5860    0.0000 H   0  0  0  0  0  0  0  0  0  0  0  0
   10.7262   -2.3731    0.0000 H   0  0  0  0  0  0  0  0  0  0  0  0
   12.4790   -2.4077    0.0000 H   0  0  0  0  0  0  0  0  0  0  0  0
    8.9734   -2.4077    0.0000 H   0  0  0  0  0  0  0  0  0  0  0  0
  1 22  2  0  0  0  0
  2 23  2  0  0  0  0
  3  8  1  0  0  0  0
  3  9  1  0  0  0  0
  3 18  1  0  0  0  0
  4 10  1  0  0  0  0
  4 11  1  0  0  0  0
  4 19  1  0  0  0  0
  5 22  1  0  0  0  0
  5 24  1  0  0  0  0
  5 65  1  0  0  0  0
  6 23  1  0  0  0  0
  6 25  1  0  0  0  0
  6 66  1  0  0  0  0
  7 26  2  0  0  0  0
  7 27  1  0  0  0  0
  8 13  1  0  0  0  0
  8 39  1  0  0  0  0
  8 40  1  0  0  0  0
  9 12  1  0  0  0  0
  9 37  1  0  0  0  0
  9 38  1  0  0  0  0
 10 14  1  0  0  0  0
 10 43  1  0  0  0  0
 10 44  1  0  0  0  0
 11 15  1  0  0  0  0
 11 41  1  0  0  0  0
 11 42  1  0  0  0  0
 12 16  1  0  0  0  0
 12 45  1  0  0  0  0
 12 46  1  0  0  0  0
 13 16  1  0  0  0  0
 13 47  1  0  0  0  0
 13 48  1  0  0  0  0
 14 17  1  0  0  0  0
 14 51  1  0  0  0  0
 14 52  1  0  0  0  0
 15 17  1  0  0  0  0
 15 49  1  0  0  0  0
 15 50  1  0  0  0  0
 16 53  1  0  0  0  0
 16 54  1  0  0  0  0
 17 55  1  0  0  0  0
 17 56  1  0  0  0  0
 18 20  1  0  0  0  0
 18 57  1  0  0  0  0
 18 58  1  0  0  0  0
 19 21  1  0  0  0  0
 19 59  1  0  0  0  0
 19 60  1  0  0  0  0
 20 22  1  0  0  0  0
 20 61  1  0  0  0  0
 20 62  1  0  0  0  0
 21 23  1  0  0  0  0
 21 63  1  0  0  0  0
 21 64  1  0  0  0  0
 24 30  2  0  0  0  0
 24 32  1  0  0  0  0
 25 31  2  0  0  0  0
 25 33  1  0  0  0  0
 26 28  1  0  0  0  0
 26 30  1  0  0  0  0
 27 29  2  0  0  0  0
 27 31  1  0  0  0  0
 28 34  2  0  0  0  0
 28 35  1  0  0  0  0
 29 34  1  0  0  0  0
 29 36  1  0  0  0  0
 30 67  1  0  0  0  0
 31 68  1  0  0  0  0
 32 35  2  0  0  0  0
 32 69  1  0  0  0  0
 33 36  2  0  0  0  0
 33 70  1  0  0  0  0
 34 71  1  0  0  0  0
 35 72  1  0  0  0  0
 36 73  1  0  0  0  0
M  END
> <PUBCHEM_COMPOUND_CID>
5390

> <PUBCHEM_COMPOUND_CANONICALIZED>
1

> <PUBCHEM_CACTVS_COMPLEXITY>
663

> <PUBCHEM_CACTVS_HBOND_ACCEPTOR>
5

> <PUBCHEM_CACTVS_HBOND_DONOR>
2

> <PUBCHEM_CACTVS_ROTATABLE_BOND>
8

> <PUBCHEM_CACTVS_SUBSKEYS>
AAADcfB7sAAAAAAAAAAAAAAAAAAAAAAAAAA8eLECAAAAAACx/AAAHgAQAAAADAjBngQwwPPIEACoAyVyVACCgCAhAiAImCE4ZJgIIOrA0dGEJAhglADIyAcQgMAOCAAAAAQCAAAQAAAACAQAAAAAAAAAAA==

> <PUBCHEM_IUPAC_OPENEYE_NAME>
3-(1-piperidyl)-N-[6-[3-(1-piperidyl)propanoylamino]acridin-3-yl]propanamide

> <PUBCHEM_IUPAC_CAS_NAME>
N-[6-[[1-oxo-3-(1-piperidinyl)propyl]amino]-3-acridinyl]-3-(1-piperidinyl)propanamide

> <PUBCHEM_IUPAC_NAME>
3-piperidin-1-yl-N-[6-(3-piperidin-1-ylpropanoylamino)acridin-3-yl]propanamide

> <PUBCHEM_IUPAC_SYSTEMATIC_NAME>
3-piperidin-1-yl-N-[6-(3-piperidin-1-ylpropanoylamino)acridin-3-yl]propanamide

> <PUBCHEM_IUPAC_TRADITIONAL_NAME>
3-piperidino-N-[6-(3-piperidinopropanoylamino)acridin-3-yl]propionamide

> <PUBCHEM_IUPAC_INCHI>
InChI=1S/C29H37N5O2/c35-28(11-17-33-13-3-1-4-14-33)30-24-9-7-22-19-23-8-10-25(21-27(23)32-26(22)20-24)31-29(36)12-18-34-15-5-2-6-16-34/h7-10,19-21H,1-6,11-18H2,(H,30,35)(H,31,36)

> <PUBCHEM_IUPAC_INCHIKEY>
LOWHFCSBBFGECH-UHFFFAOYSA-N

> <PUBCHEM_XLOGP3_AA>
3.5

> <PUBCHEM_EXACT_MASS>
487.294725

> <PUBCHEM_MOLECULAR_FORMULA>
C29H37N5O2

> <PUBCHEM_MOLECULAR_WEIGHT>
487.63638

> <PUBCHEM_OPENEYE_CAN_SMILES>
C1CCN(CC1)CCC(=O)NC2=CC3=C(C=C2)C=C4C=CC(=CC4=N3)NC(=O)CCN5CCCCC5

> <PUBCHEM_OPENEYE_ISO_SMILES>
C1CCN(CC1)CCC(=O)NC2=CC3=C(C=C2)C=C4C=CC(=CC4=N3)NC(=O)CCN5CCCCC5

> <PUBCHEM_CACTVS_TPSA>
77.6

> <PUBCHEM_MONOISOTOPIC_WEIGHT>
487.294725

> <PUBCHEM_TOTAL_CHARGE>
0

> <PUBCHEM_HEAVY_ATOM_COUNT>
36

> <PUBCHEM_ATOM_DEF_STEREO_COUNT>
0

> <PUBCHEM_ATOM_UDEF_STEREO_COUNT>
0

> <PUBCHEM_BOND_DEF_STEREO_COUNT>
0

> <PUBCHEM_BOND_UDEF_STEREO_COUNT>
0

> <PUBCHEM_ISOTOPIC_ATOM_COUNT>
0

> <PUBCHEM_COMPONENT_COUNT>
1

> <PUBCHEM_CACTVS_TAUTO_COUNT>
73

> <PUBCHEM_COORDINATE_TYPE>
1
5
255

> <PUBCHEM_BONDANNOTATIONS>
24  30  8
24  32  8
25  31  8
25  33  8
26  28  8
26  30  8
27  29  8
27  31  8
28  34  8
28  35  8
29  34  8
29  36  8
32  35  8
33  36  8
7  26  8
7  27  8

$$$$

