6708
  -OEChem-06261201272D

 24 26  0     0  0  0  0  0  0999 V2000
    2.9176    2.0173    0.0000 Cl  0  0  0  0  0  0  0  0  0  0  0  0
    6.4144    2.0173    0.0000 Cl  0  0  0  0  0  0  0  0  0  0  0  0
    4.6660    1.9827    0.0000 O   0  0  0  0  0  0  0  0  0  0  0  0
    4.6660   -2.0173    0.0000 O   0  0  0  0  0  0  0  0  0  0  0  0
    5.5321    0.4827    0.0000 C   0  0  0  0  0  0  0  0  0  0  0  0
    3.8000    0.4827    0.0000 C   0  0  0  0  0  0  0  0  0  0  0  0
    5.5321   -0.5173    0.0000 C   0  0  0  0  0  0  0  0  0  0  0  0
    3.8000   -0.5173    0.0000 C   0  0  0  0  0  0  0  0  0  0  0  0
    4.6660    0.9827    0.0000 C   0  0  0  0  0  0  0  0  0  0  0  0
    4.6660   -1.0173    0.0000 C   0  0  0  0  0  0  0  0  0  0  0  0
    6.4260    1.0174    0.0000 C   0  0  0  0  0  0  0  0  0  0  0  0
    2.9061    1.0174    0.0000 C   0  0  0  0  0  0  0  0  0  0  0  0
    6.4260   -1.0520    0.0000 C   0  0  0  0  0  0  0  0  0  0  0  0
    2.9061   -1.0520    0.0000 C   0  0  0  0  0  0  0  0  0  0  0  0
    7.3321    0.5035    0.0000 C   0  0  0  0  0  0  0  0  0  0  0  0
    2.0000    0.5035    0.0000 C   0  0  0  0  0  0  0  0  0  0  0  0
    2.0000   -0.5381    0.0000 C   0  0  0  0  0  0  0  0  0  0  0  0
    7.3321   -0.5381    0.0000 C   0  0  0  0  0  0  0  0  0  0  0  0
    6.4188   -1.6719    0.0000 H   0  0  0  0  0  0  0  0  0  0  0  0
    2.9132   -1.6719    0.0000 H   0  0  0  0  0  0  0  0  0  0  0  0
    7.8678    0.8156    0.0000 H   0  0  0  0  0  0  0  0  0  0  0  0
    1.4643    0.8156    0.0000 H   0  0  0  0  0  0  0  0  0  0  0  0
    7.8678   -0.8502    0.0000 H   0  0  0  0  0  0  0  0  0  0  0  0
    1.4643   -0.8502    0.0000 H   0  0  0  0  0  0  0  0  0  0  0  0
  1 12  1  0  0  0  0
  2 11  1  0  0  0  0
  3  9  2  0  0  0  0
  4 10  2  0  0  0  0
  5  7  2  0  0  0  0
  5  9  1  0  0  0  0
  5 11  1  0  0  0  0
  6  8  2  0  0  0  0
  6  9  1  0  0  0  0
  6 12  1  0  0  0  0
  7 10  1  0  0  0  0
  7 13  1  0  0  0  0
  8 10  1  0  0  0  0
  8 14  1  0  0  0  0
 11 15  2  0  0  0  0
 12 16  2  0  0  0  0
 13 18  2  0  0  0  0
 13 19  1  0  0  0  0
 14 17  2  0  0  0  0
 14 20  1  0  0  0  0
 15 18  1  0  0  0  0
 15 21  1  0  0  0  0
 16 17  1  0  0  0  0
 16 22  1  0  0  0  0
 17 24  1  0  0  0  0
 18 23  1  0  0  0  0
M  END
> <PUBCHEM_COMPOUND_CID>
6708

> <PUBCHEM_COMPOUND_CANONICALIZED>
1

> <PUBCHEM_CACTVS_COMPLEXITY>
350

> <PUBCHEM_CACTVS_HBOND_ACCEPTOR>
2

> <PUBCHEM_CACTVS_HBOND_DONOR>
0

> <PUBCHEM_CACTVS_ROTATABLE_BOND>
0

> <PUBCHEM_CACTVS_SUBSKEYS>
AAADcYBwMAAGAAAAAAAAAAAAAAAAAAAAAAAwYMAAAAAAAADBQAAAGgIAAAAADAaAmCAwAIAAAACIAqBSAAACAAAkBQAIiAEAAsgIIDKBFxCAIQAggAAIjYcJiMCOgAAAIAARAACAAARAACIAAAAAAAAAAA==

> <PUBCHEM_IUPAC_OPENEYE_NAME>
1,8-dichloroanthracene-9,10-dione

> <PUBCHEM_IUPAC_CAS_NAME>
1,8-dichloroanthracene-9,10-dione

> <PUBCHEM_IUPAC_NAME>
1,8-dichloroanthracene-9,10-dione

> <PUBCHEM_IUPAC_SYSTEMATIC_NAME>
1,8-bis(chloranyl)anthracene-9,10-dione

> <PUBCHEM_IUPAC_TRADITIONAL_NAME>
1,8-dichloro-9,10-anthraquinone

> <PUBCHEM_IUPAC_INCHI>
InChI=1S/C14H6Cl2O2/c15-9-5-1-3-7-11(9)14(18)12-8(13(7)17)4-2-6-10(12)16/h1-6H

> <PUBCHEM_IUPAC_INCHIKEY>
VBQNYYXVDQUKIU-UHFFFAOYSA-N

> <PUBCHEM_XLOGP3_AA>
4.1

> <PUBCHEM_EXACT_MASS>
275.974485

> <PUBCHEM_MOLECULAR_FORMULA>
C14H6Cl2O2

> <PUBCHEM_MOLECULAR_WEIGHT>
277.10224

> <PUBCHEM_OPENEYE_CAN_SMILES>
C1=CC2=C(C(=C1)Cl)C(=O)C3=C(C2=O)C=CC=C3Cl

> <PUBCHEM_OPENEYE_ISO_SMILES>
C1=CC2=C(C(=C1)Cl)C(=O)C3=C(C2=O)C=CC=C3Cl

> <PUBCHEM_CACTVS_TPSA>
34.1

> <PUBCHEM_MONOISOTOPIC_WEIGHT>
275.974485

> <PUBCHEM_TOTAL_CHARGE>
0

> <PUBCHEM_HEAVY_ATOM_COUNT>
18

> <PUBCHEM_ATOM_DEF_STEREO_COUNT>
0

> <PUBCHEM_ATOM_UDEF_STEREO_COUNT>
0

> <PUBCHEM_BOND_DEF_STEREO_COUNT>
0

> <PUBCHEM_BOND_UDEF_STEREO_COUNT>
0

> <PUBCHEM_ISOTOPIC_ATOM_COUNT>
0

> <PUBCHEM_COMPONENT_COUNT>
1

> <PUBCHEM_CACTVS_TAUTO_COUNT>
1

> <PUBCHEM_COORDINATE_TYPE>
1
5
255

> <PUBCHEM_BONDANNOTATIONS>
11  15  8
12  16  8
13  18  8
14  17  8
15  18  8
16  17  8
5  11  8
5  7  8
6  12  8
6  8  8
7  13  8
8  14  8

$$$$

