9310
  -OEChem-06261203362D

 49 46  0     0  0  0  0  0  0999 V2000
    4.6171    0.0000    0.0000 I   0  5  0  0  0  0  0  0  0  0  0  0
    4.6171    2.5000    0.0000 I   0  5  0  0  0  0  0  0  0  0  0  0
    1.4030    6.4030    0.0000 N   0  3  0  0  0  0  0  0  0  0  0  0
    8.3312    6.4030    0.0000 N   0  3  0  0  0  0  0  0  0  0  0  0
    2.2690    6.9030    0.0000 C   0  0  0  0  0  0  0  0  0  0  0  0
    7.4651    6.9030    0.0000 C   0  0  0  0  0  0  0  0  0  0  0  0
    3.1350    6.4030    0.0000 C   0  0  0  0  0  0  0  0  0  0  0  0
    6.5991    6.4030    0.0000 C   0  0  0  0  0  0  0  0  0  0  0  0
    4.0010    6.9030    0.0000 C   0  0  0  0  0  0  0  0  0  0  0  0
    5.7331    6.9030    0.0000 C   0  0  0  0  0  0  0  0  0  0  0  0
    4.8671    6.4030    0.0000 C   0  0  0  0  0  0  0  0  0  0  0  0
    0.5369    5.9030    0.0000 C   0  0  0  0  0  0  0  0  0  0  0  0
    0.9030    7.2690    0.0000 C   0  0  0  0  0  0  0  0  0  0  0  0
    1.9030    5.5369    0.0000 C   0  0  0  0  0  0  0  0  0  0  0  0
    9.1972    5.9030    0.0000 C   0  0  0  0  0  0  0  0  0  0  0  0
    8.8312    7.2690    0.0000 C   0  0  0  0  0  0  0  0  0  0  0  0
    7.8312    5.5369    0.0000 C   0  0  0  0  0  0  0  0  0  0  0  0
    2.6675    7.3779    0.0000 H   0  0  0  0  0  0  0  0  0  0  0  0
    1.8705    7.3779    0.0000 H   0  0  0  0  0  0  0  0  0  0  0  0
    7.8637    7.3779    0.0000 H   0  0  0  0  0  0  0  0  0  0  0  0
    7.0666    7.3779    0.0000 H   0  0  0  0  0  0  0  0  0  0  0  0
    6.2006    5.9280    0.0000 H   0  0  0  0  0  0  0  0  0  0  0  0
    6.9976    5.9280    0.0000 H   0  0  0  0  0  0  0  0  0  0  0  0
    2.7365    5.9280    0.0000 H   0  0  0  0  0  0  0  0  0  0  0  0
    3.5335    5.9280    0.0000 H   0  0  0  0  0  0  0  0  0  0  0  0
    4.3996    7.3779    0.0000 H   0  0  0  0  0  0  0  0  0  0  0  0
    3.6025    7.3779    0.0000 H   0  0  0  0  0  0  0  0  0  0  0  0
    6.1316    7.3779    0.0000 H   0  0  0  0  0  0  0  0  0  0  0  0
    5.3346    7.3779    0.0000 H   0  0  0  0  0  0  0  0  0  0  0  0
    4.4685    5.9280    0.0000 H   0  0  0  0  0  0  0  0  0  0  0  0
    5.2656    5.9280    0.0000 H   0  0  0  0  0  0  0  0  0  0  0  0
    1.3660    5.2269    0.0000 H   0  0  0  0  0  0  0  0  0  0  0  0
    2.2130    5.0000    0.0000 H   0  0  0  0  0  0  0  0  0  0  0  0
    2.4399    5.8469    0.0000 H   0  0  0  0  0  0  0  0  0  0  0  0
    1.4399    7.5790    0.0000 H   0  0  0  0  0  0  0  0  0  0  0  0
    0.5930    7.8059    0.0000 H   0  0  0  0  0  0  0  0  0  0  0  0
    0.3660    6.9590    0.0000 H   0  0  0  0  0  0  0  0  0  0  0  0
    0.2269    6.4399    0.0000 H   0  0  0  0  0  0  0  0  0  0  0  0
    0.0000    5.5930    0.0000 H   0  0  0  0  0  0  0  0  0  0  0  0
    0.8469    5.3660    0.0000 H   0  0  0  0  0  0  0  0  0  0  0  0
    8.8872    5.3660    0.0000 H   0  0  0  0  0  0  0  0  0  0  0  0
    9.7341    5.5930    0.0000 H   0  0  0  0  0  0  0  0  0  0  0  0
    9.5072    6.4399    0.0000 H   0  0  0  0  0  0  0  0  0  0  0  0
    9.3681    6.9590    0.0000 H   0  0  0  0  0  0  0  0  0  0  0  0
    9.1412    7.8059    0.0000 H   0  0  0  0  0  0  0  0  0  0  0  0
    8.2942    7.5790    0.0000 H   0  0  0  0  0  0  0  0  0  0  0  0
    7.2942    5.8469    0.0000 H   0  0  0  0  0  0  0  0  0  0  0  0
    7.5212    5.0000    0.0000 H   0  0  0  0  0  0  0  0  0  0  0  0
    8.3681    5.2269    0.0000 H   0  0  0  0  0  0  0  0  0  0  0  0
  3  5  1  0  0  0  0
  3 12  1  0  0  0  0
  3 13  1  0  0  0  0
  3 14  1  0  0  0  0
  4  6  1  0  0  0  0
  4 15  1  0  0  0  0
  4 16  1  0  0  0  0
  4 17  1  0  0  0  0
  5  7  1  0  0  0  0
  5 18  1  0  0  0  0
  5 19  1  0  0  0  0
  6  8  1  0  0  0  0
  6 20  1  0  0  0  0
  6 21  1  0  0  0  0
  7  9  1  0  0  0  0
  7 24  1  0  0  0  0
  7 25  1  0  0  0  0
  8 10  1  0  0  0  0
  8 22  1  0  0  0  0
  8 23  1  0  0  0  0
  9 11  1  0  0  0  0
  9 26  1  0  0  0  0
  9 27  1  0  0  0  0
 10 11  1  0  0  0  0
 10 28  1  0  0  0  0
 10 29  1  0  0  0  0
 11 30  1  0  0  0  0
 11 31  1  0  0  0  0
 12 38  1  0  0  0  0
 12 39  1  0  0  0  0
 12 40  1  0  0  0  0
 13 35  1  0  0  0  0
 13 36  1  0  0  0  0
 13 37  1  0  0  0  0
 14 32  1  0  0  0  0
 14 33  1  0  0  0  0
 14 34  1  0  0  0  0
 15 41  1  0  0  0  0
 15 42  1  0  0  0  0
 15 43  1  0  0  0  0
 16 44  1  0  0  0  0
 16 45  1  0  0  0  0
 16 46  1  0  0  0  0
 17 47  1  0  0  0  0
 17 48  1  0  0  0  0
 17 49  1  0  0  0  0
M  CHG  4   1  -1   2  -1   3   1   4   1
M  END
> <PUBCHEM_COMPOUND_CID>
9310

> <PUBCHEM_COMPOUND_CANONICALIZED>
1

> <PUBCHEM_CACTVS_COMPLEXITY>
133

> <PUBCHEM_CACTVS_HBOND_ACCEPTOR>
2

> <PUBCHEM_CACTVS_HBOND_DONOR>
0

> <PUBCHEM_CACTVS_ROTATABLE_BOND>
8

> <PUBCHEM_CACTVS_SUBSKEYS>
AAADcfBzAAAAAwAAAAAAAAAAAAAAAAAAAAAAAAAAAAAAAAAAAAAAHAAAAAAACADBAAQCAAMAAAAAAAAAAAAAAAAAAAAAAAAIAAAAAAIAgAAEAAAAAAAAAAEQgAAAAAAAAAAAAAAAAAAAAAAAAAAAAAAAAA==

> <PUBCHEM_IUPAC_OPENEYE_NAME>
trimethyl-[7-(trimethylammonio)heptyl]ammonium diiodide

> <PUBCHEM_IUPAC_CAS_NAME>
trimethyl-[7-(trimethylammonio)heptyl]ammonium diiodide

> <PUBCHEM_IUPAC_NAME>
trimethyl-[7-(trimethylazaniumyl)heptyl]azanium diiodide

> <PUBCHEM_IUPAC_SYSTEMATIC_NAME>
trimethyl-[7-(trimethylazaniumyl)heptyl]azanium diiodide

> <PUBCHEM_IUPAC_TRADITIONAL_NAME>
trimethyl-[7-(trimethylammonio)heptyl]ammonium diiodide

> <PUBCHEM_IUPAC_INCHI>
InChI=1S/C13H32N2.2HI/c1-14(2,3)12-10-8-7-9-11-13-15(4,5)6;;/h7-13H2,1-6H3;2*1H/q+2;;/p-2

> <PUBCHEM_IUPAC_INCHIKEY>
BUCTXJLMXKQBJP-UHFFFAOYSA-L

> <PUBCHEM_EXACT_MASS>
470.065495

> <PUBCHEM_MOLECULAR_FORMULA>
C13H32I2N2

> <PUBCHEM_MOLECULAR_WEIGHT>
470.21552

> <PUBCHEM_OPENEYE_CAN_SMILES>
C[N+](C)(C)CCCCCCC[N+](C)(C)C.[I-].[I-]

> <PUBCHEM_OPENEYE_ISO_SMILES>
C[N+](C)(C)CCCCCCC[N+](C)(C)C.[I-].[I-]

> <PUBCHEM_CACTVS_TPSA>
0

> <PUBCHEM_MONOISOTOPIC_WEIGHT>
470.065495

> <PUBCHEM_TOTAL_CHARGE>
0

> <PUBCHEM_HEAVY_ATOM_COUNT>
17

> <PUBCHEM_ATOM_DEF_STEREO_COUNT>
0

> <PUBCHEM_ATOM_UDEF_STEREO_COUNT>
0

> <PUBCHEM_BOND_DEF_STEREO_COUNT>
0

> <PUBCHEM_BOND_UDEF_STEREO_COUNT>
0

> <PUBCHEM_ISOTOPIC_ATOM_COUNT>
0

> <PUBCHEM_COMPONENT_COUNT>
3

> <PUBCHEM_CACTVS_TAUTO_COUNT>
1

> <PUBCHEM_COORDINATE_TYPE>
1
5
255

$$$$

