13012
  -OEChem-06261207392D

 20 20  0     1  0  0  0  0  0999 V2000
    4.3802   -1.4031    0.0000 Cl  0  0  0  0  0  0  0  0  0  0  0  0
    5.1906    0.2797    0.0000 O   0  0  0  0  0  0  0  0  0  0  0  0
    2.0000   -0.2203    0.0000 C   0  0  0  0  0  0  0  0  0  0  0  0
    2.0000    0.7797    0.0000 C   0  0  0  0  0  0  0  0  0  0  0  0
    2.7818   -0.8438    0.0000 C   0  0  0  0  0  0  0  0  0  0  0  0
    2.7818    1.4031    0.0000 C   0  0  0  0  0  0  0  0  0  0  0  0
    3.7568   -0.6213    0.0000 C   0  0  3  0  0  0  0  0  0  0  0  0
    3.7568    1.1806    0.0000 C   0  0  0  0  0  0  0  0  0  0  0  0
    4.1906    0.2797    0.0000 C   0  0  0  0  0  0  0  0  0  0  0  0
    1.3955   -0.0824    0.0000 H   0  0  0  0  0  0  0  0  0  0  0  0
    1.7310   -0.7789    0.0000 H   0  0  0  0  0  0  0  0  0  0  0  0
    1.7310    1.3383    0.0000 H   0  0  0  0  0  0  0  0  0  0  0  0
    1.3955    0.6417    0.0000 H   0  0  0  0  0  0  0  0  0  0  0  0
    2.2971   -1.2304    0.0000 H   0  0  0  0  0  0  0  0  0  0  0  0
    3.0508   -1.4024    0.0000 H   0  0  0  0  0  0  0  0  0  0  0  0
    3.0508    1.9618    0.0000 H   0  0  0  0  0  0  0  0  0  0  0  0
    2.2971    1.7897    0.0000 H   0  0  0  0  0  0  0  0  0  0  0  0
    4.3729   -0.5519    0.0000 H   0  0  0  0  0  0  0  0  0  0  0  0
    4.3612    1.3186    0.0000 H   0  0  0  0  0  0  0  0  0  0  0  0
    3.7568    1.8006    0.0000 H   0  0  0  0  0  0  0  0  0  0  0  0
  1  7  1  0  0  0  0
  2  9  2  0  0  0  0
  3  4  1  0  0  0  0
  3  5  1  0  0  0  0
  3 10  1  0  0  0  0
  3 11  1  0  0  0  0
  4  6  1  0  0  0  0
  4 12  1  0  0  0  0
  4 13  1  0  0  0  0
  5  7  1  0  0  0  0
  5 14  1  0  0  0  0
  5 15  1  0  0  0  0
  6  8  1  0  0  0  0
  6 16  1  0  0  0  0
  6 17  1  0  0  0  0
  7  9  1  0  0  0  0
  7 18  1  0  0  0  0
  8  9  1  0  0  0  0
  8 19  1  0  0  0  0
  8 20  1  0  0  0  0
M  END
> <PUBCHEM_COMPOUND_CID>
13012

> <PUBCHEM_COMPOUND_CANONICALIZED>
1

> <PUBCHEM_CACTVS_COMPLEXITY>
112

> <PUBCHEM_CACTVS_HBOND_ACCEPTOR>
1

> <PUBCHEM_CACTVS_HBOND_DONOR>
0

> <PUBCHEM_CACTVS_ROTATABLE_BOND>
0

> <PUBCHEM_CACTVS_SUBSKEYS>
AAADccBgIAAEAAAAAAAAAAAAAAAAAAAAAAAAAAAABgAAAAAAAAAAGgIAAAAACAeAgEAAAAAAAAAIAIAQAAAAAAAAAAAAAAEAAgBAABIBAAAAAAAAAAAAAAEIiACAAAAAAAAAAAAAAAAAAAAAAAAAAAAAAA==

> <PUBCHEM_IUPAC_OPENEYE_NAME>
2-chlorocycloheptanone

> <PUBCHEM_IUPAC_CAS_NAME>
2-chloro-1-cycloheptanone

> <PUBCHEM_IUPAC_NAME>
2-chlorocycloheptan-1-one

> <PUBCHEM_IUPAC_SYSTEMATIC_NAME>
2-chloranylcycloheptan-1-one

> <PUBCHEM_IUPAC_TRADITIONAL_NAME>
2-chlorocycloheptanone

> <PUBCHEM_IUPAC_INCHI>
InChI=1S/C7H11ClO/c8-6-4-2-1-3-5-7(6)9/h6H,1-5H2

> <PUBCHEM_IUPAC_INCHIKEY>
SDSZGDVXUFWFAA-UHFFFAOYSA-N

> <PUBCHEM_XLOGP3_AA>
2

> <PUBCHEM_EXACT_MASS>
146.049843

> <PUBCHEM_MOLECULAR_FORMULA>
C7H11ClO

> <PUBCHEM_MOLECULAR_WEIGHT>
146.61464

> <PUBCHEM_OPENEYE_CAN_SMILES>
C1CCC(C(=O)CC1)Cl

> <PUBCHEM_OPENEYE_ISO_SMILES>
C1CCC(C(=O)CC1)Cl

> <PUBCHEM_CACTVS_TPSA>
17.1

> <PUBCHEM_MONOISOTOPIC_WEIGHT>
146.049843

> <PUBCHEM_TOTAL_CHARGE>
0

> <PUBCHEM_HEAVY_ATOM_COUNT>
9

> <PUBCHEM_ATOM_DEF_STEREO_COUNT>
0

> <PUBCHEM_ATOM_UDEF_STEREO_COUNT>
1

> <PUBCHEM_BOND_DEF_STEREO_COUNT>
0

> <PUBCHEM_BOND_UDEF_STEREO_COUNT>
0

> <PUBCHEM_ISOTOPIC_ATOM_COUNT>
0

> <PUBCHEM_COMPONENT_COUNT>
1

> <PUBCHEM_CACTVS_TAUTO_COUNT>
3

> <PUBCHEM_COORDINATE_TYPE>
1
5
255

> <PUBCHEM_BONDANNOTATIONS>
7  1  3

$$$$

