47205520
  -OEChem-06241222592D

 35 36  0     1  0  0  0  0  0999 V2000
    3.4030   -0.7094    0.0000 O   0  0  0  0  0  0  0  0  0  0  0  0
    4.2690   -4.2094    0.0000 O   0  0  0  0  0  0  0  0  0  0  0  0
    5.1350   -0.7094    0.0000 N   0  0  0  0  0  0  0  0  0  0  0  0
    3.4030   -2.7094    0.0000 N   0  0  0  0  0  0  0  0  0  0  0  0
    4.3260    3.8784    0.0000 N   0  0  0  0  0  0  0  0  0  0  0  0
    4.6350    4.8294    0.0000 N   0  0  0  0  0  0  0  0  0  0  0  0
    2.5369   -4.2094    0.0000 N   0  0  0  0  0  0  0  0  0  0  0  0
    4.2690   -2.2094    0.0000 C   0  0  3  0  0  0  0  0  0  0  0  0
    5.1350    0.2906    0.0000 C   0  0  0  0  0  0  0  0  0  0  0  0
    4.2690   -1.2094    0.0000 C   0  0  0  0  0  0  0  0  0  0  0  0
    5.1350    2.2906    0.0000 C   0  0  0  0  0  0  0  0  0  0  0  0
    5.1350   -2.7094    0.0000 C   0  0  0  0  0  0  0  0  0  0  0  0
    6.0010    0.7906    0.0000 C   0  0  0  0  0  0  0  0  0  0  0  0
    4.2690    0.7906    0.0000 C   0  0  0  0  0  0  0  0  0  0  0  0
    6.0010    1.7906    0.0000 C   0  0  0  0  0  0  0  0  0  0  0  0
    4.2690    1.7906    0.0000 C   0  0  0  0  0  0  0  0  0  0  0  0
    5.1350    3.2906    0.0000 C   0  0  0  0  0  0  0  0  0  0  0  0
    5.9440    3.8784    0.0000 C   0  0  0  0  0  0  0  0  0  0  0  0
    3.4030   -3.7094    0.0000 C   0  0  0  0  0  0  0  0  0  0  0  0
    5.6350    4.8294    0.0000 C   0  0  0  0  0  0  0  0  0  0  0  0
    4.2690   -2.8294    0.0000 H   0  0  0  0  0  0  0  0  0  0  0  0
    5.6720   -1.0194    0.0000 H   0  0  0  0  0  0  0  0  0  0  0  0
    4.8250   -3.2464    0.0000 H   0  0  0  0  0  0  0  0  0  0  0  0
    5.6720   -3.0194    0.0000 H   0  0  0  0  0  0  0  0  0  0  0  0
    5.4450   -2.1725    0.0000 H   0  0  0  0  0  0  0  0  0  0  0  0
    6.5380    0.4806    0.0000 H   0  0  0  0  0  0  0  0  0  0  0  0
    3.7320    0.4806    0.0000 H   0  0  0  0  0  0  0  0  0  0  0  0
    6.5380    2.1006    0.0000 H   0  0  0  0  0  0  0  0  0  0  0  0
    3.7320    2.1006    0.0000 H   0  0  0  0  0  0  0  0  0  0  0  0
    2.8660   -2.3994    0.0000 H   0  0  0  0  0  0  0  0  0  0  0  0
    6.5337    3.6868    0.0000 H   0  0  0  0  0  0  0  0  0  0  0  0
    3.7363    3.6868    0.0000 H   0  0  0  0  0  0  0  0  0  0  0  0
    5.9994    5.3310    0.0000 H   0  0  0  0  0  0  0  0  0  0  0  0
    2.5369   -4.8294    0.0000 H   0  0  0  0  0  0  0  0  0  0  0  0
    2.0000   -3.8994    0.0000 H   0  0  0  0  0  0  0  0  0  0  0  0
  1 10  2  0  0  0  0
  2 19  2  0  0  0  0
  3  9  1  0  0  0  0
  3 10  1  0  0  0  0
  3 22  1  0  0  0  0
  4  8  1  0  0  0  0
  4 19  1  0  0  0  0
  4 30  1  0  0  0  0
  5  6  1  0  0  0  0
  5 17  1  0  0  0  0
  5 32  1  0  0  0  0
  6 20  2  0  0  0  0
  7 19  1  0  0  0  0
  7 34  1  0  0  0  0
  7 35  1  0  0  0  0
  8 10  1  0  0  0  0
  8 12  1  0  0  0  0
  8 21  1  0  0  0  0
  9 13  2  0  0  0  0
  9 14  1  0  0  0  0
 11 15  2  0  0  0  0
 11 16  1  0  0  0  0
 11 17  1  0  0  0  0
 12 23  1  0  0  0  0
 12 24  1  0  0  0  0
 12 25  1  0  0  0  0
 13 15  1  0  0  0  0
 13 26  1  0  0  0  0
 14 16  2  0  0  0  0
 14 27  1  0  0  0  0
 15 28  1  0  0  0  0
 16 29  1  0  0  0  0
 17 18  2  0  0  0  0
 18 20  1  0  0  0  0
 18 31  1  0  0  0  0
 20 33  1  0  0  0  0
M  END
> <PUBCHEM_COMPOUND_CID>
47205520

> <PUBCHEM_COMPOUND_CANONICALIZED>
1

> <PUBCHEM_CACTVS_COMPLEXITY>
355

> <PUBCHEM_CACTVS_HBOND_ACCEPTOR>
3

> <PUBCHEM_CACTVS_HBOND_DONOR>
4

> <PUBCHEM_CACTVS_ROTATABLE_BOND>
4

> <PUBCHEM_CACTVS_SUBSKEYS>
AAADccBzsAAAAAAAAAAAAAAAAAAAAWAAAAAwAAAAAAAAAAABwAAAHgAYAAAADCjBngQ/wJLjAACqAzV3UACSBAAhggAYuaG4ZJiIYKLA0fGUpAhgngLIyAcQgIAOCAAAAAAAAAAQAAAAAAAAAAAAAAAAAA==

> <PUBCHEM_IUPAC_OPENEYE_NAME>
N-[4-(1H-pyrazol-5-yl)phenyl]-2-ureido-propanamide

> <PUBCHEM_IUPAC_CAS_NAME>
2-(carbamoylamino)-N-[4-(1H-pyrazol-5-yl)phenyl]propanamide

> <PUBCHEM_IUPAC_NAME>
2-(carbamoylamino)-N-[4-(1H-pyrazol-5-yl)phenyl]propanamide

> <PUBCHEM_IUPAC_SYSTEMATIC_NAME>
2-(aminocarbonylamino)-N-[4-(1H-pyrazol-5-yl)phenyl]propanamide

> <PUBCHEM_IUPAC_TRADITIONAL_NAME>
N-[4-(1H-pyrazol-5-yl)phenyl]-2-ureido-propionamide

> <PUBCHEM_IUPAC_INCHI>
InChI=1S/C13H15N5O2/c1-8(16-13(14)20)12(19)17-10-4-2-9(3-5-10)11-6-7-15-18-11/h2-8H,1H3,(H,15,18)(H,17,19)(H3,14,16,20)

> <PUBCHEM_IUPAC_INCHIKEY>
ACJOXAYQSLCENW-UHFFFAOYSA-N

> <PUBCHEM_XLOGP3_AA>
0.2

> <PUBCHEM_EXACT_MASS>
273.122575

> <PUBCHEM_MOLECULAR_FORMULA>
C13H15N5O2

> <PUBCHEM_MOLECULAR_WEIGHT>
273.2905

> <PUBCHEM_OPENEYE_CAN_SMILES>
CC(C(=O)NC1=CC=C(C=C1)C2=CC=NN2)NC(=O)N

> <PUBCHEM_OPENEYE_ISO_SMILES>
CC(C(=O)NC1=CC=C(C=C1)C2=CC=NN2)NC(=O)N

> <PUBCHEM_CACTVS_TPSA>
113

> <PUBCHEM_MONOISOTOPIC_WEIGHT>
273.122575

> <PUBCHEM_TOTAL_CHARGE>
0

> <PUBCHEM_HEAVY_ATOM_COUNT>
20

> <PUBCHEM_ATOM_DEF_STEREO_COUNT>
0

> <PUBCHEM_ATOM_UDEF_STEREO_COUNT>
1

> <PUBCHEM_BOND_DEF_STEREO_COUNT>
0

> <PUBCHEM_BOND_UDEF_STEREO_COUNT>
0

> <PUBCHEM_ISOTOPIC_ATOM_COUNT>
0

> <PUBCHEM_COMPONENT_COUNT>
1

> <PUBCHEM_CACTVS_TAUTO_COUNT>
78

> <PUBCHEM_COORDINATE_TYPE>
1
5
255

> <PUBCHEM_BONDANNOTATIONS>
11  15  8
11  16  8
13  15  8
14  16  8
17  18  8
18  20  8
5  17  8
5  6  8
6  20  8
8  12  3
9  13  8
9  14  8

$$$$

