10668
  -OEChem-06261204492D

 34 35  0     1  0  0  0  0  0999 V2000
    5.4071   -1.8184    0.0000 S   0  0  0  0  0  0  0  0  0  0  0  0
    5.5686    1.2639    0.0000 S   0  0  0  0  0  0  0  0  0  0  0  0
    2.8660    1.7694    0.0000 N   0  0  0  0  0  0  0  0  0  0  0  0
    3.7320    1.2694    0.0000 C   0  0  3  0  0  0  0  0  0  0  0  0
    3.7320    0.2694    0.0000 C   0  0  0  0  0  0  0  0  0  0  0  0
    4.5981   -0.2306    0.0000 C   0  0  0  0  0  0  0  0  0  0  0  0
    4.5981    1.7694    0.0000 C   0  0  0  0  0  0  0  0  0  0  0  0
    2.8660    2.7694    0.0000 C   0  0  0  0  0  0  0  0  0  0  0  0
    2.0000    1.2694    0.0000 C   0  0  0  0  0  0  0  0  0  0  0  0
    4.5981   -1.2306    0.0000 C   0  0  0  0  0  0  0  0  0  0  0  0
    5.4641    0.2694    0.0000 C   0  0  0  0  0  0  0  0  0  0  0  0
    3.7891   -1.8184    0.0000 C   0  0  0  0  0  0  0  0  0  0  0  0
    6.3776   -0.1373    0.0000 C   0  0  0  0  0  0  0  0  0  0  0  0
    4.0981   -2.7694    0.0000 C   0  0  0  0  0  0  0  0  0  0  0  0
    7.0468    0.6058    0.0000 C   0  0  0  0  0  0  0  0  0  0  0  0
    5.0981   -2.7694    0.0000 C   0  0  0  0  0  0  0  0  0  0  0  0
    6.5468    1.4719    0.0000 C   0  0  0  0  0  0  0  0  0  0  0  0
    3.7320    2.1194    0.0000 H   0  0  0  0  0  0  0  0  0  0  0  0
    3.1951   -0.0406    0.0000 H   0  0  0  0  0  0  0  0  0  0  0  0
    4.9081    1.2325    0.0000 H   0  0  0  0  0  0  0  0  0  0  0  0
    5.1350    2.0794    0.0000 H   0  0  0  0  0  0  0  0  0  0  0  0
    4.2881    2.3064    0.0000 H   0  0  0  0  0  0  0  0  0  0  0  0
    3.4860    2.7694    0.0000 H   0  0  0  0  0  0  0  0  0  0  0  0
    2.8660    3.3894    0.0000 H   0  0  0  0  0  0  0  0  0  0  0  0
    2.2460    2.7694    0.0000 H   0  0  0  0  0  0  0  0  0  0  0  0
    1.6900    1.8064    0.0000 H   0  0  0  0  0  0  0  0  0  0  0  0
    1.4631    0.9594    0.0000 H   0  0  0  0  0  0  0  0  0  0  0  0
    2.3100    0.7325    0.0000 H   0  0  0  0  0  0  0  0  0  0  0  0
    3.1994   -1.6268    0.0000 H   0  0  0  0  0  0  0  0  0  0  0  0
    6.5066   -0.7438    0.0000 H   0  0  0  0  0  0  0  0  0  0  0  0
    3.7336   -3.2710    0.0000 H   0  0  0  0  0  0  0  0  0  0  0  0
    7.6634    0.5410    0.0000 H   0  0  0  0  0  0  0  0  0  0  0  0
    5.4625   -3.2710    0.0000 H   0  0  0  0  0  0  0  0  0  0  0  0
    6.7990    2.0382    0.0000 H   0  0  0  0  0  0  0  0  0  0  0  0
  1 10  1  0  0  0  0
  1 16  1  0  0  0  0
  2 11  1  0  0  0  0
  2 17  1  0  0  0  0
  3  4  1  0  0  0  0
  3  8  1  0  0  0  0
  3  9  1  0  0  0  0
  4  5  1  0  0  0  0
  4  7  1  0  0  0  0
  4 18  1  0  0  0  0
  5  6  2  0  0  0  0
  5 19  1  0  0  0  0
  6 10  1  0  0  0  0
  6 11  1  0  0  0  0
  7 20  1  0  0  0  0
  7 21  1  0  0  0  0
  7 22  1  0  0  0  0
  8 23  1  0  0  0  0
  8 24  1  0  0  0  0
  8 25  1  0  0  0  0
  9 26  1  0  0  0  0
  9 27  1  0  0  0  0
  9 28  1  0  0  0  0
 10 12  2  0  0  0  0
 11 13  2  0  0  0  0
 12 14  1  0  0  0  0
 12 29  1  0  0  0  0
 13 15  1  0  0  0  0
 13 30  1  0  0  0  0
 14 16  2  0  0  0  0
 14 31  1  0  0  0  0
 15 17  2  0  0  0  0
 15 32  1  0  0  0  0
 16 33  1  0  0  0  0
 17 34  1  0  0  0  0
M  END
> <PUBCHEM_COMPOUND_CID>
10668

> <PUBCHEM_COMPOUND_CANONICALIZED>
1

> <PUBCHEM_CACTVS_COMPLEXITY>
257

> <PUBCHEM_CACTVS_HBOND_ACCEPTOR>
3

> <PUBCHEM_CACTVS_HBOND_DONOR>
0

> <PUBCHEM_CACTVS_ROTATABLE_BOND>
4

> <PUBCHEM_CACTVS_SUBSKEYS>
AAADceByAABgAAAAAAAAAAAAAAAAASJAAAAAAAAAAAAAAAAB4AAAHAQAAAAADCjFUASyAYMAAAiEAiBCAACDAIAgCBBIiBgIAIgIICKgERCAIAAggAAoiAcAgIAAAAAAAAAAAAAAAAAAAAAAAAAAAAAAAA==

> <PUBCHEM_IUPAC_OPENEYE_NAME>
N,N-dimethyl-4,4-bis(2-thienyl)but-3-en-2-amine

> <PUBCHEM_IUPAC_CAS_NAME>
N,N-dimethyl-4,4-dithiophen-2-yl-3-buten-2-amine

> <PUBCHEM_IUPAC_NAME>
N,N-dimethyl-4,4-dithiophen-2-ylbut-3-en-2-amine

> <PUBCHEM_IUPAC_SYSTEMATIC_NAME>
N,N-dimethyl-4,4-dithiophen-2-yl-but-3-en-2-amine

> <PUBCHEM_IUPAC_TRADITIONAL_NAME>
dimethyl-[1-methyl-3,3-bis(2-thienyl)allyl]amine

> <PUBCHEM_IUPAC_INCHI>
InChI=1S/C14H17NS2/c1-11(15(2)3)10-12(13-6-4-8-16-13)14-7-5-9-17-14/h4-11H,1-3H3

> <PUBCHEM_IUPAC_INCHIKEY>
CANBGVXYBPOLRR-UHFFFAOYSA-N

> <PUBCHEM_XLOGP3_AA>
4.1

> <PUBCHEM_EXACT_MASS>
263.080242

> <PUBCHEM_MOLECULAR_FORMULA>
C14H17NS2

> <PUBCHEM_MOLECULAR_WEIGHT>
263.42148

> <PUBCHEM_OPENEYE_CAN_SMILES>
CC(C=C(C1=CC=CS1)C2=CC=CS2)N(C)C

> <PUBCHEM_OPENEYE_ISO_SMILES>
CC(C=C(C1=CC=CS1)C2=CC=CS2)N(C)C

> <PUBCHEM_CACTVS_TPSA>
59.7

> <PUBCHEM_MONOISOTOPIC_WEIGHT>
263.080242

> <PUBCHEM_TOTAL_CHARGE>
0

> <PUBCHEM_HEAVY_ATOM_COUNT>
17

> <PUBCHEM_ATOM_DEF_STEREO_COUNT>
0

> <PUBCHEM_ATOM_UDEF_STEREO_COUNT>
1

> <PUBCHEM_BOND_DEF_STEREO_COUNT>
0

> <PUBCHEM_BOND_UDEF_STEREO_COUNT>
0

> <PUBCHEM_ISOTOPIC_ATOM_COUNT>
0

> <PUBCHEM_COMPONENT_COUNT>
1

> <PUBCHEM_CACTVS_TAUTO_COUNT>
1

> <PUBCHEM_COORDINATE_TYPE>
1
5
255

> <PUBCHEM_BONDANNOTATIONS>
1  10  8
1  16  8
10  12  8
11  13  8
12  14  8
13  15  8
14  16  8
15  17  8
2  11  8
2  17  8
4  18  3

$$$$

