10605
  -OEChem-06261204442D

 49 51  0     1  0  0  0  0  0999 V2000
    5.2668   -1.8227    0.0000 O   0  0  0  0  0  0  0  0  0  0  0  0
    6.9502   -2.9895    0.0000 O   0  0  0  0  0  0  0  0  0  0  0  0
    8.7957   -2.1008    0.0000 O   0  0  0  0  0  0  0  0  0  0  0  0
    2.5911    1.6588    0.0000 O   0  0  0  0  0  0  0  0  0  0  0  0
    2.1828   -0.1416    0.0000 O   0  0  0  0  0  0  0  0  0  0  0  0
    5.3327    2.7298    0.0000 N   0  0  0  0  0  0  0  0  0  0  0  0
    5.7666    1.8288    0.0000 C   0  0  3  0  0  0  0  0  0  0  0  0
    6.7666    1.8288    0.0000 C   0  0  0  0  0  0  0  0  0  0  0  0
    7.3901    1.0470    0.0000 C   0  0  0  0  0  0  0  0  0  0  0  0
    5.1431    1.0470    0.0000 C   0  0  0  0  0  0  0  0  0  0  0  0
    7.1675    0.0721    0.0000 C   0  0  0  0  0  0  0  0  0  0  0  0
    6.2666   -0.3618    0.0000 C   0  0  0  0  0  0  0  0  0  0  0  0
    5.3656    0.0721    0.0000 C   0  0  0  0  0  0  0  0  0  0  0  0
    6.1727   -1.3992    0.0000 C   0  0  0  0  0  0  0  0  0  0  0  0
    8.0371   -0.5014    0.0000 C   0  0  0  0  0  0  0  0  0  0  0  0
    4.2566    1.4666    0.0000 C   0  0  0  0  0  0  0  0  0  0  0  0
    4.7489   -0.6906    0.0000 C   0  0  0  0  0  0  0  0  0  0  0  0
    7.0288   -1.9926    0.0000 C   0  0  0  0  0  0  0  0  0  0  0  0
    7.9673   -1.5407    0.0000 C   0  0  0  0  0  0  0  0  0  0  0  0
    5.8960    3.5560    0.0000 C   0  0  0  0  0  0  0  0  0  0  0  0
    3.3746    1.0375    0.0000 C   0  0  0  0  0  0  0  0  0  0  0  0
    3.7682   -0.6867    0.0000 C   0  0  0  0  0  0  0  0  0  0  0  0
    3.1577    0.0810    0.0000 C   0  0  0  0  0  0  0  0  0  0  0  0
    5.1805   -2.8189    0.0000 C   0  0  0  0  0  0  0  0  0  0  0  0
    7.7743   -3.5560    0.0000 C   0  0  0  0  0  0  0  0  0  0  0  0
    9.6950   -1.6634    0.0000 C   0  0  0  0  0  0  0  0  0  0  0  0
    5.1505    1.8982    0.0000 H   0  0  0  0  0  0  0  0  0  0  0  0
    7.3252    2.0978    0.0000 H   0  0  0  0  0  0  0  0  0  0  0  0
    6.6286    2.4333    0.0000 H   0  0  0  0  0  0  0  0  0  0  0  0
    7.9487    0.7780    0.0000 H   0  0  0  0  0  0  0  0  0  0  0  0
    7.7766    1.5317    0.0000 H   0  0  0  0  0  0  0  0  0  0  0  0
    4.7144    2.7761    0.0000 H   0  0  0  0  0  0  0  0  0  0  0  0
    8.5926   -0.2259    0.0000 H   0  0  0  0  0  0  0  0  0  0  0  0
    4.2532    2.0866    0.0000 H   0  0  0  0  0  0  0  0  0  0  0  0
    5.0149   -1.2507    0.0000 H   0  0  0  0  0  0  0  0  0  0  0  0
    6.4083    3.2068    0.0000 H   0  0  0  0  0  0  0  0  0  0  0  0
    6.2453    4.0683    0.0000 H   0  0  0  0  0  0  0  0  0  0  0  0
    5.3837    3.9053    0.0000 H   0  0  0  0  0  0  0  0  0  0  0  0
    3.4976   -1.2445    0.0000 H   0  0  0  0  0  0  0  0  0  0  0  0
    4.5629   -2.7654    0.0000 H   0  0  0  0  0  0  0  0  0  0  0  0
    5.1271   -3.4366    0.0000 H   0  0  0  0  0  0  0  0  0  0  0  0
    5.7982   -2.8724    0.0000 H   0  0  0  0  0  0  0  0  0  0  0  0
    7.4231   -4.0669    0.0000 H   0  0  0  0  0  0  0  0  0  0  0  0
    8.2852   -3.9072    0.0000 H   0  0  0  0  0  0  0  0  0  0  0  0
    8.1255   -3.0451    0.0000 H   0  0  0  0  0  0  0  0  0  0  0  0
    9.9661   -2.2210    0.0000 H   0  0  0  0  0  0  0  0  0  0  0  0
   10.2525   -1.3923    0.0000 H   0  0  0  0  0  0  0  0  0  0  0  0
    9.4238   -1.1059    0.0000 H   0  0  0  0  0  0  0  0  0  0  0  0
    2.0000   -0.7340    0.0000 H   0  0  0  0  0  0  0  0  0  0  0  0
  1 14  1  0  0  0  0
  1 24  1  0  0  0  0
  2 18  1  0  0  0  0
  2 25  1  0  0  0  0
  3 19  1  0  0  0  0
  3 26  1  0  0  0  0
  4 21  2  0  0  0  0
  5 23  1  0  0  0  0
  5 49  1  0  0  0  0
  6  7  1  0  0  0  0
  6 20  1  0  0  0  0
  6 32  1  0  0  0  0
  7  8  1  0  0  0  0
  7 10  1  0  0  0  0
  7 27  1  0  0  0  0
  8  9  1  0  0  0  0
  8 28  1  0  0  0  0
  8 29  1  0  0  0  0
  9 11  1  0  0  0  0
  9 30  1  0  0  0  0
  9 31  1  0  0  0  0
 10 13  1  0  0  0  0
 10 16  2  0  0  0  0
 11 12  1  0  0  0  0
 11 15  2  0  0  0  0
 12 13  1  0  0  0  0
 12 14  2  0  0  0  0
 13 17  2  0  0  0  0
 14 18  1  0  0  0  0
 15 19  1  0  0  0  0
 15 33  1  0  0  0  0
 16 21  1  0  0  0  0
 16 34  1  0  0  0  0
 17 22  1  0  0  0  0
 17 35  1  0  0  0  0
 18 19  2  0  0  0  0
 20 36  1  0  0  0  0
 20 37  1  0  0  0  0
 20 38  1  0  0  0  0
 21 23  1  0  0  0  0
 22 23  2  0  0  0  0
 22 39  1  0  0  0  0
 24 40  1  0  0  0  0
 24 41  1  0  0  0  0
 24 42  1  0  0  0  0
 25 43  1  0  0  0  0
 25 44  1  0  0  0  0
 25 45  1  0  0  0  0
 26 46  1  0  0  0  0
 26 47  1  0  0  0  0
 26 48  1  0  0  0  0
M  END
> <PUBCHEM_COMPOUND_CID>
10605

> <PUBCHEM_COMPOUND_CANONICALIZED>
1

> <PUBCHEM_CACTVS_COMPLEXITY>
638

> <PUBCHEM_CACTVS_HBOND_ACCEPTOR>
6

> <PUBCHEM_CACTVS_HBOND_DONOR>
2

> <PUBCHEM_CACTVS_ROTATABLE_BOND>
4

> <PUBCHEM_CACTVS_SUBSKEYS>
AAADceB6OAAAAAAAAAAAAAAAAAAAAAAAAAAwAAAABggAAAABAAAAHgAQCAAADCzBmAYyBoLABgCIAqBSAAKCCAAgIAAAiIBOiMgNJyKEsRqEcCIl0BUKqYeQ8P8OoAABCAAYQABAAAIQADCAAAAAAAAAAA==

> <PUBCHEM_IUPAC_OPENEYE_NAME>
10-hydroxy-1,2,3-trimethoxy-7-(methylamino)-6,7-dihydro-5H-benzo[a]heptalen-9-one

> <PUBCHEM_IUPAC_CAS_NAME>
10-hydroxy-1,2,3-trimethoxy-7-(methylamino)-6,7-dihydro-5H-benzo[a]heptalen-9-one

> <PUBCHEM_IUPAC_NAME>
10-hydroxy-1,2,3-trimethoxy-7-(methylamino)-6,7-dihydro-5H-benzo[a]heptalen-9-one

> <PUBCHEM_IUPAC_SYSTEMATIC_NAME>
1,2,3-trimethoxy-7-(methylamino)-10-oxidanyl-6,7-dihydro-5H-benzo[a]heptalen-9-one

> <PUBCHEM_IUPAC_TRADITIONAL_NAME>
10-hydroxy-1,2,3-trimethoxy-7-(methylamino)-6,7-dihydro-5H-benzo[a]heptalen-9-one

> <PUBCHEM_IUPAC_INCHI>
InChI=1S/C20H23NO5/c1-21-14-7-5-11-9-17(24-2)19(25-3)20(26-4)18(11)12-6-8-15(22)16(23)10-13(12)14/h6,8-10,14,21H,5,7H2,1-4H3,(H,22,23)

> <PUBCHEM_IUPAC_INCHIKEY>
ATWWYGQDYGSWQA-UHFFFAOYSA-N

> <PUBCHEM_XLOGP3>
1

> <PUBCHEM_EXACT_MASS>
357.157623

> <PUBCHEM_MOLECULAR_FORMULA>
C20H23NO5

> <PUBCHEM_MOLECULAR_WEIGHT>
357.40032

> <PUBCHEM_OPENEYE_CAN_SMILES>
CNC1CCC2=CC(=C(C(=C2C3=CC=C(C(=O)C=C13)O)OC)OC)OC

> <PUBCHEM_OPENEYE_ISO_SMILES>
CNC1CCC2=CC(=C(C(=C2C3=CC=C(C(=O)C=C13)O)OC)OC)OC

> <PUBCHEM_CACTVS_TPSA>
77

> <PUBCHEM_MONOISOTOPIC_WEIGHT>
357.157623

> <PUBCHEM_TOTAL_CHARGE>
0

> <PUBCHEM_HEAVY_ATOM_COUNT>
26

> <PUBCHEM_ATOM_DEF_STEREO_COUNT>
0

> <PUBCHEM_ATOM_UDEF_STEREO_COUNT>
1

> <PUBCHEM_BOND_DEF_STEREO_COUNT>
0

> <PUBCHEM_BOND_UDEF_STEREO_COUNT>
0

> <PUBCHEM_ISOTOPIC_ATOM_COUNT>
0

> <PUBCHEM_COMPONENT_COUNT>
1

> <PUBCHEM_CACTVS_TAUTO_COUNT>
5

> <PUBCHEM_COORDINATE_TYPE>
1
5
255

> <PUBCHEM_BONDANNOTATIONS>
10  13  8
10  16  8
11  12  8
11  15  8
12  14  8
13  17  8
14  18  8
15  19  8
16  21  8
17  22  8
18  19  8
21  23  8
22  23  8
7  6  3

$$$$

