51090929
  -OEChem-06241223002D

 42 43  0     1  0  0  0  0  0999 V2000
    6.0558    5.0875    0.0000 F   0  0  0  0  0  0  0  0  0  0  0  0
    4.7355    4.5807    0.0000 F   0  0  0  0  0  0  0  0  0  0  0  0
    6.5626    3.7672    0.0000 F   0  0  0  0  0  0  0  0  0  0  0  0
    6.3301   -2.0875    0.0000 O   0  0  0  0  0  0  0  0  0  0  0  0
    2.0000   -3.5875    0.0000 O   0  5  0  0  0  0  0  0  0  0  0  0
    2.8660   -2.0875    0.0000 O   0  0  0  0  0  0  0  0  0  0  0  0
    5.8301    2.4514    0.0000 N   0  0  3  0  0  0  0  0  0  0  0  0
    5.4641   -0.5875    0.0000 N   0  0  0  0  0  0  0  0  0  0  0  0
    2.8660   -3.0875    0.0000 N   0  3  0  0  0  0  0  0  0  0  0  0
    6.3301    0.9125    0.0000 C   0  0  3  0  0  0  0  0  0  0  0  0
    7.1391    1.5003    0.0000 C   0  0  0  0  0  0  0  0  0  0  0  0
    5.5211    1.5003    0.0000 C   0  0  0  0  0  0  0  0  0  0  0  0
    6.8301    2.4514    0.0000 C   0  0  0  0  0  0  0  0  0  0  0  0
    6.3301   -0.0875    0.0000 C   0  0  0  0  0  0  0  0  0  0  0  0
    5.2423    3.2604    0.0000 C   0  0  0  0  0  0  0  0  0  0  0  0
    5.6491    4.1739    0.0000 C   0  0  0  0  0  0  0  0  0  0  0  0
    5.4641   -1.5875    0.0000 C   0  0  0  0  0  0  0  0  0  0  0  0
    4.5981   -2.0875    0.0000 C   0  0  0  0  0  0  0  0  0  0  0  0
    4.5981   -3.0875    0.0000 C   0  0  0  0  0  0  0  0  0  0  0  0
    3.7320   -3.5875    0.0000 C   0  0  0  0  0  0  0  0  0  0  0  0
    5.4641   -3.5875    0.0000 C   0  0  0  0  0  0  0  0  0  0  0  0
    3.7320   -4.5875    0.0000 C   0  0  0  0  0  0  0  0  0  0  0  0
    5.4641   -4.5875    0.0000 C   0  0  0  0  0  0  0  0  0  0  0  0
    4.5981   -5.0875    0.0000 C   0  0  0  0  0  0  0  0  0  0  0  0
    6.8826    0.6311    0.0000 H   0  0  0  0  0  0  0  0  0  0  0  0
    7.4491    0.9634    0.0000 H   0  0  0  0  0  0  0  0  0  0  0  0
    7.7055    1.7525    0.0000 H   0  0  0  0  0  0  0  0  0  0  0  0
    4.9547    1.7525    0.0000 H   0  0  0  0  0  0  0  0  0  0  0  0
    5.2111    0.9634    0.0000 H   0  0  0  0  0  0  0  0  0  0  0  0
    7.4366    2.5803    0.0000 H   0  0  0  0  0  0  0  0  0  0  0  0
    6.7653    3.0680    0.0000 H   0  0  0  0  0  0  0  0  0  0  0  0
    6.5422   -0.6701    0.0000 H   0  0  0  0  0  0  0  0  0  0  0  0
    6.9407    0.0202    0.0000 H   0  0  0  0  0  0  0  0  0  0  0  0
    4.7283    3.6071    0.0000 H   0  0  0  0  0  0  0  0  0  0  0  0
    4.8116    2.8144    0.0000 H   0  0  0  0  0  0  0  0  0  0  0  0
    4.9272   -0.2775    0.0000 H   0  0  0  0  0  0  0  0  0  0  0  0
    4.3860   -1.5049    0.0000 H   0  0  0  0  0  0  0  0  0  0  0  0
    3.9875   -2.1951    0.0000 H   0  0  0  0  0  0  0  0  0  0  0  0
    6.0010   -3.2775    0.0000 H   0  0  0  0  0  0  0  0  0  0  0  0
    3.1951   -4.8975    0.0000 H   0  0  0  0  0  0  0  0  0  0  0  0
    6.0010   -4.8975    0.0000 H   0  0  0  0  0  0  0  0  0  0  0  0
    4.5981   -5.7075    0.0000 H   0  0  0  0  0  0  0  0  0  0  0  0
  1 16  1  0  0  0  0
  2 16  1  0  0  0  0
  3 16  1  0  0  0  0
  4 17  2  0  0  0  0
  5  9  1  0  0  0  0
  6  9  2  0  0  0  0
  7 12  1  0  0  0  0
  7 13  1  0  0  0  0
  7 15  1  0  0  0  0
  8 14  1  0  0  0  0
  8 17  1  0  0  0  0
  8 36  1  0  0  0  0
  9 20  1  0  0  0  0
 10 11  1  0  0  0  0
 10 12  1  0  0  0  0
 10 14  1  0  0  0  0
 10 25  1  0  0  0  0
 11 13  1  0  0  0  0
 11 26  1  0  0  0  0
 11 27  1  0  0  0  0
 12 28  1  0  0  0  0
 12 29  1  0  0  0  0
 13 30  1  0  0  0  0
 13 31  1  0  0  0  0
 14 32  1  0  0  0  0
 14 33  1  0  0  0  0
 15 16  1  0  0  0  0
 15 34  1  0  0  0  0
 15 35  1  0  0  0  0
 17 18  1  0  0  0  0
 18 19  1  0  0  0  0
 18 37  1  0  0  0  0
 18 38  1  0  0  0  0
 19 20  1  0  0  0  0
 19 21  2  0  0  0  0
 20 22  2  0  0  0  0
 21 23  1  0  0  0  0
 21 39  1  0  0  0  0
 22 24  1  0  0  0  0
 22 40  1  0  0  0  0
 23 24  2  0  0  0  0
 23 41  1  0  0  0  0
 24 42  1  0  0  0  0
M  CHG  2   5  -1   9   1
M  END
> <PUBCHEM_COMPOUND_CID>
51090929

> <PUBCHEM_COMPOUND_CANONICALIZED>
1

> <PUBCHEM_CACTVS_COMPLEXITY>
454

> <PUBCHEM_CACTVS_HBOND_ACCEPTOR>
7

> <PUBCHEM_CACTVS_HBOND_DONOR>
1

> <PUBCHEM_CACTVS_ROTATABLE_BOND>
5

> <PUBCHEM_CACTVS_SUBSKEYS>
AAADceBzMYAAAAAAAAAAAAAAAAAAAWAAAAAwAAAAAAAAAAABAAAAHwAUAAAADQjBmBQwwIPQQACJAiVSUwCCAAAgAgAoiIEIZIoIIDKA1ZGEIABglgCIyAcciICOAAAAAAACAAAAAAAAAAQAAAAAAAAAAA==

> <PUBCHEM_IUPAC_OPENEYE_NAME>
2-(2-nitrophenyl)-N-[[1-(2,2,2-trifluoroethyl)pyrrolidin-3-yl]methyl]acetamide

> <PUBCHEM_IUPAC_CAS_NAME>
2-(2-nitrophenyl)-N-[[1-(2,2,2-trifluoroethyl)-3-pyrrolidinyl]methyl]acetamide

> <PUBCHEM_IUPAC_NAME>
2-(2-nitrophenyl)-N-[[1-(2,2,2-trifluoroethyl)pyrrolidin-3-yl]methyl]acetamide

> <PUBCHEM_IUPAC_SYSTEMATIC_NAME>
2-(2-nitrophenyl)-N-[[1-[2,2,2-tris(fluoranyl)ethyl]pyrrolidin-3-yl]methyl]ethanamide

> <PUBCHEM_IUPAC_TRADITIONAL_NAME>
2-(2-nitrophenyl)-N-[[1-(2,2,2-trifluoroethyl)pyrrolidin-3-yl]methyl]acetamide

> <PUBCHEM_IUPAC_INCHI>
InChI=1S/C15H18F3N3O3/c16-15(17,18)10-20-6-5-11(9-20)8-19-14(22)7-12-3-1-2-4-13(12)21(23)24/h1-4,11H,5-10H2,(H,19,22)

> <PUBCHEM_IUPAC_INCHIKEY>
VKNFQYQIDIORQX-UHFFFAOYSA-N

> <PUBCHEM_XLOGP3_AA>
2.5

> <PUBCHEM_EXACT_MASS>
345.130026

> <PUBCHEM_MOLECULAR_FORMULA>
C15H18F3N3O3

> <PUBCHEM_MOLECULAR_WEIGHT>
345.31693

> <PUBCHEM_OPENEYE_CAN_SMILES>
C1CN(CC1CNC(=O)CC2=CC=CC=C2[N+](=O)[O-])CC(F)(F)F

> <PUBCHEM_OPENEYE_ISO_SMILES>
C1CN(CC1CNC(=O)CC2=CC=CC=C2[N+](=O)[O-])CC(F)(F)F

> <PUBCHEM_CACTVS_TPSA>
78.2

> <PUBCHEM_MONOISOTOPIC_WEIGHT>
345.130026

> <PUBCHEM_TOTAL_CHARGE>
0

> <PUBCHEM_HEAVY_ATOM_COUNT>
24

> <PUBCHEM_ATOM_DEF_STEREO_COUNT>
0

> <PUBCHEM_ATOM_UDEF_STEREO_COUNT>
1

> <PUBCHEM_BOND_DEF_STEREO_COUNT>
0

> <PUBCHEM_BOND_UDEF_STEREO_COUNT>
0

> <PUBCHEM_ISOTOPIC_ATOM_COUNT>
0

> <PUBCHEM_COMPONENT_COUNT>
1

> <PUBCHEM_CACTVS_TAUTO_COUNT>
2

> <PUBCHEM_COORDINATE_TYPE>
1
5
255

> <PUBCHEM_BONDANNOTATIONS>
10  14  3
19  20  8
19  21  8
20  22  8
21  23  8
22  24  8
23  24  8

$$$$

