583067
  -OEChem-06241222442D

 20 21  0     0  0  0  0  0  0999 V2000
    2.9230    1.0676    0.0000 N   0  0  0  0  0  0  0  0  0  0  0  0
    4.5411    1.0676    0.0000 N   0  0  0  0  0  0  0  0  0  0  0  0
    3.2320    2.0186    0.0000 N   0  0  0  0  0  0  0  0  0  0  0  0
    4.2320    2.0186    0.0000 N   0  0  0  0  0  0  0  0  0  0  0  0
    3.7320   -0.5202    0.0000 C   0  0  0  0  0  0  0  0  0  0  0  0
    2.8660   -1.0202    0.0000 C   0  0  0  0  0  0  0  0  0  0  0  0
    4.5981   -1.0202    0.0000 C   0  0  0  0  0  0  0  0  0  0  0  0
    2.8660   -2.0202    0.0000 C   0  0  0  0  0  0  0  0  0  0  0  0
    3.7320    0.4798    0.0000 C   0  0  0  0  0  0  0  0  0  0  0  0
    2.0000   -0.5202    0.0000 C   0  0  0  0  0  0  0  0  0  0  0  0
    4.5981   -2.0202    0.0000 C   0  0  0  0  0  0  0  0  0  0  0  0
    3.7320   -2.5202    0.0000 C   0  0  0  0  0  0  0  0  0  0  0  0
    5.1350   -0.7102    0.0000 H   0  0  0  0  0  0  0  0  0  0  0  0
    2.3291   -2.3302    0.0000 H   0  0  0  0  0  0  0  0  0  0  0  0
    2.3100    0.0167    0.0000 H   0  0  0  0  0  0  0  0  0  0  0  0
    1.4631   -0.2102    0.0000 H   0  0  0  0  0  0  0  0  0  0  0  0
    1.6900   -1.0572    0.0000 H   0  0  0  0  0  0  0  0  0  0  0  0
    5.1350   -2.3302    0.0000 H   0  0  0  0  0  0  0  0  0  0  0  0
    3.7320   -3.1402    0.0000 H   0  0  0  0  0  0  0  0  0  0  0  0
    2.8676    2.5202    0.0000 H   0  0  0  0  0  0  0  0  0  0  0  0
  1  3  1  0  0  0  0
  1  9  2  0  0  0  0
  2  4  2  0  0  0  0
  2  9  1  0  0  0  0
  3  4  1  0  0  0  0
  3 20  1  0  0  0  0
  5  6  1  0  0  0  0
  5  7  2  0  0  0  0
  5  9  1  0  0  0  0
  6  8  2  0  0  0  0
  6 10  1  0  0  0  0
  7 11  1  0  0  0  0
  7 13  1  0  0  0  0
  8 12  1  0  0  0  0
  8 14  1  0  0  0  0
 10 15  1  0  0  0  0
 10 16  1  0  0  0  0
 10 17  1  0  0  0  0
 11 12  2  0  0  0  0
 11 18  1  0  0  0  0
 12 19  1  0  0  0  0
M  END
> <PUBCHEM_COMPOUND_CID>
583067

> <PUBCHEM_COMPOUND_CANONICALIZED>
1

> <PUBCHEM_CACTVS_COMPLEXITY>
150

> <PUBCHEM_CACTVS_HBOND_ACCEPTOR>
3

> <PUBCHEM_CACTVS_HBOND_DONOR>
1

> <PUBCHEM_CACTVS_ROTATABLE_BOND>
1

> <PUBCHEM_CACTVS_SUBSKEYS>
AAADccBzgAAAAAAAAAAAAAAAAAAAAWAAAAAwAAAAAAAAAAABwAAAHAAYAAAADACBGwAzEIQCAACiAiJiIACCAAIgAAAcqCAgBJgIIKKAkRGAIABggAAIiAcQgIAOgAAAAAAQAAAAAAAAACAAAAAAAAAAAA==

> <PUBCHEM_IUPAC_OPENEYE_NAME>
5-(o-tolyl)-2H-tetrazole

> <PUBCHEM_IUPAC_CAS_NAME>
5-(2-methylphenyl)-2H-tetrazole

> <PUBCHEM_IUPAC_NAME>
5-(2-methylphenyl)-2H-tetrazole

> <PUBCHEM_IUPAC_SYSTEMATIC_NAME>
5-(2-methylphenyl)-2H-1,2,3,4-tetrazole

> <PUBCHEM_IUPAC_TRADITIONAL_NAME>
5-(o-tolyl)-2H-tetrazole

> <PUBCHEM_IUPAC_INCHI>
InChI=1S/C8H8N4/c1-6-4-2-3-5-7(6)8-9-11-12-10-8/h2-5H,1H3,(H,9,10,11,12)

> <PUBCHEM_IUPAC_INCHIKEY>
MTBUOESFHRORQT-UHFFFAOYSA-N

> <PUBCHEM_XLOGP3_AA>
1.5

> <PUBCHEM_EXACT_MASS>
160.074896

> <PUBCHEM_MOLECULAR_FORMULA>
C8H8N4

> <PUBCHEM_MOLECULAR_WEIGHT>
160.17592

> <PUBCHEM_OPENEYE_CAN_SMILES>
CC1=CC=CC=C1C2=NNN=N2

> <PUBCHEM_OPENEYE_ISO_SMILES>
CC1=CC=CC=C1C2=NNN=N2

> <PUBCHEM_CACTVS_TPSA>
54.5

> <PUBCHEM_MONOISOTOPIC_WEIGHT>
160.074896

> <PUBCHEM_TOTAL_CHARGE>
0

> <PUBCHEM_HEAVY_ATOM_COUNT>
12

> <PUBCHEM_ATOM_DEF_STEREO_COUNT>
0

> <PUBCHEM_ATOM_UDEF_STEREO_COUNT>
0

> <PUBCHEM_BOND_DEF_STEREO_COUNT>
0

> <PUBCHEM_BOND_UDEF_STEREO_COUNT>
0

> <PUBCHEM_ISOTOPIC_ATOM_COUNT>
0

> <PUBCHEM_COMPONENT_COUNT>
1

> <PUBCHEM_CACTVS_TAUTO_COUNT>
2

> <PUBCHEM_COORDINATE_TYPE>
1
5
255

> <PUBCHEM_BONDANNOTATIONS>
1  3  8
1  9  8
11  12  8
2  4  8
2  9  8
3  4  8
5  6  8
5  7  8
6  8  8
7  11  8
8  12  8

$$$$

