13251
  -OEChem-06261208062D

 20 20  0     0  0  0  0  0  0999 V2000
    8.4927    1.2853    0.0000 S   0  0  0  0  0  0  0  0  0  0  0  0
    4.5032   -1.0008    0.0000 O   0  0  0  0  0  0  0  0  0  0  0  0
    2.0000   -0.0529    0.0000 O   0  5  0  0  0  0  0  0  0  0  0  0
    2.5352   -1.7002    0.0000 O   0  0  0  0  0  0  0  0  0  0  0  0
    2.7431   -0.7221    0.0000 N   0  3  0  0  0  0  0  0  0  0  0  0
    7.0064   -0.0529    0.0000 N   0  0  0  0  0  0  0  0  0  0  0  0
    7.9575   -0.3619    0.0000 N   0  0  0  0  0  0  0  0  0  0  0  0
    9.6517   -0.0018    0.0000 N   0  0  0  0  0  0  0  0  0  0  0  0
    5.3122   -0.4130    0.0000 C   0  0  0  0  0  0  0  0  0  0  0  0
    5.0032    0.5380    0.0000 C   0  0  0  0  0  0  0  0  0  0  0  0
    3.6942   -0.4130    0.0000 C   0  0  0  0  0  0  0  0  0  0  0  0
    4.0032    0.5380    0.0000 C   0  0  0  0  0  0  0  0  0  0  0  0
    6.2633   -0.7221    0.0000 C   0  0  0  0  0  0  0  0  0  0  0  0
    8.7006    0.3072    0.0000 C   0  0  0  0  0  0  0  0  0  0  0  0
    5.3676    1.0396    0.0000 H   0  0  0  0  0  0  0  0  0  0  0  0
    3.6388    1.0396    0.0000 H   0  0  0  0  0  0  0  0  0  0  0  0
    6.3922   -1.3285    0.0000 H   0  0  0  0  0  0  0  0  0  0  0  0
   10.1124    0.4130    0.0000 H   0  0  0  0  0  0  0  0  0  0  0  0
    9.7806   -0.6083    0.0000 H   0  0  0  0  0  0  0  0  0  0  0  0
    8.9535    1.7002    0.0000 H   0  0  0  0  0  0  0  0  0  0  0  0
  1 14  1  0  0  0  0
  1 20  1  0  0  0  0
  2  9  1  0  0  0  0
  2 11  1  0  0  0  0
  3  5  1  0  0  0  0
  4  5  2  0  0  0  0
  5 11  1  0  0  0  0
  6  7  1  0  0  0  0
  6 13  2  3  0  0  0
  7 14  2  3  0  0  0
  8 14  1  0  0  0  0
  8 18  1  0  0  0  0
  8 19  1  0  0  0  0
  9 10  2  0  0  0  0
  9 13  1  0  0  0  0
 10 12  1  0  0  0  0
 10 15  1  0  0  0  0
 11 12  2  0  0  0  0
 12 16  1  0  0  0  0
 13 17  1  0  0  0  0
M  CHG  2   3  -1   5   1
M  END
> <PUBCHEM_COMPOUND_CID>
13251

> <PUBCHEM_COMPOUND_CANONICALIZED>
1

> <PUBCHEM_CACTVS_COMPLEXITY>
275

> <PUBCHEM_CACTVS_HBOND_ACCEPTOR>
6

> <PUBCHEM_CACTVS_HBOND_DONOR>
2

> <PUBCHEM_CACTVS_ROTATABLE_BOND>
2

> <PUBCHEM_CACTVS_SUBSKEYS>
AAADcYBjsABAAAAAAAAAAAAAAAAAASAAAAAAAAAAAAAAAAABgAAAHgQcAAAACATBkAQxhIBQRESpALFzcwSCCAAsIgAoiAEmbNoMJrKEtZuKGSDkwBEI6Ya8AAAAAAAAAAAAAAAAAAAAAAAAAAAAAAAAAA==

> <PUBCHEM_IUPAC_OPENEYE_NAME>
3-[(5-nitro-2-furyl)methyleneamino]isothiourea

> <PUBCHEM_IUPAC_CAS_NAME>
N'-[(5-nitro-2-furanyl)methylideneamino]carbamimidothioic acid

> <PUBCHEM_IUPAC_NAME>
N'-[(5-nitrofuran-2-yl)methylideneamino]carbamimidothioic acid

> <PUBCHEM_IUPAC_SYSTEMATIC_NAME>
N'-[(5-nitrofuran-2-yl)methylideneamino]carbamimidothioic acid

> <PUBCHEM_IUPAC_TRADITIONAL_NAME>
3-[(5-nitro-2-furyl)methyleneamino]isothiourea

> <PUBCHEM_IUPAC_INCHI>
InChI=1S/C6H6N4O3S/c7-6(14)9-8-3-4-1-2-5(13-4)10(11)12/h1-3H,(H3,7,9,14)

> <PUBCHEM_IUPAC_INCHIKEY>
XWUHTDIIQSYUDH-UHFFFAOYSA-N

> <PUBCHEM_XLOGP3>
0.3

> <PUBCHEM_EXACT_MASS>
214.016061

> <PUBCHEM_MOLECULAR_FORMULA>
C6H6N4O3S

> <PUBCHEM_MOLECULAR_WEIGHT>
214.20184

> <PUBCHEM_OPENEYE_CAN_SMILES>
C1=C(OC(=C1)[N+](=O)[O-])C=NN=C(N)S

> <PUBCHEM_OPENEYE_ISO_SMILES>
C1=C(OC(=C1)[N+](=O)[O-])C=NN=C(N)S

> <PUBCHEM_CACTVS_TPSA>
111

> <PUBCHEM_MONOISOTOPIC_WEIGHT>
214.016061

> <PUBCHEM_TOTAL_CHARGE>
0

> <PUBCHEM_HEAVY_ATOM_COUNT>
14

> <PUBCHEM_ATOM_DEF_STEREO_COUNT>
0

> <PUBCHEM_ATOM_UDEF_STEREO_COUNT>
0

> <PUBCHEM_BOND_DEF_STEREO_COUNT>
0

> <PUBCHEM_BOND_UDEF_STEREO_COUNT>
2

> <PUBCHEM_ISOTOPIC_ATOM_COUNT>
0

> <PUBCHEM_COMPONENT_COUNT>
1

> <PUBCHEM_CACTVS_TAUTO_COUNT>
3

> <PUBCHEM_COORDINATE_TYPE>
1
5
255

> <PUBCHEM_BONDANNOTATIONS>
10  12  8
11  12  8
2  11  8
2  9  8
6  13  1
7  14  1
9  10  8

$$$$

