586318
  -OEChem-06241222462D

 38 38  0     0  0  0  0  0  0999 V2000
    2.0000   -5.0000    0.0000 F   0  0  0  0  0  0  0  0  0  0  0  0
    3.0000   -6.0000    0.0000 F   0  0  0  0  0  0  0  0  0  0  0  0
    4.0000   -5.0000    0.0000 F   0  0  0  0  0  0  0  0  0  0  0  0
    6.4641    6.0000    0.0000 F   0  0  0  0  0  0  0  0  0  0  0  0
    7.4641    5.0000    0.0000 F   0  0  0  0  0  0  0  0  0  0  0  0
    5.4641    5.0000    0.0000 F   0  0  0  0  0  0  0  0  0  0  0  0
    4.7321   -2.0000    0.0000 O   0  0  0  0  0  0  0  0  0  0  0  0
    4.7321    2.0000    0.0000 O   0  0  0  0  0  0  0  0  0  0  0  0
    3.0000   -2.0000    0.0000 O   0  0  0  0  0  0  0  0  0  0  0  0
    6.4641    2.0000    0.0000 O   0  0  0  0  0  0  0  0  0  0  0  0
    4.7321   -1.0000    0.0000 C   0  0  0  0  0  0  0  0  0  0  0  0
    4.7321    1.0000    0.0000 C   0  0  0  0  0  0  0  0  0  0  0  0
    3.8660   -0.5000    0.0000 C   0  0  0  0  0  0  0  0  0  0  0  0
    3.8660    0.5000    0.0000 C   0  0  0  0  0  0  0  0  0  0  0  0
    5.5981   -0.5000    0.0000 C   0  0  0  0  0  0  0  0  0  0  0  0
    5.5981    0.5000    0.0000 C   0  0  0  0  0  0  0  0  0  0  0  0
    3.0000   -4.0000    0.0000 C   0  0  0  0  0  0  0  0  0  0  0  0
    6.4641    4.0000    0.0000 C   0  0  0  0  0  0  0  0  0  0  0  0
    3.8660   -3.5000    0.0000 C   0  0  0  0  0  0  0  0  0  0  0  0
    5.5981    3.5000    0.0000 C   0  0  0  0  0  0  0  0  0  0  0  0
    3.0000   -5.0000    0.0000 C   0  0  0  0  0  0  0  0  0  0  0  0
    6.4641    5.0000    0.0000 C   0  0  0  0  0  0  0  0  0  0  0  0
    2.1340   -3.5000    0.0000 C   0  0  0  0  0  0  0  0  0  0  0  0
    7.3301    3.5000    0.0000 C   0  0  0  0  0  0  0  0  0  0  0  0
    3.8660   -2.5000    0.0000 C   0  0  0  0  0  0  0  0  0  0  0  0
    5.5981    2.5000    0.0000 C   0  0  0  0  0  0  0  0  0  0  0  0
    3.3291   -0.8100    0.0000 H   0  0  0  0  0  0  0  0  0  0  0  0
    3.3291    0.8100    0.0000 H   0  0  0  0  0  0  0  0  0  0  0  0
    6.1350   -0.8100    0.0000 H   0  0  0  0  0  0  0  0  0  0  0  0
    6.1350    0.8100    0.0000 H   0  0  0  0  0  0  0  0  0  0  0  0
    4.4030   -3.8100    0.0000 H   0  0  0  0  0  0  0  0  0  0  0  0
    5.0611    3.8100    0.0000 H   0  0  0  0  0  0  0  0  0  0  0  0
    2.4440   -2.9631    0.0000 H   0  0  0  0  0  0  0  0  0  0  0  0
    1.5970   -3.1900    0.0000 H   0  0  0  0  0  0  0  0  0  0  0  0
    1.8240   -4.0369    0.0000 H   0  0  0  0  0  0  0  0  0  0  0  0
    7.0201    2.9631    0.0000 H   0  0  0  0  0  0  0  0  0  0  0  0
    7.8671    3.1900    0.0000 H   0  0  0  0  0  0  0  0  0  0  0  0
    7.6401    4.0369    0.0000 H   0  0  0  0  0  0  0  0  0  0  0  0
  1 21  1  0  0  0  0
  2 21  1  0  0  0  0
  3 21  1  0  0  0  0
  4 22  1  0  0  0  0
  5 22  1  0  0  0  0
  6 22  1  0  0  0  0
  7 11  1  0  0  0  0
  7 25  1  0  0  0  0
  8 12  1  0  0  0  0
  8 26  1  0  0  0  0
  9 25  2  0  0  0  0
 10 26  2  0  0  0  0
 11 13  2  0  0  0  0
 11 15  1  0  0  0  0
 12 14  2  0  0  0  0
 12 16  1  0  0  0  0
 13 14  1  0  0  0  0
 13 27  1  0  0  0  0
 14 28  1  0  0  0  0
 15 16  2  0  0  0  0
 15 29  1  0  0  0  0
 16 30  1  0  0  0  0
 17 19  2  3  0  0  0
 17 21  1  0  0  0  0
 17 23  1  0  0  0  0
 18 20  2  3  0  0  0
 18 22  1  0  0  0  0
 18 24  1  0  0  0  0
 19 25  1  0  0  0  0
 19 31  1  0  0  0  0
 20 26  1  0  0  0  0
 20 32  1  0  0  0  0
 23 33  1  0  0  0  0
 23 34  1  0  0  0  0
 23 35  1  0  0  0  0
 24 36  1  0  0  0  0
 24 37  1  0  0  0  0
 24 38  1  0  0  0  0
M  END
> <PUBCHEM_COMPOUND_CID>
586318

> <PUBCHEM_COMPOUND_CANONICALIZED>
1

> <PUBCHEM_CACTVS_COMPLEXITY>
529

> <PUBCHEM_CACTVS_HBOND_ACCEPTOR>
10

> <PUBCHEM_CACTVS_HBOND_DONOR>
0

> <PUBCHEM_CACTVS_ROTATABLE_BOND>
6

> <PUBCHEM_CACTVS_SUBSKEYS>
AAADccB4OcAAAAAAAAAAAAAAAAAAAAAAAAAwAAAAAAAAAAABAAAAGwAAAAAADASAkBAyDoAABACIAiDSCAACCAAgIAAIiAAGCMgMJiKEMRqCOiCkwBEIqQfAQAAAAQAAAAAAAAACAAAAAAAAAAAAAAAAAA==

> <PUBCHEM_IUPAC_OPENEYE_NAME>
[4-(4,4,4-trifluoro-3-methyl-but-2-enoyl)oxyphenyl] 4,4,4-trifluoro-3-methyl-but-2-enoate

> <PUBCHEM_IUPAC_CAS_NAME>
4,4,4-trifluoro-3-methyl-2-butenoic acid [4-(4,4,4-trifluoro-3-methyl-1-oxobut-2-enoxy)phenyl] ester

> <PUBCHEM_IUPAC_NAME>
[4-(4,4,4-trifluoro-3-methylbut-2-enoyl)oxyphenyl] 4,4,4-trifluoro-3-methylbut-2-enoate

> <PUBCHEM_IUPAC_SYSTEMATIC_NAME>
[4-[4,4,4-tris(fluoranyl)-3-methyl-but-2-enoyl]oxyphenyl] 4,4,4-tris(fluoranyl)-3-methyl-but-2-enoate

> <PUBCHEM_IUPAC_TRADITIONAL_NAME>
4,4,4-trifluoro-3-methyl-but-2-enoic acid [4-(4,4,4-trifluoro-3-methyl-but-2-enoyl)oxyphenyl] ester

> <PUBCHEM_IUPAC_INCHI>
InChI=1S/C16H12F6O4/c1-9(15(17,18)19)7-13(23)25-11-3-5-12(6-4-11)26-14(24)8-10(2)16(20,21)22/h3-8H,1-2H3

> <PUBCHEM_IUPAC_INCHIKEY>
SJBSQMRVNQWURY-UHFFFAOYSA-N

> <PUBCHEM_XLOGP3_AA>
5.4

> <PUBCHEM_EXACT_MASS>
382.063978

> <PUBCHEM_MOLECULAR_FORMULA>
C16H12F6O4

> <PUBCHEM_MOLECULAR_WEIGHT>
382.254499

> <PUBCHEM_OPENEYE_CAN_SMILES>
CC(=CC(=O)OC1=CC=C(C=C1)OC(=O)C=C(C)C(F)(F)F)C(F)(F)F

> <PUBCHEM_OPENEYE_ISO_SMILES>
CC(=CC(=O)OC1=CC=C(C=C1)OC(=O)C=C(C)C(F)(F)F)C(F)(F)F

> <PUBCHEM_CACTVS_TPSA>
52.6

> <PUBCHEM_MONOISOTOPIC_WEIGHT>
382.063978

> <PUBCHEM_TOTAL_CHARGE>
0

> <PUBCHEM_HEAVY_ATOM_COUNT>
26

> <PUBCHEM_ATOM_DEF_STEREO_COUNT>
0

> <PUBCHEM_ATOM_UDEF_STEREO_COUNT>
0

> <PUBCHEM_BOND_DEF_STEREO_COUNT>
0

> <PUBCHEM_BOND_UDEF_STEREO_COUNT>
2

> <PUBCHEM_ISOTOPIC_ATOM_COUNT>
0

> <PUBCHEM_COMPONENT_COUNT>
1

> <PUBCHEM_CACTVS_TAUTO_COUNT>
1

> <PUBCHEM_COORDINATE_TYPE>
1
5
255

> <PUBCHEM_BONDANNOTATIONS>
11  13  8
11  15  8
12  14  8
12  16  8
13  14  8
15  16  8
17  19  1
18  20  1

$$$$

