6382
  -OEChem-06261201172D

  5  4  0     0  0  0  0  0  0999 V2000
    3.7320    0.5000    0.0000 Br  0  0  0  0  0  0  0  0  0  0  0  0
    2.0000   -0.5000    0.0000 Br  0  0  0  0  0  0  0  0  0  0  0  0
    2.3660    0.8660    0.0000 F   0  0  0  0  0  0  0  0  0  0  0  0
    3.3660   -0.8660    0.0000 F   0  0  0  0  0  0  0  0  0  0  0  0
    2.8660    0.0000    0.0000 C   0  0  0  0  0  0  0  0  0  0  0  0
  1  5  1  0  0  0  0
  2  5  1  0  0  0  0
  3  5  1  0  0  0  0
  4  5  1  0  0  0  0
M  END
> <PUBCHEM_COMPOUND_CID>
6382

> <PUBCHEM_COMPOUND_CANONICALIZED>
1

> <PUBCHEM_CACTVS_COMPLEXITY>
30.6

> <PUBCHEM_CACTVS_HBOND_ACCEPTOR>
2

> <PUBCHEM_CACTVS_HBOND_DONOR>
0

> <PUBCHEM_CACTVS_ROTATABLE_BOND>
0

> <PUBCHEM_CACTVS_SUBSKEYS>
AAADcQAAAYAAGAAAAAAAAAAAAAAAAAAAAAAAAAAAAAAAAAAAAAAAAQBAAAAAAAAAABAAAAAAAAAAAAAAAAAAAAAAAAAAAAAAAAAAAAAAAAAAAAAAAAAAAAAAAAAAAAAAAAAAAAAAAAAAAAAAAAAAAAAAAA==

> <PUBCHEM_IUPAC_OPENEYE_NAME>
dibromo(difluoro)methane

> <PUBCHEM_IUPAC_CAS_NAME>
dibromo(difluoro)methane

> <PUBCHEM_IUPAC_NAME>
dibromo(difluoro)methane

> <PUBCHEM_IUPAC_SYSTEMATIC_NAME>
bis(bromanyl)-bis(fluoranyl)methane

> <PUBCHEM_IUPAC_TRADITIONAL_NAME>
dibromo(difluoro)methane

> <PUBCHEM_IUPAC_INCHI>
InChI=1S/CBr2F2/c2-1(3,4)5

> <PUBCHEM_IUPAC_INCHIKEY>
AZSZCFSOHXEJQE-UHFFFAOYSA-N

> <PUBCHEM_XLOGP3_AA>
2.6

> <PUBCHEM_EXACT_MASS>
209.831434

> <PUBCHEM_MOLECULAR_FORMULA>
CBr2F2

> <PUBCHEM_MOLECULAR_WEIGHT>
209.815506

> <PUBCHEM_OPENEYE_CAN_SMILES>
C(F)(F)(Br)Br

> <PUBCHEM_OPENEYE_ISO_SMILES>
C(F)(F)(Br)Br

> <PUBCHEM_CACTVS_TPSA>
0

> <PUBCHEM_MONOISOTOPIC_WEIGHT>
207.833481

> <PUBCHEM_TOTAL_CHARGE>
0

> <PUBCHEM_HEAVY_ATOM_COUNT>
5

> <PUBCHEM_ATOM_DEF_STEREO_COUNT>
0

> <PUBCHEM_ATOM_UDEF_STEREO_COUNT>
0

> <PUBCHEM_BOND_DEF_STEREO_COUNT>
0

> <PUBCHEM_BOND_UDEF_STEREO_COUNT>
0

> <PUBCHEM_ISOTOPIC_ATOM_COUNT>
0

> <PUBCHEM_COMPONENT_COUNT>
1

> <PUBCHEM_CACTVS_TAUTO_COUNT>
1

> <PUBCHEM_COORDINATE_TYPE>
1
5
255

$$$$

