6878
  -OEChem-06261201332D

 19 18  0     0  0  0  0  0  0999 V2000
    4.6350    1.9145    0.0000 Bi  0  0  0  0  0  0  0  0  0  0  0  0
    5.1350    1.0485    0.0000 O   0  0  0  0  0  0  0  0  0  0  0  0
    2.5369   -0.4515    0.0000 O   0  0  0  0  0  0  0  0  0  0  0  0
    3.4030    1.0485    0.0000 O   0  0  0  0  0  0  0  0  0  0  0  0
    3.6350    1.9145    0.0000 O   0  0  0  0  0  0  0  0  0  0  0  0
    4.2690   -0.4515    0.0000 C   0  0  0  0  0  0  0  0  0  0  0  0
    3.4030   -0.9515    0.0000 C   0  0  0  0  0  0  0  0  0  0  0  0
    5.1350   -0.9515    0.0000 C   0  0  0  0  0  0  0  0  0  0  0  0
    3.4030   -1.9515    0.0000 C   0  0  0  0  0  0  0  0  0  0  0  0
    4.2690    0.5485    0.0000 C   0  0  0  0  0  0  0  0  0  0  0  0
    5.1350   -1.9515    0.0000 C   0  0  0  0  0  0  0  0  0  0  0  0
    4.2690   -2.4515    0.0000 C   0  0  0  0  0  0  0  0  0  0  0  0
    5.6719   -0.6415    0.0000 H   0  0  0  0  0  0  0  0  0  0  0  0
    2.8660   -2.2615    0.0000 H   0  0  0  0  0  0  0  0  0  0  0  0
    5.6719   -2.2615    0.0000 H   0  0  0  0  0  0  0  0  0  0  0  0
    4.2690   -3.0715    0.0000 H   0  0  0  0  0  0  0  0  0  0  0  0
    5.4450    0.5116    0.0000 H   0  0  0  0  0  0  0  0  0  0  0  0
    2.0000   -0.7615    0.0000 H   0  0  0  0  0  0  0  0  0  0  0  0
    4.9450    2.4515    0.0000 H   0  0  0  0  0  0  0  0  0  0  0  0
  1  5  2  0  0  0  0
  1 19  1  0  0  0  0
  2 10  1  0  0  0  0
  2 17  1  0  0  0  0
  3  7  1  0  0  0  0
  3 18  1  0  0  0  0
  4 10  2  0  0  0  0
  6  7  1  0  0  0  0
  6  8  2  0  0  0  0
  6 10  1  0  0  0  0
  7  9  2  0  0  0  0
  8 11  1  0  0  0  0
  8 13  1  0  0  0  0
  9 12  1  0  0  0  0
  9 14  1  0  0  0  0
 11 12  2  0  0  0  0
 11 15  1  0  0  0  0
 12 16  1  0  0  0  0
M  END
> <PUBCHEM_COMPOUND_CID>
6878

> <PUBCHEM_COMPOUND_CANONICALIZED>
1

> <PUBCHEM_CACTVS_COMPLEXITY>
150

> <PUBCHEM_CACTVS_HBOND_ACCEPTOR>
4

> <PUBCHEM_CACTVS_HBOND_DONOR>
2

> <PUBCHEM_CACTVS_ROTATABLE_BOND>
1

> <PUBCHEM_CACTVS_SUBSKEYS>
AAADcYBgOAAAAAAAAAAAACAAAAAAAAAAAAAwAAAAAAAAAAABAAAAGgAACAAADASAmAAwDoAAAgCIAiDSCAACAAAkIAAIiAEGCMgIJzaCFRKAcUAl4BEImYeIyCCOAAAAAAAIAAAAAAAAABAAAAAAAAAAAA==

> <PUBCHEM_IUPAC_OPENEYE_NAME>
2-hydroxybenzoic acid; oxobismuthane

> <PUBCHEM_IUPAC_CAS_NAME>
2-hydroxybenzoic acid; oxobismuthine

> <PUBCHEM_IUPAC_NAME>
2-hydroxybenzoic acid; oxobismuthane

> <PUBCHEM_IUPAC_SYSTEMATIC_NAME>
2-oxidanylbenzoic acid; oxidanylidenebismuthane

> <PUBCHEM_IUPAC_TRADITIONAL_NAME>
ketobismuthine; salicylic acid

> <PUBCHEM_IUPAC_INCHI>
InChI=1S/C7H6O3.Bi.O.H/c8-6-4-2-1-3-5(6)7(9)10;;;/h1-4,8H,(H,9,10);;;

> <PUBCHEM_IUPAC_INCHIKEY>
XTDPXUWVCGDGMA-UHFFFAOYSA-N

> <PUBCHEM_EXACT_MASS>
364.014832

> <PUBCHEM_MOLECULAR_FORMULA>
C7H7BiO4

> <PUBCHEM_MOLECULAR_WEIGHT>
364.10848

> <PUBCHEM_OPENEYE_CAN_SMILES>
C1=CC=C(C(=C1)C(=O)O)O.O=[BiH]

> <PUBCHEM_OPENEYE_ISO_SMILES>
C1=CC=C(C(=C1)C(=O)O)O.O=[BiH]

> <PUBCHEM_CACTVS_TPSA>
74.6

> <PUBCHEM_MONOISOTOPIC_WEIGHT>
364.014832

> <PUBCHEM_TOTAL_CHARGE>
0

> <PUBCHEM_HEAVY_ATOM_COUNT>
12

> <PUBCHEM_ATOM_DEF_STEREO_COUNT>
0

> <PUBCHEM_ATOM_UDEF_STEREO_COUNT>
0

> <PUBCHEM_BOND_DEF_STEREO_COUNT>
0

> <PUBCHEM_BOND_UDEF_STEREO_COUNT>
0

> <PUBCHEM_ISOTOPIC_ATOM_COUNT>
0

> <PUBCHEM_COMPONENT_COUNT>
2

> <PUBCHEM_CACTVS_TAUTO_COUNT>
7

> <PUBCHEM_NONSTANDARDBOND>
1  2  6

> <PUBCHEM_COORDINATE_TYPE>
1
5
255

> <PUBCHEM_BONDANNOTATIONS>
1  2  4
11  12  8
6  7  8
6  8  8
7  9  8
8  11  8
9  12  8

$$$$

