9170
  -OEChem-06261203282D

 30 33  0     0  0  0  0  0  0999 V2000
    4.0693    1.3070    0.0000 C   0  0  0  0  0  0  0  0  0  0  0  0
    3.5693    0.4410    0.0000 C   0  0  0  0  0  0  0  0  0  0  0  0
    5.0693    1.3070    0.0000 C   0  0  0  0  0  0  0  0  0  0  0  0
    4.0693   -0.4250    0.0000 C   0  0  0  0  0  0  0  0  0  0  0  0
    5.5693    0.4410    0.0000 C   0  0  0  0  0  0  0  0  0  0  0  0
    5.0693   -0.4250    0.0000 C   0  0  0  0  0  0  0  0  0  0  0  0
    5.6039   -1.3190    0.0000 C   0  0  0  0  0  0  0  0  0  0  0  0
    6.6108    0.4249    0.0000 C   0  0  0  0  0  0  0  0  0  0  0  0
    3.5346   -1.3190    0.0000 C   0  0  0  0  0  0  0  0  0  0  0  0
    5.5761    2.2170    0.0000 C   0  0  0  0  0  0  0  0  0  0  0  0
    2.5278    0.4249    0.0000 C   0  0  0  0  0  0  0  0  0  0  0  0
    3.5624    2.2170    0.0000 C   0  0  0  0  0  0  0  0  0  0  0  0
    2.5208    2.2250    0.0000 C   0  0  0  0  0  0  0  0  0  0  0  0
    2.0000    1.3230    0.0000 C   0  0  0  0  0  0  0  0  0  0  0  0
    6.6177    2.2250    0.0000 C   0  0  0  0  0  0  0  0  0  0  0  0
    4.0484   -2.2250    0.0000 C   0  0  0  0  0  0  0  0  0  0  0  0
    7.1385    1.3230    0.0000 C   0  0  0  0  0  0  0  0  0  0  0  0
    5.0901   -2.2250    0.0000 C   0  0  0  0  0  0  0  0  0  0  0  0
    3.8786    2.7503    0.0000 H   0  0  0  0  0  0  0  0  0  0  0  0
    2.2240   -0.1156    0.0000 H   0  0  0  0  0  0  0  0  0  0  0  0
    5.2599    2.7503    0.0000 H   0  0  0  0  0  0  0  0  0  0  0  0
    2.9146   -1.3118    0.0000 H   0  0  0  0  0  0  0  0  0  0  0  0
    6.9145   -0.1156    0.0000 H   0  0  0  0  0  0  0  0  0  0  0  0
    6.2239   -1.3118    0.0000 H   0  0  0  0  0  0  0  0  0  0  0  0
    2.2129    2.7632    0.0000 H   0  0  0  0  0  0  0  0  0  0  0  0
    1.3800    1.3206    0.0000 H   0  0  0  0  0  0  0  0  0  0  0  0
    6.9256    2.7632    0.0000 H   0  0  0  0  0  0  0  0  0  0  0  0
    3.7364   -2.7608    0.0000 H   0  0  0  0  0  0  0  0  0  0  0  0
    7.7585    1.3206    0.0000 H   0  0  0  0  0  0  0  0  0  0  0  0
    5.4021   -2.7608    0.0000 H   0  0  0  0  0  0  0  0  0  0  0  0
  1  2  1  0  0  0  0
  1  3  1  0  0  0  0
  1 12  2  0  0  0  0
  2  4  1  0  0  0  0
  2 11  2  0  0  0  0
  3  5  1  0  0  0  0
  3 10  2  0  0  0  0
  4  6  1  0  0  0  0
  4  9  2  0  0  0  0
  5  6  1  0  0  0  0
  5  8  2  0  0  0  0
  6  7  2  0  0  0  0
  7 18  1  0  0  0  0
  7 24  1  0  0  0  0
  8 17  1  0  0  0  0
  8 23  1  0  0  0  0
  9 16  1  0  0  0  0
  9 22  1  0  0  0  0
 10 15  1  0  0  0  0
 10 21  1  0  0  0  0
 11 14  1  0  0  0  0
 11 20  1  0  0  0  0
 12 13  1  0  0  0  0
 12 19  1  0  0  0  0
 13 14  2  0  0  0  0
 13 25  1  0  0  0  0
 14 26  1  0  0  0  0
 15 17  2  0  0  0  0
 15 27  1  0  0  0  0
 16 18  2  0  0  0  0
 16 28  1  0  0  0  0
 17 29  1  0  0  0  0
 18 30  1  0  0  0  0
M  END
> <PUBCHEM_COMPOUND_CID>
9170

> <PUBCHEM_COMPOUND_CANONICALIZED>
1

> <PUBCHEM_CACTVS_COMPLEXITY>
217

> <PUBCHEM_CACTVS_HBOND_ACCEPTOR>
0

> <PUBCHEM_CACTVS_HBOND_DONOR>
0

> <PUBCHEM_CACTVS_ROTATABLE_BOND>
0

> <PUBCHEM_CACTVS_SUBSKEYS>
AAADccB4AAAAAAAAAAAAAAAAAAAAAAAAAAAwYMGAAAAAAADBVAAAGAAAAAAADACAGAAwAMAAAACAAiBCAAACAAAgAAAIiAAAAIgIICKAERCAIAAggAAIiAcAgMAOwAACAAAQAACAAAQAACAAAAAAAAAAAA==

> <PUBCHEM_IUPAC_OPENEYE_NAME>
triphenylene

> <PUBCHEM_IUPAC_CAS_NAME>
triphenylene

> <PUBCHEM_IUPAC_NAME>
triphenylene

> <PUBCHEM_IUPAC_SYSTEMATIC_NAME>
triphenylene

> <PUBCHEM_IUPAC_TRADITIONAL_NAME>
triphenylene

> <PUBCHEM_IUPAC_INCHI>
InChI=1S/C18H12/c1-2-8-14-13(7-1)15-9-3-4-11-17(15)18-12-6-5-10-16(14)18/h1-12H

> <PUBCHEM_IUPAC_INCHIKEY>
SLGBZMMZGDRARJ-UHFFFAOYSA-N

> <PUBCHEM_XLOGP3_AA>
4.9

> <PUBCHEM_EXACT_MASS>
228.0939

> <PUBCHEM_MOLECULAR_FORMULA>
C18H12

> <PUBCHEM_MOLECULAR_WEIGHT>
228.28788

> <PUBCHEM_OPENEYE_CAN_SMILES>
C1=CC=C2C(=C1)C3=CC=CC=C3C4=CC=CC=C24

> <PUBCHEM_OPENEYE_ISO_SMILES>
C1=CC=C2C(=C1)C3=CC=CC=C3C4=CC=CC=C24

> <PUBCHEM_CACTVS_TPSA>
0

> <PUBCHEM_MONOISOTOPIC_WEIGHT>
228.0939

> <PUBCHEM_TOTAL_CHARGE>
0

> <PUBCHEM_HEAVY_ATOM_COUNT>
18

> <PUBCHEM_ATOM_DEF_STEREO_COUNT>
0

> <PUBCHEM_ATOM_UDEF_STEREO_COUNT>
0

> <PUBCHEM_BOND_DEF_STEREO_COUNT>
0

> <PUBCHEM_BOND_UDEF_STEREO_COUNT>
0

> <PUBCHEM_ISOTOPIC_ATOM_COUNT>
0

> <PUBCHEM_COMPONENT_COUNT>
1

> <PUBCHEM_CACTVS_TAUTO_COUNT>
1

> <PUBCHEM_COORDINATE_TYPE>
1
5
255

> <PUBCHEM_BONDANNOTATIONS>
1  12  8
1  2  8
1  3  8
10  15  8
11  14  8
12  13  8
13  14  8
15  17  8
16  18  8
2  11  8
2  4  8
3  10  8
3  5  8
4  6  8
4  9  8
5  6  8
5  8  8
6  7  8
7  18  8
8  17  8
9  16  8

$$$$

