4598
  -OEChem-06261200142D

 65 68  0     1  0  0  0  0  0999 V2000
    4.2585   -1.8134    0.0000 O   0  0  0  0  0  0  0  0  0  0  0  0
    2.0000    3.6862    0.0000 O   0  0  0  0  0  0  0  0  0  0  0  0
    5.0980    4.4289    0.0000 O   0  0  0  0  0  0  0  0  0  0  0  0
    7.0162    2.8529    0.0000 O   0  0  0  0  0  0  0  0  0  0  0  0
    3.4954    0.5569    0.0000 C   0  0  3  0  0  0  0  0  0  0  0  0
    4.3387   -0.8166    0.0000 C   0  0  3  0  0  0  0  0  0  0  0  0
    4.4192    0.1742    0.0000 C   0  0  3  0  0  0  0  0  0  0  0  0
    2.8517   -0.2007    0.0000 C   0  0  0  0  0  0  0  0  0  0  0  0
    3.3719   -1.0478    0.0000 C   0  0  0  0  0  0  0  0  0  0  0  0
    3.1127    1.4808    0.0000 C   0  0  0  0  0  0  0  0  0  0  0  0
    5.3115   -0.5849    0.0000 C   0  0  3  0  0  0  0  0  0  0  0  0
    3.4954    2.4046    0.0000 C   0  0  3  0  0  0  0  0  0  0  0  0
    5.3431    0.5569    0.0000 C   0  0  0  0  0  0  0  0  0  0  0  0
    2.5715    0.9396    0.0000 C   0  0  0  0  0  0  0  0  0  0  0  0
    5.8325   -1.4384    0.0000 C   0  0  0  0  0  0  0  0  0  0  0  0
    4.4192    2.7873    0.0000 C   0  0  3  0  0  0  0  0  0  0  0  0
    2.8517    3.1622    0.0000 C   0  0  3  0  0  0  0  0  0  0  0  0
    5.1817   -2.1977    0.0000 C   0  0  3  0  0  0  0  0  0  0  0  0
    6.1059    0.0225    0.0000 C   0  0  0  0  0  0  0  0  0  0  0  0
    3.3719    4.0094    0.0000 C   0  0  0  0  0  0  0  0  0  0  0  0
    5.7258    1.4808    0.0000 C   0  0  0  0  0  0  0  0  0  0  0  0
    5.3431    2.4046    0.0000 C   0  0  0  0  0  0  0  0  0  0  0  0
    4.3387    3.7781    0.0000 C   0  0  0  0  0  0  0  0  0  0  0  0
    2.0902    2.5141    0.0000 C   0  0  0  0  0  0  0  0  0  0  0  0
    5.4135   -3.1705    0.0000 C   0  0  0  0  0  0  0  0  0  0  0  0
    6.0502    3.1117    0.0000 C   0  0  0  0  0  0  0  0  0  0  0  0
    6.3718   -3.4561    0.0000 C   0  0  0  0  0  0  0  0  0  0  0  0
    6.6036   -4.4289    0.0000 C   0  0  0  0  0  0  0  0  0  0  0  0
    7.0984   -2.7690    0.0000 C   0  0  0  0  0  0  0  0  0  0  0  0
    5.1063   -0.3263    0.0000 H   0  0  0  0  0  0  0  0  0  0  0  0
    2.4240    0.2482    0.0000 H   0  0  0  0  0  0  0  0  0  0  0  0
    2.3604   -0.5788    0.0000 H   0  0  0  0  0  0  0  0  0  0  0  0
    2.8124   -1.3149    0.0000 H   0  0  0  0  0  0  0  0  0  0  0  0
    3.5787   -1.6323    0.0000 H   0  0  0  0  0  0  0  0  0  0  0  0
    2.6208    1.8582    0.0000 H   0  0  0  0  0  0  0  0  0  0  0  0
    2.6208    1.1033    0.0000 H   0  0  0  0  0  0  0  0  0  0  0  0
    4.9469    0.1830    0.0000 H   0  0  0  0  0  0  0  0  0  0  0  0
    2.6557    2.2728    0.0000 H   0  0  0  0  0  0  0  0  0  0  0  0
    5.4241   -0.0578    0.0000 H   0  0  0  0  0  0  0  0  0  0  0  0
    5.9578    0.4760    0.0000 H   0  0  0  0  0  0  0  0  0  0  0  0
    2.8088    1.5124    0.0000 H   0  0  0  0  0  0  0  0  0  0  0  0
    1.9987    1.1768    0.0000 H   0  0  0  0  0  0  0  0  0  0  0  0
    2.3342    0.3668    0.0000 H   0  0  0  0  0  0  0  0  0  0  0  0
    6.2585   -1.8889    0.0000 H   0  0  0  0  0  0  0  0  0  0  0  0
    6.3250   -1.0618    0.0000 H   0  0  0  0  0  0  0  0  0  0  0  0
    5.1063    3.2878    0.0000 H   0  0  0  0  0  0  0  0  0  0  0  0
    4.5344   -2.7486    0.0000 H   0  0  0  0  0  0  0  0  0  0  0  0
    6.4824   -0.4700    0.0000 H   0  0  0  0  0  0  0  0  0  0  0  0
    6.5984    0.3991    0.0000 H   0  0  0  0  0  0  0  0  0  0  0  0
    5.7293    0.5151    0.0000 H   0  0  0  0  0  0  0  0  0  0  0  0
    3.5787    4.5939    0.0000 H   0  0  0  0  0  0  0  0  0  0  0  0
    2.8124    4.2764    0.0000 H   0  0  0  0  0  0  0  0  0  0  0  0
    6.3458    1.4808    0.0000 H   0  0  0  0  0  0  0  0  0  0  0  0
    1.6884    2.9862    0.0000 H   0  0  0  0  0  0  0  0  0  0  0  0
    1.6181    2.1122    0.0000 H   0  0  0  0  0  0  0  0  0  0  0  0
    2.4920    2.0419    0.0000 H   0  0  0  0  0  0  0  0  0  0  0  0
    4.9630   -3.5964    0.0000 H   0  0  0  0  0  0  0  0  0  0  0  0
    2.0173    4.3060    0.0000 H   0  0  0  0  0  0  0  0  0  0  0  0
    5.8898    3.7106    0.0000 H   0  0  0  0  0  0  0  0  0  0  0  0
    6.0004   -4.5726    0.0000 H   0  0  0  0  0  0  0  0  0  0  0  0
    6.7473   -5.0320    0.0000 H   0  0  0  0  0  0  0  0  0  0  0  0
    7.2067   -4.2852    0.0000 H   0  0  0  0  0  0  0  0  0  0  0  0
    7.5244   -3.2195    0.0000 H   0  0  0  0  0  0  0  0  0  0  0  0
    7.5488   -2.3430    0.0000 H   0  0  0  0  0  0  0  0  0  0  0  0
    6.6724   -2.3186    0.0000 H   0  0  0  0  0  0  0  0  0  0  0  0
  1  6  1  0  0  0  0
  1 18  1  0  0  0  0
  2 17  1  0  0  0  0
  2 58  1  0  0  0  0
  3 23  2  0  0  0  0
  4 26  2  0  0  0  0
  5  7  1  0  0  0  0
  5  8  1  0  0  0  0
  5 10  1  0  0  0  0
  5 14  1  0  0  0  0
  6  7  1  0  0  0  0
  6  9  1  0  0  0  0
  6 11  1  0  0  0  0
  7 13  1  0  0  0  0
  7 30  1  0  0  0  0
  8  9  1  0  0  0  0
  8 31  1  0  0  0  0
  8 32  1  0  0  0  0
  9 33  1  0  0  0  0
  9 34  1  0  0  0  0
 10 12  1  0  0  0  0
 10 35  1  0  0  0  0
 10 36  1  0  0  0  0
 11 15  1  0  0  0  0
 11 19  1  0  0  0  0
 11 37  1  0  0  0  0
 12 16  1  0  0  0  0
 12 17  1  0  0  0  0
 12 38  1  0  0  0  0
 13 21  1  0  0  0  0
 13 39  1  0  0  0  0
 13 40  1  0  0  0  0
 14 41  1  0  0  0  0
 14 42  1  0  0  0  0
 14 43  1  0  0  0  0
 15 18  1  0  0  0  0
 15 44  1  0  0  0  0
 15 45  1  0  0  0  0
 16 22  1  0  0  0  0
 16 23  1  0  0  0  0
 16 46  1  0  0  0  0
 17 20  1  0  0  0  0
 17 24  1  0  0  0  0
 18 25  1  0  0  0  0
 18 47  1  0  0  0  0
 19 48  1  0  0  0  0
 19 49  1  0  0  0  0
 19 50  1  0  0  0  0
 20 23  1  0  0  0  0
 20 51  1  0  0  0  0
 20 52  1  0  0  0  0
 21 22  2  3  0  0  0
 21 53  1  0  0  0  0
 22 26  1  0  0  0  0
 24 54  1  0  0  0  0
 24 55  1  0  0  0  0
 24 56  1  0  0  0  0
 25 27  2  0  0  0  0
 25 57  1  0  0  0  0
 26 59  1  0  0  0  0
 27 28  1  0  0  0  0
 27 29  1  0  0  0  0
 28 60  1  0  0  0  0
 28 61  1  0  0  0  0
 28 62  1  0  0  0  0
 29 63  1  0  0  0  0
 29 64  1  0  0  0  0
 29 65  1  0  0  0  0
M  END
> <PUBCHEM_COMPOUND_CID>
4598

> <PUBCHEM_COMPOUND_CANONICALIZED>
1

> <PUBCHEM_CACTVS_COMPLEXITY>
778

> <PUBCHEM_CACTVS_HBOND_ACCEPTOR>
4

> <PUBCHEM_CACTVS_HBOND_DONOR>
1

> <PUBCHEM_CACTVS_ROTATABLE_BOND>
2

> <PUBCHEM_CACTVS_SUBSKEYS>
AAADcfB4OAAAAAAAAAAAAAAAAAAAAaMEAAAAAAAAAAAQAAAAAAAAGgAACAAAD1SggAICAAAABgCIAqhSgAAAAAAgAAAACAEAAEgABBYAIQACUAAEoAAIIYOLzPDPgAAAAAAAAAAAAAAAAAAAAYAADAAAAA==

> <PUBCHEM_IUPAC_INCHI>
InChI=1S/C25H36O4/c1-15(2)10-18-11-16(3)25(29-18)9-8-23(4)12-19-22(20(27)13-24(19,5)28)17(14-26)6-7-21(23)25/h6,10,14,16,18-19,21-22,28H,7-9,11-13H2,1-5H3

> <PUBCHEM_IUPAC_INCHIKEY>
MWYYLZRWWNBROW-UHFFFAOYSA-N

> <PUBCHEM_XLOGP3_AA>
3.5

> <PUBCHEM_EXACT_MASS>
400.26136

> <PUBCHEM_MOLECULAR_FORMULA>
C25H36O4

> <PUBCHEM_MOLECULAR_WEIGHT>
400.55094

> <PUBCHEM_OPENEYE_CAN_SMILES>
CC1CC(OC12CCC3(C2CC=C(C4C(C3)C(CC4=O)(C)O)C=O)C)C=C(C)C

> <PUBCHEM_OPENEYE_ISO_SMILES>
CC1CC(OC12CCC3(C2CC=C(C4C(C3)C(CC4=O)(C)O)C=O)C)C=C(C)C

> <PUBCHEM_CACTVS_TPSA>
63.6

> <PUBCHEM_MONOISOTOPIC_WEIGHT>
400.26136

> <PUBCHEM_TOTAL_CHARGE>
0

> <PUBCHEM_HEAVY_ATOM_COUNT>
29

> <PUBCHEM_ATOM_DEF_STEREO_COUNT>
0

> <PUBCHEM_ATOM_UDEF_STEREO_COUNT>
8

> <PUBCHEM_BOND_DEF_STEREO_COUNT>
0

> <PUBCHEM_BOND_UDEF_STEREO_COUNT>
1

> <PUBCHEM_ISOTOPIC_ATOM_COUNT>
0

> <PUBCHEM_COMPONENT_COUNT>
1

> <PUBCHEM_CACTVS_TAUTO_COUNT>
5

> <PUBCHEM_COORDINATE_TYPE>
1
5
255

> <PUBCHEM_BONDANNOTATIONS>
11  37  3
12  38  3
16  46  3
17  24  3
18  47  3
21  22  1
5  14  3
6  9  3
7  30  3

$$$$

