7847046
  -OEChem-06241222482D

 46 49  0     0  0  0  0  0  0999 V2000
    4.6783    3.4558    0.0000 S   0  0  0  0  0  0  0  0  0  0  0  0
   10.0983   -1.5296    0.0000 S   0  0  0  0  0  0  0  0  0  0  0  0
    8.2619    0.9191    0.0000 O   0  0  0  0  0  0  0  0  0  0  0  0
    8.2619    2.6511    0.0000 O   0  0  0  0  0  0  0  0  0  0  0  0
   14.6185   -2.6566    0.0000 O   0  0  0  0  0  0  0  0  0  0  0  0
    4.6783    1.8464    0.0000 N   0  0  0  0  0  0  0  0  0  0  0  0
   10.7564   -0.0515    0.0000 N   0  0  0  0  0  0  0  0  0  0  0  0
    6.2619    2.6511    0.0000 C   0  0  0  0  0  0  0  0  0  0  0  0
    6.7619    1.7851    0.0000 C   0  0  0  0  0  0  0  0  0  0  0  0
    5.2619    2.6511    0.0000 C   0  0  0  0  0  0  0  0  0  0  0  0
    3.7320    3.1511    0.0000 C   0  0  0  0  0  0  0  0  0  0  0  0
    3.7320    2.1511    0.0000 C   0  0  0  0  0  0  0  0  0  0  0  0
    7.7619    1.7851    0.0000 C   0  0  0  0  0  0  0  0  0  0  0  0
    9.2619    0.9191    0.0000 C   0  0  0  0  0  0  0  0  0  0  0  0
    9.7619    0.0530    0.0000 C   0  0  0  0  0  0  0  0  0  0  0  0
    2.8660    3.6511    0.0000 C   0  0  0  0  0  0  0  0  0  0  0  0
    2.8660    1.6511    0.0000 C   0  0  0  0  0  0  0  0  0  0  0  0
   11.8779   -1.4364    0.0000 C   0  0  0  0  0  0  0  0  0  0  0  0
   10.9643   -1.0296    0.0000 C   0  0  0  0  0  0  0  0  0  0  0  0
    2.0000    3.1511    0.0000 C   0  0  0  0  0  0  0  0  0  0  0  0
    2.0000    2.1511    0.0000 C   0  0  0  0  0  0  0  0  0  0  0  0
    9.3551   -0.8605    0.0000 C   0  0  0  0  0  0  0  0  0  0  0  0
   11.9824   -2.4309    0.0000 C   0  0  0  0  0  0  0  0  0  0  0  0
   12.6869   -0.8486    0.0000 C   0  0  0  0  0  0  0  0  0  0  0  0
   13.7049   -2.2498    0.0000 C   0  0  0  0  0  0  0  0  0  0  0  0
   12.8959   -2.8376    0.0000 C   0  0  0  0  0  0  0  0  0  0  0  0
   13.6004   -1.2553    0.0000 C   0  0  0  0  0  0  0  0  0  0  0  0
   14.7230   -3.6511    0.0000 C   0  0  0  0  0  0  0  0  0  0  0  0
    6.8445    2.8632    0.0000 H   0  0  0  0  0  0  0  0  0  0  0  0
    6.1542    3.2617    0.0000 H   0  0  0  0  0  0  0  0  0  0  0  0
    6.1793    1.5730    0.0000 H   0  0  0  0  0  0  0  0  0  0  0  0
    6.8695    1.1745    0.0000 H   0  0  0  0  0  0  0  0  0  0  0  0
    9.8445    1.1311    0.0000 H   0  0  0  0  0  0  0  0  0  0  0  0
    9.1542    1.5296    0.0000 H   0  0  0  0  0  0  0  0  0  0  0  0
    2.8660    4.2711    0.0000 H   0  0  0  0  0  0  0  0  0  0  0  0
    2.8660    1.0311    0.0000 H   0  0  0  0  0  0  0  0  0  0  0  0
    1.4631    3.4611    0.0000 H   0  0  0  0  0  0  0  0  0  0  0  0
    1.4631    1.8411    0.0000 H   0  0  0  0  0  0  0  0  0  0  0  0
    8.7487   -0.9894    0.0000 H   0  0  0  0  0  0  0  0  0  0  0  0
   11.4808   -2.7953    0.0000 H   0  0  0  0  0  0  0  0  0  0  0  0
   12.6221   -0.2320    0.0000 H   0  0  0  0  0  0  0  0  0  0  0  0
   12.9607   -3.4542    0.0000 H   0  0  0  0  0  0  0  0  0  0  0  0
   14.1020   -0.8909    0.0000 H   0  0  0  0  0  0  0  0  0  0  0  0
   14.1064   -3.7159    0.0000 H   0  0  0  0  0  0  0  0  0  0  0  0
   14.7878   -4.2677    0.0000 H   0  0  0  0  0  0  0  0  0  0  0  0
   15.3396   -3.5863    0.0000 H   0  0  0  0  0  0  0  0  0  0  0  0
  1 10  1  0  0  0  0
  1 11  1  0  0  0  0
  2 19  1  0  0  0  0
  2 22  1  0  0  0  0
  3 13  1  0  0  0  0
  3 14  1  0  0  0  0
  4 13  2  0  0  0  0
  5 25  1  0  0  0  0
  5 28  1  0  0  0  0
  6 10  2  0  0  0  0
  6 12  1  0  0  0  0
  7 15  1  0  0  0  0
  7 19  2  0  0  0  0
  8  9  1  0  0  0  0
  8 10  1  0  0  0  0
  8 29  1  0  0  0  0
  8 30  1  0  0  0  0
  9 13  1  0  0  0  0
  9 31  1  0  0  0  0
  9 32  1  0  0  0  0
 11 12  1  0  0  0  0
 11 16  2  0  0  0  0
 12 17  2  0  0  0  0
 14 15  1  0  0  0  0
 14 33  1  0  0  0  0
 14 34  1  0  0  0  0
 15 22  2  0  0  0  0
 16 20  1  0  0  0  0
 16 35  1  0  0  0  0
 17 21  1  0  0  0  0
 17 36  1  0  0  0  0
 18 19  1  0  0  0  0
 18 23  2  0  0  0  0
 18 24  1  0  0  0  0
 20 21  2  0  0  0  0
 20 37  1  0  0  0  0
 21 38  1  0  0  0  0
 22 39  1  0  0  0  0
 23 26  1  0  0  0  0
 23 40  1  0  0  0  0
 24 27  2  0  0  0  0
 24 41  1  0  0  0  0
 25 26  2  0  0  0  0
 25 27  1  0  0  0  0
 26 42  1  0  0  0  0
 27 43  1  0  0  0  0
 28 44  1  0  0  0  0
 28 45  1  0  0  0  0
 28 46  1  0  0  0  0
M  END
> <PUBCHEM_COMPOUND_CID>
7847046

> <PUBCHEM_COMPOUND_CANONICALIZED>
1

> <PUBCHEM_CACTVS_COMPLEXITY>
516

> <PUBCHEM_CACTVS_HBOND_ACCEPTOR>
7

> <PUBCHEM_CACTVS_HBOND_DONOR>
0

> <PUBCHEM_CACTVS_ROTATABLE_BOND>
8

> <PUBCHEM_CACTVS_SUBSKEYS>
AAADceB7MABgAAAAAAAAAAAAAAAAAWLAAAAwYAAAAAAAAFgB/AAAHgQAAAAADAyl3gKyz7IIFAisAyTyTASD+KBhKjhImD02bJgOJrLksZuHMChkwBH46Ae00AIOIAAAAAAAAQBAAAAAAAACAAAAAAAAAA==

> <PUBCHEM_IUPAC_OPENEYE_NAME>
[2-(4-methoxyphenyl)thiazol-4-yl]methyl 3-(1,3-benzothiazol-2-yl)propanoate

> <PUBCHEM_IUPAC_CAS_NAME>
3-(1,3-benzothiazol-2-yl)propanoic acid [2-(4-methoxyphenyl)-4-thiazolyl]methyl ester

> <PUBCHEM_IUPAC_NAME>
[2-(4-methoxyphenyl)-1,3-thiazol-4-yl]methyl 3-(1,3-benzothiazol-2-yl)propanoate

> <PUBCHEM_IUPAC_SYSTEMATIC_NAME>
[2-(4-methoxyphenyl)-1,3-thiazol-4-yl]methyl 3-(1,3-benzothiazol-2-yl)propanoate

> <PUBCHEM_IUPAC_TRADITIONAL_NAME>
3-(1,3-benzothiazol-2-yl)propionic acid [2-(4-methoxyphenyl)thiazol-4-yl]methyl ester

> <PUBCHEM_IUPAC_INCHI>
InChI=1S/C21H18N2O3S2/c1-25-16-8-6-14(7-9-16)21-22-15(13-27-21)12-26-20(24)11-10-19-23-17-4-2-3-5-18(17)28-19/h2-9,13H,10-12H2,1H3

> <PUBCHEM_IUPAC_INCHIKEY>
FXABNQZZBVNSOQ-UHFFFAOYSA-N

> <PUBCHEM_XLOGP3_AA>
4.7

> <PUBCHEM_EXACT_MASS>
410.075884

> <PUBCHEM_MOLECULAR_FORMULA>
C21H18N2O3S2

> <PUBCHEM_MOLECULAR_WEIGHT>
410.50922

> <PUBCHEM_OPENEYE_CAN_SMILES>
COC1=CC=C(C=C1)C2=NC(=CS2)COC(=O)CCC3=NC4=CC=CC=C4S3

> <PUBCHEM_OPENEYE_ISO_SMILES>
COC1=CC=C(C=C1)C2=NC(=CS2)COC(=O)CCC3=NC4=CC=CC=C4S3

> <PUBCHEM_CACTVS_TPSA>
118

> <PUBCHEM_MONOISOTOPIC_WEIGHT>
410.075884

> <PUBCHEM_TOTAL_CHARGE>
0

> <PUBCHEM_HEAVY_ATOM_COUNT>
28

> <PUBCHEM_ATOM_DEF_STEREO_COUNT>
0

> <PUBCHEM_ATOM_UDEF_STEREO_COUNT>
0

> <PUBCHEM_BOND_DEF_STEREO_COUNT>
0

> <PUBCHEM_BOND_UDEF_STEREO_COUNT>
0

> <PUBCHEM_ISOTOPIC_ATOM_COUNT>
0

> <PUBCHEM_COMPONENT_COUNT>
1

> <PUBCHEM_CACTVS_TAUTO_COUNT>
2

> <PUBCHEM_COORDINATE_TYPE>
1
5
255

> <PUBCHEM_BONDANNOTATIONS>
1  10  8
1  11  8
11  12  8
11  16  8
12  17  8
15  22  8
16  20  8
17  21  8
18  23  8
18  24  8
2  19  8
2  22  8
20  21  8
23  26  8
24  27  8
25  26  8
25  27  8
6  10  8
6  12  8
7  15  8
7  19  8

$$$$

