13102
  -OEChem-06261207452D

 45 49  0     1  0  0  0  0  0999 V2000
    5.9422    0.4155    0.0000 O   0  0  0  0  0  0  0  0  0  0  0  0
    6.9727    2.3527    0.0000 O   0  0  0  0  0  0  0  0  0  0  0  0
    5.6636   -2.1272    0.0000 O   0  0  0  0  0  0  0  0  0  0  0  0
    2.9945    1.1843    0.0000 N   0  0  3  0  0  0  0  0  0  0  0  0
    4.5497    1.2227    0.0000 C   0  0  1  0  0  0  0  0  0  0  0  0
    3.8066    1.8918    0.0000 C   0  0  2  0  0  0  0  0  0  0  0  0
    5.5386    1.3240    0.0000 C   0  0  3  0  0  0  0  0  0  0  0  0
    2.8555    1.5828    0.0000 C   0  0  2  0  0  0  0  0  0  0  0  0
    4.2607    0.9152    0.0000 C   0  0  0  0  0  0  0  0  0  0  0  0
    4.3418    0.2445    0.0000 C   0  0  0  0  0  0  0  0  0  0  0  0
    4.3467    3.0006    0.0000 C   0  0  0  0  0  0  0  0  0  0  0  0
    5.9767    2.2622    0.0000 C   0  0  1  0  0  0  0  0  0  0  0  0
    2.6476    0.6046    0.0000 C   0  0  0  0  0  0  0  0  0  0  0  0
    5.3768    3.1062    0.0000 C   0  0  0  0  0  0  0  0  0  0  0  0
    3.5298    0.5898    0.0000 C   0  0  0  0  0  0  0  0  0  0  0  0
    3.3907   -0.0645    0.0000 C   0  0  0  0  0  0  0  0  0  0  0  0
    5.1265   -0.4404    0.0000 C   0  0  0  0  0  0  0  0  0  0  0  0
    2.0000    1.0798    0.0000 C   0  0  0  0  0  0  0  0  0  0  0  0
    3.1585   -1.0799    0.0000 C   0  0  0  0  0  0  0  0  0  0  0  0
    4.9178   -1.4610    0.0000 C   0  0  0  0  0  0  0  0  0  0  0  0
    3.9272   -1.7828    0.0000 C   0  0  0  0  0  0  0  0  0  0  0  0
    5.4594   -3.1062    0.0000 C   0  0  0  0  0  0  0  0  0  0  0  0
    3.9729    2.6743    0.0000 H   0  0  0  0  0  0  0  0  0  0  0  0
    6.1586    1.3182    0.0000 H   0  0  0  0  0  0  0  0  0  0  0  0
    2.0730    1.7491    0.0000 H   0  0  0  0  0  0  0  0  0  0  0  0
    4.2779    0.2954    0.0000 H   0  0  0  0  0  0  0  0  0  0  0  0
    3.9016    1.4207    0.0000 H   0  0  0  0  0  0  0  0  0  0  0  0
    4.3981    3.6185    0.0000 H   0  0  0  0  0  0  0  0  0  0  0  0
    3.7489    3.1649    0.0000 H   0  0  0  0  0  0  0  0  0  0  0  0
    6.2358    2.8255    0.0000 H   0  0  0  0  0  0  0  0  0  0  0  0
    2.0727    0.8369    0.0000 H   0  0  0  0  0  0  0  0  0  0  0  0
    2.3191    0.0788    0.0000 H   0  0  0  0  0  0  0  0  0  0  0  0
    5.9361    3.3736    0.0000 H   0  0  0  0  0  0  0  0  0  0  0  0
    5.2090    3.7030    0.0000 H   0  0  0  0  0  0  0  0  0  0  0  0
    3.0282    0.2254    0.0000 H   0  0  0  0  0  0  0  0  0  0  0  0
    3.8398    0.0529    0.0000 H   0  0  0  0  0  0  0  0  0  0  0  0
    1.9352    1.6964    0.0000 H   0  0  0  0  0  0  0  0  0  0  0  0
    1.3834    1.0150    0.0000 H   0  0  0  0  0  0  0  0  0  0  0  0
    2.0648    0.4632    0.0000 H   0  0  0  0  0  0  0  0  0  0  0  0
    2.5667   -1.2647    0.0000 H   0  0  0  0  0  0  0  0  0  0  0  0
    7.2328    2.9154    0.0000 H   0  0  0  0  0  0  0  0  0  0  0  0
    3.7959   -2.3888    0.0000 H   0  0  0  0  0  0  0  0  0  0  0  0
    4.8525   -2.9796    0.0000 H   0  0  0  0  0  0  0  0  0  0  0  0
    5.3328   -3.7131    0.0000 H   0  0  0  0  0  0  0  0  0  0  0  0
    6.0664   -3.2327    0.0000 H   0  0  0  0  0  0  0  0  0  0  0  0
  1  7  1  0  0  0  0
  1 17  1  0  0  0  0
  2 12  1  0  0  0  0
  2 41  1  0  0  0  0
  3 20  1  0  0  0  0
  3 22  1  0  0  0  0
  4  8  1  0  0  0  0
  4 15  1  0  0  0  0
  4 18  1  0  0  0  0
  5  6  1  0  0  0  0
  5  7  1  0  0  0  0
  5  9  1  0  0  0  0
  5 10  1  0  0  0  0
  6  8  1  0  0  0  0
  6 11  1  0  0  0  0
  6 23  1  0  0  0  0
  7 12  1  0  0  0  0
  7 24  1  0  0  0  0
  8 13  1  0  0  0  0
  8 25  1  0  0  0  0
  9 15  1  0  0  0  0
  9 26  1  0  0  0  0
  9 27  1  0  0  0  0
 10 16  2  0  0  0  0
 10 17  1  0  0  0  0
 11 14  1  0  0  0  0
 11 28  1  0  0  0  0
 11 29  1  0  0  0  0
 12 14  1  0  0  0  0
 12 30  1  0  0  0  0
 13 16  1  0  0  0  0
 13 31  1  0  0  0  0
 13 32  1  0  0  0  0
 14 33  1  0  0  0  0
 14 34  1  0  0  0  0
 15 35  1  0  0  0  0
 15 36  1  0  0  0  0
 16 19  1  0  0  0  0
 17 20  2  0  0  0  0
 18 37  1  0  0  0  0
 18 38  1  0  0  0  0
 18 39  1  0  0  0  0
 19 21  2  0  0  0  0
 19 40  1  0  0  0  0
 20 21  1  0  0  0  0
 21 42  1  0  0  0  0
 22 43  1  0  0  0  0
 22 44  1  0  0  0  0
 22 45  1  0  0  0  0
M  END
> <PUBCHEM_COMPOUND_CID>
13102

> <PUBCHEM_COMPOUND_CANONICALIZED>
1

> <PUBCHEM_CACTVS_COMPLEXITY>
471

> <PUBCHEM_CACTVS_HBOND_ACCEPTOR>
4

> <PUBCHEM_CACTVS_HBOND_DONOR>
1

> <PUBCHEM_CACTVS_ROTATABLE_BOND>
1

> <PUBCHEM_CACTVS_SUBSKEYS>
AAADceB6MAAAAAAAAAAAAAAAAAAAASAAAAA8YMEAAAAWAEjxAAAAHgAACAAADzzhmAYyBoMABgCAAiBCAAACCAAgIAAIiAAOiIgNNiKEsRuGeCKkwBGLqAew8P8PoAABAAAYQADQAAaAADSAAAAAAAAAAA==

> <PUBCHEM_IUPAC_OPENEYE_NAME>
(4S,4aR,7R,12bS)-9-methoxy-3-methyl-2,4,4a,5,6,7,7a,13-octahydro-1H-4,12-methanobenzofuro[3,2-e]isoquinoline-7-ol

> <PUBCHEM_IUPAC_CAS_NAME>
(4S,4aR,7R,12bS)-9-methoxy-3-methyl-2,4,4a,5,6,7,7a,13-octahydro-1H-4,12-methanobenzofuro[3,2-e]isoquinoline-7-ol

> <PUBCHEM_IUPAC_NAME>
(4S,4aR,7R,12bS)-9-methoxy-3-methyl-2,4,4a,5,6,7,7a,13-octahydro-1H-4,12-methanobenzofuro[3,2-e]isoquinoline-7-ol

> <PUBCHEM_IUPAC_SYSTEMATIC_NAME>
(4S,4aR,7R,12bS)-9-methoxy-3-methyl-2,4,4a,5,6,7,7a,13-octahydro-1H-4,12-methanobenzofuro[3,2-e]isoquinoline-7-ol

> <PUBCHEM_IUPAC_TRADITIONAL_NAME>
(4S,4aR,7R,12bS)-9-methoxy-3-methyl-2,4,4a,5,6,7,7a,13-octahydro-1H-4,12-methanobenzofuro[3,2-e]isoquinoline-7-ol

> <PUBCHEM_IUPAC_INCHI>
InChI=1S/C18H23NO3/c1-19-8-7-18-11-4-5-13(20)17(18)22-16-14(21-2)6-3-10(15(16)18)9-12(11)19/h3,6,11-13,17,20H,4-5,7-9H2,1-2H3/t11-,12-,13+,17?,18-/m0/s1

> <PUBCHEM_IUPAC_INCHIKEY>
RBOXVHNMENFORY-PPXGJUPPSA-N

> <PUBCHEM_XLOGP3_AA>
2.2

> <PUBCHEM_EXACT_MASS>
301.167794

> <PUBCHEM_MOLECULAR_FORMULA>
C18H23NO3

> <PUBCHEM_MOLECULAR_WEIGHT>
301.38012

> <PUBCHEM_OPENEYE_CAN_SMILES>
CN1CCC23C4C1CC5=C2C(=C(C=C5)OC)OC3C(CC4)O

> <PUBCHEM_OPENEYE_ISO_SMILES>
CN1CC[C@]23[C@@H]4[C@@H]1CC5=C2C(=C(C=C5)OC)OC3[C@@H](CC4)O

> <PUBCHEM_CACTVS_TPSA>
41.9

> <PUBCHEM_MONOISOTOPIC_WEIGHT>
301.167794

> <PUBCHEM_TOTAL_CHARGE>
0

> <PUBCHEM_HEAVY_ATOM_COUNT>
22

> <PUBCHEM_ATOM_DEF_STEREO_COUNT>
4

> <PUBCHEM_ATOM_UDEF_STEREO_COUNT>
1

> <PUBCHEM_BOND_DEF_STEREO_COUNT>
0

> <PUBCHEM_BOND_UDEF_STEREO_COUNT>
0

> <PUBCHEM_ISOTOPIC_ATOM_COUNT>
0

> <PUBCHEM_COMPONENT_COUNT>
1

> <PUBCHEM_CACTVS_TAUTO_COUNT>
1

> <PUBCHEM_COORDINATE_TYPE>
1
5
255

> <PUBCHEM_BONDANNOTATIONS>
10  16  8
10  17  8
16  19  8
17  20  8
19  21  8
12  2  3
20  21  8
5  9  3
6  23  3
7  24  3
8  25  3

$$$$

