17395943
  -OEChem-06241222532D

 47 49  0     1  0  0  0  0  0999 V2000
    8.0622    2.5194    0.0000 O   0  0  0  0  0  0  0  0  0  0  0  0
    5.4641    1.0194    0.0000 O   0  0  0  0  0  0  0  0  0  0  0  0
    3.7320   -2.9806    0.0000 N   0  0  0  0  0  0  0  0  0  0  0  0
    5.4641    3.0194    0.0000 N   0  0  3  0  0  0  0  0  0  0  0  0
    7.1962    4.0194    0.0000 N   0  0  0  0  0  0  0  0  0  0  0  0
    3.7320    1.0194    0.0000 N   0  0  0  0  0  0  0  0  0  0  0  0
    4.2320   -4.5194    0.0000 C   0  0  0  0  0  0  0  0  0  0  0  0
    3.2320   -4.5194    0.0000 C   0  0  0  0  0  0  0  0  0  0  0  0
    2.9230   -3.5684    0.0000 C   0  0  0  0  0  0  0  0  0  0  0  0
    4.5411   -3.5684    0.0000 C   0  0  0  0  0  0  0  0  0  0  0  0
    3.7320   -1.9806    0.0000 C   0  0  0  0  0  0  0  0  0  0  0  0
    5.4641    4.0194    0.0000 C   0  0  0  0  0  0  0  0  0  0  0  0
    2.8660   -1.4806    0.0000 C   0  0  0  0  0  0  0  0  0  0  0  0
    4.5981   -1.4806    0.0000 C   0  0  0  0  0  0  0  0  0  0  0  0
    6.3301    2.5194    0.0000 C   0  0  0  0  0  0  0  0  0  0  0  0
    4.5981    2.5194    0.0000 C   0  0  0  0  0  0  0  0  0  0  0  0
    6.3301    4.5194    0.0000 C   0  0  0  0  0  0  0  0  0  0  0  0
    2.8660   -0.4806    0.0000 C   0  0  0  0  0  0  0  0  0  0  0  0
    3.7320    0.0194    0.0000 C   0  0  0  0  0  0  0  0  0  0  0  0
    4.5981   -0.4806    0.0000 C   0  0  0  0  0  0  0  0  0  0  0  0
    7.1962    3.0194    0.0000 C   0  0  0  0  0  0  0  0  0  0  0  0
    4.5981    1.5194    0.0000 C   0  0  0  0  0  0  0  0  0  0  0  0
    2.0000    0.0194    0.0000 C   0  0  0  0  0  0  0  0  0  0  0  0
    4.1672   -5.1360    0.0000 H   0  0  0  0  0  0  0  0  0  0  0  0
    4.8385   -4.6483    0.0000 H   0  0  0  0  0  0  0  0  0  0  0  0
    2.6256   -4.6483    0.0000 H   0  0  0  0  0  0  0  0  0  0  0  0
    3.2969   -5.1360    0.0000 H   0  0  0  0  0  0  0  0  0  0  0  0
    5.1075   -3.8205    0.0000 H   0  0  0  0  0  0  0  0  0  0  0  0
    4.8511   -3.0314    0.0000 H   0  0  0  0  0  0  0  0  0  0  0  0
    2.6130   -3.0314    0.0000 H   0  0  0  0  0  0  0  0  0  0  0  0
    2.3566   -3.8205    0.0000 H   0  0  0  0  0  0  0  0  0  0  0  0
    5.2520    4.6020    0.0000 H   0  0  0  0  0  0  0  0  0  0  0  0
    4.8535    3.9118    0.0000 H   0  0  0  0  0  0  0  0  0  0  0  0
    2.3291   -1.7906    0.0000 H   0  0  0  0  0  0  0  0  0  0  0  0
    5.9316    2.0445    0.0000 H   0  0  0  0  0  0  0  0  0  0  0  0
    6.7287    2.0445    0.0000 H   0  0  0  0  0  0  0  0  0  0  0  0
    5.1350   -1.7906    0.0000 H   0  0  0  0  0  0  0  0  0  0  0  0
    4.3860    3.1020    0.0000 H   0  0  0  0  0  0  0  0  0  0  0  0
    3.9875    2.4118    0.0000 H   0  0  0  0  0  0  0  0  0  0  0  0
    6.7287    4.9944    0.0000 H   0  0  0  0  0  0  0  0  0  0  0  0
    5.9316    4.9944    0.0000 H   0  0  0  0  0  0  0  0  0  0  0  0
    5.1350   -0.1706    0.0000 H   0  0  0  0  0  0  0  0  0  0  0  0
    7.7331    4.3294    0.0000 H   0  0  0  0  0  0  0  0  0  0  0  0
    3.1951    1.3294    0.0000 H   0  0  0  0  0  0  0  0  0  0  0  0
    2.3100    0.5564    0.0000 H   0  0  0  0  0  0  0  0  0  0  0  0
    1.4631    0.3294    0.0000 H   0  0  0  0  0  0  0  0  0  0  0  0
    1.6900   -0.5175    0.0000 H   0  0  0  0  0  0  0  0  0  0  0  0
  1 21  2  0  0  0  0
  2 22  2  0  0  0  0
  3  9  1  0  0  0  0
  3 10  1  0  0  0  0
  3 11  1  0  0  0  0
  4 12  1  0  0  0  0
  4 15  1  0  0  0  0
  4 16  1  0  0  0  0
  5 17  1  0  0  0  0
  5 21  1  0  0  0  0
  5 43  1  0  0  0  0
  6 19  1  0  0  0  0
  6 22  1  0  0  0  0
  6 44  1  0  0  0  0
  7  8  1  0  0  0  0
  7 10  1  0  0  0  0
  7 24  1  0  0  0  0
  7 25  1  0  0  0  0
  8  9  1  0  0  0  0
  8 26  1  0  0  0  0
  8 27  1  0  0  0  0
  9 30  1  0  0  0  0
  9 31  1  0  0  0  0
 10 28  1  0  0  0  0
 10 29  1  0  0  0  0
 11 13  2  0  0  0  0
 11 14  1  0  0  0  0
 12 17  1  0  0  0  0
 12 32  1  0  0  0  0
 12 33  1  0  0  0  0
 13 18  1  0  0  0  0
 13 34  1  0  0  0  0
 14 20  2  0  0  0  0
 14 37  1  0  0  0  0
 15 21  1  0  0  0  0
 15 35  1  0  0  0  0
 15 36  1  0  0  0  0
 16 22  1  0  0  0  0
 16 38  1  0  0  0  0
 16 39  1  0  0  0  0
 17 40  1  0  0  0  0
 17 41  1  0  0  0  0
 18 19  2  0  0  0  0
 18 23  1  0  0  0  0
 19 20  1  0  0  0  0
 20 42  1  0  0  0  0
 23 45  1  0  0  0  0
 23 46  1  0  0  0  0
 23 47  1  0  0  0  0
M  END
> <PUBCHEM_COMPOUND_CID>
17395943

> <PUBCHEM_COMPOUND_CANONICALIZED>
1

> <PUBCHEM_CACTVS_COMPLEXITY>
436

> <PUBCHEM_CACTVS_HBOND_ACCEPTOR>
4

> <PUBCHEM_CACTVS_HBOND_DONOR>
2

> <PUBCHEM_CACTVS_ROTATABLE_BOND>
4

> <PUBCHEM_CACTVS_SUBSKEYS>
AAADceB7sAAAAAAAAAAAAAAAAAAAAWAAAAA8QAAAAAAAAAABAAAAHgAQAAAADAjBmAQywIPAAACIAiVSUACCAAAhAgAIiICIZIgIYCLAkbGUIAhglgDIyAcQgAAOAACAQAACAAAAAQCAAAQAAAAAAAAAAA==

> <PUBCHEM_IUPAC_OPENEYE_NAME>
N-(2-methyl-4-pyrrolidin-1-yl-phenyl)-2-(3-oxopiperazin-1-yl)acetamide

> <PUBCHEM_IUPAC_CAS_NAME>
N-[2-methyl-4-(1-pyrrolidinyl)phenyl]-2-(3-oxo-1-piperazinyl)acetamide

> <PUBCHEM_IUPAC_NAME>
N-(2-methyl-4-pyrrolidin-1-ylphenyl)-2-(3-oxopiperazin-1-yl)acetamide

> <PUBCHEM_IUPAC_SYSTEMATIC_NAME>
N-(2-methyl-4-pyrrolidin-1-yl-phenyl)-2-(3-oxidanylidenepiperazin-1-yl)ethanamide

> <PUBCHEM_IUPAC_TRADITIONAL_NAME>
2-(3-ketopiperazino)-N-(2-methyl-4-pyrrolidino-phenyl)acetamide

> <PUBCHEM_IUPAC_INCHI>
InChI=1S/C17H24N4O2/c1-13-10-14(21-7-2-3-8-21)4-5-15(13)19-17(23)12-20-9-6-18-16(22)11-20/h4-5,10H,2-3,6-9,11-12H2,1H3,(H,18,22)(H,19,23)

> <PUBCHEM_IUPAC_INCHIKEY>
PCFCDOIRMBWWGJ-UHFFFAOYSA-N

> <PUBCHEM_XLOGP3_AA>
1.3

> <PUBCHEM_EXACT_MASS>
316.189926

> <PUBCHEM_MOLECULAR_FORMULA>
C17H24N4O2

> <PUBCHEM_MOLECULAR_WEIGHT>
316.39806

> <PUBCHEM_OPENEYE_CAN_SMILES>
CC1=C(C=CC(=C1)N2CCCC2)NC(=O)CN3CCNC(=O)C3

> <PUBCHEM_OPENEYE_ISO_SMILES>
CC1=C(C=CC(=C1)N2CCCC2)NC(=O)CN3CCNC(=O)C3

> <PUBCHEM_CACTVS_TPSA>
64.7

> <PUBCHEM_MONOISOTOPIC_WEIGHT>
316.189926

> <PUBCHEM_TOTAL_CHARGE>
0

> <PUBCHEM_HEAVY_ATOM_COUNT>
23

> <PUBCHEM_ATOM_DEF_STEREO_COUNT>
0

> <PUBCHEM_ATOM_UDEF_STEREO_COUNT>
0

> <PUBCHEM_BOND_DEF_STEREO_COUNT>
0

> <PUBCHEM_BOND_UDEF_STEREO_COUNT>
0

> <PUBCHEM_ISOTOPIC_ATOM_COUNT>
0

> <PUBCHEM_COMPONENT_COUNT>
1

> <PUBCHEM_CACTVS_TAUTO_COUNT>
9

> <PUBCHEM_COORDINATE_TYPE>
1
5
255

> <PUBCHEM_BONDANNOTATIONS>
11  13  8
11  14  8
13  18  8
14  20  8
18  19  8
19  20  8

$$$$

