47205632
  -OEChem-06241222592D

 27 28  0     0  0  0  0  0  0999 V2000
    2.8660   -4.5202    0.0000 Br  0  0  0  0  0  0  0  0  0  0  0  0
    2.8660    1.4798    0.0000 O   0  0  0  0  0  0  0  0  0  0  0  0
    4.5981    1.4798    0.0000 N   0  0  0  0  0  0  0  0  0  0  0  0
    4.0981    4.0186    0.0000 N   0  0  0  0  0  0  0  0  0  0  0  0
    5.0981    4.0186    0.0000 N   0  0  0  0  0  0  0  0  0  0  0  0
    2.8660   -1.5202    0.0000 C   0  0  0  0  0  0  0  0  0  0  0  0
    4.5981    2.4798    0.0000 C   0  0  0  0  0  0  0  0  0  0  0  0
    2.8660   -0.5202    0.0000 C   0  0  0  0  0  0  0  0  0  0  0  0
    2.0000   -2.0202    0.0000 C   0  0  0  0  0  0  0  0  0  0  0  0
    3.7320   -2.0202    0.0000 C   0  0  0  0  0  0  0  0  0  0  0  0
    3.7320   -0.0202    0.0000 C   0  0  0  0  0  0  0  0  0  0  0  0
    3.7320    0.9798    0.0000 C   0  0  0  0  0  0  0  0  0  0  0  0
    3.7891    3.0676    0.0000 C   0  0  0  0  0  0  0  0  0  0  0  0
    5.4071    3.0676    0.0000 C   0  0  0  0  0  0  0  0  0  0  0  0
    2.0000   -3.0202    0.0000 C   0  0  0  0  0  0  0  0  0  0  0  0
    3.7320   -3.0202    0.0000 C   0  0  0  0  0  0  0  0  0  0  0  0
    2.8660   -3.5202    0.0000 C   0  0  0  0  0  0  0  0  0  0  0  0
    2.3291   -0.2102    0.0000 H   0  0  0  0  0  0  0  0  0  0  0  0
    5.1350    1.1698    0.0000 H   0  0  0  0  0  0  0  0  0  0  0  0
    1.4631   -1.7102    0.0000 H   0  0  0  0  0  0  0  0  0  0  0  0
    4.2690   -1.7102    0.0000 H   0  0  0  0  0  0  0  0  0  0  0  0
    3.1994    2.8760    0.0000 H   0  0  0  0  0  0  0  0  0  0  0  0
    4.2690   -0.3302    0.0000 H   0  0  0  0  0  0  0  0  0  0  0  0
    5.9967    2.8760    0.0000 H   0  0  0  0  0  0  0  0  0  0  0  0
    1.4631   -3.3302    0.0000 H   0  0  0  0  0  0  0  0  0  0  0  0
    4.2690   -3.3302    0.0000 H   0  0  0  0  0  0  0  0  0  0  0  0
    3.7336    4.5202    0.0000 H   0  0  0  0  0  0  0  0  0  0  0  0
  1 17  1  0  0  0  0
  2 12  2  0  0  0  0
  3  7  1  0  0  0  0
  3 12  1  0  0  0  0
  3 19  1  0  0  0  0
  4  5  1  0  0  0  0
  4 13  1  0  0  0  0
  4 27  1  0  0  0  0
  5 14  2  0  0  0  0
  6  8  1  0  0  0  0
  6  9  2  0  0  0  0
  6 10  1  0  0  0  0
  7 13  2  0  0  0  0
  7 14  1  0  0  0  0
  8 11  2  3  0  0  0
  8 18  1  0  0  0  0
  9 15  1  0  0  0  0
  9 20  1  0  0  0  0
 10 16  2  0  0  0  0
 10 21  1  0  0  0  0
 11 12  1  0  0  0  0
 11 23  1  0  0  0  0
 13 22  1  0  0  0  0
 14 24  1  0  0  0  0
 15 17  2  0  0  0  0
 15 25  1  0  0  0  0
 16 17  1  0  0  0  0
 16 26  1  0  0  0  0
M  END
> <PUBCHEM_COMPOUND_CID>
47205632

> <PUBCHEM_COMPOUND_CANONICALIZED>
1

> <PUBCHEM_CACTVS_COMPLEXITY>
288

> <PUBCHEM_CACTVS_HBOND_ACCEPTOR>
2

> <PUBCHEM_CACTVS_HBOND_DONOR>
2

> <PUBCHEM_CACTVS_ROTATABLE_BOND>
3

> <PUBCHEM_CACTVS_SUBSKEYS>
AAADccBzIAAAEAAAAAAAAAAAAAAAAWAAAAAwAAAAAAAAAAABwAAAHgBYAAABrAjBmgQ8wJLjAACqAjV3UACSBAAhkgQYuaAgdPgIYKKAUVCQpAAgnACIi5cAgAAOAgAAAAAAAAAEAAAAAAAAAAAAAAAAAA==

> <PUBCHEM_IUPAC_OPENEYE_NAME>
3-(4-bromophenyl)-N-(1H-pyrazol-4-yl)prop-2-enamide

> <PUBCHEM_IUPAC_CAS_NAME>
3-(4-bromophenyl)-N-(1H-pyrazol-4-yl)-2-propenamide

> <PUBCHEM_IUPAC_NAME>
3-(4-bromophenyl)-N-(1H-pyrazol-4-yl)prop-2-enamide

> <PUBCHEM_IUPAC_SYSTEMATIC_NAME>
3-(4-bromophenyl)-N-(1H-pyrazol-4-yl)prop-2-enamide

> <PUBCHEM_IUPAC_TRADITIONAL_NAME>
3-(4-bromophenyl)-N-(1H-pyrazol-4-yl)acrylamide

> <PUBCHEM_IUPAC_INCHI>
InChI=1S/C12H10BrN3O/c13-10-4-1-9(2-5-10)3-6-12(17)16-11-7-14-15-8-11/h1-8H,(H,14,15)(H,16,17)

> <PUBCHEM_IUPAC_INCHIKEY>
QMDJDRPAWFTBPA-UHFFFAOYSA-N

> <PUBCHEM_XLOGP3>
2.4

> <PUBCHEM_EXACT_MASS>
291.000724

> <PUBCHEM_MOLECULAR_FORMULA>
C12H10BrN3O

> <PUBCHEM_MOLECULAR_WEIGHT>
292.1313

> <PUBCHEM_OPENEYE_CAN_SMILES>
C1=CC(=CC=C1C=CC(=O)NC2=CNN=C2)Br

> <PUBCHEM_OPENEYE_ISO_SMILES>
C1=CC(=CC=C1C=CC(=O)NC2=CNN=C2)Br

> <PUBCHEM_CACTVS_TPSA>
57.8

> <PUBCHEM_MONOISOTOPIC_WEIGHT>
291.000724

> <PUBCHEM_TOTAL_CHARGE>
0

> <PUBCHEM_HEAVY_ATOM_COUNT>
17

> <PUBCHEM_ATOM_DEF_STEREO_COUNT>
0

> <PUBCHEM_ATOM_UDEF_STEREO_COUNT>
0

> <PUBCHEM_BOND_DEF_STEREO_COUNT>
0

> <PUBCHEM_BOND_UDEF_STEREO_COUNT>
1

> <PUBCHEM_ISOTOPIC_ATOM_COUNT>
0

> <PUBCHEM_COMPONENT_COUNT>
1

> <PUBCHEM_CACTVS_TAUTO_COUNT>
4

> <PUBCHEM_COORDINATE_TYPE>
1
5
255

> <PUBCHEM_BONDANNOTATIONS>
10  16  8
15  17  8
16  17  8
4  13  8
4  5  8
5  14  8
6  10  8
6  9  8
7  13  8
7  14  8
8  11  1
9  15  8

$$$$

