586253
  -OEChem-06241222462D

 72 76  0     1  0  0  0  0  0999 V2000
    4.8978   -0.0601    0.0000 Si  0  0  0  0  0  0  0  0  0  0  0  0
    5.1566   -1.0260    0.0000 O   0  0  0  0  0  0  0  0  0  0  0  0
    5.8637    0.1987    0.0000 O   0  0  0  0  0  0  0  0  0  0  0  0
    7.8546    2.1646    0.0000 C   0  0  3  0  0  0  0  0  0  0  0  0
    7.1225   -3.0169    0.0000 C   0  0  3  0  0  0  0  0  0  0  0  0
    7.3768    4.1132    0.0000 C   0  0  0  0  0  0  0  0  0  0  0  0
    9.0711   -2.5391    0.0000 C   0  0  0  0  0  0  0  0  0  0  0  0
    8.1134    3.1306    0.0000 C   0  0  3  0  0  0  0  0  0  0  0  0
    8.0884   -3.2757    0.0000 C   0  0  3  0  0  0  0  0  0  0  0  0
    6.1225    1.1646    0.0000 C   0  0  3  0  0  0  0  0  0  0  0  0
    6.1225   -1.2849    0.0000 C   0  0  3  0  0  0  0  0  0  0  0  0
    5.6225    2.0306    0.0000 C   0  0  0  0  0  0  0  0  0  0  0  0
    6.9886   -0.7849    0.0000 C   0  0  0  0  0  0  0  0  0  0  0  0
    9.6865    1.4058    0.0000 C   0  0  0  0  0  0  0  0  0  0  0  0
    6.3637   -4.8489    0.0000 C   0  0  0  0  0  0  0  0  0  0  0  0
    9.9453    2.3717    0.0000 C   0  0  0  0  0  0  0  0  0  0  0  0
    7.3296   -5.1077    0.0000 C   0  0  0  0  0  0  0  0  0  0  0  0
    7.5958    1.1987    0.0000 C   0  0  0  0  0  0  0  0  0  0  0  0
    6.1566   -2.7581    0.0000 C   0  0  0  0  0  0  0  0  0  0  0  0
    7.4813    5.1077    0.0000 C   0  0  0  0  0  0  0  0  0  0  0  0
    6.4632    4.5199    0.0000 C   0  0  0  0  0  0  0  0  0  0  0  0
   10.0656   -2.6436    0.0000 C   0  0  0  0  0  0  0  0  0  0  0  0
    9.4778   -1.6256    0.0000 C   0  0  0  0  0  0  0  0  0  0  0  0
    4.6390    0.9058    0.0000 C   0  0  0  0  0  0  0  0  0  0  0  0
    3.9318   -0.3189    0.0000 C   0  0  0  0  0  0  0  0  0  0  0  0
    3.2247    0.3882    0.0000 C   0  0  0  0  0  0  0  0  0  0  0  0
    3.6730   -1.2849    0.0000 C   0  0  0  0  0  0  0  0  0  0  0  0
    2.2588    0.1293    0.0000 C   0  0  0  0  0  0  0  0  0  0  0  0
    2.7071   -1.5437    0.0000 C   0  0  0  0  0  0  0  0  0  0  0  0
    2.0000   -0.8366    0.0000 C   0  0  0  0  0  0  0  0  0  0  0  0
    7.4685   -3.2829    0.0000 H   0  0  0  0  0  0  0  0  0  0  0  0
    8.1206    2.5106    0.0000 H   0  0  0  0  0  0  0  0  0  0  0  0
    6.0416   -0.6702    0.0000 H   0  0  0  0  0  0  0  0  0  0  0  0
    6.6144    0.7872    0.0000 H   0  0  0  0  0  0  0  0  0  0  0  0
    7.5464   -0.5142    0.0000 H   0  0  0  0  0  0  0  0  0  0  0  0
    6.6980   -0.2371    0.0000 H   0  0  0  0  0  0  0  0  0  0  0  0
    5.3519    2.5884    0.0000 H   0  0  0  0  0  0  0  0  0  0  0  0
    5.0748    1.7401    0.0000 H   0  0  0  0  0  0  0  0  0  0  0  0
    5.7811   -4.6368    0.0000 H   0  0  0  0  0  0  0  0  0  0  0  0
    6.1773   -5.4402    0.0000 H   0  0  0  0  0  0  0  0  0  0  0  0
    9.4745    0.8232    0.0000 H   0  0  0  0  0  0  0  0  0  0  0  0
   10.2778    1.2194    0.0000 H   0  0  0  0  0  0  0  0  0  0  0  0
    7.1432   -5.6990    0.0000 H   0  0  0  0  0  0  0  0  0  0  0  0
    7.9122   -5.3197    0.0000 H   0  0  0  0  0  0  0  0  0  0  0  0
   10.5366    2.1853    0.0000 H   0  0  0  0  0  0  0  0  0  0  0  0
   10.1574    2.9543    0.0000 H   0  0  0  0  0  0  0  0  0  0  0  0
    6.9969    1.3592    0.0000 H   0  0  0  0  0  0  0  0  0  0  0  0
    7.4353    0.5998    0.0000 H   0  0  0  0  0  0  0  0  0  0  0  0
    8.1946    1.0382    0.0000 H   0  0  0  0  0  0  0  0  0  0  0  0
    6.3171   -2.1592    0.0000 H   0  0  0  0  0  0  0  0  0  0  0  0
    5.5577   -2.5976    0.0000 H   0  0  0  0  0  0  0  0  0  0  0  0
    5.9961   -3.3570    0.0000 H   0  0  0  0  0  0  0  0  0  0  0  0
   10.0442   -1.8778    0.0000 H   0  0  0  0  0  0  0  0  0  0  0  0
    9.7300   -1.0592    0.0000 H   0  0  0  0  0  0  0  0  0  0  0  0
    8.9114   -1.3734    0.0000 H   0  0  0  0  0  0  0  0  0  0  0  0
   10.0008   -3.2602    0.0000 H   0  0  0  0  0  0  0  0  0  0  0  0
   10.6822   -2.7085    0.0000 H   0  0  0  0  0  0  0  0  0  0  0  0
   10.1304   -2.0270    0.0000 H   0  0  0  0  0  0  0  0  0  0  0  0
    6.7154    5.0863    0.0000 H   0  0  0  0  0  0  0  0  0  0  0  0
    5.8968    4.7721    0.0000 H   0  0  0  0  0  0  0  0  0  0  0  0
    6.2111    3.9535    0.0000 H   0  0  0  0  0  0  0  0  0  0  0  0
    8.0979    5.0429    0.0000 H   0  0  0  0  0  0  0  0  0  0  0  0
    7.5461    5.7243    0.0000 H   0  0  0  0  0  0  0  0  0  0  0  0
    6.8647    5.1725    0.0000 H   0  0  0  0  0  0  0  0  0  0  0  0
    5.2378    1.0663    0.0000 H   0  0  0  0  0  0  0  0  0  0  0  0
    4.4785    1.5047    0.0000 H   0  0  0  0  0  0  0  0  0  0  0  0
    4.0401    0.7453    0.0000 H   0  0  0  0  0  0  0  0  0  0  0  0
    3.3852    0.9870    0.0000 H   0  0  0  0  0  0  0  0  0  0  0  0
    4.1114   -1.7233    0.0000 H   0  0  0  0  0  0  0  0  0  0  0  0
    1.8204    0.5678    0.0000 H   0  0  0  0  0  0  0  0  0  0  0  0
    2.5466   -2.1426    0.0000 H   0  0  0  0  0  0  0  0  0  0  0  0
    1.4011   -0.9970    0.0000 H   0  0  0  0  0  0  0  0  0  0  0  0
  1  2  1  0  0  0  0
  1  3  1  0  0  0  0
  1 24  1  0  0  0  0
  1 25  1  0  0  0  0
  2 11  1  0  0  0  0
  3 10  1  0  0  0  0
  4  6  1  0  0  0  0
  4 10  1  0  0  0  0
  4 14  1  0  0  0  0
  4 18  1  0  0  0  0
  5  7  1  0  0  0  0
  5 11  1  0  0  0  0
  5 15  1  0  0  0  0
  5 19  1  0  0  0  0
  6  8  1  0  0  0  0
  6 20  1  0  0  0  0
  6 21  1  0  0  0  0
  7  9  1  0  0  0  0
  7 22  1  0  0  0  0
  7 23  1  0  0  0  0
  8 12  1  0  0  0  0
  8 16  1  0  0  0  0
  8 32  1  0  0  0  0
  9 13  1  0  0  0  0
  9 17  1  0  0  0  0
  9 31  1  0  0  0  0
 10 12  1  0  0  0  0
 10 34  1  0  0  0  0
 11 13  1  0  0  0  0
 11 33  1  0  0  0  0
 12 37  1  0  0  0  0
 12 38  1  0  0  0  0
 13 35  1  0  0  0  0
 13 36  1  0  0  0  0
 14 16  1  0  0  0  0
 14 41  1  0  0  0  0
 14 42  1  0  0  0  0
 15 17  1  0  0  0  0
 15 39  1  0  0  0  0
 15 40  1  0  0  0  0
 16 45  1  0  0  0  0
 16 46  1  0  0  0  0
 17 43  1  0  0  0  0
 17 44  1  0  0  0  0
 18 47  1  0  0  0  0
 18 48  1  0  0  0  0
 18 49  1  0  0  0  0
 19 50  1  0  0  0  0
 19 51  1  0  0  0  0
 19 52  1  0  0  0  0
 20 62  1  0  0  0  0
 20 63  1  0  0  0  0
 20 64  1  0  0  0  0
 21 59  1  0  0  0  0
 21 60  1  0  0  0  0
 21 61  1  0  0  0  0
 22 56  1  0  0  0  0
 22 57  1  0  0  0  0
 22 58  1  0  0  0  0
 23 53  1  0  0  0  0
 23 54  1  0  0  0  0
 23 55  1  0  0  0  0
 24 65  1  0  0  0  0
 24 66  1  0  0  0  0
 24 67  1  0  0  0  0
 25 26  2  0  0  0  0
 25 27  1  0  0  0  0
 26 28  1  0  0  0  0
 26 68  1  0  0  0  0
 27 29  2  0  0  0  0
 27 69  1  0  0  0  0
 28 30  2  0  0  0  0
 28 70  1  0  0  0  0
 29 30  1  0  0  0  0
 29 71  1  0  0  0  0
 30 72  1  0  0  0  0
M  END
> <PUBCHEM_COMPOUND_CID>
586253

> <PUBCHEM_COMPOUND_CANONICALIZED>
1

> <PUBCHEM_CACTVS_COMPLEXITY>
634

> <PUBCHEM_CACTVS_HBOND_ACCEPTOR>
2

> <PUBCHEM_CACTVS_HBOND_DONOR>
0

> <PUBCHEM_CACTVS_ROTATABLE_BOND>
5

> <PUBCHEM_CACTVS_SUBSKEYS>
AAADcfB4MAgAAAAAAAAAAAAAAAAAAYMGDAAwYMAAAAAAAAABAAAAGhAAAEAADxSgsAJyAIAAAAGAACBCAAACAAAgAAAIiAAAAIgIICKAERCAIAAkgAAIiAeAwPAPgAAAAAAAAACAAAIAABAAAYAADAAAAA==

> <PUBCHEM_IUPAC_OPENEYE_NAME>
methyl-phenyl-bis[(1,7,7-trimethylnorbornan-2-yl)oxy]silane

> <PUBCHEM_IUPAC_CAS_NAME>
methyl-phenyl-bis[(4,7,7-trimethyl-3-bicyclo[2.2.1]heptanyl)oxy]silane

> <PUBCHEM_IUPAC_NAME>
methyl-phenyl-bis[(4,7,7-trimethyl-3-bicyclo[2.2.1]heptanyl)oxy]silane

> <PUBCHEM_IUPAC_SYSTEMATIC_NAME>
methyl-phenyl-bis[(4,7,7-trimethyl-3-bicyclo[2.2.1]heptanyl)oxy]silane

> <PUBCHEM_IUPAC_TRADITIONAL_NAME>
bis(2-bornyloxy)-methyl-phenyl-silane

> <PUBCHEM_IUPAC_INCHI>
InChI=1S/C27H42O2Si/c1-24(2)19-13-15-26(24,5)22(17-19)28-30(7,21-11-9-8-10-12-21)29-23-18-20-14-16-27(23,6)25(20,3)4/h8-12,19-20,22-23H,13-18H2,1-7H3

> <PUBCHEM_IUPAC_INCHIKEY>
GMCSTAROZZZSPU-UHFFFAOYSA-N

> <PUBCHEM_EXACT_MASS>
426.295407

> <PUBCHEM_MOLECULAR_FORMULA>
C27H42O2Si

> <PUBCHEM_MOLECULAR_WEIGHT>
426.70668

> <PUBCHEM_OPENEYE_CAN_SMILES>
CC1(C2CCC1(C(C2)O[Si](C)(C3=CC=CC=C3)OC4CC5CCC4(C5(C)C)C)C)C

> <PUBCHEM_OPENEYE_ISO_SMILES>
CC1(C2CCC1(C(C2)O[Si](C)(C3=CC=CC=C3)OC4CC5CCC4(C5(C)C)C)C)C

> <PUBCHEM_CACTVS_TPSA>
18.5

> <PUBCHEM_MONOISOTOPIC_WEIGHT>
426.295407

> <PUBCHEM_TOTAL_CHARGE>
0

> <PUBCHEM_HEAVY_ATOM_COUNT>
30

> <PUBCHEM_ATOM_DEF_STEREO_COUNT>
0

> <PUBCHEM_ATOM_UDEF_STEREO_COUNT>
6

> <PUBCHEM_BOND_DEF_STEREO_COUNT>
0

> <PUBCHEM_BOND_UDEF_STEREO_COUNT>
0

> <PUBCHEM_ISOTOPIC_ATOM_COUNT>
0

> <PUBCHEM_COMPONENT_COUNT>
1

> <PUBCHEM_CACTVS_TAUTO_COUNT>
1

> <PUBCHEM_COORDINATE_TYPE>
1
5
255

> <PUBCHEM_BONDANNOTATIONS>
11  2  3
25  26  8
25  27  8
26  28  8
27  29  8
28  30  8
29  30  8
10  3  3
4  18  3
5  19  3
8  16  3
9  17  3

$$$$

