7699
  -OEChem-06261202152D

 95 95  0     0  0  0  0  0  0999 V2000
    9.7942    2.2500    0.0000 O   0  0  0  0  0  0  0  0  0  0  0  0
   10.6603    4.7500    0.0000 O   0  0  0  0  0  0  0  0  0  0  0  0
    8.0622    0.2500    0.0000 O   0  0  0  0  0  0  0  0  0  0  0  0
   12.3923    6.7500    0.0000 O   0  0  0  0  0  0  0  0  0  0  0  0
    7.1962   -2.2500    0.0000 O   0  0  0  0  0  0  0  0  0  0  0  0
    5.4641   -4.2500    0.0000 O   0  0  0  0  0  0  0  0  0  0  0  0
    4.5981   -6.7500    0.0000 O   0  0  0  0  0  0  0  0  0  0  0  0
   13.2583    9.2500    0.0000 O   0  0  0  0  0  0  0  0  0  0  0  0
   14.9904   11.2500    0.0000 O   0  0  0  0  0  0  0  0  0  0  0  0
    2.8660   -6.7500    0.0000 O   0  0  0  0  0  0  0  0  0  0  0  0
   15.8564   13.7500    0.0000 O   0  0  0  0  0  0  0  0  0  0  0  0
    3.7320  -11.2500    0.0000 N   0  0  0  0  0  0  0  0  0  0  0  0
    2.8660  -12.7500    0.0000 C   0  0  0  0  0  0  0  0  0  0  0  0
    2.8660  -11.7500    0.0000 C   0  0  0  0  0  0  0  0  0  0  0  0
    2.0000  -13.2500    0.0000 C   0  0  0  0  0  0  0  0  0  0  0  0
    3.7320  -10.2500    0.0000 C   0  0  0  0  0  0  0  0  0  0  0  0
    2.0000  -14.2500    0.0000 C   0  0  0  0  0  0  0  0  0  0  0  0
    4.5981   -9.7500    0.0000 C   0  0  0  0  0  0  0  0  0  0  0  0
    2.8660   -9.7500    0.0000 C   0  0  0  0  0  0  0  0  0  0  0  0
    3.7320   -8.2500    0.0000 C   0  0  0  0  0  0  0  0  0  0  0  0
    4.5981   -8.7500    0.0000 C   0  0  0  0  0  0  0  0  0  0  0  0
    2.8660   -8.7500    0.0000 C   0  0  0  0  0  0  0  0  0  0  0  0
    9.7942    3.2500    0.0000 C   0  0  0  0  0  0  0  0  0  0  0  0
   10.6603    3.7500    0.0000 C   0  0  0  0  0  0  0  0  0  0  0  0
    8.9282    1.7500    0.0000 C   0  0  0  0  0  0  0  0  0  0  0  0
    8.9282    0.7500    0.0000 C   0  0  0  0  0  0  0  0  0  0  0  0
   11.5263    5.2500    0.0000 C   0  0  0  0  0  0  0  0  0  0  0  0
   11.5263    6.2500    0.0000 C   0  0  0  0  0  0  0  0  0  0  0  0
    8.0622   -0.7500    0.0000 C   0  0  0  0  0  0  0  0  0  0  0  0
    7.1962   -1.2500    0.0000 C   0  0  0  0  0  0  0  0  0  0  0  0
   12.3923    7.7500    0.0000 C   0  0  0  0  0  0  0  0  0  0  0  0
    6.3301   -2.7500    0.0000 C   0  0  0  0  0  0  0  0  0  0  0  0
    6.3301   -3.7500    0.0000 C   0  0  0  0  0  0  0  0  0  0  0  0
   13.2583    8.2500    0.0000 C   0  0  0  0  0  0  0  0  0  0  0  0
    3.7320   -7.2500    0.0000 C   0  0  0  0  0  0  0  0  0  0  0  0
    5.4641   -5.2500    0.0000 C   0  0  0  0  0  0  0  0  0  0  0  0
    4.5981   -5.7500    0.0000 C   0  0  0  0  0  0  0  0  0  0  0  0
   14.1244    9.7500    0.0000 C   0  0  0  0  0  0  0  0  0  0  0  0
   14.1244   10.7500    0.0000 C   0  0  0  0  0  0  0  0  0  0  0  0
   14.9904   12.2500    0.0000 C   0  0  0  0  0  0  0  0  0  0  0  0
   15.8564   12.7500    0.0000 C   0  0  0  0  0  0  0  0  0  0  0  0
   16.7224   14.2500    0.0000 C   0  0  0  0  0  0  0  0  0  0  0  0
    3.0781  -13.3326    0.0000 H   0  0  0  0  0  0  0  0  0  0  0  0
    3.4766  -12.6423    0.0000 H   0  0  0  0  0  0  0  0  0  0  0  0
    2.6540  -11.1674    0.0000 H   0  0  0  0  0  0  0  0  0  0  0  0
    2.2554  -11.8577    0.0000 H   0  0  0  0  0  0  0  0  0  0  0  0
    1.7880  -12.6674    0.0000 H   0  0  0  0  0  0  0  0  0  0  0  0
    1.3894  -13.3577    0.0000 H   0  0  0  0  0  0  0  0  0  0  0  0
    4.2690  -11.5600    0.0000 H   0  0  0  0  0  0  0  0  0  0  0  0
    1.3800  -14.2500    0.0000 H   0  0  0  0  0  0  0  0  0  0  0  0
    2.0000  -14.8700    0.0000 H   0  0  0  0  0  0  0  0  0  0  0  0
    2.6200  -14.2500    0.0000 H   0  0  0  0  0  0  0  0  0  0  0  0
    5.1350  -10.0600    0.0000 H   0  0  0  0  0  0  0  0  0  0  0  0
    2.3291  -10.0600    0.0000 H   0  0  0  0  0  0  0  0  0  0  0  0
    5.1350   -8.4400    0.0000 H   0  0  0  0  0  0  0  0  0  0  0  0
    2.3291   -8.4400    0.0000 H   0  0  0  0  0  0  0  0  0  0  0  0
    9.5822    3.8326    0.0000 H   0  0  0  0  0  0  0  0  0  0  0  0
    9.1836    3.1423    0.0000 H   0  0  0  0  0  0  0  0  0  0  0  0
   10.8723    3.1674    0.0000 H   0  0  0  0  0  0  0  0  0  0  0  0
   11.2708    3.8577    0.0000 H   0  0  0  0  0  0  0  0  0  0  0  0
    8.7162    2.3326    0.0000 H   0  0  0  0  0  0  0  0  0  0  0  0
    8.3176    1.6423    0.0000 H   0  0  0  0  0  0  0  0  0  0  0  0
    9.1403    0.1674    0.0000 H   0  0  0  0  0  0  0  0  0  0  0  0
    9.5388    0.8577    0.0000 H   0  0  0  0  0  0  0  0  0  0  0  0
   11.7383    4.6674    0.0000 H   0  0  0  0  0  0  0  0  0  0  0  0
   12.1369    5.3577    0.0000 H   0  0  0  0  0  0  0  0  0  0  0  0
   11.3142    6.8326    0.0000 H   0  0  0  0  0  0  0  0  0  0  0  0
   10.9157    6.1423    0.0000 H   0  0  0  0  0  0  0  0  0  0  0  0
    8.2742   -1.3326    0.0000 H   0  0  0  0  0  0  0  0  0  0  0  0
    8.6728   -0.6423    0.0000 H   0  0  0  0  0  0  0  0  0  0  0  0
    6.9841   -0.6674    0.0000 H   0  0  0  0  0  0  0  0  0  0  0  0
    6.5856   -1.3577    0.0000 H   0  0  0  0  0  0  0  0  0  0  0  0
   12.1803    8.3326    0.0000 H   0  0  0  0  0  0  0  0  0  0  0  0
   11.7817    7.6423    0.0000 H   0  0  0  0  0  0  0  0  0  0  0  0
    6.1181   -2.1674    0.0000 H   0  0  0  0  0  0  0  0  0  0  0  0
    5.7196   -2.8577    0.0000 H   0  0  0  0  0  0  0  0  0  0  0  0
    6.5422   -4.3326    0.0000 H   0  0  0  0  0  0  0  0  0  0  0  0
    6.9407   -3.6423    0.0000 H   0  0  0  0  0  0  0  0  0  0  0  0
   13.4704    7.6674    0.0000 H   0  0  0  0  0  0  0  0  0  0  0  0
   13.8689    8.3577    0.0000 H   0  0  0  0  0  0  0  0  0  0  0  0
    5.6762   -5.8326    0.0000 H   0  0  0  0  0  0  0  0  0  0  0  0
    6.0747   -5.1423    0.0000 H   0  0  0  0  0  0  0  0  0  0  0  0
    4.3860   -5.1674    0.0000 H   0  0  0  0  0  0  0  0  0  0  0  0
    3.9875   -5.8577    0.0000 H   0  0  0  0  0  0  0  0  0  0  0  0
   14.3364    9.1674    0.0000 H   0  0  0  0  0  0  0  0  0  0  0  0
   14.7349    9.8577    0.0000 H   0  0  0  0  0  0  0  0  0  0  0  0
   13.9123   11.3326    0.0000 H   0  0  0  0  0  0  0  0  0  0  0  0
   13.5138   10.6423    0.0000 H   0  0  0  0  0  0  0  0  0  0  0  0
   14.7783   12.8326    0.0000 H   0  0  0  0  0  0  0  0  0  0  0  0
   14.3798   12.1423    0.0000 H   0  0  0  0  0  0  0  0  0  0  0  0
   16.0685   12.1674    0.0000 H   0  0  0  0  0  0  0  0  0  0  0  0
   16.4670   12.8577    0.0000 H   0  0  0  0  0  0  0  0  0  0  0  0
   17.0324   13.7131    0.0000 H   0  0  0  0  0  0  0  0  0  0  0  0
   17.2594   14.5600    0.0000 H   0  0  0  0  0  0  0  0  0  0  0  0
   16.4124   14.7869    0.0000 H   0  0  0  0  0  0  0  0  0  0  0  0
  1 23  1  0  0  0  0
  1 25  1  0  0  0  0
  2 24  1  0  0  0  0
  2 27  1  0  0  0  0
  3 26  1  0  0  0  0
  3 29  1  0  0  0  0
  4 28  1  0  0  0  0
  4 31  1  0  0  0  0
  5 30  1  0  0  0  0
  5 32  1  0  0  0  0
  6 33  1  0  0  0  0
  6 36  1  0  0  0  0
  7 35  1  0  0  0  0
  7 37  1  0  0  0  0
  8 34  1  0  0  0  0
  8 38  1  0  0  0  0
  9 39  1  0  0  0  0
  9 40  1  0  0  0  0
 10 35  2  0  0  0  0
 11 41  1  0  0  0  0
 11 42  1  0  0  0  0
 12 14  1  0  0  0  0
 12 16  1  0  0  0  0
 12 49  1  0  0  0  0
 13 14  1  0  0  0  0
 13 15  1  0  0  0  0
 13 43  1  0  0  0  0
 13 44  1  0  0  0  0
 14 45  1  0  0  0  0
 14 46  1  0  0  0  0
 15 17  1  0  0  0  0
 15 47  1  0  0  0  0
 15 48  1  0  0  0  0
 16 18  2  0  0  0  0
 16 19  1  0  0  0  0
 17 50  1  0  0  0  0
 17 51  1  0  0  0  0
 17 52  1  0  0  0  0
 18 21  1  0  0  0  0
 18 53  1  0  0  0  0
 19 22  2  0  0  0  0
 19 54  1  0  0  0  0
 20 21  2  0  0  0  0
 20 22  1  0  0  0  0
 20 35  1  0  0  0  0
 21 55  1  0  0  0  0
 22 56  1  0  0  0  0
 23 24  1  0  0  0  0
 23 57  1  0  0  0  0
 23 58  1  0  0  0  0
 24 59  1  0  0  0  0
 24 60  1  0  0  0  0
 25 26  1  0  0  0  0
 25 61  1  0  0  0  0
 25 62  1  0  0  0  0
 26 63  1  0  0  0  0
 26 64  1  0  0  0  0
 27 28  1  0  0  0  0
 27 65  1  0  0  0  0
 27 66  1  0  0  0  0
 28 67  1  0  0  0  0
 28 68  1  0  0  0  0
 29 30  1  0  0  0  0
 29 69  1  0  0  0  0
 29 70  1  0  0  0  0
 30 71  1  0  0  0  0
 30 72  1  0  0  0  0
 31 34  1  0  0  0  0
 31 73  1  0  0  0  0
 31 74  1  0  0  0  0
 32 33  1  0  0  0  0
 32 75  1  0  0  0  0
 32 76  1  0  0  0  0
 33 77  1  0  0  0  0
 33 78  1  0  0  0  0
 34 79  1  0  0  0  0
 34 80  1  0  0  0  0
 36 37  1  0  0  0  0
 36 81  1  0  0  0  0
 36 82  1  0  0  0  0
 37 83  1  0  0  0  0
 37 84  1  0  0  0  0
 38 39  1  0  0  0  0
 38 85  1  0  0  0  0
 38 86  1  0  0  0  0
 39 87  1  0  0  0  0
 39 88  1  0  0  0  0
 40 41  1  0  0  0  0
 40 89  1  0  0  0  0
 40 90  1  0  0  0  0
 41 91  1  0  0  0  0
 41 92  1  0  0  0  0
 42 93  1  0  0  0  0
 42 94  1  0  0  0  0
 42 95  1  0  0  0  0
M  END
> <PUBCHEM_COMPOUND_CID>
7699

> <PUBCHEM_COMPOUND_CANONICALIZED>
1

> <PUBCHEM_CACTVS_COMPLEXITY>
565

> <PUBCHEM_CACTVS_HBOND_ACCEPTOR>
12

> <PUBCHEM_CACTVS_HBOND_DONOR>
1

> <PUBCHEM_CACTVS_ROTATABLE_BOND>
33

> <PUBCHEM_CACTVS_SUBSKEYS>
AAADcfB6PAAAAAAAAAAAAAAAAAAAAAAAAAAwAAAAAAAAAAABAAAAHgAQAAAADAjhmAYyyILABACIAiTSSACCAAAlAgAIiIEIbMgJJjLAtZmGMQhk0AHK6YeY2SOeCAAAAAAAAAAQAAAAAAAAAAAAAAAAAA==

> <PUBCHEM_IUPAC_OPENEYE_NAME>
2-[2-[2-[2-[2-[2-[2-[2-(2-methoxyethoxy)ethoxy]ethoxy]ethoxy]ethoxy]ethoxy]ethoxy]ethoxy]ethyl 4-(butylamino)benzoate

> <PUBCHEM_IUPAC_CAS_NAME>
4-(butylamino)benzoic acid 2-[2-[2-[2-[2-[2-[2-[2-(2-methoxyethoxy)ethoxy]ethoxy]ethoxy]ethoxy]ethoxy]ethoxy]ethoxy]ethyl ester

> <PUBCHEM_IUPAC_NAME>
2-[2-[2-[2-[2-[2-[2-[2-(2-methoxyethoxy)ethoxy]ethoxy]ethoxy]ethoxy]ethoxy]ethoxy]ethoxy]ethyl 4-(butylamino)benzoate

> <PUBCHEM_IUPAC_SYSTEMATIC_NAME>
2-[2-[2-[2-[2-[2-[2-[2-(2-methoxyethoxy)ethoxy]ethoxy]ethoxy]ethoxy]ethoxy]ethoxy]ethoxy]ethyl 4-(butylamino)benzoate

> <PUBCHEM_IUPAC_TRADITIONAL_NAME>
4-(butylamino)benzoic acid 2-[2-[2-[2-[2-[2-[2-[2-(2-methoxyethoxy)ethoxy]ethoxy]ethoxy]ethoxy]ethoxy]ethoxy]ethoxy]ethyl ester

> <PUBCHEM_IUPAC_INCHI>
InChI=1S/C30H53NO11/c1-3-4-9-31-29-7-5-28(6-8-29)30(32)42-27-26-41-25-24-40-23-22-39-21-20-38-19-18-37-17-16-36-15-14-35-13-12-34-11-10-33-2/h5-8,31H,3-4,9-27H2,1-2H3

> <PUBCHEM_IUPAC_INCHIKEY>
MAFMQEKGGFWBAB-UHFFFAOYSA-N

> <PUBCHEM_XLOGP3>
2.4

> <PUBCHEM_EXACT_MASS>
603.361862

> <PUBCHEM_MOLECULAR_FORMULA>
C30H53NO11

> <PUBCHEM_MOLECULAR_WEIGHT>
603.74192

> <PUBCHEM_OPENEYE_CAN_SMILES>
CCCCNC1=CC=C(C=C1)C(=O)OCCOCCOCCOCCOCCOCCOCCOCCOCCOC

> <PUBCHEM_OPENEYE_ISO_SMILES>
CCCCNC1=CC=C(C=C1)C(=O)OCCOCCOCCOCCOCCOCCOCCOCCOCCOC

> <PUBCHEM_CACTVS_TPSA>
121

> <PUBCHEM_MONOISOTOPIC_WEIGHT>
603.361862

> <PUBCHEM_TOTAL_CHARGE>
0

> <PUBCHEM_HEAVY_ATOM_COUNT>
42

> <PUBCHEM_ATOM_DEF_STEREO_COUNT>
0

> <PUBCHEM_ATOM_UDEF_STEREO_COUNT>
0

> <PUBCHEM_BOND_DEF_STEREO_COUNT>
0

> <PUBCHEM_BOND_UDEF_STEREO_COUNT>
0

> <PUBCHEM_ISOTOPIC_ATOM_COUNT>
0

> <PUBCHEM_COMPONENT_COUNT>
1

> <PUBCHEM_CACTVS_TAUTO_COUNT>
3

> <PUBCHEM_COORDINATE_TYPE>
1
5
255

> <PUBCHEM_BONDANNOTATIONS>
16  18  8
16  19  8
18  21  8
19  22  8
20  21  8
20  22  8

$$$$

