47205194
  -OEChem-06241222582D

 33 34  0     1  0  0  0  0  0999 V2000
    2.0000   -1.8512    0.0000 Cl  0  0  0  0  0  0  0  0  0  0  0  0
    3.7320   -0.8512    0.0000 O   0  0  0  0  0  0  0  0  0  0  0  0
    7.9128    2.9852    0.0000 O   0  0  0  0  0  0  0  0  0  0  0  0
    3.7320    1.1488    0.0000 O   0  0  0  0  0  0  0  0  0  0  0  0
    5.4641    1.1488    0.0000 N   0  0  0  0  0  0  0  0  0  0  0  0
    4.5981   -0.3512    0.0000 C   0  0  3  0  0  0  0  0  0  0  0  0
    5.4641    2.1488    0.0000 C   0  0  0  0  0  0  0  0  0  0  0  0
    4.5981    0.6488    0.0000 C   0  0  0  0  0  0  0  0  0  0  0  0
    6.3301    2.6488    0.0000 C   0  0  0  0  0  0  0  0  0  0  0  0
    5.4641   -0.8512    0.0000 C   0  0  0  0  0  0  0  0  0  0  0  0
    3.7320   -1.8512    0.0000 C   0  0  0  0  0  0  0  0  0  0  0  0
    6.4347    3.6433    0.0000 C   0  0  0  0  0  0  0  0  0  0  0  0
    7.2437    2.2420    0.0000 C   0  0  0  0  0  0  0  0  0  0  0  0
    2.8660   -2.3512    0.0000 C   0  0  0  0  0  0  0  0  0  0  0  0
    4.5981   -2.3512    0.0000 C   0  0  0  0  0  0  0  0  0  0  0  0
    7.4128    3.8512    0.0000 C   0  0  0  0  0  0  0  0  0  0  0  0
    2.8660   -3.3512    0.0000 C   0  0  0  0  0  0  0  0  0  0  0  0
    4.5981   -3.3512    0.0000 C   0  0  0  0  0  0  0  0  0  0  0  0
    3.7320   -3.8512    0.0000 C   0  0  0  0  0  0  0  0  0  0  0  0
    4.5981   -0.9712    0.0000 H   0  0  0  0  0  0  0  0  0  0  0  0
    5.2520    2.7314    0.0000 H   0  0  0  0  0  0  0  0  0  0  0  0
    4.8535    2.0411    0.0000 H   0  0  0  0  0  0  0  0  0  0  0  0
    6.0010    0.8388    0.0000 H   0  0  0  0  0  0  0  0  0  0  0  0
    5.1541   -1.3882    0.0000 H   0  0  0  0  0  0  0  0  0  0  0  0
    6.0010   -1.1612    0.0000 H   0  0  0  0  0  0  0  0  0  0  0  0
    5.7741   -0.3143    0.0000 H   0  0  0  0  0  0  0  0  0  0  0  0
    5.9739    4.0582    0.0000 H   0  0  0  0  0  0  0  0  0  0  0  0
    7.3726    1.6356    0.0000 H   0  0  0  0  0  0  0  0  0  0  0  0
    5.1350   -2.0412    0.0000 H   0  0  0  0  0  0  0  0  0  0  0  0
    7.6650    4.4176    0.0000 H   0  0  0  0  0  0  0  0  0  0  0  0
    2.3291   -3.6612    0.0000 H   0  0  0  0  0  0  0  0  0  0  0  0
    5.1350   -3.6612    0.0000 H   0  0  0  0  0  0  0  0  0  0  0  0
    3.7320   -4.4712    0.0000 H   0  0  0  0  0  0  0  0  0  0  0  0
  1 14  1  0  0  0  0
  2  6  1  0  0  0  0
  2 11  1  0  0  0  0
  3 13  1  0  0  0  0
  3 16  1  0  0  0  0
  4  8  2  0  0  0  0
  5  7  1  0  0  0  0
  5  8  1  0  0  0  0
  5 23  1  0  0  0  0
  6  8  1  0  0  0  0
  6 10  1  0  0  0  0
  6 20  1  0  0  0  0
  7  9  1  0  0  0  0
  7 21  1  0  0  0  0
  7 22  1  0  0  0  0
  9 12  1  0  0  0  0
  9 13  2  0  0  0  0
 10 24  1  0  0  0  0
 10 25  1  0  0  0  0
 10 26  1  0  0  0  0
 11 14  1  0  0  0  0
 11 15  2  0  0  0  0
 12 16  2  0  0  0  0
 12 27  1  0  0  0  0
 13 28  1  0  0  0  0
 14 17  2  0  0  0  0
 15 18  1  0  0  0  0
 15 29  1  0  0  0  0
 16 30  1  0  0  0  0
 17 19  1  0  0  0  0
 17 31  1  0  0  0  0
 18 19  2  0  0  0  0
 18 32  1  0  0  0  0
 19 33  1  0  0  0  0
M  END
> <PUBCHEM_COMPOUND_CID>
47205194

> <PUBCHEM_COMPOUND_CANONICALIZED>
1

> <PUBCHEM_CACTVS_COMPLEXITY>
300

> <PUBCHEM_CACTVS_HBOND_ACCEPTOR>
3

> <PUBCHEM_CACTVS_HBOND_DONOR>
1

> <PUBCHEM_CACTVS_ROTATABLE_BOND>
5

> <PUBCHEM_CACTVS_SUBSKEYS>
AAADccByMAAEAAAAAAAAAAAAAAAAASAAAAAwAAAAAAAAAAABwAAAHgIQAAAADBbhmCYyBoLABECIAilSkAKCCAAkJUAIiIFOD8gOJjuFtx+HOSjm1hGYqYekQAAIAAAAAAAACAAAAAAAAAAQAAAAAAAAAA==

> <PUBCHEM_IUPAC_OPENEYE_NAME>
2-(2-chlorophenoxy)-N-(3-furylmethyl)propanamide

> <PUBCHEM_IUPAC_CAS_NAME>
2-(2-chlorophenoxy)-N-(3-furanylmethyl)propanamide

> <PUBCHEM_IUPAC_NAME>
2-(2-chlorophenoxy)-N-(furan-3-ylmethyl)propanamide

> <PUBCHEM_IUPAC_SYSTEMATIC_NAME>
2-(2-chloranylphenoxy)-N-(furan-3-ylmethyl)propanamide

> <PUBCHEM_IUPAC_TRADITIONAL_NAME>
2-(2-chlorophenoxy)-N-(3-furfuryl)propionamide

> <PUBCHEM_IUPAC_INCHI>
InChI=1S/C14H14ClNO3/c1-10(19-13-5-3-2-4-12(13)15)14(17)16-8-11-6-7-18-9-11/h2-7,9-10H,8H2,1H3,(H,16,17)

> <PUBCHEM_IUPAC_INCHIKEY>
PWEMAIRATSMRMG-UHFFFAOYSA-N

> <PUBCHEM_XLOGP3_AA>
2.8

> <PUBCHEM_EXACT_MASS>
279.066221

> <PUBCHEM_MOLECULAR_FORMULA>
C14H14ClNO3

> <PUBCHEM_MOLECULAR_WEIGHT>
279.71886

> <PUBCHEM_OPENEYE_CAN_SMILES>
CC(C(=O)NCC1=COC=C1)OC2=CC=CC=C2Cl

> <PUBCHEM_OPENEYE_ISO_SMILES>
CC(C(=O)NCC1=COC=C1)OC2=CC=CC=C2Cl

> <PUBCHEM_CACTVS_TPSA>
51.5

> <PUBCHEM_MONOISOTOPIC_WEIGHT>
279.066221

> <PUBCHEM_TOTAL_CHARGE>
0

> <PUBCHEM_HEAVY_ATOM_COUNT>
19

> <PUBCHEM_ATOM_DEF_STEREO_COUNT>
0

> <PUBCHEM_ATOM_UDEF_STEREO_COUNT>
1

> <PUBCHEM_BOND_DEF_STEREO_COUNT>
0

> <PUBCHEM_BOND_UDEF_STEREO_COUNT>
0

> <PUBCHEM_ISOTOPIC_ATOM_COUNT>
0

> <PUBCHEM_COMPONENT_COUNT>
1

> <PUBCHEM_CACTVS_TAUTO_COUNT>
2

> <PUBCHEM_COORDINATE_TYPE>
1
5
255

> <PUBCHEM_BONDANNOTATIONS>
11  14  8
11  15  8
12  16  8
14  17  8
15  18  8
17  19  8
18  19  8
3  13  8
3  16  8
6  10  3
9  12  8
9  13  8

$$$$

