13674
  -OEChem-06241222392D

 29 30  0     0  0  0  0  0  0999 V2000
    2.0000   -1.0284    0.0000 O   0  0  0  0  0  0  0  0  0  0  0  0
    4.4487    0.8080    0.0000 N   0  0  0  0  0  0  0  0  0  0  0  0
    2.6691   -0.2853    0.0000 N   0  0  0  0  0  0  0  0  0  0  0  0
    3.5827    1.3080    0.0000 C   0  0  0  0  0  0  0  0  0  0  0  0
    5.3147    1.3080    0.0000 C   0  0  0  0  0  0  0  0  0  0  0  0
    3.5827    2.3080    0.0000 C   0  0  0  0  0  0  0  0  0  0  0  0
    5.3147    2.3080    0.0000 C   0  0  0  0  0  0  0  0  0  0  0  0
    4.4487    2.8080    0.0000 C   0  0  0  0  0  0  0  0  0  0  0  0
    4.4487   -0.1920    0.0000 C   0  0  0  0  0  0  0  0  0  0  0  0
    3.5827   -0.6920    0.0000 C   0  0  0  0  0  0  0  0  0  0  0  0
    3.4782   -1.6865    0.0000 C   0  0  0  0  0  0  0  0  0  0  0  0
    2.5000   -1.8944    0.0000 C   0  0  0  0  0  0  0  0  0  0  0  0
    2.0933   -2.8080    0.0000 C   0  0  0  0  0  0  0  0  0  0  0  0
    2.9721    1.4156    0.0000 H   0  0  0  0  0  0  0  0  0  0  0  0
    3.3706    0.7254    0.0000 H   0  0  0  0  0  0  0  0  0  0  0  0
    5.5268    0.7254    0.0000 H   0  0  0  0  0  0  0  0  0  0  0  0
    5.9253    1.4156    0.0000 H   0  0  0  0  0  0  0  0  0  0  0  0
    3.3706    2.8906    0.0000 H   0  0  0  0  0  0  0  0  0  0  0  0
    2.9721    2.2003    0.0000 H   0  0  0  0  0  0  0  0  0  0  0  0
    5.9253    2.2003    0.0000 H   0  0  0  0  0  0  0  0  0  0  0  0
    5.5268    2.8906    0.0000 H   0  0  0  0  0  0  0  0  0  0  0  0
    4.8472    3.2829    0.0000 H   0  0  0  0  0  0  0  0  0  0  0  0
    4.0502    3.2829    0.0000 H   0  0  0  0  0  0  0  0  0  0  0  0
    4.6608   -0.7746    0.0000 H   0  0  0  0  0  0  0  0  0  0  0  0
    5.0593   -0.0843    0.0000 H   0  0  0  0  0  0  0  0  0  0  0  0
    3.9389   -2.1014    0.0000 H   0  0  0  0  0  0  0  0  0  0  0  0
    1.5269   -2.5558    0.0000 H   0  0  0  0  0  0  0  0  0  0  0  0
    1.8411   -3.3744    0.0000 H   0  0  0  0  0  0  0  0  0  0  0  0
    2.6597   -3.0602    0.0000 H   0  0  0  0  0  0  0  0  0  0  0  0
  1  3  1  0  0  0  0
  1 12  1  0  0  0  0
  2  4  1  0  0  0  0
  2  5  1  0  0  0  0
  2  9  1  0  0  0  0
  3 10  2  0  0  0  0
  4  6  1  0  0  0  0
  4 14  1  0  0  0  0
  4 15  1  0  0  0  0
  5  7  1  0  0  0  0
  5 16  1  0  0  0  0
  5 17  1  0  0  0  0
  6  8  1  0  0  0  0
  6 18  1  0  0  0  0
  6 19  1  0  0  0  0
  7  8  1  0  0  0  0
  7 20  1  0  0  0  0
  7 21  1  0  0  0  0
  8 22  1  0  0  0  0
  8 23  1  0  0  0  0
  9 10  1  0  0  0  0
  9 24  1  0  0  0  0
  9 25  1  0  0  0  0
 10 11  1  0  0  0  0
 11 12  2  0  0  0  0
 11 26  1  0  0  0  0
 12 13  1  0  0  0  0
 13 27  1  0  0  0  0
 13 28  1  0  0  0  0
 13 29  1  0  0  0  0
M  END
> <PUBCHEM_COMPOUND_CID>
13674

> <PUBCHEM_COMPOUND_CANONICALIZED>
1

> <PUBCHEM_CACTVS_COMPLEXITY>
157

> <PUBCHEM_CACTVS_HBOND_ACCEPTOR>
3

> <PUBCHEM_CACTVS_HBOND_DONOR>
0

> <PUBCHEM_CACTVS_ROTATABLE_BOND>
2

> <PUBCHEM_CACTVS_SUBSKEYS>
AAADceBzIAAAAAAAAAAAAAAAAAAAAWAAAAAsAAAAAAAAAAABgAAAHgAEAAAACAzBlgQyhJMQAACpAaRyQgCAAAAkIgAgGCE+bFoAZhoAgZMUEYhmABiISUI0AAAAAAAAAAAAAAAAAAAAAAAAAAAAAAAAAA==

> <PUBCHEM_IUPAC_OPENEYE_NAME>
5-methyl-3-(1-piperidylmethyl)isoxazole

> <PUBCHEM_IUPAC_CAS_NAME>
5-methyl-3-(1-piperidinylmethyl)isoxazole

> <PUBCHEM_IUPAC_NAME>
5-methyl-3-(piperidin-1-ylmethyl)-1,2-oxazole

> <PUBCHEM_IUPAC_SYSTEMATIC_NAME>
5-methyl-3-(piperidin-1-ylmethyl)-1,2-oxazole

> <PUBCHEM_IUPAC_TRADITIONAL_NAME>
5-methyl-3-(piperidinomethyl)isoxazole

> <PUBCHEM_IUPAC_INCHI>
InChI=1S/C10H16N2O/c1-9-7-10(11-13-9)8-12-5-3-2-4-6-12/h7H,2-6,8H2,1H3

> <PUBCHEM_IUPAC_INCHIKEY>
GTRKKZIHGWOERP-UHFFFAOYSA-N

> <PUBCHEM_XLOGP3_AA>
1.5

> <PUBCHEM_EXACT_MASS>
180.126263

> <PUBCHEM_MOLECULAR_FORMULA>
C10H16N2O

> <PUBCHEM_MOLECULAR_WEIGHT>
180.24684

> <PUBCHEM_OPENEYE_CAN_SMILES>
CC1=CC(=NO1)CN2CCCCC2

> <PUBCHEM_OPENEYE_ISO_SMILES>
CC1=CC(=NO1)CN2CCCCC2

> <PUBCHEM_CACTVS_TPSA>
29.3

> <PUBCHEM_MONOISOTOPIC_WEIGHT>
180.126263

> <PUBCHEM_TOTAL_CHARGE>
0

> <PUBCHEM_HEAVY_ATOM_COUNT>
13

> <PUBCHEM_ATOM_DEF_STEREO_COUNT>
0

> <PUBCHEM_ATOM_UDEF_STEREO_COUNT>
0

> <PUBCHEM_BOND_DEF_STEREO_COUNT>
0

> <PUBCHEM_BOND_UDEF_STEREO_COUNT>
0

> <PUBCHEM_ISOTOPIC_ATOM_COUNT>
0

> <PUBCHEM_COMPONENT_COUNT>
1

> <PUBCHEM_CACTVS_TAUTO_COUNT>
1

> <PUBCHEM_COORDINATE_TYPE>
1
5
255

> <PUBCHEM_BONDANNOTATIONS>
1  12  8
1  3  8
10  11  8
11  12  8
3  10  8

$$$$

