10612
  -OEChem-06261204452D

 35 36  0     0  0  0  0  0  0999 V2000
    3.7320    1.1718    0.0000 O   0  0  0  0  0  0  0  0  0  0  0  0
    2.0000   -1.8282    0.0000 O   0  0  0  0  0  0  0  0  0  0  0  0
    5.5443   -0.0234    0.0000 N   0  0  0  0  0  0  0  0  0  0  0  0
    3.7320   -1.8282    0.0000 N   0  0  0  0  0  0  0  0  0  0  0  0
    2.8660   -0.3281    0.0000 N   0  0  0  0  0  0  0  0  0  0  0  0
    7.1441    2.0838    0.0000 N   0  0  0  0  0  0  0  0  0  0  0  0
    5.5443   -1.6329    0.0000 N   0  0  0  0  0  0  0  0  0  0  0  0
    4.5981   -0.3281    0.0000 C   0  0  0  0  0  0  0  0  0  0  0  0
    5.8550    0.9271    0.0000 C   0  0  0  0  0  0  0  0  0  0  0  0
    4.5981   -1.3282    0.0000 C   0  0  0  0  0  0  0  0  0  0  0  0
    6.8335    1.1333    0.0000 C   0  0  0  0  0  0  0  0  0  0  0  0
    3.7320    0.1719    0.0000 C   0  0  0  0  0  0  0  0  0  0  0  0
    6.1279   -0.8281    0.0000 C   0  0  0  0  0  0  0  0  0  0  0  0
    2.8660   -1.3282    0.0000 C   0  0  0  0  0  0  0  0  0  0  0  0
    3.7320   -2.8282    0.0000 C   0  0  0  0  0  0  0  0  0  0  0  0
    2.0000    0.1719    0.0000 C   0  0  0  0  0  0  0  0  0  0  0  0
    8.1226    2.2901    0.0000 C   0  0  0  0  0  0  0  0  0  0  0  0
    6.4763    2.8282    0.0000 C   0  0  0  0  0  0  0  0  0  0  0  0
    5.8344    1.5468    0.0000 H   0  0  0  0  0  0  0  0  0  0  0  0
    5.2411    1.0145    0.0000 H   0  0  0  0  0  0  0  0  0  0  0  0
    6.8540    0.5137    0.0000 H   0  0  0  0  0  0  0  0  0  0  0  0
    7.4473    1.0460    0.0000 H   0  0  0  0  0  0  0  0  0  0  0  0
    6.7479   -0.8281    0.0000 H   0  0  0  0  0  0  0  0  0  0  0  0
    3.1120   -2.8282    0.0000 H   0  0  0  0  0  0  0  0  0  0  0  0
    3.7320   -3.4482    0.0000 H   0  0  0  0  0  0  0  0  0  0  0  0
    4.3520   -2.8282    0.0000 H   0  0  0  0  0  0  0  0  0  0  0  0
    2.3100    0.7088    0.0000 H   0  0  0  0  0  0  0  0  0  0  0  0
    1.4631    0.4819    0.0000 H   0  0  0  0  0  0  0  0  0  0  0  0
    1.6900   -0.3651    0.0000 H   0  0  0  0  0  0  0  0  0  0  0  0
    8.2505    1.6834    0.0000 H   0  0  0  0  0  0  0  0  0  0  0  0
    8.7293    2.4179    0.0000 H   0  0  0  0  0  0  0  0  0  0  0  0
    7.9948    2.8967    0.0000 H   0  0  0  0  0  0  0  0  0  0  0  0
    6.9378    3.2422    0.0000 H   0  0  0  0  0  0  0  0  0  0  0  0
    6.0622    3.2896    0.0000 H   0  0  0  0  0  0  0  0  0  0  0  0
    6.0148    2.4141    0.0000 H   0  0  0  0  0  0  0  0  0  0  0  0
  1 12  2  0  0  0  0
  2 14  2  0  0  0  0
  3  8  1  0  0  0  0
  3  9  1  0  0  0  0
  3 13  1  0  0  0  0
  4 10  1  0  0  0  0
  4 14  1  0  0  0  0
  4 15  1  0  0  0  0
  5 12  1  0  0  0  0
  5 14  1  0  0  0  0
  5 16  1  0  0  0  0
  6 11  1  0  0  0  0
  6 17  1  0  0  0  0
  6 18  1  0  0  0  0
  7 10  1  0  0  0  0
  7 13  2  0  0  0  0
  8 10  2  0  0  0  0
  8 12  1  0  0  0  0
  9 11  1  0  0  0  0
  9 19  1  0  0  0  0
  9 20  1  0  0  0  0
 11 21  1  0  0  0  0
 11 22  1  0  0  0  0
 13 23  1  0  0  0  0
 15 24  1  0  0  0  0
 15 25  1  0  0  0  0
 15 26  1  0  0  0  0
 16 27  1  0  0  0  0
 16 28  1  0  0  0  0
 16 29  1  0  0  0  0
 17 30  1  0  0  0  0
 17 31  1  0  0  0  0
 17 32  1  0  0  0  0
 18 33  1  0  0  0  0
 18 34  1  0  0  0  0
 18 35  1  0  0  0  0
M  END
> <PUBCHEM_COMPOUND_CID>
10612

> <PUBCHEM_COMPOUND_CANONICALIZED>
1

> <PUBCHEM_CACTVS_COMPLEXITY>
359

> <PUBCHEM_CACTVS_HBOND_ACCEPTOR>
4

> <PUBCHEM_CACTVS_HBOND_DONOR>
0

> <PUBCHEM_CACTVS_ROTATABLE_BOND>
3

> <PUBCHEM_CACTVS_SUBSKEYS>
AAADceBzsAAAAAAAAAAAAAAAAAAAAWAAAAAsAAAAAAAAAFgBgAAAHgAAAAAACAjBlgQHsBcMEACoAQdxdACAgC0XEKABUAGoVECASAhASCAUAIgIByLAAGAAAAAAAAAAAAAAAAAAAAAAAAAAAAAAAAAAAA==

> <PUBCHEM_IUPAC_OPENEYE_NAME>
7-[2-(dimethylamino)ethyl]-1,3-dimethyl-purine-2,6-dione

> <PUBCHEM_IUPAC_CAS_NAME>
7-[2-(dimethylamino)ethyl]-1,3-dimethylpurine-2,6-dione

> <PUBCHEM_IUPAC_NAME>
7-[2-(dimethylamino)ethyl]-1,3-dimethylpurine-2,6-dione

> <PUBCHEM_IUPAC_SYSTEMATIC_NAME>
7-[2-(dimethylamino)ethyl]-1,3-dimethyl-purine-2,6-dione

> <PUBCHEM_IUPAC_TRADITIONAL_NAME>
7-[2-(dimethylamino)ethyl]-1,3-dimethyl-xanthine

> <PUBCHEM_IUPAC_INCHI>
InChI=1S/C11H17N5O2/c1-13(2)5-6-16-7-12-9-8(16)10(17)15(4)11(18)14(9)3/h7H,5-6H2,1-4H3

> <PUBCHEM_IUPAC_INCHIKEY>
CMKUGKVVUUGBHJ-UHFFFAOYSA-N

> <PUBCHEM_XLOGP3>
-0.5

> <PUBCHEM_EXACT_MASS>
251.138225

> <PUBCHEM_MOLECULAR_FORMULA>
C11H17N5O2

> <PUBCHEM_MOLECULAR_WEIGHT>
251.28498

> <PUBCHEM_OPENEYE_CAN_SMILES>
CN1C2=C(C(=O)N(C1=O)C)N(C=N2)CCN(C)C

> <PUBCHEM_OPENEYE_ISO_SMILES>
CN1C2=C(C(=O)N(C1=O)C)N(C=N2)CCN(C)C

> <PUBCHEM_CACTVS_TPSA>
61.7

> <PUBCHEM_MONOISOTOPIC_WEIGHT>
251.138225

> <PUBCHEM_TOTAL_CHARGE>
0

> <PUBCHEM_HEAVY_ATOM_COUNT>
18

> <PUBCHEM_ATOM_DEF_STEREO_COUNT>
0

> <PUBCHEM_ATOM_UDEF_STEREO_COUNT>
0

> <PUBCHEM_BOND_DEF_STEREO_COUNT>
0

> <PUBCHEM_BOND_UDEF_STEREO_COUNT>
0

> <PUBCHEM_ISOTOPIC_ATOM_COUNT>
0

> <PUBCHEM_COMPONENT_COUNT>
1

> <PUBCHEM_CACTVS_TAUTO_COUNT>
1

> <PUBCHEM_COORDINATE_TYPE>
1
5
255

> <PUBCHEM_BONDANNOTATIONS>
3  13  8
3  8  8
4  10  8
4  14  8
5  12  8
5  14  8
7  10  8
7  13  8
8  10  8
8  12  8

$$$$

