10537
  -OEChem-06261204392D

 19 17  0     0  0  0  0  0  0999 V2000
    3.7320   -0.8845    0.0000 Ce  0  1  0  0  0  0  0  0  0  0  0  0
    3.7320    2.8476    0.0000 O   0  0  0  0  0  0  0  0  0  0  0  0
    4.5981   -0.3845    0.0000 O   0  5  0  0  0  0  0  0  0  0  0  0
    2.8660   -0.3845    0.0000 O   0  5  0  0  0  0  0  0  0  0  0  0
    5.4641    1.1155    0.0000 O   0  0  0  0  0  0  0  0  0  0  0  0
    2.0000    1.1155    0.0000 O   0  0  0  0  0  0  0  0  0  0  0  0
    3.7320   -1.8845    0.0000 O   0  5  0  0  0  0  0  0  0  0  0  0
    2.8660   -3.3845    0.0000 O   0  0  0  0  0  0  0  0  0  0  0  0
    3.7320    1.1155    0.0000 C   0  0  0  0  0  0  0  0  0  0  0  0
    4.2320    1.9815    0.0000 C   0  0  0  0  0  0  0  0  0  0  0  0
    3.2320    1.9815    0.0000 C   0  0  0  0  0  0  0  0  0  0  0  0
    4.5981    0.6155    0.0000 C   0  0  0  0  0  0  0  0  0  0  0  0
    2.8660    0.6155    0.0000 C   0  0  0  0  0  0  0  0  0  0  0  0
    2.8660   -2.3845    0.0000 C   0  0  0  0  0  0  0  0  0  0  0  0
    4.8454    2.0723    0.0000 H   0  0  0  0  0  0  0  0  0  0  0  0
    3.8835    2.4943    0.0000 H   0  0  0  0  0  0  0  0  0  0  0  0
    2.7571    2.3801    0.0000 H   0  0  0  0  0  0  0  0  0  0  0  0
    2.7571    1.5830    0.0000 H   0  0  0  0  0  0  0  0  0  0  0  0
    3.4220    3.3845    0.0000 H   0  0  0  0  0  0  0  0  0  0  0  0
  2 11  1  0  0  0  0
  2 19  1  0  0  0  0
  3 12  1  0  0  0  0
  4 13  1  0  0  0  0
  5 12  2  0  0  0  0
  6 13  2  0  0  0  0
  7 14  1  0  0  0  0
  8 14  2  0  0  0  0
  9 10  1  0  0  0  0
  9 11  1  0  0  0  0
  9 12  1  0  0  0  0
  9 13  1  0  0  0  0
 10 14  1  0  0  0  0
 10 15  1  0  0  0  0
 10 16  1  0  0  0  0
 11 17  1  0  0  0  0
 11 18  1  0  0  0  0
M  CHG  4   1   3   3  -1   4  -1   7  -1
M  END
> <PUBCHEM_COMPOUND_CID>
10537

> <PUBCHEM_COMPOUND_CANONICALIZED>
1

> <PUBCHEM_CACTVS_COMPLEXITY>
213

> <PUBCHEM_CACTVS_HBOND_ACCEPTOR>
7

> <PUBCHEM_CACTVS_HBOND_DONOR>
1

> <PUBCHEM_CACTVS_ROTATABLE_BOND>
2

> <PUBCHEM_CACTVS_SUBSKEYS>
AAADcYBgOAAAAAAAAAAAAAgAAAAAAAAAAAAAAAAAAAAAAAAAAAAAGgAACAAADgCggAIACAAAAgAIAACQCAAAAAAAAAAAAAEAAAAAEBQIAAAAQAAFIAAAAABDAAAJAAAAAAAAAAAAAAAAAAAAAAAAAAAAAA==

> <PUBCHEM_IUPAC_OPENEYE_NAME>
cerium(3+); 1-(hydroxymethyl)ethane-1,1,2-tricarboxylate

> <PUBCHEM_IUPAC_CAS_NAME>
cerium(3+); 1-(hydroxymethyl)ethane-1,1,2-tricarboxylate

> <PUBCHEM_IUPAC_NAME>
cerium(3+); 1-(hydroxymethyl)ethane-1,1,2-tricarboxylate

> <PUBCHEM_IUPAC_SYSTEMATIC_NAME>
cerium(3+); 1-(hydroxymethyl)ethane-1,1,2-tricarboxylate

> <PUBCHEM_IUPAC_TRADITIONAL_NAME>
cerium(3+); 1-methylolethane-1,1,2-tricarboxylate

> <PUBCHEM_IUPAC_INCHI>
InChI=1S/C6H8O7.Ce/c7-2-6(4(10)11,5(12)13)1-3(8)9;/h7H,1-2H2,(H,8,9)(H,10,11)(H,12,13);/q;+3/p-3

> <PUBCHEM_IUPAC_INCHIKEY>
KKEGZXIHRFPTGI-UHFFFAOYSA-K

> <PUBCHEM_EXACT_MASS>
328.908966

> <PUBCHEM_MOLECULAR_FORMULA>
C6H5CeO7

> <PUBCHEM_MOLECULAR_WEIGHT>
329.2157

> <PUBCHEM_OPENEYE_CAN_SMILES>
C(C(=O)[O-])C(CO)(C(=O)[O-])C(=O)[O-].[Ce+3]

> <PUBCHEM_OPENEYE_ISO_SMILES>
C(C(=O)[O-])C(CO)(C(=O)[O-])C(=O)[O-].[Ce+3]

> <PUBCHEM_CACTVS_TPSA>
141

> <PUBCHEM_MONOISOTOPIC_WEIGHT>
328.908966

> <PUBCHEM_TOTAL_CHARGE>
0

> <PUBCHEM_HEAVY_ATOM_COUNT>
14

> <PUBCHEM_ATOM_DEF_STEREO_COUNT>
0

> <PUBCHEM_ATOM_UDEF_STEREO_COUNT>
0

> <PUBCHEM_BOND_DEF_STEREO_COUNT>
0

> <PUBCHEM_BOND_UDEF_STEREO_COUNT>
0

> <PUBCHEM_ISOTOPIC_ATOM_COUNT>
0

> <PUBCHEM_COMPONENT_COUNT>
2

> <PUBCHEM_CACTVS_TAUTO_COUNT>
1

> <PUBCHEM_COORDINATE_TYPE>
1
5
255

$$$$

