13236
  -OEChem-06261207552D

 16 16  0     0  0  0  0  0  0999 V2000
    2.0000    0.4400    0.0000 F   0  0  0  0  0  0  0  0  0  0  0  0
    5.4641    0.4400    0.0000 F   0  0  0  0  0  0  0  0  0  0  0  0
    5.4641   -1.5600    0.0000 F   0  0  0  0  0  0  0  0  0  0  0  0
    2.0000   -1.5600    0.0000 F   0  0  0  0  0  0  0  0  0  0  0  0
    3.7320   -2.5600    0.0000 F   0  0  0  0  0  0  0  0  0  0  0  0
    3.7320    1.4400    0.0000 N   0  0  0  0  0  0  0  0  0  0  0  0
    4.5981    1.9400    0.0000 N   0  0  0  0  0  0  0  0  0  0  0  0
    3.7320    0.4400    0.0000 C   0  0  0  0  0  0  0  0  0  0  0  0
    2.8660   -0.0600    0.0000 C   0  0  0  0  0  0  0  0  0  0  0  0
    4.5981   -0.0600    0.0000 C   0  0  0  0  0  0  0  0  0  0  0  0
    4.5981   -1.0600    0.0000 C   0  0  0  0  0  0  0  0  0  0  0  0
    2.8660   -1.0600    0.0000 C   0  0  0  0  0  0  0  0  0  0  0  0
    3.7320   -1.5600    0.0000 C   0  0  0  0  0  0  0  0  0  0  0  0
    3.1951    1.7500    0.0000 H   0  0  0  0  0  0  0  0  0  0  0  0
    4.5981    2.5600    0.0000 H   0  0  0  0  0  0  0  0  0  0  0  0
    5.1350    1.6300    0.0000 H   0  0  0  0  0  0  0  0  0  0  0  0
  1  9  1  0  0  0  0
  2 10  1  0  0  0  0
  3 11  1  0  0  0  0
  4 12  1  0  0  0  0
  5 13  1  0  0  0  0
  6  7  1  0  0  0  0
  6  8  1  0  0  0  0
  6 14  1  0  0  0  0
  7 15  1  0  0  0  0
  7 16  1  0  0  0  0
  8  9  2  0  0  0  0
  8 10  1  0  0  0  0
  9 12  1  0  0  0  0
 10 11  2  0  0  0  0
 11 13  1  0  0  0  0
 12 13  2  0  0  0  0
M  END
> <PUBCHEM_COMPOUND_CID>
13236

> <PUBCHEM_COMPOUND_CANONICALIZED>
1

> <PUBCHEM_CACTVS_COMPLEXITY>
164

> <PUBCHEM_CACTVS_HBOND_ACCEPTOR>
7

> <PUBCHEM_CACTVS_HBOND_DONOR>
2

> <PUBCHEM_CACTVS_ROTATABLE_BOND>
1

> <PUBCHEM_CACTVS_SUBSKEYS>
AAADcQBjAcAAAAAAAAAAAAAAAAAAAAAAAAAwAAAAAAAAAAABAAAADQAYAAAACAgBEAgAwIBiAACAAARAQACCBAAgAAIQqAAARIgIICKAkJGAIABggAAIyAcQAAAAAAAAAAAAAAAAAAAAAAAAAAAAAAAAAA==

> <PUBCHEM_IUPAC_OPENEYE_NAME>
(2,3,4,5,6-pentafluorophenyl)hydrazine

> <PUBCHEM_IUPAC_CAS_NAME>
(2,3,4,5,6-pentafluorophenyl)hydrazine

> <PUBCHEM_IUPAC_NAME>
(2,3,4,5,6-pentafluorophenyl)hydrazine

> <PUBCHEM_IUPAC_SYSTEMATIC_NAME>
[2,3,4,5,6-pentakis(fluoranyl)phenyl]diazane

> <PUBCHEM_IUPAC_TRADITIONAL_NAME>
(2,3,4,5,6-pentafluorophenyl)hydrazine

> <PUBCHEM_IUPAC_INCHI>
InChI=1S/C6H3F5N2/c7-1-2(8)4(10)6(13-12)5(11)3(1)9/h13H,12H2

> <PUBCHEM_IUPAC_INCHIKEY>
BYCUWCJUPSUFBX-UHFFFAOYSA-N

> <PUBCHEM_XLOGP3_AA>
1.7

> <PUBCHEM_EXACT_MASS>
198.021639

> <PUBCHEM_MOLECULAR_FORMULA>
C6H3F5N2

> <PUBCHEM_MOLECULAR_WEIGHT>
198.093436

> <PUBCHEM_OPENEYE_CAN_SMILES>
C1(=C(C(=C(C(=C1F)F)F)F)F)NN

> <PUBCHEM_OPENEYE_ISO_SMILES>
C1(=C(C(=C(C(=C1F)F)F)F)F)NN

> <PUBCHEM_CACTVS_TPSA>
38

> <PUBCHEM_MONOISOTOPIC_WEIGHT>
198.021639

> <PUBCHEM_TOTAL_CHARGE>
0

> <PUBCHEM_HEAVY_ATOM_COUNT>
13

> <PUBCHEM_ATOM_DEF_STEREO_COUNT>
0

> <PUBCHEM_ATOM_UDEF_STEREO_COUNT>
0

> <PUBCHEM_BOND_DEF_STEREO_COUNT>
0

> <PUBCHEM_BOND_UDEF_STEREO_COUNT>
0

> <PUBCHEM_ISOTOPIC_ATOM_COUNT>
0

> <PUBCHEM_COMPONENT_COUNT>
1

> <PUBCHEM_CACTVS_TAUTO_COUNT>
1

> <PUBCHEM_COORDINATE_TYPE>
1
5
255

> <PUBCHEM_BONDANNOTATIONS>
10  11  8
11  13  8
12  13  8
8  10  8
8  9  8
9  12  8

$$$$

