8590
  -OEChem-06261202562D

 46 47  0     1  0  0  0  0  0999 V2000
    5.3147   -0.3419    0.0000 O   0  0  0  0  0  0  0  0  0  0  0  0
    6.6227    2.4558    0.0000 N   0  0  0  0  0  0  0  0  0  0  0  0
    3.8366    0.3162    0.0000 N   0  0  0  0  0  0  0  0  0  0  0  0
    4.6456   -1.0850    0.0000 N   0  0  0  0  0  0  0  0  0  0  0  0
    2.8660   -1.1783    0.0000 C   0  0  3  0  0  0  0  0  0  0  0  0
    6.2160    1.5422    0.0000 C   0  0  0  0  0  0  0  0  0  0  0  0
    5.2215    1.4377    0.0000 C   0  0  0  0  0  0  0  0  0  0  0  0
    2.0000   -0.6783    0.0000 C   0  0  0  0  0  0  0  0  0  0  0  0
    3.7320   -0.6783    0.0000 C   0  0  0  0  0  0  0  0  0  0  0  0
    2.8660   -2.1783    0.0000 C   0  0  0  0  0  0  0  0  0  0  0  0
    7.6172    2.5603    0.0000 C   0  0  0  0  0  0  0  0  0  0  0  0
    6.0349    3.2648    0.0000 C   0  0  0  0  0  0  0  0  0  0  0  0
    4.8147    0.5241    0.0000 C   0  0  0  0  0  0  0  0  0  0  0  0
    2.0000    0.3217    0.0000 C   0  0  0  0  0  0  0  0  0  0  0  0
    6.4417    4.1783    0.0000 C   0  0  0  0  0  0  0  0  0  0  0  0
    8.0240    3.4738    0.0000 C   0  0  0  0  0  0  0  0  0  0  0  0
    2.0000   -2.6783    0.0000 C   0  0  0  0  0  0  0  0  0  0  0  0
    3.7320   -2.6783    0.0000 C   0  0  0  0  0  0  0  0  0  0  0  0
    2.0000   -3.6783    0.0000 C   0  0  0  0  0  0  0  0  0  0  0  0
    3.7320   -3.6783    0.0000 C   0  0  0  0  0  0  0  0  0  0  0  0
    2.8660   -4.1783    0.0000 C   0  0  0  0  0  0  0  0  0  0  0  0
    2.8660   -0.3283    0.0000 H   0  0  0  0  0  0  0  0  0  0  0  0
    6.1727    0.9237    0.0000 H   0  0  0  0  0  0  0  0  0  0  0  0
    6.8176    1.3922    0.0000 H   0  0  0  0  0  0  0  0  0  0  0  0
    5.2647    2.0562    0.0000 H   0  0  0  0  0  0  0  0  0  0  0  0
    4.6199    1.5877    0.0000 H   0  0  0  0  0  0  0  0  0  0  0  0
    1.3894   -0.5706    0.0000 H   0  0  0  0  0  0  0  0  0  0  0  0
    1.7880   -1.2609    0.0000 H   0  0  0  0  0  0  0  0  0  0  0  0
    7.5740    1.9418    0.0000 H   0  0  0  0  0  0  0  0  0  0  0  0
    8.2188    2.4103    0.0000 H   0  0  0  0  0  0  0  0  0  0  0  0
    5.5209    3.6115    0.0000 H   0  0  0  0  0  0  0  0  0  0  0  0
    5.6043    2.8188    0.0000 H   0  0  0  0  0  0  0  0  0  0  0  0
    2.6200    0.3217    0.0000 H   0  0  0  0  0  0  0  0  0  0  0  0
    2.0000    0.9417    0.0000 H   0  0  0  0  0  0  0  0  0  0  0  0
    1.3800    0.3217    0.0000 H   0  0  0  0  0  0  0  0  0  0  0  0
    7.0081    3.9261    0.0000 H   0  0  0  0  0  0  0  0  0  0  0  0
    6.6938    4.7447    0.0000 H   0  0  0  0  0  0  0  0  0  0  0  0
    5.8753    4.4305    0.0000 H   0  0  0  0  0  0  0  0  0  0  0  0
    8.5904    3.2216    0.0000 H   0  0  0  0  0  0  0  0  0  0  0  0
    8.2762    4.0402    0.0000 H   0  0  0  0  0  0  0  0  0  0  0  0
    7.4576    3.7260    0.0000 H   0  0  0  0  0  0  0  0  0  0  0  0
    1.4631   -2.3683    0.0000 H   0  0  0  0  0  0  0  0  0  0  0  0
    4.2690   -2.3683    0.0000 H   0  0  0  0  0  0  0  0  0  0  0  0
    1.4631   -3.9883    0.0000 H   0  0  0  0  0  0  0  0  0  0  0  0
    4.2690   -3.9883    0.0000 H   0  0  0  0  0  0  0  0  0  0  0  0
    2.8660   -4.7983    0.0000 H   0  0  0  0  0  0  0  0  0  0  0  0
  1  4  1  0  0  0  0
  1 13  1  0  0  0  0
  2  6  1  0  0  0  0
  2 11  1  0  0  0  0
  2 12  1  0  0  0  0
  3  9  1  0  0  0  0
  3 13  2  0  0  0  0
  4  9  2  0  0  0  0
  5  8  1  0  0  0  0
  5  9  1  0  0  0  0
  5 10  1  0  0  0  0
  5 22  1  0  0  0  0
  6  7  1  0  0  0  0
  6 23  1  0  0  0  0
  6 24  1  0  0  0  0
  7 13  1  0  0  0  0
  7 25  1  0  0  0  0
  7 26  1  0  0  0  0
  8 14  1  0  0  0  0
  8 27  1  0  0  0  0
  8 28  1  0  0  0  0
 10 17  2  0  0  0  0
 10 18  1  0  0  0  0
 11 16  1  0  0  0  0
 11 29  1  0  0  0  0
 11 30  1  0  0  0  0
 12 15  1  0  0  0  0
 12 31  1  0  0  0  0
 12 32  1  0  0  0  0
 14 33  1  0  0  0  0
 14 34  1  0  0  0  0
 14 35  1  0  0  0  0
 15 36  1  0  0  0  0
 15 37  1  0  0  0  0
 15 38  1  0  0  0  0
 16 39  1  0  0  0  0
 16 40  1  0  0  0  0
 16 41  1  0  0  0  0
 17 19  1  0  0  0  0
 17 42  1  0  0  0  0
 18 20  2  0  0  0  0
 18 43  1  0  0  0  0
 19 21  2  0  0  0  0
 19 44  1  0  0  0  0
 20 21  1  0  0  0  0
 20 45  1  0  0  0  0
 21 46  1  0  0  0  0
M  END
> <PUBCHEM_COMPOUND_CID>
8590

> <PUBCHEM_COMPOUND_CANONICALIZED>
1

> <PUBCHEM_CACTVS_COMPLEXITY>
277

> <PUBCHEM_CACTVS_HBOND_ACCEPTOR>
4

> <PUBCHEM_CACTVS_HBOND_DONOR>
0

> <PUBCHEM_CACTVS_ROTATABLE_BOND>
8

> <PUBCHEM_CACTVS_SUBSKEYS>
AAADceB7IAAAAAAAAAAAAAAAAAAAAWAAAAAwAAAAAAAAAAABwAAAHgAEAAAADQDBmwQzEIcYEACpAiNyNgACgAkgAKApiAE4AIiIKCqA2RGEIAAihQKIiAcQgMAOgAAAAAAAAAAAAAAAAAAAAAAAAAAAAA==

> <PUBCHEM_IUPAC_OPENEYE_NAME>
N,N-diethyl-2-[3-(1-phenylpropyl)-1,2,4-oxadiazol-5-yl]ethanamine

> <PUBCHEM_IUPAC_CAS_NAME>
N,N-diethyl-2-[3-(1-phenylpropyl)-1,2,4-oxadiazol-5-yl]ethanamine

> <PUBCHEM_IUPAC_NAME>
N,N-diethyl-2-[3-(1-phenylpropyl)-1,2,4-oxadiazol-5-yl]ethanamine

> <PUBCHEM_IUPAC_SYSTEMATIC_NAME>
N,N-diethyl-2-[3-(1-phenylpropyl)-1,2,4-oxadiazol-5-yl]ethanamine

> <PUBCHEM_IUPAC_TRADITIONAL_NAME>
diethyl-[2-[3-(1-phenylpropyl)-1,2,4-oxadiazol-5-yl]ethyl]amine

> <PUBCHEM_IUPAC_INCHI>
InChI=1S/C17H25N3O/c1-4-15(14-10-8-7-9-11-14)17-18-16(21-19-17)12-13-20(5-2)6-3/h7-11,15H,4-6,12-13H2,1-3H3

> <PUBCHEM_IUPAC_INCHIKEY>
OLTAWOVKGWWERU-UHFFFAOYSA-N

> <PUBCHEM_XLOGP3_AA>
3.8

> <PUBCHEM_EXACT_MASS>
287.199762

> <PUBCHEM_MOLECULAR_FORMULA>
C17H25N3O

> <PUBCHEM_MOLECULAR_WEIGHT>
287.3999

> <PUBCHEM_OPENEYE_CAN_SMILES>
CCC(C1=CC=CC=C1)C2=NOC(=N2)CCN(CC)CC

> <PUBCHEM_OPENEYE_ISO_SMILES>
CCC(C1=CC=CC=C1)C2=NOC(=N2)CCN(CC)CC

> <PUBCHEM_CACTVS_TPSA>
42.2

> <PUBCHEM_MONOISOTOPIC_WEIGHT>
287.199762

> <PUBCHEM_TOTAL_CHARGE>
0

> <PUBCHEM_HEAVY_ATOM_COUNT>
21

> <PUBCHEM_ATOM_DEF_STEREO_COUNT>
0

> <PUBCHEM_ATOM_UDEF_STEREO_COUNT>
1

> <PUBCHEM_BOND_DEF_STEREO_COUNT>
0

> <PUBCHEM_BOND_UDEF_STEREO_COUNT>
0

> <PUBCHEM_ISOTOPIC_ATOM_COUNT>
0

> <PUBCHEM_COMPONENT_COUNT>
1

> <PUBCHEM_CACTVS_TAUTO_COUNT>
5

> <PUBCHEM_COORDINATE_TYPE>
1
5
255

> <PUBCHEM_BONDANNOTATIONS>
1  13  8
1  4  8
10  17  8
10  18  8
17  19  8
18  20  8
19  21  8
20  21  8
3  13  8
3  9  8
4  9  8
5  22  3

$$$$

