7846943
  -OEChem-06241222482D

 43 45  0     1  0  0  0  0  0999 V2000
   12.4643   -2.3404    0.0000 S   0  0  0  0  0  0  0  0  0  0  0  0
    4.6783    3.0111    0.0000 S   0  0  0  0  0  0  0  0  0  0  0  0
   12.9643   -3.2064    0.0000 O   0  0  0  0  0  0  0  0  0  0  0  0
   13.4425   -2.1325    0.0000 O   0  0  0  0  0  0  0  0  0  0  0  0
    8.2619    0.4744    0.0000 O   0  0  0  0  0  0  0  0  0  0  0  0
    9.2619   -1.2577    0.0000 O   0  0  0  0  0  0  0  0  0  0  0  0
    8.2619    2.2064    0.0000 O   0  0  0  0  0  0  0  0  0  0  0  0
   10.7619   -0.3917    0.0000 N   0  0  0  0  0  0  0  0  0  0  0  0
    4.6783    1.4017    0.0000 N   0  0  0  0  0  0  0  0  0  0  0  0
   11.2619   -1.2577    0.0000 C   0  0  2  0  0  0  0  0  0  0  0  0
   12.2564   -1.3622    0.0000 C   0  0  0  0  0  0  0  0  0  0  0  0
   10.8551   -2.1712    0.0000 C   0  0  0  0  0  0  0  0  0  0  0  0
   11.5983   -2.8404    0.0000 C   0  0  0  0  0  0  0  0  0  0  0  0
    9.7619   -0.3917    0.0000 C   0  0  0  0  0  0  0  0  0  0  0  0
    9.2619    0.4744    0.0000 C   0  0  0  0  0  0  0  0  0  0  0  0
    6.7619    1.3404    0.0000 C   0  0  0  0  0  0  0  0  0  0  0  0
    6.2619    2.2064    0.0000 C   0  0  0  0  0  0  0  0  0  0  0  0
    7.7619    1.3404    0.0000 C   0  0  0  0  0  0  0  0  0  0  0  0
    5.2619    2.2064    0.0000 C   0  0  0  0  0  0  0  0  0  0  0  0
    3.7320    2.7064    0.0000 C   0  0  0  0  0  0  0  0  0  0  0  0
    3.7320    1.7064    0.0000 C   0  0  0  0  0  0  0  0  0  0  0  0
    2.8660    3.2064    0.0000 C   0  0  0  0  0  0  0  0  0  0  0  0
    2.8660    1.2064    0.0000 C   0  0  0  0  0  0  0  0  0  0  0  0
    2.0000    2.7064    0.0000 C   0  0  0  0  0  0  0  0  0  0  0  0
    2.0000    1.7064    0.0000 C   0  0  0  0  0  0  0  0  0  0  0  0
   11.5996   -0.7377    0.0000 H   0  0  0  0  0  0  0  0  0  0  0  0
   12.8730   -1.2974    0.0000 H   0  0  0  0  0  0  0  0  0  0  0  0
   12.2564   -0.7422    0.0000 H   0  0  0  0  0  0  0  0  0  0  0  0
   10.3182   -1.8612    0.0000 H   0  0  0  0  0  0  0  0  0  0  0  0
   10.4907   -2.6728    0.0000 H   0  0  0  0  0  0  0  0  0  0  0  0
   11.1375   -3.2552    0.0000 H   0  0  0  0  0  0  0  0  0  0  0  0
   11.9627   -3.3420    0.0000 H   0  0  0  0  0  0  0  0  0  0  0  0
   11.0719    0.1453    0.0000 H   0  0  0  0  0  0  0  0  0  0  0  0
    9.8445    0.6864    0.0000 H   0  0  0  0  0  0  0  0  0  0  0  0
    9.1542    1.0849    0.0000 H   0  0  0  0  0  0  0  0  0  0  0  0
    6.1793    1.1283    0.0000 H   0  0  0  0  0  0  0  0  0  0  0  0
    6.8695    0.7298    0.0000 H   0  0  0  0  0  0  0  0  0  0  0  0
    6.8445    2.4184    0.0000 H   0  0  0  0  0  0  0  0  0  0  0  0
    6.1542    2.8170    0.0000 H   0  0  0  0  0  0  0  0  0  0  0  0
    2.8660    3.8264    0.0000 H   0  0  0  0  0  0  0  0  0  0  0  0
    2.8660    0.5864    0.0000 H   0  0  0  0  0  0  0  0  0  0  0  0
    1.4631    3.0164    0.0000 H   0  0  0  0  0  0  0  0  0  0  0  0
    1.4631    1.3964    0.0000 H   0  0  0  0  0  0  0  0  0  0  0  0
  1  3  2  0  0  0  0
  1  4  2  0  0  0  0
  1 11  1  0  0  0  0
  1 13  1  0  0  0  0
  2 19  1  0  0  0  0
  2 20  1  0  0  0  0
  5 15  1  0  0  0  0
  5 18  1  0  0  0  0
  6 14  2  0  0  0  0
  7 18  2  0  0  0  0
 10  8  1  6  0  0  0
  8 14  1  0  0  0  0
  8 33  1  0  0  0  0
  9 19  2  0  0  0  0
  9 21  1  0  0  0  0
 10 11  1  0  0  0  0
 10 12  1  0  0  0  0
 10 26  1  0  0  0  0
 11 27  1  0  0  0  0
 11 28  1  0  0  0  0
 12 13  1  0  0  0  0
 12 29  1  0  0  0  0
 12 30  1  0  0  0  0
 13 31  1  0  0  0  0
 13 32  1  0  0  0  0
 14 15  1  0  0  0  0
 15 34  1  0  0  0  0
 15 35  1  0  0  0  0
 16 17  1  0  0  0  0
 16 18  1  0  0  0  0
 16 36  1  0  0  0  0
 16 37  1  0  0  0  0
 17 19  1  0  0  0  0
 17 38  1  0  0  0  0
 17 39  1  0  0  0  0
 20 21  1  0  0  0  0
 20 22  2  0  0  0  0
 21 23  2  0  0  0  0
 22 24  1  0  0  0  0
 22 40  1  0  0  0  0
 23 25  1  0  0  0  0
 23 41  1  0  0  0  0
 24 25  2  0  0  0  0
 24 42  1  0  0  0  0
 25 43  1  0  0  0  0
M  END
> <PUBCHEM_COMPOUND_CID>
7846943

> <PUBCHEM_COMPOUND_CANONICALIZED>
1

> <PUBCHEM_CACTVS_COMPLEXITY>
604

> <PUBCHEM_CACTVS_HBOND_ACCEPTOR>
7

> <PUBCHEM_CACTVS_HBOND_DONOR>
1

> <PUBCHEM_CACTVS_ROTATABLE_BOND>
7

> <PUBCHEM_CACTVS_SUBSKEYS>
AAADceB7OABgAAAAAAAAAAAAAAAAAWJAAAAwAAAAAAAAAFgB8AAAHgQQAAAACCjl1gawybLIFAqsASXyXHLD8KBhCjhImL14ZJgKILLgkZWHIAhklgD4yAc0AAAAAAAAAAAAAQAAAAAAAAACAAAAAAAAAA==

> <PUBCHEM_IUPAC_OPENEYE_NAME>
[2-[[(3S)-1,1-dioxothiolan-3-yl]amino]-2-oxo-ethyl] 3-(1,3-benzothiazol-2-yl)propanoate

> <PUBCHEM_IUPAC_CAS_NAME>
3-(1,3-benzothiazol-2-yl)propanoic acid [2-[[(3S)-1,1-dioxo-3-thiolanyl]amino]-2-oxoethyl] ester

> <PUBCHEM_IUPAC_NAME>
[2-[[(3S)-1,1-dioxothiolan-3-yl]amino]-2-oxoethyl] 3-(1,3-benzothiazol-2-yl)propanoate

> <PUBCHEM_IUPAC_SYSTEMATIC_NAME>
[2-[[(3S)-1,1-bis(oxidanylidene)thiolan-3-yl]amino]-2-oxidanylidene-ethyl] 3-(1,3-benzothiazol-2-yl)propanoate

> <PUBCHEM_IUPAC_TRADITIONAL_NAME>
3-(1,3-benzothiazol-2-yl)propionic acid [2-[[(3S)-1,1-diketothiolan-3-yl]amino]-2-keto-ethyl] ester

> <PUBCHEM_IUPAC_INCHI>
InChI=1S/C16H18N2O5S2/c19-14(17-11-7-8-25(21,22)10-11)9-23-16(20)6-5-15-18-12-3-1-2-4-13(12)24-15/h1-4,11H,5-10H2,(H,17,19)/t11-/m0/s1

> <PUBCHEM_IUPAC_INCHIKEY>
XMXXFQBNLPHLLA-NSHDSACASA-N

> <PUBCHEM_XLOGP3_AA>
1.4

> <PUBCHEM_EXACT_MASS>
382.065714

> <PUBCHEM_MOLECULAR_FORMULA>
C16H18N2O5S2

> <PUBCHEM_MOLECULAR_WEIGHT>
382.45452

> <PUBCHEM_OPENEYE_CAN_SMILES>
C1CS(=O)(=O)CC1NC(=O)COC(=O)CCC2=NC3=CC=CC=C3S2

> <PUBCHEM_OPENEYE_ISO_SMILES>
C1CS(=O)(=O)C[C@H]1NC(=O)COC(=O)CCC2=NC3=CC=CC=C3S2

> <PUBCHEM_CACTVS_TPSA>
139

> <PUBCHEM_MONOISOTOPIC_WEIGHT>
382.065714

> <PUBCHEM_TOTAL_CHARGE>
0

> <PUBCHEM_HEAVY_ATOM_COUNT>
25

> <PUBCHEM_ATOM_DEF_STEREO_COUNT>
1

> <PUBCHEM_ATOM_UDEF_STEREO_COUNT>
0

> <PUBCHEM_BOND_DEF_STEREO_COUNT>
0

> <PUBCHEM_BOND_UDEF_STEREO_COUNT>
0

> <PUBCHEM_ISOTOPIC_ATOM_COUNT>
0

> <PUBCHEM_COMPONENT_COUNT>
1

> <PUBCHEM_CACTVS_TAUTO_COUNT>
4

> <PUBCHEM_COORDINATE_TYPE>
1
5
255

> <PUBCHEM_BONDANNOTATIONS>
2  19  8
2  20  8
20  21  8
20  22  8
21  23  8
22  24  8
23  25  8
24  25  8
10  8  6
9  19  8
9  21  8

$$$$

