13883
  -OEChem-06241222402D

 18 19  0     0  0  0  0  0  0999 V2000
    5.0780    1.3184    0.0000 O   0  0  0  0  0  0  0  0  0  0  0  0
    2.5369   -0.2694    0.0000 O   0  0  0  0  0  0  0  0  0  0  0  0
    3.4600    1.3184    0.0000 N   0  0  0  0  0  0  0  0  0  0  0  0
    3.7690    2.2694    0.0000 N   0  0  0  0  0  0  0  0  0  0  0  0
    4.2690   -0.2694    0.0000 C   0  0  0  0  0  0  0  0  0  0  0  0
    3.4030   -0.7694    0.0000 C   0  0  0  0  0  0  0  0  0  0  0  0
    5.1350   -0.7694    0.0000 C   0  0  0  0  0  0  0  0  0  0  0  0
    4.2690    0.7306    0.0000 C   0  0  0  0  0  0  0  0  0  0  0  0
    3.4030   -1.7694    0.0000 C   0  0  0  0  0  0  0  0  0  0  0  0
    5.1350   -1.7694    0.0000 C   0  0  0  0  0  0  0  0  0  0  0  0
    4.2690   -2.2694    0.0000 C   0  0  0  0  0  0  0  0  0  0  0  0
    4.7690    2.2694    0.0000 C   0  0  0  0  0  0  0  0  0  0  0  0
    5.6719   -0.4594    0.0000 H   0  0  0  0  0  0  0  0  0  0  0  0
    2.8660   -2.0794    0.0000 H   0  0  0  0  0  0  0  0  0  0  0  0
    5.6719   -2.0794    0.0000 H   0  0  0  0  0  0  0  0  0  0  0  0
    4.2690   -2.8894    0.0000 H   0  0  0  0  0  0  0  0  0  0  0  0
    5.1334    2.7710    0.0000 H   0  0  0  0  0  0  0  0  0  0  0  0
    2.0000   -0.5794    0.0000 H   0  0  0  0  0  0  0  0  0  0  0  0
  1  8  1  0  0  0  0
  1 12  1  0  0  0  0
  2  6  1  0  0  0  0
  2 18  1  0  0  0  0
  3  4  1  0  0  0  0
  3  8  2  0  0  0  0
  4 12  2  0  0  0  0
  5  6  1  0  0  0  0
  5  7  2  0  0  0  0
  5  8  1  0  0  0  0
  6  9  2  0  0  0  0
  7 10  1  0  0  0  0
  7 13  1  0  0  0  0
  9 11  1  0  0  0  0
  9 14  1  0  0  0  0
 10 11  2  0  0  0  0
 10 15  1  0  0  0  0
 11 16  1  0  0  0  0
 12 17  1  0  0  0  0
M  END
> <PUBCHEM_COMPOUND_CID>
13883

> <PUBCHEM_COMPOUND_CANONICALIZED>
1

> <PUBCHEM_CACTVS_COMPLEXITY>
154

> <PUBCHEM_CACTVS_HBOND_ACCEPTOR>
4

> <PUBCHEM_CACTVS_HBOND_DONOR>
1

> <PUBCHEM_CACTVS_ROTATABLE_BOND>
1

> <PUBCHEM_CACTVS_SUBSKEYS>
AAADcYBzMAAAAAAAAAAAAAAAAAAAAWAAAAAwAAAAAAAAAAABwAAAHgAICAAADASBmgY0BoAABkCqAiFzkACSAAAsoAAaiCEmDNgIJ7aCtRuIcUBn6BEIuYeYyCCOAAAAAAAIAAAAAAAAABAAAAAAAAAAAA==

> <PUBCHEM_IUPAC_OPENEYE_NAME>
2-(1,3,4-oxadiazol-2-yl)phenol

> <PUBCHEM_IUPAC_CAS_NAME>
2-(1,3,4-oxadiazol-2-yl)phenol

> <PUBCHEM_IUPAC_NAME>
2-(1,3,4-oxadiazol-2-yl)phenol

> <PUBCHEM_IUPAC_SYSTEMATIC_NAME>
2-(1,3,4-oxadiazol-2-yl)phenol

> <PUBCHEM_IUPAC_TRADITIONAL_NAME>
2-(1,3,4-oxadiazol-2-yl)phenol

> <PUBCHEM_IUPAC_INCHI>
InChI=1S/C8H6N2O2/c11-7-4-2-1-3-6(7)8-10-9-5-12-8/h1-5,11H

> <PUBCHEM_IUPAC_INCHIKEY>
OINXXHYENYVYPB-UHFFFAOYSA-N

> <PUBCHEM_XLOGP3_AA>
1.1

> <PUBCHEM_EXACT_MASS>
162.042927

> <PUBCHEM_MOLECULAR_FORMULA>
C8H6N2O2

> <PUBCHEM_MOLECULAR_WEIGHT>
162.14544

> <PUBCHEM_OPENEYE_CAN_SMILES>
C1=CC=C(C(=C1)C2=NN=CO2)O

> <PUBCHEM_OPENEYE_ISO_SMILES>
C1=CC=C(C(=C1)C2=NN=CO2)O

> <PUBCHEM_CACTVS_TPSA>
59.2

> <PUBCHEM_MONOISOTOPIC_WEIGHT>
162.042927

> <PUBCHEM_TOTAL_CHARGE>
0

> <PUBCHEM_HEAVY_ATOM_COUNT>
12

> <PUBCHEM_ATOM_DEF_STEREO_COUNT>
0

> <PUBCHEM_ATOM_UDEF_STEREO_COUNT>
0

> <PUBCHEM_BOND_DEF_STEREO_COUNT>
0

> <PUBCHEM_BOND_UDEF_STEREO_COUNT>
0

> <PUBCHEM_ISOTOPIC_ATOM_COUNT>
0

> <PUBCHEM_COMPONENT_COUNT>
1

> <PUBCHEM_CACTVS_TAUTO_COUNT>
4

> <PUBCHEM_COORDINATE_TYPE>
1
5
255

> <PUBCHEM_BONDANNOTATIONS>
1  12  8
1  8  8
10  11  8
3  4  8
3  8  8
4  12  8
5  6  8
5  7  8
6  9  8
7  10  8
9  11  8

$$$$

