17395434
  -OEChem-06241222502D

 34 36  0     1  0  0  0  0  0999 V2000
    6.5943    1.5933    0.0000 O   0  0  0  0  0  0  0  0  0  0  0  0
    3.0934    1.9612    0.0000 O   0  0  0  0  0  0  0  0  0  0  0  0
    4.8535   -1.0873    0.0000 O   0  0  0  0  0  0  0  0  0  0  0  0
    3.7320    0.2976    0.0000 N   0  0  0  0  0  0  0  0  0  0  0  0
    5.3147    0.6340    0.0000 N   0  0  0  0  0  0  0  0  0  0  0  0
    4.8147    1.5000    0.0000 C   0  0  3  0  0  0  0  0  0  0  0  0
    3.8366    1.2921    0.0000 C   0  0  0  0  0  0  0  0  0  0  0  0
    5.6808    2.0000    0.0000 C   0  0  0  0  0  0  0  0  0  0  0  0
    4.6068    2.4782    0.0000 C   0  0  0  0  0  0  0  0  0  0  0  0
    4.6456   -0.1092    0.0000 C   0  0  0  0  0  0  0  0  0  0  0  0
    2.8660   -0.2024    0.0000 C   0  0  0  0  0  0  0  0  0  0  0  0
    5.7853    2.9945    0.0000 C   0  0  0  0  0  0  0  0  0  0  0  0
    2.8660   -1.2024    0.0000 C   0  0  0  0  0  0  0  0  0  0  0  0
    6.7634    3.2024    0.0000 C   0  0  0  0  0  0  0  0  0  0  0  0
    7.2634    2.3364    0.0000 C   0  0  0  0  0  0  0  0  0  0  0  0
    2.0000   -1.7024    0.0000 C   0  0  0  0  0  0  0  0  0  0  0  0
    3.7320   -1.7024    0.0000 C   0  0  0  0  0  0  0  0  0  0  0  0
    2.0000   -2.7024    0.0000 C   0  0  0  0  0  0  0  0  0  0  0  0
    3.7320   -2.7024    0.0000 C   0  0  0  0  0  0  0  0  0  0  0  0
    2.8660   -3.2024    0.0000 C   0  0  0  0  0  0  0  0  0  0  0  0
    5.9313    0.5692    0.0000 H   0  0  0  0  0  0  0  0  0  0  0  0
    5.2133    2.6070    0.0000 H   0  0  0  0  0  0  0  0  0  0  0  0
    4.4779    3.0846    0.0000 H   0  0  0  0  0  0  0  0  0  0  0  0
    4.0004    2.3492    0.0000 H   0  0  0  0  0  0  0  0  0  0  0  0
    2.6540    0.3802    0.0000 H   0  0  0  0  0  0  0  0  0  0  0  0
    2.2554   -0.3101    0.0000 H   0  0  0  0  0  0  0  0  0  0  0  0
    5.3245    3.4094    0.0000 H   0  0  0  0  0  0  0  0  0  0  0  0
    7.0156    3.7688    0.0000 H   0  0  0  0  0  0  0  0  0  0  0  0
    7.8800    2.2716    0.0000 H   0  0  0  0  0  0  0  0  0  0  0  0
    1.4631   -1.3924    0.0000 H   0  0  0  0  0  0  0  0  0  0  0  0
    4.2690   -1.3924    0.0000 H   0  0  0  0  0  0  0  0  0  0  0  0
    1.4631   -3.0124    0.0000 H   0  0  0  0  0  0  0  0  0  0  0  0
    4.2690   -3.0124    0.0000 H   0  0  0  0  0  0  0  0  0  0  0  0
    2.8660   -3.8224    0.0000 H   0  0  0  0  0  0  0  0  0  0  0  0
  1  8  1  0  0  0  0
  1 15  1  0  0  0  0
  2  7  2  0  0  0  0
  3 10  2  0  0  0  0
  4  7  1  0  0  0  0
  4 10  1  0  0  0  0
  4 11  1  0  0  0  0
  5  6  1  0  0  0  0
  5 10  1  0  0  0  0
  5 21  1  0  0  0  0
  6  7  1  0  0  0  0
  6  8  1  0  0  0  0
  6  9  1  0  0  0  0
  8 12  2  0  0  0  0
  9 22  1  0  0  0  0
  9 23  1  0  0  0  0
  9 24  1  0  0  0  0
 11 13  1  0  0  0  0
 11 25  1  0  0  0  0
 11 26  1  0  0  0  0
 12 14  1  0  0  0  0
 12 27  1  0  0  0  0
 13 16  2  0  0  0  0
 13 17  1  0  0  0  0
 14 15  2  0  0  0  0
 14 28  1  0  0  0  0
 15 29  1  0  0  0  0
 16 18  1  0  0  0  0
 16 30  1  0  0  0  0
 17 19  2  0  0  0  0
 17 31  1  0  0  0  0
 18 20  2  0  0  0  0
 18 32  1  0  0  0  0
 19 20  1  0  0  0  0
 19 33  1  0  0  0  0
 20 34  1  0  0  0  0
M  END
> <PUBCHEM_COMPOUND_CID>
17395434

> <PUBCHEM_COMPOUND_CANONICALIZED>
1

> <PUBCHEM_CACTVS_COMPLEXITY>
406

> <PUBCHEM_CACTVS_HBOND_ACCEPTOR>
3

> <PUBCHEM_CACTVS_HBOND_DONOR>
1

> <PUBCHEM_CACTVS_ROTATABLE_BOND>
3

> <PUBCHEM_CACTVS_SUBSKEYS>
AAADccBzMAAAAAAAAAAAAAAAAAAAAWJAAAAwAAAAAAAAAAABwAAAHgAQAAAADIzhmAYzBIPABECIAqlSkACCCAAkIAAIiAGODMiOZj6MtTuXOSju9zOYqYeY2RMeAAAAAAAAAAAAAAAAAAAAAAAAAAAAAA==

> <PUBCHEM_IUPAC_OPENEYE_NAME>
3-benzyl-5-(2-furyl)-5-methyl-imidazolidine-2,4-dione

> <PUBCHEM_IUPAC_CAS_NAME>
5-(2-furanyl)-5-methyl-3-(phenylmethyl)imidazolidine-2,4-dione

> <PUBCHEM_IUPAC_NAME>
3-benzyl-5-(furan-2-yl)-5-methylimidazolidine-2,4-dione

> <PUBCHEM_IUPAC_SYSTEMATIC_NAME>
5-(furan-2-yl)-5-methyl-3-(phenylmethyl)imidazolidine-2,4-dione

> <PUBCHEM_IUPAC_TRADITIONAL_NAME>
3-benzyl-5-(2-furyl)-5-methyl-hydantoin

> <PUBCHEM_IUPAC_INCHI>
InChI=1S/C15H14N2O3/c1-15(12-8-5-9-20-12)13(18)17(14(19)16-15)10-11-6-3-2-4-7-11/h2-9H,10H2,1H3,(H,16,19)

> <PUBCHEM_IUPAC_INCHIKEY>
UHNYFDMMBQTAIS-UHFFFAOYSA-N

> <PUBCHEM_XLOGP3_AA>
1.6

> <PUBCHEM_EXACT_MASS>
270.100442

> <PUBCHEM_MOLECULAR_FORMULA>
C15H14N2O3

> <PUBCHEM_MOLECULAR_WEIGHT>
270.28326

> <PUBCHEM_OPENEYE_CAN_SMILES>
CC1(C(=O)N(C(=O)N1)CC2=CC=CC=C2)C3=CC=CO3

> <PUBCHEM_OPENEYE_ISO_SMILES>
CC1(C(=O)N(C(=O)N1)CC2=CC=CC=C2)C3=CC=CO3

> <PUBCHEM_CACTVS_TPSA>
62.6

> <PUBCHEM_MONOISOTOPIC_WEIGHT>
270.100442

> <PUBCHEM_TOTAL_CHARGE>
0

> <PUBCHEM_HEAVY_ATOM_COUNT>
20

> <PUBCHEM_ATOM_DEF_STEREO_COUNT>
0

> <PUBCHEM_ATOM_UDEF_STEREO_COUNT>
1

> <PUBCHEM_BOND_DEF_STEREO_COUNT>
0

> <PUBCHEM_BOND_UDEF_STEREO_COUNT>
0

> <PUBCHEM_ISOTOPIC_ATOM_COUNT>
0

> <PUBCHEM_COMPONENT_COUNT>
1

> <PUBCHEM_CACTVS_TAUTO_COUNT>
2

> <PUBCHEM_COORDINATE_TYPE>
1
5
255

> <PUBCHEM_BONDANNOTATIONS>
1  15  8
1  8  8
12  14  8
13  16  8
13  17  8
14  15  8
16  18  8
17  19  8
18  20  8
19  20  8
6  9  3
8  12  8

$$$$

