586168
  -OEChem-06241222452D

 38 38  0     0  0  0  0  0  0999 V2000
   10.5369   -0.6644    0.0000 O   0  0  0  0  0  0  0  0  0  0  0  0
    2.9511    1.3638    0.0000 O   0  0  0  0  0  0  0  0  0  0  0  0
    3.4863   -0.2835    0.0000 O   0  0  0  0  0  0  0  0  0  0  0  0
   12.5049   -1.3638    0.0000 O   0  0  0  0  0  0  0  0  0  0  0  0
    7.0826   -0.0255    0.0000 C   0  0  0  0  0  0  0  0  0  0  0  0
    6.3395    0.6436    0.0000 C   0  0  0  0  0  0  0  0  0  0  0  0
    8.0337    0.2835    0.0000 C   0  0  0  0  0  0  0  0  0  0  0  0
    5.3884    0.3346    0.0000 C   0  0  0  0  0  0  0  0  0  0  0  0
    8.7768   -0.3857    0.0000 C   0  0  0  0  0  0  0  0  0  0  0  0
    4.6453    1.0037    0.0000 C   0  0  0  0  0  0  0  0  0  0  0  0
    9.7279   -0.0766    0.0000 C   0  0  0  0  0  0  0  0  0  0  0  0
   10.0369    0.8744    0.0000 C   0  0  0  0  0  0  0  0  0  0  0  0
    3.6942    0.6947    0.0000 C   0  0  0  0  0  0  0  0  0  0  0  0
   11.3459   -0.0766    0.0000 C   0  0  0  0  0  0  0  0  0  0  0  0
   11.0369    0.8744    0.0000 C   0  0  0  0  0  0  0  0  0  0  0  0
   12.2970   -0.3857    0.0000 C   0  0  0  0  0  0  0  0  0  0  0  0
   13.0401    0.2835    0.0000 C   0  0  0  0  0  0  0  0  0  0  0  0
    2.0000    1.0548    0.0000 C   0  0  0  0  0  0  0  0  0  0  0  0
    6.5940   -0.4073    0.0000 H   0  0  0  0  0  0  0  0  0  0  0  0
    7.3737   -0.5730    0.0000 H   0  0  0  0  0  0  0  0  0  0  0  0
    6.8280    1.0253    0.0000 H   0  0  0  0  0  0  0  0  0  0  0  0
    6.0484    1.1910    0.0000 H   0  0  0  0  0  0  0  0  0  0  0  0
    8.5222    0.6652    0.0000 H   0  0  0  0  0  0  0  0  0  0  0  0
    7.7426    0.8309    0.0000 H   0  0  0  0  0  0  0  0  0  0  0  0
    4.8998   -0.0471    0.0000 H   0  0  0  0  0  0  0  0  0  0  0  0
    5.6795   -0.2129    0.0000 H   0  0  0  0  0  0  0  0  0  0  0  0
    8.2882   -0.7674    0.0000 H   0  0  0  0  0  0  0  0  0  0  0  0
    9.0679   -0.9331    0.0000 H   0  0  0  0  0  0  0  0  0  0  0  0
    5.1338    1.3854    0.0000 H   0  0  0  0  0  0  0  0  0  0  0  0
    4.3542    1.5511    0.0000 H   0  0  0  0  0  0  0  0  0  0  0  0
    9.6724    1.3760    0.0000 H   0  0  0  0  0  0  0  0  0  0  0  0
   11.4013    1.3760    0.0000 H   0  0  0  0  0  0  0  0  0  0  0  0
   13.4550   -0.1773    0.0000 H   0  0  0  0  0  0  0  0  0  0  0  0
   13.5008    0.6983    0.0000 H   0  0  0  0  0  0  0  0  0  0  0  0
   12.6252    0.7442    0.0000 H   0  0  0  0  0  0  0  0  0  0  0  0
    1.8084    1.6444    0.0000 H   0  0  0  0  0  0  0  0  0  0  0  0
    1.4103    0.8632    0.0000 H   0  0  0  0  0  0  0  0  0  0  0  0
    2.1916    0.4651    0.0000 H   0  0  0  0  0  0  0  0  0  0  0  0
  1 11  1  0  0  0  0
  1 14  1  0  0  0  0
  2 13  1  0  0  0  0
  2 18  1  0  0  0  0
  3 13  2  0  0  0  0
  4 16  2  0  0  0  0
  5  6  1  0  0  0  0
  5  7  1  0  0  0  0
  5 19  1  0  0  0  0
  5 20  1  0  0  0  0
  6  8  1  0  0  0  0
  6 21  1  0  0  0  0
  6 22  1  0  0  0  0
  7  9  1  0  0  0  0
  7 23  1  0  0  0  0
  7 24  1  0  0  0  0
  8 10  1  0  0  0  0
  8 25  1  0  0  0  0
  8 26  1  0  0  0  0
  9 11  1  0  0  0  0
  9 27  1  0  0  0  0
  9 28  1  0  0  0  0
 10 13  1  0  0  0  0
 10 29  1  0  0  0  0
 10 30  1  0  0  0  0
 11 12  2  0  0  0  0
 12 15  1  0  0  0  0
 12 31  1  0  0  0  0
 14 15  2  0  0  0  0
 14 16  1  0  0  0  0
 15 32  1  0  0  0  0
 16 17  1  0  0  0  0
 17 33  1  0  0  0  0
 17 34  1  0  0  0  0
 17 35  1  0  0  0  0
 18 36  1  0  0  0  0
 18 37  1  0  0  0  0
 18 38  1  0  0  0  0
M  END
> <PUBCHEM_COMPOUND_CID>
586168

> <PUBCHEM_COMPOUND_CANONICALIZED>
1

> <PUBCHEM_CACTVS_COMPLEXITY>
275

> <PUBCHEM_CACTVS_HBOND_ACCEPTOR>
4

> <PUBCHEM_CACTVS_HBOND_DONOR>
0

> <PUBCHEM_CACTVS_ROTATABLE_BOND>
9

> <PUBCHEM_CACTVS_SUBSKEYS>
AAADceBwOAAAAAAAAAAAAAAAAAAAASAAAAAAAAAAAAAAAAABgAAAGgAAAAAACASAkAIyDIAABECIAKDSCAICCAAkIAAIiAFGCMgMJjKENR6CGSCkwBEIqYeIzqDgAAAAAAAAAAAAAAAAAAAAAAAAAAAAAA==

> <PUBCHEM_IUPAC_OPENEYE_NAME>
methyl 7-(5-acetyl-2-furyl)heptanoate

> <PUBCHEM_IUPAC_CAS_NAME>
7-(5-acetyl-2-furanyl)heptanoic acid methyl ester

> <PUBCHEM_IUPAC_NAME>
methyl 7-(5-acetylfuran-2-yl)heptanoate

> <PUBCHEM_IUPAC_SYSTEMATIC_NAME>
methyl 7-(5-ethanoylfuran-2-yl)heptanoate

> <PUBCHEM_IUPAC_TRADITIONAL_NAME>
7-(5-acetyl-2-furyl)enanthic acid methyl ester

> <PUBCHEM_IUPAC_INCHI>
InChI=1S/C14H20O4/c1-11(15)13-10-9-12(18-13)7-5-3-4-6-8-14(16)17-2/h9-10H,3-8H2,1-2H3

> <PUBCHEM_IUPAC_INCHIKEY>
UVSGENBQFRIFOJ-UHFFFAOYSA-N

> <PUBCHEM_XLOGP3_AA>
2.9

> <PUBCHEM_EXACT_MASS>
252.136159

> <PUBCHEM_MOLECULAR_FORMULA>
C14H20O4

> <PUBCHEM_MOLECULAR_WEIGHT>
252.3062

> <PUBCHEM_OPENEYE_CAN_SMILES>
CC(=O)C1=CC=C(O1)CCCCCCC(=O)OC

> <PUBCHEM_OPENEYE_ISO_SMILES>
CC(=O)C1=CC=C(O1)CCCCCCC(=O)OC

> <PUBCHEM_CACTVS_TPSA>
56.5

> <PUBCHEM_MONOISOTOPIC_WEIGHT>
252.136159

> <PUBCHEM_TOTAL_CHARGE>
0

> <PUBCHEM_HEAVY_ATOM_COUNT>
18

> <PUBCHEM_ATOM_DEF_STEREO_COUNT>
0

> <PUBCHEM_ATOM_UDEF_STEREO_COUNT>
0

> <PUBCHEM_BOND_DEF_STEREO_COUNT>
0

> <PUBCHEM_BOND_UDEF_STEREO_COUNT>
0

> <PUBCHEM_ISOTOPIC_ATOM_COUNT>
0

> <PUBCHEM_COMPONENT_COUNT>
1

> <PUBCHEM_CACTVS_TAUTO_COUNT>
7

> <PUBCHEM_COORDINATE_TYPE>
1
5
255

> <PUBCHEM_BONDANNOTATIONS>
1  11  8
1  14  8
11  12  8
12  15  8
14  15  8

$$$$

