4100
  -OEChem-06251223532D

 22 22  0     0  0  0  0  0  0999 V2000
    3.2044    0.9862    0.0000 S   0  0  0  0  0  0  0  0  0  0  0  0
    4.7922    0.1772    0.0000 S   0  0  0  0  0  0  0  0  0  0  0  0
    4.0134    1.5740    0.0000 O   0  0  0  0  0  0  0  0  0  0  0  0
    2.3954    0.3984    0.0000 O   0  0  0  0  0  0  0  0  0  0  0  0
    6.5875    0.5644    0.0000 O   0  0  0  0  0  0  0  0  0  0  0  0
    4.2922   -1.3616    0.0000 N   0  0  0  0  0  0  0  0  0  0  0  0
    3.4832   -0.7739    0.0000 N   0  0  0  0  0  0  0  0  0  0  0  0
    2.6166    1.7952    0.0000 N   0  0  0  0  0  0  0  0  0  0  0  0
    6.0522   -1.0829    0.0000 N   0  0  0  0  0  0  0  0  0  0  0  0
    3.7922    0.1772    0.0000 C   0  0  0  0  0  0  0  0  0  0  0  0
    5.1012   -0.7739    0.0000 C   0  0  0  0  0  0  0  0  0  0  0  0
    4.2922   -2.3616    0.0000 C   0  0  0  0  0  0  0  0  0  0  0  0
    6.7954   -0.4137    0.0000 C   0  0  0  0  0  0  0  0  0  0  0  0
    7.7464   -0.7228    0.0000 C   0  0  0  0  0  0  0  0  0  0  0  0
    3.6722   -2.3616    0.0000 H   0  0  0  0  0  0  0  0  0  0  0  0
    4.2922   -2.9816    0.0000 H   0  0  0  0  0  0  0  0  0  0  0  0
    4.9122   -2.3616    0.0000 H   0  0  0  0  0  0  0  0  0  0  0  0
    2.0000    1.7304    0.0000 H   0  0  0  0  0  0  0  0  0  0  0  0
    2.8688    2.3616    0.0000 H   0  0  0  0  0  0  0  0  0  0  0  0
    7.5549   -1.3124    0.0000 H   0  0  0  0  0  0  0  0  0  0  0  0
    8.3361   -0.9143    0.0000 H   0  0  0  0  0  0  0  0  0  0  0  0
    7.9380   -0.1331    0.0000 H   0  0  0  0  0  0  0  0  0  0  0  0
  1  3  2  0  0  0  0
  1  4  2  0  0  0  0
  1  8  1  0  0  0  0
  1 10  1  0  0  0  0
  2 10  1  0  0  0  0
  2 11  1  0  0  0  0
  5 13  2  0  0  0  0
  6  7  1  0  0  0  0
  6 11  1  0  0  0  0
  6 12  1  0  0  0  0
  7 10  2  0  0  0  0
  8 18  1  0  0  0  0
  8 19  1  0  0  0  0
  9 11  2  0  0  0  0
  9 13  1  0  0  0  0
 12 15  1  0  0  0  0
 12 16  1  0  0  0  0
 12 17  1  0  0  0  0
 13 14  1  0  0  0  0
 14 20  1  0  0  0  0
 14 21  1  0  0  0  0
 14 22  1  0  0  0  0
M  END
> <PUBCHEM_COMPOUND_CID>
4100

> <PUBCHEM_COMPOUND_CANONICALIZED>
1

> <PUBCHEM_CACTVS_COMPLEXITY>
419

> <PUBCHEM_CACTVS_HBOND_ACCEPTOR>
6

> <PUBCHEM_CACTVS_HBOND_DONOR>
1

> <PUBCHEM_CACTVS_ROTATABLE_BOND>
1

> <PUBCHEM_CACTVS_SUBSKEYS>
AAADccBjsABgAAAAAAAAAAAAAAAAAQAAAAAAAAAAAAAAAAAAAAAAHgQYQAAAAACBgAQDAAIAAAooAAEQNHAQEQFAAAABAAAIAAAAAAAAAAAAAAAAAAAAAAAAAAAAAAAAAAAAAAAAAAAAAAAAAAAAAAAAAA==

> <PUBCHEM_IUPAC_OPENEYE_NAME>
N-(3-methyl-5-sulfamoyl-1,3,4-thiadiazol-2-ylidene)acetamide

> <PUBCHEM_IUPAC_CAS_NAME>
N-(3-methyl-5-sulfamoyl-1,3,4-thiadiazol-2-ylidene)acetamide

> <PUBCHEM_IUPAC_NAME>
N-(3-methyl-5-sulfamoyl-1,3,4-thiadiazol-2-ylidene)acetamide

> <PUBCHEM_IUPAC_SYSTEMATIC_NAME>
N-(3-methyl-5-sulfamoyl-1,3,4-thiadiazol-2-ylidene)ethanamide

> <PUBCHEM_IUPAC_TRADITIONAL_NAME>
N-(3-methyl-5-sulfamoyl-1,3,4-thiadiazol-2-ylidene)acetamide

> <PUBCHEM_IUPAC_INCHI>
InChI=1S/C5H8N4O3S2/c1-3(10)7-4-9(2)8-5(13-4)14(6,11)12/h1-2H3,(H2,6,11,12)

> <PUBCHEM_IUPAC_INCHIKEY>
FLOSMHQXBMRNHR-UHFFFAOYSA-N

> <PUBCHEM_XLOGP3>
0.1

> <PUBCHEM_EXACT_MASS>
236.003782

> <PUBCHEM_MOLECULAR_FORMULA>
C5H8N4O3S2

> <PUBCHEM_MOLECULAR_WEIGHT>
236.27202

> <PUBCHEM_OPENEYE_CAN_SMILES>
CC(=O)N=C1N(N=C(S1)S(=O)(=O)N)C

> <PUBCHEM_OPENEYE_ISO_SMILES>
CC(=O)N=C1N(N=C(S1)S(=O)(=O)N)C

> <PUBCHEM_CACTVS_TPSA>
139

> <PUBCHEM_MONOISOTOPIC_WEIGHT>
236.003782

> <PUBCHEM_TOTAL_CHARGE>
0

> <PUBCHEM_HEAVY_ATOM_COUNT>
14

> <PUBCHEM_ATOM_DEF_STEREO_COUNT>
0

> <PUBCHEM_ATOM_UDEF_STEREO_COUNT>
0

> <PUBCHEM_BOND_DEF_STEREO_COUNT>
0

> <PUBCHEM_BOND_UDEF_STEREO_COUNT>
0

> <PUBCHEM_ISOTOPIC_ATOM_COUNT>
0

> <PUBCHEM_COMPONENT_COUNT>
1

> <PUBCHEM_CACTVS_TAUTO_COUNT>
1

> <PUBCHEM_COORDINATE_TYPE>
1
5
255

> <PUBCHEM_BONDANNOTATIONS>
2  10  8
2  11  8
6  11  8
6  7  8
7  10  8

$$$$

