17396510
  -OEChem-06241222572D

 39 41  0     0  0  0  0  0  0999 V2000
   11.5817   -0.5301    0.0000 S   0  0  0  0  0  0  0  0  0  0  0  0
    6.4103   -0.4118    0.0000 O   0  0  0  0  0  0  0  0  0  0  0  0
    2.8660    1.3929    0.0000 O   0  0  0  0  0  0  0  0  0  0  0  0
    8.4939    1.2589    0.0000 O   0  0  0  0  0  0  0  0  0  0  0  0
    8.4939   -0.4731    0.0000 N   0  0  0  0  0  0  0  0  0  0  0  0
    5.4641    0.8929    0.0000 C   0  0  0  0  0  0  0  0  0  0  0  0
    6.4103    1.1976    0.0000 C   0  0  0  0  0  0  0  0  0  0  0  0
    6.9939    0.3929    0.0000 C   0  0  0  0  0  0  0  0  0  0  0  0
    5.4641   -0.1071    0.0000 C   0  0  0  0  0  0  0  0  0  0  0  0
    9.4939   -0.4731    0.0000 C   0  0  0  0  0  0  0  0  0  0  0  0
    9.9939   -1.3391    0.0000 C   0  0  0  0  0  0  0  0  0  0  0  0
    4.5981    1.3929    0.0000 C   0  0  0  0  0  0  0  0  0  0  0  0
    7.9939    0.3929    0.0000 C   0  0  0  0  0  0  0  0  0  0  0  0
    6.7210    2.1482    0.0000 C   0  0  0  0  0  0  0  0  0  0  0  0
    4.5981   -0.6071    0.0000 C   0  0  0  0  0  0  0  0  0  0  0  0
    3.7320    0.8929    0.0000 C   0  0  0  0  0  0  0  0  0  0  0  0
   10.9939   -1.3391    0.0000 C   0  0  0  0  0  0  0  0  0  0  0  0
    3.7320   -0.1071    0.0000 C   0  0  0  0  0  0  0  0  0  0  0  0
   11.5817   -2.1482    0.0000 C   0  0  0  0  0  0  0  0  0  0  0  0
   12.5328   -1.8391    0.0000 C   0  0  0  0  0  0  0  0  0  0  0  0
   12.5328   -0.8391    0.0000 C   0  0  0  0  0  0  0  0  0  0  0  0
    2.0000    0.8929    0.0000 C   0  0  0  0  0  0  0  0  0  0  0  0
   10.0765   -0.2611    0.0000 H   0  0  0  0  0  0  0  0  0  0  0  0
    9.3863    0.1375    0.0000 H   0  0  0  0  0  0  0  0  0  0  0  0
    9.4113   -1.5512    0.0000 H   0  0  0  0  0  0  0  0  0  0  0  0
   10.1016   -1.9497    0.0000 H   0  0  0  0  0  0  0  0  0  0  0  0
    4.5981    2.0129    0.0000 H   0  0  0  0  0  0  0  0  0  0  0  0
    8.1839   -1.0100    0.0000 H   0  0  0  0  0  0  0  0  0  0  0  0
    7.3103    1.9556    0.0000 H   0  0  0  0  0  0  0  0  0  0  0  0
    6.9136    2.7375    0.0000 H   0  0  0  0  0  0  0  0  0  0  0  0
    6.1317    2.3408    0.0000 H   0  0  0  0  0  0  0  0  0  0  0  0
    4.5981   -1.2271    0.0000 H   0  0  0  0  0  0  0  0  0  0  0  0
    3.1951   -0.4171    0.0000 H   0  0  0  0  0  0  0  0  0  0  0  0
   11.3901   -2.7378    0.0000 H   0  0  0  0  0  0  0  0  0  0  0  0
   13.0344   -2.2036    0.0000 H   0  0  0  0  0  0  0  0  0  0  0  0
   13.0344   -0.4747    0.0000 H   0  0  0  0  0  0  0  0  0  0  0  0
    1.6900    1.4298    0.0000 H   0  0  0  0  0  0  0  0  0  0  0  0
    1.4631    0.5829    0.0000 H   0  0  0  0  0  0  0  0  0  0  0  0
    2.3100    0.3560    0.0000 H   0  0  0  0  0  0  0  0  0  0  0  0
  1 17  1  0  0  0  0
  1 21  1  0  0  0  0
  2  8  1  0  0  0  0
  2  9  1  0  0  0  0
  3 16  1  0  0  0  0
  3 22  1  0  0  0  0
  4 13  2  0  0  0  0
  5 10  1  0  0  0  0
  5 13  1  0  0  0  0
  5 28  1  0  0  0  0
  6  7  1  0  0  0  0
  6  9  2  0  0  0  0
  6 12  1  0  0  0  0
  7  8  2  0  0  0  0
  7 14  1  0  0  0  0
  8 13  1  0  0  0  0
  9 15  1  0  0  0  0
 10 11  1  0  0  0  0
 10 23  1  0  0  0  0
 10 24  1  0  0  0  0
 11 17  1  0  0  0  0
 11 25  1  0  0  0  0
 11 26  1  0  0  0  0
 12 16  2  0  0  0  0
 12 27  1  0  0  0  0
 14 29  1  0  0  0  0
 14 30  1  0  0  0  0
 14 31  1  0  0  0  0
 15 18  2  0  0  0  0
 15 32  1  0  0  0  0
 16 18  1  0  0  0  0
 17 19  2  0  0  0  0
 18 33  1  0  0  0  0
 19 20  1  0  0  0  0
 19 34  1  0  0  0  0
 20 21  2  0  0  0  0
 20 35  1  0  0  0  0
 21 36  1  0  0  0  0
 22 37  1  0  0  0  0
 22 38  1  0  0  0  0
 22 39  1  0  0  0  0
M  END
> <PUBCHEM_COMPOUND_CID>
17396510

> <PUBCHEM_COMPOUND_CANONICALIZED>
1

> <PUBCHEM_CACTVS_COMPLEXITY>
392

> <PUBCHEM_CACTVS_HBOND_ACCEPTOR>
4

> <PUBCHEM_CACTVS_HBOND_DONOR>
1

> <PUBCHEM_CACTVS_ROTATABLE_BOND>
5

> <PUBCHEM_CACTVS_SUBSKEYS>
AAADceB6MABAAAAAAAAAAAAAAAAAASJAAAAwAAAAAAAAAEgB/AAAHgQQAAAADATF2AayB8LABEiMAqFSEAKDCIAkKBBIiJnODMgOJjKktT+HOSjk1hG4qYfa//7ugQABAAAIAAACAAIAABAAAAAAAAAAAA==

> <PUBCHEM_IUPAC_OPENEYE_NAME>
5-methoxy-3-methyl-N-[2-(2-thienyl)ethyl]benzofuran-2-carboxamide

> <PUBCHEM_IUPAC_CAS_NAME>
5-methoxy-3-methyl-N-(2-thiophen-2-ylethyl)-2-benzofurancarboxamide

> <PUBCHEM_IUPAC_NAME>
5-methoxy-3-methyl-N-(2-thiophen-2-ylethyl)-1-benzofuran-2-carboxamide

> <PUBCHEM_IUPAC_SYSTEMATIC_NAME>
5-methoxy-3-methyl-N-(2-thiophen-2-ylethyl)-1-benzofuran-2-carboxamide

> <PUBCHEM_IUPAC_TRADITIONAL_NAME>
5-methoxy-3-methyl-N-[2-(2-thienyl)ethyl]coumarilamide

> <PUBCHEM_IUPAC_INCHI>
InChI=1S/C17H17NO3S/c1-11-14-10-12(20-2)5-6-15(14)21-16(11)17(19)18-8-7-13-4-3-9-22-13/h3-6,9-10H,7-8H2,1-2H3,(H,18,19)

> <PUBCHEM_IUPAC_INCHIKEY>
PKELMPDKFBDUDL-UHFFFAOYSA-N

> <PUBCHEM_XLOGP3_AA>
3.9

> <PUBCHEM_EXACT_MASS>
315.092914

> <PUBCHEM_MOLECULAR_FORMULA>
C17H17NO3S

> <PUBCHEM_MOLECULAR_WEIGHT>
315.38678

> <PUBCHEM_OPENEYE_CAN_SMILES>
CC1=C(OC2=C1C=C(C=C2)OC)C(=O)NCCC3=CC=CS3

> <PUBCHEM_OPENEYE_ISO_SMILES>
CC1=C(OC2=C1C=C(C=C2)OC)C(=O)NCCC3=CC=CS3

> <PUBCHEM_CACTVS_TPSA>
79.7

> <PUBCHEM_MONOISOTOPIC_WEIGHT>
315.092914

> <PUBCHEM_TOTAL_CHARGE>
0

> <PUBCHEM_HEAVY_ATOM_COUNT>
22

> <PUBCHEM_ATOM_DEF_STEREO_COUNT>
0

> <PUBCHEM_ATOM_UDEF_STEREO_COUNT>
0

> <PUBCHEM_BOND_DEF_STEREO_COUNT>
0

> <PUBCHEM_BOND_UDEF_STEREO_COUNT>
0

> <PUBCHEM_ISOTOPIC_ATOM_COUNT>
0

> <PUBCHEM_COMPONENT_COUNT>
1

> <PUBCHEM_CACTVS_TAUTO_COUNT>
2

> <PUBCHEM_COORDINATE_TYPE>
1
5
255

> <PUBCHEM_BONDANNOTATIONS>
1  17  8
1  21  8
12  16  8
15  18  8
16  18  8
17  19  8
19  20  8
2  8  8
2  9  8
20  21  8
6  12  8
6  7  8
6  9  8
7  8  8
9  15  8

$$$$

