8980
  -OEChem-06261203172D

 42 42  0     0  0  0  0  0  0999 V2000
    8.2700    3.5785    0.0000 Cl  0  0  0  0  0  0  0  0  0  0  0  0
    2.2690    4.1200    0.0000 O   0  0  0  0  0  0  0  0  0  0  0  0
    1.4030    6.6200    0.0000 N   0  0  0  0  0  0  0  0  0  0  0  0
    3.1350    3.6200    0.0000 C   0  0  0  0  0  0  0  0  0  0  0  0
    3.1350    2.6200    0.0000 C   0  0  0  0  0  0  0  0  0  0  0  0
    4.0010    4.1200    0.0000 C   0  0  0  0  0  0  0  0  0  0  0  0
    2.2690    5.1200    0.0000 C   0  0  0  0  0  0  0  0  0  0  0  0
    1.4030    5.6200    0.0000 C   0  0  0  0  0  0  0  0  0  0  0  0
    4.8671    3.6200    0.0000 C   0  0  0  0  0  0  0  0  0  0  0  0
    2.2690    2.1200    0.0000 C   0  0  0  0  0  0  0  0  0  0  0  0
    4.0010    5.1200    0.0000 C   0  0  0  0  0  0  0  0  0  0  0  0
    4.0010    2.1200    0.0000 C   0  0  0  0  0  0  0  0  0  0  0  0
    0.5369    7.1200    0.0000 C   0  0  0  0  0  0  0  0  0  0  0  0
    2.2690    7.1200    0.0000 C   0  0  0  0  0  0  0  0  0  0  0  0
    2.2690    1.1200    0.0000 C   0  0  0  0  0  0  0  0  0  0  0  0
    5.7331    4.1200    0.0000 C   0  0  0  0  0  0  0  0  0  0  0  0
    4.0010    1.1200    0.0000 C   0  0  0  0  0  0  0  0  0  0  0  0
    4.8671    5.6200    0.0000 C   0  0  0  0  0  0  0  0  0  0  0  0
    3.1350    0.6200    0.0000 C   0  0  0  0  0  0  0  0  0  0  0  0
    5.7331    5.1200    0.0000 C   0  0  0  0  0  0  0  0  0  0  0  0
    3.1350    4.2400    0.0000 H   0  0  0  0  0  0  0  0  0  0  0  0
    2.8796    5.0123    0.0000 H   0  0  0  0  0  0  0  0  0  0  0  0
    2.4810    5.7026    0.0000 H   0  0  0  0  0  0  0  0  0  0  0  0
    0.7924    5.7277    0.0000 H   0  0  0  0  0  0  0  0  0  0  0  0
    1.1909    5.0374    0.0000 H   0  0  0  0  0  0  0  0  0  0  0  0
    1.7320    2.4300    0.0000 H   0  0  0  0  0  0  0  0  0  0  0  0
    4.8671    3.0000    0.0000 H   0  0  0  0  0  0  0  0  0  0  0  0
    4.5380    2.4300    0.0000 H   0  0  0  0  0  0  0  0  0  0  0  0
    3.4641    5.4300    0.0000 H   0  0  0  0  0  0  0  0  0  0  0  0
    2.5790    6.5831    0.0000 H   0  0  0  0  0  0  0  0  0  0  0  0
    2.8059    7.4300    0.0000 H   0  0  0  0  0  0  0  0  0  0  0  0
    1.9590    7.6569    0.0000 H   0  0  0  0  0  0  0  0  0  0  0  0
    0.8469    7.6569    0.0000 H   0  0  0  0  0  0  0  0  0  0  0  0
    0.0000    7.4300    0.0000 H   0  0  0  0  0  0  0  0  0  0  0  0
    0.2269    6.5831    0.0000 H   0  0  0  0  0  0  0  0  0  0  0  0
    1.7320    0.8100    0.0000 H   0  0  0  0  0  0  0  0  0  0  0  0
    6.2700    3.8100    0.0000 H   0  0  0  0  0  0  0  0  0  0  0  0
    4.5380    0.8100    0.0000 H   0  0  0  0  0  0  0  0  0  0  0  0
    4.8671    6.2400    0.0000 H   0  0  0  0  0  0  0  0  0  0  0  0
    3.1350    0.0000    0.0000 H   0  0  0  0  0  0  0  0  0  0  0  0
    6.2700    5.4300    0.0000 H   0  0  0  0  0  0  0  0  0  0  0  0
    9.2700    3.5785    0.0000 H   0  0  0  0  0  0  0  0  0  0  0  0
  1 42  1  0  0  0  0
  2  4  1  0  0  0  0
  2  7  1  0  0  0  0
  3  8  1  0  0  0  0
  3 13  1  0  0  0  0
  3 14  1  0  0  0  0
  4  5  1  0  0  0  0
  4  6  1  0  0  0  0
  4 21  1  0  0  0  0
  5 10  2  0  0  0  0
  5 12  1  0  0  0  0
  6  9  2  0  0  0  0
  6 11  1  0  0  0  0
  7  8  1  0  0  0  0
  7 22  1  0  0  0  0
  7 23  1  0  0  0  0
  8 24  1  0  0  0  0
  8 25  1  0  0  0  0
  9 16  1  0  0  0  0
  9 27  1  0  0  0  0
 10 15  1  0  0  0  0
 10 26  1  0  0  0  0
 11 18  2  0  0  0  0
 11 29  1  0  0  0  0
 12 17  2  0  0  0  0
 12 28  1  0  0  0  0
 13 33  1  0  0  0  0
 13 34  1  0  0  0  0
 13 35  1  0  0  0  0
 14 30  1  0  0  0  0
 14 31  1  0  0  0  0
 14 32  1  0  0  0  0
 15 19  2  0  0  0  0
 15 36  1  0  0  0  0
 16 20  2  0  0  0  0
 16 37  1  0  0  0  0
 17 19  1  0  0  0  0
 17 38  1  0  0  0  0
 18 20  1  0  0  0  0
 18 39  1  0  0  0  0
 19 40  1  0  0  0  0
 20 41  1  0  0  0  0
M  END
> <PUBCHEM_COMPOUND_CID>
8980

> <PUBCHEM_COMPOUND_CANONICALIZED>
1

> <PUBCHEM_CACTVS_COMPLEXITY>
211

> <PUBCHEM_CACTVS_HBOND_ACCEPTOR>
2

> <PUBCHEM_CACTVS_HBOND_DONOR>
1

> <PUBCHEM_CACTVS_ROTATABLE_BOND>
6

> <PUBCHEM_CACTVS_SUBSKEYS>
AAADceB6IAAEAAAAAAAAAAAAAAAAAAAAAAAwYAAAAAAAAAABQAAAHgAAAAAADBThmAYyAIMABACAAiBCAAACAAAgAAAIiAAICIgKJiKAMRiDMAAkwAEYqAeAwOAOAAAAAAAAAAAAAAAAAAAAAAAAAAAAAA==

> <PUBCHEM_IUPAC_OPENEYE_NAME>
2-benzhydryloxy-N,N-dimethyl-ethanamine hydrochloride

> <PUBCHEM_IUPAC_CAS_NAME>
2-(diphenylmethyl)oxy-N,N-dimethylethanamine hydrochloride

> <PUBCHEM_IUPAC_NAME>
2-benzhydryloxy-N,N-dimethylethanamine hydrochloride

> <PUBCHEM_IUPAC_SYSTEMATIC_NAME>
2-(diphenylmethyl)oxy-N,N-dimethyl-ethanamine hydrochloride

> <PUBCHEM_IUPAC_TRADITIONAL_NAME>
2-benzhydryloxyethyl(dimethyl)amine hydrochloride

> <PUBCHEM_IUPAC_INCHI>
InChI=1S/C17H21NO.ClH/c1-18(2)13-14-19-17(15-9-5-3-6-10-15)16-11-7-4-8-12-16;/h3-12,17H,13-14H2,1-2H3;1H

> <PUBCHEM_IUPAC_INCHIKEY>
PCHPORCSPXIHLZ-UHFFFAOYSA-N

> <PUBCHEM_EXACT_MASS>
291.138992

> <PUBCHEM_MOLECULAR_FORMULA>
C17H22ClNO

> <PUBCHEM_MOLECULAR_WEIGHT>
291.81568

> <PUBCHEM_OPENEYE_CAN_SMILES>
CN(C)CCOC(C1=CC=CC=C1)C2=CC=CC=C2.Cl

> <PUBCHEM_OPENEYE_ISO_SMILES>
CN(C)CCOC(C1=CC=CC=C1)C2=CC=CC=C2.Cl

> <PUBCHEM_CACTVS_TPSA>
12.5

> <PUBCHEM_MONOISOTOPIC_WEIGHT>
291.138992

> <PUBCHEM_TOTAL_CHARGE>
0

> <PUBCHEM_HEAVY_ATOM_COUNT>
20

> <PUBCHEM_ATOM_DEF_STEREO_COUNT>
0

> <PUBCHEM_ATOM_UDEF_STEREO_COUNT>
0

> <PUBCHEM_BOND_DEF_STEREO_COUNT>
0

> <PUBCHEM_BOND_UDEF_STEREO_COUNT>
0

> <PUBCHEM_ISOTOPIC_ATOM_COUNT>
0

> <PUBCHEM_COMPONENT_COUNT>
2

> <PUBCHEM_CACTVS_TAUTO_COUNT>
1

> <PUBCHEM_COORDINATE_TYPE>
1
5
255

> <PUBCHEM_BONDANNOTATIONS>
10  15  8
11  18  8
12  17  8
15  19  8
16  20  8
17  19  8
18  20  8
5  10  8
5  12  8
6  11  8
6  9  8
9  16  8

$$$$

