17395698
  -OEChem-06241222512D

 40 41  0     0  0  0  0  0  0999 V2000
    7.5891   -1.0158    0.0000 O   0  0  0  0  0  0  0  0  0  0  0  0
    2.5878    2.2359    0.0000 O   0  0  0  0  0  0  0  0  0  0  0  0
    7.1733    0.9405    0.0000 O   0  0  0  0  0  0  0  0  0  0  0  0
    9.5571   -1.7152    0.0000 O   0  0  0  0  0  0  0  0  0  0  0  0
    3.9890    3.2540    0.0000 O   0  0  0  0  0  0  0  0  0  0  0  0
    7.0539   -2.6631    0.0000 O   0  0  0  0  0  0  0  0  0  0  0  0
    4.6701   -0.0074    0.0000 N   0  0  0  0  0  0  0  0  0  0  0  0
    5.1701    1.5314    0.0000 C   0  0  0  0  0  0  0  0  0  0  0  0
    5.4791    0.5804    0.0000 C   0  0  0  0  0  0  0  0  0  0  0  0
    4.1701    1.5314    0.0000 C   0  0  0  0  0  0  0  0  0  0  0  0
    3.8611    0.5804    0.0000 C   0  0  0  0  0  0  0  0  0  0  0  0
    6.4302    0.2714    0.0000 C   0  0  0  0  0  0  0  0  0  0  0  0
    5.7579    2.3405    0.0000 C   0  0  0  0  0  0  0  0  0  0  0  0
    2.9100    0.2714    0.0000 C   0  0  0  0  0  0  0  0  0  0  0  0
    3.5823    2.3405    0.0000 C   0  0  0  0  0  0  0  0  0  0  0  0
    6.6381   -0.7068    0.0000 C   0  0  0  0  0  0  0  0  0  0  0  0
    8.7481   -2.3030    0.0000 C   0  0  0  0  0  0  0  0  0  0  0  0
    7.7970   -1.9939    0.0000 C   0  0  0  0  0  0  0  0  0  0  0  0
   10.3661   -2.3030    0.0000 C   0  0  0  0  0  0  0  0  0  0  0  0
    9.0571   -3.2540    0.0000 C   0  0  0  0  0  0  0  0  0  0  0  0
   10.0571   -3.2540    0.0000 C   0  0  0  0  0  0  0  0  0  0  0  0
    2.0000    3.0450    0.0000 C   0  0  0  0  0  0  0  0  0  0  0  0
   11.3172   -1.9939    0.0000 C   0  0  0  0  0  0  0  0  0  0  0  0
    4.6701   -0.6274    0.0000 H   0  0  0  0  0  0  0  0  0  0  0  0
    6.2595    1.9760    0.0000 H   0  0  0  0  0  0  0  0  0  0  0  0
    6.1223    2.8421    0.0000 H   0  0  0  0  0  0  0  0  0  0  0  0
    5.2563    2.7049    0.0000 H   0  0  0  0  0  0  0  0  0  0  0  0
    2.7184    0.8610    0.0000 H   0  0  0  0  0  0  0  0  0  0  0  0
    2.3204    0.0798    0.0000 H   0  0  0  0  0  0  0  0  0  0  0  0
    3.1016   -0.3183    0.0000 H   0  0  0  0  0  0  0  0  0  0  0  0
    6.0185   -0.7284    0.0000 H   0  0  0  0  0  0  0  0  0  0  0  0
    6.5518   -1.3207    0.0000 H   0  0  0  0  0  0  0  0  0  0  0  0
    8.6927   -3.7556    0.0000 H   0  0  0  0  0  0  0  0  0  0  0  0
   10.4215   -3.7556    0.0000 H   0  0  0  0  0  0  0  0  0  0  0  0
    2.5016    3.4094    0.0000 H   0  0  0  0  0  0  0  0  0  0  0  0
    1.6356    3.5465    0.0000 H   0  0  0  0  0  0  0  0  0  0  0  0
    1.4984    2.6805    0.0000 H   0  0  0  0  0  0  0  0  0  0  0  0
   11.5088   -2.5836    0.0000 H   0  0  0  0  0  0  0  0  0  0  0  0
   11.9068   -1.8024    0.0000 H   0  0  0  0  0  0  0  0  0  0  0  0
   11.1256   -1.4043    0.0000 H   0  0  0  0  0  0  0  0  0  0  0  0
  1 16  1  0  0  0  0
  1 18  1  0  0  0  0
  2 15  1  0  0  0  0
  2 22  1  0  0  0  0
  3 12  2  0  0  0  0
  4 17  1  0  0  0  0
  4 19  1  0  0  0  0
  5 15  2  0  0  0  0
  6 18  2  0  0  0  0
  7  9  1  0  0  0  0
  7 11  1  0  0  0  0
  7 24  1  0  0  0  0
  8  9  2  0  0  0  0
  8 10  1  0  0  0  0
  8 13  1  0  0  0  0
  9 12  1  0  0  0  0
 10 11  2  0  0  0  0
 10 15  1  0  0  0  0
 11 14  1  0  0  0  0
 12 16  1  0  0  0  0
 13 25  1  0  0  0  0
 13 26  1  0  0  0  0
 13 27  1  0  0  0  0
 14 28  1  0  0  0  0
 14 29  1  0  0  0  0
 14 30  1  0  0  0  0
 16 31  1  0  0  0  0
 16 32  1  0  0  0  0
 17 18  1  0  0  0  0
 17 20  2  0  0  0  0
 19 21  2  0  0  0  0
 19 23  1  0  0  0  0
 20 21  1  0  0  0  0
 20 33  1  0  0  0  0
 21 34  1  0  0  0  0
 22 35  1  0  0  0  0
 22 36  1  0  0  0  0
 22 37  1  0  0  0  0
 23 38  1  0  0  0  0
 23 39  1  0  0  0  0
 23 40  1  0  0  0  0
M  END
> <PUBCHEM_COMPOUND_CID>
17395698

> <PUBCHEM_COMPOUND_CANONICALIZED>
1

> <PUBCHEM_CACTVS_COMPLEXITY>
479

> <PUBCHEM_CACTVS_HBOND_ACCEPTOR>
6

> <PUBCHEM_CACTVS_HBOND_DONOR>
1

> <PUBCHEM_CACTVS_ROTATABLE_BOND>
7

> <PUBCHEM_CACTVS_SUBSKEYS>
AAADceB6OAAAAAAAAAAAAAAAAAAAAWJAAAAAAAAAAAAAAAAB4AAAHgAQAAAADAyhngIyjJLJlECoA6TyTAKCiCAnICAImSH2TNgNJnrEtb+GGajm0BHK6ce87zx+gAAAAAAAAAAAAAAAAAAAAAAAAAAAAA==

> <PUBCHEM_IUPAC_OPENEYE_NAME>
methyl 2,4-dimethyl-5-[2-(5-methylfuran-2-carbonyl)oxyacetyl]-1H-pyrrole-3-carboxylate

> <PUBCHEM_IUPAC_CAS_NAME>
2,4-dimethyl-5-[2-[(5-methyl-2-furanyl)-oxomethoxy]-1-oxoethyl]-1H-pyrrole-3-carboxylic acid methyl ester

> <PUBCHEM_IUPAC_NAME>
methyl 2,4-dimethyl-5-[2-(5-methylfuran-2-carbonyl)oxyacetyl]-1H-pyrrole-3-carboxylate

> <PUBCHEM_IUPAC_SYSTEMATIC_NAME>
methyl 2,4-dimethyl-5-[2-(5-methylfuran-2-yl)carbonyloxyethanoyl]-1H-pyrrole-3-carboxylate

> <PUBCHEM_IUPAC_TRADITIONAL_NAME>
2,4-dimethyl-5-[2-(5-methyl-2-furoyl)oxyacetyl]-1H-pyrrole-3-carboxylic acid methyl ester

> <PUBCHEM_IUPAC_INCHI>
InChI=1S/C16H17NO6/c1-8-5-6-12(23-8)15(19)22-7-11(18)14-9(2)13(10(3)17-14)16(20)21-4/h5-6,17H,7H2,1-4H3

> <PUBCHEM_IUPAC_INCHIKEY>
HZSBOWCZEIZYBE-UHFFFAOYSA-N

> <PUBCHEM_XLOGP3_AA>
2.7

> <PUBCHEM_EXACT_MASS>
319.105587

> <PUBCHEM_MOLECULAR_FORMULA>
C16H17NO6

> <PUBCHEM_MOLECULAR_WEIGHT>
319.30928

> <PUBCHEM_OPENEYE_CAN_SMILES>
CC1=CC=C(O1)C(=O)OCC(=O)C2=C(C(=C(N2)C)C(=O)OC)C

> <PUBCHEM_OPENEYE_ISO_SMILES>
CC1=CC=C(O1)C(=O)OCC(=O)C2=C(C(=C(N2)C)C(=O)OC)C

> <PUBCHEM_CACTVS_TPSA>
98.6

> <PUBCHEM_MONOISOTOPIC_WEIGHT>
319.105587

> <PUBCHEM_TOTAL_CHARGE>
0

> <PUBCHEM_HEAVY_ATOM_COUNT>
23

> <PUBCHEM_ATOM_DEF_STEREO_COUNT>
0

> <PUBCHEM_ATOM_UDEF_STEREO_COUNT>
0

> <PUBCHEM_BOND_DEF_STEREO_COUNT>
0

> <PUBCHEM_BOND_UDEF_STEREO_COUNT>
0

> <PUBCHEM_ISOTOPIC_ATOM_COUNT>
0

> <PUBCHEM_COMPONENT_COUNT>
1

> <PUBCHEM_CACTVS_TAUTO_COUNT>
99

> <PUBCHEM_COORDINATE_TYPE>
1
5
255

> <PUBCHEM_BONDANNOTATIONS>
10  11  8
17  20  8
19  21  8
20  21  8
4  17  8
4  19  8
7  11  8
7  9  8
8  10  8
8  9  8

$$$$

