10753
  -OEChem-06261204552D

 24 25  0     0  0  0  0  0  0999 V2000
    4.9543    0.9120    0.0000 S   0  0  0  0  0  0  0  0  0  0  0  0
    8.0234    0.2397    0.0000 O   0  0  0  0  0  0  0  0  0  0  0  0
    3.1590    1.2992    0.0000 O   0  0  0  0  0  0  0  0  0  0  0  0
   10.5266   -0.7082    0.0000 O   0  5  0  0  0  0  0  0  0  0  0  0
    9.9914    0.9391    0.0000 O   0  0  0  0  0  0  0  0  0  0  0  0
    5.4543   -0.6269    0.0000 N   0  0  0  0  0  0  0  0  0  0  0  0
    3.6942   -0.3481    0.0000 N   0  0  0  0  0  0  0  0  0  0  0  0
    9.7834   -0.0391    0.0000 N   0  3  0  0  0  0  0  0  0  0  0  0
    7.2144   -0.3481    0.0000 C   0  0  0  0  0  0  0  0  0  0  0  0
    6.2633   -0.0391    0.0000 C   0  0  0  0  0  0  0  0  0  0  0  0
    7.5234   -1.2992    0.0000 C   0  0  0  0  0  0  0  0  0  0  0  0
    4.6453   -0.0391    0.0000 C   0  0  0  0  0  0  0  0  0  0  0  0
    5.9543    0.9120    0.0000 C   0  0  0  0  0  0  0  0  0  0  0  0
    8.8324   -0.3481    0.0000 C   0  0  0  0  0  0  0  0  0  0  0  0
    8.5234   -1.2992    0.0000 C   0  0  0  0  0  0  0  0  0  0  0  0
    2.9511    0.3210    0.0000 C   0  0  0  0  0  0  0  0  0  0  0  0
    2.0000    0.0120    0.0000 C   0  0  0  0  0  0  0  0  0  0  0  0
    7.1589   -1.8008    0.0000 H   0  0  0  0  0  0  0  0  0  0  0  0
    6.3187    1.4136    0.0000 H   0  0  0  0  0  0  0  0  0  0  0  0
    8.8878   -1.8008    0.0000 H   0  0  0  0  0  0  0  0  0  0  0  0
    3.5653   -0.9546    0.0000 H   0  0  0  0  0  0  0  0  0  0  0  0
    1.8084    0.6017    0.0000 H   0  0  0  0  0  0  0  0  0  0  0  0
    1.4103   -0.1796    0.0000 H   0  0  0  0  0  0  0  0  0  0  0  0
    2.1916   -0.5777    0.0000 H   0  0  0  0  0  0  0  0  0  0  0  0
  1 12  1  0  0  0  0
  1 13  1  0  0  0  0
  2  9  1  0  0  0  0
  2 14  1  0  0  0  0
  3 16  2  0  0  0  0
  4  8  1  0  0  0  0
  5  8  2  0  0  0  0
  6 10  1  0  0  0  0
  6 12  2  0  0  0  0
  7 12  1  0  0  0  0
  7 16  1  0  0  0  0
  7 21  1  0  0  0  0
  8 14  1  0  0  0  0
  9 10  1  0  0  0  0
  9 11  2  0  0  0  0
 10 13  2  0  0  0  0
 11 15  1  0  0  0  0
 11 18  1  0  0  0  0
 13 19  1  0  0  0  0
 14 15  2  0  0  0  0
 15 20  1  0  0  0  0
 16 17  1  0  0  0  0
 17 22  1  0  0  0  0
 17 23  1  0  0  0  0
 17 24  1  0  0  0  0
M  CHG  2   4  -1   8   1
M  END
> <PUBCHEM_COMPOUND_CID>
10753

> <PUBCHEM_COMPOUND_CANONICALIZED>
1

> <PUBCHEM_CACTVS_COMPLEXITY>
322

> <PUBCHEM_CACTVS_HBOND_ACCEPTOR>
6

> <PUBCHEM_CACTVS_HBOND_DONOR>
1

> <PUBCHEM_CACTVS_ROTATABLE_BOND>
2

> <PUBCHEM_CACTVS_SUBSKEYS>
AAADcYBzOABAAAAAAAAAAAAAAAAAAWJAAAAAAAAAAAAAAAAB4AAAHgQUAAAACAyF1gCzlZLYVEitAaVydwSC+KlvKjkpiDW2bNqOJrKkvLuPOSjs0RMY6ae8WQMQAAAAAAAAAAAAAAAAAAAAAAAAAAAAAA==

> <PUBCHEM_IUPAC_OPENEYE_NAME>
N-[4-(5-nitro-2-furyl)thiazol-2-yl]acetamide

> <PUBCHEM_IUPAC_CAS_NAME>
N-[4-(5-nitro-2-furanyl)-2-thiazolyl]acetamide

> <PUBCHEM_IUPAC_NAME>
N-[4-(5-nitrofuran-2-yl)-1,3-thiazol-2-yl]acetamide

> <PUBCHEM_IUPAC_SYSTEMATIC_NAME>
N-[4-(5-nitrofuran-2-yl)-1,3-thiazol-2-yl]ethanamide

> <PUBCHEM_IUPAC_TRADITIONAL_NAME>
N-[4-(5-nitro-2-furyl)thiazol-2-yl]acetamide

> <PUBCHEM_IUPAC_INCHI>
InChI=1S/C9H7N3O4S/c1-5(13)10-9-11-6(4-17-9)7-2-3-8(16-7)12(14)15/h2-4H,1H3,(H,10,11,13)

> <PUBCHEM_IUPAC_INCHIKEY>
GYRMPDLIHUXUIG-UHFFFAOYSA-N

> <PUBCHEM_XLOGP3_AA>
1.4

> <PUBCHEM_EXACT_MASS>
253.015727

> <PUBCHEM_MOLECULAR_FORMULA>
C9H7N3O4S

> <PUBCHEM_MOLECULAR_WEIGHT>
253.23458

> <PUBCHEM_OPENEYE_CAN_SMILES>
CC(=O)NC1=NC(=CS1)C2=CC=C(O2)[N+](=O)[O-]

> <PUBCHEM_OPENEYE_ISO_SMILES>
CC(=O)NC1=NC(=CS1)C2=CC=C(O2)[N+](=O)[O-]

> <PUBCHEM_CACTVS_TPSA>
129

> <PUBCHEM_MONOISOTOPIC_WEIGHT>
253.015727

> <PUBCHEM_TOTAL_CHARGE>
0

> <PUBCHEM_HEAVY_ATOM_COUNT>
17

> <PUBCHEM_ATOM_DEF_STEREO_COUNT>
0

> <PUBCHEM_ATOM_UDEF_STEREO_COUNT>
0

> <PUBCHEM_BOND_DEF_STEREO_COUNT>
0

> <PUBCHEM_BOND_UDEF_STEREO_COUNT>
0

> <PUBCHEM_ISOTOPIC_ATOM_COUNT>
0

> <PUBCHEM_COMPONENT_COUNT>
1

> <PUBCHEM_CACTVS_TAUTO_COUNT>
5

> <PUBCHEM_COORDINATE_TYPE>
1
5
255

> <PUBCHEM_BONDANNOTATIONS>
1  12  8
1  13  8
10  13  8
11  15  8
14  15  8
2  14  8
2  9  8
6  10  8
6  12  8
9  11  8

$$$$

