3458
  -OEChem-06251223252D

 69 74  0     1  0  0  0  0  0999 V2000
    5.6993   -1.0603    0.0000 O   0  0  0  0  0  0  0  0  0  0  0  0
    8.3939   -1.6020    0.0000 O   0  0  0  0  0  0  0  0  0  0  0  0
    4.8614   -1.5881    0.0000 O   0  0  0  0  0  0  0  0  0  0  0  0
    7.4879   -3.1228    0.0000 O   0  0  0  0  0  0  0  0  0  0  0  0
    2.1359    3.0909    0.0000 O   0  0  0  0  0  0  0  0  0  0  0  0
   10.3147    1.1645    0.0000 O   0  0  0  0  0  0  0  0  0  0  0  0
    3.1295   -1.6081    0.0000 O   0  0  0  0  0  0  0  0  0  0  0  0
    6.6098   -0.5535    0.0000 C   0  0  3  0  0  0  0  0  0  0  0  0
    5.7438   -0.0535    0.0000 C   0  0  3  0  0  0  0  0  0  0  0  0
    5.7438    0.9465    0.0000 C   0  0  3  0  0  0  0  0  0  0  0  0
    7.4758   -0.0535    0.0000 C   0  0  3  0  0  0  0  0  0  0  0  0
    6.5938   -1.5950    0.0000 C   0  0  3  0  0  0  0  0  0  0  0  0
    4.8498    1.4812    0.0000 C   0  0  3  0  0  0  0  0  0  0  0  0
    4.8498   -0.5882    0.0000 C   0  0  3  0  0  0  0  0  0  0  0  0
    6.6098    1.4465    0.0000 C   0  0  0  0  0  0  0  0  0  0  0  0
    7.4758    0.9465    0.0000 C   0  0  0  0  0  0  0  0  0  0  0  0
    3.9438    0.9673    0.0000 C   0  0  3  0  0  0  0  0  0  0  0  0
    3.9438   -0.0743    0.0000 C   0  0  0  0  0  0  0  0  0  0  0  0
    8.3858   -0.5604    0.0000 C   0  0  3  0  0  0  0  0  0  0  0  0
    6.3939   -1.1793    0.0000 C   0  0  0  0  0  0  0  0  0  0  0  0
    8.3419    0.4465    0.0000 C   0  0  0  0  0  0  0  0  0  0  0  0
    3.0000    1.5025    0.0000 C   0  0  0  0  0  0  0  0  0  0  0  0
    7.4918   -2.1228    0.0000 C   0  0  0  0  0  0  0  0  0  0  0  0
    5.7197    1.9744    0.0000 C   0  0  0  0  0  0  0  0  0  0  0  0
    4.8749    2.5659    0.0000 C   0  0  0  0  0  0  0  0  0  0  0  0
    9.2460   -0.0504    0.0000 C   0  0  0  0  0  0  0  0  0  0  0  0
    3.0000    2.5875    0.0000 C   0  0  0  0  0  0  0  0  0  0  0  0
    3.9438    3.1228    0.0000 C   0  0  0  0  0  0  0  0  0  0  0  0
    2.0000    1.4987    0.0000 C   0  0  0  0  0  0  0  0  0  0  0  0
    2.5033    0.6346    0.0000 C   0  0  0  0  0  0  0  0  0  0  0  0
    4.0012   -2.0981    0.0000 C   0  0  0  0  0  0  0  0  0  0  0  0
   10.1642   -0.4465    0.0000 C   0  0  0  0  0  0  0  0  0  0  0  0
    9.3390    0.9453    0.0000 C   0  0  0  0  0  0  0  0  0  0  0  0
   10.8247    0.3043    0.0000 C   0  0  0  0  0  0  0  0  0  0  0  0
    4.0128   -3.0980    0.0000 C   0  0  0  0  0  0  0  0  0  0  0  0
    6.4799    0.5215    0.0000 H   0  0  0  0  0  0  0  0  0  0  0  0
    6.1604   -2.3262    0.0000 H   0  0  0  0  0  0  0  0  0  0  0  0
    5.5916   -1.0032    0.0000 H   0  0  0  0  0  0  0  0  0  0  0  0
    7.0083    1.9214    0.0000 H   0  0  0  0  0  0  0  0  0  0  0  0
    6.2113    1.9214    0.0000 H   0  0  0  0  0  0  0  0  0  0  0  0
    8.0864    0.8388    0.0000 H   0  0  0  0  0  0  0  0  0  0  0  0
    7.6879    1.5291    0.0000 H   0  0  0  0  0  0  0  0  0  0  0  0
    3.2093    0.5395    0.0000 H   0  0  0  0  0  0  0  0  0  0  0  0
    3.3329    0.0318    0.0000 H   0  0  0  0  0  0  0  0  0  0  0  0
    3.7347   -0.6580    0.0000 H   0  0  0  0  0  0  0  0  0  0  0  0
    9.1260   -0.9782    0.0000 H   0  0  0  0  0  0  0  0  0  0  0  0
    5.8570   -1.4893    0.0000 H   0  0  0  0  0  0  0  0  0  0  0  0
    6.7040   -1.7162    0.0000 H   0  0  0  0  0  0  0  0  0  0  0  0
    6.9308   -0.8692    0.0000 H   0  0  0  0  0  0  0  0  0  0  0  0
    8.6519   -0.0905    0.0000 H   0  0  0  0  0  0  0  0  0  0  0  0
    8.8788    0.7565    0.0000 H   0  0  0  0  0  0  0  0  0  0  0  0
    8.0319    0.9834    0.0000 H   0  0  0  0  0  0  0  0  0  0  0  0
    6.0256    1.4351    0.0000 H   0  0  0  0  0  0  0  0  0  0  0  0
    6.2590    2.2803    0.0000 H   0  0  0  0  0  0  0  0  0  0  0  0
    5.4138    2.5138    0.0000 H   0  0  0  0  0  0  0  0  0  0  0  0
    5.4178    2.8654    0.0000 H   0  0  0  0  0  0  0  0  0  0  0  0
    3.9510    3.7427    0.0000 H   0  0  0  0  0  0  0  0  0  0  0  0
    1.9652    0.9425    0.0000 H   0  0  0  0  0  0  0  0  0  0  0  0
    2.1954    0.0965    0.0000 H   0  0  0  0  0  0  0  0  0  0  0  0
    3.0415    0.3267    0.0000 H   0  0  0  0  0  0  0  0  0  0  0  0
    1.9976    2.1187    0.0000 H   0  0  0  0  0  0  0  0  0  0  0  0
    1.3800    1.4963    0.0000 H   0  0  0  0  0  0  0  0  0  0  0  0
    2.0024    0.8787    0.0000 H   0  0  0  0  0  0  0  0  0  0  0  0
   10.3001   -1.0514    0.0000 H   0  0  0  0  0  0  0  0  0  0  0  0
    8.8735    1.3548    0.0000 H   0  0  0  0  0  0  0  0  0  0  0  0
   11.4420    0.2466    0.0000 H   0  0  0  0  0  0  0  0  0  0  0  0
    3.3928   -3.1052    0.0000 H   0  0  0  0  0  0  0  0  0  0  0  0
    4.0200   -3.7180    0.0000 H   0  0  0  0  0  0  0  0  0  0  0  0
    4.6328   -3.0908    0.0000 H   0  0  0  0  0  0  0  0  0  0  0  0
  1  8  1  0  0  0  0
  1 12  1  0  0  0  0
  2 19  1  0  0  0  0
  2 23  1  0  0  0  0
  3 14  1  0  0  0  0
  3 31  1  0  0  0  0
  4 23  2  0  0  0  0
  5 27  2  0  0  0  0
  6 33  1  0  0  0  0
  6 34  1  0  0  0  0
  7 31  2  0  0  0  0
  8  9  1  0  0  0  0
  8 11  1  0  0  0  0
  8 12  1  0  0  0  0
  9 10  1  0  0  0  0
  9 14  1  0  0  0  0
  9 20  1  0  0  0  0
 10 13  1  0  0  0  0
 10 15  1  0  0  0  0
 10 36  1  0  0  0  0
 11 16  1  0  0  0  0
 11 19  1  0  0  0  0
 11 21  1  0  0  0  0
 12 23  1  0  0  0  0
 12 37  1  0  0  0  0
 13 17  1  0  0  0  0
 13 24  1  0  0  0  0
 13 25  1  0  0  0  0
 14 18  1  0  0  0  0
 14 38  1  0  0  0  0
 15 16  1  0  0  0  0
 15 39  1  0  0  0  0
 15 40  1  0  0  0  0
 16 41  1  0  0  0  0
 16 42  1  0  0  0  0
 17 18  1  0  0  0  0
 17 22  1  0  0  0  0
 17 43  1  0  0  0  0
 18 44  1  0  0  0  0
 18 45  1  0  0  0  0
 19 26  1  0  0  0  0
 19 46  1  0  0  0  0
 20 47  1  0  0  0  0
 20 48  1  0  0  0  0
 20 49  1  0  0  0  0
 21 50  1  0  0  0  0
 21 51  1  0  0  0  0
 21 52  1  0  0  0  0
 22 27  1  0  0  0  0
 22 29  1  0  0  0  0
 22 30  1  0  0  0  0
 24 53  1  0  0  0  0
 24 54  1  0  0  0  0
 24 55  1  0  0  0  0
 25 28  2  0  0  0  0
 25 56  1  0  0  0  0
 26 32  1  0  0  0  0
 26 33  2  0  0  0  0
 27 28  1  0  0  0  0
 28 57  1  0  0  0  0
 29 61  1  0  0  0  0
 29 62  1  0  0  0  0
 29 63  1  0  0  0  0
 30 58  1  0  0  0  0
 30 59  1  0  0  0  0
 30 60  1  0  0  0  0
 31 35  1  0  0  0  0
 32 34  2  0  0  0  0
 32 64  1  0  0  0  0
 33 65  1  0  0  0  0
 34 66  1  0  0  0  0
 35 67  1  0  0  0  0
 35 68  1  0  0  0  0
 35 69  1  0  0  0  0
M  END
> <PUBCHEM_COMPOUND_CID>
3458

> <PUBCHEM_COMPOUND_CANONICALIZED>
1

> <PUBCHEM_CACTVS_COMPLEXITY>
1030

> <PUBCHEM_CACTVS_HBOND_ACCEPTOR>
7

> <PUBCHEM_CACTVS_HBOND_DONOR>
0

> <PUBCHEM_CACTVS_ROTATABLE_BOND>
3

> <PUBCHEM_CACTVS_SUBSKEYS>
AAADcfB4OAAAAAAAAAAAAAAAEgAAASAAAAA0YIEABIAAAADRgAAAGgAAAAAAD1SgmAIyDIAABECIAqjSiAICCAAkIAAIiAFGCMgNJxYENQ6CGSCl4BEKKYPK7PzPgAAAAAAAAADAAAYAADAAAAAAAAAAAA==

> <PUBCHEM_IUPAC_INCHI>
InChI=1S/C28H34O7/c1-15(29)33-20-13-18-24(2,3)19(30)8-10-25(18,4)17-7-11-26(5)21(16-9-12-32-14-16)34-23(31)22-28(26,35-22)27(17,20)6/h8-10,12,14,17-18,20-22H,7,11,13H2,1-6H3

> <PUBCHEM_IUPAC_INCHIKEY>
YJXDGWUNRYLINJ-UHFFFAOYSA-N

> <PUBCHEM_XLOGP3_AA>
4.2

> <PUBCHEM_EXACT_MASS>
482.230453

> <PUBCHEM_MOLECULAR_FORMULA>
C28H34O7

> <PUBCHEM_MOLECULAR_WEIGHT>
482.56536

> <PUBCHEM_OPENEYE_CAN_SMILES>
CC(=O)OC1CC2C(C(=O)C=CC2(C3C1(C45C(O4)C(=O)OC(C5(CC3)C)C6=COC=C6)C)C)(C)C

> <PUBCHEM_OPENEYE_ISO_SMILES>
CC(=O)OC1CC2C(C(=O)C=CC2(C3C1(C45C(O4)C(=O)OC(C5(CC3)C)C6=COC=C6)C)C)(C)C

> <PUBCHEM_CACTVS_TPSA>
95.3

> <PUBCHEM_MONOISOTOPIC_WEIGHT>
482.230453

> <PUBCHEM_TOTAL_CHARGE>
0

> <PUBCHEM_HEAVY_ATOM_COUNT>
35

> <PUBCHEM_ATOM_DEF_STEREO_COUNT>
0

> <PUBCHEM_ATOM_UDEF_STEREO_COUNT>
9

> <PUBCHEM_BOND_DEF_STEREO_COUNT>
0

> <PUBCHEM_BOND_UDEF_STEREO_COUNT>
0

> <PUBCHEM_ISOTOPIC_ATOM_COUNT>
0

> <PUBCHEM_COMPONENT_COUNT>
1

> <PUBCHEM_CACTVS_TAUTO_COUNT>
2

> <PUBCHEM_COORDINATE_TYPE>
1
5
255

> <PUBCHEM_BONDANNOTATIONS>
8  1  3
10  36  3
11  21  3
12  37  3
13  24  3
14  38  3
17  43  3
19  46  3
26  32  8
26  33  8
32  34  8
6  33  8
6  34  8
9  20  3

$$$$

