47205572
  -OEChem-06241222592D

 34 35  0     1  0  0  0  0  0999 V2000
    3.2601    0.0041    0.0000 S   0  0  0  0  0  0  0  0  0  0  0  0
    7.7496    0.7515    0.0000 O   0  0  0  0  0  0  0  0  0  0  0  0
    9.6517    0.1334    0.0000 N   0  0  0  0  0  0  0  0  0  0  0  0
    7.2144   -0.8958    0.0000 N   0  0  0  0  0  0  0  0  0  0  0  0
    3.7601   -1.5347    0.0000 N   0  0  0  0  0  0  0  0  0  0  0  0
   11.1298    0.7915    0.0000 N   0  0  0  0  0  0  0  0  0  0  0  0
    8.9086   -0.5357    0.0000 C   0  0  3  0  0  0  0  0  0  0  0  0
    6.2633   -0.5868    0.0000 C   0  0  0  0  0  0  0  0  0  0  0  0
    7.9575   -0.2267    0.0000 C   0  0  0  0  0  0  0  0  0  0  0  0
    5.5202   -1.2559    0.0000 C   0  0  0  0  0  0  0  0  0  0  0  0
    9.1165   -1.5138    0.0000 C   0  0  0  0  0  0  0  0  0  0  0  0
    4.5691   -0.9469    0.0000 C   0  0  0  0  0  0  0  0  0  0  0  0
    9.5472    1.1280    0.0000 C   0  0  0  0  0  0  0  0  0  0  0  0
   10.6298   -0.0745    0.0000 C   0  0  0  0  0  0  0  0  0  0  0  0
    4.2601    0.0041    0.0000 C   0  0  0  0  0  0  0  0  0  0  0  0
   10.4607    1.5347    0.0000 C   0  0  0  0  0  0  0  0  0  0  0  0
    2.9511   -0.9469    0.0000 C   0  0  0  0  0  0  0  0  0  0  0  0
    2.0000   -1.2559    0.0000 C   0  0  0  0  0  0  0  0  0  0  0  0
    9.4982   -0.7273    0.0000 H   0  0  0  0  0  0  0  0  0  0  0  0
    6.5544   -0.0394    0.0000 H   0  0  0  0  0  0  0  0  0  0  0  0
    5.7747   -0.2051    0.0000 H   0  0  0  0  0  0  0  0  0  0  0  0
    5.2291   -1.8034    0.0000 H   0  0  0  0  0  0  0  0  0  0  0  0
    6.0087   -1.6376    0.0000 H   0  0  0  0  0  0  0  0  0  0  0  0
    7.3432   -1.5023    0.0000 H   0  0  0  0  0  0  0  0  0  0  0  0
    8.5100   -1.6428    0.0000 H   0  0  0  0  0  0  0  0  0  0  0  0
    9.2454   -2.1203    0.0000 H   0  0  0  0  0  0  0  0  0  0  0  0
    9.7229   -1.3849    0.0000 H   0  0  0  0  0  0  0  0  0  0  0  0
    9.0102    1.4380    0.0000 H   0  0  0  0  0  0  0  0  0  0  0  0
   10.8820   -0.6409    0.0000 H   0  0  0  0  0  0  0  0  0  0  0  0
    4.6245    0.5057    0.0000 H   0  0  0  0  0  0  0  0  0  0  0  0
   10.5896    2.1411    0.0000 H   0  0  0  0  0  0  0  0  0  0  0  0
    1.8084   -0.6663    0.0000 H   0  0  0  0  0  0  0  0  0  0  0  0
    1.4103   -1.4475    0.0000 H   0  0  0  0  0  0  0  0  0  0  0  0
    2.1916   -1.8456    0.0000 H   0  0  0  0  0  0  0  0  0  0  0  0
  1 15  1  0  0  0  0
  1 17  1  0  0  0  0
  2  9  2  0  0  0  0
  3  7  1  0  0  0  0
  3 13  1  0  0  0  0
  3 14  1  0  0  0  0
  4  8  1  0  0  0  0
  4  9  1  0  0  0  0
  4 24  1  0  0  0  0
  5 12  1  0  0  0  0
  5 17  2  0  0  0  0
  6 14  2  0  0  0  0
  6 16  1  0  0  0  0
  7  9  1  0  0  0  0
  7 11  1  0  0  0  0
  7 19  1  0  0  0  0
  8 10  1  0  0  0  0
  8 20  1  0  0  0  0
  8 21  1  0  0  0  0
 10 12  1  0  0  0  0
 10 22  1  0  0  0  0
 10 23  1  0  0  0  0
 11 25  1  0  0  0  0
 11 26  1  0  0  0  0
 11 27  1  0  0  0  0
 12 15  2  0  0  0  0
 13 16  2  0  0  0  0
 13 28  1  0  0  0  0
 14 29  1  0  0  0  0
 15 30  1  0  0  0  0
 16 31  1  0  0  0  0
 17 18  1  0  0  0  0
 18 32  1  0  0  0  0
 18 33  1  0  0  0  0
 18 34  1  0  0  0  0
M  END
> <PUBCHEM_COMPOUND_CID>
47205572

> <PUBCHEM_COMPOUND_CANONICALIZED>
1

> <PUBCHEM_CACTVS_COMPLEXITY>
289

> <PUBCHEM_CACTVS_HBOND_ACCEPTOR>
4

> <PUBCHEM_CACTVS_HBOND_DONOR>
1

> <PUBCHEM_CACTVS_ROTATABLE_BOND>
5

> <PUBCHEM_CACTVS_SUBSKEYS>
AAADceBzoABAAAAAAAAAAAAAAAAAAWLAAAAAAAAAAAAAAAAB4AAAHgQQAAAACCjF1gSvkRfMEAisARV3dAAA8K1xGrgJQJW4MAiAaAAgySEUAAAIFgKgACAAAAAAAAAAAAAAAAAAAAAAAAAAAAAAAAAAAA==

> <PUBCHEM_IUPAC_OPENEYE_NAME>
2-imidazol-1-yl-N-[2-(2-methylthiazol-4-yl)ethyl]propanamide

> <PUBCHEM_IUPAC_CAS_NAME>
2-(1-imidazolyl)-N-[2-(2-methyl-4-thiazolyl)ethyl]propanamide

> <PUBCHEM_IUPAC_NAME>
2-imidazol-1-yl-N-[2-(2-methyl-1,3-thiazol-4-yl)ethyl]propanamide

> <PUBCHEM_IUPAC_SYSTEMATIC_NAME>
2-imidazol-1-yl-N-[2-(2-methyl-1,3-thiazol-4-yl)ethyl]propanamide

> <PUBCHEM_IUPAC_TRADITIONAL_NAME>
2-imidazol-1-yl-N-[2-(2-methylthiazol-4-yl)ethyl]propionamide

> <PUBCHEM_IUPAC_INCHI>
InChI=1S/C12H16N4OS/c1-9(16-6-5-13-8-16)12(17)14-4-3-11-7-18-10(2)15-11/h5-9H,3-4H2,1-2H3,(H,14,17)

> <PUBCHEM_IUPAC_INCHIKEY>
GEBXNBPEMJVADP-UHFFFAOYSA-N

> <PUBCHEM_XLOGP3_AA>
1.3

> <PUBCHEM_EXACT_MASS>
264.104482

> <PUBCHEM_MOLECULAR_FORMULA>
C12H16N4OS

> <PUBCHEM_MOLECULAR_WEIGHT>
264.34664

> <PUBCHEM_OPENEYE_CAN_SMILES>
CC1=NC(=CS1)CCNC(=O)C(C)N2C=CN=C2

> <PUBCHEM_OPENEYE_ISO_SMILES>
CC1=NC(=CS1)CCNC(=O)C(C)N2C=CN=C2

> <PUBCHEM_CACTVS_TPSA>
88

> <PUBCHEM_MONOISOTOPIC_WEIGHT>
264.104482

> <PUBCHEM_TOTAL_CHARGE>
0

> <PUBCHEM_HEAVY_ATOM_COUNT>
18

> <PUBCHEM_ATOM_DEF_STEREO_COUNT>
0

> <PUBCHEM_ATOM_UDEF_STEREO_COUNT>
1

> <PUBCHEM_BOND_DEF_STEREO_COUNT>
0

> <PUBCHEM_BOND_UDEF_STEREO_COUNT>
0

> <PUBCHEM_ISOTOPIC_ATOM_COUNT>
0

> <PUBCHEM_COMPONENT_COUNT>
1

> <PUBCHEM_CACTVS_TAUTO_COUNT>
2

> <PUBCHEM_COORDINATE_TYPE>
1
5
255

> <PUBCHEM_BONDANNOTATIONS>
1  15  8
1  17  8
12  15  8
13  16  8
3  13  8
3  14  8
5  12  8
5  17  8
6  14  8
6  16  8
7  11  3

$$$$

