6633
  -OEChem-06261201252D

 36 37  0     0  0  0  0  0  0999 V2000
    3.0000    0.5000    0.0000 S   0  0  0  0  0  0  0  0  0  0  0  0
    4.0000    0.5000    0.0000 O   0  0  0  0  0  0  0  0  0  0  0  0
    2.0000    0.5000    0.0000 O   0  0  0  0  0  0  0  0  0  0  0  0
    3.0000    1.5000    0.0000 N   0  0  0  0  0  0  0  0  0  0  0  0
    3.8660    2.0000    0.0000 C   0  0  0  0  0  0  0  0  0  0  0  0
    4.7320    1.5000    0.0000 C   0  0  0  0  0  0  0  0  0  0  0  0
    3.8660    3.0000    0.0000 C   0  0  0  0  0  0  0  0  0  0  0  0
    4.7320    3.5000    0.0000 C   0  0  0  0  0  0  0  0  0  0  0  0
    5.5981    2.0000    0.0000 C   0  0  0  0  0  0  0  0  0  0  0  0
    5.5981    3.0000    0.0000 C   0  0  0  0  0  0  0  0  0  0  0  0
    3.0000   -0.5000    0.0000 C   0  0  0  0  0  0  0  0  0  0  0  0
    2.1340   -1.0000    0.0000 C   0  0  0  0  0  0  0  0  0  0  0  0
    3.8660   -1.0000    0.0000 C   0  0  0  0  0  0  0  0  0  0  0  0
    2.1340   -2.0000    0.0000 C   0  0  0  0  0  0  0  0  0  0  0  0
    3.8660   -2.0000    0.0000 C   0  0  0  0  0  0  0  0  0  0  0  0
    3.0000   -2.5000    0.0000 C   0  0  0  0  0  0  0  0  0  0  0  0
    3.0000   -3.5000    0.0000 C   0  0  0  0  0  0  0  0  0  0  0  0
    3.8660    1.3800    0.0000 H   0  0  0  0  0  0  0  0  0  0  0  0
    4.3335    1.0250    0.0000 H   0  0  0  0  0  0  0  0  0  0  0  0
    5.1306    1.0250    0.0000 H   0  0  0  0  0  0  0  0  0  0  0  0
    3.6540    3.5826    0.0000 H   0  0  0  0  0  0  0  0  0  0  0  0
    3.2554    2.8923    0.0000 H   0  0  0  0  0  0  0  0  0  0  0  0
    5.1306    3.9750    0.0000 H   0  0  0  0  0  0  0  0  0  0  0  0
    4.3335    3.9750    0.0000 H   0  0  0  0  0  0  0  0  0  0  0  0
    5.8101    1.4174    0.0000 H   0  0  0  0  0  0  0  0  0  0  0  0
    6.2087    2.1077    0.0000 H   0  0  0  0  0  0  0  0  0  0  0  0
    6.2087    2.8923    0.0000 H   0  0  0  0  0  0  0  0  0  0  0  0
    5.8101    3.5826    0.0000 H   0  0  0  0  0  0  0  0  0  0  0  0
    2.4631    1.8100    0.0000 H   0  0  0  0  0  0  0  0  0  0  0  0
    1.5970   -0.6900    0.0000 H   0  0  0  0  0  0  0  0  0  0  0  0
    4.4030   -0.6900    0.0000 H   0  0  0  0  0  0  0  0  0  0  0  0
    1.5970   -2.3100    0.0000 H   0  0  0  0  0  0  0  0  0  0  0  0
    4.4030   -2.3100    0.0000 H   0  0  0  0  0  0  0  0  0  0  0  0
    2.3800   -3.5000    0.0000 H   0  0  0  0  0  0  0  0  0  0  0  0
    3.0000   -4.1200    0.0000 H   0  0  0  0  0  0  0  0  0  0  0  0
    3.6200   -3.5000    0.0000 H   0  0  0  0  0  0  0  0  0  0  0  0
  1  2  2  0  0  0  0
  1  3  2  0  0  0  0
  1  4  1  0  0  0  0
  1 11  1  0  0  0  0
  4  5  1  0  0  0  0
  4 29  1  0  0  0  0
  5  6  1  0  0  0  0
  5  7  1  0  0  0  0
  5 18  1  0  0  0  0
  6  9  1  0  0  0  0
  6 19  1  0  0  0  0
  6 20  1  0  0  0  0
  7  8  1  0  0  0  0
  7 21  1  0  0  0  0
  7 22  1  0  0  0  0
  8 10  1  0  0  0  0
  8 23  1  0  0  0  0
  8 24  1  0  0  0  0
  9 10  1  0  0  0  0
  9 25  1  0  0  0  0
  9 26  1  0  0  0  0
 10 27  1  0  0  0  0
 10 28  1  0  0  0  0
 11 12  2  0  0  0  0
 11 13  1  0  0  0  0
 12 14  1  0  0  0  0
 12 30  1  0  0  0  0
 13 15  2  0  0  0  0
 13 31  1  0  0  0  0
 14 16  2  0  0  0  0
 14 32  1  0  0  0  0
 15 16  1  0  0  0  0
 15 33  1  0  0  0  0
 16 17  1  0  0  0  0
 17 34  1  0  0  0  0
 17 35  1  0  0  0  0
 17 36  1  0  0  0  0
M  END
> <PUBCHEM_COMPOUND_CID>
6633

> <PUBCHEM_COMPOUND_CANONICALIZED>
1

> <PUBCHEM_CACTVS_COMPLEXITY>
320

> <PUBCHEM_CACTVS_HBOND_ACCEPTOR>
3

> <PUBCHEM_CACTVS_HBOND_DONOR>
1

> <PUBCHEM_CACTVS_ROTATABLE_BOND>
3

> <PUBCHEM_CACTVS_SUBSKEYS>
AAADceByMABAAAAAAAAAAAAAAAAAAAAAAAAwYAAAAAAAAAABAAAAHAQQQAAADCjBWAQyAYBAAAKAAiBCAHBCABAgAAAIiJgAAIgIICKAkRCAIAAgkAAIiAcQgAAOEAAAAAAAAAAgAAAAAAAAAAAAAAAAAA==

> <PUBCHEM_IUPAC_OPENEYE_NAME>
N-cyclohexyl-4-methyl-benzenesulfonamide

> <PUBCHEM_IUPAC_CAS_NAME>
N-cyclohexyl-4-methylbenzenesulfonamide

> <PUBCHEM_IUPAC_NAME>
N-cyclohexyl-4-methylbenzenesulfonamide

> <PUBCHEM_IUPAC_SYSTEMATIC_NAME>
N-cyclohexyl-4-methyl-benzenesulfonamide

> <PUBCHEM_IUPAC_TRADITIONAL_NAME>
N-cyclohexyl-4-methyl-benzenesulfonamide

> <PUBCHEM_IUPAC_INCHI>
InChI=1S/C13H19NO2S/c1-11-7-9-13(10-8-11)17(15,16)14-12-5-3-2-4-6-12/h7-10,12,14H,2-6H2,1H3

> <PUBCHEM_IUPAC_INCHIKEY>
DKYVVNLWACXMDW-UHFFFAOYSA-N

> <PUBCHEM_XLOGP3_AA>
3.1

> <PUBCHEM_EXACT_MASS>
253.11365

> <PUBCHEM_MOLECULAR_FORMULA>
C13H19NO2S

> <PUBCHEM_MOLECULAR_WEIGHT>
253.36046

> <PUBCHEM_OPENEYE_CAN_SMILES>
CC1=CC=C(C=C1)S(=O)(=O)NC2CCCCC2

> <PUBCHEM_OPENEYE_ISO_SMILES>
CC1=CC=C(C=C1)S(=O)(=O)NC2CCCCC2

> <PUBCHEM_CACTVS_TPSA>
54.6

> <PUBCHEM_MONOISOTOPIC_WEIGHT>
253.11365

> <PUBCHEM_TOTAL_CHARGE>
0

> <PUBCHEM_HEAVY_ATOM_COUNT>
17

> <PUBCHEM_ATOM_DEF_STEREO_COUNT>
0

> <PUBCHEM_ATOM_UDEF_STEREO_COUNT>
0

> <PUBCHEM_BOND_DEF_STEREO_COUNT>
0

> <PUBCHEM_BOND_UDEF_STEREO_COUNT>
0

> <PUBCHEM_ISOTOPIC_ATOM_COUNT>
0

> <PUBCHEM_COMPONENT_COUNT>
1

> <PUBCHEM_CACTVS_TAUTO_COUNT>
1

> <PUBCHEM_COORDINATE_TYPE>
1
5
255

> <PUBCHEM_BONDANNOTATIONS>
11  12  8
11  13  8
12  14  8
13  15  8
14  16  8
15  16  8

$$$$

