12639
  -OEChem-06261207112D

 17 17  0     0  0  0  0  0  0999 V2000
    3.7320    0.4330    0.0000 O   0  0  0  0  0  0  0  0  0  0  0  0
    2.0000    0.4330    0.0000 O   0  0  0  0  0  0  0  0  0  0  0  0
    2.8660   -1.0670    0.0000 N   0  0  0  0  0  0  0  0  0  0  0  0
    2.3660   -1.9330    0.0000 C   0  0  0  0  0  0  0  0  0  0  0  0
    3.3660   -1.9330    0.0000 C   0  0  0  0  0  0  0  0  0  0  0  0
    2.8660   -0.0670    0.0000 C   0  0  0  0  0  0  0  0  0  0  0  0
    3.7320    1.4330    0.0000 C   0  0  0  0  0  0  0  0  0  0  0  0
    4.5981    1.9330    0.0000 C   0  0  0  0  0  0  0  0  0  0  0  0
    3.4737   -2.5436    0.0000 H   0  0  0  0  0  0  0  0  0  0  0  0
    3.9486   -1.7210    0.0000 H   0  0  0  0  0  0  0  0  0  0  0  0
    1.7834   -1.7210    0.0000 H   0  0  0  0  0  0  0  0  0  0  0  0
    2.2584   -2.5436    0.0000 H   0  0  0  0  0  0  0  0  0  0  0  0
    3.5200    2.0156    0.0000 H   0  0  0  0  0  0  0  0  0  0  0  0
    3.1215    1.3254    0.0000 H   0  0  0  0  0  0  0  0  0  0  0  0
    4.9081    1.3961    0.0000 H   0  0  0  0  0  0  0  0  0  0  0  0
    5.1350    2.2430    0.0000 H   0  0  0  0  0  0  0  0  0  0  0  0
    4.2881    2.4700    0.0000 H   0  0  0  0  0  0  0  0  0  0  0  0
  1  6  1  0  0  0  0
  1  7  1  0  0  0  0
  2  6  2  0  0  0  0
  3  4  1  0  0  0  0
  3  5  1  0  0  0  0
  3  6  1  0  0  0  0
  4  5  1  0  0  0  0
  4 11  1  0  0  0  0
  4 12  1  0  0  0  0
  5  9  1  0  0  0  0
  5 10  1  0  0  0  0
  7  8  1  0  0  0  0
  7 13  1  0  0  0  0
  7 14  1  0  0  0  0
  8 15  1  0  0  0  0
  8 16  1  0  0  0  0
  8 17  1  0  0  0  0
M  END
> <PUBCHEM_COMPOUND_CID>
12639

> <PUBCHEM_COMPOUND_CANONICALIZED>
1

> <PUBCHEM_CACTVS_COMPLEXITY>
98.6

> <PUBCHEM_CACTVS_HBOND_ACCEPTOR>
2

> <PUBCHEM_CACTVS_HBOND_DONOR>
0

> <PUBCHEM_CACTVS_ROTATABLE_BOND>
2

> <PUBCHEM_CACTVS_SUBSKEYS>
AAADccBiMAAAAAAAAAAAAAAAFgAAAAAAAAAAAAAAAAAAAAAAAAAAHgAAAAAAAADhgAYCCAMABAAIAAAAGAAAAAAAAAAAAAAIAAAAAAAAAAAIAAAABgAAAAAAAAAAAAAAAAAAAAAAAAAAAAAAAAAAAAAAAA==

> <PUBCHEM_IUPAC_OPENEYE_NAME>
ethyl aziridine-1-carboxylate

> <PUBCHEM_IUPAC_CAS_NAME>
1-aziridinecarboxylic acid ethyl ester

> <PUBCHEM_IUPAC_NAME>
ethyl aziridine-1-carboxylate

> <PUBCHEM_IUPAC_SYSTEMATIC_NAME>
ethyl aziridine-1-carboxylate

> <PUBCHEM_IUPAC_TRADITIONAL_NAME>
ethylenimine-1-carboxylic acid ethyl ester

> <PUBCHEM_IUPAC_INCHI>
InChI=1S/C5H9NO2/c1-2-8-5(7)6-3-4-6/h2-4H2,1H3

> <PUBCHEM_IUPAC_INCHIKEY>
MGPDSKXOTDLPJE-UHFFFAOYSA-N

> <PUBCHEM_XLOGP3_AA>
0.3

> <PUBCHEM_EXACT_MASS>
115.063329

> <PUBCHEM_MOLECULAR_FORMULA>
C5H9NO2

> <PUBCHEM_MOLECULAR_WEIGHT>
115.13046

> <PUBCHEM_OPENEYE_CAN_SMILES>
CCOC(=O)N1CC1

> <PUBCHEM_OPENEYE_ISO_SMILES>
CCOC(=O)N1CC1

> <PUBCHEM_CACTVS_TPSA>
29.3

> <PUBCHEM_MONOISOTOPIC_WEIGHT>
115.063329

> <PUBCHEM_TOTAL_CHARGE>
0

> <PUBCHEM_HEAVY_ATOM_COUNT>
8

> <PUBCHEM_ATOM_DEF_STEREO_COUNT>
0

> <PUBCHEM_ATOM_UDEF_STEREO_COUNT>
0

> <PUBCHEM_BOND_DEF_STEREO_COUNT>
0

> <PUBCHEM_BOND_UDEF_STEREO_COUNT>
0

> <PUBCHEM_ISOTOPIC_ATOM_COUNT>
0

> <PUBCHEM_COMPONENT_COUNT>
1

> <PUBCHEM_CACTVS_TAUTO_COUNT>
1

> <PUBCHEM_COORDINATE_TYPE>
1
5
255

$$$$

