4643
  -OEChem-06261200152D

 62 63  0     1  0  0  0  0  0999 V2000
    2.3100    0.1160    0.0000 O   0  0  0  0  0  0  0  0  0  0  0  0
    4.8100   -0.7500    0.0000 O   0  0  0  0  0  0  0  0  0  0  0  0
    4.8100    0.9821    0.0000 O   0  0  0  0  0  0  0  0  0  0  0  0
    7.3100   -1.6160    0.0000 N   0  3  0  0  0  0  0  0  0  0  0  0
    3.3100   -0.8840    0.0000 C   0  0  0  0  0  0  0  0  0  0  0  0
    2.4440   -1.3840    0.0000 C   0  0  0  0  0  0  0  0  0  0  0  0
    4.1760   -1.3840    0.0000 C   0  0  0  0  0  0  0  0  0  0  0  0
    3.3100    0.1160    0.0000 C   0  0  3  0  0  0  0  0  0  0  0  0
    4.1760   -2.3840    0.0000 C   0  0  0  0  0  0  0  0  0  0  0  0
    2.4440   -2.3840    0.0000 C   0  0  0  0  0  0  0  0  0  0  0  0
    3.3100   -2.8840    0.0000 C   0  0  0  0  0  0  0  0  0  0  0  0
    6.3100   -1.6160    0.0000 C   0  0  0  0  0  0  0  0  0  0  0  0
    8.3100   -1.6160    0.0000 C   0  0  0  0  0  0  0  0  0  0  0  0
    7.3100   -2.6160    0.0000 C   0  0  0  0  0  0  0  0  0  0  0  0
    7.3100   -0.6160    0.0000 C   0  0  0  0  0  0  0  0  0  0  0  0
    3.3100    1.1160    0.0000 C   0  0  0  0  0  0  0  0  0  0  0  0
    4.3100    0.1160    0.0000 C   0  0  0  0  0  0  0  0  0  0  0  0
    5.8100   -0.7500    0.0000 C   0  0  0  0  0  0  0  0  0  0  0  0
    8.1760   -0.1160    0.0000 C   0  0  0  0  0  0  0  0  0  0  0  0
    6.4440   -3.1160    0.0000 C   0  0  0  0  0  0  0  0  0  0  0  0
    8.8100   -2.4820    0.0000 C   0  0  0  0  0  0  0  0  0  0  0  0
    4.1760    1.6160    0.0000 C   0  0  0  0  0  0  0  0  0  0  0  0
    2.4440    1.6160    0.0000 C   0  0  0  0  0  0  0  0  0  0  0  0
    4.1760    2.6160    0.0000 C   0  0  0  0  0  0  0  0  0  0  0  0
    2.4440    2.6160    0.0000 C   0  0  0  0  0  0  0  0  0  0  0  0
    3.3100    3.1160    0.0000 C   0  0  0  0  0  0  0  0  0  0  0  0
    3.8469   -0.5740    0.0000 H   0  0  0  0  0  0  0  0  0  0  0  0
    2.2319   -0.8014    0.0000 H   0  0  0  0  0  0  0  0  0  0  0  0
    1.8334   -1.4916    0.0000 H   0  0  0  0  0  0  0  0  0  0  0  0
    4.7866   -1.4916    0.0000 H   0  0  0  0  0  0  0  0  0  0  0  0
    4.3881   -0.8014    0.0000 H   0  0  0  0  0  0  0  0  0  0  0  0
    4.3881   -2.9666    0.0000 H   0  0  0  0  0  0  0  0  0  0  0  0
    4.7866   -2.2763    0.0000 H   0  0  0  0  0  0  0  0  0  0  0  0
    1.8334   -2.2763    0.0000 H   0  0  0  0  0  0  0  0  0  0  0  0
    2.2319   -2.9666    0.0000 H   0  0  0  0  0  0  0  0  0  0  0  0
    2.9115   -3.3589    0.0000 H   0  0  0  0  0  0  0  0  0  0  0  0
    3.7085   -3.3589    0.0000 H   0  0  0  0  0  0  0  0  0  0  0  0
    5.7274   -1.8281    0.0000 H   0  0  0  0  0  0  0  0  0  0  0  0
    6.4177   -2.2266    0.0000 H   0  0  0  0  0  0  0  0  0  0  0  0
    8.8926   -1.4040    0.0000 H   0  0  0  0  0  0  0  0  0  0  0  0
    8.2023   -1.0054    0.0000 H   0  0  0  0  0  0  0  0  0  0  0  0
    7.5220   -3.1986    0.0000 H   0  0  0  0  0  0  0  0  0  0  0  0
    7.9206   -2.5084    0.0000 H   0  0  0  0  0  0  0  0  0  0  0  0
    7.0980   -0.0334    0.0000 H   0  0  0  0  0  0  0  0  0  0  0  0
    6.6994   -0.7237    0.0000 H   0  0  0  0  0  0  0  0  0  0  0  0
    6.3926   -0.5379    0.0000 H   0  0  0  0  0  0  0  0  0  0  0  0
    5.7023   -0.1394    0.0000 H   0  0  0  0  0  0  0  0  0  0  0  0
    2.0000    0.6530    0.0000 H   0  0  0  0  0  0  0  0  0  0  0  0
    8.4860   -0.6530    0.0000 H   0  0  0  0  0  0  0  0  0  0  0  0
    6.1340   -2.5791    0.0000 H   0  0  0  0  0  0  0  0  0  0  0  0
    8.2731   -2.7920    0.0000 H   0  0  0  0  0  0  0  0  0  0  0  0
    9.1200   -3.0190    0.0000 H   0  0  0  0  0  0  0  0  0  0  0  0
    9.3469   -2.1720    0.0000 H   0  0  0  0  0  0  0  0  0  0  0  0
    5.9070   -3.4260    0.0000 H   0  0  0  0  0  0  0  0  0  0  0  0
    6.7540   -3.6530    0.0000 H   0  0  0  0  0  0  0  0  0  0  0  0
    8.7130    0.1940    0.0000 H   0  0  0  0  0  0  0  0  0  0  0  0
    7.8660    0.4209    0.0000 H   0  0  0  0  0  0  0  0  0  0  0  0
    4.7130    1.3060    0.0000 H   0  0  0  0  0  0  0  0  0  0  0  0
    1.9070    1.3060    0.0000 H   0  0  0  0  0  0  0  0  0  0  0  0
    4.7130    2.9260    0.0000 H   0  0  0  0  0  0  0  0  0  0  0  0
    1.9070    2.9260    0.0000 H   0  0  0  0  0  0  0  0  0  0  0  0
    3.3100    3.7360    0.0000 H   0  0  0  0  0  0  0  0  0  0  0  0
  1  8  1  0  0  0  0
  1 48  1  0  0  0  0
  2 17  1  0  0  0  0
  2 18  1  0  0  0  0
  3 17  2  0  0  0  0
  4 12  1  0  0  0  0
  4 13  1  0  0  0  0
  4 14  1  0  0  0  0
  4 15  1  0  0  0  0
  5  6  1  0  0  0  0
  5  7  1  0  0  0  0
  5  8  1  0  0  0  0
  5 27  1  0  0  0  0
  6 10  1  0  0  0  0
  6 28  1  0  0  0  0
  6 29  1  0  0  0  0
  7  9  1  0  0  0  0
  7 30  1  0  0  0  0
  7 31  1  0  0  0  0
  8 16  1  0  0  0  0
  8 17  1  0  0  0  0
  9 11  1  0  0  0  0
  9 32  1  0  0  0  0
  9 33  1  0  0  0  0
 10 11  1  0  0  0  0
 10 34  1  0  0  0  0
 10 35  1  0  0  0  0
 11 36  1  0  0  0  0
 11 37  1  0  0  0  0
 12 18  1  0  0  0  0
 12 38  1  0  0  0  0
 12 39  1  0  0  0  0
 13 21  1  0  0  0  0
 13 40  1  0  0  0  0
 13 41  1  0  0  0  0
 14 20  1  0  0  0  0
 14 42  1  0  0  0  0
 14 43  1  0  0  0  0
 15 19  1  0  0  0  0
 15 44  1  0  0  0  0
 15 45  1  0  0  0  0
 16 22  2  0  0  0  0
 16 23  1  0  0  0  0
 18 46  1  0  0  0  0
 18 47  1  0  0  0  0
 19 49  1  0  0  0  0
 19 56  1  0  0  0  0
 19 57  1  0  0  0  0
 20 50  1  0  0  0  0
 20 54  1  0  0  0  0
 20 55  1  0  0  0  0
 21 51  1  0  0  0  0
 21 52  1  0  0  0  0
 21 53  1  0  0  0  0
 22 24  1  0  0  0  0
 22 58  1  0  0  0  0
 23 25  2  0  0  0  0
 23 59  1  0  0  0  0
 24 26  2  0  0  0  0
 24 60  1  0  0  0  0
 25 26  1  0  0  0  0
 25 61  1  0  0  0  0
 26 62  1  0  0  0  0
M  CHG  1   4   1
M  END
> <PUBCHEM_COMPOUND_CID>
4643

> <PUBCHEM_COMPOUND_CANONICALIZED>
1

> <PUBCHEM_CACTVS_COMPLEXITY>
415

> <PUBCHEM_CACTVS_HBOND_ACCEPTOR>
3

> <PUBCHEM_CACTVS_HBOND_DONOR>
1

> <PUBCHEM_CACTVS_ROTATABLE_BOND>
10

> <PUBCHEM_CACTVS_SUBSKEYS>
AAADcfB6MAAAAAAAAAAAAAAAAAAAAAAAAAAwYAAAAAAAAAABAAAAHgAACAAADUThmAYyCIMABgCIAiDSCAICAAAgAAAIiAFICIgLJjKAFRCDcAAkwAGbmAeIyOCOgAAAAAAAAAAAAAAAAAAAAAAAAAAAAA==

> <PUBCHEM_IUPAC_OPENEYE_NAME>
2-(2-cyclohexyl-2-hydroxy-2-phenyl-acetyl)oxyethyl-triethyl-ammonium

> <PUBCHEM_IUPAC_CAS_NAME>
2-(2-cyclohexyl-2-hydroxy-1-oxo-2-phenylethoxy)ethyl-triethylammonium

> <PUBCHEM_IUPAC_NAME>
2-(2-cyclohexyl-2-hydroxy-2-phenylacetyl)oxyethyl-triethylazanium

> <PUBCHEM_IUPAC_SYSTEMATIC_NAME>
2-(2-cyclohexyl-2-oxidanyl-2-phenyl-ethanoyl)oxyethyl-triethyl-azanium

> <PUBCHEM_IUPAC_TRADITIONAL_NAME>
2-(2-cyclohexyl-2-hydroxy-2-phenyl-acetyl)oxyethyl-triethyl-ammonium

> <PUBCHEM_IUPAC_INCHI>
InChI=1S/C22H36NO3/c1-4-23(5-2,6-3)17-18-26-21(24)22(25,19-13-9-7-10-14-19)20-15-11-8-12-16-20/h7,9-10,13-14,20,25H,4-6,8,11-12,15-18H2,1-3H3/q+1

> <PUBCHEM_IUPAC_INCHIKEY>
UEWAWHDATWEQQF-UHFFFAOYSA-N

> <PUBCHEM_XLOGP3_AA>
4.5

> <PUBCHEM_EXACT_MASS>
362.269519

> <PUBCHEM_MOLECULAR_FORMULA>
C22H36NO3+

> <PUBCHEM_MOLECULAR_WEIGHT>
362.52614

> <PUBCHEM_OPENEYE_CAN_SMILES>
CC[N+](CC)(CC)CCOC(=O)C(C1CCCCC1)(C2=CC=CC=C2)O

> <PUBCHEM_OPENEYE_ISO_SMILES>
CC[N+](CC)(CC)CCOC(=O)C(C1CCCCC1)(C2=CC=CC=C2)O

> <PUBCHEM_CACTVS_TPSA>
46.5

> <PUBCHEM_MONOISOTOPIC_WEIGHT>
362.269519

> <PUBCHEM_TOTAL_CHARGE>
1

> <PUBCHEM_HEAVY_ATOM_COUNT>
26

> <PUBCHEM_ATOM_DEF_STEREO_COUNT>
0

> <PUBCHEM_ATOM_UDEF_STEREO_COUNT>
1

> <PUBCHEM_BOND_DEF_STEREO_COUNT>
0

> <PUBCHEM_BOND_UDEF_STEREO_COUNT>
0

> <PUBCHEM_ISOTOPIC_ATOM_COUNT>
0

> <PUBCHEM_COMPONENT_COUNT>
1

> <PUBCHEM_CACTVS_TAUTO_COUNT>
1

> <PUBCHEM_COORDINATE_TYPE>
1
5
255

> <PUBCHEM_BONDANNOTATIONS>
8  1  3
16  22  8
16  23  8
22  24  8
23  25  8
24  26  8
25  26  8

$$$$

