17395903
  -OEChem-06241222532D

 48 49  0     1  0  0  0  0  0999 V2000
    4.5981   -4.4050    0.0000 Cl  0  0  0  0  0  0  0  0  0  0  0  0
    9.7942    2.5950    0.0000 O   0  0  0  0  0  0  0  0  0  0  0  0
    6.3301   -0.4050    0.0000 O   0  0  0  0  0  0  0  0  0  0  0  0
    2.8660   -1.4050    0.0000 O   0  0  0  0  0  0  0  0  0  0  0  0
    6.3301    1.5950    0.0000 N   0  0  0  0  0  0  0  0  0  0  0  0
    4.5981   -0.4050    0.0000 N   0  0  0  0  0  0  0  0  0  0  0  0
    8.9282    4.0950    0.0000 N   0  0  0  0  0  0  0  0  0  0  0  0
    8.0622    2.5950    0.0000 C   0  0  0  0  0  0  0  0  0  0  0  0
    7.1962    3.0950    0.0000 C   0  0  0  0  0  0  0  0  0  0  0  0
    8.0622    1.5950    0.0000 C   0  0  0  0  0  0  0  0  0  0  0  0
    7.1962    1.0950    0.0000 C   0  0  0  0  0  0  0  0  0  0  0  0
    6.3301    2.5950    0.0000 C   0  0  0  0  0  0  0  0  0  0  0  0
    5.4641    1.0950    0.0000 C   0  0  3  0  0  0  0  0  0  0  0  0
    8.9282    3.0950    0.0000 C   0  0  0  0  0  0  0  0  0  0  0  0
    4.5981    1.5950    0.0000 C   0  0  0  0  0  0  0  0  0  0  0  0
    5.4641    0.0950    0.0000 C   0  0  0  0  0  0  0  0  0  0  0  0
    4.5981   -1.4050    0.0000 C   0  0  0  0  0  0  0  0  0  0  0  0
    3.7320   -1.9050    0.0000 C   0  0  0  0  0  0  0  0  0  0  0  0
    5.4641   -1.9050    0.0000 C   0  0  0  0  0  0  0  0  0  0  0  0
    5.4641   -2.9050    0.0000 C   0  0  0  0  0  0  0  0  0  0  0  0
    3.7320   -2.9050    0.0000 C   0  0  0  0  0  0  0  0  0  0  0  0
    4.5981   -3.4050    0.0000 C   0  0  0  0  0  0  0  0  0  0  0  0
    6.3301   -3.4050    0.0000 C   0  0  0  0  0  0  0  0  0  0  0  0
    2.0000   -1.9050    0.0000 C   0  0  0  0  0  0  0  0  0  0  0  0
    8.0622    3.2150    0.0000 H   0  0  0  0  0  0  0  0  0  0  0  0
    8.2742    1.0124    0.0000 H   0  0  0  0  0  0  0  0  0  0  0  0
    8.6728    1.7027    0.0000 H   0  0  0  0  0  0  0  0  0  0  0  0
    7.5947    3.5700    0.0000 H   0  0  0  0  0  0  0  0  0  0  0  0
    6.7976    3.5700    0.0000 H   0  0  0  0  0  0  0  0  0  0  0  0
    6.7976    0.6201    0.0000 H   0  0  0  0  0  0  0  0  0  0  0  0
    7.5947    0.6201    0.0000 H   0  0  0  0  0  0  0  0  0  0  0  0
    6.1181    3.1776    0.0000 H   0  0  0  0  0  0  0  0  0  0  0  0
    5.7196    2.4873    0.0000 H   0  0  0  0  0  0  0  0  0  0  0  0
    5.4641    1.7150    0.0000 H   0  0  0  0  0  0  0  0  0  0  0  0
    4.9081    2.1319    0.0000 H   0  0  0  0  0  0  0  0  0  0  0  0
    4.0611    1.9050    0.0000 H   0  0  0  0  0  0  0  0  0  0  0  0
    4.2881    1.0581    0.0000 H   0  0  0  0  0  0  0  0  0  0  0  0
    4.0611   -0.0950    0.0000 H   0  0  0  0  0  0  0  0  0  0  0  0
    9.4651    4.4050    0.0000 H   0  0  0  0  0  0  0  0  0  0  0  0
    8.3913    4.4050    0.0000 H   0  0  0  0  0  0  0  0  0  0  0  0
    6.0010   -1.5950    0.0000 H   0  0  0  0  0  0  0  0  0  0  0  0
    3.1951   -3.2150    0.0000 H   0  0  0  0  0  0  0  0  0  0  0  0
    6.0201   -3.9419    0.0000 H   0  0  0  0  0  0  0  0  0  0  0  0
    6.8671   -3.7150    0.0000 H   0  0  0  0  0  0  0  0  0  0  0  0
    6.6401   -2.8681    0.0000 H   0  0  0  0  0  0  0  0  0  0  0  0
    1.6900   -1.3681    0.0000 H   0  0  0  0  0  0  0  0  0  0  0  0
    1.4631   -2.2150    0.0000 H   0  0  0  0  0  0  0  0  0  0  0  0
    2.3100   -2.4419    0.0000 H   0  0  0  0  0  0  0  0  0  0  0  0
  1 22  1  0  0  0  0
  2 14  2  0  0  0  0
  3 16  2  0  0  0  0
  4 18  1  0  0  0  0
  4 24  1  0  0  0  0
  5 11  1  0  0  0  0
  5 12  1  0  0  0  0
  5 13  1  0  0  0  0
  6 16  1  0  0  0  0
  6 17  1  0  0  0  0
  6 38  1  0  0  0  0
  7 14  1  0  0  0  0
  7 39  1  0  0  0  0
  7 40  1  0  0  0  0
  8  9  1  0  0  0  0
  8 10  1  0  0  0  0
  8 14  1  0  0  0  0
  8 25  1  0  0  0  0
  9 12  1  0  0  0  0
  9 28  1  0  0  0  0
  9 29  1  0  0  0  0
 10 11  1  0  0  0  0
 10 26  1  0  0  0  0
 10 27  1  0  0  0  0
 11 30  1  0  0  0  0
 11 31  1  0  0  0  0
 12 32  1  0  0  0  0
 12 33  1  0  0  0  0
 13 15  1  0  0  0  0
 13 16  1  0  0  0  0
 13 34  1  0  0  0  0
 15 35  1  0  0  0  0
 15 36  1  0  0  0  0
 15 37  1  0  0  0  0
 17 18  2  0  0  0  0
 17 19  1  0  0  0  0
 18 21  1  0  0  0  0
 19 20  2  0  0  0  0
 19 41  1  0  0  0  0
 20 22  1  0  0  0  0
 20 23  1  0  0  0  0
 21 22  2  0  0  0  0
 21 42  1  0  0  0  0
 23 43  1  0  0  0  0
 23 44  1  0  0  0  0
 23 45  1  0  0  0  0
 24 46  1  0  0  0  0
 24 47  1  0  0  0  0
 24 48  1  0  0  0  0
M  END
> <PUBCHEM_COMPOUND_CID>
17395903

> <PUBCHEM_COMPOUND_CANONICALIZED>
1

> <PUBCHEM_CACTVS_COMPLEXITY>
454

> <PUBCHEM_CACTVS_HBOND_ACCEPTOR>
4

> <PUBCHEM_CACTVS_HBOND_DONOR>
2

> <PUBCHEM_CACTVS_ROTATABLE_BOND>
5

> <PUBCHEM_CACTVS_SUBSKEYS>
AAADceB7MAAEAAAAAAAAAAAAAAAAAAAAAAA8QAAAAAAAAAABAAAAHgIQAAAADS7BmCYyxoPABACIAiVSUACCCAAhJwAAiAGPbogOZjLFs7uVMChk1BHY6AeUwAAOIABAQQABEABAAICCAAIgAAAAAAAAAA==

> <PUBCHEM_IUPAC_OPENEYE_NAME>
1-[2-(4-chloro-2-methoxy-5-methyl-anilino)-1-methyl-2-oxo-ethyl]piperidine-4-carboxamide

> <PUBCHEM_IUPAC_CAS_NAME>
1-[1-(4-chloro-2-methoxy-5-methylanilino)-1-oxopropan-2-yl]-4-piperidinecarboxamide

> <PUBCHEM_IUPAC_NAME>
1-[1-(4-chloro-2-methoxy-5-methylanilino)-1-oxopropan-2-yl]piperidine-4-carboxamide

> <PUBCHEM_IUPAC_SYSTEMATIC_NAME>
1-[1-[(4-chloranyl-2-methoxy-5-methyl-phenyl)amino]-1-oxidanylidene-propan-2-yl]piperidine-4-carboxamide

> <PUBCHEM_IUPAC_TRADITIONAL_NAME>
1-[2-(4-chloro-2-methoxy-5-methyl-anilino)-2-keto-1-methyl-ethyl]isonipecotamide

> <PUBCHEM_IUPAC_INCHI>
InChI=1S/C17H24ClN3O3/c1-10-8-14(15(24-3)9-13(10)18)20-17(23)11(2)21-6-4-12(5-7-21)16(19)22/h8-9,11-12H,4-7H2,1-3H3,(H2,19,22)(H,20,23)

> <PUBCHEM_IUPAC_INCHIKEY>
HHOOGEIFGRPCFT-UHFFFAOYSA-N

> <PUBCHEM_XLOGP3_AA>
1.9

> <PUBCHEM_EXACT_MASS>
353.150619

> <PUBCHEM_MOLECULAR_FORMULA>
C17H24ClN3O3

> <PUBCHEM_MOLECULAR_WEIGHT>
353.84376

> <PUBCHEM_OPENEYE_CAN_SMILES>
CC1=CC(=C(C=C1Cl)OC)NC(=O)C(C)N2CCC(CC2)C(=O)N

> <PUBCHEM_OPENEYE_ISO_SMILES>
CC1=CC(=C(C=C1Cl)OC)NC(=O)C(C)N2CCC(CC2)C(=O)N

> <PUBCHEM_CACTVS_TPSA>
84.7

> <PUBCHEM_MONOISOTOPIC_WEIGHT>
353.150619

> <PUBCHEM_TOTAL_CHARGE>
0

> <PUBCHEM_HEAVY_ATOM_COUNT>
24

> <PUBCHEM_ATOM_DEF_STEREO_COUNT>
0

> <PUBCHEM_ATOM_UDEF_STEREO_COUNT>
1

> <PUBCHEM_BOND_DEF_STEREO_COUNT>
0

> <PUBCHEM_BOND_UDEF_STEREO_COUNT>
0

> <PUBCHEM_ISOTOPIC_ATOM_COUNT>
0

> <PUBCHEM_COMPONENT_COUNT>
1

> <PUBCHEM_CACTVS_TAUTO_COUNT>
9

> <PUBCHEM_COORDINATE_TYPE>
1
5
255

> <PUBCHEM_BONDANNOTATIONS>
13  15  3
17  18  8
17  19  8
18  21  8
19  20  8
20  22  8
21  22  8

$$$$

