13453
  -OEChem-06261214232D

 26 27  0     0  0  0  0  0  0999 V2000
    2.8090    1.6720    0.0000 O   0  0  0  0  0  0  0  0  0  0  0  0
    8.0085   -2.0084    0.0000 O   0  0  0  0  0  0  0  0  0  0  0  0
    6.4712    1.3328    0.0000 O   0  0  0  0  0  0  0  0  0  0  0  0
    3.6180    2.2598    0.0000 C   0  0  0  0  0  0  0  0  0  0  0  0
    7.0949   -1.6017    0.0000 C   0  0  0  0  0  0  0  0  0  0  0  0
    4.5691    1.9508    0.0000 C   0  0  0  0  0  0  0  0  0  0  0  0
    6.8870   -0.6235    0.0000 C   0  0  0  0  0  0  0  0  0  0  0  0
    3.3090    3.2109    0.0000 C   0  0  0  0  0  0  0  0  0  0  0  0
    6.4258   -2.3448    0.0000 C   0  0  0  0  0  0  0  0  0  0  0  0
    4.7770    0.9726    0.0000 C   0  0  0  0  0  0  0  0  0  0  0  0
    5.9360   -0.3145    0.0000 C   0  0  0  0  0  0  0  0  0  0  0  0
    5.7281    0.6636    0.0000 C   0  0  0  0  0  0  0  0  0  0  0  0
    2.3090    3.2109    0.0000 C   0  0  0  0  0  0  0  0  0  0  0  0
    6.9258   -3.2109    0.0000 C   0  0  0  0  0  0  0  0  0  0  0  0
    2.0000    2.2598    0.0000 C   0  0  0  0  0  0  0  0  0  0  0  0
    7.9040   -3.0029    0.0000 C   0  0  0  0  0  0  0  0  0  0  0  0
    5.0298    2.3656    0.0000 H   0  0  0  0  0  0  0  0  0  0  0  0
    7.3478   -0.2087    0.0000 H   0  0  0  0  0  0  0  0  0  0  0  0
    3.6734    3.7124    0.0000 H   0  0  0  0  0  0  0  0  0  0  0  0
    5.8092   -2.2800    0.0000 H   0  0  0  0  0  0  0  0  0  0  0  0
    4.3162    0.5578    0.0000 H   0  0  0  0  0  0  0  0  0  0  0  0
    5.4752   -0.7294    0.0000 H   0  0  0  0  0  0  0  0  0  0  0  0
    1.9446    3.7124    0.0000 H   0  0  0  0  0  0  0  0  0  0  0  0
    6.6736   -3.7773    0.0000 H   0  0  0  0  0  0  0  0  0  0  0  0
    1.4103    2.0682    0.0000 H   0  0  0  0  0  0  0  0  0  0  0  0
    8.3647   -3.4178    0.0000 H   0  0  0  0  0  0  0  0  0  0  0  0
  1  4  1  0  0  0  0
  1 15  1  0  0  0  0
  2  5  1  0  0  0  0
  2 16  1  0  0  0  0
  3 12  2  0  0  0  0
  4  6  1  0  0  0  0
  4  8  2  0  0  0  0
  5  7  1  0  0  0  0
  5  9  2  0  0  0  0
  6 10  2  3  0  0  0
  6 17  1  0  0  0  0
  7 11  2  3  0  0  0
  7 18  1  0  0  0  0
  8 13  1  0  0  0  0
  8 19  1  0  0  0  0
  9 14  1  0  0  0  0
  9 20  1  0  0  0  0
 10 12  1  0  0  0  0
 10 21  1  0  0  0  0
 11 12  1  0  0  0  0
 11 22  1  0  0  0  0
 13 15  2  0  0  0  0
 13 23  1  0  0  0  0
 14 16  2  0  0  0  0
 14 24  1  0  0  0  0
 15 25  1  0  0  0  0
 16 26  1  0  0  0  0
M  END
> <PUBCHEM_COMPOUND_CID>
13453

> <PUBCHEM_COMPOUND_CANONICALIZED>
1

> <PUBCHEM_CACTVS_COMPLEXITY>
266

> <PUBCHEM_CACTVS_HBOND_ACCEPTOR>
3

> <PUBCHEM_CACTVS_HBOND_DONOR>
0

> <PUBCHEM_CACTVS_ROTATABLE_BOND>
4

> <PUBCHEM_CACTVS_SUBSKEYS>
AAADccBwMAAAAAAAAAAAAAAAAAAAASJAAAAAAAAAAAAAAAAB4AAAGgAAAAAACASgkAIwBIAABECIAKhSgAACCAAkIAAIiAEGCMgMJjKENRqCGSCkwBEIqYaIAAAAAAAAAAAAAAAAAAAAAAAAAAAAAAAAAA==

> <PUBCHEM_IUPAC_OPENEYE_NAME>
1,5-bis(2-furyl)penta-1,4-dien-3-one

> <PUBCHEM_IUPAC_CAS_NAME>
1,5-bis(2-furanyl)-3-penta-1,4-dienone

> <PUBCHEM_IUPAC_NAME>
1,5-bis(furan-2-yl)penta-1,4-dien-3-one

> <PUBCHEM_IUPAC_SYSTEMATIC_NAME>
1,5-bis(furan-2-yl)penta-1,4-dien-3-one

> <PUBCHEM_IUPAC_TRADITIONAL_NAME>
1,5-bis(2-furyl)penta-1,4-dien-3-one

> <PUBCHEM_IUPAC_INCHI>
InChI=1S/C13H10O3/c14-11(5-7-12-3-1-9-15-12)6-8-13-4-2-10-16-13/h1-10H

> <PUBCHEM_IUPAC_INCHIKEY>
XOOFLVNFEPIPIW-UHFFFAOYSA-N

> <PUBCHEM_XLOGP3>
2.5

> <PUBCHEM_EXACT_MASS>
214.062994

> <PUBCHEM_MOLECULAR_FORMULA>
C13H10O3

> <PUBCHEM_MOLECULAR_WEIGHT>
214.2167

> <PUBCHEM_OPENEYE_CAN_SMILES>
C1=COC(=C1)C=CC(=O)C=CC2=CC=CO2

> <PUBCHEM_OPENEYE_ISO_SMILES>
C1=COC(=C1)C=CC(=O)C=CC2=CC=CO2

> <PUBCHEM_CACTVS_TPSA>
43.4

> <PUBCHEM_MONOISOTOPIC_WEIGHT>
214.062994

> <PUBCHEM_TOTAL_CHARGE>
0

> <PUBCHEM_HEAVY_ATOM_COUNT>
16

> <PUBCHEM_ATOM_DEF_STEREO_COUNT>
0

> <PUBCHEM_ATOM_UDEF_STEREO_COUNT>
0

> <PUBCHEM_BOND_DEF_STEREO_COUNT>
0

> <PUBCHEM_BOND_UDEF_STEREO_COUNT>
2

> <PUBCHEM_ISOTOPIC_ATOM_COUNT>
0

> <PUBCHEM_COMPONENT_COUNT>
1

> <PUBCHEM_CACTVS_TAUTO_COUNT>
1

> <PUBCHEM_COORDINATE_TYPE>
1
5
255

> <PUBCHEM_BONDANNOTATIONS>
1  15  8
1  4  8
13  15  8
14  16  8
2  16  8
2  5  8
4  8  8
5  9  8
6  10  1
7  11  1
8  13  8
9  14  8

$$$$

