854341
  -OEChem-06241222482D

 24 25  0     0  0  0  0  0  0999 V2000
    7.7619   -0.6970    0.0000 O   0  0  0  0  0  0  0  0  0  0  0  0
    6.2619   -1.5630    0.0000 O   0  0  0  0  0  0  0  0  0  0  0  0
    4.6783    0.9737    0.0000 N   0  0  0  0  0  0  0  0  0  0  0  0
    4.6783   -0.6357    0.0000 N   0  0  0  0  0  0  0  0  0  0  0  0
    3.7320    0.6690    0.0000 C   0  0  0  0  0  0  0  0  0  0  0  0
    5.2619    0.1690    0.0000 C   0  0  0  0  0  0  0  0  0  0  0  0
    3.7320   -0.3310    0.0000 C   0  0  0  0  0  0  0  0  0  0  0  0
    6.2619    0.1690    0.0000 C   0  0  0  0  0  0  0  0  0  0  0  0
    2.8660    1.1690    0.0000 C   0  0  0  0  0  0  0  0  0  0  0  0
    2.8660   -0.8310    0.0000 C   0  0  0  0  0  0  0  0  0  0  0  0
    2.0000    0.6690    0.0000 C   0  0  0  0  0  0  0  0  0  0  0  0
    2.0000   -0.3310    0.0000 C   0  0  0  0  0  0  0  0  0  0  0  0
    6.7619   -0.6970    0.0000 C   0  0  0  0  0  0  0  0  0  0  0  0
    8.2619   -1.5630    0.0000 C   0  0  0  0  0  0  0  0  0  0  0  0
    4.8709    1.5630    0.0000 H   0  0  0  0  0  0  0  0  0  0  0  0
    6.8445    0.3810    0.0000 H   0  0  0  0  0  0  0  0  0  0  0  0
    6.1542    0.7796    0.0000 H   0  0  0  0  0  0  0  0  0  0  0  0
    2.8660    1.7890    0.0000 H   0  0  0  0  0  0  0  0  0  0  0  0
    2.8660   -1.4510    0.0000 H   0  0  0  0  0  0  0  0  0  0  0  0
    1.4631    0.9790    0.0000 H   0  0  0  0  0  0  0  0  0  0  0  0
    1.4631   -0.6410    0.0000 H   0  0  0  0  0  0  0  0  0  0  0  0
    7.7249   -1.8730    0.0000 H   0  0  0  0  0  0  0  0  0  0  0  0
    8.5719   -2.1000    0.0000 H   0  0  0  0  0  0  0  0  0  0  0  0
    8.7988   -1.2530    0.0000 H   0  0  0  0  0  0  0  0  0  0  0  0
  1 13  1  0  0  0  0
  1 14  1  0  0  0  0
  2 13  2  0  0  0  0
  3  5  1  0  0  0  0
  3  6  1  0  0  0  0
  3 15  1  0  0  0  0
  4  6  2  0  0  0  0
  4  7  1  0  0  0  0
  5  7  1  0  0  0  0
  5  9  2  0  0  0  0
  6  8  1  0  0  0  0
  7 10  2  0  0  0  0
  8 13  1  0  0  0  0
  8 16  1  0  0  0  0
  8 17  1  0  0  0  0
  9 11  1  0  0  0  0
  9 18  1  0  0  0  0
 10 12  1  0  0  0  0
 10 19  1  0  0  0  0
 11 12  2  0  0  0  0
 11 20  1  0  0  0  0
 12 21  1  0  0  0  0
 14 22  1  0  0  0  0
 14 23  1  0  0  0  0
 14 24  1  0  0  0  0
M  END
> <PUBCHEM_COMPOUND_CID>
854341

> <PUBCHEM_COMPOUND_CANONICALIZED>
1

> <PUBCHEM_CACTVS_COMPLEXITY>
220

> <PUBCHEM_CACTVS_HBOND_ACCEPTOR>
3

> <PUBCHEM_CACTVS_HBOND_DONOR>
1

> <PUBCHEM_CACTVS_ROTATABLE_BOND>
3

> <PUBCHEM_CACTVS_SUBSKEYS>
AAADccBzMAAAAAAAAAAAAAAAAAAAAWAAAAAwAAAAAAAAAFgB8AAAHgAQAAAACAiBlwIz2LbJlACoASbybACCgC2hEqAJmSEwdJiIaKrAmZGUIAhqkALIyCcQAAAAAAAAAAAAACAAAAAAAAAAQAAAAAAAAA==

> <PUBCHEM_IUPAC_OPENEYE_NAME>
methyl 2-(1H-benzimidazol-2-yl)acetate

> <PUBCHEM_IUPAC_CAS_NAME>
2-(1H-benzimidazol-2-yl)acetic acid methyl ester

> <PUBCHEM_IUPAC_NAME>
methyl 2-(1H-benzimidazol-2-yl)acetate

> <PUBCHEM_IUPAC_SYSTEMATIC_NAME>
methyl 2-(1H-benzimidazol-2-yl)ethanoate

> <PUBCHEM_IUPAC_TRADITIONAL_NAME>
2-(1H-benzimidazol-2-yl)acetic acid methyl ester

> <PUBCHEM_IUPAC_INCHI>
InChI=1S/C10H10N2O2/c1-14-10(13)6-9-11-7-4-2-3-5-8(7)12-9/h2-5H,6H2,1H3,(H,11,12)

> <PUBCHEM_IUPAC_INCHIKEY>
XRCSXYDSFRSLEX-UHFFFAOYSA-N

> <PUBCHEM_XLOGP3>
1.6

> <PUBCHEM_EXACT_MASS>
190.074228

> <PUBCHEM_MOLECULAR_FORMULA>
C10H10N2O2

> <PUBCHEM_MOLECULAR_WEIGHT>
190.1986

> <PUBCHEM_OPENEYE_CAN_SMILES>
COC(=O)CC1=NC2=CC=CC=C2N1

> <PUBCHEM_OPENEYE_ISO_SMILES>
COC(=O)CC1=NC2=CC=CC=C2N1

> <PUBCHEM_CACTVS_TPSA>
55

> <PUBCHEM_MONOISOTOPIC_WEIGHT>
190.074228

> <PUBCHEM_TOTAL_CHARGE>
0

> <PUBCHEM_HEAVY_ATOM_COUNT>
14

> <PUBCHEM_ATOM_DEF_STEREO_COUNT>
0

> <PUBCHEM_ATOM_UDEF_STEREO_COUNT>
0

> <PUBCHEM_BOND_DEF_STEREO_COUNT>
0

> <PUBCHEM_BOND_UDEF_STEREO_COUNT>
0

> <PUBCHEM_ISOTOPIC_ATOM_COUNT>
0

> <PUBCHEM_COMPONENT_COUNT>
1

> <PUBCHEM_CACTVS_TAUTO_COUNT>
3

> <PUBCHEM_COORDINATE_TYPE>
1
5
255

> <PUBCHEM_BONDANNOTATIONS>
10  12  8
11  12  8
3  5  8
3  6  8
4  6  8
4  7  8
5  7  8
5  9  8
7  10  8
9  11  8

$$$$

