17395343
  -OEChem-06241222492D

 46 47  0     0  0  0  0  0  0999 V2000
    5.6915    3.8234    0.0000 O   0  0  0  0  0  0  0  0  0  0  0  0
    7.4516    0.7748    0.0000 O   0  0  0  0  0  0  0  0  0  0  0  0
    5.4641   -1.3403    0.0000 O   0  0  0  0  0  0  0  0  0  0  0  0
    6.3301    2.1597    0.0000 N   0  0  0  0  0  0  0  0  0  0  0  0
    7.9128    2.4961    0.0000 N   0  0  0  0  0  0  0  0  0  0  0  0
    3.7320   -1.3403    0.0000 N   0  0  0  0  0  0  0  0  0  0  0  0
    7.4128    3.3621    0.0000 C   0  0  0  0  0  0  0  0  0  0  0  0
    6.4347    3.1542    0.0000 C   0  0  0  0  0  0  0  0  0  0  0  0
    5.4641    1.6597    0.0000 C   0  0  0  0  0  0  0  0  0  0  0  0
    7.2437    1.7530    0.0000 C   0  0  0  0  0  0  0  0  0  0  0  0
    8.2788    3.8621    0.0000 C   0  0  0  0  0  0  0  0  0  0  0  0
    7.2049    4.3403    0.0000 C   0  0  0  0  0  0  0  0  0  0  0  0
    5.4641    0.6597    0.0000 C   0  0  0  0  0  0  0  0  0  0  0  0
    4.5981    0.1597    0.0000 C   0  0  0  0  0  0  0  0  0  0  0  0
    4.5981   -0.8403    0.0000 C   0  0  0  0  0  0  0  0  0  0  0  0
    3.7320   -2.3403    0.0000 C   0  0  0  0  0  0  0  0  0  0  0  0
    2.8660   -2.8403    0.0000 C   0  0  0  0  0  0  0  0  0  0  0  0
    4.5981   -2.8403    0.0000 C   0  0  0  0  0  0  0  0  0  0  0  0
    2.8660   -3.8403    0.0000 C   0  0  0  0  0  0  0  0  0  0  0  0
    4.5981   -3.8403    0.0000 C   0  0  0  0  0  0  0  0  0  0  0  0
    3.7320   -4.3403    0.0000 C   0  0  0  0  0  0  0  0  0  0  0  0
    2.0000   -4.3403    0.0000 C   0  0  0  0  0  0  0  0  0  0  0  0
    5.4641   -4.3403    0.0000 C   0  0  0  0  0  0  0  0  0  0  0  0
    8.5294    2.4313    0.0000 H   0  0  0  0  0  0  0  0  0  0  0  0
    5.2520    2.2423    0.0000 H   0  0  0  0  0  0  0  0  0  0  0  0
    4.8535    1.5520    0.0000 H   0  0  0  0  0  0  0  0  0  0  0  0
    8.5888    3.3252    0.0000 H   0  0  0  0  0  0  0  0  0  0  0  0
    8.8158    4.1721    0.0000 H   0  0  0  0  0  0  0  0  0  0  0  0
    7.9688    4.3991    0.0000 H   0  0  0  0  0  0  0  0  0  0  0  0
    7.8113    4.4692    0.0000 H   0  0  0  0  0  0  0  0  0  0  0  0
    7.0760    4.9467    0.0000 H   0  0  0  0  0  0  0  0  0  0  0  0
    6.5984    4.2114    0.0000 H   0  0  0  0  0  0  0  0  0  0  0  0
    5.6762    0.0771    0.0000 H   0  0  0  0  0  0  0  0  0  0  0  0
    6.0747    0.7674    0.0000 H   0  0  0  0  0  0  0  0  0  0  0  0
    4.3860    0.7423    0.0000 H   0  0  0  0  0  0  0  0  0  0  0  0
    3.9875    0.0520    0.0000 H   0  0  0  0  0  0  0  0  0  0  0  0
    3.1951   -1.0303    0.0000 H   0  0  0  0  0  0  0  0  0  0  0  0
    2.3291   -2.5303    0.0000 H   0  0  0  0  0  0  0  0  0  0  0  0
    5.1350   -2.5303    0.0000 H   0  0  0  0  0  0  0  0  0  0  0  0
    3.7320   -4.9603    0.0000 H   0  0  0  0  0  0  0  0  0  0  0  0
    1.6900   -3.8034    0.0000 H   0  0  0  0  0  0  0  0  0  0  0  0
    1.4631   -4.6503    0.0000 H   0  0  0  0  0  0  0  0  0  0  0  0
    2.3100   -4.8772    0.0000 H   0  0  0  0  0  0  0  0  0  0  0  0
    5.1541   -4.8772    0.0000 H   0  0  0  0  0  0  0  0  0  0  0  0
    6.0010   -4.6503    0.0000 H   0  0  0  0  0  0  0  0  0  0  0  0
    5.7741   -3.8034    0.0000 H   0  0  0  0  0  0  0  0  0  0  0  0
  1  8  2  0  0  0  0
  2 10  2  0  0  0  0
  3 15  2  0  0  0  0
  4  8  1  0  0  0  0
  4  9  1  0  0  0  0
  4 10  1  0  0  0  0
  5  7  1  0  0  0  0
  5 10  1  0  0  0  0
  5 24  1  0  0  0  0
  6 15  1  0  0  0  0
  6 16  1  0  0  0  0
  6 37  1  0  0  0  0
  7  8  1  0  0  0  0
  7 11  1  0  0  0  0
  7 12  1  0  0  0  0
  9 13  1  0  0  0  0
  9 25  1  0  0  0  0
  9 26  1  0  0  0  0
 11 27  1  0  0  0  0
 11 28  1  0  0  0  0
 11 29  1  0  0  0  0
 12 30  1  0  0  0  0
 12 31  1  0  0  0  0
 12 32  1  0  0  0  0
 13 14  1  0  0  0  0
 13 33  1  0  0  0  0
 13 34  1  0  0  0  0
 14 15  1  0  0  0  0
 14 35  1  0  0  0  0
 14 36  1  0  0  0  0
 16 17  2  0  0  0  0
 16 18  1  0  0  0  0
 17 19  1  0  0  0  0
 17 38  1  0  0  0  0
 18 20  2  0  0  0  0
 18 39  1  0  0  0  0
 19 21  2  0  0  0  0
 19 22  1  0  0  0  0
 20 21  1  0  0  0  0
 20 23  1  0  0  0  0
 21 40  1  0  0  0  0
 22 41  1  0  0  0  0
 22 42  1  0  0  0  0
 22 43  1  0  0  0  0
 23 44  1  0  0  0  0
 23 45  1  0  0  0  0
 23 46  1  0  0  0  0
M  END
> <PUBCHEM_COMPOUND_CID>
17395343

> <PUBCHEM_COMPOUND_CANONICALIZED>
1

> <PUBCHEM_CACTVS_COMPLEXITY>
480

> <PUBCHEM_CACTVS_HBOND_ACCEPTOR>
3

> <PUBCHEM_CACTVS_HBOND_DONOR>
2

> <PUBCHEM_CACTVS_ROTATABLE_BOND>
5

> <PUBCHEM_CACTVS_SUBSKEYS>
AAADceB7MAAAAAAAAAAAAAAAAAAAAWAAAAAwAAAAAAAAAAABAAAAHgAQAAAADIjBmAQzwIPAAACIAiVSUACCAAAhAgAAiAGIZIiIYDLAkbGUIAholyLIyAcUgEAOAAACQAAAAAAAAASAAAAAAAAAAAAAAA==

> <PUBCHEM_IUPAC_OPENEYE_NAME>
4-(4,4-dimethyl-2,5-dioxo-imidazolidin-1-yl)-N-(3,5-dimethylphenyl)butanamide

> <PUBCHEM_IUPAC_CAS_NAME>
4-(4,4-dimethyl-2,5-dioxo-1-imidazolidinyl)-N-(3,5-dimethylphenyl)butanamide

> <PUBCHEM_IUPAC_NAME>
4-(4,4-dimethyl-2,5-dioxoimidazolidin-1-yl)-N-(3,5-dimethylphenyl)butanamide

> <PUBCHEM_IUPAC_SYSTEMATIC_NAME>
4-[4,4-dimethyl-2,5-bis(oxidanylidene)imidazolidin-1-yl]-N-(3,5-dimethylphenyl)butanamide

> <PUBCHEM_IUPAC_TRADITIONAL_NAME>
4-(2,5-diketo-4,4-dimethyl-imidazolidin-1-yl)-N-(3,5-dimethylphenyl)butyramide

> <PUBCHEM_IUPAC_INCHI>
InChI=1S/C17H23N3O3/c1-11-8-12(2)10-13(9-11)18-14(21)6-5-7-20-15(22)17(3,4)19-16(20)23/h8-10H,5-7H2,1-4H3,(H,18,21)(H,19,23)

> <PUBCHEM_IUPAC_INCHIKEY>
QSNKDKVPVAQJQS-UHFFFAOYSA-N

> <PUBCHEM_XLOGP3_AA>
1.6

> <PUBCHEM_EXACT_MASS>
317.173942

> <PUBCHEM_MOLECULAR_FORMULA>
C17H23N3O3

> <PUBCHEM_MOLECULAR_WEIGHT>
317.38282

> <PUBCHEM_OPENEYE_CAN_SMILES>
CC1=CC(=CC(=C1)NC(=O)CCCN2C(=O)C(NC2=O)(C)C)C

> <PUBCHEM_OPENEYE_ISO_SMILES>
CC1=CC(=CC(=C1)NC(=O)CCCN2C(=O)C(NC2=O)(C)C)C

> <PUBCHEM_CACTVS_TPSA>
78.5

> <PUBCHEM_MONOISOTOPIC_WEIGHT>
317.173942

> <PUBCHEM_TOTAL_CHARGE>
0

> <PUBCHEM_HEAVY_ATOM_COUNT>
23

> <PUBCHEM_ATOM_DEF_STEREO_COUNT>
0

> <PUBCHEM_ATOM_UDEF_STEREO_COUNT>
0

> <PUBCHEM_BOND_DEF_STEREO_COUNT>
0

> <PUBCHEM_BOND_UDEF_STEREO_COUNT>
0

> <PUBCHEM_ISOTOPIC_ATOM_COUNT>
0

> <PUBCHEM_COMPONENT_COUNT>
1

> <PUBCHEM_CACTVS_TAUTO_COUNT>
6

> <PUBCHEM_COORDINATE_TYPE>
1
5
255

> <PUBCHEM_BONDANNOTATIONS>
16  17  8
16  18  8
17  19  8
18  20  8
19  21  8
20  21  8

$$$$

