17396079
  -OEChem-06241222542D

 56 59  0     0  0  0  0  0  0999 V2000
    2.0000   -5.2694    0.0000 Cl  0  0  0  0  0  0  0  0  0  0  0  0
    3.7320   -2.2694    0.0000 S   0  0  0  0  0  0  0  0  0  0  0  0
    6.3871    5.3184    0.0000 S   0  0  0  0  0  0  0  0  0  0  0  0
    3.7320   -6.2694    0.0000 F   0  0  0  0  0  0  0  0  0  0  0  0
    2.8660    2.2306    0.0000 O   0  0  0  0  0  0  0  0  0  0  0  0
    2.7320   -2.2694    0.0000 O   0  0  0  0  0  0  0  0  0  0  0  0
    4.7320   -2.2694    0.0000 O   0  0  0  0  0  0  0  0  0  0  0  0
    3.7320   -1.2694    0.0000 N   0  0  0  0  0  0  0  0  0  0  0  0
    4.5981    2.2306    0.0000 N   0  0  0  0  0  0  0  0  0  0  0  0
    6.3301    3.2306    0.0000 N   0  0  0  0  0  0  0  0  0  0  0  0
    3.7320    0.7306    0.0000 C   0  0  0  0  0  0  0  0  0  0  0  0
    2.8660    0.2306    0.0000 C   0  0  0  0  0  0  0  0  0  0  0  0
    4.5981    0.2306    0.0000 C   0  0  0  0  0  0  0  0  0  0  0  0
    2.8660   -0.7694    0.0000 C   0  0  0  0  0  0  0  0  0  0  0  0
    4.5981   -0.7694    0.0000 C   0  0  0  0  0  0  0  0  0  0  0  0
    3.7320    1.7306    0.0000 C   0  0  0  0  0  0  0  0  0  0  0  0
    5.4641    1.7306    0.0000 C   0  0  0  0  0  0  0  0  0  0  0  0
    4.5981    3.2306    0.0000 C   0  0  0  0  0  0  0  0  0  0  0  0
    6.3301    2.2306    0.0000 C   0  0  0  0  0  0  0  0  0  0  0  0
    5.4641    3.7306    0.0000 C   0  0  0  0  0  0  0  0  0  0  0  0
    7.1962    3.7306    0.0000 C   0  0  0  0  0  0  0  0  0  0  0  0
    3.7320   -3.2694    0.0000 C   0  0  0  0  0  0  0  0  0  0  0  0
    7.1962    4.7306    0.0000 C   0  0  0  0  0  0  0  0  0  0  0  0
    2.8660   -3.7694    0.0000 C   0  0  0  0  0  0  0  0  0  0  0  0
    4.5981   -3.7694    0.0000 C   0  0  0  0  0  0  0  0  0  0  0  0
    8.0052    5.3184    0.0000 C   0  0  0  0  0  0  0  0  0  0  0  0
    2.8660   -4.7694    0.0000 C   0  0  0  0  0  0  0  0  0  0  0  0
    4.5981   -4.7694    0.0000 C   0  0  0  0  0  0  0  0  0  0  0  0
    3.7320   -5.2694    0.0000 C   0  0  0  0  0  0  0  0  0  0  0  0
    7.6962    6.2694    0.0000 C   0  0  0  0  0  0  0  0  0  0  0  0
    6.6962    6.2694    0.0000 C   0  0  0  0  0  0  0  0  0  0  0  0
    4.2690    1.0406    0.0000 H   0  0  0  0  0  0  0  0  0  0  0  0
    2.6540    0.8132    0.0000 H   0  0  0  0  0  0  0  0  0  0  0  0
    2.2554    0.1229    0.0000 H   0  0  0  0  0  0  0  0  0  0  0  0
    5.2087    0.1229    0.0000 H   0  0  0  0  0  0  0  0  0  0  0  0
    4.8101    0.8132    0.0000 H   0  0  0  0  0  0  0  0  0  0  0  0
    4.8101   -1.3520    0.0000 H   0  0  0  0  0  0  0  0  0  0  0  0
    5.2087   -0.6618    0.0000 H   0  0  0  0  0  0  0  0  0  0  0  0
    2.2554   -0.6618    0.0000 H   0  0  0  0  0  0  0  0  0  0  0  0
    2.6540   -1.3520    0.0000 H   0  0  0  0  0  0  0  0  0  0  0  0
    4.3860    3.8132    0.0000 H   0  0  0  0  0  0  0  0  0  0  0  0
    5.0656    1.2556    0.0000 H   0  0  0  0  0  0  0  0  0  0  0  0
    5.8626    1.2556    0.0000 H   0  0  0  0  0  0  0  0  0  0  0  0
    3.9875    3.1229    0.0000 H   0  0  0  0  0  0  0  0  0  0  0  0
    5.8626    4.2055    0.0000 H   0  0  0  0  0  0  0  0  0  0  0  0
    5.0656    4.2055    0.0000 H   0  0  0  0  0  0  0  0  0  0  0  0
    6.5422    1.6480    0.0000 H   0  0  0  0  0  0  0  0  0  0  0  0
    6.9407    2.3382    0.0000 H   0  0  0  0  0  0  0  0  0  0  0  0
    7.4082    3.1480    0.0000 H   0  0  0  0  0  0  0  0  0  0  0  0
    7.8067    3.8382    0.0000 H   0  0  0  0  0  0  0  0  0  0  0  0
    2.3291   -3.4594    0.0000 H   0  0  0  0  0  0  0  0  0  0  0  0
    5.1350   -3.4594    0.0000 H   0  0  0  0  0  0  0  0  0  0  0  0
    8.5948    5.1268    0.0000 H   0  0  0  0  0  0  0  0  0  0  0  0
    5.1350   -5.0794    0.0000 H   0  0  0  0  0  0  0  0  0  0  0  0
    8.0606    6.7710    0.0000 H   0  0  0  0  0  0  0  0  0  0  0  0
    6.3317    6.7710    0.0000 H   0  0  0  0  0  0  0  0  0  0  0  0
  1 27  1  0  0  0  0
  2  6  2  0  0  0  0
  2  7  2  0  0  0  0
  2  8  1  0  0  0  0
  2 22  1  0  0  0  0
  3 23  1  0  0  0  0
  3 31  1  0  0  0  0
  4 29  1  0  0  0  0
  5 16  2  0  0  0  0
  8 14  1  0  0  0  0
  8 15  1  0  0  0  0
  9 16  1  0  0  0  0
  9 17  1  0  0  0  0
  9 18  1  0  0  0  0
 10 19  1  0  0  0  0
 10 20  1  0  0  0  0
 10 21  1  0  0  0  0
 11 12  1  0  0  0  0
 11 13  1  0  0  0  0
 11 16  1  0  0  0  0
 11 32  1  0  0  0  0
 12 14  1  0  0  0  0
 12 33  1  0  0  0  0
 12 34  1  0  0  0  0
 13 15  1  0  0  0  0
 13 35  1  0  0  0  0
 13 36  1  0  0  0  0
 14 39  1  0  0  0  0
 14 40  1  0  0  0  0
 15 37  1  0  0  0  0
 15 38  1  0  0  0  0
 17 19  1  0  0  0  0
 17 42  1  0  0  0  0
 17 43  1  0  0  0  0
 18 20  1  0  0  0  0
 18 41  1  0  0  0  0
 18 44  1  0  0  0  0
 19 47  1  0  0  0  0
 19 48  1  0  0  0  0
 20 45  1  0  0  0  0
 20 46  1  0  0  0  0
 21 23  1  0  0  0  0
 21 49  1  0  0  0  0
 21 50  1  0  0  0  0
 22 24  2  0  0  0  0
 22 25  1  0  0  0  0
 23 26  2  0  0  0  0
 24 27  1  0  0  0  0
 24 51  1  0  0  0  0
 25 28  2  0  0  0  0
 25 52  1  0  0  0  0
 26 30  1  0  0  0  0
 26 53  1  0  0  0  0
 27 29  2  0  0  0  0
 28 29  1  0  0  0  0
 28 54  1  0  0  0  0
 30 31  2  0  0  0  0
 30 55  1  0  0  0  0
 31 56  1  0  0  0  0
M  END
> <PUBCHEM_COMPOUND_CID>
17396079

> <PUBCHEM_COMPOUND_CANONICALIZED>
1

> <PUBCHEM_CACTVS_COMPLEXITY>
722

> <PUBCHEM_CACTVS_HBOND_ACCEPTOR>
7

> <PUBCHEM_CACTVS_HBOND_DONOR>
0

> <PUBCHEM_CACTVS_ROTATABLE_BOND>
5

> <PUBCHEM_CACTVS_SUBSKEYS>
AAADceB7MQBkAAAAAAAAAAAAAAAAASAAAAA8WIAAAAAAAAABwAAAHwYAQAAADQLF0CywAYMAAAqMACFSEHDDAJAgDRBIiBkIBogIYDKhkxGUIAhghgCoiAcUAAAKAAAAABAAAAAAAAAAIAAAAAAAAAAAAA==

> <PUBCHEM_IUPAC_OPENEYE_NAME>
[1-(3-chloro-4-fluoro-phenyl)sulfonyl-4-piperidyl]-[4-(2-thienylmethyl)piperazin-1-yl]methanone

> <PUBCHEM_IUPAC_CAS_NAME>
[1-(3-chloro-4-fluorophenyl)sulfonyl-4-piperidinyl]-[4-(thiophen-2-ylmethyl)-1-piperazinyl]methanone

> <PUBCHEM_IUPAC_NAME>
[1-(3-chloro-4-fluorophenyl)sulfonylpiperidin-4-yl]-[4-(thiophen-2-ylmethyl)piperazin-1-yl]methanone

> <PUBCHEM_IUPAC_SYSTEMATIC_NAME>
[1-(3-chloranyl-4-fluoranyl-phenyl)sulfonylpiperidin-4-yl]-[4-(thiophen-2-ylmethyl)piperazin-1-yl]methanone

> <PUBCHEM_IUPAC_TRADITIONAL_NAME>
[1-(3-chloro-4-fluoro-phenyl)sulfonyl-4-piperidyl]-[4-(2-thenyl)piperazino]methanone

> <PUBCHEM_IUPAC_INCHI>
InChI=1S/C21H25ClFN3O3S2/c22-19-14-18(3-4-20(19)23)31(28,29)26-7-5-16(6-8-26)21(27)25-11-9-24(10-12-25)15-17-2-1-13-30-17/h1-4,13-14,16H,5-12,15H2

> <PUBCHEM_IUPAC_INCHIKEY>
YHOAVPZVQILYSJ-UHFFFAOYSA-N

> <PUBCHEM_XLOGP3_AA>
2.8

> <PUBCHEM_EXACT_MASS>
485.10099

> <PUBCHEM_MOLECULAR_FORMULA>
C21H25ClFN3O3S2

> <PUBCHEM_MOLECULAR_WEIGHT>
486.022903

> <PUBCHEM_OPENEYE_CAN_SMILES>
C1CN(CCC1C(=O)N2CCN(CC2)CC3=CC=CS3)S(=O)(=O)C4=CC(=C(C=C4)F)Cl

> <PUBCHEM_OPENEYE_ISO_SMILES>
C1CN(CCC1C(=O)N2CCN(CC2)CC3=CC=CS3)S(=O)(=O)C4=CC(=C(C=C4)F)Cl

> <PUBCHEM_CACTVS_TPSA>
97.6

> <PUBCHEM_MONOISOTOPIC_WEIGHT>
485.10099

> <PUBCHEM_TOTAL_CHARGE>
0

> <PUBCHEM_HEAVY_ATOM_COUNT>
31

> <PUBCHEM_ATOM_DEF_STEREO_COUNT>
0

> <PUBCHEM_ATOM_UDEF_STEREO_COUNT>
0

> <PUBCHEM_BOND_DEF_STEREO_COUNT>
0

> <PUBCHEM_BOND_UDEF_STEREO_COUNT>
0

> <PUBCHEM_ISOTOPIC_ATOM_COUNT>
0

> <PUBCHEM_COMPONENT_COUNT>
1

> <PUBCHEM_CACTVS_TAUTO_COUNT>
1

> <PUBCHEM_COORDINATE_TYPE>
1
5
255

> <PUBCHEM_BONDANNOTATIONS>
22  24  8
22  25  8
23  26  8
24  27  8
25  28  8
26  30  8
27  29  8
28  29  8
3  23  8
3  31  8
30  31  8

$$$$

