51090895
  -OEChem-06241223002D

 42 43  0     1  0  0  0  0  0999 V2000
    2.0000    2.6651    0.0000 Cl  0  0  0  0  0  0  0  0  0  0  0  0
   10.1279   -0.0670    0.0000 O   0  0  0  0  0  0  0  0  0  0  0  0
   12.1279   -1.7990    0.0000 O   0  0  0  0  0  0  0  0  0  0  0  0
    9.1279    1.6651    0.0000 O   0  0  0  0  0  0  0  0  0  0  0  0
    4.5981    2.1651    0.0000 N   0  0  0  0  0  0  0  0  0  0  0  0
    7.6279    0.7990    0.0000 N   0  0  0  0  0  0  0  0  0  0  0  0
    5.5443    0.8603    0.0000 N   0  0  0  0  0  0  0  0  0  0  0  0
    9.1279   -0.0670    0.0000 C   0  0  3  0  0  0  0  0  0  0  0  0
    7.1279    1.6651    0.0000 C   0  0  0  0  0  0  0  0  0  0  0  0
    6.1279    1.6651    0.0000 C   0  0  0  0  0  0  0  0  0  0  0  0
    4.5981    1.1651    0.0000 C   0  0  0  0  0  0  0  0  0  0  0  0
    5.5443    2.4698    0.0000 C   0  0  0  0  0  0  0  0  0  0  0  0
    8.6279    0.7990    0.0000 C   0  0  0  0  0  0  0  0  0  0  0  0
   10.6279   -0.9330    0.0000 C   0  0  0  0  0  0  0  0  0  0  0  0
    8.6279   -0.9330    0.0000 C   0  0  0  0  0  0  0  0  0  0  0  0
    3.7320    2.6651    0.0000 C   0  0  0  0  0  0  0  0  0  0  0  0
   11.6279   -0.9330    0.0000 C   0  0  0  0  0  0  0  0  0  0  0  0
    3.7320    0.6651    0.0000 C   0  0  0  0  0  0  0  0  0  0  0  0
    2.8660    2.1651    0.0000 C   0  0  0  0  0  0  0  0  0  0  0  0
    2.8660    1.1651    0.0000 C   0  0  0  0  0  0  0  0  0  0  0  0
   13.1279   -1.7990    0.0000 C   0  0  0  0  0  0  0  0  0  0  0  0
   13.6279   -2.6651    0.0000 C   0  0  0  0  0  0  0  0  0  0  0  0
    9.4379    0.4699    0.0000 H   0  0  0  0  0  0  0  0  0  0  0  0
    7.7105    1.8771    0.0000 H   0  0  0  0  0  0  0  0  0  0  0  0
    7.0202    2.2756    0.0000 H   0  0  0  0  0  0  0  0  0  0  0  0
    5.7369    3.0591    0.0000 H   0  0  0  0  0  0  0  0  0  0  0  0
    7.3179    0.2621    0.0000 H   0  0  0  0  0  0  0  0  0  0  0  0
   10.0453   -1.1451    0.0000 H   0  0  0  0  0  0  0  0  0  0  0  0
   10.7356   -1.5436    0.0000 H   0  0  0  0  0  0  0  0  0  0  0  0
    8.0910   -0.6230    0.0000 H   0  0  0  0  0  0  0  0  0  0  0  0
    8.3179   -1.4700    0.0000 H   0  0  0  0  0  0  0  0  0  0  0  0
    9.1648   -1.2430    0.0000 H   0  0  0  0  0  0  0  0  0  0  0  0
    3.7320    3.2851    0.0000 H   0  0  0  0  0  0  0  0  0  0  0  0
   12.2105   -0.7210    0.0000 H   0  0  0  0  0  0  0  0  0  0  0  0
   11.5202   -0.3224    0.0000 H   0  0  0  0  0  0  0  0  0  0  0  0
    3.7320    0.0451    0.0000 H   0  0  0  0  0  0  0  0  0  0  0  0
    2.3291    0.8551    0.0000 H   0  0  0  0  0  0  0  0  0  0  0  0
   13.7105   -1.5870    0.0000 H   0  0  0  0  0  0  0  0  0  0  0  0
   13.0202   -1.1885    0.0000 H   0  0  0  0  0  0  0  0  0  0  0  0
   13.0910   -2.9751    0.0000 H   0  0  0  0  0  0  0  0  0  0  0  0
   13.9379   -3.2020    0.0000 H   0  0  0  0  0  0  0  0  0  0  0  0
   14.1648   -2.3551    0.0000 H   0  0  0  0  0  0  0  0  0  0  0  0
  1 19  1  0  0  0  0
  2  8  1  0  0  0  0
  2 14  1  0  0  0  0
  3 17  1  0  0  0  0
  3 21  1  0  0  0  0
  4 13  2  0  0  0  0
  5 11  1  0  0  0  0
  5 12  1  0  0  0  0
  5 16  1  0  0  0  0
  6  9  1  0  0  0  0
  6 13  1  0  0  0  0
  6 27  1  0  0  0  0
  7 10  1  0  0  0  0
  7 11  2  0  0  0  0
  8 13  1  0  0  0  0
  8 15  1  0  0  0  0
  8 23  1  0  0  0  0
  9 10  1  0  0  0  0
  9 24  1  0  0  0  0
  9 25  1  0  0  0  0
 10 12  2  0  0  0  0
 11 18  1  0  0  0  0
 12 26  1  0  0  0  0
 14 17  1  0  0  0  0
 14 28  1  0  0  0  0
 14 29  1  0  0  0  0
 15 30  1  0  0  0  0
 15 31  1  0  0  0  0
 15 32  1  0  0  0  0
 16 19  2  0  0  0  0
 16 33  1  0  0  0  0
 17 34  1  0  0  0  0
 17 35  1  0  0  0  0
 18 20  2  0  0  0  0
 18 36  1  0  0  0  0
 19 20  1  0  0  0  0
 20 37  1  0  0  0  0
 21 22  1  0  0  0  0
 21 38  1  0  0  0  0
 21 39  1  0  0  0  0
 22 40  1  0  0  0  0
 22 41  1  0  0  0  0
 22 42  1  0  0  0  0
M  END
> <PUBCHEM_COMPOUND_CID>
51090895

> <PUBCHEM_COMPOUND_CANONICALIZED>
1

> <PUBCHEM_CACTVS_COMPLEXITY>
359

> <PUBCHEM_CACTVS_HBOND_ACCEPTOR>
4

> <PUBCHEM_CACTVS_HBOND_DONOR>
1

> <PUBCHEM_CACTVS_ROTATABLE_BOND>
8

> <PUBCHEM_CACTVS_SUBSKEYS>
AAADceBzMAAEAAAAAAAAAAAAAAAAAWAAAAAsAAAAAAAAAFgB4AAAHgIQAAAACB7hlyY/sJ/MHACoATd3dAKCgC0xF6AJ2KF4dpiLaOLB25XXIAholgLayCYQAAAAAAAAAAAAAAAAAAAAAAAAAAAAAAAAAA==

> <PUBCHEM_IUPAC_OPENEYE_NAME>
N-[(6-chloroimidazo[1,2-a]pyridin-2-yl)methyl]-2-(2-ethoxyethoxy)propanamide

> <PUBCHEM_IUPAC_CAS_NAME>
N-[(6-chloro-2-imidazo[1,2-a]pyridinyl)methyl]-2-(2-ethoxyethoxy)propanamide

> <PUBCHEM_IUPAC_NAME>
N-[(6-chloroimidazo[1,2-a]pyridin-2-yl)methyl]-2-(2-ethoxyethoxy)propanamide

> <PUBCHEM_IUPAC_SYSTEMATIC_NAME>
N-[(6-chloranylimidazo[1,2-a]pyridin-2-yl)methyl]-2-(2-ethoxyethoxy)propanamide

> <PUBCHEM_IUPAC_TRADITIONAL_NAME>
N-[(6-chloroimidazo[1,2-a]pyridin-2-yl)methyl]-2-(2-ethoxyethoxy)propionamide

> <PUBCHEM_IUPAC_INCHI>
InChI=1S/C15H20ClN3O3/c1-3-21-6-7-22-11(2)15(20)17-8-13-10-19-9-12(16)4-5-14(19)18-13/h4-5,9-11H,3,6-8H2,1-2H3,(H,17,20)

> <PUBCHEM_IUPAC_INCHIKEY>
IMEDXFVJPONTJX-UHFFFAOYSA-N

> <PUBCHEM_XLOGP3_AA>
2

> <PUBCHEM_EXACT_MASS>
325.119319

> <PUBCHEM_MOLECULAR_FORMULA>
C15H20ClN3O3

> <PUBCHEM_MOLECULAR_WEIGHT>
325.7906

> <PUBCHEM_OPENEYE_CAN_SMILES>
CCOCCOC(C)C(=O)NCC1=CN2C=C(C=CC2=N1)Cl

> <PUBCHEM_OPENEYE_ISO_SMILES>
CCOCCOC(C)C(=O)NCC1=CN2C=C(C=CC2=N1)Cl

> <PUBCHEM_CACTVS_TPSA>
64.9

> <PUBCHEM_MONOISOTOPIC_WEIGHT>
325.119319

> <PUBCHEM_TOTAL_CHARGE>
0

> <PUBCHEM_HEAVY_ATOM_COUNT>
22

> <PUBCHEM_ATOM_DEF_STEREO_COUNT>
0

> <PUBCHEM_ATOM_UDEF_STEREO_COUNT>
1

> <PUBCHEM_BOND_DEF_STEREO_COUNT>
0

> <PUBCHEM_BOND_UDEF_STEREO_COUNT>
0

> <PUBCHEM_ISOTOPIC_ATOM_COUNT>
0

> <PUBCHEM_COMPONENT_COUNT>
1

> <PUBCHEM_CACTVS_TAUTO_COUNT>
2

> <PUBCHEM_COORDINATE_TYPE>
1
5
255

> <PUBCHEM_BONDANNOTATIONS>
10  12  8
11  18  8
16  19  8
18  20  8
19  20  8
5  11  8
5  12  8
5  16  8
7  10  8
7  11  8
8  15  3

$$$$

