9672
  -OEChem-06261203562D

 16 15  0     0  0  0  0  0  0999 V2000
    5.4641    1.5670    0.0000 F   0  0  0  0  0  0  0  0  0  0  0  0
    5.0981    0.2010    0.0000 F   0  0  0  0  0  0  0  0  0  0  0  0
    4.0981    1.9330    0.0000 F   0  0  0  0  0  0  0  0  0  0  0  0
    2.0000    1.5670    0.0000 F   0  0  0  0  0  0  0  0  0  0  0  0
    2.3660    0.2010    0.0000 F   0  0  0  0  0  0  0  0  0  0  0  0
    3.3660    1.9330    0.0000 F   0  0  0  0  0  0  0  0  0  0  0  0
    4.5981   -0.9330    0.0000 F   0  0  0  0  0  0  0  0  0  0  0  0
    2.8660   -0.9330    0.0000 O   0  0  0  0  0  0  0  0  0  0  0  0
    3.7320    0.5670    0.0000 C   0  0  0  0  0  0  0  0  0  0  0  0
    4.5981    1.0670    0.0000 C   0  0  0  0  0  0  0  0  0  0  0  0
    2.8660    1.0670    0.0000 C   0  0  0  0  0  0  0  0  0  0  0  0
    3.7320   -0.4330    0.0000 C   0  0  0  0  0  0  0  0  0  0  0  0
    2.8660   -1.9330    0.0000 C   0  0  0  0  0  0  0  0  0  0  0  0
    2.2460   -1.9330    0.0000 H   0  0  0  0  0  0  0  0  0  0  0  0
    2.8660   -2.5530    0.0000 H   0  0  0  0  0  0  0  0  0  0  0  0
    3.4860   -1.9330    0.0000 H   0  0  0  0  0  0  0  0  0  0  0  0
  1 10  1  0  0  0  0
  2 10  1  0  0  0  0
  3 10  1  0  0  0  0
  4 11  1  0  0  0  0
  5 11  1  0  0  0  0
  6 11  1  0  0  0  0
  7 12  1  0  0  0  0
  8 12  1  0  0  0  0
  8 13  1  0  0  0  0
  9 10  1  0  0  0  0
  9 11  1  0  0  0  0
  9 12  2  0  0  0  0
 13 14  1  0  0  0  0
 13 15  1  0  0  0  0
 13 16  1  0  0  0  0
M  END
> <PUBCHEM_COMPOUND_CID>
9672

> <PUBCHEM_COMPOUND_CANONICALIZED>
1

> <PUBCHEM_CACTVS_COMPLEXITY>
194

> <PUBCHEM_CACTVS_HBOND_ACCEPTOR>
8

> <PUBCHEM_CACTVS_HBOND_DONOR>
0

> <PUBCHEM_CACTVS_ROTATABLE_BOND>
1

> <PUBCHEM_CACTVS_SUBSKEYS>
AAADcQBgIcAAAAAAAAAAAAAAAAAAAAAAAAAAAAAAAAAAAAAAAAAAGwAAAAAADAAAgBICAAAABACAAgBAAAAACAAAIAAAAAAAAAAAAAAAAAAAAAAAAAAAAAAAAAAAAAAAAAAAAAAAAAAAAAAAAAAAAAAAAA==

> <PUBCHEM_IUPAC_OPENEYE_NAME>
1,3,3,3-tetrafluoro-1-methoxy-2-(trifluoromethyl)prop-1-ene

> <PUBCHEM_IUPAC_CAS_NAME>
1,3,3,3-tetrafluoro-1-methoxy-2-(trifluoromethyl)-1-propene

> <PUBCHEM_IUPAC_NAME>
1,3,3,3-tetrafluoro-1-methoxy-2-(trifluoromethyl)prop-1-ene

> <PUBCHEM_IUPAC_SYSTEMATIC_NAME>
1,3,3,3-tetrakis(fluoranyl)-1-methoxy-2-(trifluoromethyl)prop-1-ene

> <PUBCHEM_IUPAC_TRADITIONAL_NAME>
1,3,3,3-tetrafluoro-1-methoxy-2-(trifluoromethyl)prop-1-ene

> <PUBCHEM_IUPAC_INCHI>
InChI=1S/C5H3F7O/c1-13-3(6)2(4(7,8)9)5(10,11)12/h1H3

> <PUBCHEM_IUPAC_INCHIKEY>
FSDLLONBRLBIBL-UHFFFAOYSA-N

> <PUBCHEM_XLOGP3_AA>
3

> <PUBCHEM_EXACT_MASS>
212.007212

> <PUBCHEM_MOLECULAR_FORMULA>
C5H3F7O

> <PUBCHEM_MOLECULAR_WEIGHT>
212.065542

> <PUBCHEM_OPENEYE_CAN_SMILES>
COC(=C(C(F)(F)F)C(F)(F)F)F

> <PUBCHEM_OPENEYE_ISO_SMILES>
COC(=C(C(F)(F)F)C(F)(F)F)F

> <PUBCHEM_CACTVS_TPSA>
9.2

> <PUBCHEM_MONOISOTOPIC_WEIGHT>
212.007212

> <PUBCHEM_TOTAL_CHARGE>
0

> <PUBCHEM_HEAVY_ATOM_COUNT>
13

> <PUBCHEM_ATOM_DEF_STEREO_COUNT>
0

> <PUBCHEM_ATOM_UDEF_STEREO_COUNT>
0

> <PUBCHEM_BOND_DEF_STEREO_COUNT>
0

> <PUBCHEM_BOND_UDEF_STEREO_COUNT>
0

> <PUBCHEM_ISOTOPIC_ATOM_COUNT>
0

> <PUBCHEM_COMPONENT_COUNT>
1

> <PUBCHEM_CACTVS_TAUTO_COUNT>
1

> <PUBCHEM_COORDINATE_TYPE>
1
5
255

$$$$

