5463
  -OEChem-06261200412D

 36 37  0     1  0  0  0  0  0999 V2000
    3.3590   -2.4422    0.0000 P   0  0  0  0  0  0  0  0  0  0  0  0
    6.2503   -0.7866    0.0000 O   0  0  0  0  0  0  0  0  0  0  0  0
    4.3535   -2.5467    0.0000 O   0  0  0  0  0  0  0  0  0  0  0  0
    7.5236   -2.4422    0.0000 O   0  0  0  0  0  0  0  0  0  0  0  0
    3.7092    0.8011    0.0000 O   0  0  0  0  0  0  0  0  0  0  0  0
    2.3644   -2.3377    0.0000 O   0  0  0  0  0  0  0  0  0  0  0  0
    3.2544   -3.4367    0.0000 O   0  0  0  0  0  0  0  0  0  0  0  0
    3.4635   -1.4477    0.0000 O   0  0  0  0  0  0  0  0  0  0  0  0
    5.4413    3.8011    0.0000 O   0  0  0  0  0  0  0  0  0  0  0  0
    5.4413    0.8011    0.0000 N   0  0  0  0  0  0  0  0  0  0  0  0
    4.5752    2.3011    0.0000 N   0  0  0  0  0  0  0  0  0  0  0  0
    4.9413   -1.7377    0.0000 C   0  0  3  0  0  0  0  0  0  0  0  0
    4.6322   -0.7866    0.0000 C   0  0  0  0  0  0  0  0  0  0  0  0
    5.9413   -1.7377    0.0000 C   0  0  3  0  0  0  0  0  0  0  0  0
    5.4413   -0.1989    0.0000 C   0  0  3  0  0  0  0  0  0  0  0  0
    6.5290   -2.5467    0.0000 C   0  0  0  0  0  0  0  0  0  0  0  0
    6.3073    1.3011    0.0000 C   0  0  0  0  0  0  0  0  0  0  0  0
    4.5752    1.3011    0.0000 C   0  0  0  0  0  0  0  0  0  0  0  0
    6.3073    2.3011    0.0000 C   0  0  0  0  0  0  0  0  0  0  0  0
    5.4413    2.8011    0.0000 C   0  0  0  0  0  0  0  0  0  0  0  0
    7.1733    2.8011    0.0000 C   0  0  0  0  0  0  0  0  0  0  0  0
    5.3271   -2.4951    0.0000 H   0  0  0  0  0  0  0  0  0  0  0  0
    4.3222   -0.2497    0.0000 H   0  0  0  0  0  0  0  0  0  0  0  0
    4.0658   -1.0388    0.0000 H   0  0  0  0  0  0  0  0  0  0  0  0
    6.7808   -1.6047    0.0000 H   0  0  0  0  0  0  0  0  0  0  0  0
    6.1986    0.1870    0.0000 H   0  0  0  0  0  0  0  0  0  0  0  0
    5.9718   -2.8185    0.0000 H   0  0  0  0  0  0  0  0  0  0  0  0
    6.6999   -3.1427    0.0000 H   0  0  0  0  0  0  0  0  0  0  0  0
    6.8442    0.9911    0.0000 H   0  0  0  0  0  0  0  0  0  0  0  0
    4.0383    2.6111    0.0000 H   0  0  0  0  0  0  0  0  0  0  0  0
    7.8880   -2.9438    0.0000 H   0  0  0  0  0  0  0  0  0  0  0  0
    7.4833    2.2642    0.0000 H   0  0  0  0  0  0  0  0  0  0  0  0
    7.7102    3.1111    0.0000 H   0  0  0  0  0  0  0  0  0  0  0  0
    6.8633    3.3381    0.0000 H   0  0  0  0  0  0  0  0  0  0  0  0
    3.7560   -3.8011    0.0000 H   0  0  0  0  0  0  0  0  0  0  0  0
    2.0000   -2.8392    0.0000 H   0  0  0  0  0  0  0  0  0  0  0  0
  1  3  1  0  0  0  0
  1  6  1  0  0  0  0
  1  7  1  0  0  0  0
  1  8  2  0  0  0  0
  2 14  1  0  0  0  0
  2 15  1  0  0  0  0
  3 12  1  0  0  0  0
  4 16  1  0  0  0  0
  4 31  1  0  0  0  0
  5 18  2  0  0  0  0
  6 36  1  0  0  0  0
  7 35  1  0  0  0  0
  9 20  2  0  0  0  0
 10 15  1  0  0  0  0
 10 17  1  0  0  0  0
 10 18  1  0  0  0  0
 11 18  1  0  0  0  0
 11 20  1  0  0  0  0
 11 30  1  0  0  0  0
 12 13  1  0  0  0  0
 12 14  1  0  0  0  0
 12 22  1  0  0  0  0
 13 15  1  0  0  0  0
 13 23  1  0  0  0  0
 13 24  1  0  0  0  0
 14 16  1  0  0  0  0
 14 25  1  0  0  0  0
 15 26  1  0  0  0  0
 16 27  1  0  0  0  0
 16 28  1  0  0  0  0
 17 19  2  0  0  0  0
 17 29  1  0  0  0  0
 19 20  1  0  0  0  0
 19 21  1  0  0  0  0
 21 32  1  0  0  0  0
 21 33  1  0  0  0  0
 21 34  1  0  0  0  0
M  END
> <PUBCHEM_COMPOUND_CID>
5463

> <PUBCHEM_COMPOUND_CANONICALIZED>
1

> <PUBCHEM_CACTVS_COMPLEXITY>
529

> <PUBCHEM_CACTVS_HBOND_ACCEPTOR>
8

> <PUBCHEM_CACTVS_HBOND_DONOR>
4

> <PUBCHEM_CACTVS_ROTATABLE_BOND>
4

> <PUBCHEM_CACTVS_SUBSKEYS>
AAADccBzPAIAAAAAAAAAAAAAAAAAASAAAAAgAAAAAAAAAAAAAAAAHgAQCCAADBThgAYDAAPABxCIQgFWUICAAAAAAAAAAAEIAECBEAIAgQAOQAAPByIDAMCwMAIAAAAAAAAAAAAAAAAAAAAAAAAAAAAAAA==

> <PUBCHEM_IUPAC_OPENEYE_NAME>
[2-(hydroxymethyl)-5-(5-methyl-2,4-dioxo-pyrimidin-1-yl)tetrahydrofuran-3-yl] dihydrogen phosphate

> <PUBCHEM_IUPAC_CAS_NAME>
[2-(hydroxymethyl)-5-(5-methyl-2,4-dioxo-1-pyrimidinyl)-3-oxolanyl] dihydrogen phosphate

> <PUBCHEM_IUPAC_NAME>
[2-(hydroxymethyl)-5-(5-methyl-2,4-dioxopyrimidin-1-yl)oxolan-3-yl] dihydrogen phosphate

> <PUBCHEM_IUPAC_SYSTEMATIC_NAME>
[2-(hydroxymethyl)-5-[5-methyl-2,4-bis(oxidanylidene)pyrimidin-1-yl]oxolan-3-yl] dihydrogen phosphate

> <PUBCHEM_IUPAC_TRADITIONAL_NAME>
[5-(2,4-diketo-5-methyl-pyrimidin-1-yl)-2-methylol-tetrahydrofuran-3-yl] dihydrogen phosphate

> <PUBCHEM_IUPAC_INCHI>
InChI=1S/C10H15N2O8P/c1-5-3-12(10(15)11-9(5)14)8-2-6(7(4-13)19-8)20-21(16,17)18/h3,6-8,13H,2,4H2,1H3,(H,11,14,15)(H2,16,17,18)

> <PUBCHEM_IUPAC_INCHIKEY>
XXYIANZGUOSQHY-UHFFFAOYSA-N

> <PUBCHEM_XLOGP3>
-2.4

> <PUBCHEM_EXACT_MASS>
322.056602

> <PUBCHEM_MOLECULAR_FORMULA>
C10H15N2O8P

> <PUBCHEM_MOLECULAR_WEIGHT>
322.208462

> <PUBCHEM_OPENEYE_CAN_SMILES>
CC1=CN(C(=O)NC1=O)C2CC(C(O2)CO)OP(=O)(O)O

> <PUBCHEM_OPENEYE_ISO_SMILES>
CC1=CN(C(=O)NC1=O)C2CC(C(O2)CO)OP(=O)(O)O

> <PUBCHEM_CACTVS_TPSA>
146

> <PUBCHEM_MONOISOTOPIC_WEIGHT>
322.056602

> <PUBCHEM_TOTAL_CHARGE>
0

> <PUBCHEM_HEAVY_ATOM_COUNT>
21

> <PUBCHEM_ATOM_DEF_STEREO_COUNT>
0

> <PUBCHEM_ATOM_UDEF_STEREO_COUNT>
3

> <PUBCHEM_BOND_DEF_STEREO_COUNT>
0

> <PUBCHEM_BOND_UDEF_STEREO_COUNT>
0

> <PUBCHEM_ISOTOPIC_ATOM_COUNT>
0

> <PUBCHEM_COMPONENT_COUNT>
1

> <PUBCHEM_CACTVS_TAUTO_COUNT>
3

> <PUBCHEM_COORDINATE_TYPE>
1
5
255

> <PUBCHEM_BONDANNOTATIONS>
10  17  8
10  18  8
11  18  8
11  20  8
12  22  3
14  25  3
15  26  3
17  19  8
19  20  8

$$$$

