582696
  -OEChem-06241222432D

 20 20  0     0  0  0  0  0  0999 V2000
    4.5032   -0.3239    0.0000 S   0  0  0  0  0  0  0  0  0  0  0  0
    7.0064    0.6240    0.0000 O   0  0  0  0  0  0  0  0  0  0  0  0
    2.0000    0.6240    0.0000 O   0  5  0  0  0  0  0  0  0  0  0  0
    2.5352   -1.0233    0.0000 O   0  0  0  0  0  0  0  0  0  0  0  0
    5.0032    1.2149    0.0000 N   0  0  0  0  0  0  0  0  0  0  0  0
    2.7431   -0.0452    0.0000 N   0  3  0  0  0  0  0  0  0  0  0  0
    6.4712   -1.0233    0.0000 N   0  0  0  0  0  0  0  0  0  0  0  0
    5.3122    0.2638    0.0000 C   0  0  0  0  0  0  0  0  0  0  0  0
    7.9575    0.3149    0.0000 C   0  0  0  0  0  0  0  0  0  0  0  0
    6.2633   -0.0452    0.0000 C   0  0  0  0  0  0  0  0  0  0  0  0
    3.6942    0.2638    0.0000 C   0  0  0  0  0  0  0  0  0  0  0  0
    4.0032    1.2149    0.0000 C   0  0  0  0  0  0  0  0  0  0  0  0
    8.7006    0.9841    0.0000 C   0  0  0  0  0  0  0  0  0  0  0  0
    7.6664   -0.2325    0.0000 H   0  0  0  0  0  0  0  0  0  0  0  0
    8.4461   -0.0668    0.0000 H   0  0  0  0  0  0  0  0  0  0  0  0
    3.6388    1.7165    0.0000 H   0  0  0  0  0  0  0  0  0  0  0  0
    9.1155    0.5233    0.0000 H   0  0  0  0  0  0  0  0  0  0  0  0
    9.1614    1.3989    0.0000 H   0  0  0  0  0  0  0  0  0  0  0  0
    8.2858    1.4448    0.0000 H   0  0  0  0  0  0  0  0  0  0  0  0
    7.0609   -1.2149    0.0000 H   0  0  0  0  0  0  0  0  0  0  0  0
  1  8  1  0  0  0  0
  1 11  1  0  0  0  0
  2  9  1  0  0  0  0
  2 10  1  0  0  0  0
  3  6  1  0  0  0  0
  4  6  2  0  0  0  0
  5  8  2  0  0  0  0
  5 12  1  0  0  0  0
  6 11  1  0  0  0  0
  7 10  2  0  0  0  0
  7 20  1  0  0  0  0
  8 10  1  0  0  0  0
  9 13  1  0  0  0  0
  9 14  1  0  0  0  0
  9 15  1  0  0  0  0
 11 12  2  0  0  0  0
 12 16  1  0  0  0  0
 13 17  1  0  0  0  0
 13 18  1  0  0  0  0
 13 19  1  0  0  0  0
M  CHG  2   3  -1   6   1
M  END
> <PUBCHEM_COMPOUND_CID>
582696

> <PUBCHEM_COMPOUND_CANONICALIZED>
1

> <PUBCHEM_CACTVS_COMPLEXITY>
218

> <PUBCHEM_CACTVS_HBOND_ACCEPTOR>
6

> <PUBCHEM_CACTVS_HBOND_DONOR>
1

> <PUBCHEM_CACTVS_ROTATABLE_BOND>
3

> <PUBCHEM_CACTVS_SUBSKEYS>
AAADcYBjMABAAAAAAAAAAAAAAAAAAWAAAAAAAAAAAAAAAAABgAAAHgQUAAAAAADhwgYugRJYVAilABAnRwQA8KBRGjhgQAwIMAICQAAAAAATAAAAAICwAAAAAAAAAAAAAAAAAAAAAAAAAAAAAAAAAAAAAA==

> <PUBCHEM_IUPAC_OPENEYE_NAME>
ethyl 5-nitrothiazole-2-carboximidate

> <PUBCHEM_IUPAC_CAS_NAME>
5-nitro-2-thiazolecarboximidic acid ethyl ester

> <PUBCHEM_IUPAC_NAME>
ethyl 5-nitro-1,3-thiazole-2-carboximidate

> <PUBCHEM_IUPAC_SYSTEMATIC_NAME>
ethyl 5-nitro-1,3-thiazole-2-carboximidate

> <PUBCHEM_IUPAC_TRADITIONAL_NAME>
5-nitrothiazole-2-carboximidic acid ethyl ester

> <PUBCHEM_IUPAC_INCHI>
InChI=1S/C6H7N3O3S/c1-2-12-5(7)6-8-3-4(13-6)9(10)11/h3,7H,2H2,1H3

> <PUBCHEM_IUPAC_INCHIKEY>
OPCWQJAUNKMKSI-UHFFFAOYSA-N

> <PUBCHEM_XLOGP3_AA>
1.8

> <PUBCHEM_EXACT_MASS>
201.020812

> <PUBCHEM_MOLECULAR_FORMULA>
C6H7N3O3S

> <PUBCHEM_MOLECULAR_WEIGHT>
201.20308

> <PUBCHEM_OPENEYE_CAN_SMILES>
CCOC(=N)C1=NC=C(S1)[N+](=O)[O-]

> <PUBCHEM_OPENEYE_ISO_SMILES>
CCOC(=N)C1=NC=C(S1)[N+](=O)[O-]

> <PUBCHEM_CACTVS_TPSA>
120

> <PUBCHEM_MONOISOTOPIC_WEIGHT>
201.020812

> <PUBCHEM_TOTAL_CHARGE>
0

> <PUBCHEM_HEAVY_ATOM_COUNT>
13

> <PUBCHEM_ATOM_DEF_STEREO_COUNT>
0

> <PUBCHEM_ATOM_UDEF_STEREO_COUNT>
0

> <PUBCHEM_BOND_DEF_STEREO_COUNT>
0

> <PUBCHEM_BOND_UDEF_STEREO_COUNT>
0

> <PUBCHEM_ISOTOPIC_ATOM_COUNT>
0

> <PUBCHEM_COMPONENT_COUNT>
1

> <PUBCHEM_CACTVS_TAUTO_COUNT>
1

> <PUBCHEM_COORDINATE_TYPE>
1
5
255

> <PUBCHEM_BONDANNOTATIONS>
1  11  8
1  8  8
11  12  8
5  12  8
5  8  8

$$$$

