47205034
  -OEChem-06241222572D

 37 38  0     0  0  0  0  0  0999 V2000
    3.7320   -2.3512    0.0000 O   0  0  0  0  0  0  0  0  0  0  0  0
    5.4641   -3.3512    0.0000 O   0  0  0  0  0  0  0  0  0  0  0  0
    4.5981    1.1488    0.0000 O   0  0  0  0  0  0  0  0  0  0  0  0
    6.3301    1.1488    0.0000 N   0  0  0  0  0  0  0  0  0  0  0  0
    8.1097    2.2420    0.0000 N   0  0  0  0  0  0  0  0  0  0  0  0
    8.7788    2.9852    0.0000 N   0  0  0  0  0  0  0  0  0  0  0  0
    5.4641   -0.3512    0.0000 C   0  0  0  0  0  0  0  0  0  0  0  0
    6.3301    2.1488    0.0000 C   0  0  0  0  0  0  0  0  0  0  0  0
    4.5981   -1.8512    0.0000 C   0  0  0  0  0  0  0  0  0  0  0  0
    4.5981   -0.8512    0.0000 C   0  0  0  0  0  0  0  0  0  0  0  0
    7.1962    2.6488    0.0000 C   0  0  0  0  0  0  0  0  0  0  0  0
    5.4641    0.6488    0.0000 C   0  0  0  0  0  0  0  0  0  0  0  0
    5.4641   -2.3512    0.0000 C   0  0  0  0  0  0  0  0  0  0  0  0
    6.3301   -0.8512    0.0000 C   0  0  0  0  0  0  0  0  0  0  0  0
    6.3301   -1.8512    0.0000 C   0  0  0  0  0  0  0  0  0  0  0  0
    7.3007    3.6433    0.0000 C   0  0  0  0  0  0  0  0  0  0  0  0
    2.8660   -1.8512    0.0000 C   0  0  0  0  0  0  0  0  0  0  0  0
    8.2788    3.8512    0.0000 C   0  0  0  0  0  0  0  0  0  0  0  0
    2.0000   -2.3512    0.0000 C   0  0  0  0  0  0  0  0  0  0  0  0
    6.3301   -3.8512    0.0000 C   0  0  0  0  0  0  0  0  0  0  0  0
    6.1181    2.7314    0.0000 H   0  0  0  0  0  0  0  0  0  0  0  0
    5.7196    2.0411    0.0000 H   0  0  0  0  0  0  0  0  0  0  0  0
    4.0611   -0.5412    0.0000 H   0  0  0  0  0  0  0  0  0  0  0  0
    6.8671    0.8388    0.0000 H   0  0  0  0  0  0  0  0  0  0  0  0
    6.8671   -0.5412    0.0000 H   0  0  0  0  0  0  0  0  0  0  0  0
    6.8671   -2.1612    0.0000 H   0  0  0  0  0  0  0  0  0  0  0  0
    6.8399    4.0582    0.0000 H   0  0  0  0  0  0  0  0  0  0  0  0
    8.2386    1.6356    0.0000 H   0  0  0  0  0  0  0  0  0  0  0  0
    3.2646   -1.3763    0.0000 H   0  0  0  0  0  0  0  0  0  0  0  0
    2.4675   -1.3763    0.0000 H   0  0  0  0  0  0  0  0  0  0  0  0
    8.5310    4.4176    0.0000 H   0  0  0  0  0  0  0  0  0  0  0  0
    1.6900   -1.8143    0.0000 H   0  0  0  0  0  0  0  0  0  0  0  0
    1.4631   -2.6612    0.0000 H   0  0  0  0  0  0  0  0  0  0  0  0
    2.3100   -2.8882    0.0000 H   0  0  0  0  0  0  0  0  0  0  0  0
    6.0201   -4.3882    0.0000 H   0  0  0  0  0  0  0  0  0  0  0  0
    6.8671   -4.1612    0.0000 H   0  0  0  0  0  0  0  0  0  0  0  0
    6.6401   -3.3143    0.0000 H   0  0  0  0  0  0  0  0  0  0  0  0
  1  9  1  0  0  0  0
  1 17  1  0  0  0  0
  2 13  1  0  0  0  0
  2 20  1  0  0  0  0
  3 12  2  0  0  0  0
  4  8  1  0  0  0  0
  4 12  1  0  0  0  0
  4 24  1  0  0  0  0
  5  6  1  0  0  0  0
  5 11  1  0  0  0  0
  5 28  1  0  0  0  0
  6 18  2  0  0  0  0
  7 10  2  0  0  0  0
  7 12  1  0  0  0  0
  7 14  1  0  0  0  0
  8 11  1  0  0  0  0
  8 21  1  0  0  0  0
  8 22  1  0  0  0  0
  9 10  1  0  0  0  0
  9 13  2  0  0  0  0
 10 23  1  0  0  0  0
 11 16  2  0  0  0  0
 13 15  1  0  0  0  0
 14 15  2  0  0  0  0
 14 25  1  0  0  0  0
 15 26  1  0  0  0  0
 16 18  1  0  0  0  0
 16 27  1  0  0  0  0
 17 19  1  0  0  0  0
 17 29  1  0  0  0  0
 17 30  1  0  0  0  0
 18 31  1  0  0  0  0
 19 32  1  0  0  0  0
 19 33  1  0  0  0  0
 19 34  1  0  0  0  0
 20 35  1  0  0  0  0
 20 36  1  0  0  0  0
 20 37  1  0  0  0  0
M  END
> <PUBCHEM_COMPOUND_CID>
47205034

> <PUBCHEM_COMPOUND_CANONICALIZED>
1

> <PUBCHEM_CACTVS_COMPLEXITY>
314

> <PUBCHEM_CACTVS_HBOND_ACCEPTOR>
4

> <PUBCHEM_CACTVS_HBOND_DONOR>
2

> <PUBCHEM_CACTVS_ROTATABLE_BOND>
6

> <PUBCHEM_CACTVS_SUBSKEYS>
AAADceBzMAAAAAAAAAAAAAAAAAAAAWAAAAAwAAAAAAAAAAABwAAAHgAYAAAADAzhngY+hpLjBACqAzV3UACSDAAkogAYuaE+7NgNZrKE9duWvSrk3hGK6Ye63BLOIAABAAAAQABAAAIAAACAAAAAAAAAAA==

> <PUBCHEM_IUPAC_OPENEYE_NAME>
3-ethoxy-4-methoxy-N-(1H-pyrazol-5-ylmethyl)benzamide

> <PUBCHEM_IUPAC_CAS_NAME>
3-ethoxy-4-methoxy-N-(1H-pyrazol-5-ylmethyl)benzamide

> <PUBCHEM_IUPAC_NAME>
3-ethoxy-4-methoxy-N-(1H-pyrazol-5-ylmethyl)benzamide

> <PUBCHEM_IUPAC_SYSTEMATIC_NAME>
3-ethoxy-4-methoxy-N-(1H-pyrazol-5-ylmethyl)benzamide

> <PUBCHEM_IUPAC_TRADITIONAL_NAME>
3-ethoxy-4-methoxy-N-(1H-pyrazol-5-ylmethyl)benzamide

> <PUBCHEM_IUPAC_INCHI>
InChI=1S/C14H17N3O3/c1-3-20-13-8-10(4-5-12(13)19-2)14(18)15-9-11-6-7-16-17-11/h4-8H,3,9H2,1-2H3,(H,15,18)(H,16,17)

> <PUBCHEM_IUPAC_INCHIKEY>
NINFVWZGUYFUGY-UHFFFAOYSA-N

> <PUBCHEM_XLOGP3_AA>
1.3

> <PUBCHEM_EXACT_MASS>
275.126991

> <PUBCHEM_MOLECULAR_FORMULA>
C14H17N3O3

> <PUBCHEM_MOLECULAR_WEIGHT>
275.30308

> <PUBCHEM_OPENEYE_CAN_SMILES>
CCOC1=C(C=CC(=C1)C(=O)NCC2=CC=NN2)OC

> <PUBCHEM_OPENEYE_ISO_SMILES>
CCOC1=C(C=CC(=C1)C(=O)NCC2=CC=NN2)OC

> <PUBCHEM_CACTVS_TPSA>
76.2

> <PUBCHEM_MONOISOTOPIC_WEIGHT>
275.126991

> <PUBCHEM_TOTAL_CHARGE>
0

> <PUBCHEM_HEAVY_ATOM_COUNT>
20

> <PUBCHEM_ATOM_DEF_STEREO_COUNT>
0

> <PUBCHEM_ATOM_UDEF_STEREO_COUNT>
0

> <PUBCHEM_BOND_DEF_STEREO_COUNT>
0

> <PUBCHEM_BOND_UDEF_STEREO_COUNT>
0

> <PUBCHEM_ISOTOPIC_ATOM_COUNT>
0

> <PUBCHEM_COMPONENT_COUNT>
1

> <PUBCHEM_CACTVS_TAUTO_COUNT>
4

> <PUBCHEM_COORDINATE_TYPE>
1
5
255

> <PUBCHEM_BONDANNOTATIONS>
11  16  8
13  15  8
14  15  8
16  18  8
5  11  8
5  6  8
6  18  8
7  10  8
7  14  8
9  10  8
9  13  8

$$$$

