12626
  -OEChem-06261207102D

 15 14  0     0  0  0  0  0  0999 V2000
    3.2320    0.5490    0.0000 F   0  0  0  0  0  0  0  0  0  0  0  0
    4.2320   -1.1830    0.0000 F   0  0  0  0  0  0  0  0  0  0  0  0
    4.0981    1.0490    0.0000 F   0  0  0  0  0  0  0  0  0  0  0  0
    5.0981   -0.6830    0.0000 F   0  0  0  0  0  0  0  0  0  0  0  0
    2.0000   -1.3170    0.0000 F   0  0  0  0  0  0  0  0  0  0  0  0
    2.3660    0.0490    0.0000 F   0  0  0  0  0  0  0  0  0  0  0  0
    3.3660   -1.6830    0.0000 F   0  0  0  0  0  0  0  0  0  0  0  0
    5.4641    1.6830    0.0000 O   0  0  0  0  0  0  0  0  0  0  0  0
    6.3301    0.1830    0.0000 N   0  0  0  0  0  0  0  0  0  0  0  0
    3.7320   -0.3170    0.0000 C   0  0  0  0  0  0  0  0  0  0  0  0
    4.5981    0.1830    0.0000 C   0  0  0  0  0  0  0  0  0  0  0  0
    2.8660   -0.8170    0.0000 C   0  0  0  0  0  0  0  0  0  0  0  0
    5.4641    0.6830    0.0000 C   0  0  0  0  0  0  0  0  0  0  0  0
    6.8671    0.4930    0.0000 H   0  0  0  0  0  0  0  0  0  0  0  0
    6.3301   -0.4370    0.0000 H   0  0  0  0  0  0  0  0  0  0  0  0
  1 10  1  0  0  0  0
  2 10  1  0  0  0  0
  3 11  1  0  0  0  0
  4 11  1  0  0  0  0
  5 12  1  0  0  0  0
  6 12  1  0  0  0  0
  7 12  1  0  0  0  0
  8 13  2  0  0  0  0
  9 13  1  0  0  0  0
  9 14  1  0  0  0  0
  9 15  1  0  0  0  0
 10 11  1  0  0  0  0
 10 12  1  0  0  0  0
 11 13  1  0  0  0  0
M  END
> <PUBCHEM_COMPOUND_CID>
12626

> <PUBCHEM_COMPOUND_CANONICALIZED>
1

> <PUBCHEM_CACTVS_COMPLEXITY>
219

> <PUBCHEM_CACTVS_HBOND_ACCEPTOR>
8

> <PUBCHEM_CACTVS_HBOND_DONOR>
1

> <PUBCHEM_CACTVS_ROTATABLE_BOND>
2

> <PUBCHEM_CACTVS_SUBSKEYS>
AAADcQBiIcAAAAAAAAAAAAAAAAAAAAAAAAAAAAAAAAAAAAAAAAAADwAQAAAACAABgBAAAABAAAAIAAEQEAAAAAAAAAAAAAEAAAAAABAAgAAAAAAAAAAAAAAAAAAAAAAAAAAAAAAAAAAAAAAAAAAAAAAAAA==

> <PUBCHEM_IUPAC_OPENEYE_NAME>
2,2,3,3,4,4,4-heptafluorobutanamide

> <PUBCHEM_IUPAC_CAS_NAME>
2,2,3,3,4,4,4-heptafluorobutanamide

> <PUBCHEM_IUPAC_NAME>
2,2,3,3,4,4,4-heptafluorobutanamide

> <PUBCHEM_IUPAC_SYSTEMATIC_NAME>
2,2,3,3,4,4,4-heptakis(fluoranyl)butanamide

> <PUBCHEM_IUPAC_TRADITIONAL_NAME>
2,2,3,3,4,4,4-heptafluorobutyramide

> <PUBCHEM_IUPAC_INCHI>
InChI=1S/C4H2F7NO/c5-2(6,1(12)13)3(7,8)4(9,10)11/h(H2,12,13)

> <PUBCHEM_IUPAC_INCHIKEY>
FOBJABJCODOMEO-UHFFFAOYSA-N

> <PUBCHEM_XLOGP3_AA>
1.6

> <PUBCHEM_EXACT_MASS>
213.002461

> <PUBCHEM_MOLECULAR_FORMULA>
C4H2F7NO

> <PUBCHEM_MOLECULAR_WEIGHT>
213.053602

> <PUBCHEM_OPENEYE_CAN_SMILES>
C(=O)(C(C(C(F)(F)F)(F)F)(F)F)N

> <PUBCHEM_OPENEYE_ISO_SMILES>
C(=O)(C(C(C(F)(F)F)(F)F)(F)F)N

> <PUBCHEM_CACTVS_TPSA>
43.1

> <PUBCHEM_MONOISOTOPIC_WEIGHT>
213.002461

> <PUBCHEM_TOTAL_CHARGE>
0

> <PUBCHEM_HEAVY_ATOM_COUNT>
13

> <PUBCHEM_ATOM_DEF_STEREO_COUNT>
0

> <PUBCHEM_ATOM_UDEF_STEREO_COUNT>
0

> <PUBCHEM_BOND_DEF_STEREO_COUNT>
0

> <PUBCHEM_BOND_UDEF_STEREO_COUNT>
0

> <PUBCHEM_ISOTOPIC_ATOM_COUNT>
0

> <PUBCHEM_COMPONENT_COUNT>
1

> <PUBCHEM_CACTVS_TAUTO_COUNT>
2

> <PUBCHEM_COORDINATE_TYPE>
1
5
255

$$$$

