3900
  -OEChem-06251223452D

 55 58  0     1  0  0  0  0  0999 V2000
    9.2365    2.1122    0.0000 S   0  0  0  0  0  0  0  0  0  0  0  0
    6.5715    0.0905    0.0000 O   0  0  0  0  0  0  0  0  0  0  0  0
    8.8764   -1.2000    0.0000 O   0  0  0  0  0  0  0  0  0  0  0  0
   10.5236   -0.6648    0.0000 O   0  0  0  0  0  0  0  0  0  0  0  0
    5.3442    1.2937    0.0000 O   0  0  0  0  0  0  0  0  0  0  0  0
    7.5217   -2.7897    0.0000 O   0  0  0  0  0  0  0  0  0  0  0  0
    7.8581   -4.3724    0.0000 O   0  0  0  0  0  0  0  0  0  0  0  0
    6.1368   -3.9111    0.0000 O   0  0  0  0  0  0  0  0  0  0  0  0
    8.2854    0.8032    0.0000 N   0  0  0  0  0  0  0  0  0  0  0  0
    6.5715    2.5159    0.0000 N   0  0  0  0  0  0  0  0  0  0  0  0
    5.1602    3.9330    0.0000 N   0  0  0  0  0  0  0  0  0  0  0  0
    8.2854    1.8032    0.0000 C   0  0  3  0  0  0  0  0  0  0  0  0
    9.8242    1.3032    0.0000 C   0  0  0  0  0  0  0  0  0  0  0  0
    9.2365    0.4942    0.0000 C   0  0  3  0  0  0  0  0  0  0  0  0
    7.2771    1.8074    0.0000 C   0  0  3  0  0  0  0  0  0  0  0  0
    7.2771    0.7991    0.0000 C   0  0  0  0  0  0  0  0  0  0  0  0
   10.6333    1.8910    0.0000 C   0  0  0  0  0  0  0  0  0  0  0  0
   10.6333    0.7154    0.0000 C   0  0  0  0  0  0  0  0  0  0  0  0
    9.5455   -0.4569    0.0000 C   0  0  0  0  0  0  0  0  0  0  0  0
    5.6050    2.2591    0.0000 C   0  0  0  0  0  0  0  0  0  0  0  0
    4.8994    2.9676    0.0000 C   0  0  3  0  0  0  0  0  0  0  0  0
    9.1854   -2.1510    0.0000 C   0  0  0  0  0  0  0  0  0  0  0  0
    3.9329    2.7108    0.0000 C   0  0  0  0  0  0  0  0  0  0  0  0
    8.5162   -2.8942    0.0000 C   0  0  0  0  0  0  0  0  0  0  0  0
    3.2273    3.4194    0.0000 C   0  0  0  0  0  0  0  0  0  0  0  0
    3.6721    1.7454    0.0000 C   0  0  0  0  0  0  0  0  0  0  0  0
    8.7242   -3.8724    0.0000 C   0  0  0  0  0  0  0  0  0  0  0  0
    2.2608    3.1625    0.0000 C   0  0  0  0  0  0  0  0  0  0  0  0
    2.7056    1.4886    0.0000 C   0  0  0  0  0  0  0  0  0  0  0  0
    2.0000    2.1972    0.0000 C   0  0  0  0  0  0  0  0  0  0  0  0
    9.6377   -4.2791    0.0000 C   0  0  0  0  0  0  0  0  0  0  0  0
    7.1150   -3.7032    0.0000 C   0  0  0  0  0  0  0  0  0  0  0  0
    8.1897    2.4158    0.0000 H   0  0  0  0  0  0  0  0  0  0  0  0
    8.7981    0.0558    0.0000 H   0  0  0  0  0  0  0  0  0  0  0  0
    6.7041    1.5707    0.0000 H   0  0  0  0  0  0  0  0  0  0  0  0
   10.9977    1.3894    0.0000 H   0  0  0  0  0  0  0  0  0  0  0  0
   11.1349    2.2554    0.0000 H   0  0  0  0  0  0  0  0  0  0  0  0
   10.2688    2.3926    0.0000 H   0  0  0  0  0  0  0  0  0  0  0  0
   10.2688    0.2138    0.0000 H   0  0  0  0  0  0  0  0  0  0  0  0
   11.1349    0.3510    0.0000 H   0  0  0  0  0  0  0  0  0  0  0  0
   10.9977    1.2170    0.0000 H   0  0  0  0  0  0  0  0  0  0  0  0
    6.7332    3.1145    0.0000 H   0  0  0  0  0  0  0  0  0  0  0  0
    4.4619    3.4070    0.0000 H   0  0  0  0  0  0  0  0  0  0  0  0
    9.5671   -2.6396    0.0000 H   0  0  0  0  0  0  0  0  0  0  0  0
    9.7328   -1.8600    0.0000 H   0  0  0  0  0  0  0  0  0  0  0  0
    4.7227    4.3724    0.0000 H   0  0  0  0  0  0  0  0  0  0  0  0
    5.7594    4.0923    0.0000 H   0  0  0  0  0  0  0  0  0  0  0  0
    3.3890    4.0179    0.0000 H   0  0  0  0  0  0  0  0  0  0  0  0
    4.1096    1.3061    0.0000 H   0  0  0  0  0  0  0  0  0  0  0  0
    1.8233    3.6018    0.0000 H   0  0  0  0  0  0  0  0  0  0  0  0
    2.5440    0.8900    0.0000 H   0  0  0  0  0  0  0  0  0  0  0  0
    1.4008    2.0379    0.0000 H   0  0  0  0  0  0  0  0  0  0  0  0
    9.3855   -4.8455    0.0000 H   0  0  0  0  0  0  0  0  0  0  0  0
   10.2041   -4.5313    0.0000 H   0  0  0  0  0  0  0  0  0  0  0  0
    9.8899   -3.7127    0.0000 H   0  0  0  0  0  0  0  0  0  0  0  0
  1 12  1  0  0  0  0
  1 13  1  0  0  0  0
  2 16  2  0  0  0  0
  3 19  1  0  0  0  0
  3 22  1  0  0  0  0
  4 19  2  0  0  0  0
  5 20  2  0  0  0  0
  6 24  1  0  0  0  0
  6 32  1  0  0  0  0
  7 27  1  0  0  0  0
  7 32  1  0  0  0  0
  8 32  2  0  0  0  0
  9 12  1  0  0  0  0
  9 14  1  0  0  0  0
  9 16  1  0  0  0  0
 10 15  1  0  0  0  0
 10 20  1  0  0  0  0
 10 42  1  0  0  0  0
 11 21  1  0  0  0  0
 11 46  1  0  0  0  0
 11 47  1  0  0  0  0
 12 15  1  0  0  0  0
 12 33  1  0  0  0  0
 13 14  1  0  0  0  0
 13 17  1  0  0  0  0
 13 18  1  0  0  0  0
 14 19  1  0  0  0  0
 14 34  1  0  0  0  0
 15 16  1  0  0  0  0
 15 35  1  0  0  0  0
 17 36  1  0  0  0  0
 17 37  1  0  0  0  0
 17 38  1  0  0  0  0
 18 39  1  0  0  0  0
 18 40  1  0  0  0  0
 18 41  1  0  0  0  0
 20 21  1  0  0  0  0
 21 23  1  0  0  0  0
 21 43  1  0  0  0  0
 22 24  1  0  0  0  0
 22 44  1  0  0  0  0
 22 45  1  0  0  0  0
 23 25  2  0  0  0  0
 23 26  1  0  0  0  0
 24 27  2  0  0  0  0
 25 28  1  0  0  0  0
 25 48  1  0  0  0  0
 26 29  2  0  0  0  0
 26 49  1  0  0  0  0
 27 31  1  0  0  0  0
 28 30  2  0  0  0  0
 28 50  1  0  0  0  0
 29 30  1  0  0  0  0
 29 51  1  0  0  0  0
 30 52  1  0  0  0  0
 31 53  1  0  0  0  0
 31 54  1  0  0  0  0
 31 55  1  0  0  0  0
M  END
> <PUBCHEM_COMPOUND_CID>
3900

> <PUBCHEM_COMPOUND_CANONICALIZED>
1

> <PUBCHEM_CACTVS_COMPLEXITY>
868

> <PUBCHEM_CACTVS_HBOND_ACCEPTOR>
9

> <PUBCHEM_CACTVS_HBOND_DONOR>
2

> <PUBCHEM_CACTVS_ROTATABLE_BOND>
7

> <PUBCHEM_CACTVS_SUBSKEYS>
AAADceB7OABAAAAAAAAAAAAAAABYAWIAAAAwAAAABYAAAAABAAAAHgQQAAAADCzl2AayCIPABAiIAiHSGACCCABgIBAIiIGIBIgbZDqgtTG3MABklgC+qAcYiICOAAAAAAAAAAAAAAAAAAAAAAAAAAAAAA==

> <PUBCHEM_IUPAC_OPENEYE_NAME>
(5-methyl-2-oxo-1,3-dioxol-4-yl)methyl 6-[(2-amino-2-phenyl-acetyl)amino]-3,3-dimethyl-7-oxo-4-thia-1-azabicyclo[3.2.0]heptane-2-carboxylate

> <PUBCHEM_IUPAC_CAS_NAME>
6-[(2-amino-1-oxo-2-phenylethyl)amino]-3,3-dimethyl-7-oxo-4-thia-1-azabicyclo[3.2.0]heptane-2-carboxylic acid (5-methyl-2-oxo-1,3-dioxol-4-yl)methyl ester

> <PUBCHEM_IUPAC_NAME>
(5-methyl-2-oxo-1,3-dioxol-4-yl)methyl 6-[(2-amino-2-phenylacetyl)amino]-3,3-dimethyl-7-oxo-4-thia-1-azabicyclo[3.2.0]heptane-2-carboxylate

> <PUBCHEM_IUPAC_SYSTEMATIC_NAME>
(5-methyl-2-oxidanylidene-1,3-dioxol-4-yl)methyl 6-[(2-azanyl-2-phenyl-ethanoyl)amino]-3,3-dimethyl-7-oxidanylidene-4-thia-1-azabicyclo[3.2.0]heptane-2-carboxylate

> <PUBCHEM_IUPAC_TRADITIONAL_NAME>
6-[(2-amino-2-phenyl-acetyl)amino]-7-keto-3,3-dimethyl-4-thia-1-azabicyclo[3.2.0]heptane-2-carboxylic acid (2-keto-5-methyl-1,3-dioxol-4-yl)methyl ester

> <PUBCHEM_IUPAC_INCHI>
InChI=1S/C21H23N3O7S/c1-10-12(31-20(28)30-10)9-29-19(27)15-21(2,3)32-18-14(17(26)24(15)18)23-16(25)13(22)11-7-5-4-6-8-11/h4-8,13-15,18H,9,22H2,1-3H3,(H,23,25)

> <PUBCHEM_IUPAC_INCHIKEY>
ZKUKMWMSYCIYRD-UHFFFAOYSA-N

> <PUBCHEM_XLOGP3>
1.7

> <PUBCHEM_EXACT_MASS>
461.125671

> <PUBCHEM_MOLECULAR_FORMULA>
C21H23N3O7S

> <PUBCHEM_MOLECULAR_WEIGHT>
461.48822

> <PUBCHEM_OPENEYE_CAN_SMILES>
CC1=C(OC(=O)O1)COC(=O)C2C(SC3N2C(=O)C3NC(=O)C(C4=CC=CC=C4)N)(C)C

> <PUBCHEM_OPENEYE_ISO_SMILES>
CC1=C(OC(=O)O1)COC(=O)C2C(SC3N2C(=O)C3NC(=O)C(C4=CC=CC=C4)N)(C)C

> <PUBCHEM_CACTVS_TPSA>
163

> <PUBCHEM_MONOISOTOPIC_WEIGHT>
461.125671

> <PUBCHEM_TOTAL_CHARGE>
0

> <PUBCHEM_HEAVY_ATOM_COUNT>
32

> <PUBCHEM_ATOM_DEF_STEREO_COUNT>
0

> <PUBCHEM_ATOM_UDEF_STEREO_COUNT>
4

> <PUBCHEM_BOND_DEF_STEREO_COUNT>
0

> <PUBCHEM_BOND_UDEF_STEREO_COUNT>
0

> <PUBCHEM_ISOTOPIC_ATOM_COUNT>
0

> <PUBCHEM_COMPONENT_COUNT>
1

> <PUBCHEM_CACTVS_TAUTO_COUNT>
4

> <PUBCHEM_COORDINATE_TYPE>
1
5
255

> <PUBCHEM_BONDANNOTATIONS>
12  1  3
15  10  3
21  11  3
14  19  3
23  25  8
23  26  8
24  27  8
25  28  8
26  29  8
28  30  8
29  30  8
6  24  8
6  32  8
7  27  8
7  32  8

$$$$

