582824
  -OEChem-06241222442D

 34 35  0     1  0  0  0  0  0999 V2000
    4.5981   -0.8450    0.0000 O   0  0  0  0  0  0  0  0  0  0  0  0
    3.7320   -3.3450    0.0000 O   0  0  0  0  0  0  0  0  0  0  0  0
    6.3301   -1.8450    0.0000 O   0  0  0  0  0  0  0  0  0  0  0  0
    2.0000    0.6550    0.0000 O   0  0  0  0  0  0  0  0  0  0  0  0
    3.7320    3.6550    0.0000 O   0  0  0  0  0  0  0  0  0  0  0  0
    3.7320    0.6550    0.0000 N   0  0  0  0  0  0  0  0  0  0  0  0
    2.8660    2.1550    0.0000 N   0  0  0  0  0  0  0  0  0  0  0  0
    3.7320   -2.3450    0.0000 C   0  0  3  0  0  0  0  0  0  0  0  0
    3.7320   -0.3450    0.0000 C   0  0  3  0  0  0  0  0  0  0  0  0
    2.8660   -1.8450    0.0000 C   0  0  0  0  0  0  0  0  0  0  0  0
    2.8660   -0.8450    0.0000 C   0  0  0  0  0  0  0  0  0  0  0  0
    4.5981   -1.8450    0.0000 C   0  0  3  0  0  0  0  0  0  0  0  0
    5.4641   -2.3450    0.0000 C   0  0  0  0  0  0  0  0  0  0  0  0
    4.5981    1.1550    0.0000 C   0  0  0  0  0  0  0  0  0  0  0  0
    2.8660    1.1550    0.0000 C   0  0  0  0  0  0  0  0  0  0  0  0
    4.5981    2.1550    0.0000 C   0  0  0  0  0  0  0  0  0  0  0  0
    3.7320    2.6550    0.0000 C   0  0  0  0  0  0  0  0  0  0  0  0
    5.4641    2.6550    0.0000 C   0  0  0  0  0  0  0  0  0  0  0  0
    4.4682   -2.7700    0.0000 H   0  0  0  0  0  0  0  0  0  0  0  0
    4.4682    0.0800    0.0000 H   0  0  0  0  0  0  0  0  0  0  0  0
    2.6540   -0.2624    0.0000 H   0  0  0  0  0  0  0  0  0  0  0  0
    2.2554   -0.9527    0.0000 H   0  0  0  0  0  0  0  0  0  0  0  0
    2.2554   -1.7373    0.0000 H   0  0  0  0  0  0  0  0  0  0  0  0
    2.6540   -2.4276    0.0000 H   0  0  0  0  0  0  0  0  0  0  0  0
    5.3342   -1.4200    0.0000 H   0  0  0  0  0  0  0  0  0  0  0  0
    5.0656   -2.8200    0.0000 H   0  0  0  0  0  0  0  0  0  0  0  0
    5.8626   -2.8200    0.0000 H   0  0  0  0  0  0  0  0  0  0  0  0
    5.1350    0.8450    0.0000 H   0  0  0  0  0  0  0  0  0  0  0  0
    3.1951   -3.6550    0.0000 H   0  0  0  0  0  0  0  0  0  0  0  0
    2.3291    2.4650    0.0000 H   0  0  0  0  0  0  0  0  0  0  0  0
    6.8671   -2.1550    0.0000 H   0  0  0  0  0  0  0  0  0  0  0  0
    5.7741    2.1181    0.0000 H   0  0  0  0  0  0  0  0  0  0  0  0
    6.0010    2.9650    0.0000 H   0  0  0  0  0  0  0  0  0  0  0  0
    5.1541    3.1919    0.0000 H   0  0  0  0  0  0  0  0  0  0  0  0
  1  9  1  0  0  0  0
  1 12  1  0  0  0  0
  2  8  1  0  0  0  0
  2 29  1  0  0  0  0
  3 13  1  0  0  0  0
  3 31  1  0  0  0  0
  4 15  2  0  0  0  0
  5 17  2  0  0  0  0
  6  9  1  0  0  0  0
  6 14  1  0  0  0  0
  6 15  1  0  0  0  0
  7 15  1  0  0  0  0
  7 17  1  0  0  0  0
  7 30  1  0  0  0  0
  8 10  1  0  0  0  0
  8 12  1  0  0  0  0
  8 19  1  0  0  0  0
  9 11  1  0  0  0  0
  9 20  1  0  0  0  0
 10 11  1  0  0  0  0
 10 23  1  0  0  0  0
 10 24  1  0  0  0  0
 11 21  1  0  0  0  0
 11 22  1  0  0  0  0
 12 13  1  0  0  0  0
 12 25  1  0  0  0  0
 13 26  1  0  0  0  0
 13 27  1  0  0  0  0
 14 16  2  0  0  0  0
 14 28  1  0  0  0  0
 16 17  1  0  0  0  0
 16 18  1  0  0  0  0
 18 32  1  0  0  0  0
 18 33  1  0  0  0  0
 18 34  1  0  0  0  0
M  END
> <PUBCHEM_COMPOUND_CID>
582824

> <PUBCHEM_COMPOUND_CANONICALIZED>
1

> <PUBCHEM_CACTVS_COMPLEXITY>
395

> <PUBCHEM_CACTVS_HBOND_ACCEPTOR>
5

> <PUBCHEM_CACTVS_HBOND_DONOR>
3

> <PUBCHEM_CACTVS_ROTATABLE_BOND>
2

> <PUBCHEM_CACTVS_SUBSKEYS>
AAADceBzOAAAAAAAAAAAAAAAAAAAAAAAAAAkQAAAAAAAAAAAAAAAHgAQCAAADBThgAYDAAPABgCIAgFWUACAAAAAAAAAAAEIAECBEAIAgQAOQAANByIDAMHwUAIAAAAAAAAAAAAAAAAAAAAAAAAAAAAAAA==

> <PUBCHEM_IUPAC_OPENEYE_NAME>
1-[5-hydroxy-6-(hydroxymethyl)tetrahydropyran-2-yl]-5-methyl-pyrimidine-2,4-dione

> <PUBCHEM_IUPAC_CAS_NAME>
1-[5-hydroxy-6-(hydroxymethyl)-2-oxanyl]-5-methylpyrimidine-2,4-dione

> <PUBCHEM_IUPAC_NAME>
1-[5-hydroxy-6-(hydroxymethyl)oxan-2-yl]-5-methylpyrimidine-2,4-dione

> <PUBCHEM_IUPAC_SYSTEMATIC_NAME>
1-[6-(hydroxymethyl)-5-oxidanyl-oxan-2-yl]-5-methyl-pyrimidine-2,4-dione

> <PUBCHEM_IUPAC_TRADITIONAL_NAME>
1-(5-hydroxy-6-methylol-tetrahydropyran-2-yl)-5-methyl-pyrimidine-2,4-quinone

> <PUBCHEM_IUPAC_INCHI>
InChI=1S/C11H16N2O5/c1-6-4-13(11(17)12-10(6)16)9-3-2-7(15)8(5-14)18-9/h4,7-9,14-15H,2-3,5H2,1H3,(H,12,16,17)

> <PUBCHEM_IUPAC_INCHIKEY>
MNKMLCUOWXYQPE-UHFFFAOYSA-N

> <PUBCHEM_XLOGP3>
-0.8

> <PUBCHEM_EXACT_MASS>
256.105922

> <PUBCHEM_MOLECULAR_FORMULA>
C11H16N2O5

> <PUBCHEM_MOLECULAR_WEIGHT>
256.25514

> <PUBCHEM_OPENEYE_CAN_SMILES>
CC1=CN(C(=O)NC1=O)C2CCC(C(O2)CO)O

> <PUBCHEM_OPENEYE_ISO_SMILES>
CC1=CN(C(=O)NC1=O)C2CCC(C(O2)CO)O

> <PUBCHEM_CACTVS_TPSA>
99.1

> <PUBCHEM_MONOISOTOPIC_WEIGHT>
256.105922

> <PUBCHEM_TOTAL_CHARGE>
0

> <PUBCHEM_HEAVY_ATOM_COUNT>
18

> <PUBCHEM_ATOM_DEF_STEREO_COUNT>
0

> <PUBCHEM_ATOM_UDEF_STEREO_COUNT>
3

> <PUBCHEM_BOND_DEF_STEREO_COUNT>
0

> <PUBCHEM_BOND_UDEF_STEREO_COUNT>
0

> <PUBCHEM_ISOTOPIC_ATOM_COUNT>
0

> <PUBCHEM_COMPONENT_COUNT>
1

> <PUBCHEM_CACTVS_TAUTO_COUNT>
3

> <PUBCHEM_COORDINATE_TYPE>
1
5
255

> <PUBCHEM_BONDANNOTATIONS>
12  25  3
14  16  8
16  17  8
6  14  8
6  15  8
7  15  8
7  17  8
8  19  3
9  20  3

$$$$

