854030
  -OEChem-06241222462D

 23 22  0     1  0  0  0  0  0999 V2000
    5.4641    1.4050    0.0000 O   0  0  0  0  0  0  0  0  0  0  0  0
    4.5981   -1.0950    0.0000 N   0  0  0  0  0  0  0  0  0  0  0  0
    6.3301   -0.0950    0.0000 N   0  0  0  0  0  0  0  0  0  0  0  0
    3.7320    0.4050    0.0000 C   0  0  2  0  0  0  0  0  0  0  0  0
    4.5981   -0.0950    0.0000 C   0  0  2  0  0  0  0  0  0  0  0  0
    2.8660   -0.0950    0.0000 C   0  0  0  0  0  0  0  0  0  0  0  0
    3.7320    1.4050    0.0000 C   0  0  0  0  0  0  0  0  0  0  0  0
    2.0000    0.4050    0.0000 C   0  0  0  0  0  0  0  0  0  0  0  0
    5.4641    0.4050    0.0000 C   0  0  0  0  0  0  0  0  0  0  0  0
    4.2690    0.7150    0.0000 H   0  0  0  0  0  0  0  0  0  0  0  0
    5.1350   -0.4050    0.0000 H   0  0  0  0  0  0  0  0  0  0  0  0
    2.4675   -0.5699    0.0000 H   0  0  0  0  0  0  0  0  0  0  0  0
    3.2646   -0.5699    0.0000 H   0  0  0  0  0  0  0  0  0  0  0  0
    4.3520    1.4050    0.0000 H   0  0  0  0  0  0  0  0  0  0  0  0
    3.7320    2.0250    0.0000 H   0  0  0  0  0  0  0  0  0  0  0  0
    3.1120    1.4050    0.0000 H   0  0  0  0  0  0  0  0  0  0  0  0
    2.3100    0.9419    0.0000 H   0  0  0  0  0  0  0  0  0  0  0  0
    1.4631    0.7150    0.0000 H   0  0  0  0  0  0  0  0  0  0  0  0
    1.6900   -0.1319    0.0000 H   0  0  0  0  0  0  0  0  0  0  0  0
    4.0611   -1.4050    0.0000 H   0  0  0  0  0  0  0  0  0  0  0  0
    5.1350   -1.4050    0.0000 H   0  0  0  0  0  0  0  0  0  0  0  0
    6.8671    0.2150    0.0000 H   0  0  0  0  0  0  0  0  0  0  0  0
    6.3301   -0.7150    0.0000 H   0  0  0  0  0  0  0  0  0  0  0  0
  1  9  2  0  0  0  0
  5  2  1  6  0  0  0
  2 20  1  0  0  0  0
  2 21  1  0  0  0  0
  3  9  1  0  0  0  0
  3 22  1  0  0  0  0
  3 23  1  0  0  0  0
  4  5  1  0  0  0  0
  4  6  1  0  0  0  0
  4  7  1  6  0  0  0
  4 10  1  0  0  0  0
  5  9  1  0  0  0  0
  5 11  1  0  0  0  0
  6  8  1  0  0  0  0
  6 12  1  0  0  0  0
  6 13  1  0  0  0  0
  7 14  1  0  0  0  0
  7 15  1  0  0  0  0
  7 16  1  0  0  0  0
  8 17  1  0  0  0  0
  8 18  1  0  0  0  0
  8 19  1  0  0  0  0
M  END
> <PUBCHEM_COMPOUND_CID>
854030

> <PUBCHEM_COMPOUND_CANONICALIZED>
1

> <PUBCHEM_CACTVS_COMPLEXITY>
103

> <PUBCHEM_CACTVS_HBOND_ACCEPTOR>
2

> <PUBCHEM_CACTVS_HBOND_DONOR>
2

> <PUBCHEM_CACTVS_ROTATABLE_BOND>
3

> <PUBCHEM_CACTVS_SUBSKEYS>
AAADccBjIAAAAAAAAAAAAAAAAAAAAAAAAAAAAAAAAAAAAAAAAAAAHgAQAAAADSjBgAQCAABAAAAIAAEQEAAAAAAAAAAAAIGAAAAAQBIAgAAAAAAAEAAAAAAYAAAKAAAAAAAAAAAAAAAAAAAAAAAAAAAAAA==

> <PUBCHEM_IUPAC_OPENEYE_NAME>
(2R,3S)-2-amino-3-methyl-pentanamide

> <PUBCHEM_IUPAC_CAS_NAME>
(2R,3S)-2-amino-3-methylpentanamide

> <PUBCHEM_IUPAC_NAME>
(2R,3S)-2-amino-3-methylpentanamide

> <PUBCHEM_IUPAC_SYSTEMATIC_NAME>
(2R,3S)-2-azanyl-3-methyl-pentanamide

> <PUBCHEM_IUPAC_TRADITIONAL_NAME>
(2R,3S)-2-amino-3-methyl-valeramide

> <PUBCHEM_IUPAC_INCHI>
InChI=1S/C6H14N2O/c1-3-4(2)5(7)6(8)9/h4-5H,3,7H2,1-2H3,(H2,8,9)/t4-,5+/m0/s1

> <PUBCHEM_IUPAC_INCHIKEY>
JDAMFKGXSUOWBV-CRCLSJGQSA-N

> <PUBCHEM_XLOGP3>
-0.1

> <PUBCHEM_EXACT_MASS>
130.110613

> <PUBCHEM_MOLECULAR_FORMULA>
C6H14N2O

> <PUBCHEM_MOLECULAR_WEIGHT>
130.18816

> <PUBCHEM_OPENEYE_CAN_SMILES>
CCC(C)C(C(=O)N)N

> <PUBCHEM_OPENEYE_ISO_SMILES>
CC[C@H](C)[C@H](C(=O)N)N

> <PUBCHEM_CACTVS_TPSA>
69.1

> <PUBCHEM_MONOISOTOPIC_WEIGHT>
130.110613

> <PUBCHEM_TOTAL_CHARGE>
0

> <PUBCHEM_HEAVY_ATOM_COUNT>
9

> <PUBCHEM_ATOM_DEF_STEREO_COUNT>
2

> <PUBCHEM_ATOM_UDEF_STEREO_COUNT>
0

> <PUBCHEM_BOND_DEF_STEREO_COUNT>
0

> <PUBCHEM_BOND_UDEF_STEREO_COUNT>
0

> <PUBCHEM_ISOTOPIC_ATOM_COUNT>
0

> <PUBCHEM_COMPONENT_COUNT>
1

> <PUBCHEM_CACTVS_TAUTO_COUNT>
5

> <PUBCHEM_COORDINATE_TYPE>
1
5
255

> <PUBCHEM_BONDANNOTATIONS>
5  2  6
4  7  6

$$$$

