14308
  -OEChem-06241222432D

 17 17  0     1  0  0  0  0  0999 V2000
    4.4467   -1.1852    0.0000 S   0  0  0  0  0  0  0  0  0  0  0  0
    3.6377   -0.5974    0.0000 S   0  0  0  0  0  0  0  0  0  0  0  0
    6.4147   -1.8846    0.0000 O   0  0  0  0  0  0  0  0  0  0  0  0
    2.3644    1.0581    0.0000 O   0  0  0  0  0  0  0  0  0  0  0  0
    6.9500   -0.2373    0.0000 O   0  0  0  0  0  0  0  0  0  0  0  0
    3.7657    2.0762    0.0000 O   0  0  0  0  0  0  0  0  0  0  0  0
    4.9467    0.3536    0.0000 C   0  0  0  0  0  0  0  0  0  0  0  0
    5.2558   -0.5974    0.0000 C   0  0  3  0  0  0  0  0  0  0  0  0
    3.9467    0.3536    0.0000 C   0  0  3  0  0  0  0  0  0  0  0  0
    6.2068   -0.9064    0.0000 C   0  0  0  0  0  0  0  0  0  0  0  0
    3.3590    1.1626    0.0000 C   0  0  0  0  0  0  0  0  0  0  0  0
    5.5532    0.4825    0.0000 H   0  0  0  0  0  0  0  0  0  0  0  0
    4.8819    0.9702    0.0000 H   0  0  0  0  0  0  0  0  0  0  0  0
    3.3344    0.2566    0.0000 H   0  0  0  0  0  0  0  0  0  0  0  0
    5.3527   -1.2098    0.0000 H   0  0  0  0  0  0  0  0  0  0  0  0
    7.0044   -2.0762    0.0000 H   0  0  0  0  0  0  0  0  0  0  0  0
    2.0000    1.5597    0.0000 H   0  0  0  0  0  0  0  0  0  0  0  0
  1  2  1  0  0  0  0
  1  8  1  0  0  0  0
  2  9  1  0  0  0  0
  3 10  1  0  0  0  0
  3 16  1  0  0  0  0
  4 11  1  0  0  0  0
  4 17  1  0  0  0  0
  5 10  2  0  0  0  0
  6 11  2  0  0  0  0
  7  8  1  0  0  0  0
  7  9  1  0  0  0  0
  7 12  1  0  0  0  0
  7 13  1  0  0  0  0
  8 10  1  0  0  0  0
  8 15  1  0  0  0  0
  9 11  1  0  0  0  0
  9 14  1  0  0  0  0
M  END
> <PUBCHEM_COMPOUND_CID>
14308

> <PUBCHEM_COMPOUND_CANONICALIZED>
1

> <PUBCHEM_CACTVS_COMPLEXITY>
173

> <PUBCHEM_CACTVS_HBOND_ACCEPTOR>
6

> <PUBCHEM_CACTVS_HBOND_DONOR>
2

> <PUBCHEM_CACTVS_ROTATABLE_BOND>
2

> <PUBCHEM_CACTVS_SUBSKEYS>
AAADcYBgOABgAAAAAAAAAAAAAAAAASAAAAAAAAAAAAAAAAAAAAAAGgQACAAACACEwACACAAAAgAIAACQCAAAAAAAAAAAAAEAAAAAABIAAAAAQAAEAAAAAACIJgAAAAAAAAAAAAAAAAAAAAAAAAAAAAAAAA==

> <PUBCHEM_IUPAC_OPENEYE_NAME>
dithiolane-3,5-dicarboxylic acid

> <PUBCHEM_IUPAC_CAS_NAME>
dithiolane-3,5-dicarboxylic acid

> <PUBCHEM_IUPAC_NAME>
dithiolane-3,5-dicarboxylic acid

> <PUBCHEM_IUPAC_SYSTEMATIC_NAME>
1,2-dithiolane-3,5-dicarboxylic acid

> <PUBCHEM_IUPAC_TRADITIONAL_NAME>
dithiolane-3,5-dicarboxylic acid

> <PUBCHEM_IUPAC_INCHI>
InChI=1S/C5H6O4S2/c6-4(7)2-1-3(5(8)9)11-10-2/h2-3H,1H2,(H,6,7)(H,8,9)

> <PUBCHEM_IUPAC_INCHIKEY>
OBKGJBFGGPSACP-UHFFFAOYSA-N

> <PUBCHEM_XLOGP3_AA>
0.3

> <PUBCHEM_EXACT_MASS>
193.970751

> <PUBCHEM_MOLECULAR_FORMULA>
C5H6O4S2

> <PUBCHEM_MOLECULAR_WEIGHT>
194.22874

> <PUBCHEM_OPENEYE_CAN_SMILES>
C1C(SSC1C(=O)O)C(=O)O

> <PUBCHEM_OPENEYE_ISO_SMILES>
C1C(SSC1C(=O)O)C(=O)O

> <PUBCHEM_CACTVS_TPSA>
125

> <PUBCHEM_MONOISOTOPIC_WEIGHT>
193.970751

> <PUBCHEM_TOTAL_CHARGE>
0

> <PUBCHEM_HEAVY_ATOM_COUNT>
11

> <PUBCHEM_ATOM_DEF_STEREO_COUNT>
0

> <PUBCHEM_ATOM_UDEF_STEREO_COUNT>
2

> <PUBCHEM_BOND_DEF_STEREO_COUNT>
0

> <PUBCHEM_BOND_UDEF_STEREO_COUNT>
0

> <PUBCHEM_ISOTOPIC_ATOM_COUNT>
0

> <PUBCHEM_COMPONENT_COUNT>
1

> <PUBCHEM_CACTVS_TAUTO_COUNT>
1

> <PUBCHEM_COORDINATE_TYPE>
1
5
255

> <PUBCHEM_BONDANNOTATIONS>
8  10  3
9  11  3

$$$$

