583034
  -OEChem-06241222442D

 37 38  0     1  0  0  0  0  0999 V2000
    2.5369   -0.2990    0.0000 O   0  0  0  0  0  0  0  0  0  0  0  0
    3.4030   -1.7990    0.0000 O   0  0  0  0  0  0  0  0  0  0  0  0
    6.0010   -0.2990    0.0000 C   0  0  3  0  0  0  0  0  0  0  0  0
    5.1350   -0.7990    0.0000 C   0  0  3  0  0  0  0  0  0  0  0  0
    6.8671   -0.7990    0.0000 C   0  0  0  0  0  0  0  0  0  0  0  0
    5.1350   -1.7990    0.0000 C   0  0  0  0  0  0  0  0  0  0  0  0
    6.8671   -1.7990    0.0000 C   0  0  0  0  0  0  0  0  0  0  0  0
    6.0010   -2.2990    0.0000 C   0  0  0  0  0  0  0  0  0  0  0  0
    6.5010    0.5670    0.0000 C   0  0  0  0  0  0  0  0  0  0  0  0
    5.5010    0.5670    0.0000 C   0  0  0  0  0  0  0  0  0  0  0  0
    4.2690   -0.2990    0.0000 C   0  0  0  0  0  0  0  0  0  0  0  0
    7.5010    0.5670    0.0000 C   0  0  0  0  0  0  0  0  0  0  0  0
    6.0010    1.4330    0.0000 C   0  0  0  0  0  0  0  0  0  0  0  0
    3.4030   -0.7990    0.0000 C   0  0  0  0  0  0  0  0  0  0  0  0
    8.0010    1.4330    0.0000 C   0  0  0  0  0  0  0  0  0  0  0  0
    6.5010    2.2990    0.0000 C   0  0  0  0  0  0  0  0  0  0  0  0
    7.5010    2.2990    0.0000 C   0  0  0  0  0  0  0  0  0  0  0  0
    5.1350    0.0510    0.0000 H   0  0  0  0  0  0  0  0  0  0  0  0
    7.4776   -0.9067    0.0000 H   0  0  0  0  0  0  0  0  0  0  0  0
    7.0791   -0.2164    0.0000 H   0  0  0  0  0  0  0  0  0  0  0  0
    4.5244   -1.6914    0.0000 H   0  0  0  0  0  0  0  0  0  0  0  0
    4.9230   -2.3816    0.0000 H   0  0  0  0  0  0  0  0  0  0  0  0
    7.0791   -2.3816    0.0000 H   0  0  0  0  0  0  0  0  0  0  0  0
    7.4776   -1.6914    0.0000 H   0  0  0  0  0  0  0  0  0  0  0  0
    5.6025   -2.7740    0.0000 H   0  0  0  0  0  0  0  0  0  0  0  0
    6.3996   -2.7740    0.0000 H   0  0  0  0  0  0  0  0  0  0  0  0
    6.0380    0.8770    0.0000 H   0  0  0  0  0  0  0  0  0  0  0  0
    5.1910    1.1039    0.0000 H   0  0  0  0  0  0  0  0  0  0  0  0
    4.9641    0.2570    0.0000 H   0  0  0  0  0  0  0  0  0  0  0  0
    4.6675    0.1759    0.0000 H   0  0  0  0  0  0  0  0  0  0  0  0
    3.8705    0.1759    0.0000 H   0  0  0  0  0  0  0  0  0  0  0  0
    7.8110    0.0301    0.0000 H   0  0  0  0  0  0  0  0  0  0  0  0
    5.3810    1.4330    0.0000 H   0  0  0  0  0  0  0  0  0  0  0  0
    8.6210    1.4330    0.0000 H   0  0  0  0  0  0  0  0  0  0  0  0
    6.1910    2.8360    0.0000 H   0  0  0  0  0  0  0  0  0  0  0  0
    7.8110    2.8360    0.0000 H   0  0  0  0  0  0  0  0  0  0  0  0
    2.0000   -0.6090    0.0000 H   0  0  0  0  0  0  0  0  0  0  0  0
  1 14  1  0  0  0  0
  1 37  1  0  0  0  0
  2 14  2  0  0  0  0
  3  4  1  0  0  0  0
  3  5  1  0  0  0  0
  3  9  1  0  0  0  0
  3 10  1  0  0  0  0
  4  6  1  0  0  0  0
  4 11  1  0  0  0  0
  4 18  1  0  0  0  0
  5  7  1  0  0  0  0
  5 19  1  0  0  0  0
  5 20  1  0  0  0  0
  6  8  1  0  0  0  0
  6 21  1  0  0  0  0
  6 22  1  0  0  0  0
  7  8  1  0  0  0  0
  7 23  1  0  0  0  0
  7 24  1  0  0  0  0
  8 25  1  0  0  0  0
  8 26  1  0  0  0  0
  9 12  2  0  0  0  0
  9 13  1  0  0  0  0
 10 27  1  0  0  0  0
 10 28  1  0  0  0  0
 10 29  1  0  0  0  0
 11 14  1  0  0  0  0
 11 30  1  0  0  0  0
 11 31  1  0  0  0  0
 12 15  1  0  0  0  0
 12 32  1  0  0  0  0
 13 16  2  0  0  0  0
 13 33  1  0  0  0  0
 15 17  2  0  0  0  0
 15 34  1  0  0  0  0
 16 17  1  0  0  0  0
 16 35  1  0  0  0  0
 17 36  1  0  0  0  0
M  END
> <PUBCHEM_COMPOUND_CID>
583034

> <PUBCHEM_COMPOUND_CANONICALIZED>
1

> <PUBCHEM_CACTVS_COMPLEXITY>
268

> <PUBCHEM_CACTVS_HBOND_ACCEPTOR>
2

> <PUBCHEM_CACTVS_HBOND_DONOR>
1

> <PUBCHEM_CACTVS_ROTATABLE_BOND>
3

> <PUBCHEM_CACTVS_SUBSKEYS>
AAADceBwMAAAAAAAAAAAAAAAAAAAAAAAAAAwYAAAAAAAAAABAAAAGgAACAAADwCAmAAyCIAAAgCIAiDSCAACAAAgAAAIiAEAAIgIIDKAERCAYAAkgAAIiAeIyPCPgAAAAAAAAAAAAAAAACAAAAAAAAAAAA==

> <PUBCHEM_IUPAC_OPENEYE_NAME>
2-(2-methyl-2-phenyl-cyclohexyl)acetic acid

> <PUBCHEM_IUPAC_CAS_NAME>
2-(2-methyl-2-phenylcyclohexyl)acetic acid

> <PUBCHEM_IUPAC_NAME>
2-(2-methyl-2-phenylcyclohexyl)acetic acid

> <PUBCHEM_IUPAC_SYSTEMATIC_NAME>
2-(2-methyl-2-phenyl-cyclohexyl)ethanoic acid

> <PUBCHEM_IUPAC_TRADITIONAL_NAME>
2-(2-methyl-2-phenyl-cyclohexyl)acetic acid

> <PUBCHEM_IUPAC_INCHI>
InChI=1S/C15H20O2/c1-15(12-7-3-2-4-8-12)10-6-5-9-13(15)11-14(16)17/h2-4,7-8,13H,5-6,9-11H2,1H3,(H,16,17)

> <PUBCHEM_IUPAC_INCHIKEY>
ARICQTULAMMFRI-UHFFFAOYSA-N

> <PUBCHEM_XLOGP3_AA>
4.2

> <PUBCHEM_EXACT_MASS>
232.14633

> <PUBCHEM_MOLECULAR_FORMULA>
C15H20O2

> <PUBCHEM_MOLECULAR_WEIGHT>
232.3181

> <PUBCHEM_OPENEYE_CAN_SMILES>
CC1(CCCCC1CC(=O)O)C2=CC=CC=C2

> <PUBCHEM_OPENEYE_ISO_SMILES>
CC1(CCCCC1CC(=O)O)C2=CC=CC=C2

> <PUBCHEM_CACTVS_TPSA>
37.3

> <PUBCHEM_MONOISOTOPIC_WEIGHT>
232.14633

> <PUBCHEM_TOTAL_CHARGE>
0

> <PUBCHEM_HEAVY_ATOM_COUNT>
17

> <PUBCHEM_ATOM_DEF_STEREO_COUNT>
0

> <PUBCHEM_ATOM_UDEF_STEREO_COUNT>
2

> <PUBCHEM_BOND_DEF_STEREO_COUNT>
0

> <PUBCHEM_BOND_UDEF_STEREO_COUNT>
0

> <PUBCHEM_ISOTOPIC_ATOM_COUNT>
0

> <PUBCHEM_COMPONENT_COUNT>
1

> <PUBCHEM_CACTVS_TAUTO_COUNT>
1

> <PUBCHEM_COORDINATE_TYPE>
1
5
255

> <PUBCHEM_BONDANNOTATIONS>
12  15  8
13  16  8
15  17  8
16  17  8
3  10  3
4  18  3
9  12  8
9  13  8

$$$$

