10083
  -OEChem-06261204182D

 41 43  0     1  0  0  0  0  0999 V2000
    2.4030    0.0000    0.0000 O   0  0  0  0  0  0  0  0  0  0  0  0
    2.5369   -1.5000    0.0000 N   0  0  0  0  0  0  0  0  0  0  0  0
    3.4030   -1.0000    0.0000 C   0  0  3  0  0  0  0  0  0  0  0  0
    3.4030    0.0000    0.0000 C   0  0  0  0  0  0  0  0  0  0  0  0
    4.2690   -1.5000    0.0000 C   0  0  0  0  0  0  0  0  0  0  0  0
    4.2690   -2.5000    0.0000 C   0  0  0  0  0  0  0  0  0  0  0  0
    3.4030   -3.0000    0.0000 C   0  0  0  0  0  0  0  0  0  0  0  0
    2.5369   -2.5000    0.0000 C   0  0  0  0  0  0  0  0  0  0  0  0
    3.4030    1.0000    0.0000 C   0  0  0  0  0  0  0  0  0  0  0  0
    4.4030    0.0000    0.0000 C   0  0  0  0  0  0  0  0  0  0  0  0
    4.2690    1.5000    0.0000 C   0  0  0  0  0  0  0  0  0  0  0  0
    4.9030    0.8660    0.0000 C   0  0  0  0  0  0  0  0  0  0  0  0
    2.5369    1.5000    0.0000 C   0  0  0  0  0  0  0  0  0  0  0  0
    4.9030   -0.8660    0.0000 C   0  0  0  0  0  0  0  0  0  0  0  0
    5.9030    0.8660    0.0000 C   0  0  0  0  0  0  0  0  0  0  0  0
    4.2690    2.5000    0.0000 C   0  0  0  0  0  0  0  0  0  0  0  0
    2.5369    2.5000    0.0000 C   0  0  0  0  0  0  0  0  0  0  0  0
    5.9030   -0.8660    0.0000 C   0  0  0  0  0  0  0  0  0  0  0  0
    6.4030    0.0000    0.0000 C   0  0  0  0  0  0  0  0  0  0  0  0
    3.4030    3.0000    0.0000 C   0  0  0  0  0  0  0  0  0  0  0  0
    2.8660   -0.6900    0.0000 H   0  0  0  0  0  0  0  0  0  0  0  0
    4.8796   -1.6077    0.0000 H   0  0  0  0  0  0  0  0  0  0  0  0
    4.4810   -0.9174    0.0000 H   0  0  0  0  0  0  0  0  0  0  0  0
    4.4810   -3.0826    0.0000 H   0  0  0  0  0  0  0  0  0  0  0  0
    4.8796   -2.3923    0.0000 H   0  0  0  0  0  0  0  0  0  0  0  0
    2.0000   -1.1900    0.0000 H   0  0  0  0  0  0  0  0  0  0  0  0
    3.0044   -3.4750    0.0000 H   0  0  0  0  0  0  0  0  0  0  0  0
    3.8015   -3.4750    0.0000 H   0  0  0  0  0  0  0  0  0  0  0  0
    1.9264   -2.3923    0.0000 H   0  0  0  0  0  0  0  0  0  0  0  0
    2.3249   -3.0826    0.0000 H   0  0  0  0  0  0  0  0  0  0  0  0
    2.0930    0.5369    0.0000 H   0  0  0  0  0  0  0  0  0  0  0  0
    4.5930    1.4030    0.0000 H   0  0  0  0  0  0  0  0  0  0  0  0
    4.8059    1.1900    0.0000 H   0  0  0  0  0  0  0  0  0  0  0  0
    4.5930   -1.4030    0.0000 H   0  0  0  0  0  0  0  0  0  0  0  0
    2.0000    1.1900    0.0000 H   0  0  0  0  0  0  0  0  0  0  0  0
    6.2130    1.4030    0.0000 H   0  0  0  0  0  0  0  0  0  0  0  0
    4.8059    2.8100    0.0000 H   0  0  0  0  0  0  0  0  0  0  0  0
    6.2130   -1.4030    0.0000 H   0  0  0  0  0  0  0  0  0  0  0  0
    2.0000    2.8100    0.0000 H   0  0  0  0  0  0  0  0  0  0  0  0
    3.4030    3.6200    0.0000 H   0  0  0  0  0  0  0  0  0  0  0  0
    7.0230    0.0000    0.0000 H   0  0  0  0  0  0  0  0  0  0  0  0
  1  4  1  0  0  0  0
  1 31  1  0  0  0  0
  2  3  1  0  0  0  0
  2  8  1  0  0  0  0
  2 26  1  0  0  0  0
  3  4  1  0  0  0  0
  3  5  1  0  0  0  0
  3 21  1  0  0  0  0
  4  9  1  0  0  0  0
  4 10  1  0  0  0  0
  5  6  1  0  0  0  0
  5 22  1  0  0  0  0
  5 23  1  0  0  0  0
  6  7  1  0  0  0  0
  6 24  1  0  0  0  0
  6 25  1  0  0  0  0
  7  8  1  0  0  0  0
  7 27  1  0  0  0  0
  7 28  1  0  0  0  0
  8 29  1  0  0  0  0
  8 30  1  0  0  0  0
  9 11  2  0  0  0  0
  9 13  1  0  0  0  0
 10 12  2  0  0  0  0
 10 14  1  0  0  0  0
 11 16  1  0  0  0  0
 11 33  1  0  0  0  0
 12 15  1  0  0  0  0
 12 32  1  0  0  0  0
 13 17  2  0  0  0  0
 13 35  1  0  0  0  0
 14 18  2  0  0  0  0
 14 34  1  0  0  0  0
 15 19  2  0  0  0  0
 15 36  1  0  0  0  0
 16 20  2  0  0  0  0
 16 37  1  0  0  0  0
 17 20  1  0  0  0  0
 17 39  1  0  0  0  0
 18 19  1  0  0  0  0
 18 38  1  0  0  0  0
 19 41  1  0  0  0  0
 20 40  1  0  0  0  0
M  END
> <PUBCHEM_COMPOUND_CID>
10083

> <PUBCHEM_COMPOUND_CANONICALIZED>
1

> <PUBCHEM_CACTVS_COMPLEXITY>
274

> <PUBCHEM_CACTVS_HBOND_ACCEPTOR>
2

> <PUBCHEM_CACTVS_HBOND_DONOR>
2

> <PUBCHEM_CACTVS_ROTATABLE_BOND>
3

> <PUBCHEM_CACTVS_SUBSKEYS>
AAADceB6IAAAAAAAAAAAAAAAAAAAAAAAAAA8YIAAAAAAAAABQAAAHgAQCAAADGzBmAQwAILAAgCAAiBCAAACAAAgAAAIiIAICIgKJiKAkRGEcAAk0AGYmAeQwOAOgAAAAAAAAAAAAAAAAAAAAAAAAAAAAA==

> <PUBCHEM_IUPAC_OPENEYE_NAME>
diphenyl(2-piperidyl)methanol

> <PUBCHEM_IUPAC_CAS_NAME>
diphenyl(2-piperidinyl)methanol

> <PUBCHEM_IUPAC_NAME>
diphenyl(piperidin-2-yl)methanol

> <PUBCHEM_IUPAC_SYSTEMATIC_NAME>
diphenyl(piperidin-2-yl)methanol

> <PUBCHEM_IUPAC_TRADITIONAL_NAME>
diphenyl(2-piperidyl)methanol

> <PUBCHEM_IUPAC_INCHI>
InChI=1S/C18H21NO/c20-18(15-9-3-1-4-10-15,16-11-5-2-6-12-16)17-13-7-8-14-19-17/h1-6,9-12,17,19-20H,7-8,13-14H2

> <PUBCHEM_IUPAC_INCHIKEY>
XSWHNYGMWWVAIE-UHFFFAOYSA-N

> <PUBCHEM_XLOGP3_AA>
3

> <PUBCHEM_EXACT_MASS>
267.162314

> <PUBCHEM_MOLECULAR_FORMULA>
C18H21NO

> <PUBCHEM_MOLECULAR_WEIGHT>
267.36544

> <PUBCHEM_OPENEYE_CAN_SMILES>
C1CCNC(C1)C(C2=CC=CC=C2)(C3=CC=CC=C3)O

> <PUBCHEM_OPENEYE_ISO_SMILES>
C1CCNC(C1)C(C2=CC=CC=C2)(C3=CC=CC=C3)O

> <PUBCHEM_CACTVS_TPSA>
32.3

> <PUBCHEM_MONOISOTOPIC_WEIGHT>
267.162314

> <PUBCHEM_TOTAL_CHARGE>
0

> <PUBCHEM_HEAVY_ATOM_COUNT>
20

> <PUBCHEM_ATOM_DEF_STEREO_COUNT>
0

> <PUBCHEM_ATOM_UDEF_STEREO_COUNT>
1

> <PUBCHEM_BOND_DEF_STEREO_COUNT>
0

> <PUBCHEM_BOND_UDEF_STEREO_COUNT>
0

> <PUBCHEM_ISOTOPIC_ATOM_COUNT>
0

> <PUBCHEM_COMPONENT_COUNT>
1

> <PUBCHEM_CACTVS_TAUTO_COUNT>
1

> <PUBCHEM_COORDINATE_TYPE>
1
5
255

> <PUBCHEM_BONDANNOTATIONS>
10  12  8
10  14  8
11  16  8
12  15  8
13  17  8
14  18  8
15  19  8
16  20  8
17  20  8
18  19  8
3  4  3
9  11  8
9  13  8

$$$$

