47205094
  -OEChem-06241222582D

 36 38  0     1  0  0  0  0  0999 V2000
    4.2300    0.5237    0.0000 O   0  0  0  0  0  0  0  0  0  0  0  0
    4.6783   -1.1493    0.0000 N   0  0  0  0  0  0  0  0  0  0  0  0
    2.5200   -2.7324    0.0000 N   0  0  0  0  0  0  0  0  0  0  0  0
    2.5723   -3.7311    0.0000 N   0  0  0  0  0  0  0  0  0  0  0  0
    7.8939    2.0414    0.0000 C   0  0  3  0  0  0  0  0  0  0  0  0
    8.1527    3.0073    0.0000 C   0  0  3  0  0  0  0  0  0  0  0  0
    6.1619    1.0414    0.0000 C   0  0  3  0  0  0  0  0  0  0  0  0
    7.4161    3.9899    0.0000 C   0  0  0  0  0  0  0  0  0  0  0  0
    5.6619    1.9074    0.0000 C   0  0  0  0  0  0  0  0  0  0  0  0
    9.7259    1.2825    0.0000 C   0  0  0  0  0  0  0  0  0  0  0  0
    9.9847    2.2484    0.0000 C   0  0  0  0  0  0  0  0  0  0  0  0
    5.9030    0.0754    0.0000 C   0  0  0  0  0  0  0  0  0  0  0  0
    4.9371   -0.1834    0.0000 C   0  0  0  0  0  0  0  0  0  0  0  0
    3.7124   -1.4081    0.0000 C   0  0  0  0  0  0  0  0  0  0  0  0
    3.4536   -2.3741    0.0000 C   0  0  0  0  0  0  0  0  0  0  0  0
    4.0829   -3.1512    0.0000 C   0  0  0  0  0  0  0  0  0  0  0  0
    3.5382   -3.9899    0.0000 C   0  0  0  0  0  0  0  0  0  0  0  0
    7.9345    1.4227    0.0000 H   0  0  0  0  0  0  0  0  0  0  0  0
    8.1599    2.3873    0.0000 H   0  0  0  0  0  0  0  0  0  0  0  0
    5.5472    0.9604    0.0000 H   0  0  0  0  0  0  0  0  0  0  0  0
    7.7339    4.5222    0.0000 H   0  0  0  0  0  0  0  0  0  0  0  0
    6.8030    4.0818    0.0000 H   0  0  0  0  0  0  0  0  0  0  0  0
    5.3912    2.4652    0.0000 H   0  0  0  0  0  0  0  0  0  0  0  0
    5.1141    1.6169    0.0000 H   0  0  0  0  0  0  0  0  0  0  0  0
    9.5138    0.6999    0.0000 H   0  0  0  0  0  0  0  0  0  0  0  0
   10.3172    1.0961    0.0000 H   0  0  0  0  0  0  0  0  0  0  0  0
   10.5760    2.0620    0.0000 H   0  0  0  0  0  0  0  0  0  0  0  0
   10.1967    2.8311    0.0000 H   0  0  0  0  0  0  0  0  0  0  0  0
    5.9571   -0.5422    0.0000 H   0  0  0  0  0  0  0  0  0  0  0  0
    6.5207    0.0214    0.0000 H   0  0  0  0  0  0  0  0  0  0  0  0
    5.1167   -1.5877    0.0000 H   0  0  0  0  0  0  0  0  0  0  0  0
    3.6583   -0.7905    0.0000 H   0  0  0  0  0  0  0  0  0  0  0  0
    3.0947   -1.3541    0.0000 H   0  0  0  0  0  0  0  0  0  0  0  0
    4.7020   -3.1188    0.0000 H   0  0  0  0  0  0  0  0  0  0  0  0
    2.0000   -2.3948    0.0000 H   0  0  0  0  0  0  0  0  0  0  0  0
    3.7604   -4.5687    0.0000 H   0  0  0  0  0  0  0  0  0  0  0  0
  1 13  2  0  0  0  0
  2 13  1  0  0  0  0
  2 14  1  0  0  0  0
  2 31  1  0  0  0  0
  3  4  1  0  0  0  0
  3 15  1  0  0  0  0
  3 35  1  0  0  0  0
  4 17  2  0  0  0  0
  5  7  1  0  0  0  0
  5  8  1  0  0  0  0
  5 10  1  0  0  0  0
  5 18  1  0  0  0  0
  6  8  1  0  0  0  0
  6  9  1  0  0  0  0
  6 11  1  0  0  0  0
  6 19  1  0  0  0  0
  7  9  1  0  0  0  0
  7 12  1  0  0  0  0
  7 20  1  0  0  0  0
  8 21  1  0  0  0  0
  8 22  1  0  0  0  0
  9 23  1  0  0  0  0
  9 24  1  0  0  0  0
 10 11  1  0  0  0  0
 10 25  1  0  0  0  0
 10 26  1  0  0  0  0
 11 27  1  0  0  0  0
 11 28  1  0  0  0  0
 12 13  1  0  0  0  0
 12 29  1  0  0  0  0
 12 30  1  0  0  0  0
 14 15  1  0  0  0  0
 14 32  1  0  0  0  0
 14 33  1  0  0  0  0
 15 16  2  0  0  0  0
 16 17  1  0  0  0  0
 16 34  1  0  0  0  0
 17 36  1  0  0  0  0
M  END
> <PUBCHEM_COMPOUND_CID>
47205094

> <PUBCHEM_COMPOUND_CANONICALIZED>
1

> <PUBCHEM_CACTVS_COMPLEXITY>
294

> <PUBCHEM_CACTVS_HBOND_ACCEPTOR>
2

> <PUBCHEM_CACTVS_HBOND_DONOR>
2

> <PUBCHEM_CACTVS_ROTATABLE_BOND>
4

> <PUBCHEM_CACTVS_SUBSKEYS>
AAADceBzIAAAAAAAAAAAAAAAAAAAAeMEAAAwAAAAAAAAAAABgAAAHgAYAAAADQjBlgQ8gJLjAACqATV3UACQBAAgggAYOaE4ZBgAYJIAwcEUhAhAHgCAQAEYiMCOgAAAAAAAAAAAAAQAACAAAQAACAAAAA==

> <PUBCHEM_IUPAC_OPENEYE_NAME>
2-norbornan-2-yl-N-(1H-pyrazol-5-ylmethyl)acetamide

> <PUBCHEM_IUPAC_CAS_NAME>
2-(3-bicyclo[2.2.1]heptanyl)-N-(1H-pyrazol-5-ylmethyl)acetamide

> <PUBCHEM_IUPAC_NAME>
2-(3-bicyclo[2.2.1]heptanyl)-N-(1H-pyrazol-5-ylmethyl)acetamide

> <PUBCHEM_IUPAC_SYSTEMATIC_NAME>
2-(3-bicyclo[2.2.1]heptanyl)-N-(1H-pyrazol-5-ylmethyl)ethanamide

> <PUBCHEM_IUPAC_TRADITIONAL_NAME>
2-(2-norbornyl)-N-(1H-pyrazol-5-ylmethyl)acetamide

> <PUBCHEM_IUPAC_INCHI>
InChI=1S/C13H19N3O/c17-13(14-8-12-3-4-15-16-12)7-11-6-9-1-2-10(11)5-9/h3-4,9-11H,1-2,5-8H2,(H,14,17)(H,15,16)

> <PUBCHEM_IUPAC_INCHIKEY>
OTLOEEIOPRUNCJ-UHFFFAOYSA-N

> <PUBCHEM_XLOGP3_AA>
1.8

> <PUBCHEM_EXACT_MASS>
233.152812

> <PUBCHEM_MOLECULAR_FORMULA>
C13H19N3O

> <PUBCHEM_MOLECULAR_WEIGHT>
233.30946

> <PUBCHEM_OPENEYE_CAN_SMILES>
C1CC2CC1CC2CC(=O)NCC3=CC=NN3

> <PUBCHEM_OPENEYE_ISO_SMILES>
C1CC2CC1CC2CC(=O)NCC3=CC=NN3

> <PUBCHEM_CACTVS_TPSA>
57.8

> <PUBCHEM_MONOISOTOPIC_WEIGHT>
233.152812

> <PUBCHEM_TOTAL_CHARGE>
0

> <PUBCHEM_HEAVY_ATOM_COUNT>
17

> <PUBCHEM_ATOM_DEF_STEREO_COUNT>
0

> <PUBCHEM_ATOM_UDEF_STEREO_COUNT>
3

> <PUBCHEM_BOND_DEF_STEREO_COUNT>
0

> <PUBCHEM_BOND_UDEF_STEREO_COUNT>
0

> <PUBCHEM_ISOTOPIC_ATOM_COUNT>
0

> <PUBCHEM_COMPONENT_COUNT>
1

> <PUBCHEM_CACTVS_TAUTO_COUNT>
4

> <PUBCHEM_COORDINATE_TYPE>
1
5
255

> <PUBCHEM_BONDANNOTATIONS>
15  16  8
16  17  8
3  15  8
3  4  8
4  17  8
5  10  3
6  11  3
7  12  3

$$$$

