51091002
  -OEChem-06241223012D

 41 43  0     0  0  0  0  0  0999 V2000
    2.9230   -0.5054    0.0000 S   0  0  0  0  0  0  0  0  0  0  0  0
    2.8660   -2.5932    0.0000 O   0  0  0  0  0  0  0  0  0  0  0  0
    5.9954    2.8727    0.0000 O   0  0  0  0  0  0  0  0  0  0  0  0
    3.5115    5.0932    0.0000 N   0  0  0  0  0  0  0  0  0  0  0  0
    4.4250    5.4999    0.0000 N   0  0  0  0  0  0  0  0  0  0  0  0
    4.5411   -0.5054    0.0000 N   0  0  0  0  0  0  0  0  0  0  0  0
    4.5942    3.8908    0.0000 C   0  0  0  0  0  0  0  0  0  0  0  0
    5.0942    4.7568    0.0000 C   0  0  0  0  0  0  0  0  0  0  0  0
    3.6160    4.0987    0.0000 C   0  0  0  0  0  0  0  0  0  0  0  0
    5.0009    2.9772    0.0000 C   0  0  0  0  0  0  0  0  0  0  0  0
    6.0887    4.8613    0.0000 C   0  0  0  0  0  0  0  0  0  0  0  0
    2.6454    5.5932    0.0000 C   0  0  0  0  0  0  0  0  0  0  0  0
    4.4131    2.1682    0.0000 C   0  0  0  0  0  0  0  0  0  0  0  0
    4.2320    0.4456    0.0000 C   0  0  0  0  0  0  0  0  0  0  0  0
    3.7320   -1.0932    0.0000 C   0  0  0  0  0  0  0  0  0  0  0  0
    3.7320   -2.0932    0.0000 C   0  0  0  0  0  0  0  0  0  0  0  0
    4.8198    1.2547    0.0000 C   0  0  0  0  0  0  0  0  0  0  0  0
    3.2320    0.4456    0.0000 C   0  0  0  0  0  0  0  0  0  0  0  0
    2.8660   -3.5932    0.0000 C   0  0  0  0  0  0  0  0  0  0  0  0
    2.0000   -4.0932    0.0000 C   0  0  0  0  0  0  0  0  0  0  0  0
    3.7320   -4.0932    0.0000 C   0  0  0  0  0  0  0  0  0  0  0  0
    2.0000   -5.0932    0.0000 C   0  0  0  0  0  0  0  0  0  0  0  0
    3.7320   -5.0932    0.0000 C   0  0  0  0  0  0  0  0  0  0  0  0
    2.8660   -5.5932    0.0000 C   0  0  0  0  0  0  0  0  0  0  0  0
    3.1552    3.6838    0.0000 H   0  0  0  0  0  0  0  0  0  0  0  0
    6.1535    4.2447    0.0000 H   0  0  0  0  0  0  0  0  0  0  0  0
    6.7053    4.9261    0.0000 H   0  0  0  0  0  0  0  0  0  0  0  0
    6.0239    5.4779    0.0000 H   0  0  0  0  0  0  0  0  0  0  0  0
    2.9554    6.1301    0.0000 H   0  0  0  0  0  0  0  0  0  0  0  0
    2.1085    5.9032    0.0000 H   0  0  0  0  0  0  0  0  0  0  0  0
    2.3354    5.0563    0.0000 H   0  0  0  0  0  0  0  0  0  0  0  0
    3.7965    2.2330    0.0000 H   0  0  0  0  0  0  0  0  0  0  0  0
    3.9441   -2.6758    0.0000 H   0  0  0  0  0  0  0  0  0  0  0  0
    4.3426   -1.9855    0.0000 H   0  0  0  0  0  0  0  0  0  0  0  0
    5.4364    1.1898    0.0000 H   0  0  0  0  0  0  0  0  0  0  0  0
    2.8676    0.9472    0.0000 H   0  0  0  0  0  0  0  0  0  0  0  0
    1.4631   -3.7832    0.0000 H   0  0  0  0  0  0  0  0  0  0  0  0
    4.2690   -3.7832    0.0000 H   0  0  0  0  0  0  0  0  0  0  0  0
    1.4631   -5.4032    0.0000 H   0  0  0  0  0  0  0  0  0  0  0  0
    4.2690   -5.4032    0.0000 H   0  0  0  0  0  0  0  0  0  0  0  0
    2.8660   -6.2132    0.0000 H   0  0  0  0  0  0  0  0  0  0  0  0
  1 15  1  0  0  0  0
  1 18  1  0  0  0  0
  2 16  1  0  0  0  0
  2 19  1  0  0  0  0
  3 10  2  0  0  0  0
  4  5  1  0  0  0  0
  4  9  1  0  0  0  0
  4 12  1  0  0  0  0
  5  8  2  0  0  0  0
  6 14  1  0  0  0  0
  6 15  2  0  0  0  0
  7  8  1  0  0  0  0
  7  9  2  0  0  0  0
  7 10  1  0  0  0  0
  8 11  1  0  0  0  0
  9 25  1  0  0  0  0
 10 13  1  0  0  0  0
 11 26  1  0  0  0  0
 11 27  1  0  0  0  0
 11 28  1  0  0  0  0
 12 29  1  0  0  0  0
 12 30  1  0  0  0  0
 12 31  1  0  0  0  0
 13 17  2  0  0  0  0
 13 32  1  0  0  0  0
 14 17  1  0  0  0  0
 14 18  2  0  0  0  0
 15 16  1  0  0  0  0
 16 33  1  0  0  0  0
 16 34  1  0  0  0  0
 17 35  1  0  0  0  0
 18 36  1  0  0  0  0
 19 20  2  0  0  0  0
 19 21  1  0  0  0  0
 20 22  1  0  0  0  0
 20 37  1  0  0  0  0
 21 23  2  0  0  0  0
 21 38  1  0  0  0  0
 22 24  2  0  0  0  0
 22 39  1  0  0  0  0
 23 24  1  0  0  0  0
 23 40  1  0  0  0  0
 24 41  1  0  0  0  0
M  END
> <PUBCHEM_COMPOUND_CID>
51091002

> <PUBCHEM_COMPOUND_CANONICALIZED>
1

> <PUBCHEM_CACTVS_COMPLEXITY>
454

> <PUBCHEM_CACTVS_HBOND_ACCEPTOR>
5

> <PUBCHEM_CACTVS_HBOND_DONOR>
0

> <PUBCHEM_CACTVS_ROTATABLE_BOND>
6

> <PUBCHEM_CACTVS_SUBSKEYS>
AAADceB7MABAAAAAAAAAAAAAAAAAAWLAAAAwAAAAAAAAAAAB8AAAHgQIAAAADAzl3ga+h5IIFAiuA7R3RASS/KB1qjgY2DU+bNgOJrrk8dqHvajkyBH46ceAQAAKAAAAAAAAAAAAAAAAAAAAAAAAAAAAAA==

> <PUBCHEM_IUPAC_OPENEYE_NAME>
(E)-1-(1,3-dimethylpyrazol-4-yl)-3-[2-(phenoxymethyl)thiazol-4-yl]prop-2-en-1-one

> <PUBCHEM_IUPAC_CAS_NAME>
(E)-1-(1,3-dimethyl-4-pyrazolyl)-3-[2-(phenoxymethyl)-4-thiazolyl]-2-propen-1-one

> <PUBCHEM_IUPAC_NAME>
(E)-1-(1,3-dimethylpyrazol-4-yl)-3-[2-(phenoxymethyl)-1,3-thiazol-4-yl]prop-2-en-1-one

> <PUBCHEM_IUPAC_SYSTEMATIC_NAME>
(E)-1-(1,3-dimethylpyrazol-4-yl)-3-[2-(phenoxymethyl)-1,3-thiazol-4-yl]prop-2-en-1-one

> <PUBCHEM_IUPAC_TRADITIONAL_NAME>
(E)-1-(1,3-dimethylpyrazol-4-yl)-3-[2-(phenoxymethyl)thiazol-4-yl]prop-2-en-1-one

> <PUBCHEM_IUPAC_INCHI>
InChI=1S/C18H17N3O2S/c1-13-16(10-21(2)20-13)17(22)9-8-14-12-24-18(19-14)11-23-15-6-4-3-5-7-15/h3-10,12H,11H2,1-2H3/b9-8+

> <PUBCHEM_IUPAC_INCHIKEY>
UGJVSSKPCKCNBO-CMDGGOBGSA-N

> <PUBCHEM_XLOGP3_AA>
3

> <PUBCHEM_EXACT_MASS>
339.104148

> <PUBCHEM_MOLECULAR_FORMULA>
C18H17N3O2S

> <PUBCHEM_MOLECULAR_WEIGHT>
339.41148

> <PUBCHEM_OPENEYE_CAN_SMILES>
CC1=NN(C=C1C(=O)C=CC2=CSC(=N2)COC3=CC=CC=C3)C

> <PUBCHEM_OPENEYE_ISO_SMILES>
CC1=NN(C=C1C(=O)/C=C/C2=CSC(=N2)COC3=CC=CC=C3)C

> <PUBCHEM_CACTVS_TPSA>
85.2

> <PUBCHEM_MONOISOTOPIC_WEIGHT>
339.104148

> <PUBCHEM_TOTAL_CHARGE>
0

> <PUBCHEM_HEAVY_ATOM_COUNT>
24

> <PUBCHEM_ATOM_DEF_STEREO_COUNT>
0

> <PUBCHEM_ATOM_UDEF_STEREO_COUNT>
0

> <PUBCHEM_BOND_DEF_STEREO_COUNT>
1

> <PUBCHEM_BOND_UDEF_STEREO_COUNT>
0

> <PUBCHEM_ISOTOPIC_ATOM_COUNT>
0

> <PUBCHEM_COMPONENT_COUNT>
1

> <PUBCHEM_CACTVS_TAUTO_COUNT>
1

> <PUBCHEM_COORDINATE_TYPE>
1
5
255

> <PUBCHEM_BONDANNOTATIONS>
1  15  8
1  18  8
14  18  8
19  20  8
19  21  8
20  22  8
21  23  8
22  24  8
23  24  8
4  5  8
4  9  8
5  8  8
6  14  8
6  15  8
7  8  8
7  9  8

$$$$

