14357
  -OEChem-06241222432D

 24 25  0     0  0  0  0  0  0999 V2000
    2.5369    0.5121    0.0000 O   0  0  0  0  0  0  0  0  0  0  0  0
    9.5331   -0.5154    0.0000 O   0  0  0  0  0  0  0  0  0  0  0  0
    3.4030    2.0121    0.0000 O   0  0  0  0  0  0  0  0  0  0  0  0
    8.6613   -2.0121    0.0000 O   0  0  0  0  0  0  0  0  0  0  0  0
    6.0010   -0.4879    0.0000 C   0  0  0  0  0  0  0  0  0  0  0  0
    6.0010    0.5121    0.0000 C   0  0  0  0  0  0  0  0  0  0  0  0
    5.1350    1.0121    0.0000 C   0  0  0  0  0  0  0  0  0  0  0  0
    6.8950   -1.0226    0.0000 C   0  0  0  0  0  0  0  0  0  0  0  0
    5.1350   -0.9879    0.0000 C   0  0  0  0  0  0  0  0  0  0  0  0
    6.8950    1.0467    0.0000 C   0  0  0  0  0  0  0  0  0  0  0  0
    4.2690    0.5121    0.0000 C   0  0  0  0  0  0  0  0  0  0  0  0
    7.8010   -0.5087    0.0000 C   0  0  0  0  0  0  0  0  0  0  0  0
    4.2690   -0.4879    0.0000 C   0  0  0  0  0  0  0  0  0  0  0  0
    7.8010    0.5329    0.0000 C   0  0  0  0  0  0  0  0  0  0  0  0
    3.4030    1.0121    0.0000 C   0  0  0  0  0  0  0  0  0  0  0  0
    8.6651   -1.0121    0.0000 C   0  0  0  0  0  0  0  0  0  0  0  0
    6.8878   -1.6426    0.0000 H   0  0  0  0  0  0  0  0  0  0  0  0
    5.1350    1.6321    0.0000 H   0  0  0  0  0  0  0  0  0  0  0  0
    5.1350   -1.6079    0.0000 H   0  0  0  0  0  0  0  0  0  0  0  0
    6.8878    1.6667    0.0000 H   0  0  0  0  0  0  0  0  0  0  0  0
    3.7320   -0.7979    0.0000 H   0  0  0  0  0  0  0  0  0  0  0  0
    8.3368    0.8450    0.0000 H   0  0  0  0  0  0  0  0  0  0  0  0
   10.0688   -0.8275    0.0000 H   0  0  0  0  0  0  0  0  0  0  0  0
    2.0000    0.8221    0.0000 H   0  0  0  0  0  0  0  0  0  0  0  0
  1 15  1  0  0  0  0
  1 24  1  0  0  0  0
  2 16  1  0  0  0  0
  2 23  1  0  0  0  0
  3 15  2  0  0  0  0
  4 16  2  0  0  0  0
  5  6  2  0  0  0  0
  5  8  1  0  0  0  0
  5  9  1  0  0  0  0
  6  7  1  0  0  0  0
  6 10  1  0  0  0  0
  7 11  2  0  0  0  0
  7 18  1  0  0  0  0
  8 12  2  0  0  0  0
  8 17  1  0  0  0  0
  9 13  2  0  0  0  0
  9 19  1  0  0  0  0
 10 14  2  0  0  0  0
 10 20  1  0  0  0  0
 11 13  1  0  0  0  0
 11 15  1  0  0  0  0
 12 14  1  0  0  0  0
 12 16  1  0  0  0  0
 13 21  1  0  0  0  0
 14 22  1  0  0  0  0
M  END
> <PUBCHEM_COMPOUND_CID>
14357

> <PUBCHEM_COMPOUND_CANONICALIZED>
1

> <PUBCHEM_CACTVS_COMPLEXITY>
269

> <PUBCHEM_CACTVS_HBOND_ACCEPTOR>
4

> <PUBCHEM_CACTVS_HBOND_DONOR>
2

> <PUBCHEM_CACTVS_ROTATABLE_BOND>
2

> <PUBCHEM_CACTVS_SUBSKEYS>
AAADccBwOAAAAAAAAAAAAAAAAAAAAAAAAAAwYAAAAAAAAADBUAAAGgAACAAADACAmAAwCMAAAgCIAiDSCAACAAAkAAAIiAEACMgIJjKAFRCAcQAkwAEImYeIyPCOwAACAAAQAACAAAQAACAAAAAAAAAAAA==

> <PUBCHEM_IUPAC_OPENEYE_NAME>
naphthalene-2,6-dicarboxylic acid

> <PUBCHEM_IUPAC_CAS_NAME>
naphthalene-2,6-dicarboxylic acid

> <PUBCHEM_IUPAC_NAME>
naphthalene-2,6-dicarboxylic acid

> <PUBCHEM_IUPAC_SYSTEMATIC_NAME>
naphthalene-2,6-dicarboxylic acid

> <PUBCHEM_IUPAC_TRADITIONAL_NAME>
naphthalene-2,6-dicarboxylic acid

> <PUBCHEM_IUPAC_INCHI>
InChI=1S/C12H8O4/c13-11(14)9-3-1-7-5-10(12(15)16)4-2-8(7)6-9/h1-6H,(H,13,14)(H,15,16)

> <PUBCHEM_IUPAC_INCHIKEY>
RXOHFPCZGPKIRD-UHFFFAOYSA-N

> <PUBCHEM_XLOGP3>
2.8

> <PUBCHEM_EXACT_MASS>
216.042259

> <PUBCHEM_MOLECULAR_FORMULA>
C12H8O4

> <PUBCHEM_MOLECULAR_WEIGHT>
216.18952

> <PUBCHEM_OPENEYE_CAN_SMILES>
C1=CC2=C(C=CC(=C2)C(=O)O)C=C1C(=O)O

> <PUBCHEM_OPENEYE_ISO_SMILES>
C1=CC2=C(C=CC(=C2)C(=O)O)C=C1C(=O)O

> <PUBCHEM_CACTVS_TPSA>
74.6

> <PUBCHEM_MONOISOTOPIC_WEIGHT>
216.042259

> <PUBCHEM_TOTAL_CHARGE>
0

> <PUBCHEM_HEAVY_ATOM_COUNT>
16

> <PUBCHEM_ATOM_DEF_STEREO_COUNT>
0

> <PUBCHEM_ATOM_UDEF_STEREO_COUNT>
0

> <PUBCHEM_BOND_DEF_STEREO_COUNT>
0

> <PUBCHEM_BOND_UDEF_STEREO_COUNT>
0

> <PUBCHEM_ISOTOPIC_ATOM_COUNT>
0

> <PUBCHEM_COMPONENT_COUNT>
1

> <PUBCHEM_CACTVS_TAUTO_COUNT>
1

> <PUBCHEM_COORDINATE_TYPE>
1
5
255

> <PUBCHEM_BONDANNOTATIONS>
10  14  8
11  13  8
12  14  8
5  6  8
5  8  8
5  9  8
6  10  8
6  7  8
7  11  8
8  12  8
9  13  8

$$$$

