582834
  -OEChem-06241222442D

 47 48  0     1  0  0  0  0  0999 V2000
    5.4709    1.5958    0.0000 S   0  0  0  0  0  0  0  0  0  0  0  0
    3.4709   -0.1362    0.0000 O   0  0  0  0  0  0  0  0  0  0  0  0
    4.4487   -2.9508    0.0000 C   0  0  0  0  0  0  0  0  0  0  0  0
    4.7075   -1.9848    0.0000 C   0  0  0  0  0  0  0  0  0  0  0  0
    6.1534   -3.9954    0.0000 C   0  0  0  0  0  0  0  0  0  0  0  0
    2.9136   -4.1939    0.0000 C   0  0  0  0  0  0  0  0  0  0  0  0
    6.5722   -2.4325    0.0000 C   0  0  0  0  0  0  0  0  0  0  0  0
    2.1045   -2.7927    0.0000 C   0  0  0  0  0  0  0  0  0  0  0  0
    6.9305   -3.3661    0.0000 C   0  0  0  0  0  0  0  0  0  0  0  0
    2.0000   -3.7872    0.0000 C   0  0  0  0  0  0  0  0  0  0  0  0
    3.9709    0.7298    0.0000 C   0  0  3  0  0  0  0  0  0  0  0  0
    3.4709    1.5958    0.0000 C   0  0  0  0  0  0  0  0  0  0  0  0
    4.9709    0.7298    0.0000 C   0  0  0  0  0  0  0  0  0  0  0  0
    3.9709    2.4619    0.0000 C   0  0  0  0  0  0  0  0  0  0  0  0
    3.4709    3.3279    0.0000 C   0  0  0  0  0  0  0  0  0  0  0  0
    3.9709    4.1939    0.0000 C   0  0  0  0  0  0  0  0  0  0  0  0
    6.4709    1.5958    0.0000 C   0  0  0  0  0  0  0  0  0  0  0  0
    3.9709   -1.0022    0.0000 B   0  0  0  0  0  0  0  0  0  0  0  0
    5.0481   -1.4668    0.0000 H   0  0  0  0  0  0  0  0  0  0  0  0
    4.9494   -2.5851    0.0000 H   0  0  0  0  0  0  0  0  0  0  0  0
    2.0023   -2.1812    0.0000 H   0  0  0  0  0  0  0  0  0  0  0  0
    1.4848   -2.8116    0.0000 H   0  0  0  0  0  0  0  0  0  0  0  0
    7.1837   -2.3302    0.0000 H   0  0  0  0  0  0  0  0  0  0  0  0
    6.5938   -1.8129    0.0000 H   0  0  0  0  0  0  0  0  0  0  0  0
    2.5759   -4.7139    0.0000 H   0  0  0  0  0  0  0  0  0  0  0  0
    3.3743   -4.6088    0.0000 H   0  0  0  0  0  0  0  0  0  0  0  0
    5.7717   -4.4840    0.0000 H   0  0  0  0  0  0  0  0  0  0  0  0
    6.5956   -4.4300    0.0000 H   0  0  0  0  0  0  0  0  0  0  0  0
    1.3936   -3.6583    0.0000 H   0  0  0  0  0  0  0  0  0  0  0  0
    1.8084   -4.3768    0.0000 H   0  0  0  0  0  0  0  0  0  0  0  0
    7.2682   -3.8861    0.0000 H   0  0  0  0  0  0  0  0  0  0  0  0
    7.4830   -3.0846    0.0000 H   0  0  0  0  0  0  0  0  0  0  0  0
    3.3509    0.7298    0.0000 H   0  0  0  0  0  0  0  0  0  0  0  0
    2.9960    1.9944    0.0000 H   0  0  0  0  0  0  0  0  0  0  0  0
    2.9960    1.1973    0.0000 H   0  0  0  0  0  0  0  0  0  0  0  0
    4.8632    0.1192    0.0000 H   0  0  0  0  0  0  0  0  0  0  0  0
    5.5535    0.5178    0.0000 H   0  0  0  0  0  0  0  0  0  0  0  0
    4.4458    2.0633    0.0000 H   0  0  0  0  0  0  0  0  0  0  0  0
    4.4458    2.8604    0.0000 H   0  0  0  0  0  0  0  0  0  0  0  0
    2.9960    3.7264    0.0000 H   0  0  0  0  0  0  0  0  0  0  0  0
    2.9960    2.9294    0.0000 H   0  0  0  0  0  0  0  0  0  0  0  0
    4.5078    3.8839    0.0000 H   0  0  0  0  0  0  0  0  0  0  0  0
    4.2809    4.7308    0.0000 H   0  0  0  0  0  0  0  0  0  0  0  0
    3.4340    4.5039    0.0000 H   0  0  0  0  0  0  0  0  0  0  0  0
    6.4709    0.9758    0.0000 H   0  0  0  0  0  0  0  0  0  0  0  0
    7.0909    1.5958    0.0000 H   0  0  0  0  0  0  0  0  0  0  0  0
    6.4709    2.2158    0.0000 H   0  0  0  0  0  0  0  0  0  0  0  0
  1 13  1  0  0  0  0
  1 17  1  0  0  0  0
  2 11  1  0  0  0  0
  2 18  1  0  0  0  0
  3  5  1  0  0  0  0
  3  6  1  0  0  0  0
  3 18  1  0  0  0  0
  3 20  1  0  0  0  0
  4  7  1  0  0  0  0
  4  8  1  0  0  0  0
  4 18  1  0  0  0  0
  4 19  1  0  0  0  0
  5  9  1  0  0  0  0
  5 27  1  0  0  0  0
  5 28  1  0  0  0  0
  6 10  1  0  0  0  0
  6 25  1  0  0  0  0
  6 26  1  0  0  0  0
  7  9  1  0  0  0  0
  7 23  1  0  0  0  0
  7 24  1  0  0  0  0
  8 10  1  0  0  0  0
  8 21  1  0  0  0  0
  8 22  1  0  0  0  0
  9 31  1  0  0  0  0
  9 32  1  0  0  0  0
 10 29  1  0  0  0  0
 10 30  1  0  0  0  0
 11 12  1  0  0  0  0
 11 13  1  0  0  0  0
 11 33  1  0  0  0  0
 12 14  1  0  0  0  0
 12 34  1  0  0  0  0
 12 35  1  0  0  0  0
 13 36  1  0  0  0  0
 13 37  1  0  0  0  0
 14 15  1  0  0  0  0
 14 38  1  0  0  0  0
 14 39  1  0  0  0  0
 15 16  1  0  0  0  0
 15 40  1  0  0  0  0
 15 41  1  0  0  0  0
 16 42  1  0  0  0  0
 16 43  1  0  0  0  0
 16 44  1  0  0  0  0
 17 45  1  0  0  0  0
 17 46  1  0  0  0  0
 17 47  1  0  0  0  0
M  END
> <PUBCHEM_COMPOUND_CID>
582834

> <PUBCHEM_COMPOUND_CANONICALIZED>
1

> <PUBCHEM_CACTVS_COMPLEXITY>
215

> <PUBCHEM_CACTVS_HBOND_ACCEPTOR>
2

> <PUBCHEM_CACTVS_HBOND_DONOR>
0

> <PUBCHEM_CACTVS_ROTATABLE_BOND>
7

> <PUBCHEM_CACTVS_SUBSKEYS>
AAADceJwIABAAAAAAAAAAAAAAAAAAAAAAAAkSAAAAAAYAAAAAAAoGgQAAAAACBSkwAKCAAAAAAgAAAAAAAAAAAAAABAAAAAAAAAAAAIgAAAAAAAEAAAAAAGAgIAAAAAAAAAAAAAAAAAAAAAAAAAAAAAAAA==

> <PUBCHEM_IUPAC_OPENEYE_NAME>
9-[1-(methylsulfanylmethyl)pentoxy]-9-borabicyclo[3.3.1]nonane

> <PUBCHEM_IUPAC_CAS_NAME>
9-[1-(methylthio)hexan-2-yloxy]-9-borabicyclo[3.3.1]nonane

> <PUBCHEM_IUPAC_NAME>
9-(1-methylsulfanylhexan-2-yloxy)-9-borabicyclo[3.3.1]nonane

> <PUBCHEM_IUPAC_SYSTEMATIC_NAME>
9-(1-methylsulfanylhexan-2-yloxy)-9-borabicyclo[3.3.1]nonane

> <PUBCHEM_IUPAC_TRADITIONAL_NAME>
9-[1-[(methylthio)methyl]pentoxy]-9-borabicyclo[3.3.1]nonane

> <PUBCHEM_IUPAC_INCHI>
InChI=1S/C15H29BOS/c1-3-4-11-15(12-18-2)17-16-13-7-5-8-14(16)10-6-9-13/h13-15H,3-12H2,1-2H3

> <PUBCHEM_IUPAC_INCHIKEY>
BYIFDLRXIDXGJG-UHFFFAOYSA-N

> <PUBCHEM_EXACT_MASS>
268.203217

> <PUBCHEM_MOLECULAR_FORMULA>
C15H29BOS

> <PUBCHEM_MOLECULAR_WEIGHT>
268.26616

> <PUBCHEM_OPENEYE_CAN_SMILES>
B1(C2CCCC1CCC2)OC(CCCC)CSC

> <PUBCHEM_OPENEYE_ISO_SMILES>
B1(C2CCCC1CCC2)OC(CCCC)CSC

> <PUBCHEM_CACTVS_TPSA>
34.5

> <PUBCHEM_MONOISOTOPIC_WEIGHT>
268.203217

> <PUBCHEM_TOTAL_CHARGE>
0

> <PUBCHEM_HEAVY_ATOM_COUNT>
18

> <PUBCHEM_ATOM_DEF_STEREO_COUNT>
0

> <PUBCHEM_ATOM_UDEF_STEREO_COUNT>
1

> <PUBCHEM_BOND_DEF_STEREO_COUNT>
0

> <PUBCHEM_BOND_UDEF_STEREO_COUNT>
0

> <PUBCHEM_ISOTOPIC_ATOM_COUNT>
0

> <PUBCHEM_COMPONENT_COUNT>
1

> <PUBCHEM_CACTVS_TAUTO_COUNT>
1

> <PUBCHEM_COORDINATE_TYPE>
1
5
255

> <PUBCHEM_BONDANNOTATIONS>
11  12  3

$$$$

