17396045
  -OEChem-06241222542D

 56 59  0     1  0  0  0  0  0999 V2000
   10.4086   -0.0362    0.0000 O   0  0  0  0  0  0  0  0  0  0  0  0
   10.4086    2.0121    0.0000 O   0  0  0  0  0  0  0  0  0  0  0  0
    6.0125    0.4879    0.0000 N   0  0  3  0  0  0  0  0  0  0  0  0
    3.3669    0.0812    0.0000 N   0  0  0  0  0  0  0  0  0  0  0  0
    4.1759    1.4824    0.0000 N   0  0  0  0  0  0  0  0  0  0  0  0
    2.6978    0.8243    0.0000 N   0  0  0  0  0  0  0  0  0  0  0  0
    3.1978    1.6904    0.0000 N   0  0  0  0  0  0  0  0  0  0  0  0
    6.8785   -0.0121    0.0000 C   0  0  3  0  0  0  0  0  0  0  0  0
    6.0125    1.4879    0.0000 C   0  0  0  0  0  0  0  0  0  0  0  0
    7.7445    0.4879    0.0000 C   0  0  0  0  0  0  0  0  0  0  0  0
    6.8785    1.9879    0.0000 C   0  0  0  0  0  0  0  0  0  0  0  0
    7.7445    1.4879    0.0000 C   0  0  0  0  0  0  0  0  0  0  0  0
    5.1464   -0.0121    0.0000 C   0  0  0  0  0  0  0  0  0  0  0  0
    6.8785   -1.0121    0.0000 C   0  0  0  0  0  0  0  0  0  0  0  0
    8.6385   -0.0467    0.0000 C   0  0  0  0  0  0  0  0  0  0  0  0
    8.6385    2.0226    0.0000 C   0  0  0  0  0  0  0  0  0  0  0  0
    4.2804    0.4879    0.0000 C   0  0  0  0  0  0  0  0  0  0  0  0
    9.5445    0.4671    0.0000 C   0  0  0  0  0  0  0  0  0  0  0  0
    9.5445    1.5087    0.0000 C   0  0  0  0  0  0  0  0  0  0  0  0
    6.0125   -1.5121    0.0000 C   0  0  0  0  0  0  0  0  0  0  0  0
    7.7445   -1.5121    0.0000 C   0  0  0  0  0  0  0  0  0  0  0  0
    3.1590   -0.8970    0.0000 C   0  0  0  0  0  0  0  0  0  0  0  0
    6.0125   -2.5121    0.0000 C   0  0  0  0  0  0  0  0  0  0  0  0
    7.7445   -2.5121    0.0000 C   0  0  0  0  0  0  0  0  0  0  0  0
    6.8785   -3.0121    0.0000 C   0  0  0  0  0  0  0  0  0  0  0  0
    2.2079   -1.2060    0.0000 C   0  0  0  0  0  0  0  0  0  0  0  0
    2.0000   -2.1841    0.0000 C   0  0  0  0  0  0  0  0  0  0  0  0
   11.2766    0.4604    0.0000 C   0  0  0  0  0  0  0  0  0  0  0  0
   10.4048    3.0121    0.0000 C   0  0  0  0  0  0  0  0  0  0  0  0
    6.3416   -0.3221    0.0000 H   0  0  0  0  0  0  0  0  0  0  0  0
    5.8004    2.0705    0.0000 H   0  0  0  0  0  0  0  0  0  0  0  0
    5.4019    1.3803    0.0000 H   0  0  0  0  0  0  0  0  0  0  0  0
    7.2770    2.4629    0.0000 H   0  0  0  0  0  0  0  0  0  0  0  0
    6.4800    2.4629    0.0000 H   0  0  0  0  0  0  0  0  0  0  0  0
    4.7479   -0.4870    0.0000 H   0  0  0  0  0  0  0  0  0  0  0  0
    5.5450   -0.4870    0.0000 H   0  0  0  0  0  0  0  0  0  0  0  0
    8.6313   -0.6667    0.0000 H   0  0  0  0  0  0  0  0  0  0  0  0
    8.6313    2.6426    0.0000 H   0  0  0  0  0  0  0  0  0  0  0  0
    5.4755   -1.2021    0.0000 H   0  0  0  0  0  0  0  0  0  0  0  0
    8.2815   -1.2021    0.0000 H   0  0  0  0  0  0  0  0  0  0  0  0
    3.2453   -1.5109    0.0000 H   0  0  0  0  0  0  0  0  0  0  0  0
    3.7786   -0.9186    0.0000 H   0  0  0  0  0  0  0  0  0  0  0  0
    5.4755   -2.8221    0.0000 H   0  0  0  0  0  0  0  0  0  0  0  0
    8.2815   -2.8221    0.0000 H   0  0  0  0  0  0  0  0  0  0  0  0
    6.8785   -3.6321    0.0000 H   0  0  0  0  0  0  0  0  0  0  0  0
    2.1216   -0.5920    0.0000 H   0  0  0  0  0  0  0  0  0  0  0  0
    1.5883   -1.1843    0.0000 H   0  0  0  0  0  0  0  0  0  0  0  0
    1.3936   -2.0552    0.0000 H   0  0  0  0  0  0  0  0  0  0  0  0
    1.8711   -2.7906    0.0000 H   0  0  0  0  0  0  0  0  0  0  0  0
    2.6064   -2.3130    0.0000 H   0  0  0  0  0  0  0  0  0  0  0  0
   11.5845   -0.0777    0.0000 H   0  0  0  0  0  0  0  0  0  0  0  0
   11.8147    0.7684    0.0000 H   0  0  0  0  0  0  0  0  0  0  0  0
   10.9686    0.9986    0.0000 H   0  0  0  0  0  0  0  0  0  0  0  0
   11.0248    3.0145    0.0000 H   0  0  0  0  0  0  0  0  0  0  0  0
   10.4024    3.6321    0.0000 H   0  0  0  0  0  0  0  0  0  0  0  0
    9.7848    3.0097    0.0000 H   0  0  0  0  0  0  0  0  0  0  0  0
  1 18  1  0  0  0  0
  1 28  1  0  0  0  0
  2 19  1  0  0  0  0
  2 29  1  0  0  0  0
  3  8  1  0  0  0  0
  3  9  1  0  0  0  0
  3 13  1  0  0  0  0
  4  6  1  0  0  0  0
  4 17  1  0  0  0  0
  4 22  1  0  0  0  0
  5  7  1  0  0  0  0
  5 17  2  0  0  0  0
  6  7  2  0  0  0  0
  8 10  1  0  0  0  0
  8 14  1  0  0  0  0
  8 30  1  0  0  0  0
  9 11  1  0  0  0  0
  9 31  1  0  0  0  0
  9 32  1  0  0  0  0
 10 12  1  0  0  0  0
 10 15  2  0  0  0  0
 11 12  1  0  0  0  0
 11 33  1  0  0  0  0
 11 34  1  0  0  0  0
 12 16  2  0  0  0  0
 13 17  1  0  0  0  0
 13 35  1  0  0  0  0
 13 36  1  0  0  0  0
 14 20  2  0  0  0  0
 14 21  1  0  0  0  0
 15 18  1  0  0  0  0
 15 37  1  0  0  0  0
 16 19  1  0  0  0  0
 16 38  1  0  0  0  0
 18 19  2  0  0  0  0
 20 23  1  0  0  0  0
 20 39  1  0  0  0  0
 21 24  2  0  0  0  0
 21 40  1  0  0  0  0
 22 26  1  0  0  0  0
 22 41  1  0  0  0  0
 22 42  1  0  0  0  0
 23 25  2  0  0  0  0
 23 43  1  0  0  0  0
 24 25  1  0  0  0  0
 24 44  1  0  0  0  0
 25 45  1  0  0  0  0
 26 27  1  0  0  0  0
 26 46  1  0  0  0  0
 26 47  1  0  0  0  0
 27 48  1  0  0  0  0
 27 49  1  0  0  0  0
 27 50  1  0  0  0  0
 28 51  1  0  0  0  0
 28 52  1  0  0  0  0
 28 53  1  0  0  0  0
 29 54  1  0  0  0  0
 29 55  1  0  0  0  0
 29 56  1  0  0  0  0
M  END
> <PUBCHEM_COMPOUND_CID>
17396045

> <PUBCHEM_COMPOUND_CANONICALIZED>
1

> <PUBCHEM_CACTVS_COMPLEXITY>
504

> <PUBCHEM_CACTVS_HBOND_ACCEPTOR>
6

> <PUBCHEM_CACTVS_HBOND_DONOR>
0

> <PUBCHEM_CACTVS_ROTATABLE_BOND>
7

> <PUBCHEM_CACTVS_SUBSKEYS>
AAADceB7sAAAAAAAAAAAAAAAAAAAAWAAAAA8YIAAAAAAAACx0AAAHgAIAAAADCzBmwYzFocIBACiAiJiJACCCAMgoIAdyAAejIiNZiKEuRuUMCpkwBOKqAew0PMOoAABAAAQQABAAAIAACCAAAAAAAAAAA==

> <PUBCHEM_IUPAC_OPENEYE_NAME>
6,7-dimethoxy-1-phenyl-2-[(1-propyltetrazol-5-yl)methyl]-3,4-dihydro-1H-isoquinoline

> <PUBCHEM_IUPAC_CAS_NAME>
6,7-dimethoxy-1-phenyl-2-[(1-propyl-5-tetrazolyl)methyl]-3,4-dihydro-1H-isoquinoline

> <PUBCHEM_IUPAC_NAME>
6,7-dimethoxy-1-phenyl-2-[(1-propyltetrazol-5-yl)methyl]-3,4-dihydro-1H-isoquinoline

> <PUBCHEM_IUPAC_SYSTEMATIC_NAME>
6,7-dimethoxy-1-phenyl-2-[(1-propyl-1,2,3,4-tetrazol-5-yl)methyl]-3,4-dihydro-1H-isoquinoline

> <PUBCHEM_IUPAC_TRADITIONAL_NAME>
6,7-dimethoxy-1-phenyl-2-[(1-propyltetrazol-5-yl)methyl]-3,4-dihydro-1H-isoquinoline

> <PUBCHEM_IUPAC_INCHI>
InChI=1S/C22H27N5O2/c1-4-11-27-21(23-24-25-27)15-26-12-10-17-13-19(28-2)20(29-3)14-18(17)22(26)16-8-6-5-7-9-16/h5-9,13-14,22H,4,10-12,15H2,1-3H3

> <PUBCHEM_IUPAC_INCHIKEY>
FHZXWGCKAIZVPC-UHFFFAOYSA-N

> <PUBCHEM_XLOGP3_AA>
3.4

> <PUBCHEM_EXACT_MASS>
393.216475

> <PUBCHEM_MOLECULAR_FORMULA>
C22H27N5O2

> <PUBCHEM_MOLECULAR_WEIGHT>
393.48208

> <PUBCHEM_OPENEYE_CAN_SMILES>
CCCN1C(=NN=N1)CN2CCC3=CC(=C(C=C3C2C4=CC=CC=C4)OC)OC

> <PUBCHEM_OPENEYE_ISO_SMILES>
CCCN1C(=NN=N1)CN2CCC3=CC(=C(C=C3C2C4=CC=CC=C4)OC)OC

> <PUBCHEM_CACTVS_TPSA>
65.3

> <PUBCHEM_MONOISOTOPIC_WEIGHT>
393.216475

> <PUBCHEM_TOTAL_CHARGE>
0

> <PUBCHEM_HEAVY_ATOM_COUNT>
29

> <PUBCHEM_ATOM_DEF_STEREO_COUNT>
0

> <PUBCHEM_ATOM_UDEF_STEREO_COUNT>
1

> <PUBCHEM_BOND_DEF_STEREO_COUNT>
0

> <PUBCHEM_BOND_UDEF_STEREO_COUNT>
0

> <PUBCHEM_ISOTOPIC_ATOM_COUNT>
0

> <PUBCHEM_COMPONENT_COUNT>
1

> <PUBCHEM_CACTVS_TAUTO_COUNT>
1

> <PUBCHEM_COORDINATE_TYPE>
1
5
255

> <PUBCHEM_BONDANNOTATIONS>
10  12  8
10  15  8
12  16  8
14  20  8
14  21  8
15  18  8
16  19  8
18  19  8
20  23  8
21  24  8
23  25  8
24  25  8
4  17  8
4  6  8
5  17  8
5  7  8
6  7  8
8  14  3

$$$$

