4305
  -OEChem-06261200022D

 40 41  0     0  0  0  0  0  0999 V2000
   12.0796   -2.0773    0.0000 Cl  0  0  0  0  0  0  0  0  0  0  0  0
    8.5991    0.9573    0.0000 S   0  0  0  0  0  0  0  0  0  0  0  0
    8.0991    0.0913    0.0000 O   0  0  0  0  0  0  0  0  0  0  0  0
    9.0991    1.8233    0.0000 O   0  0  0  0  0  0  0  0  0  0  0  0
    7.7331    1.4573    0.0000 N   0  0  0  0  0  0  0  0  0  0  0  0
    2.5369    1.4573    0.0000 N   0  0  0  0  0  0  0  0  0  0  0  0
    6.0010    1.4573    0.0000 C   0  0  0  0  0  0  0  0  0  0  0  0
    5.1350    0.9573    0.0000 C   0  0  0  0  0  0  0  0  0  0  0  0
    6.8671    0.9573    0.0000 C   0  0  0  0  0  0  0  0  0  0  0  0
    4.2690    1.4573    0.0000 C   0  0  0  0  0  0  0  0  0  0  0  0
    9.4651    0.4573    0.0000 C   0  0  0  0  0  0  0  0  0  0  0  0
    3.4030    0.9573    0.0000 C   0  0  0  0  0  0  0  0  0  0  0  0
   11.1972    0.4573    0.0000 C   0  0  0  0  0  0  0  0  0  0  0  0
   10.3312    0.9573    0.0000 C   0  0  0  0  0  0  0  0  0  0  0  0
   11.1972   -0.5427    0.0000 C   0  0  0  0  0  0  0  0  0  0  0  0
    9.4651   -0.5427    0.0000 C   0  0  0  0  0  0  0  0  0  0  0  0
   10.3312   -1.0427    0.0000 C   0  0  0  0  0  0  0  0  0  0  0  0
   12.0911    0.9920    0.0000 C   0  0  0  0  0  0  0  0  0  0  0  0
   12.0911   -1.0774    0.0000 C   0  0  0  0  0  0  0  0  0  0  0  0
   12.9972    0.4781    0.0000 C   0  0  0  0  0  0  0  0  0  0  0  0
   12.9972   -0.5635    0.0000 C   0  0  0  0  0  0  0  0  0  0  0  0
    6.3996    1.9322    0.0000 H   0  0  0  0  0  0  0  0  0  0  0  0
    5.6025    1.9322    0.0000 H   0  0  0  0  0  0  0  0  0  0  0  0
    4.7365    0.4824    0.0000 H   0  0  0  0  0  0  0  0  0  0  0  0
    5.5335    0.4824    0.0000 H   0  0  0  0  0  0  0  0  0  0  0  0
    6.4685    0.4824    0.0000 H   0  0  0  0  0  0  0  0  0  0  0  0
    7.2656    0.4824    0.0000 H   0  0  0  0  0  0  0  0  0  0  0  0
    4.6675    1.9322    0.0000 H   0  0  0  0  0  0  0  0  0  0  0  0
    3.8705    1.9322    0.0000 H   0  0  0  0  0  0  0  0  0  0  0  0
    7.7331    2.0773    0.0000 H   0  0  0  0  0  0  0  0  0  0  0  0
    3.0044    0.4824    0.0000 H   0  0  0  0  0  0  0  0  0  0  0  0
    3.8015    0.4824    0.0000 H   0  0  0  0  0  0  0  0  0  0  0  0
   10.3312    1.5773    0.0000 H   0  0  0  0  0  0  0  0  0  0  0  0
    8.9282   -0.8527    0.0000 H   0  0  0  0  0  0  0  0  0  0  0  0
   10.3312   -1.6627    0.0000 H   0  0  0  0  0  0  0  0  0  0  0  0
   12.0840    1.6119    0.0000 H   0  0  0  0  0  0  0  0  0  0  0  0
    2.0000    1.1473    0.0000 H   0  0  0  0  0  0  0  0  0  0  0  0
    2.5369    2.0773    0.0000 H   0  0  0  0  0  0  0  0  0  0  0  0
   13.5329    0.7902    0.0000 H   0  0  0  0  0  0  0  0  0  0  0  0
   13.5329   -0.8756    0.0000 H   0  0  0  0  0  0  0  0  0  0  0  0
  1 19  1  0  0  0  0
  2  3  2  0  0  0  0
  2  4  2  0  0  0  0
  2  5  1  0  0  0  0
  2 11  1  0  0  0  0
  5  9  1  0  0  0  0
  5 30  1  0  0  0  0
  6 12  1  0  0  0  0
  6 37  1  0  0  0  0
  6 38  1  0  0  0  0
  7  8  1  0  0  0  0
  7  9  1  0  0  0  0
  7 22  1  0  0  0  0
  7 23  1  0  0  0  0
  8 10  1  0  0  0  0
  8 24  1  0  0  0  0
  8 25  1  0  0  0  0
  9 26  1  0  0  0  0
  9 27  1  0  0  0  0
 10 12  1  0  0  0  0
 10 28  1  0  0  0  0
 10 29  1  0  0  0  0
 11 14  2  0  0  0  0
 11 16  1  0  0  0  0
 12 31  1  0  0  0  0
 12 32  1  0  0  0  0
 13 14  1  0  0  0  0
 13 15  2  0  0  0  0
 13 18  1  0  0  0  0
 14 33  1  0  0  0  0
 15 17  1  0  0  0  0
 15 19  1  0  0  0  0
 16 17  2  0  0  0  0
 16 34  1  0  0  0  0
 17 35  1  0  0  0  0
 18 20  2  0  0  0  0
 18 36  1  0  0  0  0
 19 21  2  0  0  0  0
 20 21  1  0  0  0  0
 20 39  1  0  0  0  0
 21 40  1  0  0  0  0
M  END
> <PUBCHEM_COMPOUND_CID>
4305

> <PUBCHEM_COMPOUND_CANONICALIZED>
1

> <PUBCHEM_CACTVS_COMPLEXITY>
410

> <PUBCHEM_CACTVS_HBOND_ACCEPTOR>
4

> <PUBCHEM_CACTVS_HBOND_DONOR>
2

> <PUBCHEM_CACTVS_ROTATABLE_BOND>
7

> <PUBCHEM_CACTVS_SUBSKEYS>
AAADceBzMABEAAAAAAAAAAAAAAAAAAAAAAAwYAAAAAAAAADBUAAAHAYQQAAADALBWCQwAcBAAAKAAiBCAHBCABAgBQAIiJgAAogIICKBkxCAIAAgkAAIiAcQgIAOkAAAoAARAAAgAAFAACIAAAAAAAAAAA==

> <PUBCHEM_IUPAC_OPENEYE_NAME>
N-(5-aminopentyl)-5-chloro-naphthalene-2-sulfonamide

> <PUBCHEM_IUPAC_CAS_NAME>
N-(5-aminopentyl)-5-chloro-2-naphthalenesulfonamide

> <PUBCHEM_IUPAC_NAME>
N-(5-aminopentyl)-5-chloronaphthalene-2-sulfonamide

> <PUBCHEM_IUPAC_SYSTEMATIC_NAME>
N-(5-azanylpentyl)-5-chloranyl-naphthalene-2-sulfonamide

> <PUBCHEM_IUPAC_TRADITIONAL_NAME>
N-(5-aminopentyl)-5-chloro-naphthalene-2-sulfonamide

> <PUBCHEM_IUPAC_INCHI>
InChI=1S/C15H19ClN2O2S/c16-15-6-4-5-12-11-13(7-8-14(12)15)21(19,20)18-10-3-1-2-9-17/h4-8,11,18H,1-3,9-10,17H2

> <PUBCHEM_IUPAC_INCHIKEY>
WPSFHFSJASWWAY-UHFFFAOYSA-N

> <PUBCHEM_XLOGP3_AA>
2.9

> <PUBCHEM_EXACT_MASS>
326.085577

> <PUBCHEM_MOLECULAR_FORMULA>
C15H19ClN2O2S

> <PUBCHEM_MOLECULAR_WEIGHT>
326.84156

> <PUBCHEM_OPENEYE_CAN_SMILES>
C1=CC2=C(C=CC(=C2)S(=O)(=O)NCCCCCN)C(=C1)Cl

> <PUBCHEM_OPENEYE_ISO_SMILES>
C1=CC2=C(C=CC(=C2)S(=O)(=O)NCCCCCN)C(=C1)Cl

> <PUBCHEM_CACTVS_TPSA>
80.6

> <PUBCHEM_MONOISOTOPIC_WEIGHT>
326.085577

> <PUBCHEM_TOTAL_CHARGE>
0

> <PUBCHEM_HEAVY_ATOM_COUNT>
21

> <PUBCHEM_ATOM_DEF_STEREO_COUNT>
0

> <PUBCHEM_ATOM_UDEF_STEREO_COUNT>
0

> <PUBCHEM_BOND_DEF_STEREO_COUNT>
0

> <PUBCHEM_BOND_UDEF_STEREO_COUNT>
0

> <PUBCHEM_ISOTOPIC_ATOM_COUNT>
0

> <PUBCHEM_COMPONENT_COUNT>
1

> <PUBCHEM_CACTVS_TAUTO_COUNT>
1

> <PUBCHEM_COORDINATE_TYPE>
1
5
255

> <PUBCHEM_BONDANNOTATIONS>
11  14  8
11  16  8
13  14  8
13  15  8
13  18  8
15  17  8
15  19  8
16  17  8
18  20  8
19  21  8
20  21  8

$$$$

