17395501
  -OEChem-06241222502D

 45 46  0     0  0  0  0  0  0999 V2000
    2.8660    0.9330    0.0000 O   0  0  0  0  0  0  0  0  0  0  0  0
    7.0820    3.1535    0.0000 O   0  0  0  0  0  0  0  0  0  0  0  0
    5.4997    3.8580    0.0000 O   0  0  0  0  0  0  0  0  0  0  0  0
    3.7320   -0.5670    0.0000 N   0  0  0  0  0  0  0  0  0  0  0  0
    5.5116    0.5262    0.0000 N   0  0  0  0  0  0  0  0  0  0  0  0
    2.8660   -2.0670    0.0000 C   0  0  0  0  0  0  0  0  0  0  0  0
    2.0000   -2.5670    0.0000 C   0  0  0  0  0  0  0  0  0  0  0  0
    3.7320   -2.5670    0.0000 C   0  0  0  0  0  0  0  0  0  0  0  0
    2.0000   -3.5670    0.0000 C   0  0  0  0  0  0  0  0  0  0  0  0
    3.7320   -3.5670    0.0000 C   0  0  0  0  0  0  0  0  0  0  0  0
    2.8660   -4.0670    0.0000 C   0  0  0  0  0  0  0  0  0  0  0  0
    2.8660   -1.0670    0.0000 C   0  0  0  0  0  0  0  0  0  0  0  0
    3.7320    0.4330    0.0000 C   0  0  0  0  0  0  0  0  0  0  0  0
    4.5981    0.9330    0.0000 C   0  0  0  0  0  0  0  0  0  0  0  0
    4.7026    1.9275    0.0000 C   0  0  0  0  0  0  0  0  0  0  0  0
    5.6808    2.1354    0.0000 C   0  0  0  0  0  0  0  0  0  0  0  0
    6.1808    1.2694    0.0000 C   0  0  0  0  0  0  0  0  0  0  0  0
    3.9595    2.5966    0.0000 C   0  0  0  0  0  0  0  0  0  0  0  0
    7.1753    1.1648    0.0000 C   0  0  0  0  0  0  0  0  0  0  0  0
    6.0875    3.0490    0.0000 C   0  0  0  0  0  0  0  0  0  0  0  0
    7.4888    4.0670    0.0000 C   0  0  0  0  0  0  0  0  0  0  0  0
    3.4030   -1.7570    0.0000 H   0  0  0  0  0  0  0  0  0  0  0  0
    4.3426   -2.6747    0.0000 H   0  0  0  0  0  0  0  0  0  0  0  0
    3.9441   -1.9844    0.0000 H   0  0  0  0  0  0  0  0  0  0  0  0
    1.7880   -1.9844    0.0000 H   0  0  0  0  0  0  0  0  0  0  0  0
    1.3894   -2.6747    0.0000 H   0  0  0  0  0  0  0  0  0  0  0  0
    3.9441   -4.1496    0.0000 H   0  0  0  0  0  0  0  0  0  0  0  0
    4.3426   -3.4594    0.0000 H   0  0  0  0  0  0  0  0  0  0  0  0
    1.3894   -3.4594    0.0000 H   0  0  0  0  0  0  0  0  0  0  0  0
    1.7880   -4.1496    0.0000 H   0  0  0  0  0  0  0  0  0  0  0  0
    2.4675   -4.5420    0.0000 H   0  0  0  0  0  0  0  0  0  0  0  0
    3.2646   -4.5420    0.0000 H   0  0  0  0  0  0  0  0  0  0  0  0
    2.6540   -0.4844    0.0000 H   0  0  0  0  0  0  0  0  0  0  0  0
    2.2554   -1.1747    0.0000 H   0  0  0  0  0  0  0  0  0  0  0  0
    4.2690   -0.8770    0.0000 H   0  0  0  0  0  0  0  0  0  0  0  0
    5.6405   -0.0802    0.0000 H   0  0  0  0  0  0  0  0  0  0  0  0
    4.3743    3.0574    0.0000 H   0  0  0  0  0  0  0  0  0  0  0  0
    3.4987    3.0115    0.0000 H   0  0  0  0  0  0  0  0  0  0  0  0
    3.5446    2.1359    0.0000 H   0  0  0  0  0  0  0  0  0  0  0  0
    7.1105    0.5482    0.0000 H   0  0  0  0  0  0  0  0  0  0  0  0
    7.7919    1.1000    0.0000 H   0  0  0  0  0  0  0  0  0  0  0  0
    7.2401    1.7815    0.0000 H   0  0  0  0  0  0  0  0  0  0  0  0
    8.0552    3.8148    0.0000 H   0  0  0  0  0  0  0  0  0  0  0  0
    7.7409    4.6334    0.0000 H   0  0  0  0  0  0  0  0  0  0  0  0
    6.9224    4.3192    0.0000 H   0  0  0  0  0  0  0  0  0  0  0  0
  1 13  2  0  0  0  0
  2 20  1  0  0  0  0
  2 21  1  0  0  0  0
  3 20  2  0  0  0  0
  4 12  1  0  0  0  0
  4 13  1  0  0  0  0
  4 35  1  0  0  0  0
  5 14  1  0  0  0  0
  5 17  1  0  0  0  0
  5 36  1  0  0  0  0
  6  7  1  0  0  0  0
  6  8  1  0  0  0  0
  6 12  1  0  0  0  0
  6 22  1  0  0  0  0
  7  9  1  0  0  0  0
  7 25  1  0  0  0  0
  7 26  1  0  0  0  0
  8 10  1  0  0  0  0
  8 23  1  0  0  0  0
  8 24  1  0  0  0  0
  9 11  1  0  0  0  0
  9 29  1  0  0  0  0
  9 30  1  0  0  0  0
 10 11  1  0  0  0  0
 10 27  1  0  0  0  0
 10 28  1  0  0  0  0
 11 31  1  0  0  0  0
 11 32  1  0  0  0  0
 12 33  1  0  0  0  0
 12 34  1  0  0  0  0
 13 14  1  0  0  0  0
 14 15  2  0  0  0  0
 15 16  1  0  0  0  0
 15 18  1  0  0  0  0
 16 17  2  0  0  0  0
 16 20  1  0  0  0  0
 17 19  1  0  0  0  0
 18 37  1  0  0  0  0
 18 38  1  0  0  0  0
 18 39  1  0  0  0  0
 19 40  1  0  0  0  0
 19 41  1  0  0  0  0
 19 42  1  0  0  0  0
 21 43  1  0  0  0  0
 21 44  1  0  0  0  0
 21 45  1  0  0  0  0
M  END
> <PUBCHEM_COMPOUND_CID>
17395501

> <PUBCHEM_COMPOUND_CANONICALIZED>
1

> <PUBCHEM_CACTVS_COMPLEXITY>
380

> <PUBCHEM_CACTVS_HBOND_ACCEPTOR>
3

> <PUBCHEM_CACTVS_HBOND_DONOR>
2

> <PUBCHEM_CACTVS_ROTATABLE_BOND>
5

> <PUBCHEM_CACTVS_SUBSKEYS>
AAADceB7MAAAAAAAAAAAAAAAAAAAAWAAAAAwAAAAAAAAAAABgAAAHgAQAAAADQjBngYCiJLJlACoAwXwXACCgCAnACAAmaG4TNgIZnrAtLmUEYhm1gHI6Ue8nwIegAAAAAAAAAAAAAAAAAAAAAAAAAAAAA==

> <PUBCHEM_IUPAC_OPENEYE_NAME>
methyl 5-(cyclohexylmethylcarbamoyl)-2,4-dimethyl-1H-pyrrole-3-carboxylate

> <PUBCHEM_IUPAC_CAS_NAME>
5-[(cyclohexylmethylamino)-oxomethyl]-2,4-dimethyl-1H-pyrrole-3-carboxylic acid methyl ester

> <PUBCHEM_IUPAC_NAME>
methyl 5-(cyclohexylmethylcarbamoyl)-2,4-dimethyl-1H-pyrrole-3-carboxylate

> <PUBCHEM_IUPAC_SYSTEMATIC_NAME>
methyl 5-(cyclohexylmethylcarbamoyl)-2,4-dimethyl-1H-pyrrole-3-carboxylate

> <PUBCHEM_IUPAC_TRADITIONAL_NAME>
5-(cyclohexylmethylcarbamoyl)-2,4-dimethyl-1H-pyrrole-3-carboxylic acid methyl ester

> <PUBCHEM_IUPAC_INCHI>
InChI=1S/C16H24N2O3/c1-10-13(16(20)21-3)11(2)18-14(10)15(19)17-9-12-7-5-4-6-8-12/h12,18H,4-9H2,1-3H3,(H,17,19)

> <PUBCHEM_IUPAC_INCHIKEY>
PHDUFHJOSZWGHR-UHFFFAOYSA-N

> <PUBCHEM_XLOGP3_AA>
3.3

> <PUBCHEM_EXACT_MASS>
292.178693

> <PUBCHEM_MOLECULAR_FORMULA>
C16H24N2O3

> <PUBCHEM_MOLECULAR_WEIGHT>
292.37336

> <PUBCHEM_OPENEYE_CAN_SMILES>
CC1=C(NC(=C1C(=O)OC)C)C(=O)NCC2CCCCC2

> <PUBCHEM_OPENEYE_ISO_SMILES>
CC1=C(NC(=C1C(=O)OC)C)C(=O)NCC2CCCCC2

> <PUBCHEM_CACTVS_TPSA>
71.2

> <PUBCHEM_MONOISOTOPIC_WEIGHT>
292.178693

> <PUBCHEM_TOTAL_CHARGE>
0

> <PUBCHEM_HEAVY_ATOM_COUNT>
21

> <PUBCHEM_ATOM_DEF_STEREO_COUNT>
0

> <PUBCHEM_ATOM_UDEF_STEREO_COUNT>
0

> <PUBCHEM_BOND_DEF_STEREO_COUNT>
0

> <PUBCHEM_BOND_UDEF_STEREO_COUNT>
0

> <PUBCHEM_ISOTOPIC_ATOM_COUNT>
0

> <PUBCHEM_COMPONENT_COUNT>
1

> <PUBCHEM_CACTVS_TAUTO_COUNT>
18

> <PUBCHEM_COORDINATE_TYPE>
1
5
255

> <PUBCHEM_BONDANNOTATIONS>
14  15  8
15  16  8
16  17  8
5  14  8
5  17  8

$$$$

