3812
  -OEChem-06251223412D

 50 50  0     0  0  0  0  0  0999 V2000
    8.0622    3.9400    0.0000 O   0  0  0  0  0  0  0  0  0  0  0  0
    2.0000   -1.5600    0.0000 O   0  0  0  0  0  0  0  0  0  0  0  0
    8.0622    5.9400    0.0000 O   0  0  0  0  0  0  0  0  0  0  0  0
    3.7320   -1.5600    0.0000 N   0  0  0  0  0  0  0  0  0  0  0  0
    2.8660   -6.0600    0.0000 N   0  0  0  0  0  0  0  0  0  0  0  0
    7.1962    5.4400    0.0000 N   0  0  0  0  0  0  0  0  0  0  0  0
    5.4641    1.4400    0.0000 C   0  0  0  0  0  0  0  0  0  0  0  0
    4.5981    0.9400    0.0000 C   0  0  0  0  0  0  0  0  0  0  0  0
    5.4641    2.4400    0.0000 C   0  0  0  0  0  0  0  0  0  0  0  0
    4.5981   -0.0600    0.0000 C   0  0  0  0  0  0  0  0  0  0  0  0
    6.3301    2.9400    0.0000 C   0  0  0  0  0  0  0  0  0  0  0  0
    3.7320   -0.5600    0.0000 C   0  0  0  0  0  0  0  0  0  0  0  0
    6.3301    3.9400    0.0000 C   0  0  0  0  0  0  0  0  0  0  0  0
    7.1962    4.4400    0.0000 C   0  0  0  0  0  0  0  0  0  0  0  0
    2.8660   -2.0600    0.0000 C   0  0  0  0  0  0  0  0  0  0  0  0
    2.8660   -3.0600    0.0000 C   0  0  0  0  0  0  0  0  0  0  0  0
    2.8660   -5.0600    0.0000 C   0  0  0  0  0  0  0  0  0  0  0  0
    2.0000   -3.5600    0.0000 C   0  0  0  0  0  0  0  0  0  0  0  0
    3.7320   -3.5600    0.0000 C   0  0  0  0  0  0  0  0  0  0  0  0
    2.0000   -4.5600    0.0000 C   0  0  0  0  0  0  0  0  0  0  0  0
    3.7320   -4.5600    0.0000 C   0  0  0  0  0  0  0  0  0  0  0  0
    2.0000   -6.5600    0.0000 C   0  0  0  0  0  0  0  0  0  0  0  0
    3.7320   -6.5600    0.0000 C   0  0  0  0  0  0  0  0  0  0  0  0
    5.6762    0.8574    0.0000 H   0  0  0  0  0  0  0  0  0  0  0  0
    6.0747    1.5477    0.0000 H   0  0  0  0  0  0  0  0  0  0  0  0
    4.3860    1.5226    0.0000 H   0  0  0  0  0  0  0  0  0  0  0  0
    3.9875    0.8323    0.0000 H   0  0  0  0  0  0  0  0  0  0  0  0
    5.2520    3.0226    0.0000 H   0  0  0  0  0  0  0  0  0  0  0  0
    4.8535    2.3323    0.0000 H   0  0  0  0  0  0  0  0  0  0  0  0
    4.8101   -0.6426    0.0000 H   0  0  0  0  0  0  0  0  0  0  0  0
    5.2087    0.0477    0.0000 H   0  0  0  0  0  0  0  0  0  0  0  0
    6.5422    2.3574    0.0000 H   0  0  0  0  0  0  0  0  0  0  0  0
    6.9407    3.0477    0.0000 H   0  0  0  0  0  0  0  0  0  0  0  0
    3.5200    0.0226    0.0000 H   0  0  0  0  0  0  0  0  0  0  0  0
    3.1215   -0.6677    0.0000 H   0  0  0  0  0  0  0  0  0  0  0  0
    6.1181    4.5226    0.0000 H   0  0  0  0  0  0  0  0  0  0  0  0
    5.7196    3.8323    0.0000 H   0  0  0  0  0  0  0  0  0  0  0  0
    4.2690   -1.8700    0.0000 H   0  0  0  0  0  0  0  0  0  0  0  0
    1.4631   -3.2500    0.0000 H   0  0  0  0  0  0  0  0  0  0  0  0
    4.2690   -3.2500    0.0000 H   0  0  0  0  0  0  0  0  0  0  0  0
    1.4631   -4.8700    0.0000 H   0  0  0  0  0  0  0  0  0  0  0  0
    4.2690   -4.8700    0.0000 H   0  0  0  0  0  0  0  0  0  0  0  0
    6.6592    5.7500    0.0000 H   0  0  0  0  0  0  0  0  0  0  0  0
    3.4220   -7.0969    0.0000 H   0  0  0  0  0  0  0  0  0  0  0  0
    1.6900   -6.0231    0.0000 H   0  0  0  0  0  0  0  0  0  0  0  0
    1.4631   -6.8700    0.0000 H   0  0  0  0  0  0  0  0  0  0  0  0
    2.3100   -7.0969    0.0000 H   0  0  0  0  0  0  0  0  0  0  0  0
    4.2690   -6.8700    0.0000 H   0  0  0  0  0  0  0  0  0  0  0  0
    4.0420   -6.0231    0.0000 H   0  0  0  0  0  0  0  0  0  0  0  0
    8.0622    6.5600    0.0000 H   0  0  0  0  0  0  0  0  0  0  0  0
  1 14  2  0  0  0  0
  2 15  2  0  0  0  0
  3  6  1  0  0  0  0
  3 50  1  0  0  0  0
  4 12  1  0  0  0  0
  4 15  1  0  0  0  0
  4 38  1  0  0  0  0
  5 17  1  0  0  0  0
  5 22  1  0  0  0  0
  5 23  1  0  0  0  0
  6 14  1  0  0  0  0
  6 43  1  0  0  0  0
  7  8  1  0  0  0  0
  7  9  1  0  0  0  0
  7 24  1  0  0  0  0
  7 25  1  0  0  0  0
  8 10  1  0  0  0  0
  8 26  1  0  0  0  0
  8 27  1  0  0  0  0
  9 11  1  0  0  0  0
  9 28  1  0  0  0  0
  9 29  1  0  0  0  0
 10 12  1  0  0  0  0
 10 30  1  0  0  0  0
 10 31  1  0  0  0  0
 11 13  1  0  0  0  0
 11 32  1  0  0  0  0
 11 33  1  0  0  0  0
 12 34  1  0  0  0  0
 12 35  1  0  0  0  0
 13 14  1  0  0  0  0
 13 36  1  0  0  0  0
 13 37  1  0  0  0  0
 15 16  1  0  0  0  0
 16 18  2  0  0  0  0
 16 19  1  0  0  0  0
 17 20  2  0  0  0  0
 17 21  1  0  0  0  0
 18 20  1  0  0  0  0
 18 39  1  0  0  0  0
 19 21  2  0  0  0  0
 19 40  1  0  0  0  0
 20 41  1  0  0  0  0
 21 42  1  0  0  0  0
 22 45  1  0  0  0  0
 22 46  1  0  0  0  0
 22 47  1  0  0  0  0
 23 44  1  0  0  0  0
 23 48  1  0  0  0  0
 23 49  1  0  0  0  0
M  END
> <PUBCHEM_COMPOUND_CID>
3812

> <PUBCHEM_COMPOUND_CANONICALIZED>
1

> <PUBCHEM_CACTVS_COMPLEXITY>
353

> <PUBCHEM_CACTVS_HBOND_ACCEPTOR>
4

> <PUBCHEM_CACTVS_HBOND_DONOR>
3

> <PUBCHEM_CACTVS_ROTATABLE_BOND>
10

> <PUBCHEM_CACTVS_SUBSKEYS>
AAADceB7MAAAAAAAAAAAAAAAAAAAAAAAAAAwAAAAAAAAAAABAAAAHgAUCAAADAjBmAQywIPQAACIAiVSUACCAAAlAgAoiIEIZMgIIDLAlZGEIQhglgDIyYcYiYCeCAAAAAAAAAAQAAAAAAAAAAAAAAAAAA==

> <PUBCHEM_IUPAC_OPENEYE_NAME>
4-(dimethylamino)-N-[8-(hydroxyamino)-8-oxo-octyl]benzamide

> <PUBCHEM_IUPAC_CAS_NAME>
4-(dimethylamino)-N-[8-(hydroxyamino)-8-oxooctyl]benzamide

> <PUBCHEM_IUPAC_NAME>
4-(dimethylamino)-N-[8-(hydroxyamino)-8-oxooctyl]benzamide

> <PUBCHEM_IUPAC_SYSTEMATIC_NAME>
4-(dimethylamino)-N-[8-(oxidanylamino)-8-oxidanylidene-octyl]benzamide

> <PUBCHEM_IUPAC_TRADITIONAL_NAME>
4-(dimethylamino)-N-[8-(hydroxyamino)-8-keto-octyl]benzamide

> <PUBCHEM_IUPAC_INCHI>
InChI=1S/C17H27N3O3/c1-20(2)15-11-9-14(10-12-15)17(22)18-13-7-5-3-4-6-8-16(21)19-23/h9-12,23H,3-8,13H2,1-2H3,(H,18,22)(H,19,21)

> <PUBCHEM_IUPAC_INCHIKEY>
NMUMGBKBHOJAQD-UHFFFAOYSA-N

> <PUBCHEM_XLOGP3_AA>
2.2

> <PUBCHEM_EXACT_MASS>
321.205242

> <PUBCHEM_MOLECULAR_FORMULA>
C17H27N3O3

> <PUBCHEM_MOLECULAR_WEIGHT>
321.41458

> <PUBCHEM_OPENEYE_CAN_SMILES>
CN(C)C1=CC=C(C=C1)C(=O)NCCCCCCCC(=O)NO

> <PUBCHEM_OPENEYE_ISO_SMILES>
CN(C)C1=CC=C(C=C1)C(=O)NCCCCCCCC(=O)NO

> <PUBCHEM_CACTVS_TPSA>
81.7

> <PUBCHEM_MONOISOTOPIC_WEIGHT>
321.205242

> <PUBCHEM_TOTAL_CHARGE>
0

> <PUBCHEM_HEAVY_ATOM_COUNT>
23

> <PUBCHEM_ATOM_DEF_STEREO_COUNT>
0

> <PUBCHEM_ATOM_UDEF_STEREO_COUNT>
0

> <PUBCHEM_BOND_DEF_STEREO_COUNT>
0

> <PUBCHEM_BOND_UDEF_STEREO_COUNT>
0

> <PUBCHEM_ISOTOPIC_ATOM_COUNT>
0

> <PUBCHEM_COMPONENT_COUNT>
1

> <PUBCHEM_CACTVS_TAUTO_COUNT>
8

> <PUBCHEM_COORDINATE_TYPE>
1
5
255

> <PUBCHEM_BONDANNOTATIONS>
16  18  8
16  19  8
17  20  8
17  21  8
18  20  8
19  21  8

$$$$

