9655
  -OEChem-06261203542D

 44 45  0     1  0  0  0  0  0999 V2000
    7.4641    2.7320    0.0000 Cl  0  0  0  0  0  0  0  0  0  0  0  0
    4.9641    0.1340    0.0000 O   0  0  0  0  0  0  0  0  0  0  0  0
    2.8660   -1.2320    0.0000 N   0  3  0  0  0  0  0  0  0  0  0  0
    4.5981   -1.2320    0.0000 C   0  0  3  0  0  0  0  0  0  0  0  0
    5.4641   -0.7321    0.0000 C   0  0  3  0  0  0  0  0  0  0  0  0
    3.7320   -0.7321    0.0000 C   0  0  0  0  0  0  0  0  0  0  0  0
    4.5981   -2.2320    0.0000 C   0  0  0  0  0  0  0  0  0  0  0  0
    6.3301   -1.2320    0.0000 C   0  0  0  0  0  0  0  0  0  0  0  0
    5.4641   -2.7320    0.0000 C   0  0  0  0  0  0  0  0  0  0  0  0
    6.3301   -2.2320    0.0000 C   0  0  0  0  0  0  0  0  0  0  0  0
    5.9641    0.1340    0.0000 C   0  0  0  0  0  0  0  0  0  0  0  0
    2.0000   -1.7320    0.0000 C   0  0  0  0  0  0  0  0  0  0  0  0
    2.3660   -0.3660    0.0000 C   0  0  0  0  0  0  0  0  0  0  0  0
    3.3660   -2.0981    0.0000 C   0  0  0  0  0  0  0  0  0  0  0  0
    6.9641    0.1340    0.0000 C   0  0  0  0  0  0  0  0  0  0  0  0
    5.4641    1.0000    0.0000 C   0  0  0  0  0  0  0  0  0  0  0  0
    7.4641    1.0000    0.0000 C   0  0  0  0  0  0  0  0  0  0  0  0
    5.9641    1.8660    0.0000 C   0  0  0  0  0  0  0  0  0  0  0  0
    6.9641    1.8660    0.0000 C   0  0  0  0  0  0  0  0  0  0  0  0
    4.5981   -0.6121    0.0000 H   0  0  0  0  0  0  0  0  0  0  0  0
    4.1306   -0.2571    0.0000 H   0  0  0  0  0  0  0  0  0  0  0  0
    3.3335   -0.2571    0.0000 H   0  0  0  0  0  0  0  0  0  0  0  0
    3.9875   -2.1244    0.0000 H   0  0  0  0  0  0  0  0  0  0  0  0
    4.3860   -2.8147    0.0000 H   0  0  0  0  0  0  0  0  0  0  0  0
    6.9407   -1.3397    0.0000 H   0  0  0  0  0  0  0  0  0  0  0  0
    6.5422   -0.6494    0.0000 H   0  0  0  0  0  0  0  0  0  0  0  0
    5.0656   -3.2070    0.0000 H   0  0  0  0  0  0  0  0  0  0  0  0
    5.8626   -3.2070    0.0000 H   0  0  0  0  0  0  0  0  0  0  0  0
    6.5422   -2.8147    0.0000 H   0  0  0  0  0  0  0  0  0  0  0  0
    6.9407   -2.1244    0.0000 H   0  0  0  0  0  0  0  0  0  0  0  0
    1.6900   -1.1951    0.0000 H   0  0  0  0  0  0  0  0  0  0  0  0
    2.8291   -2.4081    0.0000 H   0  0  0  0  0  0  0  0  0  0  0  0
    3.6760   -2.6350    0.0000 H   0  0  0  0  0  0  0  0  0  0  0  0
    1.4631   -2.0420    0.0000 H   0  0  0  0  0  0  0  0  0  0  0  0
    2.3100   -2.2690    0.0000 H   0  0  0  0  0  0  0  0  0  0  0  0
    2.9030   -0.0560    0.0000 H   0  0  0  0  0  0  0  0  0  0  0  0
    2.0560    0.1709    0.0000 H   0  0  0  0  0  0  0  0  0  0  0  0
    1.8291   -0.6760    0.0000 H   0  0  0  0  0  0  0  0  0  0  0  0
    3.9030   -1.7881    0.0000 H   0  0  0  0  0  0  0  0  0  0  0  0
    4.3441    0.1340    0.0000 H   0  0  0  0  0  0  0  0  0  0  0  0
    7.2741   -0.4030    0.0000 H   0  0  0  0  0  0  0  0  0  0  0  0
    4.8441    1.0000    0.0000 H   0  0  0  0  0  0  0  0  0  0  0  0
    8.0841    1.0000    0.0000 H   0  0  0  0  0  0  0  0  0  0  0  0
    5.6541    2.4030    0.0000 H   0  0  0  0  0  0  0  0  0  0  0  0
  1 19  1  0  0  0  0
  2  5  1  0  0  0  0
  2 40  1  0  0  0  0
  3  6  1  0  0  0  0
  3 12  1  0  0  0  0
  3 13  1  0  0  0  0
  3 14  1  0  0  0  0
  4  5  1  0  0  0  0
  4  6  1  0  0  0  0
  4  7  1  0  0  0  0
  4 20  1  0  0  0  0
  5  8  1  0  0  0  0
  5 11  1  0  0  0  0
  6 21  1  0  0  0  0
  6 22  1  0  0  0  0
  7  9  1  0  0  0  0
  7 23  1  0  0  0  0
  7 24  1  0  0  0  0
  8 10  1  0  0  0  0
  8 25  1  0  0  0  0
  8 26  1  0  0  0  0
  9 10  1  0  0  0  0
  9 27  1  0  0  0  0
  9 28  1  0  0  0  0
 10 29  1  0  0  0  0
 10 30  1  0  0  0  0
 11 15  2  0  0  0  0
 11 16  1  0  0  0  0
 12 31  1  0  0  0  0
 12 34  1  0  0  0  0
 12 35  1  0  0  0  0
 13 36  1  0  0  0  0
 13 37  1  0  0  0  0
 13 38  1  0  0  0  0
 14 32  1  0  0  0  0
 14 33  1  0  0  0  0
 14 39  1  0  0  0  0
 15 17  1  0  0  0  0
 15 41  1  0  0  0  0
 16 18  2  0  0  0  0
 16 42  1  0  0  0  0
 17 19  2  0  0  0  0
 17 43  1  0  0  0  0
 18 19  1  0  0  0  0
 18 44  1  0  0  0  0
M  CHG  1   3   1
M  END
> <PUBCHEM_COMPOUND_CID>
9655

> <PUBCHEM_COMPOUND_CANONICALIZED>
1

> <PUBCHEM_CACTVS_COMPLEXITY>
294

> <PUBCHEM_CACTVS_HBOND_ACCEPTOR>
1

> <PUBCHEM_CACTVS_HBOND_DONOR>
1

> <PUBCHEM_CACTVS_ROTATABLE_BOND>
3

> <PUBCHEM_CACTVS_SUBSKEYS>
AAADceB6IAAEAAAAAAAAAAAAAAAAAAAAAAAwYAAAAAAAAAABAAAAHgIACAAADUbBmCQyAIMAAgCAAiBCAAACAAAgBQAIiAAICogIJiKBkxCEcAAmwAEImAeQwOAOhAAAAAAAAAAIAAAAADAAAAAAAAAAAA==

> <PUBCHEM_IUPAC_OPENEYE_NAME>
[2-(4-chlorophenyl)-2-hydroxy-cyclohexyl]methyl-trimethyl-ammonium

> <PUBCHEM_IUPAC_CAS_NAME>
[2-(4-chlorophenyl)-2-hydroxycyclohexyl]methyl-trimethylammonium

> <PUBCHEM_IUPAC_NAME>
[2-(4-chlorophenyl)-2-hydroxycyclohexyl]methyl-trimethylazanium

> <PUBCHEM_IUPAC_SYSTEMATIC_NAME>
[2-(4-chlorophenyl)-2-oxidanyl-cyclohexyl]methyl-trimethyl-azanium

> <PUBCHEM_IUPAC_TRADITIONAL_NAME>
[2-(4-chlorophenyl)-2-hydroxy-cyclohexyl]methyl-trimethyl-ammonium

> <PUBCHEM_IUPAC_INCHI>
InChI=1S/C16H25ClNO/c1-18(2,3)12-14-6-4-5-11-16(14,19)13-7-9-15(17)10-8-13/h7-10,14,19H,4-6,11-12H2,1-3H3/q+1

> <PUBCHEM_IUPAC_INCHIKEY>
NEPZTQLNTOKBTB-UHFFFAOYSA-N

> <PUBCHEM_XLOGP3>
3.3

> <PUBCHEM_EXACT_MASS>
282.162467

> <PUBCHEM_MOLECULAR_FORMULA>
C16H25ClNO+

> <PUBCHEM_MOLECULAR_WEIGHT>
282.8288

> <PUBCHEM_OPENEYE_CAN_SMILES>
C[N+](C)(C)CC1CCCCC1(C2=CC=C(C=C2)Cl)O

> <PUBCHEM_OPENEYE_ISO_SMILES>
C[N+](C)(C)CC1CCCCC1(C2=CC=C(C=C2)Cl)O

> <PUBCHEM_CACTVS_TPSA>
20.2

> <PUBCHEM_MONOISOTOPIC_WEIGHT>
282.162467

> <PUBCHEM_TOTAL_CHARGE>
1

> <PUBCHEM_HEAVY_ATOM_COUNT>
19

> <PUBCHEM_ATOM_DEF_STEREO_COUNT>
0

> <PUBCHEM_ATOM_UDEF_STEREO_COUNT>
2

> <PUBCHEM_BOND_DEF_STEREO_COUNT>
0

> <PUBCHEM_BOND_UDEF_STEREO_COUNT>
0

> <PUBCHEM_ISOTOPIC_ATOM_COUNT>
0

> <PUBCHEM_COMPONENT_COUNT>
1

> <PUBCHEM_CACTVS_TAUTO_COUNT>
1

> <PUBCHEM_COORDINATE_TYPE>
1
5
255

> <PUBCHEM_BONDANNOTATIONS>
11  15  8
11  16  8
15  17  8
16  18  8
17  19  8
18  19  8
5  2  3
4  6  3

$$$$

