586307
  -OEChem-06241222462D

 35 37  0     0  0  0  0  0  0999 V2000
    2.8660    0.2327    0.0000 S   0  0  0  0  0  0  0  0  0  0  0  0
    2.0000    3.7327    0.0000 F   0  0  0  0  0  0  0  0  0  0  0  0
    5.4920    1.6980    0.0000 O   0  0  0  0  0  0  0  0  0  0  0  0
    6.3981    3.2535    0.0000 O   0  0  0  0  0  0  0  0  0  0  0  0
    4.5981    2.2327    0.0000 C   0  0  0  0  0  0  0  0  0  0  0  0
    4.5981    3.2327    0.0000 C   0  0  0  0  0  0  0  0  0  0  0  0
    3.7320    1.7327    0.0000 C   0  0  0  0  0  0  0  0  0  0  0  0
    5.4920    3.7673    0.0000 C   0  0  0  0  0  0  0  0  0  0  0  0
    3.7320    0.7327    0.0000 C   0  0  0  0  0  0  0  0  0  0  0  0
    3.7320    3.7327    0.0000 C   0  0  0  0  0  0  0  0  0  0  0  0
    2.8660    2.2327    0.0000 C   0  0  0  0  0  0  0  0  0  0  0  0
    2.8660    3.2327    0.0000 C   0  0  0  0  0  0  0  0  0  0  0  0
    6.3981    2.2118    0.0000 C   0  0  0  0  0  0  0  0  0  0  0  0
    2.8660   -0.7673    0.0000 C   0  0  0  0  0  0  0  0  0  0  0  0
    2.0000   -1.2673    0.0000 C   0  0  0  0  0  0  0  0  0  0  0  0
    3.7320   -1.2673    0.0000 C   0  0  0  0  0  0  0  0  0  0  0  0
    2.8660   -2.7673    0.0000 C   0  0  0  0  0  0  0  0  0  0  0  0
    2.0000   -2.2673    0.0000 C   0  0  0  0  0  0  0  0  0  0  0  0
    3.7320   -2.2673    0.0000 C   0  0  0  0  0  0  0  0  0  0  0  0
    2.8660   -3.7673    0.0000 C   0  0  0  0  0  0  0  0  0  0  0  0
    5.8856    4.2463    0.0000 H   0  0  0  0  0  0  0  0  0  0  0  0
    5.0874    4.2371    0.0000 H   0  0  0  0  0  0  0  0  0  0  0  0
    3.9441    0.1501    0.0000 H   0  0  0  0  0  0  0  0  0  0  0  0
    4.3426    0.8403    0.0000 H   0  0  0  0  0  0  0  0  0  0  0  0
    3.7320    4.3527    0.0000 H   0  0  0  0  0  0  0  0  0  0  0  0
    2.3291    1.9227    0.0000 H   0  0  0  0  0  0  0  0  0  0  0  0
    6.6071    1.6282    0.0000 H   0  0  0  0  0  0  0  0  0  0  0  0
    7.0089    2.3180    0.0000 H   0  0  0  0  0  0  0  0  0  0  0  0
    1.4631   -0.9573    0.0000 H   0  0  0  0  0  0  0  0  0  0  0  0
    4.2690   -0.9573    0.0000 H   0  0  0  0  0  0  0  0  0  0  0  0
    1.4631   -2.5773    0.0000 H   0  0  0  0  0  0  0  0  0  0  0  0
    4.2690   -2.5773    0.0000 H   0  0  0  0  0  0  0  0  0  0  0  0
    2.2460   -3.7673    0.0000 H   0  0  0  0  0  0  0  0  0  0  0  0
    2.8660   -4.3873    0.0000 H   0  0  0  0  0  0  0  0  0  0  0  0
    3.4860   -3.7673    0.0000 H   0  0  0  0  0  0  0  0  0  0  0  0
  1  9  1  0  0  0  0
  1 14  1  0  0  0  0
  2 12  1  0  0  0  0
  3  5  1  0  0  0  0
  3 13  1  0  0  0  0
  4  8  1  0  0  0  0
  4 13  1  0  0  0  0
  5  6  2  0  0  0  0
  5  7  1  0  0  0  0
  6  8  1  0  0  0  0
  6 10  1  0  0  0  0
  7  9  1  0  0  0  0
  7 11  2  0  0  0  0
  8 21  1  0  0  0  0
  8 22  1  0  0  0  0
  9 23  1  0  0  0  0
  9 24  1  0  0  0  0
 10 12  2  0  0  0  0
 10 25  1  0  0  0  0
 11 12  1  0  0  0  0
 11 26  1  0  0  0  0
 13 27  1  0  0  0  0
 13 28  1  0  0  0  0
 14 15  2  0  0  0  0
 14 16  1  0  0  0  0
 15 18  1  0  0  0  0
 15 29  1  0  0  0  0
 16 19  2  0  0  0  0
 16 30  1  0  0  0  0
 17 18  2  0  0  0  0
 17 19  1  0  0  0  0
 17 20  1  0  0  0  0
 18 31  1  0  0  0  0
 19 32  1  0  0  0  0
 20 33  1  0  0  0  0
 20 34  1  0  0  0  0
 20 35  1  0  0  0  0
M  END
> <PUBCHEM_COMPOUND_CID>
586307

> <PUBCHEM_COMPOUND_CANONICALIZED>
1

> <PUBCHEM_CACTVS_COMPLEXITY>
307

> <PUBCHEM_CACTVS_HBOND_ACCEPTOR>
4

> <PUBCHEM_CACTVS_HBOND_DONOR>
0

> <PUBCHEM_CACTVS_ROTATABLE_BOND>
3

> <PUBCHEM_CACTVS_SUBSKEYS>
AAADccB4MQBAAAAAAAAAAAAAAAAAAAAAAAA0YIAAAAAAAACRQAAAGwQAAAAADASk2AuyD4AABAiAAiBCAAACCAAgKBAIiBgECIgcJyKkMRqgMCAlwBEsqAeAwGAOEAACAAAIAAAgAAQAABAAAAAAAAAAAA==

> <PUBCHEM_IUPAC_OPENEYE_NAME>
6-fluoro-8-(p-tolylsulfanylmethyl)-4H-1,3-benzodioxine

> <PUBCHEM_IUPAC_CAS_NAME>
6-fluoro-8-[[(4-methylphenyl)thio]methyl]-4H-1,3-benzodioxin

> <PUBCHEM_IUPAC_NAME>
6-fluoro-8-[(4-methylphenyl)sulfanylmethyl]-4H-1,3-benzodioxine

> <PUBCHEM_IUPAC_SYSTEMATIC_NAME>
6-fluoranyl-8-[(4-methylphenyl)sulfanylmethyl]-4H-1,3-benzodioxine

> <PUBCHEM_IUPAC_TRADITIONAL_NAME>
6-fluoro-8-[(p-tolylthio)methyl]-4H-1,3-benzodioxin

> <PUBCHEM_IUPAC_INCHI>
InChI=1S/C16H15FO2S/c1-11-2-4-15(5-3-11)20-9-13-7-14(17)6-12-8-18-10-19-16(12)13/h2-7H,8-10H2,1H3

> <PUBCHEM_IUPAC_INCHIKEY>
GPDNEBLELUWVDZ-UHFFFAOYSA-N

> <PUBCHEM_XLOGP3_AA>
3.9

> <PUBCHEM_EXACT_MASS>
290.077679

> <PUBCHEM_MOLECULAR_FORMULA>
C16H15FO2S

> <PUBCHEM_MOLECULAR_WEIGHT>
290.352503

> <PUBCHEM_OPENEYE_CAN_SMILES>
CC1=CC=C(C=C1)SCC2=C3C(=CC(=C2)F)COCO3

> <PUBCHEM_OPENEYE_ISO_SMILES>
CC1=CC=C(C=C1)SCC2=C3C(=CC(=C2)F)COCO3

> <PUBCHEM_CACTVS_TPSA>
43.8

> <PUBCHEM_MONOISOTOPIC_WEIGHT>
290.077679

> <PUBCHEM_TOTAL_CHARGE>
0

> <PUBCHEM_HEAVY_ATOM_COUNT>
20

> <PUBCHEM_ATOM_DEF_STEREO_COUNT>
0

> <PUBCHEM_ATOM_UDEF_STEREO_COUNT>
0

> <PUBCHEM_BOND_DEF_STEREO_COUNT>
0

> <PUBCHEM_BOND_UDEF_STEREO_COUNT>
0

> <PUBCHEM_ISOTOPIC_ATOM_COUNT>
0

> <PUBCHEM_COMPONENT_COUNT>
1

> <PUBCHEM_CACTVS_TAUTO_COUNT>
1

> <PUBCHEM_COORDINATE_TYPE>
1
5
255

> <PUBCHEM_BONDANNOTATIONS>
10  12  8
11  12  8
14  15  8
14  16  8
15  18  8
16  19  8
17  18  8
17  19  8
5  6  8
5  7  8
6  10  8
7  11  8

$$$$

