5509
  -OEChem-06261200432D

 34 35  0     0  0  0  0  0  0999 V2000
    2.0000    1.2728    0.0000 O   0  0  0  0  0  0  0  0  0  0  0  0
    7.8916    2.2092    0.0000 O   0  0  0  0  0  0  0  0  0  0  0  0
    6.4903    3.2272    0.0000 O   0  0  0  0  0  0  0  0  0  0  0  0
    4.6456    0.8660    0.0000 N   0  0  0  0  0  0  0  0  0  0  0  0
    5.3147    1.6092    0.0000 C   0  0  0  0  0  0  0  0  0  0  0  0
    3.7320    1.2728    0.0000 C   0  0  0  0  0  0  0  0  0  0  0  0
    4.8147    2.4752    0.0000 C   0  0  0  0  0  0  0  0  0  0  0  0
    3.8366    2.2673    0.0000 C   0  0  0  0  0  0  0  0  0  0  0  0
    6.3092    1.5047    0.0000 C   0  0  0  0  0  0  0  0  0  0  0  0
    2.8660    0.7728    0.0000 C   0  0  0  0  0  0  0  0  0  0  0  0
    4.8535   -0.1121    0.0000 C   0  0  0  0  0  0  0  0  0  0  0  0
    2.8660   -0.2272    0.0000 C   0  0  0  0  0  0  0  0  0  0  0  0
    2.0000   -0.7272    0.0000 C   0  0  0  0  0  0  0  0  0  0  0  0
    3.7320   -0.7272    0.0000 C   0  0  0  0  0  0  0  0  0  0  0  0
    2.8660   -2.2272    0.0000 C   0  0  0  0  0  0  0  0  0  0  0  0
    2.0000   -1.7272    0.0000 C   0  0  0  0  0  0  0  0  0  0  0  0
    3.7320   -1.7272    0.0000 C   0  0  0  0  0  0  0  0  0  0  0  0
    6.8970    2.3137    0.0000 C   0  0  0  0  0  0  0  0  0  0  0  0
    2.8660   -3.2272    0.0000 C   0  0  0  0  0  0  0  0  0  0  0  0
    5.0669    3.0416    0.0000 H   0  0  0  0  0  0  0  0  0  0  0  0
    3.3758    2.6822    0.0000 H   0  0  0  0  0  0  0  0  0  0  0  0
    6.1384    0.9087    0.0000 H   0  0  0  0  0  0  0  0  0  0  0  0
    6.8665    1.2329    0.0000 H   0  0  0  0  0  0  0  0  0  0  0  0
    4.2471   -0.2410    0.0000 H   0  0  0  0  0  0  0  0  0  0  0  0
    4.9824   -0.7186    0.0000 H   0  0  0  0  0  0  0  0  0  0  0  0
    5.4600    0.0168    0.0000 H   0  0  0  0  0  0  0  0  0  0  0  0
    1.4631   -0.4172    0.0000 H   0  0  0  0  0  0  0  0  0  0  0  0
    4.2690   -0.4172    0.0000 H   0  0  0  0  0  0  0  0  0  0  0  0
    1.4631   -2.0372    0.0000 H   0  0  0  0  0  0  0  0  0  0  0  0
    4.2690   -2.0372    0.0000 H   0  0  0  0  0  0  0  0  0  0  0  0
    2.2460   -3.2272    0.0000 H   0  0  0  0  0  0  0  0  0  0  0  0
    2.8660   -3.8472    0.0000 H   0  0  0  0  0  0  0  0  0  0  0  0
    3.4860   -3.2272    0.0000 H   0  0  0  0  0  0  0  0  0  0  0  0
    8.2560    2.7107    0.0000 H   0  0  0  0  0  0  0  0  0  0  0  0
  1 10  2  0  0  0  0
  2 18  1  0  0  0  0
  2 34  1  0  0  0  0
  3 18  2  0  0  0  0
  4  5  1  0  0  0  0
  4  6  1  0  0  0  0
  4 11  1  0  0  0  0
  5  7  2  0  0  0  0
  5  9  1  0  0  0  0
  6  8  2  0  0  0  0
  6 10  1  0  0  0  0
  7  8  1  0  0  0  0
  7 20  1  0  0  0  0
  8 21  1  0  0  0  0
  9 18  1  0  0  0  0
  9 22  1  0  0  0  0
  9 23  1  0  0  0  0
 10 12  1  0  0  0  0
 11 24  1  0  0  0  0
 11 25  1  0  0  0  0
 11 26  1  0  0  0  0
 12 13  2  0  0  0  0
 12 14  1  0  0  0  0
 13 16  1  0  0  0  0
 13 27  1  0  0  0  0
 14 17  2  0  0  0  0
 14 28  1  0  0  0  0
 15 16  2  0  0  0  0
 15 17  1  0  0  0  0
 15 19  1  0  0  0  0
 16 29  1  0  0  0  0
 17 30  1  0  0  0  0
 19 31  1  0  0  0  0
 19 32  1  0  0  0  0
 19 33  1  0  0  0  0
M  END
> <PUBCHEM_COMPOUND_CID>
5509

> <PUBCHEM_COMPOUND_CANONICALIZED>
1

> <PUBCHEM_CACTVS_COMPLEXITY>
347

> <PUBCHEM_CACTVS_HBOND_ACCEPTOR>
3

> <PUBCHEM_CACTVS_HBOND_DONOR>
1

> <PUBCHEM_CACTVS_ROTATABLE_BOND>
4

> <PUBCHEM_CACTVS_SUBSKEYS>
AAADccByMAAAAAAAAAAAAAAAAAAAAWAAAAAwAAAAAAAAAAABwAAAHgAACAAADAyBngQyiJMMEgCoA6TyTACCgCAnAiAI2CG4ZNgIIPrAlbGEYQhmwAHIyYeYyeCeQAAAAAAAAACAAAAAAAAAAAAAAAAAAA==

> <PUBCHEM_IUPAC_OPENEYE_NAME>
2-[1-methyl-5-(4-methylbenzoyl)pyrrol-2-yl]acetic acid

> <PUBCHEM_IUPAC_CAS_NAME>
2-[1-methyl-5-[(4-methylphenyl)-oxomethyl]-2-pyrrolyl]acetic acid

> <PUBCHEM_IUPAC_NAME>
2-[1-methyl-5-(4-methylbenzoyl)pyrrol-2-yl]acetic acid

> <PUBCHEM_IUPAC_SYSTEMATIC_NAME>
2-[1-methyl-5-(4-methylphenyl)carbonyl-pyrrol-2-yl]ethanoic acid

> <PUBCHEM_IUPAC_TRADITIONAL_NAME>
2-(1-methyl-5-p-toluoyl-pyrrol-2-yl)acetic acid

> <PUBCHEM_IUPAC_INCHI>
InChI=1S/C15H15NO3/c1-10-3-5-11(6-4-10)15(19)13-8-7-12(16(13)2)9-14(17)18/h3-8H,9H2,1-2H3,(H,17,18)

> <PUBCHEM_IUPAC_INCHIKEY>
UPSPUYADGBWSHF-UHFFFAOYSA-N

> <PUBCHEM_XLOGP3>
2.8

> <PUBCHEM_EXACT_MASS>
257.105193

> <PUBCHEM_MOLECULAR_FORMULA>
C15H15NO3

> <PUBCHEM_MOLECULAR_WEIGHT>
257.2845

> <PUBCHEM_OPENEYE_CAN_SMILES>
CC1=CC=C(C=C1)C(=O)C2=CC=C(N2C)CC(=O)O

> <PUBCHEM_OPENEYE_ISO_SMILES>
CC1=CC=C(C=C1)C(=O)C2=CC=C(N2C)CC(=O)O

> <PUBCHEM_CACTVS_TPSA>
59.3

> <PUBCHEM_MONOISOTOPIC_WEIGHT>
257.105193

> <PUBCHEM_TOTAL_CHARGE>
0

> <PUBCHEM_HEAVY_ATOM_COUNT>
19

> <PUBCHEM_ATOM_DEF_STEREO_COUNT>
0

> <PUBCHEM_ATOM_UDEF_STEREO_COUNT>
0

> <PUBCHEM_BOND_DEF_STEREO_COUNT>
0

> <PUBCHEM_BOND_UDEF_STEREO_COUNT>
0

> <PUBCHEM_ISOTOPIC_ATOM_COUNT>
0

> <PUBCHEM_COMPONENT_COUNT>
1

> <PUBCHEM_CACTVS_TAUTO_COUNT>
15

> <PUBCHEM_COORDINATE_TYPE>
1
5
255

> <PUBCHEM_BONDANNOTATIONS>
12  13  8
12  14  8
13  16  8
14  17  8
15  16  8
15  17  8
4  5  8
4  6  8
5  7  8
6  8  8
7  8  8

$$$$

