17395735
  -OEChem-06241222522D

 42 45  0     0  0  0  0  0  0999 V2000
   13.5224   -0.1676    0.0000 O   0  0  0  0  0  0  0  0  0  0  0  0
   13.5224    1.9018    0.0000 O   0  0  0  0  0  0  0  0  0  0  0  0
    8.2983   -1.1329    0.0000 O   0  0  0  0  0  0  0  0  0  0  0  0
    5.4836   -1.3354    0.0000 N   0  0  0  0  0  0  0  0  0  0  0  0
    7.4323    0.3671    0.0000 N   0  0  0  0  0  0  0  0  0  0  0  0
    5.6527    0.2738    0.0000 N   0  0  0  0  0  0  0  0  0  0  0  0
    6.4617   -1.1274    0.0000 N   0  0  0  0  0  0  0  0  0  0  0  0
   12.6284    0.3671    0.0000 C   0  0  0  0  0  0  0  0  0  0  0  0
   12.6284    1.3671    0.0000 C   0  0  0  0  0  0  0  0  0  0  0  0
   14.4284    0.3463    0.0000 C   0  0  0  0  0  0  0  0  0  0  0  0
   14.4284    1.3879    0.0000 C   0  0  0  0  0  0  0  0  0  0  0  0
   10.8964    0.3671    0.0000 C   0  0  0  0  0  0  0  0  0  0  0  0
   11.7624   -0.1329    0.0000 C   0  0  0  0  0  0  0  0  0  0  0  0
   11.7624    1.8671    0.0000 C   0  0  0  0  0  0  0  0  0  0  0  0
   10.8964    1.3671    0.0000 C   0  0  0  0  0  0  0  0  0  0  0  0
   10.0303   -0.1329    0.0000 C   0  0  0  0  0  0  0  0  0  0  0  0
    3.9890   -0.3648    0.0000 C   0  0  0  0  0  0  0  0  0  0  0  0
    4.9836   -0.4693    0.0000 C   0  0  0  0  0  0  0  0  0  0  0  0
    9.1643    0.3671    0.0000 C   0  0  0  0  0  0  0  0  0  0  0  0
    6.5662   -0.1329    0.0000 C   0  0  0  0  0  0  0  0  0  0  0  0
    3.5823    0.5488    0.0000 C   0  0  0  0  0  0  0  0  0  0  0  0
    3.4013   -1.1738    0.0000 C   0  0  0  0  0  0  0  0  0  0  0  0
    8.2983   -0.1329    0.0000 C   0  0  0  0  0  0  0  0  0  0  0  0
    2.5878    0.6533    0.0000 C   0  0  0  0  0  0  0  0  0  0  0  0
    2.4067   -1.0693    0.0000 C   0  0  0  0  0  0  0  0  0  0  0  0
    2.0000   -0.1557    0.0000 C   0  0  0  0  0  0  0  0  0  0  0  0
   14.6375   -0.2374    0.0000 H   0  0  0  0  0  0  0  0  0  0  0  0
   15.0393    0.4524    0.0000 H   0  0  0  0  0  0  0  0  0  0  0  0
   15.0393    1.2818    0.0000 H   0  0  0  0  0  0  0  0  0  0  0  0
   14.6375    1.9716    0.0000 H   0  0  0  0  0  0  0  0  0  0  0  0
   11.7624   -0.7529    0.0000 H   0  0  0  0  0  0  0  0  0  0  0  0
   11.7624    2.4871    0.0000 H   0  0  0  0  0  0  0  0  0  0  0  0
   10.3594    1.6771    0.0000 H   0  0  0  0  0  0  0  0  0  0  0  0
   10.0303   -0.7529    0.0000 H   0  0  0  0  0  0  0  0  0  0  0  0
    9.1643    0.9871    0.0000 H   0  0  0  0  0  0  0  0  0  0  0  0
    3.9467    1.0503    0.0000 H   0  0  0  0  0  0  0  0  0  0  0  0
    3.6534   -1.7402    0.0000 H   0  0  0  0  0  0  0  0  0  0  0  0
    5.2314   -1.9018    0.0000 H   0  0  0  0  0  0  0  0  0  0  0  0
    7.4323    0.9871    0.0000 H   0  0  0  0  0  0  0  0  0  0  0  0
    2.3356    1.2197    0.0000 H   0  0  0  0  0  0  0  0  0  0  0  0
    2.0423   -1.5709    0.0000 H   0  0  0  0  0  0  0  0  0  0  0  0
    1.3834   -0.0909    0.0000 H   0  0  0  0  0  0  0  0  0  0  0  0
  1  8  1  0  0  0  0
  1 10  1  0  0  0  0
  2  9  1  0  0  0  0
  2 11  1  0  0  0  0
  3 23  2  0  0  0  0
  4  7  1  0  0  0  0
  4 18  1  0  0  0  0
  4 38  1  0  0  0  0
  5 20  1  0  0  0  0
  5 23  1  0  0  0  0
  5 39  1  0  0  0  0
  6 18  2  0  0  0  0
  6 20  1  0  0  0  0
  7 20  2  0  0  0  0
  8  9  2  0  0  0  0
  8 13  1  0  0  0  0
  9 14  1  0  0  0  0
 10 11  1  0  0  0  0
 10 27  1  0  0  0  0
 10 28  1  0  0  0  0
 11 29  1  0  0  0  0
 11 30  1  0  0  0  0
 12 13  2  0  0  0  0
 12 15  1  0  0  0  0
 12 16  1  0  0  0  0
 13 31  1  0  0  0  0
 14 15  2  0  0  0  0
 14 32  1  0  0  0  0
 15 33  1  0  0  0  0
 16 19  2  0  0  0  0
 16 34  1  0  0  0  0
 17 18  1  0  0  0  0
 17 21  2  0  0  0  0
 17 22  1  0  0  0  0
 19 23  1  0  0  0  0
 19 35  1  0  0  0  0
 21 24  1  0  0  0  0
 21 36  1  0  0  0  0
 22 25  2  0  0  0  0
 22 37  1  0  0  0  0
 24 26  2  0  0  0  0
 24 40  1  0  0  0  0
 25 26  1  0  0  0  0
 25 41  1  0  0  0  0
 26 42  1  0  0  0  0
M  END
> <PUBCHEM_COMPOUND_CID>
17395735

> <PUBCHEM_COMPOUND_CANONICALIZED>
1

> <PUBCHEM_CACTVS_COMPLEXITY>
509

> <PUBCHEM_CACTVS_HBOND_ACCEPTOR>
5

> <PUBCHEM_CACTVS_HBOND_DONOR>
2

> <PUBCHEM_CACTVS_ROTATABLE_BOND>
4

> <PUBCHEM_CACTVS_SUBSKEYS>
AAADceB7sAAAAAAAAAAAAAAAAAAAAWAAAAA0YIAAAAAAAACR0AAAHgAYAAAADAShmwIxFobrFACqAiNyNACSiAugIKAdqCAmjNiNLqKEuRuGOCr82RMKqYeQwBAOIAABAAAAQABAAAIAAACAAAAAAAAAAA==

> <PUBCHEM_IUPAC_OPENEYE_NAME>
(E)-3-(2,3-dihydro-1,4-benzodioxin-6-yl)-N-(5-phenyl-1H-1,2,4-triazol-3-yl)prop-2-enamide

> <PUBCHEM_IUPAC_CAS_NAME>
(E)-3-(2,3-dihydro-1,4-benzodioxin-6-yl)-N-(5-phenyl-1H-1,2,4-triazol-3-yl)-2-propenamide

> <PUBCHEM_IUPAC_NAME>
(E)-3-(2,3-dihydro-1,4-benzodioxin-6-yl)-N-(5-phenyl-1H-1,2,4-triazol-3-yl)prop-2-enamide

> <PUBCHEM_IUPAC_SYSTEMATIC_NAME>
(E)-3-(2,3-dihydro-1,4-benzodioxin-6-yl)-N-(5-phenyl-1H-1,2,4-triazol-3-yl)prop-2-enamide

> <PUBCHEM_IUPAC_TRADITIONAL_NAME>
(E)-3-(2,3-dihydro-1,4-benzodioxin-6-yl)-N-(5-phenyl-1H-1,2,4-triazol-3-yl)acrylamide

> <PUBCHEM_IUPAC_INCHI>
InChI=1S/C19H16N4O3/c24-17(9-7-13-6-8-15-16(12-13)26-11-10-25-15)20-19-21-18(22-23-19)14-4-2-1-3-5-14/h1-9,12H,10-11H2,(H2,20,21,22,23,24)/b9-7+

> <PUBCHEM_IUPAC_INCHIKEY>
NBNAFPYRAXSZJC-VQHVLOKHSA-N

> <PUBCHEM_XLOGP3_AA>
3

> <PUBCHEM_EXACT_MASS>
348.12224

> <PUBCHEM_MOLECULAR_FORMULA>
C19H16N4O3

> <PUBCHEM_MOLECULAR_WEIGHT>
348.35534

> <PUBCHEM_OPENEYE_CAN_SMILES>
C1COC2=C(O1)C=CC(=C2)C=CC(=O)NC3=NNC(=N3)C4=CC=CC=C4

> <PUBCHEM_OPENEYE_ISO_SMILES>
C1COC2=C(O1)C=CC(=C2)/C=C/C(=O)NC3=NNC(=N3)C4=CC=CC=C4

> <PUBCHEM_CACTVS_TPSA>
89.1

> <PUBCHEM_MONOISOTOPIC_WEIGHT>
348.12224

> <PUBCHEM_TOTAL_CHARGE>
0

> <PUBCHEM_HEAVY_ATOM_COUNT>
26

> <PUBCHEM_ATOM_DEF_STEREO_COUNT>
0

> <PUBCHEM_ATOM_UDEF_STEREO_COUNT>
0

> <PUBCHEM_BOND_DEF_STEREO_COUNT>
1

> <PUBCHEM_BOND_UDEF_STEREO_COUNT>
0

> <PUBCHEM_ISOTOPIC_ATOM_COUNT>
0

> <PUBCHEM_COMPONENT_COUNT>
1

> <PUBCHEM_CACTVS_TAUTO_COUNT>
10

> <PUBCHEM_COORDINATE_TYPE>
1
5
255

> <PUBCHEM_BONDANNOTATIONS>
12  13  8
12  15  8
14  15  8
17  21  8
17  22  8
21  24  8
22  25  8
24  26  8
25  26  8
4  18  8
4  7  8
6  18  8
6  20  8
7  20  8
8  13  8
8  9  8
9  14  8

$$$$

