13296
  -OEChem-06261208392D

 32 33  0     0  0  0  0  0  0999 V2000
    3.0000    1.9050    0.0000 S   0  0  0  0  0  0  0  0  0  0  0  0
    3.0000   -2.0950    0.0000 S   0  0  0  0  0  0  0  0  0  0  0  0
    2.0000    1.9050    0.0000 O   0  0  0  0  0  0  0  0  0  0  0  0
    4.0000    1.9050    0.0000 O   0  0  0  0  0  0  0  0  0  0  0  0
    2.0000   -2.0950    0.0000 O   0  0  0  0  0  0  0  0  0  0  0  0
    4.0000   -2.0950    0.0000 O   0  0  0  0  0  0  0  0  0  0  0  0
    3.0000   -3.0950    0.0000 N   0  0  0  0  0  0  0  0  0  0  0  0
    3.0000    0.9050    0.0000 C   0  0  0  0  0  0  0  0  0  0  0  0
    3.8660    0.4050    0.0000 C   0  0  0  0  0  0  0  0  0  0  0  0
    3.8660   -0.5950    0.0000 C   0  0  0  0  0  0  0  0  0  0  0  0
    3.0000   -1.0950    0.0000 C   0  0  0  0  0  0  0  0  0  0  0  0
    3.0000    2.9050    0.0000 C   0  0  0  0  0  0  0  0  0  0  0  0
    2.1340    0.4050    0.0000 C   0  0  0  0  0  0  0  0  0  0  0  0
    2.1340   -0.5950    0.0000 C   0  0  0  0  0  0  0  0  0  0  0  0
    4.7600    0.9397    0.0000 C   0  0  0  0  0  0  0  0  0  0  0  0
    4.7600   -1.1297    0.0000 C   0  0  0  0  0  0  0  0  0  0  0  0
    2.1340    3.4050    0.0000 C   0  0  0  0  0  0  0  0  0  0  0  0
    5.6660    0.4258    0.0000 C   0  0  0  0  0  0  0  0  0  0  0  0
    5.6660   -0.6158    0.0000 C   0  0  0  0  0  0  0  0  0  0  0  0
    3.6106    2.7973    0.0000 H   0  0  0  0  0  0  0  0  0  0  0  0
    3.2120    3.4876    0.0000 H   0  0  0  0  0  0  0  0  0  0  0  0
    1.5970    0.7150    0.0000 H   0  0  0  0  0  0  0  0  0  0  0  0
    1.5970   -0.9050    0.0000 H   0  0  0  0  0  0  0  0  0  0  0  0
    4.7528    1.5596    0.0000 H   0  0  0  0  0  0  0  0  0  0  0  0
    4.7528   -1.7496    0.0000 H   0  0  0  0  0  0  0  0  0  0  0  0
    2.4440    3.9419    0.0000 H   0  0  0  0  0  0  0  0  0  0  0  0
    1.5970    3.7150    0.0000 H   0  0  0  0  0  0  0  0  0  0  0  0
    1.8240    2.8681    0.0000 H   0  0  0  0  0  0  0  0  0  0  0  0
    6.2018    0.7379    0.0000 H   0  0  0  0  0  0  0  0  0  0  0  0
    6.2018   -0.9279    0.0000 H   0  0  0  0  0  0  0  0  0  0  0  0
    2.4631   -3.4050    0.0000 H   0  0  0  0  0  0  0  0  0  0  0  0
    3.5369   -3.4050    0.0000 H   0  0  0  0  0  0  0  0  0  0  0  0
  1  3  2  0  0  0  0
  1  4  2  0  0  0  0
  1  8  1  0  0  0  0
  1 12  1  0  0  0  0
  2  5  2  0  0  0  0
  2  6  2  0  0  0  0
  2  7  1  0  0  0  0
  2 11  1  0  0  0  0
  7 31  1  0  0  0  0
  7 32  1  0  0  0  0
  8  9  1  0  0  0  0
  8 13  2  0  0  0  0
  9 10  1  0  0  0  0
  9 15  2  0  0  0  0
 10 11  1  0  0  0  0
 10 16  2  0  0  0  0
 11 14  2  0  0  0  0
 12 17  1  0  0  0  0
 12 20  1  0  0  0  0
 12 21  1  0  0  0  0
 13 14  1  0  0  0  0
 13 22  1  0  0  0  0
 14 23  1  0  0  0  0
 15 18  1  0  0  0  0
 15 24  1  0  0  0  0
 16 19  1  0  0  0  0
 16 25  1  0  0  0  0
 17 26  1  0  0  0  0
 17 27  1  0  0  0  0
 17 28  1  0  0  0  0
 18 19  2  0  0  0  0
 18 29  1  0  0  0  0
 19 30  1  0  0  0  0
M  END
> <PUBCHEM_COMPOUND_CID>
13296

> <PUBCHEM_COMPOUND_CANONICALIZED>
1

> <PUBCHEM_CACTVS_COMPLEXITY>
515

> <PUBCHEM_CACTVS_HBOND_ACCEPTOR>
5

> <PUBCHEM_CACTVS_HBOND_DONOR>
1

> <PUBCHEM_CACTVS_ROTATABLE_BOND>
3

> <PUBCHEM_CACTVS_SUBSKEYS>
AAADccByOABgAAAAAAAAAAAAAAAAAAAAAAAwYAAAAAAAAADBUAAAGAQQQAAADACEWACyAcAAAAqAAiBCAHBCABAgCBAIiBgAAIgIICKgERCAIAAggAAoiAcAgIAOgAgAgAAUAAAAEAEAACgAAAAAAAAAAA==

> <PUBCHEM_IUPAC_OPENEYE_NAME>
4-ethylsulfonylnaphthalene-1-sulfonamide

> <PUBCHEM_IUPAC_CAS_NAME>
4-ethylsulfonyl-1-naphthalenesulfonamide

> <PUBCHEM_IUPAC_NAME>
4-ethylsulfonylnaphthalene-1-sulfonamide

> <PUBCHEM_IUPAC_SYSTEMATIC_NAME>
4-ethylsulfonylnaphthalene-1-sulfonamide

> <PUBCHEM_IUPAC_TRADITIONAL_NAME>
4-esylnaphthalene-1-sulfonamide

> <PUBCHEM_IUPAC_INCHI>
InChI=1S/C12H13NO4S2/c1-2-18(14,15)11-7-8-12(19(13,16)17)10-6-4-3-5-9(10)11/h3-8H,2H2,1H3,(H2,13,16,17)

> <PUBCHEM_IUPAC_INCHIKEY>
BLQOLXMZXQXGOL-UHFFFAOYSA-N

> <PUBCHEM_XLOGP3>
1.2

> <PUBCHEM_EXACT_MASS>
299.0286

> <PUBCHEM_MOLECULAR_FORMULA>
C12H13NO4S2

> <PUBCHEM_MOLECULAR_WEIGHT>
299.36592

> <PUBCHEM_OPENEYE_CAN_SMILES>
CCS(=O)(=O)C1=CC=C(C2=CC=CC=C21)S(=O)(=O)N

> <PUBCHEM_OPENEYE_ISO_SMILES>
CCS(=O)(=O)C1=CC=C(C2=CC=CC=C21)S(=O)(=O)N

> <PUBCHEM_CACTVS_TPSA>
111

> <PUBCHEM_MONOISOTOPIC_WEIGHT>
299.0286

> <PUBCHEM_TOTAL_CHARGE>
0

> <PUBCHEM_HEAVY_ATOM_COUNT>
19

> <PUBCHEM_ATOM_DEF_STEREO_COUNT>
0

> <PUBCHEM_ATOM_UDEF_STEREO_COUNT>
0

> <PUBCHEM_BOND_DEF_STEREO_COUNT>
0

> <PUBCHEM_BOND_UDEF_STEREO_COUNT>
0

> <PUBCHEM_ISOTOPIC_ATOM_COUNT>
0

> <PUBCHEM_COMPONENT_COUNT>
1

> <PUBCHEM_CACTVS_TAUTO_COUNT>
1

> <PUBCHEM_COORDINATE_TYPE>
1
5
255

> <PUBCHEM_BONDANNOTATIONS>
10  11  8
10  16  8
11  14  8
13  14  8
15  18  8
16  19  8
18  19  8
8  13  8
8  9  8
9  10  8
9  15  8

$$$$

