17395897
  -OEChem-06241222532D

 39 41  0     1  0  0  0  0  0999 V2000
    2.0000   -1.5903    0.0000 Cl  0  0  0  0  0  0  0  0  0  0  0  0
    5.4641   -1.5903    0.0000 Cl  0  0  0  0  0  0  0  0  0  0  0  0
    6.5468    2.6121    0.0000 S   0  0  0  0  0  0  0  0  0  0  0  0
    7.4128    3.1121    0.0000 O   0  0  0  0  0  0  0  0  0  0  0  0
    6.3389    3.5903    0.0000 O   0  0  0  0  0  0  0  0  0  0  0  0
    5.4641   -0.5903    0.0000 O   0  0  0  0  0  0  0  0  0  0  0  0
    4.5981    0.9097    0.0000 N   0  0  0  0  0  0  0  0  0  0  0  0
    3.7320    1.4097    0.0000 C   0  0  0  0  0  0  0  0  0  0  0  0
    3.2320    2.2757    0.0000 C   0  0  0  0  0  0  0  0  0  0  0  0
    2.7320    1.4097    0.0000 C   0  0  0  0  0  0  0  0  0  0  0  0
    5.4641    1.4097    0.0000 C   0  0  3  0  0  0  0  0  0  0  0  0
    5.5686    2.4042    0.0000 C   0  0  0  0  0  0  0  0  0  0  0  0
    6.3776    1.0030    0.0000 C   0  0  0  0  0  0  0  0  0  0  0  0
    7.0468    1.7461    0.0000 C   0  0  0  0  0  0  0  0  0  0  0  0
    4.5981   -0.0903    0.0000 C   0  0  0  0  0  0  0  0  0  0  0  0
    3.7320   -0.5903    0.0000 C   0  0  0  0  0  0  0  0  0  0  0  0
    3.7320   -1.5903    0.0000 C   0  0  0  0  0  0  0  0  0  0  0  0
    2.8660   -2.0903    0.0000 C   0  0  0  0  0  0  0  0  0  0  0  0
    4.5981   -2.0903    0.0000 C   0  0  0  0  0  0  0  0  0  0  0  0
    2.8660   -3.0903    0.0000 C   0  0  0  0  0  0  0  0  0  0  0  0
    4.5981   -3.0903    0.0000 C   0  0  0  0  0  0  0  0  0  0  0  0
    3.7320   -3.5903    0.0000 C   0  0  0  0  0  0  0  0  0  0  0  0
    4.1705    1.8481    0.0000 H   0  0  0  0  0  0  0  0  0  0  0  0
    4.9441    1.7474    0.0000 H   0  0  0  0  0  0  0  0  0  0  0  0
    2.1494    1.6218    0.0000 H   0  0  0  0  0  0  0  0  0  0  0  0
    2.6244    0.7991    0.0000 H   0  0  0  0  0  0  0  0  0  0  0  0
    3.7070    2.6743    0.0000 H   0  0  0  0  0  0  0  0  0  0  0  0
    2.7571    2.6743    0.0000 H   0  0  0  0  0  0  0  0  0  0  0  0
    5.5038    3.0208    0.0000 H   0  0  0  0  0  0  0  0  0  0  0  0
    4.9486    2.4042    0.0000 H   0  0  0  0  0  0  0  0  0  0  0  0
    6.0677    0.4660    0.0000 H   0  0  0  0  0  0  0  0  0  0  0  0
    6.8792    0.6385    0.0000 H   0  0  0  0  0  0  0  0  0  0  0  0
    7.4616    1.2854    0.0000 H   0  0  0  0  0  0  0  0  0  0  0  0
    7.5484    2.1105    0.0000 H   0  0  0  0  0  0  0  0  0  0  0  0
    3.5200   -0.0077    0.0000 H   0  0  0  0  0  0  0  0  0  0  0  0
    3.1215   -0.6980    0.0000 H   0  0  0  0  0  0  0  0  0  0  0  0
    2.3291   -3.4003    0.0000 H   0  0  0  0  0  0  0  0  0  0  0  0
    5.1350   -3.4003    0.0000 H   0  0  0  0  0  0  0  0  0  0  0  0
    3.7320   -4.2103    0.0000 H   0  0  0  0  0  0  0  0  0  0  0  0
  1 18  1  0  0  0  0
  2 19  1  0  0  0  0
  3  4  2  0  0  0  0
  3  5  2  0  0  0  0
  3 12  1  0  0  0  0
  3 14  1  0  0  0  0
  6 15  2  0  0  0  0
  7  8  1  0  0  0  0
  7 11  1  0  0  0  0
  7 15  1  0  0  0  0
  8  9  1  0  0  0  0
  8 10  1  0  0  0  0
  8 23  1  0  0  0  0
  9 10  1  0  0  0  0
  9 27  1  0  0  0  0
  9 28  1  0  0  0  0
 10 25  1  0  0  0  0
 10 26  1  0  0  0  0
 11 12  1  0  0  0  0
 11 13  1  0  0  0  0
 11 24  1  0  0  0  0
 12 29  1  0  0  0  0
 12 30  1  0  0  0  0
 13 14  1  0  0  0  0
 13 31  1  0  0  0  0
 13 32  1  0  0  0  0
 14 33  1  0  0  0  0
 14 34  1  0  0  0  0
 15 16  1  0  0  0  0
 16 17  1  0  0  0  0
 16 35  1  0  0  0  0
 16 36  1  0  0  0  0
 17 18  2  0  0  0  0
 17 19  1  0  0  0  0
 18 20  1  0  0  0  0
 19 21  2  0  0  0  0
 20 22  2  0  0  0  0
 20 37  1  0  0  0  0
 21 22  1  0  0  0  0
 21 38  1  0  0  0  0
 22 39  1  0  0  0  0
M  END
> <PUBCHEM_COMPOUND_CID>
17395897

> <PUBCHEM_COMPOUND_CANONICALIZED>
1

> <PUBCHEM_CACTVS_COMPLEXITY>
519

> <PUBCHEM_CACTVS_HBOND_ACCEPTOR>
3

> <PUBCHEM_CACTVS_HBOND_DONOR>
0

> <PUBCHEM_CACTVS_ROTATABLE_BOND>
4

> <PUBCHEM_CACTVS_SUBSKEYS>
AAADceByMABGAAAAAAAAAAAAGAAAASAAAAAwAAAAAAAAAAABAAAAHgYAAAAADCrF2CSwAIMAAAqIAiFSEHBCAAAgBRAIiAEIAogIIDKhlxGEIAAghgCoiAcYiICOAAAAAACBAAAAAAAAAQIAAAAAAAAAAA==

> <PUBCHEM_IUPAC_OPENEYE_NAME>
N-cyclopropyl-2-(2,6-dichlorophenyl)-N-(1,1-dioxothiolan-3-yl)acetamide

> <PUBCHEM_IUPAC_CAS_NAME>
N-cyclopropyl-2-(2,6-dichlorophenyl)-N-(1,1-dioxo-3-thiolanyl)acetamide

> <PUBCHEM_IUPAC_NAME>
N-cyclopropyl-2-(2,6-dichlorophenyl)-N-(1,1-dioxothiolan-3-yl)acetamide

> <PUBCHEM_IUPAC_SYSTEMATIC_NAME>
2-[2,6-bis(chloranyl)phenyl]-N-[1,1-bis(oxidanylidene)thiolan-3-yl]-N-cyclopropyl-ethanamide

> <PUBCHEM_IUPAC_TRADITIONAL_NAME>
N-cyclopropyl-2-(2,6-dichlorophenyl)-N-(1,1-diketothiolan-3-yl)acetamide

> <PUBCHEM_IUPAC_INCHI>
InChI=1S/C15H17Cl2NO3S/c16-13-2-1-3-14(17)12(13)8-15(19)18(10-4-5-10)11-6-7-22(20,21)9-11/h1-3,10-11H,4-9H2

> <PUBCHEM_IUPAC_INCHIKEY>
XYQGOOWSEYYPLF-UHFFFAOYSA-N

> <PUBCHEM_XLOGP3_AA>
2.7

> <PUBCHEM_EXACT_MASS>
361.03062

> <PUBCHEM_MOLECULAR_FORMULA>
C15H17Cl2NO3S

> <PUBCHEM_MOLECULAR_WEIGHT>
362.27138

> <PUBCHEM_OPENEYE_CAN_SMILES>
C1CC1N(C2CCS(=O)(=O)C2)C(=O)CC3=C(C=CC=C3Cl)Cl

> <PUBCHEM_OPENEYE_ISO_SMILES>
C1CC1N(C2CCS(=O)(=O)C2)C(=O)CC3=C(C=CC=C3Cl)Cl

> <PUBCHEM_CACTVS_TPSA>
62.8

> <PUBCHEM_MONOISOTOPIC_WEIGHT>
361.03062

> <PUBCHEM_TOTAL_CHARGE>
0

> <PUBCHEM_HEAVY_ATOM_COUNT>
22

> <PUBCHEM_ATOM_DEF_STEREO_COUNT>
0

> <PUBCHEM_ATOM_UDEF_STEREO_COUNT>
1

> <PUBCHEM_BOND_DEF_STEREO_COUNT>
0

> <PUBCHEM_BOND_UDEF_STEREO_COUNT>
0

> <PUBCHEM_ISOTOPIC_ATOM_COUNT>
0

> <PUBCHEM_COMPONENT_COUNT>
1

> <PUBCHEM_CACTVS_TAUTO_COUNT>
1

> <PUBCHEM_COORDINATE_TYPE>
1
5
255

> <PUBCHEM_BONDANNOTATIONS>
17  18  8
17  19  8
18  20  8
19  21  8
20  22  8
21  22  8
11  7  3

$$$$

