17395321
  -OEChem-06241222492D

 39 41  0     0  0  0  0  0  0999 V2000
    3.4088    0.4148    0.0000 O   0  0  0  0  0  0  0  0  0  0  0  0
    3.4088   -1.8322    0.0000 O   0  0  0  0  0  0  0  0  0  0  0  0
    6.8509    1.3155    0.0000 O   0  0  0  0  0  0  0  0  0  0  0  0
    9.4586   -1.1745    0.0000 O   0  0  0  0  0  0  0  0  0  0  0  0
    7.7227   -0.1812    0.0000 N   0  0  0  0  0  0  0  0  0  0  0  0
    2.0000   -0.7087    0.0000 C   0  0  0  0  0  0  0  0  0  0  0  0
    2.4339    0.1923    0.0000 C   0  0  0  0  0  0  0  0  0  0  0  0
    2.4339   -1.6096    0.0000 C   0  0  0  0  0  0  0  0  0  0  0  0
    4.1906   -0.2087    0.0000 C   0  0  0  0  0  0  0  0  0  0  0  0
    4.1906   -1.2087    0.0000 C   0  0  0  0  0  0  0  0  0  0  0  0
    5.9906   -0.1879    0.0000 C   0  0  0  0  0  0  0  0  0  0  0  0
    5.0846    0.3260    0.0000 C   0  0  0  0  0  0  0  0  0  0  0  0
    5.0846   -1.7433    0.0000 C   0  0  0  0  0  0  0  0  0  0  0  0
    5.9906   -1.2295    0.0000 C   0  0  0  0  0  0  0  0  0  0  0  0
    6.8547    0.3155    0.0000 C   0  0  0  0  0  0  0  0  0  0  0  0
    8.5868    0.3222    0.0000 C   0  0  0  0  0  0  0  0  0  0  0  0
    9.4547   -0.1745    0.0000 C   0  0  0  0  0  0  0  0  0  0  0  0
   10.3150    1.3288    0.0000 C   0  0  0  0  0  0  0  0  0  0  0  0
    8.5829    1.3222    0.0000 C   0  0  0  0  0  0  0  0  0  0  0  0
   10.3188    0.3288    0.0000 C   0  0  0  0  0  0  0  0  0  0  0  0
    9.4470    1.8255    0.0000 C   0  0  0  0  0  0  0  0  0  0  0  0
   11.1791    1.8322    0.0000 C   0  0  0  0  0  0  0  0  0  0  0  0
    1.5153   -0.3221    0.0000 H   0  0  0  0  0  0  0  0  0  0  0  0
    1.5153   -1.0952    0.0000 H   0  0  0  0  0  0  0  0  0  0  0  0
    2.4339    0.8123    0.0000 H   0  0  0  0  0  0  0  0  0  0  0  0
    1.8294    0.3303    0.0000 H   0  0  0  0  0  0  0  0  0  0  0  0
    1.8294   -1.7476    0.0000 H   0  0  0  0  0  0  0  0  0  0  0  0
    2.4339   -2.2296    0.0000 H   0  0  0  0  0  0  0  0  0  0  0  0
    5.0774    0.9460    0.0000 H   0  0  0  0  0  0  0  0  0  0  0  0
    5.0774   -2.3633    0.0000 H   0  0  0  0  0  0  0  0  0  0  0  0
    6.5264   -1.5416    0.0000 H   0  0  0  0  0  0  0  0  0  0  0  0
    7.7251   -0.8012    0.0000 H   0  0  0  0  0  0  0  0  0  0  0  0
    8.0448    1.6301    0.0000 H   0  0  0  0  0  0  0  0  0  0  0  0
   10.8569    0.0209    0.0000 H   0  0  0  0  0  0  0  0  0  0  0  0
    9.4446    2.4455    0.0000 H   0  0  0  0  0  0  0  0  0  0  0  0
   11.4911    1.2964    0.0000 H   0  0  0  0  0  0  0  0  0  0  0  0
   11.7148    2.1442    0.0000 H   0  0  0  0  0  0  0  0  0  0  0  0
   10.8670    2.3679    0.0000 H   0  0  0  0  0  0  0  0  0  0  0  0
    9.9967   -1.4824    0.0000 H   0  0  0  0  0  0  0  0  0  0  0  0
  1  7  1  0  0  0  0
  1  9  1  0  0  0  0
  2  8  1  0  0  0  0
  2 10  1  0  0  0  0
  3 15  2  0  0  0  0
  4 17  1  0  0  0  0
  4 39  1  0  0  0  0
  5 15  1  0  0  0  0
  5 16  1  0  0  0  0
  5 32  1  0  0  0  0
  6  7  1  0  0  0  0
  6  8  1  0  0  0  0
  6 23  1  0  0  0  0
  6 24  1  0  0  0  0
  7 25  1  0  0  0  0
  7 26  1  0  0  0  0
  8 27  1  0  0  0  0
  8 28  1  0  0  0  0
  9 10  2  0  0  0  0
  9 12  1  0  0  0  0
 10 13  1  0  0  0  0
 11 12  2  0  0  0  0
 11 14  1  0  0  0  0
 11 15  1  0  0  0  0
 12 29  1  0  0  0  0
 13 14  2  0  0  0  0
 13 30  1  0  0  0  0
 14 31  1  0  0  0  0
 16 17  2  0  0  0  0
 16 19  1  0  0  0  0
 17 20  1  0  0  0  0
 18 20  2  0  0  0  0
 18 21  1  0  0  0  0
 18 22  1  0  0  0  0
 19 21  2  0  0  0  0
 19 33  1  0  0  0  0
 20 34  1  0  0  0  0
 21 35  1  0  0  0  0
 22 36  1  0  0  0  0
 22 37  1  0  0  0  0
 22 38  1  0  0  0  0
M  END
> <PUBCHEM_COMPOUND_CID>
17395321

> <PUBCHEM_COMPOUND_CANONICALIZED>
1

> <PUBCHEM_CACTVS_COMPLEXITY>
389

> <PUBCHEM_CACTVS_HBOND_ACCEPTOR>
4

> <PUBCHEM_CACTVS_HBOND_DONOR>
2

> <PUBCHEM_CACTVS_ROTATABLE_BOND>
2

> <PUBCHEM_CACTVS_SUBSKEYS>
AAADceB6OAAAAAAAAAAAAAAAAAAAAAAAAAAwYAAABIAAAAABQAAAHgAQCAAADAyhmAIyxoLABgCIAiVSUACCCAAlIgAIiAEH7MgPJjLWtZuGeSrl1BHa+Ye63BLOKAABAAAAUABQAAIAAACgAAAAAAAAAA==

> <PUBCHEM_IUPAC_OPENEYE_NAME>
N-(2-hydroxy-4-methyl-phenyl)-3,4-dihydro-2H-1,5-benzodioxepine-7-carboxamide

> <PUBCHEM_IUPAC_CAS_NAME>
N-(2-hydroxy-4-methylphenyl)-3,4-dihydro-2H-1,5-benzodioxepin-7-carboxamide

> <PUBCHEM_IUPAC_NAME>
N-(2-hydroxy-4-methylphenyl)-3,4-dihydro-2H-1,5-benzodioxepine-7-carboxamide

> <PUBCHEM_IUPAC_SYSTEMATIC_NAME>
N-(4-methyl-2-oxidanyl-phenyl)-3,4-dihydro-2H-1,5-benzodioxepine-7-carboxamide

> <PUBCHEM_IUPAC_TRADITIONAL_NAME>
N-(2-hydroxy-4-methyl-phenyl)-3,4-dihydro-2H-1,5-benzodioxepin-7-carboxamide

> <PUBCHEM_IUPAC_INCHI>
InChI=1S/C17H17NO4/c1-11-3-5-13(14(19)9-11)18-17(20)12-4-6-15-16(10-12)22-8-2-7-21-15/h3-6,9-10,19H,2,7-8H2,1H3,(H,18,20)

> <PUBCHEM_IUPAC_INCHIKEY>
MBOWHQABFZTWMT-UHFFFAOYSA-N

> <PUBCHEM_XLOGP3>
3.2

> <PUBCHEM_EXACT_MASS>
299.115758

> <PUBCHEM_MOLECULAR_FORMULA>
C17H17NO4

> <PUBCHEM_MOLECULAR_WEIGHT>
299.32118

> <PUBCHEM_OPENEYE_CAN_SMILES>
CC1=CC(=C(C=C1)NC(=O)C2=CC3=C(C=C2)OCCCO3)O

> <PUBCHEM_OPENEYE_ISO_SMILES>
CC1=CC(=C(C=C1)NC(=O)C2=CC3=C(C=C2)OCCCO3)O

> <PUBCHEM_CACTVS_TPSA>
67.8

> <PUBCHEM_MONOISOTOPIC_WEIGHT>
299.115758

> <PUBCHEM_TOTAL_CHARGE>
0

> <PUBCHEM_HEAVY_ATOM_COUNT>
22

> <PUBCHEM_ATOM_DEF_STEREO_COUNT>
0

> <PUBCHEM_ATOM_UDEF_STEREO_COUNT>
0

> <PUBCHEM_BOND_DEF_STEREO_COUNT>
0

> <PUBCHEM_BOND_UDEF_STEREO_COUNT>
0

> <PUBCHEM_ISOTOPIC_ATOM_COUNT>
0

> <PUBCHEM_COMPONENT_COUNT>
1

> <PUBCHEM_CACTVS_TAUTO_COUNT>
20

> <PUBCHEM_COORDINATE_TYPE>
1
5
255

> <PUBCHEM_BONDANNOTATIONS>
10  13  8
11  12  8
11  14  8
13  14  8
16  17  8
16  19  8
17  20  8
18  20  8
18  21  8
19  21  8
9  10  8
9  12  8

$$$$

