585246
  -OEChem-06241222452D

 39 42  0     0  0  0  0  0  0999 V2000
    4.5390    0.5789    0.0000 O   0  0  0  0  0  0  0  0  0  0  0  0
    3.6730    2.0789    0.0000 O   0  0  0  0  0  0  0  0  0  0  0  0
    6.3186    1.6722    0.0000 O   0  0  0  0  0  0  0  0  0  0  0  0
    3.6730   -0.9211    0.0000 C   0  0  0  0  0  0  0  0  0  0  0  0
    4.5092   -2.3694    0.0000 C   0  0  0  0  0  0  0  0  0  0  0  0
    2.8368   -2.3694    0.0000 C   0  0  0  0  0  0  0  0  0  0  0  0
    2.9819   -2.8045    0.0000 C   0  0  0  0  0  0  0  0  0  0  0  0
    4.5092   -1.4039    0.0000 C   0  0  0  0  0  0  0  0  0  0  0  0
    2.8368   -1.4039    0.0000 C   0  0  0  0  0  0  0  0  0  0  0  0
    2.9819   -1.7592    0.0000 C   0  0  0  0  0  0  0  0  0  0  0  0
    3.6730   -2.6722    0.0000 C   0  0  0  0  0  0  0  0  0  0  0  0
    3.8876   -3.2813    0.0000 C   0  0  0  0  0  0  0  0  0  0  0  0
    2.0000   -2.8522    0.0000 C   0  0  0  0  0  0  0  0  0  0  0  0
    3.6730    0.0789    0.0000 C   0  0  0  0  0  0  0  0  0  0  0  0
    4.5390    1.5789    0.0000 C   0  0  0  0  0  0  0  0  0  0  0  0
    5.4050    2.0789    0.0000 C   0  0  0  0  0  0  0  0  0  0  0  0
    5.5096    3.0734    0.0000 C   0  0  0  0  0  0  0  0  0  0  0  0
    6.4877    3.2813    0.0000 C   0  0  0  0  0  0  0  0  0  0  0  0
    6.9877    2.4153    0.0000 C   0  0  0  0  0  0  0  0  0  0  0  0
    2.8478   -3.4098    0.0000 H   0  0  0  0  0  0  0  0  0  0  0  0
    2.8912   -2.9870    0.0000 H   0  0  0  0  0  0  0  0  0  0  0  0
    5.1016   -2.5522    0.0000 H   0  0  0  0  0  0  0  0  0  0  0  0
    5.1198   -1.5116    0.0000 H   0  0  0  0  0  0  0  0  0  0  0  0
    4.7212   -0.8213    0.0000 H   0  0  0  0  0  0  0  0  0  0  0  0
    2.6247   -0.8213    0.0000 H   0  0  0  0  0  0  0  0  0  0  0  0
    2.2262   -1.5116    0.0000 H   0  0  0  0  0  0  0  0  0  0  0  0
    2.6383   -1.2432    0.0000 H   0  0  0  0  0  0  0  0  0  0  0  0
    2.3885   -1.9388    0.0000 H   0  0  0  0  0  0  0  0  0  0  0  0
    3.5782   -3.8186    0.0000 H   0  0  0  0  0  0  0  0  0  0  0  0
    4.4127   -3.6109    0.0000 H   0  0  0  0  0  0  0  0  0  0  0  0
    1.5188   -2.4613    0.0000 H   0  0  0  0  0  0  0  0  0  0  0  0
    1.8068   -3.4413    0.0000 H   0  0  0  0  0  0  0  0  0  0  0  0
    3.3030   -3.1697    0.0000 H   0  0  0  0  0  0  0  0  0  0  0  0
    4.0430   -3.1697    0.0000 H   0  0  0  0  0  0  0  0  0  0  0  0
    3.4609    0.6615    0.0000 H   0  0  0  0  0  0  0  0  0  0  0  0
    3.0624   -0.0288    0.0000 H   0  0  0  0  0  0  0  0  0  0  0  0
    5.0488    3.4883    0.0000 H   0  0  0  0  0  0  0  0  0  0  0  0
    6.7399    3.8477    0.0000 H   0  0  0  0  0  0  0  0  0  0  0  0
    7.6043    2.3505    0.0000 H   0  0  0  0  0  0  0  0  0  0  0  0
  1 14  1  0  0  0  0
  1 15  1  0  0  0  0
  2 15  2  0  0  0  0
  3 16  1  0  0  0  0
  3 19  1  0  0  0  0
  4  8  1  0  0  0  0
  4  9  1  0  0  0  0
  4 10  1  0  0  0  0
  4 14  1  0  0  0  0
  5  8  1  0  0  0  0
  5 11  1  0  0  0  0
  5 12  1  0  0  0  0
  5 22  1  0  0  0  0
  6  9  1  0  0  0  0
  6 11  1  0  0  0  0
  6 13  1  0  0  0  0
  6 21  1  0  0  0  0
  7 10  1  0  0  0  0
  7 12  1  0  0  0  0
  7 13  1  0  0  0  0
  7 20  1  0  0  0  0
  8 23  1  0  0  0  0
  8 24  1  0  0  0  0
  9 25  1  0  0  0  0
  9 26  1  0  0  0  0
 10 27  1  0  0  0  0
 10 28  1  0  0  0  0
 11 33  1  0  0  0  0
 11 34  1  0  0  0  0
 12 29  1  0  0  0  0
 12 30  1  0  0  0  0
 13 31  1  0  0  0  0
 13 32  1  0  0  0  0
 14 35  1  0  0  0  0
 14 36  1  0  0  0  0
 15 16  1  0  0  0  0
 16 17  2  0  0  0  0
 17 18  1  0  0  0  0
 17 37  1  0  0  0  0
 18 19  2  0  0  0  0
 18 38  1  0  0  0  0
 19 39  1  0  0  0  0
M  END
> <PUBCHEM_COMPOUND_CID>
585246

> <PUBCHEM_COMPOUND_CANONICALIZED>
1

> <PUBCHEM_CACTVS_COMPLEXITY>
335

> <PUBCHEM_CACTVS_HBOND_ACCEPTOR>
3

> <PUBCHEM_CACTVS_HBOND_DONOR>
0

> <PUBCHEM_CACTVS_ROTATABLE_BOND>
4

> <PUBCHEM_CACTVS_SUBSKEYS>
AAADceB4MAAAAAAAAAAAAAAAAAAAASAAAAAwYMGAAAAAAAABgAAAGgAAAAAADwSgkAIwDIAABECIAKjSiAICCAAkIAAIiAFGCMgNJjKENR6CGSCkwBEKqYeI5ugPAAAAAAAAAAAAAAQAAAAAAAAAAAAAAA==

> <PUBCHEM_IUPAC_OPENEYE_NAME>
1-adamantylmethyl furan-2-carboxylate

> <PUBCHEM_IUPAC_CAS_NAME>
2-furancarboxylic acid 1-adamantylmethyl ester

> <PUBCHEM_IUPAC_NAME>
1-adamantylmethyl furan-2-carboxylate

> <PUBCHEM_IUPAC_SYSTEMATIC_NAME>
1-adamantylmethyl furan-2-carboxylate

> <PUBCHEM_IUPAC_TRADITIONAL_NAME>
furan-2-carboxylic acid 1-adamantylmethyl ester

> <PUBCHEM_IUPAC_INCHI>
InChI=1S/C16H20O3/c17-15(14-2-1-3-18-14)19-10-16-7-11-4-12(8-16)6-13(5-11)9-16/h1-3,11-13H,4-10H2

> <PUBCHEM_IUPAC_INCHIKEY>
ADNYGNDWWCWHPK-UHFFFAOYSA-N

> <PUBCHEM_XLOGP3>
4.1

> <PUBCHEM_EXACT_MASS>
260.141245

> <PUBCHEM_MOLECULAR_FORMULA>
C16H20O3

> <PUBCHEM_MOLECULAR_WEIGHT>
260.3282

> <PUBCHEM_OPENEYE_CAN_SMILES>
C1C2CC3CC1CC(C2)(C3)COC(=O)C4=CC=CO4

> <PUBCHEM_OPENEYE_ISO_SMILES>
C1C2CC3CC1CC(C2)(C3)COC(=O)C4=CC=CO4

> <PUBCHEM_CACTVS_TPSA>
39.4

> <PUBCHEM_MONOISOTOPIC_WEIGHT>
260.141245

> <PUBCHEM_TOTAL_CHARGE>
0

> <PUBCHEM_HEAVY_ATOM_COUNT>
19

> <PUBCHEM_ATOM_DEF_STEREO_COUNT>
0

> <PUBCHEM_ATOM_UDEF_STEREO_COUNT>
0

> <PUBCHEM_BOND_DEF_STEREO_COUNT>
0

> <PUBCHEM_BOND_UDEF_STEREO_COUNT>
0

> <PUBCHEM_ISOTOPIC_ATOM_COUNT>
0

> <PUBCHEM_COMPONENT_COUNT>
1

> <PUBCHEM_CACTVS_TAUTO_COUNT>
1

> <PUBCHEM_COORDINATE_TYPE>
1
5
255

> <PUBCHEM_BONDANNOTATIONS>
16  17  8
17  18  8
18  19  8
3  16  8
3  19  8

$$$$

