13823
  -OEChem-06241222402D

 47 44  0     0  0  0  0  0  0999 V2000
    3.5823    0.2224    0.0000 Sn  0  0  0  0  0  0  0  0  0  0  0  0
    5.3144    0.2224    0.0000 Sn  0  3  0  0  0  0  0  0  0  0  0  0
    4.4483    0.7224    0.0000 S   0  5  0  0  0  0  0  0  0  0  0  0
    3.3744    1.2006    0.0000 C   0  0  0  0  0  0  0  0  0  0  0  0
    3.1756   -0.6911    0.0000 C   0  0  0  0  0  0  0  0  0  0  0  0
    2.5878    0.3270    0.0000 C   0  0  0  0  0  0  0  0  0  0  0  0
    4.8144   -0.6436    0.0000 C   0  0  0  0  0  0  0  0  0  0  0  0
    5.8144    1.0885    0.0000 C   0  0  0  0  0  0  0  0  0  0  0  0
    6.1804   -0.2776    0.0000 C   0  0  0  0  0  0  0  0  0  0  0  0
    2.4233    1.5096    0.0000 C   0  0  0  0  0  0  0  0  0  0  0  0
    3.7634   -1.5001    0.0000 C   0  0  0  0  0  0  0  0  0  0  0  0
    2.0000   -0.4820    0.0000 C   0  0  0  0  0  0  0  0  0  0  0  0
    5.3144   -1.5096    0.0000 C   0  0  0  0  0  0  0  0  0  0  0  0
    6.8144    1.0885    0.0000 C   0  0  0  0  0  0  0  0  0  0  0  0
    7.0464    0.2224    0.0000 C   0  0  0  0  0  0  0  0  0  0  0  0
    4.0431   -0.1924    0.0000 H   0  0  0  0  0  0  0  0  0  0  0  0
    4.4483    1.3424    0.0000 H   0  0  0  0  0  0  0  0  0  0  0  0
    3.4607    1.8146    0.0000 H   0  0  0  0  0  0  0  0  0  0  0  0
    3.9940    1.2222    0.0000 H   0  0  0  0  0  0  0  0  0  0  0  0
    2.7449   -1.1371    0.0000 H   0  0  0  0  0  0  0  0  0  0  0  0
    2.6616   -0.3444    0.0000 H   0  0  0  0  0  0  0  0  0  0  0  0
    2.0305    0.5988    0.0000 H   0  0  0  0  0  0  0  0  0  0  0  0
    2.7587    0.9230    0.0000 H   0  0  0  0  0  0  0  0  0  0  0  0
    4.3394   -1.0421    0.0000 H   0  0  0  0  0  0  0  0  0  0  0  0
    4.3394   -0.2451    0.0000 H   0  0  0  0  0  0  0  0  0  0  0  0
    5.2317    1.3005    0.0000 H   0  0  0  0  0  0  0  0  0  0  0  0
    5.9220    1.6990    0.0000 H   0  0  0  0  0  0  0  0  0  0  0  0
    6.5789   -0.7525    0.0000 H   0  0  0  0  0  0  0  0  0  0  0  0
    5.7819   -0.7525    0.0000 H   0  0  0  0  0  0  0  0  0  0  0  0
    2.2317    0.9200    0.0000 H   0  0  0  0  0  0  0  0  0  0  0  0
    1.8337    1.7012    0.0000 H   0  0  0  0  0  0  0  0  0  0  0  0
    2.6149    2.0993    0.0000 H   0  0  0  0  0  0  0  0  0  0  0  0
    4.2649   -1.1357    0.0000 H   0  0  0  0  0  0  0  0  0  0  0  0
    4.1278   -2.0017    0.0000 H   0  0  0  0  0  0  0  0  0  0  0  0
    3.2618   -1.8645    0.0000 H   0  0  0  0  0  0  0  0  0  0  0  0
    2.5016   -0.8465    0.0000 H   0  0  0  0  0  0  0  0  0  0  0  0
    1.6356   -0.9836    0.0000 H   0  0  0  0  0  0  0  0  0  0  0  0
    1.4984   -0.1176    0.0000 H   0  0  0  0  0  0  0  0  0  0  0  0
    5.8513   -1.1996    0.0000 H   0  0  0  0  0  0  0  0  0  0  0  0
    5.6244   -2.0465    0.0000 H   0  0  0  0  0  0  0  0  0  0  0  0
    4.7774   -1.8196    0.0000 H   0  0  0  0  0  0  0  0  0  0  0  0
    6.8144    1.7085    0.0000 H   0  0  0  0  0  0  0  0  0  0  0  0
    7.4344    1.0885    0.0000 H   0  0  0  0  0  0  0  0  0  0  0  0
    6.8144    0.4685    0.0000 H   0  0  0  0  0  0  0  0  0  0  0  0
    6.7364    0.7594    0.0000 H   0  0  0  0  0  0  0  0  0  0  0  0
    7.5833    0.5324    0.0000 H   0  0  0  0  0  0  0  0  0  0  0  0
    7.3564   -0.3145    0.0000 H   0  0  0  0  0  0  0  0  0  0  0  0
  1  4  1  0  0  0  0
  1  5  1  0  0  0  0
  1  6  1  0  0  0  0
  1 16  1  0  0  0  0
  2  7  1  0  0  0  0
  2  8  1  0  0  0  0
  2  9  1  0  0  0  0
  3 17  1  0  0  0  0
  4 10  1  0  0  0  0
  4 18  1  0  0  0  0
  4 19  1  0  0  0  0
  5 11  1  0  0  0  0
  5 20  1  0  0  0  0
  5 21  1  0  0  0  0
  6 12  1  0  0  0  0
  6 22  1  0  0  0  0
  6 23  1  0  0  0  0
  7 13  1  0  0  0  0
  7 24  1  0  0  0  0
  7 25  1  0  0  0  0
  8 14  1  0  0  0  0
  8 26  1  0  0  0  0
  8 27  1  0  0  0  0
  9 15  1  0  0  0  0
  9 28  1  0  0  0  0
  9 29  1  0  0  0  0
 10 30  1  0  0  0  0
 10 31  1  0  0  0  0
 10 32  1  0  0  0  0
 11 33  1  0  0  0  0
 11 34  1  0  0  0  0
 11 35  1  0  0  0  0
 12 36  1  0  0  0  0
 12 37  1  0  0  0  0
 12 38  1  0  0  0  0
 13 39  1  0  0  0  0
 13 40  1  0  0  0  0
 13 41  1  0  0  0  0
 14 42  1  0  0  0  0
 14 43  1  0  0  0  0
 14 44  1  0  0  0  0
 15 45  1  0  0  0  0
 15 46  1  0  0  0  0
 15 47  1  0  0  0  0
M  CHG  2   2   1   3  -1
M  END
> <PUBCHEM_COMPOUND_CID>
13823

> <PUBCHEM_COMPOUND_CANONICALIZED>
1

> <PUBCHEM_CACTVS_COMPLEXITY>
80.6

> <PUBCHEM_CACTVS_HBOND_ACCEPTOR>
1

> <PUBCHEM_CACTVS_HBOND_DONOR>
1

> <PUBCHEM_CACTVS_ROTATABLE_BOND>
6

> <PUBCHEM_CACTVS_SUBSKEYS>
AAADcfBwAABAAAAAAACAAAAAAAAAAAAAAAAAAAAAAAAAAAAAAAAAGAAAAAAAAACAAAACAAAAAAAAAAAAAAAAAAAAAAAAAAAAAAAAAAAAAAAAAAAAAAAAAAAAAAAAAAAAAAAAAAAAAAAAAAAAAAAAAAAAAA==

> <PUBCHEM_IUPAC_OPENEYE_NAME>
sulfanide; triethylstannane; triethylstannanylium

> <PUBCHEM_IUPAC_CAS_NAME>
sulfanide; triethylstannane; triethylstannanylium

> <PUBCHEM_IUPAC_NAME>
sulfanide; triethylstannane; triethylstannanylium

> <PUBCHEM_IUPAC_SYSTEMATIC_NAME>
sulfanide; triethylstannane; triethylstannanylium

> <PUBCHEM_IUPAC_TRADITIONAL_NAME>
triethylstannane; triethylstannanylium; bisulfide

> <PUBCHEM_IUPAC_INCHI>
InChI=1S/6C2H5.H2S.2Sn.H/c6*1-2;;;;/h6*1H2,2H3;1H2;;;/q;;;;;;;;+1;/p-1

> <PUBCHEM_IUPAC_INCHIKEY>
XPHWRBREOFMDHF-UHFFFAOYSA-M

> <PUBCHEM_EXACT_MASS>
446.02627

> <PUBCHEM_MOLECULAR_FORMULA>
C12H32SSn2

> <PUBCHEM_MOLECULAR_WEIGHT>
445.86748

> <PUBCHEM_OPENEYE_CAN_SMILES>
CC[SnH](CC)CC.CC[Sn+](CC)CC.[SH-]

> <PUBCHEM_OPENEYE_ISO_SMILES>
CC[SnH](CC)CC.CC[Sn+](CC)CC.[SH-]

> <PUBCHEM_CACTVS_TPSA>
1

> <PUBCHEM_MONOISOTOPIC_WEIGHT>
448.026861

> <PUBCHEM_TOTAL_CHARGE>
0

> <PUBCHEM_HEAVY_ATOM_COUNT>
15

> <PUBCHEM_ATOM_DEF_STEREO_COUNT>
0

> <PUBCHEM_ATOM_UDEF_STEREO_COUNT>
0

> <PUBCHEM_BOND_DEF_STEREO_COUNT>
0

> <PUBCHEM_BOND_UDEF_STEREO_COUNT>
0

> <PUBCHEM_ISOTOPIC_ATOM_COUNT>
0

> <PUBCHEM_COMPONENT_COUNT>
3

> <PUBCHEM_CACTVS_TAUTO_COUNT>
1

> <PUBCHEM_NONSTANDARDBOND>
1  3  6
2  3  6

> <PUBCHEM_COORDINATE_TYPE>
1
5
255

> <PUBCHEM_BONDANNOTATIONS>
1  3  4
2  3  4

$$$$

