854314
  -OEChem-06241222472D

 23 24  0     0  0  0  0  0  0999 V2000
    3.7891    1.6284    0.0000 S   0  0  0  0  0  0  0  0  0  0  0  0
    2.8660   -1.9594    0.0000 S   0  0  0  0  0  0  0  0  0  0  0  0
    4.5981   -1.9594    0.0000 N   0  0  0  0  0  0  0  0  0  0  0  0
    2.0000    0.5406    0.0000 N   0  0  0  0  0  0  0  0  0  0  0  0
    4.5981    0.0406    0.0000 C   0  0  0  0  0  0  0  0  0  0  0  0
    5.4641   -1.4594    0.0000 C   0  0  0  0  0  0  0  0  0  0  0  0
    5.4641   -0.4594    0.0000 C   0  0  0  0  0  0  0  0  0  0  0  0
    4.5981    1.0406    0.0000 C   0  0  0  0  0  0  0  0  0  0  0  0
    3.7320   -0.4594    0.0000 C   0  0  0  0  0  0  0  0  0  0  0  0
    3.7320   -1.4594    0.0000 C   0  0  0  0  0  0  0  0  0  0  0  0
    6.3301   -1.9594    0.0000 C   0  0  0  0  0  0  0  0  0  0  0  0
    5.4071    1.6284    0.0000 C   0  0  0  0  0  0  0  0  0  0  0  0
    5.0981    2.5794    0.0000 C   0  0  0  0  0  0  0  0  0  0  0  0
    4.0981    2.5794    0.0000 C   0  0  0  0  0  0  0  0  0  0  0  0
    2.8660    0.0406    0.0000 C   0  0  0  0  0  0  0  0  0  0  0  0
    6.0010   -0.1494    0.0000 H   0  0  0  0  0  0  0  0  0  0  0  0
    4.5981   -2.5794    0.0000 H   0  0  0  0  0  0  0  0  0  0  0  0
    6.0201   -2.4964    0.0000 H   0  0  0  0  0  0  0  0  0  0  0  0
    6.8671   -2.2694    0.0000 H   0  0  0  0  0  0  0  0  0  0  0  0
    6.6401   -1.4225    0.0000 H   0  0  0  0  0  0  0  0  0  0  0  0
    5.9967    1.4368    0.0000 H   0  0  0  0  0  0  0  0  0  0  0  0
    5.4625    3.0810    0.0000 H   0  0  0  0  0  0  0  0  0  0  0  0
    3.7336    3.0810    0.0000 H   0  0  0  0  0  0  0  0  0  0  0  0
  1  8  1  0  0  0  0
  1 14  1  0  0  0  0
  2 10  2  0  0  0  0
  3  6  1  0  0  0  0
  3 10  1  0  0  0  0
  3 17  1  0  0  0  0
  4 15  3  0  0  0  0
  5  7  1  0  0  0  0
  5  8  1  0  0  0  0
  5  9  2  0  0  0  0
  6  7  2  0  0  0  0
  6 11  1  0  0  0  0
  7 16  1  0  0  0  0
  8 12  2  0  0  0  0
  9 10  1  0  0  0  0
  9 15  1  0  0  0  0
 11 18  1  0  0  0  0
 11 19  1  0  0  0  0
 11 20  1  0  0  0  0
 12 13  1  0  0  0  0
 12 21  1  0  0  0  0
 13 14  2  0  0  0  0
 13 22  1  0  0  0  0
 14 23  1  0  0  0  0
M  END
> <PUBCHEM_COMPOUND_CID>
854314

> <PUBCHEM_COMPOUND_CANONICALIZED>
1

> <PUBCHEM_CACTVS_COMPLEXITY>
412

> <PUBCHEM_CACTVS_HBOND_ACCEPTOR>
3

> <PUBCHEM_CACTVS_HBOND_DONOR>
1

> <PUBCHEM_CACTVS_ROTATABLE_BOND>
1

> <PUBCHEM_CACTVS_SUBSKEYS>
AAADccBzAABgAAAAAAAAAAAAAAAAASAAAAAgAAAAAAAAAAABgAAAHAQQAAAADAiFUACyAYLAAAiUBiRCQACjAIAgChlIiBgAAIgIoCKgERCEAAAgkACoiAcAAAAAAAAAAAAAAAAAAAAAAAAAAAAAAAAAAA==

> <PUBCHEM_IUPAC_OPENEYE_NAME>
6-methyl-4-(2-thienyl)-2-thioxo-1H-pyridine-3-carbonitrile

> <PUBCHEM_IUPAC_CAS_NAME>
6-methyl-2-sulfanylidene-4-thiophen-2-yl-1H-pyridine-3-carbonitrile

> <PUBCHEM_IUPAC_NAME>
6-methyl-2-sulfanylidene-4-thiophen-2-yl-1H-pyridine-3-carbonitrile

> <PUBCHEM_IUPAC_SYSTEMATIC_NAME>
6-methyl-2-sulfanylidene-4-thiophen-2-yl-1H-pyridine-3-carbonitrile

> <PUBCHEM_IUPAC_TRADITIONAL_NAME>
6-methyl-4-(2-thienyl)-2-thioxo-1H-pyridine-3-carbonitrile

> <PUBCHEM_IUPAC_INCHI>
InChI=1S/C11H8N2S2/c1-7-5-8(10-3-2-4-15-10)9(6-12)11(14)13-7/h2-5H,1H3,(H,13,14)

> <PUBCHEM_IUPAC_INCHIKEY>
AJMSNHGKNZFNOS-UHFFFAOYSA-N

> <PUBCHEM_XLOGP3_AA>
2

> <PUBCHEM_EXACT_MASS>
232.01289

> <PUBCHEM_MOLECULAR_FORMULA>
C11H8N2S2

> <PUBCHEM_MOLECULAR_WEIGHT>
232.32462

> <PUBCHEM_OPENEYE_CAN_SMILES>
CC1=CC(=C(C(=S)N1)C#N)C2=CC=CS2

> <PUBCHEM_OPENEYE_ISO_SMILES>
CC1=CC(=C(C(=S)N1)C#N)C2=CC=CS2

> <PUBCHEM_CACTVS_TPSA>
96.2

> <PUBCHEM_MONOISOTOPIC_WEIGHT>
232.01289

> <PUBCHEM_TOTAL_CHARGE>
0

> <PUBCHEM_HEAVY_ATOM_COUNT>
15

> <PUBCHEM_ATOM_DEF_STEREO_COUNT>
0

> <PUBCHEM_ATOM_UDEF_STEREO_COUNT>
0

> <PUBCHEM_BOND_DEF_STEREO_COUNT>
0

> <PUBCHEM_BOND_UDEF_STEREO_COUNT>
0

> <PUBCHEM_ISOTOPIC_ATOM_COUNT>
0

> <PUBCHEM_COMPONENT_COUNT>
1

> <PUBCHEM_CACTVS_TAUTO_COUNT>
5

> <PUBCHEM_COORDINATE_TYPE>
1
5
255

> <PUBCHEM_BONDANNOTATIONS>
1  14  8
1  8  8
12  13  8
13  14  8
3  10  8
3  6  8
5  7  8
5  9  8
6  7  8
8  12  8
9  10  8

$$$$

