12055
  -OEChem-06261206272D

 26 26  0     0  0  0  0  0  0999 V2000
    4.2690    2.6550    0.0000 As  0  0  0  0  0  0  0  0  0  0  0  0
    4.2690    3.6550    0.0000 O   0  0  0  0  0  0  0  0  0  0  0  0
    5.2690    2.6550    0.0000 O   0  0  0  0  0  0  0  0  0  0  0  0
    3.2690    2.6550    0.0000 O   0  0  0  0  0  0  0  0  0  0  0  0
    4.2690   -3.3450    0.0000 O   0  0  0  0  0  0  0  0  0  0  0  0
    4.2690   -1.3450    0.0000 N   0  0  0  0  0  0  0  0  0  0  0  0
    2.5369   -3.3450    0.0000 N   0  0  0  0  0  0  0  0  0  0  0  0
    4.2690    1.6550    0.0000 C   0  0  0  0  0  0  0  0  0  0  0  0
    4.2690   -0.3450    0.0000 C   0  0  0  0  0  0  0  0  0  0  0  0
    3.4030    1.1550    0.0000 C   0  0  0  0  0  0  0  0  0  0  0  0
    5.1350    1.1550    0.0000 C   0  0  0  0  0  0  0  0  0  0  0  0
    3.4030    0.1550    0.0000 C   0  0  0  0  0  0  0  0  0  0  0  0
    5.1350    0.1550    0.0000 C   0  0  0  0  0  0  0  0  0  0  0  0
    3.4030   -1.8450    0.0000 C   0  0  0  0  0  0  0  0  0  0  0  0
    3.4030   -2.8450    0.0000 C   0  0  0  0  0  0  0  0  0  0  0  0
    2.8660    1.4650    0.0000 H   0  0  0  0  0  0  0  0  0  0  0  0
    5.6720    1.4650    0.0000 H   0  0  0  0  0  0  0  0  0  0  0  0
    2.8660   -0.1550    0.0000 H   0  0  0  0  0  0  0  0  0  0  0  0
    5.6720   -0.1550    0.0000 H   0  0  0  0  0  0  0  0  0  0  0  0
    4.8059   -1.6550    0.0000 H   0  0  0  0  0  0  0  0  0  0  0  0
    3.1909   -1.2624    0.0000 H   0  0  0  0  0  0  0  0  0  0  0  0
    2.7924   -1.9527    0.0000 H   0  0  0  0  0  0  0  0  0  0  0  0
    4.8059    3.9650    0.0000 H   0  0  0  0  0  0  0  0  0  0  0  0
    5.5790    3.1919    0.0000 H   0  0  0  0  0  0  0  0  0  0  0  0
    2.5369   -3.9650    0.0000 H   0  0  0  0  0  0  0  0  0  0  0  0
    2.0000   -3.0350    0.0000 H   0  0  0  0  0  0  0  0  0  0  0  0
  1  2  1  0  0  0  0
  1  3  1  0  0  0  0
  1  4  2  0  0  0  0
  1  8  1  0  0  0  0
  2 23  1  0  0  0  0
  3 24  1  0  0  0  0
  5 15  2  0  0  0  0
  6  9  1  0  0  0  0
  6 14  1  0  0  0  0
  6 20  1  0  0  0  0
  7 15  1  0  0  0  0
  7 25  1  0  0  0  0
  7 26  1  0  0  0  0
  8 10  2  0  0  0  0
  8 11  1  0  0  0  0
  9 12  2  0  0  0  0
  9 13  1  0  0  0  0
 10 12  1  0  0  0  0
 10 16  1  0  0  0  0
 11 13  2  0  0  0  0
 11 17  1  0  0  0  0
 12 18  1  0  0  0  0
 13 19  1  0  0  0  0
 14 15  1  0  0  0  0
 14 21  1  0  0  0  0
 14 22  1  0  0  0  0
M  END
> <PUBCHEM_COMPOUND_CID>
12055

> <PUBCHEM_COMPOUND_CANONICALIZED>
1

> <PUBCHEM_CACTVS_COMPLEXITY>
270

> <PUBCHEM_CACTVS_HBOND_ACCEPTOR>
5

> <PUBCHEM_CACTVS_HBOND_DONOR>
4

> <PUBCHEM_CACTVS_ROTATABLE_BOND>
4

> <PUBCHEM_CACTVS_SUBSKEYS>
AAADccBzOAAAAAAAQAAAAAAAAAAAAAAAAAAwAAAAAAAAAAABAAAAHgEQCAAACAjBkAQwwILAAACIACVSUACCAAAhAgCIjICIZIgIYCLAkbGUIBhgkADIyAcQAAAAAAAAAAAAAAAAAAAAAAAAAAAAAAAAAA==

> <PUBCHEM_IUPAC_OPENEYE_NAME>
[4-[(2-amino-2-oxo-ethyl)amino]phenyl]arsonic acid

> <PUBCHEM_IUPAC_CAS_NAME>
[4-[(2-amino-2-oxoethyl)amino]phenyl]arsonic acid

> <PUBCHEM_IUPAC_NAME>
[4-[(2-amino-2-oxoethyl)amino]phenyl]arsonic acid

> <PUBCHEM_IUPAC_SYSTEMATIC_NAME>
[4-[(2-azanyl-2-oxidanylidene-ethyl)amino]phenyl]arsonic acid

> <PUBCHEM_IUPAC_TRADITIONAL_NAME>
[4-[(2-amino-2-keto-ethyl)amino]phenyl]arsonic acid

> <PUBCHEM_IUPAC_INCHI>
InChI=1S/C8H11AsN2O4/c10-8(12)5-11-7-3-1-6(2-4-7)9(13,14)15/h1-4,11H,5H2,(H2,10,12)(H2,13,14,15)

> <PUBCHEM_IUPAC_INCHIKEY>
UULSDCUWMKTMND-UHFFFAOYSA-N

> <PUBCHEM_EXACT_MASS>
273.993478

> <PUBCHEM_MOLECULAR_FORMULA>
C8H11AsN2O4

> <PUBCHEM_MOLECULAR_WEIGHT>
274.10554

> <PUBCHEM_OPENEYE_CAN_SMILES>
C1=CC(=CC=C1NCC(=O)N)[As](=O)(O)O

> <PUBCHEM_OPENEYE_ISO_SMILES>
C1=CC(=CC=C1NCC(=O)N)[As](=O)(O)O

> <PUBCHEM_CACTVS_TPSA>
113

> <PUBCHEM_MONOISOTOPIC_WEIGHT>
273.993478

> <PUBCHEM_TOTAL_CHARGE>
0

> <PUBCHEM_HEAVY_ATOM_COUNT>
15

> <PUBCHEM_ATOM_DEF_STEREO_COUNT>
0

> <PUBCHEM_ATOM_UDEF_STEREO_COUNT>
0

> <PUBCHEM_BOND_DEF_STEREO_COUNT>
0

> <PUBCHEM_BOND_UDEF_STEREO_COUNT>
0

> <PUBCHEM_ISOTOPIC_ATOM_COUNT>
0

> <PUBCHEM_COMPONENT_COUNT>
1

> <PUBCHEM_CACTVS_TAUTO_COUNT>
4

> <PUBCHEM_COORDINATE_TYPE>
1
5
255

> <PUBCHEM_BONDANNOTATIONS>
10  12  8
11  13  8
8  10  8
8  11  8
9  12  8
9  13  8

$$$$

