854115
  -OEChem-06241222472D

 40 42  0     0  0  0  0  0  0999 V2000
    8.9942   -1.2673    0.0000 O   0  0  0  0  0  0  0  0  0  0  0  0
    5.4641   -1.2915    0.0000 O   0  0  0  0  0  0  0  0  0  0  0  0
   10.7263   -1.2673    0.0000 O   0  0  0  0  0  0  0  0  0  0  0  0
    8.1282    0.2327    0.0000 C   0  0  0  0  0  0  0  0  0  0  0  0
    8.1282   -0.7673    0.0000 C   0  0  0  0  0  0  0  0  0  0  0  0
    8.9942    0.7327    0.0000 C   0  0  0  0  0  0  0  0  0  0  0  0
    7.2342   -1.3020    0.0000 C   0  0  0  0  0  0  0  0  0  0  0  0
    9.8602    0.2327    0.0000 C   0  0  0  0  0  0  0  0  0  0  0  0
    6.3282   -0.7881    0.0000 C   0  0  0  0  0  0  0  0  0  0  0  0
    7.2342    0.7673    0.0000 C   0  0  0  0  0  0  0  0  0  0  0  0
    6.3282    0.2535    0.0000 C   0  0  0  0  0  0  0  0  0  0  0  0
    8.9781    1.7742    0.0000 C   0  0  0  0  0  0  0  0  0  0  0  0
    9.8602   -0.7673    0.0000 C   0  0  0  0  0  0  0  0  0  0  0  0
    7.2458   -2.3019    0.0000 C   0  0  0  0  0  0  0  0  0  0  0  0
   10.7702    0.7395    0.0000 C   0  0  0  0  0  0  0  0  0  0  0  0
    9.8762    2.3019    0.0000 C   0  0  0  0  0  0  0  0  0  0  0  0
   10.7783    1.7811    0.0000 C   0  0  0  0  0  0  0  0  0  0  0  0
    4.5961   -0.7948    0.0000 C   0  0  0  0  0  0  0  0  0  0  0  0
    3.7320   -1.2982    0.0000 C   0  0  0  0  0  0  0  0  0  0  0  0
    2.8641   -0.8015    0.0000 C   0  0  0  0  0  0  0  0  0  0  0  0
    2.0000   -1.3048    0.0000 C   0  0  0  0  0  0  0  0  0  0  0  0
    2.8602    0.1985    0.0000 C   0  0  0  0  0  0  0  0  0  0  0  0
    7.2414    1.3873    0.0000 H   0  0  0  0  0  0  0  0  0  0  0  0
    5.7924    0.5655    0.0000 H   0  0  0  0  0  0  0  0  0  0  0  0
    8.4377    2.0779    0.0000 H   0  0  0  0  0  0  0  0  0  0  0  0
    6.6258   -2.3091    0.0000 H   0  0  0  0  0  0  0  0  0  0  0  0
    7.2530   -2.9219    0.0000 H   0  0  0  0  0  0  0  0  0  0  0  0
    7.8658   -2.2948    0.0000 H   0  0  0  0  0  0  0  0  0  0  0  0
   11.3035    0.4233    0.0000 H   0  0  0  0  0  0  0  0  0  0  0  0
    9.8738    2.9219    0.0000 H   0  0  0  0  0  0  0  0  0  0  0  0
   11.3164    2.0890    0.0000 H   0  0  0  0  0  0  0  0  0  0  0  0
    4.9928   -0.3183    0.0000 H   0  0  0  0  0  0  0  0  0  0  0  0
    4.1958   -0.3214    0.0000 H   0  0  0  0  0  0  0  0  0  0  0  0
    3.7344   -1.9182    0.0000 H   0  0  0  0  0  0  0  0  0  0  0  0
    3.4802    0.2009    0.0000 H   0  0  0  0  0  0  0  0  0  0  0  0
    1.6879   -0.7691    0.0000 H   0  0  0  0  0  0  0  0  0  0  0  0
    1.4643   -1.6169    0.0000 H   0  0  0  0  0  0  0  0  0  0  0  0
    2.3121   -1.8406    0.0000 H   0  0  0  0  0  0  0  0  0  0  0  0
    2.8578    0.8185    0.0000 H   0  0  0  0  0  0  0  0  0  0  0  0
    2.2402    0.1961    0.0000 H   0  0  0  0  0  0  0  0  0  0  0  0
  1  5  1  0  0  0  0
  1 13  1  0  0  0  0
  2  9  1  0  0  0  0
  2 18  1  0  0  0  0
  3 13  2  0  0  0  0
  4  5  2  0  0  0  0
  4  6  1  0  0  0  0
  4 10  1  0  0  0  0
  5  7  1  0  0  0  0
  6  8  1  0  0  0  0
  6 12  2  0  0  0  0
  7  9  2  0  0  0  0
  7 14  1  0  0  0  0
  8 13  1  0  0  0  0
  8 15  2  0  0  0  0
  9 11  1  0  0  0  0
 10 11  2  0  0  0  0
 10 23  1  0  0  0  0
 11 24  1  0  0  0  0
 12 16  1  0  0  0  0
 12 25  1  0  0  0  0
 14 26  1  0  0  0  0
 14 27  1  0  0  0  0
 14 28  1  0  0  0  0
 15 17  1  0  0  0  0
 15 29  1  0  0  0  0
 16 17  2  0  0  0  0
 16 30  1  0  0  0  0
 17 31  1  0  0  0  0
 18 19  1  0  0  0  0
 18 32  1  0  0  0  0
 18 33  1  0  0  0  0
 19 20  2  0  0  0  0
 19 34  1  0  0  0  0
 20 21  1  0  0  0  0
 20 22  1  0  0  0  0
 21 36  1  0  0  0  0
 21 37  1  0  0  0  0
 21 38  1  0  0  0  0
 22 35  1  0  0  0  0
 22 39  1  0  0  0  0
 22 40  1  0  0  0  0
M  END
> <PUBCHEM_COMPOUND_CID>
854115

> <PUBCHEM_COMPOUND_CANONICALIZED>
1

> <PUBCHEM_CACTVS_COMPLEXITY>
438

> <PUBCHEM_CACTVS_HBOND_ACCEPTOR>
3

> <PUBCHEM_CACTVS_HBOND_DONOR>
0

> <PUBCHEM_CACTVS_ROTATABLE_BOND>
3

> <PUBCHEM_CACTVS_SUBSKEYS>
AAADceB4MAAAAAAAAAAAAAAAAAAAAAAAAAA0YIAAAAAAAACRQAAAGgAAAAAADASgmAIyDoAABACIAiDSCAACCAAkIAAIiAEGCMgMJzKENRqCOyClwBUIqYeI7PzOoAACCAAYAABAAAQQADAAAAAAAAAAAA==

> <PUBCHEM_IUPAC_OPENEYE_NAME>
4-methyl-3-(3-methylbut-2-enoxy)benzo[c]chromen-6-one

> <PUBCHEM_IUPAC_CAS_NAME>
4-methyl-3-(3-methylbut-2-enoxy)-6-benzo[c][1]benzopyranone

> <PUBCHEM_IUPAC_NAME>
4-methyl-3-(3-methylbut-2-enoxy)benzo[c]chromen-6-one

> <PUBCHEM_IUPAC_SYSTEMATIC_NAME>
4-methyl-3-(3-methylbut-2-enoxy)benzo[c]chromen-6-one

> <PUBCHEM_IUPAC_TRADITIONAL_NAME>
4-methyl-3-(3-methylbut-2-enoxy)benzo[c]chromen-6-one

> <PUBCHEM_IUPAC_INCHI>
InChI=1S/C19H18O3/c1-12(2)10-11-21-17-9-8-15-14-6-4-5-7-16(14)19(20)22-18(15)13(17)3/h4-10H,11H2,1-3H3

> <PUBCHEM_IUPAC_INCHIKEY>
YTCREJZRKBSEGR-UHFFFAOYSA-N

> <PUBCHEM_XLOGP3_AA>
4.9

> <PUBCHEM_EXACT_MASS>
294.125594

> <PUBCHEM_MOLECULAR_FORMULA>
C19H18O3

> <PUBCHEM_MOLECULAR_WEIGHT>
294.34442

> <PUBCHEM_OPENEYE_CAN_SMILES>
CC1=C(C=CC2=C1OC(=O)C3=CC=CC=C23)OCC=C(C)C

> <PUBCHEM_OPENEYE_ISO_SMILES>
CC1=C(C=CC2=C1OC(=O)C3=CC=CC=C23)OCC=C(C)C

> <PUBCHEM_CACTVS_TPSA>
35.5

> <PUBCHEM_MONOISOTOPIC_WEIGHT>
294.125594

> <PUBCHEM_TOTAL_CHARGE>
0

> <PUBCHEM_HEAVY_ATOM_COUNT>
22

> <PUBCHEM_ATOM_DEF_STEREO_COUNT>
0

> <PUBCHEM_ATOM_UDEF_STEREO_COUNT>
0

> <PUBCHEM_BOND_DEF_STEREO_COUNT>
0

> <PUBCHEM_BOND_UDEF_STEREO_COUNT>
0

> <PUBCHEM_ISOTOPIC_ATOM_COUNT>
0

> <PUBCHEM_COMPONENT_COUNT>
1

> <PUBCHEM_CACTVS_TAUTO_COUNT>
1

> <PUBCHEM_COORDINATE_TYPE>
1
5
255

> <PUBCHEM_BONDANNOTATIONS>
1  13  8
1  5  8
10  11  8
12  16  8
15  17  8
16  17  8
4  10  8
4  5  8
4  6  8
5  7  8
6  12  8
6  8  8
7  9  8
8  13  8
8  15  8
9  11  8

$$$$

