5750
  -OEChem-06261200512D

 41 41  0     0  0  0  0  0  0999 V2000
    2.8372    0.0000    0.0000 Cl  0  0  0  0  0  0  0  0  0  0  0  0
    2.1200    6.9860    0.0000 O   0  0  0  0  0  0  0  0  0  0  0  0
    3.2936    7.9708    0.0000 O   0  0  0  0  0  0  0  0  0  0  0  0
    3.6200    4.1200    0.0000 N   0  0  0  0  0  0  0  0  0  0  0  0
    3.6200    6.1200    0.0000 C   0  0  0  0  0  0  0  0  0  0  0  0
    2.7540    5.6200    0.0000 C   0  0  0  0  0  0  0  0  0  0  0  0
    4.4860    5.6200    0.0000 C   0  0  0  0  0  0  0  0  0  0  0  0
    4.4860    4.6200    0.0000 C   0  0  0  0  0  0  0  0  0  0  0  0
    2.7540    4.6200    0.0000 C   0  0  0  0  0  0  0  0  0  0  0  0
    4.3860    6.7628    0.0000 C   0  0  0  0  0  0  0  0  0  0  0  0
    3.1200    6.9860    0.0000 C   0  0  0  0  0  0  0  0  0  0  0  0
    3.6200    3.1200    0.0000 C   0  0  0  0  0  0  0  0  0  0  0  0
    5.3257    6.4208    0.0000 C   0  0  0  0  0  0  0  0  0  0  0  0
    4.2124    7.7476    0.0000 C   0  0  0  0  0  0  0  0  0  0  0  0
    6.0918    7.0636    0.0000 C   0  0  0  0  0  0  0  0  0  0  0  0
    4.9784    8.3904    0.0000 C   0  0  0  0  0  0  0  0  0  0  0  0
    5.9181    8.0484    0.0000 C   0  0  0  0  0  0  0  0  0  0  0  0
    1.6200    7.8520    0.0000 C   0  0  0  0  0  0  0  0  0  0  0  0
    0.6200    7.8520    0.0000 C   0  0  0  0  0  0  0  0  0  0  0  0
    5.0966    5.5123    0.0000 H   0  0  0  0  0  0  0  0  0  0  0  0
    4.6981    6.2026    0.0000 H   0  0  0  0  0  0  0  0  0  0  0  0
    2.5419    6.2026    0.0000 H   0  0  0  0  0  0  0  0  0  0  0  0
    2.1434    5.5123    0.0000 H   0  0  0  0  0  0  0  0  0  0  0  0
    2.1434    4.7277    0.0000 H   0  0  0  0  0  0  0  0  0  0  0  0
    2.5419    4.0374    0.0000 H   0  0  0  0  0  0  0  0  0  0  0  0
    4.6981    4.0374    0.0000 H   0  0  0  0  0  0  0  0  0  0  0  0
    5.0966    4.7277    0.0000 H   0  0  0  0  0  0  0  0  0  0  0  0
    3.0000    3.1200    0.0000 H   0  0  0  0  0  0  0  0  0  0  0  0
    3.6200    2.5000    0.0000 H   0  0  0  0  0  0  0  0  0  0  0  0
    4.2400    3.1200    0.0000 H   0  0  0  0  0  0  0  0  0  0  0  0
    5.4334    5.8102    0.0000 H   0  0  0  0  0  0  0  0  0  0  0  0
    3.6298    7.9596    0.0000 H   0  0  0  0  0  0  0  0  0  0  0  0
    6.6744    6.8515    0.0000 H   0  0  0  0  0  0  0  0  0  0  0  0
    4.8708    9.0010    0.0000 H   0  0  0  0  0  0  0  0  0  0  0  0
    6.3931    8.4469    0.0000 H   0  0  0  0  0  0  0  0  0  0  0  0
    2.2026    8.0641    0.0000 H   0  0  0  0  0  0  0  0  0  0  0  0
    1.5123    8.4626    0.0000 H   0  0  0  0  0  0  0  0  0  0  0  0
    0.6200    8.4720    0.0000 H   0  0  0  0  0  0  0  0  0  0  0  0
    0.0000    7.8520    0.0000 H   0  0  0  0  0  0  0  0  0  0  0  0
    0.6200    7.2320    0.0000 H   0  0  0  0  0  0  0  0  0  0  0  0
    3.8372    0.0000    0.0000 H   0  0  0  0  0  0  0  0  0  0  0  0
  1 41  1  0  0  0  0
  2 11  1  0  0  0  0
  2 18  1  0  0  0  0
  3 11  2  0  0  0  0
  4  8  1  0  0  0  0
  4  9  1  0  0  0  0
  4 12  1  0  0  0  0
  5  6  1  0  0  0  0
  5  7  1  0  0  0  0
  5 10  1  0  0  0  0
  5 11  1  0  0  0  0
  6  9  1  0  0  0  0
  6 22  1  0  0  0  0
  6 23  1  0  0  0  0
  7  8  1  0  0  0  0
  7 20  1  0  0  0  0
  7 21  1  0  0  0  0
  8 26  1  0  0  0  0
  8 27  1  0  0  0  0
  9 24  1  0  0  0  0
  9 25  1  0  0  0  0
 10 13  2  0  0  0  0
 10 14  1  0  0  0  0
 12 28  1  0  0  0  0
 12 29  1  0  0  0  0
 12 30  1  0  0  0  0
 13 15  1  0  0  0  0
 13 31  1  0  0  0  0
 14 16  2  0  0  0  0
 14 32  1  0  0  0  0
 15 17  2  0  0  0  0
 15 33  1  0  0  0  0
 16 17  1  0  0  0  0
 16 34  1  0  0  0  0
 17 35  1  0  0  0  0
 18 19  1  0  0  0  0
 18 36  1  0  0  0  0
 18 37  1  0  0  0  0
 19 38  1  0  0  0  0
 19 39  1  0  0  0  0
 19 40  1  0  0  0  0
M  END
> <PUBCHEM_COMPOUND_CID>
5750

> <PUBCHEM_COMPOUND_CANONICALIZED>
1

> <PUBCHEM_CACTVS_COMPLEXITY>
276

> <PUBCHEM_CACTVS_HBOND_ACCEPTOR>
3

> <PUBCHEM_CACTVS_HBOND_DONOR>
1

> <PUBCHEM_CACTVS_ROTATABLE_BOND>
4

> <PUBCHEM_CACTVS_SUBSKEYS>
AAADceByMAAEAAAAAAAAAAAAAAAAAAAAAAA8QAAAAAAAAAABAAAAHgAAAAAADgDhmAYyCIMABACIAiDSCAACAAAgAAAIiAEIAIgIIDKAlRCGIAAkwAGIiAe8yOCPgAAAAAAAAAAAAAAAAAAAAAAAAAAAAA==

> <PUBCHEM_IUPAC_OPENEYE_NAME>
ethyl 1-methyl-4-phenyl-piperidine-4-carboxylate hydrochloride

> <PUBCHEM_IUPAC_CAS_NAME>
1-methyl-4-phenyl-4-piperidinecarboxylic acid ethyl ester hydrochloride

> <PUBCHEM_IUPAC_NAME>
ethyl 1-methyl-4-phenylpiperidine-4-carboxylate hydrochloride

> <PUBCHEM_IUPAC_SYSTEMATIC_NAME>
ethyl 1-methyl-4-phenyl-piperidine-4-carboxylate hydrochloride

> <PUBCHEM_IUPAC_TRADITIONAL_NAME>
1-methyl-4-phenyl-isonipecotic acid ethyl ester hydrochloride

> <PUBCHEM_IUPAC_INCHI>
InChI=1S/C15H21NO2.ClH/c1-3-18-14(17)15(9-11-16(2)12-10-15)13-7-5-4-6-8-13;/h4-8H,3,9-12H2,1-2H3;1H

> <PUBCHEM_IUPAC_INCHIKEY>
WCNLCIJMFAJCPX-UHFFFAOYSA-N

> <PUBCHEM_EXACT_MASS>
283.133907

> <PUBCHEM_MOLECULAR_FORMULA>
C15H22ClNO2

> <PUBCHEM_MOLECULAR_WEIGHT>
283.79368

> <PUBCHEM_OPENEYE_CAN_SMILES>
CCOC(=O)C1(CCN(CC1)C)C2=CC=CC=C2.Cl

> <PUBCHEM_OPENEYE_ISO_SMILES>
CCOC(=O)C1(CCN(CC1)C)C2=CC=CC=C2.Cl

> <PUBCHEM_CACTVS_TPSA>
29.5

> <PUBCHEM_MONOISOTOPIC_WEIGHT>
283.133907

> <PUBCHEM_TOTAL_CHARGE>
0

> <PUBCHEM_HEAVY_ATOM_COUNT>
19

> <PUBCHEM_ATOM_DEF_STEREO_COUNT>
0

> <PUBCHEM_ATOM_UDEF_STEREO_COUNT>
0

> <PUBCHEM_BOND_DEF_STEREO_COUNT>
0

> <PUBCHEM_BOND_UDEF_STEREO_COUNT>
0

> <PUBCHEM_ISOTOPIC_ATOM_COUNT>
0

> <PUBCHEM_COMPONENT_COUNT>
2

> <PUBCHEM_CACTVS_TAUTO_COUNT>
1

> <PUBCHEM_COORDINATE_TYPE>
1
5
255

> <PUBCHEM_BONDANNOTATIONS>
10  13  8
10  14  8
13  15  8
14  16  8
15  17  8
16  17  8

$$$$

