17395652
  -OEChem-06241222512D

 50 52  0     0  0  0  0  0  0999 V2000
    7.1753   -0.9625    0.0000 O   0  0  0  0  0  0  0  0  0  0  0  0
    8.0413    0.5375    0.0000 O   0  0  0  0  0  0  0  0  0  0  0  0
    5.4432   -1.9625    0.0000 O   0  0  0  0  0  0  0  0  0  0  0  0
    3.6756    2.4625    0.0000 O   0  0  0  0  0  0  0  0  0  0  0  0
    9.7734    0.5375    0.0000 N   0  0  0  0  0  0  0  0  0  0  0  0
   10.6394   -0.9625    0.0000 N   0  0  0  0  0  0  0  0  0  0  0  0
    3.6636   -0.8692    0.0000 N   0  0  0  0  0  0  0  0  0  0  0  0
    9.2734    2.0763    0.0000 C   0  0  0  0  0  0  0  0  0  0  0  0
   10.2734    2.0763    0.0000 C   0  0  0  0  0  0  0  0  0  0  0  0
   10.5824    1.1253    0.0000 C   0  0  0  0  0  0  0  0  0  0  0  0
    8.9643    1.1253    0.0000 C   0  0  0  0  0  0  0  0  0  0  0  0
    9.7734   -0.4625    0.0000 C   0  0  0  0  0  0  0  0  0  0  0  0
    8.9073   -0.9625    0.0000 C   0  0  0  0  0  0  0  0  0  0  0  0
    4.4727    0.5320    0.0000 C   0  0  0  0  0  0  0  0  0  0  0  0
    4.5772   -0.4625    0.0000 C   0  0  0  0  0  0  0  0  0  0  0  0
    3.4945    0.7399    0.0000 C   0  0  0  0  0  0  0  0  0  0  0  0
    8.9073   -1.9625    0.0000 C   0  0  0  0  0  0  0  0  0  0  0  0
    2.9945   -0.1261    0.0000 C   0  0  0  0  0  0  0  0  0  0  0  0
    8.0413   -0.4625    0.0000 C   0  0  0  0  0  0  0  0  0  0  0  0
   10.6394   -1.9625    0.0000 C   0  0  0  0  0  0  0  0  0  0  0  0
    5.4432   -0.9625    0.0000 C   0  0  0  0  0  0  0  0  0  0  0  0
    9.7734   -2.4625    0.0000 C   0  0  0  0  0  0  0  0  0  0  0  0
    6.3092   -0.4625    0.0000 C   0  0  0  0  0  0  0  0  0  0  0  0
    5.2158    1.2012    0.0000 C   0  0  0  0  0  0  0  0  0  0  0  0
    2.0000   -0.2306    0.0000 C   0  0  0  0  0  0  0  0  0  0  0  0
    3.0878    1.6535    0.0000 C   0  0  0  0  0  0  0  0  0  0  0  0
    2.0933    1.7580    0.0000 C   0  0  0  0  0  0  0  0  0  0  0  0
    9.3382    2.6930    0.0000 H   0  0  0  0  0  0  0  0  0  0  0  0
    8.6669    2.2052    0.0000 H   0  0  0  0  0  0  0  0  0  0  0  0
   10.8798    2.2052    0.0000 H   0  0  0  0  0  0  0  0  0  0  0  0
   10.2085    2.6930    0.0000 H   0  0  0  0  0  0  0  0  0  0  0  0
    8.3979    1.3775    0.0000 H   0  0  0  0  0  0  0  0  0  0  0  0
    8.6543    0.5884    0.0000 H   0  0  0  0  0  0  0  0  0  0  0  0
   10.8924    0.5884    0.0000 H   0  0  0  0  0  0  0  0  0  0  0  0
   11.1488    1.3775    0.0000 H   0  0  0  0  0  0  0  0  0  0  0  0
    8.3704   -2.2725    0.0000 H   0  0  0  0  0  0  0  0  0  0  0  0
    3.5348   -1.4757    0.0000 H   0  0  0  0  0  0  0  0  0  0  0  0
   11.1763   -2.2725    0.0000 H   0  0  0  0  0  0  0  0  0  0  0  0
    9.7734   -3.0825    0.0000 H   0  0  0  0  0  0  0  0  0  0  0  0
    6.7078    0.0124    0.0000 H   0  0  0  0  0  0  0  0  0  0  0  0
    5.9107    0.0124    0.0000 H   0  0  0  0  0  0  0  0  0  0  0  0
    5.6307    0.7404    0.0000 H   0  0  0  0  0  0  0  0  0  0  0  0
    5.6766    1.6160    0.0000 H   0  0  0  0  0  0  0  0  0  0  0  0
    4.8010    1.6619    0.0000 H   0  0  0  0  0  0  0  0  0  0  0  0
    1.9352    0.3860    0.0000 H   0  0  0  0  0  0  0  0  0  0  0  0
    1.3834   -0.2954    0.0000 H   0  0  0  0  0  0  0  0  0  0  0  0
    2.0648   -0.8472    0.0000 H   0  0  0  0  0  0  0  0  0  0  0  0
    2.1581    2.3746    0.0000 H   0  0  0  0  0  0  0  0  0  0  0  0
    1.4767    1.8228    0.0000 H   0  0  0  0  0  0  0  0  0  0  0  0
    2.0285    1.1414    0.0000 H   0  0  0  0  0  0  0  0  0  0  0  0
  1 19  1  0  0  0  0
  1 23  1  0  0  0  0
  2 19  2  0  0  0  0
  3 21  2  0  0  0  0
  4 26  2  0  0  0  0
  5 10  1  0  0  0  0
  5 11  1  0  0  0  0
  5 12  1  0  0  0  0
  6 12  1  0  0  0  0
  6 20  2  0  0  0  0
  7 15  1  0  0  0  0
  7 18  1  0  0  0  0
  7 37  1  0  0  0  0
  8  9  1  0  0  0  0
  8 11  1  0  0  0  0
  8 28  1  0  0  0  0
  8 29  1  0  0  0  0
  9 10  1  0  0  0  0
  9 30  1  0  0  0  0
  9 31  1  0  0  0  0
 10 34  1  0  0  0  0
 10 35  1  0  0  0  0
 11 32  1  0  0  0  0
 11 33  1  0  0  0  0
 12 13  2  0  0  0  0
 13 17  1  0  0  0  0
 13 19  1  0  0  0  0
 14 15  2  0  0  0  0
 14 16  1  0  0  0  0
 14 24  1  0  0  0  0
 15 21  1  0  0  0  0
 16 18  2  0  0  0  0
 16 26  1  0  0  0  0
 17 22  2  0  0  0  0
 17 36  1  0  0  0  0
 18 25  1  0  0  0  0
 20 22  1  0  0  0  0
 20 38  1  0  0  0  0
 21 23  1  0  0  0  0
 22 39  1  0  0  0  0
 23 40  1  0  0  0  0
 23 41  1  0  0  0  0
 24 42  1  0  0  0  0
 24 43  1  0  0  0  0
 24 44  1  0  0  0  0
 25 45  1  0  0  0  0
 25 46  1  0  0  0  0
 25 47  1  0  0  0  0
 26 27  1  0  0  0  0
 27 48  1  0  0  0  0
 27 49  1  0  0  0  0
 27 50  1  0  0  0  0
M  END
> <PUBCHEM_COMPOUND_CID>
17395652

> <PUBCHEM_COMPOUND_CANONICALIZED>
1

> <PUBCHEM_CACTVS_COMPLEXITY>
576

> <PUBCHEM_CACTVS_HBOND_ACCEPTOR>
6

> <PUBCHEM_CACTVS_HBOND_DONOR>
1

> <PUBCHEM_CACTVS_ROTATABLE_BOND>
7

> <PUBCHEM_CACTVS_SUBSKEYS>
AAADceB7OAAAAAAAAAAAAAAAAAAAAWLAAAAsAAAAAAAAAAAB4AAAHgAQAAAADAzhngY/uJPJlACoA7b3bAKCgCk3AiAJ2SH4bNiIJvrAvb2GMYhu0API6eec2zI+gAAAAAAAAAAAAAAAAAAAAAAAAAAAAA==

> <PUBCHEM_IUPAC_OPENEYE_NAME>
[2-(4-acetyl-3,5-dimethyl-1H-pyrrol-2-yl)-2-oxo-ethyl] 2-pyrrolidin-1-ylpyridine-3-carboxylate

> <PUBCHEM_IUPAC_CAS_NAME>
2-(1-pyrrolidinyl)-3-pyridinecarboxylic acid [2-(4-acetyl-3,5-dimethyl-1H-pyrrol-2-yl)-2-oxoethyl] ester

> <PUBCHEM_IUPAC_NAME>
[2-(4-acetyl-3,5-dimethyl-1H-pyrrol-2-yl)-2-oxoethyl] 2-pyrrolidin-1-ylpyridine-3-carboxylate

> <PUBCHEM_IUPAC_SYSTEMATIC_NAME>
[2-(4-ethanoyl-3,5-dimethyl-1H-pyrrol-2-yl)-2-oxidanylidene-ethyl] 2-pyrrolidin-1-ylpyridine-3-carboxylate

> <PUBCHEM_IUPAC_TRADITIONAL_NAME>
2-pyrrolidinonicotinic acid [2-(4-acetyl-3,5-dimethyl-1H-pyrrol-2-yl)-2-keto-ethyl] ester

> <PUBCHEM_IUPAC_INCHI>
InChI=1S/C20H23N3O4/c1-12-17(14(3)24)13(2)22-18(12)16(25)11-27-20(26)15-7-6-8-21-19(15)23-9-4-5-10-23/h6-8,22H,4-5,9-11H2,1-3H3

> <PUBCHEM_IUPAC_INCHIKEY>
KECNEHZKBDFRSK-UHFFFAOYSA-N

> <PUBCHEM_XLOGP3_AA>
2.6

> <PUBCHEM_EXACT_MASS>
369.168856

> <PUBCHEM_MOLECULAR_FORMULA>
C20H23N3O4

> <PUBCHEM_MOLECULAR_WEIGHT>
369.41432

> <PUBCHEM_OPENEYE_CAN_SMILES>
CC1=C(NC(=C1C(=O)C)C)C(=O)COC(=O)C2=C(N=CC=C2)N3CCCC3

> <PUBCHEM_OPENEYE_ISO_SMILES>
CC1=C(NC(=C1C(=O)C)C)C(=O)COC(=O)C2=C(N=CC=C2)N3CCCC3

> <PUBCHEM_CACTVS_TPSA>
92.4

> <PUBCHEM_MONOISOTOPIC_WEIGHT>
369.168856

> <PUBCHEM_TOTAL_CHARGE>
0

> <PUBCHEM_HEAVY_ATOM_COUNT>
27

> <PUBCHEM_ATOM_DEF_STEREO_COUNT>
0

> <PUBCHEM_ATOM_UDEF_STEREO_COUNT>
0

> <PUBCHEM_BOND_DEF_STEREO_COUNT>
0

> <PUBCHEM_BOND_UDEF_STEREO_COUNT>
0

> <PUBCHEM_ISOTOPIC_ATOM_COUNT>
0

> <PUBCHEM_COMPONENT_COUNT>
1

> <PUBCHEM_CACTVS_TAUTO_COUNT>
62

> <PUBCHEM_COORDINATE_TYPE>
1
5
255

> <PUBCHEM_BONDANNOTATIONS>
12  13  8
13  17  8
14  15  8
14  16  8
16  18  8
17  22  8
20  22  8
6  12  8
6  20  8
7  15  8
7  18  8

$$$$

