854328
  -OEChem-06241222472D

 42 44  0     1  0  0  0  0  0999 V2000
    6.3290    0.4007    0.0000 O   0  0  0  0  0  0  0  0  0  0  0  0
    8.0610    0.4007    0.0000 O   0  0  0  0  0  0  0  0  0  0  0  0
    2.7988    0.3765    0.0000 O   0  0  0  0  0  0  0  0  0  0  0  0
    2.8833   -3.6537    0.0000 O   0  0  0  0  0  0  0  0  0  0  0  0
    2.0000   -2.1639    0.0000 O   0  0  0  0  0  0  0  0  0  0  0  0
    3.7204   -1.1439    0.0000 N   0  0  0  0  0  0  0  0  0  0  0  0
    6.3290    2.4007    0.0000 C   0  0  0  0  0  0  0  0  0  0  0  0
    6.3129    3.4422    0.0000 C   0  0  0  0  0  0  0  0  0  0  0  0
    7.2109    3.9699    0.0000 C   0  0  0  0  0  0  0  0  0  0  0  0
    8.1130    3.4491    0.0000 C   0  0  0  0  0  0  0  0  0  0  0  0
    8.1050    2.4075    0.0000 C   0  0  0  0  0  0  0  0  0  0  0  0
    7.1950    1.9007    0.0000 C   0  0  0  0  0  0  0  0  0  0  0  0
    5.4629    1.9007    0.0000 C   0  0  0  0  0  0  0  0  0  0  0  0
    5.4629    0.9007    0.0000 C   0  0  0  0  0  0  0  0  0  0  0  0
    7.1950    0.9007    0.0000 C   0  0  0  0  0  0  0  0  0  0  0  0
    4.5690    0.3660    0.0000 C   0  0  0  0  0  0  0  0  0  0  0  0
    4.5690    2.4353    0.0000 C   0  0  0  0  0  0  0  0  0  0  0  0
    4.5806   -0.6339    0.0000 C   0  0  0  0  0  0  0  0  0  0  0  0
    3.6629    0.8799    0.0000 C   0  0  0  0  0  0  0  0  0  0  0  0
    3.6629    1.9215    0.0000 C   0  0  0  0  0  0  0  0  0  0  0  0
    3.7319   -2.1438    0.0000 C   0  0  1  0  0  0  0  0  0  0  0  0
    4.6037   -2.6338    0.0000 C   0  0  0  0  0  0  0  0  0  0  0  0
    2.8717   -2.6538    0.0000 C   0  0  0  0  0  0  0  0  0  0  0  0
    6.0949    4.0226    0.0000 H   0  0  0  0  0  0  0  0  0  0  0  0
    5.7038    3.3267    0.0000 H   0  0  0  0  0  0  0  0  0  0  0  0
    7.6082    4.4459    0.0000 H   0  0  0  0  0  0  0  0  0  0  0  0
    6.8100    4.4428    0.0000 H   0  0  0  0  0  0  0  0  0  0  0  0
    8.7230    3.3383    0.0000 H   0  0  0  0  0  0  0  0  0  0  0  0
    8.3266    4.0312    0.0000 H   0  0  0  0  0  0  0  0  0  0  0  0
    8.3095    1.8222    0.0000 H   0  0  0  0  0  0  0  0  0  0  0  0
    8.7166    2.5089    0.0000 H   0  0  0  0  0  0  0  0  0  0  0  0
    4.5762    3.0553    0.0000 H   0  0  0  0  0  0  0  0  0  0  0  0
    4.7993   -1.2140    0.0000 H   0  0  0  0  0  0  0  0  0  0  0  0
    5.1899   -0.5192    0.0000 H   0  0  0  0  0  0  0  0  0  0  0  0
    3.1272    2.2336    0.0000 H   0  0  0  0  0  0  0  0  0  0  0  0
    3.1799   -0.8401    0.0000 H   0  0  0  0  0  0  0  0  0  0  0  0
    4.2653   -1.8276    0.0000 H   0  0  0  0  0  0  0  0  0  0  0  0
    8.0610   -0.2193    0.0000 H   0  0  0  0  0  0  0  0  0  0  0  0
    4.2999   -3.1743    0.0000 H   0  0  0  0  0  0  0  0  0  0  0  0
    5.1442   -2.9376    0.0000 H   0  0  0  0  0  0  0  0  0  0  0  0
    4.9075   -2.0933    0.0000 H   0  0  0  0  0  0  0  0  0  0  0  0
    2.3500   -3.9699    0.0000 H   0  0  0  0  0  0  0  0  0  0  0  0
  1 14  1  0  0  0  0
  1 15  1  0  0  0  0
  2 15  1  0  0  0  0
  2 38  1  0  0  0  0
  3 19  2  0  0  0  0
  4 23  1  0  0  0  0
  4 42  1  0  0  0  0
  5 23  2  0  0  0  0
  6 18  1  0  0  0  0
  6 21  1  0  0  0  0
  6 36  1  0  0  0  0
  7  8  1  0  0  0  0
  7 12  1  0  0  0  0
  7 13  2  0  0  0  0
  8  9  1  0  0  0  0
  8 24  1  0  0  0  0
  8 25  1  0  0  0  0
  9 10  1  0  0  0  0
  9 26  1  0  0  0  0
  9 27  1  0  0  0  0
 10 11  1  0  0  0  0
 10 28  1  0  0  0  0
 10 29  1  0  0  0  0
 11 12  1  0  0  0  0
 11 30  1  0  0  0  0
 11 31  1  0  0  0  0
 12 15  2  0  0  0  0
 13 14  1  0  0  0  0
 13 17  1  0  0  0  0
 14 16  2  0  0  0  0
 16 18  1  0  0  0  0
 16 19  1  0  0  0  0
 17 20  2  0  0  0  0
 17 32  1  0  0  0  0
 18 33  1  0  0  0  0
 18 34  1  0  0  0  0
 19 20  1  0  0  0  0
 20 35  1  0  0  0  0
 21 22  1  1  0  0  0
 21 23  1  0  0  0  0
 21 37  1  0  0  0  0
 22 39  1  0  0  0  0
 22 40  1  0  0  0  0
 22 41  1  0  0  0  0
M  END
> <PUBCHEM_COMPOUND_CID>
854328

> <PUBCHEM_COMPOUND_CANONICALIZED>
1

> <PUBCHEM_CACTVS_COMPLEXITY>
696

> <PUBCHEM_CACTVS_HBOND_ACCEPTOR>
6

> <PUBCHEM_CACTVS_HBOND_DONOR>
3

> <PUBCHEM_CACTVS_ROTATABLE_BOND>
4

> <PUBCHEM_CACTVS_SUBSKEYS>
AAADceB6OAAAAAAAAAAAAAAAAAAAAAAAAAAwQIAAAAAAAACAAAAAHgAQCAAADCzBgAQCCALABgCIAqDSCACACAAgIAAICIGIAEgaBAoAoCAEUAAA0ACcoYMAAAAAAAAAAAAAAAAAAAAAAAAAAAAAAAAAAA==

> <PUBCHEM_IUPAC_OPENEYE_NAME>
(2S)-2-[(6-hydroxy-3-oxo-7,8,9,10-tetrahydrobenzo[c]chromen-4-yl)methylamino]propanoic acid

> <PUBCHEM_IUPAC_CAS_NAME>
(2S)-2-[(6-hydroxy-3-oxo-7,8,9,10-tetrahydrobenzo[c][1]benzopyran-4-yl)methylamino]propanoic acid

> <PUBCHEM_IUPAC_NAME>
(2S)-2-[(6-hydroxy-3-oxo-7,8,9,10-tetrahydrobenzo[c]chromen-4-yl)methylamino]propanoic acid

> <PUBCHEM_IUPAC_SYSTEMATIC_NAME>
(2S)-2-[(6-oxidanyl-3-oxidanylidene-7,8,9,10-tetrahydrobenzo[c]chromen-4-yl)methylamino]propanoic acid

> <PUBCHEM_IUPAC_TRADITIONAL_NAME>
(2S)-2-[(6-hydroxy-3-keto-7,8,9,10-tetrahydrobenzo[c]chromen-4-yl)methylamino]propionic acid

> <PUBCHEM_IUPAC_INCHI>
InChI=1S/C17H19NO5/c1-9(16(20)21)18-8-13-14(19)7-6-11-10-4-2-3-5-12(10)17(22)23-15(11)13/h6-7,9,18,22H,2-5,8H2,1H3,(H,20,21)/t9-/m0/s1

> <PUBCHEM_IUPAC_INCHIKEY>
MEQREINJZXJKHA-VIFPVBQESA-N

> <PUBCHEM_XLOGP3_AA>
-1.1

> <PUBCHEM_EXACT_MASS>
317.126323

> <PUBCHEM_MOLECULAR_FORMULA>
C17H19NO5

> <PUBCHEM_MOLECULAR_WEIGHT>
317.33646

> <PUBCHEM_OPENEYE_CAN_SMILES>
CC(C(=O)O)NCC1=C2C(=C3CCCCC3=C(O2)O)C=CC1=O

> <PUBCHEM_OPENEYE_ISO_SMILES>
C[C@@H](C(=O)O)NCC1=C2C(=C3CCCCC3=C(O2)O)C=CC1=O

> <PUBCHEM_CACTVS_TPSA>
95.9

> <PUBCHEM_MONOISOTOPIC_WEIGHT>
317.126323

> <PUBCHEM_TOTAL_CHARGE>
0

> <PUBCHEM_HEAVY_ATOM_COUNT>
23

> <PUBCHEM_ATOM_DEF_STEREO_COUNT>
1

> <PUBCHEM_ATOM_UDEF_STEREO_COUNT>
0

> <PUBCHEM_BOND_DEF_STEREO_COUNT>
0

> <PUBCHEM_BOND_UDEF_STEREO_COUNT>
0

> <PUBCHEM_ISOTOPIC_ATOM_COUNT>
0

> <PUBCHEM_COMPONENT_COUNT>
1

> <PUBCHEM_CACTVS_TAUTO_COUNT>
1

> <PUBCHEM_COORDINATE_TYPE>
1
5
255

> <PUBCHEM_BONDANNOTATIONS>
1  14  8
1  15  8
12  15  8
13  17  8
14  16  8
16  19  8
17  20  8
19  20  8
21  22  5
7  12  8
7  13  8

$$$$

