3874
  -OEChem-06251223442D

 71 73  0     1  0  0  0  0  0999 V2000
    7.7331   -1.3450    0.0000 O   0  0  0  0  0  0  0  0  0  0  0  0
    6.0010   -0.3450    0.0000 O   0  0  0  0  0  0  0  0  0  0  0  0
    4.2690   -0.3450    0.0000 O   0  0  0  0  0  0  0  0  0  0  0  0
    6.0010   -3.3450    0.0000 O   0  0  0  0  0  0  0  0  0  0  0  0
    9.4651   -1.3450    0.0000 O   0  0  0  0  0  0  0  0  0  0  0  0
    7.7331   -4.3450    0.0000 O   0  0  0  0  0  0  0  0  0  0  0  0
    9.4651   -3.3450    0.0000 O   0  0  0  0  0  0  0  0  0  0  0  0
    6.0010    1.6550    0.0000 O   0  0  0  0  0  0  0  0  0  0  0  0
    4.2690    2.6550    0.0000 O   0  0  0  0  0  0  0  0  0  0  0  0
    2.5369    1.6550    0.0000 O   0  0  0  0  0  0  0  0  0  0  0  0
   11.1972    1.6550    0.0000 O   0  0  0  0  0  0  0  0  0  0  0  0
    9.4651    2.6550    0.0000 O   0  0  0  0  0  0  0  0  0  0  0  0
    6.8671   -1.8450    0.0000 C   0  0  3  0  0  0  0  0  0  0  0  0
    6.8671   -2.8450    0.0000 C   0  0  3  0  0  0  0  0  0  0  0  0
    7.7331   -3.3450    0.0000 C   0  0  3  0  0  0  0  0  0  0  0  0
    8.5991   -2.8450    0.0000 C   0  0  3  0  0  0  0  0  0  0  0  0
    8.5991   -1.8450    0.0000 C   0  0  3  0  0  0  0  0  0  0  0  0
    6.0010   -1.3450    0.0000 C   0  0  0  0  0  0  0  0  0  0  0  0
    5.1350    0.1550    0.0000 C   0  0  3  0  0  0  0  0  0  0  0  0
    5.1350    1.1550    0.0000 C   0  0  3  0  0  0  0  0  0  0  0  0
    4.2690    1.6550    0.0000 C   0  0  3  0  0  0  0  0  0  0  0  0
    3.4030    1.1550    0.0000 C   0  0  3  0  0  0  0  0  0  0  0  0
    3.4030    0.1550    0.0000 C   0  0  0  0  0  0  0  0  0  0  0  0
    9.4651   -0.3450    0.0000 C   0  0  0  0  0  0  0  0  0  0  0  0
    8.5991    0.1550    0.0000 C   0  0  0  0  0  0  0  0  0  0  0  0
    8.5991    1.1550    0.0000 C   0  0  0  0  0  0  0  0  0  0  0  0
   10.3312    0.1550    0.0000 C   0  0  0  0  0  0  0  0  0  0  0  0
    7.7331    1.6550    0.0000 C   0  0  0  0  0  0  0  0  0  0  0  0
    7.7331    2.6550    0.0000 C   0  0  0  0  0  0  0  0  0  0  0  0
    9.4651    1.6550    0.0000 C   0  0  0  0  0  0  0  0  0  0  0  0
   10.3312    1.1550    0.0000 C   0  0  0  0  0  0  0  0  0  0  0  0
    6.8671    3.1550    0.0000 C   0  0  0  0  0  0  0  0  0  0  0  0
    6.8671    4.1550    0.0000 C   0  0  0  0  0  0  0  0  0  0  0  0
    6.0010    4.6550    0.0000 C   0  0  0  0  0  0  0  0  0  0  0  0
   12.0632    1.1550    0.0000 C   0  0  0  0  0  0  0  0  0  0  0  0
    6.8671   -0.9950    0.0000 H   0  0  0  0  0  0  0  0  0  0  0  0
    6.1309   -2.4200    0.0000 H   0  0  0  0  0  0  0  0  0  0  0  0
    8.4692   -3.7700    0.0000 H   0  0  0  0  0  0  0  0  0  0  0  0
    8.5991   -3.6950    0.0000 H   0  0  0  0  0  0  0  0  0  0  0  0
    8.5991   -0.9950    0.0000 H   0  0  0  0  0  0  0  0  0  0  0  0
    5.3905   -1.2373    0.0000 H   0  0  0  0  0  0  0  0  0  0  0  0
    5.7890   -1.9276    0.0000 H   0  0  0  0  0  0  0  0  0  0  0  0
    5.1350   -0.6950    0.0000 H   0  0  0  0  0  0  0  0  0  0  0  0
    5.1350    2.0050    0.0000 H   0  0  0  0  0  0  0  0  0  0  0  0
    5.0051    2.0800    0.0000 H   0  0  0  0  0  0  0  0  0  0  0  0
    3.4030    2.0050    0.0000 H   0  0  0  0  0  0  0  0  0  0  0  0
    2.7924    0.2627    0.0000 H   0  0  0  0  0  0  0  0  0  0  0  0
    3.1909   -0.4276    0.0000 H   0  0  0  0  0  0  0  0  0  0  0  0
    5.4641   -3.0350    0.0000 H   0  0  0  0  0  0  0  0  0  0  0  0
    7.1962   -4.6550    0.0000 H   0  0  0  0  0  0  0  0  0  0  0  0
   10.0021   -3.0350    0.0000 H   0  0  0  0  0  0  0  0  0  0  0  0
    6.0010    2.2750    0.0000 H   0  0  0  0  0  0  0  0  0  0  0  0
    3.7320    2.9650    0.0000 H   0  0  0  0  0  0  0  0  0  0  0  0
    2.0000    1.3450    0.0000 H   0  0  0  0  0  0  0  0  0  0  0  0
    8.0622   -0.1550    0.0000 H   0  0  0  0  0  0  0  0  0  0  0  0
   10.8681   -0.1550    0.0000 H   0  0  0  0  0  0  0  0  0  0  0  0
    7.1225    1.7627    0.0000 H   0  0  0  0  0  0  0  0  0  0  0  0
    7.5210    1.0724    0.0000 H   0  0  0  0  0  0  0  0  0  0  0  0
    8.3437    2.5473    0.0000 H   0  0  0  0  0  0  0  0  0  0  0  0
    7.9451    3.2376    0.0000 H   0  0  0  0  0  0  0  0  0  0  0  0
    6.2565    3.2627    0.0000 H   0  0  0  0  0  0  0  0  0  0  0  0
    6.6550    2.5724    0.0000 H   0  0  0  0  0  0  0  0  0  0  0  0
    7.4776    4.0473    0.0000 H   0  0  0  0  0  0  0  0  0  0  0  0
    7.0791    4.7376    0.0000 H   0  0  0  0  0  0  0  0  0  0  0  0
   10.0021    2.9650    0.0000 H   0  0  0  0  0  0  0  0  0  0  0  0
    6.3110    5.1919    0.0000 H   0  0  0  0  0  0  0  0  0  0  0  0
    5.4641    4.9650    0.0000 H   0  0  0  0  0  0  0  0  0  0  0  0
    5.6910    4.1181    0.0000 H   0  0  0  0  0  0  0  0  0  0  0  0
   11.7532    0.6181    0.0000 H   0  0  0  0  0  0  0  0  0  0  0  0
   12.6002    0.8450    0.0000 H   0  0  0  0  0  0  0  0  0  0  0  0
   12.3732    1.6919    0.0000 H   0  0  0  0  0  0  0  0  0  0  0  0
  1 13  1  0  0  0  0
  1 17  1  0  0  0  0
  2 18  1  0  0  0  0
  2 19  1  0  0  0  0
  3 19  1  0  0  0  0
  3 23  1  0  0  0  0
  4 14  1  0  0  0  0
  4 49  1  0  0  0  0
  5 17  1  0  0  0  0
  5 24  1  0  0  0  0
  6 15  1  0  0  0  0
  6 50  1  0  0  0  0
  7 16  1  0  0  0  0
  7 51  1  0  0  0  0
  8 20  1  0  0  0  0
  8 52  1  0  0  0  0
  9 21  1  0  0  0  0
  9 53  1  0  0  0  0
 10 22  1  0  0  0  0
 10 54  1  0  0  0  0
 11 31  1  0  0  0  0
 11 35  1  0  0  0  0
 12 30  1  0  0  0  0
 12 65  1  0  0  0  0
 13 14  1  0  0  0  0
 13 18  1  0  0  0  0
 13 36  1  0  0  0  0
 14 15  1  0  0  0  0
 14 37  1  0  0  0  0
 15 16  1  0  0  0  0
 15 38  1  0  0  0  0
 16 17  1  0  0  0  0
 16 39  1  0  0  0  0
 17 40  1  0  0  0  0
 18 41  1  0  0  0  0
 18 42  1  0  0  0  0
 19 20  1  0  0  0  0
 19 43  1  0  0  0  0
 20 21  1  0  0  0  0
 20 44  1  0  0  0  0
 21 22  1  0  0  0  0
 21 45  1  0  0  0  0
 22 23  1  0  0  0  0
 22 46  1  0  0  0  0
 23 47  1  0  0  0  0
 23 48  1  0  0  0  0
 24 25  1  0  0  0  0
 24 27  2  0  0  0  0
 25 26  2  0  0  0  0
 25 55  1  0  0  0  0
 26 28  1  0  0  0  0
 26 30  1  0  0  0  0
 27 31  1  0  0  0  0
 27 56  1  0  0  0  0
 28 29  1  0  0  0  0
 28 57  1  0  0  0  0
 28 58  1  0  0  0  0
 29 32  1  0  0  0  0
 29 59  1  0  0  0  0
 29 60  1  0  0  0  0
 30 31  2  0  0  0  0
 32 33  1  0  0  0  0
 32 61  1  0  0  0  0
 32 62  1  0  0  0  0
 33 34  1  0  0  0  0
 33 63  1  0  0  0  0
 33 64  1  0  0  0  0
 34 66  1  0  0  0  0
 34 67  1  0  0  0  0
 34 68  1  0  0  0  0
 35 69  1  0  0  0  0
 35 70  1  0  0  0  0
 35 71  1  0  0  0  0
M  END
> <PUBCHEM_COMPOUND_CID>
3874

> <PUBCHEM_COMPOUND_CANONICALIZED>
1

> <PUBCHEM_CACTVS_COMPLEXITY>
625

> <PUBCHEM_CACTVS_HBOND_ACCEPTOR>
12

> <PUBCHEM_CACTVS_HBOND_DONOR>
7

> <PUBCHEM_CACTVS_ROTATABLE_BOND>
10

> <PUBCHEM_CACTVS_SUBSKEYS>
AAADcfB4PAAAAAAAAAAAAAAAAAAAAAAAAAA0SIAAAAAAAAABAAAAGgAACAAADBSwmAMyDoAABgCAAiBCAAACCAAgIAAAiAAGiIgdNyKGMRqieCOlwBUPuAfA4PwOAQABCAAIQAACAAIQABCAAAAAAAAAAA==

> <PUBCHEM_IUPAC_OPENEYE_NAME>
2-(4-hydroxy-3-methoxy-5-pentyl-phenoxy)-6-[(3,4,5-trihydroxytetrahydropyran-2-yl)oxymethyl]tetrahydropyran-3,4,5-triol

> <PUBCHEM_IUPAC_CAS_NAME>
2-(4-hydroxy-3-methoxy-5-pentylphenoxy)-6-[(3,4,5-trihydroxy-2-oxanyl)oxymethyl]oxane-3,4,5-triol

> <PUBCHEM_IUPAC_NAME>
2-(4-hydroxy-3-methoxy-5-pentylphenoxy)-6-[(3,4,5-trihydroxyoxan-2-yl)oxymethyl]oxane-3,4,5-triol

> <PUBCHEM_IUPAC_SYSTEMATIC_NAME>
2-(3-methoxy-4-oxidanyl-5-pentyl-phenoxy)-6-[[3,4,5-tris(oxidanyl)oxan-2-yl]oxymethyl]oxane-3,4,5-triol

> <PUBCHEM_IUPAC_TRADITIONAL_NAME>
2-(3-amyl-4-hydroxy-5-methoxy-phenoxy)-6-[(3,4,5-trihydroxytetrahydropyran-2-yl)oxymethyl]tetrahydropyran-3,4,5-triol

> <PUBCHEM_IUPAC_INCHI>
InChI=1S/C23H36O12/c1-3-4-5-6-11-7-12(8-14(31-2)16(11)25)34-23-21(30)19(28)18(27)15(35-23)10-33-22-20(29)17(26)13(24)9-32-22/h7-8,13,15,17-30H,3-6,9-10H2,1-2H3

> <PUBCHEM_IUPAC_INCHIKEY>
VAFQZOLZQJZPNS-UHFFFAOYSA-N

> <PUBCHEM_XLOGP3_AA>
-0.3

> <PUBCHEM_EXACT_MASS>
504.220677

> <PUBCHEM_MOLECULAR_FORMULA>
C23H36O12

> <PUBCHEM_MOLECULAR_WEIGHT>
504.52474

> <PUBCHEM_OPENEYE_CAN_SMILES>
CCCCCC1=CC(=CC(=C1O)OC)OC2C(C(C(C(O2)COC3C(C(C(CO3)O)O)O)O)O)O

> <PUBCHEM_OPENEYE_ISO_SMILES>
CCCCCC1=CC(=CC(=C1O)OC)OC2C(C(C(C(O2)COC3C(C(C(CO3)O)O)O)O)O)O

> <PUBCHEM_CACTVS_TPSA>
188

> <PUBCHEM_MONOISOTOPIC_WEIGHT>
504.220677

> <PUBCHEM_TOTAL_CHARGE>
0

> <PUBCHEM_HEAVY_ATOM_COUNT>
35

> <PUBCHEM_ATOM_DEF_STEREO_COUNT>
0

> <PUBCHEM_ATOM_UDEF_STEREO_COUNT>
9

> <PUBCHEM_BOND_DEF_STEREO_COUNT>
0

> <PUBCHEM_BOND_UDEF_STEREO_COUNT>
0

> <PUBCHEM_ISOTOPIC_ATOM_COUNT>
0

> <PUBCHEM_COMPONENT_COUNT>
1

> <PUBCHEM_CACTVS_TAUTO_COUNT>
3

> <PUBCHEM_COORDINATE_TYPE>
1
5
255

> <PUBCHEM_BONDANNOTATIONS>
13  36  3
14  37  3
15  38  3
16  39  3
17  40  3
19  43  3
20  44  3
21  45  3
22  46  3
24  25  8
24  27  8
25  26  8
26  30  8
27  31  8
30  31  8

$$$$

