4925
  -OEChem-06261200252D

 20 20  0     1  0  0  0  0  0999 V2000
    2.5896   -1.4285    0.0000 O   0  0  0  0  0  0  0  0  0  0  0  0
    3.1249    0.2188    0.0000 O   0  0  0  0  0  0  0  0  0  0  0  0
    4.2268    1.0194    0.0000 O   0  5  0  0  0  0  0  0  0  0  0  0
    5.9589    2.0194    0.0000 O   0  0  0  0  0  0  0  0  0  0  0  0
    5.0929   -0.4806    0.0000 N   0  0  3  0  0  0  0  0  0  0  0  0
    5.0929    0.5194    0.0000 N   0  0  0  0  0  0  0  0  0  0  0  0
    5.9589    1.0194    0.0000 N   0  0  0  0  0  0  0  0  0  0  0  0
    4.2839   -1.0684    0.0000 C   0  0  3  0  0  0  0  0  0  0  0  0
    4.5929   -2.0194    0.0000 C   0  0  0  0  0  0  0  0  0  0  0  0
    5.5929   -2.0194    0.0000 C   0  0  0  0  0  0  0  0  0  0  0  0
    5.9019   -1.0684    0.0000 C   0  0  0  0  0  0  0  0  0  0  0  0
    3.3328   -0.7593    0.0000 C   0  0  0  0  0  0  0  0  0  0  0  0
    4.1869   -0.4560    0.0000 H   0  0  0  0  0  0  0  0  0  0  0  0
    3.9864   -2.1483    0.0000 H   0  0  0  0  0  0  0  0  0  0  0  0
    4.6577   -2.6360    0.0000 H   0  0  0  0  0  0  0  0  0  0  0  0
    5.5281   -2.6360    0.0000 H   0  0  0  0  0  0  0  0  0  0  0  0
    6.1993   -2.1483    0.0000 H   0  0  0  0  0  0  0  0  0  0  0  0
    6.4683   -1.3205    0.0000 H   0  0  0  0  0  0  0  0  0  0  0  0
    6.2119   -0.5314    0.0000 H   0  0  0  0  0  0  0  0  0  0  0  0
    2.0000   -1.2369    0.0000 H   0  0  0  0  0  0  0  0  0  0  0  0
  1 12  1  0  0  0  0
  1 20  1  0  0  0  0
  2 12  2  0  0  0  0
  3  6  1  0  0  0  0
  4  7  2  0  0  0  0
  5  6  1  0  0  0  0
  5  8  1  0  0  0  0
  5 11  1  0  0  0  0
  6  7  1  0  0  0  0
  8  9  1  0  0  0  0
  8 12  1  0  0  0  0
  8 13  1  0  0  0  0
  9 10  1  0  0  0  0
  9 14  1  0  0  0  0
  9 15  1  0  0  0  0
 10 11  1  0  0  0  0
 10 16  1  0  0  0  0
 10 17  1  0  0  0  0
 11 18  1  0  0  0  0
 11 19  1  0  0  0  0
M  CHG  1   3  -1
M  END
> <PUBCHEM_COMPOUND_CID>
4925

> <PUBCHEM_COMPOUND_CANONICALIZED>
1

> <PUBCHEM_CACTVS_COMPLEXITY>
197

> <PUBCHEM_CACTVS_HBOND_ACCEPTOR>
7

> <PUBCHEM_CACTVS_HBOND_DONOR>
1

> <PUBCHEM_CACTVS_ROTATABLE_BOND>
2

> <PUBCHEM_CACTVS_SUBSKEYS>
AAADccBjOAAAAAAAAAAAAAAAAAAAAWAAAAAAAAAAAAAAAAAAAAAAHgAMCAAACCjBgAQACAIAAgAJAACQCAAAAAAAAAAQAAGIAAACABIAgCAEQAAEAACQAACYEQAAAAAAAAAAAAAAAAAAAAAAAAAAAAAAAA==

> <PUBCHEM_IUPAC_OPENEYE_NAME>
1-[nitroso(oxido)amino]pyrrolidine-2-carboxylic acid

> <PUBCHEM_IUPAC_CAS_NAME>
1-[nitroso(oxido)amino]-2-pyrrolidinecarboxylic acid

> <PUBCHEM_IUPAC_NAME>
1-[nitroso(oxido)amino]pyrrolidine-2-carboxylic acid

> <PUBCHEM_IUPAC_SYSTEMATIC_NAME>
1-[nitroso(oxidanidyl)amino]pyrrolidine-2-carboxylic acid

> <PUBCHEM_IUPAC_TRADITIONAL_NAME>
1-[nitroso(oxido)amino]proline

> <PUBCHEM_IUPAC_INCHI>
InChI=1S/C5H8N3O4/c9-5(10)4-2-1-3-7(4)8(12)6-11/h4H,1-3H2,(H,9,10)/q-1

> <PUBCHEM_IUPAC_INCHIKEY>
DRJSHOIJIOAXOZ-UHFFFAOYSA-N

> <PUBCHEM_XLOGP3_AA>
-2.3

> <PUBCHEM_EXACT_MASS>
174.051481

> <PUBCHEM_MOLECULAR_FORMULA>
C5H8N3O4-

> <PUBCHEM_MOLECULAR_WEIGHT>
174.13472

> <PUBCHEM_OPENEYE_CAN_SMILES>
C1CC(N(C1)N(N=O)[O-])C(=O)O

> <PUBCHEM_OPENEYE_ISO_SMILES>
C1CC(N(C1)N(N=O)[O-])C(=O)O

> <PUBCHEM_CACTVS_TPSA>
96.3

> <PUBCHEM_MONOISOTOPIC_WEIGHT>
174.051481

> <PUBCHEM_TOTAL_CHARGE>
-1

> <PUBCHEM_HEAVY_ATOM_COUNT>
12

> <PUBCHEM_ATOM_DEF_STEREO_COUNT>
0

> <PUBCHEM_ATOM_UDEF_STEREO_COUNT>
1

> <PUBCHEM_BOND_DEF_STEREO_COUNT>
0

> <PUBCHEM_BOND_UDEF_STEREO_COUNT>
0

> <PUBCHEM_ISOTOPIC_ATOM_COUNT>
0

> <PUBCHEM_COMPONENT_COUNT>
1

> <PUBCHEM_CACTVS_TAUTO_COUNT>
1

> <PUBCHEM_COORDINATE_TYPE>
1
5
255

> <PUBCHEM_BONDANNOTATIONS>
8  12  3

$$$$

