17396497
  -OEChem-06241222572D

 39 40  0     0  0  0  0  0  0999 V2000
    4.5981   -1.4239    0.0000 S   0  0  0  0  0  0  0  0  0  0  0  0
    2.0000   -2.9239    0.0000 F   0  0  0  0  0  0  0  0  0  0  0  0
    5.8301    4.1149    0.0000 O   0  0  0  0  0  0  0  0  0  0  0  0
    7.1962    1.0761    0.0000 O   0  0  0  0  0  0  0  0  0  0  0  0
    5.4641    1.0761    0.0000 N   0  0  0  0  0  0  0  0  0  0  0  0
    5.4641    0.0761    0.0000 C   0  0  0  0  0  0  0  0  0  0  0  0
    6.3301    2.5761    0.0000 C   0  0  0  0  0  0  0  0  0  0  0  0
    4.5981   -0.4239    0.0000 C   0  0  0  0  0  0  0  0  0  0  0  0
    5.5211    3.1639    0.0000 C   0  0  0  0  0  0  0  0  0  0  0  0
    6.3301    1.5761    0.0000 C   0  0  0  0  0  0  0  0  0  0  0  0
    7.1391    3.1639    0.0000 C   0  0  0  0  0  0  0  0  0  0  0  0
    6.8301    4.1149    0.0000 C   0  0  0  0  0  0  0  0  0  0  0  0
    3.7320   -1.9239    0.0000 C   0  0  0  0  0  0  0  0  0  0  0  0
    3.7320   -2.9239    0.0000 C   0  0  0  0  0  0  0  0  0  0  0  0
    4.5700    2.8548    0.0000 C   0  0  0  0  0  0  0  0  0  0  0  0
    7.4179    4.9239    0.0000 C   0  0  0  0  0  0  0  0  0  0  0  0
    2.8660   -3.4239    0.0000 C   0  0  0  0  0  0  0  0  0  0  0  0
    4.5981   -3.4239    0.0000 C   0  0  0  0  0  0  0  0  0  0  0  0
    2.8660   -4.4239    0.0000 C   0  0  0  0  0  0  0  0  0  0  0  0
    4.5981   -4.4239    0.0000 C   0  0  0  0  0  0  0  0  0  0  0  0
    3.7320   -4.9239    0.0000 C   0  0  0  0  0  0  0  0  0  0  0  0
    5.6762   -0.5065    0.0000 H   0  0  0  0  0  0  0  0  0  0  0  0
    6.0747    0.1837    0.0000 H   0  0  0  0  0  0  0  0  0  0  0  0
    4.3860    0.1587    0.0000 H   0  0  0  0  0  0  0  0  0  0  0  0
    3.9875   -0.5316    0.0000 H   0  0  0  0  0  0  0  0  0  0  0  0
    4.9272    1.3861    0.0000 H   0  0  0  0  0  0  0  0  0  0  0  0
    7.7288    2.9723    0.0000 H   0  0  0  0  0  0  0  0  0  0  0  0
    3.5200   -1.3413    0.0000 H   0  0  0  0  0  0  0  0  0  0  0  0
    3.1215   -2.0316    0.0000 H   0  0  0  0  0  0  0  0  0  0  0  0
    4.3785    3.4445    0.0000 H   0  0  0  0  0  0  0  0  0  0  0  0
    3.9804    2.6632    0.0000 H   0  0  0  0  0  0  0  0  0  0  0  0
    4.7616    2.2652    0.0000 H   0  0  0  0  0  0  0  0  0  0  0  0
    7.9195    4.5595    0.0000 H   0  0  0  0  0  0  0  0  0  0  0  0
    7.7823    5.4255    0.0000 H   0  0  0  0  0  0  0  0  0  0  0  0
    6.9163    5.2884    0.0000 H   0  0  0  0  0  0  0  0  0  0  0  0
    5.1350   -3.1139    0.0000 H   0  0  0  0  0  0  0  0  0  0  0  0
    2.3291   -4.7339    0.0000 H   0  0  0  0  0  0  0  0  0  0  0  0
    5.1350   -4.7339    0.0000 H   0  0  0  0  0  0  0  0  0  0  0  0
    3.7320   -5.5439    0.0000 H   0  0  0  0  0  0  0  0  0  0  0  0
  1  8  1  0  0  0  0
  1 13  1  0  0  0  0
  2 17  1  0  0  0  0
  3  9  1  0  0  0  0
  3 12  1  0  0  0  0
  4 10  2  0  0  0  0
  5  6  1  0  0  0  0
  5 10  1  0  0  0  0
  5 26  1  0  0  0  0
  6  8  1  0  0  0  0
  6 22  1  0  0  0  0
  6 23  1  0  0  0  0
  7  9  2  0  0  0  0
  7 10  1  0  0  0  0
  7 11  1  0  0  0  0
  8 24  1  0  0  0  0
  8 25  1  0  0  0  0
  9 15  1  0  0  0  0
 11 12  2  0  0  0  0
 11 27  1  0  0  0  0
 12 16  1  0  0  0  0
 13 14  1  0  0  0  0
 13 28  1  0  0  0  0
 13 29  1  0  0  0  0
 14 17  1  0  0  0  0
 14 18  2  0  0  0  0
 15 30  1  0  0  0  0
 15 31  1  0  0  0  0
 15 32  1  0  0  0  0
 16 33  1  0  0  0  0
 16 34  1  0  0  0  0
 16 35  1  0  0  0  0
 17 19  2  0  0  0  0
 18 20  1  0  0  0  0
 18 36  1  0  0  0  0
 19 21  1  0  0  0  0
 19 37  1  0  0  0  0
 20 21  2  0  0  0  0
 20 38  1  0  0  0  0
 21 39  1  0  0  0  0
M  END
> <PUBCHEM_COMPOUND_CID>
17396497

> <PUBCHEM_COMPOUND_CANONICALIZED>
1

> <PUBCHEM_CACTVS_COMPLEXITY>
342

> <PUBCHEM_CACTVS_HBOND_ACCEPTOR>
4

> <PUBCHEM_CACTVS_HBOND_DONOR>
1

> <PUBCHEM_CACTVS_ROTATABLE_BOND>
6

> <PUBCHEM_CACTVS_SUBSKEYS>
AAADceB6MQBAAAAAAAAAAAAAAAAAASAAAAAwAAAAAAAAAAABwAAAHwQQAAAADATF2AyyBILABEiIAqFSEACCCAAkIBAIiIEODMgMJj6stRuGOWjm9hGoqYe/gAAOAAAAAAAAAAAAAAAAAAAAAAAAAAAAAA==

> <PUBCHEM_IUPAC_OPENEYE_NAME>
N-[2-[(2-fluorophenyl)methylsulfanyl]ethyl]-2,5-dimethyl-furan-3-carboxamide

> <PUBCHEM_IUPAC_CAS_NAME>
N-[2-[(2-fluorophenyl)methylthio]ethyl]-2,5-dimethyl-3-furancarboxamide

> <PUBCHEM_IUPAC_NAME>
N-[2-[(2-fluorophenyl)methylsulfanyl]ethyl]-2,5-dimethylfuran-3-carboxamide

> <PUBCHEM_IUPAC_SYSTEMATIC_NAME>
N-[2-[(2-fluorophenyl)methylsulfanyl]ethyl]-2,5-dimethyl-furan-3-carboxamide

> <PUBCHEM_IUPAC_TRADITIONAL_NAME>
N-[2-[(2-fluorobenzyl)thio]ethyl]-2,5-dimethyl-3-furamide

> <PUBCHEM_IUPAC_INCHI>
InChI=1S/C16H18FNO2S/c1-11-9-14(12(2)20-11)16(19)18-7-8-21-10-13-5-3-4-6-15(13)17/h3-6,9H,7-8,10H2,1-2H3,(H,18,19)

> <PUBCHEM_IUPAC_INCHIKEY>
OETRUJJSJOVENF-UHFFFAOYSA-N

> <PUBCHEM_XLOGP3_AA>
3.3

> <PUBCHEM_EXACT_MASS>
307.104228

> <PUBCHEM_MOLECULAR_FORMULA>
C16H18FNO2S

> <PUBCHEM_MOLECULAR_WEIGHT>
307.383023

> <PUBCHEM_OPENEYE_CAN_SMILES>
CC1=CC(=C(O1)C)C(=O)NCCSCC2=CC=CC=C2F

> <PUBCHEM_OPENEYE_ISO_SMILES>
CC1=CC(=C(O1)C)C(=O)NCCSCC2=CC=CC=C2F

> <PUBCHEM_CACTVS_TPSA>
67.5

> <PUBCHEM_MONOISOTOPIC_WEIGHT>
307.104228

> <PUBCHEM_TOTAL_CHARGE>
0

> <PUBCHEM_HEAVY_ATOM_COUNT>
21

> <PUBCHEM_ATOM_DEF_STEREO_COUNT>
0

> <PUBCHEM_ATOM_UDEF_STEREO_COUNT>
0

> <PUBCHEM_BOND_DEF_STEREO_COUNT>
0

> <PUBCHEM_BOND_UDEF_STEREO_COUNT>
0

> <PUBCHEM_ISOTOPIC_ATOM_COUNT>
0

> <PUBCHEM_COMPONENT_COUNT>
1

> <PUBCHEM_CACTVS_TAUTO_COUNT>
2

> <PUBCHEM_COORDINATE_TYPE>
1
5
255

> <PUBCHEM_BONDANNOTATIONS>
11  12  8
14  17  8
14  18  8
17  19  8
18  20  8
19  21  8
20  21  8
3  12  8
3  9  8
7  11  8
7  9  8

$$$$

