12822
  -OEChem-06261207242D

 28 30  0     1  0  0  0  0  0999 V2000
    5.5848    0.6774    0.0000 O   0  0  0  0  0  0  0  0  0  0  0  0
    5.1650   -1.0030    0.0000 O   0  0  0  0  0  0  0  0  0  0  0  0
    3.9196    0.2008    0.0000 N   0  0  0  0  0  0  0  0  0  0  0  0
    2.5739   -0.3556    0.0000 C   0  0  0  0  0  0  0  0  0  0  0  0
    2.3886    0.4175    0.0000 C   0  0  3  0  0  0  0  0  0  0  0  0
    2.0000   -0.7756    0.0000 C   0  0  3  0  0  0  0  0  0  0  0  0
    4.0843   -0.1929    0.0000 C   0  0  0  0  0  0  0  0  0  0  0  0
    3.2246   -0.5182    0.0000 C   0  0  3  0  0  0  0  0  0  0  0  0
    3.3827    0.5508    0.0000 C   0  0  0  0  0  0  0  0  0  0  0  0
    3.3827   -1.1540    0.0000 C   0  0  0  0  0  0  0  0  0  0  0  0
    4.8898   -0.0416    0.0000 C   0  0  0  0  0  0  0  0  0  0  0  0
    6.5550    0.4350    0.0000 C   0  0  0  0  0  0  0  0  0  0  0  0
    7.2500    1.1540    0.0000 C   0  0  0  0  0  0  0  0  0  0  0  0
    2.6931   -0.9640    0.0000 H   0  0  0  0  0  0  0  0  0  0  0  0
    1.4542   -1.0698    0.0000 H   0  0  0  0  0  0  0  0  0  0  0  0
    1.9917    0.8939    0.0000 H   0  0  0  0  0  0  0  0  0  0  0  0
    4.7031   -0.1540    0.0000 H   0  0  0  0  0  0  0  0  0  0  0  0
    3.2608   -1.1371    0.0000 H   0  0  0  0  0  0  0  0  0  0  0  0
    3.1480   -1.7279    0.0000 H   0  0  0  0  0  0  0  0  0  0  0  0
    3.9240   -1.4564    0.0000 H   0  0  0  0  0  0  0  0  0  0  0  0
    3.9117    0.8742    0.0000 H   0  0  0  0  0  0  0  0  0  0  0  0
    3.1754    1.1351    0.0000 H   0  0  0  0  0  0  0  0  0  0  0  0
    4.0699    0.8023    0.0000 H   0  0  0  0  0  0  0  0  0  0  0  0
    6.3025   -0.1312    0.0000 H   0  0  0  0  0  0  0  0  0  0  0  0
    7.0688    0.0881    0.0000 H   0  0  0  0  0  0  0  0  0  0  0  0
    7.6958    0.7231    0.0000 H   0  0  0  0  0  0  0  0  0  0  0  0
    7.6809    1.5998    0.0000 H   0  0  0  0  0  0  0  0  0  0  0  0
    6.8042    1.5849    0.0000 H   0  0  0  0  0  0  0  0  0  0  0  0
  1 11  1  0  0  0  0
  1 12  1  0  0  0  0
  2 11  2  0  0  0  0
  3  8  1  0  0  0  0
  3 11  1  0  0  0  0
  3 23  1  0  0  0  0
  4  5  1  0  0  0  0
  4  6  1  0  0  0  0
  4  8  1  0  0  0  0
  4 14  1  0  0  0  0
  5  6  1  0  0  0  0
  5  9  1  0  0  0  0
  5 16  1  0  0  0  0
  6 10  1  0  0  0  0
  6 15  1  0  0  0  0
  7  8  1  0  0  0  0
  7  9  1  0  0  0  0
  7 10  1  0  0  0  0
  7 17  1  0  0  0  0
  8 18  1  0  0  0  0
  9 21  1  0  0  0  0
  9 22  1  0  0  0  0
 10 19  1  0  0  0  0
 10 20  1  0  0  0  0
 12 13  1  0  0  0  0
 12 24  1  0  0  0  0
 12 25  1  0  0  0  0
 13 26  1  0  0  0  0
 13 27  1  0  0  0  0
 13 28  1  0  0  0  0
M  END
> <PUBCHEM_COMPOUND_CID>
12822

> <PUBCHEM_COMPOUND_CANONICALIZED>
1

> <PUBCHEM_CACTVS_COMPLEXITY>
241

> <PUBCHEM_CACTVS_HBOND_ACCEPTOR>
2

> <PUBCHEM_CACTVS_HBOND_DONOR>
1

> <PUBCHEM_CACTVS_ROTATABLE_BOND>
3

> <PUBCHEM_CACTVS_SUBSKEYS>
AAADccByMAAAAAAAAAAAAAAAGAAAAYMGAAAAAAAAAAAAAAAAAAAAHgAQAAAADSjhgAYCCALABAAIAAAAGAAAAAAAAAAAAIAIAAEAAAIAgAAMAAAAFgAAAAEQgAAOAAAAAAAAAAAAAACAAAQAASAAAQAAAA==

> <PUBCHEM_IUPAC_OPENEYE_NAME>
ethyl N-(2,3,4,5,6,7-hexahydro-1H-tricyclo[2.2.1.0^{2,6}]heptan-3-yl)carbamate

> <PUBCHEM_IUPAC_CAS_NAME>
N-(2,3,4,5,6,7-hexahydro-1H-tricyclo[2.2.1.0^{2,6}]heptan-3-yl)carbamic acid ethyl ester

> <PUBCHEM_IUPAC_NAME>
ethyl N-(2,3,4,5,6,7-hexahydro-1H-tricyclo[2.2.1.0^{2,6}]heptan-3-yl)carbamate

> <PUBCHEM_IUPAC_SYSTEMATIC_NAME>
ethyl N-(2,3,4,5,6,7-hexahydro-1H-tricyclo[2.2.1.0^{2,6}]heptan-3-yl)carbamate

> <PUBCHEM_IUPAC_TRADITIONAL_NAME>
N-(2,3,4,5,6,7-hexahydro-1H-tricyclo[2.2.1.0^{2,6}]heptan-3-yl)carbamic acid ethyl ester

> <PUBCHEM_IUPAC_INCHI>
InChI=1S/C10H15NO2/c1-2-13-10(12)11-9-5-3-6-7(4-5)8(6)9/h5-9H,2-4H2,1H3,(H,11,12)

> <PUBCHEM_IUPAC_INCHIKEY>
NSMNOJJQBXBPGS-UHFFFAOYSA-N

> <PUBCHEM_XLOGP3_AA>
1.4

> <PUBCHEM_EXACT_MASS>
181.110279

> <PUBCHEM_MOLECULAR_FORMULA>
C10H15NO2

> <PUBCHEM_MOLECULAR_WEIGHT>
181.2316

> <PUBCHEM_OPENEYE_CAN_SMILES>
CCOC(=O)NC1C2CC3C1C3C2

> <PUBCHEM_OPENEYE_ISO_SMILES>
CCOC(=O)NC1C2CC3C1C3C2

> <PUBCHEM_CACTVS_TPSA>
38.3

> <PUBCHEM_MONOISOTOPIC_WEIGHT>
181.110279

> <PUBCHEM_TOTAL_CHARGE>
0

> <PUBCHEM_HEAVY_ATOM_COUNT>
13

> <PUBCHEM_ATOM_DEF_STEREO_COUNT>
0

> <PUBCHEM_ATOM_UDEF_STEREO_COUNT>
3

> <PUBCHEM_BOND_DEF_STEREO_COUNT>
0

> <PUBCHEM_BOND_UDEF_STEREO_COUNT>
0

> <PUBCHEM_ISOTOPIC_ATOM_COUNT>
0

> <PUBCHEM_COMPONENT_COUNT>
1

> <PUBCHEM_CACTVS_TAUTO_COUNT>
2

> <PUBCHEM_COORDINATE_TYPE>
1
5
255

> <PUBCHEM_BONDANNOTATIONS>
8  3  3
5  9  3
6  10  3

$$$$

