586256
  -OEChem-06241222462D

 34 34  0     1  0  0  0  0  0999 V2000
    5.4641    2.3100    0.0000 O   0  0  0  0  0  0  0  0  0  0  0  0
    3.7320    2.3100    0.0000 O   0  0  0  0  0  0  0  0  0  0  0  0
    2.8660   -2.1900    0.0000 O   0  0  0  0  0  0  0  0  0  0  0  0
    7.1962   -2.6900    0.0000 O   0  0  0  0  0  0  0  0  0  0  0  0
    2.0000   -0.6900    0.0000 O   0  0  0  0  0  0  0  0  0  0  0  0
    5.4641   -2.6900    0.0000 O   0  0  0  0  0  0  0  0  0  0  0  0
    5.4641   -0.6900    0.0000 C   0  0  3  0  0  0  0  0  0  0  0  0
    4.5981    0.8100    0.0000 C   0  0  3  0  0  0  0  0  0  0  0  0
    5.4641    0.3100    0.0000 C   0  0  0  0  0  0  0  0  0  0  0  0
    3.7320    0.3100    0.0000 C   0  0  0  0  0  0  0  0  0  0  0  0
    4.5981   -1.1900    0.0000 C   0  0  0  0  0  0  0  0  0  0  0  0
    3.7320   -0.6900    0.0000 C   0  0  0  0  0  0  0  0  0  0  0  0
    6.3301   -1.1900    0.0000 C   0  0  0  0  0  0  0  0  0  0  0  0
    4.5981    1.8100    0.0000 C   0  0  0  0  0  0  0  0  0  0  0  0
    2.8660   -1.1900    0.0000 C   0  0  0  0  0  0  0  0  0  0  0  0
    6.3301   -2.1900    0.0000 C   0  0  0  0  0  0  0  0  0  0  0  0
    5.4641    3.3100    0.0000 C   0  0  0  0  0  0  0  0  0  0  0  0
    2.0000   -2.6900    0.0000 C   0  0  0  0  0  0  0  0  0  0  0  0
    6.2002   -0.2650    0.0000 H   0  0  0  0  0  0  0  0  0  0  0  0
    5.3342    1.2350    0.0000 H   0  0  0  0  0  0  0  0  0  0  0  0
    6.0747    0.2023    0.0000 H   0  0  0  0  0  0  0  0  0  0  0  0
    5.6762    0.8926    0.0000 H   0  0  0  0  0  0  0  0  0  0  0  0
    3.5200    0.8926    0.0000 H   0  0  0  0  0  0  0  0  0  0  0  0
    3.1215    0.2023    0.0000 H   0  0  0  0  0  0  0  0  0  0  0  0
    4.5981   -1.8100    0.0000 H   0  0  0  0  0  0  0  0  0  0  0  0
    6.9407   -1.2977    0.0000 H   0  0  0  0  0  0  0  0  0  0  0  0
    6.5422   -0.6074    0.0000 H   0  0  0  0  0  0  0  0  0  0  0  0
    6.0841    3.3100    0.0000 H   0  0  0  0  0  0  0  0  0  0  0  0
    5.4641    3.9300    0.0000 H   0  0  0  0  0  0  0  0  0  0  0  0
    4.8441    3.3100    0.0000 H   0  0  0  0  0  0  0  0  0  0  0  0
    7.1962   -3.3100    0.0000 H   0  0  0  0  0  0  0  0  0  0  0  0
    1.6900   -2.1531    0.0000 H   0  0  0  0  0  0  0  0  0  0  0  0
    1.4631   -3.0000    0.0000 H   0  0  0  0  0  0  0  0  0  0  0  0
    2.3100   -3.2269    0.0000 H   0  0  0  0  0  0  0  0  0  0  0  0
  1 14  1  0  0  0  0
  1 17  1  0  0  0  0
  2 14  2  0  0  0  0
  3 15  1  0  0  0  0
  3 18  1  0  0  0  0
  4 16  1  0  0  0  0
  4 31  1  0  0  0  0
  5 15  2  0  0  0  0
  6 16  2  0  0  0  0
  7  9  1  0  0  0  0
  7 11  1  0  0  0  0
  7 13  1  0  0  0  0
  7 19  1  0  0  0  0
  8  9  1  0  0  0  0
  8 10  1  0  0  0  0
  8 14  1  0  0  0  0
  8 20  1  0  0  0  0
  9 21  1  0  0  0  0
  9 22  1  0  0  0  0
 10 12  1  0  0  0  0
 10 23  1  0  0  0  0
 10 24  1  0  0  0  0
 11 12  2  0  0  0  0
 11 25  1  0  0  0  0
 12 15  1  0  0  0  0
 13 16  1  0  0  0  0
 13 26  1  0  0  0  0
 13 27  1  0  0  0  0
 17 28  1  0  0  0  0
 17 29  1  0  0  0  0
 17 30  1  0  0  0  0
 18 32  1  0  0  0  0
 18 33  1  0  0  0  0
 18 34  1  0  0  0  0
M  END
> <PUBCHEM_COMPOUND_CID>
586256

> <PUBCHEM_COMPOUND_CANONICALIZED>
1

> <PUBCHEM_CACTVS_COMPLEXITY>
384

> <PUBCHEM_CACTVS_HBOND_ACCEPTOR>
6

> <PUBCHEM_CACTVS_HBOND_DONOR>
1

> <PUBCHEM_CACTVS_ROTATABLE_BOND>
6

> <PUBCHEM_CACTVS_SUBSKEYS>
AAADceBwOAAAAAAAAAAAAAAAAAAAAAAAAAAgAAAAAAAAAAAAAAAAGgAACAAADQCAgAICCAAABgCIAiDSCAAAAAAgAAAACAEAAEgABBIAIQAAUAAEgAAIIYOI7viOAAAAAAAAAAAAAAAAAAAAAAAAAAAAAA==

> <PUBCHEM_IUPAC_OPENEYE_NAME>
2-[3,5-bis(methoxycarbonyl)cyclohex-2-en-1-yl]acetic acid

> <PUBCHEM_IUPAC_CAS_NAME>
2-[3,5-bis(methoxycarbonyl)-1-cyclohex-2-enyl]acetic acid

> <PUBCHEM_IUPAC_NAME>
2-[3,5-bis(methoxycarbonyl)cyclohex-2-en-1-yl]acetic acid

> <PUBCHEM_IUPAC_SYSTEMATIC_NAME>
2-[3,5-bis(methoxycarbonyl)cyclohex-2-en-1-yl]ethanoic acid

> <PUBCHEM_IUPAC_TRADITIONAL_NAME>
2-(3,5-dicarbomethoxycyclohex-2-en-1-yl)acetic acid

> <PUBCHEM_IUPAC_INCHI>
InChI=1S/C12H16O6/c1-17-11(15)8-3-7(5-10(13)14)4-9(6-8)12(16)18-2/h3,7,9H,4-6H2,1-2H3,(H,13,14)

> <PUBCHEM_IUPAC_INCHIKEY>
YGKBQYGONJSPOG-UHFFFAOYSA-N

> <PUBCHEM_XLOGP3_AA>
0.5

> <PUBCHEM_EXACT_MASS>
256.094688

> <PUBCHEM_MOLECULAR_FORMULA>
C12H16O6

> <PUBCHEM_MOLECULAR_WEIGHT>
256.25184

> <PUBCHEM_OPENEYE_CAN_SMILES>
COC(=O)C1CC(C=C(C1)C(=O)OC)CC(=O)O

> <PUBCHEM_OPENEYE_ISO_SMILES>
COC(=O)C1CC(C=C(C1)C(=O)OC)CC(=O)O

> <PUBCHEM_CACTVS_TPSA>
89.9

> <PUBCHEM_MONOISOTOPIC_WEIGHT>
256.094688

> <PUBCHEM_TOTAL_CHARGE>
0

> <PUBCHEM_HEAVY_ATOM_COUNT>
18

> <PUBCHEM_ATOM_DEF_STEREO_COUNT>
0

> <PUBCHEM_ATOM_UDEF_STEREO_COUNT>
2

> <PUBCHEM_BOND_DEF_STEREO_COUNT>
0

> <PUBCHEM_BOND_UDEF_STEREO_COUNT>
0

> <PUBCHEM_ISOTOPIC_ATOM_COUNT>
0

> <PUBCHEM_COMPONENT_COUNT>
1

> <PUBCHEM_CACTVS_TAUTO_COUNT>
1

> <PUBCHEM_COORDINATE_TYPE>
1
5
255

> <PUBCHEM_BONDANNOTATIONS>
7  19  3
8  20  3

$$$$

