3305
  -OEChem-06251223192D

 19 18  0     0  0  0  0  0  0999 V2000
    4.8520    0.5000    0.0000 P   0  0  0  0  0  0  0  0  0  0  0  0
    3.1200   -0.5000    0.0000 P   0  0  0  0  0  0  0  0  0  0  0  0
    3.4860    0.8660    0.0000 O   0  0  0  0  0  0  0  0  0  0  0  0
    5.7181    1.0000    0.0000 O   0  0  0  0  0  0  0  0  0  0  0  0
    5.3520   -0.3660    0.0000 O   0  0  0  0  0  0  0  0  0  0  0  0
    2.2540   -1.0000    0.0000 O   0  0  0  0  0  0  0  0  0  0  0  0
    2.6200    0.3660    0.0000 O   0  0  0  0  0  0  0  0  0  0  0  0
    4.6784    1.4848    0.0000 O   0  0  0  0  0  0  0  0  0  0  0  0
    3.6200   -1.3660    0.0000 O   0  0  0  0  0  0  0  0  0  0  0  0
    3.9860    0.0000    0.0000 C   0  0  0  0  0  0  0  0  0  0  0  0
    4.4860   -0.8660    0.0000 C   0  0  0  0  0  0  0  0  0  0  0  0
    3.9491   -1.1760    0.0000 H   0  0  0  0  0  0  0  0  0  0  0  0
    4.7960   -1.4030    0.0000 H   0  0  0  0  0  0  0  0  0  0  0  0
    5.0230   -0.5560    0.0000 H   0  0  0  0  0  0  0  0  0  0  0  0
    3.5937    1.4766    0.0000 H   0  0  0  0  0  0  0  0  0  0  0  0
    5.7181    1.6200    0.0000 H   0  0  0  0  0  0  0  0  0  0  0  0
    5.9720   -0.3660    0.0000 H   0  0  0  0  0  0  0  0  0  0  0  0
    2.2540   -1.6200    0.0000 H   0  0  0  0  0  0  0  0  0  0  0  0
    2.0000    0.3660    0.0000 H   0  0  0  0  0  0  0  0  0  0  0  0
  1  4  1  0  0  0  0
  1  5  1  0  0  0  0
  1  8  2  0  0  0  0
  1 10  1  0  0  0  0
  2  6  1  0  0  0  0
  2  7  1  0  0  0  0
  2  9  2  0  0  0  0
  2 10  1  0  0  0  0
  3 10  1  0  0  0  0
  3 15  1  0  0  0  0
  4 16  1  0  0  0  0
  5 17  1  0  0  0  0
  6 18  1  0  0  0  0
  7 19  1  0  0  0  0
 10 11  1  0  0  0  0
 11 12  1  0  0  0  0
 11 13  1  0  0  0  0
 11 14  1  0  0  0  0
M  END
> <PUBCHEM_COMPOUND_CID>
3305

> <PUBCHEM_COMPOUND_CANONICALIZED>
1

> <PUBCHEM_CACTVS_COMPLEXITY>
211

> <PUBCHEM_CACTVS_HBOND_ACCEPTOR>
7

> <PUBCHEM_CACTVS_HBOND_DONOR>
5

> <PUBCHEM_CACTVS_ROTATABLE_BOND>
2

> <PUBCHEM_CACTVS_SUBSKEYS>
AAADccBAOAMAAAAAAAAAAAAAAAAAAAAAAAAAAAAAAAAAAAAAAAAAGggACCAAAACAgAACAAAAAhAAQAAAAIAAAAAAAAAAAAAAAAAAAAAAAAAAAAAAAAAAAAAAAAAAAAAAAAAAAAAAAAAAAAAAAAAAAAAAAA==

> <PUBCHEM_IUPAC_OPENEYE_NAME>
(1-hydroxy-1-phosphono-ethyl)phosphonic acid

> <PUBCHEM_IUPAC_CAS_NAME>
(1-hydroxy-1-phosphonoethyl)phosphonic acid

> <PUBCHEM_IUPAC_NAME>
(1-hydroxy-1-phosphonoethyl)phosphonic acid

> <PUBCHEM_IUPAC_SYSTEMATIC_NAME>
(1-oxidanyl-1-phosphono-ethyl)phosphonic acid

> <PUBCHEM_IUPAC_TRADITIONAL_NAME>
(1-hydroxy-1-phosphono-ethyl)phosphonic acid

> <PUBCHEM_IUPAC_INCHI>
InChI=1S/C2H8O7P2/c1-2(3,10(4,5)6)11(7,8)9/h3H,1H3,(H2,4,5,6)(H2,7,8,9)

> <PUBCHEM_IUPAC_INCHIKEY>
DBVJJBKOTRCVKF-UHFFFAOYSA-N

> <PUBCHEM_XLOGP3_AA>
-3.7

> <PUBCHEM_EXACT_MASS>
205.974526

> <PUBCHEM_MOLECULAR_FORMULA>
C2H8O7P2

> <PUBCHEM_MOLECULAR_WEIGHT>
206.028244

> <PUBCHEM_OPENEYE_CAN_SMILES>
CC(O)(P(=O)(O)O)P(=O)(O)O

> <PUBCHEM_OPENEYE_ISO_SMILES>
CC(O)(P(=O)(O)O)P(=O)(O)O

> <PUBCHEM_CACTVS_TPSA>
135

> <PUBCHEM_MONOISOTOPIC_WEIGHT>
205.974526

> <PUBCHEM_TOTAL_CHARGE>
0

> <PUBCHEM_HEAVY_ATOM_COUNT>
11

> <PUBCHEM_ATOM_DEF_STEREO_COUNT>
0

> <PUBCHEM_ATOM_UDEF_STEREO_COUNT>
0

> <PUBCHEM_BOND_DEF_STEREO_COUNT>
0

> <PUBCHEM_BOND_UDEF_STEREO_COUNT>
0

> <PUBCHEM_ISOTOPIC_ATOM_COUNT>
0

> <PUBCHEM_COMPONENT_COUNT>
1

> <PUBCHEM_CACTVS_TAUTO_COUNT>
1

> <PUBCHEM_COORDINATE_TYPE>
1
5
255

$$$$

