14204
  -OEChem-06241222422D

 84 85  0     0  0  0  0  0  0999 V2000
   13.1501    0.0000    0.0000 Cl  0  0  0  0  0  0  0  0  0  0  0  0
   14.4366    1.0839    0.0000 F   0  0  0  0  0  0  0  0  0  0  0  0
    8.0169   10.4375    0.0000 O   0  0  0  0  0  0  0  0  0  0  0  0
   12.8999    5.7193    0.0000 O   0  0  0  0  0  0  0  0  0  0  0  0
    4.8671    7.2920    0.0000 O   0  0  0  0  0  0  0  0  0  0  0  0
    0.5369    7.7920    0.0000 O   0  0  0  0  0  0  0  0  0  0  0  0
   14.7745   13.5840    0.0000 O   0  0  0  0  0  0  0  0  0  0  0  0
   10.4444   14.0840    0.0000 O   0  0  0  0  0  0  0  0  0  0  0  0
    4.0010    8.7920    0.0000 O   0  0  0  0  0  0  0  0  0  0  0  0
    1.4030    6.2920    0.0000 O   0  0  0  0  0  0  0  0  0  0  0  0
   13.9085   15.0840    0.0000 O   0  0  0  0  0  0  0  0  0  0  0  0
   11.3104   12.5840    0.0000 O   0  0  0  0  0  0  0  0  0  0  0  0
   10.1709    6.3927    0.0000 N   0  0  0  0  0  0  0  0  0  0  0  0
    9.5814    8.3038    0.0000 N   0  0  0  0  0  0  0  0  0  0  0  0
   12.7103    4.0365    0.0000 N   0  0  0  0  0  0  0  0  0  0  0  0
   14.9572    4.0365    0.0000 N   0  0  0  0  0  0  0  0  0  0  0  0
   10.8511    7.1257    0.0000 C   0  0  0  0  0  0  0  0  0  0  0  0
    9.1960    6.6152    0.0000 C   0  0  0  0  0  0  0  0  0  0  0  0
   10.5563    8.0813    0.0000 C   0  0  0  0  0  0  0  0  0  0  0  0
    8.9012    7.5708    0.0000 C   0  0  0  0  0  0  0  0  0  0  0  0
   10.4657    5.4371    0.0000 C   0  0  0  0  0  0  0  0  0  0  0  0
   11.4406    5.2146    0.0000 C   0  0  0  0  0  0  0  0  0  0  0  0
    9.2866    9.2594    0.0000 C   0  0  0  0  0  0  0  0  0  0  0  0
   11.7353    4.2590    0.0000 C   0  0  0  0  0  0  0  0  0  0  0  0
    8.3117    9.4819    0.0000 C   0  0  0  0  0  0  0  0  0  0  0  0
   12.9328    3.0616    0.0000 C   0  0  0  0  0  0  0  0  0  0  0  0
   13.3338    4.8183    0.0000 C   0  0  0  0  0  0  0  0  0  0  0  0
   13.8338    2.6277    0.0000 C   0  0  0  0  0  0  0  0  0  0  0  0
   14.3338    4.8183    0.0000 C   0  0  0  0  0  0  0  0  0  0  0  0
   12.0632    2.4881    0.0000 C   0  0  0  0  0  0  0  0  0  0  0  0
   14.7347    3.0616    0.0000 C   0  0  0  0  0  0  0  0  0  0  0  0
   13.9276    1.5903    0.0000 C   0  0  0  0  0  0  0  0  0  0  0  0
   12.1330    1.4489    0.0000 C   0  0  0  0  0  0  0  0  0  0  0  0
   15.5166    2.4381    0.0000 C   0  0  0  0  0  0  0  0  0  0  0  0
   13.0715    0.9969    0.0000 C   0  0  0  0  0  0  0  0  0  0  0  0
   15.3675    1.4493    0.0000 C   0  0  0  0  0  0  0  0  0  0  0  0
   16.4474    2.8034    0.0000 C   0  0  0  0  0  0  0  0  0  0  0  0
   16.1493    0.8258    0.0000 C   0  0  0  0  0  0  0  0  0  0  0  0
   17.2293    2.1799    0.0000 C   0  0  0  0  0  0  0  0  0  0  0  0
   17.0802    1.1911    0.0000 C   0  0  0  0  0  0  0  0  0  0  0  0
    3.1350    7.2920    0.0000 C   0  0  0  0  0  0  0  0  0  0  0  0
    2.2690    7.7920    0.0000 C   0  0  0  0  0  0  0  0  0  0  0  0
   13.0425   13.5840    0.0000 C   0  0  0  0  0  0  0  0  0  0  0  0
   12.1764   14.0840    0.0000 C   0  0  0  0  0  0  0  0  0  0  0  0
    4.0010    7.7920    0.0000 C   0  0  0  0  0  0  0  0  0  0  0  0
    1.4030    7.2920    0.0000 C   0  0  0  0  0  0  0  0  0  0  0  0
   13.9085   14.0840    0.0000 C   0  0  0  0  0  0  0  0  0  0  0  0
   11.3104   13.5840    0.0000 C   0  0  0  0  0  0  0  0  0  0  0  0
   11.4028    7.4086    0.0000 H   0  0  0  0  0  0  0  0  0  0  0  0
   11.2254    6.6315    0.0000 H   0  0  0  0  0  0  0  0  0  0  0  0
    9.1651    5.9960    0.0000 H   0  0  0  0  0  0  0  0  0  0  0  0
    8.5808    6.5381    0.0000 H   0  0  0  0  0  0  0  0  0  0  0  0
   10.5872    8.7005    0.0000 H   0  0  0  0  0  0  0  0  0  0  0  0
   11.1715    8.1584    0.0000 H   0  0  0  0  0  0  0  0  0  0  0  0
    8.5269    8.0650    0.0000 H   0  0  0  0  0  0  0  0  0  0  0  0
    8.3495    7.2879    0.0000 H   0  0  0  0  0  0  0  0  0  0  0  0
   10.4347    4.8179    0.0000 H   0  0  0  0  0  0  0  0  0  0  0  0
    9.8505    5.3600    0.0000 H   0  0  0  0  0  0  0  0  0  0  0  0
   12.0558    5.2917    0.0000 H   0  0  0  0  0  0  0  0  0  0  0  0
   11.4715    5.8338    0.0000 H   0  0  0  0  0  0  0  0  0  0  0  0
    9.9018    9.3365    0.0000 H   0  0  0  0  0  0  0  0  0  0  0  0
    9.3175    9.8786    0.0000 H   0  0  0  0  0  0  0  0  0  0  0  0
   11.7044    3.6398    0.0000 H   0  0  0  0  0  0  0  0  0  0  0  0
   11.1201    4.1819    0.0000 H   0  0  0  0  0  0  0  0  0  0  0  0
    7.6965    9.4048    0.0000 H   0  0  0  0  0  0  0  0  0  0  0  0
    8.2808    8.8627    0.0000 H   0  0  0  0  0  0  0  0  0  0  0  0
   14.1958    5.4228    0.0000 H   0  0  0  0  0  0  0  0  0  0  0  0
   14.8924    5.0873    0.0000 H   0  0  0  0  0  0  0  0  0  0  0  0
    7.4125   10.5755    0.0000 H   0  0  0  0  0  0  0  0  0  0  0  0
   11.5078    2.7636    0.0000 H   0  0  0  0  0  0  0  0  0  0  0  0
   14.4893    1.3278    0.0000 H   0  0  0  0  0  0  0  0  0  0  0  0
   11.6194    1.1016    0.0000 H   0  0  0  0  0  0  0  0  0  0  0  0
   16.5398    3.4165    0.0000 H   0  0  0  0  0  0  0  0  0  0  0  0
   16.0569    0.2127    0.0000 H   0  0  0  0  0  0  0  0  0  0  0  0
   17.8064    2.4064    0.0000 H   0  0  0  0  0  0  0  0  0  0  0  0
   17.5650    0.8045    0.0000 H   0  0  0  0  0  0  0  0  0  0  0  0
    3.1350    6.6720    0.0000 H   0  0  0  0  0  0  0  0  0  0  0  0
    2.2690    8.4120    0.0000 H   0  0  0  0  0  0  0  0  0  0  0  0
   13.0425   12.9640    0.0000 H   0  0  0  0  0  0  0  0  0  0  0  0
   12.1764   14.7040    0.0000 H   0  0  0  0  0  0  0  0  0  0  0  0
    5.4040    7.6020    0.0000 H   0  0  0  0  0  0  0  0  0  0  0  0
    0.0000    7.4820    0.0000 H   0  0  0  0  0  0  0  0  0  0  0  0
   15.3114   13.8940    0.0000 H   0  0  0  0  0  0  0  0  0  0  0  0
    9.9074   13.7740    0.0000 H   0  0  0  0  0  0  0  0  0  0  0  0
  1 35  1  0  0  0  0
  2 36  1  0  0  0  0
  3 25  1  0  0  0  0
  3 69  1  0  0  0  0
  4 27  2  0  0  0  0
  5 45  1  0  0  0  0
  5 81  1  0  0  0  0
  6 46  1  0  0  0  0
  6 82  1  0  0  0  0
  7 47  1  0  0  0  0
  7 83  1  0  0  0  0
  8 48  1  0  0  0  0
  8 84  1  0  0  0  0
  9 45  2  0  0  0  0
 10 46  2  0  0  0  0
 11 47  2  0  0  0  0
 12 48  2  0  0  0  0
 13 17  1  0  0  0  0
 13 18  1  0  0  0  0
 13 21  1  0  0  0  0
 14 19  1  0  0  0  0
 14 20  1  0  0  0  0
 14 23  1  0  0  0  0
 15 24  1  0  0  0  0
 15 26  1  0  0  0  0
 15 27  1  0  0  0  0
 16 29  1  0  0  0  0
 16 31  2  0  0  0  0
 17 19  1  0  0  0  0
 17 49  1  0  0  0  0
 17 50  1  0  0  0  0
 18 20  1  0  0  0  0
 18 51  1  0  0  0  0
 18 52  1  0  0  0  0
 19 53  1  0  0  0  0
 19 54  1  0  0  0  0
 20 55  1  0  0  0  0
 20 56  1  0  0  0  0
 21 22  1  0  0  0  0
 21 57  1  0  0  0  0
 21 58  1  0  0  0  0
 22 24  1  0  0  0  0
 22 59  1  0  0  0  0
 22 60  1  0  0  0  0
 23 25  1  0  0  0  0
 23 61  1  0  0  0  0
 23 62  1  0  0  0  0
 24 63  1  0  0  0  0
 24 64  1  0  0  0  0
 25 65  1  0  0  0  0
 25 66  1  0  0  0  0
 26 28  2  0  0  0  0
 26 30  1  0  0  0  0
 27 29  1  0  0  0  0
 28 31  1  0  0  0  0
 28 32  1  0  0  0  0
 29 67  1  0  0  0  0
 29 68  1  0  0  0  0
 30 33  2  0  0  0  0
 30 70  1  0  0  0  0
 31 34  1  0  0  0  0
 32 35  2  0  0  0  0
 32 71  1  0  0  0  0
 33 35  1  0  0  0  0
 33 72  1  0  0  0  0
 34 36  1  0  0  0  0
 34 37  2  0  0  0  0
 36 38  2  0  0  0  0
 37 39  1  0  0  0  0
 37 73  1  0  0  0  0
 38 40  1  0  0  0  0
 38 74  1  0  0  0  0
 39 40  2  0  0  0  0
 39 75  1  0  0  0  0
 40 76  1  0  0  0  0
 41 42  2  3  0  0  0
 41 45  1  0  0  0  0
 41 77  1  0  0  0  0
 42 46  1  0  0  0  0
 42 78  1  0  0  0  0
 43 44  2  3  0  0  0
 43 47  1  0  0  0  0
 43 79  1  0  0  0  0
 44 48  1  0  0  0  0
 44 80  1  0  0  0  0
M  END
> <PUBCHEM_COMPOUND_CID>
14204

> <PUBCHEM_COMPOUND_CANONICALIZED>
1

> <PUBCHEM_CACTVS_COMPLEXITY>
777

> <PUBCHEM_CACTVS_HBOND_ACCEPTOR>
14

> <PUBCHEM_CACTVS_HBOND_DONOR>
5

> <PUBCHEM_CACTVS_ROTATABLE_BOND>
11

> <PUBCHEM_CACTVS_SUBSKEYS>
AAADcfB/vQAEAAAAAAAAAAAAAAAAAAAAAAA8YIAABAAAAAABQAAAHwIACAAADArhmC4wyIMAAgCoAyXyXACCAAAhBwAIiACoZtgKdKLB05GUMAhghgDY2YcQgMAOAABAIAACAAAAAIBAAAQAAAAAAAAAAA==

> <PUBCHEM_IUPAC_OPENEYE_NAME>
but-2-enedioic acid; 7-chloro-5-(2-fluorophenyl)-1-[3-[4-(2-hydroxyethyl)piperazin-1-yl]propyl]-3H-1,4-benzodiazepin-2-one

> <PUBCHEM_IUPAC_CAS_NAME>
but-2-enedioic acid; 7-chloro-5-(2-fluorophenyl)-1-[3-[4-(2-hydroxyethyl)-1-piperazinyl]propyl]-3H-1,4-benzodiazepin-2-one

> <PUBCHEM_IUPAC_NAME>
but-2-enedioic acid; 7-chloro-5-(2-fluorophenyl)-1-[3-[4-(2-hydroxyethyl)piperazin-1-yl]propyl]-3H-1,4-benzodiazepin-2-one

> <PUBCHEM_IUPAC_SYSTEMATIC_NAME>
but-2-enedioic acid; 7-chloranyl-5-(2-fluorophenyl)-1-[3-[4-(2-hydroxyethyl)piperazin-1-yl]propyl]-3H-1,4-benzodiazepin-2-one

> <PUBCHEM_IUPAC_TRADITIONAL_NAME>
but-2-enedioic acid; 7-chloro-5-(2-fluorophenyl)-1-[3-[4-(2-hydroxyethyl)piperazino]propyl]-3H-1,4-benzodiazepin-2-one

> <PUBCHEM_IUPAC_INCHI>
InChI=1S/C24H28ClFN4O2.2C4H4O4/c25-18-6-7-22-20(16-18)24(19-4-1-2-5-21(19)26)27-17-23(32)30(22)9-3-8-28-10-12-29(13-11-28)14-15-31;2*5-3(6)1-2-4(7)8/h1-2,4-7,16,31H,3,8-15,17H2;2*1-2H,(H,5,6)(H,7,8)

> <PUBCHEM_IUPAC_INCHIKEY>
IPIBQYGIUWROLW-UHFFFAOYSA-N

> <PUBCHEM_XLOGP3_AA>
1.616

> <PUBCHEM_EXACT_MASS>
690.210399

> <PUBCHEM_MOLECULAR_FORMULA>
C32H36ClFN4O10

> <PUBCHEM_MOLECULAR_WEIGHT>
691.100443

> <PUBCHEM_OPENEYE_CAN_SMILES>
C1CN(CCN1CCCN2C(=O)CN=C(C3=C2C=CC(=C3)Cl)C4=CC=CC=C4F)CCO.C(=CC(=O)O)C(=O)O.C(=CC(=O)O)C(=O)O

> <PUBCHEM_OPENEYE_ISO_SMILES>
C1CN(CCN1CCCN2C(=O)CN=C(C3=C2C=CC(=C3)Cl)C4=CC=CC=C4F)CCO.C(=CC(=O)O)C(=O)O.C(=CC(=O)O)C(=O)O

> <PUBCHEM_CACTVS_TPSA>
209

> <PUBCHEM_MONOISOTOPIC_WEIGHT>
690.210399

> <PUBCHEM_TOTAL_CHARGE>
0

> <PUBCHEM_HEAVY_ATOM_COUNT>
48

> <PUBCHEM_ATOM_DEF_STEREO_COUNT>
0

> <PUBCHEM_ATOM_UDEF_STEREO_COUNT>
0

> <PUBCHEM_BOND_DEF_STEREO_COUNT>
0

> <PUBCHEM_BOND_UDEF_STEREO_COUNT>
2

> <PUBCHEM_ISOTOPIC_ATOM_COUNT>
0

> <PUBCHEM_COMPONENT_COUNT>
3

> <PUBCHEM_CACTVS_TAUTO_COUNT>
1

> <PUBCHEM_COORDINATE_TYPE>
1
5
255

> <PUBCHEM_BONDANNOTATIONS>
26  28  8
26  30  8
28  32  8
30  33  8
32  35  8
33  35  8
34  36  8
34  37  8
36  38  8
37  39  8
38  40  8
39  40  8
41  42  1
43  44  1

$$$$

