51090983
  -OEChem-06241223012D

 53 56  0     1  0  0  0  0  0999 V2000
    6.5282   -2.7800    0.0000 O   0  0  0  0  0  0  0  0  0  0  0  0
    4.7962    0.2200    0.0000 O   0  0  0  0  0  0  0  0  0  0  0  0
    7.3942   -1.2800    0.0000 N   0  0  0  0  0  0  0  0  0  0  0  0
    5.6622    1.7200    0.0000 N   0  0  0  0  0  0  0  0  0  0  0  0
    8.2603   -2.7800    0.0000 C   0  0  0  0  0  0  0  0  0  0  0  0
    8.7603   -3.6460    0.0000 C   0  0  0  0  0  0  0  0  0  0  0  0
    9.2603   -2.7800    0.0000 C   0  0  0  0  0  0  0  0  0  0  0  0
    6.5282    0.2200    0.0000 C   0  0  3  0  0  0  0  0  0  0  0  0
    6.5282   -0.7800    0.0000 C   0  0  0  0  0  0  0  0  0  0  0  0
    7.3942   -2.2800    0.0000 C   0  0  0  0  0  0  0  0  0  0  0  0
    7.3942    0.7200    0.0000 C   0  0  0  0  0  0  0  0  0  0  0  0
    4.8532    2.3078    0.0000 C   0  0  3  0  0  0  0  0  0  0  0  0
    8.2603   -0.7800    0.0000 C   0  0  0  0  0  0  0  0  0  0  0  0
    8.2603    0.2200    0.0000 C   0  0  0  0  0  0  0  0  0  0  0  0
    5.6622    0.7200    0.0000 C   0  0  0  0  0  0  0  0  0  0  0  0
    5.1622    3.2588    0.0000 C   0  0  0  0  0  0  0  0  0  0  0  0
    6.4712    2.3078    0.0000 C   0  0  0  0  0  0  0  0  0  0  0  0
    6.1622    3.2588    0.0000 C   0  0  0  0  0  0  0  0  0  0  0  0
    3.9021    1.9988    0.0000 C   0  0  0  0  0  0  0  0  0  0  0  0
    3.1590    2.6679    0.0000 C   0  0  0  0  0  0  0  0  0  0  0  0
    3.6942    1.0206    0.0000 C   0  0  0  0  0  0  0  0  0  0  0  0
    2.2079    2.3589    0.0000 C   0  0  0  0  0  0  0  0  0  0  0  0
    3.3669    3.6460    0.0000 C   0  0  0  0  0  0  0  0  0  0  0  0
    2.7431    0.7116    0.0000 C   0  0  0  0  0  0  0  0  0  0  0  0
    2.0000    1.3807    0.0000 C   0  0  0  0  0  0  0  0  0  0  0  0
    7.8219   -3.2184    0.0000 H   0  0  0  0  0  0  0  0  0  0  0  0
    9.8429   -2.9921    0.0000 H   0  0  0  0  0  0  0  0  0  0  0  0
    9.3679   -2.1694    0.0000 H   0  0  0  0  0  0  0  0  0  0  0  0
    8.2853   -4.0446    0.0000 H   0  0  0  0  0  0  0  0  0  0  0  0
    9.2352   -4.0446    0.0000 H   0  0  0  0  0  0  0  0  0  0  0  0
    6.5282    0.8400    0.0000 H   0  0  0  0  0  0  0  0  0  0  0  0
    5.9176   -0.6723    0.0000 H   0  0  0  0  0  0  0  0  0  0  0  0
    6.3162   -1.3626    0.0000 H   0  0  0  0  0  0  0  0  0  0  0  0
    4.4148    2.7462    0.0000 H   0  0  0  0  0  0  0  0  0  0  0  0
    7.7928    1.1949    0.0000 H   0  0  0  0  0  0  0  0  0  0  0  0
    6.9957    1.1949    0.0000 H   0  0  0  0  0  0  0  0  0  0  0  0
    8.4723   -1.3626    0.0000 H   0  0  0  0  0  0  0  0  0  0  0  0
    8.8708   -0.6723    0.0000 H   0  0  0  0  0  0  0  0  0  0  0  0
    8.8708    0.1123    0.0000 H   0  0  0  0  0  0  0  0  0  0  0  0
    8.4723    0.8026    0.0000 H   0  0  0  0  0  0  0  0  0  0  0  0
    5.2270    3.8754    0.0000 H   0  0  0  0  0  0  0  0  0  0  0  0
    4.5557    3.3877    0.0000 H   0  0  0  0  0  0  0  0  0  0  0  0
    6.7812    1.7708    0.0000 H   0  0  0  0  0  0  0  0  0  0  0  0
    7.0376    2.5600    0.0000 H   0  0  0  0  0  0  0  0  0  0  0  0
    6.7686    3.3877    0.0000 H   0  0  0  0  0  0  0  0  0  0  0  0
    6.0974    3.8754    0.0000 H   0  0  0  0  0  0  0  0  0  0  0  0
    4.1550    0.6057    0.0000 H   0  0  0  0  0  0  0  0  0  0  0  0
    1.7472    2.7737    0.0000 H   0  0  0  0  0  0  0  0  0  0  0  0
    3.9733    3.5171    0.0000 H   0  0  0  0  0  0  0  0  0  0  0  0
    3.4958    4.2525    0.0000 H   0  0  0  0  0  0  0  0  0  0  0  0
    2.7604    3.7749    0.0000 H   0  0  0  0  0  0  0  0  0  0  0  0
    2.6142    0.1051    0.0000 H   0  0  0  0  0  0  0  0  0  0  0  0
    1.4103    1.1891    0.0000 H   0  0  0  0  0  0  0  0  0  0  0  0
  1 10  2  0  0  0  0
  2 15  2  0  0  0  0
  3  9  1  0  0  0  0
  3 10  1  0  0  0  0
  3 13  1  0  0  0  0
  4 12  1  0  0  0  0
  4 15  1  0  0  0  0
  4 17  1  0  0  0  0
  5  6  1  0  0  0  0
  5  7  1  0  0  0  0
  5 10  1  0  0  0  0
  5 26  1  0  0  0  0
  6  7  1  0  0  0  0
  6 29  1  0  0  0  0
  6 30  1  0  0  0  0
  7 27  1  0  0  0  0
  7 28  1  0  0  0  0
  8  9  1  0  0  0  0
  8 11  1  0  0  0  0
  8 15  1  0  0  0  0
  8 31  1  0  0  0  0
  9 32  1  0  0  0  0
  9 33  1  0  0  0  0
 11 14  1  0  0  0  0
 11 35  1  0  0  0  0
 11 36  1  0  0  0  0
 12 16  1  0  0  0  0
 12 19  1  0  0  0  0
 12 34  1  0  0  0  0
 13 14  1  0  0  0  0
 13 37  1  0  0  0  0
 13 38  1  0  0  0  0
 14 39  1  0  0  0  0
 14 40  1  0  0  0  0
 16 18  1  0  0  0  0
 16 41  1  0  0  0  0
 16 42  1  0  0  0  0
 17 18  1  0  0  0  0
 17 43  1  0  0  0  0
 17 44  1  0  0  0  0
 18 45  1  0  0  0  0
 18 46  1  0  0  0  0
 19 20  1  0  0  0  0
 19 21  2  0  0  0  0
 20 22  2  0  0  0  0
 20 23  1  0  0  0  0
 21 24  1  0  0  0  0
 21 47  1  0  0  0  0
 22 25  1  0  0  0  0
 22 48  1  0  0  0  0
 23 49  1  0  0  0  0
 23 50  1  0  0  0  0
 23 51  1  0  0  0  0
 24 25  2  0  0  0  0
 24 52  1  0  0  0  0
 25 53  1  0  0  0  0
M  END
> <PUBCHEM_COMPOUND_CID>
51090983

> <PUBCHEM_COMPOUND_CANONICALIZED>
1

> <PUBCHEM_CACTVS_COMPLEXITY>
516

> <PUBCHEM_CACTVS_HBOND_ACCEPTOR>
2

> <PUBCHEM_CACTVS_HBOND_DONOR>
0

> <PUBCHEM_CACTVS_ROTATABLE_BOND>
3

> <PUBCHEM_CACTVS_SUBSKEYS>
AAADceB7MAAAAAAAAAAAAAAAGAAAAWAAAAA8QAAAAAAAAAABAAAAHgAAAAAADSjBmAQyAIMAAACIAiFSEACCAAAgAAAIiAEIBIgIIDqA0RGEIAhghgCIiAcYgcAOgAAAAAAQAAAAAAAAACAAAAAAAAAAAA==

> <PUBCHEM_IUPAC_OPENEYE_NAME>
cyclopropyl-[3-[2-(o-tolyl)pyrrolidine-1-carbonyl]-1-piperidyl]methanone

> <PUBCHEM_IUPAC_CAS_NAME>
cyclopropyl-[3-[[2-(2-methylphenyl)-1-pyrrolidinyl]-oxomethyl]-1-piperidinyl]methanone

> <PUBCHEM_IUPAC_NAME>
cyclopropyl-[3-[2-(2-methylphenyl)pyrrolidine-1-carbonyl]piperidin-1-yl]methanone

> <PUBCHEM_IUPAC_SYSTEMATIC_NAME>
cyclopropyl-[3-[2-(2-methylphenyl)pyrrolidin-1-yl]carbonylpiperidin-1-yl]methanone

> <PUBCHEM_IUPAC_TRADITIONAL_NAME>
cyclopropyl-[3-[2-(o-tolyl)pyrrolidine-1-carbonyl]piperidino]methanone

> <PUBCHEM_IUPAC_INCHI>
InChI=1S/C21H28N2O2/c1-15-6-2-3-8-18(15)19-9-5-13-23(19)21(25)17-7-4-12-22(14-17)20(24)16-10-11-16/h2-3,6,8,16-17,19H,4-5,7,9-14H2,1H3

> <PUBCHEM_IUPAC_INCHIKEY>
AHFGRGVRTGOMMJ-UHFFFAOYSA-N

> <PUBCHEM_XLOGP3_AA>
2.5

> <PUBCHEM_EXACT_MASS>
340.215078

> <PUBCHEM_MOLECULAR_FORMULA>
C21H28N2O2

> <PUBCHEM_MOLECULAR_WEIGHT>
340.45922

> <PUBCHEM_OPENEYE_CAN_SMILES>
CC1=CC=CC=C1C2CCCN2C(=O)C3CCCN(C3)C(=O)C4CC4

> <PUBCHEM_OPENEYE_ISO_SMILES>
CC1=CC=CC=C1C2CCCN2C(=O)C3CCCN(C3)C(=O)C4CC4

> <PUBCHEM_CACTVS_TPSA>
40.6

> <PUBCHEM_MONOISOTOPIC_WEIGHT>
340.215078

> <PUBCHEM_TOTAL_CHARGE>
0

> <PUBCHEM_HEAVY_ATOM_COUNT>
25

> <PUBCHEM_ATOM_DEF_STEREO_COUNT>
0

> <PUBCHEM_ATOM_UDEF_STEREO_COUNT>
2

> <PUBCHEM_BOND_DEF_STEREO_COUNT>
0

> <PUBCHEM_BOND_UDEF_STEREO_COUNT>
0

> <PUBCHEM_ISOTOPIC_ATOM_COUNT>
0

> <PUBCHEM_COMPONENT_COUNT>
1

> <PUBCHEM_CACTVS_TAUTO_COUNT>
1

> <PUBCHEM_COORDINATE_TYPE>
1
5
255

> <PUBCHEM_BONDANNOTATIONS>
12  19  3
19  20  8
19  21  8
20  22  8
21  24  8
22  25  8
24  25  8
8  15  3

$$$$

