4255
  -OEChem-06251223592D

 33 34  0     0  0  0  0  0  0999 V2000
    2.8660    4.3965    0.0000 O   0  0  0  0  0  0  0  0  0  0  0  0
    4.1349   -2.6739    0.0000 O   0  0  0  0  0  0  0  0  0  0  0  0
    2.5526   -1.9694    0.0000 O   0  5  0  0  0  0  0  0  0  0  0  0
    2.8660    2.3965    0.0000 N   0  0  0  0  0  0  0  0  0  0  0  0
    2.8660    1.3965    0.0000 N   0  3  0  0  0  0  0  0  0  0  0  0
    2.0570    0.8087    0.0000 N   0  0  0  0  0  0  0  0  0  0  0  0
    3.9538   -0.9514    0.0000 N   0  0  0  0  0  0  0  0  0  0  0  0
    3.7320    2.8965    0.0000 C   0  0  0  0  0  0  0  0  0  0  0  0
    2.0000    2.8965    0.0000 C   0  0  0  0  0  0  0  0  0  0  0  0
    3.7320    3.8965    0.0000 C   0  0  0  0  0  0  0  0  0  0  0  0
    2.0000    3.8965    0.0000 C   0  0  0  0  0  0  0  0  0  0  0  0
    3.6750    0.8087    0.0000 C   0  0  0  0  0  0  0  0  0  0  0  0
    2.3660   -0.1424    0.0000 C   0  0  0  0  0  0  0  0  0  0  0  0
    3.3660   -0.1424    0.0000 C   0  0  0  0  0  0  0  0  0  0  0  0
    3.5471   -1.8649    0.0000 C   0  0  0  0  0  0  0  0  0  0  0  0
    3.7281   -3.5875    0.0000 C   0  0  0  0  0  0  0  0  0  0  0  0
    4.3159   -4.3965    0.0000 C   0  0  0  0  0  0  0  0  0  0  0  0
    3.9441    2.3139    0.0000 H   0  0  0  0  0  0  0  0  0  0  0  0
    4.3426    3.0042    0.0000 H   0  0  0  0  0  0  0  0  0  0  0  0
    1.3894    3.0042    0.0000 H   0  0  0  0  0  0  0  0  0  0  0  0
    1.7880    2.3139    0.0000 H   0  0  0  0  0  0  0  0  0  0  0  0
    4.3426    3.7888    0.0000 H   0  0  0  0  0  0  0  0  0  0  0  0
    1.7880    4.4791    0.0000 H   0  0  0  0  0  0  0  0  0  0  0  0
    1.3894    3.7888    0.0000 H   0  0  0  0  0  0  0  0  0  0  0  0
    3.9441    4.4791    0.0000 H   0  0  0  0  0  0  0  0  0  0  0  0
    4.2647    1.0003    0.0000 H   0  0  0  0  0  0  0  0  0  0  0  0
    1.7596   -0.2713    0.0000 H   0  0  0  0  0  0  0  0  0  0  0  0
    2.4308   -0.7590    0.0000 H   0  0  0  0  0  0  0  0  0  0  0  0
    3.2141   -3.2408    0.0000 H   0  0  0  0  0  0  0  0  0  0  0  0
    3.2974   -4.0335    0.0000 H   0  0  0  0  0  0  0  0  0  0  0  0
    3.8143   -4.7609    0.0000 H   0  0  0  0  0  0  0  0  0  0  0  0
    4.6803   -4.8981    0.0000 H   0  0  0  0  0  0  0  0  0  0  0  0
    4.8175   -4.0321    0.0000 H   0  0  0  0  0  0  0  0  0  0  0  0
  1 10  1  0  0  0  0
  1 11  1  0  0  0  0
  2 15  1  0  0  0  0
  2 16  1  0  0  0  0
  3 15  1  0  0  0  0
  4  5  1  0  0  0  0
  4  8  1  0  0  0  0
  4  9  1  0  0  0  0
  5  6  2  0  0  0  0
  5 12  1  0  0  0  0
  6 13  1  0  0  0  0
  7 14  1  0  0  0  0
  7 15  2  0  0  0  0
  8 10  1  0  0  0  0
  8 18  1  0  0  0  0
  8 19  1  0  0  0  0
  9 11  1  0  0  0  0
  9 20  1  0  0  0  0
  9 21  1  0  0  0  0
 10 22  1  0  0  0  0
 10 25  1  0  0  0  0
 11 23  1  0  0  0  0
 11 24  1  0  0  0  0
 12 14  2  0  0  0  0
 12 26  1  0  0  0  0
 13 14  1  0  0  0  0
 13 27  1  0  0  0  0
 13 28  1  0  0  0  0
 16 17  1  0  0  0  0
 16 29  1  0  0  0  0
 16 30  1  0  0  0  0
 17 31  1  0  0  0  0
 17 32  1  0  0  0  0
 17 33  1  0  0  0  0
M  CHG  2   3  -1   5   1
M  END
> <PUBCHEM_COMPOUND_CID>
4255

> <PUBCHEM_COMPOUND_CANONICALIZED>
1

> <PUBCHEM_CACTVS_COMPLEXITY>
359

> <PUBCHEM_CACTVS_HBOND_ACCEPTOR>
6

> <PUBCHEM_CACTVS_HBOND_DONOR>
0

> <PUBCHEM_CACTVS_ROTATABLE_BOND>
4

> <PUBCHEM_CACTVS_SUBSKEYS>
AAADceBzsAAAAAAAAAAAAAAAAAAAAQAAAAAsAAAAAAAAAAAAAAAAHgAIAAAACAjhgAYCCAIABACiAARGRACAAAAAAgAQAAAIAAASQAAAAQADAAAAAACUAAAAAAAAAAAAAAAAAAAAAAAAAAAAAAAAAAAAAA==

> <PUBCHEM_IUPAC_OPENEYE_NAME>
1-ethoxy-N-(1-morpholino-3H-pyrazol-1-ium-4-yl)methanimidate

> <PUBCHEM_IUPAC_CAS_NAME>
1-ethoxy-N-[1-(4-morpholinyl)-3H-pyrazol-1-ium-4-yl]methanimidate

> <PUBCHEM_IUPAC_NAME>
1-ethoxy-N-(1-morpholin-4-yl-3H-pyrazol-1-ium-4-yl)methanimidate

> <PUBCHEM_IUPAC_SYSTEMATIC_NAME>
1-ethoxy-N-(1-morpholin-4-yl-3H-pyrazol-1-ium-4-yl)methanimidate

> <PUBCHEM_IUPAC_TRADITIONAL_NAME>
1-ethoxy-N-(1-morpholino-3H-pyrazol-1-ium-4-yl)formimidate

> <PUBCHEM_IUPAC_INCHI>
InChI=1S/C10H16N4O3/c1-2-17-10(15)12-9-7-11-14(8-9)13-3-5-16-6-4-13/h8H,2-7H2,1H3

> <PUBCHEM_IUPAC_INCHIKEY>
QEVNKXFDXHGEFH-UHFFFAOYSA-N

> <PUBCHEM_XLOGP3_AA>
1.5

> <PUBCHEM_EXACT_MASS>
240.12224

> <PUBCHEM_MOLECULAR_FORMULA>
C10H16N4O3

> <PUBCHEM_MOLECULAR_WEIGHT>
240.25904

> <PUBCHEM_OPENEYE_CAN_SMILES>
CCOC(=NC1=C[N+](=NC1)N2CCOCC2)[O-]

> <PUBCHEM_OPENEYE_ISO_SMILES>
CCOC(=NC1=C[N+](=NC1)N2CCOCC2)[O-]

> <PUBCHEM_CACTVS_TPSA>
72.5

> <PUBCHEM_MONOISOTOPIC_WEIGHT>
240.12224

> <PUBCHEM_TOTAL_CHARGE>
0

> <PUBCHEM_HEAVY_ATOM_COUNT>
17

> <PUBCHEM_ATOM_DEF_STEREO_COUNT>
0

> <PUBCHEM_ATOM_UDEF_STEREO_COUNT>
0

> <PUBCHEM_BOND_DEF_STEREO_COUNT>
0

> <PUBCHEM_BOND_UDEF_STEREO_COUNT>
0

> <PUBCHEM_ISOTOPIC_ATOM_COUNT>
0

> <PUBCHEM_COMPONENT_COUNT>
1

> <PUBCHEM_CACTVS_TAUTO_COUNT>
1

> <PUBCHEM_COORDINATE_TYPE>
1
5
255

$$$$

