854077
  -OEChem-06241222472D

 29 32  0     0  0  0  0  0  0999 V2000
    4.5274    0.5759    0.0000 N   0  0  0  0  0  0  0  0  0  0  0  0
    6.1391    0.5773    0.0000 N   0  0  0  0  0  0  0  0  0  0  0  0
    5.0274    2.1147    0.0000 N   0  0  0  0  0  0  0  0  0  0  0  0
    5.3364    1.1637    0.0000 C   0  0  0  0  0  0  0  0  0  0  0  0
    3.7183    1.1637    0.0000 C   0  0  0  0  0  0  0  0  0  0  0  0
    5.8311   -0.3679    0.0000 C   0  0  0  0  0  0  0  0  0  0  0  0
    4.8370   -0.3687    0.0000 C   0  0  0  0  0  0  0  0  0  0  0  0
    4.0274    2.1147    0.0000 C   0  0  0  0  0  0  0  0  0  0  0  0
    6.4189   -1.1769    0.0000 C   0  0  0  0  0  0  0  0  0  0  0  0
    2.7029    0.9314    0.0000 C   0  0  0  0  0  0  0  0  0  0  0  0
    3.3424    2.8995    0.0000 C   0  0  0  0  0  0  0  0  0  0  0  0
    2.0000    1.7001    0.0000 C   0  0  0  0  0  0  0  0  0  0  0  0
    2.3219    2.6908    0.0000 C   0  0  0  0  0  0  0  0  0  0  0  0
    6.0121   -2.0904    0.0000 C   0  0  0  0  0  0  0  0  0  0  0  0
    7.4134   -1.0724    0.0000 C   0  0  0  0  0  0  0  0  0  0  0  0
    6.5999   -2.8995    0.0000 C   0  0  0  0  0  0  0  0  0  0  0  0
    8.0012   -1.8814    0.0000 C   0  0  0  0  0  0  0  0  0  0  0  0
    7.5944   -2.7949    0.0000 C   0  0  0  0  0  0  0  0  0  0  0  0
    4.4734   -0.8710    0.0000 H   0  0  0  0  0  0  0  0  0  0  0  0
    6.7291    0.7678    0.0000 H   0  0  0  0  0  0  0  0  0  0  0  0
    2.5182    0.3396    0.0000 H   0  0  0  0  0  0  0  0  0  0  0  0
    3.5408    3.4869    0.0000 H   0  0  0  0  0  0  0  0  0  0  0  0
    1.3940    1.5689    0.0000 H   0  0  0  0  0  0  0  0  0  0  0  0
    1.9088    3.1531    0.0000 H   0  0  0  0  0  0  0  0  0  0  0  0
    5.3955   -2.1552    0.0000 H   0  0  0  0  0  0  0  0  0  0  0  0
    7.6656   -0.5060    0.0000 H   0  0  0  0  0  0  0  0  0  0  0  0
    6.3477   -3.4659    0.0000 H   0  0  0  0  0  0  0  0  0  0  0  0
    8.6178   -1.8166    0.0000 H   0  0  0  0  0  0  0  0  0  0  0  0
    7.9589   -3.2965    0.0000 H   0  0  0  0  0  0  0  0  0  0  0  0
  1  4  1  0  0  0  0
  1  5  1  0  0  0  0
  1  7  1  0  0  0  0
  2  4  1  0  0  0  0
  2  6  1  0  0  0  0
  2 20  1  0  0  0  0
  3  4  2  0  0  0  0
  3  8  1  0  0  0  0
  5  8  1  0  0  0  0
  5 10  2  0  0  0  0
  6  7  2  0  0  0  0
  6  9  1  0  0  0  0
  7 19  1  0  0  0  0
  8 11  2  0  0  0  0
  9 14  2  0  0  0  0
  9 15  1  0  0  0  0
 10 12  1  0  0  0  0
 10 21  1  0  0  0  0
 11 13  1  0  0  0  0
 11 22  1  0  0  0  0
 12 13  2  0  0  0  0
 12 23  1  0  0  0  0
 13 24  1  0  0  0  0
 14 16  1  0  0  0  0
 14 25  1  0  0  0  0
 15 17  2  0  0  0  0
 15 26  1  0  0  0  0
 16 18  2  0  0  0  0
 16 27  1  0  0  0  0
 17 18  1  0  0  0  0
 17 28  1  0  0  0  0
 18 29  1  0  0  0  0
M  END
> <PUBCHEM_COMPOUND_CID>
854077

> <PUBCHEM_COMPOUND_CANONICALIZED>
1

> <PUBCHEM_CACTVS_COMPLEXITY>
300

> <PUBCHEM_CACTVS_HBOND_ACCEPTOR>
1

> <PUBCHEM_CACTVS_HBOND_DONOR>
1

> <PUBCHEM_CACTVS_ROTATABLE_BOND>
1

> <PUBCHEM_CACTVS_SUBSKEYS>
AAADccBzAAAAAAAAAAAAAAAAAAAAAWLAAAAwYAAAAAAWAFgB/AAAHAAQAAAADAjBHgQ90LfNmACgAzRnZACCgC2xEqAJ2SA4dJiIaOLAmZGUIAhokALIyCcQgIAOAAAAAAAAACAAAAAAAAAAQAAAAAAAAA==

> <PUBCHEM_IUPAC_OPENEYE_NAME>
2-phenyl-3H-imidazo[1,2-a]benzimidazole

> <PUBCHEM_IUPAC_CAS_NAME>
2-phenyl-3H-imidazo[1,2-a]benzimidazole

> <PUBCHEM_IUPAC_NAME>
2-phenyl-3H-imidazo[1,2-a]benzimidazole

> <PUBCHEM_IUPAC_SYSTEMATIC_NAME>
2-phenyl-3H-imidazo[1,2-a]benzimidazole

> <PUBCHEM_IUPAC_TRADITIONAL_NAME>
2-phenyl-3H-imidazo[1,2-a]benzimidazole

> <PUBCHEM_IUPAC_INCHI>
InChI=1S/C15H11N3/c1-2-6-11(7-3-1)13-10-18-14-9-5-4-8-12(14)16-15(18)17-13/h1-10H,(H,16,17)

> <PUBCHEM_IUPAC_INCHIKEY>
LOYLEFYQOSIFBB-UHFFFAOYSA-N

> <PUBCHEM_XLOGP3_AA>
3.2

> <PUBCHEM_EXACT_MASS>
233.095297

> <PUBCHEM_MOLECULAR_FORMULA>
C15H11N3

> <PUBCHEM_MOLECULAR_WEIGHT>
233.26794

> <PUBCHEM_OPENEYE_CAN_SMILES>
C1=CC=C(C=C1)C2=CN3C4=CC=CC=C4N=C3N2

> <PUBCHEM_OPENEYE_ISO_SMILES>
C1=CC=C(C=C1)C2=CN3C4=CC=CC=C4N=C3N2

> <PUBCHEM_CACTVS_TPSA>
33.1

> <PUBCHEM_MONOISOTOPIC_WEIGHT>
233.095297

> <PUBCHEM_TOTAL_CHARGE>
0

> <PUBCHEM_HEAVY_ATOM_COUNT>
18

> <PUBCHEM_ATOM_DEF_STEREO_COUNT>
0

> <PUBCHEM_ATOM_UDEF_STEREO_COUNT>
0

> <PUBCHEM_BOND_DEF_STEREO_COUNT>
0

> <PUBCHEM_BOND_UDEF_STEREO_COUNT>
0

> <PUBCHEM_ISOTOPIC_ATOM_COUNT>
0

> <PUBCHEM_COMPONENT_COUNT>
1

> <PUBCHEM_CACTVS_TAUTO_COUNT>
2

> <PUBCHEM_COORDINATE_TYPE>
1
5
255

> <PUBCHEM_BONDANNOTATIONS>
1  4  8
1  5  8
1  7  8
10  12  8
11  13  8
12  13  8
14  16  8
15  17  8
16  18  8
17  18  8
2  4  8
2  6  8
3  4  8
3  8  8
5  10  8
5  8  8
6  7  8
8  11  8
9  14  8
9  15  8

$$$$

