10625
  -OEChem-06261204462D

 28 29  0     0  0  0  0  0  0999 V2000
    4.6783   -0.5234    0.0000 N   0  0  0  0  0  0  0  0  0  0  0  0
    4.6783   -2.1329    0.0000 N   0  0  0  0  0  0  0  0  0  0  0  0
    2.8660   -2.3282    0.0000 N   0  0  0  0  0  0  0  0  0  0  0  0
    2.0000   -0.8281    0.0000 N   0  0  0  0  0  0  0  0  0  0  0  0
    2.8660    0.6719    0.0000 N   0  0  0  0  0  0  0  0  0  0  0  0
    4.9889    0.4271    0.0000 C   0  0  0  0  0  0  0  0  0  0  0  0
    3.7320   -0.8281    0.0000 C   0  0  0  0  0  0  0  0  0  0  0  0
    3.7320   -1.8282    0.0000 C   0  0  0  0  0  0  0  0  0  0  0  0
    5.2619   -1.3282    0.0000 C   0  0  0  0  0  0  0  0  0  0  0  0
    5.9674    0.6333    0.0000 C   0  0  0  0  0  0  0  0  0  0  0  0
    2.8660   -0.3281    0.0000 C   0  0  0  0  0  0  0  0  0  0  0  0
    6.2781    1.5838    0.0000 C   0  0  0  0  0  0  0  0  0  0  0  0
    7.2566    1.7901    0.0000 C   0  0  0  0  0  0  0  0  0  0  0  0
    5.6103    2.3282    0.0000 C   0  0  0  0  0  0  0  0  0  0  0  0
    2.0000   -1.8282    0.0000 C   0  0  0  0  0  0  0  0  0  0  0  0
    4.9684    1.0468    0.0000 H   0  0  0  0  0  0  0  0  0  0  0  0
    4.3751    0.5145    0.0000 H   0  0  0  0  0  0  0  0  0  0  0  0
    5.8819   -1.3282    0.0000 H   0  0  0  0  0  0  0  0  0  0  0  0
    6.3815    0.1719    0.0000 H   0  0  0  0  0  0  0  0  0  0  0  0
    6.0717    2.7422    0.0000 H   0  0  0  0  0  0  0  0  0  0  0  0
    7.3845    1.1834    0.0000 H   0  0  0  0  0  0  0  0  0  0  0  0
    7.8633    1.9179    0.0000 H   0  0  0  0  0  0  0  0  0  0  0  0
    7.1288    2.3967    0.0000 H   0  0  0  0  0  0  0  0  0  0  0  0
    5.1962    2.7896    0.0000 H   0  0  0  0  0  0  0  0  0  0  0  0
    5.1488    1.9141    0.0000 H   0  0  0  0  0  0  0  0  0  0  0  0
    1.4631   -2.1382    0.0000 H   0  0  0  0  0  0  0  0  0  0  0  0
    2.3291    0.9819    0.0000 H   0  0  0  0  0  0  0  0  0  0  0  0
    3.4030    0.9819    0.0000 H   0  0  0  0  0  0  0  0  0  0  0  0
  1  6  1  0  0  0  0
  1  7  1  0  0  0  0
  1  9  1  0  0  0  0
  2  8  1  0  0  0  0
  2  9  2  0  0  0  0
  3  8  2  0  0  0  0
  3 15  1  0  0  0  0
  4 11  1  0  0  0  0
  4 15  2  0  0  0  0
  5 11  1  0  0  0  0
  5 27  1  0  0  0  0
  5 28  1  0  0  0  0
  6 10  1  0  0  0  0
  6 16  1  0  0  0  0
  6 17  1  0  0  0  0
  7  8  1  0  0  0  0
  7 11  2  0  0  0  0
  9 18  1  0  0  0  0
 10 12  2  0  0  0  0
 10 19  1  0  0  0  0
 12 13  1  0  0  0  0
 12 14  1  0  0  0  0
 13 21  1  0  0  0  0
 13 22  1  0  0  0  0
 13 23  1  0  0  0  0
 14 20  1  0  0  0  0
 14 24  1  0  0  0  0
 14 25  1  0  0  0  0
 15 26  1  0  0  0  0
M  END
> <PUBCHEM_COMPOUND_CID>
10625

> <PUBCHEM_COMPOUND_CANONICALIZED>
1

> <PUBCHEM_CACTVS_COMPLEXITY>
248

> <PUBCHEM_CACTVS_HBOND_ACCEPTOR>
4

> <PUBCHEM_CACTVS_HBOND_DONOR>
1

> <PUBCHEM_CACTVS_ROTATABLE_BOND>
2

> <PUBCHEM_CACTVS_SUBSKEYS>
AAADccBzgAAAAAAAAAAAAAAAAAAAAWAAAAAsAAAAAAAAAFgB+AAAHAAQAAAADAjBFwQH8L9MEACgAyZjZACAgC0REKABWCAoVBCASABASUAUBAgIAALAACAAAAAAAAAAAAAAAAAAAAAAAAAAAAAAAAAAAA==

> <PUBCHEM_IUPAC_OPENEYE_NAME>
7-(3-methylbut-2-enyl)purin-6-amine

> <PUBCHEM_IUPAC_CAS_NAME>
7-(3-methylbut-2-enyl)-6-purinamine

> <PUBCHEM_IUPAC_NAME>
7-(3-methylbut-2-enyl)purin-6-amine

> <PUBCHEM_IUPAC_SYSTEMATIC_NAME>
7-(3-methylbut-2-enyl)purin-6-amine

> <PUBCHEM_IUPAC_TRADITIONAL_NAME>
[7-(3-methylbut-2-enyl)purin-6-yl]amine

> <PUBCHEM_IUPAC_INCHI>
InChI=1S/C10H13N5/c1-7(2)3-4-15-6-14-10-8(15)9(11)12-5-13-10/h3,5-6H,4H2,1-2H3,(H2,11,12,13)

> <PUBCHEM_IUPAC_INCHIKEY>
QMJOEWBOCAQPCN-UHFFFAOYSA-N

> <PUBCHEM_XLOGP3_AA>
1.3

> <PUBCHEM_EXACT_MASS>
203.117095

> <PUBCHEM_MOLECULAR_FORMULA>
C10H13N5

> <PUBCHEM_MOLECULAR_WEIGHT>
203.24372

> <PUBCHEM_OPENEYE_CAN_SMILES>
CC(=CCN1C=NC2=C1C(=NC=N2)N)C

> <PUBCHEM_OPENEYE_ISO_SMILES>
CC(=CCN1C=NC2=C1C(=NC=N2)N)C

> <PUBCHEM_CACTVS_TPSA>
69.6

> <PUBCHEM_MONOISOTOPIC_WEIGHT>
203.117095

> <PUBCHEM_TOTAL_CHARGE>
0

> <PUBCHEM_HEAVY_ATOM_COUNT>
15

> <PUBCHEM_ATOM_DEF_STEREO_COUNT>
0

> <PUBCHEM_ATOM_UDEF_STEREO_COUNT>
0

> <PUBCHEM_BOND_DEF_STEREO_COUNT>
0

> <PUBCHEM_BOND_UDEF_STEREO_COUNT>
0

> <PUBCHEM_ISOTOPIC_ATOM_COUNT>
0

> <PUBCHEM_COMPONENT_COUNT>
1

> <PUBCHEM_CACTVS_TAUTO_COUNT>
3

> <PUBCHEM_COORDINATE_TYPE>
1
5
255

> <PUBCHEM_BONDANNOTATIONS>
1  7  8
1  9  8
2  8  8
2  9  8
3  15  8
3  8  8
4  11  8
4  15  8
7  11  8
7  8  8

$$$$

