11925
  -OEChem-06261206172D

 22 22  0     0  0  0  0  0  0999 V2000
    2.4810    0.0000    0.0000 Cl  0  5  0  0  0  0  0  0  0  0  0  0
    0.5369    3.1980    0.0000 N   0  3  0  0  0  0  0  0  0  0  0  0
    3.1350    3.6980    0.0000 C   0  0  0  0  0  0  0  0  0  0  0  0
    3.1350    4.6980    0.0000 C   0  0  0  0  0  0  0  0  0  0  0  0
    1.4030    3.6980    0.0000 C   0  0  0  0  0  0  0  0  0  0  0  0
    2.2690    3.1980    0.0000 C   0  0  0  0  0  0  0  0  0  0  0  0
    2.2690    5.1980    0.0000 C   0  0  0  0  0  0  0  0  0  0  0  0
    1.4030    4.6980    0.0000 C   0  0  0  0  0  0  0  0  0  0  0  0
    4.0290    3.1633    0.0000 C   0  0  0  0  0  0  0  0  0  0  0  0
    4.0290    5.2326    0.0000 C   0  0  0  0  0  0  0  0  0  0  0  0
    4.9350    3.6772    0.0000 C   0  0  0  0  0  0  0  0  0  0  0  0
    4.9350    4.7188    0.0000 C   0  0  0  0  0  0  0  0  0  0  0  0
    2.2690    2.5780    0.0000 H   0  0  0  0  0  0  0  0  0  0  0  0
    2.2690    5.8180    0.0000 H   0  0  0  0  0  0  0  0  0  0  0  0
    0.8660    5.0080    0.0000 H   0  0  0  0  0  0  0  0  0  0  0  0
    4.0218    2.5434    0.0000 H   0  0  0  0  0  0  0  0  0  0  0  0
    4.0218    5.8526    0.0000 H   0  0  0  0  0  0  0  0  0  0  0  0
    0.0000    2.8880    0.0000 H   0  0  0  0  0  0  0  0  0  0  0  0
    0.2269    3.7349    0.0000 H   0  0  0  0  0  0  0  0  0  0  0  0
    0.8469    2.6610    0.0000 H   0  0  0  0  0  0  0  0  0  0  0  0
    5.4708    3.3651    0.0000 H   0  0  0  0  0  0  0  0  0  0  0  0
    5.4708    5.0309    0.0000 H   0  0  0  0  0  0  0  0  0  0  0  0
  2  5  1  0  0  0  0
  2 18  1  0  0  0  0
  2 19  1  0  0  0  0
  2 20  1  0  0  0  0
  3  4  1  0  0  0  0
  3  6  1  0  0  0  0
  3  9  2  0  0  0  0
  4  7  1  0  0  0  0
  4 10  2  0  0  0  0
  5  6  2  0  0  0  0
  5  8  1  0  0  0  0
  6 13  1  0  0  0  0
  7  8  2  0  0  0  0
  7 14  1  0  0  0  0
  8 15  1  0  0  0  0
  9 11  1  0  0  0  0
  9 16  1  0  0  0  0
 10 12  1  0  0  0  0
 10 17  1  0  0  0  0
 11 12  2  0  0  0  0
 11 21  1  0  0  0  0
 12 22  1  0  0  0  0
M  CHG  2   1  -1   2   1
M  END
> <PUBCHEM_COMPOUND_CID>
11925

> <PUBCHEM_COMPOUND_CANONICALIZED>
1

> <PUBCHEM_CACTVS_COMPLEXITY>
133

> <PUBCHEM_CACTVS_HBOND_ACCEPTOR>
1

> <PUBCHEM_CACTVS_HBOND_DONOR>
1

> <PUBCHEM_CACTVS_ROTATABLE_BOND>
0

> <PUBCHEM_CACTVS_SUBSKEYS>
AAADccByAAAEAAAAAAAAAAAAAAAAAAAAAAAwYAAAAAAAAADBUAAAHAAQAAAADAiBGAAwwMBAAACAAiRCQACCAAAgAgAIiAAAZIgIICKAkZGAIABgkAAIyAcQgIAOiAAAQAAQAAAQAACAACAAAAAAAAAAAA==

> <PUBCHEM_IUPAC_OPENEYE_NAME>
2-naphthylammonium chloride

> <PUBCHEM_IUPAC_CAS_NAME>
2-naphthalenylammonium chloride

> <PUBCHEM_IUPAC_NAME>
naphthalen-2-ylazanium chloride

> <PUBCHEM_IUPAC_SYSTEMATIC_NAME>
naphthalen-2-ylazanium chloride

> <PUBCHEM_IUPAC_TRADITIONAL_NAME>
2-naphthylammonium chloride

> <PUBCHEM_IUPAC_INCHI>
InChI=1S/C10H9N.ClH/c11-10-6-5-8-3-1-2-4-9(8)7-10;/h1-7H,11H2;1H

> <PUBCHEM_IUPAC_INCHIKEY>
QKGIPGSKJBOHSL-UHFFFAOYSA-N

> <PUBCHEM_EXACT_MASS>
179.050177

> <PUBCHEM_MOLECULAR_FORMULA>
C10H10ClN

> <PUBCHEM_MOLECULAR_WEIGHT>
179.6461

> <PUBCHEM_OPENEYE_CAN_SMILES>
C1=CC=C2C=C(C=CC2=C1)[NH3+].[Cl-]

> <PUBCHEM_OPENEYE_ISO_SMILES>
C1=CC=C2C=C(C=CC2=C1)[NH3+].[Cl-]

> <PUBCHEM_CACTVS_TPSA>
27.6

> <PUBCHEM_MONOISOTOPIC_WEIGHT>
179.050177

> <PUBCHEM_TOTAL_CHARGE>
0

> <PUBCHEM_HEAVY_ATOM_COUNT>
12

> <PUBCHEM_ATOM_DEF_STEREO_COUNT>
0

> <PUBCHEM_ATOM_UDEF_STEREO_COUNT>
0

> <PUBCHEM_BOND_DEF_STEREO_COUNT>
0

> <PUBCHEM_BOND_UDEF_STEREO_COUNT>
0

> <PUBCHEM_ISOTOPIC_ATOM_COUNT>
0

> <PUBCHEM_COMPONENT_COUNT>
2

> <PUBCHEM_CACTVS_TAUTO_COUNT>
1

> <PUBCHEM_COORDINATE_TYPE>
1
5
255

> <PUBCHEM_BONDANNOTATIONS>
10  12  8
11  12  8
3  4  8
3  6  8
3  9  8
4  10  8
4  7  8
5  6  8
5  8  8
7  8  8
9  11  8

$$$$

