5024
  -OEChem-06261200282D

 45 47  0     1  0  0  0  0  0999 V2000
    7.8547    0.0121    0.0000 O   0  0  0  0  0  0  0  0  0  0  0  0
    7.8547   -2.0362    0.0000 O   0  0  0  0  0  0  0  0  0  0  0  0
    3.0000   -1.0121    0.0000 N   0  0  3  0  0  0  0  0  0  0  0  0
    4.4088    0.1114    0.0000 C   0  0  3  0  0  0  0  0  0  0  0  0
    3.4339   -0.1111    0.0000 C   0  0  0  0  0  0  0  0  0  0  0  0
    5.1906   -0.5121    0.0000 C   0  0  0  0  0  0  0  0  0  0  0  0
    3.4339   -1.9130    0.0000 C   0  0  0  0  0  0  0  0  0  0  0  0
    4.4088   -2.1356    0.0000 C   0  0  0  0  0  0  0  0  0  0  0  0
    5.1906   -1.5121    0.0000 C   0  0  0  0  0  0  0  0  0  0  0  0
    4.6313    1.0864    0.0000 C   0  0  0  0  0  0  0  0  0  0  0  0
    6.0846    0.0226    0.0000 C   0  0  0  0  0  0  0  0  0  0  0  0
    6.0846   -2.0467    0.0000 C   0  0  0  0  0  0  0  0  0  0  0  0
    2.0000   -1.0121    0.0000 C   0  0  0  0  0  0  0  0  0  0  0  0
    6.9906   -0.4912    0.0000 C   0  0  0  0  0  0  0  0  0  0  0  0
    6.9906   -1.5329    0.0000 C   0  0  0  0  0  0  0  0  0  0  0  0
    5.5869    1.3811    0.0000 C   0  0  0  0  0  0  0  0  0  0  0  0
    3.8983    1.7665    0.0000 C   0  0  0  0  0  0  0  0  0  0  0  0
    5.8094    2.3560    0.0000 C   0  0  0  0  0  0  0  0  0  0  0  0
    4.1208    2.7414    0.0000 C   0  0  0  0  0  0  0  0  0  0  0  0
    5.0764    3.0362    0.0000 C   0  0  0  0  0  0  0  0  0  0  0  0
    8.7227   -0.4846    0.0000 C   0  0  0  0  0  0  0  0  0  0  0  0
    7.8509   -3.0362    0.0000 C   0  0  0  0  0  0  0  0  0  0  0  0
    3.9704    0.5498    0.0000 H   0  0  0  0  0  0  0  0  0  0  0  0
    3.4339    0.5089    0.0000 H   0  0  0  0  0  0  0  0  0  0  0  0
    2.8294    0.0269    0.0000 H   0  0  0  0  0  0  0  0  0  0  0  0
    2.8294   -2.0510    0.0000 H   0  0  0  0  0  0  0  0  0  0  0  0
    3.4339   -2.5330    0.0000 H   0  0  0  0  0  0  0  0  0  0  0  0
    4.1398   -2.6942    0.0000 H   0  0  0  0  0  0  0  0  0  0  0  0
    4.8936   -2.5221    0.0000 H   0  0  0  0  0  0  0  0  0  0  0  0
    6.0774    0.6426    0.0000 H   0  0  0  0  0  0  0  0  0  0  0  0
    6.0774   -2.6667    0.0000 H   0  0  0  0  0  0  0  0  0  0  0  0
    2.0000   -0.3921    0.0000 H   0  0  0  0  0  0  0  0  0  0  0  0
    1.3800   -1.0121    0.0000 H   0  0  0  0  0  0  0  0  0  0  0  0
    2.0000   -1.6321    0.0000 H   0  0  0  0  0  0  0  0  0  0  0  0
    6.0414    0.9594    0.0000 H   0  0  0  0  0  0  0  0  0  0  0  0
    3.3058    1.5838    0.0000 H   0  0  0  0  0  0  0  0  0  0  0  0
    6.4019    2.5388    0.0000 H   0  0  0  0  0  0  0  0  0  0  0  0
    3.6663    3.1632    0.0000 H   0  0  0  0  0  0  0  0  0  0  0  0
    5.2143    3.6407    0.0000 H   0  0  0  0  0  0  0  0  0  0  0  0
    8.4148   -1.0227    0.0000 H   0  0  0  0  0  0  0  0  0  0  0  0
    9.2608   -0.7925    0.0000 H   0  0  0  0  0  0  0  0  0  0  0  0
    9.0306    0.0536    0.0000 H   0  0  0  0  0  0  0  0  0  0  0  0
    7.2309   -3.0338    0.0000 H   0  0  0  0  0  0  0  0  0  0  0  0
    7.8485   -3.6562    0.0000 H   0  0  0  0  0  0  0  0  0  0  0  0
    8.4709   -3.0386    0.0000 H   0  0  0  0  0  0  0  0  0  0  0  0
  1 14  1  0  0  0  0
  1 21  1  0  0  0  0
  2 15  1  0  0  0  0
  2 22  1  0  0  0  0
  3  5  1  0  0  0  0
  3  7  1  0  0  0  0
  3 13  1  0  0  0  0
  4  5  1  0  0  0  0
  4  6  1  0  0  0  0
  4 10  1  0  0  0  0
  4 23  1  0  0  0  0
  5 24  1  0  0  0  0
  5 25  1  0  0  0  0
  6  9  1  0  0  0  0
  6 11  2  0  0  0  0
  7  8  1  0  0  0  0
  7 26  1  0  0  0  0
  7 27  1  0  0  0  0
  8  9  1  0  0  0  0
  8 28  1  0  0  0  0
  8 29  1  0  0  0  0
  9 12  2  0  0  0  0
 10 16  2  0  0  0  0
 10 17  1  0  0  0  0
 11 14  1  0  0  0  0
 11 30  1  0  0  0  0
 12 15  1  0  0  0  0
 12 31  1  0  0  0  0
 13 32  1  0  0  0  0
 13 33  1  0  0  0  0
 13 34  1  0  0  0  0
 14 15  2  0  0  0  0
 16 18  1  0  0  0  0
 16 35  1  0  0  0  0
 17 19  2  0  0  0  0
 17 36  1  0  0  0  0
 18 20  2  0  0  0  0
 18 37  1  0  0  0  0
 19 20  1  0  0  0  0
 19 38  1  0  0  0  0
 20 39  1  0  0  0  0
 21 40  1  0  0  0  0
 21 41  1  0  0  0  0
 21 42  1  0  0  0  0
 22 43  1  0  0  0  0
 22 44  1  0  0  0  0
 22 45  1  0  0  0  0
M  END
> <PUBCHEM_COMPOUND_CID>
5024

> <PUBCHEM_COMPOUND_CANONICALIZED>
1

> <PUBCHEM_CACTVS_COMPLEXITY>
342

> <PUBCHEM_CACTVS_HBOND_ACCEPTOR>
3

> <PUBCHEM_CACTVS_HBOND_DONOR>
0

> <PUBCHEM_CACTVS_ROTATABLE_BOND>
3

> <PUBCHEM_CACTVS_SUBSKEYS>
AAADceB6MAAAAAAAAAAAAAAAAAAAAAAAAAAwYAAABYAAAAABQAAAHgAAAAAADQTBmAYyBoMABACAAiBCAAACCAAgIAAIiAAOiIgNJiKEsRuEMCIkwBGKqAeQ0PIOoAABAAAQQABAAAIAACCAAAAAAAAAAA==

> <PUBCHEM_IUPAC_OPENEYE_NAME>
7,8-dimethoxy-3-methyl-5-phenyl-1,2,4,5-tetrahydro-3-benzazepine

> <PUBCHEM_IUPAC_CAS_NAME>
7,8-dimethoxy-3-methyl-5-phenyl-1,2,4,5-tetrahydro-3-benzazepine

> <PUBCHEM_IUPAC_NAME>
7,8-dimethoxy-3-methyl-5-phenyl-1,2,4,5-tetrahydro-3-benzazepine

> <PUBCHEM_IUPAC_SYSTEMATIC_NAME>
7,8-dimethoxy-3-methyl-5-phenyl-1,2,4,5-tetrahydro-3-benzazepine

> <PUBCHEM_IUPAC_TRADITIONAL_NAME>
7,8-dimethoxy-3-methyl-5-phenyl-1,2,4,5-tetrahydro-3-benzazepine

> <PUBCHEM_IUPAC_INCHI>
InChI=1S/C19H23NO2/c1-20-10-9-15-11-18(21-2)19(22-3)12-16(15)17(13-20)14-7-5-4-6-8-14/h4-8,11-12,17H,9-10,13H2,1-3H3

> <PUBCHEM_IUPAC_INCHIKEY>
ICPHJSKVAZMKIV-UHFFFAOYSA-N

> <PUBCHEM_XLOGP3_AA>
3.7

> <PUBCHEM_EXACT_MASS>
297.172879

> <PUBCHEM_MOLECULAR_FORMULA>
C19H23NO2

> <PUBCHEM_MOLECULAR_WEIGHT>
297.39142

> <PUBCHEM_OPENEYE_CAN_SMILES>
CN1CCC2=CC(=C(C=C2C(C1)C3=CC=CC=C3)OC)OC

> <PUBCHEM_OPENEYE_ISO_SMILES>
CN1CCC2=CC(=C(C=C2C(C1)C3=CC=CC=C3)OC)OC

> <PUBCHEM_CACTVS_TPSA>
21.7

> <PUBCHEM_MONOISOTOPIC_WEIGHT>
297.172879

> <PUBCHEM_TOTAL_CHARGE>
0

> <PUBCHEM_HEAVY_ATOM_COUNT>
22

> <PUBCHEM_ATOM_DEF_STEREO_COUNT>
0

> <PUBCHEM_ATOM_UDEF_STEREO_COUNT>
1

> <PUBCHEM_BOND_DEF_STEREO_COUNT>
0

> <PUBCHEM_BOND_UDEF_STEREO_COUNT>
0

> <PUBCHEM_ISOTOPIC_ATOM_COUNT>
0

> <PUBCHEM_COMPONENT_COUNT>
1

> <PUBCHEM_CACTVS_TAUTO_COUNT>
1

> <PUBCHEM_COORDINATE_TYPE>
1
5
255

> <PUBCHEM_BONDANNOTATIONS>
10  16  8
10  17  8
11  14  8
12  15  8
14  15  8
16  18  8
17  19  8
18  20  8
19  20  8
4  10  3
6  11  8
6  9  8
9  12  8

$$$$

