17395571
  -OEChem-06241222512D

 42 45  0     0  0  0  0  0  0999 V2000
    5.2791    0.4568    0.0000 S   0  0  0  0  0  0  0  0  0  0  0  0
    4.0981   -1.2658    0.0000 O   0  0  0  0  0  0  0  0  0  0  0  0
    2.8660   -3.8046    0.0000 O   0  0  0  0  0  0  0  0  0  0  0  0
    3.7891   -2.2168    0.0000 N   0  0  0  0  0  0  0  0  0  0  0  0
    7.1759    2.2168    0.0000 N   0  0  0  0  0  0  0  0  0  0  0  0
    5.5579    2.2168    0.0000 N   0  0  0  0  0  0  0  0  0  0  0  0
    6.8669    1.2658    0.0000 N   0  0  0  0  0  0  0  0  0  0  0  0
    4.5981   -3.8046    0.0000 C   0  0  0  0  0  0  0  0  0  0  0  0
    4.5981   -2.8046    0.0000 C   0  0  0  0  0  0  0  0  0  0  0  0
    5.0981   -1.2658    0.0000 C   0  0  0  0  0  0  0  0  0  0  0  0
    5.4071   -2.2168    0.0000 C   0  0  0  0  0  0  0  0  0  0  0  0
    5.6859   -0.4568    0.0000 C   0  0  0  0  0  0  0  0  0  0  0  0
    3.7320   -4.3046    0.0000 C   0  0  0  0  0  0  0  0  0  0  0  0
    5.4641   -4.3046    0.0000 C   0  0  0  0  0  0  0  0  0  0  0  0
    6.3669    3.8046    0.0000 C   0  0  0  0  0  0  0  0  0  0  0  0
    6.3669    2.8046    0.0000 C   0  0  0  0  0  0  0  0  0  0  0  0
    3.7320   -5.3046    0.0000 C   0  0  0  0  0  0  0  0  0  0  0  0
    5.4641   -5.3046    0.0000 C   0  0  0  0  0  0  0  0  0  0  0  0
    5.8669    1.2658    0.0000 C   0  0  0  0  0  0  0  0  0  0  0  0
    4.5981   -5.8046    0.0000 C   0  0  0  0  0  0  0  0  0  0  0  0
    7.2329    4.3046    0.0000 C   0  0  0  0  0  0  0  0  0  0  0  0
    5.5009    4.3046    0.0000 C   0  0  0  0  0  0  0  0  0  0  0  0
    7.2329    5.3046    0.0000 C   0  0  0  0  0  0  0  0  0  0  0  0
    5.5009    5.3046    0.0000 C   0  0  0  0  0  0  0  0  0  0  0  0
    6.3669    5.8046    0.0000 C   0  0  0  0  0  0  0  0  0  0  0  0
    2.0000   -4.3046    0.0000 C   0  0  0  0  0  0  0  0  0  0  0  0
    5.9967   -2.4084    0.0000 H   0  0  0  0  0  0  0  0  0  0  0  0
    6.1166   -0.9028    0.0000 H   0  0  0  0  0  0  0  0  0  0  0  0
    6.1999   -0.1101    0.0000 H   0  0  0  0  0  0  0  0  0  0  0  0
    6.0010   -3.9946    0.0000 H   0  0  0  0  0  0  0  0  0  0  0  0
    3.1951   -5.6146    0.0000 H   0  0  0  0  0  0  0  0  0  0  0  0
    6.0010   -5.6146    0.0000 H   0  0  0  0  0  0  0  0  0  0  0  0
    4.5981   -6.4246    0.0000 H   0  0  0  0  0  0  0  0  0  0  0  0
    7.7699    3.9946    0.0000 H   0  0  0  0  0  0  0  0  0  0  0  0
    4.9640    3.9946    0.0000 H   0  0  0  0  0  0  0  0  0  0  0  0
    7.7656    2.4084    0.0000 H   0  0  0  0  0  0  0  0  0  0  0  0
    7.7699    5.6146    0.0000 H   0  0  0  0  0  0  0  0  0  0  0  0
    4.9640    5.6146    0.0000 H   0  0  0  0  0  0  0  0  0  0  0  0
    6.3669    6.4246    0.0000 H   0  0  0  0  0  0  0  0  0  0  0  0
    1.6900   -3.7677    0.0000 H   0  0  0  0  0  0  0  0  0  0  0  0
    1.4631   -4.6146    0.0000 H   0  0  0  0  0  0  0  0  0  0  0  0
    2.3100   -4.8416    0.0000 H   0  0  0  0  0  0  0  0  0  0  0  0
  1 12  1  0  0  0  0
  1 19  1  0  0  0  0
  2  4  1  0  0  0  0
  2 10  1  0  0  0  0
  3 13  1  0  0  0  0
  3 26  1  0  0  0  0
  4  9  2  0  0  0  0
  5  7  1  0  0  0  0
  5 16  1  0  0  0  0
  5 36  1  0  0  0  0
  6 16  2  0  0  0  0
  6 19  1  0  0  0  0
  7 19  2  0  0  0  0
  8  9  1  0  0  0  0
  8 13  1  0  0  0  0
  8 14  2  0  0  0  0
  9 11  1  0  0  0  0
 10 11  2  0  0  0  0
 10 12  1  0  0  0  0
 11 27  1  0  0  0  0
 12 28  1  0  0  0  0
 12 29  1  0  0  0  0
 13 17  2  0  0  0  0
 14 18  1  0  0  0  0
 14 30  1  0  0  0  0
 15 16  1  0  0  0  0
 15 21  2  0  0  0  0
 15 22  1  0  0  0  0
 17 20  1  0  0  0  0
 17 31  1  0  0  0  0
 18 20  2  0  0  0  0
 18 32  1  0  0  0  0
 20 33  1  0  0  0  0
 21 23  1  0  0  0  0
 21 34  1  0  0  0  0
 22 24  2  0  0  0  0
 22 35  1  0  0  0  0
 23 25  2  0  0  0  0
 23 37  1  0  0  0  0
 24 25  1  0  0  0  0
 24 38  1  0  0  0  0
 25 39  1  0  0  0  0
 26 40  1  0  0  0  0
 26 41  1  0  0  0  0
 26 42  1  0  0  0  0
M  END
> <PUBCHEM_COMPOUND_CID>
17395571

> <PUBCHEM_COMPOUND_CANONICALIZED>
1

> <PUBCHEM_CACTVS_COMPLEXITY>
438

> <PUBCHEM_CACTVS_HBOND_ACCEPTOR>
6

> <PUBCHEM_CACTVS_HBOND_DONOR>
1

> <PUBCHEM_CACTVS_ROTATABLE_BOND>
6

> <PUBCHEM_CACTVS_SUBSKEYS>
AAADceB7sABAAAAAAAAAAAAAAAAAAWLAAAAwYAAAAAAAAAAB9AAAHgQcAAAADAyF3wKzlpZ7FAirA6ZyZgCS2AvkIrA9uCE2bNqMLrqkuZuEMahmyBsI6UeY7KzOAAAAAAAIAAAAAAAAABAAAAAAAAAAAA==

> <PUBCHEM_IUPAC_OPENEYE_NAME>
3-(2-methoxyphenyl)-5-[(5-phenyl-1H-1,2,4-triazol-3-yl)sulfanylmethyl]isoxazole

> <PUBCHEM_IUPAC_CAS_NAME>
3-(2-methoxyphenyl)-5-[[(5-phenyl-1H-1,2,4-triazol-3-yl)thio]methyl]isoxazole

> <PUBCHEM_IUPAC_NAME>
3-(2-methoxyphenyl)-5-[(5-phenyl-1H-1,2,4-triazol-3-yl)sulfanylmethyl]-1,2-oxazole

> <PUBCHEM_IUPAC_SYSTEMATIC_NAME>
3-(2-methoxyphenyl)-5-[(5-phenyl-1H-1,2,4-triazol-3-yl)sulfanylmethyl]-1,2-oxazole

> <PUBCHEM_IUPAC_TRADITIONAL_NAME>
3-(2-methoxyphenyl)-5-[[(5-phenyl-1H-1,2,4-triazol-3-yl)thio]methyl]isoxazole

> <PUBCHEM_IUPAC_INCHI>
InChI=1S/C19H16N4O2S/c1-24-17-10-6-5-9-15(17)16-11-14(25-23-16)12-26-19-20-18(21-22-19)13-7-3-2-4-8-13/h2-11H,12H2,1H3,(H,20,21,22)

> <PUBCHEM_IUPAC_INCHIKEY>
FQEKMACODQYZJY-UHFFFAOYSA-N

> <PUBCHEM_XLOGP3_AA>
4.1

> <PUBCHEM_EXACT_MASS>
364.099397

> <PUBCHEM_MOLECULAR_FORMULA>
C19H16N4O2S

> <PUBCHEM_MOLECULAR_WEIGHT>
364.42094

> <PUBCHEM_OPENEYE_CAN_SMILES>
COC1=CC=CC=C1C2=NOC(=C2)CSC3=NNC(=N3)C4=CC=CC=C4

> <PUBCHEM_OPENEYE_ISO_SMILES>
COC1=CC=CC=C1C2=NOC(=C2)CSC3=NNC(=N3)C4=CC=CC=C4

> <PUBCHEM_CACTVS_TPSA>
102

> <PUBCHEM_MONOISOTOPIC_WEIGHT>
364.099397

> <PUBCHEM_TOTAL_CHARGE>
0

> <PUBCHEM_HEAVY_ATOM_COUNT>
26

> <PUBCHEM_ATOM_DEF_STEREO_COUNT>
0

> <PUBCHEM_ATOM_UDEF_STEREO_COUNT>
0

> <PUBCHEM_BOND_DEF_STEREO_COUNT>
0

> <PUBCHEM_BOND_UDEF_STEREO_COUNT>
0

> <PUBCHEM_ISOTOPIC_ATOM_COUNT>
0

> <PUBCHEM_COMPONENT_COUNT>
1

> <PUBCHEM_CACTVS_TAUTO_COUNT>
3

> <PUBCHEM_COORDINATE_TYPE>
1
5
255

> <PUBCHEM_BONDANNOTATIONS>
10  11  8
13  17  8
14  18  8
15  21  8
15  22  8
17  20  8
18  20  8
2  10  8
2  4  8
21  23  8
22  24  8
23  25  8
24  25  8
4  9  8
5  16  8
5  7  8
6  16  8
6  19  8
7  19  8
8  13  8
8  14  8
9  11  8

$$$$

