11746
  -OEChem-06261206042D

 11 10  0     1  0  0  0  0  0999 V2000
    3.7320   -1.2500    0.0000 Br  0  0  0  0  0  0  0  0  0  0  0  0
    2.0000   -0.2500    0.0000 Br  0  0  0  0  0  0  0  0  0  0  0  0
    5.4641   -0.2500    0.0000 O   0  0  0  0  0  0  0  0  0  0  0  0
    4.5981    1.2500    0.0000 O   0  0  0  0  0  0  0  0  0  0  0  0
    3.7320   -0.2500    0.0000 C   0  0  3  0  0  0  0  0  0  0  0  0
    2.8660    0.2500    0.0000 C   0  0  0  0  0  0  0  0  0  0  0  0
    4.5981    0.2500    0.0000 C   0  0  0  0  0  0  0  0  0  0  0  0
    4.4682   -0.6750    0.0000 H   0  0  0  0  0  0  0  0  0  0  0  0
    3.2646    0.7249    0.0000 H   0  0  0  0  0  0  0  0  0  0  0  0
    2.4675    0.7249    0.0000 H   0  0  0  0  0  0  0  0  0  0  0  0
    6.0010    0.0600    0.0000 H   0  0  0  0  0  0  0  0  0  0  0  0
  1  5  1  0  0  0  0
  2  6  1  0  0  0  0
  3  7  1  0  0  0  0
  3 11  1  0  0  0  0
  4  7  2  0  0  0  0
  5  6  1  0  0  0  0
  5  7  1  0  0  0  0
  5  8  1  0  0  0  0
  6  9  1  0  0  0  0
  6 10  1  0  0  0  0
M  END
> <PUBCHEM_COMPOUND_CID>
11746

> <PUBCHEM_COMPOUND_CANONICALIZED>
1

> <PUBCHEM_CACTVS_COMPLEXITY>
73.3

> <PUBCHEM_CACTVS_HBOND_ACCEPTOR>
2

> <PUBCHEM_CACTVS_HBOND_DONOR>
1

> <PUBCHEM_CACTVS_ROTATABLE_BOND>
2

> <PUBCHEM_CACTVS_SUBSKEYS>
AAADcYBAMAAAGAAAAAAAAAAAAAAAAAAAAAAAAAAAAAAAAAAAAAAAGgBACAAByACAgAAACAAAAgAIAACQCAAAAAAAAAAAAAEAACAgAAAAAAAAQAAAAAAAAAAAAAAAAAAAAAAAAAAAAAAAAAAAAAAAAAAAAA==

> <PUBCHEM_IUPAC_OPENEYE_NAME>
2,3-dibromopropanoic acid

> <PUBCHEM_IUPAC_CAS_NAME>
2,3-dibromopropanoic acid

> <PUBCHEM_IUPAC_NAME>
2,3-dibromopropanoic acid

> <PUBCHEM_IUPAC_SYSTEMATIC_NAME>
2,3-bis(bromanyl)propanoic acid

> <PUBCHEM_IUPAC_TRADITIONAL_NAME>
2,3-dibromopropionic acid

> <PUBCHEM_IUPAC_INCHI>
InChI=1S/C3H4Br2O2/c4-1-2(5)3(6)7/h2H,1H2,(H,6,7)

> <PUBCHEM_IUPAC_INCHIKEY>
ZMYAKSMZTVWUJB-UHFFFAOYSA-N

> <PUBCHEM_XLOGP3_AA>
1.4

> <PUBCHEM_EXACT_MASS>
231.855757

> <PUBCHEM_MOLECULAR_FORMULA>
C3H4Br2O2

> <PUBCHEM_MOLECULAR_WEIGHT>
231.87066

> <PUBCHEM_OPENEYE_CAN_SMILES>
C(C(C(=O)O)Br)Br

> <PUBCHEM_OPENEYE_ISO_SMILES>
C(C(C(=O)O)Br)Br

> <PUBCHEM_CACTVS_TPSA>
37.3

> <PUBCHEM_MONOISOTOPIC_WEIGHT>
229.857804

> <PUBCHEM_TOTAL_CHARGE>
0

> <PUBCHEM_HEAVY_ATOM_COUNT>
7

> <PUBCHEM_ATOM_DEF_STEREO_COUNT>
0

> <PUBCHEM_ATOM_UDEF_STEREO_COUNT>
1

> <PUBCHEM_BOND_DEF_STEREO_COUNT>
0

> <PUBCHEM_BOND_UDEF_STEREO_COUNT>
0

> <PUBCHEM_ISOTOPIC_ATOM_COUNT>
0

> <PUBCHEM_COMPONENT_COUNT>
1

> <PUBCHEM_CACTVS_TAUTO_COUNT>
1

> <PUBCHEM_COORDINATE_TYPE>
1
5
255

> <PUBCHEM_BONDANNOTATIONS>
5  8  3

$$$$

