17395696
  -OEChem-06241222512D

 47 49  0     0  0  0  0  0  0999 V2000
    5.4387   -0.4972    0.0000 S   0  0  0  0  0  0  0  0  0  0  0  0
    6.0506    1.4070    0.0000 O   0  0  0  0  0  0  0  0  0  0  0  0
   10.7437    2.2313    0.0000 O   0  0  0  0  0  0  0  0  0  0  0  0
    9.4528    3.3860    0.0000 O   0  0  0  0  0  0  0  0  0  0  0  0
    4.1881   -1.7587    0.0000 N   0  0  0  0  0  0  0  0  0  0  0  0
    5.1408   -3.0587    0.0000 N   0  0  0  0  0  0  0  0  0  0  0  0
    5.7204   -2.2510    0.0000 N   0  0  0  0  0  0  0  0  0  0  0  0
    8.4449    0.2104    0.0000 N   0  0  0  0  0  0  0  0  0  0  0  0
    2.0000   -2.2696    0.0000 C   0  0  0  0  0  0  0  0  0  0  0  0
    2.4294   -1.3665    0.0000 C   0  0  0  0  0  0  0  0  0  0  0  0
    2.4384   -3.1684    0.0000 C   0  0  0  0  0  0  0  0  0  0  0  0
    3.4032   -1.1391    0.0000 C   0  0  0  0  0  0  0  0  0  0  0  0
    3.4144   -3.3860    0.0000 C   0  0  0  0  0  0  0  0  0  0  0  0
    4.1931   -2.7586    0.0000 C   0  0  0  0  0  0  0  0  0  0  0  0
    5.1328   -1.4492    0.0000 C   0  0  0  0  0  0  0  0  0  0  0  0
    7.6996    0.8771    0.0000 C   0  0  0  0  0  0  0  0  0  0  0  0
    8.1033    1.7920    0.0000 C   0  0  0  0  0  0  0  0  0  0  0  0
    6.4162   -0.2861    0.0000 C   0  0  0  0  0  0  0  0  0  0  0  0
    9.0982    1.6907    0.0000 C   0  0  0  0  0  0  0  0  0  0  0  0
    9.3093    0.7132    0.0000 C   0  0  0  0  0  0  0  0  0  0  0  0
    6.7221    0.6660    0.0000 C   0  0  0  0  0  0  0  0  0  0  0  0
    7.6005    2.6564    0.0000 C   0  0  0  0  0  0  0  0  0  0  0  0
   10.2242    0.3094    0.0000 C   0  0  0  0  0  0  0  0  0  0  0  0
    9.7649    2.4360    0.0000 C   0  0  0  0  0  0  0  0  0  0  0  0
   11.4104    2.9766    0.0000 C   0  0  0  0  0  0  0  0  0  0  0  0
    1.5133   -1.8854    0.0000 H   0  0  0  0  0  0  0  0  0  0  0  0
    1.5172   -2.6586    0.0000 H   0  0  0  0  0  0  0  0  0  0  0  0
    2.4263   -0.7465    0.0000 H   0  0  0  0  0  0  0  0  0  0  0  0
    1.8242   -1.2315    0.0000 H   0  0  0  0  0  0  0  0  0  0  0  0
    1.8346   -3.3094    0.0000 H   0  0  0  0  0  0  0  0  0  0  0  0
    2.4415   -3.7884    0.0000 H   0  0  0  0  0  0  0  0  0  0  0  0
    3.8860   -0.7501    0.0000 H   0  0  0  0  0  0  0  0  0  0  0  0
    3.1314   -0.5818    0.0000 H   0  0  0  0  0  0  0  0  0  0  0  0
    3.1482   -3.9460    0.0000 H   0  0  0  0  0  0  0  0  0  0  0  0
    3.9010   -3.7702    0.0000 H   0  0  0  0  0  0  0  0  0  0  0  0
    6.4398   -0.9056    0.0000 H   0  0  0  0  0  0  0  0  0  0  0  0
    7.0304   -0.3704    0.0000 H   0  0  0  0  0  0  0  0  0  0  0  0
    8.3821   -0.4064    0.0000 H   0  0  0  0  0  0  0  0  0  0  0  0
    8.1364    2.9681    0.0000 H   0  0  0  0  0  0  0  0  0  0  0  0
    7.2888    3.1923    0.0000 H   0  0  0  0  0  0  0  0  0  0  0  0
    7.0646    2.3446    0.0000 H   0  0  0  0  0  0  0  0  0  0  0  0
    9.9738   -0.2578    0.0000 H   0  0  0  0  0  0  0  0  0  0  0  0
   10.7914    0.0591    0.0000 H   0  0  0  0  0  0  0  0  0  0  0  0
   10.4745    0.8767    0.0000 H   0  0  0  0  0  0  0  0  0  0  0  0
   11.8725    2.5632    0.0000 H   0  0  0  0  0  0  0  0  0  0  0  0
   11.8238    3.4387    0.0000 H   0  0  0  0  0  0  0  0  0  0  0  0
   10.9483    3.3899    0.0000 H   0  0  0  0  0  0  0  0  0  0  0  0
  1 15  1  0  0  0  0
  1 18  1  0  0  0  0
  2 21  2  0  0  0  0
  3 24  1  0  0  0  0
  3 25  1  0  0  0  0
  4 24  2  0  0  0  0
  5 12  1  0  0  0  0
  5 14  1  0  0  0  0
  5 15  1  0  0  0  0
  6  7  1  0  0  0  0
  6 14  2  0  0  0  0
  7 15  2  0  0  0  0
  8 16  1  0  0  0  0
  8 20  1  0  0  0  0
  8 38  1  0  0  0  0
  9 10  1  0  0  0  0
  9 11  1  0  0  0  0
  9 26  1  0  0  0  0
  9 27  1  0  0  0  0
 10 12  1  0  0  0  0
 10 28  1  0  0  0  0
 10 29  1  0  0  0  0
 11 13  1  0  0  0  0
 11 30  1  0  0  0  0
 11 31  1  0  0  0  0
 12 32  1  0  0  0  0
 12 33  1  0  0  0  0
 13 14  1  0  0  0  0
 13 34  1  0  0  0  0
 13 35  1  0  0  0  0
 16 17  2  0  0  0  0
 16 21  1  0  0  0  0
 17 19  1  0  0  0  0
 17 22  1  0  0  0  0
 18 21  1  0  0  0  0
 18 36  1  0  0  0  0
 18 37  1  0  0  0  0
 19 20  2  0  0  0  0
 19 24  1  0  0  0  0
 20 23  1  0  0  0  0
 22 39  1  0  0  0  0
 22 40  1  0  0  0  0
 22 41  1  0  0  0  0
 23 42  1  0  0  0  0
 23 43  1  0  0  0  0
 23 44  1  0  0  0  0
 25 45  1  0  0  0  0
 25 46  1  0  0  0  0
 25 47  1  0  0  0  0
M  END
> <PUBCHEM_COMPOUND_CID>
17395696

> <PUBCHEM_COMPOUND_CANONICALIZED>
1

> <PUBCHEM_CACTVS_COMPLEXITY>
506

> <PUBCHEM_CACTVS_HBOND_ACCEPTOR>
6

> <PUBCHEM_CACTVS_HBOND_DONOR>
1

> <PUBCHEM_CACTVS_ROTATABLE_BOND>
6

> <PUBCHEM_CACTVS_SUBSKEYS>
AAADceB7sABAAAAAAAAAAAAAAAAAAWLAAAAAAAAABYAAAACx4AAAHgQYAAAADAzF3waDmJfNlAiqA4bwbACS0CtnALAV2SG4TNiILnrgvLmEEYhm2API6Ue8zwA+gAAAAAAAAAAAAAAAAAAAAAAAAAAAAA==

> <PUBCHEM_IUPAC_OPENEYE_NAME>
methyl 2,4-dimethyl-5-[2-(6,7,8,9-tetrahydro-5H-[1,2,4]triazolo[4,3-a]azepin-3-ylsulfanyl)acetyl]-1H-pyrrole-3-carboxylate

> <PUBCHEM_IUPAC_CAS_NAME>
2,4-dimethyl-5-[1-oxo-2-(6,7,8,9-tetrahydro-5H-[1,2,4]triazolo[4,3-a]azepin-3-ylthio)ethyl]-1H-pyrrole-3-carboxylic acid methyl ester

> <PUBCHEM_IUPAC_NAME>
methyl 2,4-dimethyl-5-[2-(6,7,8,9-tetrahydro-5H-[1,2,4]triazolo[4,3-a]azepin-3-ylsulfanyl)acetyl]-1H-pyrrole-3-carboxylate

> <PUBCHEM_IUPAC_SYSTEMATIC_NAME>
methyl 2,4-dimethyl-5-[2-(6,7,8,9-tetrahydro-5H-[1,2,4]triazolo[4,3-a]azepin-3-ylsulfanyl)ethanoyl]-1H-pyrrole-3-carboxylate

> <PUBCHEM_IUPAC_TRADITIONAL_NAME>
2,4-dimethyl-5-[2-(6,7,8,9-tetrahydro-5H-[1,2,4]triazol[4,3-a]azepin-3-ylthio)acetyl]-1H-pyrrole-3-carboxylic acid methyl ester

> <PUBCHEM_IUPAC_INCHI>
InChI=1S/C17H22N4O3S/c1-10-14(16(23)24-3)11(2)18-15(10)12(22)9-25-17-20-19-13-7-5-4-6-8-21(13)17/h18H,4-9H2,1-3H3

> <PUBCHEM_IUPAC_INCHIKEY>
QYBXHRBOCDUTJR-UHFFFAOYSA-N

> <PUBCHEM_XLOGP3_AA>
2.5

> <PUBCHEM_EXACT_MASS>
362.141262

> <PUBCHEM_MOLECULAR_FORMULA>
C17H22N4O3S

> <PUBCHEM_MOLECULAR_WEIGHT>
362.44658

> <PUBCHEM_OPENEYE_CAN_SMILES>
CC1=C(NC(=C1C(=O)OC)C)C(=O)CSC2=NN=C3N2CCCCC3

> <PUBCHEM_OPENEYE_ISO_SMILES>
CC1=C(NC(=C1C(=O)OC)C)C(=O)CSC2=NN=C3N2CCCCC3

> <PUBCHEM_CACTVS_TPSA>
115

> <PUBCHEM_MONOISOTOPIC_WEIGHT>
362.141262

> <PUBCHEM_TOTAL_CHARGE>
0

> <PUBCHEM_HEAVY_ATOM_COUNT>
25

> <PUBCHEM_ATOM_DEF_STEREO_COUNT>
0

> <PUBCHEM_ATOM_UDEF_STEREO_COUNT>
0

> <PUBCHEM_BOND_DEF_STEREO_COUNT>
0

> <PUBCHEM_BOND_UDEF_STEREO_COUNT>
0

> <PUBCHEM_ISOTOPIC_ATOM_COUNT>
0

> <PUBCHEM_COMPONENT_COUNT>
1

> <PUBCHEM_CACTVS_TAUTO_COUNT>
33

> <PUBCHEM_COORDINATE_TYPE>
1
5
255

> <PUBCHEM_BONDANNOTATIONS>
16  17  8
17  19  8
19  20  8
5  14  8
5  15  8
6  14  8
6  7  8
7  15  8
8  16  8
8  20  8

$$$$

