47205555
  -OEChem-06241222592D

 29 29  0     1  0  0  0  0  0999 V2000
    6.0010    2.0670    0.0000 S   0  0  0  0  0  0  0  0  0  0  0  0
    5.5010    2.9330    0.0000 O   0  0  0  0  0  0  0  0  0  0  0  0
    6.5010    1.2010    0.0000 O   0  0  0  0  0  0  0  0  0  0  0  0
    6.0010    0.0670    0.0000 O   0  0  0  0  0  0  0  0  0  0  0  0
    2.5369   -0.9330    0.0000 O   0  0  0  0  0  0  0  0  0  0  0  0
    4.2690    0.0670    0.0000 N   0  0  0  0  0  0  0  0  0  0  0  0
    5.1350    1.5670    0.0000 C   0  0  3  0  0  0  0  0  0  0  0  0
    5.1350    0.5670    0.0000 C   0  0  0  0  0  0  0  0  0  0  0  0
    4.2690    2.0670    0.0000 C   0  0  0  0  0  0  0  0  0  0  0  0
    6.8671    2.5670    0.0000 C   0  0  0  0  0  0  0  0  0  0  0  0
    4.2690   -0.9330    0.0000 C   0  0  0  0  0  0  0  0  0  0  0  0
    3.4030   -1.4330    0.0000 C   0  0  0  0  0  0  0  0  0  0  0  0
    5.1350   -1.4330    0.0000 C   0  0  0  0  0  0  0  0  0  0  0  0
    3.4030   -2.4330    0.0000 C   0  0  0  0  0  0  0  0  0  0  0  0
    5.1350   -2.4330    0.0000 C   0  0  0  0  0  0  0  0  0  0  0  0
    4.2690   -2.9330    0.0000 C   0  0  0  0  0  0  0  0  0  0  0  0
    5.1350    2.1870    0.0000 H   0  0  0  0  0  0  0  0  0  0  0  0
    4.5790    2.6039    0.0000 H   0  0  0  0  0  0  0  0  0  0  0  0
    3.7320    2.3770    0.0000 H   0  0  0  0  0  0  0  0  0  0  0  0
    3.9590    1.5300    0.0000 H   0  0  0  0  0  0  0  0  0  0  0  0
    7.1771    2.0300    0.0000 H   0  0  0  0  0  0  0  0  0  0  0  0
    7.4040    2.8770    0.0000 H   0  0  0  0  0  0  0  0  0  0  0  0
    6.5571    3.1039    0.0000 H   0  0  0  0  0  0  0  0  0  0  0  0
    3.7320    0.3770    0.0000 H   0  0  0  0  0  0  0  0  0  0  0  0
    5.6720   -1.1230    0.0000 H   0  0  0  0  0  0  0  0  0  0  0  0
    2.8660   -2.7430    0.0000 H   0  0  0  0  0  0  0  0  0  0  0  0
    5.6720   -2.7430    0.0000 H   0  0  0  0  0  0  0  0  0  0  0  0
    4.2690   -3.5530    0.0000 H   0  0  0  0  0  0  0  0  0  0  0  0
    2.0000   -1.2430    0.0000 H   0  0  0  0  0  0  0  0  0  0  0  0
  1  2  2  0  0  0  0
  1  3  2  0  0  0  0
  1  7  1  0  0  0  0
  1 10  1  0  0  0  0
  4  8  2  0  0  0  0
  5 12  1  0  0  0  0
  5 29  1  0  0  0  0
  6  8  1  0  0  0  0
  6 11  1  0  0  0  0
  6 24  1  0  0  0  0
  7  8  1  0  0  0  0
  7  9  1  0  0  0  0
  7 17  1  0  0  0  0
  9 18  1  0  0  0  0
  9 19  1  0  0  0  0
  9 20  1  0  0  0  0
 10 21  1  0  0  0  0
 10 22  1  0  0  0  0
 10 23  1  0  0  0  0
 11 12  1  0  0  0  0
 11 13  2  0  0  0  0
 12 14  2  0  0  0  0
 13 15  1  0  0  0  0
 13 25  1  0  0  0  0
 14 16  1  0  0  0  0
 14 26  1  0  0  0  0
 15 16  2  0  0  0  0
 15 27  1  0  0  0  0
 16 28  1  0  0  0  0
M  END
> <PUBCHEM_COMPOUND_CID>
47205555

> <PUBCHEM_COMPOUND_CANONICALIZED>
1

> <PUBCHEM_CACTVS_COMPLEXITY>
346

> <PUBCHEM_CACTVS_HBOND_ACCEPTOR>
4

> <PUBCHEM_CACTVS_HBOND_DONOR>
2

> <PUBCHEM_CACTVS_ROTATABLE_BOND>
3

> <PUBCHEM_CACTVS_SUBSKEYS>
AAADccByOABAAAAAAAAAAAAAAAAAAAAAAAAwAAAAAAAAAAABAAAAHgQQCAAACAyF0ACyxoLAAgqIACVSUHDCAAAhIhAIiAEHbIgKJiLSkZOEcAhk1BHY2AeQQAAAAAAAAAAAEAAAAAAAAAAgAAAAAAAAAA==

> <PUBCHEM_IUPAC_OPENEYE_NAME>
N-(2-hydroxyphenyl)-2-methylsulfonyl-propanamide

> <PUBCHEM_IUPAC_CAS_NAME>
N-(2-hydroxyphenyl)-2-methylsulfonylpropanamide

> <PUBCHEM_IUPAC_NAME>
N-(2-hydroxyphenyl)-2-methylsulfonylpropanamide

> <PUBCHEM_IUPAC_SYSTEMATIC_NAME>
N-(2-hydroxyphenyl)-2-methylsulfonyl-propanamide

> <PUBCHEM_IUPAC_TRADITIONAL_NAME>
N-(2-hydroxyphenyl)-2-mesyl-propionamide

> <PUBCHEM_IUPAC_INCHI>
InChI=1S/C10H13NO4S/c1-7(16(2,14)15)10(13)11-8-5-3-4-6-9(8)12/h3-7,12H,1-2H3,(H,11,13)

> <PUBCHEM_IUPAC_INCHIKEY>
POXISYHMQRSXTC-UHFFFAOYSA-N

> <PUBCHEM_XLOGP3>
1.1

> <PUBCHEM_EXACT_MASS>
243.056529

> <PUBCHEM_MOLECULAR_FORMULA>
C10H13NO4S

> <PUBCHEM_MOLECULAR_WEIGHT>
243.27952

> <PUBCHEM_OPENEYE_CAN_SMILES>
CC(C(=O)NC1=CC=CC=C1O)S(=O)(=O)C

> <PUBCHEM_OPENEYE_ISO_SMILES>
CC(C(=O)NC1=CC=CC=C1O)S(=O)(=O)C

> <PUBCHEM_CACTVS_TPSA>
91.8

> <PUBCHEM_MONOISOTOPIC_WEIGHT>
243.056529

> <PUBCHEM_TOTAL_CHARGE>
0

> <PUBCHEM_HEAVY_ATOM_COUNT>
16

> <PUBCHEM_ATOM_DEF_STEREO_COUNT>
0

> <PUBCHEM_ATOM_UDEF_STEREO_COUNT>
1

> <PUBCHEM_BOND_DEF_STEREO_COUNT>
0

> <PUBCHEM_BOND_UDEF_STEREO_COUNT>
0

> <PUBCHEM_ISOTOPIC_ATOM_COUNT>
0

> <PUBCHEM_COMPONENT_COUNT>
1

> <PUBCHEM_CACTVS_TAUTO_COUNT>
10

> <PUBCHEM_COORDINATE_TYPE>
1
5
255

> <PUBCHEM_BONDANNOTATIONS>
11  12  8
11  13  8
12  14  8
13  15  8
14  16  8
15  16  8
7  9  3

$$$$

