17395511
  -OEChem-06241222502D

 41 43  0     0  0  0  0  0  0999 V2000
    2.5000    5.1012    0.0000 S   0  0  0  0  0  0  0  0  0  0  0  0
    4.4487    2.3988    0.0000 O   0  0  0  0  0  0  0  0  0  0  0  0
    7.0468   -1.1012    0.0000 O   0  0  0  0  0  0  0  0  0  0  0  0
    2.7166   -3.6012    0.0000 O   0  0  0  0  0  0  0  0  0  0  0  0
    5.3147   -1.1012    0.0000 N   0  0  0  0  0  0  0  0  0  0  0  0
    2.6691    3.4920    0.0000 N   0  0  0  0  0  0  0  0  0  0  0  0
    6.1808    0.3988    0.0000 C   0  0  0  0  0  0  0  0  0  0  0  0
    5.3147   -2.1012    0.0000 C   0  0  0  0  0  0  0  0  0  0  0  0
    5.3147    1.8988    0.0000 C   0  0  0  0  0  0  0  0  0  0  0  0
    5.3147    0.8988    0.0000 C   0  0  0  0  0  0  0  0  0  0  0  0
    4.4487   -3.6012    0.0000 C   0  0  0  0  0  0  0  0  0  0  0  0
    6.1808   -0.6012    0.0000 C   0  0  0  0  0  0  0  0  0  0  0  0
    4.4487   -2.6012    0.0000 C   0  0  0  0  0  0  0  0  0  0  0  0
    7.0468    0.8988    0.0000 C   0  0  0  0  0  0  0  0  0  0  0  0
    6.1808   -2.6012    0.0000 C   0  0  0  0  0  0  0  0  0  0  0  0
    6.1808    2.3988    0.0000 C   0  0  0  0  0  0  0  0  0  0  0  0
    5.3147   -4.1012    0.0000 C   0  0  0  0  0  0  0  0  0  0  0  0
    7.0468    1.8988    0.0000 C   0  0  0  0  0  0  0  0  0  0  0  0
    4.4487    3.3988    0.0000 C   0  0  0  0  0  0  0  0  0  0  0  0
    6.1808   -3.6012    0.0000 C   0  0  0  0  0  0  0  0  0  0  0  0
    3.5827   -4.1012    0.0000 C   0  0  0  0  0  0  0  0  0  0  0  0
    3.5827    3.8988    0.0000 C   0  0  0  0  0  0  0  0  0  0  0  0
    3.5827   -5.1012    0.0000 C   0  0  0  0  0  0  0  0  0  0  0  0
    3.4782    4.8933    0.0000 C   0  0  0  0  0  0  0  0  0  0  0  0
    2.0000    4.2352    0.0000 C   0  0  0  0  0  0  0  0  0  0  0  0
    4.7778    0.5888    0.0000 H   0  0  0  0  0  0  0  0  0  0  0  0
    3.9118   -2.2912    0.0000 H   0  0  0  0  0  0  0  0  0  0  0  0
    4.7778   -0.7912    0.0000 H   0  0  0  0  0  0  0  0  0  0  0  0
    7.5837    0.5888    0.0000 H   0  0  0  0  0  0  0  0  0  0  0  0
    6.7177   -2.2912    0.0000 H   0  0  0  0  0  0  0  0  0  0  0  0
    6.1808    3.0188    0.0000 H   0  0  0  0  0  0  0  0  0  0  0  0
    5.3147   -4.7212    0.0000 H   0  0  0  0  0  0  0  0  0  0  0  0
    7.5837    2.2088    0.0000 H   0  0  0  0  0  0  0  0  0  0  0  0
    5.0593    3.2911    0.0000 H   0  0  0  0  0  0  0  0  0  0  0  0
    4.6608    3.9814    0.0000 H   0  0  0  0  0  0  0  0  0  0  0  0
    6.7177   -3.9112    0.0000 H   0  0  0  0  0  0  0  0  0  0  0  0
    2.9627   -5.1012    0.0000 H   0  0  0  0  0  0  0  0  0  0  0  0
    3.5827   -5.7212    0.0000 H   0  0  0  0  0  0  0  0  0  0  0  0
    4.2027   -5.1012    0.0000 H   0  0  0  0  0  0  0  0  0  0  0  0
    3.9389    5.3082    0.0000 H   0  0  0  0  0  0  0  0  0  0  0  0
    1.3834    4.1704    0.0000 H   0  0  0  0  0  0  0  0  0  0  0  0
  1 24  1  0  0  0  0
  1 25  1  0  0  0  0
  2  9  1  0  0  0  0
  2 19  1  0  0  0  0
  3 12  2  0  0  0  0
  4 21  2  0  0  0  0
  5  8  1  0  0  0  0
  5 12  1  0  0  0  0
  5 28  1  0  0  0  0
  6 22  1  0  0  0  0
  6 25  2  0  0  0  0
  7 10  2  0  0  0  0
  7 12  1  0  0  0  0
  7 14  1  0  0  0  0
  8 13  1  0  0  0  0
  8 15  2  0  0  0  0
  9 10  1  0  0  0  0
  9 16  2  0  0  0  0
 10 26  1  0  0  0  0
 11 13  2  0  0  0  0
 11 17  1  0  0  0  0
 11 21  1  0  0  0  0
 13 27  1  0  0  0  0
 14 18  2  0  0  0  0
 14 29  1  0  0  0  0
 15 20  1  0  0  0  0
 15 30  1  0  0  0  0
 16 18  1  0  0  0  0
 16 31  1  0  0  0  0
 17 20  2  0  0  0  0
 17 32  1  0  0  0  0
 18 33  1  0  0  0  0
 19 22  1  0  0  0  0
 19 34  1  0  0  0  0
 19 35  1  0  0  0  0
 20 36  1  0  0  0  0
 21 23  1  0  0  0  0
 22 24  2  0  0  0  0
 23 37  1  0  0  0  0
 23 38  1  0  0  0  0
 23 39  1  0  0  0  0
 24 40  1  0  0  0  0
 25 41  1  0  0  0  0
M  END
> <PUBCHEM_COMPOUND_CID>
17395511

> <PUBCHEM_COMPOUND_CANONICALIZED>
1

> <PUBCHEM_CACTVS_COMPLEXITY>
474

> <PUBCHEM_CACTVS_HBOND_ACCEPTOR>
5

> <PUBCHEM_CACTVS_HBOND_DONOR>
1

> <PUBCHEM_CACTVS_ROTATABLE_BOND>
6

> <PUBCHEM_CACTVS_SUBSKEYS>
AAADceB7MABAAAAAAAAAAAAAAAAAAWAAAAAwYAAAAAAAAAAB0AAAHgQQAAAADAyl3ga2x5LIFAisA6VzVASC+KB1KjgIyBUebMgOJjLktZuHOSjk1BHY6Ye+yJCOAAABQAAAAAAAAAKAAAAAAAAAAAAAAA==

> <PUBCHEM_IUPAC_OPENEYE_NAME>
N-(3-acetylphenyl)-3-(thiazol-4-ylmethoxy)benzamide

> <PUBCHEM_IUPAC_CAS_NAME>
N-(3-acetylphenyl)-3-(4-thiazolylmethoxy)benzamide

> <PUBCHEM_IUPAC_NAME>
N-(3-acetylphenyl)-3-(1,3-thiazol-4-ylmethoxy)benzamide

> <PUBCHEM_IUPAC_SYSTEMATIC_NAME>
N-(3-ethanoylphenyl)-3-(1,3-thiazol-4-ylmethoxy)benzamide

> <PUBCHEM_IUPAC_TRADITIONAL_NAME>
N-(3-acetylphenyl)-3-(thiazol-4-ylmethoxy)benzamide

> <PUBCHEM_IUPAC_INCHI>
InChI=1S/C19H16N2O3S/c1-13(22)14-4-2-6-16(8-14)21-19(23)15-5-3-7-18(9-15)24-10-17-11-25-12-20-17/h2-9,11-12H,10H2,1H3,(H,21,23)

> <PUBCHEM_IUPAC_INCHIKEY>
JJYSQPHOOAWBMF-UHFFFAOYSA-N

> <PUBCHEM_XLOGP3_AA>
3

> <PUBCHEM_EXACT_MASS>
352.088163

> <PUBCHEM_MOLECULAR_FORMULA>
C19H16N2O3S

> <PUBCHEM_MOLECULAR_WEIGHT>
352.40694

> <PUBCHEM_OPENEYE_CAN_SMILES>
CC(=O)C1=CC(=CC=C1)NC(=O)C2=CC(=CC=C2)OCC3=CSC=N3

> <PUBCHEM_OPENEYE_ISO_SMILES>
CC(=O)C1=CC(=CC=C1)NC(=O)C2=CC(=CC=C2)OCC3=CSC=N3

> <PUBCHEM_CACTVS_TPSA>
96.5

> <PUBCHEM_MONOISOTOPIC_WEIGHT>
352.088163

> <PUBCHEM_TOTAL_CHARGE>
0

> <PUBCHEM_HEAVY_ATOM_COUNT>
25

> <PUBCHEM_ATOM_DEF_STEREO_COUNT>
0

> <PUBCHEM_ATOM_UDEF_STEREO_COUNT>
0

> <PUBCHEM_BOND_DEF_STEREO_COUNT>
0

> <PUBCHEM_BOND_UDEF_STEREO_COUNT>
0

> <PUBCHEM_ISOTOPIC_ATOM_COUNT>
0

> <PUBCHEM_COMPONENT_COUNT>
1

> <PUBCHEM_CACTVS_TAUTO_COUNT>
4

> <PUBCHEM_COORDINATE_TYPE>
1
5
255

> <PUBCHEM_BONDANNOTATIONS>
1  24  8
1  25  8
11  13  8
11  17  8
14  18  8
15  20  8
16  18  8
17  20  8
22  24  8
6  22  8
6  25  8
7  10  8
7  14  8
8  13  8
8  15  8
9  10  8
9  16  8

$$$$

