13413
  -OEChem-06261209472D

 18 17  0     0  0  0  0  0  0999 V2000
    6.5010    5.1200    0.0000 K   0  3  0  0  0  0  0  0  0  0  0  0
    3.0369    2.1200    0.0000 O   0  0  0  0  0  0  0  0  0  0  0  0
    3.9030    3.6200    0.0000 O   0  0  0  0  0  0  0  0  0  0  0  0
    6.5010    4.1200    0.0000 O   0  5  0  0  0  0  0  0  0  0  0  0
    4.7690    4.1200    0.0000 O   0  0  0  0  0  0  0  0  0  0  0  0
    4.7690    2.1200    0.0000 C   0  0  0  0  0  0  0  0  0  0  0  0
    5.6350    2.6200    0.0000 C   0  0  0  0  0  0  0  0  0  0  0  0
    4.7690    1.1200    0.0000 C   0  0  0  0  0  0  0  0  0  0  0  0
    6.5010    2.1200    0.0000 C   0  0  0  0  0  0  0  0  0  0  0  0
    5.6350    0.6200    0.0000 C   0  0  0  0  0  0  0  0  0  0  0  0
    6.5010    1.1200    0.0000 C   0  0  0  0  0  0  0  0  0  0  0  0
    3.9030    2.6200    0.0000 C   0  0  0  0  0  0  0  0  0  0  0  0
    5.6350    3.6200    0.0000 C   0  0  0  0  0  0  0  0  0  0  0  0
    4.2321    0.8100    0.0000 H   0  0  0  0  0  0  0  0  0  0  0  0
    7.0380    2.4300    0.0000 H   0  0  0  0  0  0  0  0  0  0  0  0
    5.6350    0.0000    0.0000 H   0  0  0  0  0  0  0  0  0  0  0  0
    7.0380    0.8100    0.0000 H   0  0  0  0  0  0  0  0  0  0  0  0
    2.5000    2.4300    0.0000 H   0  0  0  0  0  0  0  0  0  0  0  0
  2 12  1  0  0  0  0
  2 18  1  0  0  0  0
  3 12  2  0  0  0  0
  4 13  1  0  0  0  0
  5 13  2  0  0  0  0
  6  7  1  0  0  0  0
  6  8  2  0  0  0  0
  6 12  1  0  0  0  0
  7  9  2  0  0  0  0
  7 13  1  0  0  0  0
  8 10  1  0  0  0  0
  8 14  1  0  0  0  0
  9 11  1  0  0  0  0
  9 15  1  0  0  0  0
 10 11  2  0  0  0  0
 10 16  1  0  0  0  0
 11 17  1  0  0  0  0
M  CHG  2   1   1   4  -1
M  END
> <PUBCHEM_COMPOUND_CID>
13413

> <PUBCHEM_COMPOUND_CANONICALIZED>
1

> <PUBCHEM_CACTVS_COMPLEXITY>
194

> <PUBCHEM_CACTVS_HBOND_ACCEPTOR>
4

> <PUBCHEM_CACTVS_HBOND_DONOR>
1

> <PUBCHEM_CACTVS_ROTATABLE_BOND>
1

> <PUBCHEM_CACTVS_SUBSKEYS>
AAADcYBwOAAAQAAAAAAAAAAAAAAAAAAAAAAwAAAAAAAAAAABAAAAGgAACAAADACAmAAwCIAAAgCIAiDSCAACAAAkAAAIiAEACMgIJjKAFRCAcQAkwAEImYfLyKCOgAAAAAAQAAAAAAAAACAAAAAAAAAAAA==

> <PUBCHEM_IUPAC_OPENEYE_NAME>
potassium 2-carboxybenzoate

> <PUBCHEM_IUPAC_CAS_NAME>
potassium 2-carboxybenzoate

> <PUBCHEM_IUPAC_NAME>
potassium 2-carboxybenzoate

> <PUBCHEM_IUPAC_SYSTEMATIC_NAME>
potassium 2-carboxybenzoate

> <PUBCHEM_IUPAC_TRADITIONAL_NAME>
potassium 2-carboxybenzoate

> <PUBCHEM_IUPAC_INCHI>
InChI=1S/C8H6O4.K/c9-7(10)5-3-1-2-4-6(5)8(11)12;/h1-4H,(H,9,10)(H,11,12);/q;+1/p-1

> <PUBCHEM_IUPAC_INCHIKEY>
IWZKICVEHNUQTL-UHFFFAOYSA-M

> <PUBCHEM_EXACT_MASS>
203.98249

> <PUBCHEM_MOLECULAR_FORMULA>
C8H5KO4

> <PUBCHEM_MOLECULAR_WEIGHT>
204.2212

> <PUBCHEM_OPENEYE_CAN_SMILES>
C1=CC=C(C(=C1)C(=O)O)C(=O)[O-].[K+]

> <PUBCHEM_OPENEYE_ISO_SMILES>
C1=CC=C(C(=C1)C(=O)O)C(=O)[O-].[K+]

> <PUBCHEM_CACTVS_TPSA>
77.4

> <PUBCHEM_MONOISOTOPIC_WEIGHT>
203.98249

> <PUBCHEM_TOTAL_CHARGE>
0

> <PUBCHEM_HEAVY_ATOM_COUNT>
13

> <PUBCHEM_ATOM_DEF_STEREO_COUNT>
0

> <PUBCHEM_ATOM_UDEF_STEREO_COUNT>
0

> <PUBCHEM_BOND_DEF_STEREO_COUNT>
0

> <PUBCHEM_BOND_UDEF_STEREO_COUNT>
0

> <PUBCHEM_ISOTOPIC_ATOM_COUNT>
0

> <PUBCHEM_COMPONENT_COUNT>
2

> <PUBCHEM_CACTVS_TAUTO_COUNT>
1

> <PUBCHEM_COORDINATE_TYPE>
1
5
255

> <PUBCHEM_BONDANNOTATIONS>
10  11  8
6  7  8
6  8  8
7  9  8
8  10  8
9  11  8

$$$$

