854061
  -OEChem-06241222472D

 28 30  0     1  0  0  0  0  0999 V2000
    5.2788    1.7601    0.0000 S   0  0  0  0  0  0  0  0  0  0  0  0
    5.2788   -1.7601    0.0000 O   0  0  0  0  0  0  0  0  0  0  0  0
    6.5388    0.5000    0.0000 N   0  0  0  0  0  0  0  0  0  0  0  0
    5.0000    0.0000    0.0000 N   0  0  0  0  0  0  0  0  0  0  0  0
    6.5388   -0.5000    0.0000 C   0  0  1  0  0  0  0  0  0  0  0  0
    7.4851   -0.8047    0.0000 C   0  0  0  0  0  0  0  0  0  0  0  0
    8.0687    0.0000    0.0000 C   0  0  0  0  0  0  0  0  0  0  0  0
    7.4851    0.8047    0.0000 C   0  0  0  0  0  0  0  0  0  0  0  0
    5.5878   -0.8090    0.0000 C   0  0  0  0  0  0  0  0  0  0  0  0
    5.5878    0.8090    0.0000 C   0  0  0  0  0  0  0  0  0  0  0  0
    4.0000    0.0000    0.0000 C   0  0  0  0  0  0  0  0  0  0  0  0
    3.5000    0.8660    0.0000 C   0  0  0  0  0  0  0  0  0  0  0  0
    3.5000   -0.8660    0.0000 C   0  0  0  0  0  0  0  0  0  0  0  0
    2.5000    0.8660    0.0000 C   0  0  0  0  0  0  0  0  0  0  0  0
    2.5000   -0.8660    0.0000 C   0  0  0  0  0  0  0  0  0  0  0  0
    2.0000    0.0000    0.0000 C   0  0  0  0  0  0  0  0  0  0  0  0
    6.5400   -1.3500    0.0000 H   0  0  0  0  0  0  0  0  0  0  0  0
    7.2340   -1.3716    0.0000 H   0  0  0  0  0  0  0  0  0  0  0  0
    8.0224   -1.1140    0.0000 H   0  0  0  0  0  0  0  0  0  0  0  0
    8.5295   -0.4147    0.0000 H   0  0  0  0  0  0  0  0  0  0  0  0
    8.5295    0.4147    0.0000 H   0  0  0  0  0  0  0  0  0  0  0  0
    8.0224    1.1140    0.0000 H   0  0  0  0  0  0  0  0  0  0  0  0
    7.2340    1.3716    0.0000 H   0  0  0  0  0  0  0  0  0  0  0  0
    3.8100    1.4030    0.0000 H   0  0  0  0  0  0  0  0  0  0  0  0
    3.8100   -1.4030    0.0000 H   0  0  0  0  0  0  0  0  0  0  0  0
    2.1900    1.4030    0.0000 H   0  0  0  0  0  0  0  0  0  0  0  0
    2.1900   -1.4030    0.0000 H   0  0  0  0  0  0  0  0  0  0  0  0
    1.3800    0.0000    0.0000 H   0  0  0  0  0  0  0  0  0  0  0  0
  1 10  2  0  0  0  0
  2  9  2  0  0  0  0
  3  5  1  0  0  0  0
  3  8  1  0  0  0  0
  3 10  1  0  0  0  0
  4  9  1  0  0  0  0
  4 10  1  0  0  0  0
  4 11  1  0  0  0  0
  5  6  1  0  0  0  0
  5  9  1  0  0  0  0
  5 17  1  6  0  0  0
  6  7  1  0  0  0  0
  6 18  1  0  0  0  0
  6 19  1  0  0  0  0
  7  8  1  0  0  0  0
  7 20  1  0  0  0  0
  7 21  1  0  0  0  0
  8 22  1  0  0  0  0
  8 23  1  0  0  0  0
 11 12  2  0  0  0  0
 11 13  1  0  0  0  0
 12 14  1  0  0  0  0
 12 24  1  0  0  0  0
 13 15  2  0  0  0  0
 13 25  1  0  0  0  0
 14 16  2  0  0  0  0
 14 26  1  0  0  0  0
 15 16  1  0  0  0  0
 15 27  1  0  0  0  0
 16 28  1  0  0  0  0
M  END
> <PUBCHEM_COMPOUND_CID>
854061

> <PUBCHEM_COMPOUND_CANONICALIZED>
1

> <PUBCHEM_CACTVS_COMPLEXITY>
325

> <PUBCHEM_CACTVS_HBOND_ACCEPTOR>
2

> <PUBCHEM_CACTVS_HBOND_DONOR>
0

> <PUBCHEM_CACTVS_ROTATABLE_BOND>
1

> <PUBCHEM_CACTVS_SUBSKEYS>
AAADccBzIABAAAAAAAAAAAAAAAAAAWLAAAAwAAAAAAAWAAABAAAAHgQAAAAACCjBkAQxwIMAAACMACVSUACCAAAhAggIiAGIZIiIYDLAkbGUIAhohQLIyCcYAQAAAAAAAAAAAAAAAAAAAAAAAAAAAAAAAA==

> <PUBCHEM_IUPAC_OPENEYE_NAME>
(7aS)-2-phenyl-3-thioxo-5,6,7,7a-tetrahydropyrrolo[1,2-c]imidazol-1-one

> <PUBCHEM_IUPAC_CAS_NAME>
(7aS)-2-phenyl-3-sulfanylidene-5,6,7,7a-tetrahydropyrrolo[1,2-c]imidazol-1-one

> <PUBCHEM_IUPAC_NAME>
(7aS)-2-phenyl-3-sulfanylidene-5,6,7,7a-tetrahydropyrrolo[1,2-c]imidazol-1-one

> <PUBCHEM_IUPAC_SYSTEMATIC_NAME>
(7aS)-2-phenyl-3-sulfanylidene-5,6,7,7a-tetrahydropyrrolo[1,2-c]imidazol-1-one

> <PUBCHEM_IUPAC_TRADITIONAL_NAME>
(7aS)-2-phenyl-3-thioxo-5,6,7,7a-tetrahydropyrrol[1,2-c]imidazol-1-one

> <PUBCHEM_IUPAC_INCHI>
InChI=1S/C12H12N2OS/c15-11-10-7-4-8-13(10)12(16)14(11)9-5-2-1-3-6-9/h1-3,5-6,10H,4,7-8H2/t10-/m0/s1

> <PUBCHEM_IUPAC_INCHIKEY>
YNJJBMAKBUZCKN-JTQLQIEISA-N

> <PUBCHEM_XLOGP3_AA>
2

> <PUBCHEM_EXACT_MASS>
232.067034

> <PUBCHEM_MOLECULAR_FORMULA>
C12H12N2OS

> <PUBCHEM_MOLECULAR_WEIGHT>
232.30148

> <PUBCHEM_OPENEYE_CAN_SMILES>
C1CC2C(=O)N(C(=S)N2C1)C3=CC=CC=C3

> <PUBCHEM_OPENEYE_ISO_SMILES>
C1C[C@H]2C(=O)N(C(=S)N2C1)C3=CC=CC=C3

> <PUBCHEM_CACTVS_TPSA>
55.6

> <PUBCHEM_MONOISOTOPIC_WEIGHT>
232.067034

> <PUBCHEM_TOTAL_CHARGE>
0

> <PUBCHEM_HEAVY_ATOM_COUNT>
16

> <PUBCHEM_ATOM_DEF_STEREO_COUNT>
1

> <PUBCHEM_ATOM_UDEF_STEREO_COUNT>
0

> <PUBCHEM_BOND_DEF_STEREO_COUNT>
0

> <PUBCHEM_BOND_UDEF_STEREO_COUNT>
0

> <PUBCHEM_ISOTOPIC_ATOM_COUNT>
0

> <PUBCHEM_COMPONENT_COUNT>
1

> <PUBCHEM_CACTVS_TAUTO_COUNT>
2

> <PUBCHEM_COORDINATE_TYPE>
1
5
255

> <PUBCHEM_BONDANNOTATIONS>
11  12  8
11  13  8
12  14  8
13  15  8
14  16  8
15  16  8
5  17  6

$$$$

