17396183
  -OEChem-06241222552D

 43 45  0     1  0  0  0  0  0999 V2000
    7.0014    0.4201    0.0000 S   0  0  0  0  0  0  0  0  0  0  0  0
    5.6552   -3.2887    0.0000 S   0  0  0  0  0  0  0  0  0  0  0  0
    6.5855    2.3764    0.0000 O   0  0  0  0  0  0  0  0  0  0  0  0
    3.4013    4.6899    0.0000 O   0  0  0  0  0  0  0  0  0  0  0  0
    4.0823    1.4285    0.0000 N   0  0  0  0  0  0  0  0  0  0  0  0
    6.5401   -1.3012    0.0000 N   0  0  0  0  0  0  0  0  0  0  0  0
    8.0183   -1.9593    0.0000 N   0  0  0  0  0  0  0  0  0  0  0  0
    8.1228   -0.9648    0.0000 N   0  0  0  0  0  0  0  0  0  0  0  0
    4.8913    2.0163    0.0000 C   0  0  0  0  0  0  0  0  0  0  0  0
    4.5823    2.9674    0.0000 C   0  0  0  0  0  0  0  0  0  0  0  0
    3.5823    2.9674    0.0000 C   0  0  0  0  0  0  0  0  0  0  0  0
    3.2733    2.0163    0.0000 C   0  0  0  0  0  0  0  0  0  0  0  0
    5.8424    1.7073    0.0000 C   0  0  0  0  0  0  0  0  0  0  0  0
    6.0503    0.7291    0.0000 C   0  0  3  0  0  0  0  0  0  0  0  0
    5.1701    3.7764    0.0000 C   0  0  0  0  0  0  0  0  0  0  0  0
    2.3222    1.7073    0.0000 C   0  0  0  0  0  0  0  0  0  0  0  0
    2.9945    3.7764    0.0000 C   0  0  0  0  0  0  0  0  0  0  0  0
    5.3072    0.0600    0.0000 C   0  0  0  0  0  0  0  0  0  0  0  0
    2.0000    3.6718    0.0000 C   0  0  0  0  0  0  0  0  0  0  0  0
    7.2093   -0.5580    0.0000 C   0  0  0  0  0  0  0  0  0  0  0  0
    7.0401   -2.1672    0.0000 C   0  0  0  0  0  0  0  0  0  0  0  0
    6.6334   -3.0808    0.0000 C   0  0  0  0  0  0  0  0  0  0  0  0
    7.1334   -3.9468    0.0000 C   0  0  0  0  0  0  0  0  0  0  0  0
    6.4643   -4.6899    0.0000 C   0  0  0  0  0  0  0  0  0  0  0  0
    5.5507   -4.2832    0.0000 C   0  0  0  0  0  0  0  0  0  0  0  0
    4.0823    0.8085    0.0000 H   0  0  0  0  0  0  0  0  0  0  0  0
    6.1792    0.1227    0.0000 H   0  0  0  0  0  0  0  0  0  0  0  0
    5.6717    3.4119    0.0000 H   0  0  0  0  0  0  0  0  0  0  0  0
    5.5345    4.2780    0.0000 H   0  0  0  0  0  0  0  0  0  0  0  0
    4.6685    4.1408    0.0000 H   0  0  0  0  0  0  0  0  0  0  0  0
    2.1306    2.2969    0.0000 H   0  0  0  0  0  0  0  0  0  0  0  0
    1.7326    1.5157    0.0000 H   0  0  0  0  0  0  0  0  0  0  0  0
    2.5138    1.1176    0.0000 H   0  0  0  0  0  0  0  0  0  0  0  0
    4.8923    0.5208    0.0000 H   0  0  0  0  0  0  0  0  0  0  0  0
    4.8464   -0.3549    0.0000 H   0  0  0  0  0  0  0  0  0  0  0  0
    5.7220   -0.4007    0.0000 H   0  0  0  0  0  0  0  0  0  0  0  0
    1.9352    4.2884    0.0000 H   0  0  0  0  0  0  0  0  0  0  0  0
    1.3834    3.6070    0.0000 H   0  0  0  0  0  0  0  0  0  0  0  0
    2.0648    3.0552    0.0000 H   0  0  0  0  0  0  0  0  0  0  0  0
    8.4790   -2.3742    0.0000 H   0  0  0  0  0  0  0  0  0  0  0  0
    7.7500   -4.0116    0.0000 H   0  0  0  0  0  0  0  0  0  0  0  0
    6.5932   -5.2964    0.0000 H   0  0  0  0  0  0  0  0  0  0  0  0
    5.0138   -4.5932    0.0000 H   0  0  0  0  0  0  0  0  0  0  0  0
  1 14  1  0  0  0  0
  1 20  1  0  0  0  0
  2 22  1  0  0  0  0
  2 25  1  0  0  0  0
  3 13  2  0  0  0  0
  4 17  2  0  0  0  0
  5  9  1  0  0  0  0
  5 12  1  0  0  0  0
  5 26  1  0  0  0  0
  6 20  1  0  0  0  0
  6 21  2  0  0  0  0
  7  8  1  0  0  0  0
  7 21  1  0  0  0  0
  7 40  1  0  0  0  0
  8 20  2  0  0  0  0
  9 10  2  0  0  0  0
  9 13  1  0  0  0  0
 10 11  1  0  0  0  0
 10 15  1  0  0  0  0
 11 12  2  0  0  0  0
 11 17  1  0  0  0  0
 12 16  1  0  0  0  0
 13 14  1  0  0  0  0
 14 18  1  0  0  0  0
 14 27  1  0  0  0  0
 15 28  1  0  0  0  0
 15 29  1  0  0  0  0
 15 30  1  0  0  0  0
 16 31  1  0  0  0  0
 16 32  1  0  0  0  0
 16 33  1  0  0  0  0
 17 19  1  0  0  0  0
 18 34  1  0  0  0  0
 18 35  1  0  0  0  0
 18 36  1  0  0  0  0
 19 37  1  0  0  0  0
 19 38  1  0  0  0  0
 19 39  1  0  0  0  0
 21 22  1  0  0  0  0
 22 23  2  0  0  0  0
 23 24  1  0  0  0  0
 23 41  1  0  0  0  0
 24 25  2  0  0  0  0
 24 42  1  0  0  0  0
 25 43  1  0  0  0  0
M  END
> <PUBCHEM_COMPOUND_CID>
17396183

> <PUBCHEM_COMPOUND_CANONICALIZED>
1

> <PUBCHEM_CACTVS_COMPLEXITY>
521

> <PUBCHEM_CACTVS_HBOND_ACCEPTOR>
6

> <PUBCHEM_CACTVS_HBOND_DONOR>
2

> <PUBCHEM_CACTVS_ROTATABLE_BOND>
6

> <PUBCHEM_CACTVS_SUBSKEYS>
AAADceB7sABgAAAAAAAAAAAAAAAAAWLEgAAAAAAAAAAAAAAB+AAAHgQYAAAADAyF3wCzkZbrkAiuA6ZyZACT0KvnCLBduTmwRNiIKPrgnbGEAYhgmALoyUcci8C+gAAAAAAAAAAAAAAAAAAAAAAAAAAAAA==

> <PUBCHEM_IUPAC_OPENEYE_NAME>
1-(4-acetyl-3,5-dimethyl-1H-pyrrol-2-yl)-2-[[5-(2-thienyl)-1H-1,2,4-triazol-3-yl]sulfanyl]propan-1-one

> <PUBCHEM_IUPAC_CAS_NAME>
1-(4-acetyl-3,5-dimethyl-1H-pyrrol-2-yl)-2-[(5-thiophen-2-yl-1H-1,2,4-triazol-3-yl)thio]-1-propanone

> <PUBCHEM_IUPAC_NAME>
1-(4-acetyl-3,5-dimethyl-1H-pyrrol-2-yl)-2-[(5-thiophen-2-yl-1H-1,2,4-triazol-3-yl)sulfanyl]propan-1-one

> <PUBCHEM_IUPAC_SYSTEMATIC_NAME>
1-(4-ethanoyl-3,5-dimethyl-1H-pyrrol-2-yl)-2-[(5-thiophen-2-yl-1H-1,2,4-triazol-3-yl)sulfanyl]propan-1-one

> <PUBCHEM_IUPAC_TRADITIONAL_NAME>
1-(4-acetyl-3,5-dimethyl-1H-pyrrol-2-yl)-2-[[5-(2-thienyl)-1H-1,2,4-triazol-3-yl]thio]propan-1-one

> <PUBCHEM_IUPAC_INCHI>
InChI=1S/C17H18N4O2S2/c1-8-13(10(3)22)9(2)18-14(8)15(23)11(4)25-17-19-16(20-21-17)12-6-5-7-24-12/h5-7,11,18H,1-4H3,(H,19,20,21)

> <PUBCHEM_IUPAC_INCHIKEY>
VPIIPYPTMMZBHL-UHFFFAOYSA-N

> <PUBCHEM_XLOGP3_AA>
3.6

> <PUBCHEM_EXACT_MASS>
374.087118

> <PUBCHEM_MOLECULAR_FORMULA>
C17H18N4O2S2

> <PUBCHEM_MOLECULAR_WEIGHT>
374.48042

> <PUBCHEM_OPENEYE_CAN_SMILES>
CC1=C(NC(=C1C(=O)C)C)C(=O)C(C)SC2=NNC(=N2)C3=CC=CS3

> <PUBCHEM_OPENEYE_ISO_SMILES>
CC1=C(NC(=C1C(=O)C)C)C(=O)C(C)SC2=NNC(=N2)C3=CC=CS3

> <PUBCHEM_CACTVS_TPSA>
145

> <PUBCHEM_MONOISOTOPIC_WEIGHT>
374.087118

> <PUBCHEM_TOTAL_CHARGE>
0

> <PUBCHEM_HEAVY_ATOM_COUNT>
25

> <PUBCHEM_ATOM_DEF_STEREO_COUNT>
0

> <PUBCHEM_ATOM_UDEF_STEREO_COUNT>
1

> <PUBCHEM_BOND_DEF_STEREO_COUNT>
0

> <PUBCHEM_BOND_UDEF_STEREO_COUNT>
0

> <PUBCHEM_ISOTOPIC_ATOM_COUNT>
0

> <PUBCHEM_COMPONENT_COUNT>
1

> <PUBCHEM_CACTVS_TAUTO_COUNT>
186

> <PUBCHEM_COORDINATE_TYPE>
1
5
255

> <PUBCHEM_BONDANNOTATIONS>
10  11  8
11  12  8
14  18  3
2  22  8
2  25  8
22  23  8
23  24  8
24  25  8
5  12  8
5  9  8
6  20  8
6  21  8
7  21  8
7  8  8
8  20  8
9  10  8

$$$$

