17396408
  -OEChem-06241222562D

 46 49  0     1  0  0  0  0  0999 V2000
    8.0321    0.1816    0.0000 S   0  0  0  0  0  0  0  0  0  0  0  0
    9.9867    0.6049    0.0000 O   0  0  0  0  0  0  0  0  0  0  0  0
   10.3534   -1.0879    0.0000 N   0  0  0  0  0  0  0  0  0  0  0  0
    4.5274    1.0941    0.0000 N   0  0  0  0  0  0  0  0  0  0  0  0
    6.3518    0.7386    0.0000 N   0  0  0  0  0  0  0  0  0  0  0  0
    5.7123   -1.2295    0.0000 N   0  0  0  0  0  0  0  0  0  0  0  0
    6.7328   -1.0208    0.0000 N   0  0  0  0  0  0  0  0  0  0  0  0
   12.0027   -1.6168    0.0000 C   0  0  0  0  0  0  0  0  0  0  0  0
   12.2144   -2.5941    0.0000 C   0  0  0  0  0  0  0  0  0  0  0  0
   12.9549   -1.9221    0.0000 C   0  0  0  0  0  0  0  0  0  0  0  0
   11.3307   -0.8762    0.0000 C   0  0  3  0  0  0  0  0  0  0  0  0
   11.6361    0.0760    0.0000 C   0  0  0  0  0  0  0  0  0  0  0  0
    9.6814   -0.3473    0.0000 C   0  0  0  0  0  0  0  0  0  0  0  0
    8.7040   -0.5590    0.0000 C   0  0  0  0  0  0  0  0  0  0  0  0
    3.7183    0.5063    0.0000 C   0  0  0  0  0  0  0  0  0  0  0  0
    4.0274   -0.4447    0.0000 C   0  0  0  0  0  0  0  0  0  0  0  0
    5.3364    0.5063    0.0000 C   0  0  0  0  0  0  0  0  0  0  0  0
    5.0274   -0.4447    0.0000 C   0  0  0  0  0  0  0  0  0  0  0  0
    4.5274    2.0941    0.0000 C   0  0  0  0  0  0  0  0  0  0  0  0
    2.7029    0.7386    0.0000 C   0  0  0  0  0  0  0  0  0  0  0  0
    3.3424   -1.2295    0.0000 C   0  0  0  0  0  0  0  0  0  0  0  0
    7.0547   -0.0301    0.0000 C   0  0  0  0  0  0  0  0  0  0  0  0
    3.6613    2.5941    0.0000 C   0  0  0  0  0  0  0  0  0  0  0  0
    2.0000   -0.0301    0.0000 C   0  0  0  0  0  0  0  0  0  0  0  0
    2.3219   -1.0208    0.0000 C   0  0  0  0  0  0  0  0  0  0  0  0
   11.4514   -1.9004    0.0000 H   0  0  0  0  0  0  0  0  0  0  0  0
   13.4450   -2.3019    0.0000 H   0  0  0  0  0  0  0  0  0  0  0  0
   13.2439   -1.3736    0.0000 H   0  0  0  0  0  0  0  0  0  0  0  0
   11.6404   -2.8286    0.0000 H   0  0  0  0  0  0  0  0  0  0  0  0
   12.5450   -3.1186    0.0000 H   0  0  0  0  0  0  0  0  0  0  0  0
   10.9141   -0.4171    0.0000 H   0  0  0  0  0  0  0  0  0  0  0  0
   12.2265   -0.1133    0.0000 H   0  0  0  0  0  0  0  0  0  0  0  0
   11.8254    0.6664    0.0000 H   0  0  0  0  0  0  0  0  0  0  0  0
   11.0457    0.2654    0.0000 H   0  0  0  0  0  0  0  0  0  0  0  0
   10.1641   -1.6783    0.0000 H   0  0  0  0  0  0  0  0  0  0  0  0
    8.1795   -0.8896    0.0000 H   0  0  0  0  0  0  0  0  0  0  0  0
    8.9385   -1.1330    0.0000 H   0  0  0  0  0  0  0  0  0  0  0  0
    5.1379    1.9864    0.0000 H   0  0  0  0  0  0  0  0  0  0  0  0
    4.7394    2.6767    0.0000 H   0  0  0  0  0  0  0  0  0  0  0  0
    2.5182    1.3304    0.0000 H   0  0  0  0  0  0  0  0  0  0  0  0
    3.5408   -1.8169    0.0000 H   0  0  0  0  0  0  0  0  0  0  0  0
    3.9713    3.1310    0.0000 H   0  0  0  0  0  0  0  0  0  0  0  0
    3.1244    2.9041    0.0000 H   0  0  0  0  0  0  0  0  0  0  0  0
    3.3513    2.0572    0.0000 H   0  0  0  0  0  0  0  0  0  0  0  0
    1.3940    0.1011    0.0000 H   0  0  0  0  0  0  0  0  0  0  0  0
    1.9088   -1.4831    0.0000 H   0  0  0  0  0  0  0  0  0  0  0  0
  1 14  1  0  0  0  0
  1 22  1  0  0  0  0
  2 13  2  0  0  0  0
  3 11  1  0  0  0  0
  3 13  1  0  0  0  0
  3 35  1  0  0  0  0
  4 15  1  0  0  0  0
  4 17  1  0  0  0  0
  4 19  1  0  0  0  0
  5 17  1  0  0  0  0
  5 22  2  0  0  0  0
  6  7  2  0  0  0  0
  6 18  1  0  0  0  0
  7 22  1  0  0  0  0
  8  9  1  0  0  0  0
  8 10  1  0  0  0  0
  8 11  1  0  0  0  0
  8 26  1  0  0  0  0
  9 10  1  0  0  0  0
  9 29  1  0  0  0  0
  9 30  1  0  0  0  0
 10 27  1  0  0  0  0
 10 28  1  0  0  0  0
 11 12  1  0  0  0  0
 11 31  1  0  0  0  0
 12 32  1  0  0  0  0
 12 33  1  0  0  0  0
 12 34  1  0  0  0  0
 13 14  1  0  0  0  0
 14 36  1  0  0  0  0
 14 37  1  0  0  0  0
 15 16  1  0  0  0  0
 15 20  2  0  0  0  0
 16 18  1  0  0  0  0
 16 21  2  0  0  0  0
 17 18  2  0  0  0  0
 19 23  1  0  0  0  0
 19 38  1  0  0  0  0
 19 39  1  0  0  0  0
 20 24  1  0  0  0  0
 20 40  1  0  0  0  0
 21 25  1  0  0  0  0
 21 41  1  0  0  0  0
 23 42  1  0  0  0  0
 23 43  1  0  0  0  0
 23 44  1  0  0  0  0
 24 25  2  0  0  0  0
 24 45  1  0  0  0  0
 25 46  1  0  0  0  0
M  END
> <PUBCHEM_COMPOUND_CID>
17396408

> <PUBCHEM_COMPOUND_CANONICALIZED>
1

> <PUBCHEM_CACTVS_COMPLEXITY>
488

> <PUBCHEM_CACTVS_HBOND_ACCEPTOR>
5

> <PUBCHEM_CACTVS_HBOND_DONOR>
1

> <PUBCHEM_CACTVS_ROTATABLE_BOND>
6

> <PUBCHEM_CACTVS_SUBSKEYS>
AAADceB7oABAAAAAAAAAAAAAGAAAAWAAAAA8QAAAAAAAAFgB/gAAHgQYAAAADSjF3wSz8P/MEAiqAydydACS1C9hErAd2KA4dJiIaOLA2dGUpAhongLIyCcQgIAOAAAAAAACAAAAAAAAAAQAAAAAAAAAAA==

> <PUBCHEM_IUPAC_OPENEYE_NAME>
N-(1-cyclopropylethyl)-2-[(5-ethyl-[1,2,4]triazino[5,6-b]indol-3-yl)sulfanyl]acetamide

> <PUBCHEM_IUPAC_CAS_NAME>
N-(1-cyclopropylethyl)-2-[(5-ethyl-[1,2,4]triazino[5,6-b]indol-3-yl)thio]acetamide

> <PUBCHEM_IUPAC_NAME>
N-(1-cyclopropylethyl)-2-[(5-ethyl-[1,2,4]triazino[5,6-b]indol-3-yl)sulfanyl]acetamide

> <PUBCHEM_IUPAC_SYSTEMATIC_NAME>
N-(1-cyclopropylethyl)-2-[(5-ethyl-[1,2,4]triazino[5,6-b]indol-3-yl)sulfanyl]ethanamide

> <PUBCHEM_IUPAC_TRADITIONAL_NAME>
N-(1-cyclopropylethyl)-2-[(5-ethyl-[1,2,4]triazin[5,6-b]indol-3-yl)thio]acetamide

> <PUBCHEM_IUPAC_INCHI>
InChI=1S/C18H21N5OS/c1-3-23-14-7-5-4-6-13(14)16-17(23)20-18(22-21-16)25-10-15(24)19-11(2)12-8-9-12/h4-7,11-12H,3,8-10H2,1-2H3,(H,19,24)

> <PUBCHEM_IUPAC_INCHIKEY>
FSEGALLUGUZEDI-UHFFFAOYSA-N

> <PUBCHEM_XLOGP3_AA>
2.7

> <PUBCHEM_EXACT_MASS>
355.146681

> <PUBCHEM_MOLECULAR_FORMULA>
C18H21N5OS

> <PUBCHEM_MOLECULAR_WEIGHT>
355.45724

> <PUBCHEM_OPENEYE_CAN_SMILES>
CCN1C2=CC=CC=C2C3=C1N=C(N=N3)SCC(=O)NC(C)C4CC4

> <PUBCHEM_OPENEYE_ISO_SMILES>
CCN1C2=CC=CC=C2C3=C1N=C(N=N3)SCC(=O)NC(C)C4CC4

> <PUBCHEM_CACTVS_TPSA>
98

> <PUBCHEM_MONOISOTOPIC_WEIGHT>
355.146681

> <PUBCHEM_TOTAL_CHARGE>
0

> <PUBCHEM_HEAVY_ATOM_COUNT>
25

> <PUBCHEM_ATOM_DEF_STEREO_COUNT>
0

> <PUBCHEM_ATOM_UDEF_STEREO_COUNT>
1

> <PUBCHEM_BOND_DEF_STEREO_COUNT>
0

> <PUBCHEM_BOND_UDEF_STEREO_COUNT>
0

> <PUBCHEM_ISOTOPIC_ATOM_COUNT>
0

> <PUBCHEM_COMPONENT_COUNT>
1

> <PUBCHEM_CACTVS_TAUTO_COUNT>
2

> <PUBCHEM_COORDINATE_TYPE>
1
5
255

> <PUBCHEM_BONDANNOTATIONS>
11  12  3
15  16  8
15  20  8
16  18  8
16  21  8
17  18  8
20  24  8
21  25  8
24  25  8
4  15  8
4  17  8
5  17  8
5  22  8
6  18  8
6  7  8
7  22  8

$$$$

