4194
  -OEChem-06251223572D

131133  0     1  0  0  0  0  0999 V2000
    7.1962    0.6205    0.0000 O   0  0  0  0  0  0  0  0  0  0  0  0
    8.0622   -0.8795    0.0000 O   0  0  0  0  0  0  0  0  0  0  0  0
    8.0622    3.1205    0.0000 O   0  0  0  0  0  0  0  0  0  0  0  0
    9.7942    0.1205    0.0000 O   0  0  0  0  0  0  0  0  0  0  0  0
    7.1962    4.6205    0.0000 O   0  0  0  0  0  0  0  0  0  0  0  0
    6.3301    0.1205    0.0000 O   0  0  0  0  0  0  0  0  0  0  0  0
    4.5981   -0.8795    0.0000 O   0  0  0  0  0  0  0  0  0  0  0  0
    4.5981    3.1205    0.0000 O   0  0  0  0  0  0  0  0  0  0  0  0
    4.5981    5.1205    0.0000 O   0  0  0  0  0  0  0  0  0  0  0  0
    6.7396   -5.9033    0.0000 O   0  0  0  0  0  0  0  0  0  0  0  0
    9.8816   -2.8818    0.0000 O   0  0  0  0  0  0  0  0  0  0  0  0
    3.7320   -2.3795    0.0000 O   0  0  0  0  0  0  0  0  0  0  0  0
    4.5981   -3.8795    0.0000 O   0  0  0  0  0  0  0  0  0  0  0  0
    4.2973    0.8262    0.0000 O   0  0  0  0  0  0  0  0  0  0  0  0
    5.4641    6.6205    0.0000 O   0  0  0  0  0  0  0  0  0  0  0  0
    3.7320    4.6205    0.0000 O   0  0  0  0  0  0  0  0  0  0  0  0
    5.1394   -6.5661    0.0000 O   0  0  0  0  0  0  0  0  0  0  0  0
    9.7942    2.1205    0.0000 N   0  0  0  0  0  0  0  0  0  0  0  0
    8.9282    1.6205    0.0000 C   0  0  3  0  0  0  0  0  0  0  0  0
    8.0622    2.1205    0.0000 C   0  0  3  0  0  0  0  0  0  0  0  0
    8.9282    0.6205    0.0000 C   0  0  3  0  0  0  0  0  0  0  0  0
    8.0622    0.1205    0.0000 C   0  0  3  0  0  0  0  0  0  0  0  0
    7.1962    1.6205    0.0000 C   0  0  3  0  0  0  0  0  0  0  0  0
    7.1962   -1.3795    0.0000 C   0  0  3  0  0  0  0  0  0  0  0  0
    7.1962   -2.3795    0.0000 C   0  0  3  0  0  0  0  0  0  0  0  0
    6.3301   -0.8795    0.0000 C   0  0  3  0  0  0  0  0  0  0  0  0
    6.8052   -3.3064    0.0000 C   0  0  0  0  0  0  0  0  0  0  0  0
    7.1962    3.6205    0.0000 C   0  0  3  0  0  0  0  0  0  0  0  0
    7.0640   -4.2723    0.0000 C   0  0  3  0  0  0  0  0  0  0  0  0
    6.3301    2.1205    0.0000 C   0  0  0  0  0  0  0  0  0  0  0  0
    6.3301    3.1205    0.0000 C   0  0  0  0  0  0  0  0  0  0  0  0
    8.1791   -2.5634    0.0000 C   0  0  0  0  0  0  0  0  0  0  0  0
    5.4641   -1.3795    0.0000 C   0  0  3  0  0  0  0  0  0  0  0  0
    5.4641    3.6205    0.0000 C   0  0  3  0  0  0  0  0  0  0  0  0
    5.4641    4.6205    0.0000 C   0  0  3  0  0  0  0  0  0  0  0  0
    6.3301    5.1205    0.0000 C   0  0  3  0  0  0  0  0  0  0  0  0
   10.6603    1.6205    0.0000 C   0  0  0  0  0  0  0  0  0  0  0  0
    9.7942    3.1205    0.0000 C   0  0  0  0  0  0  0  0  0  0  0  0
    6.3569   -4.9794    0.0000 C   0  0  3  0  0  0  0  0  0  0  0  0
    5.4641   -2.3795    0.0000 C   0  0  0  0  0  0  0  0  0  0  0  0
    7.7711   -4.9794    0.0000 C   0  0  0  0  0  0  0  0  0  0  0  0
    6.3301    6.1205    0.0000 C   0  0  0  0  0  0  0  0  0  0  0  0
    8.9384   -3.2141    0.0000 C   0  0  0  0  0  0  0  0  0  0  0  0
    5.3569   -4.9794    0.0000 C   0  0  0  0  0  0  0  0  0  0  0  0
    5.4641    0.6205    0.0000 C   0  0  0  0  0  0  0  0  0  0  0  0
    4.5981   -2.8795    0.0000 C   0  0  0  0  0  0  0  0  0  0  0  0
    3.9553   -0.1134    0.0000 C   0  0  0  0  0  0  0  0  0  0  0  0
    4.5981    6.1205    0.0000 C   0  0  0  0  0  0  0  0  0  0  0  0
    3.7320    3.6205    0.0000 C   0  0  0  0  0  0  0  0  0  0  0  0
    4.8569   -5.8454    0.0000 C   0  0  0  0  0  0  0  0  0  0  0  0
    6.1308   -6.6966    0.0000 C   0  0  0  0  0  0  0  0  0  0  0  0
    2.9705   -0.2871    0.0000 C   0  0  0  0  0  0  0  0  0  0  0  0
    2.8660   -2.8795    0.0000 C   0  0  3  0  0  0  0  0  0  0  0  0
    3.7320    6.6205    0.0000 C   0  0  0  0  0  0  0  0  0  0  0  0
    2.8660    3.1205    0.0000 C   0  0  0  0  0  0  0  0  0  0  0  0
    3.9909   -5.3454    0.0000 C   0  0  0  0  0  0  0  0  0  0  0  0
    2.8660   -3.8795    0.0000 C   0  0  0  0  0  0  0  0  0  0  0  0
    3.7320   -4.3795    0.0000 C   0  0  0  0  0  0  0  0  0  0  0  0
    6.5135   -7.6205    0.0000 C   0  0  0  0  0  0  0  0  0  0  0  0
    2.6285   -1.2268    0.0000 C   0  0  0  0  0  0  0  0  0  0  0  0
    2.0000   -2.3795    0.0000 C   0  0  0  0  0  0  0  0  0  0  0  0
    3.7320    7.6205    0.0000 C   0  0  0  0  0  0  0  0  0  0  0  0
    9.6643    1.1955    0.0000 H   0  0  0  0  0  0  0  0  0  0  0  0
    7.3261    2.5455    0.0000 H   0  0  0  0  0  0  0  0  0  0  0  0
    9.6643    1.0455    0.0000 H   0  0  0  0  0  0  0  0  0  0  0  0
    7.3261   -0.3045    0.0000 H   0  0  0  0  0  0  0  0  0  0  0  0
    6.4600    1.1955    0.0000 H   0  0  0  0  0  0  0  0  0  0  0  0
    7.9323   -1.8045    0.0000 H   0  0  0  0  0  0  0  0  0  0  0  0
    7.5987   -3.1281    0.0000 H   0  0  0  0  0  0  0  0  0  0  0  0
    7.0662   -0.4545    0.0000 H   0  0  0  0  0  0  0  0  0  0  0  0
    6.3320   -2.9058    0.0000 H   0  0  0  0  0  0  0  0  0  0  0  0
    6.2816   -3.6384    0.0000 H   0  0  0  0  0  0  0  0  0  0  0  0
    7.1962    2.7705    0.0000 H   0  0  0  0  0  0  0  0  0  0  0  0
    7.8001   -3.8473    0.0000 H   0  0  0  0  0  0  0  0  0  0  0  0
    6.6401    2.6574    0.0000 H   0  0  0  0  0  0  0  0  0  0  0  0
    5.7932    2.4305    0.0000 H   0  0  0  0  0  0  0  0  0  0  0  0
    6.0201    1.5836    0.0000 H   0  0  0  0  0  0  0  0  0  0  0  0
    5.9316    2.6456    0.0000 H   0  0  0  0  0  0  0  0  0  0  0  0
    6.7287    2.6456    0.0000 H   0  0  0  0  0  0  0  0  0  0  0  0
    8.7192   -2.2590    0.0000 H   0  0  0  0  0  0  0  0  0  0  0  0
    7.9113   -3.1225    0.0000 H   0  0  0  0  0  0  0  0  0  0  0  0
    5.4641   -0.5295    0.0000 H   0  0  0  0  0  0  0  0  0  0  0  0
    5.4641    2.7705    0.0000 H   0  0  0  0  0  0  0  0  0  0  0  0
    5.4641    5.4705    0.0000 H   0  0  0  0  0  0  0  0  0  0  0  0
    7.0662    5.5455    0.0000 H   0  0  0  0  0  0  0  0  0  0  0  0
    9.7942   -0.4995    0.0000 H   0  0  0  0  0  0  0  0  0  0  0  0
   10.3503    1.0836    0.0000 H   0  0  0  0  0  0  0  0  0  0  0  0
   11.1972    1.3105    0.0000 H   0  0  0  0  0  0  0  0  0  0  0  0
   10.9703    2.1574    0.0000 H   0  0  0  0  0  0  0  0  0  0  0  0
   10.4142    3.1205    0.0000 H   0  0  0  0  0  0  0  0  0  0  0  0
    9.7942    3.7405    0.0000 H   0  0  0  0  0  0  0  0  0  0  0  0
    9.1742    3.1205    0.0000 H   0  0  0  0  0  0  0  0  0  0  0  0
    7.1906   -5.1452    0.0000 H   0  0  0  0  0  0  0  0  0  0  0  0
    5.6762   -2.9621    0.0000 H   0  0  0  0  0  0  0  0  0  0  0  0
    6.0747   -2.2718    0.0000 H   0  0  0  0  0  0  0  0  0  0  0  0
    7.3327   -5.4178    0.0000 H   0  0  0  0  0  0  0  0  0  0  0  0
    8.2095   -5.4178    0.0000 H   0  0  0  0  0  0  0  0  0  0  0  0
    8.2095   -4.5410    0.0000 H   0  0  0  0  0  0  0  0  0  0  0  0
    6.9501    6.1205    0.0000 H   0  0  0  0  0  0  0  0  0  0  0  0
    6.3301    6.7405    0.0000 H   0  0  0  0  0  0  0  0  0  0  0  0
    5.7101    6.1205    0.0000 H   0  0  0  0  0  0  0  0  0  0  0  0
    8.8245   -3.8234    0.0000 H   0  0  0  0  0  0  0  0  0  0  0  0
    5.0469   -4.4425    0.0000 H   0  0  0  0  0  0  0  0  0  0  0  0
    5.7741    1.1574    0.0000 H   0  0  0  0  0  0  0  0  0  0  0  0
    4.9272    0.9305    0.0000 H   0  0  0  0  0  0  0  0  0  0  0  0
    5.1541    0.0836    0.0000 H   0  0  0  0  0  0  0  0  0  0  0  0
    5.0174   -6.4443    0.0000 H   0  0  0  0  0  0  0  0  0  0  0  0
    2.9705    0.3329    0.0000 H   0  0  0  0  0  0  0  0  0  0  0  0
    2.3599   -0.1794    0.0000 H   0  0  0  0  0  0  0  0  0  0  0  0
    2.8660   -2.0295    0.0000 H   0  0  0  0  0  0  0  0  0  0  0  0
    3.1215    6.7282    0.0000 H   0  0  0  0  0  0  0  0  0  0  0  0
    3.5200    6.0379    0.0000 H   0  0  0  0  0  0  0  0  0  0  0  0
    2.5560    3.6574    0.0000 H   0  0  0  0  0  0  0  0  0  0  0  0
    2.3291    2.8105    0.0000 H   0  0  0  0  0  0  0  0  0  0  0  0
    3.1760    2.5836    0.0000 H   0  0  0  0  0  0  0  0  0  0  0  0
    3.4990   -5.7228    0.0000 H   0  0  0  0  0  0  0  0  0  0  0  0
    2.2554   -3.7718    0.0000 H   0  0  0  0  0  0  0  0  0  0  0  0
    2.6540   -4.4621    0.0000 H   0  0  0  0  0  0  0  0  0  0  0  0
    4.2239   -4.0021    0.0000 H   0  0  0  0  0  0  0  0  0  0  0  0
    5.9407   -7.8578    0.0000 H   0  0  0  0  0  0  0  0  0  0  0  0
    6.7508   -8.1933    0.0000 H   0  0  0  0  0  0  0  0  0  0  0  0
    7.0863   -7.3832    0.0000 H   0  0  0  0  0  0  0  0  0  0  0  0
    2.0458   -1.0147    0.0000 H   0  0  0  0  0  0  0  0  0  0  0  0
    2.4164   -1.8094    0.0000 H   0  0  0  0  0  0  0  0  0  0  0  0
    3.2111   -1.4388    0.0000 H   0  0  0  0  0  0  0  0  0  0  0  0
    2.3100   -1.8426    0.0000 H   0  0  0  0  0  0  0  0  0  0  0  0
    1.4631   -2.0695    0.0000 H   0  0  0  0  0  0  0  0  0  0  0  0
    1.6900   -2.9164    0.0000 H   0  0  0  0  0  0  0  0  0  0  0  0
    4.3520    7.6205    0.0000 H   0  0  0  0  0  0  0  0  0  0  0  0
    3.7320    8.2405    0.0000 H   0  0  0  0  0  0  0  0  0  0  0  0
    3.1120    7.6205    0.0000 H   0  0  0  0  0  0  0  0  0  0  0  0
  1 22  1  0  0  0  0
  1 23  1  0  0  0  0
  2 22  1  0  0  0  0
  2 24  1  0  0  0  0
  3 20  1  0  0  0  0
  3 28  1  0  0  0  0
  4 21  1  0  0  0  0
  4 86  1  0  0  0  0
  5 28  1  0  0  0  0
  5 36  1  0  0  0  0
  6 26  1  0  0  0  0
  6 45  1  0  0  0  0
  7 33  1  0  0  0  0
  7 47  1  0  0  0  0
  8 34  1  0  0  0  0
  8 49  1  0  0  0  0
  9 35  1  0  0  0  0
  9 48  1  0  0  0  0
 10 39  1  0  0  0  0
 10 51  1  0  0  0  0
 11 43  2  0  0  0  0
 12 46  1  0  0  0  0
 12 53  1  0  0  0  0
 13 46  2  0  0  0  0
 14 47  2  0  0  0  0
 15 48  2  0  0  0  0
 16 49  2  0  0  0  0
 17 51  2  0  0  0  0
 18 19  1  0  0  0  0
 18 37  1  0  0  0  0
 18 38  1  0  0  0  0
 19 20  1  0  0  0  0
 19 21  1  0  0  0  0
 19 63  1  0  0  0  0
 20 23  1  0  0  0  0
 20 64  1  0  0  0  0
 21 22  1  0  0  0  0
 21 65  1  0  0  0  0
 22 66  1  0  0  0  0
 23 30  1  0  0  0  0
 23 67  1  0  0  0  0
 24 25  1  0  0  0  0
 24 26  1  0  0  0  0
 24 68  1  0  0  0  0
 25 27  1  0  0  0  0
 25 32  1  0  0  0  0
 25 69  1  0  0  0  0
 26 33  1  0  0  0  0
 26 70  1  0  0  0  0
 27 29  1  0  0  0  0
 27 71  1  0  0  0  0
 27 72  1  0  0  0  0
 28 31  1  0  0  0  0
 28 73  1  0  0  0  0
 29 39  1  0  0  0  0
 29 41  1  0  0  0  0
 29 74  1  0  0  0  0
 30 75  1  0  0  0  0
 30 76  1  0  0  0  0
 30 77  1  0  0  0  0
 31 34  1  0  0  0  0
 31 78  1  0  0  0  0
 31 79  1  0  0  0  0
 32 43  1  0  0  0  0
 32 80  1  0  0  0  0
 32 81  1  0  0  0  0
 33 40  1  0  0  0  0
 33 82  1  0  0  0  0
 34 35  1  0  0  0  0
 34 83  1  0  0  0  0
 35 36  1  0  0  0  0
 35 84  1  0  0  0  0
 36 42  1  0  0  0  0
 36 85  1  0  0  0  0
 37 87  1  0  0  0  0
 37 88  1  0  0  0  0
 37 89  1  0  0  0  0
 38 90  1  0  0  0  0
 38 91  1  0  0  0  0
 38 92  1  0  0  0  0
 39 44  1  0  0  0  0
 39 93  1  0  0  0  0
 40 46  1  0  0  0  0
 40 94  1  0  0  0  0
 40 95  1  0  0  0  0
 41 96  1  0  0  0  0
 41 97  1  0  0  0  0
 41 98  1  0  0  0  0
 42 99  1  0  0  0  0
 42100  1  0  0  0  0
 42101  1  0  0  0  0
 43102  1  0  0  0  0
 44 50  2  3  0  0  0
 44103  1  0  0  0  0
 45104  1  0  0  0  0
 45105  1  0  0  0  0
 45106  1  0  0  0  0
 47 52  1  0  0  0  0
 48 54  1  0  0  0  0
 49 55  1  0  0  0  0
 50 56  1  0  0  0  0
 50107  1  0  0  0  0
 51 59  1  0  0  0  0
 52 60  1  0  0  0  0
 52108  1  0  0  0  0
 52109  1  0  0  0  0
 53 57  1  0  0  0  0
 53 61  1  0  0  0  0
 53110  1  0  0  0  0
 54 62  1  0  0  0  0
 54111  1  0  0  0  0
 54112  1  0  0  0  0
 55113  1  0  0  0  0
 55114  1  0  0  0  0
 55115  1  0  0  0  0
 56 58  2  3  0  0  0
 56116  1  0  0  0  0
 57 58  1  0  0  0  0
 57117  1  0  0  0  0
 57118  1  0  0  0  0
 58119  1  0  0  0  0
 59120  1  0  0  0  0
 59121  1  0  0  0  0
 59122  1  0  0  0  0
 60123  1  0  0  0  0
 60124  1  0  0  0  0
 60125  1  0  0  0  0
 61126  1  0  0  0  0
 61127  1  0  0  0  0
 61128  1  0  0  0  0
 62129  1  0  0  0  0
 62130  1  0  0  0  0
 62131  1  0  0  0  0
M  END
> <PUBCHEM_COMPOUND_CID>
4194

> <PUBCHEM_COMPOUND_CANONICALIZED>
1

> <PUBCHEM_CACTVS_COMPLEXITY>
1540

> <PUBCHEM_CACTVS_HBOND_ACCEPTOR>
18

> <PUBCHEM_CACTVS_HBOND_DONOR>
1

> <PUBCHEM_CACTVS_ROTATABLE_BOND>
18

> <PUBCHEM_CACTVS_SUBSKEYS>
AAADcfB+PgAAAAAAAAAAAAAAAAAAAAAAAAAkSAAAAAAAAAAAAAAAHgAACAAADTzxgAcCCAMABgCIACjSiAAAAAAgAAAICAEIAAgbFBYAoQAnUAAH4AAfoAPK7PzOAAAAAAAAAAAAAAAAAAAAAAAAAAAAAA==

> <PUBCHEM_IUPAC_OPENEYE_NAME>
[10-acetoxy-6-[5-(4-acetoxy-6-methyl-5-propanoyloxy-tetrahydropyran-2-yl)oxy-4-(dimethylamino)-3-hydroxy-6-methyl-tetrahydropyran-2-yl]oxy-5-methoxy-9,16-dimethyl-2-oxo-7-(2-oxoethyl)-1-oxacyclohexadeca-11,13-dien-4-yl] propanoate

> <PUBCHEM_IUPAC_CAS_NAME>
propanoic acid [10-acetyloxy-6-[[5-[[4-acetyloxy-6-methyl-5-(1-oxopropoxy)-2-oxanyl]oxy]-4-(dimethylamino)-3-hydroxy-6-methyl-2-oxanyl]oxy]-5-methoxy-9,16-dimethyl-2-oxo-7-(2-oxoethyl)-1-oxacyclohexadeca-11,13-dien-4-yl] ester

> <PUBCHEM_IUPAC_NAME>
[10-acetyloxy-6-[5-(4-acetyloxy-6-methyl-5-propanoyloxyoxan-2-yl)oxy-4-(dimethylamino)-3-hydroxy-6-methyloxan-2-yl]oxy-5-methoxy-9,16-dimethyl-2-oxo-7-(2-oxoethyl)-1-oxacyclohexadeca-11,13-dien-4-yl] propanoate

> <PUBCHEM_IUPAC_SYSTEMATIC_NAME>
[10-acetyloxy-6-[5-(4-acetyloxy-6-methyl-5-propanoyloxy-oxan-2-yl)oxy-4-(dimethylamino)-6-methyl-3-oxidanyl-oxan-2-yl]oxy-5-methoxy-9,16-dimethyl-2-oxidanylidene-7-(2-oxidanylideneethyl)-1-oxacyclohexadeca-11,13-dien-4-yl] propanoate

> <PUBCHEM_IUPAC_TRADITIONAL_NAME>
propionic acid [10-acetoxy-6-[5-(4-acetoxy-6-methyl-5-propionyloxy-tetrahydropyran-2-yl)oxy-4-(dimethylamino)-3-hydroxy-6-methyl-tetrahydropyran-2-yl]oxy-2-keto-7-(2-ketoethyl)-5-methoxy-9,16-dimethyl-1-oxacyclohexadeca-11,13-dien-4-yl] ester

> <PUBCHEM_IUPAC_INCHI>
InChI=1S/C44H69NO17/c1-12-34(49)59-32-22-36(51)54-25(4)17-15-14-16-18-31(57-28(7)47)24(3)21-30(19-20-46)42(43(32)53-11)62-44-39(52)38(45(9)10)41(27(6)56-44)61-37-23-33(58-29(8)48)40(26(5)55-37)60-35(50)13-2/h14-16,18,20,24-27,30-33,37-44,52H,12-13,17,19,21-23H2,1-11H3

> <PUBCHEM_IUPAC_INCHIKEY>
AYADTULPWMBGIH-UHFFFAOYSA-N

> <PUBCHEM_XLOGP3_AA>
3.6

> <PUBCHEM_EXACT_MASS>
883.45655

> <PUBCHEM_MOLECULAR_FORMULA>
C44H69NO17

> <PUBCHEM_MOLECULAR_WEIGHT>
884.01516

> <PUBCHEM_OPENEYE_CAN_SMILES>
CCC(=O)OC1CC(=O)OC(CC=CC=CC(C(CC(C(C1OC)OC2C(C(C(C(O2)C)OC3CC(C(C(O3)C)OC(=O)CC)OC(=O)C)N(C)C)O)CC=O)C)OC(=O)C)C

> <PUBCHEM_OPENEYE_ISO_SMILES>
CCC(=O)OC1CC(=O)OC(CC=CC=CC(C(CC(C(C1OC)OC2C(C(C(C(O2)C)OC3CC(C(C(O3)C)OC(=O)CC)OC(=O)C)N(C)C)O)CC=O)C)OC(=O)C)C

> <PUBCHEM_CACTVS_TPSA>
218

> <PUBCHEM_MONOISOTOPIC_WEIGHT>
883.45655

> <PUBCHEM_TOTAL_CHARGE>
0

> <PUBCHEM_HEAVY_ATOM_COUNT>
62

> <PUBCHEM_ATOM_DEF_STEREO_COUNT>
0

> <PUBCHEM_ATOM_UDEF_STEREO_COUNT>
16

> <PUBCHEM_BOND_DEF_STEREO_COUNT>
0

> <PUBCHEM_BOND_UDEF_STEREO_COUNT>
2

> <PUBCHEM_ISOTOPIC_ATOM_COUNT>
0

> <PUBCHEM_COMPONENT_COUNT>
1

> <PUBCHEM_CACTVS_TAUTO_COUNT>
4

> <PUBCHEM_COORDINATE_TYPE>
1
5
255

> <PUBCHEM_BONDANNOTATIONS>
19  63  3
20  64  3
21  65  3
22  66  3
23  67  3
24  68  3
25  69  3
26  70  3
28  73  3
29  74  3
33  82  3
34  83  3
35  84  3
36  85  3
39  93  3
44  50  1
53  110  3
56  58  1

$$$$

