17396063
  -OEChem-06241222542D

 38 41  0     1  0  0  0  0  0999 V2000
    8.0770   -0.9169    0.0000 Br  0  0  0  0  0  0  0  0  0  0  0  0
    5.0274    1.2544    0.0000 S   0  0  0  0  0  0  0  0  0  0  0  0
    7.0589    0.4844    0.0000 O   0  0  0  0  0  0  0  0  0  0  0  0
    4.2506   -2.0391    0.0000 O   0  0  0  0  0  0  0  0  0  0  0  0
    6.0409    1.8856    0.0000 O   0  0  0  0  0  0  0  0  0  0  0  0
    4.5274   -0.2845    0.0000 N   0  0  0  0  0  0  0  0  0  0  0  0
    5.3364    0.3033    0.0000 C   0  0  3  0  0  0  0  0  0  0  0  0
    6.1391   -0.2831    0.0000 C   0  0  0  0  0  0  0  0  0  0  0  0
    5.8311   -1.2282    0.0000 C   0  0  0  0  0  0  0  0  0  0  0  0
    4.8370   -1.2291    0.0000 C   0  0  0  0  0  0  0  0  0  0  0  0
    3.7183    0.3033    0.0000 C   0  0  0  0  0  0  0  0  0  0  0  0
    4.0274    1.2544    0.0000 C   0  0  0  0  0  0  0  0  0  0  0  0
    6.1454    0.8911    0.0000 C   0  0  0  0  0  0  0  0  0  0  0  0
    2.7029    0.0711    0.0000 C   0  0  0  0  0  0  0  0  0  0  0  0
    3.3424    2.0391    0.0000 C   0  0  0  0  0  0  0  0  0  0  0  0
    2.0000    0.8398    0.0000 C   0  0  0  0  0  0  0  0  0  0  0  0
    2.3219    1.8304    0.0000 C   0  0  0  0  0  0  0  0  0  0  0  0
    7.8680    1.0722    0.0000 C   0  0  0  0  0  0  0  0  0  0  0  0
    8.7815    0.6654    0.0000 C   0  0  0  0  0  0  0  0  0  0  0  0
    8.8860   -0.3291    0.0000 C   0  0  0  0  0  0  0  0  0  0  0  0
    9.5905    1.2532    0.0000 C   0  0  0  0  0  0  0  0  0  0  0  0
    9.7996   -0.7358    0.0000 C   0  0  0  0  0  0  0  0  0  0  0  0
   10.5041    0.8465    0.0000 C   0  0  0  0  0  0  0  0  0  0  0  0
   10.6086   -0.1481    0.0000 C   0  0  0  0  0  0  0  0  0  0  0  0
    6.7051   -0.5361    0.0000 H   0  0  0  0  0  0  0  0  0  0  0  0
    6.4502    0.2532    0.0000 H   0  0  0  0  0  0  0  0  0  0  0  0
    5.7664   -1.8448    0.0000 H   0  0  0  0  0  0  0  0  0  0  0  0
    6.4375   -1.3573    0.0000 H   0  0  0  0  0  0  0  0  0  0  0  0
    2.5182   -0.5208    0.0000 H   0  0  0  0  0  0  0  0  0  0  0  0
    3.5408    2.6265    0.0000 H   0  0  0  0  0  0  0  0  0  0  0  0
    1.3940    0.7085    0.0000 H   0  0  0  0  0  0  0  0  0  0  0  0
    1.9088    2.2928    0.0000 H   0  0  0  0  0  0  0  0  0  0  0  0
    8.2146    1.5862    0.0000 H   0  0  0  0  0  0  0  0  0  0  0  0
    7.4220    1.5028    0.0000 H   0  0  0  0  0  0  0  0  0  0  0  0
    9.5257    1.8698    0.0000 H   0  0  0  0  0  0  0  0  0  0  0  0
    9.8644   -1.3524    0.0000 H   0  0  0  0  0  0  0  0  0  0  0  0
   11.0057    1.2109    0.0000 H   0  0  0  0  0  0  0  0  0  0  0  0
   11.1750   -0.4002    0.0000 H   0  0  0  0  0  0  0  0  0  0  0  0
  1 20  1  0  0  0  0
  2  7  1  0  0  0  0
  2 12  1  0  0  0  0
  3 13  1  0  0  0  0
  3 18  1  0  0  0  0
  4 10  2  0  0  0  0
  5 13  2  0  0  0  0
  6  7  1  0  0  0  0
  6 10  1  0  0  0  0
  6 11  1  0  0  0  0
  7  8  1  0  0  0  0
  7 13  1  0  0  0  0
  8  9  1  0  0  0  0
  8 25  1  0  0  0  0
  8 26  1  0  0  0  0
  9 10  1  0  0  0  0
  9 27  1  0  0  0  0
  9 28  1  0  0  0  0
 11 12  1  0  0  0  0
 11 14  2  0  0  0  0
 12 15  2  0  0  0  0
 14 16  1  0  0  0  0
 14 29  1  0  0  0  0
 15 17  1  0  0  0  0
 15 30  1  0  0  0  0
 16 17  2  0  0  0  0
 16 31  1  0  0  0  0
 17 32  1  0  0  0  0
 18 19  1  0  0  0  0
 18 33  1  0  0  0  0
 18 34  1  0  0  0  0
 19 20  1  0  0  0  0
 19 21  2  0  0  0  0
 20 22  2  0  0  0  0
 21 23  1  0  0  0  0
 21 35  1  0  0  0  0
 22 24  1  0  0  0  0
 22 36  1  0  0  0  0
 23 24  2  0  0  0  0
 23 37  1  0  0  0  0
 24 38  1  0  0  0  0
M  END
> <PUBCHEM_COMPOUND_CID>
17396063

> <PUBCHEM_COMPOUND_CANONICALIZED>
1

> <PUBCHEM_CACTVS_COMPLEXITY>
530

> <PUBCHEM_CACTVS_HBOND_ACCEPTOR>
4

> <PUBCHEM_CACTVS_HBOND_DONOR>
0

> <PUBCHEM_CACTVS_ROTATABLE_BOND>
4

> <PUBCHEM_CACTVS_SUBSKEYS>
AAADccB6MABAEAAAAAAAAAAAAAAAAWLAAAAwYAAAAAAWAFgBQAAAHgRAAAABrAih2AIwyYMABAiIAiXSWACCAABhChQIiB2AbKgKJjLgsbmHMAhkxAH46hec1yIOAAAAAAAAgQAAAAAAAAECAAAAAAAAAA==

> <PUBCHEM_IUPAC_OPENEYE_NAME>
(2-bromophenyl)methyl 1-oxo-2,3-dihydropyrrolo[2,1-b][1,3]benzothiazole-3a-carboxylate

> <PUBCHEM_IUPAC_CAS_NAME>
1-oxo-2,3-dihydropyrrolo[2,1-b][1,3]benzothiazole-3a-carboxylic acid (2-bromophenyl)methyl ester

> <PUBCHEM_IUPAC_NAME>
(2-bromophenyl)methyl 1-oxo-2,3-dihydropyrrolo[2,1-b][1,3]benzothiazole-3a-carboxylate

> <PUBCHEM_IUPAC_SYSTEMATIC_NAME>
(2-bromophenyl)methyl 1-oxidanylidene-2,3-dihydropyrrolo[2,1-b][1,3]benzothiazole-3a-carboxylate

> <PUBCHEM_IUPAC_TRADITIONAL_NAME>
1-keto-2,3-dihydropyrrolo[2,1-b][1,3]benzothiazole-3a-carboxylic acid (2-bromobenzyl) ester

> <PUBCHEM_IUPAC_INCHI>
InChI=1S/C18H14BrNO3S/c19-13-6-2-1-5-12(13)11-23-17(22)18-10-9-16(21)20(18)14-7-3-4-8-15(14)24-18/h1-8H,9-11H2

> <PUBCHEM_IUPAC_INCHIKEY>
WDVULYWCYHWYDH-UHFFFAOYSA-N

> <PUBCHEM_XLOGP3_AA>
3.7

> <PUBCHEM_EXACT_MASS>
402.987776

> <PUBCHEM_MOLECULAR_FORMULA>
C18H14BrNO3S

> <PUBCHEM_MOLECULAR_WEIGHT>
404.27766

> <PUBCHEM_OPENEYE_CAN_SMILES>
C1CC2(N(C1=O)C3=CC=CC=C3S2)C(=O)OCC4=CC=CC=C4Br

> <PUBCHEM_OPENEYE_ISO_SMILES>
C1CC2(N(C1=O)C3=CC=CC=C3S2)C(=O)OCC4=CC=CC=C4Br

> <PUBCHEM_CACTVS_TPSA>
71.9

> <PUBCHEM_MONOISOTOPIC_WEIGHT>
402.987776

> <PUBCHEM_TOTAL_CHARGE>
0

> <PUBCHEM_HEAVY_ATOM_COUNT>
24

> <PUBCHEM_ATOM_DEF_STEREO_COUNT>
0

> <PUBCHEM_ATOM_UDEF_STEREO_COUNT>
1

> <PUBCHEM_BOND_DEF_STEREO_COUNT>
0

> <PUBCHEM_BOND_UDEF_STEREO_COUNT>
0

> <PUBCHEM_ISOTOPIC_ATOM_COUNT>
0

> <PUBCHEM_COMPONENT_COUNT>
1

> <PUBCHEM_CACTVS_TAUTO_COUNT>
2

> <PUBCHEM_COORDINATE_TYPE>
1
5
255

> <PUBCHEM_BONDANNOTATIONS>
11  12  8
11  14  8
12  15  8
14  16  8
15  17  8
16  17  8
19  20  8
19  21  8
20  22  8
21  23  8
22  24  8
23  24  8
7  13  3

$$$$

