583014
  -OEChem-06241222442D

 27 29  0     1  0  0  0  0  0999 V2000
    4.2690   -1.0000    0.0000 S   0  0  0  0  0  0  0  0  0  0  0  0
    2.5369    1.0000    0.0000 O   0  0  0  0  0  0  0  0  0  0  0  0
    5.1350    0.5000    0.0000 N   0  0  0  0  0  0  0  0  0  0  0  0
    6.0812    0.8047    0.0000 N   0  0  0  0  0  0  0  0  0  0  0  0
    6.0812   -0.8047    0.0000 N   0  0  0  0  0  0  0  0  0  0  0  0
    3.4030    0.5000    0.0000 C   0  0  3  0  0  0  0  0  0  0  0  0
    4.2690    1.0000    0.0000 C   0  0  0  0  0  0  0  0  0  0  0  0
    3.4030   -0.5000    0.0000 C   0  0  0  0  0  0  0  0  0  0  0  0
    5.1350   -0.5000    0.0000 C   0  0  0  0  0  0  0  0  0  0  0  0
    6.6648    0.0000    0.0000 C   0  0  0  0  0  0  0  0  0  0  0  0
    7.6648    0.0000    0.0000 C   0  0  0  0  0  0  0  0  0  0  0  0
    8.1648   -0.8660    0.0000 C   0  0  0  0  0  0  0  0  0  0  0  0
    8.1648    0.8660    0.0000 C   0  0  0  0  0  0  0  0  0  0  0  0
    9.1648   -0.8660    0.0000 C   0  0  0  0  0  0  0  0  0  0  0  0
    9.1648    0.8660    0.0000 C   0  0  0  0  0  0  0  0  0  0  0  0
    9.6648    0.0000    0.0000 C   0  0  0  0  0  0  0  0  0  0  0  0
    3.4030    1.1200    0.0000 H   0  0  0  0  0  0  0  0  0  0  0  0
    4.6675    1.4750    0.0000 H   0  0  0  0  0  0  0  0  0  0  0  0
    3.8705    1.4750    0.0000 H   0  0  0  0  0  0  0  0  0  0  0  0
    2.7924   -0.3923    0.0000 H   0  0  0  0  0  0  0  0  0  0  0  0
    3.1909   -1.0826    0.0000 H   0  0  0  0  0  0  0  0  0  0  0  0
    2.0000    0.6900    0.0000 H   0  0  0  0  0  0  0  0  0  0  0  0
    7.8548   -1.4030    0.0000 H   0  0  0  0  0  0  0  0  0  0  0  0
    7.8548    1.4030    0.0000 H   0  0  0  0  0  0  0  0  0  0  0  0
    9.4748   -1.4030    0.0000 H   0  0  0  0  0  0  0  0  0  0  0  0
    9.4748    1.4030    0.0000 H   0  0  0  0  0  0  0  0  0  0  0  0
   10.2848    0.0000    0.0000 H   0  0  0  0  0  0  0  0  0  0  0  0
  1  8  1  0  0  0  0
  1  9  1  0  0  0  0
  2  6  1  0  0  0  0
  2 22  1  0  0  0  0
  3  4  1  0  0  0  0
  3  7  1  0  0  0  0
  3  9  1  0  0  0  0
  4 10  2  0  0  0  0
  5  9  2  0  0  0  0
  5 10  1  0  0  0  0
  6  7  1  0  0  0  0
  6  8  1  0  0  0  0
  6 17  1  0  0  0  0
  7 18  1  0  0  0  0
  7 19  1  0  0  0  0
  8 20  1  0  0  0  0
  8 21  1  0  0  0  0
 10 11  1  0  0  0  0
 11 12  2  0  0  0  0
 11 13  1  0  0  0  0
 12 14  1  0  0  0  0
 12 23  1  0  0  0  0
 13 15  2  0  0  0  0
 13 24  1  0  0  0  0
 14 16  2  0  0  0  0
 14 25  1  0  0  0  0
 15 16  1  0  0  0  0
 15 26  1  0  0  0  0
 16 27  1  0  0  0  0
M  END
> <PUBCHEM_COMPOUND_CID>
583014

> <PUBCHEM_COMPOUND_CANONICALIZED>
1

> <PUBCHEM_CACTVS_COMPLEXITY>
247

> <PUBCHEM_CACTVS_HBOND_ACCEPTOR>
4

> <PUBCHEM_CACTVS_HBOND_DONOR>
1

> <PUBCHEM_CACTVS_ROTATABLE_BOND>
1

> <PUBCHEM_CACTVS_SUBSKEYS>
AAADccBzIABAAAAAAAAAAAAAAAAAAWAAAAA8QAAAAAAAAFgBwAAAHgQICAAADBTl2waxEIYIEgiiAiJiJACS0AtggLAdyCAoBJiKOKKgmRGEIAhoiAIYiAcQgAAOAAAAAAAAAAAAAAAAAAAAAAAAAAAAAA==

> <PUBCHEM_IUPAC_OPENEYE_NAME>
2-phenyl-6,7-dihydro-5H-[1,2,4]triazolo[5,1-b][1,3]thiazin-6-ol

> <PUBCHEM_IUPAC_CAS_NAME>
2-phenyl-6,7-dihydro-5H-[1,2,4]triazolo[5,1-b][1,3]thiazin-6-ol

> <PUBCHEM_IUPAC_NAME>
2-phenyl-6,7-dihydro-5H-[1,2,4]triazolo[5,1-b][1,3]thiazin-6-ol

> <PUBCHEM_IUPAC_SYSTEMATIC_NAME>
2-phenyl-6,7-dihydro-5H-[1,2,4]triazolo[5,1-b][1,3]thiazin-6-ol

> <PUBCHEM_IUPAC_TRADITIONAL_NAME>
2-phenyl-6,7-dihydro-5H-[1,2,4]triazolo[5,1-b][1,3]thiazin-6-ol

> <PUBCHEM_IUPAC_INCHI>
InChI=1S/C11H11N3OS/c15-9-6-14-11(16-7-9)12-10(13-14)8-4-2-1-3-5-8/h1-5,9,15H,6-7H2

> <PUBCHEM_IUPAC_INCHIKEY>
MTZLGPCSOBARNC-UHFFFAOYSA-N

> <PUBCHEM_XLOGP3_AA>
1.6

> <PUBCHEM_EXACT_MASS>
233.062283

> <PUBCHEM_MOLECULAR_FORMULA>
C11H11N3OS

> <PUBCHEM_MOLECULAR_WEIGHT>
233.28954

> <PUBCHEM_OPENEYE_CAN_SMILES>
C1C(CSC2=NC(=NN21)C3=CC=CC=C3)O

> <PUBCHEM_OPENEYE_ISO_SMILES>
C1C(CSC2=NC(=NN21)C3=CC=CC=C3)O

> <PUBCHEM_CACTVS_TPSA>
76.2

> <PUBCHEM_MONOISOTOPIC_WEIGHT>
233.062283

> <PUBCHEM_TOTAL_CHARGE>
0

> <PUBCHEM_HEAVY_ATOM_COUNT>
16

> <PUBCHEM_ATOM_DEF_STEREO_COUNT>
0

> <PUBCHEM_ATOM_UDEF_STEREO_COUNT>
1

> <PUBCHEM_BOND_DEF_STEREO_COUNT>
0

> <PUBCHEM_BOND_UDEF_STEREO_COUNT>
0

> <PUBCHEM_ISOTOPIC_ATOM_COUNT>
0

> <PUBCHEM_COMPONENT_COUNT>
1

> <PUBCHEM_CACTVS_TAUTO_COUNT>
1

> <PUBCHEM_COORDINATE_TYPE>
1
5
255

> <PUBCHEM_BONDANNOTATIONS>
11  12  8
11  13  8
12  14  8
13  15  8
14  16  8
15  16  8
6  2  3
3  4  8
3  9  8
4  10  8
5  10  8
5  9  8

$$$$

