12054
  -OEChem-06261206272D

 20 20  0     0  0  0  0  0  0999 V2000
    3.0000    1.9050    0.0000 P   0  0  0  0  0  0  0  0  0  0  0  0
    3.0000    2.9050    0.0000 O   0  0  0  0  0  0  0  0  0  0  0  0
    4.0000    1.9050    0.0000 O   0  0  0  0  0  0  0  0  0  0  0  0
    2.0000    1.9050    0.0000 O   0  0  0  0  0  0  0  0  0  0  0  0
    2.1340   -2.5950    0.0000 O   0  0  0  0  0  0  0  0  0  0  0  0
    3.8660   -2.5950    0.0000 O   0  0  0  0  0  0  0  0  0  0  0  0
    3.0000    0.9050    0.0000 C   0  0  0  0  0  0  0  0  0  0  0  0
    2.1340    0.4050    0.0000 C   0  0  0  0  0  0  0  0  0  0  0  0
    3.8660    0.4050    0.0000 C   0  0  0  0  0  0  0  0  0  0  0  0
    3.0000   -1.0950    0.0000 C   0  0  0  0  0  0  0  0  0  0  0  0
    2.1340   -0.5950    0.0000 C   0  0  0  0  0  0  0  0  0  0  0  0
    3.8660   -0.5950    0.0000 C   0  0  0  0  0  0  0  0  0  0  0  0
    3.0000   -2.0950    0.0000 C   0  0  0  0  0  0  0  0  0  0  0  0
    1.5970    0.7150    0.0000 H   0  0  0  0  0  0  0  0  0  0  0  0
    4.4030    0.7150    0.0000 H   0  0  0  0  0  0  0  0  0  0  0  0
    1.5970   -0.9050    0.0000 H   0  0  0  0  0  0  0  0  0  0  0  0
    4.4030   -0.9050    0.0000 H   0  0  0  0  0  0  0  0  0  0  0  0
    3.5369    3.2150    0.0000 H   0  0  0  0  0  0  0  0  0  0  0  0
    4.3100    2.4419    0.0000 H   0  0  0  0  0  0  0  0  0  0  0  0
    2.1340   -3.2150    0.0000 H   0  0  0  0  0  0  0  0  0  0  0  0
  1  2  1  0  0  0  0
  1  3  1  0  0  0  0
  1  4  2  0  0  0  0
  1  7  1  0  0  0  0
  2 18  1  0  0  0  0
  3 19  1  0  0  0  0
  5 13  1  0  0  0  0
  5 20  1  0  0  0  0
  6 13  2  0  0  0  0
  7  8  2  0  0  0  0
  7  9  1  0  0  0  0
  8 11  1  0  0  0  0
  8 14  1  0  0  0  0
  9 12  2  0  0  0  0
  9 15  1  0  0  0  0
 10 11  2  0  0  0  0
 10 12  1  0  0  0  0
 10 13  1  0  0  0  0
 11 16  1  0  0  0  0
 12 17  1  0  0  0  0
M  END
> <PUBCHEM_COMPOUND_CID>
12054

> <PUBCHEM_COMPOUND_CANONICALIZED>
1

> <PUBCHEM_CACTVS_COMPLEXITY>
237

> <PUBCHEM_CACTVS_HBOND_ACCEPTOR>
5

> <PUBCHEM_CACTVS_HBOND_DONOR>
3

> <PUBCHEM_CACTVS_ROTATABLE_BOND>
2

> <PUBCHEM_CACTVS_SUBSKEYS>
AAADcYBgOAIAAAAAAAAAAAAAAAAAAAAAAAAwAAAAAAAAAAABAAAAGggACCAADACAmAAwCIAAAhCIQiDSCIACAAAkAAAIiAEACMgIJjKAFRCAcQAkwAEImYeIyCCOAAAAAAAAAAAAAAAAAAAAAAAAAAAAAA==

> <PUBCHEM_IUPAC_OPENEYE_NAME>
4-phosphonobenzoic acid

> <PUBCHEM_IUPAC_CAS_NAME>
4-phosphonobenzoic acid

> <PUBCHEM_IUPAC_NAME>
4-phosphonobenzoic acid

> <PUBCHEM_IUPAC_SYSTEMATIC_NAME>
4-phosphonobenzoic acid

> <PUBCHEM_IUPAC_TRADITIONAL_NAME>
4-phosphonobenzoic acid

> <PUBCHEM_IUPAC_INCHI>
InChI=1S/C7H7O5P/c8-7(9)5-1-3-6(4-2-5)13(10,11)12/h1-4H,(H,8,9)(H2,10,11,12)

> <PUBCHEM_IUPAC_INCHIKEY>
IEQICHVXWFGDAN-UHFFFAOYSA-N

> <PUBCHEM_XLOGP3_AA>
-0.5

> <PUBCHEM_EXACT_MASS>
202.00311

> <PUBCHEM_MOLECULAR_FORMULA>
C7H7O5P

> <PUBCHEM_MOLECULAR_WEIGHT>
202.101242

> <PUBCHEM_OPENEYE_CAN_SMILES>
C1=CC(=CC=C1C(=O)O)P(=O)(O)O

> <PUBCHEM_OPENEYE_ISO_SMILES>
C1=CC(=CC=C1C(=O)O)P(=O)(O)O

> <PUBCHEM_CACTVS_TPSA>
94.8

> <PUBCHEM_MONOISOTOPIC_WEIGHT>
202.00311

> <PUBCHEM_TOTAL_CHARGE>
0

> <PUBCHEM_HEAVY_ATOM_COUNT>
13

> <PUBCHEM_ATOM_DEF_STEREO_COUNT>
0

> <PUBCHEM_ATOM_UDEF_STEREO_COUNT>
0

> <PUBCHEM_BOND_DEF_STEREO_COUNT>
0

> <PUBCHEM_BOND_UDEF_STEREO_COUNT>
0

> <PUBCHEM_ISOTOPIC_ATOM_COUNT>
0

> <PUBCHEM_COMPONENT_COUNT>
1

> <PUBCHEM_CACTVS_TAUTO_COUNT>
1

> <PUBCHEM_COORDINATE_TYPE>
1
5
255

> <PUBCHEM_BONDANNOTATIONS>
10  11  8
10  12  8
7  8  8
7  9  8
8  11  8
9  12  8

$$$$

