9154
  -OEChem-06261203272D

 26 29  0     0  0  0  0  0  0999 V2000
    3.6662   -0.9279    0.0000 C   0  0  0  0  0  0  0  0  0  0  0  0
    4.4752   -0.3401    0.0000 C   0  0  0  0  0  0  0  0  0  0  0  0
    2.8571   -0.3401    0.0000 C   0  0  0  0  0  0  0  0  0  0  0  0
    3.1662    0.6110    0.0000 C   0  0  0  0  0  0  0  0  0  0  0  0
    4.1662    0.6110    0.0000 C   0  0  0  0  0  0  0  0  0  0  0  0
    3.7590   -1.9653    0.0000 C   0  0  0  0  0  0  0  0  0  0  0  0
    2.0008   -0.8710    0.0000 C   0  0  0  0  0  0  0  0  0  0  0  0
    5.4332   -0.7490    0.0000 C   0  0  0  0  0  0  0  0  0  0  0  0
    2.6315    1.5049    0.0000 C   0  0  0  0  0  0  0  0  0  0  0  0
    4.7008    1.5049    0.0000 C   0  0  0  0  0  0  0  0  0  0  0  0
    2.8554   -2.4110    0.0000 C   0  0  0  0  0  0  0  0  0  0  0  0
    4.7073   -2.3963    0.0000 C   0  0  0  0  0  0  0  0  0  0  0  0
    2.0000   -1.8786    0.0000 C   0  0  0  0  0  0  0  0  0  0  0  0
    5.5500   -1.7841    0.0000 C   0  0  0  0  0  0  0  0  0  0  0  0
    4.1870    2.4110    0.0000 C   0  0  0  0  0  0  0  0  0  0  0  0
    3.1453    2.4110    0.0000 C   0  0  0  0  0  0  0  0  0  0  0  0
    1.4592   -0.5693    0.0000 H   0  0  0  0  0  0  0  0  0  0  0  0
    5.9305   -0.3788    0.0000 H   0  0  0  0  0  0  0  0  0  0  0  0
    2.0115    1.4978    0.0000 H   0  0  0  0  0  0  0  0  0  0  0  0
    5.3208    1.4978    0.0000 H   0  0  0  0  0  0  0  0  0  0  0  0
    2.8249   -3.0302    0.0000 H   0  0  0  0  0  0  0  0  0  0  0  0
    4.7698   -3.0132    0.0000 H   0  0  0  0  0  0  0  0  0  0  0  0
    1.4579   -2.1794    0.0000 H   0  0  0  0  0  0  0  0  0  0  0  0
    6.1174   -2.0341    0.0000 H   0  0  0  0  0  0  0  0  0  0  0  0
    2.8333    2.9467    0.0000 H   0  0  0  0  0  0  0  0  0  0  0  0
    4.4990    2.9467    0.0000 H   0  0  0  0  0  0  0  0  0  0  0  0
  1  2  1  0  0  0  0
  1  3  1  0  0  0  0
  1  6  2  0  0  0  0
  2  5  1  0  0  0  0
  2  8  2  0  0  0  0
  3  4  1  0  0  0  0
  3  7  2  0  0  0  0
  4  5  1  0  0  0  0
  4  9  2  0  0  0  0
  5 10  2  0  0  0  0
  6 11  1  0  0  0  0
  6 12  1  0  0  0  0
  7 13  1  0  0  0  0
  7 17  1  0  0  0  0
  8 14  1  0  0  0  0
  8 18  1  0  0  0  0
  9 16  1  0  0  0  0
  9 19  1  0  0  0  0
 10 15  1  0  0  0  0
 10 20  1  0  0  0  0
 11 13  2  0  0  0  0
 11 21  1  0  0  0  0
 12 14  2  0  0  0  0
 12 22  1  0  0  0  0
 13 23  1  0  0  0  0
 14 24  1  0  0  0  0
 15 16  2  0  0  0  0
 15 26  1  0  0  0  0
 16 25  1  0  0  0  0
M  END
> <PUBCHEM_COMPOUND_CID>
9154

> <PUBCHEM_COMPOUND_CANONICALIZED>
1

> <PUBCHEM_CACTVS_COMPLEXITY>
243

> <PUBCHEM_CACTVS_HBOND_ACCEPTOR>
0

> <PUBCHEM_CACTVS_HBOND_DONOR>
0

> <PUBCHEM_CACTVS_ROTATABLE_BOND>
0

> <PUBCHEM_CACTVS_SUBSKEYS>
AAADccB4AAAAAAAAAAAAAAAAAAAAAYAAAAAwYMAAAAAAAGDBVAAAGAAAAAAADACAGAAwAMAAAACAAiBCAAACAAAgAAAIiAAAAIgIICKAERCAIAAggAAIiAcAgMAOgAACAAAQAAAAAAQAACAAAQAACAAAAA==

> <PUBCHEM_IUPAC_OPENEYE_NAME>
fluoranthene

> <PUBCHEM_IUPAC_CAS_NAME>
fluoranthene

> <PUBCHEM_IUPAC_NAME>
fluoranthene

> <PUBCHEM_IUPAC_SYSTEMATIC_NAME>
fluoranthene

> <PUBCHEM_IUPAC_TRADITIONAL_NAME>
fluoranthene

> <PUBCHEM_IUPAC_INCHI>
InChI=1S/C16H10/c1-2-8-13-12(7-1)14-9-3-5-11-6-4-10-15(13)16(11)14/h1-10H

> <PUBCHEM_IUPAC_INCHIKEY>
GVEPBJHOBDJJJI-UHFFFAOYSA-N

> <PUBCHEM_XLOGP3>
5.2

> <PUBCHEM_EXACT_MASS>
202.07825

> <PUBCHEM_MOLECULAR_FORMULA>
C16H10

> <PUBCHEM_MOLECULAR_WEIGHT>
202.2506

> <PUBCHEM_OPENEYE_CAN_SMILES>
C1=CC=C2C(=C1)C3=CC=CC4=C3C2=CC=C4

> <PUBCHEM_OPENEYE_ISO_SMILES>
C1=CC=C2C(=C1)C3=CC=CC4=C3C2=CC=C4

> <PUBCHEM_CACTVS_TPSA>
0

> <PUBCHEM_MONOISOTOPIC_WEIGHT>
202.07825

> <PUBCHEM_TOTAL_CHARGE>
0

> <PUBCHEM_HEAVY_ATOM_COUNT>
16

> <PUBCHEM_ATOM_DEF_STEREO_COUNT>
0

> <PUBCHEM_ATOM_UDEF_STEREO_COUNT>
0

> <PUBCHEM_BOND_DEF_STEREO_COUNT>
0

> <PUBCHEM_BOND_UDEF_STEREO_COUNT>
0

> <PUBCHEM_ISOTOPIC_ATOM_COUNT>
0

> <PUBCHEM_COMPONENT_COUNT>
1

> <PUBCHEM_CACTVS_TAUTO_COUNT>
1

> <PUBCHEM_COORDINATE_TYPE>
1
5
255

> <PUBCHEM_BONDANNOTATIONS>
1  2  8
1  3  8
1  6  8
10  15  8
11  13  8
12  14  8
15  16  8
2  8  8
3  7  8
4  5  8
4  9  8
5  10  8
6  11  8
6  12  8
7  13  8
8  14  8
9  16  8

$$$$

