10532
  -OEChem-06261204392D

 69 72  0     1  0  0  0  0  0999 V2000
   14.4347    6.2333    0.0000 Br  0  5  0  0  0  0  0  0  0  0  0  0
    3.1350    5.1200    0.0000 O   0  0  0  0  0  0  0  0  0  0  0  0
    4.0010    3.6200    0.0000 O   0  0  0  0  0  0  0  0  0  0  0  0
    0.5369    3.6200    0.0000 O   0  0  0  0  0  0  0  0  0  0  0  0
    5.9719    8.4050    0.0000 N   0  3  0  0  0  0  0  0  0  0  0  0
    6.7086    7.4223    0.0000 C   0  0  3  0  0  0  0  0  0  0  0  0
    6.4497    6.4564    0.0000 C   0  0  3  0  0  0  0  0  0  0  0  0
    8.2817    5.6976    0.0000 C   0  0  0  0  0  0  0  0  0  0  0  0
    8.5405    6.6635    0.0000 C   0  0  0  0  0  0  0  0  0  0  0  0
    4.9146    5.2133    0.0000 C   0  0  0  0  0  0  0  0  0  0  0  0
    4.1056    6.6145    0.0000 C   0  0  0  0  0  0  0  0  0  0  0  0
    4.0010    5.6200    0.0000 C   0  0  0  0  0  0  0  0  0  0  0  0
    6.0765    9.3995    0.0000 C   0  0  0  0  0  0  0  0  0  0  0  0
    5.0584    8.8117    0.0000 C   0  0  0  0  0  0  0  0  0  0  0  0
    6.9900    9.8062    0.0000 C   0  0  0  0  0  0  0  0  0  0  0  0
    7.7990    9.2184    0.0000 C   0  0  0  0  0  0  0  0  0  0  0  0
    7.0946   10.8007    0.0000 C   0  0  0  0  0  0  0  0  0  0  0  0
    3.1350    4.1200    0.0000 C   0  0  0  0  0  0  0  0  0  0  0  0
    2.2690    3.6200    0.0000 C   0  0  3  0  0  0  0  0  0  0  0  0
    8.7126    9.6252    0.0000 C   0  0  0  0  0  0  0  0  0  0  0  0
    8.0081   11.2075    0.0000 C   0  0  0  0  0  0  0  0  0  0  0  0
    8.8171   10.6197    0.0000 C   0  0  0  0  0  0  0  0  0  0  0  0
    1.4030    4.1200    0.0000 C   0  0  0  0  0  0  0  0  0  0  0  0
    2.2690    2.6200    0.0000 C   0  0  0  0  0  0  0  0  0  0  0  0
    9.7306   11.0264    0.0000 C   0  0  0  0  0  0  0  0  0  0  0  0
    1.4030    2.1200    0.0000 C   0  0  0  0  0  0  0  0  0  0  0  0
    3.1350    2.1200    0.0000 C   0  0  0  0  0  0  0  0  0  0  0  0
   10.5397   10.4386    0.0000 C   0  0  0  0  0  0  0  0  0  0  0  0
    9.8352   12.0209    0.0000 C   0  0  0  0  0  0  0  0  0  0  0  0
    1.4030    1.1200    0.0000 C   0  0  0  0  0  0  0  0  0  0  0  0
    3.1350    1.1200    0.0000 C   0  0  0  0  0  0  0  0  0  0  0  0
    2.2690    0.6200    0.0000 C   0  0  0  0  0  0  0  0  0  0  0  0
   11.4532   10.8454    0.0000 C   0  0  0  0  0  0  0  0  0  0  0  0
   10.7487   12.4277    0.0000 C   0  0  0  0  0  0  0  0  0  0  0  0
   11.5577   11.8399    0.0000 C   0  0  0  0  0  0  0  0  0  0  0  0
    6.6801    6.8030    0.0000 H   0  0  0  0  0  0  0  0  0  0  0  0
    6.5387    5.8428    0.0000 H   0  0  0  0  0  0  0  0  0  0  0  0
    9.1318    6.4771    0.0000 H   0  0  0  0  0  0  0  0  0  0  0  0
    8.7526    7.2461    0.0000 H   0  0  0  0  0  0  0  0  0  0  0  0
    8.0696    5.1150    0.0000 H   0  0  0  0  0  0  0  0  0  0  0  0
    8.8730    5.5112    0.0000 H   0  0  0  0  0  0  0  0  0  0  0  0
    4.0033    7.2260    0.0000 H   0  0  0  0  0  0  0  0  0  0  0  0
    3.4858    6.5956    0.0000 H   0  0  0  0  0  0  0  0  0  0  0  0
    4.5769    4.6933    0.0000 H   0  0  0  0  0  0  0  0  0  0  0  0
    5.3753    4.7984    0.0000 H   0  0  0  0  0  0  0  0  0  0  0  0
    4.0335    5.0008    0.0000 H   0  0  0  0  0  0  0  0  0  0  0  0
    5.9265   10.0011    0.0000 H   0  0  0  0  0  0  0  0  0  0  0  0
    5.4580    9.3562    0.0000 H   0  0  0  0  0  0  0  0  0  0  0  0
    5.3106    9.3781    0.0000 H   0  0  0  0  0  0  0  0  0  0  0  0
    4.4920    9.0639    0.0000 H   0  0  0  0  0  0  0  0  0  0  0  0
    4.8062    8.2453    0.0000 H   0  0  0  0  0  0  0  0  0  0  0  0
    7.7342    8.6018    0.0000 H   0  0  0  0  0  0  0  0  0  0  0  0
    6.5930   11.1652    0.0000 H   0  0  0  0  0  0  0  0  0  0  0  0
    2.2690    4.2400    0.0000 H   0  0  0  0  0  0  0  0  0  0  0  0
    9.2142    9.2607    0.0000 H   0  0  0  0  0  0  0  0  0  0  0  0
    8.0729   11.8241    0.0000 H   0  0  0  0  0  0  0  0  0  0  0  0
    1.8015    4.5950    0.0000 H   0  0  0  0  0  0  0  0  0  0  0  0
    1.0044    4.5950    0.0000 H   0  0  0  0  0  0  0  0  0  0  0  0
    0.8660    2.4300    0.0000 H   0  0  0  0  0  0  0  0  0  0  0  0
    3.6720    2.4300    0.0000 H   0  0  0  0  0  0  0  0  0  0  0  0
    0.0000    3.9300    0.0000 H   0  0  0  0  0  0  0  0  0  0  0  0
   10.4749    9.8220    0.0000 H   0  0  0  0  0  0  0  0  0  0  0  0
    9.3336   12.3854    0.0000 H   0  0  0  0  0  0  0  0  0  0  0  0
    0.8660    0.8100    0.0000 H   0  0  0  0  0  0  0  0  0  0  0  0
    3.6720    0.8100    0.0000 H   0  0  0  0  0  0  0  0  0  0  0  0
    2.2690    0.0000    0.0000 H   0  0  0  0  0  0  0  0  0  0  0  0
   11.9548   10.4809    0.0000 H   0  0  0  0  0  0  0  0  0  0  0  0
   10.8135   13.0443    0.0000 H   0  0  0  0  0  0  0  0  0  0  0  0
   12.1241   12.0921    0.0000 H   0  0  0  0  0  0  0  0  0  0  0  0
  2 12  1  0  0  0  0
  2 18  1  0  0  0  0
  3 18  2  0  0  0  0
  4 23  1  0  0  0  0
  4 61  1  0  0  0  0
  5  6  1  0  0  0  0
  5  7  1  0  0  0  0
  5 13  1  0  0  0  0
  5 14  1  0  0  0  0
  6  9  1  0  0  0  0
  6 11  1  0  0  0  0
  6 36  1  0  0  0  0
  7  8  1  0  0  0  0
  7 10  1  0  0  0  0
  7 37  1  0  0  0  0
  8  9  1  0  0  0  0
  8 40  1  0  0  0  0
  8 41  1  0  0  0  0
  9 38  1  0  0  0  0
  9 39  1  0  0  0  0
 10 12  1  0  0  0  0
 10 44  1  0  0  0  0
 10 45  1  0  0  0  0
 11 12  1  0  0  0  0
 11 42  1  0  0  0  0
 11 43  1  0  0  0  0
 12 46  1  0  0  0  0
 13 15  1  0  0  0  0
 13 47  1  0  0  0  0
 13 48  1  0  0  0  0
 14 49  1  0  0  0  0
 14 50  1  0  0  0  0
 14 51  1  0  0  0  0
 15 16  2  0  0  0  0
 15 17  1  0  0  0  0
 16 20  1  0  0  0  0
 16 52  1  0  0  0  0
 17 21  2  0  0  0  0
 17 53  1  0  0  0  0
 18 19  1  0  0  0  0
 19 23  1  0  0  0  0
 19 24  1  0  0  0  0
 19 54  1  0  0  0  0
 20 22  2  0  0  0  0
 20 55  1  0  0  0  0
 21 22  1  0  0  0  0
 21 56  1  0  0  0  0
 22 25  1  0  0  0  0
 23 57  1  0  0  0  0
 23 58  1  0  0  0  0
 24 26  2  0  0  0  0
 24 27  1  0  0  0  0
 25 28  2  0  0  0  0
 25 29  1  0  0  0  0
 26 30  1  0  0  0  0
 26 59  1  0  0  0  0
 27 31  2  0  0  0  0
 27 60  1  0  0  0  0
 28 33  1  0  0  0  0
 28 62  1  0  0  0  0
 29 34  2  0  0  0  0
 29 63  1  0  0  0  0
 30 32  2  0  0  0  0
 30 64  1  0  0  0  0
 31 32  1  0  0  0  0
 31 65  1  0  0  0  0
 32 66  1  0  0  0  0
 33 35  2  0  0  0  0
 33 67  1  0  0  0  0
 34 35  1  0  0  0  0
 34 68  1  0  0  0  0
 35 69  1  0  0  0  0
M  CHG  2   1  -1   5   1
M  END
> <PUBCHEM_COMPOUND_CID>
10532

> <PUBCHEM_COMPOUND_CANONICALIZED>
1

> <PUBCHEM_CACTVS_COMPLEXITY>
646

> <PUBCHEM_CACTVS_HBOND_ACCEPTOR>
4

> <PUBCHEM_CACTVS_HBOND_DONOR>
1

> <PUBCHEM_CACTVS_ROTATABLE_BOND>
8

> <PUBCHEM_CACTVS_SUBSKEYS>
AAADcfB6MAAAEAAAAAAAAAAAAAAAAWAAAAA8YMEABgAAAAABUAAAHgAACAAADTzhmAYyCIMABgCIAiDSCACCAAAgAAAIiAEIBIgIMDaAlRGGYAhn4AGIiAeYyOCOwAAAAAAAAACAAAAAAAAAAAAAAAAAAA==

> <PUBCHEM_IUPAC_OPENEYE_NAME>
[8-methyl-8-[(4-phenylphenyl)methyl]-8-azoniabicyclo[3.2.1]octan-3-yl] 3-hydroxy-2-phenyl-propanoate bromide

> <PUBCHEM_IUPAC_CAS_NAME>
3-hydroxy-2-phenylpropanoic acid [8-methyl-8-[(4-phenylphenyl)methyl]-8-azoniabicyclo[3.2.1]octan-3-yl] ester bromide

> <PUBCHEM_IUPAC_NAME>
[8-methyl-8-[(4-phenylphenyl)methyl]-8-azoniabicyclo[3.2.1]octan-3-yl] 3-hydroxy-2-phenylpropanoate bromide

> <PUBCHEM_IUPAC_SYSTEMATIC_NAME>
[8-methyl-8-[(4-phenylphenyl)methyl]-8-azoniabicyclo[3.2.1]octan-3-yl] 3-oxidanyl-2-phenyl-propanoate bromide

> <PUBCHEM_IUPAC_TRADITIONAL_NAME>
3-hydroxy-2-phenyl-propionic acid [8-methyl-8-(4-phenylbenzyl)-8-azoniabicyclo[3.2.1]octan-3-yl] ester bromide

> <PUBCHEM_IUPAC_INCHI>
InChI=1S/C30H34NO3.BrH/c1-31(20-22-12-14-24(15-13-22)23-8-4-2-5-9-23)26-16-17-27(31)19-28(18-26)34-30(33)29(21-32)25-10-6-3-7-11-25;/h2-15,26-29,32H,16-21H2,1H3;1H/q+1;/p-1

> <PUBCHEM_IUPAC_INCHIKEY>
KDXSSNBFSJKQMR-UHFFFAOYSA-M

> <PUBCHEM_EXACT_MASS>
535.172206

> <PUBCHEM_MOLECULAR_FORMULA>
C30H34BrNO3

> <PUBCHEM_MOLECULAR_WEIGHT>
536.49986

> <PUBCHEM_OPENEYE_CAN_SMILES>
C[N+]1(C2CCC1CC(C2)OC(=O)C(CO)C3=CC=CC=C3)CC4=CC=C(C=C4)C5=CC=CC=C5.[Br-]

> <PUBCHEM_OPENEYE_ISO_SMILES>
C[N+]1(C2CCC1CC(C2)OC(=O)C(CO)C3=CC=CC=C3)CC4=CC=C(C=C4)C5=CC=CC=C5.[Br-]

> <PUBCHEM_CACTVS_TPSA>
46.5

> <PUBCHEM_MONOISOTOPIC_WEIGHT>
535.172206

> <PUBCHEM_TOTAL_CHARGE>
0

> <PUBCHEM_HEAVY_ATOM_COUNT>
35

> <PUBCHEM_ATOM_DEF_STEREO_COUNT>
0

> <PUBCHEM_ATOM_UDEF_STEREO_COUNT>
3

> <PUBCHEM_BOND_DEF_STEREO_COUNT>
0

> <PUBCHEM_BOND_UDEF_STEREO_COUNT>
0

> <PUBCHEM_ISOTOPIC_ATOM_COUNT>
0

> <PUBCHEM_COMPONENT_COUNT>
2

> <PUBCHEM_CACTVS_TAUTO_COUNT>
1

> <PUBCHEM_COORDINATE_TYPE>
1
5
255

> <PUBCHEM_BONDANNOTATIONS>
15  16  8
15  17  8
16  20  8
17  21  8
19  23  3
20  22  8
21  22  8
24  26  8
24  27  8
25  28  8
25  29  8
26  30  8
27  31  8
28  33  8
29  34  8
30  32  8
31  32  8
33  35  8
34  35  8
6  9  3
7  8  3

$$$$

