17396435
  -OEChem-06241222562D

 46 48  0     1  0  0  0  0  0999 V2000
    6.0875    2.3137    0.0000 S   0  0  0  0  0  0  0  0  0  0  0  0
    4.7026    1.1922    0.0000 S   0  0  0  0  0  0  0  0  0  0  0  0
    6.9010    4.1408    0.0000 O   0  0  0  0  0  0  0  0  0  0  0  0
    8.4833    3.4363    0.0000 N   0  0  0  0  0  0  0  0  0  0  0  0
    3.7320   -0.3023    0.0000 N   0  0  0  0  0  0  0  0  0  0  0  0
    6.1808    0.5341    0.0000 N   0  0  0  0  0  0  0  0  0  0  0  0
    5.5116   -0.2090    0.0000 N   0  0  0  0  0  0  0  0  0  0  0  0
   10.0659    3.0999    0.0000 C   0  0  0  0  0  0  0  0  0  0  0  0
    9.9614    4.0944    0.0000 C   0  0  0  0  0  0  0  0  0  0  0  0
    9.1524    2.6931    0.0000 C   0  0  0  0  0  0  0  0  0  0  0  0
    8.9833    4.3023    0.0000 C   0  0  0  0  0  0  0  0  0  0  0  0
    7.4888    3.3318    0.0000 C   0  0  0  0  0  0  0  0  0  0  0  0
    7.0820    2.4182    0.0000 C   0  0  3  0  0  0  0  0  0  0  0  0
    7.6698    1.6092    0.0000 C   0  0  0  0  0  0  0  0  0  0  0  0
    5.6808    1.4001    0.0000 C   0  0  0  0  0  0  0  0  0  0  0  0
    3.7320   -1.3023    0.0000 C   0  0  0  0  0  0  0  0  0  0  0  0
    2.8660   -1.8023    0.0000 C   0  0  0  0  0  0  0  0  0  0  0  0
    3.7320   -3.3023    0.0000 C   0  0  0  0  0  0  0  0  0  0  0  0
    2.8660   -2.8023    0.0000 C   0  0  0  0  0  0  0  0  0  0  0  0
    4.5981    0.1977    0.0000 C   0  0  0  0  0  0  0  0  0  0  0  0
    4.5981   -1.8023    0.0000 C   0  0  0  0  0  0  0  0  0  0  0  0
    4.5981   -2.8023    0.0000 C   0  0  0  0  0  0  0  0  0  0  0  0
    2.0000   -1.3023    0.0000 C   0  0  0  0  0  0  0  0  0  0  0  0
    3.7320   -4.3023    0.0000 C   0  0  0  0  0  0  0  0  0  0  0  0
   10.5814    4.0944    0.0000 H   0  0  0  0  0  0  0  0  0  0  0  0
   10.0262    4.7110    0.0000 H   0  0  0  0  0  0  0  0  0  0  0  0
   10.2575    2.5102    0.0000 H   0  0  0  0  0  0  0  0  0  0  0  0
   10.6724    3.2288    0.0000 H   0  0  0  0  0  0  0  0  0  0  0  0
    9.1749    4.8920    0.0000 H   0  0  0  0  0  0  0  0  0  0  0  0
    8.4169    4.5545    0.0000 H   0  0  0  0  0  0  0  0  0  0  0  0
    8.6508    2.3287    0.0000 H   0  0  0  0  0  0  0  0  0  0  0  0
    9.4624    2.1562    0.0000 H   0  0  0  0  0  0  0  0  0  0  0  0
    6.8298    1.8518    0.0000 H   0  0  0  0  0  0  0  0  0  0  0  0
    7.1682    1.2448    0.0000 H   0  0  0  0  0  0  0  0  0  0  0  0
    8.0342    1.1076    0.0000 H   0  0  0  0  0  0  0  0  0  0  0  0
    8.1714    1.9736    0.0000 H   0  0  0  0  0  0  0  0  0  0  0  0
    2.3291   -3.1123    0.0000 H   0  0  0  0  0  0  0  0  0  0  0  0
    3.1951    0.0077    0.0000 H   0  0  0  0  0  0  0  0  0  0  0  0
    5.1350   -1.4923    0.0000 H   0  0  0  0  0  0  0  0  0  0  0  0
    5.1350   -3.1123    0.0000 H   0  0  0  0  0  0  0  0  0  0  0  0
    2.3100   -0.7654    0.0000 H   0  0  0  0  0  0  0  0  0  0  0  0
    1.4631   -0.9923    0.0000 H   0  0  0  0  0  0  0  0  0  0  0  0
    1.6900   -1.8392    0.0000 H   0  0  0  0  0  0  0  0  0  0  0  0
    3.1120   -4.3023    0.0000 H   0  0  0  0  0  0  0  0  0  0  0  0
    3.7320   -4.9223    0.0000 H   0  0  0  0  0  0  0  0  0  0  0  0
    4.3520   -4.3023    0.0000 H   0  0  0  0  0  0  0  0  0  0  0  0
  1 13  1  0  0  0  0
  1 15  1  0  0  0  0
  2 15  1  0  0  0  0
  2 20  1  0  0  0  0
  3 12  2  0  0  0  0
  4 10  1  0  0  0  0
  4 11  1  0  0  0  0
  4 12  1  0  0  0  0
  5 16  1  0  0  0  0
  5 20  1  0  0  0  0
  5 38  1  0  0  0  0
  6  7  1  0  0  0  0
  6 15  2  0  0  0  0
  7 20  2  0  0  0  0
  8  9  1  0  0  0  0
  8 10  1  0  0  0  0
  8 27  1  0  0  0  0
  8 28  1  0  0  0  0
  9 11  1  0  0  0  0
  9 25  1  0  0  0  0
  9 26  1  0  0  0  0
 10 31  1  0  0  0  0
 10 32  1  0  0  0  0
 11 29  1  0  0  0  0
 11 30  1  0  0  0  0
 12 13  1  0  0  0  0
 13 14  1  0  0  0  0
 13 33  1  0  0  0  0
 14 34  1  0  0  0  0
 14 35  1  0  0  0  0
 14 36  1  0  0  0  0
 16 17  2  0  0  0  0
 16 21  1  0  0  0  0
 17 19  1  0  0  0  0
 17 23  1  0  0  0  0
 18 19  2  0  0  0  0
 18 22  1  0  0  0  0
 18 24  1  0  0  0  0
 19 37  1  0  0  0  0
 21 22  2  0  0  0  0
 21 39  1  0  0  0  0
 22 40  1  0  0  0  0
 23 41  1  0  0  0  0
 23 42  1  0  0  0  0
 23 43  1  0  0  0  0
 24 44  1  0  0  0  0
 24 45  1  0  0  0  0
 24 46  1  0  0  0  0
M  END
> <PUBCHEM_COMPOUND_CID>
17396435

> <PUBCHEM_COMPOUND_CANONICALIZED>
1

> <PUBCHEM_CACTVS_COMPLEXITY>
433

> <PUBCHEM_CACTVS_HBOND_ACCEPTOR>
6

> <PUBCHEM_CACTVS_HBOND_DONOR>
1

> <PUBCHEM_CACTVS_ROTATABLE_BOND>
5

> <PUBCHEM_CACTVS_SUBSKEYS>
AAADceB7oABgAAAAAAAAAAAAAAAAAWLAAAAwAAAAAAAAAAABwAAAHgQYAAAADAjF2ASz0IPAAAiuAiVScACSAQJhAhkNiAEIZIiIICLAmZGEIAhwlgLIyCcQgEAOCAACAAACAAAQAAQAAAQAAAAAAAAAAA==

> <PUBCHEM_IUPAC_OPENEYE_NAME>
2-[[5-(2,4-dimethylanilino)-1,3,4-thiadiazol-2-yl]sulfanyl]-1-pyrrolidin-1-yl-propan-1-one

> <PUBCHEM_IUPAC_CAS_NAME>
2-[[5-(2,4-dimethylanilino)-1,3,4-thiadiazol-2-yl]thio]-1-(1-pyrrolidinyl)-1-propanone

> <PUBCHEM_IUPAC_NAME>
2-[[5-(2,4-dimethylanilino)-1,3,4-thiadiazol-2-yl]sulfanyl]-1-pyrrolidin-1-ylpropan-1-one

> <PUBCHEM_IUPAC_SYSTEMATIC_NAME>
2-[[5-[(2,4-dimethylphenyl)amino]-1,3,4-thiadiazol-2-yl]sulfanyl]-1-pyrrolidin-1-yl-propan-1-one

> <PUBCHEM_IUPAC_TRADITIONAL_NAME>
2-[[5-(2,4-dimethylanilino)-1,3,4-thiadiazol-2-yl]thio]-1-pyrrolidino-propan-1-one

> <PUBCHEM_IUPAC_INCHI>
InChI=1S/C17H22N4OS2/c1-11-6-7-14(12(2)10-11)18-16-19-20-17(24-16)23-13(3)15(22)21-8-4-5-9-21/h6-7,10,13H,4-5,8-9H2,1-3H3,(H,18,19)

> <PUBCHEM_IUPAC_INCHIKEY>
GFQADQBVFDEQBB-UHFFFAOYSA-N

> <PUBCHEM_XLOGP3_AA>
4.2

> <PUBCHEM_EXACT_MASS>
362.123503

> <PUBCHEM_MOLECULAR_FORMULA>
C17H22N4OS2

> <PUBCHEM_MOLECULAR_WEIGHT>
362.51278

> <PUBCHEM_OPENEYE_CAN_SMILES>
CC1=CC(=C(C=C1)NC2=NN=C(S2)SC(C)C(=O)N3CCCC3)C

> <PUBCHEM_OPENEYE_ISO_SMILES>
CC1=CC(=C(C=C1)NC2=NN=C(S2)SC(C)C(=O)N3CCCC3)C

> <PUBCHEM_CACTVS_TPSA>
112

> <PUBCHEM_MONOISOTOPIC_WEIGHT>
362.123503

> <PUBCHEM_TOTAL_CHARGE>
0

> <PUBCHEM_HEAVY_ATOM_COUNT>
24

> <PUBCHEM_ATOM_DEF_STEREO_COUNT>
0

> <PUBCHEM_ATOM_UDEF_STEREO_COUNT>
1

> <PUBCHEM_BOND_DEF_STEREO_COUNT>
0

> <PUBCHEM_BOND_UDEF_STEREO_COUNT>
0

> <PUBCHEM_ISOTOPIC_ATOM_COUNT>
0

> <PUBCHEM_COMPONENT_COUNT>
1

> <PUBCHEM_CACTVS_TAUTO_COUNT>
2

> <PUBCHEM_COORDINATE_TYPE>
1
5
255

> <PUBCHEM_BONDANNOTATIONS>
13  14  3
16  17  8
16  21  8
17  19  8
18  19  8
18  22  8
2  15  8
2  20  8
21  22  8
6  15  8
6  7  8
7  20  8

$$$$

