47205568
  -OEChem-06241222592D

 32 33  0     0  0  0  0  0  0999 V2000
    2.8660   -4.8080    0.0000 Cl  0  0  0  0  0  0  0  0  0  0  0  0
    6.3776    2.2853    0.0000 S   0  0  0  0  0  0  0  0  0  0  0  0
    2.8660    1.1920    0.0000 O   0  0  0  0  0  0  0  0  0  0  0  0
    4.5981   -0.8080    0.0000 O   0  0  0  0  0  0  0  0  0  0  0  0
    4.5981    1.1920    0.0000 N   0  0  0  0  0  0  0  0  0  0  0  0
    5.5686    3.6865    0.0000 N   0  0  0  0  0  0  0  0  0  0  0  0
    2.8660   -0.8080    0.0000 N   0  0  0  0  0  0  0  0  0  0  0  0
    4.5981    2.1920    0.0000 C   0  0  0  0  0  0  0  0  0  0  0  0
    5.4641    2.6920    0.0000 C   0  0  0  0  0  0  0  0  0  0  0  0
    6.5468    3.8944    0.0000 C   0  0  0  0  0  0  0  0  0  0  0  0
    2.8660   -1.8080    0.0000 C   0  0  0  0  0  0  0  0  0  0  0  0
    3.7320    0.6920    0.0000 C   0  0  0  0  0  0  0  0  0  0  0  0
    7.0468    3.0284    0.0000 C   0  0  0  0  0  0  0  0  0  0  0  0
    3.7320   -0.3080    0.0000 C   0  0  0  0  0  0  0  0  0  0  0  0
    2.0000   -2.3080    0.0000 C   0  0  0  0  0  0  0  0  0  0  0  0
    3.7320   -2.3080    0.0000 C   0  0  0  0  0  0  0  0  0  0  0  0
    6.9535    4.8080    0.0000 C   0  0  0  0  0  0  0  0  0  0  0  0
    2.0000   -3.3080    0.0000 C   0  0  0  0  0  0  0  0  0  0  0  0
    3.7320   -3.3080    0.0000 C   0  0  0  0  0  0  0  0  0  0  0  0
    2.8660   -3.8080    0.0000 C   0  0  0  0  0  0  0  0  0  0  0  0
    4.3860    2.7746    0.0000 H   0  0  0  0  0  0  0  0  0  0  0  0
    3.9875    2.0844    0.0000 H   0  0  0  0  0  0  0  0  0  0  0  0
    5.1350    0.8820    0.0000 H   0  0  0  0  0  0  0  0  0  0  0  0
    7.6634    2.9636    0.0000 H   0  0  0  0  0  0  0  0  0  0  0  0
    2.3291   -0.4980    0.0000 H   0  0  0  0  0  0  0  0  0  0  0  0
    1.4631   -1.9980    0.0000 H   0  0  0  0  0  0  0  0  0  0  0  0
    4.2690   -1.9980    0.0000 H   0  0  0  0  0  0  0  0  0  0  0  0
    7.5199    4.5558    0.0000 H   0  0  0  0  0  0  0  0  0  0  0  0
    7.2057    5.3744    0.0000 H   0  0  0  0  0  0  0  0  0  0  0  0
    6.3871    5.0602    0.0000 H   0  0  0  0  0  0  0  0  0  0  0  0
    1.4631   -3.6180    0.0000 H   0  0  0  0  0  0  0  0  0  0  0  0
    4.2690   -3.6180    0.0000 H   0  0  0  0  0  0  0  0  0  0  0  0
  1 20  1  0  0  0  0
  2  9  1  0  0  0  0
  2 13  1  0  0  0  0
  3 12  2  0  0  0  0
  4 14  2  0  0  0  0
  5  8  1  0  0  0  0
  5 12  1  0  0  0  0
  5 23  1  0  0  0  0
  6  9  2  0  0  0  0
  6 10  1  0  0  0  0
  7 11  1  0  0  0  0
  7 14  1  0  0  0  0
  7 25  1  0  0  0  0
  8  9  1  0  0  0  0
  8 21  1  0  0  0  0
  8 22  1  0  0  0  0
 10 13  2  0  0  0  0
 10 17  1  0  0  0  0
 11 15  2  0  0  0  0
 11 16  1  0  0  0  0
 12 14  1  0  0  0  0
 13 24  1  0  0  0  0
 15 18  1  0  0  0  0
 15 26  1  0  0  0  0
 16 19  2  0  0  0  0
 16 27  1  0  0  0  0
 17 28  1  0  0  0  0
 17 29  1  0  0  0  0
 17 30  1  0  0  0  0
 18 20  2  0  0  0  0
 18 31  1  0  0  0  0
 19 20  1  0  0  0  0
 19 32  1  0  0  0  0
M  END
> <PUBCHEM_COMPOUND_CID>
47205568

> <PUBCHEM_COMPOUND_CANONICALIZED>
1

> <PUBCHEM_CACTVS_COMPLEXITY>
362

> <PUBCHEM_CACTVS_HBOND_ACCEPTOR>
4

> <PUBCHEM_CACTVS_HBOND_DONOR>
2

> <PUBCHEM_CACTVS_ROTATABLE_BOND>
3

> <PUBCHEM_CACTVS_SUBSKEYS>
AAADccBzMABEAAAAAAAAAAAAAAAAAWAAAAAwAAAAAAAAAAABwAAAHgYQAAAACArF1iSywZLIEAisASVyVACC8KBhDzgIiJSYZogIYCLhk7GUIAhglgDoyAcQAAAAAABAAAAAAAAAAIAAAAAAAAAAAAAAAA==

> <PUBCHEM_IUPAC_OPENEYE_NAME>
N'-(4-chlorophenyl)-N-[(4-methylthiazol-2-yl)methyl]oxamide

> <PUBCHEM_IUPAC_CAS_NAME>
N'-(4-chlorophenyl)-N-[(4-methyl-2-thiazolyl)methyl]oxamide

> <PUBCHEM_IUPAC_NAME>
N'-(4-chlorophenyl)-N-[(4-methyl-1,3-thiazol-2-yl)methyl]oxamide

> <PUBCHEM_IUPAC_SYSTEMATIC_NAME>
N'-(4-chlorophenyl)-N-[(4-methyl-1,3-thiazol-2-yl)methyl]ethanediamide

> <PUBCHEM_IUPAC_TRADITIONAL_NAME>
N'-(4-chlorophenyl)-N-[(4-methylthiazol-2-yl)methyl]oxamide

> <PUBCHEM_IUPAC_INCHI>
InChI=1S/C13H12ClN3O2S/c1-8-7-20-11(16-8)6-15-12(18)13(19)17-10-4-2-9(14)3-5-10/h2-5,7H,6H2,1H3,(H,15,18)(H,17,19)

> <PUBCHEM_IUPAC_INCHIKEY>
IVOJERCLGOFLTH-UHFFFAOYSA-N

> <PUBCHEM_XLOGP3_AA>
2.4

> <PUBCHEM_EXACT_MASS>
309.033875

> <PUBCHEM_MOLECULAR_FORMULA>
C13H12ClN3O2S

> <PUBCHEM_MOLECULAR_WEIGHT>
309.77128

> <PUBCHEM_OPENEYE_CAN_SMILES>
CC1=CSC(=N1)CNC(=O)C(=O)NC2=CC=C(C=C2)Cl

> <PUBCHEM_OPENEYE_ISO_SMILES>
CC1=CSC(=N1)CNC(=O)C(=O)NC2=CC=C(C=C2)Cl

> <PUBCHEM_CACTVS_TPSA>
99.3

> <PUBCHEM_MONOISOTOPIC_WEIGHT>
309.033875

> <PUBCHEM_TOTAL_CHARGE>
0

> <PUBCHEM_HEAVY_ATOM_COUNT>
20

> <PUBCHEM_ATOM_DEF_STEREO_COUNT>
0

> <PUBCHEM_ATOM_UDEF_STEREO_COUNT>
0

> <PUBCHEM_BOND_DEF_STEREO_COUNT>
0

> <PUBCHEM_BOND_UDEF_STEREO_COUNT>
0

> <PUBCHEM_ISOTOPIC_ATOM_COUNT>
0

> <PUBCHEM_COMPONENT_COUNT>
1

> <PUBCHEM_CACTVS_TAUTO_COUNT>
4

> <PUBCHEM_COORDINATE_TYPE>
1
5
255

> <PUBCHEM_BONDANNOTATIONS>
10  13  8
11  15  8
11  16  8
15  18  8
16  19  8
18  20  8
19  20  8
2  13  8
2  9  8
6  10  8
6  9  8

$$$$

