17396332
  -OEChem-06241222552D

 36 37  0     1  0  0  0  0  0999 V2000
    2.8090   -2.2306    0.0000 S   0  0  0  0  0  0  0  0  0  0  0  0
    4.5411    4.7694    0.0000 F   0  0  0  0  0  0  0  0  0  0  0  0
    5.5411    3.7694    0.0000 F   0  0  0  0  0  0  0  0  0  0  0  0
    3.5411    3.7694    0.0000 F   0  0  0  0  0  0  0  0  0  0  0  0
    2.8090   -0.2306    0.0000 O   0  0  0  0  0  0  0  0  0  0  0  0
    4.5411   -0.2306    0.0000 N   0  0  0  0  0  0  0  0  0  0  0  0
    3.6180   -3.8184    0.0000 N   0  0  0  0  0  0  0  0  0  0  0  0
    2.0000   -3.8184    0.0000 N   0  0  0  0  0  0  0  0  0  0  0  0
    3.6750   -1.7306    0.0000 C   0  0  3  0  0  0  0  0  0  0  0  0
    3.6750   -0.7306    0.0000 C   0  0  0  0  0  0  0  0  0  0  0  0
    4.5411    0.7694    0.0000 C   0  0  0  0  0  0  0  0  0  0  0  0
    4.5411   -2.2306    0.0000 C   0  0  0  0  0  0  0  0  0  0  0  0
    2.8090   -3.2306    0.0000 C   0  0  0  0  0  0  0  0  0  0  0  0
    4.5411    2.7694    0.0000 C   0  0  0  0  0  0  0  0  0  0  0  0
    5.4071    1.2694    0.0000 C   0  0  0  0  0  0  0  0  0  0  0  0
    3.6750    1.2694    0.0000 C   0  0  0  0  0  0  0  0  0  0  0  0
    5.4071    2.2694    0.0000 C   0  0  0  0  0  0  0  0  0  0  0  0
    3.6750    2.2694    0.0000 C   0  0  0  0  0  0  0  0  0  0  0  0
    3.3090   -4.7694    0.0000 C   0  0  0  0  0  0  0  0  0  0  0  0
    4.5691   -3.5094    0.0000 C   0  0  0  0  0  0  0  0  0  0  0  0
    2.3090   -4.7694    0.0000 C   0  0  0  0  0  0  0  0  0  0  0  0
    4.5411    3.7694    0.0000 C   0  0  0  0  0  0  0  0  0  0  0  0
    3.6750   -2.3506    0.0000 H   0  0  0  0  0  0  0  0  0  0  0  0
    4.2311   -2.7675    0.0000 H   0  0  0  0  0  0  0  0  0  0  0  0
    5.0780   -2.5406    0.0000 H   0  0  0  0  0  0  0  0  0  0  0  0
    4.8511   -1.6936    0.0000 H   0  0  0  0  0  0  0  0  0  0  0  0
    5.0780   -0.5406    0.0000 H   0  0  0  0  0  0  0  0  0  0  0  0
    5.9440    0.9594    0.0000 H   0  0  0  0  0  0  0  0  0  0  0  0
    3.1381    0.9594    0.0000 H   0  0  0  0  0  0  0  0  0  0  0  0
    5.9440    2.5794    0.0000 H   0  0  0  0  0  0  0  0  0  0  0  0
    3.1381    2.5794    0.0000 H   0  0  0  0  0  0  0  0  0  0  0  0
    3.6734   -5.2710    0.0000 H   0  0  0  0  0  0  0  0  0  0  0  0
    4.7607   -4.0990    0.0000 H   0  0  0  0  0  0  0  0  0  0  0  0
    5.1588   -3.3178    0.0000 H   0  0  0  0  0  0  0  0  0  0  0  0
    4.3775   -2.9197    0.0000 H   0  0  0  0  0  0  0  0  0  0  0  0
    1.9446   -5.2710    0.0000 H   0  0  0  0  0  0  0  0  0  0  0  0
  1  9  1  0  0  0  0
  1 13  1  0  0  0  0
  2 22  1  0  0  0  0
  3 22  1  0  0  0  0
  4 22  1  0  0  0  0
  5 10  2  0  0  0  0
  6 10  1  0  0  0  0
  6 11  1  0  0  0  0
  6 27  1  0  0  0  0
  7 13  1  0  0  0  0
  7 19  1  0  0  0  0
  7 20  1  0  0  0  0
  8 13  2  0  0  0  0
  8 21  1  0  0  0  0
  9 10  1  0  0  0  0
  9 12  1  0  0  0  0
  9 23  1  0  0  0  0
 11 15  2  0  0  0  0
 11 16  1  0  0  0  0
 12 24  1  0  0  0  0
 12 25  1  0  0  0  0
 12 26  1  0  0  0  0
 14 17  2  0  0  0  0
 14 18  1  0  0  0  0
 14 22  1  0  0  0  0
 15 17  1  0  0  0  0
 15 28  1  0  0  0  0
 16 18  2  0  0  0  0
 16 29  1  0  0  0  0
 17 30  1  0  0  0  0
 18 31  1  0  0  0  0
 19 21  2  0  0  0  0
 19 32  1  0  0  0  0
 20 33  1  0  0  0  0
 20 34  1  0  0  0  0
 20 35  1  0  0  0  0
 21 36  1  0  0  0  0
M  END
> <PUBCHEM_COMPOUND_CID>
17396332

> <PUBCHEM_COMPOUND_CANONICALIZED>
1

> <PUBCHEM_CACTVS_COMPLEXITY>
386

> <PUBCHEM_CACTVS_HBOND_ACCEPTOR>
6

> <PUBCHEM_CACTVS_HBOND_DONOR>
1

> <PUBCHEM_CACTVS_ROTATABLE_BOND>
4

> <PUBCHEM_CACTVS_SUBSKEYS>
AAADccBzIYBAAAAAAAAAAAAAAAAAAWAAAAAwAAAAAAAAAAABwAAAHwQQAAAADAjF2hS/0JfMEAioAjV3dACC0C1xErAJyAEYdIiIaCLAmZGUIAholALIyCcQgAAOCAAAAAAAAAAQAAAAAAAAAAAAAAAAAA==

> <PUBCHEM_IUPAC_OPENEYE_NAME>
2-(1-methylimidazol-2-yl)sulfanyl-N-[4-(trifluoromethyl)phenyl]propanamide

> <PUBCHEM_IUPAC_CAS_NAME>
2-[(1-methyl-2-imidazolyl)thio]-N-[4-(trifluoromethyl)phenyl]propanamide

> <PUBCHEM_IUPAC_NAME>
2-(1-methylimidazol-2-yl)sulfanyl-N-[4-(trifluoromethyl)phenyl]propanamide

> <PUBCHEM_IUPAC_SYSTEMATIC_NAME>
2-(1-methylimidazol-2-yl)sulfanyl-N-[4-(trifluoromethyl)phenyl]propanamide

> <PUBCHEM_IUPAC_TRADITIONAL_NAME>
2-[(1-methylimidazol-2-yl)thio]-N-[4-(trifluoromethyl)phenyl]propionamide

> <PUBCHEM_IUPAC_INCHI>
InChI=1S/C14H14F3N3OS/c1-9(22-13-18-7-8-20(13)2)12(21)19-11-5-3-10(4-6-11)14(15,16)17/h3-9H,1-2H3,(H,19,21)

> <PUBCHEM_IUPAC_INCHIKEY>
CMGFOAXTLFIINN-UHFFFAOYSA-N

> <PUBCHEM_XLOGP3_AA>
3

> <PUBCHEM_EXACT_MASS>
329.080968

> <PUBCHEM_MOLECULAR_FORMULA>
C14H14F3N3OS

> <PUBCHEM_MOLECULAR_WEIGHT>
329.34067

> <PUBCHEM_OPENEYE_CAN_SMILES>
CC(C(=O)NC1=CC=C(C=C1)C(F)(F)F)SC2=NC=CN2C

> <PUBCHEM_OPENEYE_ISO_SMILES>
CC(C(=O)NC1=CC=C(C=C1)C(F)(F)F)SC2=NC=CN2C

> <PUBCHEM_CACTVS_TPSA>
72.2

> <PUBCHEM_MONOISOTOPIC_WEIGHT>
329.080968

> <PUBCHEM_TOTAL_CHARGE>
0

> <PUBCHEM_HEAVY_ATOM_COUNT>
22

> <PUBCHEM_ATOM_DEF_STEREO_COUNT>
0

> <PUBCHEM_ATOM_UDEF_STEREO_COUNT>
1

> <PUBCHEM_BOND_DEF_STEREO_COUNT>
0

> <PUBCHEM_BOND_UDEF_STEREO_COUNT>
0

> <PUBCHEM_ISOTOPIC_ATOM_COUNT>
0

> <PUBCHEM_COMPONENT_COUNT>
1

> <PUBCHEM_CACTVS_TAUTO_COUNT>
3

> <PUBCHEM_COORDINATE_TYPE>
1
5
255

> <PUBCHEM_BONDANNOTATIONS>
11  15  8
11  16  8
14  17  8
14  18  8
15  17  8
16  18  8
19  21  8
7  13  8
7  19  8
8  13  8
8  21  8
9  12  3

$$$$

