17396203
  -OEChem-06241222552D

 47 49  0     0  0  0  0  0  0999 V2000
    9.7942   -3.2500    0.0000 Cl  0  0  0  0  0  0  0  0  0  0  0  0
    3.7320    2.2500    0.0000 S   0  0  0  0  0  0  0  0  0  0  0  0
    2.0000    1.2500    0.0000 F   0  0  0  0  0  0  0  0  0  0  0  0
    6.3301   -5.2500    0.0000 F   0  0  0  0  0  0  0  0  0  0  0  0
    3.7320    5.2500    0.0000 O   0  0  0  0  0  0  0  0  0  0  0  0
    4.7320    2.2500    0.0000 O   0  0  0  0  0  0  0  0  0  0  0  0
    2.7320    2.2500    0.0000 O   0  0  0  0  0  0  0  0  0  0  0  0
    7.1962   -1.7500    0.0000 O   0  0  0  0  0  0  0  0  0  0  0  0
    3.7320    3.2500    0.0000 N   0  0  0  0  0  0  0  0  0  0  0  0
    5.4641   -0.7500    0.0000 N   0  0  0  0  0  0  0  0  0  0  0  0
    6.3301   -3.2500    0.0000 N   0  0  0  0  0  0  0  0  0  0  0  0
    2.8660    3.7500    0.0000 C   0  0  0  0  0  0  0  0  0  0  0  0
    4.5981    3.7500    0.0000 C   0  0  0  0  0  0  0  0  0  0  0  0
    2.8660    4.7500    0.0000 C   0  0  0  0  0  0  0  0  0  0  0  0
    4.5981    4.7500    0.0000 C   0  0  0  0  0  0  0  0  0  0  0  0
    3.7320    1.2500    0.0000 C   0  0  0  0  0  0  0  0  0  0  0  0
    4.5981    0.7500    0.0000 C   0  0  0  0  0  0  0  0  0  0  0  0
    2.8660    0.7500    0.0000 C   0  0  0  0  0  0  0  0  0  0  0  0
    4.5981   -0.2500    0.0000 C   0  0  0  0  0  0  0  0  0  0  0  0
    2.8660   -0.2500    0.0000 C   0  0  0  0  0  0  0  0  0  0  0  0
    3.7320   -0.7500    0.0000 C   0  0  0  0  0  0  0  0  0  0  0  0
    5.4641   -1.7500    0.0000 C   0  0  0  0  0  0  0  0  0  0  0  0
    6.3301   -2.2500    0.0000 C   0  0  0  0  0  0  0  0  0  0  0  0
    7.1962   -3.7500    0.0000 C   0  0  0  0  0  0  0  0  0  0  0  0
    8.0622   -3.2500    0.0000 C   0  0  0  0  0  0  0  0  0  0  0  0
    7.1962   -4.7500    0.0000 C   0  0  0  0  0  0  0  0  0  0  0  0
    8.9282   -3.7500    0.0000 C   0  0  0  0  0  0  0  0  0  0  0  0
    8.0622   -5.2500    0.0000 C   0  0  0  0  0  0  0  0  0  0  0  0
    8.9282   -4.7500    0.0000 C   0  0  0  0  0  0  0  0  0  0  0  0
    4.8101    3.1674    0.0000 H   0  0  0  0  0  0  0  0  0  0  0  0
    5.2087    3.8577    0.0000 H   0  0  0  0  0  0  0  0  0  0  0  0
    2.2554    3.8577    0.0000 H   0  0  0  0  0  0  0  0  0  0  0  0
    2.6540    3.1674    0.0000 H   0  0  0  0  0  0  0  0  0  0  0  0
    5.2087    4.6423    0.0000 H   0  0  0  0  0  0  0  0  0  0  0  0
    4.8101    5.3326    0.0000 H   0  0  0  0  0  0  0  0  0  0  0  0
    2.6540    5.3326    0.0000 H   0  0  0  0  0  0  0  0  0  0  0  0
    2.2554    4.6423    0.0000 H   0  0  0  0  0  0  0  0  0  0  0  0
    5.1350    1.0600    0.0000 H   0  0  0  0  0  0  0  0  0  0  0  0
    2.3291   -0.5600    0.0000 H   0  0  0  0  0  0  0  0  0  0  0  0
    3.7320   -1.3700    0.0000 H   0  0  0  0  0  0  0  0  0  0  0  0
    6.0010   -0.4400    0.0000 H   0  0  0  0  0  0  0  0  0  0  0  0
    4.8535   -1.6423    0.0000 H   0  0  0  0  0  0  0  0  0  0  0  0
    5.2520   -2.3326    0.0000 H   0  0  0  0  0  0  0  0  0  0  0  0
    5.7932   -3.5600    0.0000 H   0  0  0  0  0  0  0  0  0  0  0  0
    8.0622   -2.6300    0.0000 H   0  0  0  0  0  0  0  0  0  0  0  0
    8.0622   -5.8700    0.0000 H   0  0  0  0  0  0  0  0  0  0  0  0
    9.4651   -5.0600    0.0000 H   0  0  0  0  0  0  0  0  0  0  0  0
  1 27  1  0  0  0  0
  2  6  2  0  0  0  0
  2  7  2  0  0  0  0
  2  9  1  0  0  0  0
  2 16  1  0  0  0  0
  3 18  1  0  0  0  0
  4 26  1  0  0  0  0
  5 14  1  0  0  0  0
  5 15  1  0  0  0  0
  8 23  2  0  0  0  0
  9 12  1  0  0  0  0
  9 13  1  0  0  0  0
 10 19  1  0  0  0  0
 10 22  1  0  0  0  0
 10 41  1  0  0  0  0
 11 23  1  0  0  0  0
 11 24  1  0  0  0  0
 11 44  1  0  0  0  0
 12 14  1  0  0  0  0
 12 32  1  0  0  0  0
 12 33  1  0  0  0  0
 13 15  1  0  0  0  0
 13 30  1  0  0  0  0
 13 31  1  0  0  0  0
 14 36  1  0  0  0  0
 14 37  1  0  0  0  0
 15 34  1  0  0  0  0
 15 35  1  0  0  0  0
 16 17  1  0  0  0  0
 16 18  2  0  0  0  0
 17 19  2  0  0  0  0
 17 38  1  0  0  0  0
 18 20  1  0  0  0  0
 19 21  1  0  0  0  0
 20 21  2  0  0  0  0
 20 39  1  0  0  0  0
 21 40  1  0  0  0  0
 22 23  1  0  0  0  0
 22 42  1  0  0  0  0
 22 43  1  0  0  0  0
 24 25  1  0  0  0  0
 24 26  2  0  0  0  0
 25 27  2  0  0  0  0
 25 45  1  0  0  0  0
 26 28  1  0  0  0  0
 27 29  1  0  0  0  0
 28 29  2  0  0  0  0
 28 46  1  0  0  0  0
 29 47  1  0  0  0  0
M  END
> <PUBCHEM_COMPOUND_CID>
17396203

> <PUBCHEM_COMPOUND_CANONICALIZED>
1

> <PUBCHEM_CACTVS_COMPLEXITY>
660

> <PUBCHEM_CACTVS_HBOND_ACCEPTOR>
8

> <PUBCHEM_CACTVS_HBOND_DONOR>
2

> <PUBCHEM_CACTVS_ROTATABLE_BOND>
6

> <PUBCHEM_CACTVS_SUBSKEYS>
AAADceB7OYBEAAAAAAAAAAAAAAAAAAAAAAA8YIAAAAAAAAABQAAAHwYQQAAACArh0C4wwYLABAKIACVSUHDCABAhBwAIiJiIZogKYCLBk7GXIAxglADYyAcQAAAAAAAAACIAAAAAAAAARAAAAAAAAAAAAA==

> <PUBCHEM_IUPAC_OPENEYE_NAME>
N-(5-chloro-2-fluoro-phenyl)-2-(4-fluoro-3-morpholinosulfonyl-anilino)acetamide

> <PUBCHEM_IUPAC_CAS_NAME>
N-(5-chloro-2-fluorophenyl)-2-[4-fluoro-3-(4-morpholinylsulfonyl)anilino]acetamide

> <PUBCHEM_IUPAC_NAME>
N-(5-chloro-2-fluorophenyl)-2-(4-fluoro-3-morpholin-4-ylsulfonylanilino)acetamide

> <PUBCHEM_IUPAC_SYSTEMATIC_NAME>
N-(5-chloranyl-2-fluoranyl-phenyl)-2-[(4-fluoranyl-3-morpholin-4-ylsulfonyl-phenyl)amino]ethanamide

> <PUBCHEM_IUPAC_TRADITIONAL_NAME>
N-(5-chloro-2-fluoro-phenyl)-2-(4-fluoro-3-morpholinosulfonyl-anilino)acetamide

> <PUBCHEM_IUPAC_INCHI>
InChI=1S/C18H18ClF2N3O4S/c19-12-1-3-14(20)16(9-12)23-18(25)11-22-13-2-4-15(21)17(10-13)29(26,27)24-5-7-28-8-6-24/h1-4,9-10,22H,5-8,11H2,(H,23,25)

> <PUBCHEM_IUPAC_INCHIKEY>
WJNBOOQLJZYBBY-UHFFFAOYSA-N

> <PUBCHEM_XLOGP3_AA>
2.4

> <PUBCHEM_EXACT_MASS>
445.067461

> <PUBCHEM_MOLECULAR_FORMULA>
C18H18ClF2N3O4S

> <PUBCHEM_MOLECULAR_WEIGHT>
445.868026

> <PUBCHEM_OPENEYE_CAN_SMILES>
C1COCCN1S(=O)(=O)C2=C(C=CC(=C2)NCC(=O)NC3=C(C=CC(=C3)Cl)F)F

> <PUBCHEM_OPENEYE_ISO_SMILES>
C1COCCN1S(=O)(=O)C2=C(C=CC(=C2)NCC(=O)NC3=C(C=CC(=C3)Cl)F)F

> <PUBCHEM_CACTVS_TPSA>
96.1

> <PUBCHEM_MONOISOTOPIC_WEIGHT>
445.067461

> <PUBCHEM_TOTAL_CHARGE>
0

> <PUBCHEM_HEAVY_ATOM_COUNT>
29

> <PUBCHEM_ATOM_DEF_STEREO_COUNT>
0

> <PUBCHEM_ATOM_UDEF_STEREO_COUNT>
0

> <PUBCHEM_BOND_DEF_STEREO_COUNT>
0

> <PUBCHEM_BOND_UDEF_STEREO_COUNT>
0

> <PUBCHEM_ISOTOPIC_ATOM_COUNT>
0

> <PUBCHEM_COMPONENT_COUNT>
1

> <PUBCHEM_CACTVS_TAUTO_COUNT>
4

> <PUBCHEM_COORDINATE_TYPE>
1
5
255

> <PUBCHEM_BONDANNOTATIONS>
16  17  8
16  18  8
17  19  8
18  20  8
19  21  8
20  21  8
24  25  8
24  26  8
25  27  8
26  28  8
27  29  8
28  29  8

$$$$

