13474
  -OEChem-06261214362D

 46 46  0     0  0  0  0  0  0999 V2000
    0.0000    4.3700    0.0000 Cl  0  5  0  0  0  0  0  0  0  0  0  0
    4.1200    1.6200    0.0000 S   0  0  0  0  0  0  0  0  0  0  0  0
    4.1200    7.6200    0.0000 N   0  3  0  0  0  0  0  0  0  0  0  0
    4.1200    6.6200    0.0000 C   0  0  0  0  0  0  0  0  0  0  0  0
    4.9860    6.1200    0.0000 C   0  0  0  0  0  0  0  0  0  0  0  0
    4.1200    8.6200    0.0000 C   0  0  0  0  0  0  0  0  0  0  0  0
    3.1200    7.6200    0.0000 C   0  0  0  0  0  0  0  0  0  0  0  0
    4.9860    5.1200    0.0000 C   0  0  0  0  0  0  0  0  0  0  0  0
    5.8521    4.6200    0.0000 C   0  0  0  0  0  0  0  0  0  0  0  0
    5.8521    3.6200    0.0000 C   0  0  0  0  0  0  0  0  0  0  0  0
    6.7181    5.1200    0.0000 C   0  0  0  0  0  0  0  0  0  0  0  0
    4.9860    3.1200    0.0000 C   0  0  0  0  0  0  0  0  0  0  0  0
    6.7181    3.1200    0.0000 C   0  0  0  0  0  0  0  0  0  0  0  0
    6.7181    6.1200    0.0000 C   0  0  0  0  0  0  0  0  0  0  0  0
    7.5841    4.6200    0.0000 C   0  0  0  0  0  0  0  0  0  0  0  0
    4.9860    2.1200    0.0000 C   0  0  0  0  0  0  0  0  0  0  0  0
    6.7181    2.1200    0.0000 C   0  0  0  0  0  0  0  0  0  0  0  0
    5.8521    1.6200    0.0000 C   0  0  0  0  0  0  0  0  0  0  0  0
    7.5841    6.6200    0.0000 C   0  0  0  0  0  0  0  0  0  0  0  0
    8.4501    5.1200    0.0000 C   0  0  0  0  0  0  0  0  0  0  0  0
    8.4501    6.1200    0.0000 C   0  0  0  0  0  0  0  0  0  0  0  0
    4.1200    0.6200    0.0000 C   0  0  0  0  0  0  0  0  0  0  0  0
    4.7400    7.6200    0.0000 H   0  0  0  0  0  0  0  0  0  0  0  0
    3.9079    6.0374    0.0000 H   0  0  0  0  0  0  0  0  0  0  0  0
    3.5094    6.7277    0.0000 H   0  0  0  0  0  0  0  0  0  0  0  0
    5.1981    6.7026    0.0000 H   0  0  0  0  0  0  0  0  0  0  0  0
    5.5966    6.0123    0.0000 H   0  0  0  0  0  0  0  0  0  0  0  0
    4.7400    8.6200    0.0000 H   0  0  0  0  0  0  0  0  0  0  0  0
    3.5000    8.6200    0.0000 H   0  0  0  0  0  0  0  0  0  0  0  0
    4.1200    9.2400    0.0000 H   0  0  0  0  0  0  0  0  0  0  0  0
    3.1200    7.0000    0.0000 H   0  0  0  0  0  0  0  0  0  0  0  0
    2.5000    7.6200    0.0000 H   0  0  0  0  0  0  0  0  0  0  0  0
    3.1200    8.2400    0.0000 H   0  0  0  0  0  0  0  0  0  0  0  0
    4.4491    4.8100    0.0000 H   0  0  0  0  0  0  0  0  0  0  0  0
    4.4491    3.4300    0.0000 H   0  0  0  0  0  0  0  0  0  0  0  0
    7.2550    3.4300    0.0000 H   0  0  0  0  0  0  0  0  0  0  0  0
    6.1811    6.4300    0.0000 H   0  0  0  0  0  0  0  0  0  0  0  0
    7.5841    4.0000    0.0000 H   0  0  0  0  0  0  0  0  0  0  0  0
    7.2550    1.8100    0.0000 H   0  0  0  0  0  0  0  0  0  0  0  0
    5.8521    1.0000    0.0000 H   0  0  0  0  0  0  0  0  0  0  0  0
    7.5841    7.2400    0.0000 H   0  0  0  0  0  0  0  0  0  0  0  0
    8.9871    4.8100    0.0000 H   0  0  0  0  0  0  0  0  0  0  0  0
    8.9871    6.4300    0.0000 H   0  0  0  0  0  0  0  0  0  0  0  0
    3.5000    0.6200    0.0000 H   0  0  0  0  0  0  0  0  0  0  0  0
    4.1200    0.0000    0.0000 H   0  0  0  0  0  0  0  0  0  0  0  0
    4.7400    0.6200    0.0000 H   0  0  0  0  0  0  0  0  0  0  0  0
  2 16  1  0  0  0  0
  2 22  1  0  0  0  0
  3  4  1  0  0  0  0
  3  6  1  0  0  0  0
  3  7  1  0  0  0  0
  3 23  1  0  0  0  0
  4  5  1  0  0  0  0
  4 24  1  0  0  0  0
  4 25  1  0  0  0  0
  5  8  1  0  0  0  0
  5 26  1  0  0  0  0
  5 27  1  0  0  0  0
  6 28  1  0  0  0  0
  6 29  1  0  0  0  0
  6 30  1  0  0  0  0
  7 31  1  0  0  0  0
  7 32  1  0  0  0  0
  7 33  1  0  0  0  0
  8  9  2  3  0  0  0
  8 34  1  0  0  0  0
  9 10  1  0  0  0  0
  9 11  1  0  0  0  0
 10 12  2  0  0  0  0
 10 13  1  0  0  0  0
 11 14  2  0  0  0  0
 11 15  1  0  0  0  0
 12 16  1  0  0  0  0
 12 35  1  0  0  0  0
 13 17  2  0  0  0  0
 13 36  1  0  0  0  0
 14 19  1  0  0  0  0
 14 37  1  0  0  0  0
 15 20  2  0  0  0  0
 15 38  1  0  0  0  0
 16 18  2  0  0  0  0
 17 18  1  0  0  0  0
 17 39  1  0  0  0  0
 18 40  1  0  0  0  0
 19 21  2  0  0  0  0
 19 41  1  0  0  0  0
 20 21  1  0  0  0  0
 20 42  1  0  0  0  0
 21 43  1  0  0  0  0
 22 44  1  0  0  0  0
 22 45  1  0  0  0  0
 22 46  1  0  0  0  0
M  CHG  2   1  -1   3   1
M  END
> <PUBCHEM_COMPOUND_CID>
13474

> <PUBCHEM_COMPOUND_CANONICALIZED>
1

> <PUBCHEM_CACTVS_COMPLEXITY>
318

> <PUBCHEM_CACTVS_HBOND_ACCEPTOR>
2

> <PUBCHEM_CACTVS_HBOND_DONOR>
1

> <PUBCHEM_CACTVS_ROTATABLE_BOND>
6

> <PUBCHEM_CACTVS_SUBSKEYS>
AAADceB6AABEAAAAAAAAAAAAAAAAAAAAAAAwYAAAAAAAAAABQAAAHAQQAAAADADBWASyAYPAAAiAAiBCAAACAAAgCBAIiJgIAIgIICKgERCEIAAgkAAIiAcAgMAOAAAAgAAAAAAAAAEAAAAAAAAAAAAAAA==

> <PUBCHEM_IUPAC_OPENEYE_NAME>
dimethyl-[4-(3-methylsulfanylphenyl)-4-phenyl-but-3-enyl]ammonium chloride

> <PUBCHEM_IUPAC_CAS_NAME>
dimethyl-[4-[3-(methylthio)phenyl]-4-phenylbut-3-enyl]ammonium chloride

> <PUBCHEM_IUPAC_NAME>
dimethyl-[4-(3-methylsulfanylphenyl)-4-phenylbut-3-enyl]azanium chloride

> <PUBCHEM_IUPAC_SYSTEMATIC_NAME>
dimethyl-[4-(3-methylsulfanylphenyl)-4-phenyl-but-3-enyl]azanium chloride

> <PUBCHEM_IUPAC_TRADITIONAL_NAME>
dimethyl-[4-[3-(methylthio)phenyl]-4-phenyl-but-3-enyl]ammonium chloride

> <PUBCHEM_IUPAC_INCHI>
InChI=1S/C19H23NS.ClH/c1-20(2)14-8-13-19(16-9-5-4-6-10-16)17-11-7-12-18(15-17)21-3;/h4-7,9-13,15H,8,14H2,1-3H3;1H

> <PUBCHEM_IUPAC_INCHIKEY>
HWXROCRJYSUJKB-UHFFFAOYSA-N

> <PUBCHEM_EXACT_MASS>
333.131798

> <PUBCHEM_MOLECULAR_FORMULA>
C19H24ClNS

> <PUBCHEM_MOLECULAR_WEIGHT>
333.91856

> <PUBCHEM_OPENEYE_CAN_SMILES>
C[NH+](C)CCC=C(C1=CC=CC=C1)C2=CC(=CC=C2)SC.[Cl-]

> <PUBCHEM_OPENEYE_ISO_SMILES>
C[NH+](C)CCC=C(C1=CC=CC=C1)C2=CC(=CC=C2)SC.[Cl-]

> <PUBCHEM_CACTVS_TPSA>
29.7

> <PUBCHEM_MONOISOTOPIC_WEIGHT>
333.131798

> <PUBCHEM_TOTAL_CHARGE>
0

> <PUBCHEM_HEAVY_ATOM_COUNT>
22

> <PUBCHEM_ATOM_DEF_STEREO_COUNT>
0

> <PUBCHEM_ATOM_UDEF_STEREO_COUNT>
0

> <PUBCHEM_BOND_DEF_STEREO_COUNT>
0

> <PUBCHEM_BOND_UDEF_STEREO_COUNT>
1

> <PUBCHEM_ISOTOPIC_ATOM_COUNT>
0

> <PUBCHEM_COMPONENT_COUNT>
2

> <PUBCHEM_CACTVS_TAUTO_COUNT>
1

> <PUBCHEM_COORDINATE_TYPE>
1
5
255

> <PUBCHEM_BONDANNOTATIONS>
10  12  8
10  13  8
11  14  8
11  15  8
12  16  8
13  17  8
14  19  8
15  20  8
16  18  8
17  18  8
19  21  8
20  21  8
8  9  1

$$$$

