12927
  -OEChem-06261207332D

 50 50  0     1  0  0  0  0  0999 V2000
    8.8806    4.8925    0.0000 S   0  0  0  0  0  0  0  0  0  0  0  0
    9.7466    5.3925    0.0000 O   0  0  0  0  0  0  0  0  0  0  0  0
    8.3806    5.7585    0.0000 O   0  0  0  0  0  0  0  0  0  0  0  0
    9.3806    4.0264    0.0000 O   0  0  0  0  0  0  0  0  0  0  0  0
    2.2690    4.1200    0.0000 O   0  0  0  0  0  0  0  0  0  0  0  0
    8.0146    4.3925    0.0000 N   0  0  0  0  0  0  0  0  0  0  0  0
    2.2690    5.1200    0.0000 N   0  0  0  0  0  0  0  0  0  0  0  0
    3.1350    6.6200    0.0000 N   0  0  0  0  0  0  0  0  0  0  0  0
    4.0010    5.1200    0.0000 N   0  0  0  0  0  0  0  0  0  0  0  0
    8.0146    3.3925    0.0000 C   0  0  0  0  0  0  0  0  0  0  0  0
    7.1486    2.8925    0.0000 C   0  0  0  0  0  0  0  0  0  0  0  0
    8.8806    2.8925    0.0000 C   0  0  0  0  0  0  0  0  0  0  0  0
    7.1486    1.8925    0.0000 C   0  0  0  0  0  0  0  0  0  0  0  0
    8.8806    1.8925    0.0000 C   0  0  0  0  0  0  0  0  0  0  0  0
    8.0146    1.3925    0.0000 C   0  0  0  0  0  0  0  0  0  0  0  0
    1.4030    3.6200    0.0000 C   0  0  3  0  0  0  0  0  0  0  0  0
    1.4030    2.6200    0.0000 C   0  0  0  0  0  0  0  0  0  0  0  0
    0.5369    4.1200    0.0000 C   0  0  0  0  0  0  0  0  0  0  0  0
    0.5369    2.1200    0.0000 C   0  0  0  0  0  0  0  0  0  0  0  0
    2.2690    2.1200    0.0000 C   0  0  0  0  0  0  0  0  0  0  0  0
    0.5369    1.1200    0.0000 C   0  0  0  0  0  0  0  0  0  0  0  0
    2.2690    1.1200    0.0000 C   0  0  0  0  0  0  0  0  0  0  0  0
    1.4030    0.6200    0.0000 C   0  0  0  0  0  0  0  0  0  0  0  0
    3.1350    5.6200    0.0000 C   0  0  0  0  0  0  0  0  0  0  0  0
    8.5515    3.7025    0.0000 H   0  0  0  0  0  0  0  0  0  0  0  0
    6.9365    3.4751    0.0000 H   0  0  0  0  0  0  0  0  0  0  0  0
    6.5380    2.7848    0.0000 H   0  0  0  0  0  0  0  0  0  0  0  0
    9.4912    2.7848    0.0000 H   0  0  0  0  0  0  0  0  0  0  0  0
    9.0927    3.4751    0.0000 H   0  0  0  0  0  0  0  0  0  0  0  0
    6.5380    2.0001    0.0000 H   0  0  0  0  0  0  0  0  0  0  0  0
    6.9365    1.3099    0.0000 H   0  0  0  0  0  0  0  0  0  0  0  0
    9.0927    1.3099    0.0000 H   0  0  0  0  0  0  0  0  0  0  0  0
    9.4912    2.0001    0.0000 H   0  0  0  0  0  0  0  0  0  0  0  0
    7.6160    0.9175    0.0000 H   0  0  0  0  0  0  0  0  0  0  0  0
    8.4131    0.9175    0.0000 H   0  0  0  0  0  0  0  0  0  0  0  0
    7.4776    4.7025    0.0000 H   0  0  0  0  0  0  0  0  0  0  0  0
    9.7466    6.0125    0.0000 H   0  0  0  0  0  0  0  0  0  0  0  0
    1.9399    3.3100    0.0000 H   0  0  0  0  0  0  0  0  0  0  0  0
    0.8469    4.6569    0.0000 H   0  0  0  0  0  0  0  0  0  0  0  0
    0.0000    4.4300    0.0000 H   0  0  0  0  0  0  0  0  0  0  0  0
    0.2269    3.5831    0.0000 H   0  0  0  0  0  0  0  0  0  0  0  0
    0.0000    2.4300    0.0000 H   0  0  0  0  0  0  0  0  0  0  0  0
    2.8059    2.4300    0.0000 H   0  0  0  0  0  0  0  0  0  0  0  0
    0.0000    0.8100    0.0000 H   0  0  0  0  0  0  0  0  0  0  0  0
    2.8059    0.8100    0.0000 H   0  0  0  0  0  0  0  0  0  0  0  0
    1.4030    0.0000    0.0000 H   0  0  0  0  0  0  0  0  0  0  0  0
    3.6720    6.9300    0.0000 H   0  0  0  0  0  0  0  0  0  0  0  0
    2.5981    6.9300    0.0000 H   0  0  0  0  0  0  0  0  0  0  0  0
    4.5380    5.4300    0.0000 H   0  0  0  0  0  0  0  0  0  0  0  0
    4.0010    4.5000    0.0000 H   0  0  0  0  0  0  0  0  0  0  0  0
  1  2  1  0  0  0  0
  1  3  2  0  0  0  0
  1  4  2  0  0  0  0
  1  6  1  0  0  0  0
  2 37  1  0  0  0  0
  5  7  1  0  0  0  0
  5 16  1  0  0  0  0
  6 10  1  0  0  0  0
  6 36  1  0  0  0  0
  7 24  2  0  0  0  0
  8 24  1  0  0  0  0
  8 47  1  0  0  0  0
  8 48  1  0  0  0  0
  9 24  1  0  0  0  0
  9 49  1  0  0  0  0
  9 50  1  0  0  0  0
 10 11  1  0  0  0  0
 10 12  1  0  0  0  0
 10 25  1  0  0  0  0
 11 13  1  0  0  0  0
 11 26  1  0  0  0  0
 11 27  1  0  0  0  0
 12 14  1  0  0  0  0
 12 28  1  0  0  0  0
 12 29  1  0  0  0  0
 13 15  1  0  0  0  0
 13 30  1  0  0  0  0
 13 31  1  0  0  0  0
 14 15  1  0  0  0  0
 14 32  1  0  0  0  0
 14 33  1  0  0  0  0
 15 34  1  0  0  0  0
 15 35  1  0  0  0  0
 16 17  1  0  0  0  0
 16 18  1  0  0  0  0
 16 38  1  0  0  0  0
 17 19  2  0  0  0  0
 17 20  1  0  0  0  0
 18 39  1  0  0  0  0
 18 40  1  0  0  0  0
 18 41  1  0  0  0  0
 19 21  1  0  0  0  0
 19 42  1  0  0  0  0
 20 22  2  0  0  0  0
 20 43  1  0  0  0  0
 21 23  2  0  0  0  0
 21 44  1  0  0  0  0
 22 23  1  0  0  0  0
 22 45  1  0  0  0  0
 23 46  1  0  0  0  0
M  END
> <PUBCHEM_COMPOUND_CID>
12927

> <PUBCHEM_COMPOUND_CANONICALIZED>
1

> <PUBCHEM_CACTVS_COMPLEXITY>
372

> <PUBCHEM_CACTVS_HBOND_ACCEPTOR>
6

> <PUBCHEM_CACTVS_HBOND_DONOR>
4

> <PUBCHEM_CACTVS_ROTATABLE_BOND>
5

> <PUBCHEM_CACTVS_SUBSKEYS>
AAADceBzuABAAAAAAAAAAAAAAAAAAAAAAAAwYAAAAAAAAAABAAAAHgAUSAAADDzhmAYzAIBQAICgAiBCIDACAAAgAAAIiIAACIgIJiKAkRCAMAAk0AEIiAeQwKAOAAAAAAAAAAAAAAAAAAAAAAAAAAAAAA==

> <PUBCHEM_IUPAC_OPENEYE_NAME>
cyclohexylsulfamic acid; 2-(1-phenylethoxy)guanidine

> <PUBCHEM_IUPAC_CAS_NAME>
cyclohexylsulfamic acid; 2-(1-phenylethoxy)guanidine

> <PUBCHEM_IUPAC_NAME>
cyclohexylsulfamic acid; 2-(1-phenylethoxy)guanidine

> <PUBCHEM_IUPAC_SYSTEMATIC_NAME>
cyclohexylsulfamic acid; 2-(1-phenylethoxy)guanidine

> <PUBCHEM_IUPAC_TRADITIONAL_NAME>
cyclohexylsulfamic acid; 2-(1-phenylethoxy)guanidine

> <PUBCHEM_IUPAC_INCHI>
InChI=1S/C9H13N3O.C6H13NO3S/c1-7(13-12-9(10)11)8-5-3-2-4-6-8;8-11(9,10)7-6-4-2-1-3-5-6/h2-7H,1H3,(H4,10,11,12);6-7H,1-5H2,(H,8,9,10)

> <PUBCHEM_IUPAC_INCHIKEY>
HCXBPNYPVIWGAA-UHFFFAOYSA-N

> <PUBCHEM_EXACT_MASS>
358.167476

> <PUBCHEM_MOLECULAR_FORMULA>
C15H26N4O4S

> <PUBCHEM_MOLECULAR_WEIGHT>
358.45634

> <PUBCHEM_OPENEYE_CAN_SMILES>
CC(C1=CC=CC=C1)ON=C(N)N.C1CCC(CC1)NS(=O)(=O)O

> <PUBCHEM_OPENEYE_ISO_SMILES>
CC(C1=CC=CC=C1)ON=C(N)N.C1CCC(CC1)NS(=O)(=O)O

> <PUBCHEM_CACTVS_TPSA>
148

> <PUBCHEM_MONOISOTOPIC_WEIGHT>
358.167476

> <PUBCHEM_TOTAL_CHARGE>
0

> <PUBCHEM_HEAVY_ATOM_COUNT>
24

> <PUBCHEM_ATOM_DEF_STEREO_COUNT>
0

> <PUBCHEM_ATOM_UDEF_STEREO_COUNT>
1

> <PUBCHEM_BOND_DEF_STEREO_COUNT>
0

> <PUBCHEM_BOND_UDEF_STEREO_COUNT>
0

> <PUBCHEM_ISOTOPIC_ATOM_COUNT>
0

> <PUBCHEM_COMPONENT_COUNT>
2

> <PUBCHEM_CACTVS_TAUTO_COUNT>
2

> <PUBCHEM_COORDINATE_TYPE>
1
5
255

> <PUBCHEM_BONDANNOTATIONS>
16  18  3
17  19  8
17  20  8
19  21  8
20  22  8
21  23  8
22  23  8

$$$$

