9783
  -OEChem-06261204032D

 14 13  0     0  0  0  0  0  0999 V2000
    4.0981    0.9330    0.0000 F   0  0  0  0  0  0  0  0  0  0  0  0
    5.0981   -0.7990    0.0000 F   0  0  0  0  0  0  0  0  0  0  0  0
    6.3301    1.0670    0.0000 F   0  0  0  0  0  0  0  0  0  0  0  0
    4.9641    1.4330    0.0000 F   0  0  0  0  0  0  0  0  0  0  0  0
    5.9641   -0.2990    0.0000 F   0  0  0  0  0  0  0  0  0  0  0  0
    2.8660    0.0670    0.0000 O   0  0  0  0  0  0  0  0  0  0  0  0
    3.7320   -1.4330    0.0000 O   0  0  0  0  0  0  0  0  0  0  0  0
    4.5981    0.0670    0.0000 C   0  0  0  0  0  0  0  0  0  0  0  0
    5.4641    0.5670    0.0000 C   0  0  0  0  0  0  0  0  0  0  0  0
    3.7320   -0.4330    0.0000 C   0  0  0  0  0  0  0  0  0  0  0  0
    2.0000   -0.4330    0.0000 C   0  0  0  0  0  0  0  0  0  0  0  0
    1.6900    0.1039    0.0000 H   0  0  0  0  0  0  0  0  0  0  0  0
    1.4631   -0.7430    0.0000 H   0  0  0  0  0  0  0  0  0  0  0  0
    2.3100   -0.9699    0.0000 H   0  0  0  0  0  0  0  0  0  0  0  0
  1  8  1  0  0  0  0
  2  8  1  0  0  0  0
  3  9  1  0  0  0  0
  4  9  1  0  0  0  0
  5  9  1  0  0  0  0
  6 10  1  0  0  0  0
  6 11  1  0  0  0  0
  7 10  2  0  0  0  0
  8  9  1  0  0  0  0
  8 10  1  0  0  0  0
 11 12  1  0  0  0  0
 11 13  1  0  0  0  0
 11 14  1  0  0  0  0
M  END
> <PUBCHEM_COMPOUND_CID>
9783

> <PUBCHEM_COMPOUND_CANONICALIZED>
1

> <PUBCHEM_CACTVS_COMPLEXITY>
160

> <PUBCHEM_CACTVS_HBOND_ACCEPTOR>
7

> <PUBCHEM_CACTVS_HBOND_DONOR>
0

> <PUBCHEM_CACTVS_ROTATABLE_BOND>
2

> <PUBCHEM_CACTVS_SUBSKEYS>
AAADcQBgMcAAAAAAAAAAAAAAAAAAAAAAAAAAAAAAAAAAAAAAAAAAGwAAAAAACAAAgBICCAAABAAIAACQCAAAAAAAAAAAAAEAAAAAAAAAAAAAAAAAAAAAAAAAAAAAAAAAAAAAAAAAAAAAAAAAAAAAAAAAAA==

> <PUBCHEM_IUPAC_OPENEYE_NAME>
methyl 2,2,3,3,3-pentafluoropropanoate

> <PUBCHEM_IUPAC_CAS_NAME>
2,2,3,3,3-pentafluoropropanoic acid methyl ester

> <PUBCHEM_IUPAC_NAME>
methyl 2,2,3,3,3-pentafluoropropanoate

> <PUBCHEM_IUPAC_SYSTEMATIC_NAME>
methyl 2,2,3,3,3-pentakis(fluoranyl)propanoate

> <PUBCHEM_IUPAC_TRADITIONAL_NAME>
2,2,3,3,3-pentafluoropropionic acid methyl ester

> <PUBCHEM_IUPAC_INCHI>
InChI=1S/C4H3F5O2/c1-11-2(10)3(5,6)4(7,8)9/h1H3

> <PUBCHEM_IUPAC_INCHIKEY>
JMKJCPUVEMZGEC-UHFFFAOYSA-N

> <PUBCHEM_XLOGP3>
1.8

> <PUBCHEM_EXACT_MASS>
178.00532

> <PUBCHEM_MOLECULAR_FORMULA>
C4H3F5O2

> <PUBCHEM_MOLECULAR_WEIGHT>
178.057436

> <PUBCHEM_OPENEYE_CAN_SMILES>
COC(=O)C(C(F)(F)F)(F)F

> <PUBCHEM_OPENEYE_ISO_SMILES>
COC(=O)C(C(F)(F)F)(F)F

> <PUBCHEM_CACTVS_TPSA>
26.3

> <PUBCHEM_MONOISOTOPIC_WEIGHT>
178.00532

> <PUBCHEM_TOTAL_CHARGE>
0

> <PUBCHEM_HEAVY_ATOM_COUNT>
11

> <PUBCHEM_ATOM_DEF_STEREO_COUNT>
0

> <PUBCHEM_ATOM_UDEF_STEREO_COUNT>
0

> <PUBCHEM_BOND_DEF_STEREO_COUNT>
0

> <PUBCHEM_BOND_UDEF_STEREO_COUNT>
0

> <PUBCHEM_ISOTOPIC_ATOM_COUNT>
0

> <PUBCHEM_COMPONENT_COUNT>
1

> <PUBCHEM_CACTVS_TAUTO_COUNT>
1

> <PUBCHEM_COORDINATE_TYPE>
1
5
255

$$$$

