13268
  -OEChem-06261208182D

 29 29  0     1  0  0  0  0  0999 V2000
    3.7320    2.5600    0.0000 Cl  0  0  0  0  0  0  0  0  0  0  0  0
    2.0000   -0.4400    0.0000 F   0  0  0  0  0  0  0  0  0  0  0  0
    6.3301    1.0600    0.0000 O   0  0  0  0  0  0  0  0  0  0  0  0
    8.0622   -1.9400    0.0000 O   0  0  0  0  0  0  0  0  0  0  0  0
    4.5981    0.0600    0.0000 N   0  0  3  0  0  0  0  0  0  0  0  0
    6.3301   -1.9400    0.0000 N   0  0  0  0  0  0  0  0  0  0  0  0
    7.1962   -0.4400    0.0000 N   0  0  0  0  0  0  0  0  0  0  0  0
    5.4641   -0.4400    0.0000 C   0  0  0  0  0  0  0  0  0  0  0  0
    4.5981    1.0600    0.0000 C   0  0  0  0  0  0  0  0  0  0  0  0
    3.7320   -0.4400    0.0000 C   0  0  0  0  0  0  0  0  0  0  0  0
    5.4641   -1.4400    0.0000 C   0  0  0  0  0  0  0  0  0  0  0  0
    6.3301    0.0600    0.0000 C   0  0  0  0  0  0  0  0  0  0  0  0
    3.7320    1.5600    0.0000 C   0  0  0  0  0  0  0  0  0  0  0  0
    2.8660    0.0600    0.0000 C   0  0  0  0  0  0  0  0  0  0  0  0
    4.5981   -1.9400    0.0000 C   0  0  0  0  0  0  0  0  0  0  0  0
    7.1962   -1.4400    0.0000 C   0  0  0  0  0  0  0  0  0  0  0  0
    5.2087    0.9523    0.0000 H   0  0  0  0  0  0  0  0  0  0  0  0
    4.8101    1.6426    0.0000 H   0  0  0  0  0  0  0  0  0  0  0  0
    3.3335   -0.9149    0.0000 H   0  0  0  0  0  0  0  0  0  0  0  0
    4.1306   -0.9149    0.0000 H   0  0  0  0  0  0  0  0  0  0  0  0
    3.1215    1.6677    0.0000 H   0  0  0  0  0  0  0  0  0  0  0  0
    3.5200    0.9774    0.0000 H   0  0  0  0  0  0  0  0  0  0  0  0
    3.2646    0.5349    0.0000 H   0  0  0  0  0  0  0  0  0  0  0  0
    2.4675    0.5349    0.0000 H   0  0  0  0  0  0  0  0  0  0  0  0
    6.3301   -2.5600    0.0000 H   0  0  0  0  0  0  0  0  0  0  0  0
    4.2881   -1.4031    0.0000 H   0  0  0  0  0  0  0  0  0  0  0  0
    4.0611   -2.2500    0.0000 H   0  0  0  0  0  0  0  0  0  0  0  0
    4.9081   -2.4769    0.0000 H   0  0  0  0  0  0  0  0  0  0  0  0
    7.7331   -0.1300    0.0000 H   0  0  0  0  0  0  0  0  0  0  0  0
  1 13  1  0  0  0  0
  2 14  1  0  0  0  0
  3 12  2  0  0  0  0
  4 16  2  0  0  0  0
  5  8  1  0  0  0  0
  5  9  1  0  0  0  0
  5 10  1  0  0  0  0
  6 11  1  0  0  0  0
  6 16  1  0  0  0  0
  6 25  1  0  0  0  0
  7 12  1  0  0  0  0
  7 16  1  0  0  0  0
  7 29  1  0  0  0  0
  8 11  2  0  0  0  0
  8 12  1  0  0  0  0
  9 13  1  0  0  0  0
  9 17  1  0  0  0  0
  9 18  1  0  0  0  0
 10 14  1  0  0  0  0
 10 19  1  0  0  0  0
 10 20  1  0  0  0  0
 11 15  1  0  0  0  0
 13 21  1  0  0  0  0
 13 22  1  0  0  0  0
 14 23  1  0  0  0  0
 14 24  1  0  0  0  0
 15 26  1  0  0  0  0
 15 27  1  0  0  0  0
 15 28  1  0  0  0  0
M  END
> <PUBCHEM_COMPOUND_CID>
13268

> <PUBCHEM_COMPOUND_CANONICALIZED>
1

> <PUBCHEM_CACTVS_COMPLEXITY>
333

> <PUBCHEM_CACTVS_HBOND_ACCEPTOR>
4

> <PUBCHEM_CACTVS_HBOND_DONOR>
2

> <PUBCHEM_CACTVS_ROTATABLE_BOND>
5

> <PUBCHEM_CACTVS_SUBSKEYS>
AAADccBzMQAEAAAAAAAAAAAAAAAAAAAAAAAgAAAAAAAAAAAAAAAAHwIQAAAACAvBgEQDAAPAAACIAAVQUACAAAAAAAAACACIAECAQAAAACBQAAAIFSKAAUAAAAAAAAAAAAAAAAAAAAAAAAAAAAAAAAAAAA==

> <PUBCHEM_IUPAC_OPENEYE_NAME>
5-[2-chloroethyl(2-fluoroethyl)amino]-6-methyl-1H-pyrimidine-2,4-dione

> <PUBCHEM_IUPAC_CAS_NAME>
5-[2-chloroethyl(2-fluoroethyl)amino]-6-methyl-1H-pyrimidine-2,4-dione

> <PUBCHEM_IUPAC_NAME>
5-[2-chloroethyl(2-fluoroethyl)amino]-6-methyl-1H-pyrimidine-2,4-dione

> <PUBCHEM_IUPAC_SYSTEMATIC_NAME>
5-[2-chloroethyl(2-fluoranylethyl)amino]-6-methyl-1H-pyrimidine-2,4-dione

> <PUBCHEM_IUPAC_TRADITIONAL_NAME>
5-[2-chloroethyl(2-fluoroethyl)amino]-6-methyl-uracil

> <PUBCHEM_IUPAC_INCHI>
InChI=1S/C9H13ClFN3O2/c1-6-7(8(15)13-9(16)12-6)14(4-2-10)5-3-11/h2-5H2,1H3,(H2,12,13,15,16)

> <PUBCHEM_IUPAC_INCHIKEY>
ODACNRQBNVVGAI-UHFFFAOYSA-N

> <PUBCHEM_XLOGP3_AA>
0.7

> <PUBCHEM_EXACT_MASS>
249.068033

> <PUBCHEM_MOLECULAR_FORMULA>
C9H13ClFN3O2

> <PUBCHEM_MOLECULAR_WEIGHT>
249.669823

> <PUBCHEM_OPENEYE_CAN_SMILES>
CC1=C(C(=O)NC(=O)N1)N(CCF)CCCl

> <PUBCHEM_OPENEYE_ISO_SMILES>
CC1=C(C(=O)NC(=O)N1)N(CCF)CCCl

> <PUBCHEM_CACTVS_TPSA>
61.4

> <PUBCHEM_MONOISOTOPIC_WEIGHT>
249.068033

> <PUBCHEM_TOTAL_CHARGE>
0

> <PUBCHEM_HEAVY_ATOM_COUNT>
16

> <PUBCHEM_ATOM_DEF_STEREO_COUNT>
0

> <PUBCHEM_ATOM_UDEF_STEREO_COUNT>
0

> <PUBCHEM_BOND_DEF_STEREO_COUNT>
0

> <PUBCHEM_BOND_UDEF_STEREO_COUNT>
0

> <PUBCHEM_ISOTOPIC_ATOM_COUNT>
0

> <PUBCHEM_COMPONENT_COUNT>
1

> <PUBCHEM_CACTVS_TAUTO_COUNT>
17

> <PUBCHEM_COORDINATE_TYPE>
1
5
255

> <PUBCHEM_BONDANNOTATIONS>
6  11  8
6  16  8
7  12  8
7  16  8
8  11  8
8  12  8

$$$$

