10090
  -OEChem-06261204182D

 47 48  0     0  0  0  0  0  0999 V2000
    6.5000    0.8660    0.0000 O   0  0  0  0  0  0  0  0  0  0  0  0
    2.5000    0.8660    0.0000 N   0  0  0  0  0  0  0  0  0  0  0  0
    5.0000    0.0000    0.0000 C   0  0  0  0  0  0  0  0  0  0  0  0
    4.0000    0.0000    0.0000 C   0  0  0  0  0  0  0  0  0  0  0  0
    5.0000   -1.0000    0.0000 C   0  0  0  0  0  0  0  0  0  0  0  0
    5.0000    1.0000    0.0000 C   0  0  0  0  0  0  0  0  0  0  0  0
    3.5000    0.8660    0.0000 C   0  0  0  0  0  0  0  0  0  0  0  0
    6.0000    0.0000    0.0000 C   0  0  0  0  0  0  0  0  0  0  0  0
    6.5000   -0.8660    0.0000 C   0  0  0  0  0  0  0  0  0  0  0  0
    4.1340   -1.5000    0.0000 C   0  0  0  0  0  0  0  0  0  0  0  0
    5.8660    1.5000    0.0000 C   0  0  0  0  0  0  0  0  0  0  0  0
    5.8660   -1.5000    0.0000 C   0  0  0  0  0  0  0  0  0  0  0  0
    4.1340    1.5000    0.0000 C   0  0  0  0  0  0  0  0  0  0  0  0
    7.5000   -0.8660    0.0000 C   0  0  0  0  0  0  0  0  0  0  0  0
    2.0000    1.7320    0.0000 C   0  0  0  0  0  0  0  0  0  0  0  0
    2.0000    0.0000    0.0000 C   0  0  0  0  0  0  0  0  0  0  0  0
    4.1340   -2.5000    0.0000 C   0  0  0  0  0  0  0  0  0  0  0  0
    5.8660    2.5000    0.0000 C   0  0  0  0  0  0  0  0  0  0  0  0
    5.8660   -2.5000    0.0000 C   0  0  0  0  0  0  0  0  0  0  0  0
    4.1340    2.5000    0.0000 C   0  0  0  0  0  0  0  0  0  0  0  0
    5.0000   -3.0000    0.0000 C   0  0  0  0  0  0  0  0  0  0  0  0
    5.0000    3.0000    0.0000 C   0  0  0  0  0  0  0  0  0  0  0  0
    3.4174   -0.2121    0.0000 H   0  0  0  0  0  0  0  0  0  0  0  0
    4.1077   -0.6106    0.0000 H   0  0  0  0  0  0  0  0  0  0  0  0
    4.0826    1.0781    0.0000 H   0  0  0  0  0  0  0  0  0  0  0  0
    3.3923    1.4766    0.0000 H   0  0  0  0  0  0  0  0  0  0  0  0
    5.9174   -1.0781    0.0000 H   0  0  0  0  0  0  0  0  0  0  0  0
    6.6077   -1.4766    0.0000 H   0  0  0  0  0  0  0  0  0  0  0  0
    6.4030    1.1900    0.0000 H   0  0  0  0  0  0  0  0  0  0  0  0
    3.5970   -1.1900    0.0000 H   0  0  0  0  0  0  0  0  0  0  0  0
    3.5970    1.1900    0.0000 H   0  0  0  0  0  0  0  0  0  0  0  0
    6.4030   -1.1900    0.0000 H   0  0  0  0  0  0  0  0  0  0  0  0
    7.5000   -1.4860    0.0000 H   0  0  0  0  0  0  0  0  0  0  0  0
    8.1200   -0.8660    0.0000 H   0  0  0  0  0  0  0  0  0  0  0  0
    7.5000   -0.2460    0.0000 H   0  0  0  0  0  0  0  0  0  0  0  0
    2.5369    2.0420    0.0000 H   0  0  0  0  0  0  0  0  0  0  0  0
    1.6900    2.2690    0.0000 H   0  0  0  0  0  0  0  0  0  0  0  0
    1.4631    1.4220    0.0000 H   0  0  0  0  0  0  0  0  0  0  0  0
    1.4631    0.3100    0.0000 H   0  0  0  0  0  0  0  0  0  0  0  0
    1.6900   -0.5369    0.0000 H   0  0  0  0  0  0  0  0  0  0  0  0
    2.5369   -0.3100    0.0000 H   0  0  0  0  0  0  0  0  0  0  0  0
    3.5970   -2.8100    0.0000 H   0  0  0  0  0  0  0  0  0  0  0  0
    6.4030    2.8100    0.0000 H   0  0  0  0  0  0  0  0  0  0  0  0
    6.4030   -2.8100    0.0000 H   0  0  0  0  0  0  0  0  0  0  0  0
    3.5970    2.8100    0.0000 H   0  0  0  0  0  0  0  0  0  0  0  0
    5.0000   -3.6200    0.0000 H   0  0  0  0  0  0  0  0  0  0  0  0
    5.0000    3.6200    0.0000 H   0  0  0  0  0  0  0  0  0  0  0  0
  1  8  2  0  0  0  0
  2  7  1  0  0  0  0
  2 15  1  0  0  0  0
  2 16  1  0  0  0  0
  3  4  1  0  0  0  0
  3  5  1  0  0  0  0
  3  6  1  0  0  0  0
  3  8  1  0  0  0  0
  4  7  1  0  0  0  0
  4 23  1  0  0  0  0
  4 24  1  0  0  0  0
  5 10  2  0  0  0  0
  5 12  1  0  0  0  0
  6 11  2  0  0  0  0
  6 13  1  0  0  0  0
  7 25  1  0  0  0  0
  7 26  1  0  0  0  0
  8  9  1  0  0  0  0
  9 14  1  0  0  0  0
  9 27  1  0  0  0  0
  9 28  1  0  0  0  0
 10 17  1  0  0  0  0
 10 30  1  0  0  0  0
 11 18  1  0  0  0  0
 11 29  1  0  0  0  0
 12 19  2  0  0  0  0
 12 32  1  0  0  0  0
 13 20  2  0  0  0  0
 13 31  1  0  0  0  0
 14 33  1  0  0  0  0
 14 34  1  0  0  0  0
 14 35  1  0  0  0  0
 15 36  1  0  0  0  0
 15 37  1  0  0  0  0
 15 38  1  0  0  0  0
 16 39  1  0  0  0  0
 16 40  1  0  0  0  0
 16 41  1  0  0  0  0
 17 21  2  0  0  0  0
 17 42  1  0  0  0  0
 18 22  2  0  0  0  0
 18 43  1  0  0  0  0
 19 21  1  0  0  0  0
 19 44  1  0  0  0  0
 20 22  1  0  0  0  0
 20 45  1  0  0  0  0
 21 46  1  0  0  0  0
 22 47  1  0  0  0  0
M  END
> <PUBCHEM_COMPOUND_CID>
10090

> <PUBCHEM_COMPOUND_CANONICALIZED>
1

> <PUBCHEM_CACTVS_COMPLEXITY>
320

> <PUBCHEM_CACTVS_HBOND_ACCEPTOR>
2

> <PUBCHEM_CACTVS_HBOND_DONOR>
0

> <PUBCHEM_CACTVS_ROTATABLE_BOND>
7

> <PUBCHEM_CACTVS_SUBSKEYS>
AAADceB6IAAAAAAAAAAAAAAAAAAAAAAAAAAwYAAAAAAAAAABQAAAHgAAAAAADgTBmAQyAIMAAACIAqBSAAACAAAgAAAIiAEIAIgIIDKAlRCEIAAggAAIiAcciMCPgAAAAAAAAAAAAAAAAAAAAAAAAAAAAA==

> <PUBCHEM_IUPAC_OPENEYE_NAME>
6-(dimethylamino)-4,4-diphenyl-hexan-3-one

> <PUBCHEM_IUPAC_CAS_NAME>
6-(dimethylamino)-4,4-diphenyl-3-hexanone

> <PUBCHEM_IUPAC_NAME>
6-(dimethylamino)-4,4-diphenylhexan-3-one

> <PUBCHEM_IUPAC_SYSTEMATIC_NAME>
6-(dimethylamino)-4,4-diphenyl-hexan-3-one

> <PUBCHEM_IUPAC_TRADITIONAL_NAME>
6-(dimethylamino)-4,4-diphenyl-hexan-3-one

> <PUBCHEM_IUPAC_INCHI>
InChI=1S/C20H25NO/c1-4-19(22)20(15-16-21(2)3,17-11-7-5-8-12-17)18-13-9-6-10-14-18/h5-14H,4,15-16H2,1-3H3

> <PUBCHEM_IUPAC_INCHIKEY>
WCJFBSYALHQBSK-UHFFFAOYSA-N

> <PUBCHEM_XLOGP3>
3.5

> <PUBCHEM_EXACT_MASS>
295.193614

> <PUBCHEM_MOLECULAR_FORMULA>
C20H25NO

> <PUBCHEM_MOLECULAR_WEIGHT>
295.4186

> <PUBCHEM_OPENEYE_CAN_SMILES>
CCC(=O)C(CCN(C)C)(C1=CC=CC=C1)C2=CC=CC=C2

> <PUBCHEM_OPENEYE_ISO_SMILES>
CCC(=O)C(CCN(C)C)(C1=CC=CC=C1)C2=CC=CC=C2

> <PUBCHEM_CACTVS_TPSA>
20.3

> <PUBCHEM_MONOISOTOPIC_WEIGHT>
295.193614

> <PUBCHEM_TOTAL_CHARGE>
0

> <PUBCHEM_HEAVY_ATOM_COUNT>
22

> <PUBCHEM_ATOM_DEF_STEREO_COUNT>
0

> <PUBCHEM_ATOM_UDEF_STEREO_COUNT>
0

> <PUBCHEM_BOND_DEF_STEREO_COUNT>
0

> <PUBCHEM_BOND_UDEF_STEREO_COUNT>
0

> <PUBCHEM_ISOTOPIC_ATOM_COUNT>
0

> <PUBCHEM_COMPONENT_COUNT>
1

> <PUBCHEM_CACTVS_TAUTO_COUNT>
2

> <PUBCHEM_COORDINATE_TYPE>
1
5
255

> <PUBCHEM_BONDANNOTATIONS>
10  17  8
11  18  8
12  19  8
13  20  8
17  21  8
18  22  8
19  21  8
20  22  8
5  10  8
5  12  8
6  11  8
6  13  8

$$$$

