17396055
  -OEChem-06241222542D

 44 46  0     1  0  0  0  0  0999 V2000
    5.4381    0.6374    0.0000 S   0  0  0  0  0  0  0  0  0  0  0  0
    3.5827    4.1194    0.0000 S   0  0  0  0  0  0  0  0  0  0  0  0
    7.1702   -0.3626    0.0000 O   0  0  0  0  0  0  0  0  0  0  0  0
    7.1702   -2.3626    0.0000 N   0  0  3  0  0  0  0  0  0  0  0  0
    4.4676    2.1319    0.0000 N   0  0  0  0  0  0  0  0  0  0  0  0
    3.6585    0.7307    0.0000 N   0  0  0  0  0  0  0  0  0  0  0  0
    2.9894    1.4738    0.0000 N   0  0  0  0  0  0  0  0  0  0  0  0
    6.3041   -1.8626    0.0000 C   0  0  0  0  0  0  0  0  0  0  0  0
    6.3041   -0.8626    0.0000 C   0  0  3  0  0  0  0  0  0  0  0  0
    7.1702   -3.3626    0.0000 C   0  0  0  0  0  0  0  0  0  0  0  0
    8.0362   -1.8626    0.0000 C   0  0  0  0  0  0  0  0  0  0  0  0
    8.0362   -3.8626    0.0000 C   0  0  0  0  0  0  0  0  0  0  0  0
    8.0362   -0.8626    0.0000 C   0  0  0  0  0  0  0  0  0  0  0  0
    5.4381   -0.3626    0.0000 C   0  0  0  0  0  0  0  0  0  0  0  0
    8.0362   -4.8626    0.0000 C   0  0  0  0  0  0  0  0  0  0  0  0
    8.9022   -3.3626    0.0000 C   0  0  0  0  0  0  0  0  0  0  0  0
    4.5721    1.1374    0.0000 C   0  0  0  0  0  0  0  0  0  0  0  0
    3.4894    2.3399    0.0000 C   0  0  0  0  0  0  0  0  0  0  0  0
    3.0827    3.2534    0.0000 C   0  0  0  0  0  0  0  0  0  0  0  0
    2.1045    3.4613    0.0000 C   0  0  0  0  0  0  0  0  0  0  0  0
    2.0000    4.4558    0.0000 C   0  0  0  0  0  0  0  0  0  0  0  0
    2.9136    4.8626    0.0000 C   0  0  0  0  0  0  0  0  0  0  0  0
    5.6936   -1.7549    0.0000 H   0  0  0  0  0  0  0  0  0  0  0  0
    6.0921   -2.4452    0.0000 H   0  0  0  0  0  0  0  0  0  0  0  0
    6.3041   -0.2426    0.0000 H   0  0  0  0  0  0  0  0  0  0  0  0
    6.5596   -3.2549    0.0000 H   0  0  0  0  0  0  0  0  0  0  0  0
    6.9581   -3.9452    0.0000 H   0  0  0  0  0  0  0  0  0  0  0  0
    8.2482   -2.4452    0.0000 H   0  0  0  0  0  0  0  0  0  0  0  0
    8.6468   -1.7549    0.0000 H   0  0  0  0  0  0  0  0  0  0  0  0
    7.4992   -4.1726    0.0000 H   0  0  0  0  0  0  0  0  0  0  0  0
    8.6468   -0.9702    0.0000 H   0  0  0  0  0  0  0  0  0  0  0  0
    8.2482   -0.2800    0.0000 H   0  0  0  0  0  0  0  0  0  0  0  0
    4.8275   -0.2549    0.0000 H   0  0  0  0  0  0  0  0  0  0  0  0
    5.2261   -0.9452    0.0000 H   0  0  0  0  0  0  0  0  0  0  0  0
    9.2122   -3.8995    0.0000 H   0  0  0  0  0  0  0  0  0  0  0  0
    7.4162   -4.8626    0.0000 H   0  0  0  0  0  0  0  0  0  0  0  0
    8.0362   -5.4826    0.0000 H   0  0  0  0  0  0  0  0  0  0  0  0
    8.6562   -4.8626    0.0000 H   0  0  0  0  0  0  0  0  0  0  0  0
    9.4392   -3.0526    0.0000 H   0  0  0  0  0  0  0  0  0  0  0  0
    8.5922   -2.8256    0.0000 H   0  0  0  0  0  0  0  0  0  0  0  0
    2.3728    1.4090    0.0000 H   0  0  0  0  0  0  0  0  0  0  0  0
    1.6438    3.0465    0.0000 H   0  0  0  0  0  0  0  0  0  0  0  0
    1.4631    4.7658    0.0000 H   0  0  0  0  0  0  0  0  0  0  0  0
    3.0424    5.4690    0.0000 H   0  0  0  0  0  0  0  0  0  0  0  0
  1 14  1  0  0  0  0
  1 17  1  0  0  0  0
  2 19  1  0  0  0  0
  2 22  1  0  0  0  0
  3  9  1  0  0  0  0
  3 13  1  0  0  0  0
  4  8  1  0  0  0  0
  4 10  1  0  0  0  0
  4 11  1  0  0  0  0
  5 17  1  0  0  0  0
  5 18  2  0  0  0  0
  6  7  1  0  0  0  0
  6 17  2  0  0  0  0
  7 18  1  0  0  0  0
  7 41  1  0  0  0  0
  8  9  1  0  0  0  0
  8 23  1  0  0  0  0
  8 24  1  0  0  0  0
  9 14  1  0  0  0  0
  9 25  1  0  0  0  0
 10 12  1  0  0  0  0
 10 26  1  0  0  0  0
 10 27  1  0  0  0  0
 11 13  1  0  0  0  0
 11 28  1  0  0  0  0
 11 29  1  0  0  0  0
 12 15  1  0  0  0  0
 12 16  1  0  0  0  0
 12 30  1  0  0  0  0
 13 31  1  0  0  0  0
 13 32  1  0  0  0  0
 14 33  1  0  0  0  0
 14 34  1  0  0  0  0
 15 36  1  0  0  0  0
 15 37  1  0  0  0  0
 15 38  1  0  0  0  0
 16 35  1  0  0  0  0
 16 39  1  0  0  0  0
 16 40  1  0  0  0  0
 18 19  1  0  0  0  0
 19 20  2  0  0  0  0
 20 21  1  0  0  0  0
 20 42  1  0  0  0  0
 21 22  2  0  0  0  0
 21 43  1  0  0  0  0
 22 44  1  0  0  0  0
M  END
> <PUBCHEM_COMPOUND_CID>
17396055

> <PUBCHEM_COMPOUND_CANONICALIZED>
1

> <PUBCHEM_CACTVS_COMPLEXITY>
348

> <PUBCHEM_CACTVS_HBOND_ACCEPTOR>
6

> <PUBCHEM_CACTVS_HBOND_DONOR>
1

> <PUBCHEM_CACTVS_ROTATABLE_BOND>
6

> <PUBCHEM_CACTVS_SUBSKEYS>
AAADceBzoABgAAAAAAAAAAAAAAAAAWJAAAAsAAAAAAAAAAAB4AAAHgQYAAAADRTl0wazEYdrFAimACJiJACT0IvgCLBdqDgoBJiKKKKgmRGHAAhgiAK4iAYQAAAAAAAAAAAAAAAAAAAAAAAAAAAAAAAAAA==

> <PUBCHEM_IUPAC_OPENEYE_NAME>
4-isobutyl-2-[[5-(2-thienyl)-1H-1,2,4-triazol-3-yl]sulfanylmethyl]morpholine

> <PUBCHEM_IUPAC_CAS_NAME>
4-(2-methylpropyl)-2-[[(5-thiophen-2-yl-1H-1,2,4-triazol-3-yl)thio]methyl]morpholine

> <PUBCHEM_IUPAC_NAME>
4-(2-methylpropyl)-2-[(5-thiophen-2-yl-1H-1,2,4-triazol-3-yl)sulfanylmethyl]morpholine

> <PUBCHEM_IUPAC_SYSTEMATIC_NAME>
4-(2-methylpropyl)-2-[(5-thiophen-2-yl-1H-1,2,4-triazol-3-yl)sulfanylmethyl]morpholine

> <PUBCHEM_IUPAC_TRADITIONAL_NAME>
4-isobutyl-2-[[[5-(2-thienyl)-1H-1,2,4-triazol-3-yl]thio]methyl]morpholine

> <PUBCHEM_IUPAC_INCHI>
InChI=1S/C15H22N4OS2/c1-11(2)8-19-5-6-20-12(9-19)10-22-15-16-14(17-18-15)13-4-3-7-21-13/h3-4,7,11-12H,5-6,8-10H2,1-2H3,(H,16,17,18)

> <PUBCHEM_IUPAC_INCHIKEY>
CAFJUYMSMZTYDL-UHFFFAOYSA-N

> <PUBCHEM_XLOGP3_AA>
3.3

> <PUBCHEM_EXACT_MASS>
338.123503

> <PUBCHEM_MOLECULAR_FORMULA>
C15H22N4OS2

> <PUBCHEM_MOLECULAR_WEIGHT>
338.49138

> <PUBCHEM_OPENEYE_CAN_SMILES>
CC(C)CN1CCOC(C1)CSC2=NNC(=N2)C3=CC=CS3

> <PUBCHEM_OPENEYE_ISO_SMILES>
CC(C)CN1CCOC(C1)CSC2=NNC(=N2)C3=CC=CS3

> <PUBCHEM_CACTVS_TPSA>
108

> <PUBCHEM_MONOISOTOPIC_WEIGHT>
338.123503

> <PUBCHEM_TOTAL_CHARGE>
0

> <PUBCHEM_HEAVY_ATOM_COUNT>
22

> <PUBCHEM_ATOM_DEF_STEREO_COUNT>
0

> <PUBCHEM_ATOM_UDEF_STEREO_COUNT>
1

> <PUBCHEM_BOND_DEF_STEREO_COUNT>
0

> <PUBCHEM_BOND_UDEF_STEREO_COUNT>
0

> <PUBCHEM_ISOTOPIC_ATOM_COUNT>
0

> <PUBCHEM_COMPONENT_COUNT>
1

> <PUBCHEM_CACTVS_TAUTO_COUNT>
3

> <PUBCHEM_COORDINATE_TYPE>
1
5
255

> <PUBCHEM_BONDANNOTATIONS>
19  20  8
2  19  8
2  22  8
20  21  8
21  22  8
5  17  8
5  18  8
6  17  8
6  7  8
7  18  8
9  14  3

$$$$

