3650
  -OEChem-06251223342D

 15 15  0     1  0  0  0  0  0999 V2000
    2.0000    0.8100    0.0000 F   0  0  0  0  0  0  0  0  0  0  0  0
    2.0000   -1.1900    0.0000 O   0  0  0  0  0  0  0  0  0  0  0  0
    3.7320    1.8100    0.0000 O   0  0  0  0  0  0  0  0  0  0  0  0
    5.4641   -1.1900    0.0000 O   0  0  0  0  0  0  0  0  0  0  0  0
    3.7320   -1.1900    0.0000 N   0  0  0  0  0  0  0  0  0  0  0  0
    4.5981    0.3100    0.0000 N   0  0  0  0  0  0  0  0  0  0  0  0
    2.8660   -0.6900    0.0000 C   0  0  3  0  0  0  0  0  0  0  0  0
    2.8660    0.3100    0.0000 C   0  0  3  0  0  0  0  0  0  0  0  0
    3.7320    0.8100    0.0000 C   0  0  0  0  0  0  0  0  0  0  0  0
    4.5981   -0.6900    0.0000 C   0  0  0  0  0  0  0  0  0  0  0  0
    2.1299   -0.2650    0.0000 H   0  0  0  0  0  0  0  0  0  0  0  0
    2.8660    1.1600    0.0000 H   0  0  0  0  0  0  0  0  0  0  0  0
    3.7320   -1.8100    0.0000 H   0  0  0  0  0  0  0  0  0  0  0  0
    5.1350    0.6200    0.0000 H   0  0  0  0  0  0  0  0  0  0  0  0
    2.0000   -1.8100    0.0000 H   0  0  0  0  0  0  0  0  0  0  0  0
  1  8  1  0  0  0  0
  2  7  1  0  0  0  0
  2 15  1  0  0  0  0
  3  9  2  0  0  0  0
  4 10  2  0  0  0  0
  5  7  1  0  0  0  0
  5 10  1  0  0  0  0
  5 13  1  0  0  0  0
  6  9  1  0  0  0  0
  6 10  1  0  0  0  0
  6 14  1  0  0  0  0
  7  8  1  0  0  0  0
  7 11  1  0  0  0  0
  8  9  1  0  0  0  0
  8 12  1  0  0  0  0
M  END
> <PUBCHEM_COMPOUND_CID>
3650

> <PUBCHEM_COMPOUND_CANONICALIZED>
1

> <PUBCHEM_CACTVS_COMPLEXITY>
183

> <PUBCHEM_CACTVS_HBOND_ACCEPTOR>
4

> <PUBCHEM_CACTVS_HBOND_DONOR>
3

> <PUBCHEM_CACTVS_ROTATABLE_BOND>
0

> <PUBCHEM_CACTVS_SUBSKEYS>
AAADcYBjMQAAAAAAAAAAAAAAAAAAAAAAAAAsAAAAAAAAAAAAAAAAHwAQCAAACADhgAYBAALAAgAIAAEQEAAAAAAAAAAAAIEIAAGAEAwAQAAEQAAKNyIAAAAAAAAAAAAAAAAAAAAAAAAAAAAAAAAAAAAAAA==

> <PUBCHEM_IUPAC_OPENEYE_NAME>
5-fluoro-6-hydroxy-hexahydropyrimidine-2,4-dione

> <PUBCHEM_IUPAC_CAS_NAME>
5-fluoro-6-hydroxy-1,3-diazinane-2,4-dione

> <PUBCHEM_IUPAC_NAME>
5-fluoro-6-hydroxy-1,3-diazinane-2,4-dione

> <PUBCHEM_IUPAC_SYSTEMATIC_NAME>
5-fluoranyl-6-oxidanyl-1,3-diazinane-2,4-dione

> <PUBCHEM_IUPAC_TRADITIONAL_NAME>
5-fluoro-6-hydroxy-5,6-dihydrouracil

> <PUBCHEM_IUPAC_INCHI>
InChI=1S/C4H5FN2O3/c5-1-2(8)6-4(10)7-3(1)9/h1-2,8H,(H2,6,7,9,10)

> <PUBCHEM_IUPAC_INCHIKEY>
AWONXBGDFDRWRH-UHFFFAOYSA-N

> <PUBCHEM_XLOGP3_AA>
-1.2

> <PUBCHEM_EXACT_MASS>
148.02842

> <PUBCHEM_MOLECULAR_FORMULA>
C4H5FN2O3

> <PUBCHEM_MOLECULAR_WEIGHT>
148.092503

> <PUBCHEM_OPENEYE_CAN_SMILES>
C1(C(NC(=O)NC1=O)O)F

> <PUBCHEM_OPENEYE_ISO_SMILES>
C1(C(NC(=O)NC1=O)O)F

> <PUBCHEM_CACTVS_TPSA>
78.4

> <PUBCHEM_MONOISOTOPIC_WEIGHT>
148.02842

> <PUBCHEM_TOTAL_CHARGE>
0

> <PUBCHEM_HEAVY_ATOM_COUNT>
10

> <PUBCHEM_ATOM_DEF_STEREO_COUNT>
0

> <PUBCHEM_ATOM_UDEF_STEREO_COUNT>
2

> <PUBCHEM_BOND_DEF_STEREO_COUNT>
0

> <PUBCHEM_BOND_UDEF_STEREO_COUNT>
0

> <PUBCHEM_ISOTOPIC_ATOM_COUNT>
0

> <PUBCHEM_COMPONENT_COUNT>
1

> <PUBCHEM_CACTVS_TAUTO_COUNT>
8

> <PUBCHEM_COORDINATE_TYPE>
1
5
255

> <PUBCHEM_BONDANNOTATIONS>
7  11  3
8  12  3

$$$$

