17395341
  -OEChem-06241222492D

 42 44  0     0  0  0  0  0  0999 V2000
    7.7619   -1.1300    0.0000 O   0  0  0  0  0  0  0  0  0  0  0  0
   12.2619   -1.9961    0.0000 O   0  0  0  0  0  0  0  0  0  0  0  0
    4.6783    2.2728    0.0000 N   0  0  0  0  0  0  0  0  0  0  0  0
    7.7619    0.6020    0.0000 N   0  0  0  0  0  0  0  0  0  0  0  0
    4.6783    0.6633    0.0000 N   0  0  0  0  0  0  0  0  0  0  0  0
    6.2619    1.4680    0.0000 C   0  0  0  0  0  0  0  0  0  0  0  0
    5.2619    1.4680    0.0000 C   0  0  0  0  0  0  0  0  0  0  0  0
    6.7619    0.6020    0.0000 C   0  0  0  0  0  0  0  0  0  0  0  0
    3.7320    1.9680    0.0000 C   0  0  0  0  0  0  0  0  0  0  0  0
    3.7320    0.9680    0.0000 C   0  0  0  0  0  0  0  0  0  0  0  0
    9.2619   -0.2640    0.0000 C   0  0  0  0  0  0  0  0  0  0  0  0
    8.2619   -0.2640    0.0000 C   0  0  0  0  0  0  0  0  0  0  0  0
    9.7619   -1.1300    0.0000 C   0  0  0  0  0  0  0  0  0  0  0  0
    2.8660    2.4680    0.0000 C   0  0  0  0  0  0  0  0  0  0  0  0
    2.8660    0.4680    0.0000 C   0  0  0  0  0  0  0  0  0  0  0  0
    2.0000    1.9680    0.0000 C   0  0  0  0  0  0  0  0  0  0  0  0
   10.7619   -1.1300    0.0000 C   0  0  0  0  0  0  0  0  0  0  0  0
    2.0000    0.9680    0.0000 C   0  0  0  0  0  0  0  0  0  0  0  0
    9.2619   -1.9961    0.0000 C   0  0  0  0  0  0  0  0  0  0  0  0
   11.2619   -1.9961    0.0000 C   0  0  0  0  0  0  0  0  0  0  0  0
    9.7619   -2.8621    0.0000 C   0  0  0  0  0  0  0  0  0  0  0  0
   10.7619   -2.8621    0.0000 C   0  0  0  0  0  0  0  0  0  0  0  0
   12.7619   -2.8621    0.0000 C   0  0  0  0  0  0  0  0  0  0  0  0
    6.8445    1.6801    0.0000 H   0  0  0  0  0  0  0  0  0  0  0  0
    6.1542    2.0786    0.0000 H   0  0  0  0  0  0  0  0  0  0  0  0
    6.1793    0.3900    0.0000 H   0  0  0  0  0  0  0  0  0  0  0  0
    6.8695   -0.0086    0.0000 H   0  0  0  0  0  0  0  0  0  0  0  0
    4.8709    2.8621    0.0000 H   0  0  0  0  0  0  0  0  0  0  0  0
    8.0719    1.1389    0.0000 H   0  0  0  0  0  0  0  0  0  0  0  0
    9.8445   -0.0520    0.0000 H   0  0  0  0  0  0  0  0  0  0  0  0
    9.1542    0.3466    0.0000 H   0  0  0  0  0  0  0  0  0  0  0  0
    2.8660    3.0880    0.0000 H   0  0  0  0  0  0  0  0  0  0  0  0
    2.8660   -0.1520    0.0000 H   0  0  0  0  0  0  0  0  0  0  0  0
    1.4631    2.2780    0.0000 H   0  0  0  0  0  0  0  0  0  0  0  0
   11.0719   -0.5931    0.0000 H   0  0  0  0  0  0  0  0  0  0  0  0
    1.4631    0.6580    0.0000 H   0  0  0  0  0  0  0  0  0  0  0  0
    8.6419   -1.9961    0.0000 H   0  0  0  0  0  0  0  0  0  0  0  0
    9.4519   -3.3990    0.0000 H   0  0  0  0  0  0  0  0  0  0  0  0
   11.0719   -3.3990    0.0000 H   0  0  0  0  0  0  0  0  0  0  0  0
   12.2249   -3.1721    0.0000 H   0  0  0  0  0  0  0  0  0  0  0  0
   13.0719   -3.3990    0.0000 H   0  0  0  0  0  0  0  0  0  0  0  0
   13.2988   -2.5521    0.0000 H   0  0  0  0  0  0  0  0  0  0  0  0
  1 12  2  0  0  0  0
  2 20  1  0  0  0  0
  2 23  1  0  0  0  0
  3  7  1  0  0  0  0
  3  9  1  0  0  0  0
  3 28  1  0  0  0  0
  4  8  1  0  0  0  0
  4 12  1  0  0  0  0
  4 29  1  0  0  0  0
  5  7  2  0  0  0  0
  5 10  1  0  0  0  0
  6  7  1  0  0  0  0
  6  8  1  0  0  0  0
  6 24  1  0  0  0  0
  6 25  1  0  0  0  0
  8 26  1  0  0  0  0
  8 27  1  0  0  0  0
  9 10  1  0  0  0  0
  9 14  2  0  0  0  0
 10 15  2  0  0  0  0
 11 12  1  0  0  0  0
 11 13  1  0  0  0  0
 11 30  1  0  0  0  0
 11 31  1  0  0  0  0
 13 17  2  0  0  0  0
 13 19  1  0  0  0  0
 14 16  1  0  0  0  0
 14 32  1  0  0  0  0
 15 18  1  0  0  0  0
 15 33  1  0  0  0  0
 16 18  2  0  0  0  0
 16 34  1  0  0  0  0
 17 20  1  0  0  0  0
 17 35  1  0  0  0  0
 18 36  1  0  0  0  0
 19 21  2  0  0  0  0
 19 37  1  0  0  0  0
 20 22  2  0  0  0  0
 21 22  1  0  0  0  0
 21 38  1  0  0  0  0
 22 39  1  0  0  0  0
 23 40  1  0  0  0  0
 23 41  1  0  0  0  0
 23 42  1  0  0  0  0
M  END
> <PUBCHEM_COMPOUND_CID>
17395341

> <PUBCHEM_COMPOUND_CANONICALIZED>
1

> <PUBCHEM_CACTVS_COMPLEXITY>
391

> <PUBCHEM_CACTVS_HBOND_ACCEPTOR>
3

> <PUBCHEM_CACTVS_HBOND_DONOR>
2

> <PUBCHEM_CACTVS_ROTATABLE_BOND>
6

> <PUBCHEM_CACTVS_SUBSKEYS>
AAADceB7MAAAAAAAAAAAAAAAAAAAAWAAAAAwYAAAAAAAAFgB9AAAHgAQAAAADAzBnwYz1rbJlACoAydydACCiC2hMqAJmaE+fJiMbrLE/ZuUMChs1hPI6CeY3LLOAAABAAAAACAAAAIAAAAAQAAAAAAAAA==

> <PUBCHEM_IUPAC_OPENEYE_NAME>
N-[2-(1H-benzimidazol-2-yl)ethyl]-2-(3-methoxyphenyl)acetamide

> <PUBCHEM_IUPAC_CAS_NAME>
N-[2-(1H-benzimidazol-2-yl)ethyl]-2-(3-methoxyphenyl)acetamide

> <PUBCHEM_IUPAC_NAME>
N-[2-(1H-benzimidazol-2-yl)ethyl]-2-(3-methoxyphenyl)acetamide

> <PUBCHEM_IUPAC_SYSTEMATIC_NAME>
N-[2-(1H-benzimidazol-2-yl)ethyl]-2-(3-methoxyphenyl)ethanamide

> <PUBCHEM_IUPAC_TRADITIONAL_NAME>
N-[2-(1H-benzimidazol-2-yl)ethyl]-2-(3-methoxyphenyl)acetamide

> <PUBCHEM_IUPAC_INCHI>
InChI=1S/C18H19N3O2/c1-23-14-6-4-5-13(11-14)12-18(22)19-10-9-17-20-15-7-2-3-8-16(15)21-17/h2-8,11H,9-10,12H2,1H3,(H,19,22)(H,20,21)

> <PUBCHEM_IUPAC_INCHIKEY>
NDGHYVULTPXKRX-UHFFFAOYSA-N

> <PUBCHEM_XLOGP3_AA>
2.7

> <PUBCHEM_EXACT_MASS>
309.147727

> <PUBCHEM_MOLECULAR_FORMULA>
C18H19N3O2

> <PUBCHEM_MOLECULAR_WEIGHT>
309.36236

> <PUBCHEM_OPENEYE_CAN_SMILES>
COC1=CC=CC(=C1)CC(=O)NCCC2=NC3=CC=CC=C3N2

> <PUBCHEM_OPENEYE_ISO_SMILES>
COC1=CC=CC(=C1)CC(=O)NCCC2=NC3=CC=CC=C3N2

> <PUBCHEM_CACTVS_TPSA>
67

> <PUBCHEM_MONOISOTOPIC_WEIGHT>
309.147727

> <PUBCHEM_TOTAL_CHARGE>
0

> <PUBCHEM_HEAVY_ATOM_COUNT>
23

> <PUBCHEM_ATOM_DEF_STEREO_COUNT>
0

> <PUBCHEM_ATOM_UDEF_STEREO_COUNT>
0

> <PUBCHEM_BOND_DEF_STEREO_COUNT>
0

> <PUBCHEM_BOND_UDEF_STEREO_COUNT>
0

> <PUBCHEM_ISOTOPIC_ATOM_COUNT>
0

> <PUBCHEM_COMPONENT_COUNT>
1

> <PUBCHEM_CACTVS_TAUTO_COUNT>
4

> <PUBCHEM_COORDINATE_TYPE>
1
5
255

> <PUBCHEM_BONDANNOTATIONS>
10  15  8
13  17  8
13  19  8
14  16  8
15  18  8
16  18  8
17  20  8
19  21  8
20  22  8
21  22  8
3  7  8
3  9  8
5  10  8
5  7  8
9  10  8
9  14  8

$$$$

