9240
  -OEChem-06261203322D

 24 25  0     0  0  0  0  0  0999 V2000
    2.5369   -1.3721    0.0000 N   0  0  0  0  0  0  0  0  0  0  0  0
    4.9856   -0.5357    0.0000 C   0  0  0  0  0  0  0  0  0  0  0  0
    5.2445    0.4302    0.0000 C   0  0  0  0  0  0  0  0  0  0  0  0
    4.0078    1.2789    0.0000 C   0  0  0  0  0  0  0  0  0  0  0  0
    6.8176   -1.2945    0.0000 C   0  0  0  0  0  0  0  0  0  0  0  0
    4.8739    1.7789    0.0000 C   0  0  0  0  0  0  0  0  0  0  0  0
    7.0764   -0.3286    0.0000 C   0  0  0  0  0  0  0  0  0  0  0  0
    3.4505   -1.7789    0.0000 C   0  0  0  0  0  0  0  0  0  0  0  0
    2.6415   -0.3776    0.0000 C   0  0  0  0  0  0  0  0  0  0  0  0
    5.0746   -1.1493    0.0000 H   0  0  0  0  0  0  0  0  0  0  0  0
    5.2160   -0.1891    0.0000 H   0  0  0  0  0  0  0  0  0  0  0  0
    5.4556    1.9934    0.0000 H   0  0  0  0  0  0  0  0  0  0  0  0
    4.6106    2.3402    0.0000 H   0  0  0  0  0  0  0  0  0  0  0  0
    7.6677   -0.5150    0.0000 H   0  0  0  0  0  0  0  0  0  0  0  0
    7.2885    0.2540    0.0000 H   0  0  0  0  0  0  0  0  0  0  0  0
    6.6055   -1.8771    0.0000 H   0  0  0  0  0  0  0  0  0  0  0  0
    7.4089   -1.4810    0.0000 H   0  0  0  0  0  0  0  0  0  0  0  0
    3.7031    1.8188    0.0000 H   0  0  0  0  0  0  0  0  0  0  0  0
    3.4649    0.9794    0.0000 H   0  0  0  0  0  0  0  0  0  0  0  0
    2.5392    0.2339    0.0000 H   0  0  0  0  0  0  0  0  0  0  0  0
    2.0218   -0.3965    0.0000 H   0  0  0  0  0  0  0  0  0  0  0  0
    3.1128   -2.2988    0.0000 H   0  0  0  0  0  0  0  0  0  0  0  0
    3.9112   -2.1937    0.0000 H   0  0  0  0  0  0  0  0  0  0  0  0
    2.0000   -1.6821    0.0000 H   0  0  0  0  0  0  0  0  0  0  0  0
  1  8  1  0  0  0  0
  1  9  1  0  0  0  0
  1 24  1  0  0  0  0
  2  4  1  0  0  0  0
  2  5  1  0  0  0  0
  2  8  1  0  0  0  0
  2 10  1  0  0  0  0
  3  6  1  0  0  0  0
  3  7  1  0  0  0  0
  3  9  1  0  0  0  0
  3 11  1  0  0  0  0
  4  6  1  0  0  0  0
  4 18  1  0  0  0  0
  4 19  1  0  0  0  0
  5  7  1  0  0  0  0
  5 16  1  0  0  0  0
  5 17  1  0  0  0  0
  6 12  1  0  0  0  0
  6 13  1  0  0  0  0
  7 14  1  0  0  0  0
  7 15  1  0  0  0  0
  8 22  1  0  0  0  0
  8 23  1  0  0  0  0
  9 20  1  0  0  0  0
  9 21  1  0  0  0  0
M  END
> <PUBCHEM_COMPOUND_CID>
9240

> <PUBCHEM_COMPOUND_CANONICALIZED>
1

> <PUBCHEM_CACTVS_COMPLEXITY>
80.7

> <PUBCHEM_CACTVS_HBOND_ACCEPTOR>
1

> <PUBCHEM_CACTVS_HBOND_DONOR>
1

> <PUBCHEM_CACTVS_ROTATABLE_BOND>
0

> <PUBCHEM_CACTVS_SUBSKEYS>
AAADccByAAAAAAAAAAAAAAAAAAAAAAAAAAAwAAAABYsAAAAAAAAAHAAQAAAADQDBAAQAAALAAAAAAAAAAAAAAAAAAAAAAIAIAAAAAAIAgAAEAAAAEACAAAEQgAAOAAAAAAAAAACAAAAAAAAAAAAAAAAAAA==

> <PUBCHEM_IUPAC_OPENEYE_NAME>
3-azabicyclo[3.2.2]nonane

> <PUBCHEM_IUPAC_CAS_NAME>
3-azabicyclo[3.2.2]nonane

> <PUBCHEM_IUPAC_NAME>
3-azabicyclo[3.2.2]nonane

> <PUBCHEM_IUPAC_SYSTEMATIC_NAME>
3-azabicyclo[3.2.2]nonane

> <PUBCHEM_IUPAC_TRADITIONAL_NAME>
3-azabicyclo[3.2.2]nonane

> <PUBCHEM_IUPAC_INCHI>
InChI=1S/C8H15N/c1-2-8-4-3-7(1)5-9-6-8/h7-9H,1-6H2

> <PUBCHEM_IUPAC_INCHIKEY>
LICHZOBEUWVYSY-UHFFFAOYSA-N

> <PUBCHEM_XLOGP3_AA>
1.3

> <PUBCHEM_EXACT_MASS>
125.120449

> <PUBCHEM_MOLECULAR_FORMULA>
C8H15N

> <PUBCHEM_MOLECULAR_WEIGHT>
125.2114

> <PUBCHEM_OPENEYE_CAN_SMILES>
C1CC2CCC1CNC2

> <PUBCHEM_OPENEYE_ISO_SMILES>
C1CC2CCC1CNC2

> <PUBCHEM_CACTVS_TPSA>
12

> <PUBCHEM_MONOISOTOPIC_WEIGHT>
125.120449

> <PUBCHEM_TOTAL_CHARGE>
0

> <PUBCHEM_HEAVY_ATOM_COUNT>
9

> <PUBCHEM_ATOM_DEF_STEREO_COUNT>
0

> <PUBCHEM_ATOM_UDEF_STEREO_COUNT>
0

> <PUBCHEM_BOND_DEF_STEREO_COUNT>
0

> <PUBCHEM_BOND_UDEF_STEREO_COUNT>
0

> <PUBCHEM_ISOTOPIC_ATOM_COUNT>
0

> <PUBCHEM_COMPONENT_COUNT>
1

> <PUBCHEM_CACTVS_TAUTO_COUNT>
1

> <PUBCHEM_COORDINATE_TYPE>
1
5
255

$$$$

