583304
  -OEChem-06241222452D

 40 42  0     0  0  0  0  0  0999 V2000
    7.1962   -1.2673    0.0000 S   0  0  0  0  0  0  0  0  0  0  0  0
    8.0622    0.2327    0.0000 N   0  0  0  0  0  0  0  0  0  0  0  0
    6.3301    0.2327    0.0000 N   0  0  0  0  0  0  0  0  0  0  0  0
    5.4641   -0.2673    0.0000 N   0  0  0  0  0  0  0  0  0  0  0  0
    2.8660    0.2327    0.0000 N   0  0  0  0  0  0  0  0  0  0  0  0
    8.9282    1.7327    0.0000 C   0  0  0  0  0  0  0  0  0  0  0  0
    8.0622    1.2327    0.0000 C   0  0  0  0  0  0  0  0  0  0  0  0
    8.9282   -0.2673    0.0000 C   0  0  0  0  0  0  0  0  0  0  0  0
    9.7942    1.2327    0.0000 C   0  0  0  0  0  0  0  0  0  0  0  0
    9.7942    0.2327    0.0000 C   0  0  0  0  0  0  0  0  0  0  0  0
   10.6882    1.7673    0.0000 C   0  0  0  0  0  0  0  0  0  0  0  0
   10.6882   -0.3020    0.0000 C   0  0  0  0  0  0  0  0  0  0  0  0
    7.1962   -0.2673    0.0000 C   0  0  0  0  0  0  0  0  0  0  0  0
   11.5942    1.2535    0.0000 C   0  0  0  0  0  0  0  0  0  0  0  0
   11.5942    0.2119    0.0000 C   0  0  0  0  0  0  0  0  0  0  0  0
    4.5981    0.2327    0.0000 C   0  0  0  0  0  0  0  0  0  0  0  0
    3.7321   -0.2673    0.0000 C   0  0  0  0  0  0  0  0  0  0  0  0
    4.5981    1.2327    0.0000 C   0  0  0  0  0  0  0  0  0  0  0  0
    3.7321   -1.2673    0.0000 C   0  0  0  0  0  0  0  0  0  0  0  0
    2.8660   -1.7673    0.0000 C   0  0  0  0  0  0  0  0  0  0  0  0
    2.0000   -1.2673    0.0000 C   0  0  0  0  0  0  0  0  0  0  0  0
    2.0000   -0.2673    0.0000 C   0  0  0  0  0  0  0  0  0  0  0  0
    9.3267    2.2076    0.0000 H   0  0  0  0  0  0  0  0  0  0  0  0
    8.5297    2.2076    0.0000 H   0  0  0  0  0  0  0  0  0  0  0  0
    7.8501    1.8153    0.0000 H   0  0  0  0  0  0  0  0  0  0  0  0
    7.4516    1.1250    0.0000 H   0  0  0  0  0  0  0  0  0  0  0  0
    8.5297   -0.7423    0.0000 H   0  0  0  0  0  0  0  0  0  0  0  0
    9.3267   -0.7423    0.0000 H   0  0  0  0  0  0  0  0  0  0  0  0
   10.6810    2.3873    0.0000 H   0  0  0  0  0  0  0  0  0  0  0  0
   10.6810   -0.9220    0.0000 H   0  0  0  0  0  0  0  0  0  0  0  0
   12.1300    1.5656    0.0000 H   0  0  0  0  0  0  0  0  0  0  0  0
   12.1300   -0.1002    0.0000 H   0  0  0  0  0  0  0  0  0  0  0  0
    6.6592   -1.5773    0.0000 H   0  0  0  0  0  0  0  0  0  0  0  0
    5.2181    1.2327    0.0000 H   0  0  0  0  0  0  0  0  0  0  0  0
    3.9781    1.2327    0.0000 H   0  0  0  0  0  0  0  0  0  0  0  0
    4.5981    1.8527    0.0000 H   0  0  0  0  0  0  0  0  0  0  0  0
    4.2690   -1.5773    0.0000 H   0  0  0  0  0  0  0  0  0  0  0  0
    2.8660   -2.3873    0.0000 H   0  0  0  0  0  0  0  0  0  0  0  0
    1.4631   -1.5773    0.0000 H   0  0  0  0  0  0  0  0  0  0  0  0
    1.4631    0.0427    0.0000 H   0  0  0  0  0  0  0  0  0  0  0  0
  1 13  1  0  0  0  0
  1 33  1  0  0  0  0
  2  7  1  0  0  0  0
  2  8  1  0  0  0  0
  2 13  1  0  0  0  0
  3  4  1  0  0  0  0
  3 13  2  3  0  0  0
  4 16  2  3  0  0  0
  5 17  1  0  0  0  0
  5 22  2  0  0  0  0
  6  7  1  0  0  0  0
  6  9  1  0  0  0  0
  6 23  1  0  0  0  0
  6 24  1  0  0  0  0
  7 25  1  0  0  0  0
  7 26  1  0  0  0  0
  8 10  1  0  0  0  0
  8 27  1  0  0  0  0
  8 28  1  0  0  0  0
  9 10  1  0  0  0  0
  9 11  2  0  0  0  0
 10 12  2  0  0  0  0
 11 14  1  0  0  0  0
 11 29  1  0  0  0  0
 12 15  1  0  0  0  0
 12 30  1  0  0  0  0
 14 15  2  0  0  0  0
 14 31  1  0  0  0  0
 15 32  1  0  0  0  0
 16 17  1  0  0  0  0
 16 18  1  0  0  0  0
 17 19  2  0  0  0  0
 18 34  1  0  0  0  0
 18 35  1  0  0  0  0
 18 36  1  0  0  0  0
 19 20  1  0  0  0  0
 19 37  1  0  0  0  0
 20 21  2  0  0  0  0
 20 38  1  0  0  0  0
 21 22  1  0  0  0  0
 21 39  1  0  0  0  0
 22 40  1  0  0  0  0
M  END
> <PUBCHEM_COMPOUND_CID>
583304

> <PUBCHEM_COMPOUND_CANONICALIZED>
1

> <PUBCHEM_CACTVS_COMPLEXITY>
434

> <PUBCHEM_CACTVS_HBOND_ACCEPTOR>
4

> <PUBCHEM_CACTVS_HBOND_DONOR>
1

> <PUBCHEM_CACTVS_ROTATABLE_BOND>
3

> <PUBCHEM_CACTVS_SUBSKEYS>
AAADceB7gABAAAAAAAAAAAAAAAAAAAAAAAA8WIAAAAAAAACxwAAAHAQIAAAADAjBHgQ/gJMIEASgAzRnZACCgCAxAiAJ2CA4ZJgIIOLAmZGEIAhggADIyAcQgIAOgAAAAAAQAAAAAAAAACAAAAAAAAAAAA==

> <PUBCHEM_IUPAC_OPENEYE_NAME>
N-[1-(2-pyridyl)ethylidene]-3,4-dihydro-1H-isoquinoline-2-carbohydrazonothioic acid

> <PUBCHEM_IUPAC_CAS_NAME>
N-[1-(2-pyridinyl)ethylidene]-3,4-dihydro-1H-isoquinoline-2-carbohydrazonothioic acid

> <PUBCHEM_IUPAC_NAME>
N-(1-pyridin-2-ylethylidene)-3,4-dihydro-1H-isoquinoline-2-carbohydrazonothioic acid

> <PUBCHEM_IUPAC_SYSTEMATIC_NAME>
N-(1-pyridin-2-ylethylidene)-3,4-dihydro-1H-isoquinoline-2-carbohydrazonothioic acid

> <PUBCHEM_IUPAC_TRADITIONAL_NAME>
N-[1-(2-pyridyl)ethylidene]-3,4-dihydro-1H-isoquinoline-2-carbohydrazonothioic acid

> <PUBCHEM_IUPAC_INCHI>
InChI=1S/C17H18N4S/c1-13(16-8-4-5-10-18-16)19-20-17(22)21-11-9-14-6-2-3-7-15(14)12-21/h2-8,10H,9,11-12H2,1H3,(H,20,22)

> <PUBCHEM_IUPAC_INCHIKEY>
OULGZJNCCOSBOI-UHFFFAOYSA-N

> <PUBCHEM_XLOGP3_AA>
3.2

> <PUBCHEM_EXACT_MASS>
310.125218

> <PUBCHEM_MOLECULAR_FORMULA>
C17H18N4S

> <PUBCHEM_MOLECULAR_WEIGHT>
310.41662

> <PUBCHEM_OPENEYE_CAN_SMILES>
CC(=NN=C(N1CCC2=CC=CC=C2C1)S)C3=CC=CC=N3

> <PUBCHEM_OPENEYE_ISO_SMILES>
CC(=NN=C(N1CCC2=CC=CC=C2C1)S)C3=CC=CC=N3

> <PUBCHEM_CACTVS_TPSA>
41.8

> <PUBCHEM_MONOISOTOPIC_WEIGHT>
310.125218

> <PUBCHEM_TOTAL_CHARGE>
0

> <PUBCHEM_HEAVY_ATOM_COUNT>
22

> <PUBCHEM_ATOM_DEF_STEREO_COUNT>
0

> <PUBCHEM_ATOM_UDEF_STEREO_COUNT>
0

> <PUBCHEM_BOND_DEF_STEREO_COUNT>
0

> <PUBCHEM_BOND_UDEF_STEREO_COUNT>
2

> <PUBCHEM_ISOTOPIC_ATOM_COUNT>
0

> <PUBCHEM_COMPONENT_COUNT>
1

> <PUBCHEM_CACTVS_TAUTO_COUNT>
3

> <PUBCHEM_COORDINATE_TYPE>
1
5
255

> <PUBCHEM_BONDANNOTATIONS>
10  12  8
11  14  8
12  15  8
14  15  8
17  19  8
19  20  8
20  21  8
21  22  8
3  13  1
4  16  1
5  17  8
5  22  8
9  10  8
9  11  8

$$$$

