3589
  -OEChem-06251223312D

 22 24  0     1  0  0  0  0  0999 V2000
    5.0481   -1.0797    0.0000 Cl  0  0  0  0  0  0  0  0  0  0  0  0
    5.8246    1.8181    0.0000 Cl  0  0  0  0  0  0  0  0  0  0  0  0
    3.9156    2.2415    0.0000 Cl  0  0  0  0  0  0  0  0  0  0  0  0
    4.9336    2.8293    0.0000 Cl  0  0  0  0  0  0  0  0  0  0  0  0
    3.1140   -2.8293    0.0000 Cl  0  0  0  0  0  0  0  0  0  0  0  0
    7.6389   -1.7386    0.0000 Cl  0  0  0  0  0  0  0  0  0  0  0  0
    8.2637    0.5933    0.0000 Cl  0  0  0  0  0  0  0  0  0  0  0  0
    3.5749   -1.1138    0.0000 C   0  0  3  0  0  0  0  0  0  0  0  0
    3.0749   -0.2477    0.0000 C   0  0  3  0  0  0  0  0  0  0  0  0
    5.3069   -0.1138    0.0000 C   0  0  3  0  0  0  0  0  0  0  0  0
    5.5657    0.8522    0.0000 C   0  0  3  0  0  0  0  0  0  0  0  0
    4.8291    1.8348    0.0000 C   0  0  0  0  0  0  0  0  0  0  0  0
    2.9078   -1.8508    0.0000 C   0  0  3  0  0  0  0  0  0  0  0  0
    7.1389   -0.8726    0.0000 C   0  0  0  0  0  0  0  0  0  0  0  0
    7.3977    0.0933    0.0000 C   0  0  0  0  0  0  0  0  0  0  0  0
    2.1030   -0.4569    0.0000 C   0  0  0  0  0  0  0  0  0  0  0  0
    2.0000   -1.4457    0.0000 C   0  0  0  0  0  0  0  0  0  0  0  0
    4.1089   -1.7750    0.0000 H   0  0  0  0  0  0  0  0  0  0  0  0
    2.8124    0.5607    0.0000 H   0  0  0  0  0  0  0  0  0  0  0  0
    2.2465   -2.3848    0.0000 H   0  0  0  0  0  0  0  0  0  0  0  0
    1.6416   -0.0429    0.0000 H   0  0  0  0  0  0  0  0  0  0  0  0
    1.4631   -1.7557    0.0000 H   0  0  0  0  0  0  0  0  0  0  0  0
  1 10  1  0  0  0  0
  2 11  1  0  0  0  0
  3 12  1  0  0  0  0
  4 12  1  0  0  0  0
  5 13  1  0  0  0  0
  6 14  1  0  0  0  0
  7 15  1  0  0  0  0
  8  9  1  0  0  0  0
  8 10  1  0  0  0  0
  8 13  1  0  0  0  0
  8 18  1  0  0  0  0
  9 11  1  0  0  0  0
  9 16  1  0  0  0  0
  9 19  1  0  0  0  0
 10 12  1  0  0  0  0
 10 14  1  0  0  0  0
 11 12  1  0  0  0  0
 11 15  1  0  0  0  0
 13 17  1  0  0  0  0
 13 20  1  0  0  0  0
 14 15  2  0  0  0  0
 16 17  2  0  0  0  0
 16 21  1  0  0  0  0
 17 22  1  0  0  0  0
M  END
> <PUBCHEM_COMPOUND_CID>
3589

> <PUBCHEM_COMPOUND_CANONICALIZED>
1

> <PUBCHEM_CACTVS_COMPLEXITY>
467

> <PUBCHEM_CACTVS_HBOND_ACCEPTOR>
0

> <PUBCHEM_CACTVS_HBOND_DONOR>
0

> <PUBCHEM_CACTVS_ROTATABLE_BOND>
0

> <PUBCHEM_CACTVS_SUBSKEYS>
AAADcYBwAAAHAAAAAAAAAAAAAAAAAYIEAAAgAAAAAAAQAAAAAAAAGAIAAAAADQOAAMAAAAAAAACAACBCAAAAAAAgAAAICEAAAggAAAIBAQAAAAAAgAAIAAMAgMAOgAAAAAAAAAAAAAAAAAAAARAASIACAA==

> <PUBCHEM_IUPAC_INCHI>
InChI=1S/C10H5Cl7/c11-4-2-1-3-5(4)9(15)7(13)6(12)8(3,14)10(9,16)17/h1-5H

> <PUBCHEM_IUPAC_INCHIKEY>
FRCCEHPWNOQAEU-UHFFFAOYSA-N

> <PUBCHEM_XLOGP3_AA>
4.3

> <PUBCHEM_EXACT_MASS>
371.818144

> <PUBCHEM_MOLECULAR_FORMULA>
C10H5Cl7

> <PUBCHEM_MOLECULAR_WEIGHT>
373.3177

> <PUBCHEM_OPENEYE_CAN_SMILES>
C1=CC(C2C1C3(C(=C(C2(C3(Cl)Cl)Cl)Cl)Cl)Cl)Cl

> <PUBCHEM_OPENEYE_ISO_SMILES>
C1=CC(C2C1C3(C(=C(C2(C3(Cl)Cl)Cl)Cl)Cl)Cl)Cl

> <PUBCHEM_CACTVS_TPSA>
0

> <PUBCHEM_MONOISOTOPIC_WEIGHT>
369.821094

> <PUBCHEM_TOTAL_CHARGE>
0

> <PUBCHEM_HEAVY_ATOM_COUNT>
17

> <PUBCHEM_ATOM_DEF_STEREO_COUNT>
0

> <PUBCHEM_ATOM_UDEF_STEREO_COUNT>
5

> <PUBCHEM_BOND_DEF_STEREO_COUNT>
0

> <PUBCHEM_BOND_UDEF_STEREO_COUNT>
0

> <PUBCHEM_ISOTOPIC_ATOM_COUNT>
0

> <PUBCHEM_COMPONENT_COUNT>
1

> <PUBCHEM_CACTVS_TAUTO_COUNT>
1

> <PUBCHEM_COORDINATE_TYPE>
1
5
255

> <PUBCHEM_BONDANNOTATIONS>
10  1  3
13  20  3
11  2  3
8  18  3
9  19  3

$$$$

