47205178
  -OEChem-06241222582D

 35 36  0     1  0  0  0  0  0999 V2000
    2.8660    0.8621    0.0000 S   0  0  0  0  0  0  0  0  0  0  0  0
    2.0000    1.3621    0.0000 O   0  0  0  0  0  0  0  0  0  0  0  0
    3.0739    1.8403    0.0000 O   0  0  0  0  0  0  0  0  0  0  0  0
    5.6808    0.6597    0.0000 O   0  0  0  0  0  0  0  0  0  0  0  0
    8.2788   -1.8403    0.0000 O   0  0  0  0  0  0  0  0  0  0  0  0
    4.8147   -0.8403    0.0000 N   0  0  0  0  0  0  0  0  0  0  0  0
    7.4128   -0.3403    0.0000 N   0  0  0  0  0  0  0  0  0  0  0  0
   10.0109   -0.8403    0.0000 N   0  0  0  0  0  0  0  0  0  0  0  0
    3.9487   -0.3403    0.0000 C   0  0  3  0  0  0  0  0  0  0  0  0
    3.8442    0.6542    0.0000 C   0  0  0  0  0  0  0  0  0  0  0  0
    3.0352   -0.7470    0.0000 C   0  0  0  0  0  0  0  0  0  0  0  0
    2.3660   -0.0039    0.0000 C   0  0  0  0  0  0  0  0  0  0  0  0
    5.6808   -0.3403    0.0000 C   0  0  0  0  0  0  0  0  0  0  0  0
    6.5468   -0.8403    0.0000 C   0  0  0  0  0  0  0  0  0  0  0  0
    8.2788   -0.8403    0.0000 C   0  0  0  0  0  0  0  0  0  0  0  0
    9.1448   -0.3403    0.0000 C   0  0  0  0  0  0  0  0  0  0  0  0
    9.1448    0.6597    0.0000 C   0  0  0  0  0  0  0  0  0  0  0  0
   10.0109    1.1597    0.0000 C   0  0  0  0  0  0  0  0  0  0  0  0
   10.8769   -0.3403    0.0000 C   0  0  0  0  0  0  0  0  0  0  0  0
   10.8769    0.6597    0.0000 C   0  0  0  0  0  0  0  0  0  0  0  0
    3.9162   -0.9594    0.0000 H   0  0  0  0  0  0  0  0  0  0  0  0
    4.4642    0.6542    0.0000 H   0  0  0  0  0  0  0  0  0  0  0  0
    3.9090    1.2708    0.0000 H   0  0  0  0  0  0  0  0  0  0  0  0
    2.5336   -1.1114    0.0000 H   0  0  0  0  0  0  0  0  0  0  0  0
    3.3452   -1.2840    0.0000 H   0  0  0  0  0  0  0  0  0  0  0  0
    1.8644    0.3605    0.0000 H   0  0  0  0  0  0  0  0  0  0  0  0
    1.9512   -0.4646    0.0000 H   0  0  0  0  0  0  0  0  0  0  0  0
    4.8147   -1.4603    0.0000 H   0  0  0  0  0  0  0  0  0  0  0  0
    6.1482   -1.3152    0.0000 H   0  0  0  0  0  0  0  0  0  0  0  0
    6.9453   -1.3152    0.0000 H   0  0  0  0  0  0  0  0  0  0  0  0
    7.4128    0.2797    0.0000 H   0  0  0  0  0  0  0  0  0  0  0  0
    8.6079    0.9697    0.0000 H   0  0  0  0  0  0  0  0  0  0  0  0
   10.0109    1.7797    0.0000 H   0  0  0  0  0  0  0  0  0  0  0  0
   11.4138   -0.6503    0.0000 H   0  0  0  0  0  0  0  0  0  0  0  0
   11.4138    0.9697    0.0000 H   0  0  0  0  0  0  0  0  0  0  0  0
  1  2  2  0  0  0  0
  1  3  2  0  0  0  0
  1 10  1  0  0  0  0
  1 12  1  0  0  0  0
  4 13  2  0  0  0  0
  5 15  2  0  0  0  0
  6  9  1  0  0  0  0
  6 13  1  0  0  0  0
  6 28  1  0  0  0  0
  7 14  1  0  0  0  0
  7 15  1  0  0  0  0
  7 31  1  0  0  0  0
  8 16  1  0  0  0  0
  8 19  2  0  0  0  0
  9 10  1  0  0  0  0
  9 11  1  0  0  0  0
  9 21  1  0  0  0  0
 10 22  1  0  0  0  0
 10 23  1  0  0  0  0
 11 12  1  0  0  0  0
 11 24  1  0  0  0  0
 11 25  1  0  0  0  0
 12 26  1  0  0  0  0
 12 27  1  0  0  0  0
 13 14  1  0  0  0  0
 14 29  1  0  0  0  0
 14 30  1  0  0  0  0
 15 16  1  0  0  0  0
 16 17  2  0  0  0  0
 17 18  1  0  0  0  0
 17 32  1  0  0  0  0
 18 20  2  0  0  0  0
 18 33  1  0  0  0  0
 19 20  1  0  0  0  0
 19 34  1  0  0  0  0
 20 35  1  0  0  0  0
M  END
> <PUBCHEM_COMPOUND_CID>
47205178

> <PUBCHEM_COMPOUND_CANONICALIZED>
1

> <PUBCHEM_CACTVS_COMPLEXITY>
472

> <PUBCHEM_CACTVS_HBOND_ACCEPTOR>
5

> <PUBCHEM_CACTVS_HBOND_DONOR>
2

> <PUBCHEM_CACTVS_ROTATABLE_BOND>
4

> <PUBCHEM_CACTVS_SUBSKEYS>
AAADccBzOABAAAAAAAAAAAAAAAAAASAAAAAsAAAAAAAAAAABgAAAHgQQAAAACCjF1gS8gJLIEAqoATV3VHDCgCA3AjAI2KG4ZNgIYPLglbGUIQhglgDoyYcYCAAAAAAAAAAAAAAAAAAAAAAAAAAAAAAAAA==

> <PUBCHEM_IUPAC_OPENEYE_NAME>
N-[2-[(1,1-dioxothiolan-3-yl)amino]-2-oxo-ethyl]pyridine-2-carboxamide

> <PUBCHEM_IUPAC_CAS_NAME>
N-[2-[(1,1-dioxo-3-thiolanyl)amino]-2-oxoethyl]-2-pyridinecarboxamide

> <PUBCHEM_IUPAC_NAME>
N-[2-[(1,1-dioxothiolan-3-yl)amino]-2-oxoethyl]pyridine-2-carboxamide

> <PUBCHEM_IUPAC_SYSTEMATIC_NAME>
N-[2-[[1,1-bis(oxidanylidene)thiolan-3-yl]amino]-2-oxidanylidene-ethyl]pyridine-2-carboxamide

> <PUBCHEM_IUPAC_TRADITIONAL_NAME>
N-[2-[(1,1-diketothiolan-3-yl)amino]-2-keto-ethyl]picolinamide

> <PUBCHEM_IUPAC_INCHI>
InChI=1S/C12H15N3O4S/c16-11(15-9-4-6-20(18,19)8-9)7-14-12(17)10-3-1-2-5-13-10/h1-3,5,9H,4,6-8H2,(H,14,17)(H,15,16)

> <PUBCHEM_IUPAC_INCHIKEY>
FHFOGFDVVHSEQZ-UHFFFAOYSA-N

> <PUBCHEM_XLOGP3_AA>
-0.6

> <PUBCHEM_EXACT_MASS>
297.078327

> <PUBCHEM_MOLECULAR_FORMULA>
C12H15N3O4S

> <PUBCHEM_MOLECULAR_WEIGHT>
297.3302

> <PUBCHEM_OPENEYE_CAN_SMILES>
C1CS(=O)(=O)CC1NC(=O)CNC(=O)C2=CC=CC=N2

> <PUBCHEM_OPENEYE_ISO_SMILES>
C1CS(=O)(=O)CC1NC(=O)CNC(=O)C2=CC=CC=N2

> <PUBCHEM_CACTVS_TPSA>
114

> <PUBCHEM_MONOISOTOPIC_WEIGHT>
297.078327

> <PUBCHEM_TOTAL_CHARGE>
0

> <PUBCHEM_HEAVY_ATOM_COUNT>
20

> <PUBCHEM_ATOM_DEF_STEREO_COUNT>
0

> <PUBCHEM_ATOM_UDEF_STEREO_COUNT>
1

> <PUBCHEM_BOND_DEF_STEREO_COUNT>
0

> <PUBCHEM_BOND_UDEF_STEREO_COUNT>
0

> <PUBCHEM_ISOTOPIC_ATOM_COUNT>
0

> <PUBCHEM_COMPONENT_COUNT>
1

> <PUBCHEM_CACTVS_TAUTO_COUNT>
4

> <PUBCHEM_COORDINATE_TYPE>
1
5
255

> <PUBCHEM_BONDANNOTATIONS>
16  17  8
17  18  8
18  20  8
19  20  8
9  6  3
8  16  8
8  19  8

$$$$

