583227
  -OEChem-06241222452D

 50 53  0     1  0  0  0  0  0999 V2000
    3.5962   -1.7569    0.0000 S   0  0  0  0  0  0  0  0  0  0  0  0
    6.1131    1.7585    0.0000 S   0  0  0  0  0  0  0  0  0  0  0  0
    2.6451   -1.4478    0.0000 O   0  0  0  0  0  0  0  0  0  0  0  0
    4.5472   -2.0659    0.0000 O   0  0  0  0  0  0  0  0  0  0  0  0
    7.0637    1.4478    0.0000 O   0  0  0  0  0  0  0  0  0  0  0  0
    5.1626    2.0691    0.0000 O   0  0  0  0  0  0  0  0  0  0  0  0
    4.8563    0.5032    0.0000 C   0  0  3  0  0  0  0  0  0  0  0  0
    4.8563   -0.4968    0.0000 C   0  0  3  0  0  0  0  0  0  0  0  0
    5.8025   -0.8015    0.0000 C   0  0  0  0  0  0  0  0  0  0  0  0
    3.9052    0.8122    0.0000 C   0  0  0  0  0  0  0  0  0  0  0  0
    3.9052   -0.8058    0.0000 C   0  0  0  0  0  0  0  0  0  0  0  0
    5.8025    0.8079    0.0000 C   0  0  0  0  0  0  0  0  0  0  0  0
    4.8563   -1.4968    0.0000 C   0  0  0  0  0  0  0  0  0  0  0  0
    4.8563    1.5032    0.0000 C   0  0  0  0  0  0  0  0  0  0  0  0
    3.3174    0.0032    0.0000 C   0  0  0  0  0  0  0  0  0  0  0  0
    6.3861    0.0032    0.0000 C   0  0  0  0  0  0  0  0  0  0  0  0
    6.4238    2.7090    0.0000 C   0  0  0  0  0  0  0  0  0  0  0  0
    3.2872   -2.7079    0.0000 C   0  0  0  0  0  0  0  0  0  0  0  0
    2.3090   -2.9158    0.0000 C   0  0  0  0  0  0  0  0  0  0  0  0
    7.4023    2.9152    0.0000 C   0  0  0  0  0  0  0  0  0  0  0  0
    3.9563   -3.4511    0.0000 C   0  0  0  0  0  0  0  0  0  0  0  0
    5.7560    3.4533    0.0000 C   0  0  0  0  0  0  0  0  0  0  0  0
    7.7130    3.8657    0.0000 C   0  0  0  0  0  0  0  0  0  0  0  0
    2.0000   -3.8669    0.0000 C   0  0  0  0  0  0  0  0  0  0  0  0
    6.0666    4.4038    0.0000 C   0  0  0  0  0  0  0  0  0  0  0  0
    3.6473   -4.4021    0.0000 C   0  0  0  0  0  0  0  0  0  0  0  0
    2.6691   -4.6100    0.0000 C   0  0  0  0  0  0  0  0  0  0  0  0
    7.0451    4.6100    0.0000 C   0  0  0  0  0  0  0  0  0  0  0  0
    4.1574    1.3786    0.0000 H   0  0  0  0  0  0  0  0  0  0  0  0
    3.3683    1.1222    0.0000 H   0  0  0  0  0  0  0  0  0  0  0  0
    5.5514   -1.3684    0.0000 H   0  0  0  0  0  0  0  0  0  0  0  0
    6.3399   -1.1107    0.0000 H   0  0  0  0  0  0  0  0  0  0  0  0
    5.4762    1.5032    0.0000 H   0  0  0  0  0  0  0  0  0  0  0  0
    4.8563    2.1232    0.0000 H   0  0  0  0  0  0  0  0  0  0  0  0
    4.2363    1.5032    0.0000 H   0  0  0  0  0  0  0  0  0  0  0  0
    4.2363   -1.4968    0.0000 H   0  0  0  0  0  0  0  0  0  0  0  0
    4.8563   -2.1168    0.0000 H   0  0  0  0  0  0  0  0  0  0  0  0
    5.4762   -1.4968    0.0000 H   0  0  0  0  0  0  0  0  0  0  0  0
    2.6974    0.0032    0.0000 H   0  0  0  0  0  0  0  0  0  0  0  0
    7.0061    0.0032    0.0000 H   0  0  0  0  0  0  0  0  0  0  0  0
    7.8164    2.4537    0.0000 H   0  0  0  0  0  0  0  0  0  0  0  0
    1.8942   -2.4551    0.0000 H   0  0  0  0  0  0  0  0  0  0  0  0
    5.1493    3.3254    0.0000 H   0  0  0  0  0  0  0  0  0  0  0  0
    4.5628   -3.3222    0.0000 H   0  0  0  0  0  0  0  0  0  0  0  0
    1.3936   -3.9958    0.0000 H   0  0  0  0  0  0  0  0  0  0  0  0
    8.3196    3.9936    0.0000 H   0  0  0  0  0  0  0  0  0  0  0  0
    4.0621   -4.8629    0.0000 H   0  0  0  0  0  0  0  0  0  0  0  0
    5.6526    4.8653    0.0000 H   0  0  0  0  0  0  0  0  0  0  0  0
    2.4775   -5.1997    0.0000 H   0  0  0  0  0  0  0  0  0  0  0  0
    7.2377    5.1994    0.0000 H   0  0  0  0  0  0  0  0  0  0  0  0
  1  3  2  0  0  0  0
  1  4  2  0  0  0  0
  1 11  1  0  0  0  0
  1 18  1  0  0  0  0
  2  5  2  0  0  0  0
  2  6  2  0  0  0  0
  2 12  1  0  0  0  0
  2 17  1  0  0  0  0
  7  8  1  0  0  0  0
  7 10  1  0  0  0  0
  7 12  1  0  0  0  0
  7 14  1  0  0  0  0
  8  9  1  0  0  0  0
  8 11  1  0  0  0  0
  8 13  1  0  0  0  0
  9 16  1  0  0  0  0
  9 31  1  0  0  0  0
  9 32  1  0  0  0  0
 10 15  1  0  0  0  0
 10 29  1  0  0  0  0
 10 30  1  0  0  0  0
 11 15  2  0  0  0  0
 12 16  2  0  0  0  0
 13 36  1  0  0  0  0
 13 37  1  0  0  0  0
 13 38  1  0  0  0  0
 14 33  1  0  0  0  0
 14 34  1  0  0  0  0
 14 35  1  0  0  0  0
 15 39  1  0  0  0  0
 16 40  1  0  0  0  0
 17 20  2  0  0  0  0
 17 22  1  0  0  0  0
 18 19  2  0  0  0  0
 18 21  1  0  0  0  0
 19 24  1  0  0  0  0
 19 42  1  0  0  0  0
 20 23  1  0  0  0  0
 20 41  1  0  0  0  0
 21 26  2  0  0  0  0
 21 44  1  0  0  0  0
 22 25  2  0  0  0  0
 22 43  1  0  0  0  0
 23 28  2  0  0  0  0
 23 46  1  0  0  0  0
 24 27  2  0  0  0  0
 24 45  1  0  0  0  0
 25 28  1  0  0  0  0
 25 48  1  0  0  0  0
 26 27  1  0  0  0  0
 26 47  1  0  0  0  0
 27 49  1  0  0  0  0
 28 50  1  0  0  0  0
M  END
> <PUBCHEM_COMPOUND_CID>
583227

> <PUBCHEM_COMPOUND_CANONICALIZED>
1

> <PUBCHEM_CACTVS_COMPLEXITY>
813

> <PUBCHEM_CACTVS_HBOND_ACCEPTOR>
4

> <PUBCHEM_CACTVS_HBOND_DONOR>
0

> <PUBCHEM_CACTVS_ROTATABLE_BOND>
4

> <PUBCHEM_CACTVS_SUBSKEYS>
AAADceB4OABgAAAAAAAAAAAAAAAAAQIAAAAwYAAAAAAQAAABQAAAGAQAAAAADgCAUAAyAYAAAAqAACBCAHBCAAAgCBAIiBgAAIgIICKgERCAIAAggAAoiAcAAAAPgAAAAAAAAAAAAAAAAAAAAAAAAAAAAA==

> <PUBCHEM_IUPAC_OPENEYE_NAME>
3,6-bis(benzenesulfonyl)-3a,6a-dimethyl-1,4-dihydropentalene

> <PUBCHEM_IUPAC_CAS_NAME>
3,6-bis(benzenesulfonyl)-3a,6a-dimethyl-1,4-dihydropentalene

> <PUBCHEM_IUPAC_NAME>
3,6-bis(benzenesulfonyl)-3a,6a-dimethyl-1,4-dihydropentalene

> <PUBCHEM_IUPAC_SYSTEMATIC_NAME>
3a,6a-dimethyl-3,6-bis(phenylsulfonyl)-1,4-dihydropentalene

> <PUBCHEM_IUPAC_TRADITIONAL_NAME>
3,6-dibesyl-3a,6a-dimethyl-1,4-dihydropentalene

> <PUBCHEM_IUPAC_INCHI>
InChI=1S/C22H22O4S2/c1-21-15-13-20(28(25,26)18-11-7-4-8-12-18)22(21,2)16-14-19(21)27(23,24)17-9-5-3-6-10-17/h3-14H,15-16H2,1-2H3

> <PUBCHEM_IUPAC_INCHIKEY>
DJFHTKBRNOQLSI-UHFFFAOYSA-N

> <PUBCHEM_XLOGP3_AA>
4.2

> <PUBCHEM_EXACT_MASS>
414.095951

> <PUBCHEM_MOLECULAR_FORMULA>
C22H22O4S2

> <PUBCHEM_MOLECULAR_WEIGHT>
414.53768

> <PUBCHEM_OPENEYE_CAN_SMILES>
CC12CC=C(C1(CC=C2S(=O)(=O)C3=CC=CC=C3)C)S(=O)(=O)C4=CC=CC=C4

> <PUBCHEM_OPENEYE_ISO_SMILES>
CC12CC=C(C1(CC=C2S(=O)(=O)C3=CC=CC=C3)C)S(=O)(=O)C4=CC=CC=C4

> <PUBCHEM_CACTVS_TPSA>
85

> <PUBCHEM_MONOISOTOPIC_WEIGHT>
414.095951

> <PUBCHEM_TOTAL_CHARGE>
0

> <PUBCHEM_HEAVY_ATOM_COUNT>
28

> <PUBCHEM_ATOM_DEF_STEREO_COUNT>
0

> <PUBCHEM_ATOM_UDEF_STEREO_COUNT>
2

> <PUBCHEM_BOND_DEF_STEREO_COUNT>
0

> <PUBCHEM_BOND_UDEF_STEREO_COUNT>
0

> <PUBCHEM_ISOTOPIC_ATOM_COUNT>
0

> <PUBCHEM_COMPONENT_COUNT>
1

> <PUBCHEM_CACTVS_TAUTO_COUNT>
1

> <PUBCHEM_COORDINATE_TYPE>
1
5
255

> <PUBCHEM_BONDANNOTATIONS>
17  20  8
17  22  8
18  19  8
18  21  8
19  24  8
20  23  8
21  26  8
22  25  8
23  28  8
24  27  8
25  28  8
26  27  8
7  14  3
8  13  3

$$$$

