13358
  -OEChem-06261209192D

 22 20  0     1  0  0  0  0  0999 V2000
    2.4520    0.0000    0.0000 Cl  0  5  0  0  0  0  0  0  0  0  0  0
    3.1350    3.1200    0.0000 S   0  0  0  0  0  0  0  0  0  0  0  0
    2.2690    4.6200    0.0000 O   0  0  0  0  0  0  0  0  0  0  0  0
    3.1350    6.1200    0.0000 O   0  0  0  0  0  0  0  0  0  0  0  0
    4.8671    5.1200    0.0000 N   0  3  0  0  0  0  0  0  0  0  0  0
    4.0010    4.6200    0.0000 C   0  0  1  0  0  0  0  0  0  0  0  0
    4.0010    3.6200    0.0000 C   0  0  0  0  0  0  0  0  0  0  0  0
    3.1350    5.1200    0.0000 C   0  0  0  0  0  0  0  0  0  0  0  0
    1.4030    5.1200    0.0000 C   0  0  0  0  0  0  0  0  0  0  0  0
    0.5369    4.6200    0.0000 C   0  0  0  0  0  0  0  0  0  0  0  0
    4.5380    4.3100    0.0000 H   0  0  0  0  0  0  0  0  0  0  0  0
    4.2131    3.0374    0.0000 H   0  0  0  0  0  0  0  0  0  0  0  0
    4.6116    3.7277    0.0000 H   0  0  0  0  0  0  0  0  0  0  0  0
    5.4040    5.4300    0.0000 H   0  0  0  0  0  0  0  0  0  0  0  0
    5.1771    4.5831    0.0000 H   0  0  0  0  0  0  0  0  0  0  0  0
    4.5571    5.6569    0.0000 H   0  0  0  0  0  0  0  0  0  0  0  0
    1.8015    5.5950    0.0000 H   0  0  0  0  0  0  0  0  0  0  0  0
    1.0044    5.5950    0.0000 H   0  0  0  0  0  0  0  0  0  0  0  0
    0.2269    5.1569    0.0000 H   0  0  0  0  0  0  0  0  0  0  0  0
    0.0000    4.3100    0.0000 H   0  0  0  0  0  0  0  0  0  0  0  0
    0.8469    4.0831    0.0000 H   0  0  0  0  0  0  0  0  0  0  0  0
    3.1350    2.5000    0.0000 H   0  0  0  0  0  0  0  0  0  0  0  0
  2  7  1  0  0  0  0
  2 22  1  0  0  0  0
  3  8  1  0  0  0  0
  3  9  1  0  0  0  0
  4  8  2  0  0  0  0
  6  5  1  1  0  0  0
  5 14  1  0  0  0  0
  5 15  1  0  0  0  0
  5 16  1  0  0  0  0
  6  7  1  0  0  0  0
  6  8  1  0  0  0  0
  6 11  1  0  0  0  0
  7 12  1  0  0  0  0
  7 13  1  0  0  0  0
  9 10  1  0  0  0  0
  9 17  1  0  0  0  0
  9 18  1  0  0  0  0
 10 19  1  0  0  0  0
 10 20  1  0  0  0  0
 10 21  1  0  0  0  0
M  CHG  2   1  -1   5   1
M  END
> <PUBCHEM_COMPOUND_CID>
13358

> <PUBCHEM_COMPOUND_CANONICALIZED>
1

> <PUBCHEM_CACTVS_COMPLEXITY>
97

> <PUBCHEM_CACTVS_HBOND_ACCEPTOR>
4

> <PUBCHEM_CACTVS_HBOND_DONOR>
2

> <PUBCHEM_CACTVS_ROTATABLE_BOND>
4

> <PUBCHEM_CACTVS_SUBSKEYS>
AAADccBiMABEAAAAAAAAAAAAAAAAAAAAAAAAAAAAAAAAAAAAAAAAHgQQAAAACCjlwAaCCABABAQIAACQCAAAAAAAAAAAAIGAAAACAAAAAAADAAAAEAAAAAAAAAAAAAAAAAAAAAAAAAAAAAAAAAAAAAAAAA==

> <PUBCHEM_IUPAC_OPENEYE_NAME>
[(1R)-2-ethoxy-2-oxo-1-(sulfanylmethyl)ethyl]ammonium chloride

> <PUBCHEM_IUPAC_CAS_NAME>
[(2R)-1-ethoxy-3-mercapto-1-oxopropan-2-yl]ammonium chloride

> <PUBCHEM_IUPAC_NAME>
[(2R)-1-ethoxy-1-oxo-3-sulfanylpropan-2-yl]azanium chloride

> <PUBCHEM_IUPAC_SYSTEMATIC_NAME>
[(2R)-1-ethoxy-1-oxidanylidene-3-sulfanyl-propan-2-yl]azanium chloride

> <PUBCHEM_IUPAC_TRADITIONAL_NAME>
[(1R)-2-ethoxy-2-keto-1-(mercaptomethyl)ethyl]ammonium chloride

> <PUBCHEM_IUPAC_INCHI>
InChI=1S/C5H11NO2S.ClH/c1-2-8-5(7)4(6)3-9;/h4,9H,2-3,6H2,1H3;1H/t4-;/m0./s1

> <PUBCHEM_IUPAC_INCHIKEY>
JFKJWWJOCJHMGV-WCCKRBBISA-N

> <PUBCHEM_EXACT_MASS>
185.027727

> <PUBCHEM_MOLECULAR_FORMULA>
C5H12ClNO2S

> <PUBCHEM_MOLECULAR_WEIGHT>
185.67228

> <PUBCHEM_OPENEYE_CAN_SMILES>
CCOC(=O)C(CS)[NH3+].[Cl-]

> <PUBCHEM_OPENEYE_ISO_SMILES>
CCOC(=O)[C@H](CS)[NH3+].[Cl-]

> <PUBCHEM_CACTVS_TPSA>
54.9

> <PUBCHEM_MONOISOTOPIC_WEIGHT>
185.027727

> <PUBCHEM_TOTAL_CHARGE>
0

> <PUBCHEM_HEAVY_ATOM_COUNT>
10

> <PUBCHEM_ATOM_DEF_STEREO_COUNT>
1

> <PUBCHEM_ATOM_UDEF_STEREO_COUNT>
0

> <PUBCHEM_BOND_DEF_STEREO_COUNT>
0

> <PUBCHEM_BOND_UDEF_STEREO_COUNT>
0

> <PUBCHEM_ISOTOPIC_ATOM_COUNT>
0

> <PUBCHEM_COMPONENT_COUNT>
2

> <PUBCHEM_CACTVS_TAUTO_COUNT>
1

> <PUBCHEM_COORDINATE_TYPE>
1
5
255

> <PUBCHEM_BONDANNOTATIONS>
6  5  5

$$$$

