11489
  -OEChem-06261205442D

 40 41  0     0  0  0  0  0  0999 V2000
    9.0991    9.6200    0.0000 S   0  0  0  0  0  0  0  0  0  0  0  0
    9.9651   11.1200    0.0000 Na  0  3  0  0  0  0  0  0  0  0  0  0
    9.0991   10.6200    0.0000 O   0  5  0  0  0  0  0  0  0  0  0  0
    8.0991    9.6200    0.0000 O   0  0  0  0  0  0  0  0  0  0  0  0
   10.0991    9.6200    0.0000 O   0  0  0  0  0  0  0  0  0  0  0  0
    3.9030    3.6200    0.0000 N   0  0  0  0  0  0  0  0  0  0  0  0
    7.3671    5.6200    0.0000 N   0  0  0  0  0  0  0  0  0  0  0  0
    7.3671    6.6200    0.0000 N   0  0  0  0  0  0  0  0  0  0  0  0
    4.7690    4.1200    0.0000 C   0  0  0  0  0  0  0  0  0  0  0  0
    3.9030    2.6200    0.0000 C   0  0  0  0  0  0  0  0  0  0  0  0
    4.7690    5.1200    0.0000 C   0  0  0  0  0  0  0  0  0  0  0  0
    5.6350    3.6200    0.0000 C   0  0  0  0  0  0  0  0  0  0  0  0
    9.0991    8.6200    0.0000 C   0  0  0  0  0  0  0  0  0  0  0  0
    6.5010    5.1200    0.0000 C   0  0  0  0  0  0  0  0  0  0  0  0
    5.6350    5.6200    0.0000 C   0  0  0  0  0  0  0  0  0  0  0  0
    6.5010    4.1200    0.0000 C   0  0  0  0  0  0  0  0  0  0  0  0
    8.2331    7.1200    0.0000 C   0  0  0  0  0  0  0  0  0  0  0  0
    8.2331    8.1200    0.0000 C   0  0  0  0  0  0  0  0  0  0  0  0
    4.7690    2.1200    0.0000 C   0  0  0  0  0  0  0  0  0  0  0  0
    3.0369    2.1200    0.0000 C   0  0  0  0  0  0  0  0  0  0  0  0
    9.9651    8.1200    0.0000 C   0  0  0  0  0  0  0  0  0  0  0  0
    9.0991    6.6200    0.0000 C   0  0  0  0  0  0  0  0  0  0  0  0
    9.9651    7.1200    0.0000 C   0  0  0  0  0  0  0  0  0  0  0  0
    4.7690    1.1200    0.0000 C   0  0  0  0  0  0  0  0  0  0  0  0
    3.0369    1.1200    0.0000 C   0  0  0  0  0  0  0  0  0  0  0  0
    3.9030    0.6200    0.0000 C   0  0  0  0  0  0  0  0  0  0  0  0
    3.3660    3.9300    0.0000 H   0  0  0  0  0  0  0  0  0  0  0  0
    4.2321    5.4300    0.0000 H   0  0  0  0  0  0  0  0  0  0  0  0
    5.6350    3.0000    0.0000 H   0  0  0  0  0  0  0  0  0  0  0  0
    5.6350    6.2400    0.0000 H   0  0  0  0  0  0  0  0  0  0  0  0
    7.0380    3.8100    0.0000 H   0  0  0  0  0  0  0  0  0  0  0  0
    7.6962    8.4300    0.0000 H   0  0  0  0  0  0  0  0  0  0  0  0
   10.5021    8.4300    0.0000 H   0  0  0  0  0  0  0  0  0  0  0  0
    5.3059    2.4300    0.0000 H   0  0  0  0  0  0  0  0  0  0  0  0
    2.5000    2.4300    0.0000 H   0  0  0  0  0  0  0  0  0  0  0  0
    9.0991    6.0000    0.0000 H   0  0  0  0  0  0  0  0  0  0  0  0
   10.5021    6.8100    0.0000 H   0  0  0  0  0  0  0  0  0  0  0  0
    5.3059    0.8100    0.0000 H   0  0  0  0  0  0  0  0  0  0  0  0
    2.5000    0.8100    0.0000 H   0  0  0  0  0  0  0  0  0  0  0  0
    3.9030    0.0000    0.0000 H   0  0  0  0  0  0  0  0  0  0  0  0
  1  3  1  0  0  0  0
  1  4  2  0  0  0  0
  1  5  2  0  0  0  0
  1 13  1  0  0  0  0
  6  9  1  0  0  0  0
  6 10  1  0  0  0  0
  6 27  1  0  0  0  0
  7  8  2  0  0  0  0
  7 14  1  0  0  0  0
  8 17  1  0  0  0  0
  9 11  2  0  0  0  0
  9 12  1  0  0  0  0
 10 19  2  0  0  0  0
 10 20  1  0  0  0  0
 11 15  1  0  0  0  0
 11 28  1  0  0  0  0
 12 16  2  0  0  0  0
 12 29  1  0  0  0  0
 13 18  1  0  0  0  0
 13 21  2  0  0  0  0
 14 15  2  0  0  0  0
 14 16  1  0  0  0  0
 15 30  1  0  0  0  0
 16 31  1  0  0  0  0
 17 18  2  0  0  0  0
 17 22  1  0  0  0  0
 18 32  1  0  0  0  0
 19 24  1  0  0  0  0
 19 34  1  0  0  0  0
 20 25  2  0  0  0  0
 20 35  1  0  0  0  0
 21 23  1  0  0  0  0
 21 33  1  0  0  0  0
 22 23  2  0  0  0  0
 22 36  1  0  0  0  0
 23 37  1  0  0  0  0
 24 26  2  0  0  0  0
 24 38  1  0  0  0  0
 25 26  1  0  0  0  0
 25 39  1  0  0  0  0
 26 40  1  0  0  0  0
M  CHG  2   2   1   3  -1
M  END
> <PUBCHEM_COMPOUND_CID>
11489

> <PUBCHEM_COMPOUND_CANONICALIZED>
1

> <PUBCHEM_CACTVS_COMPLEXITY>
519

> <PUBCHEM_CACTVS_HBOND_ACCEPTOR>
6

> <PUBCHEM_CACTVS_HBOND_DONOR>
1

> <PUBCHEM_CACTVS_ROTATABLE_BOND>
4

> <PUBCHEM_CACTVS_SUBSKEYS>
AAADccB7MCBAAAAAAAAAAAAAAAAAAAAAAAAwYMAAAAAAAAABUAAAHAQYAAAACAiBUAAwwYLAAAKCACRCQHDCAEAhAgAIiBgAZIgIIGLAkZGEIAxgkADIyAcQAAAAAACAACAAAAAAAQAAQAAAAAAAAAAAAA==

> <PUBCHEM_IUPAC_OPENEYE_NAME>
sodium 3-(4-anilinophenyl)azobenzenesulfonate

> <PUBCHEM_IUPAC_CAS_NAME>
sodium 3-(4-anilinophenyl)azobenzenesulfonate

> <PUBCHEM_IUPAC_NAME>
sodium 3-[(4-anilinophenyl)diazenyl]benzenesulfonate

> <PUBCHEM_IUPAC_SYSTEMATIC_NAME>
sodium 3-[(4-phenylazanylphenyl)diazenyl]benzenesulfonate

> <PUBCHEM_IUPAC_TRADITIONAL_NAME>
sodium 3-(4-anilinophenyl)azobesylate

> <PUBCHEM_IUPAC_INCHI>
InChI=1S/C18H15N3O3S.Na/c22-25(23,24)18-8-4-7-17(13-18)21-20-16-11-9-15(10-12-16)19-14-5-2-1-3-6-14;/h1-13,19H,(H,22,23,24);/q;+1/p-1

> <PUBCHEM_IUPAC_INCHIKEY>
NYGZLYXAPMMJTE-UHFFFAOYSA-M

> <PUBCHEM_EXACT_MASS>
375.065357

> <PUBCHEM_MOLECULAR_FORMULA>
C18H14N3NaO3S

> <PUBCHEM_MOLECULAR_WEIGHT>
375.376829

> <PUBCHEM_OPENEYE_CAN_SMILES>
C1=CC=C(C=C1)NC2=CC=C(C=C2)N=NC3=CC(=CC=C3)S(=O)(=O)[O-].[Na+]

> <PUBCHEM_OPENEYE_ISO_SMILES>
C1=CC=C(C=C1)NC2=CC=C(C=C2)N=NC3=CC(=CC=C3)S(=O)(=O)[O-].[Na+]

> <PUBCHEM_CACTVS_TPSA>
102

> <PUBCHEM_MONOISOTOPIC_WEIGHT>
375.065357

> <PUBCHEM_TOTAL_CHARGE>
0

> <PUBCHEM_HEAVY_ATOM_COUNT>
26

> <PUBCHEM_ATOM_DEF_STEREO_COUNT>
0

> <PUBCHEM_ATOM_UDEF_STEREO_COUNT>
0

> <PUBCHEM_BOND_DEF_STEREO_COUNT>
0

> <PUBCHEM_BOND_UDEF_STEREO_COUNT>
0

> <PUBCHEM_ISOTOPIC_ATOM_COUNT>
0

> <PUBCHEM_COMPONENT_COUNT>
2

> <PUBCHEM_CACTVS_TAUTO_COUNT>
2

> <PUBCHEM_COORDINATE_TYPE>
1
5
255

> <PUBCHEM_BONDANNOTATIONS>
10  19  8
10  20  8
11  15  8
12  16  8
13  18  8
13  21  8
14  15  8
14  16  8
17  18  8
17  22  8
19  24  8
20  25  8
21  23  8
22  23  8
24  26  8
25  26  8
9  11  8
9  12  8

$$$$

