11274
  -OEChem-06261205282D

 55 58  0     1  0  0  0  0  0999 V2000
   10.0389    2.1128    0.0000 O   0  0  0  0  0  0  0  0  0  0  0  0
    3.3889   -2.1948    0.0000 O   0  0  0  0  0  0  0  0  0  0  0  0
    2.5333   -0.5932    0.0000 O   0  0  0  0  0  0  0  0  0  0  0  0
    7.0500   -0.1425    0.0000 C   0  0  1  0  0  0  0  0  0  0  0  0
    7.9160   -0.6425    0.0000 C   0  0  2  0  0  0  0  0  0  0  0  0
    8.7820   -0.1425    0.0000 C   0  0  1  0  0  0  0  0  0  0  0  0
    6.1400   -0.6493    0.0000 C   0  0  2  0  0  0  0  0  0  0  0  0
    8.7820    0.8575    0.0000 C   0  0  2  0  0  0  0  0  0  0  0  0
    6.1319   -1.6909    0.0000 C   0  0  1  0  0  0  0  0  0  0  0  0
    7.0500    0.8575    0.0000 C   0  0  0  0  0  0  0  0  0  0  0  0
    7.9160    1.3575    0.0000 C   0  0  0  0  0  0  0  0  0  0  0  0
    7.9321   -1.6840    0.0000 C   0  0  0  0  0  0  0  0  0  0  0  0
    9.7282   -0.4472    0.0000 C   0  0  0  0  0  0  0  0  0  0  0  0
    9.7282    1.1623    0.0000 C   0  0  2  0  0  0  0  0  0  0  0  0
    7.0340   -2.2117    0.0000 C   0  0  0  0  0  0  0  0  0  0  0  0
    5.2131   -0.0852    0.0000 C   0  0  0  0  0  0  0  0  0  0  0  0
   10.3119    0.3575    0.0000 C   0  0  0  0  0  0  0  0  0  0  0  0
    5.1965   -2.2406    0.0000 C   0  0  0  0  0  0  0  0  0  0  0  0
    6.1477    0.3507    0.0000 C   0  0  0  0  0  0  0  0  0  0  0  0
    8.7820    1.8575    0.0000 C   0  0  0  0  0  0  0  0  0  0  0  0
    4.2652   -0.6132    0.0000 C   0  0  2  0  0  0  0  0  0  0  0  0
    4.2569   -1.6981    0.0000 C   0  0  0  0  0  0  0  0  0  0  0  0
    3.4051   -0.1032    0.0000 C   0  0  0  0  0  0  0  0  0  0  0  0
    7.7861    0.2825    0.0000 H   0  0  0  0  0  0  0  0  0  0  0  0
    8.6554   -1.0618    0.0000 H   0  0  0  0  0  0  0  0  0  0  0  0
    8.8720   -0.9877    0.0000 H   0  0  0  0  0  0  0  0  0  0  0  0
    6.1352   -2.5409    0.0000 H   0  0  0  0  0  0  0  0  0  0  0  0
    6.8379    1.4401    0.0000 H   0  0  0  0  0  0  0  0  0  0  0  0
    6.4394    0.7499    0.0000 H   0  0  0  0  0  0  0  0  0  0  0  0
    8.3145    1.8325    0.0000 H   0  0  0  0  0  0  0  0  0  0  0  0
    7.5175    1.8325    0.0000 H   0  0  0  0  0  0  0  0  0  0  0  0
    8.1501   -2.2644    0.0000 H   0  0  0  0  0  0  0  0  0  0  0  0
    8.5412   -1.5685    0.0000 H   0  0  0  0  0  0  0  0  0  0  0  0
    9.4772   -1.0141    0.0000 H   0  0  0  0  0  0  0  0  0  0  0  0
   10.2656   -0.7564    0.0000 H   0  0  0  0  0  0  0  0  0  0  0  0
    9.2908    1.6016    0.0000 H   0  0  0  0  0  0  0  0  0  0  0  0
    6.6367   -2.6877    0.0000 H   0  0  0  0  0  0  0  0  0  0  0  0
    7.4350   -2.6846    0.0000 H   0  0  0  0  0  0  0  0  0  0  0  0
    5.6213    0.3814    0.0000 H   0  0  0  0  0  0  0  0  0  0  0  0
    4.8232    0.3968    0.0000 H   0  0  0  0  0  0  0  0  0  0  0  0
   10.7727   -0.0572    0.0000 H   0  0  0  0  0  0  0  0  0  0  0  0
   10.7727    0.7723    0.0000 H   0  0  0  0  0  0  0  0  0  0  0  0
    4.7992   -2.7166    0.0000 H   0  0  0  0  0  0  0  0  0  0  0  0
    5.5975   -2.7135    0.0000 H   0  0  0  0  0  0  0  0  0  0  0  0
    6.7677    0.3459    0.0000 H   0  0  0  0  0  0  0  0  0  0  0  0
    6.1525    0.9706    0.0000 H   0  0  0  0  0  0  0  0  0  0  0  0
    5.5277    0.3554    0.0000 H   0  0  0  0  0  0  0  0  0  0  0  0
    9.4020    1.8575    0.0000 H   0  0  0  0  0  0  0  0  0  0  0  0
    8.7820    2.4775    0.0000 H   0  0  0  0  0  0  0  0  0  0  0  0
    8.1620    1.8575    0.0000 H   0  0  0  0  0  0  0  0  0  0  0  0
    4.2736    0.0068    0.0000 H   0  0  0  0  0  0  0  0  0  0  0  0
   10.6456    2.2406    0.0000 H   0  0  0  0  0  0  0  0  0  0  0  0
    3.8091    0.3671    0.0000 H   0  0  0  0  0  0  0  0  0  0  0  0
    3.0120    0.3763    0.0000 H   0  0  0  0  0  0  0  0  0  0  0  0
    2.0000   -0.2770    0.0000 H   0  0  0  0  0  0  0  0  0  0  0  0
 14  1  1  1  0  0  0
  1 52  1  0  0  0  0
  2 22  2  0  0  0  0
  3 23  1  0  0  0  0
  3 55  1  0  0  0  0
  4  5  1  0  0  0  0
  4  7  1  0  0  0  0
  4 10  1  0  0  0  0
  4 24  1  6  0  0  0
  5  6  1  0  0  0  0
  5 12  1  0  0  0  0
  5 25  1  1  0  0  0
  6  8  1  0  0  0  0
  6 13  1  0  0  0  0
  6 26  1  6  0  0  0
  7  9  1  0  0  0  0
  7 16  1  0  0  0  0
  7 19  1  1  0  0  0
  8 11  1  0  0  0  0
  8 14  1  0  0  0  0
  8 20  1  1  0  0  0
  9 15  1  0  0  0  0
  9 18  1  0  0  0  0
  9 27  1  6  0  0  0
 10 11  1  0  0  0  0
 10 28  1  0  0  0  0
 10 29  1  0  0  0  0
 11 30  1  0  0  0  0
 11 31  1  0  0  0  0
 12 15  1  0  0  0  0
 12 32  1  0  0  0  0
 12 33  1  0  0  0  0
 13 17  1  0  0  0  0
 13 34  1  0  0  0  0
 13 35  1  0  0  0  0
 14 17  1  0  0  0  0
 14 36  1  0  0  0  0
 15 37  1  0  0  0  0
 15 38  1  0  0  0  0
 16 21  1  0  0  0  0
 16 39  1  0  0  0  0
 16 40  1  0  0  0  0
 17 41  1  0  0  0  0
 17 42  1  0  0  0  0
 18 22  1  0  0  0  0
 18 43  1  0  0  0  0
 18 44  1  0  0  0  0
 19 45  1  0  0  0  0
 19 46  1  0  0  0  0
 19 47  1  0  0  0  0
 20 48  1  0  0  0  0
 20 49  1  0  0  0  0
 20 50  1  0  0  0  0
 21 22  1  0  0  0  0
 21 23  1  6  0  0  0
 21 51  1  0  0  0  0
 23 53  1  0  0  0  0
 23 54  1  0  0  0  0
M  END
> <PUBCHEM_COMPOUND_CID>
11274

> <PUBCHEM_COMPOUND_CANONICALIZED>
1

> <PUBCHEM_CACTVS_COMPLEXITY>
503

> <PUBCHEM_CACTVS_HBOND_ACCEPTOR>
3

> <PUBCHEM_CACTVS_HBOND_DONOR>
2

> <PUBCHEM_CACTVS_ROTATABLE_BOND>
1

> <PUBCHEM_CACTVS_SUBSKEYS>
AAADcfB4MAAAAAAAAAAAAAAAAAAAAYAAAAAwYMAAAAAAAGDAAAAAGgAACAAADxSggAICAAAAAgAIAIAQAAAAAAAAAAAAAAEAAAAAEBYAAAAAQAAEIAAAAAGIyPCPgAAAAAAAAACAAAQAACAAAIAADAAAAA==

> <PUBCHEM_IUPAC_OPENEYE_NAME>
(2S,5S,8R,9S,10S,13S,14S,17S)-17-hydroxy-2-(hydroxymethyl)-10,13-dimethyl-1,2,4,5,6,7,8,9,11,12,14,15,16,17-tetradecahydrocyclopenta[a]phenanthren-3-one

> <PUBCHEM_IUPAC_CAS_NAME>
(2S,5S,8R,9S,10S,13S,14S,17S)-17-hydroxy-2-(hydroxymethyl)-10,13-dimethyl-1,2,4,5,6,7,8,9,11,12,14,15,16,17-tetradecahydrocyclopenta[a]phenanthren-3-one

> <PUBCHEM_IUPAC_NAME>
(2S,5S,8R,9S,10S,13S,14S,17S)-17-hydroxy-2-(hydroxymethyl)-10,13-dimethyl-1,2,4,5,6,7,8,9,11,12,14,15,16,17-tetradecahydrocyclopenta[a]phenanthren-3-one

> <PUBCHEM_IUPAC_SYSTEMATIC_NAME>
(2S,5S,8R,9S,10S,13S,14S,17S)-2-(hydroxymethyl)-10,13-dimethyl-17-oxidanyl-1,2,4,5,6,7,8,9,11,12,14,15,16,17-tetradecahydrocyclopenta[a]phenanthren-3-one

> <PUBCHEM_IUPAC_TRADITIONAL_NAME>
(2S,5S,8R,9S,10S,13S,14S,17S)-17-hydroxy-10,13-dimethyl-2-methylol-1,2,4,5,6,7,8,9,11,12,14,15,16,17-tetradecahydrocyclopenta[a]phenanthren-3-one

> <PUBCHEM_IUPAC_INCHI>
InChI=1S/C20H32O3/c1-19-8-7-16-14(15(19)5-6-18(19)23)4-3-13-9-17(22)12(11-21)10-20(13,16)2/h12-16,18,21,23H,3-11H2,1-2H3/t12-,13-,14-,15-,16-,18-,19-,20-/m0/s1

> <PUBCHEM_IUPAC_INCHIKEY>
OKOKLFXLKDXQOK-VDBAHQDGSA-N

> <PUBCHEM_XLOGP3>
3.6

> <PUBCHEM_EXACT_MASS>
320.235145

> <PUBCHEM_MOLECULAR_FORMULA>
C20H32O3

> <PUBCHEM_MOLECULAR_WEIGHT>
320.46628

> <PUBCHEM_OPENEYE_CAN_SMILES>
CC12CCC3C(C1CCC2O)CCC4C3(CC(C(=O)C4)CO)C

> <PUBCHEM_OPENEYE_ISO_SMILES>
C[C@]12CC[C@H]3[C@H]([C@@H]1CC[C@@H]2O)CC[C@@H]4[C@@]3(C[C@H](C(=O)C4)CO)C

> <PUBCHEM_CACTVS_TPSA>
57.5

> <PUBCHEM_MONOISOTOPIC_WEIGHT>
320.235145

> <PUBCHEM_TOTAL_CHARGE>
0

> <PUBCHEM_HEAVY_ATOM_COUNT>
23

> <PUBCHEM_ATOM_DEF_STEREO_COUNT>
8

> <PUBCHEM_ATOM_UDEF_STEREO_COUNT>
0

> <PUBCHEM_BOND_DEF_STEREO_COUNT>
0

> <PUBCHEM_BOND_UDEF_STEREO_COUNT>
0

> <PUBCHEM_ISOTOPIC_ATOM_COUNT>
0

> <PUBCHEM_COMPONENT_COUNT>
1

> <PUBCHEM_CACTVS_TAUTO_COUNT>
3

> <PUBCHEM_COORDINATE_TYPE>
1
5
255

> <PUBCHEM_BONDANNOTATIONS>
14  1  5
21  23  6
4  24  6
5  25  5
6  26  6
7  19  5
8  20  5
9  27  6

$$$$

