11806
  -OEChem-06261206082D

 38 38  0     0  0  0  0  0  0999 V2000
    5.6648    2.6200    0.0000 Br  0  0  0  0  0  0  0  0  0  0  0  0
    1.5334    8.0206    0.0000 O   0  0  0  0  0  0  0  0  0  0  0  0
    2.2690    4.6200    0.0000 O   0  0  0  0  0  0  0  0  0  0  0  0
    0.5369    1.6200    0.0000 O   0  0  0  0  0  0  0  0  0  0  0  0
    2.2690    1.6200    0.0000 N   0  0  0  0  0  0  0  0  0  0  0  0
    1.4030    3.1200    0.0000 N   0  0  0  0  0  0  0  0  0  0  0  0
    4.1315    8.5206    0.0000 N   0  0  0  0  0  0  0  0  0  0  0  0
    4.0812    3.4247    0.0000 N   0  0  0  0  0  0  0  0  0  0  0  0
    4.0812    1.8153    0.0000 N   0  0  0  0  0  0  0  0  0  0  0  0
    3.2654    8.0206    0.0000 C   0  0  0  0  0  0  0  0  0  0  0  0
    2.3994    7.5206    0.0000 C   0  0  0  0  0  0  0  0  0  0  0  0
    2.7654    8.8866    0.0000 C   0  0  0  0  0  0  0  0  0  0  0  0
    3.7654    7.1546    0.0000 C   0  0  0  0  0  0  0  0  0  0  0  0
    3.1350    2.1200    0.0000 C   0  0  0  0  0  0  0  0  0  0  0  0
    3.1350    3.1200    0.0000 C   0  0  0  0  0  0  0  0  0  0  0  0
    2.2690    3.6200    0.0000 C   0  0  0  0  0  0  0  0  0  0  0  0
    1.4030    2.1200    0.0000 C   0  0  0  0  0  0  0  0  0  0  0  0
    2.2690    0.6200    0.0000 C   0  0  0  0  0  0  0  0  0  0  0  0
    0.5369    3.6200    0.0000 C   0  0  0  0  0  0  0  0  0  0  0  0
    4.6648    2.6200    0.0000 C   0  0  0  0  0  0  0  0  0  0  0  0
    2.0009    7.0456    0.0000 H   0  0  0  0  0  0  0  0  0  0  0  0
    2.7979    7.0456    0.0000 H   0  0  0  0  0  0  0  0  0  0  0  0
    3.3024    9.1966    0.0000 H   0  0  0  0  0  0  0  0  0  0  0  0
    2.4554    9.4236    0.0000 H   0  0  0  0  0  0  0  0  0  0  0  0
    2.2285    8.5766    0.0000 H   0  0  0  0  0  0  0  0  0  0  0  0
    3.2285    6.8446    0.0000 H   0  0  0  0  0  0  0  0  0  0  0  0
    4.0754    6.6176    0.0000 H   0  0  0  0  0  0  0  0  0  0  0  0
    4.3024    7.4646    0.0000 H   0  0  0  0  0  0  0  0  0  0  0  0
    4.6684    8.2106    0.0000 H   0  0  0  0  0  0  0  0  0  0  0  0
    4.1315    9.1406    0.0000 H   0  0  0  0  0  0  0  0  0  0  0  0
    4.2738    4.0140    0.0000 H   0  0  0  0  0  0  0  0  0  0  0  0
    1.6490    0.6200    0.0000 H   0  0  0  0  0  0  0  0  0  0  0  0
    2.2690    0.0000    0.0000 H   0  0  0  0  0  0  0  0  0  0  0  0
    2.8890    0.6200    0.0000 H   0  0  0  0  0  0  0  0  0  0  0  0
    0.8469    4.1569    0.0000 H   0  0  0  0  0  0  0  0  0  0  0  0
    0.0000    3.9300    0.0000 H   0  0  0  0  0  0  0  0  0  0  0  0
    0.2269    3.0831    0.0000 H   0  0  0  0  0  0  0  0  0  0  0  0
    0.9964    7.7106    0.0000 H   0  0  0  0  0  0  0  0  0  0  0  0
  1 20  1  0  0  0  0
  2 11  1  0  0  0  0
  2 38  1  0  0  0  0
  3 16  2  0  0  0  0
  4 17  2  0  0  0  0
  5 14  1  0  0  0  0
  5 17  1  0  0  0  0
  5 18  1  0  0  0  0
  6 16  1  0  0  0  0
  6 17  1  0  0  0  0
  6 19  1  0  0  0  0
  7 10  1  0  0  0  0
  7 29  1  0  0  0  0
  7 30  1  0  0  0  0
  8 15  1  0  0  0  0
  8 20  1  0  0  0  0
  8 31  1  0  0  0  0
  9 14  1  0  0  0  0
  9 20  2  0  0  0  0
 10 11  1  0  0  0  0
 10 12  1  0  0  0  0
 10 13  1  0  0  0  0
 11 21  1  0  0  0  0
 11 22  1  0  0  0  0
 12 23  1  0  0  0  0
 12 24  1  0  0  0  0
 12 25  1  0  0  0  0
 13 26  1  0  0  0  0
 13 27  1  0  0  0  0
 13 28  1  0  0  0  0
 14 15  2  0  0  0  0
 15 16  1  0  0  0  0
 18 32  1  0  0  0  0
 18 33  1  0  0  0  0
 18 34  1  0  0  0  0
 19 35  1  0  0  0  0
 19 36  1  0  0  0  0
 19 37  1  0  0  0  0
M  END
> <PUBCHEM_COMPOUND_CID>
11806

> <PUBCHEM_COMPOUND_CANONICALIZED>
1

> <PUBCHEM_CACTVS_COMPLEXITY>
340

> <PUBCHEM_CACTVS_HBOND_ACCEPTOR>
5

> <PUBCHEM_CACTVS_HBOND_DONOR>
3

> <PUBCHEM_CACTVS_ROTATABLE_BOND>
1

> <PUBCHEM_CACTVS_SUBSKEYS>
AAADceBzsAAAEAAAAAAAAAAAAAAAAWAAAAAsAAAAAAAAAFgBgAAAHgBQCAAAHIihlgYDsBfJkgCoAQdwdACAgC2HEKABEQGoVECCWAhASCAUQIgIFyJAAGAAAAAAAAAAAAAAAAAAAAAAAAAAAAAAAAAAAA==

> <PUBCHEM_IUPAC_OPENEYE_NAME>
2-amino-2-methyl-propan-1-ol; 8-bromo-1,3-dimethyl-7H-purine-2,6-dione

> <PUBCHEM_IUPAC_CAS_NAME>
2-amino-2-methyl-1-propanol; 8-bromo-1,3-dimethyl-7H-purine-2,6-dione

> <PUBCHEM_IUPAC_NAME>
2-amino-2-methylpropan-1-ol; 8-bromo-1,3-dimethyl-7H-purine-2,6-dione

> <PUBCHEM_IUPAC_SYSTEMATIC_NAME>
2-azanyl-2-methyl-propan-1-ol; 8-bromanyl-1,3-dimethyl-7H-purine-2,6-dione

> <PUBCHEM_IUPAC_TRADITIONAL_NAME>
2-amino-2-methyl-propan-1-ol; 8-bromo-1,3-dimethyl-7H-purine-2,6-quinone

> <PUBCHEM_IUPAC_INCHI>
InChI=1S/C7H7BrN4O2.C4H11NO/c1-11-4-3(9-6(8)10-4)5(13)12(2)7(11)14;1-4(2,5)3-6/h1-2H3,(H,9,10);6H,3,5H2,1-2H3

> <PUBCHEM_IUPAC_INCHIKEY>
ATOTUUBRFJHZQG-UHFFFAOYSA-N

> <PUBCHEM_EXACT_MASS>
347.059302

> <PUBCHEM_MOLECULAR_FORMULA>
C11H18BrN5O3

> <PUBCHEM_MOLECULAR_WEIGHT>
348.19632

> <PUBCHEM_OPENEYE_CAN_SMILES>
CC(C)(CO)N.CN1C2=C(C(=O)N(C1=O)C)NC(=N2)Br

> <PUBCHEM_OPENEYE_ISO_SMILES>
CC(C)(CO)N.CN1C2=C(C(=O)N(C1=O)C)NC(=N2)Br

> <PUBCHEM_CACTVS_TPSA>
116

> <PUBCHEM_MONOISOTOPIC_WEIGHT>
347.059302

> <PUBCHEM_TOTAL_CHARGE>
0

> <PUBCHEM_HEAVY_ATOM_COUNT>
20

> <PUBCHEM_ATOM_DEF_STEREO_COUNT>
0

> <PUBCHEM_ATOM_UDEF_STEREO_COUNT>
0

> <PUBCHEM_BOND_DEF_STEREO_COUNT>
0

> <PUBCHEM_BOND_UDEF_STEREO_COUNT>
0

> <PUBCHEM_ISOTOPIC_ATOM_COUNT>
0

> <PUBCHEM_COMPONENT_COUNT>
2

> <PUBCHEM_CACTVS_TAUTO_COUNT>
4

> <PUBCHEM_COORDINATE_TYPE>
1
5
255

> <PUBCHEM_BONDANNOTATIONS>
14  15  8
15  16  8
5  14  8
5  17  8
6  16  8
6  17  8
8  15  8
8  20  8
9  14  8
9  20  8

$$$$

