3489
  -OEChem-06251223262D

 34 35  0     0  0  0  0  0  0999 V2000
    3.9706    1.7298    0.0000 S   0  0  0  0  0  0  0  0  0  0  0  0
    3.0000   -0.7648    0.0000 S   0  0  0  0  0  0  0  0  0  0  0  0
    4.0000   -0.7648    0.0000 O   0  0  0  0  0  0  0  0  0  0  0  0
    2.0000   -0.7648    0.0000 O   0  0  0  0  0  0  0  0  0  0  0  0
    5.4487    1.0716    0.0000 N   0  0  0  0  0  0  0  0  0  0  0  0
    3.0000    0.2352    0.0000 N   0  0  0  0  0  0  0  0  0  0  0  0
    4.7796    0.3285    0.0000 N   0  0  0  0  0  0  0  0  0  0  0  0
    5.3554    2.8512    0.0000 C   0  0  0  0  0  0  0  0  0  0  0  0
    4.9487    1.9377    0.0000 C   0  0  0  0  0  0  0  0  0  0  0  0
    5.7622    3.7648    0.0000 C   0  0  0  0  0  0  0  0  0  0  0  0
    6.2690    2.4445    0.0000 C   0  0  0  0  0  0  0  0  0  0  0  0
    4.4419    3.2580    0.0000 C   0  0  0  0  0  0  0  0  0  0  0  0
    3.8660    0.7352    0.0000 C   0  0  0  0  0  0  0  0  0  0  0  0
    3.0000   -1.7648    0.0000 C   0  0  0  0  0  0  0  0  0  0  0  0
    2.1340   -2.2648    0.0000 C   0  0  0  0  0  0  0  0  0  0  0  0
    3.8660   -2.2648    0.0000 C   0  0  0  0  0  0  0  0  0  0  0  0
    2.1340   -3.2648    0.0000 C   0  0  0  0  0  0  0  0  0  0  0  0
    3.8660   -3.2648    0.0000 C   0  0  0  0  0  0  0  0  0  0  0  0
    3.0000   -3.7648    0.0000 C   0  0  0  0  0  0  0  0  0  0  0  0
    6.3286    3.5126    0.0000 H   0  0  0  0  0  0  0  0  0  0  0  0
    6.0144    4.3312    0.0000 H   0  0  0  0  0  0  0  0  0  0  0  0
    5.1958    4.0169    0.0000 H   0  0  0  0  0  0  0  0  0  0  0  0
    6.0168    1.8781    0.0000 H   0  0  0  0  0  0  0  0  0  0  0  0
    6.8354    2.1923    0.0000 H   0  0  0  0  0  0  0  0  0  0  0  0
    6.5212    3.0109    0.0000 H   0  0  0  0  0  0  0  0  0  0  0  0
    4.6941    3.8244    0.0000 H   0  0  0  0  0  0  0  0  0  0  0  0
    3.8755    3.5101    0.0000 H   0  0  0  0  0  0  0  0  0  0  0  0
    4.1897    2.6916    0.0000 H   0  0  0  0  0  0  0  0  0  0  0  0
    2.4631    0.5452    0.0000 H   0  0  0  0  0  0  0  0  0  0  0  0
    1.5970   -1.9548    0.0000 H   0  0  0  0  0  0  0  0  0  0  0  0
    4.4030   -1.9548    0.0000 H   0  0  0  0  0  0  0  0  0  0  0  0
    1.5970   -3.5748    0.0000 H   0  0  0  0  0  0  0  0  0  0  0  0
    4.4030   -3.5748    0.0000 H   0  0  0  0  0  0  0  0  0  0  0  0
    3.0000   -4.3848    0.0000 H   0  0  0  0  0  0  0  0  0  0  0  0
  1  9  1  0  0  0  0
  1 13  1  0  0  0  0
  2  3  2  0  0  0  0
  2  4  2  0  0  0  0
  2  6  1  0  0  0  0
  2 14  1  0  0  0  0
  5  7  1  0  0  0  0
  5  9  2  0  0  0  0
  6 13  1  0  0  0  0
  6 29  1  0  0  0  0
  7 13  2  0  0  0  0
  8  9  1  0  0  0  0
  8 10  1  0  0  0  0
  8 11  1  0  0  0  0
  8 12  1  0  0  0  0
 10 20  1  0  0  0  0
 10 21  1  0  0  0  0
 10 22  1  0  0  0  0
 11 23  1  0  0  0  0
 11 24  1  0  0  0  0
 11 25  1  0  0  0  0
 12 26  1  0  0  0  0
 12 27  1  0  0  0  0
 12 28  1  0  0  0  0
 14 15  2  0  0  0  0
 14 16  1  0  0  0  0
 15 17  1  0  0  0  0
 15 30  1  0  0  0  0
 16 18  2  0  0  0  0
 16 31  1  0  0  0  0
 17 19  2  0  0  0  0
 17 32  1  0  0  0  0
 18 19  1  0  0  0  0
 18 33  1  0  0  0  0
 19 34  1  0  0  0  0
M  END
> <PUBCHEM_COMPOUND_CID>
3489

> <PUBCHEM_COMPOUND_CANONICALIZED>
1

> <PUBCHEM_CACTVS_COMPLEXITY>
394

> <PUBCHEM_CACTVS_HBOND_ACCEPTOR>
6

> <PUBCHEM_CACTVS_HBOND_DONOR>
1

> <PUBCHEM_CACTVS_ROTATABLE_BOND>
4

> <PUBCHEM_CACTVS_SUBSKEYS>
AAADccBzMABgAAAAAAAAAAAAAAAAAWAAAAAwAAAAAAAAAAABwAAAHAQYQAAADgCBUgAzEYBAAAqmACBiIHBSAJJgABEciBggAIgIICKgERCAIAAwiAAIiAcAAAAAAAAAAAAAAAAAAAAAAAAAAAAAAAAAAA==

> <PUBCHEM_IUPAC_OPENEYE_NAME>
N-(5-tert-butyl-1,3,4-thiadiazol-2-yl)benzenesulfonamide

> <PUBCHEM_IUPAC_CAS_NAME>
N-(5-tert-butyl-1,3,4-thiadiazol-2-yl)benzenesulfonamide

> <PUBCHEM_IUPAC_NAME>
N-(5-tert-butyl-1,3,4-thiadiazol-2-yl)benzenesulfonamide

> <PUBCHEM_IUPAC_SYSTEMATIC_NAME>
N-(5-tert-butyl-1,3,4-thiadiazol-2-yl)benzenesulfonamide

> <PUBCHEM_IUPAC_TRADITIONAL_NAME>
N-(5-tert-butyl-1,3,4-thiadiazol-2-yl)benzenesulfonamide

> <PUBCHEM_IUPAC_INCHI>
InChI=1S/C12H15N3O2S2/c1-12(2,3)10-13-14-11(18-10)15-19(16,17)9-7-5-4-6-8-9/h4-8H,1-3H3,(H,14,15)

> <PUBCHEM_IUPAC_INCHIKEY>
NMWQEPCLNXHPDX-UHFFFAOYSA-N

> <PUBCHEM_XLOGP3>
2.5

> <PUBCHEM_EXACT_MASS>
297.060569

> <PUBCHEM_MOLECULAR_FORMULA>
C12H15N3O2S2

> <PUBCHEM_MOLECULAR_WEIGHT>
297.3964

> <PUBCHEM_OPENEYE_CAN_SMILES>
CC(C)(C)C1=NN=C(S1)NS(=O)(=O)C2=CC=CC=C2

> <PUBCHEM_OPENEYE_ISO_SMILES>
CC(C)(C)C1=NN=C(S1)NS(=O)(=O)C2=CC=CC=C2

> <PUBCHEM_CACTVS_TPSA>
109

> <PUBCHEM_MONOISOTOPIC_WEIGHT>
297.060569

> <PUBCHEM_TOTAL_CHARGE>
0

> <PUBCHEM_HEAVY_ATOM_COUNT>
19

> <PUBCHEM_ATOM_DEF_STEREO_COUNT>
0

> <PUBCHEM_ATOM_UDEF_STEREO_COUNT>
0

> <PUBCHEM_BOND_DEF_STEREO_COUNT>
0

> <PUBCHEM_BOND_UDEF_STEREO_COUNT>
0

> <PUBCHEM_ISOTOPIC_ATOM_COUNT>
0

> <PUBCHEM_COMPONENT_COUNT>
1

> <PUBCHEM_CACTVS_TAUTO_COUNT>
2

> <PUBCHEM_COORDINATE_TYPE>
1
5
255

> <PUBCHEM_BONDANNOTATIONS>
1  13  8
1  9  8
14  15  8
14  16  8
15  17  8
16  18  8
17  19  8
18  19  8
5  7  8
5  9  8
7  13  8

$$$$

