585208
  -OEChem-06241222452D

 58 61  0     1  0  0  0  0  0999 V2000
    4.5390    0.1801    0.0000 S   0  0  0  0  0  0  0  0  0  0  0  0
    5.5390    0.1801    0.0000 O   0  0  0  0  0  0  0  0  0  0  0  0
    3.5390    0.1801    0.0000 O   0  0  0  0  0  0  0  0  0  0  0  0
    6.2711    3.1801    0.0000 O   0  0  0  0  0  0  0  0  0  0  0  0
    4.5390    4.1801    0.0000 O   0  0  0  0  0  0  0  0  0  0  0  0
    4.5390   -0.8199    0.0000 N   0  0  0  0  0  0  0  0  0  0  0  0
    3.6730   -2.3199    0.0000 C   0  0  0  0  0  0  0  0  0  0  0  0
    2.9819   -4.2033    0.0000 C   0  0  0  0  0  0  0  0  0  0  0  0
    4.5092   -3.7682    0.0000 C   0  0  0  0  0  0  0  0  0  0  0  0
    2.8368   -3.7682    0.0000 C   0  0  0  0  0  0  0  0  0  0  0  0
    4.5092   -2.8027    0.0000 C   0  0  0  0  0  0  0  0  0  0  0  0
    2.8368   -2.8027    0.0000 C   0  0  0  0  0  0  0  0  0  0  0  0
    2.9819   -3.1580    0.0000 C   0  0  0  0  0  0  0  0  0  0  0  0
    3.6730   -4.0710    0.0000 C   0  0  0  0  0  0  0  0  0  0  0  0
    2.0000   -4.2510    0.0000 C   0  0  0  0  0  0  0  0  0  0  0  0
    3.8876   -4.6801    0.0000 C   0  0  0  0  0  0  0  0  0  0  0  0
    3.6730   -1.3199    0.0000 C   0  0  3  0  0  0  0  0  0  0  0  0
    2.8070   -0.8199    0.0000 C   0  0  0  0  0  0  0  0  0  0  0  0
    2.8070    0.1801    0.0000 C   0  0  0  0  0  0  0  0  0  0  0  0
    4.5390    1.1801    0.0000 C   0  0  0  0  0  0  0  0  0  0  0  0
    5.4050    1.6801    0.0000 C   0  0  0  0  0  0  0  0  0  0  0  0
    3.6730    1.6801    0.0000 C   0  0  0  0  0  0  0  0  0  0  0  0
    5.4050    2.6801    0.0000 C   0  0  0  0  0  0  0  0  0  0  0  0
    3.6730    2.6801    0.0000 C   0  0  0  0  0  0  0  0  0  0  0  0
    4.5390    3.1801    0.0000 C   0  0  0  0  0  0  0  0  0  0  0  0
    7.1371    2.6801    0.0000 C   0  0  0  0  0  0  0  0  0  0  0  0
    3.6730    4.6801    0.0000 C   0  0  0  0  0  0  0  0  0  0  0  0
    2.8912   -4.3858    0.0000 H   0  0  0  0  0  0  0  0  0  0  0  0
    5.1016   -3.9509    0.0000 H   0  0  0  0  0  0  0  0  0  0  0  0
    2.8478   -4.8086    0.0000 H   0  0  0  0  0  0  0  0  0  0  0  0
    2.6247   -2.2201    0.0000 H   0  0  0  0  0  0  0  0  0  0  0  0
    2.2262   -2.9103    0.0000 H   0  0  0  0  0  0  0  0  0  0  0  0
    5.1198   -2.9103    0.0000 H   0  0  0  0  0  0  0  0  0  0  0  0
    4.7212   -2.2201    0.0000 H   0  0  0  0  0  0  0  0  0  0  0  0
    2.6383   -2.6420    0.0000 H   0  0  0  0  0  0  0  0  0  0  0  0
    2.3885   -3.3375    0.0000 H   0  0  0  0  0  0  0  0  0  0  0  0
    3.3030   -4.5685    0.0000 H   0  0  0  0  0  0  0  0  0  0  0  0
    4.0430   -4.5685    0.0000 H   0  0  0  0  0  0  0  0  0  0  0  0
    1.5188   -3.8601    0.0000 H   0  0  0  0  0  0  0  0  0  0  0  0
    1.8068   -4.8401    0.0000 H   0  0  0  0  0  0  0  0  0  0  0  0
    3.5782   -5.2174    0.0000 H   0  0  0  0  0  0  0  0  0  0  0  0
    4.4127   -5.0097    0.0000 H   0  0  0  0  0  0  0  0  0  0  0  0
    3.6730   -0.6999    0.0000 H   0  0  0  0  0  0  0  0  0  0  0  0
    2.1964   -0.7122    0.0000 H   0  0  0  0  0  0  0  0  0  0  0  0
    2.5949   -1.4025    0.0000 H   0  0  0  0  0  0  0  0  0  0  0  0
    5.0760   -1.1299    0.0000 H   0  0  0  0  0  0  0  0  0  0  0  0
    3.4270    0.1801    0.0000 H   0  0  0  0  0  0  0  0  0  0  0  0
    2.8070    0.8001    0.0000 H   0  0  0  0  0  0  0  0  0  0  0  0
    2.1870    0.1801    0.0000 H   0  0  0  0  0  0  0  0  0  0  0  0
    5.9420    1.3701    0.0000 H   0  0  0  0  0  0  0  0  0  0  0  0
    3.1360    1.3701    0.0000 H   0  0  0  0  0  0  0  0  0  0  0  0
    3.1360    2.9901    0.0000 H   0  0  0  0  0  0  0  0  0  0  0  0
    6.8271    2.1432    0.0000 H   0  0  0  0  0  0  0  0  0  0  0  0
    7.6740    2.3701    0.0000 H   0  0  0  0  0  0  0  0  0  0  0  0
    7.4471    3.2171    0.0000 H   0  0  0  0  0  0  0  0  0  0  0  0
    3.9830    5.2171    0.0000 H   0  0  0  0  0  0  0  0  0  0  0  0
    3.1360    4.9901    0.0000 H   0  0  0  0  0  0  0  0  0  0  0  0
    3.3630    4.1432    0.0000 H   0  0  0  0  0  0  0  0  0  0  0  0
  1  2  2  0  0  0  0
  1  3  2  0  0  0  0
  1  6  1  0  0  0  0
  1 20  1  0  0  0  0
  4 23  1  0  0  0  0
  4 26  1  0  0  0  0
  5 25  1  0  0  0  0
  5 27  1  0  0  0  0
  6 17  1  0  0  0  0
  6 46  1  0  0  0  0
  7 11  1  0  0  0  0
  7 12  1  0  0  0  0
  7 13  1  0  0  0  0
  7 17  1  0  0  0  0
  8 13  1  0  0  0  0
  8 15  1  0  0  0  0
  8 16  1  0  0  0  0
  8 30  1  0  0  0  0
  9 11  1  0  0  0  0
  9 14  1  0  0  0  0
  9 16  1  0  0  0  0
  9 29  1  0  0  0  0
 10 12  1  0  0  0  0
 10 14  1  0  0  0  0
 10 15  1  0  0  0  0
 10 28  1  0  0  0  0
 11 33  1  0  0  0  0
 11 34  1  0  0  0  0
 12 31  1  0  0  0  0
 12 32  1  0  0  0  0
 13 35  1  0  0  0  0
 13 36  1  0  0  0  0
 14 37  1  0  0  0  0
 14 38  1  0  0  0  0
 15 39  1  0  0  0  0
 15 40  1  0  0  0  0
 16 41  1  0  0  0  0
 16 42  1  0  0  0  0
 17 18  1  0  0  0  0
 17 43  1  0  0  0  0
 18 19  1  0  0  0  0
 18 44  1  0  0  0  0
 18 45  1  0  0  0  0
 19 47  1  0  0  0  0
 19 48  1  0  0  0  0
 19 49  1  0  0  0  0
 20 21  2  0  0  0  0
 20 22  1  0  0  0  0
 21 23  1  0  0  0  0
 21 50  1  0  0  0  0
 22 24  2  0  0  0  0
 22 51  1  0  0  0  0
 23 25  2  0  0  0  0
 24 25  1  0  0  0  0
 24 52  1  0  0  0  0
 26 53  1  0  0  0  0
 26 54  1  0  0  0  0
 26 55  1  0  0  0  0
 27 56  1  0  0  0  0
 27 57  1  0  0  0  0
 27 58  1  0  0  0  0
M  END
> <PUBCHEM_COMPOUND_CID>
585208

> <PUBCHEM_COMPOUND_CANONICALIZED>
1

> <PUBCHEM_CACTVS_COMPLEXITY>
587

> <PUBCHEM_CACTVS_HBOND_ACCEPTOR>
5

> <PUBCHEM_CACTVS_HBOND_DONOR>
1

> <PUBCHEM_CACTVS_ROTATABLE_BOND>
7

> <PUBCHEM_CACTVS_SUBSKEYS>
AAADceB6OABAAAAAAAAAAAAAAAAAAAAAAAAwYMGDAAAAAAABAAAAHgQQQAAADyzB0AYyB4BABAKAACBCAHBCCBAgIAAIiJgGiIgNJiKEsRqAMCIk0BEKqAeQwMAPAIAABAAAQAABAAQIAACAAAAAAAAAAA==

> <PUBCHEM_IUPAC_OPENEYE_NAME>
N-[1-(1-adamantyl)propyl]-3,4-dimethoxy-benzenesulfonamide

> <PUBCHEM_IUPAC_CAS_NAME>
N-[1-(1-adamantyl)propyl]-3,4-dimethoxybenzenesulfonamide

> <PUBCHEM_IUPAC_NAME>
N-[1-(1-adamantyl)propyl]-3,4-dimethoxybenzenesulfonamide

> <PUBCHEM_IUPAC_SYSTEMATIC_NAME>
N-[1-(1-adamantyl)propyl]-3,4-dimethoxy-benzenesulfonamide

> <PUBCHEM_IUPAC_TRADITIONAL_NAME>
N-[1-(1-adamantyl)propyl]-3,4-dimethoxy-benzenesulfonamide

> <PUBCHEM_IUPAC_INCHI>
InChI=1S/C21H31NO4S/c1-4-20(21-11-14-7-15(12-21)9-16(8-14)13-21)22-27(23,24)17-5-6-18(25-2)19(10-17)26-3/h5-6,10,14-16,20,22H,4,7-9,11-13H2,1-3H3

> <PUBCHEM_IUPAC_INCHIKEY>
QVDZKJVVICQBCN-UHFFFAOYSA-N

> <PUBCHEM_XLOGP3_AA>
4.7

> <PUBCHEM_EXACT_MASS>
393.197379

> <PUBCHEM_MOLECULAR_FORMULA>
C21H31NO4S

> <PUBCHEM_MOLECULAR_WEIGHT>
393.54014

> <PUBCHEM_OPENEYE_CAN_SMILES>
CCC(C12CC3CC(C1)CC(C3)C2)NS(=O)(=O)C4=CC(=C(C=C4)OC)OC

> <PUBCHEM_OPENEYE_ISO_SMILES>
CCC(C12CC3CC(C1)CC(C3)C2)NS(=O)(=O)C4=CC(=C(C=C4)OC)OC

> <PUBCHEM_CACTVS_TPSA>
73

> <PUBCHEM_MONOISOTOPIC_WEIGHT>
393.197379

> <PUBCHEM_TOTAL_CHARGE>
0

> <PUBCHEM_HEAVY_ATOM_COUNT>
27

> <PUBCHEM_ATOM_DEF_STEREO_COUNT>
0

> <PUBCHEM_ATOM_UDEF_STEREO_COUNT>
1

> <PUBCHEM_BOND_DEF_STEREO_COUNT>
0

> <PUBCHEM_BOND_UDEF_STEREO_COUNT>
0

> <PUBCHEM_ISOTOPIC_ATOM_COUNT>
0

> <PUBCHEM_COMPONENT_COUNT>
1

> <PUBCHEM_CACTVS_TAUTO_COUNT>
1

> <PUBCHEM_COORDINATE_TYPE>
1
5
255

> <PUBCHEM_BONDANNOTATIONS>
17  18  3
20  21  8
20  22  8
21  23  8
22  24  8
23  25  8
24  25  8

$$$$

