47205628
  -OEChem-06241222592D

 27 28  0     0  0  0  0  0  0999 V2000
    2.0000   -2.0202    0.0000 Cl  0  0  0  0  0  0  0  0  0  0  0  0
    3.7320    0.9798    0.0000 O   0  0  0  0  0  0  0  0  0  0  0  0
    5.4641    0.9798    0.0000 N   0  0  0  0  0  0  0  0  0  0  0  0
    4.9641    3.5186    0.0000 N   0  0  0  0  0  0  0  0  0  0  0  0
    5.9641    3.5186    0.0000 N   0  0  0  0  0  0  0  0  0  0  0  0
    3.7320   -2.0202    0.0000 C   0  0  0  0  0  0  0  0  0  0  0  0
    5.4641    1.9798    0.0000 C   0  0  0  0  0  0  0  0  0  0  0  0
    3.7320   -1.0202    0.0000 C   0  0  0  0  0  0  0  0  0  0  0  0
    2.8660   -2.5202    0.0000 C   0  0  0  0  0  0  0  0  0  0  0  0
    4.5981   -2.5202    0.0000 C   0  0  0  0  0  0  0  0  0  0  0  0
    4.5981   -0.5202    0.0000 C   0  0  0  0  0  0  0  0  0  0  0  0
    4.5981    0.4798    0.0000 C   0  0  0  0  0  0  0  0  0  0  0  0
    4.6551    2.5676    0.0000 C   0  0  0  0  0  0  0  0  0  0  0  0
    6.2731    2.5676    0.0000 C   0  0  0  0  0  0  0  0  0  0  0  0
    2.8660   -3.5202    0.0000 C   0  0  0  0  0  0  0  0  0  0  0  0
    4.5981   -3.5202    0.0000 C   0  0  0  0  0  0  0  0  0  0  0  0
    3.7320   -4.0202    0.0000 C   0  0  0  0  0  0  0  0  0  0  0  0
    3.1951   -0.7102    0.0000 H   0  0  0  0  0  0  0  0  0  0  0  0
    6.0010    0.6698    0.0000 H   0  0  0  0  0  0  0  0  0  0  0  0
    5.1350   -2.2102    0.0000 H   0  0  0  0  0  0  0  0  0  0  0  0
    5.1350   -0.8302    0.0000 H   0  0  0  0  0  0  0  0  0  0  0  0
    4.0654    2.3760    0.0000 H   0  0  0  0  0  0  0  0  0  0  0  0
    6.8628    2.3760    0.0000 H   0  0  0  0  0  0  0  0  0  0  0  0
    2.3291   -3.8302    0.0000 H   0  0  0  0  0  0  0  0  0  0  0  0
    5.1350   -3.8302    0.0000 H   0  0  0  0  0  0  0  0  0  0  0  0
    3.7320   -4.6402    0.0000 H   0  0  0  0  0  0  0  0  0  0  0  0
    4.5997    4.0202    0.0000 H   0  0  0  0  0  0  0  0  0  0  0  0
  1  9  1  0  0  0  0
  2 12  2  0  0  0  0
  3  7  1  0  0  0  0
  3 12  1  0  0  0  0
  3 19  1  0  0  0  0
  4  5  1  0  0  0  0
  4 13  1  0  0  0  0
  4 27  1  0  0  0  0
  5 14  2  0  0  0  0
  6  8  1  0  0  0  0
  6  9  1  0  0  0  0
  6 10  2  0  0  0  0
  7 13  2  0  0  0  0
  7 14  1  0  0  0  0
  8 11  2  3  0  0  0
  8 18  1  0  0  0  0
  9 15  2  0  0  0  0
 10 16  1  0  0  0  0
 10 20  1  0  0  0  0
 11 12  1  0  0  0  0
 11 21  1  0  0  0  0
 13 22  1  0  0  0  0
 14 23  1  0  0  0  0
 15 17  1  0  0  0  0
 15 24  1  0  0  0  0
 16 17  2  0  0  0  0
 16 25  1  0  0  0  0
 17 26  1  0  0  0  0
M  END
> <PUBCHEM_COMPOUND_CID>
47205628

> <PUBCHEM_COMPOUND_CANONICALIZED>
1

> <PUBCHEM_CACTVS_COMPLEXITY>
296

> <PUBCHEM_CACTVS_HBOND_ACCEPTOR>
2

> <PUBCHEM_CACTVS_HBOND_DONOR>
2

> <PUBCHEM_CACTVS_ROTATABLE_BOND>
3

> <PUBCHEM_CACTVS_SUBSKEYS>
AAADccBzIAAEAAAAAAAAAAAAAAAAAWAAAAAwAAAAAAAAAAABwAAAHgIYAAAADArBmiQ8wJLjAACqAjV3UACSBAAhlwAYuaAgdtgIYKKBU1CQpAAgnACIiYcAgAAOAAAAAAABAAAAAAAAAAIAAAAAAAAAAA==

> <PUBCHEM_IUPAC_OPENEYE_NAME>
3-(2-chlorophenyl)-N-(1H-pyrazol-4-yl)prop-2-enamide

> <PUBCHEM_IUPAC_CAS_NAME>
3-(2-chlorophenyl)-N-(1H-pyrazol-4-yl)-2-propenamide

> <PUBCHEM_IUPAC_NAME>
3-(2-chlorophenyl)-N-(1H-pyrazol-4-yl)prop-2-enamide

> <PUBCHEM_IUPAC_SYSTEMATIC_NAME>
3-(2-chlorophenyl)-N-(1H-pyrazol-4-yl)prop-2-enamide

> <PUBCHEM_IUPAC_TRADITIONAL_NAME>
3-(2-chlorophenyl)-N-(1H-pyrazol-4-yl)acrylamide

> <PUBCHEM_IUPAC_INCHI>
InChI=1S/C12H10ClN3O/c13-11-4-2-1-3-9(11)5-6-12(17)16-10-7-14-15-8-10/h1-8H,(H,14,15)(H,16,17)

> <PUBCHEM_IUPAC_INCHIKEY>
XWQNVOWGIHHVIV-UHFFFAOYSA-N

> <PUBCHEM_XLOGP3_AA>
2.1

> <PUBCHEM_EXACT_MASS>
247.05124

> <PUBCHEM_MOLECULAR_FORMULA>
C12H10ClN3O

> <PUBCHEM_MOLECULAR_WEIGHT>
247.6803

> <PUBCHEM_OPENEYE_CAN_SMILES>
C1=CC=C(C(=C1)C=CC(=O)NC2=CNN=C2)Cl

> <PUBCHEM_OPENEYE_ISO_SMILES>
C1=CC=C(C(=C1)C=CC(=O)NC2=CNN=C2)Cl

> <PUBCHEM_CACTVS_TPSA>
57.8

> <PUBCHEM_MONOISOTOPIC_WEIGHT>
247.05124

> <PUBCHEM_TOTAL_CHARGE>
0

> <PUBCHEM_HEAVY_ATOM_COUNT>
17

> <PUBCHEM_ATOM_DEF_STEREO_COUNT>
0

> <PUBCHEM_ATOM_UDEF_STEREO_COUNT>
0

> <PUBCHEM_BOND_DEF_STEREO_COUNT>
0

> <PUBCHEM_BOND_UDEF_STEREO_COUNT>
1

> <PUBCHEM_ISOTOPIC_ATOM_COUNT>
0

> <PUBCHEM_COMPONENT_COUNT>
1

> <PUBCHEM_CACTVS_TAUTO_COUNT>
4

> <PUBCHEM_COORDINATE_TYPE>
1
5
255

> <PUBCHEM_BONDANNOTATIONS>
10  16  8
15  17  8
16  17  8
4  13  8
4  5  8
5  14  8
6  10  8
6  9  8
7  13  8
7  14  8
8  11  1
9  15  8

$$$$

