13670
  -OEChem-06241222392D

 28 30  0     1  0  0  0  0  0999 V2000
    3.7320   -0.7244    0.0000 O   0  0  0  0  0  0  0  0  0  0  0  0
    4.5981   -2.2244    0.0000 O   0  0  0  0  0  0  0  0  0  0  0  0
    5.4641   -0.7244    0.0000 N   0  0  0  0  0  0  0  0  0  0  0  0
    6.4645   -0.7241    0.0000 C   0  0  3  0  0  0  0  0  0  0  0  0
    5.9645    0.1419    0.0000 C   0  0  3  0  0  0  0  0  0  0  0  0
    8.1966    0.2759    0.0000 C   0  0  3  0  0  0  0  0  0  0  0  0
    8.4554    1.2418    0.0000 C   0  0  3  0  0  0  0  0  0  0  0  0
    7.7188    2.2244    0.0000 C   0  0  0  0  0  0  0  0  0  0  0  0
   10.0285   -0.4830    0.0000 C   0  0  0  0  0  0  0  0  0  0  0  0
   10.2874    0.4830    0.0000 C   0  0  0  0  0  0  0  0  0  0  0  0
    4.5981   -1.2244    0.0000 C   0  0  0  0  0  0  0  0  0  0  0  0
    2.8660   -1.2244    0.0000 C   0  0  0  0  0  0  0  0  0  0  0  0
    2.0000   -0.7244    0.0000 C   0  0  0  0  0  0  0  0  0  0  0  0
    5.5504    0.6033    0.0000 H   0  0  0  0  0  0  0  0  0  0  0  0
    6.6251   -1.3230    0.0000 H   0  0  0  0  0  0  0  0  0  0  0  0
    8.8356    1.7315    0.0000 H   0  0  0  0  0  0  0  0  0  0  0  0
    8.6671    0.6797    0.0000 H   0  0  0  0  0  0  0  0  0  0  0  0
    8.0366    2.7567    0.0000 H   0  0  0  0  0  0  0  0  0  0  0  0
    7.1057    2.3164    0.0000 H   0  0  0  0  0  0  0  0  0  0  0  0
   10.8787    0.2965    0.0000 H   0  0  0  0  0  0  0  0  0  0  0  0
   10.4994    1.0656    0.0000 H   0  0  0  0  0  0  0  0  0  0  0  0
    9.8165   -1.0656    0.0000 H   0  0  0  0  0  0  0  0  0  0  0  0
   10.6199   -0.6694    0.0000 H   0  0  0  0  0  0  0  0  0  0  0  0
    2.4675   -1.6994    0.0000 H   0  0  0  0  0  0  0  0  0  0  0  0
    3.2646   -1.6994    0.0000 H   0  0  0  0  0  0  0  0  0  0  0  0
    2.3100   -0.1875    0.0000 H   0  0  0  0  0  0  0  0  0  0  0  0
    1.4631   -0.4144    0.0000 H   0  0  0  0  0  0  0  0  0  0  0  0
    1.6900   -1.2613    0.0000 H   0  0  0  0  0  0  0  0  0  0  0  0
  1 11  1  0  0  0  0
  1 12  1  0  0  0  0
  2 11  2  0  0  0  0
  3  4  1  0  0  0  0
  3  5  1  0  0  0  0
  3 11  1  0  0  0  0
  4  5  1  0  0  0  0
  4  6  1  0  0  0  0
  4 15  1  0  0  0  0
  5  7  1  0  0  0  0
  5 14  1  0  0  0  0
  6  8  1  0  0  0  0
  6  9  1  0  0  0  0
  6 17  1  0  0  0  0
  7  8  1  0  0  0  0
  7 10  1  0  0  0  0
  7 16  1  0  0  0  0
  8 18  1  0  0  0  0
  8 19  1  0  0  0  0
  9 10  1  0  0  0  0
  9 22  1  0  0  0  0
  9 23  1  0  0  0  0
 10 20  1  0  0  0  0
 10 21  1  0  0  0  0
 12 13  1  0  0  0  0
 12 24  1  0  0  0  0
 12 25  1  0  0  0  0
 13 26  1  0  0  0  0
 13 27  1  0  0  0  0
 13 28  1  0  0  0  0
M  END
> <PUBCHEM_COMPOUND_CID>
13670

> <PUBCHEM_COMPOUND_CANONICALIZED>
1

> <PUBCHEM_CACTVS_COMPLEXITY>
237

> <PUBCHEM_CACTVS_HBOND_ACCEPTOR>
2

> <PUBCHEM_CACTVS_HBOND_DONOR>
0

> <PUBCHEM_CACTVS_ROTATABLE_BOND>
2

> <PUBCHEM_CACTVS_SUBSKEYS>
AAADccByMAAAAAAAAAAAAAAAFgAAAYMAAAA8QAAAAAAAAAAAAAAAHgAAAAAADSjhgAYCCAMABAAIAAAAGAAAAAAAAAAAAAAIAAAAAAIAgAAMAAAABgCAAAEQgAAOAAAAAAAAAAAAAACAAAQAASAAAQAAAA==

> <PUBCHEM_IUPAC_INCHI>
InChI=1S/C10H15NO2/c1-2-13-10(12)11-8-6-3-4-7(5-6)9(8)11/h6-9H,2-5H2,1H3

> <PUBCHEM_IUPAC_INCHIKEY>
DZOOLBXFQXIOFA-UHFFFAOYSA-N

> <PUBCHEM_XLOGP3_AA>
1.5

> <PUBCHEM_EXACT_MASS>
181.110279

> <PUBCHEM_MOLECULAR_FORMULA>
C10H15NO2

> <PUBCHEM_MOLECULAR_WEIGHT>
181.2316

> <PUBCHEM_OPENEYE_CAN_SMILES>
CCOC(=O)N1C2C1C3CCC2C3

> <PUBCHEM_OPENEYE_ISO_SMILES>
CCOC(=O)N1C2C1C3CCC2C3

> <PUBCHEM_CACTVS_TPSA>
29.3

> <PUBCHEM_MONOISOTOPIC_WEIGHT>
181.110279

> <PUBCHEM_TOTAL_CHARGE>
0

> <PUBCHEM_HEAVY_ATOM_COUNT>
13

> <PUBCHEM_ATOM_DEF_STEREO_COUNT>
0

> <PUBCHEM_ATOM_UDEF_STEREO_COUNT>
4

> <PUBCHEM_BOND_DEF_STEREO_COUNT>
0

> <PUBCHEM_BOND_UDEF_STEREO_COUNT>
0

> <PUBCHEM_ISOTOPIC_ATOM_COUNT>
0

> <PUBCHEM_COMPONENT_COUNT>
1

> <PUBCHEM_CACTVS_TAUTO_COUNT>
1

> <PUBCHEM_COORDINATE_TYPE>
1
5
255

> <PUBCHEM_BONDANNOTATIONS>
4  3  3
5  3  3
6  8  3
7  8  3

$$$$

