10577
  -OEChem-06261204422D

 67 70  0     1  0  0  0  0  0999 V2000
    9.1857    0.6222    0.0000 O   0  0  0  0  0  0  0  0  0  0  0  0
   10.4586   -1.1330    0.0000 O   0  0  0  0  0  0  0  0  0  0  0  0
   10.8321    0.0841    0.0000 O   0  0  0  0  0  0  0  0  0  0  0  0
   10.4586   -2.8651    0.0000 O   0  0  0  0  0  0  0  0  0  0  0  0
    2.5357   -3.6854    0.0000 O   0  0  0  0  0  0  0  0  0  0  0  0
   12.7425    3.1419    0.0000 O   0  0  0  0  0  0  0  0  0  0  0  0
   11.0962    3.6800    0.0000 O   0  0  0  0  0  0  0  0  0  0  0  0
   13.9586   -3.7311    0.0000 O   0  0  0  0  0  0  0  0  0  0  0  0
   13.9586   -1.9991    0.0000 O   0  0  0  0  0  0  0  0  0  0  0  0
    7.9288   -0.6331    0.0000 C   0  0  1  0  0  0  0  0  0  0  0  0
    7.9288   -1.6330    0.0000 C   0  0  2  0  0  0  0  0  0  0  0  0
    7.0628   -2.1330    0.0000 C   0  0  1  0  0  0  0  0  0  0  0  0
    8.8750   -0.3283    0.0000 C   0  0  2  0  0  0  0  0  0  0  0  0
    6.1968   -1.6330    0.0000 C   0  0  2  0  0  0  0  0  0  0  0  0
    8.8750   -1.9378    0.0000 C   0  0  0  0  0  0  0  0  0  0  0  0
    7.0628   -0.1331    0.0000 C   0  0  0  0  0  0  0  0  0  0  0  0
    9.4586   -1.1330    0.0000 C   0  0  1  0  0  0  0  0  0  0  0  0
    6.1968   -0.6331    0.0000 C   0  0  0  0  0  0  0  0  0  0  0  0
    7.0789   -3.1746    0.0000 C   0  0  0  0  0  0  0  0  0  0  0  0
    7.9288    0.3669    0.0000 C   0  0  0  0  0  0  0  0  0  0  0  0
    5.2868   -2.1399    0.0000 C   0  0  0  0  0  0  0  0  0  0  0  0
    6.1808   -3.7023    0.0000 C   0  0  0  0  0  0  0  0  0  0  0  0
    5.2787   -3.1815    0.0000 C   0  0  0  0  0  0  0  0  0  0  0  0
    4.3599   -1.5758    0.0000 C   0  0  0  0  0  0  0  0  0  0  0  0
    4.3433   -3.7312    0.0000 C   0  0  0  0  0  0  0  0  0  0  0  0
   10.1642    0.8284    0.0000 C   0  0  0  0  0  0  0  0  0  0  0  0
   10.9586   -1.9991    0.0000 C   0  0  0  0  0  0  0  0  0  0  0  0
    3.4120   -2.1038    0.0000 C   0  0  0  0  0  0  0  0  0  0  0  0
    3.4037   -3.1887    0.0000 C   0  0  0  0  0  0  0  0  0  0  0  0
   10.4749    1.7789    0.0000 C   0  0  0  0  0  0  0  0  0  0  0  0
   11.9586   -1.9991    0.0000 C   0  0  0  0  0  0  0  0  0  0  0  0
   11.4534    1.9852    0.0000 C   0  0  0  0  0  0  0  0  0  0  0  0
   12.4586   -2.8651    0.0000 C   0  0  0  0  0  0  0  0  0  0  0  0
   11.7640    2.9357    0.0000 C   0  0  0  0  0  0  0  0  0  0  0  0
   13.4586   -2.8651    0.0000 C   0  0  0  0  0  0  0  0  0  0  0  0
    8.0188   -2.4783    0.0000 H   0  0  0  0  0  0  0  0  0  0  0  0
    7.8022   -2.5524    0.0000 H   0  0  0  0  0  0  0  0  0  0  0  0
    9.4875   -0.2321    0.0000 H   0  0  0  0  0  0  0  0  0  0  0  0
    6.9329   -1.2080    0.0000 H   0  0  0  0  0  0  0  0  0  0  0  0
    8.6240   -2.5047    0.0000 H   0  0  0  0  0  0  0  0  0  0  0  0
    9.4124   -2.2470    0.0000 H   0  0  0  0  0  0  0  0  0  0  0  0
    7.4613    0.3419    0.0000 H   0  0  0  0  0  0  0  0  0  0  0  0
    6.6643    0.3419    0.0000 H   0  0  0  0  0  0  0  0  0  0  0  0
    9.7404   -1.6854    0.0000 H   0  0  0  0  0  0  0  0  0  0  0  0
    5.9847   -0.0504    0.0000 H   0  0  0  0  0  0  0  0  0  0  0  0
    5.5862   -0.7407    0.0000 H   0  0  0  0  0  0  0  0  0  0  0  0
    7.2969   -3.7550    0.0000 H   0  0  0  0  0  0  0  0  0  0  0  0
    7.6880   -3.0591    0.0000 H   0  0  0  0  0  0  0  0  0  0  0  0
    8.5488    0.3669    0.0000 H   0  0  0  0  0  0  0  0  0  0  0  0
    7.9288    0.9869    0.0000 H   0  0  0  0  0  0  0  0  0  0  0  0
    7.3088    0.3669    0.0000 H   0  0  0  0  0  0  0  0  0  0  0  0
    5.7835   -4.1783    0.0000 H   0  0  0  0  0  0  0  0  0  0  0  0
    6.5818   -4.1752    0.0000 H   0  0  0  0  0  0  0  0  0  0  0  0
    4.3719   -0.9559    0.0000 H   0  0  0  0  0  0  0  0  0  0  0  0
    4.3457   -4.3512    0.0000 H   0  0  0  0  0  0  0  0  0  0  0  0
    2.8787   -1.7876    0.0000 H   0  0  0  0  0  0  0  0  0  0  0  0
   10.4543    2.3986    0.0000 H   0  0  0  0  0  0  0  0  0  0  0  0
    9.8611    1.8663    0.0000 H   0  0  0  0  0  0  0  0  0  0  0  0
   12.5413   -1.7870    0.0000 H   0  0  0  0  0  0  0  0  0  0  0  0
   11.8510   -1.3885    0.0000 H   0  0  0  0  0  0  0  0  0  0  0  0
   11.4739    1.3655    0.0000 H   0  0  0  0  0  0  0  0  0  0  0  0
   12.0672    1.8978    0.0000 H   0  0  0  0  0  0  0  0  0  0  0  0
    2.0000   -3.3733    0.0000 H   0  0  0  0  0  0  0  0  0  0  0  0
   11.8760   -3.0772    0.0000 H   0  0  0  0  0  0  0  0  0  0  0  0
   12.5663   -3.4757    0.0000 H   0  0  0  0  0  0  0  0  0  0  0  0
   12.9352    3.7312    0.0000 H   0  0  0  0  0  0  0  0  0  0  0  0
   14.5786   -3.7311    0.0000 H   0  0  0  0  0  0  0  0  0  0  0  0
 13  1  1  1  0  0  0
  1 26  1  0  0  0  0
 17  2  1  6  0  0  0
  2 27  1  0  0  0  0
  3 26  2  0  0  0  0
  4 27  2  0  0  0  0
  5 29  1  0  0  0  0
  5 63  1  0  0  0  0
  6 34  1  0  0  0  0
  6 66  1  0  0  0  0
  7 34  2  0  0  0  0
  8 35  1  0  0  0  0
  8 67  1  0  0  0  0
  9 35  2  0  0  0  0
 10 11  1  0  0  0  0
 10 13  1  0  0  0  0
 10 16  1  0  0  0  0
 10 20  1  1  0  0  0
 11 12  1  0  0  0  0
 11 15  1  0  0  0  0
 11 36  1  6  0  0  0
 12 14  1  0  0  0  0
 12 19  1  0  0  0  0
 12 37  1  1  0  0  0
 13 17  1  0  0  0  0
 13 38  1  0  0  0  0
 14 18  1  0  0  0  0
 14 21  1  0  0  0  0
 14 39  1  6  0  0  0
 15 17  1  0  0  0  0
 15 40  1  0  0  0  0
 15 41  1  0  0  0  0
 16 18  1  0  0  0  0
 16 42  1  0  0  0  0
 16 43  1  0  0  0  0
 17 44  1  0  0  0  0
 18 45  1  0  0  0  0
 18 46  1  0  0  0  0
 19 22  1  0  0  0  0
 19 47  1  0  0  0  0
 19 48  1  0  0  0  0
 20 49  1  0  0  0  0
 20 50  1  0  0  0  0
 20 51  1  0  0  0  0
 21 23  2  0  0  0  0
 21 24  1  0  0  0  0
 22 23  1  0  0  0  0
 22 52  1  0  0  0  0
 22 53  1  0  0  0  0
 23 25  1  0  0  0  0
 24 28  2  0  0  0  0
 24 54  1  0  0  0  0
 25 29  2  0  0  0  0
 25 55  1  0  0  0  0
 26 30  1  0  0  0  0
 27 31  1  0  0  0  0
 28 29  1  0  0  0  0
 28 56  1  0  0  0  0
 30 32  1  0  0  0  0
 30 57  1  0  0  0  0
 30 58  1  0  0  0  0
 31 33  1  0  0  0  0
 31 59  1  0  0  0  0
 31 60  1  0  0  0  0
 32 34  1  0  0  0  0
 32 61  1  0  0  0  0
 32 62  1  0  0  0  0
 33 35  1  0  0  0  0
 33 64  1  0  0  0  0
 33 65  1  0  0  0  0
M  END
> <PUBCHEM_COMPOUND_CID>
10577

> <PUBCHEM_COMPOUND_CANONICALIZED>
1

> <PUBCHEM_CACTVS_COMPLEXITY>
841

> <PUBCHEM_CACTVS_HBOND_ACCEPTOR>
9

> <PUBCHEM_CACTVS_HBOND_DONOR>
3

> <PUBCHEM_CACTVS_ROTATABLE_BOND>
10

> <PUBCHEM_CACTVS_SUBSKEYS>
AAADcfB4PAAAAAAAAAAAAAAAAAAAAYAAAAAwYMAAAAAAAGDBAAAAGgAACAAADxSgmAIyDoAABgCIAiDSCAACAAAgIAAIiAEGCIgJJjKCERKCcAAkwBEKmAfD4PgPoAABAAAQAADAAAYAACAAAIAADCAAAA==

> <PUBCHEM_IUPAC_OPENEYE_NAME>
4-[[(8R,9S,13S,14S,16R,17R)-17-(3-carboxypropanoyloxy)-3-hydroxy-13-methyl-6,7,8,9,11,12,14,15,16,17-decahydrocyclopenta[a]phenanthren-16-yl]oxy]-4-oxo-butanoic acid

> <PUBCHEM_IUPAC_CAS_NAME>
4-[[(8R,9S,13S,14S,16R,17R)-17-(3-carboxy-1-oxopropoxy)-3-hydroxy-13-methyl-6,7,8,9,11,12,14,15,16,17-decahydrocyclopenta[a]phenanthren-16-yl]oxy]-4-oxobutanoic acid

> <PUBCHEM_IUPAC_NAME>
4-[[(8R,9S,13S,14S,16R,17R)-17-(3-carboxypropanoyloxy)-3-hydroxy-13-methyl-6,7,8,9,11,12,14,15,16,17-decahydrocyclopenta[a]phenanthren-16-yl]oxy]-4-oxobutanoic acid

> <PUBCHEM_IUPAC_SYSTEMATIC_NAME>
4-[[(8R,9S,13S,14S,16R,17R)-13-methyl-3-oxidanyl-17-(4-oxidanyl-4-oxidanylidene-butanoyl)oxy-6,7,8,9,11,12,14,15,16,17-decahydrocyclopenta[a]phenanthren-16-yl]oxy]-4-oxidanylidene-butanoic acid

> <PUBCHEM_IUPAC_TRADITIONAL_NAME>
4-[[(8R,9S,13S,14S,16R,17R)-17-(3-carboxypropanoyloxy)-3-hydroxy-13-methyl-6,7,8,9,11,12,14,15,16,17-decahydrocyclopenta[a]phenanthren-16-yl]oxy]-4-keto-butyric acid

> <PUBCHEM_IUPAC_INCHI>
InChI=1S/C26H32O9/c1-26-11-10-17-16-5-3-15(27)12-14(16)2-4-18(17)19(26)13-20(34-23(32)8-6-21(28)29)25(26)35-24(33)9-7-22(30)31/h3,5,12,17-20,25,27H,2,4,6-11,13H2,1H3,(H,28,29)(H,30,31)/t17-,18-,19+,20-,25+,26+/m1/s1

> <PUBCHEM_IUPAC_INCHIKEY>
VBRVDDFOBZNCPF-BRSFZVHSSA-N

> <PUBCHEM_XLOGP3>
2.5

> <PUBCHEM_EXACT_MASS>
488.204633

> <PUBCHEM_MOLECULAR_FORMULA>
C26H32O9

> <PUBCHEM_MOLECULAR_WEIGHT>
488.52688

> <PUBCHEM_OPENEYE_CAN_SMILES>
CC12CCC3C(C1CC(C2OC(=O)CCC(=O)O)OC(=O)CCC(=O)O)CCC4=C3C=CC(=C4)O

> <PUBCHEM_OPENEYE_ISO_SMILES>
C[C@]12CC[C@H]3[C@H]([C@@H]1C[C@H]([C@@H]2OC(=O)CCC(=O)O)OC(=O)CCC(=O)O)CCC4=C3C=CC(=C4)O

> <PUBCHEM_CACTVS_TPSA>
147

> <PUBCHEM_MONOISOTOPIC_WEIGHT>
488.204633

> <PUBCHEM_TOTAL_CHARGE>
0

> <PUBCHEM_HEAVY_ATOM_COUNT>
35

> <PUBCHEM_ATOM_DEF_STEREO_COUNT>
6

> <PUBCHEM_ATOM_UDEF_STEREO_COUNT>
0

> <PUBCHEM_BOND_DEF_STEREO_COUNT>
0

> <PUBCHEM_BOND_UDEF_STEREO_COUNT>
0

> <PUBCHEM_ISOTOPIC_ATOM_COUNT>
0

> <PUBCHEM_COMPONENT_COUNT>
1

> <PUBCHEM_CACTVS_TAUTO_COUNT>
9

> <PUBCHEM_COORDINATE_TYPE>
1
5
255

> <PUBCHEM_BONDANNOTATIONS>
13  1  5
10  20  5
11  36  6
12  37  5
14  39  6
17  2  6
21  23  8
21  24  8
23  25  8
24  28  8
25  29  8
28  29  8

$$$$

