583223
  -OEChem-06241222452D

 56 60  0     1  0  0  0  0  0999 V2000
    5.6066   -2.1808    0.0000 S   0  0  0  0  0  0  0  0  0  0  0  0
    7.2246   -2.1871    0.0000 S   0  0  0  0  0  0  0  0  0  0  0  0
    3.7875   -1.0615    0.0000 O   0  0  0  0  0  0  0  0  0  0  0  0
    5.5359   -0.0269    0.0000 C   0  0  3  0  0  0  0  0  0  0  0  0
    4.6699    1.4731    0.0000 C   0  0  3  0  0  0  0  0  0  0  0  0
    4.6699    0.4731    0.0000 C   0  0  3  0  0  0  0  0  0  0  0  0
    3.7759    2.0077    0.0000 C   0  0  3  0  0  0  0  0  0  0  0  0
    2.8698    1.4939    0.0000 C   0  0  3  0  0  0  0  0  0  0  0  0
    6.4019    0.4731    0.0000 C   0  0  3  0  0  0  0  0  0  0  0  0
    5.5359    1.9731    0.0000 C   0  0  0  0  0  0  0  0  0  0  0  0
    6.4019    1.4731    0.0000 C   0  0  0  0  0  0  0  0  0  0  0  0
    5.5198   -1.0684    0.0000 C   0  0  0  0  0  0  0  0  0  0  0  0
    2.8698    0.4523    0.0000 C   0  0  0  0  0  0  0  0  0  0  0  0
    3.5658    3.0217    0.0000 C   0  0  0  0  0  0  0  0  0  0  0  0
    3.7759   -0.0616    0.0000 C   0  0  0  0  0  0  0  0  0  0  0  0
    2.1075    2.1946    0.0000 C   0  0  0  0  0  0  0  0  0  0  0  0
    7.3119   -0.0338    0.0000 C   0  0  0  0  0  0  0  0  0  0  0  0
    6.4179   -1.5962    0.0000 C   0  0  0  0  0  0  0  0  0  0  0  0
    2.5368    3.1369    0.0000 C   0  0  0  0  0  0  0  0  0  0  0  0
    4.6699   -0.5269    0.0000 C   0  0  0  0  0  0  0  0  0  0  0  0
    7.3199   -1.0754    0.0000 C   0  0  0  0  0  0  0  0  0  0  0  0
    2.0000    1.0006    0.0000 C   0  0  0  0  0  0  0  0  0  0  0  0
    5.9119   -3.1331    0.0000 C   0  0  0  0  0  0  0  0  0  0  0  0
    6.9119   -3.1369    0.0000 C   0  0  0  0  0  0  0  0  0  0  0  0
    5.2068    1.1631    0.0000 H   0  0  0  0  0  0  0  0  0  0  0  0
    4.6746   -0.1469    0.0000 H   0  0  0  0  0  0  0  0  0  0  0  0
    4.2812    2.3670    0.0000 H   0  0  0  0  0  0  0  0  0  0  0  0
    6.9364    0.7872    0.0000 H   0  0  0  0  0  0  0  0  0  0  0  0
    5.9344    2.4480    0.0000 H   0  0  0  0  0  0  0  0  0  0  0  0
    5.1374    2.4480    0.0000 H   0  0  0  0  0  0  0  0  0  0  0  0
    7.0125    1.3654    0.0000 H   0  0  0  0  0  0  0  0  0  0  0  0
    6.6140    2.0557    0.0000 H   0  0  0  0  0  0  0  0  0  0  0  0
    4.9107   -0.9529    0.0000 H   0  0  0  0  0  0  0  0  0  0  0  0
    5.3018   -1.6488    0.0000 H   0  0  0  0  0  0  0  0  0  0  0  0
    2.2590    0.5584    0.0000 H   0  0  0  0  0  0  0  0  0  0  0  0
    2.6608   -0.1314    0.0000 H   0  0  0  0  0  0  0  0  0  0  0  0
    4.1828    3.0830    0.0000 H   0  0  0  0  0  0  0  0  0  0  0  0
    3.5697    3.6416    0.0000 H   0  0  0  0  0  0  0  0  0  0  0  0
    1.5735    2.5096    0.0000 H   0  0  0  0  0  0  0  0  0  0  0  0
    1.7382    1.6966    0.0000 H   0  0  0  0  0  0  0  0  0  0  0  0
    7.9236   -0.1352    0.0000 H   0  0  0  0  0  0  0  0  0  0  0  0
    7.5165    0.5515    0.0000 H   0  0  0  0  0  0  0  0  0  0  0  0
    2.6702    3.7424    0.0000 H   0  0  0  0  0  0  0  0  0  0  0  0
    1.9487    3.3332    0.0000 H   0  0  0  0  0  0  0  0  0  0  0  0
    4.3599    0.0100    0.0000 H   0  0  0  0  0  0  0  0  0  0  0  0
    4.1329   -0.8369    0.0000 H   0  0  0  0  0  0  0  0  0  0  0  0
    4.9799   -1.0639    0.0000 H   0  0  0  0  0  0  0  0  0  0  0  0
    7.5335   -1.6574    0.0000 H   0  0  0  0  0  0  0  0  0  0  0  0
    7.9300   -0.9646    0.0000 H   0  0  0  0  0  0  0  0  0  0  0  0
    1.6942    1.5399    0.0000 H   0  0  0  0  0  0  0  0  0  0  0  0
    1.4607    0.6947    0.0000 H   0  0  0  0  0  0  0  0  0  0  0  0
    2.3058    0.4613    0.0000 H   0  0  0  0  0  0  0  0  0  0  0  0
    5.3050   -3.2596    0.0000 H   0  0  0  0  0  0  0  0  0  0  0  0
    5.9744   -3.7499    0.0000 H   0  0  0  0  0  0  0  0  0  0  0  0
    6.8448   -3.7533    0.0000 H   0  0  0  0  0  0  0  0  0  0  0  0
    7.5179   -3.2682    0.0000 H   0  0  0  0  0  0  0  0  0  0  0  0
  1 18  1  0  0  0  0
  1 23  1  0  0  0  0
  2 18  1  0  0  0  0
  2 24  1  0  0  0  0
  3 15  2  0  0  0  0
  4  6  1  0  0  0  0
  4  9  1  0  0  0  0
  4 12  1  0  0  0  0
  4 20  1  0  0  0  0
  5  6  1  0  0  0  0
  5  7  1  0  0  0  0
  5 10  1  0  0  0  0
  5 25  1  0  0  0  0
  6 15  1  0  0  0  0
  6 26  1  0  0  0  0
  7  8  1  0  0  0  0
  7 14  1  0  0  0  0
  7 27  1  0  0  0  0
  8 13  1  0  0  0  0
  8 16  1  0  0  0  0
  8 22  1  0  0  0  0
  9 11  1  0  0  0  0
  9 17  1  0  0  0  0
  9 28  1  0  0  0  0
 10 11  1  0  0  0  0
 10 29  1  0  0  0  0
 10 30  1  0  0  0  0
 11 31  1  0  0  0  0
 11 32  1  0  0  0  0
 12 18  1  0  0  0  0
 12 33  1  0  0  0  0
 12 34  1  0  0  0  0
 13 15  1  0  0  0  0
 13 35  1  0  0  0  0
 13 36  1  0  0  0  0
 14 19  1  0  0  0  0
 14 37  1  0  0  0  0
 14 38  1  0  0  0  0
 16 19  1  0  0  0  0
 16 39  1  0  0  0  0
 16 40  1  0  0  0  0
 17 21  1  0  0  0  0
 17 41  1  0  0  0  0
 17 42  1  0  0  0  0
 18 21  1  0  0  0  0
 19 43  1  0  0  0  0
 19 44  1  0  0  0  0
 20 45  1  0  0  0  0
 20 46  1  0  0  0  0
 20 47  1  0  0  0  0
 21 48  1  0  0  0  0
 21 49  1  0  0  0  0
 22 50  1  0  0  0  0
 22 51  1  0  0  0  0
 22 52  1  0  0  0  0
 23 24  1  0  0  0  0
 23 53  1  0  0  0  0
 23 54  1  0  0  0  0
 24 55  1  0  0  0  0
 24 56  1  0  0  0  0
M  END
> <PUBCHEM_COMPOUND_CID>
583223

> <PUBCHEM_COMPOUND_CANONICALIZED>
1

> <PUBCHEM_CACTVS_COMPLEXITY>
554

> <PUBCHEM_CACTVS_HBOND_ACCEPTOR>
3

> <PUBCHEM_CACTVS_HBOND_DONOR>
0

> <PUBCHEM_CACTVS_ROTATABLE_BOND>
0

> <PUBCHEM_CACTVS_SUBSKEYS>
AAADcfB4IABgAAAAAAAAAAAAAAAAAaIAAAAwYMAAAAAAAGDAAAAAGgQAAAAADwSEwACCAAAAAAgIAIAQAAAAAQAAABAAAAEAAAAAABIgAAAAAAAAAAAgAAEIiMCPgAAAAAAAAACgAAUAACAAAAAACAAAAA==

> <PUBCHEM_IUPAC_OPENEYE_NAME>
10',13'-dimethylspiro[1,3-dithiolane-2,2'-3,4,5,6,7,8,9,12,14,15,16,17-dodecahydro-1H-cyclopenta[a]phenanthrene]-11'-one

> <PUBCHEM_IUPAC_CAS_NAME>
10',13'-dimethyl-11'-spiro[1,3-dithiolane-2,2'-3,4,5,6,7,8,9,12,14,15,16,17-dodecahydro-1H-cyclopenta[a]phenanthrene]one

> <PUBCHEM_IUPAC_NAME>
10',13'-dimethylspiro[1,3-dithiolane-2,2'-3,4,5,6,7,8,9,12,14,15,16,17-dodecahydro-1H-cyclopenta[a]phenanthrene]-11'-one

> <PUBCHEM_IUPAC_SYSTEMATIC_NAME>
10',13'-dimethylspiro[1,3-dithiolane-2,2'-3,4,5,6,7,8,9,12,14,15,16,17-dodecahydro-1H-cyclopenta[a]phenanthrene]-11'-one

> <PUBCHEM_IUPAC_TRADITIONAL_NAME>
10',13'-dimethylspiro[1,3-dithiolane-2,2'-3,4,5,6,7,8,9,12,14,15,16,17-dodecahydro-1H-cyclopenta[a]phenanthrene]-11'-one

> <PUBCHEM_IUPAC_INCHI>
InChI=1S/C21H32OS2/c1-19-8-3-4-16(19)15-6-5-14-7-9-21(23-10-11-24-21)13-20(14,2)18(15)17(22)12-19/h14-16,18H,3-13H2,1-2H3

> <PUBCHEM_IUPAC_INCHIKEY>
MUPYVMYIYBFMJW-UHFFFAOYSA-N

> <PUBCHEM_XLOGP3_AA>
5.9

> <PUBCHEM_EXACT_MASS>
364.189458

> <PUBCHEM_MOLECULAR_FORMULA>
C21H32OS2

> <PUBCHEM_MOLECULAR_WEIGHT>
364.60818

> <PUBCHEM_OPENEYE_CAN_SMILES>
CC12CCCC1C3CCC4CCC5(CC4(C3C(=O)C2)C)SCCS5

> <PUBCHEM_OPENEYE_ISO_SMILES>
CC12CCCC1C3CCC4CCC5(CC4(C3C(=O)C2)C)SCCS5

> <PUBCHEM_CACTVS_TPSA>
67.7

> <PUBCHEM_MONOISOTOPIC_WEIGHT>
364.189458

> <PUBCHEM_TOTAL_CHARGE>
0

> <PUBCHEM_HEAVY_ATOM_COUNT>
24

> <PUBCHEM_ATOM_DEF_STEREO_COUNT>
0

> <PUBCHEM_ATOM_UDEF_STEREO_COUNT>
6

> <PUBCHEM_BOND_DEF_STEREO_COUNT>
0

> <PUBCHEM_BOND_UDEF_STEREO_COUNT>
0

> <PUBCHEM_ISOTOPIC_ATOM_COUNT>
0

> <PUBCHEM_COMPONENT_COUNT>
1

> <PUBCHEM_CACTVS_TAUTO_COUNT>
3

> <PUBCHEM_COORDINATE_TYPE>
1
5
255

> <PUBCHEM_BONDANNOTATIONS>
4  20  3
5  10  3
6  15  3
7  14  3
8  22  3
9  11  3

$$$$

