10647
  -OEChem-06261204472D

 24 25  0     0  0  0  0  0  0999 V2000
    5.0780   -1.8378    0.0000 O   0  0  0  0  0  0  0  0  0  0  0  0
    4.3260    1.8378    0.0000 O   0  0  0  0  0  0  0  0  0  0  0  0
    2.5369   -0.2500    0.0000 O   0  0  0  0  0  0  0  0  0  0  0  0
    6.8671    0.2500    0.0000 O   0  0  0  0  0  0  0  0  0  0  0  0
    3.4030    0.2500    0.0000 N   0  0  0  0  0  0  0  0  0  0  0  0
    6.0010   -0.2500    0.0000 N   0  0  0  0  0  0  0  0  0  0  0  0
    4.2690   -0.2500    0.0000 C   0  0  0  0  0  0  0  0  0  0  0  0
    4.2690   -1.2500    0.0000 C   0  0  0  0  0  0  0  0  0  0  0  0
    5.1350    0.2500    0.0000 C   0  0  0  0  0  0  0  0  0  0  0  0
    5.1350    1.2500    0.0000 C   0  0  0  0  0  0  0  0  0  0  0  0
    3.4600   -1.8378    0.0000 C   0  0  0  0  0  0  0  0  0  0  0  0
    5.9440    1.8378    0.0000 C   0  0  0  0  0  0  0  0  0  0  0  0
    3.7690   -2.7888    0.0000 C   0  0  0  0  0  0  0  0  0  0  0  0
    5.6350    2.7888    0.0000 C   0  0  0  0  0  0  0  0  0  0  0  0
    4.7690   -2.7888    0.0000 C   0  0  0  0  0  0  0  0  0  0  0  0
    4.6350    2.7888    0.0000 C   0  0  0  0  0  0  0  0  0  0  0  0
    2.8703   -1.6462    0.0000 H   0  0  0  0  0  0  0  0  0  0  0  0
    6.5337    1.6462    0.0000 H   0  0  0  0  0  0  0  0  0  0  0  0
    3.4046   -3.2904    0.0000 H   0  0  0  0  0  0  0  0  0  0  0  0
    3.4030    0.8700    0.0000 H   0  0  0  0  0  0  0  0  0  0  0  0
    5.9994    3.2904    0.0000 H   0  0  0  0  0  0  0  0  0  0  0  0
    5.1334   -3.2904    0.0000 H   0  0  0  0  0  0  0  0  0  0  0  0
    4.2706    3.2904    0.0000 H   0  0  0  0  0  0  0  0  0  0  0  0
    2.0000    0.0600    0.0000 H   0  0  0  0  0  0  0  0  0  0  0  0
  1  8  1  0  0  0  0
  1 15  1  0  0  0  0
  2 10  1  0  0  0  0
  2 16  1  0  0  0  0
  3  5  1  0  0  0  0
  3 24  1  0  0  0  0
  4  6  2  0  0  0  0
  5  7  1  0  0  0  0
  5 20  1  0  0  0  0
  6  9  1  0  0  0  0
  7  8  1  0  0  0  0
  7  9  2  3  0  0  0
  8 11  2  0  0  0  0
  9 10  1  0  0  0  0
 10 12  2  0  0  0  0
 11 13  1  0  0  0  0
 11 17  1  0  0  0  0
 12 14  1  0  0  0  0
 12 18  1  0  0  0  0
 13 15  2  0  0  0  0
 13 19  1  0  0  0  0
 14 16  2  0  0  0  0
 14 21  1  0  0  0  0
 15 22  1  0  0  0  0
 16 23  1  0  0  0  0
M  END
> <PUBCHEM_COMPOUND_CID>
10647

> <PUBCHEM_COMPOUND_CANONICALIZED>
1

> <PUBCHEM_CACTVS_COMPLEXITY>
293

> <PUBCHEM_CACTVS_HBOND_ACCEPTOR>
6

> <PUBCHEM_CACTVS_HBOND_DONOR>
2

> <PUBCHEM_CACTVS_ROTATABLE_BOND>
3

> <PUBCHEM_CACTVS_SUBSKEYS>
AAADccBzOAAAAAAAAAAAAAAAAAAAASJAAAAAAAAAAAAAAAAB4AAAHgAUCAAACAyhkAIwBIBQBECJAKxSwgCCCAAkIAAoiAGGDMgOJjKEtRuDGSDkwBEIqcaYEQAAAAAAAAAAAAAAAAAAAAAAAAAAAAAAAA==

> <PUBCHEM_IUPAC_OPENEYE_NAME>
N-[1,2-bis(2-furyl)-2-nitroso-vinyl]hydroxylamine

> <PUBCHEM_IUPAC_CAS_NAME>
N-[1,2-bis(2-furanyl)-2-nitrosoethenyl]hydroxylamine

> <PUBCHEM_IUPAC_NAME>
N-[1,2-bis(furan-2-yl)-2-nitrosoethenyl]hydroxylamine

> <PUBCHEM_IUPAC_SYSTEMATIC_NAME>
N-[1,2-bis(furan-2-yl)-2-nitroso-ethenyl]hydroxylamine

> <PUBCHEM_IUPAC_TRADITIONAL_NAME>
N-[1,2-bis(2-furyl)-2-nitroso-vinyl]hydroxylamine

> <PUBCHEM_IUPAC_INCHI>
InChI=1S/C10H8N2O4/c13-11-9(7-3-1-5-15-7)10(12-14)8-4-2-6-16-8/h1-6,11,13H

> <PUBCHEM_IUPAC_INCHIKEY>
BRKZOASOLMUAQJ-UHFFFAOYSA-N

> <PUBCHEM_XLOGP3_AA>
1.4

> <PUBCHEM_EXACT_MASS>
220.048407

> <PUBCHEM_MOLECULAR_FORMULA>
C10H8N2O4

> <PUBCHEM_MOLECULAR_WEIGHT>
220.18152

> <PUBCHEM_OPENEYE_CAN_SMILES>
C1=COC(=C1)C(=C(C2=CC=CO2)N=O)NO

> <PUBCHEM_OPENEYE_ISO_SMILES>
C1=COC(=C1)C(=C(C2=CC=CO2)N=O)NO

> <PUBCHEM_CACTVS_TPSA>
88

> <PUBCHEM_MONOISOTOPIC_WEIGHT>
220.048407

> <PUBCHEM_TOTAL_CHARGE>
0

> <PUBCHEM_HEAVY_ATOM_COUNT>
16

> <PUBCHEM_ATOM_DEF_STEREO_COUNT>
0

> <PUBCHEM_ATOM_UDEF_STEREO_COUNT>
0

> <PUBCHEM_BOND_DEF_STEREO_COUNT>
0

> <PUBCHEM_BOND_UDEF_STEREO_COUNT>
1

> <PUBCHEM_ISOTOPIC_ATOM_COUNT>
0

> <PUBCHEM_COMPONENT_COUNT>
1

> <PUBCHEM_CACTVS_TAUTO_COUNT>
4

> <PUBCHEM_COORDINATE_TYPE>
1
5
255

> <PUBCHEM_BONDANNOTATIONS>
1  15  8
1  8  8
10  12  8
11  13  8
12  14  8
13  15  8
14  16  8
2  10  8
2  16  8
7  9  1
8  11  8

$$$$

