17395795
  -OEChem-06241222522D

 50 52  0     0  0  0  0  0  0999 V2000
    5.4641    1.2306    0.0000 O   0  0  0  0  0  0  0  0  0  0  0  0
    2.0000   -4.7694    0.0000 O   0  0  0  0  0  0  0  0  0  0  0  0
    6.3301    2.7306    0.0000 O   0  0  0  0  0  0  0  0  0  0  0  0
    3.7320    0.2306    0.0000 N   0  0  0  0  0  0  0  0  0  0  0  0
    3.7320   -1.7694    0.0000 N   0  0  0  0  0  0  0  0  0  0  0  0
    4.5981    2.7306    0.0000 N   0  0  0  0  0  0  0  0  0  0  0  0
    4.6551    4.8184    0.0000 N   0  0  0  0  0  0  0  0  0  0  0  0
    4.5981   -0.2694    0.0000 C   0  0  0  0  0  0  0  0  0  0  0  0
    2.8660   -0.2694    0.0000 C   0  0  0  0  0  0  0  0  0  0  0  0
    4.5981   -1.2694    0.0000 C   0  0  0  0  0  0  0  0  0  0  0  0
    2.8660   -1.2694    0.0000 C   0  0  0  0  0  0  0  0  0  0  0  0
    3.7320    1.2306    0.0000 C   0  0  0  0  0  0  0  0  0  0  0  0
    3.7320   -2.7694    0.0000 C   0  0  0  0  0  0  0  0  0  0  0  0
    4.5981    1.7306    0.0000 C   0  0  0  0  0  0  0  0  0  0  0  0
    2.8660   -3.2694    0.0000 C   0  0  0  0  0  0  0  0  0  0  0  0
    4.5981   -3.2694    0.0000 C   0  0  0  0  0  0  0  0  0  0  0  0
    2.8660   -4.2694    0.0000 C   0  0  0  0  0  0  0  0  0  0  0  0
    4.5981   -4.2694    0.0000 C   0  0  0  0  0  0  0  0  0  0  0  0
    3.7320   -4.7694    0.0000 C   0  0  0  0  0  0  0  0  0  0  0  0
    5.4641    3.2306    0.0000 C   0  0  0  0  0  0  0  0  0  0  0  0
    5.4641    4.2306    0.0000 C   0  0  0  0  0  0  0  0  0  0  0  0
    6.2731    4.8184    0.0000 C   0  0  0  0  0  0  0  0  0  0  0  0
    4.9641    5.7694    0.0000 C   0  0  0  0  0  0  0  0  0  0  0  0
    5.9641    5.7694    0.0000 C   0  0  0  0  0  0  0  0  0  0  0  0
    3.7040    4.5094    0.0000 C   0  0  0  0  0  0  0  0  0  0  0  0
    2.0000   -5.7694    0.0000 C   0  0  0  0  0  0  0  0  0  0  0  0
    2.6540    0.3132    0.0000 H   0  0  0  0  0  0  0  0  0  0  0  0
    2.2554   -0.3771    0.0000 H   0  0  0  0  0  0  0  0  0  0  0  0
    5.2087   -0.3771    0.0000 H   0  0  0  0  0  0  0  0  0  0  0  0
    4.8101    0.3132    0.0000 H   0  0  0  0  0  0  0  0  0  0  0  0
    4.8101   -1.8520    0.0000 H   0  0  0  0  0  0  0  0  0  0  0  0
    5.2087   -1.1618    0.0000 H   0  0  0  0  0  0  0  0  0  0  0  0
    2.2554   -1.1618    0.0000 H   0  0  0  0  0  0  0  0  0  0  0  0
    2.6540   -1.8520    0.0000 H   0  0  0  0  0  0  0  0  0  0  0  0
    3.5200    1.8132    0.0000 H   0  0  0  0  0  0  0  0  0  0  0  0
    3.1215    1.1229    0.0000 H   0  0  0  0  0  0  0  0  0  0  0  0
    2.3291   -2.9594    0.0000 H   0  0  0  0  0  0  0  0  0  0  0  0
    5.1350   -2.9594    0.0000 H   0  0  0  0  0  0  0  0  0  0  0  0
    5.1350   -4.5794    0.0000 H   0  0  0  0  0  0  0  0  0  0  0  0
    4.0611    3.0406    0.0000 H   0  0  0  0  0  0  0  0  0  0  0  0
    3.7320   -5.3894    0.0000 H   0  0  0  0  0  0  0  0  0  0  0  0
    6.8628    4.6268    0.0000 H   0  0  0  0  0  0  0  0  0  0  0  0
    4.5997    6.2710    0.0000 H   0  0  0  0  0  0  0  0  0  0  0  0
    6.3285    6.2710    0.0000 H   0  0  0  0  0  0  0  0  0  0  0  0
    3.5124    5.0990    0.0000 H   0  0  0  0  0  0  0  0  0  0  0  0
    3.1144    4.3178    0.0000 H   0  0  0  0  0  0  0  0  0  0  0  0
    3.8956    3.9197    0.0000 H   0  0  0  0  0  0  0  0  0  0  0  0
    1.3800   -5.7694    0.0000 H   0  0  0  0  0  0  0  0  0  0  0  0
    2.0000   -6.3894    0.0000 H   0  0  0  0  0  0  0  0  0  0  0  0
    2.6200   -5.7694    0.0000 H   0  0  0  0  0  0  0  0  0  0  0  0
  1 14  2  0  0  0  0
  2 17  1  0  0  0  0
  2 26  1  0  0  0  0
  3 20  2  0  0  0  0
  4  8  1  0  0  0  0
  4  9  1  0  0  0  0
  4 12  1  0  0  0  0
  5 10  1  0  0  0  0
  5 11  1  0  0  0  0
  5 13  1  0  0  0  0
  6 14  1  0  0  0  0
  6 20  1  0  0  0  0
  6 40  1  0  0  0  0
  7 21  1  0  0  0  0
  7 23  1  0  0  0  0
  7 25  1  0  0  0  0
  8 10  1  0  0  0  0
  8 29  1  0  0  0  0
  8 30  1  0  0  0  0
  9 11  1  0  0  0  0
  9 27  1  0  0  0  0
  9 28  1  0  0  0  0
 10 31  1  0  0  0  0
 10 32  1  0  0  0  0
 11 33  1  0  0  0  0
 11 34  1  0  0  0  0
 12 14  1  0  0  0  0
 12 35  1  0  0  0  0
 12 36  1  0  0  0  0
 13 15  2  0  0  0  0
 13 16  1  0  0  0  0
 15 17  1  0  0  0  0
 15 37  1  0  0  0  0
 16 18  2  0  0  0  0
 16 38  1  0  0  0  0
 17 19  2  0  0  0  0
 18 19  1  0  0  0  0
 18 39  1  0  0  0  0
 19 41  1  0  0  0  0
 20 21  1  0  0  0  0
 21 22  2  0  0  0  0
 22 24  1  0  0  0  0
 22 42  1  0  0  0  0
 23 24  2  0  0  0  0
 23 43  1  0  0  0  0
 24 44  1  0  0  0  0
 25 45  1  0  0  0  0
 25 46  1  0  0  0  0
 25 47  1  0  0  0  0
 26 48  1  0  0  0  0
 26 49  1  0  0  0  0
 26 50  1  0  0  0  0
M  END
> <PUBCHEM_COMPOUND_CID>
17395795

> <PUBCHEM_COMPOUND_CANONICALIZED>
1

> <PUBCHEM_CACTVS_COMPLEXITY>
493

> <PUBCHEM_CACTVS_HBOND_ACCEPTOR>
5

> <PUBCHEM_CACTVS_HBOND_DONOR>
1

> <PUBCHEM_CACTVS_ROTATABLE_BOND>
5

> <PUBCHEM_CACTVS_SUBSKEYS>
AAADceB7sAAAAAAAAAAAAAAAAAAAAWAAAAA8QAAAAAAAAAABwAAAHgAQAAAACAzBlgY+xpPMFACoATV3VACCiCA3IiAI2CG+bNgMZvLEtbuUMShm1DnI6YeYUQMAAAAAAgAAAAAAAAAEAAAAAAAAAAAAAA==

> <PUBCHEM_IUPAC_OPENEYE_NAME>
N-[2-[4-(3-methoxyphenyl)piperazin-1-yl]acetyl]-1-methyl-pyrrole-2-carboxamide

> <PUBCHEM_IUPAC_CAS_NAME>
N-[2-[4-(3-methoxyphenyl)-1-piperazinyl]-1-oxoethyl]-1-methyl-2-pyrrolecarboxamide

> <PUBCHEM_IUPAC_NAME>
N-[2-[4-(3-methoxyphenyl)piperazin-1-yl]acetyl]-1-methylpyrrole-2-carboxamide

> <PUBCHEM_IUPAC_SYSTEMATIC_NAME>
N-[2-[4-(3-methoxyphenyl)piperazin-1-yl]ethanoyl]-1-methyl-pyrrole-2-carboxamide

> <PUBCHEM_IUPAC_TRADITIONAL_NAME>
N-[2-[4-(3-methoxyphenyl)piperazino]acetyl]-1-methyl-pyrrole-2-carboxamide

> <PUBCHEM_IUPAC_INCHI>
InChI=1S/C19H24N4O3/c1-21-8-4-7-17(21)19(25)20-18(24)14-22-9-11-23(12-10-22)15-5-3-6-16(13-15)26-2/h3-8,13H,9-12,14H2,1-2H3,(H,20,24,25)

> <PUBCHEM_IUPAC_INCHIKEY>
SLXUMAPUSQXHJG-UHFFFAOYSA-N

> <PUBCHEM_XLOGP3_AA>
1.7

> <PUBCHEM_EXACT_MASS>
356.184841

> <PUBCHEM_MOLECULAR_FORMULA>
C19H24N4O3

> <PUBCHEM_MOLECULAR_WEIGHT>
356.41886

> <PUBCHEM_OPENEYE_CAN_SMILES>
CN1C=CC=C1C(=O)NC(=O)CN2CCN(CC2)C3=CC(=CC=C3)OC

> <PUBCHEM_OPENEYE_ISO_SMILES>
CN1C=CC=C1C(=O)NC(=O)CN2CCN(CC2)C3=CC(=CC=C3)OC

> <PUBCHEM_CACTVS_TPSA>
66.8

> <PUBCHEM_MONOISOTOPIC_WEIGHT>
356.184841

> <PUBCHEM_TOTAL_CHARGE>
0

> <PUBCHEM_HEAVY_ATOM_COUNT>
26

> <PUBCHEM_ATOM_DEF_STEREO_COUNT>
0

> <PUBCHEM_ATOM_UDEF_STEREO_COUNT>
0

> <PUBCHEM_BOND_DEF_STEREO_COUNT>
0

> <PUBCHEM_BOND_UDEF_STEREO_COUNT>
0

> <PUBCHEM_ISOTOPIC_ATOM_COUNT>
0

> <PUBCHEM_COMPONENT_COUNT>
1

> <PUBCHEM_CACTVS_TAUTO_COUNT>
3

> <PUBCHEM_COORDINATE_TYPE>
1
5
255

> <PUBCHEM_BONDANNOTATIONS>
13  15  8
13  16  8
15  17  8
16  18  8
17  19  8
18  19  8
21  22  8
22  24  8
23  24  8
7  21  8
7  23  8

$$$$

