17395838
  -OEChem-06241222522D

 31 32  0     0  0  0  0  0  0999 V2000
    5.5443   -0.9387    0.0000 S   0  0  0  0  0  0  0  0  0  0  0  0
    9.1279   -1.8660    0.0000 S   0  0  0  0  0  0  0  0  0  0  0  0
    7.1279   -1.8660    0.0000 O   0  0  0  0  0  0  0  0  0  0  0  0
    5.5443    0.6708    0.0000 N   0  0  0  0  0  0  0  0  0  0  0  0
    7.1279   -0.1340    0.0000 N   0  0  0  0  0  0  0  0  0  0  0  0
    4.5981    0.3660    0.0000 C   0  0  0  0  0  0  0  0  0  0  0  0
    3.7320    0.8660    0.0000 C   0  0  0  0  0  0  0  0  0  0  0  0
    4.5981   -0.6340    0.0000 C   0  0  0  0  0  0  0  0  0  0  0  0
    2.8660   -0.6340    0.0000 C   0  0  0  0  0  0  0  0  0  0  0  0
    2.8660    0.3660    0.0000 C   0  0  0  0  0  0  0  0  0  0  0  0
    3.7320   -1.1340    0.0000 C   0  0  0  0  0  0  0  0  0  0  0  0
    6.1279   -0.1340    0.0000 C   0  0  0  0  0  0  0  0  0  0  0  0
    3.7320    1.8660    0.0000 C   0  0  0  0  0  0  0  0  0  0  0  0
    2.0000   -1.1340    0.0000 C   0  0  0  0  0  0  0  0  0  0  0  0
    7.6279   -1.0000    0.0000 C   0  0  0  0  0  0  0  0  0  0  0  0
    8.6279   -1.0000    0.0000 C   0  0  0  0  0  0  0  0  0  0  0  0
   10.1279   -1.8660    0.0000 C   0  0  0  0  0  0  0  0  0  0  0  0
    2.3291    0.6760    0.0000 H   0  0  0  0  0  0  0  0  0  0  0  0
    3.7320   -1.7540    0.0000 H   0  0  0  0  0  0  0  0  0  0  0  0
    4.3520    1.8660    0.0000 H   0  0  0  0  0  0  0  0  0  0  0  0
    3.7320    2.4860    0.0000 H   0  0  0  0  0  0  0  0  0  0  0  0
    3.1120    1.8660    0.0000 H   0  0  0  0  0  0  0  0  0  0  0  0
    1.6900   -0.5970    0.0000 H   0  0  0  0  0  0  0  0  0  0  0  0
    1.4631   -1.4440    0.0000 H   0  0  0  0  0  0  0  0  0  0  0  0
    2.3100   -1.6709    0.0000 H   0  0  0  0  0  0  0  0  0  0  0  0
    7.4379    0.4030    0.0000 H   0  0  0  0  0  0  0  0  0  0  0  0
    9.2105   -0.7879    0.0000 H   0  0  0  0  0  0  0  0  0  0  0  0
    8.5202   -0.3894    0.0000 H   0  0  0  0  0  0  0  0  0  0  0  0
   10.1279   -2.4860    0.0000 H   0  0  0  0  0  0  0  0  0  0  0  0
   10.7479   -1.8660    0.0000 H   0  0  0  0  0  0  0  0  0  0  0  0
   10.1279   -1.2460    0.0000 H   0  0  0  0  0  0  0  0  0  0  0  0
  1  8  1  0  0  0  0
  1 12  1  0  0  0  0
  2 16  1  0  0  0  0
  2 17  1  0  0  0  0
  3 15  2  0  0  0  0
  4  6  1  0  0  0  0
  4 12  2  0  0  0  0
  5 12  1  0  0  0  0
  5 15  1  0  0  0  0
  5 26  1  0  0  0  0
  6  7  2  0  0  0  0
  6  8  1  0  0  0  0
  7 10  1  0  0  0  0
  7 13  1  0  0  0  0
  8 11  2  0  0  0  0
  9 10  2  0  0  0  0
  9 11  1  0  0  0  0
  9 14  1  0  0  0  0
 10 18  1  0  0  0  0
 11 19  1  0  0  0  0
 13 20  1  0  0  0  0
 13 21  1  0  0  0  0
 13 22  1  0  0  0  0
 14 23  1  0  0  0  0
 14 24  1  0  0  0  0
 14 25  1  0  0  0  0
 15 16  1  0  0  0  0
 16 27  1  0  0  0  0
 16 28  1  0  0  0  0
 17 29  1  0  0  0  0
 17 30  1  0  0  0  0
 17 31  1  0  0  0  0
M  END
> <PUBCHEM_COMPOUND_CID>
17395838

> <PUBCHEM_COMPOUND_CANONICALIZED>
1

> <PUBCHEM_CACTVS_COMPLEXITY>
288

> <PUBCHEM_CACTVS_HBOND_ACCEPTOR>
4

> <PUBCHEM_CACTVS_HBOND_DONOR>
1

> <PUBCHEM_CACTVS_ROTATABLE_BOND>
3

> <PUBCHEM_CACTVS_SUBSKEYS>
AAADccBzIABgAAAAAAAAAAAAAAAAAWAAAAAwAAAAAAAAAFgB8AAAHgQQAAAADAiF3gCz0bLIEAisAyVydACD8KlhCDlBmDwgRJiIIKLgmZGEIAhokQJIyCcQgEAOCAACgAACAQAQAAUAAAQCAAAAAAAAAA==

> <PUBCHEM_IUPAC_OPENEYE_NAME>
N-(4,6-dimethyl-1,3-benzothiazol-2-yl)-2-methylsulfanyl-acetamide

> <PUBCHEM_IUPAC_CAS_NAME>
N-(4,6-dimethyl-1,3-benzothiazol-2-yl)-2-(methylthio)acetamide

> <PUBCHEM_IUPAC_NAME>
N-(4,6-dimethyl-1,3-benzothiazol-2-yl)-2-methylsulfanylacetamide

> <PUBCHEM_IUPAC_SYSTEMATIC_NAME>
N-(4,6-dimethyl-1,3-benzothiazol-2-yl)-2-methylsulfanyl-ethanamide

> <PUBCHEM_IUPAC_TRADITIONAL_NAME>
N-(4,6-dimethyl-1,3-benzothiazol-2-yl)-2-(methylthio)acetamide

> <PUBCHEM_IUPAC_INCHI>
InChI=1S/C12H14N2OS2/c1-7-4-8(2)11-9(5-7)17-12(14-11)13-10(15)6-16-3/h4-5H,6H2,1-3H3,(H,13,14,15)

> <PUBCHEM_IUPAC_INCHIKEY>
OUHGTDSXRTYOTQ-UHFFFAOYSA-N

> <PUBCHEM_XLOGP3_AA>
3.3

> <PUBCHEM_EXACT_MASS>
266.054755

> <PUBCHEM_MOLECULAR_FORMULA>
C12H14N2OS2

> <PUBCHEM_MOLECULAR_WEIGHT>
266.38236

> <PUBCHEM_OPENEYE_CAN_SMILES>
CC1=CC(=C2C(=C1)SC(=N2)NC(=O)CSC)C

> <PUBCHEM_OPENEYE_ISO_SMILES>
CC1=CC(=C2C(=C1)SC(=N2)NC(=O)CSC)C

> <PUBCHEM_CACTVS_TPSA>
95.5

> <PUBCHEM_MONOISOTOPIC_WEIGHT>
266.054755

> <PUBCHEM_TOTAL_CHARGE>
0

> <PUBCHEM_HEAVY_ATOM_COUNT>
17

> <PUBCHEM_ATOM_DEF_STEREO_COUNT>
0

> <PUBCHEM_ATOM_UDEF_STEREO_COUNT>
0

> <PUBCHEM_BOND_DEF_STEREO_COUNT>
0

> <PUBCHEM_BOND_UDEF_STEREO_COUNT>
0

> <PUBCHEM_ISOTOPIC_ATOM_COUNT>
0

> <PUBCHEM_COMPONENT_COUNT>
1

> <PUBCHEM_CACTVS_TAUTO_COUNT>
5

> <PUBCHEM_COORDINATE_TYPE>
1
5
255

> <PUBCHEM_BONDANNOTATIONS>
1  12  8
1  8  8
4  12  8
4  6  8
6  7  8
6  8  8
7  10  8
8  11  8
9  10  8
9  11  8

$$$$

