4877
  -OEChem-06261200232D

 43 46  0     0  0  0  0  0  0999 V2000
    5.2006   -1.4753    0.0000 N   0  0  0  0  0  0  0  0  0  0  0  0
    5.5053   -0.5290    0.0000 N   0  0  0  0  0  0  0  0  0  0  0  0
    3.5387   -2.2239    0.0000 N   0  0  0  0  0  0  0  0  0  0  0  0
    2.2495   -1.0671    0.0000 N   0  0  0  0  0  0  0  0  0  0  0  0
    2.6067    0.6277    0.0000 N   0  0  0  0  0  0  0  0  0  0  0  0
    5.7912   -2.2822    0.0000 C   0  0  0  0  0  0  0  0  0  0  0  0
    4.2065   -1.4796    0.0000 C   0  0  0  0  0  0  0  0  0  0  0  0
    6.3817   -3.0892    0.0000 C   0  0  0  0  0  0  0  0  0  0  0  0
    6.5981   -1.6917    0.0000 C   0  0  0  0  0  0  0  0  0  0  0  0
    4.9842   -2.8728    0.0000 C   0  0  0  0  0  0  0  0  0  0  0  0
    3.8958   -0.5290    0.0000 C   0  0  0  0  0  0  0  0  0  0  0  0
    4.7006    0.0546    0.0000 C   0  0  0  0  0  0  0  0  0  0  0  0
    4.7006    1.0546    0.0000 C   0  0  0  0  0  0  0  0  0  0  0  0
    5.5666    1.5546    0.0000 C   0  0  0  0  0  0  0  0  0  0  0  0
    2.9173   -0.3228    0.0000 C   0  0  0  0  0  0  0  0  0  0  0  0
    5.5666    2.5546    0.0000 C   0  0  0  0  0  0  0  0  0  0  0  0
    3.8346    1.5546    0.0000 C   0  0  0  0  0  0  0  0  0  0  0  0
    6.4605    1.0199    0.0000 C   0  0  0  0  0  0  0  0  0  0  0  0
    4.7006    3.0546    0.0000 C   0  0  0  0  0  0  0  0  0  0  0  0
    3.8346    2.5546    0.0000 C   0  0  0  0  0  0  0  0  0  0  0  0
    2.5602   -2.0176    0.0000 C   0  0  0  0  0  0  0  0  0  0  0  0
    6.4605    3.0892    0.0000 C   0  0  0  0  0  0  0  0  0  0  0  0
    7.3666    1.5338    0.0000 C   0  0  0  0  0  0  0  0  0  0  0  0
    7.3666    2.5754    0.0000 C   0  0  0  0  0  0  0  0  0  0  0  0
    5.8814   -3.4554    0.0000 H   0  0  0  0  0  0  0  0  0  0  0  0
    6.7479   -3.5896    0.0000 H   0  0  0  0  0  0  0  0  0  0  0  0
    4.6180   -2.3725    0.0000 H   0  0  0  0  0  0  0  0  0  0  0  0
    4.4838   -3.2390    0.0000 H   0  0  0  0  0  0  0  0  0  0  0  0
    5.3503   -3.3732    0.0000 H   0  0  0  0  0  0  0  0  0  0  0  0
    6.9643   -2.1920    0.0000 H   0  0  0  0  0  0  0  0  0  0  0  0
    7.0985   -1.3255    0.0000 H   0  0  0  0  0  0  0  0  0  0  0  0
    6.2320   -1.1913    0.0000 H   0  0  0  0  0  0  0  0  0  0  0  0
    6.8821   -2.7231    0.0000 H   0  0  0  0  0  0  0  0  0  0  0  0
    3.2976    1.2446    0.0000 H   0  0  0  0  0  0  0  0  0  0  0  0
    6.4534    0.3999    0.0000 H   0  0  0  0  0  0  0  0  0  0  0  0
    4.7006    3.6746    0.0000 H   0  0  0  0  0  0  0  0  0  0  0  0
    3.2976    2.8646    0.0000 H   0  0  0  0  0  0  0  0  0  0  0  0
    2.1461   -2.4791    0.0000 H   0  0  0  0  0  0  0  0  0  0  0  0
    6.4534    3.7092    0.0000 H   0  0  0  0  0  0  0  0  0  0  0  0
    2.0000    0.7555    0.0000 H   0  0  0  0  0  0  0  0  0  0  0  0
    3.0207    1.0892    0.0000 H   0  0  0  0  0  0  0  0  0  0  0  0
    7.9024    1.2217    0.0000 H   0  0  0  0  0  0  0  0  0  0  0  0
    7.9024    2.8874    0.0000 H   0  0  0  0  0  0  0  0  0  0  0  0
  1  2  1  0  0  0  0
  1  6  1  0  0  0  0
  1  7  1  0  0  0  0
  2 12  2  0  0  0  0
  3  7  2  0  0  0  0
  3 21  1  0  0  0  0
  4 15  1  0  0  0  0
  4 21  2  0  0  0  0
  5 15  1  0  0  0  0
  5 40  1  0  0  0  0
  5 41  1  0  0  0  0
  6  8  1  0  0  0  0
  6  9  1  0  0  0  0
  6 10  1  0  0  0  0
  7 11  1  0  0  0  0
  8 25  1  0  0  0  0
  8 26  1  0  0  0  0
  8 33  1  0  0  0  0
  9 30  1  0  0  0  0
  9 31  1  0  0  0  0
  9 32  1  0  0  0  0
 10 27  1  0  0  0  0
 10 28  1  0  0  0  0
 10 29  1  0  0  0  0
 11 12  1  0  0  0  0
 11 15  2  0  0  0  0
 12 13  1  0  0  0  0
 13 14  1  0  0  0  0
 13 17  2  0  0  0  0
 14 16  1  0  0  0  0
 14 18  2  0  0  0  0
 16 19  1  0  0  0  0
 16 22  2  0  0  0  0
 17 20  1  0  0  0  0
 17 34  1  0  0  0  0
 18 23  1  0  0  0  0
 18 35  1  0  0  0  0
 19 20  2  0  0  0  0
 19 36  1  0  0  0  0
 20 37  1  0  0  0  0
 21 38  1  0  0  0  0
 22 24  1  0  0  0  0
 22 39  1  0  0  0  0
 23 24  2  0  0  0  0
 23 42  1  0  0  0  0
 24 43  1  0  0  0  0
M  END
> <PUBCHEM_COMPOUND_CID>
4877

> <PUBCHEM_COMPOUND_CANONICALIZED>
1

> <PUBCHEM_CACTVS_COMPLEXITY>
448

> <PUBCHEM_CACTVS_HBOND_ACCEPTOR>
4

> <PUBCHEM_CACTVS_HBOND_DONOR>
1

> <PUBCHEM_CACTVS_ROTATABLE_BOND>
2

> <PUBCHEM_CACTVS_SUBSKEYS>
AAADceB7gAAAAAAAAAAAAAAAAAAAAWAAAAA8YIAAAAAAAFjB/AAAHAAYAAAADIiBHwQ3sN5IEACiAyZjZACShCsxAKAd2CAoRJiIKKLA2dGEpAhoiALIyCcQgMAOgAACAAAQAAAAAAQAACAAAAAAAAAAAA==

> <PUBCHEM_IUPAC_OPENEYE_NAME>
1-tert-butyl-3-(1-naphthyl)pyrazolo[3,4-d]pyrimidin-4-amine

> <PUBCHEM_IUPAC_CAS_NAME>
1-tert-butyl-3-(1-naphthalenyl)-4-pyrazolo[3,4-d]pyrimidinamine

> <PUBCHEM_IUPAC_NAME>
1-tert-butyl-3-naphthalen-1-ylpyrazolo[3,4-d]pyrimidin-4-amine

> <PUBCHEM_IUPAC_SYSTEMATIC_NAME>
1-tert-butyl-3-naphthalen-1-yl-pyrazolo[3,4-d]pyrimidin-4-amine

> <PUBCHEM_IUPAC_TRADITIONAL_NAME>
[1-tert-butyl-3-(1-naphthyl)pyrazolo[3,4-d]pyrimidin-4-yl]amine

> <PUBCHEM_IUPAC_INCHI>
InChI=1S/C19H19N5/c1-19(2,3)24-18-15(17(20)21-11-22-18)16(23-24)14-10-6-8-12-7-4-5-9-13(12)14/h4-11H,1-3H3,(H2,20,21,22)

> <PUBCHEM_IUPAC_INCHIKEY>
XSHQBIXMLULFEV-UHFFFAOYSA-N

> <PUBCHEM_XLOGP3_AA>
3.6

> <PUBCHEM_EXACT_MASS>
317.164046

> <PUBCHEM_MOLECULAR_FORMULA>
C19H19N5

> <PUBCHEM_MOLECULAR_WEIGHT>
317.38766

> <PUBCHEM_OPENEYE_CAN_SMILES>
CC(C)(C)N1C2=C(C(=N1)C3=CC=CC4=CC=CC=C43)C(=NC=N2)N

> <PUBCHEM_OPENEYE_ISO_SMILES>
CC(C)(C)N1C2=C(C(=N1)C3=CC=CC4=CC=CC=C43)C(=NC=N2)N

> <PUBCHEM_CACTVS_TPSA>
69.6

> <PUBCHEM_MONOISOTOPIC_WEIGHT>
317.164046

> <PUBCHEM_TOTAL_CHARGE>
0

> <PUBCHEM_HEAVY_ATOM_COUNT>
24

> <PUBCHEM_ATOM_DEF_STEREO_COUNT>
0

> <PUBCHEM_ATOM_UDEF_STEREO_COUNT>
0

> <PUBCHEM_BOND_DEF_STEREO_COUNT>
0

> <PUBCHEM_BOND_UDEF_STEREO_COUNT>
0

> <PUBCHEM_ISOTOPIC_ATOM_COUNT>
0

> <PUBCHEM_COMPONENT_COUNT>
1

> <PUBCHEM_CACTVS_TAUTO_COUNT>
5

> <PUBCHEM_COORDINATE_TYPE>
1
5
255

> <PUBCHEM_BONDANNOTATIONS>
1  2  8
1  7  8
11  12  8
11  15  8
13  14  8
13  17  8
14  16  8
14  18  8
16  19  8
16  22  8
17  20  8
18  23  8
19  20  8
2  12  8
22  24  8
23  24  8
3  21  8
3  7  8
4  15  8
4  21  8
7  11  8

$$$$

