5660
  -OEChem-06261200482D

 41 44  0     1  0  0  0  0  0999 V2000
    8.5502   -0.7559    0.0000 O   0  0  0  0  0  0  0  0  0  0  0  0
    3.6670    0.3505    0.0000 O   0  0  0  0  0  0  0  0  0  0  0  0
    4.0674    2.2658    0.0000 O   0  0  0  0  0  0  0  0  0  0  0  0
    5.4940   -2.4520    0.0000 O   0  0  0  0  0  0  0  0  0  0  0  0
    6.0111    0.1924    0.0000 C   0  0  3  0  0  0  0  0  0  0  0  0
    7.8431   -0.0488    0.0000 C   0  0  3  0  0  0  0  0  0  0  0  0
    4.4760   -1.0508    0.0000 C   0  0  3  0  0  0  0  0  0  0  0  0
    6.2699    1.1583    0.0000 C   0  0  3  0  0  0  0  0  0  0  0  0
    5.0333    2.0069    0.0000 C   0  0  3  0  0  0  0  0  0  0  0  0
    8.8090    0.2100    0.0000 C   0  0  0  0  0  0  0  0  0  0  0  0
    5.8994    2.5069    0.0000 C   0  0  0  0  0  0  0  0  0  0  0  0
    3.5624   -0.6440    0.0000 C   0  0  3  0  0  0  0  0  0  0  0  0
    5.7523   -0.7736    0.0000 C   0  0  0  0  0  0  0  0  0  0  0  0
    4.6008   -2.0849    0.0000 C   0  0  0  0  0  0  0  0  0  0  0  0
    5.3895   -1.4575    0.0000 C   0  0  0  0  0  0  0  0  0  0  0  0
    2.7104   -1.2432    0.0000 C   0  0  0  0  0  0  0  0  0  0  0  0
    3.7628   -2.7036    0.0000 C   0  0  0  0  0  0  0  0  0  0  0  0
    2.8113   -2.2800    0.0000 C   0  0  0  0  0  0  0  0  0  0  0  0
    2.0000   -2.8646    0.0000 C   0  0  0  0  0  0  0  0  0  0  0  0
    5.7261    1.4560    0.0000 H   0  0  0  0  0  0  0  0  0  0  0  0
    4.9524    2.6216    0.0000 H   0  0  0  0  0  0  0  0  0  0  0  0
    9.4266    0.1560    0.0000 H   0  0  0  0  0  0  0  0  0  0  0  0
    8.7550    0.8276    0.0000 H   0  0  0  0  0  0  0  0  0  0  0  0
    6.4811    2.7215    0.0000 H   0  0  0  0  0  0  0  0  0  0  0  0
    5.6361    3.0683    0.0000 H   0  0  0  0  0  0  0  0  0  0  0  0
    3.0279   -0.3299    0.0000 H   0  0  0  0  0  0  0  0  0  0  0  0
    5.1534   -0.6131    0.0000 H   0  0  0  0  0  0  0  0  0  0  0  0
    5.5918   -1.3724    0.0000 H   0  0  0  0  0  0  0  0  0  0  0  0
    6.3512   -0.9340    0.0000 H   0  0  0  0  0  0  0  0  0  0  0  0
    4.8783   -2.6393    0.0000 H   0  0  0  0  0  0  0  0  0  0  0  0
    5.1945   -1.9064    0.0000 H   0  0  0  0  0  0  0  0  0  0  0  0
    6.0080   -1.5008    0.0000 H   0  0  0  0  0  0  0  0  0  0  0  0
    5.5395   -0.8559    0.0000 H   0  0  0  0  0  0  0  0  0  0  0  0
    2.1469   -0.9845    0.0000 H   0  0  0  0  0  0  0  0  0  0  0  0
    3.4175   -3.2185    0.0000 H   0  0  0  0  0  0  0  0  0  0  0  0
    4.2110   -3.1320    0.0000 H   0  0  0  0  0  0  0  0  0  0  0  0
    3.9069    2.8646    0.0000 H   0  0  0  0  0  0  0  0  0  0  0  0
    6.0604   -2.7042    0.0000 H   0  0  0  0  0  0  0  0  0  0  0  0
    1.6375   -2.3616    0.0000 H   0  0  0  0  0  0  0  0  0  0  0  0
    1.4970   -3.2271    0.0000 H   0  0  0  0  0  0  0  0  0  0  0  0
    2.3625   -3.3676    0.0000 H   0  0  0  0  0  0  0  0  0  0  0  0
  1  6  1  0  0  0  0
  1 10  1  0  0  0  0
  2  8  1  0  0  0  0
  2 12  1  0  0  0  0
  3  9  1  0  0  0  0
  3 37  1  0  0  0  0
  4 15  1  0  0  0  0
  4 38  1  0  0  0  0
  5  6  1  0  0  0  0
  5  7  1  0  0  0  0
  5  9  1  0  0  0  0
  5 13  1  0  0  0  0
  6  8  1  0  0  0  0
  6 10  1  0  0  0  0
  7 12  1  0  0  0  0
  7 14  1  0  0  0  0
  7 15  1  0  0  0  0
  8 11  1  0  0  0  0
  8 20  1  0  0  0  0
  9 11  1  0  0  0  0
  9 21  1  0  0  0  0
 10 22  1  0  0  0  0
 10 23  1  0  0  0  0
 11 24  1  0  0  0  0
 11 25  1  0  0  0  0
 12 16  1  0  0  0  0
 12 26  1  0  0  0  0
 13 27  1  0  0  0  0
 13 28  1  0  0  0  0
 13 29  1  0  0  0  0
 14 17  1  0  0  0  0
 14 30  1  0  0  0  0
 14 31  1  0  0  0  0
 15 32  1  0  0  0  0
 15 33  1  0  0  0  0
 16 18  2  0  0  0  0
 16 34  1  0  0  0  0
 17 18  1  0  0  0  0
 17 35  1  0  0  0  0
 17 36  1  0  0  0  0
 18 19  1  0  0  0  0
 19 39  1  0  0  0  0
 19 40  1  0  0  0  0
 19 41  1  0  0  0  0
M  END
> <PUBCHEM_COMPOUND_CID>
5660

> <PUBCHEM_COMPOUND_CANONICALIZED>
1

> <PUBCHEM_CACTVS_COMPLEXITY>
461

> <PUBCHEM_CACTVS_HBOND_ACCEPTOR>
4

> <PUBCHEM_CACTVS_HBOND_DONOR>
2

> <PUBCHEM_CACTVS_ROTATABLE_BOND>
1

> <PUBCHEM_CACTVS_SUBSKEYS>
AAADceBwOAAAAAAAAAAAAAAAEgAAAYAAAAAkQAAABIAAAACAAAAAGgAACAAADlSggAICAAAABgCAAiBCAAAAAAAgAAAACAAAAAgBFAIAIQACUAAFgAAKIAPA4PwPgAAAAAAAAAAAAAAAAAAAAIQADCAAAA==

> <PUBCHEM_IUPAC_INCHI>
InChI=1S/C15H22O4/c1-9-3-4-14(7-16)11(5-9)19-12-6-10(17)13(14,2)15(12)8-18-15/h5,10-12,16-17H,3-4,6-8H2,1-2H3

> <PUBCHEM_IUPAC_INCHIKEY>
ZSRVBNXAPSQDFY-UHFFFAOYSA-N

> <PUBCHEM_XLOGP3_AA>
0

> <PUBCHEM_EXACT_MASS>
266.151809

> <PUBCHEM_MOLECULAR_FORMULA>
C15H22O4

> <PUBCHEM_MOLECULAR_WEIGHT>
266.33278

> <PUBCHEM_OPENEYE_CAN_SMILES>
CC1=CC2C(CC1)(C3(C(CC(C34CO4)O2)O)C)CO

> <PUBCHEM_OPENEYE_ISO_SMILES>
CC1=CC2C(CC1)(C3(C(CC(C34CO4)O2)O)C)CO

> <PUBCHEM_CACTVS_TPSA>
62.2

> <PUBCHEM_MONOISOTOPIC_WEIGHT>
266.151809

> <PUBCHEM_TOTAL_CHARGE>
0

> <PUBCHEM_HEAVY_ATOM_COUNT>
19

> <PUBCHEM_ATOM_DEF_STEREO_COUNT>
0

> <PUBCHEM_ATOM_UDEF_STEREO_COUNT>
6

> <PUBCHEM_BOND_DEF_STEREO_COUNT>
0

> <PUBCHEM_BOND_UDEF_STEREO_COUNT>
0

> <PUBCHEM_ISOTOPIC_ATOM_COUNT>
0

> <PUBCHEM_COMPONENT_COUNT>
1

> <PUBCHEM_CACTVS_TAUTO_COUNT>
1

> <PUBCHEM_COORDINATE_TYPE>
1
5
255

> <PUBCHEM_BONDANNOTATIONS>
12  16  3
9  3  3
5  13  3
6  10  3
7  15  3
8  11  3

$$$$

