17396078
  -OEChem-06241222542D

 59 63  0     0  0  0  0  0  0999 V2000
    4.6783    0.4977    0.0000 O   0  0  0  0  0  0  0  0  0  0  0  0
    7.7619   -3.0277    0.0000 O   0  0  0  0  0  0  0  0  0  0  0  0
    6.7619    2.1684    0.0000 O   0  0  0  0  0  0  0  0  0  0  0  0
    4.3211    3.8020    0.0000 O   0  0  0  0  0  0  0  0  0  0  0  0
   12.2337   -4.1030    0.0000 O   0  0  0  0  0  0  0  0  0  0  0  0
   11.4290   -5.4968    0.0000 O   0  0  0  0  0  0  0  0  0  0  0  0
    6.7619    0.4364    0.0000 N   0  0  0  0  0  0  0  0  0  0  0  0
    9.2619   -2.1617    0.0000 N   0  0  0  0  0  0  0  0  0  0  0  0
    7.7619   -1.2957    0.0000 C   0  0  0  0  0  0  0  0  0  0  0  0
    8.2619   -0.4296    0.0000 C   0  0  0  0  0  0  0  0  0  0  0  0
    6.7619   -1.2957    0.0000 C   0  0  0  0  0  0  0  0  0  0  0  0
    6.2619   -0.4296    0.0000 C   0  0  0  0  0  0  0  0  0  0  0  0
    7.7619    0.4364    0.0000 C   0  0  0  0  0  0  0  0  0  0  0  0
    8.2619   -2.1617    0.0000 C   0  0  0  0  0  0  0  0  0  0  0  0
    6.2619    1.3024    0.0000 C   0  0  0  0  0  0  0  0  0  0  0  0
    5.2619    1.3024    0.0000 C   0  0  0  0  0  0  0  0  0  0  0  0
    4.6783    2.1071    0.0000 C   0  0  0  0  0  0  0  0  0  0  0  0
    3.7320    1.8024    0.0000 C   0  0  0  0  0  0  0  0  0  0  0  0
    9.7619   -3.0277    0.0000 C   0  0  0  0  0  0  0  0  0  0  0  0
    3.7320    0.8024    0.0000 C   0  0  0  0  0  0  0  0  0  0  0  0
    4.9889    3.0577    0.0000 C   0  0  0  0  0  0  0  0  0  0  0  0
    2.8660    2.3024    0.0000 C   0  0  0  0  0  0  0  0  0  0  0  0
   10.7619   -3.0277    0.0000 C   0  0  0  0  0  0  0  0  0  0  0  0
    2.8660    0.3024    0.0000 C   0  0  0  0  0  0  0  0  0  0  0  0
    9.2619   -3.8937    0.0000 C   0  0  0  0  0  0  0  0  0  0  0  0
   11.2619   -3.8937    0.0000 C   0  0  0  0  0  0  0  0  0  0  0  0
    2.0000    1.8024    0.0000 C   0  0  0  0  0  0  0  0  0  0  0  0
    2.0000    0.8024    0.0000 C   0  0  0  0  0  0  0  0  0  0  0  0
   10.7619   -4.7598    0.0000 C   0  0  0  0  0  0  0  0  0  0  0  0
    9.7619   -4.7598    0.0000 C   0  0  0  0  0  0  0  0  0  0  0  0
    4.6318    4.7525    0.0000 C   0  0  0  0  0  0  0  0  0  0  0  0
   12.3368   -5.0917    0.0000 C   0  0  0  0  0  0  0  0  0  0  0  0
    3.9639    5.4968    0.0000 C   0  0  0  0  0  0  0  0  0  0  0  0
    7.4519   -1.8326    0.0000 H   0  0  0  0  0  0  0  0  0  0  0  0
    8.7368   -0.8282    0.0000 H   0  0  0  0  0  0  0  0  0  0  0  0
    8.7368   -0.0311    0.0000 H   0  0  0  0  0  0  0  0  0  0  0  0
    6.1793   -1.5077    0.0000 H   0  0  0  0  0  0  0  0  0  0  0  0
    6.8695   -1.9062    0.0000 H   0  0  0  0  0  0  0  0  0  0  0  0
    8.3445    0.6484    0.0000 H   0  0  0  0  0  0  0  0  0  0  0  0
    7.6542    1.0470    0.0000 H   0  0  0  0  0  0  0  0  0  0  0  0
    5.7869   -0.0311    0.0000 H   0  0  0  0  0  0  0  0  0  0  0  0
    5.7869   -0.8282    0.0000 H   0  0  0  0  0  0  0  0  0  0  0  0
    9.5719   -1.6248    0.0000 H   0  0  0  0  0  0  0  0  0  0  0  0
    5.5359    2.7656    0.0000 H   0  0  0  0  0  0  0  0  0  0  0  0
    5.3715    3.5456    0.0000 H   0  0  0  0  0  0  0  0  0  0  0  0
    2.8660    2.9224    0.0000 H   0  0  0  0  0  0  0  0  0  0  0  0
   11.0719   -2.4908    0.0000 H   0  0  0  0  0  0  0  0  0  0  0  0
    2.8660   -0.3176    0.0000 H   0  0  0  0  0  0  0  0  0  0  0  0
    8.6419   -3.8937    0.0000 H   0  0  0  0  0  0  0  0  0  0  0  0
    1.4631    2.1124    0.0000 H   0  0  0  0  0  0  0  0  0  0  0  0
    1.4631    0.4924    0.0000 H   0  0  0  0  0  0  0  0  0  0  0  0
    9.4519   -5.2967    0.0000 H   0  0  0  0  0  0  0  0  0  0  0  0
    5.1787    4.4605    0.0000 H   0  0  0  0  0  0  0  0  0  0  0  0
    5.0143    5.2404    0.0000 H   0  0  0  0  0  0  0  0  0  0  0  0
   12.5285   -5.6813    0.0000 H   0  0  0  0  0  0  0  0  0  0  0  0
   12.9432   -4.9629    0.0000 H   0  0  0  0  0  0  0  0  0  0  0  0
    4.4254    5.9108    0.0000 H   0  0  0  0  0  0  0  0  0  0  0  0
    3.5498    5.9582    0.0000 H   0  0  0  0  0  0  0  0  0  0  0  0
    3.5024    5.0827    0.0000 H   0  0  0  0  0  0  0  0  0  0  0  0
  1 16  1  0  0  0  0
  1 20  1  0  0  0  0
  2 14  2  0  0  0  0
  3 15  2  0  0  0  0
  4 21  1  0  0  0  0
  4 31  1  0  0  0  0
  5 26  1  0  0  0  0
  5 32  1  0  0  0  0
  6 29  1  0  0  0  0
  6 32  1  0  0  0  0
  7 12  1  0  0  0  0
  7 13  1  0  0  0  0
  7 15  1  0  0  0  0
  8 14  1  0  0  0  0
  8 19  1  0  0  0  0
  8 43  1  0  0  0  0
  9 10  1  0  0  0  0
  9 11  1  0  0  0  0
  9 14  1  0  0  0  0
  9 34  1  0  0  0  0
 10 13  1  0  0  0  0
 10 35  1  0  0  0  0
 10 36  1  0  0  0  0
 11 12  1  0  0  0  0
 11 37  1  0  0  0  0
 11 38  1  0  0  0  0
 12 41  1  0  0  0  0
 12 42  1  0  0  0  0
 13 39  1  0  0  0  0
 13 40  1  0  0  0  0
 15 16  1  0  0  0  0
 16 17  2  0  0  0  0
 17 18  1  0  0  0  0
 17 21  1  0  0  0  0
 18 20  1  0  0  0  0
 18 22  2  0  0  0  0
 19 23  2  0  0  0  0
 19 25  1  0  0  0  0
 20 24  2  0  0  0  0
 21 44  1  0  0  0  0
 21 45  1  0  0  0  0
 22 27  1  0  0  0  0
 22 46  1  0  0  0  0
 23 26  1  0  0  0  0
 23 47  1  0  0  0  0
 24 28  1  0  0  0  0
 24 48  1  0  0  0  0
 25 30  2  0  0  0  0
 25 49  1  0  0  0  0
 26 29  2  0  0  0  0
 27 28  2  0  0  0  0
 27 50  1  0  0  0  0
 28 51  1  0  0  0  0
 29 30  1  0  0  0  0
 30 52  1  0  0  0  0
 31 33  1  0  0  0  0
 31 53  1  0  0  0  0
 31 54  1  0  0  0  0
 32 55  1  0  0  0  0
 32 56  1  0  0  0  0
 33 57  1  0  0  0  0
 33 58  1  0  0  0  0
 33 59  1  0  0  0  0
M  END
> <PUBCHEM_COMPOUND_CID>
17396078

> <PUBCHEM_COMPOUND_CANONICALIZED>
1

> <PUBCHEM_CACTVS_COMPLEXITY>
696

> <PUBCHEM_CACTVS_HBOND_ACCEPTOR>
6

> <PUBCHEM_CACTVS_HBOND_DONOR>
1

> <PUBCHEM_CACTVS_ROTATABLE_BOND>
6

> <PUBCHEM_CACTVS_SUBSKEYS>
AAADceB7OAAAAAAAAAAAAAAAAAAAASJAAAA8YIAAAAAAAEgB9AAAHgAQAAAADQzhmAcyzsPABECIAqVSUAKCCAAlIgAIiAHO7MgfJzbEtb+nOSrn9hne6Yf+3+PugEAAAgAIQAAAgAAEABCAAAAAAAAAAA==

> <PUBCHEM_IUPAC_OPENEYE_NAME>
N-(1,3-benzodioxol-5-yl)-1-[3-(ethoxymethyl)benzofuran-2-carbonyl]piperidine-4-carboxamide

> <PUBCHEM_IUPAC_CAS_NAME>
N-(1,3-benzodioxol-5-yl)-1-[[3-(ethoxymethyl)-2-benzofuranyl]-oxomethyl]-4-piperidinecarboxamide

> <PUBCHEM_IUPAC_NAME>
N-(1,3-benzodioxol-5-yl)-1-[3-(ethoxymethyl)-1-benzofuran-2-carbonyl]piperidine-4-carboxamide

> <PUBCHEM_IUPAC_SYSTEMATIC_NAME>
N-(1,3-benzodioxol-5-yl)-1-[[3-(ethoxymethyl)-1-benzofuran-2-yl]carbonyl]piperidine-4-carboxamide

> <PUBCHEM_IUPAC_TRADITIONAL_NAME>
N-(1,3-benzodioxol-5-yl)-1-[3-(ethoxymethyl)benzofuran-2-carbonyl]isonipecotamide

> <PUBCHEM_IUPAC_INCHI>
InChI=1S/C25H26N2O6/c1-2-30-14-19-18-5-3-4-6-20(18)33-23(19)25(29)27-11-9-16(10-12-27)24(28)26-17-7-8-21-22(13-17)32-15-31-21/h3-8,13,16H,2,9-12,14-15H2,1H3,(H,26,28)

> <PUBCHEM_IUPAC_INCHIKEY>
TXQVXJZFAKKLOH-UHFFFAOYSA-N

> <PUBCHEM_XLOGP3_AA>
3.3

> <PUBCHEM_EXACT_MASS>
450.179087

> <PUBCHEM_MOLECULAR_FORMULA>
C25H26N2O6

> <PUBCHEM_MOLECULAR_WEIGHT>
450.48374

> <PUBCHEM_OPENEYE_CAN_SMILES>
CCOCC1=C(OC2=CC=CC=C21)C(=O)N3CCC(CC3)C(=O)NC4=CC5=C(C=C4)OCO5

> <PUBCHEM_OPENEYE_ISO_SMILES>
CCOCC1=C(OC2=CC=CC=C21)C(=O)N3CCC(CC3)C(=O)NC4=CC5=C(C=C4)OCO5

> <PUBCHEM_CACTVS_TPSA>
90.2

> <PUBCHEM_MONOISOTOPIC_WEIGHT>
450.179087

> <PUBCHEM_TOTAL_CHARGE>
0

> <PUBCHEM_HEAVY_ATOM_COUNT>
33

> <PUBCHEM_ATOM_DEF_STEREO_COUNT>
0

> <PUBCHEM_ATOM_UDEF_STEREO_COUNT>
0

> <PUBCHEM_BOND_DEF_STEREO_COUNT>
0

> <PUBCHEM_BOND_UDEF_STEREO_COUNT>
0

> <PUBCHEM_ISOTOPIC_ATOM_COUNT>
0

> <PUBCHEM_COMPONENT_COUNT>
1

> <PUBCHEM_CACTVS_TAUTO_COUNT>
3

> <PUBCHEM_COORDINATE_TYPE>
1
5
255

> <PUBCHEM_BONDANNOTATIONS>
1  16  8
1  20  8
16  17  8
17  18  8
18  20  8
18  22  8
19  23  8
19  25  8
20  24  8
22  27  8
23  26  8
24  28  8
25  30  8
26  29  8
27  28  8
29  30  8

$$$$

