11988
  -OEChem-06261206222D

 18 19  0     0  0  0  0  0  0999 V2000
    4.6783    1.0062    0.0000 S   0  0  0  0  0  0  0  0  0  0  0  0
    4.6783   -0.6033    0.0000 N   0  0  0  0  0  0  0  0  0  0  0  0
    6.2619    0.2015    0.0000 N   0  0  0  0  0  0  0  0  0  0  0  0
    6.7619   -0.6645    0.0000 N   0  0  0  0  0  0  0  0  0  0  0  0
    3.7320    0.7015    0.0000 C   0  0  0  0  0  0  0  0  0  0  0  0
    3.7320   -0.2985    0.0000 C   0  0  0  0  0  0  0  0  0  0  0  0
    2.8660    1.2015    0.0000 C   0  0  0  0  0  0  0  0  0  0  0  0
    2.8660   -0.7985    0.0000 C   0  0  0  0  0  0  0  0  0  0  0  0
    5.2619    0.2015    0.0000 C   0  0  0  0  0  0  0  0  0  0  0  0
    2.0000    0.7015    0.0000 C   0  0  0  0  0  0  0  0  0  0  0  0
    2.0000   -0.2985    0.0000 C   0  0  0  0  0  0  0  0  0  0  0  0
    2.8660    1.8215    0.0000 H   0  0  0  0  0  0  0  0  0  0  0  0
    2.8660   -1.4185    0.0000 H   0  0  0  0  0  0  0  0  0  0  0  0
    1.4631    1.0115    0.0000 H   0  0  0  0  0  0  0  0  0  0  0  0
    1.4631   -0.6085    0.0000 H   0  0  0  0  0  0  0  0  0  0  0  0
    6.5719    0.7384    0.0000 H   0  0  0  0  0  0  0  0  0  0  0  0
    7.3819   -0.6645    0.0000 H   0  0  0  0  0  0  0  0  0  0  0  0
    6.4519   -1.2015    0.0000 H   0  0  0  0  0  0  0  0  0  0  0  0
  1  5  1  0  0  0  0
  1  9  1  0  0  0  0
  2  6  1  0  0  0  0
  2  9  2  0  0  0  0
  3  4  1  0  0  0  0
  3  9  1  0  0  0  0
  3 16  1  0  0  0  0
  4 17  1  0  0  0  0
  4 18  1  0  0  0  0
  5  6  1  0  0  0  0
  5  7  2  0  0  0  0
  6  8  2  0  0  0  0
  7 10  1  0  0  0  0
  7 12  1  0  0  0  0
  8 11  1  0  0  0  0
  8 13  1  0  0  0  0
 10 11  2  0  0  0  0
 10 14  1  0  0  0  0
 11 15  1  0  0  0  0
M  END
> <PUBCHEM_COMPOUND_CID>
11988

> <PUBCHEM_COMPOUND_CANONICALIZED>
1

> <PUBCHEM_CACTVS_COMPLEXITY>
142

> <PUBCHEM_CACTVS_HBOND_ACCEPTOR>
4

> <PUBCHEM_CACTVS_HBOND_DONOR>
2

> <PUBCHEM_CACTVS_ROTATABLE_BOND>
1

> <PUBCHEM_CACTVS_SUBSKEYS>
AAADcYBjAABAAAAAAAAAAAAAAAAAAWAAAAAwAAAAAAAAAFgB8AAAHAQYAAAACAiBVgAx0bJqEAikASRiZACD8KlhCjtMuDwwZJiIIKLgkZGEIAhggAJIyCcQAAAAAAAAAAAAAQAAAAAAAAACAAAAAAAAAA==

> <PUBCHEM_IUPAC_OPENEYE_NAME>
1,3-benzothiazol-2-ylhydrazine

> <PUBCHEM_IUPAC_CAS_NAME>
1,3-benzothiazol-2-ylhydrazine

> <PUBCHEM_IUPAC_NAME>
1,3-benzothiazol-2-ylhydrazine

> <PUBCHEM_IUPAC_SYSTEMATIC_NAME>
1,3-benzothiazol-2-yldiazane

> <PUBCHEM_IUPAC_TRADITIONAL_NAME>
1,3-benzothiazol-2-ylhydrazine

> <PUBCHEM_IUPAC_INCHI>
InChI=1S/C7H7N3S/c8-10-7-9-5-3-1-2-4-6(5)11-7/h1-4H,8H2,(H,9,10)

> <PUBCHEM_IUPAC_INCHIKEY>
JYSUYJCLUODSLN-UHFFFAOYSA-N

> <PUBCHEM_XLOGP3>
1.8

> <PUBCHEM_EXACT_MASS>
165.036068

> <PUBCHEM_MOLECULAR_FORMULA>
C7H7N3S

> <PUBCHEM_MOLECULAR_WEIGHT>
165.21558

> <PUBCHEM_OPENEYE_CAN_SMILES>
C1=CC=C2C(=C1)N=C(S2)NN

> <PUBCHEM_OPENEYE_ISO_SMILES>
C1=CC=C2C(=C1)N=C(S2)NN

> <PUBCHEM_CACTVS_TPSA>
79.2

> <PUBCHEM_MONOISOTOPIC_WEIGHT>
165.036068

> <PUBCHEM_TOTAL_CHARGE>
0

> <PUBCHEM_HEAVY_ATOM_COUNT>
11

> <PUBCHEM_ATOM_DEF_STEREO_COUNT>
0

> <PUBCHEM_ATOM_UDEF_STEREO_COUNT>
0

> <PUBCHEM_BOND_DEF_STEREO_COUNT>
0

> <PUBCHEM_BOND_UDEF_STEREO_COUNT>
0

> <PUBCHEM_ISOTOPIC_ATOM_COUNT>
0

> <PUBCHEM_COMPONENT_COUNT>
1

> <PUBCHEM_CACTVS_TAUTO_COUNT>
2

> <PUBCHEM_COORDINATE_TYPE>
1
5
255

> <PUBCHEM_BONDANNOTATIONS>
1  5  8
1  9  8
10  11  8
2  6  8
2  9  8
5  6  8
5  7  8
6  8  8
7  10  8
8  11  8

$$$$

