586268
  -OEChem-06241222462D

 45 47  0     0  0  0  0  0  0999 V2000
    7.1962    4.4050    0.0000 Cl  0  0  0  0  0  0  0  0  0  0  0  0
    4.5981   -1.0950    0.0000 O   0  0  0  0  0  0  0  0  0  0  0  0
    6.3301   -4.0950    0.0000 O   0  0  0  0  0  0  0  0  0  0  0  0
    5.4641    0.4050    0.0000 N   0  0  0  0  0  0  0  0  0  0  0  0
    3.7321    0.4050    0.0000 N   0  0  0  0  0  0  0  0  0  0  0  0
    7.1962    0.4050    0.0000 C   0  0  0  0  0  0  0  0  0  0  0  0
    6.3301   -0.0950    0.0000 C   0  0  0  0  0  0  0  0  0  0  0  0
    6.3301   -1.0950    0.0000 C   0  0  0  0  0  0  0  0  0  0  0  0
    7.1962    1.4050    0.0000 C   0  0  0  0  0  0  0  0  0  0  0  0
    5.4641    1.4050    0.0000 C   0  0  0  0  0  0  0  0  0  0  0  0
    4.5981    1.9050    0.0000 C   0  0  0  0  0  0  0  0  0  0  0  0
    5.4641   -1.5950    0.0000 C   0  0  0  0  0  0  0  0  0  0  0  0
    7.1962   -1.5950    0.0000 C   0  0  0  0  0  0  0  0  0  0  0  0
    3.7321    1.4050    0.0000 C   0  0  0  0  0  0  0  0  0  0  0  0
    6.3301    1.9050    0.0000 C   0  0  0  0  0  0  0  0  0  0  0  0
    8.0622    1.9050    0.0000 C   0  0  0  0  0  0  0  0  0  0  0  0
    5.4641   -2.5950    0.0000 C   0  0  0  0  0  0  0  0  0  0  0  0
    7.1962   -2.5950    0.0000 C   0  0  0  0  0  0  0  0  0  0  0  0
    6.3301   -3.0950    0.0000 C   0  0  0  0  0  0  0  0  0  0  0  0
    6.3301    2.9050    0.0000 C   0  0  0  0  0  0  0  0  0  0  0  0
    8.0622    2.9050    0.0000 C   0  0  0  0  0  0  0  0  0  0  0  0
    2.8660    1.9050    0.0000 C   0  0  0  0  0  0  0  0  0  0  0  0
    7.1962    3.4050    0.0000 C   0  0  0  0  0  0  0  0  0  0  0  0
    2.0000    1.4050    0.0000 C   0  0  0  0  0  0  0  0  0  0  0  0
    2.8660   -0.0950    0.0000 C   0  0  0  0  0  0  0  0  0  0  0  0
    2.0000    0.4050    0.0000 C   0  0  0  0  0  0  0  0  0  0  0  0
    7.4082   -0.1776    0.0000 H   0  0  0  0  0  0  0  0  0  0  0  0
    7.8067    0.5127    0.0000 H   0  0  0  0  0  0  0  0  0  0  0  0
    6.0747    1.2973    0.0000 H   0  0  0  0  0  0  0  0  0  0  0  0
    5.6762    1.9876    0.0000 H   0  0  0  0  0  0  0  0  0  0  0  0
    4.9966    2.3799    0.0000 H   0  0  0  0  0  0  0  0  0  0  0  0
    4.1995    2.3799    0.0000 H   0  0  0  0  0  0  0  0  0  0  0  0
    7.7331   -1.2850    0.0000 H   0  0  0  0  0  0  0  0  0  0  0  0
    5.7932    1.5950    0.0000 H   0  0  0  0  0  0  0  0  0  0  0  0
    8.5991    1.5950    0.0000 H   0  0  0  0  0  0  0  0  0  0  0  0
    4.9272   -2.9050    0.0000 H   0  0  0  0  0  0  0  0  0  0  0  0
    7.7331   -2.9050    0.0000 H   0  0  0  0  0  0  0  0  0  0  0  0
    5.7932    3.2150    0.0000 H   0  0  0  0  0  0  0  0  0  0  0  0
    8.5991    3.2150    0.0000 H   0  0  0  0  0  0  0  0  0  0  0  0
    2.8660    2.5250    0.0000 H   0  0  0  0  0  0  0  0  0  0  0  0
    1.4631    1.7150    0.0000 H   0  0  0  0  0  0  0  0  0  0  0  0
    4.0611   -1.4050    0.0000 H   0  0  0  0  0  0  0  0  0  0  0  0
    2.8660   -0.7150    0.0000 H   0  0  0  0  0  0  0  0  0  0  0  0
    1.4631    0.0950    0.0000 H   0  0  0  0  0  0  0  0  0  0  0  0
    6.8671   -4.4050    0.0000 H   0  0  0  0  0  0  0  0  0  0  0  0
  1 23  1  0  0  0  0
  2 12  1  0  0  0  0
  2 42  1  0  0  0  0
  3 19  1  0  0  0  0
  3 45  1  0  0  0  0
  4  7  2  0  0  0  0
  4 10  1  0  0  0  0
  5 14  1  0  0  0  0
  5 25  2  0  0  0  0
  6  7  1  0  0  0  0
  6  9  1  0  0  0  0
  6 27  1  0  0  0  0
  6 28  1  0  0  0  0
  7  8  1  0  0  0  0
  8 12  2  0  0  0  0
  8 13  1  0  0  0  0
  9 15  2  0  0  0  0
  9 16  1  0  0  0  0
 10 11  1  0  0  0  0
 10 29  1  0  0  0  0
 10 30  1  0  0  0  0
 11 14  1  0  0  0  0
 11 31  1  0  0  0  0
 11 32  1  0  0  0  0
 12 17  1  0  0  0  0
 13 18  2  0  0  0  0
 13 33  1  0  0  0  0
 14 22  2  0  0  0  0
 15 20  1  0  0  0  0
 15 34  1  0  0  0  0
 16 21  2  0  0  0  0
 16 35  1  0  0  0  0
 17 19  2  0  0  0  0
 17 36  1  0  0  0  0
 18 19  1  0  0  0  0
 18 37  1  0  0  0  0
 20 23  2  0  0  0  0
 20 38  1  0  0  0  0
 21 23  1  0  0  0  0
 21 39  1  0  0  0  0
 22 24  1  0  0  0  0
 22 40  1  0  0  0  0
 24 26  2  0  0  0  0
 24 41  1  0  0  0  0
 25 26  1  0  0  0  0
 25 43  1  0  0  0  0
 26 44  1  0  0  0  0
M  END
> <PUBCHEM_COMPOUND_CID>
586268

> <PUBCHEM_COMPOUND_CANONICALIZED>
1

> <PUBCHEM_CACTVS_COMPLEXITY>
451

> <PUBCHEM_CACTVS_HBOND_ACCEPTOR>
4

> <PUBCHEM_CACTVS_HBOND_DONOR>
2

> <PUBCHEM_CACTVS_ROTATABLE_BOND>
6

> <PUBCHEM_CACTVS_SUBSKEYS>
AAADceB7MAAEAAAAAAAAAAAAAAAAAAAAAAA8YIAAAAAAAAAB0AAAHgIACAAADA7BniQ8hpIIEgCgAzRnRACCgCAxJyAI2CA+bpgIJ+LD05OEcAhlwBXI2AeQ4PQOJAAACAAIAABIAAAQABAAAAAAAAAAAA==

> <PUBCHEM_IUPAC_OPENEYE_NAME>
4-[C-[(4-chlorophenyl)methyl]-N-[2-(2-pyridyl)ethyl]carbonimidoyl]benzene-1,3-diol

> <PUBCHEM_IUPAC_CAS_NAME>
4-[2-(4-chlorophenyl)-1-[2-(2-pyridinyl)ethylimino]ethyl]benzene-1,3-diol

> <PUBCHEM_IUPAC_NAME>
4-[C-[(4-chlorophenyl)methyl]-N-(2-pyridin-2-ylethyl)carbonimidoyl]benzene-1,3-diol

> <PUBCHEM_IUPAC_SYSTEMATIC_NAME>
4-[C-[(4-chlorophenyl)methyl]-N-(2-pyridin-2-ylethyl)carbonimidoyl]benzene-1,3-diol

> <PUBCHEM_IUPAC_TRADITIONAL_NAME>
4-[C-(4-chlorobenzyl)-N-[2-(2-pyridyl)ethyl]carbonimidoyl]resorcinol

> <PUBCHEM_IUPAC_INCHI>
InChI=1S/C21H19ClN2O2/c22-16-6-4-15(5-7-16)13-20(19-9-8-18(25)14-21(19)26)24-12-10-17-3-1-2-11-23-17/h1-9,11,14,25-26H,10,12-13H2

> <PUBCHEM_IUPAC_INCHIKEY>
KVMYPXWXUUEJMP-UHFFFAOYSA-N

> <PUBCHEM_XLOGP3_AA>
4.2

> <PUBCHEM_EXACT_MASS>
366.113506

> <PUBCHEM_MOLECULAR_FORMULA>
C21H19ClN2O2

> <PUBCHEM_MOLECULAR_WEIGHT>
366.84076

> <PUBCHEM_OPENEYE_CAN_SMILES>
C1=CC=NC(=C1)CCN=C(CC2=CC=C(C=C2)Cl)C3=C(C=C(C=C3)O)O

> <PUBCHEM_OPENEYE_ISO_SMILES>
C1=CC=NC(=C1)CCN=C(CC2=CC=C(C=C2)Cl)C3=C(C=C(C=C3)O)O

> <PUBCHEM_CACTVS_TPSA>
65.7

> <PUBCHEM_MONOISOTOPIC_WEIGHT>
366.113506

> <PUBCHEM_TOTAL_CHARGE>
0

> <PUBCHEM_HEAVY_ATOM_COUNT>
26

> <PUBCHEM_ATOM_DEF_STEREO_COUNT>
0

> <PUBCHEM_ATOM_UDEF_STEREO_COUNT>
0

> <PUBCHEM_BOND_DEF_STEREO_COUNT>
0

> <PUBCHEM_BOND_UDEF_STEREO_COUNT>
0

> <PUBCHEM_ISOTOPIC_ATOM_COUNT>
0

> <PUBCHEM_COMPONENT_COUNT>
1

> <PUBCHEM_CACTVS_TAUTO_COUNT>
42

> <PUBCHEM_COORDINATE_TYPE>
1
5
255

> <PUBCHEM_BONDANNOTATIONS>
12  17  8
13  18  8
14  22  8
15  20  8
16  21  8
17  19  8
18  19  8
20  23  8
21  23  8
22  24  8
24  26  8
25  26  8
5  14  8
5  25  8
8  12  8
8  13  8
9  15  8
9  16  8

$$$$

