12660
  -OEChem-06261207132D

 10  9  0     0  0  0  0  0  0999 V2000
    2.5369   -1.8100    0.0000 O   0  0  0  0  0  0  0  0  0  0  0  0
    4.2690    1.1900    0.0000 N   0  0  0  0  0  0  0  0  0  0  0  0
    2.5369    1.1900    0.0000 N   0  0  0  0  0  0  0  0  0  0  0  0
    3.4030   -0.3100    0.0000 N   0  0  0  0  0  0  0  0  0  0  0  0
    2.5369   -0.8100    0.0000 N   0  0  0  0  0  0  0  0  0  0  0  0
    3.4030    0.6900    0.0000 C   0  0  0  0  0  0  0  0  0  0  0  0
    4.8059    0.8800    0.0000 H   0  0  0  0  0  0  0  0  0  0  0  0
    4.2690    1.8100    0.0000 H   0  0  0  0  0  0  0  0  0  0  0  0
    2.0000    0.8800    0.0000 H   0  0  0  0  0  0  0  0  0  0  0  0
    2.5369    1.8100    0.0000 H   0  0  0  0  0  0  0  0  0  0  0  0
  1  5  2  0  0  0  0
  2  6  1  0  0  0  0
  2  7  1  0  0  0  0
  2  8  1  0  0  0  0
  3  6  1  0  0  0  0
  3  9  1  0  0  0  0
  3 10  1  0  0  0  0
  4  5  1  0  0  0  0
  4  6  2  0  0  0  0
M  END
> <PUBCHEM_COMPOUND_CID>
12660

> <PUBCHEM_COMPOUND_CANONICALIZED>
1

> <PUBCHEM_CACTVS_COMPLEXITY>
71.6

> <PUBCHEM_CACTVS_HBOND_ACCEPTOR>
3

> <PUBCHEM_CACTVS_HBOND_DONOR>
2

> <PUBCHEM_CACTVS_ROTATABLE_BOND>
0

> <PUBCHEM_CACTVS_SUBSKEYS>
AAADcYADoAAAAAAAAAAAAAAAAAAAAAAAAAAAAAAAAAAAAAAAAAAABAAcAAAAAAAAAAABAABAAAAhAAAAIAAAAAAAAAAAAAAAAAAAAAAAAAAAAAAAAAAAAAAAAAAAAAAAAAAAAAAAAAAAAAAAAAAAAAAAAA==

> <PUBCHEM_IUPAC_OPENEYE_NAME>
2-nitrosoguanidine

> <PUBCHEM_IUPAC_CAS_NAME>
2-nitrosoguanidine

> <PUBCHEM_IUPAC_NAME>
2-nitrosoguanidine

> <PUBCHEM_IUPAC_SYSTEMATIC_NAME>
2-nitrosoguanidine

> <PUBCHEM_IUPAC_TRADITIONAL_NAME>
2-nitrosoguanidine

> <PUBCHEM_IUPAC_INCHI>
InChI=1S/CH4N4O/c2-1(3)4-5-6/h(H4,2,3,4,6)

> <PUBCHEM_IUPAC_INCHIKEY>
WTLKTXIHIHFSGU-UHFFFAOYSA-N

> <PUBCHEM_XLOGP3_AA>
-0.9

> <PUBCHEM_EXACT_MASS>
88.038511

> <PUBCHEM_MOLECULAR_FORMULA>
CH4N4O

> <PUBCHEM_MOLECULAR_WEIGHT>
88.06866

> <PUBCHEM_OPENEYE_CAN_SMILES>
C(=NN=O)(N)N

> <PUBCHEM_OPENEYE_ISO_SMILES>
C(=NN=O)(N)N

> <PUBCHEM_CACTVS_TPSA>
93.8

> <PUBCHEM_MONOISOTOPIC_WEIGHT>
88.038511

> <PUBCHEM_TOTAL_CHARGE>
0

> <PUBCHEM_HEAVY_ATOM_COUNT>
6

> <PUBCHEM_ATOM_DEF_STEREO_COUNT>
0

> <PUBCHEM_ATOM_UDEF_STEREO_COUNT>
0

> <PUBCHEM_BOND_DEF_STEREO_COUNT>
0

> <PUBCHEM_BOND_UDEF_STEREO_COUNT>
0

> <PUBCHEM_ISOTOPIC_ATOM_COUNT>
0

> <PUBCHEM_COMPONENT_COUNT>
1

> <PUBCHEM_CACTVS_TAUTO_COUNT>
3

> <PUBCHEM_COORDINATE_TYPE>
1
5
255

$$$$

