854080
  -OEChem-06241222472D

 50 52  0     1  0  0  0  0  0999 V2000
    6.3301   -1.0755    0.0000 O   0  0  0  0  0  0  0  0  0  0  0  0
    5.4641    0.4245    0.0000 O   0  0  0  0  0  0  0  0  0  0  0  0
    4.5981    0.6566    0.0000 O   0  0  0  0  0  0  0  0  0  0  0  0
    9.1671    2.2095    0.0000 N   0  0  0  0  0  0  0  0  0  0  0  0
    9.6448    0.2609    0.0000 C   0  0  2  0  0  0  0  0  0  0  0  0
    9.9037    1.2268    0.0000 C   0  0  1  0  0  0  0  0  0  0  0  0
   11.4768   -0.4979    0.0000 C   0  0  0  0  0  0  0  0  0  0  0  0
   11.7356    0.4680    0.0000 C   0  0  0  0  0  0  0  0  0  0  0  0
    8.1097   -0.9822    0.0000 C   0  0  0  0  0  0  0  0  0  0  0  0
    7.3007    0.4190    0.0000 C   0  0  0  0  0  0  0  0  0  0  0  0
    7.1962   -0.5755    0.0000 C   0  0  0  0  0  0  0  0  0  0  0  0
    8.6671    3.0755    0.0000 C   0  0  0  0  0  0  0  0  0  0  0  0
    4.5981   -1.0755    0.0000 C   0  0  1  0  0  0  0  0  0  0  0  0
    5.4641   -0.5755    0.0000 C   0  0  0  0  0  0  0  0  0  0  0  0
    5.0981   -1.9415    0.0000 C   0  0  0  0  0  0  0  0  0  0  0  0
    4.0981   -0.2095    0.0000 C   0  0  0  0  0  0  0  0  0  0  0  0
    3.7320   -1.5755    0.0000 C   0  0  0  0  0  0  0  0  0  0  0  0
    4.5981   -2.8075    0.0000 C   0  0  0  0  0  0  0  0  0  0  0  0
    2.8660   -1.0755    0.0000 C   0  0  0  0  0  0  0  0  0  0  0  0
    3.7320   -2.5755    0.0000 C   0  0  0  0  0  0  0  0  0  0  0  0
    2.0000   -1.5755    0.0000 C   0  0  0  0  0  0  0  0  0  0  0  0
    2.8660   -3.0755    0.0000 C   0  0  0  0  0  0  0  0  0  0  0  0
    2.0000   -2.5755    0.0000 C   0  0  0  0  0  0  0  0  0  0  0  0
    9.4249   -0.5601    0.0000 H   0  0  0  0  0  0  0  0  0  0  0  0
   10.1237    2.0479    0.0000 H   0  0  0  0  0  0  0  0  0  0  0  0
   11.2648   -1.0805    0.0000 H   0  0  0  0  0  0  0  0  0  0  0  0
   12.0681   -0.6843    0.0000 H   0  0  0  0  0  0  0  0  0  0  0  0
   12.3269    0.2816    0.0000 H   0  0  0  0  0  0  0  0  0  0  0  0
   11.9477    1.0506    0.0000 H   0  0  0  0  0  0  0  0  0  0  0  0
    7.7720   -1.5022    0.0000 H   0  0  0  0  0  0  0  0  0  0  0  0
    8.5704   -1.3971    0.0000 H   0  0  0  0  0  0  0  0  0  0  0  0
    7.1984    1.0305    0.0000 H   0  0  0  0  0  0  0  0  0  0  0  0
    6.6810    0.4001    0.0000 H   0  0  0  0  0  0  0  0  0  0  0  0
    6.6762   -0.2378    0.0000 H   0  0  0  0  0  0  0  0  0  0  0  0
    9.2040    3.3855    0.0000 H   0  0  0  0  0  0  0  0  0  0  0  0
    8.3571    3.6124    0.0000 H   0  0  0  0  0  0  0  0  0  0  0  0
    8.1301    2.7655    0.0000 H   0  0  0  0  0  0  0  0  0  0  0  0
    5.5730   -2.3400    0.0000 H   0  0  0  0  0  0  0  0  0  0  0  0
    5.5730   -1.5430    0.0000 H   0  0  0  0  0  0  0  0  0  0  0  0
    3.6231    0.1891    0.0000 H   0  0  0  0  0  0  0  0  0  0  0  0
    3.6231   -0.6080    0.0000 H   0  0  0  0  0  0  0  0  0  0  0  0
    4.0611   -2.4975    0.0000 H   0  0  0  0  0  0  0  0  0  0  0  0
    4.2881   -3.3445    0.0000 H   0  0  0  0  0  0  0  0  0  0  0  0
    5.1350   -3.1175    0.0000 H   0  0  0  0  0  0  0  0  0  0  0  0
    2.8660   -0.4555    0.0000 H   0  0  0  0  0  0  0  0  0  0  0  0
    4.2690   -2.8855    0.0000 H   0  0  0  0  0  0  0  0  0  0  0  0
    4.2881    1.1935    0.0000 H   0  0  0  0  0  0  0  0  0  0  0  0
    1.4631   -1.2655    0.0000 H   0  0  0  0  0  0  0  0  0  0  0  0
    2.8660   -3.6955    0.0000 H   0  0  0  0  0  0  0  0  0  0  0  0
    1.4631   -2.8855    0.0000 H   0  0  0  0  0  0  0  0  0  0  0  0
  1 11  1  0  0  0  0
  1 14  1  0  0  0  0
  2 14  2  0  0  0  0
  3 16  1  0  0  0  0
  3 47  1  0  0  0  0
  4  5  1  0  0  0  0
  4  6  1  0  0  0  0
  4 12  1  0  0  0  0
  5  7  1  0  0  0  0
  5  9  1  0  0  0  0
  5 24  1  1  0  0  0
  6  8  1  0  0  0  0
  6 10  1  0  0  0  0
  6 25  1  6  0  0  0
  7  8  1  0  0  0  0
  7 26  1  0  0  0  0
  7 27  1  0  0  0  0
  8 28  1  0  0  0  0
  8 29  1  0  0  0  0
  9 11  1  0  0  0  0
  9 30  1  0  0  0  0
  9 31  1  0  0  0  0
 10 11  1  0  0  0  0
 10 32  1  0  0  0  0
 10 33  1  0  0  0  0
 11 34  1  0  0  0  0
 12 35  1  0  0  0  0
 12 36  1  0  0  0  0
 12 37  1  0  0  0  0
 13 14  1  0  0  0  0
 13 15  1  1  0  0  0
 13 16  1  0  0  0  0
 13 17  1  0  0  0  0
 15 18  1  0  0  0  0
 15 38  1  0  0  0  0
 15 39  1  0  0  0  0
 16 40  1  0  0  0  0
 16 41  1  0  0  0  0
 17 19  2  0  0  0  0
 17 20  1  0  0  0  0
 18 42  1  0  0  0  0
 18 43  1  0  0  0  0
 18 44  1  0  0  0  0
 19 21  1  0  0  0  0
 19 45  1  0  0  0  0
 20 22  2  0  0  0  0
 20 46  1  0  0  0  0
 21 23  2  0  0  0  0
 21 48  1  0  0  0  0
 22 23  1  0  0  0  0
 22 49  1  0  0  0  0
 23 50  1  0  0  0  0
M  END
> <PUBCHEM_COMPOUND_CID>
854080

> <PUBCHEM_COMPOUND_CANONICALIZED>
1

> <PUBCHEM_CACTVS_COMPLEXITY>
407

> <PUBCHEM_CACTVS_HBOND_ACCEPTOR>
4

> <PUBCHEM_CACTVS_HBOND_DONOR>
1

> <PUBCHEM_CACTVS_ROTATABLE_BOND>
6

> <PUBCHEM_CACTVS_SUBSKEYS>
AAADceB6MAAAAAAAAAAAAAAAAAAAAWAAAAA8QAAABgAAAAABAAAAHgAACAAADjzhmAYyCIMABgCIAiDSCAACAAAgAAAIiAEIAIgIMDaAlRCGYAAn4AGIiAeYyOCPgAAAAAAAAAAAAAAAAAAAAAAAAAAAAA==

> <PUBCHEM_IUPAC_OPENEYE_NAME>
[(1R,5S)-8-methyl-8-azabicyclo[3.2.1]octan-3-yl] (2R)-2-(hydroxymethyl)-2-phenyl-butanoate

> <PUBCHEM_IUPAC_CAS_NAME>
(2R)-2-(hydroxymethyl)-2-phenylbutanoic acid [(1R,5S)-8-methyl-8-azabicyclo[3.2.1]octan-3-yl] ester

> <PUBCHEM_IUPAC_NAME>
[(1R,5S)-8-methyl-8-azabicyclo[3.2.1]octan-3-yl] (2R)-2-(hydroxymethyl)-2-phenylbutanoate

> <PUBCHEM_IUPAC_SYSTEMATIC_NAME>
[(1R,5S)-8-methyl-8-azabicyclo[3.2.1]octan-3-yl] (2R)-2-(hydroxymethyl)-2-phenyl-butanoate

> <PUBCHEM_IUPAC_TRADITIONAL_NAME>
(2R)-2-methylol-2-phenyl-butyric acid [(1R,5S)-8-methyl-8-azabicyclo[3.2.1]octan-3-yl] ester

> <PUBCHEM_IUPAC_INCHI>
InChI=1S/C19H27NO3/c1-3-19(13-21,14-7-5-4-6-8-14)18(22)23-17-11-15-9-10-16(12-17)20(15)2/h4-8,15-17,21H,3,9-13H2,1-2H3/t15-,16+,17?,19-/m0/s1

> <PUBCHEM_IUPAC_INCHIKEY>
UVFFMBYRGIAWRW-RZRMAFQFSA-N

> <PUBCHEM_XLOGP3_AA>
3

> <PUBCHEM_EXACT_MASS>
317.199094

> <PUBCHEM_MOLECULAR_FORMULA>
C19H27NO3

> <PUBCHEM_MOLECULAR_WEIGHT>
317.42258

> <PUBCHEM_OPENEYE_CAN_SMILES>
CCC(CO)(C1=CC=CC=C1)C(=O)OC2CC3CCC(C2)N3C

> <PUBCHEM_OPENEYE_ISO_SMILES>
CC[C@](CO)(C1=CC=CC=C1)C(=O)OC2C[C@H]3CC[C@@H](C2)N3C

> <PUBCHEM_CACTVS_TPSA>
49.8

> <PUBCHEM_MONOISOTOPIC_WEIGHT>
317.199094

> <PUBCHEM_TOTAL_CHARGE>
0

> <PUBCHEM_HEAVY_ATOM_COUNT>
23

> <PUBCHEM_ATOM_DEF_STEREO_COUNT>
3

> <PUBCHEM_ATOM_UDEF_STEREO_COUNT>
0

> <PUBCHEM_BOND_DEF_STEREO_COUNT>
0

> <PUBCHEM_BOND_UDEF_STEREO_COUNT>
0

> <PUBCHEM_ISOTOPIC_ATOM_COUNT>
0

> <PUBCHEM_COMPONENT_COUNT>
1

> <PUBCHEM_CACTVS_TAUTO_COUNT>
1

> <PUBCHEM_COORDINATE_TYPE>
1
5
255

> <PUBCHEM_BONDANNOTATIONS>
13  15  5
17  19  8
17  20  8
19  21  8
20  22  8
21  23  8
22  23  8
5  24  5
6  25  6

$$$$

