854319
  -OEChem-06241222472D

 47 50  0     0  0  0  0  0  0999 V2000
    5.2619   -2.0330    0.0000 O   0  0  0  0  0  0  0  0  0  0  0  0
    7.0479    1.0122    0.0000 O   0  0  0  0  0  0  0  0  0  0  0  0
    4.3958   -3.5330    0.0000 O   0  0  0  0  0  0  0  0  0  0  0  0
    3.5298   -1.0330    0.0000 C   0  0  0  0  0  0  0  0  0  0  0  0
    2.5836   -0.7282    0.0000 C   0  0  0  0  0  0  0  0  0  0  0  0
    2.0000   -1.5330    0.0000 C   0  0  0  0  0  0  0  0  0  0  0  0
    2.5836   -2.3377    0.0000 C   0  0  0  0  0  0  0  0  0  0  0  0
    3.5298   -2.0330    0.0000 C   0  0  0  0  0  0  0  0  0  0  0  0
    4.3958   -0.5330    0.0000 C   0  0  0  0  0  0  0  0  0  0  0  0
    5.2619   -1.0330    0.0000 C   0  0  0  0  0  0  0  0  0  0  0  0
    4.3798    0.5086    0.0000 C   0  0  0  0  0  0  0  0  0  0  0  0
    4.3958   -2.5330    0.0000 C   0  0  0  0  0  0  0  0  0  0  0  0
    5.2778    1.0363    0.0000 C   0  0  0  0  0  0  0  0  0  0  0  0
    6.1799    0.5155    0.0000 C   0  0  0  0  0  0  0  0  0  0  0  0
    6.1719   -0.5261    0.0000 C   0  0  0  0  0  0  0  0  0  0  0  0
    5.2740    2.0363    0.0000 C   0  0  0  0  0  0  0  0  0  0  0  0
    4.4060    2.5330    0.0000 C   0  0  0  0  0  0  0  0  0  0  0  0
    4.4022    3.5330    0.0000 C   0  0  0  0  0  0  0  0  0  0  0  0
    7.9120    0.5088    0.0000 C   0  0  0  0  0  0  0  0  0  0  0  0
    8.7799    1.0055    0.0000 C   0  0  0  0  0  0  0  0  0  0  0  0
    9.6440    0.5021    0.0000 C   0  0  0  0  0  0  0  0  0  0  0  0
    8.7838    2.0055    0.0000 C   0  0  0  0  0  0  0  0  0  0  0  0
   10.5119    0.9988    0.0000 C   0  0  0  0  0  0  0  0  0  0  0  0
    9.6517    2.5021    0.0000 C   0  0  0  0  0  0  0  0  0  0  0  0
   10.5158    1.9988    0.0000 C   0  0  0  0  0  0  0  0  0  0  0  0
    2.8346   -0.1613    0.0000 H   0  0  0  0  0  0  0  0  0  0  0  0
    2.0462   -0.4190    0.0000 H   0  0  0  0  0  0  0  0  0  0  0  0
    1.5391   -1.1182    0.0000 H   0  0  0  0  0  0  0  0  0  0  0  0
    1.5391   -1.9477    0.0000 H   0  0  0  0  0  0  0  0  0  0  0  0
    2.0462   -2.6469    0.0000 H   0  0  0  0  0  0  0  0  0  0  0  0
    2.8346   -2.9046    0.0000 H   0  0  0  0  0  0  0  0  0  0  0  0
    3.8393    0.8123    0.0000 H   0  0  0  0  0  0  0  0  0  0  0  0
    6.7052   -0.8423    0.0000 H   0  0  0  0  0  0  0  0  0  0  0  0
    5.8850    1.9310    0.0000 H   0  0  0  0  0  0  0  0  0  0  0  0
    5.4838    2.6197    0.0000 H   0  0  0  0  0  0  0  0  0  0  0  0
    3.7950    2.6383    0.0000 H   0  0  0  0  0  0  0  0  0  0  0  0
    4.1962    1.9495    0.0000 H   0  0  0  0  0  0  0  0  0  0  0  0
    5.0222    3.5353    0.0000 H   0  0  0  0  0  0  0  0  0  0  0  0
    4.3998    4.1530    0.0000 H   0  0  0  0  0  0  0  0  0  0  0  0
    3.7822    3.5306    0.0000 H   0  0  0  0  0  0  0  0  0  0  0  0
    7.5116    0.0354    0.0000 H   0  0  0  0  0  0  0  0  0  0  0  0
    8.3086    0.0323    0.0000 H   0  0  0  0  0  0  0  0  0  0  0  0
    9.6416   -0.1179    0.0000 H   0  0  0  0  0  0  0  0  0  0  0  0
    8.2480    2.3175    0.0000 H   0  0  0  0  0  0  0  0  0  0  0  0
   11.0477    0.6867    0.0000 H   0  0  0  0  0  0  0  0  0  0  0  0
    9.6541    3.1221    0.0000 H   0  0  0  0  0  0  0  0  0  0  0  0
   11.0539    2.3067    0.0000 H   0  0  0  0  0  0  0  0  0  0  0  0
  1 10  1  0  0  0  0
  1 12  1  0  0  0  0
  2 14  1  0  0  0  0
  2 19  1  0  0  0  0
  3 12  2  0  0  0  0
  4  5  1  0  0  0  0
  4  8  2  0  0  0  0
  4  9  1  0  0  0  0
  5  6  1  0  0  0  0
  5 26  1  0  0  0  0
  5 27  1  0  0  0  0
  6  7  1  0  0  0  0
  6 28  1  0  0  0  0
  6 29  1  0  0  0  0
  7  8  1  0  0  0  0
  7 30  1  0  0  0  0
  7 31  1  0  0  0  0
  8 12  1  0  0  0  0
  9 10  2  0  0  0  0
  9 11  1  0  0  0  0
 10 15  1  0  0  0  0
 11 13  2  0  0  0  0
 11 32  1  0  0  0  0
 13 14  1  0  0  0  0
 13 16  1  0  0  0  0
 14 15  2  0  0  0  0
 15 33  1  0  0  0  0
 16 17  1  0  0  0  0
 16 34  1  0  0  0  0
 16 35  1  0  0  0  0
 17 18  1  0  0  0  0
 17 36  1  0  0  0  0
 17 37  1  0  0  0  0
 18 38  1  0  0  0  0
 18 39  1  0  0  0  0
 18 40  1  0  0  0  0
 19 20  1  0  0  0  0
 19 41  1  0  0  0  0
 19 42  1  0  0  0  0
 20 21  2  0  0  0  0
 20 22  1  0  0  0  0
 21 23  1  0  0  0  0
 21 43  1  0  0  0  0
 22 24  2  0  0  0  0
 22 44  1  0  0  0  0
 23 25  2  0  0  0  0
 23 45  1  0  0  0  0
 24 25  1  0  0  0  0
 24 46  1  0  0  0  0
 25 47  1  0  0  0  0
M  END
> <PUBCHEM_COMPOUND_CID>
854319

> <PUBCHEM_COMPOUND_CANONICALIZED>
1

> <PUBCHEM_CACTVS_COMPLEXITY>
517

> <PUBCHEM_CACTVS_HBOND_ACCEPTOR>
3

> <PUBCHEM_CACTVS_HBOND_DONOR>
0

> <PUBCHEM_CACTVS_ROTATABLE_BOND>
5

> <PUBCHEM_CACTVS_SUBSKEYS>
AAADceB4MAAAAAAAAAAAAAAAAAAAAQAAAAAwYIAAAAAAAEiBQAAAGgAAAAAADASgmAIyDoAABACIAiDSCAACCAAgIAAIiAEGCMgMJzKEMRqCOiClwBUIqQeI6OyOIAACCAAIAABAAAQQABAAAAAAAAAAAA==

> <PUBCHEM_IUPAC_OPENEYE_NAME>
7-benzyloxy-8-propyl-2,3-dihydro-1H-cyclopenta[c]chromen-4-one

> <PUBCHEM_IUPAC_CAS_NAME>
7-phenylmethoxy-8-propyl-2,3-dihydro-1H-cyclopenta[c][1]benzopyran-4-one

> <PUBCHEM_IUPAC_NAME>
7-phenylmethoxy-8-propyl-2,3-dihydro-1H-cyclopenta[c]chromen-4-one

> <PUBCHEM_IUPAC_SYSTEMATIC_NAME>
7-phenylmethoxy-8-propyl-2,3-dihydro-1H-cyclopenta[c]chromen-4-one

> <PUBCHEM_IUPAC_TRADITIONAL_NAME>
7-benzoxy-8-propyl-2,3-dihydro-1H-cyclopenta[c]chromen-4-one

> <PUBCHEM_IUPAC_INCHI>
InChI=1S/C22H22O3/c1-2-7-16-12-19-17-10-6-11-18(17)22(23)25-21(19)13-20(16)24-14-15-8-4-3-5-9-15/h3-5,8-9,12-13H,2,6-7,10-11,14H2,1H3

> <PUBCHEM_IUPAC_INCHIKEY>
XFMLSXGIXJZLCG-UHFFFAOYSA-N

> <PUBCHEM_XLOGP3_AA>
5.1

> <PUBCHEM_EXACT_MASS>
334.156895

> <PUBCHEM_MOLECULAR_FORMULA>
C22H22O3

> <PUBCHEM_MOLECULAR_WEIGHT>
334.40828

> <PUBCHEM_OPENEYE_CAN_SMILES>
CCCC1=C(C=C2C(=C1)C3=C(CCC3)C(=O)O2)OCC4=CC=CC=C4

> <PUBCHEM_OPENEYE_ISO_SMILES>
CCCC1=C(C=C2C(=C1)C3=C(CCC3)C(=O)O2)OCC4=CC=CC=C4

> <PUBCHEM_CACTVS_TPSA>
35.5

> <PUBCHEM_MONOISOTOPIC_WEIGHT>
334.156895

> <PUBCHEM_TOTAL_CHARGE>
0

> <PUBCHEM_HEAVY_ATOM_COUNT>
25

> <PUBCHEM_ATOM_DEF_STEREO_COUNT>
0

> <PUBCHEM_ATOM_UDEF_STEREO_COUNT>
0

> <PUBCHEM_BOND_DEF_STEREO_COUNT>
0

> <PUBCHEM_BOND_UDEF_STEREO_COUNT>
0

> <PUBCHEM_ISOTOPIC_ATOM_COUNT>
0

> <PUBCHEM_COMPONENT_COUNT>
1

> <PUBCHEM_CACTVS_TAUTO_COUNT>
1

> <PUBCHEM_COORDINATE_TYPE>
1
5
255

> <PUBCHEM_BONDANNOTATIONS>
1  10  8
1  12  8
10  15  8
11  13  8
13  14  8
14  15  8
20  21  8
20  22  8
21  23  8
22  24  8
23  25  8
24  25  8
4  8  8
4  9  8
8  12  8
9  10  8
9  11  8

$$$$

