17395832
  -OEChem-06241222522D

 52 54  0     0  0  0  0  0  0999 V2000
    6.1595   -0.5580    0.0000 O   0  0  0  0  0  0  0  0  0  0  0  0
    5.0380    0.0571    0.0000 O   0  0  0  0  0  0  0  0  0  0  0  0
    6.7981    3.1057    0.0000 O   0  0  0  0  0  0  0  0  0  0  0  0
    4.6701    3.5580    0.0000 O   0  0  0  0  0  0  0  0  0  0  0  0
    7.8916   -0.5580    0.0000 N   0  0  0  0  0  0  0  0  0  0  0  0
    6.1595    1.4420    0.0000 N   0  0  0  0  0  0  0  0  0  0  0  0
    4.5768    1.7784    0.0000 N   0  0  0  0  0  0  0  0  0  0  0  0
    7.8916   -1.5580    0.0000 C   0  0  0  0  0  0  0  0  0  0  0  0
    7.0255   -2.0580    0.0000 C   0  0  0  0  0  0  0  0  0  0  0  0
    8.7576   -2.0580    0.0000 C   0  0  0  0  0  0  0  0  0  0  0  0
    7.0255   -3.0580    0.0000 C   0  0  0  0  0  0  0  0  0  0  0  0
    8.7576   -3.0580    0.0000 C   0  0  0  0  0  0  0  0  0  0  0  0
    7.8916   -3.5580    0.0000 C   0  0  0  0  0  0  0  0  0  0  0  0
    7.0255   -0.0580    0.0000 C   0  0  0  0  0  0  0  0  0  0  0  0
    8.7576   -0.0580    0.0000 C   0  0  0  0  0  0  0  0  0  0  0  0
    7.0255    0.9420    0.0000 C   0  0  0  0  0  0  0  0  0  0  0  0
    9.6236   -0.5580    0.0000 C   0  0  0  0  0  0  0  0  0  0  0  0
    8.7576    0.9420    0.0000 C   0  0  0  0  0  0  0  0  0  0  0  0
    5.2460    1.0353    0.0000 C   0  0  0  0  0  0  0  0  0  0  0  0
    6.0550    2.4365    0.0000 C   0  0  0  0  0  0  0  0  0  0  0  0
    3.5823    1.6739    0.0000 C   0  0  0  0  0  0  0  0  0  0  0  0
    5.0768    2.6444    0.0000 C   0  0  0  0  0  0  0  0  0  0  0  0
   10.4896   -0.0580    0.0000 C   0  0  0  0  0  0  0  0  0  0  0  0
    9.6236    1.4420    0.0000 C   0  0  0  0  0  0  0  0  0  0  0  0
   10.4896    0.9420    0.0000 C   0  0  0  0  0  0  0  0  0  0  0  0
    2.9945    2.4829    0.0000 C   0  0  0  0  0  0  0  0  0  0  0  0
    2.0000    2.3784    0.0000 C   0  0  0  0  0  0  0  0  0  0  0  0
    7.3546   -1.2480    0.0000 H   0  0  0  0  0  0  0  0  0  0  0  0
    9.3682   -2.1656    0.0000 H   0  0  0  0  0  0  0  0  0  0  0  0
    8.9696   -1.4754    0.0000 H   0  0  0  0  0  0  0  0  0  0  0  0
    6.8135   -1.4754    0.0000 H   0  0  0  0  0  0  0  0  0  0  0  0
    6.4150   -2.1656    0.0000 H   0  0  0  0  0  0  0  0  0  0  0  0
    8.9696   -3.6406    0.0000 H   0  0  0  0  0  0  0  0  0  0  0  0
    9.3682   -2.9503    0.0000 H   0  0  0  0  0  0  0  0  0  0  0  0
    6.4150   -2.9503    0.0000 H   0  0  0  0  0  0  0  0  0  0  0  0
    6.8135   -3.6406    0.0000 H   0  0  0  0  0  0  0  0  0  0  0  0
    7.4930   -4.0329    0.0000 H   0  0  0  0  0  0  0  0  0  0  0  0
    8.2901   -4.0329    0.0000 H   0  0  0  0  0  0  0  0  0  0  0  0
    7.6361    0.8343    0.0000 H   0  0  0  0  0  0  0  0  0  0  0  0
    7.2376    1.5246    0.0000 H   0  0  0  0  0  0  0  0  0  0  0  0
    9.6236   -1.1780    0.0000 H   0  0  0  0  0  0  0  0  0  0  0  0
    8.2206    1.2520    0.0000 H   0  0  0  0  0  0  0  0  0  0  0  0
    3.0250    1.4021    0.0000 H   0  0  0  0  0  0  0  0  0  0  0  0
    3.7532    1.0779    0.0000 H   0  0  0  0  0  0  0  0  0  0  0  0
   11.0266   -0.3680    0.0000 H   0  0  0  0  0  0  0  0  0  0  0  0
    9.6236    2.0620    0.0000 H   0  0  0  0  0  0  0  0  0  0  0  0
    3.5518    2.7547    0.0000 H   0  0  0  0  0  0  0  0  0  0  0  0
    2.8236    3.0789    0.0000 H   0  0  0  0  0  0  0  0  0  0  0  0
   11.0266    1.2520    0.0000 H   0  0  0  0  0  0  0  0  0  0  0  0
    1.9352    2.9950    0.0000 H   0  0  0  0  0  0  0  0  0  0  0  0
    1.3834    2.3136    0.0000 H   0  0  0  0  0  0  0  0  0  0  0  0
    2.0648    1.7618    0.0000 H   0  0  0  0  0  0  0  0  0  0  0  0
  1 14  2  0  0  0  0
  2 19  2  0  0  0  0
  3 20  2  0  0  0  0
  4 22  2  0  0  0  0
  5  8  1  0  0  0  0
  5 14  1  0  0  0  0
  5 15  1  0  0  0  0
  6 16  1  0  0  0  0
  6 19  1  0  0  0  0
  6 20  1  0  0  0  0
  7 19  1  0  0  0  0
  7 21  1  0  0  0  0
  7 22  1  0  0  0  0
  8  9  1  0  0  0  0
  8 10  1  0  0  0  0
  8 28  1  0  0  0  0
  9 11  1  0  0  0  0
  9 31  1  0  0  0  0
  9 32  1  0  0  0  0
 10 12  1  0  0  0  0
 10 29  1  0  0  0  0
 10 30  1  0  0  0  0
 11 13  1  0  0  0  0
 11 35  1  0  0  0  0
 11 36  1  0  0  0  0
 12 13  1  0  0  0  0
 12 33  1  0  0  0  0
 12 34  1  0  0  0  0
 13 37  1  0  0  0  0
 13 38  1  0  0  0  0
 14 16  1  0  0  0  0
 15 17  2  0  0  0  0
 15 18  1  0  0  0  0
 16 39  1  0  0  0  0
 16 40  1  0  0  0  0
 17 23  1  0  0  0  0
 17 41  1  0  0  0  0
 18 24  2  0  0  0  0
 18 42  1  0  0  0  0
 20 22  1  0  0  0  0
 21 26  1  0  0  0  0
 21 43  1  0  0  0  0
 21 44  1  0  0  0  0
 23 25  2  0  0  0  0
 23 45  1  0  0  0  0
 24 25  1  0  0  0  0
 24 46  1  0  0  0  0
 25 49  1  0  0  0  0
 26 27  1  0  0  0  0
 26 47  1  0  0  0  0
 26 48  1  0  0  0  0
 27 50  1  0  0  0  0
 27 51  1  0  0  0  0
 27 52  1  0  0  0  0
M  END
> <PUBCHEM_COMPOUND_CID>
17395832

> <PUBCHEM_COMPOUND_CANONICALIZED>
1

> <PUBCHEM_CACTVS_COMPLEXITY>
594

> <PUBCHEM_CACTVS_HBOND_ACCEPTOR>
4

> <PUBCHEM_CACTVS_HBOND_DONOR>
0

> <PUBCHEM_CACTVS_ROTATABLE_BOND>
6

> <PUBCHEM_CACTVS_SUBSKEYS>
AAADceB7OAAAAAAAAAAAAAAAAAAAAWAAAAAwYAAAAAAAAAABAAAAHgAAAAAACCjBkAQzwIMAAACIACVSUACCAAAhAgAIiACIZIiIYCLAkbGUIAhohyLIyAcQAAAAAAAAAAAAAAAAAAAAAAAAAAAAAAAAAA==

> <PUBCHEM_IUPAC_OPENEYE_NAME>
N-cyclohexyl-N-phenyl-2-(2,4,5-trioxo-3-propyl-imidazolidin-1-yl)acetamide

> <PUBCHEM_IUPAC_CAS_NAME>
N-cyclohexyl-N-phenyl-2-(2,4,5-trioxo-3-propyl-1-imidazolidinyl)acetamide

> <PUBCHEM_IUPAC_NAME>
N-cyclohexyl-N-phenyl-2-(2,4,5-trioxo-3-propylimidazolidin-1-yl)acetamide

> <PUBCHEM_IUPAC_SYSTEMATIC_NAME>
N-cyclohexyl-N-phenyl-2-[2,4,5-tris(oxidanylidene)-3-propyl-imidazolidin-1-yl]ethanamide

> <PUBCHEM_IUPAC_TRADITIONAL_NAME>
N-cyclohexyl-N-phenyl-2-(2,4,5-triketo-3-propyl-imidazolidin-1-yl)acetamide

> <PUBCHEM_IUPAC_INCHI>
InChI=1S/C20H25N3O4/c1-2-13-21-18(25)19(26)22(20(21)27)14-17(24)23(15-9-5-3-6-10-15)16-11-7-4-8-12-16/h3,5-6,9-10,16H,2,4,7-8,11-14H2,1H3

> <PUBCHEM_IUPAC_INCHIKEY>
MMBKEUFZWDJDFV-UHFFFAOYSA-N

> <PUBCHEM_XLOGP3_AA>
3.3

> <PUBCHEM_EXACT_MASS>
371.184506

> <PUBCHEM_MOLECULAR_FORMULA>
C20H25N3O4

> <PUBCHEM_MOLECULAR_WEIGHT>
371.4302

> <PUBCHEM_OPENEYE_CAN_SMILES>
CCCN1C(=O)C(=O)N(C1=O)CC(=O)N(C2CCCCC2)C3=CC=CC=C3

> <PUBCHEM_OPENEYE_ISO_SMILES>
CCCN1C(=O)C(=O)N(C1=O)CC(=O)N(C2CCCCC2)C3=CC=CC=C3

> <PUBCHEM_CACTVS_TPSA>
78

> <PUBCHEM_MONOISOTOPIC_WEIGHT>
371.184506

> <PUBCHEM_TOTAL_CHARGE>
0

> <PUBCHEM_HEAVY_ATOM_COUNT>
27

> <PUBCHEM_ATOM_DEF_STEREO_COUNT>
0

> <PUBCHEM_ATOM_UDEF_STEREO_COUNT>
0

> <PUBCHEM_BOND_DEF_STEREO_COUNT>
0

> <PUBCHEM_BOND_UDEF_STEREO_COUNT>
0

> <PUBCHEM_ISOTOPIC_ATOM_COUNT>
0

> <PUBCHEM_COMPONENT_COUNT>
1

> <PUBCHEM_CACTVS_TAUTO_COUNT>
1

> <PUBCHEM_COORDINATE_TYPE>
1
5
255

> <PUBCHEM_BONDANNOTATIONS>
15  17  8
15  18  8
17  23  8
18  24  8
23  25  8
24  25  8

$$$$

