6242
  -OEChem-06261201122D

168170  0     1  0  0  0  0  0999 V2000
    3.4030   10.5823    0.0000 S   0  0  0  0  0  0  0  0  0  0  0  0
   18.2678   -7.2724    0.0000 O   0  0  0  0  0  0  0  0  0  0  0  0
   18.1254   -5.9177    0.0000 O   0  0  0  0  0  0  0  0  0  0  0  0
   18.8509  -11.0823    0.0000 O   0  0  0  0  0  0  0  0  0  0  0  0
   17.2594   -5.4177    0.0000 O   0  0  0  0  0  0  0  0  0  0  0  0
   18.9914   -2.4177    0.0000 O   0  0  0  0  0  0  0  0  0  0  0  0
   15.5273   -1.4177    0.0000 O   0  0  0  0  0  0  0  0  0  0  0  0
    7.7331    3.0823    0.0000 O   0  0  0  0  0  0  0  0  0  0  0  0
   11.1972    2.0823    0.0000 O   0  0  0  0  0  0  0  0  0  0  0  0
   14.6613   -0.9177    0.0000 O   0  0  0  0  0  0  0  0  0  0  0  0
   12.0632    1.5823    0.0000 O   0  0  0  0  0  0  0  0  0  0  0  0
    6.0010    9.0823    0.0000 O   0  0  0  0  0  0  0  0  0  0  0  0
    8.5991    6.5823    0.0000 O   0  0  0  0  0  0  0  0  0  0  0  0
   16.3933    3.0823    0.0000 O   0  0  0  0  0  0  0  0  0  0  0  0
   17.2594    1.5823    0.0000 O   0  0  0  0  0  0  0  0  0  0  0  0
    3.4030    6.5823    0.0000 O   0  0  0  0  0  0  0  0  0  0  0  0
   19.9620   -6.9123    0.0000 N   0  0  0  0  0  0  0  0  0  0  0  0
   18.7576   -9.3027    0.0000 N   0  0  0  0  0  0  0  0  0  0  0  0
   18.9914   -4.4177    0.0000 N   0  0  0  0  0  0  0  0  0  0  0  0
   17.2594   -2.4177    0.0000 N   0  0  0  0  0  0  0  0  0  0  0  0
   16.3933    0.0823    0.0000 N   0  0  0  0  0  0  0  0  0  0  0  0
    9.4651    2.0823    0.0000 N   0  0  0  0  0  0  0  0  0  0  0  0
   11.1972    0.0823    0.0000 N   0  0  0  0  0  0  0  0  0  0  0  0
    8.5991    4.5823    0.0000 N   0  0  0  0  0  0  0  0  0  0  0  0
   13.7953    0.5823    0.0000 N   0  0  0  0  0  0  0  0  0  0  0  0
    6.8671    6.5823    0.0000 N   0  0  0  0  0  0  0  0  0  0  0  0
   21.5895   -0.9177    0.0000 N   0  0  0  0  0  0  0  0  0  0  0  0
    5.1350    7.5823    0.0000 N   0  0  0  0  0  0  0  0  0  0  0  0
    2.5369    8.0823    0.0000 N   0  0  0  0  0  0  0  0  0  0  0  0
   19.8574   -5.9177    0.0000 C   0  0  3  0  0  0  0  0  0  0  0  0
   20.7710   -5.5110    0.0000 C   0  0  0  0  0  0  0  0  0  0  0  0
   20.9401   -7.1202    0.0000 C   0  0  0  0  0  0  0  0  0  0  0  0
   21.4401   -6.2542    0.0000 C   0  0  0  0  0  0  0  0  0  0  0  0
   19.4267   -8.5595    0.0000 C   0  0  3  0  0  0  0  0  0  0  0  0
   19.2188   -7.5814    0.0000 C   0  0  0  0  0  0  0  0  0  0  0  0
   20.3403   -8.9663    0.0000 C   0  0  0  0  0  0  0  0  0  0  0  0
   18.9914   -5.4177    0.0000 C   0  0  0  0  0  0  0  0  0  0  0  0
   20.2358   -9.9608    0.0000 C   0  0  0  0  0  0  0  0  0  0  0  0
   19.2576  -10.1687    0.0000 C   0  0  0  0  0  0  0  0  0  0  0  0
   18.1254   -3.9177    0.0000 C   0  0  3  0  0  0  0  0  0  0  0  0
   17.2594   -4.4177    0.0000 C   0  0  0  0  0  0  0  0  0  0  0  0
   18.1254   -2.9177    0.0000 C   0  0  0  0  0  0  0  0  0  0  0  0
   17.2594   -1.4177    0.0000 C   0  0  3  0  0  0  0  0  0  0  0  0
   18.1254   -0.9177    0.0000 C   0  0  0  0  0  0  0  0  0  0  0  0
   18.9914   -1.4177    0.0000 C   0  0  0  0  0  0  0  0  0  0  0  0
   16.3933   -0.9177    0.0000 C   0  0  0  0  0  0  0  0  0  0  0  0
   10.3312    3.5823    0.0000 C   0  0  3  0  0  0  0  0  0  0  0  0
   19.8574   -0.9177    0.0000 C   0  0  0  0  0  0  0  0  0  0  0  0
    9.4651    3.0823    0.0000 C   0  0  3  0  0  0  0  0  0  0  0  0
   15.5273    0.5823    0.0000 C   0  0  3  0  0  0  0  0  0  0  0  0
   10.3312    4.5823    0.0000 C   0  0  0  0  0  0  0  0  0  0  0  0
   20.7235   -1.4177    0.0000 C   0  0  0  0  0  0  0  0  0  0  0  0
   11.1972    3.0823    0.0000 C   0  0  0  0  0  0  0  0  0  0  0  0
   10.3312    0.5823    0.0000 C   0  0  3  0  0  0  0  0  0  0  0  0
    8.5991    3.5823    0.0000 C   0  0  0  0  0  0  0  0  0  0  0  0
   15.5273    1.5823    0.0000 C   0  0  0  0  0  0  0  0  0  0  0  0
    6.8671    7.5823    0.0000 C   0  0  3  0  0  0  0  0  0  0  0  0
   10.3312    1.5823    0.0000 C   0  0  0  0  0  0  0  0  0  0  0  0
    7.7331    8.0823    0.0000 C   0  0  0  0  0  0  0  0  0  0  0  0
   14.6613    0.0823    0.0000 C   0  0  0  0  0  0  0  0  0  0  0  0
    7.7331    9.0823    0.0000 C   0  0  0  0  0  0  0  0  0  0  0  0
   11.1972    5.0823    0.0000 C   0  0  0  0  0  0  0  0  0  0  0  0
    9.4651    0.0823    0.0000 C   0  0  0  0  0  0  0  0  0  0  0  0
   12.9292    0.0823    0.0000 C   0  0  3  0  0  0  0  0  0  0  0  0
    7.7331    5.0823    0.0000 C   0  0  0  0  0  0  0  0  0  0  0  0
   12.0632    0.5823    0.0000 C   0  0  0  0  0  0  0  0  0  0  0  0
    6.0010    8.0823    0.0000 C   0  0  0  0  0  0  0  0  0  0  0  0
    8.5991    9.5823    0.0000 C   0  0  0  0  0  0  0  0  0  0  0  0
    6.8671    9.5823    0.0000 C   0  0  0  0  0  0  0  0  0  0  0  0
    7.7331    6.0823    0.0000 C   0  0  0  0  0  0  0  0  0  0  0  0
    9.4651   -0.9177    0.0000 C   0  0  0  0  0  0  0  0  0  0  0  0
   12.9292   -0.9177    0.0000 C   0  0  0  0  0  0  0  0  0  0  0  0
   16.3933    2.0823    0.0000 C   0  0  0  0  0  0  0  0  0  0  0  0
    4.2690    8.0823    0.0000 C   0  0  3  0  0  0  0  0  0  0  0  0
    4.2690    9.0823    0.0000 C   0  0  0  0  0  0  0  0  0  0  0  0
    8.5991   -1.4177    0.0000 C   0  0  0  0  0  0  0  0  0  0  0  0
   10.3312   -1.4177    0.0000 C   0  0  0  0  0  0  0  0  0  0  0  0
    3.4030    7.5823    0.0000 C   0  0  0  0  0  0  0  0  0  0  0  0
    3.4030    9.5823    0.0000 C   0  0  0  0  0  0  0  0  0  0  0  0
    8.5991   -2.4177    0.0000 C   0  0  0  0  0  0  0  0  0  0  0  0
   10.3312   -2.4177    0.0000 C   0  0  0  0  0  0  0  0  0  0  0  0
    9.4651   -2.9177    0.0000 C   0  0  0  0  0  0  0  0  0  0  0  0
    2.5369   11.0823    0.0000 C   0  0  0  0  0  0  0  0  0  0  0  0
   19.1446   -6.3807    0.0000 H   0  0  0  0  0  0  0  0  0  0  0  0
   21.2726   -5.1466    0.0000 H   0  0  0  0  0  0  0  0  0  0  0  0
   20.4610   -4.9741    0.0000 H   0  0  0  0  0  0  0  0  0  0  0  0
   20.7485   -7.7098    0.0000 H   0  0  0  0  0  0  0  0  0  0  0  0
   21.5065   -7.3724    0.0000 H   0  0  0  0  0  0  0  0  0  0  0  0
   21.9417   -6.6186    0.0000 H   0  0  0  0  0  0  0  0  0  0  0  0
   21.8550   -5.7934    0.0000 H   0  0  0  0  0  0  0  0  0  0  0  0
   18.6057   -8.3395    0.0000 H   0  0  0  0  0  0  0  0  0  0  0  0
   20.9467   -9.0952    0.0000 H   0  0  0  0  0  0  0  0  0  0  0  0
   20.5319   -8.3766    0.0000 H   0  0  0  0  0  0  0  0  0  0  0  0
   20.3006  -10.5774    0.0000 H   0  0  0  0  0  0  0  0  0  0  0  0
   20.8558   -9.9608    0.0000 H   0  0  0  0  0  0  0  0  0  0  0  0
   18.1410   -9.2379    0.0000 H   0  0  0  0  0  0  0  0  0  0  0  0
   19.5284   -4.1077    0.0000 H   0  0  0  0  0  0  0  0  0  0  0  0
   18.1254   -4.7677    0.0000 H   0  0  0  0  0  0  0  0  0  0  0  0
   17.0473   -3.8351    0.0000 H   0  0  0  0  0  0  0  0  0  0  0  0
   16.6488   -4.5254    0.0000 H   0  0  0  0  0  0  0  0  0  0  0  0
   16.7224   -2.7277    0.0000 H   0  0  0  0  0  0  0  0  0  0  0  0
   16.5232   -1.8427    0.0000 H   0  0  0  0  0  0  0  0  0  0  0  0
   18.5239   -0.4428    0.0000 H   0  0  0  0  0  0  0  0  0  0  0  0
   17.7269   -0.4428    0.0000 H   0  0  0  0  0  0  0  0  0  0  0  0
   16.7224   -5.7277    0.0000 H   0  0  0  0  0  0  0  0  0  0  0  0
   18.5929   -1.8927    0.0000 H   0  0  0  0  0  0  0  0  0  0  0  0
   19.3899   -1.8927    0.0000 H   0  0  0  0  0  0  0  0  0  0  0  0
   11.0673    4.0073    0.0000 H   0  0  0  0  0  0  0  0  0  0  0  0
   20.2560   -0.4428    0.0000 H   0  0  0  0  0  0  0  0  0  0  0  0
   19.4589   -0.4428    0.0000 H   0  0  0  0  0  0  0  0  0  0  0  0
   10.2013    2.6573    0.0000 H   0  0  0  0  0  0  0  0  0  0  0  0
   16.9303    0.3923    0.0000 H   0  0  0  0  0  0  0  0  0  0  0  0
   15.5273   -0.2677    0.0000 H   0  0  0  0  0  0  0  0  0  0  0  0
   10.1191    5.1649    0.0000 H   0  0  0  0  0  0  0  0  0  0  0  0
    9.7206    4.4746    0.0000 H   0  0  0  0  0  0  0  0  0  0  0  0
    8.9282    1.7723    0.0000 H   0  0  0  0  0  0  0  0  0  0  0  0
   20.3249   -1.8927    0.0000 H   0  0  0  0  0  0  0  0  0  0  0  0
   21.1220   -1.8927    0.0000 H   0  0  0  0  0  0  0  0  0  0  0  0
   10.8872    2.5453    0.0000 H   0  0  0  0  0  0  0  0  0  0  0  0
   11.7341    2.7723    0.0000 H   0  0  0  0  0  0  0  0  0  0  0  0
   11.5072    3.6192    0.0000 H   0  0  0  0  0  0  0  0  0  0  0  0
   11.0673    1.0073    0.0000 H   0  0  0  0  0  0  0  0  0  0  0  0
    6.1309    7.1573    0.0000 H   0  0  0  0  0  0  0  0  0  0  0  0
    7.9451    7.4996    0.0000 H   0  0  0  0  0  0  0  0  0  0  0  0
    8.3437    8.1899    0.0000 H   0  0  0  0  0  0  0  0  0  0  0  0
   15.3153    2.1649    0.0000 H   0  0  0  0  0  0  0  0  0  0  0  0
   14.9167    1.4746    0.0000 H   0  0  0  0  0  0  0  0  0  0  0  0
    7.7331    9.7023    0.0000 H   0  0  0  0  0  0  0  0  0  0  0  0
   11.5072    4.5453    0.0000 H   0  0  0  0  0  0  0  0  0  0  0  0
   11.7341    5.3923    0.0000 H   0  0  0  0  0  0  0  0  0  0  0  0
   10.8872    5.6192    0.0000 H   0  0  0  0  0  0  0  0  0  0  0  0
    9.2531    0.6649    0.0000 H   0  0  0  0  0  0  0  0  0  0  0  0
    8.8546   -0.0254    0.0000 H   0  0  0  0  0  0  0  0  0  0  0  0
   12.9292    0.9323    0.0000 H   0  0  0  0  0  0  0  0  0  0  0  0
   11.1972   -0.5377    0.0000 H   0  0  0  0  0  0  0  0  0  0  0  0
    9.1360    4.8923    0.0000 H   0  0  0  0  0  0  0  0  0  0  0  0
   13.7953    1.2023    0.0000 H   0  0  0  0  0  0  0  0  0  0  0  0
    7.1225    5.1899    0.0000 H   0  0  0  0  0  0  0  0  0  0  0  0
    7.5210    4.4996    0.0000 H   0  0  0  0  0  0  0  0  0  0  0  0
    6.3301    6.2723    0.0000 H   0  0  0  0  0  0  0  0  0  0  0  0
    8.9091    9.0453    0.0000 H   0  0  0  0  0  0  0  0  0  0  0  0
    9.1360    9.8923    0.0000 H   0  0  0  0  0  0  0  0  0  0  0  0
    8.2891   10.1192    0.0000 H   0  0  0  0  0  0  0  0  0  0  0  0
    7.1771   10.1192    0.0000 H   0  0  0  0  0  0  0  0  0  0  0  0
    6.3301    9.8923    0.0000 H   0  0  0  0  0  0  0  0  0  0  0  0
    6.5571    9.0453    0.0000 H   0  0  0  0  0  0  0  0  0  0  0  0
   22.1264   -1.2277    0.0000 H   0  0  0  0  0  0  0  0  0  0  0  0
   21.5895   -0.2977    0.0000 H   0  0  0  0  0  0  0  0  0  0  0  0
   12.3092   -0.9177    0.0000 H   0  0  0  0  0  0  0  0  0  0  0  0
   12.9292   -1.5377    0.0000 H   0  0  0  0  0  0  0  0  0  0  0  0
   13.5492   -0.9177    0.0000 H   0  0  0  0  0  0  0  0  0  0  0  0
    5.0051    8.5073    0.0000 H   0  0  0  0  0  0  0  0  0  0  0  0
    5.1350    6.9623    0.0000 H   0  0  0  0  0  0  0  0  0  0  0  0
    4.8796    8.9746    0.0000 H   0  0  0  0  0  0  0  0  0  0  0  0
    4.4810    9.6649    0.0000 H   0  0  0  0  0  0  0  0  0  0  0  0
    8.0622   -1.1077    0.0000 H   0  0  0  0  0  0  0  0  0  0  0  0
   10.8681   -1.1077    0.0000 H   0  0  0  0  0  0  0  0  0  0  0  0
    2.7924    9.6899    0.0000 H   0  0  0  0  0  0  0  0  0  0  0  0
    3.1909    8.9997    0.0000 H   0  0  0  0  0  0  0  0  0  0  0  0
    8.0622   -2.7277    0.0000 H   0  0  0  0  0  0  0  0  0  0  0  0
   10.8681   -2.7277    0.0000 H   0  0  0  0  0  0  0  0  0  0  0  0
   16.9303    3.3923    0.0000 H   0  0  0  0  0  0  0  0  0  0  0  0
    9.4651   -3.5377    0.0000 H   0  0  0  0  0  0  0  0  0  0  0  0
    2.0000    7.7723    0.0000 H   0  0  0  0  0  0  0  0  0  0  0  0
    2.5369    8.7023    0.0000 H   0  0  0  0  0  0  0  0  0  0  0  0
    2.8469   11.6192    0.0000 H   0  0  0  0  0  0  0  0  0  0  0  0
    2.0000   11.3923    0.0000 H   0  0  0  0  0  0  0  0  0  0  0  0
    2.2269   10.5453    0.0000 H   0  0  0  0  0  0  0  0  0  0  0  0
  1 79  1  0  0  0  0
  1 83  1  0  0  0  0
  2 35  2  0  0  0  0
  3 37  2  0  0  0  0
  4 39  2  0  0  0  0
  5 41  1  0  0  0  0
  5105  1  0  0  0  0
  6 42  2  0  0  0  0
  7 46  2  0  0  0  0
  8 55  2  0  0  0  0
  9 58  2  0  0  0  0
 10 60  2  0  0  0  0
 11 66  2  0  0  0  0
 12 67  2  0  0  0  0
 13 70  2  0  0  0  0
 14 73  1  0  0  0  0
 14162  1  0  0  0  0
 15 73  2  0  0  0  0
 16 78  2  0  0  0  0
 17 30  1  0  0  0  0
 17 32  1  0  0  0  0
 17 35  1  0  0  0  0
 18 34  1  0  0  0  0
 18 39  1  0  0  0  0
 18 96  1  0  0  0  0
 19 37  1  0  0  0  0
 19 40  1  0  0  0  0
 19 97  1  0  0  0  0
 20 42  1  0  0  0  0
 20 43  1  0  0  0  0
 20101  1  0  0  0  0
 21 46  1  0  0  0  0
 21 50  1  0  0  0  0
 21112  1  0  0  0  0
 22 49  1  0  0  0  0
 22 58  1  0  0  0  0
 22116  1  0  0  0  0
 23 54  1  0  0  0  0
 23 66  1  0  0  0  0
 23135  1  0  0  0  0
 24 55  1  0  0  0  0
 24 65  1  0  0  0  0
 24136  1  0  0  0  0
 25 60  1  0  0  0  0
 25 64  1  0  0  0  0
 25137  1  0  0  0  0
 26 57  1  0  0  0  0
 26 70  1  0  0  0  0
 26140  1  0  0  0  0
 27 52  1  0  0  0  0
 27147  1  0  0  0  0
 27148  1  0  0  0  0
 28 67  1  0  0  0  0
 28 74  1  0  0  0  0
 28153  1  0  0  0  0
 29 78  1  0  0  0  0
 29164  1  0  0  0  0
 29165  1  0  0  0  0
 30 31  1  0  0  0  0
 30 37  1  0  0  0  0
 30 84  1  0  0  0  0
 31 33  1  0  0  0  0
 31 85  1  0  0  0  0
 31 86  1  0  0  0  0
 32 33  1  0  0  0  0
 32 87  1  0  0  0  0
 32 88  1  0  0  0  0
 33 89  1  0  0  0  0
 33 90  1  0  0  0  0
 34 35  1  0  0  0  0
 34 36  1  0  0  0  0
 34 91  1  0  0  0  0
 36 38  1  0  0  0  0
 36 92  1  0  0  0  0
 36 93  1  0  0  0  0
 38 39  1  0  0  0  0
 38 94  1  0  0  0  0
 38 95  1  0  0  0  0
 40 41  1  0  0  0  0
 40 42  1  0  0  0  0
 40 98  1  0  0  0  0
 41 99  1  0  0  0  0
 41100  1  0  0  0  0
 43 44  1  0  0  0  0
 43 46  1  0  0  0  0
 43102  1  0  0  0  0
 44 45  1  0  0  0  0
 44103  1  0  0  0  0
 44104  1  0  0  0  0
 45 48  1  0  0  0  0
 45106  1  0  0  0  0
 45107  1  0  0  0  0
 47 49  1  0  0  0  0
 47 51  1  0  0  0  0
 47 53  1  0  0  0  0
 47108  1  0  0  0  0
 48 52  1  0  0  0  0
 48109  1  0  0  0  0
 48110  1  0  0  0  0
 49 55  1  0  0  0  0
 49111  1  0  0  0  0
 50 56  1  0  0  0  0
 50 60  1  0  0  0  0
 50113  1  0  0  0  0
 51 62  1  0  0  0  0
 51114  1  0  0  0  0
 51115  1  0  0  0  0
 52117  1  0  0  0  0
 52118  1  0  0  0  0
 53119  1  0  0  0  0
 53120  1  0  0  0  0
 53121  1  0  0  0  0
 54 58  1  0  0  0  0
 54 63  1  0  0  0  0
 54122  1  0  0  0  0
 56 73  1  0  0  0  0
 56126  1  0  0  0  0
 56127  1  0  0  0  0
 57 59  1  0  0  0  0
 57 67  1  0  0  0  0
 57123  1  0  0  0  0
 59 61  1  0  0  0  0
 59124  1  0  0  0  0
 59125  1  0  0  0  0
 61 68  1  0  0  0  0
 61 69  1  0  0  0  0
 61128  1  0  0  0  0
 62129  1  0  0  0  0
 62130  1  0  0  0  0
 62131  1  0  0  0  0
 63 71  1  0  0  0  0
 63132  1  0  0  0  0
 63133  1  0  0  0  0
 64 66  1  0  0  0  0
 64 72  1  0  0  0  0
 64134  1  0  0  0  0
 65 70  1  0  0  0  0
 65138  1  0  0  0  0
 65139  1  0  0  0  0
 68141  1  0  0  0  0
 68142  1  0  0  0  0
 68143  1  0  0  0  0
 69144  1  0  0  0  0
 69145  1  0  0  0  0
 69146  1  0  0  0  0
 71 76  2  0  0  0  0
 71 77  1  0  0  0  0
 72149  1  0  0  0  0
 72150  1  0  0  0  0
 72151  1  0  0  0  0
 74 75  1  0  0  0  0
 74 78  1  0  0  0  0
 74152  1  0  0  0  0
 75 79  1  0  0  0  0
 75154  1  0  0  0  0
 75155  1  0  0  0  0
 76 80  1  0  0  0  0
 76156  1  0  0  0  0
 77 81  2  0  0  0  0
 77157  1  0  0  0  0
 79158  1  0  0  0  0
 79159  1  0  0  0  0
 80 82  2  0  0  0  0
 80160  1  0  0  0  0
 81 82  1  0  0  0  0
 81161  1  0  0  0  0
 82163  1  0  0  0  0
 83166  1  0  0  0  0
 83167  1  0  0  0  0
 83168  1  0  0  0  0
M  END
> <PUBCHEM_COMPOUND_CID>
6242

> <PUBCHEM_COMPOUND_CANONICALIZED>
1

> <PUBCHEM_CACTVS_COMPLEXITY>
2270

> <PUBCHEM_CACTVS_HBOND_ACCEPTOR>
17

> <PUBCHEM_CACTVS_HBOND_DONOR>
14

> <PUBCHEM_CACTVS_ROTATABLE_BOND>
36

> <PUBCHEM_CACTVS_SUBSKEYS>
AAADcfB//ABAAAAAAAAAAAAAAAAAAWLAAAAwAAAAAAAAAAABAAAAHgQQCAAADSjl2AayCIPAAgiIAiHSGAACAAAgABAIiIGIAIgKcD6gkTGUYAAmtgCYiAc/i4COAAAAAAAAAAAAAAAAAAAAAAAAAAAAAA==

> <PUBCHEM_IUPAC_OPENEYE_NAME>
3-[[6-amino-2-[[3-hydroxy-2-[[1-(5-oxopyrrolidine-2-carbonyl)pyrrolidine-2-carbonyl]amino]propanoyl]amino]hexanoyl]amino]-4-[[2-[[1-benzyl-2-[[1-[[2-[[1-[(1-carbamoyl-3-methylsulfanyl-propyl)carbamoyl]-3-methyl-butyl]amino]-2-oxo-ethyl]carbamoyl]-2-methyl-butyl]amino]-2-oxo-ethyl]amino]-1-methyl-2-oxo-ethyl]amino]-4-oxo-butanoic acid

> <PUBCHEM_IUPAC_CAS_NAME>
3-[[6-amino-2-[[3-hydroxy-1-oxo-2-[[oxo-[1-[oxo-(5-oxo-2-pyrrolidinyl)methyl]-2-pyrrolidinyl]methyl]amino]propyl]amino]-1-oxohexyl]amino]-4-[[1-[[1-[[1-[[2-[[1-[[1-amino-4-(methylthio)-1-oxobutan-2-yl]amino]-4-methyl-1-oxopentan-2-yl]amino]-2-oxoethyl]amino]-3-methyl-1-oxopentan-2-yl]amino]-1-oxo-3-phenylpropan-2-yl]amino]-1-oxopropan-2-yl]amino]-4-oxobutanoic acid

> <PUBCHEM_IUPAC_NAME>
3-[[6-amino-2-[[3-hydroxy-2-[[1-(5-oxopyrrolidine-2-carbonyl)pyrrolidine-2-carbonyl]amino]propanoyl]amino]hexanoyl]amino]-4-[[1-[[1-[[1-[[2-[[1-[(1-amino-4-methylsulfanyl-1-oxobutan-2-yl)amino]-4-methyl-1-oxopentan-2-yl]amino]-2-oxoethyl]amino]-3-methyl-1-oxopentan-2-yl]amino]-1-oxo-3-phenylpropan-2-yl]amino]-1-oxopropan-2-yl]amino]-4-oxobutanoic acid

> <PUBCHEM_IUPAC_SYSTEMATIC_NAME>
4-[[1-[[1-[[1-[[2-[[1-[(1-azanyl-4-methylsulfanyl-1-oxidanylidene-butan-2-yl)amino]-4-methyl-1-oxidanylidene-pentan-2-yl]amino]-2-oxidanylidene-ethyl]amino]-3-methyl-1-oxidanylidene-pentan-2-yl]amino]-1-oxidanylidene-3-phenyl-propan-2-yl]amino]-1-oxidanylidene-propan-2-yl]amino]-3-[[6-azanyl-2-[[3-oxidanyl-2-[[1-(5-oxidanylidenepyrrolidin-2-yl)carbonylpyrrolidin-2-yl]carbonylamino]propanoyl]amino]hexanoyl]amino]-4-oxidanylidene-butanoic acid

> <PUBCHEM_IUPAC_TRADITIONAL_NAME>
3-[[6-amino-2-[[3-hydroxy-2-[(1-pyroglutamoylprolyl)amino]propanoyl]amino]hexanoyl]amino]-4-[[2-[[1-benzyl-2-[[1-[[2-[[1-[[1-carbamoyl-3-(methylthio)propyl]carbamoyl]-3-methyl-butyl]amino]-2-keto-ethyl]carbamoyl]-2-methyl-butyl]amino]-2-keto-ethyl]amino]-2-keto-1-methyl-ethyl]amino]-4-keto-butyric acid

> <PUBCHEM_IUPAC_INCHI>
InChI=1S/C54H85N13O15S/c1-7-30(4)44(53(81)57-27-42(70)60-36(24-29(2)3)49(77)61-33(45(56)73)20-23-83-6)66-50(78)37(25-32-14-9-8-10-15-32)63-46(74)31(5)58-48(76)38(26-43(71)72)64-47(75)34(16-11-12-21-55)62-51(79)39(28-68)65-52(80)40-17-13-22-67(40)54(82)35-18-19-41(69)59-35/h8-10,14-15,29-31,33-40,44,68H,7,11-13,16-28,55H2,1-6H3,(H2,56,73)(H,57,81)(H,58,76)(H,59,69)(H,60,70)(H,61,77)(H,62,79)(H,63,74)(H,64,75)(H,65,80)(H,66,78)(H,71,72)

> <PUBCHEM_IUPAC_INCHIKEY>
AYLPVIWBPZMVSH-UHFFFAOYSA-N

> <PUBCHEM_XLOGP3_AA>
-3.6

> <PUBCHEM_EXACT_MASS>
1187.60088

> <PUBCHEM_MOLECULAR_FORMULA>
C54H85N13O15S

> <PUBCHEM_MOLECULAR_WEIGHT>
1188.3958

> <PUBCHEM_OPENEYE_CAN_SMILES>
CCC(C)C(C(=O)NCC(=O)NC(CC(C)C)C(=O)NC(CCSC)C(=O)N)NC(=O)C(CC1=CC=CC=C1)NC(=O)C(C)NC(=O)C(CC(=O)O)NC(=O)C(CCCCN)NC(=O)C(CO)NC(=O)C2CCCN2C(=O)C3CCC(=O)N3

> <PUBCHEM_OPENEYE_ISO_SMILES>
CCC(C)C(C(=O)NCC(=O)NC(CC(C)C)C(=O)NC(CCSC)C(=O)N)NC(=O)C(CC1=CC=CC=C1)NC(=O)C(C)NC(=O)C(CC(=O)O)NC(=O)C(CCCCN)NC(=O)C(CO)NC(=O)C2CCCN2C(=O)C3CCC(=O)N3

> <PUBCHEM_CACTVS_TPSA>
463

> <PUBCHEM_MONOISOTOPIC_WEIGHT>
1187.60088

> <PUBCHEM_TOTAL_CHARGE>
0

> <PUBCHEM_HEAVY_ATOM_COUNT>
83

> <PUBCHEM_ATOM_DEF_STEREO_COUNT>
0

> <PUBCHEM_ATOM_UDEF_STEREO_COUNT>
11

> <PUBCHEM_BOND_DEF_STEREO_COUNT>
0

> <PUBCHEM_BOND_UDEF_STEREO_COUNT>
0

> <PUBCHEM_ISOTOPIC_ATOM_COUNT>
0

> <PUBCHEM_COMPONENT_COUNT>
1

> <PUBCHEM_CACTVS_TAUTO_COUNT>
1001

> <PUBCHEM_COORDINATE_TYPE>
1
5
255

> <PUBCHEM_BONDANNOTATIONS>
30  84  3
34  91  3
40  98  3
43  102  3
47  108  3
49  111  3
50  113  3
54  122  3
57  123  3
64  134  3
71  76  8
71  77  8
74  152  3
76  80  8
77  81  8
80  82  8
81  82  8

$$$$

