10922
  -OEChem-06261205072D

 21 19  0     0  0  0  0  0  0999 V2000
    1.7690    0.0000    0.0000 Cl  0  0  0  0  0  0  0  0  0  0  0  0
    0.5369    3.1200    0.0000 N   0  0  0  0  0  0  0  0  0  0  0  0
    3.1350    3.6200    0.0000 C   0  0  0  0  0  0  0  0  0  0  0  0
    2.2690    3.1200    0.0000 C   0  0  0  0  0  0  0  0  0  0  0  0
    1.4030    3.6200    0.0000 C   0  0  0  0  0  0  0  0  0  0  0  0
    4.0010    3.1200    0.0000 C   0  0  0  0  0  0  0  0  0  0  0  0
    3.1350    4.6200    0.0000 C   0  0  0  0  0  0  0  0  0  0  0  0
    2.5981    3.9300    0.0000 H   0  0  0  0  0  0  0  0  0  0  0  0
    1.8705    2.6450    0.0000 H   0  0  0  0  0  0  0  0  0  0  0  0
    2.6675    2.6450    0.0000 H   0  0  0  0  0  0  0  0  0  0  0  0
    1.8015    4.0950    0.0000 H   0  0  0  0  0  0  0  0  0  0  0  0
    1.0044    4.0950    0.0000 H   0  0  0  0  0  0  0  0  0  0  0  0
    3.6910    2.5831    0.0000 H   0  0  0  0  0  0  0  0  0  0  0  0
    4.5380    2.8100    0.0000 H   0  0  0  0  0  0  0  0  0  0  0  0
    4.3110    3.6569    0.0000 H   0  0  0  0  0  0  0  0  0  0  0  0
    3.7550    4.6200    0.0000 H   0  0  0  0  0  0  0  0  0  0  0  0
    3.1350    5.2400    0.0000 H   0  0  0  0  0  0  0  0  0  0  0  0
    2.5150    4.6200    0.0000 H   0  0  0  0  0  0  0  0  0  0  0  0
    0.0000    3.4300    0.0000 H   0  0  0  0  0  0  0  0  0  0  0  0
    0.5369    2.5000    0.0000 H   0  0  0  0  0  0  0  0  0  0  0  0
    2.7690    0.0000    0.0000 H   0  0  0  0  0  0  0  0  0  0  0  0
  1 21  1  0  0  0  0
  2  5  1  0  0  0  0
  2 19  1  0  0  0  0
  2 20  1  0  0  0  0
  3  4  1  0  0  0  0
  3  6  1  0  0  0  0
  3  7  1  0  0  0  0
  3  8  1  0  0  0  0
  4  5  1  0  0  0  0
  4  9  1  0  0  0  0
  4 10  1  0  0  0  0
  5 11  1  0  0  0  0
  5 12  1  0  0  0  0
  6 13  1  0  0  0  0
  6 14  1  0  0  0  0
  6 15  1  0  0  0  0
  7 16  1  0  0  0  0
  7 17  1  0  0  0  0
  7 18  1  0  0  0  0
M  END
> <PUBCHEM_COMPOUND_CID>
10922

> <PUBCHEM_COMPOUND_CANONICALIZED>
1

> <PUBCHEM_CACTVS_COMPLEXITY>
25.1

> <PUBCHEM_CACTVS_HBOND_ACCEPTOR>
1

> <PUBCHEM_CACTVS_HBOND_DONOR>
2

> <PUBCHEM_CACTVS_ROTATABLE_BOND>
2

> <PUBCHEM_CACTVS_SUBSKEYS>
AAADccBiAAAEAAAAAAAAAAAAAAAAAAAAAAAAAAAAAAAAAAAAAAAAHAAQAAAADQDBAAQCAABAAAAAAAAAAAAAAAAAAAAAAIAAAAAAAAAAgAAAAAAAEAAAAAAAAAAIAAAAAAAAAAAAAAAAAAAAAAAAAAAAAA==

> <PUBCHEM_IUPAC_OPENEYE_NAME>
3-methylbutan-1-amine hydrochloride

> <PUBCHEM_IUPAC_CAS_NAME>
3-methyl-1-butanamine hydrochloride

> <PUBCHEM_IUPAC_NAME>
3-methylbutan-1-amine hydrochloride

> <PUBCHEM_IUPAC_SYSTEMATIC_NAME>
3-methylbutan-1-amine hydrochloride

> <PUBCHEM_IUPAC_TRADITIONAL_NAME>
isoamylamine hydrochloride

> <PUBCHEM_IUPAC_INCHI>
InChI=1S/C5H13N.ClH/c1-5(2)3-4-6;/h5H,3-4,6H2,1-2H3;1H

> <PUBCHEM_IUPAC_INCHIKEY>
HOMVDRDAAUYWKL-UHFFFAOYSA-N

> <PUBCHEM_EXACT_MASS>
123.081477

> <PUBCHEM_MOLECULAR_FORMULA>
C5H14ClN

> <PUBCHEM_MOLECULAR_WEIGHT>
123.62436

> <PUBCHEM_OPENEYE_CAN_SMILES>
CC(C)CCN.Cl

> <PUBCHEM_OPENEYE_ISO_SMILES>
CC(C)CCN.Cl

> <PUBCHEM_CACTVS_TPSA>
26

> <PUBCHEM_MONOISOTOPIC_WEIGHT>
123.081477

> <PUBCHEM_TOTAL_CHARGE>
0

> <PUBCHEM_HEAVY_ATOM_COUNT>
7

> <PUBCHEM_ATOM_DEF_STEREO_COUNT>
0

> <PUBCHEM_ATOM_UDEF_STEREO_COUNT>
0

> <PUBCHEM_BOND_DEF_STEREO_COUNT>
0

> <PUBCHEM_BOND_UDEF_STEREO_COUNT>
0

> <PUBCHEM_ISOTOPIC_ATOM_COUNT>
0

> <PUBCHEM_COMPONENT_COUNT>
2

> <PUBCHEM_CACTVS_TAUTO_COUNT>
1

> <PUBCHEM_COORDINATE_TYPE>
1
5
255

$$$$

