17395586
  -OEChem-06241222512D

 40 41  0     1  0  0  0  0  0999 V2000
    4.6261    0.8157    0.0000 S   0  0  0  0  0  0  0  0  0  0  0  0
    6.5282    0.1977    0.0000 O   0  0  0  0  0  0  0  0  0  0  0  0
    2.8660    0.5370    0.0000 N   0  0  0  0  0  0  0  0  0  0  0  0
    2.0570    1.1248    0.0000 N   0  0  0  0  0  0  0  0  0  0  0  0
    3.3660    2.0758    0.0000 N   0  0  0  0  0  0  0  0  0  0  0  0
    2.3660    2.0758    0.0000 N   0  0  0  0  0  0  0  0  0  0  0  0
    7.0634    1.8450    0.0000 N   0  0  0  0  0  0  0  0  0  0  0  0
    2.8660   -0.4630    0.0000 C   0  0  0  0  0  0  0  0  0  0  0  0
    2.0000   -0.9630    0.0000 C   0  0  0  0  0  0  0  0  0  0  0  0
    3.7320   -0.9630    0.0000 C   0  0  0  0  0  0  0  0  0  0  0  0
    2.0000   -1.9630    0.0000 C   0  0  0  0  0  0  0  0  0  0  0  0
    3.7320   -1.9630    0.0000 C   0  0  0  0  0  0  0  0  0  0  0  0
    2.8660   -2.4630    0.0000 C   0  0  0  0  0  0  0  0  0  0  0  0
    3.6750    1.1248    0.0000 C   0  0  0  0  0  0  0  0  0  0  0  0
    5.3692    1.4849    0.0000 C   0  0  3  0  0  0  0  0  0  0  0  0
    5.1613    2.4630    0.0000 C   0  0  0  0  0  0  0  0  0  0  0  0
    6.3203    1.1759    0.0000 C   0  0  0  0  0  0  0  0  0  0  0  0
    8.0145    1.5360    0.0000 C   0  0  0  0  0  0  0  0  0  0  0  0
    8.7576    2.2051    0.0000 C   0  0  0  0  0  0  0  0  0  0  0  0
    3.4030   -0.1530    0.0000 H   0  0  0  0  0  0  0  0  0  0  0  0
    4.3426   -1.0707    0.0000 H   0  0  0  0  0  0  0  0  0  0  0  0
    3.9441   -0.3804    0.0000 H   0  0  0  0  0  0  0  0  0  0  0  0
    1.7880   -0.3804    0.0000 H   0  0  0  0  0  0  0  0  0  0  0  0
    1.3894   -1.0707    0.0000 H   0  0  0  0  0  0  0  0  0  0  0  0
    3.9441   -2.5456    0.0000 H   0  0  0  0  0  0  0  0  0  0  0  0
    4.3426   -1.8554    0.0000 H   0  0  0  0  0  0  0  0  0  0  0  0
    1.3894   -1.8554    0.0000 H   0  0  0  0  0  0  0  0  0  0  0  0
    1.7880   -2.5456    0.0000 H   0  0  0  0  0  0  0  0  0  0  0  0
    2.4675   -2.9380    0.0000 H   0  0  0  0  0  0  0  0  0  0  0  0
    3.2646   -2.9380    0.0000 H   0  0  0  0  0  0  0  0  0  0  0  0
    4.7796    1.6765    0.0000 H   0  0  0  0  0  0  0  0  0  0  0  0
    5.7678    2.5919    0.0000 H   0  0  0  0  0  0  0  0  0  0  0  0
    5.0324    3.0695    0.0000 H   0  0  0  0  0  0  0  0  0  0  0  0
    4.5549    2.3341    0.0000 H   0  0  0  0  0  0  0  0  0  0  0  0
    6.9345    2.4514    0.0000 H   0  0  0  0  0  0  0  0  0  0  0  0
    7.7234    0.9885    0.0000 H   0  0  0  0  0  0  0  0  0  0  0  0
    8.5031    1.1543    0.0000 H   0  0  0  0  0  0  0  0  0  0  0  0
    9.1725    1.7444    0.0000 H   0  0  0  0  0  0  0  0  0  0  0  0
    9.2184    2.6200    0.0000 H   0  0  0  0  0  0  0  0  0  0  0  0
    8.3428    2.6658    0.0000 H   0  0  0  0  0  0  0  0  0  0  0  0
  1 14  1  0  0  0  0
  1 15  1  0  0  0  0
  2 17  2  0  0  0  0
  3  4  1  0  0  0  0
  3  8  1  0  0  0  0
  3 14  1  0  0  0  0
  4  6  2  0  0  0  0
  5  6  1  0  0  0  0
  5 14  2  0  0  0  0
  7 17  1  0  0  0  0
  7 18  1  0  0  0  0
  7 35  1  0  0  0  0
  8  9  1  0  0  0  0
  8 10  1  0  0  0  0
  8 20  1  0  0  0  0
  9 11  1  0  0  0  0
  9 23  1  0  0  0  0
  9 24  1  0  0  0  0
 10 12  1  0  0  0  0
 10 21  1  0  0  0  0
 10 22  1  0  0  0  0
 11 13  1  0  0  0  0
 11 27  1  0  0  0  0
 11 28  1  0  0  0  0
 12 13  1  0  0  0  0
 12 25  1  0  0  0  0
 12 26  1  0  0  0  0
 13 29  1  0  0  0  0
 13 30  1  0  0  0  0
 15 16  1  0  0  0  0
 15 17  1  0  0  0  0
 15 31  1  0  0  0  0
 16 32  1  0  0  0  0
 16 33  1  0  0  0  0
 16 34  1  0  0  0  0
 18 19  1  0  0  0  0
 18 36  1  0  0  0  0
 18 37  1  0  0  0  0
 19 38  1  0  0  0  0
 19 39  1  0  0  0  0
 19 40  1  0  0  0  0
M  END
> <PUBCHEM_COMPOUND_CID>
17395586

> <PUBCHEM_COMPOUND_CANONICALIZED>
1

> <PUBCHEM_CACTVS_COMPLEXITY>
298

> <PUBCHEM_CACTVS_HBOND_ACCEPTOR>
5

> <PUBCHEM_CACTVS_HBOND_DONOR>
1

> <PUBCHEM_CACTVS_ROTATABLE_BOND>
5

> <PUBCHEM_CACTVS_SUBSKEYS>
AAADceBzoABAAAAAAAAAAAAAAAAAAWAAAAAwAAAAAAAAAAABgAAAHgQYAAAACCjFwASDEAbIAAgqAAEQNAAAEANAgJAVQIEIAACAAAIAiAAEAAAAFgKAAAEQAAAAAAAAAAAAAAAAAAAAAAAAAAAAAAAAAA==

> <PUBCHEM_IUPAC_OPENEYE_NAME>
2-(1-cyclohexyltetrazol-5-yl)sulfanyl-N-ethyl-propanamide

> <PUBCHEM_IUPAC_CAS_NAME>
2-[(1-cyclohexyl-5-tetrazolyl)thio]-N-ethylpropanamide

> <PUBCHEM_IUPAC_NAME>
2-(1-cyclohexyltetrazol-5-yl)sulfanyl-N-ethylpropanamide

> <PUBCHEM_IUPAC_SYSTEMATIC_NAME>
2-[(1-cyclohexyl-1,2,3,4-tetrazol-5-yl)sulfanyl]-N-ethyl-propanamide

> <PUBCHEM_IUPAC_TRADITIONAL_NAME>
2-[(1-cyclohexyltetrazol-5-yl)thio]-N-ethyl-propionamide

> <PUBCHEM_IUPAC_INCHI>
InChI=1S/C12H21N5OS/c1-3-13-11(18)9(2)19-12-14-15-16-17(12)10-7-5-4-6-8-10/h9-10H,3-8H2,1-2H3,(H,13,18)

> <PUBCHEM_IUPAC_INCHIKEY>
KLQOFODYFRJWQV-UHFFFAOYSA-N

> <PUBCHEM_XLOGP3_AA>
2.2

> <PUBCHEM_EXACT_MASS>
283.146681

> <PUBCHEM_MOLECULAR_FORMULA>
C12H21N5OS

> <PUBCHEM_MOLECULAR_WEIGHT>
283.39304

> <PUBCHEM_OPENEYE_CAN_SMILES>
CCNC(=O)C(C)SC1=NN=NN1C2CCCCC2

> <PUBCHEM_OPENEYE_ISO_SMILES>
CCNC(=O)C(C)SC1=NN=NN1C2CCCCC2

> <PUBCHEM_CACTVS_TPSA>
98

> <PUBCHEM_MONOISOTOPIC_WEIGHT>
283.146681

> <PUBCHEM_TOTAL_CHARGE>
0

> <PUBCHEM_HEAVY_ATOM_COUNT>
19

> <PUBCHEM_ATOM_DEF_STEREO_COUNT>
0

> <PUBCHEM_ATOM_UDEF_STEREO_COUNT>
1

> <PUBCHEM_BOND_DEF_STEREO_COUNT>
0

> <PUBCHEM_BOND_UDEF_STEREO_COUNT>
0

> <PUBCHEM_ISOTOPIC_ATOM_COUNT>
0

> <PUBCHEM_COMPONENT_COUNT>
1

> <PUBCHEM_CACTVS_TAUTO_COUNT>
2

> <PUBCHEM_COORDINATE_TYPE>
1
5
255

> <PUBCHEM_BONDANNOTATIONS>
15  16  3
3  14  8
3  4  8
4  6  8
5  14  8
5  6  8

$$$$

