582697
  -OEChem-06241222432D

 32 32  0     1  0  0  0  0  0999 V2000
    6.4641    1.9330    0.0000 S   0  0  0  0  0  0  0  0  0  0  0  0
    3.7320    0.2010    0.0000 O   0  0  0  0  0  0  0  0  0  0  0  0
    6.3301   -1.2990    0.0000 O   0  0  0  0  0  0  0  0  0  0  0  0
    7.3301    1.4330    0.0000 O   0  0  0  0  0  0  0  0  0  0  0  0
    5.5981    2.4330    0.0000 O   0  0  0  0  0  0  0  0  0  0  0  0
    4.0981    1.5670    0.0000 O   0  0  0  0  0  0  0  0  0  0  0  0
    4.5981   -1.2990    0.0000 O   0  0  0  0  0  0  0  0  0  0  0  0
    5.9641    1.0670    0.0000 N   0  0  3  0  0  0  0  0  0  0  0  0
    5.4641    0.2010    0.0000 C   0  0  0  0  0  0  0  0  0  0  0  0
    6.4641    0.2010    0.0000 C   0  0  0  0  0  0  0  0  0  0  0  0
    4.5981    0.7010    0.0000 C   0  0  0  0  0  0  0  0  0  0  0  0
    5.4641   -0.7990    0.0000 C   0  0  0  0  0  0  0  0  0  0  0  0
    6.9641    2.7990    0.0000 C   0  0  0  0  0  0  0  0  0  0  0  0
    2.8660    0.7010    0.0000 C   0  0  0  0  0  0  0  0  0  0  0  0
    6.3301   -2.2990    0.0000 C   0  0  0  0  0  0  0  0  0  0  0  0
    2.0000    0.2010    0.0000 C   0  0  0  0  0  0  0  0  0  0  0  0
    7.1962   -2.7990    0.0000 C   0  0  0  0  0  0  0  0  0  0  0  0
    6.5718   -0.4096    0.0000 H   0  0  0  0  0  0  0  0  0  0  0  0
    7.0467    0.4130    0.0000 H   0  0  0  0  0  0  0  0  0  0  0  0
    7.5010    2.4890    0.0000 H   0  0  0  0  0  0  0  0  0  0  0  0
    7.2741    3.3360    0.0000 H   0  0  0  0  0  0  0  0  0  0  0  0
    6.4272    3.1090    0.0000 H   0  0  0  0  0  0  0  0  0  0  0  0
    3.2646    1.1759    0.0000 H   0  0  0  0  0  0  0  0  0  0  0  0
    2.4675    1.1759    0.0000 H   0  0  0  0  0  0  0  0  0  0  0  0
    5.7196   -2.1914    0.0000 H   0  0  0  0  0  0  0  0  0  0  0  0
    6.1181   -2.8816    0.0000 H   0  0  0  0  0  0  0  0  0  0  0  0
    6.8862   -3.3360    0.0000 H   0  0  0  0  0  0  0  0  0  0  0  0
    7.7331   -3.1090    0.0000 H   0  0  0  0  0  0  0  0  0  0  0  0
    7.5062   -2.2621    0.0000 H   0  0  0  0  0  0  0  0  0  0  0  0
    1.6900    0.7379    0.0000 H   0  0  0  0  0  0  0  0  0  0  0  0
    1.4631   -0.1090    0.0000 H   0  0  0  0  0  0  0  0  0  0  0  0
    2.3100   -0.3360    0.0000 H   0  0  0  0  0  0  0  0  0  0  0  0
  1  4  2  0  0  0  0
  1  5  2  0  0  0  0
  1  8  1  0  0  0  0
  1 13  1  0  0  0  0
  2 11  1  0  0  0  0
  2 14  1  0  0  0  0
  3 12  1  0  0  0  0
  3 15  1  0  0  0  0
  6 11  2  0  0  0  0
  7 12  2  0  0  0  0
  8  9  1  0  0  0  0
  8 10  1  0  0  0  0
  9 10  1  0  0  0  0
  9 11  1  0  0  0  0
  9 12  1  0  0  0  0
 10 18  1  0  0  0  0
 10 19  1  0  0  0  0
 13 20  1  0  0  0  0
 13 21  1  0  0  0  0
 13 22  1  0  0  0  0
 14 16  1  0  0  0  0
 14 23  1  0  0  0  0
 14 24  1  0  0  0  0
 15 17  1  0  0  0  0
 15 25  1  0  0  0  0
 15 26  1  0  0  0  0
 16 30  1  0  0  0  0
 16 31  1  0  0  0  0
 16 32  1  0  0  0  0
 17 27  1  0  0  0  0
 17 28  1  0  0  0  0
 17 29  1  0  0  0  0
M  END
> <PUBCHEM_COMPOUND_CID>
582697

> <PUBCHEM_COMPOUND_CANONICALIZED>
1

> <PUBCHEM_CACTVS_COMPLEXITY>
405

> <PUBCHEM_CACTVS_HBOND_ACCEPTOR>
7

> <PUBCHEM_CACTVS_HBOND_DONOR>
0

> <PUBCHEM_CACTVS_ROTATABLE_BOND>
7

> <PUBCHEM_CACTVS_SUBSKEYS>
AAADccByOABAAAAAAAAAAAAAFgAAAAAAAAAAAAAAAAAAAAAAAAAAHgQAQAAADIjhgAaCCAIABAIIAACQCHAAAAAAAAAAAAGIAAACAAwIACADAAADIAAQAAAAAAAAAAAAAAAAAAAAAAAAAAAAAAAAAAAAAA==

> <PUBCHEM_IUPAC_OPENEYE_NAME>
diethyl 1-methylsulfonylaziridine-2,2-dicarboxylate

> <PUBCHEM_IUPAC_CAS_NAME>
1-methylsulfonylaziridine-2,2-dicarboxylic acid diethyl ester

> <PUBCHEM_IUPAC_NAME>
diethyl 1-methylsulfonylaziridine-2,2-dicarboxylate

> <PUBCHEM_IUPAC_SYSTEMATIC_NAME>
diethyl 1-methylsulfonylaziridine-2,2-dicarboxylate

> <PUBCHEM_IUPAC_TRADITIONAL_NAME>
1-mesylethylenimine-2,2-dicarboxylic acid diethyl ester

> <PUBCHEM_IUPAC_INCHI>
InChI=1S/C9H15NO6S/c1-4-15-7(11)9(8(12)16-5-2)6-10(9)17(3,13)14/h4-6H2,1-3H3

> <PUBCHEM_IUPAC_INCHIKEY>
NMRBZHVAIVXNRV-UHFFFAOYSA-N

> <PUBCHEM_XLOGP3_AA>
-0.1

> <PUBCHEM_EXACT_MASS>
265.062008

> <PUBCHEM_MOLECULAR_FORMULA>
C9H15NO6S

> <PUBCHEM_MOLECULAR_WEIGHT>
265.2835

> <PUBCHEM_OPENEYE_CAN_SMILES>
CCOC(=O)C1(CN1S(=O)(=O)C)C(=O)OCC

> <PUBCHEM_OPENEYE_ISO_SMILES>
CCOC(=O)C1(CN1S(=O)(=O)C)C(=O)OCC

> <PUBCHEM_CACTVS_TPSA>
98.1

> <PUBCHEM_MONOISOTOPIC_WEIGHT>
265.062008

> <PUBCHEM_TOTAL_CHARGE>
0

> <PUBCHEM_HEAVY_ATOM_COUNT>
17

> <PUBCHEM_ATOM_DEF_STEREO_COUNT>
0

> <PUBCHEM_ATOM_UDEF_STEREO_COUNT>
0

> <PUBCHEM_BOND_DEF_STEREO_COUNT>
0

> <PUBCHEM_BOND_UDEF_STEREO_COUNT>
0

> <PUBCHEM_ISOTOPIC_ATOM_COUNT>
0

> <PUBCHEM_COMPONENT_COUNT>
1

> <PUBCHEM_CACTVS_TAUTO_COUNT>
1

> <PUBCHEM_COORDINATE_TYPE>
1
5
255

$$$$

