47205542
  -OEChem-06241222592D

 43 43  0     1  0  0  0  0  0999 V2000
    2.8660   -4.0670    0.0000 S   0  0  0  0  0  0  0  0  0  0  0  0
    2.3660   -4.9330    0.0000 O   0  0  0  0  0  0  0  0  0  0  0  0
    3.3660   -4.9330    0.0000 O   0  0  0  0  0  0  0  0  0  0  0  0
    4.5981   -1.0670    0.0000 O   0  0  0  0  0  0  0  0  0  0  0  0
    3.7320    2.4330    0.0000 O   0  0  0  0  0  0  0  0  0  0  0  0
    2.8660   -2.0670    0.0000 N   0  0  0  0  0  0  0  0  0  0  0  0
    3.7320    0.4330    0.0000 N   0  0  0  0  0  0  0  0  0  0  0  0
    5.4641    2.4330    0.0000 N   0  0  0  0  0  0  0  0  0  0  0  0
    3.7320   -2.5670    0.0000 C   0  0  0  0  0  0  0  0  0  0  0  0
    2.0000   -2.5670    0.0000 C   0  0  0  0  0  0  0  0  0  0  0  0
    2.0000   -3.5670    0.0000 C   0  0  0  0  0  0  0  0  0  0  0  0
    3.7320   -3.5670    0.0000 C   0  0  0  0  0  0  0  0  0  0  0  0
    2.8660   -1.0670    0.0000 C   0  0  0  0  0  0  0  0  0  0  0  0
    3.7320   -0.5670    0.0000 C   0  0  0  0  0  0  0  0  0  0  0  0
    4.5981    0.9330    0.0000 C   0  0  3  0  0  0  0  0  0  0  0  0
    4.5981    1.9330    0.0000 C   0  0  0  0  0  0  0  0  0  0  0  0
    5.4641    0.4330    0.0000 C   0  0  0  0  0  0  0  0  0  0  0  0
    5.4641    3.4330    0.0000 C   0  0  0  0  0  0  0  0  0  0  0  0
    6.3301    3.9330    0.0000 C   0  0  0  0  0  0  0  0  0  0  0  0
    6.3301    4.9330    0.0000 C   0  0  0  0  0  0  0  0  0  0  0  0
    4.3426   -2.6747    0.0000 H   0  0  0  0  0  0  0  0  0  0  0  0
    3.9441   -1.9844    0.0000 H   0  0  0  0  0  0  0  0  0  0  0  0
    1.7880   -1.9844    0.0000 H   0  0  0  0  0  0  0  0  0  0  0  0
    1.3894   -2.6747    0.0000 H   0  0  0  0  0  0  0  0  0  0  0  0
    1.3894   -3.4593    0.0000 H   0  0  0  0  0  0  0  0  0  0  0  0
    3.9441   -4.1496    0.0000 H   0  0  0  0  0  0  0  0  0  0  0  0
    4.3426   -3.4593    0.0000 H   0  0  0  0  0  0  0  0  0  0  0  0
    1.7880   -4.1496    0.0000 H   0  0  0  0  0  0  0  0  0  0  0  0
    2.6540   -0.4844    0.0000 H   0  0  0  0  0  0  0  0  0  0  0  0
    2.2554   -1.1746    0.0000 H   0  0  0  0  0  0  0  0  0  0  0  0
    4.5981    0.3130    0.0000 H   0  0  0  0  0  0  0  0  0  0  0  0
    3.1951    0.7430    0.0000 H   0  0  0  0  0  0  0  0  0  0  0  0
    5.1541   -0.1039    0.0000 H   0  0  0  0  0  0  0  0  0  0  0  0
    6.0010    0.1230    0.0000 H   0  0  0  0  0  0  0  0  0  0  0  0
    5.7741    0.9699    0.0000 H   0  0  0  0  0  0  0  0  0  0  0  0
    6.0010    2.1230    0.0000 H   0  0  0  0  0  0  0  0  0  0  0  0
    5.2520    4.0156    0.0000 H   0  0  0  0  0  0  0  0  0  0  0  0
    4.8535    3.3254    0.0000 H   0  0  0  0  0  0  0  0  0  0  0  0
    6.5422    3.3504    0.0000 H   0  0  0  0  0  0  0  0  0  0  0  0
    6.9407    4.0407    0.0000 H   0  0  0  0  0  0  0  0  0  0  0  0
    6.9501    4.9330    0.0000 H   0  0  0  0  0  0  0  0  0  0  0  0
    6.3301    5.5530    0.0000 H   0  0  0  0  0  0  0  0  0  0  0  0
    5.7101    4.9330    0.0000 H   0  0  0  0  0  0  0  0  0  0  0  0
  1  2  2  0  0  0  0
  1  3  2  0  0  0  0
  1 11  1  0  0  0  0
  1 12  1  0  0  0  0
  4 14  2  0  0  0  0
  5 16  2  0  0  0  0
  6  9  1  0  0  0  0
  6 10  1  0  0  0  0
  6 13  1  0  0  0  0
  7 14  1  0  0  0  0
  7 15  1  0  0  0  0
  7 32  1  0  0  0  0
  8 16  1  0  0  0  0
  8 18  1  0  0  0  0
  8 36  1  0  0  0  0
  9 12  1  0  0  0  0
  9 21  1  0  0  0  0
  9 22  1  0  0  0  0
 10 11  1  0  0  0  0
 10 23  1  0  0  0  0
 10 24  1  0  0  0  0
 11 25  1  0  0  0  0
 11 28  1  0  0  0  0
 12 26  1  0  0  0  0
 12 27  1  0  0  0  0
 13 14  1  0  0  0  0
 13 29  1  0  0  0  0
 13 30  1  0  0  0  0
 15 16  1  0  0  0  0
 15 17  1  0  0  0  0
 15 31  1  0  0  0  0
 17 33  1  0  0  0  0
 17 34  1  0  0  0  0
 17 35  1  0  0  0  0
 18 19  1  0  0  0  0
 18 37  1  0  0  0  0
 18 38  1  0  0  0  0
 19 20  1  0  0  0  0
 19 39  1  0  0  0  0
 19 40  1  0  0  0  0
 20 41  1  0  0  0  0
 20 42  1  0  0  0  0
 20 43  1  0  0  0  0
M  END
> <PUBCHEM_COMPOUND_CID>
47205542

> <PUBCHEM_COMPOUND_CANONICALIZED>
1

> <PUBCHEM_CACTVS_COMPLEXITY>
430

> <PUBCHEM_CACTVS_HBOND_ACCEPTOR>
5

> <PUBCHEM_CACTVS_HBOND_DONOR>
2

> <PUBCHEM_CACTVS_ROTATABLE_BOND>
6

> <PUBCHEM_CACTVS_SUBSKEYS>
AAADceBzOABAAAAAAAAAAAAAAAAAAAAAAAAsAAAAAAAAAAAAAAAAHgQQAAAACCjFwASCAAPAAAoIAAEQEHBAAAAAABAAAIGIAAAAQAAAACAUAAAAFgCgAAAAAAAAAAAAAAAAAAAAAAAAAAAAAAAAAAAAAA==

> <PUBCHEM_IUPAC_OPENEYE_NAME>
2-[[2-(1,1-dioxo-1,4-thiazinan-4-yl)acetyl]amino]-N-propyl-propanamide

> <PUBCHEM_IUPAC_CAS_NAME>
2-[[2-(1,1-dioxo-1,4-thiazinan-4-yl)-1-oxoethyl]amino]-N-propylpropanamide

> <PUBCHEM_IUPAC_NAME>
2-[[2-(1,1-dioxo-1,4-thiazinan-4-yl)acetyl]amino]-N-propylpropanamide

> <PUBCHEM_IUPAC_SYSTEMATIC_NAME>
2-[2-[1,1-bis(oxidanylidene)-1,4-thiazinan-4-yl]ethanoylamino]-N-propyl-propanamide

> <PUBCHEM_IUPAC_TRADITIONAL_NAME>
2-[[2-(1,1-diketo-1,4-thiazinan-4-yl)acetyl]amino]-N-propyl-propionamide

> <PUBCHEM_IUPAC_INCHI>
InChI=1S/C12H23N3O4S/c1-3-4-13-12(17)10(2)14-11(16)9-15-5-7-20(18,19)8-6-15/h10H,3-9H2,1-2H3,(H,13,17)(H,14,16)

> <PUBCHEM_IUPAC_INCHIKEY>
QCCFNFLBWOMELA-UHFFFAOYSA-N

> <PUBCHEM_XLOGP3_AA>
-0.6

> <PUBCHEM_EXACT_MASS>
305.140927

> <PUBCHEM_MOLECULAR_FORMULA>
C12H23N3O4S

> <PUBCHEM_MOLECULAR_WEIGHT>
305.39372

> <PUBCHEM_OPENEYE_CAN_SMILES>
CCCNC(=O)C(C)NC(=O)CN1CCS(=O)(=O)CC1

> <PUBCHEM_OPENEYE_ISO_SMILES>
CCCNC(=O)C(C)NC(=O)CN1CCS(=O)(=O)CC1

> <PUBCHEM_CACTVS_TPSA>
104

> <PUBCHEM_MONOISOTOPIC_WEIGHT>
305.140927

> <PUBCHEM_TOTAL_CHARGE>
0

> <PUBCHEM_HEAVY_ATOM_COUNT>
20

> <PUBCHEM_ATOM_DEF_STEREO_COUNT>
0

> <PUBCHEM_ATOM_UDEF_STEREO_COUNT>
1

> <PUBCHEM_BOND_DEF_STEREO_COUNT>
0

> <PUBCHEM_BOND_UDEF_STEREO_COUNT>
0

> <PUBCHEM_ISOTOPIC_ATOM_COUNT>
0

> <PUBCHEM_COMPONENT_COUNT>
1

> <PUBCHEM_CACTVS_TAUTO_COUNT>
4

> <PUBCHEM_COORDINATE_TYPE>
1
5
255

> <PUBCHEM_BONDANNOTATIONS>
15  17  3

$$$$

