582699
  -OEChem-06241222432D

 39 40  0     1  0  0  0  0  0999 V2000
    3.0000   -0.9330    0.0000 S   0  0  0  0  0  0  0  0  0  0  0  0
    5.1276    1.5254    0.0000 O   0  0  0  0  0  0  0  0  0  0  0  0
    4.3660    2.4330    0.0000 O   0  0  0  0  0  0  0  0  0  0  0  0
    4.0000   -0.9330    0.0000 O   0  0  0  0  0  0  0  0  0  0  0  0
    2.0000   -0.9330    0.0000 O   0  0  0  0  0  0  0  0  0  0  0  0
    4.8268   -0.1803    0.0000 O   0  0  0  0  0  0  0  0  0  0  0  0
    2.6340    2.4330    0.0000 O   0  0  0  0  0  0  0  0  0  0  0  0
    3.0000    0.0670    0.0000 N   0  0  3  0  0  0  0  0  0  0  0  0
    3.5000    0.9330    0.0000 C   0  0  0  0  0  0  0  0  0  0  0  0
    2.5000    0.9330    0.0000 C   0  0  0  0  0  0  0  0  0  0  0  0
    3.5000    1.9330    0.0000 C   0  0  0  0  0  0  0  0  0  0  0  0
    4.4848    0.7594    0.0000 C   0  0  0  0  0  0  0  0  0  0  0  0
    3.0000   -1.9330    0.0000 C   0  0  0  0  0  0  0  0  0  0  0  0
    2.1340   -2.4330    0.0000 C   0  0  0  0  0  0  0  0  0  0  0  0
    3.8660   -2.4330    0.0000 C   0  0  0  0  0  0  0  0  0  0  0  0
    4.3660    3.4330    0.0000 C   0  0  0  0  0  0  0  0  0  0  0  0
    6.1124    1.3518    0.0000 C   0  0  0  0  0  0  0  0  0  0  0  0
    2.1340   -3.4330    0.0000 C   0  0  0  0  0  0  0  0  0  0  0  0
    3.8660   -3.4330    0.0000 C   0  0  0  0  0  0  0  0  0  0  0  0
    3.0000   -3.9330    0.0000 C   0  0  0  0  0  0  0  0  0  0  0  0
    6.7552    2.1178    0.0000 C   0  0  0  0  0  0  0  0  0  0  0  0
    5.2320    3.9330    0.0000 C   0  0  0  0  0  0  0  0  0  0  0  0
    2.3923    1.5436    0.0000 H   0  0  0  0  0  0  0  0  0  0  0  0
    1.9174    0.7210    0.0000 H   0  0  0  0  0  0  0  0  0  0  0  0
    1.5970   -2.1230    0.0000 H   0  0  0  0  0  0  0  0  0  0  0  0
    4.4030   -2.1230    0.0000 H   0  0  0  0  0  0  0  0  0  0  0  0
    5.9004    0.7692    0.0000 H   0  0  0  0  0  0  0  0  0  0  0  0
    6.6493    1.0418    0.0000 H   0  0  0  0  0  0  0  0  0  0  0  0
    4.1540    4.0156    0.0000 H   0  0  0  0  0  0  0  0  0  0  0  0
    3.7554    3.3254    0.0000 H   0  0  0  0  0  0  0  0  0  0  0  0
    1.5970   -3.7430    0.0000 H   0  0  0  0  0  0  0  0  0  0  0  0
    4.4030   -3.7430    0.0000 H   0  0  0  0  0  0  0  0  0  0  0  0
    3.0000   -4.5530    0.0000 H   0  0  0  0  0  0  0  0  0  0  0  0
    7.2301    1.7193    0.0000 H   0  0  0  0  0  0  0  0  0  0  0  0
    7.1537    2.5928    0.0000 H   0  0  0  0  0  0  0  0  0  0  0  0
    6.2802    2.5163    0.0000 H   0  0  0  0  0  0  0  0  0  0  0  0
    5.5420    3.3961    0.0000 H   0  0  0  0  0  0  0  0  0  0  0  0
    5.7690    4.2430    0.0000 H   0  0  0  0  0  0  0  0  0  0  0  0
    4.9220    4.4700    0.0000 H   0  0  0  0  0  0  0  0  0  0  0  0
  1  4  2  0  0  0  0
  1  5  2  0  0  0  0
  1  8  1  0  0  0  0
  1 13  1  0  0  0  0
  2 12  1  0  0  0  0
  2 17  1  0  0  0  0
  3 11  1  0  0  0  0
  3 16  1  0  0  0  0
  6 12  2  0  0  0  0
  7 11  2  0  0  0  0
  8  9  1  0  0  0  0
  8 10  1  0  0  0  0
  9 10  1  0  0  0  0
  9 11  1  0  0  0  0
  9 12  1  0  0  0  0
 10 23  1  0  0  0  0
 10 24  1  0  0  0  0
 13 14  2  0  0  0  0
 13 15  1  0  0  0  0
 14 18  1  0  0  0  0
 14 25  1  0  0  0  0
 15 19  2  0  0  0  0
 15 26  1  0  0  0  0
 16 22  1  0  0  0  0
 16 29  1  0  0  0  0
 16 30  1  0  0  0  0
 17 21  1  0  0  0  0
 17 27  1  0  0  0  0
 17 28  1  0  0  0  0
 18 20  2  0  0  0  0
 18 31  1  0  0  0  0
 19 20  1  0  0  0  0
 19 32  1  0  0  0  0
 20 33  1  0  0  0  0
 21 34  1  0  0  0  0
 21 35  1  0  0  0  0
 21 36  1  0  0  0  0
 22 37  1  0  0  0  0
 22 38  1  0  0  0  0
 22 39  1  0  0  0  0
M  END
> <PUBCHEM_COMPOUND_CID>
582699

> <PUBCHEM_COMPOUND_CANONICALIZED>
1

> <PUBCHEM_CACTVS_COMPLEXITY>
514

> <PUBCHEM_CACTVS_HBOND_ACCEPTOR>
7

> <PUBCHEM_CACTVS_HBOND_DONOR>
0

> <PUBCHEM_CACTVS_ROTATABLE_BOND>
8

> <PUBCHEM_CACTVS_SUBSKEYS>
AAADceByOABAAAAAAAAAAAAAFgAAAAAAAAAwAAAAAAAAAAABAAAAHgQAQAAADIjh0AYyCYIABAKIACDSCHBCABAgAAAIiBmIAIgKIC6IETCDIAAjoAAYiAcAAAAAAAAAAAAAAAAAAAAAAAAAAAAAAAAAAA==

> <PUBCHEM_IUPAC_OPENEYE_NAME>
diethyl 1-(benzenesulfonyl)aziridine-2,2-dicarboxylate

> <PUBCHEM_IUPAC_CAS_NAME>
1-(benzenesulfonyl)aziridine-2,2-dicarboxylic acid diethyl ester

> <PUBCHEM_IUPAC_NAME>
diethyl 1-(benzenesulfonyl)aziridine-2,2-dicarboxylate

> <PUBCHEM_IUPAC_SYSTEMATIC_NAME>
diethyl 1-(phenylsulfonyl)aziridine-2,2-dicarboxylate

> <PUBCHEM_IUPAC_TRADITIONAL_NAME>
1-besylethylenimine-2,2-dicarboxylic acid diethyl ester

> <PUBCHEM_IUPAC_INCHI>
InChI=1S/C14H17NO6S/c1-3-20-12(16)14(13(17)21-4-2)10-15(14)22(18,19)11-8-6-5-7-9-11/h5-9H,3-4,10H2,1-2H3

> <PUBCHEM_IUPAC_INCHIKEY>
HLZJJSABCOXXFD-UHFFFAOYSA-N

> <PUBCHEM_XLOGP3_AA>
1.4

> <PUBCHEM_EXACT_MASS>
327.077658

> <PUBCHEM_MOLECULAR_FORMULA>
C14H17NO6S

> <PUBCHEM_MOLECULAR_WEIGHT>
327.35288

> <PUBCHEM_OPENEYE_CAN_SMILES>
CCOC(=O)C1(CN1S(=O)(=O)C2=CC=CC=C2)C(=O)OCC

> <PUBCHEM_OPENEYE_ISO_SMILES>
CCOC(=O)C1(CN1S(=O)(=O)C2=CC=CC=C2)C(=O)OCC

> <PUBCHEM_CACTVS_TPSA>
98.1

> <PUBCHEM_MONOISOTOPIC_WEIGHT>
327.077658

> <PUBCHEM_TOTAL_CHARGE>
0

> <PUBCHEM_HEAVY_ATOM_COUNT>
22

> <PUBCHEM_ATOM_DEF_STEREO_COUNT>
0

> <PUBCHEM_ATOM_UDEF_STEREO_COUNT>
0

> <PUBCHEM_BOND_DEF_STEREO_COUNT>
0

> <PUBCHEM_BOND_UDEF_STEREO_COUNT>
0

> <PUBCHEM_ISOTOPIC_ATOM_COUNT>
0

> <PUBCHEM_COMPONENT_COUNT>
1

> <PUBCHEM_CACTVS_TAUTO_COUNT>
1

> <PUBCHEM_COORDINATE_TYPE>
1
5
255

> <PUBCHEM_BONDANNOTATIONS>
13  14  8
13  15  8
14  18  8
15  19  8
18  20  8
19  20  8

$$$$

