6542
  -OEChem-06261201222D

 40 39  0     0  0  0  0  0  0999 V2000
    5.4641   -0.0490    0.0000 S   0  0  0  0  0  0  0  0  0  0  0  0
    4.5981   -0.5490    0.0000 P   0  0  0  0  0  0  0  0  0  0  0  0
    3.7320   -1.0490    0.0000 O   0  0  0  0  0  0  0  0  0  0  0  0
    4.0981    0.3170    0.0000 O   0  0  0  0  0  0  0  0  0  0  0  0
    5.0981   -1.4151    0.0000 O   0  0  0  0  0  0  0  0  0  0  0  0
    8.0622   -0.5490    0.0000 N   0  0  0  0  0  0  0  0  0  0  0  0
    7.1962   -0.0490    0.0000 C   0  0  0  0  0  0  0  0  0  0  0  0
    8.9282   -0.0490    0.0000 C   0  0  0  0  0  0  0  0  0  0  0  0
    8.0622   -1.5490    0.0000 C   0  0  0  0  0  0  0  0  0  0  0  0
    6.3301   -0.5490    0.0000 C   0  0  0  0  0  0  0  0  0  0  0  0
    9.7942   -0.5490    0.0000 C   0  0  0  0  0  0  0  0  0  0  0  0
    8.9282   -2.0490    0.0000 C   0  0  0  0  0  0  0  0  0  0  0  0
    2.8660   -0.5490    0.0000 C   0  0  0  0  0  0  0  0  0  0  0  0
    4.5981    1.1830    0.0000 C   0  0  0  0  0  0  0  0  0  0  0  0
    4.0981    2.0490    0.0000 C   0  0  0  0  0  0  0  0  0  0  0  0
    2.0000   -1.0490    0.0000 C   0  0  0  0  0  0  0  0  0  0  0  0
    7.5947    0.4259    0.0000 H   0  0  0  0  0  0  0  0  0  0  0  0
    6.7976    0.4259    0.0000 H   0  0  0  0  0  0  0  0  0  0  0  0
    9.3267    0.4259    0.0000 H   0  0  0  0  0  0  0  0  0  0  0  0
    8.5297    0.4259    0.0000 H   0  0  0  0  0  0  0  0  0  0  0  0
    7.4516   -1.4414    0.0000 H   0  0  0  0  0  0  0  0  0  0  0  0
    7.8501   -2.1316    0.0000 H   0  0  0  0  0  0  0  0  0  0  0  0
    5.9316   -1.0240    0.0000 H   0  0  0  0  0  0  0  0  0  0  0  0
    6.7287   -1.0240    0.0000 H   0  0  0  0  0  0  0  0  0  0  0  0
    9.4842   -1.0860    0.0000 H   0  0  0  0  0  0  0  0  0  0  0  0
   10.3312   -0.8590    0.0000 H   0  0  0  0  0  0  0  0  0  0  0  0
   10.1042   -0.0121    0.0000 H   0  0  0  0  0  0  0  0  0  0  0  0
    8.6182   -2.5860    0.0000 H   0  0  0  0  0  0  0  0  0  0  0  0
    9.4651   -2.3590    0.0000 H   0  0  0  0  0  0  0  0  0  0  0  0
    9.2382   -1.5121    0.0000 H   0  0  0  0  0  0  0  0  0  0  0  0
    3.2646   -0.0741    0.0000 H   0  0  0  0  0  0  0  0  0  0  0  0
    2.4675   -0.0741    0.0000 H   0  0  0  0  0  0  0  0  0  0  0  0
    5.0730    0.7845    0.0000 H   0  0  0  0  0  0  0  0  0  0  0  0
    5.0730    1.5815    0.0000 H   0  0  0  0  0  0  0  0  0  0  0  0
    4.6350    2.3590    0.0000 H   0  0  0  0  0  0  0  0  0  0  0  0
    3.7881    2.5860    0.0000 H   0  0  0  0  0  0  0  0  0  0  0  0
    3.5611    1.7390    0.0000 H   0  0  0  0  0  0  0  0  0  0  0  0
    1.6900   -0.5121    0.0000 H   0  0  0  0  0  0  0  0  0  0  0  0
    1.4631   -1.3590    0.0000 H   0  0  0  0  0  0  0  0  0  0  0  0
    2.3100   -1.5860    0.0000 H   0  0  0  0  0  0  0  0  0  0  0  0
  1  2  1  0  0  0  0
  1 10  1  0  0  0  0
  2  3  1  0  0  0  0
  2  4  1  0  0  0  0
  2  5  2  0  0  0  0
  3 13  1  0  0  0  0
  4 14  1  0  0  0  0
  6  7  1  0  0  0  0
  6  8  1  0  0  0  0
  6  9  1  0  0  0  0
  7 10  1  0  0  0  0
  7 17  1  0  0  0  0
  7 18  1  0  0  0  0
  8 11  1  0  0  0  0
  8 19  1  0  0  0  0
  8 20  1  0  0  0  0
  9 12  1  0  0  0  0
  9 21  1  0  0  0  0
  9 22  1  0  0  0  0
 10 23  1  0  0  0  0
 10 24  1  0  0  0  0
 11 25  1  0  0  0  0
 11 26  1  0  0  0  0
 11 27  1  0  0  0  0
 12 28  1  0  0  0  0
 12 29  1  0  0  0  0
 12 30  1  0  0  0  0
 13 16  1  0  0  0  0
 13 31  1  0  0  0  0
 13 32  1  0  0  0  0
 14 15  1  0  0  0  0
 14 33  1  0  0  0  0
 14 34  1  0  0  0  0
 15 35  1  0  0  0  0
 15 36  1  0  0  0  0
 15 37  1  0  0  0  0
 16 38  1  0  0  0  0
 16 39  1  0  0  0  0
 16 40  1  0  0  0  0
M  END
> <PUBCHEM_COMPOUND_CID>
6542

> <PUBCHEM_COMPOUND_CANONICALIZED>
1

> <PUBCHEM_CACTVS_COMPLEXITY>
202

> <PUBCHEM_CACTVS_HBOND_ACCEPTOR>
5

> <PUBCHEM_CACTVS_HBOND_DONOR>
0

> <PUBCHEM_CACTVS_ROTATABLE_BOND>
10

> <PUBCHEM_CACTVS_SUBSKEYS>
AAADceByMAJAAAAAAAAAAAAAAAAAAAAAAAAAAAAAAAAAAAAAAAAAHgQAACAAAADlwAaCAAMAARAAQAAAAIAAAAAAAAAAAAAIAAAAAAAAAAAAAAAAAACAAAAAAAAAAAAAAAAAAAAAAAAAAAAAAAAAAAAAAA==

> <PUBCHEM_IUPAC_OPENEYE_NAME>
2-diethoxyphosphorylsulfanyl-N,N-diethyl-ethanamine

> <PUBCHEM_IUPAC_CAS_NAME>
2-(diethoxyphosphorylthio)-N,N-diethylethanamine

> <PUBCHEM_IUPAC_NAME>
2-diethoxyphosphorylsulfanyl-N,N-diethylethanamine

> <PUBCHEM_IUPAC_SYSTEMATIC_NAME>
2-diethoxyphosphorylsulfanyl-N,N-diethyl-ethanamine

> <PUBCHEM_IUPAC_TRADITIONAL_NAME>
2-(diethoxyphosphorylthio)ethyl-diethyl-amine

> <PUBCHEM_IUPAC_INCHI>
InChI=1S/C10H24NO3PS/c1-5-11(6-2)9-10-16-15(12,13-7-3)14-8-4/h5-10H2,1-4H3

> <PUBCHEM_IUPAC_INCHIKEY>
PJISLFCKHOHLLP-UHFFFAOYSA-N

> <PUBCHEM_XLOGP3>
1.7

> <PUBCHEM_EXACT_MASS>
269.121451

> <PUBCHEM_MOLECULAR_FORMULA>
C10H24NO3PS

> <PUBCHEM_MOLECULAR_WEIGHT>
269.341222

> <PUBCHEM_OPENEYE_CAN_SMILES>
CCN(CC)CCSP(=O)(OCC)OCC

> <PUBCHEM_OPENEYE_ISO_SMILES>
CCN(CC)CCSP(=O)(OCC)OCC

> <PUBCHEM_CACTVS_TPSA>
64.1

> <PUBCHEM_MONOISOTOPIC_WEIGHT>
269.121451

> <PUBCHEM_TOTAL_CHARGE>
0

> <PUBCHEM_HEAVY_ATOM_COUNT>
16

> <PUBCHEM_ATOM_DEF_STEREO_COUNT>
0

> <PUBCHEM_ATOM_UDEF_STEREO_COUNT>
0

> <PUBCHEM_BOND_DEF_STEREO_COUNT>
0

> <PUBCHEM_BOND_UDEF_STEREO_COUNT>
0

> <PUBCHEM_ISOTOPIC_ATOM_COUNT>
0

> <PUBCHEM_COMPONENT_COUNT>
1

> <PUBCHEM_CACTVS_TAUTO_COUNT>
1

> <PUBCHEM_COORDINATE_TYPE>
1
5
255

$$$$

