6492
  -OEChem-06261201212D

 22 24  0     1  0  0  0  0  0999 V2000
    3.5749   -1.1058    0.0000 C   0  0  3  0  0  0  0  0  0  0  0  0
    3.0749   -0.2397    0.0000 C   0  0  3  0  0  0  0  0  0  0  0  0
    5.3069   -0.1058    0.0000 C   0  0  3  0  0  0  0  0  0  0  0  0
    5.5657    0.8602    0.0000 C   0  0  3  0  0  0  0  0  0  0  0  0
    4.8291    1.8428    0.0000 C   0  0  0  0  0  0  0  0  0  0  0  0
    2.9078   -1.8428    0.0000 C   0  0  0  0  0  0  0  0  0  0  0  0
    7.1389   -0.8646    0.0000 C   0  0  0  0  0  0  0  0  0  0  0  0
    7.3977    0.1013    0.0000 C   0  0  0  0  0  0  0  0  0  0  0  0
    2.1030   -0.4489    0.0000 C   0  0  0  0  0  0  0  0  0  0  0  0
    2.0000   -1.4377    0.0000 C   0  0  0  0  0  0  0  0  0  0  0  0
    3.9644   -1.5881    0.0000 H   0  0  0  0  0  0  0  0  0  0  0  0
    2.8834    0.3500    0.0000 H   0  0  0  0  0  0  0  0  0  0  0  0
    5.7774    0.2980    0.0000 H   0  0  0  0  0  0  0  0  0  0  0  0
    5.9459    1.3499    0.0000 H   0  0  0  0  0  0  0  0  0  0  0  0
    5.1469    2.3751    0.0000 H   0  0  0  0  0  0  0  0  0  0  0  0
    4.2160    1.9347    0.0000 H   0  0  0  0  0  0  0  0  0  0  0  0
    2.5970   -2.3793    0.0000 H   0  0  0  0  0  0  0  0  0  0  0  0
    3.4086   -2.2082    0.0000 H   0  0  0  0  0  0  0  0  0  0  0  0
    7.4131   -1.4206    0.0000 H   0  0  0  0  0  0  0  0  0  0  0  0
    7.9538    0.3756    0.0000 H   0  0  0  0  0  0  0  0  0  0  0  0
    1.6416   -0.0349    0.0000 H   0  0  0  0  0  0  0  0  0  0  0  0
    1.4631   -1.7477    0.0000 H   0  0  0  0  0  0  0  0  0  0  0  0
  1  2  1  0  0  0  0
  1  3  1  0  0  0  0
  1  6  1  0  0  0  0
  1 11  1  0  0  0  0
  2  4  1  0  0  0  0
  2  9  1  0  0  0  0
  2 12  1  0  0  0  0
  3  5  1  0  0  0  0
  3  7  1  0  0  0  0
  3 13  1  0  0  0  0
  4  5  1  0  0  0  0
  4  8  1  0  0  0  0
  4 14  1  0  0  0  0
  5 15  1  0  0  0  0
  5 16  1  0  0  0  0
  6 10  1  0  0  0  0
  6 17  1  0  0  0  0
  6 18  1  0  0  0  0
  7  8  2  0  0  0  0
  7 19  1  0  0  0  0
  8 20  1  0  0  0  0
  9 10  2  0  0  0  0
  9 21  1  0  0  0  0
 10 22  1  0  0  0  0
M  END
> <PUBCHEM_COMPOUND_CID>
6492

> <PUBCHEM_COMPOUND_CANONICALIZED>
1

> <PUBCHEM_CACTVS_COMPLEXITY>
212

> <PUBCHEM_CACTVS_HBOND_ACCEPTOR>
0

> <PUBCHEM_CACTVS_HBOND_DONOR>
0

> <PUBCHEM_CACTVS_ROTATABLE_BOND>
0

> <PUBCHEM_CACTVS_SUBSKEYS>
AAADccBwAAAAAAAAAAAAAAAAAAAAAYIEAAAgAAAAAAAQAAAAAAAAGAAAAAAADQCAAAAAAAAAAACAACBCAAAAAAAgAAAICAAAAAgAAAIAAQAAAAAAgAAIAAMAgMAOgAAAAAAAAAAAAAAAAAAAAQAACAAAAA==

> <PUBCHEM_IUPAC_INCHI>
InChI=1S/C10H12/c1-2-9-7-4-5-8(6-7)10(9)3-1/h1-2,4-5,7-10H,3,6H2

> <PUBCHEM_IUPAC_INCHIKEY>
HECLRDQVFMWTQS-UHFFFAOYSA-N

> <PUBCHEM_XLOGP3_AA>
2.5

> <PUBCHEM_EXACT_MASS>
132.0939

> <PUBCHEM_MOLECULAR_FORMULA>
C10H12

> <PUBCHEM_MOLECULAR_WEIGHT>
132.20228

> <PUBCHEM_OPENEYE_CAN_SMILES>
C1C=CC2C1C3CC2C=C3

> <PUBCHEM_OPENEYE_ISO_SMILES>
C1C=CC2C1C3CC2C=C3

> <PUBCHEM_CACTVS_TPSA>
0

> <PUBCHEM_MONOISOTOPIC_WEIGHT>
132.0939

> <PUBCHEM_TOTAL_CHARGE>
0

> <PUBCHEM_HEAVY_ATOM_COUNT>
10

> <PUBCHEM_ATOM_DEF_STEREO_COUNT>
0

> <PUBCHEM_ATOM_UDEF_STEREO_COUNT>
4

> <PUBCHEM_BOND_DEF_STEREO_COUNT>
0

> <PUBCHEM_BOND_UDEF_STEREO_COUNT>
0

> <PUBCHEM_ISOTOPIC_ATOM_COUNT>
0

> <PUBCHEM_COMPONENT_COUNT>
1

> <PUBCHEM_CACTVS_TAUTO_COUNT>
1

> <PUBCHEM_COORDINATE_TYPE>
1
5
255

> <PUBCHEM_BONDANNOTATIONS>
1  6  3
2  9  3
3  7  3
4  8  3

$$$$

