5696
  -OEChem-06261200492D

 48 50  0     0  0  0  0  0  0999 V2000
    4.6351   -0.4147    0.0000 S   0  0  0  0  0  0  0  0  0  0  0  0
    6.8834    3.4860    0.0000 S   0  0  0  0  0  0  0  0  0  0  0  0
    3.4030    2.4514    0.0000 S   0  0  0  0  0  0  0  0  0  0  0  0
    4.1351   -1.2807    0.0000 O   0  0  0  0  0  0  0  0  0  0  0  0
    6.8718    4.4860    0.0000 O   0  0  0  0  0  0  0  0  0  0  0  0
    3.7690    0.0854    0.0000 O   0  0  0  0  0  0  0  0  0  0  0  0
    5.5010   -0.9146    0.0000 O   0  0  0  0  0  0  0  0  0  0  0  0
    2.5369    2.9514    0.0000 O   0  0  0  0  0  0  0  0  0  0  0  0
    7.8834    3.4976    0.0000 O   0  0  0  0  0  0  0  0  0  0  0  0
    5.8835    3.4745    0.0000 O   0  0  0  0  0  0  0  0  0  0  0  0
    2.9030    1.5854    0.0000 O   0  0  0  0  0  0  0  0  0  0  0  0
    3.9030    3.3174    0.0000 O   0  0  0  0  0  0  0  0  0  0  0  0
    8.8948    0.3936    0.0000 O   0  0  0  0  0  0  0  0  0  0  0  0
   11.8546   -3.1049    0.0000 O   0  5  0  0  0  0  0  0  0  0  0  0
    8.8348   -4.8021    0.0000 O   0  5  0  0  0  0  0  0  0  0  0  0
   11.8746   -1.3730    0.0000 O   0  0  0  0  0  0  0  0  0  0  0  0
    7.3449   -3.9188    0.0000 O   0  0  0  0  0  0  0  0  0  0  0  0
    7.3850   -0.4549    0.0000 N   0  0  0  0  0  0  0  0  0  0  0  0
   11.3646   -2.2332    0.0000 N   0  3  0  0  0  0  0  0  0  0  0  0
    8.3449   -3.9304    0.0000 N   0  3  0  0  0  0  0  0  0  0  0  0
    6.0010    0.9514    0.0000 C   0  0  0  0  0  0  0  0  0  0  0  0
    6.0010    1.9514    0.0000 C   0  0  0  0  0  0  0  0  0  0  0  0
    5.1350    0.4514    0.0000 C   0  0  0  0  0  0  0  0  0  0  0  0
    6.8950    0.4168    0.0000 C   0  0  0  0  0  0  0  0  0  0  0  0
    6.8950    2.4861    0.0000 C   0  0  0  0  0  0  0  0  0  0  0  0
    5.1350    2.4514    0.0000 C   0  0  0  0  0  0  0  0  0  0  0  0
    4.2690    1.9514    0.0000 C   0  0  0  0  0  0  0  0  0  0  0  0
    4.2690    0.9514    0.0000 C   0  0  0  0  0  0  0  0  0  0  0  0
    7.8010    0.9306    0.0000 C   0  0  0  0  0  0  0  0  0  0  0  0
    7.8010    1.9722    0.0000 C   0  0  0  0  0  0  0  0  0  0  0  0
    8.3849   -0.4665    0.0000 C   0  0  0  0  0  0  0  0  0  0  0  0
    8.8748   -1.3383    0.0000 C   0  0  0  0  0  0  0  0  0  0  0  0
    8.3649   -2.1984    0.0000 C   0  0  0  0  0  0  0  0  0  0  0  0
    9.8748   -1.3499    0.0000 C   0  0  0  0  0  0  0  0  0  0  0  0
   10.3647   -2.2216    0.0000 C   0  0  0  0  0  0  0  0  0  0  0  0
    8.8549   -3.0702    0.0000 C   0  0  0  0  0  0  0  0  0  0  0  0
    9.8547   -3.0818    0.0000 C   0  0  0  0  0  0  0  0  0  0  0  0
    5.1350    3.0714    0.0000 H   0  0  0  0  0  0  0  0  0  0  0  0
    3.7320    0.6414    0.0000 H   0  0  0  0  0  0  0  0  0  0  0  0
    8.3368    0.6185    0.0000 H   0  0  0  0  0  0  0  0  0  0  0  0
    8.3368    2.2843    0.0000 H   0  0  0  0  0  0  0  0  0  0  0  0
    7.0688   -0.9883    0.0000 H   0  0  0  0  0  0  0  0  0  0  0  0
    3.5151   -1.2807    0.0000 H   0  0  0  0  0  0  0  0  0  0  0  0
    7.4052    4.8021    0.0000 H   0  0  0  0  0  0  0  0  0  0  0  0
    7.7450   -2.1913    0.0000 H   0  0  0  0  0  0  0  0  0  0  0  0
   10.1909   -0.8165    0.0000 H   0  0  0  0  0  0  0  0  0  0  0  0
    2.0000    2.6414    0.0000 H   0  0  0  0  0  0  0  0  0  0  0  0
   10.1585   -3.6223    0.0000 H   0  0  0  0  0  0  0  0  0  0  0  0
  1  4  1  0  0  0  0
  1  6  2  0  0  0  0
  1  7  2  0  0  0  0
  1 23  1  0  0  0  0
  2  5  1  0  0  0  0
  2  9  2  0  0  0  0
  2 10  2  0  0  0  0
  2 25  1  0  0  0  0
  3  8  1  0  0  0  0
  3 11  2  0  0  0  0
  3 12  2  0  0  0  0
  3 27  1  0  0  0  0
  4 43  1  0  0  0  0
  5 44  1  0  0  0  0
  8 47  1  0  0  0  0
 13 31  2  0  0  0  0
 14 19  1  0  0  0  0
 15 20  1  0  0  0  0
 16 19  2  0  0  0  0
 17 20  2  0  0  0  0
 18 24  1  0  0  0  0
 18 31  1  0  0  0  0
 18 42  1  0  0  0  0
 19 35  1  0  0  0  0
 20 36  1  0  0  0  0
 21 22  1  0  0  0  0
 21 23  1  0  0  0  0
 21 24  2  0  0  0  0
 22 25  2  0  0  0  0
 22 26  1  0  0  0  0
 23 28  2  0  0  0  0
 24 29  1  0  0  0  0
 25 30  1  0  0  0  0
 26 27  2  0  0  0  0
 26 38  1  0  0  0  0
 27 28  1  0  0  0  0
 28 39  1  0  0  0  0
 29 30  2  0  0  0  0
 29 40  1  0  0  0  0
 30 41  1  0  0  0  0
 31 32  1  0  0  0  0
 32 33  2  0  0  0  0
 32 34  1  0  0  0  0
 33 36  1  0  0  0  0
 33 45  1  0  0  0  0
 34 35  2  0  0  0  0
 34 46  1  0  0  0  0
 35 37  1  0  0  0  0
 36 37  2  0  0  0  0
 37 48  1  0  0  0  0
M  CHG  4  14  -1  15  -1  19   1  20   1
M  END
> <PUBCHEM_COMPOUND_CID>
5696

> <PUBCHEM_COMPOUND_CANONICALIZED>
1

> <PUBCHEM_CACTVS_COMPLEXITY>
1220

> <PUBCHEM_CACTVS_HBOND_ACCEPTOR>
14

> <PUBCHEM_CACTVS_HBOND_DONOR>
4

> <PUBCHEM_CACTVS_ROTATABLE_BOND>
5

> <PUBCHEM_CACTVS_SUBSKEYS>
AAADccB7PABgAAAAAAAAAAAAAAAAAAAAAAAwYMAAAAAAAADBVAAAHgQUCAAADAiB2AAwwcLQQIKJAiVSU3DCAEAlAgAoiBkAZMoIIDLA1dGEIQxglADIyYcciICOkAQAwEQWAAAgCAGAiCwAAAAAAAAAAA==

> <PUBCHEM_IUPAC_OPENEYE_NAME>
8-[(3,5-dinitrobenzoyl)amino]naphthalene-1,3,5-trisulfonic acid

> <PUBCHEM_IUPAC_CAS_NAME>
8-[[(3,5-dinitrophenyl)-oxomethyl]amino]naphthalene-1,3,5-trisulfonic acid

> <PUBCHEM_IUPAC_NAME>
8-[(3,5-dinitrobenzoyl)amino]naphthalene-1,3,5-trisulfonic acid

> <PUBCHEM_IUPAC_SYSTEMATIC_NAME>
8-[(3,5-dinitrophenyl)carbonylamino]naphthalene-1,3,5-trisulfonic acid

> <PUBCHEM_IUPAC_TRADITIONAL_NAME>
8-[(3,5-dinitrobenzoyl)amino]naphthalene-1,3,5-trisulfonic acid

> <PUBCHEM_IUPAC_INCHI>
InChI=1S/C17H11N3O14S3/c21-17(8-3-9(19(22)23)5-10(4-8)20(24)25)18-13-1-2-14(36(29,30)31)12-6-11(35(26,27)28)7-15(16(12)13)37(32,33)34/h1-7H,(H,18,21)(H,26,27,28)(H,29,30,31)(H,32,33,34)

> <PUBCHEM_IUPAC_INCHIKEY>
CLPGUPYDQYUNGE-UHFFFAOYSA-N

> <PUBCHEM_XLOGP3_AA>
-0.1

> <PUBCHEM_EXACT_MASS>
576.940315

> <PUBCHEM_MOLECULAR_FORMULA>
C17H11N3O14S3

> <PUBCHEM_MOLECULAR_WEIGHT>
577.47594

> <PUBCHEM_OPENEYE_CAN_SMILES>
C1=CC(=C2C=C(C=C(C2=C1NC(=O)C3=CC(=CC(=C3)[N+](=O)[O-])[N+](=O)[O-])S(=O)(=O)O)S(=O)(=O)O)S(=O)(=O)O

> <PUBCHEM_OPENEYE_ISO_SMILES>
C1=CC(=C2C=C(C=C(C2=C1NC(=O)C3=CC(=CC(=C3)[N+](=O)[O-])[N+](=O)[O-])S(=O)(=O)O)S(=O)(=O)O)S(=O)(=O)O

> <PUBCHEM_CACTVS_TPSA>
309

> <PUBCHEM_MONOISOTOPIC_WEIGHT>
576.940315

> <PUBCHEM_TOTAL_CHARGE>
0

> <PUBCHEM_HEAVY_ATOM_COUNT>
37

> <PUBCHEM_ATOM_DEF_STEREO_COUNT>
0

> <PUBCHEM_ATOM_UDEF_STEREO_COUNT>
0

> <PUBCHEM_BOND_DEF_STEREO_COUNT>
0

> <PUBCHEM_BOND_UDEF_STEREO_COUNT>
0

> <PUBCHEM_ISOTOPIC_ATOM_COUNT>
0

> <PUBCHEM_COMPONENT_COUNT>
1

> <PUBCHEM_CACTVS_TAUTO_COUNT>
2

> <PUBCHEM_COORDINATE_TYPE>
1
5
255

> <PUBCHEM_BONDANNOTATIONS>
21  22  8
21  23  8
21  24  8
22  25  8
22  26  8
23  28  8
24  29  8
25  30  8
26  27  8
27  28  8
29  30  8
32  33  8
32  34  8
33  36  8
34  35  8
35  37  8
36  37  8

$$$$

