47205002
  -OEChem-06241222572D

 32 34  0     0  0  0  0  0  0999 V2000
    6.9898    2.2651    0.0000 O   0  0  0  0  0  0  0  0  0  0  0  0
    7.0468    0.1773    0.0000 O   0  0  0  0  0  0  0  0  0  0  0  0
    3.5827   -2.8227    0.0000 N   0  0  0  0  0  0  0  0  0  0  0  0
    5.3147    0.1773    0.0000 N   0  0  0  0  0  0  0  0  0  0  0  0
    2.6691   -2.4160    0.0000 N   0  0  0  0  0  0  0  0  0  0  0  0
    6.6808    3.2161    0.0000 N   0  0  0  0  0  0  0  0  0  0  0  0
    4.4487   -2.3227    0.0000 C   0  0  0  0  0  0  0  0  0  0  0  0
    5.3147   -0.8227    0.0000 C   0  0  0  0  0  0  0  0  0  0  0  0
    4.4487   -1.3227    0.0000 C   0  0  0  0  0  0  0  0  0  0  0  0
    5.3147   -2.8227    0.0000 C   0  0  0  0  0  0  0  0  0  0  0  0
    6.1808   -1.3227    0.0000 C   0  0  0  0  0  0  0  0  0  0  0  0
    6.1808   -2.3227    0.0000 C   0  0  0  0  0  0  0  0  0  0  0  0
    6.1808    0.6773    0.0000 C   0  0  0  0  0  0  0  0  0  0  0  0
    6.1808    1.6773    0.0000 C   0  0  0  0  0  0  0  0  0  0  0  0
    3.4782   -3.8172    0.0000 C   0  0  0  0  0  0  0  0  0  0  0  0
    5.3717    2.2651    0.0000 C   0  0  0  0  0  0  0  0  0  0  0  0
    5.6808    3.2161    0.0000 C   0  0  0  0  0  0  0  0  0  0  0  0
    2.5000   -4.0252    0.0000 C   0  0  0  0  0  0  0  0  0  0  0  0
    2.0000   -3.1591    0.0000 C   0  0  0  0  0  0  0  0  0  0  0  0
    5.0930    4.0252    0.0000 C   0  0  0  0  0  0  0  0  0  0  0  0
    3.9118   -1.0127    0.0000 H   0  0  0  0  0  0  0  0  0  0  0  0
    5.3147   -3.4427    0.0000 H   0  0  0  0  0  0  0  0  0  0  0  0
    6.7177   -1.0127    0.0000 H   0  0  0  0  0  0  0  0  0  0  0  0
    4.7778    0.4873    0.0000 H   0  0  0  0  0  0  0  0  0  0  0  0
    6.7177   -2.6327    0.0000 H   0  0  0  0  0  0  0  0  0  0  0  0
    3.9389   -4.2321    0.0000 H   0  0  0  0  0  0  0  0  0  0  0  0
    4.7821    2.0735    0.0000 H   0  0  0  0  0  0  0  0  0  0  0  0
    2.2478   -4.5915    0.0000 H   0  0  0  0  0  0  0  0  0  0  0  0
    1.3834   -3.0943    0.0000 H   0  0  0  0  0  0  0  0  0  0  0  0
    5.5946    4.3896    0.0000 H   0  0  0  0  0  0  0  0  0  0  0  0
    4.7285    4.5267    0.0000 H   0  0  0  0  0  0  0  0  0  0  0  0
    4.5914    3.6607    0.0000 H   0  0  0  0  0  0  0  0  0  0  0  0
  1  6  1  0  0  0  0
  1 14  1  0  0  0  0
  2 13  2  0  0  0  0
  3  5  1  0  0  0  0
  3  7  1  0  0  0  0
  3 15  1  0  0  0  0
  4  8  1  0  0  0  0
  4 13  1  0  0  0  0
  4 24  1  0  0  0  0
  5 19  2  0  0  0  0
  6 17  2  0  0  0  0
  7  9  1  0  0  0  0
  7 10  2  0  0  0  0
  8  9  2  0  0  0  0
  8 11  1  0  0  0  0
  9 21  1  0  0  0  0
 10 12  1  0  0  0  0
 10 22  1  0  0  0  0
 11 12  2  0  0  0  0
 11 23  1  0  0  0  0
 12 25  1  0  0  0  0
 13 14  1  0  0  0  0
 14 16  2  0  0  0  0
 15 18  2  0  0  0  0
 15 26  1  0  0  0  0
 16 17  1  0  0  0  0
 16 27  1  0  0  0  0
 17 20  1  0  0  0  0
 18 19  1  0  0  0  0
 18 28  1  0  0  0  0
 19 29  1  0  0  0  0
 20 30  1  0  0  0  0
 20 31  1  0  0  0  0
 20 32  1  0  0  0  0
M  END
> <PUBCHEM_COMPOUND_CID>
47205002

> <PUBCHEM_COMPOUND_CANONICALIZED>
1

> <PUBCHEM_CACTVS_COMPLEXITY>
352

> <PUBCHEM_CACTVS_HBOND_ACCEPTOR>
4

> <PUBCHEM_CACTVS_HBOND_DONOR>
1

> <PUBCHEM_CACTVS_ROTATABLE_BOND>
3

> <PUBCHEM_CACTVS_SUBSKEYS>
AAADccBzsAAAAAAAAAAAAAAAAAAAAWLAAAAwAAAAAAAAAAAB8AAAHgAcAAAACAzBlgQ+xJLYAACrAbV3VgKSBCA1ogA4mCH+bNoKJvrA1fOEtYhmnBjYycccAAAAAAAAAAQAAAAAAAAACAAAAAAAAAAAAA==

> <PUBCHEM_IUPAC_OPENEYE_NAME>
3-methyl-N-(3-pyrazol-1-ylphenyl)isoxazole-5-carboxamide

> <PUBCHEM_IUPAC_CAS_NAME>
3-methyl-N-[3-(1-pyrazolyl)phenyl]-5-isoxazolecarboxamide

> <PUBCHEM_IUPAC_NAME>
3-methyl-N-(3-pyrazol-1-ylphenyl)-1,2-oxazole-5-carboxamide

> <PUBCHEM_IUPAC_SYSTEMATIC_NAME>
3-methyl-N-(3-pyrazol-1-ylphenyl)-1,2-oxazole-5-carboxamide

> <PUBCHEM_IUPAC_TRADITIONAL_NAME>
3-methyl-N-(3-pyrazol-1-ylphenyl)isoxazole-5-carboxamide

> <PUBCHEM_IUPAC_INCHI>
InChI=1S/C14H12N4O2/c1-10-8-13(20-17-10)14(19)16-11-4-2-5-12(9-11)18-7-3-6-15-18/h2-9H,1H3,(H,16,19)

> <PUBCHEM_IUPAC_INCHIKEY>
YDHMJZNZIFGCDL-UHFFFAOYSA-N

> <PUBCHEM_XLOGP3_AA>
1.9

> <PUBCHEM_EXACT_MASS>
268.096026

> <PUBCHEM_MOLECULAR_FORMULA>
C14H12N4O2

> <PUBCHEM_MOLECULAR_WEIGHT>
268.27068

> <PUBCHEM_OPENEYE_CAN_SMILES>
CC1=NOC(=C1)C(=O)NC2=CC=CC(=C2)N3C=CC=N3

> <PUBCHEM_OPENEYE_ISO_SMILES>
CC1=NOC(=C1)C(=O)NC2=CC=CC(=C2)N3C=CC=N3

> <PUBCHEM_CACTVS_TPSA>
73

> <PUBCHEM_MONOISOTOPIC_WEIGHT>
268.096026

> <PUBCHEM_TOTAL_CHARGE>
0

> <PUBCHEM_HEAVY_ATOM_COUNT>
20

> <PUBCHEM_ATOM_DEF_STEREO_COUNT>
0

> <PUBCHEM_ATOM_UDEF_STEREO_COUNT>
0

> <PUBCHEM_BOND_DEF_STEREO_COUNT>
0

> <PUBCHEM_BOND_UDEF_STEREO_COUNT>
0

> <PUBCHEM_ISOTOPIC_ATOM_COUNT>
0

> <PUBCHEM_COMPONENT_COUNT>
1

> <PUBCHEM_CACTVS_TAUTO_COUNT>
2

> <PUBCHEM_COORDINATE_TYPE>
1
5
255

> <PUBCHEM_BONDANNOTATIONS>
1  14  8
1  6  8
10  12  8
11  12  8
14  16  8
15  18  8
16  17  8
18  19  8
3  15  8
3  5  8
5  19  8
6  17  8
7  10  8
7  9  8
8  11  8
8  9  8

$$$$

