13132
  -OEChem-06261207482D

  8  7  0     0  0  0  0  0  0999 V2000
    2.0000   -0.8170    0.0000 Cl  0  0  0  0  0  0  0  0  0  0  0  0
    2.3660    0.5490    0.0000 Cl  0  0  0  0  0  0  0  0  0  0  0  0
    3.3660   -1.1830    0.0000 F   0  0  0  0  0  0  0  0  0  0  0  0
    4.5981   -0.3170    0.0000 F   0  0  0  0  0  0  0  0  0  0  0  0
    3.7320    1.1830    0.0000 F   0  0  0  0  0  0  0  0  0  0  0  0
    2.8660   -0.3170    0.0000 C   0  0  0  0  0  0  0  0  0  0  0  0
    3.7320    0.1830    0.0000 C   0  0  0  0  0  0  0  0  0  0  0  0
    3.7320   -0.4370    0.0000 H   0  0  0  0  0  0  0  0  0  0  0  0
  1  6  1  0  0  0  0
  2  6  1  0  0  0  0
  3  6  1  0  0  0  0
  4  7  1  0  0  0  0
  5  7  1  0  0  0  0
  6  7  1  0  0  0  0
  7  8  1  0  0  0  0
M  END
> <PUBCHEM_COMPOUND_CID>
13132

> <PUBCHEM_COMPOUND_CANONICALIZED>
1

> <PUBCHEM_CACTVS_COMPLEXITY>
62

> <PUBCHEM_CACTVS_HBOND_ACCEPTOR>
3

> <PUBCHEM_CACTVS_HBOND_DONOR>
0

> <PUBCHEM_CACTVS_ROTATABLE_BOND>
1

> <PUBCHEM_CACTVS_SUBSKEYS>
AAADcQBAAYAGAAAAAAAAAAAAAAAAAAAAAAAAAAAAAAAAAAAAAAAAGQIAAAAAAAKAAJAAAAAAAAAAAAAAAAAAAAAAAAAAAAAAAAAAAAAAAAAAAAAAAAAAAAAAAAAAAAAAAAAAAAAAAAAAAAAAAAAAAAAAAA==

> <PUBCHEM_IUPAC_OPENEYE_NAME>
1,1-dichloro-1,2,2-trifluoro-ethane

> <PUBCHEM_IUPAC_CAS_NAME>
1,1-dichloro-1,2,2-trifluoroethane

> <PUBCHEM_IUPAC_NAME>
1,1-dichloro-1,2,2-trifluoroethane

> <PUBCHEM_IUPAC_SYSTEMATIC_NAME>
1,1-bis(chloranyl)-1,2,2-tris(fluoranyl)ethane

> <PUBCHEM_IUPAC_TRADITIONAL_NAME>
1,1-dichloro-1,2,2-trifluoro-ethane

> <PUBCHEM_IUPAC_INCHI>
InChI=1S/C2HCl2F3/c3-2(4,7)1(5)6/h1H

> <PUBCHEM_IUPAC_INCHIKEY>
AFTSHZRGGNMLHC-UHFFFAOYSA-N

> <PUBCHEM_XLOGP3_AA>
2.7

> <PUBCHEM_EXACT_MASS>
151.94074

> <PUBCHEM_MOLECULAR_FORMULA>
C2HCl2F3

> <PUBCHEM_MOLECULAR_WEIGHT>
152.93055

> <PUBCHEM_OPENEYE_CAN_SMILES>
C(C(F)(Cl)Cl)(F)F

> <PUBCHEM_OPENEYE_ISO_SMILES>
C(C(F)(Cl)Cl)(F)F

> <PUBCHEM_CACTVS_TPSA>
0

> <PUBCHEM_MONOISOTOPIC_WEIGHT>
151.94074

> <PUBCHEM_TOTAL_CHARGE>
0

> <PUBCHEM_HEAVY_ATOM_COUNT>
7

> <PUBCHEM_ATOM_DEF_STEREO_COUNT>
0

> <PUBCHEM_ATOM_UDEF_STEREO_COUNT>
0

> <PUBCHEM_BOND_DEF_STEREO_COUNT>
0

> <PUBCHEM_BOND_UDEF_STEREO_COUNT>
0

> <PUBCHEM_ISOTOPIC_ATOM_COUNT>
0

> <PUBCHEM_COMPONENT_COUNT>
1

> <PUBCHEM_CACTVS_TAUTO_COUNT>
1

> <PUBCHEM_COORDINATE_TYPE>
1
5
255

$$$$

