14404
  -OEChem-06241222432D

 48 49  0     0  0  0  0  0  0999 V2000
    3.6978    0.0000    0.0000 Cl  0  5  0  0  0  0  0  0  0  0  0  0
    5.3631    7.2532    0.0000 O   0  0  0  0  0  0  0  0  0  0  0  0
    3.9292    6.3523    0.0000 N   0  0  0  0  0  0  0  0  0  0  0  0
    3.6248    8.9805    0.0000 N   0  3  0  0  0  0  0  0  0  0  0  0
    4.4292    4.1616    0.0000 N   0  0  0  0  0  0  0  0  0  0  0  0
    3.4953    7.2532    0.0000 C   0  0  0  0  0  0  0  0  0  0  0  0
    4.0586    8.0795    0.0000 C   0  0  0  0  0  0  0  0  0  0  0  0
    3.3057    5.5704    0.0000 C   0  0  0  0  0  0  0  0  0  0  0  0
    3.5282    4.5955    0.0000 C   0  0  0  0  0  0  0  0  0  0  0  0
    4.9292    6.3523    0.0000 C   0  0  0  0  0  0  0  0  0  0  0  0
    5.3301    4.5955    0.0000 C   0  0  0  0  0  0  0  0  0  0  0  0
    5.5527    5.5704    0.0000 C   0  0  0  0  0  0  0  0  0  0  0  0
    3.1909    9.8814    0.0000 C   0  0  0  0  0  0  0  0  0  0  0  0
    4.5257    9.4143    0.0000 C   0  0  0  0  0  0  0  0  0  0  0  0
    2.3152    5.8928    0.0000 C   0  0  0  0  0  0  0  0  0  0  0  0
    2.7756    3.8754    0.0000 C   0  0  0  0  0  0  0  0  0  0  0  0
    1.5462    5.1902    0.0000 C   0  0  0  0  0  0  0  0  0  0  0  0
    4.4292    3.1616    0.0000 C   0  0  0  0  0  0  0  0  0  0  0  0
    1.7780    4.1747    0.0000 C   0  0  0  0  0  0  0  0  0  0  0  0
    6.0827    3.8753    0.0000 C   0  0  0  0  0  0  0  0  0  0  0  0
    6.5432    5.8928    0.0000 C   0  0  0  0  0  0  0  0  0  0  0  0
    7.0804    4.1747    0.0000 C   0  0  0  0  0  0  0  0  0  0  0  0
    7.3122    5.1902    0.0000 C   0  0  0  0  0  0  0  0  0  0  0  0
    0.5917    5.4887    0.0000 C   0  0  0  0  0  0  0  0  0  0  0  0
    3.0515    7.6862    0.0000 H   0  0  0  0  0  0  0  0  0  0  0  0
    2.9919    6.8913    0.0000 H   0  0  0  0  0  0  0  0  0  0  0  0
    4.5025    7.6466    0.0000 H   0  0  0  0  0  0  0  0  0  0  0  0
    4.5620    8.4414    0.0000 H   0  0  0  0  0  0  0  0  0  0  0  0
    3.0662    8.7114    0.0000 H   0  0  0  0  0  0  0  0  0  0  0  0
    3.7495   10.1504    0.0000 H   0  0  0  0  0  0  0  0  0  0  0  0
    2.9219   10.4400    0.0000 H   0  0  0  0  0  0  0  0  0  0  0  0
    2.6323    9.6124    0.0000 H   0  0  0  0  0  0  0  0  0  0  0  0
    4.7947    8.8557    0.0000 H   0  0  0  0  0  0  0  0  0  0  0  0
    5.0843    9.6833    0.0000 H   0  0  0  0  0  0  0  0  0  0  0  0
    4.2567    9.9729    0.0000 H   0  0  0  0  0  0  0  0  0  0  0  0
    2.1842    6.4988    0.0000 H   0  0  0  0  0  0  0  0  0  0  0  0
    2.9206    3.2725    0.0000 H   0  0  0  0  0  0  0  0  0  0  0  0
    3.8092    3.1616    0.0000 H   0  0  0  0  0  0  0  0  0  0  0  0
    4.4292    2.5416    0.0000 H   0  0  0  0  0  0  0  0  0  0  0  0
    5.0492    3.1616    0.0000 H   0  0  0  0  0  0  0  0  0  0  0  0
    1.3251    3.7512    0.0000 H   0  0  0  0  0  0  0  0  0  0  0  0
    5.9377    3.2725    0.0000 H   0  0  0  0  0  0  0  0  0  0  0  0
    6.6741    6.4988    0.0000 H   0  0  0  0  0  0  0  0  0  0  0  0
    7.5332    3.7512    0.0000 H   0  0  0  0  0  0  0  0  0  0  0  0
    7.9039    5.3752    0.0000 H   0  0  0  0  0  0  0  0  0  0  0  0
    0.7768    6.0804    0.0000 H   0  0  0  0  0  0  0  0  0  0  0  0
    0.0000    5.6737    0.0000 H   0  0  0  0  0  0  0  0  0  0  0  0
    0.4067    4.8969    0.0000 H   0  0  0  0  0  0  0  0  0  0  0  0
  2 10  2  0  0  0  0
  3  6  1  0  0  0  0
  3  8  1  0  0  0  0
  3 10  1  0  0  0  0
  4  7  1  0  0  0  0
  4 13  1  0  0  0  0
  4 14  1  0  0  0  0
  4 29  1  0  0  0  0
  5  9  1  0  0  0  0
  5 11  1  0  0  0  0
  5 18  1  0  0  0  0
  6  7  1  0  0  0  0
  6 25  1  0  0  0  0
  6 26  1  0  0  0  0
  7 27  1  0  0  0  0
  7 28  1  0  0  0  0
  8  9  2  0  0  0  0
  8 15  1  0  0  0  0
  9 16  1  0  0  0  0
 10 12  1  0  0  0  0
 11 12  1  0  0  0  0
 11 20  2  0  0  0  0
 12 21  2  0  0  0  0
 13 30  1  0  0  0  0
 13 31  1  0  0  0  0
 13 32  1  0  0  0  0
 14 33  1  0  0  0  0
 14 34  1  0  0  0  0
 14 35  1  0  0  0  0
 15 17  2  0  0  0  0
 15 36  1  0  0  0  0
 16 19  2  0  0  0  0
 16 37  1  0  0  0  0
 17 19  1  0  0  0  0
 17 24  1  0  0  0  0
 18 38  1  0  0  0  0
 18 39  1  0  0  0  0
 18 40  1  0  0  0  0
 19 41  1  0  0  0  0
 20 22  1  0  0  0  0
 20 42  1  0  0  0  0
 21 23  1  0  0  0  0
 21 43  1  0  0  0  0
 22 23  2  0  0  0  0
 22 44  1  0  0  0  0
 23 45  1  0  0  0  0
 24 46  1  0  0  0  0
 24 47  1  0  0  0  0
 24 48  1  0  0  0  0
M  CHG  2   1  -1   4   1
M  END
> <PUBCHEM_COMPOUND_CID>
14404

> <PUBCHEM_COMPOUND_CANONICALIZED>
1

> <PUBCHEM_CACTVS_COMPLEXITY>
425

> <PUBCHEM_CACTVS_HBOND_ACCEPTOR>
3

> <PUBCHEM_CACTVS_HBOND_DONOR>
1

> <PUBCHEM_CACTVS_ROTATABLE_BOND>
3

> <PUBCHEM_CACTVS_SUBSKEYS>
AAADceB7IAAEAAAAAAAAAAAAAAAAAAAAAAAwYAAABYAAAAABQAAAHgAQAAAADAjBmAQywIPAAACIAiVSUACCAAAlAgAIiIEIdMgIYHrA1ZGUIYhglgDIyccYiACOCAAAQAACACAQAACAAAQAQAAAAAAAAA==

> <PUBCHEM_IUPAC_OPENEYE_NAME>
2-(3,11-dimethyl-6-oxo-benzo[b][1,4]benzodiazepin-5-yl)ethyl-dimethyl-ammonium chloride

> <PUBCHEM_IUPAC_CAS_NAME>
2-(3,11-dimethyl-6-oxo-5-benzo[b][1,4]benzodiazepinyl)ethyl-dimethylammonium chloride

> <PUBCHEM_IUPAC_NAME>
2-(3,11-dimethyl-6-oxobenzo[b][1,4]benzodiazepin-5-yl)ethyl-dimethylazanium chloride

> <PUBCHEM_IUPAC_SYSTEMATIC_NAME>
2-(3,11-dimethyl-6-oxidanylidene-benzo[b][1,4]benzodiazepin-5-yl)ethyl-dimethyl-azanium chloride

> <PUBCHEM_IUPAC_TRADITIONAL_NAME>
2-(6-keto-3,11-dimethyl-benzo[b][1,4]benzodiazepin-5-yl)ethyl-dimethyl-ammonium chloride

> <PUBCHEM_IUPAC_INCHI>
InChI=1S/C19H23N3O.ClH/c1-14-9-10-17-18(13-14)22(12-11-20(2)3)19(23)15-7-5-6-8-16(15)21(17)4;/h5-10,13H,11-12H2,1-4H3;1H

> <PUBCHEM_IUPAC_INCHIKEY>
ZPSFYMHWJALEIJ-UHFFFAOYSA-N

> <PUBCHEM_EXACT_MASS>
345.16079

> <PUBCHEM_MOLECULAR_FORMULA>
C19H24ClN3O

> <PUBCHEM_MOLECULAR_WEIGHT>
345.86636

> <PUBCHEM_OPENEYE_CAN_SMILES>
CC1=CC2=C(C=C1)N(C3=CC=CC=C3C(=O)N2CC[NH+](C)C)C.[Cl-]

> <PUBCHEM_OPENEYE_ISO_SMILES>
CC1=CC2=C(C=C1)N(C3=CC=CC=C3C(=O)N2CC[NH+](C)C)C.[Cl-]

> <PUBCHEM_CACTVS_TPSA>
28

> <PUBCHEM_MONOISOTOPIC_WEIGHT>
345.16079

> <PUBCHEM_TOTAL_CHARGE>
0

> <PUBCHEM_HEAVY_ATOM_COUNT>
24

> <PUBCHEM_ATOM_DEF_STEREO_COUNT>
0

> <PUBCHEM_ATOM_UDEF_STEREO_COUNT>
0

> <PUBCHEM_BOND_DEF_STEREO_COUNT>
0

> <PUBCHEM_BOND_UDEF_STEREO_COUNT>
0

> <PUBCHEM_ISOTOPIC_ATOM_COUNT>
0

> <PUBCHEM_COMPONENT_COUNT>
2

> <PUBCHEM_CACTVS_TAUTO_COUNT>
1

> <PUBCHEM_COORDINATE_TYPE>
1
5
255

> <PUBCHEM_BONDANNOTATIONS>
11  12  8
11  20  8
12  21  8
15  17  8
16  19  8
17  19  8
20  22  8
21  23  8
22  23  8
8  15  8
8  9  8
9  16  8

$$$$

