4938
  -OEChem-06261200252D

 44 45  0     0  0  0  0  0  0999 V2000
    8.0622    1.5440    0.0000 O   0  0  0  0  0  0  0  0  0  0  0  0
    6.3301   -1.4560    0.0000 O   0  0  0  0  0  0  0  0  0  0  0  0
    2.8660    1.5440    0.0000 O   0  0  0  0  0  0  0  0  0  0  0  0
    7.1962    0.0440    0.0000 N   0  0  0  0  0  0  0  0  0  0  0  0
    9.8744    0.3487    0.0000 N   0  0  0  0  0  0  0  0  0  0  0  0
    8.0622   -1.4560    0.0000 N   0  0  0  0  0  0  0  0  0  0  0  0
    9.8744   -1.2607    0.0000 N   0  0  0  0  0  0  0  0  0  0  0  0
    6.3301    0.5440    0.0000 C   0  0  0  0  0  0  0  0  0  0  0  0
    8.9282    0.0440    0.0000 C   0  0  0  0  0  0  0  0  0  0  0  0
    5.4641    0.0440    0.0000 C   0  0  0  0  0  0  0  0  0  0  0  0
    8.9282   -0.9560    0.0000 C   0  0  0  0  0  0  0  0  0  0  0  0
    8.0622    0.5440    0.0000 C   0  0  0  0  0  0  0  0  0  0  0  0
    4.5981    0.5440    0.0000 C   0  0  0  0  0  0  0  0  0  0  0  0
   10.1851    1.2993    0.0000 C   0  0  0  0  0  0  0  0  0  0  0  0
    7.1962   -0.9560    0.0000 C   0  0  0  0  0  0  0  0  0  0  0  0
   10.4580   -0.4560    0.0000 C   0  0  0  0  0  0  0  0  0  0  0  0
    3.7320    0.0440    0.0000 C   0  0  0  0  0  0  0  0  0  0  0  0
   11.1636    1.5055    0.0000 C   0  0  0  0  0  0  0  0  0  0  0  0
    8.0622   -2.4560    0.0000 C   0  0  0  0  0  0  0  0  0  0  0  0
   11.4743    2.4560    0.0000 C   0  0  0  0  0  0  0  0  0  0  0  0
    2.8660    0.5440    0.0000 C   0  0  0  0  0  0  0  0  0  0  0  0
    2.0000    0.0440    0.0000 C   0  0  0  0  0  0  0  0  0  0  0  0
    6.7287    1.0190    0.0000 H   0  0  0  0  0  0  0  0  0  0  0  0
    5.9316    1.0190    0.0000 H   0  0  0  0  0  0  0  0  0  0  0  0
    5.0656   -0.4309    0.0000 H   0  0  0  0  0  0  0  0  0  0  0  0
    5.8626   -0.4309    0.0000 H   0  0  0  0  0  0  0  0  0  0  0  0
    4.9966    1.0190    0.0000 H   0  0  0  0  0  0  0  0  0  0  0  0
    4.1996    1.0190    0.0000 H   0  0  0  0  0  0  0  0  0  0  0  0
   10.1645    1.9189    0.0000 H   0  0  0  0  0  0  0  0  0  0  0  0
    9.5713    1.3866    0.0000 H   0  0  0  0  0  0  0  0  0  0  0  0
   11.0780   -0.4560    0.0000 H   0  0  0  0  0  0  0  0  0  0  0  0
    3.3335   -0.4309    0.0000 H   0  0  0  0  0  0  0  0  0  0  0  0
    4.1306   -0.4309    0.0000 H   0  0  0  0  0  0  0  0  0  0  0  0
   11.1842    0.8858    0.0000 H   0  0  0  0  0  0  0  0  0  0  0  0
   11.7774    1.4181    0.0000 H   0  0  0  0  0  0  0  0  0  0  0  0
    7.4422   -2.4560    0.0000 H   0  0  0  0  0  0  0  0  0  0  0  0
    8.0622   -3.0760    0.0000 H   0  0  0  0  0  0  0  0  0  0  0  0
    8.6822   -2.4560    0.0000 H   0  0  0  0  0  0  0  0  0  0  0  0
   12.0636    2.2634    0.0000 H   0  0  0  0  0  0  0  0  0  0  0  0
   11.6669    3.0453    0.0000 H   0  0  0  0  0  0  0  0  0  0  0  0
   10.8849    2.6486    0.0000 H   0  0  0  0  0  0  0  0  0  0  0  0
    1.6900    0.5809    0.0000 H   0  0  0  0  0  0  0  0  0  0  0  0
    1.4631   -0.2660    0.0000 H   0  0  0  0  0  0  0  0  0  0  0  0
    2.3100   -0.4929    0.0000 H   0  0  0  0  0  0  0  0  0  0  0  0
  1 12  2  0  0  0  0
  2 15  2  0  0  0  0
  3 21  2  0  0  0  0
  4  8  1  0  0  0  0
  4 12  1  0  0  0  0
  4 15  1  0  0  0  0
  5  9  1  0  0  0  0
  5 14  1  0  0  0  0
  5 16  1  0  0  0  0
  6 11  1  0  0  0  0
  6 15  1  0  0  0  0
  6 19  1  0  0  0  0
  7 11  1  0  0  0  0
  7 16  2  0  0  0  0
  8 10  1  0  0  0  0
  8 23  1  0  0  0  0
  8 24  1  0  0  0  0
  9 11  2  0  0  0  0
  9 12  1  0  0  0  0
 10 13  1  0  0  0  0
 10 25  1  0  0  0  0
 10 26  1  0  0  0  0
 13 17  1  0  0  0  0
 13 27  1  0  0  0  0
 13 28  1  0  0  0  0
 14 18  1  0  0  0  0
 14 29  1  0  0  0  0
 14 30  1  0  0  0  0
 16 31  1  0  0  0  0
 17 21  1  0  0  0  0
 17 32  1  0  0  0  0
 17 33  1  0  0  0  0
 18 20  1  0  0  0  0
 18 34  1  0  0  0  0
 18 35  1  0  0  0  0
 19 36  1  0  0  0  0
 19 37  1  0  0  0  0
 19 38  1  0  0  0  0
 20 39  1  0  0  0  0
 20 40  1  0  0  0  0
 20 41  1  0  0  0  0
 21 22  1  0  0  0  0
 22 42  1  0  0  0  0
 22 43  1  0  0  0  0
 22 44  1  0  0  0  0
M  END
> <PUBCHEM_COMPOUND_CID>
4938

> <PUBCHEM_COMPOUND_CANONICALIZED>
1

> <PUBCHEM_CACTVS_COMPLEXITY>
454

> <PUBCHEM_CACTVS_HBOND_ACCEPTOR>
4

> <PUBCHEM_CACTVS_HBOND_DONOR>
0

> <PUBCHEM_CACTVS_ROTATABLE_BOND>
7

> <PUBCHEM_CACTVS_SUBSKEYS>
AAADceBzsAAAAAAAAAAAAAAAAAAAAWAAAAAsAAAAAAAAAFgBgAAAHgAAAAAACAzBlgQHsBcMEACoAYdxdACAgC0XEKABUAGoVECASBpAyCAUAIgIByLAAGEYAQAAAAAAAAAAAAAAAAAAAAAAAAAAAAAAAA==

> <PUBCHEM_IUPAC_OPENEYE_NAME>
3-methyl-1-(5-oxohexyl)-7-propyl-purine-2,6-dione

> <PUBCHEM_IUPAC_CAS_NAME>
3-methyl-1-(5-oxohexyl)-7-propylpurine-2,6-dione

> <PUBCHEM_IUPAC_NAME>
3-methyl-1-(5-oxohexyl)-7-propylpurine-2,6-dione

> <PUBCHEM_IUPAC_SYSTEMATIC_NAME>
3-methyl-1-(5-oxidanylidenehexyl)-7-propyl-purine-2,6-dione

> <PUBCHEM_IUPAC_TRADITIONAL_NAME>
1-(5-ketohexyl)-3-methyl-7-propyl-xanthine

> <PUBCHEM_IUPAC_INCHI>
InChI=1S/C15H22N4O3/c1-4-8-18-10-16-13-12(18)14(21)19(15(22)17(13)3)9-6-5-7-11(2)20/h10H,4-9H2,1-3H3

> <PUBCHEM_IUPAC_INCHIKEY>
RBQOQRRFDPXAGN-UHFFFAOYSA-N

> <PUBCHEM_XLOGP3>
0.7

> <PUBCHEM_EXACT_MASS>
306.169191

> <PUBCHEM_MOLECULAR_FORMULA>
C15H22N4O3

> <PUBCHEM_MOLECULAR_WEIGHT>
306.36018

> <PUBCHEM_OPENEYE_CAN_SMILES>
CCCN1C=NC2=C1C(=O)N(C(=O)N2C)CCCCC(=O)C

> <PUBCHEM_OPENEYE_ISO_SMILES>
CCCN1C=NC2=C1C(=O)N(C(=O)N2C)CCCCC(=O)C

> <PUBCHEM_CACTVS_TPSA>
75.5

> <PUBCHEM_MONOISOTOPIC_WEIGHT>
306.169191

> <PUBCHEM_TOTAL_CHARGE>
0

> <PUBCHEM_HEAVY_ATOM_COUNT>
22

> <PUBCHEM_ATOM_DEF_STEREO_COUNT>
0

> <PUBCHEM_ATOM_UDEF_STEREO_COUNT>
0

> <PUBCHEM_BOND_DEF_STEREO_COUNT>
0

> <PUBCHEM_BOND_UDEF_STEREO_COUNT>
0

> <PUBCHEM_ISOTOPIC_ATOM_COUNT>
0

> <PUBCHEM_COMPONENT_COUNT>
1

> <PUBCHEM_CACTVS_TAUTO_COUNT>
3

> <PUBCHEM_COORDINATE_TYPE>
1
5
255

> <PUBCHEM_BONDANNOTATIONS>
4  12  8
4  15  8
5  16  8
5  9  8
6  11  8
6  15  8
7  11  8
7  16  8
9  11  8
9  12  8

$$$$

