17395631
  -OEChem-06241222512D

 43 44  0     1  0  0  0  0  0999 V2000
    4.5981    1.7875    0.0000 S   0  0  0  0  0  0  0  0  0  0  0  0
    2.8660    0.7875    0.0000 O   0  0  0  0  0  0  0  0  0  0  0  0
    2.0000   -3.7125    0.0000 O   0  0  0  0  0  0  0  0  0  0  0  0
    7.0468    2.6239    0.0000 N   0  0  0  0  0  0  0  0  0  0  0  0
    5.5686    3.2820    0.0000 N   0  0  0  0  0  0  0  0  0  0  0  0
    6.3776    1.8808    0.0000 N   0  0  0  0  0  0  0  0  0  0  0  0
    3.7320   -3.7125    0.0000 N   0  0  0  0  0  0  0  0  0  0  0  0
    6.9535    4.4035    0.0000 C   0  0  0  0  0  0  0  0  0  0  0  0
    6.5468    3.4899    0.0000 C   0  0  0  0  0  0  0  0  0  0  0  0
    4.5981    0.7875    0.0000 C   0  0  3  0  0  0  0  0  0  0  0  0
    6.3657    5.2125    0.0000 C   0  0  0  0  0  0  0  0  0  0  0  0
    7.9480    4.5080    0.0000 C   0  0  0  0  0  0  0  0  0  0  0  0
    3.7320    0.2875    0.0000 C   0  0  0  0  0  0  0  0  0  0  0  0
    3.7320   -0.7125    0.0000 C   0  0  0  0  0  0  0  0  0  0  0  0
    5.4641    2.2875    0.0000 C   0  0  0  0  0  0  0  0  0  0  0  0
    5.4641    0.2875    0.0000 C   0  0  0  0  0  0  0  0  0  0  0  0
    2.8660   -1.2125    0.0000 C   0  0  0  0  0  0  0  0  0  0  0  0
    4.5981   -1.2125    0.0000 C   0  0  0  0  0  0  0  0  0  0  0  0
    3.7320   -2.7125    0.0000 C   0  0  0  0  0  0  0  0  0  0  0  0
    2.8660   -2.2125    0.0000 C   0  0  0  0  0  0  0  0  0  0  0  0
    4.5981   -2.2125    0.0000 C   0  0  0  0  0  0  0  0  0  0  0  0
    2.8660   -4.2125    0.0000 C   0  0  0  0  0  0  0  0  0  0  0  0
    2.8660   -5.2125    0.0000 C   0  0  0  0  0  0  0  0  0  0  0  0
    6.3369    4.3387    0.0000 H   0  0  0  0  0  0  0  0  0  0  0  0
    5.1350    1.0975    0.0000 H   0  0  0  0  0  0  0  0  0  0  0  0
    8.0128    3.8914    0.0000 H   0  0  0  0  0  0  0  0  0  0  0  0
    6.8673    5.5769    0.0000 H   0  0  0  0  0  0  0  0  0  0  0  0
    6.0013    5.7141    0.0000 H   0  0  0  0  0  0  0  0  0  0  0  0
    5.8641    4.8481    0.0000 H   0  0  0  0  0  0  0  0  0  0  0  0
    8.5646    4.5728    0.0000 H   0  0  0  0  0  0  0  0  0  0  0  0
    7.8832    5.1246    0.0000 H   0  0  0  0  0  0  0  0  0  0  0  0
    7.6634    2.5591    0.0000 H   0  0  0  0  0  0  0  0  0  0  0  0
    5.1541   -0.2494    0.0000 H   0  0  0  0  0  0  0  0  0  0  0  0
    6.0010   -0.0225    0.0000 H   0  0  0  0  0  0  0  0  0  0  0  0
    5.7741    0.8244    0.0000 H   0  0  0  0  0  0  0  0  0  0  0  0
    2.3291   -0.9025    0.0000 H   0  0  0  0  0  0  0  0  0  0  0  0
    5.1350   -0.9025    0.0000 H   0  0  0  0  0  0  0  0  0  0  0  0
    2.3291   -2.5225    0.0000 H   0  0  0  0  0  0  0  0  0  0  0  0
    5.1350   -2.5225    0.0000 H   0  0  0  0  0  0  0  0  0  0  0  0
    4.2690   -4.0225    0.0000 H   0  0  0  0  0  0  0  0  0  0  0  0
    2.2460   -5.2125    0.0000 H   0  0  0  0  0  0  0  0  0  0  0  0
    2.8660   -5.8325    0.0000 H   0  0  0  0  0  0  0  0  0  0  0  0
    3.4860   -5.2125    0.0000 H   0  0  0  0  0  0  0  0  0  0  0  0
  1 10  1  0  0  0  0
  1 15  1  0  0  0  0
  2 13  2  0  0  0  0
  3 22  2  0  0  0  0
  4  6  1  0  0  0  0
  4  9  1  0  0  0  0
  4 32  1  0  0  0  0
  5  9  2  0  0  0  0
  5 15  1  0  0  0  0
  6 15  2  0  0  0  0
  7 19  1  0  0  0  0
  7 22  1  0  0  0  0
  7 40  1  0  0  0  0
  8  9  1  0  0  0  0
  8 11  1  0  0  0  0
  8 12  1  0  0  0  0
  8 24  1  0  0  0  0
 10 13  1  0  0  0  0
 10 16  1  0  0  0  0
 10 25  1  0  0  0  0
 11 27  1  0  0  0  0
 11 28  1  0  0  0  0
 11 29  1  0  0  0  0
 12 26  1  0  0  0  0
 12 30  1  0  0  0  0
 12 31  1  0  0  0  0
 13 14  1  0  0  0  0
 14 17  2  0  0  0  0
 14 18  1  0  0  0  0
 16 33  1  0  0  0  0
 16 34  1  0  0  0  0
 16 35  1  0  0  0  0
 17 20  1  0  0  0  0
 17 36  1  0  0  0  0
 18 21  2  0  0  0  0
 18 37  1  0  0  0  0
 19 20  2  0  0  0  0
 19 21  1  0  0  0  0
 20 38  1  0  0  0  0
 21 39  1  0  0  0  0
 22 23  1  0  0  0  0
 23 41  1  0  0  0  0
 23 42  1  0  0  0  0
 23 43  1  0  0  0  0
M  END
> <PUBCHEM_COMPOUND_CID>
17395631

> <PUBCHEM_COMPOUND_CANONICALIZED>
1

> <PUBCHEM_CACTVS_COMPLEXITY>
424

> <PUBCHEM_CACTVS_HBOND_ACCEPTOR>
5

> <PUBCHEM_CACTVS_HBOND_DONOR>
2

> <PUBCHEM_CACTVS_ROTATABLE_BOND>
6

> <PUBCHEM_CACTVS_SUBSKEYS>
AAADceB7sABAAAAAAAAAAAAAAAAAAWAAAAAwAAAAAAAAAAABwAAAHgQYAAAADQyF2wCz0IbrEAiqAqdydACS0AvlArAdqAEwZMiIKDLgnZGEIQhgnALIyYcYiYCeCAAAAAAAAAAQAAAAAAAAAAAAAAAAAA==

> <PUBCHEM_IUPAC_OPENEYE_NAME>
N-[4-[2-[(5-isopropyl-1H-1,2,4-triazol-3-yl)sulfanyl]propanoyl]phenyl]acetamide

> <PUBCHEM_IUPAC_CAS_NAME>
N-[4-[1-oxo-2-[(5-propan-2-yl-1H-1,2,4-triazol-3-yl)thio]propyl]phenyl]acetamide

> <PUBCHEM_IUPAC_NAME>
N-[4-[2-[(5-propan-2-yl-1H-1,2,4-triazol-3-yl)sulfanyl]propanoyl]phenyl]acetamide

> <PUBCHEM_IUPAC_SYSTEMATIC_NAME>
N-[4-[2-[(5-propan-2-yl-1H-1,2,4-triazol-3-yl)sulfanyl]propanoyl]phenyl]ethanamide

> <PUBCHEM_IUPAC_TRADITIONAL_NAME>
N-[4-[2-[(5-isopropyl-1H-1,2,4-triazol-3-yl)thio]propanoyl]phenyl]acetamide

> <PUBCHEM_IUPAC_INCHI>
InChI=1S/C16H20N4O2S/c1-9(2)15-18-16(20-19-15)23-10(3)14(22)12-5-7-13(8-6-12)17-11(4)21/h5-10H,1-4H3,(H,17,21)(H,18,19,20)

> <PUBCHEM_IUPAC_INCHIKEY>
IKITYAZUTKXNLS-UHFFFAOYSA-N

> <PUBCHEM_XLOGP3_AA>
3

> <PUBCHEM_EXACT_MASS>
332.130697

> <PUBCHEM_MOLECULAR_FORMULA>
C16H20N4O2S

> <PUBCHEM_MOLECULAR_WEIGHT>
332.4206

> <PUBCHEM_OPENEYE_CAN_SMILES>
CC(C)C1=NC(=NN1)SC(C)C(=O)C2=CC=C(C=C2)NC(=O)C

> <PUBCHEM_OPENEYE_ISO_SMILES>
CC(C)C1=NC(=NN1)SC(C)C(=O)C2=CC=C(C=C2)NC(=O)C

> <PUBCHEM_CACTVS_TPSA>
113

> <PUBCHEM_MONOISOTOPIC_WEIGHT>
332.130697

> <PUBCHEM_TOTAL_CHARGE>
0

> <PUBCHEM_HEAVY_ATOM_COUNT>
23

> <PUBCHEM_ATOM_DEF_STEREO_COUNT>
0

> <PUBCHEM_ATOM_UDEF_STEREO_COUNT>
1

> <PUBCHEM_BOND_DEF_STEREO_COUNT>
0

> <PUBCHEM_BOND_UDEF_STEREO_COUNT>
0

> <PUBCHEM_ISOTOPIC_ATOM_COUNT>
0

> <PUBCHEM_COMPONENT_COUNT>
1

> <PUBCHEM_CACTVS_TAUTO_COUNT>
80

> <PUBCHEM_COORDINATE_TYPE>
1
5
255

> <PUBCHEM_BONDANNOTATIONS>
10  16  3
14  17  8
14  18  8
17  20  8
18  21  8
19  20  8
19  21  8
4  6  8
4  9  8
5  15  8
5  9  8
6  15  8

$$$$

