5227
  -OEChem-06261200352D

 28 27  0     0  0  0  0  0  0999 V2000
    7.1962    0.5950    0.0000 S   0  0  0  0  0  0  0  0  0  0  0  0
    2.8660    0.0950    0.0000 N   0  0  0  0  0  0  0  0  0  0  0  0
    8.9282    0.5950    0.0000 N   0  0  0  0  0  0  0  0  0  0  0  0
    8.0622   -0.9050    0.0000 N   0  0  0  0  0  0  0  0  0  0  0  0
    4.5981    0.0950    0.0000 C   0  0  0  0  0  0  0  0  0  0  0  0
    3.7320    0.5950    0.0000 C   0  0  0  0  0  0  0  0  0  0  0  0
    5.4641    0.5950    0.0000 C   0  0  0  0  0  0  0  0  0  0  0  0
    6.3301    0.0950    0.0000 C   0  0  0  0  0  0  0  0  0  0  0  0
    2.0000    0.5950    0.0000 C   0  0  0  0  0  0  0  0  0  0  0  0
    2.8660   -0.9050    0.0000 C   0  0  0  0  0  0  0  0  0  0  0  0
    8.0622    0.0950    0.0000 C   0  0  0  0  0  0  0  0  0  0  0  0
    4.1996   -0.3799    0.0000 H   0  0  0  0  0  0  0  0  0  0  0  0
    4.9966   -0.3799    0.0000 H   0  0  0  0  0  0  0  0  0  0  0  0
    4.1306    1.0700    0.0000 H   0  0  0  0  0  0  0  0  0  0  0  0
    3.3335    1.0700    0.0000 H   0  0  0  0  0  0  0  0  0  0  0  0
    5.8626    1.0700    0.0000 H   0  0  0  0  0  0  0  0  0  0  0  0
    5.0656    1.0700    0.0000 H   0  0  0  0  0  0  0  0  0  0  0  0
    5.9316   -0.3799    0.0000 H   0  0  0  0  0  0  0  0  0  0  0  0
    6.7287   -0.3799    0.0000 H   0  0  0  0  0  0  0  0  0  0  0  0
    2.3100    1.1319    0.0000 H   0  0  0  0  0  0  0  0  0  0  0  0
    1.4631    0.9050    0.0000 H   0  0  0  0  0  0  0  0  0  0  0  0
    1.6900    0.0581    0.0000 H   0  0  0  0  0  0  0  0  0  0  0  0
    2.2460   -0.9050    0.0000 H   0  0  0  0  0  0  0  0  0  0  0  0
    2.8660   -1.5250    0.0000 H   0  0  0  0  0  0  0  0  0  0  0  0
    3.4860   -0.9050    0.0000 H   0  0  0  0  0  0  0  0  0  0  0  0
    9.4651    0.2850    0.0000 H   0  0  0  0  0  0  0  0  0  0  0  0
    8.9282    1.2150    0.0000 H   0  0  0  0  0  0  0  0  0  0  0  0
    7.5252   -1.2150    0.0000 H   0  0  0  0  0  0  0  0  0  0  0  0
  1  8  1  0  0  0  0
  1 11  1  0  0  0  0
  2  6  1  0  0  0  0
  2  9  1  0  0  0  0
  2 10  1  0  0  0  0
  3 11  1  0  0  0  0
  3 26  1  0  0  0  0
  3 27  1  0  0  0  0
  4 11  2  0  0  0  0
  4 28  1  0  0  0  0
  5  6  1  0  0  0  0
  5  7  1  0  0  0  0
  5 12  1  0  0  0  0
  5 13  1  0  0  0  0
  6 14  1  0  0  0  0
  6 15  1  0  0  0  0
  7  8  1  0  0  0  0
  7 16  1  0  0  0  0
  7 17  1  0  0  0  0
  8 18  1  0  0  0  0
  8 19  1  0  0  0  0
  9 20  1  0  0  0  0
  9 21  1  0  0  0  0
  9 22  1  0  0  0  0
 10 23  1  0  0  0  0
 10 24  1  0  0  0  0
 10 25  1  0  0  0  0
M  END
> <PUBCHEM_COMPOUND_CID>
5227

> <PUBCHEM_COMPOUND_CANONICALIZED>
1

> <PUBCHEM_CACTVS_COMPLEXITY>
114

> <PUBCHEM_CACTVS_HBOND_ACCEPTOR>
3

> <PUBCHEM_CACTVS_HBOND_DONOR>
2

> <PUBCHEM_CACTVS_ROTATABLE_BOND>
6

> <PUBCHEM_CACTVS_SUBSKEYS>
AAADceBjAABAAAAAAAAAAAAAAAAAAAAAAAAAAAAAAAAAAAAAAAAAHAQQAAAACADFQASDAANAAAggAAAAIAAAAgDAABAAAAAIAAAAAAAggAAEAAAAAAAAAAAAAAAAAAAAAAAAAAAAAAAAAAAAAAAAAAAAAA==

> <PUBCHEM_IUPAC_OPENEYE_NAME>
2-[4-(dimethylamino)butyl]isothiourea

> <PUBCHEM_IUPAC_CAS_NAME>
carbamimidothioic acid 4-(dimethylamino)butyl ester

> <PUBCHEM_IUPAC_NAME>
4-(dimethylamino)butyl carbamimidothioate

> <PUBCHEM_IUPAC_SYSTEMATIC_NAME>
4-(dimethylamino)butyl carbamimidothioate

> <PUBCHEM_IUPAC_TRADITIONAL_NAME>
2-[4-(dimethylamino)butyl]isothiourea

> <PUBCHEM_IUPAC_INCHI>
InChI=1S/C7H17N3S/c1-10(2)5-3-4-6-11-7(8)9/h3-6H2,1-2H3,(H3,8,9)

> <PUBCHEM_IUPAC_INCHIKEY>
UFYJLJINUGVUHO-UHFFFAOYSA-N

> <PUBCHEM_XLOGP3_AA>
0.9

> <PUBCHEM_EXACT_MASS>
175.114319

> <PUBCHEM_MOLECULAR_FORMULA>
C7H17N3S

> <PUBCHEM_MOLECULAR_WEIGHT>
175.29498

> <PUBCHEM_OPENEYE_CAN_SMILES>
CN(C)CCCCSC(=N)N

> <PUBCHEM_OPENEYE_ISO_SMILES>
CN(C)CCCCSC(=N)N

> <PUBCHEM_CACTVS_TPSA>
78.4

> <PUBCHEM_MONOISOTOPIC_WEIGHT>
175.114319

> <PUBCHEM_TOTAL_CHARGE>
0

> <PUBCHEM_HEAVY_ATOM_COUNT>
11

> <PUBCHEM_ATOM_DEF_STEREO_COUNT>
0

> <PUBCHEM_ATOM_UDEF_STEREO_COUNT>
0

> <PUBCHEM_BOND_DEF_STEREO_COUNT>
0

> <PUBCHEM_BOND_UDEF_STEREO_COUNT>
0

> <PUBCHEM_ISOTOPIC_ATOM_COUNT>
0

> <PUBCHEM_COMPONENT_COUNT>
1

> <PUBCHEM_CACTVS_TAUTO_COUNT>
1

> <PUBCHEM_COORDINATE_TYPE>
1
5
255

$$$$

