17395634
  -OEChem-06241222512D

 61 63  0     0  0  0  0  0  0999 V2000
    3.7320    2.6547    0.0000 S   0  0  0  0  0  0  0  0  0  0  0  0
    2.7320    2.6547    0.0000 O   0  0  0  0  0  0  0  0  0  0  0  0
    4.7320    2.6547    0.0000 O   0  0  0  0  0  0  0  0  0  0  0  0
    6.3301   -2.8453    0.0000 O   0  0  0  0  0  0  0  0  0  0  0  0
    4.5981   -1.8453    0.0000 O   0  0  0  0  0  0  0  0  0  0  0  0
    6.3301   -4.8453    0.0000 O   0  0  0  0  0  0  0  0  0  0  0  0
    3.7320    3.6547    0.0000 N   0  0  0  0  0  0  0  0  0  0  0  0
    5.4641   -0.3453    0.0000 N   0  0  0  0  0  0  0  0  0  0  0  0
    2.8311    4.0886    0.0000 C   0  0  0  0  0  0  0  0  0  0  0  0
    4.6330    4.0886    0.0000 C   0  0  0  0  0  0  0  0  0  0  0  0
    2.6086    5.0635    0.0000 C   0  0  0  0  0  0  0  0  0  0  0  0
    4.8555    5.0635    0.0000 C   0  0  0  0  0  0  0  0  0  0  0  0
    4.2320    5.8453    0.0000 C   0  0  0  0  0  0  0  0  0  0  0  0
    3.2320    5.8453    0.0000 C   0  0  0  0  0  0  0  0  0  0  0  0
    3.7320    1.6547    0.0000 C   0  0  0  0  0  0  0  0  0  0  0  0
    2.8660    1.1547    0.0000 C   0  0  0  0  0  0  0  0  0  0  0  0
    4.5981    1.1547    0.0000 C   0  0  0  0  0  0  0  0  0  0  0  0
    4.5981    0.1547    0.0000 C   0  0  0  0  0  0  0  0  0  0  0  0
    2.8660    0.1547    0.0000 C   0  0  0  0  0  0  0  0  0  0  0  0
    2.0000    1.6547    0.0000 C   0  0  0  0  0  0  0  0  0  0  0  0
    3.7320   -0.3453    0.0000 C   0  0  0  0  0  0  0  0  0  0  0  0
    5.4641   -1.3453    0.0000 C   0  0  0  0  0  0  0  0  0  0  0  0
    6.3301   -1.8453    0.0000 C   0  0  0  0  0  0  0  0  0  0  0  0
    7.1962   -3.3453    0.0000 C   0  0  0  0  0  0  0  0  0  0  0  0
    7.1962   -4.3453    0.0000 C   0  0  0  0  0  0  0  0  0  0  0  0
    8.9282   -4.3453    0.0000 C   0  0  0  0  0  0  0  0  0  0  0  0
    8.0622   -2.8453    0.0000 C   0  0  0  0  0  0  0  0  0  0  0  0
    8.0622   -4.8453    0.0000 C   0  0  0  0  0  0  0  0  0  0  0  0
    8.9282   -3.3453    0.0000 C   0  0  0  0  0  0  0  0  0  0  0  0
    9.7942   -4.8453    0.0000 C   0  0  0  0  0  0  0  0  0  0  0  0
    6.3301   -5.8453    0.0000 C   0  0  0  0  0  0  0  0  0  0  0  0
    4.7710    3.4841    0.0000 H   0  0  0  0  0  0  0  0  0  0  0  0
    5.2530    4.0886    0.0000 H   0  0  0  0  0  0  0  0  0  0  0  0
    2.2111    4.0886    0.0000 H   0  0  0  0  0  0  0  0  0  0  0  0
    2.6931    3.4841    0.0000 H   0  0  0  0  0  0  0  0  0  0  0  0
    5.4141    4.7945    0.0000 H   0  0  0  0  0  0  0  0  0  0  0  0
    5.2421    5.5482    0.0000 H   0  0  0  0  0  0  0  0  0  0  0  0
    2.2220    5.5482    0.0000 H   0  0  0  0  0  0  0  0  0  0  0  0
    2.0500    4.7945    0.0000 H   0  0  0  0  0  0  0  0  0  0  0  0
    4.7906    6.1143    0.0000 H   0  0  0  0  0  0  0  0  0  0  0  0
    4.0941    6.4498    0.0000 H   0  0  0  0  0  0  0  0  0  0  0  0
    3.3700    6.4498    0.0000 H   0  0  0  0  0  0  0  0  0  0  0  0
    2.6734    6.1143    0.0000 H   0  0  0  0  0  0  0  0  0  0  0  0
    5.1350    1.4647    0.0000 H   0  0  0  0  0  0  0  0  0  0  0  0
    2.3291   -0.1553    0.0000 H   0  0  0  0  0  0  0  0  0  0  0  0
    2.3100    2.1916    0.0000 H   0  0  0  0  0  0  0  0  0  0  0  0
    1.4631    1.9647    0.0000 H   0  0  0  0  0  0  0  0  0  0  0  0
    1.6900    1.1177    0.0000 H   0  0  0  0  0  0  0  0  0  0  0  0
    3.7320   -0.9653    0.0000 H   0  0  0  0  0  0  0  0  0  0  0  0
    6.0010   -0.0353    0.0000 H   0  0  0  0  0  0  0  0  0  0  0  0
    6.9407   -1.9530    0.0000 H   0  0  0  0  0  0  0  0  0  0  0  0
    6.5422   -1.2627    0.0000 H   0  0  0  0  0  0  0  0  0  0  0  0
    8.0622   -2.2253    0.0000 H   0  0  0  0  0  0  0  0  0  0  0  0
    8.0622   -5.4653    0.0000 H   0  0  0  0  0  0  0  0  0  0  0  0
    9.4651   -3.0353    0.0000 H   0  0  0  0  0  0  0  0  0  0  0  0
    9.4842   -5.3823    0.0000 H   0  0  0  0  0  0  0  0  0  0  0  0
   10.3312   -5.1553    0.0000 H   0  0  0  0  0  0  0  0  0  0  0  0
   10.1042   -4.3084    0.0000 H   0  0  0  0  0  0  0  0  0  0  0  0
    5.7101   -5.8453    0.0000 H   0  0  0  0  0  0  0  0  0  0  0  0
    6.3301   -6.4653    0.0000 H   0  0  0  0  0  0  0  0  0  0  0  0
    6.9501   -5.8453    0.0000 H   0  0  0  0  0  0  0  0  0  0  0  0
  1  2  2  0  0  0  0
  1  3  2  0  0  0  0
  1  7  1  0  0  0  0
  1 15  1  0  0  0  0
  4 23  1  0  0  0  0
  4 24  1  0  0  0  0
  5 22  2  0  0  0  0
  6 25  1  0  0  0  0
  6 31  1  0  0  0  0
  7  9  1  0  0  0  0
  7 10  1  0  0  0  0
  8 18  1  0  0  0  0
  8 22  1  0  0  0  0
  8 50  1  0  0  0  0
  9 11  1  0  0  0  0
  9 34  1  0  0  0  0
  9 35  1  0  0  0  0
 10 12  1  0  0  0  0
 10 32  1  0  0  0  0
 10 33  1  0  0  0  0
 11 14  1  0  0  0  0
 11 38  1  0  0  0  0
 11 39  1  0  0  0  0
 12 13  1  0  0  0  0
 12 36  1  0  0  0  0
 12 37  1  0  0  0  0
 13 14  1  0  0  0  0
 13 40  1  0  0  0  0
 13 41  1  0  0  0  0
 14 42  1  0  0  0  0
 14 43  1  0  0  0  0
 15 16  2  0  0  0  0
 15 17  1  0  0  0  0
 16 19  1  0  0  0  0
 16 20  1  0  0  0  0
 17 18  2  0  0  0  0
 17 44  1  0  0  0  0
 18 21  1  0  0  0  0
 19 21  2  0  0  0  0
 19 45  1  0  0  0  0
 20 46  1  0  0  0  0
 20 47  1  0  0  0  0
 20 48  1  0  0  0  0
 21 49  1  0  0  0  0
 22 23  1  0  0  0  0
 23 51  1  0  0  0  0
 23 52  1  0  0  0  0
 24 25  2  0  0  0  0
 24 27  1  0  0  0  0
 25 28  1  0  0  0  0
 26 28  2  0  0  0  0
 26 29  1  0  0  0  0
 26 30  1  0  0  0  0
 27 29  2  0  0  0  0
 27 53  1  0  0  0  0
 28 54  1  0  0  0  0
 29 55  1  0  0  0  0
 30 56  1  0  0  0  0
 30 57  1  0  0  0  0
 30 58  1  0  0  0  0
 31 59  1  0  0  0  0
 31 60  1  0  0  0  0
 31 61  1  0  0  0  0
M  END
> <PUBCHEM_COMPOUND_CID>
17395634

> <PUBCHEM_COMPOUND_CANONICALIZED>
1

> <PUBCHEM_CACTVS_COMPLEXITY>
672

> <PUBCHEM_CACTVS_HBOND_ACCEPTOR>
6

> <PUBCHEM_CACTVS_HBOND_DONOR>
1

> <PUBCHEM_CACTVS_ROTATABLE_BOND>
7

> <PUBCHEM_CACTVS_SUBSKEYS>
AAADceB7OABAAAAAAAAAAAAAAAAAAAAAAAAwYAAABYAAAAABQAAAHgQQQAAADAzh2AYyx4LABAKIAiVSUHLCCBAhIgAIiBhO7IgPJiLEsZ+HOC7k1BHa6AeQwBAOKAABACAEQABQAAIAQAiAAAAAAAAAAA==

> <PUBCHEM_IUPAC_OPENEYE_NAME>
N-[3-(azepan-1-ylsulfonyl)-4-methyl-phenyl]-2-(2-methoxy-4-methyl-phenoxy)acetamide

> <PUBCHEM_IUPAC_CAS_NAME>
N-[3-(1-azepanylsulfonyl)-4-methylphenyl]-2-(2-methoxy-4-methylphenoxy)acetamide

> <PUBCHEM_IUPAC_NAME>
N-[3-(azepan-1-ylsulfonyl)-4-methylphenyl]-2-(2-methoxy-4-methylphenoxy)acetamide

> <PUBCHEM_IUPAC_SYSTEMATIC_NAME>
N-[3-(azepan-1-ylsulfonyl)-4-methyl-phenyl]-2-(2-methoxy-4-methyl-phenoxy)ethanamide

> <PUBCHEM_IUPAC_TRADITIONAL_NAME>
N-[3-(azepan-1-ylsulfonyl)-4-methyl-phenyl]-2-(2-methoxy-4-methyl-phenoxy)acetamide

> <PUBCHEM_IUPAC_INCHI>
InChI=1S/C23H30N2O5S/c1-17-8-11-20(21(14-17)29-3)30-16-23(26)24-19-10-9-18(2)22(15-19)31(27,28)25-12-6-4-5-7-13-25/h8-11,14-15H,4-7,12-13,16H2,1-3H3,(H,24,26)

> <PUBCHEM_IUPAC_INCHIKEY>
LEJMDOUHRLZYJK-UHFFFAOYSA-N

> <PUBCHEM_XLOGP3_AA>
3.8

> <PUBCHEM_EXACT_MASS>
446.187543

> <PUBCHEM_MOLECULAR_FORMULA>
C23H30N2O5S

> <PUBCHEM_MOLECULAR_WEIGHT>
446.5597

> <PUBCHEM_OPENEYE_CAN_SMILES>
CC1=CC(=C(C=C1)OCC(=O)NC2=CC(=C(C=C2)C)S(=O)(=O)N3CCCCCC3)OC

> <PUBCHEM_OPENEYE_ISO_SMILES>
CC1=CC(=C(C=C1)OCC(=O)NC2=CC(=C(C=C2)C)S(=O)(=O)N3CCCCCC3)OC

> <PUBCHEM_CACTVS_TPSA>
93.3

> <PUBCHEM_MONOISOTOPIC_WEIGHT>
446.187543

> <PUBCHEM_TOTAL_CHARGE>
0

> <PUBCHEM_HEAVY_ATOM_COUNT>
31

> <PUBCHEM_ATOM_DEF_STEREO_COUNT>
0

> <PUBCHEM_ATOM_UDEF_STEREO_COUNT>
0

> <PUBCHEM_BOND_DEF_STEREO_COUNT>
0

> <PUBCHEM_BOND_UDEF_STEREO_COUNT>
0

> <PUBCHEM_ISOTOPIC_ATOM_COUNT>
0

> <PUBCHEM_COMPONENT_COUNT>
1

> <PUBCHEM_CACTVS_TAUTO_COUNT>
3

> <PUBCHEM_COORDINATE_TYPE>
1
5
255

> <PUBCHEM_BONDANNOTATIONS>
15  16  8
15  17  8
16  19  8
17  18  8
18  21  8
19  21  8
24  25  8
24  27  8
25  28  8
26  28  8
26  29  8
27  29  8

$$$$

