5095
  -OEChem-06261200312D

 43 44  0     0  0  0  0  0  0999 V2000
    7.9939   -2.0530    0.0000 O   0  0  0  0  0  0  0  0  0  0  0  0
    3.7320    1.4470    0.0000 N   0  0  0  0  0  0  0  0  0  0  0  0
    6.4103   -2.8577    0.0000 N   0  0  0  0  0  0  0  0  0  0  0  0
    3.7320    0.4470    0.0000 C   0  0  0  0  0  0  0  0  0  0  0  0
    4.5981   -0.0530    0.0000 C   0  0  0  0  0  0  0  0  0  0  0  0
    4.5981   -1.0530    0.0000 C   0  0  0  0  0  0  0  0  0  0  0  0
    2.8660    1.9470    0.0000 C   0  0  0  0  0  0  0  0  0  0  0  0
    4.5981    1.9470    0.0000 C   0  0  0  0  0  0  0  0  0  0  0  0
    5.4641   -1.5530    0.0000 C   0  0  0  0  0  0  0  0  0  0  0  0
    6.4103   -1.2482    0.0000 C   0  0  0  0  0  0  0  0  0  0  0  0
    5.4641   -2.5530    0.0000 C   0  0  0  0  0  0  0  0  0  0  0  0
    4.5981    2.9470    0.0000 C   0  0  0  0  0  0  0  0  0  0  0  0
    2.8660    2.9470    0.0000 C   0  0  0  0  0  0  0  0  0  0  0  0
    3.7320   -1.5530    0.0000 C   0  0  0  0  0  0  0  0  0  0  0  0
    6.9939   -2.0530    0.0000 C   0  0  0  0  0  0  0  0  0  0  0  0
    4.5981   -3.0530    0.0000 C   0  0  0  0  0  0  0  0  0  0  0  0
    3.7320   -2.5530    0.0000 C   0  0  0  0  0  0  0  0  0  0  0  0
    2.0000    3.4470    0.0000 C   0  0  0  0  0  0  0  0  0  0  0  0
    5.4641    3.4470    0.0000 C   0  0  0  0  0  0  0  0  0  0  0  0
    3.1215    0.5547    0.0000 H   0  0  0  0  0  0  0  0  0  0  0  0
    3.5200   -0.1356    0.0000 H   0  0  0  0  0  0  0  0  0  0  0  0
    5.2087   -0.1606    0.0000 H   0  0  0  0  0  0  0  0  0  0  0  0
    4.8101    0.5296    0.0000 H   0  0  0  0  0  0  0  0  0  0  0  0
    2.2554    2.0547    0.0000 H   0  0  0  0  0  0  0  0  0  0  0  0
    2.6540    1.3644    0.0000 H   0  0  0  0  0  0  0  0  0  0  0  0
    4.8101    1.3644    0.0000 H   0  0  0  0  0  0  0  0  0  0  0  0
    5.2087    2.0547    0.0000 H   0  0  0  0  0  0  0  0  0  0  0  0
    6.9477   -0.9390    0.0000 H   0  0  0  0  0  0  0  0  0  0  0  0
    6.1593   -0.6813    0.0000 H   0  0  0  0  0  0  0  0  0  0  0  0
    3.4766    2.8394    0.0000 H   0  0  0  0  0  0  0  0  0  0  0  0
    4.3860    3.5296    0.0000 H   0  0  0  0  0  0  0  0  0  0  0  0
    3.9875    2.8394    0.0000 H   0  0  0  0  0  0  0  0  0  0  0  0
    3.0781    3.5296    0.0000 H   0  0  0  0  0  0  0  0  0  0  0  0
    3.1951   -1.2430    0.0000 H   0  0  0  0  0  0  0  0  0  0  0  0
    6.6029   -3.4470    0.0000 H   0  0  0  0  0  0  0  0  0  0  0  0
    4.5981   -3.6730    0.0000 H   0  0  0  0  0  0  0  0  0  0  0  0
    3.1951   -2.8630    0.0000 H   0  0  0  0  0  0  0  0  0  0  0  0
    5.7741    2.9101    0.0000 H   0  0  0  0  0  0  0  0  0  0  0  0
    2.3100    3.9840    0.0000 H   0  0  0  0  0  0  0  0  0  0  0  0
    1.4631    3.7570    0.0000 H   0  0  0  0  0  0  0  0  0  0  0  0
    1.6900    2.9101    0.0000 H   0  0  0  0  0  0  0  0  0  0  0  0
    6.0010    3.7570    0.0000 H   0  0  0  0  0  0  0  0  0  0  0  0
    5.1541    3.9840    0.0000 H   0  0  0  0  0  0  0  0  0  0  0  0
  1 15  2  0  0  0  0
  2  4  1  0  0  0  0
  2  7  1  0  0  0  0
  2  8  1  0  0  0  0
  3 11  1  0  0  0  0
  3 15  1  0  0  0  0
  3 35  1  0  0  0  0
  4  5  1  0  0  0  0
  4 20  1  0  0  0  0
  4 21  1  0  0  0  0
  5  6  1  0  0  0  0
  5 22  1  0  0  0  0
  5 23  1  0  0  0  0
  6  9  2  0  0  0  0
  6 14  1  0  0  0  0
  7 13  1  0  0  0  0
  7 24  1  0  0  0  0
  7 25  1  0  0  0  0
  8 12  1  0  0  0  0
  8 26  1  0  0  0  0
  8 27  1  0  0  0  0
  9 10  1  0  0  0  0
  9 11  1  0  0  0  0
 10 15  1  0  0  0  0
 10 28  1  0  0  0  0
 10 29  1  0  0  0  0
 11 16  2  0  0  0  0
 12 19  1  0  0  0  0
 12 31  1  0  0  0  0
 12 32  1  0  0  0  0
 13 18  1  0  0  0  0
 13 30  1  0  0  0  0
 13 33  1  0  0  0  0
 14 17  2  0  0  0  0
 14 34  1  0  0  0  0
 16 17  1  0  0  0  0
 16 36  1  0  0  0  0
 17 37  1  0  0  0  0
 18 39  1  0  0  0  0
 18 40  1  0  0  0  0
 18 41  1  0  0  0  0
 19 38  1  0  0  0  0
 19 42  1  0  0  0  0
 19 43  1  0  0  0  0
M  END
> <PUBCHEM_COMPOUND_CID>
5095

> <PUBCHEM_COMPOUND_CANONICALIZED>
1

> <PUBCHEM_CACTVS_COMPLEXITY>
287

> <PUBCHEM_CACTVS_HBOND_ACCEPTOR>
2

> <PUBCHEM_CACTVS_HBOND_DONOR>
1

> <PUBCHEM_CACTVS_ROTATABLE_BOND>
7

> <PUBCHEM_CACTVS_SUBSKEYS>
AAADceB7IAAAAAAAAAAAAAAAAAAAAWAAAAAwAAAAAAAAAFgBAAAAHgAQAAAADAjBmAQywIPAAACIAiVSUACCAAAhAgAIiAEIZIgIIDLAlZGEIAhglADIyAcciICOgAAAQAASAAAAAACAACQAAAAAAAAAAA==

> <PUBCHEM_IUPAC_OPENEYE_NAME>
4-[2-(dipropylamino)ethyl]indolin-2-one

> <PUBCHEM_IUPAC_CAS_NAME>
4-[2-(dipropylamino)ethyl]-1,3-dihydroindol-2-one

> <PUBCHEM_IUPAC_NAME>
4-[2-(dipropylamino)ethyl]-1,3-dihydroindol-2-one

> <PUBCHEM_IUPAC_SYSTEMATIC_NAME>
4-[2-(dipropylamino)ethyl]-1,3-dihydroindol-2-one

> <PUBCHEM_IUPAC_TRADITIONAL_NAME>
4-[2-(dipropylamino)ethyl]oxindole

> <PUBCHEM_IUPAC_INCHI>
InChI=1S/C16H24N2O/c1-3-9-18(10-4-2)11-8-13-6-5-7-15-14(13)12-16(19)17-15/h5-7H,3-4,8-12H2,1-2H3,(H,17,19)

> <PUBCHEM_IUPAC_INCHIKEY>
UHSKFQJFRQCDBE-UHFFFAOYSA-N

> <PUBCHEM_XLOGP3>
2.7

> <PUBCHEM_EXACT_MASS>
260.188863

> <PUBCHEM_MOLECULAR_FORMULA>
C16H24N2O

> <PUBCHEM_MOLECULAR_WEIGHT>
260.37456

> <PUBCHEM_OPENEYE_CAN_SMILES>
CCCN(CCC)CCC1=C2CC(=O)NC2=CC=C1

> <PUBCHEM_OPENEYE_ISO_SMILES>
CCCN(CCC)CCC1=C2CC(=O)NC2=CC=C1

> <PUBCHEM_CACTVS_TPSA>
32.3

> <PUBCHEM_MONOISOTOPIC_WEIGHT>
260.188863

> <PUBCHEM_TOTAL_CHARGE>
0

> <PUBCHEM_HEAVY_ATOM_COUNT>
19

> <PUBCHEM_ATOM_DEF_STEREO_COUNT>
0

> <PUBCHEM_ATOM_UDEF_STEREO_COUNT>
0

> <PUBCHEM_BOND_DEF_STEREO_COUNT>
0

> <PUBCHEM_BOND_UDEF_STEREO_COUNT>
0

> <PUBCHEM_ISOTOPIC_ATOM_COUNT>
0

> <PUBCHEM_COMPONENT_COUNT>
1

> <PUBCHEM_CACTVS_TAUTO_COUNT>
3

> <PUBCHEM_COORDINATE_TYPE>
1
5
255

> <PUBCHEM_BONDANNOTATIONS>
11  16  8
14  17  8
16  17  8
6  14  8
6  9  8
9  11  8

$$$$

