9126
  -OEChem-06261203252D

 38 43  0     0  0  0  0  0  0999 V2000
    4.6136   -0.1827    0.0000 C   0  0  0  0  0  0  0  0  0  0  0  0
    3.7476    0.3173    0.0000 C   0  0  0  0  0  0  0  0  0  0  0  0
    5.4796    0.3173    0.0000 C   0  0  0  0  0  0  0  0  0  0  0  0
    4.5976   -1.2242    0.0000 C   0  0  0  0  0  0  0  0  0  0  0  0
    3.7476    1.3173    0.0000 C   0  0  0  0  0  0  0  0  0  0  0  0
    5.4796    1.3173    0.0000 C   0  0  0  0  0  0  0  0  0  0  0  0
    4.6136    1.8173    0.0000 C   0  0  0  0  0  0  0  0  0  0  0  0
    2.8881   -0.1775    0.0000 C   0  0  0  0  0  0  0  0  0  0  0  0
    5.4956   -1.7520    0.0000 C   0  0  0  0  0  0  0  0  0  0  0  0
    6.3896   -0.1896    0.0000 C   0  0  0  0  0  0  0  0  0  0  0  0
    6.3977   -1.2312    0.0000 C   0  0  0  0  0  0  0  0  0  0  0  0
    3.7204   -1.6870    0.0000 C   0  0  0  0  0  0  0  0  0  0  0  0
    2.8747   -1.1691    0.0000 C   0  0  0  0  0  0  0  0  0  0  0  0
    2.8768    1.8315    0.0000 C   0  0  0  0  0  0  0  0  0  0  0  0
    2.0057    0.3164    0.0000 C   0  0  0  0  0  0  0  0  0  0  0  0
    6.3896    1.8241    0.0000 C   0  0  0  0  0  0  0  0  0  0  0  0
    4.5976    2.8588    0.0000 C   0  0  0  0  0  0  0  0  0  0  0  0
    5.4789   -2.8368    0.0000 C   0  0  0  0  0  0  0  0  0  0  0  0
    2.0000    1.3277    0.0000 C   0  0  0  0  0  0  0  0  0  0  0  0
    7.3456   -1.7591    0.0000 C   0  0  0  0  0  0  0  0  0  0  0  0
    6.3977    2.8657    0.0000 C   0  0  0  0  0  0  0  0  0  0  0  0
    5.4956    3.3866    0.0000 C   0  0  0  0  0  0  0  0  0  0  0  0
    6.4143   -3.3866    0.0000 C   0  0  0  0  0  0  0  0  0  0  0  0
    7.3539   -2.8441    0.0000 C   0  0  0  0  0  0  0  0  0  0  0  0
    6.9230    0.1266    0.0000 H   0  0  0  0  0  0  0  0  0  0  0  0
    3.7006   -2.3066    0.0000 H   0  0  0  0  0  0  0  0  0  0  0  0
    2.3318   -1.4685    0.0000 H   0  0  0  0  0  0  0  0  0  0  0  0
    2.8805    2.4514    0.0000 H   0  0  0  0  0  0  0  0  0  0  0  0
    1.4717    0.0013    0.0000 H   0  0  0  0  0  0  0  0  0  0  0  0
    6.9230    1.5079    0.0000 H   0  0  0  0  0  0  0  0  0  0  0  0
    4.0571    3.1626    0.0000 H   0  0  0  0  0  0  0  0  0  0  0  0
    4.9384   -3.1406    0.0000 H   0  0  0  0  0  0  0  0  0  0  0  0
    1.4625    1.6367    0.0000 H   0  0  0  0  0  0  0  0  0  0  0  0
    7.8789   -1.4429    0.0000 H   0  0  0  0  0  0  0  0  0  0  0  0
    6.9358    3.1737    0.0000 H   0  0  0  0  0  0  0  0  0  0  0  0
    5.4932    4.0066    0.0000 H   0  0  0  0  0  0  0  0  0  0  0  0
    6.4119   -4.0066    0.0000 H   0  0  0  0  0  0  0  0  0  0  0  0
    7.8921   -3.1520    0.0000 H   0  0  0  0  0  0  0  0  0  0  0  0
  1  2  1  0  0  0  0
  1  3  1  0  0  0  0
  1  4  2  0  0  0  0
  2  5  1  0  0  0  0
  2  8  2  0  0  0  0
  3  6  1  0  0  0  0
  3 10  2  0  0  0  0
  4  9  1  0  0  0  0
  4 12  1  0  0  0  0
  5  7  1  0  0  0  0
  5 14  2  0  0  0  0
  6  7  1  0  0  0  0
  6 16  2  0  0  0  0
  7 17  2  0  0  0  0
  8 13  1  0  0  0  0
  8 15  1  0  0  0  0
  9 11  1  0  0  0  0
  9 18  2  0  0  0  0
 10 11  1  0  0  0  0
 10 25  1  0  0  0  0
 11 20  2  0  0  0  0
 12 13  2  0  0  0  0
 12 26  1  0  0  0  0
 13 27  1  0  0  0  0
 14 19  1  0  0  0  0
 14 28  1  0  0  0  0
 15 19  2  0  0  0  0
 15 29  1  0  0  0  0
 16 21  1  0  0  0  0
 16 30  1  0  0  0  0
 17 22  1  0  0  0  0
 17 31  1  0  0  0  0
 18 23  1  0  0  0  0
 18 32  1  0  0  0  0
 19 33  1  0  0  0  0
 20 24  1  0  0  0  0
 20 34  1  0  0  0  0
 21 22  2  0  0  0  0
 21 35  1  0  0  0  0
 22 36  1  0  0  0  0
 23 24  2  0  0  0  0
 23 37  1  0  0  0  0
 24 38  1  0  0  0  0
M  END
> <PUBCHEM_COMPOUND_CID>
9126

> <PUBCHEM_COMPOUND_CANONICALIZED>
1

> <PUBCHEM_CACTVS_COMPLEXITY>
480

> <PUBCHEM_CACTVS_HBOND_ACCEPTOR>
0

> <PUBCHEM_CACTVS_HBOND_DONOR>
0

> <PUBCHEM_CACTVS_ROTATABLE_BOND>
0

> <PUBCHEM_CACTVS_SUBSKEYS>
AAADccB4AAAAAAAAAAAAAAAAAAAAAAAAAAAwYMGDAAAAAADBVAAAGAAAAAAADACAGAAwAMAAAACAAiBCAAACAAAgAAAIiAAAAIgIICKAERCAIAAggAAIiAcAgMAOwAACAAAQAACAAAQAACAAAAAAAAAAAA==

> <PUBCHEM_IUPAC_INCHI>
InChI=1S/C24H14/c1-2-8-17-16(6-1)14-22-19-10-4-3-9-18(19)20-11-5-7-15-12-13-21(17)24(22)23(15)20/h1-14H

> <PUBCHEM_IUPAC_INCHIKEY>
KGHMWBNEMFNJFZ-UHFFFAOYSA-N

> <PUBCHEM_XLOGP3_AA>
7.3

> <PUBCHEM_EXACT_MASS>
302.10955

> <PUBCHEM_MOLECULAR_FORMULA>
C24H14

> <PUBCHEM_MOLECULAR_WEIGHT>
302.36796

> <PUBCHEM_OPENEYE_CAN_SMILES>
C1=CC=C2C3=C4C(=CC2=C1)C5=CC=CC=C5C6=CC=CC(=C64)C=C3

> <PUBCHEM_OPENEYE_ISO_SMILES>
C1=CC=C2C3=C4C(=CC2=C1)C5=CC=CC=C5C6=CC=CC(=C64)C=C3

> <PUBCHEM_CACTVS_TPSA>
0

> <PUBCHEM_MONOISOTOPIC_WEIGHT>
302.10955

> <PUBCHEM_TOTAL_CHARGE>
0

> <PUBCHEM_HEAVY_ATOM_COUNT>
24

> <PUBCHEM_ATOM_DEF_STEREO_COUNT>
0

> <PUBCHEM_ATOM_UDEF_STEREO_COUNT>
0

> <PUBCHEM_BOND_DEF_STEREO_COUNT>
0

> <PUBCHEM_BOND_UDEF_STEREO_COUNT>
0

> <PUBCHEM_ISOTOPIC_ATOM_COUNT>
0

> <PUBCHEM_COMPONENT_COUNT>
1

> <PUBCHEM_CACTVS_TAUTO_COUNT>
1

> <PUBCHEM_COORDINATE_TYPE>
1
5
255

> <PUBCHEM_BONDANNOTATIONS>
1  2  8
1  3  8
1  4  8
10  11  8
11  20  8
12  13  8
14  19  8
15  19  8
16  21  8
17  22  8
18  23  8
2  5  8
2  8  8
20  24  8
21  22  8
23  24  8
3  10  8
3  6  8
4  12  8
4  9  8
5  14  8
5  7  8
6  16  8
6  7  8
7  17  8
8  13  8
8  15  8
9  11  8
9  18  8

$$$$

