3320
  -OEChem-06251223202D

113119  0     1  0  0  0  0  0999 V2000
    5.9374   -3.5986    0.0000 O   0  0  0  0  0  0  0  0  0  0  0  0
   12.6463   -4.6874    0.0000 O   0  0  0  0  0  0  0  0  0  0  0  0
   11.2513   -5.7140    0.0000 O   0  0  0  0  0  0  0  0  0  0  0  0
    4.9682    1.8988    0.0000 O   0  0  0  0  0  0  0  0  0  0  0  0
    2.4934   -1.2951    0.0000 O   0  0  0  0  0  0  0  0  0  0  0  0
    3.5421   -2.6736    0.0000 O   0  0  0  0  0  0  0  0  0  0  0  0
   13.4892   -3.0202    0.0000 O   0  0  0  0  0  0  0  0  0  0  0  0
   12.3938    1.9123    0.0000 O   0  0  0  0  0  0  0  0  0  0  0  0
   11.7701   -2.8087    0.0000 O   0  0  0  0  0  0  0  0  0  0  0  0
   15.4505    0.6173    0.0000 O   0  0  0  0  0  0  0  0  0  0  0  0
   14.4015    1.9956    0.0000 O   0  0  0  0  0  0  0  0  0  0  0  0
    7.6530    5.1461    0.0000 O   0  0  0  0  0  0  0  0  0  0  0  0
    9.2396    4.4513    0.0000 O   0  0  0  0  0  0  0  0  0  0  0  0
    8.9720   -1.7271    0.0000 N   0  0  0  0  0  0  0  0  0  0  0  0
    7.1922   -2.3629    0.0000 N   0  0  0  0  0  0  0  0  0  0  0  0
    7.4668   -0.3560    0.0000 N   0  0  0  0  0  0  0  0  0  0  0  0
   10.4755   -0.3560    0.0000 N   0  0  0  0  0  0  0  0  0  0  0  0
    8.9384    1.0152    0.0000 N   0  0  0  0  0  0  0  0  0  0  0  0
    3.4494    1.0660    0.0000 N   0  0  0  0  0  0  0  0  0  0  0  0
    8.4708   -3.2978    0.0000 C   0  0  3  0  0  0  0  0  0  0  0  0
    8.1691   -2.3625    0.0000 C   0  0  3  0  0  0  0  0  0  0  0  0
    9.4732   -3.2978    0.0000 C   0  0  3  0  0  0  0  0  0  0  0  0
    9.7749   -2.3289    0.0000 C   0  0  3  0  0  0  0  0  0  0  0  0
    7.2003   -2.0607    0.0000 C   0  0  0  0  0  0  0  0  0  0  0  0
    7.6777   -3.8682    0.0000 C   0  0  0  0  0  0  0  0  0  0  0  0
    6.8985   -1.1254    0.0000 C   0  0  3  0  0  0  0  0  0  0  0  0
    8.7777   -4.2495    0.0000 C   0  0  0  0  0  0  0  0  0  0  0  0
   10.0659   -4.1032    0.0000 C   0  0  0  0  0  0  0  0  0  0  0  0
    5.9298   -0.8572    0.0000 C   0  0  3  0  0  0  0  0  0  0  0  0
    6.8891   -3.2916    0.0000 C   0  0  0  0  0  0  0  0  0  0  0  0
    5.9298    0.1451    0.0000 C   0  0  3  0  0  0  0  0  0  0  0  0
   10.7772   -2.0607    0.0000 C   0  0  0  0  0  0  0  0  0  0  0  0
    6.8985    0.4133    0.0000 C   0  0  0  0  0  0  0  0  0  0  0  0
    5.1339   -1.4626    0.0000 C   0  0  0  0  0  0  0  0  0  0  0  0
   11.0597   -3.9926    0.0000 C   0  0  0  0  0  0  0  0  0  0  0  0
   11.0773   -1.0918    0.0000 C   0  0  0  0  0  0  0  0  0  0  0  0
    4.9300    0.1672    0.0000 C   0  0  0  0  0  0  0  0  0  0  0  0
    5.6418    1.1028    0.0000 C   0  0  0  0  0  0  0  0  0  0  0  0
   12.0143   -0.8236    0.0000 C   0  0  3  0  0  0  0  0  0  0  0  0
    7.1667    1.3822    0.0000 C   0  0  0  0  0  0  0  0  0  0  0  0
   12.0143    0.1787    0.0000 C   0  0  3  0  0  0  0  0  0  0  0  0
    4.2116   -1.0761    0.0000 C   0  0  0  0  0  0  0  0  0  0  0  0
   11.0438    0.4469    0.0000 C   0  0  0  0  0  0  0  0  0  0  0  0
   11.6524   -4.7980    0.0000 C   0  0  0  0  0  0  0  0  0  0  0  0
    8.1356    1.6504    0.0000 C   0  0  0  0  0  0  0  0  0  0  0  0
   12.8128   -1.4256    0.0000 C   0  0  0  0  0  0  0  0  0  0  0  0
    4.4492    1.0440    0.0000 C   0  0  0  0  0  0  0  0  0  0  0  0
   12.8100    0.7843    0.0000 C   0  0  0  0  0  0  0  0  0  0  0  0
   10.7438    1.3822    0.0000 C   0  0  0  0  0  0  0  0  0  0  0  0
    9.7749    1.6839    0.0000 C   0  0  0  0  0  0  0  0  0  0  0  0
    8.4373    2.6192    0.0000 C   0  0  0  0  0  0  0  0  0  0  0  0
    9.4396    2.6192    0.0000 C   0  0  0  0  0  0  0  0  0  0  0  0
    3.4157   -1.6816    0.0000 C   0  0  0  0  0  0  0  0  0  0  0  0
   11.4165    2.1238    0.0000 C   0  0  0  0  0  0  0  0  0  0  0  0
   13.7324    0.3980    0.0000 C   0  0  0  0  0  0  0  0  0  0  0  0
   10.1320    3.2888    0.0000 C   0  0  0  0  0  0  0  0  0  0  0  0
   12.6907   -2.4181    0.0000 C   0  0  0  0  0  0  0  0  0  0  0  0
   11.1106    3.0771    0.0000 C   0  0  0  0  0  0  0  0  0  0  0  0
    7.8446    3.4247    0.0000 C   0  0  0  0  0  0  0  0  0  0  0  0
   14.5281    1.0036    0.0000 C   0  0  0  0  0  0  0  0  0  0  0  0
    8.2458    4.3407    0.0000 C   0  0  0  0  0  0  0  0  0  0  0  0
   10.3114   -3.1571    0.0000 H   0  0  0  0  0  0  0  0  0  0  0  0
   10.3637   -2.9420    0.0000 H   0  0  0  0  0  0  0  0  0  0  0  0
    6.5838   -2.1272    0.0000 H   0  0  0  0  0  0  0  0  0  0  0  0
    7.1400   -2.6778    0.0000 H   0  0  0  0  0  0  0  0  0  0  0  0
    7.2612   -4.3275    0.0000 H   0  0  0  0  0  0  0  0  0  0  0  0
    8.0906   -4.3307    0.0000 H   0  0  0  0  0  0  0  0  0  0  0  0
    8.9638   -1.1072    0.0000 H   0  0  0  0  0  0  0  0  0  0  0  0
    6.5755   -2.4274    0.0000 H   0  0  0  0  0  0  0  0  0  0  0  0
    6.3102   -1.7389    0.0000 H   0  0  0  0  0  0  0  0  0  0  0  0
    8.1876   -4.4398    0.0000 H   0  0  0  0  0  0  0  0  0  0  0  0
    8.9680   -4.8396    0.0000 H   0  0  0  0  0  0  0  0  0  0  0  0
    9.3678   -4.0592    0.0000 H   0  0  0  0  0  0  0  0  0  0  0  0
    9.5103   -4.3784    0.0000 H   0  0  0  0  0  0  0  0  0  0  0  0
   10.2404   -4.6981    0.0000 H   0  0  0  0  0  0  0  0  0  0  0  0
    5.1682   -0.4796    0.0000 H   0  0  0  0  0  0  0  0  0  0  0  0
   11.2070   -2.5075    0.0000 H   0  0  0  0  0  0  0  0  0  0  0  0
    4.7986   -1.9842    0.0000 H   0  0  0  0  0  0  0  0  0  0  0  0
    5.5892   -1.8834    0.0000 H   0  0  0  0  0  0  0  0  0  0  0  0
   11.6153   -3.7174    0.0000 H   0  0  0  0  0  0  0  0  0  0  0  0
   10.8852   -3.3977    0.0000 H   0  0  0  0  0  0  0  0  0  0  0  0
    4.3428   -0.0320    0.0000 H   0  0  0  0  0  0  0  0  0  0  0  0
    5.0242   -0.4456    0.0000 H   0  0  0  0  0  0  0  0  0  0  0  0
    6.2355    1.2813    0.0000 H   0  0  0  0  0  0  0  0  0  0  0  0
    5.4632    1.6965    0.0000 H   0  0  0  0  0  0  0  0  0  0  0  0
    5.0480    0.9242    0.0000 H   0  0  0  0  0  0  0  0  0  0  0  0
   12.7750   -0.4445    0.0000 H   0  0  0  0  0  0  0  0  0  0  0  0
    7.1110    1.9997    0.0000 H   0  0  0  0  0  0  0  0  0  0  0  0
    6.5492    1.4379    0.0000 H   0  0  0  0  0  0  0  0  0  0  0  0
   11.8534    1.0133    0.0000 H   0  0  0  0  0  0  0  0  0  0  0  0
    4.5469   -0.5546    0.0000 H   0  0  0  0  0  0  0  0  0  0  0  0
    3.7562   -0.6554    0.0000 H   0  0  0  0  0  0  0  0  0  0  0  0
    9.8559   -0.3775    0.0000 H   0  0  0  0  0  0  0  0  0  0  0  0
   13.4056   -1.6070    0.0000 H   0  0  0  0  0  0  0  0  0  0  0  0
   13.0944   -0.8733    0.0000 H   0  0  0  0  0  0  0  0  0  0  0  0
   13.1452    1.3059    0.0000 H   0  0  0  0  0  0  0  0  0  0  0  0
   12.3546    1.2050    0.0000 H   0  0  0  0  0  0  0  0  0  0  0  0
    8.9400    0.3952    0.0000 H   0  0  0  0  0  0  0  0  0  0  0  0
   13.3972   -0.1236    0.0000 H   0  0  0  0  0  0  0  0  0  0  0  0
   14.1878   -0.0227    0.0000 H   0  0  0  0  0  0  0  0  0  0  0  0
   10.3789    3.8576    0.0000 H   0  0  0  0  0  0  0  0  0  0  0  0
    9.6224    3.6419    0.0000 H   0  0  0  0  0  0  0  0  0  0  0  0
   13.0138   -5.1868    0.0000 H   0  0  0  0  0  0  0  0  0  0  0  0
    3.1514    1.6097    0.0000 H   0  0  0  0  0  0  0  0  0  0  0  0
    3.1277    0.5361    0.0000 H   0  0  0  0  0  0  0  0  0  0  0  0
   11.7249    3.1611    0.0000 H   0  0  0  0  0  0  0  0  0  0  0  0
   11.1345    3.6966    0.0000 H   0  0  0  0  0  0  0  0  0  0  0  0
    7.3285    3.7682    0.0000 H   0  0  0  0  0  0  0  0  0  0  0  0
    7.4167    2.9760    0.0000 H   0  0  0  0  0  0  0  0  0  0  0  0
    2.0000   -1.6705    0.0000 H   0  0  0  0  0  0  0  0  0  0  0  0
   13.4135   -3.6355    0.0000 H   0  0  0  0  0  0  0  0  0  0  0  0
   15.9438    0.9928    0.0000 H   0  0  0  0  0  0  0  0  0  0  0  0
    7.9018    5.7140    0.0000 H   0  0  0  0  0  0  0  0  0  0  0  0
  1 30  2  0  0  0  0
  2 44  1  0  0  0  0
  2103  1  0  0  0  0
  3 44  2  0  0  0  0
  4 47  2  0  0  0  0
  5 53  1  0  0  0  0
  5110  1  0  0  0  0
  6 53  2  0  0  0  0
  7 57  1  0  0  0  0
  7111  1  0  0  0  0
  8 54  2  0  0  0  0
  9 57  2  0  0  0  0
 10 60  1  0  0  0  0
 10112  1  0  0  0  0
 11 60  2  0  0  0  0
 12 61  1  0  0  0  0
 12113  1  0  0  0  0
 13 61  2  0  0  0  0
 14 21  1  0  0  0  0
 14 23  1  0  0  0  0
 14 68  1  0  0  0  0
 15 21  1  0  0  0  0
 15 30  1  0  0  0  0
 15 69  1  0  0  0  0
 16 26  1  0  0  0  0
 16 33  2  0  0  0  0
 17 36  1  0  0  0  0
 17 43  1  0  0  0  0
 17 93  1  0  0  0  0
 18 45  1  0  0  0  0
 18 50  1  0  0  0  0
 18 98  1  0  0  0  0
 19 47  1  0  0  0  0
 19104  1  0  0  0  0
 19105  1  0  0  0  0
 20 21  1  0  0  0  0
 20 22  1  0  0  0  0
 20 25  1  0  0  0  0
 20 27  1  0  0  0  0
 21 24  1  0  0  0  0
 22 23  1  0  0  0  0
 22 28  1  0  0  0  0
 22 62  1  0  0  0  0
 23 32  1  0  0  0  0
 23 63  1  0  0  0  0
 24 26  1  0  0  0  0
 24 64  1  0  0  0  0
 24 65  1  0  0  0  0
 25 30  1  0  0  0  0
 25 66  1  0  0  0  0
 25 67  1  0  0  0  0
 26 29  1  0  0  0  0
 26 70  1  0  0  0  0
 27 71  1  0  0  0  0
 27 72  1  0  0  0  0
 27 73  1  0  0  0  0
 28 35  1  0  0  0  0
 28 74  1  0  0  0  0
 28 75  1  0  0  0  0
 29 31  1  0  0  0  0
 29 34  1  0  0  0  0
 29 76  1  0  0  0  0
 31 33  1  0  0  0  0
 31 37  1  0  0  0  0
 31 38  1  0  0  0  0
 32 36  2  3  0  0  0
 32 77  1  0  0  0  0
 33 40  1  0  0  0  0
 34 42  1  0  0  0  0
 34 78  1  0  0  0  0
 34 79  1  0  0  0  0
 35 44  1  0  0  0  0
 35 80  1  0  0  0  0
 35 81  1  0  0  0  0
 36 39  1  0  0  0  0
 37 47  1  0  0  0  0
 37 82  1  0  0  0  0
 37 83  1  0  0  0  0
 38 84  1  0  0  0  0
 38 85  1  0  0  0  0
 38 86  1  0  0  0  0
 39 41  1  0  0  0  0
 39 46  1  0  0  0  0
 39 87  1  0  0  0  0
 40 45  1  0  0  0  0
 40 88  1  0  0  0  0
 40 89  1  0  0  0  0
 41 43  1  0  0  0  0
 41 48  1  0  0  0  0
 41 90  1  0  0  0  0
 42 53  1  0  0  0  0
 42 91  1  0  0  0  0
 42 92  1  0  0  0  0
 43 49  2  3  0  0  0
 45 51  2  0  0  0  0
 46 57  1  0  0  0  0
 46 94  1  0  0  0  0
 46 95  1  0  0  0  0
 48 55  1  0  0  0  0
 48 96  1  0  0  0  0
 48 97  1  0  0  0  0
 49 50  1  0  0  0  0
 49 54  1  0  0  0  0
 50 52  2  0  0  0  0
 51 52  1  0  0  0  0
 51 59  1  0  0  0  0
 52 56  1  0  0  0  0
 54 58  1  0  0  0  0
 55 60  1  0  0  0  0
 55 99  1  0  0  0  0
 55100  1  0  0  0  0
 56 58  1  0  0  0  0
 56101  1  0  0  0  0
 56102  1  0  0  0  0
 58106  1  0  0  0  0
 58107  1  0  0  0  0
 59 61  1  0  0  0  0
 59108  1  0  0  0  0
 59109  1  0  0  0  0
M  END
> <PUBCHEM_COMPOUND_CID>
3320

> <PUBCHEM_COMPOUND_CANONICALIZED>
1

> <PUBCHEM_CACTVS_COMPLEXITY>
2030

> <PUBCHEM_CACTVS_HBOND_ACCEPTOR>
16

> <PUBCHEM_CACTVS_HBOND_DONOR>
10

> <PUBCHEM_CACTVS_ROTATABLE_BOND>
15

> <PUBCHEM_CACTVS_SUBSKEYS>
AAADcfB/vAAAAAAAAAAAAAAAAAAAAWLFixAwAAAAAAAWAAABgAAAHgAQCAAADyzBngQDiJLJkgCoA6XyXACCgCAhAiAAmaE4RNiIIHrA1ZGEQAhs1QPIyUe82fOfgAAAAAAAAAAAAAAAAAQAAAAAAAAAAA==

> <PUBCHEM_IUPAC_INCHI>
InChI=1S/C42H52N6O13/c1-40(16-30(43)50)22(5-9-33(54)55)27-15-42-41(2,17-31(51)48-42)23(6-10-34(56)57)26(47-42)13-24-20(11-35(58)59)19(4-8-32(52)53)39(45-24)37-28(49)7-3-18-21(12-36(60)61)25(46-38(18)37)14-29(40)44-27/h13,19-20,22-23,26-27,45-47H,3-12,14-17H2,1-2H3,(H2,43,50)(H,48,51)(H,52,53)(H,54,55)(H,56,57)(H,58,59)(H,60,61)

> <PUBCHEM_IUPAC_INCHIKEY>
MSJQZXUMIHJIMI-UHFFFAOYSA-N

> <PUBCHEM_XLOGP3_AA>
-4.6

> <PUBCHEM_EXACT_MASS>
848.359236

> <PUBCHEM_MOLECULAR_FORMULA>
C42H52N6O13

> <PUBCHEM_MOLECULAR_WEIGHT>
848.89468

> <PUBCHEM_OPENEYE_CAN_SMILES>
CC12CC(=O)NC13CC4C(C(C(=N4)CC5=C(C6=C(N5)C(=C7C(C(C(=CC(C2CCC(=O)O)N3)N7)CC(=O)O)CCC(=O)O)C(=O)CC6)CC(=O)O)(C)CC(=O)N)CCC(=O)O

> <PUBCHEM_OPENEYE_ISO_SMILES>
CC12CC(=O)NC13CC4C(C(C(=N4)CC5=C(C6=C(N5)C(=C7C(C(C(=CC(C2CCC(=O)O)N3)N7)CC(=O)O)CCC(=O)O)C(=O)CC6)CC(=O)O)(C)CC(=O)N)CCC(=O)O

> <PUBCHEM_CACTVS_TPSA>
328

> <PUBCHEM_MONOISOTOPIC_WEIGHT>
848.359236

> <PUBCHEM_TOTAL_CHARGE>
0

> <PUBCHEM_HEAVY_ATOM_COUNT>
61

> <PUBCHEM_ATOM_DEF_STEREO_COUNT>
0

> <PUBCHEM_ATOM_UDEF_STEREO_COUNT>
9

> <PUBCHEM_BOND_DEF_STEREO_COUNT>
0

> <PUBCHEM_BOND_UDEF_STEREO_COUNT>
2

> <PUBCHEM_ISOTOPIC_ATOM_COUNT>
0

> <PUBCHEM_COMPONENT_COUNT>
1

> <PUBCHEM_CACTVS_TAUTO_COUNT>
72

> <PUBCHEM_COORDINATE_TYPE>
1
5
255

> <PUBCHEM_BONDANNOTATIONS>
18  45  8
18  50  8
20  27  3
21  24  3
22  62  3
23  63  3
26  70  3
29  76  3
31  38  3
32  36  1
39  87  3
41  90  3
43  49  1
45  51  8
50  52  8
51  52  8

$$$$

