583222
  -OEChem-06241222452D

 43 45  0     0  0  0  0  0  0999 V2000
    2.0000   -4.5194    0.0000 O   0  5  0  0  0  0  0  0  0  0  0  0
    3.7320   -4.5194    0.0000 O   0  0  0  0  0  0  0  0  0  0  0  0
    5.4071    3.5684    0.0000 N   0  0  0  0  0  0  0  0  0  0  0  0
    5.0981    4.5194    0.0000 N   0  0  0  0  0  0  0  0  0  0  0  0
    3.7891    3.5684    0.0000 N   0  0  0  0  0  0  0  0  0  0  0  0
    4.0981    4.5194    0.0000 N   0  0  0  0  0  0  0  0  0  0  0  0
    2.8660   -0.0194    0.0000 N   0  0  0  0  0  0  0  0  0  0  0  0
    3.7320    0.4806    0.0000 N   0  0  0  0  0  0  0  0  0  0  0  0
    2.8660   -4.0194    0.0000 N   0  3  0  0  0  0  0  0  0  0  0  0
    6.3582    3.2594    0.0000 C   0  0  0  0  0  0  0  0  0  0  0  0
    8.2603    2.6413    0.0000 C   0  0  0  0  0  0  0  0  0  0  0  0
    9.2113    2.3323    0.0000 C   0  0  0  0  0  0  0  0  0  0  0  0
    6.5661    2.2812    0.0000 C   0  0  0  0  0  0  0  0  0  0  0  0
    7.1013    3.9285    0.0000 C   0  0  0  0  0  0  0  0  0  0  0  0
    7.5171    1.9722    0.0000 C   0  0  0  0  0  0  0  0  0  0  0  0
    8.0524    3.6195    0.0000 C   0  0  0  0  0  0  0  0  0  0  0  0
    4.5981    2.9806    0.0000 C   0  0  0  0  0  0  0  0  0  0  0  0
    4.5981    1.9806    0.0000 C   0  0  0  0  0  0  0  0  0  0  0  0
    9.9545    3.0014    0.0000 C   0  0  0  0  0  0  0  0  0  0  0  0
    3.7320    1.4806    0.0000 C   0  0  0  0  0  0  0  0  0  0  0  0
    2.8660   -1.0194    0.0000 C   0  0  0  0  0  0  0  0  0  0  0  0
    2.0000   -1.5194    0.0000 C   0  0  0  0  0  0  0  0  0  0  0  0
    3.7320   -1.5194    0.0000 C   0  0  0  0  0  0  0  0  0  0  0  0
    2.8660   -3.0194    0.0000 C   0  0  0  0  0  0  0  0  0  0  0  0
    2.0000   -2.5194    0.0000 C   0  0  0  0  0  0  0  0  0  0  0  0
    3.7320   -2.5194    0.0000 C   0  0  0  0  0  0  0  0  0  0  0  0
    8.9202    1.7849    0.0000 H   0  0  0  0  0  0  0  0  0  0  0  0
    9.6999    1.9506    0.0000 H   0  0  0  0  0  0  0  0  0  0  0  0
    6.1053    1.8663    0.0000 H   0  0  0  0  0  0  0  0  0  0  0  0
    6.9724    4.5349    0.0000 H   0  0  0  0  0  0  0  0  0  0  0  0
    7.6460    1.3657    0.0000 H   0  0  0  0  0  0  0  0  0  0  0  0
    8.5131    4.0343    0.0000 H   0  0  0  0  0  0  0  0  0  0  0  0
    4.8101    1.3980    0.0000 H   0  0  0  0  0  0  0  0  0  0  0  0
    5.2087    2.0882    0.0000 H   0  0  0  0  0  0  0  0  0  0  0  0
   10.3693    2.5407    0.0000 H   0  0  0  0  0  0  0  0  0  0  0  0
   10.4152    3.4163    0.0000 H   0  0  0  0  0  0  0  0  0  0  0  0
    9.5396    3.4622    0.0000 H   0  0  0  0  0  0  0  0  0  0  0  0
    3.1951    1.7906    0.0000 H   0  0  0  0  0  0  0  0  0  0  0  0
    1.4631   -1.2094    0.0000 H   0  0  0  0  0  0  0  0  0  0  0  0
    4.2690   -1.2094    0.0000 H   0  0  0  0  0  0  0  0  0  0  0  0
    2.3291    0.2906    0.0000 H   0  0  0  0  0  0  0  0  0  0  0  0
    1.4631   -2.8294    0.0000 H   0  0  0  0  0  0  0  0  0  0  0  0
    4.2690   -2.8294    0.0000 H   0  0  0  0  0  0  0  0  0  0  0  0
  1  9  1  0  0  0  0
  2  9  2  0  0  0  0
  3  4  1  0  0  0  0
  3 10  1  0  0  0  0
  3 17  1  0  0  0  0
  4  6  2  0  0  0  0
  5  6  1  0  0  0  0
  5 17  2  0  0  0  0
  7  8  1  0  0  0  0
  7 21  1  0  0  0  0
  7 41  1  0  0  0  0
  8 20  2  3  0  0  0
  9 24  1  0  0  0  0
 10 13  2  0  0  0  0
 10 14  1  0  0  0  0
 11 12  1  0  0  0  0
 11 15  2  0  0  0  0
 11 16  1  0  0  0  0
 12 19  1  0  0  0  0
 12 27  1  0  0  0  0
 12 28  1  0  0  0  0
 13 15  1  0  0  0  0
 13 29  1  0  0  0  0
 14 16  2  0  0  0  0
 14 30  1  0  0  0  0
 15 31  1  0  0  0  0
 16 32  1  0  0  0  0
 17 18  1  0  0  0  0
 18 20  1  0  0  0  0
 18 33  1  0  0  0  0
 18 34  1  0  0  0  0
 19 35  1  0  0  0  0
 19 36  1  0  0  0  0
 19 37  1  0  0  0  0
 20 38  1  0  0  0  0
 21 22  2  0  0  0  0
 21 23  1  0  0  0  0
 22 25  1  0  0  0  0
 22 39  1  0  0  0  0
 23 26  2  0  0  0  0
 23 40  1  0  0  0  0
 24 25  2  0  0  0  0
 24 26  1  0  0  0  0
 25 42  1  0  0  0  0
 26 43  1  0  0  0  0
M  CHG  2   1  -1   9   1
M  END
> <PUBCHEM_COMPOUND_CID>
583222

> <PUBCHEM_COMPOUND_CANONICALIZED>
1

> <PUBCHEM_CACTVS_COMPLEXITY>
468

> <PUBCHEM_CACTVS_HBOND_ACCEPTOR>
7

> <PUBCHEM_CACTVS_HBOND_DONOR>
1

> <PUBCHEM_CACTVS_ROTATABLE_BOND>
6

> <PUBCHEM_CACTVS_SUBSKEYS>
AAADceB7sAAAAAAAAAAAAAAAAAAAAWAAAAAwYAAAAAAAAAAB0AAAHAAcAAAADAjBGwQz0IZ6QACjAjZjZwCSBCMhAoA9iAAwZIqIICLAmZGEIAhgmALIyCcQgIAOCACAAAAAAAAQAQAAAAAAAAAAAAAAAA==

> <PUBCHEM_IUPAC_OPENEYE_NAME>
N-[2-[1-(4-ethylphenyl)tetrazol-5-yl]ethylideneamino]-4-nitro-aniline

> <PUBCHEM_IUPAC_CAS_NAME>
N-[2-[1-(4-ethylphenyl)-5-tetrazolyl]ethylideneamino]-4-nitroaniline

> <PUBCHEM_IUPAC_NAME>
N-[2-[1-(4-ethylphenyl)tetrazol-5-yl]ethylideneamino]-4-nitroaniline

> <PUBCHEM_IUPAC_SYSTEMATIC_NAME>
N-[2-[1-(4-ethylphenyl)-1,2,3,4-tetrazol-5-yl]ethylideneamino]-4-nitro-aniline

> <PUBCHEM_IUPAC_TRADITIONAL_NAME>
[2-[1-(4-ethylphenyl)tetrazol-5-yl]ethylideneamino]-(4-nitrophenyl)amine

> <PUBCHEM_IUPAC_INCHI>
InChI=1S/C17H17N7O2/c1-2-13-3-7-15(8-4-13)23-17(20-21-22-23)11-12-18-19-14-5-9-16(10-6-14)24(25)26/h3-10,12,19H,2,11H2,1H3

> <PUBCHEM_IUPAC_INCHIKEY>
UHJCYXUVQGYEJU-UHFFFAOYSA-N

> <PUBCHEM_XLOGP3_AA>
3.4

> <PUBCHEM_EXACT_MASS>
351.144373

> <PUBCHEM_MOLECULAR_FORMULA>
C17H17N7O2

> <PUBCHEM_MOLECULAR_WEIGHT>
351.36258

> <PUBCHEM_OPENEYE_CAN_SMILES>
CCC1=CC=C(C=C1)N2C(=NN=N2)CC=NNC3=CC=C(C=C3)[N+](=O)[O-]

> <PUBCHEM_OPENEYE_ISO_SMILES>
CCC1=CC=C(C=C1)N2C(=NN=N2)CC=NNC3=CC=C(C=C3)[N+](=O)[O-]

> <PUBCHEM_CACTVS_TPSA>
114

> <PUBCHEM_MONOISOTOPIC_WEIGHT>
351.144373

> <PUBCHEM_TOTAL_CHARGE>
0

> <PUBCHEM_HEAVY_ATOM_COUNT>
26

> <PUBCHEM_ATOM_DEF_STEREO_COUNT>
0

> <PUBCHEM_ATOM_UDEF_STEREO_COUNT>
0

> <PUBCHEM_BOND_DEF_STEREO_COUNT>
0

> <PUBCHEM_BOND_UDEF_STEREO_COUNT>
1

> <PUBCHEM_ISOTOPIC_ATOM_COUNT>
0

> <PUBCHEM_COMPONENT_COUNT>
1

> <PUBCHEM_CACTVS_TAUTO_COUNT>
1

> <PUBCHEM_COORDINATE_TYPE>
1
5
255

> <PUBCHEM_BONDANNOTATIONS>
10  13  8
10  14  8
11  15  8
11  16  8
13  15  8
14  16  8
21  22  8
21  23  8
22  25  8
23  26  8
24  25  8
24  26  8
3  17  8
3  4  8
4  6  8
5  17  8
5  6  8
8  20  1

$$$$

