4960
  -OEChem-06261200262D

 60 61  0     1  0  0  0  0  0999 V2000
    9.0459   -1.7951    0.0000 O   0  0  0  0  0  0  0  0  0  0  0  0
    5.5609   -0.9904    0.0000 O   0  0  0  0  0  0  0  0  0  0  0  0
    6.2216    2.6718    0.0000 O   0  0  0  0  0  0  0  0  0  0  0  0
   15.1295   -3.5885    0.0000 O   0  0  0  0  0  0  0  0  0  0  0  0
   13.6295   -4.4545    0.0000 O   0  0  0  0  0  0  0  0  0  0  0  0
    8.0997   -0.4904    0.0000 C   0  0  3  0  0  0  0  0  0  0  0  0
    8.0997   -1.4904    0.0000 C   0  0  3  0  0  0  0  0  0  0  0  0
    7.1487   -0.1814    0.0000 C   0  0  3  0  0  0  0  0  0  0  0  0
    6.5609   -0.9904    0.0000 C   0  0  3  0  0  0  0  0  0  0  0  0
    7.1487   -1.7994    0.0000 C   0  0  0  0  0  0  0  0  0  0  0  0
    9.0459   -0.1857    0.0000 C   0  0  0  0  0  0  0  0  0  0  0  0
    9.6295   -0.9904    0.0000 C   0  0  0  0  0  0  0  0  0  0  0  0
    6.8396    0.7697    0.0000 C   0  0  0  0  0  0  0  0  0  0  0  0
   10.6295   -0.9904    0.0000 C   0  0  0  0  0  0  0  0  0  0  0  0
    5.8615    0.9776    0.0000 C   0  0  0  0  0  0  0  0  0  0  0  0
   11.1295   -1.8564    0.0000 C   0  0  0  0  0  0  0  0  0  0  0  0
    5.5525    1.9286    0.0000 C   0  0  3  0  0  0  0  0  0  0  0  0
    4.5743    2.1366    0.0000 C   0  0  0  0  0  0  0  0  0  0  0  0
   12.1295   -1.8564    0.0000 C   0  0  0  0  0  0  0  0  0  0  0  0
    4.2653    3.0876    0.0000 C   0  0  0  0  0  0  0  0  0  0  0  0
   12.6295   -2.7224    0.0000 C   0  0  0  0  0  0  0  0  0  0  0  0
    3.2872    3.2955    0.0000 C   0  0  0  0  0  0  0  0  0  0  0  0
   13.6295   -2.7224    0.0000 C   0  0  0  0  0  0  0  0  0  0  0  0
    2.9782    4.2466    0.0000 C   0  0  0  0  0  0  0  0  0  0  0  0
    2.0000    4.4545    0.0000 C   0  0  0  0  0  0  0  0  0  0  0  0
   14.1295   -3.5885    0.0000 C   0  0  0  0  0  0  0  0  0  0  0  0
    8.1008    0.3596    0.0000 H   0  0  0  0  0  0  0  0  0  0  0  0
    8.1008   -2.3404    0.0000 H   0  0  0  0  0  0  0  0  0  0  0  0
    6.3091   -0.0484    0.0000 H   0  0  0  0  0  0  0  0  0  0  0  0
    6.1750   -1.7478    0.0000 H   0  0  0  0  0  0  0  0  0  0  0  0
    6.6117   -2.1094    0.0000 H   0  0  0  0  0  0  0  0  0  0  0  0
    7.4008   -2.3658    0.0000 H   0  0  0  0  0  0  0  0  0  0  0  0
    9.5833    0.1236    0.0000 H   0  0  0  0  0  0  0  0  0  0  0  0
    8.7949    0.3812    0.0000 H   0  0  0  0  0  0  0  0  0  0  0  0
    7.2545    1.2304    0.0000 H   0  0  0  0  0  0  0  0  0  0  0  0
    5.2509   -1.5273    0.0000 H   0  0  0  0  0  0  0  0  0  0  0  0
   10.9395   -0.4535    0.0000 H   0  0  0  0  0  0  0  0  0  0  0  0
    5.4466    0.5168    0.0000 H   0  0  0  0  0  0  0  0  0  0  0  0
   10.5469   -2.0685    0.0000 H   0  0  0  0  0  0  0  0  0  0  0  0
   11.2372   -2.4670    0.0000 H   0  0  0  0  0  0  0  0  0  0  0  0
    6.3839    1.7519    0.0000 H   0  0  0  0  0  0  0  0  0  0  0  0
    3.9604    2.0503    0.0000 H   0  0  0  0  0  0  0  0  0  0  0  0
    4.5527    1.5169    0.0000 H   0  0  0  0  0  0  0  0  0  0  0  0
   12.7122   -1.6444    0.0000 H   0  0  0  0  0  0  0  0  0  0  0  0
   12.0219   -1.2458    0.0000 H   0  0  0  0  0  0  0  0  0  0  0  0
    4.8793    3.1739    0.0000 H   0  0  0  0  0  0  0  0  0  0  0  0
    4.2870    3.7072    0.0000 H   0  0  0  0  0  0  0  0  0  0  0  0
   12.0469   -2.9345    0.0000 H   0  0  0  0  0  0  0  0  0  0  0  0
   12.7372   -3.3330    0.0000 H   0  0  0  0  0  0  0  0  0  0  0  0
    6.0300    3.2614    0.0000 H   0  0  0  0  0  0  0  0  0  0  0  0
    2.6732    3.2092    0.0000 H   0  0  0  0  0  0  0  0  0  0  0  0
    3.2655    2.6759    0.0000 H   0  0  0  0  0  0  0  0  0  0  0  0
   14.2122   -2.5104    0.0000 H   0  0  0  0  0  0  0  0  0  0  0  0
   13.5219   -2.1119    0.0000 H   0  0  0  0  0  0  0  0  0  0  0  0
    3.5921    4.3329    0.0000 H   0  0  0  0  0  0  0  0  0  0  0  0
    2.9998    4.8662    0.0000 H   0  0  0  0  0  0  0  0  0  0  0  0
    2.1289    5.0610    0.0000 H   0  0  0  0  0  0  0  0  0  0  0  0
    1.3936    4.5834    0.0000 H   0  0  0  0  0  0  0  0  0  0  0  0
    1.8711    3.8480    0.0000 H   0  0  0  0  0  0  0  0  0  0  0  0
   15.4395   -4.1254    0.0000 H   0  0  0  0  0  0  0  0  0  0  0  0
  1  7  1  0  0  0  0
  1 12  1  0  0  0  0
  2  9  1  0  0  0  0
  2 36  1  0  0  0  0
  3 17  1  0  0  0  0
  3 50  1  0  0  0  0
  4 26  1  0  0  0  0
  4 60  1  0  0  0  0
  5 26  2  0  0  0  0
  6  7  1  0  0  0  0
  6  8  1  0  0  0  0
  6 11  1  0  0  0  0
  6 27  1  0  0  0  0
  7 10  1  0  0  0  0
  7 28  1  0  0  0  0
  8  9  1  0  0  0  0
  8 13  1  0  0  0  0
  8 29  1  0  0  0  0
  9 10  1  0  0  0  0
  9 30  1  0  0  0  0
 10 31  1  0  0  0  0
 10 32  1  0  0  0  0
 11 12  1  0  0  0  0
 11 33  1  0  0  0  0
 11 34  1  0  0  0  0
 12 14  2  3  0  0  0
 13 15  2  3  0  0  0
 13 35  1  0  0  0  0
 14 16  1  0  0  0  0
 14 37  1  0  0  0  0
 15 17  1  0  0  0  0
 15 38  1  0  0  0  0
 16 19  1  0  0  0  0
 16 39  1  0  0  0  0
 16 40  1  0  0  0  0
 17 18  1  0  0  0  0
 17 41  1  0  0  0  0
 18 20  1  0  0  0  0
 18 42  1  0  0  0  0
 18 43  1  0  0  0  0
 19 21  1  0  0  0  0
 19 44  1  0  0  0  0
 19 45  1  0  0  0  0
 20 22  1  0  0  0  0
 20 46  1  0  0  0  0
 20 47  1  0  0  0  0
 21 23  1  0  0  0  0
 21 48  1  0  0  0  0
 21 49  1  0  0  0  0
 22 24  1  0  0  0  0
 22 51  1  0  0  0  0
 22 52  1  0  0  0  0
 23 26  1  0  0  0  0
 23 53  1  0  0  0  0
 23 54  1  0  0  0  0
 24 25  1  0  0  0  0
 24 55  1  0  0  0  0
 24 56  1  0  0  0  0
 25 57  1  0  0  0  0
 25 58  1  0  0  0  0
 25 59  1  0  0  0  0
M  END
> <PUBCHEM_COMPOUND_CID>
4960

> <PUBCHEM_COMPOUND_CANONICALIZED>
1

> <PUBCHEM_CACTVS_COMPLEXITY>
499

> <PUBCHEM_CACTVS_HBOND_ACCEPTOR>
5

> <PUBCHEM_CACTVS_HBOND_DONOR>
3

> <PUBCHEM_CACTVS_ROTATABLE_BOND>
11

> <PUBCHEM_CACTVS_SUBSKEYS>
AAADcfB4OAAAAAAAAAAAAAAAAAAAAaIAAAAAAAAAAAASAAAAAAAAGgAACAAADRSggAICCAAABgCIACDSCAAACAAgIAAICAEAAAgAFBIAAQACUAAFwAAIEAPI6KwOgAAAAAAAAAAAAAAAAAAAAIQADAAAAA==

> <PUBCHEM_IUPAC_OPENEYE_NAME>
6-[5-hydroxy-4-(3-hydroxyoct-1-enyl)-3,3a,4,5,6,6a-hexahydrocyclopenta[b]furan-2-ylidene]hexanoic acid

> <PUBCHEM_IUPAC_CAS_NAME>
6-[5-hydroxy-4-(3-hydroxyoct-1-enyl)-3,3a,4,5,6,6a-hexahydrocyclopenta[b]furan-2-ylidene]hexanoic acid

> <PUBCHEM_IUPAC_NAME>
6-[5-hydroxy-4-(3-hydroxyoct-1-enyl)-3,3a,4,5,6,6a-hexahydrocyclopenta[b]furan-2-ylidene]hexanoic acid

> <PUBCHEM_IUPAC_SYSTEMATIC_NAME>
6-[5-oxidanyl-4-(3-oxidanyloct-1-enyl)-3,3a,4,5,6,6a-hexahydrocyclopenta[b]furan-2-ylidene]hexanoic acid

> <PUBCHEM_IUPAC_TRADITIONAL_NAME>
6-[5-hydroxy-4-(3-hydroxyoct-1-enyl)-3,3a,4,5,6,6a-hexahydrocyclopenta[b]furan-2-ylidene]hexanoic acid

> <PUBCHEM_IUPAC_INCHI>
InChI=1S/C21H34O5/c1-2-3-5-8-15(22)11-12-17-18-13-16(26-20(18)14-19(17)23)9-6-4-7-10-21(24)25/h9,11-12,15,17-20,22-23H,2-8,10,13-14H2,1H3,(H,24,25)

> <PUBCHEM_IUPAC_INCHIKEY>
IFFVKICFMIUVQX-UHFFFAOYSA-N

> <PUBCHEM_XLOGP3_AA>
3.5

> <PUBCHEM_EXACT_MASS>
366.240624

> <PUBCHEM_MOLECULAR_FORMULA>
C21H34O5

> <PUBCHEM_MOLECULAR_WEIGHT>
366.49166

> <PUBCHEM_OPENEYE_CAN_SMILES>
CCCCCC(C=CC1C(CC2C1CC(=CCCCCC(=O)O)O2)O)O

> <PUBCHEM_OPENEYE_ISO_SMILES>
CCCCCC(C=CC1C(CC2C1CC(=CCCCCC(=O)O)O2)O)O

> <PUBCHEM_CACTVS_TPSA>
87

> <PUBCHEM_MONOISOTOPIC_WEIGHT>
366.240624

> <PUBCHEM_TOTAL_CHARGE>
0

> <PUBCHEM_HEAVY_ATOM_COUNT>
26

> <PUBCHEM_ATOM_DEF_STEREO_COUNT>
0

> <PUBCHEM_ATOM_UDEF_STEREO_COUNT>
5

> <PUBCHEM_BOND_DEF_STEREO_COUNT>
0

> <PUBCHEM_BOND_UDEF_STEREO_COUNT>
2

> <PUBCHEM_ISOTOPIC_ATOM_COUNT>
0

> <PUBCHEM_COMPONENT_COUNT>
1

> <PUBCHEM_CACTVS_TAUTO_COUNT>
1

> <PUBCHEM_COORDINATE_TYPE>
1
5
255

> <PUBCHEM_BONDANNOTATIONS>
12  14  1
13  15  1
17  41  3
6  27  3
7  28  3
8  29  3
9  30  3

$$$$

