11946
  -OEChem-06261206192D

 19 20  0     0  0  0  0  0  0999 V2000
    2.0000   -0.0173    0.0000 O   0  5  0  0  0  0  0  0  0  0  0  0
    2.8660   -1.5173    0.0000 O   0  0  0  0  0  0  0  0  0  0  0  0
    6.3580   -0.5520    0.0000 N   0  0  0  0  0  0  0  0  0  0  0  0
    2.8660   -0.5173    0.0000 N   0  3  0  0  0  0  0  0  0  0  0  0
    5.4641    0.9827    0.0000 C   0  0  0  0  0  0  0  0  0  0  0  0
    5.4641   -0.0173    0.0000 C   0  0  0  0  0  0  0  0  0  0  0  0
    4.5981   -0.5173    0.0000 C   0  0  0  0  0  0  0  0  0  0  0  0
    4.5981    1.4827    0.0000 C   0  0  0  0  0  0  0  0  0  0  0  0
    3.7320   -0.0173    0.0000 C   0  0  0  0  0  0  0  0  0  0  0  0
    3.7320    0.9827    0.0000 C   0  0  0  0  0  0  0  0  0  0  0  0
    6.3580    1.5173    0.0000 C   0  0  0  0  0  0  0  0  0  0  0  0
    7.2641    1.0035    0.0000 C   0  0  0  0  0  0  0  0  0  0  0  0
    7.2641   -0.0381    0.0000 C   0  0  0  0  0  0  0  0  0  0  0  0
    4.5981   -1.1373    0.0000 H   0  0  0  0  0  0  0  0  0  0  0  0
    4.5981    2.1027    0.0000 H   0  0  0  0  0  0  0  0  0  0  0  0
    3.1951    1.2927    0.0000 H   0  0  0  0  0  0  0  0  0  0  0  0
    6.3509    2.1373    0.0000 H   0  0  0  0  0  0  0  0  0  0  0  0
    7.7998    1.3156    0.0000 H   0  0  0  0  0  0  0  0  0  0  0  0
    7.7998   -0.3502    0.0000 H   0  0  0  0  0  0  0  0  0  0  0  0
  1  4  1  0  0  0  0
  2  4  2  0  0  0  0
  3  6  1  0  0  0  0
  3 13  2  0  0  0  0
  4  9  1  0  0  0  0
  5  6  2  0  0  0  0
  5  8  1  0  0  0  0
  5 11  1  0  0  0  0
  6  7  1  0  0  0  0
  7  9  2  0  0  0  0
  7 14  1  0  0  0  0
  8 10  2  0  0  0  0
  8 15  1  0  0  0  0
  9 10  1  0  0  0  0
 10 16  1  0  0  0  0
 11 12  2  0  0  0  0
 11 17  1  0  0  0  0
 12 13  1  0  0  0  0
 12 18  1  0  0  0  0
 13 19  1  0  0  0  0
M  CHG  2   1  -1   4   1
M  END
> <PUBCHEM_COMPOUND_CID>
11946

> <PUBCHEM_COMPOUND_CANONICALIZED>
1

> <PUBCHEM_CACTVS_COMPLEXITY>
202

> <PUBCHEM_CACTVS_HBOND_ACCEPTOR>
3

> <PUBCHEM_CACTVS_HBOND_DONOR>
0

> <PUBCHEM_CACTVS_ROTATABLE_BOND>
0

> <PUBCHEM_CACTVS_SUBSKEYS>
AAADcYBzMAAAAAAAAAAAAAAAAAAAAAAAAAA8QAAAAAAAAACx8AAAHAAEAAAADAjBHgQ8wPIYUAChAzRnRwCCgCAxAiAo2CA4ZJoIIOLA0dGEJAhggADIyAcQgIAOCAAAAAQCAAAQAAAACAQAAAAAAAAAAA==

> <PUBCHEM_IUPAC_OPENEYE_NAME>
7-nitroquinoline

> <PUBCHEM_IUPAC_CAS_NAME>
7-nitroquinoline

> <PUBCHEM_IUPAC_NAME>
7-nitroquinoline

> <PUBCHEM_IUPAC_SYSTEMATIC_NAME>
7-nitroquinoline

> <PUBCHEM_IUPAC_TRADITIONAL_NAME>
7-nitroquinoline

> <PUBCHEM_IUPAC_INCHI>
InChI=1S/C9H6N2O2/c12-11(13)8-4-3-7-2-1-5-10-9(7)6-8/h1-6H

> <PUBCHEM_IUPAC_INCHIKEY>
MXKZSCXYMSXOAO-UHFFFAOYSA-N

> <PUBCHEM_XLOGP3>
1.8

> <PUBCHEM_EXACT_MASS>
174.042927

> <PUBCHEM_MOLECULAR_FORMULA>
C9H6N2O2

> <PUBCHEM_MOLECULAR_WEIGHT>
174.15614

> <PUBCHEM_OPENEYE_CAN_SMILES>
C1=CC2=C(C=C(C=C2)[N+](=O)[O-])N=C1

> <PUBCHEM_OPENEYE_ISO_SMILES>
C1=CC2=C(C=C(C=C2)[N+](=O)[O-])N=C1

> <PUBCHEM_CACTVS_TPSA>
58.7

> <PUBCHEM_MONOISOTOPIC_WEIGHT>
174.042927

> <PUBCHEM_TOTAL_CHARGE>
0

> <PUBCHEM_HEAVY_ATOM_COUNT>
13

> <PUBCHEM_ATOM_DEF_STEREO_COUNT>
0

> <PUBCHEM_ATOM_UDEF_STEREO_COUNT>
0

> <PUBCHEM_BOND_DEF_STEREO_COUNT>
0

> <PUBCHEM_BOND_UDEF_STEREO_COUNT>
0

> <PUBCHEM_ISOTOPIC_ATOM_COUNT>
0

> <PUBCHEM_COMPONENT_COUNT>
1

> <PUBCHEM_CACTVS_TAUTO_COUNT>
1

> <PUBCHEM_COORDINATE_TYPE>
1
5
255

> <PUBCHEM_BONDANNOTATIONS>
11  12  8
12  13  8
3  13  8
3  6  8
5  11  8
5  6  8
5  8  8
6  7  8
7  9  8
8  10  8
9  10  8

$$$$

