4043
  -OEChem-06251223502D

 57 60  0     1  0  0  0  0  0999 V2000
    4.7950    1.5348    0.0000 O   0  0  0  0  0  0  0  0  0  0  0  0
    7.9821    3.0344    0.0000 O   0  0  0  0  0  0  0  0  0  0  0  0
    2.0000   -2.0175    0.0000 O   0  0  0  0  0  0  0  0  0  0  0  0
    7.3931    0.0348    0.0000 C   0  0  3  0  0  0  0  0  0  0  0  0
    7.3931    1.0348    0.0000 C   0  0  3  0  0  0  0  0  0  0  0  0
    6.5271   -0.4652    0.0000 C   0  0  3  0  0  0  0  0  0  0  0  0
    5.6610    0.0348    0.0000 C   0  0  3  0  0  0  0  0  0  0  0  0
    4.7510   -0.4720    0.0000 C   0  0  3  0  0  0  0  0  0  0  0  0
    6.5271    1.5348    0.0000 C   0  0  0  0  0  0  0  0  0  0  0  0
    5.6610    1.0348    0.0000 C   0  0  3  0  0  0  0  0  0  0  0  0
    8.3393    1.3396    0.0000 C   0  0  3  0  0  0  0  0  0  0  0  0
    8.3393   -0.2699    0.0000 C   0  0  0  0  0  0  0  0  0  0  0  0
    6.5431   -1.5067    0.0000 C   0  0  0  0  0  0  0  0  0  0  0  0
    8.9229    0.5349    0.0000 C   0  0  0  0  0  0  0  0  0  0  0  0
    5.6451   -2.0344    0.0000 C   0  0  3  0  0  0  0  0  0  0  0  0
    4.7430   -1.5136    0.0000 C   0  0  0  0  0  0  0  0  0  0  0  0
    7.3931    2.0348    0.0000 C   0  0  0  0  0  0  0  0  0  0  0  0
    3.8242    0.0921    0.0000 C   0  0  0  0  0  0  0  0  0  0  0  0
    4.7587    0.5280    0.0000 C   0  0  0  0  0  0  0  0  0  0  0  0
    8.6500    2.2901    0.0000 C   0  0  0  0  0  0  0  0  0  0  0  0
    2.8763   -0.4359    0.0000 C   0  0  0  0  0  0  0  0  0  0  0  0
    3.8076   -2.0633    0.0000 C   0  0  0  0  0  0  0  0  0  0  0  0
    5.6489   -3.0344    0.0000 C   0  0  0  0  0  0  0  0  0  0  0  0
    2.8680   -1.5208    0.0000 C   0  0  0  0  0  0  0  0  0  0  0  0
    9.6285    2.4963    0.0000 C   0  0  0  0  0  0  0  0  0  0  0  0
    7.4587   -0.5817    0.0000 H   0  0  0  0  0  0  0  0  0  0  0  0
    7.0664   -0.7710    0.0000 H   0  0  0  0  0  0  0  0  0  0  0  0
    6.1980    0.3448    0.0000 H   0  0  0  0  0  0  0  0  0  0  0  0
    6.9256    2.0098    0.0000 H   0  0  0  0  0  0  0  0  0  0  0  0
    6.1285    2.0098    0.0000 H   0  0  0  0  0  0  0  0  0  0  0  0
    5.6610    1.6548    0.0000 H   0  0  0  0  0  0  0  0  0  0  0  0
    7.9018    1.7789    0.0000 H   0  0  0  0  0  0  0  0  0  0  0  0
    8.0883   -0.8368    0.0000 H   0  0  0  0  0  0  0  0  0  0  0  0
    8.8767   -0.5791    0.0000 H   0  0  0  0  0  0  0  0  0  0  0  0
    6.7612   -2.0871    0.0000 H   0  0  0  0  0  0  0  0  0  0  0  0
    7.1523   -1.3912    0.0000 H   0  0  0  0  0  0  0  0  0  0  0  0
    9.3838    0.1201    0.0000 H   0  0  0  0  0  0  0  0  0  0  0  0
    9.3838    0.9496    0.0000 H   0  0  0  0  0  0  0  0  0  0  0  0
    5.1087   -2.3454    0.0000 H   0  0  0  0  0  0  0  0  0  0  0  0
    8.0131    2.0348    0.0000 H   0  0  0  0  0  0  0  0  0  0  0  0
    7.3931    2.6548    0.0000 H   0  0  0  0  0  0  0  0  0  0  0  0
    6.7731    2.0348    0.0000 H   0  0  0  0  0  0  0  0  0  0  0  0
    4.2324    0.5587    0.0000 H   0  0  0  0  0  0  0  0  0  0  0  0
    3.4343    0.5741    0.0000 H   0  0  0  0  0  0  0  0  0  0  0  0
    5.3787    0.5232    0.0000 H   0  0  0  0  0  0  0  0  0  0  0  0
    4.7635    1.1480    0.0000 H   0  0  0  0  0  0  0  0  0  0  0  0
    4.1388    0.5328    0.0000 H   0  0  0  0  0  0  0  0  0  0  0  0
    2.6718    0.1494    0.0000 H   0  0  0  0  0  0  0  0  0  0  0  0
    2.2647   -0.5372    0.0000 H   0  0  0  0  0  0  0  0  0  0  0  0
    3.8100   -2.6833    0.0000 H   0  0  0  0  0  0  0  0  0  0  0  0
    5.0289   -3.0368    0.0000 H   0  0  0  0  0  0  0  0  0  0  0  0
    5.6513   -3.6544    0.0000 H   0  0  0  0  0  0  0  0  0  0  0  0
    6.2689   -3.0320    0.0000 H   0  0  0  0  0  0  0  0  0  0  0  0
    4.7950    2.1548    0.0000 H   0  0  0  0  0  0  0  0  0  0  0  0
    9.7563    1.8896    0.0000 H   0  0  0  0  0  0  0  0  0  0  0  0
   10.2351    2.6242    0.0000 H   0  0  0  0  0  0  0  0  0  0  0  0
    9.5006    3.1030    0.0000 H   0  0  0  0  0  0  0  0  0  0  0  0
  1 10  1  0  0  0  0
  1 54  1  0  0  0  0
  2 20  2  0  0  0  0
  3 24  2  0  0  0  0
  4  5  1  0  0  0  0
  4  6  1  0  0  0  0
  4 12  1  0  0  0  0
  4 26  1  0  0  0  0
  5  9  1  0  0  0  0
  5 11  1  0  0  0  0
  5 17  1  0  0  0  0
  6  7  1  0  0  0  0
  6 13  1  0  0  0  0
  6 27  1  0  0  0  0
  7  8  1  0  0  0  0
  7 10  1  0  0  0  0
  7 28  1  0  0  0  0
  8 16  1  0  0  0  0
  8 18  1  0  0  0  0
  8 19  1  0  0  0  0
  9 10  1  0  0  0  0
  9 29  1  0  0  0  0
  9 30  1  0  0  0  0
 10 31  1  0  0  0  0
 11 14  1  0  0  0  0
 11 20  1  0  0  0  0
 11 32  1  0  0  0  0
 12 14  1  0  0  0  0
 12 33  1  0  0  0  0
 12 34  1  0  0  0  0
 13 15  1  0  0  0  0
 13 35  1  0  0  0  0
 13 36  1  0  0  0  0
 14 37  1  0  0  0  0
 14 38  1  0  0  0  0
 15 16  1  0  0  0  0
 15 23  1  0  0  0  0
 15 39  1  0  0  0  0
 16 22  2  0  0  0  0
 17 40  1  0  0  0  0
 17 41  1  0  0  0  0
 17 42  1  0  0  0  0
 18 21  1  0  0  0  0
 18 43  1  0  0  0  0
 18 44  1  0  0  0  0
 19 45  1  0  0  0  0
 19 46  1  0  0  0  0
 19 47  1  0  0  0  0
 20 25  1  0  0  0  0
 21 24  1  0  0  0  0
 21 48  1  0  0  0  0
 21 49  1  0  0  0  0
 22 24  1  0  0  0  0
 22 50  1  0  0  0  0
 23 51  1  0  0  0  0
 23 52  1  0  0  0  0
 23 53  1  0  0  0  0
 25 55  1  0  0  0  0
 25 56  1  0  0  0  0
 25 57  1  0  0  0  0
M  END
> <PUBCHEM_COMPOUND_CID>
4043

> <PUBCHEM_COMPOUND_CANONICALIZED>
1

> <PUBCHEM_CACTVS_COMPLEXITY>
650

> <PUBCHEM_CACTVS_HBOND_ACCEPTOR>
3

> <PUBCHEM_CACTVS_HBOND_DONOR>
1

> <PUBCHEM_CACTVS_ROTATABLE_BOND>
1

> <PUBCHEM_CACTVS_SUBSKEYS>
AAADcfB4MAAAAAAAAAAAAAAAAAAAAYAAAAAwYIAAAAAAAGDAAAAAGgAACAAADxSggAICAAAAAgCIAqBSAAAAAAAgAAAACAEAAEgAEBIAAQAAQAAEgAAIAQOIzPDPgAAAAAAAAADAAAYAADAAAQAACAAAAA==

> <PUBCHEM_IUPAC_OPENEYE_NAME>
17-acetyl-11-hydroxy-6,10,13-trimethyl-1,2,6,7,8,9,11,12,14,15,16,17-dodecahydrocyclopenta[a]phenanthren-3-one

> <PUBCHEM_IUPAC_CAS_NAME>
17-acetyl-11-hydroxy-6,10,13-trimethyl-1,2,6,7,8,9,11,12,14,15,16,17-dodecahydrocyclopenta[a]phenanthren-3-one

> <PUBCHEM_IUPAC_NAME>
17-acetyl-11-hydroxy-6,10,13-trimethyl-1,2,6,7,8,9,11,12,14,15,16,17-dodecahydrocyclopenta[a]phenanthren-3-one

> <PUBCHEM_IUPAC_SYSTEMATIC_NAME>
17-ethanoyl-6,10,13-trimethyl-11-oxidanyl-1,2,6,7,8,9,11,12,14,15,16,17-dodecahydrocyclopenta[a]phenanthren-3-one

> <PUBCHEM_IUPAC_TRADITIONAL_NAME>
17-acetyl-11-hydroxy-6,10,13-trimethyl-1,2,6,7,8,9,11,12,14,15,16,17-dodecahydrocyclopenta[a]phenanthren-3-one

> <PUBCHEM_IUPAC_INCHI>
InChI=1S/C22H32O3/c1-12-9-15-17-6-5-16(13(2)23)22(17,4)11-19(25)20(15)21(3)8-7-14(24)10-18(12)21/h10,12,15-17,19-20,25H,5-9,11H2,1-4H3

> <PUBCHEM_IUPAC_INCHIKEY>
GZENKSODFLBBHQ-UHFFFAOYSA-N

> <PUBCHEM_XLOGP3>
2.7

> <PUBCHEM_EXACT_MASS>
344.235145

> <PUBCHEM_MOLECULAR_FORMULA>
C22H32O3

> <PUBCHEM_MOLECULAR_WEIGHT>
344.48768

> <PUBCHEM_OPENEYE_CAN_SMILES>
CC1CC2C3CCC(C3(CC(C2C4(C1=CC(=O)CC4)C)O)C)C(=O)C

> <PUBCHEM_OPENEYE_ISO_SMILES>
CC1CC2C3CCC(C3(CC(C2C4(C1=CC(=O)CC4)C)O)C)C(=O)C

> <PUBCHEM_CACTVS_TPSA>
54.4

> <PUBCHEM_MONOISOTOPIC_WEIGHT>
344.235145

> <PUBCHEM_TOTAL_CHARGE>
0

> <PUBCHEM_HEAVY_ATOM_COUNT>
25

> <PUBCHEM_ATOM_DEF_STEREO_COUNT>
0

> <PUBCHEM_ATOM_UDEF_STEREO_COUNT>
8

> <PUBCHEM_BOND_DEF_STEREO_COUNT>
0

> <PUBCHEM_BOND_UDEF_STEREO_COUNT>
0

> <PUBCHEM_ISOTOPIC_ATOM_COUNT>
0

> <PUBCHEM_COMPONENT_COUNT>
1

> <PUBCHEM_CACTVS_TAUTO_COUNT>
15

> <PUBCHEM_COORDINATE_TYPE>
1
5
255

> <PUBCHEM_BONDANNOTATIONS>
10  1  3
11  20  3
15  23  3
4  12  3
5  17  3
6  13  3
7  10  3
8  19  3

$$$$

