11872
  -OEChem-06261206132D

 20 20  0     0  0  0  0  0  0999 V2000
    4.5981    1.8450    0.0000 O   0  0  0  0  0  0  0  0  0  0  0  0
    7.1962    0.3450    0.0000 O   0  5  0  0  0  0  0  0  0  0  0  0
    2.0000    0.3450    0.0000 O   0  5  0  0  0  0  0  0  0  0  0  0
    6.3301    1.8450    0.0000 O   0  0  0  0  0  0  0  0  0  0  0  0
    2.8660    1.8450    0.0000 O   0  0  0  0  0  0  0  0  0  0  0  0
    6.3301    0.8450    0.0000 N   0  3  0  0  0  0  0  0  0  0  0  0
    2.8660    0.8450    0.0000 N   0  3  0  0  0  0  0  0  0  0  0  0
    4.5981   -1.1550    0.0000 C   0  0  0  0  0  0  0  0  0  0  0  0
    5.4641    0.3450    0.0000 C   0  0  0  0  0  0  0  0  0  0  0  0
    3.7320    0.3450    0.0000 C   0  0  0  0  0  0  0  0  0  0  0  0
    4.5981    0.8450    0.0000 C   0  0  0  0  0  0  0  0  0  0  0  0
    5.4641   -0.6550    0.0000 C   0  0  0  0  0  0  0  0  0  0  0  0
    3.7320   -0.6550    0.0000 C   0  0  0  0  0  0  0  0  0  0  0  0
    4.5981   -2.1550    0.0000 C   0  0  0  0  0  0  0  0  0  0  0  0
    6.0010   -0.9650    0.0000 H   0  0  0  0  0  0  0  0  0  0  0  0
    3.1951   -0.9650    0.0000 H   0  0  0  0  0  0  0  0  0  0  0  0
    3.9781   -2.1550    0.0000 H   0  0  0  0  0  0  0  0  0  0  0  0
    4.5981   -2.7750    0.0000 H   0  0  0  0  0  0  0  0  0  0  0  0
    5.2181   -2.1550    0.0000 H   0  0  0  0  0  0  0  0  0  0  0  0
    5.1350    2.1550    0.0000 H   0  0  0  0  0  0  0  0  0  0  0  0
  1 11  1  0  0  0  0
  1 20  1  0  0  0  0
  2  6  1  0  0  0  0
  3  7  1  0  0  0  0
  4  6  2  0  0  0  0
  5  7  2  0  0  0  0
  6  9  1  0  0  0  0
  7 10  1  0  0  0  0
  8 12  2  0  0  0  0
  8 13  1  0  0  0  0
  8 14  1  0  0  0  0
  9 11  2  0  0  0  0
  9 12  1  0  0  0  0
 10 11  1  0  0  0  0
 10 13  2  0  0  0  0
 12 15  1  0  0  0  0
 13 16  1  0  0  0  0
 14 17  1  0  0  0  0
 14 18  1  0  0  0  0
 14 19  1  0  0  0  0
M  CHG  4   2  -1   3  -1   6   1   7   1
M  END
> <PUBCHEM_COMPOUND_CID>
11872

> <PUBCHEM_COMPOUND_CANONICALIZED>
1

> <PUBCHEM_CACTVS_COMPLEXITY>
221

> <PUBCHEM_CACTVS_HBOND_ACCEPTOR>
5

> <PUBCHEM_CACTVS_HBOND_DONOR>
1

> <PUBCHEM_CACTVS_ROTATABLE_BOND>
0

> <PUBCHEM_CACTVS_SUBSKEYS>
AAADcYBjOAAAAAAAAAAAAAAAAAAAAAAAAAAwAAAAAAAAAAABAAAAHgAECAAADAyBmAAyxoAQQgCBAiRCQwCCAAAgIgAgiAAFbIoKJiKS0dOAcABkwFEI2AeQwAAOIAAAQAQAEABAAACACAAgAAAAAAAAAA==

> <PUBCHEM_IUPAC_OPENEYE_NAME>
4-methyl-2,6-dinitro-phenol

> <PUBCHEM_IUPAC_CAS_NAME>
4-methyl-2,6-dinitrophenol

> <PUBCHEM_IUPAC_NAME>
4-methyl-2,6-dinitrophenol

> <PUBCHEM_IUPAC_SYSTEMATIC_NAME>
4-methyl-2,6-dinitro-phenol

> <PUBCHEM_IUPAC_TRADITIONAL_NAME>
4-methyl-2,6-dinitro-phenol

> <PUBCHEM_IUPAC_INCHI>
InChI=1S/C7H6N2O5/c1-4-2-5(8(11)12)7(10)6(3-4)9(13)14/h2-3,10H,1H3

> <PUBCHEM_IUPAC_INCHIKEY>
HOYRZHJJAHRMLL-UHFFFAOYSA-N

> <PUBCHEM_XLOGP3>
1.7

> <PUBCHEM_EXACT_MASS>
198.027671

> <PUBCHEM_MOLECULAR_FORMULA>
C7H6N2O5

> <PUBCHEM_MOLECULAR_WEIGHT>
198.13294

> <PUBCHEM_OPENEYE_CAN_SMILES>
CC1=CC(=C(C(=C1)[N+](=O)[O-])O)[N+](=O)[O-]

> <PUBCHEM_OPENEYE_ISO_SMILES>
CC1=CC(=C(C(=C1)[N+](=O)[O-])O)[N+](=O)[O-]

> <PUBCHEM_CACTVS_TPSA>
112

> <PUBCHEM_MONOISOTOPIC_WEIGHT>
198.027671

> <PUBCHEM_TOTAL_CHARGE>
0

> <PUBCHEM_HEAVY_ATOM_COUNT>
14

> <PUBCHEM_ATOM_DEF_STEREO_COUNT>
0

> <PUBCHEM_ATOM_UDEF_STEREO_COUNT>
0

> <PUBCHEM_BOND_DEF_STEREO_COUNT>
0

> <PUBCHEM_BOND_UDEF_STEREO_COUNT>
0

> <PUBCHEM_ISOTOPIC_ATOM_COUNT>
0

> <PUBCHEM_COMPONENT_COUNT>
1

> <PUBCHEM_CACTVS_TAUTO_COUNT>
3

> <PUBCHEM_COORDINATE_TYPE>
1
5
255

> <PUBCHEM_BONDANNOTATIONS>
10  11  8
10  13  8
8  12  8
8  13  8
9  11  8
9  12  8

$$$$

