13431
  -OEChem-06261214102D

 29 31  0     1  0  0  0  0  0999 V2000
    2.9818   -2.5017    0.0000 F   0  0  0  0  0  0  0  0  0  0  0  0
    4.5390    1.8817    0.0000 O   0  0  0  0  0  0  0  0  0  0  0  0
    2.8070    1.8817    0.0000 O   0  0  0  0  0  0  0  0  0  0  0  0
    3.6730    0.3817    0.0000 C   0  0  0  0  0  0  0  0  0  0  0  0
    4.5092   -1.0666    0.0000 C   0  0  3  0  0  0  0  0  0  0  0  0
    2.8368   -1.0666    0.0000 C   0  0  3  0  0  0  0  0  0  0  0  0
    2.9819   -1.5017    0.0000 C   0  0  0  0  0  0  0  0  0  0  0  0
    4.5092   -0.1011    0.0000 C   0  0  0  0  0  0  0  0  0  0  0  0
    2.8368   -0.1011    0.0000 C   0  0  0  0  0  0  0  0  0  0  0  0
    2.9819   -0.4564    0.0000 C   0  0  0  0  0  0  0  0  0  0  0  0
    3.6730   -1.3694    0.0000 C   0  0  0  0  0  0  0  0  0  0  0  0
    3.8876   -1.9785    0.0000 C   0  0  0  0  0  0  0  0  0  0  0  0
    2.0000   -1.5494    0.0000 C   0  0  0  0  0  0  0  0  0  0  0  0
    3.6730    1.3817    0.0000 C   0  0  0  0  0  0  0  0  0  0  0  0
    5.1016   -1.2493    0.0000 H   0  0  0  0  0  0  0  0  0  0  0  0
    2.8912   -1.6842    0.0000 H   0  0  0  0  0  0  0  0  0  0  0  0
    5.1198   -0.2087    0.0000 H   0  0  0  0  0  0  0  0  0  0  0  0
    4.7212    0.4815    0.0000 H   0  0  0  0  0  0  0  0  0  0  0  0
    2.6247    0.4815    0.0000 H   0  0  0  0  0  0  0  0  0  0  0  0
    2.2262   -0.2087    0.0000 H   0  0  0  0  0  0  0  0  0  0  0  0
    2.6383    0.0596    0.0000 H   0  0  0  0  0  0  0  0  0  0  0  0
    2.3885   -0.6359    0.0000 H   0  0  0  0  0  0  0  0  0  0  0  0
    3.3030   -1.8669    0.0000 H   0  0  0  0  0  0  0  0  0  0  0  0
    4.0430   -1.8669    0.0000 H   0  0  0  0  0  0  0  0  0  0  0  0
    3.5782   -2.5158    0.0000 H   0  0  0  0  0  0  0  0  0  0  0  0
    4.4127   -2.3081    0.0000 H   0  0  0  0  0  0  0  0  0  0  0  0
    1.5188   -1.1585    0.0000 H   0  0  0  0  0  0  0  0  0  0  0  0
    1.8068   -2.1385    0.0000 H   0  0  0  0  0  0  0  0  0  0  0  0
    4.5390    2.5017    0.0000 H   0  0  0  0  0  0  0  0  0  0  0  0
  1  7  1  0  0  0  0
  2 14  1  0  0  0  0
  2 29  1  0  0  0  0
  3 14  2  0  0  0  0
  4  8  1  0  0  0  0
  4  9  1  0  0  0  0
  4 10  1  0  0  0  0
  4 14  1  0  0  0  0
  5  8  1  0  0  0  0
  5 11  1  0  0  0  0
  5 12  1  0  0  0  0
  5 15  1  0  0  0  0
  6  9  1  0  0  0  0
  6 11  1  0  0  0  0
  6 13  1  0  0  0  0
  6 16  1  0  0  0  0
  7 10  1  0  0  0  0
  7 12  1  0  0  0  0
  7 13  1  0  0  0  0
  8 17  1  0  0  0  0
  8 18  1  0  0  0  0
  9 19  1  0  0  0  0
  9 20  1  0  0  0  0
 10 21  1  0  0  0  0
 10 22  1  0  0  0  0
 11 23  1  0  0  0  0
 11 24  1  0  0  0  0
 12 25  1  0  0  0  0
 12 26  1  0  0  0  0
 13 27  1  0  0  0  0
 13 28  1  0  0  0  0
M  END
> <PUBCHEM_COMPOUND_CID>
13431

> <PUBCHEM_COMPOUND_CANONICALIZED>
1

> <PUBCHEM_CACTVS_COMPLEXITY>
286

> <PUBCHEM_CACTVS_HBOND_ACCEPTOR>
3

> <PUBCHEM_CACTVS_HBOND_DONOR>
1

> <PUBCHEM_CACTVS_ROTATABLE_BOND>
1

> <PUBCHEM_CACTVS_SUBSKEYS>
AAADccBwMQAAAAAAAAAAAAAAAAAAAAAAAAAwYMGAAAAAAAAAAAAAGwAACAAADwCAgAAACAAAAgAIAACQCAAAAAAAAAAAAAEAAAAAABIAAAAAQAAEAAAAAAGIyOCPAAAAAAAAAAAAAAQAAAAAAAAAAAAAAA==

> <PUBCHEM_IUPAC_OPENEYE_NAME>
3-fluoroadamantane-1-carboxylic acid

> <PUBCHEM_IUPAC_CAS_NAME>
3-fluoro-1-adamantanecarboxylic acid

> <PUBCHEM_IUPAC_NAME>
3-fluoroadamantane-1-carboxylic acid

> <PUBCHEM_IUPAC_SYSTEMATIC_NAME>
3-fluoranyladamantane-1-carboxylic acid

> <PUBCHEM_IUPAC_TRADITIONAL_NAME>
3-fluoroadamantane-1-carboxylic acid

> <PUBCHEM_IUPAC_INCHI>
InChI=1S/C11H15FO2/c12-11-4-7-1-8(5-11)3-10(2-7,6-11)9(13)14/h7-8H,1-6H2,(H,13,14)

> <PUBCHEM_IUPAC_INCHIKEY>
SJULXDNAWKQQEV-UHFFFAOYSA-N

> <PUBCHEM_XLOGP3_AA>
2

> <PUBCHEM_EXACT_MASS>
198.105608

> <PUBCHEM_MOLECULAR_FORMULA>
C11H15FO2

> <PUBCHEM_MOLECULAR_WEIGHT>
198.234003

> <PUBCHEM_OPENEYE_CAN_SMILES>
C1C2CC3(CC1CC(C2)(C3)F)C(=O)O

> <PUBCHEM_OPENEYE_ISO_SMILES>
C1C2CC3(CC1CC(C2)(C3)F)C(=O)O

> <PUBCHEM_CACTVS_TPSA>
37.3

> <PUBCHEM_MONOISOTOPIC_WEIGHT>
198.105608

> <PUBCHEM_TOTAL_CHARGE>
0

> <PUBCHEM_HEAVY_ATOM_COUNT>
14

> <PUBCHEM_ATOM_DEF_STEREO_COUNT>
0

> <PUBCHEM_ATOM_UDEF_STEREO_COUNT>
2

> <PUBCHEM_BOND_DEF_STEREO_COUNT>
0

> <PUBCHEM_BOND_UDEF_STEREO_COUNT>
0

> <PUBCHEM_ISOTOPIC_ATOM_COUNT>
0

> <PUBCHEM_COMPONENT_COUNT>
1

> <PUBCHEM_CACTVS_TAUTO_COUNT>
1

> <PUBCHEM_COORDINATE_TYPE>
1
5
255

> <PUBCHEM_BONDANNOTATIONS>
5  8  3
6  9  3

$$$$

