582764
  -OEChem-06241222442D

 35 36  0     1  0  0  0  0  0999 V2000
    6.3246   -1.3397    0.0000 O   0  0  0  0  0  0  0  0  0  0  0  0
    4.6318    1.8437    0.0000 O   0  0  0  0  0  0  0  0  0  0  0  0
    4.6783   -2.4111    0.0000 N   0  0  0  0  0  0  0  0  0  0  0  0
    6.2781    1.3056    0.0000 N   0  0  0  0  0  0  0  0  0  0  0  0
    7.6138   -0.1830    0.0000 N   0  0  0  0  0  0  0  0  0  0  0  0
    4.6783   -0.8016    0.0000 C   0  0  3  0  0  0  0  0  0  0  0  0
    4.9889    0.1489    0.0000 C   0  0  0  0  0  0  0  0  0  0  0  0
    5.2619   -1.6064    0.0000 C   0  0  0  0  0  0  0  0  0  0  0  0
    3.7320   -1.1064    0.0000 C   0  0  0  0  0  0  0  0  0  0  0  0
    5.9674    0.3551    0.0000 C   0  0  3  0  0  0  0  0  0  0  0  0
    3.7320   -2.1064    0.0000 C   0  0  0  0  0  0  0  0  0  0  0  0
    2.8660   -0.6064    0.0000 C   0  0  0  0  0  0  0  0  0  0  0  0
    2.8660   -2.6064    0.0000 C   0  0  0  0  0  0  0  0  0  0  0  0
    6.6353   -0.3892    0.0000 C   0  0  0  0  0  0  0  0  0  0  0  0
    2.0000   -1.1064    0.0000 C   0  0  0  0  0  0  0  0  0  0  0  0
    2.0000   -2.1064    0.0000 C   0  0  0  0  0  0  0  0  0  0  0  0
    5.6103    2.0499    0.0000 C   0  0  0  0  0  0  0  0  0  0  0  0
    5.9209    3.0004    0.0000 C   0  0  0  0  0  0  0  0  0  0  0  0
    5.2908   -0.7055    0.0000 H   0  0  0  0  0  0  0  0  0  0  0  0
    4.9684    0.7685    0.0000 H   0  0  0  0  0  0  0  0  0  0  0  0
    4.3751    0.2362    0.0000 H   0  0  0  0  0  0  0  0  0  0  0  0
    5.7227   -2.0211    0.0000 H   0  0  0  0  0  0  0  0  0  0  0  0
    5.7227   -1.1917    0.0000 H   0  0  0  0  0  0  0  0  0  0  0  0
    5.5534    0.8166    0.0000 H   0  0  0  0  0  0  0  0  0  0  0  0
    4.8709   -3.0004    0.0000 H   0  0  0  0  0  0  0  0  0  0  0  0
    2.8660    0.0136    0.0000 H   0  0  0  0  0  0  0  0  0  0  0  0
    2.8660   -3.2264    0.0000 H   0  0  0  0  0  0  0  0  0  0  0  0
    6.8848    1.4335    0.0000 H   0  0  0  0  0  0  0  0  0  0  0  0
    1.4631   -0.7964    0.0000 H   0  0  0  0  0  0  0  0  0  0  0  0
    1.4631   -2.4164    0.0000 H   0  0  0  0  0  0  0  0  0  0  0  0
    8.0279   -0.6445    0.0000 H   0  0  0  0  0  0  0  0  0  0  0  0
    7.8064    0.4063    0.0000 H   0  0  0  0  0  0  0  0  0  0  0  0
    6.5102    2.8078    0.0000 H   0  0  0  0  0  0  0  0  0  0  0  0
    6.1135    3.5898    0.0000 H   0  0  0  0  0  0  0  0  0  0  0  0
    5.3316    3.1930    0.0000 H   0  0  0  0  0  0  0  0  0  0  0  0
  1 14  2  0  0  0  0
  2 17  2  0  0  0  0
  3  8  1  0  0  0  0
  3 11  1  0  0  0  0
  3 25  1  0  0  0  0
  4 10  1  0  0  0  0
  4 17  1  0  0  0  0
  4 28  1  0  0  0  0
  5 14  1  0  0  0  0
  5 31  1  0  0  0  0
  5 32  1  0  0  0  0
  6  7  1  0  0  0  0
  6  8  1  0  0  0  0
  6  9  1  0  0  0  0
  6 19  1  0  0  0  0
  7 10  1  0  0  0  0
  7 20  1  0  0  0  0
  7 21  1  0  0  0  0
  8 22  1  0  0  0  0
  8 23  1  0  0  0  0
  9 11  1  0  0  0  0
  9 12  2  0  0  0  0
 10 14  1  0  0  0  0
 10 24  1  0  0  0  0
 11 13  2  0  0  0  0
 12 15  1  0  0  0  0
 12 26  1  0  0  0  0
 13 16  1  0  0  0  0
 13 27  1  0  0  0  0
 15 16  2  0  0  0  0
 15 29  1  0  0  0  0
 16 30  1  0  0  0  0
 17 18  1  0  0  0  0
 18 33  1  0  0  0  0
 18 34  1  0  0  0  0
 18 35  1  0  0  0  0
M  END
> <PUBCHEM_COMPOUND_CID>
582764

> <PUBCHEM_COMPOUND_CANONICALIZED>
1

> <PUBCHEM_CACTVS_COMPLEXITY>
332

> <PUBCHEM_CACTVS_HBOND_ACCEPTOR>
3

> <PUBCHEM_CACTVS_HBOND_DONOR>
3

> <PUBCHEM_CACTVS_ROTATABLE_BOND>
4

> <PUBCHEM_CACTVS_SUBSKEYS>
AAADceBzMAAAAAAAAAAAAAAAAAAAAWAAAAAwAAAAAAAAAFgBAAAAHgAQAAAADSjBmAQywILAAACIAiVSUACCAAAhAgAIiIGIZIgIYDLAkbGUIAhglgDIyAcYicCOgAAAAAACAAAAAAAAAAQAAAAAAAAAAA==

> <PUBCHEM_IUPAC_OPENEYE_NAME>
2-acetamido-3-indolin-3-yl-propanamide

> <PUBCHEM_IUPAC_CAS_NAME>
2-acetamido-3-(2,3-dihydro-1H-indol-3-yl)propanamide

> <PUBCHEM_IUPAC_NAME>
2-acetamido-3-(2,3-dihydro-1H-indol-3-yl)propanamide

> <PUBCHEM_IUPAC_SYSTEMATIC_NAME>
2-acetamido-3-(2,3-dihydro-1H-indol-3-yl)propanamide

> <PUBCHEM_IUPAC_TRADITIONAL_NAME>
2-acetamido-3-indolin-3-yl-propionamide

> <PUBCHEM_IUPAC_INCHI>
InChI=1S/C13H17N3O2/c1-8(17)16-12(13(14)18)6-9-7-15-11-5-3-2-4-10(9)11/h2-5,9,12,15H,6-7H2,1H3,(H2,14,18)(H,16,17)

> <PUBCHEM_IUPAC_INCHIKEY>
GRCGLCZADUATET-UHFFFAOYSA-N

> <PUBCHEM_XLOGP3_AA>
0.4

> <PUBCHEM_EXACT_MASS>
247.132077

> <PUBCHEM_MOLECULAR_FORMULA>
C13H17N3O2

> <PUBCHEM_MOLECULAR_WEIGHT>
247.29298

> <PUBCHEM_OPENEYE_CAN_SMILES>
CC(=O)NC(CC1CNC2=CC=CC=C12)C(=O)N

> <PUBCHEM_OPENEYE_ISO_SMILES>
CC(=O)NC(CC1CNC2=CC=CC=C12)C(=O)N

> <PUBCHEM_CACTVS_TPSA>
84.2

> <PUBCHEM_MONOISOTOPIC_WEIGHT>
247.132077

> <PUBCHEM_TOTAL_CHARGE>
0

> <PUBCHEM_HEAVY_ATOM_COUNT>
18

> <PUBCHEM_ATOM_DEF_STEREO_COUNT>
0

> <PUBCHEM_ATOM_UDEF_STEREO_COUNT>
2

> <PUBCHEM_BOND_DEF_STEREO_COUNT>
0

> <PUBCHEM_BOND_UDEF_STEREO_COUNT>
0

> <PUBCHEM_ISOTOPIC_ATOM_COUNT>
0

> <PUBCHEM_COMPONENT_COUNT>
1

> <PUBCHEM_CACTVS_TAUTO_COUNT>
6

> <PUBCHEM_COORDINATE_TYPE>
1
5
255

> <PUBCHEM_BONDANNOTATIONS>
11  13  8
12  15  8
13  16  8
15  16  8
6  7  3
10  7  3
9  11  8
9  12  8

$$$$

