582960
  -OEChem-06241222442D

 24 24  0     0  0  0  0  0  0999 V2000
    2.8660    2.8450    0.0000 O   0  0  0  0  0  0  0  0  0  0  0  0
    4.5981    3.8450    0.0000 O   0  0  0  0  0  0  0  0  0  0  0  0
    2.8660    0.8450    0.0000 N   0  0  0  0  0  0  0  0  0  0  0  0
    2.8660   -4.1550    0.0000 N   0  0  0  0  0  0  0  0  0  0  0  0
    3.7320    1.3450    0.0000 C   0  0  0  0  0  0  0  0  0  0  0  0
    2.8660   -0.1550    0.0000 C   0  0  0  0  0  0  0  0  0  0  0  0
    3.7320    2.3450    0.0000 C   0  0  0  0  0  0  0  0  0  0  0  0
    2.0000   -0.6550    0.0000 C   0  0  0  0  0  0  0  0  0  0  0  0
    3.7320   -0.6550    0.0000 C   0  0  0  0  0  0  0  0  0  0  0  0
    2.0000   -1.6550    0.0000 C   0  0  0  0  0  0  0  0  0  0  0  0
    3.7320   -1.6550    0.0000 C   0  0  0  0  0  0  0  0  0  0  0  0
    2.8660   -2.1550    0.0000 C   0  0  0  0  0  0  0  0  0  0  0  0
    4.5981    2.8450    0.0000 C   0  0  0  0  0  0  0  0  0  0  0  0
    2.8660   -3.1550    0.0000 C   0  0  0  0  0  0  0  0  0  0  0  0
    3.9441    0.7624    0.0000 H   0  0  0  0  0  0  0  0  0  0  0  0
    4.3426    1.4527    0.0000 H   0  0  0  0  0  0  0  0  0  0  0  0
    2.3291    1.1550    0.0000 H   0  0  0  0  0  0  0  0  0  0  0  0
    1.4631   -0.3450    0.0000 H   0  0  0  0  0  0  0  0  0  0  0  0
    4.2690   -0.3450    0.0000 H   0  0  0  0  0  0  0  0  0  0  0  0
    1.4631   -1.9650    0.0000 H   0  0  0  0  0  0  0  0  0  0  0  0
    4.2690   -1.9650    0.0000 H   0  0  0  0  0  0  0  0  0  0  0  0
    4.8101    2.2624    0.0000 H   0  0  0  0  0  0  0  0  0  0  0  0
    5.2087    2.9527    0.0000 H   0  0  0  0  0  0  0  0  0  0  0  0
    5.1350    4.1550    0.0000 H   0  0  0  0  0  0  0  0  0  0  0  0
  1  7  2  0  0  0  0
  2 13  1  0  0  0  0
  2 24  1  0  0  0  0
  3  5  1  0  0  0  0
  3  6  1  0  0  0  0
  3 17  1  0  0  0  0
  4 14  3  0  0  0  0
  5  7  1  0  0  0  0
  5 15  1  0  0  0  0
  5 16  1  0  0  0  0
  6  8  2  0  0  0  0
  6  9  1  0  0  0  0
  7 13  1  0  0  0  0
  8 10  1  0  0  0  0
  8 18  1  0  0  0  0
  9 11  2  0  0  0  0
  9 19  1  0  0  0  0
 10 12  2  0  0  0  0
 10 20  1  0  0  0  0
 11 12  1  0  0  0  0
 11 21  1  0  0  0  0
 12 14  1  0  0  0  0
 13 22  1  0  0  0  0
 13 23  1  0  0  0  0
M  END
> <PUBCHEM_COMPOUND_CID>
582960

> <PUBCHEM_COMPOUND_CANONICALIZED>
1

> <PUBCHEM_CACTVS_COMPLEXITY>
236

> <PUBCHEM_CACTVS_HBOND_ACCEPTOR>
4

> <PUBCHEM_CACTVS_HBOND_DONOR>
2

> <PUBCHEM_CACTVS_ROTATABLE_BOND>
4

> <PUBCHEM_CACTVS_SUBSKEYS>
AAADccBzMAAAAAAAAAAAAAAAAAAAAAAAAAAwAAAAAAAAAAABAAAAHgAQCAAADAzhmAYwwILAAgCYBqRSQAKiAAAhAgAIiIDIZIgIsCLAkbGEYAhikADIyA8QgAAOCAAAAAAAAAAQAAAAAAAAAAAAAAAAAA==

> <PUBCHEM_IUPAC_OPENEYE_NAME>
4-[(3-hydroxy-2-oxo-propyl)amino]benzonitrile

> <PUBCHEM_IUPAC_CAS_NAME>
4-[(3-hydroxy-2-oxopropyl)amino]benzonitrile

> <PUBCHEM_IUPAC_NAME>
4-[(3-hydroxy-2-oxopropyl)amino]benzonitrile

> <PUBCHEM_IUPAC_SYSTEMATIC_NAME>
4-[(3-oxidanyl-2-oxidanylidene-propyl)amino]benzenecarbonitrile

> <PUBCHEM_IUPAC_TRADITIONAL_NAME>
4-[(3-hydroxy-2-keto-propyl)amino]benzonitrile

> <PUBCHEM_IUPAC_INCHI>
InChI=1S/C10H10N2O2/c11-5-8-1-3-9(4-2-8)12-6-10(14)7-13/h1-4,12-13H,6-7H2

> <PUBCHEM_IUPAC_INCHIKEY>
MPNHIJFFGKXDNJ-UHFFFAOYSA-N

> <PUBCHEM_XLOGP3_AA>
1.3

> <PUBCHEM_EXACT_MASS>
190.074228

> <PUBCHEM_MOLECULAR_FORMULA>
C10H10N2O2

> <PUBCHEM_MOLECULAR_WEIGHT>
190.1986

> <PUBCHEM_OPENEYE_CAN_SMILES>
C1=CC(=CC=C1C#N)NCC(=O)CO

> <PUBCHEM_OPENEYE_ISO_SMILES>
C1=CC(=CC=C1C#N)NCC(=O)CO

> <PUBCHEM_CACTVS_TPSA>
73.1

> <PUBCHEM_MONOISOTOPIC_WEIGHT>
190.074228

> <PUBCHEM_TOTAL_CHARGE>
0

> <PUBCHEM_HEAVY_ATOM_COUNT>
14

> <PUBCHEM_ATOM_DEF_STEREO_COUNT>
0

> <PUBCHEM_ATOM_UDEF_STEREO_COUNT>
0

> <PUBCHEM_BOND_DEF_STEREO_COUNT>
0

> <PUBCHEM_BOND_UDEF_STEREO_COUNT>
0

> <PUBCHEM_ISOTOPIC_ATOM_COUNT>
0

> <PUBCHEM_COMPONENT_COUNT>
1

> <PUBCHEM_CACTVS_TAUTO_COUNT>
5

> <PUBCHEM_COORDINATE_TYPE>
1
5
255

> <PUBCHEM_BONDANNOTATIONS>
10  12  8
11  12  8
6  8  8
6  9  8
8  10  8
9  11  8

$$$$

