8245
  -OEChem-06261202412D

 62 66  0     0  0  0  0  0  0999 V2000
    4.4487    2.5000    0.0000 O   0  0  0  0  0  0  0  0  0  0  0  0
    6.1808   -2.5000    0.0000 O   0  0  0  0  0  0  0  0  0  0  0  0
    7.1513    7.9945    0.0000 N   0  0  0  0  0  0  0  0  0  0  0  0
    3.4782   -7.9945    0.0000 N   0  0  0  0  0  0  0  0  0  0  0  0
    6.1808    6.5000    0.0000 N   0  0  0  0  0  0  0  0  0  0  0  0
    4.4487   -6.5000    0.0000 N   0  0  0  0  0  0  0  0  0  0  0  0
    7.9603    6.5933    0.0000 N   0  0  0  0  0  0  0  0  0  0  0  0
    2.6691   -6.5933    0.0000 N   0  0  0  0  0  0  0  0  0  0  0  0
    6.1808    2.5000    0.0000 N   0  0  0  0  0  0  0  0  0  0  0  0
    4.4487   -2.5000    0.0000 N   0  0  0  0  0  0  0  0  0  0  0  0
    8.1294    8.2024    0.0000 C   0  0  0  0  0  0  0  0  0  0  0  0
    2.5000   -8.2024    0.0000 C   0  0  0  0  0  0  0  0  0  0  0  0
    8.6294    7.3364    0.0000 C   0  0  0  0  0  0  0  0  0  0  0  0
    2.0000   -7.3364    0.0000 C   0  0  0  0  0  0  0  0  0  0  0  0
    7.0468    7.0000    0.0000 C   0  0  0  0  0  0  0  0  0  0  0  0
    3.5827   -7.0000    0.0000 C   0  0  0  0  0  0  0  0  0  0  0  0
    6.1808    5.5000    0.0000 C   0  0  0  0  0  0  0  0  0  0  0  0
    4.4487   -5.5000    0.0000 C   0  0  0  0  0  0  0  0  0  0  0  0
    6.1808    3.5000    0.0000 C   0  0  0  0  0  0  0  0  0  0  0  0
    4.4487   -3.5000    0.0000 C   0  0  0  0  0  0  0  0  0  0  0  0
    5.3147    5.0000    0.0000 C   0  0  0  0  0  0  0  0  0  0  0  0
    5.3147   -5.0000    0.0000 C   0  0  0  0  0  0  0  0  0  0  0  0
    7.0468    5.0000    0.0000 C   0  0  0  0  0  0  0  0  0  0  0  0
    3.5827   -5.0000    0.0000 C   0  0  0  0  0  0  0  0  0  0  0  0
    5.3147    4.0000    0.0000 C   0  0  0  0  0  0  0  0  0  0  0  0
    5.3147   -4.0000    0.0000 C   0  0  0  0  0  0  0  0  0  0  0  0
    7.0468    4.0000    0.0000 C   0  0  0  0  0  0  0  0  0  0  0  0
    3.5827   -4.0000    0.0000 C   0  0  0  0  0  0  0  0  0  0  0  0
    5.3147    1.0000    0.0000 C   0  0  0  0  0  0  0  0  0  0  0  0
    5.3147   -1.0000    0.0000 C   0  0  0  0  0  0  0  0  0  0  0  0
    5.3147   -2.0000    0.0000 C   0  0  0  0  0  0  0  0  0  0  0  0
    5.3147    2.0000    0.0000 C   0  0  0  0  0  0  0  0  0  0  0  0
    4.4487    0.5000    0.0000 C   0  0  0  0  0  0  0  0  0  0  0  0
    4.4487   -0.5000    0.0000 C   0  0  0  0  0  0  0  0  0  0  0  0
    6.1808    0.5000    0.0000 C   0  0  0  0  0  0  0  0  0  0  0  0
    6.1808   -0.5000    0.0000 C   0  0  0  0  0  0  0  0  0  0  0  0
    8.6958    8.4546    0.0000 H   0  0  0  0  0  0  0  0  0  0  0  0
    7.9379    8.7921    0.0000 H   0  0  0  0  0  0  0  0  0  0  0  0
    1.9336   -8.4546    0.0000 H   0  0  0  0  0  0  0  0  0  0  0  0
    2.6916   -8.7921    0.0000 H   0  0  0  0  0  0  0  0  0  0  0  0
    1.5851   -6.8757    0.0000 H   0  0  0  0  0  0  0  0  0  0  0  0
    1.4984   -7.7008    0.0000 H   0  0  0  0  0  0  0  0  0  0  0  0
    9.0443    6.8757    0.0000 H   0  0  0  0  0  0  0  0  0  0  0  0
    9.1310    7.7008    0.0000 H   0  0  0  0  0  0  0  0  0  0  0  0
    6.6906    8.4094    0.0000 H   0  0  0  0  0  0  0  0  0  0  0  0
    3.9389   -8.4094    0.0000 H   0  0  0  0  0  0  0  0  0  0  0  0
    4.9856   -6.8100    0.0000 H   0  0  0  0  0  0  0  0  0  0  0  0
    5.6438    6.8100    0.0000 H   0  0  0  0  0  0  0  0  0  0  0  0
    4.7778    5.3100    0.0000 H   0  0  0  0  0  0  0  0  0  0  0  0
    5.8517   -5.3100    0.0000 H   0  0  0  0  0  0  0  0  0  0  0  0
    7.5837    5.3100    0.0000 H   0  0  0  0  0  0  0  0  0  0  0  0
    3.0457   -5.3100    0.0000 H   0  0  0  0  0  0  0  0  0  0  0  0
    4.7778    3.6900    0.0000 H   0  0  0  0  0  0  0  0  0  0  0  0
    5.8517   -3.6900    0.0000 H   0  0  0  0  0  0  0  0  0  0  0  0
    7.5837    3.6900    0.0000 H   0  0  0  0  0  0  0  0  0  0  0  0
    3.0457   -3.6900    0.0000 H   0  0  0  0  0  0  0  0  0  0  0  0
    6.7177    2.1900    0.0000 H   0  0  0  0  0  0  0  0  0  0  0  0
    3.9118   -2.1900    0.0000 H   0  0  0  0  0  0  0  0  0  0  0  0
    3.9118    0.8100    0.0000 H   0  0  0  0  0  0  0  0  0  0  0  0
    3.9118   -0.8100    0.0000 H   0  0  0  0  0  0  0  0  0  0  0  0
    6.7177    0.8100    0.0000 H   0  0  0  0  0  0  0  0  0  0  0  0
    6.7177   -0.8100    0.0000 H   0  0  0  0  0  0  0  0  0  0  0  0
  1 32  2  0  0  0  0
  2 31  2  0  0  0  0
  3 11  1  0  0  0  0
  3 15  1  0  0  0  0
  3 45  1  0  0  0  0
  4 12  1  0  0  0  0
  4 16  1  0  0  0  0
  4 46  1  0  0  0  0
  5 15  1  0  0  0  0
  5 17  1  0  0  0  0
  5 48  1  0  0  0  0
  6 16  1  0  0  0  0
  6 18  1  0  0  0  0
  6 47  1  0  0  0  0
  7 13  1  0  0  0  0
  7 15  2  0  0  0  0
  8 14  1  0  0  0  0
  8 16  2  0  0  0  0
  9 19  1  0  0  0  0
  9 32  1  0  0  0  0
  9 57  1  0  0  0  0
 10 20  1  0  0  0  0
 10 31  1  0  0  0  0
 10 58  1  0  0  0  0
 11 13  1  0  0  0  0
 11 37  1  0  0  0  0
 11 38  1  0  0  0  0
 12 14  1  0  0  0  0
 12 39  1  0  0  0  0
 12 40  1  0  0  0  0
 13 43  1  0  0  0  0
 13 44  1  0  0  0  0
 14 41  1  0  0  0  0
 14 42  1  0  0  0  0
 17 21  2  0  0  0  0
 17 23  1  0  0  0  0
 18 22  2  0  0  0  0
 18 24  1  0  0  0  0
 19 25  2  0  0  0  0
 19 27  1  0  0  0  0
 20 26  2  0  0  0  0
 20 28  1  0  0  0  0
 21 25  1  0  0  0  0
 21 49  1  0  0  0  0
 22 26  1  0  0  0  0
 22 50  1  0  0  0  0
 23 27  2  0  0  0  0
 23 51  1  0  0  0  0
 24 28  2  0  0  0  0
 24 52  1  0  0  0  0
 25 53  1  0  0  0  0
 26 54  1  0  0  0  0
 27 55  1  0  0  0  0
 28 56  1  0  0  0  0
 29 32  1  0  0  0  0
 29 33  2  0  0  0  0
 29 35  1  0  0  0  0
 30 31  1  0  0  0  0
 30 34  2  0  0  0  0
 30 36  1  0  0  0  0
 33 34  1  0  0  0  0
 33 59  1  0  0  0  0
 34 60  1  0  0  0  0
 35 36  2  0  0  0  0
 35 61  1  0  0  0  0
 36 62  1  0  0  0  0
M  END
> <PUBCHEM_COMPOUND_CID>
8245

> <PUBCHEM_COMPOUND_CANONICALIZED>
1

> <PUBCHEM_CACTVS_COMPLEXITY>
754

> <PUBCHEM_CACTVS_HBOND_ACCEPTOR>
4

> <PUBCHEM_CACTVS_HBOND_DONOR>
6

> <PUBCHEM_CACTVS_ROTATABLE_BOND>
8

> <PUBCHEM_CACTVS_SUBSKEYS>
AAADceB78AAAAAAAAAAAAAAAAAAAAQIAAAAwYMAAAAAAAAABUAAAHgAQAAAADAjBmAQxwILAAACoAiVSdACCAAElAgAJiIEIZMiIYDLAnZGUIQholALIyacYiACOQACAAAAAAACAAQAAAAAAAAAAAAAAAA==

> <PUBCHEM_IUPAC_OPENEYE_NAME>
N1,N4-bis[4-(4,5-dihydro-1H-imidazol-2-ylamino)phenyl]terephthalamide

> <PUBCHEM_IUPAC_CAS_NAME>
N1,N4-bis[4-(4,5-dihydro-1H-imidazol-2-ylamino)phenyl]benzene-1,4-dicarboxamide

> <PUBCHEM_IUPAC_NAME>
1-N,4-N-bis[4-(4,5-dihydro-1H-imidazol-2-ylamino)phenyl]benzene-1,4-dicarboxamide

> <PUBCHEM_IUPAC_SYSTEMATIC_NAME>
N1,N4-bis[4-(4,5-dihydro-1H-imidazol-2-ylamino)phenyl]benzene-1,4-dicarboxamide

> <PUBCHEM_IUPAC_TRADITIONAL_NAME>
N,N'-bis[4-(2-imidazolin-2-ylamino)phenyl]terephthalamide

> <PUBCHEM_IUPAC_INCHI>
InChI=1S/C26H26N8O2/c35-23(31-19-5-9-21(10-6-19)33-25-27-13-14-28-25)17-1-2-18(4-3-17)24(36)32-20-7-11-22(12-8-20)34-26-29-15-16-30-26/h1-12H,13-16H2,(H,31,35)(H,32,36)(H2,27,28,33)(H2,29,30,34)

> <PUBCHEM_IUPAC_INCHIKEY>
HNIHDEWKXWMRLL-UHFFFAOYSA-N

> <PUBCHEM_XLOGP3_AA>
1

> <PUBCHEM_EXACT_MASS>
482.217872

> <PUBCHEM_MOLECULAR_FORMULA>
C26H26N8O2

> <PUBCHEM_MOLECULAR_WEIGHT>
482.53704

> <PUBCHEM_OPENEYE_CAN_SMILES>
C1CN=C(N1)NC2=CC=C(C=C2)NC(=O)C3=CC=C(C=C3)C(=O)NC4=CC=C(C=C4)NC5=NCCN5

> <PUBCHEM_OPENEYE_ISO_SMILES>
C1CN=C(N1)NC2=CC=C(C=C2)NC(=O)C3=CC=C(C=C3)C(=O)NC4=CC=C(C=C4)NC5=NCCN5

> <PUBCHEM_CACTVS_TPSA>
131

> <PUBCHEM_MONOISOTOPIC_WEIGHT>
482.217872

> <PUBCHEM_TOTAL_CHARGE>
0

> <PUBCHEM_HEAVY_ATOM_COUNT>
36

> <PUBCHEM_ATOM_DEF_STEREO_COUNT>
0

> <PUBCHEM_ATOM_UDEF_STEREO_COUNT>
0

> <PUBCHEM_BOND_DEF_STEREO_COUNT>
0

> <PUBCHEM_BOND_UDEF_STEREO_COUNT>
0

> <PUBCHEM_ISOTOPIC_ATOM_COUNT>
0

> <PUBCHEM_COMPONENT_COUNT>
1

> <PUBCHEM_CACTVS_TAUTO_COUNT>
10

> <PUBCHEM_COORDINATE_TYPE>
1
5
255

> <PUBCHEM_BONDANNOTATIONS>
17  21  8
17  23  8
18  22  8
18  24  8
19  25  8
19  27  8
20  26  8
20  28  8
21  25  8
22  26  8
23  27  8
24  28  8
29  33  8
29  35  8
30  34  8
30  36  8
33  34  8
35  36  8

$$$$

