17395686
  -OEChem-06241222512D

 66 69  0     1  0  0  0  0  0999 V2000
    2.0000    3.5219    0.0000 S   0  0  0  0  0  0  0  0  0  0  0  0
    6.1808   -1.3145    0.0000 O   0  0  0  0  0  0  0  0  0  0  0  0
    7.9128   -1.3145    0.0000 O   0  0  0  0  0  0  0  0  0  0  0  0
    4.4487   -0.3145    0.0000 O   0  0  0  0  0  0  0  0  0  0  0  0
    4.2213    4.8492    0.0000 O   0  0  0  0  0  0  0  0  0  0  0  0
    2.4612    1.8006    0.0000 O   0  0  0  0  0  0  0  0  0  0  0  0
    7.0468   -4.8145    0.0000 N   0  0  0  0  0  0  0  0  0  0  0  0
    5.3147    1.1855    0.0000 N   0  0  0  0  0  0  0  0  0  0  0  0
    3.5827    3.1855    0.0000 N   0  0  0  0  0  0  0  0  0  0  0  0
    9.7128   -3.2937    0.0000 C   0  0  3  0  0  0  0  0  0  0  0  0
   10.5769   -2.7904    0.0000 C   0  0  0  0  0  0  0  0  0  0  0  0
    9.7128   -4.3353    0.0000 C   0  0  0  0  0  0  0  0  0  0  0  0
    8.8067   -2.7798    0.0000 C   0  0  0  0  0  0  0  0  0  0  0  0
    8.8067   -4.8492    0.0000 C   0  0  0  0  0  0  0  0  0  0  0  0
    7.9128   -3.3145    0.0000 C   0  0  0  0  0  0  0  0  0  0  0  0
    7.9128   -4.3145    0.0000 C   0  0  0  0  0  0  0  0  0  0  0  0
   11.4410   -2.2870    0.0000 C   0  0  0  0  0  0  0  0  0  0  0  0
   11.0802   -3.6544    0.0000 C   0  0  0  0  0  0  0  0  0  0  0  0
   10.0736   -1.9262    0.0000 C   0  0  0  0  0  0  0  0  0  0  0  0
    7.0468   -2.8145    0.0000 C   0  0  0  0  0  0  0  0  0  0  0  0
    6.1808   -3.3145    0.0000 C   0  0  0  0  0  0  0  0  0  0  0  0
    6.1808   -4.3145    0.0000 C   0  0  0  0  0  0  0  0  0  0  0  0
    7.0468   -1.8145    0.0000 C   0  0  0  0  0  0  0  0  0  0  0  0
    5.2868   -2.7798    0.0000 C   0  0  0  0  0  0  0  0  0  0  0  0
    5.2868   -4.8492    0.0000 C   0  0  0  0  0  0  0  0  0  0  0  0
    4.3807   -3.2937    0.0000 C   0  0  0  0  0  0  0  0  0  0  0  0
    4.3807   -4.3353    0.0000 C   0  0  0  0  0  0  0  0  0  0  0  0
    6.1808   -0.3145    0.0000 C   0  0  3  0  0  0  0  0  0  0  0  0
    5.3147    0.1855    0.0000 C   0  0  0  0  0  0  0  0  0  0  0  0
    7.0468    0.1855    0.0000 C   0  0  0  0  0  0  0  0  0  0  0  0
    4.4487    1.6855    0.0000 C   0  0  0  0  0  0  0  0  0  0  0  0
    4.4487    2.6855    0.0000 C   0  0  0  0  0  0  0  0  0  0  0  0
    3.4782    4.1800    0.0000 C   0  0  0  0  0  0  0  0  0  0  0  0
    2.6691    2.7788    0.0000 C   0  0  0  0  0  0  0  0  0  0  0  0
    2.5000    4.3879    0.0000 C   0  0  0  0  0  0  0  0  0  0  0  0
   10.2503   -3.6026    0.0000 H   0  0  0  0  0  0  0  0  0  0  0  0
    9.9219   -4.9190    0.0000 H   0  0  0  0  0  0  0  0  0  0  0  0
   10.3237   -4.2292    0.0000 H   0  0  0  0  0  0  0  0  0  0  0  0
    9.2004   -2.3008    0.0000 H   0  0  0  0  0  0  0  0  0  0  0  0
    8.4022   -2.3100    0.0000 H   0  0  0  0  0  0  0  0  0  0  0  0
    8.4022   -5.3189    0.0000 H   0  0  0  0  0  0  0  0  0  0  0  0
    9.2004   -5.3282    0.0000 H   0  0  0  0  0  0  0  0  0  0  0  0
   11.7531   -2.8228    0.0000 H   0  0  0  0  0  0  0  0  0  0  0  0
   11.9767   -1.9749    0.0000 H   0  0  0  0  0  0  0  0  0  0  0  0
   11.1289   -1.7513    0.0000 H   0  0  0  0  0  0  0  0  0  0  0  0
   10.5445   -3.9665    0.0000 H   0  0  0  0  0  0  0  0  0  0  0  0
   11.3923   -4.1902    0.0000 H   0  0  0  0  0  0  0  0  0  0  0  0
   11.6160   -3.3424    0.0000 H   0  0  0  0  0  0  0  0  0  0  0  0
   10.6093   -1.6142    0.0000 H   0  0  0  0  0  0  0  0  0  0  0  0
    9.7615   -1.3905    0.0000 H   0  0  0  0  0  0  0  0  0  0  0  0
    9.5378   -2.2383    0.0000 H   0  0  0  0  0  0  0  0  0  0  0  0
    5.2940   -2.1599    0.0000 H   0  0  0  0  0  0  0  0  0  0  0  0
    5.2940   -5.4691    0.0000 H   0  0  0  0  0  0  0  0  0  0  0  0
    3.8450   -2.9816    0.0000 H   0  0  0  0  0  0  0  0  0  0  0  0
    3.8450   -4.6474    0.0000 H   0  0  0  0  0  0  0  0  0  0  0  0
    6.7177   -0.6245    0.0000 H   0  0  0  0  0  0  0  0  0  0  0  0
    7.3568   -0.3514    0.0000 H   0  0  0  0  0  0  0  0  0  0  0  0
    7.5837    0.4955    0.0000 H   0  0  0  0  0  0  0  0  0  0  0  0
    6.7368    0.7224    0.0000 H   0  0  0  0  0  0  0  0  0  0  0  0
    5.8517    1.4955    0.0000 H   0  0  0  0  0  0  0  0  0  0  0  0
    3.8381    1.7932    0.0000 H   0  0  0  0  0  0  0  0  0  0  0  0
    4.2366    1.1029    0.0000 H   0  0  0  0  0  0  0  0  0  0  0  0
    5.0593    2.5778    0.0000 H   0  0  0  0  0  0  0  0  0  0  0  0
    4.6608    3.2681    0.0000 H   0  0  0  0  0  0  0  0  0  0  0  0
    2.6916    4.9776    0.0000 H   0  0  0  0  0  0  0  0  0  0  0  0
    1.9336    4.6401    0.0000 H   0  0  0  0  0  0  0  0  0  0  0  0
  1 34  1  0  0  0  0
  1 35  1  0  0  0  0
  2 23  1  0  0  0  0
  2 28  1  0  0  0  0
  3 23  2  0  0  0  0
  4 29  2  0  0  0  0
  5 33  2  0  0  0  0
  6 34  2  0  0  0  0
  7 16  2  0  0  0  0
  7 22  1  0  0  0  0
  8 29  1  0  0  0  0
  8 31  1  0  0  0  0
  8 60  1  0  0  0  0
  9 32  1  0  0  0  0
  9 33  1  0  0  0  0
  9 34  1  0  0  0  0
 10 11  1  0  0  0  0
 10 12  1  0  0  0  0
 10 13  1  0  0  0  0
 10 36  1  0  0  0  0
 11 17  1  0  0  0  0
 11 18  1  0  0  0  0
 11 19  1  0  0  0  0
 12 14  1  0  0  0  0
 12 37  1  0  0  0  0
 12 38  1  0  0  0  0
 13 15  1  0  0  0  0
 13 39  1  0  0  0  0
 13 40  1  0  0  0  0
 14 16  1  0  0  0  0
 14 41  1  0  0  0  0
 14 42  1  0  0  0  0
 15 16  1  0  0  0  0
 15 20  2  0  0  0  0
 17 43  1  0  0  0  0
 17 44  1  0  0  0  0
 17 45  1  0  0  0  0
 18 46  1  0  0  0  0
 18 47  1  0  0  0  0
 18 48  1  0  0  0  0
 19 49  1  0  0  0  0
 19 50  1  0  0  0  0
 19 51  1  0  0  0  0
 20 21  1  0  0  0  0
 20 23  1  0  0  0  0
 21 22  1  0  0  0  0
 21 24  2  0  0  0  0
 22 25  2  0  0  0  0
 24 26  1  0  0  0  0
 24 52  1  0  0  0  0
 25 27  1  0  0  0  0
 25 53  1  0  0  0  0
 26 27  2  0  0  0  0
 26 54  1  0  0  0  0
 27 55  1  0  0  0  0
 28 29  1  0  0  0  0
 28 30  1  0  0  0  0
 28 56  1  0  0  0  0
 30 57  1  0  0  0  0
 30 58  1  0  0  0  0
 30 59  1  0  0  0  0
 31 32  1  0  0  0  0
 31 61  1  0  0  0  0
 31 62  1  0  0  0  0
 32 63  1  0  0  0  0
 32 64  1  0  0  0  0
 33 35  1  0  0  0  0
 35 65  1  0  0  0  0
 35 66  1  0  0  0  0
M  END
> <PUBCHEM_COMPOUND_CID>
17395686

> <PUBCHEM_COMPOUND_CANONICALIZED>
1

> <PUBCHEM_CACTVS_COMPLEXITY>
843

> <PUBCHEM_CACTVS_HBOND_ACCEPTOR>
7

> <PUBCHEM_CACTVS_HBOND_DONOR>
1

> <PUBCHEM_CACTVS_ROTATABLE_BOND>
8

> <PUBCHEM_CACTVS_SUBSKEYS>
AAADceB7OABAAAAAAAAAAAAAAAAAAWAAAAA8YIAAAAAAAACx8AAAHgQQAAAADxzl3gayyPPIFAioAyXyXAKCgCBlAjAImKF4bNgKZvLAtZ2XMQhk1iHY6Qe8yPCPgAAAAAACAAAQAAQAAAQAAAAAAAAAAA==

> <PUBCHEM_IUPAC_OPENEYE_NAME>
[2-[2-(2,4-dioxothiazolidin-3-yl)ethylamino]-1-methyl-2-oxo-ethyl] 2-tert-butyl-1,2,3,4-tetrahydroacridine-9-carboxylate

> <PUBCHEM_IUPAC_CAS_NAME>
2-tert-butyl-1,2,3,4-tetrahydroacridine-9-carboxylic acid [1-[2-(2,4-dioxo-3-thiazolidinyl)ethylamino]-1-oxopropan-2-yl] ester

> <PUBCHEM_IUPAC_NAME>
[1-[2-(2,4-dioxo-1,3-thiazolidin-3-yl)ethylamino]-1-oxopropan-2-yl] 2-tert-butyl-1,2,3,4-tetrahydroacridine-9-carboxylate

> <PUBCHEM_IUPAC_SYSTEMATIC_NAME>
[1-[2-[2,4-bis(oxidanylidene)-1,3-thiazolidin-3-yl]ethylamino]-1-oxidanylidene-propan-2-yl] 2-tert-butyl-1,2,3,4-tetrahydroacridine-9-carboxylate

> <PUBCHEM_IUPAC_TRADITIONAL_NAME>
2-tert-butyl-1,2,3,4-tetrahydroacridine-9-carboxylic acid [2-[2-(2,4-diketothiazolidin-3-yl)ethylamino]-2-keto-1-methyl-ethyl] ester

> <PUBCHEM_IUPAC_INCHI>
InChI=1S/C26H31N3O5S/c1-15(23(31)27-11-12-29-21(30)14-35-25(29)33)34-24(32)22-17-7-5-6-8-19(17)28-20-10-9-16(13-18(20)22)26(2,3)4/h5-8,15-16H,9-14H2,1-4H3,(H,27,31)

> <PUBCHEM_IUPAC_INCHIKEY>
PFBWBGWNGQDJJH-UHFFFAOYSA-N

> <PUBCHEM_XLOGP3_AA>
4.5

> <PUBCHEM_EXACT_MASS>
497.198442

> <PUBCHEM_MOLECULAR_FORMULA>
C26H31N3O5S

> <PUBCHEM_MOLECULAR_WEIGHT>
497.60644

> <PUBCHEM_OPENEYE_CAN_SMILES>
CC(C(=O)NCCN1C(=O)CSC1=O)OC(=O)C2=C3CC(CCC3=NC4=CC=CC=C42)C(C)(C)C

> <PUBCHEM_OPENEYE_ISO_SMILES>
CC(C(=O)NCCN1C(=O)CSC1=O)OC(=O)C2=C3CC(CCC3=NC4=CC=CC=C42)C(C)(C)C

> <PUBCHEM_CACTVS_TPSA>
131

> <PUBCHEM_MONOISOTOPIC_WEIGHT>
497.198442

> <PUBCHEM_TOTAL_CHARGE>
0

> <PUBCHEM_HEAVY_ATOM_COUNT>
35

> <PUBCHEM_ATOM_DEF_STEREO_COUNT>
0

> <PUBCHEM_ATOM_UDEF_STEREO_COUNT>
2

> <PUBCHEM_BOND_DEF_STEREO_COUNT>
0

> <PUBCHEM_BOND_UDEF_STEREO_COUNT>
0

> <PUBCHEM_ISOTOPIC_ATOM_COUNT>
0

> <PUBCHEM_COMPONENT_COUNT>
1

> <PUBCHEM_CACTVS_TAUTO_COUNT>
4

> <PUBCHEM_COORDINATE_TYPE>
1
5
255

> <PUBCHEM_BONDANNOTATIONS>
10  11  3
15  16  8
15  20  8
20  21  8
21  22  8
21  24  8
22  25  8
24  26  8
25  27  8
26  27  8
28  30  3
7  16  8
7  22  8

$$$$

