5288
  -OEChem-06261200372D

 77 79  0     1  0  0  0  0  0999 V2000
   14.1993    5.1331    0.0000 O   0  0  0  0  0  0  0  0  0  0  0  0
    8.1514    2.5880    0.0000 O   0  0  0  0  0  0  0  0  0  0  0  0
    2.9785   -4.9510    0.0000 O   0  0  0  0  0  0  0  0  0  0  0  0
    2.6213   -3.2562    0.0000 O   0  0  0  0  0  0  0  0  0  0  0  0
   11.5473    3.5880    0.0000 C   0  0  3  0  0  0  0  0  0  0  0  0
   10.6812    3.0880    0.0000 C   0  0  3  0  0  0  0  0  0  0  0  0
   12.4133    3.0880    0.0000 C   0  0  3  0  0  0  0  0  0  0  0  0
   10.6812    2.0880    0.0000 C   0  0  3  0  0  0  0  0  0  0  0  0
   13.3233    3.5948    0.0000 C   0  0  0  0  0  0  0  0  0  0  0  0
   12.4133    2.0880    0.0000 C   0  0  0  0  0  0  0  0  0  0  0  0
   11.5473    1.5880    0.0000 C   0  0  0  0  0  0  0  0  0  0  0  0
   11.5312    4.6295    0.0000 C   0  0  0  0  0  0  0  0  0  0  0  0
    9.7350    3.3927    0.0000 C   0  0  0  0  0  0  0  0  0  0  0  0
    9.7350    1.7832    0.0000 C   0  0  0  0  0  0  0  0  0  0  0  0
   10.6812    4.0880    0.0000 C   0  0  0  0  0  0  0  0  0  0  0  0
   12.4292    5.1572    0.0000 C   0  0  0  0  0  0  0  0  0  0  0  0
   10.6812    1.0880    0.0000 C   0  0  0  0  0  0  0  0  0  0  0  0
   13.3313    4.6364    0.0000 C   0  0  0  0  0  0  0  0  0  0  0  0
    9.1514    2.5880    0.0000 C   0  0  0  0  0  0  0  0  0  0  0  0
   14.3232    3.5832    0.0000 C   0  0  0  0  0  0  0  0  0  0  0  0
   13.8132    2.7231    0.0000 C   0  0  0  0  0  0  0  0  0  0  0  0
    9.4244    0.8327    0.0000 C   0  0  0  0  0  0  0  0  0  0  0  0
   10.0922    0.0884    0.0000 C   0  0  0  0  0  0  0  0  0  0  0  0
    8.4458    0.6265    0.0000 C   0  0  0  0  0  0  0  0  0  0  0  0
    8.1352   -0.3240    0.0000 C   0  0  0  0  0  0  0  0  0  0  0  0
    7.1567   -0.5303    0.0000 C   0  0  0  0  0  0  0  0  0  0  0  0
    6.8460   -1.4808    0.0000 C   0  0  0  0  0  0  0  0  0  0  0  0
    7.5138   -2.2251    0.0000 C   0  0  0  0  0  0  0  0  0  0  0  0
    5.8675   -1.6870    0.0000 C   0  0  0  0  0  0  0  0  0  0  0  0
    5.5568   -2.6375    0.0000 C   0  0  0  0  0  0  0  0  0  0  0  0
    4.5783   -2.8437    0.0000 C   0  0  0  0  0  0  0  0  0  0  0  0
    4.2677   -3.7943    0.0000 C   0  0  0  0  0  0  0  0  0  0  0  0
    4.9355   -4.5386    0.0000 C   0  0  0  0  0  0  0  0  0  0  0  0
    3.2892   -4.0005    0.0000 C   0  0  0  0  0  0  0  0  0  0  0  0
    2.0000   -5.1572    0.0000 C   0  0  0  0  0  0  0  0  0  0  0  0
   10.5913    3.9332    0.0000 H   0  0  0  0  0  0  0  0  0  0  0  0
   13.1461    2.6573    0.0000 H   0  0  0  0  0  0  0  0  0  0  0  0
   12.6253    1.5053    0.0000 H   0  0  0  0  0  0  0  0  0  0  0  0
   13.0239    2.1956    0.0000 H   0  0  0  0  0  0  0  0  0  0  0  0
   11.1487    1.1130    0.0000 H   0  0  0  0  0  0  0  0  0  0  0  0
   11.9458    1.1130    0.0000 H   0  0  0  0  0  0  0  0  0  0  0  0
   11.3132    5.2099    0.0000 H   0  0  0  0  0  0  0  0  0  0  0  0
   10.9220    4.5140    0.0000 H   0  0  0  0  0  0  0  0  0  0  0  0
    9.9860    3.9596    0.0000 H   0  0  0  0  0  0  0  0  0  0  0  0
    9.1976    3.7019    0.0000 H   0  0  0  0  0  0  0  0  0  0  0  0
   10.9912    4.6249    0.0000 H   0  0  0  0  0  0  0  0  0  0  0  0
   10.1443    4.3980    0.0000 H   0  0  0  0  0  0  0  0  0  0  0  0
   10.3712    3.5510    0.0000 H   0  0  0  0  0  0  0  0  0  0  0  0
   12.8265    5.6332    0.0000 H   0  0  0  0  0  0  0  0  0  0  0  0
   12.0283    5.6301    0.0000 H   0  0  0  0  0  0  0  0  0  0  0  0
   10.0612    1.0880    0.0000 H   0  0  0  0  0  0  0  0  0  0  0  0
   10.6812    0.4680    0.0000 H   0  0  0  0  0  0  0  0  0  0  0  0
   11.3012    1.0880    0.0000 H   0  0  0  0  0  0  0  0  0  0  0  0
   14.3160    2.9633    0.0000 H   0  0  0  0  0  0  0  0  0  0  0  0
   14.9432    3.5761    0.0000 H   0  0  0  0  0  0  0  0  0  0  0  0
   14.3304    4.2032    0.0000 H   0  0  0  0  0  0  0  0  0  0  0  0
   13.2727    2.4193    0.0000 H   0  0  0  0  0  0  0  0  0  0  0  0
   14.1170    2.1826    0.0000 H   0  0  0  0  0  0  0  0  0  0  0  0
   14.3537    3.0268    0.0000 H   0  0  0  0  0  0  0  0  0  0  0  0
    9.6307   -0.3257    0.0000 H   0  0  0  0  0  0  0  0  0  0  0  0
   10.5063   -0.3731    0.0000 H   0  0  0  0  0  0  0  0  0  0  0  0
   10.5537    0.5025    0.0000 H   0  0  0  0  0  0  0  0  0  0  0  0
    8.0318    1.0880    0.0000 H   0  0  0  0  0  0  0  0  0  0  0  0
    8.5492   -0.7855    0.0000 H   0  0  0  0  0  0  0  0  0  0  0  0
    6.7426   -0.0688    0.0000 H   0  0  0  0  0  0  0  0  0  0  0  0
    7.0524   -2.6391    0.0000 H   0  0  0  0  0  0  0  0  0  0  0  0
    7.9279   -2.6866    0.0000 H   0  0  0  0  0  0  0  0  0  0  0  0
    7.9753   -1.8110    0.0000 H   0  0  0  0  0  0  0  0  0  0  0  0
    5.4534   -1.2255    0.0000 H   0  0  0  0  0  0  0  0  0  0  0  0
    5.9709   -3.0990    0.0000 H   0  0  0  0  0  0  0  0  0  0  0  0
    4.1643   -2.3823    0.0000 H   0  0  0  0  0  0  0  0  0  0  0  0
    4.4740   -4.9526    0.0000 H   0  0  0  0  0  0  0  0  0  0  0  0
    5.3496   -5.0000    0.0000 H   0  0  0  0  0  0  0  0  0  0  0  0
    5.3970   -4.1245    0.0000 H   0  0  0  0  0  0  0  0  0  0  0  0
    1.8721   -4.5505    0.0000 H   0  0  0  0  0  0  0  0  0  0  0  0
    1.3933   -5.2851    0.0000 H   0  0  0  0  0  0  0  0  0  0  0  0
    2.1279   -5.7639    0.0000 H   0  0  0  0  0  0  0  0  0  0  0  0
  1 18  2  0  0  0  0
  2 19  2  0  0  0  0
  3 34  1  0  0  0  0
  3 35  1  0  0  0  0
  4 34  2  0  0  0  0
  5  6  1  0  0  0  0
  5  7  1  0  0  0  0
  5 12  1  0  0  0  0
  5 15  1  0  0  0  0
  6  8  1  0  0  0  0
  6 13  1  0  0  0  0
  6 36  1  0  0  0  0
  7  9  1  0  0  0  0
  7 10  1  0  0  0  0
  7 37  1  0  0  0  0
  8 11  1  0  0  0  0
  8 14  1  0  0  0  0
  8 17  1  0  0  0  0
  9 18  1  0  0  0  0
  9 20  1  0  0  0  0
  9 21  1  0  0  0  0
 10 11  1  0  0  0  0
 10 38  1  0  0  0  0
 10 39  1  0  0  0  0
 11 40  1  0  0  0  0
 11 41  1  0  0  0  0
 12 16  1  0  0  0  0
 12 42  1  0  0  0  0
 12 43  1  0  0  0  0
 13 19  1  0  0  0  0
 13 44  1  0  0  0  0
 13 45  1  0  0  0  0
 14 19  1  0  0  0  0
 14 22  2  3  0  0  0
 15 46  1  0  0  0  0
 15 47  1  0  0  0  0
 15 48  1  0  0  0  0
 16 18  1  0  0  0  0
 16 49  1  0  0  0  0
 16 50  1  0  0  0  0
 17 51  1  0  0  0  0
 17 52  1  0  0  0  0
 17 53  1  0  0  0  0
 20 54  1  0  0  0  0
 20 55  1  0  0  0  0
 20 56  1  0  0  0  0
 21 57  1  0  0  0  0
 21 58  1  0  0  0  0
 21 59  1  0  0  0  0
 22 23  1  0  0  0  0
 22 24  1  0  0  0  0
 23 60  1  0  0  0  0
 23 61  1  0  0  0  0
 23 62  1  0  0  0  0
 24 25  2  3  0  0  0
 24 63  1  0  0  0  0
 25 26  1  0  0  0  0
 25 64  1  0  0  0  0
 26 27  2  3  0  0  0
 26 65  1  0  0  0  0
 27 28  1  0  0  0  0
 27 29  1  0  0  0  0
 28 66  1  0  0  0  0
 28 67  1  0  0  0  0
 28 68  1  0  0  0  0
 29 30  2  3  0  0  0
 29 69  1  0  0  0  0
 30 31  1  0  0  0  0
 30 70  1  0  0  0  0
 31 32  2  3  0  0  0
 31 71  1  0  0  0  0
 32 33  1  0  0  0  0
 32 34  1  0  0  0  0
 33 72  1  0  0  0  0
 33 73  1  0  0  0  0
 33 74  1  0  0  0  0
 35 75  1  0  0  0  0
 35 76  1  0  0  0  0
 35 77  1  0  0  0  0
M  END
> <PUBCHEM_COMPOUND_CID>
5288

> <PUBCHEM_COMPOUND_CANONICALIZED>
1

> <PUBCHEM_CACTVS_COMPLEXITY>
1060

> <PUBCHEM_CACTVS_HBOND_ACCEPTOR>
4

> <PUBCHEM_CACTVS_HBOND_DONOR>
0

> <PUBCHEM_CACTVS_ROTATABLE_BOND>
6

> <PUBCHEM_CACTVS_SUBSKEYS>
AAADcfB4OAAAAAAAAAAAAAAAAAAAAYAAAAAwYAAAAAAAAGDAAAAAGgAAAAAADwSAgAICCAAABACIAqDSCAAAAAAgAAAICAEAAEgIBBIAIQAAEAAAgAAIoYMIiMCPgAAAAAAAAACAAAQAACAAAAAACAAAAA==

> <PUBCHEM_IUPAC_OPENEYE_NAME>
methyl 10-(3a,6,6,9a-tetramethyl-2,7-dioxo-4,5,5a,8,9,9b-hexahydro-1H-cyclopenta[a]naphthalen-3-ylidene)-2,6-dimethyl-undeca-2,4,6,8-tetraenoate

> <PUBCHEM_IUPAC_CAS_NAME>
10-(3a,6,6,9a-tetramethyl-2,7-dioxo-4,5,5a,8,9,9b-hexahydro-1H-cyclopenta[a]naphthalen-3-ylidene)-2,6-dimethylundeca-2,4,6,8-tetraenoic acid methyl ester

> <PUBCHEM_IUPAC_NAME>
methyl 10-(3a,6,6,9a-tetramethyl-2,7-dioxo-4,5,5a,8,9,9b-hexahydro-1H-cyclopenta[a]naphthalen-3-ylidene)-2,6-dimethylundeca-2,4,6,8-tetraenoate

> <PUBCHEM_IUPAC_SYSTEMATIC_NAME>
methyl 10-[3a,6,6,9a-tetramethyl-2,7-bis(oxidanylidene)-4,5,5a,8,9,9b-hexahydro-1H-cyclopenta[a]naphthalen-3-ylidene]-2,6-dimethyl-undeca-2,4,6,8-tetraenoate

> <PUBCHEM_IUPAC_TRADITIONAL_NAME>
10-(2,7-diketo-3a,6,6,9a-tetramethyl-4,5,5a,8,9,9b-hexahydro-1H-benz[e]inden-3-ylidene)-2,6-dimethyl-undeca-2,4,6,8-tetraenoic acid methyl ester

> <PUBCHEM_IUPAC_INCHI>
InChI=1S/C31H42O4/c1-20(12-10-14-22(3)28(34)35-8)11-9-13-21(2)27-23(32)19-25-30(6)18-16-26(33)29(4,5)24(30)15-17-31(25,27)7/h9-14,24-25H,15-19H2,1-8H3

> <PUBCHEM_IUPAC_INCHIKEY>
UNVNGRLSNXYHBW-UHFFFAOYSA-N

> <PUBCHEM_XLOGP3_AA>
7.4

> <PUBCHEM_EXACT_MASS>
478.30831

> <PUBCHEM_MOLECULAR_FORMULA>
C31H42O4

> <PUBCHEM_MOLECULAR_WEIGHT>
478.66278

> <PUBCHEM_OPENEYE_CAN_SMILES>
CC(=CC=CC(=C1C(=O)CC2C1(CCC3C2(CCC(=O)C3(C)C)C)C)C)C=CC=C(C)C(=O)OC

> <PUBCHEM_OPENEYE_ISO_SMILES>
CC(=CC=CC(=C1C(=O)CC2C1(CCC3C2(CCC(=O)C3(C)C)C)C)C)C=CC=C(C)C(=O)OC

> <PUBCHEM_CACTVS_TPSA>
60.4

> <PUBCHEM_MONOISOTOPIC_WEIGHT>
478.30831

> <PUBCHEM_TOTAL_CHARGE>
0

> <PUBCHEM_HEAVY_ATOM_COUNT>
35

> <PUBCHEM_ATOM_DEF_STEREO_COUNT>
0

> <PUBCHEM_ATOM_UDEF_STEREO_COUNT>
4

> <PUBCHEM_BOND_DEF_STEREO_COUNT>
0

> <PUBCHEM_BOND_UDEF_STEREO_COUNT>
5

> <PUBCHEM_ISOTOPIC_ATOM_COUNT>
0

> <PUBCHEM_COMPONENT_COUNT>
1

> <PUBCHEM_CACTVS_TAUTO_COUNT>
10

> <PUBCHEM_COORDINATE_TYPE>
1
5
255

> <PUBCHEM_BONDANNOTATIONS>
14  22  1
24  25  1
26  27  1
29  30  1
31  32  1
5  15  3
6  36  3
7  37  3
8  17  3

$$$$

