7877
  -OEChem-06261202242D

 22 21  0     0  0  0  0  0  0999 V2000
    4.5981   -1.0600    0.0000 O   0  0  0  0  0  0  0  0  0  0  0  0
    3.7320    0.4400    0.0000 N   0  0  0  0  0  0  0  0  0  0  0  0
    2.8660   -0.0600    0.0000 C   0  0  0  0  0  0  0  0  0  0  0  0
    2.0000   -0.5600    0.0000 C   0  0  0  0  0  0  0  0  0  0  0  0
    2.3660    0.8060    0.0000 C   0  0  0  0  0  0  0  0  0  0  0  0
    3.3660   -0.9260    0.0000 C   0  0  0  0  0  0  0  0  0  0  0  0
    4.5981   -0.0600    0.0000 C   0  0  0  0  0  0  0  0  0  0  0  0
    5.4641    0.4400    0.0000 C   0  0  0  0  0  0  0  0  0  0  0  0
    6.3301   -0.0600    0.0000 C   0  0  0  0  0  0  0  0  0  0  0  0
    2.8291   -1.2360    0.0000 H   0  0  0  0  0  0  0  0  0  0  0  0
    3.6760   -1.4630    0.0000 H   0  0  0  0  0  0  0  0  0  0  0  0
    3.9030   -0.6160    0.0000 H   0  0  0  0  0  0  0  0  0  0  0  0
    2.9030    1.1160    0.0000 H   0  0  0  0  0  0  0  0  0  0  0  0
    2.0560    1.3430    0.0000 H   0  0  0  0  0  0  0  0  0  0  0  0
    1.8291    0.4960    0.0000 H   0  0  0  0  0  0  0  0  0  0  0  0
    1.6900   -0.0231    0.0000 H   0  0  0  0  0  0  0  0  0  0  0  0
    1.4631   -0.8700    0.0000 H   0  0  0  0  0  0  0  0  0  0  0  0
    2.3100   -1.0969    0.0000 H   0  0  0  0  0  0  0  0  0  0  0  0
    3.7320    1.0600    0.0000 H   0  0  0  0  0  0  0  0  0  0  0  0
    5.4641    1.0600    0.0000 H   0  0  0  0  0  0  0  0  0  0  0  0
    6.3301   -0.6800    0.0000 H   0  0  0  0  0  0  0  0  0  0  0  0
    6.8671    0.2500    0.0000 H   0  0  0  0  0  0  0  0  0  0  0  0
  1  7  2  0  0  0  0
  2  3  1  0  0  0  0
  2  7  1  0  0  0  0
  2 19  1  0  0  0  0
  3  4  1  0  0  0  0
  3  5  1  0  0  0  0
  3  6  1  0  0  0  0
  4 16  1  0  0  0  0
  4 17  1  0  0  0  0
  4 18  1  0  0  0  0
  5 13  1  0  0  0  0
  5 14  1  0  0  0  0
  5 15  1  0  0  0  0
  6 10  1  0  0  0  0
  6 11  1  0  0  0  0
  6 12  1  0  0  0  0
  7  8  1  0  0  0  0
  8  9  2  0  0  0  0
  8 20  1  0  0  0  0
  9 21  1  0  0  0  0
  9 22  1  0  0  0  0
M  END
> <PUBCHEM_COMPOUND_CID>
7877

> <PUBCHEM_COMPOUND_CANONICALIZED>
1

> <PUBCHEM_CACTVS_COMPLEXITY>
121

> <PUBCHEM_CACTVS_HBOND_ACCEPTOR>
1

> <PUBCHEM_CACTVS_HBOND_DONOR>
1

> <PUBCHEM_CACTVS_ROTATABLE_BOND>
2

> <PUBCHEM_CACTVS_SUBSKEYS>
AAADccBiIAAAAAAAAAAAAAAAAAAAAAAAAAAAAAAAAAAAAAAAAAAAHgAQAAAADIiBgAACAALAAACIACFSEACAAAAAAAAIAAAAAEAAAAAAAAAAAAAAFACAAIAAAAAAAAAAAAAAAAAAAAAAAAAAAAAAAAAAAA==

> <PUBCHEM_IUPAC_OPENEYE_NAME>
N-tert-butylprop-2-enamide

> <PUBCHEM_IUPAC_CAS_NAME>
N-tert-butyl-2-propenamide

> <PUBCHEM_IUPAC_NAME>
N-tert-butylprop-2-enamide

> <PUBCHEM_IUPAC_SYSTEMATIC_NAME>
N-tert-butylprop-2-enamide

> <PUBCHEM_IUPAC_TRADITIONAL_NAME>
N-tert-butylacrylamide

> <PUBCHEM_IUPAC_INCHI>
InChI=1S/C7H13NO/c1-5-6(9)8-7(2,3)4/h5H,1H2,2-4H3,(H,8,9)

> <PUBCHEM_IUPAC_INCHIKEY>
XFHJDMUEHUHAJW-UHFFFAOYSA-N

> <PUBCHEM_XLOGP3_AA>
1.1

> <PUBCHEM_EXACT_MASS>
127.099714

> <PUBCHEM_MOLECULAR_FORMULA>
C7H13NO

> <PUBCHEM_MOLECULAR_WEIGHT>
127.18422

> <PUBCHEM_OPENEYE_CAN_SMILES>
CC(C)(C)NC(=O)C=C

> <PUBCHEM_OPENEYE_ISO_SMILES>
CC(C)(C)NC(=O)C=C

> <PUBCHEM_CACTVS_TPSA>
29.1

> <PUBCHEM_MONOISOTOPIC_WEIGHT>
127.099714

> <PUBCHEM_TOTAL_CHARGE>
0

> <PUBCHEM_HEAVY_ATOM_COUNT>
9

> <PUBCHEM_ATOM_DEF_STEREO_COUNT>
0

> <PUBCHEM_ATOM_UDEF_STEREO_COUNT>
0

> <PUBCHEM_BOND_DEF_STEREO_COUNT>
0

> <PUBCHEM_BOND_UDEF_STEREO_COUNT>
0

> <PUBCHEM_ISOTOPIC_ATOM_COUNT>
0

> <PUBCHEM_COMPONENT_COUNT>
1

> <PUBCHEM_CACTVS_TAUTO_COUNT>
2

> <PUBCHEM_COORDINATE_TYPE>
1
5
255

$$$$

