5935
  -OEChem-06261200592D

 21 19  0     0  0  0  0  0  0999 V2000
    5.1962    2.1200    0.0000 Cl  0  0  0  0  0  0  0  0  0  0  0  0
    0.0000    2.1200    0.0000 Cl  0  0  0  0  0  0  0  0  0  0  0  0
    2.0981    4.5950    0.0000 Cl  0  0  0  0  0  0  0  0  0  0  0  0
    2.5981    1.6200    0.0000 N   0  0  0  0  0  0  0  0  0  0  0  0
    3.4641    2.1200    0.0000 C   0  0  0  0  0  0  0  0  0  0  0  0
    1.7320    2.1200    0.0000 C   0  0  0  0  0  0  0  0  0  0  0  0
    2.5981    0.6200    0.0000 C   0  0  0  0  0  0  0  0  0  0  0  0
    4.3301    1.6200    0.0000 C   0  0  0  0  0  0  0  0  0  0  0  0
    0.8660    1.6200    0.0000 C   0  0  0  0  0  0  0  0  0  0  0  0
    2.1306    2.5950    0.0000 H   0  0  0  0  0  0  0  0  0  0  0  0
    1.3335    2.5950    0.0000 H   0  0  0  0  0  0  0  0  0  0  0  0
    3.8626    2.5950    0.0000 H   0  0  0  0  0  0  0  0  0  0  0  0
    3.0656    2.5950    0.0000 H   0  0  0  0  0  0  0  0  0  0  0  0
    1.9781    0.6200    0.0000 H   0  0  0  0  0  0  0  0  0  0  0  0
    2.5981    0.0000    0.0000 H   0  0  0  0  0  0  0  0  0  0  0  0
    3.2181    0.6200    0.0000 H   0  0  0  0  0  0  0  0  0  0  0  0
    0.4675    1.1450    0.0000 H   0  0  0  0  0  0  0  0  0  0  0  0
    1.2646    1.1450    0.0000 H   0  0  0  0  0  0  0  0  0  0  0  0
    3.9316    1.1450    0.0000 H   0  0  0  0  0  0  0  0  0  0  0  0
    4.7287    1.1450    0.0000 H   0  0  0  0  0  0  0  0  0  0  0  0
    3.0981    4.5950    0.0000 H   0  0  0  0  0  0  0  0  0  0  0  0
  1  8  1  0  0  0  0
  2  9  1  0  0  0  0
  3 21  1  0  0  0  0
  4  5  1  0  0  0  0
  4  6  1  0  0  0  0
  4  7  1  0  0  0  0
  5  8  1  0  0  0  0
  5 12  1  0  0  0  0
  5 13  1  0  0  0  0
  6  9  1  0  0  0  0
  6 10  1  0  0  0  0
  6 11  1  0  0  0  0
  7 14  1  0  0  0  0
  7 15  1  0  0  0  0
  7 16  1  0  0  0  0
  8 19  1  0  0  0  0
  8 20  1  0  0  0  0
  9 17  1  0  0  0  0
  9 18  1  0  0  0  0
M  END
> <PUBCHEM_COMPOUND_CID>
5935

> <PUBCHEM_COMPOUND_CANONICALIZED>
1

> <PUBCHEM_CACTVS_COMPLEXITY>
43.7

> <PUBCHEM_CACTVS_HBOND_ACCEPTOR>
1

> <PUBCHEM_CACTVS_HBOND_DONOR>
1

> <PUBCHEM_CACTVS_ROTATABLE_BOND>
4

> <PUBCHEM_CACTVS_SUBSKEYS>
AAADccBiAAAGAAAAAAAAAAAAAAAAAAAAAAAAAAAAAAAAAAAAAAAAHAIAAAAAAAPBAEQCAAMAAAAAAAAAAAAAAAAAAAAAAAAIAAAAAAAAAABAAAAAAACAAAAAAAAAAAAAAAAAAAAAAAAAAAAAAAAAAAAAAA==

> <PUBCHEM_IUPAC_OPENEYE_NAME>
2-chloro-N-(2-chloroethyl)-N-methyl-ethanamine hydrochloride

> <PUBCHEM_IUPAC_CAS_NAME>
2-chloro-N-(2-chloroethyl)-N-methylethanamine hydrochloride

> <PUBCHEM_IUPAC_NAME>
2-chloro-N-(2-chloroethyl)-N-methylethanamine hydrochloride

> <PUBCHEM_IUPAC_SYSTEMATIC_NAME>
2-chloranyl-N-(2-chloroethyl)-N-methyl-ethanamine hydrochloride

> <PUBCHEM_IUPAC_TRADITIONAL_NAME>
bis(2-chloroethyl)-methyl-amine hydrochloride

> <PUBCHEM_IUPAC_INCHI>
InChI=1S/C5H11Cl2N.ClH/c1-8(4-2-6)5-3-7;/h2-5H2,1H3;1H

> <PUBCHEM_IUPAC_INCHIKEY>
QZIQJVCYUQZDIR-UHFFFAOYSA-N

> <PUBCHEM_EXACT_MASS>
191.003532

> <PUBCHEM_MOLECULAR_FORMULA>
C5H12Cl3N

> <PUBCHEM_MOLECULAR_WEIGHT>
192.51448

> <PUBCHEM_OPENEYE_CAN_SMILES>
CN(CCCl)CCCl.Cl

> <PUBCHEM_OPENEYE_ISO_SMILES>
CN(CCCl)CCCl.Cl

> <PUBCHEM_CACTVS_TPSA>
3.2

> <PUBCHEM_MONOISOTOPIC_WEIGHT>
191.003532

> <PUBCHEM_TOTAL_CHARGE>
0

> <PUBCHEM_HEAVY_ATOM_COUNT>
9

> <PUBCHEM_ATOM_DEF_STEREO_COUNT>
0

> <PUBCHEM_ATOM_UDEF_STEREO_COUNT>
0

> <PUBCHEM_BOND_DEF_STEREO_COUNT>
0

> <PUBCHEM_BOND_UDEF_STEREO_COUNT>
0

> <PUBCHEM_ISOTOPIC_ATOM_COUNT>
0

> <PUBCHEM_COMPONENT_COUNT>
2

> <PUBCHEM_CACTVS_TAUTO_COUNT>
1

> <PUBCHEM_COORDINATE_TYPE>
1
5
255

$$$$

