12474
  -OEChem-06261206592D

 97101  0     1  0  0  0  0  0999 V2000
    3.1350    8.5369    0.0000 O   0  0  0  0  0  0  0  0  0  0  0  0
    1.6126   18.0053    0.0000 O   0  0  0  0  0  0  0  0  0  0  0  0
    2.0592   15.4732    0.0000 O   0  0  0  0  0  0  0  0  0  0  0  0
    3.0852   12.6542    0.0000 O   0  0  0  0  0  0  0  0  0  0  0  0
    1.6126   21.0053    0.0000 O   0  0  0  0  0  0  0  0  0  0  0  0
    1.7583   13.7675    0.0000 O   0  0  0  0  0  0  0  0  0  0  0  0
    0.7466   19.5053    0.0000 O   0  0  0  0  0  0  0  0  0  0  0  0
    2.2690    2.0369    0.0000 N   0  0  0  0  0  0  0  0  0  0  0  0
    4.8671    5.5369    0.0000 N   0  0  0  0  0  0  0  0  0  0  0  0
    6.6270    6.5023    0.0000 N   0  0  0  0  0  0  0  0  0  0  0  0
    4.0010    4.0369    0.0000 C   0  0  0  0  0  0  0  0  0  0  0  0
    3.1350    3.5369    0.0000 C   0  0  0  0  0  0  0  0  0  0  0  0
    4.0010    5.0369    0.0000 C   0  0  3  0  0  0  0  0  0  0  0  0
    3.1350    2.5369    0.0000 C   0  0  0  0  0  0  0  0  0  0  0  0
    3.1350    5.5369    0.0000 C   0  0  0  0  0  0  0  0  0  0  0  0
    2.2690    1.0369    0.0000 C   0  0  0  0  0  0  0  0  0  0  0  0
    1.4030    2.5369    0.0000 C   0  0  0  0  0  0  0  0  0  0  0  0
    4.8671    6.5369    0.0000 C   0  0  0  0  0  0  0  0  0  0  0  0
    0.5369    2.0369    0.0000 C   0  0  0  0  0  0  0  0  0  0  0  0
    1.4030    0.5369    0.0000 C   0  0  0  0  0  0  0  0  0  0  0  0
    3.3447   17.0053    0.0000 C   0  0  0  0  0  0  0  0  0  0  0  0
    5.7331    7.0369    0.0000 C   0  0  0  0  0  0  0  0  0  0  0  0
    3.3447   18.0053    0.0000 C   0  0  0  0  0  0  0  0  0  0  0  0
    3.6867   16.0657    0.0000 C   0  0  0  0  0  0  0  0  0  0  0  0
    4.0010    7.0369    0.0000 C   0  0  0  0  0  0  0  0  0  0  0  0
    4.2107   18.5053    0.0000 C   0  0  0  0  0  0  0  0  0  0  0  0
    4.6715   15.8920    0.0000 C   0  0  0  0  0  0  0  0  0  0  0  0
    5.7331    8.0369    0.0000 C   0  0  0  0  0  0  0  0  0  0  0  0
    4.2107   19.5053    0.0000 C   0  0  0  0  0  0  0  0  0  0  0  0
    5.0135   14.9523    0.0000 C   0  0  0  0  0  0  0  0  0  0  0  0
    2.4786   18.5053    0.0000 C   0  0  0  0  0  0  0  0  0  0  0  0
    3.0439   15.2996    0.0000 C   0  0  0  0  0  0  0  0  0  0  0  0
    4.0010    8.0369    0.0000 C   0  0  0  0  0  0  0  0  0  0  0  0
    4.8671    8.5369    0.0000 C   0  0  0  0  0  0  0  0  0  0  0  0
    2.4786   19.5053    0.0000 C   0  0  0  0  0  0  0  0  0  0  0  0
    3.3859   14.3599    0.0000 C   0  0  0  0  0  0  0  0  0  0  0  0
    3.3447   20.0053    0.0000 C   0  0  0  0  0  0  0  0  0  0  0  0
    4.3707   14.1863    0.0000 C   0  0  0  0  0  0  0  0  0  0  0  0
    5.3287   16.7002    0.0000 C   0  0  0  0  0  0  0  0  0  0  0  0
    5.1046   17.9707    0.0000 C   0  0  0  0  0  0  0  0  0  0  0  0
    6.6270    8.5716    0.0000 C   0  0  0  0  0  0  0  0  0  0  0  0
    6.0364   14.7556    0.0000 C   0  0  0  0  0  0  0  0  0  0  0  0
    5.1046   20.0400    0.0000 C   0  0  0  0  0  0  0  0  0  0  0  0
    6.3558   16.5272    0.0000 C   0  0  0  0  0  0  0  0  0  0  0  0
    6.0107   18.4845    0.0000 C   0  0  0  0  0  0  0  0  0  0  0  0
    6.7121   15.5484    0.0000 C   0  0  0  0  0  0  0  0  0  0  0  0
    6.0107   19.5262    0.0000 C   0  0  0  0  0  0  0  0  0  0  0  0
    7.5331    8.0578    0.0000 C   0  0  0  0  0  0  0  0  0  0  0  0
    7.5331    7.0161    0.0000 C   0  0  0  0  0  0  0  0  0  0  0  0
    2.7431   13.5939    0.0000 C   0  0  0  0  0  0  0  0  0  0  0  0
    1.6126   20.0053    0.0000 C   0  0  0  0  0  0  0  0  0  0  0  0
    3.1350    9.5369    0.0000 C   0  0  0  0  0  0  0  0  0  0  0  0
    4.2131    3.4543    0.0000 H   0  0  0  0  0  0  0  0  0  0  0  0
    4.6116    4.1446    0.0000 H   0  0  0  0  0  0  0  0  0  0  0  0
    2.9230    4.1195    0.0000 H   0  0  0  0  0  0  0  0  0  0  0  0
    2.5244    3.4293    0.0000 H   0  0  0  0  0  0  0  0  0  0  0  0
    4.0010    5.6569    0.0000 H   0  0  0  0  0  0  0  0  0  0  0  0
    3.3471    1.9543    0.0000 H   0  0  0  0  0  0  0  0  0  0  0  0
    3.7456    2.6446    0.0000 H   0  0  0  0  0  0  0  0  0  0  0  0
    5.4040    5.2269    0.0000 H   0  0  0  0  0  0  0  0  0  0  0  0
    3.4450    6.0739    0.0000 H   0  0  0  0  0  0  0  0  0  0  0  0
    2.5981    5.8469    0.0000 H   0  0  0  0  0  0  0  0  0  0  0  0
    2.8250    5.0000    0.0000 H   0  0  0  0  0  0  0  0  0  0  0  0
    1.8015    3.0119    0.0000 H   0  0  0  0  0  0  0  0  0  0  0  0
    1.0044    3.0119    0.0000 H   0  0  0  0  0  0  0  0  0  0  0  0
    2.4810    0.4543    0.0000 H   0  0  0  0  0  0  0  0  0  0  0  0
    2.8796    1.1446    0.0000 H   0  0  0  0  0  0  0  0  0  0  0  0
    2.7754   17.2509    0.0000 H   0  0  0  0  0  0  0  0  0  0  0  0
    3.9552   17.1130    0.0000 H   0  0  0  0  0  0  0  0  0  0  0  0
    0.2269    2.5739    0.0000 H   0  0  0  0  0  0  0  0  0  0  0  0
    0.0000    1.7269    0.0000 H   0  0  0  0  0  0  0  0  0  0  0  0
    0.8469    1.5000    0.0000 H   0  0  0  0  0  0  0  0  0  0  0  0
    1.0930    1.0739    0.0000 H   0  0  0  0  0  0  0  0  0  0  0  0
    0.8660    0.2269    0.0000 H   0  0  0  0  0  0  0  0  0  0  0  0
    1.7130    0.0000    0.0000 H   0  0  0  0  0  0  0  0  0  0  0  0
    3.4641    6.7269    0.0000 H   0  0  0  0  0  0  0  0  0  0  0  0
    4.8671    9.1569    0.0000 H   0  0  0  0  0  0  0  0  0  0  0  0
    3.3447   20.6253    0.0000 H   0  0  0  0  0  0  0  0  0  0  0  0
    4.5828   13.6037    0.0000 H   0  0  0  0  0  0  0  0  0  0  0  0
    5.1099   17.2803    0.0000 H   0  0  0  0  0  0  0  0  0  0  0  0
    5.0975   17.3507    0.0000 H   0  0  0  0  0  0  0  0  0  0  0  0
    6.6199    9.1916    0.0000 H   0  0  0  0  0  0  0  0  0  0  0  0
    6.2417   14.1706    0.0000 H   0  0  0  0  0  0  0  0  0  0  0  0
    5.0975   20.6600    0.0000 H   0  0  0  0  0  0  0  0  0  0  0  0
    6.7525   17.0037    0.0000 H   0  0  0  0  0  0  0  0  0  0  0  0
    6.5464   18.1725    0.0000 H   0  0  0  0  0  0  0  0  0  0  0  0
    7.3222   15.4384    0.0000 H   0  0  0  0  0  0  0  0  0  0  0  0
    6.5464   19.8382    0.0000 H   0  0  0  0  0  0  0  0  0  0  0  0
    8.0688    8.3698    0.0000 H   0  0  0  0  0  0  0  0  0  0  0  0
    8.0688    6.7040    0.0000 H   0  0  0  0  0  0  0  0  0  0  0  0
    1.6606   14.9982    0.0000 H   0  0  0  0  0  0  0  0  0  0  0  0
    1.0757   18.3153    0.0000 H   0  0  0  0  0  0  0  0  0  0  0  0
    3.7550    9.5369    0.0000 H   0  0  0  0  0  0  0  0  0  0  0  0
    3.1350   10.1569    0.0000 H   0  0  0  0  0  0  0  0  0  0  0  0
    2.5150    9.5369    0.0000 H   0  0  0  0  0  0  0  0  0  0  0  0
    2.6866   12.1792    0.0000 H   0  0  0  0  0  0  0  0  0  0  0  0
    1.0757   21.3153    0.0000 H   0  0  0  0  0  0  0  0  0  0  0  0
  1 33  1  0  0  0  0
  1 52  1  0  0  0  0
  2 31  1  0  0  0  0
  2 92  1  0  0  0  0
  3 32  1  0  0  0  0
  3 91  1  0  0  0  0
  4 50  1  0  0  0  0
  4 96  1  0  0  0  0
  5 51  1  0  0  0  0
  5 97  1  0  0  0  0
  6 50  2  0  0  0  0
  7 51  2  0  0  0  0
  8 14  1  0  0  0  0
  8 16  1  0  0  0  0
  8 17  1  0  0  0  0
  9 13  1  0  0  0  0
  9 18  1  0  0  0  0
  9 60  1  0  0  0  0
 10 22  1  0  0  0  0
 10 49  2  0  0  0  0
 11 12  1  0  0  0  0
 11 13  1  0  0  0  0
 11 53  1  0  0  0  0
 11 54  1  0  0  0  0
 12 14  1  0  0  0  0
 12 55  1  0  0  0  0
 12 56  1  0  0  0  0
 13 15  1  0  0  0  0
 13 57  1  0  0  0  0
 14 58  1  0  0  0  0
 14 59  1  0  0  0  0
 15 61  1  0  0  0  0
 15 62  1  0  0  0  0
 15 63  1  0  0  0  0
 16 20  1  0  0  0  0
 16 66  1  0  0  0  0
 16 67  1  0  0  0  0
 17 19  1  0  0  0  0
 17 64  1  0  0  0  0
 17 65  1  0  0  0  0
 18 22  2  0  0  0  0
 18 25  1  0  0  0  0
 19 70  1  0  0  0  0
 19 71  1  0  0  0  0
 19 72  1  0  0  0  0
 20 73  1  0  0  0  0
 20 74  1  0  0  0  0
 20 75  1  0  0  0  0
 21 23  1  0  0  0  0
 21 24  1  0  0  0  0
 21 68  1  0  0  0  0
 21 69  1  0  0  0  0
 22 28  1  0  0  0  0
 23 26  1  0  0  0  0
 23 31  2  0  0  0  0
 24 27  1  0  0  0  0
 24 32  2  0  0  0  0
 25 33  2  0  0  0  0
 25 76  1  0  0  0  0
 26 29  1  0  0  0  0
 26 40  2  0  0  0  0
 27 30  1  0  0  0  0
 27 39  2  0  0  0  0
 28 34  2  0  0  0  0
 28 41  1  0  0  0  0
 29 37  1  0  0  0  0
 29 43  2  0  0  0  0
 30 38  1  0  0  0  0
 30 42  2  0  0  0  0
 31 35  1  0  0  0  0
 32 36  1  0  0  0  0
 33 34  1  0  0  0  0
 34 77  1  0  0  0  0
 35 37  2  0  0  0  0
 35 51  1  0  0  0  0
 36 38  2  0  0  0  0
 36 50  1  0  0  0  0
 37 78  1  0  0  0  0
 38 79  1  0  0  0  0
 39 44  1  0  0  0  0
 39 80  1  0  0  0  0
 40 45  1  0  0  0  0
 40 81  1  0  0  0  0
 41 48  2  0  0  0  0
 41 82  1  0  0  0  0
 42 46  1  0  0  0  0
 42 83  1  0  0  0  0
 43 47  1  0  0  0  0
 43 84  1  0  0  0  0
 44 46  2  0  0  0  0
 44 85  1  0  0  0  0
 45 47  2  0  0  0  0
 45 86  1  0  0  0  0
 46 87  1  0  0  0  0
 47 88  1  0  0  0  0
 48 49  1  0  0  0  0
 48 89  1  0  0  0  0
 49 90  1  0  0  0  0
 52 93  1  0  0  0  0
 52 94  1  0  0  0  0
 52 95  1  0  0  0  0
M  END
> <PUBCHEM_COMPOUND_CID>
12474

> <PUBCHEM_COMPOUND_CANONICALIZED>
1

> <PUBCHEM_CACTVS_COMPLEXITY>
890

> <PUBCHEM_CACTVS_HBOND_ACCEPTOR>
10

> <PUBCHEM_CACTVS_HBOND_DONOR>
5

> <PUBCHEM_CACTVS_ROTATABLE_BOND>
13

> <PUBCHEM_CACTVS_SUBSKEYS>
AAADcfB/OAAAAAAAAAAAAAAAAAAAAAAAAAA8YMGDAAAAAADx9AAAHgAQCAAADCzBngY+zvPIFgCoAzT3TACCiCA1MiAI2KE+fNgMZ/bGtZuUcWhn8BnI+Ye4+PeO4EADQgAaACDAgAaEADQAQAAAAAAAAA==

> <PUBCHEM_IUPAC_OPENEYE_NAME>
4-[(3-carboxy-2-hydroxy-1-naphthyl)methyl]-3-hydroxy-naphthalene-2-carboxylic acid; N1,N1-diethyl-N4-(6-methoxy-8-quinolyl)pentane-1,4-diamine

> <PUBCHEM_IUPAC_CAS_NAME>
4-[(3-carboxy-2-hydroxy-1-naphthalenyl)methyl]-3-hydroxy-2-naphthalenecarboxylic acid; N1,N1-diethyl-N4-(6-methoxy-8-quinolinyl)pentane-1,4-diamine

> <PUBCHEM_IUPAC_NAME>
4-[(3-carboxy-2-hydroxynaphthalen-1-yl)methyl]-3-hydroxynaphthalene-2-carboxylic acid; 1-N,1-N-diethyl-4-N-(6-methoxyquinolin-8-yl)pentane-1,4-diamine

> <PUBCHEM_IUPAC_SYSTEMATIC_NAME>
4-[(3-carboxy-2-oxidanyl-naphthalen-1-yl)methyl]-3-oxidanyl-naphthalene-2-carboxylic acid; N1,N1-diethyl-N4-(6-methoxyquinolin-8-yl)pentane-1,4-diamine

> <PUBCHEM_IUPAC_TRADITIONAL_NAME>
4-[(3-carboxy-2-hydroxy-1-naphthyl)methyl]-3-hydroxy-2-naphthoic acid; diethyl-[4-[(6-methoxy-8-quinolyl)amino]pentyl]amine

> <PUBCHEM_IUPAC_INCHI>
InChI=1S/C23H16O6.C19H29N3O/c24-20-16(14-7-3-1-5-12(14)9-18(20)22(26)27)11-17-15-8-4-2-6-13(15)10-19(21(17)25)23(28)29;1-5-22(6-2)12-8-9-15(3)21-18-14-17(23-4)13-16-10-7-11-20-19(16)18/h1-10,24-25H,11H2,(H,26,27)(H,28,29);7,10-11,13-15,21H,5-6,8-9,12H2,1-4H3

> <PUBCHEM_IUPAC_INCHIKEY>
IPPMKVWUPMOGFL-UHFFFAOYSA-N

> <PUBCHEM_EXACT_MASS>
703.325751

> <PUBCHEM_MOLECULAR_FORMULA>
C42H45N3O7

> <PUBCHEM_MOLECULAR_WEIGHT>
703.8226

> <PUBCHEM_OPENEYE_CAN_SMILES>
CCN(CC)CCCC(C)NC1=C2C(=CC(=C1)OC)C=CC=N2.C1=CC=C2C(=C1)C=C(C(=C2CC3=C(C(=CC4=CC=CC=C43)C(=O)O)O)O)C(=O)O

> <PUBCHEM_OPENEYE_ISO_SMILES>
CCN(CC)CCCC(C)NC1=C2C(=CC(=C1)OC)C=CC=N2.C1=CC=C2C(=C1)C=C(C(=C2CC3=C(C(=CC4=CC=CC=C43)C(=O)O)O)O)C(=O)O

> <PUBCHEM_CACTVS_TPSA>
152

> <PUBCHEM_MONOISOTOPIC_WEIGHT>
703.325751

> <PUBCHEM_TOTAL_CHARGE>
0

> <PUBCHEM_HEAVY_ATOM_COUNT>
52

> <PUBCHEM_ATOM_DEF_STEREO_COUNT>
0

> <PUBCHEM_ATOM_UDEF_STEREO_COUNT>
1

> <PUBCHEM_BOND_DEF_STEREO_COUNT>
0

> <PUBCHEM_BOND_UDEF_STEREO_COUNT>
0

> <PUBCHEM_ISOTOPIC_ATOM_COUNT>
0

> <PUBCHEM_COMPONENT_COUNT>
2

> <PUBCHEM_CACTVS_TAUTO_COUNT>
9

> <PUBCHEM_COORDINATE_TYPE>
1
5
255

> <PUBCHEM_BONDANNOTATIONS>
10  22  8
10  49  8
13  15  3
18  22  8
18  25  8
22  28  8
23  26  8
23  31  8
24  27  8
24  32  8
25  33  8
26  29  8
26  40  8
27  30  8
27  39  8
28  34  8
28  41  8
29  37  8
29  43  8
30  38  8
30  42  8
31  35  8
32  36  8
33  34  8
35  37  8
36  38  8
39  44  8
40  45  8
41  48  8
42  46  8
43  47  8
44  46  8
45  47  8
48  49  8

$$$$

