17396562
  -OEChem-06241222572D

 42 44  0     0  0  0  0  0  0999 V2000
    5.9641    0.9842    0.0000 S   0  0  0  0  0  0  0  0  0  0  0  0
    3.6953    5.0546    0.0000 O   0  0  0  0  0  0  0  0  0  0  0  0
    5.4641   -4.5546    0.0000 O   0  0  0  0  0  0  0  0  0  0  0  0
    5.7776    2.8113    0.0000 O   0  0  0  0  0  0  0  0  0  0  0  0
    4.3763    1.7932    0.0000 N   0  0  0  0  0  0  0  0  0  0  0  0
    4.6551    0.0332    0.0000 N   0  0  0  0  0  0  0  0  0  0  0  0
    2.8862    4.4668    0.0000 N   0  0  0  0  0  0  0  0  0  0  0  0
    2.0000   -2.5546    0.0000 N   0  0  0  0  0  0  0  0  0  0  0  0
    5.4641   -1.5546    0.0000 C   0  0  0  0  0  0  0  0  0  0  0  0
    4.5981   -3.0546    0.0000 C   0  0  0  0  0  0  0  0  0  0  0  0
    4.5981   -2.0546    0.0000 C   0  0  0  0  0  0  0  0  0  0  0  0
    5.4641   -0.5546    0.0000 C   0  0  0  0  0  0  0  0  0  0  0  0
    5.4641   -3.5546    0.0000 C   0  0  0  0  0  0  0  0  0  0  0  0
    4.1953    3.5158    0.0000 C   0  0  0  0  0  0  0  0  0  0  0  0
    6.3301   -2.0546    0.0000 C   0  0  0  0  0  0  0  0  0  0  0  0
    6.3301   -3.0546    0.0000 C   0  0  0  0  0  0  0  0  0  0  0  0
    4.5043    4.4668    0.0000 C   0  0  0  0  0  0  0  0  0  0  0  0
    3.1953    3.5158    0.0000 C   0  0  0  0  0  0  0  0  0  0  0  0
    3.7320   -3.5546    0.0000 C   0  0  0  0  0  0  0  0  0  0  0  0
    4.9641    0.9842    0.0000 C   0  0  0  0  0  0  0  0  0  0  0  0
    4.7830    2.7068    0.0000 C   0  0  0  0  0  0  0  0  0  0  0  0
    6.2731    0.0332    0.0000 C   0  0  0  0  0  0  0  0  0  0  0  0
    5.4553    4.7759    0.0000 C   0  0  0  0  0  0  0  0  0  0  0  0
    2.6075    2.7068    0.0000 C   0  0  0  0  0  0  0  0  0  0  0  0
    2.8660   -3.0546    0.0000 C   0  0  0  0  0  0  0  0  0  0  0  0
    6.3301   -5.0546    0.0000 C   0  0  0  0  0  0  0  0  0  0  0  0
    4.0611   -1.7446    0.0000 H   0  0  0  0  0  0  0  0  0  0  0  0
    6.8671   -1.7446    0.0000 H   0  0  0  0  0  0  0  0  0  0  0  0
    6.8671   -3.3646    0.0000 H   0  0  0  0  0  0  0  0  0  0  0  0
    3.3335   -4.0296    0.0000 H   0  0  0  0  0  0  0  0  0  0  0  0
    4.1306   -4.0296    0.0000 H   0  0  0  0  0  0  0  0  0  0  0  0
    6.8628   -0.1584    0.0000 H   0  0  0  0  0  0  0  0  0  0  0  0
    3.7597    1.7284    0.0000 H   0  0  0  0  0  0  0  0  0  0  0  0
    5.6469    4.1862    0.0000 H   0  0  0  0  0  0  0  0  0  0  0  0
    6.0450    4.9675    0.0000 H   0  0  0  0  0  0  0  0  0  0  0  0
    5.2638    5.3655    0.0000 H   0  0  0  0  0  0  0  0  0  0  0  0
    2.1059    3.0712    0.0000 H   0  0  0  0  0  0  0  0  0  0  0  0
    2.2431    2.2052    0.0000 H   0  0  0  0  0  0  0  0  0  0  0  0
    3.1091    2.3424    0.0000 H   0  0  0  0  0  0  0  0  0  0  0  0
    6.0201   -5.5916    0.0000 H   0  0  0  0  0  0  0  0  0  0  0  0
    6.8671   -5.3646    0.0000 H   0  0  0  0  0  0  0  0  0  0  0  0
    6.6401   -4.5177    0.0000 H   0  0  0  0  0  0  0  0  0  0  0  0
  1 20  1  0  0  0  0
  1 22  1  0  0  0  0
  2  7  1  0  0  0  0
  2 17  1  0  0  0  0
  3 13  1  0  0  0  0
  3 26  1  0  0  0  0
  4 21  2  0  0  0  0
  5 20  1  0  0  0  0
  5 21  1  0  0  0  0
  5 33  1  0  0  0  0
  6 12  1  0  0  0  0
  6 20  2  0  0  0  0
  7 18  2  0  0  0  0
  8 25  3  0  0  0  0
  9 11  2  0  0  0  0
  9 12  1  0  0  0  0
  9 15  1  0  0  0  0
 10 11  1  0  0  0  0
 10 13  2  0  0  0  0
 10 19  1  0  0  0  0
 11 27  1  0  0  0  0
 12 22  2  0  0  0  0
 13 16  1  0  0  0  0
 14 17  2  0  0  0  0
 14 18  1  0  0  0  0
 14 21  1  0  0  0  0
 15 16  2  0  0  0  0
 15 28  1  0  0  0  0
 16 29  1  0  0  0  0
 17 23  1  0  0  0  0
 18 24  1  0  0  0  0
 19 25  1  0  0  0  0
 19 30  1  0  0  0  0
 19 31  1  0  0  0  0
 22 32  1  0  0  0  0
 23 34  1  0  0  0  0
 23 35  1  0  0  0  0
 23 36  1  0  0  0  0
 24 37  1  0  0  0  0
 24 38  1  0  0  0  0
 24 39  1  0  0  0  0
 26 40  1  0  0  0  0
 26 41  1  0  0  0  0
 26 42  1  0  0  0  0
M  END
> <PUBCHEM_COMPOUND_CID>
17396562

> <PUBCHEM_COMPOUND_CANONICALIZED>
1

> <PUBCHEM_CACTVS_COMPLEXITY>
554

> <PUBCHEM_CACTVS_HBOND_ACCEPTOR>
7

> <PUBCHEM_CACTVS_HBOND_DONOR>
1

> <PUBCHEM_CACTVS_ROTATABLE_BOND>
5

> <PUBCHEM_CACTVS_SUBSKEYS>
AAADceB7sABAAAAAAAAAAAAAAAAAAWLAAAAwAAAAAAAAAAAB8AAAHgQUAAAADAyF3gKzl5LYFAi9B6VydgCC+KllKjkpmDU2bNqMpr6s+ZuEMehu4RsI6W+Q0OMOIAACAAAIAABAAAQAABAAAAAAAAAAAA==

> <PUBCHEM_IUPAC_OPENEYE_NAME>
N-[4-[3-(cyanomethyl)-4-methoxy-phenyl]thiazol-2-yl]-3,5-dimethyl-isoxazole-4-carboxamide

> <PUBCHEM_IUPAC_CAS_NAME>
N-[4-[3-(cyanomethyl)-4-methoxyphenyl]-2-thiazolyl]-3,5-dimethyl-4-isoxazolecarboxamide

> <PUBCHEM_IUPAC_NAME>
N-[4-[3-(cyanomethyl)-4-methoxyphenyl]-1,3-thiazol-2-yl]-3,5-dimethyl-1,2-oxazole-4-carboxamide

> <PUBCHEM_IUPAC_SYSTEMATIC_NAME>
N-[4-[3-(cyanomethyl)-4-methoxy-phenyl]-1,3-thiazol-2-yl]-3,5-dimethyl-1,2-oxazole-4-carboxamide

> <PUBCHEM_IUPAC_TRADITIONAL_NAME>
N-[4-[3-(cyanomethyl)-4-methoxy-phenyl]thiazol-2-yl]-3,5-dimethyl-isoxazole-4-carboxamide

> <PUBCHEM_IUPAC_INCHI>
InChI=1S/C18H16N4O3S/c1-10-16(11(2)25-22-10)17(23)21-18-20-14(9-26-18)12-4-5-15(24-3)13(8-12)6-7-19/h4-5,8-9H,6H2,1-3H3,(H,20,21,23)

> <PUBCHEM_IUPAC_INCHIKEY>
DVZCVQIVACLXHG-UHFFFAOYSA-N

> <PUBCHEM_XLOGP3_AA>
2.7

> <PUBCHEM_EXACT_MASS>
368.094311

> <PUBCHEM_MOLECULAR_FORMULA>
C18H16N4O3S

> <PUBCHEM_MOLECULAR_WEIGHT>
368.40964

> <PUBCHEM_OPENEYE_CAN_SMILES>
CC1=C(C(=NO1)C)C(=O)NC2=NC(=CS2)C3=CC(=C(C=C3)OC)CC#N

> <PUBCHEM_OPENEYE_ISO_SMILES>
CC1=C(C(=NO1)C)C(=O)NC2=NC(=CS2)C3=CC(=C(C=C3)OC)CC#N

> <PUBCHEM_CACTVS_TPSA>
129

> <PUBCHEM_MONOISOTOPIC_WEIGHT>
368.094311

> <PUBCHEM_TOTAL_CHARGE>
0

> <PUBCHEM_HEAVY_ATOM_COUNT>
26

> <PUBCHEM_ATOM_DEF_STEREO_COUNT>
0

> <PUBCHEM_ATOM_UDEF_STEREO_COUNT>
0

> <PUBCHEM_BOND_DEF_STEREO_COUNT>
0

> <PUBCHEM_BOND_UDEF_STEREO_COUNT>
0

> <PUBCHEM_ISOTOPIC_ATOM_COUNT>
0

> <PUBCHEM_COMPONENT_COUNT>
1

> <PUBCHEM_CACTVS_TAUTO_COUNT>
3

> <PUBCHEM_COORDINATE_TYPE>
1
5
255

> <PUBCHEM_BONDANNOTATIONS>
1  20  8
1  22  8
10  11  8
10  13  8
12  22  8
13  16  8
14  17  8
14  18  8
15  16  8
2  17  8
2  7  8
6  12  8
6  20  8
7  18  8
9  11  8
9  15  8

$$$$

