9308
  -OEChem-06261203352D

 32 32  0     1  0  0  0  0  0999 V2000
    4.9461    0.6184    0.0000 O   0  0  0  0  0  0  0  0  0  0  0  0
    6.0339   -1.7295    0.0000 O   0  0  0  0  0  0  0  0  0  0  0  0
    2.9782    1.3177    0.0000 N   0  3  0  0  0  0  0  0  0  0  0  0
    4.1371    0.0306    0.0000 C   0  0  2  0  0  0  0  0  0  0  0  0
    3.1861    0.3396    0.0000 C   0  0  0  0  0  0  0  0  0  0  0  0
    4.4461   -0.9205    0.0000 C   0  0  0  0  0  0  0  0  0  0  0  0
    5.4461   -0.9205    0.0000 C   0  0  2  0  0  0  0  0  0  0  0  0
    5.7552    0.0306    0.0000 C   0  0  2  0  0  0  0  0  0  0  0  0
    2.7702    2.2959    0.0000 C   0  0  0  0  0  0  0  0  0  0  0  0
    2.0000    1.1098    0.0000 C   0  0  0  0  0  0  0  0  0  0  0  0
    3.9563    1.5257    0.0000 C   0  0  0  0  0  0  0  0  0  0  0  0
    6.7062    0.3396    0.0000 C   0  0  0  0  0  0  0  0  0  0  0  0
    4.0401    0.6429    0.0000 H   0  0  0  0  0  0  0  0  0  0  0  0
    2.5664    0.3180    0.0000 H   0  0  0  0  0  0  0  0  0  0  0  0
    3.0998   -0.2744    0.0000 H   0  0  0  0  0  0  0  0  0  0  0  0
    3.8397   -1.0494    0.0000 H   0  0  0  0  0  0  0  0  0  0  0  0
    4.5109   -1.5371    0.0000 H   0  0  0  0  0  0  0  0  0  0  0  0
    5.1647   -1.4729    0.0000 H   0  0  0  0  0  0  0  0  0  0  0  0
    5.8521    0.6429    0.0000 H   0  0  0  0  0  0  0  0  0  0  0  0
    3.3767    2.4248    0.0000 H   0  0  0  0  0  0  0  0  0  0  0  0
    2.6413    2.9023    0.0000 H   0  0  0  0  0  0  0  0  0  0  0  0
    2.1638    2.1670    0.0000 H   0  0  0  0  0  0  0  0  0  0  0  0
    1.8711    1.7163    0.0000 H   0  0  0  0  0  0  0  0  0  0  0  0
    1.3936    0.9809    0.0000 H   0  0  0  0  0  0  0  0  0  0  0  0
    2.1289    0.5034    0.0000 H   0  0  0  0  0  0  0  0  0  0  0  0
    4.0852    0.9192    0.0000 H   0  0  0  0  0  0  0  0  0  0  0  0
    4.5628    1.6546    0.0000 H   0  0  0  0  0  0  0  0  0  0  0  0
    3.8274    2.1321    0.0000 H   0  0  0  0  0  0  0  0  0  0  0  0
    6.8978   -0.2501    0.0000 H   0  0  0  0  0  0  0  0  0  0  0  0
    7.2959    0.5312    0.0000 H   0  0  0  0  0  0  0  0  0  0  0  0
    6.5146    0.9293    0.0000 H   0  0  0  0  0  0  0  0  0  0  0  0
    5.7817   -2.2959    0.0000 H   0  0  0  0  0  0  0  0  0  0  0  0
  1  4  1  0  0  0  0
  1  8  1  0  0  0  0
  7  2  1  6  0  0  0
  2 32  1  0  0  0  0
  3  5  1  0  0  0  0
  3  9  1  0  0  0  0
  3 10  1  0  0  0  0
  3 11  1  0  0  0  0
  4  5  1  1  0  0  0
  4  6  1  0  0  0  0
  4 13  1  0  0  0  0
  5 14  1  0  0  0  0
  5 15  1  0  0  0  0
  6  7  1  0  0  0  0
  6 16  1  0  0  0  0
  6 17  1  0  0  0  0
  7  8  1  0  0  0  0
  7 18  1  0  0  0  0
  8 12  1  1  0  0  0
  8 19  1  0  0  0  0
  9 20  1  0  0  0  0
  9 21  1  0  0  0  0
  9 22  1  0  0  0  0
 10 23  1  0  0  0  0
 10 24  1  0  0  0  0
 10 25  1  0  0  0  0
 11 26  1  0  0  0  0
 11 27  1  0  0  0  0
 11 28  1  0  0  0  0
 12 29  1  0  0  0  0
 12 30  1  0  0  0  0
 12 31  1  0  0  0  0
M  CHG  1   3   1
M  END
> <PUBCHEM_COMPOUND_CID>
9308

> <PUBCHEM_COMPOUND_CANONICALIZED>
1

> <PUBCHEM_CACTVS_COMPLEXITY>
153

> <PUBCHEM_CACTVS_HBOND_ACCEPTOR>
2

> <PUBCHEM_CACTVS_HBOND_DONOR>
1

> <PUBCHEM_CACTVS_ROTATABLE_BOND>
2

> <PUBCHEM_CACTVS_SUBSKEYS>
AAADceByMAAAAAAAAAAAAAAAAAAAASAAAAAAAAAAAAAAAAAAAAAAHgAACAAACBThgAYCAAMABgAAAAAAAAAAAAAAAAAAAAAIAAADEAIAgAAHQAAFAAATAAGwEAIAAAAAAAAAAAAAAAAAAAAAAAAAAAAAAA==

> <PUBCHEM_IUPAC_OPENEYE_NAME>
[(2S,4R,5S)-4-hydroxy-5-methyl-tetrahydrofuran-2-yl]methyl-trimethyl-ammonium

> <PUBCHEM_IUPAC_CAS_NAME>
[(2S,4R,5S)-4-hydroxy-5-methyl-2-oxolanyl]methyl-trimethylammonium

> <PUBCHEM_IUPAC_NAME>
[(2S,4R,5S)-4-hydroxy-5-methyloxolan-2-yl]methyl-trimethylazanium

> <PUBCHEM_IUPAC_SYSTEMATIC_NAME>
trimethyl-[[(2S,4R,5S)-5-methyl-4-oxidanyl-oxolan-2-yl]methyl]azanium

> <PUBCHEM_IUPAC_TRADITIONAL_NAME>
[(2S,4R,5S)-4-hydroxy-5-methyl-tetrahydrofuran-2-yl]methyl-trimethyl-ammonium

> <PUBCHEM_IUPAC_INCHI>
InChI=1S/C9H20NO2/c1-7-9(11)5-8(12-7)6-10(2,3)4/h7-9,11H,5-6H2,1-4H3/q+1/t7-,8-,9+/m0/s1

> <PUBCHEM_IUPAC_INCHIKEY>
UQOFGTXDASPNLL-XHNCKOQMSA-N

> <PUBCHEM_XLOGP3_AA>
0.1

> <PUBCHEM_EXACT_MASS>
174.149404

> <PUBCHEM_MOLECULAR_FORMULA>
C9H20NO2+

> <PUBCHEM_MOLECULAR_WEIGHT>
174.2606

> <PUBCHEM_OPENEYE_CAN_SMILES>
CC1C(CC(O1)C[N+](C)(C)C)O

> <PUBCHEM_OPENEYE_ISO_SMILES>
C[C@H]1[C@@H](C[C@H](O1)C[N+](C)(C)C)O

> <PUBCHEM_CACTVS_TPSA>
29.5

> <PUBCHEM_MONOISOTOPIC_WEIGHT>
174.149404

> <PUBCHEM_TOTAL_CHARGE>
1

> <PUBCHEM_HEAVY_ATOM_COUNT>
12

> <PUBCHEM_ATOM_DEF_STEREO_COUNT>
3

> <PUBCHEM_ATOM_UDEF_STEREO_COUNT>
0

> <PUBCHEM_BOND_DEF_STEREO_COUNT>
0

> <PUBCHEM_BOND_UDEF_STEREO_COUNT>
0

> <PUBCHEM_ISOTOPIC_ATOM_COUNT>
0

> <PUBCHEM_COMPONENT_COUNT>
1

> <PUBCHEM_CACTVS_TAUTO_COUNT>
1

> <PUBCHEM_COORDINATE_TYPE>
1
5
255

> <PUBCHEM_BONDANNOTATIONS>
7  2  6
4  5  5
8  12  5

$$$$

