6237
  -OEChem-06261201112D

 34 36  0     0  0  0  0  0  0999 V2000
    7.5673    2.5344    0.0000 I   0  0  0  0  0  0  0  0  0  0  0  0
    8.2816   -0.8553    0.0000 I   0  0  0  0  0  0  0  0  0  0  0  0
    4.6783   -2.3391    0.0000 O   0  0  0  0  0  0  0  0  0  0  0  0
    4.3211    0.9652    0.0000 O   0  0  0  0  0  0  0  0  0  0  0  0
    8.9030    1.0458    0.0000 O   0  0  0  0  0  0  0  0  0  0  0  0
    4.6783   -0.7296    0.0000 C   0  0  0  0  0  0  0  0  0  0  0  0
    3.7320   -1.0344    0.0000 C   0  0  0  0  0  0  0  0  0  0  0  0
    5.2619   -1.5344    0.0000 C   0  0  0  0  0  0  0  0  0  0  0  0
    3.7320   -2.0344    0.0000 C   0  0  0  0  0  0  0  0  0  0  0  0
    6.2619   -1.5344    0.0000 C   0  0  0  0  0  0  0  0  0  0  0  0
    4.9889    0.2209    0.0000 C   0  0  0  0  0  0  0  0  0  0  0  0
    2.8660   -0.5344    0.0000 C   0  0  0  0  0  0  0  0  0  0  0  0
    5.9674    0.4271    0.0000 C   0  0  0  0  0  0  0  0  0  0  0  0
    2.8660   -2.5344    0.0000 C   0  0  0  0  0  0  0  0  0  0  0  0
    6.7619   -2.4004    0.0000 C   0  0  0  0  0  0  0  0  0  0  0  0
    2.0000   -1.0344    0.0000 C   0  0  0  0  0  0  0  0  0  0  0  0
    2.0000   -2.0344    0.0000 C   0  0  0  0  0  0  0  0  0  0  0  0
    6.6353   -0.3172    0.0000 C   0  0  0  0  0  0  0  0  0  0  0  0
    6.2781    1.3776    0.0000 C   0  0  0  0  0  0  0  0  0  0  0  0
    7.2566    1.5838    0.0000 C   0  0  0  0  0  0  0  0  0  0  0  0
    7.6138   -0.1110    0.0000 C   0  0  0  0  0  0  0  0  0  0  0  0
    7.9244    0.8395    0.0000 C   0  0  0  0  0  0  0  0  0  0  0  0
    6.8445   -1.3223    0.0000 H   0  0  0  0  0  0  0  0  0  0  0  0
    6.1542   -0.9238    0.0000 H   0  0  0  0  0  0  0  0  0  0  0  0
    2.8660    0.0856    0.0000 H   0  0  0  0  0  0  0  0  0  0  0  0
    2.8660   -3.1544    0.0000 H   0  0  0  0  0  0  0  0  0  0  0  0
    6.2249   -2.7104    0.0000 H   0  0  0  0  0  0  0  0  0  0  0  0
    7.0719   -2.9373    0.0000 H   0  0  0  0  0  0  0  0  0  0  0  0
    7.2988   -2.0904    0.0000 H   0  0  0  0  0  0  0  0  0  0  0  0
    1.4631   -0.7244    0.0000 H   0  0  0  0  0  0  0  0  0  0  0  0
    1.4631   -2.3444    0.0000 H   0  0  0  0  0  0  0  0  0  0  0  0
    6.4427   -0.9065    0.0000 H   0  0  0  0  0  0  0  0  0  0  0  0
    5.8640    1.8391    0.0000 H   0  0  0  0  0  0  0  0  0  0  0  0
    9.0956    1.6351    0.0000 H   0  0  0  0  0  0  0  0  0  0  0  0
  1 20  1  0  0  0  0
  2 21  1  0  0  0  0
  3  8  1  0  0  0  0
  3  9  1  0  0  0  0
  4 11  2  0  0  0  0
  5 22  1  0  0  0  0
  5 34  1  0  0  0  0
  6  7  1  0  0  0  0
  6  8  2  0  0  0  0
  6 11  1  0  0  0  0
  7  9  1  0  0  0  0
  7 12  2  0  0  0  0
  8 10  1  0  0  0  0
  9 14  2  0  0  0  0
 10 15  1  0  0  0  0
 10 23  1  0  0  0  0
 10 24  1  0  0  0  0
 11 13  1  0  0  0  0
 12 16  1  0  0  0  0
 12 25  1  0  0  0  0
 13 18  2  0  0  0  0
 13 19  1  0  0  0  0
 14 17  1  0  0  0  0
 14 26  1  0  0  0  0
 15 27  1  0  0  0  0
 15 28  1  0  0  0  0
 15 29  1  0  0  0  0
 16 17  2  0  0  0  0
 16 30  1  0  0  0  0
 17 31  1  0  0  0  0
 18 21  1  0  0  0  0
 18 32  1  0  0  0  0
 19 20  2  0  0  0  0
 19 33  1  0  0  0  0
 20 22  1  0  0  0  0
 21 22  2  0  0  0  0
M  END
> <PUBCHEM_COMPOUND_CID>
6237

> <PUBCHEM_COMPOUND_CANONICALIZED>
1

> <PUBCHEM_CACTVS_COMPLEXITY>
405

> <PUBCHEM_CACTVS_HBOND_ACCEPTOR>
3

> <PUBCHEM_CACTVS_HBOND_DONOR>
1

> <PUBCHEM_CACTVS_ROTATABLE_BOND>
3

> <PUBCHEM_CACTVS_SUBSKEYS>
AAADccB4MAAAAwAAAAAAAAAAAAAAASAAAAAwYAAAAAAAAEgB9AAAGgAgCAAADASCmAAyBsAABkCIAqBSAAACCAAkIAAIiAEGCMgMJjaONRqCeWCk4BEIuYeLzPDOoAAAAAAIAABAAAAAABAAAAAAAAAAAA==

> <PUBCHEM_IUPAC_OPENEYE_NAME>
(2-ethylbenzofuran-3-yl)-(4-hydroxy-3,5-diiodo-phenyl)methanone

> <PUBCHEM_IUPAC_CAS_NAME>
(2-ethyl-3-benzofuranyl)-(4-hydroxy-3,5-diiodophenyl)methanone

> <PUBCHEM_IUPAC_NAME>
(2-ethyl-1-benzofuran-3-yl)-(4-hydroxy-3,5-diiodophenyl)methanone

> <PUBCHEM_IUPAC_SYSTEMATIC_NAME>
[3,5-bis(iodanyl)-4-oxidanyl-phenyl]-(2-ethyl-1-benzofuran-3-yl)methanone

> <PUBCHEM_IUPAC_TRADITIONAL_NAME>
(2-ethylbenzofuran-3-yl)-(4-hydroxy-3,5-diiodo-phenyl)methanone

> <PUBCHEM_IUPAC_INCHI>
InChI=1S/C17H12I2O3/c1-2-13-15(10-5-3-4-6-14(10)22-13)16(20)9-7-11(18)17(21)12(19)8-9/h3-8,21H,2H2,1H3

> <PUBCHEM_IUPAC_INCHIKEY>
CZCHIEJNWPNBDE-UHFFFAOYSA-N

> <PUBCHEM_XLOGP3>
5.6

> <PUBCHEM_EXACT_MASS>
517.88759

> <PUBCHEM_MOLECULAR_FORMULA>
C17H12I2O3

> <PUBCHEM_MOLECULAR_WEIGHT>
518.08432

> <PUBCHEM_OPENEYE_CAN_SMILES>
CCC1=C(C2=CC=CC=C2O1)C(=O)C3=CC(=C(C(=C3)I)O)I

> <PUBCHEM_OPENEYE_ISO_SMILES>
CCC1=C(C2=CC=CC=C2O1)C(=O)C3=CC(=C(C(=C3)I)O)I

> <PUBCHEM_CACTVS_TPSA>
50.4

> <PUBCHEM_MONOISOTOPIC_WEIGHT>
517.88759

> <PUBCHEM_TOTAL_CHARGE>
0

> <PUBCHEM_HEAVY_ATOM_COUNT>
22

> <PUBCHEM_ATOM_DEF_STEREO_COUNT>
0

> <PUBCHEM_ATOM_UDEF_STEREO_COUNT>
0

> <PUBCHEM_BOND_DEF_STEREO_COUNT>
0

> <PUBCHEM_BOND_UDEF_STEREO_COUNT>
0

> <PUBCHEM_ISOTOPIC_ATOM_COUNT>
0

> <PUBCHEM_COMPONENT_COUNT>
1

> <PUBCHEM_CACTVS_TAUTO_COUNT>
4

> <PUBCHEM_COORDINATE_TYPE>
1
5
255

> <PUBCHEM_BONDANNOTATIONS>
12  16  8
13  18  8
13  19  8
14  17  8
16  17  8
18  21  8
19  20  8
20  22  8
21  22  8
3  8  8
3  9  8
6  7  8
6  8  8
7  12  8
7  9  8
9  14  8

$$$$

