17396021
  -OEChem-06241222532D

 48 50  0     1  0  0  0  0  0999 V2000
    2.0000   -4.1783    0.0000 F   0  0  0  0  0  0  0  0  0  0  0  0
    8.1737    5.6783    0.0000 F   0  0  0  0  0  0  0  0  0  0  0  0
    5.5686    1.8162    0.0000 O   0  0  0  0  0  0  0  0  0  0  0  0
    3.7320   -5.1783    0.0000 O   0  0  0  0  0  0  0  0  0  0  0  0
    4.5981   -0.6783    0.0000 N   0  0  3  0  0  0  0  0  0  0  0  0
    6.3776    0.4150    0.0000 N   0  0  0  0  0  0  0  0  0  0  0  0
    7.0468    1.1581    0.0000 N   0  0  0  0  0  0  0  0  0  0  0  0
    4.5981    0.3217    0.0000 C   0  0  3  0  0  0  0  0  0  0  0  0
    3.7320   -1.1783    0.0000 C   0  0  0  0  0  0  0  0  0  0  0  0
    5.4641   -1.1783    0.0000 C   0  0  0  0  0  0  0  0  0  0  0  0
    3.7320    0.8217    0.0000 C   0  0  0  0  0  0  0  0  0  0  0  0
    5.4641    0.8217    0.0000 C   0  0  0  0  0  0  0  0  0  0  0  0
    3.7320   -2.1783    0.0000 C   0  0  0  0  0  0  0  0  0  0  0  0
    5.4641   -2.1783    0.0000 C   0  0  0  0  0  0  0  0  0  0  0  0
    2.8660   -2.6783    0.0000 C   0  0  0  0  0  0  0  0  0  0  0  0
    4.5981   -2.6783    0.0000 C   0  0  0  0  0  0  0  0  0  0  0  0
    6.5468    2.0241    0.0000 C   0  0  0  0  0  0  0  0  0  0  0  0
    2.8660   -3.6783    0.0000 C   0  0  0  0  0  0  0  0  0  0  0  0
    4.5981   -3.6783    0.0000 C   0  0  0  0  0  0  0  0  0  0  0  0
    3.7320   -4.1783    0.0000 C   0  0  0  0  0  0  0  0  0  0  0  0
    6.9535    2.9377    0.0000 C   0  0  0  0  0  0  0  0  0  0  0  0
    6.3657    3.7467    0.0000 C   0  0  0  0  0  0  0  0  0  0  0  0
    7.9480    3.0422    0.0000 C   0  0  0  0  0  0  0  0  0  0  0  0
    6.7725    4.6602    0.0000 C   0  0  0  0  0  0  0  0  0  0  0  0
    8.3548    3.9558    0.0000 C   0  0  0  0  0  0  0  0  0  0  0  0
    7.7670    4.7648    0.0000 C   0  0  0  0  0  0  0  0  0  0  0  0
    4.5981   -5.6783    0.0000 C   0  0  0  0  0  0  0  0  0  0  0  0
    5.1350    0.0117    0.0000 H   0  0  0  0  0  0  0  0  0  0  0  0
    3.5200   -0.5957    0.0000 H   0  0  0  0  0  0  0  0  0  0  0  0
    3.1215   -1.2860    0.0000 H   0  0  0  0  0  0  0  0  0  0  0  0
    6.0747   -1.2860    0.0000 H   0  0  0  0  0  0  0  0  0  0  0  0
    5.6762   -0.5957    0.0000 H   0  0  0  0  0  0  0  0  0  0  0  0
    4.0420    1.3586    0.0000 H   0  0  0  0  0  0  0  0  0  0  0  0
    3.1951    1.1317    0.0000 H   0  0  0  0  0  0  0  0  0  0  0  0
    3.4220    0.2848    0.0000 H   0  0  0  0  0  0  0  0  0  0  0  0
    4.8441   -2.1783    0.0000 H   0  0  0  0  0  0  0  0  0  0  0  0
    5.4641   -2.7983    0.0000 H   0  0  0  0  0  0  0  0  0  0  0  0
    6.0841   -2.1783    0.0000 H   0  0  0  0  0  0  0  0  0  0  0  0
    2.3291   -2.3683    0.0000 H   0  0  0  0  0  0  0  0  0  0  0  0
    5.1350   -2.3683    0.0000 H   0  0  0  0  0  0  0  0  0  0  0  0
    5.1350   -3.9883    0.0000 H   0  0  0  0  0  0  0  0  0  0  0  0
    5.7491    3.6819    0.0000 H   0  0  0  0  0  0  0  0  0  0  0  0
    8.3125    2.5406    0.0000 H   0  0  0  0  0  0  0  0  0  0  0  0
    6.4080    5.1618    0.0000 H   0  0  0  0  0  0  0  0  0  0  0  0
    8.9714    4.0206    0.0000 H   0  0  0  0  0  0  0  0  0  0  0  0
    4.2881   -6.2152    0.0000 H   0  0  0  0  0  0  0  0  0  0  0  0
    5.1350   -5.9883    0.0000 H   0  0  0  0  0  0  0  0  0  0  0  0
    4.9081   -5.1414    0.0000 H   0  0  0  0  0  0  0  0  0  0  0  0
  1 18  1  0  0  0  0
  2 26  1  0  0  0  0
  3 12  1  0  0  0  0
  3 17  1  0  0  0  0
  4 20  1  0  0  0  0
  4 27  1  0  0  0  0
  5  8  1  0  0  0  0
  5  9  1  0  0  0  0
  5 10  1  0  0  0  0
  6  7  1  0  0  0  0
  6 12  2  0  0  0  0
  7 17  2  0  0  0  0
  8 11  1  0  0  0  0
  8 12  1  0  0  0  0
  8 28  1  0  0  0  0
  9 13  1  0  0  0  0
  9 29  1  0  0  0  0
  9 30  1  0  0  0  0
 10 14  1  0  0  0  0
 10 31  1  0  0  0  0
 10 32  1  0  0  0  0
 11 33  1  0  0  0  0
 11 34  1  0  0  0  0
 11 35  1  0  0  0  0
 13 15  2  0  0  0  0
 13 16  1  0  0  0  0
 14 36  1  0  0  0  0
 14 37  1  0  0  0  0
 14 38  1  0  0  0  0
 15 18  1  0  0  0  0
 15 39  1  0  0  0  0
 16 19  2  0  0  0  0
 16 40  1  0  0  0  0
 17 21  1  0  0  0  0
 18 20  2  0  0  0  0
 19 20  1  0  0  0  0
 19 41  1  0  0  0  0
 21 22  2  0  0  0  0
 21 23  1  0  0  0  0
 22 24  1  0  0  0  0
 22 42  1  0  0  0  0
 23 25  2  0  0  0  0
 23 43  1  0  0  0  0
 24 26  2  0  0  0  0
 24 44  1  0  0  0  0
 25 26  1  0  0  0  0
 25 45  1  0  0  0  0
 27 46  1  0  0  0  0
 27 47  1  0  0  0  0
 27 48  1  0  0  0  0
M  END
> <PUBCHEM_COMPOUND_CID>
17396021

> <PUBCHEM_COMPOUND_CANONICALIZED>
1

> <PUBCHEM_CACTVS_COMPLEXITY>
451

> <PUBCHEM_CACTVS_HBOND_ACCEPTOR>
7

> <PUBCHEM_CACTVS_HBOND_DONOR>
0

> <PUBCHEM_CACTVS_ROTATABLE_BOND>
7

> <PUBCHEM_CACTVS_SUBSKEYS>
AAADceB7MYAAAAAAAAAAAAAAAAAAAWAAAAAwYAAAAAAAAAAB0AAAHwAIAAAADCzBmg4yBoMABECqAiFyEACSCAAsIAAaiCG+DNgOZrKEtTufMShkyBGYqYeY2CKOIAAAAAAAAABAAAAAAAAAAAAAAAAAAA==

> <PUBCHEM_IUPAC_OPENEYE_NAME>
N-ethyl-N-[(3-fluoro-4-methoxy-phenyl)methyl]-1-[5-(4-fluorophenyl)-1,3,4-oxadiazol-2-yl]ethanamine

> <PUBCHEM_IUPAC_CAS_NAME>
N-ethyl-N-[(3-fluoro-4-methoxyphenyl)methyl]-1-[5-(4-fluorophenyl)-1,3,4-oxadiazol-2-yl]ethanamine

> <PUBCHEM_IUPAC_NAME>
N-ethyl-N-[(3-fluoro-4-methoxyphenyl)methyl]-1-[5-(4-fluorophenyl)-1,3,4-oxadiazol-2-yl]ethanamine

> <PUBCHEM_IUPAC_SYSTEMATIC_NAME>
N-ethyl-N-[(3-fluoranyl-4-methoxy-phenyl)methyl]-1-[5-(4-fluorophenyl)-1,3,4-oxadiazol-2-yl]ethanamine

> <PUBCHEM_IUPAC_TRADITIONAL_NAME>
ethyl-(3-fluoro-4-methoxy-benzyl)-[1-[5-(4-fluorophenyl)-1,3,4-oxadiazol-2-yl]ethyl]amine

> <PUBCHEM_IUPAC_INCHI>
InChI=1S/C20H21F2N3O2/c1-4-25(12-14-5-10-18(26-3)17(22)11-14)13(2)19-23-24-20(27-19)15-6-8-16(21)9-7-15/h5-11,13H,4,12H2,1-3H3

> <PUBCHEM_IUPAC_INCHIKEY>
FRCPCHFLVBFJKV-UHFFFAOYSA-N

> <PUBCHEM_XLOGP3_AA>
3.7

> <PUBCHEM_EXACT_MASS>
373.160183

> <PUBCHEM_MOLECULAR_FORMULA>
C20H21F2N3O2

> <PUBCHEM_MOLECULAR_WEIGHT>
373.396446

> <PUBCHEM_OPENEYE_CAN_SMILES>
CCN(CC1=CC(=C(C=C1)OC)F)C(C)C2=NN=C(O2)C3=CC=C(C=C3)F

> <PUBCHEM_OPENEYE_ISO_SMILES>
CCN(CC1=CC(=C(C=C1)OC)F)C(C)C2=NN=C(O2)C3=CC=C(C=C3)F

> <PUBCHEM_CACTVS_TPSA>
51.4

> <PUBCHEM_MONOISOTOPIC_WEIGHT>
373.160183

> <PUBCHEM_TOTAL_CHARGE>
0

> <PUBCHEM_HEAVY_ATOM_COUNT>
27

> <PUBCHEM_ATOM_DEF_STEREO_COUNT>
0

> <PUBCHEM_ATOM_UDEF_STEREO_COUNT>
1

> <PUBCHEM_BOND_DEF_STEREO_COUNT>
0

> <PUBCHEM_BOND_UDEF_STEREO_COUNT>
0

> <PUBCHEM_ISOTOPIC_ATOM_COUNT>
0

> <PUBCHEM_COMPONENT_COUNT>
1

> <PUBCHEM_CACTVS_TAUTO_COUNT>
1

> <PUBCHEM_COORDINATE_TYPE>
1
5
255

> <PUBCHEM_BONDANNOTATIONS>
13  15  8
13  16  8
15  18  8
16  19  8
18  20  8
19  20  8
21  22  8
21  23  8
22  24  8
23  25  8
24  26  8
25  26  8
3  12  8
3  17  8
6  12  8
6  7  8
7  17  8
8  11  3

$$$$

