17395401
  -OEChem-06241222502D

 48 50  0     0  0  0  0  0  0999 V2000
    7.5270   -1.1584    0.0000 S   0  0  0  0  0  0  0  0  0  0  0  0
    5.1906    0.4243    0.0000 O   0  0  0  0  0  0  0  0  0  0  0  0
   12.0473   -2.2853    0.0000 O   0  0  0  0  0  0  0  0  0  0  0  0
    5.1906    2.1564    0.0000 N   0  0  0  0  0  0  0  0  0  0  0  0
    8.1852    0.3198    0.0000 N   0  0  0  0  0  0  0  0  0  0  0  0
    4.1906    2.1564    0.0000 C   0  0  0  0  0  0  0  0  0  0  0  0
    3.7568    1.2554    0.0000 C   0  0  0  0  0  0  0  0  0  0  0  0
    3.7568    3.0573    0.0000 C   0  0  0  0  0  0  0  0  0  0  0  0
    2.7818    1.0329    0.0000 C   0  0  0  0  0  0  0  0  0  0  0  0
    2.7818    3.2798    0.0000 C   0  0  0  0  0  0  0  0  0  0  0  0
    2.0000    1.6564    0.0000 C   0  0  0  0  0  0  0  0  0  0  0  0
    2.0000    2.6564    0.0000 C   0  0  0  0  0  0  0  0  0  0  0  0
    5.6906    1.2903    0.0000 C   0  0  0  0  0  0  0  0  0  0  0  0
    6.6906    1.2903    0.0000 C   0  0  0  0  0  0  0  0  0  0  0  0
    7.1906    0.4243    0.0000 C   0  0  0  0  0  0  0  0  0  0  0  0
    6.7839   -0.4892    0.0000 C   0  0  0  0  0  0  0  0  0  0  0  0
    8.3931   -0.6584    0.0000 C   0  0  0  0  0  0  0  0  0  0  0  0
    9.3066   -1.0651    0.0000 C   0  0  0  0  0  0  0  0  0  0  0  0
    9.4111   -2.0596    0.0000 C   0  0  0  0  0  0  0  0  0  0  0  0
   10.1156   -0.4773    0.0000 C   0  0  0  0  0  0  0  0  0  0  0  0
   10.3247   -2.4664    0.0000 C   0  0  0  0  0  0  0  0  0  0  0  0
   11.0292   -0.8841    0.0000 C   0  0  0  0  0  0  0  0  0  0  0  0
   11.1337   -1.8786    0.0000 C   0  0  0  0  0  0  0  0  0  0  0  0
   12.1518   -3.2798    0.0000 C   0  0  0  0  0  0  0  0  0  0  0  0
    4.5205    2.6813    0.0000 H   0  0  0  0  0  0  0  0  0  0  0  0
    4.3612    3.1953    0.0000 H   0  0  0  0  0  0  0  0  0  0  0  0
    3.7568    3.6773    0.0000 H   0  0  0  0  0  0  0  0  0  0  0  0
    3.7568    0.6354    0.0000 H   0  0  0  0  0  0  0  0  0  0  0  0
    4.3612    1.1174    0.0000 H   0  0  0  0  0  0  0  0  0  0  0  0
    3.0508    3.8384    0.0000 H   0  0  0  0  0  0  0  0  0  0  0  0
    2.2971    3.6664    0.0000 H   0  0  0  0  0  0  0  0  0  0  0  0
    2.2971    0.6463    0.0000 H   0  0  0  0  0  0  0  0  0  0  0  0
    3.0508    0.4743    0.0000 H   0  0  0  0  0  0  0  0  0  0  0  0
    1.7310    3.2150    0.0000 H   0  0  0  0  0  0  0  0  0  0  0  0
    1.3955    2.5184    0.0000 H   0  0  0  0  0  0  0  0  0  0  0  0
    1.3955    1.7943    0.0000 H   0  0  0  0  0  0  0  0  0  0  0  0
    1.7310    1.0978    0.0000 H   0  0  0  0  0  0  0  0  0  0  0  0
    5.5006    2.6933    0.0000 H   0  0  0  0  0  0  0  0  0  0  0  0
    7.2732    1.5024    0.0000 H   0  0  0  0  0  0  0  0  0  0  0  0
    6.5830    1.9009    0.0000 H   0  0  0  0  0  0  0  0  0  0  0  0
    6.1774   -0.6181    0.0000 H   0  0  0  0  0  0  0  0  0  0  0  0
    8.9096   -2.4241    0.0000 H   0  0  0  0  0  0  0  0  0  0  0  0
   10.0508    0.1393    0.0000 H   0  0  0  0  0  0  0  0  0  0  0  0
   10.3895   -3.0830    0.0000 H   0  0  0  0  0  0  0  0  0  0  0  0
   11.5308   -0.5196    0.0000 H   0  0  0  0  0  0  0  0  0  0  0  0
   11.5352   -3.3446    0.0000 H   0  0  0  0  0  0  0  0  0  0  0  0
   12.2166   -3.8964    0.0000 H   0  0  0  0  0  0  0  0  0  0  0  0
   12.7684   -3.2150    0.0000 H   0  0  0  0  0  0  0  0  0  0  0  0
  1 16  1  0  0  0  0
  1 17  1  0  0  0  0
  2 13  2  0  0  0  0
  3 23  1  0  0  0  0
  3 24  1  0  0  0  0
  4  6  1  0  0  0  0
  4 13  1  0  0  0  0
  4 38  1  0  0  0  0
  5 15  1  0  0  0  0
  5 17  2  0  0  0  0
  6  7  1  0  0  0  0
  6  8  1  0  0  0  0
  6 25  1  0  0  0  0
  7  9  1  0  0  0  0
  7 28  1  0  0  0  0
  7 29  1  0  0  0  0
  8 10  1  0  0  0  0
  8 26  1  0  0  0  0
  8 27  1  0  0  0  0
  9 11  1  0  0  0  0
  9 32  1  0  0  0  0
  9 33  1  0  0  0  0
 10 12  1  0  0  0  0
 10 30  1  0  0  0  0
 10 31  1  0  0  0  0
 11 12  1  0  0  0  0
 11 36  1  0  0  0  0
 11 37  1  0  0  0  0
 12 34  1  0  0  0  0
 12 35  1  0  0  0  0
 13 14  1  0  0  0  0
 14 15  1  0  0  0  0
 14 39  1  0  0  0  0
 14 40  1  0  0  0  0
 15 16  2  0  0  0  0
 16 41  1  0  0  0  0
 17 18  1  0  0  0  0
 18 19  2  0  0  0  0
 18 20  1  0  0  0  0
 19 21  1  0  0  0  0
 19 42  1  0  0  0  0
 20 22  2  0  0  0  0
 20 43  1  0  0  0  0
 21 23  2  0  0  0  0
 21 44  1  0  0  0  0
 22 23  1  0  0  0  0
 22 45  1  0  0  0  0
 24 46  1  0  0  0  0
 24 47  1  0  0  0  0
 24 48  1  0  0  0  0
M  END
> <PUBCHEM_COMPOUND_CID>
17395401

> <PUBCHEM_COMPOUND_CANONICALIZED>
1

> <PUBCHEM_CACTVS_COMPLEXITY>
391

> <PUBCHEM_CACTVS_HBOND_ACCEPTOR>
4

> <PUBCHEM_CACTVS_HBOND_DONOR>
1

> <PUBCHEM_CACTVS_ROTATABLE_BOND>
5

> <PUBCHEM_CACTVS_SUBSKEYS>
AAADceB7MABAAAAAAAAAAAAAAAAAAWAAAAAwAAAABgAAAAABwAAAHgQQAAAADCzF3gayh5LIFAisAyVyVACC+KBhKjgIiLU+LJgMJrqk9RuEMChk1hGoqAeQ0AIOIAAAAAAAAABAAAAAAAAAAAAAAAAAAA==

> <PUBCHEM_IUPAC_OPENEYE_NAME>
N-cycloheptyl-2-[2-(4-methoxyphenyl)thiazol-4-yl]acetamide

> <PUBCHEM_IUPAC_CAS_NAME>
N-cycloheptyl-2-[2-(4-methoxyphenyl)-4-thiazolyl]acetamide

> <PUBCHEM_IUPAC_NAME>
N-cycloheptyl-2-[2-(4-methoxyphenyl)-1,3-thiazol-4-yl]acetamide

> <PUBCHEM_IUPAC_SYSTEMATIC_NAME>
N-cycloheptyl-2-[2-(4-methoxyphenyl)-1,3-thiazol-4-yl]ethanamide

> <PUBCHEM_IUPAC_TRADITIONAL_NAME>
N-cycloheptyl-2-[2-(4-methoxyphenyl)thiazol-4-yl]acetamide

> <PUBCHEM_IUPAC_INCHI>
InChI=1S/C19H24N2O2S/c1-23-17-10-8-14(9-11-17)19-21-16(13-24-19)12-18(22)20-15-6-4-2-3-5-7-15/h8-11,13,15H,2-7,12H2,1H3,(H,20,22)

> <PUBCHEM_IUPAC_INCHIKEY>
UDBXQTYYNNQJGY-UHFFFAOYSA-N

> <PUBCHEM_XLOGP3_AA>
4.2

> <PUBCHEM_EXACT_MASS>
344.155849

> <PUBCHEM_MOLECULAR_FORMULA>
C19H24N2O2S

> <PUBCHEM_MOLECULAR_WEIGHT>
344.47106

> <PUBCHEM_OPENEYE_CAN_SMILES>
COC1=CC=C(C=C1)C2=NC(=CS2)CC(=O)NC3CCCCCC3

> <PUBCHEM_OPENEYE_ISO_SMILES>
COC1=CC=C(C=C1)C2=NC(=CS2)CC(=O)NC3CCCCCC3

> <PUBCHEM_CACTVS_TPSA>
79.5

> <PUBCHEM_MONOISOTOPIC_WEIGHT>
344.155849

> <PUBCHEM_TOTAL_CHARGE>
0

> <PUBCHEM_HEAVY_ATOM_COUNT>
24

> <PUBCHEM_ATOM_DEF_STEREO_COUNT>
0

> <PUBCHEM_ATOM_UDEF_STEREO_COUNT>
0

> <PUBCHEM_BOND_DEF_STEREO_COUNT>
0

> <PUBCHEM_BOND_UDEF_STEREO_COUNT>
0

> <PUBCHEM_ISOTOPIC_ATOM_COUNT>
0

> <PUBCHEM_COMPONENT_COUNT>
1

> <PUBCHEM_CACTVS_TAUTO_COUNT>
2

> <PUBCHEM_COORDINATE_TYPE>
1
5
255

> <PUBCHEM_BONDANNOTATIONS>
1  16  8
1  17  8
15  16  8
18  19  8
18  20  8
19  21  8
20  22  8
21  23  8
22  23  8
5  15  8
5  17  8

$$$$

