12236
  -OEChem-06261206422D

 41 40  0     1  0  0  0  0  0999 V2000
    4.5981   -0.2990    0.0000 P   0  0  3  0  0  0  0  0  0  0  0  0
    6.3301   -0.2990    0.0000 P   0  0  0  0  0  0  0  0  0  0  0  0
    5.4641    0.2010    0.0000 O   0  0  0  0  0  0  0  0  0  0  0  0
    4.0981    0.5670    0.0000 O   0  0  0  0  0  0  0  0  0  0  0  0
    5.0981   -1.1651    0.0000 O   0  0  0  0  0  0  0  0  0  0  0  0
    7.1962   -0.7990    0.0000 O   0  0  0  0  0  0  0  0  0  0  0  0
    6.8301    0.5670    0.0000 O   0  0  0  0  0  0  0  0  0  0  0  0
    5.8301   -1.1651    0.0000 O   0  0  0  0  0  0  0  0  0  0  0  0
    3.7320   -0.7990    0.0000 N   0  0  0  0  0  0  0  0  0  0  0  0
    2.8660   -0.2990    0.0000 C   0  0  0  0  0  0  0  0  0  0  0  0
    3.7320   -1.7990    0.0000 C   0  0  0  0  0  0  0  0  0  0  0  0
    2.0000   -0.7990    0.0000 C   0  0  0  0  0  0  0  0  0  0  0  0
    2.8660   -2.2990    0.0000 C   0  0  0  0  0  0  0  0  0  0  0  0
    4.5981    1.4330    0.0000 C   0  0  0  0  0  0  0  0  0  0  0  0
    8.0622   -0.2990    0.0000 C   0  0  0  0  0  0  0  0  0  0  0  0
    6.3301    1.4330    0.0000 C   0  0  0  0  0  0  0  0  0  0  0  0
    8.9282   -0.7990    0.0000 C   0  0  0  0  0  0  0  0  0  0  0  0
    6.8301    2.2990    0.0000 C   0  0  0  0  0  0  0  0  0  0  0  0
    3.9441   -2.3816    0.0000 H   0  0  0  0  0  0  0  0  0  0  0  0
    4.3426   -1.6914    0.0000 H   0  0  0  0  0  0  0  0  0  0  0  0
    3.2646    0.1759    0.0000 H   0  0  0  0  0  0  0  0  0  0  0  0
    2.4675    0.1759    0.0000 H   0  0  0  0  0  0  0  0  0  0  0  0
    1.6900   -0.2621    0.0000 H   0  0  0  0  0  0  0  0  0  0  0  0
    1.4631   -1.1090    0.0000 H   0  0  0  0  0  0  0  0  0  0  0  0
    2.3100   -1.3360    0.0000 H   0  0  0  0  0  0  0  0  0  0  0  0
    2.5560   -1.7621    0.0000 H   0  0  0  0  0  0  0  0  0  0  0  0
    2.3291   -2.6090    0.0000 H   0  0  0  0  0  0  0  0  0  0  0  0
    3.1760   -2.8360    0.0000 H   0  0  0  0  0  0  0  0  0  0  0  0
    5.1350    1.1230    0.0000 H   0  0  0  0  0  0  0  0  0  0  0  0
    4.9081    1.9700    0.0000 H   0  0  0  0  0  0  0  0  0  0  0  0
    4.0611    1.7430    0.0000 H   0  0  0  0  0  0  0  0  0  0  0  0
    5.8552    1.8315    0.0000 H   0  0  0  0  0  0  0  0  0  0  0  0
    5.8552    1.0345    0.0000 H   0  0  0  0  0  0  0  0  0  0  0  0
    8.4607    0.1759    0.0000 H   0  0  0  0  0  0  0  0  0  0  0  0
    7.6636    0.1759    0.0000 H   0  0  0  0  0  0  0  0  0  0  0  0
    8.6182   -1.3360    0.0000 H   0  0  0  0  0  0  0  0  0  0  0  0
    9.4651   -1.1090    0.0000 H   0  0  0  0  0  0  0  0  0  0  0  0
    9.2382   -0.2621    0.0000 H   0  0  0  0  0  0  0  0  0  0  0  0
    7.3671    1.9890    0.0000 H   0  0  0  0  0  0  0  0  0  0  0  0
    7.1401    2.8360    0.0000 H   0  0  0  0  0  0  0  0  0  0  0  0
    6.2932    2.6090    0.0000 H   0  0  0  0  0  0  0  0  0  0  0  0
  1  3  1  0  0  0  0
  1  4  1  0  0  0  0
  1  5  2  0  0  0  0
  1  9  1  0  0  0  0
  2  3  1  0  0  0  0
  2  6  1  0  0  0  0
  2  7  1  0  0  0  0
  2  8  2  0  0  0  0
  4 14  1  0  0  0  0
  6 15  1  0  0  0  0
  7 16  1  0  0  0  0
  9 10  1  0  0  0  0
  9 11  1  0  0  0  0
 10 12  1  0  0  0  0
 10 21  1  0  0  0  0
 10 22  1  0  0  0  0
 11 13  1  0  0  0  0
 11 19  1  0  0  0  0
 11 20  1  0  0  0  0
 12 23  1  0  0  0  0
 12 24  1  0  0  0  0
 12 25  1  0  0  0  0
 13 26  1  0  0  0  0
 13 27  1  0  0  0  0
 13 28  1  0  0  0  0
 14 29  1  0  0  0  0
 14 30  1  0  0  0  0
 14 31  1  0  0  0  0
 15 17  1  0  0  0  0
 15 34  1  0  0  0  0
 15 35  1  0  0  0  0
 16 18  1  0  0  0  0
 16 32  1  0  0  0  0
 16 33  1  0  0  0  0
 17 36  1  0  0  0  0
 17 37  1  0  0  0  0
 17 38  1  0  0  0  0
 18 39  1  0  0  0  0
 18 40  1  0  0  0  0
 18 41  1  0  0  0  0
M  END
> <PUBCHEM_COMPOUND_CID>
12236

> <PUBCHEM_COMPOUND_CANONICALIZED>
1

> <PUBCHEM_CACTVS_COMPLEXITY>
310

> <PUBCHEM_CACTVS_HBOND_ACCEPTOR>
7

> <PUBCHEM_CACTVS_HBOND_DONOR>
0

> <PUBCHEM_CACTVS_ROTATABLE_BOND>
10

> <PUBCHEM_CACTVS_SUBSKEYS>
AAADceByOAMAAAAAAAAAAAAAAAAAAAAAAAAAAAAAAAAAAAAAAAAAHgAAgCAAAADhgAYCAAIAARAAQAAAAIAAAAAAAAAAAAAIAAAAAAAAAAAAAAAAAACAAAAAAAAAAAAAAAAAAAAAAAAAAAAAAAAAAAAAAA==

> <PUBCHEM_IUPAC_OPENEYE_NAME>
[diethylamino(methoxy)phosphoryl] diethyl phosphate

> <PUBCHEM_IUPAC_CAS_NAME>
phosphoric acid [diethylamino(methoxy)phosphoryl] diethyl ester

> <PUBCHEM_IUPAC_NAME>
[diethylamino(methoxy)phosphoryl] diethyl phosphate

> <PUBCHEM_IUPAC_SYSTEMATIC_NAME>
[diethylamino(methoxy)phosphoryl] diethyl phosphate

> <PUBCHEM_IUPAC_TRADITIONAL_NAME>
phosphoric acid [diethylamino(methoxy)phosphoryl] diethyl ester

> <PUBCHEM_IUPAC_INCHI>
InChI=1S/C9H23NO6P2/c1-6-10(7-2)17(11,13-5)16-18(12,14-8-3)15-9-4/h6-9H2,1-5H3

> <PUBCHEM_IUPAC_INCHIKEY>
BPVMXDTYQFIEOB-UHFFFAOYSA-N

> <PUBCHEM_XLOGP3_AA>
0.6

> <PUBCHEM_EXACT_MASS>
303.100061

> <PUBCHEM_MOLECULAR_FORMULA>
C9H23NO6P2

> <PUBCHEM_MOLECULAR_WEIGHT>
303.229544

> <PUBCHEM_OPENEYE_CAN_SMILES>
CCN(CC)P(=O)(OC)OP(=O)(OCC)OCC

> <PUBCHEM_OPENEYE_ISO_SMILES>
CCN(CC)P(=O)(OC)OP(=O)(OCC)OCC

> <PUBCHEM_CACTVS_TPSA>
74.3

> <PUBCHEM_MONOISOTOPIC_WEIGHT>
303.100061

> <PUBCHEM_TOTAL_CHARGE>
0

> <PUBCHEM_HEAVY_ATOM_COUNT>
18

> <PUBCHEM_ATOM_DEF_STEREO_COUNT>
0

> <PUBCHEM_ATOM_UDEF_STEREO_COUNT>
1

> <PUBCHEM_BOND_DEF_STEREO_COUNT>
0

> <PUBCHEM_BOND_UDEF_STEREO_COUNT>
0

> <PUBCHEM_ISOTOPIC_ATOM_COUNT>
0

> <PUBCHEM_COMPONENT_COUNT>
1

> <PUBCHEM_CACTVS_TAUTO_COUNT>
1

> <PUBCHEM_COORDINATE_TYPE>
1
5
255

> <PUBCHEM_BONDANNOTATIONS>
1  3  3

$$$$

