4825
  -OEChem-06261200212D

 28 30  0     0  0  0  0  0  0999 V2000
    2.5836   -1.3394    0.0000 O   0  0  0  0  0  0  0  0  0  0  0  0
    4.3798    1.5069    0.0000 O   0  0  0  0  0  0  0  0  0  0  0  0
    6.1279   -1.5346    0.0000 O   0  0  0  0  0  0  0  0  0  0  0  0
    4.3958   -2.5346    0.0000 O   0  0  0  0  0  0  0  0  0  0  0  0
    5.2740    3.0346    0.0000 O   0  0  0  0  0  0  0  0  0  0  0  0
    3.5298   -0.0346    0.0000 C   0  0  0  0  0  0  0  0  0  0  0  0
    4.3958    0.4654    0.0000 C   0  0  0  0  0  0  0  0  0  0  0  0
    5.2619   -0.0346    0.0000 C   0  0  0  0  0  0  0  0  0  0  0  0
    3.5298   -1.0346    0.0000 C   0  0  0  0  0  0  0  0  0  0  0  0
    5.2619   -1.0346    0.0000 C   0  0  0  0  0  0  0  0  0  0  0  0
    4.3958   -1.5346    0.0000 C   0  0  0  0  0  0  0  0  0  0  0  0
    2.5836    0.2701    0.0000 C   0  0  0  0  0  0  0  0  0  0  0  0
    6.1719    0.4722    0.0000 C   0  0  0  0  0  0  0  0  0  0  0  0
    2.0000   -0.5346    0.0000 C   0  0  0  0  0  0  0  0  0  0  0  0
    6.1799    1.5138    0.0000 C   0  0  0  0  0  0  0  0  0  0  0  0
    5.2778    2.0346    0.0000 C   0  0  0  0  0  0  0  0  0  0  0  0
    6.1279   -2.5346    0.0000 C   0  0  0  0  0  0  0  0  0  0  0  0
    3.5298   -3.0346    0.0000 C   0  0  0  0  0  0  0  0  0  0  0  0
    2.3910    0.8594    0.0000 H   0  0  0  0  0  0  0  0  0  0  0  0
    6.7052    0.1560    0.0000 H   0  0  0  0  0  0  0  0  0  0  0  0
    1.3800   -0.5346    0.0000 H   0  0  0  0  0  0  0  0  0  0  0  0
    6.7180    1.8218    0.0000 H   0  0  0  0  0  0  0  0  0  0  0  0
    5.5079   -2.5346    0.0000 H   0  0  0  0  0  0  0  0  0  0  0  0
    6.1279   -3.1546    0.0000 H   0  0  0  0  0  0  0  0  0  0  0  0
    6.7479   -2.5346    0.0000 H   0  0  0  0  0  0  0  0  0  0  0  0
    3.2198   -2.4977    0.0000 H   0  0  0  0  0  0  0  0  0  0  0  0
    2.9929   -3.3446    0.0000 H   0  0  0  0  0  0  0  0  0  0  0  0
    3.8398   -3.5716    0.0000 H   0  0  0  0  0  0  0  0  0  0  0  0
  1  9  1  0  0  0  0
  1 14  1  0  0  0  0
  2  7  1  0  0  0  0
  2 16  1  0  0  0  0
  3 10  1  0  0  0  0
  3 17  1  0  0  0  0
  4 11  1  0  0  0  0
  4 18  1  0  0  0  0
  5 16  2  0  0  0  0
  6  7  1  0  0  0  0
  6  9  2  0  0  0  0
  6 12  1  0  0  0  0
  7  8  2  0  0  0  0
  8 10  1  0  0  0  0
  8 13  1  0  0  0  0
  9 11  1  0  0  0  0
 10 11  2  0  0  0  0
 12 14  2  0  0  0  0
 12 19  1  0  0  0  0
 13 15  2  0  0  0  0
 13 20  1  0  0  0  0
 14 21  1  0  0  0  0
 15 16  1  0  0  0  0
 15 22  1  0  0  0  0
 17 23  1  0  0  0  0
 17 24  1  0  0  0  0
 17 25  1  0  0  0  0
 18 26  1  0  0  0  0
 18 27  1  0  0  0  0
 18 28  1  0  0  0  0
M  END
> <PUBCHEM_COMPOUND_CID>
4825

> <PUBCHEM_COMPOUND_CANONICALIZED>
1

> <PUBCHEM_CACTVS_COMPLEXITY>
366

> <PUBCHEM_CACTVS_HBOND_ACCEPTOR>
5

> <PUBCHEM_CACTVS_HBOND_DONOR>
0

> <PUBCHEM_CACTVS_ROTATABLE_BOND>
2

> <PUBCHEM_CACTVS_SUBSKEYS>
AAADccBwOAAAAAAAAAAAAAAAAAAAASAAAAAwQAAAAAAAAEiB8AAAGgAAAAAADASgmAIyDsAABECIAqjSiAICCAAkIAAIiAFGiMgNJzaENB6CO2Kl4BUKqYfK7PzOIQADCAAIQABCAAYQABCAAAAAAAAAAA==

> <PUBCHEM_IUPAC_OPENEYE_NAME>
5,6-dimethoxyfuro[2,3-h]chromen-2-one

> <PUBCHEM_IUPAC_CAS_NAME>
5,6-dimethoxy-2-furo[2,3-h][1]benzopyranone

> <PUBCHEM_IUPAC_NAME>
5,6-dimethoxyfuro[2,3-h]chromen-2-one

> <PUBCHEM_IUPAC_SYSTEMATIC_NAME>
5,6-dimethoxyfuro[2,3-h]chromen-2-one

> <PUBCHEM_IUPAC_TRADITIONAL_NAME>
5,6-dimethoxyfuro[2,3-h]chromen-2-one

> <PUBCHEM_IUPAC_INCHI>
InChI=1S/C13H10O5/c1-15-11-7-3-4-9(14)18-10(7)8-5-6-17-12(8)13(11)16-2/h3-6H,1-2H3

> <PUBCHEM_IUPAC_INCHIKEY>
BQPRWZCEKZLBHL-UHFFFAOYSA-N

> <PUBCHEM_XLOGP3_AA>
2.3

> <PUBCHEM_EXACT_MASS>
246.052823

> <PUBCHEM_MOLECULAR_FORMULA>
C13H10O5

> <PUBCHEM_MOLECULAR_WEIGHT>
246.2155

> <PUBCHEM_OPENEYE_CAN_SMILES>
COC1=C(C2=C(C=CO2)C3=C1C=CC(=O)O3)OC

> <PUBCHEM_OPENEYE_ISO_SMILES>
COC1=C(C2=C(C=CO2)C3=C1C=CC(=O)O3)OC

> <PUBCHEM_CACTVS_TPSA>
57.9

> <PUBCHEM_MONOISOTOPIC_WEIGHT>
246.052823

> <PUBCHEM_TOTAL_CHARGE>
0

> <PUBCHEM_HEAVY_ATOM_COUNT>
18

> <PUBCHEM_ATOM_DEF_STEREO_COUNT>
0

> <PUBCHEM_ATOM_UDEF_STEREO_COUNT>
0

> <PUBCHEM_BOND_DEF_STEREO_COUNT>
0

> <PUBCHEM_BOND_UDEF_STEREO_COUNT>
0

> <PUBCHEM_ISOTOPIC_ATOM_COUNT>
0

> <PUBCHEM_COMPONENT_COUNT>
1

> <PUBCHEM_CACTVS_TAUTO_COUNT>
1

> <PUBCHEM_COORDINATE_TYPE>
1
5
255

> <PUBCHEM_BONDANNOTATIONS>
1  14  8
1  9  8
10  11  8
12  14  8
13  15  8
15  16  8
2  16  8
2  7  8
6  12  8
6  7  8
6  9  8
7  8  8
8  10  8
8  13  8
9  11  8

$$$$

