17396092
  -OEChem-06241222542D

 38 40  0     0  0  0  0  0  0999 V2000
    5.6103    1.0994    0.0000 O   0  0  0  0  0  0  0  0  0  0  0  0
    4.6783   -3.3616    0.0000 N   0  0  0  0  0  0  0  0  0  0  0  0
    7.2566    0.5613    0.0000 N   0  0  0  0  0  0  0  0  0  0  0  0
    6.8994    2.2561    0.0000 N   0  0  0  0  0  0  0  0  0  0  0  0
    4.6783   -1.7522    0.0000 C   0  0  0  0  0  0  0  0  0  0  0  0
    4.9889   -0.8016    0.0000 C   0  0  0  0  0  0  0  0  0  0  0  0
    3.7320   -2.0569    0.0000 C   0  0  0  0  0  0  0  0  0  0  0  0
    3.7320   -3.0569    0.0000 C   0  0  0  0  0  0  0  0  0  0  0  0
    5.9674   -0.5954    0.0000 C   0  0  0  0  0  0  0  0  0  0  0  0
    5.2619   -2.5569    0.0000 C   0  0  0  0  0  0  0  0  0  0  0  0
    2.8660   -1.5569    0.0000 C   0  0  0  0  0  0  0  0  0  0  0  0
    2.8660   -3.5569    0.0000 C   0  0  0  0  0  0  0  0  0  0  0  0
    6.2781    0.3551    0.0000 C   0  0  0  0  0  0  0  0  0  0  0  0
    2.0000   -2.0569    0.0000 C   0  0  0  0  0  0  0  0  0  0  0  0
    2.0000   -3.0569    0.0000 C   0  0  0  0  0  0  0  0  0  0  0  0
    7.5673    1.5118    0.0000 C   0  0  0  0  0  0  0  0  0  0  0  0
    8.5458    1.7180    0.0000 C   0  0  0  0  0  0  0  0  0  0  0  0
    7.2101    3.2066    0.0000 C   0  0  0  0  0  0  0  0  0  0  0  0
    8.8564    2.6686    0.0000 C   0  0  0  0  0  0  0  0  0  0  0  0
    8.1886    3.4129    0.0000 C   0  0  0  0  0  0  0  0  0  0  0  0
    6.5422    3.9510    0.0000 C   0  0  0  0  0  0  0  0  0  0  0  0
    4.9684   -0.1820    0.0000 H   0  0  0  0  0  0  0  0  0  0  0  0
    4.3751   -0.7143    0.0000 H   0  0  0  0  0  0  0  0  0  0  0  0
    5.9880   -1.2151    0.0000 H   0  0  0  0  0  0  0  0  0  0  0  0
    6.5812   -0.6828    0.0000 H   0  0  0  0  0  0  0  0  0  0  0  0
    5.8819   -2.5569    0.0000 H   0  0  0  0  0  0  0  0  0  0  0  0
    4.8709   -3.9510    0.0000 H   0  0  0  0  0  0  0  0  0  0  0  0
    2.8660   -0.9369    0.0000 H   0  0  0  0  0  0  0  0  0  0  0  0
    2.8660   -4.1769    0.0000 H   0  0  0  0  0  0  0  0  0  0  0  0
    1.4631   -1.7469    0.0000 H   0  0  0  0  0  0  0  0  0  0  0  0
    1.4631   -3.3669    0.0000 H   0  0  0  0  0  0  0  0  0  0  0  0
    7.6707    0.0998    0.0000 H   0  0  0  0  0  0  0  0  0  0  0  0
    8.9598    1.2566    0.0000 H   0  0  0  0  0  0  0  0  0  0  0  0
    9.4631    2.7964    0.0000 H   0  0  0  0  0  0  0  0  0  0  0  0
    8.3812    4.0022    0.0000 H   0  0  0  0  0  0  0  0  0  0  0  0
    7.0037    4.3650    0.0000 H   0  0  0  0  0  0  0  0  0  0  0  0
    6.1282    4.4124    0.0000 H   0  0  0  0  0  0  0  0  0  0  0  0
    6.0808    3.5369    0.0000 H   0  0  0  0  0  0  0  0  0  0  0  0
  1 13  2  0  0  0  0
  2  8  1  0  0  0  0
  2 10  1  0  0  0  0
  2 27  1  0  0  0  0
  3 13  1  0  0  0  0
  3 16  1  0  0  0  0
  3 32  1  0  0  0  0
  4 16  1  0  0  0  0
  4 18  2  0  0  0  0
  5  6  1  0  0  0  0
  5  7  1  0  0  0  0
  5 10  2  0  0  0  0
  6  9  1  0  0  0  0
  6 22  1  0  0  0  0
  6 23  1  0  0  0  0
  7  8  1  0  0  0  0
  7 11  2  0  0  0  0
  8 12  2  0  0  0  0
  9 13  1  0  0  0  0
  9 24  1  0  0  0  0
  9 25  1  0  0  0  0
 10 26  1  0  0  0  0
 11 14  1  0  0  0  0
 11 28  1  0  0  0  0
 12 15  1  0  0  0  0
 12 29  1  0  0  0  0
 14 15  2  0  0  0  0
 14 30  1  0  0  0  0
 15 31  1  0  0  0  0
 16 17  2  0  0  0  0
 17 19  1  0  0  0  0
 17 33  1  0  0  0  0
 18 20  1  0  0  0  0
 18 21  1  0  0  0  0
 19 20  2  0  0  0  0
 19 34  1  0  0  0  0
 20 35  1  0  0  0  0
 21 36  1  0  0  0  0
 21 37  1  0  0  0  0
 21 38  1  0  0  0  0
M  END
> <PUBCHEM_COMPOUND_CID>
17396092

> <PUBCHEM_COMPOUND_CANONICALIZED>
1

> <PUBCHEM_CACTVS_COMPLEXITY>
360

> <PUBCHEM_CACTVS_HBOND_ACCEPTOR>
2

> <PUBCHEM_CACTVS_HBOND_DONOR>
2

> <PUBCHEM_CACTVS_ROTATABLE_BOND>
4

> <PUBCHEM_CACTVS_SUBSKEYS>
AAADceB7IAAAAAAAAAAAAAAAAAAAAWAAAAA8QAAAAAAAAFgB/AAAHgAQAAAADAjBngQ/8PLJkACoAzd3dACCgCkxAiAJ2aE4ZJiIIPLAmZGEIAholQLIyCcYicCOgAAAAAACAAAAAAAAAAQAAAAAAAAAAA==

> <PUBCHEM_IUPAC_OPENEYE_NAME>
3-(1H-indol-3-yl)-N-(6-methyl-2-pyridyl)propanamide

> <PUBCHEM_IUPAC_CAS_NAME>
3-(1H-indol-3-yl)-N-(6-methyl-2-pyridinyl)propanamide

> <PUBCHEM_IUPAC_NAME>
3-(1H-indol-3-yl)-N-(6-methylpyridin-2-yl)propanamide

> <PUBCHEM_IUPAC_SYSTEMATIC_NAME>
3-(1H-indol-3-yl)-N-(6-methylpyridin-2-yl)propanamide

> <PUBCHEM_IUPAC_TRADITIONAL_NAME>
3-(1H-indol-3-yl)-N-(6-methyl-2-pyridyl)propionamide

> <PUBCHEM_IUPAC_INCHI>
InChI=1S/C17H17N3O/c1-12-5-4-8-16(19-12)20-17(21)10-9-13-11-18-15-7-3-2-6-14(13)15/h2-8,11,18H,9-10H2,1H3,(H,19,20,21)

> <PUBCHEM_IUPAC_INCHIKEY>
VZSQJTKYRLHCTM-UHFFFAOYSA-N

> <PUBCHEM_XLOGP3>
2.7

> <PUBCHEM_EXACT_MASS>
279.137162

> <PUBCHEM_MOLECULAR_FORMULA>
C17H17N3O

> <PUBCHEM_MOLECULAR_WEIGHT>
279.33638

> <PUBCHEM_OPENEYE_CAN_SMILES>
CC1=NC(=CC=C1)NC(=O)CCC2=CNC3=CC=CC=C32

> <PUBCHEM_OPENEYE_ISO_SMILES>
CC1=NC(=CC=C1)NC(=O)CCC2=CNC3=CC=CC=C32

> <PUBCHEM_CACTVS_TPSA>
57.8

> <PUBCHEM_MONOISOTOPIC_WEIGHT>
279.137162

> <PUBCHEM_TOTAL_CHARGE>
0

> <PUBCHEM_HEAVY_ATOM_COUNT>
21

> <PUBCHEM_ATOM_DEF_STEREO_COUNT>
0

> <PUBCHEM_ATOM_UDEF_STEREO_COUNT>
0

> <PUBCHEM_BOND_DEF_STEREO_COUNT>
0

> <PUBCHEM_BOND_UDEF_STEREO_COUNT>
0

> <PUBCHEM_ISOTOPIC_ATOM_COUNT>
0

> <PUBCHEM_COMPONENT_COUNT>
1

> <PUBCHEM_CACTVS_TAUTO_COUNT>
11

> <PUBCHEM_COORDINATE_TYPE>
1
5
255

> <PUBCHEM_BONDANNOTATIONS>
11  14  8
12  15  8
14  15  8
16  17  8
17  19  8
18  20  8
19  20  8
2  10  8
2  8  8
4  16  8
4  18  8
5  10  8
5  7  8
7  11  8
7  8  8
8  12  8

$$$$

