17395649
  -OEChem-06241222512D

 39 41  0     0  0  0  0  0  0999 V2000
    2.0000   -0.9400    0.0000 F   0  0  0  0  0  0  0  0  0  0  0  0
    8.0622    0.5600    0.0000 O   0  0  0  0  0  0  0  0  0  0  0  0
    7.1962    2.0600    0.0000 O   0  0  0  0  0  0  0  0  0  0  0  0
    5.4641   -2.9400    0.0000 N   0  0  0  0  0  0  0  0  0  0  0  0
    6.3301   -1.4400    0.0000 N   0  0  0  0  0  0  0  0  0  0  0  0
    8.0622   -1.4400    0.0000 N   0  0  0  0  0  0  0  0  0  0  0  0
    7.1962   -2.9400    0.0000 N   0  0  0  0  0  0  0  0  0  0  0  0
    8.9282   -2.9400    0.0000 N   0  0  0  0  0  0  0  0  0  0  0  0
    4.5981   -2.4400    0.0000 C   0  0  0  0  0  0  0  0  0  0  0  0
    7.1962    0.0600    0.0000 C   0  0  0  0  0  0  0  0  0  0  0  0
    7.1962   -0.9400    0.0000 C   0  0  0  0  0  0  0  0  0  0  0  0
    6.3301   -2.4400    0.0000 C   0  0  0  0  0  0  0  0  0  0  0  0
    4.5981   -1.4400    0.0000 C   0  0  0  0  0  0  0  0  0  0  0  0
    3.7320   -2.9400    0.0000 C   0  0  0  0  0  0  0  0  0  0  0  0
    8.9282    2.0600    0.0000 C   0  0  0  0  0  0  0  0  0  0  0  0
    3.7320   -0.9400    0.0000 C   0  0  0  0  0  0  0  0  0  0  0  0
    2.8660   -2.4400    0.0000 C   0  0  0  0  0  0  0  0  0  0  0  0
    8.0622    1.5600    0.0000 C   0  0  0  0  0  0  0  0  0  0  0  0
    2.8660   -1.4400    0.0000 C   0  0  0  0  0  0  0  0  0  0  0  0
    8.0622   -2.4400    0.0000 C   0  0  0  0  0  0  0  0  0  0  0  0
    9.7942    1.5600    0.0000 C   0  0  0  0  0  0  0  0  0  0  0  0
    8.9282    3.0600    0.0000 C   0  0  0  0  0  0  0  0  0  0  0  0
   10.6603    2.0600    0.0000 C   0  0  0  0  0  0  0  0  0  0  0  0
    9.7942    3.5600    0.0000 C   0  0  0  0  0  0  0  0  0  0  0  0
   10.6603    3.0600    0.0000 C   0  0  0  0  0  0  0  0  0  0  0  0
    6.9841    0.6426    0.0000 H   0  0  0  0  0  0  0  0  0  0  0  0
    6.5856   -0.0477    0.0000 H   0  0  0  0  0  0  0  0  0  0  0  0
    5.4641   -3.5600    0.0000 H   0  0  0  0  0  0  0  0  0  0  0  0
    5.1350   -1.1300    0.0000 H   0  0  0  0  0  0  0  0  0  0  0  0
    3.7320   -3.5600    0.0000 H   0  0  0  0  0  0  0  0  0  0  0  0
    3.7320   -0.3200    0.0000 H   0  0  0  0  0  0  0  0  0  0  0  0
    2.3291   -2.7500    0.0000 H   0  0  0  0  0  0  0  0  0  0  0  0
    9.7942    0.9400    0.0000 H   0  0  0  0  0  0  0  0  0  0  0  0
    8.3913    3.3700    0.0000 H   0  0  0  0  0  0  0  0  0  0  0  0
   11.1972    1.7500    0.0000 H   0  0  0  0  0  0  0  0  0  0  0  0
    9.7942    4.1800    0.0000 H   0  0  0  0  0  0  0  0  0  0  0  0
   11.1972    3.3700    0.0000 H   0  0  0  0  0  0  0  0  0  0  0  0
    9.4651   -2.6300    0.0000 H   0  0  0  0  0  0  0  0  0  0  0  0
    8.9282   -3.5600    0.0000 H   0  0  0  0  0  0  0  0  0  0  0  0
  1 19  1  0  0  0  0
  2 10  1  0  0  0  0
  2 18  1  0  0  0  0
  3 18  2  0  0  0  0
  4  9  1  0  0  0  0
  4 12  1  0  0  0  0
  4 28  1  0  0  0  0
  5 11  1  0  0  0  0
  5 12  2  0  0  0  0
  6 11  2  0  0  0  0
  6 20  1  0  0  0  0
  7 12  1  0  0  0  0
  7 20  2  0  0  0  0
  8 20  1  0  0  0  0
  8 38  1  0  0  0  0
  8 39  1  0  0  0  0
  9 13  2  0  0  0  0
  9 14  1  0  0  0  0
 10 11  1  0  0  0  0
 10 26  1  0  0  0  0
 10 27  1  0  0  0  0
 13 16  1  0  0  0  0
 13 29  1  0  0  0  0
 14 17  2  0  0  0  0
 14 30  1  0  0  0  0
 15 18  1  0  0  0  0
 15 21  2  0  0  0  0
 15 22  1  0  0  0  0
 16 19  2  0  0  0  0
 16 31  1  0  0  0  0
 17 19  1  0  0  0  0
 17 32  1  0  0  0  0
 21 23  1  0  0  0  0
 21 33  1  0  0  0  0
 22 24  2  0  0  0  0
 22 34  1  0  0  0  0
 23 25  2  0  0  0  0
 23 35  1  0  0  0  0
 24 25  1  0  0  0  0
 24 36  1  0  0  0  0
 25 37  1  0  0  0  0
M  END
> <PUBCHEM_COMPOUND_CID>
17395649

> <PUBCHEM_COMPOUND_CANONICALIZED>
1

> <PUBCHEM_CACTVS_COMPLEXITY>
427

> <PUBCHEM_CACTVS_HBOND_ACCEPTOR>
8

> <PUBCHEM_CACTVS_HBOND_DONOR>
2

> <PUBCHEM_CACTVS_ROTATABLE_BOND>
6

> <PUBCHEM_CACTVS_SUBSKEYS>
AAADccB7sQAAAAAAAAAAAAAAAAAAAAAAAAA8YIAAAAAAAAAB0AAAHwAQAAAADAihmwox2IbIFACoAibybASCgAklAqAJiAEQbMiKLjLAvZmHMQhs0ANY6aeYyCCOAAAAAAAAAAAAAAAAAAAAAAAAAAAAAA==

> <PUBCHEM_IUPAC_OPENEYE_NAME>
[4-amino-6-(4-fluoroanilino)-1,3,5-triazin-2-yl]methyl benzoate

> <PUBCHEM_IUPAC_CAS_NAME>
benzoic acid [4-amino-6-(4-fluoroanilino)-1,3,5-triazin-2-yl]methyl ester

> <PUBCHEM_IUPAC_NAME>
[4-amino-6-(4-fluoroanilino)-1,3,5-triazin-2-yl]methyl benzoate

> <PUBCHEM_IUPAC_SYSTEMATIC_NAME>
[4-azanyl-6-[(4-fluorophenyl)amino]-1,3,5-triazin-2-yl]methyl benzoate

> <PUBCHEM_IUPAC_TRADITIONAL_NAME>
benzoic acid [4-amino-6-(4-fluoroanilino)-s-triazin-2-yl]methyl ester

> <PUBCHEM_IUPAC_INCHI>
InChI=1S/C17H14FN5O2/c18-12-6-8-13(9-7-12)20-17-22-14(21-16(19)23-17)10-25-15(24)11-4-2-1-3-5-11/h1-9H,10H2,(H3,19,20,21,22,23)

> <PUBCHEM_IUPAC_INCHIKEY>
GKEAWQKYUJHFKT-UHFFFAOYSA-N

> <PUBCHEM_XLOGP3_AA>
3

> <PUBCHEM_EXACT_MASS>
339.113153

> <PUBCHEM_MOLECULAR_FORMULA>
C17H14FN5O2

> <PUBCHEM_MOLECULAR_WEIGHT>
339.323763

> <PUBCHEM_OPENEYE_CAN_SMILES>
C1=CC=C(C=C1)C(=O)OCC2=NC(=NC(=N2)NC3=CC=C(C=C3)F)N

> <PUBCHEM_OPENEYE_ISO_SMILES>
C1=CC=C(C=C1)C(=O)OCC2=NC(=NC(=N2)NC3=CC=C(C=C3)F)N

> <PUBCHEM_CACTVS_TPSA>
103

> <PUBCHEM_MONOISOTOPIC_WEIGHT>
339.113153

> <PUBCHEM_TOTAL_CHARGE>
0

> <PUBCHEM_HEAVY_ATOM_COUNT>
25

> <PUBCHEM_ATOM_DEF_STEREO_COUNT>
0

> <PUBCHEM_ATOM_UDEF_STEREO_COUNT>
0

> <PUBCHEM_BOND_DEF_STEREO_COUNT>
0

> <PUBCHEM_BOND_UDEF_STEREO_COUNT>
0

> <PUBCHEM_ISOTOPIC_ATOM_COUNT>
0

> <PUBCHEM_COMPONENT_COUNT>
1

> <PUBCHEM_CACTVS_TAUTO_COUNT>
9

> <PUBCHEM_COORDINATE_TYPE>
1
5
255

> <PUBCHEM_BONDANNOTATIONS>
13  16  8
14  17  8
15  21  8
15  22  8
16  19  8
17  19  8
21  23  8
22  24  8
23  25  8
24  25  8
5  11  8
5  12  8
6  11  8
6  20  8
7  12  8
7  20  8
9  13  8
9  14  8

$$$$

