17395950
  -OEChem-06241222532D

 44 46  0     0  0  0  0  0  0999 V2000
    4.7320   -1.0000    0.0000 O   0  0  0  0  0  0  0  0  0  0  0  0
    8.1962   -1.0000    0.0000 O   0  0  0  0  0  0  0  0  0  0  0  0
    8.1962    4.0000    0.0000 O   0  0  0  0  0  0  0  0  0  0  0  0
    3.8660   -2.5000    0.0000 N   0  0  0  0  0  0  0  0  0  0  0  0
    6.4641   -1.0000    0.0000 N   0  0  0  0  0  0  0  0  0  0  0  0
    9.0622    2.5000    0.0000 N   0  0  0  0  0  0  0  0  0  0  0  0
    3.0000   -2.0000    0.0000 C   0  0  0  0  0  0  0  0  0  0  0  0
    2.5000   -1.1340    0.0000 C   0  0  0  0  0  0  0  0  0  0  0  0
    2.0000   -2.0000    0.0000 C   0  0  0  0  0  0  0  0  0  0  0  0
    4.7320   -2.0000    0.0000 C   0  0  0  0  0  0  0  0  0  0  0  0
    5.5981   -2.5000    0.0000 C   0  0  0  0  0  0  0  0  0  0  0  0
    6.4641   -2.0000    0.0000 C   0  0  0  0  0  0  0  0  0  0  0  0
    5.5981   -3.5000    0.0000 C   0  0  0  0  0  0  0  0  0  0  0  0
    7.3301   -2.5000    0.0000 C   0  0  0  0  0  0  0  0  0  0  0  0
    6.4641   -4.0000    0.0000 C   0  0  0  0  0  0  0  0  0  0  0  0
    7.3301   -3.5000    0.0000 C   0  0  0  0  0  0  0  0  0  0  0  0
    7.3301   -0.5000    0.0000 C   0  0  0  0  0  0  0  0  0  0  0  0
    7.3301    0.5000    0.0000 C   0  0  0  0  0  0  0  0  0  0  0  0
    8.1962    1.0000    0.0000 C   0  0  0  0  0  0  0  0  0  0  0  0
    8.1962    2.0000    0.0000 C   0  0  0  0  0  0  0  0  0  0  0  0
    6.4641    1.0000    0.0000 C   0  0  0  0  0  0  0  0  0  0  0  0
    7.3301    2.5000    0.0000 C   0  0  0  0  0  0  0  0  0  0  0  0
    6.4641    2.0000    0.0000 C   0  0  0  0  0  0  0  0  0  0  0  0
    9.0622    3.5000    0.0000 C   0  0  0  0  0  0  0  0  0  0  0  0
    9.9282    4.0000    0.0000 C   0  0  0  0  0  0  0  0  0  0  0  0
    2.8395   -2.5989    0.0000 H   0  0  0  0  0  0  0  0  0  0  0  0
    2.9750   -0.7354    0.0000 H   0  0  0  0  0  0  0  0  0  0  0  0
    2.0250   -0.7354    0.0000 H   0  0  0  0  0  0  0  0  0  0  0  0
    1.4174   -1.7880    0.0000 H   0  0  0  0  0  0  0  0  0  0  0  0
    1.8923   -2.6106    0.0000 H   0  0  0  0  0  0  0  0  0  0  0  0
    3.8660   -3.1200    0.0000 H   0  0  0  0  0  0  0  0  0  0  0  0
    5.0611   -3.8100    0.0000 H   0  0  0  0  0  0  0  0  0  0  0  0
    7.8671   -2.1900    0.0000 H   0  0  0  0  0  0  0  0  0  0  0  0
    5.9272   -0.6900    0.0000 H   0  0  0  0  0  0  0  0  0  0  0  0
    6.4641   -4.6200    0.0000 H   0  0  0  0  0  0  0  0  0  0  0  0
    7.8671   -3.8100    0.0000 H   0  0  0  0  0  0  0  0  0  0  0  0
    8.7331    0.6900    0.0000 H   0  0  0  0  0  0  0  0  0  0  0  0
    5.9272    0.6900    0.0000 H   0  0  0  0  0  0  0  0  0  0  0  0
    7.3301    3.1200    0.0000 H   0  0  0  0  0  0  0  0  0  0  0  0
    5.9272    2.3100    0.0000 H   0  0  0  0  0  0  0  0  0  0  0  0
    9.5991    2.1900    0.0000 H   0  0  0  0  0  0  0  0  0  0  0  0
   10.2382    3.4631    0.0000 H   0  0  0  0  0  0  0  0  0  0  0  0
   10.4651    4.3100    0.0000 H   0  0  0  0  0  0  0  0  0  0  0  0
    9.6182    4.5369    0.0000 H   0  0  0  0  0  0  0  0  0  0  0  0
  1 10  2  0  0  0  0
  2 17  2  0  0  0  0
  3 24  2  0  0  0  0
  4  7  1  0  0  0  0
  4 10  1  0  0  0  0
  4 31  1  0  0  0  0
  5 12  1  0  0  0  0
  5 17  1  0  0  0  0
  5 34  1  0  0  0  0
  6 20  1  0  0  0  0
  6 24  1  0  0  0  0
  6 41  1  0  0  0  0
  7  8  1  0  0  0  0
  7  9  1  0  0  0  0
  7 26  1  0  0  0  0
  8  9  1  0  0  0  0
  8 27  1  0  0  0  0
  8 28  1  0  0  0  0
  9 29  1  0  0  0  0
  9 30  1  0  0  0  0
 10 11  1  0  0  0  0
 11 12  1  0  0  0  0
 11 13  2  0  0  0  0
 12 14  2  0  0  0  0
 13 15  1  0  0  0  0
 13 32  1  0  0  0  0
 14 16  1  0  0  0  0
 14 33  1  0  0  0  0
 15 16  2  0  0  0  0
 15 35  1  0  0  0  0
 16 36  1  0  0  0  0
 17 18  1  0  0  0  0
 18 19  2  0  0  0  0
 18 21  1  0  0  0  0
 19 20  1  0  0  0  0
 19 37  1  0  0  0  0
 20 22  2  0  0  0  0
 21 23  2  0  0  0  0
 21 38  1  0  0  0  0
 22 23  1  0  0  0  0
 22 39  1  0  0  0  0
 23 40  1  0  0  0  0
 24 25  1  0  0  0  0
 25 42  1  0  0  0  0
 25 43  1  0  0  0  0
 25 44  1  0  0  0  0
M  END
> <PUBCHEM_COMPOUND_CID>
17395950

> <PUBCHEM_COMPOUND_CANONICALIZED>
1

> <PUBCHEM_CACTVS_COMPLEXITY>
518

> <PUBCHEM_CACTVS_HBOND_ACCEPTOR>
3

> <PUBCHEM_CACTVS_HBOND_DONOR>
3

> <PUBCHEM_CACTVS_ROTATABLE_BOND>
5

> <PUBCHEM_CACTVS_SUBSKEYS>
AAADceB7MAAAAAAAAAAAAAAAGAAAAAAAAAAwYAAAAAAAAAABQAAAHgAQAAAADCjBmAQywILAAACIAiVSUACCAAAlAgAIiIEIZMgIIDrA1ZGEIYhglgDIyccciACOAAAAQAACAAAAAACAAAQAAAAAAAAAAA==

> <PUBCHEM_IUPAC_OPENEYE_NAME>
2-[(3-acetamidobenzoyl)amino]-N-cyclopropyl-benzamide

> <PUBCHEM_IUPAC_CAS_NAME>
2-[[(3-acetamidophenyl)-oxomethyl]amino]-N-cyclopropylbenzamide

> <PUBCHEM_IUPAC_NAME>
2-[(3-acetamidobenzoyl)amino]-N-cyclopropylbenzamide

> <PUBCHEM_IUPAC_SYSTEMATIC_NAME>
2-[(3-acetamidophenyl)carbonylamino]-N-cyclopropyl-benzamide

> <PUBCHEM_IUPAC_TRADITIONAL_NAME>
2-[(3-acetamidobenzoyl)amino]-N-cyclopropyl-benzamide

> <PUBCHEM_IUPAC_INCHI>
InChI=1S/C19H19N3O3/c1-12(23)20-15-6-4-5-13(11-15)18(24)22-17-8-3-2-7-16(17)19(25)21-14-9-10-14/h2-8,11,14H,9-10H2,1H3,(H,20,23)(H,21,25)(H,22,24)

> <PUBCHEM_IUPAC_INCHIKEY>
WBDBSWYLWXZNJO-UHFFFAOYSA-N

> <PUBCHEM_XLOGP3_AA>
2.3

> <PUBCHEM_EXACT_MASS>
337.142641

> <PUBCHEM_MOLECULAR_FORMULA>
C19H19N3O3

> <PUBCHEM_MOLECULAR_WEIGHT>
337.37246

> <PUBCHEM_OPENEYE_CAN_SMILES>
CC(=O)NC1=CC=CC(=C1)C(=O)NC2=CC=CC=C2C(=O)NC3CC3

> <PUBCHEM_OPENEYE_ISO_SMILES>
CC(=O)NC1=CC=CC(=C1)C(=O)NC2=CC=CC=C2C(=O)NC3CC3

> <PUBCHEM_CACTVS_TPSA>
87.3

> <PUBCHEM_MONOISOTOPIC_WEIGHT>
337.142641

> <PUBCHEM_TOTAL_CHARGE>
0

> <PUBCHEM_HEAVY_ATOM_COUNT>
25

> <PUBCHEM_ATOM_DEF_STEREO_COUNT>
0

> <PUBCHEM_ATOM_UDEF_STEREO_COUNT>
0

> <PUBCHEM_BOND_DEF_STEREO_COUNT>
0

> <PUBCHEM_BOND_UDEF_STEREO_COUNT>
0

> <PUBCHEM_ISOTOPIC_ATOM_COUNT>
0

> <PUBCHEM_COMPONENT_COUNT>
1

> <PUBCHEM_CACTVS_TAUTO_COUNT>
27

> <PUBCHEM_COORDINATE_TYPE>
1
5
255

> <PUBCHEM_BONDANNOTATIONS>
11  12  8
11  13  8
12  14  8
13  15  8
14  16  8
15  16  8
18  19  8
18  21  8
19  20  8
20  22  8
21  23  8
22  23  8

$$$$

