10574
  -OEChem-06261204422D

 62 66  0     1  0  0  0  0  0999 V2000
    7.9288   -1.6474    0.0000 O   0  0  0  0  0  0  0  0  0  0  0  0
    5.2710   -3.1958    0.0000 O   0  0  0  0  0  0  0  0  0  0  0  0
    2.5357   -2.6997    0.0000 O   0  0  0  0  0  0  0  0  0  0  0  0
    9.1885    3.2259    0.0000 O   0  0  0  0  0  0  0  0  0  0  0  0
   10.9491    3.5016    0.0000 O   0  0  0  0  0  0  0  0  0  0  0  0
    7.9288   -0.6474    0.0000 C   0  0  1  0  0  0  0  0  0  0  0  0
    7.0628   -1.1474    0.0000 C   0  0  1  0  0  0  0  0  0  0  0  0
    6.1968   -0.6474    0.0000 C   0  0  1  0  0  0  0  0  0  0  0  0
    7.9288    0.3526    0.0000 C   0  0  2  0  0  0  0  0  0  0  0  0
    5.2868   -1.1542    0.0000 C   0  0  2  0  0  0  0  0  0  0  0  0
    5.2787   -2.1958    0.0000 C   0  0  1  0  0  0  0  0  0  0  0  0
    6.1968    0.3526    0.0000 C   0  0  0  0  0  0  0  0  0  0  0  0
    7.0628    0.8526    0.0000 C   0  0  0  0  0  0  0  0  0  0  0  0
    8.8750    0.6574    0.0000 C   0  0  2  0  0  0  0  0  0  0  0  0
    7.0789   -2.1889    0.0000 C   0  0  0  0  0  0  0  0  0  0  0  0
    8.8750   -0.9521    0.0000 C   0  0  0  0  0  0  0  0  0  0  0  0
    6.1808   -2.7166    0.0000 C   0  0  0  0  0  0  0  0  0  0  0  0
    9.4586   -0.1474    0.0000 C   0  0  0  0  0  0  0  0  0  0  0  0
    4.3599   -0.5901    0.0000 C   0  0  0  0  0  0  0  0  0  0  0  0
    4.3433   -2.7455    0.0000 C   0  0  0  0  0  0  0  0  0  0  0  0
    7.9288    1.3526    0.0000 C   0  0  0  0  0  0  0  0  0  0  0  0
    5.2945   -0.1542    0.0000 C   0  0  0  0  0  0  0  0  0  0  0  0
    3.4120   -1.1181    0.0000 C   0  0  0  0  0  0  0  0  0  0  0  0
    3.4037   -2.2030    0.0000 C   0  0  2  0  0  0  0  0  0  0  0  0
    9.1857    1.6079    0.0000 C   0  0  0  0  0  0  0  0  0  0  0  0
    8.5993    2.4179    0.0000 C   0  0  0  0  0  0  0  0  0  0  0  0
   10.1373    1.9152    0.0000 C   0  0  0  0  0  0  0  0  0  0  0  0
   10.1390    2.9152    0.0000 C   0  0  0  0  0  0  0  0  0  0  0  0
    7.8022   -1.5667    0.0000 H   0  0  0  0  0  0  0  0  0  0  0  0
    6.9329   -0.2224    0.0000 H   0  0  0  0  0  0  0  0  0  0  0  0
    5.9847    0.9352    0.0000 H   0  0  0  0  0  0  0  0  0  0  0  0
    5.5862    0.2450    0.0000 H   0  0  0  0  0  0  0  0  0  0  0  0
    7.4613    1.3276    0.0000 H   0  0  0  0  0  0  0  0  0  0  0  0
    6.6643    1.3276    0.0000 H   0  0  0  0  0  0  0  0  0  0  0  0
    9.4875    0.7536    0.0000 H   0  0  0  0  0  0  0  0  0  0  0  0
    7.2969   -2.7693    0.0000 H   0  0  0  0  0  0  0  0  0  0  0  0
    7.6880   -2.0734    0.0000 H   0  0  0  0  0  0  0  0  0  0  0  0
    8.6240   -1.5190    0.0000 H   0  0  0  0  0  0  0  0  0  0  0  0
    9.4124   -1.2613    0.0000 H   0  0  0  0  0  0  0  0  0  0  0  0
    5.7835   -3.1926    0.0000 H   0  0  0  0  0  0  0  0  0  0  0  0
    6.5818   -3.1895    0.0000 H   0  0  0  0  0  0  0  0  0  0  0  0
    9.9195   -0.5621    0.0000 H   0  0  0  0  0  0  0  0  0  0  0  0
    9.9195    0.2674    0.0000 H   0  0  0  0  0  0  0  0  0  0  0  0
    4.7681   -0.1235    0.0000 H   0  0  0  0  0  0  0  0  0  0  0  0
    3.9700   -0.1081    0.0000 H   0  0  0  0  0  0  0  0  0  0  0  0
    3.9460   -3.2215    0.0000 H   0  0  0  0  0  0  0  0  0  0  0  0
    4.7443   -3.2184    0.0000 H   0  0  0  0  0  0  0  0  0  0  0  0
    8.5488    1.3526    0.0000 H   0  0  0  0  0  0  0  0  0  0  0  0
    7.9288    1.9726    0.0000 H   0  0  0  0  0  0  0  0  0  0  0  0
    7.3088    1.3526    0.0000 H   0  0  0  0  0  0  0  0  0  0  0  0
    5.9145   -0.1590    0.0000 H   0  0  0  0  0  0  0  0  0  0  0  0
    5.2993    0.4657    0.0000 H   0  0  0  0  0  0  0  0  0  0  0  0
    4.6745   -0.1495    0.0000 H   0  0  0  0  0  0  0  0  0  0  0  0
    3.2075   -0.5328    0.0000 H   0  0  0  0  0  0  0  0  0  0  0  0
    2.8004   -1.2195    0.0000 H   0  0  0  0  0  0  0  0  0  0  0  0
    3.4025   -2.8230    0.0000 H   0  0  0  0  0  0  0  0  0  0  0  0
    8.4658   -1.9574    0.0000 H   0  0  0  0  0  0  0  0  0  0  0  0
    4.7317   -3.5016    0.0000 H   0  0  0  0  0  0  0  0  0  0  0  0
    8.1393    2.8336    0.0000 H   0  0  0  0  0  0  0  0  0  0  0  0
    8.1378    2.0038    0.0000 H   0  0  0  0  0  0  0  0  0  0  0  0
   10.6383    1.5500    0.0000 H   0  0  0  0  0  0  0  0  0  0  0  0
    2.0000   -2.3876    0.0000 H   0  0  0  0  0  0  0  0  0  0  0  0
  6  1  1  1  0  0  0
  1 57  1  0  0  0  0
 11  2  1  1  0  0  0
  2 58  1  0  0  0  0
 24  3  1  1  0  0  0
  3 62  1  0  0  0  0
  4 26  1  0  0  0  0
  4 28  1  0  0  0  0
  5 28  2  0  0  0  0
  6  7  1  0  0  0  0
  6  9  1  0  0  0  0
  6 16  1  0  0  0  0
  7  8  1  0  0  0  0
  7 15  1  0  0  0  0
  7 29  1  1  0  0  0
  8 10  1  0  0  0  0
  8 12  1  0  0  0  0
  8 30  1  6  0  0  0
  9 13  1  0  0  0  0
  9 14  1  0  0  0  0
  9 21  1  1  0  0  0
 10 11  1  0  0  0  0
 10 19  1  0  0  0  0
 10 22  1  1  0  0  0
 11 17  1  0  0  0  0
 11 20  1  0  0  0  0
 12 13  1  0  0  0  0
 12 31  1  0  0  0  0
 12 32  1  0  0  0  0
 13 33  1  0  0  0  0
 13 34  1  0  0  0  0
 14 18  1  0  0  0  0
 14 25  1  1  0  0  0
 14 35  1  0  0  0  0
 15 17  1  0  0  0  0
 15 36  1  0  0  0  0
 15 37  1  0  0  0  0
 16 18  1  0  0  0  0
 16 38  1  0  0  0  0
 16 39  1  0  0  0  0
 17 40  1  0  0  0  0
 17 41  1  0  0  0  0
 18 42  1  0  0  0  0
 18 43  1  0  0  0  0
 19 23  1  0  0  0  0
 19 44  1  0  0  0  0
 19 45  1  0  0  0  0
 20 24  1  0  0  0  0
 20 46  1  0  0  0  0
 20 47  1  0  0  0  0
 21 48  1  0  0  0  0
 21 49  1  0  0  0  0
 21 50  1  0  0  0  0
 22 51  1  0  0  0  0
 22 52  1  0  0  0  0
 22 53  1  0  0  0  0
 23 24  1  0  0  0  0
 23 54  1  0  0  0  0
 23 55  1  0  0  0  0
 24 56  1  0  0  0  0
 25 26  1  0  0  0  0
 25 27  2  0  0  0  0
 26 59  1  0  0  0  0
 26 60  1  0  0  0  0
 27 28  1  0  0  0  0
 27 61  1  0  0  0  0
M  END
> <PUBCHEM_COMPOUND_CID>
10574

> <PUBCHEM_COMPOUND_CANONICALIZED>
1

> <PUBCHEM_CACTVS_COMPLEXITY>
733

> <PUBCHEM_CACTVS_HBOND_ACCEPTOR>
5

> <PUBCHEM_CACTVS_HBOND_DONOR>
3

> <PUBCHEM_CACTVS_ROTATABLE_BOND>
1

> <PUBCHEM_CACTVS_SUBSKEYS>
AAADcfB4OAAAAAAAAAAAAAAAAAAAAYIAAAAwYMAAAAAAAGDAAAAAGgAACAAAD1SggAICCAAABgCIAiDSCAAAAAAgAAAACAAAAEgAFAIAIQACUAAFgAAIIQOA4PwPgAAAAAAAAADAAAYQADAAAYAADAAAAA==

> <PUBCHEM_IUPAC_OPENEYE_NAME>
3-[(3S,5S,8R,9S,10R,13R,14S,17R)-3,5,14-trihydroxy-10,13-dimethyl-2,3,4,6,7,8,9,11,12,15,16,17-dodecahydro-1H-cyclopenta[a]phenanthren-17-yl]-2H-furan-5-one

> <PUBCHEM_IUPAC_CAS_NAME>
3-[(3S,5S,8R,9S,10R,13R,14S,17R)-3,5,14-trihydroxy-10,13-dimethyl-2,3,4,6,7,8,9,11,12,15,16,17-dodecahydro-1H-cyclopenta[a]phenanthren-17-yl]-2H-furan-5-one

> <PUBCHEM_IUPAC_NAME>
3-[(3S,5S,8R,9S,10R,13R,14S,17R)-3,5,14-trihydroxy-10,13-dimethyl-2,3,4,6,7,8,9,11,12,15,16,17-dodecahydro-1H-cyclopenta[a]phenanthren-17-yl]-2H-furan-5-one

> <PUBCHEM_IUPAC_SYSTEMATIC_NAME>
3-[(3S,5S,8R,9S,10R,13R,14S,17R)-10,13-dimethyl-3,5,14-tris(oxidanyl)-2,3,4,6,7,8,9,11,12,15,16,17-dodecahydro-1H-cyclopenta[a]phenanthren-17-yl]-2H-furan-5-one

> <PUBCHEM_IUPAC_TRADITIONAL_NAME>
3-[(3S,5S,8R,9S,10R,13R,14S,17R)-3,5,14-trihydroxy-10,13-dimethyl-2,3,4,6,7,8,9,11,12,15,16,17-dodecahydro-1H-cyclopenta[a]phenanthren-17-yl]-2H-furan-5-one

> <PUBCHEM_IUPAC_INCHI>
InChI=1S/C23H34O5/c1-20-7-3-15(24)12-22(20,26)9-5-18-17(20)4-8-21(2)16(6-10-23(18,21)27)14-11-19(25)28-13-14/h11,15-18,24,26-27H,3-10,12-13H2,1-2H3/t15-,16+,17-,18+,20+,21+,22-,23-/m0/s1

> <PUBCHEM_IUPAC_INCHIKEY>
QJPCKAJTLHDNCS-FBAXFMHRSA-N

> <PUBCHEM_XLOGP3>
1.1

> <PUBCHEM_EXACT_MASS>
390.240624

> <PUBCHEM_MOLECULAR_FORMULA>
C23H34O5

> <PUBCHEM_MOLECULAR_WEIGHT>
390.51306

> <PUBCHEM_OPENEYE_CAN_SMILES>
CC12CCC(CC1(CCC3C2CCC4(C3(CCC4C5=CC(=O)OC5)O)C)O)O

> <PUBCHEM_OPENEYE_ISO_SMILES>
C[C@]12CC[C@@H](C[C@]1(CC[C@@H]3[C@@H]2CC[C@]4([C@@]3(CC[C@@H]4C5=CC(=O)OC5)O)C)O)O

> <PUBCHEM_CACTVS_TPSA>
87

> <PUBCHEM_MONOISOTOPIC_WEIGHT>
390.240624

> <PUBCHEM_TOTAL_CHARGE>
0

> <PUBCHEM_HEAVY_ATOM_COUNT>
28

> <PUBCHEM_ATOM_DEF_STEREO_COUNT>
8

> <PUBCHEM_ATOM_UDEF_STEREO_COUNT>
0

> <PUBCHEM_BOND_DEF_STEREO_COUNT>
0

> <PUBCHEM_BOND_UDEF_STEREO_COUNT>
0

> <PUBCHEM_ISOTOPIC_ATOM_COUNT>
0

> <PUBCHEM_COMPONENT_COUNT>
1

> <PUBCHEM_CACTVS_TAUTO_COUNT>
1

> <PUBCHEM_COORDINATE_TYPE>
1
5
255

> <PUBCHEM_BONDANNOTATIONS>
6  1  5
10  22  5
14  25  5
11  2  5
24  3  5
7  29  5
8  30  6
9  21  5

$$$$

