17396444
  -OEChem-06241222562D

 44 46  0     0  0  0  0  0  0999 V2000
    6.1084    4.1739    0.0000 Cl  0  0  0  0  0  0  0  0  0  0  0  0
    6.3871    2.4139    0.0000 S   0  0  0  0  0  0  0  0  0  0  0  0
    2.8660   -0.6739    0.0000 O   0  0  0  0  0  0  0  0  0  0  0  0
    6.3301    0.3261    0.0000 N   0  0  0  0  0  0  0  0  0  0  0  0
    4.5981   -0.6739    0.0000 N   0  0  0  0  0  0  0  0  0  0  0  0
    5.4641    0.8261    0.0000 C   0  0  0  0  0  0  0  0  0  0  0  0
    6.3301   -0.6739    0.0000 C   0  0  0  0  0  0  0  0  0  0  0  0
    4.5981    0.3261    0.0000 C   0  0  0  0  0  0  0  0  0  0  0  0
    5.4641   -1.1739    0.0000 C   0  0  0  0  0  0  0  0  0  0  0  0
    7.1962    0.8261    0.0000 C   0  0  0  0  0  0  0  0  0  0  0  0
    3.7320   -1.1739    0.0000 C   0  0  0  0  0  0  0  0  0  0  0  0
    7.1962    1.8261    0.0000 C   0  0  0  0  0  0  0  0  0  0  0  0
    3.7320   -2.1739    0.0000 C   0  0  0  0  0  0  0  0  0  0  0  0
    2.8660   -2.6739    0.0000 C   0  0  0  0  0  0  0  0  0  0  0  0
    4.5981   -2.6739    0.0000 C   0  0  0  0  0  0  0  0  0  0  0  0
    8.0052    2.4139    0.0000 C   0  0  0  0  0  0  0  0  0  0  0  0
    2.8660   -3.6739    0.0000 C   0  0  0  0  0  0  0  0  0  0  0  0
    4.5981   -3.6739    0.0000 C   0  0  0  0  0  0  0  0  0  0  0  0
    3.7320   -4.1739    0.0000 C   0  0  0  0  0  0  0  0  0  0  0  0
    7.6962    3.3649    0.0000 C   0  0  0  0  0  0  0  0  0  0  0  0
    6.6962    3.3649    0.0000 C   0  0  0  0  0  0  0  0  0  0  0  0
    2.0000   -4.1739    0.0000 C   0  0  0  0  0  0  0  0  0  0  0  0
    5.4641   -4.1739    0.0000 C   0  0  0  0  0  0  0  0  0  0  0  0
    5.8626    1.3010    0.0000 H   0  0  0  0  0  0  0  0  0  0  0  0
    5.0656    1.3010    0.0000 H   0  0  0  0  0  0  0  0  0  0  0  0
    6.5422   -1.2565    0.0000 H   0  0  0  0  0  0  0  0  0  0  0  0
    6.9407   -0.5663    0.0000 H   0  0  0  0  0  0  0  0  0  0  0  0
    4.3860    0.9087    0.0000 H   0  0  0  0  0  0  0  0  0  0  0  0
    3.9875    0.2184    0.0000 H   0  0  0  0  0  0  0  0  0  0  0  0
    5.0656   -1.6489    0.0000 H   0  0  0  0  0  0  0  0  0  0  0  0
    5.8626   -1.6489    0.0000 H   0  0  0  0  0  0  0  0  0  0  0  0
    7.4082    0.2435    0.0000 H   0  0  0  0  0  0  0  0  0  0  0  0
    7.8067    0.9337    0.0000 H   0  0  0  0  0  0  0  0  0  0  0  0
    2.3291   -2.3639    0.0000 H   0  0  0  0  0  0  0  0  0  0  0  0
    5.1350   -2.3639    0.0000 H   0  0  0  0  0  0  0  0  0  0  0  0
    8.5948    2.2223    0.0000 H   0  0  0  0  0  0  0  0  0  0  0  0
    3.7320   -4.7939    0.0000 H   0  0  0  0  0  0  0  0  0  0  0  0
    8.0606    3.8665    0.0000 H   0  0  0  0  0  0  0  0  0  0  0  0
    1.6900   -3.6370    0.0000 H   0  0  0  0  0  0  0  0  0  0  0  0
    1.4631   -4.4839    0.0000 H   0  0  0  0  0  0  0  0  0  0  0  0
    2.3100   -4.7109    0.0000 H   0  0  0  0  0  0  0  0  0  0  0  0
    5.1541   -4.7109    0.0000 H   0  0  0  0  0  0  0  0  0  0  0  0
    6.0010   -4.4839    0.0000 H   0  0  0  0  0  0  0  0  0  0  0  0
    5.7741   -3.6370    0.0000 H   0  0  0  0  0  0  0  0  0  0  0  0
  1 21  1  0  0  0  0
  2 12  1  0  0  0  0
  2 21  1  0  0  0  0
  3 11  2  0  0  0  0
  4  6  1  0  0  0  0
  4  7  1  0  0  0  0
  4 10  1  0  0  0  0
  5  8  1  0  0  0  0
  5  9  1  0  0  0  0
  5 11  1  0  0  0  0
  6  8  1  0  0  0  0
  6 24  1  0  0  0  0
  6 25  1  0  0  0  0
  7  9  1  0  0  0  0
  7 26  1  0  0  0  0
  7 27  1  0  0  0  0
  8 28  1  0  0  0  0
  8 29  1  0  0  0  0
  9 30  1  0  0  0  0
  9 31  1  0  0  0  0
 10 12  1  0  0  0  0
 10 32  1  0  0  0  0
 10 33  1  0  0  0  0
 11 13  1  0  0  0  0
 12 16  2  0  0  0  0
 13 14  2  0  0  0  0
 13 15  1  0  0  0  0
 14 17  1  0  0  0  0
 14 34  1  0  0  0  0
 15 18  2  0  0  0  0
 15 35  1  0  0  0  0
 16 20  1  0  0  0  0
 16 36  1  0  0  0  0
 17 19  2  0  0  0  0
 17 22  1  0  0  0  0
 18 19  1  0  0  0  0
 18 23  1  0  0  0  0
 19 37  1  0  0  0  0
 20 21  2  0  0  0  0
 20 38  1  0  0  0  0
 22 39  1  0  0  0  0
 22 40  1  0  0  0  0
 22 41  1  0  0  0  0
 23 42  1  0  0  0  0
 23 43  1  0  0  0  0
 23 44  1  0  0  0  0
M  END
> <PUBCHEM_COMPOUND_CID>
17396444

> <PUBCHEM_COMPOUND_CANONICALIZED>
1

> <PUBCHEM_CACTVS_COMPLEXITY>
404

> <PUBCHEM_CACTVS_HBOND_ACCEPTOR>
3

> <PUBCHEM_CACTVS_HBOND_DONOR>
0

> <PUBCHEM_CACTVS_ROTATABLE_BOND>
3

> <PUBCHEM_CACTVS_SUBSKEYS>
AAADceB7IABEAAAAAAAAAAAAAAAAASAAAAA8QAAAAAAAAAABwAAAHgYAAAAADALB2CQyAYMAAAiMAiFSEACDAIAkDRBIiBkIBsgIYDKhlxGUIQhghgCoiYcYiECOAAACAAAAAAAAAAQAAAAAAAAAAAAAAA==

> <PUBCHEM_IUPAC_OPENEYE_NAME>
[4-[(5-chloro-2-thienyl)methyl]piperazin-1-yl]-(3,5-dimethylphenyl)methanone

> <PUBCHEM_IUPAC_CAS_NAME>
[4-[(5-chloro-2-thiophenyl)methyl]-1-piperazinyl]-(3,5-dimethylphenyl)methanone

> <PUBCHEM_IUPAC_NAME>
[4-[(5-chlorothiophen-2-yl)methyl]piperazin-1-yl]-(3,5-dimethylphenyl)methanone

> <PUBCHEM_IUPAC_SYSTEMATIC_NAME>
[4-[(5-chloranylthiophen-2-yl)methyl]piperazin-1-yl]-(3,5-dimethylphenyl)methanone

> <PUBCHEM_IUPAC_TRADITIONAL_NAME>
[4-[(5-chloro-2-thienyl)methyl]piperazino]-(3,5-dimethylphenyl)methanone

> <PUBCHEM_IUPAC_INCHI>
InChI=1S/C18H21ClN2OS/c1-13-9-14(2)11-15(10-13)18(22)21-7-5-20(6-8-21)12-16-3-4-17(19)23-16/h3-4,9-11H,5-8,12H2,1-2H3

> <PUBCHEM_IUPAC_INCHIKEY>
ZNTGGOAXFOTNCT-UHFFFAOYSA-N

> <PUBCHEM_XLOGP3_AA>
4.1

> <PUBCHEM_EXACT_MASS>
348.106312

> <PUBCHEM_MOLECULAR_FORMULA>
C18H21ClN2OS

> <PUBCHEM_MOLECULAR_WEIGHT>
348.89014

> <PUBCHEM_OPENEYE_CAN_SMILES>
CC1=CC(=CC(=C1)C(=O)N2CCN(CC2)CC3=CC=C(S3)Cl)C

> <PUBCHEM_OPENEYE_ISO_SMILES>
CC1=CC(=CC(=C1)C(=O)N2CCN(CC2)CC3=CC=C(S3)Cl)C

> <PUBCHEM_CACTVS_TPSA>
51.8

> <PUBCHEM_MONOISOTOPIC_WEIGHT>
348.106312

> <PUBCHEM_TOTAL_CHARGE>
0

> <PUBCHEM_HEAVY_ATOM_COUNT>
23

> <PUBCHEM_ATOM_DEF_STEREO_COUNT>
0

> <PUBCHEM_ATOM_UDEF_STEREO_COUNT>
0

> <PUBCHEM_BOND_DEF_STEREO_COUNT>
0

> <PUBCHEM_BOND_UDEF_STEREO_COUNT>
0

> <PUBCHEM_ISOTOPIC_ATOM_COUNT>
0

> <PUBCHEM_COMPONENT_COUNT>
1

> <PUBCHEM_CACTVS_TAUTO_COUNT>
1

> <PUBCHEM_COORDINATE_TYPE>
1
5
255

> <PUBCHEM_BONDANNOTATIONS>
12  16  8
13  14  8
13  15  8
14  17  8
15  18  8
16  20  8
17  19  8
18  19  8
2  12  8
2  21  8
20  21  8

$$$$

