13456
  -OEChem-06261214242D

 38 38  0     1  0  0  0  0  0999 V2000
    3.1764    8.0404    0.0000 Cl  0  5  0  0  0  0  0  0  0  0  0  0
    3.1640    2.9076    0.0000 O   0  0  0  0  0  0  0  0  0  0  0  0
    6.6594    2.7062    0.0000 O   0  0  0  0  0  0  0  0  0  0  0  0
    1.5167    3.4428    0.0000 O   0  0  0  0  0  0  0  0  0  0  0  0
    4.4241    5.1677    0.0000 N   0  3  3  0  0  0  0  0  0  0  0  0
    4.4241    4.1677    0.0000 C   0  0  3  0  0  0  0  0  0  0  0  0
    3.4730    3.8586    0.0000 C   0  0  3  0  0  0  0  0  0  0  0  0
    3.4730    5.4767    0.0000 C   0  0  0  0  0  0  0  0  0  0  0  0
    2.8852    4.6677    0.0000 C   0  0  0  0  0  0  0  0  0  0  0  0
    5.3703    5.4724    0.0000 C   0  0  0  0  0  0  0  0  0  0  0  0
    5.3703    3.8629    0.0000 C   0  0  0  0  0  0  0  0  0  0  0  0
    5.9539    4.6677    0.0000 C   0  0  0  0  0  0  0  0  0  0  0  0
    5.6809    2.9124    0.0000 C   0  0  0  0  0  0  0  0  0  0  0  0
    2.1858    2.6997    0.0000 C   0  0  0  0  0  0  0  0  0  0  0  0
    1.8768    1.7486    0.0000 C   0  0  0  0  0  0  0  0  0  0  0  0
    2.5460    1.0055    0.0000 C   0  0  0  0  0  0  0  0  0  0  0  0
    0.8987    1.5407    0.0000 C   0  0  0  0  0  0  0  0  0  0  0  0
    0.5897    0.5897    0.0000 C   0  0  0  0  0  0  0  0  0  0  0  0
    4.4241    5.7877    0.0000 H   0  0  0  0  0  0  0  0  0  0  0  0
    4.4249    3.5477    0.0000 H   0  0  0  0  0  0  0  0  0  0  0  0
    2.8606    3.7617    0.0000 H   0  0  0  0  0  0  0  0  0  0  0  0
    2.9361    5.7867    0.0000 H   0  0  0  0  0  0  0  0  0  0  0  0
    3.7252    6.0431    0.0000 H   0  0  0  0  0  0  0  0  0  0  0  0
    2.4245    4.2528    0.0000 H   0  0  0  0  0  0  0  0  0  0  0  0
    2.4245    5.0825    0.0000 H   0  0  0  0  0  0  0  0  0  0  0  0
    5.1192    6.0393    0.0000 H   0  0  0  0  0  0  0  0  0  0  0  0
    5.9077    5.7816    0.0000 H   0  0  0  0  0  0  0  0  0  0  0  0
    6.5739    4.6677    0.0000 H   0  0  0  0  0  0  0  0  0  0  0  0
    5.6604    2.2928    0.0000 H   0  0  0  0  0  0  0  0  0  0  0  0
    5.0671    2.8251    0.0000 H   0  0  0  0  0  0  0  0  0  0  0  0
    6.8521    2.1169    0.0000 H   0  0  0  0  0  0  0  0  0  0  0  0
    3.0067    1.4203    0.0000 H   0  0  0  0  0  0  0  0  0  0  0  0
    2.9608    0.5447    0.0000 H   0  0  0  0  0  0  0  0  0  0  0  0
    2.0852    0.5906    0.0000 H   0  0  0  0  0  0  0  0  0  0  0  0
    0.4838    2.0015    0.0000 H   0  0  0  0  0  0  0  0  0  0  0  0
    1.1793    0.3981    0.0000 H   0  0  0  0  0  0  0  0  0  0  0  0
    0.3981    0.0000    0.0000 H   0  0  0  0  0  0  0  0  0  0  0  0
    0.0000    0.7812    0.0000 H   0  0  0  0  0  0  0  0  0  0  0  0
  2  7  1  0  0  0  0
  2 14  1  0  0  0  0
  3 13  1  0  0  0  0
  3 31  1  0  0  0  0
  4 14  2  0  0  0  0
  5  6  1  0  0  0  0
  5  8  1  0  0  0  0
  5 10  1  0  0  0  0
  5 19  1  0  0  0  0
  6  7  1  0  0  0  0
  6 11  1  0  0  0  0
  6 20  1  0  0  0  0
  7  9  1  0  0  0  0
  7 21  1  0  0  0  0
  8  9  1  0  0  0  0
  8 22  1  0  0  0  0
  8 23  1  0  0  0  0
  9 24  1  0  0  0  0
  9 25  1  0  0  0  0
 10 12  1  0  0  0  0
 10 26  1  0  0  0  0
 10 27  1  0  0  0  0
 11 12  2  0  0  0  0
 11 13  1  0  0  0  0
 12 28  1  0  0  0  0
 13 29  1  0  0  0  0
 13 30  1  0  0  0  0
 14 15  1  0  0  0  0
 15 16  1  0  0  0  0
 15 17  2  3  0  0  0
 16 32  1  0  0  0  0
 16 33  1  0  0  0  0
 16 34  1  0  0  0  0
 17 18  1  0  0  0  0
 17 35  1  0  0  0  0
 18 36  1  0  0  0  0
 18 37  1  0  0  0  0
 18 38  1  0  0  0  0
M  CHG  2   1  -1   5   1
M  END
> <PUBCHEM_COMPOUND_CID>
13456

> <PUBCHEM_COMPOUND_CANONICALIZED>
1

> <PUBCHEM_CACTVS_COMPLEXITY>
373

> <PUBCHEM_CACTVS_HBOND_ACCEPTOR>
4

> <PUBCHEM_CACTVS_HBOND_DONOR>
2

> <PUBCHEM_CACTVS_ROTATABLE_BOND>
4

> <PUBCHEM_CACTVS_SUBSKEYS>
AAADceByMAAEAAAAAAAAAAAAAAAAAWIAAAAAAAAAAAAQAAAAAAAAHgAQCAAADDzhgAYCCAPABgCIAiDSCACAAAAgAAAACIEIAEgCFAIAoQAHUAAG0ACYMYPQQAAAAAAAAAAAAAAAAAAAAAAAAAAAAAAAAA==

> <PUBCHEM_IUPAC_OPENEYE_NAME>
[7-(hydroxymethyl)-1,2,3,4,5,8-hexahydropyrrolizin-4-ium-1-yl] 2-methylbut-2-enoate chloride

> <PUBCHEM_IUPAC_CAS_NAME>
2-methyl-2-butenoic acid [7-(hydroxymethyl)-1,2,3,4,5,8-hexahydropyrrolizin-4-ium-1-yl] ester chloride

> <PUBCHEM_IUPAC_NAME>
[7-(hydroxymethyl)-1,2,3,4,5,8-hexahydropyrrolizin-4-ium-1-yl] 2-methylbut-2-enoate chloride

> <PUBCHEM_IUPAC_SYSTEMATIC_NAME>
[7-(hydroxymethyl)-1,2,3,4,5,8-hexahydropyrrolizin-4-ium-1-yl] 2-methylbut-2-enoate chloride

> <PUBCHEM_IUPAC_TRADITIONAL_NAME>
2-methylbut-2-enoic acid (7-methylol-1,2,3,4,5,8-hexahydropyrrolizin-4-ium-1-yl) ester chloride

> <PUBCHEM_IUPAC_INCHI>
InChI=1S/C13H19NO3.ClH/c1-3-9(2)13(16)17-11-5-7-14-6-4-10(8-15)12(11)14;/h3-4,11-12,15H,5-8H2,1-2H3;1H

> <PUBCHEM_IUPAC_INCHIKEY>
JHZIVBOZTQPAIU-UHFFFAOYSA-N

> <PUBCHEM_EXACT_MASS>
273.113171

> <PUBCHEM_MOLECULAR_FORMULA>
C13H20ClNO3

> <PUBCHEM_MOLECULAR_WEIGHT>
273.7558

> <PUBCHEM_OPENEYE_CAN_SMILES>
CC=C(C)C(=O)OC1CC[NH+]2C1C(=CC2)CO.[Cl-]

> <PUBCHEM_OPENEYE_ISO_SMILES>
CC=C(C)C(=O)OC1CC[NH+]2C1C(=CC2)CO.[Cl-]

> <PUBCHEM_CACTVS_TPSA>
51

> <PUBCHEM_MONOISOTOPIC_WEIGHT>
273.113171

> <PUBCHEM_TOTAL_CHARGE>
0

> <PUBCHEM_HEAVY_ATOM_COUNT>
18

> <PUBCHEM_ATOM_DEF_STEREO_COUNT>
0

> <PUBCHEM_ATOM_UDEF_STEREO_COUNT>
0

> <PUBCHEM_BOND_DEF_STEREO_COUNT>
0

> <PUBCHEM_BOND_UDEF_STEREO_COUNT>
1

> <PUBCHEM_ISOTOPIC_ATOM_COUNT>
0

> <PUBCHEM_COMPONENT_COUNT>
2

> <PUBCHEM_CACTVS_TAUTO_COUNT>
1

> <PUBCHEM_COORDINATE_TYPE>
1
5
255

> <PUBCHEM_BONDANNOTATIONS>
15  17  1

$$$$

