51091003
  -OEChem-06241223012D

 43 45  0     0  0  0  0  0  0999 V2000
    7.1279   -0.1340    0.0000 S   0  0  0  0  0  0  0  0  0  0  0  0
   10.1279    1.5981    0.0000 O   0  0  0  0  0  0  0  0  0  0  0  0
    4.5981    0.3660    0.0000 N   0  0  0  0  0  0  0  0  0  0  0  0
    5.5443    0.6708    0.0000 N   0  0  0  0  0  0  0  0  0  0  0  0
    3.7320   -1.1340    0.0000 N   0  0  0  0  0  0  0  0  0  0  0  0
    5.5443   -0.9387    0.0000 N   0  0  0  0  0  0  0  0  0  0  0  0
   11.6279    0.7321    0.0000 N   0  0  0  0  0  0  0  0  0  0  0  0
    3.7320    0.8660    0.0000 C   0  0  0  0  0  0  0  0  0  0  0  0
    8.6279   -1.0000    0.0000 C   0  0  0  0  0  0  0  0  0  0  0  0
    7.6279   -1.0000    0.0000 C   0  0  0  0  0  0  0  0  0  0  0  0
    4.5981   -0.6340    0.0000 C   0  0  0  0  0  0  0  0  0  0  0  0
   10.1279   -0.1340    0.0000 C   0  0  0  0  0  0  0  0  0  0  0  0
    9.1279   -0.1340    0.0000 C   0  0  0  0  0  0  0  0  0  0  0  0
    2.8660    0.3660    0.0000 C   0  0  0  0  0  0  0  0  0  0  0  0
    2.8660   -0.6340    0.0000 C   0  0  0  0  0  0  0  0  0  0  0  0
    6.1279   -0.1340    0.0000 C   0  0  0  0  0  0  0  0  0  0  0  0
    9.1279   -1.8660    0.0000 C   0  0  0  0  0  0  0  0  0  0  0  0
   10.6279   -1.0000    0.0000 C   0  0  0  0  0  0  0  0  0  0  0  0
    3.7320    1.8660    0.0000 C   0  0  0  0  0  0  0  0  0  0  0  0
   10.6279    0.7321    0.0000 C   0  0  0  0  0  0  0  0  0  0  0  0
   10.1279   -1.8660    0.0000 C   0  0  0  0  0  0  0  0  0  0  0  0
    2.0000   -1.1340    0.0000 C   0  0  0  0  0  0  0  0  0  0  0  0
   12.1279    1.5981    0.0000 C   0  0  0  0  0  0  0  0  0  0  0  0
   12.1279   -0.1340    0.0000 C   0  0  0  0  0  0  0  0  0  0  0  0
    7.0453   -1.2120    0.0000 H   0  0  0  0  0  0  0  0  0  0  0  0
    7.7356   -1.6106    0.0000 H   0  0  0  0  0  0  0  0  0  0  0  0
    8.8179    0.4030    0.0000 H   0  0  0  0  0  0  0  0  0  0  0  0
    2.3291    0.6760    0.0000 H   0  0  0  0  0  0  0  0  0  0  0  0
    8.8179   -2.4030    0.0000 H   0  0  0  0  0  0  0  0  0  0  0  0
   11.2479   -1.0000    0.0000 H   0  0  0  0  0  0  0  0  0  0  0  0
    4.3520    1.8660    0.0000 H   0  0  0  0  0  0  0  0  0  0  0  0
    3.7320    2.4860    0.0000 H   0  0  0  0  0  0  0  0  0  0  0  0
    3.1120    1.8660    0.0000 H   0  0  0  0  0  0  0  0  0  0  0  0
   10.4379   -2.4030    0.0000 H   0  0  0  0  0  0  0  0  0  0  0  0
    1.6900   -0.5970    0.0000 H   0  0  0  0  0  0  0  0  0  0  0  0
    1.4631   -1.4440    0.0000 H   0  0  0  0  0  0  0  0  0  0  0  0
    2.3100   -1.6709    0.0000 H   0  0  0  0  0  0  0  0  0  0  0  0
   12.6648    1.2881    0.0000 H   0  0  0  0  0  0  0  0  0  0  0  0
   12.4379    2.1350    0.0000 H   0  0  0  0  0  0  0  0  0  0  0  0
   11.5910    1.9081    0.0000 H   0  0  0  0  0  0  0  0  0  0  0  0
   11.5910   -0.4440    0.0000 H   0  0  0  0  0  0  0  0  0  0  0  0
   12.4379   -0.6709    0.0000 H   0  0  0  0  0  0  0  0  0  0  0  0
   12.6648    0.1760    0.0000 H   0  0  0  0  0  0  0  0  0  0  0  0
  1 10  1  0  0  0  0
  1 16  1  0  0  0  0
  2 20  2  0  0  0  0
  3  4  1  0  0  0  0
  3  8  1  0  0  0  0
  3 11  1  0  0  0  0
  4 16  2  0  0  0  0
  5 11  1  0  0  0  0
  5 15  2  0  0  0  0
  6 11  2  0  0  0  0
  6 16  1  0  0  0  0
  7 20  1  0  0  0  0
  7 23  1  0  0  0  0
  7 24  1  0  0  0  0
  8 14  2  0  0  0  0
  8 19  1  0  0  0  0
  9 10  1  0  0  0  0
  9 13  2  0  0  0  0
  9 17  1  0  0  0  0
 10 25  1  0  0  0  0
 10 26  1  0  0  0  0
 12 13  1  0  0  0  0
 12 18  2  0  0  0  0
 12 20  1  0  0  0  0
 13 27  1  0  0  0  0
 14 15  1  0  0  0  0
 14 28  1  0  0  0  0
 15 22  1  0  0  0  0
 17 21  2  0  0  0  0
 17 29  1  0  0  0  0
 18 21  1  0  0  0  0
 18 30  1  0  0  0  0
 19 31  1  0  0  0  0
 19 32  1  0  0  0  0
 19 33  1  0  0  0  0
 21 34  1  0  0  0  0
 22 35  1  0  0  0  0
 22 36  1  0  0  0  0
 22 37  1  0  0  0  0
 23 38  1  0  0  0  0
 23 39  1  0  0  0  0
 23 40  1  0  0  0  0
 24 41  1  0  0  0  0
 24 42  1  0  0  0  0
 24 43  1  0  0  0  0
M  END
> <PUBCHEM_COMPOUND_CID>
51091003

> <PUBCHEM_COMPOUND_CANONICALIZED>
1

> <PUBCHEM_CACTVS_COMPLEXITY>
449

> <PUBCHEM_CACTVS_HBOND_ACCEPTOR>
5

> <PUBCHEM_CACTVS_HBOND_DONOR>
0

> <PUBCHEM_CACTVS_ROTATABLE_BOND>
4

> <PUBCHEM_CACTVS_SUBSKEYS>
AAADceB7oABAAAAAAAAAAAAAAAAAAWAAAAA8QAAAAAAAAFgB8AAAHgQIAAAADAiF3gSzkJcIEAiqAyVydACS1CtlArAdmCE4ZNiIKDLg3dGEpQhoigJIyacYiECOAAACAAAAAAAAAAQAAAAAAAAAAAAAAA==

> <PUBCHEM_IUPAC_OPENEYE_NAME>
3-[(5,7-dimethyl-[1,2,4]triazolo[1,5-a]pyrimidin-2-yl)sulfanylmethyl]-N,N-dimethyl-benzamide

> <PUBCHEM_IUPAC_CAS_NAME>
3-[[(5,7-dimethyl-[1,2,4]triazolo[1,5-a]pyrimidin-2-yl)thio]methyl]-N,N-dimethylbenzamide

> <PUBCHEM_IUPAC_NAME>
3-[(5,7-dimethyl-[1,2,4]triazolo[1,5-a]pyrimidin-2-yl)sulfanylmethyl]-N,N-dimethylbenzamide

> <PUBCHEM_IUPAC_SYSTEMATIC_NAME>
3-[(5,7-dimethyl-[1,2,4]triazolo[1,5-a]pyrimidin-2-yl)sulfanylmethyl]-N,N-dimethyl-benzamide

> <PUBCHEM_IUPAC_TRADITIONAL_NAME>
3-[[(5,7-dimethyl-[1,2,4]triazolo[1,5-a]pyrimidin-2-yl)thio]methyl]-N,N-dimethyl-benzamide

> <PUBCHEM_IUPAC_INCHI>
InChI=1S/C17H19N5OS/c1-11-8-12(2)22-16(18-11)19-17(20-22)24-10-13-6-5-7-14(9-13)15(23)21(3)4/h5-9H,10H2,1-4H3

> <PUBCHEM_IUPAC_INCHIKEY>
BIGTUNLWOQDNKX-UHFFFAOYSA-N

> <PUBCHEM_XLOGP3_AA>
2.7

> <PUBCHEM_EXACT_MASS>
341.131031

> <PUBCHEM_MOLECULAR_FORMULA>
C17H19N5OS

> <PUBCHEM_MOLECULAR_WEIGHT>
341.43066

> <PUBCHEM_OPENEYE_CAN_SMILES>
CC1=CC(=NC2=NC(=NN12)SCC3=CC=CC(=C3)C(=O)N(C)C)C

> <PUBCHEM_OPENEYE_ISO_SMILES>
CC1=CC(=NC2=NC(=NN12)SCC3=CC=CC(=C3)C(=O)N(C)C)C

> <PUBCHEM_CACTVS_TPSA>
88.7

> <PUBCHEM_MONOISOTOPIC_WEIGHT>
341.131031

> <PUBCHEM_TOTAL_CHARGE>
0

> <PUBCHEM_HEAVY_ATOM_COUNT>
24

> <PUBCHEM_ATOM_DEF_STEREO_COUNT>
0

> <PUBCHEM_ATOM_UDEF_STEREO_COUNT>
0

> <PUBCHEM_BOND_DEF_STEREO_COUNT>
0

> <PUBCHEM_BOND_UDEF_STEREO_COUNT>
0

> <PUBCHEM_ISOTOPIC_ATOM_COUNT>
0

> <PUBCHEM_COMPONENT_COUNT>
1

> <PUBCHEM_CACTVS_TAUTO_COUNT>
1

> <PUBCHEM_COORDINATE_TYPE>
1
5
255

> <PUBCHEM_BONDANNOTATIONS>
12  13  8
12  18  8
14  15  8
17  21  8
18  21  8
3  11  8
3  4  8
3  8  8
4  16  8
5  11  8
5  15  8
6  11  8
6  16  8
8  14  8
9  13  8
9  17  8

$$$$

