10619
  -OEChem-06261204452D

 54 54  0     1  0  0  0  0  0999 V2000
    3.2983    0.0000    0.0000 Br  0  5  0  0  0  0  0  0  0  0  0  0
    4.1200    4.7690    0.0000 O   0  0  0  0  0  0  0  0  0  0  0  0
    5.6200    7.3671    0.0000 N   0  3  0  0  0  0  0  0  0  0  0  0
    4.7540    7.8671    0.0000 C   0  0  0  0  0  0  0  0  0  0  0  0
    6.4860    7.8671    0.0000 C   0  0  0  0  0  0  0  0  0  0  0  0
    5.1200    6.5010    0.0000 C   0  0  0  0  0  0  0  0  0  0  0  0
    6.4860    8.8671    0.0000 C   0  0  0  0  0  0  0  0  0  0  0  0
    4.7540    8.8671    0.0000 C   0  0  0  0  0  0  0  0  0  0  0  0
    5.6200    9.3671    0.0000 C   0  0  0  0  0  0  0  0  0  0  0  0
    4.1200    6.5010    0.0000 C   0  0  0  0  0  0  0  0  0  0  0  0
    6.1200    6.5010    0.0000 C   0  0  0  0  0  0  0  0  0  0  0  0
    3.6200    5.6350    0.0000 C   0  0  3  0  0  0  0  0  0  0  0  0
    2.6200    5.6350    0.0000 C   0  0  3  0  0  0  0  0  0  0  0  0
    2.1200    6.5010    0.0000 C   0  0  0  0  0  0  0  0  0  0  0  0
    2.1200    4.7690    0.0000 C   0  0  0  0  0  0  0  0  0  0  0  0
    1.1200    6.5010    0.0000 C   0  0  0  0  0  0  0  0  0  0  0  0
    2.6200    7.3671    0.0000 C   0  0  0  0  0  0  0  0  0  0  0  0
    1.1200    4.7690    0.0000 C   0  0  0  0  0  0  0  0  0  0  0  0
    2.6200    3.9030    0.0000 C   0  0  0  0  0  0  0  0  0  0  0  0
    0.6200    3.9030    0.0000 C   0  0  0  0  0  0  0  0  0  0  0  0
    2.1200    3.0369    0.0000 C   0  0  0  0  0  0  0  0  0  0  0  0
    1.1200    3.0369    0.0000 C   0  0  0  0  0  0  0  0  0  0  0  0
    6.6981    7.2844    0.0000 H   0  0  0  0  0  0  0  0  0  0  0  0
    7.0966    7.9747    0.0000 H   0  0  0  0  0  0  0  0  0  0  0  0
    4.1434    7.9747    0.0000 H   0  0  0  0  0  0  0  0  0  0  0  0
    4.5419    7.2844    0.0000 H   0  0  0  0  0  0  0  0  0  0  0  0
    5.0123    5.8905    0.0000 H   0  0  0  0  0  0  0  0  0  0  0  0
    5.7026    6.2890    0.0000 H   0  0  0  0  0  0  0  0  0  0  0  0
    4.5419    9.4497    0.0000 H   0  0  0  0  0  0  0  0  0  0  0  0
    4.1434    8.7594    0.0000 H   0  0  0  0  0  0  0  0  0  0  0  0
    7.0966    8.7594    0.0000 H   0  0  0  0  0  0  0  0  0  0  0  0
    6.6981    9.4497    0.0000 H   0  0  0  0  0  0  0  0  0  0  0  0
    6.0185    9.8420    0.0000 H   0  0  0  0  0  0  0  0  0  0  0  0
    5.2215    9.8420    0.0000 H   0  0  0  0  0  0  0  0  0  0  0  0
    4.2277    7.1116    0.0000 H   0  0  0  0  0  0  0  0  0  0  0  0
    3.5374    6.7131    0.0000 H   0  0  0  0  0  0  0  0  0  0  0  0
    5.5831    6.1910    0.0000 H   0  0  0  0  0  0  0  0  0  0  0  0
    6.4300    5.9641    0.0000 H   0  0  0  0  0  0  0  0  0  0  0  0
    6.6569    6.8110    0.0000 H   0  0  0  0  0  0  0  0  0  0  0  0
    4.4700    5.6350    0.0000 H   0  0  0  0  0  0  0  0  0  0  0  0
    1.7700    5.6350    0.0000 H   0  0  0  0  0  0  0  0  0  0  0  0
    1.8100    5.9641    0.0000 H   0  0  0  0  0  0  0  0  0  0  0  0
    4.7400    4.7690    0.0000 H   0  0  0  0  0  0  0  0  0  0  0  0
    1.1200    7.1210    0.0000 H   0  0  0  0  0  0  0  0  0  0  0  0
    0.5000    6.5010    0.0000 H   0  0  0  0  0  0  0  0  0  0  0  0
    1.1200    5.8810    0.0000 H   0  0  0  0  0  0  0  0  0  0  0  0
    3.1569    7.0571    0.0000 H   0  0  0  0  0  0  0  0  0  0  0  0
    2.9300    7.9040    0.0000 H   0  0  0  0  0  0  0  0  0  0  0  0
    2.0831    7.6771    0.0000 H   0  0  0  0  0  0  0  0  0  0  0  0
    0.8100    5.3059    0.0000 H   0  0  0  0  0  0  0  0  0  0  0  0
    3.2400    3.9030    0.0000 H   0  0  0  0  0  0  0  0  0  0  0  0
    0.0000    3.9030    0.0000 H   0  0  0  0  0  0  0  0  0  0  0  0
    2.4300    2.5000    0.0000 H   0  0  0  0  0  0  0  0  0  0  0  0
    0.8100    2.5000    0.0000 H   0  0  0  0  0  0  0  0  0  0  0  0
  2 12  1  0  0  0  0
  2 43  1  0  0  0  0
  3  4  1  0  0  0  0
  3  5  1  0  0  0  0
  3  6  1  0  0  0  0
  3 11  1  0  0  0  0
  4  8  1  0  0  0  0
  4 25  1  0  0  0  0
  4 26  1  0  0  0  0
  5  7  1  0  0  0  0
  5 23  1  0  0  0  0
  5 24  1  0  0  0  0
  6 10  1  0  0  0  0
  6 27  1  0  0  0  0
  6 28  1  0  0  0  0
  7  9  1  0  0  0  0
  7 31  1  0  0  0  0
  7 32  1  0  0  0  0
  8  9  1  0  0  0  0
  8 29  1  0  0  0  0
  8 30  1  0  0  0  0
  9 33  1  0  0  0  0
  9 34  1  0  0  0  0
 10 12  1  0  0  0  0
 10 35  1  0  0  0  0
 10 36  1  0  0  0  0
 11 37  1  0  0  0  0
 11 38  1  0  0  0  0
 11 39  1  0  0  0  0
 12 13  1  0  0  0  0
 12 40  1  0  0  0  0
 13 14  1  0  0  0  0
 13 15  1  0  0  0  0
 13 41  1  0  0  0  0
 14 16  1  0  0  0  0
 14 17  1  0  0  0  0
 14 42  1  0  0  0  0
 15 18  2  0  0  0  0
 15 19  1  0  0  0  0
 16 44  1  0  0  0  0
 16 45  1  0  0  0  0
 16 46  1  0  0  0  0
 17 47  1  0  0  0  0
 17 48  1  0  0  0  0
 17 49  1  0  0  0  0
 18 20  1  0  0  0  0
 18 50  1  0  0  0  0
 19 21  2  0  0  0  0
 19 51  1  0  0  0  0
 20 22  2  0  0  0  0
 20 52  1  0  0  0  0
 21 22  1  0  0  0  0
 21 53  1  0  0  0  0
 22 54  1  0  0  0  0
M  CHG  2   1  -1   3   1
M  END
> <PUBCHEM_COMPOUND_CID>
10619

> <PUBCHEM_COMPOUND_CANONICALIZED>
1

> <PUBCHEM_CACTVS_COMPLEXITY>
290

> <PUBCHEM_CACTVS_HBOND_ACCEPTOR>
2

> <PUBCHEM_CACTVS_HBOND_DONOR>
1

> <PUBCHEM_CACTVS_ROTATABLE_BOND>
6

> <PUBCHEM_CACTVS_SUBSKEYS>
AAADcfB6IAAAEAAAAAAAAAAAAAAAAAAAAAA8QAAAAAAAAAABAAAAHgAACAAADRThmAYyAIMAAgCAAiBCAAACAAAgAAAIiAAIAIgIMCKAkRCEYAAmwAGIiAeQwOAOgAAAAAAAAAAAAAAAAAAAAAAAAAAAAA==

> <PUBCHEM_IUPAC_OPENEYE_NAME>
5-methyl-1-(1-methylpiperidin-1-ium-1-yl)-4-phenyl-hexan-3-ol bromide

> <PUBCHEM_IUPAC_CAS_NAME>
5-methyl-1-(1-methyl-1-piperidin-1-iumyl)-4-phenyl-3-hexanol bromide

> <PUBCHEM_IUPAC_NAME>
5-methyl-1-(1-methylpiperidin-1-ium-1-yl)-4-phenylhexan-3-ol bromide

> <PUBCHEM_IUPAC_SYSTEMATIC_NAME>
5-methyl-1-(1-methylpiperidin-1-ium-1-yl)-4-phenyl-hexan-3-ol bromide

> <PUBCHEM_IUPAC_TRADITIONAL_NAME>
5-methyl-1-(1-methylpiperidin-1-ium-1-yl)-4-phenyl-hexan-3-ol bromide

> <PUBCHEM_IUPAC_INCHI>
InChI=1S/C19H32NO.BrH/c1-16(2)19(17-10-6-4-7-11-17)18(21)12-15-20(3)13-8-5-9-14-20;/h4,6-7,10-11,16,18-19,21H,5,8-9,12-15H2,1-3H3;1H/q+1;/p-1

> <PUBCHEM_IUPAC_INCHIKEY>
CALMOSBYAPVNLT-UHFFFAOYSA-M

> <PUBCHEM_EXACT_MASS>
369.166727

> <PUBCHEM_MOLECULAR_FORMULA>
C19H32BrNO

> <PUBCHEM_MOLECULAR_WEIGHT>
370.36748

> <PUBCHEM_OPENEYE_CAN_SMILES>
CC(C)C(C1=CC=CC=C1)C(CC[N+]2(CCCCC2)C)O.[Br-]

> <PUBCHEM_OPENEYE_ISO_SMILES>
CC(C)C(C1=CC=CC=C1)C(CC[N+]2(CCCCC2)C)O.[Br-]

> <PUBCHEM_CACTVS_TPSA>
20.2

> <PUBCHEM_MONOISOTOPIC_WEIGHT>
369.166727

> <PUBCHEM_TOTAL_CHARGE>
0

> <PUBCHEM_HEAVY_ATOM_COUNT>
22

> <PUBCHEM_ATOM_DEF_STEREO_COUNT>
0

> <PUBCHEM_ATOM_UDEF_STEREO_COUNT>
2

> <PUBCHEM_BOND_DEF_STEREO_COUNT>
0

> <PUBCHEM_BOND_UDEF_STEREO_COUNT>
0

> <PUBCHEM_ISOTOPIC_ATOM_COUNT>
0

> <PUBCHEM_COMPONENT_COUNT>
2

> <PUBCHEM_CACTVS_TAUTO_COUNT>
1

> <PUBCHEM_COORDINATE_TYPE>
1
5
255

> <PUBCHEM_BONDANNOTATIONS>
12  40  3
13  41  3
15  18  8
15  19  8
18  20  8
19  21  8
20  22  8
21  22  8

$$$$

