47205648
  -OEChem-06241222592D

 37 37  0     0  0  0  0  0  0999 V2000
    2.2788    1.8488    0.0000 O   0  0  0  0  0  0  0  0  0  0  0  0
    6.7500    0.9218    0.0000 O   0  0  0  0  0  0  0  0  0  0  0  0
    6.6306   -2.6818    0.0000 O   0  0  0  0  0  0  0  0  0  0  0  0
    5.0558    0.5616    0.0000 N   0  0  0  0  0  0  0  0  0  0  0  0
    7.1658   -1.0346    0.0000 N   0  0  0  0  0  0  0  0  0  0  0  0
    3.0878    1.2610    0.0000 N   0  0  0  0  0  0  0  0  0  0  0  0
    4.8479    1.5398    0.0000 C   0  0  0  0  0  0  0  0  0  0  0  0
    6.2147   -0.7255    0.0000 C   0  0  0  0  0  0  0  0  0  0  0  0
    6.0068    0.2526    0.0000 C   0  0  0  0  0  0  0  0  0  0  0  0
    8.3248   -2.3217    0.0000 C   0  0  0  0  0  0  0  0  0  0  0  0
    3.8968    1.8488    0.0000 C   0  0  0  0  0  0  0  0  0  0  0  0
    8.5327   -3.2999    0.0000 C   0  0  0  0  0  0  0  0  0  0  0  0
    7.3737   -2.0127    0.0000 C   0  0  0  0  0  0  0  0  0  0  0  0
    4.3126   -0.1075    0.0000 C   0  0  0  0  0  0  0  0  0  0  0  0
    3.5878    2.7999    0.0000 C   0  0  0  0  0  0  0  0  0  0  0  0
    2.5878    2.7999    0.0000 C   0  0  0  0  0  0  0  0  0  0  0  0
    9.4837   -3.6089    0.0000 C   0  0  0  0  0  0  0  0  0  0  0  0
    2.0000    3.6089    0.0000 C   0  0  0  0  0  0  0  0  0  0  0  0
    5.4675    1.5614    0.0000 H   0  0  0  0  0  0  0  0  0  0  0  0
    4.9342    2.1538    0.0000 H   0  0  0  0  0  0  0  0  0  0  0  0
    5.5951   -0.7472    0.0000 H   0  0  0  0  0  0  0  0  0  0  0  0
    6.1284   -1.3395    0.0000 H   0  0  0  0  0  0  0  0  0  0  0  0
    8.9444   -2.3001    0.0000 H   0  0  0  0  0  0  0  0  0  0  0  0
    8.4110   -1.7077    0.0000 H   0  0  0  0  0  0  0  0  0  0  0  0
    7.9130   -3.3215    0.0000 H   0  0  0  0  0  0  0  0  0  0  0  0
    8.4464   -3.9138    0.0000 H   0  0  0  0  0  0  0  0  0  0  0  0
    7.6265   -0.6197    0.0000 H   0  0  0  0  0  0  0  0  0  0  0  0
    3.8978    0.3533    0.0000 H   0  0  0  0  0  0  0  0  0  0  0  0
    3.8519   -0.5224    0.0000 H   0  0  0  0  0  0  0  0  0  0  0  0
    4.7275   -0.5682    0.0000 H   0  0  0  0  0  0  0  0  0  0  0  0
    3.9522    3.3014    0.0000 H   0  0  0  0  0  0  0  0  0  0  0  0
    9.2921   -4.1985    0.0000 H   0  0  0  0  0  0  0  0  0  0  0  0
   10.0734   -3.8005    0.0000 H   0  0  0  0  0  0  0  0  0  0  0  0
    9.6753   -3.0192    0.0000 H   0  0  0  0  0  0  0  0  0  0  0  0
    2.5016    3.9733    0.0000 H   0  0  0  0  0  0  0  0  0  0  0  0
    1.6356    4.1105    0.0000 H   0  0  0  0  0  0  0  0  0  0  0  0
    1.4984    3.2444    0.0000 H   0  0  0  0  0  0  0  0  0  0  0  0
  1  6  1  0  0  0  0
  1 16  1  0  0  0  0
  2  9  2  0  0  0  0
  3 13  2  0  0  0  0
  4  7  1  0  0  0  0
  4  9  1  0  0  0  0
  4 14  1  0  0  0  0
  5  8  1  0  0  0  0
  5 13  1  0  0  0  0
  5 27  1  0  0  0  0
  6 11  2  0  0  0  0
  7 11  1  0  0  0  0
  7 19  1  0  0  0  0
  7 20  1  0  0  0  0
  8  9  1  0  0  0  0
  8 21  1  0  0  0  0
  8 22  1  0  0  0  0
 10 12  1  0  0  0  0
 10 13  1  0  0  0  0
 10 23  1  0  0  0  0
 10 24  1  0  0  0  0
 11 15  1  0  0  0  0
 12 17  1  0  0  0  0
 12 25  1  0  0  0  0
 12 26  1  0  0  0  0
 14 28  1  0  0  0  0
 14 29  1  0  0  0  0
 14 30  1  0  0  0  0
 15 16  2  0  0  0  0
 15 31  1  0  0  0  0
 16 18  1  0  0  0  0
 17 32  1  0  0  0  0
 17 33  1  0  0  0  0
 17 34  1  0  0  0  0
 18 35  1  0  0  0  0
 18 36  1  0  0  0  0
 18 37  1  0  0  0  0
M  END
> <PUBCHEM_COMPOUND_CID>
47205648

> <PUBCHEM_COMPOUND_CANONICALIZED>
1

> <PUBCHEM_CACTVS_COMPLEXITY>
296

> <PUBCHEM_CACTVS_HBOND_ACCEPTOR>
4

> <PUBCHEM_CACTVS_HBOND_DONOR>
1

> <PUBCHEM_CACTVS_ROTATABLE_BOND>
6

> <PUBCHEM_CACTVS_SUBSKEYS>
AAADceBzMAAAAAAAAAAAAAAAAAAAAWAAAAAAAAAAAAAAAAABgAAAHgAUAAAACAzBlgQyhJPQAACpAaVyUgCAAAAkIgAgGKG+bFoAZhoAgbMUEYhmFhiISUI0AAAAAAAAAAAAAAAAAAAAAAAAAAAAAAAAAA==

> <PUBCHEM_IUPAC_OPENEYE_NAME>
N-[2-[methyl-[(5-methylisoxazol-3-yl)methyl]amino]-2-oxo-ethyl]butanamide

> <PUBCHEM_IUPAC_CAS_NAME>
N-[2-[methyl-[(5-methyl-3-isoxazolyl)methyl]amino]-2-oxoethyl]butanamide

> <PUBCHEM_IUPAC_NAME>
N-[2-[methyl-[(5-methyl-1,2-oxazol-3-yl)methyl]amino]-2-oxoethyl]butanamide

> <PUBCHEM_IUPAC_SYSTEMATIC_NAME>
N-[2-[methyl-[(5-methyl-1,2-oxazol-3-yl)methyl]amino]-2-oxidanylidene-ethyl]butanamide

> <PUBCHEM_IUPAC_TRADITIONAL_NAME>
N-[2-keto-2-[methyl-[(5-methylisoxazol-3-yl)methyl]amino]ethyl]butyramide

> <PUBCHEM_IUPAC_INCHI>
InChI=1S/C12H19N3O3/c1-4-5-11(16)13-7-12(17)15(3)8-10-6-9(2)18-14-10/h6H,4-5,7-8H2,1-3H3,(H,13,16)

> <PUBCHEM_IUPAC_INCHIKEY>
AUIVRNSINSISPJ-UHFFFAOYSA-N

> <PUBCHEM_XLOGP3_AA>
0.3

> <PUBCHEM_EXACT_MASS>
253.142641

> <PUBCHEM_MOLECULAR_FORMULA>
C12H19N3O3

> <PUBCHEM_MOLECULAR_WEIGHT>
253.29756

> <PUBCHEM_OPENEYE_CAN_SMILES>
CCCC(=O)NCC(=O)N(C)CC1=NOC(=C1)C

> <PUBCHEM_OPENEYE_ISO_SMILES>
CCCC(=O)NCC(=O)N(C)CC1=NOC(=C1)C

> <PUBCHEM_CACTVS_TPSA>
75.4

> <PUBCHEM_MONOISOTOPIC_WEIGHT>
253.142641

> <PUBCHEM_TOTAL_CHARGE>
0

> <PUBCHEM_HEAVY_ATOM_COUNT>
18

> <PUBCHEM_ATOM_DEF_STEREO_COUNT>
0

> <PUBCHEM_ATOM_UDEF_STEREO_COUNT>
0

> <PUBCHEM_BOND_DEF_STEREO_COUNT>
0

> <PUBCHEM_BOND_UDEF_STEREO_COUNT>
0

> <PUBCHEM_ISOTOPIC_ATOM_COUNT>
0

> <PUBCHEM_COMPONENT_COUNT>
1

> <PUBCHEM_CACTVS_TAUTO_COUNT>
2

> <PUBCHEM_COORDINATE_TYPE>
1
5
255

> <PUBCHEM_BONDANNOTATIONS>
1  16  8
1  6  8
11  15  8
15  16  8
6  11  8

$$$$

