6447
  -OEChem-06261201192D

 80 86  0     1  0  0  0  0  0999 V2000
    3.9782   -0.4223    0.0000 O   0  0  0  0  0  0  0  0  0  0  0  0
    5.0435    1.8067    0.0000 O   0  0  0  0  0  0  0  0  0  0  0  0
    2.3121   -1.8806    0.0000 O   0  0  0  0  0  0  0  0  0  0  0  0
    3.7474    1.6807    0.0000 O   0  0  0  0  0  0  0  0  0  0  0  0
    2.5358    0.0368    0.0000 O   0  0  0  0  0  0  0  0  0  0  0  0
    5.0435    2.8067    0.0000 O   0  0  0  0  0  0  0  0  0  0  0  0
    6.7755    3.8067    0.0000 O   0  0  0  0  0  0  0  0  0  0  0  0
    3.1677   -3.6812    0.0000 O   0  0  0  0  0  0  0  0  0  0  0  0
    9.0254    3.7131    0.0000 O   0  0  0  0  0  0  0  0  0  0  0  0
    9.4416    1.2859    0.0000 N   0  0  3  0  0  0  0  0  0  0  0  0
    5.5776   -0.2682    0.0000 C   0  0  1  0  0  0  0  0  0  0  0  0
    4.9827   -1.1157    0.0000 C   0  0  2  0  0  0  0  0  0  0  0  0
    5.1725    0.6396    0.0000 C   0  0  3  0  0  0  0  0  0  0  0  0
    5.9095    1.3067    0.0000 C   0  0  2  0  0  0  0  0  0  0  0  0
    6.7755    0.8067    0.0000 C   0  0  3  0  0  0  0  0  0  0  0  0
    3.9520   -1.0163    0.0000 C   0  0  3  0  0  0  0  0  0  0  0  0
    6.5663   -0.1651    0.0000 C   0  0  0  0  0  0  0  0  0  0  0  0
    3.3121   -1.8845    0.0000 C   0  0  1  0  0  0  0  0  0  0  0  0
    4.1444    0.7628    0.0000 C   0  0  1  0  0  0  0  0  0  0  0  0
    7.6415    1.3067    0.0000 C   0  0  3  0  0  0  0  0  0  0  0  0
    3.5300   -0.0707    0.0000 C   0  0  2  0  0  0  0  0  0  0  0  0
    5.4449   -2.0902    0.0000 C   0  0  0  0  0  0  0  0  0  0  0  0
    5.9095    2.3067    0.0000 C   0  0  2  0  0  0  0  0  0  0  0  0
    7.6415    2.3067    0.0000 C   0  0  3  0  0  0  0  0  0  0  0  0
    6.7755    2.8067    0.0000 C   0  0  1  0  0  0  0  0  0  0  0  0
    3.7516   -2.8694    0.0000 C   0  0  2  0  0  0  0  0  0  0  0  0
    5.9781   -1.2117    0.0000 C   0  0  0  0  0  0  0  0  0  0  0  0
    4.8252   -2.9730    0.0000 C   0  0  0  0  0  0  0  0  0  0  0  0
    8.5355    2.8414    0.0000 C   0  0  1  0  0  0  0  0  0  0  0  0
    8.5355    0.7720    0.0000 C   0  0  0  0  0  0  0  0  0  0  0  0
    9.4416    2.3275    0.0000 C   0  0  2  0  0  0  0  0  0  0  0  0
   10.3727    2.8844    0.0000 C   0  0  0  0  0  0  0  0  0  0  0  0
    8.0255    3.7016    0.0000 C   0  0  0  0  0  0  0  0  0  0  0  0
   10.3727    0.7290    0.0000 C   0  0  0  0  0  0  0  0  0  0  0  0
   11.3165    1.2642    0.0000 C   0  0  2  0  0  0  0  0  0  0  0  0
   11.3165    2.3492    0.0000 C   0  0  0  0  0  0  0  0  0  0  0  0
   12.1806    0.7609    0.0000 C   0  0  0  0  0  0  0  0  0  0  0  0
    4.9844    1.2304    0.0000 H   0  0  0  0  0  0  0  0  0  0  0  0
    7.2766    0.4416    0.0000 H   0  0  0  0  0  0  0  0  0  0  0  0
    3.3356   -0.9496    0.0000 H   0  0  0  0  0  0  0  0  0  0  0  0
    6.5654   -0.7851    0.0000 H   0  0  0  0  0  0  0  0  0  0  0  0
    7.1828   -0.2312    0.0000 H   0  0  0  0  0  0  0  0  0  0  0  0
    3.5284    0.8330    0.0000 H   0  0  0  0  0  0  0  0  0  0  0  0
    7.6368    0.6867    0.0000 H   0  0  0  0  0  0  0  0  0  0  0  0
    3.1651   -0.5719    0.0000 H   0  0  0  0  0  0  0  0  0  0  0  0
    5.8839   -2.5280    0.0000 H   0  0  0  0  0  0  0  0  0  0  0  0
    5.9513   -1.7326    0.0000 H   0  0  0  0  0  0  0  0  0  0  0  0
    5.9095    2.9267    0.0000 H   0  0  0  0  0  0  0  0  0  0  0  0
    7.6368    2.9267    0.0000 H   0  0  0  0  0  0  0  0  0  0  0  0
    7.3124    3.1167    0.0000 H   0  0  0  0  0  0  0  0  0  0  0  0
    4.0076   -3.4342    0.0000 H   0  0  0  0  0  0  0  0  0  0  0  0
    5.9185   -1.8288    0.0000 H   0  0  0  0  0  0  0  0  0  0  0  0
    6.5952   -1.2712    0.0000 H   0  0  0  0  0  0  0  0  0  0  0  0
    6.0376   -0.5945    0.0000 H   0  0  0  0  0  0  0  0  0  0  0  0
    4.6610   -3.5708    0.0000 H   0  0  0  0  0  0  0  0  0  0  0  0
    5.3861   -3.2371    0.0000 H   0  0  0  0  0  0  0  0  0  0  0  0
    8.1309    0.3023    0.0000 H   0  0  0  0  0  0  0  0  0  0  0  0
    8.9291    0.2930    0.0000 H   0  0  0  0  0  0  0  0  0  0  0  0
    9.4317    3.1775    0.0000 H   0  0  0  0  0  0  0  0  0  0  0  0
    4.5065    1.4967    0.0000 H   0  0  0  0  0  0  0  0  0  0  0  0
    2.0000   -2.4164    0.0000 H   0  0  0  0  0  0  0  0  0  0  0  0
    3.1316    1.7521    0.0000 H   0  0  0  0  0  0  0  0  0  0  0  0
    2.2853    0.6040    0.0000 H   0  0  0  0  0  0  0  0  0  0  0  0
    5.0435    3.4267    0.0000 H   0  0  0  0  0  0  0  0  0  0  0  0
   10.7663    3.3634    0.0000 H   0  0  0  0  0  0  0  0  0  0  0  0
    9.9681    3.3542    0.0000 H   0  0  0  0  0  0  0  0  0  0  0  0
    8.5588    4.0177    0.0000 H   0  0  0  0  0  0  0  0  0  0  0  0
    7.7093    4.2349    0.0000 H   0  0  0  0  0  0  0  0  0  0  0  0
    7.4922    3.3854    0.0000 H   0  0  0  0  0  0  0  0  0  0  0  0
    9.9681    0.2592    0.0000 H   0  0  0  0  0  0  0  0  0  0  0  0
   10.7663    0.2499    0.0000 H   0  0  0  0  0  0  0  0  0  0  0  0
    6.2386    4.1167    0.0000 H   0  0  0  0  0  0  0  0  0  0  0  0
    3.4225   -4.2464    0.0000 H   0  0  0  0  0  0  0  0  0  0  0  0
    8.7093    4.2464    0.0000 H   0  0  0  0  0  0  0  0  0  0  0  0
   11.3129    0.6442    0.0000 H   0  0  0  0  0  0  0  0  0  0  0  0
   11.9274    2.2431    0.0000 H   0  0  0  0  0  0  0  0  0  0  0  0
   11.5255    2.9329    0.0000 H   0  0  0  0  0  0  0  0  0  0  0  0
   11.8685    0.2251    0.0000 H   0  0  0  0  0  0  0  0  0  0  0  0
   12.7163    0.4488    0.0000 H   0  0  0  0  0  0  0  0  0  0  0  0
   12.4927    1.2966    0.0000 H   0  0  0  0  0  0  0  0  0  0  0  0
  1 11  1  0  0  0  0
  1 18  1  0  0  0  0
 14  2  1  1  0  0  0
  2 60  1  0  0  0  0
 18  3  1  6  0  0  0
  3 61  1  0  0  0  0
  4 19  1  0  0  0  0
  4 62  1  0  0  0  0
  5 21  1  0  0  0  0
  5 63  1  0  0  0  0
 23  6  1  1  0  0  0
  6 64  1  0  0  0  0
  7 25  1  0  0  0  0
  7 72  1  0  0  0  0
 26  8  1  6  0  0  0
  8 73  1  0  0  0  0
 29  9  1  6  0  0  0
  9 74  1  0  0  0  0
 10 30  1  0  0  0  0
 10 31  1  0  0  0  0
 10 34  1  0  0  0  0
 11 12  1  0  0  0  0
 11 13  1  0  0  0  0
 11 17  1  1  0  0  0
 12 16  1  0  0  0  0
 12 22  1  0  0  0  0
 12 27  1  6  0  0  0
 13 14  1  0  0  0  0
 13 19  1  0  0  0  0
 13 38  1  0  0  0  0
 14 15  1  0  0  0  0
 14 23  1  0  0  0  0
 15 17  1  0  0  0  0
 15 20  1  0  0  0  0
 15 39  1  0  0  0  0
 16 18  1  0  0  0  0
 16 21  1  0  0  0  0
 16 40  1  0  0  0  0
 17 41  1  0  0  0  0
 17 42  1  0  0  0  0
 18 26  1  0  0  0  0
 19 21  1  0  0  0  0
 19 43  1  0  0  0  0
 20 24  1  0  0  0  0
 20 30  1  0  0  0  0
 20 44  1  0  0  0  0
 21 45  1  0  0  0  0
 22 28  1  0  0  0  0
 22 46  1  0  0  0  0
 22 47  1  0  0  0  0
 23 25  1  0  0  0  0
 23 48  1  0  0  0  0
 24 25  1  0  0  0  0
 24 29  1  0  0  0  0
 24 49  1  0  0  0  0
 25 50  1  0  0  0  0
 26 28  1  0  0  0  0
 26 51  1  0  0  0  0
 27 52  1  0  0  0  0
 27 53  1  0  0  0  0
 27 54  1  0  0  0  0
 28 55  1  0  0  0  0
 28 56  1  0  0  0  0
 29 31  1  0  0  0  0
 29 33  1  0  0  0  0
 30 57  1  0  0  0  0
 30 58  1  0  0  0  0
 31 32  1  0  0  0  0
 31 59  1  1  0  0  0
 32 36  1  0  0  0  0
 32 65  1  0  0  0  0
 32 66  1  0  0  0  0
 33 67  1  0  0  0  0
 33 68  1  0  0  0  0
 33 69  1  0  0  0  0
 34 35  1  0  0  0  0
 34 70  1  0  0  0  0
 34 71  1  0  0  0  0
 35 36  1  0  0  0  0
 35 37  1  6  0  0  0
 35 75  1  0  0  0  0
 36 76  1  0  0  0  0
 36 77  1  0  0  0  0
 37 78  1  0  0  0  0
 37 79  1  0  0  0  0
 37 80  1  0  0  0  0
M  END
> <PUBCHEM_COMPOUND_CID>
6447

> <PUBCHEM_COMPOUND_CANONICALIZED>
1

> <PUBCHEM_CACTVS_COMPLEXITY>
1000

> <PUBCHEM_CACTVS_HBOND_ACCEPTOR>
10

> <PUBCHEM_CACTVS_HBOND_DONOR>
8

> <PUBCHEM_CACTVS_ROTATABLE_BOND>
0

> <PUBCHEM_CACTVS_SUBSKEYS>
AAADcfB6PAAAAAAAAAAAAAAAAAAAAaIAAAA8eMECBIkAAGCwAAAAHgAACAAAD3zhgAYCCAMABgAAAAAAAAAAAAAAAAAAAAAIAAATEAIAgAAGQAAFAACXAAHw8P8PgAAAAAAAAADCAAYQADCAAYQADAAAAA==

> <PUBCHEM_IUPAC_INCHI>
InChI=1S/C27H43NO9/c1-11-4-5-14-24(3,34)16-12(10-28(14)9-11)13-8-25-21(26(13,35)22(33)17(16)30)19(32)18(31)20-23(25,2)7-6-15(29)27(20,36)37-25/h11-22,29-36H,4-10H2,1-3H3/t11-,12?,13?,14-,15-,16?,17+,18-,19+,20?,21?,22-,23-,24+,25+,26-,27+/m0/s1

> <PUBCHEM_IUPAC_INCHIKEY>
CKJAABZFXLMMCS-YMSZYTFPSA-N

> <PUBCHEM_XLOGP3_AA>
-2

> <PUBCHEM_EXACT_MASS>
525.293782

> <PUBCHEM_MOLECULAR_FORMULA>
C27H43NO9

> <PUBCHEM_MOLECULAR_WEIGHT>
525.63162

> <PUBCHEM_OPENEYE_CAN_SMILES>
CC1CCC2C(C3C(CN2C1)C4CC56C(C4(C(C3O)O)O)C(C(C7C5(CCC(C7(O6)O)O)C)O)O)(C)O

> <PUBCHEM_OPENEYE_ISO_SMILES>
C[C@H]1CC[C@H]2[C@@](C3[C@H]([C@@H]([C@@]4(C(C3CN2C1)C[C@@]56C4[C@@H]([C@@H](C7[C@@]5(CC[C@@H]([C@]7(O6)O)O)C)O)O)O)O)O)(C)O

> <PUBCHEM_CACTVS_TPSA>
174

> <PUBCHEM_MONOISOTOPIC_WEIGHT>
525.293782

> <PUBCHEM_TOTAL_CHARGE>
0

> <PUBCHEM_HEAVY_ATOM_COUNT>
37

> <PUBCHEM_ATOM_DEF_STEREO_COUNT>
12

> <PUBCHEM_ATOM_UDEF_STEREO_COUNT>
5

> <PUBCHEM_BOND_DEF_STEREO_COUNT>
0

> <PUBCHEM_BOND_UDEF_STEREO_COUNT>
0

> <PUBCHEM_ISOTOPIC_ATOM_COUNT>
0

> <PUBCHEM_COMPONENT_COUNT>
1

> <PUBCHEM_CACTVS_TAUTO_COUNT>
1

> <PUBCHEM_COORDINATE_TYPE>
1
5
255

> <PUBCHEM_BONDANNOTATIONS>
11  17  5
12  27  6
13  19  3
15  17  3
16  21  3
14  2  5
20  30  3
24  25  3
18  3  6
31  59  5
35  37  6
23  6  5
26  8  6
29  9  6

$$$$

