9175
  -OEChem-06261203282D

 38 42  0     1  0  0  0  0  0999 V2000
    5.6750    2.0631    0.0000 C   0  0  3  0  0  0  0  0  0  0  0  0
    5.6750    1.0631    0.0000 C   0  0  0  0  0  0  0  0  0  0  0  0
    6.5410    2.5631    0.0000 C   0  0  0  0  0  0  0  0  0  0  0  0
    6.5410    0.5631    0.0000 C   0  0  0  0  0  0  0  0  0  0  0  0
    7.4070    1.0631    0.0000 C   0  0  0  0  0  0  0  0  0  0  0  0
    4.7810    2.5977    0.0000 C   0  0  0  0  0  0  0  0  0  0  0  0
    7.4070    2.0631    0.0000 C   0  0  0  0  0  0  0  0  0  0  0  0
    4.7810    0.5284    0.0000 C   0  0  0  0  0  0  0  0  0  0  0  0
    3.8749    2.0839    0.0000 C   0  0  0  0  0  0  0  0  0  0  0  0
    3.8749    1.0422    0.0000 C   0  0  0  0  0  0  0  0  0  0  0  0
    6.5249   -0.4784    0.0000 C   0  0  0  0  0  0  0  0  0  0  0  0
    8.3170    0.5562    0.0000 C   0  0  0  0  0  0  0  0  0  0  0  0
    7.4230   -1.0062    0.0000 C   0  0  0  0  0  0  0  0  0  0  0  0
    8.3250   -0.4854    0.0000 C   0  0  0  0  0  0  0  0  0  0  0  0
    2.9438    2.6408    0.0000 C   0  0  0  0  0  0  0  0  0  0  0  0
    2.9438    0.4853    0.0000 C   0  0  0  0  0  0  0  0  0  0  0  0
    7.4062   -2.0911    0.0000 C   0  0  0  0  0  0  0  0  0  0  0  0
    9.2729   -1.0133    0.0000 C   0  0  0  0  0  0  0  0  0  0  0  0
    2.0000    2.1056    0.0000 C   0  0  0  0  0  0  0  0  0  0  0  0
    2.0000    1.0206    0.0000 C   0  0  0  0  0  0  0  0  0  0  0  0
    8.3417   -2.6408    0.0000 C   0  0  0  0  0  0  0  0  0  0  0  0
    9.2813   -2.0983    0.0000 C   0  0  0  0  0  0  0  0  0  0  0  0
    5.6797    2.6830    0.0000 H   0  0  0  0  0  0  0  0  0  0  0  0
    6.9395    3.0380    0.0000 H   0  0  0  0  0  0  0  0  0  0  0  0
    6.1425    3.0380    0.0000 H   0  0  0  0  0  0  0  0  0  0  0  0
    4.7882    3.2177    0.0000 H   0  0  0  0  0  0  0  0  0  0  0  0
    7.9439    2.3731    0.0000 H   0  0  0  0  0  0  0  0  0  0  0  0
    4.7882   -0.0916    0.0000 H   0  0  0  0  0  0  0  0  0  0  0  0
    5.9844   -0.7822    0.0000 H   0  0  0  0  0  0  0  0  0  0  0  0
    8.8503    0.8724    0.0000 H   0  0  0  0  0  0  0  0  0  0  0  0
    2.9510    3.2608    0.0000 H   0  0  0  0  0  0  0  0  0  0  0  0
    2.9510   -0.1346    0.0000 H   0  0  0  0  0  0  0  0  0  0  0  0
    6.8657   -2.3948    0.0000 H   0  0  0  0  0  0  0  0  0  0  0  0
    9.8062   -0.6971    0.0000 H   0  0  0  0  0  0  0  0  0  0  0  0
    1.4643    2.4176    0.0000 H   0  0  0  0  0  0  0  0  0  0  0  0
    1.4643    0.7085    0.0000 H   0  0  0  0  0  0  0  0  0  0  0  0
    8.3393   -3.2608    0.0000 H   0  0  0  0  0  0  0  0  0  0  0  0
    9.8194   -2.4062    0.0000 H   0  0  0  0  0  0  0  0  0  0  0  0
  1  2  1  0  0  0  0
  1  3  1  0  0  0  0
  1  6  1  0  0  0  0
  1 23  1  0  0  0  0
  2  4  2  0  0  0  0
  2  8  1  0  0  0  0
  3  7  1  0  0  0  0
  3 24  1  0  0  0  0
  3 25  1  0  0  0  0
  4  5  1  0  0  0  0
  4 11  1  0  0  0  0
  5  7  2  0  0  0  0
  5 12  1  0  0  0  0
  6  9  2  0  0  0  0
  6 26  1  0  0  0  0
  7 27  1  0  0  0  0
  8 10  2  0  0  0  0
  8 28  1  0  0  0  0
  9 10  1  0  0  0  0
  9 15  1  0  0  0  0
 10 16  1  0  0  0  0
 11 13  2  0  0  0  0
 11 29  1  0  0  0  0
 12 14  2  0  0  0  0
 12 30  1  0  0  0  0
 13 14  1  0  0  0  0
 13 17  1  0  0  0  0
 14 18  1  0  0  0  0
 15 19  2  0  0  0  0
 15 31  1  0  0  0  0
 16 20  2  0  0  0  0
 16 32  1  0  0  0  0
 17 21  2  0  0  0  0
 17 33  1  0  0  0  0
 18 22  2  0  0  0  0
 18 34  1  0  0  0  0
 19 20  1  0  0  0  0
 19 35  1  0  0  0  0
 20 36  1  0  0  0  0
 21 22  1  0  0  0  0
 21 37  1  0  0  0  0
 22 38  1  0  0  0  0
M  END
> <PUBCHEM_COMPOUND_CID>
9175

> <PUBCHEM_COMPOUND_CANONICALIZED>
1

> <PUBCHEM_CACTVS_COMPLEXITY>
880

> <PUBCHEM_CACTVS_HBOND_ACCEPTOR>
0

> <PUBCHEM_CACTVS_HBOND_DONOR>
0

> <PUBCHEM_CACTVS_ROTATABLE_BOND>
0

> <PUBCHEM_CACTVS_SUBSKEYS>
AAADceB4AAAAAAAAAAAAAAAAAAAAAAAAAAAgQIECAAAAAACAAAAAGAAAAAAADQCAAAAAAAAAAACAAiBCAAAAAAAgAAAICAAAAAgIAAIAAQAAAAAAgAAIgAIAAAAKAAAAAAAAAAAAAAAAAAAAAAAAAAAAAA==

> <PUBCHEM_IUPAC_OPENEYE_NAME>
5a,6-dihydropentaphene

> <PUBCHEM_IUPAC_CAS_NAME>
5a,6-dihydropentaphene

> <PUBCHEM_IUPAC_NAME>
5a,6-dihydropentaphene

> <PUBCHEM_IUPAC_SYSTEMATIC_NAME>
5a,6-dihydropentaphene

> <PUBCHEM_IUPAC_TRADITIONAL_NAME>
5a,6-dihydropentaphene

> <PUBCHEM_IUPAC_INCHI>
InChI=1S/C22H16/c1-3-7-17-13-21-19(11-15(17)5-1)9-10-20-12-16-6-2-4-8-18(16)14-22(20)21/h1-9,11-14,20H,10H2

> <PUBCHEM_IUPAC_INCHIKEY>
ZMYWPBUDYOQXFK-UHFFFAOYSA-N

> <PUBCHEM_XLOGP3_AA>
4

> <PUBCHEM_EXACT_MASS>
280.125201

> <PUBCHEM_MOLECULAR_FORMULA>
C22H16

> <PUBCHEM_MOLECULAR_WEIGHT>
280.36244

> <PUBCHEM_OPENEYE_CAN_SMILES>
C1C=C2C=C3C=CC=CC3=CC2=C4C1C=C5C=CC=CC5=C4

> <PUBCHEM_OPENEYE_ISO_SMILES>
C1C=C2C=C3C=CC=CC3=CC2=C4C1C=C5C=CC=CC5=C4

> <PUBCHEM_CACTVS_TPSA>
0

> <PUBCHEM_MONOISOTOPIC_WEIGHT>
280.125201

> <PUBCHEM_TOTAL_CHARGE>
0

> <PUBCHEM_HEAVY_ATOM_COUNT>
22

> <PUBCHEM_ATOM_DEF_STEREO_COUNT>
0

> <PUBCHEM_ATOM_UDEF_STEREO_COUNT>
1

> <PUBCHEM_BOND_DEF_STEREO_COUNT>
0

> <PUBCHEM_BOND_UDEF_STEREO_COUNT>
0

> <PUBCHEM_ISOTOPIC_ATOM_COUNT>
0

> <PUBCHEM_COMPONENT_COUNT>
1

> <PUBCHEM_CACTVS_TAUTO_COUNT>
1

> <PUBCHEM_COORDINATE_TYPE>
1
5
255

> <PUBCHEM_BONDANNOTATIONS>
1  23  3
10  16  8
11  13  8
12  14  8
13  14  8
13  17  8
14  18  8
15  19  8
16  20  8
17  21  8
18  22  8
19  20  8
21  22  8
4  11  8
4  5  8
5  12  8
9  10  8
9  15  8

$$$$

