586343
  -OEChem-06241222462D

 50 51  0     0  0  0  0  0  0999 V2000
    5.4641   -1.5600    0.0000 O   0  0  0  0  0  0  0  0  0  0  0  0
    8.0622    1.9400    0.0000 O   0  0  0  0  0  0  0  0  0  0  0  0
    5.4641    3.4400    0.0000 O   0  0  0  0  0  0  0  0  0  0  0  0
    9.7942    4.9400    0.0000 O   0  0  0  0  0  0  0  0  0  0  0  0
    3.7320   -1.5600    0.0000 N   0  0  0  0  0  0  0  0  0  0  0  0
    5.4641    1.4400    0.0000 N   0  0  0  0  0  0  0  0  0  0  0  0
    6.3301    1.9400    0.0000 N   0  0  0  0  0  0  0  0  0  0  0  0
    3.7320   -2.5600    0.0000 C   0  0  0  0  0  0  0  0  0  0  0  0
    2.8660   -3.0600    0.0000 C   0  0  0  0  0  0  0  0  0  0  0  0
    4.5981   -3.0600    0.0000 C   0  0  0  0  0  0  0  0  0  0  0  0
    3.7320   -4.5600    0.0000 C   0  0  0  0  0  0  0  0  0  0  0  0
    2.8660   -4.0600    0.0000 C   0  0  0  0  0  0  0  0  0  0  0  0
    4.5981   -4.0600    0.0000 C   0  0  0  0  0  0  0  0  0  0  0  0
    2.0000   -2.5600    0.0000 C   0  0  0  0  0  0  0  0  0  0  0  0
    5.4641   -2.5600    0.0000 C   0  0  0  0  0  0  0  0  0  0  0  0
    4.5981   -1.0600    0.0000 C   0  0  0  0  0  0  0  0  0  0  0  0
    4.5981   -0.0600    0.0000 C   0  0  0  0  0  0  0  0  0  0  0  0
    3.7320   -5.5600    0.0000 C   0  0  0  0  0  0  0  0  0  0  0  0
    5.4641    0.4400    0.0000 C   0  0  0  0  0  0  0  0  0  0  0  0
    6.3301   -0.0600    0.0000 C   0  0  0  0  0  0  0  0  0  0  0  0
    7.1962    3.4400    0.0000 C   0  0  0  0  0  0  0  0  0  0  0  0
    6.3301    2.9400    0.0000 C   0  0  0  0  0  0  0  0  0  0  0  0
    8.0622    2.9400    0.0000 C   0  0  0  0  0  0  0  0  0  0  0  0
    7.1962    4.4400    0.0000 C   0  0  0  0  0  0  0  0  0  0  0  0
    8.9282    3.4400    0.0000 C   0  0  0  0  0  0  0  0  0  0  0  0
    8.0622    4.9400    0.0000 C   0  0  0  0  0  0  0  0  0  0  0  0
    8.9282    4.4400    0.0000 C   0  0  0  0  0  0  0  0  0  0  0  0
    2.3291   -4.3700    0.0000 H   0  0  0  0  0  0  0  0  0  0  0  0
    5.1350   -4.3700    0.0000 H   0  0  0  0  0  0  0  0  0  0  0  0
    3.1951   -1.2500    0.0000 H   0  0  0  0  0  0  0  0  0  0  0  0
    2.3100   -2.0231    0.0000 H   0  0  0  0  0  0  0  0  0  0  0  0
    1.4631   -2.2500    0.0000 H   0  0  0  0  0  0  0  0  0  0  0  0
    1.6900   -3.0969    0.0000 H   0  0  0  0  0  0  0  0  0  0  0  0
    5.7741   -3.0969    0.0000 H   0  0  0  0  0  0  0  0  0  0  0  0
    6.0010   -2.2500    0.0000 H   0  0  0  0  0  0  0  0  0  0  0  0
    5.1541   -2.0231    0.0000 H   0  0  0  0  0  0  0  0  0  0  0  0
    4.3860    0.5226    0.0000 H   0  0  0  0  0  0  0  0  0  0  0  0
    3.9875   -0.1677    0.0000 H   0  0  0  0  0  0  0  0  0  0  0  0
    3.1120   -5.5600    0.0000 H   0  0  0  0  0  0  0  0  0  0  0  0
    3.7320   -6.1800    0.0000 H   0  0  0  0  0  0  0  0  0  0  0  0
    4.3520   -5.5600    0.0000 H   0  0  0  0  0  0  0  0  0  0  0  0
    6.0201   -0.5969    0.0000 H   0  0  0  0  0  0  0  0  0  0  0  0
    6.8671   -0.3700    0.0000 H   0  0  0  0  0  0  0  0  0  0  0  0
    6.6401    0.4769    0.0000 H   0  0  0  0  0  0  0  0  0  0  0  0
    6.8671    1.6300    0.0000 H   0  0  0  0  0  0  0  0  0  0  0  0
    6.6592    4.7500    0.0000 H   0  0  0  0  0  0  0  0  0  0  0  0
    9.4651    3.1300    0.0000 H   0  0  0  0  0  0  0  0  0  0  0  0
    8.0622    5.5600    0.0000 H   0  0  0  0  0  0  0  0  0  0  0  0
    8.5991    1.6300    0.0000 H   0  0  0  0  0  0  0  0  0  0  0  0
    9.7942    5.5600    0.0000 H   0  0  0  0  0  0  0  0  0  0  0  0
  1 16  2  0  0  0  0
  2 23  1  0  0  0  0
  2 49  1  0  0  0  0
  3 22  2  0  0  0  0
  4 27  1  0  0  0  0
  4 50  1  0  0  0  0
  5  8  1  0  0  0  0
  5 16  1  0  0  0  0
  5 30  1  0  0  0  0
  6  7  1  0  0  0  0
  6 19  2  3  0  0  0
  7 22  1  0  0  0  0
  7 45  1  0  0  0  0
  8  9  2  0  0  0  0
  8 10  1  0  0  0  0
  9 12  1  0  0  0  0
  9 14  1  0  0  0  0
 10 13  2  0  0  0  0
 10 15  1  0  0  0  0
 11 12  2  0  0  0  0
 11 13  1  0  0  0  0
 11 18  1  0  0  0  0
 12 28  1  0  0  0  0
 13 29  1  0  0  0  0
 14 31  1  0  0  0  0
 14 32  1  0  0  0  0
 14 33  1  0  0  0  0
 15 34  1  0  0  0  0
 15 35  1  0  0  0  0
 15 36  1  0  0  0  0
 16 17  1  0  0  0  0
 17 19  1  0  0  0  0
 17 37  1  0  0  0  0
 17 38  1  0  0  0  0
 18 39  1  0  0  0  0
 18 40  1  0  0  0  0
 18 41  1  0  0  0  0
 19 20  1  0  0  0  0
 20 42  1  0  0  0  0
 20 43  1  0  0  0  0
 20 44  1  0  0  0  0
 21 22  1  0  0  0  0
 21 23  2  0  0  0  0
 21 24  1  0  0  0  0
 23 25  1  0  0  0  0
 24 26  2  0  0  0  0
 24 46  1  0  0  0  0
 25 27  2  0  0  0  0
 25 47  1  0  0  0  0
 26 27  1  0  0  0  0
 26 48  1  0  0  0  0
M  END
> <PUBCHEM_COMPOUND_CID>
586343

> <PUBCHEM_COMPOUND_CANONICALIZED>
1

> <PUBCHEM_CACTVS_COMPLEXITY>
553

> <PUBCHEM_CACTVS_HBOND_ACCEPTOR>
5

> <PUBCHEM_CACTVS_HBOND_DONOR>
4

> <PUBCHEM_CACTVS_ROTATABLE_BOND>
5

> <PUBCHEM_CACTVS_SUBSKEYS>
AAADceB7OAAAAAAAAAAAAAAAAAAAAAAAAAAwYAAAAAAAAAABQAAAHgAYCAAADAyBmAAyxoLiAgCoAyVyUACSAAAlIAAaiAE2TMgIJzbClZOEcUhn/BXI2YeY/GTOKAACCAAKAABQAAQQABQAAAAAAAAAAA==

> <PUBCHEM_IUPAC_OPENEYE_NAME>
2,4-dihydroxy-N-[[1-methyl-3-oxo-3-(2,4,6-trimethylanilino)propylidene]amino]benzamide

> <PUBCHEM_IUPAC_CAS_NAME>
2,4-dihydroxy-N-[[4-oxo-4-(2,4,6-trimethylanilino)butan-2-ylidene]amino]benzamide

> <PUBCHEM_IUPAC_NAME>
2,4-dihydroxy-N-[[4-oxo-4-(2,4,6-trimethylanilino)butan-2-ylidene]amino]benzamide

> <PUBCHEM_IUPAC_SYSTEMATIC_NAME>
2,4-bis(oxidanyl)-N-[[4-oxidanylidene-4-[(2,4,6-trimethylphenyl)amino]butan-2-ylidene]amino]benzamide

> <PUBCHEM_IUPAC_TRADITIONAL_NAME>
2,4-dihydroxy-N-[(3-keto-3-mesidino-1-methyl-propylidene)amino]benzamide

> <PUBCHEM_IUPAC_INCHI>
InChI=1S/C20H23N3O4/c1-11-7-12(2)19(13(3)8-11)21-18(26)9-14(4)22-23-20(27)16-6-5-15(24)10-17(16)25/h5-8,10,24-25H,9H2,1-4H3,(H,21,26)(H,23,27)

> <PUBCHEM_IUPAC_INCHIKEY>
RJBQDYYYNUGFRI-UHFFFAOYSA-N

> <PUBCHEM_XLOGP3_AA>
3.3

> <PUBCHEM_EXACT_MASS>
369.168856

> <PUBCHEM_MOLECULAR_FORMULA>
C20H23N3O4

> <PUBCHEM_MOLECULAR_WEIGHT>
369.41432

> <PUBCHEM_OPENEYE_CAN_SMILES>
CC1=CC(=C(C(=C1)C)NC(=O)CC(=NNC(=O)C2=C(C=C(C=C2)O)O)C)C

> <PUBCHEM_OPENEYE_ISO_SMILES>
CC1=CC(=C(C(=C1)C)NC(=O)CC(=NNC(=O)C2=C(C=C(C=C2)O)O)C)C

> <PUBCHEM_CACTVS_TPSA>
111

> <PUBCHEM_MONOISOTOPIC_WEIGHT>
369.168856

> <PUBCHEM_TOTAL_CHARGE>
0

> <PUBCHEM_HEAVY_ATOM_COUNT>
27

> <PUBCHEM_ATOM_DEF_STEREO_COUNT>
0

> <PUBCHEM_ATOM_UDEF_STEREO_COUNT>
0

> <PUBCHEM_BOND_DEF_STEREO_COUNT>
0

> <PUBCHEM_BOND_UDEF_STEREO_COUNT>
1

> <PUBCHEM_ISOTOPIC_ATOM_COUNT>
0

> <PUBCHEM_COMPONENT_COUNT>
1

> <PUBCHEM_CACTVS_TAUTO_COUNT>
105

> <PUBCHEM_COORDINATE_TYPE>
1
5
255

> <PUBCHEM_BONDANNOTATIONS>
10  13  8
11  12  8
11  13  8
21  23  8
21  24  8
23  25  8
24  26  8
25  27  8
26  27  8
6  19  1
8  10  8
8  9  8
9  12  8

$$$$

