47205036
  -OEChem-06241222572D

 33 34  0     1  0  0  0  0  0999 V2000
    2.0000   -1.4547    0.0000 Cl  0  0  0  0  0  0  0  0  0  0  0  0
    3.7320   -4.4547    0.0000 Cl  0  0  0  0  0  0  0  0  0  0  0  0
    3.7320   -0.4547    0.0000 O   0  0  0  0  0  0  0  0  0  0  0  0
    3.7320    1.5453    0.0000 O   0  0  0  0  0  0  0  0  0  0  0  0
    5.4641    1.5453    0.0000 N   0  0  0  0  0  0  0  0  0  0  0  0
    6.4347    4.0398    0.0000 N   0  0  0  0  0  0  0  0  0  0  0  0
    7.4128    4.2477    0.0000 N   0  0  0  0  0  0  0  0  0  0  0  0
    4.5981    0.0453    0.0000 C   0  0  3  0  0  0  0  0  0  0  0  0
    5.4641    2.5453    0.0000 C   0  0  0  0  0  0  0  0  0  0  0  0
    4.5981    1.0453    0.0000 C   0  0  0  0  0  0  0  0  0  0  0  0
    6.3301    3.0453    0.0000 C   0  0  0  0  0  0  0  0  0  0  0  0
    5.4641   -0.4547    0.0000 C   0  0  0  0  0  0  0  0  0  0  0  0
    3.7320   -1.4547    0.0000 C   0  0  0  0  0  0  0  0  0  0  0  0
    7.2437    2.6386    0.0000 C   0  0  0  0  0  0  0  0  0  0  0  0
    2.8660   -1.9547    0.0000 C   0  0  0  0  0  0  0  0  0  0  0  0
    4.5981   -1.9547    0.0000 C   0  0  0  0  0  0  0  0  0  0  0  0
    7.9128    3.3817    0.0000 C   0  0  0  0  0  0  0  0  0  0  0  0
    2.8660   -2.9547    0.0000 C   0  0  0  0  0  0  0  0  0  0  0  0
    4.5981   -2.9547    0.0000 C   0  0  0  0  0  0  0  0  0  0  0  0
    3.7320   -3.4547    0.0000 C   0  0  0  0  0  0  0  0  0  0  0  0
    4.5981   -0.5747    0.0000 H   0  0  0  0  0  0  0  0  0  0  0  0
    5.2520    3.1279    0.0000 H   0  0  0  0  0  0  0  0  0  0  0  0
    4.8535    2.4376    0.0000 H   0  0  0  0  0  0  0  0  0  0  0  0
    6.0010    1.2353    0.0000 H   0  0  0  0  0  0  0  0  0  0  0  0
    5.1541   -0.9916    0.0000 H   0  0  0  0  0  0  0  0  0  0  0  0
    6.0010   -0.7647    0.0000 H   0  0  0  0  0  0  0  0  0  0  0  0
    5.7741    0.0822    0.0000 H   0  0  0  0  0  0  0  0  0  0  0  0
    7.3726    2.0321    0.0000 H   0  0  0  0  0  0  0  0  0  0  0  0
    5.9739    4.4547    0.0000 H   0  0  0  0  0  0  0  0  0  0  0  0
    5.1350   -1.6447    0.0000 H   0  0  0  0  0  0  0  0  0  0  0  0
    8.5294    3.3169    0.0000 H   0  0  0  0  0  0  0  0  0  0  0  0
    2.3291   -3.2647    0.0000 H   0  0  0  0  0  0  0  0  0  0  0  0
    5.1350   -3.2647    0.0000 H   0  0  0  0  0  0  0  0  0  0  0  0
  1 15  1  0  0  0  0
  2 20  1  0  0  0  0
  3  8  1  0  0  0  0
  3 13  1  0  0  0  0
  4 10  2  0  0  0  0
  5  9  1  0  0  0  0
  5 10  1  0  0  0  0
  5 24  1  0  0  0  0
  6  7  1  0  0  0  0
  6 11  1  0  0  0  0
  6 29  1  0  0  0  0
  7 17  2  0  0  0  0
  8 10  1  0  0  0  0
  8 12  1  0  0  0  0
  8 21  1  0  0  0  0
  9 11  1  0  0  0  0
  9 22  1  0  0  0  0
  9 23  1  0  0  0  0
 11 14  2  0  0  0  0
 12 25  1  0  0  0  0
 12 26  1  0  0  0  0
 12 27  1  0  0  0  0
 13 15  2  0  0  0  0
 13 16  1  0  0  0  0
 14 17  1  0  0  0  0
 14 28  1  0  0  0  0
 15 18  1  0  0  0  0
 16 19  2  0  0  0  0
 16 30  1  0  0  0  0
 17 31  1  0  0  0  0
 18 20  2  0  0  0  0
 18 32  1  0  0  0  0
 19 20  1  0  0  0  0
 19 33  1  0  0  0  0
M  END
> <PUBCHEM_COMPOUND_CID>
47205036

> <PUBCHEM_COMPOUND_CANONICALIZED>
1

> <PUBCHEM_CACTVS_COMPLEXITY>
333

> <PUBCHEM_CACTVS_HBOND_ACCEPTOR>
3

> <PUBCHEM_CACTVS_HBOND_DONOR>
2

> <PUBCHEM_CACTVS_ROTATABLE_BOND>
5

> <PUBCHEM_CACTVS_SUBSKEYS>
AAADccBzMAAGAAAAAAAAAAAAAAAAAWAAAAAwAAAAAAAAAAABwAAAHgIYAAAACB7hliY+hpLjBACqATV3UAKSDAAgp0AYuaF+b5gOZqOF89+XvCjk3hGY6AeAQAAAACAAAACACAAAQAAAAQAQAAAAAAAAAA==

> <PUBCHEM_IUPAC_OPENEYE_NAME>
2-(2,4-dichlorophenoxy)-N-(1H-pyrazol-5-ylmethyl)propanamide

> <PUBCHEM_IUPAC_CAS_NAME>
2-(2,4-dichlorophenoxy)-N-(1H-pyrazol-5-ylmethyl)propanamide

> <PUBCHEM_IUPAC_NAME>
2-(2,4-dichlorophenoxy)-N-(1H-pyrazol-5-ylmethyl)propanamide

> <PUBCHEM_IUPAC_SYSTEMATIC_NAME>
2-[2,4-bis(chloranyl)phenoxy]-N-(1H-pyrazol-5-ylmethyl)propanamide

> <PUBCHEM_IUPAC_TRADITIONAL_NAME>
2-(2,4-dichlorophenoxy)-N-(1H-pyrazol-5-ylmethyl)propionamide

> <PUBCHEM_IUPAC_INCHI>
InChI=1S/C13H13Cl2N3O2/c1-8(13(19)16-7-10-4-5-17-18-10)20-12-3-2-9(14)6-11(12)15/h2-6,8H,7H2,1H3,(H,16,19)(H,17,18)

> <PUBCHEM_IUPAC_INCHIKEY>
QMYTZLZWWRPOAR-UHFFFAOYSA-N

> <PUBCHEM_XLOGP3_AA>
2.7

> <PUBCHEM_EXACT_MASS>
313.038482

> <PUBCHEM_MOLECULAR_FORMULA>
C13H13Cl2N3O2

> <PUBCHEM_MOLECULAR_WEIGHT>
314.16722

> <PUBCHEM_OPENEYE_CAN_SMILES>
CC(C(=O)NCC1=CC=NN1)OC2=C(C=C(C=C2)Cl)Cl

> <PUBCHEM_OPENEYE_ISO_SMILES>
CC(C(=O)NCC1=CC=NN1)OC2=C(C=C(C=C2)Cl)Cl

> <PUBCHEM_CACTVS_TPSA>
67

> <PUBCHEM_MONOISOTOPIC_WEIGHT>
313.038482

> <PUBCHEM_TOTAL_CHARGE>
0

> <PUBCHEM_HEAVY_ATOM_COUNT>
20

> <PUBCHEM_ATOM_DEF_STEREO_COUNT>
0

> <PUBCHEM_ATOM_UDEF_STEREO_COUNT>
1

> <PUBCHEM_BOND_DEF_STEREO_COUNT>
0

> <PUBCHEM_BOND_UDEF_STEREO_COUNT>
0

> <PUBCHEM_ISOTOPIC_ATOM_COUNT>
0

> <PUBCHEM_COMPONENT_COUNT>
1

> <PUBCHEM_CACTVS_TAUTO_COUNT>
4

> <PUBCHEM_COORDINATE_TYPE>
1
5
255

> <PUBCHEM_BONDANNOTATIONS>
11  14  8
13  15  8
13  16  8
14  17  8
15  18  8
16  19  8
18  20  8
19  20  8
6  11  8
6  7  8
7  17  8
8  12  3

$$$$

