12169
  -OEChem-06261206372D

 17 17  0     0  0  0  0  0  0999 V2000
    2.8090    0.4313    0.0000 O   0  0  0  0  0  0  0  0  0  0  0  0
    6.4712    0.0920    0.0000 O   0  0  0  0  0  0  0  0  0  0  0  0
    5.9360   -1.5553    0.0000 N   0  0  0  0  0  0  0  0  0  0  0  0
    3.6180    1.0191    0.0000 C   0  0  0  0  0  0  0  0  0  0  0  0
    3.3090    1.9701    0.0000 C   0  0  0  0  0  0  0  0  0  0  0  0
    4.5691    0.7100    0.0000 C   0  0  0  0  0  0  0  0  0  0  0  0
    2.3090    1.9701    0.0000 C   0  0  0  0  0  0  0  0  0  0  0  0
    2.0000    1.0191    0.0000 C   0  0  0  0  0  0  0  0  0  0  0  0
    4.7770   -0.2681    0.0000 C   0  0  0  0  0  0  0  0  0  0  0  0
    5.7281   -0.5771    0.0000 C   0  0  0  0  0  0  0  0  0  0  0  0
    3.6734    2.4717    0.0000 H   0  0  0  0  0  0  0  0  0  0  0  0
    5.0298    1.1249    0.0000 H   0  0  0  0  0  0  0  0  0  0  0  0
    1.9446    2.4717    0.0000 H   0  0  0  0  0  0  0  0  0  0  0  0
    1.4103    0.8275    0.0000 H   0  0  0  0  0  0  0  0  0  0  0  0
    4.3162   -0.6830    0.0000 H   0  0  0  0  0  0  0  0  0  0  0  0
    6.5256   -1.7468    0.0000 H   0  0  0  0  0  0  0  0  0  0  0  0
    5.4752   -1.9701    0.0000 H   0  0  0  0  0  0  0  0  0  0  0  0
  1  4  1  0  0  0  0
  1  8  1  0  0  0  0
  2 10  2  0  0  0  0
  3 10  1  0  0  0  0
  3 16  1  0  0  0  0
  3 17  1  0  0  0  0
  4  5  2  0  0  0  0
  4  6  1  0  0  0  0
  5  7  1  0  0  0  0
  5 11  1  0  0  0  0
  6  9  2  3  0  0  0
  6 12  1  0  0  0  0
  7  8  2  0  0  0  0
  7 13  1  0  0  0  0
  8 14  1  0  0  0  0
  9 10  1  0  0  0  0
  9 15  1  0  0  0  0
M  END
> <PUBCHEM_COMPOUND_CID>
12169

> <PUBCHEM_COMPOUND_CANONICALIZED>
1

> <PUBCHEM_CACTVS_COMPLEXITY>
154

> <PUBCHEM_CACTVS_HBOND_ACCEPTOR>
2

> <PUBCHEM_CACTVS_HBOND_DONOR>
1

> <PUBCHEM_CACTVS_ROTATABLE_BOND>
2

> <PUBCHEM_CACTVS_SUBSKEYS>
AAADcYBiMAAAAAAAAAAAAAAAAAAAASAAAAAAAAAAAAAAAAABgAAAHgAQAAAACAShkAIwBIBABECIAKlSkACCCAAkIAAIiAEGCMgMJjKENRqCGSCk0BEIqYaIAAAAAAAAAAAAAAAAAAAAAAAAAAAAAAAAAA==

> <PUBCHEM_IUPAC_OPENEYE_NAME>
3-(2-furyl)prop-2-enamide

> <PUBCHEM_IUPAC_CAS_NAME>
3-(2-furanyl)-2-propenamide

> <PUBCHEM_IUPAC_NAME>
3-(furan-2-yl)prop-2-enamide

> <PUBCHEM_IUPAC_SYSTEMATIC_NAME>
3-(furan-2-yl)prop-2-enamide

> <PUBCHEM_IUPAC_TRADITIONAL_NAME>
3-(2-furyl)acrylamide

> <PUBCHEM_IUPAC_INCHI>
InChI=1S/C7H7NO2/c8-7(9)4-3-6-2-1-5-10-6/h1-5H,(H2,8,9)

> <PUBCHEM_IUPAC_INCHIKEY>
XSVYCXHKWNFZLL-UHFFFAOYSA-N

> <PUBCHEM_XLOGP3>
0.6

> <PUBCHEM_EXACT_MASS>
137.047678

> <PUBCHEM_MOLECULAR_FORMULA>
C7H7NO2

> <PUBCHEM_MOLECULAR_WEIGHT>
137.13598

> <PUBCHEM_OPENEYE_CAN_SMILES>
C1=COC(=C1)C=CC(=O)N

> <PUBCHEM_OPENEYE_ISO_SMILES>
C1=COC(=C1)C=CC(=O)N

> <PUBCHEM_CACTVS_TPSA>
56.2

> <PUBCHEM_MONOISOTOPIC_WEIGHT>
137.047678

> <PUBCHEM_TOTAL_CHARGE>
0

> <PUBCHEM_HEAVY_ATOM_COUNT>
10

> <PUBCHEM_ATOM_DEF_STEREO_COUNT>
0

> <PUBCHEM_ATOM_UDEF_STEREO_COUNT>
0

> <PUBCHEM_BOND_DEF_STEREO_COUNT>
0

> <PUBCHEM_BOND_UDEF_STEREO_COUNT>
1

> <PUBCHEM_ISOTOPIC_ATOM_COUNT>
0

> <PUBCHEM_COMPONENT_COUNT>
1

> <PUBCHEM_CACTVS_TAUTO_COUNT>
2

> <PUBCHEM_COORDINATE_TYPE>
1
5
255

> <PUBCHEM_BONDANNOTATIONS>
1  4  8
1  8  8
4  5  8
5  7  8
6  9  1
7  8  8

$$$$

