11434
  -OEChem-06261205402D

 37 37  0     0  0  0  0  0  0999 V2000
    2.0000   -2.0280    0.0000 Hg  0  0  0  0  0  0  0  0  0  0  0  0
    3.7320   -3.0280    0.0000 O   0  0  0  0  0  0  0  0  0  0  0  0
    3.7320    0.9720    0.0000 C   0  0  0  0  0  0  0  0  0  0  0  0
    4.5981    2.4720    0.0000 C   0  0  0  0  0  0  0  0  0  0  0  0
    3.7320    1.9720    0.0000 C   0  0  0  0  0  0  0  0  0  0  0  0
    3.7320   -0.0280    0.0000 C   0  0  0  0  0  0  0  0  0  0  0  0
    4.7320    0.9720    0.0000 C   0  0  0  0  0  0  0  0  0  0  0  0
    2.7320    0.9720    0.0000 C   0  0  0  0  0  0  0  0  0  0  0  0
    5.4641    2.9720    0.0000 C   0  0  0  0  0  0  0  0  0  0  0  0
    4.0981    3.3380    0.0000 C   0  0  0  0  0  0  0  0  0  0  0  0
    5.0981    1.6060    0.0000 C   0  0  0  0  0  0  0  0  0  0  0  0
    2.8660   -0.5280    0.0000 C   0  0  0  0  0  0  0  0  0  0  0  0
    4.5981   -0.5280    0.0000 C   0  0  0  0  0  0  0  0  0  0  0  0
    2.8660   -1.5280    0.0000 C   0  0  0  0  0  0  0  0  0  0  0  0
    4.5981   -1.5280    0.0000 C   0  0  0  0  0  0  0  0  0  0  0  0
    3.7320   -2.0280    0.0000 C   0  0  0  0  0  0  0  0  0  0  0  0
    3.5200    2.5546    0.0000 H   0  0  0  0  0  0  0  0  0  0  0  0
    3.1215    1.8643    0.0000 H   0  0  0  0  0  0  0  0  0  0  0  0
    2.7320    1.5920    0.0000 H   0  0  0  0  0  0  0  0  0  0  0  0
    2.1120    0.9720    0.0000 H   0  0  0  0  0  0  0  0  0  0  0  0
    2.7320    0.3520    0.0000 H   0  0  0  0  0  0  0  0  0  0  0  0
    4.7320    0.3520    0.0000 H   0  0  0  0  0  0  0  0  0  0  0  0
    5.3520    0.9720    0.0000 H   0  0  0  0  0  0  0  0  0  0  0  0
    4.7320    1.5920    0.0000 H   0  0  0  0  0  0  0  0  0  0  0  0
    4.5611    1.2960    0.0000 H   0  0  0  0  0  0  0  0  0  0  0  0
    5.7741    2.4350    0.0000 H   0  0  0  0  0  0  0  0  0  0  0  0
    6.0010    3.2820    0.0000 H   0  0  0  0  0  0  0  0  0  0  0  0
    5.1541    3.5089    0.0000 H   0  0  0  0  0  0  0  0  0  0  0  0
    4.6350    3.6480    0.0000 H   0  0  0  0  0  0  0  0  0  0  0  0
    3.7881    3.8750    0.0000 H   0  0  0  0  0  0  0  0  0  0  0  0
    3.5611    3.0280    0.0000 H   0  0  0  0  0  0  0  0  0  0  0  0
    5.4081    1.0690    0.0000 H   0  0  0  0  0  0  0  0  0  0  0  0
    5.6350    1.9160    0.0000 H   0  0  0  0  0  0  0  0  0  0  0  0
    2.3291   -0.2180    0.0000 H   0  0  0  0  0  0  0  0  0  0  0  0
    5.1350   -0.2180    0.0000 H   0  0  0  0  0  0  0  0  0  0  0  0
    5.1350   -1.8380    0.0000 H   0  0  0  0  0  0  0  0  0  0  0  0
    4.2690   -3.3380    0.0000 H   0  0  0  0  0  0  0  0  0  0  0  0
  1 14  1  0  0  0  0
  2 16  1  0  0  0  0
  2 37  1  0  0  0  0
  3  5  1  0  0  0  0
  3  6  1  0  0  0  0
  3  7  1  0  0  0  0
  3  8  1  0  0  0  0
  4  5  1  0  0  0  0
  4  9  1  0  0  0  0
  4 10  1  0  0  0  0
  4 11  1  0  0  0  0
  5 17  1  0  0  0  0
  5 18  1  0  0  0  0
  6 12  2  0  0  0  0
  6 13  1  0  0  0  0
  7 22  1  0  0  0  0
  7 23  1  0  0  0  0
  7 24  1  0  0  0  0
  8 19  1  0  0  0  0
  8 20  1  0  0  0  0
  8 21  1  0  0  0  0
  9 26  1  0  0  0  0
  9 27  1  0  0  0  0
  9 28  1  0  0  0  0
 10 29  1  0  0  0  0
 10 30  1  0  0  0  0
 10 31  1  0  0  0  0
 11 25  1  0  0  0  0
 11 32  1  0  0  0  0
 11 33  1  0  0  0  0
 12 14  1  0  0  0  0
 12 34  1  0  0  0  0
 13 15  2  0  0  0  0
 13 35  1  0  0  0  0
 14 16  2  0  0  0  0
 15 16  1  0  0  0  0
 15 36  1  0  0  0  0
M  END
> <PUBCHEM_COMPOUND_CID>
11434

> <PUBCHEM_COMPOUND_CANONICALIZED>
1

> <PUBCHEM_CACTVS_COMPLEXITY>
229

> <PUBCHEM_CACTVS_HBOND_ACCEPTOR>
1

> <PUBCHEM_CACTVS_HBOND_DONOR>
1

> <PUBCHEM_CACTVS_ROTATABLE_BOND>
3

> <PUBCHEM_CACTVS_SUBSKEYS>
AAADceBwIAAAAAAAAAAAAQAAAAAAAAAAAAAwAAAAAAAAAAABAAAAGgAACAAADgSAmAAyBoAAAgCAAiBCAAACAAAgIAAIiAAGCIgIJiKCERKAcAAkwBEImAeAwPAPoAAAAAAAAABAAAAAAAAAAAAAAAAAAA==

> <PUBCHEM_IUPAC_OPENEYE_NAME>
[2-hydroxy-5-(1,1,3,3-tetramethylbutyl)phenyl]mercury

> <PUBCHEM_IUPAC_CAS_NAME>
[2-hydroxy-5-(2,4,4-trimethylpentan-2-yl)phenyl]mercury

> <PUBCHEM_IUPAC_NAME>
[2-hydroxy-5-(2,4,4-trimethylpentan-2-yl)phenyl]mercury

> <PUBCHEM_IUPAC_SYSTEMATIC_NAME>
[2-oxidanyl-5-(2,4,4-trimethylpentan-2-yl)phenyl]mercury

> <PUBCHEM_IUPAC_TRADITIONAL_NAME>
[2-hydroxy-5-(1,1,3,3-tetramethylbutyl)phenyl]mercury

> <PUBCHEM_IUPAC_INCHI>
InChI=1S/C14H21O.Hg/c1-13(2,3)10-14(4,5)11-6-8-12(15)9-7-11;/h6-8,15H,10H2,1-5H3;

> <PUBCHEM_IUPAC_INCHIKEY>
FKTRZNWIIDDIKD-UHFFFAOYSA-N

> <PUBCHEM_EXACT_MASS>
407.129883

> <PUBCHEM_MOLECULAR_FORMULA>
C14H21HgO

> <PUBCHEM_MOLECULAR_WEIGHT>
405.90594

> <PUBCHEM_OPENEYE_CAN_SMILES>
CC(C)(C)CC(C)(C)C1=CC(=C(C=C1)O)[Hg]

> <PUBCHEM_OPENEYE_ISO_SMILES>
CC(C)(C)CC(C)(C)C1=CC(=C(C=C1)O)[Hg]

> <PUBCHEM_CACTVS_TPSA>
20.2

> <PUBCHEM_MONOISOTOPIC_WEIGHT>
407.129883

> <PUBCHEM_TOTAL_CHARGE>
0

> <PUBCHEM_HEAVY_ATOM_COUNT>
16

> <PUBCHEM_ATOM_DEF_STEREO_COUNT>
0

> <PUBCHEM_ATOM_UDEF_STEREO_COUNT>
0

> <PUBCHEM_BOND_DEF_STEREO_COUNT>
0

> <PUBCHEM_BOND_UDEF_STEREO_COUNT>
0

> <PUBCHEM_ISOTOPIC_ATOM_COUNT>
0

> <PUBCHEM_COMPONENT_COUNT>
1

> <PUBCHEM_CACTVS_TAUTO_COUNT>
3

> <PUBCHEM_COORDINATE_TYPE>
1
5
255

> <PUBCHEM_BONDANNOTATIONS>
12  14  8
13  15  8
14  16  8
15  16  8
6  12  8
6  13  8

$$$$

