17395913
  -OEChem-06241222532D

 47 51  0     1  0  0  0  0  0999 V2000
    5.4638    0.0724    0.0000 O   0  0  0  0  0  0  0  0  0  0  0  0
    4.5977    1.5724    0.0000 N   0  0  0  0  0  0  0  0  0  0  0  0
    4.1421   -0.5507    0.0000 N   0  0  0  0  0  0  0  0  0  0  0  0
    2.5678   -0.2160    0.0000 N   0  0  0  0  0  0  0  0  0  0  0  0
    8.9279    1.0724    0.0000 N   0  0  0  0  0  0  0  0  0  0  0  0
    8.9279    3.0724    0.0000 N   0  0  0  0  0  0  0  0  0  0  0  0
    3.6842    1.1656    0.0000 C   0  0  3  0  0  0  0  0  0  0  0  0
    3.0150    1.9088    0.0000 C   0  0  0  0  0  0  0  0  0  0  0  0
    3.5150    2.7748    0.0000 C   0  0  0  0  0  0  0  0  0  0  0  0
    4.4932    2.5669    0.0000 C   0  0  0  0  0  0  0  0  0  0  0  0
    3.4763    0.1875    0.0000 C   0  0  0  0  0  0  0  0  0  0  0  0
    5.4638    1.0724    0.0000 C   0  0  0  0  0  0  0  0  0  0  0  0
    3.6473   -1.4128    0.0000 C   0  0  0  0  0  0  0  0  0  0  0  0
    2.6691   -1.2049    0.0000 C   0  0  0  0  0  0  0  0  0  0  0  0
    6.3298    1.5724    0.0000 C   0  0  0  0  0  0  0  0  0  0  0  0
    3.9563   -2.3639    0.0000 C   0  0  0  0  0  0  0  0  0  0  0  0
    2.0000   -1.9481    0.0000 C   0  0  0  0  0  0  0  0  0  0  0  0
    3.2872   -3.1070    0.0000 C   0  0  0  0  0  0  0  0  0  0  0  0
    7.1958    1.0724    0.0000 C   0  0  0  0  0  0  0  0  0  0  0  0
    2.3090   -2.8991    0.0000 C   0  0  0  0  0  0  0  0  0  0  0  0
    8.0618    1.5724    0.0000 C   0  0  0  0  0  0  0  0  0  0  0  0
    8.0618    2.5724    0.0000 C   0  0  0  0  0  0  0  0  0  0  0  0
    9.7939    1.5724    0.0000 C   0  0  0  0  0  0  0  0  0  0  0  0
    9.7939    2.5724    0.0000 C   0  0  0  0  0  0  0  0  0  0  0  0
   10.6878    1.0377    0.0000 C   0  0  0  0  0  0  0  0  0  0  0  0
   10.6878    3.1070    0.0000 C   0  0  0  0  0  0  0  0  0  0  0  0
   11.5939    1.5516    0.0000 C   0  0  0  0  0  0  0  0  0  0  0  0
   11.5939    2.5932    0.0000 C   0  0  0  0  0  0  0  0  0  0  0  0
    4.1660    0.7755    0.0000 H   0  0  0  0  0  0  0  0  0  0  0  0
    2.5135    2.2732    0.0000 H   0  0  0  0  0  0  0  0  0  0  0  0
    2.6002    1.4480    0.0000 H   0  0  0  0  0  0  0  0  0  0  0  0
    3.7066    3.3645    0.0000 H   0  0  0  0  0  0  0  0  0  0  0  0
    2.9487    3.0270    0.0000 H   0  0  0  0  0  0  0  0  0  0  0  0
    5.1132    2.5669    0.0000 H   0  0  0  0  0  0  0  0  0  0  0  0
    4.5580    3.1835    0.0000 H   0  0  0  0  0  0  0  0  0  0  0  0
    4.7586   -0.4848    0.0000 H   0  0  0  0  0  0  0  0  0  0  0  0
    6.3298    2.1924    0.0000 H   0  0  0  0  0  0  0  0  0  0  0  0
    4.5628   -2.4928    0.0000 H   0  0  0  0  0  0  0  0  0  0  0  0
    1.3936   -1.8192    0.0000 H   0  0  0  0  0  0  0  0  0  0  0  0
    7.1958    0.4524    0.0000 H   0  0  0  0  0  0  0  0  0  0  0  0
    3.4788   -3.6967    0.0000 H   0  0  0  0  0  0  0  0  0  0  0  0
    1.8942   -3.3599    0.0000 H   0  0  0  0  0  0  0  0  0  0  0  0
    7.5249    2.8824    0.0000 H   0  0  0  0  0  0  0  0  0  0  0  0
   10.6807    0.4178    0.0000 H   0  0  0  0  0  0  0  0  0  0  0  0
   10.6807    3.7270    0.0000 H   0  0  0  0  0  0  0  0  0  0  0  0
   12.1296    1.2395    0.0000 H   0  0  0  0  0  0  0  0  0  0  0  0
   12.1296    2.9053    0.0000 H   0  0  0  0  0  0  0  0  0  0  0  0
  1 12  2  0  0  0  0
  2  7  1  0  0  0  0
  2 10  1  0  0  0  0
  2 12  1  0  0  0  0
  3 11  1  0  0  0  0
  3 13  1  0  0  0  0
  3 36  1  0  0  0  0
  4 11  2  0  0  0  0
  4 14  1  0  0  0  0
  5 21  2  0  0  0  0
  5 23  1  0  0  0  0
  6 22  2  0  0  0  0
  6 24  1  0  0  0  0
  7  8  1  0  0  0  0
  7 11  1  0  0  0  0
  7 29  1  0  0  0  0
  8  9  1  0  0  0  0
  8 30  1  0  0  0  0
  8 31  1  0  0  0  0
  9 10  1  0  0  0  0
  9 32  1  0  0  0  0
  9 33  1  0  0  0  0
 10 34  1  0  0  0  0
 10 35  1  0  0  0  0
 12 15  1  0  0  0  0
 13 14  1  0  0  0  0
 13 16  2  0  0  0  0
 14 17  2  0  0  0  0
 15 19  2  0  0  0  0
 15 37  1  0  0  0  0
 16 18  1  0  0  0  0
 16 38  1  0  0  0  0
 17 20  1  0  0  0  0
 17 39  1  0  0  0  0
 18 20  2  0  0  0  0
 18 41  1  0  0  0  0
 19 21  1  0  0  0  0
 19 40  1  0  0  0  0
 20 42  1  0  0  0  0
 21 22  1  0  0  0  0
 22 43  1  0  0  0  0
 23 24  1  0  0  0  0
 23 25  2  0  0  0  0
 24 26  2  0  0  0  0
 25 27  1  0  0  0  0
 25 44  1  0  0  0  0
 26 28  1  0  0  0  0
 26 45  1  0  0  0  0
 27 28  2  0  0  0  0
 27 46  1  0  0  0  0
 28 47  1  0  0  0  0
M  END
> <PUBCHEM_COMPOUND_CID>
17395913

> <PUBCHEM_COMPOUND_CANONICALIZED>
1

> <PUBCHEM_CACTVS_COMPLEXITY>
596

> <PUBCHEM_CACTVS_HBOND_ACCEPTOR>
4

> <PUBCHEM_CACTVS_HBOND_DONOR>
1

> <PUBCHEM_CACTVS_ROTATABLE_BOND>
3

> <PUBCHEM_CACTVS_SUBSKEYS>
AAADceB7oAAAAAAAAAAAAAAAAAAAAWLAAAA8YIAAAAAAAFix/gAAHgAQAAAACCjBlwQ90LfJkACoATd3dACCgC2xEqAJ2SA4dNiIaOLAmZGUIAholgLIyacQAAAAAAAAAAAAACAAAAAAAAAAQAAAAAAAAA==

> <PUBCHEM_IUPAC_OPENEYE_NAME>
(E)-1-[2-(1H-benzimidazol-2-yl)pyrrolidin-1-yl]-3-quinoxalin-2-yl-prop-2-en-1-one

> <PUBCHEM_IUPAC_CAS_NAME>
(E)-1-[2-(1H-benzimidazol-2-yl)-1-pyrrolidinyl]-3-(2-quinoxalinyl)-2-propen-1-one

> <PUBCHEM_IUPAC_NAME>
(E)-1-[2-(1H-benzimidazol-2-yl)pyrrolidin-1-yl]-3-quinoxalin-2-ylprop-2-en-1-one

> <PUBCHEM_IUPAC_SYSTEMATIC_NAME>
(E)-1-[2-(1H-benzimidazol-2-yl)pyrrolidin-1-yl]-3-quinoxalin-2-yl-prop-2-en-1-one

> <PUBCHEM_IUPAC_TRADITIONAL_NAME>
(E)-1-[2-(1H-benzimidazol-2-yl)pyrrolidino]-3-quinoxalin-2-yl-prop-2-en-1-one

> <PUBCHEM_IUPAC_INCHI>
InChI=1S/C22H19N5O/c28-21(12-11-15-14-23-16-6-1-2-7-17(16)24-15)27-13-5-10-20(27)22-25-18-8-3-4-9-19(18)26-22/h1-4,6-9,11-12,14,20H,5,10,13H2,(H,25,26)/b12-11+

> <PUBCHEM_IUPAC_INCHIKEY>
INPGYFOIHXUVEX-VAWYXSNFSA-N

> <PUBCHEM_XLOGP3_AA>
2.7

> <PUBCHEM_EXACT_MASS>
369.15896

> <PUBCHEM_MOLECULAR_FORMULA>
C22H19N5O

> <PUBCHEM_MOLECULAR_WEIGHT>
369.41916

> <PUBCHEM_OPENEYE_CAN_SMILES>
C1CC(N(C1)C(=O)C=CC2=NC3=CC=CC=C3N=C2)C4=NC5=CC=CC=C5N4

> <PUBCHEM_OPENEYE_ISO_SMILES>
C1CC(N(C1)C(=O)/C=C/C2=NC3=CC=CC=C3N=C2)C4=NC5=CC=CC=C5N4

> <PUBCHEM_CACTVS_TPSA>
74.8

> <PUBCHEM_MONOISOTOPIC_WEIGHT>
369.15896

> <PUBCHEM_TOTAL_CHARGE>
0

> <PUBCHEM_HEAVY_ATOM_COUNT>
28

> <PUBCHEM_ATOM_DEF_STEREO_COUNT>
0

> <PUBCHEM_ATOM_UDEF_STEREO_COUNT>
1

> <PUBCHEM_BOND_DEF_STEREO_COUNT>
1

> <PUBCHEM_BOND_UDEF_STEREO_COUNT>
0

> <PUBCHEM_ISOTOPIC_ATOM_COUNT>
0

> <PUBCHEM_COMPONENT_COUNT>
1

> <PUBCHEM_CACTVS_TAUTO_COUNT>
1

> <PUBCHEM_COORDINATE_TYPE>
1
5
255

> <PUBCHEM_BONDANNOTATIONS>
13  14  8
13  16  8
14  17  8
16  18  8
17  20  8
18  20  8
21  22  8
23  24  8
23  25  8
24  26  8
25  27  8
26  28  8
27  28  8
3  11  8
3  13  8
4  11  8
4  14  8
5  21  8
5  23  8
6  22  8
6  24  8
7  11  3

$$$$

