17395590
  -OEChem-06241222512D

 39 41  0     1  0  0  0  0  0999 V2000
    2.0000    2.7234    0.0000 S   0  0  0  0  0  0  0  0  0  0  0  0
    3.6750    0.6356    0.0000 N   0  0  3  0  0  0  0  0  0  0  0  0
    5.4071   -0.3644    0.0000 N   0  0  0  0  0  0  0  0  0  0  0  0
    4.5411   -1.8644    0.0000 N   0  0  0  0  0  0  0  0  0  0  0  0
    5.4071   -3.3644    0.0000 N   0  0  0  0  0  0  0  0  0  0  0  0
    2.8090    1.1356    0.0000 C   0  0  0  0  0  0  0  0  0  0  0  0
    3.6750   -0.3644    0.0000 C   0  0  0  0  0  0  0  0  0  0  0  0
    2.8090    2.1356    0.0000 C   0  0  0  0  0  0  0  0  0  0  0  0
    4.5411   -0.8644    0.0000 C   0  0  0  0  0  0  0  0  0  0  0  0
    3.6180    2.7234    0.0000 C   0  0  0  0  0  0  0  0  0  0  0  0
    4.5411    1.1356    0.0000 C   0  0  0  0  0  0  0  0  0  0  0  0
    6.2731   -1.8644    0.0000 C   0  0  0  0  0  0  0  0  0  0  0  0
    6.2731   -0.8644    0.0000 C   0  0  0  0  0  0  0  0  0  0  0  0
    3.3090    3.6744    0.0000 C   0  0  0  0  0  0  0  0  0  0  0  0
    5.4071   -2.3644    0.0000 C   0  0  0  0  0  0  0  0  0  0  0  0
    4.5691    2.4144    0.0000 C   0  0  0  0  0  0  0  0  0  0  0  0
    2.3090    3.6744    0.0000 C   0  0  0  0  0  0  0  0  0  0  0  0
    7.1671   -2.3991    0.0000 C   0  0  0  0  0  0  0  0  0  0  0  0
    7.1671   -0.3298    0.0000 C   0  0  0  0  0  0  0  0  0  0  0  0
    8.0731   -1.8852    0.0000 C   0  0  0  0  0  0  0  0  0  0  0  0
    8.0731   -0.8436    0.0000 C   0  0  0  0  0  0  0  0  0  0  0  0
    2.1984    1.2432    0.0000 H   0  0  0  0  0  0  0  0  0  0  0  0
    2.5970    0.5530    0.0000 H   0  0  0  0  0  0  0  0  0  0  0  0
    3.0645   -0.2568    0.0000 H   0  0  0  0  0  0  0  0  0  0  0  0
    3.4630   -0.9470    0.0000 H   0  0  0  0  0  0  0  0  0  0  0  0
    4.8511    0.5986    0.0000 H   0  0  0  0  0  0  0  0  0  0  0  0
    5.0780    1.4456    0.0000 H   0  0  0  0  0  0  0  0  0  0  0  0
    4.2311    1.6725    0.0000 H   0  0  0  0  0  0  0  0  0  0  0  0
    3.6734    4.1760    0.0000 H   0  0  0  0  0  0  0  0  0  0  0  0
    4.3775    1.8247    0.0000 H   0  0  0  0  0  0  0  0  0  0  0  0
    5.1588    2.2228    0.0000 H   0  0  0  0  0  0  0  0  0  0  0  0
    4.7607    3.0040    0.0000 H   0  0  0  0  0  0  0  0  0  0  0  0
    1.9446    4.1760    0.0000 H   0  0  0  0  0  0  0  0  0  0  0  0
    7.1599   -3.0190    0.0000 H   0  0  0  0  0  0  0  0  0  0  0  0
    7.1599    0.2902    0.0000 H   0  0  0  0  0  0  0  0  0  0  0  0
    8.6089   -2.1973    0.0000 H   0  0  0  0  0  0  0  0  0  0  0  0
    8.6089   -0.5315    0.0000 H   0  0  0  0  0  0  0  0  0  0  0  0
    4.8702   -3.6744    0.0000 H   0  0  0  0  0  0  0  0  0  0  0  0
    5.9440   -3.6744    0.0000 H   0  0  0  0  0  0  0  0  0  0  0  0
  1  8  1  0  0  0  0
  1 17  1  0  0  0  0
  2  6  1  0  0  0  0
  2  7  1  0  0  0  0
  2 11  1  0  0  0  0
  3  9  2  0  0  0  0
  3 13  1  0  0  0  0
  4  9  1  0  0  0  0
  4 15  2  0  0  0  0
  5 15  1  0  0  0  0
  5 38  1  0  0  0  0
  5 39  1  0  0  0  0
  6  8  1  0  0  0  0
  6 22  1  0  0  0  0
  6 23  1  0  0  0  0
  7  9  1  0  0  0  0
  7 24  1  0  0  0  0
  7 25  1  0  0  0  0
  8 10  2  0  0  0  0
 10 14  1  0  0  0  0
 10 16  1  0  0  0  0
 11 26  1  0  0  0  0
 11 27  1  0  0  0  0
 11 28  1  0  0  0  0
 12 13  1  0  0  0  0
 12 15  1  0  0  0  0
 12 18  2  0  0  0  0
 13 19  2  0  0  0  0
 14 17  2  0  0  0  0
 14 29  1  0  0  0  0
 16 30  1  0  0  0  0
 16 31  1  0  0  0  0
 16 32  1  0  0  0  0
 17 33  1  0  0  0  0
 18 20  1  0  0  0  0
 18 34  1  0  0  0  0
 19 21  1  0  0  0  0
 19 35  1  0  0  0  0
 20 21  2  0  0  0  0
 20 36  1  0  0  0  0
 21 37  1  0  0  0  0
M  END
> <PUBCHEM_COMPOUND_CID>
17395590

> <PUBCHEM_COMPOUND_CANONICALIZED>
1

> <PUBCHEM_CACTVS_COMPLEXITY>
340

> <PUBCHEM_CACTVS_HBOND_ACCEPTOR>
5

> <PUBCHEM_CACTVS_HBOND_DONOR>
1

> <PUBCHEM_CACTVS_ROTATABLE_BOND>
4

> <PUBCHEM_CACTVS_SUBSKEYS>
AAADceB7gABAAAAAAAAAAAAAAAAAASAAAAA8QAAAAAAAAACx/AAAHAQQAAAADAjFXwSz8fdIEAikAyZiZACDgKkhCrBJmDg4ZJiIaKLg2dGUJAhogALoyCcQgAAOAAAAAAACAAAAAAAAAAQAAAAAAAAAAA==

> <PUBCHEM_IUPAC_OPENEYE_NAME>
2-[[methyl-[(3-methyl-2-thienyl)methyl]amino]methyl]quinazolin-4-amine

> <PUBCHEM_IUPAC_CAS_NAME>
2-[[methyl-[(3-methyl-2-thiophenyl)methyl]amino]methyl]-4-quinazolinamine

> <PUBCHEM_IUPAC_NAME>
2-[[methyl-[(3-methylthiophen-2-yl)methyl]amino]methyl]quinazolin-4-amine

> <PUBCHEM_IUPAC_SYSTEMATIC_NAME>
2-[[methyl-[(3-methylthiophen-2-yl)methyl]amino]methyl]quinazolin-4-amine

> <PUBCHEM_IUPAC_TRADITIONAL_NAME>
(4-aminoquinazolin-2-yl)methyl-methyl-[(3-methyl-2-thienyl)methyl]amine

> <PUBCHEM_IUPAC_INCHI>
InChI=1S/C16H18N4S/c1-11-7-8-21-14(11)9-20(2)10-15-18-13-6-4-3-5-12(13)16(17)19-15/h3-8H,9-10H2,1-2H3,(H2,17,18,19)

> <PUBCHEM_IUPAC_INCHIKEY>
YMVVHOBODDUTIU-UHFFFAOYSA-N

> <PUBCHEM_XLOGP3_AA>
2.6

> <PUBCHEM_EXACT_MASS>
298.125218

> <PUBCHEM_MOLECULAR_FORMULA>
C16H18N4S

> <PUBCHEM_MOLECULAR_WEIGHT>
298.40592

> <PUBCHEM_OPENEYE_CAN_SMILES>
CC1=C(SC=C1)CN(C)CC2=NC3=CC=CC=C3C(=N2)N

> <PUBCHEM_OPENEYE_ISO_SMILES>
CC1=C(SC=C1)CN(C)CC2=NC3=CC=CC=C3C(=N2)N

> <PUBCHEM_CACTVS_TPSA>
83.3

> <PUBCHEM_MONOISOTOPIC_WEIGHT>
298.125218

> <PUBCHEM_TOTAL_CHARGE>
0

> <PUBCHEM_HEAVY_ATOM_COUNT>
21

> <PUBCHEM_ATOM_DEF_STEREO_COUNT>
0

> <PUBCHEM_ATOM_UDEF_STEREO_COUNT>
0

> <PUBCHEM_BOND_DEF_STEREO_COUNT>
0

> <PUBCHEM_BOND_UDEF_STEREO_COUNT>
0

> <PUBCHEM_ISOTOPIC_ATOM_COUNT>
0

> <PUBCHEM_COMPONENT_COUNT>
1

> <PUBCHEM_CACTVS_TAUTO_COUNT>
10

> <PUBCHEM_COORDINATE_TYPE>
1
5
255

> <PUBCHEM_BONDANNOTATIONS>
1  17  8
1  8  8
10  14  8
12  13  8
12  15  8
12  18  8
13  19  8
14  17  8
18  20  8
19  21  8
20  21  8
3  13  8
3  9  8
4  15  8
4  9  8
8  10  8

$$$$

