17395777
  -OEChem-06241222522D

 47 49  0     1  0  0  0  0  0999 V2000
    2.0000   -4.6307    0.0000 Cl  0  0  0  0  0  0  0  0  0  0  0  0
    6.1452    4.6307    0.0000 O   0  0  0  0  0  0  0  0  0  0  0  0
    6.3301   -0.1307    0.0000 O   0  0  0  0  0  0  0  0  0  0  0  0
    7.5464    3.6126    0.0000 N   0  0  0  0  0  0  0  0  0  0  0  0
    4.9641    2.9081    0.0000 N   0  0  0  0  0  0  0  0  0  0  0  0
    4.5981   -1.1307    0.0000 N   0  0  3  0  0  0  0  0  0  0  0  0
    9.1291    3.9490    0.0000 C   0  0  0  0  0  0  0  0  0  0  0  0
    9.0246    2.9545    0.0000 C   0  0  0  0  0  0  0  0  0  0  0  0
    8.0464    2.7466    0.0000 C   0  0  0  0  0  0  0  0  0  0  0  0
    8.2155    4.3558    0.0000 C   0  0  0  0  0  0  0  0  0  0  0  0
    6.5519    3.7172    0.0000 C   0  0  0  0  0  0  0  0  0  0  0  0
    5.9641    2.9081    0.0000 C   0  0  0  0  0  0  0  0  0  0  0  0
    6.2731    1.9571    0.0000 C   0  0  0  0  0  0  0  0  0  0  0  0
    5.4641    1.3693    0.0000 C   0  0  0  0  0  0  0  0  0  0  0  0
    4.5981   -0.1307    0.0000 C   0  0  0  0  0  0  0  0  0  0  0  0
    4.6551    1.9571    0.0000 C   0  0  0  0  0  0  0  0  0  0  0  0
    5.4641    0.3693    0.0000 C   0  0  0  0  0  0  0  0  0  0  0  0
    3.7320   -1.6307    0.0000 C   0  0  0  0  0  0  0  0  0  0  0  0
    3.7320   -2.6307    0.0000 C   0  0  0  0  0  0  0  0  0  0  0  0
    5.4641   -1.6307    0.0000 C   0  0  0  0  0  0  0  0  0  0  0  0
    2.8660   -3.1307    0.0000 C   0  0  0  0  0  0  0  0  0  0  0  0
    4.5981   -3.1307    0.0000 C   0  0  0  0  0  0  0  0  0  0  0  0
    2.8660   -4.1307    0.0000 C   0  0  0  0  0  0  0  0  0  0  0  0
    4.5981   -4.1307    0.0000 C   0  0  0  0  0  0  0  0  0  0  0  0
    3.7320   -4.6307    0.0000 C   0  0  0  0  0  0  0  0  0  0  0  0
    9.0894    2.3379    0.0000 H   0  0  0  0  0  0  0  0  0  0  0  0
    9.6446    2.9545    0.0000 H   0  0  0  0  0  0  0  0  0  0  0  0
    9.7355    3.8201    0.0000 H   0  0  0  0  0  0  0  0  0  0  0  0
    9.3207    4.5387    0.0000 H   0  0  0  0  0  0  0  0  0  0  0  0
    7.4800    2.4944    0.0000 H   0  0  0  0  0  0  0  0  0  0  0  0
    8.2380    2.1570    0.0000 H   0  0  0  0  0  0  0  0  0  0  0  0
    8.5255    4.8927    0.0000 H   0  0  0  0  0  0  0  0  0  0  0  0
    7.7140    4.7202    0.0000 H   0  0  0  0  0  0  0  0  0  0  0  0
    6.8628    1.7655    0.0000 H   0  0  0  0  0  0  0  0  0  0  0  0
    4.5997    3.4097    0.0000 H   0  0  0  0  0  0  0  0  0  0  0  0
    4.3860    0.4519    0.0000 H   0  0  0  0  0  0  0  0  0  0  0  0
    3.9875   -0.2384    0.0000 H   0  0  0  0  0  0  0  0  0  0  0  0
    4.0654    1.7655    0.0000 H   0  0  0  0  0  0  0  0  0  0  0  0
    3.5200   -1.0481    0.0000 H   0  0  0  0  0  0  0  0  0  0  0  0
    3.1215   -1.7384    0.0000 H   0  0  0  0  0  0  0  0  0  0  0  0
    5.1541   -2.1676    0.0000 H   0  0  0  0  0  0  0  0  0  0  0  0
    6.0010   -1.9407    0.0000 H   0  0  0  0  0  0  0  0  0  0  0  0
    5.7741   -1.0938    0.0000 H   0  0  0  0  0  0  0  0  0  0  0  0
    2.3291   -2.8207    0.0000 H   0  0  0  0  0  0  0  0  0  0  0  0
    5.1350   -2.8207    0.0000 H   0  0  0  0  0  0  0  0  0  0  0  0
    5.1350   -4.4407    0.0000 H   0  0  0  0  0  0  0  0  0  0  0  0
    3.7320   -5.2507    0.0000 H   0  0  0  0  0  0  0  0  0  0  0  0
  1 23  1  0  0  0  0
  2 11  2  0  0  0  0
  3 17  2  0  0  0  0
  4  9  1  0  0  0  0
  4 10  1  0  0  0  0
  4 11  1  0  0  0  0
  5 12  1  0  0  0  0
  5 16  1  0  0  0  0
  5 35  1  0  0  0  0
  6 15  1  0  0  0  0
  6 18  1  0  0  0  0
  6 20  1  0  0  0  0
  7  8  1  0  0  0  0
  7 10  1  0  0  0  0
  7 28  1  0  0  0  0
  7 29  1  0  0  0  0
  8  9  1  0  0  0  0
  8 26  1  0  0  0  0
  8 27  1  0  0  0  0
  9 30  1  0  0  0  0
  9 31  1  0  0  0  0
 10 32  1  0  0  0  0
 10 33  1  0  0  0  0
 11 12  1  0  0  0  0
 12 13  2  0  0  0  0
 13 14  1  0  0  0  0
 13 34  1  0  0  0  0
 14 16  2  0  0  0  0
 14 17  1  0  0  0  0
 15 17  1  0  0  0  0
 15 36  1  0  0  0  0
 15 37  1  0  0  0  0
 16 38  1  0  0  0  0
 18 19  1  0  0  0  0
 18 39  1  0  0  0  0
 18 40  1  0  0  0  0
 19 21  2  0  0  0  0
 19 22  1  0  0  0  0
 20 41  1  0  0  0  0
 20 42  1  0  0  0  0
 20 43  1  0  0  0  0
 21 23  1  0  0  0  0
 21 44  1  0  0  0  0
 22 24  2  0  0  0  0
 22 45  1  0  0  0  0
 23 25  2  0  0  0  0
 24 25  1  0  0  0  0
 24 46  1  0  0  0  0
 25 47  1  0  0  0  0
M  END
> <PUBCHEM_COMPOUND_CID>
17395777

> <PUBCHEM_COMPOUND_CANONICALIZED>
1

> <PUBCHEM_CACTVS_COMPLEXITY>
481

> <PUBCHEM_CACTVS_HBOND_ACCEPTOR>
3

> <PUBCHEM_CACTVS_HBOND_DONOR>
1

> <PUBCHEM_CACTVS_ROTATABLE_BOND>
6

> <PUBCHEM_CACTVS_SUBSKEYS>
AAADceB7MAAEAAAAAAAAAAAAAAAAAWLAAAAwAAAAAAAAAAABwAAAHgIQAAAADA7BniQ+gJPJkACoA7V3VACCgCA3ByAI2aG4ZtgIYPrBl7GUIYhglgDIyccciwAuAAAAIAAAAAAAAABAAAAAAAAAAAAAAA==

> <PUBCHEM_IUPAC_OPENEYE_NAME>
2-[(3-chlorophenyl)methyl-methyl-amino]-1-[5-(pyrrolidine-1-carbonyl)-1H-pyrrol-3-yl]ethanone

> <PUBCHEM_IUPAC_CAS_NAME>
2-[(3-chlorophenyl)methyl-methylamino]-1-[5-[oxo(1-pyrrolidinyl)methyl]-1H-pyrrol-3-yl]ethanone

> <PUBCHEM_IUPAC_NAME>
2-[(3-chlorophenyl)methyl-methylamino]-1-[5-(pyrrolidine-1-carbonyl)-1H-pyrrol-3-yl]ethanone

> <PUBCHEM_IUPAC_SYSTEMATIC_NAME>
2-[(3-chlorophenyl)methyl-methyl-amino]-1-(5-pyrrolidin-1-ylcarbonyl-1H-pyrrol-3-yl)ethanone

> <PUBCHEM_IUPAC_TRADITIONAL_NAME>
2-[(3-chlorobenzyl)-methyl-amino]-1-[5-(pyrrolidine-1-carbonyl)-1H-pyrrol-3-yl]ethanone

> <PUBCHEM_IUPAC_INCHI>
InChI=1S/C19H22ClN3O2/c1-22(12-14-5-4-6-16(20)9-14)13-18(24)15-10-17(21-11-15)19(25)23-7-2-3-8-23/h4-6,9-11,21H,2-3,7-8,12-13H2,1H3

> <PUBCHEM_IUPAC_INCHIKEY>
GHYMLERMDSZMSM-UHFFFAOYSA-N

> <PUBCHEM_XLOGP3_AA>
2.9

> <PUBCHEM_EXACT_MASS>
359.140055

> <PUBCHEM_MOLECULAR_FORMULA>
C19H22ClN3O2

> <PUBCHEM_MOLECULAR_WEIGHT>
359.84988

> <PUBCHEM_OPENEYE_CAN_SMILES>
CN(CC1=CC(=CC=C1)Cl)CC(=O)C2=CNC(=C2)C(=O)N3CCCC3

> <PUBCHEM_OPENEYE_ISO_SMILES>
CN(CC1=CC(=CC=C1)Cl)CC(=O)C2=CNC(=C2)C(=O)N3CCCC3

> <PUBCHEM_CACTVS_TPSA>
56.4

> <PUBCHEM_MONOISOTOPIC_WEIGHT>
359.140055

> <PUBCHEM_TOTAL_CHARGE>
0

> <PUBCHEM_HEAVY_ATOM_COUNT>
25

> <PUBCHEM_ATOM_DEF_STEREO_COUNT>
0

> <PUBCHEM_ATOM_UDEF_STEREO_COUNT>
0

> <PUBCHEM_BOND_DEF_STEREO_COUNT>
0

> <PUBCHEM_BOND_UDEF_STEREO_COUNT>
0

> <PUBCHEM_ISOTOPIC_ATOM_COUNT>
0

> <PUBCHEM_COMPONENT_COUNT>
1

> <PUBCHEM_CACTVS_TAUTO_COUNT>
11

> <PUBCHEM_COORDINATE_TYPE>
1
5
255

> <PUBCHEM_BONDANNOTATIONS>
12  13  8
13  14  8
14  16  8
19  21  8
19  22  8
21  23  8
22  24  8
23  25  8
24  25  8
5  12  8
5  16  8

$$$$

