17395961
  -OEChem-06241222532D

 43 46  0     0  0  0  0  0  0999 V2000
   10.9178    3.8680    0.0000 F   0  0  0  0  0  0  0  0  0  0  0  0
    8.4423   -0.0784    0.0000 O   0  0  0  0  0  0  0  0  0  0  0  0
    3.7320    0.1320    0.0000 O   0  0  0  0  0  0  0  0  0  0  0  0
    2.0000   -2.8680    0.0000 O   0  0  0  0  0  0  0  0  0  0  0  0
    5.5443   -1.0633    0.0000 N   0  0  0  0  0  0  0  0  0  0  0  0
    3.7320   -2.8680    0.0000 N   0  0  0  0  0  0  0  0  0  0  0  0
    2.8660   -1.3680    0.0000 N   0  0  0  0  0  0  0  0  0  0  0  0
    5.5443   -2.6727    0.0000 N   0  0  0  0  0  0  0  0  0  0  0  0
    7.5754   -0.5769    0.0000 N   0  0  0  0  0  0  0  0  0  0  0  0
    4.5981   -1.3680    0.0000 C   0  0  0  0  0  0  0  0  0  0  0  0
    5.8550   -0.1128    0.0000 C   0  0  0  0  0  0  0  0  0  0  0  0
    4.5981   -2.3680    0.0000 C   0  0  0  0  0  0  0  0  0  0  0  0
    6.8335    0.0935    0.0000 C   0  0  0  0  0  0  0  0  0  0  0  0
    3.7320   -0.8680    0.0000 C   0  0  0  0  0  0  0  0  0  0  0  0
    6.1279   -1.8680    0.0000 C   0  0  0  0  0  0  0  0  0  0  0  0
    7.2418    1.0063    0.0000 C   0  0  0  0  0  0  0  0  0  0  0  0
    2.8660   -2.3680    0.0000 C   0  0  0  0  0  0  0  0  0  0  0  0
    8.2361    0.9001    0.0000 C   0  0  0  0  0  0  0  0  0  0  0  0
    3.7320   -3.8680    0.0000 C   0  0  0  0  0  0  0  0  0  0  0  0
    2.0000   -0.8680    0.0000 C   0  0  0  0  0  0  0  0  0  0  0  0
    6.7433    1.8732    0.0000 C   0  0  0  0  0  0  0  0  0  0  0  0
    8.9065    1.6420    0.0000 C   0  0  0  0  0  0  0  0  0  0  0  0
    9.8843    1.4324    0.0000 C   0  0  0  0  0  0  0  0  0  0  0  0
    8.5992    2.5936    0.0000 C   0  0  0  0  0  0  0  0  0  0  0  0
   10.5547    2.1744    0.0000 C   0  0  0  0  0  0  0  0  0  0  0  0
    9.2696    3.3356    0.0000 C   0  0  0  0  0  0  0  0  0  0  0  0
   10.2474    3.1260    0.0000 C   0  0  0  0  0  0  0  0  0  0  0  0
    5.8344    0.5069    0.0000 H   0  0  0  0  0  0  0  0  0  0  0  0
    5.2411   -0.0254    0.0000 H   0  0  0  0  0  0  0  0  0  0  0  0
    6.7479   -1.8680    0.0000 H   0  0  0  0  0  0  0  0  0  0  0  0
    3.1120   -3.8680    0.0000 H   0  0  0  0  0  0  0  0  0  0  0  0
    3.7320   -4.4880    0.0000 H   0  0  0  0  0  0  0  0  0  0  0  0
    4.3520   -3.8680    0.0000 H   0  0  0  0  0  0  0  0  0  0  0  0
    2.3100   -0.3311    0.0000 H   0  0  0  0  0  0  0  0  0  0  0  0
    1.4631   -0.5580    0.0000 H   0  0  0  0  0  0  0  0  0  0  0  0
    1.6900   -1.4049    0.0000 H   0  0  0  0  0  0  0  0  0  0  0  0
    7.2808    2.1823    0.0000 H   0  0  0  0  0  0  0  0  0  0  0  0
    6.4342    2.4107    0.0000 H   0  0  0  0  0  0  0  0  0  0  0  0
    6.2058    1.5641    0.0000 H   0  0  0  0  0  0  0  0  0  0  0  0
   10.0749    0.8425    0.0000 H   0  0  0  0  0  0  0  0  0  0  0  0
    7.9929    2.7236    0.0000 H   0  0  0  0  0  0  0  0  0  0  0  0
   11.1610    2.0445    0.0000 H   0  0  0  0  0  0  0  0  0  0  0  0
    9.0790    3.9256    0.0000 H   0  0  0  0  0  0  0  0  0  0  0  0
  1 27  1  0  0  0  0
  2  9  1  0  0  0  0
  2 18  1  0  0  0  0
  3 14  2  0  0  0  0
  4 17  2  0  0  0  0
  5 10  1  0  0  0  0
  5 11  1  0  0  0  0
  5 15  1  0  0  0  0
  6 12  1  0  0  0  0
  6 17  1  0  0  0  0
  6 19  1  0  0  0  0
  7 14  1  0  0  0  0
  7 17  1  0  0  0  0
  7 20  1  0  0  0  0
  8 12  1  0  0  0  0
  8 15  2  0  0  0  0
  9 13  2  0  0  0  0
 10 12  2  0  0  0  0
 10 14  1  0  0  0  0
 11 13  1  0  0  0  0
 11 28  1  0  0  0  0
 11 29  1  0  0  0  0
 13 16  1  0  0  0  0
 15 30  1  0  0  0  0
 16 18  2  0  0  0  0
 16 21  1  0  0  0  0
 18 22  1  0  0  0  0
 19 31  1  0  0  0  0
 19 32  1  0  0  0  0
 19 33  1  0  0  0  0
 20 34  1  0  0  0  0
 20 35  1  0  0  0  0
 20 36  1  0  0  0  0
 21 37  1  0  0  0  0
 21 38  1  0  0  0  0
 21 39  1  0  0  0  0
 22 23  2  0  0  0  0
 22 24  1  0  0  0  0
 23 25  1  0  0  0  0
 23 40  1  0  0  0  0
 24 26  2  0  0  0  0
 24 41  1  0  0  0  0
 25 27  2  0  0  0  0
 25 42  1  0  0  0  0
 26 27  1  0  0  0  0
 26 43  1  0  0  0  0
M  END
> <PUBCHEM_COMPOUND_CID>
17395961

> <PUBCHEM_COMPOUND_CANONICALIZED>
1

> <PUBCHEM_CACTVS_COMPLEXITY>
600

> <PUBCHEM_CACTVS_HBOND_ACCEPTOR>
6

> <PUBCHEM_CACTVS_HBOND_DONOR>
0

> <PUBCHEM_CACTVS_ROTATABLE_BOND>
3

> <PUBCHEM_CACTVS_SUBSKEYS>
AAADceB7sQAAAAAAAAAAAAAAAAAAAWLAAAA8QAAAAAAAAFgB8AAAHwAEAAAADAzBngw3tJccEACpA6dzdgCCgC03MKAp2CG8XNqIbjrA3bOUMYhuxzvIyee8yOCOAAAAAAAAAAAAAAAAAAAAAAAAAAAAAA==

> <PUBCHEM_IUPAC_OPENEYE_NAME>
7-[[5-(4-fluorophenyl)-4-methyl-isoxazol-3-yl]methyl]-1,3-dimethyl-purine-2,6-dione

> <PUBCHEM_IUPAC_CAS_NAME>
7-[[5-(4-fluorophenyl)-4-methyl-3-isoxazolyl]methyl]-1,3-dimethylpurine-2,6-dione

> <PUBCHEM_IUPAC_NAME>
7-[[5-(4-fluorophenyl)-4-methyl-1,2-oxazol-3-yl]methyl]-1,3-dimethylpurine-2,6-dione

> <PUBCHEM_IUPAC_SYSTEMATIC_NAME>
7-[[5-(4-fluorophenyl)-4-methyl-1,2-oxazol-3-yl]methyl]-1,3-dimethyl-purine-2,6-dione

> <PUBCHEM_IUPAC_TRADITIONAL_NAME>
7-[[5-(4-fluorophenyl)-4-methyl-isoxazol-3-yl]methyl]-1,3-dimethyl-xanthine

> <PUBCHEM_IUPAC_INCHI>
InChI=1S/C18H16FN5O3/c1-10-13(21-27-15(10)11-4-6-12(19)7-5-11)8-24-9-20-16-14(24)17(25)23(3)18(26)22(16)2/h4-7,9H,8H2,1-3H3

> <PUBCHEM_IUPAC_INCHIKEY>
OZDXZPOJAYEJRS-UHFFFAOYSA-N

> <PUBCHEM_XLOGP3>
1.8

> <PUBCHEM_EXACT_MASS>
369.123718

> <PUBCHEM_MOLECULAR_FORMULA>
C18H16FN5O3

> <PUBCHEM_MOLECULAR_WEIGHT>
369.349743

> <PUBCHEM_OPENEYE_CAN_SMILES>
CC1=C(ON=C1CN2C=NC3=C2C(=O)N(C(=O)N3C)C)C4=CC=C(C=C4)F

> <PUBCHEM_OPENEYE_ISO_SMILES>
CC1=C(ON=C1CN2C=NC3=C2C(=O)N(C(=O)N3C)C)C4=CC=C(C=C4)F

> <PUBCHEM_CACTVS_TPSA>
84.5

> <PUBCHEM_MONOISOTOPIC_WEIGHT>
369.123718

> <PUBCHEM_TOTAL_CHARGE>
0

> <PUBCHEM_HEAVY_ATOM_COUNT>
27

> <PUBCHEM_ATOM_DEF_STEREO_COUNT>
0

> <PUBCHEM_ATOM_UDEF_STEREO_COUNT>
0

> <PUBCHEM_BOND_DEF_STEREO_COUNT>
0

> <PUBCHEM_BOND_UDEF_STEREO_COUNT>
0

> <PUBCHEM_ISOTOPIC_ATOM_COUNT>
0

> <PUBCHEM_COMPONENT_COUNT>
1

> <PUBCHEM_CACTVS_TAUTO_COUNT>
1

> <PUBCHEM_COORDINATE_TYPE>
1
5
255

> <PUBCHEM_BONDANNOTATIONS>
10  12  8
10  14  8
13  16  8
16  18  8
2  18  8
2  9  8
22  23  8
22  24  8
23  25  8
24  26  8
25  27  8
26  27  8
5  10  8
5  15  8
6  12  8
6  17  8
7  14  8
7  17  8
8  12  8
8  15  8
9  13  8

$$$$

