13041
  -OEChem-06261207412D

 13 13  0     0  0  0  0  0  0999 V2000
    2.0000    0.8450    0.0000 F   0  0  0  0  0  0  0  0  0  0  0  0
    5.4641    0.8450    0.0000 F   0  0  0  0  0  0  0  0  0  0  0  0
    3.7320   -2.1550    0.0000 F   0  0  0  0  0  0  0  0  0  0  0  0
    5.4641   -1.1550    0.0000 F   0  0  0  0  0  0  0  0  0  0  0  0
    2.0000   -1.1550    0.0000 F   0  0  0  0  0  0  0  0  0  0  0  0
    3.7320    1.8450    0.0000 O   0  0  0  0  0  0  0  0  0  0  0  0
    3.7320    0.8450    0.0000 C   0  0  0  0  0  0  0  0  0  0  0  0
    2.8660    0.3450    0.0000 C   0  0  0  0  0  0  0  0  0  0  0  0
    4.5981    0.3450    0.0000 C   0  0  0  0  0  0  0  0  0  0  0  0
    4.5981   -0.6550    0.0000 C   0  0  0  0  0  0  0  0  0  0  0  0
    2.8660   -0.6550    0.0000 C   0  0  0  0  0  0  0  0  0  0  0  0
    3.7320   -1.1550    0.0000 C   0  0  0  0  0  0  0  0  0  0  0  0
    4.2690    2.1550    0.0000 H   0  0  0  0  0  0  0  0  0  0  0  0
  1  8  1  0  0  0  0
  2  9  1  0  0  0  0
  3 12  1  0  0  0  0
  4 10  1  0  0  0  0
  5 11  1  0  0  0  0
  6  7  1  0  0  0  0
  6 13  1  0  0  0  0
  7  8  2  0  0  0  0
  7  9  1  0  0  0  0
  8 11  1  0  0  0  0
  9 10  2  0  0  0  0
 10 12  1  0  0  0  0
 11 12  2  0  0  0  0
M  END
> <PUBCHEM_COMPOUND_CID>
13041

> <PUBCHEM_COMPOUND_CANONICALIZED>
1

> <PUBCHEM_CACTVS_COMPLEXITY>
150

> <PUBCHEM_CACTVS_HBOND_ACCEPTOR>
6

> <PUBCHEM_CACTVS_HBOND_DONOR>
1

> <PUBCHEM_CACTVS_ROTATABLE_BOND>
0

> <PUBCHEM_CACTVS_SUBSKEYS>
AAADcQBgIcAAAAAAAAAAAAAAAAAAAAAAAAAwAAAAAAAAAAABAAAACwAACAAACAQAkAgABoAAAgCAAABAAAACAAAgIAAAiAAECIgIJiKCEBKAcAAkwBEImAeAQAAAAAAAAAAAAAAAAAAAAAAAAAAAAAAAAA==

> <PUBCHEM_IUPAC_OPENEYE_NAME>
2,3,4,5,6-pentafluorophenol

> <PUBCHEM_IUPAC_CAS_NAME>
2,3,4,5,6-pentafluorophenol

> <PUBCHEM_IUPAC_NAME>
2,3,4,5,6-pentafluorophenol

> <PUBCHEM_IUPAC_SYSTEMATIC_NAME>
2,3,4,5,6-pentakis(fluoranyl)phenol

> <PUBCHEM_IUPAC_TRADITIONAL_NAME>
2,3,4,5,6-pentafluorophenol

> <PUBCHEM_IUPAC_INCHI>
InChI=1S/C6HF5O/c7-1-2(8)4(10)6(12)5(11)3(1)9/h12H

> <PUBCHEM_IUPAC_INCHIKEY>
XBNGYFFABRKICK-UHFFFAOYSA-N

> <PUBCHEM_XLOGP3>
3.2

> <PUBCHEM_EXACT_MASS>
183.994756

> <PUBCHEM_MOLECULAR_FORMULA>
C6HF5O

> <PUBCHEM_MOLECULAR_WEIGHT>
184.063556

> <PUBCHEM_OPENEYE_CAN_SMILES>
C1(=C(C(=C(C(=C1F)F)F)F)F)O

> <PUBCHEM_OPENEYE_ISO_SMILES>
C1(=C(C(=C(C(=C1F)F)F)F)F)O

> <PUBCHEM_CACTVS_TPSA>
20.2

> <PUBCHEM_MONOISOTOPIC_WEIGHT>
183.994756

> <PUBCHEM_TOTAL_CHARGE>
0

> <PUBCHEM_HEAVY_ATOM_COUNT>
12

> <PUBCHEM_ATOM_DEF_STEREO_COUNT>
0

> <PUBCHEM_ATOM_UDEF_STEREO_COUNT>
0

> <PUBCHEM_BOND_DEF_STEREO_COUNT>
0

> <PUBCHEM_BOND_UDEF_STEREO_COUNT>
0

> <PUBCHEM_ISOTOPIC_ATOM_COUNT>
0

> <PUBCHEM_COMPONENT_COUNT>
1

> <PUBCHEM_CACTVS_TAUTO_COUNT>
2

> <PUBCHEM_COORDINATE_TYPE>
1
5
255

> <PUBCHEM_BONDANNOTATIONS>
10  12  8
11  12  8
7  8  8
7  9  8
8  11  8
9  10  8

$$$$

