17396316
  -OEChem-06241222552D

 42 43  0     0  0  0  0  0  0999 V2000
    7.1962   -0.5580    0.0000 O   0  0  0  0  0  0  0  0  0  0  0  0
    8.9282   -1.5580    0.0000 O   0  0  0  0  0  0  0  0  0  0  0  0
   12.7782   -0.7397    0.0000 O   0  0  0  0  0  0  0  0  0  0  0  0
    6.3301    0.9420    0.0000 O   0  0  0  0  0  0  0  0  0  0  0  0
    2.8660   -2.0580    0.0000 O   0  0  0  0  0  0  0  0  0  0  0  0
    9.8988    0.9365    0.0000 N   0  0  0  0  0  0  0  0  0  0  0  0
    4.5981   -2.0580    0.0000 N   0  0  0  0  0  0  0  0  0  0  0  0
   10.7078   -0.4647    0.0000 C   0  0  0  0  0  0  0  0  0  0  0  0
   11.3769    0.2784    0.0000 C   0  0  0  0  0  0  0  0  0  0  0  0
    9.7942   -0.0580    0.0000 C   0  0  0  0  0  0  0  0  0  0  0  0
   10.8769    1.1444    0.0000 C   0  0  0  0  0  0  0  0  0  0  0  0
   10.9157   -1.4429    0.0000 C   0  0  0  0  0  0  0  0  0  0  0  0
    8.9282   -0.5580    0.0000 C   0  0  0  0  0  0  0  0  0  0  0  0
   11.2836    2.0580    0.0000 C   0  0  0  0  0  0  0  0  0  0  0  0
   12.3714    0.1739    0.0000 C   0  0  0  0  0  0  0  0  0  0  0  0
    8.0622   -0.0580    0.0000 C   0  0  0  0  0  0  0  0  0  0  0  0
   12.9592    0.9829    0.0000 C   0  0  0  0  0  0  0  0  0  0  0  0
    6.3301   -0.0580    0.0000 C   0  0  0  0  0  0  0  0  0  0  0  0
    5.4641   -0.5580    0.0000 C   0  0  0  0  0  0  0  0  0  0  0  0
    4.5981   -0.0580    0.0000 C   0  0  0  0  0  0  0  0  0  0  0  0
    5.4641   -1.5580    0.0000 C   0  0  0  0  0  0  0  0  0  0  0  0
    3.7320   -0.5580    0.0000 C   0  0  0  0  0  0  0  0  0  0  0  0
    3.7320   -1.5580    0.0000 C   0  0  0  0  0  0  0  0  0  0  0  0
    2.0000   -1.5580    0.0000 C   0  0  0  0  0  0  0  0  0  0  0  0
    9.4380    1.3514    0.0000 H   0  0  0  0  0  0  0  0  0  0  0  0
   10.3092   -1.5718    0.0000 H   0  0  0  0  0  0  0  0  0  0  0  0
   11.0446   -2.0493    0.0000 H   0  0  0  0  0  0  0  0  0  0  0  0
   11.5221   -1.3140    0.0000 H   0  0  0  0  0  0  0  0  0  0  0  0
   11.8500    1.8058    0.0000 H   0  0  0  0  0  0  0  0  0  0  0  0
   11.5358    2.6244    0.0000 H   0  0  0  0  0  0  0  0  0  0  0  0
   10.7172    2.3102    0.0000 H   0  0  0  0  0  0  0  0  0  0  0  0
    8.4607    0.4170    0.0000 H   0  0  0  0  0  0  0  0  0  0  0  0
    7.6636    0.4170    0.0000 H   0  0  0  0  0  0  0  0  0  0  0  0
   13.4608    0.6185    0.0000 H   0  0  0  0  0  0  0  0  0  0  0  0
   13.3236    1.4845    0.0000 H   0  0  0  0  0  0  0  0  0  0  0  0
   12.4576    1.3473    0.0000 H   0  0  0  0  0  0  0  0  0  0  0  0
    4.5981    0.5620    0.0000 H   0  0  0  0  0  0  0  0  0  0  0  0
    6.0010   -1.8680    0.0000 H   0  0  0  0  0  0  0  0  0  0  0  0
    3.1951   -0.2480    0.0000 H   0  0  0  0  0  0  0  0  0  0  0  0
    2.3100   -1.0210    0.0000 H   0  0  0  0  0  0  0  0  0  0  0  0
    1.4631   -1.2480    0.0000 H   0  0  0  0  0  0  0  0  0  0  0  0
    1.6900   -2.0949    0.0000 H   0  0  0  0  0  0  0  0  0  0  0  0
  1 16  1  0  0  0  0
  1 18  1  0  0  0  0
  2 13  2  0  0  0  0
  3 15  2  0  0  0  0
  4 18  2  0  0  0  0
  5 23  1  0  0  0  0
  5 24  1  0  0  0  0
  6 10  1  0  0  0  0
  6 11  1  0  0  0  0
  6 25  1  0  0  0  0
  7 21  1  0  0  0  0
  7 23  2  0  0  0  0
  8  9  1  0  0  0  0
  8 10  2  0  0  0  0
  8 12  1  0  0  0  0
  9 11  2  0  0  0  0
  9 15  1  0  0  0  0
 10 13  1  0  0  0  0
 11 14  1  0  0  0  0
 12 26  1  0  0  0  0
 12 27  1  0  0  0  0
 12 28  1  0  0  0  0
 13 16  1  0  0  0  0
 14 29  1  0  0  0  0
 14 30  1  0  0  0  0
 14 31  1  0  0  0  0
 15 17  1  0  0  0  0
 16 32  1  0  0  0  0
 16 33  1  0  0  0  0
 17 34  1  0  0  0  0
 17 35  1  0  0  0  0
 17 36  1  0  0  0  0
 18 19  1  0  0  0  0
 19 20  1  0  0  0  0
 19 21  2  0  0  0  0
 20 22  2  0  0  0  0
 20 37  1  0  0  0  0
 21 38  1  0  0  0  0
 22 23  1  0  0  0  0
 22 39  1  0  0  0  0
 24 40  1  0  0  0  0
 24 41  1  0  0  0  0
 24 42  1  0  0  0  0
M  END
> <PUBCHEM_COMPOUND_CID>
17396316

> <PUBCHEM_COMPOUND_CANONICALIZED>
1

> <PUBCHEM_CACTVS_COMPLEXITY>
495

> <PUBCHEM_CACTVS_HBOND_ACCEPTOR>
6

> <PUBCHEM_CACTVS_HBOND_DONOR>
1

> <PUBCHEM_CACTVS_ROTATABLE_BOND>
7

> <PUBCHEM_CACTVS_SUBSKEYS>
AAADceB7OAAAAAAAAAAAAAAAAAAAAWAAAAAsAAAAAAAAAAAB4AAAHgAQAAAADAzhngY+jJLJlACoA7T3TAKCiCA3IiAI2SH+bNgMJvrEtb+GMahm0BHI6cec/zo+gAAAAAAAAAAAAAAAAAAAAAAAAAAAAA==

> <PUBCHEM_IUPAC_OPENEYE_NAME>
[2-(4-acetyl-3,5-dimethyl-1H-pyrrol-2-yl)-2-oxo-ethyl] 6-methoxypyridine-3-carboxylate

> <PUBCHEM_IUPAC_CAS_NAME>
6-methoxy-3-pyridinecarboxylic acid [2-(4-acetyl-3,5-dimethyl-1H-pyrrol-2-yl)-2-oxoethyl] ester

> <PUBCHEM_IUPAC_NAME>
[2-(4-acetyl-3,5-dimethyl-1H-pyrrol-2-yl)-2-oxoethyl] 6-methoxypyridine-3-carboxylate

> <PUBCHEM_IUPAC_SYSTEMATIC_NAME>
[2-(4-ethanoyl-3,5-dimethyl-1H-pyrrol-2-yl)-2-oxidanylidene-ethyl] 6-methoxypyridine-3-carboxylate

> <PUBCHEM_IUPAC_TRADITIONAL_NAME>
6-methoxynicotinic acid [2-(4-acetyl-3,5-dimethyl-1H-pyrrol-2-yl)-2-keto-ethyl] ester

> <PUBCHEM_IUPAC_INCHI>
InChI=1S/C17H18N2O5/c1-9-15(11(3)20)10(2)19-16(9)13(21)8-24-17(22)12-5-6-14(23-4)18-7-12/h5-7,19H,8H2,1-4H3

> <PUBCHEM_IUPAC_INCHIKEY>
OOZUPWUMDQDGDY-UHFFFAOYSA-N

> <PUBCHEM_XLOGP3_AA>
2

> <PUBCHEM_EXACT_MASS>
330.121572

> <PUBCHEM_MOLECULAR_FORMULA>
C17H18N2O5

> <PUBCHEM_MOLECULAR_WEIGHT>
330.33522

> <PUBCHEM_OPENEYE_CAN_SMILES>
CC1=C(NC(=C1C(=O)C)C)C(=O)COC(=O)C2=CN=C(C=C2)OC

> <PUBCHEM_OPENEYE_ISO_SMILES>
CC1=C(NC(=C1C(=O)C)C)C(=O)COC(=O)C2=CN=C(C=C2)OC

> <PUBCHEM_CACTVS_TPSA>
98.4

> <PUBCHEM_MONOISOTOPIC_WEIGHT>
330.121572

> <PUBCHEM_TOTAL_CHARGE>
0

> <PUBCHEM_HEAVY_ATOM_COUNT>
24

> <PUBCHEM_ATOM_DEF_STEREO_COUNT>
0

> <PUBCHEM_ATOM_UDEF_STEREO_COUNT>
0

> <PUBCHEM_BOND_DEF_STEREO_COUNT>
0

> <PUBCHEM_BOND_UDEF_STEREO_COUNT>
0

> <PUBCHEM_ISOTOPIC_ATOM_COUNT>
0

> <PUBCHEM_COMPONENT_COUNT>
1

> <PUBCHEM_CACTVS_TAUTO_COUNT>
62

> <PUBCHEM_COORDINATE_TYPE>
1
5
255

> <PUBCHEM_BONDANNOTATIONS>
19  20  8
19  21  8
20  22  8
22  23  8
6  10  8
6  11  8
7  21  8
7  23  8
8  10  8
8  9  8
9  11  8

$$$$

