5127
  -OEChem-06261200322D

 32 32  0     1  0  0  0  0  0999 V2000
    4.5981    1.9400    0.0000 S   0  0  0  0  0  0  0  0  0  0  0  0
    5.4641    0.4400    0.0000 O   0  0  0  0  0  0  0  0  0  0  0  0
    4.5981   -1.0600    0.0000 O   0  0  0  0  0  0  0  0  0  0  0  0
    5.4641    2.4400    0.0000 N   0  0  0  0  0  0  0  0  0  0  0  0
    4.0981    2.8060    0.0000 N   0  0  0  0  0  0  0  0  0  0  0  0
    3.7320    0.4400    0.0000 C   0  0  3  0  0  0  0  0  0  0  0  0
    3.7320    1.4400    0.0000 C   0  0  0  0  0  0  0  0  0  0  0  0
    2.8660   -0.0600    0.0000 C   0  0  0  0  0  0  0  0  0  0  0  0
    2.8660   -1.0600    0.0000 C   0  0  0  0  0  0  0  0  0  0  0  0
    4.5981   -0.0600    0.0000 C   0  0  0  0  0  0  0  0  0  0  0  0
    5.0981    1.0740    0.0000 C   0  0  0  0  0  0  0  0  0  0  0  0
    2.0000   -1.5600    0.0000 C   0  0  0  0  0  0  0  0  0  0  0  0
    3.7320   -1.5600    0.0000 C   0  0  0  0  0  0  0  0  0  0  0  0
    2.0000   -2.5600    0.0000 C   0  0  0  0  0  0  0  0  0  0  0  0
    3.7320   -2.5600    0.0000 C   0  0  0  0  0  0  0  0  0  0  0  0
    2.8660   -3.0600    0.0000 C   0  0  0  0  0  0  0  0  0  0  0  0
    3.7320   -0.4100    0.0000 H   0  0  0  0  0  0  0  0  0  0  0  0
    3.5200    2.0226    0.0000 H   0  0  0  0  0  0  0  0  0  0  0  0
    3.1215    1.3323    0.0000 H   0  0  0  0  0  0  0  0  0  0  0  0
    2.6540    0.5226    0.0000 H   0  0  0  0  0  0  0  0  0  0  0  0
    2.2554   -0.1677    0.0000 H   0  0  0  0  0  0  0  0  0  0  0  0
    4.5611    0.7640    0.0000 H   0  0  0  0  0  0  0  0  0  0  0  0
    5.4081    0.5370    0.0000 H   0  0  0  0  0  0  0  0  0  0  0  0
    5.6350    1.3840    0.0000 H   0  0  0  0  0  0  0  0  0  0  0  0
    1.4631   -1.2500    0.0000 H   0  0  0  0  0  0  0  0  0  0  0  0
    4.2690   -1.2500    0.0000 H   0  0  0  0  0  0  0  0  0  0  0  0
    5.4641    3.0600    0.0000 H   0  0  0  0  0  0  0  0  0  0  0  0
    3.4781    2.8060    0.0000 H   0  0  0  0  0  0  0  0  0  0  0  0
    1.4631   -2.8700    0.0000 H   0  0  0  0  0  0  0  0  0  0  0  0
    4.2690   -2.8700    0.0000 H   0  0  0  0  0  0  0  0  0  0  0  0
    6.0010    0.1300    0.0000 H   0  0  0  0  0  0  0  0  0  0  0  0
    2.8660   -3.6800    0.0000 H   0  0  0  0  0  0  0  0  0  0  0  0
  1  4  2  0  0  0  0
  1  5  2  0  0  0  0
  1  7  1  0  0  0  0
  1 11  1  0  0  0  0
  2 10  1  0  0  0  0
  2 31  1  0  0  0  0
  3 10  2  0  0  0  0
  4 27  1  0  0  0  0
  5 28  1  0  0  0  0
  6  7  1  0  0  0  0
  6  8  1  0  0  0  0
  6 10  1  0  0  0  0
  6 17  1  0  0  0  0
  7 18  1  0  0  0  0
  7 19  1  0  0  0  0
  8  9  1  0  0  0  0
  8 20  1  0  0  0  0
  8 21  1  0  0  0  0
  9 12  2  0  0  0  0
  9 13  1  0  0  0  0
 11 22  1  0  0  0  0
 11 23  1  0  0  0  0
 11 24  1  0  0  0  0
 12 14  1  0  0  0  0
 12 25  1  0  0  0  0
 13 15  2  0  0  0  0
 13 26  1  0  0  0  0
 14 16  2  0  0  0  0
 14 29  1  0  0  0  0
 15 16  1  0  0  0  0
 15 30  1  0  0  0  0
 16 32  1  0  0  0  0
M  END
> <PUBCHEM_COMPOUND_CID>
5127

> <PUBCHEM_COMPOUND_CANONICALIZED>
1

> <PUBCHEM_CACTVS_COMPLEXITY>
326

> <PUBCHEM_CACTVS_HBOND_ACCEPTOR>
4

> <PUBCHEM_CACTVS_HBOND_DONOR>
3

> <PUBCHEM_CACTVS_ROTATABLE_BOND>
5

> <PUBCHEM_CACTVS_SUBSKEYS>
AAADceBzMABAAAAAAAAAAAAAAAAAAAAAAAAwAAAAAAAAAAABAAAAGgQQSAAADQCE2ACyCIAAAgiIAiDSCAACAAAgABAIiAEAAIgIIDKgERCAYAAkgAAIiAeIyOCOAAAAAAAAAAAAAAAAAAAAAAAAAAAAAA==

> <PUBCHEM_IUPAC_OPENEYE_NAME>
2-benzyl-3-(methylsulfonodiimidoyl)propanoic acid

> <PUBCHEM_IUPAC_CAS_NAME>
2-[(methylsulfonodiimidoyl)methyl]-3-phenylpropanoic acid

> <PUBCHEM_IUPAC_NAME>
2-benzyl-3-(methylsulfonodiimidoyl)propanoic acid

> <PUBCHEM_IUPAC_SYSTEMATIC_NAME>
2-[(methylsulfonodiimidoyl)methyl]-3-phenyl-propanoic acid

> <PUBCHEM_IUPAC_TRADITIONAL_NAME>
2-benzyl-3-(methylsulfonodiimidoyl)propionic acid

> <PUBCHEM_IUPAC_INCHI>
InChI=1S/C11H16N2O2S/c1-16(12,13)8-10(11(14)15)7-9-5-3-2-4-6-9/h2-6,10,12-13H,7-8H2,1H3,(H,14,15)

> <PUBCHEM_IUPAC_INCHIKEY>
FKHYVJWYNYZPCA-UHFFFAOYSA-N

> <PUBCHEM_XLOGP3_AA>
3.7

> <PUBCHEM_EXACT_MASS>
240.093249

> <PUBCHEM_MOLECULAR_FORMULA>
C11H16N2O2S

> <PUBCHEM_MOLECULAR_WEIGHT>
240.32194

> <PUBCHEM_OPENEYE_CAN_SMILES>
CS(=N)(=N)CC(CC1=CC=CC=C1)C(=O)O

> <PUBCHEM_OPENEYE_ISO_SMILES>
CS(=N)(=N)CC(CC1=CC=CC=C1)C(=O)O

> <PUBCHEM_CACTVS_TPSA>
93.4

> <PUBCHEM_MONOISOTOPIC_WEIGHT>
240.093249

> <PUBCHEM_TOTAL_CHARGE>
0

> <PUBCHEM_HEAVY_ATOM_COUNT>
16

> <PUBCHEM_ATOM_DEF_STEREO_COUNT>
0

> <PUBCHEM_ATOM_UDEF_STEREO_COUNT>
1

> <PUBCHEM_BOND_DEF_STEREO_COUNT>
0

> <PUBCHEM_BOND_UDEF_STEREO_COUNT>
0

> <PUBCHEM_ISOTOPIC_ATOM_COUNT>
0

> <PUBCHEM_COMPONENT_COUNT>
1

> <PUBCHEM_CACTVS_TAUTO_COUNT>
1

> <PUBCHEM_COORDINATE_TYPE>
1
5
255

> <PUBCHEM_BONDANNOTATIONS>
12  14  8
13  15  8
14  16  8
15  16  8
6  17  3
9  12  8
9  13  8

$$$$

