51090965
  -OEChem-06241223012D

 49 50  0     1  0  0  0  0  0999 V2000
    5.0823   -0.9145    0.0000 O   0  0  0  0  0  0  0  0  0  0  0  0
    4.0432    3.5487    0.0000 N   0  0  0  0  0  0  0  0  0  0  0  0
    3.6810    0.1036    0.0000 N   0  0  0  0  0  0  0  0  0  0  0  0
    3.0000   -3.1578    0.0000 N   0  0  0  0  0  0  0  0  0  0  0  0
    2.1910   -2.5701    0.0000 N   0  0  0  0  0  0  0  0  0  0  0  0
    4.5432    4.4147    0.0000 C   0  0  0  0  0  0  0  0  0  0  0  0
    3.0650    3.7566    0.0000 C   0  0  0  0  0  0  0  0  0  0  0  0
    4.4499    2.6351    0.0000 C   0  0  0  0  0  0  0  0  0  0  0  0
    3.8740    5.1578    0.0000 C   0  0  0  0  0  0  0  0  0  0  0  0
    2.9605    4.7511    0.0000 C   0  0  0  0  0  0  0  0  0  0  0  0
    3.8621    1.8261    0.0000 C   0  0  3  0  0  0  0  0  0  0  0  0
    4.2688    0.9126    0.0000 C   0  0  0  0  0  0  0  0  0  0  0  0
    2.8676    1.9306    0.0000 C   0  0  0  0  0  0  0  0  0  0  0  0
    3.0000   -4.1578    0.0000 C   0  0  0  0  0  0  0  0  0  0  0  0
    4.0878   -0.8100    0.0000 C   0  0  0  0  0  0  0  0  0  0  0  0
    3.5000   -1.6190    0.0000 C   0  0  0  0  0  0  0  0  0  0  0  0
    3.0000   -5.1578    0.0000 C   0  0  0  0  0  0  0  0  0  0  0  0
    2.0000   -4.1578    0.0000 C   0  0  0  0  0  0  0  0  0  0  0  0
    4.0000   -4.1578    0.0000 C   0  0  0  0  0  0  0  0  0  0  0  0
    3.8090   -2.5701    0.0000 C   0  0  0  0  0  0  0  0  0  0  0  0
    2.5000   -1.6190    0.0000 C   0  0  0  0  0  0  0  0  0  0  0  0
    2.4450    3.7566    0.0000 H   0  0  0  0  0  0  0  0  0  0  0  0
    3.0002    3.1400    0.0000 H   0  0  0  0  0  0  0  0  0  0  0  0
    5.0447    4.0503    0.0000 H   0  0  0  0  0  0  0  0  0  0  0  0
    4.9580    4.8754    0.0000 H   0  0  0  0  0  0  0  0  0  0  0  0
    4.8806    2.1891    0.0000 H   0  0  0  0  0  0  0  0  0  0  0  0
    4.9639    2.9818    0.0000 H   0  0  0  0  0  0  0  0  0  0  0  0
    4.3756    5.5223    0.0000 H   0  0  0  0  0  0  0  0  0  0  0  0
    3.5640    5.6948    0.0000 H   0  0  0  0  0  0  0  0  0  0  0  0
    2.7689    5.3408    0.0000 H   0  0  0  0  0  0  0  0  0  0  0  0
    2.3540    4.6222    0.0000 H   0  0  0  0  0  0  0  0  0  0  0  0
    3.6099    2.3925    0.0000 H   0  0  0  0  0  0  0  0  0  0  0  0
    4.6995    0.4666    0.0000 H   0  0  0  0  0  0  0  0  0  0  0  0
    4.7828    1.2593    0.0000 H   0  0  0  0  0  0  0  0  0  0  0  0
    2.9324    2.5472    0.0000 H   0  0  0  0  0  0  0  0  0  0  0  0
    2.2510    1.9954    0.0000 H   0  0  0  0  0  0  0  0  0  0  0  0
    2.8028    1.3140    0.0000 H   0  0  0  0  0  0  0  0  0  0  0  0
    3.0644    0.1684    0.0000 H   0  0  0  0  0  0  0  0  0  0  0  0
    2.3800   -5.1578    0.0000 H   0  0  0  0  0  0  0  0  0  0  0  0
    3.0000   -5.7778    0.0000 H   0  0  0  0  0  0  0  0  0  0  0  0
    3.6200   -5.1578    0.0000 H   0  0  0  0  0  0  0  0  0  0  0  0
    2.0000   -3.5378    0.0000 H   0  0  0  0  0  0  0  0  0  0  0  0
    1.3800   -4.1578    0.0000 H   0  0  0  0  0  0  0  0  0  0  0  0
    2.0000   -4.7778    0.0000 H   0  0  0  0  0  0  0  0  0  0  0  0
    4.0000   -4.7778    0.0000 H   0  0  0  0  0  0  0  0  0  0  0  0
    4.6200   -4.1578    0.0000 H   0  0  0  0  0  0  0  0  0  0  0  0
    4.0000   -3.5378    0.0000 H   0  0  0  0  0  0  0  0  0  0  0  0
    4.3987   -2.7616    0.0000 H   0  0  0  0  0  0  0  0  0  0  0  0
    2.1356   -1.1174    0.0000 H   0  0  0  0  0  0  0  0  0  0  0  0
  1 15  2  0  0  0  0
  2  6  1  0  0  0  0
  2  7  1  0  0  0  0
  2  8  1  0  0  0  0
  3 12  1  0  0  0  0
  3 15  1  0  0  0  0
  3 38  1  0  0  0  0
  4  5  1  0  0  0  0
  4 14  1  0  0  0  0
  4 20  1  0  0  0  0
  5 21  2  0  0  0  0
  6  9  1  0  0  0  0
  6 24  1  0  0  0  0
  6 25  1  0  0  0  0
  7 10  1  0  0  0  0
  7 22  1  0  0  0  0
  7 23  1  0  0  0  0
  8 11  1  0  0  0  0
  8 26  1  0  0  0  0
  8 27  1  0  0  0  0
  9 10  1  0  0  0  0
  9 28  1  0  0  0  0
  9 29  1  0  0  0  0
 10 30  1  0  0  0  0
 10 31  1  0  0  0  0
 11 12  1  0  0  0  0
 11 13  1  0  0  0  0
 11 32  1  0  0  0  0
 12 33  1  0  0  0  0
 12 34  1  0  0  0  0
 13 35  1  0  0  0  0
 13 36  1  0  0  0  0
 13 37  1  0  0  0  0
 14 17  1  0  0  0  0
 14 18  1  0  0  0  0
 14 19  1  0  0  0  0
 15 16  1  0  0  0  0
 16 20  2  0  0  0  0
 16 21  1  0  0  0  0
 17 39  1  0  0  0  0
 17 40  1  0  0  0  0
 17 41  1  0  0  0  0
 18 42  1  0  0  0  0
 18 43  1  0  0  0  0
 18 44  1  0  0  0  0
 19 45  1  0  0  0  0
 19 46  1  0  0  0  0
 19 47  1  0  0  0  0
 20 48  1  0  0  0  0
 21 49  1  0  0  0  0
M  END
> <PUBCHEM_COMPOUND_CID>
51090965

> <PUBCHEM_COMPOUND_CANONICALIZED>
1

> <PUBCHEM_CACTVS_COMPLEXITY>
347

> <PUBCHEM_CACTVS_HBOND_ACCEPTOR>
3

> <PUBCHEM_CACTVS_HBOND_DONOR>
1

> <PUBCHEM_CACTVS_ROTATABLE_BOND>
6

> <PUBCHEM_CACTVS_SUBSKEYS>
AAADceB7oAAAAAAAAAAAAAAAAAAAAWLAAAAAAAAAAAAAAAABgAAAHgAYAAAADYjBmgQugJPIAACqAhF3VACQBAAVgAAQEKEoRFAAAIhAwUAEhIgAHgDAAMAAAAAAAAAAAAAAAAAAAAAAAAAAAAAAAAAAAA==

> <PUBCHEM_IUPAC_OPENEYE_NAME>
1-tert-butyl-N-(2-methyl-3-pyrrolidin-1-yl-propyl)pyrazole-4-carboxamide

> <PUBCHEM_IUPAC_CAS_NAME>
1-tert-butyl-N-[2-methyl-3-(1-pyrrolidinyl)propyl]-4-pyrazolecarboxamide

> <PUBCHEM_IUPAC_NAME>
1-tert-butyl-N-(2-methyl-3-pyrrolidin-1-ylpropyl)pyrazole-4-carboxamide

> <PUBCHEM_IUPAC_SYSTEMATIC_NAME>
1-tert-butyl-N-(2-methyl-3-pyrrolidin-1-yl-propyl)pyrazole-4-carboxamide

> <PUBCHEM_IUPAC_TRADITIONAL_NAME>
1-tert-butyl-N-(2-methyl-3-pyrrolidino-propyl)pyrazole-4-carboxamide

> <PUBCHEM_IUPAC_INCHI>
InChI=1S/C16H28N4O/c1-13(11-19-7-5-6-8-19)9-17-15(21)14-10-18-20(12-14)16(2,3)4/h10,12-13H,5-9,11H2,1-4H3,(H,17,21)

> <PUBCHEM_IUPAC_INCHIKEY>
WTDPNOGRSXLVHX-UHFFFAOYSA-N

> <PUBCHEM_XLOGP3_AA>
1.7

> <PUBCHEM_EXACT_MASS>
292.226312

> <PUBCHEM_MOLECULAR_FORMULA>
C16H28N4O

> <PUBCHEM_MOLECULAR_WEIGHT>
292.41972

> <PUBCHEM_OPENEYE_CAN_SMILES>
CC(CNC(=O)C1=CN(N=C1)C(C)(C)C)CN2CCCC2

> <PUBCHEM_OPENEYE_ISO_SMILES>
CC(CNC(=O)C1=CN(N=C1)C(C)(C)C)CN2CCCC2

> <PUBCHEM_CACTVS_TPSA>
50.2

> <PUBCHEM_MONOISOTOPIC_WEIGHT>
292.226312

> <PUBCHEM_TOTAL_CHARGE>
0

> <PUBCHEM_HEAVY_ATOM_COUNT>
21

> <PUBCHEM_ATOM_DEF_STEREO_COUNT>
0

> <PUBCHEM_ATOM_UDEF_STEREO_COUNT>
1

> <PUBCHEM_BOND_DEF_STEREO_COUNT>
0

> <PUBCHEM_BOND_UDEF_STEREO_COUNT>
0

> <PUBCHEM_ISOTOPIC_ATOM_COUNT>
0

> <PUBCHEM_COMPONENT_COUNT>
1

> <PUBCHEM_CACTVS_TAUTO_COUNT>
2

> <PUBCHEM_COORDINATE_TYPE>
1
5
255

> <PUBCHEM_BONDANNOTATIONS>
11  13  3
16  20  8
16  21  8
4  20  8
4  5  8
5  21  8

$$$$

