8773
  -OEChem-06261203052D

 37 36  0     1  0  0  0  0  0999 V2000
    6.0010   -2.1900    0.0000 O   0  0  0  0  0  0  0  0  0  0  0  0
    2.5369   -2.1900    0.0000 O   0  0  0  0  0  0  0  0  0  0  0  0
    7.7331    2.8100    0.0000 O   0  0  0  0  0  0  0  0  0  0  0  0
    2.5369    2.8100    0.0000 O   0  0  0  0  0  0  0  0  0  0  0  0
    4.2690   -2.1900    0.0000 O   0  0  0  0  0  0  0  0  0  0  0  0
    6.8671    1.3100    0.0000 O   0  0  0  0  0  0  0  0  0  0  0  0
    3.4030    1.3100    0.0000 O   0  0  0  0  0  0  0  0  0  0  0  0
    4.2690   -0.1900    0.0000 N   0  0  3  0  0  0  0  0  0  0  0  0
    5.1350    2.3100    0.0000 N   0  0  0  0  0  0  0  0  0  0  0  0
    4.2690    0.8100    0.0000 C   0  0  0  0  0  0  0  0  0  0  0  0
    5.1350    1.3100    0.0000 C   0  0  0  0  0  0  0  0  0  0  0  0
    5.1350   -0.6900    0.0000 C   0  0  0  0  0  0  0  0  0  0  0  0
    3.4030   -0.6900    0.0000 C   0  0  0  0  0  0  0  0  0  0  0  0
    6.0010    2.8100    0.0000 C   0  0  0  0  0  0  0  0  0  0  0  0
    4.2690    2.8100    0.0000 C   0  0  0  0  0  0  0  0  0  0  0  0
    5.1350   -1.6900    0.0000 C   0  0  0  0  0  0  0  0  0  0  0  0
    3.4030   -1.6900    0.0000 C   0  0  0  0  0  0  0  0  0  0  0  0
    3.4030    2.3100    0.0000 C   0  0  0  0  0  0  0  0  0  0  0  0
    6.8671    2.3100    0.0000 C   0  0  0  0  0  0  0  0  0  0  0  0
    4.0569    1.3926    0.0000 H   0  0  0  0  0  0  0  0  0  0  0  0
    3.6584    0.7023    0.0000 H   0  0  0  0  0  0  0  0  0  0  0  0
    5.3471    0.7274    0.0000 H   0  0  0  0  0  0  0  0  0  0  0  0
    5.7456    1.4177    0.0000 H   0  0  0  0  0  0  0  0  0  0  0  0
    5.7456   -0.7977    0.0000 H   0  0  0  0  0  0  0  0  0  0  0  0
    5.3471   -0.1074    0.0000 H   0  0  0  0  0  0  0  0  0  0  0  0
    3.1909   -0.1074    0.0000 H   0  0  0  0  0  0  0  0  0  0  0  0
    2.7924   -0.7977    0.0000 H   0  0  0  0  0  0  0  0  0  0  0  0
    6.3996    3.2850    0.0000 H   0  0  0  0  0  0  0  0  0  0  0  0
    5.6025    3.2850    0.0000 H   0  0  0  0  0  0  0  0  0  0  0  0
    4.6675    3.2850    0.0000 H   0  0  0  0  0  0  0  0  0  0  0  0
    3.8705    3.2850    0.0000 H   0  0  0  0  0  0  0  0  0  0  0  0
    4.5244   -1.5823    0.0000 H   0  0  0  0  0  0  0  0  0  0  0  0
    4.9230   -2.2726    0.0000 H   0  0  0  0  0  0  0  0  0  0  0  0
    6.0010   -2.8100    0.0000 H   0  0  0  0  0  0  0  0  0  0  0  0
    2.5369   -2.8100    0.0000 H   0  0  0  0  0  0  0  0  0  0  0  0
    8.2700    2.5000    0.0000 H   0  0  0  0  0  0  0  0  0  0  0  0
    2.0000    2.5000    0.0000 H   0  0  0  0  0  0  0  0  0  0  0  0
  1 16  1  0  0  0  0
  1 34  1  0  0  0  0
  2 17  1  0  0  0  0
  2 35  1  0  0  0  0
  3 19  1  0  0  0  0
  3 36  1  0  0  0  0
  4 18  1  0  0  0  0
  4 37  1  0  0  0  0
  5 17  2  0  0  0  0
  6 19  2  0  0  0  0
  7 18  2  0  0  0  0
  8 10  1  0  0  0  0
  8 12  1  0  0  0  0
  8 13  1  0  0  0  0
  9 11  1  0  0  0  0
  9 14  1  0  0  0  0
  9 15  1  0  0  0  0
 10 11  1  0  0  0  0
 10 20  1  0  0  0  0
 10 21  1  0  0  0  0
 11 22  1  0  0  0  0
 11 23  1  0  0  0  0
 12 16  1  0  0  0  0
 12 24  1  0  0  0  0
 12 25  1  0  0  0  0
 13 17  1  0  0  0  0
 13 26  1  0  0  0  0
 13 27  1  0  0  0  0
 14 19  1  0  0  0  0
 14 28  1  0  0  0  0
 14 29  1  0  0  0  0
 15 18  1  0  0  0  0
 15 30  1  0  0  0  0
 15 31  1  0  0  0  0
 16 32  1  0  0  0  0
 16 33  1  0  0  0  0
M  END
> <PUBCHEM_COMPOUND_CID>
8773

> <PUBCHEM_COMPOUND_CANONICALIZED>
1

> <PUBCHEM_CACTVS_COMPLEXITY>
305

> <PUBCHEM_CACTVS_HBOND_ACCEPTOR>
9

> <PUBCHEM_CACTVS_HBOND_DONOR>
4

> <PUBCHEM_CACTVS_ROTATABLE_BOND>
11

> <PUBCHEM_CACTVS_SUBSKEYS>
AAADceBzOAAAAAAAAAAAAAAAAAAAAAAAAAAAAAAAAAAAAAAAAAAAHgAACAAAAADhgAYACAMAAgAIAACQCAAAAAAAAAAAAACIAAACUAAAACAQAAAAAACQAAAAAAAAAAAAAAAAAAAAAAAAAAAAAAAAAAAAAA==

> <PUBCHEM_IUPAC_OPENEYE_NAME>
2-[2-[bis(carboxymethyl)amino]ethyl-(2-hydroxyethyl)amino]acetic acid

> <PUBCHEM_IUPAC_CAS_NAME>
2-[2-[bis(carboxymethyl)amino]ethyl-(2-hydroxyethyl)amino]acetic acid

> <PUBCHEM_IUPAC_NAME>
2-[2-[bis(carboxymethyl)amino]ethyl-(2-hydroxyethyl)amino]acetic acid

> <PUBCHEM_IUPAC_SYSTEMATIC_NAME>
2-[2-[bis(2-hydroxy-2-oxoethyl)amino]ethyl-(2-hydroxyethyl)amino]ethanoic acid

> <PUBCHEM_IUPAC_TRADITIONAL_NAME>
2-[2-[bis(carboxymethyl)amino]ethyl-(2-hydroxyethyl)amino]acetic acid

> <PUBCHEM_IUPAC_INCHI>
InChI=1S/C10H18N2O7/c13-4-3-11(5-8(14)15)1-2-12(6-9(16)17)7-10(18)19/h13H,1-7H2,(H,14,15)(H,16,17)(H,18,19)

> <PUBCHEM_IUPAC_INCHIKEY>
URDCARMUOSMFFI-UHFFFAOYSA-N

> <PUBCHEM_XLOGP3_AA>
-6.2

> <PUBCHEM_EXACT_MASS>
278.111401

> <PUBCHEM_MOLECULAR_FORMULA>
C10H18N2O7

> <PUBCHEM_MOLECULAR_WEIGHT>
278.25912

> <PUBCHEM_OPENEYE_CAN_SMILES>
C(CN(CC(=O)O)CC(=O)O)N(CCO)CC(=O)O

> <PUBCHEM_OPENEYE_ISO_SMILES>
C(CN(CC(=O)O)CC(=O)O)N(CCO)CC(=O)O

> <PUBCHEM_CACTVS_TPSA>
139

> <PUBCHEM_MONOISOTOPIC_WEIGHT>
278.111401

> <PUBCHEM_TOTAL_CHARGE>
0

> <PUBCHEM_HEAVY_ATOM_COUNT>
19

> <PUBCHEM_ATOM_DEF_STEREO_COUNT>
0

> <PUBCHEM_ATOM_UDEF_STEREO_COUNT>
0

> <PUBCHEM_BOND_DEF_STEREO_COUNT>
0

> <PUBCHEM_BOND_UDEF_STEREO_COUNT>
0

> <PUBCHEM_ISOTOPIC_ATOM_COUNT>
0

> <PUBCHEM_COMPONENT_COUNT>
1

> <PUBCHEM_CACTVS_TAUTO_COUNT>
1

> <PUBCHEM_COORDINATE_TYPE>
1
5
255

$$$$

