4720
  -OEChem-06261200182D

104105  0     1  0  0  0  0  0999 V2000
    9.7942    0.5000    0.0000 O   0  0  0  0  0  0  0  0  0  0  0  0
    6.3301   -0.5000    0.0000 O   0  0  0  0  0  0  0  0  0  0  0  0
    9.7942    2.5000    0.0000 O   0  0  0  0  0  0  0  0  0  0  0  0
    6.3301   -2.5000    0.0000 O   0  0  0  0  0  0  0  0  0  0  0  0
    6.3301    2.5000    0.0000 C   0  0  3  0  0  0  0  0  0  0  0  0
    9.7942   -2.5000    0.0000 C   0  0  3  0  0  0  0  0  0  0  0  0
    5.4641    3.0000    0.0000 C   0  0  0  0  0  0  0  0  0  0  0  0
   10.6603   -3.0000    0.0000 C   0  0  0  0  0  0  0  0  0  0  0  0
    8.9282   -2.0000    0.0000 C   0  0  0  0  0  0  0  0  0  0  0  0
    7.1962    2.0000    0.0000 C   0  0  0  0  0  0  0  0  0  0  0  0
    5.8301    1.6340    0.0000 C   0  0  0  0  0  0  0  0  0  0  0  0
   10.2942   -1.6340    0.0000 C   0  0  0  0  0  0  0  0  0  0  0  0
    5.4641    4.0000    0.0000 C   0  0  0  0  0  0  0  0  0  0  0  0
   10.6603   -4.0000    0.0000 C   0  0  0  0  0  0  0  0  0  0  0  0
    8.0622    0.5000    0.0000 C   0  0  0  0  0  0  0  0  0  0  0  0
    8.0622   -0.5000    0.0000 C   0  0  0  0  0  0  0  0  0  0  0  0
    7.1962    1.0000    0.0000 C   0  0  0  0  0  0  0  0  0  0  0  0
    8.9282   -1.0000    0.0000 C   0  0  0  0  0  0  0  0  0  0  0  0
    6.8301    3.3660    0.0000 C   0  0  0  0  0  0  0  0  0  0  0  0
    9.2942   -3.3660    0.0000 C   0  0  0  0  0  0  0  0  0  0  0  0
    8.0622    2.5000    0.0000 C   0  0  0  0  0  0  0  0  0  0  0  0
    8.0622   -2.5000    0.0000 C   0  0  0  0  0  0  0  0  0  0  0  0
    8.9282    1.0000    0.0000 C   0  0  0  0  0  0  0  0  0  0  0  0
    7.1962   -1.0000    0.0000 C   0  0  0  0  0  0  0  0  0  0  0  0
    8.9282    2.0000    0.0000 C   0  0  0  0  0  0  0  0  0  0  0  0
    7.1962   -2.0000    0.0000 C   0  0  0  0  0  0  0  0  0  0  0  0
   11.5263   -4.5000    0.0000 C   0  0  0  0  0  0  0  0  0  0  0  0
    4.5981    4.5000    0.0000 C   0  0  0  0  0  0  0  0  0  0  0  0
    4.5981    5.5000    0.0000 C   0  0  0  0  0  0  0  0  0  0  0  0
   11.5263   -5.5000    0.0000 C   0  0  0  0  0  0  0  0  0  0  0  0
    6.3301    4.2320    0.0000 C   0  0  0  0  0  0  0  0  0  0  0  0
    9.7942   -4.2320    0.0000 C   0  0  0  0  0  0  0  0  0  0  0  0
    3.7320    6.0000    0.0000 C   0  0  0  0  0  0  0  0  0  0  0  0
   12.3923   -6.0000    0.0000 C   0  0  0  0  0  0  0  0  0  0  0  0
    5.4641    6.0000    0.0000 C   0  0  0  0  0  0  0  0  0  0  0  0
   10.6603   -6.0000    0.0000 C   0  0  0  0  0  0  0  0  0  0  0  0
   12.3923   -7.0000    0.0000 C   0  0  0  0  0  0  0  0  0  0  0  0
    3.7320    7.0000    0.0000 C   0  0  0  0  0  0  0  0  0  0  0  0
    2.8660    7.5000    0.0000 C   0  0  0  0  0  0  0  0  0  0  0  0
   13.2583   -7.5000    0.0000 C   0  0  0  0  0  0  0  0  0  0  0  0
    2.8660    8.5000    0.0000 C   0  0  0  0  0  0  0  0  0  0  0  0
   13.2583   -8.5000    0.0000 C   0  0  0  0  0  0  0  0  0  0  0  0
    2.0000    9.0000    0.0000 C   0  0  0  0  0  0  0  0  0  0  0  0
    3.7320    9.0000    0.0000 C   0  0  0  0  0  0  0  0  0  0  0  0
   14.1244   -9.0000    0.0000 C   0  0  0  0  0  0  0  0  0  0  0  0
   12.3923   -9.0000    0.0000 C   0  0  0  0  0  0  0  0  0  0  0  0
    4.8535    3.1077    0.0000 H   0  0  0  0  0  0  0  0  0  0  0  0
    5.2520    2.4174    0.0000 H   0  0  0  0  0  0  0  0  0  0  0  0
   11.2708   -3.1077    0.0000 H   0  0  0  0  0  0  0  0  0  0  0  0
   10.8723   -2.4174    0.0000 H   0  0  0  0  0  0  0  0  0  0  0  0
   10.8312   -1.9440    0.0000 H   0  0  0  0  0  0  0  0  0  0  0  0
   10.6042   -1.0970    0.0000 H   0  0  0  0  0  0  0  0  0  0  0  0
    9.7573   -1.3240    0.0000 H   0  0  0  0  0  0  0  0  0  0  0  0
    5.2932    1.9440    0.0000 H   0  0  0  0  0  0  0  0  0  0  0  0
    5.5201    1.0970    0.0000 H   0  0  0  0  0  0  0  0  0  0  0  0
    6.3671    1.3240    0.0000 H   0  0  0  0  0  0  0  0  0  0  0  0
   10.0497   -3.8923    0.0000 H   0  0  0  0  0  0  0  0  0  0  0  0
   10.4482   -4.5826    0.0000 H   0  0  0  0  0  0  0  0  0  0  0  0
    6.0747    3.8923    0.0000 H   0  0  0  0  0  0  0  0  0  0  0  0
    5.6762    4.5826    0.0000 H   0  0  0  0  0  0  0  0  0  0  0  0
    6.6592    0.6900    0.0000 H   0  0  0  0  0  0  0  0  0  0  0  0
    9.4651   -0.6900    0.0000 H   0  0  0  0  0  0  0  0  0  0  0  0
    8.6742   -3.3660    0.0000 H   0  0  0  0  0  0  0  0  0  0  0  0
    7.4501    3.3660    0.0000 H   0  0  0  0  0  0  0  0  0  0  0  0
    8.0622    3.1200    0.0000 H   0  0  0  0  0  0  0  0  0  0  0  0
    8.0622   -3.1200    0.0000 H   0  0  0  0  0  0  0  0  0  0  0  0
    4.0611    4.1900    0.0000 H   0  0  0  0  0  0  0  0  0  0  0  0
   12.0632   -4.1900    0.0000 H   0  0  0  0  0  0  0  0  0  0  0  0
    6.6401    4.7690    0.0000 H   0  0  0  0  0  0  0  0  0  0  0  0
    5.7101    4.2320    0.0000 H   0  0  0  0  0  0  0  0  0  0  0  0
    9.4842   -4.7690    0.0000 H   0  0  0  0  0  0  0  0  0  0  0  0
   10.4142   -4.2320    0.0000 H   0  0  0  0  0  0  0  0  0  0  0  0
    3.1215    6.1077    0.0000 H   0  0  0  0  0  0  0  0  0  0  0  0
    3.5200    5.4174    0.0000 H   0  0  0  0  0  0  0  0  0  0  0  0
   13.0029   -6.1077    0.0000 H   0  0  0  0  0  0  0  0  0  0  0  0
   12.6044   -5.4174    0.0000 H   0  0  0  0  0  0  0  0  0  0  0  0
    5.7741    5.4631    0.0000 H   0  0  0  0  0  0  0  0  0  0  0  0
    6.0010    6.3100    0.0000 H   0  0  0  0  0  0  0  0  0  0  0  0
    5.1541    6.5369    0.0000 H   0  0  0  0  0  0  0  0  0  0  0  0
   10.3503   -5.4631    0.0000 H   0  0  0  0  0  0  0  0  0  0  0  0
   10.1233   -6.3100    0.0000 H   0  0  0  0  0  0  0  0  0  0  0  0
   10.9703   -6.5369    0.0000 H   0  0  0  0  0  0  0  0  0  0  0  0
   10.3312    0.8100    0.0000 H   0  0  0  0  0  0  0  0  0  0  0  0
    5.7932   -0.8100    0.0000 H   0  0  0  0  0  0  0  0  0  0  0  0
    4.3426    6.8923    0.0000 H   0  0  0  0  0  0  0  0  0  0  0  0
    3.9441    7.5826    0.0000 H   0  0  0  0  0  0  0  0  0  0  0  0
   11.7817   -6.8923    0.0000 H   0  0  0  0  0  0  0  0  0  0  0  0
   12.1803   -7.5826    0.0000 H   0  0  0  0  0  0  0  0  0  0  0  0
    9.7942    3.1200    0.0000 H   0  0  0  0  0  0  0  0  0  0  0  0
    6.3301   -3.1200    0.0000 H   0  0  0  0  0  0  0  0  0  0  0  0
    2.3291    7.1900    0.0000 H   0  0  0  0  0  0  0  0  0  0  0  0
   13.7953   -7.1900    0.0000 H   0  0  0  0  0  0  0  0  0  0  0  0
   12.0823   -8.4631    0.0000 H   0  0  0  0  0  0  0  0  0  0  0  0
   11.8554   -9.3100    0.0000 H   0  0  0  0  0  0  0  0  0  0  0  0
   12.7023   -9.5369    0.0000 H   0  0  0  0  0  0  0  0  0  0  0  0
   13.8144   -9.5369    0.0000 H   0  0  0  0  0  0  0  0  0  0  0  0
   14.6613   -9.3100    0.0000 H   0  0  0  0  0  0  0  0  0  0  0  0
   14.4344   -8.4631    0.0000 H   0  0  0  0  0  0  0  0  0  0  0  0
    4.0420    8.4631    0.0000 H   0  0  0  0  0  0  0  0  0  0  0  0
    4.2690    9.3100    0.0000 H   0  0  0  0  0  0  0  0  0  0  0  0
    3.4220    9.5369    0.0000 H   0  0  0  0  0  0  0  0  0  0  0  0
    2.3100    9.5369    0.0000 H   0  0  0  0  0  0  0  0  0  0  0  0
    1.4631    9.3100    0.0000 H   0  0  0  0  0  0  0  0  0  0  0  0
    1.6900    8.4631    0.0000 H   0  0  0  0  0  0  0  0  0  0  0  0
  1 23  1  0  0  0  0
  1 83  1  0  0  0  0
  2 24  1  0  0  0  0
  2 84  1  0  0  0  0
  3 25  1  0  0  0  0
  3 89  1  0  0  0  0
  4 26  1  0  0  0  0
  4 90  1  0  0  0  0
  5  7  1  0  0  0  0
  5 10  1  0  0  0  0
  5 11  1  0  0  0  0
  5 19  1  0  0  0  0
  6  8  1  0  0  0  0
  6  9  1  0  0  0  0
  6 12  1  0  0  0  0
  6 20  1  0  0  0  0
  7 13  1  0  0  0  0
  7 47  1  0  0  0  0
  7 48  1  0  0  0  0
  8 14  1  0  0  0  0
  8 49  1  0  0  0  0
  8 50  1  0  0  0  0
  9 18  1  0  0  0  0
  9 22  2  0  0  0  0
 10 17  1  0  0  0  0
 10 21  2  0  0  0  0
 11 54  1  0  0  0  0
 11 55  1  0  0  0  0
 11 56  1  0  0  0  0
 12 51  1  0  0  0  0
 12 52  1  0  0  0  0
 12 53  1  0  0  0  0
 13 28  1  0  0  0  0
 13 59  1  0  0  0  0
 13 60  1  0  0  0  0
 14 27  1  0  0  0  0
 14 57  1  0  0  0  0
 14 58  1  0  0  0  0
 15 16  1  0  0  0  0
 15 17  2  0  0  0  0
 15 23  1  0  0  0  0
 16 18  2  0  0  0  0
 16 24  1  0  0  0  0
 17 61  1  0  0  0  0
 18 62  1  0  0  0  0
 19 31  2  0  0  0  0
 19 64  1  0  0  0  0
 20 32  2  0  0  0  0
 20 63  1  0  0  0  0
 21 25  1  0  0  0  0
 21 65  1  0  0  0  0
 22 26  1  0  0  0  0
 22 66  1  0  0  0  0
 23 25  2  0  0  0  0
 24 26  2  0  0  0  0
 27 30  2  3  0  0  0
 27 68  1  0  0  0  0
 28 29  2  3  0  0  0
 28 67  1  0  0  0  0
 29 33  1  0  0  0  0
 29 35  1  0  0  0  0
 30 34  1  0  0  0  0
 30 36  1  0  0  0  0
 31 69  1  0  0  0  0
 31 70  1  0  0  0  0
 32 71  1  0  0  0  0
 32 72  1  0  0  0  0
 33 38  1  0  0  0  0
 33 73  1  0  0  0  0
 33 74  1  0  0  0  0
 34 37  1  0  0  0  0
 34 75  1  0  0  0  0
 34 76  1  0  0  0  0
 35 77  1  0  0  0  0
 35 78  1  0  0  0  0
 35 79  1  0  0  0  0
 36 80  1  0  0  0  0
 36 81  1  0  0  0  0
 36 82  1  0  0  0  0
 37 40  1  0  0  0  0
 37 87  1  0  0  0  0
 37 88  1  0  0  0  0
 38 39  1  0  0  0  0
 38 85  1  0  0  0  0
 38 86  1  0  0  0  0
 39 41  2  0  0  0  0
 39 91  1  0  0  0  0
 40 42  2  0  0  0  0
 40 92  1  0  0  0  0
 41 43  1  0  0  0  0
 41 44  1  0  0  0  0
 42 45  1  0  0  0  0
 42 46  1  0  0  0  0
 43102  1  0  0  0  0
 43103  1  0  0  0  0
 43104  1  0  0  0  0
 44 99  1  0  0  0  0
 44100  1  0  0  0  0
 44101  1  0  0  0  0
 45 96  1  0  0  0  0
 45 97  1  0  0  0  0
 45 98  1  0  0  0  0
 46 93  1  0  0  0  0
 46 94  1  0  0  0  0
 46 95  1  0  0  0  0
M  END
> <PUBCHEM_COMPOUND_CID>
4720

> <PUBCHEM_COMPOUND_CANONICALIZED>
1

> <PUBCHEM_CACTVS_COMPLEXITY>
1000

> <PUBCHEM_CACTVS_HBOND_ACCEPTOR>
4

> <PUBCHEM_CACTVS_HBOND_DONOR>
4

> <PUBCHEM_CACTVS_ROTATABLE_BOND>
17

> <PUBCHEM_CACTVS_SUBSKEYS>
AAADcfB8OAAAAAAAAAAAAAAAAAAAAAAAAAAwYAAAAAAAAAABQAAAGgAACAAADgSAmAAyBoAAAgCAAiBCAAACAAAgIAAIiAAGiIgJJiKCERKAcAEkwBEJmAfA4PQPoAADAAAIQABAAAYAABCAAAAAAAAAAA==

> <PUBCHEM_IUPAC_OPENEYE_NAME>
3-[2,3-dihydroxy-5-(1,5,9-trimethyl-1-vinyl-deca-4,8-dienyl)phenyl]-5-(1,5,9-trimethyl-1-vinyl-deca-4,8-dienyl)benzene-1,2-diol

> <PUBCHEM_IUPAC_CAS_NAME>
3-[2,3-dihydroxy-5-(3,7,11-trimethyldodeca-1,6,10-trien-3-yl)phenyl]-5-(3,7,11-trimethyldodeca-1,6,10-trien-3-yl)benzene-1,2-diol

> <PUBCHEM_IUPAC_NAME>
3-[2,3-dihydroxy-5-(3,7,11-trimethyldodeca-1,6,10-trien-3-yl)phenyl]-5-(3,7,11-trimethyldodeca-1,6,10-trien-3-yl)benzene-1,2-diol

> <PUBCHEM_IUPAC_SYSTEMATIC_NAME>
3-[2,3-bis(oxidanyl)-5-(3,7,11-trimethyldodeca-1,6,10-trien-3-yl)phenyl]-5-(3,7,11-trimethyldodeca-1,6,10-trien-3-yl)benzene-1,2-diol

> <PUBCHEM_IUPAC_TRADITIONAL_NAME>
3-[2,3-dihydroxy-5-(1,5,9-trimethyl-1-vinyl-deca-4,8-dienyl)phenyl]-5-(1,5,9-trimethyl-1-vinyl-deca-4,8-dienyl)pyrocatechol

> <PUBCHEM_IUPAC_INCHI>
InChI=1S/C42H58O4/c1-11-41(9,23-15-21-31(7)19-13-17-29(3)4)33-25-35(39(45)37(43)27-33)36-26-34(28-38(44)40(36)46)42(10,12-2)24-16-22-32(8)20-14-18-30(5)6/h11-12,17-18,21-22,25-28,43-46H,1-2,13-16,19-20,23-24H2,3-10H3

> <PUBCHEM_IUPAC_INCHIKEY>
FBBLBOYXADGJGC-UHFFFAOYSA-N

> <PUBCHEM_XLOGP3_AA>
13.7

> <PUBCHEM_EXACT_MASS>
626.43351

> <PUBCHEM_MOLECULAR_FORMULA>
C42H58O4

> <PUBCHEM_MOLECULAR_WEIGHT>
626.90752

> <PUBCHEM_OPENEYE_CAN_SMILES>
CC(=CCCC(=CCCC(C)(C=C)C1=CC(=C(C(=C1)C2=CC(=CC(=C2O)O)C(C)(CCC=C(C)CCC=C(C)C)C=C)O)O)C)C

> <PUBCHEM_OPENEYE_ISO_SMILES>
CC(=CCCC(=CCCC(C)(C=C)C1=CC(=C(C(=C1)C2=CC(=CC(=C2O)O)C(C)(CCC=C(C)CCC=C(C)C)C=C)O)O)C)C

> <PUBCHEM_CACTVS_TPSA>
80.9

> <PUBCHEM_MONOISOTOPIC_WEIGHT>
626.43351

> <PUBCHEM_TOTAL_CHARGE>
0

> <PUBCHEM_HEAVY_ATOM_COUNT>
46

> <PUBCHEM_ATOM_DEF_STEREO_COUNT>
0

> <PUBCHEM_ATOM_UDEF_STEREO_COUNT>
2

> <PUBCHEM_BOND_DEF_STEREO_COUNT>
0

> <PUBCHEM_BOND_UDEF_STEREO_COUNT>
2

> <PUBCHEM_ISOTOPIC_ATOM_COUNT>
0

> <PUBCHEM_COMPONENT_COUNT>
1

> <PUBCHEM_CACTVS_TAUTO_COUNT>
99

> <PUBCHEM_COORDINATE_TYPE>
1
5
255

> <PUBCHEM_BONDANNOTATIONS>
10  17  8
10  21  8
15  17  8
15  23  8
16  18  8
16  24  8
21  25  8
22  26  8
23  25  8
24  26  8
27  30  1
28  29  1
5  10  3
6  9  3
9  18  8
9  22  8

$$$$

