5304
  -OEChem-06261200382D

 47 53  0     1  0  0  0  0  0999 V2000
    6.8022   -2.0986    0.0000 O   0  0  0  0  0  0  0  0  0  0  0  0
    3.5351   -2.1366    0.0000 O   0  0  0  0  0  0  0  0  0  0  0  0
    5.8097    2.0400    0.0000 N   0  0  3  0  0  0  0  0  0  0  0  0
    4.4011   -0.7124    0.0000 N   0  0  0  0  0  0  0  0  0  0  0  0
    5.2014    0.6739    0.0000 C   0  0  3  0  0  0  0  0  0  0  0  0
    5.2014   -0.2503    0.0000 C   0  0  3  0  0  0  0  0  0  0  0  0
    6.0018    1.1360    0.0000 C   0  0  3  0  0  0  0  0  0  0  0  0
    6.0018   -0.7124    0.0000 C   0  0  3  0  0  0  0  0  0  0  0  0
    6.8022   -0.2503    0.0000 C   0  0  3  0  0  0  0  0  0  0  0  0
    6.8022    0.6739    0.0000 C   0  0  0  0  0  0  0  0  0  0  0  0
    4.5146    1.2923    0.0000 C   0  0  0  0  0  0  0  0  0  0  0  0
    3.6007    0.6739    0.0000 C   0  0  0  0  0  0  0  0  0  0  0  0
    4.8906    2.1366    0.0000 C   0  0  0  0  0  0  0  0  0  0  0  0
    6.0018   -1.6366    0.0000 C   0  0  3  0  0  0  0  0  0  0  0  0
    7.6625   -0.5879    0.0000 C   0  0  0  0  0  0  0  0  0  0  0  0
    7.6266    1.2387    0.0000 C   0  0  0  0  0  0  0  0  0  0  0  0
    3.6007   -0.2503    0.0000 C   0  0  0  0  0  0  0  0  0  0  0  0
    5.2014   -2.0986    0.0000 C   0  0  0  0  0  0  0  0  0  0  0  0
    4.4011   -1.6366    0.0000 C   0  0  0  0  0  0  0  0  0  0  0  0
    7.9758   -1.2258    0.0000 C   0  0  0  0  0  0  0  0  0  0  0  0
    2.8004    1.1360    0.0000 C   0  0  0  0  0  0  0  0  0  0  0  0
    7.5239   -2.0884    0.0000 C   0  0  0  0  0  0  0  0  0  0  0  0
    2.8004   -0.7124    0.0000 C   0  0  0  0  0  0  0  0  0  0  0  0
    2.0000    0.6739    0.0000 C   0  0  0  0  0  0  0  0  0  0  0  0
    2.0000   -0.2503    0.0000 C   0  0  0  0  0  0  0  0  0  0  0  0
    4.6645    0.0597    0.0000 H   0  0  0  0  0  0  0  0  0  0  0  0
    6.5034    1.5004    0.0000 H   0  0  0  0  0  0  0  0  0  0  0  0
    6.5388   -1.0224    0.0000 H   0  0  0  0  0  0  0  0  0  0  0  0
    6.8485   -0.8686    0.0000 H   0  0  0  0  0  0  0  0  0  0  0  0
    7.4128    0.5662    0.0000 H   0  0  0  0  0  0  0  0  0  0  0  0
    7.0142    1.2565    0.0000 H   0  0  0  0  0  0  0  0  0  0  0  0
    3.9777    1.6023    0.0000 H   0  0  0  0  0  0  0  0  0  0  0  0
    4.1502    0.7907    0.0000 H   0  0  0  0  0  0  0  0  0  0  0  0
    5.0194    2.7430    0.0000 H   0  0  0  0  0  0  0  0  0  0  0  0
    4.3009    2.3282    0.0000 H   0  0  0  0  0  0  0  0  0  0  0  0
    6.0018   -2.2566    0.0000 H   0  0  0  0  0  0  0  0  0  0  0  0
    8.2418    1.1611    0.0000 H   0  0  0  0  0  0  0  0  0  0  0  0
    7.7922    1.8361    0.0000 H   0  0  0  0  0  0  0  0  0  0  0  0
    4.8029   -2.5736    0.0000 H   0  0  0  0  0  0  0  0  0  0  0  0
    5.6000   -2.5736    0.0000 H   0  0  0  0  0  0  0  0  0  0  0  0
    8.5957   -1.2339    0.0000 H   0  0  0  0  0  0  0  0  0  0  0  0
    2.8004    1.7560    0.0000 H   0  0  0  0  0  0  0  0  0  0  0  0
    7.4305   -2.7013    0.0000 H   0  0  0  0  0  0  0  0  0  0  0  0
    8.1131   -2.2816    0.0000 H   0  0  0  0  0  0  0  0  0  0  0  0
    2.8004   -1.3324    0.0000 H   0  0  0  0  0  0  0  0  0  0  0  0
    1.4631    0.9839    0.0000 H   0  0  0  0  0  0  0  0  0  0  0  0
    1.4631   -0.5603    0.0000 H   0  0  0  0  0  0  0  0  0  0  0  0
  1 14  1  0  0  0  0
  1 22  1  0  0  0  0
  2 19  2  0  0  0  0
  3  7  1  0  0  0  0
  3 13  1  0  0  0  0
  3 16  1  0  0  0  0
  4  6  1  0  0  0  0
  4 17  1  0  0  0  0
  4 19  1  0  0  0  0
  5  6  1  0  0  0  0
  5  7  1  0  0  0  0
  5 11  1  0  0  0  0
  5 12  1  0  0  0  0
  6  8  1  0  0  0  0
  6 26  1  0  0  0  0
  7 10  1  0  0  0  0
  7 27  1  0  0  0  0
  8  9  1  0  0  0  0
  8 14  1  0  0  0  0
  8 28  1  0  0  0  0
  9 10  1  0  0  0  0
  9 15  1  0  0  0  0
  9 29  1  0  0  0  0
 10 30  1  0  0  0  0
 10 31  1  0  0  0  0
 11 13  1  0  0  0  0
 11 32  1  0  0  0  0
 11 33  1  0  0  0  0
 12 17  1  0  0  0  0
 12 21  2  0  0  0  0
 13 34  1  0  0  0  0
 13 35  1  0  0  0  0
 14 18  1  0  0  0  0
 14 36  1  0  0  0  0
 15 16  1  0  0  0  0
 15 20  2  0  0  0  0
 16 37  1  0  0  0  0
 16 38  1  0  0  0  0
 17 23  2  0  0  0  0
 18 19  1  0  0  0  0
 18 39  1  0  0  0  0
 18 40  1  0  0  0  0
 20 22  1  0  0  0  0
 20 41  1  0  0  0  0
 21 24  1  0  0  0  0
 21 42  1  0  0  0  0
 22 43  1  0  0  0  0
 22 44  1  0  0  0  0
 23 25  1  0  0  0  0
 23 45  1  0  0  0  0
 24 25  2  0  0  0  0
 24 46  1  0  0  0  0
 25 47  1  0  0  0  0
M  END
> <PUBCHEM_COMPOUND_CID>
5304

> <PUBCHEM_COMPOUND_CANONICALIZED>
1

> <PUBCHEM_CACTVS_COMPLEXITY>
689

> <PUBCHEM_CACTVS_HBOND_ACCEPTOR>
3

> <PUBCHEM_CACTVS_HBOND_DONOR>
0

> <PUBCHEM_CACTVS_ROTATABLE_BOND>
0

> <PUBCHEM_CACTVS_SUBSKEYS>
AAADceB7MAAAAAAAAAAAAAAAAAAAAWLAAAA8eIEABAAAAFgBAAAAHgAAAAAADzzhmAYwwIMABACIAiVSUACCAAAhAgAIiAEIZIgIJDbA8ZGGMAhmpgDI6AeY2fOfgAAAAAACAACQAASACCQAAAAAAAAAAA==

> <PUBCHEM_IUPAC_OPENEYE_NAME>
4a,5,5a,7,8,13a,15,15a,15b,16-decahydro-2H-4,6-methanoindolo[3,2,1-ij]oxepino[2,3,4-de]pyrrolo[2,3-h]quinoline-14-one

> <PUBCHEM_IUPAC_CAS_NAME>
4a,5,5a,7,8,13a,15,15a,15b,16-decahydro-2H-4,6-methanoindolo[3,2,1-ij]oxepino[2,3,4-de]pyrrolo[2,3-h]quinoline-14-one

> <PUBCHEM_IUPAC_NAME>
4a,5,5a,7,8,13a,15,15a,15b,16-decahydro-2H-4,6-methanoindolo[3,2,1-ij]oxepino[2,3,4-de]pyrrolo[2,3-h]quinoline-14-one

> <PUBCHEM_IUPAC_SYSTEMATIC_NAME>
4a,5,5a,7,8,13a,15,15a,15b,16-decahydro-2H-4,6-methanoindolo[3,2,1-ij]oxepino[2,3,4-de]pyrrolo[2,3-h]quinoline-14-one

> <PUBCHEM_IUPAC_TRADITIONAL_NAME>
4a,5,5a,7,8,13a,15,15a,15b,16-decahydro-2H-4,6-methanoindolo[3,2,1-ij]oxepino[2,3,4-de]pyrrolo[2,3-h]quinoline-14-one

> <PUBCHEM_IUPAC_INCHI>
InChI=1S/C21H22N2O2/c24-18-10-16-19-13-9-17-21(6-7-22(17)11-12(13)5-8-25-16)14-3-1-2-4-15(14)23(18)20(19)21/h1-5,13,16-17,19-20H,6-11H2

> <PUBCHEM_IUPAC_INCHIKEY>
QMGVPVSNSZLJIA-UHFFFAOYSA-N

> <PUBCHEM_XLOGP3>
1.9

> <PUBCHEM_EXACT_MASS>
334.168128

> <PUBCHEM_MOLECULAR_FORMULA>
C21H22N2O2

> <PUBCHEM_MOLECULAR_WEIGHT>
334.41158

> <PUBCHEM_OPENEYE_CAN_SMILES>
C1CN2CC3=CCOC4CC(=O)N5C6C4C3CC2C61C7=CC=CC=C75

> <PUBCHEM_OPENEYE_ISO_SMILES>
C1CN2CC3=CCOC4CC(=O)N5C6C4C3CC2C61C7=CC=CC=C75

> <PUBCHEM_CACTVS_TPSA>
32.8

> <PUBCHEM_MONOISOTOPIC_WEIGHT>
334.168128

> <PUBCHEM_TOTAL_CHARGE>
0

> <PUBCHEM_HEAVY_ATOM_COUNT>
25

> <PUBCHEM_ATOM_DEF_STEREO_COUNT>
0

> <PUBCHEM_ATOM_UDEF_STEREO_COUNT>
6

> <PUBCHEM_BOND_DEF_STEREO_COUNT>
0

> <PUBCHEM_BOND_UDEF_STEREO_COUNT>
0

> <PUBCHEM_ISOTOPIC_ATOM_COUNT>
0

> <PUBCHEM_COMPONENT_COUNT>
1

> <PUBCHEM_CACTVS_TAUTO_COUNT>
2

> <PUBCHEM_COORDINATE_TYPE>
1
5
255

> <PUBCHEM_BONDANNOTATIONS>
12  17  8
12  21  8
14  18  3
17  23  8
21  24  8
23  25  8
24  25  8
6  4  3
5  11  3
7  10  3
8  9  3
9  10  3

$$$$

