6483
  -OEChem-06261201202D

103100  0     0  0  0  0  0  0999 V2000
    7.1962    0.0000    0.0000 Sn  0  0  0  0  0  0  0  0  0  0  0  0
    7.1962    1.0000    0.0000 O   0  0  0  0  0  0  0  0  0  0  0  0
    7.1962   -1.0000    0.0000 O   0  0  0  0  0  0  0  0  0  0  0  0
    5.4641    1.0000    0.0000 O   0  0  0  0  0  0  0  0  0  0  0  0
    5.4641   -1.0000    0.0000 O   0  0  0  0  0  0  0  0  0  0  0  0
    8.0622   -0.5000    0.0000 C   0  0  0  0  0  0  0  0  0  0  0  0
    8.0622    0.5000    0.0000 C   0  0  0  0  0  0  0  0  0  0  0  0
    8.5622    1.3660    0.0000 C   0  0  0  0  0  0  0  0  0  0  0  0
    8.9282    0.0000    0.0000 C   0  0  0  0  0  0  0  0  0  0  0  0
    9.5622    1.3660    0.0000 C   0  0  0  0  0  0  0  0  0  0  0  0
    9.7942   -0.5000    0.0000 C   0  0  0  0  0  0  0  0  0  0  0  0
    6.3301   -1.5000    0.0000 C   0  0  0  0  0  0  0  0  0  0  0  0
    6.3301    1.5000    0.0000 C   0  0  0  0  0  0  0  0  0  0  0  0
    6.3301   -2.5000    0.0000 C   0  0  0  0  0  0  0  0  0  0  0  0
    6.3301    2.5000    0.0000 C   0  0  0  0  0  0  0  0  0  0  0  0
    5.4641   -3.0000    0.0000 C   0  0  0  0  0  0  0  0  0  0  0  0
    5.4641    3.0000    0.0000 C   0  0  0  0  0  0  0  0  0  0  0  0
    5.4641   -4.0000    0.0000 C   0  0  0  0  0  0  0  0  0  0  0  0
    5.4641    4.0000    0.0000 C   0  0  0  0  0  0  0  0  0  0  0  0
    4.5981    4.5000    0.0000 C   0  0  0  0  0  0  0  0  0  0  0  0
    4.5981   -4.5000    0.0000 C   0  0  0  0  0  0  0  0  0  0  0  0
   10.0622    2.2320    0.0000 C   0  0  0  0  0  0  0  0  0  0  0  0
   10.6603    0.0000    0.0000 C   0  0  0  0  0  0  0  0  0  0  0  0
    4.5981   -5.5000    0.0000 C   0  0  0  0  0  0  0  0  0  0  0  0
    4.5981    5.5000    0.0000 C   0  0  0  0  0  0  0  0  0  0  0  0
    3.7320   -6.0000    0.0000 C   0  0  0  0  0  0  0  0  0  0  0  0
    3.7320    6.0000    0.0000 C   0  0  0  0  0  0  0  0  0  0  0  0
    3.7320   -7.0000    0.0000 C   0  0  0  0  0  0  0  0  0  0  0  0
    3.7320    7.0000    0.0000 C   0  0  0  0  0  0  0  0  0  0  0  0
    2.8660    7.5000    0.0000 C   0  0  0  0  0  0  0  0  0  0  0  0
    2.8660   -7.5000    0.0000 C   0  0  0  0  0  0  0  0  0  0  0  0
    2.8660   -8.5000    0.0000 C   0  0  0  0  0  0  0  0  0  0  0  0
    2.8660    8.5000    0.0000 C   0  0  0  0  0  0  0  0  0  0  0  0
    2.0000    9.0000    0.0000 C   0  0  0  0  0  0  0  0  0  0  0  0
    2.0000   -9.0000    0.0000 C   0  0  0  0  0  0  0  0  0  0  0  0
    2.0000   10.0000    0.0000 C   0  0  0  0  0  0  0  0  0  0  0  0
    2.0000  -10.0000    0.0000 C   0  0  0  0  0  0  0  0  0  0  0  0
    7.6636   -0.9749    0.0000 H   0  0  0  0  0  0  0  0  0  0  0  0
    8.4607   -0.9749    0.0000 H   0  0  0  0  0  0  0  0  0  0  0  0
    8.1698   -0.1106    0.0000 H   0  0  0  0  0  0  0  0  0  0  0  0
    7.6238    0.9384    0.0000 H   0  0  0  0  0  0  0  0  0  0  0  0
    8.6698    1.9766    0.0000 H   0  0  0  0  0  0  0  0  0  0  0  0
    7.9796    1.5781    0.0000 H   0  0  0  0  0  0  0  0  0  0  0  0
    9.3267    0.4749    0.0000 H   0  0  0  0  0  0  0  0  0  0  0  0
    8.5297    0.4749    0.0000 H   0  0  0  0  0  0  0  0  0  0  0  0
    7.7331   -1.3100    0.0000 H   0  0  0  0  0  0  0  0  0  0  0  0
    7.7331    1.3100    0.0000 H   0  0  0  0  0  0  0  0  0  0  0  0
    9.4545    0.7554    0.0000 H   0  0  0  0  0  0  0  0  0  0  0  0
   10.1448    1.1540    0.0000 H   0  0  0  0  0  0  0  0  0  0  0  0
    9.3957   -0.9749    0.0000 H   0  0  0  0  0  0  0  0  0  0  0  0
   10.1928   -0.9749    0.0000 H   0  0  0  0  0  0  0  0  0  0  0  0
    6.5422   -3.0826    0.0000 H   0  0  0  0  0  0  0  0  0  0  0  0
    6.9407   -2.3923    0.0000 H   0  0  0  0  0  0  0  0  0  0  0  0
    6.9407    2.3923    0.0000 H   0  0  0  0  0  0  0  0  0  0  0  0
    6.5422    3.0826    0.0000 H   0  0  0  0  0  0  0  0  0  0  0  0
    5.2520   -2.4174    0.0000 H   0  0  0  0  0  0  0  0  0  0  0  0
    4.8535   -3.1077    0.0000 H   0  0  0  0  0  0  0  0  0  0  0  0
    4.8535    3.1077    0.0000 H   0  0  0  0  0  0  0  0  0  0  0  0
    5.2520    2.4174    0.0000 H   0  0  0  0  0  0  0  0  0  0  0  0
    5.6762   -4.5826    0.0000 H   0  0  0  0  0  0  0  0  0  0  0  0
    6.0747   -3.8923    0.0000 H   0  0  0  0  0  0  0  0  0  0  0  0
    6.0747    3.8923    0.0000 H   0  0  0  0  0  0  0  0  0  0  0  0
    5.6762    4.5826    0.0000 H   0  0  0  0  0  0  0  0  0  0  0  0
    4.3860   -3.9174    0.0000 H   0  0  0  0  0  0  0  0  0  0  0  0
    3.9875   -4.6077    0.0000 H   0  0  0  0  0  0  0  0  0  0  0  0
    3.9875    4.6077    0.0000 H   0  0  0  0  0  0  0  0  0  0  0  0
    4.3860    3.9174    0.0000 H   0  0  0  0  0  0  0  0  0  0  0  0
   10.5991    1.9220    0.0000 H   0  0  0  0  0  0  0  0  0  0  0  0
   10.3722    2.7690    0.0000 H   0  0  0  0  0  0  0  0  0  0  0  0
    9.5252    2.5420    0.0000 H   0  0  0  0  0  0  0  0  0  0  0  0
   10.9703   -0.5369    0.0000 H   0  0  0  0  0  0  0  0  0  0  0  0
   11.1972    0.3100    0.0000 H   0  0  0  0  0  0  0  0  0  0  0  0
   10.3503    0.5369    0.0000 H   0  0  0  0  0  0  0  0  0  0  0  0
    4.8101   -6.0826    0.0000 H   0  0  0  0  0  0  0  0  0  0  0  0
    5.2087   -5.3923    0.0000 H   0  0  0  0  0  0  0  0  0  0  0  0
    5.2087    5.3923    0.0000 H   0  0  0  0  0  0  0  0  0  0  0  0
    4.8101    6.0826    0.0000 H   0  0  0  0  0  0  0  0  0  0  0  0
    3.1215    6.1077    0.0000 H   0  0  0  0  0  0  0  0  0  0  0  0
    3.5200    5.4174    0.0000 H   0  0  0  0  0  0  0  0  0  0  0  0
    3.5200   -5.4174    0.0000 H   0  0  0  0  0  0  0  0  0  0  0  0
    3.1215   -6.1077    0.0000 H   0  0  0  0  0  0  0  0  0  0  0  0
    4.3426    6.8923    0.0000 H   0  0  0  0  0  0  0  0  0  0  0  0
    3.9441    7.5826    0.0000 H   0  0  0  0  0  0  0  0  0  0  0  0
    3.9441   -7.5826    0.0000 H   0  0  0  0  0  0  0  0  0  0  0  0
    4.3426   -6.8923    0.0000 H   0  0  0  0  0  0  0  0  0  0  0  0
    2.2554    7.6077    0.0000 H   0  0  0  0  0  0  0  0  0  0  0  0
    2.6540    6.9174    0.0000 H   0  0  0  0  0  0  0  0  0  0  0  0
    2.6540   -6.9174    0.0000 H   0  0  0  0  0  0  0  0  0  0  0  0
    2.2554   -7.6077    0.0000 H   0  0  0  0  0  0  0  0  0  0  0  0
    3.4766    8.3923    0.0000 H   0  0  0  0  0  0  0  0  0  0  0  0
    3.0781    9.0826    0.0000 H   0  0  0  0  0  0  0  0  0  0  0  0
    3.0781   -9.0826    0.0000 H   0  0  0  0  0  0  0  0  0  0  0  0
    3.4766   -8.3923    0.0000 H   0  0  0  0  0  0  0  0  0  0  0  0
    1.3894    9.1077    0.0000 H   0  0  0  0  0  0  0  0  0  0  0  0
    1.7880    8.4174    0.0000 H   0  0  0  0  0  0  0  0  0  0  0  0
    1.7880   -8.4174    0.0000 H   0  0  0  0  0  0  0  0  0  0  0  0
    1.3894   -9.1077    0.0000 H   0  0  0  0  0  0  0  0  0  0  0  0
    2.6200   10.0000    0.0000 H   0  0  0  0  0  0  0  0  0  0  0  0
    2.0000   10.6200    0.0000 H   0  0  0  0  0  0  0  0  0  0  0  0
    1.3800   10.0000    0.0000 H   0  0  0  0  0  0  0  0  0  0  0  0
    1.3800  -10.0000    0.0000 H   0  0  0  0  0  0  0  0  0  0  0  0
    2.0000  -10.6200    0.0000 H   0  0  0  0  0  0  0  0  0  0  0  0
    2.6200  -10.0000    0.0000 H   0  0  0  0  0  0  0  0  0  0  0  0
  1  6  1  0  0  0  0
  1  7  1  0  0  0  0
  2 13  1  0  0  0  0
  2 47  1  0  0  0  0
  3 12  1  0  0  0  0
  3 46  1  0  0  0  0
  4 13  2  0  0  0  0
  5 12  2  0  0  0  0
  6  9  1  0  0  0  0
  6 38  1  0  0  0  0
  6 39  1  0  0  0  0
  7  8  1  0  0  0  0
  7 40  1  0  0  0  0
  7 41  1  0  0  0  0
  8 10  1  0  0  0  0
  8 42  1  0  0  0  0
  8 43  1  0  0  0  0
  9 11  1  0  0  0  0
  9 44  1  0  0  0  0
  9 45  1  0  0  0  0
 10 22  1  0  0  0  0
 10 48  1  0  0  0  0
 10 49  1  0  0  0  0
 11 23  1  0  0  0  0
 11 50  1  0  0  0  0
 11 51  1  0  0  0  0
 12 14  1  0  0  0  0
 13 15  1  0  0  0  0
 14 16  1  0  0  0  0
 14 52  1  0  0  0  0
 14 53  1  0  0  0  0
 15 17  1  0  0  0  0
 15 54  1  0  0  0  0
 15 55  1  0  0  0  0
 16 18  1  0  0  0  0
 16 56  1  0  0  0  0
 16 57  1  0  0  0  0
 17 19  1  0  0  0  0
 17 58  1  0  0  0  0
 17 59  1  0  0  0  0
 18 21  1  0  0  0  0
 18 60  1  0  0  0  0
 18 61  1  0  0  0  0
 19 20  1  0  0  0  0
 19 62  1  0  0  0  0
 19 63  1  0  0  0  0
 20 25  1  0  0  0  0
 20 66  1  0  0  0  0
 20 67  1  0  0  0  0
 21 24  1  0  0  0  0
 21 64  1  0  0  0  0
 21 65  1  0  0  0  0
 22 68  1  0  0  0  0
 22 69  1  0  0  0  0
 22 70  1  0  0  0  0
 23 71  1  0  0  0  0
 23 72  1  0  0  0  0
 23 73  1  0  0  0  0
 24 26  1  0  0  0  0
 24 74  1  0  0  0  0
 24 75  1  0  0  0  0
 25 27  1  0  0  0  0
 25 76  1  0  0  0  0
 25 77  1  0  0  0  0
 26 28  1  0  0  0  0
 26 80  1  0  0  0  0
 26 81  1  0  0  0  0
 27 29  1  0  0  0  0
 27 78  1  0  0  0  0
 27 79  1  0  0  0  0
 28 31  1  0  0  0  0
 28 84  1  0  0  0  0
 28 85  1  0  0  0  0
 29 30  1  0  0  0  0
 29 82  1  0  0  0  0
 29 83  1  0  0  0  0
 30 33  1  0  0  0  0
 30 86  1  0  0  0  0
 30 87  1  0  0  0  0
 31 32  1  0  0  0  0
 31 88  1  0  0  0  0
 31 89  1  0  0  0  0
 32 35  1  0  0  0  0
 32 92  1  0  0  0  0
 32 93  1  0  0  0  0
 33 34  1  0  0  0  0
 33 90  1  0  0  0  0
 33 91  1  0  0  0  0
 34 36  1  0  0  0  0
 34 94  1  0  0  0  0
 34 95  1  0  0  0  0
 35 37  1  0  0  0  0
 35 96  1  0  0  0  0
 35 97  1  0  0  0  0
 36 98  1  0  0  0  0
 36 99  1  0  0  0  0
 36100  1  0  0  0  0
 37101  1  0  0  0  0
 37102  1  0  0  0  0
 37103  1  0  0  0  0
M  END
> <PUBCHEM_COMPOUND_CID>
6483

> <PUBCHEM_COMPOUND_CANONICALIZED>
1

> <PUBCHEM_CACTVS_COMPLEXITY>
391

> <PUBCHEM_CACTVS_HBOND_ACCEPTOR>
4

> <PUBCHEM_CACTVS_HBOND_DONOR>
2

> <PUBCHEM_CACTVS_ROTATABLE_BOND>
26

> <PUBCHEM_CACTVS_SUBSKEYS>
AAADcfB8OAAAAAAAAACAAAAAAAAAAAAAAAAAAAAAAAAAAAAAAAAAGgAACAAACACAgAACCAAAAgAIAACQCAAAAAAAAAAAAAEAAAAAABIAAAAAQAAEAAAAAAGIyKCAAAAAAAAAAAAAAAAAAAAAAAAAAAAAAA==

> <PUBCHEM_IUPAC_OPENEYE_NAME>
dibutyltin; dodecanoic acid

> <PUBCHEM_IUPAC_CAS_NAME>
dibutyltin; dodecanoic acid

> <PUBCHEM_IUPAC_NAME>
dibutyltin; dodecanoic acid

> <PUBCHEM_IUPAC_SYSTEMATIC_NAME>
dibutyltin; dodecanoic acid

> <PUBCHEM_IUPAC_TRADITIONAL_NAME>
dibutyltin; lauric acid

> <PUBCHEM_IUPAC_INCHI>
InChI=1S/2C12H24O2.2C4H9.Sn/c2*1-2-3-4-5-6-7-8-9-10-11-12(13)14;2*1-3-4-2;/h2*2-11H2,1H3,(H,13,14);2*1,3-4H2,2H3;

> <PUBCHEM_IUPAC_INCHIKEY>
XWVGXTYHPCKSLV-UHFFFAOYSA-N

> <PUBCHEM_EXACT_MASS>
634.398305

> <PUBCHEM_MOLECULAR_FORMULA>
C32H66O4Sn

> <PUBCHEM_MOLECULAR_WEIGHT>
633.57404

> <PUBCHEM_OPENEYE_CAN_SMILES>
CCCCCCCCCCCC(=O)O.CCCCCCCCCCCC(=O)O.CCCC[Sn]CCCC

> <PUBCHEM_OPENEYE_ISO_SMILES>
CCCCCCCCCCCC(=O)O.CCCCCCCCCCCC(=O)O.CCCC[Sn]CCCC

> <PUBCHEM_CACTVS_TPSA>
74.6

> <PUBCHEM_MONOISOTOPIC_WEIGHT>
634.398305

> <PUBCHEM_TOTAL_CHARGE>
0

> <PUBCHEM_HEAVY_ATOM_COUNT>
37

> <PUBCHEM_ATOM_DEF_STEREO_COUNT>
0

> <PUBCHEM_ATOM_UDEF_STEREO_COUNT>
0

> <PUBCHEM_BOND_DEF_STEREO_COUNT>
0

> <PUBCHEM_BOND_UDEF_STEREO_COUNT>
0

> <PUBCHEM_ISOTOPIC_ATOM_COUNT>
0

> <PUBCHEM_COMPONENT_COUNT>
3

> <PUBCHEM_CACTVS_TAUTO_COUNT>
3

> <PUBCHEM_NONSTANDARDBOND>
1  2  6
1  3  6

> <PUBCHEM_COORDINATE_TYPE>
1
5
255

$$$$

