6085
  -OEChem-06261201062D

 47 48  0     1  0  0  0  0  0999 V2000
    4.2427    0.0000    0.0000 Cl  0  0  0  0  0  0  0  0  0  0  0  0
    0.8957    6.4868    0.0000 O   0  0  0  0  0  0  0  0  0  0  0  0
    1.5287    8.4348    0.0000 O   0  0  0  0  0  0  0  0  0  0  0  0
    5.7042    4.6304    0.0000 N   0  0  3  0  0  0  0  0  0  0  0  0
    5.2094    6.1620    0.0000 C   0  0  3  0  0  0  0  0  0  0  0  0
    4.4004    5.5742    0.0000 C   0  0  3  0  0  0  0  0  0  0  0  0
    6.0122    5.5756    0.0000 C   0  0  0  0  0  0  0  0  0  0  0  0
    4.7101    4.6296    0.0000 C   0  0  0  0  0  0  0  0  0  0  0  0
    4.9004    7.1131    0.0000 C   0  0  0  0  0  0  0  0  0  0  0  0
    3.5914    6.1620    0.0000 C   0  0  0  0  0  0  0  0  0  0  0  0
    3.9004    7.1131    0.0000 C   0  0  0  0  0  0  0  0  0  0  0  0
    6.2919    3.8214    0.0000 C   0  0  0  0  0  0  0  0  0  0  0  0
    2.5760    5.9298    0.0000 C   0  0  0  0  0  0  0  0  0  0  0  0
    3.2155    7.8978    0.0000 C   0  0  0  0  0  0  0  0  0  0  0  0
    7.2865    3.9260    0.0000 C   0  0  0  0  0  0  0  0  0  0  0  0
    1.8731    6.6984    0.0000 C   0  0  0  0  0  0  0  0  0  0  0  0
    2.1950    7.6891    0.0000 C   0  0  0  0  0  0  0  0  0  0  0  0
    7.8742    3.1170    0.0000 C   0  0  0  0  0  0  0  0  0  0  0  0
    8.8688    3.2215    0.0000 C   0  0  0  0  0  0  0  0  0  0  0  0
    0.5904    5.5345    0.0000 C   0  0  0  0  0  0  0  0  0  0  0  0
    1.8414    9.3847    0.0000 C   0  0  0  0  0  0  0  0  0  0  0  0
    5.7115    6.5258    0.0000 H   0  0  0  0  0  0  0  0  0  0  0  0
    3.8993    5.2091    0.0000 H   0  0  0  0  0  0  0  0  0  0  0  0
    6.5782    5.3226    0.0000 H   0  0  0  0  0  0  0  0  0  0  0  0
    6.3232    6.1119    0.0000 H   0  0  0  0  0  0  0  0  0  0  0  0
    4.1039    4.4995    0.0000 H   0  0  0  0  0  0  0  0  0  0  0  0
    4.7758    4.0131    0.0000 H   0  0  0  0  0  0  0  0  0  0  0  0
    5.5069    7.2420    0.0000 H   0  0  0  0  0  0  0  0  0  0  0  0
    4.8356    7.7297    0.0000 H   0  0  0  0  0  0  0  0  0  0  0  0
    5.7347    3.5496    0.0000 H   0  0  0  0  0  0  0  0  0  0  0  0
    6.4628    3.2254    0.0000 H   0  0  0  0  0  0  0  0  0  0  0  0
    2.3912    5.3379    0.0000 H   0  0  0  0  0  0  0  0  0  0  0  0
    3.4139    8.4852    0.0000 H   0  0  0  0  0  0  0  0  0  0  0  0
    7.8437    4.1978    0.0000 H   0  0  0  0  0  0  0  0  0  0  0  0
    7.1156    4.5219    0.0000 H   0  0  0  0  0  0  0  0  0  0  0  0
    7.3170    2.8452    0.0000 H   0  0  0  0  0  0  0  0  0  0  0  0
    8.0451    2.5210    0.0000 H   0  0  0  0  0  0  0  0  0  0  0  0
    8.9336    2.6049    0.0000 H   0  0  0  0  0  0  0  0  0  0  0  0
    9.4854    3.2863    0.0000 H   0  0  0  0  0  0  0  0  0  0  0  0
    8.8040    3.8381    0.0000 H   0  0  0  0  0  0  0  0  0  0  0  0
    0.0000    5.7238    0.0000 H   0  0  0  0  0  0  0  0  0  0  0  0
    0.4011    4.9441    0.0000 H   0  0  0  0  0  0  0  0  0  0  0  0
    1.1808    5.3452    0.0000 H   0  0  0  0  0  0  0  0  0  0  0  0
    2.4303    9.1908    0.0000 H   0  0  0  0  0  0  0  0  0  0  0  0
    2.0352    9.9736    0.0000 H   0  0  0  0  0  0  0  0  0  0  0  0
    1.2525    9.5785    0.0000 H   0  0  0  0  0  0  0  0  0  0  0  0
    5.2427    0.0000    0.0000 H   0  0  0  0  0  0  0  0  0  0  0  0
  1 47  1  0  0  0  0
  2 16  1  0  0  0  0
  2 20  1  0  0  0  0
  3 17  1  0  0  0  0
  3 21  1  0  0  0  0
  4  7  1  0  0  0  0
  4  8  1  0  0  0  0
  4 12  1  0  0  0  0
  5  6  1  0  0  0  0
  5  7  1  0  0  0  0
  5  9  1  0  0  0  0
  5 22  1  0  0  0  0
  6  8  1  0  0  0  0
  6 10  1  0  0  0  0
  6 23  1  0  0  0  0
  7 24  1  0  0  0  0
  7 25  1  0  0  0  0
  8 26  1  0  0  0  0
  8 27  1  0  0  0  0
  9 11  1  0  0  0  0
  9 28  1  0  0  0  0
  9 29  1  0  0  0  0
 10 11  1  0  0  0  0
 10 13  2  0  0  0  0
 11 14  2  0  0  0  0
 12 15  1  0  0  0  0
 12 30  1  0  0  0  0
 12 31  1  0  0  0  0
 13 16  1  0  0  0  0
 13 32  1  0  0  0  0
 14 17  1  0  0  0  0
 14 33  1  0  0  0  0
 15 18  1  0  0  0  0
 15 34  1  0  0  0  0
 15 35  1  0  0  0  0
 16 17  2  0  0  0  0
 18 19  1  0  0  0  0
 18 36  1  0  0  0  0
 18 37  1  0  0  0  0
 19 38  1  0  0  0  0
 19 39  1  0  0  0  0
 19 40  1  0  0  0  0
 20 41  1  0  0  0  0
 20 42  1  0  0  0  0
 20 43  1  0  0  0  0
 21 44  1  0  0  0  0
 21 45  1  0  0  0  0
 21 46  1  0  0  0  0
M  END
> <PUBCHEM_COMPOUND_CID>
6085

> <PUBCHEM_COMPOUND_CANONICALIZED>
1

> <PUBCHEM_CACTVS_COMPLEXITY>
322

> <PUBCHEM_CACTVS_HBOND_ACCEPTOR>
3

> <PUBCHEM_CACTVS_HBOND_DONOR>
1

> <PUBCHEM_CACTVS_ROTATABLE_BOND>
5

> <PUBCHEM_CACTVS_SUBSKEYS>
AAADceB6MAAEAAAAAAAAAAAAAAAAAeIAAAAwAAAAAAAWAGABAAAAHgAAAAAADQTBmAYyBoMABACAAiBCAAACCAAgIAAAiAAOiIgNJiKEsRuEMCIkwBGKqAeQ0PIOoAABAAAQQABAAAIAACCAAQAACAAAAA==

> <PUBCHEM_IUPAC_OPENEYE_NAME>
2-butyl-6,7-dimethoxy-3,3a,4,8b-tetrahydro-1H-indeno[1,2-c]pyrrole hydrochloride

> <PUBCHEM_IUPAC_CAS_NAME>
2-butyl-6,7-dimethoxy-3,3a,4,8b-tetrahydro-1H-indeno[1,2-c]pyrrole hydrochloride

> <PUBCHEM_IUPAC_NAME>
2-butyl-6,7-dimethoxy-3,3a,4,8b-tetrahydro-1H-indeno[1,2-c]pyrrole hydrochloride

> <PUBCHEM_IUPAC_SYSTEMATIC_NAME>
2-butyl-6,7-dimethoxy-3,3a,4,8b-tetrahydro-1H-indeno[1,2-c]pyrrole hydrochloride

> <PUBCHEM_IUPAC_TRADITIONAL_NAME>
2-butyl-6,7-dimethoxy-3,3a,4,8b-tetrahydro-1H-indeno[1,2-c]pyrrole hydrochloride

> <PUBCHEM_IUPAC_INCHI>
InChI=1S/C17H25NO2.ClH/c1-4-5-6-18-10-13-7-12-8-16(19-2)17(20-3)9-14(12)15(13)11-18;/h8-9,13,15H,4-7,10-11H2,1-3H3;1H

> <PUBCHEM_IUPAC_INCHIKEY>
SOBHPRCIZAYEBQ-UHFFFAOYSA-N

> <PUBCHEM_EXACT_MASS>
311.165207

> <PUBCHEM_MOLECULAR_FORMULA>
C17H26ClNO2

> <PUBCHEM_MOLECULAR_WEIGHT>
311.84684

> <PUBCHEM_OPENEYE_CAN_SMILES>
CCCCN1CC2CC3=CC(=C(C=C3C2C1)OC)OC.Cl

> <PUBCHEM_OPENEYE_ISO_SMILES>
CCCCN1CC2CC3=CC(=C(C=C3C2C1)OC)OC.Cl

> <PUBCHEM_CACTVS_TPSA>
21.7

> <PUBCHEM_MONOISOTOPIC_WEIGHT>
311.165207

> <PUBCHEM_TOTAL_CHARGE>
0

> <PUBCHEM_HEAVY_ATOM_COUNT>
21

> <PUBCHEM_ATOM_DEF_STEREO_COUNT>
0

> <PUBCHEM_ATOM_UDEF_STEREO_COUNT>
2

> <PUBCHEM_BOND_DEF_STEREO_COUNT>
0

> <PUBCHEM_BOND_UDEF_STEREO_COUNT>
0

> <PUBCHEM_ISOTOPIC_ATOM_COUNT>
0

> <PUBCHEM_COMPONENT_COUNT>
2

> <PUBCHEM_CACTVS_TAUTO_COUNT>
1

> <PUBCHEM_COORDINATE_TYPE>
1
5
255

> <PUBCHEM_BONDANNOTATIONS>
10  11  8
10  13  8
11  14  8
13  16  8
14  17  8
16  17  8
5  9  3
6  8  3

$$$$

