3805
  -OEChem-06251223412D

135137  0     1  0  0  0  0  0999 V2000
    8.9282    3.4029    0.0000 O   0  0  0  0  0  0  0  0  0  0  0  0
    8.0622    0.9029    0.0000 O   0  0  0  0  0  0  0  0  0  0  0  0
    8.9282   -0.5971    0.0000 O   0  0  0  0  0  0  0  0  0  0  0  0
    7.1962    3.4029    0.0000 O   0  0  0  0  0  0  0  0  0  0  0  0
   10.6603    0.4029    0.0000 O   0  0  0  0  0  0  0  0  0  0  0  0
    6.6962    6.2689    0.0000 O   0  0  0  0  0  0  0  0  0  0  0  0
    5.4641    5.4029    0.0000 O   0  0  0  0  0  0  0  0  0  0  0  0
    7.1962    0.4029    0.0000 O   0  0  0  0  0  0  0  0  0  0  0  0
    5.4641   -0.5971    0.0000 O   0  0  0  0  0  0  0  0  0  0  0  0
    7.6056   -5.6209    0.0000 O   0  0  0  0  0  0  0  0  0  0  0  0
   10.6788   -1.7055    0.0000 O   0  0  0  0  0  0  0  0  0  0  0  0
    4.5981   -2.0971    0.0000 O   0  0  0  0  0  0  0  0  0  0  0  0
    4.5981    3.9029    0.0000 O   0  0  0  0  0  0  0  0  0  0  0  0
    5.4641   -3.5971    0.0000 O   0  0  0  0  0  0  0  0  0  0  0  0
    5.1633    1.1086    0.0000 O   0  0  0  0  0  0  0  0  0  0  0  0
    9.2058   -4.9581    0.0000 O   0  0  0  0  0  0  0  0  0  0  0  0
   10.6603    2.4029    0.0000 N   0  0  0  0  0  0  0  0  0  0  0  0
    9.7942    1.9029    0.0000 C   0  0  3  0  0  0  0  0  0  0  0  0
    8.9282    2.4029    0.0000 C   0  0  3  0  0  0  0  0  0  0  0  0
    9.7942    0.9029    0.0000 C   0  0  3  0  0  0  0  0  0  0  0  0
    8.0622    1.9029    0.0000 C   0  0  3  0  0  0  0  0  0  0  0  0
    8.9282    0.4029    0.0000 C   0  0  3  0  0  0  0  0  0  0  0  0
    8.0622   -1.0971    0.0000 C   0  0  3  0  0  0  0  0  0  0  0  0
    7.1962    5.4029    0.0000 C   0  0  3  0  0  0  0  0  0  0  0  0
    8.0622    3.9029    0.0000 C   0  0  3  0  0  0  0  0  0  0  0  0
    8.0622   -2.0971    0.0000 C   0  0  3  0  0  0  0  0  0  0  0  0
    8.0622    4.9029    0.0000 C   0  0  0  0  0  0  0  0  0  0  0  0
    6.3301    4.9029    0.0000 C   0  0  3  0  0  0  0  0  0  0  0  0
    6.3301    3.9029    0.0000 C   0  0  3  0  0  0  0  0  0  0  0  0
    7.1962   -0.5971    0.0000 C   0  0  3  0  0  0  0  0  0  0  0  0
    7.6712   -3.0240    0.0000 C   0  0  0  0  0  0  0  0  0  0  0  0
    7.1962    2.4029    0.0000 C   0  0  0  0  0  0  0  0  0  0  0  0
    7.9300   -3.9899    0.0000 C   0  0  3  0  0  0  0  0  0  0  0  0
    9.0451   -2.2810    0.0000 C   0  0  0  0  0  0  0  0  0  0  0  0
    6.3301   -1.0971    0.0000 C   0  0  3  0  0  0  0  0  0  0  0  0
    7.6962    6.2689    0.0000 C   0  0  0  0  0  0  0  0  0  0  0  0
   11.5263    1.9029    0.0000 C   0  0  0  0  0  0  0  0  0  0  0  0
   10.6603    3.4029    0.0000 C   0  0  0  0  0  0  0  0  0  0  0  0
    5.4641    3.4029    0.0000 C   0  0  0  0  0  0  0  0  0  0  0  0
    7.2229   -4.6970    0.0000 C   0  0  3  0  0  0  0  0  0  0  0  0
    6.3301   -2.0971    0.0000 C   0  0  0  0  0  0  0  0  0  0  0  0
    8.8959   -4.2487    0.0000 C   0  0  0  0  0  0  0  0  0  0  0  0
    9.6958   -1.5217    0.0000 C   0  0  0  0  0  0  0  0  0  0  0  0
    4.5981    4.9029    0.0000 C   0  0  0  0  0  0  0  0  0  0  0  0
    6.2229   -4.6970    0.0000 C   0  0  0  0  0  0  0  0  0  0  0  0
    6.3301    0.9029    0.0000 C   0  0  0  0  0  0  0  0  0  0  0  0
    5.4641   -2.5971    0.0000 C   0  0  0  0  0  0  0  0  0  0  0  0
    3.7320    5.4029    0.0000 C   0  0  0  0  0  0  0  0  0  0  0  0
    4.8213    0.1689    0.0000 C   0  0  0  0  0  0  0  0  0  0  0  0
    2.8660    4.9029    0.0000 C   0  0  0  0  0  0  0  0  0  0  0  0
    5.7229   -5.5630    0.0000 C   0  0  0  0  0  0  0  0  0  0  0  0
    8.5970   -5.7514    0.0000 C   0  0  0  0  0  0  0  0  0  0  0  0
    3.7320   -2.5971    0.0000 C   0  0  3  0  0  0  0  0  0  0  0  0
    3.8365   -0.0047    0.0000 C   0  0  0  0  0  0  0  0  0  0  0  0
    2.0000    5.4029    0.0000 C   0  0  0  0  0  0  0  0  0  0  0  0
    2.8660    3.9029    0.0000 C   0  0  0  0  0  0  0  0  0  0  0  0
    4.8569   -5.0630    0.0000 C   0  0  0  0  0  0  0  0  0  0  0  0
    3.7320   -3.5971    0.0000 C   0  0  0  0  0  0  0  0  0  0  0  0
    8.9797   -6.6753    0.0000 C   0  0  0  0  0  0  0  0  0  0  0  0
    4.5981   -4.0971    0.0000 C   0  0  0  0  0  0  0  0  0  0  0  0
    2.8660   -2.0971    0.0000 C   0  0  0  0  0  0  0  0  0  0  0  0
    9.9712   -6.8058    0.0000 C   0  0  0  0  0  0  0  0  0  0  0  0
   10.5304    1.4779    0.0000 H   0  0  0  0  0  0  0  0  0  0  0  0
    9.6643    2.8279    0.0000 H   0  0  0  0  0  0  0  0  0  0  0  0
    9.7942    0.0529    0.0000 H   0  0  0  0  0  0  0  0  0  0  0  0
    7.3261    1.4779    0.0000 H   0  0  0  0  0  0  0  0  0  0  0  0
    9.6643   -0.0221    0.0000 H   0  0  0  0  0  0  0  0  0  0  0  0
    8.0622   -0.2471    0.0000 H   0  0  0  0  0  0  0  0  0  0  0  0
    8.0622    3.0529    0.0000 H   0  0  0  0  0  0  0  0  0  0  0  0
    8.4647   -2.8458    0.0000 H   0  0  0  0  0  0  0  0  0  0  0  0
    8.6728    4.7952    0.0000 H   0  0  0  0  0  0  0  0  0  0  0  0
    8.2742    5.4855    0.0000 H   0  0  0  0  0  0  0  0  0  0  0  0
    5.5940    4.4779    0.0000 H   0  0  0  0  0  0  0  0  0  0  0  0
    6.3301    3.0529    0.0000 H   0  0  0  0  0  0  0  0  0  0  0  0
    6.4600   -0.1721    0.0000 H   0  0  0  0  0  0  0  0  0  0  0  0
    7.1980   -2.6234    0.0000 H   0  0  0  0  0  0  0  0  0  0  0  0
    7.1476   -3.3560    0.0000 H   0  0  0  0  0  0  0  0  0  0  0  0
    7.5062    2.9398    0.0000 H   0  0  0  0  0  0  0  0  0  0  0  0
    6.6592    2.7129    0.0000 H   0  0  0  0  0  0  0  0  0  0  0  0
    6.8862    1.8659    0.0000 H   0  0  0  0  0  0  0  0  0  0  0  0
    8.5311   -3.3889    0.0000 H   0  0  0  0  0  0  0  0  0  0  0  0
    8.8270   -2.8614    0.0000 H   0  0  0  0  0  0  0  0  0  0  0  0
    9.5788   -2.5966    0.0000 H   0  0  0  0  0  0  0  0  0  0  0  0
    5.5940   -1.5221    0.0000 H   0  0  0  0  0  0  0  0  0  0  0  0
    8.2331    5.9589    0.0000 H   0  0  0  0  0  0  0  0  0  0  0  0
    8.0062    6.8058    0.0000 H   0  0  0  0  0  0  0  0  0  0  0  0
    7.1592    6.5789    0.0000 H   0  0  0  0  0  0  0  0  0  0  0  0
   11.1972    0.7129    0.0000 H   0  0  0  0  0  0  0  0  0  0  0  0
   11.2163    1.3659    0.0000 H   0  0  0  0  0  0  0  0  0  0  0  0
   12.0632    1.5929    0.0000 H   0  0  0  0  0  0  0  0  0  0  0  0
   11.8363    2.4398    0.0000 H   0  0  0  0  0  0  0  0  0  0  0  0
   11.2803    3.4029    0.0000 H   0  0  0  0  0  0  0  0  0  0  0  0
   10.6603    4.0229    0.0000 H   0  0  0  0  0  0  0  0  0  0  0  0
   10.0403    3.4029    0.0000 H   0  0  0  0  0  0  0  0  0  0  0  0
    5.1541    3.9398    0.0000 H   0  0  0  0  0  0  0  0  0  0  0  0
    4.9272    3.0929    0.0000 H   0  0  0  0  0  0  0  0  0  0  0  0
    5.7741    2.8659    0.0000 H   0  0  0  0  0  0  0  0  0  0  0  0
    8.0566   -4.8628    0.0000 H   0  0  0  0  0  0  0  0  0  0  0  0
    7.0062    6.8058    0.0000 H   0  0  0  0  0  0  0  0  0  0  0  0
    6.5422   -2.6797    0.0000 H   0  0  0  0  0  0  0  0  0  0  0  0
    6.9407   -1.9895    0.0000 H   0  0  0  0  0  0  0  0  0  0  0  0
    8.7355   -4.8476    0.0000 H   0  0  0  0  0  0  0  0  0  0  0  0
    9.4948   -4.4092    0.0000 H   0  0  0  0  0  0  0  0  0  0  0  0
    9.0564   -3.6499    0.0000 H   0  0  0  0  0  0  0  0  0  0  0  0
    9.4898   -0.9369    0.0000 H   0  0  0  0  0  0  0  0  0  0  0  0
    5.9129   -4.1601    0.0000 H   0  0  0  0  0  0  0  0  0  0  0  0
    6.6401    1.4398    0.0000 H   0  0  0  0  0  0  0  0  0  0  0  0
    5.7932    1.2129    0.0000 H   0  0  0  0  0  0  0  0  0  0  0  0
    6.0201    0.3659    0.0000 H   0  0  0  0  0  0  0  0  0  0  0  0
    4.1306    5.8778    0.0000 H   0  0  0  0  0  0  0  0  0  0  0  0
    3.3335    5.8778    0.0000 H   0  0  0  0  0  0  0  0  0  0  0  0
    2.8660    5.5229    0.0000 H   0  0  0  0  0  0  0  0  0  0  0  0
    5.8834   -6.1619    0.0000 H   0  0  0  0  0  0  0  0  0  0  0  0
    3.7320   -1.7471    0.0000 H   0  0  0  0  0  0  0  0  0  0  0  0
    3.7288    0.6059    0.0000 H   0  0  0  0  0  0  0  0  0  0  0  0
    3.2259   -0.1124    0.0000 H   0  0  0  0  0  0  0  0  0  0  0  0
    3.9442   -0.6153    0.0000 H   0  0  0  0  0  0  0  0  0  0  0  0
    2.3100    5.9398    0.0000 H   0  0  0  0  0  0  0  0  0  0  0  0
    1.4631    5.7129    0.0000 H   0  0  0  0  0  0  0  0  0  0  0  0
    1.6900    4.8659    0.0000 H   0  0  0  0  0  0  0  0  0  0  0  0
    2.2460    3.9029    0.0000 H   0  0  0  0  0  0  0  0  0  0  0  0
    2.8660    3.2829    0.0000 H   0  0  0  0  0  0  0  0  0  0  0  0
    3.4860    3.9029    0.0000 H   0  0  0  0  0  0  0  0  0  0  0  0
    4.3650   -5.4405    0.0000 H   0  0  0  0  0  0  0  0  0  0  0  0
    3.1215   -3.4895    0.0000 H   0  0  0  0  0  0  0  0  0  0  0  0
    3.5200   -4.1797    0.0000 H   0  0  0  0  0  0  0  0  0  0  0  0
    8.3744   -6.8095    0.0000 H   0  0  0  0  0  0  0  0  0  0  0  0
    9.0068   -7.2947    0.0000 H   0  0  0  0  0  0  0  0  0  0  0  0
    5.0900   -3.7197    0.0000 H   0  0  0  0  0  0  0  0  0  0  0  0
    3.1760   -1.5602    0.0000 H   0  0  0  0  0  0  0  0  0  0  0  0
    2.3291   -1.7871    0.0000 H   0  0  0  0  0  0  0  0  0  0  0  0
    2.5560   -2.6341    0.0000 H   0  0  0  0  0  0  0  0  0  0  0  0
    9.8902   -7.4205    0.0000 H   0  0  0  0  0  0  0  0  0  0  0  0
   10.5859   -6.8868    0.0000 H   0  0  0  0  0  0  0  0  0  0  0  0
   10.0521   -6.1911    0.0000 H   0  0  0  0  0  0  0  0  0  0  0  0
  1 19  1  0  0  0  0
  1 25  1  0  0  0  0
  2 21  1  0  0  0  0
  2 22  1  0  0  0  0
  3 22  1  0  0  0  0
  3 23  1  0  0  0  0
  4 25  1  0  0  0  0
  4 29  1  0  0  0  0
  5 20  1  0  0  0  0
  5 88  1  0  0  0  0
  6 24  1  0  0  0  0
  6 99  1  0  0  0  0
  7 28  1  0  0  0  0
  7 44  1  0  0  0  0
  8 30  1  0  0  0  0
  8 46  1  0  0  0  0
  9 35  1  0  0  0  0
  9 49  1  0  0  0  0
 10 40  1  0  0  0  0
 10 52  1  0  0  0  0
 11 43  2  0  0  0  0
 12 47  1  0  0  0  0
 12 53  1  0  0  0  0
 13 44  2  0  0  0  0
 14 47  2  0  0  0  0
 15 49  2  0  0  0  0
 16 52  2  0  0  0  0
 17 18  1  0  0  0  0
 17 37  1  0  0  0  0
 17 38  1  0  0  0  0
 18 19  1  0  0  0  0
 18 20  1  0  0  0  0
 18 63  1  0  0  0  0
 19 21  1  0  0  0  0
 19 64  1  0  0  0  0
 20 22  1  0  0  0  0
 20 65  1  0  0  0  0
 21 32  1  0  0  0  0
 21 66  1  0  0  0  0
 22 67  1  0  0  0  0
 23 26  1  0  0  0  0
 23 30  1  0  0  0  0
 23 68  1  0  0  0  0
 24 27  1  0  0  0  0
 24 28  1  0  0  0  0
 24 36  1  0  0  0  0
 25 27  1  0  0  0  0
 25 69  1  0  0  0  0
 26 31  1  0  0  0  0
 26 34  1  0  0  0  0
 26 70  1  0  0  0  0
 27 71  1  0  0  0  0
 27 72  1  0  0  0  0
 28 29  1  0  0  0  0
 28 73  1  0  0  0  0
 29 39  1  0  0  0  0
 29 74  1  0  0  0  0
 30 35  1  0  0  0  0
 30 75  1  0  0  0  0
 31 33  1  0  0  0  0
 31 76  1  0  0  0  0
 31 77  1  0  0  0  0
 32 78  1  0  0  0  0
 32 79  1  0  0  0  0
 32 80  1  0  0  0  0
 33 40  1  0  0  0  0
 33 42  1  0  0  0  0
 33 81  1  0  0  0  0
 34 43  1  0  0  0  0
 34 82  1  0  0  0  0
 34 83  1  0  0  0  0
 35 41  1  0  0  0  0
 35 84  1  0  0  0  0
 36 85  1  0  0  0  0
 36 86  1  0  0  0  0
 36 87  1  0  0  0  0
 37 89  1  0  0  0  0
 37 90  1  0  0  0  0
 37 91  1  0  0  0  0
 38 92  1  0  0  0  0
 38 93  1  0  0  0  0
 38 94  1  0  0  0  0
 39 95  1  0  0  0  0
 39 96  1  0  0  0  0
 39 97  1  0  0  0  0
 40 45  1  0  0  0  0
 40 98  1  0  0  0  0
 41 47  1  0  0  0  0
 41100  1  0  0  0  0
 41101  1  0  0  0  0
 42102  1  0  0  0  0
 42103  1  0  0  0  0
 42104  1  0  0  0  0
 43105  1  0  0  0  0
 44 48  1  0  0  0  0
 45 51  2  3  0  0  0
 45106  1  0  0  0  0
 46107  1  0  0  0  0
 46108  1  0  0  0  0
 46109  1  0  0  0  0
 48 50  1  0  0  0  0
 48110  1  0  0  0  0
 48111  1  0  0  0  0
 49 54  1  0  0  0  0
 50 55  1  0  0  0  0
 50 56  1  0  0  0  0
 50112  1  0  0  0  0
 51 57  1  0  0  0  0
 51113  1  0  0  0  0
 52 59  1  0  0  0  0
 53 58  1  0  0  0  0
 53 61  1  0  0  0  0
 53114  1  0  0  0  0
 54115  1  0  0  0  0
 54116  1  0  0  0  0
 54117  1  0  0  0  0
 55118  1  0  0  0  0
 55119  1  0  0  0  0
 55120  1  0  0  0  0
 56121  1  0  0  0  0
 56122  1  0  0  0  0
 56123  1  0  0  0  0
 57 60  2  3  0  0  0
 57124  1  0  0  0  0
 58 60  1  0  0  0  0
 58125  1  0  0  0  0
 58126  1  0  0  0  0
 59 62  1  0  0  0  0
 59127  1  0  0  0  0
 59128  1  0  0  0  0
 60129  1  0  0  0  0
 61130  1  0  0  0  0
 61131  1  0  0  0  0
 61132  1  0  0  0  0
 62133  1  0  0  0  0
 62134  1  0  0  0  0
 62135  1  0  0  0  0
M  END
> <PUBCHEM_COMPOUND_CID>
3805

> <PUBCHEM_COMPOUND_CANONICALIZED>
1

> <PUBCHEM_CACTVS_COMPLEXITY>
1520

> <PUBCHEM_CACTVS_HBOND_ACCEPTOR>
17

> <PUBCHEM_CACTVS_HBOND_DONOR>
2

> <PUBCHEM_CACTVS_ROTATABLE_BOND>
17

> <PUBCHEM_CACTVS_SUBSKEYS>
AAADcfB+PgAAAAAAAAAAAAAAAAAAAAAAAAAkSAAAAAAAAAAAAAAAHgAACAAADXzxgAcCCAMABgCIACjSiAAAAAAgAAAICAEIAAgbFBYAoQAnUAAH4AAfoAPK7PzOAAAAAAAAAAAAAAAAAAAAAAAAAAAAAA==

> <PUBCHEM_IUPAC_OPENEYE_NAME>
[6-[6-[[4-acetoxy-5-methoxy-9,16-dimethyl-2-oxo-7-(2-oxoethyl)-10-propanoyloxy-1-oxacyclohexadeca-11,13-dien-6-yl]oxy]-4-(dimethylamino)-5-hydroxy-2-methyl-tetrahydropyran-3-yl]oxy-4-hydroxy-2,4-dimethyl-tetrahydropyran-3-yl] 3-methylbutanoate

> <PUBCHEM_IUPAC_CAS_NAME>
3-methylbutanoic acid [6-[[6-[[4-acetyloxy-5-methoxy-9,16-dimethyl-2-oxo-7-(2-oxoethyl)-10-(1-oxopropoxy)-1-oxacyclohexadeca-11,13-dien-6-yl]oxy]-4-(dimethylamino)-5-hydroxy-2-methyl-3-oxanyl]oxy]-4-hydroxy-2,4-dimethyl-3-oxanyl] ester

> <PUBCHEM_IUPAC_NAME>
[6-[6-[[4-acetyloxy-5-methoxy-9,16-dimethyl-2-oxo-7-(2-oxoethyl)-10-propanoyloxy-1-oxacyclohexadeca-11,13-dien-6-yl]oxy]-4-(dimethylamino)-5-hydroxy-2-methyloxan-3-yl]oxy-4-hydroxy-2,4-dimethyloxan-3-yl] 3-methylbutanoate

> <PUBCHEM_IUPAC_SYSTEMATIC_NAME>
[6-[6-[[4-acetyloxy-5-methoxy-9,16-dimethyl-2-oxidanylidene-7-(2-oxidanylideneethyl)-10-propanoyloxy-1-oxacyclohexadeca-11,13-dien-6-yl]oxy]-4-(dimethylamino)-2-methyl-5-oxidanyl-oxan-3-yl]oxy-2,4-dimethyl-4-oxidanyl-oxan-3-yl] 3-methylbutanoate

> <PUBCHEM_IUPAC_TRADITIONAL_NAME>
3-methylbutyric acid [6-[6-[[4-acetoxy-2-keto-7-(2-ketoethyl)-5-methoxy-9,16-dimethyl-10-propionyloxy-1-oxacyclohexadeca-11,13-dien-6-yl]oxy]-4-(dimethylamino)-5-hydroxy-2-methyl-tetrahydropyran-3-yl]oxy-4-hydroxy-2,4-dimethyl-tetrahydropyran-3-yl] ester

> <PUBCHEM_IUPAC_INCHI>
InChI=1S/C45H73NO16/c1-13-34(49)59-32-18-16-14-15-17-27(5)55-36(51)23-33(58-30(8)48)42(54-12)41(31(19-20-47)22-26(32)4)62-44-39(52)38(46(10)11)40(28(6)57-44)61-37-24-45(9,53)43(29(7)56-37)60-35(50)21-25(2)3/h14-16,18,20,25-29,31-33,37-44,52-53H,13,17,19,21-24H2,1-12H3

> <PUBCHEM_IUPAC_INCHIKEY>
NVBREHSOJSEKBQ-UHFFFAOYSA-N

> <PUBCHEM_XLOGP3_AA>
4

> <PUBCHEM_EXACT_MASS>
883.492935

> <PUBCHEM_MOLECULAR_FORMULA>
C45H73NO16

> <PUBCHEM_MOLECULAR_WEIGHT>
884.05822

> <PUBCHEM_OPENEYE_CAN_SMILES>
CCC(=O)OC1C=CC=CCC(OC(=O)CC(C(C(C(CC1C)CC=O)OC2C(C(C(C(O2)C)OC3CC(C(C(O3)C)OC(=O)CC(C)C)(C)O)N(C)C)O)OC)OC(=O)C)C

> <PUBCHEM_OPENEYE_ISO_SMILES>
CCC(=O)OC1C=CC=CCC(OC(=O)CC(C(C(C(CC1C)CC=O)OC2C(C(C(C(O2)C)OC3CC(C(C(O3)C)OC(=O)CC(C)C)(C)O)N(C)C)O)OC)OC(=O)C)C

> <PUBCHEM_CACTVS_TPSA>
212

> <PUBCHEM_MONOISOTOPIC_WEIGHT>
883.492935

> <PUBCHEM_TOTAL_CHARGE>
0

> <PUBCHEM_HEAVY_ATOM_COUNT>
62

> <PUBCHEM_ATOM_DEF_STEREO_COUNT>
0

> <PUBCHEM_ATOM_UDEF_STEREO_COUNT>
16

> <PUBCHEM_BOND_DEF_STEREO_COUNT>
0

> <PUBCHEM_BOND_UDEF_STEREO_COUNT>
2

> <PUBCHEM_ISOTOPIC_ATOM_COUNT>
0

> <PUBCHEM_COMPONENT_COUNT>
1

> <PUBCHEM_CACTVS_TAUTO_COUNT>
4

> <PUBCHEM_COORDINATE_TYPE>
1
5
255

> <PUBCHEM_BONDANNOTATIONS>
18  63  3
19  64  3
20  65  3
21  66  3
22  67  3
23  68  3
24  36  3
25  69  3
26  70  3
28  73  3
29  74  3
30  75  3
33  81  3
35  84  3
40  98  3
45  51  1
53  114  3
57  60  1

$$$$

