17396072
  -OEChem-06241222542D

 40 43  0     0  0  0  0  0  0999 V2000
    4.6261    1.6566    0.0000 S   0  0  0  0  0  0  0  0  0  0  0  0
    7.6293    1.0656    0.0000 S   0  0  0  0  0  0  0  0  0  0  0  0
    2.8660   -2.6222    0.0000 O   0  0  0  0  0  0  0  0  0  0  0  0
    2.8660    1.3778    0.0000 N   0  0  0  0  0  0  0  0  0  0  0  0
    8.8894    2.3257    0.0000 N   0  0  0  0  0  0  0  0  0  0  0  0
    7.1293    2.6045    0.0000 N   0  0  0  0  0  0  0  0  0  0  0  0
    2.0570    1.9656    0.0000 N   0  0  0  0  0  0  0  0  0  0  0  0
    3.3660    2.9167    0.0000 N   0  0  0  0  0  0  0  0  0  0  0  0
    2.3660    2.9167    0.0000 N   0  0  0  0  0  0  0  0  0  0  0  0
    2.8660    0.3778    0.0000 C   0  0  0  0  0  0  0  0  0  0  0  0
    5.3692    2.3257    0.0000 C   0  0  0  0  0  0  0  0  0  0  0  0
    6.3203    2.0167    0.0000 C   0  0  0  0  0  0  0  0  0  0  0  0
    3.6750    1.9656    0.0000 C   0  0  0  0  0  0  0  0  0  0  0  0
    7.9383    2.0167    0.0000 C   0  0  0  0  0  0  0  0  0  0  0  0
    9.6325    1.6566    0.0000 C   0  0  0  0  0  0  0  0  0  0  0  0
    2.0000   -0.1222    0.0000 C   0  0  0  0  0  0  0  0  0  0  0  0
    3.7320   -0.1222    0.0000 C   0  0  0  0  0  0  0  0  0  0  0  0
    6.6293    1.0656    0.0000 C   0  0  0  0  0  0  0  0  0  0  0  0
    2.0000   -1.1222    0.0000 C   0  0  0  0  0  0  0  0  0  0  0  0
    3.7320   -1.1222    0.0000 C   0  0  0  0  0  0  0  0  0  0  0  0
    2.8660   -1.6222    0.0000 C   0  0  0  0  0  0  0  0  0  0  0  0
    9.4246    0.6784    0.0000 C   0  0  0  0  0  0  0  0  0  0  0  0
   10.5836    1.9656    0.0000 C   0  0  0  0  0  0  0  0  0  0  0  0
   10.1678    0.0093    0.0000 C   0  0  0  0  0  0  0  0  0  0  0  0
   11.3267    1.2965    0.0000 C   0  0  0  0  0  0  0  0  0  0  0  0
   11.1188    0.3183    0.0000 C   0  0  0  0  0  0  0  0  0  0  0  0
    5.6603    2.8732    0.0000 H   0  0  0  0  0  0  0  0  0  0  0  0
    4.8807    2.7074    0.0000 H   0  0  0  0  0  0  0  0  0  0  0  0
    1.4631    0.1878    0.0000 H   0  0  0  0  0  0  0  0  0  0  0  0
    4.2690    0.1878    0.0000 H   0  0  0  0  0  0  0  0  0  0  0  0
    9.0183    2.9322    0.0000 H   0  0  0  0  0  0  0  0  0  0  0  0
    6.2649    0.5641    0.0000 H   0  0  0  0  0  0  0  0  0  0  0  0
    1.4631   -1.4322    0.0000 H   0  0  0  0  0  0  0  0  0  0  0  0
    4.2690   -1.4322    0.0000 H   0  0  0  0  0  0  0  0  0  0  0  0
    8.8350    0.4869    0.0000 H   0  0  0  0  0  0  0  0  0  0  0  0
   10.7125    2.5721    0.0000 H   0  0  0  0  0  0  0  0  0  0  0  0
   10.0389   -0.5971    0.0000 H   0  0  0  0  0  0  0  0  0  0  0  0
   11.9164    1.4881    0.0000 H   0  0  0  0  0  0  0  0  0  0  0  0
   11.5796   -0.0965    0.0000 H   0  0  0  0  0  0  0  0  0  0  0  0
    2.3291   -2.9322    0.0000 H   0  0  0  0  0  0  0  0  0  0  0  0
  1 11  1  0  0  0  0
  1 13  1  0  0  0  0
  2 14  1  0  0  0  0
  2 18  1  0  0  0  0
  3 21  1  0  0  0  0
  3 40  1  0  0  0  0
  4  7  1  0  0  0  0
  4 10  1  0  0  0  0
  4 13  1  0  0  0  0
  5 14  1  0  0  0  0
  5 15  1  0  0  0  0
  5 31  1  0  0  0  0
  6 12  1  0  0  0  0
  6 14  2  0  0  0  0
  7  9  2  0  0  0  0
  8  9  1  0  0  0  0
  8 13  2  0  0  0  0
 10 16  2  0  0  0  0
 10 17  1  0  0  0  0
 11 12  1  0  0  0  0
 11 27  1  0  0  0  0
 11 28  1  0  0  0  0
 12 18  2  0  0  0  0
 15 22  2  0  0  0  0
 15 23  1  0  0  0  0
 16 19  1  0  0  0  0
 16 29  1  0  0  0  0
 17 20  2  0  0  0  0
 17 30  1  0  0  0  0
 18 32  1  0  0  0  0
 19 21  2  0  0  0  0
 19 33  1  0  0  0  0
 20 21  1  0  0  0  0
 20 34  1  0  0  0  0
 22 24  1  0  0  0  0
 22 35  1  0  0  0  0
 23 25  2  0  0  0  0
 23 36  1  0  0  0  0
 24 26  2  0  0  0  0
 24 37  1  0  0  0  0
 25 26  1  0  0  0  0
 25 38  1  0  0  0  0
 26 39  1  0  0  0  0
M  END
> <PUBCHEM_COMPOUND_CID>
17396072

> <PUBCHEM_COMPOUND_CANONICALIZED>
1

> <PUBCHEM_CACTVS_COMPLEXITY>
434

> <PUBCHEM_CACTVS_HBOND_ACCEPTOR>
8

> <PUBCHEM_CACTVS_HBOND_DONOR>
2

> <PUBCHEM_CACTVS_ROTATABLE_BOND>
6

> <PUBCHEM_CACTVS_SUBSKEYS>
AAADccB7oABgAAAAAAAAAAAAAAAAAWLAAAAwYAAAAAAAAAAB9AAAHgQYCAAACAyF1gCx15bIEgimASRiZACC9KthKrkdiBQWbIiIJiLimZOEcAhs0BNI2CewQAAAAEAAAAAAAAAAgAAAAAAAAAAAAAAAAA==

> <PUBCHEM_IUPAC_OPENEYE_NAME>
4-[5-[(2-anilinothiazol-4-yl)methylsulfanyl]tetrazol-1-yl]phenol

> <PUBCHEM_IUPAC_CAS_NAME>
4-[5-[(2-anilino-4-thiazolyl)methylthio]-1-tetrazolyl]phenol

> <PUBCHEM_IUPAC_NAME>
4-[5-[(2-anilino-1,3-thiazol-4-yl)methylsulfanyl]tetrazol-1-yl]phenol

> <PUBCHEM_IUPAC_SYSTEMATIC_NAME>
4-[5-[(2-phenylazanyl-1,3-thiazol-4-yl)methylsulfanyl]-1,2,3,4-tetrazol-1-yl]phenol

> <PUBCHEM_IUPAC_TRADITIONAL_NAME>
4-[5-[(2-anilinothiazol-4-yl)methylthio]tetrazol-1-yl]phenol

> <PUBCHEM_IUPAC_INCHI>
InChI=1S/C17H14N6OS2/c24-15-8-6-14(7-9-15)23-17(20-21-22-23)26-11-13-10-25-16(19-13)18-12-4-2-1-3-5-12/h1-10,24H,11H2,(H,18,19)

> <PUBCHEM_IUPAC_INCHIKEY>
OWCNDGMEJCJDLI-UHFFFAOYSA-N

> <PUBCHEM_XLOGP3_AA>
4.1

> <PUBCHEM_EXACT_MASS>
382.067051

> <PUBCHEM_MOLECULAR_FORMULA>
C17H14N6OS2

> <PUBCHEM_MOLECULAR_WEIGHT>
382.46266

> <PUBCHEM_OPENEYE_CAN_SMILES>
C1=CC=C(C=C1)NC2=NC(=CS2)CSC3=NN=NN3C4=CC=C(C=C4)O

> <PUBCHEM_OPENEYE_ISO_SMILES>
C1=CC=C(C=C1)NC2=NC(=CS2)CSC3=NN=NN3C4=CC=C(C=C4)O

> <PUBCHEM_CACTVS_TPSA>
142

> <PUBCHEM_MONOISOTOPIC_WEIGHT>
382.067051

> <PUBCHEM_TOTAL_CHARGE>
0

> <PUBCHEM_HEAVY_ATOM_COUNT>
26

> <PUBCHEM_ATOM_DEF_STEREO_COUNT>
0

> <PUBCHEM_ATOM_UDEF_STEREO_COUNT>
0

> <PUBCHEM_BOND_DEF_STEREO_COUNT>
0

> <PUBCHEM_BOND_UDEF_STEREO_COUNT>
0

> <PUBCHEM_ISOTOPIC_ATOM_COUNT>
0

> <PUBCHEM_COMPONENT_COUNT>
1

> <PUBCHEM_CACTVS_TAUTO_COUNT>
4

> <PUBCHEM_COORDINATE_TYPE>
1
5
255

> <PUBCHEM_BONDANNOTATIONS>
10  16  8
10  17  8
12  18  8
15  22  8
15  23  8
16  19  8
17  20  8
19  21  8
2  14  8
2  18  8
20  21  8
22  24  8
23  25  8
24  26  8
25  26  8
4  13  8
4  7  8
6  12  8
6  14  8
7  9  8
8  13  8
8  9  8

$$$$

