8584
  -OEChem-06261202562D

 57 59  0     1  0  0  0  0  0999 V2000
    4.9989    1.0369    0.0000 S   0  0  0  0  0  0  0  0  0  0  0  0
    4.0010    6.4164    0.0000 O   0  0  0  0  0  0  0  0  0  0  0  0
    5.8649    1.5369    0.0000 O   0  0  0  0  0  0  0  0  0  0  0  0
    4.4989    1.9030    0.0000 O   0  0  0  0  0  0  0  0  0  0  0  0
    5.4989    0.1709    0.0000 O   0  0  0  0  0  0  0  0  0  0  0  0
    6.8380    9.7013    0.0000 N   0  0  0  0  0  0  0  0  0  0  0  0
    7.5746    8.7187    0.0000 C   0  0  2  0  0  0  0  0  0  0  0  0
    7.3158    7.7528    0.0000 C   0  0  2  0  0  0  0  0  0  0  0  0
    9.4065    7.9599    0.0000 C   0  0  0  0  0  0  0  0  0  0  0  0
    9.1477    6.9940    0.0000 C   0  0  0  0  0  0  0  0  0  0  0  0
    4.9716    7.9109    0.0000 C   0  0  0  0  0  0  0  0  0  0  0  0
    5.7806    6.5096    0.0000 C   0  0  0  0  0  0  0  0  0  0  0  0
    4.8671    6.9164    0.0000 C   0  0  0  0  0  0  0  0  0  0  0  0
    6.3380   10.5673    0.0000 C   0  0  0  0  0  0  0  0  0  0  0  0
    3.1350    6.9164    0.0000 C   0  0  0  0  0  0  0  0  0  0  0  0
    2.2690    6.4164    0.0000 C   0  0  0  0  0  0  0  0  0  0  0  0
    3.1350    7.9164    0.0000 C   0  0  0  0  0  0  0  0  0  0  0  0
    4.0010    8.4164    0.0000 C   0  0  0  0  0  0  0  0  0  0  0  0
    1.4030    6.9164    0.0000 C   0  0  0  0  0  0  0  0  0  0  0  0
    2.2690    8.4164    0.0000 C   0  0  0  0  0  0  0  0  0  0  0  0
    2.2690    5.4164    0.0000 C   0  0  0  0  0  0  0  0  0  0  0  0
    4.0010    9.4164    0.0000 C   0  0  0  0  0  0  0  0  0  0  0  0
    0.5369    6.4164    0.0000 C   0  0  0  0  0  0  0  0  0  0  0  0
    2.2690    9.4164    0.0000 C   0  0  0  0  0  0  0  0  0  0  0  0
    1.4030    4.9164    0.0000 C   0  0  0  0  0  0  0  0  0  0  0  0
    3.1350    9.9164    0.0000 C   0  0  0  0  0  0  0  0  0  0  0  0
    0.5369    5.4164    0.0000 C   0  0  0  0  0  0  0  0  0  0  0  0
    4.1329    0.5369    0.0000 C   0  0  0  0  0  0  0  0  0  0  0  0
    7.0958    6.9317    0.0000 H   0  0  0  0  0  0  0  0  0  0  0  0
    7.7946    9.5397    0.0000 H   0  0  0  0  0  0  0  0  0  0  0  0
    9.9978    7.7734    0.0000 H   0  0  0  0  0  0  0  0  0  0  0  0
    9.6186    8.5425    0.0000 H   0  0  0  0  0  0  0  0  0  0  0  0
    8.9357    6.4113    0.0000 H   0  0  0  0  0  0  0  0  0  0  0  0
    9.7390    6.8075    0.0000 H   0  0  0  0  0  0  0  0  0  0  0  0
    4.8693    8.5224    0.0000 H   0  0  0  0  0  0  0  0  0  0  0  0
    4.3519    7.8920    0.0000 H   0  0  0  0  0  0  0  0  0  0  0  0
    5.4429    5.9896    0.0000 H   0  0  0  0  0  0  0  0  0  0  0  0
    6.2414    6.0948    0.0000 H   0  0  0  0  0  0  0  0  0  0  0  0
    4.3471    7.2540    0.0000 H   0  0  0  0  0  0  0  0  0  0  0  0
    6.8749   10.8773    0.0000 H   0  0  0  0  0  0  0  0  0  0  0  0
    6.0280   11.1043    0.0000 H   0  0  0  0  0  0  0  0  0  0  0  0
    5.8010   10.2573    0.0000 H   0  0  0  0  0  0  0  0  0  0  0  0
    3.1350    6.2964    0.0000 H   0  0  0  0  0  0  0  0  0  0  0  0
    4.5380    8.1064    0.0000 H   0  0  0  0  0  0  0  0  0  0  0  0
    1.4030    7.5364    0.0000 H   0  0  0  0  0  0  0  0  0  0  0  0
    1.7320    8.1064    0.0000 H   0  0  0  0  0  0  0  0  0  0  0  0
    2.8059    5.1064    0.0000 H   0  0  0  0  0  0  0  0  0  0  0  0
    4.5380    9.7264    0.0000 H   0  0  0  0  0  0  0  0  0  0  0  0
    0.0000    6.7264    0.0000 H   0  0  0  0  0  0  0  0  0  0  0  0
    1.7320    9.7264    0.0000 H   0  0  0  0  0  0  0  0  0  0  0  0
    1.4030    4.2964    0.0000 H   0  0  0  0  0  0  0  0  0  0  0  0
    3.1350   10.5364    0.0000 H   0  0  0  0  0  0  0  0  0  0  0  0
    0.0000    5.1064    0.0000 H   0  0  0  0  0  0  0  0  0  0  0  0
    3.8229    1.0739    0.0000 H   0  0  0  0  0  0  0  0  0  0  0  0
    3.5960    0.2269    0.0000 H   0  0  0  0  0  0  0  0  0  0  0  0
    4.4429    0.0000    0.0000 H   0  0  0  0  0  0  0  0  0  0  0  0
    6.4019    1.2269    0.0000 H   0  0  0  0  0  0  0  0  0  0  0  0
  1  3  1  0  0  0  0
  1  4  2  0  0  0  0
  1  5  2  0  0  0  0
  1 28  1  0  0  0  0
  2 13  1  0  0  0  0
  2 15  1  0  0  0  0
  3 57  1  0  0  0  0
  6  7  1  0  0  0  0
  6  8  1  0  0  0  0
  6 14  1  0  0  0  0
  7  9  1  0  0  0  0
  7 11  1  0  0  0  0
  7 30  1  1  0  0  0
  8 10  1  0  0  0  0
  8 12  1  0  0  0  0
  8 29  1  1  0  0  0
  9 10  1  0  0  0  0
  9 31  1  0  0  0  0
  9 32  1  0  0  0  0
 10 33  1  0  0  0  0
 10 34  1  0  0  0  0
 11 13  1  0  0  0  0
 11 35  1  0  0  0  0
 11 36  1  0  0  0  0
 12 13  1  0  0  0  0
 12 37  1  0  0  0  0
 12 38  1  0  0  0  0
 13 39  1  0  0  0  0
 14 40  1  0  0  0  0
 14 41  1  0  0  0  0
 14 42  1  0  0  0  0
 15 16  1  0  0  0  0
 15 17  1  0  0  0  0
 15 43  1  0  0  0  0
 16 19  2  0  0  0  0
 16 21  1  0  0  0  0
 17 18  2  0  0  0  0
 17 20  1  0  0  0  0
 18 22  1  0  0  0  0
 18 44  1  0  0  0  0
 19 23  1  0  0  0  0
 19 45  1  0  0  0  0
 20 24  2  0  0  0  0
 20 46  1  0  0  0  0
 21 25  2  0  0  0  0
 21 47  1  0  0  0  0
 22 26  2  0  0  0  0
 22 48  1  0  0  0  0
 23 27  2  0  0  0  0
 23 49  1  0  0  0  0
 24 26  1  0  0  0  0
 24 50  1  0  0  0  0
 25 27  1  0  0  0  0
 25 51  1  0  0  0  0
 26 52  1  0  0  0  0
 27 53  1  0  0  0  0
 28 54  1  0  0  0  0
 28 55  1  0  0  0  0
 28 56  1  0  0  0  0
M  END
> <PUBCHEM_COMPOUND_CID>
8584

> <PUBCHEM_COMPOUND_CANONICALIZED>
1

> <PUBCHEM_CACTVS_COMPLEXITY>
433

> <PUBCHEM_CACTVS_HBOND_ACCEPTOR>
5

> <PUBCHEM_CACTVS_HBOND_DONOR>
1

> <PUBCHEM_CACTVS_ROTATABLE_BOND>
4

> <PUBCHEM_CACTVS_SUBSKEYS>
AAADceB6OABAAAAAAAAAAAAAAAAAAWAAAAA8YIAABgAAAAABQAAAHgQACAAADDzhmAayAIMABIKAAiBCAHACAAAgAAAIiAAICIgIJiKAsRiGMAAmwAGIqAeQwOAOAAAAAAAAAAAAAAAAAAAAAAAAAAAAAA==

> <PUBCHEM_IUPAC_OPENEYE_NAME>
(1R,5R)-3-benzhydryloxy-8-methyl-8-azabicyclo[3.2.1]octane; methanesulfonic acid

> <PUBCHEM_IUPAC_CAS_NAME>
(1R,5R)-3-(diphenylmethyl)oxy-8-methyl-8-azabicyclo[3.2.1]octane; methanesulfonic acid

> <PUBCHEM_IUPAC_NAME>
(1R,5R)-3-benzhydryloxy-8-methyl-8-azabicyclo[3.2.1]octane; methanesulfonic acid

> <PUBCHEM_IUPAC_SYSTEMATIC_NAME>
(1R,5R)-3-(diphenylmethyl)oxy-8-methyl-8-azabicyclo[3.2.1]octane; methanesulfonic acid

> <PUBCHEM_IUPAC_TRADITIONAL_NAME>
(1R,5R)-3-benzhydryloxy-8-methyl-8-azabicyclo[3.2.1]octane; mesylic acid

> <PUBCHEM_IUPAC_INCHI>
InChI=1S/C21H25NO.CH4O3S/c1-22-18-12-13-19(22)15-20(14-18)23-21(16-8-4-2-5-9-16)17-10-6-3-7-11-17;1-5(2,3)4/h2-11,18-21H,12-15H2,1H3;1H3,(H,2,3,4)/t18-,19-;/m1./s1

> <PUBCHEM_IUPAC_INCHIKEY>
CPFJLLXFNPCTDW-STYNFMPRSA-N

> <PUBCHEM_EXACT_MASS>
403.181729

> <PUBCHEM_MOLECULAR_FORMULA>
C22H29NO4S

> <PUBCHEM_MOLECULAR_WEIGHT>
403.53496

> <PUBCHEM_OPENEYE_CAN_SMILES>
CN1C2CCC1CC(C2)OC(C3=CC=CC=C3)C4=CC=CC=C4.CS(=O)(=O)O

> <PUBCHEM_OPENEYE_ISO_SMILES>
CN1[C@@H]2CC[C@@H]1CC(C2)OC(C3=CC=CC=C3)C4=CC=CC=C4.CS(=O)(=O)O

> <PUBCHEM_CACTVS_TPSA>
75.2

> <PUBCHEM_MONOISOTOPIC_WEIGHT>
403.181729

> <PUBCHEM_TOTAL_CHARGE>
0

> <PUBCHEM_HEAVY_ATOM_COUNT>
28

> <PUBCHEM_ATOM_DEF_STEREO_COUNT>
2

> <PUBCHEM_ATOM_UDEF_STEREO_COUNT>
0

> <PUBCHEM_BOND_DEF_STEREO_COUNT>
0

> <PUBCHEM_BOND_UDEF_STEREO_COUNT>
0

> <PUBCHEM_ISOTOPIC_ATOM_COUNT>
0

> <PUBCHEM_COMPONENT_COUNT>
2

> <PUBCHEM_CACTVS_TAUTO_COUNT>
1

> <PUBCHEM_COORDINATE_TYPE>
1
5
255

> <PUBCHEM_BONDANNOTATIONS>
16  19  8
16  21  8
17  18  8
17  20  8
18  22  8
19  23  8
20  24  8
21  25  8
22  26  8
23  27  8
24  26  8
25  27  8
7  30  5
8  29  5

$$$$

