14440
  -OEChem-06241222432D

 61 61  0     1  0  0  0  0  0999 V2000
    4.0010    2.6200    0.0000 O   0  0  0  0  0  0  0  0  0  0  0  0
    4.9340    9.3740    0.0000 O   0  0  0  0  0  0  0  0  0  0  0  0
    6.1661   10.2400    0.0000 O   0  0  0  0  0  0  0  0  0  0  0  0
    5.3001   11.7400    0.0000 O   0  0  0  0  0  0  0  0  0  0  0  0
    2.7020    8.2400    0.0000 O   0  0  0  0  0  0  0  0  0  0  0  0
    4.4340    8.2400    0.0000 O   0  0  0  0  0  0  0  0  0  0  0  0
    2.4340   11.9720    0.0000 O   0  5  0  0  0  0  0  0  0  0  0  0
    2.4340   10.2400    0.0000 O   0  0  0  0  0  0  0  0  0  0  0  0
    1.4030    2.1200    0.0000 N   0  3  0  0  0  0  0  0  0  0  0  0
    2.2690    2.6200    0.0000 C   0  0  0  0  0  0  0  0  0  0  0  0
    3.1350    2.1200    0.0000 C   0  0  0  0  0  0  0  0  0  0  0  0
    0.5369    1.6200    0.0000 C   0  0  0  0  0  0  0  0  0  0  0  0
    0.9030    2.9860    0.0000 C   0  0  0  0  0  0  0  0  0  0  0  0
    4.4340   10.2400    0.0000 C   0  0  3  0  0  0  0  0  0  0  0  0
    5.7331    2.6200    0.0000 C   0  0  0  0  0  0  0  0  0  0  0  0
    4.8671    2.1200    0.0000 C   0  0  0  0  0  0  0  0  0  0  0  0
    5.7331    3.6200    0.0000 C   0  0  0  0  0  0  0  0  0  0  0  0
    3.5680    9.7400    0.0000 C   0  0  0  0  0  0  0  0  0  0  0  0
    3.9340   11.1060    0.0000 C   0  0  0  0  0  0  0  0  0  0  0  0
    6.5991    4.1200    0.0000 C   0  0  0  0  0  0  0  0  0  0  0  0
    6.5991    2.1200    0.0000 C   0  0  0  0  0  0  0  0  0  0  0  0
    4.8671    1.1200    0.0000 C   0  0  0  0  0  0  0  0  0  0  0  0
    5.3001   10.7400    0.0000 C   0  0  0  0  0  0  0  0  0  0  0  0
    6.5991    1.1200    0.0000 C   0  0  0  0  0  0  0  0  0  0  0  0
    5.7331    0.6200    0.0000 C   0  0  0  0  0  0  0  0  0  0  0  0
    3.5680    8.7400    0.0000 C   0  0  0  0  0  0  0  0  0  0  0  0
    7.4651    3.6200    0.0000 C   0  0  0  0  0  0  0  0  0  0  0  0
    6.5991    5.1200    0.0000 C   0  0  0  0  0  0  0  0  0  0  0  0
    2.9340   11.1060    0.0000 C   0  0  0  0  0  0  0  0  0  0  0  0
    8.3312    4.1200    0.0000 C   0  0  0  0  0  0  0  0  0  0  0  0
    7.4651    5.6200    0.0000 C   0  0  0  0  0  0  0  0  0  0  0  0
    8.3312    5.1200    0.0000 C   0  0  0  0  0  0  0  0  0  0  0  0
    1.7130    1.5831    0.0000 H   0  0  0  0  0  0  0  0  0  0  0  0
    2.6675    3.0950    0.0000 H   0  0  0  0  0  0  0  0  0  0  0  0
    1.8705    3.0950    0.0000 H   0  0  0  0  0  0  0  0  0  0  0  0
    2.7365    1.6450    0.0000 H   0  0  0  0  0  0  0  0  0  0  0  0
    3.5335    1.6450    0.0000 H   0  0  0  0  0  0  0  0  0  0  0  0
    0.2269    2.1569    0.0000 H   0  0  0  0  0  0  0  0  0  0  0  0
    1.4399    3.2960    0.0000 H   0  0  0  0  0  0  0  0  0  0  0  0
    0.5930    3.5230    0.0000 H   0  0  0  0  0  0  0  0  0  0  0  0
    0.3660    2.6760    0.0000 H   0  0  0  0  0  0  0  0  0  0  0  0
    0.0000    1.3100    0.0000 H   0  0  0  0  0  0  0  0  0  0  0  0
    0.8469    1.0831    0.0000 H   0  0  0  0  0  0  0  0  0  0  0  0
    5.5210    4.2026    0.0000 H   0  0  0  0  0  0  0  0  0  0  0  0
    5.1225    3.5123    0.0000 H   0  0  0  0  0  0  0  0  0  0  0  0
    3.3560   10.3226    0.0000 H   0  0  0  0  0  0  0  0  0  0  0  0
    2.9574    9.6323    0.0000 H   0  0  0  0  0  0  0  0  0  0  0  0
    4.5167   11.3181    0.0000 H   0  0  0  0  0  0  0  0  0  0  0  0
    3.8264   11.7166    0.0000 H   0  0  0  0  0  0  0  0  0  0  0  0
    7.1360    2.4300    0.0000 H   0  0  0  0  0  0  0  0  0  0  0  0
    4.3301    0.8100    0.0000 H   0  0  0  0  0  0  0  0  0  0  0  0
    7.1360    0.8100    0.0000 H   0  0  0  0  0  0  0  0  0  0  0  0
    5.7331    0.0000    0.0000 H   0  0  0  0  0  0  0  0  0  0  0  0
    4.6241    8.8370    0.0000 H   0  0  0  0  0  0  0  0  0  0  0  0
    7.4651    3.0000    0.0000 H   0  0  0  0  0  0  0  0  0  0  0  0
    6.0622    5.4300    0.0000 H   0  0  0  0  0  0  0  0  0  0  0  0
    8.8681    3.8100    0.0000 H   0  0  0  0  0  0  0  0  0  0  0  0
    7.4651    6.2400    0.0000 H   0  0  0  0  0  0  0  0  0  0  0  0
    8.8681    5.4300    0.0000 H   0  0  0  0  0  0  0  0  0  0  0  0
    6.7030   10.5500    0.0000 H   0  0  0  0  0  0  0  0  0  0  0  0
    2.1651    8.5500    0.0000 H   0  0  0  0  0  0  0  0  0  0  0  0
  1 11  1  0  0  0  0
  1 16  1  0  0  0  0
  2 14  1  0  0  0  0
  2 54  1  0  0  0  0
  3 23  1  0  0  0  0
  3 60  1  0  0  0  0
  4 23  2  0  0  0  0
  5 26  1  0  0  0  0
  5 61  1  0  0  0  0
  6 26  2  0  0  0  0
  7 29  1  0  0  0  0
  8 29  2  0  0  0  0
  9 10  1  0  0  0  0
  9 12  1  0  0  0  0
  9 13  1  0  0  0  0
  9 33  1  0  0  0  0
 10 11  1  0  0  0  0
 10 34  1  0  0  0  0
 10 35  1  0  0  0  0
 11 36  1  0  0  0  0
 11 37  1  0  0  0  0
 12 38  1  0  0  0  0
 12 42  1  0  0  0  0
 12 43  1  0  0  0  0
 13 39  1  0  0  0  0
 13 40  1  0  0  0  0
 13 41  1  0  0  0  0
 14 18  1  0  0  0  0
 14 19  1  0  0  0  0
 14 23  1  0  0  0  0
 15 16  1  0  0  0  0
 15 17  1  0  0  0  0
 15 21  2  0  0  0  0
 16 22  2  0  0  0  0
 17 20  1  0  0  0  0
 17 44  1  0  0  0  0
 17 45  1  0  0  0  0
 18 26  1  0  0  0  0
 18 46  1  0  0  0  0
 18 47  1  0  0  0  0
 19 29  1  0  0  0  0
 19 48  1  0  0  0  0
 19 49  1  0  0  0  0
 20 27  2  0  0  0  0
 20 28  1  0  0  0  0
 21 24  1  0  0  0  0
 21 50  1  0  0  0  0
 22 25  1  0  0  0  0
 22 51  1  0  0  0  0
 24 25  2  0  0  0  0
 24 52  1  0  0  0  0
 25 53  1  0  0  0  0
 27 30  1  0  0  0  0
 27 55  1  0  0  0  0
 28 31  2  0  0  0  0
 28 56  1  0  0  0  0
 30 32  2  0  0  0  0
 30 57  1  0  0  0  0
 31 32  1  0  0  0  0
 31 58  1  0  0  0  0
 32 59  1  0  0  0  0
M  CHG  2   7  -1   9   1
M  END
> <PUBCHEM_COMPOUND_CID>
14440

> <PUBCHEM_COMPOUND_CANONICALIZED>
1

> <PUBCHEM_CACTVS_COMPLEXITY>
475

> <PUBCHEM_CACTVS_HBOND_ACCEPTOR>
8

> <PUBCHEM_CACTVS_HBOND_DONOR>
4

> <PUBCHEM_CACTVS_ROTATABLE_BOND>
10

> <PUBCHEM_CACTVS_SUBSKEYS>
AAADceB6PAAAAAAAAAAAAAAAAAAAAAAAAAAwYAAAAAAAAAABQAAAHgAQCAAADEThmAYyDoPABgCIAiDSCAICCAAgIAAIiIFOCIgPJjaEMRqDeCCl8BEZqAfL5uAOAAAAAAAIAAAAAAAAABAAAAAAAAAAAA==

> <PUBCHEM_IUPAC_OPENEYE_NAME>
2-(2-benzylphenoxy)ethyl-dimethyl-ammonium; 3-carboxy-3,5-dihydroxy-5-oxo-pentanoate

> <PUBCHEM_IUPAC_CAS_NAME>
3-carboxy-3,5-dihydroxy-5-oxopentanoate; dimethyl-[2-[2-(phenylmethyl)phenoxy]ethyl]ammonium

> <PUBCHEM_IUPAC_NAME>
2-(2-benzylphenoxy)ethyl-dimethylazanium; 3-carboxy-3,5-dihydroxy-5-oxopentanoate

> <PUBCHEM_IUPAC_SYSTEMATIC_NAME>
3-carboxy-3,5-bis(oxidanyl)-5-oxidanylidene-pentanoate; dimethyl-[2-[2-(phenylmethyl)phenoxy]ethyl]azanium

> <PUBCHEM_IUPAC_TRADITIONAL_NAME>
2-(2-benzylphenoxy)ethyl-dimethyl-ammonium; 3-carboxy-3,5-dihydroxy-5-keto-valerate

> <PUBCHEM_IUPAC_INCHI>
InChI=1S/C17H21NO.C6H8O7/c1-18(2)12-13-19-17-11-7-6-10-16(17)14-15-8-4-3-5-9-15;7-3(8)1-6(13,5(11)12)2-4(9)10/h3-11H,12-14H2,1-2H3;13H,1-2H2,(H,7,8)(H,9,10)(H,11,12)

> <PUBCHEM_IUPAC_INCHIKEY>
ZZYHCCDMBJTROG-UHFFFAOYSA-N

> <PUBCHEM_EXACT_MASS>
447.189317

> <PUBCHEM_MOLECULAR_FORMULA>
C23H29NO8

> <PUBCHEM_MOLECULAR_WEIGHT>
447.47826

> <PUBCHEM_OPENEYE_CAN_SMILES>
C[NH+](C)CCOC1=CC=CC=C1CC2=CC=CC=C2.C(C(=O)O)C(CC(=O)[O-])(C(=O)O)O

> <PUBCHEM_OPENEYE_ISO_SMILES>
C[NH+](C)CCOC1=CC=CC=C1CC2=CC=CC=C2.C(C(=O)O)C(CC(=O)[O-])(C(=O)O)O

> <PUBCHEM_CACTVS_TPSA>
149

> <PUBCHEM_MONOISOTOPIC_WEIGHT>
447.189317

> <PUBCHEM_TOTAL_CHARGE>
0

> <PUBCHEM_HEAVY_ATOM_COUNT>
32

> <PUBCHEM_ATOM_DEF_STEREO_COUNT>
0

> <PUBCHEM_ATOM_UDEF_STEREO_COUNT>
1

> <PUBCHEM_BOND_DEF_STEREO_COUNT>
0

> <PUBCHEM_BOND_UDEF_STEREO_COUNT>
0

> <PUBCHEM_ISOTOPIC_ATOM_COUNT>
0

> <PUBCHEM_COMPONENT_COUNT>
2

> <PUBCHEM_CACTVS_TAUTO_COUNT>
1

> <PUBCHEM_COORDINATE_TYPE>
1
5
255

> <PUBCHEM_BONDANNOTATIONS>
15  16  8
15  21  8
16  22  8
14  2  3
20  27  8
20  28  8
21  24  8
22  25  8
24  25  8
27  30  8
28  31  8
30  32  8
31  32  8

$$$$

