4264
  -OEChem-06261200002D

 79 80  0     1  0  0  0  0  0999 V2000
   12.8923    4.5390    0.0000 O   0  0  0  0  0  0  0  0  0  0  0  0
    9.7942    3.9050    0.0000 O   0  0  0  0  0  0  0  0  0  0  0  0
    9.7942    6.9050    0.0000 O   0  0  0  0  0  0  0  0  0  0  0  0
    8.0622    5.9050    0.0000 O   0  0  0  0  0  0  0  0  0  0  0  0
   15.9904    5.9050    0.0000 O   0  0  0  0  0  0  0  0  0  0  0  0
    6.3301    0.9050    0.0000 O   0  0  0  0  0  0  0  0  0  0  0  0
    8.0622    0.9050    0.0000 O   0  0  0  0  0  0  0  0  0  0  0  0
    2.0000   -6.5950    0.0000 O   0  0  0  0  0  0  0  0  0  0  0  0
    3.7320   -6.5950    0.0000 O   0  0  0  0  0  0  0  0  0  0  0  0
   12.3923    5.4050    0.0000 C   0  0  3  0  0  0  0  0  0  0  0  0
   13.3923    5.4050    0.0000 C   0  0  3  0  0  0  0  0  0  0  0  0
   11.5263    5.9050    0.0000 C   0  0  0  0  0  0  0  0  0  0  0  0
   10.6603    5.4050    0.0000 C   0  0  3  0  0  0  0  0  0  0  0  0
   14.2583    5.9050    0.0000 C   0  0  3  0  0  0  0  0  0  0  0  0
    9.7942    5.9050    0.0000 C   0  0  3  0  0  0  0  0  0  0  0  0
   10.6603    4.4050    0.0000 C   0  0  0  0  0  0  0  0  0  0  0  0
    8.9282    5.4050    0.0000 C   0  0  3  0  0  0  0  0  0  0  0  0
   15.1244    5.4050    0.0000 C   0  0  3  0  0  0  0  0  0  0  0  0
    8.9282    4.4050    0.0000 C   0  0  3  0  0  0  0  0  0  0  0  0
   14.2583    6.9050    0.0000 C   0  0  0  0  0  0  0  0  0  0  0  0
    8.0622    3.9050    0.0000 C   0  0  0  0  0  0  0  0  0  0  0  0
   15.1244    4.4050    0.0000 C   0  0  0  0  0  0  0  0  0  0  0  0
    8.0622    2.9050    0.0000 C   0  0  0  0  0  0  0  0  0  0  0  0
    8.9282    2.4050    0.0000 C   0  0  0  0  0  0  0  0  0  0  0  0
    7.1962    2.4050    0.0000 C   0  0  0  0  0  0  0  0  0  0  0  0
    7.1962    1.4050    0.0000 C   0  0  0  0  0  0  0  0  0  0  0  0
    6.3301   -0.0950    0.0000 C   0  0  0  0  0  0  0  0  0  0  0  0
    5.4641   -0.5950    0.0000 C   0  0  0  0  0  0  0  0  0  0  0  0
    5.4641   -1.5950    0.0000 C   0  0  0  0  0  0  0  0  0  0  0  0
    4.5981   -2.0950    0.0000 C   0  0  0  0  0  0  0  0  0  0  0  0
    4.5981   -3.0950    0.0000 C   0  0  0  0  0  0  0  0  0  0  0  0
    3.7320   -3.5950    0.0000 C   0  0  0  0  0  0  0  0  0  0  0  0
    3.7320   -4.5950    0.0000 C   0  0  0  0  0  0  0  0  0  0  0  0
    2.8660   -5.0950    0.0000 C   0  0  0  0  0  0  0  0  0  0  0  0
    2.8660   -6.0950    0.0000 C   0  0  0  0  0  0  0  0  0  0  0  0
   11.7913    4.8040    0.0000 H   0  0  0  0  0  0  0  0  0  0  0  0
   13.9933    4.8040    0.0000 H   0  0  0  0  0  0  0  0  0  0  0  0
   11.9248    6.3800    0.0000 H   0  0  0  0  0  0  0  0  0  0  0  0
   11.1278    6.3800    0.0000 H   0  0  0  0  0  0  0  0  0  0  0  0
   11.3964    4.9800    0.0000 H   0  0  0  0  0  0  0  0  0  0  0  0
   14.9945    6.3300    0.0000 H   0  0  0  0  0  0  0  0  0  0  0  0
    9.0581    6.3300    0.0000 H   0  0  0  0  0  0  0  0  0  0  0  0
   10.8723    3.8224    0.0000 H   0  0  0  0  0  0  0  0  0  0  0  0
   11.2708    4.5127    0.0000 H   0  0  0  0  0  0  0  0  0  0  0  0
    8.9282    6.2550    0.0000 H   0  0  0  0  0  0  0  0  0  0  0  0
   15.1244    6.2550    0.0000 H   0  0  0  0  0  0  0  0  0  0  0  0
    8.9282    3.5550    0.0000 H   0  0  0  0  0  0  0  0  0  0  0  0
   14.8783    6.9050    0.0000 H   0  0  0  0  0  0  0  0  0  0  0  0
   14.2583    7.5250    0.0000 H   0  0  0  0  0  0  0  0  0  0  0  0
   13.6383    6.9050    0.0000 H   0  0  0  0  0  0  0  0  0  0  0  0
    7.8501    4.4876    0.0000 H   0  0  0  0  0  0  0  0  0  0  0  0
    7.4516    3.7973    0.0000 H   0  0  0  0  0  0  0  0  0  0  0  0
   14.5044    4.4050    0.0000 H   0  0  0  0  0  0  0  0  0  0  0  0
   15.1244    3.7850    0.0000 H   0  0  0  0  0  0  0  0  0  0  0  0
   15.7444    4.4050    0.0000 H   0  0  0  0  0  0  0  0  0  0  0  0
    9.2573    7.2150    0.0000 H   0  0  0  0  0  0  0  0  0  0  0  0
    7.5252    5.5950    0.0000 H   0  0  0  0  0  0  0  0  0  0  0  0
   16.5273    5.5950    0.0000 H   0  0  0  0  0  0  0  0  0  0  0  0
    8.6182    1.8681    0.0000 H   0  0  0  0  0  0  0  0  0  0  0  0
    9.4651    2.0950    0.0000 H   0  0  0  0  0  0  0  0  0  0  0  0
    9.2382    2.9419    0.0000 H   0  0  0  0  0  0  0  0  0  0  0  0
    6.6592    2.7150    0.0000 H   0  0  0  0  0  0  0  0  0  0  0  0
    6.5422   -0.6776    0.0000 H   0  0  0  0  0  0  0  0  0  0  0  0
    6.9407    0.0127    0.0000 H   0  0  0  0  0  0  0  0  0  0  0  0
    5.2520   -0.0124    0.0000 H   0  0  0  0  0  0  0  0  0  0  0  0
    4.8535   -0.7027    0.0000 H   0  0  0  0  0  0  0  0  0  0  0  0
    5.6762   -2.1776    0.0000 H   0  0  0  0  0  0  0  0  0  0  0  0
    6.0747   -1.4873    0.0000 H   0  0  0  0  0  0  0  0  0  0  0  0
    4.3860   -1.5124    0.0000 H   0  0  0  0  0  0  0  0  0  0  0  0
    3.9875   -2.2027    0.0000 H   0  0  0  0  0  0  0  0  0  0  0  0
    4.8101   -3.6776    0.0000 H   0  0  0  0  0  0  0  0  0  0  0  0
    5.2087   -2.9873    0.0000 H   0  0  0  0  0  0  0  0  0  0  0  0
    3.5200   -3.0124    0.0000 H   0  0  0  0  0  0  0  0  0  0  0  0
    3.1215   -3.7027    0.0000 H   0  0  0  0  0  0  0  0  0  0  0  0
    3.9441   -5.1776    0.0000 H   0  0  0  0  0  0  0  0  0  0  0  0
    4.3426   -4.4873    0.0000 H   0  0  0  0  0  0  0  0  0  0  0  0
    2.6540   -4.5124    0.0000 H   0  0  0  0  0  0  0  0  0  0  0  0
    2.2554   -5.2027    0.0000 H   0  0  0  0  0  0  0  0  0  0  0  0
    2.0000   -7.2150    0.0000 H   0  0  0  0  0  0  0  0  0  0  0  0
  1 10  1  0  0  0  0
  1 11  1  0  0  0  0
  2 16  1  0  0  0  0
  2 19  1  0  0  0  0
  3 15  1  0  0  0  0
  3 56  1  0  0  0  0
  4 17  1  0  0  0  0
  4 57  1  0  0  0  0
  5 18  1  0  0  0  0
  5 58  1  0  0  0  0
  6 26  1  0  0  0  0
  6 27  1  0  0  0  0
  7 26  2  0  0  0  0
  8 35  1  0  0  0  0
  8 79  1  0  0  0  0
  9 35  2  0  0  0  0
 10 11  1  0  0  0  0
 10 12  1  0  0  0  0
 10 36  1  0  0  0  0
 11 14  1  0  0  0  0
 11 37  1  0  0  0  0
 12 13  1  0  0  0  0
 12 38  1  0  0  0  0
 12 39  1  0  0  0  0
 13 15  1  0  0  0  0
 13 16  1  0  0  0  0
 13 40  1  0  0  0  0
 14 18  1  0  0  0  0
 14 20  1  0  0  0  0
 14 41  1  0  0  0  0
 15 17  1  0  0  0  0
 15 42  1  0  0  0  0
 16 43  1  0  0  0  0
 16 44  1  0  0  0  0
 17 19  1  0  0  0  0
 17 45  1  0  0  0  0
 18 22  1  0  0  0  0
 18 46  1  0  0  0  0
 19 21  1  0  0  0  0
 19 47  1  0  0  0  0
 20 48  1  0  0  0  0
 20 49  1  0  0  0  0
 20 50  1  0  0  0  0
 21 23  1  0  0  0  0
 21 51  1  0  0  0  0
 21 52  1  0  0  0  0
 22 53  1  0  0  0  0
 22 54  1  0  0  0  0
 22 55  1  0  0  0  0
 23 24  1  0  0  0  0
 23 25  2  3  0  0  0
 24 59  1  0  0  0  0
 24 60  1  0  0  0  0
 24 61  1  0  0  0  0
 25 26  1  0  0  0  0
 25 62  1  0  0  0  0
 27 28  1  0  0  0  0
 27 63  1  0  0  0  0
 27 64  1  0  0  0  0
 28 29  1  0  0  0  0
 28 65  1  0  0  0  0
 28 66  1  0  0  0  0
 29 30  1  0  0  0  0
 29 67  1  0  0  0  0
 29 68  1  0  0  0  0
 30 31  1  0  0  0  0
 30 69  1  0  0  0  0
 30 70  1  0  0  0  0
 31 32  1  0  0  0  0
 31 71  1  0  0  0  0
 31 72  1  0  0  0  0
 32 33  1  0  0  0  0
 32 73  1  0  0  0  0
 32 74  1  0  0  0  0
 33 34  1  0  0  0  0
 33 75  1  0  0  0  0
 33 76  1  0  0  0  0
 34 35  1  0  0  0  0
 34 77  1  0  0  0  0
 34 78  1  0  0  0  0
M  END
> <PUBCHEM_COMPOUND_CID>
4264

> <PUBCHEM_COMPOUND_CANONICALIZED>
1

> <PUBCHEM_CACTVS_COMPLEXITY>
694

> <PUBCHEM_CACTVS_HBOND_ACCEPTOR>
9

> <PUBCHEM_CACTVS_HBOND_DONOR>
4

> <PUBCHEM_CACTVS_ROTATABLE_BOND>
17

> <PUBCHEM_CACTVS_SUBSKEYS>
AAADcfB4PAAAAAAAAAAAAAAAEgAAAAAAAAAkAAAAAAAAAAAAAAAAGgAACAAADRSggAICCAAABgCIAiDSCAAAAAAgAAAACAEAAEgBFBIAIQACUAAFwAALIQPI6OyOAAAAAAAAAAAAAAAAAAAAAAAAAAAAAA==

> <PUBCHEM_IUPAC_OPENEYE_NAME>
9-[4-[3,4-dihydroxy-5-[[3-(2-hydroxy-1-methyl-propyl)oxiran-2-yl]methyl]tetrahydropyran-2-yl]-3-methyl-but-2-enoyl]oxynonanoic acid

> <PUBCHEM_IUPAC_CAS_NAME>
9-[4-[3,4-dihydroxy-5-[[3-(3-hydroxybutan-2-yl)-2-oxiranyl]methyl]-2-oxanyl]-3-methyl-1-oxobut-2-enoxy]nonanoic acid

> <PUBCHEM_IUPAC_NAME>
9-[4-[3,4-dihydroxy-5-[[3-(3-hydroxybutan-2-yl)oxiran-2-yl]methyl]oxan-2-yl]-3-methylbut-2-enoyl]oxynonanoic acid

> <PUBCHEM_IUPAC_SYSTEMATIC_NAME>
9-[4-[3,4-bis(oxidanyl)-5-[[3-(3-oxidanylbutan-2-yl)oxiran-2-yl]methyl]oxan-2-yl]-3-methyl-but-2-enoyl]oxynonanoic acid

> <PUBCHEM_IUPAC_TRADITIONAL_NAME>
9-[4-[3,4-dihydroxy-5-[[3-(2-hydroxy-1-methyl-propyl)oxiran-2-yl]methyl]tetrahydropyran-2-yl]-3-methyl-but-2-enoyl]oxypelargonic acid

> <PUBCHEM_IUPAC_INCHI>
InChI=1S/C26H44O9/c1-16(13-23(30)33-11-9-7-5-4-6-8-10-22(28)29)12-20-25(32)24(31)19(15-34-20)14-21-26(35-21)17(2)18(3)27/h13,17-21,24-27,31-32H,4-12,14-15H2,1-3H3,(H,28,29)

> <PUBCHEM_IUPAC_INCHIKEY>
MINDHVHHQZYEEK-UHFFFAOYSA-N

> <PUBCHEM_XLOGP3_AA>
3

> <PUBCHEM_EXACT_MASS>
500.298533

> <PUBCHEM_MOLECULAR_FORMULA>
C26H44O9

> <PUBCHEM_MOLECULAR_WEIGHT>
500.62216

> <PUBCHEM_OPENEYE_CAN_SMILES>
CC(C1C(O1)CC2COC(C(C2O)O)CC(=CC(=O)OCCCCCCCCC(=O)O)C)C(C)O

> <PUBCHEM_OPENEYE_ISO_SMILES>
CC(C1C(O1)CC2COC(C(C2O)O)CC(=CC(=O)OCCCCCCCCC(=O)O)C)C(C)O

> <PUBCHEM_CACTVS_TPSA>
146

> <PUBCHEM_MONOISOTOPIC_WEIGHT>
500.298533

> <PUBCHEM_TOTAL_CHARGE>
0

> <PUBCHEM_HEAVY_ATOM_COUNT>
35

> <PUBCHEM_ATOM_DEF_STEREO_COUNT>
0

> <PUBCHEM_ATOM_UDEF_STEREO_COUNT>
8

> <PUBCHEM_BOND_DEF_STEREO_COUNT>
0

> <PUBCHEM_BOND_UDEF_STEREO_COUNT>
1

> <PUBCHEM_ISOTOPIC_ATOM_COUNT>
0

> <PUBCHEM_COMPONENT_COUNT>
1

> <PUBCHEM_CACTVS_TAUTO_COUNT>
1

> <PUBCHEM_COORDINATE_TYPE>
1
5
255

> <PUBCHEM_BONDANNOTATIONS>
10  36  3
11  37  3
13  40  3
14  41  3
15  42  3
17  45  3
18  46  3
19  47  3
23  25  1

$$$$

