11078
  -OEChem-06261205182D

 49 48  0     0  0  0  0  0  0999 V2000
   10.0851    4.4650    0.0000 Cl  0  0  0  0  0  0  0  0  0  0  0  0
    5.7331    4.8100    0.0000 O   0  0  0  0  0  0  0  0  0  0  0  0
    3.1350    3.3100    0.0000 O   0  0  0  0  0  0  0  0  0  0  0  0
    4.0010    4.8100    0.0000 O   0  0  0  0  0  0  0  0  0  0  0  0
    6.5991    7.3100    0.0000 N   0  0  0  0  0  0  0  0  0  0  0  0
    4.8671    0.3100    0.0000 N   0  0  0  0  0  0  0  0  0  0  0  0
    6.5991    6.3100    0.0000 C   0  0  0  0  0  0  0  0  0  0  0  0
    7.4651    7.8100    0.0000 C   0  0  0  0  0  0  0  0  0  0  0  0
    5.7331    7.8100    0.0000 C   0  0  0  0  0  0  0  0  0  0  0  0
    5.7331    5.8100    0.0000 C   0  0  0  0  0  0  0  0  0  0  0  0
    5.7331    8.8100    0.0000 C   0  0  0  0  0  0  0  0  0  0  0  0
    7.4651    8.8100    0.0000 C   0  0  0  0  0  0  0  0  0  0  0  0
    4.8671    3.3100    0.0000 C   0  0  0  0  0  0  0  0  0  0  0  0
    4.0010    2.8100    0.0000 C   0  0  0  0  0  0  0  0  0  0  0  0
    4.8671    4.3100    0.0000 C   0  0  0  0  0  0  0  0  0  0  0  0
    2.2690    2.8100    0.0000 C   0  0  0  0  0  0  0  0  0  0  0  0
    5.7331    2.8100    0.0000 C   0  0  0  0  0  0  0  0  0  0  0  0
    4.0010    1.8100    0.0000 C   0  0  0  0  0  0  0  0  0  0  0  0
    1.4030    3.3100    0.0000 C   0  0  0  0  0  0  0  0  0  0  0  0
    4.8671    1.3100    0.0000 C   0  0  0  0  0  0  0  0  0  0  0  0
    5.7331    1.8100    0.0000 C   0  0  0  0  0  0  0  0  0  0  0  0
    0.5369    2.8100    0.0000 C   0  0  0  0  0  0  0  0  0  0  0  0
    6.8112    5.7274    0.0000 H   0  0  0  0  0  0  0  0  0  0  0  0
    7.2097    6.4177    0.0000 H   0  0  0  0  0  0  0  0  0  0  0  0
    7.6772    7.2274    0.0000 H   0  0  0  0  0  0  0  0  0  0  0  0
    8.0757    7.9177    0.0000 H   0  0  0  0  0  0  0  0  0  0  0  0
    5.1225    7.9177    0.0000 H   0  0  0  0  0  0  0  0  0  0  0  0
    5.5210    7.2274    0.0000 H   0  0  0  0  0  0  0  0  0  0  0  0
    5.5210    6.3926    0.0000 H   0  0  0  0  0  0  0  0  0  0  0  0
    5.1225    5.7023    0.0000 H   0  0  0  0  0  0  0  0  0  0  0  0
    8.0851    8.8100    0.0000 H   0  0  0  0  0  0  0  0  0  0  0  0
    7.4651    9.4300    0.0000 H   0  0  0  0  0  0  0  0  0  0  0  0
    6.8451    8.8100    0.0000 H   0  0  0  0  0  0  0  0  0  0  0  0
    6.3531    8.8100    0.0000 H   0  0  0  0  0  0  0  0  0  0  0  0
    5.7331    9.4300    0.0000 H   0  0  0  0  0  0  0  0  0  0  0  0
    5.1131    8.8100    0.0000 H   0  0  0  0  0  0  0  0  0  0  0  0
    1.8705    2.3350    0.0000 H   0  0  0  0  0  0  0  0  0  0  0  0
    2.6675    2.3350    0.0000 H   0  0  0  0  0  0  0  0  0  0  0  0
    6.2700    3.1200    0.0000 H   0  0  0  0  0  0  0  0  0  0  0  0
    3.4641    1.5000    0.0000 H   0  0  0  0  0  0  0  0  0  0  0  0
    1.8015    3.7850    0.0000 H   0  0  0  0  0  0  0  0  0  0  0  0
    1.0044    3.7850    0.0000 H   0  0  0  0  0  0  0  0  0  0  0  0
    6.2700    1.5000    0.0000 H   0  0  0  0  0  0  0  0  0  0  0  0
    0.2269    3.3469    0.0000 H   0  0  0  0  0  0  0  0  0  0  0  0
    0.0000    2.5000    0.0000 H   0  0  0  0  0  0  0  0  0  0  0  0
    0.8469    2.2731    0.0000 H   0  0  0  0  0  0  0  0  0  0  0  0
    5.4040    0.0000    0.0000 H   0  0  0  0  0  0  0  0  0  0  0  0
    4.3301    0.0000    0.0000 H   0  0  0  0  0  0  0  0  0  0  0  0
   11.0851    4.4650    0.0000 H   0  0  0  0  0  0  0  0  0  0  0  0
  1 49  1  0  0  0  0
  2 10  1  0  0  0  0
  2 15  1  0  0  0  0
  3 14  1  0  0  0  0
  3 16  1  0  0  0  0
  4 15  2  0  0  0  0
  5  7  1  0  0  0  0
  5  8  1  0  0  0  0
  5  9  1  0  0  0  0
  6 20  1  0  0  0  0
  6 47  1  0  0  0  0
  6 48  1  0  0  0  0
  7 10  1  0  0  0  0
  7 23  1  0  0  0  0
  7 24  1  0  0  0  0
  8 12  1  0  0  0  0
  8 25  1  0  0  0  0
  8 26  1  0  0  0  0
  9 11  1  0  0  0  0
  9 27  1  0  0  0  0
  9 28  1  0  0  0  0
 10 29  1  0  0  0  0
 10 30  1  0  0  0  0
 11 34  1  0  0  0  0
 11 35  1  0  0  0  0
 11 36  1  0  0  0  0
 12 31  1  0  0  0  0
 12 32  1  0  0  0  0
 12 33  1  0  0  0  0
 13 14  2  0  0  0  0
 13 15  1  0  0  0  0
 13 17  1  0  0  0  0
 14 18  1  0  0  0  0
 16 19  1  0  0  0  0
 16 37  1  0  0  0  0
 16 38  1  0  0  0  0
 17 21  2  0  0  0  0
 17 39  1  0  0  0  0
 18 20  2  0  0  0  0
 18 40  1  0  0  0  0
 19 22  1  0  0  0  0
 19 41  1  0  0  0  0
 19 42  1  0  0  0  0
 20 21  1  0  0  0  0
 21 43  1  0  0  0  0
 22 44  1  0  0  0  0
 22 45  1  0  0  0  0
 22 46  1  0  0  0  0
M  END
> <PUBCHEM_COMPOUND_CID>
11078

> <PUBCHEM_COMPOUND_CANONICALIZED>
1

> <PUBCHEM_CACTVS_COMPLEXITY>
295

> <PUBCHEM_CACTVS_HBOND_ACCEPTOR>
5

> <PUBCHEM_CACTVS_HBOND_DONOR>
2

> <PUBCHEM_CACTVS_ROTATABLE_BOND>
10

> <PUBCHEM_CACTVS_SUBSKEYS>
AAADceB7MAAEAAAAAAAAAAAAAAAAAAAAAAAwAAAAAAAAAAABAAAAHgAQAAAADAzhmAYyzoNABACIAiTSSACCCAAkIgAIiAEObMgOJzaEtZuDOWDn8BmY6YeY2SGeCAAAAgAIAAAQAAAEABAAAAAAAAAAAA==

> <PUBCHEM_IUPAC_OPENEYE_NAME>
2-(diethylamino)ethyl 4-amino-2-propoxy-benzoate hydrochloride

> <PUBCHEM_IUPAC_CAS_NAME>
4-amino-2-propoxybenzoic acid 2-(diethylamino)ethyl ester hydrochloride

> <PUBCHEM_IUPAC_NAME>
2-(diethylamino)ethyl 4-amino-2-propoxybenzoate hydrochloride

> <PUBCHEM_IUPAC_SYSTEMATIC_NAME>
2-(diethylamino)ethyl 4-azanyl-2-propoxy-benzoate hydrochloride

> <PUBCHEM_IUPAC_TRADITIONAL_NAME>
4-amino-2-propoxy-benzoic acid 2-(diethylamino)ethyl ester hydrochloride

> <PUBCHEM_IUPAC_INCHI>
InChI=1S/C16H26N2O3.ClH/c1-4-10-20-15-12-13(17)7-8-14(15)16(19)21-11-9-18(5-2)6-3;/h7-8,12H,4-6,9-11,17H2,1-3H3;1H

> <PUBCHEM_IUPAC_INCHIKEY>
GITPCGSPKUQZTE-UHFFFAOYSA-N

> <PUBCHEM_EXACT_MASS>
330.17102

> <PUBCHEM_MOLECULAR_FORMULA>
C16H27ClN2O3

> <PUBCHEM_MOLECULAR_WEIGHT>
330.85018

> <PUBCHEM_OPENEYE_CAN_SMILES>
CCCOC1=C(C=CC(=C1)N)C(=O)OCCN(CC)CC.Cl

> <PUBCHEM_OPENEYE_ISO_SMILES>
CCCOC1=C(C=CC(=C1)N)C(=O)OCCN(CC)CC.Cl

> <PUBCHEM_CACTVS_TPSA>
64.8

> <PUBCHEM_MONOISOTOPIC_WEIGHT>
330.17102

> <PUBCHEM_TOTAL_CHARGE>
0

> <PUBCHEM_HEAVY_ATOM_COUNT>
22

> <PUBCHEM_ATOM_DEF_STEREO_COUNT>
0

> <PUBCHEM_ATOM_UDEF_STEREO_COUNT>
0

> <PUBCHEM_BOND_DEF_STEREO_COUNT>
0

> <PUBCHEM_BOND_UDEF_STEREO_COUNT>
0

> <PUBCHEM_ISOTOPIC_ATOM_COUNT>
0

> <PUBCHEM_COMPONENT_COUNT>
2

> <PUBCHEM_CACTVS_TAUTO_COUNT>
3

> <PUBCHEM_COORDINATE_TYPE>
1
5
255

> <PUBCHEM_BONDANNOTATIONS>
13  14  8
13  17  8
14  18  8
17  21  8
18  20  8
20  21  8

$$$$

