17396125
  -OEChem-06241222542D

 33 36  0     0  0  0  0  0  0999 V2000
   10.0392   -0.8601    0.0000 S   0  0  0  0  0  0  0  0  0  0  0  0
    8.6907    0.7348    0.0000 O   0  0  0  0  0  0  0  0  0  0  0  0
    7.3991   -0.4192    0.0000 N   0  0  0  0  0  0  0  0  0  0  0  0
    9.6967   -2.4414    0.0000 N   0  0  0  0  0  0  0  0  0  0  0  0
    4.5274    2.4414    0.0000 C   0  0  0  0  0  0  0  0  0  0  0  0
    5.3364    1.8536    0.0000 C   0  0  0  0  0  0  0  0  0  0  0  0
    5.0274    0.9026    0.0000 C   0  0  0  0  0  0  0  0  0  0  0  0
    3.7183    1.8536    0.0000 C   0  0  0  0  0  0  0  0  0  0  0  0
    4.0274    0.9026    0.0000 C   0  0  0  0  0  0  0  0  0  0  0  0
    5.7123    0.1178    0.0000 C   0  0  0  0  0  0  0  0  0  0  0  0
    6.3518    2.0859    0.0000 C   0  0  0  0  0  0  0  0  0  0  0  0
    6.7328    0.3265    0.0000 C   0  0  0  0  0  0  0  0  0  0  0  0
    2.7029    2.0859    0.0000 C   0  0  0  0  0  0  0  0  0  0  0  0
    3.3424    0.1178    0.0000 C   0  0  0  0  0  0  0  0  0  0  0  0
    7.0547    1.3172    0.0000 C   0  0  0  0  0  0  0  0  0  0  0  0
    2.0000    1.3172    0.0000 C   0  0  0  0  0  0  0  0  0  0  0  0
    2.3219    0.3265    0.0000 C   0  0  0  0  0  0  0  0  0  0  0  0
    8.3780   -0.2150    0.0000 C   0  0  0  0  0  0  0  0  0  0  0  0
    9.0443   -0.9607    0.0000 C   0  0  0  0  0  0  0  0  0  0  0  0
    8.8326   -1.9381    0.0000 C   0  0  0  0  0  0  0  0  0  0  0  0
   10.4424   -1.7752    0.0000 C   0  0  0  0  0  0  0  0  0  0  0  0
    4.9422    2.9022    0.0000 H   0  0  0  0  0  0  0  0  0  0  0  0
    4.1125    2.9022    0.0000 H   0  0  0  0  0  0  0  0  0  0  0  0
    5.5139   -0.4696    0.0000 H   0  0  0  0  0  0  0  0  0  0  0  0
    6.5365    2.6777    0.0000 H   0  0  0  0  0  0  0  0  0  0  0  0
    2.5182    2.6777    0.0000 H   0  0  0  0  0  0  0  0  0  0  0  0
    3.5408   -0.4696    0.0000 H   0  0  0  0  0  0  0  0  0  0  0  0
    7.6607    1.4484    0.0000 H   0  0  0  0  0  0  0  0  0  0  0  0
    1.3940    1.4484    0.0000 H   0  0  0  0  0  0  0  0  0  0  0  0
    1.9088   -0.1358    0.0000 H   0  0  0  0  0  0  0  0  0  0  0  0
    7.2052   -1.0081    0.0000 H   0  0  0  0  0  0  0  0  0  0  0  0
    8.2652   -2.1881    0.0000 H   0  0  0  0  0  0  0  0  0  0  0  0
   11.0484   -1.9064    0.0000 H   0  0  0  0  0  0  0  0  0  0  0  0
  1 19  1  0  0  0  0
  1 21  1  0  0  0  0
  2 18  2  0  0  0  0
  3 12  1  0  0  0  0
  3 18  1  0  0  0  0
  3 31  1  0  0  0  0
  4 20  1  0  0  0  0
  4 21  2  0  0  0  0
  5  6  1  0  0  0  0
  5  8  1  0  0  0  0
  5 22  1  0  0  0  0
  5 23  1  0  0  0  0
  6  7  2  0  0  0  0
  6 11  1  0  0  0  0
  7  9  1  0  0  0  0
  7 10  1  0  0  0  0
  8  9  1  0  0  0  0
  8 13  2  0  0  0  0
  9 14  2  0  0  0  0
 10 12  2  0  0  0  0
 10 24  1  0  0  0  0
 11 15  2  0  0  0  0
 11 25  1  0  0  0  0
 12 15  1  0  0  0  0
 13 16  1  0  0  0  0
 13 26  1  0  0  0  0
 14 17  1  0  0  0  0
 14 27  1  0  0  0  0
 15 28  1  0  0  0  0
 16 17  2  0  0  0  0
 16 29  1  0  0  0  0
 17 30  1  0  0  0  0
 18 19  1  0  0  0  0
 19 20  2  0  0  0  0
 20 32  1  0  0  0  0
 21 33  1  0  0  0  0
M  END
> <PUBCHEM_COMPOUND_CID>
17396125

> <PUBCHEM_COMPOUND_CANONICALIZED>
1

> <PUBCHEM_CACTVS_COMPLEXITY>
402

> <PUBCHEM_CACTVS_HBOND_ACCEPTOR>
3

> <PUBCHEM_CACTVS_HBOND_DONOR>
1

> <PUBCHEM_CACTVS_ROTATABLE_BOND>
2

> <PUBCHEM_CACTVS_SUBSKEYS>
AAADccB7IABAAAAAAAAAAAAAAAAAAeIAAAAwYAAAAAAAAGAB0AAAHgQQAAAADAjB2gS8wZLIEAisAjV3VACC8KB1CjhI2A0oZMgIICrA0ZGEIIhglADIyMcQgMAOiAAAQAAQAAAQAACAACAAAQAACAAAAA==

> <PUBCHEM_IUPAC_OPENEYE_NAME>
N-(9H-fluoren-3-yl)thiazole-5-carboxamide

> <PUBCHEM_IUPAC_CAS_NAME>
N-(9H-fluoren-3-yl)-5-thiazolecarboxamide

> <PUBCHEM_IUPAC_NAME>
N-(9H-fluoren-3-yl)-1,3-thiazole-5-carboxamide

> <PUBCHEM_IUPAC_SYSTEMATIC_NAME>
N-(9H-fluoren-3-yl)-1,3-thiazole-5-carboxamide

> <PUBCHEM_IUPAC_TRADITIONAL_NAME>
N-(9H-fluoren-3-yl)thiazole-5-carboxamide

> <PUBCHEM_IUPAC_INCHI>
InChI=1S/C17H12N2OS/c20-17(16-9-18-10-21-16)19-13-6-5-12-7-11-3-1-2-4-14(11)15(12)8-13/h1-6,8-10H,7H2,(H,19,20)

> <PUBCHEM_IUPAC_INCHIKEY>
DDQWWSKDEYVEMQ-UHFFFAOYSA-N

> <PUBCHEM_XLOGP3_AA>
3.7

> <PUBCHEM_EXACT_MASS>
292.067034

> <PUBCHEM_MOLECULAR_FORMULA>
C17H12N2OS

> <PUBCHEM_MOLECULAR_WEIGHT>
292.35498

> <PUBCHEM_OPENEYE_CAN_SMILES>
C1C2=C(C=C(C=C2)NC(=O)C3=CN=CS3)C4=CC=CC=C41

> <PUBCHEM_OPENEYE_ISO_SMILES>
C1C2=C(C=C(C=C2)NC(=O)C3=CN=CS3)C4=CC=CC=C41

> <PUBCHEM_CACTVS_TPSA>
70.2

> <PUBCHEM_MONOISOTOPIC_WEIGHT>
292.067034

> <PUBCHEM_TOTAL_CHARGE>
0

> <PUBCHEM_HEAVY_ATOM_COUNT>
21

> <PUBCHEM_ATOM_DEF_STEREO_COUNT>
0

> <PUBCHEM_ATOM_UDEF_STEREO_COUNT>
0

> <PUBCHEM_BOND_DEF_STEREO_COUNT>
0

> <PUBCHEM_BOND_UDEF_STEREO_COUNT>
0

> <PUBCHEM_ISOTOPIC_ATOM_COUNT>
0

> <PUBCHEM_COMPONENT_COUNT>
1

> <PUBCHEM_CACTVS_TAUTO_COUNT>
2

> <PUBCHEM_COORDINATE_TYPE>
1
5
255

> <PUBCHEM_BONDANNOTATIONS>
1  19  8
1  21  8
10  12  8
11  15  8
12  15  8
13  16  8
14  17  8
16  17  8
19  20  8
4  20  8
4  21  8
6  11  8
6  7  8
7  10  8
8  13  8
8  9  8
9  14  8

$$$$

