47205591
  -OEChem-06241222592D

 39 40  0     1  0  0  0  0  0999 V2000
    2.8660   -1.0194    0.0000 O   0  0  0  0  0  0  0  0  0  0  0  0
    3.7320    2.4806    0.0000 O   0  0  0  0  0  0  0  0  0  0  0  0
    5.4641    3.4806    0.0000 N   0  0  0  0  0  0  0  0  0  0  0  0
    4.5981    0.9806    0.0000 N   0  0  0  0  0  0  0  0  0  0  0  0
    4.9641    5.0194    0.0000 N   0  0  0  0  0  0  0  0  0  0  0  0
    5.4641    2.4806    0.0000 C   0  0  3  0  0  0  0  0  0  0  0  0
    4.5981    1.9806    0.0000 C   0  0  0  0  0  0  0  0  0  0  0  0
    6.3301    1.9806    0.0000 C   0  0  0  0  0  0  0  0  0  0  0  0
    3.7320    0.4806    0.0000 C   0  0  0  0  0  0  0  0  0  0  0  0
    3.7320   -0.5194    0.0000 C   0  0  0  0  0  0  0  0  0  0  0  0
    6.2731    4.0684    0.0000 C   0  0  0  0  0  0  0  0  0  0  0  0
    4.6551    4.0684    0.0000 C   0  0  0  0  0  0  0  0  0  0  0  0
    5.9641    5.0194    0.0000 C   0  0  0  0  0  0  0  0  0  0  0  0
    2.8660   -2.0194    0.0000 C   0  0  0  0  0  0  0  0  0  0  0  0
    2.8660   -4.0194    0.0000 C   0  0  0  0  0  0  0  0  0  0  0  0
    2.0000   -2.5194    0.0000 C   0  0  0  0  0  0  0  0  0  0  0  0
    3.7320   -2.5194    0.0000 C   0  0  0  0  0  0  0  0  0  0  0  0
    2.0000   -3.5194    0.0000 C   0  0  0  0  0  0  0  0  0  0  0  0
    3.7320   -3.5194    0.0000 C   0  0  0  0  0  0  0  0  0  0  0  0
    2.8660   -5.0194    0.0000 C   0  0  0  0  0  0  0  0  0  0  0  0
    6.0010    2.7906    0.0000 H   0  0  0  0  0  0  0  0  0  0  0  0
    6.0201    1.4436    0.0000 H   0  0  0  0  0  0  0  0  0  0  0  0
    6.8671    1.6706    0.0000 H   0  0  0  0  0  0  0  0  0  0  0  0
    6.6401    2.5175    0.0000 H   0  0  0  0  0  0  0  0  0  0  0  0
    3.5200    1.0632    0.0000 H   0  0  0  0  0  0  0  0  0  0  0  0
    3.1215    0.3729    0.0000 H   0  0  0  0  0  0  0  0  0  0  0  0
    5.1350    0.6706    0.0000 H   0  0  0  0  0  0  0  0  0  0  0  0
    3.9441   -1.1020    0.0000 H   0  0  0  0  0  0  0  0  0  0  0  0
    4.3426   -0.4118    0.0000 H   0  0  0  0  0  0  0  0  0  0  0  0
    6.8628    3.8768    0.0000 H   0  0  0  0  0  0  0  0  0  0  0  0
    4.0654    3.8768    0.0000 H   0  0  0  0  0  0  0  0  0  0  0  0
    6.3285    5.5210    0.0000 H   0  0  0  0  0  0  0  0  0  0  0  0
    1.4631   -2.2094    0.0000 H   0  0  0  0  0  0  0  0  0  0  0  0
    4.2690   -2.2094    0.0000 H   0  0  0  0  0  0  0  0  0  0  0  0
    1.4631   -3.8294    0.0000 H   0  0  0  0  0  0  0  0  0  0  0  0
    4.2690   -3.8294    0.0000 H   0  0  0  0  0  0  0  0  0  0  0  0
    2.2460   -5.0194    0.0000 H   0  0  0  0  0  0  0  0  0  0  0  0
    2.8660   -5.6394    0.0000 H   0  0  0  0  0  0  0  0  0  0  0  0
    3.4860   -5.0194    0.0000 H   0  0  0  0  0  0  0  0  0  0  0  0
  1 10  1  0  0  0  0
  1 14  1  0  0  0  0
  2  7  2  0  0  0  0
  3  6  1  0  0  0  0
  3 11  1  0  0  0  0
  3 12  1  0  0  0  0
  4  7  1  0  0  0  0
  4  9  1  0  0  0  0
  4 27  1  0  0  0  0
  5 12  2  0  0  0  0
  5 13  1  0  0  0  0
  6  7  1  0  0  0  0
  6  8  1  0  0  0  0
  6 21  1  0  0  0  0
  8 22  1  0  0  0  0
  8 23  1  0  0  0  0
  8 24  1  0  0  0  0
  9 10  1  0  0  0  0
  9 25  1  0  0  0  0
  9 26  1  0  0  0  0
 10 28  1  0  0  0  0
 10 29  1  0  0  0  0
 11 13  2  0  0  0  0
 11 30  1  0  0  0  0
 12 31  1  0  0  0  0
 13 32  1  0  0  0  0
 14 16  2  0  0  0  0
 14 17  1  0  0  0  0
 15 18  2  0  0  0  0
 15 19  1  0  0  0  0
 15 20  1  0  0  0  0
 16 18  1  0  0  0  0
 16 33  1  0  0  0  0
 17 19  2  0  0  0  0
 17 34  1  0  0  0  0
 18 35  1  0  0  0  0
 19 36  1  0  0  0  0
 20 37  1  0  0  0  0
 20 38  1  0  0  0  0
 20 39  1  0  0  0  0
M  END
> <PUBCHEM_COMPOUND_CID>
47205591

> <PUBCHEM_COMPOUND_CANONICALIZED>
1

> <PUBCHEM_CACTVS_COMPLEXITY>
304

> <PUBCHEM_CACTVS_HBOND_ACCEPTOR>
3

> <PUBCHEM_CACTVS_HBOND_DONOR>
1

> <PUBCHEM_CACTVS_ROTATABLE_BOND>
6

> <PUBCHEM_CACTVS_SUBSKEYS>
AAADceBzMAAAAAAAAAAAAAAAAAAAAWAAAAAwAAAAAAAAAAABwAAAHgAQAAAADCzhmgY/lpfMFACoAjF3dAACiC0xMqAJyIGeOIiObiKEOTqXOCCs1hOYqCeAwAAOIAAAAAAAAABAAAAAAAAAAAAAAAAAAA==

> <PUBCHEM_IUPAC_OPENEYE_NAME>
2-imidazol-1-yl-N-[2-(4-methylphenoxy)ethyl]propanamide

> <PUBCHEM_IUPAC_CAS_NAME>
2-(1-imidazolyl)-N-[2-(4-methylphenoxy)ethyl]propanamide

> <PUBCHEM_IUPAC_NAME>
2-imidazol-1-yl-N-[2-(4-methylphenoxy)ethyl]propanamide

> <PUBCHEM_IUPAC_SYSTEMATIC_NAME>
2-imidazol-1-yl-N-[2-(4-methylphenoxy)ethyl]propanamide

> <PUBCHEM_IUPAC_TRADITIONAL_NAME>
2-imidazol-1-yl-N-[2-(4-methylphenoxy)ethyl]propionamide

> <PUBCHEM_IUPAC_INCHI>
InChI=1S/C15H19N3O2/c1-12-3-5-14(6-4-12)20-10-8-17-15(19)13(2)18-9-7-16-11-18/h3-7,9,11,13H,8,10H2,1-2H3,(H,17,19)

> <PUBCHEM_IUPAC_INCHIKEY>
QVANURBCJDBFDU-UHFFFAOYSA-N

> <PUBCHEM_XLOGP3_AA>
1.9

> <PUBCHEM_EXACT_MASS>
273.147727

> <PUBCHEM_MOLECULAR_FORMULA>
C15H19N3O2

> <PUBCHEM_MOLECULAR_WEIGHT>
273.33026

> <PUBCHEM_OPENEYE_CAN_SMILES>
CC1=CC=C(C=C1)OCCNC(=O)C(C)N2C=CN=C2

> <PUBCHEM_OPENEYE_ISO_SMILES>
CC1=CC=C(C=C1)OCCNC(=O)C(C)N2C=CN=C2

> <PUBCHEM_CACTVS_TPSA>
56.2

> <PUBCHEM_MONOISOTOPIC_WEIGHT>
273.147727

> <PUBCHEM_TOTAL_CHARGE>
0

> <PUBCHEM_HEAVY_ATOM_COUNT>
20

> <PUBCHEM_ATOM_DEF_STEREO_COUNT>
0

> <PUBCHEM_ATOM_UDEF_STEREO_COUNT>
1

> <PUBCHEM_BOND_DEF_STEREO_COUNT>
0

> <PUBCHEM_BOND_UDEF_STEREO_COUNT>
0

> <PUBCHEM_ISOTOPIC_ATOM_COUNT>
0

> <PUBCHEM_COMPONENT_COUNT>
1

> <PUBCHEM_CACTVS_TAUTO_COUNT>
2

> <PUBCHEM_COORDINATE_TYPE>
1
5
255

> <PUBCHEM_BONDANNOTATIONS>
11  13  8
14  16  8
14  17  8
15  18  8
15  19  8
16  18  8
17  19  8
3  11  8
3  12  8
5  12  8
5  13  8
6  8  3

$$$$

