17396003
  -OEChem-06241222532D

 45 48  0     1  0  0  0  0  0999 V2000
    7.6730   -0.9044    0.0000 O   0  0  0  0  0  0  0  0  0  0  0  0
    4.9718    3.5844    0.0000 O   0  0  0  0  0  0  0  0  0  0  0  0
    9.7958   -4.6596    0.0000 O   0  0  0  0  0  0  0  0  0  0  0  0
    7.6730    1.0956    0.0000 O   0  0  0  0  0  0  0  0  0  0  0  0
    5.9409    1.0956    0.0000 N   0  0  0  0  0  0  0  0  0  0  0  0
    9.4852   -2.0996    0.0000 C   0  0  0  0  0  0  0  0  0  0  0  0
    8.5390   -2.4044    0.0000 C   0  0  0  0  0  0  0  0  0  0  0  0
   10.0688   -2.9044    0.0000 C   0  0  0  0  0  0  0  0  0  0  0  0
    8.5390   -3.4044    0.0000 C   0  0  0  0  0  0  0  0  0  0  0  0
    9.4852   -3.7091    0.0000 C   0  0  0  0  0  0  0  0  0  0  0  0
    7.6730   -1.9044    0.0000 C   0  0  0  0  0  0  0  0  0  0  0  0
    5.9409    2.0956    0.0000 C   0  0  3  0  0  0  0  0  0  0  0  0
    7.6730   -3.9044    0.0000 C   0  0  0  0  0  0  0  0  0  0  0  0
    5.0749    2.5956    0.0000 C   0  0  0  0  0  0  0  0  0  0  0  0
    6.8069   -2.4044    0.0000 C   0  0  0  0  0  0  0  0  0  0  0  0
    6.8069   -3.4044    0.0000 C   0  0  0  0  0  0  0  0  0  0  0  0
    3.5000    2.9276    0.0000 C   0  0  0  0  0  0  0  0  0  0  0  0
    4.1671    2.1905    0.0000 C   0  0  0  0  0  0  0  0  0  0  0  0
    6.8069    2.5956    0.0000 C   0  0  0  0  0  0  0  0  0  0  0  0
    4.0000    3.7936    0.0000 C   0  0  0  0  0  0  0  0  0  0  0  0
    6.8069   -0.4044    0.0000 C   0  0  0  0  0  0  0  0  0  0  0  0
    6.8069    0.5956    0.0000 C   0  0  0  0  0  0  0  0  0  0  0  0
    2.5000    2.9276    0.0000 C   0  0  0  0  0  0  0  0  0  0  0  0
    3.5000    4.6596    0.0000 C   0  0  0  0  0  0  0  0  0  0  0  0
    2.0000    3.7936    0.0000 C   0  0  0  0  0  0  0  0  0  0  0  0
    2.5000    4.6596    0.0000 C   0  0  0  0  0  0  0  0  0  0  0  0
   10.0226   -1.7904    0.0000 H   0  0  0  0  0  0  0  0  0  0  0  0
    9.2342   -1.5327    0.0000 H   0  0  0  0  0  0  0  0  0  0  0  0
   10.5297   -3.3191    0.0000 H   0  0  0  0  0  0  0  0  0  0  0  0
   10.5297   -2.4896    0.0000 H   0  0  0  0  0  0  0  0  0  0  0  0
    6.4778    1.7856    0.0000 H   0  0  0  0  0  0  0  0  0  0  0  0
    7.6730   -4.5244    0.0000 H   0  0  0  0  0  0  0  0  0  0  0  0
    6.2700   -2.0944    0.0000 H   0  0  0  0  0  0  0  0  0  0  0  0
    5.4040    0.7856    0.0000 H   0  0  0  0  0  0  0  0  0  0  0  0
    6.2700   -3.7144    0.0000 H   0  0  0  0  0  0  0  0  0  0  0  0
    4.0392    1.5839    0.0000 H   0  0  0  0  0  0  0  0  0  0  0  0
    7.1169    2.0587    0.0000 H   0  0  0  0  0  0  0  0  0  0  0  0
    7.3439    2.9056    0.0000 H   0  0  0  0  0  0  0  0  0  0  0  0
    6.4969    3.1326    0.0000 H   0  0  0  0  0  0  0  0  0  0  0  0
    6.1963   -0.2967    0.0000 H   0  0  0  0  0  0  0  0  0  0  0  0
    6.5949   -0.9870    0.0000 H   0  0  0  0  0  0  0  0  0  0  0  0
    2.1900    2.3906    0.0000 H   0  0  0  0  0  0  0  0  0  0  0  0
    3.8100    5.1965    0.0000 H   0  0  0  0  0  0  0  0  0  0  0  0
    1.3800    3.7936    0.0000 H   0  0  0  0  0  0  0  0  0  0  0  0
    2.1900    5.1965    0.0000 H   0  0  0  0  0  0  0  0  0  0  0  0
  1 11  1  0  0  0  0
  1 21  1  0  0  0  0
  2 14  1  0  0  0  0
  2 20  1  0  0  0  0
  3 10  2  0  0  0  0
  4 22  2  0  0  0  0
  5 12  1  0  0  0  0
  5 22  1  0  0  0  0
  5 34  1  0  0  0  0
  6  7  1  0  0  0  0
  6  8  1  0  0  0  0
  6 27  1  0  0  0  0
  6 28  1  0  0  0  0
  7  9  2  0  0  0  0
  7 11  1  0  0  0  0
  8 10  1  0  0  0  0
  8 29  1  0  0  0  0
  8 30  1  0  0  0  0
  9 10  1  0  0  0  0
  9 13  1  0  0  0  0
 11 15  2  0  0  0  0
 12 14  1  0  0  0  0
 12 19  1  0  0  0  0
 12 31  1  0  0  0  0
 13 16  2  0  0  0  0
 13 32  1  0  0  0  0
 14 18  2  0  0  0  0
 15 16  1  0  0  0  0
 15 33  1  0  0  0  0
 16 35  1  0  0  0  0
 17 18  1  0  0  0  0
 17 20  1  0  0  0  0
 17 23  2  0  0  0  0
 18 36  1  0  0  0  0
 19 37  1  0  0  0  0
 19 38  1  0  0  0  0
 19 39  1  0  0  0  0
 20 24  2  0  0  0  0
 21 22  1  0  0  0  0
 21 40  1  0  0  0  0
 21 41  1  0  0  0  0
 23 25  1  0  0  0  0
 23 42  1  0  0  0  0
 24 26  1  0  0  0  0
 24 43  1  0  0  0  0
 25 26  2  0  0  0  0
 25 44  1  0  0  0  0
 26 45  1  0  0  0  0
M  END
> <PUBCHEM_COMPOUND_CID>
17396003

> <PUBCHEM_COMPOUND_CANONICALIZED>
1

> <PUBCHEM_CACTVS_COMPLEXITY>
536

> <PUBCHEM_CACTVS_HBOND_ACCEPTOR>
4

> <PUBCHEM_CACTVS_HBOND_DONOR>
1

> <PUBCHEM_CACTVS_ROTATABLE_BOND>
5

> <PUBCHEM_CACTVS_SUBSKEYS>
AAADceB6OAAAAAAAAAAAAAAAAAAAAaIAAAAwYAAAAAAAAGgB9AAAHgAQAAAADCzhmAYyBsLABECIAqFSEAKCCAAkIAAIiIHODMgOJjKEtT+HOSjk1hGYqYea3bPegAABAAAYAAAAAAIAADAAAAAACAAAAA==

> <PUBCHEM_IUPAC_OPENEYE_NAME>
N-[1-(benzofuran-2-yl)ethyl]-2-(1-oxoindan-4-yl)oxy-acetamide

> <PUBCHEM_IUPAC_CAS_NAME>
N-[1-(2-benzofuranyl)ethyl]-2-[(1-oxo-2,3-dihydroinden-4-yl)oxy]acetamide

> <PUBCHEM_IUPAC_NAME>
N-[1-(1-benzofuran-2-yl)ethyl]-2-[(1-oxo-2,3-dihydroinden-4-yl)oxy]acetamide

> <PUBCHEM_IUPAC_SYSTEMATIC_NAME>
N-[1-(1-benzofuran-2-yl)ethyl]-2-[(1-oxidanylidene-2,3-dihydroinden-4-yl)oxy]ethanamide

> <PUBCHEM_IUPAC_TRADITIONAL_NAME>
N-[1-(benzofuran-2-yl)ethyl]-2-(1-ketoindan-4-yl)oxy-acetamide

> <PUBCHEM_IUPAC_INCHI>
InChI=1S/C21H19NO4/c1-13(20-11-14-5-2-3-7-18(14)26-20)22-21(24)12-25-19-8-4-6-15-16(19)9-10-17(15)23/h2-8,11,13H,9-10,12H2,1H3,(H,22,24)

> <PUBCHEM_IUPAC_INCHIKEY>
XLHJNONMTFSREO-UHFFFAOYSA-N

> <PUBCHEM_XLOGP3_AA>
3.3

> <PUBCHEM_EXACT_MASS>
349.131408

> <PUBCHEM_MOLECULAR_FORMULA>
C21H19NO4

> <PUBCHEM_MOLECULAR_WEIGHT>
349.37986

> <PUBCHEM_OPENEYE_CAN_SMILES>
CC(C1=CC2=CC=CC=C2O1)NC(=O)COC3=CC=CC4=C3CCC4=O

> <PUBCHEM_OPENEYE_ISO_SMILES>
CC(C1=CC2=CC=CC=C2O1)NC(=O)COC3=CC=CC4=C3CCC4=O

> <PUBCHEM_CACTVS_TPSA>
68.5

> <PUBCHEM_MONOISOTOPIC_WEIGHT>
349.131408

> <PUBCHEM_TOTAL_CHARGE>
0

> <PUBCHEM_HEAVY_ATOM_COUNT>
26

> <PUBCHEM_ATOM_DEF_STEREO_COUNT>
0

> <PUBCHEM_ATOM_UDEF_STEREO_COUNT>
1

> <PUBCHEM_BOND_DEF_STEREO_COUNT>
0

> <PUBCHEM_BOND_UDEF_STEREO_COUNT>
0

> <PUBCHEM_ISOTOPIC_ATOM_COUNT>
0

> <PUBCHEM_COMPONENT_COUNT>
1

> <PUBCHEM_CACTVS_TAUTO_COUNT>
4

> <PUBCHEM_COORDINATE_TYPE>
1
5
255

> <PUBCHEM_BONDANNOTATIONS>
11  15  8
12  19  3
13  16  8
14  18  8
15  16  8
17  18  8
17  20  8
17  23  8
2  14  8
2  20  8
20  24  8
23  25  8
24  26  8
25  26  8
7  11  8
7  9  8
9  13  8

$$$$

