17396407
  -OEChem-06241222562D

 50 53  0     1  0  0  0  0  0999 V2000
    2.9511    0.0394    0.0000 O   0  0  0  0  0  0  0  0  0  0  0  0
    4.0215   -3.2552    0.0000 O   0  0  0  0  0  0  0  0  0  0  0  0
    8.3648    3.5642    0.0000 O   0  0  0  0  0  0  0  0  0  0  0  0
    5.7667    1.0642    0.0000 N   0  0  3  0  0  0  0  0  0  0  0  0
    8.3648    0.5642    0.0000 N   0  0  0  0  0  0  0  0  0  0  0  0
    7.4988    2.0642    0.0000 N   0  0  0  0  0  0  0  0  0  0  0  0
    4.8532    0.6574    0.0000 C   0  0  3  0  0  0  0  0  0  0  0  0
    4.1840    1.4006    0.0000 C   0  0  0  0  0  0  0  0  0  0  0  0
    4.6840    2.2666    0.0000 C   0  0  0  0  0  0  0  0  0  0  0  0
    5.6622    2.0587    0.0000 C   0  0  0  0  0  0  0  0  0  0  0  0
    4.6453   -0.3207    0.0000 C   0  0  0  0  0  0  0  0  0  0  0  0
    6.6327    0.5642    0.0000 C   0  0  0  0  0  0  0  0  0  0  0  0
    3.6942   -0.6297    0.0000 C   0  0  0  0  0  0  0  0  0  0  0  0
    7.4988    1.0642    0.0000 C   0  0  0  0  0  0  0  0  0  0  0  0
    5.3884   -0.9898    0.0000 C   0  0  0  0  0  0  0  0  0  0  0  0
    3.4863   -1.6079    0.0000 C   0  0  0  0  0  0  0  0  0  0  0  0
    5.1805   -1.9680    0.0000 C   0  0  0  0  0  0  0  0  0  0  0  0
    4.2294   -2.2770    0.0000 C   0  0  0  0  0  0  0  0  0  0  0  0
    9.2308    1.0642    0.0000 C   0  0  0  0  0  0  0  0  0  0  0  0
    9.2308    2.0642    0.0000 C   0  0  0  0  0  0  0  0  0  0  0  0
    8.3648    2.5642    0.0000 C   0  0  0  0  0  0  0  0  0  0  0  0
   10.1248    0.5295    0.0000 C   0  0  0  0  0  0  0  0  0  0  0  0
    2.0000   -0.2696    0.0000 C   0  0  0  0  0  0  0  0  0  0  0  0
   10.1248    2.5988    0.0000 C   0  0  0  0  0  0  0  0  0  0  0  0
   11.0308    1.0434    0.0000 C   0  0  0  0  0  0  0  0  0  0  0  0
   11.0308    2.0850    0.0000 C   0  0  0  0  0  0  0  0  0  0  0  0
    3.0705   -3.5642    0.0000 C   0  0  0  0  0  0  0  0  0  0  0  0
    4.2543    0.4970    0.0000 H   0  0  0  0  0  0  0  0  0  0  0  0
    3.6824    1.7650    0.0000 H   0  0  0  0  0  0  0  0  0  0  0  0
    3.7692    0.9398    0.0000 H   0  0  0  0  0  0  0  0  0  0  0  0
    4.8756    2.8563    0.0000 H   0  0  0  0  0  0  0  0  0  0  0  0
    4.1176    2.5188    0.0000 H   0  0  0  0  0  0  0  0  0  0  0  0
    6.2822    2.0587    0.0000 H   0  0  0  0  0  0  0  0  0  0  0  0
    5.7270    2.6753    0.0000 H   0  0  0  0  0  0  0  0  0  0  0  0
    6.2342    0.0892    0.0000 H   0  0  0  0  0  0  0  0  0  0  0  0
    7.0313    0.0892    0.0000 H   0  0  0  0  0  0  0  0  0  0  0  0
    5.9781   -0.7983    0.0000 H   0  0  0  0  0  0  0  0  0  0  0  0
    2.8966   -1.7995    0.0000 H   0  0  0  0  0  0  0  0  0  0  0  0
    5.6412   -2.3828    0.0000 H   0  0  0  0  0  0  0  0  0  0  0  0
    8.3648   -0.0558    0.0000 H   0  0  0  0  0  0  0  0  0  0  0  0
   10.1176   -0.0904    0.0000 H   0  0  0  0  0  0  0  0  0  0  0  0
    1.8084    0.3200    0.0000 H   0  0  0  0  0  0  0  0  0  0  0  0
    1.4103   -0.4612    0.0000 H   0  0  0  0  0  0  0  0  0  0  0  0
    2.1916   -0.8593    0.0000 H   0  0  0  0  0  0  0  0  0  0  0  0
   10.1176    3.2188    0.0000 H   0  0  0  0  0  0  0  0  0  0  0  0
   11.5666    0.7313    0.0000 H   0  0  0  0  0  0  0  0  0  0  0  0
   11.5666    2.3970    0.0000 H   0  0  0  0  0  0  0  0  0  0  0  0
    2.8789   -2.9745    0.0000 H   0  0  0  0  0  0  0  0  0  0  0  0
    2.4808   -3.7558    0.0000 H   0  0  0  0  0  0  0  0  0  0  0  0
    3.2621   -4.1538    0.0000 H   0  0  0  0  0  0  0  0  0  0  0  0
  1 13  1  0  0  0  0
  1 23  1  0  0  0  0
  2 18  1  0  0  0  0
  2 27  1  0  0  0  0
  3 21  2  0  0  0  0
  4  7  1  0  0  0  0
  4 10  1  0  0  0  0
  4 12  1  0  0  0  0
  5 14  1  0  0  0  0
  5 19  1  0  0  0  0
  5 40  1  0  0  0  0
  6 14  2  0  0  0  0
  6 21  1  0  0  0  0
  7  8  1  0  0  0  0
  7 11  1  0  0  0  0
  7 28  1  0  0  0  0
  8  9  1  0  0  0  0
  8 29  1  0  0  0  0
  8 30  1  0  0  0  0
  9 10  1  0  0  0  0
  9 31  1  0  0  0  0
  9 32  1  0  0  0  0
 10 33  1  0  0  0  0
 10 34  1  0  0  0  0
 11 13  2  0  0  0  0
 11 15  1  0  0  0  0
 12 14  1  0  0  0  0
 12 35  1  0  0  0  0
 12 36  1  0  0  0  0
 13 16  1  0  0  0  0
 15 17  2  0  0  0  0
 15 37  1  0  0  0  0
 16 18  2  0  0  0  0
 16 38  1  0  0  0  0
 17 18  1  0  0  0  0
 17 39  1  0  0  0  0
 19 20  1  0  0  0  0
 19 22  2  0  0  0  0
 20 21  1  0  0  0  0
 20 24  2  0  0  0  0
 22 25  1  0  0  0  0
 22 41  1  0  0  0  0
 23 42  1  0  0  0  0
 23 43  1  0  0  0  0
 23 44  1  0  0  0  0
 24 26  1  0  0  0  0
 24 45  1  0  0  0  0
 25 26  2  0  0  0  0
 25 46  1  0  0  0  0
 26 47  1  0  0  0  0
 27 48  1  0  0  0  0
 27 49  1  0  0  0  0
 27 50  1  0  0  0  0
M  END
> <PUBCHEM_COMPOUND_CID>
17396407

> <PUBCHEM_COMPOUND_CANONICALIZED>
1

> <PUBCHEM_CACTVS_COMPLEXITY>
567

> <PUBCHEM_CACTVS_HBOND_ACCEPTOR>
4

> <PUBCHEM_CACTVS_HBOND_DONOR>
1

> <PUBCHEM_CACTVS_ROTATABLE_BOND>
5

> <PUBCHEM_CACTVS_SUBSKEYS>
AAADceB7MAAAAAAAAAAAAAAAAAAAAWAAAAAwYIAAAAAAAACBQAAAHgAQAAAADCzBmAYzxoPABACoAidydACCCAElIgAJiAEebMgMZzrE/ZuUMahn0BXI6ceY+K+OIAAACAAKAABAAAAQABQAAAAAAAAAAA==

> <PUBCHEM_IUPAC_OPENEYE_NAME>
2-[[2-(2,4-dimethoxyphenyl)pyrrolidin-1-yl]methyl]-1H-quinazolin-4-one

> <PUBCHEM_IUPAC_CAS_NAME>
2-[[2-(2,4-dimethoxyphenyl)-1-pyrrolidinyl]methyl]-1H-quinazolin-4-one

> <PUBCHEM_IUPAC_NAME>
2-[[2-(2,4-dimethoxyphenyl)pyrrolidin-1-yl]methyl]-1H-quinazolin-4-one

> <PUBCHEM_IUPAC_SYSTEMATIC_NAME>
2-[[2-(2,4-dimethoxyphenyl)pyrrolidin-1-yl]methyl]-1H-quinazolin-4-one

> <PUBCHEM_IUPAC_TRADITIONAL_NAME>
2-[[2-(2,4-dimethoxyphenyl)pyrrolidino]methyl]-1H-quinazolin-4-one

> <PUBCHEM_IUPAC_INCHI>
InChI=1S/C21H23N3O3/c1-26-14-9-10-16(19(12-14)27-2)18-8-5-11-24(18)13-20-22-17-7-4-3-6-15(17)21(25)23-20/h3-4,6-7,9-10,12,18H,5,8,11,13H2,1-2H3,(H,22,23,25)

> <PUBCHEM_IUPAC_INCHIKEY>
CGHAFXIJTUXEJT-UHFFFAOYSA-N

> <PUBCHEM_XLOGP3_AA>
2.7

> <PUBCHEM_EXACT_MASS>
365.173942

> <PUBCHEM_MOLECULAR_FORMULA>
C21H23N3O3

> <PUBCHEM_MOLECULAR_WEIGHT>
365.42562

> <PUBCHEM_OPENEYE_CAN_SMILES>
COC1=CC(=C(C=C1)C2CCCN2CC3=NC(=O)C4=CC=CC=C4N3)OC

> <PUBCHEM_OPENEYE_ISO_SMILES>
COC1=CC(=C(C=C1)C2CCCN2CC3=NC(=O)C4=CC=CC=C4N3)OC

> <PUBCHEM_CACTVS_TPSA>
63.2

> <PUBCHEM_MONOISOTOPIC_WEIGHT>
365.173942

> <PUBCHEM_TOTAL_CHARGE>
0

> <PUBCHEM_HEAVY_ATOM_COUNT>
27

> <PUBCHEM_ATOM_DEF_STEREO_COUNT>
0

> <PUBCHEM_ATOM_UDEF_STEREO_COUNT>
1

> <PUBCHEM_BOND_DEF_STEREO_COUNT>
0

> <PUBCHEM_BOND_UDEF_STEREO_COUNT>
0

> <PUBCHEM_ISOTOPIC_ATOM_COUNT>
0

> <PUBCHEM_COMPONENT_COUNT>
1

> <PUBCHEM_CACTVS_TAUTO_COUNT>
10

> <PUBCHEM_COORDINATE_TYPE>
1
5
255

> <PUBCHEM_BONDANNOTATIONS>
11  13  8
11  15  8
13  16  8
15  17  8
16  18  8
17  18  8
19  20  8
19  22  8
20  21  8
20  24  8
22  25  8
24  26  8
25  26  8
5  14  8
5  19  8
6  14  8
6  21  8
7  11  3

$$$$

