4121
  -OEChem-06251223542D

 31 32  0     1  0  0  0  0  0999 V2000
    2.0000    2.0737    0.0000 Cl  0  0  0  0  0  0  0  0  0  0  0  0
    7.2622    1.0979    0.0000 Cl  0  0  0  0  0  0  0  0  0  0  0  0
    3.7320   -0.9263    0.0000 S   0  0  0  0  0  0  0  0  0  0  0  0
    7.2622   -0.9504    0.0000 S   0  0  0  0  0  0  0  0  0  0  0  0
    3.2320   -1.7923    0.0000 O   0  0  0  0  0  0  0  0  0  0  0  0
    4.2320   -1.7923    0.0000 O   0  0  0  0  0  0  0  0  0  0  0  0
    6.7588   -1.8145    0.0000 O   0  0  0  0  0  0  0  0  0  0  0  0
    7.7655   -0.0863    0.0000 O   0  0  0  0  0  0  0  0  0  0  0  0
    2.8660   -0.4263    0.0000 N   0  0  3  0  0  0  0  0  0  0  0  0
    3.7320    1.0737    0.0000 N   0  0  0  0  0  0  0  0  0  0  0  0
    8.1263   -1.4537    0.0000 N   0  0  0  0  0  0  0  0  0  0  0  0
    2.8660    0.5737    0.0000 C   0  0  3  0  0  0  0  0  0  0  0  0
    4.5981   -0.4263    0.0000 C   0  0  0  0  0  0  0  0  0  0  0  0
    4.5981    0.5737    0.0000 C   0  0  0  0  0  0  0  0  0  0  0  0
    2.0000    1.0737    0.0000 C   0  0  0  0  0  0  0  0  0  0  0  0
    5.4920   -0.9609    0.0000 C   0  0  0  0  0  0  0  0  0  0  0  0
    2.0000   -0.9263    0.0000 C   0  0  0  0  0  0  0  0  0  0  0  0
    5.4920    1.1084    0.0000 C   0  0  0  0  0  0  0  0  0  0  0  0
    6.3981   -0.4471    0.0000 C   0  0  0  0  0  0  0  0  0  0  0  0
    6.3981    0.5946    0.0000 C   0  0  0  0  0  0  0  0  0  0  0  0
    2.8660    1.1937    0.0000 H   0  0  0  0  0  0  0  0  0  0  0  0
    3.7320    1.6937    0.0000 H   0  0  0  0  0  0  0  0  0  0  0  0
    1.3894    1.1814    0.0000 H   0  0  0  0  0  0  0  0  0  0  0  0
    1.7880    0.4911    0.0000 H   0  0  0  0  0  0  0  0  0  0  0  0
    5.4848   -1.5809    0.0000 H   0  0  0  0  0  0  0  0  0  0  0  0
    1.6900   -0.3893    0.0000 H   0  0  0  0  0  0  0  0  0  0  0  0
    1.4631   -1.2363    0.0000 H   0  0  0  0  0  0  0  0  0  0  0  0
    2.3100   -1.4632    0.0000 H   0  0  0  0  0  0  0  0  0  0  0  0
    5.4848    1.7284    0.0000 H   0  0  0  0  0  0  0  0  0  0  0  0
    8.6644   -1.1458    0.0000 H   0  0  0  0  0  0  0  0  0  0  0  0
    8.1239   -2.0737    0.0000 H   0  0  0  0  0  0  0  0  0  0  0  0
  1 15  1  0  0  0  0
  2 20  1  0  0  0  0
  3  5  2  0  0  0  0
  3  6  2  0  0  0  0
  3  9  1  0  0  0  0
  3 13  1  0  0  0  0
  4  7  2  0  0  0  0
  4  8  2  0  0  0  0
  4 11  1  0  0  0  0
  4 19  1  0  0  0  0
  9 12  1  0  0  0  0
  9 17  1  0  0  0  0
 10 12  1  0  0  0  0
 10 14  1  0  0  0  0
 10 22  1  0  0  0  0
 11 30  1  0  0  0  0
 11 31  1  0  0  0  0
 12 15  1  0  0  0  0
 12 21  1  0  0  0  0
 13 14  1  0  0  0  0
 13 16  2  0  0  0  0
 14 18  2  0  0  0  0
 15 23  1  0  0  0  0
 15 24  1  0  0  0  0
 16 19  1  0  0  0  0
 16 25  1  0  0  0  0
 17 26  1  0  0  0  0
 17 27  1  0  0  0  0
 17 28  1  0  0  0  0
 18 20  1  0  0  0  0
 18 29  1  0  0  0  0
 19 20  2  0  0  0  0
M  END
> <PUBCHEM_COMPOUND_CID>
4121

> <PUBCHEM_COMPOUND_CANONICALIZED>
1

> <PUBCHEM_CACTVS_COMPLEXITY>
571

> <PUBCHEM_CACTVS_HBOND_ACCEPTOR>
7

> <PUBCHEM_CACTVS_HBOND_DONOR>
2

> <PUBCHEM_CACTVS_ROTATABLE_BOND>
2

> <PUBCHEM_CACTVS_SUBSKEYS>
AAADccBzOABmAAAAAAAAAAAAAAAAAAAAAAA8QAAAAAAAAACxAAAAHAYQQAAACAvBUGQzwYLAAAKAACRCQHDCABAhBwAAiJwIZoiIICLBkpHEIAhokALIyCcQAAAAAAYAAEIAAYAADAAAhAADAAAAAAAAAA==

> <PUBCHEM_IUPAC_OPENEYE_NAME>
6-chloro-3-(chloromethyl)-2-methyl-1,1-dioxo-3,4-dihydro-1$l^{6},2,4-benzothiadiazine-7-sulfonamide

> <PUBCHEM_IUPAC_CAS_NAME>
6-chloro-3-(chloromethyl)-2-methyl-1,1-dioxo-3,4-dihydro-1$l^{6},2,4-benzothiadiazine-7-sulfonamide

> <PUBCHEM_IUPAC_NAME>
6-chloro-3-(chloromethyl)-2-methyl-1,1-dioxo-3,4-dihydro-1$l^{6},2,4-benzothiadiazine-7-sulfonamide

> <PUBCHEM_IUPAC_SYSTEMATIC_NAME>
6-chloranyl-3-(chloromethyl)-2-methyl-1,1-bis(oxidanylidene)-3,4-dihydro-1$l^{6},2,4-benzothiadiazine-7-sulfonamide

> <PUBCHEM_IUPAC_TRADITIONAL_NAME>
6-chloro-3-(chloromethyl)-1,1-diketo-2-methyl-3,4-dihydro-1$l^{6},2,4-benzothiadiazine-7-sulfonamide

> <PUBCHEM_IUPAC_INCHI>
InChI=1S/C9H11Cl2N3O4S2/c1-14-9(4-10)13-6-2-5(11)7(19(12,15)16)3-8(6)20(14,17)18/h2-3,9,13H,4H2,1H3,(H2,12,15,16)

> <PUBCHEM_IUPAC_INCHIKEY>
CESYKOGBSMNBPD-UHFFFAOYSA-N

> <PUBCHEM_XLOGP3>
1.4

> <PUBCHEM_EXACT_MASS>
358.956803

> <PUBCHEM_MOLECULAR_FORMULA>
C9H11Cl2N3O4S2

> <PUBCHEM_MOLECULAR_WEIGHT>
360.23734

> <PUBCHEM_OPENEYE_CAN_SMILES>
CN1C(NC2=CC(=C(C=C2S1(=O)=O)S(=O)(=O)N)Cl)CCl

> <PUBCHEM_OPENEYE_ISO_SMILES>
CN1C(NC2=CC(=C(C=C2S1(=O)=O)S(=O)(=O)N)Cl)CCl

> <PUBCHEM_CACTVS_TPSA>
126

> <PUBCHEM_MONOISOTOPIC_WEIGHT>
358.956803

> <PUBCHEM_TOTAL_CHARGE>
0

> <PUBCHEM_HEAVY_ATOM_COUNT>
20

> <PUBCHEM_ATOM_DEF_STEREO_COUNT>
0

> <PUBCHEM_ATOM_UDEF_STEREO_COUNT>
1

> <PUBCHEM_BOND_DEF_STEREO_COUNT>
0

> <PUBCHEM_BOND_UDEF_STEREO_COUNT>
0

> <PUBCHEM_ISOTOPIC_ATOM_COUNT>
0

> <PUBCHEM_COMPONENT_COUNT>
1

> <PUBCHEM_CACTVS_TAUTO_COUNT>
1

> <PUBCHEM_COORDINATE_TYPE>
1
5
255

> <PUBCHEM_BONDANNOTATIONS>
12  15  3
13  14  8
13  16  8
14  18  8
16  19  8
18  20  8
19  20  8

$$$$

