47205510
  -OEChem-06241222592D

 39 40  0     1  0  0  0  0  0999 V2000
    7.1485   -1.1850    0.0000 S   0  0  0  0  0  0  0  0  0  0  0  0
    9.4438    0.7410    0.0000 O   0  0  0  0  0  0  0  0  0  0  0  0
   11.3459    0.1230    0.0000 N   0  0  0  0  0  0  0  0  0  0  0  0
    8.9086   -0.9062    0.0000 N   0  0  0  0  0  0  0  0  0  0  0  0
    6.6485    0.3538    0.0000 N   0  0  0  0  0  0  0  0  0  0  0  0
    7.6485    0.3538    0.0000 N   0  0  0  0  0  0  0  0  0  0  0  0
   12.1549    1.5243    0.0000 N   0  0  0  0  0  0  0  0  0  0  0  0
    4.6453   -0.2371    0.0000 C   0  0  0  0  0  0  0  0  0  0  0  0
    3.6942   -0.5461    0.0000 C   0  0  0  0  0  0  0  0  0  0  0  0
    5.3884   -0.9062    0.0000 C   0  0  0  0  0  0  0  0  0  0  0  0
    2.9511    0.1230    0.0000 C   0  0  0  0  0  0  0  0  0  0  0  0
   10.6028   -0.5461    0.0000 C   0  0  3  0  0  0  0  0  0  0  0  0
    6.3395   -0.5972    0.0000 C   0  0  0  0  0  0  0  0  0  0  0  0
    9.6517   -0.2371    0.0000 C   0  0  0  0  0  0  0  0  0  0  0  0
   10.8107   -1.5243    0.0000 C   0  0  0  0  0  0  0  0  0  0  0  0
    2.0000   -0.1860    0.0000 C   0  0  0  0  0  0  0  0  0  0  0  0
    7.9575   -0.5972    0.0000 C   0  0  0  0  0  0  0  0  0  0  0  0
   12.3240   -0.0849    0.0000 C   0  0  0  0  0  0  0  0  0  0  0  0
   11.2414    1.1175    0.0000 C   0  0  0  0  0  0  0  0  0  0  0  0
   12.8240    0.7811    0.0000 C   0  0  0  0  0  0  0  0  0  0  0  0
    5.1338    0.1446    0.0000 H   0  0  0  0  0  0  0  0  0  0  0  0
    4.3542    0.3103    0.0000 H   0  0  0  0  0  0  0  0  0  0  0  0
    3.2056   -0.9278    0.0000 H   0  0  0  0  0  0  0  0  0  0  0  0
    3.9853   -1.0936    0.0000 H   0  0  0  0  0  0  0  0  0  0  0  0
    4.8998   -1.2879    0.0000 H   0  0  0  0  0  0  0  0  0  0  0  0
    5.6795   -1.4537    0.0000 H   0  0  0  0  0  0  0  0  0  0  0  0
    3.4396    0.5047    0.0000 H   0  0  0  0  0  0  0  0  0  0  0  0
    2.6600    0.6704    0.0000 H   0  0  0  0  0  0  0  0  0  0  0  0
   11.1924   -0.7377    0.0000 H   0  0  0  0  0  0  0  0  0  0  0  0
   10.2042   -1.6532    0.0000 H   0  0  0  0  0  0  0  0  0  0  0  0
   10.9396   -2.1307    0.0000 H   0  0  0  0  0  0  0  0  0  0  0  0
   11.4171   -1.3954    0.0000 H   0  0  0  0  0  0  0  0  0  0  0  0
    1.8084    0.4036    0.0000 H   0  0  0  0  0  0  0  0  0  0  0  0
    1.4103   -0.3776    0.0000 H   0  0  0  0  0  0  0  0  0  0  0  0
    2.1916   -0.7757    0.0000 H   0  0  0  0  0  0  0  0  0  0  0  0
    9.0374   -1.5127    0.0000 H   0  0  0  0  0  0  0  0  0  0  0  0
   12.5762   -0.6513    0.0000 H   0  0  0  0  0  0  0  0  0  0  0  0
   10.7044    1.4275    0.0000 H   0  0  0  0  0  0  0  0  0  0  0  0
   13.4406    0.8459    0.0000 H   0  0  0  0  0  0  0  0  0  0  0  0
  1 13  1  0  0  0  0
  1 17  1  0  0  0  0
  2 14  2  0  0  0  0
  3 12  1  0  0  0  0
  3 18  1  0  0  0  0
  3 19  1  0  0  0  0
  4 14  1  0  0  0  0
  4 17  1  0  0  0  0
  4 36  1  0  0  0  0
  5  6  1  0  0  0  0
  5 13  2  0  0  0  0
  6 17  2  0  0  0  0
  7 19  2  0  0  0  0
  7 20  1  0  0  0  0
  8  9  1  0  0  0  0
  8 10  1  0  0  0  0
  8 21  1  0  0  0  0
  8 22  1  0  0  0  0
  9 11  1  0  0  0  0
  9 23  1  0  0  0  0
  9 24  1  0  0  0  0
 10 13  1  0  0  0  0
 10 25  1  0  0  0  0
 10 26  1  0  0  0  0
 11 16  1  0  0  0  0
 11 27  1  0  0  0  0
 11 28  1  0  0  0  0
 12 14  1  0  0  0  0
 12 15  1  0  0  0  0
 12 29  1  0  0  0  0
 15 30  1  0  0  0  0
 15 31  1  0  0  0  0
 15 32  1  0  0  0  0
 16 33  1  0  0  0  0
 16 34  1  0  0  0  0
 16 35  1  0  0  0  0
 18 20  2  0  0  0  0
 18 37  1  0  0  0  0
 19 38  1  0  0  0  0
 20 39  1  0  0  0  0
M  END
> <PUBCHEM_COMPOUND_CID>
47205510

> <PUBCHEM_COMPOUND_CANONICALIZED>
1

> <PUBCHEM_CACTVS_COMPLEXITY>
317

> <PUBCHEM_CACTVS_HBOND_ACCEPTOR>
5

> <PUBCHEM_CACTVS_HBOND_DONOR>
1

> <PUBCHEM_CACTVS_ROTATABLE_BOND>
7

> <PUBCHEM_CACTVS_SUBSKEYS>
AAADceBzoABAAAAAAAAAAAAAAAAAAWLAAAAAAAAAAAAAAAAB4AAAHgQYAAAACCjBwgQvkBfMEAiuABE3dAAQgK9RErkdQAG4MACASAIgiCAUAAAYGQKAACEQAAAAAAAAAAAAAAAAAAAAAAAAAAAAAAAAAA==

> <PUBCHEM_IUPAC_OPENEYE_NAME>
2-imidazol-1-yl-N-(5-pentyl-1,3,4-thiadiazol-2-yl)propanamide

> <PUBCHEM_IUPAC_CAS_NAME>
2-(1-imidazolyl)-N-(5-pentyl-1,3,4-thiadiazol-2-yl)propanamide

> <PUBCHEM_IUPAC_NAME>
2-imidazol-1-yl-N-(5-pentyl-1,3,4-thiadiazol-2-yl)propanamide

> <PUBCHEM_IUPAC_SYSTEMATIC_NAME>
2-imidazol-1-yl-N-(5-pentyl-1,3,4-thiadiazol-2-yl)propanamide

> <PUBCHEM_IUPAC_TRADITIONAL_NAME>
N-(5-amyl-1,3,4-thiadiazol-2-yl)-2-imidazol-1-yl-propionamide

> <PUBCHEM_IUPAC_INCHI>
InChI=1S/C13H19N5OS/c1-3-4-5-6-11-16-17-13(20-11)15-12(19)10(2)18-8-7-14-9-18/h7-10H,3-6H2,1-2H3,(H,15,17,19)

> <PUBCHEM_IUPAC_INCHIKEY>
MDFYEGJLIGQKGE-UHFFFAOYSA-N

> <PUBCHEM_XLOGP3_AA>
2.5

> <PUBCHEM_EXACT_MASS>
293.131031

> <PUBCHEM_MOLECULAR_FORMULA>
C13H19N5OS

> <PUBCHEM_MOLECULAR_WEIGHT>
293.38786

> <PUBCHEM_OPENEYE_CAN_SMILES>
CCCCCC1=NN=C(S1)NC(=O)C(C)N2C=CN=C2

> <PUBCHEM_OPENEYE_ISO_SMILES>
CCCCCC1=NN=C(S1)NC(=O)C(C)N2C=CN=C2

> <PUBCHEM_CACTVS_TPSA>
101

> <PUBCHEM_MONOISOTOPIC_WEIGHT>
293.131031

> <PUBCHEM_TOTAL_CHARGE>
0

> <PUBCHEM_HEAVY_ATOM_COUNT>
20

> <PUBCHEM_ATOM_DEF_STEREO_COUNT>
0

> <PUBCHEM_ATOM_UDEF_STEREO_COUNT>
1

> <PUBCHEM_BOND_DEF_STEREO_COUNT>
0

> <PUBCHEM_BOND_UDEF_STEREO_COUNT>
0

> <PUBCHEM_ISOTOPIC_ATOM_COUNT>
0

> <PUBCHEM_COMPONENT_COUNT>
1

> <PUBCHEM_CACTVS_TAUTO_COUNT>
5

> <PUBCHEM_COORDINATE_TYPE>
1
5
255

> <PUBCHEM_BONDANNOTATIONS>
1  13  8
1  17  8
12  15  3
18  20  8
3  18  8
3  19  8
5  13  8
5  6  8
6  17  8
7  19  8
7  20  8

$$$$

