47205532
  -OEChem-06241222592D

 36 37  0     0  0  0  0  0  0999 V2000
    4.5981    2.8170    0.0000 O   0  0  0  0  0  0  0  0  0  0  0  0
    5.4641   -0.6830    0.0000 O   0  0  0  0  0  0  0  0  0  0  0  0
    5.4641    1.3170    0.0000 N   0  0  0  0  0  0  0  0  0  0  0  0
    3.7320   -0.6830    0.0000 N   0  0  0  0  0  0  0  0  0  0  0  0
    6.3301    2.8170    0.0000 C   0  0  0  0  0  0  0  0  0  0  0  0
    6.8301    3.6830    0.0000 C   0  0  0  0  0  0  0  0  0  0  0  0
    7.3301    2.8170    0.0000 C   0  0  0  0  0  0  0  0  0  0  0  0
    5.4641    2.3170    0.0000 C   0  0  0  0  0  0  0  0  0  0  0  0
    4.5981    0.8170    0.0000 C   0  0  0  0  0  0  0  0  0  0  0  0
    4.5981   -0.1830    0.0000 C   0  0  0  0  0  0  0  0  0  0  0  0
    3.7320   -1.6830    0.0000 C   0  0  0  0  0  0  0  0  0  0  0  0
    2.8660   -2.1830    0.0000 C   0  0  0  0  0  0  0  0  0  0  0  0
    4.5981   -2.1830    0.0000 C   0  0  0  0  0  0  0  0  0  0  0  0
    4.5981   -3.1830    0.0000 C   0  0  0  0  0  0  0  0  0  0  0  0
    2.8660   -3.1830    0.0000 C   0  0  0  0  0  0  0  0  0  0  0  0
    3.7320   -3.6830    0.0000 C   0  0  0  0  0  0  0  0  0  0  0  0
    2.0000   -1.6830    0.0000 C   0  0  0  0  0  0  0  0  0  0  0  0
    5.4641   -3.6830    0.0000 C   0  0  0  0  0  0  0  0  0  0  0  0
    6.4906    2.2181    0.0000 H   0  0  0  0  0  0  0  0  0  0  0  0
    7.3051    4.0815    0.0000 H   0  0  0  0  0  0  0  0  0  0  0  0
    6.3552    4.0815    0.0000 H   0  0  0  0  0  0  0  0  0  0  0  0
    7.4378    2.2064    0.0000 H   0  0  0  0  0  0  0  0  0  0  0  0
    7.9127    3.0290    0.0000 H   0  0  0  0  0  0  0  0  0  0  0  0
    6.0010    1.0070    0.0000 H   0  0  0  0  0  0  0  0  0  0  0  0
    4.3860    1.3996    0.0000 H   0  0  0  0  0  0  0  0  0  0  0  0
    3.9875    0.7093    0.0000 H   0  0  0  0  0  0  0  0  0  0  0  0
    3.1951   -0.3730    0.0000 H   0  0  0  0  0  0  0  0  0  0  0  0
    5.1350   -1.8730    0.0000 H   0  0  0  0  0  0  0  0  0  0  0  0
    2.3291   -3.4930    0.0000 H   0  0  0  0  0  0  0  0  0  0  0  0
    3.7320   -4.3030    0.0000 H   0  0  0  0  0  0  0  0  0  0  0  0
    2.3100   -1.1461    0.0000 H   0  0  0  0  0  0  0  0  0  0  0  0
    1.4631   -1.3730    0.0000 H   0  0  0  0  0  0  0  0  0  0  0  0
    1.6900   -2.2200    0.0000 H   0  0  0  0  0  0  0  0  0  0  0  0
    5.1541   -4.2200    0.0000 H   0  0  0  0  0  0  0  0  0  0  0  0
    6.0010   -3.9930    0.0000 H   0  0  0  0  0  0  0  0  0  0  0  0
    5.7741   -3.1461    0.0000 H   0  0  0  0  0  0  0  0  0  0  0  0
  1  8  2  0  0  0  0
  2 10  2  0  0  0  0
  3  8  1  0  0  0  0
  3  9  1  0  0  0  0
  3 24  1  0  0  0  0
  4 10  1  0  0  0  0
  4 11  1  0  0  0  0
  4 27  1  0  0  0  0
  5  6  1  0  0  0  0
  5  7  1  0  0  0  0
  5  8  1  0  0  0  0
  5 19  1  0  0  0  0
  6  7  1  0  0  0  0
  6 20  1  0  0  0  0
  6 21  1  0  0  0  0
  7 22  1  0  0  0  0
  7 23  1  0  0  0  0
  9 10  1  0  0  0  0
  9 25  1  0  0  0  0
  9 26  1  0  0  0  0
 11 12  2  0  0  0  0
 11 13  1  0  0  0  0
 12 15  1  0  0  0  0
 12 17  1  0  0  0  0
 13 14  2  0  0  0  0
 13 28  1  0  0  0  0
 14 16  1  0  0  0  0
 14 18  1  0  0  0  0
 15 16  2  0  0  0  0
 15 29  1  0  0  0  0
 16 30  1  0  0  0  0
 17 31  1  0  0  0  0
 17 32  1  0  0  0  0
 17 33  1  0  0  0  0
 18 34  1  0  0  0  0
 18 35  1  0  0  0  0
 18 36  1  0  0  0  0
M  END
> <PUBCHEM_COMPOUND_CID>
47205532

> <PUBCHEM_COMPOUND_CANONICALIZED>
1

> <PUBCHEM_CACTVS_COMPLEXITY>
326

> <PUBCHEM_CACTVS_HBOND_ACCEPTOR>
2

> <PUBCHEM_CACTVS_HBOND_DONOR>
2

> <PUBCHEM_CACTVS_ROTATABLE_BOND>
4

> <PUBCHEM_CACTVS_SUBSKEYS>
AAADceBzMAAAAAAAAAAAAAAAGAAAAAAAAAAwAAAAAAAAAAABAAAAHgAQAAAADQjBmAQywILAAACIAiVSUACCAAAhAgAIiIGIZIgIYDLAkbGUIAhglgDIyAcQgAAOQAAAQAACAACAAACAAAQAAAAAAAAAAA==

> <PUBCHEM_IUPAC_OPENEYE_NAME>
N-[2-(2,5-dimethylanilino)-2-oxo-ethyl]cyclopropanecarboxamide

> <PUBCHEM_IUPAC_CAS_NAME>
N-[2-(2,5-dimethylanilino)-2-oxoethyl]cyclopropanecarboxamide

> <PUBCHEM_IUPAC_NAME>
N-[2-(2,5-dimethylanilino)-2-oxoethyl]cyclopropanecarboxamide

> <PUBCHEM_IUPAC_SYSTEMATIC_NAME>
N-[2-[(2,5-dimethylphenyl)amino]-2-oxidanylidene-ethyl]cyclopropanecarboxamide

> <PUBCHEM_IUPAC_TRADITIONAL_NAME>
N-[2-(2,5-dimethylanilino)-2-keto-ethyl]cyclopropanecarboxamide

> <PUBCHEM_IUPAC_INCHI>
InChI=1S/C14H18N2O2/c1-9-3-4-10(2)12(7-9)16-13(17)8-15-14(18)11-5-6-11/h3-4,7,11H,5-6,8H2,1-2H3,(H,15,18)(H,16,17)

> <PUBCHEM_IUPAC_INCHIKEY>
KQDLCJBVPWOZGP-UHFFFAOYSA-N

> <PUBCHEM_XLOGP3>
1.3

> <PUBCHEM_EXACT_MASS>
246.136828

> <PUBCHEM_MOLECULAR_FORMULA>
C14H18N2O2

> <PUBCHEM_MOLECULAR_WEIGHT>
246.30492

> <PUBCHEM_OPENEYE_CAN_SMILES>
CC1=CC(=C(C=C1)C)NC(=O)CNC(=O)C2CC2

> <PUBCHEM_OPENEYE_ISO_SMILES>
CC1=CC(=C(C=C1)C)NC(=O)CNC(=O)C2CC2

> <PUBCHEM_CACTVS_TPSA>
58.2

> <PUBCHEM_MONOISOTOPIC_WEIGHT>
246.136828

> <PUBCHEM_TOTAL_CHARGE>
0

> <PUBCHEM_HEAVY_ATOM_COUNT>
18

> <PUBCHEM_ATOM_DEF_STEREO_COUNT>
0

> <PUBCHEM_ATOM_UDEF_STEREO_COUNT>
0

> <PUBCHEM_BOND_DEF_STEREO_COUNT>
0

> <PUBCHEM_BOND_UDEF_STEREO_COUNT>
0

> <PUBCHEM_ISOTOPIC_ATOM_COUNT>
0

> <PUBCHEM_COMPONENT_COUNT>
1

> <PUBCHEM_CACTVS_TAUTO_COUNT>
6

> <PUBCHEM_COORDINATE_TYPE>
1
5
255

> <PUBCHEM_BONDANNOTATIONS>
11  12  8
11  13  8
12  15  8
13  14  8
14  16  8
15  16  8

$$$$

