586169
  -OEChem-06241222452D

 36 36  0     0  0  0  0  0  0999 V2000
    4.5691   -1.9139    0.0000 O   0  0  0  0  0  0  0  0  0  0  0  0
    6.3581    2.1739    0.0000 O   0  0  0  0  0  0  0  0  0  0  0  0
    3.7601   -0.3261    0.0000 C   0  0  0  0  0  0  0  0  0  0  0  0
    3.7601   -1.3261    0.0000 C   0  0  0  0  0  0  0  0  0  0  0  0
    3.7601    0.6739    0.0000 C   0  0  0  0  0  0  0  0  0  0  0  0
    4.7601   -0.3261    0.0000 C   0  0  0  0  0  0  0  0  0  0  0  0
    2.7601   -0.3261    0.0000 C   0  0  0  0  0  0  0  0  0  0  0  0
    2.9511   -1.9139    0.0000 C   0  0  0  0  0  0  0  0  0  0  0  0
    4.6261    1.1739    0.0000 C   0  0  0  0  0  0  0  0  0  0  0  0
    3.2601   -2.8649    0.0000 C   0  0  0  0  0  0  0  0  0  0  0  0
    4.2601   -2.8649    0.0000 C   0  0  0  0  0  0  0  0  0  0  0  0
    2.0000   -1.6048    0.0000 C   0  0  0  0  0  0  0  0  0  0  0  0
    4.8479   -3.6739    0.0000 C   0  0  0  0  0  0  0  0  0  0  0  0
    4.6261    2.1739    0.0000 C   0  0  0  0  0  0  0  0  0  0  0  0
    5.4921    2.6739    0.0000 C   0  0  0  0  0  0  0  0  0  0  0  0
    5.4921    3.6739    0.0000 C   0  0  0  0  0  0  0  0  0  0  0  0
    3.5480    1.2565    0.0000 H   0  0  0  0  0  0  0  0  0  0  0  0
    3.1495    0.5663    0.0000 H   0  0  0  0  0  0  0  0  0  0  0  0
    4.7601   -0.9461    0.0000 H   0  0  0  0  0  0  0  0  0  0  0  0
    5.3801   -0.3261    0.0000 H   0  0  0  0  0  0  0  0  0  0  0  0
    4.7601    0.2939    0.0000 H   0  0  0  0  0  0  0  0  0  0  0  0
    2.7601    0.2939    0.0000 H   0  0  0  0  0  0  0  0  0  0  0  0
    2.1401   -0.3261    0.0000 H   0  0  0  0  0  0  0  0  0  0  0  0
    2.7601   -0.9461    0.0000 H   0  0  0  0  0  0  0  0  0  0  0  0
    5.1630    0.8639    0.0000 H   0  0  0  0  0  0  0  0  0  0  0  0
    2.8956   -3.3665    0.0000 H   0  0  0  0  0  0  0  0  0  0  0  0
    2.1916   -1.0152    0.0000 H   0  0  0  0  0  0  0  0  0  0  0  0
    1.4103   -1.4132    0.0000 H   0  0  0  0  0  0  0  0  0  0  0  0
    1.8084   -2.1945    0.0000 H   0  0  0  0  0  0  0  0  0  0  0  0
    4.3463   -4.0384    0.0000 H   0  0  0  0  0  0  0  0  0  0  0  0
    5.2123   -4.1755    0.0000 H   0  0  0  0  0  0  0  0  0  0  0  0
    5.3494   -3.3095    0.0000 H   0  0  0  0  0  0  0  0  0  0  0  0
    4.0892    2.4839    0.0000 H   0  0  0  0  0  0  0  0  0  0  0  0
    6.1121    3.6739    0.0000 H   0  0  0  0  0  0  0  0  0  0  0  0
    5.4921    4.2939    0.0000 H   0  0  0  0  0  0  0  0  0  0  0  0
    4.8721    3.6739    0.0000 H   0  0  0  0  0  0  0  0  0  0  0  0
  1  4  1  0  0  0  0
  1 11  1  0  0  0  0
  2 15  2  0  0  0  0
  3  4  1  0  0  0  0
  3  5  1  0  0  0  0
  3  6  1  0  0  0  0
  3  7  1  0  0  0  0
  4  8  2  0  0  0  0
  5  9  1  0  0  0  0
  5 17  1  0  0  0  0
  5 18  1  0  0  0  0
  6 19  1  0  0  0  0
  6 20  1  0  0  0  0
  6 21  1  0  0  0  0
  7 22  1  0  0  0  0
  7 23  1  0  0  0  0
  7 24  1  0  0  0  0
  8 10  1  0  0  0  0
  8 12  1  0  0  0  0
  9 14  2  3  0  0  0
  9 25  1  0  0  0  0
 10 11  2  0  0  0  0
 10 26  1  0  0  0  0
 11 13  1  0  0  0  0
 12 27  1  0  0  0  0
 12 28  1  0  0  0  0
 12 29  1  0  0  0  0
 13 30  1  0  0  0  0
 13 31  1  0  0  0  0
 13 32  1  0  0  0  0
 14 15  1  0  0  0  0
 14 33  1  0  0  0  0
 15 16  1  0  0  0  0
 16 34  1  0  0  0  0
 16 35  1  0  0  0  0
 16 36  1  0  0  0  0
M  END
> <PUBCHEM_COMPOUND_CID>
586169

> <PUBCHEM_COMPOUND_CANONICALIZED>
1

> <PUBCHEM_CACTVS_COMPLEXITY>
279

> <PUBCHEM_CACTVS_HBOND_ACCEPTOR>
2

> <PUBCHEM_CACTVS_HBOND_DONOR>
0

> <PUBCHEM_CACTVS_ROTATABLE_BOND>
4

> <PUBCHEM_CACTVS_SUBSKEYS>
AAADceBwMAAAAAAAAAAAAAAAAAAAASAAAAAAAAAAAAAAAAABgAAAGgAAAAAADgSAmAAyBIAABECIAqBSAAACCAAkIAAIiAEGCMgMJjKENRqCGSCkwBEIqYeIyPCPAAAAAAAAAAAAAAAAAAAAAAAAAAAAAA==

> <PUBCHEM_IUPAC_OPENEYE_NAME>
6-(3,5-dimethyl-2-furyl)-6-methyl-hept-3-en-2-one

> <PUBCHEM_IUPAC_CAS_NAME>
6-(3,5-dimethyl-2-furanyl)-6-methyl-3-hepten-2-one

> <PUBCHEM_IUPAC_NAME>
6-(3,5-dimethylfuran-2-yl)-6-methylhept-3-en-2-one

> <PUBCHEM_IUPAC_SYSTEMATIC_NAME>
6-(3,5-dimethylfuran-2-yl)-6-methyl-hept-3-en-2-one

> <PUBCHEM_IUPAC_TRADITIONAL_NAME>
6-(3,5-dimethyl-2-furyl)-6-methyl-hept-3-en-2-one

> <PUBCHEM_IUPAC_INCHI>
InChI=1S/C14H20O2/c1-10-9-12(3)16-13(10)14(4,5)8-6-7-11(2)15/h6-7,9H,8H2,1-5H3

> <PUBCHEM_IUPAC_INCHIKEY>
DWLGXTDMMUVFFC-UHFFFAOYSA-N

> <PUBCHEM_XLOGP3_AA>
3.4

> <PUBCHEM_EXACT_MASS>
220.14633

> <PUBCHEM_MOLECULAR_FORMULA>
C14H20O2

> <PUBCHEM_MOLECULAR_WEIGHT>
220.3074

> <PUBCHEM_OPENEYE_CAN_SMILES>
CC1=CC(=C(O1)C(C)(C)CC=CC(=O)C)C

> <PUBCHEM_OPENEYE_ISO_SMILES>
CC1=CC(=C(O1)C(C)(C)CC=CC(=O)C)C

> <PUBCHEM_CACTVS_TPSA>
30.2

> <PUBCHEM_MONOISOTOPIC_WEIGHT>
220.14633

> <PUBCHEM_TOTAL_CHARGE>
0

> <PUBCHEM_HEAVY_ATOM_COUNT>
16

> <PUBCHEM_ATOM_DEF_STEREO_COUNT>
0

> <PUBCHEM_ATOM_UDEF_STEREO_COUNT>
0

> <PUBCHEM_BOND_DEF_STEREO_COUNT>
0

> <PUBCHEM_BOND_UDEF_STEREO_COUNT>
1

> <PUBCHEM_ISOTOPIC_ATOM_COUNT>
0

> <PUBCHEM_COMPONENT_COUNT>
1

> <PUBCHEM_CACTVS_TAUTO_COUNT>
5

> <PUBCHEM_COORDINATE_TYPE>
1
5
255

> <PUBCHEM_BONDANNOTATIONS>
1  11  8
1  4  8
10  11  8
4  8  8
8  10  8
9  14  1

$$$$

