4319
  -OEChem-06261200022D

 96101  0     1  0  0  0  0  0999 V2000
    7.6138    0.4907    0.0000 O   0  0  0  0  0  0  0  0  0  0  0  0
    6.2619   -0.9327    0.0000 O   0  0  0  0  0  0  0  0  0  0  0  0
   10.1921    2.8042    0.0000 O   0  0  0  0  0  0  0  0  0  0  0  0
    6.6353    0.2845    0.0000 O   0  0  0  0  0  0  0  0  0  0  0  0
   12.1142   -4.8382    0.0000 O   0  0  0  0  0  0  0  0  0  0  0  0
   10.5393   -5.1700    0.0000 O   0  0  0  0  0  0  0  0  0  0  0  0
    9.5708    0.9031    0.0000 N   0  0  3  0  0  0  0  0  0  0  0  0
   10.9065   -0.5855    0.0000 N   0  0  3  0  0  0  0  0  0  0  0  0
    4.9889    0.8226    0.0000 N   0  0  0  0  0  0  0  0  0  0  0  0
   11.8385    2.2661    0.0000 N   0  0  0  0  0  0  0  0  0  0  0  0
   10.5493    1.1094    0.0000 C   0  0  3  0  0  0  0  0  0  0  0  0
   11.2171    0.3651    0.0000 C   0  0  0  0  0  0  0  0  0  0  0  0
    9.2601   -0.0474    0.0000 C   0  0  0  0  0  0  0  0  0  0  0  0
    8.9030    1.6474    0.0000 C   0  0  0  0  0  0  0  0  0  0  0  0
    9.9280   -0.7917    0.0000 C   0  0  0  0  0  0  0  0  0  0  0  0
    7.9244    1.4412    0.0000 C   0  0  3  0  0  0  0  0  0  0  0  0
    7.2566    2.1855    0.0000 C   0  0  0  0  0  0  0  0  0  0  0  0
    6.2781    1.9793    0.0000 C   0  0  3  0  0  0  0  0  0  0  0  0
    4.6783   -0.1280    0.0000 C   0  0  3  0  0  0  0  0  0  0  0  0
   10.8600    2.0599    0.0000 C   0  0  0  0  0  0  0  0  0  0  0  0
   11.5743   -1.3298    0.0000 C   0  0  0  0  0  0  0  0  0  0  0  0
    5.2619   -0.9327    0.0000 C   0  0  3  0  0  0  0  0  0  0  0  0
    4.6783   -1.7374    0.0000 C   0  0  0  0  0  0  0  0  0  0  0  0
    3.7320   -0.4327    0.0000 C   0  0  0  0  0  0  0  0  0  0  0  0
    5.6103    2.7236    0.0000 C   0  0  0  0  0  0  0  0  0  0  0  0
    5.9674    1.0288    0.0000 C   0  0  0  0  0  0  0  0  0  0  0  0
    3.7320   -1.4327    0.0000 C   0  0  0  0  0  0  0  0  0  0  0  0
   12.5063    1.5218    0.0000 C   0  0  0  0  0  0  0  0  0  0  0  0
   11.2637   -2.2803    0.0000 C   0  0  0  0  0  0  0  0  0  0  0  0
    2.8660    0.0673    0.0000 C   0  0  0  0  0  0  0  0  0  0  0  0
    5.9209    3.6741    0.0000 C   0  0  0  0  0  0  0  0  0  0  0  0
    2.8660   -1.9327    0.0000 C   0  0  0  0  0  0  0  0  0  0  0  0
   13.1742    0.7775    0.0000 C   0  0  0  0  0  0  0  0  0  0  0  0
   13.2506    2.1896    0.0000 C   0  0  0  0  0  0  0  0  0  0  0  0
   11.7620    0.8540    0.0000 C   0  0  0  0  0  0  0  0  0  0  0  0
   11.9315   -3.0246    0.0000 C   0  0  0  0  0  0  0  0  0  0  0  0
   10.2852   -2.4865    0.0000 C   0  0  0  0  0  0  0  0  0  0  0  0
    2.0000   -0.4327    0.0000 C   0  0  0  0  0  0  0  0  0  0  0  0
    2.0000   -1.4327    0.0000 C   0  0  0  0  0  0  0  0  0  0  0  0
    6.8994    3.8803    0.0000 C   0  0  0  0  0  0  0  0  0  0  0  0
    5.2531    4.4184    0.0000 C   0  0  0  0  0  0  0  0  0  0  0  0
   11.6208   -3.9751    0.0000 C   0  0  0  0  0  0  0  0  0  0  0  0
    9.9745   -3.4370    0.0000 C   0  0  0  0  0  0  0  0  0  0  0  0
   10.6423   -4.1813    0.0000 C   0  0  0  0  0  0  0  0  0  0  0  0
    7.2101    4.8309    0.0000 C   0  0  0  0  0  0  0  0  0  0  0  0
    5.5637    5.3690    0.0000 C   0  0  0  0  0  0  0  0  0  0  0  0
    6.5422    5.5752    0.0000 C   0  0  0  0  0  0  0  0  0  0  0  0
   11.4471   -5.5752    0.0000 C   0  0  0  0  0  0  0  0  0  0  0  0
   10.1352    1.5708    0.0000 H   0  0  0  0  0  0  0  0  0  0  0  0
   11.7641    0.0730    0.0000 H   0  0  0  0  0  0  0  0  0  0  0  0
   11.5997    0.8530    0.0000 H   0  0  0  0  0  0  0  0  0  0  0  0
    8.7132    0.2446    0.0000 H   0  0  0  0  0  0  0  0  0  0  0  0
    8.8776   -0.5353    0.0000 H   0  0  0  0  0  0  0  0  0  0  0  0
    9.4293    1.9751    0.0000 H   0  0  0  0  0  0  0  0  0  0  0  0
    8.6717    2.2227    0.0000 H   0  0  0  0  0  0  0  0  0  0  0  0
    9.4016   -1.1193    0.0000 H   0  0  0  0  0  0  0  0  0  0  0  0
   10.1592   -1.3669    0.0000 H   0  0  0  0  0  0  0  0  0  0  0  0
    8.3385    0.9798    0.0000 H   0  0  0  0  0  0  0  0  0  0  0  0
    7.7830    2.5132    0.0000 H   0  0  0  0  0  0  0  0  0  0  0  0
    7.0254    2.7608    0.0000 H   0  0  0  0  0  0  0  0  0  0  0  0
    5.6714    1.8514    0.0000 H   0  0  0  0  0  0  0  0  0  0  0  0
    5.2908   -0.0318    0.0000 H   0  0  0  0  0  0  0  0  0  0  0  0
   12.1213   -1.6218    0.0000 H   0  0  0  0  0  0  0  0  0  0  0  0
   11.9569   -0.8419    0.0000 H   0  0  0  0  0  0  0  0  0  0  0  0
    5.5436   -0.3804    0.0000 H   0  0  0  0  0  0  0  0  0  0  0  0
    4.4272   -2.3043    0.0000 H   0  0  0  0  0  0  0  0  0  0  0  0
    5.2156   -2.0466    0.0000 H   0  0  0  0  0  0  0  0  0  0  0  0
    5.0633    3.0156    0.0000 H   0  0  0  0  0  0  0  0  0  0  0  0
    5.2277    2.2357    0.0000 H   0  0  0  0  0  0  0  0  0  0  0  0
    4.5749    1.2840    0.0000 H   0  0  0  0  0  0  0  0  0  0  0  0
   12.0311    2.8554    0.0000 H   0  0  0  0  0  0  0  0  0  0  0  0
    8.0279    0.0292    0.0000 H   0  0  0  0  0  0  0  0  0  0  0  0
    2.8660    0.6873    0.0000 H   0  0  0  0  0  0  0  0  0  0  0  0
    2.8660   -2.5527    0.0000 H   0  0  0  0  0  0  0  0  0  0  0  0
   11.3480    1.3154    0.0000 H   0  0  0  0  0  0  0  0  0  0  0  0
   12.7127    0.3634    0.0000 H   0  0  0  0  0  0  0  0  0  0  0  0
   13.5882    0.3160    0.0000 H   0  0  0  0  0  0  0  0  0  0  0  0
   13.6356    1.1916    0.0000 H   0  0  0  0  0  0  0  0  0  0  0  0
   13.6647    1.7282    0.0000 H   0  0  0  0  0  0  0  0  0  0  0  0
   13.7121    2.6037    0.0000 H   0  0  0  0  0  0  0  0  0  0  0  0
   11.3005    0.4399    0.0000 H   0  0  0  0  0  0  0  0  0  0  0  0
   12.1761    0.3925    0.0000 H   0  0  0  0  0  0  0  0  0  0  0  0
   12.8366    2.6511    0.0000 H   0  0  0  0  0  0  0  0  0  0  0  0
    6.5719   -1.4696    0.0000 H   0  0  0  0  0  0  0  0  0  0  0  0
   12.5382   -2.8967    0.0000 H   0  0  0  0  0  0  0  0  0  0  0  0
    9.8711   -2.0250    0.0000 H   0  0  0  0  0  0  0  0  0  0  0  0
    1.4631   -0.1227    0.0000 H   0  0  0  0  0  0  0  0  0  0  0  0
    1.4631   -1.7427    0.0000 H   0  0  0  0  0  0  0  0  0  0  0  0
    7.3135    3.4189    0.0000 H   0  0  0  0  0  0  0  0  0  0  0  0
    4.6464    4.2906    0.0000 H   0  0  0  0  0  0  0  0  0  0  0  0
    9.3678   -3.5649    0.0000 H   0  0  0  0  0  0  0  0  0  0  0  0
    7.8168    4.9587    0.0000 H   0  0  0  0  0  0  0  0  0  0  0  0
    5.1497    5.8304    0.0000 H   0  0  0  0  0  0  0  0  0  0  0  0
    6.7349    6.1645    0.0000 H   0  0  0  0  0  0  0  0  0  0  0  0
   11.1363   -6.1116    0.0000 H   0  0  0  0  0  0  0  0  0  0  0  0
   11.9479   -5.9406    0.0000 H   0  0  0  0  0  0  0  0  0  0  0  0
  1 16  1  0  0  0  0
  1 72  1  0  0  0  0
  2 22  1  0  0  0  0
  2 84  1  0  0  0  0
  3 20  2  0  0  0  0
  4 26  2  0  0  0  0
  5 42  1  0  0  0  0
  5 48  1  0  0  0  0
  6 44  1  0  0  0  0
  6 48  1  0  0  0  0
  7 11  1  0  0  0  0
  7 13  1  0  0  0  0
  7 14  1  0  0  0  0
  8 12  1  0  0  0  0
  8 15  1  0  0  0  0
  8 21  1  0  0  0  0
  9 19  1  0  0  0  0
  9 26  1  0  0  0  0
  9 70  1  0  0  0  0
 10 20  1  0  0  0  0
 10 28  1  0  0  0  0
 10 71  1  0  0  0  0
 11 12  1  0  0  0  0
 11 20  1  0  0  0  0
 11 49  1  0  0  0  0
 12 50  1  0  0  0  0
 12 51  1  0  0  0  0
 13 15  1  0  0  0  0
 13 52  1  0  0  0  0
 13 53  1  0  0  0  0
 14 16  1  0  0  0  0
 14 54  1  0  0  0  0
 14 55  1  0  0  0  0
 15 56  1  0  0  0  0
 15 57  1  0  0  0  0
 16 17  1  0  0  0  0
 16 58  1  0  0  0  0
 17 18  1  0  0  0  0
 17 59  1  0  0  0  0
 17 60  1  0  0  0  0
 18 25  1  0  0  0  0
 18 26  1  0  0  0  0
 18 61  1  0  0  0  0
 19 22  1  0  0  0  0
 19 24  1  0  0  0  0
 19 62  1  0  0  0  0
 21 29  1  0  0  0  0
 21 63  1  0  0  0  0
 21 64  1  0  0  0  0
 22 23  1  0  0  0  0
 22 65  1  0  0  0  0
 23 27  1  0  0  0  0
 23 66  1  0  0  0  0
 23 67  1  0  0  0  0
 24 27  1  0  0  0  0
 24 30  2  0  0  0  0
 25 31  1  0  0  0  0
 25 68  1  0  0  0  0
 25 69  1  0  0  0  0
 27 32  2  0  0  0  0
 28 33  1  0  0  0  0
 28 34  1  0  0  0  0
 28 35  1  0  0  0  0
 29 36  2  0  0  0  0
 29 37  1  0  0  0  0
 30 38  1  0  0  0  0
 30 73  1  0  0  0  0
 31 40  2  0  0  0  0
 31 41  1  0  0  0  0
 32 39  1  0  0  0  0
 32 74  1  0  0  0  0
 33 76  1  0  0  0  0
 33 77  1  0  0  0  0
 33 78  1  0  0  0  0
 34 79  1  0  0  0  0
 34 80  1  0  0  0  0
 34 83  1  0  0  0  0
 35 75  1  0  0  0  0
 35 81  1  0  0  0  0
 35 82  1  0  0  0  0
 36 42  1  0  0  0  0
 36 85  1  0  0  0  0
 37 43  2  0  0  0  0
 37 86  1  0  0  0  0
 38 39  2  0  0  0  0
 38 87  1  0  0  0  0
 39 88  1  0  0  0  0
 40 45  1  0  0  0  0
 40 89  1  0  0  0  0
 41 46  2  0  0  0  0
 41 90  1  0  0  0  0
 42 44  2  0  0  0  0
 43 44  1  0  0  0  0
 43 91  1  0  0  0  0
 45 47  2  0  0  0  0
 45 92  1  0  0  0  0
 46 47  1  0  0  0  0
 46 93  1  0  0  0  0
 47 94  1  0  0  0  0
 48 95  1  0  0  0  0
 48 96  1  0  0  0  0
M  END
> <PUBCHEM_COMPOUND_CID>
4319

> <PUBCHEM_COMPOUND_CANONICALIZED>
1

> <PUBCHEM_CACTVS_COMPLEXITY>
1060

> <PUBCHEM_CACTVS_HBOND_ACCEPTOR>
8

> <PUBCHEM_CACTVS_HBOND_DONOR>
4

> <PUBCHEM_CACTVS_ROTATABLE_BOND>
12

> <PUBCHEM_CACTVS_SUBSKEYS>
AAADcfB/uAAAAAAAAAAAAAAAAAAAAaIAAAA8YMEAAAAAAGgBUAAAHgAQCAAADbzhmAcyDoPABgCIAiFSEACCCAAgIAAIiIGOjIgfdjqE8Tu0cCpk1hGeqAe62fKOoAABAAAQQABAAAIAACCAAKAACQgAAA==

> <PUBCHEM_IUPAC_OPENEYE_NAME>
4-(1,3-benzodioxol-5-ylmethyl)-1-[4-benzyl-2-hydroxy-5-[(2-hydroxyindan-1-yl)amino]-5-oxo-pentyl]-N-tert-butyl-piperazine-2-carboxamide

> <PUBCHEM_IUPAC_CAS_NAME>
4-(1,3-benzodioxol-5-ylmethyl)-N-tert-butyl-1-[2-hydroxy-5-[(2-hydroxy-2,3-dihydro-1H-inden-1-yl)amino]-5-oxo-4-(phenylmethyl)pentyl]-2-piperazinecarboxamide

> <PUBCHEM_IUPAC_NAME>
4-(1,3-benzodioxol-5-ylmethyl)-1-[4-benzyl-2-hydroxy-5-[(2-hydroxy-2,3-dihydro-1H-inden-1-yl)amino]-5-oxopentyl]-N-tert-butylpiperazine-2-carboxamide

> <PUBCHEM_IUPAC_SYSTEMATIC_NAME>
4-(1,3-benzodioxol-5-ylmethyl)-N-tert-butyl-1-[2-oxidanyl-5-[(2-oxidanyl-2,3-dihydro-1H-inden-1-yl)amino]-5-oxidanylidene-4-(phenylmethyl)pentyl]piperazine-2-carboxamide

> <PUBCHEM_IUPAC_TRADITIONAL_NAME>
1-[4-benzyl-2-hydroxy-5-[(2-hydroxyindan-1-yl)amino]-5-keto-pentyl]-N-tert-butyl-4-piperonyl-piperazine-2-carboxamide

> <PUBCHEM_IUPAC_INCHI>
InChI=1S/C38H48N4O6/c1-38(2,3)40-37(46)31-23-41(21-26-13-14-33-34(18-26)48-24-47-33)15-16-42(31)22-29(43)19-28(17-25-9-5-4-6-10-25)36(45)39-35-30-12-8-7-11-27(30)20-32(35)44/h4-14,18,28-29,31-32,35,43-44H,15-17,19-24H2,1-3H3,(H,39,45)(H,40,46)

> <PUBCHEM_IUPAC_INCHIKEY>
BJZTWVIYUGVEFV-UHFFFAOYSA-N

> <PUBCHEM_XLOGP3_AA>
3.7

> <PUBCHEM_EXACT_MASS>
656.357385

> <PUBCHEM_MOLECULAR_FORMULA>
C38H48N4O6

> <PUBCHEM_MOLECULAR_WEIGHT>
656.81092

> <PUBCHEM_OPENEYE_CAN_SMILES>
CC(C)(C)NC(=O)C1CN(CCN1CC(CC(CC2=CC=CC=C2)C(=O)NC3C(CC4=CC=CC=C34)O)O)CC5=CC6=C(C=C5)OCO6

> <PUBCHEM_OPENEYE_ISO_SMILES>
CC(C)(C)NC(=O)C1CN(CCN1CC(CC(CC2=CC=CC=C2)C(=O)NC3C(CC4=CC=CC=C34)O)O)CC5=CC6=C(C=C5)OCO6

> <PUBCHEM_CACTVS_TPSA>
124

> <PUBCHEM_MONOISOTOPIC_WEIGHT>
656.357385

> <PUBCHEM_TOTAL_CHARGE>
0

> <PUBCHEM_HEAVY_ATOM_COUNT>
48

> <PUBCHEM_ATOM_DEF_STEREO_COUNT>
0

> <PUBCHEM_ATOM_UDEF_STEREO_COUNT>
5

> <PUBCHEM_BOND_DEF_STEREO_COUNT>
0

> <PUBCHEM_BOND_UDEF_STEREO_COUNT>
0

> <PUBCHEM_ISOTOPIC_ATOM_COUNT>
0

> <PUBCHEM_COMPONENT_COUNT>
1

> <PUBCHEM_CACTVS_TAUTO_COUNT>
4

> <PUBCHEM_COORDINATE_TYPE>
1
5
255

> <PUBCHEM_BONDANNOTATIONS>
16  1  3
11  20  3
18  25  3
22  2  3
24  27  8
24  30  8
27  32  8
29  36  8
29  37  8
30  38  8
31  40  8
31  41  8
32  39  8
36  42  8
37  43  8
38  39  8
40  45  8
41  46  8
42  44  8
43  44  8
45  47  8
46  47  8
19  9  3

$$$$

