17395283
  -OEChem-06241222492D

 45 48  0     0  0  0  0  0  0999 V2000
    7.2764   -5.0547    0.0000 S   0  0  0  0  0  0  0  0  0  0  0  0
    5.4641   -2.2500    0.0000 S   0  0  0  0  0  0  0  0  0  0  0  0
    2.8660    5.2500    0.0000 F   0  0  0  0  0  0  0  0  0  0  0  0
    5.4641   -0.2500    0.0000 O   0  0  0  0  0  0  0  0  0  0  0  0
    2.0000    0.7500    0.0000 O   0  0  0  0  0  0  0  0  0  0  0  0
    5.4641   -5.2500    0.0000 N   0  0  0  0  0  0  0  0  0  0  0  0
    4.5981   -3.7500    0.0000 N   0  0  0  0  0  0  0  0  0  0  0  0
    3.7320   -0.2500    0.0000 N   0  0  0  0  0  0  0  0  0  0  0  0
    3.7320    0.7500    0.0000 N   0  0  0  0  0  0  0  0  0  0  0  0
    7.2764   -3.4453    0.0000 C   0  0  0  0  0  0  0  0  0  0  0  0
    6.3301   -3.7500    0.0000 C   0  0  0  0  0  0  0  0  0  0  0  0
    7.5870   -2.4947    0.0000 C   0  0  0  0  0  0  0  0  0  0  0  0
    6.3301   -4.7500    0.0000 C   0  0  0  0  0  0  0  0  0  0  0  0
    5.4641   -3.2500    0.0000 C   0  0  0  0  0  0  0  0  0  0  0  0
    7.8600   -4.2500    0.0000 C   0  0  0  0  0  0  0  0  0  0  0  0
    8.5655   -2.2885    0.0000 C   0  0  0  0  0  0  0  0  0  0  0  0
    6.9192   -1.7504    0.0000 C   0  0  0  0  0  0  0  0  0  0  0  0
    8.8762   -1.3380    0.0000 C   0  0  0  0  0  0  0  0  0  0  0  0
    7.2298   -0.7999    0.0000 C   0  0  0  0  0  0  0  0  0  0  0  0
    4.5981   -1.7500    0.0000 C   0  0  0  0  0  0  0  0  0  0  0  0
    8.2083   -0.5937    0.0000 C   0  0  0  0  0  0  0  0  0  0  0  0
    4.5981   -4.7500    0.0000 C   0  0  0  0  0  0  0  0  0  0  0  0
    4.5981   -0.7500    0.0000 C   0  0  0  0  0  0  0  0  0  0  0  0
    2.8660    2.2500    0.0000 C   0  0  0  0  0  0  0  0  0  0  0  0
    2.8660    1.2500    0.0000 C   0  0  0  0  0  0  0  0  0  0  0  0
    3.7320    2.7500    0.0000 C   0  0  0  0  0  0  0  0  0  0  0  0
    2.0000    2.7500    0.0000 C   0  0  0  0  0  0  0  0  0  0  0  0
    3.7320    3.7500    0.0000 C   0  0  0  0  0  0  0  0  0  0  0  0
    2.0000    3.7500    0.0000 C   0  0  0  0  0  0  0  0  0  0  0  0
    2.8660    4.2500    0.0000 C   0  0  0  0  0  0  0  0  0  0  0  0
    8.4800   -4.2500    0.0000 H   0  0  0  0  0  0  0  0  0  0  0  0
    8.9796   -2.7500    0.0000 H   0  0  0  0  0  0  0  0  0  0  0  0
    6.3125   -1.8783    0.0000 H   0  0  0  0  0  0  0  0  0  0  0  0
    9.4828   -1.2102    0.0000 H   0  0  0  0  0  0  0  0  0  0  0  0
    6.8158   -0.3385    0.0000 H   0  0  0  0  0  0  0  0  0  0  0  0
    3.9875   -1.6423    0.0000 H   0  0  0  0  0  0  0  0  0  0  0  0
    4.3860   -2.3326    0.0000 H   0  0  0  0  0  0  0  0  0  0  0  0
    8.4009   -0.0044    0.0000 H   0  0  0  0  0  0  0  0  0  0  0  0
    4.0611   -5.0600    0.0000 H   0  0  0  0  0  0  0  0  0  0  0  0
    3.1951   -0.5600    0.0000 H   0  0  0  0  0  0  0  0  0  0  0  0
    4.2690    1.0600    0.0000 H   0  0  0  0  0  0  0  0  0  0  0  0
    4.2690    2.4400    0.0000 H   0  0  0  0  0  0  0  0  0  0  0  0
    1.4631    2.4400    0.0000 H   0  0  0  0  0  0  0  0  0  0  0  0
    4.2690    4.0600    0.0000 H   0  0  0  0  0  0  0  0  0  0  0  0
    1.4631    4.0600    0.0000 H   0  0  0  0  0  0  0  0  0  0  0  0
  1 13  1  0  0  0  0
  1 15  1  0  0  0  0
  2 14  1  0  0  0  0
  2 20  1  0  0  0  0
  3 30  1  0  0  0  0
  4 23  2  0  0  0  0
  5 25  2  0  0  0  0
  6 13  1  0  0  0  0
  6 22  2  0  0  0  0
  7 14  2  0  0  0  0
  7 22  1  0  0  0  0
  8  9  1  0  0  0  0
  8 23  1  0  0  0  0
  8 40  1  0  0  0  0
  9 25  1  0  0  0  0
  9 41  1  0  0  0  0
 10 11  1  0  0  0  0
 10 12  1  0  0  0  0
 10 15  2  0  0  0  0
 11 13  2  0  0  0  0
 11 14  1  0  0  0  0
 12 16  2  0  0  0  0
 12 17  1  0  0  0  0
 15 31  1  0  0  0  0
 16 18  1  0  0  0  0
 16 32  1  0  0  0  0
 17 19  2  0  0  0  0
 17 33  1  0  0  0  0
 18 21  2  0  0  0  0
 18 34  1  0  0  0  0
 19 21  1  0  0  0  0
 19 35  1  0  0  0  0
 20 23  1  0  0  0  0
 20 36  1  0  0  0  0
 20 37  1  0  0  0  0
 21 38  1  0  0  0  0
 22 39  1  0  0  0  0
 24 25  1  0  0  0  0
 24 26  2  0  0  0  0
 24 27  1  0  0  0  0
 26 28  1  0  0  0  0
 26 42  1  0  0  0  0
 27 29  2  0  0  0  0
 27 43  1  0  0  0  0
 28 30  2  0  0  0  0
 28 44  1  0  0  0  0
 29 30  1  0  0  0  0
 29 45  1  0  0  0  0
M  END
> <PUBCHEM_COMPOUND_CID>
17395283

> <PUBCHEM_COMPOUND_CANONICALIZED>
1

> <PUBCHEM_CACTVS_COMPLEXITY>
600

> <PUBCHEM_CACTVS_HBOND_ACCEPTOR>
7

> <PUBCHEM_CACTVS_HBOND_DONOR>
2

> <PUBCHEM_CACTVS_ROTATABLE_BOND>
5

> <PUBCHEM_CACTVS_SUBSKEYS>
AAADccB7sQBgAAAAAAAAAAAAAAAAASAAAAA8YIAAAAAAAFgB/AAAHwQYAAAADACF2gy1kdZqEAisAiFzdACD0Kl1CLob+DEoRNiIKDLg3dGEJQxokAJoyacYiMCOgAAAAAAAAAAAAAAAAAAAAAAAAAAAAA==

> <PUBCHEM_IUPAC_OPENEYE_NAME>
4-fluoro-N'-[2-(5-phenylthieno[2,3-d]pyrimidin-4-yl)sulfanylacetyl]benzohydrazide

> <PUBCHEM_IUPAC_CAS_NAME>
4-fluoro-N'-[1-oxo-2-[(5-phenyl-4-thieno[2,3-d]pyrimidinyl)thio]ethyl]benzohydrazide

> <PUBCHEM_IUPAC_NAME>
4-fluoro-N'-[2-(5-phenylthieno[2,3-d]pyrimidin-4-yl)sulfanylacetyl]benzohydrazide

> <PUBCHEM_IUPAC_SYSTEMATIC_NAME>
4-fluoranyl-N'-[2-(5-phenylthieno[2,3-d]pyrimidin-4-yl)sulfanylethanoyl]benzohydrazide

> <PUBCHEM_IUPAC_TRADITIONAL_NAME>
4-fluoro-N'-[2-[(5-phenylthieno[2,3-d]pyrimidin-4-yl)thio]acetyl]benzohydrazide

> <PUBCHEM_IUPAC_INCHI>
InChI=1S/C21H15FN4O2S2/c22-15-8-6-14(7-9-15)19(28)26-25-17(27)11-30-21-18-16(13-4-2-1-3-5-13)10-29-20(18)23-12-24-21/h1-10,12H,11H2,(H,25,27)(H,26,28)

> <PUBCHEM_IUPAC_INCHIKEY>
ICLXQTCBPKYTMK-UHFFFAOYSA-N

> <PUBCHEM_XLOGP3_AA>
4.6

> <PUBCHEM_EXACT_MASS>
438.062046

> <PUBCHEM_MOLECULAR_FORMULA>
C21H15FN4O2S2

> <PUBCHEM_MOLECULAR_WEIGHT>
438.497803

> <PUBCHEM_OPENEYE_CAN_SMILES>
C1=CC=C(C=C1)C2=CSC3=C2C(=NC=N3)SCC(=O)NNC(=O)C4=CC=C(C=C4)F

> <PUBCHEM_OPENEYE_ISO_SMILES>
C1=CC=C(C=C1)C2=CSC3=C2C(=NC=N3)SCC(=O)NNC(=O)C4=CC=C(C=C4)F

> <PUBCHEM_CACTVS_TPSA>
138

> <PUBCHEM_MONOISOTOPIC_WEIGHT>
438.062046

> <PUBCHEM_TOTAL_CHARGE>
0

> <PUBCHEM_HEAVY_ATOM_COUNT>
30

> <PUBCHEM_ATOM_DEF_STEREO_COUNT>
0

> <PUBCHEM_ATOM_UDEF_STEREO_COUNT>
0

> <PUBCHEM_BOND_DEF_STEREO_COUNT>
0

> <PUBCHEM_BOND_UDEF_STEREO_COUNT>
0

> <PUBCHEM_ISOTOPIC_ATOM_COUNT>
0

> <PUBCHEM_COMPONENT_COUNT>
1

> <PUBCHEM_CACTVS_TAUTO_COUNT>
4

> <PUBCHEM_COORDINATE_TYPE>
1
5
255

> <PUBCHEM_BONDANNOTATIONS>
1  13  8
1  15  8
10  11  8
10  15  8
11  13  8
11  14  8
12  16  8
12  17  8
16  18  8
17  19  8
18  21  8
19  21  8
24  26  8
24  27  8
26  28  8
27  29  8
28  30  8
29  30  8
6  13  8
6  22  8
7  14  8
7  22  8

$$$$

