47205278
  -OEChem-06241222582D

 36 37  0     0  0  0  0  0  0999 V2000
    2.8660   -3.5670    0.0000 S   0  0  0  0  0  0  0  0  0  0  0  0
    2.3660   -4.4330    0.0000 O   0  0  0  0  0  0  0  0  0  0  0  0
    3.3660   -4.4330    0.0000 O   0  0  0  0  0  0  0  0  0  0  0  0
    4.5981   -0.5670    0.0000 O   0  0  0  0  0  0  0  0  0  0  0  0
    2.8660   -1.5670    0.0000 N   0  0  0  0  0  0  0  0  0  0  0  0
    3.7320    0.9330    0.0000 N   0  0  0  0  0  0  0  0  0  0  0  0
    5.4641    2.9330    0.0000 N   0  0  0  0  0  0  0  0  0  0  0  0
    2.0000   -3.0670    0.0000 C   0  0  0  0  0  0  0  0  0  0  0  0
    3.7320   -3.0670    0.0000 C   0  0  0  0  0  0  0  0  0  0  0  0
    2.0000   -2.0670    0.0000 C   0  0  0  0  0  0  0  0  0  0  0  0
    3.7320   -2.0670    0.0000 C   0  0  0  0  0  0  0  0  0  0  0  0
    2.8660   -0.5670    0.0000 C   0  0  0  0  0  0  0  0  0  0  0  0
    3.7320   -0.0670    0.0000 C   0  0  0  0  0  0  0  0  0  0  0  0
    4.5981    1.4330    0.0000 C   0  0  0  0  0  0  0  0  0  0  0  0
    4.5981    2.4330    0.0000 C   0  0  0  0  0  0  0  0  0  0  0  0
    3.7320    2.9330    0.0000 C   0  0  0  0  0  0  0  0  0  0  0  0
    3.7320    3.9330    0.0000 C   0  0  0  0  0  0  0  0  0  0  0  0
    5.4641    3.9330    0.0000 C   0  0  0  0  0  0  0  0  0  0  0  0
    4.5981    4.4330    0.0000 C   0  0  0  0  0  0  0  0  0  0  0  0
    1.3894   -2.9593    0.0000 H   0  0  0  0  0  0  0  0  0  0  0  0
    1.7880   -3.6496    0.0000 H   0  0  0  0  0  0  0  0  0  0  0  0
    3.9441   -3.6496    0.0000 H   0  0  0  0  0  0  0  0  0  0  0  0
    4.3426   -2.9593    0.0000 H   0  0  0  0  0  0  0  0  0  0  0  0
    1.7880   -1.4844    0.0000 H   0  0  0  0  0  0  0  0  0  0  0  0
    1.3894   -2.1747    0.0000 H   0  0  0  0  0  0  0  0  0  0  0  0
    4.3426   -2.1747    0.0000 H   0  0  0  0  0  0  0  0  0  0  0  0
    3.9441   -1.4844    0.0000 H   0  0  0  0  0  0  0  0  0  0  0  0
    2.6540    0.0156    0.0000 H   0  0  0  0  0  0  0  0  0  0  0  0
    2.2554   -0.6746    0.0000 H   0  0  0  0  0  0  0  0  0  0  0  0
    3.1951    1.2430    0.0000 H   0  0  0  0  0  0  0  0  0  0  0  0
    4.8101    0.8504    0.0000 H   0  0  0  0  0  0  0  0  0  0  0  0
    5.2087    1.5407    0.0000 H   0  0  0  0  0  0  0  0  0  0  0  0
    3.1951    2.6230    0.0000 H   0  0  0  0  0  0  0  0  0  0  0  0
    3.1951    4.2430    0.0000 H   0  0  0  0  0  0  0  0  0  0  0  0
    6.0010    4.2430    0.0000 H   0  0  0  0  0  0  0  0  0  0  0  0
    4.5981    5.0530    0.0000 H   0  0  0  0  0  0  0  0  0  0  0  0
  1  2  2  0  0  0  0
  1  3  2  0  0  0  0
  1  8  1  0  0  0  0
  1  9  1  0  0  0  0
  4 13  2  0  0  0  0
  5 10  1  0  0  0  0
  5 11  1  0  0  0  0
  5 12  1  0  0  0  0
  6 13  1  0  0  0  0
  6 14  1  0  0  0  0
  6 30  1  0  0  0  0
  7 15  1  0  0  0  0
  7 18  2  0  0  0  0
  8 10  1  0  0  0  0
  8 20  1  0  0  0  0
  8 21  1  0  0  0  0
  9 11  1  0  0  0  0
  9 22  1  0  0  0  0
  9 23  1  0  0  0  0
 10 24  1  0  0  0  0
 10 25  1  0  0  0  0
 11 26  1  0  0  0  0
 11 27  1  0  0  0  0
 12 13  1  0  0  0  0
 12 28  1  0  0  0  0
 12 29  1  0  0  0  0
 14 15  1  0  0  0  0
 14 31  1  0  0  0  0
 14 32  1  0  0  0  0
 15 16  2  0  0  0  0
 16 17  1  0  0  0  0
 16 33  1  0  0  0  0
 17 19  2  0  0  0  0
 17 34  1  0  0  0  0
 18 19  1  0  0  0  0
 18 35  1  0  0  0  0
 19 36  1  0  0  0  0
M  END
> <PUBCHEM_COMPOUND_CID>
47205278

> <PUBCHEM_COMPOUND_CANONICALIZED>
1

> <PUBCHEM_CACTVS_COMPLEXITY>
391

> <PUBCHEM_CACTVS_HBOND_ACCEPTOR>
5

> <PUBCHEM_CACTVS_HBOND_DONOR>
1

> <PUBCHEM_CACTVS_ROTATABLE_BOND>
4

> <PUBCHEM_CACTVS_SUBSKEYS>
AAADceBzMABAAAAAAAAAAAAAAAAAAAAAAAAsWAAAAAAAAAABgAAAHgQQAAAACAjF1gS8gJPIEAqoATV3VHDCgCAxAjAI2KC4ZJgIYOLAkbGUIAhglgDoyAcQAAAAAAAAAAAAAAAAAAAAAAAAAAAAAAAAAA==

> <PUBCHEM_IUPAC_OPENEYE_NAME>
2-(1,1-dioxo-1,4-thiazinan-4-yl)-N-(2-pyridylmethyl)acetamide

> <PUBCHEM_IUPAC_CAS_NAME>
2-(1,1-dioxo-1,4-thiazinan-4-yl)-N-(2-pyridinylmethyl)acetamide

> <PUBCHEM_IUPAC_NAME>
2-(1,1-dioxo-1,4-thiazinan-4-yl)-N-(pyridin-2-ylmethyl)acetamide

> <PUBCHEM_IUPAC_SYSTEMATIC_NAME>
2-[1,1-bis(oxidanylidene)-1,4-thiazinan-4-yl]-N-(pyridin-2-ylmethyl)ethanamide

> <PUBCHEM_IUPAC_TRADITIONAL_NAME>
2-(1,1-diketo-1,4-thiazinan-4-yl)-N-(2-pyridylmethyl)acetamide

> <PUBCHEM_IUPAC_INCHI>
InChI=1S/C12H17N3O3S/c16-12(14-9-11-3-1-2-4-13-11)10-15-5-7-19(17,18)8-6-15/h1-4H,5-10H2,(H,14,16)

> <PUBCHEM_IUPAC_INCHIKEY>
RJBFZGGOXGPMPL-UHFFFAOYSA-N

> <PUBCHEM_XLOGP3_AA>
-0.8

> <PUBCHEM_EXACT_MASS>
283.099062

> <PUBCHEM_MOLECULAR_FORMULA>
C12H17N3O3S

> <PUBCHEM_MOLECULAR_WEIGHT>
283.34668

> <PUBCHEM_OPENEYE_CAN_SMILES>
C1CS(=O)(=O)CCN1CC(=O)NCC2=CC=CC=N2

> <PUBCHEM_OPENEYE_ISO_SMILES>
C1CS(=O)(=O)CCN1CC(=O)NCC2=CC=CC=N2

> <PUBCHEM_CACTVS_TPSA>
87.8

> <PUBCHEM_MONOISOTOPIC_WEIGHT>
283.099062

> <PUBCHEM_TOTAL_CHARGE>
0

> <PUBCHEM_HEAVY_ATOM_COUNT>
19

> <PUBCHEM_ATOM_DEF_STEREO_COUNT>
0

> <PUBCHEM_ATOM_UDEF_STEREO_COUNT>
0

> <PUBCHEM_BOND_DEF_STEREO_COUNT>
0

> <PUBCHEM_BOND_UDEF_STEREO_COUNT>
0

> <PUBCHEM_ISOTOPIC_ATOM_COUNT>
0

> <PUBCHEM_COMPONENT_COUNT>
1

> <PUBCHEM_CACTVS_TAUTO_COUNT>
2

> <PUBCHEM_COORDINATE_TYPE>
1
5
255

> <PUBCHEM_BONDANNOTATIONS>
15  16  8
16  17  8
17  19  8
18  19  8
7  15  8
7  18  8

$$$$

