10246
  -OEChem-06261204232D

 38 41  0     1  0  0  0  0  0999 V2000
    9.1563   -1.0580    0.0000 O   0  0  0  0  0  0  0  0  0  0  0  0
    2.8520   -0.3627    0.0000 N   0  0  3  0  0  0  0  0  0  0  0  0
    7.7826    0.0584    0.0000 N   0  0  0  0  0  0  0  0  0  0  0  0
    5.3007    0.4737    0.0000 C   0  0  3  0  0  0  0  0  0  0  0  0
    3.7656   -0.7694    0.0000 C   0  0  1  0  0  0  0  0  0  0  0  0
    5.5596    1.4397    0.0000 C   0  0  3  0  0  0  0  0  0  0  0  0
    4.8229    2.4223    0.0000 C   0  0  0  0  0  0  0  0  0  0  0  0
    2.9566    0.6318    0.0000 C   0  0  0  0  0  0  0  0  0  0  0  0
    3.8904   -1.8035    0.0000 C   0  0  0  0  0  0  0  0  0  0  0  0
    7.0054   -0.5709    0.0000 C   0  0  0  0  0  0  0  0  0  0  0  0
    2.0000   -0.9619    0.0000 C   0  0  0  0  0  0  0  0  0  0  0  0
    7.4242    0.9920    0.0000 C   0  0  0  0  0  0  0  0  0  0  0  0
    3.0525   -2.4223    0.0000 C   0  0  0  0  0  0  0  0  0  0  0  0
    2.1009   -1.9986    0.0000 C   0  0  0  0  0  0  0  0  0  0  0  0
    8.0672    1.8115    0.0000 C   0  0  0  0  0  0  0  0  0  0  0  0
    8.8088   -0.1204    0.0000 C   0  0  0  0  0  0  0  0  0  0  0  0
    9.0972    1.6565    0.0000 C   0  0  0  0  0  0  0  0  0  0  0  0
    9.4705    0.6840    0.0000 C   0  0  0  0  0  0  0  0  0  0  0  0
    5.9872    0.9750    0.0000 H   0  0  0  0  0  0  0  0  0  0  0  0
    4.5421   -1.1151    0.0000 H   0  0  0  0  0  0  0  0  0  0  0  0
    6.0265    2.1499    0.0000 H   0  0  0  0  0  0  0  0  0  0  0  0
    5.1408    2.9546    0.0000 H   0  0  0  0  0  0  0  0  0  0  0  0
    4.2098    2.5142    0.0000 H   0  0  0  0  0  0  0  0  0  0  0  0
    2.8543    1.2434    0.0000 H   0  0  0  0  0  0  0  0  0  0  0  0
    2.3368    0.6129    0.0000 H   0  0  0  0  0  0  0  0  0  0  0  0
    4.1679   -2.3580    0.0000 H   0  0  0  0  0  0  0  0  0  0  0  0
    4.4842   -1.6250    0.0000 H   0  0  0  0  0  0  0  0  0  0  0  0
    6.6237   -1.0595    0.0000 H   0  0  0  0  0  0  0  0  0  0  0  0
    7.4476   -1.0055    0.0000 H   0  0  0  0  0  0  0  0  0  0  0  0
    1.7354   -0.4012    0.0000 H   0  0  0  0  0  0  0  0  0  0  0  0
    1.4023   -1.1266    0.0000 H   0  0  0  0  0  0  0  0  0  0  0  0
    2.7071   -2.9372    0.0000 H   0  0  0  0  0  0  0  0  0  0  0  0
    3.5007   -2.8507    0.0000 H   0  0  0  0  0  0  0  0  0  0  0  0
    1.4826   -1.9522    0.0000 H   0  0  0  0  0  0  0  0  0  0  0  0
    1.9494   -2.5998    0.0000 H   0  0  0  0  0  0  0  0  0  0  0  0
    7.8383    2.3877    0.0000 H   0  0  0  0  0  0  0  0  0  0  0  0
    9.4855    2.1398    0.0000 H   0  0  0  0  0  0  0  0  0  0  0  0
   10.0825    0.5847    0.0000 H   0  0  0  0  0  0  0  0  0  0  0  0
  1 16  2  0  0  0  0
  2  5  1  0  0  0  0
  2  8  1  0  0  0  0
  2 11  1  0  0  0  0
  3 10  1  0  0  0  0
  3 12  1  0  0  0  0
  3 16  1  0  0  0  0
  4  5  1  0  0  0  0
  4  7  1  0  0  0  0
  4 10  1  0  0  0  0
  4 19  1  0  0  0  0
  5  9  1  0  0  0  0
  5 20  1  6  0  0  0
  6  7  1  0  0  0  0
  6  8  1  0  0  0  0
  6 12  1  0  0  0  0
  6 21  1  0  0  0  0
  7 22  1  0  0  0  0
  7 23  1  0  0  0  0
  8 24  1  0  0  0  0
  8 25  1  0  0  0  0
  9 13  1  0  0  0  0
  9 26  1  0  0  0  0
  9 27  1  0  0  0  0
 10 28  1  0  0  0  0
 10 29  1  0  0  0  0
 11 14  1  0  0  0  0
 11 30  1  0  0  0  0
 11 31  1  0  0  0  0
 12 15  2  0  0  0  0
 13 14  1  0  0  0  0
 13 32  1  0  0  0  0
 13 33  1  0  0  0  0
 14 34  1  0  0  0  0
 14 35  1  0  0  0  0
 15 17  1  0  0  0  0
 15 36  1  0  0  0  0
 16 18  1  0  0  0  0
 17 18  2  0  0  0  0
 17 37  1  0  0  0  0
 18 38  1  0  0  0  0
M  END
> <PUBCHEM_COMPOUND_CID>
10246

> <PUBCHEM_COMPOUND_CANONICALIZED>
1

> <PUBCHEM_CACTVS_COMPLEXITY>
440

> <PUBCHEM_CACTVS_HBOND_ACCEPTOR>
2

> <PUBCHEM_CACTVS_HBOND_DONOR>
0

> <PUBCHEM_CACTVS_ROTATABLE_BOND>
0

> <PUBCHEM_CACTVS_SUBSKEYS>
AAADceBzIAAAAAAAAAAAAAAAAAAAAAAAAAAsWLEAAAAWAACwAAAAHgAAAAAADSjBgAQAAAMAAACIACVSUACAAAAgAgAICAAIAEgIAAIAwQAEAAAAhgCIgYMQgMAOAAAAAAAAAAAAAAAAAAAAAAAAAAAAAA==

> <PUBCHEM_IUPAC_INCHI>
InChI=1S/C15H20N2O/c18-15-6-3-5-14-11-8-12(10-17(14)15)13-4-1-2-7-16(13)9-11/h3,5-6,11-13H,1-2,4,7-10H2/t11?,12?,13-/m1/s1

> <PUBCHEM_IUPAC_INCHIKEY>
FQEQMASDZFXSJI-WXRRBKDZSA-N

> <PUBCHEM_XLOGP3_AA>
1.6

> <PUBCHEM_EXACT_MASS>
244.157563

> <PUBCHEM_MOLECULAR_FORMULA>
C15H20N2O

> <PUBCHEM_MOLECULAR_WEIGHT>
244.3321

> <PUBCHEM_OPENEYE_CAN_SMILES>
C1CCN2CC3CC(C2C1)CN4C3=CC=CC4=O

> <PUBCHEM_OPENEYE_ISO_SMILES>
C1CCN2CC3CC([C@H]2C1)CN4C3=CC=CC4=O

> <PUBCHEM_CACTVS_TPSA>
23.6

> <PUBCHEM_MONOISOTOPIC_WEIGHT>
244.157563

> <PUBCHEM_TOTAL_CHARGE>
0

> <PUBCHEM_HEAVY_ATOM_COUNT>
18

> <PUBCHEM_ATOM_DEF_STEREO_COUNT>
1

> <PUBCHEM_ATOM_UDEF_STEREO_COUNT>
2

> <PUBCHEM_BOND_DEF_STEREO_COUNT>
0

> <PUBCHEM_BOND_UDEF_STEREO_COUNT>
0

> <PUBCHEM_ISOTOPIC_ATOM_COUNT>
0

> <PUBCHEM_COMPONENT_COUNT>
1

> <PUBCHEM_CACTVS_TAUTO_COUNT>
3

> <PUBCHEM_COORDINATE_TYPE>
1
5
255

> <PUBCHEM_BONDANNOTATIONS>
12  15  8
15  17  8
16  18  8
17  18  8
3  12  8
3  16  8
4  19  3
5  20  6
6  21  3

$$$$

