10066
  -OEChem-06261204172D

 26 29  0     1  0  0  0  0  0999 V2000
    4.9604   -2.1509    0.0000 Cl  0  0  0  0  0  0  0  0  0  0  0  0
    3.1557    0.9750    0.0000 Cl  0  0  0  0  0  0  0  0  0  0  0  0
    2.5842   -1.1205    0.0000 Cl  0  0  0  0  0  0  0  0  0  0  0  0
    2.8599   -1.5981    0.0000 Cl  0  0  0  0  0  0  0  0  0  0  0  0
    3.0834   -2.4017    0.0000 Cl  0  0  0  0  0  0  0  0  0  0  0  0
    2.0000   -0.5252    0.0000 Cl  0  0  0  0  0  0  0  0  0  0  0  0
    5.1294   -0.5468    0.0000 C   0  0  2  0  0  0  0  0  0  0  0  0
    4.6294    0.3192    0.0000 C   0  0  1  0  0  0  0  0  0  0  0  0
    4.4623   -1.2838    0.0000 C   0  0  2  0  0  0  0  0  0  0  0  0
    3.6576    0.1100    0.0000 C   0  0  2  0  0  0  0  0  0  0  0  0
    6.8614    0.4532    0.0000 C   0  0  1  0  0  0  0  0  0  0  0  0
    7.1203    1.4191    0.0000 C   0  0  1  0  0  0  0  0  0  0  0  0
    3.5545   -0.8787    0.0000 C   0  0  0  0  0  0  0  0  0  0  0  0
    6.3836    2.4017    0.0000 C   0  0  0  0  0  0  0  0  0  0  0  0
    3.4910   -1.4885    0.0000 C   0  0  0  0  0  0  0  0  0  0  0  0
    2.9946   -0.6288    0.0000 C   0  0  0  0  0  0  0  0  0  0  0  0
    8.6934   -0.3056    0.0000 C   0  0  0  0  0  0  0  0  0  0  0  0
    8.9522    0.6603    0.0000 C   0  0  0  0  0  0  0  0  0  0  0  0
    5.5544   -1.2829    0.0000 H   0  0  0  0  0  0  0  0  0  0  0  0
    4.2044    1.0553    0.0000 H   0  0  0  0  0  0  0  0  0  0  0  0
    6.6414   -0.3678    0.0000 H   0  0  0  0  0  0  0  0  0  0  0  0
    7.3402    2.2402    0.0000 H   0  0  0  0  0  0  0  0  0  0  0  0
    6.7014    2.9341    0.0000 H   0  0  0  0  0  0  0  0  0  0  0  0
    5.7705    2.4937    0.0000 H   0  0  0  0  0  0  0  0  0  0  0  0
    8.9676   -0.8617    0.0000 H   0  0  0  0  0  0  0  0  0  0  0  0
    9.5083    0.9345    0.0000 H   0  0  0  0  0  0  0  0  0  0  0  0
  9  1  1  1  0  0  0
 10  2  1  6  0  0  0
  3 13  1  0  0  0  0
  4 13  1  0  0  0  0
  5 15  1  0  0  0  0
  6 16  1  0  0  0  0
  7  8  1  0  0  0  0
  7  9  1  0  0  0  0
  7 11  1  0  0  0  0
  7 19  1  6  0  0  0
  8 10  1  0  0  0  0
  8 12  1  0  0  0  0
  8 20  1  6  0  0  0
  9 13  1  0  0  0  0
  9 15  1  0  0  0  0
 10 13  1  0  0  0  0
 10 16  1  0  0  0  0
 11 14  1  0  0  0  0
 11 17  1  0  0  0  0
 11 21  1  6  0  0  0
 12 14  1  0  0  0  0
 12 18  1  0  0  0  0
 12 22  1  6  0  0  0
 14 23  1  0  0  0  0
 14 24  1  0  0  0  0
 15 16  2  0  0  0  0
 17 18  2  0  0  0  0
 17 25  1  0  0  0  0
 18 26  1  0  0  0  0
M  END
> <PUBCHEM_COMPOUND_CID>
10066

> <PUBCHEM_COMPOUND_CANONICALIZED>
1

> <PUBCHEM_CACTVS_COMPLEXITY>
481

> <PUBCHEM_CACTVS_HBOND_ACCEPTOR>
0

> <PUBCHEM_CACTVS_HBOND_DONOR>
0

> <PUBCHEM_CACTVS_ROTATABLE_BOND>
0

> <PUBCHEM_CACTVS_SUBSKEYS>
AAADccBwAAAHAAAAAAAAAAAAAAAAAYMECAAgQAAAAAAYAAAAAAAAGAIAAAAADQKAAIAAAAAAAACAACBCAAAAAAAgAAAICEAAAggAAAIBAQAAAAAAgAAIAAMAgMAOgAAAAAAAAAAAAAAAAAAAARAASIACAA==

> <PUBCHEM_IUPAC_INCHI>
InChI=1S/C12H8Cl6/c13-8-9(14)11(16)7-5-2-1-4(3-5)6(7)10(8,15)12(11,17)18/h1-2,4-7H,3H2/t4-,5-,6-,7+,10+,11+/m1/s1

> <PUBCHEM_IUPAC_INCHIKEY>
QBYJBZPUGVGKQQ-KCHUEWMZSA-N

> <PUBCHEM_XLOGP3_AA>
4.5

> <PUBCHEM_EXACT_MASS>
363.872766

> <PUBCHEM_MOLECULAR_FORMULA>
C12H8Cl6

> <PUBCHEM_MOLECULAR_WEIGHT>
364.90992

> <PUBCHEM_OPENEYE_CAN_SMILES>
C1C2C=CC1C3C2C4(C(=C(C3(C4(Cl)Cl)Cl)Cl)Cl)Cl

> <PUBCHEM_OPENEYE_ISO_SMILES>
C1[C@H]2C=C[C@H]1[C@H]3[C@@H]2[C@@]4(C(=C([C@@]3(C4(Cl)Cl)Cl)Cl)Cl)Cl

> <PUBCHEM_CACTVS_TPSA>
0

> <PUBCHEM_MONOISOTOPIC_WEIGHT>
361.875716

> <PUBCHEM_TOTAL_CHARGE>
0

> <PUBCHEM_HEAVY_ATOM_COUNT>
18

> <PUBCHEM_ATOM_DEF_STEREO_COUNT>
6

> <PUBCHEM_ATOM_UDEF_STEREO_COUNT>
0

> <PUBCHEM_BOND_DEF_STEREO_COUNT>
0

> <PUBCHEM_BOND_UDEF_STEREO_COUNT>
0

> <PUBCHEM_ISOTOPIC_ATOM_COUNT>
0

> <PUBCHEM_COMPONENT_COUNT>
1

> <PUBCHEM_CACTVS_TAUTO_COUNT>
1

> <PUBCHEM_COORDINATE_TYPE>
1
5
255

> <PUBCHEM_BONDANNOTATIONS>
9  1  5
11  21  6
12  22  6
10  2  6
7  19  6
8  20  6

$$$$

