13280
  -OEChem-06261208282D

 30 30  0     0  0  0  0  0  0999 V2000
    2.0000   -3.6550    0.0000 Cl  0  0  0  0  0  0  0  0  0  0  0  0
    3.7320    2.3450    0.0000 S   0  0  0  0  0  0  0  0  0  0  0  0
    4.7320    2.3450    0.0000 O   0  0  0  0  0  0  0  0  0  0  0  0
    2.7320    2.3450    0.0000 O   0  0  0  0  0  0  0  0  0  0  0  0
    2.0000   -1.6550    0.0000 O   0  0  0  0  0  0  0  0  0  0  0  0
    3.7320   -1.6550    0.0000 N   0  0  0  0  0  0  0  0  0  0  0  0
    3.7320    3.3450    0.0000 N   0  0  0  0  0  0  0  0  0  0  0  0
    3.7320   -0.6550    0.0000 C   0  0  0  0  0  0  0  0  0  0  0  0
    4.5981   -2.1550    0.0000 C   0  0  0  0  0  0  0  0  0  0  0  0
    3.7320    1.3450    0.0000 C   0  0  0  0  0  0  0  0  0  0  0  0
    4.5981   -0.1550    0.0000 C   0  0  0  0  0  0  0  0  0  0  0  0
    2.8660   -0.1550    0.0000 C   0  0  0  0  0  0  0  0  0  0  0  0
    4.5981    0.8450    0.0000 C   0  0  0  0  0  0  0  0  0  0  0  0
    2.8660    0.8450    0.0000 C   0  0  0  0  0  0  0  0  0  0  0  0
    2.8660   -2.1550    0.0000 C   0  0  0  0  0  0  0  0  0  0  0  0
    4.5981   -3.1550    0.0000 C   0  0  0  0  0  0  0  0  0  0  0  0
    2.8660   -3.1550    0.0000 C   0  0  0  0  0  0  0  0  0  0  0  0
    5.2087   -2.2627    0.0000 H   0  0  0  0  0  0  0  0  0  0  0  0
    4.8101   -1.5724    0.0000 H   0  0  0  0  0  0  0  0  0  0  0  0
    5.1350   -0.4650    0.0000 H   0  0  0  0  0  0  0  0  0  0  0  0
    2.3291   -0.4650    0.0000 H   0  0  0  0  0  0  0  0  0  0  0  0
    5.1350    1.1550    0.0000 H   0  0  0  0  0  0  0  0  0  0  0  0
    2.3291    1.1550    0.0000 H   0  0  0  0  0  0  0  0  0  0  0  0
    3.9781   -3.1550    0.0000 H   0  0  0  0  0  0  0  0  0  0  0  0
    4.5981   -3.7750    0.0000 H   0  0  0  0  0  0  0  0  0  0  0  0
    5.2181   -3.1550    0.0000 H   0  0  0  0  0  0  0  0  0  0  0  0
    3.0781   -3.7376    0.0000 H   0  0  0  0  0  0  0  0  0  0  0  0
    3.4766   -3.0473    0.0000 H   0  0  0  0  0  0  0  0  0  0  0  0
    4.2690    3.6550    0.0000 H   0  0  0  0  0  0  0  0  0  0  0  0
    3.1951    3.6550    0.0000 H   0  0  0  0  0  0  0  0  0  0  0  0
  1 17  1  0  0  0  0
  2  3  2  0  0  0  0
  2  4  2  0  0  0  0
  2  7  1  0  0  0  0
  2 10  1  0  0  0  0
  5 15  2  0  0  0  0
  6  8  1  0  0  0  0
  6  9  1  0  0  0  0
  6 15  1  0  0  0  0
  7 29  1  0  0  0  0
  7 30  1  0  0  0  0
  8 11  2  0  0  0  0
  8 12  1  0  0  0  0
  9 16  1  0  0  0  0
  9 18  1  0  0  0  0
  9 19  1  0  0  0  0
 10 13  2  0  0  0  0
 10 14  1  0  0  0  0
 11 13  1  0  0  0  0
 11 20  1  0  0  0  0
 12 14  2  0  0  0  0
 12 21  1  0  0  0  0
 13 22  1  0  0  0  0
 14 23  1  0  0  0  0
 15 17  1  0  0  0  0
 16 24  1  0  0  0  0
 16 25  1  0  0  0  0
 16 26  1  0  0  0  0
 17 27  1  0  0  0  0
 17 28  1  0  0  0  0
M  END
> <PUBCHEM_COMPOUND_CID>
13280

> <PUBCHEM_COMPOUND_CANONICALIZED>
1

> <PUBCHEM_CACTVS_COMPLEXITY>
358

> <PUBCHEM_CACTVS_HBOND_ACCEPTOR>
4

> <PUBCHEM_CACTVS_HBOND_DONOR>
1

> <PUBCHEM_CACTVS_ROTATABLE_BOND>
4

> <PUBCHEM_CACTVS_SUBSKEYS>
AAADccBzMABEAAAAAAAAAAAAAAAAAAAAAAAwAAAAAAAAAAABAAAAHgYQQAAACAvB0EQywYMAAAKIACVSUHDCABAhAgAIiBgIZIhIICLAkZHEIAhghgDIyAcQAAAAAAQAAAAAAAAACAAAAAAAAAAAAAAAAA==

> <PUBCHEM_IUPAC_OPENEYE_NAME>
2-chloro-N-ethyl-N-(4-sulfamoylphenyl)acetamide

> <PUBCHEM_IUPAC_CAS_NAME>
2-chloro-N-ethyl-N-(4-sulfamoylphenyl)acetamide

> <PUBCHEM_IUPAC_NAME>
2-chloro-N-ethyl-N-(4-sulfamoylphenyl)acetamide

> <PUBCHEM_IUPAC_SYSTEMATIC_NAME>
2-chloranyl-N-ethyl-N-(4-sulfamoylphenyl)ethanamide

> <PUBCHEM_IUPAC_TRADITIONAL_NAME>
2-chloro-N-ethyl-N-(4-sulfamoylphenyl)acetamide

> <PUBCHEM_IUPAC_INCHI>
InChI=1S/C10H13ClN2O3S/c1-2-13(10(14)7-11)8-3-5-9(6-4-8)17(12,15)16/h3-6H,2,7H2,1H3,(H2,12,15,16)

> <PUBCHEM_IUPAC_INCHIKEY>
PLUDDCOOIORTFB-UHFFFAOYSA-N

> <PUBCHEM_XLOGP3_AA>
0.8

> <PUBCHEM_EXACT_MASS>
276.033541

> <PUBCHEM_MOLECULAR_FORMULA>
C10H13ClN2O3S

> <PUBCHEM_MOLECULAR_WEIGHT>
276.73982

> <PUBCHEM_OPENEYE_CAN_SMILES>
CCN(C1=CC=C(C=C1)S(=O)(=O)N)C(=O)CCl

> <PUBCHEM_OPENEYE_ISO_SMILES>
CCN(C1=CC=C(C=C1)S(=O)(=O)N)C(=O)CCl

> <PUBCHEM_CACTVS_TPSA>
88.8

> <PUBCHEM_MONOISOTOPIC_WEIGHT>
276.033541

> <PUBCHEM_TOTAL_CHARGE>
0

> <PUBCHEM_HEAVY_ATOM_COUNT>
17

> <PUBCHEM_ATOM_DEF_STEREO_COUNT>
0

> <PUBCHEM_ATOM_UDEF_STEREO_COUNT>
0

> <PUBCHEM_BOND_DEF_STEREO_COUNT>
0

> <PUBCHEM_BOND_UDEF_STEREO_COUNT>
0

> <PUBCHEM_ISOTOPIC_ATOM_COUNT>
0

> <PUBCHEM_COMPONENT_COUNT>
1

> <PUBCHEM_CACTVS_TAUTO_COUNT>
1

> <PUBCHEM_COORDINATE_TYPE>
1
5
255

> <PUBCHEM_BONDANNOTATIONS>
10  13  8
10  14  8
11  13  8
12  14  8
8  11  8
8  12  8

$$$$

