4307
  -OEChem-06261200022D

 49 50  0     0  0  0  0  0  0999 V2000
    8.6155    6.0773    0.0000 I   0  0  0  0  0  0  0  0  0  0  0  0
    6.8671    2.0427    0.0000 S   0  0  0  0  0  0  0  0  0  0  0  0
    5.8671    2.0427    0.0000 O   0  0  0  0  0  0  0  0  0  0  0  0
    7.8671    2.0427    0.0000 O   0  0  0  0  0  0  0  0  0  0  0  0
    6.8671    1.0427    0.0000 N   0  0  0  0  0  0  0  0  0  0  0  0
    2.5369   -5.4573    0.0000 N   0  0  0  0  0  0  0  0  0  0  0  0
    5.1350   -1.9573    0.0000 C   0  0  0  0  0  0  0  0  0  0  0  0
    5.1350   -0.9573    0.0000 C   0  0  0  0  0  0  0  0  0  0  0  0
    4.2690   -2.4573    0.0000 C   0  0  0  0  0  0  0  0  0  0  0  0
    6.0010   -0.4573    0.0000 C   0  0  0  0  0  0  0  0  0  0  0  0
    4.2690   -3.4573    0.0000 C   0  0  0  0  0  0  0  0  0  0  0  0
    6.0010    0.5427    0.0000 C   0  0  0  0  0  0  0  0  0  0  0  0
    3.4030   -3.9573    0.0000 C   0  0  0  0  0  0  0  0  0  0  0  0
    6.8671    3.0427    0.0000 C   0  0  0  0  0  0  0  0  0  0  0  0
    3.4030   -4.9573    0.0000 C   0  0  0  0  0  0  0  0  0  0  0  0
    7.7331    3.5427    0.0000 C   0  0  0  0  0  0  0  0  0  0  0  0
    7.7331    4.5427    0.0000 C   0  0  0  0  0  0  0  0  0  0  0  0
    6.0010    3.5427    0.0000 C   0  0  0  0  0  0  0  0  0  0  0  0
    8.6270    3.0080    0.0000 C   0  0  0  0  0  0  0  0  0  0  0  0
    6.8671    5.0427    0.0000 C   0  0  0  0  0  0  0  0  0  0  0  0
    6.0010    4.5427    0.0000 C   0  0  0  0  0  0  0  0  0  0  0  0
    8.6270    5.0774    0.0000 C   0  0  0  0  0  0  0  0  0  0  0  0
    9.5331    3.5219    0.0000 C   0  0  0  0  0  0  0  0  0  0  0  0
    9.5331    4.5635    0.0000 C   0  0  0  0  0  0  0  0  0  0  0  0
    5.3471   -2.5399    0.0000 H   0  0  0  0  0  0  0  0  0  0  0  0
    5.7456   -1.8496    0.0000 H   0  0  0  0  0  0  0  0  0  0  0  0
    4.9230   -0.3747    0.0000 H   0  0  0  0  0  0  0  0  0  0  0  0
    4.5244   -1.0650    0.0000 H   0  0  0  0  0  0  0  0  0  0  0  0
    4.0569   -1.8747    0.0000 H   0  0  0  0  0  0  0  0  0  0  0  0
    3.6584   -2.5650    0.0000 H   0  0  0  0  0  0  0  0  0  0  0  0
    6.2131   -1.0399    0.0000 H   0  0  0  0  0  0  0  0  0  0  0  0
    6.6116   -0.3496    0.0000 H   0  0  0  0  0  0  0  0  0  0  0  0
    4.4810   -4.0399    0.0000 H   0  0  0  0  0  0  0  0  0  0  0  0
    4.8796   -3.3496    0.0000 H   0  0  0  0  0  0  0  0  0  0  0  0
    5.7890    1.1253    0.0000 H   0  0  0  0  0  0  0  0  0  0  0  0
    5.3905    0.4350    0.0000 H   0  0  0  0  0  0  0  0  0  0  0  0
    3.1909   -3.3747    0.0000 H   0  0  0  0  0  0  0  0  0  0  0  0
    2.7924   -4.0650    0.0000 H   0  0  0  0  0  0  0  0  0  0  0  0
    7.4040    0.7327    0.0000 H   0  0  0  0  0  0  0  0  0  0  0  0
    3.6150   -5.5399    0.0000 H   0  0  0  0  0  0  0  0  0  0  0  0
    4.0135   -4.8496    0.0000 H   0  0  0  0  0  0  0  0  0  0  0  0
    5.4641    3.2327    0.0000 H   0  0  0  0  0  0  0  0  0  0  0  0
    8.6199    2.3881    0.0000 H   0  0  0  0  0  0  0  0  0  0  0  0
    6.8671    5.6627    0.0000 H   0  0  0  0  0  0  0  0  0  0  0  0
    5.4641    4.8527    0.0000 H   0  0  0  0  0  0  0  0  0  0  0  0
    2.5369   -6.0773    0.0000 H   0  0  0  0  0  0  0  0  0  0  0  0
    2.0000   -5.1473    0.0000 H   0  0  0  0  0  0  0  0  0  0  0  0
   10.0688    3.2098    0.0000 H   0  0  0  0  0  0  0  0  0  0  0  0
   10.0688    4.8756    0.0000 H   0  0  0  0  0  0  0  0  0  0  0  0
  1 22  1  0  0  0  0
  2  3  2  0  0  0  0
  2  4  2  0  0  0  0
  2  5  1  0  0  0  0
  2 14  1  0  0  0  0
  5 12  1  0  0  0  0
  5 39  1  0  0  0  0
  6 15  1  0  0  0  0
  6 46  1  0  0  0  0
  6 47  1  0  0  0  0
  7  8  1  0  0  0  0
  7  9  1  0  0  0  0
  7 25  1  0  0  0  0
  7 26  1  0  0  0  0
  8 10  1  0  0  0  0
  8 27  1  0  0  0  0
  8 28  1  0  0  0  0
  9 11  1  0  0  0  0
  9 29  1  0  0  0  0
  9 30  1  0  0  0  0
 10 12  1  0  0  0  0
 10 31  1  0  0  0  0
 10 32  1  0  0  0  0
 11 13  1  0  0  0  0
 11 33  1  0  0  0  0
 11 34  1  0  0  0  0
 12 35  1  0  0  0  0
 12 36  1  0  0  0  0
 13 15  1  0  0  0  0
 13 37  1  0  0  0  0
 13 38  1  0  0  0  0
 14 16  1  0  0  0  0
 14 18  2  0  0  0  0
 15 40  1  0  0  0  0
 15 41  1  0  0  0  0
 16 17  2  0  0  0  0
 16 19  1  0  0  0  0
 17 20  1  0  0  0  0
 17 22  1  0  0  0  0
 18 21  1  0  0  0  0
 18 42  1  0  0  0  0
 19 23  2  0  0  0  0
 19 43  1  0  0  0  0
 20 21  2  0  0  0  0
 20 44  1  0  0  0  0
 21 45  1  0  0  0  0
 22 24  2  0  0  0  0
 23 24  1  0  0  0  0
 23 48  1  0  0  0  0
 24 49  1  0  0  0  0
M  END
> <PUBCHEM_COMPOUND_CID>
4307

> <PUBCHEM_COMPOUND_CANONICALIZED>
1

> <PUBCHEM_CACTVS_COMPLEXITY>
452

> <PUBCHEM_CACTVS_HBOND_ACCEPTOR>
4

> <PUBCHEM_CACTVS_HBOND_DONOR>
2

> <PUBCHEM_CACTVS_ROTATABLE_BOND>
10

> <PUBCHEM_CACTVS_SUBSKEYS>
AAADceB7MABAAgAAAAAAAAAAAAAAAAAAAAAwYAAAAAAAAADBUAAAHAQwQAAADADDWAQwAcBAAAKAAiBCAHBCABAgAAAIiJgAAIgIICKAkRCAIAAgkAAIiAcQgIAOgAAAgAAUAAAAAAEAACgAAAAAAAAAAA==

> <PUBCHEM_IUPAC_OPENEYE_NAME>
N-(8-aminooctyl)-5-iodo-naphthalene-1-sulfonamide

> <PUBCHEM_IUPAC_CAS_NAME>
N-(8-aminooctyl)-5-iodo-1-naphthalenesulfonamide

> <PUBCHEM_IUPAC_NAME>
N-(8-aminooctyl)-5-iodonaphthalene-1-sulfonamide

> <PUBCHEM_IUPAC_SYSTEMATIC_NAME>
N-(8-azanyloctyl)-5-iodanyl-naphthalene-1-sulfonamide

> <PUBCHEM_IUPAC_TRADITIONAL_NAME>
N-(8-aminooctyl)-5-iodo-naphthalene-1-sulfonamide

> <PUBCHEM_IUPAC_INCHI>
InChI=1S/C18H25IN2O2S/c19-17-11-7-10-16-15(17)9-8-12-18(16)24(22,23)21-14-6-4-2-1-3-5-13-20/h7-12,21H,1-6,13-14,20H2

> <PUBCHEM_IUPAC_INCHIKEY>
ZMISJCLJPKVFEL-UHFFFAOYSA-N

> <PUBCHEM_XLOGP3_AA>
4.4

> <PUBCHEM_EXACT_MASS>
460.068147

> <PUBCHEM_MOLECULAR_FORMULA>
C18H25IN2O2S

> <PUBCHEM_MOLECULAR_WEIGHT>
460.37277

> <PUBCHEM_OPENEYE_CAN_SMILES>
C1=CC2=C(C=CC=C2I)C(=C1)S(=O)(=O)NCCCCCCCCN

> <PUBCHEM_OPENEYE_ISO_SMILES>
C1=CC2=C(C=CC=C2I)C(=C1)S(=O)(=O)NCCCCCCCCN

> <PUBCHEM_CACTVS_TPSA>
80.6

> <PUBCHEM_MONOISOTOPIC_WEIGHT>
460.068147

> <PUBCHEM_TOTAL_CHARGE>
0

> <PUBCHEM_HEAVY_ATOM_COUNT>
24

> <PUBCHEM_ATOM_DEF_STEREO_COUNT>
0

> <PUBCHEM_ATOM_UDEF_STEREO_COUNT>
0

> <PUBCHEM_BOND_DEF_STEREO_COUNT>
0

> <PUBCHEM_BOND_UDEF_STEREO_COUNT>
0

> <PUBCHEM_ISOTOPIC_ATOM_COUNT>
0

> <PUBCHEM_COMPONENT_COUNT>
1

> <PUBCHEM_CACTVS_TAUTO_COUNT>
1

> <PUBCHEM_COORDINATE_TYPE>
1
5
255

> <PUBCHEM_BONDANNOTATIONS>
14  16  8
14  18  8
16  17  8
16  19  8
17  20  8
17  22  8
18  21  8
19  23  8
20  21  8
22  24  8
23  24  8

$$$$

