9917
  -OEChem-06261204112D

 41 42  0     0  0  0  0  0  0999 V2000
    2.9747    0.0000    0.0000 Cl  0  0  0  0  0  0  0  0  0  0  0  0
    1.7427    4.1673    0.0000 N   0  0  0  0  0  0  0  0  0  0  0  0
    3.4747    7.1673    0.0000 C   0  0  0  0  0  0  0  0  0  0  0  0
    2.5738    7.6012    0.0000 C   0  0  0  0  0  0  0  0  0  0  0  0
    4.3757    7.6012    0.0000 C   0  0  0  0  0  0  0  0  0  0  0  0
    4.5982    8.5761    0.0000 C   0  0  0  0  0  0  0  0  0  0  0  0
    2.3513    8.5761    0.0000 C   0  0  0  0  0  0  0  0  0  0  0  0
    3.4747    6.1673    0.0000 C   0  0  0  0  0  0  0  0  0  0  0  0
    2.6087    5.6673    0.0000 C   0  0  0  0  0  0  0  0  0  0  0  0
    3.9748    9.3579    0.0000 C   0  0  0  0  0  0  0  0  0  0  0  0
    2.9747    9.3579    0.0000 C   0  0  0  0  0  0  0  0  0  0  0  0
    2.6087    4.6673    0.0000 C   0  0  0  0  0  0  0  0  0  0  0  0
    5.1283    6.8810    0.0000 C   0  0  0  0  0  0  0  0  0  0  0  0
    1.8212    6.8810    0.0000 C   0  0  0  0  0  0  0  0  0  0  0  0
    5.5887    8.8984    0.0000 C   0  0  0  0  0  0  0  0  0  0  0  0
    1.3608    8.8985    0.0000 C   0  0  0  0  0  0  0  0  0  0  0  0
    6.1259    7.1803    0.0000 C   0  0  0  0  0  0  0  0  0  0  0  0
    0.8235    7.1804    0.0000 C   0  0  0  0  0  0  0  0  0  0  0  0
    0.5917    8.1959    0.0000 C   0  0  0  0  0  0  0  0  0  0  0  0
    6.3578    8.1958    0.0000 C   0  0  0  0  0  0  0  0  0  0  0  0
    1.7427    3.1673    0.0000 C   0  0  0  0  0  0  0  0  0  0  0  0
    4.0117    5.8573    0.0000 H   0  0  0  0  0  0  0  0  0  0  0  0
    2.3966    6.2499    0.0000 H   0  0  0  0  0  0  0  0  0  0  0  0
    1.9981    5.5596    0.0000 H   0  0  0  0  0  0  0  0  0  0  0  0
    4.2438    9.9165    0.0000 H   0  0  0  0  0  0  0  0  0  0  0  0
    2.7058    9.9165    0.0000 H   0  0  0  0  0  0  0  0  0  0  0  0
    2.8207    4.0847    0.0000 H   0  0  0  0  0  0  0  0  0  0  0  0
    3.2193    4.7750    0.0000 H   0  0  0  0  0  0  0  0  0  0  0  0
    4.9833    6.2782    0.0000 H   0  0  0  0  0  0  0  0  0  0  0  0
    1.9662    6.2782    0.0000 H   0  0  0  0  0  0  0  0  0  0  0  0
    5.7197    9.5044    0.0000 H   0  0  0  0  0  0  0  0  0  0  0  0
    1.2298    9.5045    0.0000 H   0  0  0  0  0  0  0  0  0  0  0  0
    0.3707    6.7569    0.0000 H   0  0  0  0  0  0  0  0  0  0  0  0
    6.5788    6.7569    0.0000 H   0  0  0  0  0  0  0  0  0  0  0  0
    0.0000    8.3809    0.0000 H   0  0  0  0  0  0  0  0  0  0  0  0
    6.9495    8.3809    0.0000 H   0  0  0  0  0  0  0  0  0  0  0  0
    1.2057    4.4773    0.0000 H   0  0  0  0  0  0  0  0  0  0  0  0
    1.1227    3.1673    0.0000 H   0  0  0  0  0  0  0  0  0  0  0  0
    1.7426    2.5473    0.0000 H   0  0  0  0  0  0  0  0  0  0  0  0
    2.3627    3.1673    0.0000 H   0  0  0  0  0  0  0  0  0  0  0  0
    3.9748    0.0000    0.0000 H   0  0  0  0  0  0  0  0  0  0  0  0
  1 41  1  0  0  0  0
  2 12  1  0  0  0  0
  2 21  1  0  0  0  0
  2 37  1  0  0  0  0
  3  4  1  0  0  0  0
  3  5  1  0  0  0  0
  3  8  2  0  0  0  0
  4  7  1  0  0  0  0
  4 14  2  0  0  0  0
  5  6  1  0  0  0  0
  5 13  2  0  0  0  0
  6 10  1  0  0  0  0
  6 15  2  0  0  0  0
  7 11  1  0  0  0  0
  7 16  2  0  0  0  0
  8  9  1  0  0  0  0
  8 22  1  0  0  0  0
  9 12  1  0  0  0  0
  9 23  1  0  0  0  0
  9 24  1  0  0  0  0
 10 11  2  0  0  0  0
 10 25  1  0  0  0  0
 11 26  1  0  0  0  0
 12 27  1  0  0  0  0
 12 28  1  0  0  0  0
 13 17  1  0  0  0  0
 13 29  1  0  0  0  0
 14 18  1  0  0  0  0
 14 30  1  0  0  0  0
 15 20  1  0  0  0  0
 15 31  1  0  0  0  0
 16 19  1  0  0  0  0
 16 32  1  0  0  0  0
 17 20  2  0  0  0  0
 17 34  1  0  0  0  0
 18 19  2  0  0  0  0
 18 33  1  0  0  0  0
 19 35  1  0  0  0  0
 20 36  1  0  0  0  0
 21 38  1  0  0  0  0
 21 39  1  0  0  0  0
 21 40  1  0  0  0  0
M  END
> <PUBCHEM_COMPOUND_CID>
9917

> <PUBCHEM_COMPOUND_CANONICALIZED>
1

> <PUBCHEM_CACTVS_COMPLEXITY>
340

> <PUBCHEM_CACTVS_HBOND_ACCEPTOR>
1

> <PUBCHEM_CACTVS_HBOND_DONOR>
2

> <PUBCHEM_CACTVS_ROTATABLE_BOND>
3

> <PUBCHEM_CACTVS_SUBSKEYS>
AAADceB6AAAEAAAAAAAAAAAAAAAAAAAAAAAwYAAABAAAAAABQAAAHAAQAAAADADBGAQyAILAAACAAiBCAAACAAAgAAAIiIAIAIgIICKAERCEIAAgkAAIiAcAgMAOgAAAAAAQAAAAAAAAACAAAAAAAAAAAA==

> <PUBCHEM_IUPAC_OPENEYE_NAME>
3-(dibenzo[1,2-a:1',2'-e][7]annulen-11-ylidene)-N-methyl-propan-1-amine hydrochloride

> <PUBCHEM_IUPAC_CAS_NAME>
3-(11-dibenzo[1,2-a:1',2'-e][7]annulenylidene)-N-methyl-1-propanamine hydrochloride

> <PUBCHEM_IUPAC_NAME>
3-(dibenzo[1,2-a:1',2'-e][7]annulen-11-ylidene)-N-methylpropan-1-amine hydrochloride

> <PUBCHEM_IUPAC_SYSTEMATIC_NAME>
3-(dibenzo[1,2-a:1',2'-e][7]annulen-11-ylidene)-N-methyl-propan-1-amine hydrochloride

> <PUBCHEM_IUPAC_TRADITIONAL_NAME>
3-(dibenzo[1,2-a:1',2'-e]cyclohepten-11-ylidene)propyl-methyl-amine hydrochloride

> <PUBCHEM_IUPAC_INCHI>
InChI=1S/C19H19N.ClH/c1-20-14-6-11-19-17-9-4-2-7-15(17)12-13-16-8-3-5-10-18(16)19;/h2-5,7-13,20H,6,14H2,1H3;1H

> <PUBCHEM_IUPAC_INCHIKEY>
UZMPCPFDZYTEJG-UHFFFAOYSA-N

> <PUBCHEM_EXACT_MASS>
297.128427

> <PUBCHEM_MOLECULAR_FORMULA>
C19H20ClN

> <PUBCHEM_MOLECULAR_WEIGHT>
297.8218

> <PUBCHEM_OPENEYE_CAN_SMILES>
CNCCC=C1C2=CC=CC=C2C=CC3=CC=CC=C31.Cl

> <PUBCHEM_OPENEYE_ISO_SMILES>
CNCCC=C1C2=CC=CC=C2C=CC3=CC=CC=C31.Cl

> <PUBCHEM_CACTVS_TPSA>
12

> <PUBCHEM_MONOISOTOPIC_WEIGHT>
297.128427

> <PUBCHEM_TOTAL_CHARGE>
0

> <PUBCHEM_HEAVY_ATOM_COUNT>
21

> <PUBCHEM_ATOM_DEF_STEREO_COUNT>
0

> <PUBCHEM_ATOM_UDEF_STEREO_COUNT>
0

> <PUBCHEM_BOND_DEF_STEREO_COUNT>
0

> <PUBCHEM_BOND_UDEF_STEREO_COUNT>
0

> <PUBCHEM_ISOTOPIC_ATOM_COUNT>
0

> <PUBCHEM_COMPONENT_COUNT>
2

> <PUBCHEM_CACTVS_TAUTO_COUNT>
1

> <PUBCHEM_COORDINATE_TYPE>
1
5
255

> <PUBCHEM_BONDANNOTATIONS>
13  17  8
14  18  8
15  20  8
16  19  8
17  20  8
18  19  8
4  14  8
4  7  8
5  13  8
5  6  8
6  15  8
7  16  8

$$$$

