5749
  -OEChem-06261200512D

 59 60  0     1  0  0  0  0  0999 V2000
    2.3100    0.1160    0.0000 O   0  0  0  0  0  0  0  0  0  0  0  0
    4.8100   -0.7500    0.0000 O   0  0  0  0  0  0  0  0  0  0  0  0
    4.8100    0.9821    0.0000 O   0  0  0  0  0  0  0  0  0  0  0  0
    7.3100   -1.6160    0.0000 N   0  3  0  0  0  0  0  0  0  0  0  0
    3.3100   -0.8840    0.0000 C   0  0  0  0  0  0  0  0  0  0  0  0
    2.4440   -1.3840    0.0000 C   0  0  0  0  0  0  0  0  0  0  0  0
    4.1760   -1.3840    0.0000 C   0  0  0  0  0  0  0  0  0  0  0  0
    3.3100    0.1160    0.0000 C   0  0  3  0  0  0  0  0  0  0  0  0
    4.1760   -2.3840    0.0000 C   0  0  0  0  0  0  0  0  0  0  0  0
    2.4440   -2.3840    0.0000 C   0  0  0  0  0  0  0  0  0  0  0  0
    3.3100   -2.8840    0.0000 C   0  0  0  0  0  0  0  0  0  0  0  0
    3.3100    1.1160    0.0000 C   0  0  0  0  0  0  0  0  0  0  0  0
    6.3100   -1.6160    0.0000 C   0  0  0  0  0  0  0  0  0  0  0  0
    4.3100    0.1160    0.0000 C   0  0  0  0  0  0  0  0  0  0  0  0
    8.3100   -1.6160    0.0000 C   0  0  0  0  0  0  0  0  0  0  0  0
    7.3100   -2.6160    0.0000 C   0  0  0  0  0  0  0  0  0  0  0  0
    5.8100   -0.7500    0.0000 C   0  0  0  0  0  0  0  0  0  0  0  0
    7.3100   -0.6160    0.0000 C   0  0  0  0  0  0  0  0  0  0  0  0
    4.1760    1.6160    0.0000 C   0  0  0  0  0  0  0  0  0  0  0  0
    2.4440    1.6160    0.0000 C   0  0  0  0  0  0  0  0  0  0  0  0
    8.8100   -2.4820    0.0000 C   0  0  0  0  0  0  0  0  0  0  0  0
    6.4440   -3.1160    0.0000 C   0  0  0  0  0  0  0  0  0  0  0  0
    4.1760    2.6160    0.0000 C   0  0  0  0  0  0  0  0  0  0  0  0
    2.4440    2.6160    0.0000 C   0  0  0  0  0  0  0  0  0  0  0  0
    3.3100    3.1160    0.0000 C   0  0  0  0  0  0  0  0  0  0  0  0
    3.8469   -0.5740    0.0000 H   0  0  0  0  0  0  0  0  0  0  0  0
    4.7866   -1.4916    0.0000 H   0  0  0  0  0  0  0  0  0  0  0  0
    4.3881   -0.8014    0.0000 H   0  0  0  0  0  0  0  0  0  0  0  0
    2.2319   -0.8014    0.0000 H   0  0  0  0  0  0  0  0  0  0  0  0
    1.8334   -1.4916    0.0000 H   0  0  0  0  0  0  0  0  0  0  0  0
    4.3881   -2.9666    0.0000 H   0  0  0  0  0  0  0  0  0  0  0  0
    4.7866   -2.2763    0.0000 H   0  0  0  0  0  0  0  0  0  0  0  0
    1.8334   -2.2763    0.0000 H   0  0  0  0  0  0  0  0  0  0  0  0
    2.2319   -2.9666    0.0000 H   0  0  0  0  0  0  0  0  0  0  0  0
    2.9115   -3.3589    0.0000 H   0  0  0  0  0  0  0  0  0  0  0  0
    3.7085   -3.3589    0.0000 H   0  0  0  0  0  0  0  0  0  0  0  0
    5.7274   -1.8281    0.0000 H   0  0  0  0  0  0  0  0  0  0  0  0
    6.4177   -2.2266    0.0000 H   0  0  0  0  0  0  0  0  0  0  0  0
    8.8926   -1.4040    0.0000 H   0  0  0  0  0  0  0  0  0  0  0  0
    8.2023   -1.0054    0.0000 H   0  0  0  0  0  0  0  0  0  0  0  0
    7.5220   -3.1986    0.0000 H   0  0  0  0  0  0  0  0  0  0  0  0
    7.9206   -2.5084    0.0000 H   0  0  0  0  0  0  0  0  0  0  0  0
    6.3926   -0.5379    0.0000 H   0  0  0  0  0  0  0  0  0  0  0  0
    5.7023   -0.1394    0.0000 H   0  0  0  0  0  0  0  0  0  0  0  0
    7.9300   -0.6160    0.0000 H   0  0  0  0  0  0  0  0  0  0  0  0
    7.3100    0.0040    0.0000 H   0  0  0  0  0  0  0  0  0  0  0  0
    6.6900   -0.6160    0.0000 H   0  0  0  0  0  0  0  0  0  0  0  0
    2.0000    0.6530    0.0000 H   0  0  0  0  0  0  0  0  0  0  0  0
    4.7130    1.3060    0.0000 H   0  0  0  0  0  0  0  0  0  0  0  0
    1.9070    1.3060    0.0000 H   0  0  0  0  0  0  0  0  0  0  0  0
    6.1340   -2.5791    0.0000 H   0  0  0  0  0  0  0  0  0  0  0  0
    5.9070   -3.4260    0.0000 H   0  0  0  0  0  0  0  0  0  0  0  0
    6.7540   -3.6530    0.0000 H   0  0  0  0  0  0  0  0  0  0  0  0
    8.2731   -2.7920    0.0000 H   0  0  0  0  0  0  0  0  0  0  0  0
    9.1200   -3.0190    0.0000 H   0  0  0  0  0  0  0  0  0  0  0  0
    9.3469   -2.1720    0.0000 H   0  0  0  0  0  0  0  0  0  0  0  0
    4.7130    2.9260    0.0000 H   0  0  0  0  0  0  0  0  0  0  0  0
    1.9070    2.9260    0.0000 H   0  0  0  0  0  0  0  0  0  0  0  0
    3.3100    3.7360    0.0000 H   0  0  0  0  0  0  0  0  0  0  0  0
  1  8  1  0  0  0  0
  1 48  1  0  0  0  0
  2 14  1  0  0  0  0
  2 17  1  0  0  0  0
  3 14  2  0  0  0  0
  4 13  1  0  0  0  0
  4 15  1  0  0  0  0
  4 16  1  0  0  0  0
  4 18  1  0  0  0  0
  5  6  1  0  0  0  0
  5  7  1  0  0  0  0
  5  8  1  0  0  0  0
  5 26  1  0  0  0  0
  6 10  1  0  0  0  0
  6 29  1  0  0  0  0
  6 30  1  0  0  0  0
  7  9  1  0  0  0  0
  7 27  1  0  0  0  0
  7 28  1  0  0  0  0
  8 12  1  0  0  0  0
  8 14  1  0  0  0  0
  9 11  1  0  0  0  0
  9 31  1  0  0  0  0
  9 32  1  0  0  0  0
 10 11  1  0  0  0  0
 10 33  1  0  0  0  0
 10 34  1  0  0  0  0
 11 35  1  0  0  0  0
 11 36  1  0  0  0  0
 12 19  2  0  0  0  0
 12 20  1  0  0  0  0
 13 17  1  0  0  0  0
 13 37  1  0  0  0  0
 13 38  1  0  0  0  0
 15 21  1  0  0  0  0
 15 39  1  0  0  0  0
 15 40  1  0  0  0  0
 16 22  1  0  0  0  0
 16 41  1  0  0  0  0
 16 42  1  0  0  0  0
 17 43  1  0  0  0  0
 17 44  1  0  0  0  0
 18 45  1  0  0  0  0
 18 46  1  0  0  0  0
 18 47  1  0  0  0  0
 19 23  1  0  0  0  0
 19 49  1  0  0  0  0
 20 24  2  0  0  0  0
 20 50  1  0  0  0  0
 21 54  1  0  0  0  0
 21 55  1  0  0  0  0
 21 56  1  0  0  0  0
 22 51  1  0  0  0  0
 22 52  1  0  0  0  0
 22 53  1  0  0  0  0
 23 25  2  0  0  0  0
 23 57  1  0  0  0  0
 24 25  1  0  0  0  0
 24 58  1  0  0  0  0
 25 59  1  0  0  0  0
M  CHG  1   4   1
M  END
> <PUBCHEM_COMPOUND_CID>
5749

> <PUBCHEM_COMPOUND_CANONICALIZED>
1

> <PUBCHEM_CACTVS_COMPLEXITY>
409

> <PUBCHEM_CACTVS_HBOND_ACCEPTOR>
3

> <PUBCHEM_CACTVS_HBOND_DONOR>
1

> <PUBCHEM_CACTVS_ROTATABLE_BOND>
9

> <PUBCHEM_CACTVS_SUBSKEYS>
AAADcfB6MAAAAAAAAAAAAAAAAAAAAAAAAAAwYAAAAAAAAAABAAAAHgAACAAADUThmAYyCIMABgCIAiDSCAICAAAgAAAIiAFICIgLJjKAFRCDcAAkwAGbmAeIyOCOgAAAAAAAAAAAAAAAAAAAAAAAAAAAAA==

> <PUBCHEM_IUPAC_OPENEYE_NAME>
2-(2-cyclohexyl-2-hydroxy-2-phenyl-acetyl)oxyethyl-diethyl-methyl-ammonium

> <PUBCHEM_IUPAC_CAS_NAME>
2-(2-cyclohexyl-2-hydroxy-1-oxo-2-phenylethoxy)ethyl-diethyl-methylammonium

> <PUBCHEM_IUPAC_NAME>
2-(2-cyclohexyl-2-hydroxy-2-phenylacetyl)oxyethyl-diethyl-methylazanium

> <PUBCHEM_IUPAC_SYSTEMATIC_NAME>
2-(2-cyclohexyl-2-oxidanyl-2-phenyl-ethanoyl)oxyethyl-diethyl-methyl-azanium

> <PUBCHEM_IUPAC_TRADITIONAL_NAME>
2-(2-cyclohexyl-2-hydroxy-2-phenyl-acetyl)oxyethyl-diethyl-methyl-ammonium

> <PUBCHEM_IUPAC_INCHI>
InChI=1S/C21H34NO3/c1-4-22(3,5-2)16-17-25-20(23)21(24,18-12-8-6-9-13-18)19-14-10-7-11-15-19/h6,8-9,12-13,19,24H,4-5,7,10-11,14-17H2,1-3H3/q+1

> <PUBCHEM_IUPAC_INCHIKEY>
GFRUPHOKLBPHTQ-UHFFFAOYSA-N

> <PUBCHEM_XLOGP3_AA>
4.1

> <PUBCHEM_EXACT_MASS>
348.253869

> <PUBCHEM_MOLECULAR_FORMULA>
C21H34NO3+

> <PUBCHEM_MOLECULAR_WEIGHT>
348.49956

> <PUBCHEM_OPENEYE_CAN_SMILES>
CC[N+](C)(CC)CCOC(=O)C(C1CCCCC1)(C2=CC=CC=C2)O

> <PUBCHEM_OPENEYE_ISO_SMILES>
CC[N+](C)(CC)CCOC(=O)C(C1CCCCC1)(C2=CC=CC=C2)O

> <PUBCHEM_CACTVS_TPSA>
46.5

> <PUBCHEM_MONOISOTOPIC_WEIGHT>
348.253869

> <PUBCHEM_TOTAL_CHARGE>
1

> <PUBCHEM_HEAVY_ATOM_COUNT>
25

> <PUBCHEM_ATOM_DEF_STEREO_COUNT>
0

> <PUBCHEM_ATOM_UDEF_STEREO_COUNT>
1

> <PUBCHEM_BOND_DEF_STEREO_COUNT>
0

> <PUBCHEM_BOND_UDEF_STEREO_COUNT>
0

> <PUBCHEM_ISOTOPIC_ATOM_COUNT>
0

> <PUBCHEM_COMPONENT_COUNT>
1

> <PUBCHEM_CACTVS_TAUTO_COUNT>
1

> <PUBCHEM_COORDINATE_TYPE>
1
5
255

> <PUBCHEM_BONDANNOTATIONS>
8  1  3
12  19  8
12  20  8
19  23  8
20  24  8
23  25  8
24  25  8

$$$$

