17395847
  -OEChem-06241222522D

 51 53  0     1  0  0  0  0  0999 V2000
    3.2320    4.0194    0.0000 S   0  0  0  0  0  0  0  0  0  0  0  0
    3.2320    5.0194    0.0000 O   0  0  0  0  0  0  0  0  0  0  0  0
    2.2810    4.3284    0.0000 O   0  0  0  0  0  0  0  0  0  0  0  0
    2.0000    1.4806    0.0000 O   0  0  0  0  0  0  0  0  0  0  0  0
    3.7320    1.4806    0.0000 N   0  0  0  0  0  0  0  0  0  0  0  0
    3.7320    2.4806    0.0000 C   0  0  3  0  0  0  0  0  0  0  0  0
    2.9230    3.0684    0.0000 C   0  0  0  0  0  0  0  0  0  0  0  0
    4.5411    3.0684    0.0000 C   0  0  0  0  0  0  0  0  0  0  0  0
    4.2320    4.0194    0.0000 C   0  0  0  0  0  0  0  0  0  0  0  0
    4.5981    0.9806    0.0000 C   0  0  0  0  0  0  0  0  0  0  0  0
    5.4641    1.4806    0.0000 C   0  0  0  0  0  0  0  0  0  0  0  0
    2.8660    0.9806    0.0000 C   0  0  0  0  0  0  0  0  0  0  0  0
    6.3301    0.9806    0.0000 C   0  0  0  0  0  0  0  0  0  0  0  0
    5.4641    2.4806    0.0000 C   0  0  0  0  0  0  0  0  0  0  0  0
    2.8660   -0.0194    0.0000 C   0  0  0  0  0  0  0  0  0  0  0  0
    2.0000   -0.5194    0.0000 C   0  0  0  0  0  0  0  0  0  0  0  0
    3.7320   -0.5194    0.0000 C   0  0  0  0  0  0  0  0  0  0  0  0
    2.0000   -1.5194    0.0000 C   0  0  0  0  0  0  0  0  0  0  0  0
    3.7320   -1.5194    0.0000 C   0  0  0  0  0  0  0  0  0  0  0  0
    2.8660   -2.0194    0.0000 C   0  0  0  0  0  0  0  0  0  0  0  0
    2.8660   -3.0194    0.0000 C   0  0  0  0  0  0  0  0  0  0  0  0
    2.0000   -3.5194    0.0000 C   0  0  0  0  0  0  0  0  0  0  0  0
    3.7320   -3.5194    0.0000 C   0  0  0  0  0  0  0  0  0  0  0  0
    2.0000   -4.5194    0.0000 C   0  0  0  0  0  0  0  0  0  0  0  0
    3.7320   -4.5194    0.0000 C   0  0  0  0  0  0  0  0  0  0  0  0
    2.8660   -5.0194    0.0000 C   0  0  0  0  0  0  0  0  0  0  0  0
    4.2845    2.1991    0.0000 H   0  0  0  0  0  0  0  0  0  0  0  0
    2.3566    3.3205    0.0000 H   0  0  0  0  0  0  0  0  0  0  0  0
    2.6130    2.5314    0.0000 H   0  0  0  0  0  0  0  0  0  0  0  0
    4.8511    2.5314    0.0000 H   0  0  0  0  0  0  0  0  0  0  0  0
    5.1075    3.3205    0.0000 H   0  0  0  0  0  0  0  0  0  0  0  0
    4.8385    4.1483    0.0000 H   0  0  0  0  0  0  0  0  0  0  0  0
    4.1672    4.6360    0.0000 H   0  0  0  0  0  0  0  0  0  0  0  0
    4.1996    0.5056    0.0000 H   0  0  0  0  0  0  0  0  0  0  0  0
    4.9966    0.5056    0.0000 H   0  0  0  0  0  0  0  0  0  0  0  0
    5.4641    0.8606    0.0000 H   0  0  0  0  0  0  0  0  0  0  0  0
    6.0201    0.4436    0.0000 H   0  0  0  0  0  0  0  0  0  0  0  0
    6.0841    2.4806    0.0000 H   0  0  0  0  0  0  0  0  0  0  0  0
    6.8671    0.6706    0.0000 H   0  0  0  0  0  0  0  0  0  0  0  0
    6.6401    1.5175    0.0000 H   0  0  0  0  0  0  0  0  0  0  0  0
    5.4641    3.1006    0.0000 H   0  0  0  0  0  0  0  0  0  0  0  0
    4.8441    2.4806    0.0000 H   0  0  0  0  0  0  0  0  0  0  0  0
    1.4631   -0.2094    0.0000 H   0  0  0  0  0  0  0  0  0  0  0  0
    4.2690   -0.2094    0.0000 H   0  0  0  0  0  0  0  0  0  0  0  0
    1.4631   -1.8294    0.0000 H   0  0  0  0  0  0  0  0  0  0  0  0
    4.2690   -1.8294    0.0000 H   0  0  0  0  0  0  0  0  0  0  0  0
    1.4631   -3.2094    0.0000 H   0  0  0  0  0  0  0  0  0  0  0  0
    4.2690   -3.2094    0.0000 H   0  0  0  0  0  0  0  0  0  0  0  0
    1.4631   -4.8294    0.0000 H   0  0  0  0  0  0  0  0  0  0  0  0
    4.2690   -4.8294    0.0000 H   0  0  0  0  0  0  0  0  0  0  0  0
    2.8660   -5.6394    0.0000 H   0  0  0  0  0  0  0  0  0  0  0  0
  1  2  2  0  0  0  0
  1  3  2  0  0  0  0
  1  7  1  0  0  0  0
  1  9  1  0  0  0  0
  4 12  2  0  0  0  0
  5  6  1  0  0  0  0
  5 10  1  0  0  0  0
  5 12  1  0  0  0  0
  6  7  1  0  0  0  0
  6  8  1  0  0  0  0
  6 27  1  0  0  0  0
  7 28  1  0  0  0  0
  7 29  1  0  0  0  0
  8  9  1  0  0  0  0
  8 30  1  0  0  0  0
  8 31  1  0  0  0  0
  9 32  1  0  0  0  0
  9 33  1  0  0  0  0
 10 11  1  0  0  0  0
 10 34  1  0  0  0  0
 10 35  1  0  0  0  0
 11 13  1  0  0  0  0
 11 14  1  0  0  0  0
 11 36  1  0  0  0  0
 12 15  1  0  0  0  0
 13 37  1  0  0  0  0
 13 39  1  0  0  0  0
 13 40  1  0  0  0  0
 14 38  1  0  0  0  0
 14 41  1  0  0  0  0
 14 42  1  0  0  0  0
 15 16  2  0  0  0  0
 15 17  1  0  0  0  0
 16 18  1  0  0  0  0
 16 43  1  0  0  0  0
 17 19  2  0  0  0  0
 17 44  1  0  0  0  0
 18 20  2  0  0  0  0
 18 45  1  0  0  0  0
 19 20  1  0  0  0  0
 19 46  1  0  0  0  0
 20 21  1  0  0  0  0
 21 22  2  0  0  0  0
 21 23  1  0  0  0  0
 22 24  1  0  0  0  0
 22 47  1  0  0  0  0
 23 25  2  0  0  0  0
 23 48  1  0  0  0  0
 24 26  2  0  0  0  0
 24 49  1  0  0  0  0
 25 26  1  0  0  0  0
 25 50  1  0  0  0  0
 26 51  1  0  0  0  0
M  END
> <PUBCHEM_COMPOUND_CID>
17395847

> <PUBCHEM_COMPOUND_CANONICALIZED>
1

> <PUBCHEM_CACTVS_COMPLEXITY>
567

> <PUBCHEM_CACTVS_HBOND_ACCEPTOR>
3

> <PUBCHEM_CACTVS_HBOND_DONOR>
0

> <PUBCHEM_CACTVS_ROTATABLE_BOND>
5

> <PUBCHEM_CACTVS_SUBSKEYS>
AAADceB6MABAAAAAAAAAAAAAAAAAASAAAAAwYAAAAAAAAAABQAAAHgQAAAAADSjF2ASyAIMAAAqIAiFSEHDCAAAkABAIiAEIBMgIIDKglRGEIQhghgCoiYcYiMCOwAAAAAAAAACAAAAAAAAAAAAAAAAAAA==

> <PUBCHEM_IUPAC_OPENEYE_NAME>
N-(1,1-dioxothiolan-3-yl)-N-isobutyl-4-phenyl-benzamide

> <PUBCHEM_IUPAC_CAS_NAME>
N-(1,1-dioxo-3-thiolanyl)-N-(2-methylpropyl)-4-phenylbenzamide

> <PUBCHEM_IUPAC_NAME>
N-(1,1-dioxothiolan-3-yl)-N-(2-methylpropyl)-4-phenylbenzamide

> <PUBCHEM_IUPAC_SYSTEMATIC_NAME>
N-[1,1-bis(oxidanylidene)thiolan-3-yl]-N-(2-methylpropyl)-4-phenyl-benzamide

> <PUBCHEM_IUPAC_TRADITIONAL_NAME>
N-(1,1-diketothiolan-3-yl)-N-isobutyl-4-phenyl-benzamide

> <PUBCHEM_IUPAC_INCHI>
InChI=1S/C21H25NO3S/c1-16(2)14-22(20-12-13-26(24,25)15-20)21(23)19-10-8-18(9-11-19)17-6-4-3-5-7-17/h3-11,16,20H,12-15H2,1-2H3

> <PUBCHEM_IUPAC_INCHIKEY>
OGCQNKMOYIAPAW-UHFFFAOYSA-N

> <PUBCHEM_XLOGP3_AA>
3.9

> <PUBCHEM_EXACT_MASS>
371.155515

> <PUBCHEM_MOLECULAR_FORMULA>
C21H25NO3S

> <PUBCHEM_MOLECULAR_WEIGHT>
371.4931

> <PUBCHEM_OPENEYE_CAN_SMILES>
CC(C)CN(C1CCS(=O)(=O)C1)C(=O)C2=CC=C(C=C2)C3=CC=CC=C3

> <PUBCHEM_OPENEYE_ISO_SMILES>
CC(C)CN(C1CCS(=O)(=O)C1)C(=O)C2=CC=C(C=C2)C3=CC=CC=C3

> <PUBCHEM_CACTVS_TPSA>
62.8

> <PUBCHEM_MONOISOTOPIC_WEIGHT>
371.155515

> <PUBCHEM_TOTAL_CHARGE>
0

> <PUBCHEM_HEAVY_ATOM_COUNT>
26

> <PUBCHEM_ATOM_DEF_STEREO_COUNT>
0

> <PUBCHEM_ATOM_UDEF_STEREO_COUNT>
1

> <PUBCHEM_BOND_DEF_STEREO_COUNT>
0

> <PUBCHEM_BOND_UDEF_STEREO_COUNT>
0

> <PUBCHEM_ISOTOPIC_ATOM_COUNT>
0

> <PUBCHEM_COMPONENT_COUNT>
1

> <PUBCHEM_CACTVS_TAUTO_COUNT>
1

> <PUBCHEM_COORDINATE_TYPE>
1
5
255

> <PUBCHEM_BONDANNOTATIONS>
15  16  8
15  17  8
16  18  8
17  19  8
18  20  8
19  20  8
21  22  8
21  23  8
22  24  8
23  25  8
24  26  8
25  26  8
6  5  3

$$$$

