3313
  -OEChem-06251223202D

 46 47  0     1  0  0  0  0  0999 V2000
    5.5981   -0.7500    0.0000 O   0  0  0  0  0  0  0  0  0  0  0  0
    4.7320    0.7500    0.0000 O   0  0  0  0  0  0  0  0  0  0  0  0
    7.3301    0.2500    0.0000 O   0  0  0  0  0  0  0  0  0  0  0  0
    3.8660   -2.7500    0.0000 N   0  0  3  0  0  0  0  0  0  0  0  0
    3.0000   -2.2500    0.0000 C   0  0  0  0  0  0  0  0  0  0  0  0
    4.7320   -2.2500    0.0000 C   0  0  3  0  0  0  0  0  0  0  0  0
    3.0000   -1.2500    0.0000 C   0  0  0  0  0  0  0  0  0  0  0  0
    4.7320   -1.2500    0.0000 C   0  0  3  0  0  0  0  0  0  0  0  0
    3.8660   -0.7500    0.0000 C   0  0  0  0  0  0  0  0  0  0  0  0
    2.0000   -2.2500    0.0000 C   0  0  0  0  0  0  0  0  0  0  0  0
    2.5000   -3.1160    0.0000 C   0  0  0  0  0  0  0  0  0  0  0  0
    5.5981   -2.7500    0.0000 C   0  0  0  0  0  0  0  0  0  0  0  0
    3.8660   -3.7500    0.0000 C   0  0  0  0  0  0  0  0  0  0  0  0
    5.5981    0.2500    0.0000 C   0  0  0  0  0  0  0  0  0  0  0  0
    6.4641    0.7500    0.0000 C   0  0  3  0  0  0  0  0  0  0  0  0
    6.4641    1.7500    0.0000 C   0  0  0  0  0  0  0  0  0  0  0  0
    7.3301    2.2500    0.0000 C   0  0  0  0  0  0  0  0  0  0  0  0
    5.5981    2.2500    0.0000 C   0  0  0  0  0  0  0  0  0  0  0  0
    7.3301    3.2500    0.0000 C   0  0  0  0  0  0  0  0  0  0  0  0
    5.5981    3.2500    0.0000 C   0  0  0  0  0  0  0  0  0  0  0  0
    6.4641    3.7500    0.0000 C   0  0  0  0  0  0  0  0  0  0  0  0
    4.7320   -3.1000    0.0000 H   0  0  0  0  0  0  0  0  0  0  0  0
    2.7880   -0.6674    0.0000 H   0  0  0  0  0  0  0  0  0  0  0  0
    2.3894   -1.3577    0.0000 H   0  0  0  0  0  0  0  0  0  0  0  0
    4.7320   -0.4000    0.0000 H   0  0  0  0  0  0  0  0  0  0  0  0
    4.2646   -0.2751    0.0000 H   0  0  0  0  0  0  0  0  0  0  0  0
    3.4675   -0.2751    0.0000 H   0  0  0  0  0  0  0  0  0  0  0  0
    2.0000   -1.6300    0.0000 H   0  0  0  0  0  0  0  0  0  0  0  0
    1.3800   -2.2500    0.0000 H   0  0  0  0  0  0  0  0  0  0  0  0
    2.0000   -2.8700    0.0000 H   0  0  0  0  0  0  0  0  0  0  0  0
    1.9631   -2.8060    0.0000 H   0  0  0  0  0  0  0  0  0  0  0  0
    2.1900   -3.6530    0.0000 H   0  0  0  0  0  0  0  0  0  0  0  0
    3.0369   -3.4260    0.0000 H   0  0  0  0  0  0  0  0  0  0  0  0
    5.2881   -3.2869    0.0000 H   0  0  0  0  0  0  0  0  0  0  0  0
    6.1350   -3.0600    0.0000 H   0  0  0  0  0  0  0  0  0  0  0  0
    5.9081   -2.2131    0.0000 H   0  0  0  0  0  0  0  0  0  0  0  0
    3.2460   -3.7500    0.0000 H   0  0  0  0  0  0  0  0  0  0  0  0
    3.8660   -4.3700    0.0000 H   0  0  0  0  0  0  0  0  0  0  0  0
    4.4860   -3.7500    0.0000 H   0  0  0  0  0  0  0  0  0  0  0  0
    6.4641   -0.1000    0.0000 H   0  0  0  0  0  0  0  0  0  0  0  0
    7.8671    0.5600    0.0000 H   0  0  0  0  0  0  0  0  0  0  0  0
    7.8671    1.9400    0.0000 H   0  0  0  0  0  0  0  0  0  0  0  0
    5.0611    1.9400    0.0000 H   0  0  0  0  0  0  0  0  0  0  0  0
    7.8671    3.5600    0.0000 H   0  0  0  0  0  0  0  0  0  0  0  0
    5.0611    3.5600    0.0000 H   0  0  0  0  0  0  0  0  0  0  0  0
    6.4641    4.3700    0.0000 H   0  0  0  0  0  0  0  0  0  0  0  0
  1  8  1  0  0  0  0
  1 14  1  0  0  0  0
  2 14  2  0  0  0  0
  3 15  1  0  0  0  0
  3 41  1  0  0  0  0
  4  5  1  0  0  0  0
  4  6  1  0  0  0  0
  4 13  1  0  0  0  0
  5  7  1  0  0  0  0
  5 10  1  0  0  0  0
  5 11  1  0  0  0  0
  6  8  1  0  0  0  0
  6 12  1  0  0  0  0
  6 22  1  0  0  0  0
  7  9  1  0  0  0  0
  7 23  1  0  0  0  0
  7 24  1  0  0  0  0
  8  9  1  0  0  0  0
  8 25  1  0  0  0  0
  9 26  1  0  0  0  0
  9 27  1  0  0  0  0
 10 28  1  0  0  0  0
 10 29  1  0  0  0  0
 10 30  1  0  0  0  0
 11 31  1  0  0  0  0
 11 32  1  0  0  0  0
 11 33  1  0  0  0  0
 12 34  1  0  0  0  0
 12 35  1  0  0  0  0
 12 36  1  0  0  0  0
 13 37  1  0  0  0  0
 13 38  1  0  0  0  0
 13 39  1  0  0  0  0
 14 15  1  0  0  0  0
 15 16  1  0  0  0  0
 15 40  1  0  0  0  0
 16 17  2  0  0  0  0
 16 18  1  0  0  0  0
 17 19  1  0  0  0  0
 17 42  1  0  0  0  0
 18 20  2  0  0  0  0
 18 43  1  0  0  0  0
 19 21  2  0  0  0  0
 19 44  1  0  0  0  0
 20 21  1  0  0  0  0
 20 45  1  0  0  0  0
 21 46  1  0  0  0  0
M  END
> <PUBCHEM_COMPOUND_CID>
3313

> <PUBCHEM_COMPOUND_CANONICALIZED>
1

> <PUBCHEM_CACTVS_COMPLEXITY>
363

> <PUBCHEM_CACTVS_HBOND_ACCEPTOR>
4

> <PUBCHEM_CACTVS_HBOND_DONOR>
1

> <PUBCHEM_CACTVS_ROTATABLE_BOND>
4

> <PUBCHEM_CACTVS_SUBSKEYS>
AAADceB6MAAAAAAAAAAAAAAAAAAAAAAAAAA8QAAAAAAAAAABAAAAHgAACAAADLzhmAYyCIMABgCIAiDSCAICAAAgAAAIiAFICIgLNjKAlRCHcAAkwAGbmAe4yOCOAAAAAAAAAAAAAAAAAAAAAAAAAAAAAA==

> <PUBCHEM_IUPAC_OPENEYE_NAME>
(1,2,6,6-tetramethyl-3-piperidyl) 2-hydroxy-2-phenyl-acetate

> <PUBCHEM_IUPAC_CAS_NAME>
2-hydroxy-2-phenylacetic acid (1,2,6,6-tetramethyl-3-piperidinyl) ester

> <PUBCHEM_IUPAC_NAME>
(1,2,6,6-tetramethylpiperidin-3-yl) 2-hydroxy-2-phenylacetate

> <PUBCHEM_IUPAC_SYSTEMATIC_NAME>
(1,2,6,6-tetramethylpiperidin-3-yl) 2-oxidanyl-2-phenyl-ethanoate

> <PUBCHEM_IUPAC_TRADITIONAL_NAME>
2-hydroxy-2-phenyl-acetic acid (1,2,6,6-tetramethyl-3-piperidyl) ester

> <PUBCHEM_IUPAC_INCHI>
InChI=1S/C17H25NO3/c1-12-14(10-11-17(2,3)18(12)4)21-16(20)15(19)13-8-6-5-7-9-13/h5-9,12,14-15,19H,10-11H2,1-4H3

> <PUBCHEM_IUPAC_INCHIKEY>
SXLHPJQSZRLJAE-UHFFFAOYSA-N

> <PUBCHEM_XLOGP3_AA>
2.8

> <PUBCHEM_EXACT_MASS>
291.183444

> <PUBCHEM_MOLECULAR_FORMULA>
C17H25NO3

> <PUBCHEM_MOLECULAR_WEIGHT>
291.3853

> <PUBCHEM_OPENEYE_CAN_SMILES>
CC1C(CCC(N1C)(C)C)OC(=O)C(C2=CC=CC=C2)O

> <PUBCHEM_OPENEYE_ISO_SMILES>
CC1C(CCC(N1C)(C)C)OC(=O)C(C2=CC=CC=C2)O

> <PUBCHEM_CACTVS_TPSA>
49.8

> <PUBCHEM_MONOISOTOPIC_WEIGHT>
291.183444

> <PUBCHEM_TOTAL_CHARGE>
0

> <PUBCHEM_HEAVY_ATOM_COUNT>
21

> <PUBCHEM_ATOM_DEF_STEREO_COUNT>
0

> <PUBCHEM_ATOM_UDEF_STEREO_COUNT>
3

> <PUBCHEM_BOND_DEF_STEREO_COUNT>
0

> <PUBCHEM_BOND_UDEF_STEREO_COUNT>
0

> <PUBCHEM_ISOTOPIC_ATOM_COUNT>
0

> <PUBCHEM_COMPONENT_COUNT>
1

> <PUBCHEM_CACTVS_TAUTO_COUNT>
1

> <PUBCHEM_COORDINATE_TYPE>
1
5
255

> <PUBCHEM_BONDANNOTATIONS>
15  40  3
16  17  8
16  18  8
17  19  8
18  20  8
19  21  8
20  21  8
6  22  3
8  25  3

$$$$

