17396233
  -OEChem-06241222552D

 60 62  0     0  0  0  0  0  0999 V2000
    4.5981    3.1012    0.0000 S   0  0  0  0  0  0  0  0  0  0  0  0
    3.7320   -4.3988    0.0000 O   0  0  0  0  0  0  0  0  0  0  0  0
    5.5981    3.1012    0.0000 O   0  0  0  0  0  0  0  0  0  0  0  0
    3.5981    3.1012    0.0000 O   0  0  0  0  0  0  0  0  0  0  0  0
    2.0000    0.6012    0.0000 O   0  5  0  0  0  0  0  0  0  0  0  0
    2.8660   -0.8988    0.0000 O   0  0  0  0  0  0  0  0  0  0  0  0
    4.5981   -2.8988    0.0000 N   0  0  0  0  0  0  0  0  0  0  0  0
    4.5981   -0.8988    0.0000 N   0  0  0  0  0  0  0  0  0  0  0  0
    4.5981    4.1012    0.0000 N   0  0  0  0  0  0  0  0  0  0  0  0
    2.8660    0.1012    0.0000 N   0  3  0  0  0  0  0  0  0  0  0  0
    5.4641   -4.3988    0.0000 C   0  0  0  0  0  0  0  0  0  0  0  0
    5.5686   -5.3933    0.0000 C   0  0  0  0  0  0  0  0  0  0  0  0
    6.3776   -3.9920    0.0000 C   0  0  0  0  0  0  0  0  0  0  0  0
    6.5468   -5.6012    0.0000 C   0  0  0  0  0  0  0  0  0  0  0  0
    7.0468   -4.7352    0.0000 C   0  0  0  0  0  0  0  0  0  0  0  0
    4.5981   -3.8988    0.0000 C   0  0  0  0  0  0  0  0  0  0  0  0
    5.4641   -2.3988    0.0000 C   0  0  0  0  0  0  0  0  0  0  0  0
    3.7320   -2.3988    0.0000 C   0  0  0  0  0  0  0  0  0  0  0  0
    5.4641   -1.3988    0.0000 C   0  0  0  0  0  0  0  0  0  0  0  0
    3.7320   -1.3988    0.0000 C   0  0  0  0  0  0  0  0  0  0  0  0
    4.5981    0.1012    0.0000 C   0  0  0  0  0  0  0  0  0  0  0  0
    3.7320    0.6012    0.0000 C   0  0  0  0  0  0  0  0  0  0  0  0
    5.4641    0.6012    0.0000 C   0  0  0  0  0  0  0  0  0  0  0  0
    4.5981    2.1012    0.0000 C   0  0  0  0  0  0  0  0  0  0  0  0
    3.7320    1.6012    0.0000 C   0  0  0  0  0  0  0  0  0  0  0  0
    5.4641    1.6012    0.0000 C   0  0  0  0  0  0  0  0  0  0  0  0
    5.4641    4.6012    0.0000 C   0  0  0  0  0  0  0  0  0  0  0  0
    3.7320    4.6012    0.0000 C   0  0  0  0  0  0  0  0  0  0  0  0
    5.4641    5.6012    0.0000 C   0  0  0  0  0  0  0  0  0  0  0  0
    3.7320    5.6012    0.0000 C   0  0  0  0  0  0  0  0  0  0  0  0
    4.9441   -4.7365    0.0000 H   0  0  0  0  0  0  0  0  0  0  0  0
    6.8792   -3.6276    0.0000 H   0  0  0  0  0  0  0  0  0  0  0  0
    6.0677   -3.4551    0.0000 H   0  0  0  0  0  0  0  0  0  0  0  0
    4.9486   -5.3933    0.0000 H   0  0  0  0  0  0  0  0  0  0  0  0
    5.5038   -6.0099    0.0000 H   0  0  0  0  0  0  0  0  0  0  0  0
    7.5484   -5.0996    0.0000 H   0  0  0  0  0  0  0  0  0  0  0  0
    7.4616   -4.2744    0.0000 H   0  0  0  0  0  0  0  0  0  0  0  0
    6.3552   -6.1909    0.0000 H   0  0  0  0  0  0  0  0  0  0  0  0
    7.1132   -5.8534    0.0000 H   0  0  0  0  0  0  0  0  0  0  0  0
    3.1215   -2.2911    0.0000 H   0  0  0  0  0  0  0  0  0  0  0  0
    3.5200   -2.9814    0.0000 H   0  0  0  0  0  0  0  0  0  0  0  0
    5.6762   -2.9814    0.0000 H   0  0  0  0  0  0  0  0  0  0  0  0
    6.0747   -2.2911    0.0000 H   0  0  0  0  0  0  0  0  0  0  0  0
    3.5200   -0.8162    0.0000 H   0  0  0  0  0  0  0  0  0  0  0  0
    3.1215   -1.5064    0.0000 H   0  0  0  0  0  0  0  0  0  0  0  0
    6.0747   -1.5064    0.0000 H   0  0  0  0  0  0  0  0  0  0  0  0
    5.6762   -0.8162    0.0000 H   0  0  0  0  0  0  0  0  0  0  0  0
    6.0010    0.2912    0.0000 H   0  0  0  0  0  0  0  0  0  0  0  0
    3.1951    1.9112    0.0000 H   0  0  0  0  0  0  0  0  0  0  0  0
    6.0010    1.9112    0.0000 H   0  0  0  0  0  0  0  0  0  0  0  0
    5.6762    4.0186    0.0000 H   0  0  0  0  0  0  0  0  0  0  0  0
    6.0747    4.7089    0.0000 H   0  0  0  0  0  0  0  0  0  0  0  0
    3.1215    4.7089    0.0000 H   0  0  0  0  0  0  0  0  0  0  0  0
    3.5200    4.0186    0.0000 H   0  0  0  0  0  0  0  0  0  0  0  0
    6.0841    5.6012    0.0000 H   0  0  0  0  0  0  0  0  0  0  0  0
    5.4641    6.2212    0.0000 H   0  0  0  0  0  0  0  0  0  0  0  0
    4.3520    5.6012    0.0000 H   0  0  0  0  0  0  0  0  0  0  0  0
    3.7320    6.2212    0.0000 H   0  0  0  0  0  0  0  0  0  0  0  0
    3.1120    5.6012    0.0000 H   0  0  0  0  0  0  0  0  0  0  0  0
    4.8441    5.6012    0.0000 H   0  0  0  0  0  0  0  0  0  0  0  0
  1  3  2  0  0  0  0
  1  4  2  0  0  0  0
  1  9  1  0  0  0  0
  1 24  1  0  0  0  0
  2 16  2  0  0  0  0
  5 10  1  0  0  0  0
  6 10  2  0  0  0  0
  7 16  1  0  0  0  0
  7 17  1  0  0  0  0
  7 18  1  0  0  0  0
  8 19  1  0  0  0  0
  8 20  1  0  0  0  0
  8 21  1  0  0  0  0
  9 27  1  0  0  0  0
  9 28  1  0  0  0  0
 10 22  1  0  0  0  0
 11 12  1  0  0  0  0
 11 13  1  0  0  0  0
 11 16  1  0  0  0  0
 11 31  1  0  0  0  0
 12 14  1  0  0  0  0
 12 34  1  0  0  0  0
 12 35  1  0  0  0  0
 13 15  1  0  0  0  0
 13 32  1  0  0  0  0
 13 33  1  0  0  0  0
 14 15  1  0  0  0  0
 14 38  1  0  0  0  0
 14 39  1  0  0  0  0
 15 36  1  0  0  0  0
 15 37  1  0  0  0  0
 17 19  1  0  0  0  0
 17 42  1  0  0  0  0
 17 43  1  0  0  0  0
 18 20  1  0  0  0  0
 18 40  1  0  0  0  0
 18 41  1  0  0  0  0
 19 46  1  0  0  0  0
 19 47  1  0  0  0  0
 20 44  1  0  0  0  0
 20 45  1  0  0  0  0
 21 22  2  0  0  0  0
 21 23  1  0  0  0  0
 22 25  1  0  0  0  0
 23 26  2  0  0  0  0
 23 48  1  0  0  0  0
 24 25  2  0  0  0  0
 24 26  1  0  0  0  0
 25 49  1  0  0  0  0
 26 50  1  0  0  0  0
 27 29  1  0  0  0  0
 27 51  1  0  0  0  0
 27 52  1  0  0  0  0
 28 30  1  0  0  0  0
 28 53  1  0  0  0  0
 28 54  1  0  0  0  0
 29 55  1  0  0  0  0
 29 56  1  0  0  0  0
 29 60  1  0  0  0  0
 30 57  1  0  0  0  0
 30 58  1  0  0  0  0
 30 59  1  0  0  0  0
M  CHG  2   5  -1  10   1
M  END
> <PUBCHEM_COMPOUND_CID>
17396233

> <PUBCHEM_COMPOUND_CANONICALIZED>
1

> <PUBCHEM_CACTVS_COMPLEXITY>
702

> <PUBCHEM_CACTVS_HBOND_ACCEPTOR>
7

> <PUBCHEM_CACTVS_HBOND_DONOR>
0

> <PUBCHEM_CACTVS_ROTATABLE_BOND>
6

> <PUBCHEM_CACTVS_SUBSKEYS>
AAADceB7uABAAAAAAAAAAAAAAAAAAYAAAAA8QAAAAAAAAAABAAAAHgQEQAAADQjB0AQywYMQQAKJACVSU3DCABAhAgAoiBkIdIoIYDLAkZGUIAxghoDIyAcYCAAOAAQAACAAACAACAAAQAAAQAAAAAAAAA==

> <PUBCHEM_IUPAC_OPENEYE_NAME>
4-[4-(cyclopentanecarbonyl)piperazin-1-yl]-N,N-diethyl-3-nitro-benzenesulfonamide

> <PUBCHEM_IUPAC_CAS_NAME>
4-[4-[cyclopentyl(oxo)methyl]-1-piperazinyl]-N,N-diethyl-3-nitrobenzenesulfonamide

> <PUBCHEM_IUPAC_NAME>
4-[4-(cyclopentanecarbonyl)piperazin-1-yl]-N,N-diethyl-3-nitrobenzenesulfonamide

> <PUBCHEM_IUPAC_SYSTEMATIC_NAME>
4-(4-cyclopentylcarbonylpiperazin-1-yl)-N,N-diethyl-3-nitro-benzenesulfonamide

> <PUBCHEM_IUPAC_TRADITIONAL_NAME>
4-[4-(cyclopentanecarbonyl)piperazino]-N,N-diethyl-3-nitro-benzenesulfonamide

> <PUBCHEM_IUPAC_INCHI>
InChI=1S/C20H30N4O5S/c1-3-23(4-2)30(28,29)17-9-10-18(19(15-17)24(26)27)21-11-13-22(14-12-21)20(25)16-7-5-6-8-16/h9-10,15-16H,3-8,11-14H2,1-2H3

> <PUBCHEM_IUPAC_INCHIKEY>
DIODSYDOBKLAPD-UHFFFAOYSA-N

> <PUBCHEM_XLOGP3_AA>
2.6

> <PUBCHEM_EXACT_MASS>
438.193691

> <PUBCHEM_MOLECULAR_FORMULA>
C20H30N4O5S

> <PUBCHEM_MOLECULAR_WEIGHT>
438.541

> <PUBCHEM_OPENEYE_CAN_SMILES>
CCN(CC)S(=O)(=O)C1=CC(=C(C=C1)N2CCN(CC2)C(=O)C3CCCC3)[N+](=O)[O-]

> <PUBCHEM_OPENEYE_ISO_SMILES>
CCN(CC)S(=O)(=O)C1=CC(=C(C=C1)N2CCN(CC2)C(=O)C3CCCC3)[N+](=O)[O-]

> <PUBCHEM_CACTVS_TPSA>
115

> <PUBCHEM_MONOISOTOPIC_WEIGHT>
438.193691

> <PUBCHEM_TOTAL_CHARGE>
0

> <PUBCHEM_HEAVY_ATOM_COUNT>
30

> <PUBCHEM_ATOM_DEF_STEREO_COUNT>
0

> <PUBCHEM_ATOM_UDEF_STEREO_COUNT>
0

> <PUBCHEM_BOND_DEF_STEREO_COUNT>
0

> <PUBCHEM_BOND_UDEF_STEREO_COUNT>
0

> <PUBCHEM_ISOTOPIC_ATOM_COUNT>
0

> <PUBCHEM_COMPONENT_COUNT>
1

> <PUBCHEM_CACTVS_TAUTO_COUNT>
1

> <PUBCHEM_COORDINATE_TYPE>
1
5
255

> <PUBCHEM_BONDANNOTATIONS>
21  22  8
21  23  8
22  25  8
23  26  8
24  25  8
24  26  8

$$$$

