6235
  -OEChem-06261201112D

 30 33  0     0  0  0  0  0  0999 V2000
    6.4641    0.5000    0.0000 O   0  0  0  0  0  0  0  0  0  0  0  0
    3.0000   -1.5000    0.0000 O   0  0  0  0  0  0  0  0  0  0  0  0
    4.7320    1.5000    0.0000 N   0  0  0  0  0  0  0  0  0  0  0  0
    3.0000    0.5000    0.0000 N   0  0  0  0  0  0  0  0  0  0  0  0
    6.4641   -1.5000    0.0000 N   0  0  0  0  0  0  0  0  0  0  0  0
    5.2320    2.3660    0.0000 C   0  0  0  0  0  0  0  0  0  0  0  0
    4.2320    2.3660    0.0000 C   0  0  0  0  0  0  0  0  0  0  0  0
    4.7320    0.5000    0.0000 C   0  0  0  0  0  0  0  0  0  0  0  0
    2.5000    1.3660    0.0000 C   0  0  0  0  0  0  0  0  0  0  0  0
    2.0000    0.5000    0.0000 C   0  0  0  0  0  0  0  0  0  0  0  0
    3.8660    0.0000    0.0000 C   0  0  0  0  0  0  0  0  0  0  0  0
    6.9641   -2.3660    0.0000 C   0  0  0  0  0  0  0  0  0  0  0  0
    7.4641   -1.5000    0.0000 C   0  0  0  0  0  0  0  0  0  0  0  0
    5.5981   -1.0000    0.0000 C   0  0  0  0  0  0  0  0  0  0  0  0
    5.5981    0.0000    0.0000 C   0  0  0  0  0  0  0  0  0  0  0  0
    3.8660   -1.0000    0.0000 C   0  0  0  0  0  0  0  0  0  0  0  0
    4.7320   -1.5000    0.0000 C   0  0  0  0  0  0  0  0  0  0  0  0
    5.8147    2.1540    0.0000 H   0  0  0  0  0  0  0  0  0  0  0  0
    5.3397    2.9766    0.0000 H   0  0  0  0  0  0  0  0  0  0  0  0
    4.1244    2.9766    0.0000 H   0  0  0  0  0  0  0  0  0  0  0  0
    3.6494    2.1540    0.0000 H   0  0  0  0  0  0  0  0  0  0  0  0
    1.4174    0.7121    0.0000 H   0  0  0  0  0  0  0  0  0  0  0  0
    1.8923   -0.1106    0.0000 H   0  0  0  0  0  0  0  0  0  0  0  0
    2.9750    1.7646    0.0000 H   0  0  0  0  0  0  0  0  0  0  0  0
    2.0250    1.7646    0.0000 H   0  0  0  0  0  0  0  0  0  0  0  0
    6.4892   -2.7646    0.0000 H   0  0  0  0  0  0  0  0  0  0  0  0
    7.4390   -2.7646    0.0000 H   0  0  0  0  0  0  0  0  0  0  0  0
    8.0467   -1.7120    0.0000 H   0  0  0  0  0  0  0  0  0  0  0  0
    7.5718   -0.8894    0.0000 H   0  0  0  0  0  0  0  0  0  0  0  0
    4.7320   -2.1200    0.0000 H   0  0  0  0  0  0  0  0  0  0  0  0
  1 15  2  0  0  0  0
  2 16  2  0  0  0  0
  3  6  1  0  0  0  0
  3  7  1  0  0  0  0
  3  8  1  0  0  0  0
  4  9  1  0  0  0  0
  4 10  1  0  0  0  0
  4 11  1  0  0  0  0
  5 12  1  0  0  0  0
  5 13  1  0  0  0  0
  5 14  1  0  0  0  0
  6  7  1  0  0  0  0
  6 18  1  0  0  0  0
  6 19  1  0  0  0  0
  7 20  1  0  0  0  0
  7 21  1  0  0  0  0
  8 11  2  0  0  0  0
  8 15  1  0  0  0  0
  9 10  1  0  0  0  0
  9 24  1  0  0  0  0
  9 25  1  0  0  0  0
 10 22  1  0  0  0  0
 10 23  1  0  0  0  0
 11 16  1  0  0  0  0
 12 13  1  0  0  0  0
 12 26  1  0  0  0  0
 12 27  1  0  0  0  0
 13 28  1  0  0  0  0
 13 29  1  0  0  0  0
 14 15  1  0  0  0  0
 14 17  2  0  0  0  0
 16 17  1  0  0  0  0
 17 30  1  0  0  0  0
M  END
> <PUBCHEM_COMPOUND_CID>
6235

> <PUBCHEM_COMPOUND_CANONICALIZED>
1

> <PUBCHEM_CACTVS_COMPLEXITY>
494

> <PUBCHEM_CACTVS_HBOND_ACCEPTOR>
5

> <PUBCHEM_CACTVS_HBOND_DONOR>
0

> <PUBCHEM_CACTVS_ROTATABLE_BOND>
3

> <PUBCHEM_CACTVS_SUBSKEYS>
AAADccBzMAAAAAAAAAAAAAAAFiwAAAAAAAAgAAAAAAAAAAAAAAAAHgAAAAAACAzBgAQAAAMAAACIAKRSQAAAAAAgAgAACACIAEgAAAAAQCAEAAAAAACIAcIAAAAAAAAAAAAAAAAAAAAAAAAAAAAAAAAAAA==

> <PUBCHEM_IUPAC_OPENEYE_NAME>
2,3,5-tris(aziridin-1-yl)-1,4-benzoquinone

> <PUBCHEM_IUPAC_CAS_NAME>
2,3,5-tris(1-aziridinyl)cyclohexa-2,5-diene-1,4-dione

> <PUBCHEM_IUPAC_NAME>
2,3,5-tris(aziridin-1-yl)cyclohexa-2,5-diene-1,4-dione

> <PUBCHEM_IUPAC_SYSTEMATIC_NAME>
2,3,5-tris(aziridin-1-yl)cyclohexa-2,5-diene-1,4-dione

> <PUBCHEM_IUPAC_TRADITIONAL_NAME>
2,3,5-triethylenimino-p-benzoquinone

> <PUBCHEM_IUPAC_INCHI>
InChI=1S/C12H13N3O2/c16-9-7-8(13-1-2-13)12(17)11(15-5-6-15)10(9)14-3-4-14/h7H,1-6H2

> <PUBCHEM_IUPAC_INCHIKEY>
PXSOHRWMIRDKMP-UHFFFAOYSA-N

> <PUBCHEM_XLOGP3>
-0.1

> <PUBCHEM_EXACT_MASS>
231.100777

> <PUBCHEM_MOLECULAR_FORMULA>
C12H13N3O2

> <PUBCHEM_MOLECULAR_WEIGHT>
231.25052

> <PUBCHEM_OPENEYE_CAN_SMILES>
C1CN1C2=CC(=O)C(=C(C2=O)N3CC3)N4CC4

> <PUBCHEM_OPENEYE_ISO_SMILES>
C1CN1C2=CC(=O)C(=C(C2=O)N3CC3)N4CC4

> <PUBCHEM_CACTVS_TPSA>
43.2

> <PUBCHEM_MONOISOTOPIC_WEIGHT>
231.100777

> <PUBCHEM_TOTAL_CHARGE>
0

> <PUBCHEM_HEAVY_ATOM_COUNT>
17

> <PUBCHEM_ATOM_DEF_STEREO_COUNT>
0

> <PUBCHEM_ATOM_UDEF_STEREO_COUNT>
0

> <PUBCHEM_BOND_DEF_STEREO_COUNT>
0

> <PUBCHEM_BOND_UDEF_STEREO_COUNT>
0

> <PUBCHEM_ISOTOPIC_ATOM_COUNT>
0

> <PUBCHEM_COMPONENT_COUNT>
1

> <PUBCHEM_CACTVS_TAUTO_COUNT>
1

> <PUBCHEM_COORDINATE_TYPE>
1
5
255

$$$$

