17395655
  -OEChem-06241222512D

 43 45  0     1  0  0  0  0  0999 V2000
   11.2619   -2.6097    0.0000 F   0  0  0  0  0  0  0  0  0  0  0  0
    4.9889   -0.9008    0.0000 O   0  0  0  0  0  0  0  0  0  0  0  0
    4.9889    2.6097    0.0000 O   0  0  0  0  0  0  0  0  0  0  0  0
    6.2619   -0.8776    0.0000 O   0  0  0  0  0  0  0  0  0  0  0  0
    5.2619    0.8544    0.0000 N   0  0  0  0  0  0  0  0  0  0  0  0
    7.7619   -0.0116    0.0000 N   0  0  0  0  0  0  0  0  0  0  0  0
    3.7320    1.3544    0.0000 C   0  0  3  0  0  0  0  0  0  0  0  0
    3.7320    0.3544    0.0000 C   0  0  3  0  0  0  0  0  0  0  0  0
    2.8660    1.8544    0.0000 C   0  0  0  0  0  0  0  0  0  0  0  0
    2.8660   -0.1456    0.0000 C   0  0  0  0  0  0  0  0  0  0  0  0
    4.6783    0.0497    0.0000 C   0  0  0  0  0  0  0  0  0  0  0  0
    4.6783    1.6592    0.0000 C   0  0  0  0  0  0  0  0  0  0  0  0
    2.0000    1.3544    0.0000 C   0  0  0  0  0  0  0  0  0  0  0  0
    2.0000    0.3544    0.0000 C   0  0  0  0  0  0  0  0  0  0  0  0
    6.2619    0.8544    0.0000 C   0  0  0  0  0  0  0  0  0  0  0  0
    6.7619   -0.0116    0.0000 C   0  0  0  0  0  0  0  0  0  0  0  0
    8.2619   -0.8776    0.0000 C   0  0  0  0  0  0  0  0  0  0  0  0
    9.2619   -0.8776    0.0000 C   0  0  0  0  0  0  0  0  0  0  0  0
    9.7619   -1.7436    0.0000 C   0  0  0  0  0  0  0  0  0  0  0  0
    9.7619   -0.0116    0.0000 C   0  0  0  0  0  0  0  0  0  0  0  0
   11.2619   -0.8776    0.0000 C   0  0  0  0  0  0  0  0  0  0  0  0
   10.7619   -1.7436    0.0000 C   0  0  0  0  0  0  0  0  0  0  0  0
   10.7619   -0.0116    0.0000 C   0  0  0  0  0  0  0  0  0  0  0  0
   12.2619   -0.8776    0.0000 C   0  0  0  0  0  0  0  0  0  0  0  0
    3.7977    1.9709    0.0000 H   0  0  0  0  0  0  0  0  0  0  0  0
    3.7977   -0.2621    0.0000 H   0  0  0  0  0  0  0  0  0  0  0  0
    3.2646    2.3294    0.0000 H   0  0  0  0  0  0  0  0  0  0  0  0
    2.4675    2.3294    0.0000 H   0  0  0  0  0  0  0  0  0  0  0  0
    2.4675   -0.6205    0.0000 H   0  0  0  0  0  0  0  0  0  0  0  0
    3.2646   -0.6205    0.0000 H   0  0  0  0  0  0  0  0  0  0  0  0
    1.4631    1.6644    0.0000 H   0  0  0  0  0  0  0  0  0  0  0  0
    1.4631    0.0444    0.0000 H   0  0  0  0  0  0  0  0  0  0  0  0
    6.8445    1.0665    0.0000 H   0  0  0  0  0  0  0  0  0  0  0  0
    6.1542    1.4650    0.0000 H   0  0  0  0  0  0  0  0  0  0  0  0
    8.0719    0.5253    0.0000 H   0  0  0  0  0  0  0  0  0  0  0  0
    7.6793   -1.0897    0.0000 H   0  0  0  0  0  0  0  0  0  0  0  0
    8.3695   -1.4882    0.0000 H   0  0  0  0  0  0  0  0  0  0  0  0
    9.4519   -2.2806    0.0000 H   0  0  0  0  0  0  0  0  0  0  0  0
    9.4519    0.5253    0.0000 H   0  0  0  0  0  0  0  0  0  0  0  0
   11.0719    0.5253    0.0000 H   0  0  0  0  0  0  0  0  0  0  0  0
   12.2619   -1.4976    0.0000 H   0  0  0  0  0  0  0  0  0  0  0  0
   12.8819   -0.8776    0.0000 H   0  0  0  0  0  0  0  0  0  0  0  0
   12.2619   -0.2576    0.0000 H   0  0  0  0  0  0  0  0  0  0  0  0
  1 22  1  0  0  0  0
  2 11  2  0  0  0  0
  3 12  2  0  0  0  0
  4 16  2  0  0  0  0
  5 11  1  0  0  0  0
  5 12  1  0  0  0  0
  5 15  1  0  0  0  0
  6 16  1  0  0  0  0
  6 17  1  0  0  0  0
  6 35  1  0  0  0  0
  7  8  1  0  0  0  0
  7  9  1  0  0  0  0
  7 12  1  0  0  0  0
  7 25  1  0  0  0  0
  8 10  1  0  0  0  0
  8 11  1  0  0  0  0
  8 26  1  0  0  0  0
  9 13  1  0  0  0  0
  9 27  1  0  0  0  0
  9 28  1  0  0  0  0
 10 14  1  0  0  0  0
 10 29  1  0  0  0  0
 10 30  1  0  0  0  0
 13 14  2  0  0  0  0
 13 31  1  0  0  0  0
 14 32  1  0  0  0  0
 15 16  1  0  0  0  0
 15 33  1  0  0  0  0
 15 34  1  0  0  0  0
 17 18  1  0  0  0  0
 17 36  1  0  0  0  0
 17 37  1  0  0  0  0
 18 19  2  0  0  0  0
 18 20  1  0  0  0  0
 19 22  1  0  0  0  0
 19 38  1  0  0  0  0
 20 23  2  0  0  0  0
 20 39  1  0  0  0  0
 21 22  2  0  0  0  0
 21 23  1  0  0  0  0
 21 24  1  0  0  0  0
 23 40  1  0  0  0  0
 24 41  1  0  0  0  0
 24 42  1  0  0  0  0
 24 43  1  0  0  0  0
M  END
> <PUBCHEM_COMPOUND_CID>
17395655

> <PUBCHEM_COMPOUND_CANONICALIZED>
1

> <PUBCHEM_CACTVS_COMPLEXITY>
537

> <PUBCHEM_CACTVS_HBOND_ACCEPTOR>
4

> <PUBCHEM_CACTVS_HBOND_DONOR>
1

> <PUBCHEM_CACTVS_ROTATABLE_BOND>
4

> <PUBCHEM_CACTVS_SUBSKEYS>
AAADceB7MQAAAAAAAAAAAAAAAAAAAWAAAAAwQAAAAAAAAEABAAAAHwAQAAAADQDBmAwyAIPAAACIAiFSEACCAAAgAAAIiIGIBIgIYDKAkTGUIAhgliCIiAcdgAAOwAAAAAAAAACAAAAAAAAAAAAAAAAAAA==

> <PUBCHEM_IUPAC_OPENEYE_NAME>
2-(1,3-dioxo-3a,4,7,7a-tetrahydroisoindol-2-yl)-N-[(3-fluoro-4-methyl-phenyl)methyl]acetamide

> <PUBCHEM_IUPAC_CAS_NAME>
2-(1,3-dioxo-3a,4,7,7a-tetrahydroisoindol-2-yl)-N-[(3-fluoro-4-methylphenyl)methyl]acetamide

> <PUBCHEM_IUPAC_NAME>
2-(1,3-dioxo-3a,4,7,7a-tetrahydroisoindol-2-yl)-N-[(3-fluoro-4-methylphenyl)methyl]acetamide

> <PUBCHEM_IUPAC_SYSTEMATIC_NAME>
2-[1,3-bis(oxidanylidene)-3a,4,7,7a-tetrahydroisoindol-2-yl]-N-[(3-fluoranyl-4-methyl-phenyl)methyl]ethanamide

> <PUBCHEM_IUPAC_TRADITIONAL_NAME>
2-(1,3-diketo-3a,4,7,7a-tetrahydroisoindol-2-yl)-N-(3-fluoro-4-methyl-benzyl)acetamide

> <PUBCHEM_IUPAC_INCHI>
InChI=1S/C18H19FN2O3/c1-11-6-7-12(8-15(11)19)9-20-16(22)10-21-17(23)13-4-2-3-5-14(13)18(21)24/h2-3,6-8,13-14H,4-5,9-10H2,1H3,(H,20,22)

> <PUBCHEM_IUPAC_INCHIKEY>
SIMXXCSHJIABPD-UHFFFAOYSA-N

> <PUBCHEM_XLOGP3_AA>
1.7

> <PUBCHEM_EXACT_MASS>
330.137971

> <PUBCHEM_MOLECULAR_FORMULA>
C18H19FN2O3

> <PUBCHEM_MOLECULAR_WEIGHT>
330.353463

> <PUBCHEM_OPENEYE_CAN_SMILES>
CC1=C(C=C(C=C1)CNC(=O)CN2C(=O)C3CC=CCC3C2=O)F

> <PUBCHEM_OPENEYE_ISO_SMILES>
CC1=C(C=C(C=C1)CNC(=O)CN2C(=O)C3CC=CCC3C2=O)F

> <PUBCHEM_CACTVS_TPSA>
66.5

> <PUBCHEM_MONOISOTOPIC_WEIGHT>
330.137971

> <PUBCHEM_TOTAL_CHARGE>
0

> <PUBCHEM_HEAVY_ATOM_COUNT>
24

> <PUBCHEM_ATOM_DEF_STEREO_COUNT>
0

> <PUBCHEM_ATOM_UDEF_STEREO_COUNT>
2

> <PUBCHEM_BOND_DEF_STEREO_COUNT>
0

> <PUBCHEM_BOND_UDEF_STEREO_COUNT>
0

> <PUBCHEM_ISOTOPIC_ATOM_COUNT>
0

> <PUBCHEM_COMPONENT_COUNT>
1

> <PUBCHEM_CACTVS_TAUTO_COUNT>
6

> <PUBCHEM_COORDINATE_TYPE>
1
5
255

> <PUBCHEM_BONDANNOTATIONS>
18  19  8
18  20  8
19  22  8
20  23  8
21  22  8
21  23  8
7  9  3
8  10  3

$$$$

