14377
  -OEChem-06241222432D

 38 38  0     0  0  0  0  0  0999 V2000
    2.7690    5.8520    0.0000 Br  0  0  0  0  0  0  0  0  0  0  0  0
    0.0000    3.8700    0.0000 Cl  0  5  0  0  0  0  0  0  0  0  0  0
    4.7690    4.1200    0.0000 N   0  3  0  0  0  0  0  0  0  0  0  0
    3.9030    3.6200    0.0000 C   0  0  0  0  0  0  0  0  0  0  0  0
    5.6350    4.6200    0.0000 C   0  0  0  0  0  0  0  0  0  0  0  0
    4.2690    4.9860    0.0000 C   0  0  0  0  0  0  0  0  0  0  0  0
    3.9030    2.6200    0.0000 C   0  0  0  0  0  0  0  0  0  0  0  0
    5.6350    5.6200    0.0000 C   0  0  0  0  0  0  0  0  0  0  0  0
    3.2690    4.9860    0.0000 C   0  0  0  0  0  0  0  0  0  0  0  0
    3.0369    2.1200    0.0000 C   0  0  0  0  0  0  0  0  0  0  0  0
    4.7690    6.1200    0.0000 C   0  0  0  0  0  0  0  0  0  0  0  0
    4.7690    2.1200    0.0000 C   0  0  0  0  0  0  0  0  0  0  0  0
    6.5010    6.1200    0.0000 C   0  0  0  0  0  0  0  0  0  0  0  0
    4.7690    7.1200    0.0000 C   0  0  0  0  0  0  0  0  0  0  0  0
    3.0369    1.1200    0.0000 C   0  0  0  0  0  0  0  0  0  0  0  0
    4.7690    1.1200    0.0000 C   0  0  0  0  0  0  0  0  0  0  0  0
    6.5010    7.1200    0.0000 C   0  0  0  0  0  0  0  0  0  0  0  0
    5.6350    7.6200    0.0000 C   0  0  0  0  0  0  0  0  0  0  0  0
    3.9030    0.6200    0.0000 C   0  0  0  0  0  0  0  0  0  0  0  0
    5.0790    3.5831    0.0000 H   0  0  0  0  0  0  0  0  0  0  0  0
    5.8471    4.0374    0.0000 H   0  0  0  0  0  0  0  0  0  0  0  0
    6.2456    4.7277    0.0000 H   0  0  0  0  0  0  0  0  0  0  0  0
    3.6909    4.2026    0.0000 H   0  0  0  0  0  0  0  0  0  0  0  0
    3.2924    3.5123    0.0000 H   0  0  0  0  0  0  0  0  0  0  0  0
    4.8516    5.1981    0.0000 H   0  0  0  0  0  0  0  0  0  0  0  0
    4.1613    5.5966    0.0000 H   0  0  0  0  0  0  0  0  0  0  0  0
    2.6864    4.7740    0.0000 H   0  0  0  0  0  0  0  0  0  0  0  0
    3.3766    4.3754    0.0000 H   0  0  0  0  0  0  0  0  0  0  0  0
    4.2320    5.8100    0.0000 H   0  0  0  0  0  0  0  0  0  0  0  0
    2.5000    2.4300    0.0000 H   0  0  0  0  0  0  0  0  0  0  0  0
    7.0380    5.8100    0.0000 H   0  0  0  0  0  0  0  0  0  0  0  0
    5.3059    2.4300    0.0000 H   0  0  0  0  0  0  0  0  0  0  0  0
    4.2320    7.4300    0.0000 H   0  0  0  0  0  0  0  0  0  0  0  0
    2.5000    0.8100    0.0000 H   0  0  0  0  0  0  0  0  0  0  0  0
    7.0380    7.4300    0.0000 H   0  0  0  0  0  0  0  0  0  0  0  0
    5.3059    0.8100    0.0000 H   0  0  0  0  0  0  0  0  0  0  0  0
    3.9030    0.0000    0.0000 H   0  0  0  0  0  0  0  0  0  0  0  0
    5.6350    8.2400    0.0000 H   0  0  0  0  0  0  0  0  0  0  0  0
  1  9  1  0  0  0  0
  3  4  1  0  0  0  0
  3  5  1  0  0  0  0
  3  6  1  0  0  0  0
  3 20  1  0  0  0  0
  4  7  1  0  0  0  0
  4 23  1  0  0  0  0
  4 24  1  0  0  0  0
  5  8  1  0  0  0  0
  5 21  1  0  0  0  0
  5 22  1  0  0  0  0
  6  9  1  0  0  0  0
  6 25  1  0  0  0  0
  6 26  1  0  0  0  0
  7 10  2  0  0  0  0
  7 12  1  0  0  0  0
  8 11  2  0  0  0  0
  8 13  1  0  0  0  0
  9 27  1  0  0  0  0
  9 28  1  0  0  0  0
 10 15  1  0  0  0  0
 10 30  1  0  0  0  0
 11 14  1  0  0  0  0
 11 29  1  0  0  0  0
 12 16  2  0  0  0  0
 12 32  1  0  0  0  0
 13 17  2  0  0  0  0
 13 31  1  0  0  0  0
 14 18  2  0  0  0  0
 14 33  1  0  0  0  0
 15 19  2  0  0  0  0
 15 34  1  0  0  0  0
 16 19  1  0  0  0  0
 16 36  1  0  0  0  0
 17 18  1  0  0  0  0
 17 35  1  0  0  0  0
 18 38  1  0  0  0  0
 19 37  1  0  0  0  0
M  CHG  2   2  -1   3   1
M  END
> <PUBCHEM_COMPOUND_CID>
14377

> <PUBCHEM_COMPOUND_CANONICALIZED>
1

> <PUBCHEM_CACTVS_COMPLEXITY>
187

> <PUBCHEM_CACTVS_HBOND_ACCEPTOR>
1

> <PUBCHEM_CACTVS_HBOND_DONOR>
1

> <PUBCHEM_CACTVS_ROTATABLE_BOND>
6

> <PUBCHEM_CACTVS_SUBSKEYS>
AAADceB6AAAEEAAAAAAAAAAAAAAAAAAAAAAwYAAAAAAAAAABQAAAHABQAAABTADBGAQwAIPAAACAAiBCAACCAAAgAAAIiIAIBIgIICKAkRGEIAhgkACIiAcQgAAOAAAAAAAAAAAAAAAAAAAAAAAAAAAAAA==

> <PUBCHEM_IUPAC_OPENEYE_NAME>
dibenzyl(2-bromoethyl)ammonium chloride

> <PUBCHEM_IUPAC_CAS_NAME>
2-bromoethyl-bis(phenylmethyl)ammonium chloride

> <PUBCHEM_IUPAC_NAME>
dibenzyl(2-bromoethyl)azanium chloride

> <PUBCHEM_IUPAC_SYSTEMATIC_NAME>
2-bromoethyl-bis(phenylmethyl)azanium chloride

> <PUBCHEM_IUPAC_TRADITIONAL_NAME>
dibenzyl(2-bromoethyl)ammonium chloride

> <PUBCHEM_IUPAC_INCHI>
InChI=1S/C16H18BrN.ClH/c17-11-12-18(13-15-7-3-1-4-8-15)14-16-9-5-2-6-10-16;/h1-10H,11-14H2;1H

> <PUBCHEM_IUPAC_INCHIKEY>
QWYAVEUHHPLLIN-UHFFFAOYSA-N

> <PUBCHEM_EXACT_MASS>
339.038939

> <PUBCHEM_MOLECULAR_FORMULA>
C16H19BrClN

> <PUBCHEM_MOLECULAR_WEIGHT>
340.68576

> <PUBCHEM_OPENEYE_CAN_SMILES>
C1=CC=C(C=C1)C[NH+](CCBr)CC2=CC=CC=C2.[Cl-]

> <PUBCHEM_OPENEYE_ISO_SMILES>
C1=CC=C(C=C1)C[NH+](CCBr)CC2=CC=CC=C2.[Cl-]

> <PUBCHEM_CACTVS_TPSA>
4.4

> <PUBCHEM_MONOISOTOPIC_WEIGHT>
339.038939

> <PUBCHEM_TOTAL_CHARGE>
0

> <PUBCHEM_HEAVY_ATOM_COUNT>
19

> <PUBCHEM_ATOM_DEF_STEREO_COUNT>
0

> <PUBCHEM_ATOM_UDEF_STEREO_COUNT>
0

> <PUBCHEM_BOND_DEF_STEREO_COUNT>
0

> <PUBCHEM_BOND_UDEF_STEREO_COUNT>
0

> <PUBCHEM_ISOTOPIC_ATOM_COUNT>
0

> <PUBCHEM_COMPONENT_COUNT>
2

> <PUBCHEM_CACTVS_TAUTO_COUNT>
1

> <PUBCHEM_COORDINATE_TYPE>
1
5
255

> <PUBCHEM_BONDANNOTATIONS>
10  15  8
11  14  8
12  16  8
13  17  8
14  18  8
15  19  8
16  19  8
17  18  8
7  10  8
7  12  8
8  11  8
8  13  8

$$$$

