10088
  -OEChem-06261204182D

 92 96  0     1  0  0  0  0  0999 V2000
   11.1223    1.1849    0.0000 O   0  0  0  0  0  0  0  0  0  0  0  0
    2.0000   -2.5933    0.0000 O   0  0  0  0  0  0  0  0  0  0  0  0
   10.0707   -1.0134    0.0000 O   0  0  0  0  0  0  0  0  0  0  0  0
   11.0491   -0.1795    0.0000 O   0  0  0  0  0  0  0  0  0  0  0  0
   10.8282    2.8918    0.0000 O   0  0  0  0  0  0  0  0  0  0  0  0
    6.5271   -1.0410    0.0000 C   0  0  3  0  0  0  0  0  0  0  0  0
    5.6610   -0.5410    0.0000 C   0  0  3  0  0  0  0  0  0  0  0  0
    7.3931   -0.5410    0.0000 C   0  0  3  0  0  0  0  0  0  0  0  0
    4.7510   -1.0478    0.0000 C   0  0  3  0  0  0  0  0  0  0  0  0
    4.7430   -2.0894    0.0000 C   0  0  3  0  0  0  0  0  0  0  0  0
    6.5431   -2.0825    0.0000 C   0  0  0  0  0  0  0  0  0  0  0  0
    7.3931    0.4590    0.0000 C   0  0  0  0  0  0  0  0  0  0  0  0
    8.2870    0.9937    0.0000 C   0  0  3  0  0  0  0  0  0  0  0  0
    5.6451   -2.6102    0.0000 C   0  0  0  0  0  0  0  0  0  0  0  0
    9.1931    0.4799    0.0000 C   0  0  3  0  0  0  0  0  0  0  0  0
    8.2870   -1.0756    0.0000 C   0  0  0  0  0  0  0  0  0  0  0  0
    5.6610    0.4590    0.0000 C   0  0  0  0  0  0  0  0  0  0  0  0
    3.8076   -2.6391    0.0000 C   0  0  0  0  0  0  0  0  0  0  0  0
    3.8242   -0.4837    0.0000 C   0  0  0  0  0  0  0  0  0  0  0  0
    9.1931   -0.5618    0.0000 C   0  0  0  0  0  0  0  0  0  0  0  0
    7.1698   -1.8070    0.0000 C   0  0  0  0  0  0  0  0  0  0  0  0
    6.5271    0.9590    0.0000 C   0  0  0  0  0  0  0  0  0  0  0  0
    7.7352   -1.4806    0.0000 C   0  0  0  0  0  0  0  0  0  0  0  0
    8.2619    2.0784    0.0000 C   0  0  0  0  0  0  0  0  0  0  0  0
    4.7587   -0.0478    0.0000 C   0  0  0  0  0  0  0  0  0  0  0  0
   10.1369    1.0151    0.0000 C   0  0  1  0  0  0  0  0  0  0  0  0
    9.1931    2.6353    0.0000 C   0  0  0  0  0  0  0  0  0  0  0  0
    2.8763   -1.0117    0.0000 C   0  0  0  0  0  0  0  0  0  0  0  0
   10.1369    2.1001    0.0000 C   0  0  0  0  0  0  0  0  0  0  0  0
    2.8679   -2.0966    0.0000 C   0  0  0  0  0  0  0  0  0  0  0  0
    4.3109   -3.5032    0.0000 C   0  0  0  0  0  0  0  0  0  0  0  0
    3.3109   -3.5071    0.0000 C   0  0  0  0  0  0  0  0  0  0  0  0
   10.0629   -0.0135    0.0000 C   0  0  0  0  0  0  0  0  0  0  0  0
    8.6831    3.4955    0.0000 C   0  0  0  0  0  0  0  0  0  0  0  0
    9.6830    3.5071    0.0000 C   0  0  0  0  0  0  0  0  0  0  0  0
   11.4680    2.1233    0.0000 C   0  0  0  0  0  0  0  0  0  0  0  0
   12.4535    2.2932    0.0000 C   0  0  0  0  0  0  0  0  0  0  0  0
   13.0933    1.5246    0.0000 C   0  0  0  0  0  0  0  0  0  0  0  0
   12.7991    3.2315    0.0000 C   0  0  0  0  0  0  0  0  0  0  0  0
   13.7846    3.4014    0.0000 C   0  0  0  0  0  0  0  0  0  0  0  0
    6.1980   -0.2310    0.0000 H   0  0  0  0  0  0  0  0  0  0  0  0
    4.7454   -2.7094    0.0000 H   0  0  0  0  0  0  0  0  0  0  0  0
    7.1523   -1.9670    0.0000 H   0  0  0  0  0  0  0  0  0  0  0  0
    6.7611   -2.6629    0.0000 H   0  0  0  0  0  0  0  0  0  0  0  0
    8.8191    1.3119    0.0000 H   0  0  0  0  0  0  0  0  0  0  0  0
    6.0460   -3.0831    0.0000 H   0  0  0  0  0  0  0  0  0  0  0  0
    5.2478   -3.0862    0.0000 H   0  0  0  0  0  0  0  0  0  0  0  0
    7.8824   -1.5454    0.0000 H   0  0  0  0  0  0  0  0  0  0  0  0
    8.6807   -1.5546    0.0000 H   0  0  0  0  0  0  0  0  0  0  0  0
    5.4490    1.0417    0.0000 H   0  0  0  0  0  0  0  0  0  0  0  0
    5.0505    0.3514    0.0000 H   0  0  0  0  0  0  0  0  0  0  0  0
    3.4343   -0.0017    0.0000 H   0  0  0  0  0  0  0  0  0  0  0  0
    4.2324   -0.0171    0.0000 H   0  0  0  0  0  0  0  0  0  0  0  0
    9.4021   -1.1455    0.0000 H   0  0  0  0  0  0  0  0  0  0  0  0
    9.8039   -0.4557    0.0000 H   0  0  0  0  0  0  0  0  0  0  0  0
    7.6448   -1.4085    0.0000 H   0  0  0  0  0  0  0  0  0  0  0  0
    7.5684   -2.2820    0.0000 H   0  0  0  0  0  0  0  0  0  0  0  0
    6.6949   -2.2055    0.0000 H   0  0  0  0  0  0  0  0  0  0  0  0
    6.5271    1.5790    0.0000 H   0  0  0  0  0  0  0  0  0  0  0  0
    8.3178   -1.2685    0.0000 H   0  0  0  0  0  0  0  0  0  0  0  0
    7.9473   -2.0632    0.0000 H   0  0  0  0  0  0  0  0  0  0  0  0
    7.1526   -1.6927    0.0000 H   0  0  0  0  0  0  0  0  0  0  0  0
    8.0394    2.6571    0.0000 H   0  0  0  0  0  0  0  0  0  0  0  0
    7.6537    1.9582    0.0000 H   0  0  0  0  0  0  0  0  0  0  0  0
    4.7635    0.5721    0.0000 H   0  0  0  0  0  0  0  0  0  0  0  0
    5.3787   -0.0526    0.0000 H   0  0  0  0  0  0  0  0  0  0  0  0
    4.1388   -0.0431    0.0000 H   0  0  0  0  0  0  0  0  0  0  0  0
   10.3456    0.4313    0.0000 H   0  0  0  0  0  0  0  0  0  0  0  0
    2.6718   -0.4264    0.0000 H   0  0  0  0  0  0  0  0  0  0  0  0
    2.2647   -1.1130    0.0000 H   0  0  0  0  0  0  0  0  0  0  0  0
   10.7477    1.9940    0.0000 H   0  0  0  0  0  0  0  0  0  0  0  0
   10.3459    2.6838    0.0000 H   0  0  0  0  0  0  0  0  0  0  0  0
    3.7752   -3.8153    0.0000 H   0  0  0  0  0  0  0  0  0  0  0  0
    4.6230   -4.0390    0.0000 H   0  0  0  0  0  0  0  0  0  0  0  0
    4.8467   -3.1912    0.0000 H   0  0  0  0  0  0  0  0  0  0  0  0
    2.7728   -3.1991    0.0000 H   0  0  0  0  0  0  0  0  0  0  0  0
    3.0030   -4.0452    0.0000 H   0  0  0  0  0  0  0  0  0  0  0  0
    3.8490   -3.8150    0.0000 H   0  0  0  0  0  0  0  0  0  0  0  0
    9.2164    3.8117    0.0000 H   0  0  0  0  0  0  0  0  0  0  0  0
    8.3669    4.0288    0.0000 H   0  0  0  0  0  0  0  0  0  0  0  0
    8.1498    3.1793    0.0000 H   0  0  0  0  0  0  0  0  0  0  0  0
    9.9868    4.0476    0.0000 H   0  0  0  0  0  0  0  0  0  0  0  0
   10.2235    3.2033    0.0000 H   0  0  0  0  0  0  0  0  0  0  0  0
    9.1426    3.8108    0.0000 H   0  0  0  0  0  0  0  0  0  0  0  0
   10.6100   -1.3193    0.0000 H   0  0  0  0  0  0  0  0  0  0  0  0
   13.5698    1.9213    0.0000 H   0  0  0  0  0  0  0  0  0  0  0  0
   12.6168    1.1280    0.0000 H   0  0  0  0  0  0  0  0  0  0  0  0
   13.4900    1.0482    0.0000 H   0  0  0  0  0  0  0  0  0  0  0  0
   12.4024    3.7080    0.0000 H   0  0  0  0  0  0  0  0  0  0  0  0
   13.6793    4.0124    0.0000 H   0  0  0  0  0  0  0  0  0  0  0  0
   14.3956    3.5067    0.0000 H   0  0  0  0  0  0  0  0  0  0  0  0
   13.8899    2.7904    0.0000 H   0  0  0  0  0  0  0  0  0  0  0  0
 26  1  1  1  0  0  0
  1 36  1  0  0  0  0
  2 30  2  0  0  0  0
  3 33  1  0  0  0  0
  3 85  1  0  0  0  0
  4 33  2  0  0  0  0
  5 36  2  0  0  0  0
  6  7  1  0  0  0  0
  6  8  1  0  0  0  0
  6 11  1  0  0  0  0
  6 21  1  0  0  0  0
  7  9  1  0  0  0  0
  7 17  1  0  0  0  0
  7 41  1  0  0  0  0
  8 12  1  0  0  0  0
  8 16  1  0  0  0  0
  8 23  1  0  0  0  0
  9 10  1  0  0  0  0
  9 19  1  0  0  0  0
  9 25  1  0  0  0  0
 10 14  1  0  0  0  0
 10 18  1  0  0  0  0
 10 42  1  0  0  0  0
 11 14  1  0  0  0  0
 11 43  1  0  0  0  0
 11 44  1  0  0  0  0
 12 13  1  0  0  0  0
 12 22  2  0  0  0  0
 13 15  1  0  0  0  0
 13 24  1  0  0  0  0
 13 45  1  0  0  0  0
 14 46  1  0  0  0  0
 14 47  1  0  0  0  0
 15 20  1  0  0  0  0
 15 26  1  0  0  0  0
 15 33  1  0  0  0  0
 16 20  1  0  0  0  0
 16 48  1  0  0  0  0
 16 49  1  0  0  0  0
 17 22  1  0  0  0  0
 17 50  1  0  0  0  0
 17 51  1  0  0  0  0
 18 30  1  0  0  0  0
 18 31  1  0  0  0  0
 18 32  1  0  0  0  0
 19 28  1  0  0  0  0
 19 52  1  0  0  0  0
 19 53  1  0  0  0  0
 20 54  1  0  0  0  0
 20 55  1  0  0  0  0
 21 56  1  0  0  0  0
 21 57  1  0  0  0  0
 21 58  1  0  0  0  0
 22 59  1  0  0  0  0
 23 60  1  0  0  0  0
 23 61  1  0  0  0  0
 23 62  1  0  0  0  0
 24 27  1  0  0  0  0
 24 63  1  0  0  0  0
 24 64  1  0  0  0  0
 25 65  1  0  0  0  0
 25 66  1  0  0  0  0
 25 67  1  0  0  0  0
 26 29  1  0  0  0  0
 26 68  1  0  0  0  0
 27 29  1  0  0  0  0
 27 34  1  0  0  0  0
 27 35  1  0  0  0  0
 28 30  1  0  0  0  0
 28 69  1  0  0  0  0
 28 70  1  0  0  0  0
 29 71  1  0  0  0  0
 29 72  1  0  0  0  0
 31 73  1  0  0  0  0
 31 74  1  0  0  0  0
 31 75  1  0  0  0  0
 32 76  1  0  0  0  0
 32 77  1  0  0  0  0
 32 78  1  0  0  0  0
 34 79  1  0  0  0  0
 34 80  1  0  0  0  0
 34 81  1  0  0  0  0
 35 82  1  0  0  0  0
 35 83  1  0  0  0  0
 35 84  1  0  0  0  0
 36 37  1  0  0  0  0
 37 38  1  0  0  0  0
 37 39  2  3  0  0  0
 38 86  1  0  0  0  0
 38 87  1  0  0  0  0
 38 88  1  0  0  0  0
 39 40  1  0  0  0  0
 39 89  1  0  0  0  0
 40 90  1  0  0  0  0
 40 91  1  0  0  0  0
 40 92  1  0  0  0  0
M  END
> <PUBCHEM_COMPOUND_CID>
10088

> <PUBCHEM_COMPOUND_CANONICALIZED>
1

> <PUBCHEM_CACTVS_COMPLEXITY>
1190

> <PUBCHEM_CACTVS_HBOND_ACCEPTOR>
5

> <PUBCHEM_CACTVS_HBOND_DONOR>
1

> <PUBCHEM_CACTVS_ROTATABLE_BOND>
4

> <PUBCHEM_CACTVS_SUBSKEYS>
AAADcfB8OAAAAAAAAAAAAAAAAAAAAAAAAAAwYMGCAAAAAADAAAAAGgAACAAADxSggAICCAAABgCIAqDSCAAAAAAgAAAACAEAAEgABBYAIQACUAAFoAAIIYOIyPCPgAAAAAAAAACAAAYAADAAAAAAAAAAAA==

> <PUBCHEM_IUPAC_OPENEYE_NAME>
(4R)-2,2,6a,6b,9,9,12a-heptamethyl-4-(2-methylbut-2-enoyloxy)-10-oxo-3,4,5,6,6a,7,8,8a,11,12,13,14b-dodecahydro-1H-picene-4a-carboxylic acid

> <PUBCHEM_IUPAC_CAS_NAME>
(4R)-2,2,6a,6b,9,9,12a-heptamethyl-4-(2-methyl-1-oxobut-2-enoxy)-10-oxo-3,4,5,6,6a,7,8,8a,11,12,13,14b-dodecahydro-1H-picene-4a-carboxylic acid

> <PUBCHEM_IUPAC_NAME>
(4R)-2,2,6a,6b,9,9,12a-heptamethyl-4-(2-methylbut-2-enoyloxy)-10-oxo-3,4,5,6,6a,7,8,8a,11,12,13,14b-dodecahydro-1H-picene-4a-carboxylic acid

> <PUBCHEM_IUPAC_SYSTEMATIC_NAME>
(4R)-2,2,6a,6b,9,9,12a-heptamethyl-4-(2-methylbut-2-enoyloxy)-10-oxidanylidene-3,4,5,6,6a,7,8,8a,11,12,13,14b-dodecahydro-1H-picene-4a-carboxylic acid

> <PUBCHEM_IUPAC_TRADITIONAL_NAME>
(4R)-10-keto-2,2,6a,6b,9,9,12a-heptamethyl-4-(2-methylbut-2-enoyloxy)-3,4,5,6,6a,7,8,8a,11,12,13,14b-dodecahydro-1H-picene-4a-carboxylic acid

> <PUBCHEM_IUPAC_INCHI>
InChI=1S/C35H52O5/c1-10-21(2)28(37)40-27-20-30(3,4)19-23-22-11-12-25-32(7)15-14-26(36)31(5,6)24(32)13-16-34(25,9)33(22,8)17-18-35(23,27)29(38)39/h10-11,23-25,27H,12-20H2,1-9H3,(H,38,39)/t23?,24?,25?,27-,32?,33?,34?,35?/m1/s1

> <PUBCHEM_IUPAC_INCHIKEY>
KCLIRHUTOPOHKJ-LNGJAPTQSA-N

> <PUBCHEM_XLOGP3_AA>
7.8

> <PUBCHEM_EXACT_MASS>
552.381475

> <PUBCHEM_MOLECULAR_FORMULA>
C35H52O5

> <PUBCHEM_MOLECULAR_WEIGHT>
552.78438

> <PUBCHEM_OPENEYE_CAN_SMILES>
CC=C(C)C(=O)OC1CC(CC2C1(CCC3(C2=CCC4C3(CCC5C4(CCC(=O)C5(C)C)C)C)C)C(=O)O)(C)C

> <PUBCHEM_OPENEYE_ISO_SMILES>
CC=C(C)C(=O)O[C@@H]1CC(CC2C1(CCC3(C2=CCC4C3(CCC5C4(CCC(=O)C5(C)C)C)C)C)C(=O)O)(C)C

> <PUBCHEM_CACTVS_TPSA>
80.7

> <PUBCHEM_MONOISOTOPIC_WEIGHT>
552.381475

> <PUBCHEM_TOTAL_CHARGE>
0

> <PUBCHEM_HEAVY_ATOM_COUNT>
40

> <PUBCHEM_ATOM_DEF_STEREO_COUNT>
1

> <PUBCHEM_ATOM_UDEF_STEREO_COUNT>
0

> <PUBCHEM_BOND_DEF_STEREO_COUNT>
0

> <PUBCHEM_BOND_UDEF_STEREO_COUNT>
1

> <PUBCHEM_ISOTOPIC_ATOM_COUNT>
0

> <PUBCHEM_COMPONENT_COUNT>
1

> <PUBCHEM_CACTVS_TAUTO_COUNT>
2

> <PUBCHEM_COORDINATE_TYPE>
1
5
255

> <PUBCHEM_BONDANNOTATIONS>
26  1  5
37  39  1

$$$$

