17396517
  -OEChem-06241222572D

 53 56  0     0  0  0  0  0  0999 V2000
    7.7619   -1.7990    0.0000 S   0  0  0  0  0  0  0  0  0  0  0  0
    6.7619    3.3971    0.0000 O   0  0  0  0  0  0  0  0  0  0  0  0
    6.7619    1.6651    0.0000 O   0  0  0  0  0  0  0  0  0  0  0  0
    3.7320    4.7631    0.0000 N   0  0  0  0  0  0  0  0  0  0  0  0
    4.6783    3.4584    0.0000 N   0  0  0  0  0  0  0  0  0  0  0  0
    8.2619    0.7990    0.0000 N   0  0  0  0  0  0  0  0  0  0  0  0
    5.2619    4.2631    0.0000 C   0  0  0  0  0  0  0  0  0  0  0  0
    3.7320    3.7631    0.0000 C   0  0  0  0  0  0  0  0  0  0  0  0
    6.2619    4.2631    0.0000 C   0  0  0  0  0  0  0  0  0  0  0  0
    4.6783    5.0679    0.0000 C   0  0  0  0  0  0  0  0  0  0  0  0
    8.2619    2.5311    0.0000 C   0  0  0  0  0  0  0  0  0  0  0  0
    7.7619    3.3971    0.0000 C   0  0  0  0  0  0  0  0  0  0  0  0
    7.7619   -0.0670    0.0000 C   0  0  0  0  0  0  0  0  0  0  0  0
    2.8660    5.2631    0.0000 C   0  0  0  0  0  0  0  0  0  0  0  0
    2.8660    3.2631    0.0000 C   0  0  0  0  0  0  0  0  0  0  0  0
    8.2619   -0.9330    0.0000 C   0  0  0  0  0  0  0  0  0  0  0  0
    7.7619    1.6651    0.0000 C   0  0  0  0  0  0  0  0  0  0  0  0
    9.2619    2.5311    0.0000 C   0  0  0  0  0  0  0  0  0  0  0  0
    8.2619    4.2631    0.0000 C   0  0  0  0  0  0  0  0  0  0  0  0
    2.0000    4.7631    0.0000 C   0  0  0  0  0  0  0  0  0  0  0  0
    2.0000    3.7631    0.0000 C   0  0  0  0  0  0  0  0  0  0  0  0
    8.2619   -2.6651    0.0000 C   0  0  0  0  0  0  0  0  0  0  0  0
    9.7619    3.3971    0.0000 C   0  0  0  0  0  0  0  0  0  0  0  0
    9.2619    4.2631    0.0000 C   0  0  0  0  0  0  0  0  0  0  0  0
    9.2619   -4.3971    0.0000 C   0  0  0  0  0  0  0  0  0  0  0  0
    7.7619   -3.5311    0.0000 C   0  0  0  0  0  0  0  0  0  0  0  0
    9.2619   -2.6651    0.0000 C   0  0  0  0  0  0  0  0  0  0  0  0
    8.2619   -4.3971    0.0000 C   0  0  0  0  0  0  0  0  0  0  0  0
    9.7619   -3.5311    0.0000 C   0  0  0  0  0  0  0  0  0  0  0  0
    9.7619   -5.2631    0.0000 C   0  0  0  0  0  0  0  0  0  0  0  0
    6.8445    4.4752    0.0000 H   0  0  0  0  0  0  0  0  0  0  0  0
    6.1542    4.8737    0.0000 H   0  0  0  0  0  0  0  0  0  0  0  0
    4.8709    5.6572    0.0000 H   0  0  0  0  0  0  0  0  0  0  0  0
    7.2869    0.3315    0.0000 H   0  0  0  0  0  0  0  0  0  0  0  0
    7.2869   -0.4655    0.0000 H   0  0  0  0  0  0  0  0  0  0  0  0
    2.8660    5.8831    0.0000 H   0  0  0  0  0  0  0  0  0  0  0  0
    2.8660    2.6431    0.0000 H   0  0  0  0  0  0  0  0  0  0  0  0
    8.7368   -1.3315    0.0000 H   0  0  0  0  0  0  0  0  0  0  0  0
    8.7368   -0.5345    0.0000 H   0  0  0  0  0  0  0  0  0  0  0  0
    8.8819    0.7990    0.0000 H   0  0  0  0  0  0  0  0  0  0  0  0
    9.5719    1.9942    0.0000 H   0  0  0  0  0  0  0  0  0  0  0  0
    7.9519    4.8001    0.0000 H   0  0  0  0  0  0  0  0  0  0  0  0
    1.4631    5.0731    0.0000 H   0  0  0  0  0  0  0  0  0  0  0  0
    1.4631    3.4531    0.0000 H   0  0  0  0  0  0  0  0  0  0  0  0
   10.3819    3.3971    0.0000 H   0  0  0  0  0  0  0  0  0  0  0  0
    9.5719    4.8001    0.0000 H   0  0  0  0  0  0  0  0  0  0  0  0
    7.1419   -3.5311    0.0000 H   0  0  0  0  0  0  0  0  0  0  0  0
    9.5719   -2.1281    0.0000 H   0  0  0  0  0  0  0  0  0  0  0  0
    7.9519   -4.9340    0.0000 H   0  0  0  0  0  0  0  0  0  0  0  0
   10.3819   -3.5311    0.0000 H   0  0  0  0  0  0  0  0  0  0  0  0
    9.2249   -5.5731    0.0000 H   0  0  0  0  0  0  0  0  0  0  0  0
   10.0719   -5.8001    0.0000 H   0  0  0  0  0  0  0  0  0  0  0  0
   10.2988   -4.9531    0.0000 H   0  0  0  0  0  0  0  0  0  0  0  0
  1 16  1  0  0  0  0
  1 22  1  0  0  0  0
  2  9  1  0  0  0  0
  2 12  1  0  0  0  0
  3 17  2  0  0  0  0
  4  8  1  0  0  0  0
  4 10  1  0  0  0  0
  4 14  1  0  0  0  0
  5  7  1  0  0  0  0
  5  8  2  0  0  0  0
  6 13  1  0  0  0  0
  6 17  1  0  0  0  0
  6 40  1  0  0  0  0
  7  9  1  0  0  0  0
  7 10  2  0  0  0  0
  8 15  1  0  0  0  0
  9 31  1  0  0  0  0
  9 32  1  0  0  0  0
 10 33  1  0  0  0  0
 11 12  1  0  0  0  0
 11 17  1  0  0  0  0
 11 18  2  0  0  0  0
 12 19  2  0  0  0  0
 13 16  1  0  0  0  0
 13 34  1  0  0  0  0
 13 35  1  0  0  0  0
 14 20  2  0  0  0  0
 14 36  1  0  0  0  0
 15 21  2  0  0  0  0
 15 37  1  0  0  0  0
 16 38  1  0  0  0  0
 16 39  1  0  0  0  0
 18 23  1  0  0  0  0
 18 41  1  0  0  0  0
 19 24  1  0  0  0  0
 19 42  1  0  0  0  0
 20 21  1  0  0  0  0
 20 43  1  0  0  0  0
 21 44  1  0  0  0  0
 22 26  2  0  0  0  0
 22 27  1  0  0  0  0
 23 24  2  0  0  0  0
 23 45  1  0  0  0  0
 24 46  1  0  0  0  0
 25 28  2  0  0  0  0
 25 29  1  0  0  0  0
 25 30  1  0  0  0  0
 26 28  1  0  0  0  0
 26 47  1  0  0  0  0
 27 29  2  0  0  0  0
 27 48  1  0  0  0  0
 28 49  1  0  0  0  0
 29 50  1  0  0  0  0
 30 51  1  0  0  0  0
 30 52  1  0  0  0  0
 30 53  1  0  0  0  0
M  END
> <PUBCHEM_COMPOUND_CID>
17396517

> <PUBCHEM_COMPOUND_CANONICALIZED>
1

> <PUBCHEM_CACTVS_COMPLEXITY>
541

> <PUBCHEM_CACTVS_HBOND_ACCEPTOR>
4

> <PUBCHEM_CACTVS_HBOND_DONOR>
1

> <PUBCHEM_CACTVS_ROTATABLE_BOND>
8

> <PUBCHEM_CACTVS_SUBSKEYS>
AAADceB7MABAAAAAAAAAAAAAAAAAAWAAAAA8YIAAAAAAAFgB9AAAHgQQAAAADAzl3wa/t5/MHAioAzd3dASCiC01OrAJ2Lk+fNiObvbkvZuXOWju9hP46aeYyCCOEAAAAAAIAAAgAAAAABAAAAAAAAAAAA==

> <PUBCHEM_IUPAC_OPENEYE_NAME>
2-(imidazo[1,2-a]pyridin-2-ylmethoxy)-N-[2-(p-tolylsulfanyl)ethyl]benzamide

> <PUBCHEM_IUPAC_CAS_NAME>
2-(2-imidazo[1,2-a]pyridinylmethoxy)-N-[2-[(4-methylphenyl)thio]ethyl]benzamide

> <PUBCHEM_IUPAC_NAME>
2-(imidazo[1,2-a]pyridin-2-ylmethoxy)-N-[2-(4-methylphenyl)sulfanylethyl]benzamide

> <PUBCHEM_IUPAC_SYSTEMATIC_NAME>
2-(imidazo[1,2-a]pyridin-2-ylmethoxy)-N-[2-(4-methylphenyl)sulfanylethyl]benzamide

> <PUBCHEM_IUPAC_TRADITIONAL_NAME>
2-(imidazo[1,2-a]pyridin-2-ylmethoxy)-N-[2-(p-tolylthio)ethyl]benzamide

> <PUBCHEM_IUPAC_INCHI>
InChI=1S/C24H23N3O2S/c1-18-9-11-20(12-10-18)30-15-13-25-24(28)21-6-2-3-7-22(21)29-17-19-16-27-14-5-4-8-23(27)26-19/h2-12,14,16H,13,15,17H2,1H3,(H,25,28)

> <PUBCHEM_IUPAC_INCHIKEY>
GLJHNYYQOLEWGV-UHFFFAOYSA-N

> <PUBCHEM_XLOGP3_AA>
5.1

> <PUBCHEM_EXACT_MASS>
417.151098

> <PUBCHEM_MOLECULAR_FORMULA>
C24H23N3O2S

> <PUBCHEM_MOLECULAR_WEIGHT>
417.52332

> <PUBCHEM_OPENEYE_CAN_SMILES>
CC1=CC=C(C=C1)SCCNC(=O)C2=CC=CC=C2OCC3=CN4C=CC=CC4=N3

> <PUBCHEM_OPENEYE_ISO_SMILES>
CC1=CC=C(C=C1)SCCNC(=O)C2=CC=CC=C2OCC3=CN4C=CC=CC4=N3

> <PUBCHEM_CACTVS_TPSA>
80.9

> <PUBCHEM_MONOISOTOPIC_WEIGHT>
417.151098

> <PUBCHEM_TOTAL_CHARGE>
0

> <PUBCHEM_HEAVY_ATOM_COUNT>
30

> <PUBCHEM_ATOM_DEF_STEREO_COUNT>
0

> <PUBCHEM_ATOM_UDEF_STEREO_COUNT>
0

> <PUBCHEM_BOND_DEF_STEREO_COUNT>
0

> <PUBCHEM_BOND_UDEF_STEREO_COUNT>
0

> <PUBCHEM_ISOTOPIC_ATOM_COUNT>
0

> <PUBCHEM_COMPONENT_COUNT>
1

> <PUBCHEM_CACTVS_TAUTO_COUNT>
2

> <PUBCHEM_COORDINATE_TYPE>
1
5
255

> <PUBCHEM_BONDANNOTATIONS>
11  12  8
11  18  8
12  19  8
14  20  8
15  21  8
18  23  8
19  24  8
20  21  8
22  26  8
22  27  8
23  24  8
25  28  8
25  29  8
26  28  8
27  29  8
4  10  8
4  14  8
4  8  8
5  7  8
5  8  8
7  10  8
8  15  8

$$$$

