3500
  -OEChem-06251223272D

 61 66  0     1  0  0  0  0  0999 V2000
    4.9355   -1.8484    0.0000 O   0  0  0  0  0  0  0  0  0  0  0  0
    9.9972   -0.9479    0.0000 O   0  0  0  0  0  0  0  0  0  0  0  0
    9.9972    2.5626    0.0000 O   0  0  0  0  0  0  0  0  0  0  0  0
    8.4613   -3.7493    0.0000 O   0  0  0  0  0  0  0  0  0  0  0  0
    6.2712   -0.3598    0.0000 N   0  0  0  0  0  0  0  0  0  0  0  0
    6.2712    1.9744    0.0000 N   0  0  0  0  0  0  0  0  0  0  0  0
   10.2701    0.8073    0.0000 N   0  0  0  0  0  0  0  0  0  0  0  0
    2.9785   -1.4359    0.0000 N   0  0  0  0  0  0  0  0  0  0  0  0
    7.0082    0.3073    0.0000 C   0  0  0  0  0  0  0  0  0  0  0  0
    7.0082    1.3073    0.0000 C   0  0  0  0  0  0  0  0  0  0  0  0
    7.8742   -0.1927    0.0000 C   0  0  0  0  0  0  0  0  0  0  0  0
    7.8742    1.8073    0.0000 C   0  0  0  0  0  0  0  0  0  0  0  0
    8.7403    0.3073    0.0000 C   0  0  0  0  0  0  0  0  0  0  0  0
    7.6650   -1.1645    0.0000 C   0  0  0  0  0  0  0  0  0  0  0  0
    8.7403    1.3073    0.0000 C   0  0  0  0  0  0  0  0  0  0  0  0
    6.6763   -1.2675    0.0000 C   0  0  0  0  0  0  0  0  0  0  0  0
    5.2927   -0.1535    0.0000 C   0  0  0  0  0  0  0  0  0  0  0  0
    7.6650    2.7792    0.0000 C   0  0  0  0  0  0  0  0  0  0  0  0
    6.6763    2.8822    0.0000 C   0  0  0  0  0  0  0  0  0  0  0  0
    4.6249   -0.8978    0.0000 C   0  0  3  0  0  0  0  0  0  0  0  0
    9.6865    0.0026    0.0000 C   0  0  0  0  0  0  0  0  0  0  0  0
    9.6865    1.6121    0.0000 C   0  0  0  0  0  0  0  0  0  0  0  0
    8.2858   -1.9932    0.0000 C   0  0  0  0  0  0  0  0  0  0  0  0
    6.2398   -2.2065    0.0000 C   0  0  0  0  0  0  0  0  0  0  0  0
    5.2927    1.7682    0.0000 C   0  0  0  0  0  0  0  0  0  0  0  0
    3.6464   -0.6916    0.0000 C   0  0  0  0  0  0  0  0  0  0  0  0
    8.2858    3.6079    0.0000 C   0  0  0  0  0  0  0  0  0  0  0  0
    6.2398    3.8212    0.0000 C   0  0  0  0  0  0  0  0  0  0  0  0
    7.8711   -2.9420    0.0000 C   0  0  0  0  0  0  0  0  0  0  0  0
    6.8412   -3.0494    0.0000 C   0  0  0  0  0  0  0  0  0  0  0  0
    7.8711    4.5567    0.0000 C   0  0  0  0  0  0  0  0  0  0  0  0
    6.8412    4.6641    0.0000 C   0  0  0  0  0  0  0  0  0  0  0  0
    2.0000   -1.2297    0.0000 C   0  0  0  0  0  0  0  0  0  0  0  0
    3.2892   -2.3864    0.0000 C   0  0  0  0  0  0  0  0  0  0  0  0
    8.0573   -4.6641    0.0000 C   0  0  0  0  0  0  0  0  0  0  0  0
    5.5240    0.4217    0.0000 H   0  0  0  0  0  0  0  0  0  0  0  0
    4.7663    0.1741    0.0000 H   0  0  0  0  0  0  0  0  0  0  0  0
    5.2315   -1.0257    0.0000 H   0  0  0  0  0  0  0  0  0  0  0  0
    8.9017   -1.9218    0.0000 H   0  0  0  0  0  0  0  0  0  0  0  0
    5.6224   -2.2636    0.0000 H   0  0  0  0  0  0  0  0  0  0  0  0
    5.1648    2.3749    0.0000 H   0  0  0  0  0  0  0  0  0  0  0  0
    4.6860    1.6403    0.0000 H   0  0  0  0  0  0  0  0  0  0  0  0
    5.4206    1.1615    0.0000 H   0  0  0  0  0  0  0  0  0  0  0  0
   10.8901    0.8073    0.0000 H   0  0  0  0  0  0  0  0  0  0  0  0
    3.8776   -0.1164    0.0000 H   0  0  0  0  0  0  0  0  0  0  0  0
    3.1200   -0.3640    0.0000 H   0  0  0  0  0  0  0  0  0  0  0  0
    8.9017    3.5365    0.0000 H   0  0  0  0  0  0  0  0  0  0  0  0
    5.6224    3.8783    0.0000 H   0  0  0  0  0  0  0  0  0  0  0  0
    6.5864   -3.6146    0.0000 H   0  0  0  0  0  0  0  0  0  0  0  0
    8.2370    5.0572    0.0000 H   0  0  0  0  0  0  0  0  0  0  0  0
    6.5864    5.2293    0.0000 H   0  0  0  0  0  0  0  0  0  0  0  0
    4.5214   -2.3098    0.0000 H   0  0  0  0  0  0  0  0  0  0  0  0
    2.1279   -0.6230    0.0000 H   0  0  0  0  0  0  0  0  0  0  0  0
    1.3933   -1.1018    0.0000 H   0  0  0  0  0  0  0  0  0  0  0  0
    1.8721   -1.8364    0.0000 H   0  0  0  0  0  0  0  0  0  0  0  0
    2.6998   -2.5790    0.0000 H   0  0  0  0  0  0  0  0  0  0  0  0
    3.4818   -2.9758    0.0000 H   0  0  0  0  0  0  0  0  0  0  0  0
    3.8785   -2.1938    0.0000 H   0  0  0  0  0  0  0  0  0  0  0  0
    7.4902   -4.4136    0.0000 H   0  0  0  0  0  0  0  0  0  0  0  0
    7.8068   -5.2312    0.0000 H   0  0  0  0  0  0  0  0  0  0  0  0
    8.6245   -4.9145    0.0000 H   0  0  0  0  0  0  0  0  0  0  0  0
  1 20  1  0  0  0  0
  1 52  1  0  0  0  0
  2 21  2  0  0  0  0
  3 22  2  0  0  0  0
  4 29  1  0  0  0  0
  4 35  1  0  0  0  0
  5  9  1  0  0  0  0
  5 16  1  0  0  0  0
  5 17  1  0  0  0  0
  6 10  1  0  0  0  0
  6 19  1  0  0  0  0
  6 25  1  0  0  0  0
  7 21  1  0  0  0  0
  7 22  1  0  0  0  0
  7 44  1  0  0  0  0
  8 26  1  0  0  0  0
  8 33  1  0  0  0  0
  8 34  1  0  0  0  0
  9 10  2  0  0  0  0
  9 11  1  0  0  0  0
 10 12  1  0  0  0  0
 11 13  2  0  0  0  0
 11 14  1  0  0  0  0
 12 15  2  0  0  0  0
 12 18  1  0  0  0  0
 13 15  1  0  0  0  0
 13 21  1  0  0  0  0
 14 16  2  0  0  0  0
 14 23  1  0  0  0  0
 15 22  1  0  0  0  0
 16 24  1  0  0  0  0
 17 20  1  0  0  0  0
 17 36  1  0  0  0  0
 17 37  1  0  0  0  0
 18 19  1  0  0  0  0
 18 27  2  0  0  0  0
 19 28  2  0  0  0  0
 20 26  1  0  0  0  0
 20 38  1  0  0  0  0
 23 29  2  0  0  0  0
 23 39  1  0  0  0  0
 24 30  2  0  0  0  0
 24 40  1  0  0  0  0
 25 41  1  0  0  0  0
 25 42  1  0  0  0  0
 25 43  1  0  0  0  0
 26 45  1  0  0  0  0
 26 46  1  0  0  0  0
 27 31  1  0  0  0  0
 27 47  1  0  0  0  0
 28 32  1  0  0  0  0
 28 48  1  0  0  0  0
 29 30  1  0  0  0  0
 30 49  1  0  0  0  0
 31 32  2  0  0  0  0
 31 50  1  0  0  0  0
 32 51  1  0  0  0  0
 33 53  1  0  0  0  0
 33 54  1  0  0  0  0
 33 55  1  0  0  0  0
 34 56  1  0  0  0  0
 34 57  1  0  0  0  0
 34 58  1  0  0  0  0
 35 59  1  0  0  0  0
 35 60  1  0  0  0  0
 35 61  1  0  0  0  0
M  END
> <PUBCHEM_COMPOUND_CID>
3500

> <PUBCHEM_COMPOUND_CANONICALIZED>
1

> <PUBCHEM_CACTVS_COMPLEXITY>
853

> <PUBCHEM_CACTVS_HBOND_ACCEPTOR>
5

> <PUBCHEM_CACTVS_HBOND_DONOR>
2

> <PUBCHEM_CACTVS_ROTATABLE_BOND>
5

> <PUBCHEM_CACTVS_SUBSKEYS>
AAADceB7uAAAAAAAAAAAAAAAAAAAAWLFgAAwYMAAAAAAAFgB/gAAHgAQCAAADBzhngYyxvPMFgCoAyVyVACCiCQlMiAI2CE+fNgOdvLE9ZuUMShkxDHY6Qe92fOeyEADQAASACCQgAaAACQAQAAAAAAAAA==

> <PUBCHEM_IUPAC_INCHI>
InChI=1S/C27H26N4O4/c1-29(2)12-14(32)13-31-19-10-9-15(35-4)11-17(19)21-23-22(26(33)28-27(23)34)20-16-7-5-6-8-18(16)30(3)24(20)25(21)31/h5-11,14,32H,12-13H2,1-4H3,(H,28,33,34)

> <PUBCHEM_IUPAC_INCHIKEY>
NYBAPNLYWRMTJL-UHFFFAOYSA-N

> <PUBCHEM_XLOGP3_AA>
2.9

> <PUBCHEM_EXACT_MASS>
470.195405

> <PUBCHEM_MOLECULAR_FORMULA>
C27H26N4O4

> <PUBCHEM_MOLECULAR_WEIGHT>
470.51974

> <PUBCHEM_OPENEYE_CAN_SMILES>
CN1C2=CC=CC=C2C3=C4C(=C5C6=C(C=CC(=C6)OC)N(C5=C31)CC(CN(C)C)O)C(=O)NC4=O

> <PUBCHEM_OPENEYE_ISO_SMILES>
CN1C2=CC=CC=C2C3=C4C(=C5C6=C(C=CC(=C6)OC)N(C5=C31)CC(CN(C)C)O)C(=O)NC4=O

> <PUBCHEM_CACTVS_TPSA>
88.7

> <PUBCHEM_MONOISOTOPIC_WEIGHT>
470.195405

> <PUBCHEM_TOTAL_CHARGE>
0

> <PUBCHEM_HEAVY_ATOM_COUNT>
35

> <PUBCHEM_ATOM_DEF_STEREO_COUNT>
0

> <PUBCHEM_ATOM_UDEF_STEREO_COUNT>
1

> <PUBCHEM_BOND_DEF_STEREO_COUNT>
0

> <PUBCHEM_BOND_UDEF_STEREO_COUNT>
0

> <PUBCHEM_ISOTOPIC_ATOM_COUNT>
0

> <PUBCHEM_COMPONENT_COUNT>
1

> <PUBCHEM_CACTVS_TAUTO_COUNT>
3

> <PUBCHEM_COORDINATE_TYPE>
1
5
255

> <PUBCHEM_BONDANNOTATIONS>
20  1  3
10  12  8
11  13  8
11  14  8
12  15  8
12  18  8
13  15  8
14  16  8
14  23  8
16  24  8
18  19  8
18  27  8
19  28  8
23  29  8
24  30  8
27  31  8
28  32  8
29  30  8
31  32  8
5  16  8
5  9  8
6  10  8
6  19  8
9  10  8
9  11  8

$$$$

