17395773
  -OEChem-06241222522D

 42 43  0     1  0  0  0  0  0999 V2000
    4.6783    2.5368    0.0000 S   0  0  0  0  0  0  0  0  0  0  0  0
   13.2619   -1.7320    0.0000 F   0  0  0  0  0  0  0  0  0  0  0  0
   12.2619   -2.7320    0.0000 F   0  0  0  0  0  0  0  0  0  0  0  0
   12.2619   -0.7321    0.0000 F   0  0  0  0  0  0  0  0  0  0  0  0
    7.7619   -0.8660    0.0000 O   0  0  0  0  0  0  0  0  0  0  0  0
    9.2619   -1.7320    0.0000 O   0  0  0  0  0  0  0  0  0  0  0  0
    6.7619    0.8660    0.0000 N   0  0  3  0  0  0  0  0  0  0  0  0
    4.6783    0.9273    0.0000 N   0  0  0  0  0  0  0  0  0  0  0  0
    9.2619    0.0000    0.0000 N   0  0  0  0  0  0  0  0  0  0  0  0
   10.7619   -0.8660    0.0000 N   0  0  0  0  0  0  0  0  0  0  0  0
    6.2619    1.7320    0.0000 C   0  0  3  0  0  0  0  0  0  0  0  0
    5.2619    1.7320    0.0000 C   0  0  0  0  0  0  0  0  0  0  0  0
    7.7619    0.8660    0.0000 C   0  0  0  0  0  0  0  0  0  0  0  0
    6.7619    2.5981    0.0000 C   0  0  0  0  0  0  0  0  0  0  0  0
    6.2619    0.0000    0.0000 C   0  0  0  0  0  0  0  0  0  0  0  0
    3.7320    2.2320    0.0000 C   0  0  0  0  0  0  0  0  0  0  0  0
    3.7320    1.2320    0.0000 C   0  0  0  0  0  0  0  0  0  0  0  0
    8.2619    0.0000    0.0000 C   0  0  0  0  0  0  0  0  0  0  0  0
    2.8660    2.7320    0.0000 C   0  0  0  0  0  0  0  0  0  0  0  0
    2.8660    0.7321    0.0000 C   0  0  0  0  0  0  0  0  0  0  0  0
    2.0000    2.2320    0.0000 C   0  0  0  0  0  0  0  0  0  0  0  0
    2.0000    1.2320    0.0000 C   0  0  0  0  0  0  0  0  0  0  0  0
    9.7619   -0.8660    0.0000 C   0  0  0  0  0  0  0  0  0  0  0  0
   11.2619   -1.7320    0.0000 C   0  0  0  0  0  0  0  0  0  0  0  0
   12.2619   -1.7320    0.0000 C   0  0  0  0  0  0  0  0  0  0  0  0
    5.9519    1.1951    0.0000 H   0  0  0  0  0  0  0  0  0  0  0  0
    8.3445    1.0781    0.0000 H   0  0  0  0  0  0  0  0  0  0  0  0
    7.6542    1.4766    0.0000 H   0  0  0  0  0  0  0  0  0  0  0  0
    7.2988    2.2881    0.0000 H   0  0  0  0  0  0  0  0  0  0  0  0
    7.0719    3.1350    0.0000 H   0  0  0  0  0  0  0  0  0  0  0  0
    6.2249    2.9081    0.0000 H   0  0  0  0  0  0  0  0  0  0  0  0
    5.7249    0.3100    0.0000 H   0  0  0  0  0  0  0  0  0  0  0  0
    5.9519   -0.5369    0.0000 H   0  0  0  0  0  0  0  0  0  0  0  0
    6.7988   -0.3100    0.0000 H   0  0  0  0  0  0  0  0  0  0  0  0
    2.8660    3.3520    0.0000 H   0  0  0  0  0  0  0  0  0  0  0  0
    2.8660    0.1121    0.0000 H   0  0  0  0  0  0  0  0  0  0  0  0
    9.5719    0.5369    0.0000 H   0  0  0  0  0  0  0  0  0  0  0  0
    1.4631    2.5420    0.0000 H   0  0  0  0  0  0  0  0  0  0  0  0
    1.4631    0.9221    0.0000 H   0  0  0  0  0  0  0  0  0  0  0  0
   11.0719   -0.3291    0.0000 H   0  0  0  0  0  0  0  0  0  0  0  0
   10.6793   -1.9441    0.0000 H   0  0  0  0  0  0  0  0  0  0  0  0
   11.3695   -2.3426    0.0000 H   0  0  0  0  0  0  0  0  0  0  0  0
  1 12  1  0  0  0  0
  1 16  1  0  0  0  0
  2 25  1  0  0  0  0
  3 25  1  0  0  0  0
  4 25  1  0  0  0  0
  5 18  2  0  0  0  0
  6 23  2  0  0  0  0
  7 11  1  0  0  0  0
  7 13  1  0  0  0  0
  7 15  1  0  0  0  0
  8 12  2  0  0  0  0
  8 17  1  0  0  0  0
  9 18  1  0  0  0  0
  9 23  1  0  0  0  0
  9 37  1  0  0  0  0
 10 23  1  0  0  0  0
 10 24  1  0  0  0  0
 10 40  1  0  0  0  0
 11 12  1  0  0  0  0
 11 14  1  0  0  0  0
 11 26  1  0  0  0  0
 13 18  1  0  0  0  0
 13 27  1  0  0  0  0
 13 28  1  0  0  0  0
 14 29  1  0  0  0  0
 14 30  1  0  0  0  0
 14 31  1  0  0  0  0
 15 32  1  0  0  0  0
 15 33  1  0  0  0  0
 15 34  1  0  0  0  0
 16 17  1  0  0  0  0
 16 19  2  0  0  0  0
 17 20  2  0  0  0  0
 19 21  1  0  0  0  0
 19 35  1  0  0  0  0
 20 22  1  0  0  0  0
 20 36  1  0  0  0  0
 21 22  2  0  0  0  0
 21 38  1  0  0  0  0
 22 39  1  0  0  0  0
 24 25  1  0  0  0  0
 24 41  1  0  0  0  0
 24 42  1  0  0  0  0
M  END
> <PUBCHEM_COMPOUND_CID>
17395773

> <PUBCHEM_COMPOUND_CANONICALIZED>
1

> <PUBCHEM_CACTVS_COMPLEXITY>
492

> <PUBCHEM_CACTVS_HBOND_ACCEPTOR>
8

> <PUBCHEM_CACTVS_HBOND_DONOR>
2

> <PUBCHEM_CACTVS_ROTATABLE_BOND>
5

> <PUBCHEM_CACTVS_SUBSKEYS>
AAADceBzsYBAAAAAAAAAAAAAAAAAAWAAAAAwAAAAAAAAAFgB8AAAHwQQAAAACCjB1hQzwbPIEAisASVyVACD8KBhCjhImLy4ZJiIYKLgkbGUIAholyLoyAcQAAAAAAAAAAAAAQAAAAAAAAACAAAAAAAAAA==

> <PUBCHEM_IUPAC_OPENEYE_NAME>
2-[1-(1,3-benzothiazol-2-yl)ethyl-methyl-amino]-N-(2,2,2-trifluoroethylcarbamoyl)acetamide

> <PUBCHEM_IUPAC_CAS_NAME>
2-[1-(1,3-benzothiazol-2-yl)ethyl-methylamino]-N-[oxo-(2,2,2-trifluoroethylamino)methyl]acetamide

> <PUBCHEM_IUPAC_NAME>
2-[1-(1,3-benzothiazol-2-yl)ethyl-methylamino]-N-(2,2,2-trifluoroethylcarbamoyl)acetamide

> <PUBCHEM_IUPAC_SYSTEMATIC_NAME>
2-[1-(1,3-benzothiazol-2-yl)ethyl-methyl-amino]-N-[2,2,2-tris(fluoranyl)ethylcarbamoyl]ethanamide

> <PUBCHEM_IUPAC_TRADITIONAL_NAME>
2-[1-(1,3-benzothiazol-2-yl)ethyl-methyl-amino]-N-(2,2,2-trifluoroethylcarbamoyl)acetamide

> <PUBCHEM_IUPAC_INCHI>
InChI=1S/C15H17F3N4O2S/c1-9(13-20-10-5-3-4-6-11(10)25-13)22(2)7-12(23)21-14(24)19-8-15(16,17)18/h3-6,9H,7-8H2,1-2H3,(H2,19,21,23,24)

> <PUBCHEM_IUPAC_INCHIKEY>
FZQAEZKXUQQHQA-UHFFFAOYSA-N

> <PUBCHEM_XLOGP3_AA>
3.3

> <PUBCHEM_EXACT_MASS>
374.102431

> <PUBCHEM_MOLECULAR_FORMULA>
C15H17F3N4O2S

> <PUBCHEM_MOLECULAR_WEIGHT>
374.38129

> <PUBCHEM_OPENEYE_CAN_SMILES>
CC(C1=NC2=CC=CC=C2S1)N(C)CC(=O)NC(=O)NCC(F)(F)F

> <PUBCHEM_OPENEYE_ISO_SMILES>
CC(C1=NC2=CC=CC=C2S1)N(C)CC(=O)NC(=O)NCC(F)(F)F

> <PUBCHEM_CACTVS_TPSA>
103

> <PUBCHEM_MONOISOTOPIC_WEIGHT>
374.102431

> <PUBCHEM_TOTAL_CHARGE>
0

> <PUBCHEM_HEAVY_ATOM_COUNT>
25

> <PUBCHEM_ATOM_DEF_STEREO_COUNT>
0

> <PUBCHEM_ATOM_UDEF_STEREO_COUNT>
1

> <PUBCHEM_BOND_DEF_STEREO_COUNT>
0

> <PUBCHEM_BOND_UDEF_STEREO_COUNT>
0

> <PUBCHEM_ISOTOPIC_ATOM_COUNT>
0

> <PUBCHEM_COMPONENT_COUNT>
1

> <PUBCHEM_CACTVS_TAUTO_COUNT>
5

> <PUBCHEM_COORDINATE_TYPE>
1
5
255

> <PUBCHEM_BONDANNOTATIONS>
1  12  8
1  16  8
11  14  3
16  17  8
16  19  8
17  20  8
19  21  8
20  22  8
21  22  8
8  12  8
8  17  8

$$$$

