582847
  -OEChem-06241222442D

 71 71  0     1  0  0  0  0  0999 V2000
   18.0568   -1.8038    0.0000 O   0  0  0  0  0  0  0  0  0  0  0  0
   18.5568   -0.2649    0.0000 O   0  0  0  0  0  0  0  0  0  0  0  0
   15.5536   -0.8559    0.0000 O   0  0  0  0  0  0  0  0  0  0  0  0
   14.0673    0.4824    0.0000 O   0  0  0  0  0  0  0  0  0  0  0  0
   17.2478   -1.2160    0.0000 C   0  0  3  0  0  0  0  0  0  0  0  0
   18.8658   -1.2160    0.0000 C   0  0  0  0  0  0  0  0  0  0  0  0
   17.5568   -0.2649    0.0000 C   0  0  0  0  0  0  0  0  0  0  0  0
    7.0826    0.9447    0.0000 C   0  0  0  0  0  0  0  0  0  0  0  0
    6.1315    0.6357    0.0000 C   0  0  0  0  0  0  0  0  0  0  0  0
    7.8257    0.2755    0.0000 C   0  0  0  0  0  0  0  0  0  0  0  0
    5.3884    1.3048    0.0000 C   0  0  0  0  0  0  0  0  0  0  0  0
   16.2968   -1.5250    0.0000 C   0  0  0  0  0  0  0  0  0  0  0  0
    8.7768    0.5846    0.0000 C   0  0  0  0  0  0  0  0  0  0  0  0
    4.4373    0.9958    0.0000 C   0  0  0  0  0  0  0  0  0  0  0  0
    9.5199   -0.0846    0.0000 C   0  0  0  0  0  0  0  0  0  0  0  0
   19.4536   -2.0250    0.0000 C   0  0  0  0  0  0  0  0  0  0  0  0
   19.8169   -0.9070    0.0000 C   0  0  0  0  0  0  0  0  0  0  0  0
    3.6942    1.6649    0.0000 C   0  0  0  0  0  0  0  0  0  0  0  0
   10.4710    0.2245    0.0000 C   0  0  0  0  0  0  0  0  0  0  0  0
   13.8594   -0.4958    0.0000 C   0  0  3  0  0  0  0  0  0  0  0  0
   14.6026   -1.1649    0.0000 C   0  0  0  0  0  0  0  0  0  0  0  0
   12.9084   -0.8048    0.0000 C   0  0  0  0  0  0  0  0  0  0  0  0
    2.7431    1.3559    0.0000 C   0  0  0  0  0  0  0  0  0  0  0  0
   11.2142   -0.4447    0.0000 C   0  0  0  0  0  0  0  0  0  0  0  0
   12.1652   -0.1357    0.0000 C   0  0  0  0  0  0  0  0  0  0  0  0
    2.0000    2.0250    0.0000 C   0  0  0  0  0  0  0  0  0  0  0  0
   13.3242    1.1515    0.0000 C   0  0  0  0  0  0  0  0  0  0  0  0
   17.1508   -1.8284    0.0000 H   0  0  0  0  0  0  0  0  0  0  0  0
   17.6216    0.3517    0.0000 H   0  0  0  0  0  0  0  0  0  0  0  0
   16.9504   -0.1360    0.0000 H   0  0  0  0  0  0  0  0  0  0  0  0
    7.5712    1.3264    0.0000 H   0  0  0  0  0  0  0  0  0  0  0  0
    6.7915    1.4921    0.0000 H   0  0  0  0  0  0  0  0  0  0  0  0
    5.6430    0.2540    0.0000 H   0  0  0  0  0  0  0  0  0  0  0  0
    6.4226    0.0882    0.0000 H   0  0  0  0  0  0  0  0  0  0  0  0
    7.3372   -0.1062    0.0000 H   0  0  0  0  0  0  0  0  0  0  0  0
    8.1168   -0.2719    0.0000 H   0  0  0  0  0  0  0  0  0  0  0  0
    5.8770    1.6865    0.0000 H   0  0  0  0  0  0  0  0  0  0  0  0
    5.0973    1.8522    0.0000 H   0  0  0  0  0  0  0  0  0  0  0  0
   15.8082   -1.9067    0.0000 H   0  0  0  0  0  0  0  0  0  0  0  0
   16.5878   -2.0724    0.0000 H   0  0  0  0  0  0  0  0  0  0  0  0
    9.2654    0.9663    0.0000 H   0  0  0  0  0  0  0  0  0  0  0  0
    8.4857    1.1320    0.0000 H   0  0  0  0  0  0  0  0  0  0  0  0
    3.9488    0.6141    0.0000 H   0  0  0  0  0  0  0  0  0  0  0  0
    4.7284    0.4483    0.0000 H   0  0  0  0  0  0  0  0  0  0  0  0
    9.0314   -0.4663    0.0000 H   0  0  0  0  0  0  0  0  0  0  0  0
    9.8110   -0.6320    0.0000 H   0  0  0  0  0  0  0  0  0  0  0  0
   18.9520   -2.3894    0.0000 H   0  0  0  0  0  0  0  0  0  0  0  0
   19.8181   -2.5266    0.0000 H   0  0  0  0  0  0  0  0  0  0  0  0
   19.9552   -1.6606    0.0000 H   0  0  0  0  0  0  0  0  0  0  0  0
   20.0085   -1.4966    0.0000 H   0  0  0  0  0  0  0  0  0  0  0  0
   20.4066   -0.7154    0.0000 H   0  0  0  0  0  0  0  0  0  0  0  0
   19.6253   -0.3173    0.0000 H   0  0  0  0  0  0  0  0  0  0  0  0
    4.1828    2.0466    0.0000 H   0  0  0  0  0  0  0  0  0  0  0  0
    3.4031    2.2123    0.0000 H   0  0  0  0  0  0  0  0  0  0  0  0
   10.9596    0.6062    0.0000 H   0  0  0  0  0  0  0  0  0  0  0  0
   10.1799    0.7719    0.0000 H   0  0  0  0  0  0  0  0  0  0  0  0
   14.4491   -0.3042    0.0000 H   0  0  0  0  0  0  0  0  0  0  0  0
   14.1140   -1.5466    0.0000 H   0  0  0  0  0  0  0  0  0  0  0  0
   14.8936   -1.7123    0.0000 H   0  0  0  0  0  0  0  0  0  0  0  0
   12.4198   -1.1865    0.0000 H   0  0  0  0  0  0  0  0  0  0  0  0
   13.1994   -1.3522    0.0000 H   0  0  0  0  0  0  0  0  0  0  0  0
    2.2546    0.9742    0.0000 H   0  0  0  0  0  0  0  0  0  0  0  0
    3.0342    0.8085    0.0000 H   0  0  0  0  0  0  0  0  0  0  0  0
   11.0852   -1.0511    0.0000 H   0  0  0  0  0  0  0  0  0  0  0  0
   12.2941    0.4708    0.0000 H   0  0  0  0  0  0  0  0  0  0  0  0
    2.4149    2.4858    0.0000 H   0  0  0  0  0  0  0  0  0  0  0  0
    1.5393    2.4399    0.0000 H   0  0  0  0  0  0  0  0  0  0  0  0
    1.5851    1.5643    0.0000 H   0  0  0  0  0  0  0  0  0  0  0  0
   13.7390    1.6123    0.0000 H   0  0  0  0  0  0  0  0  0  0  0  0
   12.8634    1.5664    0.0000 H   0  0  0  0  0  0  0  0  0  0  0  0
   12.9093    0.6908    0.0000 H   0  0  0  0  0  0  0  0  0  0  0  0
  1  5  1  0  0  0  0
  1  6  1  0  0  0  0
  2  6  1  0  0  0  0
  2  7  1  0  0  0  0
  3 12  1  0  0  0  0
  3 21  1  0  0  0  0
  4 20  1  0  0  0  0
  4 27  1  0  0  0  0
  5  7  1  0  0  0  0
  5 12  1  0  0  0  0
  5 28  1  0  0  0  0
  6 16  1  0  0  0  0
  6 17  1  0  0  0  0
  7 29  1  0  0  0  0
  7 30  1  0  0  0  0
  8  9  1  0  0  0  0
  8 10  1  0  0  0  0
  8 31  1  0  0  0  0
  8 32  1  0  0  0  0
  9 11  1  0  0  0  0
  9 33  1  0  0  0  0
  9 34  1  0  0  0  0
 10 13  1  0  0  0  0
 10 35  1  0  0  0  0
 10 36  1  0  0  0  0
 11 14  1  0  0  0  0
 11 37  1  0  0  0  0
 11 38  1  0  0  0  0
 12 39  1  0  0  0  0
 12 40  1  0  0  0  0
 13 15  1  0  0  0  0
 13 41  1  0  0  0  0
 13 42  1  0  0  0  0
 14 18  1  0  0  0  0
 14 43  1  0  0  0  0
 14 44  1  0  0  0  0
 15 19  1  0  0  0  0
 15 45  1  0  0  0  0
 15 46  1  0  0  0  0
 16 47  1  0  0  0  0
 16 48  1  0  0  0  0
 16 49  1  0  0  0  0
 17 50  1  0  0  0  0
 17 51  1  0  0  0  0
 17 52  1  0  0  0  0
 18 23  1  0  0  0  0
 18 53  1  0  0  0  0
 18 54  1  0  0  0  0
 19 24  1  0  0  0  0
 19 55  1  0  0  0  0
 19 56  1  0  0  0  0
 20 21  1  0  0  0  0
 20 22  1  0  0  0  0
 20 57  1  0  0  0  0
 21 58  1  0  0  0  0
 21 59  1  0  0  0  0
 22 25  1  0  0  0  0
 22 60  1  0  0  0  0
 22 61  1  0  0  0  0
 23 26  1  0  0  0  0
 23 62  1  0  0  0  0
 23 63  1  0  0  0  0
 24 25  2  3  0  0  0
 24 64  1  0  0  0  0
 25 65  1  0  0  0  0
 26 66  1  0  0  0  0
 26 67  1  0  0  0  0
 26 68  1  0  0  0  0
 27 69  1  0  0  0  0
 27 70  1  0  0  0  0
 27 71  1  0  0  0  0
M  END
> <PUBCHEM_COMPOUND_CID>
582847

> <PUBCHEM_COMPOUND_CANONICALIZED>
1

> <PUBCHEM_CACTVS_COMPLEXITY>
367

> <PUBCHEM_CACTVS_HBOND_ACCEPTOR>
4

> <PUBCHEM_CACTVS_HBOND_DONOR>
0

> <PUBCHEM_CACTVS_ROTATABLE_BOND>
17

> <PUBCHEM_CACTVS_SUBSKEYS>
AAADcfB4OAAAAAAAAAAAAAAAAAAAASAAAAAAAAAAAAAAAAAAAAAAGgAAAAAACBSggAICCAAABACAACBCAAAAAAAgAAAICAAAAAgRAAIAAQAiAAAFwAAOAAMAgIAAAAAAAAAAAAAAAAAAAAAAAAAAAAAAAA==

> <PUBCHEM_IUPAC_OPENEYE_NAME>
4-(2-methoxyhexadec-4-enoxymethyl)-2,2-dimethyl-1,3-dioxolane

> <PUBCHEM_IUPAC_CAS_NAME>
4-(2-methoxyhexadec-4-enoxymethyl)-2,2-dimethyl-1,3-dioxolane

> <PUBCHEM_IUPAC_NAME>
4-(2-methoxyhexadec-4-enoxymethyl)-2,2-dimethyl-1,3-dioxolane

> <PUBCHEM_IUPAC_SYSTEMATIC_NAME>
4-(2-methoxyhexadec-4-enoxymethyl)-2,2-dimethyl-1,3-dioxolane

> <PUBCHEM_IUPAC_TRADITIONAL_NAME>
4-(2-methoxyhexadec-4-enoxymethyl)-2,2-dimethyl-1,3-dioxolane

> <PUBCHEM_IUPAC_INCHI>
InChI=1S/C23H44O4/c1-5-6-7-8-9-10-11-12-13-14-15-16-17-21(24-4)18-25-19-22-20-26-23(2,3)27-22/h15-16,21-22H,5-14,17-20H2,1-4H3

> <PUBCHEM_IUPAC_INCHIKEY>
CHPUBIWBHRLOHK-UHFFFAOYSA-N

> <PUBCHEM_XLOGP3_AA>
6.9

> <PUBCHEM_EXACT_MASS>
384.32396

> <PUBCHEM_MOLECULAR_FORMULA>
C23H44O4

> <PUBCHEM_MOLECULAR_WEIGHT>
384.59306

> <PUBCHEM_OPENEYE_CAN_SMILES>
CCCCCCCCCCCC=CCC(COCC1COC(O1)(C)C)OC

> <PUBCHEM_OPENEYE_ISO_SMILES>
CCCCCCCCCCCC=CCC(COCC1COC(O1)(C)C)OC

> <PUBCHEM_CACTVS_TPSA>
36.9

> <PUBCHEM_MONOISOTOPIC_WEIGHT>
384.32396

> <PUBCHEM_TOTAL_CHARGE>
0

> <PUBCHEM_HEAVY_ATOM_COUNT>
27

> <PUBCHEM_ATOM_DEF_STEREO_COUNT>
0

> <PUBCHEM_ATOM_UDEF_STEREO_COUNT>
2

> <PUBCHEM_BOND_DEF_STEREO_COUNT>
0

> <PUBCHEM_BOND_UDEF_STEREO_COUNT>
1

> <PUBCHEM_ISOTOPIC_ATOM_COUNT>
0

> <PUBCHEM_COMPONENT_COUNT>
1

> <PUBCHEM_CACTVS_TAUTO_COUNT>
1

> <PUBCHEM_COORDINATE_TYPE>
1
5
255

> <PUBCHEM_BONDANNOTATIONS>
24  25  1
20  4  3
5  12  3

$$$$

