582730
  -OEChem-06241222432D

 42 44  0     1  0  0  0  0  0999 V2000
    7.5701    3.4026    0.0000 O   0  0  0  0  0  0  0  0  0  0  0  0
    7.6138   -0.8608    0.0000 O   0  0  0  0  0  0  0  0  0  0  0  0
    6.3246   -2.0176    0.0000 O   0  0  0  0  0  0  0  0  0  0  0  0
    7.9244    0.0897    0.0000 O   0  0  0  0  0  0  0  0  0  0  0  0
    6.2781    0.6278    0.0000 N   0  0  0  0  0  0  0  0  0  0  0  0
    4.6783   -3.0890    0.0000 N   0  0  0  0  0  0  0  0  0  0  0  0
    4.9889   -0.5290    0.0000 C   0  0  0  0  0  0  0  0  0  0  0  0
    4.6783   -1.4795    0.0000 C   0  0  0  0  0  0  0  0  0  0  0  0
    5.9674   -0.3227    0.0000 C   0  0  3  0  0  0  0  0  0  0  0  0
    3.7320   -1.7842    0.0000 C   0  0  0  0  0  0  0  0  0  0  0  0
    3.7320   -2.7842    0.0000 C   0  0  0  0  0  0  0  0  0  0  0  0
    5.2619   -2.2842    0.0000 C   0  0  0  0  0  0  0  0  0  0  0  0
    2.8660   -1.2842    0.0000 C   0  0  0  0  0  0  0  0  0  0  0  0
    6.6353   -1.0670    0.0000 C   0  0  0  0  0  0  0  0  0  0  0  0
    2.8660   -3.2842    0.0000 C   0  0  0  0  0  0  0  0  0  0  0  0
    7.2566    0.8340    0.0000 C   0  0  0  0  0  0  0  0  0  0  0  0
    7.5673    1.7845    0.0000 C   0  0  0  0  0  0  0  0  0  0  0  0
    2.0000   -1.7842    0.0000 C   0  0  0  0  0  0  0  0  0  0  0  0
    2.0000   -2.7842    0.0000 C   0  0  0  0  0  0  0  0  0  0  0  0
    6.9809    2.5946    0.0000 C   0  0  0  0  0  0  0  0  0  0  0  0
    8.5189    2.0919    0.0000 C   0  0  0  0  0  0  0  0  0  0  0  0
    8.5206    3.0919    0.0000 C   0  0  0  0  0  0  0  0  0  0  0  0
    5.9809    2.5963    0.0000 C   0  0  0  0  0  0  0  0  0  0  0  0
    9.3306    3.6783    0.0000 C   0  0  0  0  0  0  0  0  0  0  0  0
    4.9684    0.0907    0.0000 H   0  0  0  0  0  0  0  0  0  0  0  0
    4.3751   -0.4416    0.0000 H   0  0  0  0  0  0  0  0  0  0  0  0
    5.5534    0.1387    0.0000 H   0  0  0  0  0  0  0  0  0  0  0  0
    5.8819   -2.2842    0.0000 H   0  0  0  0  0  0  0  0  0  0  0  0
    5.8640    1.0892    0.0000 H   0  0  0  0  0  0  0  0  0  0  0  0
    4.8709   -3.6783    0.0000 H   0  0  0  0  0  0  0  0  0  0  0  0
    2.8660   -0.6642    0.0000 H   0  0  0  0  0  0  0  0  0  0  0  0
    2.8660   -3.9042    0.0000 H   0  0  0  0  0  0  0  0  0  0  0  0
    1.4631   -1.4742    0.0000 H   0  0  0  0  0  0  0  0  0  0  0  0
    1.4631   -3.0942    0.0000 H   0  0  0  0  0  0  0  0  0  0  0  0
    9.0198    1.7266    0.0000 H   0  0  0  0  0  0  0  0  0  0  0  0
    5.9820    3.2163    0.0000 H   0  0  0  0  0  0  0  0  0  0  0  0
    5.3609    2.5974    0.0000 H   0  0  0  0  0  0  0  0  0  0  0  0
    5.9798    1.9763    0.0000 H   0  0  0  0  0  0  0  0  0  0  0  0
    9.6942    3.1760    0.0000 H   0  0  0  0  0  0  0  0  0  0  0  0
    9.8328    4.0418    0.0000 H   0  0  0  0  0  0  0  0  0  0  0  0
    8.9671    4.1805    0.0000 H   0  0  0  0  0  0  0  0  0  0  0  0
    8.0279   -1.3223    0.0000 H   0  0  0  0  0  0  0  0  0  0  0  0
  1 20  1  0  0  0  0
  1 22  1  0  0  0  0
  2 14  1  0  0  0  0
  2 42  1  0  0  0  0
  3 14  2  0  0  0  0
  4 16  2  0  0  0  0
  5  9  1  0  0  0  0
  5 16  1  0  0  0  0
  5 29  1  0  0  0  0
  6 11  1  0  0  0  0
  6 12  1  0  0  0  0
  6 30  1  0  0  0  0
  7  8  1  0  0  0  0
  7  9  1  0  0  0  0
  7 25  1  0  0  0  0
  7 26  1  0  0  0  0
  8 10  1  0  0  0  0
  8 12  2  0  0  0  0
  9 14  1  0  0  0  0
  9 27  1  0  0  0  0
 10 11  1  0  0  0  0
 10 13  2  0  0  0  0
 11 15  2  0  0  0  0
 12 28  1  0  0  0  0
 13 18  1  0  0  0  0
 13 31  1  0  0  0  0
 15 19  1  0  0  0  0
 15 32  1  0  0  0  0
 16 17  1  0  0  0  0
 17 20  2  0  0  0  0
 17 21  1  0  0  0  0
 18 19  2  0  0  0  0
 18 33  1  0  0  0  0
 19 34  1  0  0  0  0
 20 23  1  0  0  0  0
 21 22  2  0  0  0  0
 21 35  1  0  0  0  0
 22 24  1  0  0  0  0
 23 36  1  0  0  0  0
 23 37  1  0  0  0  0
 23 38  1  0  0  0  0
 24 39  1  0  0  0  0
 24 40  1  0  0  0  0
 24 41  1  0  0  0  0
M  END
> <PUBCHEM_COMPOUND_CID>
582730

> <PUBCHEM_COMPOUND_CANONICALIZED>
1

> <PUBCHEM_CACTVS_COMPLEXITY>
484

> <PUBCHEM_CACTVS_HBOND_ACCEPTOR>
4

> <PUBCHEM_CACTVS_HBOND_DONOR>
3

> <PUBCHEM_CACTVS_ROTATABLE_BOND>
5

> <PUBCHEM_CACTVS_SUBSKEYS>
AAADceB7OAAAAAAAAAAAAAAAAAAAAWJAAAAwAAAAAAAAAFgB/AAAHgAQCAAADCzBngQ+zPLJlkCoA7X3XACCiCA1IiAI2aG+bNgOJv7MtbuGeWjm9hHY6Ye/2fKOgAAAAAACAAAAAAAAAAQAAAAAAAAAAA==

> <PUBCHEM_IUPAC_OPENEYE_NAME>
2-[(2,5-dimethylfuran-3-carbonyl)amino]-3-(1H-indol-3-yl)propanoic acid

> <PUBCHEM_IUPAC_CAS_NAME>
2-[[(2,5-dimethyl-3-furanyl)-oxomethyl]amino]-3-(1H-indol-3-yl)propanoic acid

> <PUBCHEM_IUPAC_NAME>
2-[(2,5-dimethylfuran-3-carbonyl)amino]-3-(1H-indol-3-yl)propanoic acid

> <PUBCHEM_IUPAC_SYSTEMATIC_NAME>
2-[(2,5-dimethylfuran-3-yl)carbonylamino]-3-(1H-indol-3-yl)propanoic acid

> <PUBCHEM_IUPAC_TRADITIONAL_NAME>
2-[(2,5-dimethyl-3-furoyl)amino]-3-(1H-indol-3-yl)propionic acid

> <PUBCHEM_IUPAC_INCHI>
InChI=1S/C18H18N2O4/c1-10-7-14(11(2)24-10)17(21)20-16(18(22)23)8-12-9-19-15-6-4-3-5-13(12)15/h3-7,9,16,19H,8H2,1-2H3,(H,20,21)(H,22,23)

> <PUBCHEM_IUPAC_INCHIKEY>
HPDUKLAIVGLGIH-UHFFFAOYSA-N

> <PUBCHEM_XLOGP3>
2.1

> <PUBCHEM_EXACT_MASS>
326.126657

> <PUBCHEM_MOLECULAR_FORMULA>
C18H18N2O4

> <PUBCHEM_MOLECULAR_WEIGHT>
326.34652

> <PUBCHEM_OPENEYE_CAN_SMILES>
CC1=CC(=C(O1)C)C(=O)NC(CC2=CNC3=CC=CC=C32)C(=O)O

> <PUBCHEM_OPENEYE_ISO_SMILES>
CC1=CC(=C(O1)C)C(=O)NC(CC2=CNC3=CC=CC=C32)C(=O)O

> <PUBCHEM_CACTVS_TPSA>
95.3

> <PUBCHEM_MONOISOTOPIC_WEIGHT>
326.126657

> <PUBCHEM_TOTAL_CHARGE>
0

> <PUBCHEM_HEAVY_ATOM_COUNT>
24

> <PUBCHEM_ATOM_DEF_STEREO_COUNT>
0

> <PUBCHEM_ATOM_UDEF_STEREO_COUNT>
1

> <PUBCHEM_BOND_DEF_STEREO_COUNT>
0

> <PUBCHEM_BOND_UDEF_STEREO_COUNT>
0

> <PUBCHEM_ISOTOPIC_ATOM_COUNT>
0

> <PUBCHEM_COMPONENT_COUNT>
1

> <PUBCHEM_CACTVS_TAUTO_COUNT>
2

> <PUBCHEM_COORDINATE_TYPE>
1
5
255

> <PUBCHEM_BONDANNOTATIONS>
1  20  8
1  22  8
10  11  8
10  13  8
11  15  8
13  18  8
15  19  8
17  20  8
17  21  8
18  19  8
21  22  8
6  11  8
6  12  8
9  7  3
8  10  8
8  12  8

$$$$

