8661
  -OEChem-06261202592D

 64 65  0     0  0  0  0  0  0999 V2000
    5.0984    0.8660    0.0000 S   0  0  0  0  0  0  0  0  0  0  0  0
    5.0984    4.6194    0.0000 S   0  0  0  0  0  0  0  0  0  0  0  0
    5.7998    9.6614    0.0000 O   0  0  0  0  0  0  0  0  0  0  0  0
    5.9644    1.3660    0.0000 O   0  0  0  0  0  0  0  0  0  0  0  0
    5.9644    5.1194    0.0000 O   0  0  0  0  0  0  0  0  0  0  0  0
    4.2323    0.3660    0.0000 O   0  5  0  0  0  0  0  0  0  0  0  0
    4.2323    4.1194    0.0000 O   0  5  0  0  0  0  0  0  0  0  0  0
    4.5984    5.4854    0.0000 O   0  0  0  0  0  0  0  0  0  0  0  0
    5.5984    3.7534    0.0000 O   0  0  0  0  0  0  0  0  0  0  0  0
    4.5984    1.7320    0.0000 O   0  0  0  0  0  0  0  0  0  0  0  0
    5.5984    0.0000    0.0000 O   0  0  0  0  0  0  0  0  0  0  0  0
   10.1579    9.1267    0.0000 N   0  3  0  0  0  0  0  0  0  0  0  0
    1.4418    9.1267    0.0000 N   0  3  0  0  0  0  0  0  0  0  0  0
    6.6659   11.1614    0.0000 N   0  0  0  0  0  0  0  0  0  0  0  0
    4.9338   11.1614    0.0000 N   0  0  0  0  0  0  0  0  0  0  0  0
    2.3358    9.6614    0.0000 C   0  0  0  0  0  0  0  0  0  0  0  0
    9.2640    9.6614    0.0000 C   0  0  0  0  0  0  0  0  0  0  0  0
    9.2640   10.6614    0.0000 C   0  0  0  0  0  0  0  0  0  0  0  0
    2.3358   10.6614    0.0000 C   0  0  0  0  0  0  0  0  0  0  0  0
    4.0678   10.6614    0.0000 C   0  0  0  0  0  0  0  0  0  0  0  0
    7.5319   10.6614    0.0000 C   0  0  0  0  0  0  0  0  0  0  0  0
    8.3979   11.1614    0.0000 C   0  0  0  0  0  0  0  0  0  0  0  0
    3.2018   11.1614    0.0000 C   0  0  0  0  0  0  0  0  0  0  0  0
    3.2018    9.1614    0.0000 C   0  0  0  0  0  0  0  0  0  0  0  0
    8.3979    9.1614    0.0000 C   0  0  0  0  0  0  0  0  0  0  0  0
    7.5319    9.6614    0.0000 C   0  0  0  0  0  0  0  0  0  0  0  0
    4.0678    9.6614    0.0000 C   0  0  0  0  0  0  0  0  0  0  0  0
   10.1579   11.1960    0.0000 C   0  0  0  0  0  0  0  0  0  0  0  0
    1.4418   11.1960    0.0000 C   0  0  0  0  0  0  0  0  0  0  0  0
   11.0640    9.6405    0.0000 C   0  0  0  0  0  0  0  0  0  0  0  0
    0.5357    9.6405    0.0000 C   0  0  0  0  0  0  0  0  0  0  0  0
   11.0640   10.6822    0.0000 C   0  0  0  0  0  0  0  0  0  0  0  0
    0.5357   10.6822    0.0000 C   0  0  0  0  0  0  0  0  0  0  0  0
    1.4534    8.1268    0.0000 C   0  0  0  0  0  0  0  0  0  0  0  0
   10.1463    8.1268    0.0000 C   0  0  0  0  0  0  0  0  0  0  0  0
    5.7998   10.6614    0.0000 C   0  0  0  0  0  0  0  0  0  0  0  0
    6.8304    0.8660    0.0000 C   0  0  0  0  0  0  0  0  0  0  0  0
    6.8304    4.6194    0.0000 C   0  0  0  0  0  0  0  0  0  0  0  0
    3.2018   11.7814    0.0000 H   0  0  0  0  0  0  0  0  0  0  0  0
    8.3979   11.7814    0.0000 H   0  0  0  0  0  0  0  0  0  0  0  0
    3.2018    8.5414    0.0000 H   0  0  0  0  0  0  0  0  0  0  0  0
    8.3979    8.5414    0.0000 H   0  0  0  0  0  0  0  0  0  0  0  0
    4.6047    9.3514    0.0000 H   0  0  0  0  0  0  0  0  0  0  0  0
    6.9950    9.3514    0.0000 H   0  0  0  0  0  0  0  0  0  0  0  0
    1.4490   11.8160    0.0000 H   0  0  0  0  0  0  0  0  0  0  0  0
   10.1507   11.8160    0.0000 H   0  0  0  0  0  0  0  0  0  0  0  0
    0.0000    9.3285    0.0000 H   0  0  0  0  0  0  0  0  0  0  0  0
   11.5997    9.3285    0.0000 H   0  0  0  0  0  0  0  0  0  0  0  0
    0.0000   10.9942    0.0000 H   0  0  0  0  0  0  0  0  0  0  0  0
   11.5997   10.9942    0.0000 H   0  0  0  0  0  0  0  0  0  0  0  0
    6.6659   11.7814    0.0000 H   0  0  0  0  0  0  0  0  0  0  0  0
    4.9338   11.7814    0.0000 H   0  0  0  0  0  0  0  0  0  0  0  0
    0.8334    8.1196    0.0000 H   0  0  0  0  0  0  0  0  0  0  0  0
    1.4605    7.5068    0.0000 H   0  0  0  0  0  0  0  0  0  0  0  0
    9.5264    8.1339    0.0000 H   0  0  0  0  0  0  0  0  0  0  0  0
   10.1392    7.5068    0.0000 H   0  0  0  0  0  0  0  0  0  0  0  0
   10.7663    8.1196    0.0000 H   0  0  0  0  0  0  0  0  0  0  0  0
    2.0733    8.1339    0.0000 H   0  0  0  0  0  0  0  0  0  0  0  0
    6.5204    0.3291    0.0000 H   0  0  0  0  0  0  0  0  0  0  0  0
    7.3674    0.5560    0.0000 H   0  0  0  0  0  0  0  0  0  0  0  0
    6.5204    4.0825    0.0000 H   0  0  0  0  0  0  0  0  0  0  0  0
    7.3674    4.3094    0.0000 H   0  0  0  0  0  0  0  0  0  0  0  0
    7.1404    5.1564    0.0000 H   0  0  0  0  0  0  0  0  0  0  0  0
    7.1404    1.4030    0.0000 H   0  0  0  0  0  0  0  0  0  0  0  0
  1  4  1  0  0  0  0
  1  6  1  0  0  0  0
  1 10  2  0  0  0  0
  1 11  2  0  0  0  0
  2  5  1  0  0  0  0
  2  7  1  0  0  0  0
  2  8  2  0  0  0  0
  2  9  2  0  0  0  0
  3 36  2  0  0  0  0
  4 37  1  0  0  0  0
  5 38  1  0  0  0  0
 12 17  1  0  0  0  0
 12 30  2  0  0  0  0
 12 35  1  0  0  0  0
 13 16  1  0  0  0  0
 13 31  2  0  0  0  0
 13 34  1  0  0  0  0
 14 21  1  0  0  0  0
 14 36  1  0  0  0  0
 14 51  1  0  0  0  0
 15 20  1  0  0  0  0
 15 36  1  0  0  0  0
 15 52  1  0  0  0  0
 16 19  2  0  0  0  0
 16 24  1  0  0  0  0
 17 18  2  0  0  0  0
 17 25  1  0  0  0  0
 18 22  1  0  0  0  0
 18 28  1  0  0  0  0
 19 23  1  0  0  0  0
 19 29  1  0  0  0  0
 20 23  2  0  0  0  0
 20 27  1  0  0  0  0
 21 22  2  0  0  0  0
 21 26  1  0  0  0  0
 22 40  1  0  0  0  0
 23 39  1  0  0  0  0
 24 27  2  0  0  0  0
 24 41  1  0  0  0  0
 25 26  2  0  0  0  0
 25 42  1  0  0  0  0
 26 44  1  0  0  0  0
 27 43  1  0  0  0  0
 28 32  2  0  0  0  0
 28 46  1  0  0  0  0
 29 33  2  0  0  0  0
 29 45  1  0  0  0  0
 30 32  1  0  0  0  0
 30 48  1  0  0  0  0
 31 33  1  0  0  0  0
 31 47  1  0  0  0  0
 32 50  1  0  0  0  0
 33 49  1  0  0  0  0
 34 53  1  0  0  0  0
 34 54  1  0  0  0  0
 34 58  1  0  0  0  0
 35 55  1  0  0  0  0
 35 56  1  0  0  0  0
 35 57  1  0  0  0  0
 37 59  1  0  0  0  0
 37 60  1  0  0  0  0
 37 64  1  0  0  0  0
 38 61  1  0  0  0  0
 38 62  1  0  0  0  0
 38 63  1  0  0  0  0
M  CHG  4   6  -1   7  -1  12   1  13   1
M  END
> <PUBCHEM_COMPOUND_CID>
8661

> <PUBCHEM_COMPOUND_CANONICALIZED>
1

> <PUBCHEM_CACTVS_COMPLEXITY>
547

> <PUBCHEM_CACTVS_HBOND_ACCEPTOR>
9

> <PUBCHEM_CACTVS_HBOND_DONOR>
2

> <PUBCHEM_CACTVS_ROTATABLE_BOND>
2

> <PUBCHEM_CACTVS_SUBSKEYS>
AAADceB7vABgAAAAAAAAAAAAAAAAAAAAAAA8eIEAAAAAAACx/gAAHgAQAAAADAjBHgY/wPPMEACoAzRnVDCCgCAxAiAI2CA4ZJiIIOLAkZGEIAholALIyCcQgIAOAACAQAACAAAAAQCAAAQAAAAAAAAAAA==

> <PUBCHEM_IUPAC_OPENEYE_NAME>
1,3-bis(1-methylquinolin-1-ium-6-yl)urea; methyl sulfate

> <PUBCHEM_IUPAC_CAS_NAME>
1,3-bis(1-methyl-6-quinolin-1-iumyl)urea; methyl sulfate

> <PUBCHEM_IUPAC_NAME>
1,3-bis(1-methylquinolin-1-ium-6-yl)urea; methyl sulfate

> <PUBCHEM_IUPAC_SYSTEMATIC_NAME>
1,3-bis(1-methylquinolin-1-ium-6-yl)urea; methyl sulfate

> <PUBCHEM_IUPAC_TRADITIONAL_NAME>
1,3-bis(1-methylquinolin-1-ium-6-yl)urea; methyl sulfate

> <PUBCHEM_IUPAC_INCHI>
InChI=1S/C21H19N4O.2CH4O4S/c1-24-11-3-5-15-13-17(7-9-19(15)24)22-21(26)23-18-8-10-20-16(14-18)6-4-12-25(20)2;2*1-5-6(2,3)4/h3-14H,1-2H3,(H-,22,23,26);2*1H3,(H,2,3,4)/q+1;;/p-1

> <PUBCHEM_IUPAC_INCHIKEY>
BOMUADPKDXMXIH-UHFFFAOYSA-M

> <PUBCHEM_EXACT_MASS>
566.11412

> <PUBCHEM_MOLECULAR_FORMULA>
C23H26N4O9S2

> <PUBCHEM_MOLECULAR_WEIGHT>
566.60394

> <PUBCHEM_OPENEYE_CAN_SMILES>
C[N+]1=CC=CC2=C1C=CC(=C2)NC(=O)NC3=CC4=C(C=C3)[N+](=CC=C4)C.COS(=O)(=O)[O-].COS(=O)(=O)[O-]

> <PUBCHEM_OPENEYE_ISO_SMILES>
C[N+]1=CC=CC2=C1C=CC(=C2)NC(=O)NC3=CC4=C(C=C3)[N+](=CC=C4)C.COS(=O)(=O)[O-].COS(=O)(=O)[O-]

> <PUBCHEM_CACTVS_TPSA>
199

> <PUBCHEM_MONOISOTOPIC_WEIGHT>
566.11412

> <PUBCHEM_TOTAL_CHARGE>
0

> <PUBCHEM_HEAVY_ATOM_COUNT>
38

> <PUBCHEM_ATOM_DEF_STEREO_COUNT>
0

> <PUBCHEM_ATOM_UDEF_STEREO_COUNT>
0

> <PUBCHEM_BOND_DEF_STEREO_COUNT>
0

> <PUBCHEM_BOND_UDEF_STEREO_COUNT>
0

> <PUBCHEM_ISOTOPIC_ATOM_COUNT>
0

> <PUBCHEM_COMPONENT_COUNT>
3

> <PUBCHEM_CACTVS_TAUTO_COUNT>
2

> <PUBCHEM_COORDINATE_TYPE>
1
5
255

> <PUBCHEM_BONDANNOTATIONS>
12  17  8
12  30  8
13  16  8
13  31  8
16  19  8
16  24  8
17  18  8
17  25  8
18  22  8
18  28  8
19  23  8
19  29  8
20  23  8
20  27  8
21  22  8
21  26  8
24  27  8
25  26  8
28  32  8
29  33  8
30  32  8
31  33  8

$$$$

