3334
  -OEChem-06251223202D

 34 36  0     0  0  0  0  0  0999 V2000
    4.5981    1.1690    0.0000 S   0  0  0  0  0  0  0  0  0  0  0  0
   11.2260   -0.6970    0.0000 O   0  0  0  0  0  0  0  0  0  0  0  0
    9.7260   -1.5630    0.0000 O   0  0  0  0  0  0  0  0  0  0  0  0
    8.1424    0.9737    0.0000 N   0  0  0  0  0  0  0  0  0  0  0  0
    8.1424   -0.6357    0.0000 N   0  0  0  0  0  0  0  0  0  0  0  0
    9.7260    0.1690    0.0000 N   0  0  0  0  0  0  0  0  0  0  0  0
    7.1962    0.6690    0.0000 C   0  0  0  0  0  0  0  0  0  0  0  0
    7.1962   -0.3310    0.0000 C   0  0  0  0  0  0  0  0  0  0  0  0
    6.3301    1.1690    0.0000 C   0  0  0  0  0  0  0  0  0  0  0  0
    5.4641    0.6690    0.0000 C   0  0  0  0  0  0  0  0  0  0  0  0
    8.7260    0.1690    0.0000 C   0  0  0  0  0  0  0  0  0  0  0  0
    6.3301   -0.8310    0.0000 C   0  0  0  0  0  0  0  0  0  0  0  0
    5.4641   -0.3310    0.0000 C   0  0  0  0  0  0  0  0  0  0  0  0
    3.7320    0.6690    0.0000 C   0  0  0  0  0  0  0  0  0  0  0  0
    2.8660    1.1690    0.0000 C   0  0  0  0  0  0  0  0  0  0  0  0
    3.7320   -0.3310    0.0000 C   0  0  0  0  0  0  0  0  0  0  0  0
    2.0000    0.6690    0.0000 C   0  0  0  0  0  0  0  0  0  0  0  0
    2.8660   -0.8310    0.0000 C   0  0  0  0  0  0  0  0  0  0  0  0
   10.2260   -0.6970    0.0000 C   0  0  0  0  0  0  0  0  0  0  0  0
    2.0000   -0.3310    0.0000 C   0  0  0  0  0  0  0  0  0  0  0  0
   11.7260   -1.5630    0.0000 C   0  0  0  0  0  0  0  0  0  0  0  0
    6.3301    1.7890    0.0000 H   0  0  0  0  0  0  0  0  0  0  0  0
    8.3350    1.5630    0.0000 H   0  0  0  0  0  0  0  0  0  0  0  0
    6.3301   -1.4510    0.0000 H   0  0  0  0  0  0  0  0  0  0  0  0
    4.9272   -0.6410    0.0000 H   0  0  0  0  0  0  0  0  0  0  0  0
   10.0360    0.7059    0.0000 H   0  0  0  0  0  0  0  0  0  0  0  0
    2.8660    1.7890    0.0000 H   0  0  0  0  0  0  0  0  0  0  0  0
    4.2690   -0.6410    0.0000 H   0  0  0  0  0  0  0  0  0  0  0  0
    1.4631    0.9790    0.0000 H   0  0  0  0  0  0  0  0  0  0  0  0
    2.8660   -1.4510    0.0000 H   0  0  0  0  0  0  0  0  0  0  0  0
    1.4631   -0.6410    0.0000 H   0  0  0  0  0  0  0  0  0  0  0  0
   11.1890   -1.8730    0.0000 H   0  0  0  0  0  0  0  0  0  0  0  0
   12.0360   -2.1000    0.0000 H   0  0  0  0  0  0  0  0  0  0  0  0
   12.2629   -1.2530    0.0000 H   0  0  0  0  0  0  0  0  0  0  0  0
  1 10  1  0  0  0  0
  1 14  1  0  0  0  0
  2 19  1  0  0  0  0
  2 21  1  0  0  0  0
  3 19  2  0  0  0  0
  4  7  1  0  0  0  0
  4 11  1  0  0  0  0
  4 23  1  0  0  0  0
  5  8  1  0  0  0  0
  5 11  2  0  0  0  0
  6 11  1  0  0  0  0
  6 19  1  0  0  0  0
  6 26  1  0  0  0  0
  7  8  2  0  0  0  0
  7  9  1  0  0  0  0
  8 12  1  0  0  0  0
  9 10  2  0  0  0  0
  9 22  1  0  0  0  0
 10 13  1  0  0  0  0
 12 13  2  0  0  0  0
 12 24  1  0  0  0  0
 13 25  1  0  0  0  0
 14 15  2  0  0  0  0
 14 16  1  0  0  0  0
 15 17  1  0  0  0  0
 15 27  1  0  0  0  0
 16 18  2  0  0  0  0
 16 28  1  0  0  0  0
 17 20  2  0  0  0  0
 17 29  1  0  0  0  0
 18 20  1  0  0  0  0
 18 30  1  0  0  0  0
 20 31  1  0  0  0  0
 21 32  1  0  0  0  0
 21 33  1  0  0  0  0
 21 34  1  0  0  0  0
M  END
> <PUBCHEM_COMPOUND_CID>
3334

> <PUBCHEM_COMPOUND_CANONICALIZED>
1

> <PUBCHEM_CACTVS_COMPLEXITY>
363

> <PUBCHEM_CACTVS_HBOND_ACCEPTOR>
4

> <PUBCHEM_CACTVS_HBOND_DONOR>
2

> <PUBCHEM_CACTVS_ROTATABLE_BOND>
4

> <PUBCHEM_CACTVS_SUBSKEYS>
AAADccBzMABAAAAAAAAAAAAAAAAAAWAAAAAwYAAAAAAAAFgB9AAAHgQQAAAACAiBVgIz2bbJlAioASRifACCgC2hGrAJmTgwdJmIaKLgmZGUIAxokQJoyCcQAAAAAAQAACAAACAACAAAQAAAQAAAAAAAAA==

> <PUBCHEM_IUPAC_OPENEYE_NAME>
methyl N-(6-phenylsulfanyl-1H-benzimidazol-2-yl)carbamate

> <PUBCHEM_IUPAC_CAS_NAME>
N-[6-(phenylthio)-1H-benzimidazol-2-yl]carbamic acid methyl ester

> <PUBCHEM_IUPAC_NAME>
methyl N-(6-phenylsulfanyl-1H-benzimidazol-2-yl)carbamate

> <PUBCHEM_IUPAC_SYSTEMATIC_NAME>
methyl N-(6-phenylsulfanyl-1H-benzimidazol-2-yl)carbamate

> <PUBCHEM_IUPAC_TRADITIONAL_NAME>
N-[6-(phenylthio)-1H-benzimidazol-2-yl]carbamic acid methyl ester

> <PUBCHEM_IUPAC_INCHI>
InChI=1S/C15H13N3O2S/c1-20-15(19)18-14-16-12-8-7-11(9-13(12)17-14)21-10-5-3-2-4-6-10/h2-9H,1H3,(H2,16,17,18,19)

> <PUBCHEM_IUPAC_INCHIKEY>
HDDSHPAODJUKPD-UHFFFAOYSA-N

> <PUBCHEM_XLOGP3>
3.6

> <PUBCHEM_EXACT_MASS>
299.072848

> <PUBCHEM_MOLECULAR_FORMULA>
C15H13N3O2S

> <PUBCHEM_MOLECULAR_WEIGHT>
299.34762

> <PUBCHEM_OPENEYE_CAN_SMILES>
COC(=O)NC1=NC2=C(N1)C=C(C=C2)SC3=CC=CC=C3

> <PUBCHEM_OPENEYE_ISO_SMILES>
COC(=O)NC1=NC2=C(N1)C=C(C=C2)SC3=CC=CC=C3

> <PUBCHEM_CACTVS_TPSA>
92.3

> <PUBCHEM_MONOISOTOPIC_WEIGHT>
299.072848

> <PUBCHEM_TOTAL_CHARGE>
0

> <PUBCHEM_HEAVY_ATOM_COUNT>
21

> <PUBCHEM_ATOM_DEF_STEREO_COUNT>
0

> <PUBCHEM_ATOM_UDEF_STEREO_COUNT>
0

> <PUBCHEM_BOND_DEF_STEREO_COUNT>
0

> <PUBCHEM_BOND_UDEF_STEREO_COUNT>
0

> <PUBCHEM_ISOTOPIC_ATOM_COUNT>
0

> <PUBCHEM_COMPONENT_COUNT>
1

> <PUBCHEM_CACTVS_TAUTO_COUNT>
5

> <PUBCHEM_COORDINATE_TYPE>
1
5
255

> <PUBCHEM_BONDANNOTATIONS>
10  13  8
12  13  8
14  15  8
14  16  8
15  17  8
16  18  8
17  20  8
18  20  8
4  11  8
4  7  8
5  11  8
5  8  8
7  8  8
7  9  8
8  12  8
9  10  8

$$$$

