854072
  -OEChem-06241222472D

 21 21  0     1  0  0  0  0  0999 V2000
    5.9062    1.2385    0.0000 O   0  0  0  0  0  0  0  0  0  0  0  0
    5.3710   -0.4088    0.0000 O   0  0  0  0  0  0  0  0  0  0  0  0
    4.2690   -1.2094    0.0000 O   0  0  0  0  0  0  0  0  0  0  0  0
    3.4030    0.2906    0.0000 N   0  0  0  0  0  0  0  0  0  0  0  0
    2.5369   -1.2094    0.0000 N   0  0  0  0  0  0  0  0  0  0  0  0
    4.2120    0.8784    0.0000 C   0  0  2  0  0  0  0  0  0  0  0  0
    3.9030    1.8294    0.0000 C   0  0  0  0  0  0  0  0  0  0  0  0
    2.9030    1.8294    0.0000 C   0  0  0  0  0  0  0  0  0  0  0  0
    2.5939    0.8784    0.0000 C   0  0  0  0  0  0  0  0  0  0  0  0
    5.1630    0.5693    0.0000 C   0  0  0  0  0  0  0  0  0  0  0  0
    3.4030   -0.7094    0.0000 C   0  0  0  0  0  0  0  0  0  0  0  0
    4.3090    0.2660    0.0000 H   0  0  0  0  0  0  0  0  0  0  0  0
    4.5094    1.9583    0.0000 H   0  0  0  0  0  0  0  0  0  0  0  0
    3.8382    2.4460    0.0000 H   0  0  0  0  0  0  0  0  0  0  0  0
    2.9678    2.4460    0.0000 H   0  0  0  0  0  0  0  0  0  0  0  0
    2.2965    1.9583    0.0000 H   0  0  0  0  0  0  0  0  0  0  0  0
    2.0276    1.1305    0.0000 H   0  0  0  0  0  0  0  0  0  0  0  0
    2.2839    0.3414    0.0000 H   0  0  0  0  0  0  0  0  0  0  0  0
    2.5369   -1.8294    0.0000 H   0  0  0  0  0  0  0  0  0  0  0  0
    2.0000   -0.8994    0.0000 H   0  0  0  0  0  0  0  0  0  0  0  0
    6.4958    1.0469    0.0000 H   0  0  0  0  0  0  0  0  0  0  0  0
  1 10  1  0  0  0  0
  1 21  1  0  0  0  0
  2 10  2  0  0  0  0
  3 11  2  0  0  0  0
  4  6  1  0  0  0  0
  4  9  1  0  0  0  0
  4 11  1  0  0  0  0
  5 11  1  0  0  0  0
  5 19  1  0  0  0  0
  5 20  1  0  0  0  0
  6  7  1  0  0  0  0
  6 10  1  6  0  0  0
  6 12  1  0  0  0  0
  7  8  1  0  0  0  0
  7 13  1  0  0  0  0
  7 14  1  0  0  0  0
  8  9  1  0  0  0  0
  8 15  1  0  0  0  0
  8 16  1  0  0  0  0
  9 17  1  0  0  0  0
  9 18  1  0  0  0  0
M  END
> <PUBCHEM_COMPOUND_CID>
854072

> <PUBCHEM_COMPOUND_CANONICALIZED>
1

> <PUBCHEM_CACTVS_COMPLEXITY>
192

> <PUBCHEM_CACTVS_HBOND_ACCEPTOR>
3

> <PUBCHEM_CACTVS_HBOND_DONOR>
2

> <PUBCHEM_CACTVS_ROTATABLE_BOND>
1

> <PUBCHEM_CACTVS_SUBSKEYS>
AAADccBjMAAAAAAAAAAAAAAAAAAAAWAAAAAAAAAAAAAAAAAAAAAAHgAQCAAACCjBgAQBCANAAgAIAACQGAAAAAAAAAAAAAGIAACCABIAgCAEQAAEBgKQAACYEQIAAAAAAAAAAAAAAAAAAAAAAAAAAAAAAA==

> <PUBCHEM_IUPAC_OPENEYE_NAME>
(2R)-1-carbamoylpyrrolidine-2-carboxylic acid

> <PUBCHEM_IUPAC_CAS_NAME>
(2R)-1-carbamoyl-2-pyrrolidinecarboxylic acid

> <PUBCHEM_IUPAC_NAME>
(2R)-1-carbamoylpyrrolidine-2-carboxylic acid

> <PUBCHEM_IUPAC_SYSTEMATIC_NAME>
(2R)-1-aminocarbonylpyrrolidine-2-carboxylic acid

> <PUBCHEM_IUPAC_TRADITIONAL_NAME>
(2R)-1-carbamoylproline

> <PUBCHEM_IUPAC_INCHI>
InChI=1S/C6H10N2O3/c7-6(11)8-3-1-2-4(8)5(9)10/h4H,1-3H2,(H2,7,11)(H,9,10)/t4-/m1/s1

> <PUBCHEM_IUPAC_INCHIKEY>
RTNFBJXLYMERBB-SCSAIBSYSA-N

> <PUBCHEM_XLOGP3>
-0.5

> <PUBCHEM_EXACT_MASS>
158.069142

> <PUBCHEM_MOLECULAR_FORMULA>
C6H10N2O3

> <PUBCHEM_MOLECULAR_WEIGHT>
158.1552

> <PUBCHEM_OPENEYE_CAN_SMILES>
C1CC(N(C1)C(=O)N)C(=O)O

> <PUBCHEM_OPENEYE_ISO_SMILES>
C1C[C@@H](N(C1)C(=O)N)C(=O)O

> <PUBCHEM_CACTVS_TPSA>
83.6

> <PUBCHEM_MONOISOTOPIC_WEIGHT>
158.069142

> <PUBCHEM_TOTAL_CHARGE>
0

> <PUBCHEM_HEAVY_ATOM_COUNT>
11

> <PUBCHEM_ATOM_DEF_STEREO_COUNT>
1

> <PUBCHEM_ATOM_UDEF_STEREO_COUNT>
0

> <PUBCHEM_BOND_DEF_STEREO_COUNT>
0

> <PUBCHEM_BOND_UDEF_STEREO_COUNT>
0

> <PUBCHEM_ISOTOPIC_ATOM_COUNT>
0

> <PUBCHEM_COMPONENT_COUNT>
1

> <PUBCHEM_CACTVS_TAUTO_COUNT>
2

> <PUBCHEM_COORDINATE_TYPE>
1
5
255

> <PUBCHEM_BONDANNOTATIONS>
6  10  6

$$$$

