13784
  -OEChem-06241222402D

 50 51  0     0  0  0  0  0  0999 V2000
    3.2983    0.0000    0.0000 Cl  0  5  0  0  0  0  0  0  0  0  0  0
    3.6200    7.3671    0.0000 O   0  0  0  0  0  0  0  0  0  0  0  0
    5.6200    7.3671    0.0000 N   0  3  0  0  0  0  0  0  0  0  0  0
    4.7540    7.8671    0.0000 C   0  0  0  0  0  0  0  0  0  0  0  0
    6.4860    7.8671    0.0000 C   0  0  0  0  0  0  0  0  0  0  0  0
    4.7540    8.8671    0.0000 C   0  0  0  0  0  0  0  0  0  0  0  0
    6.4860    8.8671    0.0000 C   0  0  0  0  0  0  0  0  0  0  0  0
    5.6200    9.3671    0.0000 C   0  0  0  0  0  0  0  0  0  0  0  0
    5.1200    6.5010    0.0000 C   0  0  0  0  0  0  0  0  0  0  0  0
    4.1200    6.5010    0.0000 C   0  0  0  0  0  0  0  0  0  0  0  0
    3.6200    5.6350    0.0000 C   0  0  0  0  0  0  0  0  0  0  0  0
    2.6200    5.6350    0.0000 C   0  0  0  0  0  0  0  0  0  0  0  0
    2.1200    4.7690    0.0000 C   0  0  0  0  0  0  0  0  0  0  0  0
    2.1200    6.5010    0.0000 C   0  0  0  0  0  0  0  0  0  0  0  0
    1.1200    4.7690    0.0000 C   0  0  0  0  0  0  0  0  0  0  0  0
    2.6200    7.3671    0.0000 C   0  0  0  0  0  0  0  0  0  0  0  0
    2.6200    3.9030    0.0000 C   0  0  0  0  0  0  0  0  0  0  0  0
    1.1200    6.5010    0.0000 C   0  0  0  0  0  0  0  0  0  0  0  0
    0.6200    3.9030    0.0000 C   0  0  0  0  0  0  0  0  0  0  0  0
    2.1200    8.2331    0.0000 C   0  0  0  0  0  0  0  0  0  0  0  0
    0.6200    7.3671    0.0000 C   0  0  0  0  0  0  0  0  0  0  0  0
    2.1200    3.0369    0.0000 C   0  0  0  0  0  0  0  0  0  0  0  0
    1.1200    8.2331    0.0000 C   0  0  0  0  0  0  0  0  0  0  0  0
    1.1200    3.0369    0.0000 C   0  0  0  0  0  0  0  0  0  0  0  0
    5.9300    6.8301    0.0000 H   0  0  0  0  0  0  0  0  0  0  0  0
    6.6981    7.2844    0.0000 H   0  0  0  0  0  0  0  0  0  0  0  0
    7.0966    7.9747    0.0000 H   0  0  0  0  0  0  0  0  0  0  0  0
    4.1434    7.9747    0.0000 H   0  0  0  0  0  0  0  0  0  0  0  0
    4.5419    7.2844    0.0000 H   0  0  0  0  0  0  0  0  0  0  0  0
    7.0966    8.7594    0.0000 H   0  0  0  0  0  0  0  0  0  0  0  0
    6.6981    9.4497    0.0000 H   0  0  0  0  0  0  0  0  0  0  0  0
    4.5419    9.4497    0.0000 H   0  0  0  0  0  0  0  0  0  0  0  0
    4.1434    8.7594    0.0000 H   0  0  0  0  0  0  0  0  0  0  0  0
    6.0185    9.8420    0.0000 H   0  0  0  0  0  0  0  0  0  0  0  0
    5.2215    9.8420    0.0000 H   0  0  0  0  0  0  0  0  0  0  0  0
    5.0123    5.8905    0.0000 H   0  0  0  0  0  0  0  0  0  0  0  0
    5.7026    6.2890    0.0000 H   0  0  0  0  0  0  0  0  0  0  0  0
    3.5123    5.0244    0.0000 H   0  0  0  0  0  0  0  0  0  0  0  0
    4.2026    5.4230    0.0000 H   0  0  0  0  0  0  0  0  0  0  0  0
    2.9300    6.1720    0.0000 H   0  0  0  0  0  0  0  0  0  0  0  0
    3.2400    7.3671    0.0000 H   0  0  0  0  0  0  0  0  0  0  0  0
    0.8100    5.3059    0.0000 H   0  0  0  0  0  0  0  0  0  0  0  0
    0.8100    5.9641    0.0000 H   0  0  0  0  0  0  0  0  0  0  0  0
    3.2400    3.9030    0.0000 H   0  0  0  0  0  0  0  0  0  0  0  0
    2.4300    8.7700    0.0000 H   0  0  0  0  0  0  0  0  0  0  0  0
    0.0000    3.9030    0.0000 H   0  0  0  0  0  0  0  0  0  0  0  0
    0.0000    7.3671    0.0000 H   0  0  0  0  0  0  0  0  0  0  0  0
    2.4300    2.5000    0.0000 H   0  0  0  0  0  0  0  0  0  0  0  0
    0.8100    2.5000    0.0000 H   0  0  0  0  0  0  0  0  0  0  0  0
    0.8100    8.7700    0.0000 H   0  0  0  0  0  0  0  0  0  0  0  0
  2 10  2  0  0  0  0
  3  4  1  0  0  0  0
  3  5  1  0  0  0  0
  3  9  1  0  0  0  0
  3 25  1  0  0  0  0
  4  6  1  0  0  0  0
  4 28  1  0  0  0  0
  4 29  1  0  0  0  0
  5  7  1  0  0  0  0
  5 26  1  0  0  0  0
  5 27  1  0  0  0  0
  6  8  1  0  0  0  0
  6 32  1  0  0  0  0
  6 33  1  0  0  0  0
  7  8  1  0  0  0  0
  7 30  1  0  0  0  0
  7 31  1  0  0  0  0
  8 34  1  0  0  0  0
  8 35  1  0  0  0  0
  9 10  1  0  0  0  0
  9 36  1  0  0  0  0
  9 37  1  0  0  0  0
 10 11  1  0  0  0  0
 11 12  1  0  0  0  0
 11 38  1  0  0  0  0
 11 39  1  0  0  0  0
 12 13  1  0  0  0  0
 12 14  1  0  0  0  0
 12 40  1  0  0  0  0
 13 15  2  0  0  0  0
 13 17  1  0  0  0  0
 14 16  2  0  0  0  0
 14 18  1  0  0  0  0
 15 19  1  0  0  0  0
 15 42  1  0  0  0  0
 16 20  1  0  0  0  0
 16 41  1  0  0  0  0
 17 22  2  0  0  0  0
 17 44  1  0  0  0  0
 18 21  2  0  0  0  0
 18 43  1  0  0  0  0
 19 24  2  0  0  0  0
 19 46  1  0  0  0  0
 20 23  2  0  0  0  0
 20 45  1  0  0  0  0
 21 23  1  0  0  0  0
 21 47  1  0  0  0  0
 22 24  1  0  0  0  0
 22 48  1  0  0  0  0
 23 50  1  0  0  0  0
 24 49  1  0  0  0  0
M  CHG  2   1  -1   3   1
M  END
> <PUBCHEM_COMPOUND_CID>
13784

> <PUBCHEM_COMPOUND_CANONICALIZED>
1

> <PUBCHEM_CACTVS_COMPLEXITY>
331

> <PUBCHEM_CACTVS_HBOND_ACCEPTOR>
2

> <PUBCHEM_CACTVS_HBOND_DONOR>
1

> <PUBCHEM_CACTVS_ROTATABLE_BOND>
6

> <PUBCHEM_CACTVS_SUBSKEYS>
AAADceB6IAAEAAAAAAAAAAAAAAAAAAAAAAA8YIAAAAAAAAABQAAAHgAQAAAADQTBmAQwAIPAAACIAqBSAAACAAAgAAAIiIGIAIgIIDKAkTCEIAAgkACIiAcYiMCOgAAAAAAAAAAAAAAAAAAAAAAAAAAAAA==

> <PUBCHEM_IUPAC_OPENEYE_NAME>
4,4-diphenyl-1-piperidin-1-ium-1-yl-butan-2-one chloride

> <PUBCHEM_IUPAC_CAS_NAME>
4,4-diphenyl-1-(1-piperidin-1-iumyl)-2-butanone chloride

> <PUBCHEM_IUPAC_NAME>
4,4-diphenyl-1-piperidin-1-ium-1-ylbutan-2-one chloride

> <PUBCHEM_IUPAC_SYSTEMATIC_NAME>
4,4-diphenyl-1-piperidin-1-ium-1-yl-butan-2-one chloride

> <PUBCHEM_IUPAC_TRADITIONAL_NAME>
4,4-diphenyl-1-piperidin-1-ium-1-yl-butan-2-one chloride

> <PUBCHEM_IUPAC_INCHI>
InChI=1S/C21H25NO.ClH/c23-20(17-22-14-8-3-9-15-22)16-21(18-10-4-1-5-11-18)19-12-6-2-7-13-19;/h1-2,4-7,10-13,21H,3,8-9,14-17H2;1H

> <PUBCHEM_IUPAC_INCHIKEY>
FKTGGXXFDALBLU-UHFFFAOYSA-N

> <PUBCHEM_EXACT_MASS>
343.170292

> <PUBCHEM_MOLECULAR_FORMULA>
C21H26ClNO

> <PUBCHEM_MOLECULAR_WEIGHT>
343.89024

> <PUBCHEM_OPENEYE_CAN_SMILES>
C1CC[NH+](CC1)CC(=O)CC(C2=CC=CC=C2)C3=CC=CC=C3.[Cl-]

> <PUBCHEM_OPENEYE_ISO_SMILES>
C1CC[NH+](CC1)CC(=O)CC(C2=CC=CC=C2)C3=CC=CC=C3.[Cl-]

> <PUBCHEM_CACTVS_TPSA>
21.5

> <PUBCHEM_MONOISOTOPIC_WEIGHT>
343.170292

> <PUBCHEM_TOTAL_CHARGE>
0

> <PUBCHEM_HEAVY_ATOM_COUNT>
24

> <PUBCHEM_ATOM_DEF_STEREO_COUNT>
0

> <PUBCHEM_ATOM_UDEF_STEREO_COUNT>
0

> <PUBCHEM_BOND_DEF_STEREO_COUNT>
0

> <PUBCHEM_BOND_UDEF_STEREO_COUNT>
0

> <PUBCHEM_ISOTOPIC_ATOM_COUNT>
0

> <PUBCHEM_COMPONENT_COUNT>
2

> <PUBCHEM_CACTVS_TAUTO_COUNT>
3

> <PUBCHEM_COORDINATE_TYPE>
1
5
255

> <PUBCHEM_BONDANNOTATIONS>
13  15  8
13  17  8
14  16  8
14  18  8
15  19  8
16  20  8
17  22  8
18  21  8
19  24  8
20  23  8
21  23  8
22  24  8

$$$$

