17395625
  -OEChem-06241222512D

 39 40  0     1  0  0  0  0  0999 V2000
    2.0000   -3.2958    0.0000 S   0  0  0  0  0  0  0  0  0  0  0  0
    7.2640    4.2958    0.0000 O   0  0  0  0  0  0  0  0  0  0  0  0
    4.5981    0.2042    0.0000 O   0  0  0  0  0  0  0  0  0  0  0  0
    6.3301    1.2042    0.0000 N   0  0  3  0  0  0  0  0  0  0  0  0
    5.8301    3.3948    0.0000 N   0  0  0  0  0  0  0  0  0  0  0  0
    5.4641   -1.2958    0.0000 N   0  0  0  0  0  0  0  0  0  0  0  0
    5.4292    1.6381    0.0000 C   0  0  0  0  0  0  0  0  0  0  0  0
    7.2311    1.6381    0.0000 C   0  0  0  0  0  0  0  0  0  0  0  0
    5.2066    2.6130    0.0000 C   0  0  0  0  0  0  0  0  0  0  0  0
    7.4536    2.6130    0.0000 C   0  0  0  0  0  0  0  0  0  0  0  0
    6.3301    0.2042    0.0000 C   0  0  0  0  0  0  0  0  0  0  0  0
    6.8301    3.3948    0.0000 C   0  0  0  0  0  0  0  0  0  0  0  0
    5.4641   -0.2958    0.0000 C   0  0  0  0  0  0  0  0  0  0  0  0
    4.5981   -1.7958    0.0000 C   0  0  0  0  0  0  0  0  0  0  0  0
    3.7320   -1.2958    0.0000 C   0  0  0  0  0  0  0  0  0  0  0  0
    4.5981   -2.7958    0.0000 C   0  0  0  0  0  0  0  0  0  0  0  0
    2.8660   -1.7958    0.0000 C   0  0  0  0  0  0  0  0  0  0  0  0
    3.7320   -3.2958    0.0000 C   0  0  0  0  0  0  0  0  0  0  0  0
    2.8660   -2.7958    0.0000 C   0  0  0  0  0  0  0  0  0  0  0  0
    2.0000   -4.2958    0.0000 C   0  0  0  0  0  0  0  0  0  0  0  0
    4.8092    1.6381    0.0000 H   0  0  0  0  0  0  0  0  0  0  0  0
    5.2912    1.0336    0.0000 H   0  0  0  0  0  0  0  0  0  0  0  0
    7.3691    1.0336    0.0000 H   0  0  0  0  0  0  0  0  0  0  0  0
    7.8511    1.6381    0.0000 H   0  0  0  0  0  0  0  0  0  0  0  0
    4.8201    3.0977    0.0000 H   0  0  0  0  0  0  0  0  0  0  0  0
    4.6480    2.3440    0.0000 H   0  0  0  0  0  0  0  0  0  0  0  0
    8.0122    2.3440    0.0000 H   0  0  0  0  0  0  0  0  0  0  0  0
    7.8402    3.0977    0.0000 H   0  0  0  0  0  0  0  0  0  0  0  0
    6.5422   -0.3784    0.0000 H   0  0  0  0  0  0  0  0  0  0  0  0
    6.9407    0.3119    0.0000 H   0  0  0  0  0  0  0  0  0  0  0  0
    5.5611    3.9534    0.0000 H   0  0  0  0  0  0  0  0  0  0  0  0
    6.0010   -1.6058    0.0000 H   0  0  0  0  0  0  0  0  0  0  0  0
    3.7320   -0.6758    0.0000 H   0  0  0  0  0  0  0  0  0  0  0  0
    5.1350   -3.1058    0.0000 H   0  0  0  0  0  0  0  0  0  0  0  0
    2.3291   -1.4858    0.0000 H   0  0  0  0  0  0  0  0  0  0  0  0
    3.7320   -3.9158    0.0000 H   0  0  0  0  0  0  0  0  0  0  0  0
    1.3800   -4.2958    0.0000 H   0  0  0  0  0  0  0  0  0  0  0  0
    2.0000   -4.9158    0.0000 H   0  0  0  0  0  0  0  0  0  0  0  0
    2.6200   -4.2958    0.0000 H   0  0  0  0  0  0  0  0  0  0  0  0
  1 19  1  0  0  0  0
  1 20  1  0  0  0  0
  2 12  2  0  0  0  0
  3 13  2  0  0  0  0
  4  7  1  0  0  0  0
  4  8  1  0  0  0  0
  4 11  1  0  0  0  0
  5  9  1  0  0  0  0
  5 12  1  0  0  0  0
  5 31  1  0  0  0  0
  6 13  1  0  0  0  0
  6 14  1  0  0  0  0
  6 32  1  0  0  0  0
  7  9  1  0  0  0  0
  7 21  1  0  0  0  0
  7 22  1  0  0  0  0
  8 10  1  0  0  0  0
  8 23  1  0  0  0  0
  8 24  1  0  0  0  0
  9 25  1  0  0  0  0
  9 26  1  0  0  0  0
 10 12  1  0  0  0  0
 10 27  1  0  0  0  0
 10 28  1  0  0  0  0
 11 13  1  0  0  0  0
 11 29  1  0  0  0  0
 11 30  1  0  0  0  0
 14 15  2  0  0  0  0
 14 16  1  0  0  0  0
 15 17  1  0  0  0  0
 15 33  1  0  0  0  0
 16 18  2  0  0  0  0
 16 34  1  0  0  0  0
 17 19  2  0  0  0  0
 17 35  1  0  0  0  0
 18 19  1  0  0  0  0
 18 36  1  0  0  0  0
 20 37  1  0  0  0  0
 20 38  1  0  0  0  0
 20 39  1  0  0  0  0
M  END
> <PUBCHEM_COMPOUND_CID>
17395625

> <PUBCHEM_COMPOUND_CANONICALIZED>
1

> <PUBCHEM_CACTVS_COMPLEXITY>
343

> <PUBCHEM_CACTVS_HBOND_ACCEPTOR>
4

> <PUBCHEM_CACTVS_HBOND_DONOR>
2

> <PUBCHEM_CACTVS_ROTATABLE_BOND>
4

> <PUBCHEM_CACTVS_SUBSKEYS>
AAADceBzMABAAAAAAAAAAAAAAAAAAAAAAAAwAAAABYAAAAABAAAAHgQQAAAACAjB0ASywYPAAAiIACVSUACCAAAhChAIiJmIZIgIYCrg0bGUIAhglgDIyAcQAAAAAAQAAAAAAAAACAAAAAAAAAAAAAAAAA==

> <PUBCHEM_IUPAC_OPENEYE_NAME>
N-(4-methylsulfanylphenyl)-2-(5-oxo-1,4-diazepan-1-yl)acetamide

> <PUBCHEM_IUPAC_CAS_NAME>
N-[4-(methylthio)phenyl]-2-(5-oxo-1,4-diazepan-1-yl)acetamide

> <PUBCHEM_IUPAC_NAME>
N-(4-methylsulfanylphenyl)-2-(5-oxo-1,4-diazepan-1-yl)acetamide

> <PUBCHEM_IUPAC_SYSTEMATIC_NAME>
N-(4-methylsulfanylphenyl)-2-(5-oxidanylidene-1,4-diazepan-1-yl)ethanamide

> <PUBCHEM_IUPAC_TRADITIONAL_NAME>
2-(5-keto-1,4-diazepan-1-yl)-N-[4-(methylthio)phenyl]acetamide

> <PUBCHEM_IUPAC_INCHI>
InChI=1S/C14H19N3O2S/c1-20-12-4-2-11(3-5-12)16-14(19)10-17-8-6-13(18)15-7-9-17/h2-5H,6-10H2,1H3,(H,15,18)(H,16,19)

> <PUBCHEM_IUPAC_INCHIKEY>
DBCXTVGTAKSIBJ-UHFFFAOYSA-N

> <PUBCHEM_XLOGP3_AA>
0.7

> <PUBCHEM_EXACT_MASS>
293.119798

> <PUBCHEM_MOLECULAR_FORMULA>
C14H19N3O2S

> <PUBCHEM_MOLECULAR_WEIGHT>
293.38456

> <PUBCHEM_OPENEYE_CAN_SMILES>
CSC1=CC=C(C=C1)NC(=O)CN2CCC(=O)NCC2

> <PUBCHEM_OPENEYE_ISO_SMILES>
CSC1=CC=C(C=C1)NC(=O)CN2CCC(=O)NCC2

> <PUBCHEM_CACTVS_TPSA>
86.7

> <PUBCHEM_MONOISOTOPIC_WEIGHT>
293.119798

> <PUBCHEM_TOTAL_CHARGE>
0

> <PUBCHEM_HEAVY_ATOM_COUNT>
20

> <PUBCHEM_ATOM_DEF_STEREO_COUNT>
0

> <PUBCHEM_ATOM_UDEF_STEREO_COUNT>
0

> <PUBCHEM_BOND_DEF_STEREO_COUNT>
0

> <PUBCHEM_BOND_UDEF_STEREO_COUNT>
0

> <PUBCHEM_ISOTOPIC_ATOM_COUNT>
0

> <PUBCHEM_COMPONENT_COUNT>
1

> <PUBCHEM_CACTVS_TAUTO_COUNT>
9

> <PUBCHEM_COORDINATE_TYPE>
1
5
255

> <PUBCHEM_BONDANNOTATIONS>
14  15  8
14  16  8
15  17  8
16  18  8
17  19  8
18  19  8

$$$$

