9576
  -OEChem-06261203502D

 27 28  0     0  0  0  0  0  0999 V2000
    2.0000    0.2410    0.0000 F   0  0  0  0  0  0  0  0  0  0  0  0
    6.8335    1.2025    0.0000 N   0  0  0  0  0  0  0  0  0  0  0  0
    5.5443   -1.5637    0.0000 N   0  0  0  0  0  0  0  0  0  0  0  0
    5.5443    0.0458    0.0000 C   0  0  0  0  0  0  0  0  0  0  0  0
    4.5981   -0.2590    0.0000 C   0  0  0  0  0  0  0  0  0  0  0  0
    5.8550    0.9963    0.0000 C   0  0  0  0  0  0  0  0  0  0  0  0
    4.5981   -1.2590    0.0000 C   0  0  0  0  0  0  0  0  0  0  0  0
    6.1279   -0.7590    0.0000 C   0  0  0  0  0  0  0  0  0  0  0  0
    3.7320    0.2410    0.0000 C   0  0  0  0  0  0  0  0  0  0  0  0
    3.7320   -1.7590    0.0000 C   0  0  0  0  0  0  0  0  0  0  0  0
    7.1441    2.1530    0.0000 C   0  0  0  0  0  0  0  0  0  0  0  0
    7.5013    0.4582    0.0000 C   0  0  0  0  0  0  0  0  0  0  0  0
    2.8660   -0.2590    0.0000 C   0  0  0  0  0  0  0  0  0  0  0  0
    2.8660   -1.2590    0.0000 C   0  0  0  0  0  0  0  0  0  0  0  0
    5.8344    1.6159    0.0000 H   0  0  0  0  0  0  0  0  0  0  0  0
    5.2411    1.0836    0.0000 H   0  0  0  0  0  0  0  0  0  0  0  0
    6.7479   -0.7590    0.0000 H   0  0  0  0  0  0  0  0  0  0  0  0
    5.7369   -2.1530    0.0000 H   0  0  0  0  0  0  0  0  0  0  0  0
    3.7320    0.8610    0.0000 H   0  0  0  0  0  0  0  0  0  0  0  0
    3.7320   -2.3790    0.0000 H   0  0  0  0  0  0  0  0  0  0  0  0
    7.7334    1.9604    0.0000 H   0  0  0  0  0  0  0  0  0  0  0  0
    7.3367    2.7424    0.0000 H   0  0  0  0  0  0  0  0  0  0  0  0
    6.5548    2.3456    0.0000 H   0  0  0  0  0  0  0  0  0  0  0  0
    7.0398    0.0441    0.0000 H   0  0  0  0  0  0  0  0  0  0  0  0
    7.9154   -0.0033    0.0000 H   0  0  0  0  0  0  0  0  0  0  0  0
    7.9628    0.8723    0.0000 H   0  0  0  0  0  0  0  0  0  0  0  0
    2.3291   -1.5690    0.0000 H   0  0  0  0  0  0  0  0  0  0  0  0
  1 13  1  0  0  0  0
  2  6  1  0  0  0  0
  2 11  1  0  0  0  0
  2 12  1  0  0  0  0
  3  7  1  0  0  0  0
  3  8  1  0  0  0  0
  3 18  1  0  0  0  0
  4  5  1  0  0  0  0
  4  6  1  0  0  0  0
  4  8  2  0  0  0  0
  5  7  2  0  0  0  0
  5  9  1  0  0  0  0
  6 15  1  0  0  0  0
  6 16  1  0  0  0  0
  7 10  1  0  0  0  0
  8 17  1  0  0  0  0
  9 13  2  0  0  0  0
  9 19  1  0  0  0  0
 10 14  2  0  0  0  0
 10 20  1  0  0  0  0
 11 21  1  0  0  0  0
 11 22  1  0  0  0  0
 11 23  1  0  0  0  0
 12 24  1  0  0  0  0
 12 25  1  0  0  0  0
 12 26  1  0  0  0  0
 13 14  1  0  0  0  0
 14 27  1  0  0  0  0
M  END
> <PUBCHEM_COMPOUND_CID>
9576

> <PUBCHEM_COMPOUND_CANONICALIZED>
1

> <PUBCHEM_CACTVS_COMPLEXITY>
196

> <PUBCHEM_CACTVS_HBOND_ACCEPTOR>
2

> <PUBCHEM_CACTVS_HBOND_DONOR>
1

> <PUBCHEM_CACTVS_ROTATABLE_BOND>
2

> <PUBCHEM_CACTVS_SUBSKEYS>
AAADccBzAQAAAAAAAAAAAAAAAAAAAWAAAAAwAAAAAAAAAFgB8AAAHQAQAAAADAjBHgw+wPPJkACgAzRnRACCgCAxAiAI2aA4ZJgIIOLA0ZGEIAhgkADIyAcQgMAOgAAAAAACAAAAAAAAAAQAAAAAAAAAAA==

> <PUBCHEM_IUPAC_OPENEYE_NAME>
1-(5-fluoro-1H-indol-3-yl)-N,N-dimethyl-methanamine

> <PUBCHEM_IUPAC_CAS_NAME>
1-(5-fluoro-1H-indol-3-yl)-N,N-dimethylmethanamine

> <PUBCHEM_IUPAC_NAME>
1-(5-fluoro-1H-indol-3-yl)-N,N-dimethylmethanamine

> <PUBCHEM_IUPAC_SYSTEMATIC_NAME>
1-(5-fluoranyl-1H-indol-3-yl)-N,N-dimethyl-methanamine

> <PUBCHEM_IUPAC_TRADITIONAL_NAME>
(5-fluoro-1H-indol-3-yl)methyl-dimethyl-amine

> <PUBCHEM_IUPAC_INCHI>
InChI=1S/C11H13FN2/c1-14(2)7-8-6-13-11-4-3-9(12)5-10(8)11/h3-6,13H,7H2,1-2H3

> <PUBCHEM_IUPAC_INCHIKEY>
QNCNSISRJMCGPK-UHFFFAOYSA-N

> <PUBCHEM_XLOGP3>
2.5

> <PUBCHEM_EXACT_MASS>
192.106277

> <PUBCHEM_MOLECULAR_FORMULA>
C11H13FN2

> <PUBCHEM_MOLECULAR_WEIGHT>
192.232723

> <PUBCHEM_OPENEYE_CAN_SMILES>
CN(C)CC1=CNC2=C1C=C(C=C2)F

> <PUBCHEM_OPENEYE_ISO_SMILES>
CN(C)CC1=CNC2=C1C=C(C=C2)F

> <PUBCHEM_CACTVS_TPSA>
19

> <PUBCHEM_MONOISOTOPIC_WEIGHT>
192.106277

> <PUBCHEM_TOTAL_CHARGE>
0

> <PUBCHEM_HEAVY_ATOM_COUNT>
14

> <PUBCHEM_ATOM_DEF_STEREO_COUNT>
0

> <PUBCHEM_ATOM_UDEF_STEREO_COUNT>
0

> <PUBCHEM_BOND_DEF_STEREO_COUNT>
0

> <PUBCHEM_BOND_UDEF_STEREO_COUNT>
0

> <PUBCHEM_ISOTOPIC_ATOM_COUNT>
0

> <PUBCHEM_COMPONENT_COUNT>
1

> <PUBCHEM_CACTVS_TAUTO_COUNT>
1

> <PUBCHEM_COORDINATE_TYPE>
1
5
255

> <PUBCHEM_BONDANNOTATIONS>
10  14  8
13  14  8
3  7  8
3  8  8
4  5  8
4  8  8
5  7  8
5  9  8
7  10  8
9  13  8

$$$$

