3513
  -OEChem-06251223282D

 37 39  0     0  0  0  0  0  0999 V2000
    5.1350   -4.7291    0.0000 Cl  0  0  0  0  0  0  0  0  0  0  0  0
    7.4904    1.8869    0.0000 O   0  0  0  0  0  0  0  0  0  0  0  0
    7.1225   -1.6140    0.0000 O   0  0  0  0  0  0  0  0  0  0  0  0
    2.5369   -3.2291    0.0000 O   0  0  0  0  0  0  0  0  0  0  0  0
    4.2920    4.7291    0.0000 O   0  5  0  0  0  0  0  0  0  0  0  0
    5.9862    4.3690    0.0000 O   0  0  0  0  0  0  0  0  0  0  0  0
    3.4030   -4.7291    0.0000 O   0  0  0  0  0  0  0  0  0  0  0  0
    5.1350   -0.7291    0.0000 N   0  0  0  0  0  0  0  0  0  0  0  0
    7.5837    0.1073    0.0000 N   0  0  0  0  0  0  0  0  0  0  0  0
    5.0351    4.0600    0.0000 N   0  3  0  0  0  0  0  0  0  0  0  0
    6.1056    0.7654    0.0000 C   0  0  0  0  0  0  0  0  0  0  0  0
    6.0010   -0.2291    0.0000 C   0  0  0  0  0  0  0  0  0  0  0  0
    5.3624    1.4346    0.0000 C   0  0  0  0  0  0  0  0  0  0  0  0
    7.0837    0.9733    0.0000 C   0  0  0  0  0  0  0  0  0  0  0  0
    6.9146   -0.6358    0.0000 C   0  0  0  0  0  0  0  0  0  0  0  0
    5.1350   -1.7291    0.0000 C   0  0  0  0  0  0  0  0  0  0  0  0
    5.5703    2.4127    0.0000 C   0  0  0  0  0  0  0  0  0  0  0  0
    4.4114    1.1255    0.0000 C   0  0  0  0  0  0  0  0  0  0  0  0
    4.2690   -2.2291    0.0000 C   0  0  0  0  0  0  0  0  0  0  0  0
    4.8272    3.0818    0.0000 C   0  0  0  0  0  0  0  0  0  0  0  0
    6.0010   -2.2291    0.0000 C   0  0  0  0  0  0  0  0  0  0  0  0
    3.6682    1.7947    0.0000 C   0  0  0  0  0  0  0  0  0  0  0  0
    4.2690   -3.2291    0.0000 C   0  0  0  0  0  0  0  0  0  0  0  0
    3.8761    2.7728    0.0000 C   0  0  0  0  0  0  0  0  0  0  0  0
    6.0010   -3.2291    0.0000 C   0  0  0  0  0  0  0  0  0  0  0  0
    5.1350   -3.7291    0.0000 C   0  0  0  0  0  0  0  0  0  0  0  0
    3.4030   -3.7291    0.0000 C   0  0  0  0  0  0  0  0  0  0  0  0
    4.5981   -0.4191    0.0000 H   0  0  0  0  0  0  0  0  0  0  0  0
    8.2003    0.0425    0.0000 H   0  0  0  0  0  0  0  0  0  0  0  0
    6.1600    2.6043    0.0000 H   0  0  0  0  0  0  0  0  0  0  0  0
    4.2825    0.5191    0.0000 H   0  0  0  0  0  0  0  0  0  0  0  0
    3.7320   -1.9191    0.0000 H   0  0  0  0  0  0  0  0  0  0  0  0
    6.5380   -1.9191    0.0000 H   0  0  0  0  0  0  0  0  0  0  0  0
    3.0786    1.6031    0.0000 H   0  0  0  0  0  0  0  0  0  0  0  0
    3.4154    3.1877    0.0000 H   0  0  0  0  0  0  0  0  0  0  0  0
    6.5380   -3.5391    0.0000 H   0  0  0  0  0  0  0  0  0  0  0  0
    2.0000   -3.5391    0.0000 H   0  0  0  0  0  0  0  0  0  0  0  0
  1 26  1  0  0  0  0
  2 14  2  0  0  0  0
  3 15  2  0  0  0  0
  4 27  1  0  0  0  0
  4 37  1  0  0  0  0
  5 10  1  0  0  0  0
  6 10  2  0  0  0  0
  7 27  2  0  0  0  0
  8 12  1  0  0  0  0
  8 16  1  0  0  0  0
  8 28  1  0  0  0  0
  9 14  1  0  0  0  0
  9 15  1  0  0  0  0
  9 29  1  0  0  0  0
 10 20  1  0  0  0  0
 11 12  2  0  0  0  0
 11 13  1  0  0  0  0
 11 14  1  0  0  0  0
 12 15  1  0  0  0  0
 13 17  2  0  0  0  0
 13 18  1  0  0  0  0
 16 19  2  0  0  0  0
 16 21  1  0  0  0  0
 17 20  1  0  0  0  0
 17 30  1  0  0  0  0
 18 22  2  0  0  0  0
 18 31  1  0  0  0  0
 19 23  1  0  0  0  0
 19 32  1  0  0  0  0
 20 24  2  0  0  0  0
 21 25  2  0  0  0  0
 21 33  1  0  0  0  0
 22 24  1  0  0  0  0
 22 34  1  0  0  0  0
 23 26  2  0  0  0  0
 23 27  1  0  0  0  0
 24 35  1  0  0  0  0
 25 26  1  0  0  0  0
 25 36  1  0  0  0  0
M  CHG  2   5  -1  10   1
M  END
> <PUBCHEM_COMPOUND_CID>
3513

> <PUBCHEM_COMPOUND_CANONICALIZED>
1

> <PUBCHEM_CACTVS_COMPLEXITY>
703

> <PUBCHEM_CACTVS_HBOND_ACCEPTOR>
7

> <PUBCHEM_CACTVS_HBOND_DONOR>
3

> <PUBCHEM_CACTVS_ROTATABLE_BOND>
4

> <PUBCHEM_CACTVS_SUBSKEYS>
AAADccB7OAAEAAAAAAAAAAAAAAAAAQAAAAAwYAAAAAAAAAABQAAAHgIUCAAADAqBmCAwyILQQgCJAiXSWwCCAAAlBwAoiAGAbsoIZjLBl7GUcQhk1CHI3ce8yaCeAABAQAABAAAAAICAAAIAAAAAAAAAAA==

> <PUBCHEM_IUPAC_OPENEYE_NAME>
2-chloro-5-[[4-(3-nitrophenyl)-2,5-dioxo-pyrrol-3-yl]amino]benzoic acid

> <PUBCHEM_IUPAC_CAS_NAME>
2-chloro-5-[[4-(3-nitrophenyl)-2,5-dioxo-3-pyrrolyl]amino]benzoic acid

> <PUBCHEM_IUPAC_NAME>
2-chloro-5-[[4-(3-nitrophenyl)-2,5-dioxopyrrol-3-yl]amino]benzoic acid

> <PUBCHEM_IUPAC_SYSTEMATIC_NAME>
2-chloranyl-5-[[4-(3-nitrophenyl)-2,5-bis(oxidanylidene)pyrrol-3-yl]amino]benzoic acid

> <PUBCHEM_IUPAC_TRADITIONAL_NAME>
2-chloro-5-[[2,5-diketo-4-(3-nitrophenyl)-3-pyrrolin-3-yl]amino]benzoic acid

> <PUBCHEM_IUPAC_INCHI>
InChI=1S/C17H10ClN3O6/c18-12-5-4-9(7-11(12)17(24)25)19-14-13(15(22)20-16(14)23)8-2-1-3-10(6-8)21(26)27/h1-7H,(H,24,25)(H2,19,20,22,23)

> <PUBCHEM_IUPAC_INCHIKEY>
QWDGTUJNIPWNGT-UHFFFAOYSA-N

> <PUBCHEM_XLOGP3_AA>
2.7

> <PUBCHEM_EXACT_MASS>
387.025813

> <PUBCHEM_MOLECULAR_FORMULA>
C17H10ClN3O6

> <PUBCHEM_MOLECULAR_WEIGHT>
387.7308

> <PUBCHEM_OPENEYE_CAN_SMILES>
C1=CC(=CC(=C1)[N+](=O)[O-])C2=C(C(=O)NC2=O)NC3=CC(=C(C=C3)Cl)C(=O)O

> <PUBCHEM_OPENEYE_ISO_SMILES>
C1=CC(=CC(=C1)[N+](=O)[O-])C2=C(C(=O)NC2=O)NC3=CC(=C(C=C3)Cl)C(=O)O

> <PUBCHEM_CACTVS_TPSA>
141

> <PUBCHEM_MONOISOTOPIC_WEIGHT>
387.025813

> <PUBCHEM_TOTAL_CHARGE>
0

> <PUBCHEM_HEAVY_ATOM_COUNT>
27

> <PUBCHEM_ATOM_DEF_STEREO_COUNT>
0

> <PUBCHEM_ATOM_UDEF_STEREO_COUNT>
0

> <PUBCHEM_BOND_DEF_STEREO_COUNT>
0

> <PUBCHEM_BOND_UDEF_STEREO_COUNT>
0

> <PUBCHEM_ISOTOPIC_ATOM_COUNT>
0

> <PUBCHEM_COMPONENT_COUNT>
1

> <PUBCHEM_CACTVS_TAUTO_COUNT>
8

> <PUBCHEM_COORDINATE_TYPE>
1
5
255

> <PUBCHEM_BONDANNOTATIONS>
13  17  8
13  18  8
16  19  8
16  21  8
17  20  8
18  22  8
19  23  8
20  24  8
21  25  8
22  24  8
23  26  8
25  26  8

$$$$

