5919
  -OEChem-06261200592D

 35 35  0     1  0  0  0  0  0999 V2000
    6.5010    6.0000    0.0000 I   0  0  0  0  0  0  0  0  0  0  0  0
    3.0369    6.0000    0.0000 I   0  0  0  0  0  0  0  0  0  0  0  0
    6.5010   10.0000    0.0000 I   0  0  0  0  0  0  0  0  0  0  0  0
    3.0369    0.0000    0.0000 Na  0  3  0  0  0  0  0  0  0  0  0  0
    4.7690    7.0000    0.0000 O   0  0  0  0  0  0  0  0  0  0  0  0
    3.0369    1.0000    0.0000 O   0  5  0  0  0  0  0  0  0  0  0  0
    4.7690    1.0000    0.0000 O   0  0  0  0  0  0  0  0  0  0  0  0
    8.2331    9.0000    0.0000 O   0  0  0  0  0  0  0  0  0  0  0  0
    3.0369    3.0000    0.0000 N   0  0  0  0  0  0  0  0  0  0  0  0
    4.7690    3.0000    0.0000 C   0  0  0  0  0  0  0  0  0  0  0  0
    4.7690    4.0000    0.0000 C   0  0  0  0  0  0  0  0  0  0  0  0
    3.9030    2.5000    0.0000 C   0  0  1  0  0  0  0  0  0  0  0  0
    3.9030    4.5000    0.0000 C   0  0  0  0  0  0  0  0  0  0  0  0
    5.6350    4.5000    0.0000 C   0  0  0  0  0  0  0  0  0  0  0  0
    4.7690    6.0000    0.0000 C   0  0  0  0  0  0  0  0  0  0  0  0
    5.6350    5.5000    0.0000 C   0  0  0  0  0  0  0  0  0  0  0  0
    3.9030    5.5000    0.0000 C   0  0  0  0  0  0  0  0  0  0  0  0
    3.9030    1.5000    0.0000 C   0  0  0  0  0  0  0  0  0  0  0  0
    5.6350    7.5000    0.0000 C   0  0  0  0  0  0  0  0  0  0  0  0
    5.6350    8.5000    0.0000 C   0  0  0  0  0  0  0  0  0  0  0  0
    6.5010    7.0000    0.0000 C   0  0  0  0  0  0  0  0  0  0  0  0
    6.5010    9.0000    0.0000 C   0  0  0  0  0  0  0  0  0  0  0  0
    7.3671    7.5000    0.0000 C   0  0  0  0  0  0  0  0  0  0  0  0
    7.3671    8.5000    0.0000 C   0  0  0  0  0  0  0  0  0  0  0  0
    4.9810    2.4174    0.0000 H   0  0  0  0  0  0  0  0  0  0  0  0
    5.3796    3.1077    0.0000 H   0  0  0  0  0  0  0  0  0  0  0  0
    3.9030    3.1200    0.0000 H   0  0  0  0  0  0  0  0  0  0  0  0
    3.3660    4.1900    0.0000 H   0  0  0  0  0  0  0  0  0  0  0  0
    6.1719    4.1900    0.0000 H   0  0  0  0  0  0  0  0  0  0  0  0
    2.5000    2.6900    0.0000 H   0  0  0  0  0  0  0  0  0  0  0  0
    3.0369    3.6200    0.0000 H   0  0  0  0  0  0  0  0  0  0  0  0
    5.0981    8.8100    0.0000 H   0  0  0  0  0  0  0  0  0  0  0  0
    6.5010    6.3800    0.0000 H   0  0  0  0  0  0  0  0  0  0  0  0
    7.9040    7.1900    0.0000 H   0  0  0  0  0  0  0  0  0  0  0  0
    8.7700    8.6900    0.0000 H   0  0  0  0  0  0  0  0  0  0  0  0
  1 16  1  0  0  0  0
  2 17  1  0  0  0  0
  3 22  1  0  0  0  0
  5 15  1  0  0  0  0
  5 19  1  0  0  0  0
  6 18  1  0  0  0  0
  7 18  2  0  0  0  0
  8 24  1  0  0  0  0
  8 35  1  0  0  0  0
 12  9  1  1  0  0  0
  9 30  1  0  0  0  0
  9 31  1  0  0  0  0
 10 11  1  0  0  0  0
 10 12  1  0  0  0  0
 10 25  1  0  0  0  0
 10 26  1  0  0  0  0
 11 13  2  0  0  0  0
 11 14  1  0  0  0  0
 12 18  1  0  0  0  0
 12 27  1  0  0  0  0
 13 17  1  0  0  0  0
 13 28  1  0  0  0  0
 14 16  2  0  0  0  0
 14 29  1  0  0  0  0
 15 16  1  0  0  0  0
 15 17  2  0  0  0  0
 19 20  2  0  0  0  0
 19 21  1  0  0  0  0
 20 22  1  0  0  0  0
 20 32  1  0  0  0  0
 21 23  2  0  0  0  0
 21 33  1  0  0  0  0
 22 24  2  0  0  0  0
 23 24  1  0  0  0  0
 23 34  1  0  0  0  0
M  CHG  2   4   1   6  -1
M  END
> <PUBCHEM_COMPOUND_CID>
5919

> <PUBCHEM_COMPOUND_CANONICALIZED>
1

> <PUBCHEM_CACTVS_COMPLEXITY>
397

> <PUBCHEM_CACTVS_HBOND_ACCEPTOR>
5

> <PUBCHEM_CACTVS_HBOND_DONOR>
2

> <PUBCHEM_CACTVS_ROTATABLE_BOND>
4

> <PUBCHEM_CACTVS_SUBSKEYS>
AAADccByOCAAAwAAAAAAAAAAAAAAAAAAAAAwYAAAAAAAAAABQAAAHgAwCAAADCzDmAQwDoBABgCIAiDSCAACCAAgIAAIiIGGCIgOJjKGsRuCeCCk0BEIuAfYyKCOIQAAAAAAAABCAAAAAAAAAAAAAAAAAA==

> <PUBCHEM_IUPAC_OPENEYE_NAME>
sodium (2S)-2-amino-3-[4-(4-hydroxy-3-iodo-phenoxy)-3,5-diiodo-phenyl]propanoate

> <PUBCHEM_IUPAC_CAS_NAME>
sodium (2S)-2-amino-3-[4-(4-hydroxy-3-iodophenoxy)-3,5-diiodophenyl]propanoate

> <PUBCHEM_IUPAC_NAME>
sodium (2S)-2-amino-3-[4-(4-hydroxy-3-iodophenoxy)-3,5-diiodophenyl]propanoate

> <PUBCHEM_IUPAC_SYSTEMATIC_NAME>
sodium (2S)-2-azanyl-3-[3,5-bis(iodanyl)-4-(3-iodanyl-4-oxidanyl-phenoxy)phenyl]propanoate

> <PUBCHEM_IUPAC_TRADITIONAL_NAME>
sodium (2S)-2-amino-3-[4-(4-hydroxy-3-iodo-phenoxy)-3,5-diiodo-phenyl]propionate

> <PUBCHEM_IUPAC_INCHI>
InChI=1S/C15H12I3NO4.Na/c16-9-6-8(1-2-13(9)20)23-14-10(17)3-7(4-11(14)18)5-12(19)15(21)22;/h1-4,6,12,20H,5,19H2,(H,21,22);/q;+1/p-1/t12-;/m0./s1

> <PUBCHEM_IUPAC_INCHIKEY>
SBXXSUDPJJJJLC-YDALLXLXSA-M

> <PUBCHEM_EXACT_MASS>
672.771996

> <PUBCHEM_MOLECULAR_FORMULA>
C15H11I3NNaO4

> <PUBCHEM_MOLECULAR_WEIGHT>
672.955319

> <PUBCHEM_OPENEYE_CAN_SMILES>
C1=CC(=C(C=C1OC2=C(C=C(C=C2I)CC(C(=O)[O-])N)I)I)O.[Na+]

> <PUBCHEM_OPENEYE_ISO_SMILES>
C1=CC(=C(C=C1OC2=C(C=C(C=C2I)C[C@@H](C(=O)[O-])N)I)I)O.[Na+]

> <PUBCHEM_CACTVS_TPSA>
95.6

> <PUBCHEM_MONOISOTOPIC_WEIGHT>
672.771996

> <PUBCHEM_TOTAL_CHARGE>
0

> <PUBCHEM_HEAVY_ATOM_COUNT>
24

> <PUBCHEM_ATOM_DEF_STEREO_COUNT>
1

> <PUBCHEM_ATOM_UDEF_STEREO_COUNT>
0

> <PUBCHEM_BOND_DEF_STEREO_COUNT>
0

> <PUBCHEM_BOND_UDEF_STEREO_COUNT>
0

> <PUBCHEM_ISOTOPIC_ATOM_COUNT>
0

> <PUBCHEM_COMPONENT_COUNT>
2

> <PUBCHEM_CACTVS_TAUTO_COUNT>
3

> <PUBCHEM_COORDINATE_TYPE>
1
5
255

> <PUBCHEM_BONDANNOTATIONS>
11  13  8
11  14  8
13  17  8
14  16  8
15  16  8
15  17  8
19  20  8
19  21  8
20  22  8
21  23  8
22  24  8
23  24  8
12  9  5

$$$$

