14405
  -OEChem-06241222432D

 46 48  0     0  0  0  0  0  0999 V2000
    6.7713    0.7691    0.0000 O   0  0  0  0  0  0  0  0  0  0  0  0
    5.3374   -0.1319    0.0000 N   0  0  0  0  0  0  0  0  0  0  0  0
    5.8374   -2.3225    0.0000 N   0  0  0  0  0  0  0  0  0  0  0  0
    5.0330    2.4963    0.0000 N   0  0  0  0  0  0  0  0  0  0  0  0
    4.7139   -0.9137    0.0000 C   0  0  0  0  0  0  0  0  0  0  0  0
    4.9036    0.7691    0.0000 C   0  0  0  0  0  0  0  0  0  0  0  0
    4.9364   -1.8886    0.0000 C   0  0  0  0  0  0  0  0  0  0  0  0
    6.7384   -1.8886    0.0000 C   0  0  0  0  0  0  0  0  0  0  0  0
    5.4669    1.5953    0.0000 C   0  0  0  0  0  0  0  0  0  0  0  0
    6.9609   -0.9137    0.0000 C   0  0  0  0  0  0  0  0  0  0  0  0
    6.3374   -0.1319    0.0000 C   0  0  0  0  0  0  0  0  0  0  0  0
    3.7234   -0.5914    0.0000 C   0  0  0  0  0  0  0  0  0  0  0  0
    4.1839   -2.6088    0.0000 C   0  0  0  0  0  0  0  0  0  0  0  0
    2.9544   -1.2939    0.0000 C   0  0  0  0  0  0  0  0  0  0  0  0
    5.8374   -3.3225    0.0000 C   0  0  0  0  0  0  0  0  0  0  0  0
    3.1862   -2.3095    0.0000 C   0  0  0  0  0  0  0  0  0  0  0  0
    7.4909   -2.6088    0.0000 C   0  0  0  0  0  0  0  0  0  0  0  0
    7.9514   -0.5914    0.0000 C   0  0  0  0  0  0  0  0  0  0  0  0
    8.4886   -2.3095    0.0000 C   0  0  0  0  0  0  0  0  0  0  0  0
    8.7204   -1.2940    0.0000 C   0  0  0  0  0  0  0  0  0  0  0  0
    2.0000   -0.9955    0.0000 C   0  0  0  0  0  0  0  0  0  0  0  0
    5.5963    3.3225    0.0000 C   0  0  0  0  0  0  0  0  0  0  0  0
    4.0358    2.5710    0.0000 C   0  0  0  0  0  0  0  0  0  0  0  0
    4.4597    1.2020    0.0000 H   0  0  0  0  0  0  0  0  0  0  0  0
    4.4002    0.4072    0.0000 H   0  0  0  0  0  0  0  0  0  0  0  0
    5.9107    1.1624    0.0000 H   0  0  0  0  0  0  0  0  0  0  0  0
    5.9703    1.9572    0.0000 H   0  0  0  0  0  0  0  0  0  0  0  0
    3.5925    0.0146    0.0000 H   0  0  0  0  0  0  0  0  0  0  0  0
    4.3288   -3.2116    0.0000 H   0  0  0  0  0  0  0  0  0  0  0  0
    5.2174   -3.3225    0.0000 H   0  0  0  0  0  0  0  0  0  0  0  0
    5.8374   -3.9425    0.0000 H   0  0  0  0  0  0  0  0  0  0  0  0
    6.4574   -3.3225    0.0000 H   0  0  0  0  0  0  0  0  0  0  0  0
    2.7333   -2.7329    0.0000 H   0  0  0  0  0  0  0  0  0  0  0  0
    7.3460   -3.2116    0.0000 H   0  0  0  0  0  0  0  0  0  0  0  0
    8.0824    0.0146    0.0000 H   0  0  0  0  0  0  0  0  0  0  0  0
    8.9415   -2.7330    0.0000 H   0  0  0  0  0  0  0  0  0  0  0  0
    9.3122   -1.1090    0.0000 H   0  0  0  0  0  0  0  0  0  0  0  0
    2.1850   -0.4038    0.0000 H   0  0  0  0  0  0  0  0  0  0  0  0
    1.4083   -0.8105    0.0000 H   0  0  0  0  0  0  0  0  0  0  0  0
    1.8150   -1.5872    0.0000 H   0  0  0  0  0  0  0  0  0  0  0  0
    6.1086    2.9733    0.0000 H   0  0  0  0  0  0  0  0  0  0  0  0
    5.9456    3.8348    0.0000 H   0  0  0  0  0  0  0  0  0  0  0  0
    5.0841    3.6718    0.0000 H   0  0  0  0  0  0  0  0  0  0  0  0
    4.0821    3.1893    0.0000 H   0  0  0  0  0  0  0  0  0  0  0  0
    3.4175    2.6174    0.0000 H   0  0  0  0  0  0  0  0  0  0  0  0
    3.9895    1.9528    0.0000 H   0  0  0  0  0  0  0  0  0  0  0  0
  1 11  2  0  0  0  0
  2  5  1  0  0  0  0
  2  6  1  0  0  0  0
  2 11  1  0  0  0  0
  3  7  1  0  0  0  0
  3  8  1  0  0  0  0
  3 15  1  0  0  0  0
  4  9  1  0  0  0  0
  4 22  1  0  0  0  0
  4 23  1  0  0  0  0
  5  7  2  0  0  0  0
  5 12  1  0  0  0  0
  6  9  1  0  0  0  0
  6 24  1  0  0  0  0
  6 25  1  0  0  0  0
  7 13  1  0  0  0  0
  8 10  1  0  0  0  0
  8 17  2  0  0  0  0
  9 26  1  0  0  0  0
  9 27  1  0  0  0  0
 10 11  1  0  0  0  0
 10 18  2  0  0  0  0
 12 14  2  0  0  0  0
 12 28  1  0  0  0  0
 13 16  2  0  0  0  0
 13 29  1  0  0  0  0
 14 16  1  0  0  0  0
 14 21  1  0  0  0  0
 15 30  1  0  0  0  0
 15 31  1  0  0  0  0
 15 32  1  0  0  0  0
 16 33  1  0  0  0  0
 17 19  1  0  0  0  0
 17 34  1  0  0  0  0
 18 20  1  0  0  0  0
 18 35  1  0  0  0  0
 19 20  2  0  0  0  0
 19 36  1  0  0  0  0
 20 37  1  0  0  0  0
 21 38  1  0  0  0  0
 21 39  1  0  0  0  0
 21 40  1  0  0  0  0
 22 41  1  0  0  0  0
 22 42  1  0  0  0  0
 22 43  1  0  0  0  0
 23 44  1  0  0  0  0
 23 45  1  0  0  0  0
 23 46  1  0  0  0  0
M  END
> <PUBCHEM_COMPOUND_CID>
14405

> <PUBCHEM_COMPOUND_CANONICALIZED>
1

> <PUBCHEM_CACTVS_COMPLEXITY>
425

> <PUBCHEM_CACTVS_HBOND_ACCEPTOR>
3

> <PUBCHEM_CACTVS_HBOND_DONOR>
0

> <PUBCHEM_CACTVS_ROTATABLE_BOND>
3

> <PUBCHEM_CACTVS_SUBSKEYS>
AAADceB7IAAAAAAAAAAAAAAAAAAAAAAAAAAwYAAABYAAAAABQAAAHgAAAAAADAjBmAQywIMAAACIAiVSUACCAAAlAgAIiAEIdMgIYHrA1ZGUIYhghgDIyccYiACOCAAAQAACACAQAACAAAQAQAAAAAAAAA==

> <PUBCHEM_IUPAC_OPENEYE_NAME>
5-[2-(dimethylamino)ethyl]-3,11-dimethyl-benzo[b][1,4]benzodiazepin-6-one

> <PUBCHEM_IUPAC_CAS_NAME>
5-[2-(dimethylamino)ethyl]-3,11-dimethyl-6-benzo[b][1,4]benzodiazepinone

> <PUBCHEM_IUPAC_NAME>
5-[2-(dimethylamino)ethyl]-3,11-dimethylbenzo[b][1,4]benzodiazepin-6-one

> <PUBCHEM_IUPAC_SYSTEMATIC_NAME>
5-[2-(dimethylamino)ethyl]-3,11-dimethyl-benzo[b][1,4]benzodiazepin-6-one

> <PUBCHEM_IUPAC_TRADITIONAL_NAME>
5-[2-(dimethylamino)ethyl]-3,11-dimethyl-benzo[b][1,4]benzodiazepin-6-one

> <PUBCHEM_IUPAC_INCHI>
InChI=1S/C19H23N3O/c1-14-9-10-17-18(13-14)22(12-11-20(2)3)19(23)15-7-5-6-8-16(15)21(17)4/h5-10,13H,11-12H2,1-4H3

> <PUBCHEM_IUPAC_INCHIKEY>
CQMIGEFUGHANLC-UHFFFAOYSA-N

> <PUBCHEM_XLOGP3_AA>
3.1

> <PUBCHEM_EXACT_MASS>
309.184112

> <PUBCHEM_MOLECULAR_FORMULA>
C19H23N3O

> <PUBCHEM_MOLECULAR_WEIGHT>
309.40542

> <PUBCHEM_OPENEYE_CAN_SMILES>
CC1=CC2=C(C=C1)N(C3=CC=CC=C3C(=O)N2CCN(C)C)C

> <PUBCHEM_OPENEYE_ISO_SMILES>
CC1=CC2=C(C=C1)N(C3=CC=CC=C3C(=O)N2CCN(C)C)C

> <PUBCHEM_CACTVS_TPSA>
26.8

> <PUBCHEM_MONOISOTOPIC_WEIGHT>
309.184112

> <PUBCHEM_TOTAL_CHARGE>
0

> <PUBCHEM_HEAVY_ATOM_COUNT>
23

> <PUBCHEM_ATOM_DEF_STEREO_COUNT>
0

> <PUBCHEM_ATOM_UDEF_STEREO_COUNT>
0

> <PUBCHEM_BOND_DEF_STEREO_COUNT>
0

> <PUBCHEM_BOND_UDEF_STEREO_COUNT>
0

> <PUBCHEM_ISOTOPIC_ATOM_COUNT>
0

> <PUBCHEM_COMPONENT_COUNT>
1

> <PUBCHEM_CACTVS_TAUTO_COUNT>
1

> <PUBCHEM_COORDINATE_TYPE>
1
5
255

> <PUBCHEM_BONDANNOTATIONS>
10  18  8
12  14  8
13  16  8
14  16  8
17  19  8
18  20  8
19  20  8
5  12  8
5  7  8
7  13  8
8  10  8
8  17  8

$$$$

