5282
  -OEChem-06261200372D

 80 79  0     1  0  0  0  0  0999 V2000
   16.7224    0.9050    0.0000 O   0  0  0  0  0  0  0  0  0  0  0  0
   17.5885    2.4050    0.0000 O   0  0  0  0  0  0  0  0  0  0  0  0
   16.7224   -2.0950    0.0000 O   0  0  0  0  0  0  0  0  0  0  0  0
   15.8564   -0.5950    0.0000 O   0  0  0  0  0  0  0  0  0  0  0  0
   19.3205    0.4050    0.0000 N   0  3  0  0  0  0  0  0  0  0  0  0
   18.4545    0.9050    0.0000 C   0  0  0  0  0  0  0  0  0  0  0  0
   17.5885    0.4050    0.0000 C   0  0  3  0  0  0  0  0  0  0  0  0
   20.1865   -0.0950    0.0000 C   0  0  0  0  0  0  0  0  0  0  0  0
   19.8205    1.2710    0.0000 C   0  0  0  0  0  0  0  0  0  0  0  0
   18.8205   -0.4610    0.0000 C   0  0  0  0  0  0  0  0  0  0  0  0
    9.7942    1.9050    0.0000 C   0  0  0  0  0  0  0  0  0  0  0  0
   10.6603    2.4050    0.0000 C   0  0  0  0  0  0  0  0  0  0  0  0
    8.9282    2.4050    0.0000 C   0  0  0  0  0  0  0  0  0  0  0  0
   11.5263    1.9050    0.0000 C   0  0  0  0  0  0  0  0  0  0  0  0
    8.0622    1.9050    0.0000 C   0  0  0  0  0  0  0  0  0  0  0  0
   12.3923    2.4050    0.0000 C   0  0  0  0  0  0  0  0  0  0  0  0
    7.1962    2.4050    0.0000 C   0  0  0  0  0  0  0  0  0  0  0  0
   13.2583    1.9050    0.0000 C   0  0  0  0  0  0  0  0  0  0  0  0
   17.5885   -0.5950    0.0000 C   0  0  0  0  0  0  0  0  0  0  0  0
    6.3301    1.9050    0.0000 C   0  0  0  0  0  0  0  0  0  0  0  0
   14.1244    2.4050    0.0000 C   0  0  0  0  0  0  0  0  0  0  0  0
    5.4641    2.4050    0.0000 C   0  0  0  0  0  0  0  0  0  0  0  0
   14.9904    1.9050    0.0000 C   0  0  0  0  0  0  0  0  0  0  0  0
   15.8564    2.4050    0.0000 C   0  0  0  0  0  0  0  0  0  0  0  0
    4.5981    1.9050    0.0000 C   0  0  0  0  0  0  0  0  0  0  0  0
   16.7224    1.9050    0.0000 C   0  0  0  0  0  0  0  0  0  0  0  0
    3.7320    2.4050    0.0000 C   0  0  0  0  0  0  0  0  0  0  0  0
   16.7224   -1.0950    0.0000 C   0  0  0  0  0  0  0  0  0  0  0  0
    2.8660    1.9050    0.0000 C   0  0  0  0  0  0  0  0  0  0  0  0
    2.0000    2.4050    0.0000 C   0  0  0  0  0  0  0  0  0  0  0  0
   18.8530    1.3800    0.0000 H   0  0  0  0  0  0  0  0  0  0  0  0
   18.0560    1.3800    0.0000 H   0  0  0  0  0  0  0  0  0  0  0  0
   17.5885    1.2550    0.0000 H   0  0  0  0  0  0  0  0  0  0  0  0
   19.8765   -0.6319    0.0000 H   0  0  0  0  0  0  0  0  0  0  0  0
   20.7235   -0.4050    0.0000 H   0  0  0  0  0  0  0  0  0  0  0  0
   20.4965    0.4419    0.0000 H   0  0  0  0  0  0  0  0  0  0  0  0
   20.3574    0.9610    0.0000 H   0  0  0  0  0  0  0  0  0  0  0  0
   20.1305    1.8080    0.0000 H   0  0  0  0  0  0  0  0  0  0  0  0
   19.2836    1.5810    0.0000 H   0  0  0  0  0  0  0  0  0  0  0  0
   18.2836   -0.1510    0.0000 H   0  0  0  0  0  0  0  0  0  0  0  0
   18.5105   -0.9980    0.0000 H   0  0  0  0  0  0  0  0  0  0  0  0
   19.3574   -0.7710    0.0000 H   0  0  0  0  0  0  0  0  0  0  0  0
    9.3957    1.4300    0.0000 H   0  0  0  0  0  0  0  0  0  0  0  0
   10.1928    1.4300    0.0000 H   0  0  0  0  0  0  0  0  0  0  0  0
   11.0588    2.8800    0.0000 H   0  0  0  0  0  0  0  0  0  0  0  0
   10.2617    2.8800    0.0000 H   0  0  0  0  0  0  0  0  0  0  0  0
    9.3267    2.8800    0.0000 H   0  0  0  0  0  0  0  0  0  0  0  0
    8.5297    2.8800    0.0000 H   0  0  0  0  0  0  0  0  0  0  0  0
   11.1278    1.4300    0.0000 H   0  0  0  0  0  0  0  0  0  0  0  0
   11.9248    1.4300    0.0000 H   0  0  0  0  0  0  0  0  0  0  0  0
    7.6636    1.4300    0.0000 H   0  0  0  0  0  0  0  0  0  0  0  0
    8.4607    1.4300    0.0000 H   0  0  0  0  0  0  0  0  0  0  0  0
   12.7908    2.8800    0.0000 H   0  0  0  0  0  0  0  0  0  0  0  0
   11.9938    2.8800    0.0000 H   0  0  0  0  0  0  0  0  0  0  0  0
    7.5947    2.8800    0.0000 H   0  0  0  0  0  0  0  0  0  0  0  0
    6.7976    2.8800    0.0000 H   0  0  0  0  0  0  0  0  0  0  0  0
   12.8598    1.4300    0.0000 H   0  0  0  0  0  0  0  0  0  0  0  0
   13.6569    1.4300    0.0000 H   0  0  0  0  0  0  0  0  0  0  0  0
   17.8005   -1.1776    0.0000 H   0  0  0  0  0  0  0  0  0  0  0  0
   18.1990   -0.4873    0.0000 H   0  0  0  0  0  0  0  0  0  0  0  0
    5.9316    1.4300    0.0000 H   0  0  0  0  0  0  0  0  0  0  0  0
    6.7287    1.4300    0.0000 H   0  0  0  0  0  0  0  0  0  0  0  0
   14.5229    2.8800    0.0000 H   0  0  0  0  0  0  0  0  0  0  0  0
   13.7258    2.8800    0.0000 H   0  0  0  0  0  0  0  0  0  0  0  0
    5.8626    2.8800    0.0000 H   0  0  0  0  0  0  0  0  0  0  0  0
    5.0656    2.8800    0.0000 H   0  0  0  0  0  0  0  0  0  0  0  0
   14.5919    1.4300    0.0000 H   0  0  0  0  0  0  0  0  0  0  0  0
   15.3889    1.4300    0.0000 H   0  0  0  0  0  0  0  0  0  0  0  0
   16.2549    2.8800    0.0000 H   0  0  0  0  0  0  0  0  0  0  0  0
   15.4579    2.8800    0.0000 H   0  0  0  0  0  0  0  0  0  0  0  0
    4.1996    1.4300    0.0000 H   0  0  0  0  0  0  0  0  0  0  0  0
    4.9966    1.4300    0.0000 H   0  0  0  0  0  0  0  0  0  0  0  0
    4.1306    2.8800    0.0000 H   0  0  0  0  0  0  0  0  0  0  0  0
    3.3335    2.8800    0.0000 H   0  0  0  0  0  0  0  0  0  0  0  0
    2.4675    1.4300    0.0000 H   0  0  0  0  0  0  0  0  0  0  0  0
    3.2646    1.4300    0.0000 H   0  0  0  0  0  0  0  0  0  0  0  0
    2.3100    2.9419    0.0000 H   0  0  0  0  0  0  0  0  0  0  0  0
    1.4631    2.7150    0.0000 H   0  0  0  0  0  0  0  0  0  0  0  0
    1.6900    1.8681    0.0000 H   0  0  0  0  0  0  0  0  0  0  0  0
   16.1855   -2.4050    0.0000 H   0  0  0  0  0  0  0  0  0  0  0  0
  1  7  1  0  0  0  0
  1 26  1  0  0  0  0
  2 26  2  0  0  0  0
  3 28  1  0  0  0  0
  3 80  1  0  0  0  0
  4 28  2  0  0  0  0
  5  6  1  0  0  0  0
  5  8  1  0  0  0  0
  5  9  1  0  0  0  0
  5 10  1  0  0  0  0
  6  7  1  0  0  0  0
  6 31  1  0  0  0  0
  6 32  1  0  0  0  0
  7 19  1  0  0  0  0
  7 33  1  0  0  0  0
  8 34  1  0  0  0  0
  8 35  1  0  0  0  0
  8 36  1  0  0  0  0
  9 37  1  0  0  0  0
  9 38  1  0  0  0  0
  9 39  1  0  0  0  0
 10 40  1  0  0  0  0
 10 41  1  0  0  0  0
 10 42  1  0  0  0  0
 11 12  1  0  0  0  0
 11 13  1  0  0  0  0
 11 43  1  0  0  0  0
 11 44  1  0  0  0  0
 12 14  1  0  0  0  0
 12 45  1  0  0  0  0
 12 46  1  0  0  0  0
 13 15  1  0  0  0  0
 13 47  1  0  0  0  0
 13 48  1  0  0  0  0
 14 16  1  0  0  0  0
 14 49  1  0  0  0  0
 14 50  1  0  0  0  0
 15 17  1  0  0  0  0
 15 51  1  0  0  0  0
 15 52  1  0  0  0  0
 16 18  1  0  0  0  0
 16 53  1  0  0  0  0
 16 54  1  0  0  0  0
 17 20  1  0  0  0  0
 17 55  1  0  0  0  0
 17 56  1  0  0  0  0
 18 21  1  0  0  0  0
 18 57  1  0  0  0  0
 18 58  1  0  0  0  0
 19 28  1  0  0  0  0
 19 59  1  0  0  0  0
 19 60  1  0  0  0  0
 20 22  1  0  0  0  0
 20 61  1  0  0  0  0
 20 62  1  0  0  0  0
 21 23  1  0  0  0  0
 21 63  1  0  0  0  0
 21 64  1  0  0  0  0
 22 25  1  0  0  0  0
 22 65  1  0  0  0  0
 22 66  1  0  0  0  0
 23 24  1  0  0  0  0
 23 67  1  0  0  0  0
 23 68  1  0  0  0  0
 24 26  1  0  0  0  0
 24 69  1  0  0  0  0
 24 70  1  0  0  0  0
 25 27  1  0  0  0  0
 25 71  1  0  0  0  0
 25 72  1  0  0  0  0
 27 29  1  0  0  0  0
 27 73  1  0  0  0  0
 27 74  1  0  0  0  0
 29 30  1  0  0  0  0
 29 75  1  0  0  0  0
 29 76  1  0  0  0  0
 30 77  1  0  0  0  0
 30 78  1  0  0  0  0
 30 79  1  0  0  0  0
M  CHG  1   5   1
M  END
> <PUBCHEM_COMPOUND_CID>
5282

> <PUBCHEM_COMPOUND_CANONICALIZED>
1

> <PUBCHEM_CACTVS_COMPLEXITY>
431

> <PUBCHEM_CACTVS_HBOND_ACCEPTOR>
4

> <PUBCHEM_CACTVS_HBOND_DONOR>
1

> <PUBCHEM_CACTVS_ROTATABLE_BOND>
22

> <PUBCHEM_CACTVS_SUBSKEYS>
AAADcfB6OAAAAAAAAAAAAAAAAAAAAAAAAAAAAAAAAAAAAAAAAAAAHgAACAAACBThgAYCCAMABgAIAACQCAAAAAAAAAAAAAEIAAACABYAgAAHQAAFIAAQAAGsyKCAAAAAAAAAAAAAAAAAAAAAAAAAAAAAAA==

> <PUBCHEM_IUPAC_OPENEYE_NAME>
(3-carboxy-2-octadecanoyloxy-propyl)-trimethyl-ammonium

> <PUBCHEM_IUPAC_CAS_NAME>
[3-carboxy-2-(1-oxooctadecoxy)propyl]-trimethylammonium

> <PUBCHEM_IUPAC_NAME>
(3-carboxy-2-octadecanoyloxypropyl)-trimethylazanium

> <PUBCHEM_IUPAC_SYSTEMATIC_NAME>
trimethyl-(2-octadecanoyloxy-4-oxidanyl-4-oxidanylidene-butyl)azanium

> <PUBCHEM_IUPAC_TRADITIONAL_NAME>
(3-carboxy-2-stearoyloxy-propyl)-trimethyl-ammonium

> <PUBCHEM_IUPAC_INCHI>
InChI=1S/C25H49NO4/c1-5-6-7-8-9-10-11-12-13-14-15-16-17-18-19-20-25(29)30-23(21-24(27)28)22-26(2,3)4/h23H,5-22H2,1-4H3/p+1

> <PUBCHEM_IUPAC_INCHIKEY>
FNPHNLNTJNMAEE-UHFFFAOYSA-O

> <PUBCHEM_XLOGP3_AA>
8.1

> <PUBCHEM_EXACT_MASS>
428.373984

> <PUBCHEM_MOLECULAR_FORMULA>
C25H50NO4+

> <PUBCHEM_MOLECULAR_WEIGHT>
428.6688

> <PUBCHEM_OPENEYE_CAN_SMILES>
CCCCCCCCCCCCCCCCCC(=O)OC(CC(=O)O)C[N+](C)(C)C

> <PUBCHEM_OPENEYE_ISO_SMILES>
CCCCCCCCCCCCCCCCCC(=O)OC(CC(=O)O)C[N+](C)(C)C

> <PUBCHEM_CACTVS_TPSA>
63.6

> <PUBCHEM_MONOISOTOPIC_WEIGHT>
428.373984

> <PUBCHEM_TOTAL_CHARGE>
1

> <PUBCHEM_HEAVY_ATOM_COUNT>
30

> <PUBCHEM_ATOM_DEF_STEREO_COUNT>
0

> <PUBCHEM_ATOM_UDEF_STEREO_COUNT>
1

> <PUBCHEM_BOND_DEF_STEREO_COUNT>
0

> <PUBCHEM_BOND_UDEF_STEREO_COUNT>
0

> <PUBCHEM_ISOTOPIC_ATOM_COUNT>
0

> <PUBCHEM_COMPONENT_COUNT>
1

> <PUBCHEM_CACTVS_TAUTO_COUNT>
1

> <PUBCHEM_COORDINATE_TYPE>
1
5
255

> <PUBCHEM_BONDANNOTATIONS>
7  33  3

$$$$

