17396019
  -OEChem-06241222532D

 41 44  0     1  0  0  0  0  0999 V2000
    6.0879   -3.2002    0.0000 Br  0  0  0  0  0  0  0  0  0  0  0  0
    7.0468    3.1203    0.0000 F   0  0  0  0  0  0  0  0  0  0  0  0
    2.6691    2.7136    0.0000 O   0  0  0  0  0  0  0  0  0  0  0  0
    3.5827    1.1203    0.0000 O   0  0  0  0  0  0  0  0  0  0  0  0
    6.2853   -1.3742    0.0000 O   0  0  0  0  0  0  0  0  0  0  0  0
    7.0468    1.1203    0.0000 O   0  0  0  0  0  0  0  0  0  0  0  0
    4.4487    2.6203    0.0000 N   0  0  0  0  0  0  0  0  0  0  0  0
    5.3147    1.1203    0.0000 N   0  0  0  0  0  0  0  0  0  0  0  0
    7.0943    0.0271    0.0000 N   0  0  0  0  0  0  0  0  0  0  0  0
    7.7634   -0.7161    0.0000 N   0  0  0  0  0  0  0  0  0  0  0  0
    3.5827    3.1203    0.0000 C   0  0  3  0  0  0  0  0  0  0  0  0
    3.4782    4.1148    0.0000 C   0  0  0  0  0  0  0  0  0  0  0  0
    2.5000    4.3228    0.0000 C   0  0  0  0  0  0  0  0  0  0  0  0
    2.0000    3.4567    0.0000 C   0  0  0  0  0  0  0  0  0  0  0  0
    4.4487    1.6203    0.0000 C   0  0  0  0  0  0  0  0  0  0  0  0
    5.3147    3.1203    0.0000 C   0  0  0  0  0  0  0  0  0  0  0  0
    5.3147    0.1203    0.0000 C   0  0  0  0  0  0  0  0  0  0  0  0
    6.1808    2.6203    0.0000 C   0  0  0  0  0  0  0  0  0  0  0  0
    6.1808    1.6203    0.0000 C   0  0  0  0  0  0  0  0  0  0  0  0
    6.1808   -0.3797    0.0000 C   0  0  0  0  0  0  0  0  0  0  0  0
    7.2634   -1.5821    0.0000 C   0  0  0  0  0  0  0  0  0  0  0  0
    7.6702   -2.4957    0.0000 C   0  0  0  0  0  0  0  0  0  0  0  0
    7.0824   -3.3047    0.0000 C   0  0  0  0  0  0  0  0  0  0  0  0
    8.6647   -2.6002    0.0000 C   0  0  0  0  0  0  0  0  0  0  0  0
    7.4891   -4.2182    0.0000 C   0  0  0  0  0  0  0  0  0  0  0  0
    9.0714   -3.5137    0.0000 C   0  0  0  0  0  0  0  0  0  0  0  0
    8.4836   -4.3228    0.0000 C   0  0  0  0  0  0  0  0  0  0  0  0
    4.1026    3.4580    0.0000 H   0  0  0  0  0  0  0  0  0  0  0  0
    4.0982    4.1148    0.0000 H   0  0  0  0  0  0  0  0  0  0  0  0
    3.5430    4.7314    0.0000 H   0  0  0  0  0  0  0  0  0  0  0  0
    2.6916    4.9124    0.0000 H   0  0  0  0  0  0  0  0  0  0  0  0
    1.9336    4.5749    0.0000 H   0  0  0  0  0  0  0  0  0  0  0  0
    1.4984    3.8212    0.0000 H   0  0  0  0  0  0  0  0  0  0  0  0
    1.5851    2.9960    0.0000 H   0  0  0  0  0  0  0  0  0  0  0  0
    5.3147    3.7403    0.0000 H   0  0  0  0  0  0  0  0  0  0  0  0
    4.7042    0.2280    0.0000 H   0  0  0  0  0  0  0  0  0  0  0  0
    5.1027   -0.4623    0.0000 H   0  0  0  0  0  0  0  0  0  0  0  0
    9.0291   -2.0986    0.0000 H   0  0  0  0  0  0  0  0  0  0  0  0
    7.1247   -4.7198    0.0000 H   0  0  0  0  0  0  0  0  0  0  0  0
    9.6880   -3.5785    0.0000 H   0  0  0  0  0  0  0  0  0  0  0  0
    8.7358   -4.8892    0.0000 H   0  0  0  0  0  0  0  0  0  0  0  0
  1 23  1  0  0  0  0
  2 18  1  0  0  0  0
  3 11  1  0  0  0  0
  3 14  1  0  0  0  0
  4 15  2  0  0  0  0
  5 20  1  0  0  0  0
  5 21  1  0  0  0  0
  6 19  2  0  0  0  0
  7 11  1  0  0  0  0
  7 15  1  0  0  0  0
  7 16  1  0  0  0  0
  8 15  1  0  0  0  0
  8 17  1  0  0  0  0
  8 19  1  0  0  0  0
  9 10  1  0  0  0  0
  9 20  2  0  0  0  0
 10 21  2  0  0  0  0
 11 12  1  0  0  0  0
 11 28  1  0  0  0  0
 12 13  1  0  0  0  0
 12 29  1  0  0  0  0
 12 30  1  0  0  0  0
 13 14  1  0  0  0  0
 13 31  1  0  0  0  0
 13 32  1  0  0  0  0
 14 33  1  0  0  0  0
 14 34  1  0  0  0  0
 16 18  2  0  0  0  0
 16 35  1  0  0  0  0
 17 20  1  0  0  0  0
 17 36  1  0  0  0  0
 17 37  1  0  0  0  0
 18 19  1  0  0  0  0
 21 22  1  0  0  0  0
 22 23  1  0  0  0  0
 22 24  2  0  0  0  0
 23 25  2  0  0  0  0
 24 26  1  0  0  0  0
 24 38  1  0  0  0  0
 25 27  1  0  0  0  0
 25 39  1  0  0  0  0
 26 27  2  0  0  0  0
 26 40  1  0  0  0  0
 27 41  1  0  0  0  0
M  END
> <PUBCHEM_COMPOUND_CID>
17396019

> <PUBCHEM_COMPOUND_CANONICALIZED>
1

> <PUBCHEM_CACTVS_COMPLEXITY>
636

> <PUBCHEM_CACTVS_HBOND_ACCEPTOR>
7

> <PUBCHEM_CACTVS_HBOND_DONOR>
0

> <PUBCHEM_CACTVS_ROTATABLE_BOND>
4

> <PUBCHEM_CACTVS_SUBSKEYS>
AAADccB7uQAAEAAAAAAAAAAAAAAAAWJAAAAwQAAAAAAAAAABwAAAHwBIAAABrADhmgYxAIMABECqAiF2UACSAAAsAAQaiCG4DPiKZrKAtTmfMQBszyOYq9e4yCCOAAAAAAAAgAAAAAAAAAEAAAAAAAAAAA==

> <PUBCHEM_IUPAC_OPENEYE_NAME>
3-[[5-(2-bromophenyl)-1,3,4-oxadiazol-2-yl]methyl]-5-fluoro-1-tetrahydrofuran-2-yl-pyrimidine-2,4-dione

> <PUBCHEM_IUPAC_CAS_NAME>
3-[[5-(2-bromophenyl)-1,3,4-oxadiazol-2-yl]methyl]-5-fluoro-1-(2-oxolanyl)pyrimidine-2,4-dione

> <PUBCHEM_IUPAC_NAME>
3-[[5-(2-bromophenyl)-1,3,4-oxadiazol-2-yl]methyl]-5-fluoro-1-(oxolan-2-yl)pyrimidine-2,4-dione

> <PUBCHEM_IUPAC_SYSTEMATIC_NAME>
3-[[5-(2-bromophenyl)-1,3,4-oxadiazol-2-yl]methyl]-5-fluoranyl-1-(oxolan-2-yl)pyrimidine-2,4-dione

> <PUBCHEM_IUPAC_TRADITIONAL_NAME>
3-[[5-(2-bromophenyl)-1,3,4-oxadiazol-2-yl]methyl]-5-fluoro-1-(tetrahydrofuryl)pyrimidine-2,4-quinone

> <PUBCHEM_IUPAC_INCHI>
InChI=1S/C17H14BrFN4O4/c18-11-5-2-1-4-10(11)15-21-20-13(27-15)9-23-16(24)12(19)8-22(17(23)25)14-6-3-7-26-14/h1-2,4-5,8,14H,3,6-7,9H2

> <PUBCHEM_IUPAC_INCHIKEY>
WFAJWBQGHANWMY-UHFFFAOYSA-N

> <PUBCHEM_XLOGP3_AA>
1.9

> <PUBCHEM_EXACT_MASS>
436.018245

> <PUBCHEM_MOLECULAR_FORMULA>
C17H14BrFN4O4

> <PUBCHEM_MOLECULAR_WEIGHT>
437.219863

> <PUBCHEM_OPENEYE_CAN_SMILES>
C1CC(OC1)N2C=C(C(=O)N(C2=O)CC3=NN=C(O3)C4=CC=CC=C4Br)F

> <PUBCHEM_OPENEYE_ISO_SMILES>
C1CC(OC1)N2C=C(C(=O)N(C2=O)CC3=NN=C(O3)C4=CC=CC=C4Br)F

> <PUBCHEM_CACTVS_TPSA>
88.8

> <PUBCHEM_MONOISOTOPIC_WEIGHT>
436.018245

> <PUBCHEM_TOTAL_CHARGE>
0

> <PUBCHEM_HEAVY_ATOM_COUNT>
27

> <PUBCHEM_ATOM_DEF_STEREO_COUNT>
0

> <PUBCHEM_ATOM_UDEF_STEREO_COUNT>
1

> <PUBCHEM_BOND_DEF_STEREO_COUNT>
0

> <PUBCHEM_BOND_UDEF_STEREO_COUNT>
0

> <PUBCHEM_ISOTOPIC_ATOM_COUNT>
0

> <PUBCHEM_COMPONENT_COUNT>
1

> <PUBCHEM_CACTVS_TAUTO_COUNT>
1

> <PUBCHEM_COORDINATE_TYPE>
1
5
255

> <PUBCHEM_BONDANNOTATIONS>
10  21  8
16  18  8
18  19  8
22  23  8
22  24  8
23  25  8
24  26  8
25  27  8
26  27  8
5  20  8
5  21  8
11  7  3
7  15  8
7  16  8
8  15  8
8  19  8
9  10  8
9  20  8

$$$$

