17395994
  -OEChem-06241222532D

 38 40  0     0  0  0  0  0  0999 V2000
    2.0000   -1.0173    0.0000 F   0  0  0  0  0  0  0  0  0  0  0  0
    2.3660    0.3487    0.0000 F   0  0  0  0  0  0  0  0  0  0  0  0
    3.3660   -1.3834    0.0000 F   0  0  0  0  0  0  0  0  0  0  0  0
   11.5542    1.5173    0.0000 O   0  0  0  0  0  0  0  0  0  0  0  0
    8.0622   -1.5173    0.0000 O   0  0  0  0  0  0  0  0  0  0  0  0
   13.3244   -0.5415    0.0000 O   0  0  0  0  0  0  0  0  0  0  0  0
    7.1962   -0.0173    0.0000 N   0  0  0  0  0  0  0  0  0  0  0  0
   11.5542   -0.5520    0.0000 N   0  0  0  0  0  0  0  0  0  0  0  0
   10.6603   -0.0173    0.0000 C   0  0  0  0  0  0  0  0  0  0  0  0
    8.9282   -0.0173    0.0000 C   0  0  0  0  0  0  0  0  0  0  0  0
    6.3301   -0.5173    0.0000 C   0  0  0  0  0  0  0  0  0  0  0  0
   10.6603    0.9827    0.0000 C   0  0  0  0  0  0  0  0  0  0  0  0
    5.4641   -0.0173    0.0000 C   0  0  0  0  0  0  0  0  0  0  0  0
    9.7942   -0.5173    0.0000 C   0  0  0  0  0  0  0  0  0  0  0  0
    8.0622   -0.5173    0.0000 C   0  0  0  0  0  0  0  0  0  0  0  0
    8.9282    0.9827    0.0000 C   0  0  0  0  0  0  0  0  0  0  0  0
    9.7942    1.4827    0.0000 C   0  0  0  0  0  0  0  0  0  0  0  0
    4.5981   -0.5173    0.0000 C   0  0  0  0  0  0  0  0  0  0  0  0
   12.4603    1.0035    0.0000 C   0  0  0  0  0  0  0  0  0  0  0  0
    3.7320   -0.0173    0.0000 C   0  0  0  0  0  0  0  0  0  0  0  0
    5.4641    0.9827    0.0000 C   0  0  0  0  0  0  0  0  0  0  0  0
   12.4603   -0.0381    0.0000 C   0  0  0  0  0  0  0  0  0  0  0  0
    3.7320    0.9827    0.0000 C   0  0  0  0  0  0  0  0  0  0  0  0
    4.5981    1.4827    0.0000 C   0  0  0  0  0  0  0  0  0  0  0  0
    2.8660   -0.5173    0.0000 C   0  0  0  0  0  0  0  0  0  0  0  0
    5.9316   -0.9923    0.0000 H   0  0  0  0  0  0  0  0  0  0  0  0
    6.7287   -0.9923    0.0000 H   0  0  0  0  0  0  0  0  0  0  0  0
    9.7942   -1.1373    0.0000 H   0  0  0  0  0  0  0  0  0  0  0  0
    7.1962    0.6027    0.0000 H   0  0  0  0  0  0  0  0  0  0  0  0
    8.3913    1.2927    0.0000 H   0  0  0  0  0  0  0  0  0  0  0  0
    9.7942    2.1027    0.0000 H   0  0  0  0  0  0  0  0  0  0  0  0
   11.5470   -1.1720    0.0000 H   0  0  0  0  0  0  0  0  0  0  0  0
    4.5981   -1.1373    0.0000 H   0  0  0  0  0  0  0  0  0  0  0  0
   13.0711    0.8974    0.0000 H   0  0  0  0  0  0  0  0  0  0  0  0
   12.6693    1.5872    0.0000 H   0  0  0  0  0  0  0  0  0  0  0  0
    6.0010    1.2927    0.0000 H   0  0  0  0  0  0  0  0  0  0  0  0
    3.1951    1.2927    0.0000 H   0  0  0  0  0  0  0  0  0  0  0  0
    4.5981    2.1027    0.0000 H   0  0  0  0  0  0  0  0  0  0  0  0
  1 25  1  0  0  0  0
  2 25  1  0  0  0  0
  3 25  1  0  0  0  0
  4 12  1  0  0  0  0
  4 19  1  0  0  0  0
  5 15  2  0  0  0  0
  6 22  2  0  0  0  0
  7 11  1  0  0  0  0
  7 15  1  0  0  0  0
  7 29  1  0  0  0  0
  8  9  1  0  0  0  0
  8 22  1  0  0  0  0
  8 32  1  0  0  0  0
  9 12  2  0  0  0  0
  9 14  1  0  0  0  0
 10 14  2  0  0  0  0
 10 15  1  0  0  0  0
 10 16  1  0  0  0  0
 11 13  1  0  0  0  0
 11 26  1  0  0  0  0
 11 27  1  0  0  0  0
 12 17  1  0  0  0  0
 13 18  2  0  0  0  0
 13 21  1  0  0  0  0
 14 28  1  0  0  0  0
 16 17  2  0  0  0  0
 16 30  1  0  0  0  0
 17 31  1  0  0  0  0
 18 20  1  0  0  0  0
 18 33  1  0  0  0  0
 19 22  1  0  0  0  0
 19 34  1  0  0  0  0
 19 35  1  0  0  0  0
 20 23  2  0  0  0  0
 20 25  1  0  0  0  0
 21 24  2  0  0  0  0
 21 36  1  0  0  0  0
 23 24  1  0  0  0  0
 23 37  1  0  0  0  0
 24 38  1  0  0  0  0
M  END
> <PUBCHEM_COMPOUND_CID>
17395994

> <PUBCHEM_COMPOUND_CANONICALIZED>
1

> <PUBCHEM_CACTVS_COMPLEXITY>
512

> <PUBCHEM_CACTVS_HBOND_ACCEPTOR>
6

> <PUBCHEM_CACTVS_HBOND_DONOR>
2

> <PUBCHEM_CACTVS_ROTATABLE_BOND>
3

> <PUBCHEM_CACTVS_SUBSKEYS>
AAADccB7MYAAAAAAAAAAAAAAAAAAAAAAAAA8YIAAAAAAAACxQAAAHwAQAAAADAzhmBYwxoLABACIAiVSUAKCCAAlIgAIiIFPbMgOJjLEtZ+HOSjk1hHY6Yec3ELOIAACQAAAEABAAASAAAAgAAAAAAAAAA==

> <PUBCHEM_IUPAC_OPENEYE_NAME>
3-oxo-N-[[3-(trifluoromethyl)phenyl]methyl]-4H-1,4-benzoxazine-6-carboxamide

> <PUBCHEM_IUPAC_CAS_NAME>
3-oxo-N-[[3-(trifluoromethyl)phenyl]methyl]-4H-1,4-benzoxazine-6-carboxamide

> <PUBCHEM_IUPAC_NAME>
3-oxo-N-[[3-(trifluoromethyl)phenyl]methyl]-4H-1,4-benzoxazine-6-carboxamide

> <PUBCHEM_IUPAC_SYSTEMATIC_NAME>
3-oxidanylidene-N-[[3-(trifluoromethyl)phenyl]methyl]-4H-1,4-benzoxazine-6-carboxamide

> <PUBCHEM_IUPAC_TRADITIONAL_NAME>
3-keto-N-[3-(trifluoromethyl)benzyl]-4H-1,4-benzoxazine-6-carboxamide

> <PUBCHEM_IUPAC_INCHI>
InChI=1S/C17H13F3N2O3/c18-17(19,20)12-3-1-2-10(6-12)8-21-16(24)11-4-5-14-13(7-11)22-15(23)9-25-14/h1-7H,8-9H2,(H,21,24)(H,22,23)

> <PUBCHEM_IUPAC_INCHIKEY>
QTQBZDJNAHSVSS-UHFFFAOYSA-N

> <PUBCHEM_XLOGP3_AA>
2.5

> <PUBCHEM_EXACT_MASS>
350.087827

> <PUBCHEM_MOLECULAR_FORMULA>
C17H13F3N2O3

> <PUBCHEM_MOLECULAR_WEIGHT>
350.29193

> <PUBCHEM_OPENEYE_CAN_SMILES>
C1C(=O)NC2=C(O1)C=CC(=C2)C(=O)NCC3=CC(=CC=C3)C(F)(F)F

> <PUBCHEM_OPENEYE_ISO_SMILES>
C1C(=O)NC2=C(O1)C=CC(=C2)C(=O)NCC3=CC(=CC=C3)C(F)(F)F

> <PUBCHEM_CACTVS_TPSA>
67.4

> <PUBCHEM_MONOISOTOPIC_WEIGHT>
350.087827

> <PUBCHEM_TOTAL_CHARGE>
0

> <PUBCHEM_HEAVY_ATOM_COUNT>
25

> <PUBCHEM_ATOM_DEF_STEREO_COUNT>
0

> <PUBCHEM_ATOM_UDEF_STEREO_COUNT>
0

> <PUBCHEM_BOND_DEF_STEREO_COUNT>
0

> <PUBCHEM_BOND_UDEF_STEREO_COUNT>
0

> <PUBCHEM_ISOTOPIC_ATOM_COUNT>
0

> <PUBCHEM_COMPONENT_COUNT>
1

> <PUBCHEM_CACTVS_TAUTO_COUNT>
6

> <PUBCHEM_COORDINATE_TYPE>
1
5
255

> <PUBCHEM_BONDANNOTATIONS>
10  14  8
10  16  8
12  17  8
13  18  8
13  21  8
16  17  8
18  20  8
20  23  8
21  24  8
23  24  8
9  12  8
9  14  8

$$$$

