13479
  -OEChem-06261214372D

 49 49  0     1  0  0  0  0  0999 V2000
    4.0010    4.3100    0.0000 As  0  0  0  0  0  0  0  0  0  0  0  0
    1.7992   12.2400    0.0000 O   0  0  0  0  0  0  0  0  0  0  0  0
    0.9331   10.7400    0.0000 O   0  0  0  0  0  0  0  0  0  0  0  0
    4.0010    5.3100    0.0000 O   0  0  0  0  0  0  0  0  0  0  0  0
    5.0010    4.3100    0.0000 O   0  0  0  0  0  0  0  0  0  0  0  0
    4.0010    0.3100    0.0000 O   0  0  0  0  0  0  0  0  0  0  0  0
    3.0010    4.3100    0.0000 O   0  0  0  0  0  0  0  0  0  0  0  0
    1.4030    2.8100    0.0000 O   0  0  0  0  0  0  0  0  0  0  0  0
    3.5312    9.2400    0.0000 N   0  0  3  0  0  0  0  0  0  0  0  0
    2.2690    1.3100    0.0000 N   0  0  0  0  0  0  0  0  0  0  0  0
    4.3972    9.7400    0.0000 C   0  0  0  0  0  0  0  0  0  0  0  0
    2.6652    9.7400    0.0000 C   0  0  0  0  0  0  0  0  0  0  0  0
    4.3972   10.7400    0.0000 C   0  0  0  0  0  0  0  0  0  0  0  0
    2.6652   10.7400    0.0000 C   0  0  0  0  0  0  0  0  0  0  0  0
    3.5312   11.2400    0.0000 C   0  0  0  0  0  0  0  0  0  0  0  0
    3.5312    8.2400    0.0000 C   0  0  0  0  0  0  0  0  0  0  0  0
    1.7992   11.2400    0.0000 C   0  0  0  0  0  0  0  0  0  0  0  0
    4.0010    3.3100    0.0000 C   0  0  0  0  0  0  0  0  0  0  0  0
    3.1350    1.8100    0.0000 C   0  0  0  0  0  0  0  0  0  0  0  0
    3.1350    2.8100    0.0000 C   0  0  0  0  0  0  0  0  0  0  0  0
    4.8671    2.8100    0.0000 C   0  0  0  0  0  0  0  0  0  0  0  0
    4.0010    1.3100    0.0000 C   0  0  0  0  0  0  0  0  0  0  0  0
    4.8671    1.8100    0.0000 C   0  0  0  0  0  0  0  0  0  0  0  0
    0.9331   12.7400    0.0000 C   0  0  0  0  0  0  0  0  0  0  0  0
    1.4030    1.8100    0.0000 C   0  0  0  0  0  0  0  0  0  0  0  0
    0.5369    1.3100    0.0000 C   0  0  0  0  0  0  0  0  0  0  0  0
    4.6093    9.1574    0.0000 H   0  0  0  0  0  0  0  0  0  0  0  0
    5.0078    9.8477    0.0000 H   0  0  0  0  0  0  0  0  0  0  0  0
    2.0546    9.8477    0.0000 H   0  0  0  0  0  0  0  0  0  0  0  0
    2.4531    9.1574    0.0000 H   0  0  0  0  0  0  0  0  0  0  0  0
    5.0078   10.6323    0.0000 H   0  0  0  0  0  0  0  0  0  0  0  0
    4.6093   11.3226    0.0000 H   0  0  0  0  0  0  0  0  0  0  0  0
    3.5312   11.8600    0.0000 H   0  0  0  0  0  0  0  0  0  0  0  0
    2.9112    8.2400    0.0000 H   0  0  0  0  0  0  0  0  0  0  0  0
    3.5312    7.6200    0.0000 H   0  0  0  0  0  0  0  0  0  0  0  0
    4.1512    8.2400    0.0000 H   0  0  0  0  0  0  0  0  0  0  0  0
    2.5981    3.1200    0.0000 H   0  0  0  0  0  0  0  0  0  0  0  0
    5.4040    3.1200    0.0000 H   0  0  0  0  0  0  0  0  0  0  0  0
    5.4040    1.5000    0.0000 H   0  0  0  0  0  0  0  0  0  0  0  0
    2.2690    0.6900    0.0000 H   0  0  0  0  0  0  0  0  0  0  0  0
    1.2431   13.2769    0.0000 H   0  0  0  0  0  0  0  0  0  0  0  0
    0.3962   13.0500    0.0000 H   0  0  0  0  0  0  0  0  0  0  0  0
    0.6231   12.2031    0.0000 H   0  0  0  0  0  0  0  0  0  0  0  0
    4.5380    5.6200    0.0000 H   0  0  0  0  0  0  0  0  0  0  0  0
    5.3110    4.8469    0.0000 H   0  0  0  0  0  0  0  0  0  0  0  0
    4.5380    0.0000    0.0000 H   0  0  0  0  0  0  0  0  0  0  0  0
    0.2269    1.8469    0.0000 H   0  0  0  0  0  0  0  0  0  0  0  0
    0.0000    1.0000    0.0000 H   0  0  0  0  0  0  0  0  0  0  0  0
    0.8469    0.7731    0.0000 H   0  0  0  0  0  0  0  0  0  0  0  0
  1  4  1  0  0  0  0
  1  5  1  0  0  0  0
  1  7  2  0  0  0  0
  1 18  1  0  0  0  0
  2 17  1  0  0  0  0
  2 24  1  0  0  0  0
  3 17  2  0  0  0  0
  4 44  1  0  0  0  0
  5 45  1  0  0  0  0
  6 22  1  0  0  0  0
  6 46  1  0  0  0  0
  8 25  2  0  0  0  0
  9 11  1  0  0  0  0
  9 12  1  0  0  0  0
  9 16  1  0  0  0  0
 10 19  1  0  0  0  0
 10 25  1  0  0  0  0
 10 40  1  0  0  0  0
 11 13  1  0  0  0  0
 11 27  1  0  0  0  0
 11 28  1  0  0  0  0
 12 14  1  0  0  0  0
 12 29  1  0  0  0  0
 12 30  1  0  0  0  0
 13 15  1  0  0  0  0
 13 31  1  0  0  0  0
 13 32  1  0  0  0  0
 14 15  2  0  0  0  0
 14 17  1  0  0  0  0
 15 33  1  0  0  0  0
 16 34  1  0  0  0  0
 16 35  1  0  0  0  0
 16 36  1  0  0  0  0
 18 20  2  0  0  0  0
 18 21  1  0  0  0  0
 19 20  1  0  0  0  0
 19 22  2  0  0  0  0
 20 37  1  0  0  0  0
 21 23  2  0  0  0  0
 21 38  1  0  0  0  0
 22 23  1  0  0  0  0
 23 39  1  0  0  0  0
 24 41  1  0  0  0  0
 24 42  1  0  0  0  0
 24 43  1  0  0  0  0
 25 26  1  0  0  0  0
 26 47  1  0  0  0  0
 26 48  1  0  0  0  0
 26 49  1  0  0  0  0
M  END
> <PUBCHEM_COMPOUND_CID>
13479

> <PUBCHEM_COMPOUND_CANONICALIZED>
1

> <PUBCHEM_CACTVS_COMPLEXITY>
475

> <PUBCHEM_CACTVS_HBOND_ACCEPTOR>
8

> <PUBCHEM_CACTVS_HBOND_DONOR>
4

> <PUBCHEM_CACTVS_ROTATABLE_BOND>
4

> <PUBCHEM_CACTVS_SUBSKEYS>
AAADceB7OAAAAAAAQAAAAAAAAAAAAAAAAAAwQAAAAAAAAAABAAAAHgEQCAAADAzBkAYyzoPABgCIAiXSWACCAAAhIgCIjAEPbMgKJirSsZOEcBhm1BHY+YeQQAAAAAAAAAAAEAAAAAAAAAAgAAAAAAAAAA==

> <PUBCHEM_IUPAC_OPENEYE_NAME>
(3-acetamido-4-hydroxy-phenyl)arsonic acid; methyl 1-methyl-3,6-dihydro-2H-pyridine-5-carboxylate

> <PUBCHEM_IUPAC_CAS_NAME>
(3-acetamido-4-hydroxyphenyl)arsonic acid; 1-methyl-3,6-dihydro-2H-pyridine-5-carboxylic acid methyl ester

> <PUBCHEM_IUPAC_NAME>
(3-acetamido-4-hydroxyphenyl)arsonic acid; methyl 1-methyl-3,6-dihydro-2H-pyridine-5-carboxylate

> <PUBCHEM_IUPAC_SYSTEMATIC_NAME>
(3-acetamido-4-oxidanyl-phenyl)arsonic acid; methyl 1-methyl-3,6-dihydro-2H-pyridine-5-carboxylate

> <PUBCHEM_IUPAC_TRADITIONAL_NAME>
(3-acetamido-4-hydroxy-phenyl)arsonic acid; arecoline

> <PUBCHEM_IUPAC_INCHI>
InChI=1S/C8H10AsNO5.C8H13NO2/c1-5(11)10-7-4-6(9(13,14)15)2-3-8(7)12;1-9-5-3-4-7(6-9)8(10)11-2/h2-4,12H,1H3,(H,10,11)(H2,13,14,15);4H,3,5-6H2,1-2H3

> <PUBCHEM_IUPAC_INCHIKEY>
QUVJQSPCNYDKEI-UHFFFAOYSA-N

> <PUBCHEM_EXACT_MASS>
430.072123

> <PUBCHEM_MOLECULAR_FORMULA>
C16H23AsN2O7

> <PUBCHEM_MOLECULAR_WEIGHT>
430.28462

> <PUBCHEM_OPENEYE_CAN_SMILES>
CC(=O)NC1=C(C=CC(=C1)[As](=O)(O)O)O.CN1CCC=C(C1)C(=O)OC

> <PUBCHEM_OPENEYE_ISO_SMILES>
CC(=O)NC1=C(C=CC(=C1)[As](=O)(O)O)O.CN1CCC=C(C1)C(=O)OC

> <PUBCHEM_CACTVS_TPSA>
136

> <PUBCHEM_MONOISOTOPIC_WEIGHT>
430.072123

> <PUBCHEM_TOTAL_CHARGE>
0

> <PUBCHEM_HEAVY_ATOM_COUNT>
26

> <PUBCHEM_ATOM_DEF_STEREO_COUNT>
0

> <PUBCHEM_ATOM_UDEF_STEREO_COUNT>
0

> <PUBCHEM_BOND_DEF_STEREO_COUNT>
0

> <PUBCHEM_BOND_UDEF_STEREO_COUNT>
0

> <PUBCHEM_ISOTOPIC_ATOM_COUNT>
0

> <PUBCHEM_COMPONENT_COUNT>
2

> <PUBCHEM_CACTVS_TAUTO_COUNT>
10

> <PUBCHEM_COORDINATE_TYPE>
1
5
255

> <PUBCHEM_BONDANNOTATIONS>
18  20  8
18  21  8
19  20  8
19  22  8
21  23  8
22  23  8

$$$$

