10009
  -OEChem-06261204152D

 13 13  0     0  0  0  0  0  0999 V2000
    4.2690   -1.3100    0.0000 N   0  0  0  0  0  0  0  0  0  0  0  0
    2.5369    0.6900    0.0000 N   0  0  0  0  0  0  0  0  0  0  0  0
    3.4030    0.1900    0.0000 C   0  0  0  0  0  0  0  0  0  0  0  0
    4.2690    0.6900    0.0000 C   0  0  0  0  0  0  0  0  0  0  0  0
    3.4030   -0.8100    0.0000 C   0  0  0  0  0  0  0  0  0  0  0  0
    5.1350    0.1900    0.0000 C   0  0  0  0  0  0  0  0  0  0  0  0
    5.1350   -0.8100    0.0000 C   0  0  0  0  0  0  0  0  0  0  0  0
    4.2690    1.3100    0.0000 H   0  0  0  0  0  0  0  0  0  0  0  0
    2.8660   -1.1200    0.0000 H   0  0  0  0  0  0  0  0  0  0  0  0
    5.6720    0.5000    0.0000 H   0  0  0  0  0  0  0  0  0  0  0  0
    5.6720   -1.1200    0.0000 H   0  0  0  0  0  0  0  0  0  0  0  0
    2.5369    1.3100    0.0000 H   0  0  0  0  0  0  0  0  0  0  0  0
    2.0000    0.3800    0.0000 H   0  0  0  0  0  0  0  0  0  0  0  0
  1  5  1  0  0  0  0
  1  7  2  0  0  0  0
  2  3  1  0  0  0  0
  2 12  1  0  0  0  0
  2 13  1  0  0  0  0
  3  4  1  0  0  0  0
  3  5  2  0  0  0  0
  4  6  2  0  0  0  0
  4  8  1  0  0  0  0
  5  9  1  0  0  0  0
  6  7  1  0  0  0  0
  6 10  1  0  0  0  0
  7 11  1  0  0  0  0
M  END
> <PUBCHEM_COMPOUND_CID>
10009

> <PUBCHEM_COMPOUND_CANONICALIZED>
1

> <PUBCHEM_CACTVS_COMPLEXITY>
54

> <PUBCHEM_CACTVS_HBOND_ACCEPTOR>
2

> <PUBCHEM_CACTVS_HBOND_DONOR>
1

> <PUBCHEM_CACTVS_ROTATABLE_BOND>
0

> <PUBCHEM_CACTVS_SUBSKEYS>
AAADcYBjAAAAAAAAAAAAAAAAAAAAAAAAAAAsAAAAAAAAAAABgAAAHAAQAAAACAjBEgQ8wJJIEACgADRnRACCgCAxEiAI2CA4dJgIYOLAkZGUIAhgkADIyAYQAAAAAAAAAAAAAAAAAAAAAAAAAAAAAAAAAA==

> <PUBCHEM_IUPAC_OPENEYE_NAME>
pyridin-3-amine

> <PUBCHEM_IUPAC_CAS_NAME>
3-pyridinamine

> <PUBCHEM_IUPAC_NAME>
pyridin-3-amine

> <PUBCHEM_IUPAC_SYSTEMATIC_NAME>
pyridin-3-amine

> <PUBCHEM_IUPAC_TRADITIONAL_NAME>
3-pyridylamine

> <PUBCHEM_IUPAC_INCHI>
InChI=1S/C5H6N2/c6-5-2-1-3-7-4-5/h1-4H,6H2

> <PUBCHEM_IUPAC_INCHIKEY>
CUYKNJBYIJFRCU-UHFFFAOYSA-N

> <PUBCHEM_XLOGP3>
0.1

> <PUBCHEM_EXACT_MASS>
94.053098

> <PUBCHEM_MOLECULAR_FORMULA>
C5H6N2

> <PUBCHEM_MOLECULAR_WEIGHT>
94.11454

> <PUBCHEM_OPENEYE_CAN_SMILES>
C1=CC(=CN=C1)N

> <PUBCHEM_OPENEYE_ISO_SMILES>
C1=CC(=CN=C1)N

> <PUBCHEM_CACTVS_TPSA>
38.9

> <PUBCHEM_MONOISOTOPIC_WEIGHT>
94.053098

> <PUBCHEM_TOTAL_CHARGE>
0

> <PUBCHEM_HEAVY_ATOM_COUNT>
7

> <PUBCHEM_ATOM_DEF_STEREO_COUNT>
0

> <PUBCHEM_ATOM_UDEF_STEREO_COUNT>
0

> <PUBCHEM_BOND_DEF_STEREO_COUNT>
0

> <PUBCHEM_BOND_UDEF_STEREO_COUNT>
0

> <PUBCHEM_ISOTOPIC_ATOM_COUNT>
0

> <PUBCHEM_COMPONENT_COUNT>
1

> <PUBCHEM_CACTVS_TAUTO_COUNT>
1

> <PUBCHEM_COORDINATE_TYPE>
1
5
255

> <PUBCHEM_BONDANNOTATIONS>
1  5  8
1  7  8
3  4  8
3  5  8
4  6  8
6  7  8

$$$$

