5087
  -OEChem-06261200302D

 42 43  0     1  0  0  0  0  0999 V2000
    4.5981    1.6739    0.0000 O   0  0  0  0  0  0  0  0  0  0  0  0
    7.4179   -4.6739    0.0000 O   0  0  0  0  0  0  0  0  0  0  0  0
    2.8660    0.6739    0.0000 O   0  0  0  0  0  0  0  0  0  0  0  0
    7.1391   -2.9139    0.0000 N   0  0  0  0  0  0  0  0  0  0  0  0
    5.8301   -3.8649    0.0000 N   0  0  0  0  0  0  0  0  0  0  0  0
    6.3301   -2.3261    0.0000 C   0  0  3  0  0  0  0  0  0  0  0  0
    6.3301   -1.3261    0.0000 C   0  0  0  0  0  0  0  0  0  0  0  0
    5.5211   -2.9139    0.0000 C   0  0  0  0  0  0  0  0  0  0  0  0
    5.4641   -0.8261    0.0000 C   0  0  0  0  0  0  0  0  0  0  0  0
    6.8301   -3.8649    0.0000 C   0  0  0  0  0  0  0  0  0  0  0  0
    5.4641    0.1739    0.0000 C   0  0  0  0  0  0  0  0  0  0  0  0
    4.5981   -1.3261    0.0000 C   0  0  0  0  0  0  0  0  0  0  0  0
    4.5981    0.6739    0.0000 C   0  0  0  0  0  0  0  0  0  0  0  0
    3.7320    0.1739    0.0000 C   0  0  0  0  0  0  0  0  0  0  0  0
    3.7320   -0.8261    0.0000 C   0  0  0  0  0  0  0  0  0  0  0  0
    5.4641    3.1739    0.0000 C   0  0  0  0  0  0  0  0  0  0  0  0
    5.4641    2.1739    0.0000 C   0  0  0  0  0  0  0  0  0  0  0  0
    6.3301    3.6739    0.0000 C   0  0  0  0  0  0  0  0  0  0  0  0
    6.3301    4.6739    0.0000 C   0  0  0  0  0  0  0  0  0  0  0  0
    2.0000    0.1739    0.0000 C   0  0  0  0  0  0  0  0  0  0  0  0
    6.8826   -2.0446    0.0000 H   0  0  0  0  0  0  0  0  0  0  0  0
    6.9407   -1.4337    0.0000 H   0  0  0  0  0  0  0  0  0  0  0  0
    6.5422   -0.7435    0.0000 H   0  0  0  0  0  0  0  0  0  0  0  0
    5.2111   -2.3769    0.0000 H   0  0  0  0  0  0  0  0  0  0  0  0
    4.9547   -3.1660    0.0000 H   0  0  0  0  0  0  0  0  0  0  0  0
    7.7288   -2.7223    0.0000 H   0  0  0  0  0  0  0  0  0  0  0  0
    5.4657   -4.3665    0.0000 H   0  0  0  0  0  0  0  0  0  0  0  0
    6.0010    0.4839    0.0000 H   0  0  0  0  0  0  0  0  0  0  0  0
    4.5981   -1.9461    0.0000 H   0  0  0  0  0  0  0  0  0  0  0  0
    3.1951   -1.1361    0.0000 H   0  0  0  0  0  0  0  0  0  0  0  0
    5.2520    3.7565    0.0000 H   0  0  0  0  0  0  0  0  0  0  0  0
    4.8535    3.0663    0.0000 H   0  0  0  0  0  0  0  0  0  0  0  0
    5.6762    1.5913    0.0000 H   0  0  0  0  0  0  0  0  0  0  0  0
    6.0747    2.2816    0.0000 H   0  0  0  0  0  0  0  0  0  0  0  0
    6.5422    3.0913    0.0000 H   0  0  0  0  0  0  0  0  0  0  0  0
    6.9407    3.7816    0.0000 H   0  0  0  0  0  0  0  0  0  0  0  0
    6.9501    4.6739    0.0000 H   0  0  0  0  0  0  0  0  0  0  0  0
    6.3301    5.2939    0.0000 H   0  0  0  0  0  0  0  0  0  0  0  0
    5.7101    4.6739    0.0000 H   0  0  0  0  0  0  0  0  0  0  0  0
    1.6900    0.7109    0.0000 H   0  0  0  0  0  0  0  0  0  0  0  0
    1.4631   -0.1361    0.0000 H   0  0  0  0  0  0  0  0  0  0  0  0
    2.3100   -0.3630    0.0000 H   0  0  0  0  0  0  0  0  0  0  0  0
  1 13  1  0  0  0  0
  1 17  1  0  0  0  0
  2 10  2  0  0  0  0
  3 14  1  0  0  0  0
  3 20  1  0  0  0  0
  4  6  1  0  0  0  0
  4 10  1  0  0  0  0
  4 26  1  0  0  0  0
  5  8  1  0  0  0  0
  5 10  1  0  0  0  0
  5 27  1  0  0  0  0
  6  7  1  0  0  0  0
  6  8  1  0  0  0  0
  6 21  1  0  0  0  0
  7  9  1  0  0  0  0
  7 22  1  0  0  0  0
  7 23  1  0  0  0  0
  8 24  1  0  0  0  0
  8 25  1  0  0  0  0
  9 11  2  0  0  0  0
  9 12  1  0  0  0  0
 11 13  1  0  0  0  0
 11 28  1  0  0  0  0
 12 15  2  0  0  0  0
 12 29  1  0  0  0  0
 13 14  2  0  0  0  0
 14 15  1  0  0  0  0
 15 30  1  0  0  0  0
 16 17  1  0  0  0  0
 16 18  1  0  0  0  0
 16 31  1  0  0  0  0
 16 32  1  0  0  0  0
 17 33  1  0  0  0  0
 17 34  1  0  0  0  0
 18 19  1  0  0  0  0
 18 35  1  0  0  0  0
 18 36  1  0  0  0  0
 19 37  1  0  0  0  0
 19 38  1  0  0  0  0
 19 39  1  0  0  0  0
 20 40  1  0  0  0  0
 20 41  1  0  0  0  0
 20 42  1  0  0  0  0
M  END
> <PUBCHEM_COMPOUND_CID>
5087

> <PUBCHEM_COMPOUND_CANONICALIZED>
1

> <PUBCHEM_CACTVS_COMPLEXITY>
312

> <PUBCHEM_CACTVS_HBOND_ACCEPTOR>
3

> <PUBCHEM_CACTVS_HBOND_DONOR>
2

> <PUBCHEM_CACTVS_ROTATABLE_BOND>
7

> <PUBCHEM_CACTVS_SUBSKEYS>
AAADceBzMAAAAAAAAAAAAAAAAAAAAWAAAAAwAAAAAAAAAAABAAAAHgAQAAAADCzhmAYzBoLABACIAiBCEAACCAAgIAAIiIAOiIiNZiKEsRuWOCKs1hMKqAeQ0LMOIAABAAAAQABAAAIAAACAAAAAAAAAAA==

> <PUBCHEM_IUPAC_OPENEYE_NAME>
4-[(3-butoxy-4-methoxy-phenyl)methyl]imidazolidin-2-one

> <PUBCHEM_IUPAC_CAS_NAME>
4-[(3-butoxy-4-methoxyphenyl)methyl]-2-imidazolidinone

> <PUBCHEM_IUPAC_NAME>
4-[(3-butoxy-4-methoxyphenyl)methyl]imidazolidin-2-one

> <PUBCHEM_IUPAC_SYSTEMATIC_NAME>
4-[(3-butoxy-4-methoxy-phenyl)methyl]imidazolidin-2-one

> <PUBCHEM_IUPAC_TRADITIONAL_NAME>
4-(3-butoxy-4-methoxy-benzyl)-2-imidazolidinone

> <PUBCHEM_IUPAC_INCHI>
InChI=1S/C15H22N2O3/c1-3-4-7-20-14-9-11(5-6-13(14)19-2)8-12-10-16-15(18)17-12/h5-6,9,12H,3-4,7-8,10H2,1-2H3,(H2,16,17,18)

> <PUBCHEM_IUPAC_INCHIKEY>
PDMUULPVBYQBBK-UHFFFAOYSA-N

> <PUBCHEM_XLOGP3_AA>
2.4

> <PUBCHEM_EXACT_MASS>
278.163043

> <PUBCHEM_MOLECULAR_FORMULA>
C15H22N2O3

> <PUBCHEM_MOLECULAR_WEIGHT>
278.34678

> <PUBCHEM_OPENEYE_CAN_SMILES>
CCCCOC1=C(C=CC(=C1)CC2CNC(=O)N2)OC

> <PUBCHEM_OPENEYE_ISO_SMILES>
CCCCOC1=C(C=CC(=C1)CC2CNC(=O)N2)OC

> <PUBCHEM_CACTVS_TPSA>
59.6

> <PUBCHEM_MONOISOTOPIC_WEIGHT>
278.163043

> <PUBCHEM_TOTAL_CHARGE>
0

> <PUBCHEM_HEAVY_ATOM_COUNT>
20

> <PUBCHEM_ATOM_DEF_STEREO_COUNT>
0

> <PUBCHEM_ATOM_UDEF_STEREO_COUNT>
1

> <PUBCHEM_BOND_DEF_STEREO_COUNT>
0

> <PUBCHEM_BOND_UDEF_STEREO_COUNT>
0

> <PUBCHEM_ISOTOPIC_ATOM_COUNT>
0

> <PUBCHEM_COMPONENT_COUNT>
1

> <PUBCHEM_CACTVS_TAUTO_COUNT>
3

> <PUBCHEM_COORDINATE_TYPE>
1
5
255

> <PUBCHEM_BONDANNOTATIONS>
11  13  8
12  15  8
13  14  8
14  15  8
6  7  3
9  11  8
9  12  8

$$$$

