9135
  -OEChem-06261203262D

 36 40  0     0  0  0  0  0  0999 V2000
    5.6098   -0.2398    0.0000 C   0  0  0  0  0  0  0  0  0  0  0  0
    4.7438    0.2602    0.0000 C   0  0  0  0  0  0  0  0  0  0  0  0
    4.7438    1.2602    0.0000 C   0  0  0  0  0  0  0  0  0  0  0  0
    6.4758    0.2602    0.0000 C   0  0  0  0  0  0  0  0  0  0  0  0
    5.5938   -1.2813    0.0000 C   0  0  0  0  0  0  0  0  0  0  0  0
    3.8498    1.7949    0.0000 C   0  0  0  0  0  0  0  0  0  0  0  0
    6.4918   -1.8090    0.0000 C   0  0  0  0  0  0  0  0  0  0  0  0
    2.9438    1.2810    0.0000 C   0  0  0  0  0  0  0  0  0  0  0  0
    5.6098    1.7602    0.0000 C   0  0  0  0  0  0  0  0  0  0  0  0
    3.8498   -0.2744    0.0000 C   0  0  0  0  0  0  0  0  0  0  0  0
    6.4758    1.2602    0.0000 C   0  0  0  0  0  0  0  0  0  0  0  0
    7.3858   -0.2466    0.0000 C   0  0  0  0  0  0  0  0  0  0  0  0
    2.9438    0.2394    0.0000 C   0  0  0  0  0  0  0  0  0  0  0  0
    7.3939   -1.2882    0.0000 C   0  0  0  0  0  0  0  0  0  0  0  0
    4.6418   -1.8019    0.0000 C   0  0  0  0  0  0  0  0  0  0  0  0
    3.8749    2.8796    0.0000 C   0  0  0  0  0  0  0  0  0  0  0  0
    6.5002   -2.8940    0.0000 C   0  0  0  0  0  0  0  0  0  0  0  0
    2.0000    1.8163    0.0000 C   0  0  0  0  0  0  0  0  0  0  0  0
    4.6251   -2.8868    0.0000 C   0  0  0  0  0  0  0  0  0  0  0  0
    2.9438    3.4365    0.0000 C   0  0  0  0  0  0  0  0  0  0  0  0
    5.5605   -3.4365    0.0000 C   0  0  0  0  0  0  0  0  0  0  0  0
    2.0000    2.9013    0.0000 C   0  0  0  0  0  0  0  0  0  0  0  0
    5.6098    2.3802    0.0000 H   0  0  0  0  0  0  0  0  0  0  0  0
    3.8570   -0.8944    0.0000 H   0  0  0  0  0  0  0  0  0  0  0  0
    7.0128    1.5702    0.0000 H   0  0  0  0  0  0  0  0  0  0  0  0
    7.9192    0.0696    0.0000 H   0  0  0  0  0  0  0  0  0  0  0  0
    2.4080   -0.0727    0.0000 H   0  0  0  0  0  0  0  0  0  0  0  0
    7.9320   -1.5962    0.0000 H   0  0  0  0  0  0  0  0  0  0  0  0
    4.1110   -1.4816    0.0000 H   0  0  0  0  0  0  0  0  0  0  0  0
    4.4178    3.1792    0.0000 H   0  0  0  0  0  0  0  0  0  0  0  0
    7.0383   -3.2019    0.0000 H   0  0  0  0  0  0  0  0  0  0  0  0
    1.4643    1.5042    0.0000 H   0  0  0  0  0  0  0  0  0  0  0  0
    4.0846   -3.1906    0.0000 H   0  0  0  0  0  0  0  0  0  0  0  0
    2.9510    4.0565    0.0000 H   0  0  0  0  0  0  0  0  0  0  0  0
    5.5581   -4.0565    0.0000 H   0  0  0  0  0  0  0  0  0  0  0  0
    1.4643    3.2133    0.0000 H   0  0  0  0  0  0  0  0  0  0  0  0
  1  2  1  0  0  0  0
  1  4  2  0  0  0  0
  1  5  1  0  0  0  0
  2  3  2  0  0  0  0
  2 10  1  0  0  0  0
  3  6  1  0  0  0  0
  3  9  1  0  0  0  0
  4 11  1  0  0  0  0
  4 12  1  0  0  0  0
  5  7  1  0  0  0  0
  5 15  2  0  0  0  0
  6  8  1  0  0  0  0
  6 16  2  0  0  0  0
  7 14  1  0  0  0  0
  7 17  2  0  0  0  0
  8 13  1  0  0  0  0
  8 18  2  0  0  0  0
  9 11  2  0  0  0  0
  9 23  1  0  0  0  0
 10 13  2  0  0  0  0
 10 24  1  0  0  0  0
 11 25  1  0  0  0  0
 12 14  2  0  0  0  0
 12 26  1  0  0  0  0
 13 27  1  0  0  0  0
 14 28  1  0  0  0  0
 15 19  1  0  0  0  0
 15 29  1  0  0  0  0
 16 20  1  0  0  0  0
 16 30  1  0  0  0  0
 17 21  1  0  0  0  0
 17 31  1  0  0  0  0
 18 22  1  0  0  0  0
 18 32  1  0  0  0  0
 19 21  2  0  0  0  0
 19 33  1  0  0  0  0
 20 22  2  0  0  0  0
 20 34  1  0  0  0  0
 21 35  1  0  0  0  0
 22 36  1  0  0  0  0
M  END
> <PUBCHEM_COMPOUND_CID>
9135

> <PUBCHEM_COMPOUND_CANONICALIZED>
1

> <PUBCHEM_CACTVS_COMPLEXITY>
399

> <PUBCHEM_CACTVS_HBOND_ACCEPTOR>
0

> <PUBCHEM_CACTVS_HBOND_DONOR>
0

> <PUBCHEM_CACTVS_ROTATABLE_BOND>
0

> <PUBCHEM_CACTVS_SUBSKEYS>
AAADccB4AAAAAAAAAAAAAAAAAAAAAAAAAAAwYMGDAAAAAADBVAAAGAAAAAAADACAGAAwAMAAAACAAiBCAAACAAAgAAAIiAAAAIgIICKAERCAIAAggAAIiAcAgMAOwAACAAAQAACAAAQAACAAAAAAAAAAAA==

> <PUBCHEM_IUPAC_INCHI>
InChI=1S/C22H14/c1-3-7-18-15(5-1)11-14-21-20(18)13-12-17-10-9-16-6-2-4-8-19(16)22(17)21/h1-14H

> <PUBCHEM_IUPAC_INCHIKEY>
YZWGEMSQAMDWEM-UHFFFAOYSA-N

> <PUBCHEM_XLOGP3>
7

> <PUBCHEM_EXACT_MASS>
278.10955

> <PUBCHEM_MOLECULAR_FORMULA>
C22H14

> <PUBCHEM_MOLECULAR_WEIGHT>
278.34656

> <PUBCHEM_OPENEYE_CAN_SMILES>
C1=CC=C2C(=C1)C=CC3=C2C=CC4=C3C5=CC=CC=C5C=C4

> <PUBCHEM_OPENEYE_ISO_SMILES>
C1=CC=C2C(=C1)C=CC3=C2C=CC4=C3C5=CC=CC=C5C=C4

> <PUBCHEM_CACTVS_TPSA>
0

> <PUBCHEM_MONOISOTOPIC_WEIGHT>
278.10955

> <PUBCHEM_TOTAL_CHARGE>
0

> <PUBCHEM_HEAVY_ATOM_COUNT>
22

> <PUBCHEM_ATOM_DEF_STEREO_COUNT>
0

> <PUBCHEM_ATOM_UDEF_STEREO_COUNT>
0

> <PUBCHEM_BOND_DEF_STEREO_COUNT>
0

> <PUBCHEM_BOND_UDEF_STEREO_COUNT>
0

> <PUBCHEM_ISOTOPIC_ATOM_COUNT>
0

> <PUBCHEM_COMPONENT_COUNT>
1

> <PUBCHEM_CACTVS_TAUTO_COUNT>
1

> <PUBCHEM_COORDINATE_TYPE>
1
5
255

> <PUBCHEM_BONDANNOTATIONS>
1  2  8
1  4  8
1  5  8
10  13  8
12  14  8
15  19  8
16  20  8
17  21  8
18  22  8
19  21  8
2  10  8
2  3  8
20  22  8
3  6  8
3  9  8
4  11  8
4  12  8
5  15  8
5  7  8
6  16  8
6  8  8
7  14  8
7  17  8
8  13  8
8  18  8
9  11  8

$$$$

