51090906
  -OEChem-06241223002D

 36 38  0     0  0  0  0  0  0999 V2000
    7.2685    3.3374    0.0000 S   0  0  0  0  0  0  0  0  0  0  0  0
    5.6808    2.5284    0.0000 S   0  0  0  0  0  0  0  0  0  0  0  0
    7.0468   -0.5104    0.0000 O   0  0  0  0  0  0  0  0  0  0  0  0
    6.4595    3.9252    0.0000 O   0  0  0  0  0  0  0  0  0  0  0  0
    8.0776    2.7496    0.0000 O   0  0  0  0  0  0  0  0  0  0  0  0
    3.5827   -3.5104    0.0000 N   0  0  0  0  0  0  0  0  0  0  0  0
    5.3147   -0.5104    0.0000 N   0  0  0  0  0  0  0  0  0  0  0  0
    7.8563    4.1465    0.0000 N   0  0  0  0  0  0  0  0  0  0  0  0
    4.4487   -3.0104    0.0000 C   0  0  0  0  0  0  0  0  0  0  0  0
    5.3147   -1.5104    0.0000 C   0  0  0  0  0  0  0  0  0  0  0  0
    4.4487   -2.0104    0.0000 C   0  0  0  0  0  0  0  0  0  0  0  0
    6.1808    0.9896    0.0000 C   0  0  0  0  0  0  0  0  0  0  0  0
    6.6808    2.5284    0.0000 C   0  0  0  0  0  0  0  0  0  0  0  0
    5.3147   -3.5104    0.0000 C   0  0  0  0  0  0  0  0  0  0  0  0
    6.9898    1.5774    0.0000 C   0  0  0  0  0  0  0  0  0  0  0  0
    6.1808   -0.0104    0.0000 C   0  0  0  0  0  0  0  0  0  0  0  0
    6.1808   -2.0104    0.0000 C   0  0  0  0  0  0  0  0  0  0  0  0
    6.1808   -3.0104    0.0000 C   0  0  0  0  0  0  0  0  0  0  0  0
    2.6691   -3.1037    0.0000 C   0  0  0  0  0  0  0  0  0  0  0  0
    3.4782   -4.5049    0.0000 C   0  0  0  0  0  0  0  0  0  0  0  0
    5.3717    1.5774    0.0000 C   0  0  0  0  0  0  0  0  0  0  0  0
    2.0000   -3.8468    0.0000 C   0  0  0  0  0  0  0  0  0  0  0  0
    2.5000   -4.7129    0.0000 C   0  0  0  0  0  0  0  0  0  0  0  0
    3.9118   -1.7004    0.0000 H   0  0  0  0  0  0  0  0  0  0  0  0
    4.7778   -0.2004    0.0000 H   0  0  0  0  0  0  0  0  0  0  0  0
    5.3147   -4.1304    0.0000 H   0  0  0  0  0  0  0  0  0  0  0  0
    7.5794    1.3858    0.0000 H   0  0  0  0  0  0  0  0  0  0  0  0
    6.7177   -1.7004    0.0000 H   0  0  0  0  0  0  0  0  0  0  0  0
    6.7177   -3.3204    0.0000 H   0  0  0  0  0  0  0  0  0  0  0  0
    3.9389   -4.9198    0.0000 H   0  0  0  0  0  0  0  0  0  0  0  0
    2.5402   -2.4972    0.0000 H   0  0  0  0  0  0  0  0  0  0  0  0
    4.7821    1.3858    0.0000 H   0  0  0  0  0  0  0  0  0  0  0  0
    2.2478   -5.2792    0.0000 H   0  0  0  0  0  0  0  0  0  0  0  0
    1.3834   -3.7820    0.0000 H   0  0  0  0  0  0  0  0  0  0  0  0
    7.6042    4.7129    0.0000 H   0  0  0  0  0  0  0  0  0  0  0  0
    8.4729    4.0816    0.0000 H   0  0  0  0  0  0  0  0  0  0  0  0
  1  4  2  0  0  0  0
  1  5  2  0  0  0  0
  1  8  1  0  0  0  0
  1 13  1  0  0  0  0
  2 13  1  0  0  0  0
  2 21  1  0  0  0  0
  3 16  2  0  0  0  0
  6  9  1  0  0  0  0
  6 19  1  0  0  0  0
  6 20  1  0  0  0  0
  7 10  1  0  0  0  0
  7 16  1  0  0  0  0
  7 25  1  0  0  0  0
  8 35  1  0  0  0  0
  8 36  1  0  0  0  0
  9 11  1  0  0  0  0
  9 14  2  0  0  0  0
 10 11  2  0  0  0  0
 10 17  1  0  0  0  0
 11 24  1  0  0  0  0
 12 15  1  0  0  0  0
 12 16  1  0  0  0  0
 12 21  2  0  0  0  0
 13 15  2  0  0  0  0
 14 18  1  0  0  0  0
 14 26  1  0  0  0  0
 15 27  1  0  0  0  0
 17 18  2  0  0  0  0
 17 28  1  0  0  0  0
 18 29  1  0  0  0  0
 19 22  2  0  0  0  0
 19 31  1  0  0  0  0
 20 23  2  0  0  0  0
 20 30  1  0  0  0  0
 21 32  1  0  0  0  0
 22 23  1  0  0  0  0
 22 34  1  0  0  0  0
 23 33  1  0  0  0  0
M  END
> <PUBCHEM_COMPOUND_CID>
51090906

> <PUBCHEM_COMPOUND_CANONICALIZED>
1

> <PUBCHEM_CACTVS_COMPLEXITY>
529

> <PUBCHEM_CACTVS_HBOND_ACCEPTOR>
5

> <PUBCHEM_CACTVS_HBOND_DONOR>
2

> <PUBCHEM_CACTVS_ROTATABLE_BOND>
4

> <PUBCHEM_CACTVS_SUBSKEYS>
AAADccBzMABgAAAAAAAAAAAAAAAAAWJAAAAwAAAAAAAAAAAB8AAAHgQQQAAADAjF2gS8wZPMEAqsAjV3VHDDgbA1CjBI2Dk4ZNgIIPLg1dGEIQhglADoyYcQAAAIAAAAAAQAAAAAAAAACAAAAAAAAAAAAA==

> <PUBCHEM_IUPAC_OPENEYE_NAME>
N-(3-pyrrol-1-ylphenyl)-5-sulfamoyl-thiophene-3-carboxamide

> <PUBCHEM_IUPAC_CAS_NAME>
N-[3-(1-pyrrolyl)phenyl]-5-sulfamoyl-3-thiophenecarboxamide

> <PUBCHEM_IUPAC_NAME>
N-(3-pyrrol-1-ylphenyl)-5-sulfamoylthiophene-3-carboxamide

> <PUBCHEM_IUPAC_SYSTEMATIC_NAME>
N-(3-pyrrol-1-ylphenyl)-5-sulfamoyl-thiophene-3-carboxamide

> <PUBCHEM_IUPAC_TRADITIONAL_NAME>
N-(3-pyrrol-1-ylphenyl)-5-sulfamoyl-thiophene-3-carboxamide

> <PUBCHEM_IUPAC_INCHI>
InChI=1S/C15H13N3O3S2/c16-23(20,21)14-8-11(10-22-14)15(19)17-12-4-3-5-13(9-12)18-6-1-2-7-18/h1-10H,(H,17,19)(H2,16,20,21)

> <PUBCHEM_IUPAC_INCHIKEY>
FEIALNMCCDUYHJ-UHFFFAOYSA-N

> <PUBCHEM_XLOGP3_AA>
1.7

> <PUBCHEM_EXACT_MASS>
347.039833

> <PUBCHEM_MOLECULAR_FORMULA>
C15H13N3O3S2

> <PUBCHEM_MOLECULAR_WEIGHT>
347.41202

> <PUBCHEM_OPENEYE_CAN_SMILES>
C1=CN(C=C1)C2=CC(=CC=C2)NC(=O)C3=CSC(=C3)S(=O)(=O)N

> <PUBCHEM_OPENEYE_ISO_SMILES>
C1=CN(C=C1)C2=CC(=CC=C2)NC(=O)C3=CSC(=C3)S(=O)(=O)N

> <PUBCHEM_CACTVS_TPSA>
131

> <PUBCHEM_MONOISOTOPIC_WEIGHT>
347.039833

> <PUBCHEM_TOTAL_CHARGE>
0

> <PUBCHEM_HEAVY_ATOM_COUNT>
23

> <PUBCHEM_ATOM_DEF_STEREO_COUNT>
0

> <PUBCHEM_ATOM_UDEF_STEREO_COUNT>
0

> <PUBCHEM_BOND_DEF_STEREO_COUNT>
0

> <PUBCHEM_BOND_UDEF_STEREO_COUNT>
0

> <PUBCHEM_ISOTOPIC_ATOM_COUNT>
0

> <PUBCHEM_COMPONENT_COUNT>
1

> <PUBCHEM_CACTVS_TAUTO_COUNT>
2

> <PUBCHEM_COORDINATE_TYPE>
1
5
255

> <PUBCHEM_BONDANNOTATIONS>
10  11  8
10  17  8
12  15  8
12  21  8
13  15  8
14  18  8
17  18  8
19  22  8
2  13  8
2  21  8
20  23  8
22  23  8
6  19  8
6  20  8
9  11  8
9  14  8

$$$$

