10626
  -OEChem-06261204462D

 24 25  0     1  0  0  0  0  0999 V2000
    5.6867   -0.8809    0.0000 O   0  0  0  0  0  0  0  0  0  0  0  0
    2.1916   -1.0937    0.0000 O   0  0  0  0  0  0  0  0  0  0  0  0
    4.4298    1.3743    0.0000 N   0  0  3  0  0  0  0  0  0  0  0  0
    4.4298    0.3743    0.0000 C   0  0  3  0  0  0  0  0  0  0  0  0
    5.3760    0.0696    0.0000 C   0  0  3  0  0  0  0  0  0  0  0  0
    5.3760    1.6790    0.0000 C   0  0  0  0  0  0  0  0  0  0  0  0
    5.9596    0.8743    0.0000 C   0  0  0  0  0  0  0  0  0  0  0  0
    3.4788    0.0653    0.0000 C   0  0  0  0  0  0  0  0  0  0  0  0
    3.4788    1.6833    0.0000 C   0  0  0  0  0  0  0  0  0  0  0  0
    2.8910    0.8743    0.0000 C   0  0  0  0  0  0  0  0  0  0  0  0
    3.1697   -0.8858    0.0000 C   0  0  0  0  0  0  0  0  0  0  0  0
    4.4309   -0.4757    0.0000 H   0  0  0  0  0  0  0  0  0  0  0  0
    6.2157   -0.0623    0.0000 H   0  0  0  0  0  0  0  0  0  0  0  0
    5.9134    1.9883    0.0000 H   0  0  0  0  0  0  0  0  0  0  0  0
    5.1250    2.2460    0.0000 H   0  0  0  0  0  0  0  0  0  0  0  0
    6.4205    0.4596    0.0000 H   0  0  0  0  0  0  0  0  0  0  0  0
    6.4205    1.2890    0.0000 H   0  0  0  0  0  0  0  0  0  0  0  0
    3.7309    2.2497    0.0000 H   0  0  0  0  0  0  0  0  0  0  0  0
    2.9418    1.9933    0.0000 H   0  0  0  0  0  0  0  0  0  0  0  0
    2.2710    0.8743    0.0000 H   0  0  0  0  0  0  0  0  0  0  0  0
    3.1914   -1.5054    0.0000 H   0  0  0  0  0  0  0  0  0  0  0  0
    3.7837   -0.9720    0.0000 H   0  0  0  0  0  0  0  0  0  0  0  0
    6.2934   -1.0088    0.0000 H   0  0  0  0  0  0  0  0  0  0  0  0
    2.0000   -1.6833    0.0000 H   0  0  0  0  0  0  0  0  0  0  0  0
  1  5  1  0  0  0  0
  1 23  1  0  0  0  0
  2 11  1  0  0  0  0
  2 24  1  0  0  0  0
  3  4  1  0  0  0  0
  3  6  1  0  0  0  0
  3  9  1  0  0  0  0
  4  5  1  0  0  0  0
  4  8  1  0  0  0  0
  4 12  1  0  0  0  0
  5  7  1  0  0  0  0
  5 13  1  0  0  0  0
  6  7  1  0  0  0  0
  6 14  1  0  0  0  0
  6 15  1  0  0  0  0
  7 16  1  0  0  0  0
  7 17  1  0  0  0  0
  8 10  2  0  0  0  0
  8 11  1  0  0  0  0
  9 10  1  0  0  0  0
  9 18  1  0  0  0  0
  9 19  1  0  0  0  0
 10 20  1  0  0  0  0
 11 21  1  0  0  0  0
 11 22  1  0  0  0  0
M  END
> <PUBCHEM_COMPOUND_CID>
10626

> <PUBCHEM_COMPOUND_CANONICALIZED>
1

> <PUBCHEM_CACTVS_COMPLEXITY>
191

> <PUBCHEM_CACTVS_HBOND_ACCEPTOR>
3

> <PUBCHEM_CACTVS_HBOND_DONOR>
2

> <PUBCHEM_CACTVS_ROTATABLE_BOND>
1

> <PUBCHEM_CACTVS_SUBSKEYS>
AAADccByMAAAAAAAAAAAAAAAAAAAAWIAAAAAAAAAAAAQAAAAAAAAHgAACAAADDzhgAYAAAMAAgCAAiBCAACAAAAgAAAACAAIAAgCFAIAgQAEUAAGwACYEAPQQAAAAAAAAAAAAAAAAAAAAAAAAAAAAAAAAA==

> <PUBCHEM_IUPAC_OPENEYE_NAME>
7-(hydroxymethyl)-2,3,5,8-tetrahydro-1H-pyrrolizin-1-ol

> <PUBCHEM_IUPAC_CAS_NAME>
7-(hydroxymethyl)-2,3,5,8-tetrahydro-1H-pyrrolizin-1-ol

> <PUBCHEM_IUPAC_NAME>
7-(hydroxymethyl)-2,3,5,8-tetrahydro-1H-pyrrolizin-1-ol

> <PUBCHEM_IUPAC_SYSTEMATIC_NAME>
7-(hydroxymethyl)-2,3,5,8-tetrahydro-1H-pyrrolizin-1-ol

> <PUBCHEM_IUPAC_TRADITIONAL_NAME>
7-methylol-2,3,5,8-tetrahydro-1H-pyrrolizin-1-ol

> <PUBCHEM_IUPAC_INCHI>
InChI=1S/C8H13NO2/c10-5-6-1-3-9-4-2-7(11)8(6)9/h1,7-8,10-11H,2-5H2

> <PUBCHEM_IUPAC_INCHIKEY>
HJSJELVDQOXCHO-UHFFFAOYSA-N

> <PUBCHEM_XLOGP3_AA>
-1.3

> <PUBCHEM_EXACT_MASS>
155.094629

> <PUBCHEM_MOLECULAR_FORMULA>
C8H13NO2

> <PUBCHEM_MOLECULAR_WEIGHT>
155.19432

> <PUBCHEM_OPENEYE_CAN_SMILES>
C1CN2CC=C(C2C1O)CO

> <PUBCHEM_OPENEYE_ISO_SMILES>
C1CN2CC=C(C2C1O)CO

> <PUBCHEM_CACTVS_TPSA>
43.7

> <PUBCHEM_MONOISOTOPIC_WEIGHT>
155.094629

> <PUBCHEM_TOTAL_CHARGE>
0

> <PUBCHEM_HEAVY_ATOM_COUNT>
11

> <PUBCHEM_ATOM_DEF_STEREO_COUNT>
0

> <PUBCHEM_ATOM_UDEF_STEREO_COUNT>
2

> <PUBCHEM_BOND_DEF_STEREO_COUNT>
0

> <PUBCHEM_BOND_UDEF_STEREO_COUNT>
0

> <PUBCHEM_ISOTOPIC_ATOM_COUNT>
0

> <PUBCHEM_COMPONENT_COUNT>
1

> <PUBCHEM_CACTVS_TAUTO_COUNT>
1

> <PUBCHEM_COORDINATE_TYPE>
1
5
255

> <PUBCHEM_BONDANNOTATIONS>
4  12  3
5  13  3

$$$$

