17395424
  -OEChem-06241222502D

 39 41  0     0  0  0  0  0  0999 V2000
    2.0570   -4.3184    0.0000 O   0  0  0  0  0  0  0  0  0  0  0  0
    2.8660    2.2694    0.0000 O   0  0  0  0  0  0  0  0  0  0  0  0
    2.0000   -2.2306    0.0000 O   0  0  0  0  0  0  0  0  0  0  0  0
    3.7320   -2.2306    0.0000 N   0  0  0  0  0  0  0  0  0  0  0  0
    4.5981    2.2694    0.0000 N   0  0  0  0  0  0  0  0  0  0  0  0
    3.7320    3.7694    0.0000 N   0  0  0  0  0  0  0  0  0  0  0  0
    3.7320    0.7694    0.0000 C   0  0  0  0  0  0  0  0  0  0  0  0
    3.7320   -1.2306    0.0000 C   0  0  0  0  0  0  0  0  0  0  0  0
    2.8660    0.2694    0.0000 C   0  0  0  0  0  0  0  0  0  0  0  0
    4.5981    0.2694    0.0000 C   0  0  0  0  0  0  0  0  0  0  0  0
    2.8660   -0.7306    0.0000 C   0  0  0  0  0  0  0  0  0  0  0  0
    4.5981   -0.7306    0.0000 C   0  0  0  0  0  0  0  0  0  0  0  0
    3.7320    1.7694    0.0000 C   0  0  0  0  0  0  0  0  0  0  0  0
    4.5981    3.2694    0.0000 C   0  0  0  0  0  0  0  0  0  0  0  0
    2.8660   -2.7306    0.0000 C   0  0  0  0  0  0  0  0  0  0  0  0
    3.7320    4.7694    0.0000 C   0  0  0  0  0  0  0  0  0  0  0  0
    5.4641    3.7694    0.0000 C   0  0  0  0  0  0  0  0  0  0  0  0
    2.8660   -3.7306    0.0000 C   0  0  0  0  0  0  0  0  0  0  0  0
    4.5981    5.2694    0.0000 C   0  0  0  0  0  0  0  0  0  0  0  0
    5.4641    4.7694    0.0000 C   0  0  0  0  0  0  0  0  0  0  0  0
    3.6750   -4.3184    0.0000 C   0  0  0  0  0  0  0  0  0  0  0  0
    2.8660    5.2694    0.0000 C   0  0  0  0  0  0  0  0  0  0  0  0
    3.3660   -5.2694    0.0000 C   0  0  0  0  0  0  0  0  0  0  0  0
    2.3660   -5.2694    0.0000 C   0  0  0  0  0  0  0  0  0  0  0  0
    2.3291    0.5794    0.0000 H   0  0  0  0  0  0  0  0  0  0  0  0
    5.1350    0.5794    0.0000 H   0  0  0  0  0  0  0  0  0  0  0  0
    2.3291   -1.0406    0.0000 H   0  0  0  0  0  0  0  0  0  0  0  0
    5.1350   -1.0406    0.0000 H   0  0  0  0  0  0  0  0  0  0  0  0
    4.2690   -2.5406    0.0000 H   0  0  0  0  0  0  0  0  0  0  0  0
    5.1350    1.9594    0.0000 H   0  0  0  0  0  0  0  0  0  0  0  0
    6.0010    3.4594    0.0000 H   0  0  0  0  0  0  0  0  0  0  0  0
    4.5981    5.8894    0.0000 H   0  0  0  0  0  0  0  0  0  0  0  0
    6.0010    5.0794    0.0000 H   0  0  0  0  0  0  0  0  0  0  0  0
    4.2647   -4.1268    0.0000 H   0  0  0  0  0  0  0  0  0  0  0  0
    3.1760    5.8064    0.0000 H   0  0  0  0  0  0  0  0  0  0  0  0
    2.3291    5.5794    0.0000 H   0  0  0  0  0  0  0  0  0  0  0  0
    2.5560    4.7325    0.0000 H   0  0  0  0  0  0  0  0  0  0  0  0
    3.7304   -5.7710    0.0000 H   0  0  0  0  0  0  0  0  0  0  0  0
    2.0016   -5.7710    0.0000 H   0  0  0  0  0  0  0  0  0  0  0  0
  1 18  1  0  0  0  0
  1 24  1  0  0  0  0
  2 13  2  0  0  0  0
  3 15  2  0  0  0  0
  4  8  1  0  0  0  0
  4 15  1  0  0  0  0
  4 29  1  0  0  0  0
  5 13  1  0  0  0  0
  5 14  1  0  0  0  0
  5 30  1  0  0  0  0
  6 14  1  0  0  0  0
  6 16  2  0  0  0  0
  7  9  2  0  0  0  0
  7 10  1  0  0  0  0
  7 13  1  0  0  0  0
  8 11  2  0  0  0  0
  8 12  1  0  0  0  0
  9 11  1  0  0  0  0
  9 25  1  0  0  0  0
 10 12  2  0  0  0  0
 10 26  1  0  0  0  0
 11 27  1  0  0  0  0
 12 28  1  0  0  0  0
 14 17  2  0  0  0  0
 15 18  1  0  0  0  0
 16 19  1  0  0  0  0
 16 22  1  0  0  0  0
 17 20  1  0  0  0  0
 17 31  1  0  0  0  0
 18 21  2  0  0  0  0
 19 20  2  0  0  0  0
 19 32  1  0  0  0  0
 20 33  1  0  0  0  0
 21 23  1  0  0  0  0
 21 34  1  0  0  0  0
 22 35  1  0  0  0  0
 22 36  1  0  0  0  0
 22 37  1  0  0  0  0
 23 24  2  0  0  0  0
 23 38  1  0  0  0  0
 24 39  1  0  0  0  0
M  END
> <PUBCHEM_COMPOUND_CID>
17395424

> <PUBCHEM_COMPOUND_CANONICALIZED>
1

> <PUBCHEM_CACTVS_COMPLEXITY>
449

> <PUBCHEM_CACTVS_HBOND_ACCEPTOR>
4

> <PUBCHEM_CACTVS_HBOND_DONOR>
2

> <PUBCHEM_CACTVS_ROTATABLE_BOND>
4

> <PUBCHEM_CACTVS_SUBSKEYS>
AAADccB7MAAAAAAAAAAAAAAAAAAAASAAAAA8QAAAAAAAAAAB8AAAHgAQAAAADAyhngIz9JLIFECoA69y9AKCiCklIiAJmCH2bNiOJvLEvb+HOSjs1RPY6aeYnwKeCAAAAAAAAAAQAAAAAAAAAAAAAAAAAA==

> <PUBCHEM_IUPAC_OPENEYE_NAME>
N-[4-[(6-methyl-2-pyridyl)carbamoyl]phenyl]furan-2-carboxamide

> <PUBCHEM_IUPAC_CAS_NAME>
N-[4-[[(6-methyl-2-pyridinyl)amino]-oxomethyl]phenyl]-2-furancarboxamide

> <PUBCHEM_IUPAC_NAME>
N-[4-[(6-methylpyridin-2-yl)carbamoyl]phenyl]furan-2-carboxamide

> <PUBCHEM_IUPAC_SYSTEMATIC_NAME>
N-[4-[(6-methylpyridin-2-yl)carbamoyl]phenyl]furan-2-carboxamide

> <PUBCHEM_IUPAC_TRADITIONAL_NAME>
N-[4-[(6-methyl-2-pyridyl)carbamoyl]phenyl]-2-furamide

> <PUBCHEM_IUPAC_INCHI>
InChI=1S/C18H15N3O3/c1-12-4-2-6-16(19-12)21-17(22)13-7-9-14(10-8-13)20-18(23)15-5-3-11-24-15/h2-11H,1H3,(H,20,23)(H,19,21,22)

> <PUBCHEM_IUPAC_INCHIKEY>
VZQFJVVCPJCZLG-UHFFFAOYSA-N

> <PUBCHEM_XLOGP3_AA>
2.7

> <PUBCHEM_EXACT_MASS>
321.111341

> <PUBCHEM_MOLECULAR_FORMULA>
C18H15N3O3

> <PUBCHEM_MOLECULAR_WEIGHT>
321.33

> <PUBCHEM_OPENEYE_CAN_SMILES>
CC1=NC(=CC=C1)NC(=O)C2=CC=C(C=C2)NC(=O)C3=CC=CO3

> <PUBCHEM_OPENEYE_ISO_SMILES>
CC1=NC(=CC=C1)NC(=O)C2=CC=C(C=C2)NC(=O)C3=CC=CO3

> <PUBCHEM_CACTVS_TPSA>
84.2

> <PUBCHEM_MONOISOTOPIC_WEIGHT>
321.111341

> <PUBCHEM_TOTAL_CHARGE>
0

> <PUBCHEM_HEAVY_ATOM_COUNT>
24

> <PUBCHEM_ATOM_DEF_STEREO_COUNT>
0

> <PUBCHEM_ATOM_UDEF_STEREO_COUNT>
0

> <PUBCHEM_BOND_DEF_STEREO_COUNT>
0

> <PUBCHEM_BOND_UDEF_STEREO_COUNT>
0

> <PUBCHEM_ISOTOPIC_ATOM_COUNT>
0

> <PUBCHEM_COMPONENT_COUNT>
1

> <PUBCHEM_CACTVS_TAUTO_COUNT>
37

> <PUBCHEM_COORDINATE_TYPE>
1
5
255

> <PUBCHEM_BONDANNOTATIONS>
1  18  8
1  24  8
10  12  8
14  17  8
16  19  8
17  20  8
18  21  8
19  20  8
21  23  8
23  24  8
6  14  8
6  16  8
7  10  8
7  9  8
8  11  8
8  12  8
9  11  8

$$$$

