4881
  -OEChem-06261200232D

 46 47  0     0  0  0  0  0  0999 V2000
    6.3301   -2.6900    0.0000 S   0  0  0  0  0  0  0  0  0  0  0  0
    2.8660   -2.6900    0.0000 S   0  0  0  0  0  0  0  0  0  0  0  0
    4.5981    2.3100    0.0000 P   0  0  0  0  0  0  0  0  0  0  0  0
    5.4641    1.8100    0.0000 O   0  0  0  0  0  0  0  0  0  0  0  0
    9.7942    2.3100    0.0000 O   0  0  0  0  0  0  0  0  0  0  0  0
    7.1962   -3.1900    0.0000 O   0  0  0  0  0  0  0  0  0  0  0  0
    2.0000   -3.1900    0.0000 O   0  0  0  0  0  0  0  0  0  0  0  0
    5.8301   -3.5560    0.0000 O   0  0  0  0  0  0  0  0  0  0  0  0
    6.8301   -1.8240    0.0000 O   0  0  0  0  0  0  0  0  0  0  0  0
    2.3660   -1.8240    0.0000 O   0  0  0  0  0  0  0  0  0  0  0  0
    3.3660   -3.5560    0.0000 O   0  0  0  0  0  0  0  0  0  0  0  0
    7.1962    3.8100    0.0000 O   0  0  0  0  0  0  0  0  0  0  0  0
    3.7321    2.8100    0.0000 O   0  0  0  0  0  0  0  0  0  0  0  0
    4.0981    1.4440    0.0000 O   0  0  0  0  0  0  0  0  0  0  0  0
    5.0981    3.1760    0.0000 O   0  0  0  0  0  0  0  0  0  0  0  0
    8.0622    0.3100    0.0000 N   0  0  0  0  0  0  0  0  0  0  0  0
    6.3301   -0.6900    0.0000 N   0  0  0  0  0  0  0  0  0  0  0  0
    6.3301    0.3100    0.0000 N   0  0  0  0  0  0  0  0  0  0  0  0
    7.1962    1.8100    0.0000 C   0  0  0  0  0  0  0  0  0  0  0  0
    5.4641   -2.1900    0.0000 C   0  0  0  0  0  0  0  0  0  0  0  0
    3.7321   -2.1900    0.0000 C   0  0  0  0  0  0  0  0  0  0  0  0
    5.4641   -1.1900    0.0000 C   0  0  0  0  0  0  0  0  0  0  0  0
    8.0622    2.3100    0.0000 C   0  0  0  0  0  0  0  0  0  0  0  0
    4.5981   -2.6900    0.0000 C   0  0  0  0  0  0  0  0  0  0  0  0
    7.1962    0.8100    0.0000 C   0  0  0  0  0  0  0  0  0  0  0  0
    6.3301    2.3100    0.0000 C   0  0  0  0  0  0  0  0  0  0  0  0
    8.9282    1.8100    0.0000 C   0  0  0  0  0  0  0  0  0  0  0  0
    3.7321   -1.1900    0.0000 C   0  0  0  0  0  0  0  0  0  0  0  0
    4.5981   -0.6900    0.0000 C   0  0  0  0  0  0  0  0  0  0  0  0
    8.9282    0.8100    0.0000 C   0  0  0  0  0  0  0  0  0  0  0  0
    9.7942    0.3100    0.0000 C   0  0  0  0  0  0  0  0  0  0  0  0
    8.0622    3.3100    0.0000 C   0  0  0  0  0  0  0  0  0  0  0  0
    4.5981   -3.3100    0.0000 H   0  0  0  0  0  0  0  0  0  0  0  0
    6.7287    2.7849    0.0000 H   0  0  0  0  0  0  0  0  0  0  0  0
    5.9316    2.7849    0.0000 H   0  0  0  0  0  0  0  0  0  0  0  0
    3.1951   -0.8800    0.0000 H   0  0  0  0  0  0  0  0  0  0  0  0
    4.5981   -0.0700    0.0000 H   0  0  0  0  0  0  0  0  0  0  0  0
    9.4842   -0.2269    0.0000 H   0  0  0  0  0  0  0  0  0  0  0  0
   10.3312   -0.0000    0.0000 H   0  0  0  0  0  0  0  0  0  0  0  0
   10.1042    0.8469    0.0000 H   0  0  0  0  0  0  0  0  0  0  0  0
    8.5991    3.6200    0.0000 H   0  0  0  0  0  0  0  0  0  0  0  0
   10.3312    2.0000    0.0000 H   0  0  0  0  0  0  0  0  0  0  0  0
    7.1962   -3.8100    0.0000 H   0  0  0  0  0  0  0  0  0  0  0  0
    2.0000   -3.8100    0.0000 H   0  0  0  0  0  0  0  0  0  0  0  0
    3.7321    3.4300    0.0000 H   0  0  0  0  0  0  0  0  0  0  0  0
    3.4781    1.4440    0.0000 H   0  0  0  0  0  0  0  0  0  0  0  0
  1  6  1  0  0  0  0
  1  8  2  0  0  0  0
  1  9  2  0  0  0  0
  1 20  1  0  0  0  0
  2  7  1  0  0  0  0
  2 10  2  0  0  0  0
  2 11  2  0  0  0  0
  2 21  1  0  0  0  0
  3  4  1  0  0  0  0
  3 13  1  0  0  0  0
  3 14  1  0  0  0  0
  3 15  2  0  0  0  0
  4 26  1  0  0  0  0
  5 27  1  0  0  0  0
  5 42  1  0  0  0  0
  6 43  1  0  0  0  0
  7 44  1  0  0  0  0
 12 32  2  0  0  0  0
 13 45  1  0  0  0  0
 14 46  1  0  0  0  0
 16 25  2  0  0  0  0
 16 30  1  0  0  0  0
 17 18  2  0  0  0  0
 17 22  1  0  0  0  0
 18 25  1  0  0  0  0
 19 23  2  0  0  0  0
 19 25  1  0  0  0  0
 19 26  1  0  0  0  0
 20 22  2  0  0  0  0
 20 24  1  0  0  0  0
 21 24  2  0  0  0  0
 21 28  1  0  0  0  0
 22 29  1  0  0  0  0
 23 27  1  0  0  0  0
 23 32  1  0  0  0  0
 24 33  1  0  0  0  0
 26 34  1  0  0  0  0
 26 35  1  0  0  0  0
 27 30  2  0  0  0  0
 28 29  2  0  0  0  0
 28 36  1  0  0  0  0
 29 37  1  0  0  0  0
 30 31  1  0  0  0  0
 31 38  1  0  0  0  0
 31 39  1  0  0  0  0
 31 40  1  0  0  0  0
 32 41  1  0  0  0  0
M  END
> <PUBCHEM_COMPOUND_CID>
4881

> <PUBCHEM_COMPOUND_CANONICALIZED>
1

> <PUBCHEM_CACTVS_COMPLEXITY>
956

> <PUBCHEM_CACTVS_HBOND_ACCEPTOR>
15

> <PUBCHEM_CACTVS_HBOND_DONOR>
5

> <PUBCHEM_CACTVS_ROTATABLE_BOND>
8

> <PUBCHEM_CACTVS_SUBSKEYS>
AAADccBzPAJgAAAAAAAAAAAAAAAAAAAAAAA8QAAAAAAAAAABwAAAHgQICCAADAyh3gIz95IIE5KqQy5y5PTCgGklYiAImD01bNiKJnbSlZOEcUhm4BPY2Sf+UAMOgAQAAEAAAQAACAAAgAACAAAAAAAAAA==

> <PUBCHEM_IUPAC_OPENEYE_NAME>
4-[[4-formyl-5-hydroxy-6-methyl-3-(phosphonooxymethyl)-2-pyridyl]azo]benzene-1,3-disulfonic acid

> <PUBCHEM_IUPAC_CAS_NAME>
4-[[4-formyl-5-hydroxy-6-methyl-3-(phosphonooxymethyl)-2-pyridinyl]azo]benzene-1,3-disulfonic acid

> <PUBCHEM_IUPAC_NAME>
4-[[4-formyl-5-hydroxy-6-methyl-3-(phosphonooxymethyl)pyridin-2-yl]diazenyl]benzene-1,3-disulfonic acid

> <PUBCHEM_IUPAC_SYSTEMATIC_NAME>
4-[[4-methanoyl-6-methyl-5-oxidanyl-3-(phosphonooxymethyl)pyridin-2-yl]diazenyl]benzene-1,3-disulfonic acid

> <PUBCHEM_IUPAC_TRADITIONAL_NAME>
4-[[4-formyl-5-hydroxy-6-methyl-3-(phosphonooxymethyl)-2-pyridyl]azo]benzene-1,3-disulfonic acid

> <PUBCHEM_IUPAC_INCHI>
InChI=1S/C14H14N3O12PS2/c1-7-13(19)9(5-18)10(6-29-30(20,21)22)14(15-7)17-16-11-3-2-8(31(23,24)25)4-12(11)32(26,27)28/h2-5,19H,6H2,1H3,(H2,20,21,22)(H,23,24,25)(H,26,27,28)

> <PUBCHEM_IUPAC_INCHIKEY>
PNFZSRRRZNXSMF-UHFFFAOYSA-N

> <PUBCHEM_XLOGP3_AA>
-1.5

> <PUBCHEM_EXACT_MASS>
510.975652

> <PUBCHEM_MOLECULAR_FORMULA>
C14H14N3O12PS2

> <PUBCHEM_MOLECULAR_WEIGHT>
511.377622

> <PUBCHEM_OPENEYE_CAN_SMILES>
CC1=C(C(=C(C(=N1)N=NC2=C(C=C(C=C2)S(=O)(=O)O)S(=O)(=O)O)COP(=O)(O)O)C=O)O

> <PUBCHEM_OPENEYE_ISO_SMILES>
CC1=C(C(=C(C(=N1)N=NC2=C(C=C(C=C2)S(=O)(=O)O)S(=O)(=O)O)COP(=O)(O)O)C=O)O

> <PUBCHEM_CACTVS_TPSA>
267

> <PUBCHEM_MONOISOTOPIC_WEIGHT>
510.975652

> <PUBCHEM_TOTAL_CHARGE>
0

> <PUBCHEM_HEAVY_ATOM_COUNT>
32

> <PUBCHEM_ATOM_DEF_STEREO_COUNT>
0

> <PUBCHEM_ATOM_UDEF_STEREO_COUNT>
0

> <PUBCHEM_BOND_DEF_STEREO_COUNT>
0

> <PUBCHEM_BOND_UDEF_STEREO_COUNT>
0

> <PUBCHEM_ISOTOPIC_ATOM_COUNT>
0

> <PUBCHEM_COMPONENT_COUNT>
1

> <PUBCHEM_CACTVS_TAUTO_COUNT>
5

> <PUBCHEM_COORDINATE_TYPE>
1
5
255

> <PUBCHEM_BONDANNOTATIONS>
16  25  8
16  30  8
19  23  8
19  25  8
20  22  8
20  24  8
21  24  8
21  28  8
22  29  8
23  27  8
27  30  8
28  29  8

$$$$

