6055
  -OEChem-06261201042D

 53 52  0     1  0  0  0  0  0999 V2000
    7.5079    0.8660    0.0000 S   0  0  0  0  0  0  0  0  0  0  0  0
    8.3740    1.3660    0.0000 O   0  0  0  0  0  0  0  0  0  0  0  0
    6.6419    0.3660    0.0000 O   0  0  0  0  0  0  0  0  0  0  0  0
    7.0079    1.7320    0.0000 O   0  0  0  0  0  0  0  0  0  0  0  0
    8.0079    0.0000    0.0000 O   0  0  0  0  0  0  0  0  0  0  0  0
    2.2690    6.9860    0.0000 N   0  0  0  0  0  0  0  0  0  0  0  0
    7.9409    8.8520    0.0000 N   0  0  0  0  0  0  0  0  0  0  0  0
    2.2690    5.9860    0.0000 C   0  0  3  0  0  0  0  0  0  0  0  0
    7.9409    7.8520    0.0000 C   0  0  3  0  0  0  0  0  0  0  0  0
    1.4030    5.4860    0.0000 C   0  0  0  0  0  0  0  0  0  0  0  0
    7.0749    7.3520    0.0000 C   0  0  0  0  0  0  0  0  0  0  0  0
    7.0749    6.3520    0.0000 C   0  0  0  0  0  0  0  0  0  0  0  0
    1.4030    4.4860    0.0000 C   0  0  0  0  0  0  0  0  0  0  0  0
    3.1350    5.4860    0.0000 C   0  0  0  0  0  0  0  0  0  0  0  0
    8.8070    7.3520    0.0000 C   0  0  0  0  0  0  0  0  0  0  0  0
    0.5369    3.9860    0.0000 C   0  0  0  0  0  0  0  0  0  0  0  0
    6.2089    5.8520    0.0000 C   0  0  0  0  0  0  0  0  0  0  0  0
    2.2690    3.9860    0.0000 C   0  0  0  0  0  0  0  0  0  0  0  0
    7.9409    5.8520    0.0000 C   0  0  0  0  0  0  0  0  0  0  0  0
    0.5369    2.9860    0.0000 C   0  0  0  0  0  0  0  0  0  0  0  0
    6.2089    4.8520    0.0000 C   0  0  0  0  0  0  0  0  0  0  0  0
    2.2690    2.9860    0.0000 C   0  0  0  0  0  0  0  0  0  0  0  0
    7.9409    4.8520    0.0000 C   0  0  0  0  0  0  0  0  0  0  0  0
    1.4030    2.4860    0.0000 C   0  0  0  0  0  0  0  0  0  0  0  0
    7.0749    4.3520    0.0000 C   0  0  0  0  0  0  0  0  0  0  0  0
    3.0051    6.4110    0.0000 H   0  0  0  0  0  0  0  0  0  0  0  0
    7.2048    8.2770    0.0000 H   0  0  0  0  0  0  0  0  0  0  0  0
    1.1909    6.0686    0.0000 H   0  0  0  0  0  0  0  0  0  0  0  0
    0.7924    5.3784    0.0000 H   0  0  0  0  0  0  0  0  0  0  0  0
    6.8629    7.9347    0.0000 H   0  0  0  0  0  0  0  0  0  0  0  0
    6.4643    7.2444    0.0000 H   0  0  0  0  0  0  0  0  0  0  0  0
    8.4970    6.8151    0.0000 H   0  0  0  0  0  0  0  0  0  0  0  0
    9.3439    7.0420    0.0000 H   0  0  0  0  0  0  0  0  0  0  0  0
    9.1170    7.8890    0.0000 H   0  0  0  0  0  0  0  0  0  0  0  0
    2.8250    4.9491    0.0000 H   0  0  0  0  0  0  0  0  0  0  0  0
    3.6720    5.1760    0.0000 H   0  0  0  0  0  0  0  0  0  0  0  0
    3.4450    6.0230    0.0000 H   0  0  0  0  0  0  0  0  0  0  0  0
    0.0000    4.2960    0.0000 H   0  0  0  0  0  0  0  0  0  0  0  0
    5.6720    6.1620    0.0000 H   0  0  0  0  0  0  0  0  0  0  0  0
    2.8059    4.2960    0.0000 H   0  0  0  0  0  0  0  0  0  0  0  0
    8.4779    6.1620    0.0000 H   0  0  0  0  0  0  0  0  0  0  0  0
    2.8059    7.2960    0.0000 H   0  0  0  0  0  0  0  0  0  0  0  0
    1.7320    7.2960    0.0000 H   0  0  0  0  0  0  0  0  0  0  0  0
    8.4779    9.1620    0.0000 H   0  0  0  0  0  0  0  0  0  0  0  0
    7.4040    9.1620    0.0000 H   0  0  0  0  0  0  0  0  0  0  0  0
    0.0000    2.6760    0.0000 H   0  0  0  0  0  0  0  0  0  0  0  0
    5.6720    4.5420    0.0000 H   0  0  0  0  0  0  0  0  0  0  0  0
    2.8059    2.6760    0.0000 H   0  0  0  0  0  0  0  0  0  0  0  0
    8.4779    4.5420    0.0000 H   0  0  0  0  0  0  0  0  0  0  0  0
    1.4030    1.8660    0.0000 H   0  0  0  0  0  0  0  0  0  0  0  0
    7.0749    3.7320    0.0000 H   0  0  0  0  0  0  0  0  0  0  0  0
    8.9109    1.0560    0.0000 H   0  0  0  0  0  0  0  0  0  0  0  0
    6.1050    0.6760    0.0000 H   0  0  0  0  0  0  0  0  0  0  0  0
  1  2  1  0  0  0  0
  1  3  1  0  0  0  0
  1  4  2  0  0  0  0
  1  5  2  0  0  0  0
  2 52  1  0  0  0  0
  3 53  1  0  0  0  0
  6  8  1  0  0  0  0
  6 42  1  0  0  0  0
  6 43  1  0  0  0  0
  7  9  1  0  0  0  0
  7 44  1  0  0  0  0
  7 45  1  0  0  0  0
  8 10  1  0  0  0  0
  8 14  1  0  0  0  0
  8 26  1  0  0  0  0
  9 11  1  0  0  0  0
  9 15  1  0  0  0  0
  9 27  1  0  0  0  0
 10 13  1  0  0  0  0
 10 28  1  0  0  0  0
 10 29  1  0  0  0  0
 11 12  1  0  0  0  0
 11 30  1  0  0  0  0
 11 31  1  0  0  0  0
 12 17  2  0  0  0  0
 12 19  1  0  0  0  0
 13 16  2  0  0  0  0
 13 18  1  0  0  0  0
 14 35  1  0  0  0  0
 14 36  1  0  0  0  0
 14 37  1  0  0  0  0
 15 32  1  0  0  0  0
 15 33  1  0  0  0  0
 15 34  1  0  0  0  0
 16 20  1  0  0  0  0
 16 38  1  0  0  0  0
 17 21  1  0  0  0  0
 17 39  1  0  0  0  0
 18 22  2  0  0  0  0
 18 40  1  0  0  0  0
 19 23  2  0  0  0  0
 19 41  1  0  0  0  0
 20 24  2  0  0  0  0
 20 46  1  0  0  0  0
 21 25  2  0  0  0  0
 21 47  1  0  0  0  0
 22 24  1  0  0  0  0
 22 48  1  0  0  0  0
 23 25  1  0  0  0  0
 23 49  1  0  0  0  0
 24 50  1  0  0  0  0
 25 51  1  0  0  0  0
M  END
> <PUBCHEM_COMPOUND_CID>
6055

> <PUBCHEM_COMPOUND_CANONICALIZED>
1

> <PUBCHEM_CACTVS_COMPLEXITY>
166

> <PUBCHEM_CACTVS_HBOND_ACCEPTOR>
6

> <PUBCHEM_CACTVS_HBOND_DONOR>
4

> <PUBCHEM_CACTVS_ROTATABLE_BOND>
4

> <PUBCHEM_CACTVS_SUBSKEYS>
AAADceB7OABAAAAAAAAAAAAAAAAAAAAAAAAwYAAAAAAAAAABQAAAHAAQCAAADCjBGAQyAIBAAICAAiBCADACAAAgAAAIiIAAAIgIICKAkRGAIAAgkAAIiAcQgIAOAAAAAAAAAAAAAAAAAAAAAAAAAAAAAA==

> <PUBCHEM_IUPAC_OPENEYE_NAME>
1-phenylpropan-2-amine; sulfuric acid

> <PUBCHEM_IUPAC_CAS_NAME>
1-phenyl-2-propanamine; sulfuric acid

> <PUBCHEM_IUPAC_NAME>
1-phenylpropan-2-amine; sulfuric acid

> <PUBCHEM_IUPAC_SYSTEMATIC_NAME>
1-phenylpropan-2-amine; sulfuric acid

> <PUBCHEM_IUPAC_TRADITIONAL_NAME>
(1-methyl-2-phenyl-ethyl)amine; sulfuric acid

> <PUBCHEM_IUPAC_INCHI>
InChI=1S/2C9H13N.H2O4S/c2*1-8(10)7-9-5-3-2-4-6-9;1-5(2,3)4/h2*2-6,8H,7,10H2,1H3;(H2,1,2,3,4)

> <PUBCHEM_IUPAC_INCHIKEY>
PYHRZPFZZDCOPH-UHFFFAOYSA-N

> <PUBCHEM_EXACT_MASS>
368.176978

> <PUBCHEM_MOLECULAR_FORMULA>
C18H28N2O4S

> <PUBCHEM_MOLECULAR_WEIGHT>
368.49092

> <PUBCHEM_OPENEYE_CAN_SMILES>
CC(CC1=CC=CC=C1)N.CC(CC1=CC=CC=C1)N.OS(=O)(=O)O

> <PUBCHEM_OPENEYE_ISO_SMILES>
CC(CC1=CC=CC=C1)N.CC(CC1=CC=CC=C1)N.OS(=O)(=O)O

> <PUBCHEM_CACTVS_TPSA>
135

> <PUBCHEM_MONOISOTOPIC_WEIGHT>
368.176978

> <PUBCHEM_TOTAL_CHARGE>
0

> <PUBCHEM_HEAVY_ATOM_COUNT>
25

> <PUBCHEM_ATOM_DEF_STEREO_COUNT>
0

> <PUBCHEM_ATOM_UDEF_STEREO_COUNT>
2

> <PUBCHEM_BOND_DEF_STEREO_COUNT>
0

> <PUBCHEM_BOND_UDEF_STEREO_COUNT>
0

> <PUBCHEM_ISOTOPIC_ATOM_COUNT>
0

> <PUBCHEM_COMPONENT_COUNT>
3

> <PUBCHEM_CACTVS_TAUTO_COUNT>
1

> <PUBCHEM_COORDINATE_TYPE>
1
5
255

> <PUBCHEM_BONDANNOTATIONS>
12  17  8
12  19  8
13  16  8
13  18  8
16  20  8
17  21  8
18  22  8
19  23  8
20  24  8
21  25  8
22  24  8
23  25  8
8  26  3
9  27  3

$$$$

