17396087
  -OEChem-06241222542D

 56 60  0     1  0  0  0  0  0999 V2000
    9.1643    0.3512    0.0000 Cl  0  0  0  0  0  0  0  0  0  0  0  0
    2.1810   -2.4490    0.0000 Cl  0  0  0  0  0  0  0  0  0  0  0  0
    5.6527   -3.7420    0.0000 O   0  0  0  0  0  0  0  0  0  0  0  0
    9.1643    2.3512    0.0000 O   0  0  0  0  0  0  0  0  0  0  0  0
    7.4323   -2.6488    0.0000 N   0  0  0  0  0  0  0  0  0  0  0  0
    7.4323   -0.6488    0.0000 N   0  0  0  0  0  0  0  0  0  0  0  0
    6.4617   -5.1433    0.0000 N   0  0  0  0  0  0  0  0  0  0  0  0
    7.4323    2.3512    0.0000 N   0  0  0  0  0  0  0  0  0  0  0  0
    6.5662    1.8512    0.0000 N   0  0  0  0  0  0  0  0  0  0  0  0
    5.4836   -5.3512    0.0000 N   0  0  0  0  0  0  0  0  0  0  0  0
    8.2983   -2.1488    0.0000 C   0  0  0  0  0  0  0  0  0  0  0  0
    6.5662   -2.1488    0.0000 C   0  0  0  0  0  0  0  0  0  0  0  0
    8.2983   -1.1488    0.0000 C   0  0  0  0  0  0  0  0  0  0  0  0
    6.5662   -1.1488    0.0000 C   0  0  0  0  0  0  0  0  0  0  0  0
    7.4323   -3.6488    0.0000 C   0  0  3  0  0  0  0  0  0  0  0  0
    7.4323    0.3512    0.0000 C   0  0  0  0  0  0  0  0  0  0  0  0
    8.2983   -4.1488    0.0000 C   0  0  0  0  0  0  0  0  0  0  0  0
    6.5662   -4.1488    0.0000 C   0  0  0  0  0  0  0  0  0  0  0  0
    8.2983    0.8512    0.0000 C   0  0  0  0  0  0  0  0  0  0  0  0
    6.5662    0.8512    0.0000 C   0  0  0  0  0  0  0  0  0  0  0  0
    8.2983    1.8512    0.0000 C   0  0  0  0  0  0  0  0  0  0  0  0
    4.9836   -4.4852    0.0000 C   0  0  0  0  0  0  0  0  0  0  0  0
    3.9890   -4.3807    0.0000 C   0  0  0  0  0  0  0  0  0  0  0  0
    7.4323    3.3512    0.0000 C   0  0  0  0  0  0  0  0  0  0  0  0
    8.2983    3.8512    0.0000 C   0  0  0  0  0  0  0  0  0  0  0  0
    6.5662    3.8512    0.0000 C   0  0  0  0  0  0  0  0  0  0  0  0
    3.5823   -3.4671    0.0000 C   0  0  0  0  0  0  0  0  0  0  0  0
    3.4013   -5.1897    0.0000 C   0  0  0  0  0  0  0  0  0  0  0  0
    8.2983    4.8512    0.0000 C   0  0  0  0  0  0  0  0  0  0  0  0
    6.5662    4.8512    0.0000 C   0  0  0  0  0  0  0  0  0  0  0  0
    2.5878   -3.3626    0.0000 C   0  0  0  0  0  0  0  0  0  0  0  0
    2.4067   -5.0851    0.0000 C   0  0  0  0  0  0  0  0  0  0  0  0
    7.4323    5.3512    0.0000 C   0  0  0  0  0  0  0  0  0  0  0  0
    2.0000   -4.1716    0.0000 C   0  0  0  0  0  0  0  0  0  0  0  0
    8.5103   -2.7314    0.0000 H   0  0  0  0  0  0  0  0  0  0  0  0
    8.9089   -2.0411    0.0000 H   0  0  0  0  0  0  0  0  0  0  0  0
    5.9557   -2.0411    0.0000 H   0  0  0  0  0  0  0  0  0  0  0  0
    6.3542   -2.7314    0.0000 H   0  0  0  0  0  0  0  0  0  0  0  0
    8.9089   -1.2564    0.0000 H   0  0  0  0  0  0  0  0  0  0  0  0
    8.5103   -0.5662    0.0000 H   0  0  0  0  0  0  0  0  0  0  0  0
    6.3542   -0.5662    0.0000 H   0  0  0  0  0  0  0  0  0  0  0  0
    5.9557   -1.2564    0.0000 H   0  0  0  0  0  0  0  0  0  0  0  0
    7.9692   -3.3388    0.0000 H   0  0  0  0  0  0  0  0  0  0  0  0
    7.9883   -4.6857    0.0000 H   0  0  0  0  0  0  0  0  0  0  0  0
    8.8352   -4.4588    0.0000 H   0  0  0  0  0  0  0  0  0  0  0  0
    8.6083   -3.6118    0.0000 H   0  0  0  0  0  0  0  0  0  0  0  0
    6.0293    0.5412    0.0000 H   0  0  0  0  0  0  0  0  0  0  0  0
    8.8352    3.5412    0.0000 H   0  0  0  0  0  0  0  0  0  0  0  0
    6.0293    3.5412    0.0000 H   0  0  0  0  0  0  0  0  0  0  0  0
    3.9467   -2.9655    0.0000 H   0  0  0  0  0  0  0  0  0  0  0  0
    3.6534   -5.7561    0.0000 H   0  0  0  0  0  0  0  0  0  0  0  0
    8.8352    5.1612    0.0000 H   0  0  0  0  0  0  0  0  0  0  0  0
    6.0293    5.1612    0.0000 H   0  0  0  0  0  0  0  0  0  0  0  0
    2.0423   -5.5867    0.0000 H   0  0  0  0  0  0  0  0  0  0  0  0
    7.4323    5.9712    0.0000 H   0  0  0  0  0  0  0  0  0  0  0  0
    1.3834   -4.1068    0.0000 H   0  0  0  0  0  0  0  0  0  0  0  0
  1 19  1  0  0  0  0
  2 31  1  0  0  0  0
  3 18  1  0  0  0  0
  3 22  1  0  0  0  0
  4 21  2  0  0  0  0
  5 11  1  0  0  0  0
  5 12  1  0  0  0  0
  5 15  1  0  0  0  0
  6 13  1  0  0  0  0
  6 14  1  0  0  0  0
  6 16  1  0  0  0  0
  7 10  1  0  0  0  0
  7 18  2  0  0  0  0
  8  9  1  0  0  0  0
  8 21  1  0  0  0  0
  8 24  1  0  0  0  0
  9 20  2  0  0  0  0
 10 22  2  0  0  0  0
 11 13  1  0  0  0  0
 11 35  1  0  0  0  0
 11 36  1  0  0  0  0
 12 14  1  0  0  0  0
 12 37  1  0  0  0  0
 12 38  1  0  0  0  0
 13 39  1  0  0  0  0
 13 40  1  0  0  0  0
 14 41  1  0  0  0  0
 14 42  1  0  0  0  0
 15 17  1  0  0  0  0
 15 18  1  0  0  0  0
 15 43  1  0  0  0  0
 16 19  2  0  0  0  0
 16 20  1  0  0  0  0
 17 44  1  0  0  0  0
 17 45  1  0  0  0  0
 17 46  1  0  0  0  0
 19 21  1  0  0  0  0
 20 47  1  0  0  0  0
 22 23  1  0  0  0  0
 23 27  2  0  0  0  0
 23 28  1  0  0  0  0
 24 25  2  0  0  0  0
 24 26  1  0  0  0  0
 25 29  1  0  0  0  0
 25 48  1  0  0  0  0
 26 30  2  0  0  0  0
 26 49  1  0  0  0  0
 27 31  1  0  0  0  0
 27 50  1  0  0  0  0
 28 32  2  0  0  0  0
 28 51  1  0  0  0  0
 29 33  2  0  0  0  0
 29 52  1  0  0  0  0
 30 33  1  0  0  0  0
 30 53  1  0  0  0  0
 31 34  2  0  0  0  0
 32 34  1  0  0  0  0
 32 54  1  0  0  0  0
 33 55  1  0  0  0  0
 34 56  1  0  0  0  0
M  END
> <PUBCHEM_COMPOUND_CID>
17396087

> <PUBCHEM_COMPOUND_CANONICALIZED>
1

> <PUBCHEM_CACTVS_COMPLEXITY>
796

> <PUBCHEM_CACTVS_HBOND_ACCEPTOR>
7

> <PUBCHEM_CACTVS_HBOND_DONOR>
0

> <PUBCHEM_CACTVS_ROTATABLE_BOND>
5

> <PUBCHEM_CACTVS_SUBSKEYS>
AAADceB7sAAGAAAAAAAAAAAAAAAAAWAAAAA8YIEAAAAAAAAB0AAAHgIIAAAADCrBmiQywIMABECqAjVzUACSBAAtBwAaiCG4bthKZrLBt7nfMQhkzAHY6ceYyCCOAAAAIAAAAAAAAABAAAAAAAAAAAAAAA==

> <PUBCHEM_IUPAC_OPENEYE_NAME>
4-chloro-5-[4-[1-[5-(3-chlorophenyl)-1,3,4-oxadiazol-2-yl]ethyl]piperazin-1-yl]-2-phenyl-pyridazin-3-one

> <PUBCHEM_IUPAC_CAS_NAME>
4-chloro-5-[4-[1-[5-(3-chlorophenyl)-1,3,4-oxadiazol-2-yl]ethyl]-1-piperazinyl]-2-phenyl-3-pyridazinone

> <PUBCHEM_IUPAC_NAME>
4-chloro-5-[4-[1-[5-(3-chlorophenyl)-1,3,4-oxadiazol-2-yl]ethyl]piperazin-1-yl]-2-phenylpyridazin-3-one

> <PUBCHEM_IUPAC_SYSTEMATIC_NAME>
4-chloranyl-5-[4-[1-[5-(3-chlorophenyl)-1,3,4-oxadiazol-2-yl]ethyl]piperazin-1-yl]-2-phenyl-pyridazin-3-one

> <PUBCHEM_IUPAC_TRADITIONAL_NAME>
4-chloro-5-[4-[1-[5-(3-chlorophenyl)-1,3,4-oxadiazol-2-yl]ethyl]piperazino]-2-phenyl-pyridazin-3-one

> <PUBCHEM_IUPAC_INCHI>
InChI=1S/C24H22Cl2N6O2/c1-16(22-28-29-23(34-22)17-6-5-7-18(25)14-17)30-10-12-31(13-11-30)20-15-27-32(24(33)21(20)26)19-8-3-2-4-9-19/h2-9,14-16H,10-13H2,1H3

> <PUBCHEM_IUPAC_INCHIKEY>
DDRLFBWIPJZQRN-UHFFFAOYSA-N

> <PUBCHEM_XLOGP3_AA>
4.1

> <PUBCHEM_EXACT_MASS>
496.118129

> <PUBCHEM_MOLECULAR_FORMULA>
C24H22Cl2N6O2

> <PUBCHEM_MOLECULAR_WEIGHT>
497.37648

> <PUBCHEM_OPENEYE_CAN_SMILES>
CC(C1=NN=C(O1)C2=CC(=CC=C2)Cl)N3CCN(CC3)C4=C(C(=O)N(N=C4)C5=CC=CC=C5)Cl

> <PUBCHEM_OPENEYE_ISO_SMILES>
CC(C1=NN=C(O1)C2=CC(=CC=C2)Cl)N3CCN(CC3)C4=C(C(=O)N(N=C4)C5=CC=CC=C5)Cl

> <PUBCHEM_CACTVS_TPSA>
78.1

> <PUBCHEM_MONOISOTOPIC_WEIGHT>
496.118129

> <PUBCHEM_TOTAL_CHARGE>
0

> <PUBCHEM_HEAVY_ATOM_COUNT>
34

> <PUBCHEM_ATOM_DEF_STEREO_COUNT>
0

> <PUBCHEM_ATOM_UDEF_STEREO_COUNT>
1

> <PUBCHEM_BOND_DEF_STEREO_COUNT>
0

> <PUBCHEM_BOND_UDEF_STEREO_COUNT>
0

> <PUBCHEM_ISOTOPIC_ATOM_COUNT>
0

> <PUBCHEM_COMPONENT_COUNT>
1

> <PUBCHEM_CACTVS_TAUTO_COUNT>
1

> <PUBCHEM_COORDINATE_TYPE>
1
5
255

> <PUBCHEM_BONDANNOTATIONS>
10  22  8
15  17  3
16  19  8
16  20  8
19  21  8
23  27  8
23  28  8
24  25  8
24  26  8
25  29  8
26  30  8
27  31  8
28  32  8
29  33  8
3  18  8
3  22  8
30  33  8
31  34  8
32  34  8
7  10  8
7  18  8
8  21  8
8  9  8
9  20  8

$$$$

