11221
  -OEChem-06261205242D

 52 56  0     1  0  0  0  0  0999 V2000
    5.9422    0.2629    0.0000 O   0  0  0  0  0  0  0  0  0  0  0  0
    6.9727    2.2001    0.0000 O   0  0  0  0  0  0  0  0  0  0  0  0
    5.6636   -2.2798    0.0000 O   0  0  0  0  0  0  0  0  0  0  0  0
    6.8160    3.9250    0.0000 O   0  0  0  0  0  0  0  0  0  0  0  0
    4.5096   -3.5714    0.0000 O   0  0  0  0  0  0  0  0  0  0  0  0
    2.9945    1.0317    0.0000 N   0  0  3  0  0  0  0  0  0  0  0  0
    4.5497    1.0701    0.0000 C   0  0  1  0  0  0  0  0  0  0  0  0
    3.8066    1.7392    0.0000 C   0  0  2  0  0  0  0  0  0  0  0  0
    5.5386    1.1714    0.0000 C   0  0  2  0  0  0  0  0  0  0  0  0
    2.8555    1.4302    0.0000 C   0  0  2  0  0  0  0  0  0  0  0  0
    4.2607    0.7626    0.0000 C   0  0  0  0  0  0  0  0  0  0  0  0
    4.3418    0.0919    0.0000 C   0  0  0  0  0  0  0  0  0  0  0  0
    4.3467    2.8480    0.0000 C   0  0  0  0  0  0  0  0  0  0  0  0
    5.9767    2.1096    0.0000 C   0  0  2  0  0  0  0  0  0  0  0  0
    2.6476    0.4520    0.0000 C   0  0  0  0  0  0  0  0  0  0  0  0
    5.3768    2.9536    0.0000 C   0  0  0  0  0  0  0  0  0  0  0  0
    3.5298    0.4372    0.0000 C   0  0  0  0  0  0  0  0  0  0  0  0
    3.3907   -0.2171    0.0000 C   0  0  0  0  0  0  0  0  0  0  0  0
    5.1265   -0.5930    0.0000 C   0  0  0  0  0  0  0  0  0  0  0  0
    2.0000    0.9272    0.0000 C   0  0  0  0  0  0  0  0  0  0  0  0
    3.1585   -1.2325    0.0000 C   0  0  0  0  0  0  0  0  0  0  0  0
    4.9178   -1.6135    0.0000 C   0  0  0  0  0  0  0  0  0  0  0  0
    3.9272   -1.9354    0.0000 C   0  0  0  0  0  0  0  0  0  0  0  0
    7.3923    3.1078    0.0000 C   0  0  0  0  0  0  0  0  0  0  0  0
    8.3882    3.1982    0.0000 C   0  0  0  0  0  0  0  0  0  0  0  0
    5.4594   -3.2588    0.0000 C   0  0  0  0  0  0  0  0  0  0  0  0
    6.2051   -3.9250    0.0000 C   0  0  0  0  0  0  0  0  0  0  0  0
    3.9729    2.5217    0.0000 H   0  0  0  0  0  0  0  0  0  0  0  0
    6.3386    1.1639    0.0000 H   0  0  0  0  0  0  0  0  0  0  0  0
    2.0730    1.5965    0.0000 H   0  0  0  0  0  0  0  0  0  0  0  0
    4.2779    0.1428    0.0000 H   0  0  0  0  0  0  0  0  0  0  0  0
    3.9016    1.2681    0.0000 H   0  0  0  0  0  0  0  0  0  0  0  0
    4.3981    3.4659    0.0000 H   0  0  0  0  0  0  0  0  0  0  0  0
    3.7489    3.0123    0.0000 H   0  0  0  0  0  0  0  0  0  0  0  0
    6.2358    2.6729    0.0000 H   0  0  0  0  0  0  0  0  0  0  0  0
    2.0727    0.6843    0.0000 H   0  0  0  0  0  0  0  0  0  0  0  0
    2.3191   -0.0737    0.0000 H   0  0  0  0  0  0  0  0  0  0  0  0
    5.9361    3.2210    0.0000 H   0  0  0  0  0  0  0  0  0  0  0  0
    5.2090    3.5504    0.0000 H   0  0  0  0  0  0  0  0  0  0  0  0
    3.0282    0.0728    0.0000 H   0  0  0  0  0  0  0  0  0  0  0  0
    3.8398   -0.0997    0.0000 H   0  0  0  0  0  0  0  0  0  0  0  0
    1.9352    1.5438    0.0000 H   0  0  0  0  0  0  0  0  0  0  0  0
    1.3834    0.8624    0.0000 H   0  0  0  0  0  0  0  0  0  0  0  0
    2.0648    0.3106    0.0000 H   0  0  0  0  0  0  0  0  0  0  0  0
    2.5667   -1.4173    0.0000 H   0  0  0  0  0  0  0  0  0  0  0  0
    3.7959   -2.5414    0.0000 H   0  0  0  0  0  0  0  0  0  0  0  0
    8.4443    2.5807    0.0000 H   0  0  0  0  0  0  0  0  0  0  0  0
    9.0056    3.2543    0.0000 H   0  0  0  0  0  0  0  0  0  0  0  0
    8.3321    3.8157    0.0000 H   0  0  0  0  0  0  0  0  0  0  0  0
    5.7921   -4.3874    0.0000 H   0  0  0  0  0  0  0  0  0  0  0  0
    6.6675   -4.3381    0.0000 H   0  0  0  0  0  0  0  0  0  0  0  0
    6.6182   -3.4627    0.0000 H   0  0  0  0  0  0  0  0  0  0  0  0
  1  9  1  0  0  0  0
  1 19  1  0  0  0  0
  2 14  1  0  0  0  0
  2 24  1  0  0  0  0
  3 22  1  0  0  0  0
  3 26  1  0  0  0  0
  4 24  2  0  0  0  0
  5 26  2  0  0  0  0
  6 10  1  0  0  0  0
  6 17  1  0  0  0  0
  6 20  1  0  0  0  0
  7  8  1  0  0  0  0
  7  9  1  0  0  0  0
  7 11  1  0  0  0  0
  7 12  1  0  0  0  0
  8 10  1  0  0  0  0
  8 13  1  0  0  0  0
  8 28  1  0  0  0  0
  9 14  1  0  0  0  0
  9 29  1  0  0  0  0
 10 15  1  0  0  0  0
 10 30  1  0  0  0  0
 11 17  1  0  0  0  0
 11 31  1  0  0  0  0
 11 32  1  0  0  0  0
 12 18  2  0  0  0  0
 12 19  1  0  0  0  0
 13 16  1  0  0  0  0
 13 33  1  0  0  0  0
 13 34  1  0  0  0  0
 14 16  1  0  0  0  0
 14 35  1  0  0  0  0
 15 18  1  0  0  0  0
 15 36  1  0  0  0  0
 15 37  1  0  0  0  0
 16 38  1  0  0  0  0
 16 39  1  0  0  0  0
 17 40  1  0  0  0  0
 17 41  1  0  0  0  0
 18 21  1  0  0  0  0
 19 22  2  0  0  0  0
 20 42  1  0  0  0  0
 20 43  1  0  0  0  0
 20 44  1  0  0  0  0
 21 23  2  0  0  0  0
 21 45  1  0  0  0  0
 22 23  1  0  0  0  0
 23 46  1  0  0  0  0
 24 25  1  0  0  0  0
 25 47  1  0  0  0  0
 25 48  1  0  0  0  0
 25 49  1  0  0  0  0
 26 27  1  0  0  0  0
 27 50  1  0  0  0  0
 27 51  1  0  0  0  0
 27 52  1  0  0  0  0
M  END
> <PUBCHEM_COMPOUND_CID>
11221

> <PUBCHEM_COMPOUND_CANONICALIZED>
1

> <PUBCHEM_CACTVS_COMPLEXITY>
653

> <PUBCHEM_CACTVS_HBOND_ACCEPTOR>
6

> <PUBCHEM_CACTVS_HBOND_DONOR>
0

> <PUBCHEM_CACTVS_ROTATABLE_BOND>
4

> <PUBCHEM_CACTVS_SUBSKEYS>
AAADceB6OAAAAAAAAAAAAAAAAAAAASAAAAA8YMEAAAAWAEjxAAAAHgAAAAAADzzhmAYyDoMABACIAiDSCAACCAAgIAAIiAAOiIgNJiKEsRuGOiKkwBGKqAew8P8PoAABAAAYQADQAAaAADSAAAAAAAAAAA==

> <PUBCHEM_IUPAC_OPENEYE_NAME>
[(4S,4aR,7S,7aR,12bS)-9-acetoxy-3-methyl-2,4,4a,5,6,7,7a,13-octahydro-1H-4,12-methanobenzofuro[3,2-e]isoquinoline-7-yl] acetate

> <PUBCHEM_IUPAC_CAS_NAME>
acetic acid [(4S,4aR,7S,7aR,12bS)-9-acetyloxy-3-methyl-2,4,4a,5,6,7,7a,13-octahydro-1H-4,12-methanobenzofuro[3,2-e]isoquinoline-7-yl] ester

> <PUBCHEM_IUPAC_NAME>
[(4S,4aR,7S,7aR,12bS)-9-acetyloxy-3-methyl-2,4,4a,5,6,7,7a,13-octahydro-1H-4,12-methanobenzofuro[3,2-e]isoquinoline-7-yl] acetate

> <PUBCHEM_IUPAC_SYSTEMATIC_NAME>
[(4S,4aR,7S,7aR,12bS)-9-acetyloxy-3-methyl-2,4,4a,5,6,7,7a,13-octahydro-1H-4,12-methanobenzofuro[3,2-e]isoquinoline-7-yl] ethanoate

> <PUBCHEM_IUPAC_TRADITIONAL_NAME>
acetic acid [(4S,4aR,7S,7aR,12bS)-9-acetoxy-3-methyl-2,4,4a,5,6,7,7a,13-octahydro-1H-4,12-methanobenzofuro[3,2-e]isoquinoline-7-yl] ester

> <PUBCHEM_IUPAC_INCHI>
InChI=1S/C21H25NO5/c1-11(23)25-16-6-4-13-10-15-14-5-7-17(26-12(2)24)20-21(14,8-9-22(15)3)18(13)19(16)27-20/h4,6,14-15,17,20H,5,7-10H2,1-3H3/t14-,15-,17-,20-,21-/m0/s1

> <PUBCHEM_IUPAC_INCHIKEY>
NCXVKLDKUADJPV-XTNBKJMLSA-N

> <PUBCHEM_XLOGP3_AA>
2.5

> <PUBCHEM_EXACT_MASS>
371.173273

> <PUBCHEM_MOLECULAR_FORMULA>
C21H25NO5

> <PUBCHEM_MOLECULAR_WEIGHT>
371.4269

> <PUBCHEM_OPENEYE_CAN_SMILES>
CC(=O)OC1CCC2C3CC4=C5C2(C1OC5=C(C=C4)OC(=O)C)CCN3C

> <PUBCHEM_OPENEYE_ISO_SMILES>
CC(=O)O[C@H]1CC[C@H]2[C@@H]3CC4=C5[C@]2([C@H]1OC5=C(C=C4)OC(=O)C)CCN3C

> <PUBCHEM_CACTVS_TPSA>
65.1

> <PUBCHEM_MONOISOTOPIC_WEIGHT>
371.173273

> <PUBCHEM_TOTAL_CHARGE>
0

> <PUBCHEM_HEAVY_ATOM_COUNT>
27

> <PUBCHEM_ATOM_DEF_STEREO_COUNT>
5

> <PUBCHEM_ATOM_UDEF_STEREO_COUNT>
0

> <PUBCHEM_BOND_DEF_STEREO_COUNT>
0

> <PUBCHEM_BOND_UDEF_STEREO_COUNT>
0

> <PUBCHEM_ISOTOPIC_ATOM_COUNT>
0

> <PUBCHEM_COMPONENT_COUNT>
1

> <PUBCHEM_CACTVS_TAUTO_COUNT>
1

> <PUBCHEM_COORDINATE_TYPE>
1
5
255

> <PUBCHEM_BONDANNOTATIONS>
10  30  3
12  18  8
12  19  8
18  21  8
19  22  8
14  2  3
21  23  8
22  23  8
7  11  3
8  28  3
9  29  3

$$$$

