3804
  -OEChem-06251223412D

127129  0     1  0  0  0  0  0999 V2000
    8.9282    3.0227    0.0000 O   0  0  0  0  0  0  0  0  0  0  0  0
    8.0622    0.5227    0.0000 O   0  0  0  0  0  0  0  0  0  0  0  0
    8.9282   -0.9773    0.0000 O   0  0  0  0  0  0  0  0  0  0  0  0
    7.1962    3.0227    0.0000 O   0  0  0  0  0  0  0  0  0  0  0  0
   10.6603    0.0227    0.0000 O   0  0  0  0  0  0  0  0  0  0  0  0
    6.6962    5.8887    0.0000 O   0  0  0  0  0  0  0  0  0  0  0  0
    5.4641    5.0227    0.0000 O   0  0  0  0  0  0  0  0  0  0  0  0
    7.1962    0.0227    0.0000 O   0  0  0  0  0  0  0  0  0  0  0  0
    5.4641   -0.9773    0.0000 O   0  0  0  0  0  0  0  0  0  0  0  0
    6.8528   -5.0704    0.0000 O   0  0  0  0  0  0  0  0  0  0  0  0
   10.7921   -2.5839    0.0000 O   0  0  0  0  0  0  0  0  0  0  0  0
    5.4641   -3.9773    0.0000 O   0  0  0  0  0  0  0  0  0  0  0  0
    4.5981    3.5227    0.0000 O   0  0  0  0  0  0  0  0  0  0  0  0
    4.5981   -2.4773    0.0000 O   0  0  0  0  0  0  0  0  0  0  0  0
    3.8365   -1.5698    0.0000 O   0  0  0  0  0  0  0  0  0  0  0  0
   10.6603    2.0227    0.0000 N   0  0  0  0  0  0  0  0  0  0  0  0
    9.7942    1.5227    0.0000 C   0  0  3  0  0  0  0  0  0  0  0  0
    8.9282    2.0227    0.0000 C   0  0  3  0  0  0  0  0  0  0  0  0
    9.7942    0.5227    0.0000 C   0  0  3  0  0  0  0  0  0  0  0  0
    8.0622    1.5227    0.0000 C   0  0  3  0  0  0  0  0  0  0  0  0
    8.9282    0.0227    0.0000 C   0  0  3  0  0  0  0  0  0  0  0  0
    8.0622   -1.4773    0.0000 C   0  0  3  0  0  0  0  0  0  0  0  0
    7.1962    5.0227    0.0000 C   0  0  3  0  0  0  0  0  0  0  0  0
    8.0622    3.5227    0.0000 C   0  0  3  0  0  0  0  0  0  0  0  0
    8.0622   -2.4773    0.0000 C   0  0  3  0  0  0  0  0  0  0  0  0
    8.0622    4.5227    0.0000 C   0  0  0  0  0  0  0  0  0  0  0  0
    6.3301    4.5227    0.0000 C   0  0  3  0  0  0  0  0  0  0  0  0
    6.3301    3.5227    0.0000 C   0  0  3  0  0  0  0  0  0  0  0  0
    7.1962   -0.9773    0.0000 C   0  0  3  0  0  0  0  0  0  0  0  0
    7.8442   -3.4688    0.0000 C   0  0  0  0  0  0  0  0  0  0  0  0
    7.1962    2.0227    0.0000 C   0  0  0  0  0  0  0  0  0  0  0  0
    8.3442   -4.3348    0.0000 C   0  0  3  0  0  0  0  0  0  0  0  0
    9.0614   -2.5164    0.0000 C   0  0  0  0  0  0  0  0  0  0  0  0
    6.3301   -1.4773    0.0000 C   0  0  3  0  0  0  0  0  0  0  0  0
    7.6962    5.8887    0.0000 C   0  0  0  0  0  0  0  0  0  0  0  0
   11.5263    1.5227    0.0000 C   0  0  0  0  0  0  0  0  0  0  0  0
   10.6603    3.0227    0.0000 C   0  0  0  0  0  0  0  0  0  0  0  0
    5.4641    3.0227    0.0000 C   0  0  0  0  0  0  0  0  0  0  0  0
    7.8442   -5.2009    0.0000 C   0  0  3  0  0  0  0  0  0  0  0  0
    6.3301   -2.4773    0.0000 C   0  0  0  0  0  0  0  0  0  0  0  0
    9.2103   -4.8348    0.0000 C   0  0  0  0  0  0  0  0  0  0  0  0
    9.9073   -3.0498    0.0000 C   0  0  0  0  0  0  0  0  0  0  0  0
    4.5981    4.5227    0.0000 C   0  0  0  0  0  0  0  0  0  0  0  0
    8.1031   -6.1668    0.0000 C   0  0  0  0  0  0  0  0  0  0  0  0
    6.3301    0.5227    0.0000 C   0  0  0  0  0  0  0  0  0  0  0  0
    5.4641   -2.9773    0.0000 C   0  0  0  0  0  0  0  0  0  0  0  0
    3.7320    5.0227    0.0000 C   0  0  0  0  0  0  0  0  0  0  0  0
    4.4793   -0.8037    0.0000 C   0  0  0  0  0  0  0  0  0  0  0  0
    2.8660    4.5227    0.0000 C   0  0  0  0  0  0  0  0  0  0  0  0
    7.1371   -6.4256    0.0000 C   0  0  0  0  0  0  0  0  0  0  0  0
    4.5981   -4.4773    0.0000 C   0  0  3  0  0  0  0  0  0  0  0  0
    4.1373    0.1361    0.0000 C   0  0  0  0  0  0  0  0  0  0  0  0
    2.0000    5.0227    0.0000 C   0  0  0  0  0  0  0  0  0  0  0  0
    2.8660    3.5227    0.0000 C   0  0  0  0  0  0  0  0  0  0  0  0
    4.5981   -5.4773    0.0000 C   0  0  0  0  0  0  0  0  0  0  0  0
    6.4300   -5.7185    0.0000 C   0  0  0  0  0  0  0  0  0  0  0  0
    5.4641   -5.9773    0.0000 C   0  0  0  0  0  0  0  0  0  0  0  0
    3.7320   -3.9773    0.0000 C   0  0  0  0  0  0  0  0  0  0  0  0
   10.5304    1.0977    0.0000 H   0  0  0  0  0  0  0  0  0  0  0  0
    9.6643    2.4477    0.0000 H   0  0  0  0  0  0  0  0  0  0  0  0
    9.7942   -0.3273    0.0000 H   0  0  0  0  0  0  0  0  0  0  0  0
    7.3261    1.0977    0.0000 H   0  0  0  0  0  0  0  0  0  0  0  0
    9.6643   -0.4023    0.0000 H   0  0  0  0  0  0  0  0  0  0  0  0
    8.0622   -0.6273    0.0000 H   0  0  0  0  0  0  0  0  0  0  0  0
    8.0622    2.6727    0.0000 H   0  0  0  0  0  0  0  0  0  0  0  0
    8.5818   -3.1500    0.0000 H   0  0  0  0  0  0  0  0  0  0  0  0
    8.6728    4.4150    0.0000 H   0  0  0  0  0  0  0  0  0  0  0  0
    8.2742    5.1053    0.0000 H   0  0  0  0  0  0  0  0  0  0  0  0
    5.5940    4.0977    0.0000 H   0  0  0  0  0  0  0  0  0  0  0  0
    6.3301    2.6727    0.0000 H   0  0  0  0  0  0  0  0  0  0  0  0
    6.4600   -0.5523    0.0000 H   0  0  0  0  0  0  0  0  0  0  0  0
    7.2982   -3.1752    0.0000 H   0  0  0  0  0  0  0  0  0  0  0  0
    7.4125   -3.9138    0.0000 H   0  0  0  0  0  0  0  0  0  0  0  0
    7.5062    2.5596    0.0000 H   0  0  0  0  0  0  0  0  0  0  0  0
    6.6592    2.3327    0.0000 H   0  0  0  0  0  0  0  0  0  0  0  0
    6.8862    1.4857    0.0000 H   0  0  0  0  0  0  0  0  0  0  0  0
    8.9453   -3.7338    0.0000 H   0  0  0  0  0  0  0  0  0  0  0  0
    9.5516   -2.1366    0.0000 H   0  0  0  0  0  0  0  0  0  0  0  0
    8.8777   -3.1085    0.0000 H   0  0  0  0  0  0  0  0  0  0  0  0
    5.5940   -1.9023    0.0000 H   0  0  0  0  0  0  0  0  0  0  0  0
    8.2331    5.5787    0.0000 H   0  0  0  0  0  0  0  0  0  0  0  0
    8.0062    6.4256    0.0000 H   0  0  0  0  0  0  0  0  0  0  0  0
    7.1592    6.1987    0.0000 H   0  0  0  0  0  0  0  0  0  0  0  0
   10.6603   -0.5973    0.0000 H   0  0  0  0  0  0  0  0  0  0  0  0
   11.2163    0.9857    0.0000 H   0  0  0  0  0  0  0  0  0  0  0  0
   12.0632    1.2127    0.0000 H   0  0  0  0  0  0  0  0  0  0  0  0
   11.8363    2.0596    0.0000 H   0  0  0  0  0  0  0  0  0  0  0  0
   11.2803    3.0227    0.0000 H   0  0  0  0  0  0  0  0  0  0  0  0
   10.6603    3.6427    0.0000 H   0  0  0  0  0  0  0  0  0  0  0  0
   10.0403    3.0227    0.0000 H   0  0  0  0  0  0  0  0  0  0  0  0
    5.1541    3.5596    0.0000 H   0  0  0  0  0  0  0  0  0  0  0  0
    4.9272    2.7127    0.0000 H   0  0  0  0  0  0  0  0  0  0  0  0
    5.7741    2.4857    0.0000 H   0  0  0  0  0  0  0  0  0  0  0  0
    7.0062    6.4256    0.0000 H   0  0  0  0  0  0  0  0  0  0  0  0
    7.4683   -4.4385    0.0000 H   0  0  0  0  0  0  0  0  0  0  0  0
    6.5422   -3.0600    0.0000 H   0  0  0  0  0  0  0  0  0  0  0  0
    6.9407   -2.3697    0.0000 H   0  0  0  0  0  0  0  0  0  0  0  0
    8.9003   -5.3718    0.0000 H   0  0  0  0  0  0  0  0  0  0  0  0
    9.7472   -5.1448    0.0000 H   0  0  0  0  0  0  0  0  0  0  0  0
    9.5203   -4.2979    0.0000 H   0  0  0  0  0  0  0  0  0  0  0  0
    9.8831   -3.6693    0.0000 H   0  0  0  0  0  0  0  0  0  0  0  0
    8.6400   -6.4768    0.0000 H   0  0  0  0  0  0  0  0  0  0  0  0
    6.6401    1.0596    0.0000 H   0  0  0  0  0  0  0  0  0  0  0  0
    5.7932    0.8327    0.0000 H   0  0  0  0  0  0  0  0  0  0  0  0
    6.0201   -0.0143    0.0000 H   0  0  0  0  0  0  0  0  0  0  0  0
    4.1306    5.4976    0.0000 H   0  0  0  0  0  0  0  0  0  0  0  0
    3.3335    5.4976    0.0000 H   0  0  0  0  0  0  0  0  0  0  0  0
    6.6155   -4.4976    0.0000 H   0  0  0  0  0  0  0  0  0  0  0  0
    2.8660    5.1427    0.0000 H   0  0  0  0  0  0  0  0  0  0  0  0
    6.9767   -7.0245    0.0000 H   0  0  0  0  0  0  0  0  0  0  0  0
    4.5981   -3.6273    0.0000 H   0  0  0  0  0  0  0  0  0  0  0  0
    4.7200    0.3481    0.0000 H   0  0  0  0  0  0  0  0  0  0  0  0
    3.9253    0.7187    0.0000 H   0  0  0  0  0  0  0  0  0  0  0  0
    3.5547   -0.0759    0.0000 H   0  0  0  0  0  0  0  0  0  0  0  0
    2.3100    5.5596    0.0000 H   0  0  0  0  0  0  0  0  0  0  0  0
    1.4631    5.3327    0.0000 H   0  0  0  0  0  0  0  0  0  0  0  0
    1.6900    4.4857    0.0000 H   0  0  0  0  0  0  0  0  0  0  0  0
    2.2460    3.5227    0.0000 H   0  0  0  0  0  0  0  0  0  0  0  0
    2.8660    2.9027    0.0000 H   0  0  0  0  0  0  0  0  0  0  0  0
    3.4860    3.5227    0.0000 H   0  0  0  0  0  0  0  0  0  0  0  0
    3.9875   -5.3697    0.0000 H   0  0  0  0  0  0  0  0  0  0  0  0
    4.3860   -6.0600    0.0000 H   0  0  0  0  0  0  0  0  0  0  0  0
    6.5905   -5.1196    0.0000 H   0  0  0  0  0  0  0  0  0  0  0  0
    5.3832   -6.5920    0.0000 H   0  0  0  0  0  0  0  0  0  0  0  0
    4.0420   -3.4404    0.0000 H   0  0  0  0  0  0  0  0  0  0  0  0
    3.1951   -3.6673    0.0000 H   0  0  0  0  0  0  0  0  0  0  0  0
    3.4220   -4.5143    0.0000 H   0  0  0  0  0  0  0  0  0  0  0  0
  1 18  1  0  0  0  0
  1 24  1  0  0  0  0
  2 20  1  0  0  0  0
  2 21  1  0  0  0  0
  3 21  1  0  0  0  0
  3 22  1  0  0  0  0
  4 24  1  0  0  0  0
  4 28  1  0  0  0  0
  5 19  1  0  0  0  0
  5 84  1  0  0  0  0
  6 23  1  0  0  0  0
  6 94  1  0  0  0  0
  7 27  1  0  0  0  0
  7 43  1  0  0  0  0
  8 29  1  0  0  0  0
  8 45  1  0  0  0  0
  9 34  1  0  0  0  0
  9 48  1  0  0  0  0
 10 39  1  0  0  0  0
 10108  1  0  0  0  0
 11 42  2  0  0  0  0
 12 46  1  0  0  0  0
 12 51  1  0  0  0  0
 13 43  2  0  0  0  0
 14 46  2  0  0  0  0
 15 48  2  0  0  0  0
 16 17  1  0  0  0  0
 16 36  1  0  0  0  0
 16 37  1  0  0  0  0
 17 18  1  0  0  0  0
 17 19  1  0  0  0  0
 17 59  1  0  0  0  0
 18 20  1  0  0  0  0
 18 60  1  0  0  0  0
 19 21  1  0  0  0  0
 19 61  1  0  0  0  0
 20 31  1  0  0  0  0
 20 62  1  0  0  0  0
 21 63  1  0  0  0  0
 22 25  1  0  0  0  0
 22 29  1  0  0  0  0
 22 64  1  0  0  0  0
 23 26  1  0  0  0  0
 23 27  1  0  0  0  0
 23 35  1  0  0  0  0
 24 26  1  0  0  0  0
 24 65  1  0  0  0  0
 25 30  1  0  0  0  0
 25 33  1  0  0  0  0
 25 66  1  0  0  0  0
 26 67  1  0  0  0  0
 26 68  1  0  0  0  0
 27 28  1  0  0  0  0
 27 69  1  0  0  0  0
 28 38  1  0  0  0  0
 28 70  1  0  0  0  0
 29 34  1  0  0  0  0
 29 71  1  0  0  0  0
 30 32  1  0  0  0  0
 30 72  1  0  0  0  0
 30 73  1  0  0  0  0
 31 74  1  0  0  0  0
 31 75  1  0  0  0  0
 31 76  1  0  0  0  0
 32 39  1  0  0  0  0
 32 41  1  0  0  0  0
 32 77  1  0  0  0  0
 33 42  1  0  0  0  0
 33 78  1  0  0  0  0
 33 79  1  0  0  0  0
 34 40  1  0  0  0  0
 34 80  1  0  0  0  0
 35 81  1  0  0  0  0
 35 82  1  0  0  0  0
 35 83  1  0  0  0  0
 36 85  1  0  0  0  0
 36 86  1  0  0  0  0
 36 87  1  0  0  0  0
 37 88  1  0  0  0  0
 37 89  1  0  0  0  0
 37 90  1  0  0  0  0
 38 91  1  0  0  0  0
 38 92  1  0  0  0  0
 38 93  1  0  0  0  0
 39 44  1  0  0  0  0
 39 95  1  0  0  0  0
 40 46  1  0  0  0  0
 40 96  1  0  0  0  0
 40 97  1  0  0  0  0
 41 98  1  0  0  0  0
 41 99  1  0  0  0  0
 41100  1  0  0  0  0
 42101  1  0  0  0  0
 43 47  1  0  0  0  0
 44 50  2  3  0  0  0
 44102  1  0  0  0  0
 45103  1  0  0  0  0
 45104  1  0  0  0  0
 45105  1  0  0  0  0
 47 49  1  0  0  0  0
 47106  1  0  0  0  0
 47107  1  0  0  0  0
 48 52  1  0  0  0  0
 49 53  1  0  0  0  0
 49 54  1  0  0  0  0
 49109  1  0  0  0  0
 50 56  1  0  0  0  0
 50110  1  0  0  0  0
 51 55  1  0  0  0  0
 51 58  1  0  0  0  0
 51111  1  0  0  0  0
 52112  1  0  0  0  0
 52113  1  0  0  0  0
 52114  1  0  0  0  0
 53115  1  0  0  0  0
 53116  1  0  0  0  0
 53117  1  0  0  0  0
 54118  1  0  0  0  0
 54119  1  0  0  0  0
 54120  1  0  0  0  0
 55 57  1  0  0  0  0
 55121  1  0  0  0  0
 55122  1  0  0  0  0
 56 57  2  3  0  0  0
 56123  1  0  0  0  0
 57124  1  0  0  0  0
 58125  1  0  0  0  0
 58126  1  0  0  0  0
 58127  1  0  0  0  0
M  END
> <PUBCHEM_COMPOUND_CID>
3804

> <PUBCHEM_COMPOUND_CANONICALIZED>
1

> <PUBCHEM_CACTVS_COMPLEXITY>
1390

> <PUBCHEM_CACTVS_HBOND_ACCEPTOR>
16

> <PUBCHEM_CACTVS_HBOND_DONOR>
3

> <PUBCHEM_CACTVS_ROTATABLE_BOND>
14

> <PUBCHEM_CACTVS_SUBSKEYS>
AAADcfB+PAAAAAAAAAAAAAAAAAAAAAAAAAAkSAAAAAAAAAAAAAAAHgAACAAADXzxgAcCCAMABgCIACjSiAAAAAAgAAAICAEIAAgbFBYAgQAnUAAH4AAfkAPK7PzOAAAAAAAAAAAAAAAAAAAAAAAAAAAAAA==

> <PUBCHEM_IUPAC_OPENEYE_NAME>
[6-[6-[[4-acetoxy-10-hydroxy-5-methoxy-9,16-dimethyl-2-oxo-7-(2-oxoethyl)-1-oxacyclohexadeca-11,13-dien-6-yl]oxy]-4-(dimethylamino)-5-hydroxy-2-methyl-tetrahydropyran-3-yl]oxy-4-hydroxy-2,4-dimethyl-tetrahydropyran-3-yl] 3-methylbutanoate

> <PUBCHEM_IUPAC_CAS_NAME>
3-methylbutanoic acid [6-[[6-[[4-acetyloxy-10-hydroxy-5-methoxy-9,16-dimethyl-2-oxo-7-(2-oxoethyl)-1-oxacyclohexadeca-11,13-dien-6-yl]oxy]-4-(dimethylamino)-5-hydroxy-2-methyl-3-oxanyl]oxy]-4-hydroxy-2,4-dimethyl-3-oxanyl] ester

> <PUBCHEM_IUPAC_NAME>
[6-[6-[[4-acetyloxy-10-hydroxy-5-methoxy-9,16-dimethyl-2-oxo-7-(2-oxoethyl)-1-oxacyclohexadeca-11,13-dien-6-yl]oxy]-4-(dimethylamino)-5-hydroxy-2-methyloxan-3-yl]oxy-4-hydroxy-2,4-dimethyloxan-3-yl] 3-methylbutanoate

> <PUBCHEM_IUPAC_SYSTEMATIC_NAME>
[6-[6-[[4-acetyloxy-5-methoxy-9,16-dimethyl-10-oxidanyl-2-oxidanylidene-7-(2-oxidanylideneethyl)-1-oxacyclohexadeca-11,13-dien-6-yl]oxy]-4-(dimethylamino)-2-methyl-5-oxidanyl-oxan-3-yl]oxy-2,4-dimethyl-4-oxidanyl-oxan-3-yl] 3-methylbutanoate

> <PUBCHEM_IUPAC_TRADITIONAL_NAME>
3-methylbutyric acid [6-[6-[[4-acetoxy-10-hydroxy-2-keto-7-(2-ketoethyl)-5-methoxy-9,16-dimethyl-1-oxacyclohexadeca-11,13-dien-6-yl]oxy]-4-(dimethylamino)-5-hydroxy-2-methyl-tetrahydropyran-3-yl]oxy-4-hydroxy-2,4-dimethyl-tetrahydropyran-3-yl] ester

> <PUBCHEM_IUPAC_INCHI>
InChI=1S/C42H69NO15/c1-23(2)19-32(47)56-40-27(6)53-34(22-42(40,8)50)57-37-26(5)54-41(36(49)35(37)43(9)10)58-38-29(17-18-44)20-24(3)30(46)16-14-12-13-15-25(4)52-33(48)21-31(39(38)51-11)55-28(7)45/h12-14,16,18,23-27,29-31,34-41,46,49-50H,15,17,19-22H2,1-11H3

> <PUBCHEM_IUPAC_INCHIKEY>
XJSFLOJWULLJQS-UHFFFAOYSA-N

> <PUBCHEM_XLOGP3_AA>
2.9

> <PUBCHEM_EXACT_MASS>
827.466721

> <PUBCHEM_MOLECULAR_FORMULA>
C42H69NO15

> <PUBCHEM_MOLECULAR_WEIGHT>
827.99496

> <PUBCHEM_OPENEYE_CAN_SMILES>
CC1CC=CC=CC(C(CC(C(C(C(CC(=O)O1)OC(=O)C)OC)OC2C(C(C(C(O2)C)OC3CC(C(C(O3)C)OC(=O)CC(C)C)(C)O)N(C)C)O)CC=O)C)O

> <PUBCHEM_OPENEYE_ISO_SMILES>
CC1CC=CC=CC(C(CC(C(C(C(CC(=O)O1)OC(=O)C)OC)OC2C(C(C(C(O2)C)OC3CC(C(C(O3)C)OC(=O)CC(C)C)(C)O)N(C)C)O)CC=O)C)O

> <PUBCHEM_CACTVS_TPSA>
206

> <PUBCHEM_MONOISOTOPIC_WEIGHT>
827.466721

> <PUBCHEM_TOTAL_CHARGE>
0

> <PUBCHEM_HEAVY_ATOM_COUNT>
58

> <PUBCHEM_ATOM_DEF_STEREO_COUNT>
0

> <PUBCHEM_ATOM_UDEF_STEREO_COUNT>
16

> <PUBCHEM_BOND_DEF_STEREO_COUNT>
0

> <PUBCHEM_BOND_UDEF_STEREO_COUNT>
2

> <PUBCHEM_ISOTOPIC_ATOM_COUNT>
0

> <PUBCHEM_COMPONENT_COUNT>
1

> <PUBCHEM_CACTVS_TAUTO_COUNT>
4

> <PUBCHEM_COORDINATE_TYPE>
1
5
255

> <PUBCHEM_BONDANNOTATIONS>
17  59  3
18  60  3
19  61  3
20  62  3
21  63  3
22  64  3
23  35  3
24  65  3
25  66  3
27  69  3
28  70  3
29  71  3
32  77  3
34  80  3
39  95  3
44  50  1
51  111  3
56  57  1

$$$$

