51090925
  -OEChem-06241223002D

 41 43  0     1  0  0  0  0  0999 V2000
   10.1118   -3.3288    0.0000 F   0  0  0  0  0  0  0  0  0  0  0  0
    8.7150   -3.5500    0.0000 F   0  0  0  0  0  0  0  0  0  0  0  0
    9.8906   -1.9320    0.0000 F   0  0  0  0  0  0  0  0  0  0  0  0
    6.7619    3.0220    0.0000 O   0  0  0  0  0  0  0  0  0  0  0  0
    8.5983   -1.1587    0.0000 N   0  0  3  0  0  0  0  0  0  0  0  0
    6.7619    1.2900    0.0000 N   0  0  0  0  0  0  0  0  0  0  0  0
    4.6783    2.9607    0.0000 N   0  0  0  0  0  0  0  0  0  0  0  0
    8.2619    0.4239    0.0000 C   0  0  3  0  0  0  0  0  0  0  0  0
    9.2564    0.3194    0.0000 C   0  0  0  0  0  0  0  0  0  0  0  0
    7.8551   -0.4896    0.0000 C   0  0  0  0  0  0  0  0  0  0  0  0
    9.4643   -0.6587    0.0000 C   0  0  0  0  0  0  0  0  0  0  0  0
    7.7619    1.2900    0.0000 C   0  0  0  0  0  0  0  0  0  0  0  0
    8.4938   -2.1532    0.0000 C   0  0  0  0  0  0  0  0  0  0  0  0
    9.3028   -2.7410    0.0000 C   0  0  0  0  0  0  0  0  0  0  0  0
    6.2619    2.1560    0.0000 C   0  0  0  0  0  0  0  0  0  0  0  0
    5.2619    2.1560    0.0000 C   0  0  0  0  0  0  0  0  0  0  0  0
    4.6783    1.3513    0.0000 C   0  0  0  0  0  0  0  0  0  0  0  0
    3.7320    2.6560    0.0000 C   0  0  0  0  0  0  0  0  0  0  0  0
    3.7320    1.6560    0.0000 C   0  0  0  0  0  0  0  0  0  0  0  0
    2.8660    3.1560    0.0000 C   0  0  0  0  0  0  0  0  0  0  0  0
    2.8660    1.1560    0.0000 C   0  0  0  0  0  0  0  0  0  0  0  0
    2.0000    2.6560    0.0000 C   0  0  0  0  0  0  0  0  0  0  0  0
    2.0000    1.6560    0.0000 C   0  0  0  0  0  0  0  0  0  0  0  0
    8.5996    0.9439    0.0000 H   0  0  0  0  0  0  0  0  0  0  0  0
    9.8730    0.3842    0.0000 H   0  0  0  0  0  0  0  0  0  0  0  0
    9.2564    0.9394    0.0000 H   0  0  0  0  0  0  0  0  0  0  0  0
    7.3182   -0.1796    0.0000 H   0  0  0  0  0  0  0  0  0  0  0  0
    7.4907   -0.9912    0.0000 H   0  0  0  0  0  0  0  0  0  0  0  0
    9.7165   -1.2251    0.0000 H   0  0  0  0  0  0  0  0  0  0  0  0
   10.0540   -0.4671    0.0000 H   0  0  0  0  0  0  0  0  0  0  0  0
    8.3445    1.5020    0.0000 H   0  0  0  0  0  0  0  0  0  0  0  0
    7.6542    1.9006    0.0000 H   0  0  0  0  0  0  0  0  0  0  0  0
    7.8978   -1.9824    0.0000 H   0  0  0  0  0  0  0  0  0  0  0  0
    8.2220   -2.7105    0.0000 H   0  0  0  0  0  0  0  0  0  0  0  0
    6.4519    0.7530    0.0000 H   0  0  0  0  0  0  0  0  0  0  0  0
    4.8709    3.5500    0.0000 H   0  0  0  0  0  0  0  0  0  0  0  0
    4.8709    0.7619    0.0000 H   0  0  0  0  0  0  0  0  0  0  0  0
    2.8660    3.7760    0.0000 H   0  0  0  0  0  0  0  0  0  0  0  0
    2.8660    0.5360    0.0000 H   0  0  0  0  0  0  0  0  0  0  0  0
    1.4631    2.9660    0.0000 H   0  0  0  0  0  0  0  0  0  0  0  0
    1.4631    1.3460    0.0000 H   0  0  0  0  0  0  0  0  0  0  0  0
  1 14  1  0  0  0  0
  2 14  1  0  0  0  0
  3 14  1  0  0  0  0
  4 15  2  0  0  0  0
  5 10  1  0  0  0  0
  5 11  1  0  0  0  0
  5 13  1  0  0  0  0
  6 12  1  0  0  0  0
  6 15  1  0  0  0  0
  6 35  1  0  0  0  0
  7 16  1  0  0  0  0
  7 18  1  0  0  0  0
  7 36  1  0  0  0  0
  8  9  1  0  0  0  0
  8 10  1  0  0  0  0
  8 12  1  0  0  0  0
  8 24  1  0  0  0  0
  9 11  1  0  0  0  0
  9 25  1  0  0  0  0
  9 26  1  0  0  0  0
 10 27  1  0  0  0  0
 10 28  1  0  0  0  0
 11 29  1  0  0  0  0
 11 30  1  0  0  0  0
 12 31  1  0  0  0  0
 12 32  1  0  0  0  0
 13 14  1  0  0  0  0
 13 33  1  0  0  0  0
 13 34  1  0  0  0  0
 15 16  1  0  0  0  0
 16 17  2  0  0  0  0
 17 19  1  0  0  0  0
 17 37  1  0  0  0  0
 18 19  1  0  0  0  0
 18 20  2  0  0  0  0
 19 21  2  0  0  0  0
 20 22  1  0  0  0  0
 20 38  1  0  0  0  0
 21 23  1  0  0  0  0
 21 39  1  0  0  0  0
 22 23  2  0  0  0  0
 22 40  1  0  0  0  0
 23 41  1  0  0  0  0
M  END
> <PUBCHEM_COMPOUND_CID>
51090925

> <PUBCHEM_COMPOUND_CANONICALIZED>
1

> <PUBCHEM_CACTVS_COMPLEXITY>
429

> <PUBCHEM_CACTVS_HBOND_ACCEPTOR>
5

> <PUBCHEM_CACTVS_HBOND_DONOR>
2

> <PUBCHEM_CACTVS_ROTATABLE_BOND>
4

> <PUBCHEM_CACTVS_SUBSKEYS>
AAADceB7IYAAAAAAAAAAAAAAAAAAAWLAAAAwAAAAAAAAAFgB8AAAHwAQAAAADQjBnhQwwPPJkACoAyVyVACCgCAnAiAImaG4ZNgIYPLA1bGUIQhglgDIyYcYiYCeAAAAAAACAAAAAAAAAAQAAAAAAAAAAA==

> <PUBCHEM_IUPAC_OPENEYE_NAME>
N-[[1-(2,2,2-trifluoroethyl)pyrrolidin-3-yl]methyl]-1H-indole-2-carboxamide

> <PUBCHEM_IUPAC_CAS_NAME>
N-[[1-(2,2,2-trifluoroethyl)-3-pyrrolidinyl]methyl]-1H-indole-2-carboxamide

> <PUBCHEM_IUPAC_NAME>
N-[[1-(2,2,2-trifluoroethyl)pyrrolidin-3-yl]methyl]-1H-indole-2-carboxamide

> <PUBCHEM_IUPAC_SYSTEMATIC_NAME>
N-[[1-[2,2,2-tris(fluoranyl)ethyl]pyrrolidin-3-yl]methyl]-1H-indole-2-carboxamide

> <PUBCHEM_IUPAC_TRADITIONAL_NAME>
N-[[1-(2,2,2-trifluoroethyl)pyrrolidin-3-yl]methyl]-1H-indole-2-carboxamide

> <PUBCHEM_IUPAC_INCHI>
InChI=1S/C16H18F3N3O/c17-16(18,19)10-22-6-5-11(9-22)8-20-15(23)14-7-12-3-1-2-4-13(12)21-14/h1-4,7,11,21H,5-6,8-10H2,(H,20,23)

> <PUBCHEM_IUPAC_INCHIKEY>
BBCGBUYKCKZMFK-UHFFFAOYSA-N

> <PUBCHEM_XLOGP3_AA>
3.2

> <PUBCHEM_EXACT_MASS>
325.140197

> <PUBCHEM_MOLECULAR_FORMULA>
C16H18F3N3O

> <PUBCHEM_MOLECULAR_WEIGHT>
325.32883

> <PUBCHEM_OPENEYE_CAN_SMILES>
C1CN(CC1CNC(=O)C2=CC3=CC=CC=C3N2)CC(F)(F)F

> <PUBCHEM_OPENEYE_ISO_SMILES>
C1CN(CC1CNC(=O)C2=CC3=CC=CC=C3N2)CC(F)(F)F

> <PUBCHEM_CACTVS_TPSA>
48.1

> <PUBCHEM_MONOISOTOPIC_WEIGHT>
325.140197

> <PUBCHEM_TOTAL_CHARGE>
0

> <PUBCHEM_HEAVY_ATOM_COUNT>
23

> <PUBCHEM_ATOM_DEF_STEREO_COUNT>
0

> <PUBCHEM_ATOM_UDEF_STEREO_COUNT>
1

> <PUBCHEM_BOND_DEF_STEREO_COUNT>
0

> <PUBCHEM_BOND_UDEF_STEREO_COUNT>
0

> <PUBCHEM_ISOTOPIC_ATOM_COUNT>
0

> <PUBCHEM_COMPONENT_COUNT>
1

> <PUBCHEM_CACTVS_TAUTO_COUNT>
11

> <PUBCHEM_COORDINATE_TYPE>
1
5
255

> <PUBCHEM_BONDANNOTATIONS>
16  17  8
17  19  8
18  19  8
18  20  8
19  21  8
20  22  8
21  23  8
22  23  8
7  16  8
7  18  8
8  12  3

$$$$

