14290
  -OEChem-06241222432D

 15 15  0     0  0  0  0  0  0999 V2000
    2.8660   -1.9050    0.0000 As  0  0  0  0  0  0  0  0  0  0  0  0
    2.0000   -2.4050    0.0000 O   0  0  0  0  0  0  0  0  0  0  0  0
    2.8660    2.0950    0.0000 N   0  0  0  0  0  0  0  0  0  0  0  0
    2.8660    1.0950    0.0000 C   0  0  0  0  0  0  0  0  0  0  0  0
    2.0000    0.5950    0.0000 C   0  0  0  0  0  0  0  0  0  0  0  0
    3.7320    0.5950    0.0000 C   0  0  0  0  0  0  0  0  0  0  0  0
    2.8660   -0.9050    0.0000 C   0  0  0  0  0  0  0  0  0  0  0  0
    2.0000   -0.4050    0.0000 C   0  0  0  0  0  0  0  0  0  0  0  0
    3.7320   -0.4050    0.0000 C   0  0  0  0  0  0  0  0  0  0  0  0
    1.4631    0.9050    0.0000 H   0  0  0  0  0  0  0  0  0  0  0  0
    4.2690    0.9050    0.0000 H   0  0  0  0  0  0  0  0  0  0  0  0
    1.4631   -0.7150    0.0000 H   0  0  0  0  0  0  0  0  0  0  0  0
    4.2690   -0.7150    0.0000 H   0  0  0  0  0  0  0  0  0  0  0  0
    3.4030    2.4050    0.0000 H   0  0  0  0  0  0  0  0  0  0  0  0
    2.3291    2.4050    0.0000 H   0  0  0  0  0  0  0  0  0  0  0  0
  1  2  2  0  0  0  0
  1  7  1  0  0  0  0
  3  4  1  0  0  0  0
  3 14  1  0  0  0  0
  3 15  1  0  0  0  0
  4  5  2  0  0  0  0
  4  6  1  0  0  0  0
  5  8  1  0  0  0  0
  5 10  1  0  0  0  0
  6  9  2  0  0  0  0
  6 11  1  0  0  0  0
  7  8  2  0  0  0  0
  7  9  1  0  0  0  0
  8 12  1  0  0  0  0
  9 13  1  0  0  0  0
M  END
> <PUBCHEM_COMPOUND_CID>
14290

> <PUBCHEM_COMPOUND_CANONICALIZED>
1

> <PUBCHEM_CACTVS_COMPLEXITY>
99.2

> <PUBCHEM_CACTVS_HBOND_ACCEPTOR>
2

> <PUBCHEM_CACTVS_HBOND_DONOR>
1

> <PUBCHEM_CACTVS_ROTATABLE_BOND>
0

> <PUBCHEM_CACTVS_SUBSKEYS>
AAADcYBiIAAAAAAAQAAAAAAAAAAAAAAAAAAwAAAAAAAAAAABAAAAHAEQAAAACAiBEAAwwIBAAACAACRCQACCAAAgAgAIjAAAZIgIICKAkZGAIBBgkAAIyAcQAAAAAAAAAAAAAAAAAAAAAAAAAAAAAAAAAA==

> <PUBCHEM_IUPAC_OPENEYE_NAME>
4-arsorosoaniline

> <PUBCHEM_IUPAC_CAS_NAME>
4-arsorosoaniline

> <PUBCHEM_IUPAC_NAME>
4-arsorosoaniline

> <PUBCHEM_IUPAC_SYSTEMATIC_NAME>
4-arsorosoaniline

> <PUBCHEM_IUPAC_TRADITIONAL_NAME>
(4-arsorosophenyl)amine

> <PUBCHEM_IUPAC_INCHI>
InChI=1S/C6H6AsNO/c8-6-3-1-5(7-9)2-4-6/h1-4H,8H2

> <PUBCHEM_IUPAC_INCHIKEY>
VOLTUGUMYQENMY-UHFFFAOYSA-N

> <PUBCHEM_EXACT_MASS>
182.966535

> <PUBCHEM_MOLECULAR_FORMULA>
C6H6AsNO

> <PUBCHEM_MOLECULAR_WEIGHT>
183.03954

> <PUBCHEM_OPENEYE_CAN_SMILES>
C1=CC(=CC=C1N)[As]=O

> <PUBCHEM_OPENEYE_ISO_SMILES>
C1=CC(=CC=C1N)[As]=O

> <PUBCHEM_CACTVS_TPSA>
43.1

> <PUBCHEM_MONOISOTOPIC_WEIGHT>
182.966535

> <PUBCHEM_TOTAL_CHARGE>
0

> <PUBCHEM_HEAVY_ATOM_COUNT>
9

> <PUBCHEM_ATOM_DEF_STEREO_COUNT>
0

> <PUBCHEM_ATOM_UDEF_STEREO_COUNT>
0

> <PUBCHEM_BOND_DEF_STEREO_COUNT>
0

> <PUBCHEM_BOND_UDEF_STEREO_COUNT>
0

> <PUBCHEM_ISOTOPIC_ATOM_COUNT>
0

> <PUBCHEM_COMPONENT_COUNT>
1

> <PUBCHEM_CACTVS_TAUTO_COUNT>
1

> <PUBCHEM_COORDINATE_TYPE>
1
5
255

> <PUBCHEM_BONDANNOTATIONS>
4  5  8
4  6  8
5  8  8
6  9  8
7  8  8
7  9  8

$$$$

