8760
  -OEChem-06261203042D

 24 22  0     0  0  0  0  0  0999 V2000
    6.5991    2.8100    0.0000 Na  0  3  0  0  0  0  0  0  0  0  0  0
    0.5369    3.3100    0.0000 O   0  0  0  0  0  0  0  0  0  0  0  0
    2.2690    0.3100    0.0000 O   0  0  0  0  0  0  0  0  0  0  0  0
    5.7331    3.3100    0.0000 O   0  5  0  0  0  0  0  0  0  0  0  0
    4.8671    1.8100    0.0000 O   0  0  0  0  0  0  0  0  0  0  0  0
    3.1350    2.8100    0.0000 N   0  0  0  0  0  0  0  0  0  0  0  0
    2.2690    3.3100    0.0000 C   0  0  0  0  0  0  0  0  0  0  0  0
    3.1350    1.8100    0.0000 C   0  0  0  0  0  0  0  0  0  0  0  0
    4.0010    3.3100    0.0000 C   0  0  0  0  0  0  0  0  0  0  0  0
    1.4030    2.8100    0.0000 C   0  0  0  0  0  0  0  0  0  0  0  0
    2.2690    1.3100    0.0000 C   0  0  0  0  0  0  0  0  0  0  0  0
    4.8671    2.8100    0.0000 C   0  0  0  0  0  0  0  0  0  0  0  0
    2.6675    3.7849    0.0000 H   0  0  0  0  0  0  0  0  0  0  0  0
    1.8705    3.7849    0.0000 H   0  0  0  0  0  0  0  0  0  0  0  0
    3.3471    1.2274    0.0000 H   0  0  0  0  0  0  0  0  0  0  0  0
    3.7456    1.9177    0.0000 H   0  0  0  0  0  0  0  0  0  0  0  0
    4.3996    3.7849    0.0000 H   0  0  0  0  0  0  0  0  0  0  0  0
    3.6025    3.7849    0.0000 H   0  0  0  0  0  0  0  0  0  0  0  0
    1.0044    2.3351    0.0000 H   0  0  0  0  0  0  0  0  0  0  0  0
    1.8015    2.3351    0.0000 H   0  0  0  0  0  0  0  0  0  0  0  0
    2.0569    1.8926    0.0000 H   0  0  0  0  0  0  0  0  0  0  0  0
    1.6584    1.2023    0.0000 H   0  0  0  0  0  0  0  0  0  0  0  0
    0.0000    3.0000    0.0000 H   0  0  0  0  0  0  0  0  0  0  0  0
    1.7321    0.0000    0.0000 H   0  0  0  0  0  0  0  0  0  0  0  0
  2 10  1  0  0  0  0
  2 23  1  0  0  0  0
  3 11  1  0  0  0  0
  3 24  1  0  0  0  0
  4 12  1  0  0  0  0
  5 12  2  0  0  0  0
  6  7  1  0  0  0  0
  6  8  1  0  0  0  0
  6  9  1  0  0  0  0
  7 10  1  0  0  0  0
  7 13  1  0  0  0  0
  7 14  1  0  0  0  0
  8 11  1  0  0  0  0
  8 15  1  0  0  0  0
  8 16  1  0  0  0  0
  9 12  1  0  0  0  0
  9 17  1  0  0  0  0
  9 18  1  0  0  0  0
 10 19  1  0  0  0  0
 10 20  1  0  0  0  0
 11 21  1  0  0  0  0
 11 22  1  0  0  0  0
M  CHG  2   1   1   4  -1
M  END
> <PUBCHEM_COMPOUND_CID>
8760

> <PUBCHEM_COMPOUND_CANONICALIZED>
1

> <PUBCHEM_CACTVS_COMPLEXITY>
106

> <PUBCHEM_CACTVS_HBOND_ACCEPTOR>
5

> <PUBCHEM_CACTVS_HBOND_DONOR>
2

> <PUBCHEM_CACTVS_ROTATABLE_BOND>
5

> <PUBCHEM_CACTVS_SUBSKEYS>
AAADccBiOCAAAAAAAAAAAAAAAAAAAAAAAAAAAAAAAAAAAAAAAAAAHgAACAAAAADhgAYACAMAAgAIAACQCAAAAAAAAAAAAACIAAACEAAAACAAAAAAAACQAAAAAAAAAAAAAAAAAAAAAAAAAAAAAAAAAAAAAA==

> <PUBCHEM_IUPAC_OPENEYE_NAME>
sodium 2-[bis(2-hydroxyethyl)amino]acetate

> <PUBCHEM_IUPAC_CAS_NAME>
sodium 2-[bis(2-hydroxyethyl)amino]acetate

> <PUBCHEM_IUPAC_NAME>
sodium 2-[bis(2-hydroxyethyl)amino]acetate

> <PUBCHEM_IUPAC_SYSTEMATIC_NAME>
sodium 2-[bis(2-hydroxyethyl)amino]ethanoate

> <PUBCHEM_IUPAC_TRADITIONAL_NAME>
sodium 2-[bis(2-hydroxyethyl)amino]acetate

> <PUBCHEM_IUPAC_INCHI>
InChI=1S/C6H13NO4.Na/c8-3-1-7(2-4-9)5-6(10)11;/h8-9H,1-5H2,(H,10,11);/q;+1/p-1

> <PUBCHEM_IUPAC_INCHIKEY>
MFBDBXAVPLFMNJ-UHFFFAOYSA-M

> <PUBCHEM_EXACT_MASS>
185.066402

> <PUBCHEM_MOLECULAR_FORMULA>
C6H12NNaO4

> <PUBCHEM_MOLECULAR_WEIGHT>
185.153549

> <PUBCHEM_OPENEYE_CAN_SMILES>
C(CO)N(CCO)CC(=O)[O-].[Na+]

> <PUBCHEM_OPENEYE_ISO_SMILES>
C(CO)N(CCO)CC(=O)[O-].[Na+]

> <PUBCHEM_CACTVS_TPSA>
83.8

> <PUBCHEM_MONOISOTOPIC_WEIGHT>
185.066402

> <PUBCHEM_TOTAL_CHARGE>
0

> <PUBCHEM_HEAVY_ATOM_COUNT>
12

> <PUBCHEM_ATOM_DEF_STEREO_COUNT>
0

> <PUBCHEM_ATOM_UDEF_STEREO_COUNT>
0

> <PUBCHEM_BOND_DEF_STEREO_COUNT>
0

> <PUBCHEM_BOND_UDEF_STEREO_COUNT>
0

> <PUBCHEM_ISOTOPIC_ATOM_COUNT>
0

> <PUBCHEM_COMPONENT_COUNT>
2

> <PUBCHEM_CACTVS_TAUTO_COUNT>
1

> <PUBCHEM_COORDINATE_TYPE>
1
5
255

$$$$

