17396623
  -OEChem-06241222572D

 38 40  0     1  0  0  0  0  0999 V2000
    4.6783    0.3988    0.0000 S   0  0  0  0  0  0  0  0  0  0  0  0
    6.7619    0.3375    0.0000 O   0  0  0  0  0  0  0  0  0  0  0  0
   11.3497   -2.2036    0.0000 O   0  0  0  0  0  0  0  0  0  0  0  0
    7.7619   -1.3945    0.0000 O   0  0  0  0  0  0  0  0  0  0  0  0
    6.7619    2.0696    0.0000 O   0  0  0  0  0  0  0  0  0  0  0  0
    9.2619   -0.5285    0.0000 N   0  0  0  0  0  0  0  0  0  0  0  0
    7.7619    0.3375    0.0000 C   0  0  3  0  0  0  0  0  0  0  0  0
    3.7320    1.7036    0.0000 C   0  0  0  0  0  0  0  0  0  0  0  0
    3.7320    0.7035    0.0000 C   0  0  0  0  0  0  0  0  0  0  0  0
    5.2619    1.2035    0.0000 C   0  0  0  0  0  0  0  0  0  0  0  0
    8.2619   -0.5285    0.0000 C   0  0  0  0  0  0  0  0  0  0  0  0
    9.7619   -1.3945    0.0000 C   0  0  0  0  0  0  0  0  0  0  0  0
    4.6783    2.0083    0.0000 C   0  0  0  0  0  0  0  0  0  0  0  0
    8.2619    1.2035    0.0000 C   0  0  0  0  0  0  0  0  0  0  0  0
    6.2619    1.2035    0.0000 C   0  0  0  0  0  0  0  0  0  0  0  0
   10.7619   -1.3945    0.0000 C   0  0  0  0  0  0  0  0  0  0  0  0
    2.8660    2.2036    0.0000 C   0  0  0  0  0  0  0  0  0  0  0  0
    2.8660    0.2035    0.0000 C   0  0  0  0  0  0  0  0  0  0  0  0
    2.0000    1.7036    0.0000 C   0  0  0  0  0  0  0  0  0  0  0  0
    2.0000    0.7035    0.0000 C   0  0  0  0  0  0  0  0  0  0  0  0
   11.3497   -0.5855    0.0000 C   0  0  0  0  0  0  0  0  0  0  0  0
   12.3007   -0.8945    0.0000 C   0  0  0  0  0  0  0  0  0  0  0  0
   12.3007   -1.8945    0.0000 C   0  0  0  0  0  0  0  0  0  0  0  0
    7.4519   -0.1994    0.0000 H   0  0  0  0  0  0  0  0  0  0  0  0
    9.1793   -1.6066    0.0000 H   0  0  0  0  0  0  0  0  0  0  0  0
    9.8695   -2.0051    0.0000 H   0  0  0  0  0  0  0  0  0  0  0  0
    4.8709    2.5976    0.0000 H   0  0  0  0  0  0  0  0  0  0  0  0
    9.5719    0.0084    0.0000 H   0  0  0  0  0  0  0  0  0  0  0  0
    8.7988    0.8935    0.0000 H   0  0  0  0  0  0  0  0  0  0  0  0
    8.5719    1.7405    0.0000 H   0  0  0  0  0  0  0  0  0  0  0  0
    7.7249    1.5136    0.0000 H   0  0  0  0  0  0  0  0  0  0  0  0
    2.8660    2.8236    0.0000 H   0  0  0  0  0  0  0  0  0  0  0  0
    2.8660   -0.4165    0.0000 H   0  0  0  0  0  0  0  0  0  0  0  0
    1.4631    2.0136    0.0000 H   0  0  0  0  0  0  0  0  0  0  0  0
    1.4631    0.3935    0.0000 H   0  0  0  0  0  0  0  0  0  0  0  0
   11.1581    0.0041    0.0000 H   0  0  0  0  0  0  0  0  0  0  0  0
   12.8023   -0.5301    0.0000 H   0  0  0  0  0  0  0  0  0  0  0  0
   12.8023   -2.2590    0.0000 H   0  0  0  0  0  0  0  0  0  0  0  0
  1  9  1  0  0  0  0
  1 10  1  0  0  0  0
  2  7  1  0  0  0  0
  2 15  1  0  0  0  0
  3 16  1  0  0  0  0
  3 23  1  0  0  0  0
  4 11  2  0  0  0  0
  5 15  2  0  0  0  0
  6 11  1  0  0  0  0
  6 12  1  0  0  0  0
  6 28  1  0  0  0  0
  7 11  1  0  0  0  0
  7 14  1  0  0  0  0
  7 24  1  0  0  0  0
  8  9  1  0  0  0  0
  8 13  1  0  0  0  0
  8 17  2  0  0  0  0
  9 18  2  0  0  0  0
 10 13  2  0  0  0  0
 10 15  1  0  0  0  0
 12 16  1  0  0  0  0
 12 25  1  0  0  0  0
 12 26  1  0  0  0  0
 13 27  1  0  0  0  0
 14 29  1  0  0  0  0
 14 30  1  0  0  0  0
 14 31  1  0  0  0  0
 16 21  2  0  0  0  0
 17 19  1  0  0  0  0
 17 32  1  0  0  0  0
 18 20  1  0  0  0  0
 18 33  1  0  0  0  0
 19 20  2  0  0  0  0
 19 34  1  0  0  0  0
 20 35  1  0  0  0  0
 21 22  1  0  0  0  0
 21 36  1  0  0  0  0
 22 23  2  0  0  0  0
 22 37  1  0  0  0  0
 23 38  1  0  0  0  0
M  END
> <PUBCHEM_COMPOUND_CID>
17396623

> <PUBCHEM_COMPOUND_CANONICALIZED>
1

> <PUBCHEM_CACTVS_COMPLEXITY>
444

> <PUBCHEM_CACTVS_HBOND_ACCEPTOR>
5

> <PUBCHEM_CACTVS_HBOND_DONOR>
1

> <PUBCHEM_CACTVS_ROTATABLE_BOND>
6

> <PUBCHEM_CACTVS_SUBSKEYS>
AAADccB6OABAAAAAAAAAAAAAAAAAASJAAAAwAAAAAAAAAEgB/AAAHgQQAAAADBTh2AYyDcLABEiMAqnSmAKDCIAkKBBIiJnODMgOJjKktT+HOSjk1hG4qYeY2aKOAAAAAAAEAAAAAAAAAAgAAAAAAAAAAA==

> <PUBCHEM_IUPAC_OPENEYE_NAME>
[2-(2-furylmethylamino)-1-methyl-2-oxo-ethyl] benzothiophene-2-carboxylate

> <PUBCHEM_IUPAC_CAS_NAME>
1-benzothiophene-2-carboxylic acid [1-(2-furanylmethylamino)-1-oxopropan-2-yl] ester

> <PUBCHEM_IUPAC_NAME>
[1-(furan-2-ylmethylamino)-1-oxopropan-2-yl] 1-benzothiophene-2-carboxylate

> <PUBCHEM_IUPAC_SYSTEMATIC_NAME>
[1-(furan-2-ylmethylamino)-1-oxidanylidene-propan-2-yl] 1-benzothiophene-2-carboxylate

> <PUBCHEM_IUPAC_TRADITIONAL_NAME>
benzothiophene-2-carboxylic acid [2-(2-furfurylamino)-2-keto-1-methyl-ethyl] ester

> <PUBCHEM_IUPAC_INCHI>
InChI=1S/C17H15NO4S/c1-11(16(19)18-10-13-6-4-8-21-13)22-17(20)15-9-12-5-2-3-7-14(12)23-15/h2-9,11H,10H2,1H3,(H,18,19)

> <PUBCHEM_IUPAC_INCHIKEY>
BFHRETTVGCEHDF-UHFFFAOYSA-N

> <PUBCHEM_XLOGP3_AA>
3.5

> <PUBCHEM_EXACT_MASS>
329.072179

> <PUBCHEM_MOLECULAR_FORMULA>
C17H15NO4S

> <PUBCHEM_MOLECULAR_WEIGHT>
329.3703

> <PUBCHEM_OPENEYE_CAN_SMILES>
CC(C(=O)NCC1=CC=CO1)OC(=O)C2=CC3=CC=CC=C3S2

> <PUBCHEM_OPENEYE_ISO_SMILES>
CC(C(=O)NCC1=CC=CO1)OC(=O)C2=CC3=CC=CC=C3S2

> <PUBCHEM_CACTVS_TPSA>
96.8

> <PUBCHEM_MONOISOTOPIC_WEIGHT>
329.072179

> <PUBCHEM_TOTAL_CHARGE>
0

> <PUBCHEM_HEAVY_ATOM_COUNT>
23

> <PUBCHEM_ATOM_DEF_STEREO_COUNT>
0

> <PUBCHEM_ATOM_UDEF_STEREO_COUNT>
1

> <PUBCHEM_BOND_DEF_STEREO_COUNT>
0

> <PUBCHEM_BOND_UDEF_STEREO_COUNT>
0

> <PUBCHEM_ISOTOPIC_ATOM_COUNT>
0

> <PUBCHEM_COMPONENT_COUNT>
1

> <PUBCHEM_CACTVS_TAUTO_COUNT>
2

> <PUBCHEM_COORDINATE_TYPE>
1
5
255

> <PUBCHEM_BONDANNOTATIONS>
1  10  8
1  9  8
10  13  8
16  21  8
17  19  8
18  20  8
19  20  8
21  22  8
22  23  8
3  16  8
3  23  8
7  14  3
8  13  8
8  17  8
8  9  8
9  18  8

$$$$

