13912
  -OEChem-06241222402D

 31 31  0     0  0  0  0  0  0999 V2000
    5.5640    3.9307    0.0000 Cl  0  5  0  0  0  0  0  0  0  0  0  0
    2.9700    4.2078    0.0000 O   0  0  0  0  0  0  0  0  0  0  0  0
    1.4799    6.8814    0.0000 N   0  3  0  0  0  0  0  0  0  0  0  0
    2.6610    5.1588    0.0000 N   0  0  0  0  0  0  0  0  0  0  0  0
    1.0732    5.9679    0.0000 C   0  0  0  0  0  0  0  0  0  0  0  0
    1.6610    5.1588    0.0000 C   0  0  0  0  0  0  0  0  0  0  0  0
    1.8867    7.7950    0.0000 C   0  0  0  0  0  0  0  0  0  0  0  0
    0.5664    7.2881    0.0000 C   0  0  0  0  0  0  0  0  0  0  0  0
    1.3520    4.2078    0.0000 C   0  0  0  0  0  0  0  0  0  0  0  0
    2.1610    3.6200    0.0000 C   0  0  0  0  0  0  0  0  0  0  0  0
    2.1610    2.6200    0.0000 C   0  0  0  0  0  0  0  0  0  0  0  0
    1.2950    2.1200    0.0000 C   0  0  0  0  0  0  0  0  0  0  0  0
    3.0270    2.1200    0.0000 C   0  0  0  0  0  0  0  0  0  0  0  0
    1.2950    1.1200    0.0000 C   0  0  0  0  0  0  0  0  0  0  0  0
    3.0270    1.1200    0.0000 C   0  0  0  0  0  0  0  0  0  0  0  0
    2.1610    0.6200    0.0000 C   0  0  0  0  0  0  0  0  0  0  0  0
    2.0463    6.6292    0.0000 H   0  0  0  0  0  0  0  0  0  0  0  0
    0.5592    6.3146    0.0000 H   0  0  0  0  0  0  0  0  0  0  0  0
    0.6425    5.5219    0.0000 H   0  0  0  0  0  0  0  0  0  0  0  0
    0.8186    7.8545    0.0000 H   0  0  0  0  0  0  0  0  0  0  0  0
    0.0000    7.5403    0.0000 H   0  0  0  0  0  0  0  0  0  0  0  0
    2.4531    7.5428    0.0000 H   0  0  0  0  0  0  0  0  0  0  0  0
    2.1389    8.3614    0.0000 H   0  0  0  0  0  0  0  0  0  0  0  0
    1.3203    8.0471    0.0000 H   0  0  0  0  0  0  0  0  0  0  0  0
    0.3142    6.7217    0.0000 H   0  0  0  0  0  0  0  0  0  0  0  0
    0.7623    4.0162    0.0000 H   0  0  0  0  0  0  0  0  0  0  0  0
    0.7580    2.4300    0.0000 H   0  0  0  0  0  0  0  0  0  0  0  0
    3.5640    2.4300    0.0000 H   0  0  0  0  0  0  0  0  0  0  0  0
    0.7580    0.8100    0.0000 H   0  0  0  0  0  0  0  0  0  0  0  0
    3.5640    0.8100    0.0000 H   0  0  0  0  0  0  0  0  0  0  0  0
    2.1610    0.0000    0.0000 H   0  0  0  0  0  0  0  0  0  0  0  0
  2  4  1  0  0  0  0
  2 10  1  0  0  0  0
  3  5  1  0  0  0  0
  3  7  1  0  0  0  0
  3  8  1  0  0  0  0
  3 17  1  0  0  0  0
  4  6  2  0  0  0  0
  5  6  1  0  0  0  0
  5 18  1  0  0  0  0
  5 19  1  0  0  0  0
  6  9  1  0  0  0  0
  7 22  1  0  0  0  0
  7 23  1  0  0  0  0
  7 24  1  0  0  0  0
  8 20  1  0  0  0  0
  8 21  1  0  0  0  0
  8 25  1  0  0  0  0
  9 10  2  0  0  0  0
  9 26  1  0  0  0  0
 10 11  1  0  0  0  0
 11 12  2  0  0  0  0
 11 13  1  0  0  0  0
 12 14  1  0  0  0  0
 12 27  1  0  0  0  0
 13 15  2  0  0  0  0
 13 28  1  0  0  0  0
 14 16  2  0  0  0  0
 14 29  1  0  0  0  0
 15 16  1  0  0  0  0
 15 30  1  0  0  0  0
 16 31  1  0  0  0  0
M  CHG  2   1  -1   3   1
M  END
> <PUBCHEM_COMPOUND_CID>
13912

> <PUBCHEM_COMPOUND_CANONICALIZED>
1

> <PUBCHEM_CACTVS_COMPLEXITY>
190

> <PUBCHEM_CACTVS_HBOND_ACCEPTOR>
3

> <PUBCHEM_CACTVS_HBOND_DONOR>
1

> <PUBCHEM_CACTVS_ROTATABLE_BOND>
3

> <PUBCHEM_CACTVS_SUBSKEYS>
AAADccBzIAAEAAAAAAAAAAAAAAAAAWAAAAAwAAAAAAAAAAABwAAAHgAUAAAADAzBngQyhJPQAACpA6RyQgCCAAAkIgAomKE+bNoIZjqAlZOUMYhmwBkIyce8yKCOAAAAAAAAAAAAAAAAAAAAAAAAAAAAAA==

> <PUBCHEM_IUPAC_OPENEYE_NAME>
dimethyl-[(5-phenylisoxazol-3-yl)methyl]ammonium chloride

> <PUBCHEM_IUPAC_CAS_NAME>
dimethyl-[(5-phenyl-3-isoxazolyl)methyl]ammonium chloride

> <PUBCHEM_IUPAC_NAME>
dimethyl-[(5-phenyl-1,2-oxazol-3-yl)methyl]azanium chloride

> <PUBCHEM_IUPAC_SYSTEMATIC_NAME>
dimethyl-[(5-phenyl-1,2-oxazol-3-yl)methyl]azanium chloride

> <PUBCHEM_IUPAC_TRADITIONAL_NAME>
dimethyl-[(5-phenylisoxazol-3-yl)methyl]ammonium chloride

> <PUBCHEM_IUPAC_INCHI>
InChI=1S/C12H14N2O.ClH/c1-14(2)9-11-8-12(15-13-11)10-6-4-3-5-7-10;/h3-8H,9H2,1-2H3;1H

> <PUBCHEM_IUPAC_INCHIKEY>
ZJKJDXVDNMBETH-UHFFFAOYSA-N

> <PUBCHEM_EXACT_MASS>
238.087291

> <PUBCHEM_MOLECULAR_FORMULA>
C12H15ClN2O

> <PUBCHEM_MOLECULAR_WEIGHT>
238.7133

> <PUBCHEM_OPENEYE_CAN_SMILES>
C[NH+](C)CC1=NOC(=C1)C2=CC=CC=C2.[Cl-]

> <PUBCHEM_OPENEYE_ISO_SMILES>
C[NH+](C)CC1=NOC(=C1)C2=CC=CC=C2.[Cl-]

> <PUBCHEM_CACTVS_TPSA>
30.5

> <PUBCHEM_MONOISOTOPIC_WEIGHT>
238.087291

> <PUBCHEM_TOTAL_CHARGE>
0

> <PUBCHEM_HEAVY_ATOM_COUNT>
16

> <PUBCHEM_ATOM_DEF_STEREO_COUNT>
0

> <PUBCHEM_ATOM_UDEF_STEREO_COUNT>
0

> <PUBCHEM_BOND_DEF_STEREO_COUNT>
0

> <PUBCHEM_BOND_UDEF_STEREO_COUNT>
0

> <PUBCHEM_ISOTOPIC_ATOM_COUNT>
0

> <PUBCHEM_COMPONENT_COUNT>
2

> <PUBCHEM_CACTVS_TAUTO_COUNT>
1

> <PUBCHEM_COORDINATE_TYPE>
1
5
255

> <PUBCHEM_BONDANNOTATIONS>
11  12  8
11  13  8
12  14  8
13  15  8
14  16  8
15  16  8
2  10  8
2  4  8
4  6  8
6  9  8
9  10  8

$$$$

