8726
  -OEChem-06261203022D

 10  9  0     0  0  0  0  0  0999 V2000
    2.5369    0.9050    0.0000 S   0  0  0  0  0  0  0  0  0  0  0  0
    3.4030   -0.5950    0.0000 S   0  0  0  0  0  0  0  0  0  0  0  0
    4.2690    0.9050    0.0000 N   0  0  0  0  0  0  0  0  0  0  0  0
    5.1350    0.4050    0.0000 C   0  0  0  0  0  0  0  0  0  0  0  0
    3.4030    0.4050    0.0000 C   0  0  0  0  0  0  0  0  0  0  0  0
    4.8250   -0.1319    0.0000 H   0  0  0  0  0  0  0  0  0  0  0  0
    5.6719    0.0950    0.0000 H   0  0  0  0  0  0  0  0  0  0  0  0
    5.4450    0.9419    0.0000 H   0  0  0  0  0  0  0  0  0  0  0  0
    2.0000    0.5950    0.0000 H   0  0  0  0  0  0  0  0  0  0  0  0
    2.8660   -0.9050    0.0000 H   0  0  0  0  0  0  0  0  0  0  0  0
  1  5  1  0  0  0  0
  1  9  1  0  0  0  0
  2  5  1  0  0  0  0
  2 10  1  0  0  0  0
  3  4  1  0  0  0  0
  3  5  2  0  0  0  0
  4  6  1  0  0  0  0
  4  7  1  0  0  0  0
  4  8  1  0  0  0  0
M  END
> <PUBCHEM_COMPOUND_CID>
8726

> <PUBCHEM_COMPOUND_CANONICALIZED>
1

> <PUBCHEM_CACTVS_COMPLEXITY>
45.6

> <PUBCHEM_CACTVS_HBOND_ACCEPTOR>
3

> <PUBCHEM_CACTVS_HBOND_DONOR>
2

> <PUBCHEM_CACTVS_ROTATABLE_BOND>
0

> <PUBCHEM_CACTVS_SUBSKEYS>
AAADcYBCAABgAAAAAAAAAAAAAAAAAAAAAAAAAAAAAAAAAAAAAAAAFAQAAAAAAAAAAAQCAAIAAAQgAAAABAAAEAAAAAAAAAAAAAAAAAAAAAAAAAAAAAAAAAAAAAAAAAAAAAAAAAAAAAAAAAAAAAAAAAAAAA==

> <PUBCHEM_IUPAC_OPENEYE_NAME>
methyliminomethanedithiol

> <PUBCHEM_IUPAC_CAS_NAME>
methyliminomethanedithiol

> <PUBCHEM_IUPAC_NAME>
methyliminomethanedithiol

> <PUBCHEM_IUPAC_SYSTEMATIC_NAME>
methyliminomethanedithiol

> <PUBCHEM_IUPAC_TRADITIONAL_NAME>
methyliminomethanedithiol

> <PUBCHEM_IUPAC_INCHI>
InChI=1S/C2H5NS2/c1-3-2(4)5/h1H3,(H2,3,4,5)

> <PUBCHEM_IUPAC_INCHIKEY>
HYVVJDQGXFXBRZ-UHFFFAOYSA-N

> <PUBCHEM_XLOGP3_AA>
1.1

> <PUBCHEM_EXACT_MASS>
106.986341

> <PUBCHEM_MOLECULAR_FORMULA>
C2H5NS2

> <PUBCHEM_MOLECULAR_WEIGHT>
107.1978

> <PUBCHEM_OPENEYE_CAN_SMILES>
CN=C(S)S

> <PUBCHEM_OPENEYE_ISO_SMILES>
CN=C(S)S

> <PUBCHEM_CACTVS_TPSA>
14.4

> <PUBCHEM_MONOISOTOPIC_WEIGHT>
106.986341

> <PUBCHEM_TOTAL_CHARGE>
0

> <PUBCHEM_HEAVY_ATOM_COUNT>
5

> <PUBCHEM_ATOM_DEF_STEREO_COUNT>
0

> <PUBCHEM_ATOM_UDEF_STEREO_COUNT>
0

> <PUBCHEM_BOND_DEF_STEREO_COUNT>
0

> <PUBCHEM_BOND_UDEF_STEREO_COUNT>
0

> <PUBCHEM_ISOTOPIC_ATOM_COUNT>
0

> <PUBCHEM_COMPONENT_COUNT>
1

> <PUBCHEM_CACTVS_TAUTO_COUNT>
2

> <PUBCHEM_COORDINATE_TYPE>
1
5
255

$$$$

