4708
  -OEChem-06261200182D

 36 38  0     0  0  0  0  0  0999 V2000
    9.7758   -3.0445    0.0000 Br  0  0  0  0  0  0  0  0  0  0  0  0
    3.7320    2.5099    0.0000 O   0  0  0  0  0  0  0  0  0  0  0  0
    8.0785   -0.0247    0.0000 N   0  0  0  0  0  0  0  0  0  0  0  0
    8.0901    3.0445    0.0000 N   0  0  0  0  0  0  0  0  0  0  0  0
    8.9962    1.4891    0.0000 N   0  0  0  0  0  0  0  0  0  0  0  0
    4.5981    1.0099    0.0000 N   0  0  0  0  0  0  0  0  0  0  0  0
    7.1962    1.5099    0.0000 C   0  0  0  0  0  0  0  0  0  0  0  0
    7.1962    2.5099    0.0000 C   0  0  0  0  0  0  0  0  0  0  0  0
    8.0901    0.9752    0.0000 C   0  0  0  0  0  0  0  0  0  0  0  0
    6.3301    1.0099    0.0000 C   0  0  0  0  0  0  0  0  0  0  0  0
    5.4641    1.5099    0.0000 C   0  0  0  0  0  0  0  0  0  0  0  0
    6.3301    3.0099    0.0000 C   0  0  0  0  0  0  0  0  0  0  0  0
    5.4641    2.5099    0.0000 C   0  0  0  0  0  0  0  0  0  0  0  0
    8.9387   -0.5347    0.0000 C   0  0  0  0  0  0  0  0  0  0  0  0
    8.9271   -1.5346    0.0000 C   0  0  0  0  0  0  0  0  0  0  0  0
    9.8105   -0.0447    0.0000 C   0  0  0  0  0  0  0  0  0  0  0  0
    8.9962    2.5307    0.0000 C   0  0  0  0  0  0  0  0  0  0  0  0
    9.7873   -2.0446    0.0000 C   0  0  0  0  0  0  0  0  0  0  0  0
   10.6707   -0.5547    0.0000 C   0  0  0  0  0  0  0  0  0  0  0  0
   10.6591   -1.5547    0.0000 C   0  0  0  0  0  0  0  0  0  0  0  0
    3.7320    1.5099    0.0000 C   0  0  0  0  0  0  0  0  0  0  0  0
    2.8660    1.0099    0.0000 C   0  0  0  0  0  0  0  0  0  0  0  0
    2.0000    1.5099    0.0000 C   0  0  0  0  0  0  0  0  0  0  0  0
    6.3301    0.3899    0.0000 H   0  0  0  0  0  0  0  0  0  0  0  0
    6.3301    3.6299    0.0000 H   0  0  0  0  0  0  0  0  0  0  0  0
    7.5380   -0.3285    0.0000 H   0  0  0  0  0  0  0  0  0  0  0  0
    4.9272    2.8199    0.0000 H   0  0  0  0  0  0  0  0  0  0  0  0
    4.5981    0.3899    0.0000 H   0  0  0  0  0  0  0  0  0  0  0  0
    8.3867   -1.8384    0.0000 H   0  0  0  0  0  0  0  0  0  0  0  0
    9.8176    0.5752    0.0000 H   0  0  0  0  0  0  0  0  0  0  0  0
    9.5319    2.8428    0.0000 H   0  0  0  0  0  0  0  0  0  0  0  0
   11.2111   -0.2510    0.0000 H   0  0  0  0  0  0  0  0  0  0  0  0
   11.1924   -1.8708    0.0000 H   0  0  0  0  0  0  0  0  0  0  0  0
    2.8660    0.3899    0.0000 H   0  0  0  0  0  0  0  0  0  0  0  0
    2.0000    2.1299    0.0000 H   0  0  0  0  0  0  0  0  0  0  0  0
    1.4631    1.1999    0.0000 H   0  0  0  0  0  0  0  0  0  0  0  0
  1 18  1  0  0  0  0
  2 21  2  0  0  0  0
  3  9  1  0  0  0  0
  3 14  1  0  0  0  0
  3 26  1  0  0  0  0
  4  8  1  0  0  0  0
  4 17  2  0  0  0  0
  5  9  2  0  0  0  0
  5 17  1  0  0  0  0
  6 11  1  0  0  0  0
  6 21  1  0  0  0  0
  6 28  1  0  0  0  0
  7  8  2  0  0  0  0
  7  9  1  0  0  0  0
  7 10  1  0  0  0  0
  8 12  1  0  0  0  0
 10 11  2  0  0  0  0
 10 24  1  0  0  0  0
 11 13  1  0  0  0  0
 12 13  2  0  0  0  0
 12 25  1  0  0  0  0
 13 27  1  0  0  0  0
 14 15  2  0  0  0  0
 14 16  1  0  0  0  0
 15 18  1  0  0  0  0
 15 29  1  0  0  0  0
 16 19  2  0  0  0  0
 16 30  1  0  0  0  0
 17 31  1  0  0  0  0
 18 20  2  0  0  0  0
 19 20  1  0  0  0  0
 19 32  1  0  0  0  0
 20 33  1  0  0  0  0
 21 22  1  0  0  0  0
 22 23  2  0  0  0  0
 22 34  1  0  0  0  0
 23 35  1  0  0  0  0
 23 36  1  0  0  0  0
M  END
> <PUBCHEM_COMPOUND_CID>
4708

> <PUBCHEM_COMPOUND_CANONICALIZED>
1

> <PUBCHEM_CACTVS_COMPLEXITY>
433

> <PUBCHEM_CACTVS_HBOND_ACCEPTOR>
4

> <PUBCHEM_CACTVS_HBOND_DONOR>
2

> <PUBCHEM_CACTVS_ROTATABLE_BOND>
4

> <PUBCHEM_CACTVS_SUBSKEYS>
AAADccB7oAAAEAAAAAAAAAAAAAAAAAAAAAA8YIAAAAAAAACx9AAAHgBQAAABrAiBngQ18PbIEACoAydzdACCgCkxAqQJ2CA4ZPiIKOLA2dGEJAholALIyrcQgAAOAACAQAECAAAAAQCAAgQAAAAAAAAAAA==

> <PUBCHEM_IUPAC_OPENEYE_NAME>
N-[4-(3-bromoanilino)quinazolin-6-yl]prop-2-enamide

> <PUBCHEM_IUPAC_CAS_NAME>
N-[4-(3-bromoanilino)-6-quinazolinyl]-2-propenamide

> <PUBCHEM_IUPAC_NAME>
N-[4-(3-bromoanilino)quinazolin-6-yl]prop-2-enamide

> <PUBCHEM_IUPAC_SYSTEMATIC_NAME>
N-[4-[(3-bromophenyl)amino]quinazolin-6-yl]prop-2-enamide

> <PUBCHEM_IUPAC_TRADITIONAL_NAME>
N-[4-(3-bromoanilino)quinazolin-6-yl]acrylamide

> <PUBCHEM_IUPAC_INCHI>
InChI=1S/C17H13BrN4O/c1-2-16(23)21-13-6-7-15-14(9-13)17(20-10-19-15)22-12-5-3-4-11(18)8-12/h2-10H,1H2,(H,21,23)(H,19,20,22)

> <PUBCHEM_IUPAC_INCHIKEY>
HTUBKQUPEREOGA-UHFFFAOYSA-N

> <PUBCHEM_XLOGP3_AA>
3.9

> <PUBCHEM_EXACT_MASS>
368.027273

> <PUBCHEM_MOLECULAR_FORMULA>
C17H13BrN4O

> <PUBCHEM_MOLECULAR_WEIGHT>
369.21532

> <PUBCHEM_OPENEYE_CAN_SMILES>
C=CC(=O)NC1=CC2=C(C=C1)N=CN=C2NC3=CC(=CC=C3)Br

> <PUBCHEM_OPENEYE_ISO_SMILES>
C=CC(=O)NC1=CC2=C(C=C1)N=CN=C2NC3=CC(=CC=C3)Br

> <PUBCHEM_CACTVS_TPSA>
66.9

> <PUBCHEM_MONOISOTOPIC_WEIGHT>
368.027273

> <PUBCHEM_TOTAL_CHARGE>
0

> <PUBCHEM_HEAVY_ATOM_COUNT>
23

> <PUBCHEM_ATOM_DEF_STEREO_COUNT>
0

> <PUBCHEM_ATOM_UDEF_STEREO_COUNT>
0

> <PUBCHEM_BOND_DEF_STEREO_COUNT>
0

> <PUBCHEM_BOND_UDEF_STEREO_COUNT>
0

> <PUBCHEM_ISOTOPIC_ATOM_COUNT>
0

> <PUBCHEM_COMPONENT_COUNT>
1

> <PUBCHEM_CACTVS_TAUTO_COUNT>
6

> <PUBCHEM_COORDINATE_TYPE>
1
5
255

> <PUBCHEM_BONDANNOTATIONS>
10  11  8
11  13  8
12  13  8
14  15  8
14  16  8
15  18  8
16  19  8
18  20  8
19  20  8
4  17  8
4  8  8
5  17  8
5  9  8
7  10  8
7  8  8
7  9  8
8  12  8

$$$$

