3835
  -OEChem-06251223432D

122124  0     1  0  0  0  0  0999 V2000
   11.5263    1.7500    0.0000 O   0  0  0  0  0  0  0  0  0  0  0  0
    8.9282    2.2500    0.0000 O   0  0  0  0  0  0  0  0  0  0  0  0
    8.0622    3.7500    0.0000 O   0  0  0  0  0  0  0  0  0  0  0  0
   10.6603    0.2500    0.0000 O   0  0  0  0  0  0  0  0  0  0  0  0
    9.7942    4.7500    0.0000 O   0  0  0  0  0  0  0  0  0  0  0  0
   12.8923   -1.6160    0.0000 O   0  0  0  0  0  0  0  0  0  0  0  0
   11.5263   -2.2500    0.0000 O   0  0  0  0  0  0  0  0  0  0  0  0
    6.3301    4.7500    0.0000 O   0  0  0  0  0  0  0  0  0  0  0  0
    4.5981    2.7499    0.0000 O   0  0  0  0  0  0  0  0  0  0  0  0
    5.1084   -0.2726    0.0000 O   0  0  0  0  0  0  0  0  0  0  0  0
    7.7730    0.3350    0.0000 O   0  0  0  0  0  0  0  0  0  0  0  0
    3.7320    5.2500    0.0000 O   0  0  0  0  0  0  0  0  0  0  0  0
    9.7942   -2.2500    0.0000 O   0  0  0  0  0  0  0  0  0  0  0  0
    5.4641    5.2500    0.0000 O   0  0  0  0  0  0  0  0  0  0  0  0
   11.5263    3.7500    0.0000 N   0  0  0  0  0  0  0  0  0  0  0  0
   10.6603    3.2500    0.0000 C   0  0  3  0  0  0  0  0  0  0  0  0
   10.6603    2.2500    0.0000 C   0  0  3  0  0  0  0  0  0  0  0  0
    9.7942    3.7500    0.0000 C   0  0  3  0  0  0  0  0  0  0  0  0
    9.7942    1.7500    0.0000 C   0  0  3  0  0  0  0  0  0  0  0  0
    8.9282    3.2500    0.0000 C   0  0  3  0  0  0  0  0  0  0  0  0
    7.1962    3.2500    0.0000 C   0  0  3  0  0  0  0  0  0  0  0  0
   12.3923   -0.7500    0.0000 C   0  0  3  0  0  0  0  0  0  0  0  0
   11.5263    0.7500    0.0000 C   0  0  3  0  0  0  0  0  0  0  0  0
    7.1962    2.2500    0.0000 C   0  0  3  0  0  0  0  0  0  0  0  0
   12.3923    0.2500    0.0000 C   0  0  0  0  0  0  0  0  0  0  0  0
   11.5263   -1.2500    0.0000 C   0  0  3  0  0  0  0  0  0  0  0  0
   10.6603   -0.7500    0.0000 C   0  0  3  0  0  0  0  0  0  0  0  0
    6.3301    3.7500    0.0000 C   0  0  3  0  0  0  0  0  0  0  0  0
    6.5567    1.4004    0.0000 C   0  0  0  0  0  0  0  0  0  0  0  0
    9.7942    0.7500    0.0000 C   0  0  0  0  0  0  0  0  0  0  0  0
    5.5567    1.4004    0.0000 C   0  0  3  0  0  0  0  0  0  0  0  0
    8.1696    2.0210    0.0000 C   0  0  0  0  0  0  0  0  0  0  0  0
   13.3923   -0.7500    0.0000 C   0  0  0  0  0  0  0  0  0  0  0  0
    5.4641    3.2500    0.0000 C   0  0  3  0  0  0  0  0  0  0  0  0
   12.3923    3.2500    0.0000 C   0  0  0  0  0  0  0  0  0  0  0  0
   11.5263    4.7500    0.0000 C   0  0  0  0  0  0  0  0  0  0  0  0
    9.7942   -1.2500    0.0000 C   0  0  0  0  0  0  0  0  0  0  0  0
    4.8496    0.6933    0.0000 C   0  0  3  0  0  0  0  0  0  0  0  0
    4.5981    3.7500    0.0000 C   0  0  0  0  0  0  0  0  0  0  0  0
    4.5652    1.5309    0.0000 C   0  0  0  0  0  0  0  0  0  0  0  0
    8.4580    1.0635    0.0000 C   0  0  0  0  0  0  0  0  0  0  0  0
   10.6603   -2.7500    0.0000 C   0  0  0  0  0  0  0  0  0  0  0  0
    3.8837    0.9521    0.0000 C   0  0  0  0  0  0  0  0  0  0  0  0
    7.1962    5.2500    0.0000 C   0  0  0  0  0  0  0  0  0  0  0  0
    4.5981    4.7500    0.0000 C   0  0  0  0  0  0  0  0  0  0  0  0
   10.6603   -3.7500    0.0000 C   0  0  0  0  0  0  0  0  0  0  0  0
    9.7942   -4.2500    0.0000 C   0  0  0  0  0  0  0  0  0  0  0  0
    3.3837    1.8182    0.0000 C   0  0  0  0  0  0  0  0  0  0  0  0
    2.8660    4.7500    0.0000 C   0  0  3  0  0  0  0  0  0  0  0  0
    9.7942   -5.2500    0.0000 C   0  0  0  0  0  0  0  0  0  0  0  0
    8.9282   -3.7500    0.0000 C   0  0  0  0  0  0  0  0  0  0  0  0
    2.4177    2.0770    0.0000 C   0  0  0  0  0  0  0  0  0  0  0  0
    2.8660    3.7500    0.0000 C   0  0  0  0  0  0  0  0  0  0  0  0
    2.1589    3.0429    0.0000 C   0  0  0  0  0  0  0  0  0  0  0  0
    2.0000    5.2500    0.0000 C   0  0  0  0  0  0  0  0  0  0  0  0
   11.3964    2.8250    0.0000 H   0  0  0  0  0  0  0  0  0  0  0  0
   11.3964    2.6750    0.0000 H   0  0  0  0  0  0  0  0  0  0  0  0
    9.0581    4.1750    0.0000 H   0  0  0  0  0  0  0  0  0  0  0  0
    9.0581    1.3250    0.0000 H   0  0  0  0  0  0  0  0  0  0  0  0
    8.9282    4.1000    0.0000 H   0  0  0  0  0  0  0  0  0  0  0  0
    7.9323    2.8250    0.0000 H   0  0  0  0  0  0  0  0  0  0  0  0
   12.2624    1.1750    0.0000 H   0  0  0  0  0  0  0  0  0  0  0  0
    7.4854    1.4508    0.0000 H   0  0  0  0  0  0  0  0  0  0  0  0
   13.0029    0.1423    0.0000 H   0  0  0  0  0  0  0  0  0  0  0  0
   12.6044    0.8326    0.0000 H   0  0  0  0  0  0  0  0  0  0  0  0
   12.2624   -1.6750    0.0000 H   0  0  0  0  0  0  0  0  0  0  0  0
    9.9241   -0.3250    0.0000 H   0  0  0  0  0  0  0  0  0  0  0  0
    7.0662    4.1750    0.0000 H   0  0  0  0  0  0  0  0  0  0  0  0
    6.4244    0.7947    0.0000 H   0  0  0  0  0  0  0  0  0  0  0  0
    7.1202    1.1419    0.0000 H   0  0  0  0  0  0  0  0  0  0  0  0
    9.1742    0.7500    0.0000 H   0  0  0  0  0  0  0  0  0  0  0  0
    9.7942    0.1300    0.0000 H   0  0  0  0  0  0  0  0  0  0  0  0
   10.4142    0.7500    0.0000 H   0  0  0  0  0  0  0  0  0  0  0  0
    5.6123    2.2486    0.0000 H   0  0  0  0  0  0  0  0  0  0  0  0
    8.7853    2.0941    0.0000 H   0  0  0  0  0  0  0  0  0  0  0  0
    8.2046    2.6400    0.0000 H   0  0  0  0  0  0  0  0  0  0  0  0
   13.3923   -1.3700    0.0000 H   0  0  0  0  0  0  0  0  0  0  0  0
   14.0123   -0.7500    0.0000 H   0  0  0  0  0  0  0  0  0  0  0  0
   13.3923   -0.1300    0.0000 H   0  0  0  0  0  0  0  0  0  0  0  0
    5.8891    2.5139    0.0000 H   0  0  0  0  0  0  0  0  0  0  0  0
   10.3312    5.0600    0.0000 H   0  0  0  0  0  0  0  0  0  0  0  0
   12.0823    2.7131    0.0000 H   0  0  0  0  0  0  0  0  0  0  0  0
   12.9292    2.9400    0.0000 H   0  0  0  0  0  0  0  0  0  0  0  0
   12.1463    4.7500    0.0000 H   0  0  0  0  0  0  0  0  0  0  0  0
   11.5263    5.3700    0.0000 H   0  0  0  0  0  0  0  0  0  0  0  0
   10.9063    4.7500    0.0000 H   0  0  0  0  0  0  0  0  0  0  0  0
   12.7023    3.7869    0.0000 H   0  0  0  0  0  0  0  0  0  0  0  0
    9.4842   -0.7131    0.0000 H   0  0  0  0  0  0  0  0  0  0  0  0
    9.2573   -1.5600    0.0000 H   0  0  0  0  0  0  0  0  0  0  0  0
   10.1042   -1.7869    0.0000 H   0  0  0  0  0  0  0  0  0  0  0  0
   13.5123   -1.6160    0.0000 H   0  0  0  0  0  0  0  0  0  0  0  0
    5.6706    0.4733    0.0000 H   0  0  0  0  0  0  0  0  0  0  0  0
    3.9875    3.8577    0.0000 H   0  0  0  0  0  0  0  0  0  0  0  0
    4.3860    3.1674    0.0000 H   0  0  0  0  0  0  0  0  0  0  0  0
    4.6462    2.1456    0.0000 H   0  0  0  0  0  0  0  0  0  0  0  0
    3.9506    1.6119    0.0000 H   0  0  0  0  0  0  0  0  0  0  0  0
    4.4843    0.9162    0.0000 H   0  0  0  0  0  0  0  0  0  0  0  0
    9.0615    0.9216    0.0000 H   0  0  0  0  0  0  0  0  0  0  0  0
    4.0612    3.0597    0.0000 H   0  0  0  0  0  0  0  0  0  0  0  0
    3.5062    0.4602    0.0000 H   0  0  0  0  0  0  0  0  0  0  0  0
    7.5062    4.7131    0.0000 H   0  0  0  0  0  0  0  0  0  0  0  0
    7.7331    5.5600    0.0000 H   0  0  0  0  0  0  0  0  0  0  0  0
    6.8862    5.7869    0.0000 H   0  0  0  0  0  0  0  0  0  0  0  0
   10.8723   -4.3326    0.0000 H   0  0  0  0  0  0  0  0  0  0  0  0
   11.2708   -3.6423    0.0000 H   0  0  0  0  0  0  0  0  0  0  0  0
    4.6700   -0.7110    0.0000 H   0  0  0  0  0  0  0  0  0  0  0  0
    9.2573   -4.5600    0.0000 H   0  0  0  0  0  0  0  0  0  0  0  0
    3.7611    2.3100    0.0000 H   0  0  0  0  0  0  0  0  0  0  0  0
    2.8660    5.6000    0.0000 H   0  0  0  0  0  0  0  0  0  0  0  0
    9.1742   -5.2500    0.0000 H   0  0  0  0  0  0  0  0  0  0  0  0
    9.7942   -5.8700    0.0000 H   0  0  0  0  0  0  0  0  0  0  0  0
   10.4142   -5.2500    0.0000 H   0  0  0  0  0  0  0  0  0  0  0  0
    9.2382   -3.2131    0.0000 H   0  0  0  0  0  0  0  0  0  0  0  0
    8.3913   -3.4400    0.0000 H   0  0  0  0  0  0  0  0  0  0  0  0
    8.6182   -4.2869    0.0000 H   0  0  0  0  0  0  0  0  0  0  0  0
    1.9793    1.6386    0.0000 H   0  0  0  0  0  0  0  0  0  0  0  0
    3.1760    3.2131    0.0000 H   0  0  0  0  0  0  0  0  0  0  0  0
    3.4649    3.9105    0.0000 H   0  0  0  0  0  0  0  0  0  0  0  0
    1.5600    3.2034    0.0000 H   0  0  0  0  0  0  0  0  0  0  0  0
    2.3100    5.7869    0.0000 H   0  0  0  0  0  0  0  0  0  0  0  0
    1.4631    5.5600    0.0000 H   0  0  0  0  0  0  0  0  0  0  0  0
    1.6900    4.7131    0.0000 H   0  0  0  0  0  0  0  0  0  0  0  0
  1 17  1  0  0  0  0
  1 23  1  0  0  0  0
  2 19  1  0  0  0  0
  2 20  1  0  0  0  0
  3 20  1  0  0  0  0
  3 21  1  0  0  0  0
  4 23  1  0  0  0  0
  4 27  1  0  0  0  0
  5 18  1  0  0  0  0
  5 81  1  0  0  0  0
  6 22  1  0  0  0  0
  6 91  1  0  0  0  0
  7 26  1  0  0  0  0
  7 42  1  0  0  0  0
  8 28  1  0  0  0  0
  8 44  1  0  0  0  0
  9 34  1  0  0  0  0
  9 99  1  0  0  0  0
 10 38  1  0  0  0  0
 10106  1  0  0  0  0
 11 41  2  0  0  0  0
 12 45  1  0  0  0  0
 12 49  1  0  0  0  0
 13 42  2  0  0  0  0
 14 45  2  0  0  0  0
 15 16  1  0  0  0  0
 15 35  1  0  0  0  0
 15 36  1  0  0  0  0
 16 17  1  0  0  0  0
 16 18  1  0  0  0  0
 16 56  1  0  0  0  0
 17 19  1  0  0  0  0
 17 57  1  0  0  0  0
 18 20  1  0  0  0  0
 18 58  1  0  0  0  0
 19 30  1  0  0  0  0
 19 59  1  0  0  0  0
 20 60  1  0  0  0  0
 21 24  1  0  0  0  0
 21 28  1  0  0  0  0
 21 61  1  0  0  0  0
 22 25  1  0  0  0  0
 22 26  1  0  0  0  0
 22 33  1  0  0  0  0
 23 25  1  0  0  0  0
 23 62  1  0  0  0  0
 24 29  1  0  0  0  0
 24 32  1  0  0  0  0
 24 63  1  0  0  0  0
 25 64  1  0  0  0  0
 25 65  1  0  0  0  0
 26 27  1  0  0  0  0
 26 66  1  0  0  0  0
 27 37  1  0  0  0  0
 27 67  1  0  0  0  0
 28 34  1  0  0  0  0
 28 68  1  0  0  0  0
 29 31  1  0  0  0  0
 29 69  1  0  0  0  0
 29 70  1  0  0  0  0
 30 71  1  0  0  0  0
 30 72  1  0  0  0  0
 30 73  1  0  0  0  0
 31 38  1  0  0  0  0
 31 40  1  0  0  0  0
 31 74  1  0  0  0  0
 32 41  1  0  0  0  0
 32 75  1  0  0  0  0
 32 76  1  0  0  0  0
 33 77  1  0  0  0  0
 33 78  1  0  0  0  0
 33 79  1  0  0  0  0
 34 39  1  0  0  0  0
 34 80  1  0  0  0  0
 35 82  1  0  0  0  0
 35 83  1  0  0  0  0
 35 87  1  0  0  0  0
 36 84  1  0  0  0  0
 36 85  1  0  0  0  0
 36 86  1  0  0  0  0
 37 88  1  0  0  0  0
 37 89  1  0  0  0  0
 37 90  1  0  0  0  0
 38 43  1  0  0  0  0
 38 92  1  0  0  0  0
 39 45  1  0  0  0  0
 39 93  1  0  0  0  0
 39 94  1  0  0  0  0
 40 95  1  0  0  0  0
 40 96  1  0  0  0  0
 40 97  1  0  0  0  0
 41 98  1  0  0  0  0
 42 46  1  0  0  0  0
 43 48  2  3  0  0  0
 43100  1  0  0  0  0
 44101  1  0  0  0  0
 44102  1  0  0  0  0
 44103  1  0  0  0  0
 46 47  1  0  0  0  0
 46104  1  0  0  0  0
 46105  1  0  0  0  0
 47 50  1  0  0  0  0
 47 51  1  0  0  0  0
 47107  1  0  0  0  0
 48 52  1  0  0  0  0
 48108  1  0  0  0  0
 49 53  1  0  0  0  0
 49 55  1  0  0  0  0
 49109  1  0  0  0  0
 50110  1  0  0  0  0
 50111  1  0  0  0  0
 50112  1  0  0  0  0
 51113  1  0  0  0  0
 51114  1  0  0  0  0
 51115  1  0  0  0  0
 52 54  2  3  0  0  0
 52116  1  0  0  0  0
 53 54  1  0  0  0  0
 53117  1  0  0  0  0
 53118  1  0  0  0  0
 54119  1  0  0  0  0
 55120  1  0  0  0  0
 55121  1  0  0  0  0
 55122  1  0  0  0  0
M  END
> <PUBCHEM_COMPOUND_CID>
3835

> <PUBCHEM_COMPOUND_CANONICALIZED>
1

> <PUBCHEM_CACTVS_COMPLEXITY>
1280

> <PUBCHEM_CACTVS_HBOND_ACCEPTOR>
15

> <PUBCHEM_CACTVS_HBOND_DONOR>
4

> <PUBCHEM_CACTVS_ROTATABLE_BOND>
12

> <PUBCHEM_CACTVS_SUBSKEYS>
AAADcfB+PAAAAAAAAAAAAAAAAAAAAAAAAAAkSAAAAAAAAAAAAAAAHgAACAAADXzxgAcCCAMABgCIACjSiAAAAAAgAAAICAEIAAgbFBYAgQAnUAAH4AAfkAPK7PzOAAAAAAAAAAAAAAAAAAAAAAAAAAAAAA==

> <PUBCHEM_IUPAC_OPENEYE_NAME>
[6-[6-[[4,10-dihydroxy-5-methoxy-9,16-dimethyl-2-oxo-7-(2-oxoethyl)-1-oxacyclohexadeca-11,13-dien-6-yl]oxy]-4-(dimethylamino)-5-hydroxy-2-methyl-tetrahydropyran-3-yl]oxy-4-hydroxy-2,4-dimethyl-tetrahydropyran-3-yl] 3-methylbutanoate

> <PUBCHEM_IUPAC_CAS_NAME>
3-methylbutanoic acid [6-[[6-[[4,10-dihydroxy-5-methoxy-9,16-dimethyl-2-oxo-7-(2-oxoethyl)-1-oxacyclohexadeca-11,13-dien-6-yl]oxy]-4-(dimethylamino)-5-hydroxy-2-methyl-3-oxanyl]oxy]-4-hydroxy-2,4-dimethyl-3-oxanyl] ester

> <PUBCHEM_IUPAC_NAME>
[6-[6-[[4,10-dihydroxy-5-methoxy-9,16-dimethyl-2-oxo-7-(2-oxoethyl)-1-oxacyclohexadeca-11,13-dien-6-yl]oxy]-4-(dimethylamino)-5-hydroxy-2-methyloxan-3-yl]oxy-4-hydroxy-2,4-dimethyloxan-3-yl] 3-methylbutanoate

> <PUBCHEM_IUPAC_SYSTEMATIC_NAME>
[6-[4-(dimethylamino)-6-[[5-methoxy-9,16-dimethyl-4,10-bis(oxidanyl)-2-oxidanylidene-7-(2-oxidanylideneethyl)-1-oxacyclohexadeca-11,13-dien-6-yl]oxy]-2-methyl-5-oxidanyl-oxan-3-yl]oxy-2,4-dimethyl-4-oxidanyl-oxan-3-yl] 3-methylbutanoate

> <PUBCHEM_IUPAC_TRADITIONAL_NAME>
3-methylbutyric acid [6-[6-[[4,10-dihydroxy-2-keto-7-(2-ketoethyl)-5-methoxy-9,16-dimethyl-1-oxacyclohexadeca-11,13-dien-6-yl]oxy]-4-(dimethylamino)-5-hydroxy-2-methyl-tetrahydropyran-3-yl]oxy-4-hydroxy-2,4-dimethyl-tetrahydropyran-3-yl] ester

> <PUBCHEM_IUPAC_INCHI>
InChI=1S/C40H67NO14/c1-22(2)18-30(45)53-38-26(6)51-32(21-40(38,7)48)54-35-25(5)52-39(34(47)33(35)41(8)9)55-36-27(16-17-42)19-23(3)28(43)15-13-11-12-14-24(4)50-31(46)20-29(44)37(36)49-10/h11-13,15,17,22-29,32-39,43-44,47-48H,14,16,18-21H2,1-10H3

> <PUBCHEM_IUPAC_INCHIKEY>
IEMDOFXTVAPVLX-UHFFFAOYSA-N

> <PUBCHEM_XLOGP3_AA>
2.4

> <PUBCHEM_EXACT_MASS>
785.456156

> <PUBCHEM_MOLECULAR_FORMULA>
C40H67NO14

> <PUBCHEM_MOLECULAR_WEIGHT>
785.95828

> <PUBCHEM_OPENEYE_CAN_SMILES>
CC1CC=CC=CC(C(CC(C(C(C(CC(=O)O1)O)OC)OC2C(C(C(C(O2)C)OC3CC(C(C(O3)C)OC(=O)CC(C)C)(C)O)N(C)C)O)CC=O)C)O

> <PUBCHEM_OPENEYE_ISO_SMILES>
CC1CC=CC=CC(C(CC(C(C(C(CC(=O)O1)O)OC)OC2C(C(C(C(O2)C)OC3CC(C(C(O3)C)OC(=O)CC(C)C)(C)O)N(C)C)O)CC=O)C)O

> <PUBCHEM_CACTVS_TPSA>
200

> <PUBCHEM_MONOISOTOPIC_WEIGHT>
785.456156

> <PUBCHEM_TOTAL_CHARGE>
0

> <PUBCHEM_HEAVY_ATOM_COUNT>
55

> <PUBCHEM_ATOM_DEF_STEREO_COUNT>
0

> <PUBCHEM_ATOM_UDEF_STEREO_COUNT>
16

> <PUBCHEM_BOND_DEF_STEREO_COUNT>
0

> <PUBCHEM_BOND_UDEF_STEREO_COUNT>
2

> <PUBCHEM_ISOTOPIC_ATOM_COUNT>
0

> <PUBCHEM_COMPONENT_COUNT>
1

> <PUBCHEM_CACTVS_TAUTO_COUNT>
4

> <PUBCHEM_COORDINATE_TYPE>
1
5
255

> <PUBCHEM_BONDANNOTATIONS>
16  56  3
17  57  3
18  58  3
19  59  3
20  60  3
21  61  3
22  33  3
23  62  3
24  63  3
26  66  3
27  67  3
28  68  3
31  74  3
34  80  3
38  92  3
43  48  1
49  109  3
52  54  1

$$$$

