6097
  -OEChem-06261201062D

 18 19  0     1  0  0  0  0  0999 V2000
    4.9889    1.5107    0.0000 O   0  0  0  0  0  0  0  0  0  0  0  0
    6.2619   -0.2445    0.0000 O   0  0  0  0  0  0  0  0  0  0  0  0
    4.6783   -1.0493    0.0000 N   0  0  0  0  0  0  0  0  0  0  0  0
    4.6783    0.5602    0.0000 C   0  0  3  0  0  0  0  0  0  0  0  0
    3.7320    0.2555    0.0000 C   0  0  0  0  0  0  0  0  0  0  0  0
    3.7320   -0.7445    0.0000 C   0  0  0  0  0  0  0  0  0  0  0  0
    5.2619   -0.2445    0.0000 C   0  0  0  0  0  0  0  0  0  0  0  0
    2.8660    0.7555    0.0000 C   0  0  0  0  0  0  0  0  0  0  0  0
    2.8660   -1.2445    0.0000 C   0  0  0  0  0  0  0  0  0  0  0  0
    2.0000    0.2555    0.0000 C   0  0  0  0  0  0  0  0  0  0  0  0
    2.0000   -0.7445    0.0000 C   0  0  0  0  0  0  0  0  0  0  0  0
    5.2908    0.6564    0.0000 H   0  0  0  0  0  0  0  0  0  0  0  0
    4.8709   -1.6386    0.0000 H   0  0  0  0  0  0  0  0  0  0  0  0
    2.8660    1.3755    0.0000 H   0  0  0  0  0  0  0  0  0  0  0  0
    2.8660   -1.8645    0.0000 H   0  0  0  0  0  0  0  0  0  0  0  0
    1.4631    0.5655    0.0000 H   0  0  0  0  0  0  0  0  0  0  0  0
    1.4631   -1.0545    0.0000 H   0  0  0  0  0  0  0  0  0  0  0  0
    5.5956    1.6386    0.0000 H   0  0  0  0  0  0  0  0  0  0  0  0
  1  4  1  0  0  0  0
  1 18  1  0  0  0  0
  2  7  2  0  0  0  0
  3  6  1  0  0  0  0
  3  7  1  0  0  0  0
  3 13  1  0  0  0  0
  4  5  1  0  0  0  0
  4  7  1  0  0  0  0
  4 12  1  0  0  0  0
  5  6  1  0  0  0  0
  5  8  2  0  0  0  0
  6  9  2  0  0  0  0
  8 10  1  0  0  0  0
  8 14  1  0  0  0  0
  9 11  1  0  0  0  0
  9 15  1  0  0  0  0
 10 11  2  0  0  0  0
 10 16  1  0  0  0  0
 11 17  1  0  0  0  0
M  END
> <PUBCHEM_COMPOUND_CID>
6097

> <PUBCHEM_COMPOUND_CANONICALIZED>
1

> <PUBCHEM_CACTVS_COMPLEXITY>
181

> <PUBCHEM_CACTVS_HBOND_ACCEPTOR>
2

> <PUBCHEM_CACTVS_HBOND_DONOR>
2

> <PUBCHEM_CACTVS_ROTATABLE_BOND>
0

> <PUBCHEM_CACTVS_SUBSKEYS>
AAADcYByMAAAAAAAAAAAAAAAAAAAAWAAAAAwAAAAAAAAAFgBAAAAHgAQCAAADByhmAIwwILAAgCIAiVSUAKCAAAhAgAIiAFAbIgKNjLAlZGEcAhm1AHY2AecyKCOAAAAAAACAAAAAAAAAAQAAAAAAAAAAA==

> <PUBCHEM_IUPAC_OPENEYE_NAME>
3-hydroxyindolin-2-one

> <PUBCHEM_IUPAC_CAS_NAME>
3-hydroxy-1,3-dihydroindol-2-one

> <PUBCHEM_IUPAC_NAME>
3-hydroxy-1,3-dihydroindol-2-one

> <PUBCHEM_IUPAC_SYSTEMATIC_NAME>
3-oxidanyl-1,3-dihydroindol-2-one

> <PUBCHEM_IUPAC_TRADITIONAL_NAME>
dioxindole

> <PUBCHEM_IUPAC_INCHI>
InChI=1S/C8H7NO2/c10-7-5-3-1-2-4-6(5)9-8(7)11/h1-4,7,10H,(H,9,11)

> <PUBCHEM_IUPAC_INCHIKEY>
SGZFJWQQBHYNNF-UHFFFAOYSA-N

> <PUBCHEM_XLOGP3_AA>
0.2

> <PUBCHEM_EXACT_MASS>
149.047678

> <PUBCHEM_MOLECULAR_FORMULA>
C8H7NO2

> <PUBCHEM_MOLECULAR_WEIGHT>
149.14668

> <PUBCHEM_OPENEYE_CAN_SMILES>
C1=CC=C2C(=C1)C(C(=O)N2)O

> <PUBCHEM_OPENEYE_ISO_SMILES>
C1=CC=C2C(=C1)C(C(=O)N2)O

> <PUBCHEM_CACTVS_TPSA>
49.3

> <PUBCHEM_MONOISOTOPIC_WEIGHT>
149.047678

> <PUBCHEM_TOTAL_CHARGE>
0

> <PUBCHEM_HEAVY_ATOM_COUNT>
11

> <PUBCHEM_ATOM_DEF_STEREO_COUNT>
0

> <PUBCHEM_ATOM_UDEF_STEREO_COUNT>
1

> <PUBCHEM_BOND_DEF_STEREO_COUNT>
0

> <PUBCHEM_BOND_UDEF_STEREO_COUNT>
0

> <PUBCHEM_ISOTOPIC_ATOM_COUNT>
0

> <PUBCHEM_COMPONENT_COUNT>
1

> <PUBCHEM_CACTVS_TAUTO_COUNT>
3

> <PUBCHEM_COORDINATE_TYPE>
1
5
255

> <PUBCHEM_BONDANNOTATIONS>
4  1  3
10  11  8
5  6  8
5  8  8
6  9  8
8  10  8
9  11  8

$$$$

