4403
  -OEChem-06261200062D

 40 42  0     1  0  0  0  0  0999 V2000
    5.0474    3.5534    0.0000 P   0  0  0  0  0  0  0  0  0  0  0  0
    4.4026    0.1003    0.0000 O   0  0  0  0  0  0  0  0  0  0  0  0
    6.7485   -0.9916    0.0000 O   0  0  0  0  0  0  0  0  0  0  0  0
    6.7523    1.1840    0.0000 O   0  0  0  0  0  0  0  0  0  0  0  0
    5.3548    2.6018    0.0000 O   0  0  0  0  0  0  0  0  0  0  0  0
    4.7400    4.5050    0.0000 O   0  0  0  0  0  0  0  0  0  0  0  0
    5.9990    3.8608    0.0000 O   0  0  0  0  0  0  0  0  0  0  0  0
    4.0958    3.2460    0.0000 O   0  0  0  0  0  0  0  0  0  0  0  0
    4.6783   -1.6603    0.0000 N   0  0  0  0  0  0  0  0  0  0  0  0
    4.6783   -3.2698    0.0000 N   0  0  0  0  0  0  0  0  0  0  0  0
    2.8660   -1.4650    0.0000 N   0  0  0  0  0  0  0  0  0  0  0  0
    2.0000   -2.9650    0.0000 N   0  0  0  0  0  0  0  0  0  0  0  0
    2.8660   -4.4650    0.0000 N   0  0  0  0  0  0  0  0  0  0  0  0
    5.9405   -0.4024    0.0000 C   0  0  3  0  0  0  0  0  0  0  0  0
    5.9422    0.5976    0.0000 C   0  0  3  0  0  0  0  0  0  0  0  0
    4.9889   -0.7098    0.0000 C   0  0  3  0  0  0  0  0  0  0  0  0
    4.9917    0.9082    0.0000 C   0  0  3  0  0  0  0  0  0  0  0  0
    4.6844    1.8598    0.0000 C   0  0  0  0  0  0  0  0  0  0  0  0
    3.7320   -1.9650    0.0000 C   0  0  0  0  0  0  0  0  0  0  0  0
    5.2619   -2.4650    0.0000 C   0  0  0  0  0  0  0  0  0  0  0  0
    3.7320   -2.9650    0.0000 C   0  0  0  0  0  0  0  0  0  0  0  0
    2.8660   -3.4650    0.0000 C   0  0  0  0  0  0  0  0  0  0  0  0
    2.0000   -1.9650    0.0000 C   0  0  0  0  0  0  0  0  0  0  0  0
    2.0000   -4.9650    0.0000 C   0  0  0  0  0  0  0  0  0  0  0  0
    6.6985   -0.0178    0.0000 H   0  0  0  0  0  0  0  0  0  0  0  0
    6.6989    0.2104    0.0000 H   0  0  0  0  0  0  0  0  0  0  0  0
    5.5889   -1.3119    0.0000 H   0  0  0  0  0  0  0  0  0  0  0  0
    4.1524    1.0427    0.0000 H   0  0  0  0  0  0  0  0  0  0  0  0
    4.3035    2.3491    0.0000 H   0  0  0  0  0  0  0  0  0  0  0  0
    4.1364    1.5697    0.0000 H   0  0  0  0  0  0  0  0  0  0  0  0
    7.3154   -0.7404    0.0000 H   0  0  0  0  0  0  0  0  0  0  0  0
    7.3182    0.9308    0.0000 H   0  0  0  0  0  0  0  0  0  0  0  0
    5.8819   -2.4650    0.0000 H   0  0  0  0  0  0  0  0  0  0  0  0
    1.4631   -1.6550    0.0000 H   0  0  0  0  0  0  0  0  0  0  0  0
    3.4030   -4.7750    0.0000 H   0  0  0  0  0  0  0  0  0  0  0  0
    5.1557    4.9650    0.0000 H   0  0  0  0  0  0  0  0  0  0  0  0
    6.1290    4.4670    0.0000 H   0  0  0  0  0  0  0  0  0  0  0  0
    1.6900   -4.4281    0.0000 H   0  0  0  0  0  0  0  0  0  0  0  0
    1.4631   -5.2750    0.0000 H   0  0  0  0  0  0  0  0  0  0  0  0
    2.3100   -5.5020    0.0000 H   0  0  0  0  0  0  0  0  0  0  0  0
  1  5  1  0  0  0  0
  1  6  1  0  0  0  0
  1  7  1  0  0  0  0
  1  8  2  0  0  0  0
  2 16  1  0  0  0  0
  2 17  1  0  0  0  0
  3 14  1  0  0  0  0
  3 31  1  0  0  0  0
  4 15  1  0  0  0  0
  4 32  1  0  0  0  0
  5 18  1  0  0  0  0
  6 36  1  0  0  0  0
  7 37  1  0  0  0  0
  9 16  1  0  0  0  0
  9 19  1  0  0  0  0
  9 20  1  0  0  0  0
 10 20  2  0  0  0  0
 10 21  1  0  0  0  0
 11 19  1  0  0  0  0
 11 23  2  0  0  0  0
 12 22  2  0  0  0  0
 12 23  1  0  0  0  0
 13 22  1  0  0  0  0
 13 24  1  0  0  0  0
 13 35  1  0  0  0  0
 14 15  1  0  0  0  0
 14 16  1  0  0  0  0
 14 25  1  0  0  0  0
 15 17  1  0  0  0  0
 15 26  1  0  0  0  0
 16 27  1  0  0  0  0
 17 18  1  0  0  0  0
 17 28  1  0  0  0  0
 18 29  1  0  0  0  0
 18 30  1  0  0  0  0
 19 21  2  0  0  0  0
 20 33  1  0  0  0  0
 21 22  1  0  0  0  0
 23 34  1  0  0  0  0
 24 38  1  0  0  0  0
 24 39  1  0  0  0  0
 24 40  1  0  0  0  0
M  END
> <PUBCHEM_COMPOUND_CID>
4403

> <PUBCHEM_COMPOUND_CANONICALIZED>
1

> <PUBCHEM_CACTVS_COMPLEXITY>
495

> <PUBCHEM_CACTVS_HBOND_ACCEPTOR>
11

> <PUBCHEM_CACTVS_HBOND_DONOR>
5

> <PUBCHEM_CACTVS_ROTATABLE_BOND>
5

> <PUBCHEM_CACTVS_SUBSKEYS>
AAADceBzuAIAAAAAAAAAAAAAAAAAAWJAAAAsAAAAAAAAAFgB+AAAHgAQCCAACBzhlwYH8L/MFxCgQQZhZICAgC0REKABUKAoVBCDWAJAyEAeRAgPAALTACDwMAIAAAAAAAAAAAAAAAAAAAAAAAAAAAAAAA==

> <PUBCHEM_IUPAC_OPENEYE_NAME>
[3,4-dihydroxy-5-[6-(methylamino)purin-9-yl]tetrahydrofuran-2-yl]methyl dihydrogen phosphate

> <PUBCHEM_IUPAC_CAS_NAME>
[3,4-dihydroxy-5-[6-(methylamino)-9-purinyl]-2-oxolanyl]methyl dihydrogen phosphate

> <PUBCHEM_IUPAC_NAME>
[3,4-dihydroxy-5-[6-(methylamino)purin-9-yl]oxolan-2-yl]methyl dihydrogen phosphate

> <PUBCHEM_IUPAC_SYSTEMATIC_NAME>
[5-[6-(methylamino)purin-9-yl]-3,4-bis(oxidanyl)oxolan-2-yl]methyl dihydrogen phosphate

> <PUBCHEM_IUPAC_TRADITIONAL_NAME>
[3,4-dihydroxy-5-[6-(methylamino)purin-9-yl]tetrahydrofuran-2-yl]methyl dihydrogen phosphate

> <PUBCHEM_IUPAC_INCHI>
InChI=1S/C11H16N5O7P/c1-12-9-6-10(14-3-13-9)16(4-15-6)11-8(18)7(17)5(23-11)2-22-24(19,20)21/h3-5,7-8,11,17-18H,2H2,1H3,(H,12,13,14)(H2,19,20,21)

> <PUBCHEM_IUPAC_INCHIKEY>
WETVNPRPZIYMAC-UHFFFAOYSA-N

> <PUBCHEM_XLOGP3>
-2.9

> <PUBCHEM_EXACT_MASS>
361.078735

> <PUBCHEM_MOLECULAR_FORMULA>
C11H16N5O7P

> <PUBCHEM_MOLECULAR_WEIGHT>
361.247802

> <PUBCHEM_OPENEYE_CAN_SMILES>
CNC1=NC=NC2=C1N=CN2C3C(C(C(O3)COP(=O)(O)O)O)O

> <PUBCHEM_OPENEYE_ISO_SMILES>
CNC1=NC=NC2=C1N=CN2C3C(C(C(O3)COP(=O)(O)O)O)O

> <PUBCHEM_CACTVS_TPSA>
172

> <PUBCHEM_MONOISOTOPIC_WEIGHT>
361.078735

> <PUBCHEM_TOTAL_CHARGE>
0

> <PUBCHEM_HEAVY_ATOM_COUNT>
24

> <PUBCHEM_ATOM_DEF_STEREO_COUNT>
0

> <PUBCHEM_ATOM_UDEF_STEREO_COUNT>
4

> <PUBCHEM_BOND_DEF_STEREO_COUNT>
0

> <PUBCHEM_BOND_UDEF_STEREO_COUNT>
0

> <PUBCHEM_ISOTOPIC_ATOM_COUNT>
0

> <PUBCHEM_COMPONENT_COUNT>
1

> <PUBCHEM_CACTVS_TAUTO_COUNT>
3

> <PUBCHEM_COORDINATE_TYPE>
1
5
255

> <PUBCHEM_BONDANNOTATIONS>
10  20  8
10  21  8
11  19  8
11  23  8
12  22  8
12  23  8
14  25  3
15  26  3
16  27  3
17  28  3
19  21  8
21  22  8
9  19  8
9  20  8

$$$$

