5451
  -OEChem-06261200412D

 54 56  0     1  0  0  0  0  0999 V2000
    5.4661    4.8208    0.0000 S   0  0  0  0  0  0  0  0  0  0  0  0
    5.0474    0.4821    0.0000 P   0  0  3  0  0  0  0  0  0  0  0  0
    5.4104    2.1757    0.0000 P   0  0  3  0  0  0  0  0  0  0  0  0
    5.7735    3.8692    0.0000 P   0  0  3  0  0  0  0  0  0  0  0  0
    4.4026   -2.9711    0.0000 O   0  0  0  0  0  0  0  0  0  0  0  0
    6.7485   -4.0629    0.0000 O   0  0  0  0  0  0  0  0  0  0  0  0
    6.7523   -1.8874    0.0000 O   0  0  0  0  0  0  0  0  0  0  0  0
    5.3548   -0.4695    0.0000 O   0  0  0  0  0  0  0  0  0  0  0  0
    4.7400    1.4337    0.0000 O   0  0  0  0  0  0  0  0  0  0  0  0
    5.9990    0.7895    0.0000 O   0  0  0  0  0  0  0  0  0  0  0  0
    4.0958    0.1747    0.0000 O   0  0  0  0  0  0  0  0  0  0  0  0
    6.0809    2.9176    0.0000 O   0  0  0  0  0  0  0  0  0  0  0  0
    4.6685    2.8461    0.0000 O   0  0  0  0  0  0  0  0  0  0  0  0
    6.1524    1.5052    0.0000 O   0  0  0  0  0  0  0  0  0  0  0  0
    6.7251    4.1766    0.0000 O   0  0  0  0  0  0  0  0  0  0  0  0
    4.8219    3.5619    0.0000 O   0  0  0  0  0  0  0  0  0  0  0  0
    4.8514    6.7240    0.0000 O   0  0  0  0  0  0  0  0  0  0  0  0
    4.6783   -4.7316    0.0000 N   0  0  0  0  0  0  0  0  0  0  0  0
    4.6783   -6.3411    0.0000 N   0  0  0  0  0  0  0  0  0  0  0  0
    2.8660   -4.5364    0.0000 N   0  0  0  0  0  0  0  0  0  0  0  0
    2.0000   -6.0364    0.0000 N   0  0  0  0  0  0  0  0  0  0  0  0
    2.8660   -7.5364    0.0000 N   0  0  0  0  0  0  0  0  0  0  0  0
    6.4996    7.2564    0.0000 N   0  0  0  0  0  0  0  0  0  0  0  0
    5.9405   -3.4738    0.0000 C   0  0  3  0  0  0  0  0  0  0  0  0
    5.9422   -2.4738    0.0000 C   0  0  3  0  0  0  0  0  0  0  0  0
    4.9889   -3.7811    0.0000 C   0  0  3  0  0  0  0  0  0  0  0  0
    4.9917   -2.1631    0.0000 C   0  0  3  0  0  0  0  0  0  0  0  0
    4.6844   -1.2115    0.0000 C   0  0  0  0  0  0  0  0  0  0  0  0
    3.7320   -5.0364    0.0000 C   0  0  0  0  0  0  0  0  0  0  0  0
    5.2619   -5.5364    0.0000 C   0  0  0  0  0  0  0  0  0  0  0  0
    3.7320   -6.0364    0.0000 C   0  0  0  0  0  0  0  0  0  0  0  0
    2.8660   -6.5364    0.0000 C   0  0  0  0  0  0  0  0  0  0  0  0
    2.0000   -5.0364    0.0000 C   0  0  0  0  0  0  0  0  0  0  0  0
    6.1365    5.5628    0.0000 C   0  0  0  0  0  0  0  0  0  0  0  0
    5.8292    6.5144    0.0000 C   0  0  0  0  0  0  0  0  0  0  0  0
    6.4934   -3.1932    0.0000 H   0  0  0  0  0  0  0  0  0  0  0  0
    5.8463   -1.8612    0.0000 H   0  0  0  0  0  0  0  0  0  0  0  0
    5.4266   -4.2203    0.0000 H   0  0  0  0  0  0  0  0  0  0  0  0
    4.3795   -2.0650    0.0000 H   0  0  0  0  0  0  0  0  0  0  0  0
    4.3035   -0.7223    0.0000 H   0  0  0  0  0  0  0  0  0  0  0  0
    4.1364   -1.5016    0.0000 H   0  0  0  0  0  0  0  0  0  0  0  0
    7.3154   -3.8117    0.0000 H   0  0  0  0  0  0  0  0  0  0  0  0
    7.3182   -2.1405    0.0000 H   0  0  0  0  0  0  0  0  0  0  0  0
    5.8819   -5.5364    0.0000 H   0  0  0  0  0  0  0  0  0  0  0  0
    1.4631   -4.7264    0.0000 H   0  0  0  0  0  0  0  0  0  0  0  0
    2.3291   -7.8464    0.0000 H   0  0  0  0  0  0  0  0  0  0  0  0
    3.4030   -7.8464    0.0000 H   0  0  0  0  0  0  0  0  0  0  0  0
    6.4590    0.3738    0.0000 H   0  0  0  0  0  0  0  0  0  0  0  0
    4.0785    2.6555    0.0000 H   0  0  0  0  0  0  0  0  0  0  0  0
    6.5174    5.0736    0.0000 H   0  0  0  0  0  0  0  0  0  0  0  0
    6.6845    5.8529    0.0000 H   0  0  0  0  0  0  0  0  0  0  0  0
    7.1851    3.7610    0.0000 H   0  0  0  0  0  0  0  0  0  0  0  0
    6.3090    7.8464    0.0000 H   0  0  0  0  0  0  0  0  0  0  0  0
    7.1058    7.1264    0.0000 H   0  0  0  0  0  0  0  0  0  0  0  0
  1  4  1  0  0  0  0
  1 34  1  0  0  0  0
  2  8  1  0  0  0  0
  2  9  1  0  0  0  0
  2 10  1  0  0  0  0
  2 11  2  0  0  0  0
  3  9  1  0  0  0  0
  3 12  1  0  0  0  0
  3 13  1  0  0  0  0
  3 14  2  0  0  0  0
  4 12  1  0  0  0  0
  4 15  1  0  0  0  0
  4 16  2  0  0  0  0
  5 26  1  0  0  0  0
  5 27  1  0  0  0  0
  6 24  1  0  0  0  0
  6 42  1  0  0  0  0
  7 25  1  0  0  0  0
  7 43  1  0  0  0  0
  8 28  1  0  0  0  0
 10 48  1  0  0  0  0
 13 49  1  0  0  0  0
 15 52  1  0  0  0  0
 17 35  2  0  0  0  0
 18 26  1  0  0  0  0
 18 29  1  0  0  0  0
 18 30  1  0  0  0  0
 19 30  2  0  0  0  0
 19 31  1  0  0  0  0
 20 29  2  0  0  0  0
 20 33  1  0  0  0  0
 21 32  1  0  0  0  0
 21 33  2  0  0  0  0
 22 32  1  0  0  0  0
 22 46  1  0  0  0  0
 22 47  1  0  0  0  0
 23 35  1  0  0  0  0
 23 53  1  0  0  0  0
 23 54  1  0  0  0  0
 24 25  1  0  0  0  0
 24 26  1  0  0  0  0
 24 36  1  0  0  0  0
 25 27  1  0  0  0  0
 25 37  1  0  0  0  0
 26 38  1  0  0  0  0
 27 28  1  0  0  0  0
 27 39  1  0  0  0  0
 28 40  1  0  0  0  0
 28 41  1  0  0  0  0
 29 31  1  0  0  0  0
 30 44  1  0  0  0  0
 31 32  2  0  0  0  0
 33 45  1  0  0  0  0
 34 35  1  0  0  0  0
 34 50  1  0  0  0  0
 34 51  1  0  0  0  0
M  END
> <PUBCHEM_COMPOUND_CID>
5451

> <PUBCHEM_COMPOUND_CANONICALIZED>
1

> <PUBCHEM_CACTVS_COMPLEXITY>
935

> <PUBCHEM_CACTVS_HBOND_ACCEPTOR>
18

> <PUBCHEM_CACTVS_HBOND_DONOR>
7

> <PUBCHEM_CACTVS_ROTATABLE_BOND>
11

> <PUBCHEM_CACTVS_SUBSKEYS>
AAADceBzvANAAAAAAAAAAAAAAAAAAWJAAAAsAAAAAAAAAFgB+AAAHgQQCCAACBzl1waF8L9MFxCoQQdxdICAgC0REKABUCAoVBCDWAJAyEAeRAgPEALTACDwMAIAAAAAAAAAAAAAAAAAAAAAAAAAAAAAAA==

> <PUBCHEM_IUPAC_OPENEYE_NAME>
(2-amino-2-oxo-ethyl)sulfanyl-[[[5-(6-aminopurin-9-yl)-3,4-dihydroxy-tetrahydrofuran-2-yl]methoxy-hydroxy-phosphoryl]oxy-hydroxy-phosphoryl]oxy-phosphinic acid

> <PUBCHEM_IUPAC_CAS_NAME>
[(2-amino-2-oxoethyl)thio]-[[[5-(6-aminopurin-9-yl)-3,4-dihydroxy-2-oxolanyl]methoxy-hydroxyphosphoryl]oxy-hydroxyphosphoryl]oxyphosphinic acid

> <PUBCHEM_IUPAC_NAME>
(2-amino-2-oxoethyl)sulfanyl-[[[5-(6-aminopurin-9-yl)-3,4-dihydroxyoxolan-2-yl]methoxy-hydroxyphosphoryl]oxy-hydroxyphosphoryl]oxyphosphinic acid

> <PUBCHEM_IUPAC_SYSTEMATIC_NAME>
[[[5-(6-aminopurin-9-yl)-3,4-bis(oxidanyl)oxolan-2-yl]methoxy-oxidanyl-phosphoryl]oxy-oxidanyl-phosphoryl]oxy-(2-azanyl-2-oxidanylidene-ethyl)sulfanyl-phosphinic acid

> <PUBCHEM_IUPAC_TRADITIONAL_NAME>
[[(5-adenin-9-yl-3,4-dihydroxy-tetrahydrofuran-2-yl)methoxy-hydroxy-phosphoryl]oxy-hydroxy-phosphoryl]oxy-[(2-amino-2-keto-ethyl)thio]phosphinic acid

> <PUBCHEM_IUPAC_INCHI>
InChI=1S/C12H19N6O13P3S/c13-6(19)2-35-34(26,27)31-33(24,25)30-32(22,23)28-1-5-8(20)9(21)12(29-5)18-4-17-7-10(14)15-3-16-11(7)18/h3-5,8-9,12,20-21H,1-2H2,(H2,13,19)(H,22,23)(H,24,25)(H,26,27)(H2,14,15,16)

> <PUBCHEM_IUPAC_INCHIKEY>
ZAOVTTQZIXCKOL-UHFFFAOYSA-N

> <PUBCHEM_XLOGP3>
-5.8

> <PUBCHEM_EXACT_MASS>
579.994366

> <PUBCHEM_MOLECULAR_FORMULA>
C12H19N6O13P3S

> <PUBCHEM_MOLECULAR_WEIGHT>
580.297946

> <PUBCHEM_OPENEYE_CAN_SMILES>
C1=NC2=C(C(=N1)N)N=CN2C3C(C(C(O3)COP(=O)(O)OP(=O)(O)OP(=O)(O)SCC(=O)N)O)O

> <PUBCHEM_OPENEYE_ISO_SMILES>
C1=NC2=C(C(=N1)N)N=CN2C3C(C(C(O3)COP(=O)(O)OP(=O)(O)OP(=O)(O)SCC(=O)N)O)O

> <PUBCHEM_CACTVS_TPSA>
327

> <PUBCHEM_MONOISOTOPIC_WEIGHT>
579.994366

> <PUBCHEM_TOTAL_CHARGE>
0

> <PUBCHEM_HEAVY_ATOM_COUNT>
35

> <PUBCHEM_ATOM_DEF_STEREO_COUNT>
0

> <PUBCHEM_ATOM_UDEF_STEREO_COUNT>
4

> <PUBCHEM_BOND_DEF_STEREO_COUNT>
0

> <PUBCHEM_BOND_UDEF_STEREO_COUNT>
0

> <PUBCHEM_ISOTOPIC_ATOM_COUNT>
0

> <PUBCHEM_COMPONENT_COUNT>
1

> <PUBCHEM_CACTVS_TAUTO_COUNT>
9

> <PUBCHEM_COORDINATE_TYPE>
1
5
255

> <PUBCHEM_BONDANNOTATIONS>
26  18  3
18  29  8
18  30  8
19  30  8
19  31  8
20  29  8
20  33  8
21  32  8
21  33  8
27  28  3
29  31  8
31  32  8
24  6  3
25  7  3

$$$$

