10649
  -OEChem-06261204472D

 76 77  0     0  0  0  0  0  0999 V2000
    2.5281    7.3072    0.0000 Cl  0  5  0  0  0  0  0  0  0  0  0  0
    0.0000    7.3072    0.0000 Cl  0  5  0  0  0  0  0  0  0  0  0  0
   12.5882   11.8100    0.0000 N   0  3  0  0  0  0  0  0  0  0  0  0
    8.2580    3.3100    0.0000 N   0  3  0  0  0  0  0  0  0  0  0  0
   12.5882   14.8100    0.0000 N   0  0  0  0  0  0  0  0  0  0  0  0
    8.2580    0.3100    0.0000 N   0  0  0  0  0  0  0  0  0  0  0  0
    9.9901    7.3100    0.0000 C   0  0  0  0  0  0  0  0  0  0  0  0
   10.8561    7.8100    0.0000 C   0  0  0  0  0  0  0  0  0  0  0  0
    9.9901    6.3100    0.0000 C   0  0  0  0  0  0  0  0  0  0  0  0
   10.8561    8.8100    0.0000 C   0  0  0  0  0  0  0  0  0  0  0  0
   11.7221    9.3100    0.0000 C   0  0  0  0  0  0  0  0  0  0  0  0
    9.1240    5.8100    0.0000 C   0  0  0  0  0  0  0  0  0  0  0  0
   11.7221   10.3100    0.0000 C   0  0  0  0  0  0  0  0  0  0  0  0
    9.1240    4.8100    0.0000 C   0  0  0  0  0  0  0  0  0  0  0  0
   12.5882   10.8100    0.0000 C   0  0  0  0  0  0  0  0  0  0  0  0
    8.2580    4.3100    0.0000 C   0  0  0  0  0  0  0  0  0  0  0  0
   13.4542   12.3100    0.0000 C   0  0  0  0  0  0  0  0  0  0  0  0
    7.3920    2.8100    0.0000 C   0  0  0  0  0  0  0  0  0  0  0  0
    9.1240    2.8100    0.0000 C   0  0  0  0  0  0  0  0  0  0  0  0
   11.7221   12.3100    0.0000 C   0  0  0  0  0  0  0  0  0  0  0  0
    7.3920    1.8100    0.0000 C   0  0  0  0  0  0  0  0  0  0  0  0
   13.4542   13.3100    0.0000 C   0  0  0  0  0  0  0  0  0  0  0  0
    9.1240    1.8100    0.0000 C   0  0  0  0  0  0  0  0  0  0  0  0
   11.7221   13.3100    0.0000 C   0  0  0  0  0  0  0  0  0  0  0  0
   12.5882   13.8100    0.0000 C   0  0  0  0  0  0  0  0  0  0  0  0
    8.2580    1.3100    0.0000 C   0  0  0  0  0  0  0  0  0  0  0  0
    6.4981    3.3447    0.0000 C   0  0  0  0  0  0  0  0  0  0  0  0
   14.3481   11.7753    0.0000 C   0  0  0  0  0  0  0  0  0  0  0  0
    9.9901    3.3100    0.0000 C   0  0  0  0  0  0  0  0  0  0  0  0
   10.8561   11.8100    0.0000 C   0  0  0  0  0  0  0  0  0  0  0  0
    6.4981    1.2753    0.0000 C   0  0  0  0  0  0  0  0  0  0  0  0
   14.3481   13.8447    0.0000 C   0  0  0  0  0  0  0  0  0  0  0  0
   15.2542   12.2892    0.0000 C   0  0  0  0  0  0  0  0  0  0  0  0
    5.5920    2.8308    0.0000 C   0  0  0  0  0  0  0  0  0  0  0  0
   15.2542   13.3308    0.0000 C   0  0  0  0  0  0  0  0  0  0  0  0
    5.5920    1.7892    0.0000 C   0  0  0  0  0  0  0  0  0  0  0  0
   11.0682    7.2274    0.0000 H   0  0  0  0  0  0  0  0  0  0  0  0
   11.4667    7.9177    0.0000 H   0  0  0  0  0  0  0  0  0  0  0  0
    9.7780    7.8926    0.0000 H   0  0  0  0  0  0  0  0  0  0  0  0
    9.3795    7.2023    0.0000 H   0  0  0  0  0  0  0  0  0  0  0  0
   10.6441    9.3926    0.0000 H   0  0  0  0  0  0  0  0  0  0  0  0
   10.2455    8.7023    0.0000 H   0  0  0  0  0  0  0  0  0  0  0  0
   10.2021    5.7274    0.0000 H   0  0  0  0  0  0  0  0  0  0  0  0
   10.6007    6.4177    0.0000 H   0  0  0  0  0  0  0  0  0  0  0  0
   11.9342    8.7274    0.0000 H   0  0  0  0  0  0  0  0  0  0  0  0
   12.3327    9.4177    0.0000 H   0  0  0  0  0  0  0  0  0  0  0  0
    8.9120    6.3926    0.0000 H   0  0  0  0  0  0  0  0  0  0  0  0
    8.5135    5.7023    0.0000 H   0  0  0  0  0  0  0  0  0  0  0  0
   11.5101   10.8926    0.0000 H   0  0  0  0  0  0  0  0  0  0  0  0
   11.1116   10.2023    0.0000 H   0  0  0  0  0  0  0  0  0  0  0  0
    9.3361    4.2274    0.0000 H   0  0  0  0  0  0  0  0  0  0  0  0
    9.7346    4.9177    0.0000 H   0  0  0  0  0  0  0  0  0  0  0  0
   12.8002   10.2274    0.0000 H   0  0  0  0  0  0  0  0  0  0  0  0
   13.1987   10.9177    0.0000 H   0  0  0  0  0  0  0  0  0  0  0  0
    8.0460    4.8926    0.0000 H   0  0  0  0  0  0  0  0  0  0  0  0
    7.6474    4.2023    0.0000 H   0  0  0  0  0  0  0  0  0  0  0  0
   11.1852   13.6200    0.0000 H   0  0  0  0  0  0  0  0  0  0  0  0
    9.6610    1.5000    0.0000 H   0  0  0  0  0  0  0  0  0  0  0  0
   14.3410   11.1554    0.0000 H   0  0  0  0  0  0  0  0  0  0  0  0
    6.5052    3.9646    0.0000 H   0  0  0  0  0  0  0  0  0  0  0  0
   10.5461   12.3469    0.0000 H   0  0  0  0  0  0  0  0  0  0  0  0
   10.3001    2.7731    0.0000 H   0  0  0  0  0  0  0  0  0  0  0  0
   10.5270    3.6200    0.0000 H   0  0  0  0  0  0  0  0  0  0  0  0
    9.6801    3.8469    0.0000 H   0  0  0  0  0  0  0  0  0  0  0  0
   10.3192   11.5000    0.0000 H   0  0  0  0  0  0  0  0  0  0  0  0
   11.1661   11.2731    0.0000 H   0  0  0  0  0  0  0  0  0  0  0  0
   14.3410   14.4646    0.0000 H   0  0  0  0  0  0  0  0  0  0  0  0
    6.5052    0.6554    0.0000 H   0  0  0  0  0  0  0  0  0  0  0  0
   15.7899   11.9771    0.0000 H   0  0  0  0  0  0  0  0  0  0  0  0
    5.0563    3.1429    0.0000 H   0  0  0  0  0  0  0  0  0  0  0  0
   15.7899   13.6429    0.0000 H   0  0  0  0  0  0  0  0  0  0  0  0
    5.0563    1.4771    0.0000 H   0  0  0  0  0  0  0  0  0  0  0  0
   12.0512   15.1200    0.0000 H   0  0  0  0  0  0  0  0  0  0  0  0
   13.1251   15.1200    0.0000 H   0  0  0  0  0  0  0  0  0  0  0  0
    8.7950    0.0000    0.0000 H   0  0  0  0  0  0  0  0  0  0  0  0
    7.7211    0.0000    0.0000 H   0  0  0  0  0  0  0  0  0  0  0  0
  3 15  1  0  0  0  0
  3 17  1  0  0  0  0
  3 20  2  0  0  0  0
  4 16  1  0  0  0  0
  4 18  1  0  0  0  0
  4 19  2  0  0  0  0
  5 25  1  0  0  0  0
  5 73  1  0  0  0  0
  5 74  1  0  0  0  0
  6 26  1  0  0  0  0
  6 75  1  0  0  0  0
  6 76  1  0  0  0  0
  7  8  1  0  0  0  0
  7  9  1  0  0  0  0
  7 39  1  0  0  0  0
  7 40  1  0  0  0  0
  8 10  1  0  0  0  0
  8 37  1  0  0  0  0
  8 38  1  0  0  0  0
  9 12  1  0  0  0  0
  9 43  1  0  0  0  0
  9 44  1  0  0  0  0
 10 11  1  0  0  0  0
 10 41  1  0  0  0  0
 10 42  1  0  0  0  0
 11 13  1  0  0  0  0
 11 45  1  0  0  0  0
 11 46  1  0  0  0  0
 12 14  1  0  0  0  0
 12 47  1  0  0  0  0
 12 48  1  0  0  0  0
 13 15  1  0  0  0  0
 13 49  1  0  0  0  0
 13 50  1  0  0  0  0
 14 16  1  0  0  0  0
 14 51  1  0  0  0  0
 14 52  1  0  0  0  0
 15 53  1  0  0  0  0
 15 54  1  0  0  0  0
 16 55  1  0  0  0  0
 16 56  1  0  0  0  0
 17 22  1  0  0  0  0
 17 28  2  0  0  0  0
 18 21  1  0  0  0  0
 18 27  2  0  0  0  0
 19 23  1  0  0  0  0
 19 29  1  0  0  0  0
 20 24  1  0  0  0  0
 20 30  1  0  0  0  0
 21 26  1  0  0  0  0
 21 31  2  0  0  0  0
 22 25  1  0  0  0  0
 22 32  2  0  0  0  0
 23 26  2  0  0  0  0
 23 58  1  0  0  0  0
 24 25  2  0  0  0  0
 24 57  1  0  0  0  0
 27 34  1  0  0  0  0
 27 60  1  0  0  0  0
 28 33  1  0  0  0  0
 28 59  1  0  0  0  0
 29 62  1  0  0  0  0
 29 63  1  0  0  0  0
 29 64  1  0  0  0  0
 30 61  1  0  0  0  0
 30 65  1  0  0  0  0
 30 66  1  0  0  0  0
 31 36  1  0  0  0  0
 31 68  1  0  0  0  0
 32 35  1  0  0  0  0
 32 67  1  0  0  0  0
 33 35  2  0  0  0  0
 33 69  1  0  0  0  0
 34 36  2  0  0  0  0
 34 70  1  0  0  0  0
 35 71  1  0  0  0  0
 36 72  1  0  0  0  0
M  CHG  4   1  -1   2  -1   3   1   4   1
M  END
> <PUBCHEM_COMPOUND_CID>
10649

> <PUBCHEM_COMPOUND_CANONICALIZED>
1

> <PUBCHEM_CACTVS_COMPLEXITY>
532

> <PUBCHEM_CACTVS_HBOND_ACCEPTOR>
4

> <PUBCHEM_CACTVS_HBOND_DONOR>
2

> <PUBCHEM_CACTVS_ROTATABLE_BOND>
11

> <PUBCHEM_CACTVS_SUBSKEYS>
AAADcfB7gAAGAAAAAAAAAAAAAAAAAAAAAAA8eIEAAAAAAACx/gAAHAAQAAAADAjBHgQywPNMEACgAyRiRACCgCAhAiAI2CA4ZJgIIOLA0dGEJAhgkADIyAcQgIAOAAAAAAACAAAAAAAAAAQAAAAAAAAAAA==

> <PUBCHEM_IUPAC_OPENEYE_NAME>
1-[10-(4-amino-2-methyl-quinolin-1-ium-1-yl)decyl]-2-methyl-quinolin-1-ium-4-amine dichloride

> <PUBCHEM_IUPAC_CAS_NAME>
1-[10-(4-amino-2-methyl-1-quinolin-1-iumyl)decyl]-2-methyl-4-quinolin-1-iumamine dichloride

> <PUBCHEM_IUPAC_NAME>
1-[10-(4-amino-2-methylquinolin-1-ium-1-yl)decyl]-2-methylquinolin-1-ium-4-amine dichloride

> <PUBCHEM_IUPAC_SYSTEMATIC_NAME>
1-[10-(4-azanyl-2-methyl-quinolin-1-ium-1-yl)decyl]-2-methyl-quinolin-1-ium-4-amine dichloride

> <PUBCHEM_IUPAC_TRADITIONAL_NAME>
[1-[10-(4-amino-2-methyl-quinolin-1-ium-1-yl)decyl]-2-methyl-quinolin-1-ium-4-yl]amine dichloride

> <PUBCHEM_IUPAC_INCHI>
InChI=1S/C30H38N4.2ClH/c1-23-21-27(31)25-15-9-11-17-29(25)33(23)19-13-7-5-3-4-6-8-14-20-34-24(2)22-28(32)26-16-10-12-18-30(26)34;;/h9-12,15-18,21-22,31-32H,3-8,13-14,19-20H2,1-2H3;2*1H

> <PUBCHEM_IUPAC_INCHIKEY>
LTNZEXKYNRNOGT-UHFFFAOYSA-N

> <PUBCHEM_EXACT_MASS>
526.263003

> <PUBCHEM_MOLECULAR_FORMULA>
C30H40Cl2N4

> <PUBCHEM_MOLECULAR_WEIGHT>
527.5714

> <PUBCHEM_OPENEYE_CAN_SMILES>
CC1=[N+](C2=CC=CC=C2C(=C1)N)CCCCCCCCCC[N+]3=C(C=C(C4=CC=CC=C43)N)C.[Cl-].[Cl-]

> <PUBCHEM_OPENEYE_ISO_SMILES>
CC1=[N+](C2=CC=CC=C2C(=C1)N)CCCCCCCCCC[N+]3=C(C=C(C4=CC=CC=C43)N)C.[Cl-].[Cl-]

> <PUBCHEM_CACTVS_TPSA>
59.8

> <PUBCHEM_MONOISOTOPIC_WEIGHT>
526.263003

> <PUBCHEM_TOTAL_CHARGE>
0

> <PUBCHEM_HEAVY_ATOM_COUNT>
36

> <PUBCHEM_ATOM_DEF_STEREO_COUNT>
0

> <PUBCHEM_ATOM_UDEF_STEREO_COUNT>
0

> <PUBCHEM_BOND_DEF_STEREO_COUNT>
0

> <PUBCHEM_BOND_UDEF_STEREO_COUNT>
0

> <PUBCHEM_ISOTOPIC_ATOM_COUNT>
0

> <PUBCHEM_COMPONENT_COUNT>
3

> <PUBCHEM_CACTVS_TAUTO_COUNT>
2

> <PUBCHEM_COORDINATE_TYPE>
1
5
255

> <PUBCHEM_BONDANNOTATIONS>
17  22  8
17  28  8
18  21  8
18  27  8
19  23  8
20  24  8
21  26  8
21  31  8
22  25  8
22  32  8
23  26  8
24  25  8
27  34  8
28  33  8
3  17  8
3  20  8
31  36  8
32  35  8
33  35  8
34  36  8
4  18  8
4  19  8

$$$$

