4000
  -OEChem-06251223482D

 52 54  0     0  0  0  0  0  0999 V2000
    8.0321   -1.9101    0.0000 O   0  0  0  0  0  0  0  0  0  0  0  0
    4.5274   -0.9976    0.0000 N   0  0  0  0  0  0  0  0  0  0  0  0
    5.3364   -1.5854    0.0000 C   0  0  0  0  0  0  0  0  0  0  0  0
    5.0274   -2.5364    0.0000 C   0  0  0  0  0  0  0  0  0  0  0  0
    6.3518   -1.3531    0.0000 C   0  0  0  0  0  0  0  0  0  0  0  0
    4.0274   -2.5364    0.0000 C   0  0  0  0  0  0  0  0  0  0  0  0
    3.7183   -1.5854    0.0000 C   0  0  0  0  0  0  0  0  0  0  0  0
    6.6498   -0.3985    0.0000 C   0  0  0  0  0  0  0  0  0  0  0  0
    7.0547   -2.1218    0.0000 C   0  0  0  0  0  0  0  0  0  0  0  0
    5.7123   -3.3211    0.0000 C   0  0  0  0  0  0  0  0  0  0  0  0
    6.7328   -3.1124    0.0000 C   0  0  0  0  0  0  0  0  0  0  0  0
    7.6255   -0.1793    0.0000 C   0  0  0  0  0  0  0  0  0  0  0  0
    3.3424   -3.3211    0.0000 C   0  0  0  0  0  0  0  0  0  0  0  0
    7.9235    0.7752    0.0000 C   0  0  0  0  0  0  0  0  0  0  0  0
    2.7029   -1.3531    0.0000 C   0  0  0  0  0  0  0  0  0  0  0  0
    8.8991    0.9945    0.0000 C   0  0  0  0  0  0  0  0  0  0  0  0
    7.3991   -3.8582    0.0000 C   0  0  0  0  0  0  0  0  0  0  0  0
    9.1971    1.9490    0.0000 C   0  0  0  0  0  0  0  0  0  0  0  0
    2.3219   -3.1124    0.0000 C   0  0  0  0  0  0  0  0  0  0  0  0
    2.0000   -2.1218    0.0000 C   0  0  0  0  0  0  0  0  0  0  0  0
    7.2458    1.5106    0.0000 C   0  0  0  0  0  0  0  0  0  0  0  0
   10.1728    2.1682    0.0000 C   0  0  0  0  0  0  0  0  0  0  0  0
   10.4708    3.1228    0.0000 C   0  0  0  0  0  0  0  0  0  0  0  0
   11.4465    3.3420    0.0000 C   0  0  0  0  0  0  0  0  0  0  0  0
    9.7931    3.8582    0.0000 C   0  0  0  0  0  0  0  0  0  0  0  0
    6.6210    0.2208    0.0000 H   0  0  0  0  0  0  0  0  0  0  0  0
    6.0349   -0.3193    0.0000 H   0  0  0  0  0  0  0  0  0  0  0  0
    4.5274   -0.3776    0.0000 H   0  0  0  0  0  0  0  0  0  0  0  0
    5.5139   -3.9085    0.0000 H   0  0  0  0  0  0  0  0  0  0  0  0
    8.0456   -0.6352    0.0000 H   0  0  0  0  0  0  0  0  0  0  0  0
    3.5408   -3.9085    0.0000 H   0  0  0  0  0  0  0  0  0  0  0  0
    2.5182   -0.7613    0.0000 H   0  0  0  0  0  0  0  0  0  0  0  0
    8.9279    0.3751    0.0000 H   0  0  0  0  0  0  0  0  0  0  0  0
    9.5141    0.9153    0.0000 H   0  0  0  0  0  0  0  0  0  0  0  0
    6.9368   -4.2712    0.0000 H   0  0  0  0  0  0  0  0  0  0  0  0
    7.8122   -4.3205    0.0000 H   0  0  0  0  0  0  0  0  0  0  0  0
    7.8614   -3.4451    0.0000 H   0  0  0  0  0  0  0  0  0  0  0  0
    9.1683    2.5684    0.0000 H   0  0  0  0  0  0  0  0  0  0  0  0
    8.5822    2.0282    0.0000 H   0  0  0  0  0  0  0  0  0  0  0  0
    1.9088   -3.5748    0.0000 H   0  0  0  0  0  0  0  0  0  0  0  0
    1.3940   -1.9905    0.0000 H   0  0  0  0  0  0  0  0  0  0  0  0
    7.7017    1.9308    0.0000 H   0  0  0  0  0  0  0  0  0  0  0  0
    6.8256    1.9665    0.0000 H   0  0  0  0  0  0  0  0  0  0  0  0
    6.7899    1.0904    0.0000 H   0  0  0  0  0  0  0  0  0  0  0  0
    8.4487   -2.3692    0.0000 H   0  0  0  0  0  0  0  0  0  0  0  0
   10.5930    1.7123    0.0000 H   0  0  0  0  0  0  0  0  0  0  0  0
   11.5824    2.7371    0.0000 H   0  0  0  0  0  0  0  0  0  0  0  0
   12.0514    3.4779    0.0000 H   0  0  0  0  0  0  0  0  0  0  0  0
   11.3106    3.9469    0.0000 H   0  0  0  0  0  0  0  0  0  0  0  0
   10.2491    4.2783    0.0000 H   0  0  0  0  0  0  0  0  0  0  0  0
    9.3730    4.3141    0.0000 H   0  0  0  0  0  0  0  0  0  0  0  0
    9.3372    3.4380    0.0000 H   0  0  0  0  0  0  0  0  0  0  0  0
  1  9  1  0  0  0  0
  1 45  1  0  0  0  0
  2  3  1  0  0  0  0
  2  7  1  0  0  0  0
  2 28  1  0  0  0  0
  3  4  2  0  0  0  0
  3  5  1  0  0  0  0
  4  6  1  0  0  0  0
  4 10  1  0  0  0  0
  5  8  1  0  0  0  0
  5  9  2  0  0  0  0
  6  7  1  0  0  0  0
  6 13  2  0  0  0  0
  7 15  2  0  0  0  0
  8 12  1  0  0  0  0
  8 26  1  0  0  0  0
  8 27  1  0  0  0  0
  9 11  1  0  0  0  0
 10 11  2  0  0  0  0
 10 29  1  0  0  0  0
 11 17  1  0  0  0  0
 12 14  2  3  0  0  0
 12 30  1  0  0  0  0
 13 19  1  0  0  0  0
 13 31  1  0  0  0  0
 14 16  1  0  0  0  0
 14 21  1  0  0  0  0
 15 20  1  0  0  0  0
 15 32  1  0  0  0  0
 16 18  1  0  0  0  0
 16 33  1  0  0  0  0
 16 34  1  0  0  0  0
 17 35  1  0  0  0  0
 17 36  1  0  0  0  0
 17 37  1  0  0  0  0
 18 22  1  0  0  0  0
 18 38  1  0  0  0  0
 18 39  1  0  0  0  0
 19 20  2  0  0  0  0
 19 40  1  0  0  0  0
 20 41  1  0  0  0  0
 21 42  1  0  0  0  0
 21 43  1  0  0  0  0
 21 44  1  0  0  0  0
 22 23  2  0  0  0  0
 22 46  1  0  0  0  0
 23 24  1  0  0  0  0
 23 25  1  0  0  0  0
 24 47  1  0  0  0  0
 24 48  1  0  0  0  0
 24 49  1  0  0  0  0
 25 50  1  0  0  0  0
 25 51  1  0  0  0  0
 25 52  1  0  0  0  0
M  END
> <PUBCHEM_COMPOUND_CID>
4000

> <PUBCHEM_COMPOUND_CANONICALIZED>
1

> <PUBCHEM_CACTVS_COMPLEXITY>
504

> <PUBCHEM_CACTVS_HBOND_ACCEPTOR>
1

> <PUBCHEM_CACTVS_HBOND_DONOR>
2

> <PUBCHEM_CACTVS_ROTATABLE_BOND>
5

> <PUBCHEM_CACTVS_SUBSKEYS>
AAADceB6IAAAAAAAAAAAAAAAAAAAAWAAAAAwYAAAAAAAAFgB/AAAHgAQCAAADAyBngAyxvLJkgCgAyRiRACCgCAhIiAImSA0bJgIJuLCkZOEcAhm0BnI2AeQ0PMOqAACAgAKAABQAAQEABQAAAAAAAAAAA==

> <PUBCHEM_IUPAC_OPENEYE_NAME>
1-(3,7-dimethylocta-2,6-dienyl)-3-methyl-9H-carbazol-2-ol

> <PUBCHEM_IUPAC_CAS_NAME>
1-(3,7-dimethylocta-2,6-dienyl)-3-methyl-9H-carbazol-2-ol

> <PUBCHEM_IUPAC_NAME>
1-(3,7-dimethylocta-2,6-dienyl)-3-methyl-9H-carbazol-2-ol

> <PUBCHEM_IUPAC_SYSTEMATIC_NAME>
1-(3,7-dimethylocta-2,6-dienyl)-3-methyl-9H-carbazol-2-ol

> <PUBCHEM_IUPAC_TRADITIONAL_NAME>
1-(3,7-dimethylocta-2,6-dienyl)-3-methyl-9H-carbazol-2-ol

> <PUBCHEM_IUPAC_INCHI>
InChI=1S/C23H27NO/c1-15(2)8-7-9-16(3)12-13-19-22-20(14-17(4)23(19)25)18-10-5-6-11-21(18)24-22/h5-6,8,10-12,14,24-25H,7,9,13H2,1-4H3

> <PUBCHEM_IUPAC_INCHIKEY>
JSSIAXXILAGJKE-UHFFFAOYSA-N

> <PUBCHEM_XLOGP3_AA>
7.2

> <PUBCHEM_EXACT_MASS>
333.209264

> <PUBCHEM_MOLECULAR_FORMULA>
C23H27NO

> <PUBCHEM_MOLECULAR_WEIGHT>
333.46658

> <PUBCHEM_OPENEYE_CAN_SMILES>
CC1=C(C(=C2C(=C1)C3=CC=CC=C3N2)CC=C(C)CCC=C(C)C)O

> <PUBCHEM_OPENEYE_ISO_SMILES>
CC1=C(C(=C2C(=C1)C3=CC=CC=C3N2)CC=C(C)CCC=C(C)C)O

> <PUBCHEM_CACTVS_TPSA>
36

> <PUBCHEM_MONOISOTOPIC_WEIGHT>
333.209264

> <PUBCHEM_TOTAL_CHARGE>
0

> <PUBCHEM_HEAVY_ATOM_COUNT>
25

> <PUBCHEM_ATOM_DEF_STEREO_COUNT>
0

> <PUBCHEM_ATOM_UDEF_STEREO_COUNT>
0

> <PUBCHEM_BOND_DEF_STEREO_COUNT>
0

> <PUBCHEM_BOND_UDEF_STEREO_COUNT>
1

> <PUBCHEM_ISOTOPIC_ATOM_COUNT>
0

> <PUBCHEM_COMPONENT_COUNT>
1

> <PUBCHEM_CACTVS_TAUTO_COUNT>
9

> <PUBCHEM_COORDINATE_TYPE>
1
5
255

> <PUBCHEM_BONDANNOTATIONS>
10  11  8
12  14  1
13  19  8
15  20  8
19  20  8
2  3  8
2  7  8
3  4  8
3  5  8
4  10  8
4  6  8
5  9  8
6  13  8
6  7  8
7  15  8
9  11  8

$$$$

