10064
  -OEChem-06261204172D

 45 49  0     1  0  0  0  0  0999 V2000
    7.3434    0.2295    0.0000 O   0  0  0  0  0  0  0  0  0  0  0  0
    4.8988    2.6569    0.0000 O   0  0  0  0  0  0  0  0  0  0  0  0
    8.3739    2.1667    0.0000 O   0  0  0  0  0  0  0  0  0  0  0  0
    7.0648   -2.3132    0.0000 O   0  0  0  0  0  0  0  0  0  0  0  0
    4.3958    0.9983    0.0000 N   0  0  3  0  0  0  0  0  0  0  0  0
    5.9510    1.0367    0.0000 C   0  0  1  0  0  0  0  0  0  0  0  0
    5.2078    1.7058    0.0000 C   0  0  1  0  0  0  0  0  0  0  0  0
    4.2568    1.3968    0.0000 C   0  0  2  0  0  0  0  0  0  0  0  0
    6.9399    1.1380    0.0000 C   0  0  2  0  0  0  0  0  0  0  0  0
    5.6619    0.7292    0.0000 C   0  0  0  0  0  0  0  0  0  0  0  0
    5.7431    0.0585    0.0000 C   0  0  0  0  0  0  0  0  0  0  0  0
    5.7480    2.8146    0.0000 C   0  0  0  0  0  0  0  0  0  0  0  0
    4.0489    0.4186    0.0000 C   0  0  0  0  0  0  0  0  0  0  0  0
    4.9311    0.4038    0.0000 C   0  0  0  0  0  0  0  0  0  0  0  0
    4.7920   -0.2505    0.0000 C   0  0  0  0  0  0  0  0  0  0  0  0
    6.7780    2.9202    0.0000 C   0  0  0  0  0  0  0  0  0  0  0  0
    7.3780    2.0762    0.0000 C   0  0  0  0  0  0  0  0  0  0  0  0
    6.5278   -0.6264    0.0000 C   0  0  0  0  0  0  0  0  0  0  0  0
    3.4013    0.8938    0.0000 C   0  0  0  0  0  0  0  0  0  0  0  0
    4.5598   -1.2659    0.0000 C   0  0  0  0  0  0  0  0  0  0  0  0
    6.3191   -1.6470    0.0000 C   0  0  0  0  0  0  0  0  0  0  0  0
    5.3284   -1.9688    0.0000 C   0  0  0  0  0  0  0  0  0  0  0  0
    2.9945   -0.0197    0.0000 C   0  0  0  0  0  0  0  0  0  0  0  0
    2.0000   -0.1243    0.0000 C   0  0  0  0  0  0  0  0  0  0  0  0
    3.4743    1.5631    0.0000 H   0  0  0  0  0  0  0  0  0  0  0  0
    7.7398    1.1305    0.0000 H   0  0  0  0  0  0  0  0  0  0  0  0
    5.6791    0.1094    0.0000 H   0  0  0  0  0  0  0  0  0  0  0  0
    5.3029    1.2347    0.0000 H   0  0  0  0  0  0  0  0  0  0  0  0
    5.7994    3.4325    0.0000 H   0  0  0  0  0  0  0  0  0  0  0  0
    5.1501    2.9789    0.0000 H   0  0  0  0  0  0  0  0  0  0  0  0
    3.4740    0.6509    0.0000 H   0  0  0  0  0  0  0  0  0  0  0  0
    3.7203   -0.1071    0.0000 H   0  0  0  0  0  0  0  0  0  0  0  0
    4.4295    0.0394    0.0000 H   0  0  0  0  0  0  0  0  0  0  0  0
    5.2411   -0.1331    0.0000 H   0  0  0  0  0  0  0  0  0  0  0  0
    7.3374    3.1876    0.0000 H   0  0  0  0  0  0  0  0  0  0  0  0
    6.6102    3.5170    0.0000 H   0  0  0  0  0  0  0  0  0  0  0  0
    4.2924    2.7858    0.0000 H   0  0  0  0  0  0  0  0  0  0  0  0
    3.4445    1.5123    0.0000 H   0  0  0  0  0  0  0  0  0  0  0  0
    2.7997    1.0438    0.0000 H   0  0  0  0  0  0  0  0  0  0  0  0
    3.9679   -1.4507    0.0000 H   0  0  0  0  0  0  0  0  0  0  0  0
    5.1972   -2.5748    0.0000 H   0  0  0  0  0  0  0  0  0  0  0  0
    3.3589   -0.5213    0.0000 H   0  0  0  0  0  0  0  0  0  0  0  0
    6.9382   -2.9202    0.0000 H   0  0  0  0  0  0  0  0  0  0  0  0
    1.6356    0.3773    0.0000 H   0  0  0  0  0  0  0  0  0  0  0  0
    1.7478   -0.6907    0.0000 H   0  0  0  0  0  0  0  0  0  0  0  0
  1  9  1  0  0  0  0
  1 18  1  0  0  0  0
  2  7  1  0  0  0  0
  2 37  1  0  0  0  0
  3 17  2  0  0  0  0
  4 21  1  0  0  0  0
  4 43  1  0  0  0  0
  5  8  1  0  0  0  0
  5 14  1  0  0  0  0
  5 19  1  0  0  0  0
  6  7  1  0  0  0  0
  6  9  1  0  0  0  0
  6 10  1  0  0  0  0
  6 11  1  0  0  0  0
  7  8  1  0  0  0  0
  7 12  1  0  0  0  0
  8 13  1  0  0  0  0
  8 25  1  0  0  0  0
  9 17  1  0  0  0  0
  9 26  1  0  0  0  0
 10 14  1  0  0  0  0
 10 27  1  0  0  0  0
 10 28  1  0  0  0  0
 11 15  2  0  0  0  0
 11 18  1  0  0  0  0
 12 16  1  0  0  0  0
 12 29  1  0  0  0  0
 12 30  1  0  0  0  0
 13 15  1  0  0  0  0
 13 31  1  0  0  0  0
 13 32  1  0  0  0  0
 14 33  1  0  0  0  0
 14 34  1  0  0  0  0
 15 20  1  0  0  0  0
 16 17  1  0  0  0  0
 16 35  1  0  0  0  0
 16 36  1  0  0  0  0
 18 21  2  0  0  0  0
 19 23  1  0  0  0  0
 19 38  1  0  0  0  0
 19 39  1  0  0  0  0
 20 22  2  0  0  0  0
 20 40  1  0  0  0  0
 21 22  1  0  0  0  0
 22 41  1  0  0  0  0
 23 24  2  0  0  0  0
 23 42  1  0  0  0  0
 24 44  1  0  0  0  0
 24 45  1  0  0  0  0
M  END
> <PUBCHEM_COMPOUND_CID>
10064

> <PUBCHEM_COMPOUND_CANONICALIZED>
1

> <PUBCHEM_CACTVS_COMPLEXITY>
594

> <PUBCHEM_CACTVS_HBOND_ACCEPTOR>
5

> <PUBCHEM_CACTVS_HBOND_DONOR>
2

> <PUBCHEM_CACTVS_ROTATABLE_BOND>
2

> <PUBCHEM_CACTVS_SUBSKEYS>
AAADceB6OAAAAAAAAAAAAAAAAAAAASAAAAA8YMEAAAAWAEjxAAAAHgAACAAADnzhmAYwBoMABgCIAqBSAAKCCAAgIAAIiAFOiIgPJjKGsR+GeCOlwBGbuAf6/f/foAABAAAYQADQAAaQADSgAAAAAAAAAA==

> <PUBCHEM_IUPAC_OPENEYE_NAME>
(4S,4aS,7aR,12bS)-3-allyl-4a,9-dihydroxy-2,4,5,6,7a,13-hexahydro-1H-4,12-methanobenzofuro[3,2-e]isoquinoline-7-one

> <PUBCHEM_IUPAC_CAS_NAME>
(4S,4aS,7aR,12bS)-4a,9-dihydroxy-3-prop-2-enyl-2,4,5,6,7a,13-hexahydro-1H-4,12-methanobenzofuro[3,2-e]isoquinoline-7-one

> <PUBCHEM_IUPAC_NAME>
(4S,4aS,7aR,12bS)-4a,9-dihydroxy-3-prop-2-enyl-2,4,5,6,7a,13-hexahydro-1H-4,12-methanobenzofuro[3,2-e]isoquinoline-7-one

> <PUBCHEM_IUPAC_SYSTEMATIC_NAME>
(4S,4aS,7aR,12bS)-4a,9-bis(oxidanyl)-3-prop-2-enyl-2,4,5,6,7a,13-hexahydro-1H-4,12-methanobenzofuro[3,2-e]isoquinoline-7-one

> <PUBCHEM_IUPAC_TRADITIONAL_NAME>
(4S,4aS,7aR,12bS)-3-allyl-4a,9-dihydroxy-2,4,5,6,7a,13-hexahydro-1H-4,12-methanobenzofuro[3,2-e]isoquinoline-7-one

> <PUBCHEM_IUPAC_INCHI>
InChI=1S/C19H21NO4/c1-2-8-20-9-7-18-15-11-3-4-12(21)16(15)24-17(18)13(22)5-6-19(18,23)14(20)10-11/h2-4,14,17,21,23H,1,5-10H2/t14-,17-,18-,19+/m0/s1

> <PUBCHEM_IUPAC_INCHIKEY>
UZHSEJADLWPNLE-UDTPNQRGSA-N

> <PUBCHEM_XLOGP3>
2.1

> <PUBCHEM_EXACT_MASS>
327.147058

> <PUBCHEM_MOLECULAR_FORMULA>
C19H21NO4

> <PUBCHEM_MOLECULAR_WEIGHT>
327.37434

> <PUBCHEM_OPENEYE_CAN_SMILES>
C=CCN1CCC23C4C(=O)CCC2(C1CC5=C3C(=C(C=C5)O)O4)O

> <PUBCHEM_OPENEYE_ISO_SMILES>
C=CCN1CC[C@]23[C@@H]4C(=O)CC[C@]2([C@@H]1CC5=C3C(=C(C=C5)O)O4)O

> <PUBCHEM_CACTVS_TPSA>
70

> <PUBCHEM_MONOISOTOPIC_WEIGHT>
327.147058

> <PUBCHEM_TOTAL_CHARGE>
0

> <PUBCHEM_HEAVY_ATOM_COUNT>
24

> <PUBCHEM_ATOM_DEF_STEREO_COUNT>
4

> <PUBCHEM_ATOM_UDEF_STEREO_COUNT>
0

> <PUBCHEM_BOND_DEF_STEREO_COUNT>
0

> <PUBCHEM_BOND_UDEF_STEREO_COUNT>
0

> <PUBCHEM_ISOTOPIC_ATOM_COUNT>
0

> <PUBCHEM_COMPONENT_COUNT>
1

> <PUBCHEM_CACTVS_TAUTO_COUNT>
9

> <PUBCHEM_COORDINATE_TYPE>
1
5
255

> <PUBCHEM_BONDANNOTATIONS>
11  15  8
11  18  8
15  20  8
18  21  8
7  2  3
20  22  8
21  22  8
6  10  3
8  25  3
9  26  3

$$$$

