5169
  -OEChem-06261200332D

 39 42  0     0  0  0  0  0  0999 V2000
    2.0000    4.5425    0.0000 F   0  0  0  0  0  0  0  0  0  0  0  0
    4.8511   -4.2325    0.0000 O   0  0  0  0  0  0  0  0  0  0  0  0
    5.6602    0.3553    0.0000 N   0  0  0  0  0  0  0  0  0  0  0  0
    4.0421    0.3553    0.0000 N   0  0  0  0  0  0  0  0  0  0  0  0
    7.1145    3.7334    0.0000 N   0  0  0  0  0  0  0  0  0  0  0  0
    5.3511    1.3064    0.0000 C   0  0  0  0  0  0  0  0  0  0  0  0
    4.3511    1.3064    0.0000 C   0  0  0  0  0  0  0  0  0  0  0  0
    4.8511   -0.2325    0.0000 C   0  0  0  0  0  0  0  0  0  0  0  0
    3.7634    2.1154    0.0000 C   0  0  0  0  0  0  0  0  0  0  0  0
    5.9389    2.1154    0.0000 C   0  0  0  0  0  0  0  0  0  0  0  0
    4.8511   -1.2325    0.0000 C   0  0  0  0  0  0  0  0  0  0  0  0
    2.7688    2.0109    0.0000 C   0  0  0  0  0  0  0  0  0  0  0  0
    4.1701    3.0289    0.0000 C   0  0  0  0  0  0  0  0  0  0  0  0
    5.7172   -1.7325    0.0000 C   0  0  0  0  0  0  0  0  0  0  0  0
    3.9851   -1.7325    0.0000 C   0  0  0  0  0  0  0  0  0  0  0  0
    5.5322    3.0289    0.0000 C   0  0  0  0  0  0  0  0  0  0  0  0
    6.9334    2.0109    0.0000 C   0  0  0  0  0  0  0  0  0  0  0  0
    2.1810    2.8199    0.0000 C   0  0  0  0  0  0  0  0  0  0  0  0
    3.5823    3.8380    0.0000 C   0  0  0  0  0  0  0  0  0  0  0  0
    5.7172   -2.7325    0.0000 C   0  0  0  0  0  0  0  0  0  0  0  0
    3.9851   -2.7325    0.0000 C   0  0  0  0  0  0  0  0  0  0  0  0
    4.8511   -3.2325    0.0000 C   0  0  0  0  0  0  0  0  0  0  0  0
    2.5878    3.7334    0.0000 C   0  0  0  0  0  0  0  0  0  0  0  0
    6.1200    3.8380    0.0000 C   0  0  0  0  0  0  0  0  0  0  0  0
    7.5212    2.8199    0.0000 C   0  0  0  0  0  0  0  0  0  0  0  0
    6.2498    0.1637    0.0000 H   0  0  0  0  0  0  0  0  0  0  0  0
    2.5167    1.4445    0.0000 H   0  0  0  0  0  0  0  0  0  0  0  0
    4.7867    3.0938    0.0000 H   0  0  0  0  0  0  0  0  0  0  0  0
    6.2541   -1.4225    0.0000 H   0  0  0  0  0  0  0  0  0  0  0  0
    3.4482   -1.4225    0.0000 H   0  0  0  0  0  0  0  0  0  0  0  0
    4.9156    3.0938    0.0000 H   0  0  0  0  0  0  0  0  0  0  0  0
    7.1856    1.4445    0.0000 H   0  0  0  0  0  0  0  0  0  0  0  0
    1.5644    2.7551    0.0000 H   0  0  0  0  0  0  0  0  0  0  0  0
    3.8345    4.4044    0.0000 H   0  0  0  0  0  0  0  0  0  0  0  0
    6.2541   -3.0425    0.0000 H   0  0  0  0  0  0  0  0  0  0  0  0
    3.4482   -3.0425    0.0000 H   0  0  0  0  0  0  0  0  0  0  0  0
    5.8678    4.4044    0.0000 H   0  0  0  0  0  0  0  0  0  0  0  0
    8.1378    2.7551    0.0000 H   0  0  0  0  0  0  0  0  0  0  0  0
    4.3142   -4.5425    0.0000 H   0  0  0  0  0  0  0  0  0  0  0  0
  1 23  1  0  0  0  0
  2 22  1  0  0  0  0
  2 39  1  0  0  0  0
  3  6  1  0  0  0  0
  3  8  1  0  0  0  0
  3 26  1  0  0  0  0
  4  7  1  0  0  0  0
  4  8  2  0  0  0  0
  5 24  2  0  0  0  0
  5 25  1  0  0  0  0
  6  7  2  0  0  0  0
  6 10  1  0  0  0  0
  7  9  1  0  0  0  0
  8 11  1  0  0  0  0
  9 12  2  0  0  0  0
  9 13  1  0  0  0  0
 10 16  2  0  0  0  0
 10 17  1  0  0  0  0
 11 14  2  0  0  0  0
 11 15  1  0  0  0  0
 12 18  1  0  0  0  0
 12 27  1  0  0  0  0
 13 19  2  0  0  0  0
 13 28  1  0  0  0  0
 14 20  1  0  0  0  0
 14 29  1  0  0  0  0
 15 21  2  0  0  0  0
 15 30  1  0  0  0  0
 16 24  1  0  0  0  0
 16 31  1  0  0  0  0
 17 25  2  0  0  0  0
 17 32  1  0  0  0  0
 18 23  2  0  0  0  0
 18 33  1  0  0  0  0
 19 23  1  0  0  0  0
 19 34  1  0  0  0  0
 20 22  2  0  0  0  0
 20 35  1  0  0  0  0
 21 22  1  0  0  0  0
 21 36  1  0  0  0  0
 24 37  1  0  0  0  0
 25 38  1  0  0  0  0
M  END
> <PUBCHEM_COMPOUND_CID>
5169

> <PUBCHEM_COMPOUND_CANONICALIZED>
1

> <PUBCHEM_CACTVS_COMPLEXITY>
415

> <PUBCHEM_CACTVS_HBOND_ACCEPTOR>
4

> <PUBCHEM_CACTVS_HBOND_DONOR>
2

> <PUBCHEM_CACTVS_ROTATABLE_BOND>
3

> <PUBCHEM_CACTVS_SUBSKEYS>
AAADccB7IQAAAAAAAAAAAAAAAAAAAWAAAAA8YIAAAAAAAAAB9AAAHwAQCAAADAzBnww9lpbJkgCgAzZnZACCgC2xMqAJ2SA+fJiIbuLCmZOUcAhswBPI2CeQ0MIOIAAAAAAAAABAAAAAAAAAAAAAAAAAAA==

> <PUBCHEM_IUPAC_OPENEYE_NAME>
4-[4-(4-fluorophenyl)-5-(4-pyridyl)-1H-imidazol-2-yl]phenol

> <PUBCHEM_IUPAC_CAS_NAME>
4-[4-(4-fluorophenyl)-5-pyridin-4-yl-1H-imidazol-2-yl]phenol

> <PUBCHEM_IUPAC_NAME>
4-[4-(4-fluorophenyl)-5-pyridin-4-yl-1H-imidazol-2-yl]phenol

> <PUBCHEM_IUPAC_SYSTEMATIC_NAME>
4-[4-(4-fluorophenyl)-5-pyridin-4-yl-1H-imidazol-2-yl]phenol

> <PUBCHEM_IUPAC_TRADITIONAL_NAME>
4-[4-(4-fluorophenyl)-5-(4-pyridyl)-1H-imidazol-2-yl]phenol

> <PUBCHEM_IUPAC_INCHI>
InChI=1S/C20H14FN3O/c21-16-5-1-13(2-6-16)18-19(14-9-11-22-12-10-14)24-20(23-18)15-3-7-17(25)8-4-15/h1-12,25H,(H,23,24)

> <PUBCHEM_IUPAC_INCHIKEY>
QHKYPYXTTXKZST-UHFFFAOYSA-N

> <PUBCHEM_XLOGP3_AA>
3.7

> <PUBCHEM_EXACT_MASS>
331.11209

> <PUBCHEM_MOLECULAR_FORMULA>
C20H14FN3O

> <PUBCHEM_MOLECULAR_WEIGHT>
331.343063

> <PUBCHEM_OPENEYE_CAN_SMILES>
C1=CC(=CC=C1C2=NC(=C(N2)C3=CC=NC=C3)C4=CC=C(C=C4)F)O

> <PUBCHEM_OPENEYE_ISO_SMILES>
C1=CC(=CC=C1C2=NC(=C(N2)C3=CC=NC=C3)C4=CC=C(C=C4)F)O

> <PUBCHEM_CACTVS_TPSA>
61.8

> <PUBCHEM_MONOISOTOPIC_WEIGHT>
331.11209

> <PUBCHEM_TOTAL_CHARGE>
0

> <PUBCHEM_HEAVY_ATOM_COUNT>
25

> <PUBCHEM_ATOM_DEF_STEREO_COUNT>
0

> <PUBCHEM_ATOM_UDEF_STEREO_COUNT>
0

> <PUBCHEM_BOND_DEF_STEREO_COUNT>
0

> <PUBCHEM_BOND_UDEF_STEREO_COUNT>
0

> <PUBCHEM_ISOTOPIC_ATOM_COUNT>
0

> <PUBCHEM_COMPONENT_COUNT>
1

> <PUBCHEM_CACTVS_TAUTO_COUNT>
8

> <PUBCHEM_COORDINATE_TYPE>
1
5
255

> <PUBCHEM_BONDANNOTATIONS>
10  16  8
10  17  8
11  14  8
11  15  8
12  18  8
13  19  8
14  20  8
15  21  8
16  24  8
17  25  8
18  23  8
19  23  8
20  22  8
21  22  8
3  6  8
3  8  8
4  7  8
4  8  8
5  24  8
5  25  8
6  7  8
9  12  8
9  13  8

$$$$

