17396135
  -OEChem-06241222542D

 46 48  0     1  0  0  0  0  0999 V2000
    4.4865    0.8401    0.0000 S   0  0  0  0  0  0  0  0  0  0  0  0
    5.6620    2.4581    0.0000 O   0  0  0  0  0  0  0  0  0  0  0  0
    3.3987   -5.5078    0.0000 O   0  0  0  0  0  0  0  0  0  0  0  0
    4.2608    3.4762    0.0000 N   0  0  0  0  0  0  0  0  0  0  0  0
    2.5896   -0.9200    0.0000 N   0  0  0  0  0  0  0  0  0  0  0  0
    4.2077   -0.9200    0.0000 N   0  0  0  0  0  0  0  0  0  0  0  0
    2.8987    0.0311    0.0000 N   0  0  0  0  0  0  0  0  0  0  0  0
    4.0797    1.7536    0.0000 C   0  0  3  0  0  0  0  0  0  0  0  0
    4.6675    2.5626    0.0000 C   0  0  0  0  0  0  0  0  0  0  0  0
    4.8486    4.2852    0.0000 C   0  0  0  0  0  0  0  0  0  0  0  0
    3.0852    1.8582    0.0000 C   0  0  0  0  0  0  0  0  0  0  0  0
    3.2662    3.5807    0.0000 C   0  0  0  0  0  0  0  0  0  0  0  0
    3.3987   -2.5078    0.0000 C   0  0  0  0  0  0  0  0  0  0  0  0
    3.3987   -1.5078    0.0000 C   0  0  0  0  0  0  0  0  0  0  0  0
    3.8987    0.0311    0.0000 C   0  0  0  0  0  0  0  0  0  0  0  0
    5.8431    4.1807    0.0000 C   0  0  0  0  0  0  0  0  0  0  0  0
    4.4418    5.1988    0.0000 C   0  0  0  0  0  0  0  0  0  0  0  0
    2.5326   -3.0078    0.0000 C   0  0  0  0  0  0  0  0  0  0  0  0
    4.2647   -3.0078    0.0000 C   0  0  0  0  0  0  0  0  0  0  0  0
    6.4309    4.9897    0.0000 C   0  0  0  0  0  0  0  0  0  0  0  0
    5.0296    6.0078    0.0000 C   0  0  0  0  0  0  0  0  0  0  0  0
    3.3987   -4.5078    0.0000 C   0  0  0  0  0  0  0  0  0  0  0  0
    2.5326   -4.0078    0.0000 C   0  0  0  0  0  0  0  0  0  0  0  0
    4.2647   -4.0078    0.0000 C   0  0  0  0  0  0  0  0  0  0  0  0
    6.0241    5.9032    0.0000 C   0  0  0  0  0  0  0  0  0  0  0  0
    4.2647   -6.0078    0.0000 C   0  0  0  0  0  0  0  0  0  0  0  0
    3.7153    1.2520    0.0000 H   0  0  0  0  0  0  0  0  0  0  0  0
    3.1500    2.4748    0.0000 H   0  0  0  0  0  0  0  0  0  0  0  0
    2.4686    1.9230    0.0000 H   0  0  0  0  0  0  0  0  0  0  0  0
    3.0204    1.2416    0.0000 H   0  0  0  0  0  0  0  0  0  0  0  0
    3.3310    4.1973    0.0000 H   0  0  0  0  0  0  0  0  0  0  0  0
    2.6496    3.6455    0.0000 H   0  0  0  0  0  0  0  0  0  0  0  0
    3.2014    2.9641    0.0000 H   0  0  0  0  0  0  0  0  0  0  0  0
    6.0952    3.6143    0.0000 H   0  0  0  0  0  0  0  0  0  0  0  0
    3.8252    5.2636    0.0000 H   0  0  0  0  0  0  0  0  0  0  0  0
    1.9957   -2.6978    0.0000 H   0  0  0  0  0  0  0  0  0  0  0  0
    4.8016   -2.6978    0.0000 H   0  0  0  0  0  0  0  0  0  0  0  0
    2.0000   -1.1116    0.0000 H   0  0  0  0  0  0  0  0  0  0  0  0
    7.0475    4.9249    0.0000 H   0  0  0  0  0  0  0  0  0  0  0  0
    4.7774    6.5742    0.0000 H   0  0  0  0  0  0  0  0  0  0  0  0
    1.9957   -4.3178    0.0000 H   0  0  0  0  0  0  0  0  0  0  0  0
    4.8016   -4.3178    0.0000 H   0  0  0  0  0  0  0  0  0  0  0  0
    6.3886    6.4048    0.0000 H   0  0  0  0  0  0  0  0  0  0  0  0
    3.9547   -6.5447    0.0000 H   0  0  0  0  0  0  0  0  0  0  0  0
    4.8016   -6.3178    0.0000 H   0  0  0  0  0  0  0  0  0  0  0  0
    4.5747   -5.4708    0.0000 H   0  0  0  0  0  0  0  0  0  0  0  0
  1  8  1  0  0  0  0
  1 15  1  0  0  0  0
  2  9  2  0  0  0  0
  3 22  1  0  0  0  0
  3 26  1  0  0  0  0
  4  9  1  0  0  0  0
  4 10  1  0  0  0  0
  4 12  1  0  0  0  0
  5  7  1  0  0  0  0
  5 14  1  0  0  0  0
  5 38  1  0  0  0  0
  6 14  2  0  0  0  0
  6 15  1  0  0  0  0
  7 15  2  0  0  0  0
  8  9  1  0  0  0  0
  8 11  1  0  0  0  0
  8 27  1  0  0  0  0
 10 16  2  0  0  0  0
 10 17  1  0  0  0  0
 11 28  1  0  0  0  0
 11 29  1  0  0  0  0
 11 30  1  0  0  0  0
 12 31  1  0  0  0  0
 12 32  1  0  0  0  0
 12 33  1  0  0  0  0
 13 14  1  0  0  0  0
 13 18  2  0  0  0  0
 13 19  1  0  0  0  0
 16 20  1  0  0  0  0
 16 34  1  0  0  0  0
 17 21  2  0  0  0  0
 17 35  1  0  0  0  0
 18 23  1  0  0  0  0
 18 36  1  0  0  0  0
 19 24  2  0  0  0  0
 19 37  1  0  0  0  0
 20 25  2  0  0  0  0
 20 39  1  0  0  0  0
 21 25  1  0  0  0  0
 21 40  1  0  0  0  0
 22 23  2  0  0  0  0
 22 24  1  0  0  0  0
 23 41  1  0  0  0  0
 24 42  1  0  0  0  0
 25 43  1  0  0  0  0
 26 44  1  0  0  0  0
 26 45  1  0  0  0  0
 26 46  1  0  0  0  0
M  END
> <PUBCHEM_COMPOUND_CID>
17396135

> <PUBCHEM_COMPOUND_CANONICALIZED>
1

> <PUBCHEM_CACTVS_COMPLEXITY>
453

> <PUBCHEM_CACTVS_HBOND_ACCEPTOR>
5

> <PUBCHEM_CACTVS_HBOND_DONOR>
1

> <PUBCHEM_CACTVS_ROTATABLE_BOND>
6

> <PUBCHEM_CACTVS_SUBSKEYS>
AAADceB7sABAAAAAAAAAAAAAAAAAAWAAAAAwYAAAAAAAAAAB0AAAHgQYAAAADAyF2waz1odrFAiqAidydACS2AvhIrAdqCEubJiMLqLEuZuEMChkzhPI6AeQ0AIOIAAAAAAAAABAAAAAAAAAAAAAAAAAAA==

> <PUBCHEM_IUPAC_OPENEYE_NAME>
2-[[5-(4-methoxyphenyl)-1H-1,2,4-triazol-3-yl]sulfanyl]-N-methyl-N-phenyl-propanamide

> <PUBCHEM_IUPAC_CAS_NAME>
2-[[5-(4-methoxyphenyl)-1H-1,2,4-triazol-3-yl]thio]-N-methyl-N-phenylpropanamide

> <PUBCHEM_IUPAC_NAME>
2-[[5-(4-methoxyphenyl)-1H-1,2,4-triazol-3-yl]sulfanyl]-N-methyl-N-phenylpropanamide

> <PUBCHEM_IUPAC_SYSTEMATIC_NAME>
2-[[5-(4-methoxyphenyl)-1H-1,2,4-triazol-3-yl]sulfanyl]-N-methyl-N-phenyl-propanamide

> <PUBCHEM_IUPAC_TRADITIONAL_NAME>
2-[[5-(4-methoxyphenyl)-1H-1,2,4-triazol-3-yl]thio]-N-methyl-N-phenyl-propionamide

> <PUBCHEM_IUPAC_INCHI>
InChI=1S/C19H20N4O2S/c1-13(18(24)23(2)15-7-5-4-6-8-15)26-19-20-17(21-22-19)14-9-11-16(25-3)12-10-14/h4-13H,1-3H3,(H,20,21,22)

> <PUBCHEM_IUPAC_INCHIKEY>
SFVSUAQFRBHDOB-UHFFFAOYSA-N

> <PUBCHEM_XLOGP3_AA>
4

> <PUBCHEM_EXACT_MASS>
368.130697

> <PUBCHEM_MOLECULAR_FORMULA>
C19H20N4O2S

> <PUBCHEM_MOLECULAR_WEIGHT>
368.4527

> <PUBCHEM_OPENEYE_CAN_SMILES>
CC(C(=O)N(C)C1=CC=CC=C1)SC2=NNC(=N2)C3=CC=C(C=C3)OC

> <PUBCHEM_OPENEYE_ISO_SMILES>
CC(C(=O)N(C)C1=CC=CC=C1)SC2=NNC(=N2)C3=CC=C(C=C3)OC

> <PUBCHEM_CACTVS_TPSA>
96.4

> <PUBCHEM_MONOISOTOPIC_WEIGHT>
368.130697

> <PUBCHEM_TOTAL_CHARGE>
0

> <PUBCHEM_HEAVY_ATOM_COUNT>
26

> <PUBCHEM_ATOM_DEF_STEREO_COUNT>
0

> <PUBCHEM_ATOM_UDEF_STEREO_COUNT>
1

> <PUBCHEM_BOND_DEF_STEREO_COUNT>
0

> <PUBCHEM_BOND_UDEF_STEREO_COUNT>
0

> <PUBCHEM_ISOTOPIC_ATOM_COUNT>
0

> <PUBCHEM_COMPONENT_COUNT>
1

> <PUBCHEM_CACTVS_TAUTO_COUNT>
3

> <PUBCHEM_COORDINATE_TYPE>
1
5
255

> <PUBCHEM_BONDANNOTATIONS>
10  16  8
10  17  8
13  18  8
13  19  8
16  20  8
17  21  8
18  23  8
19  24  8
20  25  8
21  25  8
22  23  8
22  24  8
5  14  8
5  7  8
6  14  8
6  15  8
7  15  8
8  11  3

$$$$

