13458
  -OEChem-06261214242D

 33 33  0     1  0  0  0  0  0999 V2000
    3.0000   -0.2500    0.0000 S   0  0  0  0  0  0  0  0  0  0  0  0
    3.0000   -4.2500    0.0000 F   0  0  0  0  0  0  0  0  0  0  0  0
    4.0000   -0.2500    0.0000 O   0  0  0  0  0  0  0  0  0  0  0  0
    2.0000   -0.2500    0.0000 O   0  0  0  0  0  0  0  0  0  0  0  0
    4.7320    0.7500    0.0000 O   0  0  0  0  0  0  0  0  0  0  0  0
    3.8660    2.2500    0.0000 N   0  0  0  0  0  0  0  0  0  0  0  0
    3.0000    0.7500    0.0000 N   0  0  0  0  0  0  0  0  0  0  0  0
    4.7320    2.7500    0.0000 C   0  0  3  0  0  0  0  0  0  0  0  0
    4.7320    3.7500    0.0000 C   0  0  0  0  0  0  0  0  0  0  0  0
    5.5981    2.2500    0.0000 C   0  0  0  0  0  0  0  0  0  0  0  0
    5.5981    4.2500    0.0000 C   0  0  0  0  0  0  0  0  0  0  0  0
    3.8660    1.2500    0.0000 C   0  0  0  0  0  0  0  0  0  0  0  0
    3.0000   -1.2500    0.0000 C   0  0  0  0  0  0  0  0  0  0  0  0
    2.1340   -1.7500    0.0000 C   0  0  0  0  0  0  0  0  0  0  0  0
    3.8660   -1.7500    0.0000 C   0  0  0  0  0  0  0  0  0  0  0  0
    2.1340   -2.7500    0.0000 C   0  0  0  0  0  0  0  0  0  0  0  0
    3.8660   -2.7500    0.0000 C   0  0  0  0  0  0  0  0  0  0  0  0
    3.0000   -3.2500    0.0000 C   0  0  0  0  0  0  0  0  0  0  0  0
    4.7320    1.9000    0.0000 H   0  0  0  0  0  0  0  0  0  0  0  0
    4.5200    4.3326    0.0000 H   0  0  0  0  0  0  0  0  0  0  0  0
    4.1215    3.6423    0.0000 H   0  0  0  0  0  0  0  0  0  0  0  0
    3.3291    2.5600    0.0000 H   0  0  0  0  0  0  0  0  0  0  0  0
    5.2881    1.7131    0.0000 H   0  0  0  0  0  0  0  0  0  0  0  0
    6.1350    1.9400    0.0000 H   0  0  0  0  0  0  0  0  0  0  0  0
    5.9081    2.7869    0.0000 H   0  0  0  0  0  0  0  0  0  0  0  0
    5.9081    3.7131    0.0000 H   0  0  0  0  0  0  0  0  0  0  0  0
    6.1350    4.5600    0.0000 H   0  0  0  0  0  0  0  0  0  0  0  0
    5.2881    4.7869    0.0000 H   0  0  0  0  0  0  0  0  0  0  0  0
    2.4631    1.0600    0.0000 H   0  0  0  0  0  0  0  0  0  0  0  0
    1.5970   -1.4400    0.0000 H   0  0  0  0  0  0  0  0  0  0  0  0
    4.4030   -1.4400    0.0000 H   0  0  0  0  0  0  0  0  0  0  0  0
    1.5970   -3.0600    0.0000 H   0  0  0  0  0  0  0  0  0  0  0  0
    4.4030   -3.0600    0.0000 H   0  0  0  0  0  0  0  0  0  0  0  0
  1  3  2  0  0  0  0
  1  4  2  0  0  0  0
  1  7  1  0  0  0  0
  1 13  1  0  0  0  0
  2 18  1  0  0  0  0
  5 12  2  0  0  0  0
  6  8  1  0  0  0  0
  6 12  1  0  0  0  0
  6 22  1  0  0  0  0
  7 12  1  0  0  0  0
  7 29  1  0  0  0  0
  8  9  1  0  0  0  0
  8 10  1  0  0  0  0
  8 19  1  0  0  0  0
  9 11  1  0  0  0  0
  9 20  1  0  0  0  0
  9 21  1  0  0  0  0
 10 23  1  0  0  0  0
 10 24  1  0  0  0  0
 10 25  1  0  0  0  0
 11 26  1  0  0  0  0
 11 27  1  0  0  0  0
 11 28  1  0  0  0  0
 13 14  2  0  0  0  0
 13 15  1  0  0  0  0
 14 16  1  0  0  0  0
 14 30  1  0  0  0  0
 15 17  2  0  0  0  0
 15 31  1  0  0  0  0
 16 18  2  0  0  0  0
 16 32  1  0  0  0  0
 17 18  1  0  0  0  0
 17 33  1  0  0  0  0
M  END
> <PUBCHEM_COMPOUND_CID>
13458

> <PUBCHEM_COMPOUND_CANONICALIZED>
1

> <PUBCHEM_CACTVS_COMPLEXITY>
372

> <PUBCHEM_CACTVS_HBOND_ACCEPTOR>
4

> <PUBCHEM_CACTVS_HBOND_DONOR>
2

> <PUBCHEM_CACTVS_ROTATABLE_BOND>
4

> <PUBCHEM_CACTVS_SUBSKEYS>
AAADccBzMQBAAAAAAAAAAAAAAAAAAAAAAAAwAAAAAAAAAAABAAAAHwQQQAAACCjBUAwzAYLAAAKIACBCEHBCABAgAAAIiJgIAIiIICKAERCEIAAglgIIiAcAAAAAAAAAAAAAAAAAAAAAAAAAAAAAAAAAAA==

> <PUBCHEM_IUPAC_OPENEYE_NAME>
1-(4-fluorophenyl)sulfonyl-3-sec-butyl-urea

> <PUBCHEM_IUPAC_CAS_NAME>
1-butan-2-yl-3-(4-fluorophenyl)sulfonylurea

> <PUBCHEM_IUPAC_NAME>
1-butan-2-yl-3-(4-fluorophenyl)sulfonylurea

> <PUBCHEM_IUPAC_SYSTEMATIC_NAME>
1-butan-2-yl-3-(4-fluorophenyl)sulfonyl-urea

> <PUBCHEM_IUPAC_TRADITIONAL_NAME>
1-(4-fluorophenyl)sulfonyl-3-sec-butyl-urea

> <PUBCHEM_IUPAC_INCHI>
InChI=1S/C11H15FN2O3S/c1-3-8(2)13-11(15)14-18(16,17)10-6-4-9(12)5-7-10/h4-8H,3H2,1-2H3,(H2,13,14,15)

> <PUBCHEM_IUPAC_INCHIKEY>
UPUDCBYHGAAYLM-UHFFFAOYSA-N

> <PUBCHEM_XLOGP3>
2

> <PUBCHEM_EXACT_MASS>
274.078742

> <PUBCHEM_MOLECULAR_FORMULA>
C11H15FN2O3S

> <PUBCHEM_MOLECULAR_WEIGHT>
274.311803

> <PUBCHEM_OPENEYE_CAN_SMILES>
CCC(C)NC(=O)NS(=O)(=O)C1=CC=C(C=C1)F

> <PUBCHEM_OPENEYE_ISO_SMILES>
CCC(C)NC(=O)NS(=O)(=O)C1=CC=C(C=C1)F

> <PUBCHEM_CACTVS_TPSA>
83.6

> <PUBCHEM_MONOISOTOPIC_WEIGHT>
274.078742

> <PUBCHEM_TOTAL_CHARGE>
0

> <PUBCHEM_HEAVY_ATOM_COUNT>
18

> <PUBCHEM_ATOM_DEF_STEREO_COUNT>
0

> <PUBCHEM_ATOM_UDEF_STEREO_COUNT>
1

> <PUBCHEM_BOND_DEF_STEREO_COUNT>
0

> <PUBCHEM_BOND_UDEF_STEREO_COUNT>
0

> <PUBCHEM_ISOTOPIC_ATOM_COUNT>
0

> <PUBCHEM_COMPONENT_COUNT>
1

> <PUBCHEM_CACTVS_TAUTO_COUNT>
3

> <PUBCHEM_COORDINATE_TYPE>
1
5
255

> <PUBCHEM_BONDANNOTATIONS>
13  14  8
13  15  8
14  16  8
15  17  8
16  18  8
17  18  8
8  19  3

$$$$

