6689
  -OEChem-06261201272D

 48 51  0     0  0  0  0  0  0999 V2000
    8.1962    3.0278    0.0000 S   0  0  0  0  0  0  0  0  0  0  0  0
    8.1117   -3.0508    0.0000 S   0  0  0  0  0  0  0  0  0  0  0  0
    4.6660    0.0037    0.0000 O   0  0  0  0  0  0  0  0  0  0  0  0
    4.6660    4.0037    0.0000 O   0  0  0  0  0  0  0  0  0  0  0  0
    9.0602    3.5312    0.0000 O   0  0  0  0  0  0  0  0  0  0  0  0
    8.6995    2.1637    0.0000 O   0  0  0  0  0  0  0  0  0  0  0  0
    7.6928    3.8919    0.0000 O   0  0  0  0  0  0  0  0  0  0  0  0
    8.1001   -4.0507    0.0000 O   0  0  0  0  0  0  0  0  0  0  0  0
    7.1118   -3.0392    0.0000 O   0  0  0  0  0  0  0  0  0  0  0  0
    9.1116   -3.0623    0.0000 O   0  0  0  0  0  0  0  0  0  0  0  0
    6.4144   -0.0309    0.0000 N   0  0  0  0  0  0  0  0  0  0  0  0
    6.4144    4.0383    0.0000 N   0  0  0  0  0  0  0  0  0  0  0  0
    9.8552   -2.0708    0.0000 N   0  0  0  0  0  0  0  0  0  0  0  0
    5.5321    1.5037    0.0000 C   0  0  0  0  0  0  0  0  0  0  0  0
    5.5321    2.5037    0.0000 C   0  0  0  0  0  0  0  0  0  0  0  0
    6.4260    0.9690    0.0000 C   0  0  0  0  0  0  0  0  0  0  0  0
    6.4260    3.0383    0.0000 C   0  0  0  0  0  0  0  0  0  0  0  0
    7.3321    2.5245    0.0000 C   0  0  0  0  0  0  0  0  0  0  0  0
    4.6660    1.0037    0.0000 C   0  0  0  0  0  0  0  0  0  0  0  0
    3.8000    1.5037    0.0000 C   0  0  0  0  0  0  0  0  0  0  0  0
    3.8000    2.5037    0.0000 C   0  0  0  0  0  0  0  0  0  0  0  0
    4.6660    3.0037    0.0000 C   0  0  0  0  0  0  0  0  0  0  0  0
    7.3321    1.4829    0.0000 C   0  0  0  0  0  0  0  0  0  0  0  0
    7.2746   -0.5409    0.0000 C   0  0  0  0  0  0  0  0  0  0  0  0
    2.9061    0.9690    0.0000 C   0  0  0  0  0  0  0  0  0  0  0  0
    2.9061    3.0383    0.0000 C   0  0  0  0  0  0  0  0  0  0  0  0
    7.2631   -1.5408    0.0000 C   0  0  0  0  0  0  0  0  0  0  0  0
    8.1232   -2.0508    0.0000 C   0  0  0  0  0  0  0  0  0  0  0  0
    2.0000    1.4829    0.0000 C   0  0  0  0  0  0  0  0  0  0  0  0
    2.0000    2.5245    0.0000 C   0  0  0  0  0  0  0  0  0  0  0  0
    8.1464   -0.0510    0.0000 C   0  0  0  0  0  0  0  0  0  0  0  0
    8.9950   -1.5609    0.0000 C   0  0  0  0  0  0  0  0  0  0  0  0
    9.0066   -0.5609    0.0000 C   0  0  0  0  0  0  0  0  0  0  0  0
    7.8678    1.1708    0.0000 H   0  0  0  0  0  0  0  0  0  0  0  0
    5.8740   -0.3347    0.0000 H   0  0  0  0  0  0  0  0  0  0  0  0
    2.9132    0.3491    0.0000 H   0  0  0  0  0  0  0  0  0  0  0  0
    2.9132    3.6583    0.0000 H   0  0  0  0  0  0  0  0  0  0  0  0
    5.8740    4.3420    0.0000 H   0  0  0  0  0  0  0  0  0  0  0  0
    6.9478    4.3544    0.0000 H   0  0  0  0  0  0  0  0  0  0  0  0
    6.7226   -1.8446    0.0000 H   0  0  0  0  0  0  0  0  0  0  0  0
    1.4643    1.1708    0.0000 H   0  0  0  0  0  0  0  0  0  0  0  0
    8.1535    0.5690    0.0000 H   0  0  0  0  0  0  0  0  0  0  0  0
    1.4643    2.8366    0.0000 H   0  0  0  0  0  0  0  0  0  0  0  0
    9.5470   -0.2572    0.0000 H   0  0  0  0  0  0  0  0  0  0  0  0
    9.5984    3.2232    0.0000 H   0  0  0  0  0  0  0  0  0  0  0  0
   10.3957   -1.7671    0.0000 H   0  0  0  0  0  0  0  0  0  0  0  0
    9.8480   -2.6908    0.0000 H   0  0  0  0  0  0  0  0  0  0  0  0
    7.5596   -4.3544    0.0000 H   0  0  0  0  0  0  0  0  0  0  0  0
  1  5  1  0  0  0  0
  1  6  2  0  0  0  0
  1  7  2  0  0  0  0
  1 18  1  0  0  0  0
  2  8  1  0  0  0  0
  2  9  2  0  0  0  0
  2 10  2  0  0  0  0
  2 28  1  0  0  0  0
  3 19  2  0  0  0  0
  4 22  2  0  0  0  0
  5 45  1  0  0  0  0
  8 48  1  0  0  0  0
 11 16  1  0  0  0  0
 11 24  1  0  0  0  0
 11 35  1  0  0  0  0
 12 17  1  0  0  0  0
 12 38  1  0  0  0  0
 12 39  1  0  0  0  0
 13 32  1  0  0  0  0
 13 46  1  0  0  0  0
 13 47  1  0  0  0  0
 14 15  2  0  0  0  0
 14 16  1  0  0  0  0
 14 19  1  0  0  0  0
 15 17  1  0  0  0  0
 15 22  1  0  0  0  0
 16 23  2  0  0  0  0
 17 18  2  0  0  0  0
 18 23  1  0  0  0  0
 19 20  1  0  0  0  0
 20 21  1  0  0  0  0
 20 25  2  0  0  0  0
 21 22  1  0  0  0  0
 21 26  2  0  0  0  0
 23 34  1  0  0  0  0
 24 27  2  0  0  0  0
 24 31  1  0  0  0  0
 25 29  1  0  0  0  0
 25 36  1  0  0  0  0
 26 30  1  0  0  0  0
 26 37  1  0  0  0  0
 27 28  1  0  0  0  0
 27 40  1  0  0  0  0
 28 32  2  0  0  0  0
 29 30  2  0  0  0  0
 29 41  1  0  0  0  0
 30 43  1  0  0  0  0
 31 33  2  0  0  0  0
 31 42  1  0  0  0  0
 32 33  1  0  0  0  0
 33 44  1  0  0  0  0
M  END
> <PUBCHEM_COMPOUND_CID>
6689

> <PUBCHEM_COMPOUND_CANONICALIZED>
1

> <PUBCHEM_CACTVS_COMPLEXITY>
1010

> <PUBCHEM_CACTVS_HBOND_ACCEPTOR>
11

> <PUBCHEM_CACTVS_HBOND_DONOR>
5

> <PUBCHEM_CACTVS_ROTATABLE_BOND>
4

> <PUBCHEM_CACTVS_SUBSKEYS>
AAADccB7PABgAAAAAAAAAAAAAAAAAAAAAAAwYMGAAAAAAADBUAAAHgQQCAAADAyB2AAwwYLAAIKIAqRSQHDCAEAlAgAIiB0AZMgIIHrAlZGEIYxgkADIyccdiMCOkACAwCASAQCgAQWAQCQCAAAAAAAAAA==

> <PUBCHEM_IUPAC_OPENEYE_NAME>
1-amino-4-(4-amino-3-sulfo-anilino)-9,10-dioxo-anthracene-2-sulfonic acid

> <PUBCHEM_IUPAC_CAS_NAME>
1-amino-4-(4-amino-3-sulfoanilino)-9,10-dioxo-2-anthracenesulfonic acid

> <PUBCHEM_IUPAC_NAME>
1-amino-4-(4-amino-3-sulfoanilino)-9,10-dioxoanthracene-2-sulfonic acid

> <PUBCHEM_IUPAC_SYSTEMATIC_NAME>
1-azanyl-4-[(4-azanyl-3-sulfo-phenyl)amino]-9,10-bis(oxidanylidene)anthracene-2-sulfonic acid

> <PUBCHEM_IUPAC_TRADITIONAL_NAME>
1-amino-4-(4-amino-3-sulfo-anilino)-9,10-diketo-anthracene-2-sulfonic acid

> <PUBCHEM_IUPAC_INCHI>
InChI=1S/C20H15N3O8S2/c21-12-6-5-9(7-14(12)32(26,27)28)23-13-8-15(33(29,30)31)18(22)17-16(13)19(24)10-3-1-2-4-11(10)20(17)25/h1-8,23H,21-22H2,(H,26,27,28)(H,29,30,31)

> <PUBCHEM_IUPAC_INCHIKEY>
VZKVROOYNMPMLU-UHFFFAOYSA-N

> <PUBCHEM_XLOGP3_AA>
2.2

> <PUBCHEM_EXACT_MASS>
489.030056

> <PUBCHEM_MOLECULAR_FORMULA>
C20H15N3O8S2

> <PUBCHEM_MOLECULAR_WEIGHT>
489.4784

> <PUBCHEM_OPENEYE_CAN_SMILES>
C1=CC=C2C(=C1)C(=O)C3=C(C2=O)C(=C(C=C3NC4=CC(=C(C=C4)N)S(=O)(=O)O)S(=O)(=O)O)N

> <PUBCHEM_OPENEYE_ISO_SMILES>
C1=CC=C2C(=C1)C(=O)C3=C(C2=O)C(=C(C=C3NC4=CC(=C(C=C4)N)S(=O)(=O)O)S(=O)(=O)O)N

> <PUBCHEM_CACTVS_TPSA>
224

> <PUBCHEM_MONOISOTOPIC_WEIGHT>
489.030056

> <PUBCHEM_TOTAL_CHARGE>
0

> <PUBCHEM_HEAVY_ATOM_COUNT>
33

> <PUBCHEM_ATOM_DEF_STEREO_COUNT>
0

> <PUBCHEM_ATOM_UDEF_STEREO_COUNT>
0

> <PUBCHEM_BOND_DEF_STEREO_COUNT>
0

> <PUBCHEM_BOND_UDEF_STEREO_COUNT>
0

> <PUBCHEM_ISOTOPIC_ATOM_COUNT>
0

> <PUBCHEM_COMPONENT_COUNT>
1

> <PUBCHEM_CACTVS_TAUTO_COUNT>
12

> <PUBCHEM_COORDINATE_TYPE>
1
5
255

> <PUBCHEM_BONDANNOTATIONS>
14  15  8
14  16  8
15  17  8
16  23  8
17  18  8
18  23  8
20  21  8
20  25  8
21  26  8
24  27  8
24  31  8
25  29  8
26  30  8
27  28  8
28  32  8
29  30  8
31  33  8
32  33  8

$$$$

