8149
  -OEChem-06261202382D

 18 17  0     0  0  0  0  0  0999 V2000
    5.4641   -0.1900    0.0000 N   0  0  0  0  0  0  0  0  0  0  0  0
    2.0000    0.8100    0.0000 N   0  0  0  0  0  0  0  0  0  0  0  0
    8.9282    0.8100    0.0000 N   0  0  0  0  0  0  0  0  0  0  0  0
    6.3301    0.3100    0.0000 C   0  0  0  0  0  0  0  0  0  0  0  0
    4.5981    0.3100    0.0000 C   0  0  0  0  0  0  0  0  0  0  0  0
    3.7320   -0.1900    0.0000 C   0  0  0  0  0  0  0  0  0  0  0  0
    7.1962   -0.1900    0.0000 C   0  0  0  0  0  0  0  0  0  0  0  0
    8.0622    0.3100    0.0000 C   0  0  0  0  0  0  0  0  0  0  0  0
    2.8660    0.3100    0.0000 C   0  0  0  0  0  0  0  0  0  0  0  0
    6.7287    0.7849    0.0000 H   0  0  0  0  0  0  0  0  0  0  0  0
    5.9316    0.7849    0.0000 H   0  0  0  0  0  0  0  0  0  0  0  0
    4.9966    0.7849    0.0000 H   0  0  0  0  0  0  0  0  0  0  0  0
    4.1996    0.7849    0.0000 H   0  0  0  0  0  0  0  0  0  0  0  0
    5.4641   -0.8100    0.0000 H   0  0  0  0  0  0  0  0  0  0  0  0
    3.3335   -0.6649    0.0000 H   0  0  0  0  0  0  0  0  0  0  0  0
    4.1306   -0.6649    0.0000 H   0  0  0  0  0  0  0  0  0  0  0  0
    6.7976   -0.6649    0.0000 H   0  0  0  0  0  0  0  0  0  0  0  0
    7.5947   -0.6649    0.0000 H   0  0  0  0  0  0  0  0  0  0  0  0
  1  4  1  0  0  0  0
  1  5  1  0  0  0  0
  1 14  1  0  0  0  0
  2  9  3  0  0  0  0
  3  8  3  0  0  0  0
  4  7  1  0  0  0  0
  4 10  1  0  0  0  0
  4 11  1  0  0  0  0
  5  6  1  0  0  0  0
  5 12  1  0  0  0  0
  5 13  1  0  0  0  0
  6  9  1  0  0  0  0
  6 15  1  0  0  0  0
  6 16  1  0  0  0  0
  7  8  1  0  0  0  0
  7 17  1  0  0  0  0
  7 18  1  0  0  0  0
M  END
> <PUBCHEM_COMPOUND_CID>
8149

> <PUBCHEM_COMPOUND_CANONICALIZED>
1

> <PUBCHEM_CACTVS_COMPLEXITY>
126

> <PUBCHEM_CACTVS_HBOND_ACCEPTOR>
3

> <PUBCHEM_CACTVS_HBOND_DONOR>
1

> <PUBCHEM_CACTVS_ROTATABLE_BOND>
4

> <PUBCHEM_CACTVS_SUBSKEYS>
AAADccBjAAAAAAAAAAAAAAAAAAAAAAAAAAAAAAAAAAAAAAAAAAAAHAAQAAAACADBAAQAAALAAAAQBAAAAAAAAAAAAAAAAIAIAAAAgAAAAAAEAAAAEACAAAAAAAAAAAAAAAAAAAAAAAAAAAAAAAAAAAAAAA==

> <PUBCHEM_IUPAC_OPENEYE_NAME>
3-(2-cyanoethylamino)propanenitrile

> <PUBCHEM_IUPAC_CAS_NAME>
3-(2-cyanoethylamino)propanenitrile

> <PUBCHEM_IUPAC_NAME>
3-(2-cyanoethylamino)propanenitrile

> <PUBCHEM_IUPAC_SYSTEMATIC_NAME>
3-(2-cyanoethylamino)propanenitrile

> <PUBCHEM_IUPAC_TRADITIONAL_NAME>
3-(2-cyanoethylamino)propionitrile

> <PUBCHEM_IUPAC_INCHI>
InChI=1S/C6H9N3/c7-3-1-5-9-6-2-4-8/h9H,1-2,5-6H2

> <PUBCHEM_IUPAC_INCHIKEY>
SBAJRGRUGUQKAF-UHFFFAOYSA-N

> <PUBCHEM_XLOGP3_AA>
-0.8

> <PUBCHEM_EXACT_MASS>
123.079647

> <PUBCHEM_MOLECULAR_FORMULA>
C6H9N3

> <PUBCHEM_MOLECULAR_WEIGHT>
123.15576

> <PUBCHEM_OPENEYE_CAN_SMILES>
C(CNCCC#N)C#N

> <PUBCHEM_OPENEYE_ISO_SMILES>
C(CNCCC#N)C#N

> <PUBCHEM_CACTVS_TPSA>
59.6

> <PUBCHEM_MONOISOTOPIC_WEIGHT>
123.079647

> <PUBCHEM_TOTAL_CHARGE>
0

> <PUBCHEM_HEAVY_ATOM_COUNT>
9

> <PUBCHEM_ATOM_DEF_STEREO_COUNT>
0

> <PUBCHEM_ATOM_UDEF_STEREO_COUNT>
0

> <PUBCHEM_BOND_DEF_STEREO_COUNT>
0

> <PUBCHEM_BOND_UDEF_STEREO_COUNT>
0

> <PUBCHEM_ISOTOPIC_ATOM_COUNT>
0

> <PUBCHEM_COMPONENT_COUNT>
1

> <PUBCHEM_CACTVS_TAUTO_COUNT>
1

> <PUBCHEM_COORDINATE_TYPE>
1
5
255

$$$$

