51091020
  -OEChem-06241223012D

 34 36  0     0  0  0  0  0  0999 V2000
    6.2353    2.9285    0.0000 S   0  0  0  0  0  0  0  0  0  0  0  0
    2.8660   -3.5194    0.0000 F   0  0  0  0  0  0  0  0  0  0  0  0
    2.0000   -2.0194    0.0000 F   0  0  0  0  0  0  0  0  0  0  0  0
    3.7320   -2.0194    0.0000 O   0  0  0  0  0  0  0  0  0  0  0  0
    3.7320    1.9806    0.0000 N   0  0  0  0  0  0  0  0  0  0  0  0
    2.9230    2.5684    0.0000 N   0  0  0  0  0  0  0  0  0  0  0  0
    4.2320    3.5194    0.0000 N   0  0  0  0  0  0  0  0  0  0  0  0
    3.2320    3.5194    0.0000 N   0  0  0  0  0  0  0  0  0  0  0  0
    8.8044    2.6195    0.0000 N   0  0  0  0  0  0  0  0  0  0  0  0
    7.4953    1.6684    0.0000 N   0  0  0  0  0  0  0  0  0  0  0  0
    7.9953    3.2072    0.0000 N   0  0  0  0  0  0  0  0  0  0  0  0
    3.7320    0.9806    0.0000 C   0  0  0  0  0  0  0  0  0  0  0  0
    4.5411    2.5684    0.0000 C   0  0  0  0  0  0  0  0  0  0  0  0
    5.4921    2.2594    0.0000 C   0  0  0  0  0  0  0  0  0  0  0  0
    2.8660    0.4806    0.0000 C   0  0  0  0  0  0  0  0  0  0  0  0
    4.5981    0.4806    0.0000 C   0  0  0  0  0  0  0  0  0  0  0  0
    3.7320   -1.0194    0.0000 C   0  0  0  0  0  0  0  0  0  0  0  0
    2.8660   -0.5194    0.0000 C   0  0  0  0  0  0  0  0  0  0  0  0
    4.5981   -0.5194    0.0000 C   0  0  0  0  0  0  0  0  0  0  0  0
    7.1863    2.6195    0.0000 C   0  0  0  0  0  0  0  0  0  0  0  0
    8.4953    1.6684    0.0000 C   0  0  0  0  0  0  0  0  0  0  0  0
    9.0831    0.8594    0.0000 C   0  0  0  0  0  0  0  0  0  0  0  0
    2.8660   -2.5194    0.0000 C   0  0  0  0  0  0  0  0  0  0  0  0
    5.2011    1.7119    0.0000 H   0  0  0  0  0  0  0  0  0  0  0  0
    5.9807    1.8776    0.0000 H   0  0  0  0  0  0  0  0  0  0  0  0
    2.3291    0.7906    0.0000 H   0  0  0  0  0  0  0  0  0  0  0  0
    5.1350    0.7906    0.0000 H   0  0  0  0  0  0  0  0  0  0  0  0
    2.3291   -0.8294    0.0000 H   0  0  0  0  0  0  0  0  0  0  0  0
    5.1350   -0.8294    0.0000 H   0  0  0  0  0  0  0  0  0  0  0  0
    9.3940    2.8110    0.0000 H   0  0  0  0  0  0  0  0  0  0  0  0
    8.5815    0.4950    0.0000 H   0  0  0  0  0  0  0  0  0  0  0  0
    9.4476    0.3578    0.0000 H   0  0  0  0  0  0  0  0  0  0  0  0
    9.5847    1.2238    0.0000 H   0  0  0  0  0  0  0  0  0  0  0  0
    2.8660   -1.8994    0.0000 H   0  0  0  0  0  0  0  0  0  0  0  0
  1 14  1  0  0  0  0
  1 20  1  0  0  0  0
  2 23  1  0  0  0  0
  3 23  1  0  0  0  0
  4 17  1  0  0  0  0
  4 23  1  0  0  0  0
  5  6  1  0  0  0  0
  5 12  1  0  0  0  0
  5 13  1  0  0  0  0
  6  8  2  0  0  0  0
  7  8  1  0  0  0  0
  7 13  2  0  0  0  0
  9 11  1  0  0  0  0
  9 21  1  0  0  0  0
  9 30  1  0  0  0  0
 10 20  1  0  0  0  0
 10 21  2  0  0  0  0
 11 20  2  0  0  0  0
 12 15  2  0  0  0  0
 12 16  1  0  0  0  0
 13 14  1  0  0  0  0
 14 24  1  0  0  0  0
 14 25  1  0  0  0  0
 15 18  1  0  0  0  0
 15 26  1  0  0  0  0
 16 19  2  0  0  0  0
 16 27  1  0  0  0  0
 17 18  2  0  0  0  0
 17 19  1  0  0  0  0
 18 28  1  0  0  0  0
 19 29  1  0  0  0  0
 21 22  1  0  0  0  0
 22 31  1  0  0  0  0
 22 32  1  0  0  0  0
 22 33  1  0  0  0  0
 23 34  1  0  0  0  0
M  END
> <PUBCHEM_COMPOUND_CID>
51091020

> <PUBCHEM_COMPOUND_CANONICALIZED>
1

> <PUBCHEM_CACTVS_COMPLEXITY>
375

> <PUBCHEM_CACTVS_HBOND_ACCEPTOR>
9

> <PUBCHEM_CACTVS_HBOND_DONOR>
1

> <PUBCHEM_CACTVS_ROTATABLE_BOND>
6

> <PUBCHEM_CACTVS_SUBSKEYS>
AAADccBzoYBAAAAAAAAAAAAAAAAAAWLAAAAwAAAAAAAAAAAB8AAAHwQYAAAACAyF0xKz1oZrFAiiACZiZACS3CvhIrAdqAAWbIiMLiLEuZuEMChk2BPI6CewQAAAAEAAAAAAAAAAgAAAAAAAAAAAAAAAAA==

> <PUBCHEM_IUPAC_OPENEYE_NAME>
1-[4-(difluoromethoxy)phenyl]-5-[(5-methyl-1H-1,2,4-triazol-3-yl)sulfanylmethyl]tetrazole

> <PUBCHEM_IUPAC_CAS_NAME>
1-[4-(difluoromethoxy)phenyl]-5-[[(5-methyl-1H-1,2,4-triazol-3-yl)thio]methyl]tetrazole

> <PUBCHEM_IUPAC_NAME>
1-[4-(difluoromethoxy)phenyl]-5-[(5-methyl-1H-1,2,4-triazol-3-yl)sulfanylmethyl]tetrazole

> <PUBCHEM_IUPAC_SYSTEMATIC_NAME>
1-[4-[bis(fluoranyl)methoxy]phenyl]-5-[(5-methyl-1H-1,2,4-triazol-3-yl)sulfanylmethyl]-1,2,3,4-tetrazole

> <PUBCHEM_IUPAC_TRADITIONAL_NAME>
1-[4-(difluoromethoxy)phenyl]-5-[[(5-methyl-1H-1,2,4-triazol-3-yl)thio]methyl]tetrazole

> <PUBCHEM_IUPAC_INCHI>
InChI=1S/C12H11F2N7OS/c1-7-15-12(18-16-7)23-6-10-17-19-20-21(10)8-2-4-9(5-3-8)22-11(13)14/h2-5,11H,6H2,1H3,(H,15,16,18)

> <PUBCHEM_IUPAC_INCHIKEY>
IRHYYJKDIPQMJZ-UHFFFAOYSA-N

> <PUBCHEM_XLOGP3_AA>
3

> <PUBCHEM_EXACT_MASS>
339.071385

> <PUBCHEM_MOLECULAR_FORMULA>
C12H11F2N7OS

> <PUBCHEM_MOLECULAR_WEIGHT>
339.323846

> <PUBCHEM_OPENEYE_CAN_SMILES>
CC1=NC(=NN1)SCC2=NN=NN2C3=CC=C(C=C3)OC(F)F

> <PUBCHEM_OPENEYE_ISO_SMILES>
CC1=NC(=NN1)SCC2=NN=NN2C3=CC=C(C=C3)OC(F)F

> <PUBCHEM_CACTVS_TPSA>
120

> <PUBCHEM_MONOISOTOPIC_WEIGHT>
339.071385

> <PUBCHEM_TOTAL_CHARGE>
0

> <PUBCHEM_HEAVY_ATOM_COUNT>
23

> <PUBCHEM_ATOM_DEF_STEREO_COUNT>
0

> <PUBCHEM_ATOM_UDEF_STEREO_COUNT>
0

> <PUBCHEM_BOND_DEF_STEREO_COUNT>
0

> <PUBCHEM_BOND_UDEF_STEREO_COUNT>
0

> <PUBCHEM_ISOTOPIC_ATOM_COUNT>
0

> <PUBCHEM_COMPONENT_COUNT>
1

> <PUBCHEM_CACTVS_TAUTO_COUNT>
3

> <PUBCHEM_COORDINATE_TYPE>
1
5
255

> <PUBCHEM_BONDANNOTATIONS>
10  20  8
10  21  8
11  20  8
12  15  8
12  16  8
15  18  8
16  19  8
17  18  8
17  19  8
5  13  8
5  6  8
6  8  8
7  13  8
7  8  8
9  11  8
9  21  8

$$$$

