9570
  -OEChem-06261203492D

 34 36  0     1  0  0  0  0  0999 V2000
    2.8660   -3.5784    0.0000 S   0  0  0  0  0  0  0  0  0  0  0  0
    4.4026    0.9869    0.0000 O   0  0  0  0  0  0  0  0  0  0  0  0
    6.7485   -0.1050    0.0000 O   0  0  0  0  0  0  0  0  0  0  0  0
    6.7523    2.0706    0.0000 O   0  0  0  0  0  0  0  0  0  0  0  0
    5.3548    3.4884    0.0000 O   0  0  0  0  0  0  0  0  0  0  0  0
    4.6783   -0.7737    0.0000 N   0  0  0  0  0  0  0  0  0  0  0  0
    4.6783   -2.3832    0.0000 N   0  0  0  0  0  0  0  0  0  0  0  0
    2.8660   -0.5784    0.0000 N   0  0  0  0  0  0  0  0  0  0  0  0
    2.0000   -2.0784    0.0000 N   0  0  0  0  0  0  0  0  0  0  0  0
    5.9405    0.4842    0.0000 C   0  0  1  0  0  0  0  0  0  0  0  0
    4.9889    0.1768    0.0000 C   0  0  1  0  0  0  0  0  0  0  0  0
    5.9422    1.4842    0.0000 C   0  0  1  0  0  0  0  0  0  0  0  0
    4.9917    1.7949    0.0000 C   0  0  1  0  0  0  0  0  0  0  0  0
    4.6844    2.7464    0.0000 C   0  0  0  0  0  0  0  0  0  0  0  0
    3.7320   -1.0784    0.0000 C   0  0  0  0  0  0  0  0  0  0  0  0
    5.2619   -1.5784    0.0000 C   0  0  0  0  0  0  0  0  0  0  0  0
    3.7320   -2.0784    0.0000 C   0  0  0  0  0  0  0  0  0  0  0  0
    2.8660   -2.5784    0.0000 C   0  0  0  0  0  0  0  0  0  0  0  0
    2.0000   -1.0784    0.0000 C   0  0  0  0  0  0  0  0  0  0  0  0
    2.0000   -4.0784    0.0000 C   0  0  0  0  0  0  0  0  0  0  0  0
    6.4934    0.7647    0.0000 H   0  0  0  0  0  0  0  0  0  0  0  0
    5.4266   -0.2623    0.0000 H   0  0  0  0  0  0  0  0  0  0  0  0
    6.4942    1.2018    0.0000 H   0  0  0  0  0  0  0  0  0  0  0  0
    4.3795    1.8929    0.0000 H   0  0  0  0  0  0  0  0  0  0  0  0
    4.3035    3.2357    0.0000 H   0  0  0  0  0  0  0  0  0  0  0  0
    4.1364    2.4563    0.0000 H   0  0  0  0  0  0  0  0  0  0  0  0
    7.3154    0.1462    0.0000 H   0  0  0  0  0  0  0  0  0  0  0  0
    7.3182    1.8174    0.0000 H   0  0  0  0  0  0  0  0  0  0  0  0
    5.8819   -1.5784    0.0000 H   0  0  0  0  0  0  0  0  0  0  0  0
    5.1642    4.0784    0.0000 H   0  0  0  0  0  0  0  0  0  0  0  0
    1.4631   -0.7684    0.0000 H   0  0  0  0  0  0  0  0  0  0  0  0
    1.6900   -3.5415    0.0000 H   0  0  0  0  0  0  0  0  0  0  0  0
    1.4631   -4.3884    0.0000 H   0  0  0  0  0  0  0  0  0  0  0  0
    2.3100   -4.6154    0.0000 H   0  0  0  0  0  0  0  0  0  0  0  0
  1 18  1  0  0  0  0
  1 20  1  0  0  0  0
  2 11  1  0  0  0  0
  2 13  1  0  0  0  0
 10  3  1  1  0  0  0
  3 27  1  0  0  0  0
 12  4  1  1  0  0  0
  4 28  1  0  0  0  0
  5 14  1  0  0  0  0
  5 30  1  0  0  0  0
 11  6  1  6  0  0  0
  6 15  1  0  0  0  0
  6 16  1  0  0  0  0
  7 16  2  0  0  0  0
  7 17  1  0  0  0  0
  8 15  1  0  0  0  0
  8 19  2  0  0  0  0
  9 18  2  0  0  0  0
  9 19  1  0  0  0  0
 10 11  1  0  0  0  0
 10 12  1  0  0  0  0
 10 21  1  0  0  0  0
 11 22  1  0  0  0  0
 12 13  1  0  0  0  0
 12 23  1  0  0  0  0
 13 14  1  6  0  0  0
 13 24  1  0  0  0  0
 14 25  1  0  0  0  0
 14 26  1  0  0  0  0
 15 17  2  0  0  0  0
 16 29  1  0  0  0  0
 17 18  1  0  0  0  0
 19 31  1  0  0  0  0
 20 32  1  0  0  0  0
 20 33  1  0  0  0  0
 20 34  1  0  0  0  0
M  END
> <PUBCHEM_COMPOUND_CID>
9570

> <PUBCHEM_COMPOUND_CANONICALIZED>
1

> <PUBCHEM_CACTVS_COMPLEXITY>
352

> <PUBCHEM_CACTVS_HBOND_ACCEPTOR>
8

> <PUBCHEM_CACTVS_HBOND_DONOR>
3

> <PUBCHEM_CACTVS_ROTATABLE_BOND>
3

> <PUBCHEM_CACTVS_SUBSKEYS>
AAADccBzuABAAAAAAAAAAAAAAAAAAWJAAAAsAAAAAAAAAFgB+AAAHgQACAAACBzh1waH8b8MFgigAQZhZACA0C1RGLABUDQoVBCDWAJgyEAeRAwPAALTACDwMAIAAAAAAAAAAAAAAAAAAAAAAAAAAAAAAA==

> <PUBCHEM_IUPAC_OPENEYE_NAME>
(2R,3S,4R,5R)-2-(hydroxymethyl)-5-(6-methylsulfanylpurin-9-yl)tetrahydrofuran-3,4-diol

> <PUBCHEM_IUPAC_CAS_NAME>
(2R,3S,4R,5R)-2-(hydroxymethyl)-5-[6-(methylthio)-9-purinyl]oxolane-3,4-diol

> <PUBCHEM_IUPAC_NAME>
(2R,3S,4R,5R)-2-(hydroxymethyl)-5-(6-methylsulfanylpurin-9-yl)oxolane-3,4-diol

> <PUBCHEM_IUPAC_SYSTEMATIC_NAME>
(2R,3S,4R,5R)-2-(hydroxymethyl)-5-(6-methylsulfanylpurin-9-yl)oxolane-3,4-diol

> <PUBCHEM_IUPAC_TRADITIONAL_NAME>
(2R,3S,4R,5R)-2-methylol-5-[6-(methylthio)purin-9-yl]tetrahydrofuran-3,4-diol

> <PUBCHEM_IUPAC_INCHI>
InChI=1S/C11H14N4O4S/c1-20-10-6-9(12-3-13-10)15(4-14-6)11-8(18)7(17)5(2-16)19-11/h3-5,7-8,11,16-18H,2H2,1H3/t5-,7-,8-,11-/m1/s1

> <PUBCHEM_IUPAC_INCHIKEY>
ZDRFDHHANOYUTE-IOSLPCCCSA-N

> <PUBCHEM_XLOGP3>
0.1

> <PUBCHEM_EXACT_MASS>
298.073576

> <PUBCHEM_MOLECULAR_FORMULA>
C11H14N4O4S

> <PUBCHEM_MOLECULAR_WEIGHT>
298.31826

> <PUBCHEM_OPENEYE_CAN_SMILES>
CSC1=NC=NC2=C1N=CN2C3C(C(C(O3)CO)O)O

> <PUBCHEM_OPENEYE_ISO_SMILES>
CSC1=NC=NC2=C1N=CN2[C@H]3[C@@H]([C@@H]([C@H](O3)CO)O)O

> <PUBCHEM_CACTVS_TPSA>
139

> <PUBCHEM_MONOISOTOPIC_WEIGHT>
298.073576

> <PUBCHEM_TOTAL_CHARGE>
0

> <PUBCHEM_HEAVY_ATOM_COUNT>
20

> <PUBCHEM_ATOM_DEF_STEREO_COUNT>
4

> <PUBCHEM_ATOM_UDEF_STEREO_COUNT>
0

> <PUBCHEM_BOND_DEF_STEREO_COUNT>
0

> <PUBCHEM_BOND_UDEF_STEREO_COUNT>
0

> <PUBCHEM_ISOTOPIC_ATOM_COUNT>
0

> <PUBCHEM_COMPONENT_COUNT>
1

> <PUBCHEM_CACTVS_TAUTO_COUNT>
1

> <PUBCHEM_COORDINATE_TYPE>
1
5
255

> <PUBCHEM_BONDANNOTATIONS>
13  14  6
15  17  8
17  18  8
10  3  5
12  4  5
11  6  6
6  15  8
6  16  8
7  16  8
7  17  8
8  15  8
8  19  8
9  18  8
9  19  8

$$$$

