17396056
  -OEChem-06241222542D

 51 54  0     0  0  0  0  0  0999 V2000
   15.9224   -0.5415    0.0000 Br  0  0  0  0  0  0  0  0  0  0  0  0
    2.0000    1.4827    0.0000 Cl  0  0  0  0  0  0  0  0  0  0  0  0
    5.4641   -0.5173    0.0000 O   0  0  0  0  0  0  0  0  0  0  0  0
   12.3923   -1.5173    0.0000 O   0  0  0  0  0  0  0  0  0  0  0  0
    8.0622   -0.0173    0.0000 N   0  0  0  0  0  0  0  0  0  0  0  0
    9.7942    0.9827    0.0000 N   0  0  0  0  0  0  0  0  0  0  0  0
   12.3923    1.4827    0.0000 N   0  0  0  0  0  0  0  0  0  0  0  0
   13.2583   -0.0173    0.0000 N   0  0  0  0  0  0  0  0  0  0  0  0
    8.9282   -0.5173    0.0000 C   0  0  0  0  0  0  0  0  0  0  0  0
    8.0622    0.9827    0.0000 C   0  0  0  0  0  0  0  0  0  0  0  0
    9.7942   -0.0173    0.0000 C   0  0  0  0  0  0  0  0  0  0  0  0
    8.9282    1.4827    0.0000 C   0  0  0  0  0  0  0  0  0  0  0  0
    7.1962   -0.5173    0.0000 C   0  0  0  0  0  0  0  0  0  0  0  0
   10.6603    1.4827    0.0000 C   0  0  0  0  0  0  0  0  0  0  0  0
    6.3301   -0.0173    0.0000 C   0  0  0  0  0  0  0  0  0  0  0  0
   11.5263    0.9827    0.0000 C   0  0  0  0  0  0  0  0  0  0  0  0
   11.5263   -0.0173    0.0000 C   0  0  0  0  0  0  0  0  0  0  0  0
   13.2583    0.9827    0.0000 C   0  0  0  0  0  0  0  0  0  0  0  0
   12.3923   -0.5173    0.0000 C   0  0  0  0  0  0  0  0  0  0  0  0
    4.5981   -0.0173    0.0000 C   0  0  0  0  0  0  0  0  0  0  0  0
   14.1523    1.5173    0.0000 C   0  0  0  0  0  0  0  0  0  0  0  0
   14.1523   -0.5520    0.0000 C   0  0  0  0  0  0  0  0  0  0  0  0
   15.0583    1.0035    0.0000 C   0  0  0  0  0  0  0  0  0  0  0  0
   15.0583   -0.0381    0.0000 C   0  0  0  0  0  0  0  0  0  0  0  0
    4.5981    0.9827    0.0000 C   0  0  0  0  0  0  0  0  0  0  0  0
    3.7320   -0.5173    0.0000 C   0  0  0  0  0  0  0  0  0  0  0  0
    3.7320    1.4827    0.0000 C   0  0  0  0  0  0  0  0  0  0  0  0
    2.8660   -0.0173    0.0000 C   0  0  0  0  0  0  0  0  0  0  0  0
    2.8660    0.9827    0.0000 C   0  0  0  0  0  0  0  0  0  0  0  0
    7.8501    1.5653    0.0000 H   0  0  0  0  0  0  0  0  0  0  0  0
    7.4516    0.8750    0.0000 H   0  0  0  0  0  0  0  0  0  0  0  0
    8.5297   -0.9923    0.0000 H   0  0  0  0  0  0  0  0  0  0  0  0
    9.3267   -0.9923    0.0000 H   0  0  0  0  0  0  0  0  0  0  0  0
    9.3267    1.9576    0.0000 H   0  0  0  0  0  0  0  0  0  0  0  0
    8.5297    1.9576    0.0000 H   0  0  0  0  0  0  0  0  0  0  0  0
   10.0063   -0.5999    0.0000 H   0  0  0  0  0  0  0  0  0  0  0  0
   10.4048    0.0903    0.0000 H   0  0  0  0  0  0  0  0  0  0  0  0
    6.7976   -0.9923    0.0000 H   0  0  0  0  0  0  0  0  0  0  0  0
    7.5947   -0.9923    0.0000 H   0  0  0  0  0  0  0  0  0  0  0  0
   11.0588    1.9576    0.0000 H   0  0  0  0  0  0  0  0  0  0  0  0
   10.2617    1.9576    0.0000 H   0  0  0  0  0  0  0  0  0  0  0  0
    6.7287    0.4576    0.0000 H   0  0  0  0  0  0  0  0  0  0  0  0
    5.9316    0.4576    0.0000 H   0  0  0  0  0  0  0  0  0  0  0  0
   10.9893   -0.3273    0.0000 H   0  0  0  0  0  0  0  0  0  0  0  0
   14.1451    2.1373    0.0000 H   0  0  0  0  0  0  0  0  0  0  0  0
   14.1451   -1.1720    0.0000 H   0  0  0  0  0  0  0  0  0  0  0  0
   15.5941    1.3156    0.0000 H   0  0  0  0  0  0  0  0  0  0  0  0
    5.1350    1.2927    0.0000 H   0  0  0  0  0  0  0  0  0  0  0  0
    3.7320   -1.1373    0.0000 H   0  0  0  0  0  0  0  0  0  0  0  0
    3.7320    2.1027    0.0000 H   0  0  0  0  0  0  0  0  0  0  0  0
    2.3291   -0.3273    0.0000 H   0  0  0  0  0  0  0  0  0  0  0  0
  1 24  1  0  0  0  0
  2 29  1  0  0  0  0
  3 15  1  0  0  0  0
  3 20  1  0  0  0  0
  4 19  2  0  0  0  0
  5  9  1  0  0  0  0
  5 10  1  0  0  0  0
  5 13  1  0  0  0  0
  6 11  1  0  0  0  0
  6 12  1  0  0  0  0
  6 14  1  0  0  0  0
  7 16  1  0  0  0  0
  7 18  2  0  0  0  0
  8 18  1  0  0  0  0
  8 19  1  0  0  0  0
  8 22  1  0  0  0  0
  9 11  1  0  0  0  0
  9 32  1  0  0  0  0
  9 33  1  0  0  0  0
 10 12  1  0  0  0  0
 10 30  1  0  0  0  0
 10 31  1  0  0  0  0
 11 36  1  0  0  0  0
 11 37  1  0  0  0  0
 12 34  1  0  0  0  0
 12 35  1  0  0  0  0
 13 15  1  0  0  0  0
 13 38  1  0  0  0  0
 13 39  1  0  0  0  0
 14 16  1  0  0  0  0
 14 40  1  0  0  0  0
 14 41  1  0  0  0  0
 15 42  1  0  0  0  0
 15 43  1  0  0  0  0
 16 17  2  0  0  0  0
 17 19  1  0  0  0  0
 17 44  1  0  0  0  0
 18 21  1  0  0  0  0
 20 25  2  0  0  0  0
 20 26  1  0  0  0  0
 21 23  2  0  0  0  0
 21 45  1  0  0  0  0
 22 24  2  0  0  0  0
 22 46  1  0  0  0  0
 23 24  1  0  0  0  0
 23 47  1  0  0  0  0
 25 27  1  0  0  0  0
 25 48  1  0  0  0  0
 26 28  2  0  0  0  0
 26 49  1  0  0  0  0
 27 29  2  0  0  0  0
 27 50  1  0  0  0  0
 28 29  1  0  0  0  0
 28 51  1  0  0  0  0
M  END
> <PUBCHEM_COMPOUND_CID>
17396056

> <PUBCHEM_COMPOUND_CANONICALIZED>
1

> <PUBCHEM_CACTVS_COMPLEXITY>
735

> <PUBCHEM_CACTVS_HBOND_ACCEPTOR>
5

> <PUBCHEM_CACTVS_HBOND_DONOR>
0

> <PUBCHEM_CACTVS_ROTATABLE_BOND>
6

> <PUBCHEM_CACTVS_SUBSKEYS>
AAADceB7sAAEEAAAAAAAAAAAAAAAAAAAAAA8QIEAAAAAAACBAAAAHgJAAAABiA7hkCYxBoMABACoACd2dACCCAEgJwAJiAAeCtgOZiKFOxqTOCCkxhGYqUeAQAAAACAAAAAAAAAAQAAAAAAAAAAAAAAAAA==

> <PUBCHEM_IUPAC_OPENEYE_NAME>
7-bromo-2-[[4-[2-(4-chlorophenoxy)ethyl]piperazin-1-yl]methyl]pyrido[1,2-a]pyrimidin-4-one

> <PUBCHEM_IUPAC_CAS_NAME>
7-bromo-2-[[4-[2-(4-chlorophenoxy)ethyl]-1-piperazinyl]methyl]-4-pyrido[1,2-a]pyrimidinone

> <PUBCHEM_IUPAC_NAME>
7-bromo-2-[[4-[2-(4-chlorophenoxy)ethyl]piperazin-1-yl]methyl]pyrido[1,2-a]pyrimidin-4-one

> <PUBCHEM_IUPAC_SYSTEMATIC_NAME>
7-bromanyl-2-[[4-[2-(4-chloranylphenoxy)ethyl]piperazin-1-yl]methyl]pyrido[1,2-a]pyrimidin-4-one

> <PUBCHEM_IUPAC_TRADITIONAL_NAME>
7-bromo-2-[[4-[2-(4-chlorophenoxy)ethyl]piperazino]methyl]pyrido[1,2-a]pyrimidin-4-one

> <PUBCHEM_IUPAC_INCHI>
InChI=1S/C21H22BrClN4O2/c22-16-1-6-20-24-18(13-21(28)27(20)14-16)15-26-9-7-25(8-10-26)11-12-29-19-4-2-17(23)3-5-19/h1-6,13-14H,7-12,15H2

> <PUBCHEM_IUPAC_INCHIKEY>
NGMMAUCBZVUQMN-UHFFFAOYSA-N

> <PUBCHEM_XLOGP3_AA>
2.5

> <PUBCHEM_EXACT_MASS>
476.061466

> <PUBCHEM_MOLECULAR_FORMULA>
C21H22BrClN4O2

> <PUBCHEM_MOLECULAR_WEIGHT>
477.78198

> <PUBCHEM_OPENEYE_CAN_SMILES>
C1CN(CCN1CCOC2=CC=C(C=C2)Cl)CC3=CC(=O)N4C=C(C=CC4=N3)Br

> <PUBCHEM_OPENEYE_ISO_SMILES>
C1CN(CCN1CCOC2=CC=C(C=C2)Cl)CC3=CC(=O)N4C=C(C=CC4=N3)Br

> <PUBCHEM_CACTVS_TPSA>
48.4

> <PUBCHEM_MONOISOTOPIC_WEIGHT>
476.061466

> <PUBCHEM_TOTAL_CHARGE>
0

> <PUBCHEM_HEAVY_ATOM_COUNT>
29

> <PUBCHEM_ATOM_DEF_STEREO_COUNT>
0

> <PUBCHEM_ATOM_UDEF_STEREO_COUNT>
0

> <PUBCHEM_BOND_DEF_STEREO_COUNT>
0

> <PUBCHEM_BOND_UDEF_STEREO_COUNT>
0

> <PUBCHEM_ISOTOPIC_ATOM_COUNT>
0

> <PUBCHEM_COMPONENT_COUNT>
1

> <PUBCHEM_CACTVS_TAUTO_COUNT>
1

> <PUBCHEM_COORDINATE_TYPE>
1
5
255

> <PUBCHEM_BONDANNOTATIONS>
16  17  8
17  19  8
18  21  8
20  25  8
20  26  8
21  23  8
22  24  8
23  24  8
25  27  8
26  28  8
27  29  8
28  29  8
7  16  8
7  18  8
8  18  8
8  19  8
8  22  8

$$$$

