17396428
  -OEChem-06241222562D

 61 65  0     0  0  0  0  0  0999 V2000
    5.2619    2.0981    0.0000 S   0  0  0  0  0  0  0  0  0  0  0  0
    5.2619    3.0981    0.0000 O   0  0  0  0  0  0  0  0  0  0  0  0
    5.2619    1.0981    0.0000 O   0  0  0  0  0  0  0  0  0  0  0  0
    6.7619   -2.2320    0.0000 O   0  0  0  0  0  0  0  0  0  0  0  0
    6.7619   -0.5000    0.0000 O   0  0  0  0  0  0  0  0  0  0  0  0
    4.2619    2.0981    0.0000 N   0  0  0  0  0  0  0  0  0  0  0  0
    8.2619    0.3660    0.0000 N   0  0  0  0  0  0  0  0  0  0  0  0
    3.7320   -0.8660    0.0000 N   0  0  0  0  0  0  0  0  0  0  0  0
    4.6783   -2.1708    0.0000 N   0  0  0  0  0  0  0  0  0  0  0  0
    3.7619    2.9641    0.0000 C   0  0  0  0  0  0  0  0  0  0  0  0
    3.7619    1.2320    0.0000 C   0  0  0  0  0  0  0  0  0  0  0  0
    2.7619    1.2320    0.0000 C   0  0  0  0  0  0  0  0  0  0  0  0
    2.7619    2.9641    0.0000 C   0  0  0  0  0  0  0  0  0  0  0  0
    2.2619    2.0981    0.0000 C   0  0  0  0  0  0  0  0  0  0  0  0
    6.2619    2.0981    0.0000 C   0  0  0  0  0  0  0  0  0  0  0  0
    6.7619    1.2320    0.0000 C   0  0  0  0  0  0  0  0  0  0  0  0
    6.7619    2.9641    0.0000 C   0  0  0  0  0  0  0  0  0  0  0  0
    7.7619    1.2320    0.0000 C   0  0  0  0  0  0  0  0  0  0  0  0
    7.7619    2.9641    0.0000 C   0  0  0  0  0  0  0  0  0  0  0  0
    8.2619    2.0981    0.0000 C   0  0  0  0  0  0  0  0  0  0  0  0
    7.7619   -0.5000    0.0000 C   0  0  0  0  0  0  0  0  0  0  0  0
    8.2619   -1.3660    0.0000 C   0  0  0  0  0  0  0  0  0  0  0  0
    7.7619   -2.2320    0.0000 C   0  0  0  0  0  0  0  0  0  0  0  0
    5.2619   -1.3660    0.0000 C   0  0  0  0  0  0  0  0  0  0  0  0
    6.2619   -1.3660    0.0000 C   0  0  0  0  0  0  0  0  0  0  0  0
    3.7320   -1.8660    0.0000 C   0  0  0  0  0  0  0  0  0  0  0  0
    4.6783   -0.5613    0.0000 C   0  0  0  0  0  0  0  0  0  0  0  0
    9.2619   -1.3660    0.0000 C   0  0  0  0  0  0  0  0  0  0  0  0
    8.2619   -3.0981    0.0000 C   0  0  0  0  0  0  0  0  0  0  0  0
    2.8660   -0.3660    0.0000 C   0  0  0  0  0  0  0  0  0  0  0  0
    2.8660   -2.3660    0.0000 C   0  0  0  0  0  0  0  0  0  0  0  0
    9.7619   -2.2320    0.0000 C   0  0  0  0  0  0  0  0  0  0  0  0
    9.2619   -3.0981    0.0000 C   0  0  0  0  0  0  0  0  0  0  0  0
    2.0000   -0.8660    0.0000 C   0  0  0  0  0  0  0  0  0  0  0  0
    2.0000   -1.8660    0.0000 C   0  0  0  0  0  0  0  0  0  0  0  0
    4.3445    3.1761    0.0000 H   0  0  0  0  0  0  0  0  0  0  0  0
    3.6542    3.5747    0.0000 H   0  0  0  0  0  0  0  0  0  0  0  0
    3.6542    0.6215    0.0000 H   0  0  0  0  0  0  0  0  0  0  0  0
    4.3445    1.0200    0.0000 H   0  0  0  0  0  0  0  0  0  0  0  0
    2.8695    3.5747    0.0000 H   0  0  0  0  0  0  0  0  0  0  0  0
    2.1793    3.1761    0.0000 H   0  0  0  0  0  0  0  0  0  0  0  0
    2.1793    1.0200    0.0000 H   0  0  0  0  0  0  0  0  0  0  0  0
    2.8695    0.6215    0.0000 H   0  0  0  0  0  0  0  0  0  0  0  0
    1.7869    2.4966    0.0000 H   0  0  0  0  0  0  0  0  0  0  0  0
    1.7869    1.6996    0.0000 H   0  0  0  0  0  0  0  0  0  0  0  0
    6.4519    0.6951    0.0000 H   0  0  0  0  0  0  0  0  0  0  0  0
    6.4519    3.5010    0.0000 H   0  0  0  0  0  0  0  0  0  0  0  0
    8.0719    3.5010    0.0000 H   0  0  0  0  0  0  0  0  0  0  0  0
    8.8819    2.0981    0.0000 H   0  0  0  0  0  0  0  0  0  0  0  0
    8.8819    0.3660    0.0000 H   0  0  0  0  0  0  0  0  0  0  0  0
    6.8445   -1.1540    0.0000 H   0  0  0  0  0  0  0  0  0  0  0  0
    6.1542   -0.7554    0.0000 H   0  0  0  0  0  0  0  0  0  0  0  0
    4.8709    0.0280    0.0000 H   0  0  0  0  0  0  0  0  0  0  0  0
    9.5719   -0.8291    0.0000 H   0  0  0  0  0  0  0  0  0  0  0  0
    2.8660    0.2540    0.0000 H   0  0  0  0  0  0  0  0  0  0  0  0
    7.9519   -3.6350    0.0000 H   0  0  0  0  0  0  0  0  0  0  0  0
    2.8660   -2.9860    0.0000 H   0  0  0  0  0  0  0  0  0  0  0  0
   10.3819   -2.2320    0.0000 H   0  0  0  0  0  0  0  0  0  0  0  0
    9.5719   -3.6350    0.0000 H   0  0  0  0  0  0  0  0  0  0  0  0
    1.4631   -0.5560    0.0000 H   0  0  0  0  0  0  0  0  0  0  0  0
    1.4631   -2.1760    0.0000 H   0  0  0  0  0  0  0  0  0  0  0  0
  1  2  2  0  0  0  0
  1  3  2  0  0  0  0
  1  6  1  0  0  0  0
  1 15  1  0  0  0  0
  4 23  1  0  0  0  0
  4 25  1  0  0  0  0
  5 21  2  0  0  0  0
  6 10  1  0  0  0  0
  6 11  1  0  0  0  0
  7 18  1  0  0  0  0
  7 21  1  0  0  0  0
  7 50  1  0  0  0  0
  8 26  1  0  0  0  0
  8 27  1  0  0  0  0
  8 30  1  0  0  0  0
  9 24  1  0  0  0  0
  9 26  2  0  0  0  0
 10 13  1  0  0  0  0
 10 36  1  0  0  0  0
 10 37  1  0  0  0  0
 11 12  1  0  0  0  0
 11 38  1  0  0  0  0
 11 39  1  0  0  0  0
 12 14  1  0  0  0  0
 12 42  1  0  0  0  0
 12 43  1  0  0  0  0
 13 14  1  0  0  0  0
 13 40  1  0  0  0  0
 13 41  1  0  0  0  0
 14 44  1  0  0  0  0
 14 45  1  0  0  0  0
 15 16  1  0  0  0  0
 15 17  2  0  0  0  0
 16 18  2  0  0  0  0
 16 46  1  0  0  0  0
 17 19  1  0  0  0  0
 17 47  1  0  0  0  0
 18 20  1  0  0  0  0
 19 20  2  0  0  0  0
 19 48  1  0  0  0  0
 20 49  1  0  0  0  0
 21 22  1  0  0  0  0
 22 23  1  0  0  0  0
 22 28  2  0  0  0  0
 23 29  2  0  0  0  0
 24 25  1  0  0  0  0
 24 27  2  0  0  0  0
 25 51  1  0  0  0  0
 25 52  1  0  0  0  0
 26 31  1  0  0  0  0
 27 53  1  0  0  0  0
 28 32  1  0  0  0  0
 28 54  1  0  0  0  0
 29 33  1  0  0  0  0
 29 56  1  0  0  0  0
 30 34  2  0  0  0  0
 30 55  1  0  0  0  0
 31 35  2  0  0  0  0
 31 57  1  0  0  0  0
 32 33  2  0  0  0  0
 32 58  1  0  0  0  0
 33 59  1  0  0  0  0
 34 35  1  0  0  0  0
 34 60  1  0  0  0  0
 35 61  1  0  0  0  0
M  END
> <PUBCHEM_COMPOUND_CID>
17396428

> <PUBCHEM_COMPOUND_CANONICALIZED>
1

> <PUBCHEM_CACTVS_COMPLEXITY>
813

> <PUBCHEM_CACTVS_HBOND_ACCEPTOR>
6

> <PUBCHEM_CACTVS_HBOND_DONOR>
1

> <PUBCHEM_CACTVS_ROTATABLE_BOND>
7

> <PUBCHEM_CACTVS_SUBSKEYS>
AAADceB7uABAAAAAAAAAAAAAAAAAAWAAAAA8eIEAAAAAAFgB9AAAHgQQQAAADAzh3wY995/MHAKoAzd3dHTCiD01MqAJ2Dk+fNiObvbEvZuXOWzu9BPY6aeYyCCOAAAAACAIAAAAAAAAQBAAAAAAAAAAAA==

> <PUBCHEM_IUPAC_OPENEYE_NAME>
2-(imidazo[1,2-a]pyridin-2-ylmethoxy)-N-[3-(1-piperidylsulfonyl)phenyl]benzamide

> <PUBCHEM_IUPAC_CAS_NAME>
2-(2-imidazo[1,2-a]pyridinylmethoxy)-N-[3-(1-piperidinylsulfonyl)phenyl]benzamide

> <PUBCHEM_IUPAC_NAME>
2-(imidazo[1,2-a]pyridin-2-ylmethoxy)-N-(3-piperidin-1-ylsulfonylphenyl)benzamide

> <PUBCHEM_IUPAC_SYSTEMATIC_NAME>
2-(imidazo[1,2-a]pyridin-2-ylmethoxy)-N-(3-piperidin-1-ylsulfonylphenyl)benzamide

> <PUBCHEM_IUPAC_TRADITIONAL_NAME>
2-(imidazo[1,2-a]pyridin-2-ylmethoxy)-N-(3-piperidinosulfonylphenyl)benzamide

> <PUBCHEM_IUPAC_INCHI>
InChI=1S/C26H26N4O4S/c31-26(28-20-9-8-10-22(17-20)35(32,33)30-15-5-1-6-16-30)23-11-2-3-12-24(23)34-19-21-18-29-14-7-4-13-25(29)27-21/h2-4,7-14,17-18H,1,5-6,15-16,19H2,(H,28,31)

> <PUBCHEM_IUPAC_INCHIKEY>
CDYJWYKESHBIFL-UHFFFAOYSA-N

> <PUBCHEM_XLOGP3_AA>
4.1

> <PUBCHEM_EXACT_MASS>
490.167476

> <PUBCHEM_MOLECULAR_FORMULA>
C26H26N4O4S

> <PUBCHEM_MOLECULAR_WEIGHT>
490.57404

> <PUBCHEM_OPENEYE_CAN_SMILES>
C1CCN(CC1)S(=O)(=O)C2=CC=CC(=C2)NC(=O)C3=CC=CC=C3OCC4=CN5C=CC=CC5=N4

> <PUBCHEM_OPENEYE_ISO_SMILES>
C1CCN(CC1)S(=O)(=O)C2=CC=CC(=C2)NC(=O)C3=CC=CC=C3OCC4=CN5C=CC=CC5=N4

> <PUBCHEM_CACTVS_TPSA>
101

> <PUBCHEM_MONOISOTOPIC_WEIGHT>
490.167476

> <PUBCHEM_TOTAL_CHARGE>
0

> <PUBCHEM_HEAVY_ATOM_COUNT>
35

> <PUBCHEM_ATOM_DEF_STEREO_COUNT>
0

> <PUBCHEM_ATOM_UDEF_STEREO_COUNT>
0

> <PUBCHEM_BOND_DEF_STEREO_COUNT>
0

> <PUBCHEM_BOND_UDEF_STEREO_COUNT>
0

> <PUBCHEM_ISOTOPIC_ATOM_COUNT>
0

> <PUBCHEM_COMPONENT_COUNT>
1

> <PUBCHEM_CACTVS_TAUTO_COUNT>
2

> <PUBCHEM_COORDINATE_TYPE>
1
5
255

> <PUBCHEM_BONDANNOTATIONS>
15  16  8
15  17  8
16  18  8
17  19  8
18  20  8
19  20  8
22  23  8
22  28  8
23  29  8
24  27  8
26  31  8
28  32  8
29  33  8
30  34  8
31  35  8
32  33  8
34  35  8
8  26  8
8  27  8
8  30  8
9  24  8
9  26  8

$$$$

