17395647
  -OEChem-06241222512D

 42 44  0     0  0  0  0  0  0999 V2000
    3.8968    2.4097    0.0000 S   0  0  0  0  0  0  0  0  0  0  0  0
    9.8082   -2.9975    0.0000 O   0  0  0  0  0  0  0  0  0  0  0  0
    5.1701    0.7542    0.0000 O   0  0  0  0  0  0  0  0  0  0  0  0
    7.1591    0.9633    0.0000 O   0  0  0  0  0  0  0  0  0  0  0  0
    3.7688   -0.2639    0.0000 O   0  0  0  0  0  0  0  0  0  0  0  0
   10.3434   -1.3502    0.0000 N   0  0  0  0  0  0  0  0  0  0  0  0
    7.8402   -2.2982    0.0000 N   0  0  0  0  0  0  0  0  0  0  0  0
   11.1524    0.0510    0.0000 C   0  0  0  0  0  0  0  0  0  0  0  0
   11.8216   -0.6921    0.0000 C   0  0  0  0  0  0  0  0  0  0  0  0
   11.3216   -1.5582    0.0000 C   0  0  0  0  0  0  0  0  0  0  0  0
   10.2389   -0.3557    0.0000 C   0  0  0  0  0  0  0  0  0  0  0  0
    9.6003   -2.0194    0.0000 C   0  0  0  0  0  0  0  0  0  0  0  0
    8.6492   -1.7104    0.0000 C   0  0  0  0  0  0  0  0  0  0  0  0
    8.3402   -0.7593    0.0000 C   0  0  0  0  0  0  0  0  0  0  0  0
    7.3402   -0.7593    0.0000 C   0  0  0  0  0  0  0  0  0  0  0  0
    7.0312   -1.7104    0.0000 C   0  0  0  0  0  0  0  0  0  0  0  0
    6.7524    0.0497    0.0000 C   0  0  0  0  0  0  0  0  0  0  0  0
    5.7579   -0.0548    0.0000 C   0  0  0  0  0  0  0  0  0  0  0  0
    3.5878    1.4587    0.0000 C   0  0  0  0  0  0  0  0  0  0  0  0
    2.5878    1.4587    0.0000 C   0  0  0  0  0  0  0  0  0  0  0  0
    4.1756    0.6497    0.0000 C   0  0  0  0  0  0  0  0  0  0  0  0
    2.2788    2.4097    0.0000 C   0  0  0  0  0  0  0  0  0  0  0  0
    2.0000    0.6497    0.0000 C   0  0  0  0  0  0  0  0  0  0  0  0
    3.0878    2.9975    0.0000 C   0  0  0  0  0  0  0  0  0  0  0  0
   11.6540    0.4154    0.0000 H   0  0  0  0  0  0  0  0  0  0  0  0
   10.8424    0.5879    0.0000 H   0  0  0  0  0  0  0  0  0  0  0  0
   12.3231   -1.0566    0.0000 H   0  0  0  0  0  0  0  0  0  0  0  0
   12.2364   -0.2314    0.0000 H   0  0  0  0  0  0  0  0  0  0  0  0
   10.0473    0.2339    0.0000 H   0  0  0  0  0  0  0  0  0  0  0  0
    9.6324   -0.4846    0.0000 H   0  0  0  0  0  0  0  0  0  0  0  0
   11.1300   -2.1478    0.0000 H   0  0  0  0  0  0  0  0  0  0  0  0
   11.8879   -1.8103    0.0000 H   0  0  0  0  0  0  0  0  0  0  0  0
    8.7046   -0.2577    0.0000 H   0  0  0  0  0  0  0  0  0  0  0  0
    7.8402   -2.9181    0.0000 H   0  0  0  0  0  0  0  0  0  0  0  0
    6.4415   -1.9020    0.0000 H   0  0  0  0  0  0  0  0  0  0  0  0
    5.2006   -0.3266    0.0000 H   0  0  0  0  0  0  0  0  0  0  0  0
    5.9288   -0.6508    0.0000 H   0  0  0  0  0  0  0  0  0  0  0  0
    1.6891    2.6013    0.0000 H   0  0  0  0  0  0  0  0  0  0  0  0
    1.4984    1.0141    0.0000 H   0  0  0  0  0  0  0  0  0  0  0  0
    1.6356    0.1481    0.0000 H   0  0  0  0  0  0  0  0  0  0  0  0
    2.5016    0.2852    0.0000 H   0  0  0  0  0  0  0  0  0  0  0  0
    3.0878    3.6175    0.0000 H   0  0  0  0  0  0  0  0  0  0  0  0
  1 19  1  0  0  0  0
  1 24  1  0  0  0  0
  2 12  2  0  0  0  0
  3 18  1  0  0  0  0
  3 21  1  0  0  0  0
  4 17  2  0  0  0  0
  5 21  2  0  0  0  0
  6 10  1  0  0  0  0
  6 11  1  0  0  0  0
  6 12  1  0  0  0  0
  7 13  1  0  0  0  0
  7 16  1  0  0  0  0
  7 34  1  0  0  0  0
  8  9  1  0  0  0  0
  8 11  1  0  0  0  0
  8 25  1  0  0  0  0
  8 26  1  0  0  0  0
  9 10  1  0  0  0  0
  9 27  1  0  0  0  0
  9 28  1  0  0  0  0
 10 31  1  0  0  0  0
 10 32  1  0  0  0  0
 11 29  1  0  0  0  0
 11 30  1  0  0  0  0
 12 13  1  0  0  0  0
 13 14  2  0  0  0  0
 14 15  1  0  0  0  0
 14 33  1  0  0  0  0
 15 16  2  0  0  0  0
 15 17  1  0  0  0  0
 16 35  1  0  0  0  0
 17 18  1  0  0  0  0
 18 36  1  0  0  0  0
 18 37  1  0  0  0  0
 19 20  2  0  0  0  0
 19 21  1  0  0  0  0
 20 22  1  0  0  0  0
 20 23  1  0  0  0  0
 22 24  2  0  0  0  0
 22 38  1  0  0  0  0
 23 39  1  0  0  0  0
 23 40  1  0  0  0  0
 23 41  1  0  0  0  0
 24 42  1  0  0  0  0
M  END
> <PUBCHEM_COMPOUND_CID>
17395647

> <PUBCHEM_COMPOUND_CANONICALIZED>
1

> <PUBCHEM_CACTVS_COMPLEXITY>
507

> <PUBCHEM_CACTVS_HBOND_ACCEPTOR>
5

> <PUBCHEM_CACTVS_HBOND_DONOR>
1

> <PUBCHEM_CACTVS_ROTATABLE_BOND>
6

> <PUBCHEM_CACTVS_SUBSKEYS>
AAADceB7OABAAAAAAAAAAAAAAAAAAWLEgAAAAAAAAAAAAAAB4AAAHgQQAAAADAzl3ga+iZPJlAisA7X3XAKDgKA3CjBI2bn4bNgIZvrgtb2WEYhk1gHo6ce8WwMuAAAAAAAAAAAAAAAAAAAAAAAAAAAAAA==

> <PUBCHEM_IUPAC_OPENEYE_NAME>
[2-oxo-2-[5-(pyrrolidine-1-carbonyl)-1H-pyrrol-3-yl]ethyl] 3-methylthiophene-2-carboxylate

> <PUBCHEM_IUPAC_CAS_NAME>
3-methyl-2-thiophenecarboxylic acid [2-oxo-2-[5-[oxo(1-pyrrolidinyl)methyl]-1H-pyrrol-3-yl]ethyl] ester

> <PUBCHEM_IUPAC_NAME>
[2-oxo-2-[5-(pyrrolidine-1-carbonyl)-1H-pyrrol-3-yl]ethyl] 3-methylthiophene-2-carboxylate

> <PUBCHEM_IUPAC_SYSTEMATIC_NAME>
[2-oxidanylidene-2-(5-pyrrolidin-1-ylcarbonyl-1H-pyrrol-3-yl)ethyl] 3-methylthiophene-2-carboxylate

> <PUBCHEM_IUPAC_TRADITIONAL_NAME>
3-methylthiophene-2-carboxylic acid [2-keto-2-[5-(pyrrolidine-1-carbonyl)-1H-pyrrol-3-yl]ethyl] ester

> <PUBCHEM_IUPAC_INCHI>
InChI=1S/C17H18N2O4S/c1-11-4-7-24-15(11)17(22)23-10-14(20)12-8-13(18-9-12)16(21)19-5-2-3-6-19/h4,7-9,18H,2-3,5-6,10H2,1H3

> <PUBCHEM_IUPAC_INCHIKEY>
NRXCCVIGKCFQPI-UHFFFAOYSA-N

> <PUBCHEM_XLOGP3_AA>
2.6

> <PUBCHEM_EXACT_MASS>
346.098728

> <PUBCHEM_MOLECULAR_FORMULA>
C17H18N2O4S

> <PUBCHEM_MOLECULAR_WEIGHT>
346.40082

> <PUBCHEM_OPENEYE_CAN_SMILES>
CC1=C(SC=C1)C(=O)OCC(=O)C2=CNC(=C2)C(=O)N3CCCC3

> <PUBCHEM_OPENEYE_ISO_SMILES>
CC1=C(SC=C1)C(=O)OCC(=O)C2=CNC(=C2)C(=O)N3CCCC3

> <PUBCHEM_CACTVS_TPSA>
108

> <PUBCHEM_MONOISOTOPIC_WEIGHT>
346.098728

> <PUBCHEM_TOTAL_CHARGE>
0

> <PUBCHEM_HEAVY_ATOM_COUNT>
24

> <PUBCHEM_ATOM_DEF_STEREO_COUNT>
0

> <PUBCHEM_ATOM_UDEF_STEREO_COUNT>
0

> <PUBCHEM_BOND_DEF_STEREO_COUNT>
0

> <PUBCHEM_BOND_UDEF_STEREO_COUNT>
0

> <PUBCHEM_ISOTOPIC_ATOM_COUNT>
0

> <PUBCHEM_COMPONENT_COUNT>
1

> <PUBCHEM_CACTVS_TAUTO_COUNT>
11

> <PUBCHEM_COORDINATE_TYPE>
1
5
255

> <PUBCHEM_BONDANNOTATIONS>
1  19  8
1  24  8
13  14  8
14  15  8
15  16  8
19  20  8
20  22  8
22  24  8
7  13  8
7  16  8

$$$$

