14386
  -OEChem-06241222432D

 43 43  0     0  0  0  0  0  0999 V2000
    8.2700    4.0387    0.0000 Cl  0  0  0  0  0  0  0  0  0  0  0  0
    1.4600    7.1247    0.0000 S   0  0  0  0  0  0  0  0  0  0  0  0
    1.4030    1.0369    0.0000 O   0  0  0  0  0  0  0  0  0  0  0  0
    2.2690    5.5369    0.0000 N   0  0  0  0  0  0  0  0  0  0  0  0
    4.8671    5.0369    0.0000 N   0  0  0  0  0  0  0  0  0  0  0  0
    3.0780    7.1247    0.0000 N   0  0  0  0  0  0  0  0  0  0  0  0
    3.1350    5.0369    0.0000 C   0  0  0  0  0  0  0  0  0  0  0  0
    4.0010    5.5369    0.0000 C   0  0  0  0  0  0  0  0  0  0  0  0
    1.4030    5.0369    0.0000 C   0  0  0  0  0  0  0  0  0  0  0  0
    1.4030    4.0369    0.0000 C   0  0  0  0  0  0  0  0  0  0  0  0
    2.2690    6.5369    0.0000 C   0  0  0  0  0  0  0  0  0  0  0  0
    5.7331    5.5369    0.0000 C   0  0  0  0  0  0  0  0  0  0  0  0
    4.8671    4.0369    0.0000 C   0  0  0  0  0  0  0  0  0  0  0  0
    0.5369    3.5369    0.0000 C   0  0  0  0  0  0  0  0  0  0  0  0
    2.2690    3.5369    0.0000 C   0  0  0  0  0  0  0  0  0  0  0  0
    0.5369    2.5369    0.0000 C   0  0  0  0  0  0  0  0  0  0  0  0
    2.2690    2.5369    0.0000 C   0  0  0  0  0  0  0  0  0  0  0  0
    1.4030    2.0369    0.0000 C   0  0  0  0  0  0  0  0  0  0  0  0
    1.7690    8.0758    0.0000 C   0  0  0  0  0  0  0  0  0  0  0  0
    2.7690    8.0758    0.0000 C   0  0  0  0  0  0  0  0  0  0  0  0
    0.5369    0.5369    0.0000 C   0  0  0  0  0  0  0  0  0  0  0  0
    2.7365    4.5620    0.0000 H   0  0  0  0  0  0  0  0  0  0  0  0
    3.5335    4.5620    0.0000 H   0  0  0  0  0  0  0  0  0  0  0  0
    4.3996    6.0119    0.0000 H   0  0  0  0  0  0  0  0  0  0  0  0
    3.6025    6.0119    0.0000 H   0  0  0  0  0  0  0  0  0  0  0  0
    1.1909    5.6195    0.0000 H   0  0  0  0  0  0  0  0  0  0  0  0
    0.7924    4.9293    0.0000 H   0  0  0  0  0  0  0  0  0  0  0  0
    6.0431    5.0000    0.0000 H   0  0  0  0  0  0  0  0  0  0  0  0
    6.2700    5.8469    0.0000 H   0  0  0  0  0  0  0  0  0  0  0  0
    5.4231    6.0739    0.0000 H   0  0  0  0  0  0  0  0  0  0  0  0
    4.2471    4.0369    0.0000 H   0  0  0  0  0  0  0  0  0  0  0  0
    4.8671    3.4169    0.0000 H   0  0  0  0  0  0  0  0  0  0  0  0
    5.4871    4.0369    0.0000 H   0  0  0  0  0  0  0  0  0  0  0  0
    0.0000    3.8469    0.0000 H   0  0  0  0  0  0  0  0  0  0  0  0
    2.8059    3.8469    0.0000 H   0  0  0  0  0  0  0  0  0  0  0  0
    0.0000    2.2269    0.0000 H   0  0  0  0  0  0  0  0  0  0  0  0
    2.8059    2.2269    0.0000 H   0  0  0  0  0  0  0  0  0  0  0  0
    1.4046    8.5774    0.0000 H   0  0  0  0  0  0  0  0  0  0  0  0
    3.1334    8.5774    0.0000 H   0  0  0  0  0  0  0  0  0  0  0  0
    0.2269    1.0739    0.0000 H   0  0  0  0  0  0  0  0  0  0  0  0
    0.0000    0.2269    0.0000 H   0  0  0  0  0  0  0  0  0  0  0  0
    0.8469    0.0000    0.0000 H   0  0  0  0  0  0  0  0  0  0  0  0
    9.2700    4.0387    0.0000 H   0  0  0  0  0  0  0  0  0  0  0  0
  1 43  1  0  0  0  0
  2 11  1  0  0  0  0
  2 19  1  0  0  0  0
  3 18  1  0  0  0  0
  3 21  1  0  0  0  0
  4  7  1  0  0  0  0
  4  9  1  0  0  0  0
  4 11  1  0  0  0  0
  5  8  1  0  0  0  0
  5 12  1  0  0  0  0
  5 13  1  0  0  0  0
  6 11  2  0  0  0  0
  6 20  1  0  0  0  0
  7  8  1  0  0  0  0
  7 22  1  0  0  0  0
  7 23  1  0  0  0  0
  8 24  1  0  0  0  0
  8 25  1  0  0  0  0
  9 10  1  0  0  0  0
  9 26  1  0  0  0  0
  9 27  1  0  0  0  0
 10 14  2  0  0  0  0
 10 15  1  0  0  0  0
 12 28  1  0  0  0  0
 12 29  1  0  0  0  0
 12 30  1  0  0  0  0
 13 31  1  0  0  0  0
 13 32  1  0  0  0  0
 13 33  1  0  0  0  0
 14 16  1  0  0  0  0
 14 34  1  0  0  0  0
 15 17  2  0  0  0  0
 15 35  1  0  0  0  0
 16 18  2  0  0  0  0
 16 36  1  0  0  0  0
 17 18  1  0  0  0  0
 17 37  1  0  0  0  0
 19 20  2  0  0  0  0
 19 38  1  0  0  0  0
 20 39  1  0  0  0  0
 21 40  1  0  0  0  0
 21 41  1  0  0  0  0
 21 42  1  0  0  0  0
M  END
> <PUBCHEM_COMPOUND_CID>
14386

> <PUBCHEM_COMPOUND_CANONICALIZED>
1

> <PUBCHEM_CACTVS_COMPLEXITY>
270

> <PUBCHEM_CACTVS_HBOND_ACCEPTOR>
5

> <PUBCHEM_CACTVS_HBOND_DONOR>
1

> <PUBCHEM_CACTVS_ROTATABLE_BOND>
7

> <PUBCHEM_CACTVS_SUBSKEYS>
AAADceBzIABEAAAAAAAAAAAAAAAAAWAAAAAwAAAAAAAAAAABwAAAHgQAAAAADATF2ga/l5MIFAikAjBnZACC+KlxKjhJyAweLIiMZiKEuRuUMChswBOIqCeQ0AIOIAAAAAAAAABAAAAAAAAAAAAAAAAAAA==

> <PUBCHEM_IUPAC_OPENEYE_NAME>
N'-[(4-methoxyphenyl)methyl]-N,N-dimethyl-N'-thiazol-2-yl-ethane-1,2-diamine hydrochloride

> <PUBCHEM_IUPAC_CAS_NAME>
N'-[(4-methoxyphenyl)methyl]-N,N-dimethyl-N'-(2-thiazolyl)ethane-1,2-diamine hydrochloride

> <PUBCHEM_IUPAC_NAME>
N'-[(4-methoxyphenyl)methyl]-N,N-dimethyl-N'-(1,3-thiazol-2-yl)ethane-1,2-diamine hydrochloride

> <PUBCHEM_IUPAC_SYSTEMATIC_NAME>
N'-[(4-methoxyphenyl)methyl]-N,N-dimethyl-N'-(1,3-thiazol-2-yl)ethane-1,2-diamine hydrochloride

> <PUBCHEM_IUPAC_TRADITIONAL_NAME>
dimethyl-[2-[p-anisyl(thiazol-2-yl)amino]ethyl]amine hydrochloride

> <PUBCHEM_IUPAC_INCHI>
InChI=1S/C15H21N3OS.ClH/c1-17(2)9-10-18(15-16-8-11-20-15)12-13-4-6-14(19-3)7-5-13;/h4-8,11H,9-10,12H2,1-3H3;1H

> <PUBCHEM_IUPAC_INCHIKEY>
GSDXPNOJFAITBE-UHFFFAOYSA-N

> <PUBCHEM_EXACT_MASS>
327.117211

> <PUBCHEM_MOLECULAR_FORMULA>
C15H22ClN3OS

> <PUBCHEM_MOLECULAR_WEIGHT>
327.87268

> <PUBCHEM_OPENEYE_CAN_SMILES>
CN(C)CCN(CC1=CC=C(C=C1)OC)C2=NC=CS2.Cl

> <PUBCHEM_OPENEYE_ISO_SMILES>
CN(C)CCN(CC1=CC=C(C=C1)OC)C2=NC=CS2.Cl

> <PUBCHEM_CACTVS_TPSA>
56.8

> <PUBCHEM_MONOISOTOPIC_WEIGHT>
327.117211

> <PUBCHEM_TOTAL_CHARGE>
0

> <PUBCHEM_HEAVY_ATOM_COUNT>
21

> <PUBCHEM_ATOM_DEF_STEREO_COUNT>
0

> <PUBCHEM_ATOM_UDEF_STEREO_COUNT>
0

> <PUBCHEM_BOND_DEF_STEREO_COUNT>
0

> <PUBCHEM_BOND_UDEF_STEREO_COUNT>
0

> <PUBCHEM_ISOTOPIC_ATOM_COUNT>
0

> <PUBCHEM_COMPONENT_COUNT>
2

> <PUBCHEM_CACTVS_TAUTO_COUNT>
1

> <PUBCHEM_COORDINATE_TYPE>
1
5
255

> <PUBCHEM_BONDANNOTATIONS>
10  14  8
10  15  8
14  16  8
15  17  8
16  18  8
17  18  8
19  20  8
2  11  8
2  19  8
6  11  8
6  20  8

$$$$

