17396480
  -OEChem-06241222562D

 34 36  0     0  0  0  0  0  0999 V2000
    3.4782   -4.1627    0.0000 S   0  0  0  0  0  0  0  0  0  0  0  0
    6.1808   -1.6682    0.0000 O   0  0  0  0  0  0  0  0  0  0  0  0
    5.3147   -0.1682    0.0000 N   0  0  0  0  0  0  0  0  0  0  0  0
    7.0468    2.8318    0.0000 N   0  0  0  0  0  0  0  0  0  0  0  0
    6.2378    3.4196    0.0000 N   0  0  0  0  0  0  0  0  0  0  0  0
    7.5468    4.3706    0.0000 N   0  0  0  0  0  0  0  0  0  0  0  0
    6.5468    4.3706    0.0000 N   0  0  0  0  0  0  0  0  0  0  0  0
    4.4487   -2.6682    0.0000 C   0  0  0  0  0  0  0  0  0  0  0  0
    4.4487   -1.6682    0.0000 C   0  0  0  0  0  0  0  0  0  0  0  0
    3.5827   -3.1682    0.0000 C   0  0  0  0  0  0  0  0  0  0  0  0
    5.3147   -1.1682    0.0000 C   0  0  0  0  0  0  0  0  0  0  0  0
    6.1808    0.3318    0.0000 C   0  0  0  0  0  0  0  0  0  0  0  0
    7.0468    1.8318    0.0000 C   0  0  0  0  0  0  0  0  0  0  0  0
    6.1808    1.3318    0.0000 C   0  0  0  0  0  0  0  0  0  0  0  0
    7.0468   -0.1682    0.0000 C   0  0  0  0  0  0  0  0  0  0  0  0
    2.6691   -2.7615    0.0000 C   0  0  0  0  0  0  0  0  0  0  0  0
    7.9128    1.3318    0.0000 C   0  0  0  0  0  0  0  0  0  0  0  0
    7.9128    0.3318    0.0000 C   0  0  0  0  0  0  0  0  0  0  0  0
    2.0000   -3.5046    0.0000 C   0  0  0  0  0  0  0  0  0  0  0  0
    2.5000   -4.3706    0.0000 C   0  0  0  0  0  0  0  0  0  0  0  0
    7.8558    3.4196    0.0000 C   0  0  0  0  0  0  0  0  0  0  0  0
    4.6608   -3.2508    0.0000 H   0  0  0  0  0  0  0  0  0  0  0  0
    5.0593   -2.5605    0.0000 H   0  0  0  0  0  0  0  0  0  0  0  0
    4.2366   -1.0856    0.0000 H   0  0  0  0  0  0  0  0  0  0  0  0
    3.8381   -1.7759    0.0000 H   0  0  0  0  0  0  0  0  0  0  0  0
    4.7778    0.1418    0.0000 H   0  0  0  0  0  0  0  0  0  0  0  0
    5.6438    1.6418    0.0000 H   0  0  0  0  0  0  0  0  0  0  0  0
    7.0468   -0.7882    0.0000 H   0  0  0  0  0  0  0  0  0  0  0  0
    2.5402   -2.1550    0.0000 H   0  0  0  0  0  0  0  0  0  0  0  0
    8.4497    1.6418    0.0000 H   0  0  0  0  0  0  0  0  0  0  0  0
    8.4497    0.0218    0.0000 H   0  0  0  0  0  0  0  0  0  0  0  0
    1.3834   -3.4398    0.0000 H   0  0  0  0  0  0  0  0  0  0  0  0
    2.2478   -4.9370    0.0000 H   0  0  0  0  0  0  0  0  0  0  0  0
    8.4454    3.2280    0.0000 H   0  0  0  0  0  0  0  0  0  0  0  0
  1 10  1  0  0  0  0
  1 20  1  0  0  0  0
  2 11  2  0  0  0  0
  3 11  1  0  0  0  0
  3 12  1  0  0  0  0
  3 26  1  0  0  0  0
  4  5  1  0  0  0  0
  4 13  1  0  0  0  0
  4 21  1  0  0  0  0
  5  7  2  0  0  0  0
  6  7  1  0  0  0  0
  6 21  2  0  0  0  0
  8  9  1  0  0  0  0
  8 10  1  0  0  0  0
  8 22  1  0  0  0  0
  8 23  1  0  0  0  0
  9 11  1  0  0  0  0
  9 24  1  0  0  0  0
  9 25  1  0  0  0  0
 10 16  2  0  0  0  0
 12 14  2  0  0  0  0
 12 15  1  0  0  0  0
 13 14  1  0  0  0  0
 13 17  2  0  0  0  0
 14 27  1  0  0  0  0
 15 18  2  0  0  0  0
 15 28  1  0  0  0  0
 16 19  1  0  0  0  0
 16 29  1  0  0  0  0
 17 18  1  0  0  0  0
 17 30  1  0  0  0  0
 18 31  1  0  0  0  0
 19 20  2  0  0  0  0
 19 32  1  0  0  0  0
 20 33  1  0  0  0  0
 21 34  1  0  0  0  0
M  END
> <PUBCHEM_COMPOUND_CID>
17396480

> <PUBCHEM_COMPOUND_CANONICALIZED>
1

> <PUBCHEM_CACTVS_COMPLEXITY>
356

> <PUBCHEM_CACTVS_HBOND_ACCEPTOR>
5

> <PUBCHEM_CACTVS_HBOND_DONOR>
1

> <PUBCHEM_CACTVS_ROTATABLE_BOND>
5

> <PUBCHEM_CACTVS_SUBSKEYS>
AAADccBzoABAAAAAAAAAAAAAAAAAAWJAAAAwAAAAAAAAAAAB8AAAHgQYAAAACAiF0AS10YbIAAiuACVTdACDBKMxipBdiBkIZIiIIDLg2dGEIAhglALoyCcYiACAAAAAAAQAAAAAAAAACAAAAAAAAAAAAA==

> <PUBCHEM_IUPAC_OPENEYE_NAME>
N-[3-(tetrazol-1-yl)phenyl]-3-(2-thienyl)propanamide

> <PUBCHEM_IUPAC_CAS_NAME>
N-[3-(1-tetrazolyl)phenyl]-3-thiophen-2-ylpropanamide

> <PUBCHEM_IUPAC_NAME>
N-[3-(tetrazol-1-yl)phenyl]-3-thiophen-2-ylpropanamide

> <PUBCHEM_IUPAC_SYSTEMATIC_NAME>
N-[3-(1,2,3,4-tetrazol-1-yl)phenyl]-3-thiophen-2-yl-propanamide

> <PUBCHEM_IUPAC_TRADITIONAL_NAME>
N-[3-(tetrazol-1-yl)phenyl]-3-(2-thienyl)propionamide

> <PUBCHEM_IUPAC_INCHI>
InChI=1S/C14H13N5OS/c20-14(7-6-13-5-2-8-21-13)16-11-3-1-4-12(9-11)19-10-15-17-18-19/h1-5,8-10H,6-7H2,(H,16,20)

> <PUBCHEM_IUPAC_INCHIKEY>
OITLFMGKWWRXDM-UHFFFAOYSA-N

> <PUBCHEM_XLOGP3_AA>
2

> <PUBCHEM_EXACT_MASS>
299.084081

> <PUBCHEM_MOLECULAR_FORMULA>
C14H13N5OS

> <PUBCHEM_MOLECULAR_WEIGHT>
299.35092

> <PUBCHEM_OPENEYE_CAN_SMILES>
C1=CC(=CC(=C1)NC(=O)CCC2=CC=CS2)N3C=NN=N3

> <PUBCHEM_OPENEYE_ISO_SMILES>
C1=CC(=CC(=C1)NC(=O)CCC2=CC=CS2)N3C=NN=N3

> <PUBCHEM_CACTVS_TPSA>
101

> <PUBCHEM_MONOISOTOPIC_WEIGHT>
299.084081

> <PUBCHEM_TOTAL_CHARGE>
0

> <PUBCHEM_HEAVY_ATOM_COUNT>
21

> <PUBCHEM_ATOM_DEF_STEREO_COUNT>
0

> <PUBCHEM_ATOM_UDEF_STEREO_COUNT>
0

> <PUBCHEM_BOND_DEF_STEREO_COUNT>
0

> <PUBCHEM_BOND_UDEF_STEREO_COUNT>
0

> <PUBCHEM_ISOTOPIC_ATOM_COUNT>
0

> <PUBCHEM_COMPONENT_COUNT>
1

> <PUBCHEM_CACTVS_TAUTO_COUNT>
3

> <PUBCHEM_COORDINATE_TYPE>
1
5
255

> <PUBCHEM_BONDANNOTATIONS>
1  10  8
1  20  8
10  16  8
12  14  8
12  15  8
13  14  8
13  17  8
15  18  8
16  19  8
17  18  8
19  20  8
4  21  8
4  5  8
5  7  8
6  21  8
6  7  8

$$$$

