586289
  -OEChem-06241222462D

 26 27  0     0  0  0  0  0  0999 V2000
    2.8660   -4.2694    0.0000 Cl  0  0  0  0  0  0  0  0  0  0  0  0
    3.7891    3.3184    0.0000 S   0  0  0  0  0  0  0  0  0  0  0  0
    2.8660   -0.2694    0.0000 O   0  0  0  0  0  0  0  0  0  0  0  0
    4.5981   -0.2694    0.0000 O   0  0  0  0  0  0  0  0  0  0  0  0
    2.8660   -1.2694    0.0000 C   0  0  0  0  0  0  0  0  0  0  0  0
    4.5981    2.7306    0.0000 C   0  0  0  0  0  0  0  0  0  0  0  0
    2.0000   -1.7694    0.0000 C   0  0  0  0  0  0  0  0  0  0  0  0
    3.7320   -1.7694    0.0000 C   0  0  0  0  0  0  0  0  0  0  0  0
    4.5981    1.7306    0.0000 C   0  0  0  0  0  0  0  0  0  0  0  0
    5.4071    3.3184    0.0000 C   0  0  0  0  0  0  0  0  0  0  0  0
    2.0000   -2.7694    0.0000 C   0  0  0  0  0  0  0  0  0  0  0  0
    3.7320   -2.7694    0.0000 C   0  0  0  0  0  0  0  0  0  0  0  0
    2.8660   -3.2694    0.0000 C   0  0  0  0  0  0  0  0  0  0  0  0
    3.7320    1.2306    0.0000 C   0  0  0  0  0  0  0  0  0  0  0  0
    5.0981    4.2694    0.0000 C   0  0  0  0  0  0  0  0  0  0  0  0
    3.7320    0.2306    0.0000 C   0  0  0  0  0  0  0  0  0  0  0  0
    4.0981    4.2694    0.0000 C   0  0  0  0  0  0  0  0  0  0  0  0
    1.4631   -1.4594    0.0000 H   0  0  0  0  0  0  0  0  0  0  0  0
    4.2690   -1.4594    0.0000 H   0  0  0  0  0  0  0  0  0  0  0  0
    5.1350    1.4206    0.0000 H   0  0  0  0  0  0  0  0  0  0  0  0
    5.9967    3.1268    0.0000 H   0  0  0  0  0  0  0  0  0  0  0  0
    1.4631   -3.0794    0.0000 H   0  0  0  0  0  0  0  0  0  0  0  0
    4.2690   -3.0794    0.0000 H   0  0  0  0  0  0  0  0  0  0  0  0
    3.1951    1.5406    0.0000 H   0  0  0  0  0  0  0  0  0  0  0  0
    5.4625    4.7710    0.0000 H   0  0  0  0  0  0  0  0  0  0  0  0
    3.7336    4.7710    0.0000 H   0  0  0  0  0  0  0  0  0  0  0  0
  1 13  1  0  0  0  0
  2  6  1  0  0  0  0
  2 17  1  0  0  0  0
  3  5  1  0  0  0  0
  3 16  1  0  0  0  0
  4 16  2  0  0  0  0
  5  7  2  0  0  0  0
  5  8  1  0  0  0  0
  6  9  1  0  0  0  0
  6 10  2  0  0  0  0
  7 11  1  0  0  0  0
  7 18  1  0  0  0  0
  8 12  2  0  0  0  0
  8 19  1  0  0  0  0
  9 14  2  3  0  0  0
  9 20  1  0  0  0  0
 10 15  1  0  0  0  0
 10 21  1  0  0  0  0
 11 13  2  0  0  0  0
 11 22  1  0  0  0  0
 12 13  1  0  0  0  0
 12 23  1  0  0  0  0
 14 16  1  0  0  0  0
 14 24  1  0  0  0  0
 15 17  2  0  0  0  0
 15 25  1  0  0  0  0
 17 26  1  0  0  0  0
M  END
> <PUBCHEM_COMPOUND_CID>
586289

> <PUBCHEM_COMPOUND_CANONICALIZED>
1

> <PUBCHEM_CACTVS_COMPLEXITY>
285

> <PUBCHEM_CACTVS_HBOND_ACCEPTOR>
3

> <PUBCHEM_CACTVS_HBOND_DONOR>
0

> <PUBCHEM_CACTVS_ROTATABLE_BOND>
4

> <PUBCHEM_CACTVS_SUBSKEYS>
AAADccBwMABEAAAAAAAAAAAAAAAAASAAAAAwAAAAAAAAAAABwAAAGgYAAAAACAaE0CCwD4AABAiMACDSCAADCIAgLRBIiBgGCsgMJiKlMxqCOiCkwBEoqYeAQAAAACAAAAAAAAAAQAAAAAAAAAAAAAAAAA==

> <PUBCHEM_IUPAC_OPENEYE_NAME>
(4-chlorophenyl) 3-(2-thienyl)prop-2-enoate

> <PUBCHEM_IUPAC_CAS_NAME>
3-thiophen-2-yl-2-propenoic acid (4-chlorophenyl) ester

> <PUBCHEM_IUPAC_NAME>
(4-chlorophenyl) 3-thiophen-2-ylprop-2-enoate

> <PUBCHEM_IUPAC_SYSTEMATIC_NAME>
(4-chlorophenyl) 3-thiophen-2-ylprop-2-enoate

> <PUBCHEM_IUPAC_TRADITIONAL_NAME>
3-(2-thienyl)acrylic acid (4-chlorophenyl) ester

> <PUBCHEM_IUPAC_INCHI>
InChI=1S/C13H9ClO2S/c14-10-3-5-11(6-4-10)16-13(15)8-7-12-2-1-9-17-12/h1-9H

> <PUBCHEM_IUPAC_INCHIKEY>
IMOMPDLEQLVQTI-UHFFFAOYSA-N

> <PUBCHEM_XLOGP3_AA>
4.1

> <PUBCHEM_EXACT_MASS>
264.001178

> <PUBCHEM_MOLECULAR_FORMULA>
C13H9ClO2S

> <PUBCHEM_MOLECULAR_WEIGHT>
264.72736

> <PUBCHEM_OPENEYE_CAN_SMILES>
C1=CSC(=C1)C=CC(=O)OC2=CC=C(C=C2)Cl

> <PUBCHEM_OPENEYE_ISO_SMILES>
C1=CSC(=C1)C=CC(=O)OC2=CC=C(C=C2)Cl

> <PUBCHEM_CACTVS_TPSA>
54.5

> <PUBCHEM_MONOISOTOPIC_WEIGHT>
264.001178

> <PUBCHEM_TOTAL_CHARGE>
0

> <PUBCHEM_HEAVY_ATOM_COUNT>
17

> <PUBCHEM_ATOM_DEF_STEREO_COUNT>
0

> <PUBCHEM_ATOM_UDEF_STEREO_COUNT>
0

> <PUBCHEM_BOND_DEF_STEREO_COUNT>
0

> <PUBCHEM_BOND_UDEF_STEREO_COUNT>
1

> <PUBCHEM_ISOTOPIC_ATOM_COUNT>
0

> <PUBCHEM_COMPONENT_COUNT>
1

> <PUBCHEM_CACTVS_TAUTO_COUNT>
1

> <PUBCHEM_COORDINATE_TYPE>
1
5
255

> <PUBCHEM_BONDANNOTATIONS>
10  15  8
11  13  8
12  13  8
15  17  8
2  17  8
2  6  8
5  7  8
5  8  8
6  10  8
7  11  8
8  12  8
9  14  1

$$$$

