6525
  -OEChem-06261201222D

 21 21  0     0  0  0  0  0  0999 V2000
    2.6200    0.7315    0.0000 O   0  0  0  0  0  0  0  0  0  0  0  0
    3.1200   -0.1345    0.0000 C   0  0  0  0  0  0  0  0  0  0  0  0
    2.2540   -0.6345    0.0000 C   0  0  0  0  0  0  0  0  0  0  0  0
    3.9860   -0.6345    0.0000 C   0  0  0  0  0  0  0  0  0  0  0  0
    3.9860   -1.6345    0.0000 C   0  0  0  0  0  0  0  0  0  0  0  0
    2.2540   -1.6345    0.0000 C   0  0  0  0  0  0  0  0  0  0  0  0
    3.1200   -2.1345    0.0000 C   0  0  0  0  0  0  0  0  0  0  0  0
    3.6200    0.7315    0.0000 C   0  0  0  0  0  0  0  0  0  0  0  0
    4.1200    1.5976    0.0000 C   0  0  0  0  0  0  0  0  0  0  0  0
    4.5966   -0.7422    0.0000 H   0  0  0  0  0  0  0  0  0  0  0  0
    4.1981   -0.0519    0.0000 H   0  0  0  0  0  0  0  0  0  0  0  0
    2.0419   -0.0519    0.0000 H   0  0  0  0  0  0  0  0  0  0  0  0
    1.6434   -0.7422    0.0000 H   0  0  0  0  0  0  0  0  0  0  0  0
    4.1981   -2.2171    0.0000 H   0  0  0  0  0  0  0  0  0  0  0  0
    4.5966   -1.5268    0.0000 H   0  0  0  0  0  0  0  0  0  0  0  0
    1.6434   -1.5268    0.0000 H   0  0  0  0  0  0  0  0  0  0  0  0
    2.0419   -2.2171    0.0000 H   0  0  0  0  0  0  0  0  0  0  0  0
    2.7215   -2.6094    0.0000 H   0  0  0  0  0  0  0  0  0  0  0  0
    3.5185   -2.6094    0.0000 H   0  0  0  0  0  0  0  0  0  0  0  0
    2.0000    0.7315    0.0000 H   0  0  0  0  0  0  0  0  0  0  0  0
    4.4300    2.1345    0.0000 H   0  0  0  0  0  0  0  0  0  0  0  0
  1  2  1  0  0  0  0
  1 20  1  0  0  0  0
  2  3  1  0  0  0  0
  2  4  1  0  0  0  0
  2  8  1  0  0  0  0
  3  6  1  0  0  0  0
  3 12  1  0  0  0  0
  3 13  1  0  0  0  0
  4  5  1  0  0  0  0
  4 10  1  0  0  0  0
  4 11  1  0  0  0  0
  5  7  1  0  0  0  0
  5 14  1  0  0  0  0
  5 15  1  0  0  0  0
  6  7  1  0  0  0  0
  6 16  1  0  0  0  0
  6 17  1  0  0  0  0
  7 18  1  0  0  0  0
  7 19  1  0  0  0  0
  8  9  3  0  0  0  0
  9 21  1  0  0  0  0
M  END
> <PUBCHEM_COMPOUND_CID>
6525

> <PUBCHEM_COMPOUND_CANONICALIZED>
1

> <PUBCHEM_CACTVS_COMPLEXITY>
134

> <PUBCHEM_CACTVS_HBOND_ACCEPTOR>
1

> <PUBCHEM_CACTVS_HBOND_DONOR>
1

> <PUBCHEM_CACTVS_ROTATABLE_BOND>
1

> <PUBCHEM_CACTVS_SUBSKEYS>
AAADccBwIAAAAAAAAAAAAAAAAAAAAAAAAAAwAAAAAAAAAAAAAAAAGgAACAAADESAgAAAAAAAAgBAGAAAAAgAAAAAAAAAAAAAAAAAAAIAAAAAQAAEAAAAAAGAwAAOAAAAAAAAAAAAAAAAAAAAAAAAAAAAAA==

> <PUBCHEM_IUPAC_OPENEYE_NAME>
1-ethynylcyclohexanol

> <PUBCHEM_IUPAC_CAS_NAME>
1-ethynyl-1-cyclohexanol

> <PUBCHEM_IUPAC_NAME>
1-ethynylcyclohexan-1-ol

> <PUBCHEM_IUPAC_SYSTEMATIC_NAME>
1-ethynylcyclohexan-1-ol

> <PUBCHEM_IUPAC_TRADITIONAL_NAME>
1-ethynylcyclohexanol

> <PUBCHEM_IUPAC_INCHI>
InChI=1S/C8H12O/c1-2-8(9)6-4-3-5-7-8/h1,9H,3-7H2

> <PUBCHEM_IUPAC_INCHIKEY>
QYLFHLNFIHBCPR-UHFFFAOYSA-N

> <PUBCHEM_XLOGP3>
1.7

> <PUBCHEM_EXACT_MASS>
124.088815

> <PUBCHEM_MOLECULAR_FORMULA>
C8H12O

> <PUBCHEM_MOLECULAR_WEIGHT>
124.18028

> <PUBCHEM_OPENEYE_CAN_SMILES>
C#CC1(CCCCC1)O

> <PUBCHEM_OPENEYE_ISO_SMILES>
C#CC1(CCCCC1)O

> <PUBCHEM_CACTVS_TPSA>
20.2

> <PUBCHEM_MONOISOTOPIC_WEIGHT>
124.088815

> <PUBCHEM_TOTAL_CHARGE>
0

> <PUBCHEM_HEAVY_ATOM_COUNT>
9

> <PUBCHEM_ATOM_DEF_STEREO_COUNT>
0

> <PUBCHEM_ATOM_UDEF_STEREO_COUNT>
0

> <PUBCHEM_BOND_DEF_STEREO_COUNT>
0

> <PUBCHEM_BOND_UDEF_STEREO_COUNT>
0

> <PUBCHEM_ISOTOPIC_ATOM_COUNT>
0

> <PUBCHEM_COMPONENT_COUNT>
1

> <PUBCHEM_CACTVS_TAUTO_COUNT>
1

> <PUBCHEM_COORDINATE_TYPE>
1
5
255

$$$$

