11053
  -OEChem-06261205162D

 39 43  0     0  0  0  0  0  0999 V2000
    6.0873    1.7229    0.0000 O   0  0  0  0  0  0  0  0  0  0  0  0
    2.5369   -1.6019    0.0000 O   0  0  0  0  0  0  0  0  0  0  0  0
    9.4056   -0.2147    0.0000 O   0  0  0  0  0  0  0  0  0  0  0  0
    5.8055   -0.0367    0.0000 N   0  0  0  0  0  0  0  0  0  0  0  0
    6.0812   -3.4067    0.0000 N   0  0  0  0  0  0  0  0  0  0  0  0
    9.6877    1.5391    0.0000 N   0  0  0  0  0  0  0  0  0  0  0  0
    6.0812   -1.7972    0.0000 C   0  0  0  0  0  0  0  0  0  0  0  0
    6.3919   -0.8467    0.0000 C   0  0  0  0  0  0  0  0  0  0  0  0
    5.1350   -2.1019    0.0000 C   0  0  0  0  0  0  0  0  0  0  0  0
    7.3452    0.4607    0.0000 C   0  0  0  0  0  0  0  0  0  0  0  0
    7.3435   -0.5393    0.0000 C   0  0  0  0  0  0  0  0  0  0  0  0
    8.1552    1.0471    0.0000 C   0  0  0  0  0  0  0  0  0  0  0  0
    5.1350   -3.1019    0.0000 C   0  0  0  0  0  0  0  0  0  0  0  0
    6.3947    0.7713    0.0000 C   0  0  0  0  0  0  0  0  0  0  0  0
    6.6648   -2.6019    0.0000 C   0  0  0  0  0  0  0  0  0  0  0  0
    8.1561    2.0411    0.0000 C   0  0  0  0  0  0  0  0  0  0  0  0
    4.2690   -1.6019    0.0000 C   0  0  0  0  0  0  0  0  0  0  0  0
    9.1082    2.3469    0.0000 C   0  0  0  0  0  0  0  0  0  0  0  0
    4.2690   -3.6019    0.0000 C   0  0  0  0  0  0  0  0  0  0  0  0
    9.0999    0.7374    0.0000 C   0  0  0  0  0  0  0  0  0  0  0  0
    3.4030   -2.1019    0.0000 C   0  0  0  0  0  0  0  0  0  0  0  0
    7.4153    2.7128    0.0000 C   0  0  0  0  0  0  0  0  0  0  0  0
    3.4030   -3.1019    0.0000 C   0  0  0  0  0  0  0  0  0  0  0  0
    9.3195    3.3243    0.0000 C   0  0  0  0  0  0  0  0  0  0  0  0
    7.6266    3.6903    0.0000 C   0  0  0  0  0  0  0  0  0  0  0  0
    8.5787    3.9960    0.0000 C   0  0  0  0  0  0  0  0  0  0  0  0
    7.8444   -0.9046    0.0000 H   0  0  0  0  0  0  0  0  0  0  0  0
    5.1855   -0.0356    0.0000 H   0  0  0  0  0  0  0  0  0  0  0  0
    7.2848   -2.6019    0.0000 H   0  0  0  0  0  0  0  0  0  0  0  0
    6.2738   -3.9960    0.0000 H   0  0  0  0  0  0  0  0  0  0  0  0
    4.2690   -0.9819    0.0000 H   0  0  0  0  0  0  0  0  0  0  0  0
    4.2690   -4.2219    0.0000 H   0  0  0  0  0  0  0  0  0  0  0  0
    6.8250    2.5233    0.0000 H   0  0  0  0  0  0  0  0  0  0  0  0
    2.8660   -3.4119    0.0000 H   0  0  0  0  0  0  0  0  0  0  0  0
    9.9098    3.5138    0.0000 H   0  0  0  0  0  0  0  0  0  0  0  0
    7.1673    4.1067    0.0000 H   0  0  0  0  0  0  0  0  0  0  0  0
    8.7097    4.6020    0.0000 H   0  0  0  0  0  0  0  0  0  0  0  0
    5.4811    1.8529    0.0000 H   0  0  0  0  0  0  0  0  0  0  0  0
    2.0000   -1.9119    0.0000 H   0  0  0  0  0  0  0  0  0  0  0  0
  1 14  1  0  0  0  0
  1 38  1  0  0  0  0
  2 21  1  0  0  0  0
  2 39  1  0  0  0  0
  3 20  2  0  0  0  0
  4  8  1  0  0  0  0
  4 14  1  0  0  0  0
  4 28  1  0  0  0  0
  5 13  1  0  0  0  0
  5 15  1  0  0  0  0
  5 30  1  0  0  0  0
  6 18  2  0  0  0  0
  6 20  1  0  0  0  0
  7  8  1  0  0  0  0
  7  9  1  0  0  0  0
  7 15  2  0  0  0  0
  8 11  2  0  0  0  0
  9 13  2  0  0  0  0
  9 17  1  0  0  0  0
 10 11  1  0  0  0  0
 10 12  1  0  0  0  0
 10 14  2  0  0  0  0
 11 27  1  0  0  0  0
 12 16  2  0  0  0  0
 12 20  1  0  0  0  0
 13 19  1  0  0  0  0
 15 29  1  0  0  0  0
 16 18  1  0  0  0  0
 16 22  1  0  0  0  0
 17 21  2  0  0  0  0
 17 31  1  0  0  0  0
 18 24  1  0  0  0  0
 19 23  2  0  0  0  0
 19 32  1  0  0  0  0
 21 23  1  0  0  0  0
 22 25  2  0  0  0  0
 22 33  1  0  0  0  0
 23 34  1  0  0  0  0
 24 26  2  0  0  0  0
 24 35  1  0  0  0  0
 25 26  1  0  0  0  0
 25 36  1  0  0  0  0
 26 37  1  0  0  0  0
M  END
> <PUBCHEM_COMPOUND_CID>
11053

> <PUBCHEM_COMPOUND_CANONICALIZED>
1

> <PUBCHEM_CACTVS_COMPLEXITY>
753

> <PUBCHEM_CACTVS_HBOND_ACCEPTOR>
3

> <PUBCHEM_CACTVS_HBOND_DONOR>
4

> <PUBCHEM_CACTVS_ROTATABLE_BOND>
2

> <PUBCHEM_CACTVS_SUBSKEYS>
AAADccB7MAAAAAAAAAAAAAAAAAAAAWLEAAAwQAAAAAAAAFgB/AAAHgAQCAAADAzBngQ8xvLJkgCoAzV3VACCgCAxIiAI2aE+bN0IJvLC1ZOEcAhk0BHI2Qe+2fOegEABAAACAAAAgAIAAAQAAAAAAAAAAA==

> <PUBCHEM_IUPAC_OPENEYE_NAME>
3-[2-hydroxy-5-(5-hydroxy-1H-indol-3-yl)-1H-pyrrol-3-yl]indol-2-one

> <PUBCHEM_IUPAC_CAS_NAME>
3-[2-hydroxy-5-(5-hydroxy-1H-indol-3-yl)-1H-pyrrol-3-yl]-2-indolone

> <PUBCHEM_IUPAC_NAME>
3-[2-hydroxy-5-(5-hydroxy-1H-indol-3-yl)-1H-pyrrol-3-yl]indol-2-one

> <PUBCHEM_IUPAC_SYSTEMATIC_NAME>
3-[2-oxidanyl-5-(5-oxidanyl-1H-indol-3-yl)-1H-pyrrol-3-yl]indol-2-one

> <PUBCHEM_IUPAC_TRADITIONAL_NAME>
3-[2-hydroxy-5-(5-hydroxy-1H-indol-3-yl)-1H-pyrrol-3-yl]indol-2-one

> <PUBCHEM_IUPAC_INCHI>
InChI=1S/C20H13N3O3/c24-10-5-6-15-12(7-10)14(9-21-15)17-8-13(19(25)23-17)18-11-3-1-2-4-16(11)22-20(18)26/h1-9,21,23-25H

> <PUBCHEM_IUPAC_INCHIKEY>
SHLJIZCPRXXHHZ-UHFFFAOYSA-N

> <PUBCHEM_XLOGP3_AA>
2.7

> <PUBCHEM_EXACT_MASS>
343.095691

> <PUBCHEM_MOLECULAR_FORMULA>
C20H13N3O3

> <PUBCHEM_MOLECULAR_WEIGHT>
343.33552

> <PUBCHEM_OPENEYE_CAN_SMILES>
C1=CC2=C(C(=O)N=C2C=C1)C3=C(NC(=C3)C4=CNC5=C4C=C(C=C5)O)O

> <PUBCHEM_OPENEYE_ISO_SMILES>
C1=CC2=C(C(=O)N=C2C=C1)C3=C(NC(=C3)C4=CNC5=C4C=C(C=C5)O)O

> <PUBCHEM_CACTVS_TPSA>
102

> <PUBCHEM_MONOISOTOPIC_WEIGHT>
343.095691

> <PUBCHEM_TOTAL_CHARGE>
0

> <PUBCHEM_HEAVY_ATOM_COUNT>
26

> <PUBCHEM_ATOM_DEF_STEREO_COUNT>
0

> <PUBCHEM_ATOM_UDEF_STEREO_COUNT>
0

> <PUBCHEM_BOND_DEF_STEREO_COUNT>
0

> <PUBCHEM_BOND_UDEF_STEREO_COUNT>
1

> <PUBCHEM_ISOTOPIC_ATOM_COUNT>
0

> <PUBCHEM_COMPONENT_COUNT>
1

> <PUBCHEM_CACTVS_TAUTO_COUNT>
98

> <PUBCHEM_COORDINATE_TYPE>
1
5
255

> <PUBCHEM_BONDANNOTATIONS>
10  11  8
10  14  8
13  19  8
16  18  8
16  22  8
17  21  8
18  24  8
19  23  8
21  23  8
22  25  8
24  26  8
25  26  8
4  14  8
4  8  8
5  13  8
5  15  8
7  15  8
7  9  8
8  11  8
9  13  8
9  17  8

$$$$

