854085
  -OEChem-06241222472D

 31 31  0     1  0  0  0  0  0999 V2000
    4.7579   -0.8217    0.0000 S   0  0  0  0  0  0  0  0  0  0  0  0
    4.1701   -0.0127    0.0000 P   0  0  3  0  0  0  0  0  0  0  0  0
    3.3611    0.5751    0.0000 O   0  0  0  0  0  0  0  0  0  0  0  0
    3.5823   -0.8217    0.0000 O   0  0  0  0  0  0  0  0  0  0  0  0
    4.9791    0.5751    0.0000 N   0  0  3  0  0  0  0  0  0  0  0  0
    5.9302    0.2661    0.0000 C   0  0  0  0  0  0  0  0  0  0  0  0
    4.6701    1.5262    0.0000 C   0  0  0  0  0  0  0  0  0  0  0  0
    3.6701    1.5262    0.0000 C   0  0  0  0  0  0  0  0  0  0  0  0
    6.8812   -0.0429    0.0000 C   0  0  0  0  0  0  0  0  0  0  0  0
    6.2392    1.2172    0.0000 C   0  0  0  0  0  0  0  0  0  0  0  0
    5.6212   -0.6850    0.0000 C   0  0  0  0  0  0  0  0  0  0  0  0
    2.5878   -0.7172    0.0000 C   0  0  0  0  0  0  0  0  0  0  0  0
    2.0000   -1.5262    0.0000 C   0  0  0  0  0  0  0  0  0  0  0  0
    5.2765    1.6551    0.0000 H   0  0  0  0  0  0  0  0  0  0  0  0
    4.6053    2.1428    0.0000 H   0  0  0  0  0  0  0  0  0  0  0  0
    3.7349    2.1428    0.0000 H   0  0  0  0  0  0  0  0  0  0  0  0
    3.0636    1.6551    0.0000 H   0  0  0  0  0  0  0  0  0  0  0  0
    6.6896   -0.6326    0.0000 H   0  0  0  0  0  0  0  0  0  0  0  0
    7.4709   -0.2345    0.0000 H   0  0  0  0  0  0  0  0  0  0  0  0
    7.0728    0.5467    0.0000 H   0  0  0  0  0  0  0  0  0  0  0  0
    6.8288    1.0256    0.0000 H   0  0  0  0  0  0  0  0  0  0  0  0
    6.4308    1.8068    0.0000 H   0  0  0  0  0  0  0  0  0  0  0  0
    5.6495    1.4088    0.0000 H   0  0  0  0  0  0  0  0  0  0  0  0
    5.0315   -0.4934    0.0000 H   0  0  0  0  0  0  0  0  0  0  0  0
    5.4296   -1.2746    0.0000 H   0  0  0  0  0  0  0  0  0  0  0  0
    6.2108   -0.8765    0.0000 H   0  0  0  0  0  0  0  0  0  0  0  0
    2.7587   -0.1212    0.0000 H   0  0  0  0  0  0  0  0  0  0  0  0
    2.0305   -0.4454    0.0000 H   0  0  0  0  0  0  0  0  0  0  0  0
    1.4984   -1.1618    0.0000 H   0  0  0  0  0  0  0  0  0  0  0  0
    1.6356   -2.0278    0.0000 H   0  0  0  0  0  0  0  0  0  0  0  0
    2.5016   -1.8906    0.0000 H   0  0  0  0  0  0  0  0  0  0  0  0
  1  2  2  0  0  0  0
  2  3  1  0  0  0  0
  2  4  1  0  0  0  0
  2  5  1  0  0  0  0
  3  8  1  0  0  0  0
  4 12  1  0  0  0  0
  5  6  1  0  0  0  0
  5  7  1  0  0  0  0
  6  9  1  0  0  0  0
  6 10  1  0  0  0  0
  6 11  1  0  0  0  0
  7  8  1  0  0  0  0
  7 14  1  0  0  0  0
  7 15  1  0  0  0  0
  8 16  1  0  0  0  0
  8 17  1  0  0  0  0
  9 18  1  0  0  0  0
  9 19  1  0  0  0  0
  9 20  1  0  0  0  0
 10 21  1  0  0  0  0
 10 22  1  0  0  0  0
 10 23  1  0  0  0  0
 11 24  1  0  0  0  0
 11 25  1  0  0  0  0
 11 26  1  0  0  0  0
 12 13  1  0  0  0  0
 12 27  1  0  0  0  0
 12 28  1  0  0  0  0
 13 29  1  0  0  0  0
 13 30  1  0  0  0  0
 13 31  1  0  0  0  0
M  END
> <PUBCHEM_COMPOUND_CID>
854085

> <PUBCHEM_COMPOUND_CANONICALIZED>
1

> <PUBCHEM_CACTVS_COMPLEXITY>
227

> <PUBCHEM_CACTVS_HBOND_ACCEPTOR>
4

> <PUBCHEM_CACTVS_HBOND_DONOR>
0

> <PUBCHEM_CACTVS_ROTATABLE_BOND>
3

> <PUBCHEM_CACTVS_SUBSKEYS>
AAADceByMAJAAAAAAAAAAAAAAAAAAWAAAAAAAAAAAAAAAAAAAAAAHgAAgCAADIjhgAYCAAIAARAAAAAAAAAAAAAAAAAAAAAIAAACAAAAAAAAAAAAAACQAAAAAAAAAAAAAAAAAAAAAAAAAAAAAAAAAAAAAA==

> <PUBCHEM_IUPAC_OPENEYE_NAME>
3-tert-butyl-2-ethoxy-2-thioxo-1,3,2$l^{5}-oxazaphospholidine

> <PUBCHEM_IUPAC_CAS_NAME>
3-tert-butyl-2-ethoxy-2-sulfanylidene-1,3,2$l^{5}-oxazaphospholidine

> <PUBCHEM_IUPAC_NAME>
3-tert-butyl-2-ethoxy-2-sulfanylidene-1,3,2$l^{5}-oxazaphospholidine

> <PUBCHEM_IUPAC_SYSTEMATIC_NAME>
3-tert-butyl-2-ethoxy-2-sulfanylidene-1,3,2$l^{5}-oxazaphospholidine

> <PUBCHEM_IUPAC_TRADITIONAL_NAME>
3-tert-butyl-2-ethoxy-2-thioxo-1,3,2$l^{5}-oxazaphospholidine

> <PUBCHEM_IUPAC_INCHI>
InChI=1S/C8H18NO2PS/c1-5-10-12(13)9(6-7-11-12)8(2,3)4/h5-7H2,1-4H3

> <PUBCHEM_IUPAC_INCHIKEY>
MZFQORIOXDQENW-UHFFFAOYSA-N

> <PUBCHEM_XLOGP3_AA>
2.6

> <PUBCHEM_EXACT_MASS>
223.079586

> <PUBCHEM_MOLECULAR_FORMULA>
C8H18NO2PS

> <PUBCHEM_MOLECULAR_WEIGHT>
223.272782

> <PUBCHEM_OPENEYE_CAN_SMILES>
CCOP1(=S)N(CCO1)C(C)(C)C

> <PUBCHEM_OPENEYE_ISO_SMILES>
CCOP1(=S)N(CCO1)C(C)(C)C

> <PUBCHEM_CACTVS_TPSA>
53.8

> <PUBCHEM_MONOISOTOPIC_WEIGHT>
223.079586

> <PUBCHEM_TOTAL_CHARGE>
0

> <PUBCHEM_HEAVY_ATOM_COUNT>
13

> <PUBCHEM_ATOM_DEF_STEREO_COUNT>
0

> <PUBCHEM_ATOM_UDEF_STEREO_COUNT>
1

> <PUBCHEM_BOND_DEF_STEREO_COUNT>
0

> <PUBCHEM_BOND_UDEF_STEREO_COUNT>
0

> <PUBCHEM_ISOTOPIC_ATOM_COUNT>
0

> <PUBCHEM_COMPONENT_COUNT>
1

> <PUBCHEM_CACTVS_TAUTO_COUNT>
1

> <PUBCHEM_COORDINATE_TYPE>
1
5
255

> <PUBCHEM_BONDANNOTATIONS>
2  4  3

$$$$

