8670
  -OEChem-06261202592D

 23 20  0     0  0  0  0  0  0999 V2000
    8.9282    1.1550    0.0000 Na  0  3  0  0  0  0  0  0  0  0  0  0
    2.0000    1.1550    0.0000 Na  0  3  0  0  0  0  0  0  0  0  0  0
    4.5981   -1.3450    0.0000 O   0  0  0  0  0  0  0  0  0  0  0  0
    8.0622    1.6550    0.0000 O   0  5  0  0  0  0  0  0  0  0  0  0
    2.8660    1.6550    0.0000 O   0  5  0  0  0  0  0  0  0  0  0  0
    7.1962    0.1550    0.0000 O   0  0  0  0  0  0  0  0  0  0  0  0
    3.7320    0.1550    0.0000 O   0  0  0  0  0  0  0  0  0  0  0  0
    5.4641    1.1550    0.0000 N   0  0  0  0  0  0  0  0  0  0  0  0
    5.4641    0.1550    0.0000 C   0  0  0  0  0  0  0  0  0  0  0  0
    6.3301    1.6550    0.0000 C   0  0  0  0  0  0  0  0  0  0  0  0
    4.5981    1.6550    0.0000 C   0  0  0  0  0  0  0  0  0  0  0  0
    4.5981   -0.3450    0.0000 C   0  0  0  0  0  0  0  0  0  0  0  0
    7.1962    1.1550    0.0000 C   0  0  0  0  0  0  0  0  0  0  0  0
    3.7320    1.1550    0.0000 C   0  0  0  0  0  0  0  0  0  0  0  0
    5.6762   -0.4276    0.0000 H   0  0  0  0  0  0  0  0  0  0  0  0
    6.0747    0.2627    0.0000 H   0  0  0  0  0  0  0  0  0  0  0  0
    6.7287    2.1300    0.0000 H   0  0  0  0  0  0  0  0  0  0  0  0
    5.9316    2.1300    0.0000 H   0  0  0  0  0  0  0  0  0  0  0  0
    4.9966    2.1300    0.0000 H   0  0  0  0  0  0  0  0  0  0  0  0
    4.1996    2.1300    0.0000 H   0  0  0  0  0  0  0  0  0  0  0  0
    4.3860    0.2376    0.0000 H   0  0  0  0  0  0  0  0  0  0  0  0
    3.9875   -0.4527    0.0000 H   0  0  0  0  0  0  0  0  0  0  0  0
    4.0611   -1.6550    0.0000 H   0  0  0  0  0  0  0  0  0  0  0  0
  3 12  1  0  0  0  0
  3 23  1  0  0  0  0
  4 13  1  0  0  0  0
  5 14  1  0  0  0  0
  6 13  2  0  0  0  0
  7 14  2  0  0  0  0
  8  9  1  0  0  0  0
  8 10  1  0  0  0  0
  8 11  1  0  0  0  0
  9 12  1  0  0  0  0
  9 15  1  0  0  0  0
  9 16  1  0  0  0  0
 10 13  1  0  0  0  0
 10 17  1  0  0  0  0
 10 18  1  0  0  0  0
 11 14  1  0  0  0  0
 11 19  1  0  0  0  0
 11 20  1  0  0  0  0
 12 21  1  0  0  0  0
 12 22  1  0  0  0  0
M  CHG  4   1   1   2   1   4  -1   5  -1
M  END
> <PUBCHEM_COMPOUND_CID>
8670

> <PUBCHEM_COMPOUND_CANONICALIZED>
1

> <PUBCHEM_CACTVS_COMPLEXITY>
142

> <PUBCHEM_CACTVS_HBOND_ACCEPTOR>
6

> <PUBCHEM_CACTVS_HBOND_DONOR>
1

> <PUBCHEM_CACTVS_ROTATABLE_BOND>
4

> <PUBCHEM_CACTVS_SUBSKEYS>
AAADccBiODAAAAAAAAAAAAAAAAAAAAAAAAAAAAAAAAAAAAAAAAAAHgAACAAAAADhgAYACAMAAgAIAACQCAAAAAAAAAAAAACIAAACEAAAACAAAAAAAACQAAAAAAAAAAAAAAAAAAAAAAAAAAAAAAAAAAAAAA==

> <PUBCHEM_IUPAC_OPENEYE_NAME>
disodium 2-[carboxylatomethyl(2-hydroxyethyl)amino]acetate

> <PUBCHEM_IUPAC_CAS_NAME>
disodium 2-[carboxylatomethyl(2-hydroxyethyl)amino]acetate

> <PUBCHEM_IUPAC_NAME>
disodium 2-[carboxylatomethyl(2-hydroxyethyl)amino]acetate

> <PUBCHEM_IUPAC_SYSTEMATIC_NAME>
disodium 2-[2-hydroxyethyl-(2-oxidanidyl-2-oxidanylidene-ethyl)amino]ethanoate

> <PUBCHEM_IUPAC_TRADITIONAL_NAME>
disodium 2-[carboxylatomethyl(2-hydroxyethyl)amino]acetate

> <PUBCHEM_IUPAC_INCHI>
InChI=1S/C6H11NO5.2Na/c8-2-1-7(3-5(9)10)4-6(11)12;;/h8H,1-4H2,(H,9,10)(H,11,12);;/q;2*+1/p-2

> <PUBCHEM_IUPAC_INCHIKEY>
ZTVCAEHRNBOTLI-UHFFFAOYSA-L

> <PUBCHEM_EXACT_MASS>
221.027611

> <PUBCHEM_MOLECULAR_FORMULA>
C6H9NNa2O5

> <PUBCHEM_MOLECULAR_WEIGHT>
221.118899

> <PUBCHEM_OPENEYE_CAN_SMILES>
C(CO)N(CC(=O)[O-])CC(=O)[O-].[Na+].[Na+]

> <PUBCHEM_OPENEYE_ISO_SMILES>
C(CO)N(CC(=O)[O-])CC(=O)[O-].[Na+].[Na+]

> <PUBCHEM_CACTVS_TPSA>
104

> <PUBCHEM_MONOISOTOPIC_WEIGHT>
221.027611

> <PUBCHEM_TOTAL_CHARGE>
0

> <PUBCHEM_HEAVY_ATOM_COUNT>
14

> <PUBCHEM_ATOM_DEF_STEREO_COUNT>
0

> <PUBCHEM_ATOM_UDEF_STEREO_COUNT>
0

> <PUBCHEM_BOND_DEF_STEREO_COUNT>
0

> <PUBCHEM_BOND_UDEF_STEREO_COUNT>
0

> <PUBCHEM_ISOTOPIC_ATOM_COUNT>
0

> <PUBCHEM_COMPONENT_COUNT>
3

> <PUBCHEM_CACTVS_TAUTO_COUNT>
1

> <PUBCHEM_COORDINATE_TYPE>
1
5
255

$$$$

