47205464
  -OEChem-06241222582D

 40 41  0     0  0  0  0  0  0999 V2000
    2.8660   -2.8170    0.0000 S   0  0  0  0  0  0  0  0  0  0  0  0
    2.3660   -3.6830    0.0000 O   0  0  0  0  0  0  0  0  0  0  0  0
    3.3660   -3.6830    0.0000 O   0  0  0  0  0  0  0  0  0  0  0  0
    4.5981    0.1830    0.0000 O   0  0  0  0  0  0  0  0  0  0  0  0
    2.8660   -0.8170    0.0000 N   0  0  0  0  0  0  0  0  0  0  0  0
    3.7320    1.6830    0.0000 N   0  0  0  0  0  0  0  0  0  0  0  0
    2.0000   -2.3170    0.0000 C   0  0  0  0  0  0  0  0  0  0  0  0
    3.7320   -2.3170    0.0000 C   0  0  0  0  0  0  0  0  0  0  0  0
    2.0000   -1.3170    0.0000 C   0  0  0  0  0  0  0  0  0  0  0  0
    3.7320   -1.3170    0.0000 C   0  0  0  0  0  0  0  0  0  0  0  0
    2.8660    0.1830    0.0000 C   0  0  0  0  0  0  0  0  0  0  0  0
    3.7320    0.6830    0.0000 C   0  0  0  0  0  0  0  0  0  0  0  0
    4.5981    2.1830    0.0000 C   0  0  0  0  0  0  0  0  0  0  0  0
    5.4641    1.6830    0.0000 C   0  0  0  0  0  0  0  0  0  0  0  0
    6.3301    2.1830    0.0000 C   0  0  0  0  0  0  0  0  0  0  0  0
    4.5981    3.1830    0.0000 C   0  0  0  0  0  0  0  0  0  0  0  0
    7.1962    1.6830    0.0000 C   0  0  0  0  0  0  0  0  0  0  0  0
    6.3301    3.1830    0.0000 C   0  0  0  0  0  0  0  0  0  0  0  0
    5.4641    3.6830    0.0000 C   0  0  0  0  0  0  0  0  0  0  0  0
    8.0622    2.1830    0.0000 C   0  0  0  0  0  0  0  0  0  0  0  0
    3.9441   -2.8996    0.0000 H   0  0  0  0  0  0  0  0  0  0  0  0
    4.3426   -2.2093    0.0000 H   0  0  0  0  0  0  0  0  0  0  0  0
    1.3894   -2.2093    0.0000 H   0  0  0  0  0  0  0  0  0  0  0  0
    1.7880   -2.8996    0.0000 H   0  0  0  0  0  0  0  0  0  0  0  0
    4.3426   -1.4246    0.0000 H   0  0  0  0  0  0  0  0  0  0  0  0
    3.9441   -0.7344    0.0000 H   0  0  0  0  0  0  0  0  0  0  0  0
    1.7880   -0.7344    0.0000 H   0  0  0  0  0  0  0  0  0  0  0  0
    1.3894   -1.4246    0.0000 H   0  0  0  0  0  0  0  0  0  0  0  0
    2.6540    0.7656    0.0000 H   0  0  0  0  0  0  0  0  0  0  0  0
    2.2554    0.0754    0.0000 H   0  0  0  0  0  0  0  0  0  0  0  0
    3.1951    1.9930    0.0000 H   0  0  0  0  0  0  0  0  0  0  0  0
    5.4641    1.0630    0.0000 H   0  0  0  0  0  0  0  0  0  0  0  0
    4.0611    3.4930    0.0000 H   0  0  0  0  0  0  0  0  0  0  0  0
    6.7976    1.2081    0.0000 H   0  0  0  0  0  0  0  0  0  0  0  0
    7.5947    1.2081    0.0000 H   0  0  0  0  0  0  0  0  0  0  0  0
    6.8671    3.4930    0.0000 H   0  0  0  0  0  0  0  0  0  0  0  0
    5.4641    4.3030    0.0000 H   0  0  0  0  0  0  0  0  0  0  0  0
    8.3722    1.6461    0.0000 H   0  0  0  0  0  0  0  0  0  0  0  0
    8.5991    2.4930    0.0000 H   0  0  0  0  0  0  0  0  0  0  0  0
    7.7522    2.7200    0.0000 H   0  0  0  0  0  0  0  0  0  0  0  0
  1  2  2  0  0  0  0
  1  3  2  0  0  0  0
  1  7  1  0  0  0  0
  1  8  1  0  0  0  0
  4 12  2  0  0  0  0
  5  9  1  0  0  0  0
  5 10  1  0  0  0  0
  5 11  1  0  0  0  0
  6 12  1  0  0  0  0
  6 13  1  0  0  0  0
  6 31  1  0  0  0  0
  7  9  1  0  0  0  0
  7 23  1  0  0  0  0
  7 24  1  0  0  0  0
  8 10  1  0  0  0  0
  8 21  1  0  0  0  0
  8 22  1  0  0  0  0
  9 27  1  0  0  0  0
  9 28  1  0  0  0  0
 10 25  1  0  0  0  0
 10 26  1  0  0  0  0
 11 12  1  0  0  0  0
 11 29  1  0  0  0  0
 11 30  1  0  0  0  0
 13 14  1  0  0  0  0
 13 16  2  0  0  0  0
 14 15  2  0  0  0  0
 14 32  1  0  0  0  0
 15 17  1  0  0  0  0
 15 18  1  0  0  0  0
 16 19  1  0  0  0  0
 16 33  1  0  0  0  0
 17 20  1  0  0  0  0
 17 34  1  0  0  0  0
 17 35  1  0  0  0  0
 18 19  2  0  0  0  0
 18 36  1  0  0  0  0
 19 37  1  0  0  0  0
 20 38  1  0  0  0  0
 20 39  1  0  0  0  0
 20 40  1  0  0  0  0
M  END
> <PUBCHEM_COMPOUND_CID>
47205464

> <PUBCHEM_COMPOUND_CANONICALIZED>
1

> <PUBCHEM_CACTVS_COMPLEXITY>
416

> <PUBCHEM_CACTVS_HBOND_ACCEPTOR>
4

> <PUBCHEM_CACTVS_HBOND_DONOR>
1

> <PUBCHEM_CACTVS_ROTATABLE_BOND>
4

> <PUBCHEM_CACTVS_SUBSKEYS>
AAADceBzMABAAAAAAAAAAAAAAAAAAAAAAAA8QAAAAAAAAAABAAAAHgQQAAAADAjF2ASywIPAAAqIAiVSUHDCAAAhAhAIiACIZIgIYCLAkbGUIAhglADoyAcQgIAOAAAAQAAAAAAAAACAAAAAAAAAAAAAAA==

> <PUBCHEM_IUPAC_OPENEYE_NAME>
2-(1,1-dioxo-1,4-thiazinan-4-yl)-N-(3-ethylphenyl)acetamide

> <PUBCHEM_IUPAC_CAS_NAME>
2-(1,1-dioxo-1,4-thiazinan-4-yl)-N-(3-ethylphenyl)acetamide

> <PUBCHEM_IUPAC_NAME>
2-(1,1-dioxo-1,4-thiazinan-4-yl)-N-(3-ethylphenyl)acetamide

> <PUBCHEM_IUPAC_SYSTEMATIC_NAME>
2-[1,1-bis(oxidanylidene)-1,4-thiazinan-4-yl]-N-(3-ethylphenyl)ethanamide

> <PUBCHEM_IUPAC_TRADITIONAL_NAME>
2-(1,1-diketo-1,4-thiazinan-4-yl)-N-(3-ethylphenyl)acetamide

> <PUBCHEM_IUPAC_INCHI>
InChI=1S/C14H20N2O3S/c1-2-12-4-3-5-13(10-12)15-14(17)11-16-6-8-20(18,19)9-7-16/h3-5,10H,2,6-9,11H2,1H3,(H,15,17)

> <PUBCHEM_IUPAC_INCHIKEY>
FJORUAPFIYHPAS-UHFFFAOYSA-N

> <PUBCHEM_XLOGP3>
1.7

> <PUBCHEM_EXACT_MASS>
296.119464

> <PUBCHEM_MOLECULAR_FORMULA>
C14H20N2O3S

> <PUBCHEM_MOLECULAR_WEIGHT>
296.3852

> <PUBCHEM_OPENEYE_CAN_SMILES>
CCC1=CC(=CC=C1)NC(=O)CN2CCS(=O)(=O)CC2

> <PUBCHEM_OPENEYE_ISO_SMILES>
CCC1=CC(=CC=C1)NC(=O)CN2CCS(=O)(=O)CC2

> <PUBCHEM_CACTVS_TPSA>
74.9

> <PUBCHEM_MONOISOTOPIC_WEIGHT>
296.119464

> <PUBCHEM_TOTAL_CHARGE>
0

> <PUBCHEM_HEAVY_ATOM_COUNT>
20

> <PUBCHEM_ATOM_DEF_STEREO_COUNT>
0

> <PUBCHEM_ATOM_UDEF_STEREO_COUNT>
0

> <PUBCHEM_BOND_DEF_STEREO_COUNT>
0

> <PUBCHEM_BOND_UDEF_STEREO_COUNT>
0

> <PUBCHEM_ISOTOPIC_ATOM_COUNT>
0

> <PUBCHEM_COMPONENT_COUNT>
1

> <PUBCHEM_CACTVS_TAUTO_COUNT>
3

> <PUBCHEM_COORDINATE_TYPE>
1
5
255

> <PUBCHEM_BONDANNOTATIONS>
13  14  8
13  16  8
14  15  8
15  18  8
16  19  8
18  19  8

$$$$

