17395438
  -OEChem-06241222502D

 49 52  0     0  0  0  0  0  0999 V2000
    9.7619    1.7204    0.0000 O   0  0  0  0  0  0  0  0  0  0  0  0
    4.9889   -0.9008    0.0000 O   0  0  0  0  0  0  0  0  0  0  0  0
    4.9889    2.6097    0.0000 O   0  0  0  0  0  0  0  0  0  0  0  0
    9.7619   -0.0116    0.0000 N   0  0  0  0  0  0  0  0  0  0  0  0
    5.2619    0.8544    0.0000 N   0  0  0  0  0  0  0  0  0  0  0  0
   11.2619   -0.8776    0.0000 C   0  0  0  0  0  0  0  0  0  0  0  0
   12.1279   -1.3776    0.0000 C   0  0  0  0  0  0  0  0  0  0  0  0
   11.2619   -1.8776    0.0000 C   0  0  0  0  0  0  0  0  0  0  0  0
   10.7619   -0.0116    0.0000 C   0  0  0  0  0  0  0  0  0  0  0  0
    9.2619   -0.8776    0.0000 C   0  0  0  0  0  0  0  0  0  0  0  0
    9.2619    0.8544    0.0000 C   0  0  0  0  0  0  0  0  0  0  0  0
    9.7619   -1.7436    0.0000 C   0  0  0  0  0  0  0  0  0  0  0  0
    8.2619    0.8544    0.0000 C   0  0  0  0  0  0  0  0  0  0  0  0
    9.2619   -2.6097    0.0000 C   0  0  0  0  0  0  0  0  0  0  0  0
    7.7619    1.7204    0.0000 C   0  0  0  0  0  0  0  0  0  0  0  0
    7.7619   -0.0116    0.0000 C   0  0  0  0  0  0  0  0  0  0  0  0
    6.2619    0.8544    0.0000 C   0  0  0  0  0  0  0  0  0  0  0  0
    6.7619    1.7204    0.0000 C   0  0  0  0  0  0  0  0  0  0  0  0
    6.7619   -0.0116    0.0000 C   0  0  0  0  0  0  0  0  0  0  0  0
    3.7320    1.3544    0.0000 C   0  0  0  0  0  0  0  0  0  0  0  0
    3.7320    0.3544    0.0000 C   0  0  0  0  0  0  0  0  0  0  0  0
    4.6783    0.0497    0.0000 C   0  0  0  0  0  0  0  0  0  0  0  0
    4.6783    1.6592    0.0000 C   0  0  0  0  0  0  0  0  0  0  0  0
    2.8660   -0.1456    0.0000 C   0  0  0  0  0  0  0  0  0  0  0  0
    2.8660    1.8544    0.0000 C   0  0  0  0  0  0  0  0  0  0  0  0
    2.0000    0.3544    0.0000 C   0  0  0  0  0  0  0  0  0  0  0  0
    2.0000    1.3544    0.0000 C   0  0  0  0  0  0  0  0  0  0  0  0
   11.7003   -0.4392    0.0000 H   0  0  0  0  0  0  0  0  0  0  0  0
   12.5264   -1.8526    0.0000 H   0  0  0  0  0  0  0  0  0  0  0  0
   12.5264   -0.9027    0.0000 H   0  0  0  0  0  0  0  0  0  0  0  0
   10.6513   -1.9853    0.0000 H   0  0  0  0  0  0  0  0  0  0  0  0
   11.4739   -2.4602    0.0000 H   0  0  0  0  0  0  0  0  0  0  0  0
   11.3445    0.2005    0.0000 H   0  0  0  0  0  0  0  0  0  0  0  0
   10.6542    0.5990    0.0000 H   0  0  0  0  0  0  0  0  0  0  0  0
    8.7869   -0.4791    0.0000 H   0  0  0  0  0  0  0  0  0  0  0  0
    8.7869   -1.2761    0.0000 H   0  0  0  0  0  0  0  0  0  0  0  0
   10.2368   -2.1422    0.0000 H   0  0  0  0  0  0  0  0  0  0  0  0
   10.2368   -1.3451    0.0000 H   0  0  0  0  0  0  0  0  0  0  0  0
    8.7249   -2.2997    0.0000 H   0  0  0  0  0  0  0  0  0  0  0  0
    8.9519   -3.1466    0.0000 H   0  0  0  0  0  0  0  0  0  0  0  0
    9.7988   -2.9197    0.0000 H   0  0  0  0  0  0  0  0  0  0  0  0
    8.0719    2.2574    0.0000 H   0  0  0  0  0  0  0  0  0  0  0  0
    8.0719   -0.5485    0.0000 H   0  0  0  0  0  0  0  0  0  0  0  0
    6.4519    2.2574    0.0000 H   0  0  0  0  0  0  0  0  0  0  0  0
    6.4519   -0.5485    0.0000 H   0  0  0  0  0  0  0  0  0  0  0  0
    2.8660   -0.7656    0.0000 H   0  0  0  0  0  0  0  0  0  0  0  0
    2.8660    2.4744    0.0000 H   0  0  0  0  0  0  0  0  0  0  0  0
    1.4631    0.0444    0.0000 H   0  0  0  0  0  0  0  0  0  0  0  0
    1.4631    1.6644    0.0000 H   0  0  0  0  0  0  0  0  0  0  0  0
  1 11  2  0  0  0  0
  2 22  2  0  0  0  0
  3 23  2  0  0  0  0
  4  9  1  0  0  0  0
  4 10  1  0  0  0  0
  4 11  1  0  0  0  0
  5 17  1  0  0  0  0
  5 22  1  0  0  0  0
  5 23  1  0  0  0  0
  6  7  1  0  0  0  0
  6  8  1  0  0  0  0
  6  9  1  0  0  0  0
  6 28  1  0  0  0  0
  7  8  1  0  0  0  0
  7 29  1  0  0  0  0
  7 30  1  0  0  0  0
  8 31  1  0  0  0  0
  8 32  1  0  0  0  0
  9 33  1  0  0  0  0
  9 34  1  0  0  0  0
 10 12  1  0  0  0  0
 10 35  1  0  0  0  0
 10 36  1  0  0  0  0
 11 13  1  0  0  0  0
 12 14  1  0  0  0  0
 12 37  1  0  0  0  0
 12 38  1  0  0  0  0
 13 15  2  0  0  0  0
 13 16  1  0  0  0  0
 14 39  1  0  0  0  0
 14 40  1  0  0  0  0
 14 41  1  0  0  0  0
 15 18  1  0  0  0  0
 15 42  1  0  0  0  0
 16 19  2  0  0  0  0
 16 43  1  0  0  0  0
 17 18  2  0  0  0  0
 17 19  1  0  0  0  0
 18 44  1  0  0  0  0
 19 45  1  0  0  0  0
 20 21  1  0  0  0  0
 20 23  1  0  0  0  0
 20 25  2  0  0  0  0
 21 22  1  0  0  0  0
 21 24  2  0  0  0  0
 24 26  1  0  0  0  0
 24 46  1  0  0  0  0
 25 27  1  0  0  0  0
 25 47  1  0  0  0  0
 26 27  2  0  0  0  0
 26 48  1  0  0  0  0
 27 49  1  0  0  0  0
M  END
> <PUBCHEM_COMPOUND_CID>
17395438

> <PUBCHEM_COMPOUND_CANONICALIZED>
1

> <PUBCHEM_CACTVS_COMPLEXITY>
568

> <PUBCHEM_CACTVS_HBOND_ACCEPTOR>
3

> <PUBCHEM_CACTVS_HBOND_DONOR>
0

> <PUBCHEM_CACTVS_ROTATABLE_BOND>
6

> <PUBCHEM_CACTVS_SUBSKEYS>
AAADceB7MAAAAAAAAAAAAAAAGAAAAWAAAAAwYAAAAAAAAFgBQAAAHgAAAAAADQjBmAQywIMAAACIAiVSUACCAAAlAgAIiAEIZMgIIDLAlZGEIQhghiDIyYcdiYCeiAAAAAAQAAAQAAAAACAAAAAAAAAAAA==

> <PUBCHEM_IUPAC_OPENEYE_NAME>
N-(cyclopropylmethyl)-4-(1,3-dioxoisoindolin-2-yl)-N-propyl-benzamide

> <PUBCHEM_IUPAC_CAS_NAME>
N-(cyclopropylmethyl)-4-(1,3-dioxo-2-isoindolyl)-N-propylbenzamide

> <PUBCHEM_IUPAC_NAME>
N-(cyclopropylmethyl)-4-(1,3-dioxoisoindol-2-yl)-N-propylbenzamide

> <PUBCHEM_IUPAC_SYSTEMATIC_NAME>
4-[1,3-bis(oxidanylidene)isoindol-2-yl]-N-(cyclopropylmethyl)-N-propyl-benzamide

> <PUBCHEM_IUPAC_TRADITIONAL_NAME>
N-(cyclopropylmethyl)-4-phthalimido-N-propyl-benzamide

> <PUBCHEM_IUPAC_INCHI>
InChI=1S/C22H22N2O3/c1-2-13-23(14-15-7-8-15)20(25)16-9-11-17(12-10-16)24-21(26)18-5-3-4-6-19(18)22(24)27/h3-6,9-12,15H,2,7-8,13-14H2,1H3

> <PUBCHEM_IUPAC_INCHIKEY>
OOXYAOCNVAFWLW-UHFFFAOYSA-N

> <PUBCHEM_XLOGP3>
3.5

> <PUBCHEM_EXACT_MASS>
362.163043

> <PUBCHEM_MOLECULAR_FORMULA>
C22H22N2O3

> <PUBCHEM_MOLECULAR_WEIGHT>
362.42168

> <PUBCHEM_OPENEYE_CAN_SMILES>
CCCN(CC1CC1)C(=O)C2=CC=C(C=C2)N3C(=O)C4=CC=CC=C4C3=O

> <PUBCHEM_OPENEYE_ISO_SMILES>
CCCN(CC1CC1)C(=O)C2=CC=C(C=C2)N3C(=O)C4=CC=CC=C4C3=O

> <PUBCHEM_CACTVS_TPSA>
57.7

> <PUBCHEM_MONOISOTOPIC_WEIGHT>
362.163043

> <PUBCHEM_TOTAL_CHARGE>
0

> <PUBCHEM_HEAVY_ATOM_COUNT>
27

> <PUBCHEM_ATOM_DEF_STEREO_COUNT>
0

> <PUBCHEM_ATOM_UDEF_STEREO_COUNT>
0

> <PUBCHEM_BOND_DEF_STEREO_COUNT>
0

> <PUBCHEM_BOND_UDEF_STEREO_COUNT>
0

> <PUBCHEM_ISOTOPIC_ATOM_COUNT>
0

> <PUBCHEM_COMPONENT_COUNT>
1

> <PUBCHEM_CACTVS_TAUTO_COUNT>
1

> <PUBCHEM_COORDINATE_TYPE>
1
5
255

> <PUBCHEM_BONDANNOTATIONS>
13  15  8
13  16  8
15  18  8
16  19  8
17  18  8
17  19  8
20  21  8
20  25  8
21  24  8
24  26  8
25  27  8
26  27  8

$$$$

