8269
  -OEChem-06261202422D

 49 52  0     0  0  0  0  0  0999 V2000
    6.4613   -2.1891    0.0000 O   0  0  0  0  0  0  0  0  0  0  0  0
    3.6482    2.4220    0.0000 O   0  0  0  0  0  0  0  0  0  0  0  0
    8.4759    0.3629    0.0000 O   0  0  0  0  0  0  0  0  0  0  0  0
    2.0000    1.8896    0.0000 O   0  0  0  0  0  0  0  0  0  0  0  0
    9.2325   -1.1952    0.0000 O   0  0  0  0  0  0  0  0  0  0  0  0
    4.8777   -2.9938    0.0000 N   0  0  0  0  0  0  0  0  0  0  0  0
    4.8777   -1.3844    0.0000 C   0  0  0  0  0  0  0  0  0  0  0  0
    3.9315   -1.6891    0.0000 C   0  0  0  0  0  0  0  0  0  0  0  0
    5.7772   -0.9476    0.0000 C   0  0  0  0  0  0  0  0  0  0  0  0
    4.5703   -0.4328    0.0000 C   0  0  0  0  0  0  0  0  0  0  0  0
    5.4613   -2.1891    0.0000 C   0  0  0  0  0  0  0  0  0  0  0  0
    3.9315   -2.6891    0.0000 C   0  0  0  0  0  0  0  0  0  0  0  0
    3.0654   -1.1891    0.0000 C   0  0  0  0  0  0  0  0  0  0  0  0
    3.0654   -3.1891    0.0000 C   0  0  0  0  0  0  0  0  0  0  0  0
    3.5925   -0.2232    0.0000 C   0  0  0  0  0  0  0  0  0  0  0  0
    5.8487    0.0499    0.0000 C   0  0  0  0  0  0  0  0  0  0  0  0
    5.2407    0.3092    0.0000 C   0  0  0  0  0  0  0  0  0  0  0  0
    6.6053   -1.5082    0.0000 C   0  0  0  0  0  0  0  0  0  0  0  0
    2.1994   -1.6891    0.0000 C   0  0  0  0  0  0  0  0  0  0  0  0
    2.1994   -2.6891    0.0000 C   0  0  0  0  0  0  0  0  0  0  0  0
    3.2852    0.7284    0.0000 C   0  0  0  0  0  0  0  0  0  0  0  0
    6.7483    0.4867    0.0000 C   0  0  0  0  0  0  0  0  0  0  0  0
    4.9334    1.2608    0.0000 C   0  0  0  0  0  0  0  0  0  0  0  0
    7.5049   -1.0714    0.0000 C   0  0  0  0  0  0  0  0  0  0  0  0
    3.9556    1.4704    0.0000 C   0  0  0  0  0  0  0  0  0  0  0  0
    7.5763   -0.0739    0.0000 C   0  0  0  0  0  0  0  0  0  0  0  0
    2.6704    2.6316    0.0000 C   0  0  0  0  0  0  0  0  0  0  0  0
    9.3040   -0.1977    0.0000 C   0  0  0  0  0  0  0  0  0  0  0  0
    2.3630    3.5832    0.0000 C   0  0  0  0  0  0  0  0  0  0  0  0
   10.2035    0.2391    0.0000 C   0  0  0  0  0  0  0  0  0  0  0  0
    5.0703   -3.5832    0.0000 H   0  0  0  0  0  0  0  0  0  0  0  0
    3.0654   -0.5691    0.0000 H   0  0  0  0  0  0  0  0  0  0  0  0
    3.0654   -3.8091    0.0000 H   0  0  0  0  0  0  0  0  0  0  0  0
    5.3353    0.3975    0.0000 H   0  0  0  0  0  0  0  0  0  0  0  0
    3.1769   -0.6832    0.0000 H   0  0  0  0  0  0  0  0  0  0  0  0
    6.5610   -2.1266    0.0000 H   0  0  0  0  0  0  0  0  0  0  0  0
    5.8470    0.1792    0.0000 H   0  0  0  0  0  0  0  0  0  0  0  0
    1.6625   -1.3791    0.0000 H   0  0  0  0  0  0  0  0  0  0  0  0
    1.6625   -2.9991    0.0000 H   0  0  0  0  0  0  0  0  0  0  0  0
    6.7926    1.1051    0.0000 H   0  0  0  0  0  0  0  0  0  0  0  0
    2.6789    0.8584    0.0000 H   0  0  0  0  0  0  0  0  0  0  0  0
    8.0183   -1.4190    0.0000 H   0  0  0  0  0  0  0  0  0  0  0  0
    5.3490    1.7208    0.0000 H   0  0  0  0  0  0  0  0  0  0  0  0
   10.4743   -0.3187    0.0000 H   0  0  0  0  0  0  0  0  0  0  0  0
    2.9530    3.7737    0.0000 H   0  0  0  0  0  0  0  0  0  0  0  0
    2.1725    4.1732    0.0000 H   0  0  0  0  0  0  0  0  0  0  0  0
    1.7731    3.3926    0.0000 H   0  0  0  0  0  0  0  0  0  0  0  0
   10.7612    0.5099    0.0000 H   0  0  0  0  0  0  0  0  0  0  0  0
    9.9327    0.7968    0.0000 H   0  0  0  0  0  0  0  0  0  0  0  0
  1 11  2  0  0  0  0
  2 25  1  0  0  0  0
  2 27  1  0  0  0  0
  3 26  1  0  0  0  0
  3 28  1  0  0  0  0
  4 27  2  0  0  0  0
  5 28  2  0  0  0  0
  6 11  1  0  0  0  0
  6 12  1  0  0  0  0
  6 31  1  0  0  0  0
  7  8  1  0  0  0  0
  7  9  1  0  0  0  0
  7 10  1  0  0  0  0
  7 11  1  0  0  0  0
  8 12  1  0  0  0  0
  8 13  2  0  0  0  0
  9 16  2  0  0  0  0
  9 18  1  0  0  0  0
 10 15  2  0  0  0  0
 10 17  1  0  0  0  0
 12 14  2  0  0  0  0
 13 19  1  0  0  0  0
 13 32  1  0  0  0  0
 14 20  1  0  0  0  0
 14 33  1  0  0  0  0
 15 21  1  0  0  0  0
 15 35  1  0  0  0  0
 16 22  1  0  0  0  0
 16 34  1  0  0  0  0
 17 23  2  0  0  0  0
 17 37  1  0  0  0  0
 18 24  2  0  0  0  0
 18 36  1  0  0  0  0
 19 20  2  0  0  0  0
 19 38  1  0  0  0  0
 20 39  1  0  0  0  0
 21 25  2  0  0  0  0
 21 41  1  0  0  0  0
 22 26  2  0  0  0  0
 22 40  1  0  0  0  0
 23 25  1  0  0  0  0
 23 43  1  0  0  0  0
 24 26  1  0  0  0  0
 24 42  1  0  0  0  0
 27 29  1  0  0  0  0
 28 30  1  0  0  0  0
 29 45  1  0  0  0  0
 29 46  1  0  0  0  0
 29 47  1  0  0  0  0
 30 44  1  0  0  0  0
 30 48  1  0  0  0  0
 30 49  1  0  0  0  0
M  END
> <PUBCHEM_COMPOUND_CID>
8269

> <PUBCHEM_COMPOUND_CANONICALIZED>
1

> <PUBCHEM_CACTVS_COMPLEXITY>
625

> <PUBCHEM_CACTVS_HBOND_ACCEPTOR>
5

> <PUBCHEM_CACTVS_HBOND_DONOR>
1

> <PUBCHEM_CACTVS_ROTATABLE_BOND>
6

> <PUBCHEM_CACTVS_SUBSKEYS>
AAADceB6OAAAAAAAAAAAAAAAAAAAAWAAAAAwYMAAAAAAAFgBUAAAHgAQAAAADgyBmAAyzoLABACIAiXSWACCCAAhIgAIiAEGbIgMJjLEtZuGOijk1BHI6AecyPCPoAAAAAACAABAAAAAAAQAAAAAAAAAAA==

> <PUBCHEM_IUPAC_OPENEYE_NAME>
[4-[3-(4-acetoxyphenyl)-2-oxo-indolin-3-yl]phenyl] acetate

> <PUBCHEM_IUPAC_CAS_NAME>
acetic acid [4-[3-(4-acetyloxyphenyl)-2-oxo-1H-indol-3-yl]phenyl] ester

> <PUBCHEM_IUPAC_NAME>
[4-[3-(4-acetyloxyphenyl)-2-oxo-1H-indol-3-yl]phenyl] acetate

> <PUBCHEM_IUPAC_SYSTEMATIC_NAME>
[4-[3-(4-acetyloxyphenyl)-2-oxidanylidene-1H-indol-3-yl]phenyl] ethanoate

> <PUBCHEM_IUPAC_TRADITIONAL_NAME>
acetic acid [4-[3-(4-acetoxyphenyl)-2-keto-indolin-3-yl]phenyl] ester

> <PUBCHEM_IUPAC_INCHI>
InChI=1S/C24H19NO5/c1-15(26)29-19-11-7-17(8-12-19)24(18-9-13-20(14-10-18)30-16(2)27)21-5-3-4-6-22(21)25-23(24)28/h3-14H,1-2H3,(H,25,28)

> <PUBCHEM_IUPAC_INCHIKEY>
PHPUXYRXPHEJDF-UHFFFAOYSA-N

> <PUBCHEM_XLOGP3_AA>
3.5

> <PUBCHEM_EXACT_MASS>
401.126323

> <PUBCHEM_MOLECULAR_FORMULA>
C24H19NO5

> <PUBCHEM_MOLECULAR_WEIGHT>
401.41136

> <PUBCHEM_OPENEYE_CAN_SMILES>
CC(=O)OC1=CC=C(C=C1)C2(C3=CC=CC=C3NC2=O)C4=CC=C(C=C4)OC(=O)C

> <PUBCHEM_OPENEYE_ISO_SMILES>
CC(=O)OC1=CC=C(C=C1)C2(C3=CC=CC=C3NC2=O)C4=CC=C(C=C4)OC(=O)C

> <PUBCHEM_CACTVS_TPSA>
81.7

> <PUBCHEM_MONOISOTOPIC_WEIGHT>
401.126323

> <PUBCHEM_TOTAL_CHARGE>
0

> <PUBCHEM_HEAVY_ATOM_COUNT>
30

> <PUBCHEM_ATOM_DEF_STEREO_COUNT>
0

> <PUBCHEM_ATOM_UDEF_STEREO_COUNT>
0

> <PUBCHEM_BOND_DEF_STEREO_COUNT>
0

> <PUBCHEM_BOND_UDEF_STEREO_COUNT>
0

> <PUBCHEM_ISOTOPIC_ATOM_COUNT>
0

> <PUBCHEM_COMPONENT_COUNT>
1

> <PUBCHEM_CACTVS_TAUTO_COUNT>
2

> <PUBCHEM_COORDINATE_TYPE>
1
5
255

> <PUBCHEM_BONDANNOTATIONS>
10  15  8
10  17  8
12  14  8
13  19  8
14  20  8
15  21  8
16  22  8
17  23  8
18  24  8
19  20  8
21  25  8
22  26  8
23  25  8
24  26  8
8  12  8
8  13  8
9  16  8
9  18  8

$$$$

