4851
  -OEChem-06261200222D

 63 64  0     1  0  0  0  0  0999 V2000
    2.0000   -1.7133    0.0000 K   0  3  0  0  0  0  0  0  0  0  0  0
   10.5687    0.8848    0.0000 O   0  0  0  0  0  0  0  0  0  0  0  0
    9.9170   -2.7715    0.0000 O   0  0  0  0  0  0  0  0  0  0  0  0
    2.5000   -0.8473    0.0000 O   0  5  0  0  0  0  0  0  0  0  0  0
    4.0000   -1.7133    0.0000 O   0  0  0  0  0  0  0  0  0  0  0  0
    7.0878    1.6938    0.0000 N   0  0  0  0  0  0  0  0  0  0  0  0
    8.9851    0.0800    0.0000 C   0  0  3  0  0  0  0  0  0  0  0  0
    9.5687    0.8848    0.0000 C   0  0  3  0  0  0  0  0  0  0  0  0
    8.0388    0.3848    0.0000 C   0  0  0  0  0  0  0  0  0  0  0  0
    8.0388    1.3848    0.0000 C   0  0  0  0  0  0  0  0  0  0  0  0
    8.9851    1.6895    0.0000 C   0  0  0  0  0  0  0  0  0  0  0  0
    6.5000    0.8848    0.0000 C   0  0  0  0  0  0  0  0  0  0  0  0
    7.0878    0.0757    0.0000 C   0  0  0  0  0  0  0  0  0  0  0  0
    9.2957   -0.8705    0.0000 C   0  0  0  0  0  0  0  0  0  0  0  0
    5.5000    0.8848    0.0000 C   0  0  0  0  0  0  0  0  0  0  0  0
    6.7788    2.6448    0.0000 C   0  0  0  0  0  0  0  0  0  0  0  0
   10.2742   -1.0767    0.0000 C   0  0  0  0  0  0  0  0  0  0  0  0
    5.0000    0.0187    0.0000 C   0  0  0  0  0  0  0  0  0  0  0  0
   10.5849   -2.0272    0.0000 C   0  0  3  0  0  0  0  0  0  0  0  0
   11.5634   -2.2335    0.0000 C   0  0  0  0  0  0  0  0  0  0  0  0
    7.4479    3.3880    0.0000 C   0  0  0  0  0  0  0  0  0  0  0  0
    5.8006    2.8527    0.0000 C   0  0  0  0  0  0  0  0  0  0  0  0
    4.0000    0.0187    0.0000 C   0  0  0  0  0  0  0  0  0  0  0  0
   11.8741   -3.1840    0.0000 C   0  0  0  0  0  0  0  0  0  0  0  0
   12.8526   -3.3902    0.0000 C   0  0  0  0  0  0  0  0  0  0  0  0
    7.1389    4.3390    0.0000 C   0  0  0  0  0  0  0  0  0  0  0  0
    5.4916    3.8038    0.0000 C   0  0  0  0  0  0  0  0  0  0  0  0
    6.1607    4.5469    0.0000 C   0  0  0  0  0  0  0  0  0  0  0  0
   13.1632   -4.3407    0.0000 C   0  0  0  0  0  0  0  0  0  0  0  0
    3.5000   -0.8473    0.0000 C   0  0  0  0  0  0  0  0  0  0  0  0
   14.1417   -4.5469    0.0000 C   0  0  0  0  0  0  0  0  0  0  0  0
    9.8248   -0.0519    0.0000 H   0  0  0  0  0  0  0  0  0  0  0  0
    9.9549    1.6419    0.0000 H   0  0  0  0  0  0  0  0  0  0  0  0
    9.5224    1.9987    0.0000 H   0  0  0  0  0  0  0  0  0  0  0  0
    8.7340    2.2564    0.0000 H   0  0  0  0  0  0  0  0  0  0  0  0
    6.8962   -0.5139    0.0000 H   0  0  0  0  0  0  0  0  0  0  0  0
    8.8817   -1.3320    0.0000 H   0  0  0  0  0  0  0  0  0  0  0  0
    5.6077    1.4953    0.0000 H   0  0  0  0  0  0  0  0  0  0  0  0
    4.9174    1.0968    0.0000 H   0  0  0  0  0  0  0  0  0  0  0  0
   10.8787    1.4217    0.0000 H   0  0  0  0  0  0  0  0  0  0  0  0
   10.6883   -0.6153    0.0000 H   0  0  0  0  0  0  0  0  0  0  0  0
    4.8923   -0.5919    0.0000 H   0  0  0  0  0  0  0  0  0  0  0  0
    5.5826   -0.1933    0.0000 H   0  0  0  0  0  0  0  0  0  0  0  0
   10.8490   -2.8352    0.0000 H   0  0  0  0  0  0  0  0  0  0  0  0
   12.1772   -2.1461    0.0000 H   0  0  0  0  0  0  0  0  0  0  0  0
   11.5840   -1.6138    0.0000 H   0  0  0  0  0  0  0  0  0  0  0  0
    8.0544    3.2591    0.0000 H   0  0  0  0  0  0  0  0  0  0  0  0
    5.3858    2.3920    0.0000 H   0  0  0  0  0  0  0  0  0  0  0  0
    4.1077    0.6293    0.0000 H   0  0  0  0  0  0  0  0  0  0  0  0
    3.4174    0.2308    0.0000 H   0  0  0  0  0  0  0  0  0  0  0  0
   11.2602   -3.2713    0.0000 H   0  0  0  0  0  0  0  0  0  0  0  0
   11.8535   -3.8036    0.0000 H   0  0  0  0  0  0  0  0  0  0  0  0
   13.4664   -3.3028    0.0000 H   0  0  0  0  0  0  0  0  0  0  0  0
   12.8731   -2.7705    0.0000 H   0  0  0  0  0  0  0  0  0  0  0  0
    7.5537    4.7998    0.0000 H   0  0  0  0  0  0  0  0  0  0  0  0
    4.8852    3.9327    0.0000 H   0  0  0  0  0  0  0  0  0  0  0  0
   10.1097   -3.3609    0.0000 H   0  0  0  0  0  0  0  0  0  0  0  0
    5.9691    5.1366    0.0000 H   0  0  0  0  0  0  0  0  0  0  0  0
   12.5494   -4.4281    0.0000 H   0  0  0  0  0  0  0  0  0  0  0  0
   13.1427   -4.9604    0.0000 H   0  0  0  0  0  0  0  0  0  0  0  0
   14.0139   -5.1536    0.0000 H   0  0  0  0  0  0  0  0  0  0  0  0
   14.7484   -4.6748    0.0000 H   0  0  0  0  0  0  0  0  0  0  0  0
   14.2696   -3.9403    0.0000 H   0  0  0  0  0  0  0  0  0  0  0  0
  2  8  1  0  0  0  0
  2 40  1  0  0  0  0
  3 19  1  0  0  0  0
  3 57  1  0  0  0  0
  4 30  1  0  0  0  0
  5 30  2  0  0  0  0
  6 10  1  0  0  0  0
  6 12  1  0  0  0  0
  6 16  1  0  0  0  0
  7  8  1  0  0  0  0
  7  9  1  0  0  0  0
  7 14  1  0  0  0  0
  7 32  1  0  0  0  0
  8 11  1  0  0  0  0
  8 33  1  0  0  0  0
  9 10  2  0  0  0  0
  9 13  1  0  0  0  0
 10 11  1  0  0  0  0
 11 34  1  0  0  0  0
 11 35  1  0  0  0  0
 12 13  2  0  0  0  0
 12 15  1  0  0  0  0
 13 36  1  0  0  0  0
 14 17  2  3  0  0  0
 14 37  1  0  0  0  0
 15 18  1  0  0  0  0
 15 38  1  0  0  0  0
 15 39  1  0  0  0  0
 16 21  2  0  0  0  0
 16 22  1  0  0  0  0
 17 19  1  0  0  0  0
 17 41  1  0  0  0  0
 18 23  1  0  0  0  0
 18 42  1  0  0  0  0
 18 43  1  0  0  0  0
 19 20  1  0  0  0  0
 19 44  1  0  0  0  0
 20 24  1  0  0  0  0
 20 45  1  0  0  0  0
 20 46  1  0  0  0  0
 21 26  1  0  0  0  0
 21 47  1  0  0  0  0
 22 27  2  0  0  0  0
 22 48  1  0  0  0  0
 23 30  1  0  0  0  0
 23 49  1  0  0  0  0
 23 50  1  0  0  0  0
 24 25  1  0  0  0  0
 24 51  1  0  0  0  0
 24 52  1  0  0  0  0
 25 29  1  0  0  0  0
 25 53  1  0  0  0  0
 25 54  1  0  0  0  0
 26 28  2  0  0  0  0
 26 55  1  0  0  0  0
 27 28  1  0  0  0  0
 27 56  1  0  0  0  0
 28 58  1  0  0  0  0
 29 31  1  0  0  0  0
 29 59  1  0  0  0  0
 29 60  1  0  0  0  0
 31 61  1  0  0  0  0
 31 62  1  0  0  0  0
 31 63  1  0  0  0  0
M  CHG  2   1   1   4  -1
M  END
> <PUBCHEM_COMPOUND_CID>
4851

> <PUBCHEM_COMPOUND_CANONICALIZED>
1

> <PUBCHEM_CACTVS_COMPLEXITY>
566

> <PUBCHEM_CACTVS_HBOND_ACCEPTOR>
4

> <PUBCHEM_CACTVS_HBOND_DONOR>
2

> <PUBCHEM_CACTVS_ROTATABLE_BOND>
11

> <PUBCHEM_CACTVS_SUBSKEYS>
AAADcfB6OAAAQAAAAAAAAAAAAAAAAeIAAAAwAAAAAAAWAAABwAAAHgAACAAADRyhngIyyJMMEgCoAyTyTACCgCAhAiAImCEwZJgINPLAkZGEcAhmwAHI2Ae42eOegAAAAAAAAAAAAAAAAAAAAKEADQAAAA==

> <PUBCHEM_IUPAC_OPENEYE_NAME>
potassium 4-[5-hydroxy-4-(3-hydroxyoct-1-enyl)-1-phenyl-5,6-dihydro-4H-cyclopenta[b]pyrrol-2-yl]butanoate

> <PUBCHEM_IUPAC_CAS_NAME>
potassium 4-[5-hydroxy-4-(3-hydroxyoct-1-enyl)-1-phenyl-5,6-dihydro-4H-cyclopenta[b]pyrrol-2-yl]butanoate

> <PUBCHEM_IUPAC_NAME>
potassium 4-[5-hydroxy-4-(3-hydroxyoct-1-enyl)-1-phenyl-5,6-dihydro-4H-cyclopenta[b]pyrrol-2-yl]butanoate

> <PUBCHEM_IUPAC_SYSTEMATIC_NAME>
potassium 4-[5-oxidanyl-4-(3-oxidanyloct-1-enyl)-1-phenyl-5,6-dihydro-4H-cyclopenta[b]pyrrol-2-yl]butanoate

> <PUBCHEM_IUPAC_TRADITIONAL_NAME>
potassium 4-[5-hydroxy-4-(3-hydroxyoct-1-enyl)-1-phenyl-5,6-dihydro-4H-cyclopenta[b]pyrrol-2-yl]butyrate

> <PUBCHEM_IUPAC_INCHI>
InChI=1S/C25H33NO4.K/c1-2-3-5-12-20(27)14-15-21-22-16-19(11-8-13-25(29)30)26(23(22)17-24(21)28)18-9-6-4-7-10-18;/h4,6-7,9-10,14-16,20-21,24,27-28H,2-3,5,8,11-13,17H2,1H3,(H,29,30);/q;+1/p-1

> <PUBCHEM_IUPAC_INCHIKEY>
ZRZQBYATZFQCCF-UHFFFAOYSA-M

> <PUBCHEM_EXACT_MASS>
449.19684

> <PUBCHEM_MOLECULAR_FORMULA>
C25H32KNO4

> <PUBCHEM_MOLECULAR_WEIGHT>
449.62418

> <PUBCHEM_OPENEYE_CAN_SMILES>
CCCCCC(C=CC1C(CC2=C1C=C(N2C3=CC=CC=C3)CCCC(=O)[O-])O)O.[K+]

> <PUBCHEM_OPENEYE_ISO_SMILES>
CCCCCC(C=CC1C(CC2=C1C=C(N2C3=CC=CC=C3)CCCC(=O)[O-])O)O.[K+]

> <PUBCHEM_CACTVS_TPSA>
85.5

> <PUBCHEM_MONOISOTOPIC_WEIGHT>
449.19684

> <PUBCHEM_TOTAL_CHARGE>
0

> <PUBCHEM_HEAVY_ATOM_COUNT>
31

> <PUBCHEM_ATOM_DEF_STEREO_COUNT>
0

> <PUBCHEM_ATOM_UDEF_STEREO_COUNT>
3

> <PUBCHEM_BOND_DEF_STEREO_COUNT>
0

> <PUBCHEM_BOND_UDEF_STEREO_COUNT>
1

> <PUBCHEM_ISOTOPIC_ATOM_COUNT>
0

> <PUBCHEM_COMPONENT_COUNT>
2

> <PUBCHEM_CACTVS_TAUTO_COUNT>
1

> <PUBCHEM_NONSTANDARDBOND>
1  4  7

> <PUBCHEM_COORDINATE_TYPE>
1
5
255

> <PUBCHEM_BONDANNOTATIONS>
12  13  8
14  17  1
16  21  8
16  22  8
19  44  3
21  26  8
22  27  8
26  28  8
27  28  8
6  10  8
6  12  8
7  32  3
8  33  3
9  10  8
9  13  8

$$$$

