13949
  -OEChem-06241222412D

 31 32  0     0  0  0  0  0  0999 V2000
    4.2514   -1.3467    0.0000 O   0  0  0  0  0  0  0  0  0  0  0  0
    9.4951    1.5600    0.0000 O   0  0  0  0  0  0  0  0  0  0  0  0
   11.2272   -1.4400    0.0000 O   0  0  0  0  0  0  0  0  0  0  0  0
    2.0000    0.1009    0.0000 O   0  5  0  0  0  0  0  0  0  0  0  0
    2.1810   -1.6217    0.0000 O   0  0  0  0  0  0  0  0  0  0  0  0
    7.7631   -1.4400    0.0000 N   0  0  0  0  0  0  0  0  0  0  0  0
    6.8970   -0.9400    0.0000 N   0  0  0  0  0  0  0  0  0  0  0  0
    9.4951   -1.4400    0.0000 N   0  0  0  0  0  0  0  0  0  0  0  0
    8.6291    0.0600    0.0000 N   0  0  0  0  0  0  0  0  0  0  0  0
    2.5878   -0.7081    0.0000 N   0  3  0  0  0  0  0  0  0  0  0  0
   10.3611    0.0600    0.0000 N   0  0  0  0  0  0  0  0  0  0  0  0
    5.1650   -0.9400    0.0000 C   0  0  0  0  0  0  0  0  0  0  0  0
    5.0605    0.0545    0.0000 C   0  0  0  0  0  0  0  0  0  0  0  0
    3.5823   -0.6036    0.0000 C   0  0  0  0  0  0  0  0  0  0  0  0
    4.0823    0.2624    0.0000 C   0  0  0  0  0  0  0  0  0  0  0  0
    6.0310   -1.4400    0.0000 C   0  0  0  0  0  0  0  0  0  0  0  0
    8.6291   -0.9400    0.0000 C   0  0  0  0  0  0  0  0  0  0  0  0
    9.4951    0.5600    0.0000 C   0  0  0  0  0  0  0  0  0  0  0  0
   10.3611   -0.9400    0.0000 C   0  0  0  0  0  0  0  0  0  0  0  0
   10.3611    2.0600    0.0000 C   0  0  0  0  0  0  0  0  0  0  0  0
   12.0932   -0.9400    0.0000 C   0  0  0  0  0  0  0  0  0  0  0  0
    5.5212    0.4694    0.0000 H   0  0  0  0  0  0  0  0  0  0  0  0
    3.8301    0.8288    0.0000 H   0  0  0  0  0  0  0  0  0  0  0  0
    6.0310   -2.0600    0.0000 H   0  0  0  0  0  0  0  0  0  0  0  0
    7.7631   -2.0600    0.0000 H   0  0  0  0  0  0  0  0  0  0  0  0
   10.6711    1.5231    0.0000 H   0  0  0  0  0  0  0  0  0  0  0  0
   10.8981    2.3700    0.0000 H   0  0  0  0  0  0  0  0  0  0  0  0
   10.0511    2.5969    0.0000 H   0  0  0  0  0  0  0  0  0  0  0  0
   12.6301   -0.6300    0.0000 H   0  0  0  0  0  0  0  0  0  0  0  0
   11.7832   -0.4031    0.0000 H   0  0  0  0  0  0  0  0  0  0  0  0
   12.4032   -1.4769    0.0000 H   0  0  0  0  0  0  0  0  0  0  0  0
  1 12  1  0  0  0  0
  1 14  1  0  0  0  0
  2 18  1  0  0  0  0
  2 20  1  0  0  0  0
  3 19  1  0  0  0  0
  3 21  1  0  0  0  0
  4 10  1  0  0  0  0
  5 10  2  0  0  0  0
  6  7  1  0  0  0  0
  6 17  1  0  0  0  0
  6 25  1  0  0  0  0
  7 16  2  3  0  0  0
  8 17  2  0  0  0  0
  8 19  1  0  0  0  0
  9 17  1  0  0  0  0
  9 18  2  0  0  0  0
 10 14  1  0  0  0  0
 11 18  1  0  0  0  0
 11 19  2  0  0  0  0
 12 13  2  0  0  0  0
 12 16  1  0  0  0  0
 13 15  1  0  0  0  0
 13 22  1  0  0  0  0
 14 15  2  0  0  0  0
 15 23  1  0  0  0  0
 16 24  1  0  0  0  0
 20 26  1  0  0  0  0
 20 27  1  0  0  0  0
 20 28  1  0  0  0  0
 21 29  1  0  0  0  0
 21 30  1  0  0  0  0
 21 31  1  0  0  0  0
M  CHG  2   4  -1  10   1
M  END
> <PUBCHEM_COMPOUND_CID>
13949

> <PUBCHEM_COMPOUND_CANONICALIZED>
1

> <PUBCHEM_CACTVS_COMPLEXITY>
365

> <PUBCHEM_CACTVS_HBOND_ACCEPTOR>
10

> <PUBCHEM_CACTVS_HBOND_DONOR>
1

> <PUBCHEM_CACTVS_ROTATABLE_BOND>
5

> <PUBCHEM_CACTVS_SUBSKEYS>
AAADccBzuAAAAAAAAAAAAAAAAAAAASAAAAAsAAAAAAAAAAAB4AAAHgAcAAAACATBkAYzlIZ6VECpALFzdwSSCAksIoAtiAEmbNqMLrKEtZuKGSDsyBEI6Ya8AAAAAAAAAAAAAAAAAAAAAAAAAAAAAAAAAA==

> <PUBCHEM_IUPAC_OPENEYE_NAME>
4,6-dimethoxy-N-[(5-nitro-2-furyl)methyleneamino]-1,3,5-triazin-2-amine

> <PUBCHEM_IUPAC_CAS_NAME>
4,6-dimethoxy-N-[(5-nitro-2-furanyl)methylideneamino]-1,3,5-triazin-2-amine

> <PUBCHEM_IUPAC_NAME>
4,6-dimethoxy-N-[(5-nitrofuran-2-yl)methylideneamino]-1,3,5-triazin-2-amine

> <PUBCHEM_IUPAC_SYSTEMATIC_NAME>
4,6-dimethoxy-N-[(5-nitrofuran-2-yl)methylideneamino]-1,3,5-triazin-2-amine

> <PUBCHEM_IUPAC_TRADITIONAL_NAME>
(4,6-dimethoxy-s-triazin-2-yl)-[(5-nitro-2-furyl)methyleneamino]amine

> <PUBCHEM_IUPAC_INCHI>
InChI=1S/C10H10N6O5/c1-19-9-12-8(13-10(14-9)20-2)15-11-5-6-3-4-7(21-6)16(17)18/h3-5H,1-2H3,(H,12,13,14,15)

> <PUBCHEM_IUPAC_INCHIKEY>
GIROMUPERDEDRZ-UHFFFAOYSA-N

> <PUBCHEM_XLOGP3>
1.2

> <PUBCHEM_EXACT_MASS>
294.071267

> <PUBCHEM_MOLECULAR_FORMULA>
C10H10N6O5

> <PUBCHEM_MOLECULAR_WEIGHT>
294.2236

> <PUBCHEM_OPENEYE_CAN_SMILES>
COC1=NC(=NC(=N1)NN=CC2=CC=C(O2)[N+](=O)[O-])OC

> <PUBCHEM_OPENEYE_ISO_SMILES>
COC1=NC(=NC(=N1)NN=CC2=CC=C(O2)[N+](=O)[O-])OC

> <PUBCHEM_CACTVS_TPSA>
141

> <PUBCHEM_MONOISOTOPIC_WEIGHT>
294.071267

> <PUBCHEM_TOTAL_CHARGE>
0

> <PUBCHEM_HEAVY_ATOM_COUNT>
21

> <PUBCHEM_ATOM_DEF_STEREO_COUNT>
0

> <PUBCHEM_ATOM_UDEF_STEREO_COUNT>
0

> <PUBCHEM_BOND_DEF_STEREO_COUNT>
0

> <PUBCHEM_BOND_UDEF_STEREO_COUNT>
1

> <PUBCHEM_ISOTOPIC_ATOM_COUNT>
0

> <PUBCHEM_COMPONENT_COUNT>
1

> <PUBCHEM_CACTVS_TAUTO_COUNT>
3

> <PUBCHEM_COORDINATE_TYPE>
1
5
255

> <PUBCHEM_BONDANNOTATIONS>
1  12  8
1  14  8
11  18  8
11  19  8
12  13  8
13  15  8
14  15  8
7  16  1
8  17  8
8  19  8
9  17  8
9  18  8

$$$$

