17395579
  -OEChem-06241222512D

 48 50  0     1  0  0  0  0  0999 V2000
    4.1254   -0.7712    0.0000 S   0  0  0  0  0  0  0  0  0  0  0  0
    2.9499    0.8468    0.0000 O   0  0  0  0  0  0  0  0  0  0  0  0
    4.3511    1.8649    0.0000 N   0  0  0  0  0  0  0  0  0  0  0  0
    4.4042   -2.5313    0.0000 N   0  0  0  0  0  0  0  0  0  0  0  0
    6.0223   -2.5313    0.0000 N   0  0  0  0  0  0  0  0  0  0  0  0
    5.7132   -1.5802    0.0000 N   0  0  0  0  0  0  0  0  0  0  0  0
    4.1701    3.5875    0.0000 C   0  0  3  0  0  0  0  0  0  0  0  0
    3.7634    2.6739    0.0000 C   0  0  0  0  0  0  0  0  0  0  0  0
    3.5823    4.3965    0.0000 C   0  0  0  0  0  0  0  0  0  0  0  0
    5.1646    3.6920    0.0000 C   0  0  0  0  0  0  0  0  0  0  0  0
    4.5322    0.1424    0.0000 C   0  0  3  0  0  0  0  0  0  0  0  0
    3.9890    5.3100    0.0000 C   0  0  0  0  0  0  0  0  0  0  0  0
    2.5878    4.2920    0.0000 C   0  0  0  0  0  0  0  0  0  0  0  0
    3.9444    0.9514    0.0000 C   0  0  0  0  0  0  0  0  0  0  0  0
    3.4013    6.1190    0.0000 C   0  0  0  0  0  0  0  0  0  0  0  0
    2.0000    5.1010    0.0000 C   0  0  0  0  0  0  0  0  0  0  0  0
    5.5267    0.2469    0.0000 C   0  0  0  0  0  0  0  0  0  0  0  0
    2.4067    6.0145    0.0000 C   0  0  0  0  0  0  0  0  0  0  0  0
    4.7132   -1.5802    0.0000 C   0  0  0  0  0  0  0  0  0  0  0  0
    5.2132   -3.1190    0.0000 C   0  0  0  0  0  0  0  0  0  0  0  0
    5.2132   -4.1190    0.0000 C   0  0  0  0  0  0  0  0  0  0  0  0
    4.3472   -4.6190    0.0000 C   0  0  0  0  0  0  0  0  0  0  0  0
    6.0793   -4.6190    0.0000 C   0  0  0  0  0  0  0  0  0  0  0  0
    4.3472   -5.6190    0.0000 C   0  0  0  0  0  0  0  0  0  0  0  0
    6.0793   -5.6190    0.0000 C   0  0  0  0  0  0  0  0  0  0  0  0
    5.2132   -6.1190    0.0000 C   0  0  0  0  0  0  0  0  0  0  0  0
    4.5345    3.0859    0.0000 H   0  0  0  0  0  0  0  0  0  0  0  0
    3.2494    3.0206    0.0000 H   0  0  0  0  0  0  0  0  0  0  0  0
    3.3327    2.2279    0.0000 H   0  0  0  0  0  0  0  0  0  0  0  0
    5.2294    3.0754    0.0000 H   0  0  0  0  0  0  0  0  0  0  0  0
    5.7812    3.7568    0.0000 H   0  0  0  0  0  0  0  0  0  0  0  0
    5.0998    4.3086    0.0000 H   0  0  0  0  0  0  0  0  0  0  0  0
    4.9677    1.9297    0.0000 H   0  0  0  0  0  0  0  0  0  0  0  0
    4.8966   -0.3592    0.0000 H   0  0  0  0  0  0  0  0  0  0  0  0
    4.6056    5.3748    0.0000 H   0  0  0  0  0  0  0  0  0  0  0  0
    2.3356    3.7256    0.0000 H   0  0  0  0  0  0  0  0  0  0  0  0
    3.6534    6.6854    0.0000 H   0  0  0  0  0  0  0  0  0  0  0  0
    1.3834    5.0362    0.0000 H   0  0  0  0  0  0  0  0  0  0  0  0
    5.5915   -0.3697    0.0000 H   0  0  0  0  0  0  0  0  0  0  0  0
    6.1433    0.3117    0.0000 H   0  0  0  0  0  0  0  0  0  0  0  0
    5.4619    0.8635    0.0000 H   0  0  0  0  0  0  0  0  0  0  0  0
    2.0423    6.5161    0.0000 H   0  0  0  0  0  0  0  0  0  0  0  0
    6.6119   -2.7229    0.0000 H   0  0  0  0  0  0  0  0  0  0  0  0
    3.8103   -4.3090    0.0000 H   0  0  0  0  0  0  0  0  0  0  0  0
    6.6162   -4.3090    0.0000 H   0  0  0  0  0  0  0  0  0  0  0  0
    3.8103   -5.9290    0.0000 H   0  0  0  0  0  0  0  0  0  0  0  0
    6.6162   -5.9290    0.0000 H   0  0  0  0  0  0  0  0  0  0  0  0
    5.2132   -6.7390    0.0000 H   0  0  0  0  0  0  0  0  0  0  0  0
  1 11  1  0  0  0  0
  1 19  1  0  0  0  0
  2 14  2  0  0  0  0
  3  8  1  0  0  0  0
  3 14  1  0  0  0  0
  3 33  1  0  0  0  0
  4 19  1  0  0  0  0
  4 20  2  0  0  0  0
  5  6  1  0  0  0  0
  5 20  1  0  0  0  0
  5 43  1  0  0  0  0
  6 19  2  0  0  0  0
  7  8  1  0  0  0  0
  7  9  1  0  0  0  0
  7 10  1  0  0  0  0
  7 27  1  0  0  0  0
  8 28  1  0  0  0  0
  8 29  1  0  0  0  0
  9 12  2  0  0  0  0
  9 13  1  0  0  0  0
 10 30  1  0  0  0  0
 10 31  1  0  0  0  0
 10 32  1  0  0  0  0
 11 14  1  0  0  0  0
 11 17  1  0  0  0  0
 11 34  1  0  0  0  0
 12 15  1  0  0  0  0
 12 35  1  0  0  0  0
 13 16  2  0  0  0  0
 13 36  1  0  0  0  0
 15 18  2  0  0  0  0
 15 37  1  0  0  0  0
 16 18  1  0  0  0  0
 16 38  1  0  0  0  0
 17 39  1  0  0  0  0
 17 40  1  0  0  0  0
 17 41  1  0  0  0  0
 18 42  1  0  0  0  0
 20 21  1  0  0  0  0
 21 22  2  0  0  0  0
 21 23  1  0  0  0  0
 22 24  1  0  0  0  0
 22 44  1  0  0  0  0
 23 25  2  0  0  0  0
 23 45  1  0  0  0  0
 24 26  2  0  0  0  0
 24 46  1  0  0  0  0
 25 26  1  0  0  0  0
 25 47  1  0  0  0  0
 26 48  1  0  0  0  0
M  END
> <PUBCHEM_COMPOUND_CID>
17395579

> <PUBCHEM_COMPOUND_CANONICALIZED>
1

> <PUBCHEM_CACTVS_COMPLEXITY>
438

> <PUBCHEM_CACTVS_HBOND_ACCEPTOR>
4

> <PUBCHEM_CACTVS_HBOND_DONOR>
2

> <PUBCHEM_CACTVS_ROTATABLE_BOND>
7

> <PUBCHEM_CACTVS_SUBSKEYS>
AAADceB7oABAAAAAAAAAAAAAAAAAAWAAAAAwYAAAAAAAAAAB0AAAHgQYAAAADQDF2wSzEIbrEAiqAiNyNACS0AvgALAdqKEoBJiIKKKAmRGEIAhgngKIiAcQgMAOgAAAAAAAAAAAAAAAAAAAAAAAAAAAAA==

> <PUBCHEM_IUPAC_OPENEYE_NAME>
N-(2-phenylpropyl)-2-[(5-phenyl-1H-1,2,4-triazol-3-yl)sulfanyl]propanamide

> <PUBCHEM_IUPAC_CAS_NAME>
N-(2-phenylpropyl)-2-[(5-phenyl-1H-1,2,4-triazol-3-yl)thio]propanamide

> <PUBCHEM_IUPAC_NAME>
N-(2-phenylpropyl)-2-[(5-phenyl-1H-1,2,4-triazol-3-yl)sulfanyl]propanamide

> <PUBCHEM_IUPAC_SYSTEMATIC_NAME>
N-(2-phenylpropyl)-2-[(5-phenyl-1H-1,2,4-triazol-3-yl)sulfanyl]propanamide

> <PUBCHEM_IUPAC_TRADITIONAL_NAME>
N-(2-phenylpropyl)-2-[(5-phenyl-1H-1,2,4-triazol-3-yl)thio]propionamide

> <PUBCHEM_IUPAC_INCHI>
InChI=1S/C20H22N4OS/c1-14(16-9-5-3-6-10-16)13-21-19(25)15(2)26-20-22-18(23-24-20)17-11-7-4-8-12-17/h3-12,14-15H,13H2,1-2H3,(H,21,25)(H,22,23,24)

> <PUBCHEM_IUPAC_INCHIKEY>
CLYLKGRRCBIQGM-UHFFFAOYSA-N

> <PUBCHEM_XLOGP3_AA>
4.5

> <PUBCHEM_EXACT_MASS>
366.151432

> <PUBCHEM_MOLECULAR_FORMULA>
C20H22N4OS

> <PUBCHEM_MOLECULAR_WEIGHT>
366.47988

> <PUBCHEM_OPENEYE_CAN_SMILES>
CC(CNC(=O)C(C)SC1=NNC(=N1)C2=CC=CC=C2)C3=CC=CC=C3

> <PUBCHEM_OPENEYE_ISO_SMILES>
CC(CNC(=O)C(C)SC1=NNC(=N1)C2=CC=CC=C2)C3=CC=CC=C3

> <PUBCHEM_CACTVS_TPSA>
96

> <PUBCHEM_MONOISOTOPIC_WEIGHT>
366.151432

> <PUBCHEM_TOTAL_CHARGE>
0

> <PUBCHEM_HEAVY_ATOM_COUNT>
26

> <PUBCHEM_ATOM_DEF_STEREO_COUNT>
0

> <PUBCHEM_ATOM_UDEF_STEREO_COUNT>
2

> <PUBCHEM_BOND_DEF_STEREO_COUNT>
0

> <PUBCHEM_BOND_UDEF_STEREO_COUNT>
0

> <PUBCHEM_ISOTOPIC_ATOM_COUNT>
0

> <PUBCHEM_COMPONENT_COUNT>
1

> <PUBCHEM_CACTVS_TAUTO_COUNT>
6

> <PUBCHEM_COORDINATE_TYPE>
1
5
255

> <PUBCHEM_BONDANNOTATIONS>
11  17  3
12  15  8
13  16  8
15  18  8
16  18  8
21  22  8
21  23  8
22  24  8
23  25  8
24  26  8
25  26  8
4  19  8
4  20  8
5  20  8
5  6  8
6  19  8
7  10  3
9  12  8
9  13  8

$$$$

