17396099
  -OEChem-06241222542D

 50 53  0     1  0  0  0  0  0999 V2000
    4.5981   -5.0000    0.0000 Cl  0  0  0  0  0  0  0  0  0  0  0  0
    4.5981   -1.0000    0.0000 S   0  0  0  0  0  0  0  0  0  0  0  0
    2.0000   -4.5000    0.0000 F   0  0  0  0  0  0  0  0  0  0  0  0
    2.3660   -3.1340    0.0000 F   0  0  0  0  0  0  0  0  0  0  0  0
    3.3660   -4.8660    0.0000 F   0  0  0  0  0  0  0  0  0  0  0  0
    4.5981    2.0000    0.0000 O   0  0  0  0  0  0  0  0  0  0  0  0
    2.8660    5.0000    0.0000 O   0  0  0  0  0  0  0  0  0  0  0  0
    2.0000    1.5000    0.0000 O   0  0  0  0  0  0  0  0  0  0  0  0
    3.5981   -1.0000    0.0000 O   0  0  0  0  0  0  0  0  0  0  0  0
    5.5981   -1.0000    0.0000 O   0  0  0  0  0  0  0  0  0  0  0  0
    4.5981    0.0000    0.0000 N   0  0  3  0  0  0  0  0  0  0  0  0
    2.8660    3.0000    0.0000 N   0  0  0  0  0  0  0  0  0  0  0  0
    3.7320    1.5000    0.0000 C   0  0  3  0  0  0  0  0  0  0  0  0
    3.7320    0.5000    0.0000 C   0  0  0  0  0  0  0  0  0  0  0  0
    2.8660    2.0000    0.0000 C   0  0  0  0  0  0  0  0  0  0  0  0
    5.4641    0.5000    0.0000 C   0  0  0  0  0  0  0  0  0  0  0  0
    3.7320    3.5000    0.0000 C   0  0  0  0  0  0  0  0  0  0  0  0
    2.0000    3.5000    0.0000 C   0  0  0  0  0  0  0  0  0  0  0  0
    5.4641    1.5000    0.0000 C   0  0  0  0  0  0  0  0  0  0  0  0
    2.0000    4.5000    0.0000 C   0  0  0  0  0  0  0  0  0  0  0  0
    3.7320    4.5000    0.0000 C   0  0  0  0  0  0  0  0  0  0  0  0
    4.5981   -2.0000    0.0000 C   0  0  0  0  0  0  0  0  0  0  0  0
    6.3580   -0.0347    0.0000 C   0  0  0  0  0  0  0  0  0  0  0  0
    6.3580    2.0347    0.0000 C   0  0  0  0  0  0  0  0  0  0  0  0
    3.7320   -2.5000    0.0000 C   0  0  0  0  0  0  0  0  0  0  0  0
    7.2641    0.4792    0.0000 C   0  0  0  0  0  0  0  0  0  0  0  0
    7.2641    1.5208    0.0000 C   0  0  0  0  0  0  0  0  0  0  0  0
    5.4641   -2.5000    0.0000 C   0  0  0  0  0  0  0  0  0  0  0  0
    3.7320   -3.5000    0.0000 C   0  0  0  0  0  0  0  0  0  0  0  0
    5.4641   -3.5000    0.0000 C   0  0  0  0  0  0  0  0  0  0  0  0
    4.5981   -4.0000    0.0000 C   0  0  0  0  0  0  0  0  0  0  0  0
    2.8660   -4.0000    0.0000 C   0  0  0  0  0  0  0  0  0  0  0  0
    3.7320    2.1200    0.0000 H   0  0  0  0  0  0  0  0  0  0  0  0
    3.1215    0.6077    0.0000 H   0  0  0  0  0  0  0  0  0  0  0  0
    3.5200   -0.0826    0.0000 H   0  0  0  0  0  0  0  0  0  0  0  0
    1.3894    3.6077    0.0000 H   0  0  0  0  0  0  0  0  0  0  0  0
    1.7880    2.9174    0.0000 H   0  0  0  0  0  0  0  0  0  0  0  0
    3.9441    2.9174    0.0000 H   0  0  0  0  0  0  0  0  0  0  0  0
    4.3426    3.6077    0.0000 H   0  0  0  0  0  0  0  0  0  0  0  0
    1.7880    5.0826    0.0000 H   0  0  0  0  0  0  0  0  0  0  0  0
    1.3894    4.3923    0.0000 H   0  0  0  0  0  0  0  0  0  0  0  0
    4.3426    4.3923    0.0000 H   0  0  0  0  0  0  0  0  0  0  0  0
    3.9441    5.0826    0.0000 H   0  0  0  0  0  0  0  0  0  0  0  0
    6.3509   -0.6546    0.0000 H   0  0  0  0  0  0  0  0  0  0  0  0
    6.3509    2.6546    0.0000 H   0  0  0  0  0  0  0  0  0  0  0  0
    3.1951   -2.1900    0.0000 H   0  0  0  0  0  0  0  0  0  0  0  0
    7.7998    0.1671    0.0000 H   0  0  0  0  0  0  0  0  0  0  0  0
    7.7998    1.8329    0.0000 H   0  0  0  0  0  0  0  0  0  0  0  0
    6.0010   -2.1900    0.0000 H   0  0  0  0  0  0  0  0  0  0  0  0
    6.0010   -3.8100    0.0000 H   0  0  0  0  0  0  0  0  0  0  0  0
  1 31  1  0  0  0  0
  2  9  2  0  0  0  0
  2 10  2  0  0  0  0
  2 11  1  0  0  0  0
  2 22  1  0  0  0  0
  3 32  1  0  0  0  0
  4 32  1  0  0  0  0
  5 32  1  0  0  0  0
  6 13  1  0  0  0  0
  6 19  1  0  0  0  0
  7 20  1  0  0  0  0
  7 21  1  0  0  0  0
  8 15  2  0  0  0  0
 11 14  1  0  0  0  0
 11 16  1  0  0  0  0
 12 15  1  0  0  0  0
 12 17  1  0  0  0  0
 12 18  1  0  0  0  0
 13 14  1  0  0  0  0
 13 15  1  0  0  0  0
 13 33  1  0  0  0  0
 14 34  1  0  0  0  0
 14 35  1  0  0  0  0
 16 19  1  0  0  0  0
 16 23  2  0  0  0  0
 17 21  1  0  0  0  0
 17 38  1  0  0  0  0
 17 39  1  0  0  0  0
 18 20  1  0  0  0  0
 18 36  1  0  0  0  0
 18 37  1  0  0  0  0
 19 24  2  0  0  0  0
 20 40  1  0  0  0  0
 20 41  1  0  0  0  0
 21 42  1  0  0  0  0
 21 43  1  0  0  0  0
 22 25  2  0  0  0  0
 22 28  1  0  0  0  0
 23 26  1  0  0  0  0
 23 44  1  0  0  0  0
 24 27  1  0  0  0  0
 24 45  1  0  0  0  0
 25 29  1  0  0  0  0
 25 46  1  0  0  0  0
 26 27  2  0  0  0  0
 26 47  1  0  0  0  0
 27 48  1  0  0  0  0
 28 30  2  0  0  0  0
 28 49  1  0  0  0  0
 29 31  2  0  0  0  0
 29 32  1  0  0  0  0
 30 31  1  0  0  0  0
 30 50  1  0  0  0  0
M  END
> <PUBCHEM_COMPOUND_CID>
17396099

> <PUBCHEM_COMPOUND_CANONICALIZED>
1

> <PUBCHEM_CACTVS_COMPLEXITY>
787

> <PUBCHEM_CACTVS_HBOND_ACCEPTOR>
9

> <PUBCHEM_CACTVS_HBOND_DONOR>
0

> <PUBCHEM_CACTVS_ROTATABLE_BOND>
3

> <PUBCHEM_CACTVS_SUBSKEYS>
AAADceB7OYBEAAAAAAAAAAAAAAAAAAAAAAA8eIEAAAAAAACxQAAAHwYAQAAADB7h2DYwx4MABAKIAiVSUHLCCBAhJwAIiBlPbogOJirF85+HOCjkxhHY6AeQwAAOAAIAgAABEAAABAEAAAIgAAAAAAAAAA==

> <PUBCHEM_IUPAC_OPENEYE_NAME>
[4-[4-chloro-3-(trifluoromethyl)phenyl]sulfonyl-2,3-dihydro-1,4-benzoxazin-2-yl]-morpholino-methanone

> <PUBCHEM_IUPAC_CAS_NAME>
[4-[4-chloro-3-(trifluoromethyl)phenyl]sulfonyl-2,3-dihydro-1,4-benzoxazin-2-yl]-(4-morpholinyl)methanone

> <PUBCHEM_IUPAC_NAME>
[4-[4-chloro-3-(trifluoromethyl)phenyl]sulfonyl-2,3-dihydro-1,4-benzoxazin-2-yl]-morpholin-4-ylmethanone

> <PUBCHEM_IUPAC_SYSTEMATIC_NAME>
[4-[4-chloranyl-3-(trifluoromethyl)phenyl]sulfonyl-2,3-dihydro-1,4-benzoxazin-2-yl]-morpholin-4-yl-methanone

> <PUBCHEM_IUPAC_TRADITIONAL_NAME>
[4-[4-chloro-3-(trifluoromethyl)phenyl]sulfonyl-2,3-dihydro-1,4-benzoxazin-2-yl]-morpholino-methanone

> <PUBCHEM_IUPAC_INCHI>
InChI=1S/C20H18ClF3N2O5S/c21-15-6-5-13(11-14(15)20(22,23)24)32(28,29)26-12-18(19(27)25-7-9-30-10-8-25)31-17-4-2-1-3-16(17)26/h1-6,11,18H,7-10,12H2

> <PUBCHEM_IUPAC_INCHIKEY>
QCVSJVHAIYKEFY-UHFFFAOYSA-N

> <PUBCHEM_XLOGP3_AA>
3.1

> <PUBCHEM_EXACT_MASS>
490.057705

> <PUBCHEM_MOLECULAR_FORMULA>
C20H18ClF3N2O5S

> <PUBCHEM_MOLECULAR_WEIGHT>
490.88053

> <PUBCHEM_OPENEYE_CAN_SMILES>
C1COCCN1C(=O)C2CN(C3=CC=CC=C3O2)S(=O)(=O)C4=CC(=C(C=C4)Cl)C(F)(F)F

> <PUBCHEM_OPENEYE_ISO_SMILES>
C1COCCN1C(=O)C2CN(C3=CC=CC=C3O2)S(=O)(=O)C4=CC(=C(C=C4)Cl)C(F)(F)F

> <PUBCHEM_CACTVS_TPSA>
84.5

> <PUBCHEM_MONOISOTOPIC_WEIGHT>
490.057705

> <PUBCHEM_TOTAL_CHARGE>
0

> <PUBCHEM_HEAVY_ATOM_COUNT>
32

> <PUBCHEM_ATOM_DEF_STEREO_COUNT>
0

> <PUBCHEM_ATOM_UDEF_STEREO_COUNT>
1

> <PUBCHEM_BOND_DEF_STEREO_COUNT>
0

> <PUBCHEM_BOND_UDEF_STEREO_COUNT>
0

> <PUBCHEM_ISOTOPIC_ATOM_COUNT>
0

> <PUBCHEM_COMPONENT_COUNT>
1

> <PUBCHEM_CACTVS_TAUTO_COUNT>
1

> <PUBCHEM_COORDINATE_TYPE>
1
5
255

> <PUBCHEM_BONDANNOTATIONS>
13  15  3
16  19  8
16  23  8
19  24  8
22  25  8
22  28  8
23  26  8
24  27  8
25  29  8
26  27  8
28  30  8
29  31  8
30  31  8

$$$$

