4444
  -OEChem-06261200072D

 31 33  0     0  0  0  0  0  0999 V2000
    3.1099   -2.0353    0.0000 S   0  0  0  0  0  0  0  0  0  0  0  0
    2.2381   -1.5453    0.0000 O   0  0  0  0  0  0  0  0  0  0  0  0
    3.9816   -2.5253    0.0000 O   0  0  0  0  0  0  0  0  0  0  0  0
    6.8598   -1.9949    0.0000 O   0  0  0  0  0  0  0  0  0  0  0  0
    5.3598   -2.8609    0.0000 O   0  0  0  0  0  0  0  0  0  0  0  0
    6.2379    3.4404    0.0000 O   0  0  0  0  0  0  0  0  0  0  0  0
    8.0118    2.4162    0.0000 O   0  0  0  0  0  0  0  0  0  0  0  0
    5.8599   -1.9949    0.0000 N   0  0  0  0  0  0  0  0  0  0  0  0
    5.3437    1.9126    0.0000 N   0  0  0  0  0  0  0  0  0  0  0  0
    7.1358    0.8780    0.0000 N   0  0  0  0  0  0  0  0  0  0  0  0
    2.6199   -2.9070    0.0000 N   0  0  0  0  0  0  0  0  0  0  0  0
    4.4937   -0.6289    0.0000 C   0  0  0  0  0  0  0  0  0  0  0  0
    4.4937    0.3711    0.0000 C   0  0  0  0  0  0  0  0  0  0  0  0
    3.5998   -1.1636    0.0000 C   0  0  0  0  0  0  0  0  0  0  0  0
    5.3598   -1.1289    0.0000 C   0  0  0  0  0  0  0  0  0  0  0  0
    5.3598    0.8711    0.0000 C   0  0  0  0  0  0  0  0  0  0  0  0
    6.2258    0.3711    0.0000 C   0  0  0  0  0  0  0  0  0  0  0  0
    3.5998    0.9058    0.0000 C   0  0  0  0  0  0  0  0  0  0  0  0
    6.2258   -0.6289    0.0000 C   0  0  0  0  0  0  0  0  0  0  0  0
    2.6937   -0.6497    0.0000 C   0  0  0  0  0  0  0  0  0  0  0  0
    2.6937    0.3919    0.0000 C   0  0  0  0  0  0  0  0  0  0  0  0
    6.2418    2.4404    0.0000 C   0  0  0  0  0  0  0  0  0  0  0  0
    7.1438    1.9196    0.0000 C   0  0  0  0  0  0  0  0  0  0  0  0
    3.6070    1.5257    0.0000 H   0  0  0  0  0  0  0  0  0  0  0  0
    6.7627   -0.9389    0.0000 H   0  0  0  0  0  0  0  0  0  0  0  0
    2.1580   -0.9618    0.0000 H   0  0  0  0  0  0  0  0  0  0  0  0
    2.1580    0.7040    0.0000 H   0  0  0  0  0  0  0  0  0  0  0  0
    2.0000   -2.9143    0.0000 H   0  0  0  0  0  0  0  0  0  0  0  0
    2.9361   -3.4404    0.0000 H   0  0  0  0  0  0  0  0  0  0  0  0
    7.1698   -2.5319    0.0000 H   0  0  0  0  0  0  0  0  0  0  0  0
    5.6698   -3.3979    0.0000 H   0  0  0  0  0  0  0  0  0  0  0  0
  1  2  2  0  0  0  0
  1  3  2  0  0  0  0
  1 11  1  0  0  0  0
  1 14  1  0  0  0  0
  4  8  1  0  0  0  0
  4 30  1  0  0  0  0
  5  8  1  0  0  0  0
  5 31  1  0  0  0  0
  6 22  2  0  0  0  0
  7 23  2  0  0  0  0
  8 15  1  0  0  0  0
  9 16  2  0  0  0  0
  9 22  1  0  0  0  0
 10 17  2  0  0  0  0
 10 23  1  0  0  0  0
 11 28  1  0  0  0  0
 11 29  1  0  0  0  0
 12 13  2  0  0  0  0
 12 14  1  0  0  0  0
 12 15  1  0  0  0  0
 13 16  1  0  0  0  0
 13 18  1  0  0  0  0
 14 20  2  0  0  0  0
 15 19  2  0  0  0  0
 16 17  1  0  0  0  0
 17 19  1  0  0  0  0
 18 21  2  0  0  0  0
 18 24  1  0  0  0  0
 19 25  1  0  0  0  0
 20 21  1  0  0  0  0
 20 26  1  0  0  0  0
 21 27  1  0  0  0  0
 22 23  1  0  0  0  0
M  END
> <PUBCHEM_COMPOUND_CID>
4444

> <PUBCHEM_COMPOUND_CANONICALIZED>
1

> <PUBCHEM_CACTVS_COMPLEXITY>
776

> <PUBCHEM_CACTVS_HBOND_ACCEPTOR>
8

> <PUBCHEM_CACTVS_HBOND_DONOR>
3

> <PUBCHEM_CACTVS_ROTATABLE_BOND>
2

> <PUBCHEM_CACTVS_SUBSKEYS>
AAADccBzuABAAAAAAAAAAAAAAAAAAAAAAAAwQIAAAAAAAACBAAAAHgQUSAAADAiB2AAwAYIQQAKoAyVyVHDCABAgAgAoiBiwBJgIYKKAkRGAIABggAAIiAcQgIAOgAAAgAAUAAAAAAEAACgAAAAAAAAAAA==

> <PUBCHEM_IUPAC_OPENEYE_NAME>
6-(dihydroxyamino)-2,3-dioxo-benzo[f]quinoxaline-7-sulfonamide

> <PUBCHEM_IUPAC_CAS_NAME>
6-(dihydroxyamino)-2,3-dioxo-7-benzo[f]quinoxalinesulfonamide

> <PUBCHEM_IUPAC_NAME>
6-(dihydroxyamino)-2,3-dioxobenzo[f]quinoxaline-7-sulfonamide

> <PUBCHEM_IUPAC_SYSTEMATIC_NAME>
6-[bis(oxidanyl)amino]-2,3-bis(oxidanylidene)benzo[f]quinoxaline-7-sulfonamide

> <PUBCHEM_IUPAC_TRADITIONAL_NAME>
6-(dihydroxyamino)-2,3-diketo-benzo[f]quinoxaline-7-sulfonamide

> <PUBCHEM_IUPAC_INCHI>
InChI=1S/C12H8N4O6S/c13-23(21,22)8-3-1-2-5-9(8)7(16(19)20)4-6-10(5)15-12(18)11(17)14-6/h1-4,19-20H,(H2,13,21,22)

> <PUBCHEM_IUPAC_INCHIKEY>
JZIPBGDVDHGPSH-UHFFFAOYSA-N

> <PUBCHEM_XLOGP3_AA>
-1.2

> <PUBCHEM_EXACT_MASS>
336.016455

> <PUBCHEM_MOLECULAR_FORMULA>
C12H8N4O6S

> <PUBCHEM_MOLECULAR_WEIGHT>
336.28012

> <PUBCHEM_OPENEYE_CAN_SMILES>
C1=CC2=C(C(=C1)S(=O)(=O)N)C(=CC3=NC(=O)C(=O)N=C23)N(O)O

> <PUBCHEM_OPENEYE_ISO_SMILES>
C1=CC2=C(C(=C1)S(=O)(=O)N)C(=CC3=NC(=O)C(=O)N=C23)N(O)O

> <PUBCHEM_CACTVS_TPSA>
171

> <PUBCHEM_MONOISOTOPIC_WEIGHT>
336.016455

> <PUBCHEM_TOTAL_CHARGE>
0

> <PUBCHEM_HEAVY_ATOM_COUNT>
23

> <PUBCHEM_ATOM_DEF_STEREO_COUNT>
0

> <PUBCHEM_ATOM_UDEF_STEREO_COUNT>
0

> <PUBCHEM_BOND_DEF_STEREO_COUNT>
0

> <PUBCHEM_BOND_UDEF_STEREO_COUNT>
0

> <PUBCHEM_ISOTOPIC_ATOM_COUNT>
0

> <PUBCHEM_COMPONENT_COUNT>
1

> <PUBCHEM_CACTVS_TAUTO_COUNT>
1

> <PUBCHEM_COORDINATE_TYPE>
1
5
255

> <PUBCHEM_BONDANNOTATIONS>
12  13  8
12  14  8
12  15  8
13  16  8
13  18  8
14  20  8
15  19  8
16  17  8
17  19  8
18  21  8
20  21  8

$$$$

