6791
  -OEChem-06261201302D

 23 24  0     0  0  0  0  0  0999 V2000
    3.0000   -1.5000    0.0000 S   0  0  0  0  0  0  0  0  0  0  0  0
    3.0000    2.5000    0.0000 O   0  0  0  0  0  0  0  0  0  0  0  0
    3.0000   -2.5000    0.0000 O   0  0  0  0  0  0  0  0  0  0  0  0
    2.0000   -1.5000    0.0000 O   0  0  0  0  0  0  0  0  0  0  0  0
    4.0000   -1.5000    0.0000 O   0  0  0  0  0  0  0  0  0  0  0  0
    3.8660    0.0000    0.0000 C   0  0  0  0  0  0  0  0  0  0  0  0
    3.0000   -0.5000    0.0000 C   0  0  0  0  0  0  0  0  0  0  0  0
    3.8660    1.0000    0.0000 C   0  0  0  0  0  0  0  0  0  0  0  0
    3.0000    1.5000    0.0000 C   0  0  0  0  0  0  0  0  0  0  0  0
    2.1340    0.0000    0.0000 C   0  0  0  0  0  0  0  0  0  0  0  0
    4.7600   -0.5347    0.0000 C   0  0  0  0  0  0  0  0  0  0  0  0
    4.7600    1.5347    0.0000 C   0  0  0  0  0  0  0  0  0  0  0  0
    2.1340    1.0000    0.0000 C   0  0  0  0  0  0  0  0  0  0  0  0
    5.6660   -0.0208    0.0000 C   0  0  0  0  0  0  0  0  0  0  0  0
    5.6660    1.0208    0.0000 C   0  0  0  0  0  0  0  0  0  0  0  0
    1.5970   -0.3100    0.0000 H   0  0  0  0  0  0  0  0  0  0  0  0
    4.7528   -1.1546    0.0000 H   0  0  0  0  0  0  0  0  0  0  0  0
    4.7528    2.1546    0.0000 H   0  0  0  0  0  0  0  0  0  0  0  0
    1.5970    1.3100    0.0000 H   0  0  0  0  0  0  0  0  0  0  0  0
    6.2018   -0.3329    0.0000 H   0  0  0  0  0  0  0  0  0  0  0  0
    6.2018    1.3329    0.0000 H   0  0  0  0  0  0  0  0  0  0  0  0
    2.4631    2.8100    0.0000 H   0  0  0  0  0  0  0  0  0  0  0  0
    2.4631   -2.8100    0.0000 H   0  0  0  0  0  0  0  0  0  0  0  0
  1  3  1  0  0  0  0
  1  4  2  0  0  0  0
  1  5  2  0  0  0  0
  1  7  1  0  0  0  0
  2  9  1  0  0  0  0
  2 22  1  0  0  0  0
  3 23  1  0  0  0  0
  6  7  1  0  0  0  0
  6  8  1  0  0  0  0
  6 11  2  0  0  0  0
  7 10  2  0  0  0  0
  8  9  1  0  0  0  0
  8 12  2  0  0  0  0
  9 13  2  0  0  0  0
 10 13  1  0  0  0  0
 10 16  1  0  0  0  0
 11 14  1  0  0  0  0
 11 17  1  0  0  0  0
 12 15  1  0  0  0  0
 12 18  1  0  0  0  0
 13 19  1  0  0  0  0
 14 15  2  0  0  0  0
 14 20  1  0  0  0  0
 15 21  1  0  0  0  0
M  END
> <PUBCHEM_COMPOUND_CID>
6791

> <PUBCHEM_COMPOUND_CANONICALIZED>
1

> <PUBCHEM_CACTVS_COMPLEXITY>
319

> <PUBCHEM_CACTVS_HBOND_ACCEPTOR>
4

> <PUBCHEM_CACTVS_HBOND_DONOR>
2

> <PUBCHEM_CACTVS_ROTATABLE_BOND>
1

> <PUBCHEM_CACTVS_SUBSKEYS>
AAADccBwOABAAAAAAAAAAAAAAAAAAAAAAAAwYAAAAAAAAADBUAAAGgQACAAADASA2AAwB8AAAoKAAiBCAHBCAEAgIAAIiBgGCIgIJiKCERKAcAAkwBEImAeAwLAOgIABgAAcAAABAAMAADgAAAAAAAAAAA==

> <PUBCHEM_IUPAC_OPENEYE_NAME>
4-hydroxynaphthalene-1-sulfonic acid

> <PUBCHEM_IUPAC_CAS_NAME>
4-hydroxy-1-naphthalenesulfonic acid

> <PUBCHEM_IUPAC_NAME>
4-hydroxynaphthalene-1-sulfonic acid

> <PUBCHEM_IUPAC_SYSTEMATIC_NAME>
4-oxidanylnaphthalene-1-sulfonic acid

> <PUBCHEM_IUPAC_TRADITIONAL_NAME>
4-hydroxynaphthalene-1-sulfonic acid

> <PUBCHEM_IUPAC_INCHI>
InChI=1S/C10H8O4S/c11-9-5-6-10(15(12,13)14)8-4-2-1-3-7(8)9/h1-6,11H,(H,12,13,14)

> <PUBCHEM_IUPAC_INCHIKEY>
HGWQOFDAUWCQDA-UHFFFAOYSA-N

> <PUBCHEM_XLOGP3>
2.1

> <PUBCHEM_EXACT_MASS>
224.01433

> <PUBCHEM_MOLECULAR_FORMULA>
C10H8O4S

> <PUBCHEM_MOLECULAR_WEIGHT>
224.23312

> <PUBCHEM_OPENEYE_CAN_SMILES>
C1=CC=C2C(=C1)C(=CC=C2S(=O)(=O)O)O

> <PUBCHEM_OPENEYE_ISO_SMILES>
C1=CC=C2C(=C1)C(=CC=C2S(=O)(=O)O)O

> <PUBCHEM_CACTVS_TPSA>
83

> <PUBCHEM_MONOISOTOPIC_WEIGHT>
224.01433

> <PUBCHEM_TOTAL_CHARGE>
0

> <PUBCHEM_HEAVY_ATOM_COUNT>
15

> <PUBCHEM_ATOM_DEF_STEREO_COUNT>
0

> <PUBCHEM_ATOM_UDEF_STEREO_COUNT>
0

> <PUBCHEM_BOND_DEF_STEREO_COUNT>
0

> <PUBCHEM_BOND_UDEF_STEREO_COUNT>
0

> <PUBCHEM_ISOTOPIC_ATOM_COUNT>
0

> <PUBCHEM_COMPONENT_COUNT>
1

> <PUBCHEM_CACTVS_TAUTO_COUNT>
2

> <PUBCHEM_COORDINATE_TYPE>
1
5
255

> <PUBCHEM_BONDANNOTATIONS>
10  13  8
11  14  8
12  15  8
14  15  8
6  11  8
6  7  8
6  8  8
7  10  8
8  12  8
8  9  8
9  13  8

$$$$

