11062
  -OEChem-06261205172D

 34 36  0     0  0  0  0  0  0999 V2000
    6.3580    1.7844    0.0000 O   0  0  0  0  0  0  0  0  0  0  0  0
    6.3465   -1.2848    0.0000 O   0  0  0  0  0  0  0  0  0  0  0  0
    2.8660   -0.2503    0.0000 O   0  0  0  0  0  0  0  0  0  0  0  0
    4.5981   -1.2503    0.0000 O   0  0  0  0  0  0  0  0  0  0  0  0
    2.8660    1.7497    0.0000 O   0  0  0  0  0  0  0  0  0  0  0  0
   10.7205   -1.7844    0.0000 O   0  0  0  0  0  0  0  0  0  0  0  0
    5.4641    0.2497    0.0000 C   0  0  0  0  0  0  0  0  0  0  0  0
    7.2641    0.2289    0.0000 C   0  0  0  0  0  0  0  0  0  0  0  0
    6.3580   -0.2849    0.0000 C   0  0  0  0  0  0  0  0  0  0  0  0
    5.4641    1.2497    0.0000 C   0  0  0  0  0  0  0  0  0  0  0  0
    4.5981   -0.2503    0.0000 C   0  0  0  0  0  0  0  0  0  0  0  0
    8.1282   -0.2744    0.0000 C   0  0  0  0  0  0  0  0  0  0  0  0
    3.7321    0.2497    0.0000 C   0  0  0  0  0  0  0  0  0  0  0  0
    7.2641    1.2706    0.0000 C   0  0  0  0  0  0  0  0  0  0  0  0
    4.5981    1.7497    0.0000 C   0  0  0  0  0  0  0  0  0  0  0  0
    3.7321    1.2497    0.0000 C   0  0  0  0  0  0  0  0  0  0  0  0
    8.9961    0.2223    0.0000 C   0  0  0  0  0  0  0  0  0  0  0  0
    8.1243   -1.2744    0.0000 C   0  0  0  0  0  0  0  0  0  0  0  0
    9.8602   -0.2811    0.0000 C   0  0  0  0  0  0  0  0  0  0  0  0
    8.9884   -1.7777    0.0000 C   0  0  0  0  0  0  0  0  0  0  0  0
    9.8564   -1.2811    0.0000 C   0  0  0  0  0  0  0  0  0  0  0  0
    2.0000    0.2497    0.0000 C   0  0  0  0  0  0  0  0  0  0  0  0
    7.7998    1.5826    0.0000 H   0  0  0  0  0  0  0  0  0  0  0  0
    4.5981    2.3697    0.0000 H   0  0  0  0  0  0  0  0  0  0  0  0
    8.9985    0.8422    0.0000 H   0  0  0  0  0  0  0  0  0  0  0  0
    7.5862   -1.5823    0.0000 H   0  0  0  0  0  0  0  0  0  0  0  0
   10.3984    0.0268    0.0000 H   0  0  0  0  0  0  0  0  0  0  0  0
    8.9860   -2.3977    0.0000 H   0  0  0  0  0  0  0  0  0  0  0  0
    5.8060   -1.5886    0.0000 H   0  0  0  0  0  0  0  0  0  0  0  0
    4.0611   -1.5603    0.0000 H   0  0  0  0  0  0  0  0  0  0  0  0
    2.3100    0.7867    0.0000 H   0  0  0  0  0  0  0  0  0  0  0  0
    1.4631    0.5597    0.0000 H   0  0  0  0  0  0  0  0  0  0  0  0
    1.6900   -0.2872    0.0000 H   0  0  0  0  0  0  0  0  0  0  0  0
   11.2586   -1.4765    0.0000 H   0  0  0  0  0  0  0  0  0  0  0  0
  1 10  1  0  0  0  0
  1 14  1  0  0  0  0
  2  9  1  0  0  0  0
  2 29  1  0  0  0  0
  3 13  1  0  0  0  0
  3 22  1  0  0  0  0
  4 11  1  0  0  0  0
  4 30  1  0  0  0  0
  5 16  2  0  0  0  0
  6 21  1  0  0  0  0
  6 34  1  0  0  0  0
  7  9  2  0  0  0  0
  7 10  1  0  0  0  0
  7 11  1  0  0  0  0
  8  9  1  0  0  0  0
  8 12  1  0  0  0  0
  8 14  2  0  0  0  0
 10 15  2  0  0  0  0
 11 13  2  0  0  0  0
 12 17  2  0  0  0  0
 12 18  1  0  0  0  0
 13 16  1  0  0  0  0
 14 23  1  0  0  0  0
 15 16  1  0  0  0  0
 15 24  1  0  0  0  0
 17 19  1  0  0  0  0
 17 25  1  0  0  0  0
 18 20  2  0  0  0  0
 18 26  1  0  0  0  0
 19 21  2  0  0  0  0
 19 27  1  0  0  0  0
 20 21  1  0  0  0  0
 20 28  1  0  0  0  0
 22 31  1  0  0  0  0
 22 32  1  0  0  0  0
 22 33  1  0  0  0  0
M  END
> <PUBCHEM_COMPOUND_CID>
11062

> <PUBCHEM_COMPOUND_CANONICALIZED>
1

> <PUBCHEM_CACTVS_COMPLEXITY>
629

> <PUBCHEM_CACTVS_HBOND_ACCEPTOR>
6

> <PUBCHEM_CACTVS_HBOND_DONOR>
3

> <PUBCHEM_CACTVS_ROTATABLE_BOND>
2

> <PUBCHEM_CACTVS_SUBSKEYS>
AAADccB4OAAAAAAAAAAAAAAAAAAAAAAAAAAwQIAAAAAAAACBAAAAGgAACAAADASgmAIyBoAABgCIAqBSAAICCAAgIAAIiABGCMgIJiKCMRaAcAAlwBEIuQeAwKAOIAAAAAAAAABAAAAAAAAAAAAAAAAAAA==

> <PUBCHEM_IUPAC_OPENEYE_NAME>
4,5-dihydroxy-3-(4-hydroxyphenyl)-6-methoxy-chromen-7-one

> <PUBCHEM_IUPAC_CAS_NAME>
4,5-dihydroxy-3-(4-hydroxyphenyl)-6-methoxy-1-benzopyran-7-one

> <PUBCHEM_IUPAC_NAME>
4,5-dihydroxy-3-(4-hydroxyphenyl)-6-methoxychromen-7-one

> <PUBCHEM_IUPAC_SYSTEMATIC_NAME>
3-(4-hydroxyphenyl)-6-methoxy-4,5-bis(oxidanyl)chromen-7-one

> <PUBCHEM_IUPAC_TRADITIONAL_NAME>
4,5-dihydroxy-3-(4-hydroxyphenyl)-6-methoxy-chromen-7-one

> <PUBCHEM_IUPAC_INCHI>
InChI=1S/C16H12O6/c1-21-16-11(18)6-12-13(15(16)20)14(19)10(7-22-12)8-2-4-9(17)5-3-8/h2-7,17,19-20H,1H3

> <PUBCHEM_IUPAC_INCHIKEY>
QSTDUBPFSBCLIT-UHFFFAOYSA-N

> <PUBCHEM_XLOGP3_AA>
1.3

> <PUBCHEM_EXACT_MASS>
300.063388

> <PUBCHEM_MOLECULAR_FORMULA>
C16H12O6

> <PUBCHEM_MOLECULAR_WEIGHT>
300.26288

> <PUBCHEM_OPENEYE_CAN_SMILES>
COC1=C(C2=C(C(=COC2=CC1=O)C3=CC=C(C=C3)O)O)O

> <PUBCHEM_OPENEYE_ISO_SMILES>
COC1=C(C2=C(C(=COC2=CC1=O)C3=CC=C(C=C3)O)O)O

> <PUBCHEM_CACTVS_TPSA>
96.2

> <PUBCHEM_MONOISOTOPIC_WEIGHT>
300.063388

> <PUBCHEM_TOTAL_CHARGE>
0

> <PUBCHEM_HEAVY_ATOM_COUNT>
22

> <PUBCHEM_ATOM_DEF_STEREO_COUNT>
0

> <PUBCHEM_ATOM_UDEF_STEREO_COUNT>
0

> <PUBCHEM_BOND_DEF_STEREO_COUNT>
0

> <PUBCHEM_BOND_UDEF_STEREO_COUNT>
0

> <PUBCHEM_ISOTOPIC_ATOM_COUNT>
0

> <PUBCHEM_COMPONENT_COUNT>
1

> <PUBCHEM_CACTVS_TAUTO_COUNT>
24

> <PUBCHEM_COORDINATE_TYPE>
1
5
255

> <PUBCHEM_BONDANNOTATIONS>
1  10  8
1  14  8
10  15  8
11  13  8
12  17  8
12  18  8
13  16  8
15  16  8
17  19  8
18  20  8
19  21  8
20  21  8
7  11  8
7  9  8
8  14  8
8  9  8

$$$$

