17395592
  -OEChem-06241222512D

 49 52  0     1  0  0  0  0  0999 V2000
    2.0000   -3.3599    0.0000 Cl  0  0  0  0  0  0  0  0  0  0  0  0
    8.4851   -4.1646    0.0000 S   0  0  0  0  0  0  0  0  0  0  0  0
    7.6681    2.5317    0.0000 O   0  0  0  0  0  0  0  0  0  0  0  0
    6.0208    1.9965    0.0000 O   0  0  0  0  0  0  0  0  0  0  0  0
    6.9479   -0.8567    0.0000 N   0  0  3  0  0  0  0  0  0  0  0  0
    7.5388   -2.8599    0.0000 N   0  0  0  0  0  0  0  0  0  0  0  0
    6.5878   -4.1689    0.0000 N   0  0  0  0  0  0  0  0  0  0  0  0
    7.3080    0.8375    0.0000 C   0  0  3  0  0  0  0  0  0  0  0  0
    6.6389    0.0944    0.0000 C   0  0  0  0  0  0  0  0  0  0  0  0
    8.2862    0.6296    0.0000 C   0  0  0  0  0  0  0  0  0  0  0  0
    7.9260   -1.0646    0.0000 C   0  0  0  0  0  0  0  0  0  0  0  0
    8.5952   -0.3214    0.0000 C   0  0  0  0  0  0  0  0  0  0  0  0
    6.2788   -1.5998    0.0000 C   0  0  0  0  0  0  0  0  0  0  0  0
    6.5878   -2.5509    0.0000 C   0  0  0  0  0  0  0  0  0  0  0  0
    6.9990    1.7886    0.0000 C   0  0  0  0  0  0  0  0  0  0  0  0
    6.0000   -3.3599    0.0000 C   0  0  0  0  0  0  0  0  0  0  0  0
    7.5388   -3.8599    0.0000 C   0  0  0  0  0  0  0  0  0  0  0  0
    5.0000   -3.3599    0.0000 C   0  0  0  0  0  0  0  0  0  0  0  0
    8.4851   -2.5552    0.0000 C   0  0  0  0  0  0  0  0  0  0  0  0
    7.3591    3.4828    0.0000 C   0  0  0  0  0  0  0  0  0  0  0  0
    9.0687   -3.3599    0.0000 C   0  0  0  0  0  0  0  0  0  0  0  0
    4.5000   -2.4939    0.0000 C   0  0  0  0  0  0  0  0  0  0  0  0
    4.5000   -4.2259    0.0000 C   0  0  0  0  0  0  0  0  0  0  0  0
    8.0282    4.2259    0.0000 C   0  0  0  0  0  0  0  0  0  0  0  0
    3.5000   -2.4939    0.0000 C   0  0  0  0  0  0  0  0  0  0  0  0
    3.5000   -4.2259    0.0000 C   0  0  0  0  0  0  0  0  0  0  0  0
    3.0000   -3.3599    0.0000 C   0  0  0  0  0  0  0  0  0  0  0  0
    7.7229    1.2983    0.0000 H   0  0  0  0  0  0  0  0  0  0  0  0
    6.2572    0.5829    0.0000 H   0  0  0  0  0  0  0  0  0  0  0  0
    6.0914   -0.1967    0.0000 H   0  0  0  0  0  0  0  0  0  0  0  0
    8.9001    0.7159    0.0000 H   0  0  0  0  0  0  0  0  0  0  0  0
    8.3078    1.2492    0.0000 H   0  0  0  0  0  0  0  0  0  0  0  0
    7.6938   -1.6394    0.0000 H   0  0  0  0  0  0  0  0  0  0  0  0
    8.4518   -1.3931    0.0000 H   0  0  0  0  0  0  0  0  0  0  0  0
    8.9769   -0.8100    0.0000 H   0  0  0  0  0  0  0  0  0  0  0  0
    9.1426   -0.0304    0.0000 H   0  0  0  0  0  0  0  0  0  0  0  0
    5.8971   -1.1113    0.0000 H   0  0  0  0  0  0  0  0  0  0  0  0
    5.7313   -1.8909    0.0000 H   0  0  0  0  0  0  0  0  0  0  0  0
    8.6777   -1.9658    0.0000 H   0  0  0  0  0  0  0  0  0  0  0  0
    6.9774    3.9714    0.0000 H   0  0  0  0  0  0  0  0  0  0  0  0
    6.8117    3.1917    0.0000 H   0  0  0  0  0  0  0  0  0  0  0  0
    9.6887   -3.3599    0.0000 H   0  0  0  0  0  0  0  0  0  0  0  0
    4.8100   -1.9569    0.0000 H   0  0  0  0  0  0  0  0  0  0  0  0
    4.8100   -4.7629    0.0000 H   0  0  0  0  0  0  0  0  0  0  0  0
    8.4890    3.8111    0.0000 H   0  0  0  0  0  0  0  0  0  0  0  0
    8.4431    4.6867    0.0000 H   0  0  0  0  0  0  0  0  0  0  0  0
    7.5675    4.6408    0.0000 H   0  0  0  0  0  0  0  0  0  0  0  0
    3.1900   -1.9569    0.0000 H   0  0  0  0  0  0  0  0  0  0  0  0
    3.1900   -4.7629    0.0000 H   0  0  0  0  0  0  0  0  0  0  0  0
  1 27  1  0  0  0  0
  2 17  1  0  0  0  0
  2 21  1  0  0  0  0
  3 15  1  0  0  0  0
  3 20  1  0  0  0  0
  4 15  2  0  0  0  0
  5  9  1  0  0  0  0
  5 11  1  0  0  0  0
  5 13  1  0  0  0  0
  6 14  1  0  0  0  0
  6 17  1  0  0  0  0
  6 19  1  0  0  0  0
  7 16  1  0  0  0  0
  7 17  2  0  0  0  0
  8  9  1  0  0  0  0
  8 10  1  0  0  0  0
  8 15  1  0  0  0  0
  8 28  1  0  0  0  0
  9 29  1  0  0  0  0
  9 30  1  0  0  0  0
 10 12  1  0  0  0  0
 10 31  1  0  0  0  0
 10 32  1  0  0  0  0
 11 12  1  0  0  0  0
 11 33  1  0  0  0  0
 11 34  1  0  0  0  0
 12 35  1  0  0  0  0
 12 36  1  0  0  0  0
 13 14  1  0  0  0  0
 13 37  1  0  0  0  0
 13 38  1  0  0  0  0
 14 16  2  0  0  0  0
 16 18  1  0  0  0  0
 18 22  2  0  0  0  0
 18 23  1  0  0  0  0
 19 21  2  0  0  0  0
 19 39  1  0  0  0  0
 20 24  1  0  0  0  0
 20 40  1  0  0  0  0
 20 41  1  0  0  0  0
 21 42  1  0  0  0  0
 22 25  1  0  0  0  0
 22 43  1  0  0  0  0
 23 26  2  0  0  0  0
 23 44  1  0  0  0  0
 24 45  1  0  0  0  0
 24 46  1  0  0  0  0
 24 47  1  0  0  0  0
 25 27  2  0  0  0  0
 25 48  1  0  0  0  0
 26 27  1  0  0  0  0
 26 49  1  0  0  0  0
M  END
> <PUBCHEM_COMPOUND_CID>
17395592

> <PUBCHEM_COMPOUND_CANONICALIZED>
1

> <PUBCHEM_CACTVS_COMPLEXITY>
518

> <PUBCHEM_CACTVS_HBOND_ACCEPTOR>
5

> <PUBCHEM_CACTVS_HBOND_DONOR>
0

> <PUBCHEM_CACTVS_ROTATABLE_BOND>
6

> <PUBCHEM_CACTVS_SUBSKEYS>
AAADceB7MABEAAAAAAAAAAAAAAAAAWLAAAA8QAAAAAAWAAAB8AAAHgYAAAAADQrl3ia/mZcMHAisAzT3bACC8K1xH7hJ2C04dpiIaPrB2xGWIAhugALIyCeYkYIOBAAAAAAAAAAIAAAAAAAAAAAAAAAAAA==

> <PUBCHEM_IUPAC_OPENEYE_NAME>
ethyl 1-[[6-(4-chlorophenyl)imidazo[2,1-b]thiazol-5-yl]methyl]piperidine-3-carboxylate

> <PUBCHEM_IUPAC_CAS_NAME>
1-[[6-(4-chlorophenyl)-5-imidazo[2,1-b]thiazolyl]methyl]-3-piperidinecarboxylic acid ethyl ester

> <PUBCHEM_IUPAC_NAME>
ethyl 1-[[6-(4-chlorophenyl)imidazo[2,1-b][1,3]thiazol-5-yl]methyl]piperidine-3-carboxylate

> <PUBCHEM_IUPAC_SYSTEMATIC_NAME>
ethyl 1-[[6-(4-chlorophenyl)imidazo[2,1-b][1,3]thiazol-5-yl]methyl]piperidine-3-carboxylate

> <PUBCHEM_IUPAC_TRADITIONAL_NAME>
1-[[6-(4-chlorophenyl)imidazo[2,1-b]thiazol-5-yl]methyl]nipecotic acid ethyl ester

> <PUBCHEM_IUPAC_INCHI>
InChI=1S/C20H22ClN3O2S/c1-2-26-19(25)15-4-3-9-23(12-15)13-17-18(14-5-7-16(21)8-6-14)22-20-24(17)10-11-27-20/h5-8,10-11,15H,2-4,9,12-13H2,1H3

> <PUBCHEM_IUPAC_INCHIKEY>
BUIFRLFLWHYRGC-UHFFFAOYSA-N

> <PUBCHEM_XLOGP3_AA>
4.7

> <PUBCHEM_EXACT_MASS>
403.112126

> <PUBCHEM_MOLECULAR_FORMULA>
C20H22ClN3O2S

> <PUBCHEM_MOLECULAR_WEIGHT>
403.92558

> <PUBCHEM_OPENEYE_CAN_SMILES>
CCOC(=O)C1CCCN(C1)CC2=C(N=C3N2C=CS3)C4=CC=C(C=C4)Cl

> <PUBCHEM_OPENEYE_ISO_SMILES>
CCOC(=O)C1CCCN(C1)CC2=C(N=C3N2C=CS3)C4=CC=C(C=C4)Cl

> <PUBCHEM_CACTVS_TPSA>
75.1

> <PUBCHEM_MONOISOTOPIC_WEIGHT>
403.112126

> <PUBCHEM_TOTAL_CHARGE>
0

> <PUBCHEM_HEAVY_ATOM_COUNT>
27

> <PUBCHEM_ATOM_DEF_STEREO_COUNT>
0

> <PUBCHEM_ATOM_UDEF_STEREO_COUNT>
1

> <PUBCHEM_BOND_DEF_STEREO_COUNT>
0

> <PUBCHEM_BOND_UDEF_STEREO_COUNT>
0

> <PUBCHEM_ISOTOPIC_ATOM_COUNT>
0

> <PUBCHEM_COMPONENT_COUNT>
1

> <PUBCHEM_CACTVS_TAUTO_COUNT>
1

> <PUBCHEM_COORDINATE_TYPE>
1
5
255

> <PUBCHEM_BONDANNOTATIONS>
14  16  8
18  22  8
18  23  8
19  21  8
2  17  8
2  21  8
22  25  8
23  26  8
25  27  8
26  27  8
6  14  8
6  17  8
6  19  8
7  16  8
7  17  8
8  15  3

$$$$

