14049
  -OEChem-06241222412D

 94 93  0     0  0  0  0  0  0999 V2000
   10.6603    3.5000    0.0000 N   0  0  0  0  0  0  0  0  0  0  0  0
   11.5263    4.0000    0.0000 C   0  0  0  0  0  0  0  0  0  0  0  0
    9.7942    4.0000    0.0000 C   0  0  0  0  0  0  0  0  0  0  0  0
   10.6603    2.5000    0.0000 C   0  0  0  0  0  0  0  0  0  0  0  0
   12.3923    3.5000    0.0000 C   0  0  0  0  0  0  0  0  0  0  0  0
    8.9282    3.5000    0.0000 C   0  0  0  0  0  0  0  0  0  0  0  0
    9.7942    2.0000    0.0000 C   0  0  0  0  0  0  0  0  0  0  0  0
   13.2583    4.0000    0.0000 C   0  0  0  0  0  0  0  0  0  0  0  0
    8.0622    4.0000    0.0000 C   0  0  0  0  0  0  0  0  0  0  0  0
    9.7942    1.0000    0.0000 C   0  0  0  0  0  0  0  0  0  0  0  0
   14.1244    3.5000    0.0000 C   0  0  0  0  0  0  0  0  0  0  0  0
    7.1962    3.5000    0.0000 C   0  0  0  0  0  0  0  0  0  0  0  0
    8.9282    0.5000    0.0000 C   0  0  0  0  0  0  0  0  0  0  0  0
   14.9904    4.0000    0.0000 C   0  0  0  0  0  0  0  0  0  0  0  0
    6.3301    4.0000    0.0000 C   0  0  0  0  0  0  0  0  0  0  0  0
    8.9282   -0.5000    0.0000 C   0  0  0  0  0  0  0  0  0  0  0  0
   15.8564    3.5000    0.0000 C   0  0  0  0  0  0  0  0  0  0  0  0
    5.4641    3.5000    0.0000 C   0  0  0  0  0  0  0  0  0  0  0  0
    8.0622   -1.0000    0.0000 C   0  0  0  0  0  0  0  0  0  0  0  0
   16.7224    4.0000    0.0000 C   0  0  0  0  0  0  0  0  0  0  0  0
    4.5981    4.0000    0.0000 C   0  0  0  0  0  0  0  0  0  0  0  0
    8.0622   -2.0000    0.0000 C   0  0  0  0  0  0  0  0  0  0  0  0
   17.5885    3.5000    0.0000 C   0  0  0  0  0  0  0  0  0  0  0  0
    3.7320    3.5000    0.0000 C   0  0  0  0  0  0  0  0  0  0  0  0
    7.1962   -2.5000    0.0000 C   0  0  0  0  0  0  0  0  0  0  0  0
   18.4545    4.0000    0.0000 C   0  0  0  0  0  0  0  0  0  0  0  0
    2.8660    4.0000    0.0000 C   0  0  0  0  0  0  0  0  0  0  0  0
    7.1962   -3.5000    0.0000 C   0  0  0  0  0  0  0  0  0  0  0  0
   19.3205    3.5000    0.0000 C   0  0  0  0  0  0  0  0  0  0  0  0
    2.0000    3.5000    0.0000 C   0  0  0  0  0  0  0  0  0  0  0  0
    6.3301   -4.0000    0.0000 C   0  0  0  0  0  0  0  0  0  0  0  0
   10.8723    1.9174    0.0000 H   0  0  0  0  0  0  0  0  0  0  0  0
   11.2708    2.6077    0.0000 H   0  0  0  0  0  0  0  0  0  0  0  0
   10.1928    4.4750    0.0000 H   0  0  0  0  0  0  0  0  0  0  0  0
    9.3957    4.4750    0.0000 H   0  0  0  0  0  0  0  0  0  0  0  0
   11.9248    4.4750    0.0000 H   0  0  0  0  0  0  0  0  0  0  0  0
   11.1278    4.4750    0.0000 H   0  0  0  0  0  0  0  0  0  0  0  0
   11.9938    3.0250    0.0000 H   0  0  0  0  0  0  0  0  0  0  0  0
   12.7908    3.0250    0.0000 H   0  0  0  0  0  0  0  0  0  0  0  0
    8.5297    3.0250    0.0000 H   0  0  0  0  0  0  0  0  0  0  0  0
    9.3267    3.0250    0.0000 H   0  0  0  0  0  0  0  0  0  0  0  0
    9.5822    2.5826    0.0000 H   0  0  0  0  0  0  0  0  0  0  0  0
    9.1836    1.8923    0.0000 H   0  0  0  0  0  0  0  0  0  0  0  0
   10.0063    0.4174    0.0000 H   0  0  0  0  0  0  0  0  0  0  0  0
   10.4048    1.1077    0.0000 H   0  0  0  0  0  0  0  0  0  0  0  0
    8.4607    4.4750    0.0000 H   0  0  0  0  0  0  0  0  0  0  0  0
    7.6636    4.4750    0.0000 H   0  0  0  0  0  0  0  0  0  0  0  0
   13.6569    4.4750    0.0000 H   0  0  0  0  0  0  0  0  0  0  0  0
   12.8598    4.4750    0.0000 H   0  0  0  0  0  0  0  0  0  0  0  0
    8.7162    1.0826    0.0000 H   0  0  0  0  0  0  0  0  0  0  0  0
    8.3176    0.3923    0.0000 H   0  0  0  0  0  0  0  0  0  0  0  0
    6.7976    3.0250    0.0000 H   0  0  0  0  0  0  0  0  0  0  0  0
    7.5947    3.0250    0.0000 H   0  0  0  0  0  0  0  0  0  0  0  0
   13.7258    3.0250    0.0000 H   0  0  0  0  0  0  0  0  0  0  0  0
   14.5229    3.0250    0.0000 H   0  0  0  0  0  0  0  0  0  0  0  0
    9.1403   -1.0826    0.0000 H   0  0  0  0  0  0  0  0  0  0  0  0
    9.5388   -0.3923    0.0000 H   0  0  0  0  0  0  0  0  0  0  0  0
    6.7287    4.4750    0.0000 H   0  0  0  0  0  0  0  0  0  0  0  0
    5.9316    4.4750    0.0000 H   0  0  0  0  0  0  0  0  0  0  0  0
   15.3889    4.4750    0.0000 H   0  0  0  0  0  0  0  0  0  0  0  0
   14.5919    4.4750    0.0000 H   0  0  0  0  0  0  0  0  0  0  0  0
   15.4579    3.0250    0.0000 H   0  0  0  0  0  0  0  0  0  0  0  0
   16.2549    3.0250    0.0000 H   0  0  0  0  0  0  0  0  0  0  0  0
    5.0656    3.0250    0.0000 H   0  0  0  0  0  0  0  0  0  0  0  0
    5.8626    3.0250    0.0000 H   0  0  0  0  0  0  0  0  0  0  0  0
    7.8501   -0.4174    0.0000 H   0  0  0  0  0  0  0  0  0  0  0  0
    7.4516   -1.1077    0.0000 H   0  0  0  0  0  0  0  0  0  0  0  0
    8.2742   -2.5826    0.0000 H   0  0  0  0  0  0  0  0  0  0  0  0
    8.6728   -1.8923    0.0000 H   0  0  0  0  0  0  0  0  0  0  0  0
    4.9966    4.4750    0.0000 H   0  0  0  0  0  0  0  0  0  0  0  0
    4.1996    4.4750    0.0000 H   0  0  0  0  0  0  0  0  0  0  0  0
   17.1210    4.4750    0.0000 H   0  0  0  0  0  0  0  0  0  0  0  0
   16.3239    4.4750    0.0000 H   0  0  0  0  0  0  0  0  0  0  0  0
    6.9841   -1.9174    0.0000 H   0  0  0  0  0  0  0  0  0  0  0  0
    6.5856   -2.6077    0.0000 H   0  0  0  0  0  0  0  0  0  0  0  0
    3.3335    3.0250    0.0000 H   0  0  0  0  0  0  0  0  0  0  0  0
    4.1306    3.0250    0.0000 H   0  0  0  0  0  0  0  0  0  0  0  0
   17.1899    3.0250    0.0000 H   0  0  0  0  0  0  0  0  0  0  0  0
   17.9870    3.0250    0.0000 H   0  0  0  0  0  0  0  0  0  0  0  0
    7.4082   -4.0826    0.0000 H   0  0  0  0  0  0  0  0  0  0  0  0
    7.8067   -3.3923    0.0000 H   0  0  0  0  0  0  0  0  0  0  0  0
    3.2646    4.4750    0.0000 H   0  0  0  0  0  0  0  0  0  0  0  0
    2.4675    4.4750    0.0000 H   0  0  0  0  0  0  0  0  0  0  0  0
   18.8530    4.4750    0.0000 H   0  0  0  0  0  0  0  0  0  0  0  0
   18.0560    4.4750    0.0000 H   0  0  0  0  0  0  0  0  0  0  0  0
   19.0105    2.9631    0.0000 H   0  0  0  0  0  0  0  0  0  0  0  0
   19.8574    3.1900    0.0000 H   0  0  0  0  0  0  0  0  0  0  0  0
   19.6305    4.0369    0.0000 H   0  0  0  0  0  0  0  0  0  0  0  0
    1.6900    4.0369    0.0000 H   0  0  0  0  0  0  0  0  0  0  0  0
    1.4631    3.1900    0.0000 H   0  0  0  0  0  0  0  0  0  0  0  0
    2.3100    2.9631    0.0000 H   0  0  0  0  0  0  0  0  0  0  0  0
    6.0201   -3.4631    0.0000 H   0  0  0  0  0  0  0  0  0  0  0  0
    5.7932   -4.3100    0.0000 H   0  0  0  0  0  0  0  0  0  0  0  0
    6.6401   -4.5369    0.0000 H   0  0  0  0  0  0  0  0  0  0  0  0
  1  2  1  0  0  0  0
  1  3  1  0  0  0  0
  1  4  1  0  0  0  0
  2  5  1  0  0  0  0
  2 36  1  0  0  0  0
  2 37  1  0  0  0  0
  3  6  1  0  0  0  0
  3 34  1  0  0  0  0
  3 35  1  0  0  0  0
  4  7  1  0  0  0  0
  4 32  1  0  0  0  0
  4 33  1  0  0  0  0
  5  8  1  0  0  0  0
  5 38  1  0  0  0  0
  5 39  1  0  0  0  0
  6  9  1  0  0  0  0
  6 40  1  0  0  0  0
  6 41  1  0  0  0  0
  7 10  1  0  0  0  0
  7 42  1  0  0  0  0
  7 43  1  0  0  0  0
  8 11  1  0  0  0  0
  8 48  1  0  0  0  0
  8 49  1  0  0  0  0
  9 12  1  0  0  0  0
  9 46  1  0  0  0  0
  9 47  1  0  0  0  0
 10 13  1  0  0  0  0
 10 44  1  0  0  0  0
 10 45  1  0  0  0  0
 11 14  1  0  0  0  0
 11 54  1  0  0  0  0
 11 55  1  0  0  0  0
 12 15  1  0  0  0  0
 12 52  1  0  0  0  0
 12 53  1  0  0  0  0
 13 16  1  0  0  0  0
 13 50  1  0  0  0  0
 13 51  1  0  0  0  0
 14 17  1  0  0  0  0
 14 60  1  0  0  0  0
 14 61  1  0  0  0  0
 15 18  1  0  0  0  0
 15 58  1  0  0  0  0
 15 59  1  0  0  0  0
 16 19  1  0  0  0  0
 16 56  1  0  0  0  0
 16 57  1  0  0  0  0
 17 20  1  0  0  0  0
 17 62  1  0  0  0  0
 17 63  1  0  0  0  0
 18 21  1  0  0  0  0
 18 64  1  0  0  0  0
 18 65  1  0  0  0  0
 19 22  1  0  0  0  0
 19 66  1  0  0  0  0
 19 67  1  0  0  0  0
 20 23  1  0  0  0  0
 20 72  1  0  0  0  0
 20 73  1  0  0  0  0
 21 24  1  0  0  0  0
 21 70  1  0  0  0  0
 21 71  1  0  0  0  0
 22 25  1  0  0  0  0
 22 68  1  0  0  0  0
 22 69  1  0  0  0  0
 23 26  1  0  0  0  0
 23 78  1  0  0  0  0
 23 79  1  0  0  0  0
 24 27  1  0  0  0  0
 24 76  1  0  0  0  0
 24 77  1  0  0  0  0
 25 28  1  0  0  0  0
 25 74  1  0  0  0  0
 25 75  1  0  0  0  0
 26 29  1  0  0  0  0
 26 84  1  0  0  0  0
 26 85  1  0  0  0  0
 27 30  1  0  0  0  0
 27 82  1  0  0  0  0
 27 83  1  0  0  0  0
 28 31  1  0  0  0  0
 28 80  1  0  0  0  0
 28 81  1  0  0  0  0
 29 86  1  0  0  0  0
 29 87  1  0  0  0  0
 29 88  1  0  0  0  0
 30 89  1  0  0  0  0
 30 90  1  0  0  0  0
 30 91  1  0  0  0  0
 31 92  1  0  0  0  0
 31 93  1  0  0  0  0
 31 94  1  0  0  0  0
M  END
> <PUBCHEM_COMPOUND_CID>
14049

> <PUBCHEM_COMPOUND_CANONICALIZED>
1

> <PUBCHEM_CACTVS_COMPLEXITY>
253

> <PUBCHEM_CACTVS_HBOND_ACCEPTOR>
1

> <PUBCHEM_CACTVS_HBOND_DONOR>
0

> <PUBCHEM_CACTVS_ROTATABLE_BOND>
27

> <PUBCHEM_CACTVS_SUBSKEYS>
AAADcfB6AAAAAAAAAAAAAAAAAAAAAAAAAAAAAAAAAAAAAAAAAAAAHAAAAAAACADBAAQCAAMAAAAAAAAAAAAAAAAAAAAAAAAIAAAAAAIAgAAEAAAAAACAAAEQgIAAAAAAAAAAAAAAAAAAAAAAAAAAAAAAAA==

> <PUBCHEM_IUPAC_OPENEYE_NAME>
N,N-didecyldecan-1-amine

> <PUBCHEM_IUPAC_CAS_NAME>
N,N-didecyl-1-decanamine

> <PUBCHEM_IUPAC_NAME>
N,N-didecyldecan-1-amine

> <PUBCHEM_IUPAC_SYSTEMATIC_NAME>
N,N-didecyldecan-1-amine

> <PUBCHEM_IUPAC_TRADITIONAL_NAME>
tris-decylamine

> <PUBCHEM_IUPAC_INCHI>
InChI=1S/C30H63N/c1-4-7-10-13-16-19-22-25-28-31(29-26-23-20-17-14-11-8-5-2)30-27-24-21-18-15-12-9-6-3/h4-30H2,1-3H3

> <PUBCHEM_IUPAC_INCHIKEY>
COFKFSSWMQHKMD-UHFFFAOYSA-N

> <PUBCHEM_XLOGP3_AA>
13.8

> <PUBCHEM_EXACT_MASS>
437.496051

> <PUBCHEM_MOLECULAR_FORMULA>
C30H63N

> <PUBCHEM_MOLECULAR_WEIGHT>
437.82792

> <PUBCHEM_OPENEYE_CAN_SMILES>
CCCCCCCCCCN(CCCCCCCCCC)CCCCCCCCCC

> <PUBCHEM_OPENEYE_ISO_SMILES>
CCCCCCCCCCN(CCCCCCCCCC)CCCCCCCCCC

> <PUBCHEM_CACTVS_TPSA>
3.2

> <PUBCHEM_MONOISOTOPIC_WEIGHT>
437.496051

> <PUBCHEM_TOTAL_CHARGE>
0

> <PUBCHEM_HEAVY_ATOM_COUNT>
31

> <PUBCHEM_ATOM_DEF_STEREO_COUNT>
0

> <PUBCHEM_ATOM_UDEF_STEREO_COUNT>
0

> <PUBCHEM_BOND_DEF_STEREO_COUNT>
0

> <PUBCHEM_BOND_UDEF_STEREO_COUNT>
0

> <PUBCHEM_ISOTOPIC_ATOM_COUNT>
0

> <PUBCHEM_COMPONENT_COUNT>
1

> <PUBCHEM_CACTVS_TAUTO_COUNT>
1

> <PUBCHEM_COORDINATE_TYPE>
1
5
255

$$$$

