586286
  -OEChem-06241222462D

 33 34  0     0  0  0  0  0  0999 V2000
    8.9757   -2.4920    0.0000 S   0  0  0  0  0  0  0  0  0  0  0  0
    4.5981    4.1012    0.0000 F   0  0  0  0  0  0  0  0  0  0  0  0
    5.5981    3.1012    0.0000 F   0  0  0  0  0  0  0  0  0  0  0  0
    3.5981    3.1012    0.0000 F   0  0  0  0  0  0  0  0  0  0  0  0
    2.0000   -0.3988    0.0000 F   0  0  0  0  0  0  0  0  0  0  0  0
    3.3660   -0.7648    0.0000 F   0  0  0  0  0  0  0  0  0  0  0  0
    2.3660    0.9672    0.0000 F   0  0  0  0  0  0  0  0  0  0  0  0
    5.4641   -1.3988    0.0000 O   0  0  0  0  0  0  0  0  0  0  0  0
    6.3301    0.1012    0.0000 N   0  0  0  0  0  0  0  0  0  0  0  0
    4.5981    2.1012    0.0000 C   0  0  0  0  0  0  0  0  0  0  0  0
    3.7320    0.6012    0.0000 C   0  0  0  0  0  0  0  0  0  0  0  0
    5.4641    0.6012    0.0000 C   0  0  0  0  0  0  0  0  0  0  0  0
    3.7320    1.6012    0.0000 C   0  0  0  0  0  0  0  0  0  0  0  0
    5.4641    1.6012    0.0000 C   0  0  0  0  0  0  0  0  0  0  0  0
    4.5981    0.1012    0.0000 C   0  0  0  0  0  0  0  0  0  0  0  0
    4.5981    3.1012    0.0000 C   0  0  0  0  0  0  0  0  0  0  0  0
    2.8660    0.1012    0.0000 C   0  0  0  0  0  0  0  0  0  0  0  0
    6.3301   -0.8988    0.0000 C   0  0  0  0  0  0  0  0  0  0  0  0
    7.1962   -1.3988    0.0000 C   0  0  0  0  0  0  0  0  0  0  0  0
    8.0622   -2.8988    0.0000 C   0  0  0  0  0  0  0  0  0  0  0  0
    7.1962   -2.3988    0.0000 C   0  0  0  0  0  0  0  0  0  0  0  0
    8.1667   -3.8933    0.0000 C   0  0  0  0  0  0  0  0  0  0  0  0
    9.1448   -4.1012    0.0000 C   0  0  0  0  0  0  0  0  0  0  0  0
    9.6448   -3.2352    0.0000 C   0  0  0  0  0  0  0  0  0  0  0  0
    3.1951    1.9112    0.0000 H   0  0  0  0  0  0  0  0  0  0  0  0
    6.0010    1.9112    0.0000 H   0  0  0  0  0  0  0  0  0  0  0  0
    4.5981   -0.5188    0.0000 H   0  0  0  0  0  0  0  0  0  0  0  0
    6.8671    0.4112    0.0000 H   0  0  0  0  0  0  0  0  0  0  0  0
    7.7331   -1.0888    0.0000 H   0  0  0  0  0  0  0  0  0  0  0  0
    6.6592   -2.7088    0.0000 H   0  0  0  0  0  0  0  0  0  0  0  0
    7.7060   -4.3082    0.0000 H   0  0  0  0  0  0  0  0  0  0  0  0
    9.3970   -4.6676    0.0000 H   0  0  0  0  0  0  0  0  0  0  0  0
   10.2615   -3.1704    0.0000 H   0  0  0  0  0  0  0  0  0  0  0  0
  1 20  1  0  0  0  0
  1 24  1  0  0  0  0
  2 16  1  0  0  0  0
  3 16  1  0  0  0  0
  4 16  1  0  0  0  0
  5 17  1  0  0  0  0
  6 17  1  0  0  0  0
  7 17  1  0  0  0  0
  8 18  2  0  0  0  0
  9 12  1  0  0  0  0
  9 18  1  0  0  0  0
  9 28  1  0  0  0  0
 10 13  2  0  0  0  0
 10 14  1  0  0  0  0
 10 16  1  0  0  0  0
 11 13  1  0  0  0  0
 11 15  2  0  0  0  0
 11 17  1  0  0  0  0
 12 14  2  0  0  0  0
 12 15  1  0  0  0  0
 13 25  1  0  0  0  0
 14 26  1  0  0  0  0
 15 27  1  0  0  0  0
 18 19  1  0  0  0  0
 19 21  2  3  0  0  0
 19 29  1  0  0  0  0
 20 21  1  0  0  0  0
 20 22  2  0  0  0  0
 21 30  1  0  0  0  0
 22 23  1  0  0  0  0
 22 31  1  0  0  0  0
 23 24  2  0  0  0  0
 23 32  1  0  0  0  0
 24 33  1  0  0  0  0
M  END
> <PUBCHEM_COMPOUND_CID>
586286

> <PUBCHEM_COMPOUND_CANONICALIZED>
1

> <PUBCHEM_CACTVS_COMPLEXITY>
454

> <PUBCHEM_CACTVS_HBOND_ACCEPTOR>
8

> <PUBCHEM_CACTVS_HBOND_DONOR>
1

> <PUBCHEM_CACTVS_ROTATABLE_BOND>
3

> <PUBCHEM_CACTVS_SUBSKEYS>
AAADccByIcBAAAAAAAAAAAAAAAAAASAAAAAwAAAAAAAAAAABwAAAHwQQAAAADAiF2BCwwYLAAAiMAiVSUACDAIAhChBIiBgAZMgIICLgkZGEIAhglADoyYcQgEAOAAACQAAAAAAAAASAAAAAAAAAAAAAAA==

> <PUBCHEM_IUPAC_OPENEYE_NAME>
N-[3,5-bis(trifluoromethyl)phenyl]-3-(2-thienyl)prop-2-enamide

> <PUBCHEM_IUPAC_CAS_NAME>
N-[3,5-bis(trifluoromethyl)phenyl]-3-thiophen-2-yl-2-propenamide

> <PUBCHEM_IUPAC_NAME>
N-[3,5-bis(trifluoromethyl)phenyl]-3-thiophen-2-ylprop-2-enamide

> <PUBCHEM_IUPAC_SYSTEMATIC_NAME>
N-[3,5-bis(trifluoromethyl)phenyl]-3-thiophen-2-yl-prop-2-enamide

> <PUBCHEM_IUPAC_TRADITIONAL_NAME>
N-[3,5-bis(trifluoromethyl)phenyl]-3-(2-thienyl)acrylamide

> <PUBCHEM_IUPAC_INCHI>
InChI=1S/C15H9F6NOS/c16-14(17,18)9-6-10(15(19,20)21)8-11(7-9)22-13(23)4-3-12-2-1-5-24-12/h1-8H,(H,22,23)

> <PUBCHEM_IUPAC_INCHIKEY>
WIPCKHZAWRSZTN-UHFFFAOYSA-N

> <PUBCHEM_XLOGP3_AA>
4.7

> <PUBCHEM_EXACT_MASS>
365.030904

> <PUBCHEM_MOLECULAR_FORMULA>
C15H9F6NOS

> <PUBCHEM_MOLECULAR_WEIGHT>
365.293479

> <PUBCHEM_OPENEYE_CAN_SMILES>
C1=CSC(=C1)C=CC(=O)NC2=CC(=CC(=C2)C(F)(F)F)C(F)(F)F

> <PUBCHEM_OPENEYE_ISO_SMILES>
C1=CSC(=C1)C=CC(=O)NC2=CC(=CC(=C2)C(F)(F)F)C(F)(F)F

> <PUBCHEM_CACTVS_TPSA>
57.3

> <PUBCHEM_MONOISOTOPIC_WEIGHT>
365.030904

> <PUBCHEM_TOTAL_CHARGE>
0

> <PUBCHEM_HEAVY_ATOM_COUNT>
24

> <PUBCHEM_ATOM_DEF_STEREO_COUNT>
0

> <PUBCHEM_ATOM_UDEF_STEREO_COUNT>
0

> <PUBCHEM_BOND_DEF_STEREO_COUNT>
0

> <PUBCHEM_BOND_UDEF_STEREO_COUNT>
1

> <PUBCHEM_ISOTOPIC_ATOM_COUNT>
0

> <PUBCHEM_COMPONENT_COUNT>
1

> <PUBCHEM_CACTVS_TAUTO_COUNT>
2

> <PUBCHEM_COORDINATE_TYPE>
1
5
255

> <PUBCHEM_BONDANNOTATIONS>
1  20  8
1  24  8
10  13  8
10  14  8
11  13  8
11  15  8
12  14  8
12  15  8
19  21  1
20  22  8
22  23  8
23  24  8

$$$$

