582770
  -OEChem-06241222442D

 36 39  0     1  0  0  0  0  0999 V2000
    2.9847    0.1863    0.0000 C   0  0  3  0  0  0  0  0  0  0  0  0
    3.8507   -0.3137    0.0000 C   0  0  3  0  0  0  0  0  0  0  0  0
    2.1187   -0.3137    0.0000 C   0  0  0  0  0  0  0  0  0  0  0  0
    4.7607    0.1931    0.0000 C   0  0  0  0  0  0  0  0  0  0  0  0
    3.8507   -1.3137    0.0000 C   0  0  0  0  0  0  0  0  0  0  0  0
    2.9686    1.2278    0.0000 C   0  0  0  0  0  0  0  0  0  0  0  0
    2.1187   -1.3137    0.0000 C   0  0  0  0  0  0  0  0  0  0  0  0
    4.7688    1.2347    0.0000 C   0  0  0  0  0  0  0  0  0  0  0  0
    2.9847   -1.8137    0.0000 C   0  0  0  0  0  0  0  0  0  0  0  0
    3.8667    1.7555    0.0000 C   0  0  0  0  0  0  0  0  0  0  0  0
    4.7607   -1.8206    0.0000 C   0  0  0  0  0  0  0  0  0  0  0  0
    2.0167    1.7484    0.0000 C   0  0  0  0  0  0  0  0  0  0  0  0
    2.9686   -2.8552    0.0000 C   0  0  0  0  0  0  0  0  0  0  0  0
    3.8751    2.8405    0.0000 C   0  0  0  0  0  0  0  0  0  0  0  0
    4.7688   -2.8622    0.0000 C   0  0  0  0  0  0  0  0  0  0  0  0
    2.0000    2.8333    0.0000 C   0  0  0  0  0  0  0  0  0  0  0  0
    2.9354    3.3830    0.0000 C   0  0  0  0  0  0  0  0  0  0  0  0
    3.8667   -3.3830    0.0000 C   0  0  0  0  0  0  0  0  0  0  0  0
    2.4454    0.4921    0.0000 H   0  0  0  0  0  0  0  0  0  0  0  0
    4.3853   -0.6279    0.0000 H   0  0  0  0  0  0  0  0  0  0  0  0
    1.9066    0.2689    0.0000 H   0  0  0  0  0  0  0  0  0  0  0  0
    1.5081   -0.4214    0.0000 H   0  0  0  0  0  0  0  0  0  0  0  0
    4.9653   -0.3922    0.0000 H   0  0  0  0  0  0  0  0  0  0  0  0
    5.3724    0.2945    0.0000 H   0  0  0  0  0  0  0  0  0  0  0  0
    1.5081   -1.2061    0.0000 H   0  0  0  0  0  0  0  0  0  0  0  0
    1.9066   -1.8963    0.0000 H   0  0  0  0  0  0  0  0  0  0  0  0
    5.3788    1.1239    0.0000 H   0  0  0  0  0  0  0  0  0  0  0  0
    4.9823    1.8168    0.0000 H   0  0  0  0  0  0  0  0  0  0  0  0
    5.2941   -1.5044    0.0000 H   0  0  0  0  0  0  0  0  0  0  0  0
    1.4859    1.4281    0.0000 H   0  0  0  0  0  0  0  0  0  0  0  0
    2.4282   -3.1590    0.0000 H   0  0  0  0  0  0  0  0  0  0  0  0
    4.4132    3.1484    0.0000 H   0  0  0  0  0  0  0  0  0  0  0  0
    5.3069   -3.1701    0.0000 H   0  0  0  0  0  0  0  0  0  0  0  0
    1.4595    3.1370    0.0000 H   0  0  0  0  0  0  0  0  0  0  0  0
    2.9330    4.0030    0.0000 H   0  0  0  0  0  0  0  0  0  0  0  0
    3.8643   -4.0030    0.0000 H   0  0  0  0  0  0  0  0  0  0  0  0
  1  2  1  0  0  0  0
  1  3  1  0  0  0  0
  1  6  1  0  0  0  0
  1 19  1  0  0  0  0
  2  4  1  0  0  0  0
  2  5  1  0  0  0  0
  2 20  1  0  0  0  0
  3  7  1  0  0  0  0
  3 21  1  0  0  0  0
  3 22  1  0  0  0  0
  4  8  1  0  0  0  0
  4 23  1  0  0  0  0
  4 24  1  0  0  0  0
  5  9  1  0  0  0  0
  5 11  2  0  0  0  0
  6 10  1  0  0  0  0
  6 12  2  0  0  0  0
  7  9  1  0  0  0  0
  7 25  1  0  0  0  0
  7 26  1  0  0  0  0
  8 10  1  0  0  0  0
  8 27  1  0  0  0  0
  8 28  1  0  0  0  0
  9 13  2  0  0  0  0
 10 14  2  0  0  0  0
 11 15  1  0  0  0  0
 11 29  1  0  0  0  0
 12 16  1  0  0  0  0
 12 30  1  0  0  0  0
 13 18  1  0  0  0  0
 13 31  1  0  0  0  0
 14 17  1  0  0  0  0
 14 32  1  0  0  0  0
 15 18  2  0  0  0  0
 15 33  1  0  0  0  0
 16 17  2  0  0  0  0
 16 34  1  0  0  0  0
 17 35  1  0  0  0  0
 18 36  1  0  0  0  0
M  END
> <PUBCHEM_COMPOUND_CID>
582770

> <PUBCHEM_COMPOUND_CANONICALIZED>
1

> <PUBCHEM_CACTVS_COMPLEXITY>
264

> <PUBCHEM_CACTVS_HBOND_ACCEPTOR>
0

> <PUBCHEM_CACTVS_HBOND_DONOR>
0

> <PUBCHEM_CACTVS_ROTATABLE_BOND>
0

> <PUBCHEM_CACTVS_SUBSKEYS>
AAADceB4AAAAAAAAAAAAAAAAAAAAAAAAAAAwYMGAAAAAAADBQAAAGAAAAAAADQCAGAAwAIAAAACAAiBCAAACAAAgAAAIiAAAAIgIICKAERCAIAAggAAIiAcAgMAOgAAAAAAQAACAAAQAACAAAAAAAAAAAA==

> <PUBCHEM_IUPAC_OPENEYE_NAME>
4b,5,6,10b,11,12-hexahydrochrysene

> <PUBCHEM_IUPAC_CAS_NAME>
4b,5,6,10b,11,12-hexahydrochrysene

> <PUBCHEM_IUPAC_NAME>
4b,5,6,10b,11,12-hexahydrochrysene

> <PUBCHEM_IUPAC_SYSTEMATIC_NAME>
4b,5,6,10b,11,12-hexahydrochrysene

> <PUBCHEM_IUPAC_TRADITIONAL_NAME>
4b,5,6,10b,11,12-hexahydrochrysene

> <PUBCHEM_IUPAC_INCHI>
InChI=1S/C18H18/c1-3-7-15-13(5-1)9-11-18-16-8-4-2-6-14(16)10-12-17(15)18/h1-8,17-18H,9-12H2

> <PUBCHEM_IUPAC_INCHIKEY>
QEPVMZBHTZAQMT-UHFFFAOYSA-N

> <PUBCHEM_XLOGP3_AA>
4.9

> <PUBCHEM_EXACT_MASS>
234.140851

> <PUBCHEM_MOLECULAR_FORMULA>
C18H18

> <PUBCHEM_MOLECULAR_WEIGHT>
234.33552

> <PUBCHEM_OPENEYE_CAN_SMILES>
C1CC2=CC=CC=C2C3C1C4=CC=CC=C4CC3

> <PUBCHEM_OPENEYE_ISO_SMILES>
C1CC2=CC=CC=C2C3C1C4=CC=CC=C4CC3

> <PUBCHEM_CACTVS_TPSA>
0

> <PUBCHEM_MONOISOTOPIC_WEIGHT>
234.140851

> <PUBCHEM_TOTAL_CHARGE>
0

> <PUBCHEM_HEAVY_ATOM_COUNT>
18

> <PUBCHEM_ATOM_DEF_STEREO_COUNT>
0

> <PUBCHEM_ATOM_UDEF_STEREO_COUNT>
2

> <PUBCHEM_BOND_DEF_STEREO_COUNT>
0

> <PUBCHEM_BOND_UDEF_STEREO_COUNT>
0

> <PUBCHEM_ISOTOPIC_ATOM_COUNT>
0

> <PUBCHEM_COMPONENT_COUNT>
1

> <PUBCHEM_CACTVS_TAUTO_COUNT>
1

> <PUBCHEM_COORDINATE_TYPE>
1
5
255

> <PUBCHEM_BONDANNOTATIONS>
1  3  3
10  14  8
11  15  8
12  16  8
13  18  8
14  17  8
15  18  8
16  17  8
2  4  3
5  11  8
5  9  8
6  10  8
6  12  8
9  13  8

$$$$

