17396175
  -OEChem-06241222552D

 32 35  0     0  0  0  0  0  0999 V2000
    4.7538   -0.3162    0.0000 S   0  0  0  0  0  0  0  0  0  0  0  0
    2.0000   -2.6435    0.0000 F   0  0  0  0  0  0  0  0  0  0  0  0
    5.0306    1.4384    0.0000 N   0  0  0  0  0  0  0  0  0  0  0  0
    5.5306    2.9772    0.0000 N   0  0  0  0  0  0  0  0  0  0  0  0
    6.6423    1.4398    0.0000 N   0  0  0  0  0  0  0  0  0  0  0  0
    6.3343    0.4946    0.0000 N   0  0  0  0  0  0  0  0  0  0  0  0
    4.2216    2.0262    0.0000 C   0  0  0  0  0  0  0  0  0  0  0  0
    5.8396    2.0262    0.0000 C   0  0  0  0  0  0  0  0  0  0  0  0
    4.5306    2.9772    0.0000 C   0  0  0  0  0  0  0  0  0  0  0  0
    5.3402    0.4938    0.0000 C   0  0  0  0  0  0  0  0  0  0  0  0
    3.2062    1.7940    0.0000 C   0  0  0  0  0  0  0  0  0  0  0  0
    3.8456    3.7620    0.0000 C   0  0  0  0  0  0  0  0  0  0  0  0
    5.1622   -1.2291    0.0000 C   0  0  0  0  0  0  0  0  0  0  0  0
    2.5032    2.5626    0.0000 C   0  0  0  0  0  0  0  0  0  0  0  0
    4.5758   -2.0391    0.0000 C   0  0  0  0  0  0  0  0  0  0  0  0
    2.8251    3.5533    0.0000 C   0  0  0  0  0  0  0  0  0  0  0  0
    3.5811   -1.9363    0.0000 C   0  0  0  0  0  0  0  0  0  0  0  0
    4.9841   -2.9520    0.0000 C   0  0  0  0  0  0  0  0  0  0  0  0
    2.9947   -2.7463    0.0000 C   0  0  0  0  0  0  0  0  0  0  0  0
    4.3977   -3.7620    0.0000 C   0  0  0  0  0  0  0  0  0  0  0  0
    3.4030   -3.6592    0.0000 C   0  0  0  0  0  0  0  0  0  0  0  0
    3.0214    1.2021    0.0000 H   0  0  0  0  0  0  0  0  0  0  0  0
    7.2323    1.6304    0.0000 H   0  0  0  0  0  0  0  0  0  0  0  0
    4.0440    4.3494    0.0000 H   0  0  0  0  0  0  0  0  0  0  0  0
    5.5936   -1.6743    0.0000 H   0  0  0  0  0  0  0  0  0  0  0  0
    5.6756   -0.8815    0.0000 H   0  0  0  0  0  0  0  0  0  0  0  0
    1.8973    2.4314    0.0000 H   0  0  0  0  0  0  0  0  0  0  0  0
    2.4120    4.0156    0.0000 H   0  0  0  0  0  0  0  0  0  0  0  0
    3.3279   -1.3704    0.0000 H   0  0  0  0  0  0  0  0  0  0  0  0
    5.6008   -3.0157    0.0000 H   0  0  0  0  0  0  0  0  0  0  0  0
    4.6509   -4.3280    0.0000 H   0  0  0  0  0  0  0  0  0  0  0  0
    3.0395   -4.1614    0.0000 H   0  0  0  0  0  0  0  0  0  0  0  0
  1 10  1  0  0  0  0
  1 13  1  0  0  0  0
  2 19  1  0  0  0  0
  3  7  1  0  0  0  0
  3  8  1  0  0  0  0
  3 10  1  0  0  0  0
  4  8  2  0  0  0  0
  4  9  1  0  0  0  0
  5  6  1  0  0  0  0
  5  8  1  0  0  0  0
  5 23  1  0  0  0  0
  6 10  2  0  0  0  0
  7  9  1  0  0  0  0
  7 11  2  0  0  0  0
  9 12  2  0  0  0  0
 11 14  1  0  0  0  0
 11 22  1  0  0  0  0
 12 16  1  0  0  0  0
 12 24  1  0  0  0  0
 13 15  1  0  0  0  0
 13 25  1  0  0  0  0
 13 26  1  0  0  0  0
 14 16  2  0  0  0  0
 14 27  1  0  0  0  0
 15 17  2  0  0  0  0
 15 18  1  0  0  0  0
 16 28  1  0  0  0  0
 17 19  1  0  0  0  0
 17 29  1  0  0  0  0
 18 20  2  0  0  0  0
 18 30  1  0  0  0  0
 19 21  2  0  0  0  0
 20 21  1  0  0  0  0
 20 31  1  0  0  0  0
 21 32  1  0  0  0  0
M  END
> <PUBCHEM_COMPOUND_CID>
17396175

> <PUBCHEM_COMPOUND_CANONICALIZED>
1

> <PUBCHEM_CACTVS_COMPLEXITY>
372

> <PUBCHEM_CACTVS_HBOND_ACCEPTOR>
4

> <PUBCHEM_CACTVS_HBOND_DONOR>
1

> <PUBCHEM_CACTVS_ROTATABLE_BOND>
3

> <PUBCHEM_CACTVS_SUBSKEYS>
AAADccBzgQBAAAAAAAAAAAAAAAAAAWLAAAAwYAAAAAAWAFgB/AAAHQQYAAAADAiFXgix0LdvGAiiAyRiZACS0C/hErANuCAwdJiIaKLgmZGUIAhogAJIyCcQgAAOAAAAAAAAACAAAAAAAAAAQAAAAAAAAA==

> <PUBCHEM_IUPAC_OPENEYE_NAME>
1-[(3-fluorophenyl)methylsulfanyl]-3H-[1,2,4]triazolo[4,3-a]benzimidazole

> <PUBCHEM_IUPAC_CAS_NAME>
1-[(3-fluorophenyl)methylthio]-3H-[1,2,4]triazolo[4,3-a]benzimidazole

> <PUBCHEM_IUPAC_NAME>
1-[(3-fluorophenyl)methylsulfanyl]-3H-[1,2,4]triazolo[4,3-a]benzimidazole

> <PUBCHEM_IUPAC_SYSTEMATIC_NAME>
1-[(3-fluorophenyl)methylsulfanyl]-3H-[1,2,4]triazolo[4,3-a]benzimidazole

> <PUBCHEM_IUPAC_TRADITIONAL_NAME>
1-[(3-fluorobenzyl)thio]-3H-[1,2,4]triazolo[4,3-a]benzimidazole

> <PUBCHEM_IUPAC_INCHI>
InChI=1S/C15H11FN4S/c16-11-5-3-4-10(8-11)9-21-15-19-18-14-17-12-6-1-2-7-13(12)20(14)15/h1-8H,9H2,(H,17,18)

> <PUBCHEM_IUPAC_INCHIKEY>
VMHNBBXNTOITPG-UHFFFAOYSA-N

> <PUBCHEM_XLOGP3_AA>
4.8

> <PUBCHEM_EXACT_MASS>
298.068846

> <PUBCHEM_MOLECULAR_FORMULA>
C15H11FN4S

> <PUBCHEM_MOLECULAR_WEIGHT>
298.338043

> <PUBCHEM_OPENEYE_CAN_SMILES>
C1=CC=C2C(=C1)N=C3N2C(=NN3)SCC4=CC(=CC=C4)F

> <PUBCHEM_OPENEYE_ISO_SMILES>
C1=CC=C2C(=C1)N=C3N2C(=NN3)SCC4=CC(=CC=C4)F

> <PUBCHEM_CACTVS_TPSA>
71.3

> <PUBCHEM_MONOISOTOPIC_WEIGHT>
298.068846

> <PUBCHEM_TOTAL_CHARGE>
0

> <PUBCHEM_HEAVY_ATOM_COUNT>
21

> <PUBCHEM_ATOM_DEF_STEREO_COUNT>
0

> <PUBCHEM_ATOM_UDEF_STEREO_COUNT>
0

> <PUBCHEM_BOND_DEF_STEREO_COUNT>
0

> <PUBCHEM_BOND_UDEF_STEREO_COUNT>
0

> <PUBCHEM_ISOTOPIC_ATOM_COUNT>
0

> <PUBCHEM_COMPONENT_COUNT>
1

> <PUBCHEM_CACTVS_TAUTO_COUNT>
2

> <PUBCHEM_COORDINATE_TYPE>
1
5
255

> <PUBCHEM_BONDANNOTATIONS>
11  14  8
12  16  8
14  16  8
15  17  8
15  18  8
17  19  8
18  20  8
19  21  8
20  21  8
3  10  8
3  7  8
3  8  8
4  8  8
4  9  8
5  6  8
5  8  8
6  10  8
7  11  8
7  9  8
9  12  8

$$$$

