4258
  -OEChem-06251223592D

 47 49  0     1  0  0  0  0  0999 V2000
    3.7320   -0.1376    0.0000 O   0  0  0  0  0  0  0  0  0  0  0  0
    5.6043   -0.6418    0.0000 O   0  0  0  0  0  0  0  0  0  0  0  0
    6.3120    2.0751    0.0000 O   0  0  0  0  0  0  0  0  0  0  0  0
    6.6028   -1.3758    0.0000 O   0  0  0  0  0  0  0  0  0  0  0  0
    2.8660    3.3624    0.0000 O   0  0  0  0  0  0  0  0  0  0  0  0
    4.5981    3.3624    0.0000 O   0  0  0  0  0  0  0  0  0  0  0  0
    9.6064    0.3500    0.0000 O   0  0  0  0  0  0  0  0  0  0  0  0
    8.1081    1.2191    0.0000 O   0  0  0  0  0  0  0  0  0  0  0  0
   10.0974   -3.9811    0.0000 O   0  0  0  0  0  0  0  0  0  0  0  0
    4.5981    1.3624    0.0000 N   0  0  0  0  0  0  0  0  0  0  0  0
    6.6064    0.3562    0.0000 N   0  0  0  0  0  0  0  0  0  0  0  0
    5.6064    0.3582    0.0000 C   0  0  3  0  0  0  0  0  0  0  0  0
    4.5981    0.3624    0.0000 C   0  0  3  0  0  0  0  0  0  0  0  0
    5.6064    1.3665    0.0000 C   0  0  0  0  0  0  0  0  0  0  0  0
    3.7320    1.8624    0.0000 C   0  0  0  0  0  0  0  0  0  0  0  0
    2.8660    0.3624    0.0000 C   0  0  0  0  0  0  0  0  0  0  0  0
    2.8660    1.3624    0.0000 C   0  0  0  0  0  0  0  0  0  0  0  0
    7.1046   -0.5109    0.0000 C   0  0  0  0  0  0  0  0  0  0  0  0
    2.0000    1.8624    0.0000 C   0  0  0  0  0  0  0  0  0  0  0  0
    3.7320    2.8624    0.0000 C   0  0  0  0  0  0  0  0  0  0  0  0
    8.1046   -0.5129    0.0000 C   0  0  3  0  0  0  0  0  0  0  0  0
    4.7373   -1.1400    0.0000 C   0  0  0  0  0  0  0  0  0  0  0  0
    8.6028   -1.3800    0.0000 C   0  0  0  0  0  0  0  0  0  0  0  0
    8.6064    0.3521    0.0000 C   0  0  0  0  0  0  0  0  0  0  0  0
    8.1010   -2.2450    0.0000 C   0  0  0  0  0  0  0  0  0  0  0  0
    9.6028   -1.3820    0.0000 C   0  0  0  0  0  0  0  0  0  0  0  0
    8.5992   -3.1120    0.0000 C   0  0  0  0  0  0  0  0  0  0  0  0
   10.1010   -2.2491    0.0000 C   0  0  0  0  0  0  0  0  0  0  0  0
    9.5992   -3.1141    0.0000 C   0  0  0  0  0  0  0  0  0  0  0  0
    4.7573   -0.2368    0.0000 H   0  0  0  0  0  0  0  0  0  0  0  0
    6.9175    0.8925    0.0000 H   0  0  0  0  0  0  0  0  0  0  0  0
    2.2554    0.4701    0.0000 H   0  0  0  0  0  0  0  0  0  0  0  0
    2.6540   -0.2202    0.0000 H   0  0  0  0  0  0  0  0  0  0  0  0
    2.3100    2.3993    0.0000 H   0  0  0  0  0  0  0  0  0  0  0  0
    1.4631    2.1724    0.0000 H   0  0  0  0  0  0  0  0  0  0  0  0
    1.6900    1.3255    0.0000 H   0  0  0  0  0  0  0  0  0  0  0  0
    7.7935   -1.0492    0.0000 H   0  0  0  0  0  0  0  0  0  0  0  0
    4.4284   -0.6024    0.0000 H   0  0  0  0  0  0  0  0  0  0  0  0
    4.1997   -1.4489    0.0000 H   0  0  0  0  0  0  0  0  0  0  0  0
    5.0462   -1.6775    0.0000 H   0  0  0  0  0  0  0  0  0  0  0  0
    2.8660    3.9824    0.0000 H   0  0  0  0  0  0  0  0  0  0  0  0
    7.4810   -2.2437    0.0000 H   0  0  0  0  0  0  0  0  0  0  0  0
    9.9139   -0.8457    0.0000 H   0  0  0  0  0  0  0  0  0  0  0  0
    8.2881   -3.6483    0.0000 H   0  0  0  0  0  0  0  0  0  0  0  0
   10.7210   -2.2503    0.0000 H   0  0  0  0  0  0  0  0  0  0  0  0
    9.9174    0.8863    0.0000 H   0  0  0  0  0  0  0  0  0  0  0  0
   10.7174   -3.9824    0.0000 H   0  0  0  0  0  0  0  0  0  0  0  0
  1 13  1  0  0  0  0
  1 16  1  0  0  0  0
  2 12  1  0  0  0  0
  2 22  1  0  0  0  0
  3 14  2  0  0  0  0
  4 18  2  0  0  0  0
  5 20  1  0  0  0  0
  5 41  1  0  0  0  0
  6 20  2  0  0  0  0
  7 24  1  0  0  0  0
  7 46  1  0  0  0  0
  8 24  2  0  0  0  0
  9 29  1  0  0  0  0
  9 47  1  0  0  0  0
 10 13  1  0  0  0  0
 10 14  1  0  0  0  0
 10 15  1  0  0  0  0
 11 12  1  0  0  0  0
 11 18  1  0  0  0  0
 11 31  1  0  0  0  0
 12 13  1  0  0  0  0
 12 14  1  0  0  0  0
 13 30  1  0  0  0  0
 15 17  2  0  0  0  0
 15 20  1  0  0  0  0
 16 17  1  0  0  0  0
 16 32  1  0  0  0  0
 16 33  1  0  0  0  0
 17 19  1  0  0  0  0
 18 21  1  0  0  0  0
 19 34  1  0  0  0  0
 19 35  1  0  0  0  0
 19 36  1  0  0  0  0
 21 23  1  0  0  0  0
 21 24  1  0  0  0  0
 21 37  1  0  0  0  0
 22 38  1  0  0  0  0
 22 39  1  0  0  0  0
 22 40  1  0  0  0  0
 23 25  2  0  0  0  0
 23 26  1  0  0  0  0
 25 27  1  0  0  0  0
 25 42  1  0  0  0  0
 26 28  2  0  0  0  0
 26 43  1  0  0  0  0
 27 29  2  0  0  0  0
 27 44  1  0  0  0  0
 28 29  1  0  0  0  0
 28 45  1  0  0  0  0
M  END
> <PUBCHEM_COMPOUND_CID>
4258

> <PUBCHEM_COMPOUND_CANONICALIZED>
1

> <PUBCHEM_CACTVS_COMPLEXITY>
771

> <PUBCHEM_CACTVS_HBOND_ACCEPTOR>
9

> <PUBCHEM_CACTVS_HBOND_DONOR>
4

> <PUBCHEM_CACTVS_ROTATABLE_BOND>
6

> <PUBCHEM_CACTVS_SUBSKEYS>
AAADceB7PAAAAAAAAAAAAAAAAABYAAAAAAAwQAAAAAAQAAABAAAAHgAQCAAADQzhmAYyDoPABgCIAiXSWAICAAAgIAAIiAHOCMkLZj6KtTefcAAm9hGauQeYyPCOoAAAAAAAAABAAAAAAAAAAAAAAAAAAA==

> <PUBCHEM_IUPAC_OPENEYE_NAME>
7-[[2-carboxy-2-(4-hydroxyphenyl)acetyl]amino]-7-methoxy-3-methyl-8-oxo-5-oxa-1-azabicyclo[4.2.0]oct-2-ene-2-carboxylic acid

> <PUBCHEM_IUPAC_CAS_NAME>
7-[[2-carboxy-2-(4-hydroxyphenyl)-1-oxoethyl]amino]-7-methoxy-3-methyl-8-oxo-5-oxa-1-azabicyclo[4.2.0]oct-2-ene-2-carboxylic acid

> <PUBCHEM_IUPAC_NAME>
7-[[2-carboxy-2-(4-hydroxyphenyl)acetyl]amino]-7-methoxy-3-methyl-8-oxo-5-oxa-1-azabicyclo[4.2.0]oct-2-ene-2-carboxylic acid

> <PUBCHEM_IUPAC_SYSTEMATIC_NAME>
7-[[2-(4-hydroxyphenyl)-3-oxidanyl-3-oxidanylidene-propanoyl]amino]-7-methoxy-3-methyl-8-oxidanylidene-5-oxa-1-azabicyclo[4.2.0]oct-2-ene-2-carboxylic acid

> <PUBCHEM_IUPAC_TRADITIONAL_NAME>
7-[[2-carboxy-2-(4-hydroxyphenyl)acetyl]amino]-8-keto-7-methoxy-3-methyl-5-oxa-1-azabicyclo[4.2.0]oct-2-ene-2-carboxylic acid

> <PUBCHEM_IUPAC_INCHI>
InChI=1S/C18H18N2O9/c1-8-7-29-17-18(28-2,16(27)20(17)12(8)15(25)26)19-13(22)11(14(23)24)9-3-5-10(21)6-4-9/h3-6,11,17,21H,7H2,1-2H3,(H,19,22)(H,23,24)(H,25,26)

> <PUBCHEM_IUPAC_INCHIKEY>
GYYVEEGHXUADBF-UHFFFAOYSA-N

> <PUBCHEM_XLOGP3>
-0.2

> <PUBCHEM_EXACT_MASS>
406.10123

> <PUBCHEM_MOLECULAR_FORMULA>
C18H18N2O9

> <PUBCHEM_MOLECULAR_WEIGHT>
406.34352

> <PUBCHEM_OPENEYE_CAN_SMILES>
CC1=C(N2C(C(C2=O)(NC(=O)C(C3=CC=C(C=C3)O)C(=O)O)OC)OC1)C(=O)O

> <PUBCHEM_OPENEYE_ISO_SMILES>
CC1=C(N2C(C(C2=O)(NC(=O)C(C3=CC=C(C=C3)O)C(=O)O)OC)OC1)C(=O)O

> <PUBCHEM_CACTVS_TPSA>
163

> <PUBCHEM_MONOISOTOPIC_WEIGHT>
406.10123

> <PUBCHEM_TOTAL_CHARGE>
0

> <PUBCHEM_HEAVY_ATOM_COUNT>
29

> <PUBCHEM_ATOM_DEF_STEREO_COUNT>
0

> <PUBCHEM_ATOM_UDEF_STEREO_COUNT>
3

> <PUBCHEM_BOND_DEF_STEREO_COUNT>
0

> <PUBCHEM_BOND_UDEF_STEREO_COUNT>
0

> <PUBCHEM_ISOTOPIC_ATOM_COUNT>
0

> <PUBCHEM_COMPONENT_COUNT>
1

> <PUBCHEM_CACTVS_TAUTO_COUNT>
4

> <PUBCHEM_COORDINATE_TYPE>
1
5
255

> <PUBCHEM_BONDANNOTATIONS>
13  1  3
12  11  3
21  18  3
23  25  8
23  26  8
25  27  8
26  28  8
27  29  8
28  29  8

$$$$

