6846
  -OEChem-06261201322D

 19 20  0     0  0  0  0  0  0999 V2000
    2.8660   -2.0173    0.0000 N   0  0  0  0  0  0  0  0  0  0  0  0
    3.7320    0.4827    0.0000 C   0  0  0  0  0  0  0  0  0  0  0  0
    3.7320    1.4827    0.0000 C   0  0  0  0  0  0  0  0  0  0  0  0
    2.8660   -0.0173    0.0000 C   0  0  0  0  0  0  0  0  0  0  0  0
    2.8660    1.9827    0.0000 C   0  0  0  0  0  0  0  0  0  0  0  0
    4.6260   -0.0520    0.0000 C   0  0  0  0  0  0  0  0  0  0  0  0
    4.6260    2.0173    0.0000 C   0  0  0  0  0  0  0  0  0  0  0  0
    2.0000    0.4827    0.0000 C   0  0  0  0  0  0  0  0  0  0  0  0
    2.0000    1.4827    0.0000 C   0  0  0  0  0  0  0  0  0  0  0  0
    5.5321    0.4619    0.0000 C   0  0  0  0  0  0  0  0  0  0  0  0
    5.5321    1.5035    0.0000 C   0  0  0  0  0  0  0  0  0  0  0  0
    2.8660   -1.0173    0.0000 C   0  0  0  0  0  0  0  0  0  0  0  0
    4.6188   -0.6720    0.0000 H   0  0  0  0  0  0  0  0  0  0  0  0
    2.8660    2.6027    0.0000 H   0  0  0  0  0  0  0  0  0  0  0  0
    4.6188    2.6373    0.0000 H   0  0  0  0  0  0  0  0  0  0  0  0
    1.4631    0.1727    0.0000 H   0  0  0  0  0  0  0  0  0  0  0  0
    1.4631    1.7927    0.0000 H   0  0  0  0  0  0  0  0  0  0  0  0
    6.0678    0.1498    0.0000 H   0  0  0  0  0  0  0  0  0  0  0  0
    6.0678    1.8156    0.0000 H   0  0  0  0  0  0  0  0  0  0  0  0
  1 12  3  0  0  0  0
  2  3  1  0  0  0  0
  2  4  1  0  0  0  0
  2  6  2  0  0  0  0
  3  5  1  0  0  0  0
  3  7  2  0  0  0  0
  4  8  2  0  0  0  0
  4 12  1  0  0  0  0
  5  9  2  0  0  0  0
  5 14  1  0  0  0  0
  6 10  1  0  0  0  0
  6 13  1  0  0  0  0
  7 11  1  0  0  0  0
  7 15  1  0  0  0  0
  8  9  1  0  0  0  0
  8 16  1  0  0  0  0
  9 17  1  0  0  0  0
 10 11  2  0  0  0  0
 10 18  1  0  0  0  0
 11 19  1  0  0  0  0
M  END
> <PUBCHEM_COMPOUND_CID>
6846

> <PUBCHEM_COMPOUND_CANONICALIZED>
1

> <PUBCHEM_CACTVS_COMPLEXITY>
200

> <PUBCHEM_CACTVS_HBOND_ACCEPTOR>
1

> <PUBCHEM_CACTVS_HBOND_DONOR>
0

> <PUBCHEM_CACTVS_ROTATABLE_BOND>
0

> <PUBCHEM_CACTVS_SUBSKEYS>
AAADcYByAAAAAAAAAAAAAAAAAAAAAAAAAAAwYAAAAAAAAADBUAAAHAAAAAAADACBGAAwAMAAAACQBiBCAAAiAAAgAAAIiAAAAIgIoCKAERCAIAAggAAIiA8AgMAOgAACAAAQAAAAAAQAACAAAAAAAAAAAA==

> <PUBCHEM_IUPAC_OPENEYE_NAME>
naphthalene-1-carbonitrile

> <PUBCHEM_IUPAC_CAS_NAME>
1-naphthalenecarbonitrile

> <PUBCHEM_IUPAC_NAME>
naphthalene-1-carbonitrile

> <PUBCHEM_IUPAC_SYSTEMATIC_NAME>
naphthalene-1-carbonitrile

> <PUBCHEM_IUPAC_TRADITIONAL_NAME>
naphthalene-1-carbonitrile

> <PUBCHEM_IUPAC_INCHI>
InChI=1S/C11H7N/c12-8-10-6-3-5-9-4-1-2-7-11(9)10/h1-7H

> <PUBCHEM_IUPAC_INCHIKEY>
YJMNOKOLADGBKA-UHFFFAOYSA-N

> <PUBCHEM_XLOGP3>
3.3

> <PUBCHEM_EXACT_MASS>
153.057849

> <PUBCHEM_MOLECULAR_FORMULA>
C11H7N

> <PUBCHEM_MOLECULAR_WEIGHT>
153.17998

> <PUBCHEM_OPENEYE_CAN_SMILES>
C1=CC=C2C(=C1)C=CC=C2C#N

> <PUBCHEM_OPENEYE_ISO_SMILES>
C1=CC=C2C(=C1)C=CC=C2C#N

> <PUBCHEM_CACTVS_TPSA>
23.8

> <PUBCHEM_MONOISOTOPIC_WEIGHT>
153.057849

> <PUBCHEM_TOTAL_CHARGE>
0

> <PUBCHEM_HEAVY_ATOM_COUNT>
12

> <PUBCHEM_ATOM_DEF_STEREO_COUNT>
0

> <PUBCHEM_ATOM_UDEF_STEREO_COUNT>
0

> <PUBCHEM_BOND_DEF_STEREO_COUNT>
0

> <PUBCHEM_BOND_UDEF_STEREO_COUNT>
0

> <PUBCHEM_ISOTOPIC_ATOM_COUNT>
0

> <PUBCHEM_COMPONENT_COUNT>
1

> <PUBCHEM_CACTVS_TAUTO_COUNT>
1

> <PUBCHEM_COORDINATE_TYPE>
1
5
255

> <PUBCHEM_BONDANNOTATIONS>
10  11  8
2  3  8
2  4  8
2  6  8
3  5  8
3  7  8
4  8  8
5  9  8
6  10  8
7  11  8
8  9  8

$$$$

