17395812
  -OEChem-06241222522D

 44 46  0     0  0  0  0  0  0999 V2000
    7.9244   -1.1646    0.0000 O   0  0  0  0  0  0  0  0  0  0  0  0
    9.4778    3.5880    0.0000 O   0  0  0  0  0  0  0  0  0  0  0  0
    7.8314    4.1261    0.0000 O   0  0  0  0  0  0  0  0  0  0  0  0
    4.6783   -2.7338    0.0000 N   0  0  0  0  0  0  0  0  0  0  0  0
    4.6783   -4.3432    0.0000 N   0  0  0  0  0  0  0  0  0  0  0  0
    6.2781   -0.6265    0.0000 N   0  0  0  0  0  0  0  0  0  0  0  0
    4.9889   -1.7833    0.0000 C   0  0  0  0  0  0  0  0  0  0  0  0
    3.7320   -3.0385    0.0000 C   0  0  0  0  0  0  0  0  0  0  0  0
    5.2619   -3.5385    0.0000 C   0  0  0  0  0  0  0  0  0  0  0  0
    5.9674   -1.5770    0.0000 C   0  0  0  0  0  0  0  0  0  0  0  0
    3.7320   -4.0385    0.0000 C   0  0  0  0  0  0  0  0  0  0  0  0
    2.8660   -2.5385    0.0000 C   0  0  0  0  0  0  0  0  0  0  0  0
    6.2619   -3.5385    0.0000 C   0  0  0  0  0  0  0  0  0  0  0  0
    2.8660   -4.5385    0.0000 C   0  0  0  0  0  0  0  0  0  0  0  0
    2.0000   -3.0385    0.0000 C   0  0  0  0  0  0  0  0  0  0  0  0
    2.0000   -4.0385    0.0000 C   0  0  0  0  0  0  0  0  0  0  0  0
    7.2566   -0.4203    0.0000 C   0  0  0  0  0  0  0  0  0  0  0  0
    7.5673    0.5302    0.0000 C   0  0  0  0  0  0  0  0  0  0  0  0
    8.5458    0.7364    0.0000 C   0  0  0  0  0  0  0  0  0  0  0  0
    6.8994    1.2745    0.0000 C   0  0  0  0  0  0  0  0  0  0  0  0
    8.1886    2.4313    0.0000 C   0  0  0  0  0  0  0  0  0  0  0  0
    8.8564    1.6870    0.0000 C   0  0  0  0  0  0  0  0  0  0  0  0
    7.2101    2.2250    0.0000 C   0  0  0  0  0  0  0  0  0  0  0  0
    8.4993    3.3818    0.0000 C   0  0  0  0  0  0  0  0  0  0  0  0
    9.7884    4.5385    0.0000 C   0  0  0  0  0  0  0  0  0  0  0  0
    4.9684   -1.1636    0.0000 H   0  0  0  0  0  0  0  0  0  0  0  0
    4.3751   -1.6959    0.0000 H   0  0  0  0  0  0  0  0  0  0  0  0
    5.9880   -2.1967    0.0000 H   0  0  0  0  0  0  0  0  0  0  0  0
    6.5812   -1.6644    0.0000 H   0  0  0  0  0  0  0  0  0  0  0  0
    2.8660   -1.9185    0.0000 H   0  0  0  0  0  0  0  0  0  0  0  0
    6.2619   -4.1585    0.0000 H   0  0  0  0  0  0  0  0  0  0  0  0
    6.8819   -3.5385    0.0000 H   0  0  0  0  0  0  0  0  0  0  0  0
    6.2619   -2.9185    0.0000 H   0  0  0  0  0  0  0  0  0  0  0  0
    5.8640   -0.1651    0.0000 H   0  0  0  0  0  0  0  0  0  0  0  0
    2.8660   -5.1585    0.0000 H   0  0  0  0  0  0  0  0  0  0  0  0
    1.4631   -2.7285    0.0000 H   0  0  0  0  0  0  0  0  0  0  0  0
    1.4631   -4.3485    0.0000 H   0  0  0  0  0  0  0  0  0  0  0  0
    8.9598    0.2750    0.0000 H   0  0  0  0  0  0  0  0  0  0  0  0
    6.2928    1.1467    0.0000 H   0  0  0  0  0  0  0  0  0  0  0  0
    9.4631    1.8148    0.0000 H   0  0  0  0  0  0  0  0  0  0  0  0
    6.7960    2.6865    0.0000 H   0  0  0  0  0  0  0  0  0  0  0  0
   10.3777    4.3459    0.0000 H   0  0  0  0  0  0  0  0  0  0  0  0
    9.9810    5.1278    0.0000 H   0  0  0  0  0  0  0  0  0  0  0  0
    9.1991    4.7311    0.0000 H   0  0  0  0  0  0  0  0  0  0  0  0
  1 17  2  0  0  0  0
  2 24  1  0  0  0  0
  2 25  1  0  0  0  0
  3 24  2  0  0  0  0
  4  7  1  0  0  0  0
  4  8  1  0  0  0  0
  4  9  1  0  0  0  0
  5  9  2  0  0  0  0
  5 11  1  0  0  0  0
  6 10  1  0  0  0  0
  6 17  1  0  0  0  0
  6 34  1  0  0  0  0
  7 10  1  0  0  0  0
  7 26  1  0  0  0  0
  7 27  1  0  0  0  0
  8 11  1  0  0  0  0
  8 12  2  0  0  0  0
  9 13  1  0  0  0  0
 10 28  1  0  0  0  0
 10 29  1  0  0  0  0
 11 14  2  0  0  0  0
 12 15  1  0  0  0  0
 12 30  1  0  0  0  0
 13 31  1  0  0  0  0
 13 32  1  0  0  0  0
 13 33  1  0  0  0  0
 14 16  1  0  0  0  0
 14 35  1  0  0  0  0
 15 16  2  0  0  0  0
 15 36  1  0  0  0  0
 16 37  1  0  0  0  0
 17 18  1  0  0  0  0
 18 19  2  0  0  0  0
 18 20  1  0  0  0  0
 19 22  1  0  0  0  0
 19 38  1  0  0  0  0
 20 23  2  0  0  0  0
 20 39  1  0  0  0  0
 21 22  2  0  0  0  0
 21 23  1  0  0  0  0
 21 24  1  0  0  0  0
 22 40  1  0  0  0  0
 23 41  1  0  0  0  0
 25 42  1  0  0  0  0
 25 43  1  0  0  0  0
 25 44  1  0  0  0  0
M  END
> <PUBCHEM_COMPOUND_CID>
17395812

> <PUBCHEM_COMPOUND_CANONICALIZED>
1

> <PUBCHEM_CACTVS_COMPLEXITY>
477

> <PUBCHEM_CACTVS_HBOND_ACCEPTOR>
4

> <PUBCHEM_CACTVS_HBOND_DONOR>
1

> <PUBCHEM_CACTVS_ROTATABLE_BOND>
6

> <PUBCHEM_CACTVS_SUBSKEYS>
AAADceB7MAAAAAAAAAAAAAAAAAAAAWAAAAAwYAAAAAAAAFgB9AAAHgAQAAAADAjBnwYz2LfMFACoAyfyfACCgC0lEqAJ2KE4fNiIbrLAvZmUMQhs1gPI6aeYyDCOQAAAAAAAACCAAAAAAAAAQAAAAAAAAA==

> <PUBCHEM_IUPAC_OPENEYE_NAME>
methyl 4-[2-(2-methylbenzimidazol-1-yl)ethylcarbamoyl]benzoate

> <PUBCHEM_IUPAC_CAS_NAME>
4-[[2-(2-methyl-1-benzimidazolyl)ethylamino]-oxomethyl]benzoic acid methyl ester

> <PUBCHEM_IUPAC_NAME>
methyl 4-[2-(2-methylbenzimidazol-1-yl)ethylcarbamoyl]benzoate

> <PUBCHEM_IUPAC_SYSTEMATIC_NAME>
methyl 4-[2-(2-methylbenzimidazol-1-yl)ethylcarbamoyl]benzoate

> <PUBCHEM_IUPAC_TRADITIONAL_NAME>
4-[2-(2-methylbenzimidazol-1-yl)ethylcarbamoyl]benzoic acid methyl ester

> <PUBCHEM_IUPAC_INCHI>
InChI=1S/C19H19N3O3/c1-13-21-16-5-3-4-6-17(16)22(13)12-11-20-18(23)14-7-9-15(10-8-14)19(24)25-2/h3-10H,11-12H2,1-2H3,(H,20,23)

> <PUBCHEM_IUPAC_INCHIKEY>
LARLXWGBXQLQKV-UHFFFAOYSA-N

> <PUBCHEM_XLOGP3_AA>
2.6

> <PUBCHEM_EXACT_MASS>
337.142641

> <PUBCHEM_MOLECULAR_FORMULA>
C19H19N3O3

> <PUBCHEM_MOLECULAR_WEIGHT>
337.37246

> <PUBCHEM_OPENEYE_CAN_SMILES>
CC1=NC2=CC=CC=C2N1CCNC(=O)C3=CC=C(C=C3)C(=O)OC

> <PUBCHEM_OPENEYE_ISO_SMILES>
CC1=NC2=CC=CC=C2N1CCNC(=O)C3=CC=C(C=C3)C(=O)OC

> <PUBCHEM_CACTVS_TPSA>
73.2

> <PUBCHEM_MONOISOTOPIC_WEIGHT>
337.142641

> <PUBCHEM_TOTAL_CHARGE>
0

> <PUBCHEM_HEAVY_ATOM_COUNT>
25

> <PUBCHEM_ATOM_DEF_STEREO_COUNT>
0

> <PUBCHEM_ATOM_UDEF_STEREO_COUNT>
0

> <PUBCHEM_BOND_DEF_STEREO_COUNT>
0

> <PUBCHEM_BOND_UDEF_STEREO_COUNT>
0

> <PUBCHEM_ISOTOPIC_ATOM_COUNT>
0

> <PUBCHEM_COMPONENT_COUNT>
1

> <PUBCHEM_CACTVS_TAUTO_COUNT>
2

> <PUBCHEM_COORDINATE_TYPE>
1
5
255

> <PUBCHEM_BONDANNOTATIONS>
11  14  8
12  15  8
14  16  8
15  16  8
18  19  8
18  20  8
19  22  8
20  23  8
21  22  8
21  23  8
4  8  8
4  9  8
5  11  8
5  9  8
8  11  8
8  12  8

$$$$

