3579
  -OEChem-06251223312D

 77 80  0     0  0  0  0  0  0999 V2000
    6.5630    1.0977    0.0000 Fe  0  0  0  0  0  0  0  0  0  0  0  0
   12.9193    0.2581    0.0000 O   0  0  0  0  0  0  0  0  0  0  0  0
    7.0745   -5.1265    0.0000 O   0  0  0  0  0  0  0  0  0  0  0  0
   11.8766   -1.1250    0.0000 O   0  0  0  0  0  0  0  0  0  0  0  0
    8.5744   -4.2604    0.0000 O   0  0  0  0  0  0  0  0  0  0  0  0
    8.0237    1.1240    0.0000 N   0  5  0  0  0  0  0  0  0  0  0  0
    6.5997   -0.1747    0.0000 N   0  5  0  0  0  0  0  0  0  0  0  0
    6.5679    2.4226    0.0000 N   0  5  0  0  0  0  0  0  0  0  0  0
    5.1740    1.1240    0.0000 N   0  5  0  0  0  0  0  0  0  0  0  0
    8.5938    0.4270    0.0000 C   0  0  0  0  0  0  0  0  0  0  0  0
    7.3601   -0.7447    0.0000 C   0  0  0  0  0  0  0  0  0  0  0  0
    8.5620    1.8844    0.0000 C   0  0  0  0  0  0  0  0  0  0  0  0
    5.8392   -0.7765    0.0000 C   0  0  0  0  0  0  0  0  0  0  0  0
    7.3601    3.0561    0.0000 C   0  0  0  0  0  0  0  0  0  0  0  0
    4.6358    0.3952    0.0000 C   0  0  0  0  0  0  0  0  0  0  0  0
    4.6358    1.8526    0.0000 C   0  0  0  0  0  0  0  0  0  0  0  0
    5.8074    3.0243    0.0000 C   0  0  0  0  0  0  0  0  0  0  0  0
    8.3095   -0.4907    0.0000 C   0  0  0  0  0  0  0  0  0  0  0  0
    9.4812    0.6810    0.0000 C   0  0  0  0  0  0  0  0  0  0  0  0
    7.0744   -1.6624    0.0000 C   0  0  0  0  0  0  0  0  0  0  0  0
    8.2778    2.7703    0.0000 C   0  0  0  0  0  0  0  0  0  0  0  0
    4.9215   -0.4907    0.0000 C   0  0  0  0  0  0  0  0  0  0  0  0
    9.4812    1.6303    0.0000 C   0  0  0  0  0  0  0  0  0  0  0  0
    6.1250   -1.6624    0.0000 C   0  0  0  0  0  0  0  0  0  0  0  0
    4.8899    2.7703    0.0000 C   0  0  0  0  0  0  0  0  0  0  0  0
    7.0426    3.9420    0.0000 C   0  0  0  0  0  0  0  0  0  0  0  0
    3.7182    1.5986    0.0000 C   0  0  0  0  0  0  0  0  0  0  0  0
    3.7182    0.6493    0.0000 C   0  0  0  0  0  0  0  0  0  0  0  0
    6.0932    3.9420    0.0000 C   0  0  0  0  0  0  0  0  0  0  0  0
   10.2796    0.0790    0.0000 C   0  0  0  0  0  0  0  0  0  0  0  0
    7.5744   -2.5284    0.0000 C   0  0  0  0  0  0  0  0  0  0  0  0
   10.2769    2.2360    0.0000 C   0  0  0  0  0  0  0  0  0  0  0  0
    5.5364   -2.4708    0.0000 C   0  0  0  0  0  0  0  0  0  0  0  0
    7.6183    4.7597    0.0000 C   0  0  0  0  0  0  0  0  0  0  0  0
    2.9223    2.2041    0.0000 C   0  0  0  0  0  0  0  0  0  0  0  0
    2.9223    0.0438    0.0000 C   0  0  0  0  0  0  0  0  0  0  0  0
    5.5005    4.7474    0.0000 C   0  0  0  0  0  0  0  0  0  0  0  0
   11.2002    0.4695    0.0000 C   0  0  0  0  0  0  0  0  0  0  0  0
    7.0744   -3.3944    0.0000 C   0  0  0  0  0  0  0  0  0  0  0  0
    2.0000    0.4303    0.0000 C   0  0  0  0  0  0  0  0  0  0  0  0
    5.9017    5.6634    0.0000 C   0  0  0  0  0  0  0  0  0  0  0  0
   11.9987   -0.1325    0.0000 C   0  0  0  0  0  0  0  0  0  0  0  0
    7.5744   -4.2604    0.0000 C   0  0  0  0  0  0  0  0  0  0  0  0
    8.7393   -0.9375    0.0000 H   0  0  0  0  0  0  0  0  0  0  0  0
    8.7143    3.2105    0.0000 H   0  0  0  0  0  0  0  0  0  0  0  0
    4.4853   -0.9313    0.0000 H   0  0  0  0  0  0  0  0  0  0  0  0
    4.4514    3.2087    0.0000 H   0  0  0  0  0  0  0  0  0  0  0  0
   10.6172   -0.4410    0.0000 H   0  0  0  0  0  0  0  0  0  0  0  0
    9.8261   -0.3437    0.0000 H   0  0  0  0  0  0  0  0  0  0  0  0
    8.0494   -2.1299    0.0000 H   0  0  0  0  0  0  0  0  0  0  0  0
    8.0494   -2.9269    0.0000 H   0  0  0  0  0  0  0  0  0  0  0  0
    9.9014    2.7293    0.0000 H   0  0  0  0  0  0  0  0  0  0  0  0
   10.7703    2.6115    0.0000 H   0  0  0  0  0  0  0  0  0  0  0  0
   10.6524    1.7426    0.0000 H   0  0  0  0  0  0  0  0  0  0  0  0
    5.0352   -2.1058    0.0000 H   0  0  0  0  0  0  0  0  0  0  0  0
    5.1714   -2.9720    0.0000 H   0  0  0  0  0  0  0  0  0  0  0  0
    6.0376   -2.8357    0.0000 H   0  0  0  0  0  0  0  0  0  0  0  0
    7.1113    5.1166    0.0000 H   0  0  0  0  0  0  0  0  0  0  0  0
    7.9751    5.2667    0.0000 H   0  0  0  0  0  0  0  0  0  0  0  0
    8.1252    4.4028    0.0000 H   0  0  0  0  0  0  0  0  0  0  0  0
    2.5469    1.7106    0.0000 H   0  0  0  0  0  0  0  0  0  0  0  0
    2.4289    2.5794    0.0000 H   0  0  0  0  0  0  0  0  0  0  0  0
    3.2977    2.6975    0.0000 H   0  0  0  0  0  0  0  0  0  0  0  0
    3.0007   -0.5712    0.0000 H   0  0  0  0  0  0  0  0  0  0  0  0
    4.8843    4.6788    0.0000 H   0  0  0  0  0  0  0  0  0  0  0  0
   10.8627    0.9896    0.0000 H   0  0  0  0  0  0  0  0  0  0  0  0
   11.6538    0.8923    0.0000 H   0  0  0  0  0  0  0  0  0  0  0  0
    6.5995   -3.7930    0.0000 H   0  0  0  0  0  0  0  0  0  0  0  0
    6.5995   -2.9959    0.0000 H   0  0  0  0  0  0  0  0  0  0  0  0
    2.2396    1.0021    0.0000 H   0  0  0  0  0  0  0  0  0  0  0  0
    1.4282    0.6699    0.0000 H   0  0  0  0  0  0  0  0  0  0  0  0
    1.7604   -0.1415    0.0000 H   0  0  0  0  0  0  0  0  0  0  0  0
    6.4696    5.4147    0.0000 H   0  0  0  0  0  0  0  0  0  0  0  0
    6.1504    6.2313    0.0000 H   0  0  0  0  0  0  0  0  0  0  0  0
    5.3337    5.9121    0.0000 H   0  0  0  0  0  0  0  0  0  0  0  0
   13.4144   -0.1152    0.0000 H   0  0  0  0  0  0  0  0  0  0  0  0
    7.3845   -5.6634    0.0000 H   0  0  0  0  0  0  0  0  0  0  0  0
  2 42  1  0  0  0  0
  2 76  1  0  0  0  0
  3 43  1  0  0  0  0
  3 77  1  0  0  0  0
  4 42  2  0  0  0  0
  5 43  2  0  0  0  0
  6 10  1  0  0  0  0
  6 12  1  0  0  0  0
  7 11  1  0  0  0  0
  7 13  1  0  0  0  0
  8 14  1  0  0  0  0
  8 17  1  0  0  0  0
  9 15  1  0  0  0  0
  9 16  1  0  0  0  0
 10 18  2  3  0  0  0
 10 19  1  0  0  0  0
 11 18  1  0  0  0  0
 11 20  2  0  0  0  0
 12 21  2  3  0  0  0
 12 23  1  0  0  0  0
 13 22  1  0  0  0  0
 13 24  2  0  0  0  0
 14 21  1  0  0  0  0
 14 26  2  0  0  0  0
 15 22  2  3  0  0  0
 15 28  1  0  0  0  0
 16 25  1  0  0  0  0
 16 27  2  0  0  0  0
 17 25  2  3  0  0  0
 17 29  1  0  0  0  0
 18 44  1  0  0  0  0
 19 23  2  0  0  0  0
 19 30  1  0  0  0  0
 20 24  1  0  0  0  0
 20 31  1  0  0  0  0
 21 45  1  0  0  0  0
 22 46  1  0  0  0  0
 23 32  1  0  0  0  0
 24 33  1  0  0  0  0
 25 47  1  0  0  0  0
 26 29  1  0  0  0  0
 26 34  1  0  0  0  0
 27 28  1  0  0  0  0
 27 35  1  0  0  0  0
 28 36  2  3  0  0  0
 29 37  2  3  0  0  0
 30 38  1  0  0  0  0
 30 48  1  0  0  0  0
 30 49  1  0  0  0  0
 31 39  1  0  0  0  0
 31 50  1  0  0  0  0
 31 51  1  0  0  0  0
 32 52  1  0  0  0  0
 32 53  1  0  0  0  0
 32 54  1  0  0  0  0
 33 55  1  0  0  0  0
 33 56  1  0  0  0  0
 33 57  1  0  0  0  0
 34 58  1  0  0  0  0
 34 59  1  0  0  0  0
 34 60  1  0  0  0  0
 35 61  1  0  0  0  0
 35 62  1  0  0  0  0
 35 63  1  0  0  0  0
 36 40  1  0  0  0  0
 36 64  1  0  0  0  0
 37 41  1  0  0  0  0
 37 65  1  0  0  0  0
 38 42  1  0  0  0  0
 38 66  1  0  0  0  0
 38 67  1  0  0  0  0
 39 43  1  0  0  0  0
 39 68  1  0  0  0  0
 39 69  1  0  0  0  0
 40 70  1  0  0  0  0
 40 71  1  0  0  0  0
 40 72  1  0  0  0  0
 41 73  1  0  0  0  0
 41 74  1  0  0  0  0
 41 75  1  0  0  0  0
M  CHG  4   6  -1   7  -1   8  -1   9  -1
M  END
> <PUBCHEM_COMPOUND_CID>
3579

> <PUBCHEM_COMPOUND_CANONICALIZED>
1

> <PUBCHEM_CACTVS_COMPLEXITY>
1520

> <PUBCHEM_CACTVS_HBOND_ACCEPTOR>
8

> <PUBCHEM_CACTVS_HBOND_DONOR>
2

> <PUBCHEM_CACTVS_ROTATABLE_BOND>
6

> <PUBCHEM_CACTVS_SUBSKEYS>
AAADcfB/uAAAAAAgAAAAAAAAAAAAAWIECAAgQIEAAAAAAECBgAAAHgAACAAADAiBngACiJIIEgCoAyTyTACCgCAhAiAAmCEwRJgIIHLAkJGEQAhkgADIyAeY2TOegAAAAAAAAAAAAAAAAAAAAAAAAAAAAA==

> <PUBCHEM_IUPAC_OPENEYE_NAME>
3-[18-(2-carboxyethyl)-8,13-di(ethylidene)-3,7,12,17-tetramethyl-porphyrin-21,22,23,24-tetraid-2-yl]propanoic acid; iron

> <PUBCHEM_IUPAC_CAS_NAME>
3-[18-(2-carboxyethyl)-8,13-di(ethylidene)-3,7,12,17-tetramethyl-2-porphyrin-21,22,23,24-tetraidyl]propanoic acid; iron

> <PUBCHEM_IUPAC_NAME>
3-[18-(2-carboxyethyl)-8,13-di(ethylidene)-3,7,12,17-tetramethylporphyrin-21,22,23,24-tetraid-2-yl]propanoic acid; iron

> <PUBCHEM_IUPAC_SYSTEMATIC_NAME>
3-[8,13-di(ethylidene)-18-(3-hydroxy-3-oxopropyl)-3,7,12,17-tetramethyl-porphyrin-21,22,23,24-tetraid-2-yl]propanoic acid; iron

> <PUBCHEM_IUPAC_TRADITIONAL_NAME>
3-[18-(2-carboxyethyl)-8,13-di(ethylidene)-3,7,12,17-tetramethyl-porphine-21,22,23,24-tetraid-2-yl]propionic acid; iron

> <PUBCHEM_IUPAC_INCHI>
InChI=1S/C34H34N4O4.Fe/c1-7-21-17(3)25-13-26-19(5)23(9-11-33(39)40)31(37-26)16-32-24(10-12-34(41)42)20(6)28(38-32)15-30-22(8-2)18(4)27(36-30)14-29(21)35-25;/h7-8,13-16H,9-12H2,1-6H3,(H,39,40)(H,41,42);/q-4;

> <PUBCHEM_IUPAC_INCHIKEY>
WDKMKLZJCPJPOX-UHFFFAOYSA-N

> <PUBCHEM_EXACT_MASS>
618.192943

> <PUBCHEM_MOLECULAR_FORMULA>
C34H34FeN4O4-4

> <PUBCHEM_MOLECULAR_WEIGHT>
618.50316

> <PUBCHEM_OPENEYE_CAN_SMILES>
CC=C1C(=C2C=C3C(=CC)C(=C([N-]3)C=C4C(=C(C(=CC5=C(C(=C([N-]5)C=C1[N-]2)C)CCC(=O)O)[N-]4)CCC(=O)O)C)C)C.[Fe]

> <PUBCHEM_OPENEYE_ISO_SMILES>
CC=C1C(=C2C=C3C(=CC)C(=C([N-]3)C=C4C(=C(C(=CC5=C(C(=C([N-]5)C=C1[N-]2)C)CCC(=O)O)[N-]4)CCC(=O)O)C)C)C.[Fe]

> <PUBCHEM_CACTVS_TPSA>
78.6

> <PUBCHEM_MONOISOTOPIC_WEIGHT>
618.192943

> <PUBCHEM_TOTAL_CHARGE>
-4

> <PUBCHEM_HEAVY_ATOM_COUNT>
43

> <PUBCHEM_ATOM_DEF_STEREO_COUNT>
0

> <PUBCHEM_ATOM_UDEF_STEREO_COUNT>
0

> <PUBCHEM_BOND_DEF_STEREO_COUNT>
0

> <PUBCHEM_BOND_UDEF_STEREO_COUNT>
6

> <PUBCHEM_ISOTOPIC_ATOM_COUNT>
0

> <PUBCHEM_COMPONENT_COUNT>
2

> <PUBCHEM_CACTVS_TAUTO_COUNT>
1

> <PUBCHEM_NONSTANDARDBOND>
1  6  6
1  7  6
1  8  6
1  9  6

> <PUBCHEM_COORDINATE_TYPE>
1
5
255

> <PUBCHEM_BONDANNOTATIONS>
1  6  4
1  7  4
1  8  4
1  9  4
10  18  1
10  19  8
11  20  8
12  21  1
12  23  8
13  24  8
14  26  8
15  22  1
15  28  8
16  27  8
17  25  1
17  29  8
19  23  8
20  24  8
26  29  8
27  28  8
28  36  1
29  37  1
6  10  8
6  12  8
7  11  8
7  13  8
8  14  8
8  17  8
9  15  8
9  16  8

$$$$

