17396110
  -OEChem-06241222542D

 53 56  0     1  0  0  0  0  0999 V2000
    2.0000    2.7500    0.0000 Cl  0  0  0  0  0  0  0  0  0  0  0  0
    3.7320    3.7500    0.0000 S   0  0  0  0  0  0  0  0  0  0  0  0
    4.7320    3.7500    0.0000 O   0  0  0  0  0  0  0  0  0  0  0  0
    2.7320    3.7500    0.0000 O   0  0  0  0  0  0  0  0  0  0  0  0
    6.3301    1.2500    0.0000 O   0  0  0  0  0  0  0  0  0  0  0  0
    3.7320    4.7500    0.0000 N   0  0  0  0  0  0  0  0  0  0  0  0
    5.4641   -0.2500    0.0000 N   0  0  0  0  0  0  0  0  0  0  0  0
    6.3301   -4.7500    0.0000 N   0  0  0  0  0  0  0  0  0  0  0  0
    5.5211   -5.3378    0.0000 N   0  0  0  0  0  0  0  0  0  0  0  0
    6.8301   -6.2888    0.0000 N   0  0  0  0  0  0  0  0  0  0  0  0
    4.5411    5.3378    0.0000 C   0  0  0  0  0  0  0  0  0  0  0  0
    2.9230    5.3378    0.0000 C   0  0  0  0  0  0  0  0  0  0  0  0
    3.2320    6.2888    0.0000 C   0  0  0  0  0  0  0  0  0  0  0  0
    4.2320    6.2888    0.0000 C   0  0  0  0  0  0  0  0  0  0  0  0
    3.7320    2.7500    0.0000 C   0  0  0  0  0  0  0  0  0  0  0  0
    4.5981    2.2500    0.0000 C   0  0  0  0  0  0  0  0  0  0  0  0
    2.8660    2.2500    0.0000 C   0  0  0  0  0  0  0  0  0  0  0  0
    4.5981    1.2500    0.0000 C   0  0  0  0  0  0  0  0  0  0  0  0
    6.3301   -0.7500    0.0000 C   0  0  3  0  0  0  0  0  0  0  0  0
    2.8660    1.2500    0.0000 C   0  0  0  0  0  0  0  0  0  0  0  0
    3.7320    0.7500    0.0000 C   0  0  0  0  0  0  0  0  0  0  0  0
    5.4641    0.7500    0.0000 C   0  0  0  0  0  0  0  0  0  0  0  0
    6.3301   -1.7500    0.0000 C   0  0  0  0  0  0  0  0  0  0  0  0
    7.1962   -0.2500    0.0000 C   0  0  0  0  0  0  0  0  0  0  0  0
    5.4641   -2.2500    0.0000 C   0  0  0  0  0  0  0  0  0  0  0  0
    7.1962   -2.2500    0.0000 C   0  0  0  0  0  0  0  0  0  0  0  0
    6.3301   -3.7500    0.0000 C   0  0  0  0  0  0  0  0  0  0  0  0
    5.4641   -3.2500    0.0000 C   0  0  0  0  0  0  0  0  0  0  0  0
    7.1962   -3.2500    0.0000 C   0  0  0  0  0  0  0  0  0  0  0  0
    7.1391   -5.3378    0.0000 C   0  0  0  0  0  0  0  0  0  0  0  0
    5.8301   -6.2888    0.0000 C   0  0  0  0  0  0  0  0  0  0  0  0
    2.3566    5.5900    0.0000 H   0  0  0  0  0  0  0  0  0  0  0  0
    2.6130    4.8008    0.0000 H   0  0  0  0  0  0  0  0  0  0  0  0
    4.8511    4.8008    0.0000 H   0  0  0  0  0  0  0  0  0  0  0  0
    5.1075    5.5900    0.0000 H   0  0  0  0  0  0  0  0  0  0  0  0
    3.2969    6.9054    0.0000 H   0  0  0  0  0  0  0  0  0  0  0  0
    2.6256    6.4178    0.0000 H   0  0  0  0  0  0  0  0  0  0  0  0
    4.8385    6.4178    0.0000 H   0  0  0  0  0  0  0  0  0  0  0  0
    4.1672    6.9054    0.0000 H   0  0  0  0  0  0  0  0  0  0  0  0
    5.1350    2.5600    0.0000 H   0  0  0  0  0  0  0  0  0  0  0  0
    5.7932   -1.0600    0.0000 H   0  0  0  0  0  0  0  0  0  0  0  0
    2.3291    0.9400    0.0000 H   0  0  0  0  0  0  0  0  0  0  0  0
    3.7320    0.1300    0.0000 H   0  0  0  0  0  0  0  0  0  0  0  0
    4.9272   -0.5600    0.0000 H   0  0  0  0  0  0  0  0  0  0  0  0
    7.5062   -0.7869    0.0000 H   0  0  0  0  0  0  0  0  0  0  0  0
    7.7331    0.0600    0.0000 H   0  0  0  0  0  0  0  0  0  0  0  0
    6.8862    0.2869    0.0000 H   0  0  0  0  0  0  0  0  0  0  0  0
    4.9272   -1.9400    0.0000 H   0  0  0  0  0  0  0  0  0  0  0  0
    7.7331   -1.9400    0.0000 H   0  0  0  0  0  0  0  0  0  0  0  0
    4.9272   -3.5600    0.0000 H   0  0  0  0  0  0  0  0  0  0  0  0
    7.7331   -3.5600    0.0000 H   0  0  0  0  0  0  0  0  0  0  0  0
    7.7288   -5.1462    0.0000 H   0  0  0  0  0  0  0  0  0  0  0  0
    5.4657   -6.7904    0.0000 H   0  0  0  0  0  0  0  0  0  0  0  0
  1 17  1  0  0  0  0
  2  3  2  0  0  0  0
  2  4  2  0  0  0  0
  2  6  1  0  0  0  0
  2 15  1  0  0  0  0
  5 22  2  0  0  0  0
  6 11  1  0  0  0  0
  6 12  1  0  0  0  0
  7 19  1  0  0  0  0
  7 22  1  0  0  0  0
  7 44  1  0  0  0  0
  8  9  1  0  0  0  0
  8 27  1  0  0  0  0
  8 30  1  0  0  0  0
  9 31  2  0  0  0  0
 10 30  2  0  0  0  0
 10 31  1  0  0  0  0
 11 14  1  0  0  0  0
 11 34  1  0  0  0  0
 11 35  1  0  0  0  0
 12 13  1  0  0  0  0
 12 32  1  0  0  0  0
 12 33  1  0  0  0  0
 13 14  1  0  0  0  0
 13 36  1  0  0  0  0
 13 37  1  0  0  0  0
 14 38  1  0  0  0  0
 14 39  1  0  0  0  0
 15 16  1  0  0  0  0
 15 17  2  0  0  0  0
 16 18  2  0  0  0  0
 16 40  1  0  0  0  0
 17 20  1  0  0  0  0
 18 21  1  0  0  0  0
 18 22  1  0  0  0  0
 19 23  1  0  0  0  0
 19 24  1  0  0  0  0
 19 41  1  0  0  0  0
 20 21  2  0  0  0  0
 20 42  1  0  0  0  0
 21 43  1  0  0  0  0
 23 25  2  0  0  0  0
 23 26  1  0  0  0  0
 24 45  1  0  0  0  0
 24 46  1  0  0  0  0
 24 47  1  0  0  0  0
 25 28  1  0  0  0  0
 25 48  1  0  0  0  0
 26 29  2  0  0  0  0
 26 49  1  0  0  0  0
 27 28  2  0  0  0  0
 27 29  1  0  0  0  0
 28 50  1  0  0  0  0
 29 51  1  0  0  0  0
 30 52  1  0  0  0  0
 31 53  1  0  0  0  0
M  END
> <PUBCHEM_COMPOUND_CID>
17396110

> <PUBCHEM_COMPOUND_CANONICALIZED>
1

> <PUBCHEM_CACTVS_COMPLEXITY>
719

> <PUBCHEM_CACTVS_HBOND_ACCEPTOR>
6

> <PUBCHEM_CACTVS_HBOND_DONOR>
1

> <PUBCHEM_CACTVS_ROTATABLE_BOND>
6

> <PUBCHEM_CACTVS_SUBSKEYS>
AAADceB7sABEAAAAAAAAAAAAAAAAAWLAAAAwYAAAAAAAAAAB0AAAHgYYQAAADCrB2CQ30YbIEAKqAiVTdHDSBDs1h4AdyJkIZsiIKDLBn5GEIQholgLIyacYiICODAAAgAAAAIAYAAEAAAABAAAAAAAAAA==

> <PUBCHEM_IUPAC_OPENEYE_NAME>
4-chloro-3-pyrrolidin-1-ylsulfonyl-N-[1-[4-(1,2,4-triazol-1-yl)phenyl]ethyl]benzamide

> <PUBCHEM_IUPAC_CAS_NAME>
4-chloro-3-(1-pyrrolidinylsulfonyl)-N-[1-[4-(1,2,4-triazol-1-yl)phenyl]ethyl]benzamide

> <PUBCHEM_IUPAC_NAME>
4-chloro-3-pyrrolidin-1-ylsulfonyl-N-[1-[4-(1,2,4-triazol-1-yl)phenyl]ethyl]benzamide

> <PUBCHEM_IUPAC_SYSTEMATIC_NAME>
4-chloranyl-3-pyrrolidin-1-ylsulfonyl-N-[1-[4-(1,2,4-triazol-1-yl)phenyl]ethyl]benzamide

> <PUBCHEM_IUPAC_TRADITIONAL_NAME>
4-chloro-3-pyrrolidinosulfonyl-N-[1-[4-(1,2,4-triazol-1-yl)phenyl]ethyl]benzamide

> <PUBCHEM_IUPAC_INCHI>
InChI=1S/C21H22ClN5O3S/c1-15(16-4-7-18(8-5-16)27-14-23-13-24-27)25-21(28)17-6-9-19(22)20(12-17)31(29,30)26-10-2-3-11-26/h4-9,12-15H,2-3,10-11H2,1H3,(H,25,28)

> <PUBCHEM_IUPAC_INCHIKEY>
LURVGGRHPLWVLD-UHFFFAOYSA-N

> <PUBCHEM_XLOGP3_AA>
3.1

> <PUBCHEM_EXACT_MASS>
459.113188

> <PUBCHEM_MOLECULAR_FORMULA>
C21H22ClN5O3S

> <PUBCHEM_MOLECULAR_WEIGHT>
459.94908

> <PUBCHEM_OPENEYE_CAN_SMILES>
CC(C1=CC=C(C=C1)N2C=NC=N2)NC(=O)C3=CC(=C(C=C3)Cl)S(=O)(=O)N4CCCC4

> <PUBCHEM_OPENEYE_ISO_SMILES>
CC(C1=CC=C(C=C1)N2C=NC=N2)NC(=O)C3=CC(=C(C=C3)Cl)S(=O)(=O)N4CCCC4

> <PUBCHEM_CACTVS_TPSA>
106

> <PUBCHEM_MONOISOTOPIC_WEIGHT>
459.113188

> <PUBCHEM_TOTAL_CHARGE>
0

> <PUBCHEM_HEAVY_ATOM_COUNT>
31

> <PUBCHEM_ATOM_DEF_STEREO_COUNT>
0

> <PUBCHEM_ATOM_UDEF_STEREO_COUNT>
1

> <PUBCHEM_BOND_DEF_STEREO_COUNT>
0

> <PUBCHEM_BOND_UDEF_STEREO_COUNT>
0

> <PUBCHEM_ISOTOPIC_ATOM_COUNT>
0

> <PUBCHEM_COMPONENT_COUNT>
1

> <PUBCHEM_CACTVS_TAUTO_COUNT>
2

> <PUBCHEM_COORDINATE_TYPE>
1
5
255

> <PUBCHEM_BONDANNOTATIONS>
10  30  8
10  31  8
15  16  8
15  17  8
16  18  8
17  20  8
18  21  8
19  24  3
20  21  8
23  25  8
23  26  8
25  28  8
26  29  8
27  28  8
27  29  8
8  30  8
8  9  8
9  31  8

$$$$

