12509
  -OEChem-06261207012D

 18 17  0     0  0  0  0  0  0999 V2000
    6.0010    0.4400    0.0000 O   0  0  0  0  0  0  0  0  0  0  0  0
    5.1350   -1.0600    0.0000 O   0  0  0  0  0  0  0  0  0  0  0  0
    3.4030   -0.0600    0.0000 N   0  0  0  0  0  0  0  0  0  0  0  0
    2.5369    0.4400    0.0000 N   0  0  0  0  0  0  0  0  0  0  0  0
    4.2690    0.4400    0.0000 C   0  0  0  0  0  0  0  0  0  0  0  0
    6.8671   -0.0600    0.0000 C   0  0  0  0  0  0  0  0  0  0  0  0
    5.1350   -0.0600    0.0000 C   0  0  0  0  0  0  0  0  0  0  0  0
    7.7331    0.4400    0.0000 C   0  0  0  0  0  0  0  0  0  0  0  0
    4.6675    0.9149    0.0000 H   0  0  0  0  0  0  0  0  0  0  0  0
    3.8705    0.9149    0.0000 H   0  0  0  0  0  0  0  0  0  0  0  0
    6.4685   -0.5349    0.0000 H   0  0  0  0  0  0  0  0  0  0  0  0
    7.2656   -0.5349    0.0000 H   0  0  0  0  0  0  0  0  0  0  0  0
    8.0431   -0.0969    0.0000 H   0  0  0  0  0  0  0  0  0  0  0  0
    8.2700    0.7500    0.0000 H   0  0  0  0  0  0  0  0  0  0  0  0
    7.4231    0.9769    0.0000 H   0  0  0  0  0  0  0  0  0  0  0  0
    3.4030   -0.6800    0.0000 H   0  0  0  0  0  0  0  0  0  0  0  0
    2.0000    0.1300    0.0000 H   0  0  0  0  0  0  0  0  0  0  0  0
    2.5369    1.0600    0.0000 H   0  0  0  0  0  0  0  0  0  0  0  0
  1  6  1  0  0  0  0
  1  7  1  0  0  0  0
  2  7  2  0  0  0  0
  3  4  1  0  0  0  0
  3  5  1  0  0  0  0
  3 16  1  0  0  0  0
  4 17  1  0  0  0  0
  4 18  1  0  0  0  0
  5  7  1  0  0  0  0
  5  9  1  0  0  0  0
  5 10  1  0  0  0  0
  6  8  1  0  0  0  0
  6 11  1  0  0  0  0
  6 12  1  0  0  0  0
  8 13  1  0  0  0  0
  8 14  1  0  0  0  0
  8 15  1  0  0  0  0
M  END
> <PUBCHEM_COMPOUND_CID>
12509

> <PUBCHEM_COMPOUND_CANONICALIZED>
1

> <PUBCHEM_CACTVS_COMPLEXITY>
74.4

> <PUBCHEM_CACTVS_HBOND_ACCEPTOR>
4

> <PUBCHEM_CACTVS_HBOND_DONOR>
2

> <PUBCHEM_CACTVS_ROTATABLE_BOND>
4

> <PUBCHEM_CACTVS_SUBSKEYS>
AAADccBjMAAAAAAAAAAAAAAAAAAAAAAAAAAAAAAAAAAAAAAAAAAAHgAYAAAAAADhgAYCCABiBAAIAACQCAAAAAAAAAIQIICAAAACAAAAAAADAAAAAAAAAAAAAAAAAAAAAAAAAAAAAAAAAAAAAAAAAAAAAA==

> <PUBCHEM_IUPAC_OPENEYE_NAME>
ethyl 2-hydrazinoacetate

> <PUBCHEM_IUPAC_CAS_NAME>
2-hydrazinylacetic acid ethyl ester

> <PUBCHEM_IUPAC_NAME>
ethyl 2-hydrazinylacetate

> <PUBCHEM_IUPAC_SYSTEMATIC_NAME>
ethyl 2-diazanylethanoate

> <PUBCHEM_IUPAC_TRADITIONAL_NAME>
2-hydrazinoacetic acid ethyl ester

> <PUBCHEM_IUPAC_INCHI>
InChI=1S/C4H10N2O2/c1-2-8-4(7)3-6-5/h6H,2-3,5H2,1H3

> <PUBCHEM_IUPAC_INCHIKEY>
GETVBTMFGVOGRW-UHFFFAOYSA-N

> <PUBCHEM_XLOGP3_AA>
-0.7

> <PUBCHEM_EXACT_MASS>
118.074228

> <PUBCHEM_MOLECULAR_FORMULA>
C4H10N2O2

> <PUBCHEM_MOLECULAR_WEIGHT>
118.1344

> <PUBCHEM_OPENEYE_CAN_SMILES>
CCOC(=O)CNN

> <PUBCHEM_OPENEYE_ISO_SMILES>
CCOC(=O)CNN

> <PUBCHEM_CACTVS_TPSA>
64.4

> <PUBCHEM_MONOISOTOPIC_WEIGHT>
118.074228

> <PUBCHEM_TOTAL_CHARGE>
0

> <PUBCHEM_HEAVY_ATOM_COUNT>
8

> <PUBCHEM_ATOM_DEF_STEREO_COUNT>
0

> <PUBCHEM_ATOM_UDEF_STEREO_COUNT>
0

> <PUBCHEM_BOND_DEF_STEREO_COUNT>
0

> <PUBCHEM_BOND_UDEF_STEREO_COUNT>
0

> <PUBCHEM_ISOTOPIC_ATOM_COUNT>
0

> <PUBCHEM_COMPONENT_COUNT>
1

> <PUBCHEM_CACTVS_TAUTO_COUNT>
1

> <PUBCHEM_COORDINATE_TYPE>
1
5
255

$$$$

