14341
  -OEChem-06241222432D

 31 32  0     1  0  0  0  0  0999 V2000
    4.6942    0.2851    0.0000 O   0  0  0  0  0  0  0  0  0  0  0  0
    3.3852    1.2362    0.0000 O   0  0  0  0  0  0  0  0  0  0  0  0
    6.1622    2.5233    0.0000 O   0  0  0  0  0  0  0  0  0  0  0  0
    3.6942    0.2851    0.0000 C   0  0  3  0  0  0  0  0  0  0  0  0
    5.0032    1.2362    0.0000 C   0  0  3  0  0  0  0  0  0  0  0  0
    4.1942    1.8239    0.0000 C   0  0  0  0  0  0  0  0  0  0  0  0
    2.7431   -0.0239    0.0000 C   0  0  0  0  0  0  0  0  0  0  0  0
    3.6942   -0.7149    0.0000 C   0  0  0  0  0  0  0  0  0  0  0  0
    5.9543    1.5452    0.0000 C   0  0  0  0  0  0  0  0  0  0  0  0
    2.0000    0.6452    0.0000 C   0  0  0  0  0  0  0  0  0  0  0  0
    2.8282   -1.2149    0.0000 C   0  0  0  0  0  0  0  0  0  0  0  0
    4.5602   -1.2149    0.0000 C   0  0  0  0  0  0  0  0  0  0  0  0
    2.8282   -2.2149    0.0000 C   0  0  0  0  0  0  0  0  0  0  0  0
    4.5602   -2.2149    0.0000 C   0  0  0  0  0  0  0  0  0  0  0  0
    3.6942   -2.7149    0.0000 C   0  0  0  0  0  0  0  0  0  0  0  0
    5.4416    0.7977    0.0000 H   0  0  0  0  0  0  0  0  0  0  0  0
    4.6091    2.2847    0.0000 H   0  0  0  0  0  0  0  0  0  0  0  0
    3.7793    2.2847    0.0000 H   0  0  0  0  0  0  0  0  0  0  0  0
    2.2546   -0.4056    0.0000 H   0  0  0  0  0  0  0  0  0  0  0  0
    3.0342   -0.5714    0.0000 H   0  0  0  0  0  0  0  0  0  0  0  0
    6.0406    0.9312    0.0000 H   0  0  0  0  0  0  0  0  0  0  0  0
    6.5739    1.5235    0.0000 H   0  0  0  0  0  0  0  0  0  0  0  0
    2.4149    1.1060    0.0000 H   0  0  0  0  0  0  0  0  0  0  0  0
    1.5392    1.0601    0.0000 H   0  0  0  0  0  0  0  0  0  0  0  0
    1.5851    0.1845    0.0000 H   0  0  0  0  0  0  0  0  0  0  0  0
    2.2912   -0.9049    0.0000 H   0  0  0  0  0  0  0  0  0  0  0  0
    5.0972   -0.9049    0.0000 H   0  0  0  0  0  0  0  0  0  0  0  0
    2.2912   -2.5249    0.0000 H   0  0  0  0  0  0  0  0  0  0  0  0
    5.0972   -2.5249    0.0000 H   0  0  0  0  0  0  0  0  0  0  0  0
    6.7518    2.7149    0.0000 H   0  0  0  0  0  0  0  0  0  0  0  0
    3.6942   -3.3349    0.0000 H   0  0  0  0  0  0  0  0  0  0  0  0
  1  4  1  0  0  0  0
  1  5  1  0  0  0  0
  2  4  1  0  0  0  0
  2  6  1  0  0  0  0
  3  9  1  0  0  0  0
  3 30  1  0  0  0  0
  4  7  1  0  0  0  0
  4  8  1  0  0  0  0
  5  6  1  0  0  0  0
  5  9  1  0  0  0  0
  5 16  1  0  0  0  0
  6 17  1  0  0  0  0
  6 18  1  0  0  0  0
  7 10  1  0  0  0  0
  7 19  1  0  0  0  0
  7 20  1  0  0  0  0
  8 11  2  0  0  0  0
  8 12  1  0  0  0  0
  9 21  1  0  0  0  0
  9 22  1  0  0  0  0
 10 23  1  0  0  0  0
 10 24  1  0  0  0  0
 10 25  1  0  0  0  0
 11 13  1  0  0  0  0
 11 26  1  0  0  0  0
 12 14  2  0  0  0  0
 12 27  1  0  0  0  0
 13 15  2  0  0  0  0
 13 28  1  0  0  0  0
 14 15  1  0  0  0  0
 14 29  1  0  0  0  0
 15 31  1  0  0  0  0
M  END
> <PUBCHEM_COMPOUND_CID>
14341

> <PUBCHEM_COMPOUND_CANONICALIZED>
1

> <PUBCHEM_CACTVS_COMPLEXITY>
201

> <PUBCHEM_CACTVS_HBOND_ACCEPTOR>
3

> <PUBCHEM_CACTVS_HBOND_DONOR>
1

> <PUBCHEM_CACTVS_ROTATABLE_BOND>
3

> <PUBCHEM_CACTVS_SUBSKEYS>
AAADceBwMAAAAAAAAAAAAAAAAAAAASAAAAAwAAAAAAAAAAABAAAAGgAACAAADBSgmAIyCIAABgCAAiBCAAACAAAgAAAIiAAACIgZNiKAMRiicAAlwAEPqAeAwKAOAAAAAAAAAAAAAAAAAAAAAAAAAAAAAA==

> <PUBCHEM_IUPAC_OPENEYE_NAME>
(2-ethyl-2-phenyl-1,3-dioxolan-4-yl)methanol

> <PUBCHEM_IUPAC_CAS_NAME>
(2-ethyl-2-phenyl-1,3-dioxolan-4-yl)methanol

> <PUBCHEM_IUPAC_NAME>
(2-ethyl-2-phenyl-1,3-dioxolan-4-yl)methanol

> <PUBCHEM_IUPAC_SYSTEMATIC_NAME>
(2-ethyl-2-phenyl-1,3-dioxolan-4-yl)methanol

> <PUBCHEM_IUPAC_TRADITIONAL_NAME>
(2-ethyl-2-phenyl-1,3-dioxolan-4-yl)methanol

> <PUBCHEM_IUPAC_INCHI>
InChI=1S/C12H16O3/c1-2-12(10-6-4-3-5-7-10)14-9-11(8-13)15-12/h3-7,11,13H,2,8-9H2,1H3

> <PUBCHEM_IUPAC_INCHIKEY>
MNDLRZFXJPXXCG-UHFFFAOYSA-N

> <PUBCHEM_XLOGP3_AA>
1.4

> <PUBCHEM_EXACT_MASS>
208.109944

> <PUBCHEM_MOLECULAR_FORMULA>
C12H16O3

> <PUBCHEM_MOLECULAR_WEIGHT>
208.25364

> <PUBCHEM_OPENEYE_CAN_SMILES>
CCC1(OCC(O1)CO)C2=CC=CC=C2

> <PUBCHEM_OPENEYE_ISO_SMILES>
CCC1(OCC(O1)CO)C2=CC=CC=C2

> <PUBCHEM_CACTVS_TPSA>
38.7

> <PUBCHEM_MONOISOTOPIC_WEIGHT>
208.109944

> <PUBCHEM_TOTAL_CHARGE>
0

> <PUBCHEM_HEAVY_ATOM_COUNT>
15

> <PUBCHEM_ATOM_DEF_STEREO_COUNT>
0

> <PUBCHEM_ATOM_UDEF_STEREO_COUNT>
2

> <PUBCHEM_BOND_DEF_STEREO_COUNT>
0

> <PUBCHEM_BOND_UDEF_STEREO_COUNT>
0

> <PUBCHEM_ISOTOPIC_ATOM_COUNT>
0

> <PUBCHEM_COMPONENT_COUNT>
1

> <PUBCHEM_CACTVS_TAUTO_COUNT>
1

> <PUBCHEM_COORDINATE_TYPE>
1
5
255

> <PUBCHEM_BONDANNOTATIONS>
11  13  8
12  14  8
13  15  8
14  15  8
4  7  3
5  9  3
8  11  8
8  12  8

$$$$

